/*--------------------------------*- C++ -*----------------------------------*\
  =========                 |
  \\      /  F ield         | OpenFOAM: The Open Source CFD Toolbox
   \\    /   O peration     | Website:  https://openfoam.org
    \\  /    A nd           | Version:  10
     \\/     M anipulation  |
\*---------------------------------------------------------------------------*/
FoamFile
{
    format      ascii;
    class       surfaceScalarField;
    location    "0.17";
    object      phi;
}
// * * * * * * * * * * * * * * * * * * * * * * * * * * * * * * * * * * * * * //

dimensions      [0 3 -1 0 0 0 0];

internalField   nonuniform List<scalar> 
13452
(
6.0577e-05
-3.08545e-07
6.03704e-05
2.06649e-07
5.98979e-05
4.72437e-07
5.92835e-05
6.14448e-07
5.86771e-05
6.06349e-07
5.81391e-05
5.38039e-07
5.7672e-05
4.67086e-07
5.72658e-05
4.0625e-07
5.6909e-05
3.56751e-07
5.65918e-05
3.1722e-07
5.63063e-05
2.85481e-07
5.60467e-05
2.59576e-07
5.58087e-05
2.38027e-07
5.55889e-05
2.19767e-07
5.53849e-05
2.04036e-07
5.51946e-05
1.90299e-07
5.50164e-05
1.78176e-07
5.4849e-05
1.674e-07
5.46912e-05
1.57783e-07
5.4542e-05
1.49196e-07
5.44005e-05
1.41568e-07
5.42656e-05
1.34876e-07
5.41364e-05
1.29164e-07
5.40119e-05
1.24571e-07
5.38905e-05
1.2137e-07
5.37703e-05
1.20173e-07
5.36484e-05
1.21933e-07
5.35191e-05
1.29283e-07
5.33724e-05
1.4667e-07
5.31908e-05
1.81664e-07
5.29101e-05
2.80667e-07
5.24971e-05
4.12965e-07
8.22737e-07
5.16744e-05
6.18026e-05
-1.20803e-07
6.17623e-05
2.46918e-07
6.18789e-05
3.5585e-07
6.204e-05
4.53382e-07
6.21461e-05
5.0027e-07
6.21746e-05
5.09461e-07
6.21402e-05
5.01479e-07
6.20637e-05
4.82842e-07
6.19613e-05
4.59119e-07
6.18443e-05
4.34155e-07
6.17201e-05
4.09776e-07
6.15929e-05
3.86738e-07
6.14656e-05
3.65313e-07
6.13398e-05
3.45535e-07
6.12165e-05
3.27326e-07
6.10963e-05
3.1057e-07
6.09793e-05
2.9515e-07
6.08657e-05
2.80961e-07
6.07556e-05
2.67918e-07
6.06488e-05
2.55965e-07
6.05453e-05
2.45075e-07
6.04449e-05
2.35267e-07
6.03475e-05
2.26615e-07
6.02528e-05
2.19276e-07
6.01606e-05
2.13556e-07
6.00708e-05
2.09949e-07
5.99833e-05
2.09493e-07
5.98992e-05
2.13382e-07
5.98195e-05
2.26299e-07
5.97541e-05
2.47094e-07
5.97292e-05
3.05554e-07
5.97853e-05
3.56855e-07
5.51515e-07
6.00565e-05
6.36612e-05
-2.05752e-08
6.37526e-05
1.55535e-07
6.38143e-05
2.94144e-07
6.38666e-05
4.0103e-07
6.39092e-05
4.57726e-07
6.39402e-05
4.78401e-07
6.396e-05
4.81742e-07
6.39668e-05
4.7597e-07
6.39612e-05
4.64706e-07
6.39449e-05
4.50511e-07
6.39198e-05
4.34906e-07
6.38877e-05
4.18766e-07
6.38504e-05
4.0263e-07
6.38091e-05
3.86827e-07
6.37649e-05
3.71547e-07
6.37186e-05
3.56899e-07
6.36708e-05
3.42951e-07
6.3622e-05
3.29746e-07
6.35726e-05
3.17321e-07
6.35228e-05
3.05718e-07
6.34729e-05
2.95002e-07
6.34229e-05
2.85267e-07
6.33729e-05
2.76669e-07
6.33227e-05
2.6944e-07
6.32723e-05
2.63979e-07
6.32214e-05
2.60837e-07
6.31697e-05
2.61164e-07
6.31171e-05
2.65952e-07
6.30639e-05
2.79496e-07
6.30107e-05
3.00361e-07
6.29682e-05
3.48037e-07
6.29293e-05
3.95707e-07
5.10283e-07
6.29706e-05
6.55759e-05
-1.33717e-08
6.55534e-05
1.78013e-07
6.55639e-05
2.8361e-07
6.56043e-05
3.60626e-07
6.56529e-05
4.09159e-07
6.56974e-05
4.33903e-07
6.57342e-05
4.44916e-07
6.5763e-05
4.47139e-07
6.57844e-05
4.43328e-07
6.57991e-05
4.35802e-07
6.5808e-05
4.26057e-07
6.58118e-05
4.14986e-07
6.58112e-05
4.03178e-07
6.5807e-05
3.91033e-07
6.57997e-05
3.78823e-07
6.57899e-05
3.66742e-07
6.57779e-05
3.54934e-07
6.57641e-05
3.43516e-07
6.57489e-05
3.32592e-07
6.57323e-05
3.22267e-07
6.57147e-05
3.12659e-07
6.5696e-05
3.03921e-07
6.56764e-05
2.96257e-07
6.56559e-05
2.89953e-07
6.56344e-05
2.85444e-07
6.5612e-05
2.83299e-07
6.55886e-05
2.84566e-07
6.55644e-05
2.9016e-07
6.55408e-05
3.03038e-07
6.55186e-05
3.22637e-07
6.55084e-05
3.58147e-07
6.55082e-05
3.95946e-07
4.54877e-07
6.55636e-05
6.74265e-05
1.6956e-08
6.74512e-05
1.53229e-07
6.74793e-05
2.55542e-07
6.75099e-05
3.3001e-07
6.75403e-05
3.78821e-07
6.75696e-05
4.04612e-07
6.75977e-05
4.16774e-07
6.7624e-05
4.20853e-07
6.76477e-05
4.19561e-07
6.76687e-05
4.14841e-07
6.76868e-05
4.07943e-07
6.77022e-05
3.99621e-07
6.7715e-05
3.90386e-07
6.77254e-05
3.80603e-07
6.77337e-05
3.70533e-07
6.77401e-05
3.60376e-07
6.77447e-05
3.50291e-07
6.77478e-05
3.40415e-07
6.77495e-05
3.30875e-07
6.775e-05
3.21802e-07
6.77493e-05
3.13342e-07
6.77476e-05
3.05672e-07
6.77448e-05
2.9902e-07
6.77411e-05
2.93685e-07
6.77364e-05
2.90093e-07
6.77309e-05
2.88772e-07
6.77249e-05
2.90586e-07
6.77188e-05
2.96275e-07
6.77141e-05
3.07697e-07
6.77123e-05
3.24517e-07
6.77198e-05
3.50619e-07
6.77372e-05
3.7853e-07
4.1182e-07
6.77803e-05
6.93768e-05
2.42159e-08
6.93863e-05
1.43747e-07
6.94044e-05
2.37423e-07
6.94302e-05
3.04143e-07
6.94596e-05
3.49418e-07
6.94888e-05
3.75482e-07
6.95164e-05
3.89142e-07
6.95422e-05
3.9501e-07
6.95663e-05
3.95546e-07
6.95885e-05
3.92573e-07
6.96091e-05
3.87334e-07
6.96282e-05
3.80597e-07
6.96457e-05
3.72874e-07
6.96618e-05
3.64525e-07
6.96765e-05
3.55808e-07
6.96899e-05
3.4692e-07
6.97022e-05
3.38023e-07
6.97134e-05
3.29256e-07
6.97235e-05
3.20754e-07
6.97326e-05
3.12654e-07
6.97409e-05
3.0511e-07
6.97482e-05
2.98305e-07
6.97548e-05
2.92465e-07
6.97606e-05
2.87874e-07
6.97658e-05
2.84911e-07
6.97705e-05
2.84026e-07
6.97752e-05
2.85863e-07
6.97806e-05
2.90945e-07
6.9788e-05
3.00284e-07
6.9799e-05
3.1352e-07
6.98179e-05
3.3175e-07
6.98459e-05
3.50482e-07
3.68144e-07
6.98896e-05
7.13593e-05
3.12872e-08
7.13708e-05
1.32226e-07
7.13916e-05
2.16574e-07
7.14173e-05
2.78509e-07
7.14445e-05
3.22153e-07
7.14711e-05
3.48892e-07
7.14965e-05
3.63724e-07
7.15208e-05
3.70781e-07
7.15438e-05
3.72497e-07
7.15658e-05
3.70639e-07
7.15867e-05
3.66434e-07
7.16066e-05
3.60667e-07
7.16256e-05
3.53859e-07
7.16437e-05
3.4638e-07
7.16611e-05
3.38495e-07
7.16776e-05
3.30404e-07
7.16933e-05
3.2227e-07
7.17083e-05
3.14235e-07
7.17227e-05
3.06434e-07
7.17363e-05
2.99005e-07
7.17493e-05
2.92097e-07
7.17617e-05
2.85887e-07
7.17736e-05
2.80582e-07
7.17851e-05
2.76434e-07
7.17962e-05
2.73756e-07
7.18074e-05
2.72895e-07
7.18189e-05
2.74287e-07
7.18316e-05
2.78239e-07
7.18467e-05
2.85183e-07
7.18656e-05
2.94666e-07
7.18908e-05
3.06504e-07
7.19236e-05
3.17749e-07
3.25811e-07
7.19659e-05
7.34033e-05
3.32917e-08
7.34138e-05
1.21674e-07
7.34323e-05
1.98117e-07
7.34554e-05
2.55433e-07
7.34808e-05
2.96674e-07
7.35065e-05
3.23208e-07
7.35315e-05
3.38768e-07
7.35554e-05
3.46835e-07
7.35783e-05
3.49621e-07
7.36002e-05
3.48754e-07
7.36212e-05
3.45419e-07
7.36415e-05
3.40412e-07
7.3661e-05
3.3428e-07
7.368e-05
3.2741e-07
7.36984e-05
3.20085e-07
7.37163e-05
3.12519e-07
7.37337e-05
3.04882e-07
7.37506e-05
2.9732e-07
7.37671e-05
2.89968e-07
7.37831e-05
2.82962e-07
7.37988e-05
2.76445e-07
7.38141e-05
2.70577e-07
7.38291e-05
2.6554e-07
7.3844e-05
2.61542e-07
7.38589e-05
2.58824e-07
7.38742e-05
2.57628e-07
7.38903e-05
2.5821e-07
7.39078e-05
2.60693e-07
7.39279e-05
2.65142e-07
7.39515e-05
2.71035e-07
7.39803e-05
2.77684e-07
7.4015e-05
2.83035e-07
2.84791e-07
7.40561e-05
7.55022e-05
3.35475e-08
7.55121e-05
1.11788e-07
7.55295e-05
1.80676e-07
7.55514e-05
2.33538e-07
7.55757e-05
2.72387e-07
7.56005e-05
2.98443e-07
7.56248e-05
3.14453e-07
7.56484e-05
3.23282e-07
7.5671e-05
3.26929e-07
7.56929e-05
3.26892e-07
7.5714e-05
3.24299e-07
7.57345e-05
3.19938e-07
7.57544e-05
3.14366e-07
7.57738e-05
3.07984e-07
7.57928e-05
3.0109e-07
7.58114e-05
2.93908e-07
7.58297e-05
2.86617e-07
7.58477e-05
2.79369e-07
7.58653e-05
2.723e-07
7.58828e-05
2.65542e-07
7.59e-05
2.59228e-07
7.5917e-05
2.53499e-07
7.59341e-05
2.48508e-07
7.59512e-05
2.44417e-07
7.59686e-05
2.41395e-07
7.59867e-05
2.39588e-07
7.60058e-05
2.39114e-07
7.60265e-05
2.39954e-07
7.60497e-05
2.41965e-07
7.60761e-05
2.44601e-07
7.61067e-05
2.4706e-07
7.61419e-05
2.47863e-07
2.45292e-07
7.61814e-05
7.76607e-05
3.2453e-08
7.76701e-05
1.02335e-07
7.76864e-05
1.64422e-07
7.77068e-05
2.13095e-07
7.77297e-05
2.49485e-07
7.77535e-05
2.7467e-07
7.77772e-05
2.90731e-07
7.78005e-05
3.00018e-07
7.78231e-05
3.04305e-07
7.78451e-05
3.04948e-07
7.78664e-05
3.02993e-07
7.78871e-05
2.99202e-07
7.79073e-05
2.94124e-07
7.79272e-05
2.88168e-07
7.79466e-05
2.81637e-07
7.79657e-05
2.74766e-07
7.79846e-05
2.6774e-07
7.80033e-05
2.60715e-07
7.80218e-05
2.53825e-07
7.80401e-05
2.47197e-07
7.80584e-05
2.40953e-07
7.80767e-05
2.35214e-07
7.80951e-05
2.30103e-07
7.81137e-05
2.25735e-07
7.81329e-05
2.22217e-07
7.81529e-05
2.19618e-07
7.81741e-05
2.17951e-07
7.81969e-05
2.17108e-07
7.8222e-05
2.16838e-07
7.825e-05
2.16619e-07
7.82814e-05
2.15705e-07
7.83162e-05
2.1302e-07
2.07374e-07
7.83541e-05
7.98801e-05
3.06283e-08
7.98891e-05
9.33596e-08
7.99043e-05
1.49267e-07
7.99235e-05
1.93891e-07
7.99452e-05
2.27763e-07
7.99681e-05
2.51805e-07
7.99912e-05
2.67618e-07
8.00141e-05
2.77108e-07
8.00366e-05
2.81822e-07
8.00585e-05
2.82978e-07
8.008e-05
2.81537e-07
8.0101e-05
2.78222e-07
8.01215e-05
2.73568e-07
8.01417e-05
2.6798e-07
8.01616e-05
2.61763e-07
8.01812e-05
2.55153e-07
8.02006e-05
2.48339e-07
8.02198e-05
2.41475e-07
8.0239e-05
2.34695e-07
8.02581e-05
2.28117e-07
8.02772e-05
2.2185e-07
8.02964e-05
2.15994e-07
8.03158e-05
2.10643e-07
8.03357e-05
2.05873e-07
8.03562e-05
2.01738e-07
8.03776e-05
1.98247e-07
8.04002e-05
1.95345e-07
8.04244e-05
1.92872e-07
8.04507e-05
1.90539e-07
8.04794e-05
1.87878e-07
8.05109e-05
1.84261e-07
8.0545e-05
1.78907e-07
1.71026e-07
8.05813e-05
8.21627e-05
2.84088e-08
8.21712e-05
8.48083e-08
8.21854e-05
1.35085e-07
8.22035e-05
1.7582e-07
8.22241e-05
2.07155e-07
8.2246e-05
2.29848e-07
8.22685e-05
2.45147e-07
8.2291e-05
2.54592e-07
8.23133e-05
2.59523e-07
8.23353e-05
2.61023e-07
8.23568e-05
2.59967e-07
8.2378e-05
2.5703e-07
8.23989e-05
2.52726e-07
8.24194e-05
2.47445e-07
8.24397e-05
2.4149e-07
8.24597e-05
2.35096e-07
8.24796e-05
2.28448e-07
8.24994e-05
2.21698e-07
8.25191e-05
2.14975e-07
8.25389e-05
2.08386e-07
8.25587e-05
2.02027e-07
8.25787e-05
1.9598e-07
8.2599e-05
1.90309e-07
8.26198e-05
1.85059e-07
8.26413e-05
1.80242e-07
8.26638e-05
1.75827e-07
8.26874e-05
1.71717e-07
8.27125e-05
1.6773e-07
8.27395e-05
1.63582e-07
8.27685e-05
1.58873e-07
8.27997e-05
1.53101e-07
8.28329e-05
1.45706e-07
1.3618e-07
8.28677e-05
8.45102e-05
2.60105e-08
8.45183e-05
7.66682e-08
8.45316e-05
1.21784e-07
8.45487e-05
1.58773e-07
8.45683e-05
1.8756e-07
8.45894e-05
2.08741e-07
8.46112e-05
2.23302e-07
8.46333e-05
2.32489e-07
8.46554e-05
2.37447e-07
8.46773e-05
2.39132e-07
8.46989e-05
2.38332e-07
8.47203e-05
2.35673e-07
8.47414e-05
2.31636e-07
8.47622e-05
2.26599e-07
8.47828e-05
2.20852e-07
8.48033e-05
2.14625e-07
8.48237e-05
2.08099e-07
8.48439e-05
2.0142e-07
8.48642e-05
1.94707e-07
8.48845e-05
1.8806e-07
8.4905e-05
1.81559e-07
8.49257e-05
1.75267e-07
8.49468e-05
1.69226e-07
8.49684e-05
1.63455e-07
8.49907e-05
1.57937e-07
8.50139e-05
1.52614e-07
8.50383e-05
1.4737e-07
8.5064e-05
1.42022e-07
8.50912e-05
1.36313e-07
8.51202e-05
1.29913e-07
8.51509e-05
1.22437e-07
8.51831e-05
1.13488e-07
1.02749e-07
8.52165e-05
8.69246e-05
2.35613e-08
8.69324e-05
6.89187e-08
8.69449e-05
1.09263e-07
8.6961e-05
1.42646e-07
8.69797e-05
1.68883e-07
8.7e-05
1.8843e-07
8.70212e-05
2.02069e-07
8.70429e-05
2.10808e-07
8.70647e-05
2.15618e-07
8.70865e-05
2.17338e-07
8.71082e-05
2.16671e-07
8.71297e-05
2.14187e-07
8.7151e-05
2.10338e-07
8.71721e-05
2.05477e-07
8.71931e-05
1.99883e-07
8.72139e-05
1.93776e-07
8.72347e-05
1.87328e-07
8.72554e-05
1.80678e-07
8.72762e-05
1.73937e-07
8.72971e-05
1.67193e-07
8.73181e-05
1.60511e-07
8.73394e-05
1.5394e-07
8.73612e-05
1.47504e-07
8.73834e-05
1.412e-07
8.74064e-05
1.34995e-07
8.74302e-05
1.28814e-07
8.7455e-05
1.22539e-07
8.7481e-05
1.15999e-07
8.75084e-05
1.08974e-07
8.75371e-05
1.012e-07
8.75671e-05
9.23906e-08
8.75983e-05
8.22674e-08
7.06423e-08
8.76304e-05
8.9408e-05
2.11348e-08
8.94153e-05
6.15394e-08
8.94272e-05
9.74357e-08
8.94425e-05
1.27345e-07
8.94603e-05
1.51038e-07
8.94799e-05
1.68855e-07
8.95005e-05
1.81418e-07
8.95218e-05
1.89543e-07
8.95434e-05
1.94049e-07
8.95651e-05
1.95663e-07
8.95867e-05
1.9501e-07
8.96083e-05
1.92605e-07
8.96298e-05
1.88862e-07
8.96511e-05
1.84112e-07
8.96724e-05
1.78616e-07
8.96936e-05
1.72582e-07
8.97148e-05
1.66171e-07
8.97359e-05
1.59515e-07
8.97571e-05
1.52712e-07
8.97785e-05
1.4584e-07
8.98001e-05
1.38954e-07
8.98219e-05
1.32086e-07
8.98442e-05
1.25248e-07
8.98669e-05
1.18423e-07
8.98904e-05
1.11568e-07
8.99146e-05
1.04605e-07
8.99397e-05
9.74188e-08
8.99658e-05
8.98608e-08
8.99931e-05
8.17482e-08
9.00214e-05
7.28773e-08
9.00507e-05
6.30394e-08
9.0081e-05
5.20443e-08
3.97881e-08
9.01118e-05
9.19622e-05
1.87699e-08
9.19693e-05
5.45066e-08
9.19805e-05
8.62237e-08
9.1995e-05
1.1278e-07
9.20121e-05
1.33941e-07
9.2031e-05
1.49954e-07
9.20511e-05
1.61314e-07
9.2072e-05
1.68681e-07
9.20933e-05
1.72741e-07
9.21148e-05
1.74123e-07
9.21365e-05
1.73373e-07
9.21581e-05
1.70952e-07
9.21798e-05
1.67239e-07
9.22013e-05
1.62535e-07
9.22229e-05
1.57084e-07
9.22444e-05
1.51078e-07
9.22659e-05
1.44668e-07
9.22874e-05
1.37973e-07
9.2309e-05
1.31082e-07
9.23308e-05
1.24063e-07
9.23528e-05
1.16958e-07
9.23751e-05
1.09791e-07
9.23978e-05
1.02563e-07
9.2421e-05
9.52486e-08
9.24447e-05
8.78007e-08
9.24692e-05
8.01435e-08
9.24944e-05
7.21749e-08
9.25205e-05
6.37681e-08
9.25475e-05
5.4778e-08
9.25753e-05
4.50508e-08
9.26039e-05
3.44388e-08
9.26332e-05
2.28155e-08
1.01329e-08
9.26628e-05
9.45894e-05
1.64846e-08
9.45962e-05
4.77945e-08
9.46068e-05
7.5556e-08
9.46207e-05
9.88698e-08
9.46372e-05
1.17516e-07
9.46554e-05
1.31668e-07
9.4675e-05
1.41719e-07
9.46955e-05
1.48203e-07
9.47166e-05
1.51692e-07
9.4738e-05
1.52722e-07
9.47596e-05
1.51772e-07
9.47813e-05
1.49249e-07
9.4803e-05
1.45491e-07
9.48248e-05
1.40773e-07
9.48465e-05
1.35317e-07
9.48683e-05
1.29299e-07
9.48901e-05
1.22857e-07
9.4912e-05
1.16098e-07
9.4934e-05
1.09101e-07
9.49561e-05
1.01924e-07
9.49785e-05
9.46001e-08
9.50011e-05
8.7145e-08
9.50241e-05
7.95521e-08
9.50476e-05
7.17944e-08
9.50716e-05
6.3824e-08
9.50961e-05
5.55721e-08
9.51214e-05
4.6951e-08
9.51473e-05
3.78579e-08
9.51739e-05
2.81804e-08
9.52011e-05
1.78064e-08
9.52289e-05
6.63449e-09
9.52572e-05
-5.41601e-09
-1.83561e-08
9.52857e-05
9.72917e-05
1.42845e-08
9.72981e-05
4.13754e-08
9.73083e-05
6.53687e-08
9.73217e-05
8.55398e-08
9.73375e-05
1.01689e-07
9.73552e-05
1.13936e-07
9.73743e-05
1.2259e-07
9.73945e-05
1.28083e-07
9.74153e-05
1.30889e-07
9.74365e-05
1.31464e-07
9.74581e-05
1.30218e-07
9.74798e-05
1.2751e-07
9.75017e-05
1.23639e-07
9.75236e-05
1.18851e-07
9.75456e-05
1.13345e-07
9.75676e-05
1.07279e-07
9.75897e-05
1.00779e-07
9.76118e-05
9.39369e-08
9.76341e-05
8.68243e-08
9.76565e-05
7.94882e-08
9.76792e-05
7.19557e-08
9.77021e-05
6.42352e-08
9.77253e-05
5.63169e-08
9.77489e-05
4.81732e-08
9.7773e-05
3.97599e-08
9.77976e-05
3.10174e-08
9.78226e-05
2.18734e-08
9.78483e-05
1.22471e-08
9.78744e-05
2.05473e-09
9.7901e-05
-8.78293e-09
9.79279e-05
-2.0332e-08
9.79552e-05
-3.26404e-08
-4.56949e-08
9.79825e-05
0.000100071
1.2168e-08
0.000100077
3.52207e-08
0.000100087
5.56037e-08
0.0001001
7.27203e-08
0.000100115
8.63923e-08
0.000100132
9.66997e-08
0.000100151
1.03884e-07
0.000100171
1.08293e-07
0.000100192
1.10318e-07
0.000100213
1.10341e-07
0.000100234
1.08715e-07
0.000100256
1.05748e-07
0.000100278
1.01701e-07
0.0001003
9.67923e-08
0.000100322
9.11962e-08
0.000100344
8.50535e-08
0.000100367
7.84733e-08
0.000100389
7.15383e-08
0.000100412
6.43082e-08
0.000100434
5.68221e-08
0.000100457
4.9101e-08
0.00010048
4.11488e-08
0.000100503
3.29542e-08
0.000100527
2.44912e-08
0.000100551
1.57211e-08
0.000100576
6.59437e-09
0.0001006
-2.94636e-09
0.000100626
-1.29622e-08
0.000100651
-2.35133e-08
0.000100677
-3.46526e-08
0.000100703
-4.64202e-08
0.000100729
-5.88408e-08
-7.18854e-08
0.000100756
0.00010293
1.01297e-08
0.000102936
2.93021e-08
0.000102945
4.62083e-08
0.000102958
6.03473e-08
0.000102973
7.1561e-08
0.000102989
7.9901e-08
0.000103008
8.55539e-08
0.000103027
8.87993e-08
0.000103048
8.99569e-08
0.000103069
8.93457e-08
0.00010309
8.72622e-08
0.000103112
8.39694e-08
0.000103134
7.96921e-08
0.000103156
7.46173e-08
0.000103178
6.88977e-08
0.000103201
6.26545e-08
0.000103223
5.59818e-08
0.000103246
4.89501e-08
0.000103268
4.16093e-08
0.000103291
3.3991e-08
0.000103314
2.61108e-08
0.000103337
1.79699e-08
0.000103361
9.55649e-09
0.000103385
8.47591e-10
0.000103408
-8.1893e-09
0.000103433
-1.75937e-08
0.000103457
-2.74092e-08
0.000103482
-3.76803e-08
0.000103507
-4.84475e-08
0.000103532
-5.9744e-08
0.000103557
-7.15905e-08
0.000103582
-8.39953e-08
-9.69196e-08
0.000103607
0.000105871
8.16197e-09
0.000105876
2.35916e-08
0.000105885
3.71335e-08
0.000105897
4.83607e-08
0.000105912
5.71333e-08
0.000105928
6.34828e-08
0.000105946
6.75525e-08
0.000105966
6.95656e-08
0.000105986
6.97815e-08
0.000106007
6.84622e-08
0.000106028
6.58541e-08
0.00010605
6.21775e-08
0.000106072
5.76215e-08
0.000106094
5.23442e-08
0.000106117
4.64747e-08
0.000106139
4.01149e-08
0.000106162
3.33439e-08
0.000106184
2.62201e-08
0.000106207
1.87836e-08
0.00010623
1.10593e-08
0.000106253
3.05809e-09
0.000106276
-5.22096e-09
0.0001063
-1.3789e-08
0.000106323
-2.26656e-08
0.000106347
-3.18769e-08
0.000106371
-4.14533e-08
0.000106395
-5.14265e-08
0.000106419
-6.18267e-08
0.000106443
-7.26796e-08
0.000106468
-8.40028e-08
0.000106492
-9.58031e-08
0.000106516
-1.08077e-07
-1.20781e-07
0.00010654
0.000108895
6.25688e-09
0.000108901
1.80625e-08
0.00010891
2.83348e-08
0.000108921
3.67053e-08
0.000108935
4.30507e-08
0.000108951
4.73899e-08
0.000108969
4.9831e-08
0.000108988
5.05521e-08
0.000109008
4.97613e-08
0.000109029
4.76703e-08
0.00010905
4.44795e-08
0.000109072
4.03696e-08
0.000109094
3.54953e-08
0.000109117
2.99862e-08
0.000109139
2.3948e-08
0.000109162
1.74633e-08
0.000109185
1.05963e-08
0.000109207
3.39284e-09
0.00010923
-4.11598e-09
0.000109253
-1.19122e-08
0.000109276
-1.99888e-08
0.000109299
-2.83485e-08
0.000109323
-3.70015e-08
0.000109346
-4.5964e-08
0.000109369
-5.52564e-08
0.000109393
-6.49007e-08
0.000109416
-7.4919e-08
0.00010944
-8.533e-08
0.000109463
-9.61478e-08
0.000109487
-1.07379e-07
0.00010951
-1.19019e-07
0.000109533
-1.31059e-07
-1.4345e-07
0.000109556
0.000112006
4.40589e-09
0.000112012
1.26888e-08
0.00011202
1.97693e-08
0.000112032
2.53262e-08
0.000112045
2.92529e-08
0.000112061
3.15626e-08
0.000112079
3.23352e-08
0.000112098
3.17131e-08
0.000112118
2.986e-08
0.000112138
2.69435e-08
0.00011216
2.31219e-08
0.000112181
1.8539e-08
0.000112204
1.33157e-08
0.000112226
7.55409e-09
0.000112249
1.33738e-09
0.000112271
-5.27255e-09
0.000112294
-1.22255e-08
0.000112317
-1.94881e-08
0.00011234
-2.70385e-08
0.000112363
-3.48651e-08
0.000112386
-4.2965e-08
0.000112409
-5.13423e-08
0.000112432
-6.00064e-08
0.000112455
-6.89707e-08
0.000112478
-7.82503e-08
0.000112501
-8.78608e-08
0.000112524
-9.78161e-08
0.000112547
-1.08126e-07
0.000112569
-1.18797e-07
0.000112592
-1.29825e-07
0.000112614
-1.41201e-07
0.000112636
-1.5291e-07
-1.64902e-07
0.000112657
0.000115206
2.60238e-09
0.000115212
7.44984e-09
0.00011522
1.14035e-08
0.000115231
1.41801e-08
0.000115245
1.56911e-08
0.00011526
1.59487e-08
0.000115278
1.50113e-08
0.000115296
1.29986e-08
0.000115316
1.00342e-08
0.000115337
6.24589e-09
0.000115358
1.75201e-09
0.00011538
-3.33474e-09
0.000115402
-8.92823e-09
0.000115425
-1.49536e-08
0.000115447
-2.13512e-08
0.00011547
-2.80765e-08
0.000115493
-3.50963e-08
0.000115516
-4.23889e-08
0.000115539
-4.99418e-08
0.000115562
-5.77499e-08
0.000115585
-6.58143e-08
0.000115607
-7.41407e-08
0.00011563
-8.27383e-08
0.000115653
-9.1618e-08
0.000115675
-1.00791e-07
0.000115698
-1.10268e-07
0.00011572
-1.20056e-07
0.000115742
-1.30159e-07
0.000115764
-1.40576e-07
0.000115785
-1.51299e-07
0.000115806
-1.62314e-07
0.000115827
-1.73602e-07
-1.85114e-07
0.000115847
0.000118498
8.35394e-10
0.000118503
2.31674e-09
0.000118511
3.18883e-09
0.000118522
3.20092e-09
0.000118535
2.28835e-09
0.000118551
4.81267e-10
0.000118568
-2.2042e-09
0.000118587
-5.6472e-09
0.000118606
-9.7631e-09
0.000118627
-1.44586e-08
0.000118649
-1.96498e-08
0.000118671
-2.52631e-08
0.000118693
-3.12397e-08
0.000118715
-3.75316e-08
0.000118738
-4.41025e-08
0.000118761
-5.09265e-08
0.000118784
-5.79867e-08
0.000118807
-6.52734e-08
0.00011883
-7.27834e-08
0.000118852
-8.05185e-08
0.000118875
-8.84838e-08
0.000118898
-9.66873e-08
0.00011892
-1.05138e-07
0.000118942
-1.13846e-07
0.000118964
-1.2282e-07
0.000118986
-1.32065e-07
0.000119008
-1.41586e-07
0.000119029
-1.51381e-07
0.00011905
-1.61444e-07
0.00011907
-1.71765e-07
0.00011909
-1.82326e-07
0.00011911
-1.93108e-07
-2.04061e-07
0.000119129
0.000121883
-8.85516e-10
0.000121888
-2.69815e-09
0.000121896
-4.86391e-09
0.000121907
-7.60817e-09
0.00012192
-1.0969e-08
0.000121936
-1.49095e-08
0.000121953
-1.93806e-08
0.000121971
-2.4303e-08
0.000121991
-2.96119e-08
0.000122012
-3.52476e-08
0.000122034
-4.11606e-08
0.000122056
-4.7311e-08
0.000122078
-5.36702e-08
0.000122101
-6.0218e-08
0.000122124
-6.69415e-08
0.000122146
-7.38348e-08
0.000122169
-8.08966e-08
0.000122192
-8.81302e-08
0.000122215
-9.5542e-08
0.000122238
-1.03141e-07
0.00012226
-1.10936e-07
0.000122282
-1.18939e-07
0.000122304
-1.27159e-07
0.000122326
-1.35606e-07
0.000122348
-1.44286e-07
0.000122369
-1.53204e-07
0.000122389
-1.62359e-07
0.00012241
-1.71748e-07
0.00012243
-1.81362e-07
0.000122449
-1.91189e-07
0.000122468
-2.0121e-07
0.000122486
-2.11405e-07
-2.21727e-07
0.000122504
0.000125365
-2.61433e-09
0.00012537
-7.68799e-09
0.000125378
-1.28793e-08
0.000125389
-1.83856e-08
0.000125402
-2.42089e-08
0.000125418
-3.02891e-08
0.000125435
-3.6572e-08
0.000125453
-4.29991e-08
0.000125473
-4.95256e-08
0.000125494
-5.61213e-08
0.000125516
-6.2769e-08
0.000125538
-6.94613e-08
0.000125561
-7.61995e-08
0.000125583
-8.29902e-08
0.000125606
-8.98443e-08
0.000125629
-9.67752e-08
0.000125652
-1.03798e-07
0.000125675
-1.10929e-07
0.000125698
-1.18185e-07
0.00012572
-1.25582e-07
0.000125742
-1.33136e-07
0.000125764
-1.40859e-07
0.000125786
-1.48764e-07
0.000125807
-1.56861e-07
0.000125828
-1.65156e-07
0.000125848
-1.73651e-07
0.000125868
-1.82345e-07
0.000125888
-1.91234e-07
0.000125907
-2.00307e-07
0.000125925
-2.09551e-07
0.000125943
-2.18947e-07
0.00012596
-2.28475e-07
-2.38092e-07
0.000125976
0.000128947
-4.18321e-09
0.000128951
-1.24135e-08
0.000128959
-2.06242e-08
0.00012897
-2.89864e-08
0.000128983
-3.74104e-08
0.000128998
-4.57684e-08
0.000129016
-5.39755e-08
0.000129035
-6.19801e-08
0.000129055
-6.97632e-08
0.000129076
-7.73307e-08
0.000129098
-8.47037e-08
0.000129121
-9.19125e-08
0.000129143
-9.89922e-08
0.000129166
-1.05979e-07
0.000129189
-1.1291e-07
0.000129213
-1.19818e-07
0.000129235
-1.26736e-07
0.000129258
-1.33694e-07
0.000129281
-1.40719e-07
0.000129303
-1.47834e-07
0.000129325
-1.55061e-07
0.000129346
-1.62418e-07
0.000129368
-1.69918e-07
0.000129388
-1.77572e-07
0.000129409
-1.85387e-07
0.000129428
-1.93365e-07
0.000129447
-2.01506e-07
0.000129466
-2.09803e-07
0.000129484
-2.18246e-07
0.000129501
-2.26822e-07
0.000129518
-2.35514e-07
0.000129534
-2.44302e-07
-2.53148e-07
0.000129549
0.000132631
-6.09937e-09
0.000132636
-1.74707e-08
0.000132644
-2.86229e-08
0.000132655
-3.97283e-08
0.000132668
-5.06606e-08
0.000132684
-6.12466e-08
0.000132701
-7.13714e-08
0.00013272
-8.09754e-08
0.00013274
-9.00495e-08
0.000132761
-9.86231e-08
0.000132784
-1.06748e-07
0.000132806
-1.14489e-07
0.000132829
-1.21913e-07
0.000132852
-1.29085e-07
0.000132875
-1.36067e-07
0.000132898
-1.42916e-07
0.000132921
-1.49683e-07
0.000132944
-1.56411e-07
0.000132966
-1.63139e-07
0.000132989
-1.69901e-07
0.00013301
-1.76723e-07
0.000133031
-1.83628e-07
0.000133052
-1.90635e-07
0.000133072
-1.97755e-07
0.000133092
-2.04998e-07
0.000133111
-2.12366e-07
0.000133129
-2.1986e-07
0.000133147
-2.27474e-07
0.000133164
-2.35199e-07
0.00013318
-2.43022e-07
0.000133196
-2.50927e-07
0.00013321
-2.58898e-07
-2.66897e-07
0.000133224
0.000136419
-6.86851e-09
0.000136423
-2.12968e-08
0.00013643
-3.57887e-08
0.000136441
-5.03016e-08
0.000136454
-6.43306e-08
0.000136471
-7.7534e-08
0.000136489
-8.97733e-08
0.000136509
-1.01031e-07
0.00013653
-1.11358e-07
0.000136553
-1.20847e-07
0.000136575
-1.29607e-07
0.000136599
-1.37751e-07
0.000136622
-1.45388e-07
0.000136646
-1.52618e-07
0.000136669
-1.59532e-07
0.000136692
-1.66207e-07
0.000136715
-1.72712e-07
0.000136738
-1.79104e-07
0.00013676
-1.85433e-07
0.000136782
-1.9174e-07
0.000136804
-1.98058e-07
0.000136824
-2.04415e-07
0.000136845
-2.10832e-07
0.000136864
-2.17324e-07
0.000136883
-2.23901e-07
0.000136901
-2.30568e-07
0.000136919
-2.37326e-07
0.000136935
-2.44171e-07
0.000136951
-2.51095e-07
0.000136966
-2.58088e-07
0.000136981
-2.65136e-07
0.000136994
-2.72224e-07
-2.79318e-07
0.000137006
0.000140319
-1.02691e-08
0.000140325
-2.70443e-08
0.000140333
-4.3767e-08
0.000140343
-6.06373e-08
0.000140356
-7.71986e-08
0.000140371
-9.28768e-08
0.000140389
-1.07332e-07
0.000140408
-1.20446e-07
0.000140429
-1.32252e-07
0.000140451
-1.42861e-07
0.000140474
-1.52422e-07
0.000140497
-1.61092e-07
0.000140521
-1.69023e-07
0.000140545
-1.76354e-07
0.000140569
-1.83209e-07
0.000140592
-1.89692e-07
0.000140615
-1.95896e-07
0.000140638
-2.01896e-07
0.00014066
-2.07756e-07
0.000140682
-2.13529e-07
0.000140703
-2.19256e-07
0.000140724
-2.24971e-07
0.000140744
-2.30702e-07
0.000140763
-2.36466e-07
0.000140781
-2.42278e-07
0.000140799
-2.48145e-07
0.000140816
-2.5407e-07
0.000140831
-2.60051e-07
0.000140846
-2.66084e-07
0.00014086
-2.72158e-07
0.000140874
-2.78263e-07
0.000140886
-2.84386e-07
-2.90498e-07
0.000140897
0.000144322
-7.313e-09
0.000144323
-2.79112e-08
0.000144329
-5.00186e-08
0.00014434
-7.22742e-08
0.000144356
-9.30819e-08
0.000144375
-1.1182e-07
0.000144396
-1.28423e-07
0.000144419
-1.43018e-07
0.000144442
-1.5581e-07
0.000144467
-1.67031e-07
0.000144491
-1.76918e-07
0.000144516
-1.85696e-07
0.00014454
-1.93564e-07
0.000144565
-2.00697e-07
0.000144589
-2.07243e-07
0.000144612
-2.13328e-07
0.000144635
-2.19056e-07
0.000144658
-2.24515e-07
0.00014468
-2.29777e-07
0.000144701
-2.349e-07
0.000144722
-2.39932e-07
0.000144742
-2.44911e-07
0.000144761
-2.49865e-07
0.00014478
-2.54818e-07
0.000144797
-2.59783e-07
0.000144814
-2.64773e-07
0.000144829
-2.69791e-07
0.000144844
-2.74838e-07
0.000144858
-2.79911e-07
0.000144871
-2.85005e-07
0.000144883
-2.90109e-07
0.000144894
-2.95214e-07
-3.00295e-07
0.000144903
0.000148457
-1.61831e-08
0.000148464
-3.46898e-08
0.000148469
-5.55696e-08
0.000148476
-7.92267e-08
0.000148486
-1.03324e-07
0.0001485
-1.25824e-07
0.000148518
-1.45761e-07
0.000148538
-1.63014e-07
0.00014856
-1.77811e-07
0.000148583
-1.90457e-07
0.000148607
-2.01282e-07
0.000148632
-2.10599e-07
0.000148658
-2.18688e-07
0.000148683
-2.25788e-07
0.000148707
-2.32102e-07
0.000148732
-2.37796e-07
0.000148756
-2.43009e-07
0.000148779
-2.47853e-07
0.000148802
-2.52417e-07
0.000148824
-2.56776e-07
0.000148845
-2.60989e-07
0.000148865
-2.65101e-07
0.000148884
-2.69148e-07
0.000148903
-2.73157e-07
0.00014892
-2.77149e-07
0.000148936
-2.81137e-07
0.000148952
-2.85129e-07
0.000148966
-2.89129e-07
0.000148979
-2.93136e-07
0.000148991
-2.97147e-07
0.000149002
-3.01155e-07
0.000149012
-3.05153e-07
-3.09122e-07
0.000149021
0.000152671
2.07898e-09
0.000152666
-2.98369e-08
0.000152674
-6.39605e-08
0.000152693
-9.75176e-08
0.000152716
-1.26611e-07
0.000152742
-1.51412e-07
0.000152768
-1.72362e-07
0.000152795
-1.89984e-07
0.000152822
-2.04781e-07
0.000152849
-2.17201e-07
0.000152875
-2.27665e-07
0.000152901
-2.36536e-07
0.000152927
-2.44118e-07
0.000152951
-2.50661e-07
0.000152976
-2.56371e-07
0.000152999
-2.61418e-07
0.000153022
-2.65942e-07
0.000153044
-2.70055e-07
0.000153066
-2.73849e-07
0.000153087
-2.77399e-07
0.000153106
-2.80765e-07
0.000153125
-2.83994e-07
0.000153143
-2.87123e-07
0.00015316
-2.90183e-07
0.000153176
-2.93195e-07
0.000153191
-2.96175e-07
0.000153205
-2.99133e-07
0.000153218
-3.02075e-07
0.00015323
-3.05004e-07
0.000153241
-3.07919e-07
0.000153251
-3.10815e-07
0.000153259
-3.13689e-07
-3.16523e-07
0.000153266
0.000157077
-2.37743e-08
0.000157077
-2.91939e-08
0.000157064
-5.14554e-08
0.000157056
-8.91027e-08
0.000157057
-1.27987e-07
0.000157068
-1.62335e-07
0.000157086
-1.9012e-07
0.000157108
-2.12406e-07
0.000157134
-2.30307e-07
0.000157161
-2.44654e-07
0.00015719
-2.56171e-07
0.000157219
-2.65461e-07
0.000157248
-2.73007e-07
0.000157276
-2.79189e-07
0.000157304
-2.84309e-07
0.000157331
-2.88603e-07
0.000157357
-2.92257e-07
0.000157383
-2.95416e-07
0.000157407
-2.98194e-07
0.00015743
-3.00683e-07
0.000157453
-3.02951e-07
0.000157474
-3.05055e-07
0.000157494
-3.07036e-07
0.000157512
-3.08929e-07
0.00015753
-3.10758e-07
0.000157546
-3.12542e-07
0.000157561
-3.14292e-07
0.000157575
-3.16019e-07
0.000157588
-3.17726e-07
0.0001576
-3.19416e-07
0.00015761
-3.21088e-07
0.000157619
-3.22742e-07
-3.24365e-07
0.000157627
0.00016147
4.51064e-08
0.000161456
-1.53737e-08
0.000161492
-8.79021e-08
0.000161536
-1.32727e-07
0.000161578
-1.70648e-07
0.000161616
-1.99823e-07
0.000161649
-2.23543e-07
0.00016168
-2.43029e-07
0.000161709
-2.58824e-07
0.000161735
-2.71625e-07
0.000161761
-2.82042e-07
0.000161786
-2.90537e-07
0.000161811
-2.97478e-07
0.000161835
-3.03164e-07
0.000161858
-3.07835e-07
0.000161881
-3.11687e-07
0.000161904
-3.14874e-07
0.000161926
-3.17525e-07
0.000161948
-3.19741e-07
0.000161969
-3.21608e-07
0.000161989
-3.23191e-07
0.000162008
-3.24547e-07
0.000162027
-3.2572e-07
0.000162045
-3.26746e-07
0.000162062
-3.27653e-07
0.000162078
-3.28464e-07
0.000162093
-3.29197e-07
0.000162106
-3.29863e-07
0.000162119
-3.30472e-07
0.000162131
-3.3103e-07
0.000162141
-3.31538e-07
0.000162151
-3.31996e-07
-3.32403e-07
0.000162159
0.000166191
8.00813e-09
0.000166127
4.81913e-08
0.000166047
-7.63105e-09
0.000165991
-7.68456e-08
0.000165978
-1.58008e-07
0.000165992
-2.13459e-07
0.000166021
-2.52598e-07
0.000166059
-2.80584e-07
0.000166101
-3.01139e-07
0.000166146
-3.16453e-07
0.000166192
-3.27917e-07
0.000166238
-3.36525e-07
0.000166283
-3.42991e-07
0.000166328
-3.47824e-07
0.000166371
-3.51401e-07
0.000166414
-3.53999e-07
0.000166455
-3.55828e-07
0.000166494
-3.57049e-07
0.000166532
-3.57785e-07
0.000166569
-3.58133e-07
0.000166604
-3.5817e-07
0.000166637
-3.57958e-07
0.000166669
-3.57545e-07
0.000166699