/*--------------------------------*- C++ -*----------------------------------*\
  =========                 |
  \\      /  F ield         | OpenFOAM: The Open Source CFD Toolbox
   \\    /   O peration     | Website:  https://openfoam.org
    \\  /    A nd           | Version:  10
     \\/     M anipulation  |
\*---------------------------------------------------------------------------*/
FoamFile
{
    format      ascii;
    class       volVectorField;
    location    "0.17";
    object      U;
}
// * * * * * * * * * * * * * * * * * * * * * * * * * * * * * * * * * * * * * //

dimensions      [0 1 -1 0 0 0 0];

internalField   nonuniform List<vector> 
6820
(
(7.33663 -0.25471 0)
(7.37111 -0.152741 0)
(7.32901 -0.0594696 0)
(7.25214 -0.0117191 0)
(7.17475 0.00796975 0)
(7.10488 0.0139746 0)
(7.04382 0.0144635 0)
(6.99096 0.013087 0)
(6.94486 0.0113366 0)
(6.9041 0.00975972 0)
(6.86761 0.00849674 0)
(6.83458 0.00753492 0)
(6.80441 0.00681799 0)
(6.77663 0.00628668 0)
(6.75091 0.00589147 0)
(6.72696 0.00559476 0)
(6.70458 0.00536923 0)
(6.68359 0.00519579 0)
(6.66383 0.00506165 0)
(6.64518 0.00495877 0)
(6.62751 0.00488302 0)
(6.61072 0.00483384 0)
(6.59468 0.00481466 0)
(6.57928 0.00483446 0)
(6.56436 0.00491058 0)
(6.54973 0.00507746 0)
(6.5351 0.00540447 0)
(6.52004 0.00598527 0)
(6.50355 0.00737788 0)
(6.4844 0.00887918 0)
(6.45879 0.0177929 0)
(6.41529 0.0202071 0)
(6.36627 0.0470184 0)
(7.32387 0.121387 0)
(7.3044 0.123277 0)
(7.30895 0.0779738 0)
(7.32918 0.0527951 0)
(7.34725 0.039195 0)
(7.3553 0.031389 0)
(7.35432 0.0269358 0)
(7.3472 0.0241887 0)
(7.33625 0.0222902 0)
(7.32302 0.0208487 0)
(7.3086 0.019669 0)
(7.29362 0.0186507 0)
(7.27851 0.0177436 0)
(7.26351 0.0169216 0)
(7.24875 0.01617 0)
(7.23434 0.0154799 0)
(7.2203 0.0148456 0)
(7.20666 0.0142632 0)
(7.19342 0.0137303 0)
(7.18059 0.0132462 0)
(7.16816 0.012812 0)
(7.1561 0.0124312 0)
(7.1444 0.0121115 0)
(7.13304 0.0118669 0)
(7.12199 0.0117221 0)
(7.11122 0.0117259 0)
(7.10076 0.0119516 0)
(7.09044 0.012605 0)
(7.08105 0.0139051 0)
(7.07109 0.0168242 0)
(7.06735 0.0224831 0)
(7.06177 0.0340751 0)
(7.09052 0.0623315 0)
(7.32565 -0.0437914 0)
(7.32324 -0.0517293 0)
(7.33516 -0.0261966 0)
(7.34299 -0.00271413 0)
(7.34791 0.0104368 0)
(7.35209 0.0168893 0)
(7.35508 0.0199625 0)
(7.35661 0.0212505 0)
(7.35665 0.0215953 0)
(7.35534 0.0214703 0)
(7.3529 0.0211225 0)
(7.34956 0.0206788 0)
(7.34554 0.0202052 0)
(7.34099 0.0197349 0)
(7.33604 0.0192835 0)
(7.33082 0.0188578 0)
(7.32539 0.0184607 0)
(7.31982 0.0180932 0)
(7.31417 0.0177566 0)
(7.30846 0.0174527 0)
(7.30272 0.017185 0)
(7.29698 0.0169597 0)
(7.29122 0.016787 0)
(7.28546 0.016683 0)
(7.27968 0.0166757 0)
(7.27386 0.0168041 0)
(7.26799 0.0171584 0)
(7.26195 0.0177958 0)
(7.25597 0.0191321 0)
(7.24957 0.0208086 0)
(7.24421 0.0251668 0)
(7.23882 0.0278002 0)
(7.23752 0.0377681 0)
(7.33338 0.0117898 0)
(7.33034 0.0329221 0)
(7.32954 0.0333553 0)
(7.33253 0.0276518 0)
(7.33794 0.0242688 0)
(7.34345 0.0227981 0)
(7.34806 0.0222419 0)
(7.35171 0.0220204 0)
(7.3545 0.0218771 0)
(7.3565 0.0217303 0)
(7.3578 0.0215546 0)
(7.35849 0.0213446 0)
(7.35865 0.0211042 0)
(7.35837 0.0208412 0)
(7.35772 0.0205634 0)
(7.35675 0.0202783 0)
(7.35552 0.0199927 0)
(7.35407 0.0197132 0)
(7.35244 0.0194461 0)
(7.35066 0.0191984 0)
(7.34874 0.0189787 0)
(7.34671 0.0187979 0)
(7.34457 0.0186716 0)
(7.34233 0.0186217 0)
(7.33998 0.0186826 0)
(7.33753 0.0189023 0)
(7.33497 0.0193695 0)
(7.33228 0.0201787 0)
(7.32963 0.0216028 0)
(7.32692 0.0236857 0)
(7.32501 0.027393 0)
(7.32416 0.0317851 0)
(7.32614 0.0394654 0)
(7.33122 -0.00352019 0)
(7.33003 -0.00432141 0)
(7.33358 0.00128767 0)
(7.33715 0.00874314 0)
(7.34042 0.0141146 0)
(7.34368 0.0171267 0)
(7.34683 0.0187719 0)
(7.34979 0.0196929 0)
(7.35253 0.0201944 0)
(7.35497 0.0204473 0)
(7.35709 0.0205474 0)
(7.35891 0.0205484 0)
(7.36043 0.0204836 0)
(7.36169 0.0203752 0)
(7.3627 0.0202384 0)
(7.36349 0.0200841 0)
(7.36409 0.019921 0)
(7.36451 0.019757 0)
(7.36476 0.0195993 0)
(7.36488 0.0194562 0)
(7.36487 0.0193374 0)
(7.36473 0.0192554 0)
(7.36449 0.0192271 0)
(7.36413 0.0192758 0)
(7.36368 0.019436 0)
(7.36312 0.0197531 0)
(7.3625 0.020305 0)
(7.36181 0.0211655 0)
(7.36121 0.0225273 0)
(7.36076 0.0243858 0)
(7.36095 0.0272232 0)
(7.36219 0.0302877 0)
(7.36505 0.0342119 0)
(7.33264 0.00208602 0)
(7.33222 0.00991643 0)
(7.33391 0.0141213 0)
(7.3364 0.0160036 0)
(7.33937 0.0171214 0)
(7.34253 0.0179056 0)
(7.34556 0.0185238 0)
(7.34839 0.0189956 0)
(7.35102 0.0193201 0)
(7.35347 0.0195264 0)
(7.35573 0.0196448 0)
(7.35783 0.0196962 0)
(7.35976 0.0196966 0)
(7.36153 0.0196584 0)
(7.36316 0.0195916 0)
(7.36464 0.0195047 0)
(7.366 0.0194052 0)
(7.36724 0.0193005 0)
(7.36836 0.0191984 0)
(7.36938 0.0191077 0)
(7.3703 0.0190389 0)
(7.37112 0.0190053 0)
(7.37185 0.0190243 0)
(7.37251 0.0191193 0)
(7.37309 0.0193227 0)
(7.3736 0.0196755 0)
(7.37409 0.0202405 0)
(7.3746 0.0210771 0)
(7.37525 0.0223026 0)
(7.37615 0.0239199 0)
(7.37764 0.0261119 0)
(7.38005 0.0284833 0)
(7.38363 0.0310402 0)
(7.33258 0.000836703 0)
(7.33242 0.00453553 0)
(7.33426 0.00809881 0)
(7.33684 0.0113113 0)
(7.3396 0.0139063 0)
(7.34241 0.0156895 0)
(7.34509 0.016851 0)
(7.34764 0.0176051 0)
(7.35007 0.0180869 0)
(7.35238 0.0183895 0)
(7.35458 0.0185731 0)
(7.35668 0.0186742 0)
(7.35868 0.0187162 0)
(7.36058 0.0187157 0)
(7.36241 0.0186847 0)
(7.36414 0.0186326 0)
(7.3658 0.0185674 0)
(7.36738 0.0184968 0)
(7.36889 0.0184285 0)
(7.37032 0.0183714 0)
(7.37169 0.0183358 0)
(7.373 0.0183348 0)
(7.37425 0.018385 0)
(7.37544 0.0185076 0)
(7.3766 0.0187307 0)
(7.37774 0.0190884 0)
(7.37889 0.0196267 0)
(7.38012 0.0203864 0)
(7.38151 0.0214303 0)
(7.38321 0.0227452 0)
(7.38541 0.0243651 0)
(7.38836 0.0260281 0)
(7.39213 0.0275345 0)
(7.33284 0.00134023 0)
(7.333 0.00537561 0)
(7.33455 0.00894312 0)
(7.33676 0.0116433 0)
(7.33923 0.0136299 0)
(7.34182 0.0150045 0)
(7.34437 0.0159525 0)
(7.34682 0.0166147 0)
(7.34916 0.0170671 0)
(7.35139 0.017367 0)
(7.35353 0.0175581 0)
(7.35559 0.0176703 0)
(7.35758 0.0177247 0)
(7.3595 0.0177368 0)
(7.36137 0.0177183 0)
(7.36318 0.0176785 0)
(7.36494 0.0176254 0)
(7.36665 0.0175666 0)
(7.36832 0.0175098 0)
(7.36994 0.0174637 0)
(7.37153 0.0174381 0)
(7.37307 0.0174453 0)
(7.37459 0.0175002 0)
(7.37608 0.0176213 0)
(7.37756 0.0178315 0)
(7.37906 0.0181567 0)
(7.38062 0.018628 0)
(7.38228 0.0192693 0)
(7.38413 0.0201066 0)
(7.38628 0.0211145 0)
(7.38886 0.0222614 0)
(7.39202 0.0233651 0)
(7.39576 0.0242204 0)
(7.33291 0.00134029 0)
(7.3332 0.00470022 0)
(7.33459 0.00775473 0)
(7.3366 0.0102359 0)
(7.33889 0.0122103 0)
(7.3413 0.0136762 0)
(7.3437 0.0147218 0)
(7.34603 0.0154566 0)
(7.34828 0.0159601 0)
(7.35044 0.0162953 0)
(7.35253 0.0165103 0)
(7.35455 0.0166385 0)
(7.35651 0.0167033 0)
(7.35841 0.0167218 0)
(7.36028 0.016707 0)
(7.3621 0.016669 0)
(7.36389 0.0166163 0)
(7.36565 0.0165568 0)
(7.36738 0.0164983 0)
(7.36909 0.0164492 0)
(7.37077 0.0164188 0)
(7.37243 0.016418 0)
(7.37408 0.0164598 0)
(7.37574 0.0165593 0)
(7.37741 0.0167338 0)
(7.37913 0.0170014 0)
(7.38092 0.0173806 0)
(7.38284 0.0178814 0)
(7.38495 0.0185064 0)
(7.38733 0.0192222 0)
(7.39008 0.0199732 0)
(7.39327 0.0206257 0)
(7.39688 0.021013 0)
(7.33297 0.00131775 0)
(7.33334 0.00434741 0)
(7.33459 0.00715985 0)
(7.33641 0.00947576 0)
(7.33849 0.011314 0)
(7.34072 0.0126921 0)
(7.34298 0.0136904 0)
(7.34521 0.0144051 0)
(7.34738 0.0149061 0)
(7.34948 0.0152467 0)
(7.35152 0.0154687 0)
(7.35351 0.0156025 0)
(7.35544 0.0156704 0)
(7.35733 0.0156895 0)
(7.35918 0.0156727 0)
(7.361 0.0156304 0)
(7.3628 0.0155715 0)
(7.36457 0.0155038 0)
(7.36632 0.0154351 0)
(7.36806 0.0153732 0)
(7.36979 0.0153268 0)
(7.37151 0.0153053 0)
(7.37324 0.0153195 0)
(7.37499 0.0153807 0)
(7.37677 0.0155014 0)
(7.37861 0.0156925 0)
(7.38054 0.0159627 0)
(7.3826 0.0163117 0)
(7.38485 0.0167287 0)
(7.38735 0.0171771 0)
(7.39013 0.017598 0)
(7.39326 0.0178912 0)
(7.39669 0.0179349 0)
(7.333 0.00125696 0)
(7.3334 0.00396726 0)
(7.33454 0.00648891 0)
(7.33618 0.00860088 0)
(7.33809 0.010308 0)
(7.34016 0.0116255 0)
(7.34229 0.0126064 0)
(7.34441 0.0133221 0)
(7.3465 0.0138312 0)
(7.34854 0.0141812 0)
(7.35053 0.0144106 0)
(7.35248 0.0145489 0)
(7.35438 0.0146182 0)
(7.35625 0.0146355 0)
(7.35809 0.014614 0)
(7.3599 0.0145643 0)
(7.36169 0.0144952 0)
(7.36346 0.0144147 0)
(7.36522 0.0143303 0)
(7.36698 0.0142492 0)
(7.36873 0.0141792 0)
(7.37048 0.0141281 0)
(7.37226 0.0141042 0)
(7.37406 0.0141158 0)
(7.3759 0.0141706 0)
(7.37782 0.0142738 0)
(7.37983 0.0144269 0)
(7.38197 0.0146227 0)
(7.38428 0.0148436 0)
(7.38679 0.0150536 0)
(7.38955 0.015199 0)
(7.39256 0.0152045 0)
(7.3958 0.0149847 0)
(7.33302 0.00117437 0)
(7.33343 0.00361162 0)
(7.33446 0.00588565 0)
(7.33595 0.00782124 0)
(7.33771 0.00940498 0)
(7.33963 0.010647 0)
(7.34162 0.0115859 0)
(7.34364 0.0122792 0)
(7.34564 0.0127776 0)
(7.34762 0.0131231 0)
(7.34956 0.0133502 0)
(7.35147 0.0134862 0)
(7.35335 0.0135518 0)
(7.35519 0.0135634 0)
(7.35701 0.0135338 0)
(7.35881 0.0134734 0)
(7.36059 0.013391 0)
(7.36236 0.0132941 0)
(7.36412 0.0131899 0)
(7.36588 0.0130848 0)
(7.36765 0.0129854 0)
(7.36942 0.0128981 0)
(7.37122 0.0128288 0)
(7.37305 0.012783 0)
(7.37494 0.0127643 0)
(7.37689 0.0127738 0)
(7.37894 0.0128078 0)
(7.38111 0.0128552 0)
(7.38342 0.0128958 0)
(7.38592 0.0128964 0)
(7.3886 0.0128117 0)
(7.39147 0.012585 0)
(7.39451 0.0121578 0)
(7.33303 0.00108138 0)
(7.33343 0.00327255 0)
(7.33437 0.00531615 0)
(7.33573 0.00707634 0)
(7.33734 0.00853213 0)
(7.33913 0.00969055 0)
(7.34101 0.01058 0)
(7.34292 0.0112447 0)
(7.34484 0.011727 0)
(7.34675 0.0120629 0)
(7.34864 0.0122832 0)
(7.35051 0.0124126 0)
(7.35235 0.0124709 0)
(7.35417 0.0124734 0)
(7.35597 0.0124327 0)
(7.35775 0.0123587 0)
(7.35952 0.01226 0)
(7.36128 0.0121436 0)
(7.36304 0.0120161 0)
(7.3648 0.0118831 0)
(7.36657 0.01175 0)
(7.36835 0.0116216 0)
(7.37016 0.011502 0)
(7.37201 0.0113938 0)
(7.37391 0.0112979 0)
(7.37588 0.0112121 0)
(7.37794 0.0111295 0)
(7.38011 0.0110373 0)
(7.3824 0.010915 0)
(7.38484 0.0107338 0)
(7.38742 0.0104566 0)
(7.39015 0.0100411 0)
(7.39301 0.0094475 0)
(7.33303 0.00098435 0)
(7.33341 0.00295001 0)
(7.33428 0.00478174 0)
(7.33552 0.00637501 0)
(7.33701 0.00770539 0)
(7.33867 0.00877611 0)
(7.34044 0.00960765 0)
(7.34226 0.0102342 0)
(7.3441 0.0106909 0)
(7.34594 0.0110089 0)
(7.34777 0.0112153 0)
(7.34959 0.0113326 0)
(7.3514 0.0113787 0)
(7.35319 0.0113683 0)
(7.35496 0.011313 0)
(7.35673 0.0112224 0)
(7.35848 0.0111043 0)
(7.36023 0.0109655 0)
(7.36198 0.0108115 0)
(7.36374 0.0106473 0)
(7.3655 0.0104771 0)
(7.36729 0.0103042 0)
(7.3691 0.0101309 0)
(7.37095 0.00995784 0)
(7.37286 0.00978367 0)
(7.37482 0.00960393 0)
(7.37687 0.00941022 0)
(7.37901 0.00918919 0)
(7.38126 0.0089219 0)
(7.38362 0.00858373 0)
(7.3861 0.0081453 0)
(7.38869 0.00757503 0)
(7.39136 0.00684598 0)
(7.33303 0.000887106 0)
(7.33339 0.00264305 0)
(7.33419 0.00427768 0)
(7.33533 0.00571002 0)
(7.33671 0.00691533 0)
(7.33826 0.00789386 0)
(7.33992 0.00866042 0)
(7.34165 0.00924139 0)
(7.34341 0.00966547 0)
(7.34518 0.00995923 0)
(7.34696 0.0101462 0)
(7.34874 0.0102465 0)
(7.3505 0.0102764 0)
(7.35226 0.0102494 0)
(7.35401 0.0101763 0)
(7.35575 0.0100661 0)
(7.35749 0.00992597 0)
(7.35922 0.00976188 0)
(7.36096 0.0095788 0)
(7.3627 0.00938075 0)
(7.36446 0.0091708 0)
(7.36624 0.00895105 0)
(7.36804 0.00872227 0)
(7.36989 0.00848364 0)
(7.37178 0.00823218 0)
(7.37373 0.00796217 0)
(7.37575 0.00766459 0)
(7.37785 0.00732658 0)
(7.38004 0.0069313 0)
(7.38232 0.00645832 0)
(7.38468 0.00588466 0)
(7.38713 0.0051868 0)
(7.38964 0.00434659 0)
(7.33303 0.000791742 0)
(7.33337 0.00235074 0)
(7.33411 0.00380069 0)
(7.33516 0.00507813 0)
(7.33643 0.00615969 0)
(7.33788 0.00704332 0)
(7.33945 0.00773945 0)
(7.34109 0.00826827 0)
(7.34278 0.00865307 0)
(7.34449 0.00891627 0)
(7.34621 0.00907822 0)
(7.34794 0.00915654 0)
(7.34966 0.00916599 0)
(7.35139 0.00911873 0)
(7.35311 0.00902469 0)
(7.35482 0.00889195 0)
(7.35654 0.00872708 0)
(7.35825 0.00853533 0)
(7.35997 0.00832089 0)
(7.3617 0.0080869 0)
(7.36344 0.00783548 0)
(7.36521 0.00756762 0)
(7.367 0.00728297 0)
(7.36883 0.00697954 0)
(7.3707 0.00665339 0)
(7.37262 0.00629823 0)
(7.3746 0.00590506 0)
(7.37664 0.0054621 0)
(7.37876 0.00495481 0)
(7.38094 0.00436651 0)
(7.38319 0.00367943 0)
(7.3855 0.00287605 0)
(7.38785 0.00194425 0)
(7.33303 0.000699307 0)
(7.33335 0.00207202 0)
(7.33403 0.00334766 0)
(7.335 0.00447561 0)
(7.33619 0.00543465 0)
(7.33755 0.00622112 0)
(7.33902 0.00684216 0)
(7.34058 0.00731312 0)
(7.3422 0.00765275 0)
(7.34385 0.00787977 0)
(7.34552 0.00801155 0)
(7.3472 0.00806343 0)
(7.34888 0.00804847 0)
(7.35057 0.00797753 0)
(7.35226 0.00785951 0)
(7.35394 0.00770164 0)
(7.35563 0.00750973 0)
(7.35733 0.00728829 0)
(7.35903 0.00704073 0)
(7.36073 0.00676941 0)
(7.36246 0.00647558 0)
(7.3642 0.00615936 0)
(7.36597 0.00581952 0)
(7.36777 0.00545334 0)
(7.36961 0.00505636 0)
(7.37149 0.00462214 0)
(7.37341 0.00414224 0)
(7.3754 0.00360614 0)
(7.37743 0.00300159 0)
(7.37952 0.00231517 0)
(7.38165 0.00153317 0)
(7.38383 0.000642604 0)
(7.38603 -0.000364533 0)
(7.33303 0.000610218 0)
(7.33332 0.00180579 0)
(7.33396 0.00291581 0)
(7.33486 0.00389918 0)
(7.33597 0.00473705 0)
(7.33724 0.00542479 0)
(7.33864 0.005967 0)
(7.34013 0.00637527 0)
(7.34167 0.00666454 0)
(7.34326 0.00685028 0)
(7.34488 0.00694716 0)
(7.34651 0.00696837 0)
(7.34816 0.00692528 0)
(7.34981 0.00682744 0)
(7.35146 0.00668267 0)
(7.35312 0.00649733 0)
(7.35478 0.00627639 0)
(7.35645 0.00602364 0)
(7.35812 0.00574176 0)
(7.35981 0.00543237 0)
(7.3615 0.005096 0)
(7.36322 0.00473206 0)
(7.36496 0.00433875 0)
(7.36672 0.00391287 0)
(7.36852 0.00344979 0)
(7.37035 0.00294331 0)
(7.37222 0.00238571 0)
(7.37413 0.00176788 0)
(7.37608 0.00107963 0)
(7.37807 0.000310288 0)
(7.38009 -0.000550651 0)
(7.38213 -0.00151286 0)
(7.38419 -0.00258143 0)
(7.33302 0.000524519 0)
(7.3333 0.00155089 0)
(7.33389 0.00250262 0)
(7.33474 0.00334578 0)
(7.33577 0.00406382 0)
(7.33697 0.00465162 0)
(7.3383 0.00511188 0)
(7.33972 0.00545326 0)
(7.3412 0.00568754 0)
(7.34273 0.00582738 0)
(7.34429 0.00588502 0)
(7.34588 0.00587164 0)
(7.34748 0.00579698 0)
(7.3491 0.00566927 0)
(7.35072 0.00549527 0)
(7.35234 0.00528039 0)
(7.35397 0.00502881 0)
(7.35561 0.00474359 0)
(7.35726 0.00442671 0)
(7.35891 0.00407914 0)
(7.36058 0.00370082 0)
(7.36226 0.00329065 0)
(7.36396 0.00284641 0)
(7.36569 0.0023647 0)
(7.36743 0.00184096 0)
(7.36921 0.00126942 0)
(7.37101 0.000643196 0)
(7.37285 -4.5462e-05 0)
(7.37471 -0.0008049 0)
(7.37659 -0.00164356 0)
(7.3785 -0.00256945 0)
(7.38042 -0.00358975 0)
(7.38234 -0.00470752 0)
(7.33302 0.000442051 0)
(7.33328 0.00130615 0)
(7.33384 0.0021058 0)
(7.33462 0.0028126 0)
(7.3356 0.00341212 0)
(7.33673 0.00389913 0)
(7.33799 0.00427496 0)
(7.33935 0.00454595 0)
(7.34077 0.00472133 0)
(7.34225 0.00481129 0)
(7.34376 0.00482592 0)
(7.3453 0.00477454 0)
(7.34686 0.00466533 0)
(7.34844 0.00450522 0)
(7.35002 0.00429991 0)
(7.35162 0.00405389 0)
(7.35322 0.00377054 0)
(7.35482 0.00345219 0)
(7.35643 0.00310022 0)
(7.35806 0.002715 0)
(7.35969 0.00229602 0)
(7.36133 0.00184179 0)
(7.36299 0.00134985 0)
(7.36466 0.000816806 0)
(7.36636 0.000238289 0)
(7.36807 -0.000390935 0)
(7.3698 -0.00107685 0)
(7.37156 -0.00182598 0)
(7.37333 -0.00264509 0)
(7.37511 -0.00354081 0)
(7.3769 -0.0045192 0)
(7.3787 -0.0055856 0)
(7.38048 -0.00674161 0)
(7.33302 0.000362546 0)
(7.33327 0.00107041 0)
(7.33378 0.00172323 0)
(7.33452 0.00229696 0)
(7.33545 0.00277908 0)
(7.33652 0.00316452 0)
(7.33772 0.0034536 0)
(7.33901 0.00365094 0)
(7.34038 0.0037637 0)
(7.34181 0.0038 0)
(7.34328 0.00376799 0)
(7.34477 0.00367531 0)
(7.34629 0.00352869 0)
(7.34783 0.00333382 0)
(7.34938 0.00309535 0)
(7.35094 0.00281686 0)
(7.3525 0.00250095 0)
(7.35407 0.0021493 0)
(7.35565 0.00176267 0)
(7.35724 0.00134096 0)
(7.35883 0.000883264 0)
(7.36043 0.000387831 0)
(7.36204 -0.00014789 0)
(7.36366 -0.000727223 0)
(7.3653 -0.00135421 0)
(7.36694 -0.00203352 0)
(7.3686 -0.00277029 0)
(7.37027 -0.00356994 0)
(7.37195 -0.00443791 0)
(7.37363 -0.00537937 0)
(7.37531 -0.00639889 0)
(7.37698 -0.00750039 0)
(7.37864 -0.00868446 0)
(7.33302 0.00028569 0)
(7.33325 0.000842565 0)
(7.33374 0.00135305 0)
(7.33444 0.00179664 0)
(7.33531 0.00216257 0)
(7.33633 0.00244618 0)
(7.33747 0.00264714 0)
(7.33872 0.00276872 0)
(7.34004 0.00281633 0)
(7.34141 0.00279633 0)
(7.34284 0.00271518 0)
(7.34429 0.00257894 0)
(7.34577 0.00239296 0)
(7.34727 0.00216177 0)
(7.34878 0.00188899 0)
(7.35031 0.00157733 0)
(7.35183 0.00122865 0)
(7.35337 0.000844005 0)
(7.35491 0.000423633 0)
(7.35645 -3.29654e-05 0)
(7.358 -0.00052701 0)
(7.35956 -0.00106041 0)
(7.36112 -0.00163573 0)
(7.36268 -0.00225612 0)
(7.36426 -0.00292527 0)
(7.36583 -0.00364727 0)
(7.36741 -0.00442649 0)
(7.369 -0.00526739 0)
(7.37058 -0.0061743 0)
(7.37216 -0.00715124 0)
(7.37373 -0.00820162 0)
(7.37528 -0.00932831 0)
(7.37682 -0.0105312 0)
(7.33302 0.000211147 0)
(7.33324 0.000621495 0)
(7.3337 0.000993204 0)
(7.33436 0.00130862 0)
(7.33519 0.00155854 0)
(7.33616 0.00173884 0)
(7.33726 0.00184888 0)
(7.33845 0.00189122 0)
(7.33973 0.00186995 0)
(7.34106 0.00178993 0)
(7.34244 0.00165613 0)
(7.34386 0.00147335 0)
(7.3453 0.00124565 0)
(7.34676 0.000976387 0)
(7.34824 0.000668182 0)
(7.34972 0.000322959 0)
(7.35121 -5.81805e-05 0)
(7.35271 -0.000474818 0)
(7.35421 -0.000927194 0)
(7.35571 -0.00141618 0)
(7.35721 -0.00194325 0)
(7.35872 -0.00251042 0)
(7.36022 -0.00312022 0)
(7.36173 -0.00377561 0)
(7.36324 -0.00447991 0)
(7.36474 -0.00523668 0)
(7.36624 -0.00604962 0)
(7.36774 -0.00692236 0)
(7.36923 -0.00785836 0)
(7.37071 -0.00886068 0)
(7.37217 -0.00993186 0)
(7.37361 -0.011074 0)
(7.37503 -0.0122863 0)
(7.33302 0.000138622 0)
(7.33322 0.000406454 0)
(7.33366 0.000642943 0)
(7.33429 0.000833065 0)
(7.33508 0.000969208 0)
(7.33601 0.00104816 0)
(7.33707 0.00106846 0)
(7.33822 0.00103201 0)
(7.33945 0.000941898 0)
(7.34074 0.000801651 0)
(7.34208 0.000614954 0)
(7.34346 0.000385069 0)
(7.34487 0.000114995 0)
(7.34629 -0.000192855 0)
(7.34773 -0.000536769 0)
(7.34918 -0.000915598 0)
(7.35064 -0.00132888 0)
(7.35209 -0.00177673 0)
(7.35355 -0.00225979 0)
(7.35501 -0.00277922 0)
(7.35647 -0.00333666 0)
(7.35792 -0.00393419 0)
(7.35937 -0.00457424 0)
(7.36081 -0.00525956 0)
(7.36225 -0.00599311 0)
(7.36368 -0.00677797 0)
(7.3651 -0.00761723 0)
(7.36651 -0.00851387 0)
(7.36791 -0.00947059 0)
(7.36929 -0.0104898 0)
(7.37064 -0.0115732 0)
(7.37197 -0.0127224 0)
(7.37328 -0.0139363 0)
(7.33302 6.77259e-05 0)
(7.33321 0.000195647 0)
(7.33363 0.000297675 0)
(7.33423 0.000360553 0)
(7.33499 0.000378314 0)
(7.33589 0.000348417 0)
(7.3369 0.000271881 0)
(7.33802 0.000149685 0)
(7.33921 -1.58936e-05 0)
(7.34047 -0.000222096 0)
(7.34177 -0.000466303 0)
(7.34312 -0.000746436 0)
(7.34449 -0.00106066 0)
(7.34588 -0.00140766 0)
(7.34728 -0.0017867 0)
(7.34869 -0.00219755 0)
(7.35011 -0.00264046 0)
(7.35153 -0.00311611 0)
(7.35294 -0.0036256 0)
(7.35435 -0.00417045 0)
(7.35576 -0.00475249 0)
(7.35716 -0.00537385 0)
(7.35855 -0.00603691 0)
(7.35993 -0.00674423 0)
(7.3613 -0.00749845 0)
(7.36266 -0.00830226 0)
(7.364 -0.00915824 0)
(7.36532 -0.0100688 0)
(7.36663 -0.0110361 0)
(7.36791 -0.0120619 0)
(7.36916 -0.0131476 0)
(7.37038 -0.014294 0)
(7.37157 -0.0155001 0)
(7.33302 -1.42105e-06 0)
(7.3332 -8.51999e-06 0)
(7.3336 -3.39791e-05 0)
(7.33417 -8.89975e-05 0)
(7.3349 -0.000178474 0)
(7.33577 -0.000304853 0)
(7.33675 -0.000467667 0)
(7.33783 -0.000666809 0)
(7.33899 -0.000900973 0)
(7.34022 -0.00116837 0)
(7.34149 -0.00146739 0)
(7.34281 -0.00179659 0)
(7.34415 -0.00215504 0)
(7.34551 -0.00254223 0)
(7.34688 -0.00295804 0)
(7.34825 -0.00340276 0)
(7.34963 -0.0038771 0)
(7.35101 -0.00438211 0)
(7.35238 -0.00491918 0)
(7.35375 -0.00549 0)
(7.35511 -0.00609649 0)
(7.35645 -0.00674077 0)
(7.35778 -0.00742512 0)
(7.3591 -0.00815189 0)
(7.3604 -0.00892346 0)
(7.36169 -0.00974215 0)
(7.36295 -0.0106101 0)
(7.36419 -0.0115294 0)
(7.3654 -0.0125016 0)
(7.36658 -0.0135282 0)
(7.36774 -0.01461 0)
(7.36885 -0.0157477 0)
(7.36994 -0.0169399 0)
(7.33302 -7.03477e-05 0)
(7.3332 -0.00021717 0)
(7.33358 -0.000383752 0)
(7.33414 -0.000579119 0)
(7.33484 -0.000803774 0)
(7.33568 -0.00105501 0)
(7.33664 -0.00133107 0)
(7.33769 -0.0016295 0)
(7.33883 -0.00194873 0)
(7.34002 -0.00228801 0)
(7.34127 -0.00264714 0)
(7.34255 -0.00302639 0)
(7.34386 -0.00342643 0)
(7.34518 -0.0038482 0)
(7.34652 -0.00429288 0)
(7.34786 -0.00476189 0)
(7.34921 -0.00525683 0)
(7.35054 -0.00577947 0)
(7.35187 -0.00633173 0)
(7.35319 -0.00691568 0)
(7.3545 -0.00753343 0)
(7.35579 -0.00818722 0)
(7.35706 -0.00887927 0)
(7.35832 -0.0096118 0)
(7.35955 -0.010387 0)
(7.36076 -0.0112068 0)
(7.36194 -0.0120731 0)
(7.3631 -0.0129875 0)
(7.36422 -0.0139514 0)
(7.36531 -0.0149657 0)
(7.36637 -0.016031 0)
(7.36739 -0.0171478 0)
(7.36837 -0.0183145 0)
(7.33301 -0.000134059 0)
(7.33318 -0.000395943 0)
(7.33353 -0.000661698 0)
(7.33406 -0.000943292 0)
(7.33474 -0.00124558 0)
(7.33556 -0.00156992 0)
(7.3365 -0.00191601 0)
(7.33754 -0.00228228 0)
(7.33865 -0.00266713 0)
(7.33984 -0.00306934 0)
(7.34107 -0.00348822 0)
(7.34233 -0.00392364 0)
(7.34362 -0.004376 0)
(7.34492 -0.00484612 0)
(7.34623 -0.00533522 0)
(7.34755 -0.00584479 0)
(7.34886 -0.00637655 0)
(7.35016 -0.00693243 0)
(7.35144 -0.00751446 0)
(7.35272 -0.0081248 0)
(7.35398 -0.00876563 0)
(7.35521 -0.00943919 0)
(7.35643 -0.0101476 0)
(7.35762 -0.0108931 0)
(7.35878 -0.0116776 0)
(7.35992 -0.0125029 0)
(7.36103 -0.0133707 0)
(7.3621 -0.0142824 0)
(7.36314 -0.0152391 0)
(7.36414 -0.0162415 0)
(7.3651 -0.0172901 0)
(7.36603 -0.0183852 0)
(7.3669 -0.0195254 0)
(7.33302 -0.000210897 0)
(7.3332 -0.000652612 0)
(7.33356 -0.00112451 0)
(7.33409 -0.00162131 0)
(7.33475 -0.00212729 0)
(7.33555 -0.00263006 0)
(7.33646 -0.00312381 0)
(7.33747 -0.00360712 0)
(7.33856 -0.00408126 0)
(7.33971 -0.00454908 0)
(7.34091 -0.00501418 0)
(7.34215 -0.00548041 0)
(7.34341 -0.00595166 0)
(7.34469 -0.00643162 0)
(7.34597 -0.00692378 0)
(7.34725 -0.00743137 0)
(7.34852 -0.00795746 0)
(7.34978 -0.00850489 0)
(7.35103 -0.00907636 0)
(7.35226 -0.0096744 0)
(7.35347 -0.0103014 0)
(7.35466 -0.0109597 0)
(7.35582 -0.0116514 0)
(7.35695 -0.0123784 0)
(7.35805 -0.0131425 0)
(7.35912 -0.0139452 0)
(7.36015 -0.014788 0)
(7.36115 -0.0156718 0)
(7.36211 -0.0165976 0)
(7.36302 -0.0175657 0)
(7.3639 -0.0185766 0)
(7.36473 -0.0196301 0)
(7.36551 -0.0207248 0)
(7.333 -0.000235637 0)
(7.3331 -0.000665697 0)
(7.33339 -0.00108582 0)
(7.33387 -0.00153222 0)
(7.33452 -0.00201533 0)
(7.33534 -0.00253081 0)
(7.33627 -0.0030695 0)
(7.33731 -0.00362223 0)
(7.33843 -0.0041821 0)
(7.3396 -0.00474482 0)
(7.34082 -0.00530832 0)
(7.34206 -0.00587226 0)
(7.34332 -0.00643757 0)
(7.34458 -0.00700599 0)
(7.34585 -0.00757985 0)
(7.34711 -0.00816178 0)
(7.34835 -0.0087546 0)
(7.34958 -0.00936117 0)
(7.35079 -0.00998433 0)
(7.35198 -0.0106269 0)
(7.35314 -0.0112914 0)
(7.35427 -0.0119805 0)
(7.35538 -0.0126964 0)
(7.35645 -0.0134413 0)
(7.35748 -0.0142172 0)
(7.35848 -0.0150256 0)
(7.35944 -0.0158681 0)
(7.36036 -0.0167458 0)
(7.36123 -0.0176594 0)
(7.36207 -0.0186098 0)
(7.36285 -0.019597 0)
(7.36359 -0.0206213 0)
(7.36429 -0.0216814 0)
(7.33305 -0.000412805 0)
(7.33329 -0.00130792 0)
(7.33366 -0.00225563 0)
(7.33413 -0.00318936 0)
(7.33473 -0.0040586 0)
(7.33547 -0.00484709 0)
(7.33634 -0.00555842 0)
(7.33731 -0.00620329 0)
(7.33836 -0.00679448 0)
(7.33949 -0.00734475 0)
(7.34066 -0.00786586 0)
(7.34187 -0.00836811 0)
(7.3431 -0.00886028 0)
(7.34434 -0.0093497 0)
(7.34559 -0.00984248 0)
(7.34682 -0.0103438 0)
(7.34804 -0.0108579 0)
(7.34924 -0.0113884 0)
(7.35042 -0.0119387 0)
(7.35158 -0.0125113 0)
(7.3527 -0.0131087 0)
(7.35379 -0.013733 0)
(7.35485 -0.014386 0)
(7.35587 -0.0150694 0)
(7.35685 -0.0157845 0)
(7.35779 -0.0165324 0)
(7.35869 -0.017314 0)
(7.35954 -0.0181301 0)
(7.36035 -0.018981 0)
(7.36111 -0.019867 0)
(7.36182 -0.020788 0)
(7.36248 -0.0217438 0)
(7.36309 -0.0227331 0)
(7.33293 -0.000151476 0)
(7.33282 -0.000369048 0)
(7.33298 -0.000647669 0)
(7.33344 -0.00111388 0)
(7.33415 -0.00175555 0)
(7.33505 -0.00251133 0)
(7.33608 -0.00332617 0)
(7.33719 -0.00416187 0)
(7.33837 -0.00499432 0)
(7.33959 -0.00580942 0)
(7.34083 -0.00660024 0)
(7.34208 -0.00736484 0)
(7.34333 -0.00810444 0)
(7.34457 -0.00882216 0)
(7.3458 -0.00952217 0)
(7.34701 -0.0102091 0)
(7.3482 -0.0108876 0)
(7.34937 -0.0115624 0)
(7.3505 -0.0122379 0)
(7.35161 -0.012918 0)
(7.35268 -0.0136067 0)
(7.35371 -0.0143072 0)
(7.3547 -0.0150225 0)
(7.35566 -0.0157554 0)
(7.35657 -0.0165081 0)
(7.35744 -0.0172826 0)
(7.35826 -0.0180805 0)
(7.35903 -0.0189031 0)
(7.35976 -0.0197515 0)
(7.36044 -0.0206264 0)
(7.36107 -0.0215281 0)
(7.36164 -0.022457 0)
(7.36217 -0.023412 0)
(7.33316 -0.000861229 0)
(7.33362 -0.00286972 0)
(7.33393 -0.00483563 0)
(7.33419 -0.00649644 0)
(7.33459 -0.00781055 0)
(7.33519 -0.00884081 0)
(7.33597 -0.00965669 0)
(7.3369 -0.0103155 0)
(7.33795 -0.0108635 0)
(7.33908 -0.0113367 0)
(7.34026 -0.0117625 0)
(7.34148 -0.0121612 0)
(7.34272 -0.0125475 0)
(7.34397 -0.0129322 0)
(7.3452 -0.0133231 0)
(7.34642 -0.013726 0)
(7.34762 -0.0141451 0)
(7.34879 -0.0145835 0)
(7.34993 -0.0150436 0)
(7.35103 -0.0155274 0)
(7.35209 -0.0160362 0)
(7.35311 -0.0165713 0)
(7.35408 -0.0171336 0)
(7.35501 -0.0177238 0)
(7.35589 -0.0183425 0)
(7.35673 -0.0189902 0)
(7.35751 -0.0196671 0)
(7.35824 -0.0203733 0)
(7.35892 -0.0211087 0)
(7.35955 -0.0218733 0)
(7.36012 -0.0226667 0)
(7.36064 -0.0234886 0)
(7.36111 -0.0243377 0)
(7.33266 0.000534862 0)
(7.33187 0.00179539 0)
(7.3319 0.0024428 0)
(7.33263 0.00214148 0)
(7.33368 0.00119015 0)
(7.33488 -8.51153e-05 0)
(7.33614 -0.00148551 0)
(7.33743 -0.00290556 0)
(7.33873 -0.00428616 0)
(7.34002 -0.00559534 0)
(7.3413 -0.00682016 0)
(7.34256 -0.00795933 0)
(7.34379 -0.00901785 0)
(7.345 -0.0100039 0)
(7.34618 -0.0109271 0)
(7.34733 -0.0117973 0)
(7.34845 -0.0126239 0)
(7.34954 -0.0134157 0)
(7.35059 -0.0141807 0)
(7.3516 -0.014926 0)
(7.35257 -0.0156578 0)
(7.3535 -0.0163816 0)
(7.35438 -0.0171021 0)
(7.35522 -0.0178234 0)
(7.35602 -0.018549 0)
(7.35676 -0.0192819 0)
(7.35746 -0.0200245 0)
(7.35811 -0.0207788 0)
(7.35871 -0.0215464 0)
(7.35925 -0.0223285 0)
(7.35974 -0.023126 0)
(7.36018 -0.0239395 0)
(7.36056 -0.0247686 0)
(7.33353 -0.00201444 0)
(7.33443 -0.00682071 0)
(7.33403 -0.0113037 0)
(7.33331 -0.0141105 0)
(7.33309 -0.0157212 0)
(7.33341 -0.0166422 0)
(7.33412 -0.0171307 0)
(7.33508 -0.0173577 0)
(7.33621 -0.0174413 0)
(7.33746 -0.0174575 0)
(7.33877 -0.0174538 0)
(7.34012 -0.0174593 0)
(7.34147 -0.0174906 0)
(7.34282 -0.0175568 0)
(7.34414 -0.0176625 0)
(7.34543 -0.0178092 0)
(7.34668 -0.0179969 0)
(7.34789 -0.0182246 0)
(7.34905 -0.0184909 0)
(7.35016 -0.0187943 0)
(7.35122 -0.0191332 0)
(7.35223 -0.0195061 0)
(7.35319 -0.0199118 0)
(7.35409 -0.0203488 0)
(7.35494 -0.0208162 0)
(7.35573 -0.0213129 0)
(7.35647 -0.0218378 0)
(7.35715 -0.0223902 0)
(7.35777 -0.0229691 0)
(7.35834 -0.0235738 0)
(7.35885 -0.0242033 0)
(7.3593 -0.0248573 0)
(7.35969 -0.025534 0)
(7.33179 0.00340054 0)
(7.329 0.0092274 0)
(7.32947 0.0118724 0)
(7.33182 0.0116007 0)
(7.33393 0.00952454 0)
(7.33571 0.00684462 0)
(7.3373 0.00406263 0)
(7.33875 0.00136732 0)
(7.34009 -0.0011401 0)
(7.34134 -0.0034174 0)
(7.34254 -0.00546166 0)
(7.34369 -0.007288 0)
(7.34481 -0.00891865 0)
(7.34591 -0.0103782 0)
(7.34699 -0.0116909 0)
(7.34805 -0.0128791 0)
(7.34909 -0.0139629 0)
(7.3501 -0.0149599 0)
(7.35109 -0.0158853 0)
(7.35206 -0.0167522 0)
(7.35299 -0.0175718 0)
(7.3539 -0.0183534 0)
(7.35476 -0.0191053 0)
(7.35559 -0.0198341 0)
(7.35638 -0.0205456 0)
(7.35713 -0.0212447 0)
(7.35783 -0.0219354 0)
(7.35848 -0.022621 0)
(7.35909 -0.0233044 0)
(7.35964 -0.0239876 0)
(7.36014 -0.0246726 0)
(7.36059 -0.0253604 0)
(7.36098 -0.0260518 0)
(7.33408 -0.00612154 0)
(7.33406 -0.0189416 0)
(7.3303 -0.0269714 0)
(7.32664 -0.0304721 0)
(7.32507 -0.0312339 0)
(7.32531 -0.0307908 0)
(7.32638 -0.0298146 0)
(7.3279 -0.0286298 0)
(7.32969 -0.0274336 0)
(7.33163 -0.0263293 0)
(7.33365 -0.025361 0)
(7.33568 -0.0245428 0)
(7.33771 -0.0238737 0)
(7.3397 -0.0233444 0)
(7.34165 -0.0229423 0)
(7.34355 -0.0226538 0)
(7.34539 -0.0224655 0)
(7.34716 -0.0223654 0)
(7.34888 -0.0223425 0)
(7.35052 -0.0223875 0)
(7.3521 -0.0224923 0)
(7.35361 -0.0226497 0)
(7.35505 -0.0228539 0)
(7.35642 -0.0230999 0)
(7.35772 -0.0233834 0)
(7.35895 -0.023701 0)
(7.3601 -0.0240494 0)
(7.36119 -0.0244261 0)
(7.3622 -0.0248289 0)
(7.36314 -0.0252558 0)
(7.36402 -0.0257053 0)
(7.36482 -0.0261759 0)
(7.36555 -0.0266659 0)
(7.32967 0.0198613 0)
(7.32498 0.037009 0)
(7.32932 0.0376991 0)
(7.33513 0.0322982 0)
(7.3388 0.0258879 0)
(7.34101 0.0195854 0)
(7.34286 0.0136973 0)
(7.34463 0.00842481 0)
(7.34641 0.00381359 0)
(7.34827 -0.000182846 0)
(7.35023 -0.0036337 0)
(7.35228 -0.00661046 0)
(7.3544 -0.009182 0)
(7.35657 -0.0114108 0)
(7.35878 -0.0133511 0)
(7.361 -0.0150494 0)
(7.36322 -0.0165451 0)
(7.36543 -0.0178711 0)
(7.3676 -0.0190551 0)
(7.36973 -0.0201204 0)
(7.3718 -0.0210865 0)
(7.37382 -0.0219695 0)
(7.37577 -0.022783 0)
(7.37765 -0.0235386 0)
(7.37946 -0.0242459 0)
(7.38118 -0.024913 0)
(7.38282 -0.0255467 0)
(7.38438 -0.0261528 0)
(7.38585 -0.0267364 0)
(7.38724 -0.0273015 0)
(7.38854 -0.027852 0)
(7.38975 -0.0283903 0)
(7.39087 -0.0289203 0)
(7.32507 -0.0330773 0)
(7.29738 -0.0587575 0)
(7.27809 -0.0616818 0)
(7.27378 -0.0593018 0)
(7.28039 -0.0557923 0)
(7.29183 -0.0517422 0)
(7.3051 -0.0477955 0)
(7.31884 -0.0442833 0)
(7.3323 -0.0412544 0)
(7.34507 -0.0386904 0)
(7.35698 -0.0365541 0)
(7.36798 -0.0347936 0)
(7.37808 -0.0333549 0)
(7.38731 -0.0321886 0)
(7.39574 -0.0312513 0)
(7.40342 -0.0305057 0)
(7.41041 -0.0299204 0)
(7.41675 -0.0294693 0)
(7.42252 -0.0291306 0)
(7.42775 -0.0288864 0)
(7.43248 -0.028722 0)
(7.43677 -0.0286253 0)
(7.44063 -0.0285862 0)
(7.4441 -0.0285965 0)
(7.44722 -0.0286494 0)
(7.45001 -0.028739 0)
(7.45249 -0.0288607 0)
(7.45468 -0.0290104 0)
(7.45661 -0.0291847 0)
(7.45829 -0.0293806 0)
(7.45974 -0.0295955 0)
(7.46097 -0.0298269 0)
(7.46201 -0.0300718 0)
(7.33915 0.134726 0)
(7.37621 0.127075 0)