/*--------------------------------*- C++ -*----------------------------------*\
  =========                 |
  \\      /  F ield         | OpenFOAM: The Open Source CFD Toolbox
   \\    /   O peration     | Website:  https://openfoam.org
    \\  /    A nd           | Version:  10
     \\/     M anipulation  |
\*---------------------------------------------------------------------------*/
FoamFile
{
    format      ascii;
    class       volScalarField;
    location    "0.085";
    object      k;
}
// * * * * * * * * * * * * * * * * * * * * * * * * * * * * * * * * * * * * * //

dimensions      [0 2 -2 0 0 0 0];

internalField   nonuniform List<scalar> 
6820
(
0.198342
0.194798
0.191187
0.187544
0.183917
0.180334
0.176804
0.173332
0.169918
0.166563
0.163264
0.160018
0.156823
0.153672
0.150559
0.147476
0.144412
0.141355
0.138288
0.13519
0.132035
0.128789
0.125412
0.121852
0.118042
0.1139
0.109326
0.104196
0.0983637
0.0916518
0.0838264
0.0751262
0.0644474
0.200926
0.200918
0.200512
0.200089
0.199669
0.199244
0.198807
0.198353
0.197883
0.197395
0.196891
0.196374
0.195846
0.195309
0.194766
0.194222
0.193678
0.193138
0.192606
0.192082
0.191569
0.191065
0.190567
0.190066
0.189544
0.188972
0.188302
0.187457
0.186326
0.184738
0.182492
0.179478
0.175992
0.236699
0.016457
0.0366606
0.0099363
0.00700688
0.00826112
0.00984671
0.0119394
0.0142034
0.0165764
0.0190311
0.0215501
0.0241242
0.0267492
0.0294255
0.0321575
0.0349544
0.0378299
0.0408035
0.0439008
0.0471549
0.050607
0.0543079
0.0583189
0.0627118
0.0675678
0.0729743
0.0790182
0.0857702
0.0932703
0.10149
0.110307
0.119623
0.210766
0.148027
0.105047
0.0797334
0.0641087
0.0535064
0.0456751
0.0395167
0.0344615
0.0301908
0.0265126
0.0233049
0.0204867
0.0180033
0.0158176
0.0139048
0.012248
0.010837
0.00966473
0.00872587
0.00801557
0.00753049
0.0072713
0.00724665
0.0074781
0.00800633
0.00889772
0.0102573
0.0122351
0.0150299
0.0188415
0.0239321
0.03044
0.223517
0.0823504
0.0205582
0.00382991
0.000529453
0.00037371
0.000752083
0.0011168
0.00141687
0.00167384
0.0019018
0.00210446
0.00228079
0.00242853
0.00254565
0.0026306
0.00268233
0.00270036
0.0026846
0.00263508
0.00255163
0.00243369
0.0022803
0.00208998
0.00186258
0.00159342
0.00129185
0.000949019
0.000673735
0.000154004
0.00016229
0.000873682
0.00155625
0.217392
0.113378
0.0513972
0.0278512
0.0189581
0.0146686
0.0117012
0.00909126
0.00662773
0.00445643
0.00276832
0.00161838
0.000919408
0.000528443
0.000320053
0.000211209
0.000153884
0.000124831
0.000112011
0.000108591
0.000110337
0.00011409
0.000115227
0.00012741
1.99982e-05
0.000216119
0.000465801
0.000456698
0.000296633
3.61801e-05
0.000204624
8.14336e-05
0.000382507
0.213093
0.135132
0.0652772
0.0310306
0.017002
0.0113591
0.00898851
0.00806782
0.0076651
0.00741463
0.00721684
0.00704481
0.00688545
0.00672852
0.00656822
0.00640427
0.00623898
0.00607311
0.00590634
0.00573797
0.00556722
0.00539363
0.00521658
0.00503573
0.00484358
0.00465923
0.00447679
0.00427888
0.00406053
0.0038368
0.00360463
0.00333619
0.00306723
0.203263
0.184176
0.128728
0.0660984
0.0303113
0.0150365
0.00911553
0.00715514
0.00646137
0.00615277
0.00599854
0.00592817
0.00590177
0.00588955
0.00587686
0.00586486
0.00586096
0.0058696
0.00588903
0.00591364
0.00593851
0.00596158
0.00598286
0.00600234
0.00602005
0.00602954
0.00603009
0.00602192
0.0060013
0.00596459
0.00590373
0.00581823
0.00570125
0.201827
0.191102
0.167724
0.122365
0.0729442
0.0389508
0.0212467
0.0150224
0.0122718
0.0106679
0.00967013
0.00906005
0.00866991
0.00835956
0.00805073
0.00773821
0.00745599
0.00723326
0.00707046
0.00694749
0.00684411
0.00675145
0.0066704
0.00660443
0.00655465
0.00651896
0.00649434
0.00647842
0.00646969
0.00646654
0.00646767
0.00647081
0.00647322
0.201165
0.194363
0.183425
0.163681
0.128232
0.0871605
0.0553462
0.0422686
0.0345133
0.0290448
0.0251519
0.0223923
0.0203571
0.0186954
0.0171887
0.0157803
0.0145162
0.013447
0.0125695
0.0118388
0.0112063
0.0106444
0.0101455
0.00970924
0.00933268
0.00900839
0.00872747
0.00848242
0.00826811
0.00808113
0.00791895
0.00777923
0.00765998
0.200735
0.19647
0.190008
0.180835
0.165309
0.142034
0.116683
0.101522
0.0892369
0.0785466
0.0695383
0.062145
0.0560591
0.0508696
0.0462396
0.0420758
0.038389
0.0351769
0.0323858
0.0299328
0.0277438
0.0257736
0.0240007
0.0224121
0.0209932
0.0197252
0.0185888
0.0175675
0.016648
0.015819
0.015071
0.0143952
0.0137833
0.20048
0.19771
0.193822
0.189112
0.182425
0.172491
0.160087
0.149053
0.138694
0.128603
0.119074
0.110329
0.102384
0.0950936
0.0883881
0.0823081
0.0768347
0.0718958
0.0674049
0.0632891
0.0594967
0.0559924
0.052749
0.0497428
0.0469537
0.0443661
0.0419673
0.0397459
0.0376909
0.035791
0.0340356
0.0324141
0.0309145
0.200321
0.19848
0.196054
0.193426
0.190175
0.185764
0.180093
0.173808
0.167091
0.159668
0.151808
0.143753
0.135817
0.128255
0.12129
0.115006
0.109372
0.1043
0.0996952
0.0954716
0.0915575
0.0878997
0.0844474
0.0811674
0.0780433
0.075069
0.0722413
0.0695564
0.0670102
0.0645975
0.0623148
0.0601588
0.0581233
0.200223
0.198951
0.197377
0.195863
0.194212
0.192065
0.189128
0.185348
0.180861
0.175613
0.169782
0.163535
0.157153
0.150936
0.145095
0.13973
0.134858
0.130441
0.126412
0.12269
0.119188
0.115859
0.112669
0.109601
0.106654
0.10383
0.101132
0.0985619
0.0961176
0.0937953
0.0915925
0.0895063
0.0875269
0.200163
0.199241
0.198168
0.197252
0.196369
0.195253
0.193622
0.191287
0.188168
0.184245
0.179613
0.174461
0.169074
0.163736
0.15866
0.153965
0.149692
0.145803
0.1422
0.138823
0.135628
0.132597
0.129716
0.126978
0.124375
0.121902
0.119556
0.117333
0.11523
0.11324
0.11136
0.109587
0.107903
0.200126
0.199415
0.19863
0.198029
0.197519
0.19688
0.195861
0.194259
0.191933
0.188865
0.185157
0.180996
0.176604
0.172182
0.167877
0.163779
0.159928
0.156328
0.152947
0.149758
0.14674
0.143879
0.141161
0.138576
0.136113
0.133764
0.131523
0.129385
0.127346
0.125401
0.123549
0.121791
0.120109
0.200105
0.199513
0.198879
0.198425
0.198074
0.197639
0.196899
0.195653
0.193761
0.19119
0.188018
0.184401
0.180526
0.176564
0.17265
0.168869
0.165268
0.161864
0.158652
0.15562
0.152749
0.150022
0.147423
0.144936
0.142551
0.140257
0.138049
0.135922
0.133873
0.131901
0.130005
0.128191
0.126443
0.200095
0.199559
0.198982
0.198567
0.198244
0.197851
0.197192
0.196089
0.194423
0.192169
0.189389
0.186212
0.182789
0.179263
0.175746
0.172314
0.16901
0.165851
0.162839
0.159966
0.157217
0.154579
0.152037
0.149581
0.1472
0.144889
0.142644
0.140462
0.138344
0.136289
0.134295
0.132377
0.130524
0.200094
0.199566
0.198977
0.198523
0.198143
0.197692
0.197003
0.195922
0.194352
0.192271
0.18973
0.186833
0.183705
0.180467
0.177216
0.17402
0.170919
0.167932
0.165063
0.162307
0.159651
0.157085
0.154595
0.152172
0.149807
0.147497
0.145236
0.143026
0.140863
0.138734
0.136636
0.134604
0.132654
0.200099
0.19954
0.198886
0.198334
0.197834
0.197258
0.196463
0.195323
0.193763
0.191771
0.189392
0.186716
0.183842
0.18087
0.177878
0.17492
0.172031
0.169224
0.166504
0.163865
0.161298
0.158793
0.15634
0.153932
0.151562
0.149227
0.146925
0.144652
0.142388
0.140127
0.137879
0.135687
0.133603
0.20011
0.199484
0.198716
0.198016
0.197345
0.196592
0.195638
0.194384
0.192774
0.190803
0.188516
0.185984
0.18329
0.180512
0.177711
0.174933
0.172203
0.169534
0.166928
0.164378
0.161878
0.159418
0.15699
0.154587
0.152205
0.149837
0.147471
0.145091
0.142691
0.140278
0.137868
0.135508
0.133266
0.200128
0.199396
0.198463
0.197565
0.196678
0.195705
0.194552
0.193144
0.191443
0.189454
0.187217
0.184791
0.182241
0.179628
0.176999
0.174384
0.171803
0.169262
0.16676
0.164291
0.161846
0.159418
0.156999
0.154584
0.152163
0.149715
0.147225
0.144691
0.142121
0.13953
0.136935
0.134383
0.131947
0.200154
0.19927
0.198114
0.196965
0.195815
0.194586
0.193204
0.191616
0.189799
0.187764
0.185544
0.183187
0.180744
0.178257
0.175759
0.173272
0.170806
0.168363
0.165939
0.163527
0.161118
0.158703
0.156277
0.153825
0.15132
0.148746
0.146104
0.143404
0.140658
0.137884
0.135099
0.132352
0.129715
0.20019
0.199097
0.197645
0.196181
0.194717
0.193192
0.191553
0.189764
0.187813
0.185711
0.183488
0.181178
0.178817
0.176431
0.174043
0.171662
0.169292
0.166928
0.164565
0.162192
0.159801
0.157379
0.154905
0.15235
0.149703
0.146965
0.144145
0.141258
0.138317
0.13534
0.132349
0.12939
0.126531
0.20024
0.198859
0.197019
0.195164
0.193332
0.191477
0.189565
0.187569
0.185481
0.183309
0.181073
0.178794
0.176493
0.174185
0.171879
0.169578
0.167277
0.164968
0.162642
0.160287
0.157886
0.155412
0.152838
0.150149
0.147349
0.144445
0.141449
0.138373
0.135235
0.132054
0.128851
0.125674
0.122587
0.200308
0.198531
0.196174
0.193822
0.191546
0.189314
0.187099
0.184878
0.18264
0.180386
0.178121
0.175853
0.17359
0.171335
0.169085
0.166835
0.164576
0.162294
0.159977
0.157597
0.155116
0.152513
0.14978
0.146918
0.143933
0.140832
0.137629
0.134338
0.130976
0.127565
0.124127
0.120713
0.117379
0.200405
0.198068
0.195022
0.192053
0.189268
0.186636
0.184122
0.181692
0.17932
0.176991
0.174696
0.17243
0.170187
0.167959
0.165738
0.163511
0.161262
0.158969
0.15661
0.154143
0.151542
0.148797
0.145906
0.142874
0.139706
0.13641
0.133
0.129492
0.125903
0.122259
0.118584
0.114929
0.111347
0.200545
0.197397
0.193395
0.189614
0.186193
0.183081
0.180219
0.177548
0.175018
0.17259
0.170239
0.167942
0.165682
0.163441
0.161203
0.158949
0.156647
0.154252
0.151738
0.149085
0.146284
0.143331
0.140224
0.136967
0.133567
0.130034
0.126379
0.122621
0.118779
0.11488
0.110953
0.107048
0.103213
0.20075
0.196414
0.191124
0.18636
0.182254
0.178677
0.175503
0.17262
0.169943
0.167412
0.164983
0.162623
0.160305
0.157997
0.155676
0.153319
0.150879
0.148321
0.145624
0.142777
0.139773
0.136607
0.13328
0.129795
0.126159
0.122381
0.118476
0.114462
0.110363
0.106208
0.102029
0.0978809
0.0938047
0.201073
0.194869
0.187672
0.18153
0.176503
0.172323
0.168751
0.165599
0.162733
0.160057
0.157504
0.155025
0.152577
0.150095
0.147547
0.144915
0.142178
0.139317
0.136317
0.133169
0.129865
0.126401
0.122778
0.119001
0.115078
0.111021
0.106847
0.102577
0.0982384
0.0938656
0.0894942
0.0851801
0.080956
0.201582
0.192445
0.182699
0.175003
0.169071
0.164326
0.16036
0.156876
0.1537
0.150722
0.147866
0.145077
0.142295
0.139461
0.136543
0.13352
0.130377
0.127102
0.123689
0.120135
0.116439
0.112603
0.108629
0.104524
0.100299
0.0959683
0.0915549
0.0870875
0.0826011
0.0781353
0.0737308
0.0694433
0.0652969
0.202502
0.18807
0.174195
0.164196
0.157045
0.151632
0.147209
0.143301
0.139674
0.136205
0.132814
0.129445
0.12605
0.122587
0.11903
0.115361
0.11158
0.107696
0.103726
0.0996864
0.0955916
0.0914501
0.0872675
0.0830495
0.078806
0.0745537
0.0703169
0.0661264
0.0620172
0.0580257
0.0541857
0.050538
0.0470894
0.20459
0.178217
0.157002
0.143318
0.134058
0.12714
0.121426
0.116372
0.111715
0.107309
0.103064
0.0989248
0.0948419
0.0907655
0.0866484
0.0824592
0.078194
0.0738821
0.0695809
0.0653633
0.0613007
0.0574481
0.053835
0.0504643
0.0473185
0.04437
0.0415912
0.0389617
0.0364714
0.0341201
0.031913
0.0298635
0.0279657
0.209713
0.153708
0.118896
0.100532
0.0897227
0.0822879
0.076488
0.0715699
0.0671735
0.0631169
0.0593112
0.055713
0.0522914
0.0490125
0.0458403
0.0427466
0.0397204
0.0367711
0.0339261
0.0312232
0.0287006
0.026388
0.0242999
0.0224349
0.0207774
0.0193035
0.0179867
0.0168025
0.0157317
0.0147611
0.0138821
0.013091
0.012378
0.217399
0.11554
0.072661
0.0556057
0.0475655
0.0427891
0.0393364
0.0364875
0.0339379
0.0315499
0.0292701
0.0270888
0.0250163
0.0230703
0.0212696
0.0196286
0.0181523
0.0168325
0.0156478
0.0145677
0.0135602
0.0125997
0.0116728
0.0107788
0.00992788
0.00913502
0.00841463
0.00777607
0.00722177
0.00674779
0.00634554
0.00600514
0.00571373
0.220118
0.0991134
0.0560262
0.0412622
0.0349748
0.0312885
0.0284885
0.0260514
0.0238124
0.0217233
0.0197757
0.0179714
0.0163121
0.0147982
0.0134269
0.0121924
0.0110846
0.0100899
0.00919213
0.00837554
0.0076259
0.0069321
0.00628657
0.00568503
0.00512559
0.00460761
0.00413072
0.00369408
0.00329575
0.00293323
0.00260423
0.00230638
0.00204069
0.21297
0.136045
0.0916967
0.0679406
0.0542767
0.0456051
0.0396148
0.0352271
0.0318806
0.0292489
0.027129
0.0253837
0.0239202
0.022675
0.0216028
0.0206708
0.0198545
0.0191357
0.0185001
0.0179363
0.0174345
0.0169862
0.0165835
0.0162197
0.0158891
0.015587
0.0153096
0.0150536
0.0148166
0.0145973
0.0143934
0.0142071
0.0140229
0.240255
0.000446674
0.0369115
4.71439e-05
0.0103795
0.00134333
0.0293351
0.00311569
0.00180356
0.000259554
0.00207679
0.00210848
0.000722877
0.000218117
0.000295216
0.000326084
0.000334152
0.000363933
0.000398168
0.000430813
0.000464349
0.000499384
0.000535478
0.000572643
0.00061136
0.000652417
0.000696612
0.000745339
0.000802868
0.000870956
0.000947308
0.00102933
0.00111399
0.200085
0.199938
0.199737
0.199535
0.19934
0.199148
0.198957
0.198767
0.198576
0.198383
0.198191
0.197999
0.197805
0.197611
0.197416
0.197222
0.19703
0.196842
0.196659
0.196482
0.196313
0.196152
0.196
0.195858
0.195727
0.195608
0.195502
0.195408
0.19532
0.195234
0.195151
0.195078
0.194998
0.199875
0.19957
0.199244
0.19891
0.198574
0.198242
0.197917
0.197598
0.197287
0.196983
0.196687
0.196397
0.196113
0.195836
0.195563
0.195294
0.195029
0.194767
0.194508
0.19425
0.193994
0.19374
0.193486
0.193232
0.192978
0.192724
0.19247
0.192215
0.19196
0.191704
0.191447
0.19119
0.190932
0.0571531
0.0506131
0.0790343
0.110346
0.120954
0.115221
0.104366
0.0965225
0.0943557
0.0971535
0.102439
0.105607
0.103872
0.100974
0.106106
0.117816
0.117525
0.0941927
0.0586995
0.0278473
0.0100386
0.00394503
0.00361659
0.00405599
0.00080727
0.0048677
0.0262256
0.0530826
0.0758189
0.0957716
0.116526
0.139512
0.162757
0.183339
0.198455
0.205841
0.204257
0.193578
0.177195
0.155329
0.130733
0.10743
0.0843396
0.057125
0.0313837
0.018085
0.0201364
0.0304016
0.0393667
0.0420249
0.0400381
0.0394023
0.0458426
0.061154
0.0825268
0.104599
0.122435
0.133515
0.137929
0.137296
0.13343
0.127549
0.120168
0.111387
0.101244
0.0899313
0.077864
0.0656732
0.054167
0.0442714
0.0369252
0.0329183
0.0327033
0.036253
0.0430325
0.0521068
0.0623433
0.0726337
0.082071
0.0900537
0.0963081
0.100671
0.102394
0.0993681
0.0889166
0.0716124
0.0564475
0.052891
0.0579302
0.0648103
0.0657335
0.0560878
0.0406375
0.0371864
0.0581511
0.0904764
0.113122
0.117676
0.108363
0.101198
0.168326
0.155947
0.141268
0.127641
0.121119
0.117958
0.112178
0.10489
0.0993144
0.0968528
0.097157
0.0982899
0.098973
0.104149
0.116106
0.121869
0.106043
0.0726013
0.0381938
0.0148337
0.0048284
0.00376654
0.00557444
0.00697038
0.00458572
0.0019652
0.0136137
0.038167
0.063216
0.0839641
0.10258
0.121953
0.141816
0.159711
0.172997
0.179575
0.17853
0.170551
0.155477
0.135427
0.113949
0.0930388
0.068951
0.0418667
0.0214801
0.0162526
0.0244812
0.0372597
0.0458575
0.0467909
0.0430381
0.0413606
0.0476009
0.0631623
0.0846947
0.10652
0.123731
0.134059
0.137865
0.136905
0.132979
0.127205
0.11998
0.111316
0.101195
0.089789
0.0775274
0.0650848
0.053339
0.0432955
0.0359597
0.0321533
0.0323134
0.0363525
0.0436487
0.053179
0.0637464
0.0742123
0.0836674
0.0915276
0.0975578
0.101653
0.103103
0.0997612
0.088889
0.0711239
0.055442
0.0516286
0.0570375
0.06505
0.0676293
0.059273
0.0430055
0.0355697
0.052758
0.0846988
0.109468
0.116283
0.108048
0.101713
0.130325
0.14173
0.149761
0.151338
0.146682
0.138503
0.129052
0.119681
0.111762
0.106368
0.103843
0.103753
0.108329
0.118385
0.124604
0.112642
0.0818356
0.046305
0.0194492
0.00596231
0.00321939
0.00568827
0.00869559
0.0102051
0.00916076
0.00422382
0.00580745
0.0225593
0.0471793
0.0700332
0.088783
0.105527
0.122003
0.136996
0.148322
0.154029
0.153469
0.146814
0.133111
0.115802
0.0974709
0.0768284
0.051592
0.0276046
0.0151898
0.0182132
0.0312799
0.0450852
0.0522444
0.0508927
0.0452676
0.0427517
0.0491017
0.065154
0.0869454
0.108499
0.125008
0.134523
0.137695
0.136406
0.132422
0.12675
0.119671
0.111112
0.101012
0.0895229
0.077086
0.0644169
0.0524607
0.0423015
0.0350107
0.0314393
0.0320044
0.0365522
0.044369
0.0543432
0.0652164
0.0758276
0.0852776
0.093011
0.0988402
0.10275
0.104166
0.101052
0.0906059
0.0731251
0.057137
0.052846
0.0581291
0.0667276
0.0706414
0.0636768
0.0472025
0.0360699
0.0489183
0.0792777
0.105247
0.114043
0.107049
0.101866
0.0404149
0.0553724
0.0747877
0.0968341
0.116785
0.13047
0.136554
0.13618
0.132128
0.127549
0.124648
0.125066
0.128298
0.127865
0.113263
0.083341
0.0488025
0.0214907
0.00659651
0.00272111
0.00508639
0.00929473
0.0127192
0.0140482
0.0135287
0.0093351
0.00473732
0.0107517
0.0294892
0.0525958
0.0730928
0.0896558
0.103703
0.115931
0.125129
0.129725
0.129078
0.122627
0.111391
0.0971118
0.0799615
0.0580093
0.0339302
0.0168004
0.0138708
0.0240993
0.0401236
0.0533675
0.0580915
0.0540394
0.046597
0.0435732
0.0504064
0.0671928
0.0893056
0.110528
0.126245
0.134886
0.137408
0.135798
0.131764
0.126189
0.119242
0.110777
0.100694
0.0891331
0.0765426
0.0636755
0.0515412
0.0413013
0.0340916
0.0307897
0.0317866
0.0368567
0.0451906
0.0555881
0.0667356
0.0774601
0.0868859
0.0944973
0.100152
0.103903
0.105296
0.102437
0.0925331
0.0755633
0.059457
0.0546254
0.0595274
0.0684218
0.0735887
0.0683467
0.0524725
0.0381729
0.0460889
0.0737394
0.100123
0.110666
0.104993
0.101211
0.0027425
0.00610389
0.0133741
0.0268675
0.046938
0.0703489
0.0922107
0.108864
0.119188
0.124165
0.125754
0.12465
0.117258
0.0993124
0.071791
0.0422366
0.0188161
0.00563356
0.00205726
0.00445205
0.00915264
0.0139622
0.0175847
0.018932
0.0181864
0.0150687
0.00895134
0.00627774
0.0148469
0.0331105
0.0537806
0.0717368
0.0858244
0.0965396
0.103969
0.107454
0.106572
0.101101
0.0914986
0.0779673
0.0596198
0.0377816
0.0191868
0.0117901
0.0179564
0.0332855
0.0501787
0.0614061
0.0629227
0.0559912
0.0469893
0.0439176
0.0516487
0.0693859
0.0918304
0.112618
0.12743
0.135137
0.136999
0.135079
0.131002
0.125514
0.118679
0.110289
0.100218
0.0885959
0.0758771
0.0628453
0.0505711
0.0402913
0.0332039
0.0302081
0.0316632
0.0372653
0.0461057
0.0568961
0.0682724
0.0790576
0.0884087
0.0958572
0.10131
0.104894
0.106282
0.103738
0.0944798
0.0781283
0.061945
0.0564386
0.060707
0.0696287
0.0759388
0.0726812
0.0581708
0.0416484
0.0443936
0.0684149
0.0944668
0.106459
0.102099
0.0998901
6.23809e-05
0.000461987
0.0017996
0.00193556
0.00599757
0.0160721
0.0309838
0.0476095
0.0622912
0.0723455
0.0763954
0.0729916
0.0615223
0.0441715
0.0257389
0.011132
0.00309099
0.00148119
0.00416054
0.00891989
0.0144696
0.0198643
0.0240035
0.0257101
0.0246502
0.0214476
0.0157115
0.00902156
0.00790323
0.0166795
0.0326413
0.0500913
0.0651054
0.0763059
0.0835258
0.0867682
0.0857227
0.0802463
0.0702724
0.0555858
0.0373
0.0201431
0.0109667
0.0137671
0.0269091
0.0447621
0.060539
0.0685418
0.0663491
0.0566147
0.0465067
0.0439451
0.0529885
0.0718324
0.0945484
0.114751
0.128537
0.135259
0.136466
0.13426
0.130148
0.124734
0.117982
0.109644
0.0995741
0.0878976
0.0750731
0.0619118
0.0495412
0.0392687
0.0323495
0.0296981
0.0316355
0.0377742
0.0471047
0.0582541
0.0698144
0.0806143
0.0898563
0.0971302
0.102394
0.10583
0.107217
0.104959
0.0963102
0.0805938
0.0644102
0.0582271
0.061739
0.0704311
0.0776015
0.0763052
0.0637523
0.0463292
0.0440313
0.063584
0.0884775
0.101507
0.0983976
0.097921
0.00271257
0.00221752
0.00170485
0.000209544
0.00117592
0.000434021
0.00239125
0.00716235
0.01342
0.0188252
0.0208526
0.0185153
0.0132216
0.00721183
0.00269215
0.000921788
0.00189722
0.00482506
0.00917891
0.0148576
0.0214808
0.028002
0.0330185
0.0352825
0.0342369
0.0302867
0.0242623
0.0164898
0.00970558
0.0087925
0.0157213
0.0279095
0.0411448
0.0522959
0.0598515
0.063237
0.061843
0.0557942
0.0453261
0.0316652
0.0182064
0.0100921
0.0113804
0.0223395
0.0394635
0.0573022
0.0702659
0.0741657
0.0680858
0.0559006
0.0453161
0.0438755
0.0545982
0.0746133
0.0974605
0.116891
0.129525
0.135228
0.135805
0.133345
0.129209
0.123856
0.117167
0.108859
0.0987794
0.0870476
0.0741314
0.0608719
0.0484485
0.0382327
0.0315292
0.0292598
0.0316969
0.0383638
0.0481523
0.0596156
0.071314
0.0820879
0.0911836
0.0982517
0.103306
0.106588
0.107983
0.106046
0.0980798
0.0830984
0.066997
0.0601131
0.0627359
0.0709128
0.0785125
0.0788391
0.0684907
0.0516097
0.0449924
0.0594433
0.0822999
0.0958291
0.0938109
0.0951977
0.00551907
0.00520917
0.00481049
0.0040961
0.00328789
0.00211114
0.00045736
0.000530666
0.000708978
0.00108524
0.00140051
0.00118077
0.000856344
0.00111221
0.00217744
0.00395363
0.00648212
0.0102365
0.0158155
0.0232358
0.0315855
0.0393835
0.0451865
0.0479444
0.0472176
0.0429377
0.0359951
0.0273956
0.0182127
0.0110773
0.00899418
0.0126159
0.019885
0.0277682
0.0338099
0.0364267
0.0349182
0.0296277
0.0216737
0.0134938
0.00865548
0.010467
0.0201235
0.0359304
0.0539957
0.0696119
0.0784697
0.0777934
0.0680081
0.0539849
0.0436788
0.0439612
0.056634
0.0777704
0.100531
0.118975
0.130345
0.135021
0.135007
0.13233
0.128181
0.122878
0.116229
0.107936
0.097841
0.0860622
0.0730739
0.0597457
0.0473087
0.0371957
0.0307542
0.028901
0.0318464
0.0390136
0.0491971
0.0608932
0.0726611
0.0833791
0.0923347
0.0992117
0.104069
0.107209
0.108617
0.106994
0.0996965
0.0854575
0.0694825
0.0619
0.0635807
0.0710774
0.0787355
0.0801655
0.0717459
0.0562287
0.0466441
0.0558456
0.0759296
0.0893999
0.0882469
0.0915854
0.0064694
0.0064436
0.00637673
0.0062522
0.00597624
0.00553354
0.00476738
0.00400273
0.00326772
0.00277687
0.00272098
0.00306123
0.00375863
0.00478317
0.00619191
0.00835261
0.0119983
0.0178643
0.0260634
0.035772
0.0455417
0.0539257
0.0598903
0.0628337
0.0625583
0.0587996
0.051727
0.0423448
0.0318565
0.0216836
0.0137968
0.00976286
0.00956502
0.011682
0.0140469
0.0150068
0.0139579
0.011349
0.0085649
0.0078043
0.011386
0.0206709
0.0351746
0.0524234
0.068749
0.080423
0.0843984
0.0791387
0.066183
0.0511412
0.041919
0.0444508
0.0592086
0.0812945
0.103687
0.120928
0.130951
0.134619
0.134071
0.131214
0.127057
0.121785
0.115155
0.106861
0.0967488
0.0849352
0.0718996
0.0585382
0.0461327
0.0361738
0.0300436
0.0286421
0.0321046
0.0397422
0.0502454
0.0620593
0.0737671
0.0843308
0.093129
0.0998697
0.104588
0.107612
0.109037
0.107725
0.101099
0.0876198
0.0717992
0.0634969
0.0642015
0.0709867
0.0785587
0.0806739
0.0735176
0.0590922
0.0477323
0.0521726
0.0692194
0.0822337
0.0816959
0.08699
0.00754448
0.00743759
0.00735029
0.00728682
0.00722814
0.00715866
0.00705875
0.00688124
0.00669767
0.00660172
0.00676031
0.00714897
0.00784543
0.00909427
0.0114094
0.0155292
0.0220748
0.0310595
0.0416644
0.0525193
0.0622649
0.0699797
0.0752441
0.077939
0.0780934
0.0754722
0.06972
0.060992
0.0502314
0.0387579
0.0280185
0.0193783
0.0135874
0.0104405
0.00898256
0.00828582
0.0079612
0.00837344
0.0105011
0.0156417
0.0248113
0.0380265
0.0538196
0.0694758
0.0819528
0.0886324
0.0875656
0.0781784
0.0628718
0.047745
0.0403777
0.0455505
0.0623702
0.0851224
0.106828
0.122669
0.131302
0.134013
0.132995
0.129995
0.125828
0.120564
0.113929
0.10562
0.0954891
0.0836532
0.0705969
0.0572426
0.0449201
0.0351723
0.0294065
0.0284942
0.0324842
0.0405702
0.0513368
0.0631752
0.0746887
0.0849376
0.0934505
0.100046
0.104718
0.107726
0.109215
0.108194
0.102178
0.0894154
0.0737861
0.0648234
0.0646136
0.070768
0.0783012
0.0809602
0.0745319
0.0603679
0.0473997
0.0477978
0.0619545
0.0742874
0.0741339
0.0813358
0.0131431
0.0124804
0.0118811
0.011353
0.0109082
0.0105621
0.0103332
0.0102312
0.0102826
0.0105485
0.0111003
0.0121472
0.01405
0.0173181
0.0225201
0.0300025
0.0395695
0.0503881
0.0612471
0.0710079
0.0789451
0.084817
0.0887056
0.0907896
0.0912251
0.0898792
0.0863266
0.0800806
0.0711803
0.0604361
0.049132
0.0386139
0.0299362
0.023616
0.0196362
0.0177977
0.0179646
0.0203925
0.0255568
0.0339061
0.0454047
0.0590827
0.0729722
0.0846672
0.0920589
0.0935235
0.087862
0.0751609
0.0584846
0.0442151
0.0393629
0.047395
0.0660957
0.0891454
0.10984
0.124126
0.131371
0.133201
0.131784
0.128666
0.124479
0.119198
0.112534
0.104197
0.0940468
0.0822024
0.0691542
0.0558514
0.0436693
0.0341955
0.0288504
0.0284633
0.0329868
0.0414949
0.0524754
0.0642769
0.075521
0.0853408
0.0933979
0.0996885
0.104283
0.107337
0.108959
0.108255
0.102836
0.0908062
0.0754793
0.0659939
0.0649806
0.0705788
0.0781037
0.0812899
0.0754887
0.0612872
0.0466536
0.0433917
0.0544453
0.0656458
0.0655757
0.0746047
0.0293178
0.0276284
0.0260613
0.0246359
0.0233849
0.0223563
0.0216138
0.0212344
0.0213168
0.021979
0.0233997
0.0259606
0.0300394
0.0359165
0.0436125
0.0527422
0.0625289
0.0720225
0.0804059
0.0872094
0.0923409
0.0959689
0.0983588
0.0997358
0.100258
0.0998914
0.0983823
0.0952175
0.0898717
0.0822861
0.0730907
0.063398
0.0544133
0.0470978
0.0420686
0.0396389
0.0399291
0.0431251
0.0492595
0.0580629
0.0687252
0.079792
0.0894251
0.0959472
0.0981305
0.0949489
0.0855652
0.070538
0.0534998
0.0409498
0.0391108
0.0500346
0.0702976
0.0932262
0.11261
0.125241
0.131145
0.132188
0.130436
0.127218
0.122992
0.117666
0.11095
0.102572
0.0924045
0.0805668
0.0675593
0.0543583
0.0423809
0.0332498
0.0283844
0.0285563
0.0336114
0.0425046
0.0536391
0.0653426
0.0762734
0.0856275
0.0931453
0.0989614
0.103323
0.106377
0.108143
0.107771
0.102969
0.0917391
0.0768688
0.0670312
0.0653417
0.070447
0.0779639
0.0816622
0.0765321
0.0624062
0.0463061
0.0395366
0.0469989
0.0564619
0.0561446
0.0668904
0.055923
0.0535593
0.0513374
0.0492976
0.0474983
0.0460217
0.0449762
0.0444964
0.0447438
0.0458917
0.0481695
0.0517676
0.0567392
0.0629184
0.0698987
0.0770951
0.0838911
0.0898043
0.0945876
0.0982292
0.100876
0.102738
0.104019
0.10486
0.105348
0.105496
0.105224
0.104291
0.102258
0.0986874
0.093487
0.0870996
0.0803913
0.0743586
0.0699152
0.0675894
0.0677181
0.0704393
0.0754958
0.0822276
0.089567
0.096169
0.100732
0.102292
0.10011
0.0933155
0.0812175
0.0648447
0.0483823
0.0382814
0.0397696
0.0534401
0.0748416
0.0972177
0.115041
0.125977
0.130624
0.130979
0.128948
0.125632
0.121343
0.115943
0.109153
0.100725
0.0905416
0.0787282
0.0657985
0.052757
0.0410571
0.0323441
0.028019
0.0287796
0.0343563
0.0435881
0.0548077
0.0663426
0.0769103
0.0857856
0.0927663
0.0980439
0.10201
0.104934
0.106773
0.10671
0.102556
0.0922369
0.0780083
0.0679825
0.0657223
0.0703873
0.0779005
0.0820979
0.0776752
0.0637804
0.0464977
0.0364428
0.039922
0.0470549
0.0461341
0.0583855
0.0853955
0.0830961
0.080917
0.078896
0.0770929
0.0755946
0.0745137
0.0739852
0.0741481
0.0751445
0.0770358
0.0797472
0.0831262
0.0869244
0.0908299
0.0945332
0.097796
0.100491
0.1026
0.104184
0.105346
0.106201
0.106857
0.107391
0.107822
0.108164
0.108404
0.108491
0.108271
0.10747
0.105809
0.103229
0.100014
0.0967598
0.0941368
0.092634
0.0925905
0.094118
0.0969363
0.100425
0.10372
0.105892
0.106171
0.103991
0.0986978
0.089345
0.0754309
0.0585874
0.0435329
0.0364597
0.0414029
0.0575195
0.0795672
0.10098
0.117058
0.126316
0.129815
0.129579
0.127308
0.123886
0.119504
0.114001
0.107118
0.0986299
0.0884338
0.0766661
0.063858
0.0510425
0.0397018
0.0314884
0.0277647
0.0291373
0.035215
0.0447286
0.0559591
0.0672536
0.0774044
0.0857793
0.0922421
0.0970023
0.100501
0.103166
0.10498
0.105157
0.101633
0.0922816
0.0788228
0.068748
0.066036
0.0703531
0.0779134
0.0826208
0.0789299
0.065394
0.0472128
0.0342006
0.0334692
0.0377525
0.0358863
0.0493347
0.10612
0.104207
0.102396
0.100707
0.0991783
0.0978607
0.096822
0.0961375
0.0958769
0.0960894
0.0967532
0.0977993
0.0991224
0.100597
0.102091
0.103488
0.104707
0.105699
0.106459
0.107009
0.107402
0.107705
0.107996
0.108334
0.10871
0.109121
0.109559
0.110009
0.110438
0.110773
0.110883
0.110635
0.110004
0.109156
0.108335
0.107812
0.107774
0.108284
0.109146
0.109956
0.110173
0.109258
0.106765
0.102231
0.094889
0.0837577
0.0687343
0.052194
0.0392813
0.0356594
0.044004
0.0621361
0.0843043
0.104388
0.118605
0.126252
0.128724
0.127982
0.125495
0.121947
0.11744
0.111805
0.104809
0.0962543
0.0860526
0.0743573
0.0617229
0.0492103
0.0383204
0.0306934
0.0276303
0.0296295
0.0361744
0.0459013
0.0570623
0.0680474
0.0777363
0.0855917
0.0915486
0.0958362
0.0988821
0.101203
0.10291
0.103248
0.100296
0.0919149
0.079331
0.0693684
0.0663486
0.0704211
0.0780785
0.0832908
0.0803077
0.0671755
0.0483077
0.0327185
0.0278048
0.0289325
0.0258675
0.0400684
0.118336
0.116436
0.114638
0.112961
0.111428
0.110065
0.1089
0.107961
0.107271
0.106833
0.106644
0.106668
0.106844
0.107115
0.107423
0.10771
0.107929
0.10805
0.108067
0.108
0.107893
0.10781
0.107827
0.108004
0.10831
0.108737
0.109276
0.109905
0.110591
0.111301
0.111987
0.112583
0.113032
0.113294
0.113423
0.113481
0.113491
0.113434
0.113163
0.112427
0.110909
0.108294
0.104259
0.098289
0.0895057
0.0770801
0.0615352
0.0460286
0.0359035
0.0359912
0.0475068
0.0671209
0.0888834
0.107338
0.119647
0.125787
0.127355
0.126175
0.123478
0.119776
0.115109
0.109314
0.102189
0.0935612
0.0833652
0.071777
0.0593788
0.047257
0.0369184
0.029968
0.0276202
0.0302483
0.0372117
0.0470703
0.058075
0.0686823
0.0778705
0.0851946
0.0906528
0.0944994
0.0971382
0.0990915
0.100625
0.101061
0.0986203
0.0911905
0.0795435
0.0698299
0.0666312
0.0705484
0.0783534
0.0840829
0.0817887
0.069045
0.0495937
0.0317056
0.022829
0.0208033
0.016598
0.0311004
0.124596
0.122605
0.12071
0.118931
0.117286
0.115792
0.114466
0.113318
0.112353
0.111569
0.110969
0.11051
0.110146
0.109837
0.109547
0.109238
0.108883
0.108471
0.108008
0.107523
0.107065
0.106701
0.106511
0.106555
0.106787
0.107193
0.107769
0.108494
0.109329
0.110224
0.111127
0.111984
0.112739
0.113335
0.113748
0.113939
0.113855
0.113428
0.112523
0.110958
0.108521
0.10498
0.100007
0.092985
0.0830229
0.0696553
0.0541789
0.0404322
0.0336344
0.037502
0.0517885
0.0722798
0.0931407
0.109742
0.120164
0.124923
0.125701
0.12413
0.121214
0.117323
0.112458
0.106477
0.0992077
0.0905067
0.0803353
0.0688994
0.0568122
0.0451804
0.0355002
0.0293161
0.0277294
0.0309739
0.0382908
0.0481878
0.0589457
0.069111
0.0777701
0.0845655
0.0895447
0.0929804
0.0952639
0.0968853
0.0982073
0.0987065
0.0967362
0.0902457
0.0796174
0.0703127
0.067051
0.0708474
0.078783
0.085005
0.0833837
0.0710067
0.0509698
0.0309389
0.0184978
0.0137014
0.00868388
0.0230424
0.128557
0.126424
0.124378
0.122436
0.120617
0.118937
0.117407
0.116035
0.114823
0.113767
0.112855
0.112035
0.111269
0.110532
0.109798
0.109048
0.108273
0.107474
0.106665
0.105879
0.105163
0.104584
0.104228
0.104156
0.104307
0.104666
0.105229
0.105978
0.106876
0.107867
0.108884
0.109856
0.110714
0.111395
0.111838
0.111973
0.111719
0.110984
0.109644
0.107551
0.104534
0.100365
0.0946449