/*--------------------------------*- C++ -*----------------------------------*\
  =========                 |
  \\      /  F ield         | OpenFOAM: The Open Source CFD Toolbox
   \\    /   O peration     | Website:  https://openfoam.org
    \\  /    A nd           | Version:  10
     \\/     M anipulation  |
\*---------------------------------------------------------------------------*/
FoamFile
{
    format      ascii;
    class       volScalarField;
    location    "0.085";
    object      nut;
}
// * * * * * * * * * * * * * * * * * * * * * * * * * * * * * * * * * * * * * //

dimensions      [0 2 -1 0 0 0 0];

internalField   nonuniform List<scalar> 
6820
(
0
0
0
0
0
0
0
0
0
0
0
0
0
0
0
0
0
0
0
0
0
0
0
0
0
0
0
0
0
0
0
3.08379e-08
7.69749e-08
0
0
0
0
0
0
0
0
0
0
0
0
0
0
0
0
0
0
0
0
0
0
0
0
0
0
0
0
0
0
4.15565e-08
2.32211e-07
3.85918e-07
0
0
0
0
0
0
0
0
0
0
0
0
0
0
0
0
0
0
0
0
0
0
0
0
0
0
0
0
0
7.54912e-09
6.29388e-08
1.69374e-07
2.87062e-07
0
0
0
0
0
0
0
0
0
0
0
0
0
0
0
0
0
0
0
0
0
0
0
0
0
0
0
0
0
0
0
0
0
1.68867e-05
0
0
0
0
0
0
0
0
0
0
0
0
0
0
1.85754e-08
4.94205e-07
8.69765e-07
1.1671e-06
1.41027e-06
1.62476e-06
1.83976e-06
2.09473e-06
2.45308e-06
3.02896e-06
4.01417e-06
5.44995e-06
4.12375e-06
0
0
0
0
0
6.29297e-06
5.29551e-05
3.95697e-05
1.62629e-05
3.31618e-06
0
0
0
0
0
0
0
0
0
0
0
0
0
3.29761e-08
6.73287e-08
1.05605e-07
1.49286e-07
1.96292e-07
2.59389e-07
1.24877e-07
4.81213e-07
7.88996e-07
8.08007e-07
5.81322e-07
1.2285e-07
0
0
0
0
1.53537e-05
3.75129e-05
5.27931e-05
4.94389e-05
3.77463e-05
2.26071e-05
4.49057e-06
0
0
0
0
0
0
0
0
0
5.86385e-07
1.20362e-06
1.50134e-06
1.595e-06
1.56091e-06
1.44865e-06
1.29044e-06
1.10646e-06
9.12609e-07
7.16123e-07
5.21551e-07
3.31077e-07
1.4774e-07
0
0
0
0
9.3985e-06
2.32488e-05
4.43693e-05
5.54848e-05
5.69116e-05
4.80458e-05
8.42941e-06
0
0
0
0
0
0
0
0
4.52558e-07
1.07974e-06
1.3807e-06
1.47239e-06
1.43286e-06
1.31341e-06
1.14745e-06
9.5672e-07
7.55701e-07
5.54193e-07
3.59545e-07
1.78177e-07
1.34188e-08
0
0
0
0
0
6.66647e-06
1.4666e-05
3.15881e-05
4.76718e-05
6.15127e-05
7.2522e-05
0
0
0
0
0
0
0
0
2.18586e-07
9.55371e-07
1.31488e-06
1.43762e-06
1.41386e-06
1.30101e-06
1.13659e-06
9.4556e-07
7.44226e-07
5.43074e-07
3.49133e-07
1.67104e-07
1.24226e-09
0
0
0
0
0
0
4.61107e-06
9.15827e-06
2.05493e-05
3.27538e-05
4.06964e-05
3.50989e-05
0
0
0
0
0
0
0
0
7.14842e-07
1.24839e-06
1.45888e-06
1.47036e-06
1.36273e-06
1.18665e-06
9.7545e-07
7.51447e-07
5.2924e-07
3.17934e-07
1.23399e-07
0
0
0
0
0
0
0
0
3.16672e-06
5.64344e-06
1.26302e-05
2.00234e-05
2.28928e-05
1.67953e-05
7.68667e-07
0
0
0
0
0
1.91616e-07
1.48305e-06
2.14499e-06
2.37322e-06
2.32309e-06
2.1059e-06
1.79646e-06
1.44437e-06
1.08265e-06
7.32937e-07
4.09032e-07
1.19121e-07
0
0
0
0
0
0
0
0
0
2.16555e-06
3.3651e-06
7.40592e-06
1.15603e-05
1.24176e-05
8.83659e-06
1.91685e-06
0
0
0
0
0
1.14041e-06
1.93321e-06
2.29828e-06
2.34734e-06
2.18019e-06
1.87578e-06
1.49338e-06
1.07644e-06
6.56176e-07
2.54724e-07
0
0
0
0
0
0
0
0
0
0
0
1.49738e-06
1.98411e-06
4.28679e-06
6.71911e-06
7.05873e-06
5.2775e-06
2.31477e-06
0
0
0
7.95999e-07
1.73726e-06
2.36457e-06
2.65143e-06
2.65105e-06
2.43752e-06
2.07987e-06
1.63488e-06
1.14683e-06
6.49588e-07
1.68678e-07
0
0
0
0
0
0
0
0
0
0
0
0
1.0529e-06
1.14437e-06
2.39353e-06
3.80373e-06
3.88929e-06
2.87141e-06
1.39838e-06
2.18834e-07
0
8.02699e-08
6.10564e-07
1.09739e-06
1.39802e-06
1.48358e-06
1.38017e-06
1.13238e-06
7.85784e-07
3.80683e-07
0
0
0
0
0
0
0
0
0
0
0
0
0
0
0
7.58726e-07
6.38341e-07
1.26616e-06
2.08885e-06
2.0893e-06
1.50612e-06
7.69068e-07
2.11366e-07
4.53032e-08
2.20062e-07
5.26167e-07
7.81559e-07
8.95724e-07
8.4966e-07
6.63198e-07
3.71446e-07
1.15241e-08
0
0
0
0
0
0
0
0
0
0
0
0
0
0
0
0
5.61903e-07
3.2361e-07
5.63773e-07
9.90741e-07
8.77872e-07
4.21679e-07
0
0
0
0
0
0
0
0
0
0
0
0
0
0
0
0
0
0
0
0
0
0
0
0
0
0
0
4.28639e-07
1.19627e-07
1.08256e-07
2.59125e-07
4.02095e-08
0
0
0
0
0
0
0
0
0
0
0
0
0
0
0
0
0
0
0
0
0
0
0
0
0
0
0
0
3.36124e-07
0
0
0
0
0
0
0
0
0
0
0
0
0
0
0
0
0
0
0
0
0
0
0
0
0
0
0
0
1.41839e-07
7.62123e-09
0
0
2.69926e-07
0
0
0
0
0
0
0
0
0
0
0
0
0
0
0
0
0
0
0
0
0
0
0
0
0
0
0
4.35493e-07
1.00284e-06
8.88285e-07
0
0
2.20345e-07
0
0
0
0
0
0
0
0
0
0
0
0
0
0
0
0
0
0
0
0
0
0
0
0
0
0
6.2619e-07
1.29321e-06
1.89499e-06
1.7927e-06
0
0
1.80701e-07
0
0
0
0
0
0
0
0
0
0
0
0
0
0
0
0
0
0
0
0
0
0
0
0
1.96696e-07
8.67307e-07
1.5526e-06
2.24329e-06
2.85362e-06
2.74638e-06
5.26863e-07
0
1.46577e-07
0
0
0
0
0
0
0
0
0
0
0
0
0
0
0
0
0
0
0
0
0
0
0
4.27677e-07
1.12286e-06
1.83032e-06
2.53661e-06
3.23137e-06
3.83104e-06
3.70665e-06
1.48254e-06
0
1.14223e-07
0
0
0
0
0
0
0
0
0
0
0
0
0
0
0
0
0
0
0
0
0
0
6.30869e-07
1.35201e-06
2.08102e-06
2.80657e-06
3.51497e-06
4.19527e-06
4.76681e-06
4.61455e-06
2.39408e-06
0
8.18214e-08
0
0
0
0
0
0
0
0
0
0
0
0
0
0
0
0
0
0
0
0
2.43851e-07
9.67957e-07
1.70616e-06
2.44866e-06
3.18423e-06
3.90102e-06
4.58526e-06
5.22575e-06
5.74525e-06
5.54856e-06
3.33007e-06
0
4.36418e-08
0
0
0
0
0
0
0
0
0
0
0
0
0
0
0
0
0
0
0
3.62816e-07
1.11802e-06
1.88332e-06
2.64922e-06
3.40507e-06
4.13907e-06
4.83891e-06
5.49118e-06
6.08499e-06
6.54739e-06
6.30522e-06
4.10479e-06
0
3.9495e-09
0
0
0
0
0
0
0
0
0
0
0
0
0
0
0
0
0
1.13353e-07
8.66651e-07
1.63217e-06
2.40278e-06
3.17003e-06
3.92411e-06
4.65411e-06
5.3481e-06
5.99397e-06
6.57892e-06
7.09249e-06
7.46619e-06
7.15546e-06
4.96069e-06
0
0
0
0
0
0
0
0
0
0
0
0
0
0
0
0
0
0
8.01792e-08
8.7014e-07
1.66881e-06
2.46885e-06
3.26214e-06
4.03925e-06
4.78958e-06
5.50171e-06
6.1637e-06
6.76372e-06
7.28988e-06
7.73278e-06
8.02934e-06
7.66319e-06
5.50423e-06
0
0
0
0
0
0
0
0
0
0
0
0
0
0
0
0
1.61144e-07
9.40751e-07
1.72607e-06
2.51237e-06
3.29401e-06
4.06415e-06
4.81485e-06
5.5368e-06
6.21968e-06
6.85247e-06
7.42375e-06
7.92232e-06
8.33721e-06
8.65979e-06
8.83227e-06
8.37614e-06
6.22815e-06
0
0
0
0
0
0
0
0
0
0
0
0
0
0
0
0
7.29255e-07
1.55517e-06
2.37774e-06
3.1914e-06
3.9896e-06
4.76462e-06
5.50771e-06
6.20917e-06
6.85849e-06
7.44477e-06
7.95704e-06
8.38498e-06
8.7191e-06
8.95265e-06
9.03449e-06
8.52122e-06
6.43892e-06
0
0
0
0
0
0
0
0
0
0
0
0
0
7.71096e-07
1.55804e-06
2.33644e-06
3.10433e-06
3.85932e-06
4.5981e-06
5.3166e-06
6.00928e-06
6.66926e-06
7.28849e-06
7.85788e-06
8.3675e-06
8.80712e-06
9.16657e-06
9.43648e-06
9.60851e-06
9.67703e-06
9.59735e-06
8.97618e-06
6.9263e-06
0
0
0
0
0
0
0
0
0
0
0
0
3.51942e-07
1.18507e-06
2.00268e-06
2.80231e-06
3.58191e-06
4.33856e-06
5.06833e-06
5.76643e-06
6.42694e-06
7.04286e-06
7.60621e-06
8.10822e-06
8.53965e-06
8.89135e-06
9.15471e-06
9.32247e-06
9.38908e-06
9.35211e-06
9.17605e-06
8.51672e-06
6.61021e-06
0
1.79101e-07
0
0
0
0
0
8.04491e-07
1.61947e-06
2.38314e-06
3.09669e-06
3.76545e-06
4.39615e-06
4.99545e-06
5.56815e-06
6.11698e-06
6.64282e-06
7.14466e-06
7.62014e-06
8.06556e-06
8.47599e-06
8.84516e-06
9.1658e-06
9.42984e-06
9.62897e-06
9.7552e-06
9.80146e-06
9.76223e-06
9.63381e-06
9.41531e-06
9.0794e-06
8.34911e-06
6.57933e-06
0
0
0
0
0
0
8.54632e-07
1.68869e-06
2.42334e-06
3.07034e-06
3.64974e-06
4.17849e-06
4.66954e-06
5.13111e-06
5.56685e-06
5.97686e-06
6.35909e-06
6.71062e-06
7.02896e-06
7.31259e-06
7.56095e-06
7.77371e-06
7.94986e-06
8.08685e-06
8.18043e-06
8.22491e-06
8.21406e-06
8.14217e-06
8.0049e-06
7.80055e-06
7.50866e-06
6.91701e-06
5.52927e-06
3.7651e-06
8.18971e-06
7.58302e-06
8.20174e-06
8.8596e-06
9.07788e-06
9.04265e-06
8.88256e-06
8.66071e-06
8.42198e-06
8.19409e-06
7.99242e-06
7.82451e-06
7.69142e-06
7.58925e-06
7.51105e-06
7.44903e-06
7.39589e-06
7.3458e-06
7.29502e-06
7.24179e-06
7.18552e-06
7.1256e-06
7.06029e-06
6.98615e-06
6.89792e-06
6.78901e-06
6.65243e-06
6.48124e-06
6.27024e-06
6.0029e-06
5.54182e-06
4.54244e-06
1.64029e-06
1.16566e-05
1.17808e-05
1.18571e-05
1.15224e-05
1.06719e-05
9.69462e-06
8.84744e-06
8.14166e-06
7.54714e-06
7.05479e-06
6.65642e-06
6.3395e-06
6.09269e-06
5.90694e-06
5.77375e-06
5.68497e-06
5.63234e-06
5.60668e-06
5.59776e-06
5.59495e-06
5.58842e-06
5.57033e-06
5.53581e-06
5.48306e-06
5.41268e-06
5.3264e-06
5.22552e-06
5.10854e-06
4.97333e-06
4.80723e-06
4.51049e-06
3.82409e-06
6.62585e-05
4.30924e-05
2.75976e-05
2.04237e-05
1.51544e-05
1.04225e-05
6.41006e-06
3.26315e-06
8.78624e-07
0
0
0
0
0
0
0
0
0
0
0
0
0
0
0
0
0
0
0
0
0
0
0
0
0
0
0
0
0
0
0
0
0
0
0
0
0
0
0
0
0
0
0
0
0
0
0
0
0
0
0
0
0
0
0
0
0
3.84423e-08
0
0
0
0
0
0
0
0
0
0
0
0
0
0
0
0
0
0
0
0
0
0
0
0
0
0
0
0
0
0
0
0
2.01294e-08
0
0
0
0
0
0
0
0
0
0
0
0
0
0
0
0
0
0
0
0
0
0
0
0
0
0
0
0
0
0
0
0
8.75951e-09
0
0
0
0
0
0
0
0
0
0
0
0
0
0
0
0
0
0
0
0
0
0
0
0
0
0
0
0
0
0
0
0
0
0
0
0
0
0
0
0
0
0
1.15025e-05
2.97791e-05
2.24968e-05
0
0
0
0
3.35874e-06
9.1438e-06
7.80004e-06
4.16788e-06
2.00204e-06
1.14158e-06
2.18377e-07
0
0
0
0
0
0
0
9.95383e-06
2.70951e-05
5.01428e-05
8.39998e-05
0.000141959
0.000270605
0.000331545
0
0
0
1.24156e-05
2.47734e-05
2.05081e-05
1.43919e-05
1.04217e-05
9.94052e-06
9.80085e-06
8.23691e-06
6.07473e-06
4.00598e-06
2.35293e-06
1.07118e-06
0
0
0
0
0
0
0
0
0
0
0
0
0
0
0
0
0
0
0
0
0
0
0
0
0
0
0
0
0
0
0
0
0
8.31085e-06
2.96586e-06
0
0
0
0
3.60447e-05
3.60346e-05
1.2778e-06
0
0
0
0
0
0
0
0
0
0
0
0
0
0
0
4.19582e-06
1.53689e-05
6.20838e-06
0
0
0
0
8.21394e-06
1.05705e-05
6.61142e-06
3.2397e-06
2.1517e-06
1.50276e-06
3.22309e-07
0
0
0
0
0
0
0
5.4321e-06
2.42089e-05
4.85179e-05
8.29192e-05
0.000139489
0.000259413
0.000444825
0
0
0
2.21436e-05
2.34192e-05
1.8081e-05
1.27245e-05
1.06943e-05
1.16359e-05
1.16249e-05
1.01257e-05
7.90665e-06
5.6218e-06
3.7735e-06
2.42591e-06
1.28295e-06
1.71118e-07
0
0
0
0
0
0
0
0
0
0
0
0
0
0
0
0
0
0
0
0
0
0
0
0
0
0
0
0
0
0
0
8.04738e-06
3.19172e-06
0
0
0
0
5.13517e-06
3.92631e-05
4.59349e-06
0
0
0
0
0
4.46497e-08
0
0
0
0
0
0
0
0
0
0
7.82612e-06
1.6104e-05
3.68528e-06
0
1.21954e-07
6.82669e-06
1.17426e-05
8.53048e-06
4.35159e-06
2.70359e-06
2.62522e-06
1.7953e-06
3.50777e-07
0
0
0
0
0
0
0
0
1.50835e-05
3.88424e-05
7.02493e-05
0.000116158
0.000185127
8.69539e-05
0
0
1.52284e-05
2.2842e-05
2.00548e-05
1.48258e-05
1.10704e-05
1.16144e-05
1.33389e-05
1.33743e-05
1.18996e-05
9.52897e-06
7.00786e-06
5.0106e-06
3.66255e-06
2.60017e-06
1.56723e-06
5.65445e-07
0
0
0
0
0
0
0
0
0
0
0
0
0
0
0
0
0
0
0
0
0
0
0
0
0
0
0
0
0
0
7.56422e-06
3.33507e-06
0
0
0
0
0
3.98644e-05
7.71465e-06
0
0
0
0
0
0
0
0
0
0
0
0
0
0
0
0
0
1.6498e-05
2.592e-05
1.3252e-05
9.75299e-06
1.24459e-05
9.46428e-06
5.02424e-06
2.92083e-06
3.31177e-06
3.17835e-06
2.0233e-06
3.43851e-07
0
0
0
0
0
0
0
0
0
1.87595e-05
4.17264e-05
6.37703e-05
5.81422e-05
0
0
9.62246e-06
1.96656e-05
1.98982e-05
1.60066e-05
1.16675e-05
1.07331e-05
1.33331e-05
1.52041e-05
1.51969e-05
1.35823e-05
1.09421e-05
8.17561e-06
6.08539e-06
4.80298e-06
3.87511e-06
2.96812e-06
2.05823e-06
1.21105e-06
4.61986e-07
0
0
0
0
0
0
0
0
0
0
0
0
0
0
0
0
0
0
0
0
0
0
0
0
0
0
0
0
7.01397e-06
3.48211e-06
0
0
0
0
0
3.68185e-05
1.03813e-05
0
0
0
0
0
0
0
0
0
0
0
0
0
0
0
0
2.61517e-07
1.21942e-05
2.20107e-05
1.62026e-05
1.28003e-05
8.92817e-06
4.76905e-06
2.73519e-06
3.62595e-06
4.23036e-06
3.68866e-06
2.27657e-06
3.50034e-07
0
0
0
0
0
0
0
0
0
0
5.32592e-06
9.64606e-06
3.22189e-06
0
7.35187e-06
1.53297e-05
1.76336e-05
1.56654e-05
1.1959e-05
9.8845e-06
1.22286e-05
1.55775e-05
1.73008e-05
1.70798e-05
1.51286e-05
1.21359e-05
9.14772e-06
7.03787e-06
5.89075e-06
5.14372e-06
4.395e-06
3.60017e-06
2.82991e-06
2.13118e-06
1.52155e-06
1.0083e-06
5.88697e-07
2.44756e-07
0
0
0
0
0
0
0
0
0
0
0
0
0
0
0
0
0
0
0
0
0
0
0
0
6.52256e-06
3.67223e-06
0
0
0
0
0
2.77211e-05
1.24489e-05
0
0
0
0
0
0
0
0
0
0
0
0
0
0
0
0
0
6.05115e-06
1.12655e-05
9.25982e-06
6.27996e-06
3.34909e-06
2.3159e-06
3.74282e-06
4.90745e-06
5.08831e-06
4.28859e-06
2.64439e-06
3.96632e-07
0
0
0
0
0
0
0
0
0
0
0
0
0
4.50186e-06
1.04665e-05
1.36774e-05
1.35513e-05
1.12128e-05
9.07721e-06
1.07348e-05
1.48465e-05
1.80939e-05
1.94819e-05
1.88247e-05
1.64063e-05
1.30575e-05
9.92144e-06
7.88993e-06
6.95263e-06
6.42545e-06
5.85417e-06
5.18314e-06
4.48933e-06
3.83282e-06
3.24212e-06
2.72995e-06
2.29635e-06
1.92508e-06
1.58451e-06
1.23879e-06
8.64471e-07
4.65216e-07
7.39496e-08
0
0
0
0
0
0
0
0
0
0
0
0
0
0
0
0
0
0
0
5.99466e-06
3.77469e-06
0
0
0
0
0
9.01431e-06
1.34759e-05
0
0
0
0
0
0
0
0
0
0
0
0
0
0
0
0
0
1.7881e-06
2.9282e-06
2.31856e-06
1.54514e-06
2.40432e-06
3.97785e-06
5.32792e-06
6.1016e-06
6.08092e-06
5.08557e-06
3.12995e-06
4.72195e-07
0
0
0
0
0
0
0
0
0
0
0
0
1.74409e-07
5.17237e-06
8.69791e-06
9.95276e-06
9.17263e-06
7.88897e-06
9.28401e-06
1.35697e-05
1.78431e-05
2.06609e-05
2.14946e-05
2.02457e-05
1.73352e-05
1.36954e-05
1.05191e-05
8.67571e-06
8.01667e-06
7.73499e-06
7.34596e-06
6.79502e-06
6.16972e-06
5.54623e-06
4.96718e-06
4.45353e-06
4.00828e-06
3.61487e-06
3.24047e-06
2.84773e-06
2.4112e-06
1.93177e-06
1.44003e-06
9.85883e-07
6.19296e-07
3.70346e-07
2.38473e-07
2.01332e-07
2.33327e-07
3.0769e-07
3.78948e-07
3.71218e-07
1.87742e-07
0
0
0
0
0
0
0
0
0
5.51333e-06
3.86905e-06
0
0
0
0
0
0
1.26946e-05
0
0
0
0
0
0
0
0
0
0
0
0
0
0
0
0
0
3.81921e-07
8.92234e-07
1.75381e-06
2.9072e-06
4.22573e-06
5.58297e-06
6.78386e-06
7.49872e-06
7.32883e-06
6.02663e-06
3.65743e-06
5.40683e-07
0
0
0
0
0
0
0
0
0
0
0
0
6.3859e-07
3.79123e-06
5.72326e-06
6.23133e-06
6.22492e-06
8.02677e-06
1.22464e-05
1.69938e-05
2.08317e-05
2.29958e-05
2.31164e-05
2.12426e-05
1.78993e-05
1.40729e-05
1.09796e-05
9.43332e-06
9.10462e-06
9.07635e-06
8.86102e-06
8.41806e-06
7.85034e-06
7.25217e-06
6.68174e-06
6.1682e-06
5.71577e-06
5.30562e-06
4.9021e-06
4.46551e-06
3.96814e-06
3.40749e-06
2.8111e-06
2.22969e-06
1.72111e-06
1.332e-06
1.08614e-06
9.83494e-07
1.00054e-06
1.08912e-06
1.18011e-06
1.18861e-06
1.02088e-06
5.83563e-07
0
0
0
0
0
0
0
0
5.03096e-06
3.88659e-06
0
0
0
0
0
0
8.93751e-06
0
0
0
0
0
0
0
0
0
0
0
0
0
0
0
0
0
7.10807e-07
1.65612e-06
2.77435e-06
4.0815e-06
5.58821e-06
7.1873e-06
8.54254e-06
9.17663e-06
8.69765e-06
6.96625e-06
4.14243e-06
5.75251e-07
0
0
0
0
0
0
0
0
0
0
0
0
3.90905e-07
2.18693e-06
3.41916e-06
4.62598e-06
7.08396e-06
1.11605e-05
1.59423e-05
2.03345e-05
2.34815e-05
2.48434e-05
2.42275e-05
2.17945e-05
1.8123e-05
1.42298e-05
1.13491e-05
1.01984e-05
1.02286e-05
1.04437e-05
1.03832e-05
1.00321e-05
9.51186e-06
8.93507e-06
8.37439e-06
7.86522e-06
7.41091e-06
6.98873e-06
6.55943e-06
6.08084e-06
5.52291e-06
4.88008e-06
4.17713e-06
3.46599e-06
2.81348e-06
2.28535e-06
1.9332e-06
1.78022e-06
1.80029e-06
1.9174e-06
2.03462e-06
2.05578e-06
1.89081e-06
1.45563e-06
6.75584e-07
0
0
0
0
0
0
0
4.58389e-06
3.83381e-06
0
0
0
0
0
0
8.60071e-07
0
0
0
0
0
0
0
0
0
0
0
0
0
0
0
0
0
1.03094e-06
2.26212e-06
3.70922e-06
5.43799e-06
7.38319e-06
9.24549e-06
1.05628e-05
1.08917e-05
9.96903e-06
7.77749e-06
4.53259e-06
5.73825e-07
0
0
0
0
0
0
0
0
0
0
0
0
1.82094e-07
1.74257e-06
3.66616e-06
6.45499e-06
1.03117e-05
1.48793e-05
1.9437e-05
2.31881e-05
2.551e-05
2.6071e-05
2.48056e-05
2.19295e-05
1.80486e-05
1.42133e-05
1.16769e-05
1.09995e-05
1.13902e-05
1.18234e-05
1.18931e-05
1.16172e-05
1.11369e-05
1.05816e-05
1.00353e-05
9.53648e-06
9.08572e-06
8.65537e-06
8.20249e-06
7.68266e-06
7.06375e-06
6.33746e-06
5.52641e-06
4.68424e-06
3.88782e-06
3.22478e-06
2.77778e-06
2.59307e-06
2.63676e-06
2.80013e-06
2.95668e-06
2.99682e-06
2.83018e-06
2.38042e-06
1.58419e-06
3.99484e-07
0
0
0
0
0
0
4.1554e-06
3.68261e-06
0
0
0
0
0
0
0
0
0
0
0
0
0
0
0
0
0
0
0
0
0
0
0
7.96546e-08
1.45252e-06
3.10891e-06
5.09273e-06
7.33517e-06
9.5821e-06
1.14318e-05
1.24589e-05
1.23457e-05
1.09615e-05
8.36687e-06
4.7891e-06
5.40214e-07
0
0
0
0
0
0
0
0
0
0
0
0
1.48938e-07
2.61304e-06
5.62389e-06
9.35787e-06
1.36967e-05
1.82068e-05
2.22617e-05
2.52579e-05
2.67876e-05
2.66651e-05
2.48888e-05
2.16969e-05
1.77238e-05
1.4076e-05
1.20124e-05
1.18548e-05
1.25816e-05
1.31974e-05
1.33703e-05
1.31547e-05
1.27104e-05
1.218e-05
1.16547e-05
1.11731e-05
1.07309e-05
1.02954e-05
9.82044e-06
9.25982e-06
8.57954e-06
7.76881e-06
6.84851e-06
5.87486e-06
4.9365e-06
4.1457e-06
3.61847e-06
3.42206e-06
3.50829e-06
3.73224e-06
3.93913e-06
4.00742e-06
3.84432e-06
3.37439e-06
2.54053e-06
1.31421e-06
0
0
0
0
0
0
3.74973e-06
3.44479e-06
0
0
0
0
0
0
0
0
0
0
0
0
0
0
0
0
0
0
0
0
0
0
0
2.93074e-07
2.18238e-06
4.40107e-06
6.87413e-06
9.39577e-06
1.16383e-05
1.32291e-05
1.38499e-05
1.33065e-05
1.15528e-05
8.67726e-06
4.89053e-06
4.74638e-07
0
0
0
0
0
0
0
0
0
0
0
0
2.4251e-07
3.77004e-06
7.68636e-06
1.19901e-05
1.6459e-05
2.06751e-05
2.41433e-05
2.64448e-05
2.73267e-05
2.66853e-05
2.45419e-05
2.11514e-05
1.72001e-05
1.3877e-05
1.24006e-05
1.27698e-05
1.37873e-05
1.45449e-05
1.47949e-05
1.46276e-05
1.42185e-05
1.37189e-05
1.32226e-05
1.27647e-05
1.23354e-05
1.18971e-05
1.14011e-05
1.07999e-05
1.0058e-05
9.1624e-06
8.13265e-06
7.02877e-06
5.95319e-06
5.04549e-06
4.45634e-06
4.26986e-06
4.41618e-06
4.71152e-06
4.97507e-06
5.07674e-06
4.9237e-06
4.44042e-06
3.56911e-06
2.28866e-06
6.33251e-07
0
0
0
0
0
3.39411e-06
3.21196e-06
0
0
0
0
0
0
0
0
0
0
0
0
0
0
0
0
0
0
0
0
0
0
0
6.24367e-07
3.04806e-06
5.7042e-06
8.4251e-06
1.09572e-05
1.29993e-05
1.42654e-05
1.45396e-05
1.37025e-05
1.17381e-05
8.72815e-06
4.85656e-06
3.82096e-07
0
0
0
0
0
0
0
0
0
0
0
0
3.97897e-07
4.73955e-06
9.2622e-06
1.38501e-05
1.82504e-05
2.21078e-05
2.50547e-05
2.68125e-05
2.72264e-05
2.6226e-05
2.38373e-05
2.03491e-05
1.65356e-05
1.36805e-05
1.28747e-05
1.37371e-05
1.49864e-05
1.5844e-05
1.61477e-05
1.60201e-05
1.56483e-05
1.51871e-05
1.47279e-05
1.43001e-05
1.38872e-05
1.34476e-05
1.2931e-05
1.22893e-05
1.14857e-05
1.05051e-05
9.36691e-06
8.13622e-06
6.93146e-06
5.92202e-06
5.29319e-06
5.13965e-06
5.3622e-06
5.737e-06
6.05973e-06
6.19388e-06
6.04867e-06
5.5513e-06
4.64349e-06
3.3048e-06
1.5805e-06
0
0
0
0
0
3.04375e-06
2.96147e-06
0
0
0
0
0
0
0
0
0
0
0
0
0
0
0
0
0
0
0
0
0
0
0
1.01084e-06
3.73133e-06
6.5524e-06
9.27811e-06
1.16737e-05
1.34969e-05
1.45321e-05
1.4617e-05
1.36557e-05
1.16292e-05
8.60151e-06
4.7335e-06
2.71783e-07
0
0
0
0
0
0
0
0
0
0
0
0
5.23834e-07
5.33039e-06
1.01561e-05
1.48165e-05
1.90577e-05
2.25861e-05
2.51344e-05
2.65177e-05
2.66263e-05
2.53903e-05
2.28456e-05
1.93484e-05
1.57961e-05
1.35502e-05
1.34506e-05
1.47384e-05
1.61544e-05
1.70723e-05
1.74101e-05
1.73172e-05
1.69872e-05
1.6573e-05
1.6159e-05
1.57664e-05
1.53725e-05
1.49325e-05
1.43955e-05
1.3713e-05
1.28475e-05
1.17825e-05
1.05383e-05
9.18681e-06
7.86494e-06
6.77386e-06
6.13152e-06
6.03468e-06
6.34784e-06
6.80829e-06
7.192e-06
7.35806e-06
7.21835e-06
6.70447e-06
5.761e-06
4.36783e-06
2.57491e-06
5.20629e-07
0
0
0
0
2.77453e-06
2.8295e-06
0
0
0
0
0
0
0
0
0
0
0
0
0
0
0
0
0
0
0
0
0
0
0
1.35601e-06
4.09836e-06
6.86504e-06
9.4713e-06
1.1713e-05
1.33862e-05
1.43068e-05
1.4328e-05
1.33537e-05
1.13527e-05
8.37268e-06
4.55837e-06
1.50722e-07
0
0
0
0
0
0
0
0
0
0
0
0
6.34958e-07
5.57528e-06
1.04466e-05
1.50275e-05
1.90713e-05
2.23323e-05
2.46075e-05
2.57553e-05
2.56691e-05
2.42704e-05
2.163e-05
1.82097e-05
1.50539e-05
1.35401e-05
1.4125e-05
1.57471e-05
1.72646e-05
1.82076e-05
1.85644e-05
1.85051e-05
1.82236e-05
1.78651e-05
1.75034e-05
1.715e-05
1.67764e-05
1.63361e-05
1.57781e-05
1.50543e-05
1.41268e-05
1.29788e-05
1.16327e-05
1.01697e-05
8.74742e-06
7.6001e-06
6.9738e-06
6.95669e-06
7.37151e-06
7.92017e-06
8.36346e-06
8.55804e-06
8.41843e-06
7.88037e-06
6.89278e-06
5.43849e-06
3.56963e-06
1.43229e-06
0
0
0
0
2.48174e-06
2.65286e-06
0
0
0
0
0
0
0
0
0
0
0
0
0
0
0
0
0
0
0
0
0
0
0
1.63076e-06
4.24991e-06
6.86774e-06
9.31675e-06
1.14147e-05
1.29782e-05
1.38366e-05
1.38469e-05
1.29073e-05
1.09737e-05
8.07824e-06
4.35003e-06
2.5605e-08
0
0
0
0
0
0
0
0
0
0
0
0
7.54898e-07
5.5955e-06
1.03337e-05
1.47379e-05
1.85731e-05
2.16226e-05
2.37106e-05
2.46995e-05
2.44661e-05
2.29347e-05
2.02448e-05
1.69975e-05
1.4386e-05
1.36857e-05
1.48767e-05
1.67311e-05
1.82895e-05
1.92284e-05
1.95947e-05
1.95713e-05
1.93464e-05
1.90516e-05
1.87475e-05
1.84356e-05
1.80825e-05
1.76409e-05
1.70607e-05
1.62947e-05
1.53052e-05
1.40766e-05
1.26352e-05
1.10738e-05
9.57337e-06
8.40087e-06
7.82299e-06
7.90725e-06
8.43181e-06
9.06929e-06
9.57074e-06
9.79253e-06
9.65205e-06
9.08874e-06
8.05594e-06
6.54104e-06
4.59899e-06
2.37986e-06
1.43856e-07
0
0
0
2.32456e-06
2.64461e-06
0
0
0
0
0
0
0
0
0
0
0
0
0
0
0
0
0
0
0
0
0
0
0
1.84153e-06
4.27681e-06
6.70611e-06
8.97895e-06
1.09311e-05
1.23944e-05
1.3208e-05
1.32305e-05
1.23531e-05
1.0517e-05
7.73524e-06
4.11986e-06
0
0
0
0
0
0
0
0
0
0
0
0
0
8.89881e-07
5.5091e-06
1.00193e-05
1.41962e-05
1.78179e-05
2.06813e-05
2.26134e-05
2.34604e-05
2.3082e-05
2.14288e-05
1.87415e-05
1.57857e-05
1.38675e-05
1.39966e-05
1.56707e-05
1.76554e-05
1.92024e-05
2.01156e-05
2.04873e-05
2.05052e-05
2.03447e-05
2.01203e-05
1.98769e-05
1.96065e-05
1.92724e-05
1.88274e-05
1.8223e-05
1.74135e-05
1.63626e-05
1.5057e-05
1.35296e-05
1.18875e-05
1.03369e-05
9.17542e-06
8.67936e-06
8.88302e-06
9.52035e-06
1.02427e-05
1.07968e-05
1.10404e-05
1.08934e-05
1.02981e-05
9.21091e-06
7.62329e-06
5.59351e-06
3.27525e-06
9.33838e-07
0
0
0
2.09966e-06
2.50726e-06
0
0
0
0
0
0
0
0
0
3.00492e-06
0
0
0
0
0
0
0
0
0
0
0
0
0
1.99392e-06
4.22165e-06
6.44436e-06
8.52918e-06
1.03298e-05
1.16937e-05
1.24698e-05
1.25187e-05
1.17236e-05
1.00087e-05
7.36488e-06
3.88347e-06
0
0
0
0
0
0
0
0
0
0
0
0
0
1.03971e-06
5.38308e-06
9.62182e-06
1.35459e-05
1.69457e-05
1.96231e-05
2.13952e-05
2.20859e-05
2.15492e-05
1.97896e-05
1.71796e-05
1.46598e-05
1.35591e-05
1.4452e-05
1.6462e-05
1.84843e-05
1.99781e-05
2.08523e-05
2.12309e-05
2.12971e-05
2.12082e-05
2.10579e-05
2.08754e-05
2.06443e-05
2.03257e-05
1.98737e-05
1.92421e-05
1.83876e-05
1.72763e-05
1.58997e-05
1.42993e-05
1.25994e-05
1.10329e-05
9.92317e-06
9.54227e-06
9.88014e-06
1.06307e-05
1.14338e-05
1.20379e-05
1.23039e-05
1.21536e-05
1.15311e-05
1.03954e-05
8.74041e-06
6.62795e-06
4.21572e-06
1.77379e-06
0
0
0
2.07878e-06
2.62801e-06
0
0
0
0
0
0
0
0
0
5.35109e-06
0
0
0
0
0
0
0
0
0
0
0
0
1.7738e-07
2.08621e-06
4.09118e-06
6.09552e-06
7.98445e-06
9.63002e-06
1.08954e-05
1.16405e-05
1.17281e-05
1.10336e-05
9.46255e-06
6.97983e-06
3.65145e-06
0
0
0
0
0
0
0
0
0
0
0
0
0
1.19981e-06
5.2385e-06
9.18263e-06
1.28385e-05
1.60066e-05
1.84877e-05
2.00822e-05
2.05942e-05
1.98908e-05
1.80602e-05
1.56337e-05
1.37112e-05
1.34879e-05
1.50045e-05
1.72007e-05
1.91832e-05
2.05949e-05
2.14254e-05
2.1816e-05
2.19381e-05
2.19254e-05
2.18496e-05
2.17247e-05
2.15276e-05
2.12187e-05
2.07544e-05
2.00915e-05
1.91903e-05
1.8021e-05
1.65816e-05
1.49254e-05
1.31958e-05
1.16525e-05
1.06371e-05
1.04012e-05
1.08819e-05
1.17407e-05
1.26154e-05
1.32617e-05
1.35445e-05
1.33867e-05
1.27324e-05
1.15403e-05
9.80509e-06
7.59054e-06
5.0591e-06
2.48756e-06
2.82103e-07
0
0
1.91857e-06
2.53453e-06
0
0
0
0
0
0
0
0
2.05317e-06
6.62357e-06
0
0
0
0
0
0
0
0
0
0
0
0
4.26268e-07
2.11663e-06
3.89458e-06
5.6783e-06
7.37063e-06
8.86167e-06
1.00309e-05
1.07498e-05
1.08856e-05
1.03073e-05
8.90105e-06
6.60141e-06
3.44262e-06
0
0
0
0
0
0
0
0
0
0
0
0
0
1.36336e-06
5.07863e-06
8.71369e-06
1.20907e-05
1.50176e-05
1.72886e-05
1.86845e-05
1.89986e-05
1.81352e-05
1.62973e-05
1.41931e-05
1.30172e-05
1.36341e-05
1.55882e-05
1.78365e-05
1.97212e-05
2.10349e-05
2.18243e-05
2.22352e-05
2.24191e-05
2.24837e-05
2.24783e-05
2.24035e-05
2.22315e-05
2.19236e-05
2.14394e-05
2.07404e-05
1.97912e-05
1.85683e-05
1.70783e-05
1.53884e-05
1.36631e-05
1.21864e-05
1.13074e-05
1.12418e-05
1.18709e-05
1.28336e-05
1.37758e-05
1.44646e-05
1.47708e-05
1.46175e-05
1.39469e-05
1.27156e-05
1.09163e-05
8.61351e-06
5.97406e-06
3.28496e-06
9.62563e-07
0
0
2.05834e-06
2.85244e-06
0
0
0
0
0
0
0
0
5.06901e-06
7.14451e-06
2.47201e-06
0
0
0
0
0
0
0
0
0
0
0
6.15465e-07
2.08609e-06
3.63748e-06
5.20204e-06
6.69945e-06
8.03736e-06
9.11187e-06
9.80795e-06
9.99963e-06
9.55224e-06
8.33327e-06
6.24205e-06
3.27118e-06
0
0
0
0
0
0
0
0
0
0
0
0
0
1.52163e-06
4.90195e-06
8.21873e-06
1.1309e-05
1.39848e-05
1.60299e-05
1.7207e-05
1.73133e-05
1.63191e-05
1.45714e-05
1.29522e-05
1.26157e-05
1.39338e-05
1.61299e-05
1.83231e-05
2.00725e-05
2.12846e-05
2.20411e-05
2.24806e-05
2.27292e-05
2.28669e-05
2.29223e-05
2.28852e-05
2.27252e-05
2.24061e-05
2.18924e-05
2.1151e-05
2.01531e-05
1.88833e-05
1.7359e-05
1.56627e-05
1.39798e-05
1.26131e-05
1.19064e-05
1.20263e-05
1.28011e-05
1.3858e-05
1.48582e-05
1.55832e-05
1.59098e-05
1.57603e-05
1.50725e-05
1.37972e-05
1.19216e-05
9.50878e-06
6.73078e-06
3.88834e-06
1.4158e-06
0
0
1.96902e-06
2.85954e-06
0
0
0
0
0
0
0
0
8.01251e-06
8.01585e-06
4.88095e-06
7.59372e-06
0
0
0
0
0
0
0
0
0
0
7.45581e-07
2.00028e-06
3.33055e-06
4.68203e-06
5.98982e-06
7.17825e-06
8.16019e-06
8.83561e-06
9.08881e-06
8.78572e-06
7.77774e-06
5.925e-06
3.16417e-06
0
0
0
0
0
0
0
0
0
0
0
0
0
1.66445e-06
4.70149e-06
7.69342e-06
1.04901e-05
1.29046e-05
1.47075e-05
1.56504e-05
1.55558e-05
1.44899e-05
1.2966e-05
1.19919e-05
1.24842e-05
1.42946e-05
1.65587e-05
1.86202e-05
2.02164e-05
2.13334e-05
2.20683e-05
2.25423e-05
2.28526e-05
2.30526e-05
2.31528e-05
2.31352e-05
2.29697e-05
2.26244e-05
2.20703e-05
2.12812e-05
2.0237e-05
1.89318e-05
1.73956e-05
1.57262e-05
1.41267e-05
1.29108e-05
1.24022e-05
1.27128e-05
1.36276e-05
1.47741e-05
1.58332e-05
1.66024e-05
1.69647e-05
1.68414e-05
1.61645e-05
1.48771e-05
1.29585e-05
1.04645e-05
7.57322e-06
4.60462e-06
2.01951e-06
3.94483e-07
3.77281e-07
2.29485e-06
3.46482e-06
0
0
0
0
0
0
0
2.40341e-06
1.0744e-05
9.10646e-06
2.2042e-06
1.7845e-05
0
0
0
0
0
0
0
0
0
0
8.08424e-07
1.85667e-06
2.97587e-06
4.12356e-06
5.24876e-06
6.29146e-06
7.18134e-06
7.83518e-06
8.15173e-06
8.00417e-06
7.23444e-06
5.66233e-06
3.14865e-06
0
0
0
0
0
0
0
0
0
0
0
0
0
1.77879e-06
4.46665e-06
7.12792e-06
9.62316e-06
1.17637e-05
1.33096e-05
1.40143e-05
1.37508e-05
1.27094e-05
1.15711e-05
1.13509e-05
1.25408e-05
1.46152e-05
1.68116e-05
1.86951e-05
2.01365e-05
2.11709e-05
2.18943e-05
2.2403e-05
2.27645e-05
2.30078e-05
2.31296e-05
2.31081e-05
2.29157e-05
2.25273e-05
2.19214e-05
2.10812e-05
1.99963e-05
1.86726e-05
1.71527e-05
1.55482e-05
1.40731e-05
1.30387e-05
1.27366e-05
1.3225e-05
1.42613e-05
1.54831e-05
1.65919e-05
1.7399e-05
1.77918e-05
1.76895e-05
1.70182e-05
1.57124e-05
1.37422e-05
1.11563e-05
8.13557e-06
5.02085e-06
2.30724e-06
5.89927e-07
4.85181e-07
2.29497e-06
3.6341e-06
0
0
0
0
0
0
0
6.78441e-06
1.32498e-05
1.04979e-05
5.04572e-06
1.37338e-05
3.9152e-07
0
0
0
0
0
0
0
0
6.77179e-08
8.25199e-07
1.67574e-06
2.59404e-06
3.54772e-06
4.498e-06
5.39903e-06
6.19663e-06
6.82533e-06
7.20226e-06
7.21611e-06
6.71148e-06
5.47518e-06
3.27047e-06
2.94097e-08
0
0
0
0
0
0
0
0
0
0
0
0
1.84983e-06
4.18103e-06
6.50327e-06
8.6858e-06
1.05391e-05
1.18206e-05
1.23042e-05
1.19384e-05
1.10564e-05
1.04647e-05
1.09981e-05
1.26646e-05
1.47989e-05
1.68344e-05
1.85196e-05
1.98157e-05
2.07811e-05
2.14973e-05
2.20321e-05
2.24248e-05
2.26849e-05
2.28003e-05
2.27491e-05
2.25098e-05
2.20651e-05
2.1403e-05
2.05164e-05
1.94058e-05
1.80893e-05
1.66217e-05
1.51236e-05
1.38097e-05
1.29741e-05
1.28674e-05
1.35063e-05
1.46408e-05
1.59279e-05
1.7088e-05
1.79405e-05
1.83741e-05
1.83056e-05
1.76567e-05
1.63564e-05
1.4367e-05
1.17353e-05
8.64639e-06
5.46183e-06
2.71073e-06
1.00242e-06
9.10542e-07
2.70905e-06
4.40582e-06
0
0
0
0
0
0
0
1.06195e-05
1.55075e-05
1.19434e-05
3.59632e-06
1.03461e-05
1.30608e-06
0
0
0
0
0
0
0
0
1.81139e-07
7.67766e-07
1.43787e-06
2.17226e-06
2.94702e-06
3.7337e-06
4.49889e-06
5.20342e-06
5.79994e-06
6.22752e-06
6.40026e-06
6.18581e-06
5.36576e-06
3.60035e-06
5.63972e-07
0
0
0
0
0
0
0
0
0
0
0
0
1.85471e-06
3.81884e-06
5.78929e-06
7.64496e-06
9.20183e-06
1.02289e-05
1.05401e-05
1.01787e-05
9.61683e-06
9.67537e-06
1.08269e-05
1.2721e-05
1.4759e-05
1.65791e-05
1.80639e-05
1.92285e-05
2.01337e-05
2.08386e-05
2.13817e-05
2.17783e-05
2.20239e-05
2.2103e-05
2.19979e-05
2.16955e-05
2.11882e-05
2.0474e-05
1.9556e-05
1.84461e-05
1.71739e-05
1.58034e-05
1.4457e-05
1.33362e-05
1.27022e-05
1.27617e-05
1.35084e-05
1.47063e-05
1.60378e-05
1.72358e-05
1.81189e-05
1.85697e-05
1.85007e-05
1.78325e-05
1.64947e-05
1.44535e-05
1.17591e-05
8.60473e-06
5.37359e-06
2.62121e-06
9.513e-07
8.61403e-07
2.54739e-06
4.36584e-06
0
0
0
0
0
0
0
1.4257e-05
1.7584e-05
1.30934e-05
3.03611e-06
9.00865e-06
2.2782e-06
4.21521e-07
0
0
0
0
0
0
0
2.67992e-07
6.92121e-07
1.19289e-06
1.75595e-06
2.36385e-06
2.99623e-06
3.62985e-06
4.23831e-06
4.79076e-06
5.24883e-06
5.55864e-06
5.6327e-06
5.30264e-06
4.18947e-06
1.54407e-06
0
0
0
0
0
0
0
0
0
0
0
2.68473e-07
1.76644e-06
3.34586e-06
4.94735e-06
6.4641e-06
7.7286e-06
8.53762e-06
8.76151e-06
8.54503e-06
8.45096e-06
9.14214e-06
1.06785e-05
1.25804e-05
1.44174e-05
1.59967e-05
1.72891e-05
1.83341e-05
1.91813e-05
1.98632e-05
2.03916e-05
2.07639e-05
2.09685e-05
2.09914e-05
2.08227e-05
2.0459e-05
1.99026e-05
1.91606e-05
1.82453e-05
1.71785e-05
1.59992e-05
1.47765e-05
1.36261e-05
1.27233e-05
1.22852e-05
1.24798e-05
1.33012e-05
1.45483e-05
1.59342e-05
1.71975e-05
1.81456e-05
1.86477e-05
1.86098e-05
1.79537e-05
1.66147e-05
1.45664e-05
1.18654e-05
8.71452e-06
5.51305e-06
2.83041e-06
1.25208e-06
1.19568e-06
2.79817e-06
4.8487e-06
0
0
0
0
0
0
2.45197e-06
1.77447e-05
1.89277e-05
1.32264e-05
2.29266e-06
8.61026e-06
2.98495e-06
1.12211e-06
5.10232e-07
2.27643e-07
3.47916e-08
0
0
0
3.56172e-08
2.436e-07
5.29515e-07
8.85268e-07
1.30018e-06
1.76167e-06
2.25559e-06
2.76651e-06
3.27811e-06
3.77318e-06
4.23337e-06
4.63808e-06
4.95814e-06
5.14977e-06
5.02462e-06
3.53057e-06
0
0
0
0
0
0
0
0
0
0
0
4.45562e-07
1.5422e-06
2.7232e-06
3.94518e-06
5.12237e-06
6.11669e-06
6.76882e-06
7.01685e-06
7.092e-06
7.53921e-06
8.71133e-06
1.03799e-05
1.21263e-05
1.37007e-05
1.50335e-05
1.61467e-05
1.70832e-05
1.78727e-05
1.85198e-05
1.90129e-05
1.93375e-05
1.94807e-05
1.94356e-05
1.92033e-05
1.87921e-05
1.82148e-05
1.74868e-05
1.66278e-05
1.56665e-05
1.46474e-05
1.36388e-05
1.27404e-05
1.20907e-05
1.18583e-05
1.21831e-05
1.30799e-05
1.43948e-05
1.58665e-05
1.72232e-05
1.82427e-05
1.87679e-05
1.86931e-05
1.79459e-05
1.64791e-05
1.42846e-05
1.14381e-05
8.15704e-06
4.85006e-06
2.09023e-06
4.43076e-07
2.61474e-07
1.63763e-06
3.68614e-06
0
0
0
0
0
0
1.04862e-05
2.01004e-05
1.81146e-05
1.10357e-05
2.40235e-06
8.05647e-06
3.82094e-06
1.93835e-06
1.25502e-06
8.82926e-07
5.93132e-07
3.69171e-07
2.16574e-07
1.42038e-07
1.48207e-07
2.32889e-07
3.90857e-07
6.15081e-07
8.97002e-07
1.22691e-06
1.59454e-06
1.98966e-06
2.40268e-06
2.82546e-06
3.25275e-06
3.68716e-06
4.13925e-06
4.67683e-06
5.45153e-06
5.91195e-06
0
0
0
0
0
0
0
0
0
0
0
4.80445e-07
1.1859e-06
1.97665e-06
2.82685e-06
3.67729e-06
4.43093e-06