/*--------------------------------*- C++ -*----------------------------------*\
  =========                 |
  \\      /  F ield         | OpenFOAM: The Open Source CFD Toolbox
   \\    /   O peration     | Website:  https://openfoam.org
    \\  /    A nd           | Version:  10
     \\/     M anipulation  |
\*---------------------------------------------------------------------------*/
FoamFile
{
    format      ascii;
    class       surfaceScalarField;
    location    "0.085";
    object      phi;
}
// * * * * * * * * * * * * * * * * * * * * * * * * * * * * * * * * * * * * * //

dimensions      [0 3 -1 0 0 0 0];

internalField   nonuniform List<scalar> 
13452
(
5.94497e-05
8.18812e-07
5.84608e-05
9.88841e-07
5.74261e-05
1.03471e-06
5.6358e-05
1.06809e-06
5.52847e-05
1.07326e-06
5.42176e-05
1.0671e-06
5.316e-05
1.05763e-06
5.21135e-05
1.04651e-06
5.10786e-05
1.0349e-06
5.00549e-05
1.02371e-06
4.90413e-05
1.01356e-06
4.80364e-05
1.00498e-06
4.70378e-05
9.98563e-07
4.60429e-05
9.94936e-07
4.5048e-05
9.94851e-07
4.40488e-05
9.99202e-07
4.30397e-05
1.00908e-06
4.20139e-05
1.02579e-06
4.0963e-05
1.05096e-06
3.98765e-05
1.0865e-06
3.87417e-05
1.13477e-06
3.75432e-05
1.1985e-06
3.62623e-05
1.28086e-06
3.4877e-05
1.38536e-06
3.33614e-05
1.51562e-06
3.16864e-05
1.67493e-06
2.98209e-05
1.86548e-06
2.77333e-05
2.08763e-06
2.53972e-05
2.33611e-06
2.27909e-05
2.6063e-06
1.99297e-05
2.86123e-06
1.68077e-05
3.12197e-06
3.18224e-06
1.36255e-05
6.24905e-05
3.18605e-07
6.29657e-05
5.13709e-07
6.34117e-05
5.88686e-07
6.3819e-05
6.60819e-07
6.41797e-05
7.12498e-07
6.44934e-05
7.53465e-07
6.4761e-05
7.90042e-07
6.49844e-05
8.23066e-07
6.51659e-05
8.53434e-07
6.53074e-05
8.82182e-07
6.54108e-05
9.10156e-07
6.54776e-05
9.38175e-07
6.5509e-05
9.67147e-07
6.55059e-05
9.98099e-07
6.54685e-05
1.03223e-06
6.53967e-05
1.07096e-06
6.52898e-05
1.11604e-06
6.5146e-05
1.16959e-06
6.49627e-05
1.2342e-06
6.47361e-05
1.31308e-06
6.44607e-05
1.41017e-06
6.41289e-05
1.53031e-06
6.37305e-05
1.6793e-06
6.32518e-05
1.86407e-06
6.26748e-05
2.09257e-06
6.19763e-05
2.37348e-06
6.11263e-05
2.7155e-06
6.00877e-05
3.12618e-06
5.88151e-05
3.60877e-06
5.72589e-05
4.16249e-06
5.53548e-05
4.76532e-06
5.30697e-05
5.40703e-06
5.98833e-06
5.02636e-05
6.38333e-05
2.46705e-07
6.39058e-05
4.41252e-07
6.39699e-05
5.24572e-07
6.40351e-05
5.95556e-07
6.41009e-05
6.46766e-07
6.41692e-05
6.85143e-07
6.42411e-05
7.1816e-07
6.43165e-05
7.47684e-07
6.4395e-05
7.74936e-07
6.44759e-05
8.0119e-07
6.45586e-05
8.27453e-07
6.46422e-05
8.54626e-07
6.47257e-05
8.83645e-07
6.48083e-05
9.15538e-07
6.4889e-05
9.51469e-07
6.49672e-05
9.9281e-07
6.5042e-05
1.04121e-06
6.51129e-05
1.09866e-06
6.51795e-05
1.16761e-06
6.52415e-05
1.25107e-06
6.5299e-05
1.35272e-06
6.53522e-05
1.47708e-06
6.54018e-05
1.62966e-06
6.54488e-05
1.81707e-06
6.54943e-05
2.04714e-06
6.55389e-05
2.32888e-06
6.55821e-05
2.67225e-06
6.56207e-05
3.08756e-06
6.56454e-05
3.58409e-06
6.56387e-05
4.16921e-06
6.55609e-05
4.84315e-06
6.5364e-05
5.60388e-06
6.43529e-06
6.4917e-05
6.56394e-05
1.90426e-07
6.5688e-05
3.9264e-07
6.57186e-05
4.93963e-07
6.57397e-05
5.74388e-07
6.57523e-05
6.34165e-07
6.57583e-05
6.79223e-07
6.57589e-05
7.17514e-07
6.57549e-05
7.51657e-07
6.57468e-05
7.83073e-07
6.57348e-05
8.13212e-07
6.5719e-05
8.43256e-07
6.56994e-05
8.74236e-07
6.56758e-05
9.07201e-07
6.56481e-05
9.43269e-07
6.56159e-05
9.83683e-07
6.55788e-05
1.02986e-06
6.55365e-05
1.08347e-06
6.54887e-05
1.14648e-06
6.54351e-05
1.22123e-06
6.53757e-05
1.31051e-06
6.53107e-05
1.41766e-06
6.52412e-05
1.5466e-06
6.51689e-05
1.70197e-06
6.50968e-05
1.88911e-06
6.50299e-05
2.11406e-06
6.49754e-05
2.38346e-06
6.49433e-05
2.70426e-06
6.49476e-05
3.08335e-06
6.50045e-05
3.52717e-06
6.51322e-05
4.04149e-06
6.53452e-05
4.63018e-06
6.56507e-05
5.29833e-06
6.05003e-06
6.6036e-05
6.74892e-05
1.57963e-07
6.75267e-05
3.55171e-07
6.75553e-05
4.65351e-07
6.7579e-05
5.50696e-07
6.75963e-05
6.16916e-07
6.76069e-05
6.68568e-07
6.76117e-05
7.12776e-07
6.76108e-05
7.52537e-07
6.76044e-05
7.89439e-07
6.75926e-05
8.25049e-07
6.75751e-05
8.60686e-07
6.75519e-05
8.97496e-07
6.75225e-05
9.36626e-07
6.74864e-05
9.79283e-07
6.74433e-05
1.02679e-06
6.73926e-05
1.08064e-06
6.73335e-05
1.14256e-06
6.72654e-05
1.21453e-06
6.71878e-05
1.29889e-06
6.70999e-05
1.39836e-06
6.70015e-05
1.51612e-06
6.68923e-05
1.65581e-06
6.67726e-05
1.82158e-06
6.66437e-05
2.01805e-06
6.65076e-05
2.25018e-06
6.63679e-05
2.52315e-06
6.62302e-05
2.84197e-06
6.61022e-05
3.21129e-06
6.59949e-05
3.6345e-06
6.59225e-05
4.11389e-06
6.59027e-05
4.65005e-06
6.59552e-05
5.24574e-06
5.89904e-06
6.61062e-05
6.94104e-05
1.31575e-07
6.94455e-05
3.20084e-07
6.9473e-05
4.37889e-07
6.94945e-05
5.29142e-07
6.95097e-05
6.01735e-07
6.95187e-05
6.59593e-07
6.95223e-05
7.09183e-07
6.95209e-05
7.53911e-07
6.95147e-05
7.95647e-07
6.95037e-05
8.36084e-07
6.94877e-05
8.76667e-07
6.94665e-05
9.18654e-07
6.94399e-05
9.63278e-07
6.94073e-05
1.01182e-06
6.93684e-05
1.06568e-06
6.93227e-05
1.12637e-06
6.92696e-05
1.19566e-06
6.92086e-05
1.27553e-06
6.91392e-05
1.36827e-06
6.90611e-05
1.4765e-06
6.8974e-05
1.60324e-06
6.88779e-05
1.75184e-06
6.87735e-05
1.92604e-06
6.86616e-05
2.1299e-06
6.85442e-05
2.36763e-06
6.84239e-05
2.64346e-06
6.83046e-05
2.96128e-06
6.81914e-05
3.32444e-06
6.80906e-05
3.73529e-06
6.80095e-05
4.19504e-06
6.79562e-05
4.70328e-06
6.79411e-05
5.26091e-06
5.86344e-06
6.79767e-05
7.13837e-05
1.14197e-07
7.141e-05
2.9376e-07
7.14322e-05
4.15717e-07
7.14507e-05
5.10618e-07
7.14649e-05
5.87561e-07
7.14741e-05
6.50365e-07
7.14786e-05
7.04677e-07
7.14785e-05
7.54052e-07
7.14737e-05
8.00429e-07
7.14642e-05
8.45553e-07
7.145e-05
8.90939e-07
7.14307e-05
9.37917e-07
7.14062e-05
9.87775e-07
7.13762e-05
1.04184e-06
7.13403e-05
1.10153e-06
7.12983e-05
1.1684e-06
7.12498e-05
1.24418e-06
7.11945e-05
1.33082e-06
7.11323e-05
1.4305e-06
7.10631e-05
1.5457e-06
7.09871e-05
1.67916e-06
7.0905e-05
1.83392e-06
7.08179e-05
2.01324e-06
7.07272e-05
2.22055e-06
7.06355e-05
2.45931e-06
7.05461e-05
2.73284e-06
7.04634e-05
3.04407e-06
7.03925e-05
3.39534e-06
7.03397e-05
3.78806e-06
7.0312e-05
4.22276e-06
7.03166e-05
4.69865e-06
7.03619e-05
5.21566e-06
5.76882e-06
7.04565e-05
7.34182e-05
1.01263e-07
7.34409e-05
2.71056e-07
7.34619e-05
3.94757e-07
7.34797e-05
4.92759e-07
7.34934e-05
5.73843e-07
7.35023e-05
6.41527e-07
7.35064e-05
7.00582e-07
7.3506e-05
7.54475e-07
7.3501e-05
8.05366e-07
7.34916e-05
8.54992e-07
7.34776e-05
9.04927e-07
7.34589e-05
9.56569e-07
7.34355e-05
1.01126e-06
7.34069e-05
1.07036e-06
7.33732e-05
1.13529e-06
7.3334e-05
1.20761e-06
7.32892e-05
1.28899e-06
7.32387e-05
1.38129e-06
7.31826e-05
1.48657e-06
7.31212e-05
1.6071e-06
7.30551e-05
1.74534e-06
7.29851e-05
1.90392e-06
7.29127e-05
2.08561e-06
7.284e-05
2.29321e-06
7.27699e-05
2.52941e-06
7.27061e-05
2.79665e-06
7.26533e-05
3.09693e-06
7.2617e-05
3.43157e-06
7.2604e-05
3.80107e-06
7.26217e-05
4.20505e-06
7.26784e-05
4.64199e-06
7.27835e-05
5.11056e-06
5.60481e-06
7.29475e-05
7.55118e-05
9.193e-08
7.55298e-05
2.53074e-07
7.55472e-05
3.77335e-07
7.55623e-05
4.77651e-07
7.55743e-05
5.61871e-07
7.55824e-05
6.33448e-07
7.55864e-05
6.96586e-07
7.55863e-05
7.54524e-07
7.55822e-05
8.09449e-07
7.5574e-05
8.6317e-07
7.55617e-05
9.17285e-07
7.5545e-05
9.73217e-07
7.5524e-05
1.03232e-06
7.54984e-05
1.09596e-06
7.54681e-05
1.16556e-06
7.54331e-05
1.2426e-06
7.53934e-05
1.32869e-06
7.53491e-05
1.42559e-06
7.53005e-05
1.53516e-06
7.52482e-05
1.65945e-06
7.51929e-05
1.8006e-06
7.5136e-05
1.96084e-06
7.50792e-05
2.14243e-06
7.50248e-05
2.34754e-06
7.49761e-05
2.57816e-06
7.49368e-05
2.83592e-06
7.49118e-05
3.12195e-06
7.49067e-05
3.43669e-06
7.4928e-05
3.77974e-06
7.49832e-05
4.14988e-06
7.50805e-05
4.54465e-06
7.52295e-05
4.96152e-06
5.39353e-06
7.54408e-05
7.76665e-05
8.49625e-08
7.76814e-05
2.38225e-07
7.7697e-05
3.61752e-07
7.77111e-05
4.63548e-07
7.77226e-05
5.5032e-07
7.77307e-05
6.2535e-07
7.77351e-05
6.92188e-07
7.77357e-05
7.53908e-07
7.77325e-05
8.12679e-07
7.77254e-05
8.70283e-07
7.77144e-05
9.28314e-07
7.76994e-05
9.88203e-07
7.76804e-05
1.0513e-06
7.76574e-05
1.11896e-06
7.76304e-05
1.19254e-06
7.75995e-05
1.2735e-06
7.75649e-05
1.36333e-06
7.75268e-05
1.46364e-06
7.74859e-05
1.57613e-06
7.74428e-05
1.70255e-06
7.73986e-05
1.84474e-06
7.7355e-05
2.0045e-06
7.73138e-05
2.18359e-06
7.72777e-05
2.38362e-06
7.725e-05
2.60589e-06
7.72346e-05
2.85131e-06
7.72363e-05
3.12026e-06
7.72606e-05
3.41239e-06
7.73138e-05
3.72655e-06
7.74029e-05
4.06074e-06
7.75358e-05
4.41176e-06
7.77213e-05
4.77606e-06
5.14621e-06
7.79686e-05
7.98836e-05
7.9668e-08
7.98957e-05
2.26116e-07
7.99091e-05
3.48372e-07
7.99215e-05
4.51186e-07
7.99318e-05
5.40016e-07
7.99392e-05
6.17912e-07
7.99434e-05
6.87972e-07
7.99443e-05
7.53005e-07
7.99419e-05
8.15149e-07
7.9936e-05
8.76161e-07
7.99267e-05
9.37613e-07
7.9914e-05
1.00092e-06
7.98978e-05
1.06743e-06
7.98783e-05
1.13845e-06
7.98556e-05
1.21529e-06
7.98298e-05
1.2993e-06
7.98012e-05
1.39187e-06
7.97705e-05
1.49442e-06
7.97381e-05
1.60845e-06
7.97052e-05
1.73544e-06
7.96731e-05
1.87689e-06
7.96434e-05
2.03419e-06
7.96184e-05
2.20863e-06
7.96007e-05
2.40127e-06
7.95938e-05
2.61281e-06
7.96016e-05
2.84353e-06
7.96287e-05
3.09314e-06
7.96804e-05
3.36065e-06
7.97627e-05
3.64428e-06
7.9882e-05
3.94143e-06
8.00455e-05
4.24832e-06
8.02608e-05
4.56073e-06
4.87124e-06
8.05358e-05
8.21646e-05
7.5546e-08
8.21746e-05
2.16085e-07
8.21864e-05
3.366e-07
8.21977e-05
4.39833e-07
8.22076e-05
5.30146e-07
8.22152e-05
6.10343e-07
8.222e-05
6.83134e-07
8.22219e-05
7.51083e-07
8.22208e-05
8.1624e-07
8.22167e-05
8.80307e-07
8.22095e-05
9.44806e-07
8.21993e-05
1.01112e-06
8.21862e-05
1.08055e-06
8.21703e-05
1.15433e-06
8.21519e-05
1.23371e-06
8.21313e-05
1.31993e-06
8.21089e-05
1.41423e-06
8.20855e-05
1.51787e-06
8.20618e-05
1.6321e-06
8.20391e-05
1.75816e-06
8.20188e-05
1.89717e-06
8.20028e-05
2.05018e-06
8.19934e-05
2.21801e-06
8.19935e-05
2.40123e-06
8.20062e-05
2.60002e-06
8.20357e-05
2.81412e-06
8.20861e-05
3.04268e-06
8.21626e-05
3.28421e-06
8.22704e-05
3.53643e-06
8.24155e-05
3.7963e-06
8.26041e-05
4.05976e-06
8.28427e-05
4.32218e-06
4.57651e-06
8.31374e-05
8.45111e-05
7.22494e-08
8.45195e-05
2.07684e-07
8.45298e-05
3.26249e-07
8.45401e-05
4.29512e-07
8.45494e-05
5.20904e-07
8.45568e-05
6.02946e-07
8.45619e-05
6.78028e-07
8.45645e-05
7.48463e-07
8.45646e-05
8.16186e-07
8.4562e-05
8.82831e-07
8.4557e-05
9.49862e-07
8.45495e-05
1.01861e-06
8.45397e-05
1.09031e-06
8.45279e-05
1.16615e-06
8.45144e-05
1.24726e-06
8.44995e-05
1.33477e-06
8.4484e-05
1.42977e-06
8.44685e-05
1.53333e-06
8.44541e-05
1.64649e-06
8.44421e-05
1.77017e-06
8.44341e-05
1.90521e-06
8.4432e-05
2.05229e-06
8.44382e-05
2.21182e-06
8.44555e-05
2.38394e-06
8.44871e-05
2.56839e-06
8.45368e-05
2.76446e-06
8.46086e-05
2.97086e-06
8.47071e-05
3.18572e-06
8.4837e-05
3.40644e-06
8.50036e-05
3.62972e-06
8.5212e-05
3.85139e-06
8.54674e-05
4.06674e-06
4.26934e-06
8.57746e-05
8.69249e-05
6.95363e-08
8.6932e-05
2.00516e-07
8.69413e-05
3.16994e-07
8.69509e-05
4.1989e-07
8.69599e-05
5.11906e-07
8.69676e-05
5.95285e-07
8.69735e-05
6.72157e-07
8.69773e-05
7.44602e-07
8.69791e-05
8.14427e-07
8.69787e-05
8.83184e-07
8.69763e-05
9.5226e-07
8.6972e-05
1.02292e-06
8.6966e-05
1.09632e-06
8.69586e-05
1.17355e-06
8.69502e-05
1.25564e-06
8.69414e-05
1.34359e-06
8.69329e-05
1.43833e-06
8.69255e-05
1.54073e-06
8.69203e-05
1.6516e-06
8.69189e-05
1.77162e-06
8.69228e-05
1.90133e-06
8.6934e-05
2.04105e-06
8.69549e-05
2.19088e-06
8.69883e-05
2.35057e-06
8.70372e-05
2.51951e-06
8.71051e-05
2.69661e-06
8.71956e-05
2.88029e-06
8.7313e-05
3.0684e-06
8.74612e-05
3.25818e-06
8.76447e-05
3.44626e-06
8.78675e-05
3.62852e-06
8.81339e-05
3.80041e-06
3.95626e-06
8.8447e-05
8.94078e-05
6.72312e-08
8.94141e-05
1.9426e-07
8.94225e-05
3.08576e-07
8.94316e-05
4.10792e-07
8.94405e-05
5.03051e-07
8.94484e-05
5.87339e-07
8.9455e-05
6.65553e-07
8.94601e-05
7.39559e-07
8.94635e-05
8.11023e-07
8.94652e-05
8.814e-07
8.94655e-05
9.5199e-07
8.94645e-05
1.02397e-06
8.94624e-05
1.09842e-06
8.94596e-05
1.17632e-06
8.94566e-05
1.2586e-06
8.94541e-05
1.34611e-06
8.94528e-05
1.43962e-06
8.94537e-05
1.53982e-06
8.94581e-05
1.64729e-06
8.94672e-05
1.76247e-06
8.94829e-05
1.88564e-06
8.95071e-05
2.01683e-06
8.95422e-05
2.15584e-06
8.95906e-05
2.30211e-06
8.96554e-05
2.45475e-06
8.97396e-05
2.61242e-06
8.98465e-05
2.77333e-06
8.99797e-05
2.9352e-06
9.01427e-05
3.09522e-06
9.03389e-05
3.25007e-06
9.05715e-05
3.39586e-06
9.08436e-05
3.52837e-06
3.64275e-06
9.11571e-05
9.19619e-05
6.52047e-08
9.19675e-05
1.88648e-07
9.19753e-05
3.00742e-07
9.19841e-05
4.01979e-07
9.19931e-05
4.94096e-07
9.20016e-05
5.78843e-07
9.20092e-05
6.57916e-07
9.20158e-05
7.32991e-07
9.20212e-05
8.05593e-07
9.20256e-05
8.77072e-07
9.20289e-05
9.48632e-07
9.20315e-05
1.02136e-06
9.20337e-05
1.09623e-06
9.20359e-05
1.17413e-06
9.20387e-05
1.25585e-06
9.20427e-05
1.34211e-06
9.20488e-05
1.43351e-06
9.2058e-05
1.53058e-06
9.20716e-05
1.63368e-06
9.2091e-05
1.74304e-06
9.2118e-05
1.85869e-06
9.21544e-05
1.98043e-06
9.22024e-05
2.1078e-06
9.22645e-05
2.24002e-06
9.23433e-05
2.37599e-06
9.24415e-05
2.5142e-06
9.25621e-05
2.65276e-06
9.27079e-05
2.78936e-06
9.28819e-05
2.92125e-06
9.30867e-05
3.04529e-06
9.33246e-05
3.15794e-06
9.35976e-05
3.25537e-06
3.33361e-06
9.39067e-05
9.4589e-05
6.3358e-08
9.45942e-05
1.83459e-07
9.46017e-05
2.93261e-07
9.46104e-05
3.93246e-07
9.46196e-05
4.84858e-07
9.46288e-05
5.69644e-07
9.46376e-05
6.49124e-07
9.46458e-05
7.24799e-07
9.46534e-05
7.98055e-07
9.46603e-05
8.70126e-07
9.46668e-05
9.42115e-07
9.46732e-05
1.01501e-06
9.46797e-05
1.08967e-06
9.4687e-05
1.16689e-06
9.46955e-05
1.24732e-06
9.47061e-05
1.33155e-06
9.47195e-05
1.42004e-06
9.4737e-05
1.51312e-06
9.47597e-05
1.611e-06
9.4789e-05
1.71369e-06
9.48267e-05
1.82103e-06
9.48745e-05
1.93262e-06
9.49345e-05
2.04781e-06
9.50088e-05
2.16567e-06
9.50999e-05
2.28494e-06
9.521e-05
2.40406e-06
9.53417e-05
2.52109e-06
9.54973e-05
2.63379e-06
9.5679e-05
2.73956e-06
9.58887e-05
2.83554e-06
9.61281e-05
2.91856e-06
9.63982e-05
2.98529e-06
3.03258e-06
9.66992e-05
9.72913e-05
6.16138e-08
9.72962e-05
1.78503e-07
9.73036e-05
2.85918e-07
9.73124e-05
3.84382e-07
9.73222e-05
4.7513e-07
9.73323e-05
5.59534e-07
9.73424e-05
6.3896e-07
9.73525e-05
7.1475e-07
9.73624e-05
7.88154e-07
9.73722e-05
8.60292e-07
9.73822e-05
9.3216e-07
9.73925e-05
1.00464e-06
9.74037e-05
1.07849e-06
9.74162e-05
1.15438e-06
9.74307e-05
1.23286e-06
9.74479e-05
1.31436e-06
9.74687e-05
1.39922e-06
9.74942e-05
1.4876e-06
9.75257e-05
1.57955e-06
9.75644e-05
1.67492e-06
9.76121e-05
1.7734e-06
9.76703e-05
1.87441e-06
9.77409e-05
1.97719e-06
9.78259e-05
2.08068e-06
9.79272e-05
2.18358e-06
9.8047e-05
2.28429e-06
9.81871e-05
2.38095e-06
9.83495e-05
2.47143e-06
9.85357e-05
2.55337e-06
9.8747e-05
2.62419e-06
9.89844e-05
2.68118e-06
9.92482e-05
2.72151e-06
2.7428e-06
9.9538e-05
0.000100071
5.99094e-08
0.000100076
1.73621e-07
0.000100083
2.78522e-07
0.000100092
3.75193e-07
0.000100103
4.64722e-07
0.000100114
5.48335e-07
0.000100126
6.27259e-07
0.000100138
7.02693e-07
0.00010015
7.75756e-07
0.000100163
8.47454e-07
0.000100176
9.18672e-07
0.000100191
9.90184e-07
0.000100207
1.06265e-06
0.000100224
1.13662e-06
0.000100245
1.21252e-06
0.000100268
1.29067e-06
0.000100296
1.37126e-06
0.00010033
1.45434e-06
0.000100369
1.53981e-06
0.000100417
1.62739e-06
0.000100474
1.71662e-06
0.000100541
1.80686e-06
0.000100621
1.89723e-06
0.000100715
1.98663e-06
0.000100825
2.07374e-06
0.000100952
2.15703e-06
0.000101099
2.23472e-06
0.000101265
2.30489e-06
0.000101453
2.36541e-06
0.000101663
2.41407e-06
0.000101896
2.4486e-06
0.000102151
2.46666e-06
2.46652e-06
0.000102427
0.00010293
5.81929e-08
0.000102935
1.68677e-07
0.000102942
2.70898e-07
0.000102952
3.65493e-07
0.000102963
4.53448e-07
0.000102976
5.35863e-07
0.000102989
6.13841e-07
0.000103003
6.8845e-07
0.000103019
7.60686e-07
0.000103035
8.3144e-07
0.000103052
9.0149e-07
0.00010307
9.71506e-07
0.000103091
1.04204e-06
0.000103114
1.11353e-06
0.00010314
1.18631e-06
0.00010317
1.26057e-06
0.000103205
1.33639e-06
0.000103246
1.4137e-06
0.000103293
1.49229e-06
0.000103349
1.57178e-06
0.000103414
1.65163e-06
0.00010349
1.73112e-06
0.000103578
1.80932e-06
0.000103679
1.88515e-06
0.000103796
1.95732e-06
0.000103928
2.02438e-06
0.000104078
2.08472e-06
0.000104247
2.13661e-06
0.000104434
2.17823e-06
0.00010464
2.20771e-06
0.000104865
2.22321e-06
0.000105109
2.22287e-06
2.20549e-06
0.00010537
0.00010587
5.64203e-08
0.000105876
1.63551e-07
0.000105884
2.62885e-07
0.000105894
3.5511e-07
0.000105906
4.41133e-07
0.00010592
5.21948e-07
0.000105936
5.98545e-07
0.000105952
6.71874e-07
0.00010597
7.42813e-07
0.000105989
8.12144e-07
0.00010601
8.8054e-07
0.000106033
9.48567e-07
0.000106059
1.01668e-06
0.000106087
1.08521e-06
0.000106119
1.15439e-06
0.000106155
1.22431e-06
0.000106196
1.29495e-06
0.000106244
1.36616e-06
0.000106299
1.43763e-06
0.000106362
1.50891e-06
0.000106434
1.5794e-06
0.000106517
1.64835e-06
0.000106611
1.71484e-06
0.000106718
1.77782e-06
0.00010684
1.83607e-06
0.000106976
1.88826e-06
0.000107127
1.93298e-06
0.000107295
1.96871e-06
0.00010748
1.99393e-06
0.00010768
2.00713e-06
0.000107897
2.00685e-06
0.000108128
1.99165e-06
1.96078e-06
0.000108373
0.000108895
5.45539e-08
0.000108901
1.5814e-07
0.000108909
2.54342e-07
0.00010892
3.43885e-07
0.000108934
4.27615e-07
0.000108949
5.06431e-07
0.000108967
5.81224e-07
0.000108986
6.52832e-07
0.000109007
7.22025e-07
0.000109029
7.89478e-07
0.000109054
8.55766e-07
0.000109081
9.21353e-07
0.000109111
9.86599e-07
0.000109145
1.05175e-06
0.000109182
1.11694e-06
0.000109224
1.18217e-06
0.000109272
1.24736e-06
0.000109326
1.31225e-06
0.000109387
1.3765e-06
0.000109456
1.43961e-06
0.000109535
1.50095e-06
0.000109623
1.55976e-06
0.000109723
1.61517e-06
0.000109835
1.66618e-06
0.000109959
1.71167e-06
0.000110097
1.75048e-06
0.000110248
1.78137e-06
0.000110414
1.80308e-06
0.000110594
1.81436e-06
0.000110787
1.81401e-06
0.000110993
1.80093e-06
0.00011121
1.77407e-06
1.73304e-06
0.000111438
0.000112006
5.25606e-08
0.000112012
1.52352e-07
0.000112021
2.45139e-07
0.000112034
3.3167e-07
0.000112049
4.12739e-07
0.000112066
4.89162e-07
0.000112085
5.61736e-07
0.000112107
6.312e-07
0.000112131
6.98219e-07
0.000112157
7.63369e-07
0.000112186
8.27129e-07
0.000112217
8.89874e-07
0.000112252
9.51874e-07
0.00011229
1.01329e-06
0.000112333
1.07418e-06
0.000112381
1.13449e-06
0.000112434
1.19404e-06
0.000112494
1.25255e-06
0.000112561
1.30962e-06
0.000112635
1.36474e-06
0.000112719
1.41728e-06
0.000112812
1.46651e-06
0.000112916
1.5116e-06
0.00011303
1.55163e-06
0.000113156
1.58564e-06
0.000113294
1.61261e-06
0.000113444
1.63149e-06
0.000113606
1.64126e-06
0.000113779
1.64093e-06
0.000113964
1.62959e-06
0.000114158
1.60645e-06
0.000114362
1.57078e-06
1.52249e-06
0.000114572
0.000115207
5.04116e-08
0.000115213
1.46106e-07
0.000115223
2.35161e-07
0.000115236
3.18336e-07
0.000115253
3.96375e-07
0.000115272
4.70021e-07
0.000115293
5.39982e-07
0.000115318
6.06903e-07
0.000115345
6.71354e-07
0.000115374
7.33816e-07
0.000115407
7.9468e-07
0.000115442
8.54236e-07
0.000115481
9.12675e-07
0.000115525
9.70087e-07
0.000115572
1.02646e-06
0.000115625
1.08168e-06
0.000115684
1.13554e-06
0.000115749
1.1877e-06
0.00011582
1.23776e-06
0.0001159
1.2852e-06
0.000115988
1.32942e-06
0.000116085
1.36973e-06
0.000116191
1.40537e-06
0.000116307
1.43554e-06
0.000116433
1.45939e-06
0.00011657
1.47607e-06
0.000116716
1.48473e-06
0.000116873
1.48456e-06
0.000117039
1.47481e-06
0.000117214
1.45482e-06
0.000117396
1.42405e-06
0.000117585
1.38205e-06
1.32896e-06
0.000117779
0.000118498
4.80802e-08
0.000118505
1.39328e-07
0.000118516
2.24299e-07
0.00011853
3.03752e-07
0.000118548
3.78385e-07
0.00011857
4.48869e-07
0.000118594
5.15831e-07
0.000118621
5.79828e-07
0.000118651
6.41339e-07
0.000118684
7.00761e-07
0.00011872
7.58402e-07
0.00011876
8.14475e-07
0.000118803
8.69101e-07
0.000118851
9.2231e-07
0.000118904
9.74035e-07
0.000118961
1.02412e-06
0.000119024
1.07232e-06
0.000119094
1.11829e-06
0.00011917
1.16162e-06
0.000119253
1.20181e-06
0.000119345
1.2383e-06
0.000119444
1.27044e-06
0.000119552
1.29759e-06
0.000119668
1.31904e-06
0.000119793
1.33409e-06
0.000119927
1.34203e-06
0.00012007
1.34219e-06
0.000120221
1.33396e-06
0.000120379
1.3168e-06
0.000120543
1.29027e-06
0.000120713
1.25405e-06
0.000120887
1.20789e-06
1.15211e-06
0.000121064
0.000121884
4.55443e-08
0.000121891
1.31956e-07
0.000121903
2.12467e-07
0.000121919
2.87828e-07
0.000121939
3.58687e-07
0.000121962
4.25648e-07
0.000121988
4.89258e-07
0.000122018
5.49989e-07
0.000122051
6.08238e-07
0.000122088
6.6432e-07
0.000122128
7.18467e-07
0.000122171
7.70826e-07
0.000122219
8.21457e-07
0.000122271
8.70338e-07
0.000122328
9.17362e-07
0.000122389
9.62342e-07
0.000122457
1.00501e-06
0.00012253
1.04504e-06
0.00012261
1.08201e-06
0.000122696
1.11545e-06
0.000122789
1.14486e-06
0.00012289
1.16968e-06
0.000122998
1.18933e-06
0.000123114
1.20323e-06
0.000123238
1.2108e-06
0.000123368
1.21149e-06
0.000123506
1.20478e-06
0.000123649
1.19024e-06
0.000123799
1.1675e-06
0.000123953
1.13629e-06
0.00012411
1.09649e-06
0.00012427
1.04799e-06
9.91222e-07
0.000124431
0.000125366
4.27775e-08
0.000125374
1.23916e-07
0.000125387
1.9955e-07
0.000125405
2.70419e-07
0.000125426
3.37118e-07
0.000125452
4.00185e-07
0.000125481
4.60091e-07
0.000125514
5.17229e-07
0.00012555
5.71917e-07
0.00012559
6.24395e-07
0.000125633
6.74827e-07
0.000125681
7.23299e-07
0.000125733
7.69821e-07
0.000125789
8.14328e-07
0.000125849
8.56682e-07
0.000125915
8.96678e-07
0.000125986
9.34046e-07
0.000126063
9.68452e-07
0.000126145
9.99514e-07
0.000126234
1.02681e-06
0.000126329
1.04988e-06
0.00012643
1.06825e-06
0.000126538
1.08143e-06
0.000126652
1.08894e-06
0.000126773
1.09033e-06
0.000126899
1.08518e-06
0.000127031
1.07312e-06
0.000127167
1.05386e-06
0.000127307
1.02718e-06
0.000127451
9.92964e-07
0.000127596
9.51203e-07
0.000127742
9.01946e-07
8.45668e-07
0.000127888
0.000128948
3.97679e-08
0.000128957
1.15172e-07
0.000128971
1.85515e-07
0.00012899
2.51512e-07
0.000129013
3.13702e-07
0.000129041
3.7255e-07
0.000129072
4.28451e-07
0.000129108
4.8172e-07
0.000129147
5.326e-07
0.00012919
5.81262e-07
0.000129237
6.27809e-07
0.000129288
6.72275e-07
0.000129344
7.14628e-07
0.000129403
7.5477e-07
0.000129467
7.92542e-07
0.000129536
8.2773e-07
0.00012961
8.60068e-07
0.00012969
8.89244e-07
0.000129774
9.14908e-07
0.000129864
9.36683e-07
0.00012996
9.54173e-07
0.000130061
9.66976e-07
0.000130168
9.74694e-07
0.00013028
9.76948e-07
0.000130397
9.73393e-07
0.000130518
9.63727e-07
0.000130644
9.47707e-07
0.000130772
9.25157e-07
0.000130904
8.95982e-07
0.000131036
8.60169e-07
0.00013117
8.17812e-07
0.000131303
7.69041e-07
7.1436e-07
0.000131434
0.000132632
3.64668e-08
0.000132642
1.05597e-07
0.000132657
1.70154e-07
0.000132678
2.30836e-07
0.000132704
2.88122e-07
0.000132734
3.42404e-07
0.000132768
3.94e-07
0.000132807
4.43147e-07
0.000132849
4.90011e-07
0.000132896
5.34701e-07
0.000132946
5.77259e-07
0.000133001
6.17674e-07
0.00013306
6.55879e-07
0.000133123
6.91749e-07
0.00013319
7.25112e-07
0.000133262
7.55754e-07
0.000133339
7.83422e-07
0.00013342
8.0783e-07
0.000133507
8.28664e-07
0.000133598
8.45598e-07
0.000133693
8.58294e-07
0.000133794
8.66424e-07
0.000133899
8.69672e-07
0.000134008
8.67752e-07
0.000134121
8.60414e-07
0.000134237
8.47458e-07
0.000134356
8.2874e-07
0.000134477
8.04185e-07
0.0001346
7.73786e-07
0.000134722
7.37618e-07
0.000134844
6.95842e-07
0.000134965
6.48657e-07
5.96571e-07
0.000135082
0.000136422
3.29072e-08
0.000136432
9.52529e-08
0.000136449
1.53599e-07
0.000136471
2.08606e-07
0.000136498
2.6067e-07
0.000136531
3.10101e-07
0.000136568
3.57137e-07
0.000136609
4.01939e-07
0.000136654
4.44605e-07
0.000136704
4.85181e-07
0.000136757
5.23663e-07
0.000136815
5.59997e-07
0.000136877
5.94087e-07
0.000136943
6.25795e-07
0.000137013
6.54944e-07
0.000137087
6.81326e-07
0.000137166
7.04704e-07
0.000137249
7.2482e-07
0.000137336
7.414e-07
0.000137428
7.54165e-07
0.000137523
7.62839e-07
0.000137622
7.67159e-07
0.000137725
7.66885e-07
0.000137831
7.61807e-07
0.00013794
7.5176e-07
0.000138051
7.36624e-07
0.000138163
7.16336e-07
0.000138276
6.90893e-07
0.00013839
6.60358e-07
0.000138503
6.24857e-07
0.000138614
5.84593e-07
0.000138723
5.39794e-07
4.90948e-07
0.000138828
0.00014032
2.89067e-08
0.000140331
8.37361e-08
0.00014035
1.35254e-07
0.000140374
1.84104e-07
0.000140404
2.30579e-07
0.000140439
2.74887e-07
0.000140479
3.17169e-07
0.000140524
3.57494e-07
0.000140573
3.95884e-07
0.000140625
4.32322e-07
0.000140682
4.66751e-07
0.000140743
4.99085e-07
0.000140808
5.29203e-07
0.000140877
5.56958e-07
0.00014095
5.82176e-07
0.000141026
6.04658e-07
0.000141107
6.24186e-07
0.000141191
6.40534e-07
0.000141279
6.53465e-07
0.000141371
6.62749e-07
0.000141465
6.68165e-07
0.000141563
6.69509e-07
0.000141663
6.66608e-07
0.000141766
6.59319e-07
0.00014187
6.47544e-07
0.000141975
6.3123e-07
0.000142081
6.10375e-07
0.000142187
5.85031e-07
0.000142292
5.55308e-07
0.000142396
5.2137e-07
0.000142497
4.83445e-07
0.000142595
4.41783e-07
3.96846e-07
0.000142689
0.000144329
2.47564e-08
0.000144341
7.15493e-08
0.00014436
1.15832e-07
0.000144386
1.58165e-07
0.000144418
1.98716e-07
0.000144455
2.376e-07
0.000144498
2.74864e-07
0.000144545
3.10498e-07
0.000144596
3.44455e-07
0.000144652
3.7666e-07
0.000144712
4.07012e-07
0.000144775
4.35391e-07
0.000144843
4.6166e-07
0.000144914
4.8566e-07
0.000144989
5.07219e-07
0.000145068
5.26151e-07
0.000145149
5.4226e-07
0.000145235
5.55348e-07
0.000145323
5.65218e-07
0.000145414
5.71683e-07
0.000145508
5.74569e-07
0.000145603
5.73727e-07
0.000145701
5.69034e-07
0.0001458
5.60406e-07
0.0001459
5.47794e-07
0.000146
5.31194e-07
0.000146099
5.10647e-07
0.000146198
4.86241e-07
0.000146295
4.58112e-07
0.00014639
4.26438e-07
0.000146482
3.91451e-07
0.000146571
3.5339e-07
3.12675e-07
0.000146655
0.000148453
1.95696e-08
0.000148468
5.7175e-08
0.00014849
9.35203e-08
0.000148519
1.28991e-07
0.000148554
1.63465e-07
0.000148595
1.96889e-07
0.000148641
2.29171e-07
0.000148691
2.6019e-07
0.000148746
2.89815e-07
0.000148804
3.17908e-07
0.000148867
3.44327e-07
0.000148934
3.6893e-07
0.000149004
3.91567e-07
0.000149077
4.1208e-07
0.000149154
4.30304e-07
0.000149234
4.46071e-07
0.000149317
4.59209e-07
0.000149403
4.69549e-07
0.000149491
4.76929e-07
0.000149582
4.81201e-07
0.000149674
4.82234e-07
0.000149768
4.79922e-07
0.000149863
4.7419e-07
0.000149958
4.64994e-07
0.000150054
4.52328e-07
0.000150149
4.36223e-07
0.000150243
4.16749e-07
0.000150335
3.94015e-07
0.000150425
3.68172e-07
0.000150512
3.39403e-07
0.000150595
3.07936e-07
0.000150675
2.74005e-07
2.37988e-07
0.000150749
0.000152694
1.49467e-08
0.000152708
4.26574e-08
0.000152731
7.04604e-08
0.000152762
9.84472e-08
0.000152799
1.26318e-07
0.000152842
1.53864e-07
0.00015289
1.80835e-07
0.000152944
2.07029e-07
0.000153001
2.32222e-07
0.000153063
2.56191e-07
0.000153128
2.78743e-07
0.000153198
2.99707e-07
0.00015327
3.18917e-07
0.000153346
3.36214e-07
0.000153425
3.51439e-07
0.000153507
3.64438e-07
0.000153591
3.7506e-07
0.000153677
3.83162e-07
0.000153766
3.88614e-07
0.000153855
3.913e-07
0.000153947
3.91128e-07
0.000154038
3.88027e-07
0.000154131
3.81957e-07
0.000154223
3.72905e-07
0.000154314
3.60891e-07
0.000154404
3.45968e-07
0.000154493
3.2822e-07
0.000154579
3.07763e-07
0.000154663
2.84747e-07
0.000154743
2.59343e-07
0.000154819
2.31755e-07
0.000154891
2.02181e-07
1.70946e-07
0.000154958
0.000157059
6.9356e-09
0.000157079
2.34098e-08
0.000157107
4.26414e-08
0.000157141
6.35674e-08
0.000157182
8.53156e-08
0.000157229
1.07452e-07
0.00015728
1.29475e-07
0.000157336
1.51103e-07
0.000157396
1.72049e-07
0.00015746
1.92047e-07
0.000157528
2.10883e-07
0.0001576
2.28371e-07
0.000157674
2.44343e-07
0.000157752
2.58647e-07
0.000157832
2.71133e-07
0.000157915
2.81666e-07
0.000158
2.9012e-07
0.000158087
2.96385e-07
0.000158175
3.00358e-07
0.000158264
3.01958e-07
0.000158354
3.01121e-07
0.000158444
2.97805e-07
0.000158534
2.91991e-07
0.000158624
2.83687e-07
0.000158712
2.72928e-07
0.000158798
2.59774e-07
0.000158882
2.44317e-07
0.000158963
2.2667e-07
0.00015904
2.06979e-07
0.000159114
1.85402e-07
0.000159184
1.62119e-07
0.000159249
1.37318e-07
1.11282e-07
0.000159309
0.000161544
1.26947e-09
0.000161564
3.71217e-09
0.000161593
1.31739e-08
0.000161631
2.58611e-08
0.000161676
4.07612e-08
0.000161726
5.69406e-08
0.000161782
7.38067e-08
0.000161842
9.0994e-08
0.000161906
1.07901e-07
0.000161974
1.24171e-07
0.000162045
1.39562e-07
0.00016212
1.53874e-07
0.000162197
1.66942e-07
0.000162277
1.78627e-07
0.000162359
1.88795e-07
0.000162444
1.97329e-07
0.00016253
2.04127e-07
0.000162617
2.09099e-07
0.000162705
2.12167e-07
0.000162794
2.13269e-07
0.000162883
2.1236e-07
0.000162971
2.09416e-07
0.000163059
2.04432e-07
0.000163145
1.97426e-07
0.000163229
1.88438e-07
0.000163312
1.77529e-07
0.000163391
1.64785e-07
0.000163468
1.50301e-07
0.00016354
1.34259e-07
0.000163609
1.16784e-07
0.000163673
9.79866e-08
0.000163732
7.80018e-08
5.70568e-08
0.000163787
0.000166168
-1.3132e-08
0.000166195
-2.29191e-08
0.000166229
-2.16943e-08
0.000166271
-1.55362e-08
0.000166317
-5.83932e-09
0.000166369
5.22896e-09
0.000166426
1.67939e-08
0.000166488
2.94367e-08
0.000166554
4.21451e-08
0.000166623
5.45878e-08
0.000166696
6.64565e-08
0.000166773
7.75394e-08
0.000166852
8.77221e-08
0.000166934
9.68403e-08
0.000167018
1.04775e-07
0.000167103
1.11447e-07
0.000167191
1.1678e-07
0.000167279
1.20701e-07
0.000167368
1.23151e-07
0.000167457
1.24085e-07
0.000167546
1.23474e-07
0.000167634
1.21305e-07
0.000167721
1.17581e-07
0.000167806
1.12325e-07
0.000167889
1.05576e-07
0.000167969
9.73912e-08
0.000168046
8.78577e-08
0.00016812
7.70526e-08
0.000168189
6.51072e-08
0.000168253
5.2098e-08
0.000168313
3.81448e-08
0.000168368
2.34493e-08
8.32647e-09
0.000168416
0.000170914
-2.6862e-08
0.00017095
-5.8861e-08
0.000170995
-6.66856e-08
0.000171047
-6.7743e-08
0.000171106
-6.39464e-08
0.000171168
-5.69113e-08
0.000171233
-4.83712e-08
0.000171301
-3.90128e-08
0.000171373
-2.9451e-08
0.000171448
-2.00577e-08
0.000171525
-1.1062e-08
0.000171605
-2.69835e-09