/*--------------------------------*- C++ -*----------------------------------*\
  =========                 |
  \\      /  F ield         | OpenFOAM: The Open Source CFD Toolbox
   \\    /   O peration     | Website:  https://openfoam.org
    \\  /    A nd           | Version:  10
     \\/     M anipulation  |
\*---------------------------------------------------------------------------*/
FoamFile
{
    format      ascii;
    class       volVectorField;
    location    "0.085";
    object      U;
}
// * * * * * * * * * * * * * * * * * * * * * * * * * * * * * * * * * * * * * //

dimensions      [0 1 -1 0 0 0 0];

internalField   nonuniform List<vector> 
6820
(
(7.28168 0.0249117 0)
(7.17745 0.0402789 0)
(7.05349 0.0453809 0)
(6.923 0.0482064 0)
(6.79243 0.0494667 0)
(6.66221 0.0498191 0)
(6.53282 0.049706 0)
(6.40476 0.0493205 0)
(6.27814 0.0487816 0)
(6.15291 0.0481728 0)
(6.029 0.0475512 0)
(5.90625 0.0469611 0)
(5.78443 0.0464425 0)
(5.66325 0.0460346 0)
(5.54231 0.0457792 0)
(5.42115 0.0457236 0)
(5.29917 0.0459232 0)
(5.17561 0.0464444 0)
(5.04956 0.0473674 0)
(4.9199 0.0487894 0)
(4.78522 0.0508269 0)
(4.64383 0.0536173 0)
(4.49366 0.0573176 0)
(4.33226 0.0620971 0)
(4.15672 0.0681207 0)
(3.96368 0.0755173 0)
(3.74944 0.0843159 0)
(3.51012 0.0943987 0)
(3.24187 0.10521 0)
(2.94234 0.116253 0)
(2.60754 0.124491 0)
(2.24892 0.131712 0)
(1.83907 0.121395 0)
(7.35927 0.0260303 0)
(7.42108 0.0361735 0)
(7.47609 0.0382587 0)
(7.52614 0.0406053 0)
(7.57175 0.0423875 0)
(7.61177 0.0439332 0)
(7.64609 0.0455215 0)
(7.67508 0.0471624 0)
(7.699 0.0488599 0)
(7.71807 0.0506314 0)
(7.73253 0.052494 0)
(7.74258 0.0544704 0)
(7.74838 0.0565941 0)
(7.75005 0.0589105 0)
(7.74767 0.06148 0)
(7.74125 0.0643818 0)
(7.73073 0.0677179 0)
(7.71598 0.0716194 0)
(7.69676 0.0762531 0)
(7.67268 0.0818305 0)
(7.64321 0.0886182 0)
(7.60759 0.0969488 0)
(7.56478 0.107232 0)
(7.51342 0.11996 0)
(7.45166 0.13571 0)
(7.37709 0.155119 0)
(7.28661 0.178835 0)
(7.17628 0.20744 0)
(7.04127 0.241157 0)
(6.87567 0.280076 0)
(6.67346 0.322088 0)
(6.42591 0.36755 0)
(6.13176 0.404341 0)
(7.33538 0.00708441 0)
(7.3453 0.0106099 0)
(7.35371 0.0135227 0)
(7.36068 0.0173004 0)
(7.3681 0.0205653 0)
(7.37586 0.0234897 0)
(7.38389 0.0263045 0)
(7.39235 0.0290229 0)
(7.40121 0.0316711 0)
(7.4104 0.0342981 0)
(7.41984 0.036951 0)
(7.42942 0.039679 0)
(7.43905 0.042539 0)
(7.44863 0.0455983 0)
(7.45804 0.0489377 0)
(7.4672 0.0526569 0)
(7.47602 0.0568806 0)
(7.48442 0.0617656 0)
(7.49234 0.0675108 0)
(7.49974 0.0743689 0)
(7.5066 0.0826609 0)
(7.51296 0.092793 0)
(7.51885 0.105276 0)
(7.52439 0.120746 0)
(7.52968 0.139976 0)
(7.53486 0.163888 0)
(7.53998 0.193524 0)
(7.54486 0.229996 0)
(7.54891 0.274322 0)
(7.55062 0.327283 0)
(7.54734 0.388733 0)
(7.53271 0.458191 0)
(7.50186 0.532273 0)
(7.33491 0.00950898 0)
(7.34217 0.0207605 0)
(7.34712 0.0266845 0)
(7.34961 0.0308421 0)
(7.35136 0.033746 0)
(7.35243 0.0359231 0)
(7.35277 0.0377968 0)
(7.35256 0.0395217 0)
(7.35187 0.0411895 0)
(7.35074 0.0428812 0)
(7.34919 0.0446591 0)
(7.34721 0.0465782 0)
(7.34481 0.0486961 0)
(7.34195 0.0510767 0)
(7.33861 0.0537955 0)
(7.33475 0.0569432 0)
(7.33032 0.0606315 0)
(7.3253 0.0649985 0)
(7.31964 0.0702159 0)
(7.31332 0.0764975 0)
(7.30635 0.0841099 0)
(7.2988 0.0933841 0)
(7.29082 0.104729 0)
(7.28265 0.118644 0)
(7.27472 0.135733 0)
(7.2677 0.156714 0)
(7.26253 0.182418 0)
(7.26055 0.213774 0)
(7.26346 0.251775 0)
(7.27324 0.297468 0)
(7.29186 0.351796 0)
(7.32074 0.4157 0)
(7.35978 0.490167 0)
(7.33397 0.0066631 0)
(7.33844 0.0135298 0)
(7.34247 0.016904 0)
(7.34518 0.0200425 0)
(7.34735 0.0229522 0)
(7.34891 0.0256185 0)
(7.34974 0.0282293 0)
(7.34993 0.0308312 0)
(7.34954 0.0334444 0)
(7.34856 0.036111 0)
(7.34697 0.0388754 0)
(7.34477 0.0417854 0)
(7.34192 0.0448977 0)
(7.33838 0.0482806 0)
(7.3341 0.0520161 0)
(7.32902 0.0562036 0)
(7.32307 0.0609645 0)
(7.31618 0.0664471 0)
(7.30828 0.072832 0)
(7.29931 0.0803395 0)
(7.2892 0.0892366 0)
(7.27792 0.0998438 0)
(7.26548 0.112542 0)
(7.25194 0.127777 0)
(7.23747 0.146056 0)
(7.22238 0.167945 0)
(7.20714 0.194043 0)
(7.19247 0.224962 0)
(7.17933 0.261273 0)
(7.16913 0.303509 0)
(7.16351 0.352108 0)
(7.16479 0.407745 0)
(7.17463 0.470967 0)
(7.33372 0.00568869 0)
(7.33744 0.0141067 0)
(7.34119 0.0200048 0)
(7.34374 0.024923 0)
(7.34561 0.02894 0)
(7.3469 0.0322266 0)
(7.34756 0.0351154 0)
(7.34766 0.0377972 0)
(7.34726 0.0403714 0)
(7.34636 0.0429305 0)
(7.34494 0.0455591 0)
(7.34298 0.0483345 0)
(7.34047 0.0513342 0)
(7.33735 0.0546418 0)
(7.3336 0.058351 0)
(7.32914 0.0625706 0)
(7.32394 0.0674282 0)
(7.31793 0.073076 0)
(7.31105 0.0796958 0)
(7.30327 0.0875046 0)
(7.29455 0.0967602 0)
(7.28488 0.107767 0)
(7.27427 0.120879 0)
(7.26282 0.136502 0)
(7.25066 0.155091 0)
(7.23802 0.177137 0)
(7.22526 0.20315 0)
(7.21283 0.233646 0)
(7.20135 0.26909 0)
(7.19154 0.309881 0)
(7.18416 0.356296 0)
(7.18031 0.408765 0)
(7.1808 0.46726 0)
(7.33343 0.0048505 0)
(7.33593 0.0122644 0)
(7.33876 0.0171551 0)
(7.34086 0.0210161 0)
(7.34249 0.0243175 0)
(7.34372 0.0272482 0)
(7.34443 0.030038 0)
(7.34465 0.0327833 0)
(7.3444 0.0355627 0)
(7.34367 0.0384457 0)
(7.34246 0.0414904 0)
(7.34074 0.0447542 0)
(7.3385 0.0483023 0)
(7.33571 0.0522104 0)
(7.33234 0.0565677 0)
(7.32835 0.0614792 0)
(7.32371 0.0670706 0)
(7.31839 0.0734922 0)
(7.31236 0.0809216 0)
(7.30561 0.0895692 0)
(7.29815 0.0996819 0)
(7.29002 0.111545 0)
(7.2813 0.125487 0)
(7.27212 0.141871 0)
(7.26269 0.161097 0)
(7.2533 0.183587 0)
(7.24434 0.209766 0)
(7.2363 0.240045 0)
(7.22977 0.274788 0)
(7.22546 0.314313 0)
(7.22405 0.358849 0)
(7.22645 0.408699 0)
(7.23322 0.463787 0)
(7.33329 0.00424457 0)
(7.3352 0.0114299 0)
(7.33766 0.0169415 0)
(7.33966 0.021667 0)
(7.34122 0.0258511 0)
(7.34236 0.0295545 0)
(7.34301 0.0329492 0)
(7.34319 0.0362102 0)
(7.34292 0.0394009 0)
(7.34221 0.0425996 0)
(7.34104 0.0458907 0)
(7.33942 0.0493565 0)
(7.33732 0.053081 0)
(7.33473 0.0571546 0)
(7.33163 0.0616778 0)
(7.32799 0.0667651 0)
(7.3238 0.0725482 0)
(7.31905 0.0791784 0)
(7.31373 0.086831 0)
(7.30785 0.095708 0)
(7.30147 0.106041 0)
(7.29465 0.118092 0)
(7.2875 0.132153 0)
(7.2802 0.148543 0)
(7.273 0.167603 0)
(7.26621 0.189681 0)
(7.26026 0.21512 0)
(7.25566 0.24424 0)
(7.25302 0.277321 0)
(7.25306 0.31459 0)
(7.25652 0.356195 0)
(7.26442 0.402322 0)
(7.27737 0.452787 0)
(7.33319 0.00381923 0)
(7.33458 0.0105921 0)
(7.33652 0.015929 0)
(7.33816 0.0203785 0)
(7.33947 0.0242553 0)
(7.34045 0.0277109 0)
(7.34105 0.0309443 0)
(7.34124 0.0340697 0)
(7.34104 0.0372069 0)
(7.34045 0.0404426 0)
(7.33946 0.0438536 0)
(7.33805 0.047513 0)
(7.33623 0.0514969 0)
(7.33397 0.0558894 0)
(7.33126 0.0607841 0)
(7.3281 0.0662878 0)
(7.32447 0.072523 0)
(7.32039 0.0796311 0)
(7.31587 0.087775 0)
(7.31096 0.0971408 0)
(7.30571 0.107938 0)
(7.30024 0.120399 0)
(7.29467 0.134779 0)
(7.28921 0.151348 0)
(7.28412 0.170386 0)
(7.27975 0.192168 0)
(7.2765 0.216955 0)
(7.27489 0.244976 0)
(7.2755 0.276409 0)
(7.27903 0.311376 0)
(7.28618 0.349914 0)
(7.29797 0.392056 0)
(7.31496 0.437467 0)
(7.33313 0.00349941 0)
(7.33418 0.00993635 0)
(7.33578 0.0153125 0)
(7.33726 0.0199858 0)
(7.33847 0.0242131 0)
(7.33941 0.0280949 0)
(7.34001 0.0317572 0)
(7.34025 0.0353332 0)
(7.34013 0.038897 0)
(7.33964 0.0425229 0)
(7.33879 0.0462878 0)
(7.33757 0.050269 0)
(7.33597 0.0545475 0)
(7.33399 0.0592116 0)
(7.33163 0.0643594 0)
(7.32889 0.0701006 0)
(7.3258 0.0765582 0)
(7.32236 0.0838708 0)
(7.31862 0.0921931 0)
(7.31463 0.101697 0)
(7.31049 0.112573 0)
(7.3063 0.125025 0)
(7.30225 0.139272 0)
(7.29854 0.155538 0)
(7.29545 0.174047 0)
(7.29331 0.195009 0)
(7.29254 0.218612 0)
(7.29363 0.245003 0)
(7.29712 0.274274 0)
(7.30366 0.306457 0)
(7.31391 0.341486 0)
(7.32878 0.379262 0)
(7.34876 0.41934 0)
(7.33309 0.00326052 0)
(7.33389 0.00939869 0)
(7.33518 0.0147011 0)
(7.33643 0.0193502 0)
(7.33748 0.023548 0)
(7.33831 0.0274019 0)
(7.33886 0.0310417 0)
(7.33909 0.0345842 0)
(7.33902 0.0381295 0)
(7.33864 0.0417651 0)
(7.33795 0.0455741 0)
(7.33694 0.0496371 0)
(7.33562 0.0540359 0)
(7.33398 0.058857 0)
(7.33204 0.0641939 0)
(7.32981 0.0701485 0)
(7.32731 0.076834 0)
(7.32458 0.084376 0)
(7.32166 0.0929134 0)
(7.31865 0.102598 0)
(7.31563 0.113594 0)
(7.31275 0.126075 0)
(7.31018 0.140218 0)
(7.30816 0.1562 0)
(7.30695 0.17419 0)
(7.30689 0.194337 0)
(7.30837 0.216755 0)
(7.31186 0.241518 0)
(7.31786 0.26864 0)
(7.32696 0.298065 0)
(7.33972 0.32964 0)
(7.35698 0.363156 0)
(7.37908 0.398103 0)
(7.33307 0.00307627 0)
(7.33369 0.0089545 0)
(7.33475 0.0141866 0)
(7.33584 0.0188749 0)
(7.3368 0.0231885 0)
(7.33759 0.0272279 0)
(7.33816 0.0310973 0)
(7.33847 0.0349022 0)
(7.3385 0.0387285 0)
(7.33827 0.0426517 0)
(7.33777 0.0467463 0)
(7.33699 0.0510866 0)
(7.33595 0.0557497 0)
(7.33466 0.0608178 0)
(7.33312 0.06638 0)
(7.33137 0.0725343 0)
(7.32944 0.0793876 0)
(7.32738 0.0870563 0)
(7.32526 0.0956659 0)
(7.32317 0.105351 0)
(7.32121 0.116251 0)
(7.31955 0.12851 0)
(7.31836 0.14227 0)
(7.31788 0.157666 0)
(7.31837 0.174817 0)
(7.32016 0.193816 0)
(7.32361 0.214721 0)
(7.32915 0.23754 0)
(7.33724 0.262222 0)
(7.34839 0.288645 0)
(7.3631 0.316589 0)
(7.38206 0.345769 0)
(7.40552 0.375649 0)
(7.33305 0.00293084 0)
(7.33354 0.00858556 0)
(7.33442 0.0137314 0)
(7.33537 0.0184113 0)
(7.33624 0.0227495 0)
(7.33697 0.0268325 0)
(7.33752 0.030752 0)
(7.33786 0.0346047 0)
(7.33798 0.0384766 0)
(7.33787 0.042447 0)
(7.33755 0.046593 0)
(7.337 0.0509919 0)
(7.33625 0.0557219 0)
(7.33531 0.0608642 0)
(7.3342 0.0665044 0)
(7.33296 0.0727335 0)
(7.33163 0.0796482 0)
(7.33027 0.0873516 0)
(7.32895 0.0959526 0)
(7.32777 0.105564 0)
(7.32687 0.1163 0)
(7.32638 0.128275 0)
(7.3265 0.141593 0)
(7.32746 0.156348 0)
(7.3295 0.172613 0)
(7.33294 0.19043 0)
(7.33811 0.209803 0)
(7.34539 0.230688 0)
(7.35518 0.252976 0)
(7.36793 0.276494 0)
(7.38404 0.300973 0)
(7.4041 0.326078 0)
(7.42822 0.351279 0)
(7.33304 0.00281284 0)
(7.33344 0.00827328 0)
(7.33418 0.0133281 0)
(7.33502 0.0179931 0)
(7.33582 0.022366 0)
(7.33653 0.0265274 0)
(7.33712 0.03056 0)
(7.33753 0.034551 0)
(7.33777 0.0385802 0)
(7.33783 0.0427204 0)
(7.33771 0.0470429 0)
(7.33743 0.0516179 0)
(7.33699 0.0565169 0)
(7.33642 0.0618138 0)
(7.33574 0.0675861 0)
(7.33501 0.0739155 0)
(7.33426 0.0808881 0)
(7.33357 0.0885937 0)
(7.33301 0.0971245 0)
(7.3327 0.106574 0)
(7.33277 0.117031 0)
(7.33336 0.128583 0)
(7.33466 0.141301 0)
(7.33689 0.155245 0)
(7.34029 0.170445 0)
(7.34513 0.186905 0)
(7.35173 0.204585 0)
(7.3604 0.223398 0)
(7.3715 0.243197 0)
(7.38539 0.263771 0)
(7.40241 0.284828 0)
(7.423 0.306009 0)
(7.44721 0.326811 0)
(7.33303 0.00271412 0)
(7.33336 0.00800388 0)
(7.334 0.0129648 0)
(7.33476 0.0175985 0)
(7.33551 0.0219786 0)
(7.33621 0.0261739 0)
(7.33681 0.0302564 0)
(7.3373 0.034303 0)
(7.33764 0.0383879 0)
(7.33786 0.042581 0)
(7.33794 0.0469509 0)
(7.3379 0.051566 0)
(7.33777 0.0564952 0)
(7.33756 0.0618088 0)
(7.33731 0.0675788 0)
(7.33708 0.0738791 0)
(7.3369 0.0807853 0)
(7.33687 0.088374 0)
(7.33706 0.096721 0)
(7.33758 0.105899 0)
(7.33856 0.115976 0)
(7.34015 0.12701 0)
(7.34253 0.139045 0)
(7.34589 0.152104 0)
(7.35047 0.166187 0)
(7.35651 0.18126 0)
(7.36427 0.197248 0)
(7.37403 0.214031 0)
(7.38609 0.231435 0)
(7.40075 0.249227 0)
(7.41823 0.267104 0)
(7.4389 0.284701 0)
(7.46273 0.301561 0)
(7.33303 0.00262879 0)
(7.33331 0.00776544 0)
(7.33387 0.0126304 0)
(7.33457 0.0172214 0)
(7.33529 0.0215959 0)
(7.336 0.0258156 0)
(7.33665 0.0299455 0)
(7.33722 0.034056 0)
(7.3377 0.0382156 0)
(7.33809 0.0424896 0)
(7.33839 0.0469416 0)
(7.33862 0.0516343 0)
(7.33881 0.0566299 0)
(7.33897 0.0619908 0)
(7.33916 0.0677802 0)
(7.33941 0.0740613 0)
(7.3398 0.0808975 0)
(7.34039 0.0883509 0)
(7.34127 0.0964805 0)
(7.34256 0.10534 0)
(7.34437 0.114976 0)
(7.34685 0.125422 0)
(7.35017 0.136695 0)
(7.35451 0.148793 0)
(7.36007 0.161685 0)
(7.36706 0.175311 0)
(7.37572 0.189572 0)
(7.38627 0.204325 0)
(7.39895 0.219381 0)
(7.41399 0.234499 0)
(7.43157 0.249378 0)
(7.45193 0.26367 0)
(7.475 0.276968 0)
(7.33302 0.00255239 0)
(7.33328 0.00754819 0)
(7.33379 0.0123152 0)
(7.33444 0.0168519 0)
(7.33515 0.0212037 0)
(7.33587 0.0254246 0)
(7.33658 0.029572 0)
(7.33724 0.033708 0)
(7.33785 0.0378948 0)
(7.33841 0.0421921 0)
(7.33893 0.0466586 0)
(7.33942 0.0513518 0)
(7.33992 0.0563287 0)
(7.34044 0.0616456 0)
(7.34104 0.067358 0)
(7.34176 0.0735204 0)
(7.34268 0.0801852 0)
(7.34385 0.0874017 0)
(7.34538 0.0952138 0)
(7.34737 0.103658 0)
(7.34993 0.112762 0)
(7.3532 0.122536 0)
(7.35734 0.132978 0)
(7.3625 0.144061 0)
(7.36886 0.155734 0)
(7.3766 0.167913 0)
(7.38592 0.180484 0)
(7.397 0.19329 0)
(7.41002 0.206135 0)
(7.42515 0.21878 0)
(7.44251 0.23094 0)
(7.46226 0.242288 0)
(7.48429 0.252472 0)
(7.33302 0.00248148 0)
(7.33325 0.00734389 0)
(7.33373 0.0120099 0)
(7.33437 0.016481 0)
(7.33508 0.020795 0)
(7.33583 0.0249995 0)
(7.3366 0.0291463 0)
(7.33737 0.0332915 0)
(7.33812 0.0374915 0)
(7.33886 0.0418012 0)
(7.3396 0.046274 0)
(7.34036 0.0509617 0)
(7.34116 0.0559146 0)
(7.34205 0.0611813 0)
(7.34305 0.0668087 0)
(7.34423 0.0728408 0)
(7.34564 0.0793184 0)
(7.34737 0.0862773 0)
(7.34949 0.0937467 0)
(7.3521 0.101747 0)
(7.35533 0.110287 0)
(7.35928 0.119362 0)
(7.3641 0.128948 0)
(7.36992 0.139001 0)
(7.3769 0.149454 0)
(7.38519 0.16021 0)
(7.39494 0.171142 0)
(7.40629 0.18209 0)
(7.41939 0.192862 0)
(7.43434 0.203227 0)
(7.45122 0.212923 0)
(7.47012 0.221651 0)
(7.4909 0.22912 0)
(7.33302 0.0024133 0)
(7.33324 0.00714557 0)
(7.3337 0.011706 0)
(7.33433 0.0161003 0)
(7.33506 0.0203607 0)
(7.33585 0.0245294 0)
(7.3367 0.0286527 0)
(7.33757 0.0327804 0)
(7.33847 0.0369627 0)
(7.33939 0.0412486 0)
(7.34035 0.0456858 0)
(7.34137 0.0503198 0)
(7.34247 0.0551945 0)
(7.34369 0.0603511 0)
(7.34507 0.0658283 0)
(7.34667 0.0716609 0)
(7.34854 0.0778793 0)
(7.35076 0.0845077 0)
(7.35341 0.0915625 0)
(7.35659 0.0990503 0)
(7.36038 0.106966 0)
(7.3649 0.115289 0)
(7.37027 0.123982 0)
(7.37661 0.132988 0)
(7.38404 0.142227 0)
(7.3927 0.151596 0)
(7.40268 0.160963 0)
(7.41411 0.170172 0)
(7.42707 0.179034 0)
(7.44164 0.187339 0)
(7.45784 0.194848 0)
(7.47572 0.201298 0)
(7.49512 0.206452 0)
(7.33302 0.00234562 0)
(7.33324 0.00694725 0)
(7.33369 0.0113961 0)
(7.33433 0.0157017 0)
(7.33508 0.0198929 0)
(7.33593 0.0240072 0)
(7.33686 0.0280863 0)
(7.33784 0.0321745 0)
(7.33889 0.0363165 0)
(7.33999 0.0405562 0)
(7.34117 0.0449354 0)
(7.34244 0.0494938 0)
(7.34383 0.0542686 0)
(7.34538 0.0592937 0)
(7.34712 0.0645996 0)
(7.34911 0.0702118 0)
(7.35141 0.0761507 0)
(7.35408 0.0824293 0)
(7.3572 0.0890523 0)
(7.36084 0.0960142 0)
(7.36511 0.103297 0)
(7.3701 0.11087 0)
(7.3759 0.118683 0)
(7.38262 0.12667 0)
(7.39035 0.134747 0)
(7.39919 0.142804 0)
(7.40924 0.150712 0)
(7.42055 0.158321 0)
(7.4332 0.165456 0)
(7.44721 0.171927 0)
(7.46258 0.177524 0)
(7.47931 0.18202 0)
(7.49726 0.185223 0)
(7.33302 0.00227653 0)
(7.33324 0.0067438 0)
(7.3337 0.0110732 0)
(7.33435 0.0152776 0)
(7.33514 0.0193834 0)
(7.33606 0.0234245 0)
(7.33707 0.0274378 0)
(7.33817 0.0314624 0)
(7.33937 0.0355377 0)
(7.34065 0.0397016 0)
(7.34204 0.0439902 0)
(7.34355 0.048437 0)
(7.34522 0.0530724 0)
(7.34707 0.0579233 0)
(7.34914 0.0630122 0)
(7.35149 0.0683565 0)
(7.35416 0.0739674 0)
(7.35722 0.0798488 0)
(7.36074 0.0859955 0)
(7.36479 0.0923924 0)
(7.36945 0.0990122 0)
(7.37479 0.105815 0)
(7.38091 0.112744 0)
(7.38787 0.119729 0)
(7.39576 0.126681 0)
(7.40466 0.133494 0)
(7.41461 0.140043 0)
(7.42566 0.146187 0)
(7.43785 0.151769 0)
(7.45118 0.156621 0)
(7.46562 0.160563 0)
(7.48115 0.163402 0)
(7.49761 0.164986 0)
(7.33302 0.00220444 0)
(7.33324 0.00653073 0)
(7.33372 0.010731 0)
(7.3344 0.014821 0)
(7.33524 0.0188254 0)
(7.33622 0.0227745 0)
(7.33732 0.0267016 0)
(7.33855 0.030641 0)
(7.33989 0.0346268 0)
(7.34135 0.0386919 0)
(7.34294 0.0428668 0)
(7.34468 0.0471791 0)
(7.34661 0.051653 0)
(7.34873 0.0563087 0)
(7.35111 0.0611614 0)
(7.35378 0.066221 0)
(7.35678 0.0714906 0)
(7.36019 0.0769658 0)
(7.36404 0.0826334 0)
(7.36841 0.0884702 0)
(7.37337 0.0944418 0)
(7.37897 0.100502 0)
(7.38529 0.10659 0)
(7.39239 0.112634 0)
(7.40032 0.118544 0)
(7.40913 0.124219 0)
(7.41887 0.129542 0)
(7.42954 0.134386 0)
(7.44116 0.138612 0)
(7.45371 0.142073 0)
(7.46715 0.144618 0)
(7.48144 0.146087 0)
(7.49642 0.146365 0)
(7.33302 0.00212793 0)
(7.33325 0.00630408 0)
(7.33375 0.0103639 0)
(7.33446 0.0143253 0)
(7.33535 0.0182113 0)
(7.33641 0.0220493 0)
(7.33761 0.0258687 0)
(7.33896 0.0296992 0)
(7.34044 0.0335701 0)
(7.34208 0.0375087 0)
(7.34386 0.0415402 0)
(7.34582 0.0456865 0)
(7.34798 0.0499656 0)
(7.35037 0.0543914 0)
(7.35302 0.0589728 0)
(7.35597 0.0637129 0)
(7.35926 0.0686079 0)
(7.36294 0.073647 0)
(7.36707 0.0788105 0)
(7.3717 0.0840697 0)
(7.37687 0.0893855 0)
(7.38265 0.094708 0)
(7.38908 0.099976 0)
(7.3962 0.105116 0)
(7.40407 0.110044 0)
(7.41269 0.114665 0)
(7.42211 0.118873 0)
(7.43231 0.122554 0)
(7.44329 0.125588 0)
(7.45501 0.127851 0)
(7.46742 0.129217 0)
(7.48047 0.129557 0)
(7.49401 0.128788 0)
(7.33302 0.00204578 0)
(7.33327 0.00606041 0)
(7.33379 0.009967 0)
(7.33454 0.013785 0)
(7.33549 0.0175362 0)
(7.33662 0.0212455 0)
(7.33792 0.0249389 0)
(7.33939 0.028642 0)
(7.34102 0.0323796 0)
(7.34281 0.0361743 0)
(7.34478 0.040046 0)
(7.34694 0.0440114 0)
(7.34931 0.0480831 0)
(7.35193 0.0522692 0)
(7.35481 0.0565727 0)
(7.358 0.0609909 0)
(7.36153 0.0655145 0)
(7.36544 0.0701271 0)
(7.36978 0.0748042 0)
(7.37459 0.079513 0)
(7.3799 0.0842116 0)
(7.38576 0.0888487 0)
(7.39221 0.0933632 0)
(7.39928 0.0976848 0)
(7.40699 0.101735 0)
(7.41535 0.105426 0)
(7.42436 0.108664 0)
(7.43402 0.111351 0)
(7.4443 0.113383 0)
(7.45516 0.114657 0)
(7.46654 0.115073 0)
(7.47837 0.114527 0)
(7.49054 0.112962 0)
(7.33302 0.0019569 0)
(7.33328 0.00579651 0)
(7.33383 0.00953532 0)
(7.33463 0.0131935 0)
(7.33564 0.0167916 0)
(7.33685 0.0203516 0)
(7.33825 0.023896 0)
(7.33984 0.0274464 0)
(7.3416 0.0310231 0)
(7.34355 0.034644 0)
(7.34569 0.0383243 0)
(7.34804 0.0420758 0)
(7.35061 0.0459062 0)
(7.35343 0.0498186 0)
(7.35653 0.0538114 0)
(7.35992 0.0578771 0)
(7.36365 0.0620022 0)
(7.36774 0.0661662 0)
(7.37223 0.0703417 0)
(7.37716 0.0744937 0)
(7.38255 0.0785792 0)
(7.38843 0.0825473 0)
(7.39483 0.0863396 0)
(7.40177 0.0898908 0)
(7.40924 0.0931285 0)
(7.41727 0.0959751 0)
(7.42583 0.0983484 0)
(7.4349 0.100164 0)
(7.44446 0.101336 0)
(7.45445 0.10178 0)
(7.46482 0.101417 0)
(7.47549 0.100167 0)
(7.48636 0.0979939 0)
(7.33303 0.00186032 0)
(7.3333 0.00550982 0)
(7.33388 0.00906569 0)
(7.33472 0.0125489 0)
(7.3358 0.0159789 0)
(7.33709 0.0193756 0)
(7.33859 0.0227587 0)
(7.34029 0.0261464 0)
(7.34218 0.0295547 0)
(7.34427 0.0329974 0)
(7.34656 0.0364852 0)
(7.34907 0.0400251 0)
(7.35181 0.0436204 0)
(7.3548 0.0472698 0)
(7.35806 0.0509672 0)
(7.36162 0.0547011 0)
(7.3655 0.0584546 0)
(7.36972 0.0622044 0)
(7.37431 0.0659209 0)
(7.37929 0.0695681 0)
(7.38469 0.0731031 0)
(7.39053 0.0764773 0)
(7.39681 0.0796358 0)
(7.40355 0.0825187 0)
(7.41074 0.0850613 0)
(7.41838 0.0871952 0)
(7.42644 0.0888504 0)
(7.43491 0.0899557 0)
(7.44373 0.0904414 0)
(7.45287 0.0902405 0)
(7.46225 0.089292 0)
(7.47183 0.0875359 0)
(7.48148 0.084951 0)
(7.33303 0.00175508 0)
(7.33332 0.00519713 0)
(7.33393 0.00855196 0)
(7.33483 0.0118402 0)
(7.33597 0.0150794 0)
(7.33735 0.0182868 0)
(7.33895 0.0214786 0)
(7.34076 0.0246696 0)
(7.34278 0.027872 0)
(7.34501 0.0310961 0)
(7.34745 0.0343486 0)
(7.35011 0.0376333 0)
(7.35301 0.0409497 0)
(7.35615 0.0442933 0)
(7.35956 0.047655 0)
(7.36325 0.0510209 0)
(7.36724 0.0543717 0)
(7.37155 0.0576828 0)
(7.37619 0.060924 0)
(7.38119 0.0640596 0)
(7.38656 0.067049 0)
(7.3923 0.0698465 0)
(7.39842 0.0724017 0)
(7.40492 0.0746606 0)
(7.41179 0.0765665 0)
(7.41901 0.0780608 0)
(7.42656 0.0790843 0)
(7.4344 0.0795787 0)
(7.44251 0.0794883 0)
(7.45082 0.0787609 0)
(7.45927 0.0773511 0)
(7.46781 0.075215 0)
(7.47635 0.0723439 0)
(7.33303 0.00164046 0)
(7.33333 0.00485743 0)
(7.33399 0.00799585 0)
(7.33493 0.0110773 0)
(7.33614 0.0141185 0)
(7.33759 0.0171349 0)
(7.33928 0.0201401 0)
(7.34119 0.0231451 0)
(7.34332 0.0261584 0)
(7.34566 0.029186 0)
(7.34822 0.0322307 0)
(7.35101 0.0352923 0)
(7.35402 0.0383666 0)
(7.35728 0.0414459 0)
(7.36079 0.0445181 0)
(7.36457 0.0475671 0)
(7.36863 0.050572 0)
(7.37298 0.0535072 0)
(7.37764 0.0563427 0)
(7.3826 0.0590444 0)
(7.38789 0.0615739 0)
(7.39349 0.0638892 0)
(7.3994 0.065945 0)
(7.40562 0.0676939 0)
(7.41213 0.0690869 0)
(7.41892 0.0700747 0)
(7.42594 0.0706086 0)
(7.43318 0.0706419 0)
(7.44058 0.0701308 0)
(7.4481 0.0690362 0)
(7.45568 0.0673251 0)
(7.46327 0.0649671 0)
(7.47079 0.0619625 0)
(7.33303 0.00151516 0)
(7.33336 0.00448461 0)
(7.33405 0.00738134 0)
(7.33506 0.0102254 0)
(7.33634 0.013031 0)
(7.33788 0.015811 0)
(7.33967 0.0185762 0)
(7.34169 0.0213355 0)
(7.34393 0.024095 0)
(7.3464 0.0268583 0)
(7.34908 0.029626 0)
(7.35199 0.0323955 0)
(7.35512 0.035161 0)
(7.35848 0.0379127 0)
(7.36208 0.0406371 0)
(7.36593 0.0433172 0)
(7.37004 0.0459318 0)
(7.37441 0.0484558 0)
(7.37904 0.0508606 0)
(7.38394 0.0531139 0)
(7.38911 0.0551803 0)
(7.39454 0.0570218 0)
(7.40022 0.0585984 0)
(7.40615 0.059869 0)
(7.41229 0.0607921 0)
(7.41864 0.0613266 0)
(7.42515 0.0614332 0)
(7.43179 0.061075 0)
(7.43852 0.0602187 0)
(7.4453 0.0588355 0)
(7.45207 0.0569028 0)
(7.45879 0.0544006 0)
(7.46538 0.0513352 0)
(7.33303 0.00137917 0)
(7.33337 0.00408436 0)
(7.3341 0.00673252 0)
(7.33516 0.00934569 0)
(7.3365 0.0119367 0)
(7.3381 0.0145152 0)
(7.33997 0.0170878 0)
(7.34207 0.0196586 0)
(7.34439 0.0222291 0)
(7.34694 0.0247984 0)
(7.34972 0.0273633 0)
(7.3527 0.0299179 0)
(7.35591 0.0324536 0)
(7.35935 0.0349586 0)
(7.363 0.0374182 0)
(7.36689 0.0398144 0)
(7.371 0.0421263 0)
(7.37535 0.0443299 0)
(7.37992 0.046398 0)
(7.38473 0.0483011 0)
(7.38975 0.0500073 0)
(7.39498 0.0514832 0)
(7.40042 0.0526943 0)
(7.40603 0.0536059 0)
(7.41181 0.0541836 0)
(7.41771 0.0543944 0)
(7.42372 0.054207 0)
(7.42979 0.0535934 0)
(7.4359 0.0525289 0)
(7.44199 0.0509935 0)
(7.44802 0.0489726 0)
(7.45395 0.046454 0)
(7.45972 0.0434488 0)
(7.33304 0.00122877 0)
(7.33341 0.00363291 0)
(7.33419 0.00598173 0)
(7.33533 0.0082955 0)
(7.33676 0.0105857 0)
(7.33847 0.0128616 0)
(7.34044 0.0151301 0)
(7.34264 0.0173947 0)
(7.34508 0.0196563 0)
(7.34773 0.0219133 0)
(7.3506 0.0241611 0)
(7.35368 0.0263927 0)
(7.35697 0.0285983 0)
(7.36046 0.0307655 0)
(7.36416 0.032879 0)
(7.36806 0.0349211 0)
(7.37217 0.0368712 0)
(7.37648 0.0387062 0)
(7.38098 0.0404012 0)
(7.38567 0.041929 0)
(7.39053 0.0432613 0)
(7.39556 0.0443687 0)
(7.40074 0.0452215 0)
(7.40604 0.0457906 0)
(7.41145 0.0460475 0)
(7.41693 0.0459658 0)
(7.42246 0.0455212 0)
(7.428 0.0446925 0)
(7.43352 0.0434622 0)
(7.43898 0.0418167 0)
(7.44434 0.0397478 0)
(7.44956 0.0372494 0)
(7.45458 0.0343344 0)
(7.33304 0.00106857 0)
(7.33341 0.00317414 0)
(7.33422 0.00526252 0)
(7.33539 0.00735224 0)
(7.33686 0.00944594 0)
(7.33862 0.0115441 0)
(7.34065 0.0136453 0)
(7.34292 0.0157459 0)
(7.34542 0.017841 0)
(7.34815 0.0199246 0)
(7.35108 0.0219893 0)
(7.35421 0.024026 0)
(7.35755 0.0260242 0)
(7.36108 0.0279711 0)
(7.36479 0.0298521 0)
(7.36869 0.0316502 0)
(7.37277 0.0333465 0)
(7.37701 0.0349203 0)
(7.38142 0.0363493 0)
(7.38598 0.0376099 0)
(7.39067 0.0386778 0)
(7.39549 0.0395282 0)
(7.40041 0.0401369 0)
(7.4054 0.0404801 0)
(7.41046 0.0405355 0)
(7.41554 0.0402827 0)
(7.42062 0.0397036 0)
(7.42567 0.0387829 0)
(7.43066 0.0375086 0)
(7.43555 0.0358724 0)
(7.44031 0.0338705 0)
(7.4449 0.0315008 0)
(7.44929 0.0287777 0)
(7.33305 0.00087915 0)
(7.33349 0.00258517 0)
(7.33441 0.00426272 0)
(7.3357 0.00593922 0)
(7.3373 0.00762377 0)
(7.33918 0.00932147 0)
(7.34132 0.0110335 0)
(7.34369 0.0127579 0)
(7.34629 0.0144896 0)
(7.34909 0.0162208 0)
(7.35209 0.017942 0)
(7.35528 0.0196424 0)
(7.35865 0.0213094 0)
(7.3622 0.0229291 0)
(7.36592 0.0244861 0)
(7.3698 0.0259633 0)
(7.37383 0.0273425 0)
(7.378 0.0286042 0)
(7.38231 0.029728 0)
(7.38673 0.0306929 0)
(7.39124 0.0314776 0)
(7.39585 0.032061 0)
(7.40051 0.0324226 0)
(7.40522 0.0325429 0)
(7.40994 0.0324041 0)
(7.41465 0.0319904 0)
(7.41932 0.0312882 0)
(7.42392 0.0302871 0)
(7.42843 0.0289792 0)
(7.43281 0.0273602 0)
(7.43703 0.0254295 0)
(7.44106 0.023188 0)
(7.44487 0.0206501 0)
(7.33303 0.000702455 0)
(7.33345 0.00213098 0)
(7.33436 0.00361644 0)
(7.33567 0.00515036 0)
(7.3373 0.00671551 0)
(7.33923 0.00830255 0)
(7.34143 0.00990037 0)
(7.34387 0.0114989 0)
(7.34654 0.0130898 0)
(7.3494 0.0146648 0)
(7.35246 0.0162152 0)
(7.3557 0.0177313 0)
(7.35911 0.0192026 0)
(7.36268 0.0206175 0)
(7.36639 0.0219632 0)
(7.37025 0.0232256 0)
(7.37423 0.0243894 0)
(7.37833 0.0254385 0)
(7.38253 0.0263558 0)
(7.38681 0.0271239 0)
(7.39116 0.0277257 0)
(7.39556 0.0281442 0)
(7.39999 0.0283635 0)
(7.40442 0.0283689 0)
(7.40883 0.028147 0)
(7.4132 0.0276864 0)
(7.4175 0.0269774 0)
(7.42171 0.026013 0)
(7.42579 0.0247883 0)
(7.42972 0.0233012 0)
(7.43348 0.0215529 0)
(7.43704 0.0195456 0)
(7.44038 0.0172928 0)
(7.33308 0.000396018 0)
(7.33369 0.0011481 0)
(7.33482 0.00197732 0)
(7.3363 0.00290122 0)
(7.33808 0.00390555 0)
(7.34013 0.00498109 0)
(7.34241 0.00611828 0)
(7.34492 0.00730382 0)
(7.34763 0.00851872 0)
(7.35054 0.00974563 0)
(7.35362 0.0109699 0)
(7.35687 0.0121775 0)
(7.36028 0.0133545 0)
(7.36384 0.0144868 0)
(7.36752 0.01556 0)
(7.37133 0.0165593 0)
(7.37525 0.0174696 0)
(7.37926 0.0182755 0)
(7.38335 0.0189619 0)
(7.3875 0.0195139 0)
(7.3917 0.0199169 0)
(7.39591 0.0201571 0)
(7.40012 0.0202217 0)
(7.40431 0.0200991 0)
(7.40845 0.0197792 0)
(7.41252 0.0192536 0)
(7.4165 0.0185161 0)
(7.42036 0.0175624 0)
(7.42408 0.016391 0)
(7.42762 0.0150021 0)
(7.43098 0.0133977 0)
(7.43413 0.0115812 0)
(7.43704 0.00956471 0)
(7.33303 0.000298801 0)
(7.33354 0.00103627 0)
(7.3347 0.00191202 0)
(7.33626 0.00286842 0)
(7.33813 0.00387722 0)
(7.34029 0.00491302 0)
(7.34271 0.00594955 0)
(7.34535 0.00699218 0)
(7.34817 0.00803639 0)
(7.35117 0.00907168 0)
(7.35433 0.0100885 0)
(7.35764 0.0110782 0)
(7.36109 0.0120321 0)
(7.36467 0.0129402 0)
(7.36835 0.0137922 0)
(7.37214 0.0145779 0)
(7.37601 0.0152866 0)
(7.37995 0.015907 0)
(7.38393 0.0164277 0)
(7.38795 0.0168372 0)
(7.39199 0.0171245 0)
(7.39601 0.0172791 0)
(7.40001 0.017291 0)
(7.40396 0.0171515 0)
(7.40784 0.016853 0)
(7.41163 0.0163893 0)
(7.41531 0.0157557 0)
(7.41886 0.014949 0)
(7.42225 0.0139679 0)
(7.42546 0.0128125 0)
(7.42848 0.0114862 0)
(7.43128 0.00999212 0)
(7.43387 0.00834256 0)
(7.33315 -0.00039655 0)
(7.33408 -0.00103632 0)
(7.33549 -0.00127492 0)
(7.33719 -0.00119471 0)
(7.33914 -0.000886683 0)
(7.34131 -0.000384506 0)
(7.3437 0.000264843 0)
(7.34633 0.000990555 0)
(7.34914 0.00175665 0)
(7.35213 0.00254319 0)
(7.35528 0.0033319 0)
(7.35858 0.00410712 0)
(7.36202 0.00485668 0)
(7.36557 0.00556928 0)
(7.36923 0.00623287 0)
(7.37299 0.00683617 0)
(7.37681 0.00736897 0)
(7.3807 0.00782125 0)
(7.38462 0.00818319 0)
(7.38855 0.00844537 0)
(7.39249 0.00859902 0)
(7.3964 0.00863612 0)
(7.40026 0.00854966 0)
(7.40407 0.00833369 0)
(7.40778 0.00798339 0)
(7.41138 0.00749562 0)
(7.41485 0.00686904 0)
(7.41817 0.00610213 0)
(7.42132 0.00520663 0)
(7.42428 0.00418185 0)
(7.42703 0.00302345 0)
(7.42956 0.00173607 0)
(7.43185 0.000328075 0)
(7.3331 -0.000116655 0)
(7.33413 -0.000106586 0)
(7.33598 0.000130244 0)
(7.33812 0.00041831 0)
(7.34048 0.000756774 0)
(7.34307 0.00115569 0)
(7.34582 0.00159817 0)
(7.34868 0.00205178 0)
(7.35168 0.00251044 0)
(7.35482 0.00297332 0)
(7.35809 0.00343622 0)
(7.36147 0.00389352 0)
(7.36497 0.00433841 0)
(7.36856 0.00476443 0)
(7.37223 0.00516626 0)
(7.37598 0.00553752 0)
(7.37977 0.00587081 0)
(7.38361 0.00615883 0)
(7.38746 0.00639457 0)
(7.39131 0.00657114 0)
(7.39515 0.00668196 0)
(7.39894 0.00672092 0)
(7.40268 0.00668245 0)
(7.40634 0.00656162 0)
(7.40991 0.00635437 0)
(7.41336 0.00605702 0)
(7.41667 0.00566626 0)
(7.41986 0.0051812 0)
(7.42291 0.00459098 0)
(7.42577 0.00389963 0)
(7.42844 0.00311677 0)
(7.43091 0.00224512 0)
(7.4332 0.00128872 0)
(7.33435 -0.00327587 0)
(7.33911 -0.00589576 0)
(7.34489 -0.00670424 0)
(7.35122 -0.0070553 0)
(7.35799 -0.00703826 0)
(7.36497 -0.00677649 0)
(7.37204 -0.00642334 0)
(7.37916 -0.00602201 0)
(7.38631 -0.00559478 0)
(7.39349 -0.00516487 0)
(7.40067 -0.00474789 0)
(7.40786 -0.00435381 0)
(7.41507 -0.00399084 0)
(7.42228 -0.00366513 0)
(7.42952 -0.00338035 0)
(7.43678 -0.0031402 0)
(7.44406 -0.00294889 0)
(7.45136 -0.00281034 0)
(7.45869 -0.00272812 0)
(7.46602 -0.00270559 0)
(7.47337 -0.00274578 0)
(7.48071 -0.00285129 0)
(7.48805 -0.00302424 0)
(7.49536 -0.0032663 0)
(7.50264 -0.00357848 0)
(7.50987 -0.00396183 0)
(7.51703 -0.00441734 0)
(7.52409 -0.00494346 0)
(7.53104 -0.00555067 0)
(7.53787 -0.00623417 0)
(7.54458 -0.00698246 0)
(7.55114 -0.0077923 0)
(7.55752 -0.00865793 0)
(7.32982 -0.00377617 0)
(7.32495 -0.00774074 0)
(7.317 -0.0098817 0)
(7.30769 -0.0113609 0)
(7.29839 -0.012316 0)
(7.28919 -0.0128799 0)
(7.28017 -0.0132024 0)
(7.27145 -0.01337 0)
(7.26311 -0.0134395 0)
(7.25513 -0.013454 0)
(7.24752 -0.0134431 0)
(7.24025 -0.0134271 0)
(7.2333 -0.0134204 0)
(7.22664 -0.0134333 0)
(7.22023 -0.013475 0)
(7.21403 -0.013553 0)
(7.208 -0.0136724 0)
(7.20211 -0.0138366 0)
(7.19631 -0.0140482 0)
(7.19056 -0.0143091 0)
(7.18483 -0.0146203 0)
(7.17908 -0.0149825 0)
(7.17328 -0.0153956 0)
(7.16739 -0.0158592 0)
(7.16138 -0.016372 0)
(7.15522 -0.0169318 0)
(7.14889 -0.0175353 0)
(7.14237 -0.0181787 0)
(7.13564 -0.0188479 0)
(7.12867 -0.0195417 0)
(7.12147 -0.0202638 0)
(7.11401 -0.0210079 0)
(7.10631 -0.0217693 0)
(1.41833 0.06117 0)
(0.726458 -0.0348472 0)
(0.696666 0.17327 0)
(1.46994 0.692179 0)
(2.5335 1.33619 0)
(3.59731 1.90038 0)
(4.55616 2.26632 0)
(5.41574 2.3897 0)
(6.19066 2.24934 0)
(6.87432 1.83954 0)
(7.4392 1.17615 0)
(7.83263 0.306634 0)
(8.01869 -0.67308 0)
(7.8817 -1.58336 0)
(7.40706 -2.26718 0)
(6.91626 -2.77624 0)
(6.70125 -3.24366 0)
(6.60183 -3.61143 0)
(6.28915 -3.68268 0)
(5.7005 -3.36484 0)
(5.02818 -2.74144 0)
(4.47562 -1.96341 0)
(4.12811 -1.13541 0)
(3.98884 -0.304248 0)
(4.02822 0.52635 0)
(4.31707 1.39577 0)
(4.91414 2.28343 0)
(5.66675 3.03575 0)
(6.39625 3.50825 0)