/*--------------------------------*- C++ -*----------------------------------*\
  =========                 |
  \\      /  F ield         | OpenFOAM: The Open Source CFD Toolbox
   \\    /   O peration     | Website:  https://openfoam.org
    \\  /    A nd           | Version:  10
     \\/     M anipulation  |
\*---------------------------------------------------------------------------*/
FoamFile
{
    format      ascii;
    class       volScalarField;
    location    "0.15";
    object      p;
}
// * * * * * * * * * * * * * * * * * * * * * * * * * * * * * * * * * * * * * //

dimensions      [0 2 -2 0 0 0 0];

internalField   nonuniform List<scalar> 
6820
(
6.14367
-8.18742
-10.1863
-10.3672
-10.5223
-10.4617
-10.4286
-10.4464
-10.4885
-10.5451
-10.6097
-10.6787
-10.7504
-10.8242
-10.8998
-10.977
-11.0558
-11.1362
-11.2183
-11.3023
-11.3882
-11.4764
-11.5672
-11.6607
-11.7578
-11.8584
-11.9631
-12.0723
-12.1872
-12.3054
-12.436
-12.553
-12.7301
0.766291
-7.98439
-9.99114
-10.2455
-10.4527
-10.4557
-10.4439
-10.4681
-10.5104
-10.5641
-10.6255
-10.6916
-10.761
-10.833
-10.9072
-10.9834
-11.0614
-11.1412
-11.2228
-11.3064
-11.3921
-11.4801
-11.5706
-11.6642
-11.7606
-11.8608
-11.9653
-12.0742
-12.1887
-12.3077
-12.4378
-12.5675
-12.7558
-1.31312
-6.77164
-9.19721
-9.78988
-10.172
-10.318
-10.3683
-10.4195
-10.4776
-10.5411
-10.6094
-10.6807
-10.754
-10.8287
-10.9048
-10.9821
-11.0608
-11.1409
-11.2226
-11.3059
-11.3912
-11.4787
-11.5686
-11.6612
-11.7569
-11.8562
-11.9596
-12.0672
-12.1802
-12.298
-12.4249
-12.5514
-12.6993
-2.87973
-6.5876
-8.89923
-9.55024
-9.9338
-10.143
-10.2436
-10.3268
-10.4079
-10.4865
-10.5644
-10.6422
-10.7203
-10.799
-10.8782
-10.9582
-11.039
-11.1208
-11.2038
-11.2881
-11.3741
-11.4618
-11.5517
-11.644
-11.739
-11.8371
-11.9388
-12.0444
-12.1547
-12.2695
-12.3915
-12.5173
-12.6572
-4.1636
-6.63035
-8.59028
-9.27463
-9.68661
-9.96179
-10.1164
-10.2303
-10.331
-10.4229
-10.5101
-10.595
-10.6785
-10.761
-10.8433
-10.9255
-11.0081
-11.0912
-11.175
-11.2597
-11.3456
-11.4329
-11.5219
-11.6128
-11.706
-11.8017
-11.9004
-12.0023
-12.108
-12.2175
-12.3323
-12.4514
-12.58
-5.11957
-6.75161
-8.40428
-9.11966
-9.54117
-9.83855
-10.0192
-10.1496
-10.2623
-10.3636
-10.4578
-10.5481
-10.6359
-10.7219
-10.8068
-10.8911
-10.9751
-11.0591
-11.1434
-11.2283
-11.3139
-11.4005
-11.4883
-11.5775
-11.6683
-11.7611
-11.8561
-11.9534
-12.0535
-12.1565
-12.2636
-12.3745
-12.4927
-5.86318
-6.96161
-8.31441
-9.00011
-9.40801
-9.71404
-9.91876
-10.0685
-10.1952
-10.3071
-10.4088
-10.5046
-10.5965
-10.6856
-10.7728
-10.8588
-10.9441
-11.0289
-11.1136
-11.1985
-11.2836
-11.3693
-11.4558
-11.5432
-11.6316
-11.7214
-11.8126
-11.9054
-12
-12.0966
-12.1955
-12.2963
-12.4005
-6.44495
-7.18914
-8.27407
-8.91315
-9.30974
-9.61805
-9.83747
-9.99979
-10.1354
-10.2543
-10.3616
-10.4617
-10.5571
-10.649
-10.7384
-10.8261
-10.9125
-10.9981
-11.0831
-11.1679
-11.2525
-11.3373
-11.4223
-11.5078
-11.5938
-11.6805
-11.7678
-11.856
-11.9449
-12.0344
-12.1245
-12.2148
-12.3052
-6.90583
-7.41832
-8.28119
-8.86079
-9.23702
-9.53622
-9.76097
-9.93188
-10.075
-10.2007
-10.3137
-10.4184
-10.5173
-10.612
-10.7036
-10.7929
-10.8804
-10.9667
-11.0519
-11.1364
-11.2204
-11.3041
-11.3876
-11.471
-11.5544
-11.6378
-11.7212
-11.8045
-11.8875
-11.9701
-12.0517
-12.1317
-12.2091
-7.27562
-7.63505
-8.31648
-8.83017
-9.18241
-9.46948
-9.6955
-9.8723
-10.0209
-10.1515
-10.2688
-10.3769
-10.4787
-10.5756
-10.669
-10.7595
-10.848
-10.9347
-11.02
-11.1042
-11.1874
-11.2699
-11.3518
-11.433
-11.5137
-11.5938
-11.6732
-11.7516
-11.8289
-11.9046
-11.9781
-12.0484
-12.1141
-7.57556
-7.83296
-8.37034
-8.81906
-9.14512
-9.41678
-9.63885
-9.81753
-9.96921
-10.1032
-10.2239
-10.3351
-10.4394
-10.5386
-10.6336
-10.7255
-10.8147
-10.9018
-10.9871
-11.0709
-11.1534
-11.2346
-11.3148
-11.3938
-11.4717
-11.5485
-11.6238
-11.6976
-11.7693
-11.8385
-11.9043
-11.9659
-12.0215
-7.82117
-8.00972
-8.43422
-8.82171
-9.12013
-9.37476
-9.59004
-9.76837
-9.9217
-10.058
-10.1814
-10.295
-10.4015
-10.5023
-10.5987
-10.6916
-10.7814
-10.8688
-10.9539
-11.0372
-11.1187
-11.1986
-11.2769
-11.3537
-11.4289
-11.5023
-11.5737
-11.6429
-11.7093
-11.7725
-11.8315
-11.8853
-11.9325
-8.02371
-8.16505
-8.502
-8.83431
-9.10526
-9.34237
-9.5488
-9.72448
-9.8777
-10.015
-10.14
-10.2554
-10.3635
-10.4658
-10.5633
-10.657
-10.7474
-10.8349
-10.9199
-11.0026
-11.0831
-11.1616
-11.2382
-11.3127
-11.3852
-11.4553
-11.523
-11.5879
-11.6494
-11.7071
-11.76
-11.8073
-11.8476
-8.19149
-8.29987
-8.56931
-8.85329
-9.09771
-9.31731
-9.51364
-9.6851
-9.83702
-9.97448
-10.1004
-10.2171
-10.3265
-10.4299
-10.5284
-10.6228
-10.7135
-10.801
-10.8857
-10.9677
-11.0472
-11.1243
-11.199
-11.2713
-11.3411
-11.4082
-11.4723
-11.5332
-11.5902
-11.643
-11.6907
-11.7326
-11.7674
-8.33066
-8.41558
-8.63311
-8.8757
-9.09531
-9.29804
-9.48378
-9.64994
-9.79954
-9.93626
-10.0624
-10.1798
-10.29
-10.3943
-10.4935
-10.5883
-10.6793
-10.7667
-10.851
-10.9323
-11.0107
-11.0864
-11.1594
-11.2295
-11.2968
-11.3609
-11.4218
-11.479
-11.5321
-11.5806
-11.6239
-11.6614
-11.6919
-8.44579
-8.51371
-8.69136
-8.89912
-9.09608
-9.2829
-9.458
-9.6182
-9.76475
-9.90012
-10.0259
-10.1436
-10.2544
-10.3593
-10.459
-10.5542
-10.6452
-10.7326
-10.8164
-10.8969
-10.9743
-11.0485
-11.1197
-11.1878
-11.2526
-11.314
-11.3719
-11.4257
-11.4754
-11.5202
-11.5599
-11.5938
-11.6212
-8.54032
-8.59571
-8.74269
-8.92154
-9.09831
-9.27047
-9.43532
-9.58928
-9.73234
-9.8659
-9.99101
-10.1086
-10.2196
-10.3249
-10.4249
-10.5203
-10.6114
-10.6984
-10.7818
-10.8615
-10.9378
-11.0107
-11.0802
-11.1463
-11.2089
-11.2678
-11.3229
-11.3739
-11.4205
-11.4624
-11.4991
-11.5303
-11.5554
-8.61683
-8.66286
-8.78623
-8.94138
-9.10049
-9.25941
-9.41467
-9.56243
-9.7018
-9.83328
-9.95739
-10.0747
-10.1857
-10.2912
-10.3914
-10.4869
-10.5779
-10.6646
-10.7474
-10.8264
-10.9016
-10.9732
-11.0411
-11.1053
-11.1658
-11.2224
-11.2751
-11.3235
-11.3675
-11.4068
-11.4411
-11.4703
-11.4938
-8.67723
-8.71621
-8.8214
-8.95734
-9.10131
-9.24854
-9.39509
-9.53699
-9.67269
-9.80201
-9.92499
-10.0418
-10.1528
-10.2583
-10.3587
-10.4542
-10.545
-10.6315
-10.7138
-10.792
-10.8662
-10.9365
-11.0029
-11.0654
-11.124
-11.1786
-11.2291
-11.2753
-11.3172
-11.3544
-11.3869
-11.4145
-11.4369
-8.72293
-8.75657
-8.84781
-8.96836
-9.09963
-9.23679
-9.37566
-9.51221
-9.64448
-9.77171
-9.89354
-10.0098
-10.1207
-10.2262
-10.3266
-10.422
-10.5127
-10.5989
-10.6806
-10.758
-10.8312
-10.9003
-10.9653
-11.0262
-11.0831
-11.1358
-11.1843
-11.2286
-11.2686
-11.3041
-11.3352
-11.3616
-11.3834
-8.75491
-8.78451
-8.86511
-8.97355
-9.09443
-9.22317
-9.35553
-9.48748
-9.61674
-9.74215
-9.863
-9.97889
-10.0896
-10.1952
-10.2957
-10.3912
-10.4818
-10.5677
-10.649
-10.7257
-10.798
-10.866
-10.9297
-10.9892
-11.0445
-11.0956
-11.1425
-11.1852
-11.2236
-11.2578
-11.2876
-11.3133
-11.3347
-8.7738
-8.80038
-8.87301
-8.97213
-9.0848
-9.20677
-9.33385
-9.46203
-9.58885
-9.7128
-9.8329
-9.94849
-10.0592
-10.1649
-10.2655
-10.361
-10.4515
-10.5371
-10.6178
-10.6939
-10.7653
-10.8322
-10.8947
-10.9528
-11.0067
-11.0562
-11.1016
-11.1428
-11.1799
-11.2129
-11.2418
-11.2669
-11.288
-8.77989
-8.8043
-8.87113
-8.96339
-9.06991
-9.18681
-9.30999
-9.43548
-9.56065
-9.68378
-9.80362
-9.91933
-10.0304
-10.1365
-10.2374
-10.3331
-10.4237
-10.5092
-10.5896
-10.6651
-10.7358
-10.8018
-10.8632
-10.9202
-10.9727
-11.021
-11.0651
-11.105
-11.1409
-11.1729
-11.2011
-11.2257
-11.2466
-8.77321
-8.79613
-8.85902
-8.94658
-9.04888
-9.16237
-9.28301
-9.40686
-9.53116
-9.65401
-9.77398
-9.89006
-10.0016
-10.1081
-10.2095
-10.3054
-10.3961
-10.4814
-10.5614
-10.6364
-10.7063
-10.7714
-10.8318
-10.8875
-10.9388
-10.9858
-11.0286
-11.0674
-11.1022
-11.1333
-11.1607
-11.1848
-11.2056
-8.75345
-8.77551
-8.83612
-8.92103
-9.0211
-9.133
-9.25276
-9.37642
-9.5011
-9.62475
-9.74577
-9.863
-9.97566
-10.0832
-10.1854
-10.282
-10.373
-10.4585
-10.5384
-10.613
-10.6824
-10.7467
-10.8062
-10.8609
-10.9112
-10.957
-10.9987
-11.0364
-11.0702
-11.1004
-11.1271
-11.1506
-11.1711
-8.72001
-8.74176
-8.8016
-8.88572
-8.98536
-9.0973
-9.21757
-9.34214
-9.46807
-9.59314
-9.71565
-9.83435
-9.94836
-10.0571
-10.1602
-10.2575
-10.3489
-10.4344
-10.5143
-10.5885
-10.6572
-10.7208
-10.7793
-10.833
-10.882
-10.9267
-10.9672
-11.0037
-11.0365
-11.0658
-11.0917
-11.1146
-11.1347
-8.67192
-8.69397
-8.75466
-8.84012
-8.94162
-9.05594
-9.179
-9.30663
-9.4357
-9.56389
-9.68935
-9.81074
-9.9271
-10.0378
-10.1425
-10.241
-10.3332
-10.4192
-10.4991
-10.5732
-10.6415
-10.7044
-10.762
-10.8147
-10.8627
-10.9062
-10.9456
-10.981
-11.0126
-11.0409
-11.0659
-11.088
-11.1073
-8.60777
-8.63063
-8.6936
-8.78214
-8.88713
-9.00525
-9.13228
-9.2639
-9.39688
-9.52876
-9.65765
-9.78209
-9.90112
-10.0141
-10.1205
-10.2204
-10.3135
-10.4
-10.4801
-10.5539
-10.6218
-10.6839
-10.7407
-10.7923
-10.8391
-10.8814
-10.9194
-10.9535
-10.984
-11.0111
-11.035
-11.0562
-11.0749
-8.52572
-8.5503
-8.61788
-8.71269
-8.82477
-8.95044
-9.08511
-9.22407
-9.36385
-9.50187
-9.63613
-9.76519
-9.88806
-10.0041
-10.113
-10.2146
-10.309
-10.3962
-10.4765
-10.5503
-10.6177
-10.6791
-10.7349
-10.7854
-10.8309
-10.8719
-10.9085
-10.9412
-10.9702
-10.9959
-11.0184
-11.0382
-11.0555
-8.42292
-8.44954
-8.52294
-8.6252
-8.74514
-8.87896
-9.02183
-9.16875
-9.31604
-9.46097
-9.60145
-9.73595
-9.86344
-9.98331
-10.0952
-10.1991
-10.2951
-10.3833
-10.4641
-10.5378
-10.6048
-10.6655
-10.7203
-10.7696
-10.8137
-10.8532
-10.8882
-10.9193
-10.9467
-10.9708
-10.9919
-11.0104
-11.0265
-8.29654
-8.32759
-8.41217
-8.52882
-8.66391
-8.81278
-8.96983
-9.12948
-9.28788
-9.44233
-9.5908
-9.73186
-9.86465
-9.98868
-10.1038
-10.2099
-10.3074
-10.3965
-10.4775
-10.551
-10.6173
-10.677
-10.7305
-10.7782
-10.8207
-10.8583
-10.8914
-10.9204
-10.9458
-10.9678
-10.9868
-11.003
-11.0168
-8.14002
-8.17397
-8.26849
-8.39764
-8.54599
-8.70916
-8.88096
-9.05494
-9.22672
-9.39328
-9.55237
-9.70249
-9.84278
-9.97282
-10.0925
-10.2021
-10.3019
-10.3924
-10.4741
-10.5476
-10.6133
-10.672
-10.7242
-10.7703
-10.811
-10.8466
-10.8776
-10.9046
-10.9278
-10.9477
-10.9646
-10.979
-10.9911
-7.9513
-7.99808
-8.11957
-8.27884
-8.45487
-8.64275
-8.8359
-9.02776
-9.21438
-9.39321
-9.56234
-9.72055
-9.86725
-10.0022
-10.1257
-10.2378
-10.3392
-10.4304
-10.5121
-10.5849
-10.6494
-10.7065
-10.7566
-10.8004
-10.8385
-10.8714
-10.8995
-10.9234
-10.9435
-10.9602
-10.9738
-10.9848
-10.9934
-7.70879
-7.75466
-7.88983
-8.06936
-8.27003
-8.48633
-8.70836
-8.92711
-9.13775
-9.33731
-9.52368
-9.69581
-9.85342
-9.99669
-10.1261
-10.2424
-10.3464
-10.4389
-10.5209
-10.5933
-10.6568
-10.7123
-10.7605
-10.8021
-10.8377
-10.868
-10.8935
-10.9146
-10.9319
-10.9457
-10.9567
-10.9651
-10.9714
-7.4306
-7.52416
-7.7272
-7.95994
-8.19799
-8.44398
-8.69003
-8.92816
-9.15504
-9.36842
-9.56647
-9.7483
-9.91376
-10.0631
-10.1969
-10.3161
-10.4215
-10.5143
-10.5955
-10.6661
-10.7271
-10.7795
-10.8242
-10.8618
-10.8933
-10.9191
-10.9399
-10.9563
-10.9686
-10.9775
-10.9833
-10.9865
-10.9876
-7.00689
-7.07447
-7.30809
-7.59788
-7.90314
-8.21686
-8.52238
-8.80988
-9.07668
-9.32115
-9.5426
-9.7416
-9.91929
-10.077
-10.2163
-10.3388
-10.4458
-10.5389
-10.6195
-10.6888
-10.748
-10.7982
-10.8404
-10.8753
-10.9038
-10.9265
-10.9441
-10.9571
-10.966
-10.9712
-10.9733
-10.9728
-10.9703
-6.64201
-6.89415
-7.24896
-7.56556
-7.88249
-8.21428
-8.53754
-8.8435
-9.13042
-9.39477
-9.63426
-9.84861
-10.0385
-10.2051
-10.35
-10.4751
-10.5824
-10.6736
-10.7507
-10.8152
-10.8687
-10.9125
-10.9477
-10.9755
-10.9967
-11.0121
-11.0223
-11.0278
-11.0291
-11.0264
-11.0201
-11.0108
-10.9986
-5.58799
-5.8533
-6.46221
-7.00553
-7.50361
-7.97528
-8.39612
-8.76863
-9.10033
-9.39402
-9.65273
-9.87992
-10.0785
-10.2512
-10.4005
-10.5286
-10.6376
-10.7297
-10.8066
-10.8702
-10.922
-10.9635
-10.9959
-11.0204
-11.0379
-11.0493
-11.0552
-11.056
-11.0519
-11.0431
-11.0289
-11.0106
-10.9843
-5.63824
-6.19753
-6.63734
-6.99907
-7.47175
-7.96272
-8.42182
-8.85176
-9.24402
-9.59033
-9.89057
-10.1474
-10.3642
-10.545
-10.694
-10.8154
-10.9132
-10.9908
-11.0514
-11.0975
-11.1315
-11.1554
-11.1709
-11.1793
-11.1818
-11.1794
-11.1727
-11.1622
-11.1477
-11.1287
-11.1029
-11.0682
-11.0136
-0.696633
-4.38793
-5.71118
-6.37804
-7.17268
-7.84463
-8.38238
-8.85196
-9.26082
-9.61033
-9.90824
-10.1606
-10.3724
-10.5484
-10.6935
-10.8116
-10.9067
-10.9822
-11.041
-11.0857
-11.1186
-11.1415
-11.1562
-11.164
-11.1662
-11.1636
-11.1573
-11.1478
-11.136
-11.1215
-11.1067
-11.0873
-11.0728
-12.6867
-13.3375
-14.1487
-14.463
-14.46
-14.1974
-13.575
-12.5861
-11.3399
-10.0059
-8.7377
-7.66183
-6.91822
-6.65125
-6.96888
-7.90538
-9.48195
-11.7036
-14.5451
-17.9263
-21.6952
-25.6255
-29.4294
-32.7987
-35.4598
-37.099
-37.3268
-35.8194
-32.7722
-28.8653
-24.7718
-20.8701
-17.2978
-14.0909
-11.2474
-8.74638
-6.55584
-4.64273
-2.98163
-1.55913
-0.374493
0.56372
1.24046
1.61087
1.60032
1.02596
-0.610557
-4.07933
-9.7338
-16.9102
-24.3457
-30.8449
-35.5031
-37.7239
-37.3459
-34.4827
-29.7835
-24.1758
-18.5944
-13.701
-9.76342
-6.75699
-4.53233
-2.92341
-1.78588
-1.00244
-0.479964
-0.145913
0.0550767
0.164468
0.212444
0.220022
0.200253
0.158608
0.0932611
-0.00479788
-0.152202
-0.377846
-0.746972
-1.43682
-2.88672
-5.86177
-10.9441
-17.6231
-24.1121
-27.995
-27.7475
-23.3111
-16.4638
-9.76641
-4.95659
-2.23734
-0.921487
-0.33595
-0.0862602
0.0121533
0.0399424
0.034728
-0.00411335
0.0163801
-12.8652
-13.3677
-14.0545
-14.3515
-14.3395
-14.0566
-13.4133
-12.406
-11.1433
-9.79548
-8.52837
-7.48087
-6.77843
-6.52869
-6.84242
-7.81445
-9.43622
-11.6625
-14.4497
-17.7172
-21.3221
-25.0574
-28.6696
-31.8947
-34.4101
-35.8421
-35.7646
-34.0202
-31.0036
-27.3766
-23.6579
-20.0971
-16.7937
-13.7882
-11.0929
-8.69994
-6.58865
-4.73478
-3.11903
-1.73134
-0.572462
0.348059
1.01308
1.37908
1.36958
0.817821
-0.693756
-3.84565
-8.99246
-15.6027
-22.549
-28.687
-33.1231
-35.2672
-34.9771
-32.3676
-28.0643
-22.9339
-17.8221
-13.3128
-9.64214
-6.79724
-4.65903
-3.08945
-1.96354
-1.17609
-0.641363
-0.291343
-0.0733667
0.052429
0.115269
0.135567
0.125965
0.0918552
0.0313145
-0.0646645
-0.212526
-0.439776
-0.805706
-1.46824
-2.82201
-5.56542
-10.2485
-16.4282
-22.4652
-26.1108
-25.9461
-21.8844
-15.5538
-9.33515
-4.84357
-2.26871
-0.988017
-0.394455
-0.128959
-0.0185318
0.0173664
0.0184839
-0.0116554
0.0116542
-12.8335
-13.3057
-13.8912
-14.1582
-14.1186
-13.8045
-13.1543
-12.1746
-10.9681
-9.6863
-8.47543
-7.46548
-6.78673
-6.56174
-6.90736
-7.87768
-9.48671
-11.6964
-14.4288
-17.5852
-21.0315
-24.5831
-28.0164
-31.0555
-33.3146
-34.3904
-33.9437
-32.0537
-29.2002
-25.9305
-22.5922
-19.3527
-16.3004
-13.4867
-10.9366
-8.65249
-6.62298
-4.8315
-3.26438
-1.91491
-0.785547
0.113182
0.76202
1.1187
1.10663
0.573191
-0.828788
-3.6829
-8.32659
-14.345
-20.7551
-26.4875
-30.6743
-32.7345
-32.5459
-30.2144
-26.3325
-21.6958
-17.057
-12.9275
-9.51866
-6.83346
-4.78263
-3.25446
-2.14219
-1.35225
-0.806262
-0.440807
-0.20603
-0.0637706
0.0141557
0.0474976
0.0484558
0.0223567
-0.0327939
-0.125929
-0.27325
-0.500995
-0.863144
-1.49931
-2.75931
-5.27252
-9.55239
-15.2212
-20.7926
-24.1939
-24.1096
-20.428
-14.6273
-8.9014
-4.73575
-2.30687
-1.06081
-0.458434
-0.176171
-0.0525936
-0.00729477
0.000960177
-0.0190808
0.00620772
-12.8308
-13.2135
-13.6511
-13.8533
-13.7862
-13.4665
-12.8539
-11.9566
-10.8605
-9.6928
-8.58677
-7.66521
-7.04878
-6.85207
-7.1935
-8.14472
-9.71016
-11.8498
-14.4918
-17.5284
-20.8176
-24.178
-27.3899
-30.1257
-31.9898
-32.6223
-31.8928
-30.0306
-27.4647
-24.5731
-21.5847
-18.6355
-15.8162
-13.1867
-10.7795
-8.60487
-6.65918
-4.93278
-3.4172
-2.10904
-1.01256
-0.139403
0.48929
0.832796
0.815503
0.296933
-1.00843
-3.58505
-7.73994
-13.1573
-19.0001
-24.2932
-28.2097
-30.187
-30.1061
-28.0715
-24.6272
-20.4874
-16.3131
-12.5504
-9.39426
-6.86538
-4.90253
-3.41785
-2.32135
-1.53057
-0.97442
-0.594154
-0.342827
-0.184079
-0.0908437
-0.044079
-0.0320641
-0.0496239
-0.0987699
-0.188263
-0.334039
-0.561111
-0.918422
-1.52814
-2.69607
-4.98192
-8.8593
-14.0137
-19.1157
-22.2715
-22.2667
-18.9677
-13.704
-8.47677
-4.63765
-2.35246
-1.13945
-0.527579
-0.227888
-0.0901667
-0.0341706
-0.0178921
-0.0264473
5.86586e-05
-12.742
-13.0257
-13.3348
-13.4767
-13.3951
-13.094
-12.5525
-11.7816
-10.8497
-9.85761
-8.9065
-8.09754
-7.54548
-7.37155
-7.69252
-8.58806
-10.0755
-12.1154
-14.6298
-17.5074
-20.5986
-23.7114
-26.6003
-28.9161
-30.3074
-30.5744
-29.752
-28.0757
-25.8456
-23.3061
-20.6305
-17.9454
-15.3443
-12.8914
-10.6239
-8.55855
-6.69814
-5.03911
-3.57767
-2.31356
-1.25297
-0.408661
0.196537
0.523463
0.499269
-0.00537851
-1.22498
-3.54936
-7.24412
-12.072
-17.3346
-22.1647
-25.7925
-27.682
-27.7133
-25.9846
-22.9797
-19.3267
-15.5982
-12.1846
-9.27017
-6.89376
-5.01919
-3.57983
-2.50106
-1.71106
-1.14587
-0.75145
-0.48384
-0.308582
-0.199811
-0.139262
-0.11572
-0.124178
-0.166641
-0.251629
-0.394756
-0.619869
-0.971196
-1.55444
-2.63292
-4.69766
-8.18037
-12.8261
-17.4611
-20.372
-20.4434
-17.5248
-12.7987
-8.0694
-4.5525
-2.40658
-1.22453
-0.602441
-0.284619
-0.131632
-0.0634929
-0.0381323
-0.0338014
-0.00670457
-12.6384
-12.8487
-13.0586
-13.1447
-13.0522
-12.7773
-12.3102
-11.6623
-10.8866
-10.0627
-9.27873
-8.62238
-8.1811
-8.05259
-8.34552
-9.14867
-10.5007
-12.3796
-14.7092
-17.3681
-20.1931
-22.9759
-25.4367
-27.2863
-28.3051
-28.422
-27.6951
-26.2783
-24.3629
-22.1287
-19.7282
-17.2834
-14.8866
-12.6024
-10.4712
-8.51439
-6.74025
-5.15045
-3.74538
-2.52773
-1.50557
-0.692807
-0.11363
0.194197
0.1618
-0.328836
-1.47132
-3.57146
-6.84626
-11.1154
-15.8042
-20.1606
-23.4867
-25.2828
-25.4254
-23.9988
-21.4202
-18.2297
-14.919
-11.8323
-9.14731
-6.91898
-5.13268
-3.74031
-2.68122
-1.89362
-1.32056
-0.912668
-0.629061
-0.43727
-0.31272
-0.237976
-0.20237
-0.201119
-0.236207
-0.315825
-0.455178
-0.677017
-1.02127
-1.57855
-2.57198
-4.42581
-7.52807
-11.678
-15.8543
-18.5232
-18.6676
-16.1235
-11.9286
-7.68832
-4.48336
-2.46965
-1.31585
-0.682862
-0.346311
-0.176968
-0.0952503
-0.059705
-0.0411994
-0.0139739
-12.5239
-12.6789
-12.8187
-12.8637
-12.7665
-12.5179
-12.1135
-11.5654
-10.9168
-10.2335
-9.59324
-9.07074
-8.7388
-8.67856
-8.97494
-9.70089
-10.898
-12.561
-14.6292
-16.9865
-19.4663
-21.8474
-23.8927
-25.4175
-26.2836
-26.4213
-25.8481
-24.6621
-23.006
-21.0313
-18.8753
-16.6509
-14.4453
-12.3219
-10.3229
-8.47329
-6.7859
-5.26675
-3.91991
-2.75076
-1.76919
-0.990136
-0.438792
-0.151649
-0.192761
-0.668528
-1.73972
-3.64205
-6.54251
-10.2986
-14.4407
-18.3302
-21.3507
-23.0472
-23.2921
-22.1502
-19.9694
-17.2056
-14.2788
-11.4949
-9.02648
-6.94167
-5.24341
-3.89949
-2.8619
-2.07832
-1.49854
-1.07787
-0.778549
-0.570189
-0.429589
-0.340221
-0.291996
-0.280382
-0.307334
-0.380663
-0.515067
-0.732256
-1.06827
-1.60024
-2.51415
-4.17046
-6.91227
-10.5866
-14.3189
-16.752
-16.966
-14.7861
-11.1087
-7.3409
-4.43232
-2.54187
-1.41338
-0.768865
-0.413006
-0.226182
-0.129439
-0.0825441
-0.0487113
-0.021598
-12.4085
-12.5249
-12.617
-12.6323
-12.5334
-12.3096
-11.9599
-11.4967
-10.9557
-10.3906
-9.86566
-9.44603
-9.19872
-9.19349
-9.49728
-10.1641
-11.2232
-12.6685
-14.4508
-16.4712
-18.5833
-20.6142
-22.3843
-23.7298
-24.515
-24.6721
-24.2107
-23.202
-21.7591
-20.0094
-18.0723
-16.0494
-14.0219
-12.0511
-10.18
-8.43585
-6.8352
-5.38768
-4.10052
-2.98155
-2.04225
-1.29856
-0.776128
-0.510316
-0.560008
-1.01963
-2.02298
-3.75004
-6.32203
-9.62016
-13.2597
-16.7059
-19.4269
-21.0178
-21.3488
-20.4621
-18.6391
-16.2584
-13.6786
-11.1729
-8.90846
-6.9625
-5.35177
-4.05756
-3.04321
-2.26521
-1.67988
-1.24712
-0.932345
-0.707347
-0.550386
-0.445907
-0.384442
-0.361757
-0.379774
-0.445881
-0.574144
-0.78527
-1.11184
-1.6192
-2.45985
-3.93454
-6.34123
-9.56768
-12.8772
-15.0838
-15.3637
-13.534
-10.353
-7.03319
-4.40066
-2.62309
-1.51684
-0.86022
-0.48446
-0.279006
-0.16585
-0.106471
-0.056392
-0.0293879
-12.294
-12.3804
-12.4381
-12.4322
-12.3348
-12.1356
-11.8354
-11.4461
-10.9973
-10.5336
-10.1091
-9.77999
-9.60403
-9.63947
-9.94122
-10.5521
-11.4925
-12.7531
-14.2898
-16.0213
-17.8321
-19.5846
-21.1196
-22.2842
-22.9721
-23.1268
-22.745
-21.8774
-20.614
-19.0603
-17.3186
-15.4795
-13.6176
-11.7914
-10.0433
-8.40257
-6.88819
-5.51283
-4.28639
-3.21883
-2.32309
-1.61588
-1.1229
-0.87823
-0.935601
-1.37755
-2.31501
-3.8848
-6.17017
-9.06703
-12.2578
-15.2975
-17.7345
-19.2154
-19.6113
-18.9423
-17.4302
-15.3865
-13.1172
-10.8666
-8.79411
-6.98226
-5.45832
-4.21488
-3.22539
-2.45449
-1.86473
-1.42052
-1.09053
-0.848783
-0.675093
-0.554963
-0.479586
-0.44506
-0.453274
-0.511178
-0.632096
-0.83572
-1.1516
-1.63499
-2.4091
-3.72006
-5.82141
-8.634
-11.5479
-13.5407
-13.8832
-12.3856
-9.67265
-6.76902
-4.38864
-2.71299
-1.62605
-0.956744
-0.560407
-0.335135
-0.204254
-0.131296
-0.0643048
-0.0371422
-12.1833
-12.2476
-12.2819
-12.263
-12.1702
-11.9951
-11.7392
-11.4141
-11.0447
-10.668
-10.3291
-10.0761
-9.95839
-10.0254
-10.3218
-10.8815
-11.7192
-12.8247
-14.159
-15.6527
-17.208
-18.7037
-20.0149
-21.0172
-21.6155
-21.7552
-21.429
-20.6751
-19.5636
-18.1807
-16.6134
-14.9416
-13.2333
-11.5435
-9.91368
-8.37376
-6.94473
-5.6416
-4.4765
-3.46119
-2.60979
-1.93966
-1.47616
-1.25184
-1.31536
-1.73798
-2.61077
-4.03722
-6.07128
-8.61917
-11.4165
-14.093
-16.2679
-17.637
-18.0751
-17.5842
-16.336
-14.5855
-12.5932
-10.5763
-8.68435
-7.00184
-5.5637
-4.37192
-3.40877
-2.64642
-2.05329
-1.59825
-1.25321
-0.99453
-0.803668
-0.667266
-0.577225
-0.530017
-0.527503
-0.57619
-0.688561
-0.883238
-1.18712
-1.64708
-2.36142
-3.5276
-5.35666
-7.79482
-10.3457
-12.1409
-12.543
-11.3553
-9.07505
-6.54989
-4.39573
-2.81115
-1.74084
-1.05821
-0.640456
-0.394109
-0.244296
-0.15675
-0.0724762
-0.0446391
-12.0778
-12.1254
-12.1438
-12.1171
-12.0308
-11.8785
-11.6623
-11.3929
-11.0916
-10.7891
-10.5234
-10.3351
-10.2663
-10.3579
-10.6463
-11.158
-11.9036
-12.8726
-14.0304
-15.3171
-16.6495
-17.9273
-19.0461
-19.901
-20.411
-20.5289
-20.2445
-19.5837
-18.6012
-17.367
-15.9552
-14.4356
-12.8697
-11.3083
-9.79157
-8.34956
-7.00455
-5.7733
-4.66972
-3.70705
-2.90036
-2.26743
-1.83295
-1.62776
-1.69546
-2.09696
-2.90612
-4.20025
-6.01168
-8.25521
-10.7093
-13.0654
-15.0028
-16.2607
-16.7205
-16.3717
-15.3457
-13.8498
-12.1051
-10.3024
-8.58016
-7.02217
-5.6687
-4.52926
-3.59384
-2.84138
-2.24588
-1.78054
-1.42053
-1.14465
-0.936075
-0.782687
-0.677145
-0.616337
-0.602097
-0.640506
-0.74313
-0.927433
-1.218
-1.65481
-2.31575
-3.35628
-4.94786
-7.05498
-9.28022
-10.8974
-11.3562
-10.4524
-8.56308
-6.3748
-4.42075
-2.9173
-1.86125
-1.16445
-0.724228
-0.455474
-0.285633
-0.182572
-0.0809261
-0.0516786
-11.9784
-12.0139
-12.0222
-11.9922
-11.9143
-11.7838
-11.6032
-11.3825
-11.1396
-10.9004
-10.6963
-10.5618
-10.5322
-10.6414
-10.9189
-11.3853
-12.0478
-12.8958
-13.8987
-15.0051
-16.1442
-17.2328
-18.1827
-18.9075
-19.3383
-19.4326
-19.1781
-18.5931
-17.7201
-16.6158
-15.3427
-13.9614
-12.527
-11.0862
-9.67731
-8.33001
-7.06728
-5.90713
-4.86483
-3.95478
-3.19273
-2.59666
-2.19033
-2.00272
-2.07243
-2.45103
-3.19761
-4.36878
-5.98102
-7.95703
-10.1106
-12.1841
-13.9073
-15.0571
-15.5231
-15.2873
-14.4486
-13.1748
-11.6515
-10.0454
-8.48255
-7.04429
-5.77417
-4.68764
-3.7812
-3.03989
-2.44291
-1.9677
-1.5927
-1.29921
-1.07227
-0.901059
-0.779069
-0.703659
-0.676626
-0.703648
-0.795338
-0.967885
-1.24379
-1.6575
-2.27069
-3.20381
-4.59288
-6.41453
-8.35512
-9.81664
-10.3287
-9.67909
-8.13467
-6.24069
-4.46241
-3.03148
-1.98749
-1.27538
-0.811354
-0.518758
-0.32787
-0.208466
-0.0896292
-0.0580614
-11.8855
-11.9123
-11.9145
-11.8845
-11.8157
-11.7055
-11.5565
-11.3777
-11.1846
-10.9988
-10.8465
-10.7566
-10.7584
-10.8799
-11.1446
-11.5686
-12.1561
-12.8968
-13.7637
-14.7128
-15.6844
-16.6088
-17.412
-18.0219
-18.38
-18.449
-18.2163
-17.6938
-16.9142
-15.9236
-14.7741
-13.5184
-12.2052
-10.8775
-9.57106
-8.31498
-7.13243
-6.04221
-5.06055
-4.20268
-3.48479
-2.92485
-2.54546
-2.37364
-2.44311
-2.79714
-3.48236
-4.53901
-5.97198
-7.71129
-9.60011
-11.4234
-12.9534
-14.0001
-14.4619
-14.3162
-13.6362
-12.5564
-11.2316
-9.80574
-8.39247
-7.06925
-5.88114
-4.84796
-3.97163
-3.24261
-2.64495
-2.16016
-1.77
-1.45835
-1.2122
-1.0222
-0.88269
-0.791574
-0.750613
-0.765089
-0.844662
-1.00414
-1.26407
-1.65444
-2.22453
-3.06674
-4.28661
-5.86838
-7.56716
-8.89727
-9.45815
-9.03008
-7.78308
-6.14326
-4.51974
-3.15425
-2.12009
-1.39106
-0.901564
-0.583569
-0.370656
-0.234164
-0.0985495
-0.0636142
-11.7992
-11.8202
-11.8193
-11.7915
-11.7326
-11.6411
-11.5202
-11.3778
-11.2271
-11.0862
-10.9769
-10.9232
-10.9493
-11.078
-11.3283
-11.712
-12.2316
-12.8771
-13.6247
-14.4366
-15.2626
-16.0445
-16.7198
-17.2287
-17.5216
-17.5658
-17.3487
-16.8777
-16.178
-15.2867
-14.2476
-13.1057
-11.9042
-10.6821
-9.47282
-8.30426
-7.19945
-6.17761
-5.25555
-4.44905
-3.77448
-3.24957
-2.89562
-2.73763
-2.80467
-3.13273
-3.75798
-4.70792
-5.97911
-7.50833
-9.16326
-10.7645
-12.1204
-13.0701
-13.5207
-13.4468
-12.9014
-11.9911
-10.8441
-9.58362
-8.31087
-7.09822
-5.99076
-5.01129
-4.16612
-3.45042
-2.85271
-2.35847
-1.95277
-1.62219
-1.35582
-1.14588
-0.987637
-0.879601
-0.823503
-0.824235
-0.890517
-1.03571
-1.27842
-1.64502
-2.1755
-2.94077
-4.02145
-5.40645
-6.90583
-8.12895
-8.73254
-8.49265
-7.49835
-6.07821
-4.59267
-3.28675
-2.25987
-1.51172
-0.994706
-0.64959
-0.41368
-0.259371
-0.107614
-0.0681509
-11.7193
-11.7367
-11.7349
-11.7107
-11.6617
-11.5875
-11.4912
-11.3798
-11.2648
-11.1612
-11.0872
-11.0625
-11.107
-11.2391
-11.4738
-11.8198
-12.2781
-12.839
-13.4817
-14.174
-14.8736
-15.5317
-16.0958
-16.5161
-16.7506
-16.771
-16.565
-16.137
-15.5059
-14.7018
-13.7611
-12.7224
-11.6237
-10.5
-9.38246
-8.29752
-7.26774
-6.31237
-5.44851
-4.6922
-4.05976
-3.5685
-3.23831
-3.09207
-3.15462
-3.4556
-4.02247
-4.87299
-5.99797
-7.34044
-8.78863
-10.193
-11.3923
-12.2514
-12.6858
-12.6687
-12.2373
-11.4754
-10.4878
-9.37929
-8.23867
-7.13241
-6.10432
-5.17892
-4.36588
-3.66441
-3.06714
-2.56335
-2.14149
-1.79097
-1.50311
-1.27186
-1.09349
-0.967191
-0.894674
-0.880432
-0.932258
-1.06203
-1.28641
-1.62868
-2.12195
-2.8213
-3.7881
-5.01447
-6.35346
-7.4912
-8.13109
-8.04879
-7.26965
-6.0425
-4.68232
-3.43079
-2.408
-1.63781
-1.09076
-0.716575
-0.456678
-0.283799
-0.116745
-0.0714776
-11.6455
-11.6608
-11.6597
-11.6401
-11.6009
-11.5422
-11.4673
-11.3825
-11.2975
-11.2247
-11.1792
-11.1772
-11.2349
-11.367
-11.5851
-11.8957
-12.2983
-12.7841
-13.3348
-13.9229
-14.5128
-15.0635
-15.5311
-15.874
-16.0569
-16.0551
-15.857
-15.4648
-14.893
-14.1655
-13.3126
-12.3674
-11.363
-10.331
-9.29975
-8.29438
-7.33664
-6.44553
-5.63814
-4.93052
-4.33873
-3.87948
-3.57123
-3.43459
-3.49082
-3.7639
-4.27423
-5.03216
-6.0248
-7.20103
-8.46636
-9.69609
-10.7551
-11.5299
-11.9447
-11.9722
-11.6377
-11.0057
-10.1616
-9.19291
-8.17682
-7.17315
-6.22331
-5.35238
-4.5724
-3.88595
-3.28939
-2.77572
-2.33678
-1.96497
-1.65405
-1.39983
-1.19976
-1.05371
-0.963409
-0.932942
-0.969176
-1.08251
-1.28761
-1.60498
-2.06256
-2.70403
-3.57675
-4.67561
-5.88684
-6.95693
-7.6277
-7.67921
-7.08803
-6.03535
-4.79109
-3.58882
-2.56605
-1.77006
-1.18984
-0.784248
-0.49936
-0.307116
-0.12584
-0.0733533
-11.5777
-11.5922
-11.5927
-11.5782
-11.5481
-11.5034
-11.447
-11.3846
-11.3243
-11.2766
-11.2538
-11.2691
-11.3356
-11.465
-11.6661
-11.9435
-12.2959
-12.715
-13.1848
-13.6821
-14.1768
-14.6344
-15.0184
-15.2939
-15.4312
-15.4091
-15.2168
-14.8549
-14.3343
-13.6744
-12.9
-12.0394
-11.1216
-10.1746
-9.22436
-8.2944
-7.40549
-6.57616
-5.82322
-5.1625
-4.60962
-4.18056
-3.8923
-3.76321
-3.81149
-4.05617
-4.51198
-5.18375
-6.05649
-7.08449
-8.18791
-9.26281
-10.1963
-10.8931
-11.2861
-11.3486
-11.0964
-10.5788
-9.86399
-9.02454
-8.12624
-7.22186
-6.34943
-5.53349
-4.7875
-4.11675
-3.52098
-2.99675
-2.53942
-2.14457
-1.80864
-1.52946
-1.30589
-1.13843
-1.02891
-0.980951
-1.0005
-1.09647
-1.28156
-1.5736
-1.99641
-2.58554
-3.3785
-4.37314
-5.48116
-6.49768
-7.19727
-7.36835
-6.94863
-6.05835
-4.92247
-3.764
-2.73611
-1.90942
-1.29216
-0.852339
-0.54139
-0.328945
-0.134786
-0.0734956
-11.5149
-11.5295
-11.5323
-11.5229
-11.5013
-11.4688
-11.4283
-11.3845
-11.3445
-11.3169
-11.3118
-11.3399
-11.4116
-11.536
-11.7199
-11.9662
-12.2732
-12.6331
-13.0321
-13.4503
-13.8624
-14.2396
-14.5513
-14.7684
-14.8659
-14.8255
-14.6376
-14.3016
-13.8256
-13.2252
-12.5211
-11.7372
-10.8986
-10.0303
-9.15588
-8.2971
-7.47366
-6.70336
-6.00259
-5.38673
-4.87083
-4.46998
-4.19975
-4.07629
-4.11522
-4.33125
-4.73471
-5.32643
-6.09043
-6.98609
-7.94601
-8.88348
-9.70496
-10.33
-10.7002
-10.7899
-10.608
-10.1913
-9.59366
-8.87417
-8.08786
-7.28008
-6.48461
-5.7244
-5.01341
-4.35897
-3.76379
-3.22793
-2.75043
-2.33028
-1.96693
-1.66042
-1.41123
-1.22054
-1.09025
-1.02354
-1.02537
-1.1032
-1.26773
-1.53425
-1.92306
-2.46368
-3.18688
-4.09378
-5.11627
-6.09138
-6.82273
-7.10786
-6.8508
-6.11492
-5.08102
-3.96033
-2.92086
-2.05716
-1.39791
-0.920587
-0.582337
-0.348831
-0.143445
-0.0715572
-11.4575
-11.4727
-11.4781
-11.4736
-11.4598
-11.4379
-11.4106
-11.3823
-11.3586
-11.3468
-11.3551
-11.392
-11.4658
-11.5835
-11.7502
-11.9676
-12.2335
-12.5409
-12.8777
-13.2271
-13.5677
-13.8754
-14.1247
-14.2913
-14.3542
-14.2978
-14.1133
-13.7996
-13.3627
-12.8151
-12.1739
-11.4593
-10.6932
-9.89759
-9.09386
-8.302
-7.5405
-6.82633
-6.17522
-5.60198
-5.12095
-4.74626
-4.49207
-4.37252
-4.40084
-4.58827
-4.9417
-5.45916
-6.1245
-6.90186
-7.73445
-8.5499
-9.27131
-9.83061
-10.1777
-10.2886
-10.167
-9.83991
-9.3491
-8.74171
-8.06261
-7.34949
-6.63108
-5.9277
-5.25289
-4.61526
-4.02019
-3.47119
-2.97112
-2.52278
-2.12902
-1.79236
-1.51508
-1.2991
-1.14643
-1.05971
-1.04288
-1.1019
-1.24557
-1.48664
-1.84235
-2.33751
-2.99836
-3.82956
-4.78122
-5.7268
-6.49606
-6.8947
-6.79611
-6.20969
-5.27249
-4.1829
-3.12362
-2.2148
-1.50726
-0.988635
-0.621663
-0.366237
-0.151648
-0.0671394
-11.4038
-11.42
-11.4281
-11.4282
-11.4211
-11.4082
-11.392
-11.3761
-11.3654
-11.3657
-11.3837
-11.4262
-11.4997
-11.6095
-11.7592
-11.9498
-12.1786
-12.4395
-12.722
-13.0116
-13.2904
-13.5382
-13.7339
-13.8571
-13.8902
-13.8198
-13.6383
-13.3441
-12.9417
-12.4409
-11.8561
-11.2043
-10.5044
-9.77585
-9.03782
-8.30862
-7.60546
-6.94434
-6.34021
-5.80719
-5.35879
-5.00814
-4.76805
-4.65081