/*--------------------------------*- C++ -*----------------------------------*\
  =========                 |
  \\      /  F ield         | OpenFOAM: The Open Source CFD Toolbox
   \\    /   O peration     | Website:  https://openfoam.org
    \\  /    A nd           | Version:  10
     \\/     M anipulation  |
\*---------------------------------------------------------------------------*/
FoamFile
{
    format      ascii;
    class       surfaceScalarField;
    location    "0.15";
    object      phi;
}
// * * * * * * * * * * * * * * * * * * * * * * * * * * * * * * * * * * * * * //

dimensions      [0 3 -1 0 0 0 0];

internalField   nonuniform List<scalar> 
13452
(
4.01928e-05
2.00756e-05
2.59362e-05
1.42567e-05
1.85338e-05
7.40232e-06
1.51627e-05
3.37115e-06
1.37493e-05
1.41337e-06
1.30422e-05
7.07123e-07
1.25889e-05
4.53247e-07
1.22377e-05
3.51242e-07
1.19388e-05
2.98855e-07
1.16804e-05
2.58396e-07
1.14584e-05
2.22077e-07
1.12688e-05
1.89561e-07
1.11077e-05
1.61121e-07
1.0971e-05
1.36684e-07
1.08552e-05
1.15785e-07
1.07574e-05
9.78076e-08
1.06753e-05
8.21547e-08
1.06069e-05
6.83029e-08
1.05511e-05
5.58149e-08
1.05068e-05
4.43282e-08
1.04733e-05
3.35394e-08
1.04501e-05
2.31884e-08
1.04371e-05
1.30145e-08
1.04346e-05
2.45989e-09
1.04424e-05
-7.80323e-09
1.04611e-05
-1.86646e-08
1.04915e-05
-3.04686e-08
1.05339e-05
-4.24e-08
1.05912e-05
-5.72523e-08
1.06573e-05
-6.61041e-08
1.07482e-05
-9.09493e-08
1.07902e-05
-4.19859e-08
-2.18721e-07
1.1009e-05
6.59035e-05
1.61625e-05
6.18996e-05
1.82605e-05
5.56423e-05
1.36596e-05
4.97781e-05
9.23542e-06
4.52865e-05
5.90497e-06
4.20778e-05
3.91584e-06
3.9775e-05
2.75599e-06
3.80792e-05
2.0471e-06
3.67848e-05
1.59324e-06
3.57609e-05
1.28229e-06
3.49272e-05
1.05577e-06
3.42333e-05
8.83435e-07
3.36464e-05
7.48069e-07
3.3144e-05
6.39075e-07
3.27103e-05
5.4945e-07
3.23338e-05
4.74337e-07
3.20057e-05
4.10251e-07
3.17193e-05
3.54635e-07
3.14696e-05
3.05572e-07
3.12523e-05
2.61584e-07
3.10644e-05
2.21498e-07
3.09032e-05
1.84346e-07
3.07669e-05
1.4929e-07
3.06539e-05
1.1554e-07
3.05633e-05
8.27133e-08
3.04948e-05
4.99233e-08
3.0448e-05
1.63006e-08
3.04236e-05
-1.80248e-08
3.0422e-05
-5.55992e-08
3.0447e-05
-9.11263e-08
3.04982e-05
-1.42147e-07
3.0627e-05
-1.70812e-07
-2.88513e-07
3.06968e-05
6.91816e-05
1.07423e-05
7.2509e-05
1.49331e-05
7.30642e-05
1.31044e-05
7.16923e-05
1.06073e-05
6.94496e-05
8.14766e-06
6.70723e-05
6.29312e-06
6.48434e-05
4.98489e-06
6.28536e-05
4.03694e-06
6.11134e-05
3.33343e-06
5.9601e-05
2.79473e-06
5.82873e-05
2.36944e-06
5.71445e-05
2.02624e-06
5.61477e-05
1.74482e-06
5.52759e-05
1.51095e-06
5.45111e-05
1.31424e-06
5.38385e-05
1.1469e-06
5.32458e-05
1.00297e-06
5.27226e-05
8.77809e-07
5.22605e-05
7.67742e-07
5.18522e-05
6.6983e-07
5.1492e-05
5.81666e-07
5.11751e-05
5.01246e-07
5.08976e-05
4.26852e-07
5.06562e-05
3.56953e-07
5.04486e-05
2.90307e-07
5.02729e-05
2.25596e-07
5.01277e-05
1.61448e-07
5.00126e-05
9.71126e-08
4.99268e-05
3.01797e-08
4.98735e-05
-3.78194e-08
4.98476e-05
-1.16206e-07
4.98656e-05
-1.88817e-07
-2.92263e-07
4.98693e-05
6.88459e-05
7.47948e-06
7.21614e-05
1.16177e-05
7.45371e-05
1.07286e-05
7.59484e-05
9.19603e-06
7.65277e-05
7.56835e-06
7.65915e-05
6.22931e-06
7.63473e-05
5.22914e-06
7.59201e-05
4.46407e-06
7.53905e-05
3.86309e-06
7.48069e-05
3.37828e-06
7.42001e-05
2.97626e-06
7.35903e-05
2.63606e-06
7.29916e-05
2.34349e-06
7.24138e-05
2.08875e-06
7.18628e-05
1.86521e-06
7.13422e-05
1.66757e-06
7.08537e-05
1.4915e-06
7.0398e-05
1.33349e-06
6.99751e-05
1.1906e-06
6.95846e-05
1.06036e-06
6.92256e-05
9.40627e-07
6.88973e-05
8.29528e-07
6.85988e-05
7.25373e-07
6.83292e-05
6.266e-07
6.80877e-05
5.31795e-07
6.78738e-05
4.39519e-07
6.7687e-05
3.48237e-07
6.75274e-05
2.56737e-07
6.73946e-05
1.62918e-07
6.72902e-05
6.65932e-08
6.72116e-05
-3.76084e-08
6.71682e-05
-1.45457e-07
-2.67758e-07
6.71437e-05
6.9559e-05
5.37729e-06
7.18362e-05
9.34047e-06
7.35387e-05
9.02616e-06
7.48104e-05
7.92425e-06
7.57047e-05
6.67404e-06
7.63589e-05
5.57515e-06
7.68588e-05
4.72923e-06
7.7246e-05
4.07693e-06
7.7548e-05
3.56101e-06
7.77832e-05
3.14315e-06
7.79639e-05
2.79556e-06
7.80999e-05
2.5e-06
7.81984e-05
2.24507e-06
7.82646e-05
2.02247e-06
7.83044e-05
1.82547e-06
7.83227e-05
1.64925e-06
7.83241e-05
1.49012e-06
7.83124e-05
1.34516e-06
7.8291e-05
1.21198e-06
7.82628e-05
1.08856e-06
7.82303e-05
9.73168e-07
7.81956e-05
8.64254e-07
7.81605e-05
7.60404e-07
7.81269e-05
6.60286e-07
7.8096e-05
5.62623e-07
7.80694e-05
4.66123e-07
7.80483e-05
3.69388e-07
7.80339e-05
2.71149e-07
7.80271e-05
1.69659e-07
7.80297e-05
6.40185e-08
7.80406e-05
-4.85345e-08
7.80626e-05
-1.6745e-07
-2.98556e-07
7.80934e-05
7.08404e-05
3.92088e-06
7.26285e-05
7.55246e-06
7.39368e-05
7.71778e-06
7.48696e-05
6.99152e-06
7.55031e-05
6.04046e-06
7.59569e-05
5.12136e-06
7.6318e-05
4.36813e-06
7.66268e-05
3.76818e-06
7.69035e-05
3.28432e-06
7.71579e-05
2.88875e-06
7.73941e-05
2.55931e-06
7.76144e-05
2.27973e-06
7.78207e-05
2.03877e-06
7.80146e-05
1.82854e-06
7.8197e-05
1.64306e-06
7.83686e-05
1.47768e-06
7.853e-05
1.32873e-06
7.86819e-05
1.19326e-06
7.8825e-05
1.06885e-06
7.89601e-05
9.53484e-07
7.90878e-05
8.45412e-07
7.9209e-05
7.43097e-07
7.93242e-05
6.45143e-07
7.94343e-05
5.50246e-07
7.95398e-05
4.57152e-07
7.96413e-05
3.64619e-07
7.97393e-05
2.71329e-07
7.98344e-05
1.76029e-07
7.9927e-05
7.71299e-08
8.00175e-05
-2.64988e-08
8.01064e-05
-1.37414e-07
8.01959e-05
-2.56989e-07
-3.89891e-07
8.02872e-05
7.23891e-05
2.89809e-06
7.38424e-05
6.09915e-06
7.49722e-05
6.58799e-06
7.57935e-05
6.17027e-06
7.63556e-05
5.4783e-06
7.67424e-05
4.73457e-06
7.70302e-05
4.08038e-06
7.7261e-05
3.53736e-06
7.74583e-05
3.08704e-06
7.76354e-05
2.71165e-06
7.77993e-05
2.39537e-06
7.79539e-05
2.12517e-06
7.81012e-05
1.89145e-06
7.82426e-05
1.68711e-06
7.8379e-05
1.50664e-06
7.8511e-05
1.34571e-06
7.86389e-05
1.20082e-06
7.87631e-05
1.06913e-06
7.88836e-05
9.48287e-07
7.90008e-05
8.36277e-07
7.91149e-05
7.31369e-07
7.92259e-05
6.32032e-07
7.93342e-05
5.36876e-07
7.94398e-05
4.4461e-07
7.9543e-05
3.53997e-07
7.96438e-05
2.63824e-07
7.97423e-05
1.72831e-07
7.98385e-05
7.97722e-08
7.99325e-05
-1.68686e-08
8.00246e-05
-1.18527e-07
8.01145e-05
-2.27309e-07
8.02024e-05
-3.44928e-07
-4.74693e-07
8.02872e-05
7.41256e-05
2.17779e-06
7.5294e-05
4.93074e-06
7.62774e-05
5.60455e-06
7.70322e-05
5.41554e-06
7.75811e-05
4.92937e-06
7.79736e-05
4.34207e-06
7.82673e-05
3.7867e-06
7.84995e-05
3.30513e-06
7.86927e-05
2.89382e-06
7.88609e-05
2.54345e-06
7.90124e-05
2.24392e-06
7.91519e-05
1.98561e-06
7.92826e-05
1.76074e-06
7.94065e-05
1.56325e-06
7.95248e-05
1.38829e-06
7.96386e-05
1.23192e-06
7.97485e-05
1.0909e-06
7.98551e-05
9.62555e-07
7.99588e-05
8.44632e-07
8.00598e-05
7.35202e-07
8.01586e-05
6.32591e-07
8.02553e-05
5.3531e-07
8.03502e-05
4.42011e-07
8.04434e-05
3.51446e-07
8.05349e-05
2.62422e-07
8.0625e-05
1.73781e-07
8.07135e-05
8.43439e-08
8.08003e-05
-7.08108e-09
8.08853e-05
-1.0182e-07
8.09679e-05
-2.0118e-07
8.10475e-05
-3.06902e-07
8.11233e-05
-4.20718e-07
-5.4456e-07
8.11932e-05
7.6017e-05
1.66322e-06
7.69545e-05
3.99331e-06
7.78049e-05
4.75416e-06
7.84885e-05
4.7319e-06
7.90118e-05
4.40605e-06
7.94033e-05
3.95061e-06
7.9705e-05
3.48502e-06
7.99481e-05
3.06203e-06
8.01521e-05
2.68979e-06
8.03298e-05
2.36578e-06
8.0489e-05
2.08462e-06
8.06349e-05
1.83973e-06
8.07706e-05
1.62506e-06
8.08983e-05
1.43559e-06
8.10195e-05
1.26711e-06
8.11352e-05
1.11613e-06
8.12465e-05
9.79675e-07
8.13538e-05
8.5527e-07
8.14576e-05
7.40793e-07
8.15584e-05
6.34415e-07
8.16564e-05
5.34533e-07
8.1752e-05
4.39725e-07
8.18453e-05
3.487e-07
8.19365e-05
2.6027e-07
8.20256e-05
1.73311e-07
8.21127e-05
8.67468e-08
8.21975e-05
-4.95349e-10
8.22799e-05
-8.94696e-08
8.23594e-05
-1.81298e-07
8.24353e-05
-2.77114e-07
8.25066e-05
-3.78207e-07
8.25718e-05
-4.85963e-07
-6.01125e-07
8.26284e-05
7.80333e-05
1.28952e-06
7.87853e-05
3.24127e-06
7.95184e-05
4.02109e-06
8.01353e-05
4.11502e-06
8.06295e-05
3.91181e-06
8.10148e-05
3.56533e-06
8.13199e-05
3.17996e-06
8.15697e-05
2.8122e-06
8.17812e-05
2.47831e-06
8.19658e-05
2.1811e-06
8.21314e-05
1.91904e-06
8.22829e-05
1.68824e-06
8.24236e-05
1.48435e-06
8.25558e-05
1.30339e-06
8.26811e-05
1.14185e-06
8.28006e-05
9.96655e-07
8.29151e-05
8.6516e-07
8.30253e-05
7.45079e-07
8.31316e-05
6.34434e-07
8.32346e-05
5.31502e-07
8.33343e-05
4.34764e-07
8.34312e-05
3.4287e-07
8.35253e-05
2.54601e-07
8.36167e-05
1.68842e-07
8.37055e-05
8.4551e-08
8.37915e-05
7.5318e-10
8.38745e-05
-8.34953e-08
8.39541e-05
-1.69098e-07
8.40297e-05
-2.56959e-07
8.41006e-05
-3.47951e-07
8.41653e-05
-4.4293e-07
8.42222e-05
-5.42821e-07
-6.47501e-07
8.42685e-05
8.01549e-05
1.01294e-06
8.076e-05
2.63614e-06
8.13914e-05
3.38969e-06
8.19473e-05
3.55914e-06
8.24112e-05
3.44794e-06
8.27865e-05
3.18999e-06
8.30916e-05
2.87484e-06
8.33459e-05
2.55794e-06
8.35635e-05
2.26068e-06
8.37547e-05
1.98994e-06
8.39265e-05
1.74724e-06
8.40837e-05
1.531e-06
8.42297e-05
1.33842e-06
8.43665e-05
1.1665e-06
8.4496e-05
1.01239e-06
8.46192e-05
8.73451e-07
8.4737e-05
7.47347e-07
8.48501e-05
6.32001e-07
8.49589e-05
5.25589e-07
8.50639e-05
4.26503e-07
8.51654e-05
3.33322e-07
8.52635e-05
2.44778e-07
8.53583e-05
1.59734e-07
8.545e-05
7.71615e-08
8.55385e-05
-3.88882e-09
8.56235e-05
-8.42734e-08
8.57048e-05
-1.64798e-07
8.57819e-05
-2.46198e-07
8.58541e-05
-3.29155e-07
8.59204e-05
-4.1427e-07
8.59795e-05
-5.02007e-07
8.60295e-05
-5.92838e-07
-6.86055e-07
8.60681e-05
8.23694e-05
8.03954e-07
8.28587e-05
2.14686e-06
8.34021e-05
2.84634e-06
8.3902e-05
3.05923e-06
8.43353e-05
3.01463e-06
8.46986e-05
2.82666e-06
8.50021e-05
2.5713e-06
8.52599e-05
2.30017e-06
8.54833e-05
2.03727e-06
8.5681e-05
1.7923e-06
8.58592e-05
1.56903e-06
8.60224e-05
1.36774e-06
8.61739e-05
1.18694e-06
8.63158e-05
1.02457e-06
8.64499e-05
8.78366e-07
8.65772e-05
7.46154e-07
8.66986e-05
6.25886e-07
8.68149e-05
5.15708e-07
8.69265e-05
4.13958e-07
8.70339e-05
3.19151e-07
8.71373e-05
2.29968e-07
8.72368e-05
1.45234e-07
8.73326e-05
6.39026e-08
8.74247e-05
-1.49532e-08
8.75131e-05
-9.22004e-08
8.75973e-05
-1.68552e-07
8.76772e-05
-2.4468e-07
8.77522e-05
-3.2115e-07
8.78214e-05
-3.98427e-07
8.7884e-05
-4.76858e-07
8.79386e-05
-5.56585e-07
8.79835e-05
-6.37695e-07
-7.19135e-07
8.80165e-05
8.46691e-05
6.42634e-07
8.50675e-05
1.7485e-06
8.55354e-05
2.3784e-06
8.59847e-05
2.60994e-06
8.63882e-05
2.61111e-06
8.67379e-05
2.47697e-06
8.70378e-05
2.27138e-06
8.72974e-05
2.04062e-06
8.75253e-05
1.8093e-06
8.77288e-05
1.58886e-06
8.79132e-05
1.38464e-06
8.80826e-05
1.19834e-06
8.82399e-05
1.02961e-06
8.83873e-05
8.77154e-07
8.85264e-05
7.39301e-07
8.86583e-05
6.14268e-07
8.87838e-05
5.003e-07
8.89038e-05
3.95756e-07
8.90186e-05
2.99133e-07
8.91287e-05
2.09076e-07
8.92343e-05
1.24371e-07
8.93356e-05
4.39407e-08
8.94327e-05
-3.31678e-08
8.95255e-05
-1.0779e-07
8.9614e-05
-1.80661e-07
8.96978e-05
-2.52399e-07
8.97767e-05
-3.23526e-07
8.98499e-05
-3.94449e-07
8.9917e-05
-4.65442e-07
8.99767e-05
-5.36634e-07
9.00281e-05
-6.07918e-07
9.00695e-05
-6.79103e-07
-7.48969e-07
9.00993e-05
8.70494e-05
5.15418e-07
8.73766e-05
1.42129e-06
8.77805e-05
1.97449e-06
8.81843e-05
2.20612e-06
8.85593e-05
2.23614e-06
8.88944e-05
2.14191e-06
8.91892e-05
1.97658e-06
8.94492e-05
1.78054e-06
8.96809e-05
1.57763e-06
8.98897e-05
1.38008e-06
9.00801e-05
1.19423e-06
9.02556e-05
1.0228e-06
9.0419e-05
8.66299e-07
9.0572e-05
7.24087e-07
9.07163e-05
5.94987e-07
9.0853e-05
4.77577e-07
9.0983e-05
3.70372e-07
9.11068e-05
2.71933e-07
9.1225e-05
1.80913e-07
9.1338e-05
9.60838e-08
9.1446e-05
1.63411e-08
9.15493e-05
-5.92939e-08
9.16478e-05
-1.31677e-07
9.17415e-05
-2.01547e-07
9.18304e-05
-2.6953e-07
9.19141e-05
-3.36135e-07
9.19924e-05
-4.01752e-07
9.20646e-05
-4.66646e-07
9.213e-05
-5.30934e-07
9.2188e-05
-5.94573e-07
9.22374e-05
-6.57285e-07
9.22769e-05
-7.18696e-07
-7.77548e-07
9.23055e-05
8.9508e-05
4.12989e-07
8.97795e-05
1.14972e-06
9.01296e-05
1.62446e-06
9.04931e-05
1.84262e-06
9.08414e-05
1.88786e-06
9.11616e-05
1.82168e-06
9.14502e-05
1.68791e-06
9.17097e-05
1.52104e-06
9.19442e-05
1.3432e-06
9.21576e-05
1.16668e-06
9.23535e-05
9.98279e-07
9.2535e-05
8.41365e-07
9.27042e-05
6.97082e-07
9.28629e-05
5.65315e-07
9.30126e-05
4.45288e-07
9.31543e-05
3.35893e-07
9.32888e-05
2.35884e-07
9.34167e-05
1.44007e-07
9.35386e-05
5.90624e-08
9.36547e-05
-2.00589e-08
9.37654e-05
-9.43547e-08
9.38708e-05
-1.64707e-07
9.3971e-05
-2.31878e-07
9.4066e-05
-2.96513e-07
9.41556e-05
-3.59139e-07
9.42397e-05
-4.2016e-07
9.43178e-05
-4.79855e-07
9.43895e-05
-5.38371e-07
9.44542e-05
-5.957e-07
9.45114e-05
-6.51682e-07
9.456e-05
-7.05932e-07
9.45993e-05
-7.57977e-07
-8.06611e-07
9.46283e-05
9.2044e-05
3.28848e-07
9.22721e-05
9.21622e-07
9.25772e-05
1.31934e-06
9.29053e-05
1.51449e-06
9.32291e-05
1.56409e-06
9.35348e-05
1.51602e-06
9.38167e-05
1.40598e-06
9.40748e-05
1.26294e-06
9.43113e-05
1.10673e-06
9.45288e-05
9.49154e-07
9.473e-05
7.97062e-07
9.49172e-05
6.54143e-07
9.50924e-05
5.21952e-07
9.52569e-05
4.00749e-07
9.54122e-05
2.9007e-07
9.5559e-05
1.89058e-07
9.56982e-05
9.667e-08
9.58304e-05
1.1811e-08
9.5956e-05
-6.65871e-08
9.60755e-05
-1.39521e-07
9.6189e-05
-2.07889e-07
9.62968e-05
-2.72484e-07
9.63989e-05
-3.33981e-07
9.64953e-05
-3.92937e-07
9.6586e-05
-4.4979e-07
9.66707e-05
-5.04854e-07
9.67492e-05
-5.58315e-07
9.6821e-05
-6.10227e-07
9.68858e-05
-6.60499e-07
9.6943e-05
-7.08892e-07
9.69921e-05
-7.54974e-07
9.70323e-05
-7.98242e-07
-8.37593e-07
9.70633e-05
9.46576e-05
2.5838e-07
9.48518e-05
7.27481e-07
9.51198e-05
1.05134e-06
9.54173e-05
1.21695e-06
9.5719e-05
1.26236e-06
9.60109e-05
1.22411e-06
9.6286e-05
1.13089e-06
9.65423e-05
1.00666e-06
9.67803e-05
8.68716e-07
9.70016e-05
7.27927e-07
9.72077e-05
5.90883e-07
9.74006e-05
4.61316e-07
9.75815e-05
3.40983e-07
9.77519e-05
2.3038e-07
9.79127e-05
1.29261e-07
9.80648e-05
3.69545e-08
9.82089e-05
-4.74216e-08
9.83455e-05
-1.2483e-07
9.84752e-05
-1.96225e-07
9.85982e-05
-2.62507e-07
9.87148e-05
-3.24487e-07
9.88252e-05
-3.82874e-07
9.89294e-05
-4.38266e-07
9.90276e-05
-4.91141e-07
9.91197e-05
-5.41862e-07
9.92055e-05
-5.90667e-07
9.92849e-05
-6.37672e-07
9.93575e-05
-6.82864e-07
9.94231e-05
-7.26099e-07
9.94813e-05
-7.671e-07
9.95318e-05
-8.05429e-07
9.95741e-05
-8.40598e-07
-8.71635e-07
9.96082e-05
9.73497e-05
1.98238e-07
9.75173e-05
5.59829e-07
9.7755e-05
8.13695e-07
9.80264e-05
9.45471e-07
9.83088e-05
9.80036e-07
9.85881e-05
9.44745e-07
9.88567e-05
8.62337e-07
9.9111e-05
7.52322e-07
9.93503e-05
6.29393e-07
9.9575e-05
5.03231e-07
9.9786e-05
3.79897e-07
9.99844e-05
2.62947e-07
0.000100171
1.54159e-07
0.000100347
5.41315e-08
0.000100514
-3.72603e-08
0.000100672
-1.20563e-07
0.000100821
-1.96549e-07
0.000100962
-2.66079e-07
0.000101096
-3.30022e-07
0.000101222
-3.89195e-07
0.000101342
-4.44336e-07
0.000101455
-4.96083e-07
0.000101562
-5.44966e-07
0.000101662
-5.91398e-07
0.000101756
-6.3568e-07
0.000101844
-6.77991e-07
0.000101924
-7.18396e-07
0.000101998
-7.5684e-07
0.000102065
-7.93152e-07
0.000102125
-8.27048e-07
0.000102178
-8.58116e-07
0.000102223
-8.85914e-07
-9.09618e-07
0.000102261
0.000100121
1.45935e-07
0.000100268
4.12754e-07
0.000100482
6.00551e-07
0.000100731
6.95769e-07
0.000100997
7.14334e-07
0.000101265
6.76363e-07
0.000101528
5.99595e-07
0.000101781
4.99643e-07
0.000102022
3.88688e-07
0.00010225
2.75053e-07
0.000102466
1.64083e-07
0.000102669
5.89773e-08
0.000102862
-3.86227e-08
0.000103045
-1.28138e-07
0.000103217
-2.09661e-07
0.00010338
-2.83685e-07
0.000103534
-3.50918e-07
0.000103681
-4.12158e-07
0.000103819
-4.68209e-07
0.000103949
-5.19828e-07
0.000104073
-5.67695e-07
0.000104189
-6.1239e-07
0.000104298
-6.54389e-07
0.000104401
-6.94053e-07
0.000104497
-7.31633e-07
0.000104586
-7.67268e-07
0.000104669
-8.00987e-07
0.000104745
-8.32715e-07
0.000104814
-8.62275e-07
0.000104876
-8.89397e-07
0.000104932
-9.13711e-07
0.000104981
-9.34838e-07
-9.52086e-07
0.000105023
0.000102974
9.95699e-08
0.000103106
2.81516e-07
0.000103299
4.06842e-07
0.000103531
4.63803e-07
0.000103783
4.62383e-07
0.000104043
4.17113e-07
0.000104301
3.41578e-07
0.000104552
2.48019e-07
0.000104795
1.4626e-07
0.000105026
4.31805e-08
0.000105247
-5.672e-08
0.000105457
-1.50743e-07
0.000105656
-2.37515e-07
0.000105844
-3.16589e-07
0.000106023
-3.8811e-07
0.000106192
-4.52583e-07
0.000106351
-5.10702e-07
0.000106503
-5.63238e-07
0.000106645
-6.10959e-07
0.00010678
-6.54585e-07
0.000106907
-6.94752e-07
0.000107027
-7.32e-07
0.000107139
-7.66761e-07
0.000107244
-7.99361e-07
0.000107343
-8.30013e-07
0.000107434
-8.5883e-07
0.000107519
-8.85823e-07
0.000107597
-9.1091e-07
0.000107669
-9.33922e-07
0.000107734
-9.54622e-07
0.000107793
-9.7269e-07
0.000107846
-9.87822e-07
-9.99454e-07
0.000107894
0.000105911
5.76464e-08
0.00010603
1.62242e-07
0.000106209
2.28125e-07
0.000106427
2.45738e-07
0.000106668
2.21215e-07
0.00010692
1.64851e-07
0.000107175
8.68111e-08
0.000107426
-3.57712e-09
0.000107671
-9.86322e-08
0.000107908
-1.92966e-07
0.000108134
-2.83003e-07
0.00010835
-3.66658e-07
0.000108555
-4.42938e-07
0.00010875
-5.11622e-07
0.000108935
-5.72992e-07
0.00010911
-6.27626e-07
0.000109276
-6.76254e-07
0.000109432
-7.19657e-07
0.00010958
-7.58599e-07
0.000109719
-7.93781e-07
0.00010985
-8.25819e-07
0.000109973
-8.55225e-07
0.000110089
-8.82404e-07
0.000110197
-9.07655e-07
0.000110298
-9.31171e-07
0.000110393
-9.53047e-07
0.00011048
-9.73288e-07
0.000110561
-9.91816e-07
0.000110635
-1.00848e-06
0.000110704
-1.02308e-06
0.000110767
-1.03535e-06
0.000110824
-1.04505e-06
-1.05171e-06
0.000110876
0.000108932
1.89435e-08
0.000109043
5.16854e-08
0.00010921
6.04406e-08
0.000109418
3.79045e-08
0.000109652
-1.22196e-08
0.000109899
-8.28034e-08
0.000110153
-1.66489e-07
0.000110405
-2.56422e-07
0.000110654
-3.46963e-07
0.000110895
-4.34119e-07
0.000111127
-5.15336e-07
0.00011135
-5.89225e-07
0.000111562
-6.55266e-07
0.000111764
-7.13555e-07
0.000111956
-7.64579e-07
0.000112137
-8.09051e-07
0.000112309
-8.47784e-07
0.000112471
-8.81606e-07
0.000112623
-9.11304e-07
0.000112767
-9.37587e-07
0.000112902
-9.61064e-07
0.000113029
-9.82238e-07
0.000113148
-1.0015e-06
0.00011326
-1.01913e-06
0.000113364
-1.03531e-06
0.000113461
-1.05014e-06
0.000113551
-1.06361e-06
0.000113635
-1.07566e-06
0.000113713
-1.08617e-06
0.000113785
-1.09497e-06
0.000113851
-1.10185e-06
0.000113913
-1.10663e-06
-1.10894e-06
0.00011397
0.000112041
-1.75817e-08
0.000112146
-5.29783e-08
0.000112306
-9.985e-08
0.000112507
-1.63317e-07
0.000112736
-2.41154e-07
0.000112982
-3.28595e-07
0.000113236
-4.20581e-07
0.000113492
-5.12411e-07
0.000113745
-6.00286e-07
0.000113993
-6.81607e-07
0.000114232
-7.54873e-07
0.000114463
-8.19459e-07
0.000114683
-8.75402e-07
0.000114892
-9.2319e-07
0.000115091
-9.63586e-07
0.00011528
-9.97493e-07
0.000115458
-1.02586e-06
0.000115626
-1.04958e-06
0.000115784
-1.06952e-06
0.000115933
-1.0864e-06
0.000116073
-1.10084e-06
0.000116204
-1.11336e-06
0.000116327
-1.12434e-06
0.000116442
-1.13405e-06
0.000116549
-1.14269e-06
0.000116649
-1.15033e-06
0.000116742
-1.15699e-06
0.000116829
-1.16262e-06
0.00011691
-1.16711e-06
0.000116986
-1.17032e-06
0.000117056
-1.1721e-06
0.000117122
-1.17229e-06
-1.17059e-06
0.000117183
0.00011524
-5.28536e-08
0.000115341
-1.54301e-07
0.000115497
-2.5617e-07
0.000115696
-3.61499e-07
0.000115923
-4.68916e-07
0.00011617
-5.75431e-07
0.000116427
-6.77896e-07
0.000116689
-7.73513e-07
0.000116948
-8.60186e-07
0.000117204
-9.36696e-07
0.000117451
-1.00262e-06
0.00011769
-1.05817e-06
0.000117919
-1.10399e-06
0.000118136
-1.14105e-06
0.000118343
-1.17044e-06
0.000118539
-1.1933e-06
0.000118724
-1.21076e-06
0.000118898
-1.22383e-06
0.000119062
-1.23345e-06
0.000119216
-1.24039e-06
0.000119361
-1.24531e-06
0.000119496
-1.24873e-06
0.000119623
-1.25105e-06
0.000119741
-1.25255e-06
0.000119852
-1.2534e-06
0.000119955
-1.25371e-06
0.000120052
-1.25349e-06
0.000120142
-1.25271e-06
0.000120226
-1.25128e-06
0.000120305
-1.24909e-06
0.000120379
-1.246e-06
0.000120448
-1.24194e-06
-1.23664e-06
0.000120514
0.000118531
-8.77566e-08
0.000118631
-2.54757e-07
0.000118787
-4.11995e-07
0.000118986
-5.60504e-07
0.000119217
-6.99374e-07
0.000119468
-8.2698e-07
0.000119732
-9.41803e-07
0.000120001
-1.04276e-06
0.00012027
-1.12936e-06
0.000120535
-1.20177e-06
0.000120794
-1.26066e-06
0.000121042
-1.30716e-06
0.000121281
-1.3426e-06
0.000121509
-1.36847e-06
0.000121724
-1.38626e-06
0.000121928
-1.39742e-06
0.000122121
-1.40327e-06
0.000122302
-1.40499e-06
0.000122472
-1.40361e-06
0.000122632
-1.39998e-06
0.000122781
-1.39479e-06
0.000122921
-1.3886e-06
0.000123052
-1.38182e-06
0.000123174
-1.37473e-06
0.000123288
-1.36752e-06
0.000123395
-1.36029e-06
0.000123494
-1.35307e-06
0.000123588
-1.34581e-06
0.000123675
-1.33847e-06
0.000123757
-1.33093e-06
0.000123834
-1.32307e-06
0.000123907
-1.31484e-06
-1.30596e-06
0.000123976
0.000121917
-1.23158e-07
0.000122019
-3.56784e-07
0.000122177
-5.70764e-07
0.000122381
-7.64161e-07
0.000122618
-9.36309e-07
0.000122878
-1.08672e-06
0.000123151
-1.21534e-06
0.000123431
-1.32273e-06
0.000123712
-1.40997e-06
0.000123989
-1.4786e-06
0.000124259
-1.53048e-06
0.000124519
-1.56765e-06
0.000124769
-1.59223e-06
0.000125007
-1.60629e-06
0.000125232
-1.61177e-06
0.000125445
-1.61044e-06
0.000125646
-1.60389e-06
0.000125834
-1.59347e-06
0.000126011
-1.58034e-06
0.000126176
-1.56543e-06
0.000126331
-1.54951e-06
0.000126476
-1.53314e-06
0.000126611
-1.51677e-06
0.000126737
-1.50068e-06
0.000126854
-1.48508e-06
0.000126964
-1.47006e-06
0.000127066
-1.45565e-06
0.000127162
-1.44183e-06
0.000127252
-1.42852e-06
0.000127337
-1.41565e-06
0.000127417
-1.40311e-06
0.000127493
-1.39085e-06
-1.37862e-06
0.000127566
0.0001254
-1.60066e-07
0.000125507
-4.63226e-07
0.000125673
-7.36697e-07
0.000125886
-9.77517e-07
0.000126135
-1.18515e-06
0.000126408
-1.36013e-06
0.000126697
-1.50379e-06
0.000126992
-1.61831e-06
0.000127289
-1.70639e-06
0.000127581
-1.77103e-06
0.000127866
-1.81534e-06
0.000128141
-1.84239e-06
0.000128404
-1.85515e-06
0.000128654
-1.85633e-06
0.00012889
-1.84838e-06
0.000129113
-1.83347e-06
0.000129323
-1.81345e-06
0.000129519
-1.78988e-06
0.000129703
-1.76405e-06
0.000129875
-1.73702e-06
0.000130035
-1.70958e-06
0.000130184
-1.68236e-06
0.000130323
-1.65581e-06
0.000130453
-1.63023e-06
0.000130573
-1.60583e-06
0.000130686
-1.58269e-06
0.000130791
-1.56084e-06
0.00013089
-1.54024e-06
0.000130982
-1.52083e-06
0.000131069
-1.50251e-06
0.000131151
-1.48515e-06
0.000131229
-1.46869e-06
-1.45286e-06
0.000131303
0.000128984
-1.9944e-07
0.000129098
-5.76842e-07
0.000129275
-9.13661e-07
0.000129502
-1.20484e-06
0.000129767
-1.45012e-06
0.000130058
-1.65111e-06
0.000130365
-1.81066e-06
0.00013068
-1.93263e-06
0.000130995
-2.02143e-06
0.000131305
-2.08158e-06
0.000131607
-2.11751e-06
0.000131898
-2.13342e-06
0.000132176
-2.13318e-06
0.00013244
-2.12021e-06
0.000132689
-2.09753e-06
0.000132924
-2.06774e-06
0.000133143
-2.03299e-06
0.000133348
-1.99508e-06
0.00013354
-1.95547e-06
0.000133718
-1.91529e-06
0.000133884
-1.87544e-06
0.000134038
-1.83658e-06
0.000134181
-1.79916e-06
0.000134315
-1.76351e-06
0.000134439
-1.7298e-06
0.000134554
-1.69814e-06
0.000134662
-1.66852e-06
0.000134763
-1.6409e-06
0.000134857
-1.61519e-06
0.000134946
-1.59129e-06
0.00013503
-1.56906e-06
0.000135109
-1.54843e-06
-1.52912e-06
0.000135186
0.000132673
-2.42981e-07
0.000132798
-7.02282e-07
0.000132993
-1.10866e-06
0.000133243
-1.45469e-06
0.000133533
-1.74048e-06
0.000133851
-1.96893e-06
0.000134185
-2.14461e-06
0.000134526
-2.27338e-06
0.000134866
-2.3616e-06
0.0001352
-2.41557e-06
0.000135524
-2.44122e-06
0.000135834
-2.44399e-06
0.00013613
-2.42872e-06
0.000136409
-2.39966e-06
0.000136672
-2.3604e-06
0.000136918
-2.31399e-06
0.000137148
-2.26292e-06
0.000137362
-2.20923e-06
0.000137561
-2.15452e-06
0.000137746
-2.10005e-06
0.000137918
-2.04676e-06
0.000138076
-1.99534e-06
0.000138223
-1.94627e-06
0.00013836
-1.89987e-06
0.000138486
-1.85629e-06
0.000138604
-1.81561e-06
0.000138713
-1.7778e-06
0.000138815
-1.7428e-06
0.00013891
-1.71048e-06
0.000139
-1.6807e-06
0.000139084
-1.65328e-06
0.000139163
-1.62808e-06
-1.60477e-06
0.000139239
0.000136467
-2.91528e-07
0.000136607
-8.42423e-07
0.000136824
-1.32543e-06
0.0001371
-1.73091e-06
0.00013742
-2.06009e-06
0.000137768
-2.31759e-06
0.000138134
-2.50989e-06
0.000138505
-2.64506e-06
0.000138875
-2.73162e-06
0.000139237
-2.77776e-06
0.000139587
-2.79109e-06
0.000139922
-2.77844e-06
0.000140239
-2.74578e-06
0.000140537
-2.69823e-06
0.000140817
-2.64008e-06
0.000141078
-2.57485e-06
0.00014132
-2.50543e-06
0.000141545
-2.43409e-06
0.000141753
-2.36262e-06
0.000141946
-2.29237e-06
0.000142123
-2.22434e-06
0.000142287
-2.15924e-06
0.000142438
-2.09754e-06
0.000142578
-2.03955e-06
0.000142707
-1.98539e-06
0.000142827
-1.9351e-06
0.000142938
-1.88861e-06
0.000143041
-1.84583e-06
0.000143137
-1.80657e-06
0.000143227
-1.77067e-06
0.000143311
-1.73792e-06
0.000143391
-1.70815e-06
-1.681e-06
0.000143468
0.000140374
-3.49744e-07
0.00014054
-1.00853e-06
0.000140795
-1.57992e-06
0.000141115
-2.05153e-06
0.000141482
-2.42674e-06
0.000141877
-2.71288e-06
0.000142287
-2.91944e-06
0.000142699
-3.05761e-06
0.000143106
-3.13866e-06
0.000143502
-3.17307e-06
0.000143881
-3.17029e-06
0.000144241
-3.13864e-06
0.00014458
-3.08528e-06
0.000144898
-3.01621e-06
0.000145195
-2.9364e-06
0.00014547
-2.84987e-06
0.000145724
-2.75987e-06
0.000145959
-2.66889e-06
0.000146175
-2.57889e-06
0.000146374
-2.49129e-06
0.000146557
-2.40715e-06
0.000146725
-2.32717e-06
0.000146879
-2.25181e-06
0.000147021
-2.18132e-06
0.000147151
-2.1158e-06
0.000147272
-2.05522e-06
0.000147382
-1.99947e-06
0.000147485
-1.94838e-06
0.00014758
-1.90172e-06
0.000147669
-1.85925e-06
0.000147751
-1.82069e-06
0.000147829
-1.78578e-06
-1.75406e-06
0.000147902
0.00014439
-4.15458e-07
0.000144581
-1.19947e-06
0.000144872
-1.87097e-06
0.000145238
-2.41675e-06
0.000145654
-2.8436e-06
0.000146103
-3.16145e-06
0.000146566
-3.38278e-06
0.000147031
-3.52241e-06
0.000147487
-3.59491e-06
0.000147928
-3.61352e-06
0.000148348
-3.59003e-06
0.000148744
-3.53463e-06
0.000149114
-3.45589e-06
0.000149459
-3.36087e-06
0.000149778
-3.25534e-06
0.000150072
-3.14386e-06
0.000150342
-3.03002e-06
0.00015059
-2.91657e-06
0.000150816
-2.80558e-06
0.000151023
-2.69853e-06
0.000151213
-2.59648e-06
0.000151386
-2.50009e-06
0.000151544
-2.40977e-06
0.000151688
-2.3257e-06
0.00015182
-2.24789e-06
0.000151941
-2.17625e-06
0.000152052
-2.11059e-06
0.000152155
-2.05067e-06
0.000152249
-1.9962e-06
0.000152337
-1.94687e-06
0.000152418
-1.90235e-06
0.000152495
-1.86236e-06
-1.82635e-06
0.000152567
0.000148541
-5.08095e-07
0.000148793
-1.45198e-06
0.000149164
-2.24139e-06
0.000149612
-2.86513e-06
0.000150108
-3.34001e-06
0.000150629
-3.68247e-06
0.000151157
-3.91061e-06
0.000151679
-4.04412e-06
0.000152185
-4.1012e-06
0.000152669
-4.09786e-06
0.000153128
-4.04812e-06
0.000153557
-3.96395e-06
0.000153956
-3.85525e-06
0.000154326
-3.73012e-06
0.000154665
-3.59504e-06
0.000154976
-3.45512e-06
0.000155261
-3.31431e-06
0.00015552
-3.17556e-06
0.000155755
-3.04105e-06
0.000155969
-2.91231e-06
0.000156163
-2.79037e-06
0.000156339
-2.67584e-06
0.000156498
-2.56905e-06
0.000156642
-2.47008e-06
0.000156773
-2.37885e-06
0.000156892
-2.29516e-06
0.000157
-2.21871e-06
0.000157099
-2.14918e-06
0.000157189
-2.08619e-06
0.000157271
-2.02933e-06
0.000157347
-1.97819e-06
0.000157417
-1.93235e-06
-1.89116e-06
0.000157482
0.000152784
-6.03109e-07
0.000153073
-1.74047e-06
0.000153504
-2.67297e-06
0.000154035
-3.39626e-06
0.000154629
-3.93378e-06
0.000155253
-4.30593e-06
0.00015588
-4.53834e-06
0.000156495
-4.65846e-06
0.000157084
-4.69019e-06
0.00015764
-4.65387e-06
0.000158158
-4.56685e-06
0.000158638
-4.44346e-06
0.000159078
-4.29533e-06
0.00015948
-4.1317e-06
0.000159844
-3.95983e-06
0.000160175
-3.7853e-06
0.000160473
-3.6123e-06
0.000160741
-3.44389e-06
0.000160982
-3.28226e-06
0.000161199
-3.12886e-06
0.000161393
-2.98459e-06
0.000161567
-2.84992e-06
0.000161723
-2.72502e-06
0.000161863
-2.60979e-06
0.000161988
-2.50401e-06
0.0001621
-2.40732e-06
0.000162201
-2.31932e-06
0.000162291
-2.23955e-06
0.000162372
-2.16756e-06
0.000162446
-2.10288e-06
0.000162513
-2.04506e-06
0.000162574
-1.99366e-06
-1.94789e-06
0.000162631
0.000157246
-7.9719e-07
0.000157695
-2.18974e-06
0.000158285
-3.26332e-06
0.00015895
-4.06109e-06
0.000159654
-4.63756e-06
0.000160368
-5.0205e-06
0.000161073
-5.2429e-06
0.000161753
-5.33843e-06
0.000162398
-5.33513e-06
0.000163001
-5.25701e-06
0.000163559
-5.12454e-06
0.00016407
-4.95447e-06
0.000164534
-4.76017e-06
0.000164955
-4.55213e-06
0.000165333
-4.3384e-06
0.000165673
-4.12503e-06
0.000165977
-3.91643e-06
0.000166249
-3.7157e-06
0.000166492
-3.52492e-06
0.000166708
-3.34539e-06
0.000166902
-3.1778e-06
0.000167074
-3.02238e-06
0.000167228
-2.87906e-06
0.000167366
-2.74752e-06
0.000167489
-2.6273e-06
0.0001676
-2.51785e-06
0.000167699
-2.41859e-06
0.000167788
-2.32893e-06
0.000167869
-2.2483e-06
0.000167942
-2.17618e-06
0.000168009
-2.11209e-06
0.000168071
-2.05555e-06
-2.00572e-06
0.000168129
0.000161692
-9.50503e-07
0.000162213
-2.71137e-06
0.000162952
-4.00169e-06
0.000163814
-4.92324e-06
0.000164724
-5.5473e-06
0.000165625
-5.92182e-06
0.000166489
-6.10709e-06
0.000167304
-6.15284e-06
0.000168063
-6.09484e-06
0.000168768
-5.96176e-06
0.00016942
-5.7765e-06
0.000170022
-5.55677e-06
0.000170578
-5.3162e-06
0.000171091
-5.06526e-06
0.000171565
-4.81183e-06
0.000172002
-4.56175e-06
0.000172404
-4.31925e-06
0.000172776
-4.0873e-06
0.000173119
-3.86785e-06
0.000173436
-3.66206e-06
0.000173728
-3.47051e-06
0.000173999
-3.29329e-06
0.00017425
-3.13018e-06
0.000174484
-2.98071e-06
0.000174701
-2.84427e-06
0.000174903
-2.72017e-06
0.000175092
-2.60768e-06
0.000175269
-2.50612e-06
0.000175436
-2.41491e-06
0.000175593
-2.33352e-06
0.000175743
-2.26179e-06
0.000175887
-2.19928e-06
-2.1462e-06
0.000176027
0.000166689
-1.48616e-06
0.000167546
-3.56842e-06
0.000168488
-4.94371e-06
0.000169507
-5.9421e-06
0.000170604
-6.64446e-06
0.00017176
-7.07724e-06
0.000172954
-7.30166e-06
0.000174166
-7.36418e-06
0.00017537
-7.29908e-06
0.000176546
-7.13768e-06
0.000177676
-6.90699e-06
0.000178749
-6.62914e-06
0.000179755
-6.32203e-06
0.000180689
-5.99983e-06
0.000181551