/*--------------------------------*- C++ -*----------------------------------*\
  =========                 |
  \\      /  F ield         | OpenFOAM: The Open Source CFD Toolbox
   \\    /   O peration     | Website:  https://openfoam.org
    \\  /    A nd           | Version:  10
     \\/     M anipulation  |
\*---------------------------------------------------------------------------*/
FoamFile
{
    format      ascii;
    class       volVectorField;
    location    "0.15";
    object      U;
}
// * * * * * * * * * * * * * * * * * * * * * * * * * * * * * * * * * * * * * //

dimensions      [0 1 -1 0 0 0 0];

internalField   nonuniform List<vector> 
6820
(
(5.57355 0.459157 0)
(3.88295 0.245931 0)
(2.58908 0.00881768 0)
(1.95702 -0.0641608 0)
(1.73149 -0.059461 0)
(1.62012 -0.0339963 0)
(1.55486 -0.0153446 0)
(1.50859 -0.005286 0)
(1.46963 -0.00070525 0)
(1.43586 0.000786842 0)
(1.40675 0.000830341 0)
(1.38182 0.000310474 0)
(1.3606 -0.000363473 0)
(1.34259 -0.00101089 0)
(1.32731 -0.00156338 0)
(1.31439 -0.00200715 0)
(1.30349 -0.00235246 0)
(1.29438 -0.00261768 0)
(1.28686 -0.00282201 0)
(1.28078 -0.00298275 0)
(1.27606 -0.00311448 0)
(1.27261 -0.00322845 0)
(1.2704 -0.00333149 0)
(1.26945 -0.00341823 0)
(1.26976 -0.00357008 0)
(1.27136 -0.00378658 0)
(1.27427 -0.00403795 0)
(1.2788 -0.00428553 0)
(1.28444 -0.00466118 0)
(1.29311 -0.00462099 0)
(1.2993 -0.00557753 0)
(1.3187 0.000574238 0)
(1.29723 -0.0230647 0)
(7.66981 0.86392 0)
(7.71725 0.890852 0)
(6.99997 0.598512 0)
(6.19721 0.347624 0)
(5.58354 0.17973 0)
(5.13843 0.0932722 0)
(4.82089 0.052957 0)
(4.59149 0.0345242 0)
(4.41924 0.0261045 0)
(4.28489 0.0218369 0)
(4.17673 0.0192489 0)
(4.08747 0.0173987 0)
(4.01243 0.0159098 0)
(3.94849 0.0146155 0)
(3.89348 0.0134299 0)
(3.84582 0.0123072 0)
(3.80433 0.0112219 0)
(3.76814 0.0101583 0)
(3.73654 0.00910427 0)
(3.70901 0.00804932 0)
(3.68511 0.00698275 0)
(3.6645 0.00589309 0)
(3.64695 0.00476735 0)
(3.63222 0.00359569 0)
(3.62019 0.00231358 0)
(3.61077 0.000935938 0)
(3.60393 -0.00058164 0)
(3.59971 -0.00220182 0)
(3.59807 -0.00418122 0)
(3.59951 -0.00586834 0)
(3.60343 -0.00903295 0)
(3.61367 -0.00880232 0)
(3.62747 -0.0158789 0)
(7.56353 0.520325 0)
(8.22522 0.663627 0)
(8.4649 0.576324 0)
(8.36402 0.458882 0)
(8.12816 0.34493 0)
(7.85116 0.260183 0)
(7.58078 0.200651 0)
(7.33684 0.157939 0)
(7.12266 0.126884 0)
(6.93628 0.103792 0)
(6.77449 0.0861698 0)
(6.6339 0.0724346 0)
(6.51144 0.0615417 0)
(6.40447 0.052775 0)
(6.31076 0.0456122 0)
(6.22844 0.039661 0)
(6.15595 0.0346264 0)
(6.09201 0.030286 0)
(6.03554 0.0264697 0)
(5.98564 0.0230446 0)
(5.94157 0.0199041 0)
(5.90274 0.0169594 0)
(5.86863 0.0141324 0)
(5.83885 0.011348 0)
(5.81307 0.00856117 0)
(5.79105 0.00570252 0)
(5.77262 0.002688 0)
(5.75766 -0.000527071 0)
(5.74605 -0.00411405 0)
(5.73801 -0.00790034 0)
(5.7334 -0.012769 0)
(5.7328 -0.0172255 0)
(5.73556 -0.0263875 0)
(7.43337 0.341095 0)
(7.88468 0.514536 0)
(8.24344 0.489743 0)
(8.44212 0.430098 0)
(8.54192 0.3591 0)
(8.5721 0.298788 0)
(8.55716 0.252982 0)
(8.51665 0.217791 0)
(8.46157 0.19019 0)
(8.39833 0.167906 0)
(8.3311 0.149342 0)
(8.26263 0.13353 0)
(8.19472 0.119837 0)
(8.12873 0.107823 0)
(8.06548 0.0971935 0)
(8.00548 0.0877233 0)
(7.94901 0.0792262 0)
(7.8962 0.0715426 0)
(7.84707 0.0645342 0)
(7.8016 0.0580797 0)
(7.7597 0.0520704 0)
(7.72129 0.0464071 0)
(7.68625 0.0409964 0)
(7.6545 0.0357478 0)
(7.62592 0.0305768 0)
(7.60046 0.0253859 0)
(7.57805 0.020067 0)
(7.55867 0.0145385 0)
(7.5423 0.00862655 0)
(7.52902 0.00233774 0)
(7.51878 -0.00488503 0)
(7.51173 -0.0124235 0)
(7.50869 -0.0215801 0)
(7.39682 0.251038 0)
(7.67999 0.421102 0)
(7.92342 0.404135 0)
(8.07743 0.354322 0)
(8.18801 0.299831 0)
(8.27044 0.254449 0)
(8.3315 0.220844 0)
(8.37852 0.19533 0)
(8.41544 0.175145 0)
(8.44428 0.158624 0)
(8.4666 0.144657 0)
(8.4836 0.132565 0)
(8.49623 0.121923 0)
(8.50504 0.112426 0)
(8.51067 0.103843 0)
(8.51371 0.0959953 0)
(8.51468 0.0887422 0)
(8.51403 0.0819702 0)
(8.51216 0.0755833 0)
(8.50939 0.069498 0)
(8.50603 0.063638 0)
(8.50232 0.057931 0)
(8.49848 0.0523055 0)
(8.49471 0.0466878 0)
(8.49116 0.0410015 0)
(8.488 0.0351615 0)
(8.48537 0.0290684 0)
(8.4834 0.0226256 0)
(8.48221 0.0156807 0)
(8.48196 0.00815297 0)
(8.48271 -0.000269986 0)
(8.48446 -0.00945942 0)
(8.48738 -0.0201136 0)
(7.37403 0.18069 0)
(7.57413 0.336173 0)
(7.76088 0.342474 0)
(7.87541 0.31345 0)
(7.95168 0.274485 0)
(8.00714 0.236578 0)
(8.04872 0.205521 0)
(8.08307 0.180768 0)
(8.11362 0.160835 0)
(8.14155 0.144568 0)
(8.1674 0.130999 0)
(8.19148 0.119415 0)
(8.21397 0.109349 0)
(8.2351 0.100479 0)
(8.25497 0.0925376 0)
(8.27367 0.085324 0)
(8.29125 0.0786827 0)
(8.30779 0.0724903 0)
(8.32337 0.0666441 0)
(8.33806 0.061055 0)
(8.35193 0.0556428 0)
(8.36507 0.0503317 0)
(8.37755 0.0450475 0)
(8.38944 0.0397146 0)
(8.40081 0.0342539 0)
(8.41174 0.0285788 0)
(8.42227 0.0225887 0)
(8.43247 0.0161801 0)
(8.44237 0.00921444 0)
(8.45206 0.00158647 0)
(8.46147 -0.00691867 0)
(8.47093 -0.0163866 0)
(8.48032 -0.0272704 0)
(7.35905 0.132765 0)
(7.50332 0.273212 0)
(7.65572 0.295168 0)
(7.75575 0.278591 0)
(7.82188 0.249256 0)
(7.86884 0.21763 0)
(7.90227 0.19026 0)
(7.92788 0.167877 0)
(7.94938 0.149489 0)
(7.9684 0.134214 0)
(7.98578 0.121306 0)
(8.00207 0.110189 0)
(8.01754 0.100452 0)
(8.03235 0.0918005 0)
(8.04661 0.084015 0)
(8.06039 0.0769264 0)
(8.07373 0.0703968 0)
(8.08668 0.06431 0)
(8.09924 0.0585652 0)
(8.11146 0.0530732 0)
(8.12333 0.0477525 0)
(8.1349 0.0425263 0)
(8.14616 0.0373194 0)
(8.15715 0.032056 0)
(8.16787 0.0266569 0)
(8.17835 0.0210373 0)
(8.18859 0.015101 0)
(8.1986 0.008747 0)
(8.20837 0.00184394 0)
(8.21792 -0.00572845 0)
(8.22727 -0.0141893 0)
(8.23644 -0.023725 0)
(8.24527 -0.0347217 0)
(7.34965 0.0990616 0)
(7.45343 0.220597 0)
(7.5765 0.250545 0)
(7.66521 0.244011 0)
(7.72701 0.224584 0)
(7.77271 0.200712 0)
(7.8061 0.178175 0)
(7.83148 0.158601 0)
(7.85224 0.141775 0)
(7.87005 0.127322 0)
(7.88586 0.114843 0)
(7.90029 0.103949 0)
(7.91373 0.0943294 0)
(7.92641 0.0857463 0)
(7.93848 0.0780069 0)
(7.95006 0.0709494 0)
(7.96122 0.0644384 0)
(7.97202 0.0583588 0)
(7.98251 0.0526116 0)
(7.99273 0.0471086 0)
(8.00271 0.0417696 0)
(8.01247 0.0365183 0)
(8.02204 0.0312806 0)
(8.03143 0.0259818 0)
(8.04065 0.0205439 0)
(8.04972 0.0148842 0)
(8.05864 0.00891051 0)
(8.06741 0.002522 0)
(8.076 -0.00440315 0)
(8.08438 -0.0120012 0)
(8.0925 -0.020455 0)
(8.1003 -0.0299456 0)
(8.1076 -0.0407289 0)
(7.34381 0.0750974 0)
(7.41921 0.178626 0)
(7.51802 0.213087 0)
(7.59539 0.21415 0)
(7.65188 0.201826 0)
(7.69529 0.183454 0)
(7.72834 0.16442 0)
(7.75409 0.147056 0)
(7.77536 0.131713 0)
(7.79367 0.118288 0)
(7.80989 0.106551 0)
(7.82461 0.0962146 0)
(7.83822 0.0870231 0)
(7.85097 0.078769 0)
(7.86302 0.0712801 0)
(7.87451 0.0644122 0)
(7.88552 0.058044 0)
(7.89612 0.0520715 0)
(7.90636 0.0464032 0)
(7.91629 0.0409562 0)
(7.92594 0.0356539 0)
(7.93534 0.0304232 0)
(7.94451 0.0251925 0)
(7.95347 0.0198901 0)
(7.96222 0.0144417 0)
(7.97078 0.00876914 0)
(7.97913 0.00278696 0)
(7.98726 -0.00359779 0)
(7.99513 -0.0104912 0)
(8.0027 -0.0180091 0)
(8.00988 -0.0262959 0)
(8.01655 -0.0355155 0)
(8.02253 -0.0458214 0)
(7.34017 0.0578449 0)
(7.39553 0.14493 0)
(7.47468 0.180467 0)
(7.54158 0.186494 0)
(7.59282 0.179506 0)
(7.63362 0.165983 0)
(7.66581 0.150577 0)
(7.69147 0.135739 0)
(7.71287 0.122131 0)
(7.73136 0.10987 0)
(7.74776 0.0989046 0)
(7.76263 0.0890872 0)
(7.77636 0.0802507 0)
(7.78921 0.0722438 0)
(7.80133 0.0649322 0)
(7.81287 0.0581956 0)
(7.8239 0.0519272 0)
(7.8345 0.0460317 0)
(7.84471 0.0404227 0)
(7.85458 0.0350213 0)
(7.86415 0.0297537 0)
(7.87343 0.0245499 0)
(7.88244 0.0193413 0)
(7.8912 0.0140598 0)
(7.89971 0.00863591 0)
(7.90796 0.00299763 0)
(7.91595 -0.00293174 0)
(7.92364 -0.00923321 0)
(7.93099 -0.0159965 0)
(7.93793 -0.0233182 0)
(7.94436 -0.0313072 0)
(7.95014 -0.0400883 0)
(7.9551 -0.0497226 0)
(7.33788 0.0451834 0)
(7.37905 0.117821 0)
(7.44249 0.152405 0)
(7.50007 0.161784 0)
(7.54631 0.158895 0)
(7.58435 0.149282 0)
(7.61533 0.136871 0)
(7.64061 0.124106 0)
(7.66195 0.111925 0)
(7.68053 0.100652 0)
(7.69706 0.0903845 0)
(7.71208 0.0810786 0)
(7.72593 0.0726306 0)
(7.73887 0.0649272 0)
(7.75107 0.0578571 0)
(7.76264 0.0513155 0)
(7.77369 0.0452058 0)
(7.78428 0.0394406 0)
(7.79446 0.0339395 0)
(7.80427 0.0286288 0)
(7.81374 0.0234388 0)
(7.82289 0.0183036 0)
(7.83175 0.0131589 0)
(7.84031 0.007942 0)
(7.84858 0.00258854 0)
(7.85655 -0.00296523 0)
(7.8642 -0.00878536 0)
(7.87148 -0.01494 0)
(7.87835 -0.0215006 0)
(7.88474 -0.0285396 0)
(7.89053 -0.0361285 0)
(7.89557 -0.0443464 0)
(7.89972 -0.0531865 0)
(7.33643 0.0357081 0)
(7.36747 0.095951 0)
(7.41844 0.128251 0)
(7.46778 0.139487 0)
(7.5093 0.139446 0)
(7.54457 0.132846 0)
(7.57419 0.122997 0)
(7.59897 0.11219 0)
(7.62019 0.101477 0)
(7.63882 0.0912959 0)
(7.65548 0.0818321 0)
(7.67063 0.0731205 0)
(7.68462 0.0651169 0)
(7.69768 0.0577495 0)
(7.70996 0.0509372 0)
(7.7216 0.044597 0)
(7.73269 0.0386484 0)
(7.74329 0.033015 0)
(7.75345 0.0276248 0)
(7.76322 0.0224101 0)
(7.77262 0.0173067 0)
(7.78167 0.0122533 0)
(7.79039 0.007191 0)
(7.79878 0.00206188 0)
(7.80683 -0.00318947 0)
(7.81454 -0.00861935 0)
(7.82188 -0.0142829 0)
(7.8288 -0.0202338 0)
(7.83526 -0.0265244 0)
(7.84117 -0.0332031 0)
(7.84643 -0.0403085 0)
(7.8509 -0.0478793 0)
(7.85446 -0.055863 0)
(7.33549 0.0284657 0)
(7.35926 0.0781933 0)
(7.40038 0.107453 0)
(7.44258 0.119455 0)
(7.47973 0.121363 0)
(7.51228 0.11709 0)
(7.54042 0.109376 0)
(7.56452 0.100262 0)
(7.58547 0.0908346 0)
(7.60406 0.0816129 0)
(7.62079 0.0728608 0)
(7.63607 0.0646829 0)
(7.65019 0.0570888 0)
(7.66338 0.0500433 0)
(7.67578 0.0434905 0)
(7.68752 0.0373647 0)
(7.69867 0.0315974 0)
(7.70931 0.0261207 0)
(7.71949 0.0208691 0)
(7.72924 0.0157803 0)
(7.7386 0.0107949 0)
(7.74757 0.00585673 0)
(7.75618 0.000911957 0)
(7.76442 -0.00409102 0)
(7.77229 -0.00920004 0)
(7.77978 -0.0144624 0)
(7.78685 -0.0199218 0)
(7.79346 -0.025618 0)
(7.79957 -0.0315854 0)
(7.80509 -0.0378506 0)
(7.80995 -0.0444251 0)
(7.814 -0.0513143 0)
(7.81716 -0.058437 0)
(7.33486 0.0228104 0)
(7.35335 0.063664 0)
(7.38674 0.0895252 0)
(7.42282 0.101457 0)
(7.45599 0.104534 0)
(7.48592 0.101927 0)
(7.5125 0.0958923 0)
(7.53581 0.0882095 0)
(7.55642 0.0799378 0)
(7.57489 0.0716346 0)
(7.59166 0.0636055 0)
(7.60703 0.055998 0)
(7.62128 0.0488585 0)
(7.63459 0.0421801 0)
(7.64711 0.0359281 0)
(7.65894 0.0300532 0)
(7.67018 0.0244992 0)
(7.68087 0.0192081 0)
(7.69107 0.0141223 0)
(7.70082 0.00918595 0)
(7.71014 0.00434577 0)
(7.71905 -0.000448892 0)
(7.72756 -0.00524573 0)
(7.73568 -0.010089 0)
(7.74338 -0.0150207 0)
(7.75067 -0.0200777 0)
(7.75752 -0.0252927 0)
(7.76387 -0.0306924 0)
(7.7697 -0.0362954 0)
(7.77493 -0.0421098 0)
(7.77948 -0.0481258 0)
(7.78325 -0.0543248 0)
(7.78618 -0.0606106 0)
(7.33444 0.0183007 0)
(7.34905 0.051661 0)
(7.37638 0.0740184 0)
(7.40729 0.0852703 0)
(7.43687 0.0889064 0)
(7.46435 0.0874363 0)
(7.48938 0.0826981 0)
(7.51182 0.0762035 0)
(7.53199 0.0689345 0)
(7.55028 0.0614509 0)
(7.56701 0.0540792 0)
(7.58243 0.046997 0)
(7.59677 0.0402813 0)
(7.6102 0.03395 0)
(7.62283 0.0279879 0)
(7.63476 0.0223606 0)
(7.64607 0.017023 0)
(7.65682 0.0119259 0)
(7.66706 0.00701836 0)
(7.67682 0.00225047 0)
(7.68612 -0.00242573 0)
(7.69498 -0.00705549 0)
(7.70341 -0.0116807 0)
(7.71142 -0.0163397 0)
(7.71899 -0.0210664 0)
(7.72612 -0.0258896 0)
(7.73278 -0.0308323 0)
(7.73894 -0.0359096 0)
(7.74455 -0.041127 0)
(7.74956 -0.0464783 0)
(7.75392 -0.0519389 0)
(7.75754 -0.0574742 0)
(7.76039 -0.0629829 0)
(7.33414 0.0146308 0)
(7.34589 0.041634 0)
(7.36847 0.0605405 0)
(7.39505 0.0706833 0)
(7.42145 0.0743898 0)
(7.44667 0.0735982 0)
(7.47019 0.0697899 0)
(7.49172 0.064228 0)
(7.51139 0.0577955 0)
(7.52944 0.0510319 0)
(7.5461 0.0442676 0)
(7.56155 0.0376949 0)
(7.57596 0.0314092 0)
(7.58948 0.0254452 0)
(7.60221 0.0198013 0)
(7.61424 0.0144541 0)
(7.62564 0.00936775 0)
(7.63645 0.00450027 0)
(7.64672 -0.000192812 0)
(7.65649 -0.0047558 0)
(7.66578 -0.00923133 0)
(7.6746 -0.0136593 0)
(7.68297 -0.0180759 0)
(7.69089 -0.0225135 0)
(7.69835 -0.026999 0)
(7.70535 -0.0315536 0)
(7.71186 -0.0361916 0)
(7.71787 -0.0409188 0)
(7.72333 -0.0457305 0)
(7.72821 -0.0506102 0)
(7.73246 -0.0555238 0)
(7.73603 -0.0604281 0)
(7.7389 -0.0652236 0)
(7.33393 0.0115852 0)
(7.34353 0.033152 0)
(7.36241 0.0487462 0)
(7.3854 0.0574881 0)
(7.40902 0.060882 0)
(7.43218 0.0603916 0)
(7.45427 0.0571979 0)
(7.47491 0.0523396 0)
(7.49405 0.0465878 0)
(7.51182 0.0404418 0)
(7.52836 0.0342196 0)
(7.54381 0.0281157 0)
(7.55827 0.022235 0)
(7.57187 0.0166233 0)
(7.5847 0.0112896 0)
(7.59681 0.00621963 0)
(7.60828 0.0013854 0)
(7.61916 -0.00324853 0)
(7.62948 -0.00772082 0)
(7.63927 -0.0120706 0)
(7.64855 -0.0163356 0)
(7.65735 -0.0205507 0)
(7.66567 -0.0247471 0)
(7.67352 -0.0289515 0)
(7.6809 -0.0331848 0)
(7.6878 -0.0374619 0)
(7.69421 -0.04179 0)
(7.70011 -0.0461678 0)
(7.70548 -0.0505833 0)
(7.71028 -0.0550136 0)
(7.71451 -0.0594199 0)
(7.71811 -0.0637555 0)
(7.7211 -0.0679275 0)
(7.33377 0.00900934 0)
(7.34176 0.025877 0)
(7.35774 0.0383361 0)
(7.37778 0.045488 0)
(7.39901 0.0482719 0)
(7.42035 0.0477703 0)
(7.44112 0.0449121 0)
(7.46089 0.0405399 0)
(7.4795 0.0353113 0)
(7.49698 0.0296748 0)
(7.51338 0.0239262 0)
(7.52879 0.0182532 0)
(7.5433 0.0127627 0)
(7.55697 0.0075056 0)
(7.56987 0.00249689 0)
(7.58207 -0.00227197 0)
(7.59362 -0.00682375 0)
(7.60456 -0.0111892 0)
(7.61492 -0.0154028 0)
(7.62473 -0.0194996 0)
(7.63402 -0.0235132 0)
(7.64281 -0.0274745 0)
(7.65109 -0.0314103 0)
(7.65889 -0.0353426 0)
(7.66621 -0.0392875 0)
(7.67304 -0.0432548 0)
(7.67938 -0.0472464 0)
(7.68521 -0.0512558 0)
(7.69054 -0.0552671 0)
(7.69533 -0.0592538 0)
(7.69958 -0.0631762 0)
(7.70327 -0.0669884 0)
(7.70643 -0.0706067 0)
(7.33365 0.00678959 0)
(7.34042 0.0195426 0)
(7.35414 0.0290513 0)
(7.37179 0.0344962 0)
(7.39099 0.0364414 0)
(7.41073 0.0356719 0)
(7.43032 0.0329091 0)
(7.44928 0.0288271 0)
(7.46738 0.0239747 0)
(7.48457 0.0187423 0)
(7.50084 0.0133951 0)
(7.51621 0.00810546 0)
(7.53074 0.00297479 0)
(7.54448 -0.00194612 0)
(7.55746 -0.00664056 0)
(7.56975 -0.0111141 0)
(7.58138 -0.0153861 0)
(7.59238 -0.019484 0)
(7.60279 -0.0234387 0)
(7.61264 -0.0272819 0)
(7.62194 -0.0310436 0)
(7.63072 -0.0347512 0)
(7.63899 -0.0384276 0)
(7.64676 -0.0420911 0)
(7.65404 -0.0457537 0)
(7.66083 -0.0494212 0)
(7.66713 -0.053092 0)
(7.67294 -0.0567568 0)
(7.67826 -0.060397 0)
(7.68307 -0.0639858 0)
(7.6874 -0.0674849 0)
(7.69122 -0.0708517 0)
(7.69459 -0.0740134 0)
(7.33356 0.00484028 0)
(7.3394 0.0139363 0)
(7.35137 0.0206679 0)
(7.36709 0.024337 0)
(7.38461 0.0252684 0)
(7.40299 0.0240217 0)
(7.42155 0.0211498 0)
(7.43978 0.0171842 0)
(7.45743 0.0125738 0)
(7.47434 0.00764862 0)
(7.49048 0.00263841 0)
(7.50582 -0.00230506 0)
(7.52037 -0.007091 0)
(7.53416 -0.0116735 0)
(7.54723 -0.0160378 0)
(7.5596 -0.0201894 0)
(7.5713 -0.0241472 0)
(7.58237 -0.0279371 0)
(7.59284 -0.0315885 0)
(7.60272 -0.035131 0)
(7.61204 -0.0385928 0)
(7.62083 -0.0419986 0)
(7.62909 -0.045369 0)
(7.63684 -0.0487195 0)
(7.6441 -0.0520598 0)
(7.65087 -0.0553932 0)
(7.65715 -0.058716 0)
(7.66296 -0.0620177 0)
(7.6683 -0.0652797 0)
(7.67317 -0.0684762 0)
(7.6776 -0.0715727 0)
(7.68158 -0.074532 0)
(7.68516 -0.0772918 0)
(7.33349 0.00309494 0)
(7.33863 0.00888645 0)
(7.34925 0.0129905 0)
(7.36345 0.014844 0)
(7.3796 0.0146253 0)
(7.39685 0.0127282 0)
(7.41454 0.00957006 0)
(7.43217 0.00556377 0)
(7.44942 0.00106494 0)
(7.46611 -0.003655 0)
(7.48214 -0.00840538 0)
(7.49747 -0.0130599 0)
(7.51206 -0.0175433 0)
(7.52593 -0.0218188 0)
(7.53909 -0.0258768 0)
(7.55155 -0.0297257 0)
(7.56335 -0.0333854 0)
(7.57449 -0.0368819 0)
(7.58502 -0.0402438 0)
(7.59495 -0.0434998 0)
(7.60431 -0.0466763 0)
(7.61312 -0.0497965 0)
(7.62139 -0.0528789 0)
(7.62914 -0.0559373 0)
(7.63639 -0.0589795 0)
(7.64316 -0.0620074 0)
(7.64945 -0.0650168 0)
(7.65528 -0.0679969 0)
(7.66066 -0.0709303 0)
(7.66561 -0.0737938 0)
(7.67015 -0.0765574 0)
(7.6743 -0.0791896 0)
(7.6781 -0.0816385 0)
(7.33344 0.00150015 0)
(7.33806 0.00425056 0)
(7.34767 0.00584722 0)
(7.36069 0.00585997 0)
(7.37577 0.00438497 0)
(7.39211 0.00169771 0)
(7.40911 -0.00189062 0)
(7.42625 -0.00606552 0)
(7.44318 -0.0105518 0)
(7.4597 -0.0151358 0)
(7.47567 -0.0196673 0)
(7.49101 -0.0240482 0)
(7.50566 -0.0282228 0)
(7.51961 -0.0321674 0)
(7.53287 -0.0358814 0)
(7.54542 -0.0393792 0)
(7.55731 -0.0426844 0)
(7.56853 -0.0458258 0)
(7.57913 -0.0488334 0)
(7.58911 -0.0517364 0)
(7.5985 -0.0545615 0)
(7.60733 -0.0573314 0)
(7.61561 -0.0600644 0)
(7.62337 -0.0627733 0)
(7.63063 -0.0654657 0)
(7.63741 -0.0681433 0)
(7.64371 -0.0708022 0)
(7.64957 -0.0734328 0)
(7.65501 -0.07602 0)
(7.66004 -0.0785441 0)
(7.6647 -0.0809799 0)
(7.669 -0.0833028 0)
(7.67301 -0.08547 0)
(7.33341 1.17029e-05 0)
(7.33764 -9.27259e-05 0)
(7.34651 -0.000918508 0)
(7.35867 -0.00277083 0)
(7.37295 -0.00559458 0)
(7.38863 -0.00919739 0)
(7.40512 -0.0133522 0)
(7.42191 -0.0178279 0)
(7.43865 -0.0224196 0)
(7.45509 -0.0269705 0)
(7.47107 -0.0313715 0)
(7.48647 -0.0355548 0)
(7.50123 -0.0394862 0)
(7.5153 -0.0431577 0)
(7.52869 -0.0465791 0)
(7.54137 -0.0497726 0)
(7.55337 -0.052767 0)
(7.5647 -0.0555945 0)
(7.57537 -0.0582874 0)
(7.58542 -0.0608762 0)
(7.59486 -0.0633883 0)
(7.60373 -0.0658467 0)
(7.61204 -0.0682698 0)
(7.61982 -0.0706706 0)
(7.62709 -0.0730569 0)
(7.63388 -0.075431 0)
(7.64022 -0.07779 0)
(7.64612 -0.0801263 0)
(7.65161 -0.0824274 0)
(7.65672 -0.0846774 0)
(7.66148 -0.0868561 0)
(7.66592 -0.0889446 0)
(7.67009 -0.0909079 0)
(7.33338 -0.00140896 0)
(7.33736 -0.00425056 0)
(7.34573 -0.00744965 0)
(7.3573 -0.0111938 0)
(7.37103 -0.01544 0)
(7.38627 -0.0200496 0)
(7.40244 -0.0248591 0)
(7.41903 -0.0297048 0)
(7.43569 -0.0344457 0)
(7.45213 -0.0389774 0)
(7.46817 -0.043233 0)
(7.48368 -0.0471782 0)
(7.49857 -0.0508053 0)
(7.51279 -0.0541258 0)
(7.52631 -0.0571651 0)
(7.53913 -0.0599566 0)
(7.55125 -0.0625378 0)
(7.56268 -0.0649471 0)
(7.57344 -0.0672212 0)
(7.58356 -0.069394 0)
(7.59305 -0.0714951 0)
(7.60195 -0.073549 0)
(7.61029 -0.0755753 0)
(7.61809 -0.0775879 0)
(7.62538 -0.0795958 0)
(7.63219 -0.0816023 0)
(7.63855 -0.0836065 0)
(7.64448 -0.0856028 0)
(7.65002 -0.0875818 0)
(7.6552 -0.0895313 0)
(7.66005 -0.0914361 0)
(7.66461 -0.093283 0)
(7.66893 -0.0950436 0)
(7.33337 -0.00279782 0)
(7.3372 -0.00832482 0)
(7.34527 -0.0138921 0)
(7.35652 -0.0195789 0)
(7.36997 -0.0253396 0)
(7.38501 -0.031074 0)
(7.40108 -0.0366709 0)
(7.41768 -0.0420257 0)
(7.43442 -0.0470545 0)
(7.45101 -0.0517021 0)
(7.46723 -0.0559419 0)
(7.48295 -0.059772 0)
(7.49806 -0.06321 0)
(7.5125 -0.0662873 0)
(7.52622 -0.0690447 0)
(7.53922 -0.0715273 0)
(7.55149 -0.0737816 0)
(7.56305 -0.075853 0)
(7.57392 -0.0777835 0)
(7.58412 -0.0796111 0)
(7.59368 -0.0813683 0)
(7.60263 -0.0830822 0)
(7.611 -0.0847743 0)
(7.61882 -0.0864603 0)
(7.62613 -0.0881508 0)
(7.63295 -0.0898513 0)
(7.63932 -0.0915627 0)
(7.64528 -0.093282 0)
(7.65085 -0.095003 0)
(7.65607 -0.096717 0)
(7.66098 -0.0984126 0)
(7.66561 -0.100081 0)
(7.67002 -0.101699 0)
(7.33336 -0.00418925 0)
(7.33714 -0.0124112 0)
(7.34512 -0.0203762 0)
(7.35628 -0.0280543 0)
(7.36969 -0.0353803 0)
(7.38475 -0.0422741 0)
(7.40092 -0.0486633 0)
(7.41768 -0.0544954 0)
(7.43462 -0.0597422 0)
(7.45145 -0.064401 0)
(7.46794 -0.0684915 0)
(7.48393 -0.0720514 0)
(7.4993 -0.0751309 0)
(7.51398 -0.0777877 0)
(7.52792 -0.0800831 0)
(7.54112 -0.0820782 0)
(7.55357 -0.0838319 0)
(7.56527 -0.0853986 0)
(7.57626 -0.0868272 0)
(7.58655 -0.0881606 0)
(7.59617 -0.0894351 0)
(7.60517 -0.0906805 0)
(7.61357 -0.0919206 0)
(7.62142 -0.0931728 0)
(7.62873 -0.0944495 0)
(7.63557 -0.0957579 0)
(7.64195 -0.0971009 0)
(7.64792 -0.0984778 0)
(7.65351 -0.0998851 0)
(7.65876 -0.101317 0)
(7.66371 -0.102766 0)
(7.66839 -0.104228 0)
(7.67286 -0.105682 0)
(7.33337 -0.0056202 0)
(7.3372 -0.0166218 0)
(7.3453 -0.0270861 0)
(7.35664 -0.0368836 0)
(7.37031 -0.0459332 0)
(7.38572 -0.0541745 0)
(7.40228 -0.0615702 0)
(7.41947 -0.0681122 0)
(7.43687 -0.0738189 0)
(7.45416 -0.0787309 0)
(7.47109 -0.0829068 0)
(7.48749 -0.086418 0)
(7.50324 -0.0893439 0)
(7.51826 -0.0917665 0)
(7.5325 -0.0937676 0)
(7.54595 -0.0954251 0)
(7.55861 -0.0968117 0)
(7.57048 -0.0979927 0)
(7.58159 -0.099026 0)
(7.59198 -0.0999614 0)
(7.60167 -0.100841 0)
(7.61071 -0.101699 0)
(7.61914 -0.102562 0)
(7.62699 -0.103452 0)
(7.6343 -0.104383 0)
(7.64112 -0.105364 0)
(7.64748 -0.106401 0)
(7.65343 -0.107496 0)
(7.659 -0.108647 0)
(7.66423 -0.109851 0)
(7.66916 -0.111103 0)
(7.67383 -0.1124 0)
(7.67828 -0.113726 0)
(7.33338 -0.00712882 0)
(7.33735 -0.0210519 0)
(7.34576 -0.0341195 0)
(7.35752 -0.0460804 0)
(7.37167 -0.0568205 0)
(7.38762 -0.0662907 0)
(7.40475 -0.0744931 0)
(7.42253 -0.0814787 0)
(7.44051 -0.0873316 0)
(7.45837 -0.0921556 0)
(7.47584 -0.096065 0)
(7.49275 -0.0991786 0)
(7.50895 -0.101614 0)
(7.52438 -0.103484 0)
(7.53898 -0.104895 0)
(7.55273 -0.105941 0)
(7.56564 -0.10671 0)
(7.57771 -0.107277 0)
(7.58898 -0.107707 0)
(7.59949 -0.108056 0)
(7.60927 -0.10837 0)
(7.61836 -0.108686 0)
(7.62682 -0.109034 0)
(7.63468 -0.109436 0)
(7.64198 -0.109908 0)
(7.64878 -0.110463 0)
(7.65512 -0.111107 0)
(7.66103 -0.111844 0)
(7.66657 -0.112673 0)
(7.67177 -0.113594 0)
(7.67667 -0.114604 0)
(7.68131 -0.115703 0)
(7.68575 -0.116874 0)
(7.33341 -0.00876881 0)
(7.33768 -0.0258912 0)
(7.34669 -0.0418609 0)
(7.35928 -0.0563281 0)
(7.37439 -0.0691659 0)
(7.39135 -0.0803339 0)
(7.40951 -0.0898517 0)
(7.42829 -0.0978005 0)
(7.4472 -0.104303 0)
(7.46591 -0.109506 0)
(7.48415 -0.113565 0)
(7.50172 -0.116642 0)
(7.5185 -0.118893 0)
(7.53442 -0.120466 0)
(7.54942 -0.121496 0)
(7.5635 -0.122104 0)
(7.57666 -0.122397 0)
(7.58893 -0.122467 0)
(7.60035 -0.122392 0)
(7.61095 -0.122238 0)
(7.62079 -0.122059 0)
(7.62991 -0.121897 0)
(7.63835 -0.121787 0)
(7.64618 -0.121754 0)
(7.65344 -0.121817 0)
(7.66017 -0.12199 0)
(7.66643 -0.122281 0)
(7.67226 -0.122695 0)
(7.67771 -0.123234 0)
(7.6828 -0.123896 0)
(7.6876 -0.12468 0)
(7.69212 -0.125585 0)
(7.69641 -0.126596 0)
(7.33344 -0.0105851 0)
(7.33808 -0.0311813 0)
(7.34785 -0.0501357 0)
(7.36143 -0.0669402 0)
(7.37763 -0.0814613 0)
(7.39575 -0.0937171 0)
(7.41509 -0.103819 0)
(7.43503 -0.111953 0)
(7.45507 -0.118339 0)
(7.47482 -0.123201 0)
(7.49402 -0.126762 0)
(7.51245 -0.129231 0)
(7.52999 -0.130803 0)
(7.54655 -0.131653 0)
(7.5621 -0.131937 0)
(7.57663 -0.131793 0)
(7.59016 -0.131338 0)
(7.60272 -0.130675 0)
(7.61435 -0.129889 0)
(7.6251 -0.129049 0)
(7.63503 -0.128215 0)
(7.6442 -0.127431 0)
(7.65266 -0.126735 0)
(7.66047 -0.126154 0)
(7.66768 -0.125709 0)
(7.67435 -0.125415 0)
(7.68053 -0.12528 0)
(7.68627 -0.125311 0)
(7.69162 -0.12551 0)
(7.69661 -0.125878 0)
(7.70129 -0.126412 0)
(7.70571 -0.127114 0)
(7.70991 -0.127966 0)
(7.33352 -0.012698 0)
(7.3389 -0.0374741 0)
(7.35013 -0.0602791 0)
(7.36556 -0.0804859 0)
(7.38375 -0.0979216 0)
(7.40384 -0.112555 0)
(7.42504 -0.124472 0)
(7.44666 -0.133883 0)
(7.46818 -0.141063 0)
(7.48922 -0.146307 0)
(7.50952 -0.149912 0)
(7.52887 -0.152163 0)
(7.54718 -0.15332 0)
(7.56438 -0.153616 0)
(7.58043 -0.153255 0)
(7.59536 -0.15241 0)
(7.60919 -0.151228 0)
(7.62197 -0.149834 0)
(7.63375 -0.148326 0)
(7.64458 -0.146787 0)
(7.65455 -0.145282 0)
(7.6637 -0.143861 0)
(7.67211 -0.142564 0)
(7.67983 -0.14142 0)
(7.68693 -0.14045 0)
(7.69347 -0.139669 0)
(7.69949 -0.139086 0)
(7.70506 -0.138706 0)
(7.71022 -0.138532 0)
(7.71501 -0.138562 0)
(7.71948 -0.138794 0)
(7.72366 -0.139226 0)
(7.7276 -0.139839 0)
(7.33356 -0.0151157 0)
(7.33952 -0.044272 0)
(7.35206 -0.0703669 0)
(7.36919 -0.0926815 0)
(7.38931 -0.111282 0)
(7.4115 -0.126398 0)
(7.43487 -0.138332 0)
(7.4586 -0.147456 0)
(7.48212 -0.154148 0)
(7.50498 -0.158771 0)
(7.5269 -0.161662 0)
(7.54766 -0.163135 0)
(7.56716 -0.163469 0)
(7.58534 -0.162912 0)
(7.6022 -0.161682 0)
(7.61777 -0.159966 0)
(7.63209 -0.157921 0)
(7.64523 -0.155681 0)
(7.65727 -0.153353 0)
(7.66828 -0.151028 0)
(7.67834 -0.148775 0)
(7.68753 -0.146649 0)
(7.69592 -0.144694 0)
(7.70359 -0.14294 0)
(7.7106 -0.141412 0)
(7.71702 -0.140124 0)
(7.72291 -0.139086 0)
(7.72832 -0.138305 0)
(7.73331 -0.137782 0)
(7.73792 -0.137515 0)
(7.74222 -0.137502 0)
(7.74622 -0.13774 0)
(7.75001 -0.138207 0)
(7.33381 -0.0182884 0)
(7.34175 -0.0540481 0)
(7.35765 -0.0864557 0)
(7.37852 -0.1144 0)
(7.40216 -0.137651 0)
(7.42751 -0.156234 0)
(7.45362 -0.17046 0)
(7.47969 -0.180856 0)
(7.50519 -0.188001 0)
(7.52973 -0.192451 0)
(7.55306 -0.194723 0)
(7.57501 -0.195276 0)
(7.5955 -0.194508 0)
(7.61449 -0.192754 0)
(7.632 -0.190291 0)
(7.64807 -0.187349 0)
(7.66276 -0.184114 0)
(7.67617 -0.180735 0)
(7.68837 -0.177328 0)
(7.69944 -0.173988 0)
(7.7095 -0.170785 0)
(7.71861 -0.167773 0)
(7.72687 -0.164991 0)
(7.73436 -0.162468 0)
(7.74114 -0.160225 0)
(7.7473 -0.158273 0)
(7.7529 -0.15662 0)
(7.75799 -0.155269 0)
(7.76263 -0.154221 0)
(7.76688 -0.153473 0)
(7.77078 -0.153017 0)
(7.77438 -0.15285 0)
(7.77771 -0.152945 0)
(7.3337 -0.0217223 0)
(7.34208 -0.0624239 0)
(7.35992 -0.0969335 0)
(7.38378 -0.125211 0)
(7.41116 -0.148166 0)
(7.44071 -0.166306 0)
(7.47104 -0.180101 0)
(7.50107 -0.190107 0)
(7.53009 -0.196857 0)
(7.55767 -0.200852 0)
(7.58353 -0.202571 0)
(7.60752 -0.202458 0)
(7.62961 -0.200914 0)
(7.64982 -0.198289 0)
(7.66821 -0.194886 0)
(7.68488 -0.190963 0)
(7.69994 -0.186731 0)
(7.71352 -0.182362 0)
(7.72573 -0.177995 0)
(7.7367 -0.173737 0)
(7.74655 -0.16967 0)
(7.75537 -0.165856 0)
(7.76328 -0.162339 0)
(7.77036 -0.15915 0)
(7.7767 -0.156309 0)
(7.78239 -0.153828 0)
(7.78748 -0.151714 0)
(7.79206 -0.149967 0)
(7.79617 -0.148588 0)
(7.79988 -0.147572 0)
(7.80324 -0.14691 0)
(7.8063 -0.146598 0)
(7.80914 -0.146602 0)
(7.33482 -0.0280807 0)
(7.3495 -0.0831103 0)
(7.37511 -0.130835 0)
(7.4054 -0.169391 0)
(7.4376 -0.199116 0)
(7.47093 -0.220802 0)
(7.50432 -0.235694 0)
(7.53681 -0.245123 0)
(7.56784 -0.250229 0)
(7.59706 -0.251975 0)
(7.6242 -0.251165 0)
(7.64917 -0.248454 0)
(7.67195 -0.244369 0)
(7.69261 -0.23933 0)
(7.71124 -0.233672 0)
(7.72798 -0.22766 0)
(7.74299 -0.221502 0)
(7.7564 -0.21536 0)
(7.76839 -0.209359 0)
(7.77908 -0.203592 0)
(7.78862 -0.198128 0)
(7.79713 -0.193017 0)
(7.80473 -0.188292 0)
(7.81152 -0.183975 0)
(7.8176 -0.180078 0)
(7.82304 -0.176608 0)
(7.82793 -0.173565 0)
(7.83232 -0.170948 0)
(7.83628 -0.168757 0)
(7.83986 -0.166986 0)
(7.84313 -0.165631 0)
(7.84613 -0.164687 0)
(7.84891 -0.164116 0)
(7.33379 -0.0318608 0)
(7.34763 -0.0866201 0)
(7.3777 -0.129684 0)
(7.4156 -0.165162 0)
(7.45645 -0.194316 0)
(7.49801 -0.216819 0)
(7.53839 -0.233111 0)
(7.57661 -0.243959 0)
(7.61237 -0.250112 0)
(7.64562 -0.252366 0)
(7.6764 -0.251528 0)
(7.70485 -0.248335 0)
(7.73112 -0.243425 0)
(7.75536 -0.237341 0)
(7.77773 -0.230522 0)
(7.79836 -0.223317 0)
(7.81739 -0.215999 0)
(7.83495 -0.208771 0)
(7.85114 -0.201786 0)
(7.86609 -0.19515 0)
(7.87991 -0.18894 0)
(7.89268 -0.183202 0)
(7.90451 -0.177964 0)
(7.91549 -0.17324 0)
(7.92569 -0.169033 0)
(7.93519 -0.165339 0)
(7.94406 -0.162151 0)
(7.95237 -0.159461 0)
(7.96016 -0.157265 0)
(7.9675 -0.15556 0)
(7.97445 -0.154351 0)
(7.98109 -0.153644 0)
(7.98752 -0.153414 0)
(7.33892 -0.0543745 0)
(7.37185 -0.151507 0)
(7.41444 -0.220614 0)
(7.45777 -0.26737 0)
(7.50398 -0.297953 0)
(7.55396 -0.316337 0)
(7.60617 -0.326228 0)
(7.6595 -0.330319 0)
(7.71305 -0.330318 0)
(7.76582 -0.327391 0)
(7.8169 -0.32236 0)
(7.86564 -0.31581 0)
(7.9116 -0.308182 0)
(7.95447 -0.299824 0)
(7.99413 -0.291016 0)
(8.03056 -0.281993 0)
(8.06385 -0.272952 0)
(8.09413 -0.264052 0)
(8.12158 -0.255424 0)
(8.14643 -0.24717 0)
(8.16887 -0.239365 0)
(8.18913 -0.232063 0)
(8.20742 -0.2253 0)
(8.22392 -0.219096 0)
(8.23882 -0.213458 0)
(8.25227 -0.208386 0)
(8.26442 -0.203878 0)
(8.27537 -0.199929 0)
(8.28525 -0.196544 0)
(8.29413 -0.193728 0)
(8.30212 -0.191535 0)
(8.30928 -0.189967 0)
(8.3158 -0.189201 0)
(7.33754 -0.0403901 0)
(7.38839 -0.105675 0)
(7.47741 -0.163324 0)
(7.57871 -0.218918 0)
(7.68618 -0.266189 0)
(7.79469 -0.302793 0)
(7.89826 -0.329388 0)
(7.99341 -0.346684 0)
(8.07821 -0.355779 0)
(8.15162 -0.358156 0)
(8.21344 -0.355294 0)
(8.26412 -0.34852 0)
(8.30445 -0.338979 0)
(8.33541 -0.327616 0)
(8.35811 -0.315182 0)
(8.37365 -0.302261 0)
(8.38306 -0.289296 0)
(8.38728 -0.276611 0)
(8.38718 -0.264436 0)
(8.38348 -0.252926 0)
(8.37682 -0.242179 0)
(8.36774 -0.232247 0)
(8.35668 -0.223148 0)
(8.34402 -0.214875 0)
(8.33006 -0.207403 0)
(8.31505 -0.200694 0)
(8.29917 -0.194705 0)
(8.28255 -0.189388 0)
(8.26531 -0.184711 0)
(8.24746 -0.180648 0)
(8.22911 -0.177289 0)
(8.20997 -0.174586 0)
(8.19069 -0.173487 0)
(7.39944 -0.196814 0)
(7.59545 -0.376168 0)
(7.76787 -0.45908 0)
(7.8946 -0.512899 0)
(7.97767 -0.541481 0)
(8.01523 -0.550683 0)
(8.01153 -0.547153 0)
(7.97498 -0.534266 0)
(7.91327 -0.514543 0)
(7.833 -0.490263 0)
(7.73995 -0.463231 0)
(7.63885 -0.434847 0)
(7.5334 -0.406194 0)
(7.4264 -0.378079 0)
(7.31995 -0.351069 0)
(7.2155 -0.325543 0)
(7.11407 -0.301725 0)
(7.01628 -0.279726 0)
(6.92251 -0.25957 0)
(6.83292 -0.241224 0)
(6.74753 -0.224616 0)
(6.66624 -0.209644 0)
(6.58891 -0.196193 0)
(6.51534 -0.184139 0)
(6.44531 -0.173354 0)
(6.37859 -0.163706 0)
(6.31493 -0.155059 0)
(6.25407 -0.147283 0)
(6.19575 -0.140219 0)
(6.13959 -0.133725 0)
(6.08526 -0.127699 0)
(6.03173 -0.121366 0)
(5.97942 -0.118034 0)
(7.16012 -0.185911 0)
(6.91088 -0.345243 0)
(6.49966 -0.392584 0)
(6.03592 -0.394068 0)
(5.59577 -0.36597 0)
(5.17948 -0.322126 0)
(4.79112 -0.27346 0)
(4.43745 -0.225597 0)
(4.119 -0.181523 0)
(3.83409 -0.142714 0)
(3.58066 -0.109562 0)
(3.35613 -0.0818692 0)
(3.15763 -0.0591467 0)
(2.98235 -0.0407665 0)
(2.8276 -0.0260714 0)
(2.6909 -0.014442 0)
(2.56998 -0.00532621 0)
(2.46282 0.00175003 0)
(2.36761 0.00718387 0)
(2.28278 0.0113022 0)
(2.20693 0.0143713 0)
(2.13886 0.0166064 0)
(2.07754 0.0181817 0)
(2.02204 0.0192389 0)
(1.97159 0.0198986 0)
(1.92555 0.0202649 0)
(1.88332 0.0204532 0)
(1.84453 0.02058 0)
(1.80865 0.0208611 0)
(1.77588 0.0215948 0)
(1.7453 0.0230968 0)
(1.71889 0.0278888 0)
(1.69473 0.0232019 0)
(1.42425 0.0171115 0)
(1.75287 0.0699759 0)
(2.05532 0.0281305 0)
(2.2308 -0.0537564 0)