/*--------------------------------*- C++ -*----------------------------------*\
  =========                 |
  \\      /  F ield         | OpenFOAM: The Open Source CFD Toolbox
   \\    /   O peration     | Website:  https://openfoam.org
    \\  /    A nd           | Version:  10
     \\/     M anipulation  |
\*---------------------------------------------------------------------------*/
FoamFile
{
    format      ascii;
    class       volScalarField;
    location    "0.05";
    object      nut;
}
// * * * * * * * * * * * * * * * * * * * * * * * * * * * * * * * * * * * * * //

dimensions      [0 2 -1 0 0 0 0];

internalField   nonuniform List<scalar> 
6820
(
0.000503209
0.000397071
0.000324495
0.000269331
0.000236436
0.000214018
0.000197363
0.000184604
0.000174278
0.000165591
0.000158095
0.000151497
0.000145601
0.00014027
0.000135404
0.000130927
0.000126782
0.000122923
0.000119315
0.000115931
0.000112746
0.000109743
0.000106905
0.000104219
0.000101672
9.92569e-05
9.69646e-05
9.47907e-05
9.27051e-05
9.07554e-05
8.87972e-05
8.70587e-05
8.46845e-05
8.18518e-05
0.000143726
0.00019642
0.000210838
0.000206411
0.000197549
0.000187284
0.000177374
0.000168407
0.000160368
0.000153155
0.000146651
0.000140746
0.000135352
0.000130396
0.000125819
0.000121571
0.000117611
0.000113905
0.000110422
0.00010714
0.000104036
0.000101093
9.82958e-05
9.56329e-05
9.30913e-05
9.06621e-05
8.83388e-05
8.61308e-05
8.40032e-05
8.20948e-05
8.01586e-05
7.95202e-05
3.85904e-05
2.73934e-05
4.30503e-05
7.44744e-05
9.58909e-05
0.000109263
0.000116522
0.000119833
0.000120773
0.000120245
0.000118808
0.000116812
0.000114478
0.00011195
0.000109321
0.000106652
0.000103983
0.000101341
9.87437e-05
9.62022e-05
9.37231e-05
9.13101e-05
8.89648e-05
8.66874e-05
8.44775e-05
8.23348e-05
8.02576e-05
7.82474e-05
7.63065e-05
7.44458e-05
7.26739e-05
7.10195e-05
6.95888e-05
1.99677e-05
2.35287e-05
2.20697e-05
1.27854e-05
2.91769e-06
1.2439e-05
2.29756e-05
3.16499e-05
3.86451e-05
4.42131e-05
4.85942e-05
5.20016e-05
5.46078e-05
5.65504e-05
5.79485e-05
5.88995e-05
5.9483e-05
5.97643e-05
5.97971e-05
5.96255e-05
5.92856e-05
5.88072e-05
5.82149e-05
5.75292e-05
5.67671e-05
5.59432e-05
5.50707e-05
5.41611e-05
5.32273e-05
5.22821e-05
5.13419e-05
5.04197e-05
4.95313e-05
1.32447e-05
1.50842e-05
1.9934e-05
2.2028e-05
2.14743e-05
1.95266e-05
1.68928e-05
1.39392e-05
1.08819e-05
7.84938e-06
4.92611e-06
2.19007e-06
7.54349e-07
2.92072e-06
5.06158e-06
7.005e-06
8.74675e-06
1.02943e-05
1.16584e-05
1.28514e-05
1.38857e-05
1.47737e-05
1.55273e-05
1.61576e-05
1.66753e-05
1.70905e-05
1.74126e-05
1.7651e-05
1.78145e-05
1.79129e-05
1.79483e-05
1.79275e-05
1.78044e-05
1.01909e-05
1.10249e-05
1.18525e-05
1.26541e-05
1.32908e-05
1.38355e-05
1.42332e-05
1.44493e-05
1.44957e-05
1.43938e-05
1.41651e-05
1.38324e-05
1.34166e-05
1.29323e-05
1.23986e-05
1.18313e-05
1.12442e-05
1.0649e-05
1.00552e-05
9.47057e-06
8.9013e-06
8.35219e-06
7.82686e-06
7.32803e-06
6.85752e-06
6.41669e-06
6.00603e-06
5.62696e-06
5.27855e-06
4.96843e-06
4.69405e-06
4.50119e-06
4.37065e-06
7.53501e-06
8.25746e-06
8.68519e-06
8.92129e-06
8.81962e-06
8.61857e-06
8.46165e-06
8.37995e-06
8.36678e-06
8.39749e-06
8.44503e-06
8.49068e-06
8.52507e-06
8.54597e-06
8.5501e-06
8.53613e-06
8.50429e-06
8.45558e-06
8.39142e-06
8.31343e-06
8.22333e-06
8.12284e-06
8.01361e-06
7.89725e-06
7.7752e-06
7.64906e-06
7.52022e-06
7.39134e-06
7.26428e-06
7.14791e-06
7.04536e-06
6.99257e-06
6.99034e-06
5.75197e-06
6.61989e-06
7.02118e-06
7.13452e-06
6.88405e-06
6.52475e-06
6.19778e-06
5.92767e-06
5.71293e-06
5.54441e-06
5.41008e-06
5.30032e-06
5.20806e-06
5.12809e-06
5.05704e-06
4.99258e-06
4.93279e-06
4.87612e-06
4.82138e-06
4.76772e-06
4.71454e-06
4.66147e-06
4.60831e-06
4.55504e-06
4.50179e-06
4.44905e-06
4.39755e-06
4.34934e-06
4.30662e-06
4.27668e-06
4.26487e-06
4.29407e-06
4.36939e-06
4.47734e-06
5.25793e-06
5.56026e-06
5.71572e-06
5.63532e-06
5.4292e-06
5.1881e-06
4.94647e-06
4.72372e-06
4.52781e-06
4.35716e-06
4.20749e-06
4.0749e-06
3.95624e-06
3.84897e-06
3.75105e-06
3.66094e-06
3.57748e-06
3.49981e-06
3.4273e-06
3.35947e-06
3.29599e-06
3.23662e-06
3.18134e-06
3.13025e-06
3.08384e-06
3.04296e-06
3.00947e-06
2.98574e-06
2.97712e-06
2.98812e-06
3.02976e-06
3.10906e-06
3.54772e-06
4.24862e-06
4.53596e-06
4.70171e-06
4.66947e-06
4.51064e-06
4.31312e-06
4.11578e-06
3.93521e-06
3.77613e-06
3.63607e-06
3.51129e-06
3.39886e-06
3.29651e-06
3.20249e-06
3.11561e-06
3.03499e-06
2.95999e-06
2.89008e-06
2.82486e-06
2.76402e-06
2.70738e-06
2.65486e-06
2.60652e-06
2.56262e-06
2.52371e-06
2.49067e-06
2.46509e-06
2.44895e-06
2.44566e-06
2.45846e-06
2.49163e-06
2.55167e-06
2.8568e-06
3.47148e-06
3.74018e-06
3.894e-06
3.89754e-06
3.79567e-06
3.65264e-06
3.49877e-06
3.34867e-06
3.20964e-06
3.08334e-06
2.96914e-06
2.86589e-06
2.77229e-06
2.68707e-06
2.60918e-06
2.53769e-06
2.47185e-06
2.41106e-06
2.35487e-06
2.30293e-06
2.25503e-06
2.21107e-06
2.1711e-06
2.13531e-06
2.10415e-06
2.07832e-06
2.05892e-06
2.0473e-06
2.04526e-06
2.05466e-06
2.07556e-06
2.1135e-06
2.32985e-06
2.864e-06
3.1301e-06
3.28846e-06
3.32418e-06
3.26098e-06
3.14835e-06
3.01696e-06
2.88403e-06
2.7588e-06
2.64431e-06
2.54058e-06
2.4468e-06
2.36185e-06
2.28463e-06
2.21417e-06
2.14968e-06
2.09052e-06
2.03617e-06
1.98622e-06
1.94037e-06
1.89839e-06
1.86015e-06
1.82564e-06
1.79497e-06
1.76839e-06
1.74633e-06
1.72935e-06
1.71815e-06
1.71325e-06
1.71539e-06
1.72256e-06
1.73934e-06
1.91822e-06
2.38406e-06
2.65103e-06
2.81249e-06
2.86811e-06
2.83478e-06
2.75189e-06
2.64712e-06
2.53617e-06
2.4277e-06
2.32546e-06
2.23067e-06
2.14356e-06
2.06386e-06
1.99103e-06
1.92452e-06
1.86375e-06
1.80821e-06
1.75743e-06
1.711e-06
1.66859e-06
1.62993e-06
1.59483e-06
1.56317e-06
1.53492e-06
1.51011e-06
1.48885e-06
1.47122e-06
1.45732e-06
1.44684e-06
1.43973e-06
1.4331e-06
1.43052e-06
1.58915e-06
1.99963e-06
2.26894e-06
2.43747e-06
2.51168e-06
2.50458e-06
2.44638e-06
2.36169e-06
2.26595e-06
2.16861e-06
2.07466e-06
1.98639e-06
1.9047e-06
1.8297e-06
1.76109e-06
1.69843e-06
1.64122e-06
1.58896e-06
1.54123e-06
1.4976e-06
1.45775e-06
1.42136e-06
1.38818e-06
1.35799e-06
1.33063e-06
1.30591e-06
1.28365e-06
1.26358e-06
1.24535e-06
1.22814e-06
1.21142e-06
1.19214e-06
1.17298e-06
1.32018e-06
1.68833e-06
1.96065e-06
2.13768e-06
2.22677e-06
2.23993e-06
2.20177e-06
2.13469e-06
2.05371e-06
1.9682e-06
1.88349e-06
1.80232e-06
1.72603e-06
1.65513e-06
1.58967e-06
1.52947e-06
1.47421e-06
1.42356e-06
1.37715e-06
1.33461e-06
1.2956e-06
1.25978e-06
1.22685e-06
1.19647e-06
1.16835e-06
1.14212e-06
1.11739e-06
1.0936e-06
1.07011e-06
1.04583e-06
1.01996e-06
9.89669e-07
9.56744e-07
1.0957e-06
1.43357e-06
1.70934e-06
1.89576e-06
1.99839e-06
2.02928e-06
2.00898e-06
1.95746e-06
1.88899e-06
1.81294e-06
1.73509e-06
1.65884e-06
1.58609e-06
1.51778e-06
1.45427e-06
1.39558e-06
1.34151e-06
1.2918e-06
1.2461e-06
1.20404e-06
1.16527e-06
1.12941e-06
1.09607e-06
1.06487e-06
1.03536e-06
1.00707e-06
9.7942e-07
9.51708e-07
9.2312e-07
8.92466e-07
8.5882e-07
8.19694e-07
7.76106e-07
9.04588e-07
1.22326e-06
1.50338e-06
1.69948e-06
1.81439e-06
1.86029e-06
1.85507e-06
1.81679e-06
1.7592e-06
1.69167e-06
1.6203e-06
1.54887e-06
1.4796e-06
1.41373e-06
1.35185e-06
1.29414e-06
1.24056e-06
1.19093e-06
1.14499e-06
1.10241e-06
1.06283e-06
1.02589e-06
9.91157e-07
9.58194e-07
9.26502e-07
8.95515e-07
8.64581e-07
8.32915e-07
7.99645e-07
7.63604e-07
7.23835e-07
6.78278e-07
6.27225e-07
7.38892e-07
1.04873e-06
1.33442e-06
1.54008e-06
1.66633e-06
1.72549e-06
1.73367e-06
1.70733e-06
1.65955e-06
1.59962e-06
1.5338e-06
1.46622e-06
1.39947e-06
1.3351e-06
1.27396e-06
1.21644e-06
1.16266e-06
1.11252e-06
1.06582e-06
1.02228e-06
9.81539e-07
9.43224e-07
9.069e-07
8.7209e-07
8.38264e-07
8.04822e-07
7.71092e-07
7.3629e-07
6.99569e-07
6.59877e-07
6.16325e-07
5.67307e-07
5.12667e-07
5.93019e-07
9.04055e-07
1.1967e-06
1.41152e-06
1.54823e-06
1.61909e-06
1.639e-06
1.62307e-06
1.5838e-06
1.53037e-06
1.46925e-06
1.40484e-06
1.34003e-06
1.27663e-06
1.21571e-06
1.15784e-06
1.10325e-06
1.05197e-06
1.00386e-06
9.58689e-07
9.16162e-07
8.75913e-07
8.37534e-07
8.00563e-07
7.6449e-07
7.28744e-07
6.927e-07
6.55659e-07
6.16891e-07
5.75557e-07
5.30963e-07
4.82093e-07
4.28705e-07
4.63548e-07
7.85781e-07
1.08647e-06
1.30974e-06
1.456e-06
1.53732e-06
1.56773e-06
1.56124e-06
1.52978e-06
1.48243e-06
1.42574e-06
1.36434e-06
1.30134e-06
1.23881e-06
1.17801e-06
1.11969e-06
1.06423e-06
1.01175e-06
9.62212e-07
9.15453e-07
8.71222e-07
8.29206e-07
7.89039e-07
7.50311e-07
7.12568e-07
6.75322e-07
6.38055e-07
6.00224e-07
5.61306e-07
5.20778e-07
4.78317e-07
4.33622e-07
3.87034e-07
3.49968e-07
6.92803e-07
1.00154e-06
1.23217e-06
1.38686e-06
1.47735e-06
1.51687e-06
1.5185e-06
1.49361e-06
1.45113e-06
1.39771e-06
1.33815e-06
1.27583e-06
1.21305e-06
1.1513e-06
1.09151e-06
1.03421e-06
9.79657e-07
9.27899e-07
8.78863e-07
8.32377e-07
7.88197e-07
7.46033e-07
7.05553e-07
6.66403e-07
6.28212e-07
5.90616e-07
5.53276e-07
5.15928e-07
4.78413e-07
4.40833e-07
4.03594e-07
3.67611e-07
2.57824e-07
6.26312e-07
9.4117e-07
1.17761e-06
1.33962e-06
1.43835e-06
1.48625e-06
1.49558e-06
1.47721e-06
1.43989e-06
1.39028e-06
1.33332e-06
1.27257e-06
1.21047e-06
1.1487e-06
1.08832e-06
1.03001e-06
9.74126e-07
9.2084e-07
8.70169e-07
8.22036e-07
7.76298e-07
7.32763e-07
6.91218e-07
6.51438e-07
6.13212e-07
5.76363e-07
5.4078e-07
5.06473e-07
4.73612e-07
4.4265e-07
4.14377e-07
3.89955e-07
2.0624e-07
5.89175e-07
9.05471e-07
1.14543e-06
1.31306e-06
1.41836e-06
1.4728e-06
1.48786e-06
1.47391e-06
1.43953e-06
1.39146e-06
1.33481e-06
1.27334e-06
1.20976e-06
1.14593e-06
1.08313e-06
1.02217e-06
9.63567e-07
9.07587e-07
8.54354e-07
8.03885e-07
7.56125e-07
7.10981e-07
6.68343e-07
6.28106e-07
5.90189e-07
5.54565e-07
5.21288e-07
4.90533e-07
4.62629e-07
4.38113e-07
4.1777e-07
4.02454e-07
2.22481e-07
5.84726e-07
8.9566e-07
1.13682e-06
1.30915e-06
1.42089e-06
1.48242e-06
1.50439e-06
1.49663e-06
1.46742e-06
1.42339e-06
1.36967e-06
1.3101e-06
1.24749e-06
1.18385e-06
1.12059e-06
1.05868e-06
9.9876e-07
9.41239e-07
8.86367e-07
8.34282e-07
7.85055e-07
7.38715e-07
6.95277e-07
6.54761e-07
6.17214e-07
5.82726e-07
5.51456e-07
5.23642e-07
4.99619e-07
4.79818e-07
4.64775e-07
4.54914e-07
2.99578e-07
6.14567e-07
9.12455e-07
1.15125e-06
1.32529e-06
1.44008e-06
1.50464e-06
1.52888e-06
1.52227e-06
1.49305e-06
1.44799e-06
1.39241e-06
1.33038e-06
1.26493e-06
1.19823e-06
1.13184e-06
1.06684e-06
1.00396e-06
9.43678e-07
8.86311e-07
8.3206e-07
7.81051e-07
7.33374e-07
6.89102e-07
6.48311e-07
6.11097e-07
5.77581e-07
5.47925e-07
5.22329e-07
5.01031e-07
4.84286e-07
4.72401e-07
4.65418e-07
4.11511e-07
6.78446e-07
9.58681e-07
1.19431e-06
1.37163e-06
1.49292e-06
1.56549e-06
1.59806e-06
1.59925e-06
1.57674e-06
1.53699e-06
1.48523e-06
1.42559e-06
1.36122e-06
1.29449e-06
1.22718e-06
1.16056e-06
1.09557e-06
1.03286e-06
9.72914e-07
9.16053e-07
8.62519e-07
8.12494e-07
7.66121e-07
7.23528e-07
6.84834e-07
6.5016e-07
6.19628e-07
5.93359e-07
5.71467e-07
5.54032e-07
5.41164e-07
5.32616e-07
5.46507e-07
7.74357e-07
1.03314e-06
1.26008e-06
1.43312e-06
1.55106e-06
1.62003e-06
1.64852e-06
1.64532e-06
1.61835e-06
1.5743e-06
1.51854e-06
1.45524e-06
1.38758e-06
1.3179e-06
1.24793e-06
1.17891e-06
1.11174e-06
1.04706e-06
9.85308e-07
9.26824e-07
8.71844e-07
8.2055e-07
7.73082e-07
7.29555e-07
6.90067e-07
6.54697e-07
6.2351e-07
5.96549e-07
5.73841e-07
5.5536e-07
5.41153e-07
5.30747e-07
7.03078e-07
9.03138e-07
1.14492e-06
1.37076e-06
1.55211e-06
1.68323e-06
1.76702e-06
1.80969e-06
1.81853e-06
1.80069e-06
1.76266e-06
1.71001e-06
1.64732e-06
1.57823e-06
1.50559e-06
1.43154e-06
1.35771e-06
1.28527e-06
1.21507e-06
1.14774e-06
1.08368e-06
1.02321e-06
9.6652e-07
9.13754e-07
8.64999e-07
8.20308e-07
7.79703e-07
7.43176e-07
7.10694e-07
6.82194e-07
6.5756e-07
6.36767e-07
6.19172e-07
8.84776e-07
1.06448e-06
1.28331e-06
1.49034e-06
1.65331e-06
1.76593e-06
1.83251e-06
1.86075e-06
1.85867e-06
1.8334e-06
1.79094e-06
1.73616e-06
1.67293e-06
1.60426e-06
1.53248e-06
1.45939e-06
1.38637e-06
1.31446e-06
1.24446e-06
1.17695e-06
1.11238e-06
1.05105e-06
9.93195e-07
9.38955e-07
8.88416e-07
8.41617e-07
7.98556e-07
7.592e-07
7.23488e-07
6.91345e-07
6.62638e-07
6.37421e-07
6.14795e-07
1.09788e-06
1.26896e-06
1.48746e-06
1.71562e-06
1.91285e-06
2.06189e-06
2.15966e-06
2.21049e-06
2.2217e-06
2.20138e-06
2.15726e-06
2.09605e-06
2.02324e-06
1.94316e-06
1.85911e-06
1.77352e-06
1.68817e-06
1.60432e-06
1.52283e-06
1.44429e-06
1.3691e-06
1.29749e-06
1.22959e-06
1.16546e-06
1.1051e-06
1.04847e-06
9.95499e-07
9.46083e-07
9.00111e-07
8.57444e-07
8.17903e-07
7.81466e-07
7.4717e-07
1.35361e-06
1.51355e-06
1.69125e-06
1.86246e-06
1.99964e-06
2.09777e-06
2.16057e-06
2.1932e-06
2.20013e-06
2.18523e-06
2.1522e-06
2.10453e-06
2.04547e-06
1.97796e-06
1.90459e-06
1.82757e-06
1.74872e-06
1.66951e-06
1.59108e-06
1.51431e-06
1.43981e-06
1.36802e-06
1.2992e-06
1.23352e-06
1.17102e-06
1.11171e-06
1.05551e-06
1.00236e-06
9.52141e-07
9.04772e-07
8.601e-07
8.18302e-07
7.77946e-07
1.66432e-06
1.84515e-06
2.08681e-06
2.36678e-06
2.61243e-06
2.78688e-06
2.88786e-06
2.92701e-06
2.91826e-06
2.87456e-06
2.80675e-06
2.72315e-06
2.62977e-06
2.53088e-06
2.42939e-06
2.3273e-06
2.22597e-06
2.12632e-06
2.02897e-06
1.93437e-06
1.84278e-06
1.75438e-06
1.66928e-06
1.58749e-06
1.50899e-06
1.43373e-06
1.36161e-06
1.29255e-06
1.22643e-06
1.16313e-06
1.10253e-06
1.04467e-06
9.8838e-07
2.06042e-06
2.19924e-06
2.27933e-06
2.36389e-06
2.46237e-06
2.56678e-06
2.66447e-06
2.74334e-06
2.79487e-06
2.81571e-06
2.80691e-06
2.77215e-06
2.7162e-06
2.644e-06
2.5601e-06
2.46837e-06
2.37195e-06
2.27327e-06
2.17416e-06
2.07594e-06
1.97952e-06
1.8855e-06
1.79424e-06
1.70591e-06
1.62058e-06
1.5382e-06
1.45869e-06
1.38198e-06
1.30798e-06
1.2367e-06
1.16809e-06
1.10266e-06
1.03846e-06
2.56184e-06
2.87369e-06
3.29971e-06
3.72709e-06
4.01215e-06
4.14316e-06
4.1666e-06
4.12298e-06
4.03853e-06
3.93027e-06
3.80824e-06
3.67786e-06
3.54219e-06
3.40323e-06
3.26255e-06
3.12148e-06
2.98131e-06
2.84318e-06
2.70807e-06
2.57679e-06
2.44994e-06
2.3279e-06
2.21091e-06
2.099e-06
1.9921e-06
1.89004e-06
1.79257e-06
1.69942e-06
1.61036e-06
1.5252e-06
1.44382e-06
1.36659e-06
1.29216e-06
3.26584e-06
3.18071e-06
2.91734e-06
2.88499e-06
3.08233e-06
3.36253e-06
3.61925e-06
3.80489e-06
3.90919e-06
3.94352e-06
3.92749e-06
3.88028e-06
3.81733e-06
3.74957e-06
3.68378e-06
3.62346e-06
3.5698e-06
3.52261e-06
3.48095e-06
3.4436e-06
3.40932e-06
3.37698e-06
3.34563e-06
3.31448e-06
3.28291e-06
3.25041e-06
3.21659e-06
3.18117e-06
3.14402e-06
3.10523e-06
3.06507e-06
3.02538e-06
2.98369e-06
4.30269e-06
5.53687e-06
6.30066e-06
6.55367e-06
6.45793e-06
6.24568e-06
6.10664e-06
6.12366e-06
6.30291e-06
6.60562e-06
6.97846e-06
7.37445e-06
7.75945e-06
8.11155e-06
8.41858e-06
8.67532e-06
8.88116e-06
9.03822e-06
9.1502e-06
9.2215e-06
9.25676e-06
9.26049e-06
9.23689e-06
9.18975e-06
9.12235e-06
9.0375e-06
8.93752e-06
8.82416e-06
8.69904e-06
8.56285e-06
8.41757e-06
8.26424e-06
8.10556e-06
5.62942e-06
3.57747e-06
2.76624e-06
4.63324e-06
7.35282e-06
9.9201e-06
1.20999e-05
1.38281e-05
1.51172e-05
1.60095e-05
1.65524e-05
1.6795e-05
1.67856e-05
1.65698e-05
1.61892e-05
1.56803e-05
1.50751e-05
1.44008e-05
1.36798e-05
1.29306e-05
1.21678e-05
1.1403e-05
1.06449e-05
9.90001e-06
9.17278e-06
8.46611e-06
7.78158e-06
7.11912e-06
6.4786e-06
5.85602e-06
5.25388e-06
4.658e-06
4.08842e-06
1.14362e-05
1.65135e-05
1.8278e-05
1.97857e-05
2.02513e-05
1.94972e-05
1.77457e-05
1.52715e-05
1.24303e-05
9.76302e-06
8.16031e-06
8.55557e-06
1.06798e-05
1.35648e-05
1.66224e-05
1.95967e-05
2.23783e-05
2.49216e-05
2.72119e-05
2.92511e-05
3.10493e-05
3.26217e-05
3.39854e-05
3.5158e-05
3.61574e-05
3.70004e-05
3.77033e-05
3.82815e-05
3.87508e-05
3.91269e-05
3.94305e-05
3.9681e-05
3.99292e-05
2.48809e-05
2.86538e-05
3.90023e-05
5.34407e-05
6.77003e-05
8.16179e-05
9.44582e-05
0.000105616
0.000115045
0.000122823
0.000129056
0.000133901
0.000137528
0.0001401
0.000141771
0.000142679
0.000142948
0.000142685
0.000141981
0.000140918
0.000139561
0.000137968
0.000136186
0.000134256
0.000132209
0.000130074
0.000127872
0.000125619
0.000123333
0.000121016
0.000118687
0.000116351
0.000114227
0.000543317
0.000510567
0.000491584
0.000467878
0.000443836
0.000421478
0.000399963
0.00037936
0.000359936
0.000341711
0.000324671
0.000308802
0.000294059
0.00028038
0.000267694
0.000255927
0.000245004
0.000234851
0.000225399
0.000216581
0.000208337
0.000200612
0.000193356
0.000186522
0.000180071
0.000173965
0.00016817
0.000162658
0.000157384
0.000152351
0.00014739
0.00014307
0.000139072
7.66765e-05
6.3937e-05
5.52149e-05
5.50298e-05
6.16281e-05
7.13856e-05
8.20016e-05
9.2315e-05
9.96638e-05
0.000100629
8.12211e-05
6.2207e-05
5.63695e-05
4.96815e-05
4.19689e-05
3.55612e-05
3.10589e-05
2.82153e-05
2.61888e-05
2.39701e-05
2.09011e-05
1.67093e-05
1.19014e-05
6.81131e-06
2.37983e-06
1.08326e-05
1.44886e-05
1.04653e-05
1.1945e-05
1.49609e-05
2.15961e-05
2.78477e-05
2.83416e-05
2.51958e-05
2.17387e-05
1.90471e-05
1.69254e-05
1.51276e-05
1.3556e-05
1.21718e-05
1.0946e-05
9.85316e-06
8.87415e-06
7.99525e-06
7.20529e-06
6.49419e-06
5.8527e-06
5.27254e-06
4.74649e-06
4.26836e-06
3.83293e-06
3.43602e-06
3.07447e-06
2.74589e-06
2.44773e-06
2.17634e-06
1.92705e-06
1.69612e-06
1.48388e-06
1.29623e-06
1.14171e-06
1.02494e-06
9.41845e-07
8.81665e-07
8.32792e-07
7.86597e-07
7.38528e-07
6.88187e-07
6.38347e-07
5.92543e-07
5.5252e-07
5.17191e-07
4.83594e-07
4.48894e-07
4.1198e-07
3.73774e-07
3.36383e-07
3.01898e-07
2.71564e-07
2.45592e-07
2.23508e-07
2.04644e-07
1.88324e-07
1.74306e-07
1.6247e-07
1.52366e-07
1.43875e-07
1.3679e-07
1.30898e-07
1.26005e-07
1.21987e-07
1.18699e-07
1.16171e-07
1.14123e-07
1.12968e-07
1.11703e-07
1.11987e-07
1.10825e-07
1.12625e-07
1.09679e-07
0.000101925
9.13352e-05
8.15336e-05
7.74705e-05
7.70659e-05
7.91681e-05
8.33795e-05
8.92872e-05
9.54281e-05
0.000101205
0.000102619
8.18795e-05
5.86062e-05
5.03196e-05
4.40963e-05
3.68023e-05
3.10986e-05
2.75695e-05
2.51858e-05
2.27913e-05
1.9674e-05
1.56638e-05
1.12363e-05
6.03835e-06
8.22257e-06
1.46304e-05
1.14337e-05
8.53083e-06
1.20873e-05
1.68943e-05
2.56452e-05
2.96922e-05
2.80015e-05
2.43581e-05
2.11814e-05
1.87526e-05
1.67731e-05
1.50606e-05
1.35483e-05
1.22044e-05
1.1004e-05
9.92689e-06
8.95794e-06
8.08522e-06
7.29815e-06
6.58706e-06
5.94324e-06
5.359e-06
4.82768e-06
4.34351e-06
3.90157e-06
3.49785e-06
3.12936e-06
2.79387e-06
2.48911e-06
2.21172e-06
1.95717e-06
1.72161e-06
1.50521e-06
1.3139e-06
1.15685e-06
1.03952e-06
9.58027e-07
9.00784e-07
8.54774e-07
8.1017e-07
7.61843e-07
7.09505e-07
6.56547e-07
6.0732e-07
5.64262e-07
5.26634e-07
4.91462e-07
4.55656e-07
4.17802e-07
3.78612e-07
3.40139e-07
3.04533e-07
2.7313e-07
2.4622e-07
2.23367e-07
2.03905e-07
1.87216e-07
1.73011e-07
1.60634e-07
1.50252e-07
1.41528e-07
1.34259e-07
1.28235e-07
1.23251e-07
1.19159e-07
1.15782e-07
1.13102e-07
1.10838e-07
1.09338e-07
1.07702e-07
1.07468e-07
1.05746e-07
1.07188e-07
1.03278e-07
9.18833e-05
8.90275e-05
8.39313e-05
7.9691e-05
7.63798e-05
7.46077e-05
7.53122e-05
7.84539e-05
8.29801e-05
8.76689e-05
9.35158e-05
9.4053e-05
7.6284e-05
5.34667e-05
4.33192e-05
3.86247e-05
3.30038e-05
2.77913e-05
2.40378e-05
2.10862e-05
1.79383e-05
1.42927e-05
1.03391e-05
9.68387e-06
1.47423e-05
1.3172e-05
5.27039e-06
9.27949e-06
1.2443e-05
2.18519e-05
2.96064e-05
3.03562e-05
2.70637e-05
2.34347e-05
2.06459e-05
1.84774e-05
1.66356e-05
1.50034e-05
1.35447e-05
1.22379e-05
1.10627e-05
1.00028e-05
9.04551e-06
8.17983e-06
7.39594e-06
6.68489e-06
6.03867e-06
5.45027e-06
4.91355e-06
4.42318e-06
3.97452e-06
3.5638e-06
3.18819e-06
2.84566e-06
2.53419e-06
2.25065e-06
1.99059e-06
1.75002e-06
1.52876e-06
1.33276e-06
1.17183e-06
1.0525e-06
9.71481e-07
9.16579e-07
8.73417e-07
8.30813e-07
7.82826e-07
7.29071e-07
6.73459e-07
6.21181e-07
5.75451e-07
5.35975e-07
4.99818e-07
4.63649e-07
4.25727e-07
3.86523e-07
3.47994e-07
3.1231e-07
2.80871e-07
2.54009e-07
2.31284e-07
2.11985e-07
1.95462e-07
1.81256e-07
1.68941e-07
1.58687e-07
1.50028e-07
1.42817e-07
1.36868e-07
1.31981e-07
1.28003e-07
1.24763e-07
1.22207e-07
1.20096e-07
1.18637e-07
1.17191e-07
1.16707e-07
1.1546e-07
1.15942e-07
1.12766e-07
6.49062e-05
6.32753e-05
5.9829e-05
5.62183e-05
5.29204e-05
5.0869e-05
5.11721e-05
5.39257e-05
5.84089e-05
6.39282e-05
7.01226e-05
7.82463e-05
8.09931e-05
6.91022e-05
4.96469e-05
3.73416e-05
3.31063e-05
3.00101e-05
2.62767e-05
2.25557e-05
1.92531e-05
1.64546e-05
1.53265e-05
1.65321e-05
1.3752e-05
3.27534e-06
7.01048e-06
8.93314e-06
1.72446e-05
2.81429e-05
3.18855e-05
2.96202e-05
2.57498e-05
2.25705e-05
2.01892e-05
1.82289e-05
1.64951e-05
1.49347e-05
1.35295e-05
1.22616e-05
1.11142e-05
1.00742e-05
9.1304e-06
8.27316e-06
7.49346e-06
6.78319e-06
6.13517e-06
5.54306e-06
5.00129e-06
4.50494e-06
4.04971e-06
3.63204e-06
3.24928e-06
2.89958e-06
2.58117e-06
2.29117e-06
2.02523e-06
1.77924e-06
1.55276e-06
1.35172e-06
1.18662e-06
1.06517e-06
9.84796e-07
9.32781e-07
8.93286e-07
8.53591e-07
8.06725e-07
7.52032e-07
6.93865e-07
6.38277e-07
5.89348e-07
5.47329e-07
5.09393e-07
4.72003e-07
4.33099e-07
3.92908e-07
3.533e-07
3.1649e-07
2.83969e-07
2.56147e-07
2.32614e-07
2.12644e-07
1.95546e-07
1.80888e-07
1.68446e-07
1.57754e-07
1.48825e-07
1.41395e-07
1.35269e-07
1.3025e-07
1.26182e-07
1.22887e-07
1.20311e-07
1.18199e-07
1.16764e-07
1.15339e-07
1.14906e-07
1.13637e-07
1.14298e-07
1.11142e-07
2.34296e-05
2.22321e-05
1.97026e-05
1.72225e-05
1.59489e-05
1.6929e-05
1.98248e-05
2.33183e-05
2.69456e-05
3.15066e-05
3.77579e-05
4.62804e-05
5.69886e-05
6.39738e-05
6.01398e-05
4.74264e-05
3.46872e-05
2.76536e-05
2.47929e-05
2.28841e-05
2.0852e-05
1.87627e-05
1.61471e-05
1.08347e-05
3.85656e-06
8.48829e-06
7.27609e-06
1.28443e-05
2.60996e-05
3.26295e-05
3.17897e-05
2.79757e-05
2.4448e-05
2.18446e-05
1.97838e-05
1.79771e-05
1.63381e-05
1.485e-05
1.35e-05
1.22731e-05
1.11561e-05
1.01382e-05
9.20991e-06
8.36255e-06
7.58815e-06
6.87958e-06
6.23052e-06
5.63531e-06
5.08894e-06
4.58691e-06
4.1253e-06
3.70078e-06
3.31093e-06
2.9541e-06
2.62873e-06
2.33221e-06
2.06031e-06
1.80876e-06
1.5768e-06
1.37028e-06
1.20035e-06
1.07599e-06
9.95619e-07
9.462e-07
9.10488e-07
8.74124e-07
8.2893e-07
7.73805e-07
7.1344e-07
6.54753e-07
6.02763e-07
5.58359e-07
5.18905e-07
4.80692e-07
4.41341e-07
4.00815e-07
3.60861e-07
3.23706e-07
2.90907e-07
2.62927e-07
2.3936e-07
2.19449e-07
2.02464e-07
1.87889e-07
1.7543e-07
1.6472e-07
1.55842e-07
1.48439e-07
1.42329e-07
1.37329e-07
1.33288e-07
1.30032e-07
1.27492e-07
1.25443e-07
1.24018e-07
1.22711e-07
1.22162e-07
1.21233e-07
1.21423e-07
1.18926e-07
6.19373e-06
7.48029e-06
9.02726e-06
1.057e-05
1.19323e-05
1.28093e-05
1.2816e-05
1.17952e-05
1.03191e-05
1.01931e-05
1.36626e-05
1.96247e-05
2.69128e-05
3.61282e-05
4.49602e-05
4.80842e-05
4.39624e-05
3.58354e-05
2.76604e-05
2.12951e-05
1.64749e-05
1.29423e-05
1.14567e-05
1.29408e-05
1.36335e-05
7.35941e-06
9.99717e-06
2.48336e-05
3.30679e-05
3.34333e-05
2.98864e-05
2.61494e-05
2.33676e-05
2.12404e-05
1.93985e-05
1.77123e-05
1.61645e-05
1.47499e-05
1.3457e-05
1.22736e-05
1.11895e-05
1.01959e-05
9.28476e-06
8.44856e-06
7.68056e-06
6.97464e-06
6.32531e-06
5.7276e-06
5.17706e-06
4.66968e-06
4.20188e-06
3.77065e-06
3.37376e-06
3.00976e-06
2.67734e-06
2.37412e-06
2.09602e-06
1.83865e-06
1.60091e-06
1.38857e-06
1.21337e-06
1.08572e-06
1.00519e-06
9.58592e-07
9.27252e-07
8.95023e-07
8.52312e-07
7.97371e-07
7.35115e-07
6.73309e-07
6.17982e-07
5.7076e-07
5.29275e-07
4.89685e-07
4.49303e-07
4.07814e-07
3.66842e-07
3.28626e-07
2.94808e-07
2.65926e-07
2.41605e-07
2.21068e-07
2.0356e-07
1.88547e-07
1.75713e-07
1.64897e-07
1.55739e-07
1.48105e-07
1.41842e-07
1.36727e-07
1.32601e-07
1.29286e-07
1.26708e-07
1.24633e-07
1.232e-07
1.21877e-07
1.21346e-07
1.20354e-07
1.20713e-07
1.18133e-07
9.67505e-06
1.07499e-05
1.18764e-05
1.26776e-05
1.29197e-05
1.24715e-05
1.12992e-05
9.5589e-06
7.71363e-06
6.81308e-06
8.49366e-06
1.27704e-05
1.75055e-05
2.05102e-05
2.27848e-05
2.72482e-05
3.20717e-05
3.39917e-05
3.26287e-05
2.94086e-05
2.59411e-05
2.3255e-05
2.04302e-05
1.4942e-05
4.17944e-06
1.15184e-05
2.59766e-05
3.38945e-05
3.4542e-05
3.12334e-05
2.74865e-05
2.46514e-05
2.25241e-05
2.06955e-05
1.90025e-05
1.74272e-05
1.59735e-05
1.46349e-05
1.34013e-05
1.22637e-05
1.12147e-05
1.02472e-05
9.35465e-06
8.53096e-06
7.77054e-06
7.06827e-06
6.41947e-06
5.81989e-06
5.26563e-06
4.75319e-06
4.2794e-06
3.84156e-06
3.43767e-06
3.06649e-06
2.72693e-06
2.41688e-06
2.13241e-06
1.86899e-06
1.62521e-06
1.40664e-06
1.22561e-06
1.09398e-06
1.01273e-06
9.68726e-07
9.41952e-07
9.14371e-07
8.74782e-07
8.20599e-07
7.56833e-07
6.92073e-07
6.33425e-07
5.83355e-07
5.39854e-07
4.99008e-07
4.57833e-07
4.15732e-07
3.74178e-07
3.35404e-07
3.01115e-07
2.71906e-07
2.47417e-07
2.26841e-07
2.09375e-07
1.94442e-07
1.81673e-07
1.7084e-07
1.61685e-07
1.54129e-07
1.47905e-07
1.42835e-07
1.38759e-07
1.35505e-07
1.32982e-07
1.30984e-07
1.29581e-07
1.28377e-07
1.27767e-07
1.27068e-07
1.27063e-07
1.25033e-07
6.13777e-06
6.88211e-06
7.66004e-06
8.22466e-06
8.43179e-06
8.26109e-06
7.82137e-06
7.36285e-06
7.26951e-06
7.86469e-06
9.17691e-06
1.14574e-05
1.52245e-05
1.96405e-05
2.21835e-05
2.14605e-05
1.9072e-05
1.77103e-05
1.76614e-05
1.7308e-05
1.56871e-05
1.1949e-05
5.97869e-06
8.28576e-06
1.98558e-05
3.00799e-05
3.52285e-05
3.49786e-05
3.1752e-05
2.82386e-05
2.55618e-05
2.35468e-05
2.17971e-05
2.01465e-05
1.85844e-05
1.71249e-05
1.57681e-05
1.45067e-05
1.33339e-05
1.22441e-05
1.12319e-05
1.02921e-05
9.4197e-06
8.6099e-06
7.85826e-06
7.16064e-06
6.51319e-06
5.91234e-06
5.35483e-06
4.83766e-06
4.35808e-06
3.91374e-06
3.50289e-06
3.1245e-06
2.77772e-06
2.46066e-06
2.16957e-06
1.89983e-06
1.64969e-06
1.42451e-06
1.23714e-06
1.10097e-06
1.0186e-06
9.77191e-07
9.55403e-07
9.33196e-07
8.97557e-07
8.44839e-07
7.79999e-07
7.12411e-07
6.50305e-07
5.97086e-07
5.51195e-07
5.08694e-07
4.66319e-07
4.23178e-07
3.80585e-07
3.40757e-07
3.05467e-07
2.75383e-07
2.50172e-07
2.29012e-07
2.11066e-07
1.95726e-07
1.82625e-07
1.71504e-07
1.62203e-07
1.54509e-07
1.48126e-07
1.4297e-07
1.38836e-07
1.35548e-07
1.33011e-07
1.3101e-07
1.29616e-07
1.28417e-07
1.27835e-07
1.27102e-07
1.27245e-07
1.25158e-07
4.38159e-06
4.89072e-06
5.42049e-06
5.82017e-06
6.01356e-06
6.01446e-06
5.93385e-06
5.98725e-06
6.44654e-06
7.47414e-06
9.01021e-06
1.08753e-05
1.31667e-05
1.64198e-05
2.0527e-05
2.39874e-05
2.53452e-05
2.45091e-05
2.25141e-05
2.06481e-05
1.99848e-05
2.13164e-05
2.50338e-05
3.01094e-05
3.42729e-05
3.56803e-05
3.41838e-05
3.11762e-05
2.82304e-05
2.59774e-05
2.42184e-05
2.26264e-05
2.10754e-05
1.95749e-05
1.8151e-05
1.68105e-05
1.55503e-05
1.43663e-05
1.32556e-05
1.2215e-05
1.12413e-05
1.03308e-05
9.48006e-06
8.68552e-06
7.94387e-06
7.25191e-06
6.60662e-06
6.00513e-06
5.44483e-06
4.92324e-06
4.43807e-06
3.98734e-06
3.56957e-06
3.18393e-06
2.82981e-06
2.50557e-06
2.20762e-06
1.9313e-06
1.6745e-06
1.44231e-06
1.24805e-06
1.10665e-06
1.02257e-06
9.83506e-07
9.6691e-07
9.50639e-07
9.19673e-07
8.69094e-07
8.03644e-07
7.33429e-07
6.67858e-07
6.11376e-07
5.62981e-07
5.18782e-07
4.75266e-07
4.31245e-07
3.87856e-07
3.47285e-07
3.11359e-07
2.80805e-07
2.55309e-07
2.34022e-07
2.16059e-07
2.00765e-07
1.8773e-07
1.76695e-07
1.67437e-07
1.59736e-07
1.53456e-07
1.4841e-07
1.44369e-07
1.41176e-07
1.38727e-07
1.36832e-07
1.35498e-07
1.34435e-07
1.33814e-07
1.33359e-07
1.33216e-07
1.31609e-07
3.55782e-06
3.89101e-06
4.22908e-06
4.47654e-06
4.58739e-06
4.58808e-06
4.59499e-06
4.8133e-06
5.44799e-06
6.57257e-06
8.12404e-06
9.96035e-06
1.19251e-05
1.40525e-05
1.6699e-05
2.0031e-05
2.35014e-05
2.63303e-05
2.82306e-05
2.948e-05
3.06643e-05
3.20185e-05
3.33435e-05
3.39919e-05
3.34205e-05
3.16962e-05
2.94805e-05
2.74595e-05
2.58474e-05
2.44642e-05
2.31055e-05
2.17167e-05
2.03336e-05
1.89937e-05
1.77108e-05
1.64867e-05
1.53212e-05
1.42147e-05
1.3167e-05
1.21771e-05
1.12433e-05
1.03637e-05
9.53602e-06
8.75811e-06
8.02763e-06
7.34232e-06
6.69998e-06
6.0985e-06
5.53587e-06
5.01018e-06
4.51964e-06
4.06261e-06
3.63794e-06
3.24501e-06
2.88342e-06
2.5518e-06
2.24674e-06
1.96353e-06
1.69972e-06
1.46011e-06
1.2584e-06
1.1111e-06
1.02473e-06
9.87832e-07
9.76716e-07
9.6705e-07
9.41597e-07
8.93931e-07
8.28403e-07
7.55779e-07
6.8668e-07
6.26691e-07
5.75465e-07
5.29226e-07
4.84237e-07
4.39011e-07
3.94491e-07
3.52817e-07
3.15868e-07
2.84434e-07
2.58228e-07
2.36382e-07
2.17972e-07
2.02308e-07
1.88964e-07
1.77674e-07
1.68231e-07
1.60428e-07
1.54102e-07
1.4895e-07
1.4486e-07
1.41654e-07
1.39214e-07
1.3734e-07
1.36037e-07
1.34999e-07
1.34427e-07
1.33956e-07
1.33972e-07
1.32321e-07
2.90985e-06
3.1175e-06
3.3159e-06
3.44358e-06
3.48044e-06
3.47099e-06
3.5409e-06
3.87678e-06
4.61879e-06
5.7707e-06
7.2471e-06
8.94862e-06
1.07762e-05
1.2631e-05
1.45107e-05
1.65829e-05
1.89857e-05
2.1584e-05
2.40445e-05
2.61e-05
2.76427e-05
2.86868e-05
2.91017e-05
2.88471e-05
2.80822e-05
2.70957e-05
2.61202e-05
2.5197e-05
2.42357e-05
2.31664e-05
2.20023e-05
2.07975e-05
1.95952e-05
1.84157e-05
1.72669e-05
1.61542e-05
1.50818e-05
1.40528e-05
1.30689e-05
1.21307e-05
1.12383e-05
1.0391e-05
9.58794e-06
8.82797e-06
8.10983e-06
7.43216e-06
6.79359e-06
6.19273e-06
5.62824e-06
5.09878e-06
4.60305e-06
4.13983e-06
3.70826e-06
3.30797e-06
2.93879e-06
2.59958e-06
2.28713e-06
1.99671e-06
1.72555e-06
1.47809e-06
1.26836e-06
1.11441e-06
1.02506e-06
9.89986e-07
9.84516e-07
9.82036e-07
9.62894e-07
9.18918e-07
8.53878e-07
7.79122e-07
7.06512e-07
6.42876e-07
5.88636e-07
5.40218e-07
4.93702e-07
4.47312e-07
4.01786e-07
3.59205e-07
3.21482e-07
2.89464e-07
2.62881e-07
2.4084e-07
2.22367e-07
2.06724e-07
1.93447e-07
1.82248e-07
1.72909e-07
1.65225e-07
1.5898e-07
1.53945e-07
1.5001e-07
1.46961e-07
1.44657e-07
1.42926e-07
1.41722e-07
1.40842e-07
1.40272e-07
1.40075e-07
1.39864e-07
1.38642e-07
2.36011e-06
2.4737e-06
2.56814e-06
2.60675e-06
2.59081e-06
2.58161e-06
2.71404e-06
3.14906e-06
3.95683e-06
5.09224e-06
6.47299e-06
8.02431e-06
9.68465e-06
1.13947e-05
1.3091e-05
1.47486e-05
1.64126e-05
1.81296e-05
1.98557e-05
2.14578e-05
2.27777e-05
2.37371e-05
2.43249e-05
2.45955e-05
2.46191e-05
2.44437e-05
2.40786e-05
2.35162e-05
2.27699e-05
2.18848e-05
2.09155e-05
1.99035e-05
1.88739e-05
1.78421e-05
1.68193e-05
1.58142e-05
1.48335e-05
1.38817e-05
1.29621e-05
1.20768e-05
1.1227e-05
1.04134e-05
9.63629e-06
8.89555e-06
8.19088e-06