/*--------------------------------*- C++ -*----------------------------------*\
  =========                 |
  \\      /  F ield         | OpenFOAM: The Open Source CFD Toolbox
   \\    /   O peration     | Website:  https://openfoam.org
    \\  /    A nd           | Version:  10
     \\/     M anipulation  |
\*---------------------------------------------------------------------------*/
FoamFile
{
    format      ascii;
    class       volScalarField;
    location    "0.05";
    object      p;
}
// * * * * * * * * * * * * * * * * * * * * * * * * * * * * * * * * * * * * * //

dimensions      [0 2 -2 0 0 0 0];

internalField   nonuniform List<scalar> 
6820
(
7.24074
-7.08986
-9.08744
-9.26656
-9.41941
-9.35594
-9.3193
-9.33293
-9.3702
-9.42128
-9.4797
-9.54175
-9.60583
-9.67117
-9.73738
-9.80425
-9.87163
-9.93943
-10.0076
-10.0761
-10.1449
-10.2141
-10.2835
-10.3533
-10.4234
-10.4938
-10.5646
-10.635
-10.706
-10.774
-10.8468
-10.8965
-10.9984
1.86318
-6.88703
-8.89244
-9.14506
-9.34988
-9.35002
-9.33471
-9.35472
-9.39217
-9.44045
-9.49566
-9.55486
-9.61659
-9.68011
-9.74495
-9.81081
-9.87745
-9.94472
-10.0125
-10.0807
-10.1493
-10.2183
-10.2877
-10.3575
-10.4276
-10.498
-10.5686
-10.6395
-10.7107
-10.7807
-10.8549
-10.9223
-11.0451
-0.216538
-5.67461
-8.09887
-8.68973
-9.06957
-9.21258
-9.25935
-9.30642
-9.35969
-9.41781
-9.47994
-9.54437
-9.61001
-9.67633
-9.74309
-9.81019
-9.87761
-9.9453
-10.0133
-10.0815
-10.15
-10.2187
-10.2878
-10.3573
-10.4271
-10.4973
-10.568
-10.6392
-10.7115
-10.784
-10.8628
-10.9416
-11.0628
-1.78348
-5.49092
-7.80132
-8.45054
-8.83179
-9.03811
-9.13517
-9.21429
-9.2906
-9.3638
-9.43561
-9.50669
-9.57729
-9.64762
-9.7177
-9.78756
-9.85727
-9.92686
-9.99639
-10.0659
-10.1354
-10.205
-10.2747
-10.3446
-10.4149
-10.4854
-10.5566
-10.6287
-10.7027
-10.7793
-10.8644
-10.9599
-11.0961
-3.06774
-5.5341
-7.49284
-8.17542
-8.58511
-8.85742
-9.00857
-9.11846
-9.2145
-9.30108
-9.38233
-9.46066
-9.53675
-9.61113
-9.68442
-9.75686
-9.8286
-9.89977
-9.97046
-10.0408
-10.1108
-10.1806
-10.2504
-10.3201
-10.39
-10.4603
-10.5314
-10.6037
-10.6788
-10.7581
-10.8471
-10.9502
-11.0888
-4.0242
-5.65585
-7.30736
-8.02099
-8.44025
-8.73481
-8.91207
-9.03852
-9.14666
-9.2428
-9.33119
-9.41499
-9.49558
-9.57371
-9.6499
-9.72459
-9.79808
-9.87058
-9.94226
-10.0133
-10.0837
-10.1536
-10.2232
-10.2926
-10.3621
-10.4317
-10.5021
-10.574
-10.6486
-10.728
-10.8165
-10.9181
-11.0476
-4.76838
-5.86642
-7.2181
-7.9021
-8.30779
-8.61105
-8.81246
-8.95836
-9.08061
-9.18737
-9.2835
-9.373
-9.45792
-9.53933
-9.61809
-9.69482
-9.76991
-9.84363
-9.9162
-9.98777
-10.0585
-10.1285
-10.1979
-10.2668
-10.3356
-10.4044
-10.4739
-10.5445
-10.6177
-10.6951
-10.7798
-10.8748
-10.9875
-5.35081
-6.09462
-7.17847
-7.81589
-8.21031
-8.51593
-8.73212
-8.89066
-9.02192
-9.1359
-9.23777
-9.3318
-9.42038
-9.50483
-9.5861
-9.66487
-9.74156
-9.81651
-9.88996
-9.9621
-10.0331
-10.1031
-10.1723
-10.2408
-10.3088
-10.3766
-10.4447
-10.5136
-10.5844
-10.6581
-10.7366
-10.8214
-10.9153
-5.81245
-6.32458
-7.18639
-7.76438
-8.13852
-8.43511
-8.65672
-8.82397
-8.96292
-9.08382
-9.19157
-9.29034
-9.38277
-9.47035
-9.55413
-9.63487
-9.7131
-9.78922
-9.8635
-9.93616
-10.0074
-10.0773
-10.1462
-10.2141
-10.2812
-10.3478
-10.4141
-10.4807
-10.5482
-10.6171
-10.6882
-10.7619
-10.8381
-6.18312
-6.54218
-7.2226
-7.73474
-8.08496
-8.3695
-8.59249
-8.76576
-8.91038
-9.03638
-9.1486
-9.25109
-9.34659
-9.43673
-9.52262
-9.60509
-9.6847
-9.76185
-9.83687
-9.90997
-9.98137
-10.0512
-10.1196
-10.1868
-10.2529
-10.318
-10.3824
-10.4463
-10.51
-10.5736
-10.6372
-10.7001
-10.7606
-6.48404
-6.7411
-7.2775
-7.72473
-8.04884
-8.31808
-8.53725
-8.71254
-8.86036
-8.98996
-9.10584
-9.21167
-9.31009
-9.40274
-9.49075
-9.57494
-9.65592
-9.73411
-9.80985
-9.88338
-9.95491
-10.0246
-10.0926
-10.1589
-10.2239
-10.2874
-10.3497
-10.4107
-10.4705
-10.5288
-10.5851
-10.6384
-10.6863
-6.73075
-6.91898
-7.34254
-7.72861
-8.02517
-8.27749
-8.48999
-8.6651
-8.81476
-8.94695
-9.0657
-9.17427
-9.27512
-9.36989
-9.45969
-9.54537
-9.62752
-9.7066
-9.78294
-9.8568
-9.92838
-9.99783
-10.0653
-10.1308
-10.1945
-10.2564
-10.3164
-10.3746
-10.4306
-10.484
-10.534
-10.5793
-10.6175
-6.93453
-7.07555
-7.41161
-7.74257
-8.01176
-8.24668
-8.45048
-8.62312
-8.77286
-8.90629
-9.02692
-9.13755
-9.24041
-9.33703
-9.42847
-9.51553
-9.59881
-9.67875
-9.75568
-9.82985
-9.90147
-9.97069
-10.0376
-10.1023
-10.1648
-10.225
-10.2829
-10.3384
-10.3909
-10.44
-10.4847
-10.5239
-10.5552
-7.10368
-7.21175
-7.48035
-7.76305
-8.00581
-8.22336
-8.41722
-8.58583
-8.7345
-8.86832
-8.9902
-9.10244
-9.20698
-9.3052
-9.39807
-9.48635
-9.57062
-9.6513
-9.72872
-9.80314
-9.87474
-9.94367
-10.01
-10.0738
-10.1351
-10.1938
-10.2498
-10.3027
-10.3523
-10.3978
-10.4385
-10.4731
-10.4999
-7.24434
-7.32897
-7.54572
-7.78712
-8.00518
-8.20599
-8.38943
-8.55294
-8.69953
-8.83288
-8.95529
-9.06859
-9.17438
-9.27388
-9.36796
-9.45732
-9.54247
-9.62383
-9.70171
-9.77635
-9.84793
-9.9166
-9.98242
-10.0454
-10.1056
-10.1629
-10.2172
-10.268
-10.3151
-10.358
-10.3957
-10.4274
-10.4517
-7.36111
-7.42876
-7.60567
-7.81233
-8.00787
-8.19292
-8.36591
-8.52366
-8.66745
-8.79974
-8.92218
-9.03615
-9.14293
-9.24351
-9.33865
-9.42895
-9.5149
-9.59687
-9.67515
-9.74997
-9.82151
-9.8899
-9.95522
-10.0175
-10.0767
-10.1328
-10.1855
-10.2347
-10.2799
-10.3207
-10.3565
-10.3867
-10.4101
-7.45742
-7.51256
-7.65886
-7.83671
-8.01217
-8.18272
-8.34565
-8.4974
-8.63797
-8.76875
-8.89081
-9.00511
-9.11258
-9.21401
-9.31004
-9.40116
-9.48782
-9.57033
-9.64897
-9.72397
-9.79548
-9.86364
-9.92852
-9.99015
-10.0485
-10.1036
-10.1551
-10.203
-10.2469
-10.2865
-10.3213
-10.3509
-10.3746
-7.53584
-7.58165
-7.70441
-7.85866
-8.01659
-8.17406
-8.3276
-8.4734
-8.61054
-8.73956
-8.86099
-8.97536
-9.08333
-9.18547
-9.28226
-9.37412
-9.46141
-9.54442
-9.6234
-9.69854
-9.77003
-9.83797
-9.90245
-9.96352
-10.0212
-10.0754
-10.126
-10.173
-10.216
-10.255
-10.2894
-10.3193
-10.344
-7.5983
-7.63709
-7.74174
-7.87688
-8.01981
-8.16577
-8.31081
-8.45098
-8.58475
-8.71194
-8.83261
-8.94694
-9.0553
-9.15804
-9.25553
-9.34807
-9.43596
-9.51946
-9.59877
-9.67409
-9.74558
-9.81337
-9.87755
-9.93819
-9.99531
-10.0489
-10.0989
-10.1453
-10.1879
-10.2267
-10.2614
-10.292
-10.3183
-7.64621
-7.67967
-7.77045
-7.8903
-8.02068
-8.15675
-8.29432
-8.42941
-8.56003
-8.68547
-8.80537
-8.91961
-9.02828
-9.13157
-9.22968
-9.32285
-9.41129
-9.49522
-9.57483
-9.65031
-9.7218
-9.78945
-9.85336
-9.91362
-9.9703
-10.0234
-10.073
-10.119
-10.1615
-10.2003
-10.2356
-10.2673
-10.2954
-7.68053
-7.70998
-7.7902
-7.89805
-8.01819
-8.14602
-8.27731
-8.40805
-8.53598
-8.65995
-8.77926
-8.89352
-9.00259
-9.10649
-9.2053
-9.29915
-9.38821
-9.47263
-9.55261
-9.62831
-9.69988
-9.76748
-9.83124
-9.89126
-9.94764
-10.0005
-10.0498
-10.0957
-10.1382
-10.1775
-10.2135
-10.2464
-10.2764
-7.70189
-7.72836
-7.80067
-7.89933
-8.01141
-8.13267
-8.25891
-8.38616
-8.51194
-8.6348
-8.75374
-8.86814
-8.97768
-9.08221
-9.1817
-9.27621
-9.36583
-9.45071
-9.531
-9.60688
-9.67849
-9.74601
-9.80959
-9.86937
-9.92548
-9.97804
-10.0272
-10.073
-10.1157
-10.1553
-10.1921
-10.2262
-10.2579
-7.71059
-7.73491
-7.80151
-7.89342
-7.99951
-8.11589
-8.23847
-8.3633
-8.48775
-8.61013
-8.72921
-8.84417
-8.95451
-9.05995
-9.16036
-9.25572
-9.34609
-9.43158
-9.51233
-9.58851
-9.66029
-9.72784
-9.79135
-9.851
-9.90694
-9.95936
-10.0084
-10.0543
-10.0971
-10.1372
-10.1746
-10.2098
-10.2429
-7.70663
-7.7295
-7.79224
-7.87957
-7.9816
-8.09476
-8.21504
-8.33849
-8.46239
-8.58484
-8.70444
-8.82021
-8.9315
-9.03792
-9.13928
-9.23548
-9.32655
-9.41258
-9.49372
-9.57011
-9.64197
-9.70947
-9.77283
-9.83226
-9.88795
-9.94013
-9.98899
-10.0348
-10.0777
-10.118
-10.1559
-10.1919
-10.2261
-7.6897
-7.71174
-7.77228
-7.85709
-7.95704
-8.06882
-8.18845
-8.31199
-8.43659
-8.56018
-8.68122
-8.79856
-8.91145
-9.01941
-9.12216
-9.21957
-9.31166
-9.39849
-9.4802
-9.55699
-9.62905
-9.69661
-9.7599
-9.81917
-9.87467
-9.92662
-9.9753
-10.0209
-10.0638
-10.1042
-10.1425
-10.1788
-10.2135
-7.65918
-7.68094
-7.7408
-7.82494
-7.92463
-8.03665
-8.15702
-8.28175
-8.40788
-8.53325
-8.65616
-8.77538
-8.89006
-8.99966
-9.10384
-9.20247
-9.29552
-9.38308
-9.46529
-9.54235
-9.61449
-9.68197
-9.74505
-9.804
-9.85911
-9.91065
-9.95892
-10.0042
-10.0468
-10.087
-10.1251
-10.1615
-10.1964
-7.6141
-7.63619
-7.69698
-7.78259
-7.8843
-7.9989
-8.1223
-8.25035
-8.37994
-8.50876
-8.63499
-8.7573
-8.87477
-8.9868
-9.09307
-9.19341
-9.28781
-9.37638
-9.45929
-9.53677
-9.60909
-9.67654
-9.73941
-9.79803
-9.85269
-9.90373
-9.95146
-9.99619
-10.0382
-10.0779
-10.1156
-10.1515
-10.186
-7.55302
-7.57595
-7.6391
-7.72792
-7.83328
-7.95187
-8.07947
-8.21177
-8.34555
-8.47839
-8.60839
-8.73414
-8.85467
-8.96936
-9.07785
-9.18
-9.2758
-9.36538
-9.44894
-9.52676
-9.59913
-9.66639
-9.72887
-9.78692
-9.8409
-9.89116
-9.93804
-9.9819
-10.0231
-10.0619
-10.0987
-10.1338
-10.1675
-7.47408
-7.49876
-7.56661
-7.66183
-7.77443
-7.90077
-8.03624
-8.17614
-8.31702
-8.45631
-8.59203
-8.72276
-8.84752
-8.96573
-9.07707
-9.18144
-9.27891
-9.36965
-9.45394
-9.5321
-9.60447
-9.67144
-9.73339
-9.79072
-9.84382
-9.89306
-9.93883
-9.98148
-10.0214
-10.0588
-10.0942
-10.1278
-10.1599
-7.37441
-7.40115
-7.4749
-7.57769
-7.69831
-7.83297
-7.97686
-8.12497
-8.27362
-8.42013
-8.56238
-8.69887
-8.82861
-8.95099
-9.06573
-9.17277
-9.27223
-9.36435
-9.44947
-9.52797
-9.60028
-9.66682
-9.72806
-9.78442
-9.83635
-9.88426
-9.92856
-9.96966
-10.0079
-10.0437
-10.0774
-10.1093
-10.1398
-7.25114
-7.28235
-7.36737
-7.48467
-7.62061
-7.77052
-7.92881
-8.08989
-8.24994
-8.40625
-8.55679
-8.70018
-8.83554
-8.96242
-9.08066
-9.19031
-9.2916
-9.38488
-9.47057
-9.54912
-9.62104
-9.68683
-9.74697
-9.80198
-9.85231
-9.89843
-9.94077
-9.97975
-10.0158
-10.0492
-10.0803
-10.1095
-10.1371
-7.09769
-7.13182
-7.22686
-7.35676
-7.50609
-7.67048
-7.84372
-8.01937
-8.19304
-8.36172
-8.52317
-8.6759
-8.81905
-8.95223
-9.07539
-9.18874
-9.29264
-9.38758
-9.47413
-9.55286
-9.62438
-9.68929
-9.74817
-9.80159
-9.85007
-9.89413
-9.93423
-9.97084
-10.0044
-10.0352
-10.0638
-10.0905
-10.1155
-6.91197
-6.95897
-7.08107
-7.24124
-7.41842
-7.6077
-7.8025
-7.99627
-8.18504
-8.36626
-8.53801
-8.69911
-8.84895
-8.98736
-9.11447
-9.23062
-9.33633
-9.4322
-9.5189
-9.59711
-9.66754
-9.73086
-9.78773
-9.83876
-9.88455
-9.92563
-9.96253
-9.99573
-10.0257
-10.0527
-10.0773
-10.0998
-10.1204
-6.67232
-6.71843
-6.85427
-7.0348
-7.23675
-7.45463
-7.67852
-7.89938
-8.1124
-8.31458
-8.50383
-8.67908
-8.84006
-8.98696
-9.12029
-9.24075
-9.3492
-9.44653
-9.53365
-9.61145
-9.6808
-9.7425
-9.79732
-9.84596
-9.88907
-9.92725
-9.96104
-9.99096
-10.0175
-10.0411
-10.0621
-10.0812
-10.0985
-6.39689
-6.49075
-6.69455
-6.92843
-7.16792
-7.41568
-7.66379
-7.90427
-8.13377
-8.35002
-8.5512
-8.7364
-8.90546
-9.05866
-9.19658
-9.32008
-9.43012
-9.52777
-9.6141
-9.69016
-9.75696
-9.81546
-9.86652
-9.91096
-9.94951
-9.98281
-10.0115
-10.036
-10.057
-10.0748
-10.0898
-10.1026
-10.1136
-5.97562
-6.04351
-6.27799
-6.56904
-6.87589
-7.19155
-7.49934
-7.7894
-8.05903
-8.3066
-8.53139
-8.73396
-8.91544
-9.0772
-9.22073
-9.3476
-9.45931
-9.55734
-9.64306
-9.71775
-9.7826
-9.83868
-9.88697
-9.92832
-9.96352
-9.99324
-10.0181
-10.0386
-10.0552
-10.0685
-10.0788
-10.0869
-10.0932
-5.6131
-5.86556
-6.22131
-6.53932
-6.85804
-7.19198
-7.51774
-7.82651
-8.11652
-8.38422
-8.62729
-8.84543
-9.03929
-9.21003
-9.35929
-9.48894
-9.60089
-9.69702
-9.77913
-9.84888
-9.90777
-9.95715
-9.99822
-10.032
-10.0594
-10.0812
-10.098
-10.1102
-10.1184
-10.1229
-10.1238
-10.1219
-10.1173
-4.56088
-4.82665
-5.43659
-5.9814
-6.48139
-6.9554
-7.37895
-7.75451
-8.08956
-8.38685
-8.64941
-8.88062
-9.08344
-9.2605
-9.41425
-9.54698
-9.66081
-9.75776
-9.8397
-9.90839
-9.96542
-10.0122
-10.0501
-10.0801
-10.1033
-10.1203
-10.1319
-10.1385
-10.1402
-10.1373
-10.1291
-10.1167
-10.0966
-4.61254
-5.17233
-5.61351
-5.97717
-6.45217
-6.94589
-7.40812
-7.84152
-8.23755
-8.58788
-8.89232
-9.15352
-9.37478
-9.56008
-9.71369
-9.8398
-9.94227
-10.0246
-10.0899
-10.1409
-10.1798
-10.2086
-10.229
-10.2424
-10.2499
-10.2524
-10.2506
-10.2449
-10.2352
-10.2208
-10.1996
-10.1693
-10.1187
0.327017
-3.36458
-4.68919
-5.35798
-6.15499
-6.82979
-7.37076
-7.84392
-8.25663
-8.61023
-8.9124
-9.16917
-9.38539
-9.56599
-9.71557
-9.83833
-9.93806
-10.0182
-10.0816
-10.131
-10.1686
-10.1962
-10.2157
-10.2282
-10.2351
-10.2373
-10.2356
-10.2307
-10.2234
-10.2133
-10.2028
-10.1876
-10.1772
-10.8205
-12.0621
-13.7557
-14.7195
-14.6802
-13.4101
-10.8435
-7.34297
-3.76484
-1.05689
0.0793989
-0.731702
-3.13276
-6.82984
-11.4109
-16.4154
-21.4832
-26.4229
-31.164
-35.6426
-39.69
-43.0008
-45.2007
-45.9821
-45.1862
-42.9572
-39.6671
-35.6863
-31.2323
-26.4789
-21.7072
-17.269
-13.3958
-10.1355
-7.43793
-5.23044
-3.44419
-2.01636
-0.889562
-0.0123787
0.660029
1.16598
1.53777
1.80227
1.98168
2.09411
2.15431
2.17421
2.16343
2.12972
2.07934
2.01731
1.94764
1.87351
1.79738
1.72116
1.64629
1.57383
1.50458
1.43905
1.37754
1.32015
1.26674
1.21704
1.17067
1.12719
1.08618
1.04725
1.01007
0.97433
0.939796
0.906248
0.873505
0.841413
0.809847
0.778705
0.7479
0.717354
0.687002
0.656782
0.626631
0.596502
0.566335
0.536102
0.505728
0.475207
0.444495
0.413561
0.382374
0.350921
0.319153
0.287108
0.254638
0.222004
0.188592
0.15565
0.120496
0.0887121
0.0486407
0.0246113
-11.088
-12.1126
-13.5993
-14.4556
-14.3223
-13.0339
-10.5379
-7.17866
-3.78076
-1.28936
-0.283995
-0.92303
-3.23762
-6.76999
-11.076
-15.806
-20.6458
-25.3874
-29.9237
-34.1639
-37.9418
-40.9898
-42.9871
-43.6714
-42.9339
-40.9233
-37.9349
-34.222
-29.9691
-25.4074
-20.8838
-16.7313
-13.1138
-10.0444
-7.47615
-5.35205
-3.61675
-2.217
-1.10221
-0.22607
0.452504
0.969116
1.35414
1.63313
1.82736
1.95439
2.02859
2.06169
2.0632
2.04085
2.00087
1.94831
1.88722
1.8208
1.7516
1.68155
1.61216
1.54455
1.47954
1.41772
1.35944
1.30482
1.2538
1.20616
1.16154
1.11956
1.07982
1.04197
1.00569
0.970729
0.936847
0.903849
0.871568
0.839862
0.808618
0.77774
0.74715
0.716779
0.686567
0.656457
0.626394
0.596332
0.566217
0.536004
0.505677
0.475176
0.444477
0.413552
0.382368
0.350916
0.319145
0.287098
0.25462
0.221985
0.188557
0.155627
0.12044
0.0886999
0.0485635
0.0246314
-11.2196
-12.1132
-13.3221
-13.9768
-13.7463
-12.4833
-10.1709
-7.14819
-4.11671
-1.85384
-0.909405
-1.57843
-3.6988
-6.97796
-10.9964
-15.3904
-19.9146
-24.386
-28.6716
-32.651
-36.1564
-38.9456
-40.746
-41.3512
-40.7005
-38.915
-36.1854
-32.6842
-28.6108
-24.2738
-20.0471
-16.2017
-12.8372
-9.95076
-7.50713
-5.46528
-3.78185
-2.41183
-1.31086
-0.437429
0.245891
0.772026
1.16942
1.46226
1.6709
1.81226
1.90033
1.94659
1.96043
1.9495
1.92004
1.87709
1.82472
1.76619
1.70407
1.64036
1.5766
1.51398
1.45336
1.39537
1.34042
1.28869
1.24016
1.19465
1.15187
1.11146
1.07306
1.03634
1.00103
0.96689
0.933703
0.901294
0.869511
0.838224
0.80733
0.776742
0.746392
0.716217
0.686163
0.65618
0.626218
0.596234
0.56618
0.536014
0.505717
0.475239
0.444556
0.413641
0.382462
0.351011
0.319237
0.287188
0.254702
0.222065
0.188622
0.155701
0.120483
0.0887809
0.0485822
0.0247297
-11.3141
-12.0085
-12.8938
-13.3422
-13.0363
-11.8591
-9.83609
-7.26521
-4.71164
-2.80226
-1.99272
-2.55247
-4.46336
-7.43541
-11.1199
-15.1782
-19.3516
-23.4827
-27.4534
-31.134
-34.3555
-36.8881
-38.5132
-39.0824
-38.5459
-36.9516
-34.4002
-31.0515
-27.1709
-23.1196
-19.2303
-15.6929
-12.5672
-9.85264
-7.52927
-5.56939
-3.93903
-2.60041
-1.51502
-0.645956
0.0406626
0.575133
0.983965
1.28997
1.51253
1.66792
1.76968
1.82903
1.8552
1.85576
1.83691
1.8037
1.7602
1.7097
1.65481
1.59759
1.53962
1.48212
1.42602
1.372
1.3205
1.27177
1.22584
1.18257
1.14171
1.10295
1.06596
1.03044
0.996149
0.962864
0.930403
0.898606
0.867337
0.836481
0.805944
0.775651
0.745543
0.715564
0.685668
0.65581
0.625947
0.59604
0.566045
0.535926
0.505664
0.475209
0.444541
0.413637
0.382464
0.351016
0.31924
0.287189
0.254696
0.222058
0.188602
0.155688
0.120443
0.0887749
0.0485244
0.0247441
-11.3024
-11.7919
-12.3747
-12.6191
-12.2674
-11.2398
-9.58136
-7.53205
-5.51632
-3.99616
-3.34074
-3.79953
-5.42678
-8.05949
-11.3889
-15.1003
-18.9429
-22.7401
-26.3709
-29.72
-32.6359
-34.9296
-36.4296
-36.9835
-36.5099
-34.9956
-32.5286
-29.3221
-25.6956
-21.9886
-18.4495
-15.2051
-12.3018
-9.74985
-7.54328
-5.66479
-4.08829
-2.7825
-1.71433
-0.851267
-0.162793
0.378805
0.79812
1.11657
1.35252
1.52157
1.6368
1.70913
1.74761
1.7597
1.75154
1.72817
1.69366
1.65133
1.60383
1.55324
1.5012
1.44897
1.39753
1.34759
1.29967
1.25405
1.21081
1.16987
1.13102
1.09399
1.05847
1.02421
0.990986
0.958607
0.926912
0.895763
0.86504
0.834642
0.804488
0.774514
0.744668
0.714904
0.685183
0.655466
0.625715
0.595895
0.565968
0.535903
0.505677
0.47525
0.444601
0.41371
0.382544
0.351099
0.319322
0.28727
0.25477
0.222131
0.188661
0.155753
0.120482
0.0888433
0.0485438
0.0248214
-11.2334
-11.5636
-11.9178
-12.0153
-11.6609
-10.7952
-9.46428
-7.85614
-6.2935
-5.14102
-4.68794
-5.11456
-6.48542
-8.7391
-11.6824
-15.0472
-18.577
-22.08
-25.4192
-28.475
-31.1186
-33.2096
-34.5662
-35.0169
-34.4684
-32.93
-30.5386
-27.5461
-24.2526
-20.9175
-17.7136
-14.7379
-12.0399
-9.64219
-7.5492
-5.75143
-4.22944
-2.9578
-1.90844
-1.05294
-0.364054
0.183443
0.61224
0.942348
1.19113
1.37344
1.50189
1.58705
1.63778
1.6614
1.664
1.65056
1.62516
1.59114
1.55115
1.50734
1.46137
1.41454
1.36788
1.32216
1.27793
1.23552
1.19509
1.15658
1.11983
1.08459
1.05062
1.01768
0.985579
0.954148
0.923254
0.89278
0.862624
0.8327
0.802941
0.773293
0.743714
0.714167
0.684622
0.655046
0.625406
0.595673
0.565814
0.535802
0.505613
0.475217
0.444587
0.413708
0.38255
0.351109
0.319333
0.287279
0.254774
0.222133
0.188651
0.155749
0.120455
0.0888412
0.0485017
0.02483
-11.1371
-11.3577
-11.5623
-11.5662
-11.225
-10.4951
-9.42231
-8.15717
-6.94938
-6.08392
-5.79048
-6.22021
-7.42761
-9.3701
-11.9234
-14.9039
-18.1018
-21.3217
-24.4039
-27.2133
-29.6206
-31.4731
-32.6021
-32.8697
-32.2224
-30.7145
-28.5068
-25.8263
-22.9026
-19.9226
-17.0207
-14.2878
-11.7806
-9.53011
-7.54758
-5.82961
-4.36248
-3.12611
-2.09702
-1.25062
-0.562732
-0.0105748
0.426679
0.767635
1.02862
1.22376
1.36512
1.46295
1.52584
1.56098
1.57436
1.57093
1.55475
1.52915
1.49681
1.45991
1.42013
1.37884
1.3371
1.29571
1.25527
1.2162
1.17866
1.14267
1.1081
1.07475
1.04239
1.01083
0.979902
0.949464
0.919411
0.889645
0.860085
0.830661
0.801319
0.772017
0.742724
0.713412
0.684057
0.654634
0.625118
0.595482
0.5657
0.535747
0.505602
0.475238
0.444631
0.413768
0.382619
0.351183
0.319407
0.287354
0.254843
0.222201
0.188707
0.155809
0.120493
0.0889003
0.0485232
0.02489
-11.0317
-11.1764
-11.2822
-11.227
-10.9096
-10.3003
-9.44118
-8.45276
-7.52692
-6.8843
-6.71268
-7.14021
-8.21551
-9.90604
-12.1148
-14.7041
-17.5163
-20.3892
-23.1661
-25.6998
-27.8351
-29.4208
-30.339
-30.4979
-29.8711
-28.5234
-26.5915
-24.2491
-21.6685
-19
-16.3647
-13.8527
-11.5242
-9.41434
-7.53892
-5.8995
-4.48742
-3.28728
-2.2798
-1.44394
-0.75845
-0.202872
0.241792
0.592753
0.865295
1.07278
1.22673
1.337
1.41193
1.45855
1.48274
1.48937
1.48249
1.46541
1.44085
1.41097
1.37753
1.3419
1.30519
1.26824
1.23173
1.19608
1.16154
1.12816
1.09586
1.06447
1.0338
1.00368
0.973973
0.944574
0.915397
0.886369
0.857428
0.828521
0.79961
0.770664
0.741663
0.71259
0.683429
0.654162
0.624769
0.595231
0.565524
0.535629
0.505527
0.475196
0.444613
0.413766
0.382628
0.351197
0.319423
0.287369
0.254854
0.22221
0.188706
0.155811
0.120477
0.0889003
0.0484935
0.0248922
-10.9253
-11.0162
-11.058
-10.9708
-10.6854
-10.1829
-9.50088
-8.73606
-8.03777
-7.57765
-7.5066
-7.92931
-8.88907
-10.3642
-12.2781
-14.5176
-16.9525
-19.4477
-21.8676
-24.0752
-25.9274
-27.301
-28.0939
-28.2334
-27.7015
-26.5485
-24.8795
-22.8291
-20.5382
-18.1382
-15.741
-13.4323
-11.2715
-9.29566
-7.52376
-5.96143
-4.60433
-3.4412
-2.45655
-1.63261
-0.95086
-0.393091
0.0579259
0.418024
0.701439
0.920749
1.08692
1.20939
1.29622
1.35425
1.38923
1.40597
1.40846
1.4
1.38332
1.36059
1.33359
1.30374
1.27218
1.2398
1.2073
1.17518
1.14373
1.11305
1.0831
1.05374
1.02483
0.996211
0.967784
0.939468
0.911205
0.882947
0.854652
0.826287
0.797826
0.769254
0.740562
0.711742
0.682787
0.653687
0.624429
0.594997
0.565375
0.535546
0.505493
0.475199
0.444643
0.413813
0.382689
0.351264
0.319493
0.28744
0.25492
0.222275
0.188761
0.155868
0.120517
0.0889531
0.0485187
0.0249387
-10.8245
-10.8786
-10.8815
-10.781
-10.5315
-10.1228
-9.58811
-9.00546
-8.49119
-8.17841
-8.18729
-8.60342
-9.46493
-10.7578
-12.4217
-14.3639
-16.4734
-18.6327
-20.7242
-22.6299
-24.2384
-25.4392
-26.1311
-26.2562
-25.8022
-24.806
-23.3483
-21.5374
-19.4927
-17.3295
-15.148
-13.0269
-11.0234
-9.17481
-7.50264
-6.01573
-4.71333
-3.58783
-2.62709
-1.81634
-1.13964
-0.580888
-0.124579
0.24377
0.537348
0.767941
0.945925
1.08032
1.17888
1.24823
1.29397
1.32083
1.33275
1.333
1.32428
1.30881
1.28837
1.26441
1.2381
1.21039
1.18202
1.15353
1.12526
1.09736
1.06984
1.04259
1.0155
0.988446
0.961349
0.934161
0.906848
0.879388
0.851763
0.823956
0.79596
0.767773
0.739397
0.710836
0.682091
0.653161
0.624037
0.594713
0.565174
0.53541
0.505406
0.475149
0.44462
0.413809
0.382692
0.35128
0.319511
0.287459
0.254936
0.222289
0.188766
0.155873
0.120508
0.0889532
0.0484982
0.0249337
-10.7326
-10.7623
-10.7436
-10.6425
-10.4306
-10.104
-9.69179
-9.25677
-8.88982
-8.69467
-8.76663
-9.1749
-9.95187
-11.0888
-12.5387
-14.2263
-16.0582
-17.933
-19.7474
-21.3995
-22.7901
-23.8222
-24.4138
-24.5174
-24.1195
-23.2458
-21.9602
-20.3522
-18.5228
-16.5711
-14.5853
-12.6372
-10.7805
-9.05249
-7.47615
-6.0628
-4.81464
-3.72719
-2.7913
-1.99493
-1.3245
-0.765947
-0.305397
0.0703078
0.373318
0.614623
0.803995
0.950006
1.06009
1.14064
1.1971
1.23408
1.25546
1.26448
1.26382
1.2557
1.24192
1.22395
1.20301
1.18007
1.15591
1.13114
1.10614
1.08111
1.05609
1.03103
1.00582
0.980387
0.954672
0.928653
0.902327
0.875696
0.848765
0.821538
0.794025
0.766238
0.738193
0.709903
0.68138
0.652629
0.62365
0.594441
0.564994
0.535301
0.505353
0.475136
0.444638
0.413849
0.382747
0.351343
0.319579
0.287528
0.255003
0.222354
0.188823
0.155931
0.120552
0.0890031
0.0485288
0.0249702
-10.6512
-10.666
-10.6377
-10.5447
-10.3701
-10.1148
-9.804
-9.48841
-9.23919
-9.13711
-9.25724
-9.6551
-10.3577
-11.3595
-12.624
-14.0898
-15.6791
-17.3049
-18.8768
-20.3046
-21.5005
-22.3845
-22.8878
-22.9672
-22.6095
-21.8349
-20.6951
-19.2632
-17.6236
-15.8609
-14.0524
-12.2632
-10.5434
-8.92941
-7.44493
-6.1031
-4.90853
-3.85937
-2.94911
-2.16818
-1.5052
-0.947978
-0.484221
-0.102058
0.209642
0.461066
0.661374
0.818674
0.940059
1.03167
1.09877
1.14586
1.17673
1.19456
1.20203
1.20134
1.19431
1.18244
1.16695
1.14887
1.12902
1.10805
1.0864
1.06432
1.04188
1.01907
0.995809
0.972051
0.947766
0.922959
0.897653
0.871878
0.845663
0.819033
0.792015
0.764639
0.736931
0.708918
0.68062
0.65205
0.623217
0.594124
0.564768
0.535146
0.505252
0.475076
0.444608
0.41384
0.382753
0.351358
0.319598
0.287549
0.255021
0.22237
0.188832
0.155938
0.120548
0.0890013
0.0485144
0.0249569
-10.5807
-10.5877
-10.5578
-10.478
-10.3392
-10.1453
-9.91817
-9.69873
-9.54275
-9.51319
-9.66889
-10.054
-10.6905
-11.5748
-12.6779
-13.9498
-15.3256
-16.731
-18.0879
-19.317
-20.343
-21.0965
-21.5188
-21.5729
-21.2471
-20.5565
-19.5418
-18.263
-16.7904
-15.1963
-13.5485
-11.9051
-10.3127
-8.80631
-7.40966
-6.13715
-4.99531
-3.9845
-3.10052
-2.33598
-1.68153
-1.12672
-0.66077
-0.273035
0.046606
0.307544
0.518316
0.686554
0.818992
0.921502
0.999161
1.05632
1.09668
1.12337
1.13902
1.14584
1.14564
1.13993
1.12999
1.11685
1.1014
1.08431
1.06609
1.04702
1.02723
1.00673
0.985482
0.963454
0.940646
0.917091
0.892839
0.867947
0.84247
0.816455
0.789949
0.762996
0.735638
0.707911
0.679848
0.651469
0.62279
0.59382
0.564562
0.535018
0.505183
0.475053
0.444619
0.413876
0.382806
0.351422
0.319667
0.287621
0.255092
0.22244
0.188896
0.155999
0.120598
0.0890515
0.0485525
0.0249867
-10.5209
-10.5251
-10.499
-10.435
-10.3296
-10.1882
-10.0297
-9.88716
-9.8044
-9.83037
-10.011
-10.381
-10.958
-11.7393
-12.7017
-13.8042
-14.9926
-16.204
-17.3709
-18.425
-19.3006
-19.9382
-20.2882
-20.3185
-20.018
-19.3976
-18.49
-17.344
-16.0185
-14.5751
-13.0726
-11.563
-10.0891
-8.68394
-7.37103
-6.16552
-5.07538
-4.10282
-3.24559
-2.49827
-1.85334
-1.30197
-0.834786
-0.442351
-0.115515
0.154325
0.375076
0.553886
0.697111
0.810343
0.898447
0.965621
1.01546
1.05103
1.07491
1.08929
1.09599
1.09653
1.0922
1.08409
1.0731
1.05997
1.04524
1.02925
1.01217
0.994046
0.974863
0.954617
0.933331
0.911063
0.887895
0.86391
0.839188
0.813802
0.787817
0.761295
0.734292
0.706857
0.67903
0.650843
0.622319
0.593472
0.564312
0.534843
0.505067
0.474981
0.44458
0.413861
0.382808
0.351433
0.319684
0.28764
0.25511
0.222456
0.188906
0.156005
0.120597
0.0890454
0.0485415
0.0249633
-10.4708
-10.4758
-10.4567
-10.4098
-10.3346
-10.2376
-10.135
-10.0535
-10.0274
-10.0949
-10.2916
-10.6445
-11.1674
-11.858
-12.6973
-13.6519
-14.6762
-15.7171
-16.7168
-17.6164
-18.3595
-18.8947
-19.18
-19.1874
-18.9065
-18.3453
-17.5297
-16.4997
-15.3041
-13.9952
-12.6242
-11.2372
-9.87315
-8.56305
-7.32977
-6.18881
-5.1492
-4.21459
-3.38444
-2.65505
-2.02051
-1.47353
-1.00605
-0.609758
-0.276459
0.00166856
0.231909
0.420911
0.574646
0.698406
0.796832
0.873956
0.933255
0.977708
1.00985
1.03184
1.0455
1.05234
1.05369
1.05066
1.0442
1.03508
1.0239
1.01106
0.996747
0.98105
0.963986
0.945569
0.925846
0.904903
0.882847
0.859791
0.835844
0.811101
0.78565
0.759569
0.73293
0.705794
0.678213
0.650225
0.621862
0.593145
0.564089
0.534702
0.504989
0.474953
0.444588
0.413897
0.382863
0.351501
0.31976
0.287719
0.255188
0.222531
0.188977
0.156073
0.120657
0.0890997
0.0485896
0.024989
-10.4293
-10.4375
-10.4272
-10.3971
-10.3488
-10.2889
-10.2314
-10.1977
-10.2148
-10.3123
-10.5177
-10.8517
-11.325
-11.9351
-12.6667
-13.4918
-14.3725
-15.2639
-16.1167
-16.8806
-17.5071
-17.9521
-18.1797
-18.1657
-17.9004
-17.3894
-16.6531
-15.7242
-14.6432
-13.4546
-12.2024
-10.9276
-9.66535
-8.44437
-7.28664
-6.20769
-5.21726
-4.32017
-3.51727
-2.80637
-2.18302
-1.64129
-1.17438
-0.775035
-0.435988
-0.150174
0.0890655
0.287877
0.451833
0.585917
0.694529
0.781524
0.850243
0.903576
0.943999
0.973632
0.994279
1.00748
1.01456
1.01666
1.01477
1.00972
1.00215
0.992494
0.981001
0.967783
0.952883
0.936337
0.918214
0.898623
0.877702
0.855592
0.832431
0.808339
0.783428
0.757793
0.73152
0.704685
0.677348
0.64956
0.621357
0.592769
0.563814
0.534508
0.504857
0.474868
0.444539
0.413873
0.382858
0.351507
0.319773
0.287735
0.255204
0.222544
0.188987
0.156075
0.120656
0.0890863
0.04858
0.0249536
-10.3954
-10.4083
-10.4074
-10.3932
-10.3682
-10.339
-10.3174
-10.3206
-10.37
-10.4881
-10.6962
-11.0101
-11.4375
-11.9762
-12.613
-13.3249
-14.08
-14.8405
-15.5646
-16.2095
-16.7335
-17.099
-17.2754
-17.2416
-16.9886
-16.5203
-15.8526
-15.0121
-14.0325
-12.9513
-11.8067
-10.6344
-9.46624
-8.32862
-7.2424
-6.22285
-5.28013
-4.41996
-3.64435
-2.95236
-2.34086
-1.80518
-1.33963
-0.937997
-0.593883
-0.300968
-0.0532116
0.155027
0.328915
0.473112
0.591767
0.68854
0.766632
0.828826
0.877531
0.914825
0.942496
0.962084
0.974928
0.9822
0.984929
0.983984
0.980054
0.973627
0.964993
0.954297
0.941603
0.926969
0.910481
0.892272
0.872507
0.851361
0.828999
0.805569
0.781205
0.756021
0.730122
0.703593
0.676507
0.648924
0.620887
0.592433
0.563585
0.534364
0.50478
0.474842
0.444553
0.413916
0.382921
0.351585
0.319859
0.287825
0.255295
0.222633
0.189072
0.156153
0.12073
0.0891425
0.0486392
0.0249768
-10.3673
-10.3855
-10.394
-10.3941
-10.389
-10.3847
-10.3912
-10.4224
-10.4949
-10.6261
-10.8321
-11.1249
-11.5099
-11.9846
-12.538
-13.1507
-13.7962
-14.4424
-15.0541
-15.5949
-16.0293
-16.3252
-16.4564
-16.4047
-16.1617
-15.7298
-15.1216
-14.3586
-13.4687
-12.4837
-11.4362
-10.3576
-9.2763
-8.21653
-7.19782
-6.23501
-5.33844
-4.51446
-3.766
-3.09322
-2.49413
-1.96517
-1.50171
-1.0985
-0.749957
-0.450498
-0.194689
0.0226055
0.206139
0.360237
0.488786
0.595241
0.682646
0.753672
0.81065
0.85561
0.890318
0.91631
0.93494
0.947406
0.954773
0.957956
0.957695
0.954526
0.948782
0.94064
0.930187
0.917493
0.902664
0.885855
0.867259
0.847083
0.825522
0.802754
0.778936
0.754203
0.728674
0.702449
0.675612
0.64823
0.620357
0.592033
0.563291
0.534151
0.504632
0.474744
0.444491
0.413882
0.382907
0.351584
0.319866
0.287836
0.255307
0.222642
0.189079
0.156151
0.120727
0.0891201
0.0486297
0.0249266
-10.3445
-10.3682
-10.3856
-10.3983
-10.4097
-10.4252
-10.4534
-10.5051
-10.5934
-10.7316
-10.9318
-11.2029
-11.5485
-11.966
-12.4458
-12.9716
-13.5212
-14.0677
-14.5814
-15.0314
-15.3875
-15.6225
-15.7139
-15.646
-15.4112
-15.0107
-14.4543
-13.7593
-12.949
-12.05
-11.0902
-10.0971
-9.096
-8.10878
-7.15369
-6.24493
-5.39285
-4.6042
-3.88263
-3.22923
-2.64297
-2.12132
-1.6606
-1.25643
-0.904057
-0.598573
-0.335148
-0.109151
0.0837526
0.247547
0.385843
0.501878
0.598531
0.67835
0.743581
0.796199
0.837941
0.870339
0.894758
0.912422
0.924433
0.931753
0.935174
0.935281
0.932452
0.926893
0.918711
0.907988
0.894845
0.879457
0.862045
0.842847
0.822093
0.79999
0.77672
0.752438
0.727282
0.701363
0.674777
0.6476
0.619894
0.591706
0.563071
0.534018
0.504566
0.474731
0.444518
0.413939
0.382985
0.351676
0.319968
0.287942
0.255415
0.222747
0.189182
0.156243
0.120818
0.0891885
0.0487065
0.024947
-10.3247
-10.3537
-10.3789
-10.4022
-10.4269
-10.4579
-10.5021
-10.5683
-10.6664
-10.8068
-10.9984
-11.2475
-11.5565
-11.9225
-12.3373
-12.7871
-13.2532
-13.713
-14.1415
-14.5125
-14.8007
-14.9827
-15.0395
-14.9574
-14.7295
-14.3562
-13.8451
-13.2102
-12.4705
-11.6485
-10.7681
-9.85306
-8.92577
-8.00608
-7.1108
-6.25342
-5.44408
-4.68979
-3.99473
-3.36073
-2.78762
-2.27375
-1.81631
-1.41175
-1.05607
-0.74503
-0.474388
-0.240013
-0.0379938
0.135304
0.283205
0.408721
0.514554
0.60312
0.67657
0.736822
0.78558
0.824368
0.854562
0.87741
0.894053
0.9055
0.912596
0.91598
0.916071
0.913107
0.907211
0.898473
0.887024
0.873058
0.856825
0.838597
0.818641
0.797193
0.774461
0.750623
0.725831
0.700211
0.67387
0.646893
0.619349
0.59129
0.56276
0.53379
0.504403
0.474618
0.444445
0.413894
0.382961
0.351666
0.319967
0.287946
0.255422
0.22275
0.189186
0.156234
0.120814
0.089155
0.0486976
0.0248776
-10.3085
-10.3423
-10.3742
-10.4062
-10.4414
-10.484
-10.5395
-10.6151