/*--------------------------------*- C++ -*----------------------------------*\
  =========                 |
  \\      /  F ield         | OpenFOAM: The Open Source CFD Toolbox
   \\    /   O peration     | Website:  https://openfoam.org
    \\  /    A nd           | Version:  10
     \\/     M anipulation  |
\*---------------------------------------------------------------------------*/
FoamFile
{
    format      ascii;
    class       surfaceScalarField;
    location    "0.05";
    object      phi;
}
// * * * * * * * * * * * * * * * * * * * * * * * * * * * * * * * * * * * * * //

dimensions      [0 3 -1 0 0 0 0];

internalField   nonuniform List<scalar> 
13452
(
4.01921e-05
2.00764e-05
2.5934e-05
1.42581e-05
1.85299e-05
7.40409e-06
1.51568e-05
3.37308e-06
1.37414e-05
1.41544e-06
1.30321e-05
7.09315e-07
1.25766e-05
4.55543e-07
1.22229e-05
3.53664e-07
1.19215e-05
3.01438e-07
1.16603e-05
2.6118e-07
1.14352e-05
2.25102e-07
1.12423e-05
1.92865e-07
1.10776e-05
1.64739e-07
1.09369e-05
1.4065e-07
1.08168e-05
1.20134e-07
1.07142e-05
1.02577e-07
1.06268e-05
8.73879e-08
1.05528e-05
7.40527e-08
1.04906e-05
6.21495e-08
1.04393e-05
5.13393e-08
1.03979e-05
4.13512e-08
1.0366e-05
3.1975e-08
1.03429e-05
2.30407e-08
1.03285e-05
1.44388e-08
1.03226e-05
5.91983e-09
1.03248e-05
-2.25489e-09
1.03346e-05
-9.84027e-09
1.03507e-05
-1.60596e-08
1.03731e-05
-2.23662e-08
1.03903e-05
-1.71937e-08
1.04108e-05
-2.05558e-08
1.03232e-05
8.76216e-08
-4.60995e-08
1.03693e-05
6.59029e-05
1.61638e-05
6.18972e-05
1.82638e-05
5.56372e-05
1.36641e-05
4.97699e-05
9.24037e-06
4.52752e-05
5.91009e-06
4.20635e-05
3.92104e-06
3.97577e-05
2.76131e-06
3.80588e-05
2.05263e-06
3.67611e-05
1.59914e-06
3.57335e-05
1.28871e-06
3.48958e-05
1.06284e-06
3.41974e-05
8.91291e-07
3.36053e-05
7.56816e-07
3.30971e-05
6.48807e-07
3.2657e-05
5.60245e-07
3.22733e-05
4.86256e-07
3.19374e-05
4.23349e-07
3.16425e-05
3.68971e-07
3.13834e-05
3.21218e-07
3.11561e-05
2.78645e-07
3.09573e-05
2.40136e-07
3.07845e-05
2.0482e-07
3.06355e-05
1.72005e-07
3.05088e-05
1.41168e-07
3.04028e-05
1.11881e-07
3.03164e-05
8.41301e-08
3.02487e-05
5.78769e-08
3.01985e-05
3.41324e-08
3.01636e-05
1.25622e-08
3.01443e-05
2.06012e-09
3.01311e-05
-7.29522e-09
3.01714e-05
4.7278e-08
5.50824e-08
3.00702e-05
6.91813e-05
1.07439e-05
7.25077e-05
1.49374e-05
7.30609e-05
1.31109e-05
7.1686e-05
1.06152e-05
6.94398e-05
8.15625e-06
6.70589e-05
6.302e-06
6.48262e-05
4.99394e-06
6.28326e-05
4.04623e-06
6.10886e-05
3.34317e-06
5.95721e-05
2.80519e-06
5.82541e-05
2.38088e-06
5.71064e-05
2.03894e-06
5.61042e-05
1.759e-06
5.52262e-05
1.52682e-06
5.44545e-05
1.33195e-06
5.37742e-05
1.16657e-06
5.31729e-05
1.02469e-06
5.26402e-05
9.0165e-07
5.21676e-05
7.93784e-07
5.17481e-05
6.9818e-07
5.13757e-05
6.12504e-07
5.10457e-05
5.34868e-07
5.07539e-05
4.6374e-07
5.04972e-05
3.97904e-07
5.02727e-05
3.36386e-07
5.00782e-05
2.7863e-07
4.99117e-05
2.24327e-07
4.97718e-05
1.74062e-07
4.96563e-05
1.28034e-07
4.95664e-05
9.20151e-08
4.9496e-05
6.31171e-08
4.94705e-05
7.27539e-08
7.81858e-08
4.94474e-05
6.88457e-05
7.48132e-06
7.21605e-05
1.16226e-05
7.45352e-05
1.07362e-05
7.59448e-05
9.20561e-06
7.65218e-05
7.57931e-06
7.65826e-05
6.24118e-06
7.63349e-05
5.24165e-06
7.5904e-05
4.47714e-06
7.53703e-05
3.87684e-06
7.47826e-05
3.39294e-06
7.41713e-05
2.99213e-06
7.35568e-05
2.65346e-06
7.2953e-05
2.36275e-06
7.23697e-05
2.11018e-06
7.18126e-05
1.88907e-06
7.12851e-05
1.69407e-06
7.07889e-05
1.52082e-06
7.03248e-05
1.36577e-06
6.98926e-05
1.22598e-06
6.94918e-05
1.09899e-06
6.91216e-05
9.82743e-07
6.8781e-05
8.75479e-07
6.8469e-05
7.75719e-07
6.81847e-05
6.82227e-07
6.7927e-05
5.93988e-07
6.76954e-05
5.10316e-07
6.74889e-05
4.30755e-07
6.73075e-05
3.55498e-07
6.71509e-05
2.84613e-07
6.70218e-05
2.21088e-07
6.69215e-05
1.63473e-07
6.68704e-05
1.23883e-07
8.09578e-08
6.68676e-05
6.95587e-05
5.37944e-06
7.18351e-05
9.34621e-06
7.35365e-05
9.03483e-06
7.48069e-05
7.93521e-06
7.56995e-05
6.68671e-06
7.63515e-05
5.58912e-06
7.68489e-05
4.74422e-06
7.72332e-05
4.09285e-06
7.75322e-05
3.5779e-06
7.77639e-05
3.16116e-06
7.79411e-05
2.81493e-06
7.80736e-05
2.52104e-06
7.81682e-05
2.26811e-06
7.82306e-05
2.04782e-06
7.82662e-05
1.85344e-06
7.82801e-05
1.68012e-06
7.82768e-05
1.52415e-06
7.826e-05
1.3826e-06
7.82329e-05
1.25308e-06
7.81983e-05
1.13359e-06
7.81586e-05
1.02247e-06
7.81157e-05
9.18305e-07
7.80716e-05
8.19876e-07
7.80276e-05
7.26159e-07
7.79853e-05
6.36293e-07
7.7946e-05
5.49637e-07
7.79111e-05
4.65684e-07
7.78823e-05
3.84301e-07
7.78618e-05
3.05115e-07
7.78539e-05
2.29001e-07
7.78637e-05
1.53614e-07
7.79061e-05
8.15073e-08
-4.78521e-09
7.79918e-05
7.08401e-05
3.92335e-06
7.26272e-05
7.55911e-06
7.39342e-05
7.7278e-06
7.48653e-05
7.00418e-06
7.54969e-05
6.05512e-06
7.59484e-05
5.13758e-06
7.6307e-05
4.38561e-06
7.66131e-05
3.78679e-06
7.68869e-05
3.30407e-06
7.71383e-05
2.90975e-06
7.73715e-05
2.58175e-06
7.75887e-05
2.30386e-06
7.77919e-05
2.06489e-06
7.79828e-05
1.85694e-06
7.81622e-05
1.67406e-06
7.83307e-05
1.51158e-06
7.8489e-05
1.36584e-06
7.86377e-05
1.2339e-06
7.87774e-05
1.11336e-06
7.89088e-05
1.00226e-06
7.90323e-05
8.98912e-07
7.91487e-05
8.01924e-07
7.92585e-05
7.10085e-07
7.93623e-05
6.22363e-07
7.94607e-05
5.37856e-07
7.95545e-05
4.55815e-07
7.96447e-05
3.75533e-07
7.97325e-05
2.9645e-07
7.98201e-05
2.17592e-07
7.99108e-05
1.38308e-07
8.00092e-05
5.51611e-08
8.01247e-05
-3.39343e-08
-1.45279e-07
8.02651e-05
7.23888e-05
2.9009e-06
7.38412e-05
6.10673e-06
7.49695e-05
6.59944e-06
7.5789e-05
6.18477e-06
7.63489e-05
5.49517e-06
7.67332e-05
4.75328e-06
7.70182e-05
4.10059e-06
7.72461e-05
3.55889e-06
7.74404e-05
3.10985e-06
7.76143e-05
2.73581e-06
7.7775e-05
2.42102e-06
7.79263e-05
2.15255e-06
7.80704e-05
1.92083e-06
7.82086e-05
1.71878e-06
7.83417e-05
1.54093e-06
7.84703e-05
1.38295e-06
7.85948e-05
1.24136e-06
7.87153e-05
1.11336e-06
7.88321e-05
9.96601e-07
7.89452e-05
8.8915e-07
7.90548e-05
7.89359e-07
7.91609e-05
6.95819e-07
7.92636e-05
6.07311e-07
7.93632e-05
5.22765e-07
7.94599e-05
4.41216e-07
7.95539e-05
3.61785e-07
7.96459e-05
2.83562e-07
7.97367e-05
2.05614e-07
7.98278e-05
1.26505e-07
7.99215e-05
4.45791e-08
8.00209e-05
-4.41963e-08
8.01311e-05
-1.44156e-07
-2.67544e-07
8.02534e-05
7.41252e-05
2.18093e-06
7.52927e-05
4.93927e-06
7.62747e-05
5.61744e-06
7.70276e-05
5.43191e-06
7.75742e-05
4.94847e-06
7.79642e-05
4.36334e-06
7.82551e-05
3.80972e-06
7.84843e-05
3.32965e-06
7.86744e-05
2.91976e-06
7.88394e-05
2.57083e-06
7.89875e-05
2.27286e-06
7.91238e-05
2.01633e-06
7.92511e-05
1.79349e-06
7.93715e-05
1.59833e-06
7.94864e-05
1.42605e-06
7.95967e-05
1.27272e-06
7.97029e-05
1.13514e-06
7.98056e-05
1.01066e-06
7.99051e-05
8.97086e-07
8.00017e-05
7.92541e-07
8.00956e-05
6.95434e-07
8.0187e-05
6.04391e-07
8.02762e-05
5.182e-07
8.03631e-05
4.35777e-07
8.04482e-05
3.56116e-07
8.05318e-05
2.78244e-07
8.06142e-05
2.01109e-07
8.06963e-05
1.23538e-07
8.0779e-05
4.38435e-08
8.08636e-05
-4.0085e-08
8.09515e-05
-1.32052e-07
8.10441e-05
-2.36723e-07
-3.62475e-07
8.1139e-05
7.60167e-05
1.66671e-06
7.69532e-05
4.00279e-06
7.78021e-05
4.76852e-06
7.84838e-05
4.75017e-06
7.90049e-05
4.42742e-06
7.93938e-05
3.97443e-06
7.96927e-05
3.51083e-06
7.99328e-05
3.08954e-06
8.01337e-05
2.71885e-06
8.03081e-05
2.39637e-06
8.04642e-05
2.11684e-06
8.06067e-05
1.87376e-06
8.07391e-05
1.66116e-06
8.08633e-05
1.47406e-06
8.09811e-05
1.30832e-06
8.10933e-05
1.16047e-06
8.12009e-05
1.02759e-06
8.13043e-05
9.07239e-07
8.1404e-05
7.97349e-07
8.15004e-05
6.96151e-07
8.15937e-05
6.02119e-07
8.16842e-05
5.13921e-07
8.1772e-05
4.3037e-07
8.18574e-05
3.50389e-07
8.19406e-05
2.72952e-07
8.20218e-05
1.97044e-07
8.21013e-05
1.21555e-07
8.21797e-05
4.52165e-08
8.22572e-05
-3.36606e-08
8.23343e-05
-1.17191e-07
8.24108e-05
-2.08589e-07
8.24859e-05
-3.1185e-07
-4.32006e-07
8.25555e-05
7.80329e-05
1.29336e-06
7.8784e-05
3.25171e-06
7.95156e-05
4.03694e-06
8.01306e-05
4.13521e-06
8.06225e-05
3.93545e-06
8.10052e-05
3.59172e-06
8.13075e-05
3.20857e-06
8.15543e-05
2.84268e-06
8.17627e-05
2.51047e-06
8.19442e-05
2.21487e-06
8.21066e-05
1.95449e-06
8.22548e-05
1.72554e-06
8.23922e-05
1.52374e-06
8.25211e-05
1.3452e-06
8.26429e-05
1.18645e-06
8.27589e-05
1.04448e-06
8.28698e-05
9.16676e-07
8.29763e-05
8.00815e-07
8.30786e-05
6.9497e-07
8.31773e-05
5.97474e-07
8.32726e-05
5.06877e-07
8.33646e-05
4.21896e-07
8.34536e-05
3.41385e-07
8.35397e-05
2.64288e-07
8.3623e-05
1.89595e-07
8.37038e-05
1.16298e-07
8.3782e-05
4.33071e-08
8.38579e-05
-3.06073e-08
8.39312e-05
-1.06972e-07
8.40016e-05
-1.87632e-07
8.4068e-05
-2.75016e-07
8.41282e-05
-3.72037e-07
-4.81243e-07
8.41775e-05
8.01545e-05
1.01713e-06
8.07587e-05
2.64756e-06
8.13886e-05
3.40702e-06
8.19426e-05
3.58125e-06
8.24042e-05
3.47386e-06
8.27769e-05
3.21895e-06
8.30793e-05
2.90624e-06
8.33306e-05
2.59137e-06
8.35452e-05
2.2959e-06
8.37332e-05
2.02685e-06
8.39018e-05
1.78588e-06
8.40558e-05
1.57152e-06
8.41985e-05
1.38106e-06
8.43321e-05
1.21159e-06
8.44582e-05
1.06031e-06
8.4578e-05
9.2467e-07
8.46923e-05
8.02367e-07
8.48018e-05
6.91386e-07
8.49068e-05
5.89956e-07
8.50077e-05
4.96525e-07
8.51049e-05
4.09724e-07
8.51985e-05
3.28338e-07
8.52886e-05
2.51271e-07
8.53753e-05
1.77515e-07
8.54588e-05
1.06106e-07
8.5539e-05
3.60897e-08
8.56159e-05
-3.35362e-08
8.56891e-05
-1.03863e-07
8.57583e-05
-1.76148e-07
8.58225e-05
-2.51819e-07
8.588e-05
-3.32503e-07
8.5928e-05
-4.20001e-07
-5.15129e-07
8.59618e-05
8.23691e-05
8.08495e-07
8.28574e-05
2.15924e-06
8.33993e-05
2.86515e-06
8.38973e-05
3.08326e-06
8.43283e-05
3.04282e-06
8.46891e-05
2.85816e-06
8.49899e-05
2.60545e-06
8.52448e-05
2.3365e-06
8.54651e-05
2.0755e-06
8.56597e-05
1.8323e-06
8.58348e-05
1.6108e-06
8.59949e-05
1.41141e-06
8.61432e-05
1.23276e-06
8.62819e-05
1.07285e-06
8.64127e-05
9.29526e-07
8.65367e-05
8.00667e-07
8.66548e-05
6.84289e-07
8.67676e-05
5.78597e-07
8.68756e-05
4.81981e-07
8.69791e-05
3.93006e-07
8.70784e-05
3.10398e-07
8.71737e-05
2.33018e-07
8.72652e-05
1.59838e-07
8.73528e-05
8.99122e-08
8.74365e-05
2.23539e-08
8.75163e-05
-4.36993e-08
8.75919e-05
-1.09113e-07
8.76628e-05
-1.74781e-07
8.77283e-05
-2.41646e-07
8.77872e-05
-3.10675e-07
8.78374e-05
-3.8278e-07
8.78762e-05
-4.58808e-07
-5.3846e-07
8.78996e-05
8.46687e-05
6.47519e-07
8.50662e-05
1.76182e-06
8.55326e-05
2.39867e-06
8.59801e-05
2.63585e-06
8.63813e-05
2.64152e-06
8.67285e-05
2.51096e-06
8.70258e-05
2.30823e-06
8.72825e-05
2.0798e-06
8.75075e-05
1.85049e-06
8.77079e-05
1.63188e-06
8.78892e-05
1.42946e-06
8.80556e-05
1.24508e-06
8.82098e-05
1.07851e-06
8.83541e-05
9.28532e-07
8.84901e-05
7.93581e-07
8.86188e-05
6.71944e-07
8.87412e-05
5.61935e-07
8.88578e-05
4.61971e-07
8.89692e-05
3.70602e-07
8.90757e-05
2.86516e-07
8.91775e-05
2.08538e-07
8.92749e-05
1.35613e-07
8.9368e-05
6.67914e-08
8.94567e-05
1.21104e-09
8.95409e-05
-6.19214e-08
8.96206e-05
-1.23348e-07
8.96953e-05
-1.83775e-07
8.97643e-05
-2.43875e-07
8.9827e-05
-3.04273e-07
8.98818e-05
-3.65513e-07
8.9927e-05
-4.27928e-07
8.99598e-05
-4.91641e-07
-5.55714e-07
8.9977e-05
8.7049e-05
5.2064e-07
8.73753e-05
1.43555e-06
8.77778e-05
1.99619e-06
8.81798e-05
2.23386e-06
8.85526e-05
2.26872e-06
8.88852e-05
2.17833e-06
8.91774e-05
2.01606e-06
8.94347e-05
1.8225e-06
8.96635e-05
1.62168e-06
8.98694e-05
1.42602e-06
9.00568e-05
1.24201e-06
9.02294e-05
1.07251e-06
9.03897e-05
9.18161e-07
9.05398e-05
7.78437e-07
9.06811e-05
6.52251e-07
9.08148e-05
5.38264e-07
9.09417e-05
4.35064e-07
9.10624e-05
3.41272e-07
9.11774e-05
2.55592e-07
9.12871e-05
1.76837e-07
9.13917e-05
1.03933e-07
9.14914e-05
3.59163e-08
9.15863e-05
-2.80753e-08
9.16763e-05
-8.88108e-08
9.17613e-05
-1.46977e-07
9.18412e-05
-2.03189e-07
9.19154e-05
-2.57984e-07
9.19833e-05
-3.1182e-07
9.20441e-05
-3.6504e-07
9.20964e-05
-4.17835e-07
9.21386e-05
-4.70116e-07
9.21685e-05
-5.21517e-07
-5.70805e-07
9.21836e-05
8.95076e-05
4.18537e-07
8.97783e-05
1.16488e-06
9.0127e-05
1.64754e-06
9.04887e-05
1.87215e-06
9.08348e-05
1.92255e-06
9.11527e-05
1.86047e-06
9.14388e-05
1.72994e-06
9.16957e-05
1.56568e-06
9.19273e-05
1.39002e-06
9.21379e-05
1.21543e-06
9.2331e-05
1.04889e-06
9.25096e-05
8.93913e-07
9.2676e-05
7.51779e-07
9.28319e-05
6.22492e-07
9.29788e-05
5.05378e-07
9.31177e-05
3.99415e-07
9.32493e-05
3.03433e-07
9.33743e-05
2.16241e-07
9.34932e-05
1.36688e-07
9.36064e-05
6.37059e-08
9.3714e-05
-3.67908e-09
9.38162e-05
-6.6338e-08
9.39132e-05
-1.25042e-07
9.40048e-05
-1.80464e-07
9.40911e-05
-2.33183e-07
9.41716e-05
-2.83686e-07
9.42459e-05
-3.32354e-07
9.43136e-05
-3.79457e-07
9.43736e-05
-4.25108e-07
9.4425e-05
-4.69235e-07
9.44664e-05
-5.11474e-07
9.4496e-05
-5.51173e-07
-5.87034e-07
9.45123e-05
9.20437e-05
3.34708e-07
9.22709e-05
9.3764e-07
9.25747e-05
1.34376e-06
9.29011e-05
1.54573e-06
9.32229e-05
1.6008e-06
9.35263e-05
1.55707e-06
9.38058e-05
1.45045e-06
9.40613e-05
1.31014e-06
9.42951e-05
1.15619e-06
9.451e-05
1.00059e-06
9.47085e-05
8.50374e-07
9.4893e-05
7.09389e-07
9.50655e-05
5.79333e-07
9.52274e-05
4.60591e-07
9.53799e-05
3.52808e-07
9.55241e-05
2.55217e-07
9.56607e-05
1.66854e-07
9.57903e-05
8.66878e-08
9.59133e-05
1.36998e-08
9.603e-05
-5.30692e-08
9.61408e-05
-1.14496e-07
9.62459e-05
-1.71361e-07
9.63452e-05
-2.24347e-07
9.64387e-05
-2.74035e-07
9.65265e-05
-3.20901e-07
9.66081e-05
-3.65314e-07
9.66833e-05
-4.07522e-07
9.67514e-05
-4.47642e-07
9.6812e-05
-4.8562e-07
9.68639e-05
-5.2121e-07
9.69064e-05
-5.53898e-07
9.69381e-05
-5.82907e-07
-6.07022e-07
9.69581e-05
9.46573e-05
2.64535e-07
9.48507e-05
7.44316e-07
9.51174e-05
1.07702e-06
9.54133e-05
1.24982e-06
9.57131e-05
1.30099e-06
9.60029e-05
1.2673e-06
9.62757e-05
1.17767e-06
9.65295e-05
1.05629e-06
9.6765e-05
9.20676e-07
9.69837e-05
7.81901e-07
9.71874e-05
6.46741e-07
9.73777e-05
5.19098e-07
9.75561e-05
4.00877e-07
9.7724e-05
2.92704e-07
9.78824e-05
1.94447e-07
9.80321e-05
1.05531e-07
9.81738e-05
2.51533e-08
9.8308e-05
-4.75851e-08
9.84353e-05
-1.13589e-07
9.8556e-05
-1.73721e-07
9.86702e-05
-2.28769e-07
9.87783e-05
-2.79433e-07
9.88803e-05
-3.26313e-07
9.89761e-05
-3.69905e-07
9.90658e-05
-4.10593e-07
9.91492e-05
-4.48648e-07
9.92259e-05
-4.84213e-07
9.92955e-05
-5.17293e-07
9.93576e-05
-5.47726e-07
9.94116e-05
-5.75173e-07
9.94567e-05
-5.99063e-07
9.94924e-05
-6.18609e-07
-6.32757e-07
9.95182e-05
9.73494e-05
2.04669e-07
9.75163e-05
5.77426e-07
9.77527e-05
8.40542e-07
9.80227e-05
9.79851e-07
9.83032e-05
1.02045e-06
9.85806e-05
9.89931e-07
9.8847e-05
9.11271e-07
9.90991e-05
8.04218e-07
9.93361e-05
6.83686e-07
9.95584e-05
5.5957e-07
9.9767e-05
4.38125e-07
9.9963e-05
3.23083e-07
0.000100148
2.16374e-07
0.000100322
1.18736e-07
0.000100486
3.01587e-08
0.000100641
-4.98052e-08
0.000100788
-1.21846e-07
0.000100927
-1.86761e-07
0.000101059
-2.45367e-07
0.000101184
-2.98446e-07
0.000101302
-3.46711e-07
0.000101413
-3.90791e-07
0.000101518
-4.31213e-07
0.000101617
-4.684e-07
0.000101709
-5.02664e-07
0.000101794
-5.34196e-07
0.000101873
-5.63065e-07
0.000101945
-5.89205e-07
0.00010201
-6.12397e-07
0.000102067
-6.3227e-07
0.000102116
-6.4827e-07
0.000102157
-6.59677e-07
-6.65637e-07
0.00010219
0.000100121
1.52617e-07
0.000100268
4.31049e-07
0.00010048
6.28475e-07
0.000100728
7.31539e-07
0.000100992
7.56392e-07
0.000101258
7.23389e-07
0.000101519
6.50514e-07
0.00010177
5.53626e-07
0.000102008
4.45127e-07
0.000102234
3.33565e-07
0.000102448
2.24484e-07
0.00010265
1.21264e-07
0.000102841
2.57053e-08
0.000103021
-6.14739e-08
0.000103191
-1.40246e-07
0.000103352
-2.11002e-07
0.000103505
-2.74369e-07
0.000103649
-3.31079e-07
0.000103786
-3.81885e-07
0.000103915
-4.2751e-07
0.000104037
-4.68608e-07
0.000104152
-5.05748e-07
0.00010426
-5.39401e-07
0.000104361
-5.69931e-07
0.000104456
-5.97592e-07
0.000104545
-6.22523e-07
0.000104626
-6.44744e-07
0.000104701
-6.64153e-07
0.000104769
-6.80517e-07
0.000104831
-6.93478e-07
0.000104885
-7.02541e-07
0.000104932
-7.07092e-07
-7.06471e-07
0.000104973
0.000102974
1.06477e-07
0.000103105
3.00436e-07
0.000103298
4.35732e-07
0.000103528
5.00823e-07
0.000103779
5.0592e-07
0.000104036
4.65796e-07
0.000104293
3.94287e-07
0.000104542
3.03887e-07
0.000104783
2.04636e-07
0.000105013
1.03655e-07
0.000105232
5.63832e-09
0.000105439
-8.65231e-08
0.000105636
-1.713e-07
0.000105823
-2.481e-07
0.000106
-3.16946e-07
0.000106167
-3.78242e-07
0.000106325
-4.32598e-07
0.000106475
-4.8072e-07
0.000106616
-5.23327e-07
0.00010675
-5.61103e-07
0.000106876
-5.9466e-07
0.000106995
-6.24527e-07
0.000107106
-6.51129e-07
0.000107211
-6.7479e-07
0.000107309
-6.95724e-07
0.000107401
-7.14038e-07
0.000107486
-7.29729e-07
0.000107564
-7.42686e-07
0.000107637
-7.52693e-07
0.000107703
-7.59434e-07
0.000107762
-7.62501e-07
0.000107817
-7.61408e-07
-7.55679e-07
0.000107866
0.00010591
6.47479e-08
0.000106029
1.81705e-07
0.000106207
2.57855e-07
0.000106424
2.83848e-07
0.000106664
2.66045e-07
0.000106915
2.14986e-07
0.000107168
1.41091e-07
0.000107418
5.39571e-08
0.000107661
-3.85524e-08
0.000107895
-1.30764e-07
0.00010812
-2.1892e-07
0.000108334
-3.00744e-07
0.000108538
-3.75078e-07
0.000108731
-4.41557e-07
0.000108915
-5.00341e-07
0.000109089
-5.51905e-07
0.000109253
-5.96897e-07
0.000109408
-6.36034e-07
0.000109555
-6.7003e-07
0.000109693
-6.99555e-07
0.000109824
-7.25199e-07
0.000109947
-7.47465e-07
0.000110062
-7.66751e-07
0.000110171
-7.83355e-07
0.000110273
-7.97468e-07
0.000110368
-8.09184e-07
0.000110457
-8.18494e-07
0.000110539
-8.253e-07
0.000110616
-8.29418e-07
0.000110687
-8.30592e-07
0.000110753
-8.28502e-07
0.000110814
-8.22784e-07
-8.13106e-07
0.000110872
0.000108932
2.62056e-08
0.000109042
7.15993e-08
0.000109209
9.08724e-08
0.000109416
7.6929e-08
0.000109648
3.37009e-08
0.000109895
-3.14377e-08
0.000110147
-1.10869e-07
0.000110398
-1.97486e-07
0.000110645
-2.85422e-07
0.000110885
-3.70438e-07
0.000111116
-4.49779e-07
0.000111337
-5.21866e-07
0.000111548
-5.86013e-07
0.000111748
-6.42171e-07
0.000111939
-6.90706e-07
0.000112119
-7.3223e-07
0.000112289
-7.67474e-07
0.000112451
-7.97205e-07
0.000112603
-8.22163e-07
0.000112746
-8.43024e-07
0.000112881
-8.6038e-07
0.000113009
-8.74721e-07
0.000113128
-8.86435e-07
0.000113241
-8.95807e-07
0.000113346
-9.03022e-07
0.000113445
-9.0817e-07
0.000113538
-9.11254e-07
0.000113625
-9.122e-07
0.000113706
-9.10868e-07
0.000113783
-9.07065e-07
0.000113855
-9.00561e-07
0.000113923
-8.91114e-07
-8.78512e-07
0.000113989
0.000112041
-1.01942e-08
0.000112145
-3.27142e-08
0.000112305
-6.88688e-08
0.000112505
-1.23572e-07
0.000112734
-1.94369e-07
0.000112978
-2.76246e-07
0.000113231
-3.63886e-07
0.000113486
-4.52334e-07
0.000113738
-5.37556e-07
0.000113985
-6.16718e-07
0.000114223
-6.88109e-07
0.000114452
-7.50919e-07
0.000114671
-8.05018e-07
0.00011488
-8.50751e-07
0.000115078
-8.88763e-07
0.000115265
-9.19855e-07
0.000115443
-9.44894e-07
0.00011561
-9.64733e-07
0.000115768
-9.80167e-07
0.000115917
-9.91906e-07
0.000116057
-1.00056e-06
0.000116189
-1.00662e-06
0.000116313
-1.01048e-06
0.00011643
-1.01242e-06
0.000116539
-1.01264e-06
0.000116642
-1.01123e-06
0.000116739
-1.0082e-06
0.000116831
-1.00353e-06
0.000116917
-9.971e-07
0.000116999
-9.88784e-07
0.000117077
-9.78426e-07
0.000117151
-9.65865e-07
-9.50963e-07
0.000117224
0.00011524
-4.53835e-08
0.000115341
-1.33797e-07
0.000115497
-2.24807e-07
0.000115694
-3.21244e-07
0.000115921
-4.21509e-07
0.000116168
-5.22363e-07
0.000116424
-6.20403e-07
0.000116684
-7.12578e-07
0.000116943
-7.96553e-07
0.000117198
-8.70879e-07
0.000117444
-9.34925e-07
0.000117682
-9.88715e-07
0.00011791
-1.03274e-06
0.000118127
-1.06782e-06
0.000118333
-1.09493e-06
0.000118528
-1.11512e-06
0.000118713
-1.12943e-06
0.000118887
-1.13883e-06
0.000119051
-1.14421e-06
0.000119205
-1.14633e-06
0.000119351
-1.14583e-06
0.000119487
-1.14323e-06
0.000119616
-1.13893e-06
0.000119737
-1.13323e-06
0.00011985
-1.12632e-06
0.000119957
-1.11832e-06
0.000120058
-1.10927e-06
0.000120154
-1.09914e-06
0.000120245
-1.08789e-06
0.000120332
-1.07543e-06
0.000120415
-1.06166e-06
0.000120495
-1.04651e-06
-1.0299e-06
0.000120574
0.000118531
-8.0247e-08
0.000118631
-2.34132e-07
0.000118787
-3.80428e-07
0.000118985
-5.19966e-07
0.000119216
-6.51608e-07
0.000119467
-7.73481e-07
0.00011973
-8.83813e-07
0.000119999
-9.81272e-07
0.000120267
-1.06513e-06
0.000120532
-1.13532e-06
0.000120789
-1.19233e-06
0.000121038
-1.23707e-06
0.000121276
-1.27075e-06
0.000121502
-1.29471e-06
0.000121718
-1.31032e-06
0.000121922
-1.31894e-06
0.000122114
-1.32184e-06
0.000122295
-1.32012e-06
0.000122466
-1.3148e-06
0.000122626
-1.3067e-06
0.000122777
-1.29651e-06
0.000122919
-1.28479e-06
0.000123052
-1.27195e-06
0.000123177
-1.25832e-06
0.000123294
-1.24409e-06
0.000123405
-1.22939e-06
0.00012351
-1.21429e-06
0.00012361
-1.19879e-06
0.000123705
-1.18285e-06
0.000123796
-1.16644e-06
0.000123884
-1.14948e-06
0.000123969
-1.13193e-06
-1.11372e-06
0.000124053
0.000121917
-1.15655e-07
0.000122019
-3.36164e-07
0.000122177
-5.39186e-07
0.000122381
-7.23582e-07
0.000122618
-8.8846e-07
0.000122878
-1.03309e-06
0.000123151
-1.15717e-06
0.000123431
-1.26101e-06
0.000123711
-1.34545e-06
0.000123987
-1.41183e-06
0.000124257
-1.46179e-06
0.000124517
-1.49721e-06
0.000124766
-1.52005e-06
0.000125004
-1.53224e-06
0.000125229
-1.53563e-06
0.000125442
-1.5319e-06
0.000125643
-1.52257e-06
0.000125832
-1.50896e-06
0.000126009
-1.49219e-06
0.000126176
-1.47318e-06
0.000126332
-1.4527e-06
0.000126478
-1.43132e-06
0.000126616
-1.40951e-06
0.000126745
-1.38758e-06
0.000126867
-1.36577e-06
0.000126982
-1.3442e-06
0.00012709
-1.32295e-06
0.000127194
-1.30205e-06
0.000127292
-1.28147e-06
0.000127387
-1.2612e-06
0.000127479
-1.24119e-06
0.000127568
-1.22145e-06
-1.2019e-06
0.000127656
0.0001254
-1.5262e-07
0.000125507
-4.42748e-07
0.000125673
-7.05314e-07
0.000125887
-9.37157e-07
0.000126136
-1.13752e-06
0.000126409
-1.30669e-06
0.000126698
-1.44577e-06
0.000126994
-1.55669e-06
0.00012729
-1.64192e-06
0.000127583
-1.70425e-06
0.000127867
-1.74659e-06
0.000128142
-1.77187e-06
0.000128405
-1.78288e-06
0.000128655
-1.78223e-06
0.000128891
-1.77227e-06
0.000129115
-1.75507e-06
0.000129325
-1.73245e-06
0.000129522
-1.70592e-06
0.000129706
-1.67677e-06
0.000129879
-1.64601e-06
0.000130041
-1.61447e-06
0.000130192
-1.58279e-06
0.000130334
-1.55145e-06
0.000130467
-1.52077e-06
0.000130593
-1.49101e-06
0.000130711
-1.46229e-06
0.000130822
-1.43469e-06
0.000130929
-1.40823e-06
0.00013103
-1.3829e-06
0.000131127
-1.35867e-06
0.000131222
-1.3355e-06
0.000131314
-1.31337e-06
-1.29215e-06
0.000131404
0.000128985
-1.92103e-07
0.000129098
-5.56647e-07
0.000129276
-8.82686e-07
0.000129504
-1.16497e-06
0.000129769
-1.40301e-06
0.000130061
-1.5982e-06
0.000130368
-1.75313e-06
0.000130683
-1.87146e-06
0.000130998
-1.95734e-06
0.000131309
-2.0151e-06
0.000131611
-2.04901e-06
0.000131903
-2.06309e-06
0.000132181
-2.06106e-06
0.000132445
-2.04626e-06
0.000132694
-2.02161e-06
0.000132929
-1.98962e-06
0.000133149
-1.95242e-06
0.000133355
-1.91178e-06
0.000133547
-1.86912e-06
0.000133727
-1.8256e-06
0.000133894
-1.78211e-06
0.000134051
-1.73933e-06
0.000134197
-1.69776e-06
0.000134334
-1.65776e-06
0.000134463
-1.61956e-06
0.000134584
-1.58329e-06
0.000134698
-1.54902e-06
0.000134806
-1.51676e-06
0.00013491
-1.48648e-06
0.00013501
-1.45816e-06
0.000135106
-1.43172e-06
0.0001352
-1.40717e-06
-1.38433e-06
0.000135292
0.000132673
-2.3581e-07
0.000132799
-6.82524e-07
0.000132994
-1.07833e-06
0.000133245
-1.4156e-06
0.000133536
-1.69423e-06
0.000133855
-1.91691e-06
0.00013419
-2.08796e-06
0.000134531
-2.21301e-06
0.000134872
-2.29825e-06
0.000135207
-2.34974e-06
0.000135531
-2.37326e-06
0.000135842
-2.37411e-06
0.000136138
-2.357e-06
0.000136418
-2.32607e-06
0.000136681
-2.28484e-06
0.000136928
-2.23629e-06
0.000137158
-2.18289e-06
0.000137373
-2.12665e-06
0.000137573
-2.06916e-06
0.000137759
-2.01169e-06
0.000137932
-1.95519e-06
0.000138093
-1.9004e-06
0.000138243
-1.84782e-06
0.000138383
-1.79781e-06
0.000138514
-1.75058e-06
0.000138637
-1.70625e-06
0.000138753
-1.66487e-06
0.000138863
-1.62641e-06
0.000138967
-1.59083e-06
0.000139067
-1.55804e-06
0.000139163
-1.52793e-06
0.000139257
-1.50044e-06
-1.47533e-06
0.000139348
0.000136467
-2.84576e-07
0.000136608
-8.23255e-07
0.000136825
-1.29596e-06
0.000137103
-1.69288e-06
0.000137424
-2.01504e-06
0.000137773
-2.26682e-06
0.00013814
-2.45448e-06
0.000138513
-2.58588e-06
0.000138884
-2.66934e-06
0.000139247
-2.71288e-06
0.000139598
-2.72396e-06
0.000139933
-2.70925e-06
0.000140251
-2.67464e-06
0.00014055
-2.62513e-06
0.00014083
-2.56495e-06
0.000141091
-2.4976e-06
0.000141334
-2.42591e-06
0.00014156
-2.35216e-06
0.000141768
-2.27812e-06
0.000141962
-2.20516e-06
0.000142141
-2.13432e-06
0.000142307
-2.06634e-06
0.000142461
-2.00172e-06
0.000142604
-1.94081e-06
0.000142737
-1.8838e-06
0.000142862
-1.83078e-06
0.000142979
-1.78173e-06
0.000143089
-1.73661e-06
0.000143193
-1.69533e-06
0.000143293
-1.65775e-06
0.000143389
-1.62373e-06
0.000143481
-1.59318e-06
-1.56578e-06
0.000143572
0.000140374
-3.43079e-07
0.000140541
-9.90128e-07
0.000140797
-1.55159e-06
0.000141119
-2.01491e-06
0.000141487
-2.38326e-06
0.000141884
-2.66375e-06
0.000142295
-2.86567e-06
0.000142709
-3e-06
0.000143118
-3.07785e-06
0.000143514
-3.10951e-06
0.000143895
-3.10429e-06
0.000144256
-3.07041e-06
0.000144596
-3.01491e-06
0.000144915
-2.94374e-06
0.000145212
-2.8618e-06
0.000145487
-2.77309e-06
0.000145742
-2.68082e-06
0.000145977
-2.5875e-06
0.000146194
-2.49508e-06
0.000146394
-2.40502e-06
0.000146578
-2.3184e-06
0.000146748
-2.23596e-06
0.000146904
-2.1582e-06
0.000147049
-2.08543e-06
0.000147183
-2.01778e-06
0.000147307
-1.9553e-06
0.000147424
-1.89792e-06
0.000147533
-1.84552e-06
0.000147635
-1.79794e-06
0.000147732
-1.75498e-06
0.000147825
-1.71642e-06
0.000147914
-1.68206e-06
-1.65147e-06
0.000148
0.000144391
-4.09132e-07
0.000144583
-1.18198e-06
0.000144875
-1.84402e-06
0.000145242
-2.38184e-06
0.000145661
-2.80204e-06
0.000146111
-3.11435e-06
0.000146577
-3.33106e-06
0.000147043
-3.46678e-06
0.000147501
-3.53592e-06
0.000147944
-3.55159e-06
0.000148365
-3.52544e-06
0.000148762
-3.46756e-06
0.000149133
-3.38644e-06
0.000149479
-3.2891e-06
0.000149798
-3.18124e-06
0.000150093
-3.06743e-06
0.000150363
-2.95124e-06
0.000150611
-2.83544e-06
0.000150838
-2.72209e-06
0.000151046
-2.61274e-06
0.000151236
-2.50844e-06
0.00015141
-2.40993e-06
0.000151569
-2.31764e-06
0.000151715
-2.23181e-06
0.00015185
-2.1525e-06
0.000151975
-2.07968e-06
0.00015209
-2.0132e-06
0.000152197
-1.95287e-06
0.000152298
-1.89846e-06
0.000152392
-1.8497e-06
0.000152482
-1.8063e-06
0.000152568
-1.76803e-06
-1.73435e-06
0.000152651
0.000148541
-5.02198e-07
0.000148795
-1.43564e-06
0.000149167
-2.21614e-06
0.000149617
-2.83232e-06
0.000150116
-3.30081e-06
0.00015064
-3.63787e-06
0.00015117
-3.86138e-06
0.000151694
-3.9909e-06
0.000152203
-4.04445e-06
0.000152689
-4.03792e-06
0.000153149
-3.98525e-06
0.000153579
-3.89829e-06
0.00015398
-3.7869e-06
0.00015435
-3.65913e-06
0.00015469
-3.52145e-06
0.000155002
-3.37897e-06
0.000155286
-3.23562e-06
0.000155545
-3.0944e-06
0.00015578
-2.9575e-06
0.000155994
-2.8265e-06
0.000156188
-2.70245e-06
0.000156364
-2.58603e-06
0.000156524
-2.47759e-06
0.00015667
-2.37728e-06
0.000156802
-2.28505e-06
0.000156923
-2.20076e-06
0.000157034
-2.12418e-06
0.000157136
-2.055e-06
0.000157231
-1.9929e-06
0.000157319
-1.93751e-06
0.000157401
-1.88844e-06
0.000157478
-1.84532e-06
-1.80747e-06
0.000157551
0.000152785
-5.9767e-07
0.000153074
-1.72541e-06
0.000153508
-2.64965e-06
0.000154041
-3.36587e-06
0.000154638
-3.89732e-06
0.000155264
-4.26424e-06
0.000155895
-4.49205e-06
0.000156512
-4.60809e-06
0.000157104
-4.6361e-06
0.000157662
-4.59632e-06
0.000158183
-4.50601e-06
0.000158664
-4.37946e-06
0.000159105
-4.22824e-06
0.000159508
-4.06158e-06
0.000159873
-3.88674e-06
0.000160204
-3.70931e-06
0.000160501
-3.5335e-06
0.000160769
-3.36242e-06
0.00016101
-3.19826e-06
0.000161226
-3.04254e-06
0.00016142
-2.89619e-06
0.000161594
-2.75974e-06
0.00016175
-2.63339e-06
0.000161889
-2.51712e-06
0.000162015
-2.41073e-06
0.000162128
-2.31391e-06
0.00016223
-2.22631e-06
0.000162323
-2.14751e-06
0.000162407
-2.07709e-06
0.000162484
-2.01462e-06
0.000162555
-1.95965e-06
0.000162622
-1.9118e-06
-1.87022e-06
0.000162685
0.000157246
-7.92347e-07
0.000157697
-2.17623e-06
0.00015829
-3.24231e-06
0.000158957
-4.03358e-06
0.000159664
-4.60436e-06
0.000160382
-4.98227e-06
0.00016109
-5.20014e-06
0.000161774
-5.29151e-06
0.000162422
-5.28429e-06
0.000163028
-5.20241e-06
0.000163588
-5.06627e-06
0.000164102
-4.89259e-06
0.000164568
-4.6947e-06
0.00016499
-4.48312e-06
0.000165369
-4.26591e-06
0.000165709
-4.04916e-06
0.000166012
-3.83729e-06
0.000166283
-3.63347e-06
0.000166525
-3.43981e-06
0.00016674
-3.25768e-06
0.000166932
-3.08779e-06
0.000167102
-2.93044e-06
0.000167255
-2.78561e-06
0.000167391
-2.65301e-06
0.000167512
-2.53225e-06
0.000167621
-2.42281e-06
0.000167719
-2.32414e-06
0.000167807
-2.2357e-06
0.000167887
-2.15696e-06
0.00016796
-2.0874e-06
0.000168027
-2.02656e-06
0.000168089
-1.97398e-06
-1.92877e-06
0.000168147
0.000161692
-9.4629e-07
0.000162216
-2.69959e-06
0.000162957
-3.98332e-06
0.000163822
-4.89906e-06
0.000164736
-5.51793e-06
0.000165641
-5.88769e-06
0.00016651
-6.06848e-06
0.000167328
-6.10989e-06
0.000168091
-6.04761e-06
0.000168799
-5.91022e-06
0.000169453
-5.7206e-06
0.000170057
-5.49644e-06
0.000170614
-5.25139e-06
0.000171127
-4.99594e-06
0.000171599
-4.73801e-06
0.000172033
-4.48352e-06
0.000172433
-4.23674e-06
0.0001728
-4.00069e-06
0.000173137
-3.7774e-06
0.000173448
-3.56809e-06
0.000173733
-3.37338e-06
0.000173996
-3.19343e-06
0.000174239
-3.02807e-06
0.000174463
-2.8769e-06
0.00017467
-2.73934e-06
0.000174862
-2.61475e-06
0.00017504
-2.50247e-06
0.000175206
-2.40184e-06
0.000175362
-2.31232e-06
0.000175508
-2.23341e-06
0.000175646
-2.16496e-06
0.000175779
-2.10654e-06
-2.05829e-06
0.000175908
0.00016669
-1.48266e-06
0.000167549
-3.55866e-06
0.000168494
-4.92837e-06
0.000169517
-5.92157e-06
0.000170618
-6.61895e-06
0.000171777
-7.04686e-06
0.000172975
-7.2664e-06
0.000174189
-7.32393e-06
0.000175395
-7.25369e-06
0.000176572
-7.08696e-06
0.000177702
-6.85073e-06
0.000178772
-6.56714e-06
0.000179775
-6.25418e-06
0.000180705
-5.92607e-06
0.000181561
-5.59383e-06