/*--------------------------------*- C++ -*----------------------------------*\
  =========                 |
  \\      /  F ield         | OpenFOAM: The Open Source CFD Toolbox
   \\    /   O peration     | Website:  https://openfoam.org
    \\  /    A nd           | Version:  10
     \\/     M anipulation  |
\*---------------------------------------------------------------------------*/
FoamFile
{
    format      ascii;
    class       volVectorField;
    location    "0.05";
    object      U;
}
// * * * * * * * * * * * * * * * * * * * * * * * * * * * * * * * * * * * * * //

dimensions      [0 1 -1 0 0 0 0];

internalField   nonuniform List<vector> 
6820
(
(5.57352 0.459169 0)
(3.8828 0.245949 0)
(2.58872 0.00884074 0)
(1.95643 -0.0641304 0)
(1.73067 -0.0594231 0)
(1.61903 -0.0339546 0)
(1.5535 -0.0153028 0)
(1.50694 -0.00524438 0)
(1.46768 -0.000662531 0)
(1.43359 0.000831971 0)
(1.40412 0.000878991 0)
(1.37881 0.000363519 0)
(1.35717 -0.000305195 0)
(1.33869 -0.000946409 0)
(1.32291 -0.00149144 0)
(1.30944 -0.00192601 0)
(1.29793 -0.00225971 0)
(1.28815 -0.00251007 0)
(1.2799 -0.00269527 0)
(1.27301 -0.00283141 0)
(1.26739 -0.0029318 0)
(1.26294 -0.0030065 0)
(1.2596 -0.00306255 0)
(1.25732 -0.0031011 0)
(1.25607 -0.00312149 0)
(1.25588 -0.00312042 0)
(1.25658 -0.00322475 0)
(1.25831 -0.00323427 0)
(1.26034 -0.00326309 0)
(1.26413 -0.00259255 0)
(1.26329 -0.00264245 0)
(1.27276 0.00660591 0)
(1.22847 -0.0164604 0)
(7.66981 0.863963 0)
(7.71711 0.890946 0)
(6.99954 0.598633 0)
(6.19643 0.347756 0)
(5.58239 0.179871 0)
(5.13692 0.0934251 0)
(4.81903 0.053124 0)
(4.58927 0.0347079 0)
(4.41664 0.026308 0)
(4.28188 0.0220636 0)
(4.17327 0.0195023 0)
(4.08351 0.0176829 0)
(4.0079 0.0162291 0)
(3.94331 0.014974 0)
(3.88758 0.013832 0)
(3.83911 0.0127572 0)
(3.79674 0.0117247 0)
(3.75957 0.0107191 0)
(3.72692 0.00972959 0)
(3.69824 0.00874772 0)
(3.67311 0.00776596 0)
(3.65118 0.00677774 0)
(3.63218 0.00577682 0)
(3.6159 0.00476021 0)
(3.60217 0.00372372 0)
(3.59081 0.00267877 0)
(3.58171 0.00159692 0)
(3.57477 0.000629614 0)
(3.56976 -0.000327494 0)
(3.5667 -0.000350211 0)
(3.5647 -0.000838031 0)
(3.56574 0.00554847 0)
(3.56808 0.00694959 0)
(7.56353 0.520387 0)
(8.22516 0.663794 0)
(8.46466 0.576571 0)
(8.36348 0.459172 0)
(8.12724 0.345236 0)
(7.84983 0.260493 0)
(7.57902 0.200967 0)
(7.33465 0.15827 0)
(7.12003 0.127241 0)
(6.9332 0.104189 0)
(6.77093 0.08662 0)
(6.62982 0.0729497 0)
(6.50677 0.0621328 0)
(6.39914 0.053452 0)
(6.30468 0.0463835 0)
(6.22151 0.0405343 0)
(6.14809 0.035609 0)
(6.08311 0.0313854 0)
(6.02549 0.0276946 0)
(5.97434 0.0244064 0)
(5.92893 0.0214191 0)
(5.88863 0.0186517 0)
(5.85296 0.0160392 0)
(5.82149 0.0135304 0)
(5.79386 0.0110833 0)
(5.76981 0.00868315 0)
(5.74908 0.00634176 0)
(5.73151 0.00410842 0)
(5.71683 0.00201981 0)
(5.70509 0.000582701 0)
(5.69582 -0.000463764 0)
(5.69009 0.00199815 0)
(5.68813 0.00323792 0)
(7.43336 0.341162 0)
(7.88463 0.514722 0)
(8.2433 0.490037 0)
(8.44183 0.430477 0)
(8.54141 0.359536 0)
(8.57128 0.299262 0)
(8.55598 0.253483 0)
(8.51506 0.218318 0)
(8.45954 0.190751 0)
(8.39584 0.168516 0)
(8.32814 0.150019 0)
(8.25916 0.134294 0)
(8.19071 0.120706 0)
(8.12412 0.108817 0)
(8.06022 0.0983279 0)
(7.9995 0.0890142 0)
(7.94223 0.0806866 0)
(7.88852 0.0731845 0)
(7.8384 0.0663698 0)
(7.79183 0.060123 0)
(7.74873 0.0543405 0)
(7.709 0.0489317 0)
(7.67253 0.0438176 0)
(7.6392 0.038931 0)
(7.60891 0.0342154 0)
(7.58156 0.0296363 0)
(7.55707 0.0251692 0)
(7.53539 0.0208493 0)
(7.51646 0.0167001 0)
(7.50046 0.0130559 0)
(7.48748 0.0098458 0)
(7.47863 0.00861366 0)
(7.47556 0.00764011 0)
(7.39682 0.251117 0)
(7.67992 0.421318 0)
(7.92325 0.40447 0)
(8.07713 0.354757 0)
(8.18754 0.300345 0)
(8.26977 0.255027 0)
(8.33058 0.221476 0)
(8.3773 0.196012 0)
(8.41389 0.175882 0)
(8.44238 0.159427 0)
(8.46433 0.145543 0)
(8.48094 0.133552 0)
(8.49316 0.123034 0)
(8.50156 0.113683 0)
(8.50675 0.105269 0)
(8.50933 0.0976107 0)
(8.50981 0.0905682 0)
(8.50862 0.0840267 0)
(8.50616 0.0778906 0)
(8.50274 0.0720786 0)
(8.49865 0.0665194 0)
(8.49411 0.0611499 0)
(8.48934 0.0559135 0)
(8.48451 0.0507604 0)
(8.47979 0.0456473 0)
(8.47532 0.0405435 0)
(8.47124 0.0354292 0)
(8.46773 0.0303172 0)
(8.46497 0.0252121 0)
(8.46335 0.0202551 0)
(8.46321 0.0153396 0)
(8.46585 0.0109488 0)
(8.47214 0.00553598 0)
(7.37402 0.180782 0)
(7.57407 0.336425 0)
(7.76069 0.342861 0)
(7.87505 0.313948 0)
(7.95113 0.275072 0)
(8.00637 0.23724 0)
(8.04769 0.206249 0)
(8.08176 0.181561 0)
(8.11203 0.161697 0)
(8.13965 0.145508 0)
(8.16518 0.13203 0)
(8.18893 0.120553 0)
(8.21109 0.110615 0)
(8.2319 0.101893 0)
(8.25145 0.0941231 0)
(8.26983 0.0871037 0)
(8.28709 0.0806807 0)
(8.3033 0.0747319 0)
(8.31853 0.0691566 0)
(8.33284 0.0638696 0)
(8.3463 0.058797 0)
(8.35897 0.0538732 0)
(8.37091 0.0490391 0)
(8.38218 0.0442417 0)
(8.39286 0.0394329 0)
(8.403 0.0345728 0)
(8.4127 0.0296237 0)
(8.42207 0.0245623 0)
(8.43128 0.019339 0)
(8.44064 0.0139516 0)
(8.45043 0.00817466 0)
(8.46168 0.0019537 0)
(8.47455 -0.00607435 0)
(7.35905 0.13287 0)
(7.50325 0.2735 0)
(7.65553 0.295613 0)
(7.75539 0.279167 0)
(7.82131 0.249939 0)
(7.86803 0.218404 0)
(7.90118 0.191113 0)
(7.9265 0.168805 0)
(7.9477 0.150495 0)
(7.9664 0.135304 0)
(7.98345 0.122493 0)
(7.99941 0.111487 0)
(8.01454 0.10188 0)
(8.02902 0.0933797 0)
(8.04294 0.0857682 0)
(8.05638 0.0788781 0)
(8.06938 0.0725735 0)
(8.08196 0.0667403 0)
(8.09415 0.0612814 0)
(8.10596 0.0561127 0)
(8.1174 0.0511601 0)
(8.12848 0.0463575 0)
(8.13921 0.0416446 0)
(8.1496 0.036966 0)
(8.15968 0.032269 0)
(8.16947 0.0275038 0)
(8.17901 0.0226164 0)
(8.18839 0.0175515 0)
(8.19769 0.0122146 0)
(8.20714 0.00650225 0)
(8.21694 0.000101072 0)
(8.22766 -0.00730446 0)
(8.23937 -0.0169318 0)
(7.34964 0.0991799 0)
(7.45337 0.220924 0)
(7.57631 0.25105 0)
(7.66486 0.244666 0)
(7.72645 0.225364 0)
(7.7719 0.201597 0)
(7.80503 0.179153 0)
(7.83012 0.159665 0)
(7.85057 0.142926 0)
(7.86806 0.128566 0)
(7.88354 0.11619 0)
(7.89765 0.105413 0)
(7.91075 0.0959297 0)
(7.92309 0.0875035 0)
(7.93482 0.0799448 0)
(7.94605 0.0730944 0)
(7.95685 0.0668193 0)
(7.96727 0.0610083 0)
(7.97737 0.0555663 0)
(7.98716 0.050411 0)
(7.99667 0.0454698 0)
(8.00593 0.0406767 0)
(8.01494 0.0359709 0)
(8.02373 0.0312945 0)
(8.03233 0.02659 0)
(8.04074 0.0217987 0)
(8.04902 0.0168522 0)
(8.05723 0.01167 0)
(8.06543 0.00612647 0)
(8.07376 5.67348e-05 0)
(8.08233 -0.00687358 0)
(8.09134 -0.0150923 0)
(8.10068 -0.0254915 0)
(7.34381 0.0752294 0)
(7.41914 0.178991 0)
(7.51784 0.213652 0)
(7.59504 0.214884 0)
(7.65133 0.202703 0)
(7.6945 0.184453 0)
(7.72728 0.165525 0)
(7.75276 0.14826 0)
(7.77373 0.133013 0)
(7.79173 0.119689 0)
(7.80764 0.108062 0)
(7.82204 0.0978486 0)
(7.83532 0.0887983 0)
(7.84774 0.0807072 0)
(7.85947 0.0734065 0)
(7.87061 0.0667551 0)
(7.88127 0.0606355 0)
(7.89151 0.0549477 0)
(7.90137 0.049605 0)
(7.91088 0.0445306 0)
(7.92009 0.0396556 0)
(7.92901 0.0349161 0)
(7.93767 0.0302521 0)
(7.94608 0.0256051 0)
(7.95426 0.0209152 0)
(7.96224 0.0161182 0)
(7.97004 0.0111377 0)
(7.97769 0.00587962 0)
(7.98525 0.000207117 0)
(7.99276 -0.00606259 0)
(8.00022 -0.0132322 0)
(8.00762 -0.0216986 0)
(8.01473 -0.0320572 0)
(7.34016 0.0579907 0)
(7.39547 0.145334 0)
(7.4745 0.181094 0)
(7.54124 0.18731 0)
(7.59227 0.180482 0)
(7.63284 0.167096 0)
(7.66478 0.151809 0)
(7.69017 0.13708 0)
(7.71128 0.123578 0)
(7.72947 0.111424 0)
(7.74557 0.100575 0)
(7.76013 0.0908862 0)
(7.77355 0.0821963 0)
(7.78608 0.0743581 0)
(7.79789 0.0672414 0)
(7.8091 0.06073 0)
(7.8198 0.0547213 0)
(7.83005 0.0491245 0)
(7.8399 0.0438588 0)
(7.84939 0.0388512 0)
(7.85854 0.0340353 0)
(7.86738 0.0293492 0)
(7.87592 0.0247339 0)
(7.88419 0.0201307 0)
(7.89219 0.0154791 0)
(7.89993 0.0107128 0)
(7.90744 0.00575327 0)
(7.91471 0.000503787 0)
(7.92176 -0.00516685 0)
(7.92856 -0.0114294 0)
(7.93505 -0.0185313 0)
(7.94108 -0.0267917 0)
(7.94638 -0.036568 0)
(7.33788 0.0453431 0)
(7.37899 0.118265 0)
(7.44231 0.153094 0)
(7.49973 0.162681 0)
(7.54578 0.159969 0)
(7.5836 0.150508 0)
(7.61433 0.138229 0)
(7.63935 0.125585 0)
(7.66041 0.113517 0)
(7.6787 0.102359 0)
(7.69494 0.0922139 0)
(7.70966 0.0830421 0)
(7.72322 0.0747459 0)
(7.73586 0.0672168 0)
(7.74776 0.0603484 0)
(7.75902 0.0540405 0)
(7.76976 0.0482014 0)
(7.78001 0.0427486 0)
(7.78985 0.0376076 0)
(7.7993 0.0327103 0)
(7.80839 0.0279942 0)
(7.81714 0.0234002 0)
(7.82557 0.0188717 0)
(7.83369 0.014352 0)
(7.8415 0.00978232 0)
(7.84902 0.00509841 0)
(7.85623 0.000225762 0)
(7.86313 -0.00492507 0)
(7.86968 -0.0104678 0)
(7.87583 -0.0165442 0)
(7.88146 -0.0233355 0)
(7.88636 -0.0310618 0)
(7.89026 -0.0398978 0)
(7.33642 0.0358817 0)
(7.36741 0.0964342 0)
(7.41827 0.129001 0)
(7.46746 0.140465 0)
(7.50879 0.140618 0)
(7.54384 0.134185 0)
(7.57322 0.124481 0)
(7.59775 0.113804 0)
(7.6187 0.103214 0)
(7.63706 0.0931538 0)
(7.65344 0.0838172 0)
(7.66832 0.0752445 0)
(7.68202 0.0673972 0)
(7.69479 0.060209 0)
(7.70679 0.0536043 0)
(7.71814 0.0475053 0)
(7.72893 0.0418365 0)
(7.73922 0.0365272 0)
(7.74907 0.0315109 0)
(7.7585 0.026726 0)
(7.76755 0.0221145 0)
(7.77623 0.0176212 0)
(7.78457 0.0131929 0)
(7.79256 0.00877639 0)
(7.80021 0.00431696 0)
(7.80751 -0.000244208 0)
(7.81445 -0.00497306 0)
(7.821 -0.00994537 0)
(7.82711 -0.0152509 0)
(7.83269 -0.0209936 0)
(7.83762 -0.0272895 0)
(7.84165 -0.0342661 0)
(7.84456 -0.0419713 0)
(7.33548 0.0286531 0)
(7.3592 0.0787154 0)
(7.40021 0.108265 0)
(7.44227 0.120515 0)
(7.47924 0.122633 0)
(7.51158 0.11854 0)
(7.53949 0.110983 0)
(7.56335 0.102009 0)
(7.58405 0.0927121 0)
(7.60238 0.0836183 0)
(7.61885 0.0749986 0)
(7.63386 0.0669641 0)
(7.64772 0.0595306 0)
(7.66063 0.052669 0)
(7.67277 0.0463293 0)
(7.68423 0.0404514 0)
(7.69511 0.0349725 0)
(7.70547 0.0298303 0)
(7.71535 0.0249652 0)
(7.7248 0.0203206 0)
(7.73384 0.0158429 0)
(7.74248 0.0114811 0)
(7.75075 0.00718601 0)
(7.75863 0.00290915 0)
(7.76614 -0.00139842 0)
(7.77326 -0.00578746 0)
(7.77997 -0.0103121 0)
(7.78622 -0.015031 0)
(7.79196 -0.0200071 0)
(7.79709 -0.0253061 0)
(7.80148 -0.030987 0)
(7.80491 -0.0371008 0)
(7.8072 -0.0436121 0)
(7.33486 0.0230113 0)
(7.3533 0.0642243 0)
(7.38658 0.0903965 0)
(7.42253 0.102595 0)
(7.45552 0.105899 0)
(7.48526 0.103487 0)
(7.51163 0.0976204 0)
(7.53471 0.0900869 0)
(7.55507 0.081953 0)
(7.5733 0.0737836 0)
(7.58982 0.0658914 0)
(7.60494 0.0584312 0)
(7.61894 0.0514561 0)
(7.632 0.0449654 0)
(7.64427 0.0389309 0)
(7.65585 0.0333094 0)
(7.66683 0.0280506 0)
(7.67726 0.0231024 0)
(7.6872 0.018413 0)
(7.69667 0.0139321 0)
(7.70571 0.00961193 0)
(7.71432 0.00540649 0)
(7.72253 0.00127186 0)
(7.73033 -0.00283449 0)
(7.73772 -0.00695418 0)
(7.74469 -0.0111284 0)
(7.7512 -0.0153981 0)
(7.75721 -0.0198037 0)
(7.76266 -0.0243825 0)
(7.76746 -0.0291655 0)
(7.77149 -0.0341666 0)
(7.77457 -0.0393798 0)
(7.77656 -0.0447211 0)
(7.33443 0.0185148 0)
(7.349 0.0522585 0)
(7.37623 0.0749482 0)
(7.40701 0.0864854 0)
(7.43643 0.090365 0)
(7.46372 0.0891026 0)
(7.48855 0.0845436 0)
(7.51078 0.0782071 0)
(7.53072 0.071083 0)
(7.54878 0.0637386 0)
(7.56528 0.0565082 0)
(7.58047 0.0495768 0)
(7.59458 0.0430286 0)
(7.60777 0.0368883 0)
(7.62017 0.0311474 0)
(7.63187 0.0257779 0)
(7.64295 0.0207412 0)
(7.65347 0.0159937 0)
(7.66346 0.0114905 0)
(7.67298 0.00718727 0)
(7.68203 0.00304099 0)
(7.69063 -0.000989166 0)
(7.6988 -0.00494176 0)
(7.70654 -0.00885304 0)
(7.71384 -0.0127569 0)
(7.72069 -0.0166846 0)
(7.72705 -0.0206643 0)
(7.73289 -0.024719 0)
(7.73815 -0.0288639 0)
(7.74274 -0.0331021 0)
(7.74658 -0.0374144 0)
(7.74952 -0.0417569 0)
(7.75148 -0.0460219 0)
(7.33414 0.0148575 0)
(7.34584 0.0422673 0)
(7.36834 0.0615267 0)
(7.39479 0.0719727 0)
(7.42104 0.0759379 0)
(7.44608 0.0753668 0)
(7.46942 0.0717484 0)
(7.49075 0.066353 0)
(7.51021 0.0600719 0)
(7.52805 0.0534525 0)
(7.54449 0.0468334 0)
(7.55972 0.0404145 0)
(7.57392 0.0342988 0)
(7.58723 0.0285282 0)
(7.59975 0.0231081 0)
(7.61157 0.0180219 0)
(7.62275 0.0132401 0)
(7.63336 0.00872698 0)
(7.64342 0.00444378 0)
(7.65298 0.000351667 0)
(7.66205 -0.00358705 0)
(7.67065 -0.007408 0)
(7.6788 -0.0111441 0)
(7.68649 -0.0148251 0)
(7.69373 -0.0184772 0)
(7.70049 -0.0221221 0)
(7.70675 -0.025776 0)
(7.71248 -0.0294473 0)
(7.71763 -0.0331332 0)
(7.72213 -0.0368164 0)
(7.72592 -0.0404563 0)
(7.72889 -0.043987 0)
(7.73101 -0.0472946 0)
(7.33392 0.011824 0)
(7.34349 0.0338194 0)
(7.36228 0.0497861 0)
(7.38516 0.0588483 0)
(7.40864 0.0625154 0)
(7.43165 0.0622578 0)
(7.45356 0.0592638 0)
(7.47401 0.05458 0)
(7.49296 0.0489857 0)
(7.51054 0.0429886 0)
(7.52689 0.036915 0)
(7.54213 0.0309674 0)
(7.5564 0.0252586 0)
(7.56981 0.019842 0)
(7.58244 0.0147337 0)
(7.59437 0.00992662 0)
(7.60565 0.00539922 0)
(7.61634 0.00112229 0)
(7.62648 -0.00293701 0)
(7.63609 -0.0068124 0)
(7.64519 -0.0105367 0)
(7.65381 -0.0141405 0)
(7.66195 -0.0176514 0)
(7.66962 -0.0210933 0)
(7.67682 -0.0244852 0)
(7.68353 -0.0278405 0)
(7.68974 -0.0311654 0)
(7.69543 -0.0344568 0)
(7.70055 -0.0376994 0)
(7.70506 -0.0408624 0)
(7.70892 -0.0438935 0)
(7.71206 -0.0467173 0)
(7.71448 -0.0492252 0)
(7.33376 0.00925949 0)
(7.34172 0.0265766 0)
(7.35762 0.0394265 0)
(7.37756 0.0469148 0)
(7.39867 0.0499858 0)
(7.41986 0.0497284 0)
(7.44048 0.0470792 0)
(7.46007 0.042889 0)
(7.47851 0.0378236 0)
(7.49581 0.0323401 0)
(7.51204 0.0267431 0)
(7.52727 0.0212283 0)
(7.5416 0.0159109 0)
(7.55509 0.0108497 0)
(7.56783 0.00606713 0)
(7.57987 0.00156167 0)
(7.59125 -0.00268274 0)
(7.60203 -0.0066906 0)
(7.61224 -0.0104905 0)
(7.6219 -0.014112 0)
(7.63105 -0.0175839 0)
(7.63969 -0.0209327 0)
(7.64784 -0.0241814 0)
(7.6555 -0.0273485 0)
(7.66269 -0.0304472 0)
(7.66939 -0.0334842 0)
(7.67559 -0.0364582 0)
(7.68128 -0.039358 0)
(7.68643 -0.0421603 0)
(7.69103 -0.0448273 0)
(7.69505 -0.0473029 0)
(7.69845 -0.0495114 0)
(7.70126 -0.051356 0)
(7.33365 0.00705022 0)
(7.34038 0.0202718 0)
(7.35404 0.0301886 0)
(7.37159 0.0359847 0)
(7.39069 0.0382297 0)
(7.41029 0.0377152 0)
(7.42975 0.0351701 0)
(7.44856 0.031277 0)
(7.4665 0.0265929 0)
(7.48353 0.0215173 0)
(7.49964 0.0163241 0)
(7.51486 0.0111942 0)
(7.52923 0.00623736 0)
(7.54281 0.00151233 0)
(7.55565 -0.00295657 0)
(7.56779 -0.00716768 0)
(7.57928 -0.0111337 0)
(7.59015 -0.0148757 0)
(7.60043 -0.0184187 0)
(7.61016 -0.0217891 0)
(7.61936 -0.0250121 0)
(7.62803 -0.0281105 0)
(7.63621 -0.0311031 0)
(7.64389 -0.0340044 0)
(7.65109 -0.0368229 0)
(7.65781 -0.03956 0)
(7.66404 -0.0422095 0)
(7.66979 -0.0447555 0)
(7.67503 -0.0471706 0)
(7.67977 -0.0494153 0)
(7.68401 -0.0514349 0)
(7.68773 -0.0531593 0)
(7.69097 -0.0545068 0)
(7.33356 0.00511039 0)
(7.33937 0.0146925 0)
(7.35128 0.0218476 0)
(7.36692 0.0258817 0)
(7.38434 0.0271245 0)
(7.40261 0.0261426 0)
(7.42104 0.0234964 0)
(7.43915 0.0197262 0)
(7.45665 0.0152888 0)
(7.47343 0.0105237 0)
(7.48943 0.00566966 0)
(7.50463 0.000886937 0)
(7.51904 -0.0037251 0)
(7.53271 -0.00811247 0)
(7.54564 -0.0122526 0)
(7.55789 -0.016144 0)
(7.56948 -0.0197985 0)
(7.58044 -0.023236 0)
(7.59081 -0.02648 0)
(7.6006 -0.0295549 0)
(7.60985 -0.0324838 0)
(7.61857 -0.0352871 0)
(7.62678 -0.0379811 0)
(7.63449 -0.0405774 0)
(7.64173 -0.0430812 0)
(7.64848 -0.0454914 0)
(7.65477 -0.0477987 0)
(7.6606 -0.0499856 0)
(7.66596 -0.0520243 0)
(7.67088 -0.053877 0)
(7.67537 -0.0554946 0)
(7.67943 -0.0568165 0)
(7.68312 -0.0577769 0)
(7.33349 0.00337338 0)
(7.33861 0.00966634 0)
(7.34918 0.0142078 0)
(7.36331 0.0164383 0)
(7.37938 0.0165416 0)
(7.39653 0.014918 0)
(7.41412 0.0119928 0)
(7.43163 0.00818688 0)
(7.44876 0.00386583 0)
(7.46533 -0.000690866 0)
(7.48125 -0.00528338 0)
(7.49645 -0.00977662 0)
(7.51093 -0.0140867 0)
(7.52469 -0.0181687 0)
(7.53774 -0.0220052 0)
(7.55011 -0.0255976 0)
(7.56181 -0.028959 0)
(7.57287 -0.0321092 0)
(7.58333 -0.0350714 0)
(7.5932 -0.0378688 0)
(7.60251 -0.0405234 0)
(7.61129 -0.0430537 0)
(7.61955 -0.0454743 0)
(7.62731 -0.0477949 0)
(7.6346 -0.050019 0)
(7.64141 -0.0521439 0)
(7.64778 -0.0541599 0)
(7.65371 -0.0560494 0)
(7.65923 -0.0577871 0)
(7.66435 -0.0593394 0)
(7.66909 -0.0606644 0)
(7.67349 -0.0617127 0)
(7.6776 -0.0624334 0)
(7.33344 0.00178575 0)
(7.33804 0.00505076 0)
(7.3476 0.0070966 0)
(7.36058 0.00749692 0)
(7.37558 0.00635297 0)
(7.39185 0.00394708 0)
(7.40876 0.000598139 0)
(7.42581 -0.00337124 0)
(7.44264 -0.00767587 0)
(7.45907 -0.0120939 0)
(7.47494 -0.0164661 0)
(7.49017 -0.0206853 0)
(7.50473 -0.0246872 0)
(7.51859 -0.0284403 0)
(7.53176 -0.0319359 0)
(7.54424 -0.0351816 0)
(7.55605 -0.0381944 0)
(7.56722 -0.040997 0)
(7.57776 -0.0436141 0)
(7.58771 -0.0460698 0)
(7.59709 -0.0483863 0)
(7.60593 -0.0505821 0)
(7.61424 -0.0526716 0)
(7.62205 -0.0546639 0)
(7.62939 -0.0565625 0)
(7.63627 -0.0583648 0)
(7.64272 -0.0600622 0)
(7.64877 -0.0616393 0)
(7.65443 -0.0630746 0)
(7.65974 -0.0643402 0)
(7.66474 -0.0654029 0)
(7.66945 -0.0662251 0)
(7.67395 -0.066769 0)
(7.33341 0.000302876 0)
(7.33763 0.000723716 0)
(7.34647 0.000356864 0)
(7.35859 -0.00109916 0)
(7.37281 -0.00358417 0)
(7.38843 -0.00689895 0)
(7.40485 -0.0108088 0)
(7.42157 -0.0150738 0)
(7.43823 -0.019481 0)
(7.4546 -0.0238641 0)
(7.47049 -0.0281048 0)
(7.48581 -0.0321265 0)
(7.5005 -0.0358868 0)
(7.5145 -0.0393695 0)
(7.52782 -0.0425771 0)
(7.54044 -0.0455247 0)
(7.55239 -0.048235 0)
(7.56368 -0.0507342 0)
(7.57434 -0.0530497 0)
(7.58438 -0.0552073 0)
(7.59384 -0.0572302 0)
(7.60274 -0.0591377 0)
(7.61111 -0.0609447 0)
(7.61899 -0.0626608 0)
(7.62639 -0.0642904 0)
(7.63335 -0.0658325 0)
(7.63989 -0.0672805 0)
(7.64605 -0.0686222 0)
(7.65185 -0.0698409 0)
(7.65734 -0.0709153 0)
(7.66256 -0.0718204 0)
(7.66754 -0.0725289 0)
(7.67235 -0.0730144 0)
(7.33338 -0.00111372 0)
(7.33735 -0.00342213 0)
(7.3457 -0.00615486 0)
(7.35724 -0.00949593 0)
(7.37093 -0.0133971 0)
(7.38613 -0.0177132 0)
(7.40225 -0.0222729 0)
(7.41879 -0.0269042 0)
(7.43539 -0.0314572 0)
(7.45178 -0.0358185 0)
(7.46776 -0.0399123 0)
(7.48321 -0.0436957 0)
(7.49804 -0.0471525 0)
(7.51221 -0.0502867 0)
(7.52568 -0.0531162 0)
(7.53846 -0.0556678 0)
(7.55055 -0.057973 0)
(7.56196 -0.0600647 0)
(7.57272 -0.0619749 0)
(7.58285 -0.0637331 0)
(7.59239 -0.0653653 0)
(7.60135 -0.0668928 0)
(7.60978 -0.068332 0)
(7.61771 -0.0696944 0)
(7.62517 -0.070986 0)
(7.63219 -0.0722082 0)
(7.63881 -0.073357 0)
(7.64506 -0.0744246 0)
(7.65098 -0.075399 0)
(7.65662 -0.0762654 0)
(7.66202 -0.0770067 0)
(7.66722 -0.0776059 0)
(7.67229 -0.0780448 0)
(7.33337 -0.00250003 0)
(7.33719 -0.00748893 0)
(7.34526 -0.0125851 0)
(7.35649 -0.0178642 0)
(7.36992 -0.0232755 0)
(7.38494 -0.0287123 0)
(7.40098 -0.0340558 0)
(7.41755 -0.039193 0)
(7.43425 -0.0440314 0)
(7.4508 -0.048507 0)
(7.46698 -0.0525843 0)
(7.48266 -0.0562531 0)
(7.49773 -0.0595227 0)
(7.51213 -0.0624174 0)
(7.52583 -0.0649706 0)
(7.5388 -0.0672213 0)
(7.55106 -0.0692106 0)
(7.56262 -0.0709786 0)
(7.57351 -0.0725632 0)
(7.58374 -0.0739986 0)
(7.59336 -0.0753143 0)
(7.6024 -0.0765346 0)
(7.61089 -0.0776788 0)
(7.61887 -0.0787609 0)
(7.62638 -0.0797897 0)
(7.63345 -0.0807694 0)
(7.64013 -0.0816998 0)
(7.64645 -0.0825771 0)
(7.65247 -0.0833944 0)
(7.65821 -0.0841427 0)
(7.66373 -0.0848117 0)
(7.66908 -0.0853918 0)
(7.67431 -0.0858712 0)
(7.33336 -0.00389083 0)
(7.33714 -0.011573 0)
(7.34512 -0.0190647 0)
(7.35628 -0.0263325 0)
(7.36968 -0.0333063 0)
(7.38474 -0.0398994 0)
(7.4009 -0.0460319 0)
(7.41764 -0.0516431 0)
(7.43457 -0.0566964 0)
(7.45138 -0.0611802 0)
(7.46785 -0.0651061 0)
(7.48382 -0.0685035 0)
(7.49917 -0.0714147 0)
(7.51383 -0.0738904 0)
(7.52776 -0.0759853 0)
(7.54095 -0.0777546 0)
(7.55339 -0.079252 0)
(7.56511 -0.0805274 0)
(7.57613 -0.081626 0)
(7.58647 -0.0825873 0)
(7.59617 -0.0834453 0)
(7.60527 -0.0842278 0)
(7.61381 -0.0849569 0)
(7.62183 -0.0856493 0)
(7.62937 -0.0863164 0)
(7.63647 -0.0869654 0)
(7.64319 -0.0875994 0)
(7.64955 -0.0882184 0)
(7.65561 -0.0888199 0)
(7.66142 -0.0894 0)
(7.66702 -0.0899541 0)
(7.67246 -0.0904797 0)
(7.6778 -0.090969 0)
(7.33337 -0.00532303 0)
(7.3372 -0.0157865 0)
(7.34531 -0.0257784 0)
(7.35667 -0.0351657 0)
(7.37036 -0.0438625 0)
(7.38577 -0.051802 0)
(7.40235 -0.0589395 0)
(7.41954 -0.065259 0)
(7.43695 -0.0707706 0)
(7.45423 -0.0755064 0)
(7.47117 -0.0795169 0)
(7.48756 -0.0828658 0)
(7.50331 -0.0856249 0)
(7.51832 -0.0878699 0)
(7.53257 -0.0896762 0)
(7.54602 -0.0911167 0)
(7.55869 -0.0922591 0)
(7.57058 -0.0931652 0)
(7.58174 -0.0938896 0)
(7.59218 -0.0944798 0)
(7.60196 -0.0949758 0)
(7.61112 -0.0954107 0)
(7.61969 -0.0958111 0)
(7.62773 -0.0961974 0)
(7.63528 -0.0965849 0)
(7.64239 -0.0969841 0)
(7.6491 -0.0974017 0)
(7.65546 -0.0978414 0)
(7.66152 -0.0983044 0)
(7.66733 -0.098791 0)
(7.67293 -0.0993003 0)
(7.67836 -0.0998338 0)
(7.68368 -0.100386 0)
(7.33338 -0.00683494 0)
(7.33737 -0.0202251 0)
(7.34579 -0.0328241 0)
(7.35758 -0.044377 0)
(7.37176 -0.0547649 0)
(7.38773 -0.0639324 0)
(7.4049 -0.0718744 0)
(7.4227 -0.0786341 0)
(7.44071 -0.0842879 0)
(7.45858 -0.0889314 0)
(7.47607 -0.0926713 0)
(7.49299 -0.095619 0)
(7.50921 -0.0978854 0)
(7.52464 -0.0995772 0)
(7.53925 -0.100794 0)
(7.55302 -0.101627 0)
(7.56594 -0.102159 0)
(7.57805 -0.102462 0)
(7.58936 -0.102598 0)
(7.59993 -0.102622 0)
(7.6098 -0.102578 0)
(7.61901 -0.102503 0)
(7.62761 -0.102427 0)
(7.63565 -0.102373 0)
(7.6432 -0.102359 0)
(7.65028 -0.102398 0)
(7.65696 -0.1025 0)
(7.66329 -0.102671 0)
(7.66931 -0.102914 0)
(7.67507 -0.103235 0)
(7.68063 -0.103634 0)
(7.68602 -0.104117 0)
(7.6913 -0.10468 0)
(7.33341 -0.00848037 0)
(7.3377 -0.0250792 0)
(7.34674 -0.0405876 0)
(7.35937 -0.0546524 0)
(7.37452 -0.0671421 0)
(7.39153 -0.0780099 0)
(7.40975 -0.0872686 0)
(7.42857 -0.0949918 0)
(7.44753 -0.101295 0)
(7.46627 -0.106315 0)
(7.48454 -0.110204 0)
(7.50214 -0.113114 0)
(7.51895 -0.115197 0)
(7.53488 -0.116593 0)
(7.5499 -0.117434 0)
(7.564 -0.117836 0)
(7.57719 -0.117903 0)
(7.5895 -0.117725 0)
(7.60096 -0.117378 0)
(7.61163 -0.116926 0)
(7.62155 -0.116424 0)
(7.63078 -0.115914 0)
(7.63937 -0.115431 0)
(7.64738 -0.115003 0)
(7.65486 -0.11465 0)
(7.66187 -0.11439 0)
(7.66846 -0.114232 0)
(7.67468 -0.114187 0)
(7.68059 -0.11426 0)
(7.68623 -0.114456 0)
(7.69164 -0.114778 0)
(7.69687 -0.115233 0)
(7.70195 -0.115814 0)
(7.33344 -0.0103043 0)
(7.3381 -0.0303898 0)
(7.34792 -0.0488929 0)
(7.36155 -0.065302 0)
(7.37781 -0.0794784 0)
(7.39599 -0.0914347 0)
(7.41541 -0.101275 0)
(7.43541 -0.109179 0)
(7.4555 -0.115359 0)
(7.47532 -0.120033 0)
(7.49456 -0.123415 0)
(7.51303 -0.12571 0)
(7.53061 -0.127106 0)
(7.5472 -0.127773 0)
(7.56277 -0.127864 0)
(7.57733 -0.127513 0)
(7.59088 -0.126835 0)
(7.60346 -0.125929 0)
(7.61513 -0.12488 0)
(7.62594 -0.123759 0)
(7.63594 -0.122622 0)
(7.6452 -0.121518 0)
(7.65379 -0.120484 0)
(7.66176 -0.119551 0)
(7.66917 -0.118741 0)
(7.67609 -0.118074 0)
(7.68256 -0.117561 0)
(7.68865 -0.117214 0)
(7.69441 -0.11704 0)
(7.69989 -0.117046 0)
(7.70514 -0.117235 0)
(7.71019 -0.117614 0)
(7.71511 -0.118176 0)
(7.33352 -0.0124273 0)
(7.33893 -0.0367106 0)
(7.35021 -0.0590794 0)
(7.36571 -0.0789034 0)
(7.38397 -0.0960046 0)
(7.40415 -0.110346 0)
(7.42544 -0.122007 0)
(7.44715 -0.131191 0)
(7.46875 -0.138165 0)
(7.48986 -0.143218 0)
(7.51022 -0.146642 0)
(7.52963 -0.148716 0)
(7.54798 -0.149694 0)
(7.56521 -0.149807 0)
(7.5813 -0.149253 0)
(7.59626 -0.148204 0)
(7.61011 -0.146807 0)
(7.62291 -0.145182 0)
(7.63472 -0.143431 0)
(7.6456 -0.141634 0)
(7.65562 -0.139858 0)
(7.66485 -0.138156 0)
(7.67336 -0.13657 0)
(7.68121 -0.13513 0)
(7.68848 -0.133862 0)
(7.69522 -0.132785 0)
(7.7015 -0.131911 0)
(7.70737 -0.131253 0)
(7.71289 -0.130815 0)
(7.7181 -0.130604 0)
(7.72305 -0.130622 0)
(7.72779 -0.130875 0)
(7.73235 -0.13135 0)
(7.33356 -0.0148573 0)
(7.33955 -0.0435417 0)
(7.35215 -0.0692164 0)
(7.36937 -0.0911588 0)
(7.38957 -0.10943 0)
(7.41186 -0.124255 0)
(7.43534 -0.13593 0)
(7.45918 -0.144819 0)
(7.48279 -0.151296 0)
(7.50575 -0.155717 0)
(7.52774 -0.158415 0)
(7.54856 -0.159696 0)
(7.56812 -0.159837 0)
(7.58634 -0.159083 0)
(7.60323 -0.157649 0)
(7.61882 -0.155719 0)
(7.63315 -0.15345 0)
(7.64631 -0.150975 0)
(7.65836 -0.148404 0)
(7.66939 -0.145825 0)
(7.67948 -0.143311 0)
(7.68871 -0.14092 0)
(7.69717 -0.138697 0)
(7.70492 -0.136678 0)
(7.71205 -0.134888 0)
(7.71862 -0.133349 0)
(7.72469 -0.132075 0)
(7.73034 -0.131077 0)
(7.73561 -0.130361 0)
(7.74056 -0.129933 0)
(7.74524 -0.129795 0)
(7.74969 -0.12995 0)
(7.75398 -0.130383 0)
(7.33381 -0.0180454 0)
(7.34179 -0.0533615 0)
(7.35776 -0.0853742 0)
(7.37872 -0.112968 0)
(7.40248 -0.135908 0)
(7.42795 -0.154214 0)
(7.45418 -0.16819 0)
(7.48038 -0.178358 0)
(7.50599 -0.185289 0)
(7.53064 -0.189534 0)
(7.55406 -0.191607 0)
(7.57609 -0.191963 0)
(7.59664 -0.190995 0)
(7.61567 -0.189036 0)
(7.63322 -0.186364 0)
(7.64931 -0.183206 0)
(7.66401 -0.179747 0)
(7.67742 -0.176138 0)
(7.68961 -0.172497 0)
(7.70069 -0.168919 0)
(7.71074 -0.165477 0)
(7.71986 -0.162229 0)
(7.72815 -0.159217 0)
(7.73567 -0.156473 0)
(7.74253 -0.154022 0)
(7.74878 -0.151881 0)
(7.75449 -0.150062 0)
(7.75975 -0.148575 0)
(7.76459 -0.147423 0)
(7.76908 -0.14661 0)
(7.77327 -0.146134 0)
(7.7772 -0.145998 0)
(7.78091 -0.146178 0)
(7.3337 -0.0214963 0)
(7.34212 -0.0617824 0)
(7.36004 -0.0959179 0)
(7.38401 -0.123858 0)
(7.41152 -0.146509 0)
(7.4412 -0.164372 0)
(7.47168 -0.177912 0)
(7.50184 -0.187679 0)
(7.531 -0.194201 0)
(7.5587 -0.197974 0)
(7.58466 -0.199474 0)
(7.60875 -0.199141 0)
(7.63091 -0.197373 0)
(7.65117 -0.194519 0)
(7.66959 -0.190882 0)
(7.68628 -0.186719 0)
(7.70134 -0.182241 0)
(7.71491 -0.177624 0)
(7.7271 -0.173006 0)
(7.73805 -0.168499 0)
(7.74786 -0.164186 0)
(7.75666 -0.160134 0)
(7.76456 -0.15639 0)
(7.77164 -0.15299 0)
(7.778 -0.149958 0)
(7.78372 -0.14731 0)
(7.78887 -0.145059 0)
(7.79353 -0.143212 0)
(7.79776 -0.141772 0)
(7.80162 -0.140741 0)
(7.80517 -0.140116 0)
(7.80846 -0.139897 0)
(7.81157 -0.140052 0)
(7.33482 -0.027877 0)
(7.34955 -0.0825329 0)
(7.37526 -0.129922 0)
(7.40567 -0.168174 0)
(7.43801 -0.197622 0)
(7.47151 -0.219053 0)
(7.50505 -0.233706 0)
(7.53771 -0.242905 0)
(7.5689 -0.247786 0)
(7.59826 -0.249308 0)
(7.62554 -0.248272 0)
(7.65062 -0.245331 0)
(7.67349 -0.241011 0)
(7.69421 -0.235731 0)
(7.71288 -0.229827 0)
(7.72964 -0.223565 0)
(7.74464 -0.217154 0)
(7.75803 -0.210759 0)
(7.76997 -0.204507 0)
(7.7806 -0.198495 0)
(7.79007 -0.192796 0)
(7.7985 -0.187463 0)
(7.80602 -0.182534 0)
(7.81272 -0.178035 0)
(7.81872 -0.173982 0)
(7.82408 -0.170388 0)
(7.82889 -0.167259 0)
(7.83322 -0.164599 0)
(7.83713 -0.162411 0)
(7.84068 -0.160695 0)
(7.84393 -0.159452 0)
(7.84693 -0.158682 0)
(7.84974 -0.158346 0)
(7.3338 -0.031678 0)
(7.34768 -0.0860998 0)
(7.37785 -0.128855 0)
(7.41589 -0.164045 0)
(7.45691 -0.19293 0)
(7.49865 -0.215178 0)
(7.53922 -0.231225 0)
(7.57763 -0.241832 0)
(7.61357 -0.247743 0)
(7.64697 -0.249752 0)
(7.67788 -0.248662 0)
(7.70641 -0.245206 0)
(7.73273 -0.240025 0)
(7.75698 -0.23366 0)
(7.77931 -0.226552 0)
(7.79986 -0.219054 0)
(7.81876 -0.211438 0)
(7.83614 -0.203913 0)
(7.85212 -0.196633 0)
(7.86681 -0.189711 0)
(7.88031 -0.183224 0)
(7.89275 -0.177225 0)
(7.9042 -0.171745 0)
(7.91477 -0.166804 0)
(7.92453 -0.162408 0)
(7.93358 -0.158559 0)
(7.94197 -0.155255 0)
(7.94977 -0.152494 0)
(7.95706 -0.150277 0)
(7.96388 -0.148605 0)
(7.97032 -0.147489 0)
(7.97645 -0.146939 0)
(7.98237 -0.14693 0)
(7.33892 -0.0542213 0)
(7.37191 -0.15107 0)
(7.41461 -0.219921 0)
(7.4581 -0.266442 0)
(7.50448 -0.296804 0)
(7.55463 -0.314969 0)
(7.607 -0.324635 0)
(7.66046 -0.328491 0)
(7.71412 -0.32824 0)
(7.76695 -0.325045 0)
(7.81804 -0.319727 0)
(7.86674 -0.312871 0)
(7.91259 -0.304918 0)
(7.9553 -0.296217 0)
(7.99473 -0.287053 0)
(8.03088 -0.277663 0)
(8.06382 -0.268246 0)
(8.0937 -0.258968 0)
(8.1207 -0.249963 0)
(8.14505 -0.241337 0)
(8.16696 -0.233172 0)
(8.18665 -0.225527 0)
(8.20434 -0.218443 0)
(8.22022 -0.211946 0)
(8.23449 -0.206049 0)
(8.2473 -0.20076 0)
(8.2588 -0.196082 0)
(8.26912 -0.192017 0)
(8.27837 -0.188576 0)
(8.28664 -0.18577 0)
(8.29405 -0.183659 0)
(8.30066 -0.182251 0)
(8.30665 -0.181717 0)
(7.33755 -0.0402739 0)
(7.38846 -0.105332 0)
(7.47756 -0.162748 0)
(7.57896 -0.218099 0)
(7.68654 -0.265116 0)
(7.79516 -0.301454 0)
(7.89885 -0.327769 0)
(7.99414 -0.344766 0)
(8.07908 -0.35354 0)
(8.15263 -0.355573 0)
(8.21461 -0.352341 0)
(8.26547 -0.345173 0)
(8.30598 -0.335217 0)
(8.33716 -0.32342 0)
(8.3601 -0.31054 0)
(8.3759 -0.297166 0)
(8.38562 -0.283746 0)
(8.3902 -0.27061 0)
(8.3905 -0.257995 0)
(8.38726 -0.24606 0)
(8.38112 -0.23491 0)
(8.37262 -0.224601 0)
(8.3622 -0.215157 0)
(8.35025 -0.206577 0)
(8.33706 -0.198842 0)
(8.32288 -0.19192 0)
(8.30789 -0.185773 0)
(8.29221 -0.180362 0)
(8.27596 -0.175661 0)
(8.25914 -0.171653 0)
(8.24186 -0.168434 0)
(8.22383 -0.165969 0)
(8.20569 -0.165194 0)
(7.39943 -0.196693 0)
(7.59545 -0.37584 0)
(7.76797 -0.458559 0)
(7.8949 -0.51219 0)
(7.97827 -0.540587 0)
(8.01623 -0.549604 0)
(8.01305 -0.545884 0)
(7.97712 -0.532797 0)
(7.91614 -0.512862 0)
(7.83671 -0.488355 0)
(7.74461 -0.461082 0)
(7.64457 -0.432444 0)
(7.5403 -0.403528 0)
(7.43461 -0.375144 0)
(7.32958 -0.347867 0)
(7.22669 -0.322078 0)
(7.12694 -0.298009 0)
(7.03096 -0.275774 0)
(6.93912 -0.255404 0)
(6.85158 -0.236869 0)
(6.76834 -0.220099 0)
(6.6893 -0.204997 0)
(6.61431 -0.191451 0)
(6.54316 -0.179339 0)
(6.47561 -0.168533 0)
(6.4114 -0.158908 0)
(6.35029 -0.150329 0)
(6.29199 -0.142668 0)
(6.23622 -0.135771 0)
(6.18256 -0.129501 0)
(6.13068 -0.12376 0)
(6.07951 -0.117786 0)
(6.02948 -0.114848 0)
(7.16015 -0.185842 0)
(6.91109 -0.345072 0)
(6.5002 -0.392341 0)
(6.03691 -0.393774 0)
(5.5973 -0.365638 0)
(5.18164 -0.321761 0)
(4.79399 -0.273059 0)
(4.44112 -0.225153 0)
(4.12357 -0.181026 0)
(3.83965 -0.142157 0)
(3.58732 -0.108939 0)
(3.36398 -0.0811793 0)
(3.16679 -0.0583925 0)
(2.99291 -0.039955 0)
(2.83966 -0.0252133 0)
(2.70454 -0.0135504 0)
(2.58527 -0.00441586 0)
(2.47981 0.0026639 0)
(2.38635 0.00808603 0)
(2.30329 0.0121782 0)
(2.22923 0.0152077 0)
(2.16295 0.0173912 0)
(2.10339 0.0189046 0)
(2.04962 0.0198912 0)
(2.00086 0.0204732 0)
(1.95644 0.0207563 0)
(1.91577 0.0208569 0)
(1.87844 0.0208935 0)
(1.84394 0.0210805 0)
(1.81242 0.0217194 0)
(1.78301 0.0231108 0)
(1.75759 0.0278037 0)
(1.73435 0.0229128 0)
(1.35635 0.101116 0)
(1.87912 0.236026 0)
(2.37118 0.175726 0)