/*--------------------------------*- C++ -*----------------------------------*\
  =========                 |
  \\      /  F ield         | OpenFOAM: The Open Source CFD Toolbox
   \\    /   O peration     | Website:  https://openfoam.org
    \\  /    A nd           | Version:  10
     \\/     M anipulation  |
\*---------------------------------------------------------------------------*/
FoamFile
{
    format      ascii;
    class       volScalarField;
    location    "1500";
    object      k;
}
// * * * * * * * * * * * * * * * * * * * * * * * * * * * * * * * * * * * * * //

dimensions      [0 2 -2 0 0 0 0];

internalField   nonuniform List<scalar> 
6820
(
0.318932
0.614648
0.847397
0.983378
1.04836
1.06927
1.06475
1.0465
1.0217
0.994574
0.967461
0.941558
0.917416
0.895219
0.874955
0.856517
0.839755
0.824506
0.810614
0.79793
0.786324
0.775675
0.765881
0.756849
0.748498
0.740757
0.733561
0.726857
0.720574
0.714758
0.70883
0.705631
0.689452
0.838908
1.45739
1.5306
1.40689
1.25037
1.11087
0.996112
0.903238
0.827887
0.76631
0.715545
0.673419
0.638187
0.608546
0.583483
0.562195
0.54404
0.528502
0.515163
0.503679
0.49377
0.485202
0.477783
0.471349
0.465765
0.460917
0.456709
0.453065
0.449909
0.447214
0.444874
0.443107
0.441312
0.379893
0.662258
0.793337
0.827974
0.818185
0.790402
0.756381
0.721169
0.686891
0.654427
0.624111
0.596043
0.570195
0.546474
0.524757
0.504903
0.48677
0.470214
0.455101
0.441303
0.428703
0.417192
0.406671
0.397051
0.388251
0.380195
0.372819
0.366063
0.359871
0.3542
0.349
0.344252
0.339899
0.246132
0.3393
0.411878
0.458884
0.485703
0.498879
0.503286
0.502157
0.497535
0.490704
0.482486
0.473435
0.46393
0.454239
0.444549
0.434992
0.425658
0.41661
0.407887
0.399514
0.391503
0.383859
0.376578
0.369655
0.363079
0.356841
0.350925
0.34532
0.34001
0.334984
0.330224
0.325723
0.321456
0.216724
0.25341
0.285799
0.312244
0.332455
0.347125
0.357301
0.364011
0.368096
0.370197
0.370789
0.37023
0.368792
0.366686
0.364075
0.361088
0.357829
0.354377
0.350797
0.347142
0.343452
0.339759
0.33609
0.332464
0.328897
0.325402
0.321986
0.318657
0.31542
0.312278
0.309233
0.306286
0.303438
0.206699
0.22375
0.239981
0.254416
0.266684
0.276738
0.284769
0.291069
0.295923
0.299585
0.302262
0.304127
0.305322
0.305962
0.306143
0.305944
0.305432
0.304663
0.303682
0.30253
0.30124
0.299841
0.298355
0.296804
0.295204
0.29357
0.291915
0.290248
0.288579
0.286916
0.285264
0.283629
0.282017
0.202776
0.211442
0.220463
0.228911
0.236465
0.243012
0.248579
0.253258
0.257157
0.260378
0.263011
0.265139
0.26683
0.268145
0.269136
0.269846
0.270314
0.270573
0.270652
0.270575
0.270366
0.270042
0.26962
0.269115
0.268539
0.267905
0.267221
0.266497
0.26574
0.264957
0.264154
0.263337
0.262511
0.201168
0.205683
0.210952
0.216189
0.221064
0.22544
0.229296
0.232659
0.235575
0.238089
0.240245
0.242083
0.243642
0.244952
0.246042
0.246939
0.247664
0.248237
0.248675
0.248995
0.249208
0.249329
0.249367
0.249332
0.249234
0.24908
0.248876
0.24863
0.248347
0.248032
0.247689
0.247324
0.24694
0.200484
0.202809
0.205913
0.20924
0.212483
0.215494
0.218222
0.220663
0.222834
0.224755
0.226448
0.227934
0.229235
0.230369
0.231352
0.232201
0.232928
0.233546
0.234066
0.234497
0.234849
0.23513
0.235347
0.235505
0.235612
0.235673
0.235692
0.235674
0.235623
0.235543
0.235437
0.235309
0.235161
0.200184
0.20134
0.203132
0.205234
0.207404
0.209501
0.211457
0.21325
0.214879
0.216348
0.217669
0.218852
0.219908
0.220849
0.221684
0.222423
0.223075
0.223648
0.224148
0.224583
0.224958
0.225279
0.225551
0.225778
0.225964
0.226113
0.226229
0.226315
0.226373
0.226407
0.226418
0.226411
0.226385
0.200051
0.200588
0.201579
0.202869
0.204298
0.205746
0.207146
0.208465
0.209689
0.210815
0.211845
0.212781
0.213631
0.214399
0.215093
0.215717
0.216278
0.21678
0.217229
0.217628
0.217983
0.218295
0.21857
0.21881
0.219018
0.219197
0.219349
0.219477
0.219583
0.219669
0.219737
0.219789
0.219826
0.199992
0.200208
0.200718
0.201471
0.202377
0.203351
0.204335
0.205293
0.206205
0.207061
0.207858
0.208595
0.209273
0.209895
0.210464
0.210983
0.211456
0.211885
0.212274
0.212626
0.212943
0.213229
0.213485
0.213714
0.213918
0.214099
0.214259
0.2144
0.214523
0.21463
0.214722
0.2148
0.214867
0.199966
0.200017
0.200248
0.200654
0.201196
0.201823
0.202489
0.203165
0.203829
0.204469
0.205076
0.205648
0.206182
0.206679
0.20714
0.207565
0.207957
0.208317
0.208647
0.208949
0.209225
0.209477
0.209706
0.209915
0.210103
0.210274
0.210428
0.210566
0.21069
0.210802
0.210901
0.21099
0.211068
0.199954
0.199924
0.199997
0.200187
0.200483
0.200858
0.201286
0.201741
0.202206
0.202669
0.203119
0.203552
0.203964
0.204353
0.204718
0.20506
0.205379
0.205675
0.20595
0.206204
0.206439
0.206655
0.206855
0.207038
0.207206
0.207359
0.2075
0.207629
0.207746
0.207853
0.207951
0.20804
0.208121
0.199949
0.199879
0.199866
0.199926
0.200061
0.200262
0.200513
0.200799
0.201107
0.201425
0.201744
0.20206
0.202367
0.202662
0.202944
0.203212
0.203464
0.203702
0.203925
0.204134
0.204329
0.20451
0.204678
0.204835
0.20498
0.205114
0.205239
0.205354
0.20546
0.205558
0.205649
0.205732
0.20581
0.199947
0.199858
0.199799
0.199785
0.19982
0.199903
0.200029
0.200189
0.200374
0.200577
0.200789
0.201006
0.201223
0.201437
0.201646
0.201847
0.202041
0.202225
0.202401
0.202566
0.202723
0.20287
0.203009
0.203138
0.20326
0.203373
0.20348
0.203579
0.203672
0.203758
0.203839
0.203914
0.203985
0.199947
0.199848
0.199766
0.19971
0.199685
0.199693
0.199734
0.199804
0.199898
0.20001
0.200137
0.200273
0.200415
0.20056
0.200704
0.200848
0.200988
0.201124
0.201256
0.201382
0.201503
0.201618
0.201727
0.201831
0.201929
0.202021
0.202109
0.202191
0.202269
0.202343
0.202412
0.202478
0.202539
0.199946
0.199843
0.19975
0.199672
0.199612
0.199575
0.19956
0.199568
0.199596
0.199642
0.199702
0.199774
0.199855
0.199941
0.200032
0.200125
0.200219
0.200312
0.200404
0.200494
0.200582
0.200667
0.200749
0.200827
0.200903
0.200975
0.201044
0.20111
0.201172
0.201232
0.201289
0.201344
0.201396
0.199946
0.199841
0.199743
0.199652
0.199574
0.199509
0.19946
0.199428
0.199411
0.199409
0.19942
0.199443
0.199475
0.199515
0.199562
0.199612
0.199666
0.199723
0.19978
0.199838
0.199896
0.199954
0.20001
0.200066
0.20012
0.200172
0.200223
0.200273
0.200321
0.200367
0.200412
0.200455
0.200497
0.199946
0.199841
0.199739
0.199643
0.199554
0.199474
0.199405
0.199347
0.199301
0.199266
0.199243
0.19923
0.199226
0.19923
0.199241
0.199257
0.199279
0.199304
0.199332
0.199363
0.199395
0.199428
0.199462
0.199497
0.199532
0.199567
0.199601
0.199635
0.199669
0.199703
0.199736
0.199768
0.1998
0.199946
0.19984
0.199737
0.199638
0.199544
0.199456
0.199375
0.199302
0.199237
0.199181
0.199135
0.199097
0.199067
0.199044
0.199029
0.199019
0.199015
0.199016
0.19902
0.199028
0.199039
0.199052
0.199067
0.199084
0.199102
0.199121
0.199141
0.199162
0.199183
0.199205
0.199227
0.19925
0.199272
0.199946
0.19984
0.199736
0.199636
0.199539
0.199446
0.199359
0.199277
0.199202
0.199133
0.199071
0.199017
0.19897
0.198929
0.198895
0.198866
0.198843
0.198825
0.198812
0.198802
0.198796
0.198793
0.198793
0.198796
0.1988
0.198807
0.198815
0.198825
0.198836
0.198848
0.198861
0.198875
0.19889
0.199946
0.19984
0.199736
0.199635
0.199536
0.199441
0.19935
0.199264
0.199182
0.199106
0.199036
0.198972
0.198914
0.198861
0.198815
0.198774
0.198739
0.198708
0.198682
0.198661
0.198643
0.198629
0.198618
0.19861
0.198605
0.198602
0.198602
0.198603
0.198607
0.198611
0.198618
0.198625
0.198634
0.199946
0.19984
0.199736
0.199634
0.199535
0.199439
0.199346
0.199257
0.199173
0.199093
0.199019
0.19895
0.198886
0.198828
0.198775
0.198728
0.198686
0.198648
0.198616
0.198587
0.198563
0.198543
0.198526
0.198512
0.198501
0.198493
0.198488
0.198484
0.198483
0.198483
0.198485
0.198489
0.198494
0.199946
0.19984
0.199735
0.199633
0.199534
0.199438
0.199345
0.199255
0.19917
0.19909
0.199015
0.198945
0.19888
0.198821
0.198767
0.198719
0.198676
0.198637
0.198603
0.198574
0.198549
0.198527
0.198509
0.198494
0.198482
0.198473
0.198466
0.198462
0.198459
0.198459
0.19846
0.198462
0.198466
0.199946
0.199839
0.199735
0.199633
0.199534
0.199438
0.199346
0.199258
0.199175
0.199097
0.199024
0.198958
0.198897
0.198842
0.198793
0.198749
0.19871
0.198676
0.198647
0.198622
0.198601
0.198584
0.19857
0.198559
0.198551
0.198545
0.198541
0.198539
0.19854
0.198541
0.198544
0.198549
0.198554
0.199946
0.19984
0.199735
0.199634
0.199536
0.199442
0.199352
0.199268
0.19919
0.199118
0.199053
0.198995
0.198944
0.198899
0.198861
0.198828
0.198801
0.198778
0.19876
0.198746
0.198735
0.198728
0.198724
0.198722
0.198722
0.198724
0.198728
0.198733
0.198739
0.198747
0.198755
0.198764
0.198774
0.199946
0.19984
0.199736
0.199636
0.199541
0.199451
0.199368
0.199292
0.199225
0.199167
0.199117
0.199075
0.199042
0.199016
0.198996
0.198983
0.198975
0.198971
0.198971
0.198975
0.198981
0.19899
0.199001
0.199013
0.199026
0.199041
0.199056
0.199072
0.199087
0.199104
0.19912
0.199136
0.199153
0.199946
0.199841
0.199739
0.199643
0.199554
0.199475
0.199405
0.199348
0.199302
0.199268
0.199245
0.199232
0.199229
0.199233
0.199243
0.19926
0.19928
0.199304
0.199331
0.19936
0.19939
0.199421
0.199452
0.199483
0.199514
0.199544
0.199574
0.199603
0.199631
0.199658
0.199684
0.19971
0.199734
0.199947
0.199843
0.199747
0.19966
0.199587
0.19953
0.199491
0.199468
0.199463
0.199472
0.199495
0.199529
0.199572
0.199622
0.199677
0.199736
0.199796
0.199858
0.199919
0.19998
0.20004
0.200098
0.200154
0.200208
0.200259
0.200308
0.200354
0.200398
0.20044
0.200478
0.200515
0.200549
0.200582
0.199948
0.19985
0.199767
0.199705
0.199669
0.199661
0.19968
0.199725
0.199791
0.199875
0.199971
0.200078
0.200189
0.200304
0.20042
0.200534
0.200645
0.200753
0.200857
0.200955
0.201049
0.201137
0.20122
0.201298
0.20137
0.201438
0.201501
0.201559
0.201612
0.201662
0.201708
0.20175
0.201788
0.199951
0.199869
0.199823
0.199821
0.199868
0.199962
0.200096
0.200262
0.200449
0.20065
0.200858
0.201067
0.201273
0.201472
0.201663
0.201844
0.202015
0.202175
0.202324
0.202462
0.202589
0.202707
0.202815
0.202914
0.203005
0.203088
0.203164
0.203232
0.203295
0.203351
0.203402
0.203447
0.203488
0.199959
0.199926
0.199977
0.200121
0.200351
0.200649
0.200993
0.201362
0.201739
0.202113
0.202473
0.202816
0.203137
0.203435
0.20371
0.203963
0.204193
0.204403
0.204593
0.204765
0.204921
0.205061
0.205187
0.205301
0.205402
0.205492
0.205573
0.205644
0.205707
0.205762
0.205811
0.205853
0.205889
0.199987
0.200103
0.200415
0.200903
0.201515
0.202193
0.20289
0.203572
0.204217
0.204816
0.205363
0.205858
0.206302
0.206698
0.207052
0.207365
0.207643
0.207888
0.208104
0.208295
0.208463
0.208609
0.208738
0.208849
0.208946
0.209029
0.2091
0.20916
0.20921
0.209252
0.209285
0.209311
0.20933
0.200091
0.200674
0.201674
0.202931
0.204281
0.205607
0.206838
0.207945
0.208922
0.209772
0.210508
0.211141
0.211683
0.212148
0.212546
0.212885
0.213174
0.213421
0.213629
0.213806
0.213954
0.214077
0.214179
0.214261
0.214327
0.214377
0.214415
0.21444
0.214455
0.21446
0.214457
0.214446
0.214429
0.200506
0.202612
0.20538
0.20823
0.210863
0.213156
0.215082
0.216669
0.217964
0.219015
0.219866
0.220552
0.221105
0.22155
0.221907
0.222191
0.222416
0.222592
0.222726
0.222824
0.222893
0.222937
0.222958
0.22296
0.222946
0.222917
0.222875
0.222821
0.222758
0.222686
0.222606
0.222518
0.222425
0.202133
0.209236
0.216717
0.222799
0.227378
0.23075
0.233208
0.234988
0.236273
0.237193
0.237847
0.238306
0.238619
0.238825
0.238946
0.239003
0.239008
0.238971
0.2389
0.238799
0.238674
0.238527
0.238362
0.238181
0.237986
0.237778
0.237559
0.237331
0.237094
0.23685
0.236599
0.236343
0.236082
0.208298
0.22678
0.244129
0.257372
0.266317
0.271773
0.274802
0.276303
0.276882
0.276921
0.276649
0.276201
0.275653
0.275051
0.274418
0.273765
0.273101
0.272428
0.271747
0.27106
0.270365
0.269665
0.268959
0.268248
0.267533
0.266815
0.266095
0.265374
0.264653
0.263933
0.263215
0.2625
0.261789
0.245775
0.310442
0.343758
0.358933
0.365582
0.368297
0.368993
0.368462
0.367138
0.3653
0.363136
0.360774
0.358305
0.355793
0.353284
0.350808
0.348388
0.346036
0.343763
0.341573
0.339469
0.337451
0.33552
0.333674
0.33191
0.330227
0.328621
0.32709
0.32563
0.32424
0.322916
0.321656
0.320455
0.214305
0.253643
0.294732
0.333812
0.370031
0.403432
0.434077
0.462012
0.487322
0.510132
0.530592
0.548864
0.565116
0.579516
0.592228
0.603409
0.613209
0.621766
0.629207
0.635651
0.641203
0.64596
0.650011
0.653433
0.656298
0.658668
0.660601
0.662147
0.66335
0.664251
0.664886
0.665285
0.665484
0.757201
0.860241
1.00693
1.1838
1.37326
1.56187
1.73759
1.88901
2.00923
2.09743
2.15703
2.19351
2.21278
2.22012
2.21967
2.21431
2.20589
2.19545
2.18364
2.17085
2.15734
2.14332
2.12896
2.11437
2.0996
2.08469
2.06956
2.05413
2.03826
2.02179
2.00454
1.98633
1.96698
1.94629
1.92406
1.90016
1.87447
1.84687
1.81732
1.78577
1.75222
1.7167
1.67927
1.64005
1.59918
1.55686
1.51333
1.46886
1.42374
1.37829
1.33287
1.28783
1.24353
1.20032
1.15854
1.11851
1.08051
1.04478
1.01153
0.980932
0.953089
0.92808
0.905937
0.886655
0.870194
0.856489
0.845446
0.836954
0.830886
0.827102
0.825453
0.825782
0.827926
0.831716
0.83698
0.843543
0.851224
0.859844
0.869223
0.87918
0.889539
0.900129
0.910783
0.921341
0.931656
0.94159
0.951016
0.959822
0.967905
0.975182
0.981572
0.987019
0.991463
0.99488
0.997216
0.998482
0.998659
0.997695
0.996144
0.992189
0.440068
0.44853
0.468445
0.501859
0.549985
0.614228
0.694681
0.78919
0.893698
1.00338
1.11294
1.21871
1.31759
1.40716
1.4856
1.55188
1.60589
1.64828
1.68041
1.70383
1.71999
1.73016
1.73547
1.73676
1.7347
1.72983
1.72253
1.7131
1.70174
1.68859
1.67374
1.65724
1.6391
1.61932
1.59788
1.57477
1.54997
1.52348
1.49533
1.46556
1.43424
1.40146
1.36733
1.33201
1.29566
1.2585
1.22076
1.18269
1.14456
1.10666
1.06927
1.03269
0.997175
0.963007
0.930423
0.899642
0.87085
0.8442
0.819812
0.797771
0.778129
0.760906
0.746095
0.733666
0.723564
0.71572
0.710051
0.706462
0.70485
0.705105
0.707113
0.710754
0.715906
0.722439
0.730222
0.73912
0.748989
0.759688
0.771068
0.782977
0.795268
0.807788
0.820388
0.832921
0.845251
0.857244
0.868776
0.879734
0.890014
0.899524
0.908181
0.915919
0.922671
0.928403
0.933056
0.93663
0.939099
0.940417
0.940989
0.940069
0.335273
0.330668
0.326879
0.324551
0.32468
0.328393
0.336908
0.351159
0.372061
0.400525
0.43704
0.481819
0.534679
0.594887
0.661019
0.730978
0.802147
0.871799
0.937696
0.997696
1.0507
1.0963
1.13459
1.16592
1.19081
1.20994
1.22393
1.23331
1.23857
1.24017
1.23848
1.23383
1.22647
1.21661
1.20445
1.19014
1.17382
1.15563
1.13571
1.1142
1.09124
1.067
1.04164
1.01535
0.988317
0.96076
0.932895
0.904949
0.877153
0.849737
0.822928
0.796942
0.771984
0.748239
0.725873
0.705028
0.685822
0.668348
0.652672
0.638838
0.626868
0.616765
0.608512
0.602079
0.597426
0.5945
0.593243
0.593591
0.595476
0.598823
0.603559
0.609605
0.616877
0.62529
0.634751
0.645164
0.656424
0.668427
0.681054
0.694186
0.707699
0.721467
0.735355
0.749236
0.762981
0.776465
0.789567
0.802174
0.81418
0.82549
0.836012
0.845675
0.854403
0.86215
0.86885
0.874492
0.879041
0.882457
0.884996
0.886918
0.316778
0.311651
0.306649
0.301815
0.29727
0.293172
0.289759
0.287327
0.286241
0.286764
0.289267
0.294226
0.302181
0.313686
0.329277
0.349333
0.374023
0.403127
0.436218
0.472369
0.510532
0.549411
0.587926
0.624801
0.659323
0.690685
0.718353
0.742229
0.76227
0.778598
0.791372
0.800772
0.807013
0.810316
0.810901
0.808985
0.804777
0.798476
0.790279
0.780378
0.768964
0.756227
0.74236
0.727557
0.712012
0.695923
0.679484
0.662891
0.646332
0.629992
0.614044
0.598651
0.583962
0.57011
0.557212
0.545368
0.534659
0.52515
0.516886
0.509902
0.504215
0.499833
0.496751
0.494956
0.494431
0.49515
0.497085
0.500205
0.504474
0.509855
0.516311
0.523797
0.532269
0.541675
0.551961
0.563064
0.574917
0.587446
0.600564
0.614181
0.628201
0.642517
0.657017
0.671591
0.68612
0.700489
0.714582
0.72829
0.741505
0.754129
0.766064
0.777231
0.787546
0.796952
0.805377
0.812795
0.819163
0.824439
0.828743
0.833256
0.300238
0.296661
0.293109
0.289569
0.286047
0.282565
0.279162
0.275892
0.272832
0.270067
0.267675
0.265753
0.264436
0.26389
0.264323
0.265963
0.269067
0.273858
0.280554
0.289278
0.300095
0.312911
0.327593
0.343795
0.361203
0.379329
0.397679
0.415717
0.43306
0.449295
0.464079
0.477228
0.488602
0.498132
0.505806
0.511657
0.515744
0.518155
0.518994
0.51838
0.516443
0.51332
0.509154
0.504094
0.498288
0.491889
0.485044
0.477902
0.470604
0.463288
0.456082
0.449108
0.442475
0.436283
0.430619
0.425562
0.421175
0.417512
0.414616
0.412522
0.411255
0.410832
0.411265
0.41256
0.414719
0.41774
0.42162
0.426352
0.431929
0.438339
0.445573
0.453615
0.462448
0.472049
0.482394
0.493448
0.505176
0.517527
0.530448
0.543876
0.557734
0.571941
0.586406
0.601038
0.615731
0.630381
0.644882
0.659128
0.673012
0.686435
0.699296
0.71151
0.722985
0.733653
0.743435
0.75229
0.760171
0.767025
0.772852
0.779646
0.280165
0.278049
0.275907
0.27373
0.271511
0.269252
0.266966
0.264664
0.262366
0.260094
0.257874
0.255732
0.253699
0.251815
0.250131
0.248706
0.247615
0.246941
0.246778
0.247216
0.248353
0.250266
0.253026
0.256664
0.261196
0.266587
0.272773
0.279616
0.286986
0.294698
0.302555
0.31036
0.317932
0.325114
0.331771
0.337796
0.343111
0.347666
0.351438
0.354428
0.356654
0.358155
0.358981
0.359195
0.358871
0.358088
0.356928
0.355478
0.353825
0.352054
0.35025
0.348492
0.346856
0.345411
0.344222
0.343345
0.342834
0.342731
0.343076
0.343903
0.345238
0.347107
0.349527
0.352516
0.356087
0.360253
0.365022
0.370403
0.376406
0.383035
0.390298
0.398197
0.406734
0.415907
0.425711
0.436137
0.447175
0.458788
0.470954
0.483632
0.496768
0.510304
0.524171
0.538294
0.552588
0.56696
0.581316
0.595556
0.60958
0.623289
0.636582
0.64937
0.661556
0.673063
0.683806
0.693728
0.702779
0.710894
0.717962
0.72668
0.261537
0.260396
0.259213
0.257983
0.2567
0.255363
0.253976
0.252543
0.251071
0.249567
0.248042
0.246507
0.244972
0.24345
0.241953
0.240499
0.239107
0.237803
0.236615
0.235577
0.234727
0.234104
0.233751
0.233705
0.234004
0.234677
0.235747
0.237218
0.239085
0.241324
0.243899
0.246754
0.249825
0.253043
0.256335
0.259628
0.262855
0.265956
0.268881
0.271592
0.27406
0.27627
0.278218
0.279909
0.28136
0.282592
0.283636
0.284527
0.285304
0.28601
0.286689
0.287383
0.288137
0.288994
0.289993
0.291173
0.292569
0.294213
0.296136
0.298363
0.300918
0.303823
0.307097
0.310758
0.314822
0.319305
0.324221
0.329585
0.335411
0.341713
0.348506
0.355803
0.363614
0.371953
0.380832
0.390249
0.400215
0.410711
0.421732
0.43326
0.445262
0.457702
0.470529
0.48369
0.497117
0.510735
0.524462
0.538211
0.551889
0.565403
0.578656
0.591556
0.604007
0.615923
0.627218
0.63782
0.647674
0.65671
0.664713
0.674956
0.24647
0.245901
0.245291
0.244639
0.243939
0.243189
0.24239
0.241543
0.240651
0.239719
0.238751
0.237752
0.236729
0.235687
0.234629
0.233563
0.232493
0.231427
0.230375
0.229348
0.228361
0.227429
0.22657
0.225804
0.225152
0.224634
0.22427
0.224078
0.224073
0.224264
0.224657
0.225251
0.226037
0.227002
0.228128
0.229391
0.230767
0.232228
0.233748
0.235301
0.236867
0.238427
0.239966
0.241478
0.242956
0.244404
0.245825
0.24723
0.248632
0.250048
0.251496
0.252997
0.254573
0.256245
0.258036
0.259967
0.262059
0.264333
0.266807
0.269499
0.272426
0.275602
0.279042
0.282761
0.286772
0.291089
0.295724
0.300694
0.306013
0.311695
0.317759
0.324219
0.331096
0.338406
0.346169
0.354392
0.363093
0.372275
0.381942
0.392091
0.402712
0.413784
0.425278
0.437158
0.449377
0.461876
0.474592
0.487451
0.500373
0.513273
0.526062
0.538651
0.550948
0.562863
0.57431
0.585206
0.595493
0.605097
0.613718
0.625056
0.234966
0.234714
0.234428
0.234108
0.233749
0.23335
0.232909
0.232427
0.231906
0.231346
0.230753
0.230128
0.229475
0.228798
0.228099
0.227379
0.226642
0.225889
0.225124
0.224352
0.223578
0.222808
0.22205
0.221313
0.220608
0.219944
0.219333
0.218789
0.218323
0.217945
0.217667
0.217497
0.217441
0.217504
0.217686
0.217987
0.218403
0.218929
0.219558
0.220282
0.221093
0.221983
0.222946
0.223975
0.225068
0.226222
0.227437
0.228715
0.230061
0.231481
0.232981
0.234572
0.236262
0.238063
0.239985
0.242039
0.244237
0.246589
0.249105
0.251795
0.25467
0.257737
0.261005
0.264485
0.268184
0.272113
0.276282
0.280702
0.285387
0.290348
0.295604
0.30117
0.307067
0.313312
0.319926
0.326925
0.33433
0.342155
0.350413
0.359112
0.368257
0.377842
0.387855
0.398279
0.409082
0.420228
0.431668
0.443346
0.455197
0.46715
0.479126
0.491045
0.502819
0.514363
0.525592
0.536419
0.546782
0.556606
0.565528
0.577525
0.226336
0.226255
0.226148
0.226015
0.225852
0.225657
0.225429
0.225168
0.224875
0.22455
0.224196
0.223815
0.22341
0.222983
0.222534
0.222067
0.22158
0.221076
0.220557
0.220024
0.219479
0.218925
0.218366
0.217806
0.21725
0.216704
0.216173
0.215665
0.215187
0.214748
0.214356
0.214018
0.213742
0.213536
0.213405
0.213355
0.213391
0.213515
0.213729
0.214036
0.214434
0.214925
0.215508
0.216183
0.21695
0.217809
0.218762
0.21981
0.220956
0.222202
0.223554
0.225014
0.226587
0.228279
0.230095
0.232039
0.234117
0.236334
0.238693
0.2412
0.243859
0.246673
0.249647
0.252785
0.256091
0.259573
0.263235
0.267086
0.271135
0.275393
0.279875
0.284594
0.289567
0.294813
0.300351
0.306202
0.312385
0.318922
0.325829
0.333125
0.340821
0.348925
0.357438
0.366357
0.375667
0.385348
0.395369
0.405691
0.416267
0.427039
0.437944
0.448912
0.459867
0.470729
0.481421
0.491853
0.501969
0.511687
0.520612
0.532838
0.219851
0.219862
0.219853
0.219823
0.219771
0.219694
0.219592
0.219464
0.21931
0.219131
0.218929
0.218705
0.218462
0.2182
0.217921
0.217626
0.217316
0.216991
0.216653
0.216302
0.21594
0.215568
0.215188
0.214802
0.214413
0.214023
0.213637
0.213257
0.21289
0.212541
0.212213
0.211915
0.211652
0.21143
0.211255
0.211135
0.211074
0.211078
0.211153
0.211302
0.211531
0.211843
0.212242
0.21273
0.213312
0.213988
0.214764
0.21564
0.216621
0.217708
0.218905
0.220215
0.221639
0.223181
0.224843
0.226626
0.228533
0.230565
0.232723
0.235007
0.237417
0.239955
0.242621
0.245415
0.248339
0.251394
0.254585
0.257915
0.261391
0.26502
0.268813
0.272782
0.27694
0.281304
0.285893
0.290724
0.29582
0.301201
0.306888
0.312901
0.319258
0.325976
0.333065
0.34053
0.348373
0.356586
0.365154
0.374054
0.383254
0.392715
0.402387
0.412214
0.422136
0.43208
0.441981
0.451751
0.461341
0.470667
0.479327
0.491386
0.21493
0.214988
0.215031
0.215058
0.215068
0.215059
0.215031
0.214982
0.214914
0.214826
0.214721
0.214598
0.21446
0.214307
0.214142
0.213964
0.213775
0.213575
0.213365
0.213146
0.212918
0.212683
0.212443
0.212197
0.211948
0.211697
0.211447
0.2112
0.21096
0.210729
0.210512
0.210312
0.210136
0.209986
0.20987
0.209791
0.209756
0.209771
0.20984
0.20997
0.210165
0.210431
0.210772
0.211194
0.211701
0.212296
0.212984
0.213768
0.214651
0.215638
0.216729
0.217928
0.219235
0.220654
0.222183
0.223825
0.225577
0.22744
0.229413
0.231493
0.233678
0.235967
0.238358
0.240848
0.243435
0.246121
0.248904
0.251786
0.254771
0.257865
0.261073
0.264405
0.267872
0.271488
0.275268
0.279229
0.283392
0.287775
0.292401
0.297291
0.302465
0.307943
0.313741
0.319873
0.326348
0.33317
0.340336
0.347836
0.355655
0.363765
0.372136
0.380723
0.389482
0.398352
0.407281
0.416189
0.425035
0.433737
0.441901
0.453447
0.211148
0.211228
0.211297
0.211354
0.211398
0.211427
0.211442
0.211441
0.211425
0.211395
0.21135
0.211293
0.211223
0.211143
0.211054
0.210955
0.210849
0.210735
0.210616
0.21049
0.21036
0.210226
0.210088
0.209949
0.209809
0.209669
0.209531
0.209396
0.209268
0.209148
0.209039
0.208944
0.208868
0.208813
0.208784
0.208785
0.208822
0.208899
0.209021
0.209194
0.209422
0.209711
0.210066
0.210491
0.210992
0.211573
0.212238
0.212992
0.213836
0.214775
0.215811
0.216945
0.21818
0.219515
0.220951
0.222486
0.22412
0.22585
0.227674
0.229587
0.231587
0.23367
0.235832
0.238069
0.240377
0.242754
0.245198
0.247709
0.250288
0.252937
0.255661
0.258465
0.26136
0.264355
0.267463
0.2707
0.274082
0.277628
0.281357
0.285291
0.28945
0.293855
0.298526
0.303479
0.30873
0.314289
0.320163
0.326353
0.332853
0.339651
0.346728
0.354056
0.361602
0.369321
0.377173
0.385088
0.393038
0.400943
0.408434
0.419185
0.208206
0.208294
0.208373
0.208444
0.208505
0.208555
0.208594
0.208621
0.208637
0.208642
0.208636
0.208621
0.208597
0.208565
0.208526
0.208482
0.208432
0.208379
0.208322
0.208263
0.208203
0.208141
0.20808
0.20802
0.207962
0.207906
0.207856
0.207811
0.207774
0.207746
0.207731
0.207729
0.207745
0.207782
0.207842
0.20793
0.208049
0.208204
0.208399
0.208638
0.208927
0.20927
0.209672
0.210137
0.21067
0.211276
0.211958
0.212719
0.213564
0.214494
0.215512
0.216619
0.217817
0.219104
0.220481
0.221946
0.223496
0.225128
0.226839
0.228625
0.23048
0.232399
0.234377
0.23641
0.238492
0.240619
0.242787
0.244996
0.247243
0.249529
0.251857
0.254231
0.256658
0.259145
0.261703
0.264345
0.267084
0.269939
0.272925
0.276062
0.27937
0.282869
0.28658
0.29052
0.294708
0.299158
0.303883
0.308891
0.314184
0.319761
0.325613
0.331725
0.338076
0.344634
0.351372
0.358233
0.365198
0.372196
0.378891
0.388638
0.205893
0.20598
0.206062
0.206137
0.206205
0.206264
0.206316
0.206359
0.206393
0.20642
0.206438
0.20645
0.206455
0.206455
0.206451
0.206443
0.206433
0.206422
0.206409
0.206397
0.206387
0.206378
0.206372
0.20637
0.206373
0.206382
0.206398
0.206423
0.206458
0.206505
0.206565
0.206642
0.206736
0.206852
0.206992
0.207159
0.207356
0.207588
0.207857
0.208168
0.208526
0.208933
0.209395
0.209915
0.210497
0.211146
0.211864
0.212656
0.213523
0.214468
0.215493
0.216598
0.217783
0.219049
0.220394
0.221815
0.223309
0.224874
0.226503
0.228192
0.229935
0.231727
0.233561
0.235431
0.237332
0.239257
0.241204
0.243167
0.245145
0.247138
0.249145
0.25117
0.253217
0.255291
0.257403
0.25956
0.261777
0.264066
0.266444
0.268926
0.271532
0.274279
0.277187
0.280275
0.283561
0.287062
0.290793
0.294766
0.298989
0.303468
0.308203
0.313186
0.31841
0.323852
0.329498
0.3353
0.341252
0.347293
0.353124
0.361732
0.204062
0.204144
0.204222
0.204295
0.204363
0.204426
0.204483
0.204533
0.204578
0.204616
0.204649
0.204677
0.204702
0.204723
0.204742
0.204759
0.204776
0.204793
0.204812
0.204834
0.204858
0.204887
0.204922
0.204963
0.205011
0.205068
0.205135
0.205213
0.205304
0.205409
0.20553
0.205669
0.205828
0.20601
0.206217
0.206452
0.206718
0.207018
0.207355
0.207733
0.208156
0.208627
0.209149
0.209727
0.210363
0.211062
0.211825
0.212656
0.213556
0.214528
0.215573
0.21669
0.217879
0.219139
0.220469
0.221865
0.223324
0.224841
0.226411
0.228028
0.229687
0.231379
0.233099
0.23484
0.236596
0.23836
0.240126
0.241892
0.243653
0.245407
0.247155
0.248897
0.250636
0.252377
0.254126
0.255892
0.257684
0.259515
0.261398
0.263347
0.265379
0.26751
0.269757
0.272139
0.274673
0.277376
0.280264
0.283352
0.28665
0.290169
0.293914
0.297886
0.302082
0.306491
0.311107
0.315895
0.320855
0.325938
0.330885
0.33829
0.202607
0.202681
0.202752
0.20282
0.202885
0.202946
0.203003
0.203055
0.203104
0.203149
0.20319
0.203228
0.203264
0.203298
0.203332
0.203366
0.203401
0.203438
0.203479
0.203524
0.203574
0.20363
0.203693
0.203766
0.203847
0.20394
0.204044
0.204163
0.204296
0.204446
0.204614
0.204802
0.205012
0.205247
0.205509
0.2058
0.206123
0.206481
0.206877
0.207314
0.207794
0.208322
0.208901
0.209532
0.21022
0.210967
0.211775
0.212646
0.213583
0.214585
0.215654
0.21679
0.21799
0.219254
0.220578
0.221961
0.223396
0.22488
0.226406
0.227968
0.22956
0.231174
0.232804
0.234441
0.236079
0.237711
0.239332
0.240937
0.242521
0.244082
0.245618
0.24713
0.24862
0.250091
0.251547
0.252996
0.254446
0.255906
0.257389
0.258906
0.260472
0.262101
0.263809
0.265612
0.267527
0.26957
0.271756
0.2741
0.276615
0.279313
0.282202
0.285288
0.288575
0.292057
0.295734
0.299583
0.303609
0.307773
0.31186
0.318059
0.201453
0.201517
0.201579
0.20164
0.201698
0.201754
0.201808
0.20186
0.201909
0.201955
0.202
0.202043
0.202086
0.202128
0.202171
0.202216
0.202263
0.202314
0.202369
0.20243
0.202497
0.202572
0.202656
0.202751
0.202857
0.202975
0.203108
0.203255
0.20342
0.203604
0.203808
0.204034
0.204284
0.20456
0.204865
0.205201
0.20557
0.205975
0.206418
0.206903
0.207433
0.208009
0.208635
0.209313
0.210045
0.210835
0.211683
0.212592
0.213562
0.214593
0.215686
0.21684
0.218053
0.219323
0.220646
0.222019
0.223438
0.224896
0.226387
0.227906
0.229443
0.230993
0.232548
0.234099
0.23564
0.237164
0.238665
0.240137
0.241575
0.242977
0.244341
0.245665
0.246952
0.248202
0.249421
0.250613
0.251786
0.252947
0.254107
0.255275
0.256465
0.257688
0.25896
0.260293
0.261703
0.263205
0.264812
0.266541
0.268403
0.270411
0.272575
0.274903
0.277403
0.280073
0.282918
0.285923
0.289097
0.292411
0.29569
0.300729
0.200544
0.200596
0.200649
0.2007
0.200751
0.200801
0.20085
0.200898
0.200945
0.20099
0.201036
0.201081
0.201126
0.201173
0.201221
0.201272
0.201327
0.201386
0.20145
0.201522
0.201601
0.201689
0.201787
0.201897
0.202019
0.202156
0.202308
0.202477
0.202665
0.202873
0.203103
0.203357
0.203636
0.203944
0.204281
0.204651
0.205055
0.205497
0.205978
0.206501
0.207068
0.207683
0.208347
0.209062
0.209831
0.210655
0.211537
0.212475
0.213472
0.214527
0.21564
0.216809
0.218031
0.219305
0.220627
0.221992
0.223395
0.22483
0.226291
0.22777
0.229261
0.230755
0.232246
0.233724
0.235182
0.236614
0.238013
0.239373
0.24069
0.241959
0.24318
0.244349
0.245469
0.246539
0.247564
0.248548
0.249496
0.250415
0.251314
0.252201
0.253087
0.253984
0.254903
0.255857
0.256858
0.257921
0.259058
0.260282
0.261606
0.263042
0.264601
0.266292
0.268123
0.270097
0.272222
0.274487
0.276905
0.279453
0.281996
0.285957
0.199836
0.199878
0.19992
0.199962
0.200005
0.200048
0.200091
0.200134
0.200177
0.20022
0.200263
0.200308
0.200354
0.200402
0.200453
0.200507
0.200565
0.200629
0.2007
0.200777
0.200864
0.20096
0.201067
0.201186
0.20132
0.201468
0.201633
0.201817
0.20202
0.202245
0.202492
0.202766
0.203066
0.203395
0.203756
0.20415
0.20458
0.205047
0.205555
0.206106
0.206702
0.207344
0.208036
0.208779
0.209575
0.210424
0.211329
0.212289
0.213305
0.214376
0.215501
0.216679
0.217905
0.219179
0.220494
0.221847
0.223233
0.224644
0.226074
0.227516
0.228963
0.230406
0.231837
0.233249
0.234634
0.235985
0.237295
0.238559
0.239771
0.240928
0.242028
0.243068
0.244048
0.24497
0.245835
0.246648
0.247413
0.248135
0.248823
0.249484
0.250126
0.25076
0.251396
0.252044
0.252717
0.253425
0.254181
0.254996
0.255882
0.25685
0.257911
0.259073
0.260346
0.261734