/*--------------------------------*- C++ -*----------------------------------*\
  =========                 |
  \\      /  F ield         | OpenFOAM: The Open Source CFD Toolbox
   \\    /   O peration     | Website:  https://openfoam.org
    \\  /    A nd           | Version:  10
     \\/     M anipulation  |
\*---------------------------------------------------------------------------*/
FoamFile
{
    format      ascii;
    class       volScalarField;
    location    "1500";
    object      nut;
}
// * * * * * * * * * * * * * * * * * * * * * * * * * * * * * * * * * * * * * //

dimensions      [0 2 -1 0 0 0 0];

internalField   nonuniform List<scalar> 
6820
(
5.21161e-05
7.23496e-05
8.49506e-05
9.15131e-05
9.44882e-05
9.5426e-05
9.52241e-05
9.44045e-05
9.32792e-05
9.20326e-05
9.07695e-05
8.95461e-05
8.83907e-05
8.73148e-05
8.6321e-05
8.54066e-05
8.45668e-05
8.37955e-05
8.30865e-05
8.2434e-05
8.18322e-05
8.12763e-05
8.07615e-05
8.02839e-05
7.98398e-05
7.94259e-05
7.90392e-05
7.86772e-05
7.83365e-05
7.802e-05
7.7696e-05
7.75268e-05
7.66217e-05
0.00148779
0.000914493
0.000722322
0.000566086
0.000444965
0.000364554
0.000311028
0.000273876
0.000246824
0.000226542
0.000210743
0.000198386
0.000188225
0.000179921
0.000173043
0.000167268
0.000162375
0.000158201
0.000154618
0.000151526
0.000148847
0.000146516
0.000144481
0.0001427
0.000141136
0.000139762
0.000138546
0.000137477
0.000136514
0.000135665
0.000134894
0.000134225
0.000133413
0.00388235
0.00172611
0.00129522
0.00105715
0.000883653
0.000756983
0.000663656
0.000593356
0.000538663
0.000495231
0.000459793
0.000430501
0.000405788
0.000384676
0.000366437
0.000350537
0.00033655
0.00032417
0.000313134
0.000303255
0.000294361
0.00028633
0.000279045
0.00027242
0.000266375
0.000260844
0.000255772
0.000251109
0.000246805
0.000242843
0.00023913
0.000235729
0.000232428
0.00701486
0.0030933
0.00211865
0.00169399
0.00142842
0.00124177
0.00110356
0.000997707
0.000914037
0.000846516
0.000790842
0.000744245
0.000704627
0.00067054
0.000640857
0.000614798
0.00059169
0.000571093
0.000552563
0.000535857
0.000520649
0.000506821
0.000494103
0.000482471
0.000471668
0.000461754
0.000452452
0.00044391
0.000435796
0.000428361
0.00042119
0.000414628
0.000408207
0.00947863
0.00539464
0.00361892
0.00279676
0.00231358
0.00199145
0.00176049
0.00158676
0.00145105
0.00134225
0.00125306
0.0011787
0.00111573
0.00106176
0.00101494
0.000973977
0.000937768
0.000905591
0.000876724
0.000850759
0.000827179
0.00080577
0.000786122
0.000768156
0.000751513
0.000736212
0.000721912
0.000708712
0.000696267
0.000684741
0.000673781
0.000663576
0.000653809
0.0106282
0.0077634
0.00561756
0.00439956
0.00363522
0.00311496
0.00273997
0.0024579
0.00223822
0.00206258
0.00191909
0.00179982
0.00169916
0.00161316
0.00153881
0.00147397
0.00141689
0.00136632
0.00132114
0.00128061
0.00124397
0.00121077
0.00118045
0.00115276
0.00112725
0.0011038
0.00108203
0.0010619
0.00104308
0.00102558
0.00100913
0.000993733
0.000979173
0.0110845
0.00948062
0.00757881
0.00621462
0.00525
0.00454844
0.00402207
0.00361581
0.00329415
0.00303404
0.00281986
0.00264081
0.0024891
0.00235911
0.00224655
0.00214826
0.00206171
0.001985
0.00191653
0.00185511
0.00179967
0.00174945
0.00170371
0.00166192
0.00162356
0.00158827
0.00155565
0.00152546
0.00149738
0.00147125
0.0014468
0.00142394
0.00140243
0.0112619
0.0104723
0.00911496
0.00788286
0.00688557
0.00609514
0.00546645
0.00496065
0.00454795
0.00420654
0.00392048
0.00367801
0.0034703
0.00329072
0.00313412
0.00299655
0.00287483
0.00276649
0.00266949
0.00258223
0.00250332
0.00243168
0.00236636
0.00230661
0.00225174
0.00220121
0.00215451
0.00211126
0.00207107
0.00203365
0.00199871
0.00196602
0.00193536
0.0113319
0.0109613
0.0101483
0.00919369
0.00831236
0.00754597
0.00689416
0.0063429
0.00587565
0.00547744
0.00513576
0.00484048
0.00458348
0.0043583
0.00415971
0.00398356
0.00382644
0.00368559
0.00355871
0.00344394
0.00333968
0.00324464
0.00315767
0.00307786
0.00300437
0.00293652
0.00287371
0.00281542
0.00276118
0.00271061
0.00266336
0.00261912
0.00257763
0.0113604
0.011191
0.0107577
0.0101061
0.00941912
0.0087618
0.00816143
0.00762515
0.00715071
0.0067323
0.00636312
0.00603663
0.00574692
0.00548886
0.00525806
0.00505083
0.00486401
0.00469497
0.00454145
0.00440155
0.00427366
0.00415638
0.00404852
0.00394906
0.0038571
0.00377187
0.0036927
0.003619
0.00355025
0.003486
0.00342583
0.0033694
0.0033164
0.0113724
0.0112961
0.0110835
0.0106835
0.0102001
0.00969075
0.00919015
0.00871656
0.00827792
0.00787638
0.00751102
0.00717947
0.00687877
0.00660587
0.00635783
0.00613194
0.00592576
0.00573715
0.00556418
0.00540518
0.00525868
0.00512338
0.00499815
0.004882
0.00477405
0.00467352
0.00457972
0.00449205
0.00440998
0.00433301
0.00426073
0.00419275
0.00412874
0.0113776
0.0113432
0.0112429
0.0110225
0.0107093
0.010347
0.00996381
0.0095792
0.00920549
0.00884962
0.00851496
0.0082027
0.00791268
0.007644
0.0073954
0.00716543
0.00695262
0.00675551
0.00657276
0.0064031
0.00624538
0.00609854
0.00596163
0.00583379
0.00571423
0.00560227
0.00549728
0.00539867
0.00530595
0.00521866
0.00513637
0.00505872
0.00498537
0.01138
0.0113641
0.0113177
0.0112066
0.0110186
0.0107798
0.0105077
0.0102177
0.00992165
0.00962789
0.0093419
0.00906704
0.00880519
0.0085572
0.00832327
0.00810316
0.00789638
0.00770227
0.00752011
0.00734915
0.00718865
0.00703788
0.00689615
0.00676282
0.00663727
0.00651896
0.00640735
0.00630198
0.0062024
0.00610822
0.00601906
0.00593458
0.00585449
0.0113814
0.0113732
0.0113518
0.0112994
0.0111948
0.0110479
0.0108673
0.0106628
0.0104433
0.010216
0.00998659
0.00975918
0.00953664
0.00932089
0.00911314
0.00891408
0.00872401
0.00854299
0.00837089
0.00820745
0.00805236
0.00790524
0.00776571
0.00763337
0.00750781
0.00738867
0.00727556
0.00716813
0.00706605
0.006969
0.00687668
0.00678883
0.00670519
0.0113823
0.0113772
0.011367
0.0113426
0.0112898
0.0112045
0.0110919
0.0109563
0.0108031
0.0106375
0.010464
0.0102863
0.0101076
0.00992993
0.00975513
0.00958437
0.0094185
0.00925806
0.00910337
0.00895461
0.00881181
0.00867492
0.00854383
0.0084184
0.00829843
0.00818372
0.00807405
0.00796922
0.00786901
0.0077732
0.00768159
0.00759397
0.00751016
0.0113826
0.0113796
0.0113738
0.0113622
0.0113373
0.011291
0.0112247
0.0111398
0.0110388
0.0109247
0.0108005
0.0106691
0.0105329
0.0103941
0.0102543
0.010115
0.00997717
0.00984165
0.00970905
0.00957979
0.00945418
0.00933241
0.0092146
0.00910079
0.00899098
0.00888513
0.00878317
0.00868502
0.00859058
0.00849973
0.00841237
0.00832837
0.00824761
0.0113825
0.0113808
0.0113772
0.011371
0.0113592
0.0113362
0.0112992
0.0112488
0.0111857
0.0111111
0.0110267
0.0109344
0.0108358
0.0107325
0.0106261
0.0105178
0.0104085
0.0102992
0.0101906
0.0100832
0.00997743
0.00987368
0.00977219
0.00967315
0.00957669
0.0094829
0.00939182
0.00930349
0.00921789
0.009135
0.0090548
0.00897724
0.00890226
0.0113825
0.0113812
0.0113791
0.0113752
0.0113691
0.0113581
0.0113388
0.0113103
0.0112727
0.0112264
0.0111719
0.0111101
0.0110421
0.0109689
0.0108916
0.0108111
0.0107284
0.0106441
0.0105589
0.0104734
0.0103881
0.0103033
0.0102194
0.0101366
0.0100552
0.00997526
0.00989698
0.00982044
0.0097457
0.00967282
0.00960183
0.00953274
0.00946555
0.0113825
0.0113813
0.0113798
0.0113776
0.0113737
0.011368
0.0113586
0.0113433
0.0113219
0.0112944
0.0112608
0.0112213
0.0111765
0.011127
0.0110734
0.0110162
0.0109562
0.010894
0.01083
0.0107647
0.0106987
0.0106321
0.0105654
0.0104989
0.0104327
0.0103672
0.0103023
0.0102384
0.0101754
0.0101136
0.0100529
0.00999342
0.00993522
0.0113824
0.0113813
0.01138
0.0113785
0.0113762
0.0113727
0.0113676
0.0113599
0.0113483
0.0113326
0.0113127
0.0112886
0.0112604
0.0112283
0.0111927
0.0111538
0.0111121
0.011068
0.0110219
0.0109741
0.0109249
0.0108746
0.0108236
0.0107721
0.0107203
0.0106683
0.0106165
0.0105649
0.0105136
0.0104628
0.0104126
0.010363
0.0103142
0.0113824
0.0113813
0.0113801
0.0113788
0.0113773
0.0113751
0.0113721
0.0113676
0.0113616
0.0113531
0.0113418
0.0113275
0.0113104
0.0112904
0.0112677
0.0112423
0.0112145
0.0111844
0.0111524
0.0111186
0.0110833
0.0110467
0.011009
0.0109704
0.0109311
0.0108913
0.0108512
0.0108108
0.0107702
0.0107297
0.0106894
0.0106492
0.0106092
0.0113824
0.0113812
0.0113801
0.0113789
0.0113776
0.0113761
0.0113742
0.0113716
0.011368
0.0113633
0.0113572
0.0113489
0.0113389
0.0113268
0.0113127
0.0112967
0.0112787
0.0112588
0.0112373
0.0112141
0.0111895
0.0111636
0.0111365
0.0111083
0.0110793
0.0110495
0.0110191
0.0109882
0.0109568
0.0109252
0.0108933
0.0108613
0.0108293
0.0113824
0.0113812
0.0113801
0.0113789
0.0113778
0.0113765
0.0113751
0.0113734
0.0113712
0.0113684
0.0113646
0.01136
0.0113543
0.011347
0.0113384
0.0113284
0.0113169
0.0113039
0.0112896
0.0112739
0.0112569
0.0112387
0.0112193
0.011199
0.0111776
0.0111555
0.0111325
0.011109
0.0110848
0.0110601
0.011035
0.0110096
0.010984
0.0113824
0.0113812
0.0113801
0.0113789
0.0113778
0.0113766
0.0113754
0.0113741
0.0113726
0.0113707
0.0113683
0.0113653
0.0113615
0.0113571
0.0113517
0.0113452
0.0113376
0.0113288
0.0113189
0.0113078
0.0112957
0.0112824
0.0112681
0.0112528
0.0112366
0.0112195
0.0112017
0.0111831
0.0111638
0.011144
0.0111236
0.0111028
0.0110815
0.0113824
0.0113812
0.0113801
0.0113789
0.0113778
0.0113767
0.0113755
0.0113743
0.011373
0.0113715
0.0113696
0.0113674
0.0113644
0.0113609
0.011357
0.0113521
0.0113461
0.0113392
0.0113314
0.0113225
0.0113126
0.0113017
0.0112898
0.011277
0.0112633
0.0112488
0.0112334
0.0112173
0.0112006
0.0111832
0.0111652
0.0111467
0.0111278
0.0113824
0.0113812
0.0113801
0.0113789
0.0113778
0.0113766
0.0113755
0.0113742
0.0113729
0.0113712
0.0113693
0.0113668
0.0113637
0.0113601
0.011356
0.0113507
0.0113446
0.0113375
0.0113294
0.0113204
0.0113103
0.0112992
0.0112872
0.0112743
0.0112604
0.0112458
0.0112303
0.0112141
0.0111972
0.0111797
0.0111617
0.0111431
0.0111241
0.0113824
0.0113812
0.0113801
0.0113789
0.0113778
0.0113766
0.0113753
0.0113738
0.0113719
0.0113697
0.0113669
0.0113633
0.0113591
0.0113538
0.0113475
0.0113402
0.0113317
0.0113221
0.0113114
0.0112996
0.0112867
0.0112727
0.0112577
0.0112418
0.011225
0.0112073
0.0111889
0.0111698
0.0111501
0.0111298
0.011109
0.0110878
0.0110661
0.0113824
0.0113812
0.0113801
0.0113789
0.0113777
0.0113763
0.0113745
0.0113723
0.0113693
0.0113655
0.0113608
0.0113545
0.0113468
0.0113377
0.0113272
0.0113151
0.0113015
0.0112865
0.01127
0.0112523
0.0112333
0.0112132
0.011192
0.0111699
0.0111468
0.0111231
0.0110986
0.0110735
0.0110479
0.0110219
0.0109955
0.0109688
0.0109419
0.0113824
0.0113813
0.0113801
0.0113789
0.0113773
0.0113753
0.0113724
0.0113683
0.011363
0.0113555
0.0113458
0.0113338
0.0113196
0.0113031
0.0112845
0.0112637
0.0112409
0.0112163
0.01119
0.0111622
0.0111331
0.0111028
0.0110715
0.0110393
0.0110063
0.0109728
0.0109388
0.0109044
0.0108698
0.0108349
0.0108
0.0107651
0.0107302
0.0113825
0.0113813
0.0113801
0.0113784
0.011376
0.0113722
0.0113667
0.0113583
0.0113461
0.0113304
0.0113111
0.0112881
0.0112616
0.0112318
0.011199
0.0111635
0.0111257
0.0110857
0.011044
0.0110009
0.0109565
0.0109111
0.0108651
0.0108185
0.0107716
0.0107245
0.0106773
0.0106303
0.0105834
0.0105368
0.0104906
0.0104448
0.0103996
0.0113825
0.0113814
0.0113798
0.0113765
0.011372
0.011364
0.0113499
0.0113298
0.0113037
0.0112714
0.0112333
0.0111899
0.0111418
0.0110896
0.0110339
0.0109753
0.0109144
0.0108517
0.0107878
0.0107229
0.0106575
0.0105919
0.0105263
0.010461
0.0103962
0.010332
0.0102686
0.010206
0.0101444
0.0100837
0.0100242
0.0099658
0.00990853
0.0113826
0.011381
0.0113775
0.0113716
0.0113594
0.0113357
0.0113013
0.0112563
0.0112012
0.0111371
0.0110652
0.0109869
0.0109036
0.0108164
0.0107263
0.0106345
0.0105415
0.0104482
0.010355
0.0102625
0.0101709
0.0100807
0.00999191
0.00990485
0.0098196
0.00973626
0.0096549
0.00957556
0.00949825
0.00942298
0.00934974
0.00927851
0.00920925
0.0113825
0.0113788
0.0113715
0.0113527
0.0113123
0.0112512
0.0111713
0.0110751
0.0109656
0.0108458
0.0107187
0.0105868
0.0104521
0.0103163
0.0101807
0.0100464
0.0099142
0.00978461
0.0096581
0.00953494
0.00941533
0.00929938
0.00918713
0.0090786
0.00897374
0.0088725
0.00877479
0.00868053
0.0085896
0.00850191
0.00841733
0.00833576
0.00825708
0.0113813
0.0113725
0.0113446
0.0112755
0.0111624
0.0110161
0.0108447
0.0106562
0.0104574
0.0102539
0.0100496
0.00984759
0.00964987
0.00945783
0.00927233
0.00909388
0.00892271
0.00875888
0.00860229
0.00845278
0.00831011
0.00817402
0.00804421
0.00792039
0.00780226
0.00768953
0.00758191
0.00747912
0.00738091
0.00728701
0.0071972
0.00711125
0.00702895
0.0113782
0.0113392
0.0112229
0.0110038
0.0107266
0.0104167
0.0100938
0.00977088
0.00945631
0.00915473
0.00886847
0.00859844
0.00834472
0.0081069
0.00788423
0.00767584
0.0074808
0.00729817
0.00712704
0.00696653
0.00681584
0.00667421
0.00654096
0.00641543
0.00629704
0.00618527
0.00607961
0.00597963
0.00588492
0.0057951
0.00570983
0.0056288
0.00555172
0.0113586
0.011167
0.0107276
0.0101788
0.00961591
0.00907912
0.00858444
0.00813532
0.00773014
0.00736506
0.0070357
0.00673806
0.00646846
0.0062236
0.00600061
0.00579694
0.00561039
0.00543907
0.0052813
0.00513565
0.00500085
0.00487581
0.00475957
0.00465127
0.00455016
0.0044556
0.004367
0.00428383
0.00420563
0.004132
0.00406256
0.00399697
0.00393495
0.0112033
0.010286
0.00914596
0.00815385
0.00734259
0.00668178
0.00613782
0.00568277
0.00529722
0.00496617
0.00467942
0.0044291
0.00420901
0.00401425
0.00384087
0.00368569
0.0035461
0.00341996
0.00330548
0.00320118
0.00310579
0.00301828
0.00293771
0.00286334
0.00279448
0.00273057
0.00267111
0.00261566
0.00256384
0.00251531
0.00246977
0.00242697
0.00238668
0.00988212
0.00703462
0.00556295
0.00467246
0.00408052
0.00363707
0.00328471
0.0029951
0.00275426
0.00255229
0.00238143
0.00223562
0.00211012
0.00200124
0.00190603
0.00182219
0.00174785
0.00168155
0.00162207
0.00156843
0.00151982
0.00147559
0.00143516
0.00139808
0.00136394
0.00133242
0.00130323
0.00127611
0.00125086
0.00122729
0.00120523
0.00118456
0.00116514
0.00388335
0.00236715
0.00190983
0.00162451
0.00144089
0.00128369
0.00115041
0.00104217
0.000954482
0.000882867
0.000823742
0.000774363
0.000732639
0.000697013
0.000666295
0.000639586
0.000616175
0.000595518
0.000577169
0.000560784
0.000546068
0.000532798
0.00052077
0.000509835
0.000499845
0.000490702
0.000482292
0.00047455
0.000467386
0.000460761
0.000454595
0.000448871
0.000443515
0.000128162
0.00013943
0.0001503
0.000159954
0.000168408
0.000175845
0.000182401
0.000188179
0.000193265
0.000197736
0.000201662
0.000205105
0.00020812
0.000210754
0.000213053
0.000215055
0.000216795
0.000218302
0.000219604
0.000220726
0.000221688
0.000222509
0.000223205
0.000223792
0.000224282
0.000224687
0.000225016
0.000225279
0.000225484
0.000225637
0.000225745
0.000225812
0.000225846
8.43316e-05
0.000101134
0.00012654
0.000159991
0.000199762
0.00024435
0.000291952
0.000340162
0.000386849
0.000430867
0.000471613
0.000509302
0.000544411
0.000577537
0.000609283
0.000640069
0.000670253
0.00069993
0.000729282
0.000758293
0.000786991
0.000815351
0.000843446
0.000871283
0.000898936
0.000926491
0.000953977
0.00098143
0.00100886
0.0010363
0.00106374
0.00109118
0.00111888
0.00114667
0.0011745
0.00120237
0.00123029
0.0012583
0.00128636
0.00131464
0.00134318
0.00137205
0.0014013
0.001431
0.00146125
0.0014922
0.00152399
0.00155677
0.00159071
0.001626
0.00166284
0.00170146
0.00174207
0.0017849
0.00183019
0.00187818
0.00192907
0.0019831
0.00204044
0.00210125
0.00216569
0.00223383
0.00230573
0.00238141
0.00246081
0.00254385
0.00263039
0.00272023
0.00281316
0.0029089
0.00300717
0.00310761
0.00320994
0.00331368
0.00341863
0.0035242
0.00363026
0.00373625
0.00384182
0.00394671
0.0040505
0.00415285
0.00425333
0.00435184
0.00444798
0.0045415
0.00463215
0.00471979
0.00480411
0.00488521
0.00496248
0.00503666
0.00510632
0.00517354
0.00523441
0.0052961
0.00534587
0.00540613
0.00543981
0.00550931
0.000132948
0.000133979
0.000137134
0.000144286
0.000154742
0.000168742
0.000186973
0.000209233
0.000235583
0.000265137
0.000296396
0.000329993
0.00036518
0.000401529
0.000438554
0.000475636
0.00051234
0.000548129
0.0005831
0.000616903
0.000649682
0.000681517
0.000712682
0.000743188
0.000773192
0.000802833
0.000832123
0.000861142
0.000889952
0.000918627
0.000947228
0.000975771
0.00100435
0.00103301
0.00106177
0.00109065
0.0011197
0.00114895
0.00117844
0.00120823
0.00123843
0.0012691
0.00130033
0.00133224
0.00136493
0.00139854
0.00143321
0.00146911
0.00150642
0.00154532
0.00158602
0.00162872
0.00167364
0.00172101
0.00177102
0.0018239
0.00187983
0.00193898
0.00200152
0.00206755
0.00213717
0.00221041
0.00228727
0.0023677
0.00245161
0.00253885
0.00262925
0.00272257
0.0028186
0.00291699
0.00301751
0.00311976
0.00322351
0.00332827
0.00343396
0.00353989
0.00364617
0.00375208
0.00385744
0.00396206
0.00406548
0.0041674
0.00426746
0.00436566
0.00446151
0.00455484
0.00464539
0.00473306
0.00481753
0.00489889
0.00497656
0.00505123
0.00512159
0.00518933
0.00525131
0.00531336
0.00536513
0.00542471
0.00546214
0.00553164
0.000228927
0.000224901
0.000220722
0.00021738
0.000215331
0.00021491
0.000216892
0.000221425
0.000228684
0.00023908
0.000252521
0.000269217
0.000289091
0.000311961
0.000337674
0.000365925
0.000396132
0.000427799
0.000460835
0.000493069
0.000525699
0.000558406
0.000591181
0.00062335
0.000655368
0.000687029
0.000718122
0.000748873
0.000779354
0.000809682
0.000839877
0.000870009
0.00090014
0.000930335
0.000960661
0.000991182
0.00102196
0.00105308
0.0010846
0.0011166
0.00114917
0.00118242
0.00121645
0.00125139
0.00128735
0.00132449
0.00136296
0.00140293
0.00144457
0.00148806
0.00153361
0.0015814
0.00163164
0.00168452
0.00174021
0.00179889
0.00186071
0.00192578
0.00199422
0.00206606
0.00214133
0.00222001
0.00230202
0.00238726
0.00247557
0.00256676
0.00266062
0.00275686
0.00285527
0.00295549
0.00305731
0.00316033
0.00326436
0.00336893
0.00347409
0.00357906
0.00368428
0.00378871
0.00389251
0.00399555
0.00409727
0.00419744
0.0042958
0.00439252
0.00448689
0.0045789
0.00466831
0.004755
0.00483868
0.00491942
0.00499667
0.00507111
0.00514144
0.00520899
0.00527155
0.00533332
0.00538674
0.00544495
0.00548593
0.00555474
0.000401282
0.000393416
0.000385425
0.000377726
0.000370666
0.000364218
0.000358704
0.000354159
0.000350854
0.000348527
0.000347426
0.000347634
0.000349788
0.000354028
0.000361154
0.000371112
0.000384675
0.000401162
0.000421438
0.000444054
0.000469287
0.000495465
0.00052391
0.000551846
0.000582385
0.000611761
0.000640847
0.000670951
0.000701452
0.000732244
0.000763077
0.000794136
0.000825399
0.000856935
0.00088881
0.000921098
0.000953872
0.000987212
0.0010212
0.00105593
0.00109149
0.001128
0.00116557
0.00120433
0.0012444
0.00128595
0.00132911
0.00137406
0.00142096
0.00146999
0.0015213
0.00157509
0.0016315
0.0016907
0.00175281
0.00181795
0.00188621
0.00195764
0.00203228
0.00211009
0.00219103
0.002275
0.00236185
0.00245141
0.00254349
0.00263783
0.0027342
0.00283228
0.00293189
0.00303262
0.00313434
0.00323662
0.00333937
0.00344213
0.00354513
0.00364745
0.00375
0.00385113
0.00395177
0.00405162
0.00414994
0.00424672
0.00434187
0.00443567
0.00452709
0.00461641
0.00470339
0.00478788
0.00486963
0.00494867
0.00502451
0.00509783
0.00516721
0.00523373
0.00529622
0.00535698
0.00541159
0.00546761
0.00551177
0.0055792
0.000643096
0.00063124
0.000619557
0.00060823
0.000597626
0.000587653
0.00057851
0.000570008
0.00056229
0.000555014
0.000548346
0.000541945
0.000536233
0.000530967
0.000526827
0.000523606
0.000522225
0.00052241
0.000525234
0.000530335
0.000538703
0.000549513
0.000563832
0.000580442
0.000600355
0.000622458
0.000647094
0.000671961
0.000699713
0.000727365
0.000755284
0.000784703
0.000814838
0.000845953
0.000878018
0.000911032
0.000945021
0.000980027
0.00101611
0.00105334
0.00109181
0.00113161
0.00117284
0.00121562
0.00126009
0.00130636
0.00135458
0.0014049
0.00145744
0.00151236
0.00156979
0.00162985
0.00169266
0.00175832
0.00182689
0.00189841
0.00197292
0.00205037
0.00213073
0.00221388
0.00229971
0.00238803
0.00247866
0.00257135
0.00266586
0.00276191
0.00285926
0.00295756
0.00305665
0.0031561
0.0032559
0.00335553
0.00345507
0.00355409
0.00365297
0.00375068
0.00384867
0.00394432
0.00404005
0.00413479
0.00422769
0.00431934
0.00440946
0.00449831
0.00458525
0.00467031
0.00475333
0.00483418
0.00491265
0.0049887
0.00506197
0.00513281
0.00520045
0.00526514
0.00532655
0.00538544
0.00544067
0.00549348
0.00554026
0.00560572
0.000963189
0.000945711
0.000928766
0.000912424
0.000897028
0.000882512
0.000869031
0.000856362
0.000844594
0.00083338
0.000822853
0.00081269
0.000803168
0.000794002
0.000785584
0.000777642
0.00077067
0.000764441
0.000759529
0.000755631
0.00075349
0.000752825
0.00075443
0.000758012
0.00076434
0.000773053
0.000784963
0.000799192
0.000816544
0.000836435
0.00085915
0.000883352
0.000909652
0.000937955
0.000967908
0.000999499
0.00103273
0.00106761
0.00110417
0.00114246
0.00118254
0.00122446
0.00126832
0.00131419
0.00136218
0.00141238
0.0014649
0.00151984
0.00157728
0.00163734
0.00170008
0.00176557
0.00183386
0.00190498
0.00197891
0.00205564
0.0021351
0.00221719
0.00230177
0.00238868
0.00247771
0.00256864
0.00266122
0.00275516
0.00285018
0.00294598
0.0030423
0.0031388
0.00323534
0.00333145
0.00342726
0.00352211
0.00361635
0.00370958
0.00380227
0.00389334
0.00398476
0.00407336
0.00416136
0.00424858
0.00433432
0.00441883
0.004502
0.00458402
0.00466456
0.00474355
0.00482089
0.00489646
0.00497009
0.00504169
0.00511102
0.00517811
0.00524276
0.00530448
0.00536385
0.00541989
0.00547436
0.00552404
0.00557192
0.00563524
0.00137888
0.00135329
0.00132869
0.00130509
0.00128275
0.00126165
0.00124188
0.00122325
0.00120579
0.0011892
0.00117357
0.00115865
0.00114463
0.00113131
0.00111893
0.00110731
0.00109672
0.00108699
0.00107846
0.00107093
0.00106478
0.00105985
0.00105653
0.0010548
0.00105495
0.00105699
0.00106132
0.00106806
0.00107702
0.0010884
0.00110269
0.00111963
0.00113924
0.00116161
0.00118648
0.00121382
0.00124359
0.00127579
0.00131039
0.00134742
0.00138689
0.00142883
0.00147326
0.00152024
0.00156982
0.00162205
0.00167697
0.00173464
0.00179509
0.00185836
0.00192446
0.0019934
0.00206514
0.00213964
0.00221684
0.00229661
0.00237882
0.00246332
0.00254988
0.00263829
0.00272828
0.00281958
0.00291187
0.00300485
0.00309821
0.00319162
0.00328482
0.00337747
0.00346941
0.00356015
0.00364999
0.003738
0.00382507
0.00391068
0.00399606
0.00407819
0.00416005
0.00423989
0.00431854
0.00439625
0.00447272
0.00454809
0.00462231
0.00469557
0.00476775
0.00483878
0.00490861
0.00497712
0.00504422
0.00510973
0.0051736
0.00523551
0.00529578
0.00535322
0.00540942
0.00546152
0.00551432
0.0055596
0.00560844
0.00566769
0.00190182
0.0018655
0.00183068
0.00179737
0.00176572
0.00173574
0.00170745
0.00168069
0.00165545
0.00163151
0.00160887
0.00158736
0.0015671
0.00154796
0.00153011
0.00151344
0.00149813
0.00148408
0.00147152
0.0014603
0.00145071
0.00144256
0.00143622
0.00143165
0.00142854
0.00142745
0.00142836
0.00143143
0.00143669
0.00144417
0.00145409
0.00146654
0.0014816
0.00149937
0.00151988
0.00154317
0.00156925
0.00159815
0.00162989
0.00166449
0.00170198
0.00174237
0.0017857
0.00183198
0.00188124
0.00193348
0.00198873
0.00204699
0.00210824
0.00217246
0.00223962
0.00230965
0.00238246
0.00245796
0.00253599
0.00261639
0.00269896
0.00278348
0.00286969
0.00295729
0.00304599
0.00313545
0.00322535
0.00331533
0.00340506
0.0034942
0.00358246
0.0036695
0.00375513
0.00383884
0.00392111
0.00400062
0.00408011
0.00415669
0.00423149
0.00430381
0.00437493
0.0044442
0.00451196
0.00457856
0.00464401
0.00470845
0.00477193
0.00483465
0.00489663
0.00495787
0.00501837
0.00507803
0.00513687
0.00519461
0.00525139
0.0053066
0.00536101
0.00541276
0.00546452
0.00551141
0.00556154
0.00560109
0.00565048
0.00570382
0.00253225
0.00248311
0.00243601
0.00239094
0.00234799
0.00230712
0.00226835
0.00223155
0.00219664
0.00216347
0.002132
0.00210211
0.00207384
0.00204715
0.00202211
0.0019987
0.00197703
0.00195707
0.00193896
0.00192264
0.00190833
0.00189587
0.00188555
0.00187716
0.00187137
0.00186701
0.00186487
0.00186526
0.00186787
0.00187287
0.00188025
0.00189016
0.00190262
0.00191775
0.00193561
0.00195627
0.00197978
0.00200621
0.0020356
0.00206799
0.00210344
0.00214197
0.00218361
0.00222839
0.00227632
0.0023274
0.00238162
0.00243897
0.0024994
0.00256285
0.00262925
0.00269848
0.00277044
0.00284494
0.00292182
0.00300086
0.0030818
0.00316438
0.00324829
0.00333321
0.0034188
0.00350468
0.00359052
0.0036759
0.0037605
0.00384396
0.00392596
0.00400614
0.0040842
0.00415978
0.00423344
0.00430558
0.00437428
0.00444058
0.0045047
0.00456619
0.00462578
0.00468339
0.00473922
0.00479366
0.00484686
0.00489907
0.00495045
0.0050012
0.00505148
0.00510136
0.00515094
0.00520014
0.00524908
0.00529743
0.00534554
0.0053925
0.00543956
0.00548414
0.00553011
0.00557048
0.00561682
0.00564929
0.00569851
0.00574422
0.00325835
0.00319539
0.00313496
0.00307701
0.00302157
0.00296863
0.00291814
0.00287
0.00282414
0.00278043
0.0027388
0.00269918
0.00266158
0.00262595
0.00259236
0.00256079
0.00253135
0.00250401
0.00247892
0.00245603
0.00243551
0.00241728
0.00240157
0.00238814
0.00237747
0.00236912
0.0023637
0.00236002
0.00235914
0.00236115
0.00236565
0.00237291
0.00238283
0.00239554
0.00241106
0.00242945
0.00245075
0.00247503
0.00250232
0.00253266
0.00256611
0.00260268
0.00264242
0.00268532
0.00273141
0.00278068
0.00283309
0.00288862
0.0029472
0.00300875
0.00307318
0.00314033
0.00321007
0.0032822
0.00335649
0.00343271
0.00351058
0.00358978
0.00366999
0.00375086
0.003832
0.00391304
0.00399361
0.00407327
0.0041517
0.00422853
0.00430337
0.00437585
0.00444548
0.00451304
0.00457853
0.00464025
0.00469898
0.00475478
0.00480791
0.00485817
0.004906
0.00495156
0.00499507
0.00503689
0.00507731
0.00511663
0.00515511
0.00519302
0.00523062
0.00526804
0.00530549
0.00534295
0.00538065
0.00541823
0.00545624
0.00549354
0.00553183
0.00556786
0.00560668
0.00563921
0.00568056
0.0057047
0.00575271
0.0057892
0.00405849
0.00398207
0.00390851
0.00383776
0.00376981
0.00370463
0.00364218
0.00358239
0.00352516
0.00347042
0.00341808
0.0033681
0.00332047
0.00327516
0.00323222
0.00319165
0.00315352
0.00311785
0.00308475
0.0030542
0.00302636
0.00300117
0.00297882
0.00295914
0.00294246
0.00292845
0.00291766
0.00290934
0.00290462
0.0029018
0.00290208
0.00290576
0.00291211
0.00292156
0.00293399
0.00294941
0.00296791
0.00298947
0.00301413
0.00304192
0.00307286
0.00310697
0.00314425
0.00318471
0.00322833
0.00327509
0.00332496
0.00337787
0.00343375
0.00349249
0.00355397
0.00361804
0.00368451
0.00375318
0.00382379
0.00389608
0.00396976
0.00404448
0.0041199
0.00419566
0.00427134
0.00434657
0.00442099
0.00449409
0.00456561
0.00463511
0.00470215
0.00476623
0.00482807
0.00488739
0.00494282
0.00499493
0.00504368
0.00508908
0.00513137
0.00517052
0.00520682
0.00524051
0.00527186
0.00530122
0.00532892
0.00535533
0.00538079
0.00540561
0.00543014
0.00545459
0.00547927
0.0055042
0.00552977
0.00555558
0.00558242
0.00560892
0.00563726
0.0056635
0.00569394
0.00571744
0.00575257
0.00576734
0.00581275
0.00583871
0.00490463
0.00481648
0.00473131
0.00464907
0.00456976
0.00449335
0.00441979
0.00434904
0.00428103
0.0042157
0.00415299
0.00409287
0.00403532
0.00398035
0.00392798
0.00387823
0.00383117
0.00378682
0.00374527
0.00370656
0.00367078
0.00363794
0.00360818
0.00358141
0.00355785
0.00353728
0.0035201
0.0035058
0.00349515
0.00348705
0.00348306
0.00348132
0.00348255
0.0034878
0.00349594
0.00350729
0.00352193
0.00353975
0.00356077
0.00358503
0.00361254
0.00364325
0.00367716
0.00371425
0.0037545
0.00379785
0.00384424
0.00389361
0.00394583
0.0040008
0.00405836
0.00411835
0.00418055
0.00424473
0.00431065
0.00437799
0.00444648
0.00451572
0.00458541
0.00465513
0.00472444
0.00479304
0.00486052
0.00492631
0.0049903
0.00505186
0.00511043
0.00516683
0.00522025
0.00526989
0.00531602
0.00535856
0.00539747
0.00543274
0.00546456
0.00549299
0.00551826
0.00554063
0.00556038
0.00557785
0.0055934
0.00560742
0.00562028
0.00563236
0.00564405
0.00565563
0.00566749
0.00567971
0.0056928
0.00570636
0.0057214
0.00573638
0.00575392
0.0057695
0.00579055
0.00580408
0.00583182
0.00583649
0.00587759
0.00589219
0.00576601
0.005669
0.00557485
0.00548355
0.00539509
0.00530947
0.00522666
0.00514663
0.00506936
0.0049948
0.00492292
0.00485372
0.00478719
0.00472335
0.00466222
0.00460384
0.00454828
0.00449557
0.0044458
0.00439901
0.00435531
0.00431471
0.00427733
0.00424314
0.00421229
0.00418468
0.00416055
0.00413961
0.00412231
0.0041081
0.00409765
0.00409036
0.00408645
0.00408617
0.00408849
0.00409473
0.00410452
0.00411741
0.00413367
0.00415335
0.00417632
0.00420252
0.00423196
0.00426461
0.00430041
0.00433927
0.00438114
0.00442588
0.00447339
0.00452351
0.00457609
0.00463092
0.0046878
0.00474645
0.00480662
0.00486801
0.00493029
0.00499308
0.00505607
0.0051188
0.00518086
0.00524204
0.00530179
0.00535951
0.00541538
0.00546822
0.00551913
0.00556643
0.00561047
0.00565093
0.00568771
0.00572072
0.00574993
0.00577536
0.00579711
0.00581531
0.00583016
0.00584189
0.00585078
0.00585717
0.00586141
0.00586389
0.005865
0.00586513
0.0058647
0.00586402
0.00586357
0.00586346
0.00586429
0.00586568
0.00586882
0.00587207
0.00587844
0.00588289
0.00589388
0.00589686
0.00591625
0.00591044
0.00594552
0.00594823
0.00661241
0.00651018
0.00641048
0.00631333
0.00621874
0.00612673
0.00603731
0.00595048
0.00586623
0.00578457
0.00570549
0.005629
0.00555514
0.00548391
0.00541538
0.00534959
0.00528661
0.00522649
0.00516932
0.00511517
0.00506412
0.00501622
0.00497157
0.00493019
0.00489219
0.00485753
0.00482638
0.00479859
0.00477441
0.00475361
0.00473643
0.00472275
0.00471249
0.00470596
0.00470248
0.00470302
0.00470676
0.00471345
0.00472408
0.00473829
0.00475566
0.00477624
0.00480016
0.00482729
0.00485754
0.00489084
0.00492707
0.00496608
0.00500776
0.00505193
0.00509842
0.00514701
0.00519747
0.00524949
0.00530285
0.00535723
0.00541228
0.0054676
0.00552294
0.00557768
0.0056316
0.0056846
0.0057357
0.0057846
0.005832
0.00587609
0.00591741
0.00595549
0.00599015
0.00602118
0.00604847
0.00607193
0.00609154
0.00610731
0.00611934
0.00612775
0.00613272
0.00613448
0.0061333
0.00612947
0.00612334
0.00611527
0.00610566
0.00609488
0.00608337
0.00607144
0.0060596
0.00604797
0.00603726
0.00602706
0.00601875
0.00601056