/*--------------------------------*- C++ -*----------------------------------*\
  =========                 |
  \\      /  F ield         | OpenFOAM: The Open Source CFD Toolbox
   \\    /   O peration     | Website:  https://openfoam.org
    \\  /    A nd           | Version:  10
     \\/     M anipulation  |
\*---------------------------------------------------------------------------*/
FoamFile
{
    format      ascii;
    class       volScalarField;
    location    "1500";
    object      omega;
}
// * * * * * * * * * * * * * * * * * * * * * * * * * * * * * * * * * * * * * //

dimensions      [0 0 -1 0 0 0 0];

internalField   nonuniform List<scalar> 
6820
(
6119.65
8495.53
9975.17
10745.8
11095.1
11205.2
11181.5
11085.3
10953.1
10806.8
10658.4
10514.8
10379.1
10252.8
10136.1
10028.7
9930.08
9839.51
9756.26
9679.63
9608.97
9543.69
9483.24
9427.16
9375
9326.39
9280.98
9238.47
9198.45
9161.22
9123.12
9101.77
8998.13
563.863
1593.66
2118.99
2485.29
2810.04
3047.2
3202.64
3297.98
3354.16
3382.64
3395.35
3394.49
3390.55
3382.29
3371.89
3361.05
3350.52
3340.7
3331.85
3324.03
3317.31
3311.6
3306.89
3303.06
3300.11
3297.88
3296.45
3295.56
3295.71
3296.45
3297.95
3301.22
3307.87
97.8512
383.671
612.513
783.21
925.911
1044.15
1139.72
1215.41
1275.18
1321.46
1357.37
1384.53
1405.16
1420.61
1432.05
1440.37
1446.35
1450.52
1453.37
1455.22
1456.38
1457.03
1457.37
1457.5
1457.53
1457.56
1457.62
1457.79
1458.12
1458.56
1459.45
1460.37
1462.38
35.0872
109.689
194.406
270.89
340.029
401.75
456.058
503.311
544.327
579.675
610.092
636.128
658.405
677.423
693.68
707.536
719.395
729.496
738.173
745.561
751.952
757.385
762.144
766.17
769.777
772.793
775.607
777.906
780.205
782.013
784.026
785.579
787.485
22.8645
46.9744
78.9735
111.645
143.697
174.308
202.955
229.405
253.675
275.804
295.908
314.1
330.538
345.355
358.715
370.736
381.575
391.321
400.123
408.038
415.209
421.658
427.529
432.808
437.647
441.995
446.019
449.629
453.016
456.052
458.952
461.57
464.109
19.4482
28.8211
42.7198
57.8275
73.3611
88.8415
103.931
118.422
132.214
145.247
157.503
168.976
179.69
189.667
198.948
207.564
215.565
222.981
229.864
236.24
242.161
247.645
252.747
257.473
261.879
265.964
269.784
273.33
276.66
279.758
282.684
285.418
288.015
18.2937
22.3026
29.0894
36.8342
45.0409
53.4275
61.8036
70.0419
78.0648
85.8188
93.271
100.4
107.199
113.664
119.8
125.611
131.111
136.309
141.22
145.854
150.231
154.358
158.255
161.93
165.402
168.677
171.774
174.699
177.47
180.09
182.578
184.936
187.182
17.8628
19.6407
23.1435
27.4252
32.1054
36.9869
41.946
46.9009
51.7981
56.5996
61.2794
65.8192
70.2076
74.437
78.5044
82.4079
86.1492
89.7299
93.1545
96.4262
99.5512
102.533
105.38
108.095
110.685
113.156
115.514
117.764
119.912
121.964
123.925
125.799
127.594
17.6921
18.5022
20.2904
22.7591
25.5623
28.5575
31.6531
34.789
37.925
41.0328
44.0923
47.0892
50.0133
52.8575
55.6174
58.2897
60.8733
63.3674
65.7726
68.0899
70.3209
72.4673
74.5316
76.5159
78.4232
80.2558
82.0167
83.7085
85.3344
86.8967
88.3987
89.8427
91.2316
17.6213
17.9912
18.8824
20.3079
22.0195
23.9107
25.9093
27.9667
30.05
32.1359
34.2079
36.254
38.2654
40.2358
42.1607
44.0369
45.8624
47.6356
49.3561
51.0236
52.6383
54.2008
55.712
57.1726
58.584
59.9472
61.2638
62.5351
63.7625
64.9474
66.0915
67.1961
68.2625
17.591
17.7573
18.1874
18.9891
20.029
21.2312
22.54
23.916
25.3312
26.7655
28.2045
29.6375
31.0565
32.4559
33.8312
35.1793
36.4979
37.7854
39.0406
40.2629
41.452
42.6077
43.7301
44.8197
45.8768
46.9019
47.8958
48.859
49.7924
50.6967
51.5727
52.4211
53.2428
17.5777
17.6499
17.8528
18.2782
18.8974
19.6531
20.5077
21.4311
22.4002
23.3977
24.4109
25.43
26.4478
27.4588
28.4588
29.4446
30.4138
31.3647
32.296
33.2066
34.0961
34.9639
35.8098
36.6338
37.436
38.2165
38.9755
39.7134
40.4306
41.1274
41.8042
42.4614
43.0995
17.5717
17.6008
17.6934
17.9051
18.2597
18.7223
19.2706
19.8837
20.5439
21.2371
21.9523
22.6808
23.416
24.1527
24.8868
25.6153
26.3357
27.0461
27.7452
28.4317
29.105
29.7643
30.4092
31.0395
31.6551
32.2557
32.8416
33.4127
33.9692
34.5112
35.0389
35.5526
36.0524
17.5685
17.5785
17.6181
17.7167
17.9085
18.1807
18.5221
18.92
19.3623
19.8384
20.3392
20.8575
21.3874
21.9242
22.4641
23.0041
23.5418
24.0753
24.6031
25.124
25.6371
26.1416
26.6369
27.1227
27.5987
28.0645
28.5202
28.9656
29.4006
29.8254
30.24
30.6444
31.0388
17.5667
17.5684
17.5829
17.6262
17.7205
17.8733
18.0775
18.3273
18.6156
18.9354
19.2799
19.6435
20.0213
20.4092
20.8038
21.2024
21.6026
22.0027
22.4011
22.7965
23.1881
23.5749
23.9563
24.3318
24.7011
25.0637
25.4195
25.7683
26.11
26.4444
26.7716
27.0916
27.4042
17.5661
17.5629
17.5666
17.5833
17.6249
17.7047
17.8205
17.9706
18.1518
18.3599
18.5907
18.8401
19.1043
19.38
19.6645
19.9553
20.2503
20.5479
20.8466
21.1452
21.4427
21.7382
22.0312
22.321
22.6071
22.8892
23.167
23.4402
23.7087
23.9723
24.2309
24.4843
24.7326
17.5661
17.5601
17.5585
17.5631
17.5791
17.6155
17.6769
17.7623
17.8709
18.001
18.1502
18.3159
18.4957
18.6871
18.8878
19.096
19.31
19.5281
19.7492
19.9721
20.1959
20.4197
20.643
20.865
21.0854
21.3038
21.5197
21.7329
21.9431
22.1503
22.3541
22.5546
22.7515
17.5661
17.5591
17.5541
17.5533
17.5575
17.5711
17.5997
17.6448
17.7061
17.7833
17.8755
17.9813
18.0994
18.228
18.3657
18.511
18.6625
18.8191
18.9796
19.1431
19.3088
19.476
19.6439
19.8121
19.98
20.1473
20.3136
20.4787
20.6422
20.8039
20.9636
21.1213
21.2767
17.5662
17.5588
17.5523
17.5479
17.5469
17.5501
17.5603
17.5811
17.6128
17.6556
17.7093
17.7736
17.8477
17.9307
18.0218
18.1198
18.224
18.3333
18.4469
18.5641
18.6842
18.8066
18.9306
19.0559
19.1819
19.3083
19.4348
19.561
19.6867
19.8117
19.9357
20.0587
20.1804
17.5662
17.5587
17.5517
17.5456
17.5413
17.5397
17.5415
17.5482
17.5621
17.5834
17.6122
17.6487
17.6926
17.7435
17.801
17.8645
17.9334
18.0072
18.0851
18.1667
18.2515
18.3389
18.4285
18.5198
18.6126
18.7064
18.801
18.8961
18.9915
19.0869
19.1821
19.277
19.3714
17.5662
17.5587
17.5515
17.5447
17.5388
17.5344
17.5319
17.5324
17.5359
17.5442
17.5577
17.5764
17.6003
17.6295
17.6637
17.7028
17.7463
17.794
17.8455
17.9005
17.9585
18.0192
18.0822
18.1473
18.2142
18.2825
18.3521
18.4226
18.4938
18.5657
18.6379
18.7104
18.7829
17.5662
17.5587
17.5514
17.5444
17.5378
17.532
17.5272
17.5241
17.5231
17.5243
17.5283
17.5362
17.5475
17.5627
17.5815
17.604
17.63
17.6595
17.6921
17.7278
17.7663
17.8073
17.8507
17.8961
17.9434
17.9923
18.0428
18.0944
18.1472
18.2009
18.2553
18.3103
18.3659
17.5662
17.5587
17.5514
17.5442
17.5374
17.531
17.5251
17.5202
17.5164
17.5141
17.5138
17.5151
17.5189
17.5255
17.5347
17.5466
17.5613
17.5787
17.5987
17.6213
17.6464
17.6737
17.7032
17.7347
17.7681
17.8031
17.8398
17.8778
17.917
17.9574
17.9988
18.0411
18.084
17.5662
17.5587
17.5514
17.5442
17.5372
17.5306
17.5243
17.5185
17.5135
17.5094
17.5065
17.505
17.5052
17.5068
17.5105
17.5164
17.5245
17.5348
17.5473
17.5619
17.5787
17.5975
17.6184
17.6411
17.6656
17.6917
17.7195
17.7486
17.7791
17.8108
17.8436
17.8775
17.9121
17.5662
17.5587
17.5513
17.5442
17.5372
17.5304
17.524
17.518
17.5126
17.5078
17.5041
17.5014
17.5002
17.5004
17.5018
17.5051
17.5104
17.5177
17.5269
17.5381
17.5511
17.5661
17.583
17.6016
17.622
17.644
17.6675
17.6924
17.7187
17.7462
17.7749
17.8046
17.8352
17.5662
17.5587
17.5513
17.5442
17.5372
17.5305
17.5242
17.5183
17.5132
17.5088
17.5055
17.5034
17.5028
17.5035
17.5056
17.5097
17.5158
17.5238
17.5337
17.5456
17.5594
17.575
17.5925
17.6117
17.6326
17.6551
17.6791
17.7045
17.7311
17.759
17.788
17.8181
17.849
17.5662
17.5587
17.5513
17.5442
17.5374
17.5309
17.5251
17.52
17.5159
17.5131
17.5117
17.5122
17.5141
17.5183
17.5246
17.5331
17.5437
17.5566
17.5716
17.5888
17.608
17.6292
17.6522
17.677
17.7035
17.7316
17.7611
17.7919
17.824
17.8571
17.8913
17.9264
17.9624
17.5662
17.5587
17.5514
17.5444
17.5379
17.5322
17.5276
17.5243
17.523
17.5238
17.5267
17.5327
17.5416
17.5534
17.5681
17.5857
17.6061
17.6292
17.6549
17.6831
17.7135
17.7461
17.7806
17.817
17.855
17.8944
17.9353
17.9773
18.0204
18.0644
18.1093
18.1548
18.201
17.5662
17.5587
17.5516
17.5451
17.5396
17.5357
17.5342
17.5354
17.5395
17.5482
17.5612
17.5785
17.6003
17.6263
17.6565
17.6905
17.7282
17.7692
17.8134
17.8603
17.9097
17.9613
18.015
18.0703
18.1272
18.1853
18.2446
18.3048
18.3657
18.4273
18.4893
18.5516
18.6142
17.5662
17.5589
17.5522
17.5473
17.5446
17.5455
17.5504
17.5615
17.5798
17.605
17.6371
17.6761
17.7215
17.7729
17.8299
17.8918
17.9581
18.0284
18.102
18.1786
18.2577
18.3389
18.4217
18.506
18.5914
18.6776
18.7644
18.8516
18.939
19.0264
19.1138
19.2008
19.2875
17.5662
17.5594
17.5546
17.5542
17.558
17.5696
17.5932
17.6282
17.6749
17.7329
17.8016
17.8801
17.9674
18.0624
18.164
18.2714
18.3835
18.4996
18.6189
18.7408
18.8645
18.9897
19.1159
19.2426
19.3696
19.4965
19.6231
19.7491
19.8743
19.9987
20.122
20.2442
20.3651
17.5663
17.5617
17.563
17.5718
17.595
17.6401
17.7055
17.7911
17.8954
18.0165
18.1523
18.3006
18.4593
18.6266
18.8007
18.9802
19.1638
19.3502
19.5387
19.7283
19.9185
20.1085
20.2979
20.4864
20.6735
20.859
21.0426
21.2241
21.4034
21.5803
21.7548
21.9267
22.0961
17.5672
17.57
17.5859
17.6276
17.711
17.8336
17.9919
18.1815
18.3976
18.6351
18.8897
19.1574
19.435
19.7198
20.0094
20.302
20.596
20.8902
21.1836
21.4753
21.7646
22.0511
22.3342
22.6137
22.8892
23.1606
23.4277
23.6903
23.9484
24.2019
24.4508
24.6951
24.9348
17.5716
17.5953
17.6662
17.8177
18.053
18.3543
18.7087
19.1036
19.5285
19.9745
20.4349
20.9044
21.3787
21.8548
22.3301
22.8027
23.2712
23.7345
24.1917
24.6422
25.0854
25.521
25.9488
26.3685
26.7802
27.1836
27.5788
27.9659
28.3448
28.7157
29.0786
29.4337
29.7811
17.5854
17.6974
17.9699
18.4419
19.0444
19.7381
20.4917
21.2821
22.0933
22.9141
23.7367
24.5557
25.3673
26.1688
26.9583
27.7344
28.4962
29.243
29.9745
30.6904
31.3907
32.0753
32.7443
33.3978
34.0361
34.6594
35.2678
35.8618
36.4414
37.0072
37.5593
38.0981
38.6238
17.6522
18.1438
19.1451
20.4574
21.9286
23.4776
25.0548
26.6331
28.1966
29.7371
31.25
32.7323
34.182
35.5983
36.9807
38.3291
39.6436
40.9246
42.1725
43.3878
44.5711
45.723
46.8442
47.9354
48.9974
50.0307
51.0362
52.0146
52.9666
53.893
54.7944
55.6717
56.5255
18.0423
20.3419
23.6954
27.3243
30.9671
34.5343
37.9952
41.351
44.6032
47.7618
50.8283
53.8045
56.6926
59.4942
62.2115
64.8462
67.4002
69.8754
72.2738
74.5973
76.8479
79.0276
81.1387
83.183
85.1627
87.0799
88.9365
90.7347
92.4763
94.1635
95.798
97.3817
98.9165
21.0783
32.2377
43.8848
55.0827
65.2654
74.723
83.6609
92.2515
100.529
108.499
116.17
123.546
130.634
137.44
143.973
150.24
156.25
162.01
167.532
172.822
177.893
182.751
187.407
191.869
196.147
200.248
204.182
207.956
211.578
215.054
218.393
221.602
224.685
63.2893
131.146
179.994
220.948
253.72
286.904
320.75
353.551
384.646
413.765
440.837
465.898
489.061
510.454
530.221
548.493
565.404
581.067
595.602
609.099
621.66
633.357
644.277
654.474
664.025
672.968
681.373
689.262
696.705
703.707
710.338
716.588
722.534
1672.14
1819.15
1960.96
2086.92
2197.23
2294.25
2379.79
2455.18
2521.53
2579.87
2631.09
2676.01
2715.34
2749.72
2779.71
2805.83
2828.53
2848.19
2865.19
2879.82
2892.37
2903.08
2912.17
2919.82
2926.22
2931.5
2935.79
2939.23
2941.9
2943.89
2945.3
2946.18
2946.62
8978.85
8505.91
7957.41
7399.16
6874.47
6391.94
5951.62
5553.26
5193.83
4867.94
4573.74
4306.9
4064.54
3844.12
3643.09
3459.49
3291.14
3136.67
2994.24
2862.81
2741.26
2628.71
2524.13
2426.73
2335.65
2250.09
2169.4
2093
2020.37
1950.98
1884.42
1820.35
1758
1697.34
1638.19
1580.34
1523.6
1467.76
1412.76
1358.38
1304.53
1251.19
1198.37
1146.08
1094.39
1043.33
993.011
943.532
895.033
847.658
801.56
756.897
713.823
672.485
633.016
595.529
560.117
526.843
495.745
466.832
440.086
415.466
392.906
372.324
353.621
336.69
321.415
307.678
295.356
284.335
274.495
265.729
257.926
250.995
244.829
239.357
234.48
230.135
226.253
222.762
219.612
216.75
214.134
211.713
209.456
207.33
205.308
203.361
201.474
199.619
197.799
195.967
194.164
192.301
190.512
188.531
186.81
184.549
183.121
180.093
3310.08
3347.75
3415.96
3478.23
3554.21
3640.04
3715.4
3771.83
3793.57
3784.37
3754.91
3693.13
3608.07
3504.49
3387.5
3262.74
3134.42
3007.1
2881.85
2761.9
2647.43
2538.7
2435.12
2336.9
2243.55
2154.65
2070.04
1989.33
1912.17
1838.17
1766.99
1698.39
1632
1567.58
1504.93
1443.88
1384.27
1325.98
1268.91
1212.98
1158.12
1104.3
1051.52
999.823
949.249
899.87
851.768
805.04
759.794
716.14
674.189
634.048
595.811
559.56
525.359
493.253
463.261
435.383
409.595
385.852
364.093
344.238
326.195
309.865
295.138
281.907
270.058
259.483
250.071
241.724
234.337
227.823
222.089
217.061
212.647
208.797
205.418
202.471
199.891
197.619
195.615
193.835
192.243
190.789
189.454
188.205
187.019
185.87
184.745
183.618
182.492
181.326
180.153
178.906
177.681
176.278
175.038
173.358
172.275
169.944
1464.54
1470.28
1480.95
1493.01
1507.82
1528.05
1553.34
1585.9
1626.97
1675.27
1730.71
1789.7
1849.52
1906.93
1957.56
1997.62
2024.95
2037.87
2034.78
2023.44
1998.67
1963.27
1919.19
1870.41
1817
1761.12
1704.35
1646.89
1589.23
1531.67
1474.6
1418.18
1362.53
1307.71
1253.77
1200.72
1148.59
1097.38
1047.13
997.853
949.59
902.385
856.293
811.378
767.713
725.379
684.461
645.043
607.208
571.036
536.595
503.946
473.133
444.187
417.119
391.925
368.582
347.052
327.282
309.206
292.747
277.821
264.338
252.205
241.328
231.615
222.972
215.314
208.553
202.614
197.415
192.893
188.973
185.605
182.71
180.261
178.169
176.426
174.965
173.74
172.725
171.883
171.18
170.571
170.047
169.574
169.133
168.701
168.265
167.802
167.314
166.763
166.18
165.512
164.819
163.968
163.186
162.069
161.321
159.669
789.414
792.167
795.611
799.033
801.99
804.936
807.795
811.292
815.843
822.786
832.6
846.366
863.898
886.049
911.738
941.314
972.31
1004.9
1035.07
1063.76
1087.89
1108.88
1122.19
1132.2
1132.11
1129.01
1120.94
1106.23
1086.7
1063.3
1037.08
1008.36
977.724
945.598
912.345
878.284
843.694
808.819
773.872
739.044
704.506
670.413
636.907
604.12
572.172
541.175
511.231
482.432
454.855
428.57
403.63
380.074
357.929
337.204
317.897
299.991
283.457
268.256
254.338
241.649
230.127
219.707
210.323
201.906
194.391
187.712
181.803
176.608
172.064
168.124
164.727
161.835
159.392
157.366
155.696
154.372
153.311
152.539
151.973
151.589
151.376
151.297
151.321
151.407
151.559
151.739
151.929
152.111
152.271
152.39
152.465
152.463
152.412
152.272
152.067
151.726
151.372
150.786
150.359
149.35
466.863
469.966
473.094
476.084
478.638
480.836
482.553
484.014
485.216
486.595
488.15
490.369
493.136
496.998
501.725
507.946
515.232
524.22
534.15
545.462
557.069
569.433
581.011
592.3
601.648
609.406
614.561
618.662
618.91
617.702
614.443
608.164
599.63
588.84
576.078
561.623
545.749
528.715
510.765
492.129
473.016
453.621
434.122
414.679
395.44
376.533
358.076
340.169
322.897
306.334
290.537
275.551
261.407
248.125
235.712
224.167
213.478
203.627
194.589
186.334
178.829
172.038
165.922
160.445
155.566
151.25
147.458
144.157
141.308
138.886
136.851
135.184
133.846
132.819
132.055
131.562
131.26
131.208
131.297
131.536
131.924
132.414
132.988
133.614
134.285
134.976
135.67
136.348
136.996
137.598
138.147
138.62
139.023
139.341
139.572
139.69
139.72
139.625
139.498
139.08
290.872
294.011
297.069
300.003
302.678
305.098
307.2
309.056
310.641
312.096
313.39
314.673
315.873
317.147
318.401
319.821
321.299
323.035
324.908
327.165
329.604
332.436
335.386
338.601
341.727
344.849
347.498
349.874
351.464
352.327
352.156
351.343
349.51
346.621
342.772
337.965
332.237
325.649
318.282
310.231
301.601
292.499
283.037
273.32
263.453
253.534
243.653
233.892
224.325
215.016
206.02
197.382
189.14
181.32
173.945
167.026
160.57
154.579
149.049
143.972
139.337
135.132
131.341
127.948
124.935
122.286
119.982
118.008
116.342
114.976
113.881
113.057
112.471
112.117
111.962
112.021
112.221
112.632
113.173
113.834
114.613
115.484
116.431
117.429
118.465
119.522
120.583
121.63
122.65
123.627
124.551
125.407
126.185
126.886
127.484
127.997
128.376
128.691
128.854
128.953
189.673
192.416
195.089
197.675
200.116
202.403
204.509
206.452
208.222
209.861
211.357
212.753
214.019
215.193
216.236
217.193
218.019
218.771
219.4
219.974
220.448
220.884
221.243
221.564
221.814
222.023
222.125
222.101
221.989
221.724
221.185
220.389
219.291
217.838
216.046
213.894
211.368
208.465
205.191
201.563
197.607
193.354
188.845
184.121
179.23
174.219
169.136
164.027
158.936
153.905
148.971
144.167
139.524
135.066
130.814
126.784
122.989
119.438
116.137
113.089
110.296
107.755
105.464
103.419
101.614
100.045
98.7027
97.5834
96.6766
95.9829
95.4814
95.1852
95.0607
95.1121
95.3019
95.6919
96.2043
96.8683
97.6562
98.5521
99.5506
100.636
101.795
103.01
104.266
105.55
106.845
108.137
109.41
110.652
111.848
112.989
114.054
115.057
115.949
116.784
117.453
118.122
118.52
119.088
129.597
131.815
133.989
136.109
138.152
140.107
141.96
143.716
145.369
146.931
148.397
149.778
151.062
152.256
153.342
154.326
155.188
155.939
156.556
157.055
157.413
157.656
157.754
157.724
157.61
157.367
157.012
156.541
155.965
155.29
154.501
153.593
152.563
151.398
150.095
148.649
147.055
145.31
143.413
141.365
139.172
136.84
134.382
131.812
129.147
126.406
123.609
120.777
117.934
115.099
112.294
109.539
106.853
104.251
101.75
99.3608
97.0962
94.9649
92.9743
91.1305
89.4374
87.8986
86.5154
85.2891
84.2195
83.3063
82.548
81.9441
81.4919
81.1951
81.038
81.0421
81.1488
81.4124
81.8078
82.3436
82.9941
83.7665
84.651
85.6363
86.7165
87.8812
89.1208
90.422
91.7726
93.1603
94.571
95.9921
97.4081
98.8087
100.176
101.506
102.769
103.988
105.098
106.181
107.073
108.032
108.613
109.586
92.7894
94.5241
96.2343
97.9144
99.5532
101.143
102.678
104.155
105.573
106.933
108.233
109.475
110.652
111.764
112.802
113.764
114.637
115.422
116.106
116.689
117.159
117.523
117.764
117.898
117.885
117.806
117.613
117.297
116.883
116.37
115.765
115.068
114.285
113.416
112.464
111.43
110.317
109.126
107.859
106.52
105.11
103.635
102.1
100.51
98.8738
97.1995
95.4966
93.7754
92.0467
90.3217
88.6115
86.9273
85.2798
83.6793
82.1353
80.6567
79.2514
77.9264
76.688
75.5413
74.4909
73.5406
72.693
71.9509
71.316
70.7897
70.3731
70.0679
69.8757
69.799
69.8259
69.9488
70.1984
70.5565
71.0205
71.5969
72.2755
73.0572
73.9389
74.914
75.9783
77.1251
78.3476
79.6366
80.9826
82.3756
83.8038
85.2566
86.7195
88.1843
89.6311
91.0607
92.4375
93.791
95.0419
96.2966
97.3472
98.5267
99.2415
100.54
69.4633
70.8066
72.1376
73.4528
74.7465
76.014
77.251
78.4557
79.6258
80.7608
81.859
82.9196
83.9391
84.9152
85.8425
86.7179
87.5344
88.2888
88.9731
89.5852
90.116
90.5667
90.9265
91.2033
91.3789
91.4703
91.4554
91.3828
91.2142
90.9506
90.6118
90.1922
89.7007
89.1389
88.5108
87.8205
87.0716
86.2677
85.4126
84.5101
83.564
82.5782
81.5571
80.5053
79.4276
78.3295
77.2167
76.0952
74.9715
73.852
72.7435
71.6528
70.5863
69.5507
68.5521
67.5964
66.689
65.8351
65.0392
64.3054
63.6374
63.0388
62.5116
62.0594
61.6835
61.3861
61.1695
61.0364
60.9912
61.0217
61.1276
61.3316
61.6234
62.0034
62.4702
63.0281
63.6741
64.4083
65.2302
66.137
67.1262
68.1942
69.3367
70.5479
71.8208
73.1483
74.5207
75.9303
77.3638
78.8153
80.2648
81.7163
83.131
84.544
85.8656
87.2202
88.366
89.6956
90.4987
92.0401
54.1708
55.2129
56.2498
57.2791
58.2977
59.3026
60.2913
61.2619
62.2127
63.1426
64.0502
64.9343
65.7925
66.6227
67.4216
68.1862
68.9122
69.5963
70.2336
70.821
71.353
71.828
72.2394
72.5893
72.8685
73.0839
73.2218
73.3011
73.2938
73.2444
73.1247
72.9293
72.6799
72.3688
72.0028
71.5853
71.1187
70.6071
70.0541
69.4634
68.8384
68.1832
67.5015
66.7974
66.0749
65.3381
64.5914
63.8391
63.0858
62.3361
61.5945
60.8657
60.1542
59.4645
58.801
58.1678
57.5686
57.0074
56.4874
56.0118
55.5838
55.2056
54.8793
54.6084
54.3934
54.237
54.1423
54.113
54.1398
54.2252
54.3845
54.6118
54.9084
55.276
55.7147
56.2273
56.814
57.4754
58.2124
59.0243
59.9105
60.8694
61.8989
62.9957
64.1555
65.3736
66.6428
67.9578
69.3074
70.6883
72.0811
73.4927
74.8832
76.292
77.623
79.0127
80.1973
81.6091
82.4612
84.1599
43.8219
44.6359
45.4485
46.2582
47.0632
47.8617
48.6518
49.4321
50.2015
50.9587
51.7026
52.4322
53.1456
53.8413
54.517
55.1705
55.7988
56.3995
56.969
57.505
58.0034
58.4626
58.878
59.2495
59.5719
59.8474
60.0685
60.2432
60.3579
60.4318
60.4387
60.4118
60.3396
60.2059
60.0323
59.8158
59.5572
59.2615
58.9311
58.5684
58.1765
57.7591
57.3194
56.8605
56.3859
55.899
55.4032
54.9022
54.3995
53.8986
53.403
52.9163
52.4418
51.9829
51.5429
51.1249
50.7317
50.3663
50.0311
49.7286
49.4616
49.2313
49.0395
48.8901
48.7817
48.7189
48.7051
48.7312
48.8044
48.9317
49.1106
49.3425
49.6292
49.9725
50.3733
50.8337
51.3552
51.9391
52.5866
53.2985
54.0753
54.917
55.823
56.792
57.8216
58.9094
60.0505
61.2419
62.4745
63.7473
65.0428
66.3699
67.6898
69.0444
70.3355
71.7063
72.882
74.3147
75.1841
76.9573
36.6195
37.2602
37.9018
38.5432
39.1833
39.8208
40.4545
41.0834
41.7066
42.323
42.9318
43.5321
44.1226
44.702
45.2689
45.8215
46.358
46.8762
47.3741
47.8494
48.2997
48.723
49.1168
49.4797
49.8086
50.1039
50.3613
50.5836
50.7647
50.911
51.0143
51.0821
51.1122
51.1023
51.0662
50.9888
50.8762
50.7356
50.5656
50.3676
50.1451
49.9012
49.6379
49.3576
49.0634
48.7578
48.4437
48.1241
47.8018
47.4797
47.1605
46.8471
46.542
46.2482
45.968
45.7038
45.4578
45.2326
45.0297
44.8517
44.7006
44.5762
44.4816
44.4198
44.3878
44.3936
44.427
44.5006
44.6109
44.7603
44.9497
45.1806
45.4544
45.7729
46.1373
46.5495
47.011
47.5236
48.0888
48.708
49.3823
50.1127
50.8995
51.7429
52.642
53.5961
54.602
55.6588
56.7594
57.9048
59.0797
60.2949
61.5133
62.7789
63.994
65.304
66.4336
67.8364
68.6961
70.4721
31.4871
31.9951
32.5051
33.0165
33.5285
34.0402
34.5508
35.0596
35.5658
36.0687
36.5676
37.0617
37.5502
38.0321
38.5063
38.9715
39.4265
39.8698
40.2998
40.7149
41.1134
41.4937
41.854
42.1931
42.5089
42.8008
43.0666
43.3066
43.5182
43.7029
43.8581
43.9849
44.0841
44.153
44.1984
44.212
44.2022
44.1722
44.1141
44.0323
43.9323
43.8148
43.6802
43.5311
43.3698
43.1983
43.019
42.8344
42.6466
42.4578
42.2703
42.0864
41.9082
41.7382
41.5778
41.4292
41.2942
41.175
41.0722
40.9892
40.9262
40.8822
40.8629
40.8688
40.8936
40.9488
41.0293
41.1378
41.2749
41.4418
41.6398
41.8699
42.1334
42.4319
42.7665
43.1389
43.5507
44.0035
44.4989
45.0385
45.6238
46.2562
46.9367
47.6662
48.4448
49.273
50.1491
51.0735
52.0409
53.0542
54.0999
55.1904
56.2911
57.4466
58.5629
59.7833
60.8402
62.1748
63.0015
64.7256
27.7604
28.1651
28.5725
28.9822
29.3936
29.8062
30.2193
30.6324
31.0449
31.4563
31.866
32.2734
32.6779
33.0787
33.4752
33.8663
34.2511
34.6287
34.9978
35.3573
35.7059
36.0426
36.3659
36.6748
36.968
37.2446
37.5033
37.7436
37.9643
38.1652
38.3456
38.5049
38.6438
38.761
38.8588
38.9352
38.9918
39.0309
39.0522
39.0514
39.0407
39.0144
38.9728
38.9197
38.8568
38.7851
38.7069
38.6242
38.5382
38.4508
38.364
38.2794
38.199
38.1247
38.0571
37.9984
37.9503
37.9143
37.8905
37.8834
37.8898
37.9099
37.9505
38.0101
38.0862
38.1832
38.3005
38.4392
38.5999
38.7834
38.9908
39.2229
39.4808
39.7657
40.0788
40.4213
40.7947
41.2005
41.6402
42.1154
42.6276
43.1783
43.7689
44.4006
45.0743
45.791
46.5499
47.3527
48.1954
49.0819
50.0007
50.9653
51.9439
52.9808
53.9871
55.1012
56.0693
57.3097
58.0862
59.7183
25.0162
25.3393
25.6656
25.9946
26.3262
26.6597
26.9947
27.3309
27.6678
28.005
28.3421
28.6785
29.0139
29.3477
29.6793
30.0081
30.3333
30.6543
30.9702
31.2802
31.5834
31.8789
32.1658
32.4432
32.7101
32.966
33.2097
33.4408
33.6585
33.8623
34.0517
34.2264
34.3863
34.5308
34.6608
34.7758
34.876
34.9625
35.0361
35.0951
35.1433
35.1807
35.2076
35.2251
35.2351
35.2378
35.236
35.2308
35.2224
35.213
35.2041
35.197
35.1933
35.1945
35.2002
35.2131
35.2348
35.2658
35.3065
35.3592
35.4238
35.4997
35.5897
35.6946
35.8133
35.9475
36.0974
36.2637
36.4469
36.6474
36.8662
37.1038
37.3611
37.6391
37.9386
38.2608
38.6068
38.9779
39.3755
39.801
40.2557
40.7413
41.2591
41.8106
42.3967
43.019
43.6773
44.3737
45.1054
45.877
46.6788
47.5245
48.3853
49.3043
50.199
51.2006
52.0727
53.2048
53.9199
55.434
22.977
23.2348
23.496
23.7603
24.0275
24.2972
24.5692
24.843
25.1184
25.3951
25.6726
25.9508
26.2291
26.5073
26.7848
27.0613
27.3362
27.609
27.8791
28.1458
28.4087
28.6669
28.9199
29.167
29.4075
29.6409
29.8664
30.0836
30.2919
30.4909
30.6802
30.8595
31.0286
31.1873
31.3356
31.4736
31.6014
31.7192
31.8278
31.9268
32.0174
32.1003
32.1759
32.2451
32.3089
32.3678
32.4234
32.4766
32.5283
32.5796
32.6317
32.6856
32.7425
32.8036
32.8692
32.9406
33.019
33.105
33.1991
33.3025
33.4156
33.5382
33.6715
33.8162
33.9722
34.14
34.32
34.5125
34.7179
34.9364
35.1687
35.4153
35.6768
35.9537
36.2469
36.5573
36.8856
37.2331
37.6007
37.9898
38.4015
38.8373
39.2985
39.7864
40.3023
40.8476
41.4226
42.0298
42.6668
43.3389
44.0373
44.7763
45.5293
46.3382
47.1264
48.0175
48.7937
49.8129
50.4616
51.844
21.4552
21.6602
21.8687
22.0805
22.2954
22.5132
22.7337
22.9565
23.1815
23.4085
23.637
23.867
24.0981
24.3301
24.5625
24.7952
25.0277
25.2596
25.4905
25.7201
25.9478
26.1731
26.3957
26.6149
26.8304
27.0417
27.2483
27.4499
27.646
27.8362
28.0204
28.1982
28.3695
28.534
28.6919
28.843
28.9875
29.1255
29.2574
29.3833
29.5037
29.6191
29.73
29.8369
29.9407
30.0418
30.1411
30.2395
30.3377
30.4365
30.5368
30.6394
30.7451
30.8548
30.9691
31.0886
31.2142
31.3464
31.4856
31.6323
31.7871
31.9501
32.1217
32.3022
32.4918
32.6907
32.8991
33.117
33.3446
33.5823
33.8303
34.0889
34.3586
34.6397
34.9329
35.2386
35.5576
35.8908
36.239
36.6032
36.9846
37.3841
37.8031
38.2428
38.7043
39.1892
39.6977
40.2325
40.7916
41.3805
41.9913
42.6382
43.2968
44.0072
44.6988
45.4871
46.1727
47.0823
47.6642
48.9118
20.3208
20.4827
20.6482
20.8172
20.9894
21.1647
21.3429
21.5239
21.7075
21.8934
22.0816
22.2717
22.4637
22.6572
22.8521
23.0481
23.245
23.4425
23.6403
23.8381
24.0356
24.2324
24.4283
24.6228
24.8157
25.0066
25.1951
25.3811
25.5643
25.7443
25.9209
26.094
26.2635
26.4292
26.5912
26.7493
26.9037
27.0545
27.2019
27.3462
27.4875
27.6263
27.763
27.898
28.0318
28.165
28.2981
28.4317
28.5665
28.703
28.842
28.984
29.1296
29.2795
29.4341
29.594
29.7595
29.9311
30.109
30.2936
30.4852
30.6839
30.8898
31.1032
31.3239
31.5521
31.7878
32.0306
32.2809
32.5388
32.8044
33.0779
33.3594
33.6491
33.9474
34.2548
34.5715
34.8984
35.2361
35.5853
35.9469
36.322
36.7113
37.1162
37.5374
37.9766
38.434
38.9122
39.4094
39.9312
40.4702
41.0405
41.6193
42.245
42.8525
43.5491
44.1531
44.9613
45.4799
46.5977
19.4808
19.6077
19.7382
19.8722
20.0096
20.1501
20.2938
20.4405
20.59
20.7423
20.8971
21.0545
21.2141
21.3759
21.5397
21.7053
21.8726
22.0413
22.2114
22.3825
22.5544
22.727
22.9
23.0731
23.2462
23.4191
23.5914
23.7631
23.9338
24.1036
24.2721
24.4394
24.6053
24.7698
24.9328
25.0945
25.2548
25.4138
25.5718
25.7289
25.8853
26.0414
26.1974
26.3538
26.5109
26.6691
26.8288
26.9905
27.1548
27.322
27.4927
27.6674
27.8464
28.0301
28.2191
28.4134
28.6136
28.8196
29.0316
29.2498
29.4745
29.7057
29.9433
30.1873
30.4375
30.6938
30.9562
31.2238
31.4973
31.7767
32.0619
32.3528
32.6492
32.9514
33.2594
33.5735
33.8941
34.2214
34.5561
34.8986
35.2497
35.6101
35.9806
36.3621
36.7554
37.162
37.5819
38.0176
38.4675
38.9371
39.4194
39.9281
40.4418
40.9974
41.534
42.1522
42.6853
43.4039
43.8651
44.8639
18.8675
18.9664
19.0687
19.1745
19.2837
19.3962
19.5119
19.6307
19.7526
19.8775
20.0053
20.1359
20.2692
20.4051
20.5435
20.6843
20.8274
20.9726
21.1198
21.2689
21.4198
21.5723
21.7263
21.8816
22.0381
22.1956
22.3541
22.5133
22.6733
22.8338
22.995
23.1565
23.3186
23.4811
23.644
23.8075
23.9716
24.1364
24.3021
24.4689
24.6369
24.8064
24.9777
25.1511
25.327
25.5056
25.6871
25.8721
26.0609
26.254
26.4517
26.6542
26.862
27.0753
27.2942
27.5191
27.7501
27.9869
28.2295
28.4787
28.7342
28.9958
29.2633
29.5366
29.8153
30.0993
30.3882
30.6824
30.9816
31.2854
31.5933
31.9049
32.2202
32.5391
32.8616
33.1878
33.5178
33.8519
34.1903
34.5335
34.8819
35.2362
35.5968
35.9647
36.3403
36.725
37.1187
37.524
37.939
38.3691
38.8076
39.2681
39.7298
40.2286
40.7068
41.2593
41.7322
42.3735
42.7842
43.6783
18.4311
18.5079
18.5882
18.6719
18.7589
18.8493
18.9429
19.0398
19.1399
19.2432
19.3496
19.459
19.5714
19.6868
19.8051
19.9262
20.05
20.1766
20.3057
20.4374
20.5716
20.7081
20.847
20.9881
21.1313
21.2767
21.4241
21.5735
21.7248
21.878
22.0332
22.1902
22.3492
22.5102
22.6732
22.8383
23.0056
23.1753
23.3476
23.5225
23.7003
23.8813
24.0657
24.2537
24.4457
24.6418
24.8421
25.0474
25.2579
25.4738
25.6954
25.923
26.1566
26.3966
26.6429
26.8958
27.1552
27.4213
27.6944
27.9747
28.2612
28.5537
28.8519
29.1555
29.464
29.7773
30.0947
30.4164
30.741
31.0679
31.3974
31.7295
32.064
32.4006
32.7393
33.08
33.4227
33.7674
34.1144
34.4638
34.8159
35.1713
35.5301
35.8932
36.2608
36.6341
37.013
37.3998
37.7924
38.1966
38.6051
39.0318
39.456
39.9132
40.3476
40.8503
41.2766
41.8559
42.2243
43.0296
18.1349
18.1955
18.2594
18.3265
18.3971
18.4709
18.548
18.6285
18.7123
18.7993
18.8897
18.9833
19.0801
19.1801
19.2833
19.3897
19.4992
19.6119
19.7276
19.8464
19.9681
20.0929
20.2207
20.3514
20.4851
20.6217
20.7613
20.9037
21.0492
21.1976
21.349
21.5035
21.6611
21.822
21.9861
22.1538
22.325
22.5
22.6788
22.8619
23.0492
23.2411
23.4378
23.6396
23.8466
24.0594
24.2782
24.5035
24.7354
24.9739
25.2193
25.4717
25.7312
25.998
26.2719
26.5532
26.8416
27.1371
27.4397
27.7476
28.0614
28.3811
28.7065
29.0371
29.3726
29.7125
30.0564
30.4038
30.7545
31.1078
31.4632
31.8202
32.1784
32.5377
32.8977
33.2582
33.6191
33.9803
34.3417
34.7036
35.066
35.4292
35.7933
36.1591
36.5265
36.8968
37.2693
37.6467
38.0264
38.4144
38.8029
39.2064
39.6036
40.0305
40.4316
40.8961
41.2853
41.8173
42.1532
42.8901
17.9535
18.0033
18.0563
18.1125
18.172
18.2348
18.3009
18.3704
18.4433
18.5195
18.5991
18.6821
18.7686
18.8585
18.9517
19.0485
19.1486
19.2522
19.3593
19.4698
19.5838
19.7013
19.8224
19.947
20.0751
20.2069
20.3424
20.4816
20.6246
20.7715
20.9223
21.0773
21.2364
21.3998
21.5677
21.7402
21.9176
22.0999
22.2874
22.4804
22.679
22.8835
23.0941
23.3111
23.5348
23.7653
24.0032
24.2478
24.4994
24.7586
25.0254
25.3001
25.5828
25.8735
26.1721
26.4786
26.793
27.115
27.4445
27.7814
28.1251
28.4751
28.831
29.1923
29.5585
29.9291
30.3036
30.6812
31.0616
31.4442
31.8283
32.2135
32.5991
32.9848
33.3701
33.7548
34.1384
34.521
34.9021
35.282
35.6604
36.0377
36.4137
36.7891
37.1635
37.5385
37.9127
38.2893
38.6648
39.0461
39.4243
39.8149
40.1953
40.603
40.9812
41.4197
41.7819