/*--------------------------------*- C++ -*----------------------------------*\
  =========                 |
  \\      /  F ield         | OpenFOAM: The Open Source CFD Toolbox
   \\    /   O peration     | Website:  https://openfoam.org
    \\  /    A nd           | Version:  10
     \\/     M anipulation  |
\*---------------------------------------------------------------------------*/
FoamFile
{
    format      ascii;
    class       volScalarField;
    location    "1500";
    object      p;
}
// * * * * * * * * * * * * * * * * * * * * * * * * * * * * * * * * * * * * * //

dimensions      [0 2 -2 0 0 0 0];

internalField   nonuniform List<scalar> 
6820
(
6.39235
-4.49747
-8.0167
-8.75031
-9.15165
-9.49024
-9.68276
-9.77928
-9.84478
-9.89932
-9.94363
-9.97945
-10.0101
-10.0376
-10.0626
-10.0857
-10.1072
-10.1275
-10.1467
-10.1651
-10.1828
-10.1999
-10.2164
-10.2323
-10.2477
-10.2626
-10.2767
-10.2901
-10.3024
-10.3134
-10.3214
-10.3284
-10.3189
-15.4956
-11.8177
-11.0728
-10.3036
-9.93884
-9.87249
-9.8708
-9.8747
-9.89285
-9.92211
-9.95295
-9.9817
-10.0086
-10.0341
-10.0582
-10.0808
-10.1021
-10.1224
-10.1417
-10.1603
-10.1781
-10.1954
-10.212
-10.2282
-10.2438
-10.2589
-10.2733
-10.2872
-10.3001
-10.3122
-10.3224
-10.333
-10.3381
-13.347
-9.77291
-9.51763
-9.51956
-9.51335
-9.61182
-9.71255
-9.78036
-9.83492
-9.88486
-9.92823
-9.96492
-9.99691
-10.0257
-10.0518
-10.0758
-10.0981
-10.1191
-10.1389
-10.1578
-10.1759
-10.1934
-10.2102
-10.2265
-10.2423
-10.2576
-10.2723
-10.2865
-10.3
-10.3129
-10.3248
-10.3375
-10.3479
-10.8579
-9.39878
-9.54949
-9.66563
-9.6503
-9.70566
-9.77629
-9.82504
-9.86513
-9.90414
-9.94001
-9.97178
-10.0005
-10.027
-10.0516
-10.0746
-10.0962
-10.1167
-10.1363
-10.155
-10.1731
-10.1905
-10.2074
-10.2238
-10.2397
-10.2551
-10.2702
-10.2848
-10.2989
-10.3128
-10.3263
-10.3406
-10.3547
-10.3985
-9.7011
-9.74159
-9.75783
-9.71362
-9.74133
-9.79371
-9.83484
-9.87106
-9.90725
-9.94135
-9.97218
-10.0003
-10.0265
-10.0508
-10.0736
-10.0952
-10.1156
-10.1351
-10.1538
-10.1718
-10.1892
-10.2061
-10.2226
-10.2386
-10.2542
-10.2695
-10.2845
-10.2992
-10.3139
-10.3286
-10.3442
-10.3607
-10.3331
-9.85793
-9.81185
-9.78991
-9.75115
-9.76971
-9.81147
-9.84802
-9.88159
-9.91515
-9.94707
-9.97637
-10.0034
-10.0286
-10.0523
-10.0746
-10.0956
-10.1157
-10.135
-10.1535
-10.1713
-10.1886
-10.2055
-10.2219
-10.238
-10.2537
-10.2692
-10.2845
-10.2997
-10.3151
-10.3308
-10.3474
-10.3654
-10.2177
-9.8917
-9.83961
-9.81688
-9.78801
-9.80069
-9.83318
-9.86454
-9.89467
-9.92509
-9.95447
-9.98194
-10.0076
-10.0318
-10.0547
-10.0763
-10.0969
-10.1166
-10.1355
-10.1538
-10.1715
-10.1887
-10.2054
-10.2218
-10.2379
-10.2538
-10.2694
-10.285
-10.3006
-10.3165
-10.3329
-10.3502
-10.369
-10.1116
-9.90654
-9.86409
-9.84392
-9.82165
-9.82998
-9.85502
-9.88155
-9.90831
-9.93576
-9.96272
-9.98838
-10.0127
-10.0358
-10.0578
-10.0788
-10.0989
-10.1181
-10.1367
-10.1547
-10.1722
-10.1892
-10.2059
-10.2222
-10.2383
-10.2542
-10.27
-10.2858
-10.3017
-10.3179
-10.3347
-10.3525
-10.3716
-10.0426
-9.91972
-9.88421
-9.86622
-9.84944
-9.85546
-9.87523
-9.89789
-9.92174
-9.94659
-9.97135
-9.99531
-10.0183
-10.0404
-10.0615
-10.0818
-10.1013
-10.1201
-10.1383
-10.156
-10.1733
-10.1901
-10.2066
-10.2229
-10.2389
-10.2549
-10.2707
-10.2866
-10.3027
-10.3192
-10.3362
-10.3541
-10.3732
-10.0002
-9.92831
-9.89891
-9.88381
-9.87199
-9.8771
-9.89332
-9.91302
-9.93446
-9.95708
-9.97991
-10.0023
-10.0241
-10.0451
-10.0654
-10.085
-10.104
-10.1223
-10.1402
-10.1576
-10.1746
-10.1912
-10.2076
-10.2237
-10.2397
-10.2556
-10.2715
-10.2875
-10.3037
-10.3202
-10.3373
-10.3551
-10.3739
-9.97433
-9.9333
-9.91016
-9.8982
-9.89048
-9.89536
-9.9092
-9.92666
-9.94612
-9.96686
-9.98803
-10.0091
-10.0297
-10.0497
-10.0693
-10.0882
-10.1067
-10.1246
-10.1421
-10.1592
-10.1759
-10.1923
-10.2086
-10.2246
-10.2405
-10.2563
-10.2722
-10.2881
-10.3043
-10.3208
-10.3378
-10.3554
-10.3738
-9.95947
-9.93684
-9.91951
-9.91045
-9.90587
-9.91082
-9.92303
-9.93877
-9.9566
-9.97576
-9.99551
-10.0153
-10.0349
-10.0541
-10.0729
-10.0913
-10.1092
-10.1267
-10.1438
-10.1606
-10.1771
-10.1933
-10.2094
-10.2253
-10.241
-10.2568
-10.2726
-10.2884
-10.3045
-10.3209
-10.3377
-10.3549
-10.3728
-9.95207
-9.94013
-9.92771
-9.92117
-9.91895
-9.92405
-9.93509
-9.94946
-9.96593
-9.98375
-10.0022
-10.021
-10.0396
-10.058
-10.0762
-10.094
-10.1114
-10.1285
-10.1453
-10.1618
-10.178
-10.1941
-10.2099
-10.2256
-10.2413
-10.2569
-10.2725
-10.2883
-10.3042
-10.3203
-10.3368
-10.3536
-10.3709
-9.94963
-9.94368
-9.93518
-9.93078
-9.93031
-9.93556
-9.94571
-9.95895
-9.97423
-9.99087
-10.0083
-10.026
-10.0438
-10.0615
-10.079
-10.0963
-10.1132
-10.13
-10.1464
-10.1626
-10.1786
-10.1944
-10.2101
-10.2256
-10.2411
-10.2565
-10.272
-10.2875
-10.3032
-10.3191
-10.3351
-10.3515
-10.3681
-9.95039
-9.94767
-9.94216
-9.93955
-9.94036
-9.94572
-9.95516
-9.96743
-9.98165
-9.99722
-10.0136
-10.0304
-10.0474
-10.0645
-10.0814
-10.0981
-10.1146
-10.131
-10.1471
-10.163
-10.1787
-10.1943
-10.2097
-10.2251
-10.2403
-10.2556
-10.2708
-10.2861
-10.3015
-10.317
-10.3327
-10.3485
-10.3645
-9.95316
-9.95211
-9.94882
-9.94764
-9.94939
-9.95482
-9.96366
-9.97506
-9.98833
-10.0029
-10.0184
-10.0344
-10.0506
-10.0669
-10.0833
-10.0995
-10.1156
-10.1316
-10.1473
-10.1629
-10.1784
-10.1937
-10.2089
-10.224
-10.239
-10.254
-10.269
-10.284
-10.2991
-10.3142
-10.3294
-10.3446
-10.3599
-9.95719
-9.95695
-9.95524
-9.95516
-9.95758
-9.96302
-9.97135
-9.98198
-9.99436
-10.008
-10.0226
-10.0378
-10.0533
-10.069
-10.0848
-10.1005
-10.1161
-10.1317
-10.1471
-10.1624
-10.1776
-10.1926
-10.2076
-10.2224
-10.2372
-10.2519
-10.2666
-10.2812
-10.2959
-10.3106
-10.3253
-10.34
-10.3546
-9.96194
-9.96206
-9.96145
-9.96219
-9.96507
-9.97046
-9.97833
-9.98825
-9.99983
-10.0127
-10.0264
-10.0408
-10.0556
-10.0707
-10.0858
-10.1011
-10.1163
-10.1314
-10.1465
-10.1615
-10.1763
-10.1911
-10.2057
-10.2203
-10.2347
-10.2491
-10.2635
-10.2778
-10.292
-10.3063
-10.3204
-10.3345
-10.3486
-9.96709
-9.96734
-9.96746
-9.96878
-9.97193
-9.97723
-9.98465
-9.99394
-10.0048
-10.0168
-10.0298
-10.0434
-10.0575
-10.072
-10.0866
-10.1013
-10.1161
-10.1308
-10.1455
-10.1601
-10.1746
-10.189
-10.2034
-10.2176
-10.2318
-10.2458
-10.2598
-10.2737
-10.2875
-10.3013
-10.3149
-10.3285
-10.3419
-9.9724
-9.97269
-9.97327
-9.97495
-9.97824
-9.98337
-9.99037
-9.99905
-10.0092
-10.0205
-10.0327
-10.0456
-10.0591
-10.0729
-10.087
-10.1012
-10.1155
-10.1298
-10.1441
-10.1583
-10.1725
-10.1866
-10.2006
-10.2145
-10.2283
-10.242
-10.2556
-10.2691
-10.2825
-10.2957
-10.3088
-10.3218
-10.3346
-9.97775
-9.97802
-9.97886
-9.98074
-9.98402
-9.98894
-9.9955
-10.0036
-10.0131
-10.0237
-10.0352
-10.0474
-10.0603
-10.0735
-10.087
-10.1007
-10.1146
-10.1285
-10.1424
-10.1562
-10.17
-10.1838
-10.1974
-10.211
-10.2244
-10.2377
-10.2509
-10.264
-10.2769
-10.2896
-10.3022
-10.3146
-10.3268
-9.98303
-9.98328
-9.98423
-9.98614
-9.98932
-9.99394
-10.0001
-10.0076
-10.0164
-10.0264
-10.0372
-10.0488
-10.0611
-10.0737
-10.0867
-10.0999
-10.1133
-10.1268
-10.1403
-10.1538
-10.1672
-10.1806
-10.1939
-10.2071
-10.2201
-10.233
-10.2458
-10.2584
-10.2708
-10.2831
-10.2951
-10.3069
-10.3185
-9.98821
-9.98843
-9.98936
-9.99119
-9.99414
-9.9984
-10.004
-10.011
-10.0192
-10.0285
-10.0388
-10.0498
-10.0614
-10.0735
-10.086
-10.0988
-10.1117
-10.1248
-10.1379
-10.151
-10.1641
-10.1771
-10.19
-10.2028
-10.2155
-10.228
-10.2403
-10.2524
-10.2644
-10.2761
-10.2877
-10.2989
-10.3099
-9.99326
-9.99345
-9.99427
-9.99588
-9.99849
-10.0023
-10.0074
-10.0139
-10.0215
-10.0302
-10.0398
-10.0502
-10.0613
-10.0729
-10.085
-10.0973
-10.1098
-10.1225
-10.1352
-10.1479
-10.1606
-10.1733
-10.1858
-10.1982
-10.2105
-10.2226
-10.2345
-10.2462
-10.2577
-10.2689
-10.2799
-10.2906
-10.3011
-9.99819
-9.99836
-9.99898
-10.0002
-10.0024
-10.0057
-10.0102
-10.016
-10.023
-10.0312
-10.0402
-10.0501
-10.0607
-10.0719
-10.0834
-10.0953
-10.1075
-10.1197
-10.1321
-10.1445
-10.1568
-10.1691
-10.1813
-10.1933
-10.2052
-10.2169
-10.2284
-10.2396
-10.2507
-10.2614
-10.2719
-10.2821
-10.292
-10.0031
-10.0032
-10.0035
-10.0042
-10.0058
-10.0085
-10.0124
-10.0175
-10.0239
-10.0315
-10.04
-10.0494
-10.0595
-10.0702
-10.0814
-10.0929
-10.1047
-10.1166
-10.1286
-10.1407
-10.1527
-10.1646
-10.1765
-10.1881
-10.1996
-10.2109
-10.222
-10.2328
-10.2434
-10.2537
-10.2637
-10.2734
-10.2828
-10.008
-10.0081
-10.0079
-10.008
-10.0088
-10.0107
-10.0138
-10.0183
-10.0241
-10.031
-10.0391
-10.048
-10.0577
-10.068
-10.0789
-10.09
-10.1015
-10.1131
-10.1248
-10.1365
-10.1482
-10.1598
-10.1713
-10.1827
-10.1938
-10.2047
-10.2154
-10.2258
-10.236
-10.2458
-10.2553
-10.2645
-10.2734
-10.013
-10.0131
-10.0123
-10.0114
-10.0112
-10.0122
-10.0145
-10.0182
-10.0233
-10.0298
-10.0373
-10.0458
-10.0552
-10.0652
-10.0757
-10.0866
-10.0977
-10.1091
-10.1205
-10.132
-10.1434
-10.1547
-10.1659
-10.1769
-10.1877
-10.1982
-10.2085
-10.2186
-10.2283
-10.2377
-10.2468
-10.2555
-10.2639
-10.0186
-10.0186
-10.0168
-10.0146
-10.0131
-10.0129
-10.0142
-10.0171
-10.0216
-10.0275
-10.0346
-10.0428
-10.0518
-10.0615
-10.0718
-10.0825
-10.0934
-10.1045
-10.1157
-10.1269
-10.1381
-10.1491
-10.1601
-10.1708
-10.1812
-10.1915
-10.2014
-10.2111
-10.2204
-10.2294
-10.2381
-10.2464
-10.2543
-10.025
-10.0249
-10.0217
-10.0175
-10.0143
-10.0127
-10.0129
-10.0149
-10.0187
-10.0241
-10.0308
-10.0387
-10.0475
-10.057
-10.0671
-10.0776
-10.0884
-10.0993
-10.1103
-10.1214
-10.1323
-10.1431
-10.1538
-10.1642
-10.1744
-10.1844
-10.194
-10.2033
-10.2123
-10.2209
-10.2292
-10.2371
-10.2446
-10.033
-10.0326
-10.0271
-10.0201
-10.0147
-10.0113
-10.0101
-10.0112
-10.0144
-10.0194
-10.0258
-10.0335
-10.0421
-10.0515
-10.0615
-10.0719
-10.0825
-10.0934
-10.1043
-10.1151
-10.1259
-10.1366
-10.147
-10.1572
-10.1672
-10.1768
-10.1862
-10.1952
-10.2039
-10.2122
-10.2201
-10.2276
-10.2348
-10.044
-10.0428
-10.0333
-10.0223
-10.014
-10.0084
-10.0057
-10.0058
-10.0084
-10.0129
-10.0192
-10.0267
-10.0353
-10.0447
-10.0546
-10.065
-10.0756
-10.0864
-10.0972
-10.108
-10.1187
-10.1292
-10.1395
-10.1495
-10.1593
-10.1687
-10.1778
-10.1866
-10.195
-10.203
-10.2106
-10.2179
-10.2247
-10.0604
-10.0567
-10.0404
-10.0237
-10.0116
-10.0034
-9.99897
-9.9981
-10.0001
-10.0044
-10.0105
-10.0181
-10.0267
-10.0362
-10.0462
-10.0567
-10.0674
-10.0782
-10.089
-10.0998
-10.1104
-10.1209
-10.1311
-10.141
-10.1507
-10.16
-10.1689
-10.1775
-10.1857
-10.1935
-10.2009
-10.2078
-10.2144
-10.0885
-10.0774
-10.0478
-10.0227
-10.006
-9.9948
-9.98871
-9.98708
-9.98878
-9.99299
-9.99918
-10.0069
-10.0157
-10.0254
-10.0356
-10.0462
-10.0571
-10.068
-10.079
-10.0898
-10.1005
-10.111
-10.1212
-10.1312
-10.1408
-10.15
-10.1589
-10.1674
-10.1755
-10.1832
-10.1905
-10.1973
-10.2038
-10.1406
-10.1123
-10.0587
-10.0199
-9.99577
-9.98011
-9.97217
-9.97021
-9.97212
-9.97685
-9.98377
-9.99227
-10.0019
-10.0122
-10.0231
-10.0343
-10.0457
-10.057
-10.0683
-10.0794
-10.0904
-10.101
-10.1113
-10.1213
-10.131
-10.1402
-10.1491
-10.1575
-10.1655
-10.1731
-10.1802
-10.1869
-10.1932
-10.2198
-10.157
-10.0748
-10.0241
-9.98774
-9.96168
-9.94841
-9.94375
-9.94389
-9.94769
-9.95451
-9.96346
-9.97386
-9.98523
-9.99726
-10.0097
-10.0223
-10.0349
-10.0474
-10.0596
-10.0716
-10.0833
-10.0946
-10.1054
-10.1158
-10.1258
-10.1353
-10.1443
-10.1528
-10.1609
-10.1684
-10.1755
-10.182
-10.364
-10.1308
-10.0054
-9.99836
-9.98851
-9.97428
-9.9708
-9.97247
-9.97475
-9.97805
-9.98302
-9.98936
-9.99672
-10.0049
-10.0138
-10.0232
-10.033
-10.0431
-10.0532
-10.0634
-10.0735
-10.0834
-10.0932
-10.1027
-10.1119
-10.1208
-10.1293
-10.1375
-10.1453
-10.1526
-10.1596
-10.1662
-10.1724
-11.3129
-10.0795
-9.48825
-9.41555
-9.43465
-9.4758
-9.53387
-9.59306
-9.64739
-9.69751
-9.74375
-9.78576
-9.82364
-9.85789
-9.88896
-9.91724
-9.94304
-9.96665
-9.98832
-10.0083
-10.0267
-10.0437
-10.0595
-10.0742
-10.0878
-10.1004
-10.1121
-10.123
-10.1331
-10.1424
-10.151
-10.1588
-10.166
-15.0787
-12.8682
-11.8552
-11.2356
-10.8179
-10.5699
-10.4071
-10.2834
-10.1913
-10.1277
-10.0851
-10.057
-10.0391
-10.0291
-10.0249
-10.025
-10.0281
-10.0334
-10.0402
-10.0482
-10.0569
-10.066
-10.0753
-10.0847
-10.094
-10.1031
-10.112
-10.1206
-10.1288
-10.1366
-10.144
-10.1511
-10.1578
-1.21884
-5.30568
-7.41746
-8.18063
-8.61196
-8.97256
-9.24061
-9.41968
-9.54618
-9.64451
-9.72273
-9.78458
-9.83425
-9.87534
-9.91016
-9.94013
-9.96627
-9.98938
-10.0101
-10.0287
-10.0457
-10.0613
-10.0756
-10.0888
-10.1011
-10.1124
-10.1229
-10.1326
-10.1416
-10.1499
-10.1576
-10.1646
-10.1711
-10.3041
-10.0578
-10.3719
-10.6674
-10.7873
-10.8253
-10.8423
-10.8499
-10.8535
-10.8618
-10.8811
-10.9133
-10.9576
-11.0121
-11.0743
-11.1411
-11.2094
-11.2767
-11.3404
-11.3987
-11.4502
-11.4937
-11.5283
-11.5535
-11.5689
-11.5743
-11.5698
-11.5554
-11.5312
-11.4972
-11.4535
-11.4002
-11.3371
-11.2642
-11.1813
-11.0883
-10.9851
-10.8715
-10.7471
-10.612
-10.4657
-10.3082
-10.1393
-9.959
-9.76709
-9.56367
-9.34889
-9.12299
-8.88622
-8.63902
-8.38199
-8.11578
-7.84117
-7.55909
-7.27055
-6.97669
-6.6787
-6.37788
-6.07556
-5.77311
-5.47191
-5.17331
-4.87866
-4.58921
-4.30615
-4.03056
-3.76341
-3.50553
-3.25762
-3.02023
-2.79379
-2.57857
-2.37475
-2.18236
-2.00134
-1.83153
-1.67266
-1.52439
-1.38637
-1.2581
-1.13911
-1.02891
-0.926992
-0.832831
-0.745908
-0.665743
-0.591845
-0.523774
-0.461069
-0.40338
-0.350209
-0.30143
-0.256176
-0.215161
-0.175838
-0.142286
-0.104849
-0.0818071
-0.0343784
-0.0409481
-10.3592
-10.3457
-10.5464
-10.7003
-10.7388
-10.7377
-10.7388
-10.7442
-10.7541
-10.7729
-10.8037
-10.8462
-10.8984
-10.9584
-11.0239
-11.0924
-11.1615
-11.2289
-11.2925
-11.3504
-11.4016
-11.4449
-11.4793
-11.5044
-11.5198
-11.5252
-11.5208
-11.5065
-11.4825
-11.4487
-11.4052
-11.352
-11.2891
-11.2163
-11.1337
-11.041
-10.9381
-10.8248
-10.7009
-10.5661
-10.4204
-10.2636
-10.0955
-9.91608
-9.72525
-9.52306
-9.30968
-9.08533
-8.85031
-8.60504
-8.3501
-8.08614
-7.81394
-7.53439
-7.24849
-6.95735
-6.66215
-6.36413
-6.06461
-5.76491
-5.46638
-5.17036
-4.87815
-4.59098
-4.31003
-4.03636
-3.77091
-3.51452
-3.26788
-3.03156
-2.80597
-2.59142
-2.38806
-2.19597
-2.01509
-1.84527
-1.68626
-1.53774
-1.39937
-1.27067
-1.15119
-1.04045
-0.937949
-0.843174
-0.755619
-0.674808
-0.600256
-0.531528
-0.468165
-0.40982
-0.355989
-0.306559
-0.260632
-0.218991
-0.178925
-0.144907
-0.106379
-0.0838611
-0.0332975
-0.0460616
-10.3723
-10.3807
-10.4707
-10.5823
-10.6497
-10.6864
-10.7138
-10.7352
-10.7518
-10.7698
-10.7944
-10.8275
-10.8697
-10.9206
-10.9787
-11.042
-11.1077
-11.1731
-11.2357
-11.2935
-11.3447
-11.388
-11.4225
-11.4478
-11.4635
-11.4692
-11.4652
-11.4514
-11.4278
-11.3944
-11.3513
-11.2985
-11.236
-11.1637
-11.0814
-10.9892
-10.8867
-10.7739
-10.6506
-10.5165
-10.3716
-10.2156
-10.0485
-9.87019
-9.68063
-9.47989
-9.26812
-9.04555
-8.81248
-8.56935
-8.3167
-8.0552
-7.78559
-7.50875
-7.22567
-6.93741
-6.64513
-6.35005
-6.05345
-5.75662
-5.46088
-5.16753
-4.87785
-4.59306
-4.31429
-4.0426
-3.77893
-3.5241
-3.27879
-3.04358
-2.8189
-2.60503
-2.40218
-2.21041
-2.02967
-1.85985
-1.70069
-1.55192
-1.41318
-1.28403
-1.16402
-1.05271
-0.949589
-0.85416
-0.765931
-0.684431
-0.609182
-0.539752
-0.475686
-0.416641
-0.362107
-0.311981
-0.265345
-0.223032
-0.182201
-0.147652
-0.10806
-0.0859249
-0.0324177
-0.0509541
-10.378
-10.4005
-10.4709
-10.5729
-10.645
-10.6815
-10.7033
-10.7203
-10.7357
-10.754
-10.7792
-10.8126
-10.854
-10.9027
-10.957
-11.0151
-11.0748
-11.134
-11.1909
-11.2438
-11.291
-11.3313
-11.3639
-11.3881
-11.4031
-11.4089
-11.4051
-11.3915
-11.3683
-11.3353
-11.2927
-11.2404
-11.1784
-11.1066
-11.0249
-10.9332
-10.8314
-10.7193
-10.5967
-10.4635
-10.3194
-10.1645
-9.99855
-9.82154
-9.63344
-9.43432
-9.22433
-9.00372
-8.77279
-8.53195
-8.28177
-8.02287
-7.756
-7.48202
-7.20189
-6.91664
-6.62742
-6.33539
-6.04182
-5.74797
-5.45512
-5.16455
-4.8775
-4.59518
-4.31869
-4.04908
-3.78727
-3.53407
-3.29018
-3.05615
-2.83243
-2.61932
-2.41701
-2.22559
-2.04503
-1.87521
-1.71592
-1.56689
-1.42777
-1.29815
-1.17761
-1.0657
-0.961924
-0.865805
-0.776867
-0.694636
-0.618647
-0.548472
-0.483659
-0.423869
-0.368587
-0.317722
-0.270341
-0.227306
-0.185681
-0.150544
-0.109897
-0.0880383
-0.0317069
-0.055668
-10.3847
-10.4157
-10.4744
-10.5532
-10.6136
-10.6489
-10.6737
-10.6959
-10.7171
-10.7398
-10.7669
-10.8001
-10.8395
-10.8848
-10.9349
-10.9883
-11.0433
-11.098
-11.1507
-11.1996
-11.2432
-11.2804
-11.3102
-11.332
-11.3452
-11.3497
-11.3449
-11.3307
-11.3071
-11.2741
-11.2316
-11.1796
-11.1179
-11.0466
-10.9654
-10.8742
-10.773
-10.6616
-10.5398
-10.4075
-10.2645
-10.1107
-9.946
-9.7704
-9.58387
-9.38649
-9.17841
-8.95987
-8.73118
-8.49277
-8.24516
-7.98899
-7.72497
-7.45396
-7.17688
-6.89476
-6.60868
-6.31982
-6.02939
-5.73862
-5.44878
-5.16109
-4.8768
-4.59705
-4.32296
-4.05553
-3.79569
-3.54423
-3.30184
-3.06909
-2.84641
-2.63412
-2.43242
-2.24141
-2.06106
-1.89129
-1.73189
-1.58261
-1.44311
-1.31303
-1.19194
-1.07941
-0.974951
-0.878115
-0.788433
-0.705435
-0.628664
-0.557703
-0.4921
-0.431522
-0.37545
-0.323801
-0.275634
-0.23183
-0.189383
-0.153597
-0.111904
-0.0902059
-0.031189
-0.060151
-10.3901
-10.4234
-10.4731
-10.536
-10.5902
-10.6278
-10.6562
-10.6811
-10.7042
-10.728
-10.755
-10.7869
-10.8241
-10.8663
-10.9127
-10.9619
-11.0125
-11.0627
-11.1111
-11.156
-11.196
-11.2301
-11.2573
-11.2769
-11.2882
-11.2911
-11.2852
-11.2701
-11.2459
-11.2125
-11.1698
-11.1177
-11.056
-10.9848
-10.9039
-10.8132
-10.7125
-10.6017
-10.4807
-10.3492
-10.2072
-10.0545
-9.89114
-9.71698
-9.53206
-9.33646
-9.13034
-8.91394
-8.68757
-8.45164
-8.20669
-7.95331
-7.69224
-7.42428
-7.15034
-6.87144
-6.58862
-6.30303
-6.01585
-5.72828
-5.44156
-5.15689
-4.87546
-4.59842
-4.32685
-4.06173
-3.80397
-3.55437
-3.31359
-3.08222
-2.86068
-2.6493
-2.44828
-2.25774
-2.07766
-1.90797
-1.7485
-1.59901
-1.45915
-1.32861
-1.20697
-1.0938
-0.988655
-0.891079
-0.800623
-0.716825
-0.639239
-0.567453
-0.50102
-0.439612
-0.382708
-0.330231
-0.281236
-0.236618
-0.193321
-0.156824
-0.114098
-0.0924252
-0.0308957
-0.0643344
-10.3938
-10.427
-10.4707
-10.5234
-10.5719
-10.6091
-10.6385
-10.6645
-10.6891
-10.714
-10.7415
-10.7728
-10.8083
-10.8479
-10.8909
-10.9362
-10.9826
-11.0285
-11.0726
-11.1134
-11.1498
-11.1806
-11.2049
-11.222
-11.2313
-11.2325
-11.2252
-11.2091
-11.184
-11.1501
-11.1069
-11.0545
-10.9928
-10.9216
-10.8409
-10.7505
-10.6502
-10.54
-10.4196
-10.2889
-10.1478
-9.99625
-9.83411
-9.66138
-9.47807
-9.28426
-9.08013
-8.86589
-8.64187
-8.40848
-8.16623
-7.91571
-7.65765
-7.39282
-7.12212
-6.84652
-6.56707
-6.28485
-6.00104
-5.71679
-5.43331
-5.15177
-4.87334
-4.59913
-4.3302
-4.06751
-3.81197
-3.56433
-3.32529
-3.0954
-2.8751
-2.66473
-2.46447
-2.27446
-2.09472
-1.92518
-1.76568
-1.61601
-1.47582
-1.34484
-1.22266
-1.10886
-1.003
-0.904674
-0.813422
-0.728798
-0.650367
-0.577722
-0.510424
-0.448145
-0.390372
-0.337023
-0.28716
-0.241682
-0.197507
-0.160239
-0.11649
-0.0946937
-0.0308527
-0.0681651
-10.396
-10.4282
-10.4675
-10.5128
-10.5561
-10.5919
-10.6218
-10.6487
-10.6743
-10.7
-10.7276
-10.7581
-10.7919
-10.829
-10.8688
-10.9105
-10.9529
-10.9948
-11.0349
-11.0719
-11.1046
-11.1321
-11.1534
-11.1679
-11.175
-11.1743
-11.1654
-11.148
-11.122
-11.0872
-11.0434
-10.9906
-10.9286
-10.8573
-10.7766
-10.6864
-10.5864
-10.4766
-10.3567
-10.2268
-10.0866
-9.93608
-9.77517
-9.60384
-9.42212
-9.2301
-9.02795
-8.81589
-8.59425
-8.36343
-8.12392
-7.87633
-7.62133
-7.3597
-7.09231
-6.82011
-6.5441
-6.26536
-5.985
-5.70418
-5.42405
-5.14576
-4.87044
-4.59918
-4.333
-4.07287
-3.81964
-3.57409
-3.33688
-3.10858
-2.88962
-2.68032
-2.4809
-2.29151
-2.11218
-1.94284
-1.78337
-1.63355
-1.49307
-1.36166
-1.23895
-1.12452
-1.01797
-0.918873
-0.82681
-0.741341
-0.662039
-0.588506
-0.520309
-0.457124
-0.398445
-0.344185
-0.293416
-0.247032
-0.201953
-0.163849
-0.119093
-0.0970099
-0.0310818
-0.0716037
-10.3971
-10.4279
-10.4637
-10.5035
-10.5424
-10.5765
-10.6062
-10.6334
-10.6595
-10.6855
-10.7129
-10.7425
-10.7746
-10.8094
-10.8463
-10.8846
-10.9233
-10.9613
-10.9975
-11.0308
-11.0601
-11.0843
-11.1027
-11.1147
-11.1195
-11.1168
-11.1062
-11.0874
-11.0602
-11.0244
-10.9799
-10.9265
-10.864
-10.7925
-10.7117
-10.6214
-10.5216
-10.4121
-10.2928
-10.1635
-10.0241
-9.87458
-9.71484
-9.54487
-9.36472
-9.17447
-8.97429
-8.76442
-8.54516
-8.31693
-8.08019
-7.83555
-7.58366
-7.32528
-7.06125
-6.7925
-6.52001
-6.24481
-5.968
-5.69068
-5.41399
-5.13903
-4.86691
-4.59868
-4.33536
-4.07786
-3.82704
-3.58367
-3.34839
-3.12176
-2.9042
-2.69605
-2.49755
-2.30885
-2.12999
-1.96091
-1.8015
-1.65157
-1.51084
-1.37903
-1.2558
-1.14075
-1.03351
-0.933646
-0.840762
-0.754433
-0.67424
-0.599794
-0.53067
-0.466547
-0.406929
-0.351719
-0.30001
-0.252676
-0.206665
-0.167663
-0.121916
-0.0993729
-0.0316007
-0.0746142
-10.3971
-10.4263
-10.4592
-10.4948
-10.5301
-10.5624
-10.5915
-10.6185
-10.6446
-10.6706
-10.6975
-10.7261
-10.7566
-10.7891
-10.8232
-10.8582
-10.8934
-10.9278
-10.9604
-10.9901
-11.0159
-11.037
-11.0526
-11.0619
-11.0644
-11.0597
-11.0473
-11.0271
-10.9986
-10.9618
-10.9164
-10.8623
-10.7994
-10.7275
-10.6464
-10.5562
-10.4564
-10.3472
-10.2283
-10.0996
-9.96093
-9.81234
-9.65372
-9.48509
-9.30647
-9.11797
-8.91975
-8.71204
-8.49517
-8.26952
-8.03557
-7.79388
-7.54512
-7.29002
-7.02939
-6.76413
-6.49519
-6.22358
-5.95036
-5.67659
-5.40339
-5.13182
-4.86296
-4.59783
-4.33742
-4.08263
-3.8343
-3.59316
-3.35988
-3.13497
-2.91887
-2.71195
-2.51444
-2.32648
-2.14814
-1.97936
-1.82006
-1.67006
-1.52909
-1.39691
-1.27318
-1.15753
-1.04959
-0.948963
-0.855253
-0.768052
-0.686952
-0.611572
-0.541497
-0.476408
-0.415819
-0.359627
-0.306944
-0.258618
-0.21165
-0.171685
-0.124967
-0.101783
-0.032422
-0.0771664
-10.3962
-10.4238
-10.4542
-10.4865
-10.5188
-10.5492
-10.5773
-10.6039
-10.6297
-10.6553
-10.6815
-10.7089
-10.7378
-10.768
-10.7994
-10.8315
-10.8633
-10.8943
-10.9233
-10.9495
-10.9721
-10.9901
-11.0027
-11.0095
-11.0097
-11.0029
-10.9888
-10.967
-10.9372
-10.8993
-10.853
-10.7982
-10.7347
-10.6624
-10.5812
-10.4908
-10.3911
-10.2821
-10.1635
-10.0353
-9.89745
-9.74977
-9.59226
-9.42493
-9.24782
-9.06105
-8.86477
-8.65923
-8.44474
-8.22167
-7.9905
-7.75178
-7.50616
-7.25433
-6.99711
-6.73536
-6.46999
-6.20199
-5.93238
-5.66221
-5.39252
-5.12438
-4.85882
-4.59683
-4.33938
-4.08734
-3.84154
-3.60269
-3.37143
-3.14829
-2.93373
-2.72808
-2.5316
-2.34442
-2.16663
-1.9982
-1.83903
-1.68899
-1.54782
-1.41528
-1.29106
-1.17482
-1.06619
-0.964799
-0.870259
-0.782176
-0.700156
-0.623825
-0.552778
-0.486697
-0.425111
-0.367904
-0.314217
-0.264861
-0.21691
-0.175919
-0.12825
-0.104242
-0.0335532
-0.0792383
-10.3943
-10.4205
-10.4487
-10.4783
-10.508
-10.5366
-10.5636
-10.5894
-10.6146
-10.6395
-10.6649
-10.691
-10.7182
-10.7463
-10.7751
-10.8042
-10.8329
-10.8605
-10.8862
-10.9091
-10.9284
-10.9434
-10.9532
-10.9574
-10.9553
-10.9465
-10.9305
-10.9072
-10.8761
-10.837
-10.7898
-10.7342
-10.6702
-10.5974
-10.5159
-10.4253
-10.3257
-10.2169
-10.0987
-9.97107
-9.83389
-9.68711
-9.5307
-9.36467
-9.18908
-9.00403
-8.8097
-8.60632
-8.39419
-8.17371
-7.94532
-7.70957
-7.46708
-7.21854
-6.96473
-6.70649
-6.4447
-6.18032
-5.91434
-5.64776
-5.38161
-5.11692
-4.85467
-4.59585
-4.34139
-4.09213
-3.84889
-3.61235
-3.38316
-3.16184
-2.94884
-2.7445
-2.54907
-2.36271
-2.1855
-2.01744
-1.85844
-1.70836
-1.56701
-1.43413
-1.30944
-1.19261
-1.0833
-0.981137
-0.885762
-0.79679
-0.713837
-0.636539
-0.5645
-0.497405
-0.434796
-0.376546
-0.321826
-0.271403
-0.222446
-0.180368
-0.131765
-0.106752
-0.0349954
-0.0808159
-10.3915
-10.4163
-10.4426
-10.4699
-10.4975
-10.5243
-10.55
-10.5749
-10.5993
-10.6234
-10.6477
-10.6725
-10.6979
-10.7239
-10.7502
-10.7765
-10.8022
-10.8266
-10.8491
-10.8688
-10.885
-10.897
-10.904
-10.9057
-10.9013
-10.8904
-10.8726
-10.8476
-10.8152
-10.7749
-10.7267
-10.6704
-10.6057
-10.5325
-10.4507
-10.36
-10.2604
-10.1518
-10.034
-9.90688
-9.77041
-9.62454
-9.46923
-9.30451
-9.13043
-8.94712
-8.75473
-8.55352
-8.34377
-8.12587
-7.90026
-7.66748
-7.42813
-7.18288
-6.93248
-6.67774
-6.41953
-6.15878
-5.89642
-5.63344
-5.37084
-5.1096
-4.85069
-4.59505
-4.34358
-4.09712
-3.85645
-3.62225
-3.39515
-3.17568
-2.96427
-2.76126
-2.56691
-2.38138
-2.20478
-2.0371
-1.87828
-1.7282
-1.58667
-1.45346
-1.3283
-1.21089
-1.10089
-0.997966
-0.90175
-0.811879
-0.727982
-0.6497
-0.576652
-0.508522
-0.444866
-0.385547
-0.329768
-0.278243
-0.228256
-0.185033
-0.13551
-0.109317
-0.0367422
-0.0818964
-10.3878
-10.4112
-10.4359
-10.4613
-10.4869
-10.5121
-10.5365
-10.5603
-10.5837
-10.6068
-10.6299
-10.6532
-10.6769
-10.7008
-10.7248
-10.7484
-10.7712
-10.7926
-10.8119
-10.8285
-10.8417
-10.8508
-10.8552
-10.8543
-10.8476
-10.8346
-10.8151
-10.7885
-10.7546
-10.7132
-10.664
-10.6068
-10.5415
-10.4678
-10.3857
-10.2949
-10.1954
-10.0869
-9.96947
-9.84291
-9.70718
-9.56222
-9.40803
-9.24463
-9.07208
-8.8905
-8.70008
-8.50103
-8.29367
-8.07835
-7.85553
-7.62572
-7.3895
-7.14753
-6.90053
-6.6493
-6.39467
-6.13753
-5.8788
-5.61942
-5.36036
-5.10257
-4.84699
-4.59453
-4.34606
-4.10241
-3.86432
-3.63248
-3.4075
-3.18988
-2.98007
-2.77841
-2.58515
-2.40048
-2.22449
-2.05721
-1.89859
-1.74851
-1.60681
-1.47328
-1.34766
-1.22966
-1.11898
-1.01528
-0.918215
-0.827435
-0.74258
-0.6633
-0.589224
-0.520038
-0.455314
-0.3949
-0.338037
-0.285378
-0.234337
-0.189915
-0.139482
-0.111941
-0.0387811
-0.0824891
-10.3833
-10.4054
-10.4286
-10.4523
-10.4762
-10.4998
-10.5229
-10.5455
-10.5678
-10.5897
-10.6115
-10.6334
-10.6553
-10.6771
-10.6988
-10.7198
-10.7398
-10.7583
-10.7747
-10.7884
-10.7987
-10.805
-10.8067
-10.8034
-10.7944
-10.7794
-10.758
-10.7298
-10.6945
-10.6519
-10.6017
-10.5437
-10.4777
-10.4036
-10.3211
-10.2302
-10.1307
-10.0224
-9.90536
-9.77936
-9.64436
-9.50033
-9.34727
-9.1852
-9.01419
-8.83437
-8.64591
-8.44904
-8.24406
-8.03134
-7.8113
-7.58445
-7.35136
-7.11267
-6.86907
-6.62133
-6.37027
-6.11673
-5.86161
-5.60583
-5.3503
-5.09595
-4.84369
-4.59441
-4.34895
-4.1081
-3.87261
-3.64312
-3.42025
-3.2045
-2.9963
-2.79599
-2.60384
-2.42003
-2.24467
-2.0778
-1.91937
-1.76931
-1.62744
-1.49359
-1.3675
-1.24893
-1.13755
-1.03307
-0.93515
-0.84345
-0.757624
-0.67733
-0.602208
-0.531948
-0.466133
-0.4046
-0.346627
-0.292804
-0.240685
-0.195012
-0.143673
-0.114625
-0.0410936
-0.0826158
-10.3779
-10.3989
-10.4206
-10.4428
-10.4651
-10.4873
-10.5091
-10.5305
-10.5515
-10.5722
-10.5927
-10.613
-10.6331
-10.653
-10.6723
-10.6909
-10.7083
-10.724
-10.7376
-10.7484
-10.7559
-10.7595
-10.7587
-10.753
-10.7418
-10.7248
-10.7015
-10.6717
-10.6351
-10.5912
-10.54
-10.4812
-10.4145
-10.3399
-10.2572
-10.1661
-10.0666
-9.95856
-9.84186
-9.71641
-9.58216
-9.43908
-9.28715
-9.12643
-8.95697
-8.77891
-8.59242
-8.39774
-8.19515
-7.98502
-7.76776
-7.54387
-7.3139
-7.07847
-6.83826
-6.594
-6.34648
-6.09653
-5.84501
-5.5928
-5.34078
-5.08986
-4.84092
-4.5948
-4.35233
-4.11428
-3.88137
-3.65424
-3.43348
-3.21959
-3.013
-2.81405
-2.62301
-2.44006
-2.26534
-2.09888
-1.94066
-1.7906
-1.64857
-1.51439
-1.38785
-1.26868
-1.15661
-1.05134
-0.952549
-0.859918
-0.773106
-0.691783
-0.615597
-0.544242
-0.477315
-0.41464
-0.355534
-0.300518
-0.247296
-0.200323
-0.148079
-0.117372
-0.0436564
-0.0823075
-10.3717
-10.3916
-10.4121
-10.4329
-10.4538
-10.4745
-10.495
-10.5152
-10.5349
-10.5543
-10.5733
-10.5921
-10.6104
-10.6283
-10.6455
-10.6617
-10.6766
-10.6897
-10.7005
-10.7087
-10.7135
-10.7145
-10.7112
-10.7032
-10.6899
-10.6709
-10.6459
-10.6145
-10.5764
-10.5313
-10.4791
-10.4194
-10.3521
-10.277
-10.194
-10.1028
-10.0033
-9.89548
-9.77917
-9.65429
-9.52081
-9.37867
-9.2279
-9.06853
-8.90063
-8.72434
-8.53983
-8.34733
-8.14714
-7.93959
-7.72511
-7.50417
-7.27731
-7.04513
-6.80828
-6.56748
-6.32349
-6.0771
-5.82914
-5.58047
-5.33195
-5.08443
-4.83878
-4.5958
-4.35631
-4.12104
-3.89069
-3.66591
-3.44725
-3.23521
-3.03023
-2.83263
-2.64269
-2.46061
-2.28652
-2.12047
-1.96245
-1.8124
-1.6702
-1.5357
-1.40868
-1.28892
-1.17614
-1.07007
-0.970406
-0.876829
-0.789017
-0.706648
-0.629382
-0.556912
-0.488853
-0.425013
-0.364749
-0.308513
-0.254164
-0.205844
-0.152688
-0.120184
-0.0464414
-0.0816034
-10.3649
-10.3837
-10.403
-10.4225
-10.442
-10.4615
-10.4807
-10.4995
-10.518
-10.536
-10.5536
-10.5708
-10.5874
-10.6033
-10.6184
-10.6323
-10.6448
-10.6554
-10.6637
-10.6692
-10.6715
-10.6701
-10.6644
-10.6541
-10.6387
-10.6178
-10.5911
-10.5581
-10.5187
-10.4724
-10.4192
-10.3587
-10.2908
-10.2152
-10.1318
-10.0405
-9.94105
-9.83344
-9.71752
-9.59324
-9.46052
-9.31935
-9.16974
-9.01173
-8.8454
-8.67089
-8.48836
-8.29805
-8.10024
-7.89528
-7.68356
-7.46555
-7.24178
-7.01282
-6.77931
-6.54195
-6.30145
-6.05859
-5.81417
-5.56901
-5.32394
-5.07979
-4.83739
-4.59753
-4.36098
-4.12846
-3.90066
-3.6782
-3.46162
-3.25143
-3.04803
-2.85177
-2.66293
-2.4817
-2.30823
-2.14258
-1.98476
-1.83471
-1.69234
-1.5575
-1.43001
-1.30964
-1.19615
-1.08927
-0.98871
-0.894173
-0.805346
-0.721915
-0.64355
-0.569948
-0.500735
-0.43571
-0.374265
-0.316782
-0.26128
-0.211571
-0.157492
-0.123063
-0.0494167
-0.0805488
-10.3573
-10.3752
-10.3933
-10.4116
-10.4299
-10.4481
-10.466
-10.4836
-10.5007
-10.5174
-10.5335
-10.5491
-10.564
-10.5781
-10.5911
-10.6029
-10.6131
-10.6213
-10.6272
-10.6303
-10.6301
-10.6263
-10.6184
-10.606
-10.5885
-10.5658
-10.5373
-10.5029
-10.4621
-10.4147
-10.3604
-10.2991
-10.2306
-10.1545
-10.0708
-9.9794
-9.88005
-9.77267
-9.65717
-9.53348
-9.40155
-9.26136
-9.11292
-8.95628
-8.79153
-8.6188
-8.43825
-8.25012
-8.05469
-7.8523
-7.64333
-7.42823
-7.20752
-6.98176
-6.75156
-6.51759
-6.28054
-6.04117
-5.80025
-5.55855
-5.3169
-5.07608
-4.83689
-4.60009
-4.36645
-4.13665
-3.91137
-3.69119
-3.47667
-3.26829
-3.06645
-2.87152
-2.68375
-2.50337
-2.3305
-2.16524
-2.0076
-1.85754
-1.71499
-1.5798
-1.45181
-1.33083
-1.21661
-1.10891
-1.00745
-0.911936
-0.822079
-0.737569
-0.658087
-0.583334
-0.512949
-0.446717
-0.384068
-0.325315
-0.268634
-0.217497
-0.162475
-0.126011
-0.0525471
-0.0791931
-10.3493
-10.3661
-10.3832
-10.4004
-10.4175
-10.4344
-10.4511
-10.4674
-10.4832
-10.4985
-10.5132
-10.5273
-10.5405
-10.5527
-10.5638
-10.5735
-10.5815
-10.5875
-10.591
-10.5918
-10.5894
-10.5833
-10.5733
-10.5587
-10.5394
-10.5149
-10.4848
-10.4488
-10.4068
-10.3582
-10.303
-10.241
-10.1718
-10.0953
-10.0113
-9.91981