/*--------------------------------*- C++ -*----------------------------------*\
  =========                 |
  \\      /  F ield         | OpenFOAM: The Open Source CFD Toolbox
   \\    /   O peration     | Website:  https://openfoam.org
    \\  /    A nd           | Version:  10
     \\/     M anipulation  |
\*---------------------------------------------------------------------------*/
FoamFile
{
    format      ascii;
    class       volVectorField;
    location    "1500";
    object      U;
}
// * * * * * * * * * * * * * * * * * * * * * * * * * * * * * * * * * * * * * //

dimensions      [0 1 -1 0 0 0 0];

internalField   nonuniform List<vector> 
6820
(
(7.13228 -2.83247 0)
(7.73434 -2.22097 0)
(7.93449 -1.24474 0)
(7.85773 -0.630601 0)
(7.69325 -0.300932 0)
(7.51793 -0.135204 0)
(7.34937 -0.0534978 0)
(7.19464 -0.0130616 0)
(7.05696 0.00686715 0)
(6.93551 0.0163319 0)
(6.82785 0.0203888 0)
(6.73178 0.0216658 0)
(6.64555 0.0215365 0)
(6.56776 0.0207163 0)
(6.49717 0.0195829 0)
(6.43281 0.0183394 0)
(6.37386 0.0170934 0)
(6.31967 0.0158989 0)
(6.26967 0.0147809 0)
(6.2234 0.0137487 0)
(6.18045 0.0128038 0)
(6.14049 0.0119433 0)
(6.1032 0.011163 0)
(6.06832 0.0104588 0)
(6.03561 0.00982742 0)
(6.00485 0.00926768 0)
(5.97583 0.00878237 0)
(5.9483 0.00837817 0)
(5.9221 0.00807944 0)
(5.89674 0.00789206 0)
(5.87247 0.00796193 0)
(5.84672 0.00853387 0)
(5.82144 0.00726381 0)
(7.57676 0.619467 0)
(7.41857 0.759313 0)
(7.35518 0.519488 0)
(7.35369 0.338997 0)
(7.40446 0.233422 0)
(7.46267 0.167013 0)
(7.50281 0.124255 0)
(7.52297 0.0970533 0)
(7.52876 0.0793559 0)
(7.52456 0.067265 0)
(7.51319 0.0586446 0)
(7.49678 0.0523005 0)
(7.47706 0.0474902 0)
(7.45523 0.043726 0)
(7.43209 0.0406878 0)
(7.4082 0.0381703 0)
(7.38396 0.0360378 0)
(7.35967 0.0341968 0)
(7.33552 0.0325821 0)
(7.31166 0.0311477 0)
(7.28819 0.0298609 0)
(7.26519 0.0286982 0)
(7.2427 0.0276429 0)
(7.22075 0.0266837 0)
(7.19937 0.0258144 0)
(7.17857 0.0250335 0)
(7.15833 0.0243473 0)
(7.13865 0.0237657 0)
(7.11955 0.0233336 0)
(7.1009 0.0230541 0)
(7.08311 0.0232333 0)
(7.0651 0.0233636 0)
(7.05001 0.0260768 0)
(7.26194 -0.0479152 0)
(7.1598 -0.0719006 0)
(7.19681 -0.084504 0)
(7.23914 -0.0533704 0)
(7.27631 -0.0172243 0)
(7.31446 0.00633598 0)
(7.34737 0.0206556 0)
(7.37269 0.0300097 0)
(7.39198 0.0360096 0)
(7.40651 0.0394917 0)
(7.41688 0.0412578 0)
(7.42374 0.0419543 0)
(7.42781 0.0419908 0)
(7.42965 0.0416118 0)
(7.42972 0.0409759 0)
(7.42835 0.0401908 0)
(7.42584 0.0393271 0)
(7.42241 0.038429 0)
(7.41824 0.0375244 0)
(7.41349 0.0366318 0)
(7.40827 0.035763 0)
(7.40268 0.0349263 0)
(7.39679 0.0341277 0)
(7.39068 0.0333726 0)
(7.38439 0.0326672 0)
(7.37797 0.0320197 0)
(7.37144 0.0314437 0)
(7.36483 0.0309544 0)
(7.35817 0.0305961 0)
(7.35143 0.0303835 0)
(7.34478 0.0305098 0)
(7.33791 0.030768 0)
(7.33177 0.0322448 0)
(7.29243 -0.0887265 0)
(7.22393 -0.0614745 0)
(7.23483 -0.0269021 0)
(7.25116 -0.00103634 0)
(7.26561 0.0189075 0)
(7.28496 0.0304679 0)
(7.3045 0.0362712 0)
(7.3213 0.0394537 0)
(7.33583 0.0412384 0)
(7.34851 0.0420167 0)
(7.35932 0.0421283 0)
(7.36833 0.0418652 0)
(7.37579 0.0413955 0)
(7.38191 0.0408028 0)
(7.38689 0.0401376 0)
(7.39089 0.0394354 0)
(7.39404 0.0387194 0)
(7.39647 0.038004 0)
(7.39829 0.0372979 0)
(7.39958 0.0366078 0)
(7.40042 0.0359383 0)
(7.40088 0.0352937 0)
(7.401 0.0346783 0)
(7.40083 0.0340969 0)
(7.40041 0.0335564 0)
(7.39978 0.0330659 0)
(7.39895 0.0326402 0)
(7.39796 0.0322974 0)
(7.39683 0.0320758 0)
(7.39557 0.0320007 0)
(7.39427 0.0321949 0)
(7.39289 0.0325704 0)
(7.39185 0.0336702 0)
(7.31244 -0.0515043 0)
(7.26793 -0.0318779 0)
(7.26467 -0.0126221 0)
(7.26769 -6.12996e-05 0)
(7.27322 0.0130499 0)
(7.28436 0.0226447 0)
(7.29691 0.0282805 0)
(7.30833 0.0318805 0)
(7.31873 0.0343731 0)
(7.32834 0.0359761 0)
(7.33701 0.0368974 0)
(7.3447 0.0373667 0)
(7.35152 0.0375374 0)
(7.35756 0.037497 0)
(7.3629 0.0373051 0)
(7.36763 0.0370078 0)
(7.37181 0.0366387 0)
(7.37551 0.0362215 0)
(7.37879 0.0357733 0)
(7.38169 0.0353072 0)
(7.38427 0.0348338 0)
(7.38655 0.0343618 0)
(7.38857 0.0338993 0)
(7.39037 0.0334545 0)
(7.39196 0.0330366 0)
(7.39337 0.0326569 0)
(7.39462 0.0323308 0)
(7.39573 0.0320769 0)
(7.39673 0.0319259 0)
(7.39765 0.0319038 0)
(7.39854 0.0320807 0)
(7.39946 0.0324349 0)
(7.40062 0.0331952 0)
(7.3203 -0.0314419 0)
(7.28849 -0.0238403 0)
(7.28204 -0.0120271 0)
(7.2814 -0.00207565 0)
(7.28395 0.00926369 0)
(7.29103 0.0182338 0)
(7.2996 0.0239806 0)
(7.30776 0.0278554 0)
(7.31545 0.0306226 0)
(7.32275 0.0324981 0)
(7.32955 0.0336834 0)
(7.33577 0.0343954 0)
(7.34147 0.0347845 0)
(7.34668 0.0349414 0)
(7.35147 0.0349288 0)
(7.35586 0.0347944 0)
(7.35989 0.0345733 0)
(7.36361 0.0342908 0)
(7.36704 0.0339653 0)
(7.37022 0.0336111 0)
(7.37317 0.0332397 0)
(7.37592 0.0328608 0)
(7.37848 0.0324833 0)
(7.38088 0.032116 0)
(7.38312 0.0317684 0)
(7.38524 0.0314516 0)
(7.38724 0.0311796 0)
(7.38915 0.0309687 0)
(7.39099 0.0308419 0)
(7.3928 0.0308196 0)
(7.39462 0.0309398 0)
(7.39653 0.0311965 0)
(7.39867 0.0316679 0)
(7.32446 -0.0216684 0)
(7.30104 -0.0195837 0)
(7.29416 -0.0109361 0)
(7.2922 -0.00220589 0)
(7.29331 0.00754848 0)
(7.29804 0.0155674 0)
(7.30423 0.0210611 0)
(7.3104 0.0249094 0)
(7.3164 0.0277042 0)
(7.32221 0.0296598 0)
(7.32772 0.0309642 0)
(7.33287 0.0318076 0)
(7.33767 0.032326 0)
(7.34214 0.0326064 0)
(7.34633 0.0327098 0)
(7.35025 0.0326831 0)
(7.35392 0.0325607 0)
(7.35737 0.032368 0)
(7.36063 0.0321241 0)
(7.3637 0.0318436 0)
(7.36662 0.0315388 0)
(7.36939 0.0312197 0)
(7.37203 0.0308955 0)
(7.37455 0.0305751 0)
(7.37697 0.0302677 0)
(7.3793 0.0299836 0)
(7.38155 0.0297345 0)
(7.38375 0.0295334 0)
(7.38592 0.0293959 0)
(7.3881 0.0293351 0)
(7.39032 0.0293675 0)
(7.39265 0.0294845 0)
(7.39518 0.029694 0)
(7.32737 -0.0149967 0)
(7.31004 -0.0151784 0)
(7.30324 -0.00892703 0)
(7.3006 -0.00165642 0)
(7.30082 0.00655606 0)
(7.30407 0.0136039 0)
(7.30871 0.0187402 0)
(7.31359 0.0224769 0)
(7.31849 0.0252427 0)
(7.32332 0.0272307 0)
(7.32796 0.0286085 0)
(7.33235 0.0295397 0)
(7.33651 0.0301463 0)
(7.34043 0.0305106 0)
(7.34414 0.0306925 0)
(7.34766 0.0307375 0)
(7.35099 0.0306797 0)
(7.35417 0.0305447 0)
(7.3572 0.030352 0)
(7.36009 0.0301168 0)
(7.36287 0.0298515 0)
(7.36554 0.0295664 0)
(7.36812 0.0292707 0)
(7.37062 0.0289731 0)
(7.37304 0.0286821 0)
(7.3754 0.0284065 0)
(7.37772 0.0281554 0)
(7.38001 0.0279384 0)
(7.38229 0.0277647 0)
(7.38461 0.02764 0)
(7.38698 0.0275673 0)
(7.38947 0.0275321 0)
(7.39214 0.0275135 0)
(7.3294 -0.00998039 0)
(7.31672 -0.0111257 0)
(7.3103 -0.0068021 0)
(7.30731 -0.000930286 0)
(7.30696 0.00594017 0)
(7.30918 0.0120996 0)
(7.31272 0.0168405 0)
(7.31668 0.020416 0)
(7.32079 0.0231157 0)
(7.32491 0.0251008 0)
(7.32893 0.0265165 0)
(7.33279 0.0275028 0)
(7.33647 0.0281681 0)
(7.33999 0.0285898 0)
(7.34334 0.0288256 0)
(7.34654 0.0289197 0)
(7.3496 0.0289057 0)
(7.35254 0.028809 0)
(7.35537 0.0286493 0)
(7.35809 0.028442 0)
(7.36073 0.0281996 0)
(7.36328 0.0279326 0)
(7.36577 0.0276498 0)
(7.36819 0.0273594 0)
(7.37056 0.027069 0)
(7.37289 0.0267857 0)
(7.3752 0.0265164 0)
(7.3775 0.0262669 0)
(7.37981 0.0260414 0)
(7.38216 0.02584 0)
(7.38458 0.0256573 0)
(7.3871 0.0254748 0)
(7.38976 0.0252622 0)
(7.33075 -0.00639865 0)
(7.32165 -0.00775909 0)
(7.31591 -0.00478169 0)
(7.31286 -8.94564e-05 0)
(7.31212 0.00562407 0)
(7.31358 0.0109657 0)
(7.3163 0.0152821 0)
(7.31955 0.0186502 0)
(7.32304 0.0212467 0)
(7.32661 0.0231959 0)
(7.33015 0.024619 0)
(7.3336 0.0256338 0)
(7.33692 0.0263355 0)
(7.34012 0.0267955 0)
(7.34319 0.0270683 0)
(7.34615 0.0271964 0)
(7.349 0.0272123 0)
(7.35175 0.0271412 0)
(7.35441 0.0270026 0)
(7.35699 0.0268119 0)
(7.35949 0.0265817 0)
(7.36194 0.026322 0)
(7.36433 0.0260416 0)
(7.36667 0.0257478 0)
(7.36898 0.0254472 0)
(7.37126 0.0251454 0)
(7.37353 0.024847 0)
(7.3758 0.0245549 0)
(7.3781 0.0242695 0)
(7.38043 0.0239868 0)
(7.38283 0.0236969 0)
(7.38532 0.0233801 0)
(7.38792 0.0230053 0)
(7.33162 -0.00393363 0)
(7.32523 -0.00506449 0)
(7.32038 -0.00293065 0)
(7.31749 0.000815158 0)
(7.31653 0.00553556 0)
(7.31744 0.0101264 0)
(7.31951 0.0140026 0)
(7.32219 0.0171265 0)
(7.32517 0.019587 0)
(7.32829 0.0214712 0)
(7.33145 0.0228752 0)
(7.33455 0.0238958 0)
(7.33759 0.0246151 0)
(7.34053 0.0250976 0)
(7.34338 0.025394 0)
(7.34614 0.0255442 0)
(7.34881 0.0255796 0)
(7.3514 0.0255246 0)
(7.35392 0.0253984 0)
(7.35638 0.0252162 0)
(7.35877 0.0249902 0)
(7.36112 0.0247304 0)
(7.36342 0.0244448 0)
(7.36569 0.0241402 0)
(7.36793 0.023822 0)
(7.37016 0.0234945 0)
(7.37238 0.0231604 0)
(7.37461 0.0228203 0)
(7.37687 0.0224719 0)
(7.37916 0.022109 0)
(7.38151 0.0217196 0)
(7.38393 0.0212846 0)
(7.38643 0.0207758 0)
(7.33218 -0.00226502 0)
(7.32778 -0.00296154 0)
(7.32388 -0.00131009 0)
(7.32132 0.00171023 0)
(7.3203 0.00559927 0)
(7.32082 0.00951479 0)
(7.32241 0.0129525 0)
(7.32461 0.0158078 0)
(7.32717 0.0181059 0)
(7.32992 0.0198996 0)
(7.33274 0.0212608 0)
(7.33556 0.0222668 0)
(7.33834 0.0229867 0)
(7.34107 0.0234775 0)
(7.34373 0.0237855 0)
(7.34632 0.0239477 0)
(7.34884 0.0239937 0)
(7.3513 0.0239471 0)
(7.3537 0.0238263 0)
(7.35605 0.0236461 0)
(7.35835 0.0234184 0)
(7.36061 0.0231526 0)
(7.36284 0.0228563 0)
(7.36504 0.0225356 0)
(7.36722 0.0221949 0)
(7.36939 0.0218372 0)
(7.37156 0.0214637 0)
(7.37374 0.0210735 0)
(7.37594 0.0206628 0)
(7.37817 0.0202239 0)
(7.38045 0.0197449 0)
(7.38279 0.0192083 0)
(7.38519 0.0185899 0)
(7.33252 -0.00115346 0)
(7.32957 -0.00136959 0)
(7.32658 3.80171e-05 0)
(7.32445 0.00252866 0)
(7.3235 0.00574519 0)
(7.32378 0.00907021 0)
(7.325 0.0120878 0)
(7.32683 0.0146634 0)
(7.32903 0.0167799 0)
(7.33145 0.0184621 0)
(7.33399 0.0197597 0)
(7.33656 0.0207326 0)
(7.33913 0.0214374 0)
(7.34166 0.0219234 0)
(7.34416 0.0222318 0)
(7.3466 0.0223967 0)
(7.349 0.0224454 0)
(7.35134 0.0224002 0)
(7.35364 0.0222788 0)
(7.35589 0.0220952 0)
(7.35811 0.0218608 0)
(7.36029 0.0215846 0)
(7.36244 0.0212735 0)
(7.36458 0.0209329 0)
(7.3667 0.0205663 0)
(7.36881 0.0201758 0)
(7.37093 0.0197616 0)
(7.37305 0.0193216 0)
(7.37519 0.0188513 0)
(7.37736 0.0183427 0)
(7.37956 0.0177848 0)
(7.3818 0.0171622 0)
(7.38409 0.016455 0)
(7.33273 -0.000428068 0)
(7.3308 -0.000204541 0)
(7.32861 0.00110338 0)
(7.32695 0.00322266 0)
(7.32615 0.00591231 0)
(7.32632 0.0087361 0)
(7.32729 0.0113658 0)
(7.32882 0.0136633 0)
(7.33073 0.0155874 0)
(7.33288 0.0171421 0)
(7.33517 0.0183592 0)
(7.33752 0.0192826 0)
(7.3399 0.0199581 0)
(7.34226 0.0204271 0)
(7.34461 0.0207257 0)
(7.34692 0.0208844 0)
(7.3492 0.0209285 0)
(7.35144 0.0208784 0)
(7.35364 0.0207509 0)
(7.35581 0.0205592 0)
(7.35795 0.020314 0)
(7.36006 0.0200237 0)
(7.36215 0.0196945 0)
(7.36422 0.0193313 0)
(7.36628 0.0189369 0)
(7.36834 0.0185126 0)
(7.3704 0.0180578 0)
(7.37246 0.0175699 0)
(7.37454 0.0170441 0)
(7.37663 0.0164731 0)
(7.37875 0.0158467 0)
(7.3809 0.0151523 0)
(7.38307 0.0143737 0)
(7.33285 3.37359e-05 0)
(7.33162 0.000617393 0)
(7.3301 0.00190145 0)
(7.32889 0.00376578 0)
(7.3283 0.00605242 0)
(7.32845 0.00846203 0)
(7.32926 0.0107457 0)
(7.33058 0.0127775 0)
(7.33225 0.0145067 0)
(7.33417 0.015924 0)
(7.33625 0.0170472 0)
(7.33841 0.0179079 0)
(7.34062 0.0185415 0)
(7.34283 0.0189824 0)
(7.34505 0.0192616 0)
(7.34724 0.0194061 0)
(7.34941 0.0194386 0)
(7.35156 0.0193779 0)
(7.35368 0.0192392 0)
(7.35577 0.0190352 0)
(7.35783 0.0187756 0)
(7.35988 0.0184681 0)
(7.3619 0.0181186 0)
(7.36392 0.017731 0)
(7.36592 0.0173078 0)
(7.36791 0.0168496 0)
(7.36991 0.0163555 0)
(7.37191 0.0158227 0)
(7.37392 0.0152466 0)
(7.37594 0.0146204 0)
(7.37798 0.0139356 0)
(7.38003 0.0131818 0)
(7.3821 0.0123462 0)
(7.33292 0.000318541 0)
(7.33217 0.00117261 0)
(7.33117 0.00246329 0)
(7.33036 0.004151 0)
(7.32999 0.00613275 0)
(7.33019 0.00820669 0)
(7.33092 0.01019 0)
(7.33209 0.0119765 0)
(7.33358 0.0135156 0)
(7.33532 0.0147914 0)
(7.33721 0.015812 0)
(7.33921 0.0165994 0)
(7.34126 0.0171807 0)
(7.34334 0.0175838 0)
(7.34544 0.0178352 0)
(7.34752 0.017958 0)
(7.3496 0.0179725 0)
(7.35166 0.0178957 0)
(7.3537 0.0177415 0)
(7.35571 0.0175213 0)
(7.35771 0.0172443 0)
(7.35969 0.0169173 0)
(7.36166 0.0165455 0)
(7.36361 0.0161326 0)
(7.36555 0.0156803 0)
(7.36749 0.0151892 0)
(7.36943 0.0146579 0)
(7.37136 0.0140838 0)
(7.3733 0.0134627 0)
(7.37525 0.0127887 0)
(7.3772 0.0120547 0)
(7.37916 0.0112524 0)
(7.38112 0.0103719 0)
(7.33296 0.000486143 0)
(7.33253 0.00152629 0)
(7.33192 0.00282705 0)
(7.33145 0.00438646 0)
(7.33129 0.00613602 0)
(7.33157 0.00794016 0)
(7.33227 0.00966741 0)
(7.33334 0.0112333 0)
(7.3347 0.0125926 0)
(7.33629 0.0137277 0)
(7.33803 0.0146412 0)
(7.33988 0.015348 0)
(7.34181 0.0158688 0)
(7.34377 0.0162263 0)
(7.34575 0.0164422 0)
(7.34774 0.0165368 0)
(7.34973 0.0165276 0)
(7.3517 0.0164299 0)
(7.35367 0.0162561 0)
(7.35562 0.0160165 0)
(7.35755 0.0157194 0)
(7.35947 0.0153709 0)
(7.36137 0.0149759 0)
(7.36327 0.0145371 0)
(7.36515 0.0140564 0)
(7.36703 0.0135337 0)
(7.3689 0.0129679 0)
(7.37077 0.0123565 0)
(7.37264 0.0116958 0)
(7.37451 0.010981 0)
(7.37638 0.0102063 0)
(7.37825 0.00936514 0)
(7.38011 0.00844987 0)
(7.33299 0.000577108 0)
(7.33276 0.00173159 0)
(7.33244 0.00303208 0)
(7.33222 0.00449013 0)
(7.33226 0.00605822 0)
(7.33262 0.00764433 0)
(7.33332 0.00915498 0)
(7.33433 0.0105254 0)
(7.33559 0.0117182 0)
(7.33706 0.0127174 0)
(7.33869 0.0135227 0)
(7.34042 0.0141446 0)
(7.34223 0.0145991 0)
(7.34408 0.0149044 0)
(7.34597 0.0150788 0)
(7.34787 0.0151395 0)
(7.34977 0.0151017 0)
(7.35167 0.0149788 0)
(7.35356 0.0147818 0)
(7.35544 0.01452 0)
(7.35731 0.0142007 0)
(7.35917 0.0138295 0)
(7.36102 0.0134104 0)
(7.36286 0.012946 0)
(7.36468 0.0124377 0)
(7.3665 0.0118855 0)
(7.36831 0.0112882 0)
(7.37012 0.0106438 0)
(7.37192 0.00994899 0)
(7.37371 0.00919998 0)
(7.37549 0.00839213 0)
(7.37727 0.00752044 0)
(7.37903 0.00657901 0)
(7.333 0.000618638 0)
(7.33291 0.00183051 0)
(7.33279 0.00311518 0)
(7.33276 0.00448515 0)
(7.33294 0.00590532 0)
(7.33338 0.00731182 0)
(7.33409 0.00863828 0)
(7.33507 0.00983632 0)
(7.33626 0.0108769 0)
(7.33764 0.0117468 0)
(7.33916 0.0124454 0)
(7.34079 0.0129805 0)
(7.3425 0.0133649 0)
(7.34426 0.0136134 0)
(7.34606 0.0137414 0)
(7.34787 0.0137635 0)
(7.3497 0.0136929 0)
(7.35153 0.0135412 0)
(7.35335 0.0133181 0)
(7.35517 0.0130318 0)
(7.35698 0.0126886 0)
(7.35878 0.0122936 0)
(7.36057 0.0118503 0)
(7.36235 0.0113608 0)
(7.36412 0.0108264 0)
(7.36587 0.0102469 0)
(7.36762 0.00962146 0)
(7.36936 0.00894822 0)
(7.37109 0.00822464 0)
(7.3728 0.00744759 0)
(7.37451 0.00661354 0)
(7.3762 0.00571866 0)
(7.37786 0.00475849 0)
(7.333 0.00062888 0)
(7.333 0.00185558 0)
(7.33301 0.00310889 0)
(7.33312 0.00439624 0)
(7.3334 0.00568984 0)
(7.3339 0.00694395 0)
(7.33462 0.00811126 0)
(7.33557 0.00915636 0)
(7.33671 0.0100577 0)
(7.33801 0.0108058 0)
(7.33945 0.0114005 0)
(7.34099 0.0118486 0)
(7.34261 0.0121605 0)
(7.34429 0.012349 0)
(7.346 0.0124269 0)
(7.34774 0.0124067 0)
(7.34949 0.0122998 0)
(7.35126 0.0121163 0)
(7.35302 0.0118647 0)
(7.35477 0.0115519 0)
(7.35652 0.0111838 0)
(7.35826 0.0107644 0)
(7.35999 0.010297 0)
(7.36171 0.00978334 0)
(7.36342 0.00922445 0)
(7.36512 0.00862028 0)
(7.3668 0.00797005 0)
(7.36847 0.00727225 0)
(7.37013 0.00652491 0)
(7.37177 0.00572555 0)
(7.3734 0.00487155 0)
(7.375 0.00395999 0)
(7.37658 0.00298759 0)
(7.33301 0.000619992 0)
(7.33305 0.00183179 0)
(7.33314 0.00304104 0)
(7.33333 0.00424768 0)
(7.33368 0.00542813 0)
(7.33421 0.00654851 0)
(7.33494 0.00757498 0)
(7.33585 0.00848226 0)
(7.33694 0.00925537 0)
(7.33818 0.00988834 0)
(7.33954 0.0103824 0)
(7.341 0.0107439 0)
(7.34254 0.0109822 0)
(7.34414 0.0111083 0)
(7.34578 0.0111332 0)
(7.34745 0.0110677 0)
(7.34913 0.0109218 0)
(7.35082 0.010704 0)
(7.35252 0.0104218 0)
(7.35422 0.0100812 0)
(7.35591 0.00968714 0)
(7.35759 0.00924325 0)
(7.35926 0.00875215 0)
(7.36093 0.0082155 0)
(7.36257 0.00763405 0)
(7.36421 0.00700782 0)
(7.36583 0.00633616 0)
(7.36744 0.00561794 0)
(7.36902 0.00485154 0)
(7.37059 0.00403519 0)
(7.37214 0.00316686 0)
(7.37366 0.0022445 0)
(7.37516 0.00126559 0)
(7.33301 0.000600301 0)
(7.33307 0.00177849 0)
(7.33321 0.00293528 0)
(7.33344 0.00406235 0)
(7.33382 0.00513843 0)
(7.33435 0.00613774 0)
(7.33506 0.00703625 0)
(7.33594 0.00781674 0)
(7.33698 0.00846985 0)
(7.33815 0.00899304 0)
(7.33944 0.00938913 0)
(7.34082 0.00966468 0)
(7.34228 0.00982845 0)
(7.34381 0.0098902 0)
(7.34537 0.00985979 0)
(7.34697 0.00974662 0)
(7.34858 0.00955921 0)
(7.35021 0.00930508 0)
(7.35185 0.00899057 0)
(7.35348 0.00862093 0)
(7.35512 0.0082003 0)
(7.35674 0.0077318 0)
(7.35835 0.00721765 0)
(7.35996 0.00665922 0)
(7.36155 0.00605716 0)
(7.36312 0.00541148 0)
(7.36468 0.00472168 0)
(7.36622 0.00398687 0)
(7.36774 0.00320586 0)
(7.36924 0.00237733 0)
(7.37071 0.00149982 0)
(7.37215 0.000571862 0)
(7.37357 -0.000408455 0)
(7.33301 0.000575791 0)
(7.33308 0.00171123 0)
(7.33322 0.00281218 0)
(7.33346 0.00386185 0)
(7.33383 0.0048401 0)
(7.33435 0.00572711 0)
(7.33502 0.00650645 0)
(7.33584 0.00716762 0)
(7.33681 0.00770625 0)
(7.33791 0.0081231 0)
(7.33913 0.00842277 0)
(7.34043 0.00861238 0)
(7.34182 0.00870048 0)
(7.34326 0.00869608 0)
(7.34475 0.00860808 0)
(7.34628 0.00844478 0)
(7.34783 0.00821364 0)
(7.34939 0.00792114 0)
(7.35097 0.00757273 0)
(7.35254 0.00717288 0)
(7.35411 0.00672507 0)
(7.35568 0.00623194 0)
(7.35724 0.00569533 0)
(7.35878 0.00511633 0)
(7.36031 0.00449549 0)
(7.36183 0.00383281 0)
(7.36332 0.0031279 0)
(7.3648 0.00238008 0)
(7.36625 0.00158851 0)
(7.36768 0.000752169 0)
(7.36908 -0.000129912 0)
(7.37046 -0.00105883 0)
(7.3718 -0.00203598 0)
(7.33301 0.000551182 0)
(7.33307 0.0016434 0)
(7.3332 0.00269061 0)
(7.33341 0.00366726 0)
(7.33374 0.00455367 0)
(7.3342 0.00533486 0)
(7.33481 0.00600085 0)
(7.33556 0.00654722 0)
(7.33645 0.00697435 0)
(7.33747 0.00728628 0)
(7.3386 0.00748952 0)
(7.33982 0.00759208 0)
(7.34113 0.00760258 0)
(7.34249 0.00752962 0)
(7.34391 0.00738136 0)
(7.34536 0.00716525 0)
(7.34684 0.00688784 0)
(7.34834 0.00655473 0)
(7.34985 0.0061706 0)
(7.35136 0.00573919 0)
(7.35287 0.00526342 0)
(7.35438 0.00474545 0)
(7.35588 0.00418672 0)
(7.35737 0.00358816 0)
(7.35884 0.00295011 0)
(7.3603 0.00227259 0)
(7.36174 0.00155527 0)
(7.36315 0.000797657 0)
(7.36454 -9.24272e-07 0)
(7.36591 -0.000841149 0)
(7.36724 -0.00172375 0)
(7.36855 -0.00264947 0)
(7.36982 -0.0036194 0)
(7.33301 0.000530761 0)
(7.33305 0.00158788 0)
(7.33313 0.00258955 0)
(7.33329 0.00350069 0)
(7.33354 0.00430177 0)
(7.33392 0.00498237 0)
(7.33443 0.00553869 0)
(7.33509 0.00597228 0)
(7.33588 0.0062884 0)
(7.3368 0.00649456 0)
(7.33783 0.00659946 0)
(7.33896 0.00661224 0)
(7.34018 0.00654187 0)
(7.34146 0.0063968 0)
(7.34279 0.00618468 0)
(7.34417 0.00591227 0)
(7.34558 0.00558537 0)
(7.34701 0.00520882 0)
(7.34846 0.0047866 0)
(7.34991 0.00432181 0)
(7.35136 0.00381683 0)
(7.35282 0.00327335 0)
(7.35426 0.00269252 0)
(7.35569 0.00207493 0)
(7.35711 0.00142088 0)
(7.35852 0.000730265 0)
(7.3599 2.83118e-06 0)
(7.36125 -0.000761876 0)
(7.36259 -0.00156433 0)
(7.36389 -0.00240509 0)
(7.36517 -0.00328462 0)
(7.36641 -0.00420352 0)
(7.36762 -0.0051626 0)
(7.333 0.000519156 0)
(7.33301 0.00155895 0)
(7.33303 0.00253044 0)
(7.33309 0.0033875 0)
(7.33323 0.00411096 0)
(7.33348 0.00469549 0)
(7.33387 0.00514389 0)
(7.3344 0.00546421 0)
(7.33507 0.00566711 0)
(7.33587 0.00576399 0)
(7.33679 0.00576614 0)
(7.33782 0.00568416 0)
(7.33893 0.00552767 0)
(7.34012 0.00530517 0)
(7.34137 0.00502404 0)
(7.34267 0.00469051 0)
(7.34401 0.00430972 0)
(7.34537 0.00388589 0)
(7.34675 0.00342231 0)
(7.34815 0.00292152 0)
(7.34955 0.00238537 0)
(7.35095 0.00181511 0)
(7.35234 0.00121152 0)
(7.35373 0.000574985 0)
(7.3551 -9.44193e-05 0)
(7.35645 -0.000796867 0)
(7.35778 -0.00153266 0)
(7.35909 -0.00230222 0)
(7.36037 -0.00310596 0)
(7.36162 -0.00394434 0)
(7.36285 -0.00481772 0)
(7.36403 -0.00572657 0)
(7.36519 -0.00667158 0)
(7.333 0.00052227 0)
(7.33296 0.00157477 0)
(7.33286 0.00254039 0)
(7.33278 0.00335962 0)
(7.33276 0.00401464 0)
(7.33285 0.00450672 0)
(7.33308 0.00484655 0)
(7.33345 0.00504992 0)
(7.33396 0.00513383 0)
(7.33462 0.00511435 0)
(7.33541 0.0050059 0)
(7.33632 0.00482099 0)
(7.33733 0.00457023 0)
(7.33842 0.00426246 0)
(7.33958 0.00390494 0)
(7.3408 0.0035035 0)
(7.34207 0.00306277 0)
(7.34337 0.00258635 0)
(7.3447 0.00207692 0)
(7.34604 0.00153645 0)
(7.34739 0.000966239 0)
(7.34875 0.000367121 0)
(7.3501 -0.000260527 0)
(7.35144 -0.000916593 0)
(7.35277 -0.00160126 0)
(7.35408 -0.00231481 0)
(7.35537 -0.0030577 0)
(7.35664 -0.00383035 0)
(7.35788 -0.00463324 0)
(7.35909 -0.00546676 0)
(7.36027 -0.00633131 0)
(7.36141 -0.00722725 0)
(7.36252 -0.00815526 0)
(7.33299 0.000548706 0)
(7.33287 0.00166115 0)
(7.33262 0.00265704 0)
(7.33233 0.00346033 0)
(7.33209 0.00405721 0)
(7.33196 0.00445838 0)
(7.33197 0.00468498 0)
(7.33213 0.00476267 0)
(7.33247 0.00471645 0)
(7.33296 0.00456819 0)
(7.33361 0.00433627 0)
(7.33438 0.00403572 0)
(7.33528 0.00367854 0)
(7.33627 0.00327414 0)
(7.33736 0.00282985 0)
(7.33851 0.0023512 0)
(7.33971 0.00184235 0)
(7.34096 0.00130626 0)
(7.34224 0.000745037 0)
(7.34354 0.000159969 0)
(7.34485 -0.000448153 0)
(7.34618 -0.00107905 0)
(7.34749 -0.00173274 0)
(7.34881 -0.00240952 0)
(7.35011 -0.00310982 0)
(7.35139 -0.00383422 0)
(7.35265 -0.0045833 0)
(7.35389 -0.00535767 0)
(7.3551 -0.00615786 0)
(7.35628 -0.00698437 0)
(7.35743 -0.00783761 0)
(7.35854 -0.00871802 0)
(7.35962 -0.00962625 0)
(7.33299 0.000612302 0)
(7.33274 0.00185801 0)
(7.33225 0.00293622 0)
(7.33167 0.00375154 0)
(7.33112 0.00429989 0)
(7.33069 0.00460661 0)
(7.33042 0.00470768 0)
(7.33033 0.00464233 0)
(7.33045 0.00444615 0)
(7.33076 0.00414854 0)
(7.33125 0.00377297 0)
(7.33189 0.00333768 0)
(7.33268 0.00285649 0)
(7.33359 0.00233962 0)
(7.3346 0.0017945 0)
(7.33569 0.00122639 0)
(7.33685 0.000638849 0)
(7.33806 3.41926e-05 0)
(7.33932 -0.000586272 0)
(7.3406 -0.00122192 0)
(7.34189 -0.00187269 0)
(7.3432 -0.00253888 0)
(7.3445 -0.0032211 0)
(7.3458 -0.00392009 0)
(7.34709 -0.00463672 0)
(7.34837 -0.00537187 0)
(7.34962 -0.00612643 0)
(7.35085 -0.0069012 0)
(7.35204 -0.00769694 0)
(7.35321 -0.00851428 0)
(7.35434 -0.0093538 0)
(7.35544 -0.010216 0)
(7.35649 -0.0111017 0)
(7.33297 0.000736991 0)
(7.33253 0.00223053 0)
(7.33168 0.00346437 0)
(7.33067 0.00432437 0)
(7.32969 0.00482831 0)
(7.32886 0.00502531 0)
(7.32823 0.00497395 0)
(7.32785 0.0047333 0)
(7.32772 0.00435346 0)
(7.32784 0.00387371 0)
(7.32817 0.00332399 0)
(7.3287 0.00272649 0)
(7.3294 0.00209703 0)
(7.33024 0.00144665 0)
(7.33121 0.000782688 0)
(7.33228 0.000109884 0)
(7.33342 -0.000569043 0)
(7.33463 -0.00125272 0)
(7.33588 -0.00194084 0)
(7.33716 -0.00263371 0)
(7.33847 -0.00333219 0)
(7.33979 -0.00403737 0)
(7.34111 -0.00475058 0)
(7.34242 -0.00547319 0)
(7.34372 -0.00620662 0)
(7.34501 -0.00695219 0)
(7.34627 -0.00771122 0)
(7.34751 -0.00848482 0)
(7.34871 -0.00927406 0)
(7.34989 -0.0100798 0)
(7.35102 -0.0109028 0)
(7.35212 -0.0117439 0)
(7.35318 -0.0126038 0)
(7.33295 0.000966842 0)
(7.33217 0.00288933 0)
(7.33075 0.004378 0)
(7.32911 0.00531383 0)
(7.32754 0.0057608 0)
(7.32618 0.00580798 0)
(7.32513 0.00555056 0)
(7.32442 0.00507759 0)
(7.32404 0.00445932 0)
(7.32397 0.0037476 0)
(7.32418 0.00298002 0)
(7.32463 0.00218289 0)
(7.32528 0.00137376 0)
(7.32611 0.000563782 0)
(7.32708 -0.000240373 0)
(7.32817 -0.00103522 0)
(7.32934 -0.00181939 0)
(7.33058 -0.00259304 0)
(7.33188 -0.00335723 0)
(7.33321 -0.00411367 0)
(7.33456 -0.00486435 0)
(7.33593 -0.00561153 0)
(7.3373 -0.00635739 0)
(7.33866 -0.00710422 0)
(7.34 -0.00785405 0)
(7.34133 -0.00860893 0)
(7.34263 -0.00937057 0)
(7.3439 -0.0101407 0)
(7.34514 -0.0109206 0)
(7.34634 -0.0117115 0)
(7.3475 -0.0125146 0)
(7.34863 -0.0133307 0)
(7.3497 -0.014161 0)
(7.3329 0.00138988 0)
(7.33153 0.00402948 0)
(7.32919 0.00589379 0)
(7.32662 0.00691488 0)
(7.32425 0.00725152 0)
(7.32225 0.00706066 0)
(7.32072 0.00649813 0)
(7.31968 0.00569855 0)
(7.31908 0.00475853 0)
(7.31888 0.0037442 0)
(7.31904 0.00270062 0)
(7.31948 0.00165702 0)
(7.32017 0.000630976 0)
(7.32106 -0.000367856 0)
(7.3221 -0.00133497 0)
(7.32327 -0.00226928 0)
(7.32454 -0.00317185 0)
(7.32589 -0.0040451 0)
(7.32728 -0.00489218 0)
(7.32872 -0.00571665 0)
(7.33017 -0.00652216 0)
(7.33163 -0.00731233 0)
(7.33309 -0.00809065 0)
(7.33453 -0.00886038 0)
(7.33596 -0.00962452 0)
(7.33736 -0.0103858 0)
(7.33874 -0.0111467 0)
(7.34008 -0.0119094 0)
(7.34138 -0.0126758 0)
(7.34264 -0.0134475 0)
(7.34385 -0.014226 0)
(7.34502 -0.0150125 0)
(7.34615 -0.0158084 0)
(7.33278 0.00219338 0)
(7.33032 0.00601302 0)
(7.32651 0.00836399 0)
(7.32261 0.00940092 0)
(7.3192 0.00947873 0)
(7.31647 0.00887183 0)
(7.31447 0.00783461 0)
(7.31316 0.00656506 0)
(7.31246 0.00518829 0)
(7.31226 0.00378163 0)
(7.31248 0.00239354 0)
(7.31305 0.00105196 0)
(7.31389 -0.000229332 0)
(7.31494 -0.00144525 0)
(7.31617 -0.00259585 0)
(7.31753 -0.0036842 0)
(7.31898 -0.00471515 0)
(7.32051 -0.00569441 0)
(7.32208 -0.00662801 0)
(7.32368 -0.0075219 0)
(7.3253 -0.00838188 0)
(7.32691 -0.00921328 0)
(7.32852 -0.0100211 0)
(7.33011 -0.0108099 0)
(7.33166 -0.0115838 0)
(7.33319 -0.0123463 0)
(7.33468 -0.0131008 0)
(7.33613 -0.01385 0)
(7.33753 -0.0145965 0)
(7.33888 -0.0153423 0)
(7.34019 -0.0160894 0)
(7.34144 -0.0168394 0)
(7.34263 -0.0175938 0)
(7.33249 0.00373856 0)
(7.32795 0.00948769 0)
(7.32175 0.0123699 0)
(7.31603 0.0131749 0)
(7.31142 0.0126504 0)
(7.30798 0.0112873 0)
(7.30566 0.00949947 0)
(7.3043 0.0075572 0)
(7.30371 0.00559913 0)
(7.30373 0.0036992 0)
(7.30422 0.00189818 0)
(7.3051 0.00021366 0)
(7.30626 -0.00135141 0)
(7.30765 -0.00280152 0)
(7.3092 -0.00414464 0)
(7.31087 -0.00539047 0)
(7.31263 -0.00654933 0)
(7.31445 -0.00763148 0)
(7.3163 -0.00864664 0)
(7.31817 -0.00960388 0)
(7.32004 -0.0105114 0)
(7.32189 -0.0113768 0)
(7.32372 -0.0122067 0)
(7.32552 -0.013007 0)
(7.32727 -0.013783 0)
(7.32898 -0.0145393 0)
(7.33065 -0.01528 0)
(7.33226 -0.0160087 0)
(7.33381 -0.0167284 0)
(7.3353 -0.0174417 0)
(7.33674 -0.0181509 0)
(7.33811 -0.018858 0)
(7.33943 -0.0195648 0)
(7.33193 0.00663855 0)
(7.32329 0.0152895 0)
(7.31325 0.0184803 0)
(7.30522 0.0185686 0)
(7.29944 0.0168773 0)
(7.29558 0.0142337 0)
(7.29334 0.0113041 0)
(7.29234 0.00842015 0)
(7.29223 0.0056923 0)
(7.2928 0.00316513 0)
(7.29389 0.000857662 0)
(7.29535 -0.00123294 0)
(7.2971 -0.00312277 0)
(7.29905 -0.0048315 0)
(7.30114 -0.00637896 0)
(7.30332 -0.00778423 0)
(7.30557 -0.00906536 0)
(7.30785 -0.0102388 0)
(7.31013 -0.0113195 0)
(7.31241 -0.0123206 0)
(7.31465 -0.0132537 0)
(7.31687 -0.0141291 0)
(7.31903 -0.0149557 0)
(7.32114 -0.0157415 0)
(7.32319 -0.0164931 0)
(7.32518 -0.0172166 0)
(7.3271 -0.017917 0)
(7.32895 -0.0185988 0)
(7.33073 -0.0192657 0)
(7.33244 -0.0199212 0)
(7.33407 -0.0205681 0)
(7.33563 -0.0212089 0)
(7.33712 -0.0218461 0)
(7.33069 0.0134337 0)
(7.31368 0.0252055 0)
(7.29797 0.0267125 0)
(7.28753 0.0249926 0)
(7.28098 0.0216469 0)
(7.27735 0.0175168 0)
(7.27593 0.0134352 0)
(7.27598 0.00969358 0)
(7.27699 0.00629311 0)
(7.27869 0.0032145 0)
(7.28088 0.000445694 0)
(7.28343 -0.00203616 0)
(7.2862 -0.00426166 0)
(7.28912 -0.00626024 0)
(7.29213 -0.00805812 0)
(7.29519 -0.00967927 0)
(7.29824 -0.0111457 0)
(7.30128 -0.0124774 0)
(7.30428 -0.0136918 0)
(7.30721 -0.0148046 0)
(7.31008 -0.0158295 0)
(7.31287 -0.0167786 0)
(7.31558 -0.0176626 0)
(7.31819 -0.0184906 0)
(7.32071 -0.0192708 0)
(7.32314 -0.0200102 0)
(7.32547 -0.020715 0)
(7.32771 -0.0213904 0)
(7.32984 -0.0220412 0)
(7.33188 -0.0226713 0)
(7.33383 -0.0232838 0)
(7.33568 -0.0238817 0)
(7.33743 -0.024467 0)
(7.32456 0.0347119 0)
(7.28958 0.0467028 0)
(7.26765 0.0370805 0)
(7.25765 0.0262556 0)
(7.25264 0.0167224 0)
(7.25096 0.00874413 0)
(7.25187 0.0024995 0)
(7.25427 -0.00234551 0)
(7.2575 -0.00618568 0)
(7.26132 -0.00925805 0)
(7.26555 -0.0117317 0)
(7.27004 -0.0137471 0)
(7.27465 -0.0154144 0)
(7.27931 -0.0168129 0)
(7.28395 -0.0180002 0)
(7.28853 -0.0190205 0)
(7.29303 -0.0199084 0)
(7.2974 -0.0206912 0)
(7.30165 -0.0213901 0)
(7.30575 -0.0220219 0)
(7.30971 -0.0225999 0)
(7.31351 -0.0231351 0)
(7.31715 -0.0236359 0)
(7.32064 -0.0241094 0)
(7.32398 -0.0245613 0)
(7.32716 -0.0249963 0)
(7.3302 -0.0254181 0)
(7.33309 -0.0258302 0)
(7.33583 -0.0262349 0)
(7.33844 -0.0266349 0)
(7.34091 -0.0270323 0)
(7.34325 -0.0274295 0)
(7.34547 -0.0278291 0)
(7.29575 0.0823955 0)
(7.21821 0.127205 0)
(7.1868 0.128805 0)
(7.18645 0.114375 0)
(7.19338 0.0947822 0)
(7.20248 0.0767433 0)
(7.21295 0.0615356 0)
(7.22374 0.0483308 0)
(7.23443 0.0367057 0)
(7.24496 0.0265711 0)
(7.25523 0.0178483 0)
(7.2651 0.0103829 0)
(7.27453 0.00400714 0)
(7.2835 -0.00142749 0)
(7.292 -0.00605291 0)
(7.30003 -0.00998831 0)
(7.30762 -0.0133391 0)
(7.31478 -0.0161958 0)
(7.32152 -0.0186356 0)
(7.32787 -0.0207236 0)
(7.33384 -0.0225152 0)
(7.33945 -0.0240571 0)
(7.34473 -0.0253884 0)
(7.34969 -0.0265424 0)
(7.35435 -0.0275468 0)
(7.35872 -0.0284253 0)
(7.36282 -0.0291976 0)
(7.36666 -0.0298804 0)
(7.37026 -0.0304878 0)
(7.37362 -0.0310314 0)
(7.37676 -0.0315211 0)
(7.37969 -0.0319641 0)
(7.38241 -0.0323691 0)
(7.32909 -0.158988 0)
(7.19612 -0.2929 0)
(7.13085 -0.292314 0)
(7.10898 -0.259651 0)
(7.10972 -0.226682 0)
(7.13037 -0.195753 0)
(7.16107 -0.167842 0)
(7.19442 -0.144108 0)
(7.22757 -0.124637 0)
(7.2593 -0.108758 0)
(7.28883 -0.0957778 0)
(7.31575 -0.0851769 0)
(7.34002 -0.0765334 0)
(7.36176 -0.0694821 0)
(7.38116 -0.0637159 0)
(7.39841 -0.0589877 0)
(7.41371 -0.0551005 0)
(7.42725 -0.0518962 0)
(7.43922 -0.0492471 0)
(7.44977 -0.0470507 0)
(7.45906 -0.0452244 0)
(7.46722 -0.0437018 0)
(7.47436 -0.0424293 0)
(7.4806 -0.0413636 0)
(7.48602 -0.0404694 0)
(7.49071 -0.0397182 0)
(7.49475 -0.0390867 0)
(7.49819 -0.0385557 0)
(7.5011 -0.0381096 0)
(7.50354 -0.0377353 0)
(7.50555 -0.0374216 0)
(7.50717 -0.0371599 0)
(7.50847 -0.0369379 0)
(7.33045 1.21807 0)
(7.6376 1.24116 0)
(7.81729 0.934086 0)
(7.87343 0.66212 0)
(7.88531 0.462339 0)
(7.87662 0.320593 0)
(7.85215 0.2201 0)
(7.81687 0.148062 0)
(7.77612 0.0958187 0)
(7.73339 0.057653 0)
(7.69027 0.0296469 0)
(7.64754 0.00902534 0)
(7.60574 -0.00618987 0)
(7.56522 -0.0174097 0)
(7.52613 -0.025651 0)
(7.48856 -0.0316576 0)