/*--------------------------------*- C++ -*----------------------------------*\
  =========                 |
  \\      /  F ield         | OpenFOAM: The Open Source CFD Toolbox
   \\    /   O peration     | Website:  https://openfoam.org
    \\  /    A nd           | Version:  10
     \\/     M anipulation  |
\*---------------------------------------------------------------------------*/
FoamFile
{
    format      ascii;
    class       volScalarField;
    location    "0.19";
    object      epsilon;
}
// * * * * * * * * * * * * * * * * * * * * * * * * * * * * * * * * * * * * * //

dimensions      [0 2 -3 0 0 0 0];

internalField   nonuniform List<scalar> 
6820
(
23.2969
22.5752
21.9094
21.2853
20.7018
20.1632
19.6734
19.2344
18.8457
18.5051
18.2094
17.9549
17.7377
17.5542
17.4007
17.274
17.1711
17.0893
17.0262
16.9796
16.9476
16.9284
16.9205
16.9225
16.9331
16.9515
16.9761
17.0089
17.0358
17.1193
16.9642
17.9481
13.612
5.03386
6.81833
7.83937
8.46766
8.89816
9.23164
9.52195
9.79552
10.0644
10.3336
10.6049
10.8788
11.155
11.433
11.7122
11.992
12.2718
12.5511
12.8293
13.1061
13.3809
13.6535
13.9236
14.1913
14.4566
14.72
14.9826
15.2468
15.5152
15.8077
16.0887
16.638
16.6589
3.7036
4.14719
4.56526
4.91423
5.19797
5.43126
5.62815
5.79987
5.95485
6.09921
6.23724
6.37185
6.50497
6.63783
6.77116
6.90537
7.04067
7.17709
7.31458
7.45305
7.59235
7.73234
7.87288
8.01386
8.15522
8.29704
8.43945
8.58317
8.72823
8.87897
9.03048
9.20399
9.37409
3.54009
3.61094
3.72474
3.85373
3.98118
4.09944
4.20625
4.30203
4.38828
4.46677
4.53922
4.60714
4.67177
4.7341
4.79492
4.85481
4.91422
4.97346
5.03276
5.09229
5.15214
5.21238
5.27306
5.3342
5.39584
5.45804
5.52089
5.58461
5.64938
5.716
5.78466
5.85669
5.93445
3.52064
3.50151
3.50498
3.52611
3.55868
3.59721
3.63781
3.67805
3.71667
3.75312
3.7873
3.81937
3.84959
3.87826
3.90568
3.93214
3.95787
3.9831
4.00799
4.03268
4.0573
4.08193
4.10665
4.13152
4.15661
4.18197
4.20767
4.23381
4.26051
4.28797
4.31637
4.34587
4.37683
3.5194
3.48247
3.45303
3.43232
3.41995
3.4145
3.41422
3.41751
3.42308
3.42999
3.43759
3.44548
3.4534
3.46122
3.46888
3.47638
3.48373
3.49096
3.49813
3.50527
3.51244
3.51966
3.52697
3.53442
3.54203
3.54984
3.55789
3.56622
3.5749
3.58399
3.59358
3.6037
3.61441
3.51943
3.47974
3.44283
3.40949
3.38025
3.35523
3.3342
3.31668
3.30212
3.28998
3.27976
3.27107
3.26356
3.257
3.25119
3.24598
3.24129
3.23703
3.23314
3.2296
3.22638
3.22346
3.22083
3.21848
3.21642
3.21464
3.21316
3.21198
3.21113
3.21063
3.2105
3.21076
3.2114
3.51947
3.47943
3.44109
3.40466
3.37041
3.33851
3.30907
3.28204
3.25734
3.23478
3.21417
3.19528
3.17792
3.1619
3.14705
3.13323
3.12032
3.10822
3.09684
3.08611
3.07597
3.06637
3.05728
3.04866
3.04048
3.03272
3.02537
3.01841
3.01184
3.00566
2.99987
2.99446
2.98943
3.51948
3.47941
3.44085
3.40382
3.36835
3.33447
3.30224
3.27168
3.24278
3.21551
3.18981
3.1656
3.1428
3.1213
3.10102
3.08185
3.06371
3.04652
3.03019
3.01468
2.9999
2.98582
2.97238
2.95955
2.94727
2.93554
2.9243
2.91355
2.90326
2.89342
2.88402
2.87504
2.86647
3.51948
3.47941
3.44082
3.40368
3.36796
3.33361
3.30062
3.26897
3.23863
3.20959
3.18182
3.15528
3.12994
3.10574
3.08263
3.06057
3.03949
3.01934
3.00007
2.98163
2.96398
2.94706
2.93084
2.91527
2.90033
2.88598
2.87219
2.85893
2.84619
2.83395
2.82217
2.81086
2.79998
3.51948
3.4794
3.44081
3.40365
3.36788
3.33344
3.30027
3.26833
3.23758
3.20798
3.1795
3.1521
3.12575
3.10042
3.07606
3.05265
3.03014
3.0085
2.98769
2.96768
2.94842
2.92989
2.91205
2.89487
2.87833
2.86238
2.84702
2.8322
2.81792
2.80415
2.79087
2.77807
2.76572
3.51948
3.4794
3.4408
3.40364
3.36786
3.33339
3.30018
3.26818
3.23732
3.20757
3.17888
3.15121
3.12452
3.09878
3.07395
3.05
3.02689
3.0046
2.98309
2.96233
2.9423
2.92297
2.9043
2.88627
2.86886
2.85204
2.83579
2.82009
2.80492
2.79026
2.7761
2.7624
2.74917
3.51948
3.4794
3.44079
3.40363
3.36784
3.33337
3.30015
3.26813
3.23724
3.20745
3.1787
3.15096
3.12417
3.0983
3.07331
3.04917
3.02585
3.00331
2.98153
2.96047
2.94011
2.92042
2.90137
2.88295
2.86513
2.84789
2.8312
2.81505
2.79942
2.7843
2.76965
2.75548
2.74175
3.51948
3.47939
3.44079
3.40362
3.36783
3.33335
3.30013
3.2681
3.23721
3.2074
3.17864
3.15087
3.12405
3.09815
3.07311
3.04892
3.02552
3.0029
2.98102
2.95985
2.93936
2.91954
2.90035
2.88176
2.86377
2.84634
2.82946
2.81311
2.79727
2.78192
2.76705
2.75264
2.73868
3.51947
3.47939
3.44079
3.40362
3.36782
3.33334
3.30011
3.26808
3.23718
3.20737
3.1786
3.15082
3.124
3.09808
3.07303
3.04881
3.0254
3.00275
2.98084
2.95963
2.93911
2.91923
2.89999
2.88135
2.86329
2.84579
2.82884
2.8124
2.79647
2.78103
2.76606
2.75155
2.73747
3.51947
3.47939
3.44078
3.40361
3.36781
3.33333
3.3001
3.26806
3.23716
3.20734
3.17857
3.15079
3.12396
3.09803
3.07298
3.04875
3.02533
3.00267
2.98075
2.95953
2.93899
2.9191
2.89984
2.88118
2.8631
2.84558
2.82859
2.81213
2.79617
2.78069
2.76568
2.75112
2.73699
3.51947
3.47939
3.44078
3.40361
3.36781
3.33332
3.30008
3.26804
3.23714
3.20732
3.17854
3.15076
3.12392
3.09799
3.07293
3.04871
3.02528
3.00262
2.98069
2.95947
2.93892
2.91903
2.89976
2.88109
2.863
2.84547
2.82847
2.812
2.79602
2.78053
2.7655
2.75092
2.73677
3.51947
3.47939
3.44078
3.4036
3.3678
3.33331
3.30007
3.26803
3.23712
3.2073
3.17852
3.15073
3.12389
3.09796
3.0729
3.04867
3.02524
3.00257
2.98064
2.95941
2.93886
2.91897
2.89969
2.88102
2.86293
2.84539
2.82839
2.81191
2.79593
2.78042
2.76538
2.75079
2.73663
3.51947
3.47939
3.44078
3.4036
3.3678
3.3333
3.30006
3.26801
3.2371
3.20728
3.1785
3.1507
3.12386
3.09793
3.07286
3.04863
3.0252
3.00253
2.98059
2.95937
2.93881
2.91891
2.89963
2.88096
2.86286
2.84532
2.82832
2.81183
2.79584
2.78034
2.76529
2.75069
2.73652
3.51947
3.47939
3.44077
3.4036
3.36779
3.3333
3.30005
3.268
3.23709
3.20726
3.17848
3.15068
3.12384
3.0979
3.07283
3.0486
3.02516
3.00249
2.98055
2.95932
2.93877
2.91886
2.89958
2.8809
2.8628
2.84526
2.82825
2.81176
2.79577
2.78025
2.7652
2.7506
2.73642
3.51947
3.47939
3.44077
3.40359
3.36779
3.33329
3.30005
3.26799
3.23708
3.20725
3.17846
3.15066
3.12381
3.09787
3.0728
3.04857
3.02513
3.00245
2.98051
2.95928
2.93872
2.91881
2.89953
2.88085
2.86275
2.8452
2.82819
2.81169
2.7957
2.78018
2.76512
2.75051
2.73633
3.51947
3.47938
3.44077
3.40359
3.36779
3.33329
3.30004
3.26799
3.23707
3.20724
3.17845
3.15065
3.12379
3.09785
3.07278
3.04854
3.0251
3.00242
2.98048
2.95924
2.93868
2.91877
2.89949
2.8808
2.8627
2.84514
2.82813
2.81163
2.79563
2.7801
2.76504
2.75042
2.73623
3.51947
3.47938
3.44077
3.40359
3.36778
3.33329
3.30004
3.26798
3.23706
3.20723
3.17843
3.15063
3.12378
3.09783
3.07276
3.04852
3.02507
3.00239
2.98045
2.95921
2.93865
2.91873
2.89944
2.88076
2.86265
2.84509
2.82807
2.81157
2.79556
2.78003
2.76497
2.75034
2.73615
3.51947
3.47938
3.44077
3.40359
3.36778
3.33328
3.30003
3.26797
3.23705
3.20722
3.17842
3.15062
3.12376
3.09782
3.07274
3.04849
3.02505
3.00237
2.98042
2.95918
2.93861
2.9187
2.8994
2.88071
2.8626
2.84504
2.82802
2.81151
2.7955
2.77997
2.76489
2.75027
2.73606
3.51947
3.47938
3.44077
3.40359
3.36778
3.33328
3.30003
3.26797
3.23705
3.20721
3.17841
3.15061
3.12375
3.0978
3.07272
3.04848
3.02503
3.00234
2.98039
2.95915
2.93858
2.91866
2.89937
2.88067
2.86256
2.845
2.82797
2.81146
2.79544
2.7799
2.76482
2.75019
2.73598
3.51947
3.47938
3.44077
3.40359
3.36778
3.33328
3.30003
3.26797
3.23704
3.20721
3.17841
3.1506
3.12374
3.09779
3.07271
3.04846
3.02501
3.00233
2.98037
2.95913
2.93856
2.91863
2.89934
2.88064
2.86252
2.84495
2.82792
2.81141
2.79539
2.77984
2.76476
2.75012
2.73591
3.51947
3.47938
3.44077
3.40359
3.36778
3.33328
3.30002
3.26796
3.23704
3.2072
3.1784
3.15059
3.12373
3.09778
3.0727
3.04845
3.02499
3.00231
2.98035
2.9591
2.93853
2.91861
2.89931
2.88061
2.86248
2.84492
2.82788
2.81136
2.79534
2.77979
2.7647
2.75006
2.73584
3.51947
3.47938
3.44077
3.40359
3.36778
3.33328
3.30002
3.26796
3.23704
3.2072
3.1784
3.15059
3.12373
3.09778
3.07269
3.04844
3.02499
3.0023
2.98034
2.95909
2.93852
2.91859
2.89929
2.88058
2.86246
2.84489
2.82785
2.81132
2.7953
2.77974
2.76465
2.75
2.73578
3.51947
3.47938
3.44077
3.40359
3.36778
3.33327
3.30002
3.26796
3.23703
3.20719
3.17839
3.15058
3.12372
3.09776
3.07268
3.04843
3.02497
3.00228
2.98032
2.95907
2.9385
2.91857
2.89926
2.88056
2.86243
2.84485
2.82781
2.81129
2.79526
2.7797
2.76461
2.74995
2.73573
3.51947
3.47938
3.44077
3.40359
3.36778
3.33328
3.30003
3.26797
3.23704
3.2072
3.1784
3.15059
3.12373
3.09778
3.07269
3.04844
3.02498
3.00229
2.98033
2.95908
2.9385
2.91857
2.89926
2.88055
2.86242
2.84485
2.8278
2.81127
2.79524
2.77968
2.76458
2.74992
2.73569
3.51947
3.47939
3.44077
3.40359
3.36778
3.33328
3.30002
3.26796
3.23703
3.20719
3.17839
3.15058
3.12372
3.09776
3.07268
3.04843
3.02497
3.00228
2.98032
2.95907
2.93849
2.91856
2.89925
2.88055
2.86242
2.84484
2.8278
2.81127
2.79523
2.77967
2.76457
2.74992
2.73569
3.51947
3.47938
3.44077
3.40359
3.36779
3.3333
3.30006
3.268
3.23708
3.20725
3.17845
3.15065
3.12379
3.09783
3.07275
3.0485
3.02504
3.00235
2.9804
2.95914
2.93857
2.91864
2.89933
2.88063
2.8625
2.84493
2.82789
2.81137
2.79534
2.77979
2.7647
2.75006
2.73584
3.51948
3.4794
3.44079
3.40362
3.36782
3.33332
3.30007
3.26801
3.23709
3.20725
3.17846
3.15066
3.1238
3.09786
3.07279
3.04856
3.02512
3.00245
2.98052
2.9593
2.93875
2.91885
2.89959
2.88092
2.86284
2.84531
2.82832
2.81185
2.79588
2.78039
2.76536
2.75077
2.73662
3.51947
3.47939
3.44079
3.40365
3.36789
3.33344
3.30023
3.26822
3.23734
3.20754
3.17879
3.15103
3.12423
3.09835
3.07335
3.0492
3.02586
3.0033
2.98149
2.9604
2.94
2.92027
2.90117
2.8827
2.86481
2.8475
2.83073
2.81449
2.79876
2.78352
2.76875
2.75443
2.74054
3.51949
3.47947
3.44095
3.40384
3.3681
3.33368
3.30054
3.26862
3.23789
3.2083
3.17981
3.15238
3.12596
3.10051
3.07601
3.05241
3.02967
3.00776
2.98665
2.9663
2.94668
2.92776
2.90952
2.89192
2.87493
2.85853
2.8427
2.82741
2.81264
2.79837
2.78457
2.77122
2.75832
3.5195
3.47953
3.44117
3.40446
3.36934
3.33573
3.3036
3.27292
3.24364
3.21573
3.18914
3.16382
3.13972
3.11677
3.09492
3.07411
3.05429
3.03539
3.01737
3.00018
2.98376
2.96807
2.95306
2.9387
2.92495
2.91176
2.89912
2.88698
2.87531
2.8641
2.8533
2.84291
2.8329
3.51968
3.48122
3.44561
3.41286
3.38296
3.35589
3.33153
3.3097
3.29019
3.27278
3.25726
3.24343
3.2311
3.22008
3.21023
3.20141
3.19347
3.18633
3.17986
3.17399
3.16864
3.16373
3.15922
3.15505
3.15116
3.14753
3.14412
3.14089
3.13783
3.1349
3.13208
3.12937
3.12674
3.52527
3.5137
3.51625
3.52955
3.55082
3.57803
3.60957
3.64415
3.68081
3.71881
3.75757
3.79663
3.83563
3.87429
3.91241
3.94982
3.9864
4.02205
4.05672
4.09036
4.12294
4.15446
4.18491
4.2143
4.24263
4.26993
4.29621
4.32151
4.34585
4.36925
4.39175
4.41338
4.43418
3.83318
4.36504
4.84908
5.31387
5.77401
6.22489
6.66221
7.08415
7.4903
7.88106
8.25719
8.61958
8.96913
9.30664
9.63287
9.94848
10.254
10.55
10.8369
11.1151
11.385
11.6469
11.901
12.1477
12.3872
12.6197
12.8456
13.0651
13.2783
13.4854
13.6868
13.8825
14.0729
30.2663
32.7713
35.3126
37.865
40.4147
42.9529
45.4713
47.9624
50.4193
52.8357
55.2061
57.5258
59.7907
61.9973
64.143
66.2255
68.2432
70.195
72.0802
73.8987
75.6504
77.3358
78.9557
80.5108
82.0024
83.4318
84.8004
86.1097
87.3614
88.5572
89.699
90.7881
91.8278
83.6982
236.277
418.046
585.202
711.063
786.666
816.327
811.234
783.834
744.623
701.015
657.526
616.498
578.864
544.767
513.976
486.136
460.888
437.922
416.982
397.86
380.378
364.376
349.703
336.211
323.752
312.179
301.35
291.137
281.422
272.106
263.105
254.346
245.765
237.301
228.901
220.515
212.099
203.618
195.047
186.369
177.575
168.669
159.66
150.571
141.429
132.275
123.155
114.121
105.231
96.5478
88.1317
80.0438
72.3407
65.073
58.2832
52.0039
46.2568
41.052
36.388
32.2523
28.6227
25.4689
22.7548
20.4406
18.4853
16.8485
15.4917
14.3799
13.4823
12.7718
12.226
11.8258
11.5558
11.4034
11.3579
11.4104
11.5524
11.7757
12.0709
12.4277
12.8335
13.2735
13.7309
14.1867
14.6204
15.011
15.3375
15.5802
15.7211
15.7452
15.6401
15.3975
15.0123
14.4843
13.8151
13.0189
12.0817
11.1639
9.48999
19.9019
29.4097
46.8365
72.7536
106.193
144.926
186.083
226.704
264.203
296.493
322.261
341.003
352.921
358.736
359.465
356.221
350.066
341.921
332.527
322.444
312.076
301.699
291.495
281.573
271.988
262.754
253.853
245.245
236.883
228.715
220.698
212.796
204.979
197.222
189.501
181.79
174.065
166.305
158.492
150.618
142.682
134.691
126.662
118.616
110.587
102.61
94.7308
86.9966
79.4595
72.1727
65.1884
58.5559
52.3191
46.5144
41.1694
36.3014
31.917
28.0119
24.5719
21.5739
18.9877
16.7781
14.9072
13.3362
12.0272
10.9452
10.0581
9.33826
8.76188
8.30937
7.96489
7.71598
7.55311
7.46926
7.45942
7.52012
7.64895
7.84396
8.10307
8.42331
8.80016
9.22684
9.69372
10.1881
10.6941
11.1932
11.6649
12.0877
12.4402
12.7026
12.857
12.889
12.7878
12.547
12.1649
11.6434
10.9952
10.2112
9.43419
7.99501
9.54703
9.89623
10.8444
12.8118
16.1088
20.9218
27.3352
35.3413
44.821
55.6721
67.7327
80.72
94.2292
107.786
120.892
133.069
143.899
153.063
160.365
165.749
169.286
171.154
171.592
170.861
169.205
166.829
163.889
160.489
156.702
152.572
148.139
143.436
138.499
133.36
128.049
122.587
116.992
111.275
105.452
99.5366
93.5518
87.5237
81.4838
75.4682
69.5163
63.6705
57.975
52.4742
47.2115
42.2271
37.5566
33.2286
29.264
25.6744
22.4626
19.6219
17.1377
14.9883
13.1471
11.5838
10.2672
9.16591
8.25025
7.49301
6.87003
6.36049
5.94685
5.61468
5.35241
5.15097
5.00349
4.90503
4.85231
4.84349
4.87796
4.95615
5.07927
5.24903
5.46724
5.7353
6.0535
6.42034
6.83171
7.28025
7.7549
8.24091
8.72023
9.1724
9.57574
9.90875
10.1515
10.2868
10.3013
10.1861
9.93757
9.55659
9.05389
8.42402
7.79041
6.5953
6.01921
6.1025
6.20377
6.37679
6.68603
7.19419
7.95288
9.0014
10.3672
12.0809
14.1428
16.5667
19.3808
22.608
26.2547
30.3013
34.695
39.3461
44.1318
48.9061
53.5166
57.8225
61.7093
65.0961
67.9351
70.2035
71.8948
73.0112
73.5609
73.5592
73.032
72.0165
70.5605
68.7171
66.5396
64.077
61.3718
58.4614
55.3802
52.1622
48.8429
45.4593
42.0499
38.6535
35.3085
32.0521
28.919
25.9408
23.1444
20.5515
18.1773
16.0304
14.1126
12.4194
10.9406
9.66193
8.5659
7.63341
6.84493
6.18148
5.62536
5.16063
4.77328
4.45127
4.18448
3.9645
3.78451
3.63906
3.52392
3.43592
3.37286
3.33336
3.31687
3.32357
3.35433
3.41072
3.49491
3.60963
3.75797
3.94314
4.16803
4.43465
4.74337
5.09208
5.47544
5.88422
6.30524
6.72165
7.11384
7.46082
7.74179
7.93771
8.0327
8.0153
7.87919
7.62354
7.25623
6.77443
6.28039
5.32817
4.41331
4.45302
4.49202
4.53488
4.58987
4.66881
4.78514
4.9518
5.17976
5.47886
5.85581
6.30778
6.83737
7.44925
8.14894
8.94171
9.83137
10.8188
11.9006
13.0683
14.3075
15.5993
16.9207
18.2464
19.5497
20.8029
21.9762
23.0385
23.9573
24.702
25.2464
25.5733
25.6755
25.5562
25.2266
24.7028
24.0037
23.1492
22.1606
21.0603
19.8723
18.6218
17.3341
16.0342
14.7454
13.4888
12.2828
11.1427
10.08
9.10264
8.21493
7.41777
6.70921
6.085
5.53926
5.0651
4.65519
4.3022
3.9991
3.73941
3.51727
3.32753
3.16568
3.0279
2.91093
2.81207
2.72913
2.66038
2.60447
2.56051
2.52792
2.50652
2.49652
2.49848
2.51337
2.54259
2.588
2.65191
2.73706
2.84656
2.98371
3.15164
3.35291
3.58879
3.85848
4.15825
4.48081
4.81499
5.14594
5.45602
5.72612
5.93736
6.07274
6.11888
6.06696
5.91387
5.66421
5.31634
4.95098
4.2277
3.62742
3.64221
3.65696
3.67197
3.688
3.70672
3.73078
3.76352
3.80852
3.8694
3.94912
4.04873
4.16897
4.31034
4.47316
4.65761
4.86365
5.09087
5.33836
5.60458
5.88737
6.18401
6.49131
6.80576
7.12346
7.43995
7.7499
8.04679
8.32279
8.56906
8.77651
8.93681
9.04335
9.09194
9.08077
9.01017
8.88211
8.69986
8.46787
8.1918
7.87845
7.53552
7.17124
6.79394
6.41159
6.03151
5.66011
5.30273
4.96358
4.64571
4.35104
4.08054
3.83431
3.61179
3.41192
3.23329
3.0743
2.93323
2.80837
2.69806
2.60073
2.51493
2.43938
2.37291
2.31451
2.26334
2.21868
2.17999
2.14685
2.11902
2.09641
2.07911
2.06737
2.06168
2.06274
2.0715
2.08923
2.1175
2.15825
2.21376
2.28661
2.37959
2.49543
2.63647
2.80409
2.99803
3.21566
3.45133
3.69594
3.93719
4.16021
4.34888
4.48738
4.5621
4.56282
4.48442
4.32828
4.09278
3.8381
3.3167
3.21259
3.21418
3.21589
3.21772
3.21972
3.22205
3.2251
3.22953
3.23622
3.24631
3.26083
3.28069
3.30659
3.33903
3.37826
3.42435
3.47717
3.53641
3.60155
3.6719
3.74662
3.82472
3.90517
3.98689
4.06878
4.14966
4.22823
4.30295
4.372
4.43327
4.48453
4.52361
4.54863
4.55819
4.55143
4.52801
4.48803
4.43196
4.36061
4.27517
4.17716
4.06847
3.9512
3.8276
3.69994
3.57041
3.44103
3.31361
3.18971
3.07058
2.95719
2.85022
2.7501
2.65702
2.57097
2.49181
2.41926
2.35295
2.29246
2.23736
2.18717
2.14146
2.09978
2.06176
2.02702
1.99525
1.96621
1.93968
1.91554
1.89372
1.87422
1.85715
1.84271
1.83118
1.82303
1.81884
1.81937
1.82562
1.8388
1.86039
1.89212
1.93597
1.99405
2.06845
2.16096
2.27262
2.40323
2.55071
2.71059
2.87571
3.03632
3.18075
3.29641
3.37147
3.39605
3.36404
3.27439
3.12487
2.9577
2.60098
2.984
2.97807
2.97225
2.96652
2.96089
2.95536
2.94995
2.94478
2.94001
2.9359
2.93274
2.93085
2.93058
2.93223
2.93601
2.9421
2.95054
2.9613
2.97425
2.98914
3.00567
3.02345
3.04207
3.06109
3.08007
3.09857
3.11609
3.13211
3.14604
3.15722
3.16495
3.16852
3.16732
3.16086
3.1488
3.13098
3.10738
3.07811
3.04339
3.00355
2.95904
2.91041
2.85831
2.80346
2.74662
2.68853
2.62993
2.5715
2.51385
2.45752
2.40295
2.35048
2.30037
2.25278
2.20779
2.16542
2.12562
2.08829
2.0533
2.0205
1.98971
1.96075
1.93344
1.90761
1.88311
1.85978
1.83753
1.81626
1.79591
1.77647
1.75795
1.74041
1.72398
1.70883
1.69523
1.68351
1.67413
1.66766
1.66482
1.66652
1.67383
1.68802
1.7105
1.74279
1.78635
1.84238
1.91147
1.99326
2.08596
2.18597
2.28776
2.38398
2.46601
2.525
2.55285
2.54379
2.49551
2.40527
2.30103
2.06774
2.85695
2.84637
2.83591
2.82555
2.81526
2.80505
2.79491
2.78484
2.77487
2.76502
2.75537
2.746
2.73701
2.7285
2.7206
2.71339
2.70694
2.70128
2.69641
2.69229
2.68881
2.68587
2.6833
2.68095
2.67863
2.67616
2.67334
2.66997
2.66581
2.66061
2.6541
2.646
2.63605
2.62405
2.60984
2.59334
2.57452
2.55342
2.5301
2.50471
2.47739
2.44836
2.41787
2.38619
2.3536
2.32042
2.28695
2.25347
2.22025
2.18751
2.15547
2.12427
2.09405
2.06488
2.03681
2.00986
1.98399
1.95917
1.93534
1.91242
1.89031
1.86892
1.84817
1.82794
1.80817
1.78876
1.76966
1.75082
1.7322
1.7138
1.69562
1.6777
1.66011
1.64296
1.62637
1.61055
1.59575
1.5823
1.57061
1.5612
1.55471
1.55191
1.55367
1.561
1.57492
1.59638
1.62609
1.6643
1.71047
1.76304
1.81915
1.87466
1.9243
1.96222
1.98266
1.98101
1.95481
1.90122
1.838
1.68986
2.78782
2.77423
2.76074
2.74735
2.73404
2.72081
2.70765
2.69455
2.68151
2.66853
2.65562
2.64279
2.63005
2.61744
2.60498
2.59271
2.58066
2.56884
2.55728
2.54597
2.53488
2.52399
2.51325
2.5026
2.49198
2.48133
2.47057
2.45962
2.44841
2.43682
2.42475
2.41208
2.3987
2.3845
2.3694
2.35337
2.33637
2.31843
2.29958
2.27987
2.25937
2.23816
2.21636
2.19408
2.17144
2.14857
2.12561
2.10268
2.07989
2.05736
2.03515
2.01335
1.992
1.97113
1.95076
1.93087
1.91145
1.89247
1.87387
1.85561
1.83763
1.81987
1.80226
1.78474
1.76725
1.74975
1.73219
1.71454
1.69677
1.67888
1.66088
1.64277
1.6246
1.60642
1.58831
1.57039
1.55279
1.53569
1.51933
1.504
1.49007
1.47798
1.46825
1.4615
1.45839
1.45958
1.46566
1.47701
1.49362
1.51491
1.53957
1.56544
1.58956
1.60842
1.61832
1.61604
1.59955
1.56631
1.52748
1.43384
2.75185
2.73631
2.72087
2.70551
2.69022
2.67501
2.65987
2.64479
2.62977
2.61481
2.59991
2.58506
2.57026
2.55552
2.54085
2.52624
2.51171
2.49726
2.48289
2.46861
2.45439
2.44024
2.42614
2.41207
2.39802
2.38396
2.36988
2.35576
2.34156
2.32727
2.31283
2.2982
2.28332
2.26816
2.25267
2.23683
2.22063
2.20407
2.18718
2.16998
2.1525
2.13479
2.11689
2.09884
2.08071
2.06254
2.0444
2.02634
2.0084
1.99062
1.97304
1.95568
1.93854
1.92163
1.90495
1.88846
1.87216
1.85601
1.83996
1.82398
1.80802
1.79203
1.77597
1.75978
1.74344
1.72689
1.71011
1.69306
1.67575
1.65814
1.64025
1.62209
1.60367
1.58502
1.5662
1.54727
1.5283
1.5094
1.49071
1.47239
1.45465
1.43772
1.42193
1.40763
1.39522
1.38512
1.37777
1.37349
1.37244
1.37451
1.37917
1.38539
1.39164
1.39598
1.39622
1.3903
1.37683
1.35375
1.32821
1.26729
2.73427
2.71754
2.70087
2.68427
2.66774
2.65126
2.63484
2.61849
2.60219
2.58594
2.56975
2.55362
2.53755
2.52153
2.50556
2.48965
2.47379
2.45799
2.44224
2.42654
2.41088
2.39525
2.37965
2.36408
2.34852
2.33298
2.31746
2.30195
2.28646
2.27098
2.2555
2.23999
2.22446
2.20886
2.19319
2.17744
2.1616
2.14568
2.1297
2.11366
2.09758
2.0815
2.06541
2.04935
2.03334
2.0174
2.00155
1.98581
1.97018
1.95469
1.93933
1.9241
1.909
1.89401
1.87911
1.86428
1.84949
1.83472
1.81991
1.80504
1.79007
1.77495
1.75965
1.74413
1.72835
1.71229
1.6959
1.67918
1.66211
1.64468
1.62688
1.60873
1.59023
1.57141
1.55229
1.53291
1.51334
1.49362
1.47384
1.45409
1.43451
1.41522
1.3964
1.37827
1.36105
1.34502
1.33044
1.31757
1.30658
1.29753
1.29026
1.28436
1.27909
1.27348
1.26633
1.25643
1.24295
1.22432
1.20542
1.16302
2.72628
2.70887
2.6915
2.67418
2.6569
2.63966
2.62247
2.60533
2.58823
2.57118
2.55418
2.53724
2.52035
2.50352
2.48674
2.47002
2.45336
2.43676
2.42021
2.40372
2.38728
2.37088
2.35452
2.3382
2.32191
2.30567
2.28947
2.27331
2.25722
2.24119
2.22522
2.20931
2.19346
2.17765
2.16189
2.14617
2.13048
2.11485
2.09928
2.08377
2.06834
2.053
2.03776
2.02262
2.0076
1.99269
1.97791
1.96325
1.94871
1.93429
1.91998
1.90576
1.89161
1.87753
1.86347
1.84942
1.83535
1.82122
1.807
1.79265
1.77814
1.76344
1.7485
1.7333
1.71779
1.70196
1.68579
1.66924
1.65231
1.63498
1.61727
1.59916
1.58066
1.5618
1.54259
1.52306
1.50325
1.4832
1.46297
1.44261
1.4222
1.40184
1.38162
1.36167
1.34213
1.32317
1.30495
1.28765
1.27141
1.25632
1.2424
1.2295
1.21734
1.20547
1.1933
1.18017
1.16567
1.14862
1.1327
1.10019
2.72291
2.70514
2.6874
2.66968
2.652
2.63434
2.61671
2.59911
2.58155
2.56403
2.54655
2.52911
2.51172
2.49439
2.47711
2.45988
2.44272
2.42562
2.40857
2.39159
2.37467
2.35781
2.341
2.32425
2.30755
2.29091
2.27434
2.25784
2.24142
2.22509
2.20886
2.19273
2.17669
2.16076
2.14492
2.12917
2.11354
2.098
2.08259
2.06729
2.05213
2.03711
2.02222
2.00748
1.99288
1.97843
1.96411
1.94992
1.93585
1.92189
1.90803
1.89425
1.88051
1.86681
1.85312
1.8394
1.82563
1.81178
1.7978
1.78368
1.76937
1.75484
1.74006
1.72499
1.70962
1.6939
1.67783
1.66137
1.64453
1.62728
1.60963
1.59157
1.57312
1.55429
1.53509
1.51554
1.49568
1.47554
1.45516
1.43458
1.41387
1.39308
1.37228
1.35155
1.33099
1.31069
1.29077
1.27135
1.25253
1.2344
1.21702
1.20039
1.18441
1.16891
1.15365
1.1383
1.12273
1.10602
1.09126
1.06369
2.72156
2.70363
2.6857
2.66779
2.64989
2.63202
2.61416
2.59632
2.5785
2.56072
2.54297
2.52525
2.50757
2.48994
2.47235
2.45482
2.43734
2.41993
2.40257
2.38528
2.36805
2.35089
2.33379
2.31676
2.29979
2.2829
2.26609
2.24937
2.23274
2.21622
2.19981
2.18351
2.16734
2.15128
2.13536
2.11955
2.10388
2.08835
2.07295
2.05771
2.04262
2.02769
2.01291
1.9983
1.98384
1.96953
1.95537
1.94134
1.92743
1.91364
1.89992
1.88628
1.87269
1.85911
1.84554
1.83192
1.81825
1.80448
1.79058
1.77652
1.76227
1.7478
1.73307
1.71805
1.70273
1.68706
1.67104
1.65464
1.63785
1.62066
1.60307
1.58507
1.56668
1.5479
1.52876
1.50926
1.48943
1.46932
1.44894
1.42834
1.40756
1.38665
1.36567
1.34467
1.32372
1.3029
1.28228
1.26194
1.24197
1.22244
1.20342
1.18495
1.16703
1.14962
1.13265
1.11596
1.0996
1.08281
1.06841
1.04314
2.72102
2.70301
2.685
2.667
2.649
2.63101
2.61303
2.59507
2.57713
2.5592
2.5413
2.52343
2.50559
2.48779
2.47003
2.45231
2.43465
2.41704
2.39948
2.38199
2.36456
2.3472
2.32991
2.31268
2.29553
2.27846
2.26148
2.24459
2.22781
2.21113
2.19458
2.17815
2.16184
2.14568
2.12964
2.11375
2.098
2.0824
2.06696
2.05167
2.03655
2.0216
2.00681
1.99218
1.97772
1.96341
1.94925
1.93523
1.92133
1.90753
1.89382
1.88018
1.86658
1.853
1.83942
1.8258
1.81211
1.79833
1.78442
1.77035
1.7561
1.74162
1.72689
1.71188
1.69657
1.68092
1.66492
1.64856
1.63181
1.61466
1.59713
1.57919
1.56087
1.54216
1.52309
1.50367
1.48392
1.46388
1.44357
1.42303
1.4023
1.38143
1.36045
1.33942
1.31839
1.29743
1.27658
1.25593
1.23552
1.21544
1.19574
1.17647
1.15768
1.13937
1.12155
1.10416
1.08732
1.07038
1.05605
1.03176
2.72077
2.70273
2.68467
2.66662
2.64858
2.63053
2.6125
2.59447
2.57645
2.55845
2.54047
2.52252
2.50459
2.48669
2.46882
2.451
2.43322
2.41549
2.39781
2.38019
2.36263
2.34513
2.3277
2.31034
2.29306
2.27585
2.25874
2.24172
2.22481
2.20801
2.19133
2.17477
2.15835
2.14206
2.12592
2.10992
2.09407
2.07837
2.06284
2.04746
2.03226
2.01722
2.00235
1.98765
1.97312
1.95873
1.9445
1.9304
1.91643
1.90256
1.88878
1.87506
1.86139
1.84775
1.8341
1.82041
1.80666
1.79282
1.77886
1.76475
1.75046
1.73595
1.72119
1.70617
1.69085
1.6752
1.65922
1.64288
1.62616
1.60906
1.59157
1.5737
1.55544
1.53682
1.51783
1.4985
1.47885
1.4589
1.4387
1.41826
1.39763
1.37685
1.35597
1.33501
1.31405
1.29312
1.27228
1.25158
1.23109
1.21086
1.19095
1.17141
1.15229
1.13362
1.11545
1.09775
1.08068
1.06366
1.04931
1.02541
2.72062
2.70255
2.68448
2.6664
2.64833
2.63025
2.61218
2.59411
2.57606
2.55802
2.53999
2.52198
2.50399
2.48603
2.4681
2.45021
2.43235
2.41454
2.39678
2.37907
2.36141
2.34382
2.32629
2.30883
2.29145
2.27414
2.25692
2.2398
2.22278
2.20586
2.18907
2.1724
2.15587
2.13947
2.12321
2.10709
2.09113
2.07533
2.05968
2.0442
2.02889
2.01374
1.99876
1.98395
1.96931
1.95481
1.94047
1.92626
1.91218
1.8982
1.88431
1.8705
1.85673
1.84298
1.82924
1.81546
1.80163
1.78771
1.77368
1.75951
1.74516
1.7306
1.71581
1.70076
1.68543
1.66978
1.6538
1.63748
1.62079
1.60373
1.5863
1.56848
1.5503
1.53175
1.51285
1.49361
1.47407
1.45423
1.43414
1.41383
1.39333
1.37267
1.35191
1.33108
1.31024
1.28942
1.26868
1.24807
1.22764
1.20745
1.18755
1.16798
1.14881
1.13006
1.1118
1.09401
1.07687
1.05981
1.04545
1.02168
2.7205
2.70242
2.68433
2.66623
2.64814
2.63004
2.61194
2.59385
2.57577
2.55769
2.53963
2.52158
2.50356
2.48555
2.46758
2.44963
2.43172
2.41385
2.39603
2.37825
2.36053
2.34286
2.32525
2.30771
2.29024
2.27285
2.25554
2.23833
2.22121
2.2042
2.18731
2.17054
2.15389
2.13738
2.12101
2.10479
2.08871
2.07279
2.05703
2.04143
2.026
2.01074
1.99564
1.9807
1.96593
1.95132
1.93685
1.92252
1.90831
1.89421
1.8802
1.86627
1.85238
1.83853
1.82468
1.8108
1.79688
1.78287
1.76876
1.75452
1.74011
1.7255
1.71067
1.69559
1.68024
1.66458
1.64861
1.6323
1.61564
1.59862
1.58124
1.56349
1.54537
1.5269
1.50809
1.48896
1.46952
1.4498
1.42983
1.40964
1.38927
1.36876
1.34814
1.32746
1.30676
1.28609
1.26549
1.24502
1.22472
1.20464
1.18484
1.16536
1.14625
1.12755
1.10932
1.09155
1.07441
1.05737
1.043
1.01925
2.72039
2.7023
2.68419
2.66608
2.64797
2.62985
2.61174
2.59362
2.57552
2.55741
2.53933
2.52125
2.50319
2.48515
2.46714
2.44915
2.4312
2.41328
2.3954
2.37757
2.35978
2.34205
2.32438
2.30677
2.28923
2.27176
2.25438
2.23708
2.21988
2.20279
2.1858
2.16893
2.15219
2.13557
2.1191
2.10276
2.08658
2.07054
2.05467
2.03895
2.0234
2.00801
1.99279
1.97773
1.96283
1.94808
1.93349
1.91903
1.90469
1.89046
1.87633
1.86227
1.84827
1.8343
1.82034
1.80636
1.79234
1.77825
1.76406
1.74974
1.73527
1.72061
1.70574
1.69063
1.67525
1.65959
1.64362
1.62732
1.61069
1.59371
1.57638
1.55869
1.54064
1.52225
1.50353
1.4845
1.46517
1.44556
1.42572
1.40566
1.38543
1.36506
1.34459
1.32406
1.30351
1.283
1.26256
1.24225
1.2221
1.20217
1.18251
1.16316
1.14416
1.12556
1.10741
1.0897
1.07261
1.05559
1.04122
1.01745
2.72029
2.70218
2.68406
2.66594
2.64781
2.62968
2.61154
2.59341
2.57528
2.55716
2.53904
2.52094
2.50285
2.48478
2.46673
2.44871
2.43072
2.41275
2.39483
2.37695
2.35911
2.34132
2.32359
2.30592
2.28832
2.27078
2.25333
2.23596
2.21868
2.2015
2.18443
2.16747
2.15063
2.13392
2.11734
2.10091
2.08461
2.06847
2.05248
2.03665
2.02098
2.00547
1.99012
1.97494
1.95991
1.94504
1.93032
1.91573
1.90126
1.88691
1.87265
1.85847
1.84435
1.83027
1.8162
1.80211
1.788
1.77382
1.75954
1.74515
1.73062
1.7159
1.70099
1.68585
1.67045
1.65478
1.63882
1.62254
1.60593
1.58899
1.5717
1.55407
1.5361
1.5178
1.49917
1.48023
1.46101
1.44152
1.4218
1.40188
1.38179
1.36156
1.34124
1.32086
1.30048
1.28012
1.25985
1.23969
1.21971
1.19993
1.18042
1.16121
1.14234
1.12385
1.10579
1.08815
1.07112
1.05412
1.03976
1.01593
2.72019
2.70207
2.68394
2.66581
2.64766
2.62951
2.61136
2.59321
2.57506
2.55692
2.53878
2.52065
2.50254
2.48444
2.46635
2.4483
2.43027
2.41226
2.3943
2.37637
2.35848
2.34065
2.32286
2.30513
2.28747
2.26987
2.25235
2.23491
2.21756
2.2003
2.18315
2.1661
2.14918
2.13238
2.1157
2.09917
2.08277
2.06652
2.05042
2.03448
2.0187
2.00307
1.98761
1.9723
1.95715
1.94216
1.92731
1.91259
1.898
1.88352
1.86914
1.85484
1.84061
1.82641
1.81223
1.79805
1.78384
1.76957
1.75522
1.74075
1.72616
1.71139
1.69644
1.68126
1.66585
1.65017
1.63421
1.61794
1.60137
1.58446
1.56723
1.54966
1.53176
1.51353
1.495
1.47616
1.45705
1.43768
1.41809
1.3983
1.37834
1.35826
1.33809
1.31787
1.29765
1.27745
1.25734
1.23734
1.21751
1.19789
1.17853
1.15945
1.14071
1.12233
1.10436
1.08679
1.0698
1.05282
1.03844
1.01453
2.72009
2.70197
2.68383
2.66568
2.64752
2.62936
2.61119
2.59302
2.57485
2.55669
2.53853
2.52037
2.50223
2.48411
2.466
2.44791
2.42984
2.4118
2.39379
2.37582
2.35789
2.34001
2.32217
2.30439
2.28667
2.26901
2.25143
2.23392
2.2165
2.19917
2.18194
2.16482
2.14781
2.13092
2.11416
2.09752
2.08103
2.06468
2.04848
2.03243
2.01654
2.0008
1.98522
1.9698
1.95454
1.93942
1.92445
1.90961
1.8949
1.8803
1.8658
1.85139
1.83704
1.82273
1.80845
1.79417
1.77986
1.76551
1.75108
1.73655
1.72189
1.70707
1.69208
1.67687
1.66144
1.64576
1.6298
1.61356
1.59701
1.58014
1.56296
1.54546
1.52763
1.50949
1.49105
1.47232
1.45332
1.43407
1.41461
1.39495
1.37514
1.3552
1.33518
1.31511
1.29504
1.27501
1.25505
1.23521
1.21553
1.19606
1.17683
1.15788
1.13925
1.12096
1.10307
1.08556
1.06859
1.05161
1.03721
1.01317
2.72
2.70186
2.68372
2.66555
2.64738
2.62921
2.61102
2.59284
2.57465
2.55647
2.53829
2.52011
2.50195
2.48379
2.46566
2.44754
2.42944
2.41136
2.39332
2.37531
2.35733
2.3394
2.32152
2.30369
2.28591
2.2682
2.25056
2.23299
2.2155
2.1981
2.1808
2.16361
2.14652
2.12954
2.11269
2.09597
2.07939
2.06295
2.04665
2.0305
2.0145
1.99865
1.98297
1.96743
1.95205
1.93682
1.92174
1.90678
1.89196
1.87724
1.86263
1.8481
1.83364
1.81923
1.80485
1.79047
1.77608
1.76164
1.74713
1.73254
1.71782
1.70296
1.68793
1.6727
1.65725
1.64157
1.62562
1.6094
1.59288
1.57607
1.55894
1.54151
1.52376
1.50571
1.48737
1.46875
1.44986
1.43074
1.4114
1.39188
1.37221
1.35242
1.33255
1.31263
1.29271
1.27283
1.25302
1.23332
1.21379
1.19445
1.17534
1.1565
1.13797
1.11976
1.10193
1.08445
1.06748
1.05048
1.03602
1.01184
2.71991
2.70177