/*--------------------------------*- C++ -*----------------------------------*\
  =========                 |
  \\      /  F ield         | OpenFOAM: The Open Source CFD Toolbox
   \\    /   O peration     | Website:  https://openfoam.org
    \\  /    A nd           | Version:  10
     \\/     M anipulation  |
\*---------------------------------------------------------------------------*/
FoamFile
{
    format      ascii;
    class       volScalarField;
    location    "0.19";
    object      k;
}
// * * * * * * * * * * * * * * * * * * * * * * * * * * * * * * * * * * * * * //

dimensions      [0 2 -2 0 0 0 0];

internalField   nonuniform List<scalar> 
6820
(
0.196709
0.190616
0.184994
0.179724
0.174798
0.17025
0.166114
0.162407
0.159125
0.156249
0.153752
0.151604
0.14977
0.14822
0.146924
0.145855
0.144986
0.144295
0.143762
0.143369
0.143098
0.142936
0.142869
0.142886
0.142976
0.143132
0.143339
0.143616
0.143844
0.144548
0.143239
0.151546
0.114934
0.201954
0.200832
0.197543
0.193922
0.190841
0.188585
0.187156
0.186433
0.186265
0.186522
0.187097
0.187908
0.188898
0.190019
0.191239
0.192532
0.193877
0.195259
0.196664
0.198082
0.199506
0.200929
0.202347
0.203757
0.205159
0.206553
0.207949
0.209359
0.210803
0.212418
0.21397
0.217244
0.218063
0.200488
0.200474
0.199117
0.19707
0.194841
0.19269
0.190724
0.188986
0.187489
0.186232
0.185206
0.184395
0.18378
0.18334
0.183058
0.182913
0.18289
0.182972
0.183148
0.183404
0.183729
0.184115
0.184554
0.185038
0.185562
0.186123
0.186717
0.187348
0.188008
0.188743
0.18947
0.190409
0.191164
0.199662
0.199121
0.198219
0.196983
0.195545
0.194012
0.192458
0.190931
0.189463
0.188073
0.186776
0.185577
0.184479
0.183482
0.182584
0.18178
0.181065
0.180435
0.179883
0.179405
0.178994
0.178645
0.178354
0.178116
0.177927
0.177785
0.177686
0.177631
0.177618
0.177657
0.177739
0.177889
0.178096
0.199429
0.198466
0.197531
0.196513
0.195399
0.194214
0.192986
0.19174
0.190495
0.189267
0.188068
0.186908
0.185792
0.184726
0.183712
0.182752
0.181845
0.180991
0.18019
0.17944
0.178739
0.178084
0.177475
0.176908
0.176383
0.175896
0.175448
0.175037
0.174662
0.174325
0.174025
0.173763
0.173537
0.199398
0.198268
0.197202
0.196166
0.195133
0.194088
0.193029
0.191958
0.190884
0.189812
0.18875
0.187703
0.186677
0.185676
0.184702
0.183759
0.182847
0.181969
0.181124
0.180312
0.179534
0.178789
0.178077
0.177396
0.176746
0.176127
0.175538
0.174977
0.174446
0.173943
0.173468
0.173022
0.172603
0.199395
0.19822
0.197098
0.196021
0.194978
0.193957
0.192952
0.191958
0.190973
0.189997
0.189031
0.188078
0.187139
0.186217
0.185313
0.184428
0.183565
0.182724
0.181905
0.181111
0.180339
0.179592
0.178869
0.178169
0.177493
0.17684
0.17621
0.175603
0.175018
0.174456
0.173916
0.173398
0.172902
0.199395
0.198211
0.197069
0.195969
0.194908
0.193881
0.192884
0.191912
0.190961
0.190029
0.189115
0.188217
0.187336
0.186471
0.185624
0.184793
0.18398
0.183185
0.182409
0.181651
0.180911
0.180191
0.179489
0.178807
0.178143
0.177498
0.176871
0.176263
0.175673
0.175102
0.174549
0.174014
0.173496
0.199395
0.198209
0.197063
0.195955
0.194884
0.19385
0.192848
0.191877
0.190934
0.190016
0.189123
0.188251
0.187399
0.186567
0.185754
0.18496
0.184183
0.183424
0.182683
0.181958
0.181251
0.180561
0.179887
0.17923
0.17859
0.177965
0.177357
0.176765
0.176188
0.175628
0.175083
0.174554
0.17404
0.199395
0.198209
0.197061
0.195951
0.194877
0.193838
0.192833
0.191859
0.190916
0.190001
0.189113
0.188249
0.18741
0.186593
0.185797
0.185022
0.184266
0.183529
0.18281
0.182109
0.181425
0.180758
0.180107
0.179472
0.178853
0.178249
0.17766
0.177086
0.176527
0.175983
0.175453
0.174937
0.174435
0.199395
0.198209
0.197061
0.19595
0.194875
0.193834
0.192827
0.191852
0.190907
0.189991
0.189104
0.188242
0.187406
0.186594
0.185805
0.185038
0.184292
0.183566
0.18286
0.182172
0.181501
0.180848
0.180212
0.179592
0.178988
0.1784
0.177826
0.177267
0.176722
0.176191
0.175675
0.175172
0.174683
0.199395
0.198209
0.19706
0.195949
0.194874
0.193833
0.192825
0.191849
0.190903
0.189986
0.189098
0.188237
0.187401
0.186591
0.185804
0.185039
0.184297
0.183575
0.182874
0.182192
0.181529
0.180883
0.180255
0.179644
0.179048
0.178469
0.177905
0.177355
0.17682
0.1763
0.175793
0.175299
0.174819
0.199395
0.198209
0.19706
0.195949
0.194873
0.193832
0.192824
0.191847
0.190901
0.189984
0.189095
0.188233
0.187398
0.186587
0.1858
0.185037
0.184295
0.183575
0.182876
0.182196
0.181535
0.180893
0.180269
0.179661
0.179071
0.178496
0.177937
0.177393
0.176863
0.176348
0.175847
0.175359
0.174885
0.199395
0.198209
0.19706
0.195949
0.194873
0.193831
0.192823
0.191846
0.1909
0.189982
0.189093
0.188231
0.187395
0.186584
0.185797
0.185034
0.184292
0.183573
0.182874
0.182195
0.181535
0.180894
0.180271
0.179665
0.179076
0.178504
0.177947
0.177405
0.176878
0.176366
0.175868
0.175383
0.174911
0.199395
0.198208
0.19706
0.195948
0.194872
0.193831
0.192822
0.191845
0.190898
0.189981
0.189092
0.18823
0.187393
0.186582
0.185795
0.185031
0.18429
0.18357
0.182871
0.182192
0.181533
0.180892
0.180269
0.179664
0.179076
0.178504
0.177948
0.177407
0.176882
0.176371
0.175873
0.17539
0.17492
0.199395
0.198208
0.19706
0.195948
0.194872
0.19383
0.192822
0.191844
0.190898
0.18998
0.189091
0.188228
0.187392
0.186581
0.185793
0.185029
0.184288
0.183568
0.182869
0.18219
0.18153
0.18089
0.180267
0.179662
0.179074
0.178502
0.177946
0.177406
0.176881
0.17637
0.175873
0.17539
0.17492
0.199395
0.198208
0.19706
0.195948
0.194872
0.19383
0.192821
0.191844
0.190897
0.189979
0.18909
0.188227
0.187391
0.186579
0.185792
0.185028
0.184286
0.183566
0.182867
0.182188
0.181528
0.180887
0.180264
0.179659
0.179071
0.1785
0.177944
0.177403
0.176878
0.176367
0.17587
0.175387
0.174917
0.199395
0.198208
0.19706
0.195948
0.194872
0.19383
0.192821
0.191843
0.190896
0.189978
0.189089
0.188226
0.187389
0.186578
0.18579
0.185026
0.184284
0.183564
0.182865
0.182186
0.181526
0.180885
0.180262
0.179657
0.179069
0.178497
0.177941
0.177401
0.176875
0.176364
0.175867
0.175384
0.174913
0.199395
0.198208
0.197059
0.195948
0.194871
0.193829
0.19282
0.191843
0.190896
0.189978
0.189088
0.188225
0.187388
0.186577
0.185789
0.185025
0.184283
0.183563
0.182863
0.182184
0.181524
0.180883
0.18026
0.179655
0.179066
0.178495
0.177939
0.177398
0.176872
0.176361
0.175864
0.17538
0.174909
0.199395
0.198208
0.197059
0.195948
0.194871
0.193829
0.19282
0.191842
0.190895
0.189977
0.189087
0.188224
0.187388
0.186576
0.185788
0.185024
0.184282
0.183561
0.182862
0.182182
0.181522
0.180881
0.180258
0.179653
0.179064
0.178492
0.177936
0.177395
0.176869
0.176358
0.17586
0.175377
0.174906
0.199395
0.198208
0.197059
0.195947
0.194871
0.193829
0.19282
0.191842
0.190895
0.189977
0.189087
0.188224
0.187387
0.186575
0.185787
0.185023
0.18428
0.18356
0.18286
0.182181
0.181521
0.18088
0.180256
0.179651
0.179062
0.17849
0.177934
0.177393
0.176867
0.176355
0.175857
0.175373
0.174902
0.199395
0.198208
0.197059
0.195947
0.194871
0.193829
0.19282
0.191842
0.190894
0.189976
0.189086
0.188223
0.187386
0.186574
0.185786
0.185022
0.184279
0.183559
0.182859
0.182179
0.181519
0.180878
0.180255
0.179649
0.17906
0.178488
0.177931
0.17739
0.176864
0.176352
0.175854
0.17537
0.174899
0.199395
0.198208
0.197059
0.195947
0.194871
0.193829
0.192819
0.191842
0.190894
0.189976
0.189086
0.188223
0.187385
0.186573
0.185785
0.185021
0.184278
0.183558
0.182858
0.182178
0.181518
0.180877
0.180253
0.179647
0.179058
0.178486
0.177929
0.177388
0.176862
0.17635
0.175851
0.175367
0.174895
0.199395
0.198208
0.197059
0.195947
0.194871
0.193829
0.192819
0.191841
0.190894
0.189976
0.189085
0.188222
0.187385
0.186573
0.185785
0.18502
0.184278
0.183557
0.182857
0.182177
0.181517
0.180875
0.180252
0.179646
0.179057
0.178484
0.177927
0.177386
0.176859
0.176347
0.175849
0.175364
0.174892
0.199395
0.198208
0.197059
0.195947
0.194871
0.193829
0.192819
0.191841
0.190894
0.189975
0.189085
0.188222
0.187384
0.186572
0.185784
0.185019
0.184277
0.183556
0.182856
0.182176
0.181516
0.180874
0.18025
0.179644
0.179055
0.178482
0.177926
0.177384
0.176857
0.176345
0.175846
0.175361
0.174889
0.199395
0.198208
0.197059
0.195947
0.194871
0.193828
0.192819
0.191841
0.190894
0.189975
0.189085
0.188221
0.187384
0.186572
0.185784
0.185019
0.184276
0.183555
0.182855
0.182175
0.181515
0.180873
0.180249
0.179643
0.179054
0.178481
0.177924
0.177382
0.176855
0.176342
0.175844
0.175358
0.174886
0.199395
0.198208
0.197059
0.195947
0.194871
0.193828
0.192819
0.191841
0.190893
0.189975
0.189085
0.188221
0.187384
0.186571
0.185783
0.185018
0.184276
0.183555
0.182855
0.182174
0.181514
0.180872
0.180248
0.179642
0.179053
0.178479
0.177922
0.17738
0.176853
0.17634
0.175841
0.175356
0.174883
0.199395
0.198208
0.197059
0.195947
0.194871
0.193828
0.192819
0.191841
0.190893
0.189975
0.189085
0.188221
0.187384
0.186571
0.185783
0.185018
0.184275
0.183554
0.182854
0.182174
0.181513
0.180871
0.180247
0.179641
0.179052
0.178478
0.177921
0.177379
0.176852
0.176339
0.17584
0.175354
0.174881
0.199395
0.198208
0.197059
0.195947
0.194871
0.193828
0.192819
0.191841
0.190893
0.189975
0.189084
0.188221
0.187383
0.186571
0.185783
0.185018
0.184275
0.183554
0.182854
0.182173
0.181513
0.180871
0.180247
0.17964
0.179051
0.178477
0.17792
0.177378
0.17685
0.176337
0.175838
0.175352
0.174879
0.199395
0.198208
0.197059
0.195947
0.194871
0.193829
0.192819
0.191841
0.190894
0.189975
0.189085
0.188221
0.187384
0.186572
0.185783
0.185018
0.184275
0.183554
0.182854
0.182174
0.181513
0.180871
0.180247
0.17964
0.17905
0.178477
0.177919
0.177377
0.176849
0.176336
0.175837
0.175351
0.174878
0.199395
0.198208
0.197059
0.195947
0.194871
0.193828
0.192819
0.191841
0.190893
0.189975
0.189084
0.188221
0.187384
0.186571
0.185783
0.185018
0.184275
0.183554
0.182854
0.182174
0.181513
0.180871
0.180247
0.17964
0.17905
0.178477
0.177919
0.177377
0.176849
0.176336
0.175836
0.17535
0.174877
0.199395
0.198208
0.197059
0.195948
0.194871
0.193829
0.19282
0.191843
0.190895
0.189977
0.189087
0.188224
0.187386
0.186574
0.185786
0.185021
0.184278
0.183557
0.182856
0.182176
0.181515
0.180873
0.180249
0.179642
0.179052
0.178478
0.177921
0.177378
0.17685
0.176336
0.175837
0.17535
0.174877
0.199395
0.198209
0.19706
0.195949
0.194872
0.19383
0.192821
0.191843
0.190896
0.189978
0.189087
0.188224
0.187387
0.186575
0.185787
0.185022
0.184279
0.183558
0.182858
0.182178
0.181517
0.180875
0.18025
0.179643
0.179053
0.178479
0.177921
0.177378
0.17685
0.176336
0.175835
0.175348
0.174874
0.199395
0.198208
0.19706
0.19595
0.194876
0.193835
0.192827
0.191851
0.190905
0.189987
0.189097
0.188234
0.187397
0.186585
0.185797
0.185031
0.184288
0.183567
0.182866
0.182185
0.181523
0.180879
0.180254
0.179645
0.179054
0.178478
0.177918
0.177373
0.176843
0.176326
0.175823
0.175334
0.174857
0.199395
0.198212
0.197066
0.195957
0.194882
0.193842
0.192834
0.191857
0.190911
0.189994
0.189104
0.188241
0.187404
0.186591
0.185802
0.185035
0.18429
0.183567
0.182863
0.182179
0.181513
0.180866
0.180236
0.179623
0.179026
0.178444
0.177878
0.177327
0.17679
0.176267
0.175757
0.175259
0.174775
0.199396
0.198213
0.197071
0.195969
0.194902
0.193869
0.192866
0.191893
0.190947
0.190029
0.189137
0.18827
0.187427
0.186607
0.185809
0.185033
0.184277
0.183541
0.182825
0.182127
0.181447
0.180785
0.180139
0.179509
0.178896
0.178297
0.177714
0.177145
0.176589
0.176048
0.175519
0.175003
0.1745
0.199402
0.19824
0.197114
0.196018
0.194952
0.193916
0.192908
0.191927
0.190972
0.19004
0.189132
0.188245
0.18738
0.186536
0.185713
0.184909
0.184124
0.183359
0.182611
0.181881
0.181169
0.180474
0.179794
0.179131
0.178484
0.177852
0.177234
0.176631
0.176041
0.175466
0.174903
0.174354
0.173817
0.199421
0.198284
0.197214
0.196182
0.195158
0.194136
0.193119
0.192111
0.191117
0.190142
0.189188
0.188257
0.187348
0.186463
0.185601
0.184761
0.183942
0.183145
0.182368
0.18161
0.180871
0.180149
0.179445
0.178758
0.178088
0.177433
0.176793
0.176168
0.175557
0.174961
0.174378
0.173808
0.173252
0.199655
0.198884
0.198077
0.197302
0.196603
0.195975
0.195404
0.19488
0.194396
0.193949
0.193539
0.193163
0.192821
0.192512
0.192234
0.191986
0.191767
0.191575
0.191408
0.191266
0.191146
0.191047
0.190967
0.190906
0.190862
0.190834
0.190821
0.190821
0.190834
0.190859
0.190896
0.190943
0.190999
0.205419
0.216602
0.227661
0.238502
0.249093
0.259416
0.269459
0.279213
0.288668
0.297819
0.306662
0.315193
0.323413
0.331322
0.338923
0.346219
0.353216
0.359919
0.366335
0.372471
0.378334
0.383933
0.389275
0.39437
0.399226
0.403852
0.408256
0.412448
0.416435
0.420227
0.423831
0.427255
0.430511
0.318727
0.636922
0.96007
1.24678
1.47745
1.64542
1.75453
1.81579
1.84277
1.848
1.84108
1.82834
1.81343
1.79816
1.78331
1.76913
1.75571
1.74311
1.73141
1.72071
1.71114
1.7028
1.69575
1.69
1.68548
1.68199
1.67928
1.67701
1.67485
1.67243
1.66943
1.66557
1.66056
1.65413
1.64599
1.63583
1.62336
1.60827
1.5903
1.56921
1.5448
1.51694
1.48554
1.45057
1.41206
1.37011
1.32492
1.27673
1.22589
1.1728
1.11794
1.06183
1.00505
0.948213
0.891926
0.836804
0.783433
0.732354
0.684047
0.63891
0.597249
0.559274
0.525092
0.494716
0.468079
0.445049
0.425449
0.409077
0.395721
0.385178
0.377261
0.371807
0.368678
0.367761
0.368964
0.37221
0.377425
0.384533
0.393437
0.404011
0.416084
0.429431
0.443766
0.458736
0.473928
0.488875
0.503068
0.515975
0.527057
0.535788
0.541676
0.544272
0.543196
0.538136
0.52889
0.515307
0.497532
0.475069
0.451809
0.406917
0.232928
0.263965
0.310422
0.37281
0.450576
0.541582
0.64201
0.746845
0.850706
0.94857
1.0366
1.11249
1.17552
1.2262
1.26586
1.29626
1.31919
1.33624
1.34876
1.35781
1.36419
1.36858
1.3715
1.37335
1.37444
1.37492
1.37481
1.37402
1.37238
1.36969
1.36577
1.36045
1.35359
1.34502
1.3346
1.32213
1.30741
1.29022
1.27039
1.24776
1.22222
1.19371
1.16222
1.12783
1.09063
1.05082
1.00866
0.964478
0.918658
0.871653
0.823964
0.776121
0.728674
0.68217
0.637136
0.594058
0.55336
0.515394
0.480423
0.448617
0.420054
0.394721
0.372532
0.353339
0.336954
0.323168
0.311767
0.302548
0.295327
0.28995
0.286292
0.284262
0.283798
0.284867
0.287459
0.291581
0.297249
0.304479
0.313275
0.323609
0.335414
0.348561
0.362853
0.37801
0.393674
0.409409
0.424717
0.439056
0.451861
0.46257
0.470646
0.4756
0.477013
0.474546
0.467973
0.45715
0.442205
0.422729
0.402348
0.362283
0.192249
0.194676
0.199627
0.207803
0.219514
0.235051
0.254839
0.279368
0.309102
0.344401
0.3853
0.431333
0.481507
0.534434
0.588482
0.641938
0.693182
0.740841
0.783913
0.821835
0.854484
0.882105
0.9052
0.924386
0.940264
0.953331
0.963921
0.972211
0.978255
0.982042
0.983544
0.982756
0.979692
0.974378
0.966823
0.957004
0.94487
0.930351
0.913385
0.893935
0.872006
0.847651
0.820971
0.792122
0.761311
0.728802
0.694913
0.66001
0.624502
0.588828
0.553439
0.518785
0.485293
0.453352
0.423294
0.395379
0.369792
0.346637
0.325938
0.307651
0.291675
0.277868
0.266058
0.256067
0.247714
0.240834
0.235275
0.230914
0.22765
0.225408
0.224139
0.22382
0.22445
0.226052
0.228668
0.232356
0.237188
0.243242
0.25059
0.259293
0.269376
0.280817
0.293526
0.307328
0.321954
0.337041
0.352136
0.366712
0.3802
0.392007
0.401558
0.408316
0.411814
0.411674
0.407635
0.399542
0.387498
0.371174
0.353852
0.319102
0.178282
0.178479
0.1789
0.179752
0.181188
0.183326
0.186271
0.190132
0.195053
0.201227
0.208835
0.218132
0.229411
0.242948
0.258948
0.277499
0.298525
0.321758
0.346739
0.372855
0.399413
0.425726
0.45119
0.475329
0.497798
0.518356
0.536821
0.553039
0.566864
0.578179
0.586911
0.593048
0.59664
0.59778
0.596571
0.593102
0.587441
0.579639
0.569747
0.557833
0.544002
0.528392
0.511181
0.492584
0.472848
0.452248
0.431086
0.40968
0.388354
0.367423
0.347184
0.327896
0.309775
0.292982
0.277622
0.263744
0.251344
0.240378
0.230768
0.222417
0.215215
0.20905
0.203813
0.199403
0.195732
0.192724
0.190317
0.188464
0.187133
0.186306
0.185979
0.186163
0.186884
0.188184
0.190117
0.192754
0.19618
0.20049
0.205786
0.21217
0.219729
0.228524
0.238567
0.2498
0.262077
0.275148
0.288659
0.302154
0.315098
0.326909
0.33699
0.34477
0.349733
0.351457
0.349634
0.344088
0.334877
0.321743
0.307557
0.278436
0.173279
0.172967
0.172679
0.172468
0.172372
0.172424
0.172655
0.173091
0.173755
0.174676
0.175888
0.177415
0.17931
0.181644
0.184497
0.187953
0.192094
0.19699
0.202688
0.209208
0.216529
0.224594
0.23331
0.242556
0.252184
0.262024
0.271883
0.281537
0.290743
0.29925
0.306824
0.31327
0.31845
0.322285
0.324741
0.325815
0.325521
0.323886
0.320952
0.316783
0.31147
0.305131
0.297908
0.289961
0.281461
0.272587
0.263519
0.254431
0.245485
0.236824
0.228566
0.220804
0.213602
0.206994
0.200994
0.195594
0.190771
0.18649
0.182714
0.179399
0.176504
0.173988
0.171814
0.16995
0.168369
0.167048
0.165971
0.165128
0.164516
0.164138
0.164005
0.164136
0.164558
0.165309
0.166438
0.168002
0.170075
0.172739
0.176089
0.180228
0.185259
0.191279
0.198361
0.206537
0.215773
0.225951
0.236852
0.248144
0.259393
0.270083
0.27965
0.287522
0.293161
0.296107
0.29601
0.292656
0.286052
0.275987
0.26487
0.241428
0.172136
0.171604
0.171076
0.170564
0.170077
0.169627
0.169227
0.168888
0.168619
0.168428
0.168321
0.168299
0.168369
0.16854
0.168824
0.169238
0.169798
0.170521
0.171424
0.172521
0.173823
0.175337
0.177065
0.179002
0.18114
0.183459
0.185929
0.188508
0.191137
0.193743
0.196248
0.198569
0.200631
0.202372
0.203741
0.204702
0.205228
0.205299
0.204909
0.204065
0.202787
0.201111
0.199083
0.196759
0.194199
0.191467
0.188626
0.185734
0.182847
0.180013
0.177271
0.174652
0.17218
0.169867
0.167722
0.165746
0.163935
0.162285
0.160786
0.159429
0.158203
0.157098
0.156105
0.155216
0.154425
0.153726
0.153118
0.152601
0.152178
0.151858
0.15165
0.151572
0.151645
0.151896
0.15236
0.153081
0.154111
0.155512
0.157357
0.159729
0.162717
0.166414
0.170908
0.176268
0.182528
0.189668
0.197591
0.206106
0.214918
0.223634
0.231786
0.238861
0.244347
0.247781
0.248787
0.247117
0.242723
0.23542
0.227131
0.209084
0.172347
0.171721
0.171096
0.170476
0.169863
0.169259
0.168669
0.168098
0.16755
0.167029
0.166539
0.166082
0.165658
0.16527
0.16492
0.164609
0.16434
0.164117
0.163943
0.163821
0.163755
0.163747
0.163799
0.163912
0.164087
0.164323
0.164614
0.164954
0.165332
0.165732
0.166136
0.166524
0.166874
0.167169
0.16739
0.167524
0.167557
0.167478
0.16728
0.166958
0.166514
0.165951
0.165278
0.164508
0.163655
0.162735
0.161766
0.160763
0.159743
0.158722
0.157711
0.156722
0.155763
0.154841
0.15396
0.153122
0.152328
0.151576
0.150864
0.150191
0.149553
0.148948
0.148371
0.147822
0.147297
0.146797
0.146321
0.145873
0.145454
0.145072
0.144733
0.144451
0.144238
0.144114
0.144102
0.144231
0.144537
0.145063
0.14586
0.146987
0.148512
0.150509
0.153053
0.156213
0.160047
0.16458
0.16979
0.175594
0.181823
0.188224
0.194458
0.200125
0.204792
0.208042
0.20951
0.208938
0.206229
0.201209
0.195335
0.182053
0.172914
0.172258
0.1716
0.170943
0.170286
0.169632
0.168981
0.168336
0.167697
0.167068
0.166451
0.165846
0.165255
0.164679
0.16412
0.163577
0.163053
0.162546
0.162058
0.16159
0.161142
0.160715
0.16031
0.159926
0.159566
0.159229
0.158915
0.158623
0.158352
0.158098
0.157857
0.157623
0.157391
0.157156
0.156912
0.156653
0.156377
0.156079
0.155756
0.155405
0.155026
0.154619
0.154186
0.153727
0.153248
0.152751
0.152241
0.151722
0.151199
0.150675
0.150155
0.14964
0.149134
0.148637
0.148151
0.147674
0.147208
0.146749
0.146298
0.145851
0.145407
0.144964
0.144519
0.144072
0.14362
0.143164
0.142703
0.142239
0.141774
0.141311
0.140856
0.140415
0.139998
0.139616
0.139285
0.139024
0.138854
0.138806
0.138912
0.139214
0.139759
0.140599
0.141792
0.143396
0.145463
0.148031
0.151113
0.154683
0.158661
0.1629
0.167186
0.171242
0.174744
0.177359
0.178776
0.178752
0.177169
0.173859
0.169872
0.160471
0.17346
0.172804
0.172146
0.171486
0.170825
0.170162
0.169499
0.168835
0.168173
0.167513
0.166857
0.166204
0.165557
0.164916
0.164283
0.163657
0.16304
0.162432
0.161834
0.161245
0.160666
0.160097
0.159539
0.15899
0.158453
0.157927
0.157414
0.156914
0.156426
0.155952
0.15549
0.155039
0.154597
0.154162
0.153734
0.15331
0.15289
0.152472
0.152056
0.15164
0.151226
0.150811
0.150398
0.149985
0.149574
0.149165
0.14876
0.148358
0.14796
0.147568
0.14718
0.146797
0.146419
0.146045
0.145673
0.145303
0.144932
0.144558
0.144181
0.143796
0.143403
0.142999
0.142583
0.142151
0.141703
0.141239
0.140756
0.140256
0.13974
0.139209
0.138666
0.138116
0.137563
0.137014
0.13648
0.135971
0.135502
0.135091
0.13476
0.134536
0.13445
0.134539
0.134842
0.135404
0.136266
0.137464
0.139023
0.140941
0.143188
0.145687
0.148313
0.150892
0.153205
0.155011
0.156073
0.156191
0.155248
0.15309
0.150446
0.143962
0.173867
0.173224
0.172578
0.171929
0.171277
0.170623
0.169966
0.169308
0.168648
0.167987
0.167327
0.166667
0.166008
0.165351
0.164697
0.164046
0.163399
0.162757
0.16212
0.161489
0.160862
0.160242
0.159627
0.159019
0.158416
0.157821
0.157235
0.156657
0.156088
0.15553
0.154983
0.154447
0.15392
0.153404
0.152897
0.152399
0.151911
0.151431
0.150961
0.150501
0.15005
0.149609
0.149177
0.148756
0.148343
0.147941
0.147547
0.147162
0.146785
0.146416
0.146053
0.145695
0.145342
0.14499
0.144639
0.144286
0.14393
0.143567
0.143197
0.142816
0.142423
0.142014
0.141588
0.141143
0.140678
0.14019
0.139679
0.139144
0.138586
0.138004
0.137401
0.136778
0.136139
0.135487
0.134828
0.134168
0.133518
0.132887
0.13229
0.131743
0.131267
0.130885
0.130626
0.130519
0.130596
0.130886
0.131412
0.132187
0.133202
0.134424
0.135783
0.137177
0.138469
0.1395
0.140103
0.140127
0.139475
0.138014
0.136244
0.131802
0.174127
0.173499
0.172867
0.172233
0.171595
0.170954
0.17031
0.169664
0.169015
0.168365
0.167713
0.16706
0.166406
0.165752
0.165099
0.164447
0.163797
0.163149
0.162503
0.16186
0.161221
0.160584
0.159952
0.159323
0.158698
0.158079
0.157465
0.156858
0.156259
0.155668
0.155087
0.154515
0.153953
0.1534
0.152857
0.152324
0.151802
0.15129
0.150789
0.1503
0.149823
0.149358
0.148905
0.148465
0.148036
0.147619
0.147212
0.146816
0.146428
0.146049
0.145677
0.14531
0.144946
0.144584
0.144221
0.143857
0.143487
0.143111
0.142725
0.142328
0.141917
0.14149
0.141045
0.140579
0.140091
0.139579
0.139042
0.138479
0.137889
0.137272
0.136629
0.135961
0.135268
0.134554
0.133821
0.133074
0.132318
0.131559
0.130806
0.130069
0.129361
0.128698
0.128097
0.127578
0.127164
0.126877
0.126737
0.126757
0.126941
0.127278
0.127734
0.128254
0.128756
0.129142
0.129302
0.129133
0.128561
0.127478
0.126232
0.123135
0.174274
0.173657
0.173038
0.172415
0.17179
0.171161
0.17053
0.169896
0.16926
0.168621
0.16798
0.167338
0.166694
0.16605
0.165405
0.16476
0.164116
0.163472
0.16283
0.162189
0.16155
0.160913
0.160278
0.159646
0.159017
0.158391
0.15777
0.157154
0.156544
0.155942
0.155347
0.154761
0.154183
0.153614
0.153055
0.152504
0.151964
0.151434
0.150915
0.150407
0.149912
0.149428
0.148957
0.148498
0.148051
0.147616
0.147191
0.146776
0.14637
0.145972
0.14558
0.145194
0.14481
0.144428
0.144046
0.14366
0.14327
0.142873
0.142467
0.142049
0.141617
0.141169
0.140703
0.140217
0.139708
0.139176
0.138618
0.138033
0.137421
0.136781
0.136112
0.135416
0.134692
0.133942
0.133167
0.13237
0.131554
0.130723
0.129883
0.12904
0.128201
0.127376
0.126577
0.125817
0.125111
0.124474
0.123921
0.123466
0.123116
0.122871
0.122717
0.122628
0.122559
0.122453
0.122244
0.121863
0.121263
0.120358
0.119398
0.117141
0.174346
0.173737
0.173126
0.172512
0.171895
0.171275
0.170653
0.170029
0.169402
0.168773
0.168142
0.16751
0.166876
0.166241
0.165605
0.164969
0.164332
0.163696
0.16306
0.162425
0.161791
0.161159
0.160528
0.159898
0.159271
0.158646
0.158025
0.157408
0.156797
0.156191
0.155592
0.155001
0.154417
0.15384
0.153272
0.152713
0.152163
0.151622
0.151091
0.150571
0.150062
0.149565
0.149079
0.148604
0.148141
0.147688
0.147245
0.146812
0.146387
0.14597
0.145558
0.145152
0.144748
0.144345
0.143941
0.143535
0.143124
0.142707
0.14228
0.141842
0.141391
0.140925
0.140441
0.139937
0.139412
0.138863
0.138289
0.137689
0.137061
0.136405
0.135721
0.135007
0.134265
0.133495
0.132697
0.131873
0.131026
0.130158
0.129271
0.128371
0.127461
0.126549
0.125641
0.124747
0.123875
0.123036
0.122242
0.121503
0.120827
0.120218
0.119673
0.119183
0.118725
0.118269
0.117778
0.117211
0.11654
0.115697
0.114878
0.113117
0.174377
0.173772
0.173165
0.172555
0.171944
0.17133
0.170713
0.170095
0.169475
0.168852
0.168228
0.167602
0.166975
0.166347
0.165718
0.165088
0.164458
0.163828
0.163199
0.162569
0.161941
0.161313
0.160686
0.160061
0.159437
0.158816
0.158197
0.157582
0.156972
0.156366
0.155766
0.155173
0.154586
0.154006
0.153434
0.152869
0.152312
0.151765
0.151226
0.150697
0.150178
0.14967
0.149172
0.148684
0.148207
0.14774
0.147282
0.146832
0.146391
0.145956
0.145527
0.145102
0.144679
0.144258
0.143836
0.143411
0.142982
0.142547
0.142103
0.141649
0.141181
0.140699
0.1402
0.139683
0.139144
0.138583
0.137997
0.137386
0.136748
0.136082
0.135387
0.134664
0.133912
0.13313
0.132321
0.131484
0.130621
0.129734
0.128825
0.127896
0.126952
0.125995
0.125032
0.124067
0.123107
0.122159
0.121232
0.120332
0.119468
0.118645
0.117864
0.117124
0.116417
0.115728
0.115039
0.114326
0.113578
0.112741
0.11198
0.110493
0.174386
0.173783
0.173178
0.172571
0.171961
0.17135
0.170737
0.170121
0.169504
0.168886
0.168265
0.167643
0.16702
0.166396
0.165771
0.165146
0.16452
0.163894
0.163268
0.162642
0.162017
0.161393
0.16077
0.160147
0.159527
0.158908
0.158291
0.157678
0.157069
0.156464
0.155863
0.155269
0.15468
0.154098
0.153522
0.152954
0.152393
0.151839
0.151295
0.150759
0.150232
0.149715
0.149207
0.148709
0.14822
0.147741
0.14727
0.146807
0.146351
0.145902
0.145457
0.145017
0.144579
0.144142
0.143705
0.143265
0.14282
0.14237
0.141912
0.141444
0.140963
0.140469
0.139958
0.139429
0.138881
0.13831
0.137716
0.137097
0.136452
0.135779
0.135079
0.13435
0.133592
0.132806
0.131991
0.131149
0.130279
0.129384
0.128466
0.127525
0.126565
0.125588
0.124599
0.1236
0.122597
0.121595
0.120599
0.119615
0.11865
0.117708
0.116794
0.115909
0.115052
0.114218
0.113399
0.112585
0.111772
0.110918
0.110171
0.108823
0.174387
0.173784
0.173179
0.172573
0.171964
0.171354
0.170741
0.170127
0.169511
0.168894
0.168275
0.167655
0.167034
0.166411
0.165788
0.165164
0.16454
0.163916
0.163292
0.162668
0.162045
0.161422
0.1608
0.160179
0.159559
0.158942
0.158326
0.157713
0.157104
0.156499
0.155898
0.155302
0.154711
0.154126
0.153548
0.152976
0.15241
0.151852
0.151302
0.15076
0.150226
0.149702
0.149186
0.148679
0.14818
0.14769
0.147208
0.146734
0.146266
0.145804
0.145348
0.144894
0.144443
0.143994
0.143543
0.143091
0.142634
0.142172
0.141702
0.141222
0.140731
0.140227
0.139707
0.13917
0.138613
0.138035
0.137435
0.13681
0.13616
0.135484
0.13478
0.134049
0.133289
0.1325
0.131684
0.13084
0.129969
0.129072
0.128151
0.127207
0.126242
0.125258
0.124259
0.123247
0.122226
0.121199
0.120172
0.119148
0.118133
0.117131
0.116147
0.115184
0.114243
0.113325
0.112429
0.111548
0.110688
0.109813
0.109062
0.107776
0.174384
0.173781
0.173176
0.172569
0.17196
0.17135
0.170738
0.170123
0.169508
0.16889
0.168272
0.167652
0.167031
0.166408
0.165786
0.165162
0.164538
0.163914
0.16329
0.162666
0.162042
0.161419
0.160797
0.160176
0.159556
0.158938
0.158322
0.157708
0.157098
0.156491
0.155888
0.15529
0.154697
0.154109
0.153527
0.152951
0.152381
0.151818
0.151263
0.150715
0.150175
0.149643
0.14912
0.148605
0.148098
0.147599
0.147108
0.146623
0.146145
0.145673
0.145205
0.144741
0.144279
0.143819
0.143357
0.142894
0.142427
0.141955
0.141475
0.140987
0.140487
0.139974
0.139447
0.138903
0.13834
0.137757
0.137152
0.136523
0.13587
0.135191
0.134486
0.133753
0.132992
0.132204
0.131388
0.130545
0.129675
0.128779
0.127859
0.126916
0.125952
0.124968
0.123967
0.122953
0.121926
0.120892
0.119853
0.118814
0.117777
0.116749
0.115732
0.11473
0.113747
0.112785
0.111845
0.110925
0.110034
0.109141
0.10838
0.107115
0.17438
0.173777
0.173171
0.172564
0.171955
0.171344
0.170731
0.170116
0.1695
0.168882
0.168263
0.167642
0.16702
0.166397
0.165774
0.165149
0.164525
0.163899
0.163274
0.162649
0.162024
0.1614
0.160776
0.160154
0.159532
0.158913
0.158295
0.157679
0.157067
0.156457
0.155852
0.155251
0.154654
0.154062
0.153476
0.152896
0.152322
0.151754
0.151193
0.15064
0.150093
0.149555
0.149025
0.148502
0.147987
0.14748
0.14698
0.146487
0.146
0.145518
0.145041
0.144567
0.144096
0.143626
0.143155
0.142682
0.142207
0.141726
0.141238
0.140741
0.140234
0.139715
0.139181
0.138632
0.138064
0.137477
0.136868
0.136237
0.135581
0.134901
0.134194
0.133461
0.132701
0.131914
0.131099
0.130257
0.12939
0.128497
0.12758
0.12664
0.125679
0.124698
0.123701
0.122688
0.121664
0.12063
0.119589
0.118546
0.117504
0.116466
0.115437
0.11442
0.113418
0.112434
0.111472
0.110531
0.109622
0.108714
0.107943
0.106677
0.174376
0.173772
0.173166
0.172558
0.171948
0.171336
0.170723
0.170107
0.16949
0.168872
0.168251
0.16763
0.167007
0.166383
0.165758
0.165132
0.164506
0.16388
0.163253
0.162626
0.161999
0.161373
0.160747
0.160122
0.159499
0.158876
0.158256
0.157638
0.157022
0.15641
0.155801
0.155196
0.154596
0.154
0.15341
0.152824
0.152245
0.151672
0.151106
0.150546
0.149994
0.149449
0.148912
0.148382
0.14786
0.147345
0.146837
0.146335
0.14584
0.14535
0.144864
0.144381
0.143901
0.143423
0.142944
0.142463
0.141979
0.141491
0.140995
0.140492
0.139979
0.139453
0.138914
0.13836
0.137788
0.137197
0.136585
0.135952
0.135295
0.134613
0.133906
0.133173
0.132414
0.131627
0.130815
0.129976
0.129111
0.128221
0.127308
0.126372
0.125415
0.124439
0.123446
0.122438
0.121418
0.120388
0.119352
0.118311
0.11727
0.116232
0.1152
0.114179
0.11317
0.112178
0.111206
0.110255
0.109334
0.108416
0.107635
0.106359
0.174372
0.173767
0.173161
0.172552
0.171942
0.171329
0.170715
0.170099
0.169481
0.168861
0.16824
0.167617
0.166993
0.166368
0.165742
0.165114
0.164487
0.163858
0.163229
0.162601
0.161972
0.161343
0.160715
0.160088
0.159461
0.158836
0.158213
0.157592
0.156973
0.156357
0.155744
0.155136
0.154531
0.153931
0.153335
0.152745
0.152161
0.151583
0.15101
0.150445
0.149887
0.149335
0.148791
0.148254
0.147725
0.147202
0.146687
0.146177
0.145674
0.145176
0.144682
0.144191
0.143703
0.143217
0.14273
0.142241
0.14175
0.141255
0.140753
0.140243
0.139724
0.139193
0.138649
0.13809
0.137514
0.13692
0.136306
0.13567
0.135012
0.134329
0.133622
0.132889
0.13213
0.131346
0.130535
0.129698
0.128836
0.127949
0.12704
0.126108
0.125156
0.124185
0.123197
0.122194
0.12118
0.120155
0.119124