/*--------------------------------*- C++ -*----------------------------------*\
  =========                 |
  \\      /  F ield         | OpenFOAM: The Open Source CFD Toolbox
   \\    /   O peration     | Website:  https://openfoam.org
    \\  /    A nd           | Version:  10
     \\/     M anipulation  |
\*---------------------------------------------------------------------------*/
FoamFile
{
    format      ascii;
    class       volScalarField;
    location    "0.19";
    object      nut;
}
// * * * * * * * * * * * * * * * * * * * * * * * * * * * * * * * * * * * * * //

dimensions      [0 2 -1 0 0 0 0];

internalField   nonuniform List<scalar> 
6820
(
0.000149484
0.000144853
0.000140581
0.000136577
0.000132833
0.000129376
0.000126234
0.000123417
0.000120923
0.000118737
0.00011684
0.000115207
0.000113814
0.000112636
0.000111651
0.000110838
0.000110178
0.000109653
0.000109248
0.000108949
0.000108744
0.000108621
0.00010857
0.000108582
0.000108651
0.000108769
0.000108927
0.000109137
0.00010931
0.000109845
0.000108851
0.000115163
8.73418e-05
0.000729198
0.000532388
0.000448006
0.000399699
0.00036837
0.000346719
0.000331074
0.000319344
0.000310256
0.000303007
0.000297075
0.000292114
0.000287889
0.000284235
0.000281035
0.000278201
0.000275669
0.00027339
0.000271323
0.00026944
0.000267714
0.000266125
0.000264658
0.000263298
0.000262033
0.000260855
0.000259757
0.000258729
0.000257775
0.000256896
0.000256111
0.000255292
0.000256898
0.000976776
0.00087218
0.00078162
0.000711258
0.000657309
0.000615264
0.000581688
0.000554221
0.000531278
0.000511774
0.000494951
0.00048026
0.000467297
0.000455757
0.000445405
0.000436058
0.00042757
0.000419823
0.000412721
0.000406185
0.00040015
0.000394558
0.000389363
0.000384523
0.000380002
0.000375767
0.000371788
0.000368038
0.000364476
0.000361094
0.000357778
0.000354519
0.000350855
0.00101349
0.000988231
0.000949374
0.000906191
0.00086442
0.000826373
0.000792536
0.000762643
0.000736199
0.000712695
0.000691675
0.000672757
0.000655625
0.000640019
0.000625728
0.000612578
0.000600425
0.00058915
0.000578653
0.000568849
0.000559667
0.000551045
0.00054293
0.000535275
0.00052804
0.000521188
0.000514684
0.000508498
0.000502594
0.000496952
0.000491506
0.00048628
0.000481027
0.00101671
0.00101241
0.00100191
0.00098566
0.000965601
0.000943707
0.000921413
0.000899596
0.000878726
0.000859011
0.00084051
0.000823201
0.00080702
0.000791887
0.000777718
0.000764428
0.00075194
0.000740181
0.000729087
0.000718599
0.000708667
0.000699242
0.000690284
0.000681754
0.000673619
0.000665849
0.000658412
0.000651283
0.000644433
0.000637839
0.00063146
0.000625286
0.000619255
0.00101676
0.00101592
0.0010136
0.00100903
0.00100204
0.000992917
0.000982186
0.000970389
0.000957993
0.000945357
0.000932738
0.000920312
0.000908192
0.000896446
0.000885111
0.000874204
0.000863727
0.000853672
0.000844027
0.000834776
0.0008259
0.00081738
0.000809197
0.000801331
0.000793765
0.000786479
0.000779456
0.000772677
0.000766125
0.000759782
0.000753627
0.000747646
0.000741822
0.00101671
0.00101623
0.00101553
0.00101428
0.00101219
0.00100909
0.00100496
0.000999888
0.000994014
0.000987511
0.000980545
0.000973263
0.000965786
0.000958216
0.000950629
0.000943086
0.000935631
0.000928296
0.000921105
0.000914073
0.000907211
0.000900523
0.000894012
0.000887678
0.000881518
0.000875528
0.000869703
0.000864036
0.00085852
0.000853148
0.000847911
0.000842802
0.000837817
0.0010167
0.00101622
0.00101574
0.00101518
0.00101442
0.00101335
0.00101188
0.00100995
0.00100755
0.0010047
0.00100144
0.000997817
0.000993896
0.000989733
0.000985382
0.000980891
0.000976303
0.000971653
0.000966973
0.000962288
0.000957618
0.000952979
0.000948386
0.000943848
0.000939373
0.000934967
0.000930633
0.000926374
0.000922191
0.000918085
0.000914055
0.000910101
0.000906224
0.0010167
0.00101621
0.00101575
0.00101528
0.0010148
0.00101425
0.00101359
0.00101278
0.00101179
0.00101059
0.00100917
0.00100753
0.00100568
0.00100364
0.00100142
0.000999047
0.000996541
0.000993923
0.000991213
0.00098843
0.000985591
0.00098271
0.000979801
0.000976876
0.000973943
0.000971013
0.000968092
0.000965185
0.000962298
0.000959436
0.000956602
0.0009538
0.000951033
0.0010167
0.00101621
0.00101574
0.00101529
0.00101484
0.00101439
0.00101393
0.00101344
0.0010129
0.00101229
0.0010116
0.00101081
0.00100993
0.00100895
0.00100786
0.00100667
0.00100539
0.00100402
0.00100256
0.00100104
0.000999454
0.000997811
0.000996121
0.000994392
0.000992629
0.00099084
0.000989031
0.000987208
0.000985375
0.000983537
0.000981698
0.000979864
0.000978037
0.0010167
0.00101621
0.00101574
0.00101528
0.00101484
0.0010144
0.00101398
0.00101356
0.00101313
0.0010127
0.00101224
0.00101176
0.00101125
0.00101069
0.0010101
0.00100946
0.00100877
0.00100804
0.00100726
0.00100644
0.00100557
0.00100466
0.00100372
0.00100274
0.00100173
0.0010007
0.000999637
0.000998557
0.00099746
0.000996349
0.000995227
0.000994098
0.000992964
0.0010167
0.00101621
0.00101574
0.00101528
0.00101484
0.0010144
0.00101398
0.00101357
0.00101317
0.00101277
0.00101238
0.00101199
0.00101159
0.00101119
0.00101077
0.00101035
0.00100991
0.00100945
0.00100897
0.00100848
0.00100796
0.00100743
0.00100688
0.0010063
0.00100571
0.00100511
0.00100448
0.00100385
0.0010032
0.00100254
0.00100186
0.00100119
0.0010005
0.0010167
0.00101621
0.00101574
0.00101528
0.00101483
0.0010144
0.00101398
0.00101357
0.00101317
0.00101278
0.0010124
0.00101203
0.00101166
0.0010113
0.00101095
0.00101059
0.00101024
0.00100988
0.00100952
0.00100916
0.00100879
0.00100842
0.00100804
0.00100766
0.00100727
0.00100688
0.00100648
0.00100607
0.00100565
0.00100524
0.00100482
0.00100439
0.00100396
0.0010167
0.00101621
0.00101574
0.00101528
0.00101483
0.0010144
0.00101398
0.00101357
0.00101317
0.00101278
0.0010124
0.00101203
0.00101167
0.00101132
0.00101098
0.00101065
0.00101032
0.00100999
0.00100967
0.00100936
0.00100904
0.00100873
0.00100843
0.00100812
0.00100781
0.00100751
0.00100721
0.0010069
0.0010066
0.0010063
0.001006
0.0010057
0.0010054
0.0010167
0.00101621
0.00101574
0.00101528
0.00101483
0.0010144
0.00101398
0.00101357
0.00101317
0.00101278
0.0010124
0.00101203
0.00101167
0.00101132
0.00101098
0.00101065
0.00101033
0.00101001
0.0010097
0.0010094
0.00100911
0.00100882
0.00100853
0.00100825
0.00100798
0.00100771
0.00100744
0.00100718
0.00100693
0.00100667
0.00100642
0.00100618
0.00100594
0.0010167
0.00101621
0.00101574
0.00101528
0.00101483
0.0010144
0.00101397
0.00101356
0.00101316
0.00101278
0.0010124
0.00101203
0.00101167
0.00101132
0.00101098
0.00101065
0.00101033
0.00101001
0.00100971
0.00100941
0.00100912
0.00100883
0.00100856
0.00100829
0.00100802
0.00100776
0.00100751
0.00100726
0.00100702
0.00100679
0.00100656
0.00100633
0.00100611
0.0010167
0.00101621
0.00101574
0.00101528
0.00101483
0.0010144
0.00101397
0.00101356
0.00101316
0.00101277
0.0010124
0.00101203
0.00101167
0.00101132
0.00101098
0.00101065
0.00101033
0.00101001
0.00100971
0.00100941
0.00100912
0.00100883
0.00100856
0.00100829
0.00100803
0.00100777
0.00100752
0.00100728
0.00100705
0.00100682
0.00100659
0.00100637
0.00100616
0.0010167
0.00101621
0.00101574
0.00101528
0.00101483
0.00101439
0.00101397
0.00101356
0.00101316
0.00101277
0.00101239
0.00101202
0.00101167
0.00101132
0.00101098
0.00101065
0.00101032
0.00101001
0.0010097
0.0010094
0.00100911
0.00100883
0.00100856
0.00100829
0.00100803
0.00100777
0.00100752
0.00100728
0.00100705
0.00100682
0.0010066
0.00100638
0.00100617
0.0010167
0.00101621
0.00101574
0.00101528
0.00101483
0.00101439
0.00101397
0.00101356
0.00101316
0.00101277
0.00101239
0.00101202
0.00101166
0.00101131
0.00101097
0.00101064
0.00101032
0.00101001
0.0010097
0.0010094
0.00100911
0.00100883
0.00100855
0.00100828
0.00100802
0.00100777
0.00100752
0.00100728
0.00100704
0.00100682
0.00100659
0.00100638
0.00100617
0.0010167
0.00101621
0.00101574
0.00101528
0.00101483
0.00101439
0.00101397
0.00101356
0.00101316
0.00101277
0.00101239
0.00101202
0.00101166
0.00101131
0.00101097
0.00101064
0.00101032
0.00101
0.0010097
0.0010094
0.00100911
0.00100883
0.00100855
0.00100828
0.00100802
0.00100776
0.00100752
0.00100728
0.00100704
0.00100681
0.00100659
0.00100637
0.00100616
0.0010167
0.00101621
0.00101574
0.00101528
0.00101483
0.00101439
0.00101397
0.00101356
0.00101316
0.00101277
0.00101239
0.00101202
0.00101166
0.00101131
0.00101097
0.00101064
0.00101032
0.00101
0.0010097
0.0010094
0.00100911
0.00100882
0.00100855
0.00100828
0.00100802
0.00100776
0.00100751
0.00100727
0.00100704
0.00100681
0.00100658
0.00100637
0.00100615
0.0010167
0.00101621
0.00101574
0.00101528
0.00101483
0.00101439
0.00101397
0.00101356
0.00101316
0.00101277
0.00101239
0.00101202
0.00101166
0.00101131
0.00101097
0.00101064
0.00101031
0.00101
0.00100969
0.00100939
0.0010091
0.00100882
0.00100854
0.00100827
0.00100801
0.00100776
0.00100751
0.00100727
0.00100703
0.0010068
0.00100658
0.00100636
0.00100615
0.0010167
0.00101621
0.00101574
0.00101528
0.00101483
0.00101439
0.00101397
0.00101356
0.00101316
0.00101277
0.00101239
0.00101202
0.00101166
0.00101131
0.00101097
0.00101064
0.00101031
0.00101
0.00100969
0.00100939
0.0010091
0.00100882
0.00100854
0.00100827
0.00100801
0.00100775
0.00100751
0.00100726
0.00100703
0.0010068
0.00100657
0.00100635
0.00100614
0.0010167
0.00101621
0.00101574
0.00101528
0.00101483
0.00101439
0.00101397
0.00101356
0.00101316
0.00101277
0.00101239
0.00101202
0.00101166
0.00101131
0.00101097
0.00101063
0.00101031
0.00101
0.00100969
0.00100939
0.0010091
0.00100882
0.00100854
0.00100827
0.00100801
0.00100775
0.0010075
0.00100726
0.00100702
0.00100679
0.00100657
0.00100635
0.00100613
0.0010167
0.00101621
0.00101574
0.00101528
0.00101483
0.00101439
0.00101397
0.00101356
0.00101316
0.00101277
0.00101239
0.00101202
0.00101166
0.00101131
0.00101097
0.00101063
0.00101031
0.00101
0.00100969
0.00100939
0.0010091
0.00100881
0.00100854
0.00100827
0.001008
0.00100775
0.0010075
0.00100725
0.00100702
0.00100679
0.00100656
0.00100634
0.00100613
0.0010167
0.00101621
0.00101574
0.00101528
0.00101483
0.00101439
0.00101397
0.00101356
0.00101316
0.00101277
0.00101239
0.00101202
0.00101166
0.00101131
0.00101097
0.00101063
0.00101031
0.00100999
0.00100969
0.00100939
0.0010091
0.00100881
0.00100853
0.00100826
0.001008
0.00100775
0.0010075
0.00100725
0.00100701
0.00100678
0.00100656
0.00100634
0.00100612
0.0010167
0.00101621
0.00101574
0.00101528
0.00101483
0.00101439
0.00101397
0.00101356
0.00101316
0.00101277
0.00101239
0.00101202
0.00101166
0.00101131
0.00101096
0.00101063
0.00101031
0.00100999
0.00100969
0.00100939
0.00100909
0.00100881
0.00100853
0.00100826
0.001008
0.00100774
0.00100749
0.00100725
0.00100701
0.00100678
0.00100655
0.00100633
0.00100612
0.0010167
0.00101621
0.00101574
0.00101528
0.00101483
0.00101439
0.00101397
0.00101356
0.00101316
0.00101277
0.00101239
0.00101202
0.00101166
0.00101131
0.00101096
0.00101063
0.00101031
0.00100999
0.00100968
0.00100939
0.00100909
0.00100881
0.00100853
0.00100826
0.001008
0.00100774
0.00100749
0.00100725
0.00100701
0.00100678
0.00100655
0.00100633
0.00100611
0.0010167
0.00101621
0.00101574
0.00101528
0.00101483
0.00101439
0.00101397
0.00101356
0.00101316
0.00101277
0.00101239
0.00101202
0.00101166
0.00101131
0.00101096
0.00101063
0.00101031
0.00100999
0.00100968
0.00100939
0.00100909
0.00100881
0.00100853
0.00100826
0.001008
0.00100774
0.00100749
0.00100724
0.00100701
0.00100677
0.00100655
0.00100633
0.00100611
0.0010167
0.00101621
0.00101574
0.00101528
0.00101483
0.00101439
0.00101397
0.00101356
0.00101316
0.00101277
0.00101239
0.00101202
0.00101166
0.00101131
0.00101097
0.00101063
0.00101031
0.00100999
0.00100969
0.00100939
0.00100909
0.00100881
0.00100853
0.00100826
0.001008
0.00100774
0.00100749
0.00100724
0.001007
0.00100677
0.00100654
0.00100632
0.00100611
0.0010167
0.00101621
0.00101574
0.00101528
0.00101483
0.00101439
0.00101397
0.00101356
0.00101316
0.00101277
0.00101239
0.00101202
0.00101166
0.00101131
0.00101097
0.00101063
0.00101031
0.00101
0.00100969
0.00100939
0.0010091
0.00100881
0.00100853
0.00100826
0.001008
0.00100774
0.00100749
0.00100724
0.001007
0.00100677
0.00100654
0.00100632
0.0010061
0.0010167
0.00101621
0.00101574
0.00101528
0.00101483
0.0010144
0.00101397
0.00101356
0.00101316
0.00101277
0.00101239
0.00101203
0.00101167
0.00101131
0.00101097
0.00101064
0.00101032
0.00101
0.00100969
0.00100939
0.0010091
0.00100881
0.00100853
0.00100825
0.00100799
0.00100772
0.00100747
0.00100722
0.00100697
0.00100673
0.0010065
0.00100627
0.00100604
0.0010167
0.00101621
0.00101574
0.00101528
0.00101483
0.0010144
0.00101398
0.00101357
0.00101317
0.00101278
0.0010124
0.00101203
0.00101167
0.00101132
0.00101097
0.00101064
0.00101031
0.00100998
0.00100967
0.00100936
0.00100905
0.00100875
0.00100846
0.00100817
0.00100788
0.0010076
0.00100732
0.00100705
0.00100678
0.00100651
0.00100624
0.00100598
0.00100572
0.0010167
0.00101621
0.00101574
0.00101529
0.00101484
0.00101441
0.00101399
0.00101358
0.00101318
0.00101279
0.0010124
0.00101202
0.00101164
0.00101127
0.0010109
0.00101053
0.00101016
0.00100979
0.00100942
0.00100906
0.00100869
0.00100832
0.00100794
0.00100757
0.00100719
0.00100681
0.00100643
0.00100605
0.00100566
0.00100527
0.00100488
0.00100448
0.00100409
0.0010167
0.00101622
0.00101575
0.0010153
0.00101485
0.00101441
0.00101397
0.00101352
0.00101307
0.00101262
0.00101214
0.00101166
0.00101115
0.00101062
0.00101008
0.00100951
0.00100891
0.00100829
0.00100765
0.00100699
0.0010063
0.00100559
0.00100486
0.0010041
0.00100334
0.00100255
0.00100175
0.00100093
0.0010001
0.000999259
0.000998408
0.000997548
0.000996682
0.00101671
0.00101622
0.00101574
0.00101524
0.00101469
0.00101407
0.00101337
0.00101257
0.00101167
0.00101066
0.00100954
0.0010083
0.00100697
0.00100552
0.00100398
0.00100235
0.00100063
0.000998837
0.000996973
0.000995047
0.000993067
0.00099104
0.000988973
0.000986874
0.000984747
0.000982599
0.000980436
0.000978262
0.000976083
0.000973903
0.000971725
0.000969552
0.00096739
0.00101671
0.001016
0.00101488
0.00101325
0.00101112
0.00100847
0.00100531
0.00100168
0.000997609
0.000993154
0.000988366
0.000983299
0.000978004
0.000972529
0.000966917
0.000961207
0.000955435
0.00094963
0.000943818
0.000938023
0.000932262
0.000926551
0.000920906
0.000915335
0.00090985
0.000904456
0.000899161
0.000893968
0.000888881
0.000883902
0.000879034
0.000874276
0.00086963
0.0010153
0.00100706
0.000995499
0.00098139
0.000965355
0.000948006
0.000929899
0.000911485
0.000893097
0.000874974
0.000857281
0.000840127
0.000823579
0.000807672
0.000792423
0.00077783
0.000763881
0.000750559
0.000737842
0.000725704
0.000714119
0.000703061
0.000692502
0.000682418
0.000672783
0.000663573
0.000654765
0.000646338
0.000638272
0.000630546
0.000623142
0.000616045
0.000609234
0.000935928
0.00081556
0.000728202
0.000659318
0.000602485
0.000555283
0.000515813
0.000482491
0.000454064
0.000429571
0.000408269
0.000389587
0.000373079
0.000358396
0.000345259
0.000333445
0.000322771
0.000313087
0.000304268
0.000296211
0.000288827
0.000282041
0.00027579
0.000270016
0.000264673
0.000259719
0.000255116
0.000250832
0.000246839
0.000243111
0.000239626
0.000236363
0.000233303
0.000125477
0.000128847
0.000132096
0.000135204
0.000138173
0.000141007
0.000143711
0.000146289
0.000148745
0.000151085
0.000153311
0.000155429
0.000157443
0.000159356
0.000161174
0.000162899
0.000164537
0.000166091
0.000167565
0.000168962
0.000170287
0.000171542
0.000172732
0.000173859
0.000174926
0.000175936
0.000176893
0.000177799
0.000178656
0.000179468
0.000180236
0.000180962
0.00018165
0.000109236
0.000154523
0.000198437
0.000239064
0.000276287
0.000309745
0.00033939
0.000365787
0.000389906
0.000412771
0.000435172
0.000457557
0.000480079
0.000502717
0.000525392
0.000548046
0.000570677
0.000593331
0.000616092
0.000639061
0.000662345
0.000686047
0.00071026
0.000735053
0.000760458
0.000786458
0.000812987
0.000839931
0.000867152
0.000894496
0.000921808
0.000948935
0.000975718
0.00100198
0.00102753
0.00105214
0.00107556
0.00109755
0.00111785
0.00113622
0.00115243
0.00116627
0.00117755
0.0011861
0.00119181
0.00119458
0.00119438
0.00119122
0.00118517
0.00117637
0.00116503
0.00115138
0.00113578
0.00111859
0.00110027
0.0010813
0.00106221
0.00104354
0.00102584
0.00100963
0.00099539
0.000983516
0.000974322
0.000968013
0.000964687
0.000964342
0.000966892
0.000972197
0.000980084
0.00099038
0.00100294
0.00101764
0.00103445
0.00105335
0.00107443
0.00109779
0.00112358
0.00115195
0.00118306
0.00121699
0.00125376
0.00129326
0.00133525
0.00137933
0.00142491
0.00147123
0.00151736
0.00156223
0.00160467
0.0016434
0.00167715
0.00170464
0.00172466
0.00173612
0.00173811
0.00172989
0.00171124
0.00168122
0.00164565
0.00157032
0.000245351
0.000213228
0.000185166
0.000171934
0.000172061
0.000182149
0.000199351
0.000221434
0.000246527
0.000273128
0.000300091
0.000326648
0.000352392
0.000377213
0.000401197
0.00042453
0.000447409
0.000469988
0.000492366
0.000514593
0.000536704
0.00055874
0.000580765
0.000602857
0.000625091
0.000647509
0.000670107
0.000692829
0.000715577
0.000738235
0.00076068
0.000782795
0.000804462
0.000825555
0.000845928
0.000865407
0.000883795
0.000900883
0.000916456
0.000930312
0.000942261
0.000952136
0.000959794
0.000965121
0.000968041
0.000968526
0.000966596
0.000962333
0.000955882
0.000947452
0.00093732
0.000925828
0.000913374
0.000900411
0.000887429
0.000874937
0.000863448
0.00085345
0.000845377
0.000839588
0.000836337
0.000835759
0.000837865
0.000842549
0.000849607
0.00085877
0.000869733
0.000882194
0.000895883
0.000910584
0.00092615
0.000942517
0.000959701
0.000977799
0.000996986
0.0010175
0.00103964
0.00106371
0.00109004
0.00111892
0.00115057
0.00118508
0.0012224
0.00126228
0.00130428
0.00134773
0.00139175
0.00143529
0.00147715
0.00151602
0.00155057
0.00157946
0.00160142
0.00161533
0.00162023
0.0016154
0.00160061
0.00157504
0.00154433
0.00147747
0.000348419
0.000344664
0.000330733
0.000303342
0.000269217
0.000237667
0.000213822
0.000198752
0.000191852
0.000191749
0.000197262
0.000207438
0.000221443
0.00023849
0.000257816
0.000278709
0.000300523
0.000322717
0.00034488
0.000366743
0.000388175
0.000409162
0.000429768
0.000450097
0.000470251
0.000490295
0.000510242
0.00053005
0.000549634
0.000568888
0.000587708
0.000606003
0.0006237
0.000640725
0.000656993
0.000672396
0.000686802
0.000700063
0.000712028
0.000722556
0.000731526
0.000738841
0.000744435
0.000748277
0.000750378
0.000750799
0.000749658
0.000747134
0.00074347
0.000738971
0.000733998
0.000728961
0.000724299
0.000720466
0.000717903
0.000717014
0.000718134
0.000721504
0.00072725
0.000735372
0.000745744
0.000758128
0.000772198
0.000787577
0.000803871
0.000820702
0.000837739
0.000854711
0.000871422
0.000887751
0.000903658
0.000919175
0.000934404
0.000949518
0.000964753
0.000980409
0.000996846
0.00101447
0.00103372
0.00105504
0.00107883
0.00110543
0.00113503
0.00116762
0.00120297
0.00124061
0.00127978
0.0013195
0.00135861
0.00139576
0.00142959
0.00145867
0.00148168
0.00149741
0.00150489
0.00150337
0.00149261
0.0014719
0.00144652
0.00138953
0.000475246
0.000469796
0.000464308
0.000456025
0.00044191
0.000420446
0.000392651
0.000361447
0.000330284
0.000301658
0.000277533
0.00025849
0.000244399
0.000234967
0.000229858
0.000228719
0.000231173
0.00023681
0.000245186
0.000255835
0.000268286
0.000282102
0.000296901
0.000312375
0.000328287
0.00034446
0.000360748
0.000377019
0.000393146
0.000409007
0.000424496
0.000439531
0.000454053
0.000468016
0.000481378
0.000494082
0.000506061
0.000517236
0.000527535
0.000536902
0.000545308
0.000552754
0.000559278
0.000564957
0.00056991
0.000574301
0.000578345
0.000582304
0.000586478
0.000591198
0.000596805
0.000603629
0.000611966
0.000622049
0.000634029
0.000647951
0.000663752
0.000681259
0.000700206
0.000720257
0.000741035
0.000762149
0.000783228
0.000803937
0.000823996
0.00084319
0.000861368
0.000878439
0.000894372
0.000909184
0.000922935
0.000935721
0.000947676
0.000958965
0.000969792
0.000980405
0.000991099
0.00100223
0.0010142
0.00102747
0.00104253
0.00105986
0.00107988
0.00110289
0.00112896
0.00115794
0.00118935
0.00122243
0.00125612
0.00128917
0.00132019
0.00134774
0.00137042
0.00138697
0.00139633
0.00139773
0.00139092
0.00137527
0.00135553
0.00130953
0.000612308
0.000604663
0.000597423
0.000590331
0.000582605
0.000573101
0.000560672
0.000544541
0.000524576
0.000501209
0.000475474
0.000449102
0.000423217
0.000398633
0.000375942
0.000355567
0.000337798
0.000322813
0.000310692
0.000301425
0.000294923
0.000291027
0.000289529
0.000290194
0.000292776
0.000297032
0.000302728
0.000309641
0.000317557
0.000326271
0.000335599
0.000345377
0.000355473
0.000365785
0.000376234
0.000386757
0.000397305
0.000407842
0.000418353
0.000428847
0.000439366
0.000449981
0.000460793
0.000471926
0.00048353
0.000495771
0.000508825
0.000522869
0.000538062
0.00055453
0.000572351
0.00059154
0.00061204
0.000633721
0.000656384
0.000679775
0.000703603
0.000727554
0.000751319
0.000774607
0.00079716
0.000818764
0.000839252
0.000858509
0.000876466
0.000893097
0.000908412
0.000922451
0.000935277
0.000946971
0.000957624
0.000967336
0.000976216
0.000984379
0.000991949
0.00099907
0.00100591
0.00101266
0.00101958
0.00102699
0.00103525
0.00104482
0.00105617
0.00106976
0.00108597
0.001105
0.00112678
0.00115095
0.00117678
0.00120327
0.00122917
0.00125312
0.00127371
0.00128964
0.00129982
0.00130342
0.00130015
0.00128946
0.00127531
0.00124083
0.000735169
0.000727665
0.000720277
0.000713045
0.000705898
0.000698622
0.000690846
0.000682097
0.000671894
0.000659825
0.00064568
0.000629633
0.000611981
0.000593112
0.000573455
0.000553446
0.00053351
0.000514048
0.000495423
0.00047795
0.000461888
0.000447425
0.000434685
0.000423725
0.000414553
0.000407146
0.00040146
0.000397447
0.000395059
0.000394242
0.00039494
0.000397084
0.000400599
0.000405403
0.000411414
0.000418558
0.000426774
0.000436017
0.000446264
0.00045751
0.000469768
0.000483061
0.000497413
0.00051285
0.000529387
0.000547024
0.000565743
0.000585498
0.000606209
0.000627765
0.000650016
0.000672782
0.000695856
0.000719015
0.000742032
0.000764682
0.000786759
0.000808079
0.000828487
0.000847861
0.000866115
0.000883196
0.000899079
0.000913769
0.000927293
0.000939696
0.00095104
0.000961394
0.000970836
0.000979447
0.000987308
0.000994501
0.0010011
0.00100719
0.00101284
0.00101813
0.00102311
0.00102789
0.00103256
0.00103724
0.00104211
0.00104742
0.00105347
0.00106063
0.00106933
0.00107993
0.00109272
0.00110774
0.00112476
0.00114323
0.00116226
0.00118075
0.00119747
0.0012112
0.00122085
0.00122558
0.00122504
0.00121874
0.0012097
0.00118625
0.000832134
0.000825695
0.000819264
0.00081287
0.000806528
0.000800226
0.000793907
0.000787458
0.000780713
0.000773459
0.000765504
0.000756696
0.000746944
0.000736227
0.000724593
0.000712147
0.000699041
0.000685468
0.000671644
0.000657797
0.000644158
0.00063094
0.000618335
0.0006065
0.000595565
0.000585632
0.00057679
0.000569119
0.000562699
0.000557612
0.000553928
0.000551708
0.000550985
0.000551772
0.000554057
0.000557812
0.000563001
0.000569589
0.000577541
0.000586822
0.000597395
0.000609213
0.000622219
0.000636341
0.000651489
0.000667559
0.000684428
0.000701961
0.000720007
0.000738404
0.000756983
0.000775574
0.000794007
0.000812124
0.000829779
0.000846844
0.000863212
0.000878797
0.000893538
0.000907394
0.000920347
0.000932395
0.000943553
0.000953851
0.000963326
0.000972026
0.000980006
0.000987323
0.000994037
0.00100021
0.00100591
0.00101119
0.00101612
0.00102075
0.00102515
0.00102935
0.00103342
0.00103739
0.0010413
0.00104519
0.00104911
0.0010531
0.00105728
0.00106178
0.00106682
0.00107268
0.00107963
0.00108793
0.00109768
0.00110878
0.00112085
0.00113323
0.00114506
0.00115538
0.00116326
0.00116793
0.00116899
0.00116602
0.00116104
0.00114683
0.000901791
0.000896739
0.000891649
0.000886535
0.000881411
0.000876289
0.00087117
0.000866046
0.000860886
0.000855637
0.000850237
0.00084461
0.00083868
0.000832382
0.00082567
0.000818525
0.000810954
0.000802994
0.000794709
0.000786188
0.000777536
0.000768871
0.000760313
0.000751979
0.00074398
0.000736418
0.000729393
0.000723001
0.00071734
0.000712508
0.000708602
0.00070571
0.000703903
0.000703234
0.000703733
0.00070541
0.000708262
0.000712273
0.000717419
0.000723667
0.000730977
0.000739294
0.000748551
0.000758666
0.000769545
0.000781082
0.000793163
0.000805666
0.000818466
0.000831437
0.000844453
0.000857396
0.000870154
0.000882627
0.000894726
0.000906379
0.000917525
0.00092812
0.000938135
0.000947553
0.000956368
0.000964585
0.000972219
0.000979289
0.000985823
0.000991853
0.000997412
0.00100254
0.00100728
0.00101166
0.00101575
0.00101957
0.00102319
0.00102664
0.00102997
0.00103325
0.00103651
0.00103981
0.00104317
0.00104665
0.00105025
0.00105398
0.00105785
0.00106187
0.00106605
0.00107045
0.00107517
0.00108035
0.00108611
0.00109255
0.0010996
0.00110703
0.00111443
0.00112121
0.00112677
0.00113048
0.00113202
0.00113103
0.00112866
0.00112082
0.000947847
0.000944189
0.00094047
0.000936696
0.000932877
0.000929022
0.000925138
0.000921233
0.000917308
0.000913363
0.000909388
0.000905369
0.000901284
0.000897108
0.000892815
0.000888384
0.000883801
0.00087906
0.000874171
0.000869152
0.000864037
0.000858868
0.000853698
0.000848584
0.000843589
0.000838775
0.000834209
0.000829961
0.000826101
0.000822703
0.000819841
0.000817586
0.000815999
0.000815131
0.000815021
0.000815691
0.000817154
0.00081941
0.00082245
0.000826256
0.000830803
0.000836053
0.000841959
0.000848464
0.000855502
0.000862999
0.000870874
0.000879044
0.000887424
0.000895929
0.000904479
0.000912996
0.000921407
0.000929651
0.00093767
0.000945419
0.000952861
0.000959967
0.000966716
0.000973097
0.000979103
0.000984735
0.000989998
0.000994901
0.000999458
0.00100368
0.0010076
0.00101122
0.00101458
0.0010177
0.0010206
0.00102332
0.0010259
0.00102837
0.00103076
0.00103314
0.00103554
0.00103802
0.00104063
0.00104343
0.00104644
0.00104972
0.00105326
0.00105707
0.00106111
0.00106534
0.00106971
0.0010742
0.00107879
0.00108348
0.00108827
0.00109308
0.00109778
0.0011021
0.00110574
0.00110833
0.00110966
0.00110945
0.0011083
0.0011038
0.000975915
0.000973454
0.000970927
0.000968335
0.000965684
0.00096298
0.000960228
0.000957435
0.000954607
0.00095175
0.00094887
0.00094597
0.00094305
0.00094011
0.000937146
0.000934155
0.000931134
0.000928079
0.000924992
0.000921877
0.000918743
0.000915602
0.000912475
0.000909383
0.000906355
0.000903422
0.00090062
0.000897989
0.000895569
0.000893407
0.000891547
0.000890035
0.000888913
0.000888217
0.000887977
0.000888215
0.000888947
0.000890181
0.000891916
0.000894148
0.000896864
0.000900045
0.000903664
0.000907687
0.000912075
0.000916783
0.000921762
0.000926959
0.000932323
0.000937799
0.000943337
0.000948888
0.000954405
0.000959849
0.000965181
0.000970371
0.000975393
0.000980225
0.000984851
0.000989259
0.000993441
0.000997391
0.00100111
0.00100459
0.00100785
0.00101088
0.0010137
0.00101631
0.00101872
0.00102096
0.00102302
0.00102494
0.00102674
0.00102844
0.00103006
0.00103166
0.00103326
0.00103491
0.00103667
0.0010386
0.00104075
0.00104317
0.00104593
0.00104904
0.00105251
0.00105633
0.00106043
0.00106473
0.00106912
0.00107351
0.00107779
0.00108186
0.00108561
0.00108891
0.00109161
0.00109353
0.00109455
0.00109449
0.00109371
0.0010904
0.000991635
0.000990079
0.000988464
0.00098679
0.00098506
0.000983275
0.000981441
0.000979559
0.000977635
0.000975675
0.000973682
0.000971664
0.000969624
0.000967569
0.000965502
0.000963429
0.000961353
0.000959279
0.000957209
0.000955149
0.000953103
0.000951079
0.000949084
0.000947128
0.000945225
0.000943389
0.000941639
0.000939996
0.000938481
0.000937121
0.000935941
0.000934966
0.00093422
0.000933728
0.000933507
0.000933574
0.000933943
0.000934622
0.000935616
0.000936926
0.000938546
0.00094047
0.000942684
0.000945171
0.000947908
0.000950872
0.000954032
0.00095736
0.000960823
0.000964389
0.000968027
0.000971705
0.000975394
0.000979066
0.000982697
0.000986265
0.00098975
0.000993135
0.000996406
0.000999551
0.00100256
0.00100543
0.00100814
0.0010107
0.00101311
0.00101536
0.00101745
0.00101938
0.00102116
0.00102279
0.00102428
0.00102564
0.00102688
0.00102802
0.00102907
0.00103007
0.00103103
0.00103199
0.001033
0.00103411
0.00103537
0.00103684
0.00103858
0.00104066
0.00104312
0.00104598
0.00104923
0.00105284
0.00105671
0.00106072
0.00106474
0.0010686
0.00107214
0.00107522
0.00107771
0.00107946
0.00108039
0.00108039
0.00107972
0.00107678
0.000999693
0.000998741
0.000997745
0.000996705
0.00099562
0.000994491
0.000993319
0.000992107
0.000990856
0.000989569
0.000988251
0.000986903
0.000985532
0.00098414
0.000982734
0.000981318
0.000979898
0.000978479
0.000977066
0.000975664
0.000974279
0.000972916
0.000971581
0.00097028
0.000969022
0.000967815
0.000966669
0.000965597
0.000964611
0.000963726
0.000962956
0.000962315
0.000961817
0.000961475
0.000961301
0.000961306
0.000961498
0.000961886
0.000962474
0.000963266
0.000964262
0.000965458
0.000966851
0.000968431
0.000970188
0.000972107
0.000974174
0.000976371
0.000978679
0.00098108
0.000983552
0.000986078
0.000988636
0.00099121
0.000993781
0.000996333
0.000998852
0.00100132
0.00100373
0.00100607
0.00100833
0.0010105
0.00101257
0.00101453
0.00101638
0.00101811
0.00101972
0.0010212
0.00102256
0.00102379
0.0010249
0.00102588
0.00102675
0.00102751
0.00102816
0.00102873
0.00102924
0.0010297
0.00103015
0.00103062
0.00103115
0.0010318
0.00103263
0.00103369
0.00103504
0.00103673
0.00103881
0.00104126
0.00104408
0.00104718
0.00105044
0.00105374
0.00105689
0.00105971
0.00106206
0.00106377
0.00106475
0.00106487
0.00106439
0.00106187
0.00100346
0.00100286
0.00100224
0.00100159
0.00100091
0.00100019
0.000999452
0.000998681
0.00099788
0.000997052
0.000996197
0.000995319
0.000994418
0.000993499
0.000992564
0.000991617
0.000990662
0.000989704
0.000988745
0.000987792
0.000986848
0.000985918
0.000985007
0.000984119
0.000983261
0.000982439
0.000981659
0.000980932
0.000980264
0.000979664
0.000979143
0.000978707
0.000978366
0.000978127
0.000977997
0.000977984
0.000978094
0.000978332
0.000978704
0.000979213
0.000979861
0.000980648
0.000981573
0.000982631
0.000983819
0.000985128
0.00098655
0.000988077
0.000989696
0.000991396
0.000993165
0.000994989
0.000996857
0.000998754
0.00100067
0.00100259
0.0010045
0.0010064