/*--------------------------------*- C++ -*----------------------------------*\
  =========                 |
  \\      /  F ield         | OpenFOAM: The Open Source CFD Toolbox
   \\    /   O peration     | Website:  https://openfoam.org
    \\  /    A nd           | Version:  10
     \\/     M anipulation  |
\*---------------------------------------------------------------------------*/
FoamFile
{
    format      ascii;
    class       volScalarField;
    location    "0.19";
    object      p;
}
// * * * * * * * * * * * * * * * * * * * * * * * * * * * * * * * * * * * * * //

dimensions      [0 2 -2 0 0 0 0];

internalField   nonuniform List<scalar> 
6820
(
-8.08154
-9.44556
-9.85893
-9.95421
-10.0348
-10.0859
-10.1165
-10.1405
-10.1611
-10.1791
-10.1955
-10.2111
-10.2259
-10.2401
-10.2538
-10.2671
-10.28
-10.2924
-10.3045
-10.3162
-10.3273
-10.3379
-10.3477
-10.3567
-10.3644
-10.3704
-10.3738
-10.3733
-10.3664
-10.3468
-10.3089
-10.2241
-10.0232
-10.8817
-10.4773
-10.1832
-10.0877
-10.0889
-10.1054
-10.1231
-10.1424
-10.1614
-10.1791
-10.1956
-10.211
-10.2256
-10.2395
-10.2529
-10.2657
-10.2781
-10.2902
-10.3018
-10.3131
-10.3239
-10.3342
-10.3438
-10.3527
-10.3606
-10.3672
-10.3718
-10.3744
-10.3724
-10.3721
-10.3554
-10.3899
-10.3825
-9.73871
-9.61046
-9.83532
-9.97279
-10.0341
-10.0783
-10.11
-10.135
-10.1562
-10.1747
-10.1915
-10.2072
-10.222
-10.2362
-10.2499
-10.2631
-10.2759
-10.2884
-10.3004
-10.3121
-10.3233
-10.334
-10.3441
-10.3535
-10.3619
-10.3692
-10.3749
-10.3788
-10.3798
-10.3801
-10.3743
-10.3821
-10.3744
-10.1053
-10.122
-10.0974
-10.0745
-10.0825
-10.1026
-10.1224
-10.1412
-10.1595
-10.1766
-10.1927
-10.2081
-10.2227
-10.2367
-10.2503
-10.2633
-10.276
-10.2884
-10.3003
-10.3119
-10.3231
-10.3338
-10.344
-10.3536
-10.3625
-10.3705
-10.3775
-10.3836
-10.3884
-10.3948
-10.4004
-10.4217
-10.4493
-9.9954
-9.9414
-9.98517
-10.0297
-10.0646
-10.0944
-10.1187
-10.1398
-10.1588
-10.1763
-10.1925
-10.2078
-10.2223
-10.2363
-10.2498
-10.2629
-10.2756
-10.288
-10.3
-10.3117
-10.3231
-10.3341
-10.3446
-10.3547
-10.3642
-10.3732
-10.3815
-10.3897
-10.3977
-10.4076
-10.4194
-10.4415
-10.4714
-10.0361
-10.0292
-10.0475
-10.0644
-10.0825
-10.1036
-10.1239
-10.1429
-10.1607
-10.1775
-10.1933
-10.2083
-10.2227
-10.2366
-10.25
-10.2631
-10.2758
-10.2881
-10.3002
-10.312
-10.3234
-10.3346
-10.3454
-10.3559
-10.366
-10.3759
-10.3856
-10.3956
-10.4062
-10.4191
-10.4351
-10.4588
-10.4907
-10.0354
-10.0246
-10.0393
-10.0607
-10.0824
-10.1046
-10.1251
-10.1439
-10.1615
-10.178
-10.1937
-10.2086
-10.2229
-10.2367
-10.25
-10.263
-10.2757
-10.2881
-10.3003
-10.3121
-10.3238
-10.3351
-10.3463
-10.3572
-10.368
-10.3788
-10.3897
-10.4012
-10.4138
-10.4288
-10.4471
-10.4711
-10.5016
-10.0451
-10.042
-10.055
-10.0728
-10.0908
-10.1098
-10.1285
-10.1461
-10.163
-10.179
-10.1943
-10.209
-10.2231
-10.2368
-10.2501
-10.2631
-10.2757
-10.2882
-10.3004
-10.3123
-10.3241
-10.3357
-10.3471
-10.3585
-10.3699
-10.3815
-10.3934
-10.4062
-10.4203
-10.4366
-10.456
-10.4797
-10.5084
-10.0537
-10.0525
-10.0628
-10.0785
-10.0953
-10.1133
-10.131
-10.148
-10.1643
-10.1799
-10.1949
-10.2094
-10.2233
-10.2369
-10.2501
-10.263
-10.2757
-10.2881
-10.3004
-10.3124
-10.3244
-10.3362
-10.3479
-10.3597
-10.3716
-10.3839
-10.3966
-10.4103
-10.4254
-10.4425
-10.4623
-10.4854
-10.512
-10.0623
-10.0627
-10.072
-10.086
-10.1013
-10.1176
-10.1342
-10.1503
-10.1659
-10.181
-10.1957
-10.2098
-10.2236
-10.237
-10.2501
-10.263
-10.2756
-10.2881
-10.3003
-10.3125
-10.3245
-10.3366
-10.3486
-10.3607
-10.3731
-10.3859
-10.3993
-10.4136
-10.4293
-10.4468
-10.4664
-10.4886
-10.5133
-10.0706
-10.0719
-10.0801
-10.0925
-10.1065
-10.1216
-10.1371
-10.1525
-10.1675
-10.1822
-10.1964
-10.2103
-10.2239
-10.2372
-10.2502
-10.2629
-10.2755
-10.2879
-10.3002
-10.3125
-10.3246
-10.3368
-10.3491
-10.3615
-10.3742
-10.3874
-10.4012
-10.416
-10.432
-10.4495
-10.4687
-10.4899
-10.513
-10.0786
-10.0804
-10.0878
-10.0989
-10.1117
-10.1257
-10.1402
-10.1548
-10.1692
-10.1834
-10.1973
-10.2109
-10.2242
-10.2373
-10.2501
-10.2628
-10.2754
-10.2878
-10.3001
-10.3123
-10.3246
-10.3369
-10.3493
-10.362
-10.3749
-10.3884
-10.4025
-10.4175
-10.4335
-10.4508
-10.4695
-10.4897
-10.5112
-10.0862
-10.0881
-10.0949
-10.105
-10.1167
-10.1297
-10.1433
-10.1571
-10.1709
-10.1846
-10.1981
-10.2114
-10.2245
-10.2374
-10.2501
-10.2627
-10.2751
-10.2875
-10.2998
-10.3121
-10.3244
-10.3368
-10.3493
-10.3621
-10.3753
-10.3889
-10.4031
-10.4181
-10.434
-10.4509
-10.469
-10.4881
-10.5082
-10.0934
-10.0953
-10.1015
-10.1106
-10.1214
-10.1335
-10.1463
-10.1594
-10.1726
-10.1858
-10.1989
-10.2119
-10.2248
-10.2374
-10.25
-10.2625
-10.2748
-10.2871
-10.2994
-10.3117
-10.324
-10.3364
-10.3491
-10.3619
-10.3751
-10.3888
-10.403
-10.4178
-10.4335
-10.45
-10.4673
-10.4854
-10.5043
-10.1
-10.1018
-10.1076
-10.1159
-10.1259
-10.1371
-10.1491
-10.1616
-10.1743
-10.187
-10.1997
-10.2124
-10.225
-10.2375
-10.2499
-10.2622
-10.2744
-10.2867
-10.2989
-10.3111
-10.3234
-10.3358
-10.3485
-10.3613
-10.3745
-10.3881
-10.4022
-10.4168
-10.4321
-10.448
-10.4646
-10.4818
-10.4995
-10.1061
-10.1079
-10.1132
-10.1208
-10.1301
-10.1406
-10.1519
-10.1637
-10.1759
-10.1881
-10.2005
-10.2128
-10.2251
-10.2374
-10.2496
-10.2618
-10.2739
-10.286
-10.2982
-10.3103
-10.3226
-10.335
-10.3475
-10.3603
-10.3734
-10.3868
-10.4007
-10.415
-10.4299
-10.4452
-10.461
-10.4773
-10.4939
-10.1117
-10.1133
-10.1183
-10.1254
-10.134
-10.1438
-10.1544
-10.1657
-10.1773
-10.1892
-10.2012
-10.2132
-10.2252
-10.2373
-10.2493
-10.2613
-10.2733
-10.2853
-10.2973
-10.3093
-10.3215
-10.3338
-10.3462
-10.3589
-10.3718
-10.385
-10.3986
-10.4125
-10.4269
-10.4416
-10.4567
-10.4721
-10.4877
-10.1167
-10.1183
-10.1229
-10.1295
-10.1375
-10.1467
-10.1568
-10.1675
-10.1787
-10.1901
-10.2017
-10.2134
-10.2252
-10.237
-10.2488
-10.2606
-10.2725
-10.2843
-10.2962
-10.3081
-10.3201
-10.3323
-10.3446
-10.357
-10.3697
-10.3827
-10.3959
-10.4094
-10.4232
-10.4373
-10.4516
-10.4661
-10.4808
-10.1213
-10.1227
-10.127
-10.1331
-10.1406
-10.1493
-10.1589
-10.1691
-10.1798
-10.1909
-10.2021
-10.2135
-10.225
-10.2366
-10.2482
-10.2598
-10.2715
-10.2831
-10.2949
-10.3066
-10.3185
-10.3305
-10.3425
-10.3548
-10.3672
-10.3798
-10.3926
-10.4056
-10.4189
-10.4323
-10.4459
-10.4596
-10.4733
-10.1253
-10.1266
-10.1306
-10.1364
-10.1434
-10.1516
-10.1607
-10.1705
-10.1808
-10.1914
-10.2024
-10.2135
-10.2247
-10.236
-10.2474
-10.2588
-10.2703
-10.2818
-10.2933
-10.3049
-10.3165
-10.3283
-10.3401
-10.3521
-10.3642
-10.3764
-10.3888
-10.4013
-10.414
-10.4267
-10.4396
-10.4524
-10.4653
-10.1287
-10.13
-10.1337
-10.1391
-10.1458
-10.1535
-10.1622
-10.1716
-10.1815
-10.1918
-10.2024
-10.2132
-10.2242
-10.2353
-10.2464
-10.2576
-10.2689
-10.2802
-10.2915
-10.3029
-10.3143
-10.3258
-10.3374
-10.349
-10.3607
-10.3725
-10.3845
-10.3965
-10.4085
-10.4206
-10.4327
-10.4448
-10.4569
-10.1316
-10.1328
-10.1363
-10.1414
-10.1477
-10.1551
-10.1634
-10.1724
-10.1819
-10.1919
-10.2022
-10.2128
-10.2235
-10.2343
-10.2452
-10.2562
-10.2672
-10.2783
-10.2894
-10.3006
-10.3117
-10.3229
-10.3342
-10.3455
-10.3568
-10.3682
-10.3797
-10.3911
-10.4026
-10.414
-10.4254
-10.4368
-10.448
-10.1339
-10.135
-10.1383
-10.1432
-10.1492
-10.1562
-10.1642
-10.1729
-10.1821
-10.1918
-10.2018
-10.2121
-10.2225
-10.2331
-10.2438
-10.2546
-10.2654
-10.2762
-10.2871
-10.298
-10.3089
-10.3198
-10.3307
-10.3417
-10.3526
-10.3635
-10.3745
-10.3854
-10.3962
-10.407
-10.4177
-10.4283
-10.4387
-10.1356
-10.1366
-10.1398
-10.1444
-10.1501
-10.1569
-10.1645
-10.1729
-10.1819
-10.1913
-10.201
-10.211
-10.2213
-10.2316
-10.2421
-10.2527
-10.2632
-10.2738
-10.2845
-10.2951
-10.3057
-10.3163
-10.3269
-10.3374
-10.3479
-10.3584
-10.3688
-10.3792
-10.3895
-10.3996
-10.4096
-10.4195
-10.4292
-10.1366
-10.1377
-10.1407
-10.1451
-10.1506
-10.1571
-10.1645
-10.1727
-10.1814
-10.1905
-10.2001
-10.2099
-10.2199
-10.23
-10.2403
-10.2506
-10.261
-10.2713
-10.2817
-10.292
-10.3023
-10.3126
-10.3228
-10.3329
-10.343
-10.353
-10.363
-10.3728
-10.3824
-10.392
-10.4013
-10.4105
-10.4194
-10.1371
-10.1381
-10.1409
-10.1451
-10.1504
-10.1567
-10.1638
-10.1717
-10.1802
-10.1892
-10.1985
-10.2081
-10.2179
-10.2278
-10.2379
-10.248
-10.2581
-10.2683
-10.2784
-10.2884
-10.2984
-10.3084
-10.3182
-10.328
-10.3377
-10.3472
-10.3566
-10.3659
-10.375
-10.3839
-10.3926
-10.4011
-10.4094
-10.1369
-10.1379
-10.1407
-10.1448
-10.1499
-10.1561
-10.1631
-10.1709
-10.1792
-10.188
-10.1972
-10.2066
-10.2162
-10.226
-10.2358
-10.2457
-10.2556
-10.2654
-10.2753
-10.285
-10.2947
-10.3043
-10.3138
-10.3231
-10.3323
-10.3414
-10.3503
-10.359
-10.3676
-10.3759
-10.384
-10.3918
-10.3994
-10.136
-10.1368
-10.1393
-10.1431
-10.1479
-10.1538
-10.1607
-10.1682
-10.1764
-10.1851
-10.1941
-10.2035
-10.213
-10.2226
-10.2323
-10.2421
-10.2518
-10.2615
-10.2711
-10.2806
-10.2901
-10.2993
-10.3085
-10.3175
-10.3263
-10.335
-10.3434
-10.3516
-10.3596
-10.3674
-10.3749
-10.3821
-10.3891
-10.1345
-10.1355
-10.1383
-10.1423
-10.1473
-10.1533
-10.1602
-10.1677
-10.1758
-10.1843
-10.1932
-10.2023
-10.2116
-10.221
-10.2305
-10.24
-10.2494
-10.2588
-10.2681
-10.2773
-10.2863
-10.2952
-10.304
-10.3125
-10.3209
-10.329
-10.337
-10.3447
-10.3521
-10.3593
-10.3662
-10.3728
-10.3791
-10.1317
-10.1319
-10.1337
-10.1368
-10.1413
-10.147
-10.1538
-10.1613
-10.1695
-10.1782
-10.1873
-10.1966
-10.206
-10.2155
-10.2251
-10.2346
-10.2441
-10.2534
-10.2626
-10.2717
-10.2806
-10.2893
-10.2978
-10.3061
-10.3142
-10.322
-10.3295
-10.3368
-10.3438
-10.3505
-10.3569
-10.363
-10.3688
-10.1299
-10.132
-10.1352
-10.1393
-10.1443
-10.1501
-10.1567
-10.1641
-10.1719
-10.1802
-10.1888
-10.1977
-10.2067
-10.2157
-10.2248
-10.2339
-10.2428
-10.2517
-10.2605
-10.2691
-10.2775
-10.2858
-10.2938
-10.3016
-10.3092
-10.3164
-10.3235
-10.3302
-10.3366
-10.3428
-10.3486
-10.3541
-10.3593
-10.122
-10.12
-10.1197
-10.1221
-10.1267
-10.1329
-10.1403
-10.1486
-10.1576
-10.167
-10.1766
-10.1864
-10.1962
-10.206
-10.2157
-10.2252
-10.2346
-10.2439
-10.2529
-10.2617
-10.2702
-10.2785
-10.2865
-10.2942
-10.3016
-10.3087
-10.3155
-10.322
-10.3281
-10.3339
-10.3394
-10.3445
-10.3492
-10.1282
-10.1337
-10.1379
-10.1411
-10.1449
-10.1497
-10.1556
-10.1622
-10.1694
-10.1772
-10.1853
-10.1937
-10.2022
-10.2108
-10.2194
-10.228
-10.2364
-10.2448
-10.253
-10.261
-10.2689
-10.2764
-10.2838
-10.2908
-10.2976
-10.3041
-10.3103
-10.3162
-10.3217
-10.3269
-10.3318
-10.3363
-10.3404
-10.0986
-10.0875
-10.0843
-10.0883
-10.0959
-10.1052
-10.1155
-10.1265
-10.1378
-10.1492
-10.1605
-10.1717
-10.1826
-10.1933
-10.2036
-10.2137
-10.2235
-10.2329
-10.242
-10.2507
-10.2591
-10.2672
-10.2749
-10.2822
-10.2892
-10.2958
-10.302
-10.3079
-10.3133
-10.3184
-10.3231
-10.3274
-10.3313
-10.1467
-10.163
-10.1645
-10.1589
-10.1566
-10.1576
-10.1607
-10.1652
-10.1707
-10.177
-10.184
-10.1914
-10.1991
-10.2069
-10.2148
-10.2228
-10.2306
-10.2383
-10.2459
-10.2533
-10.2605
-10.2674
-10.2741
-10.2805
-10.2866
-10.2924
-10.2978
-10.3029
-10.3077
-10.3121
-10.3161
-10.3198
-10.3232
-10.0369
-9.99869
-9.99298
-10.0168
-10.0374
-10.0557
-10.074
-10.0915
-10.1081
-10.1237
-10.1384
-10.1522
-10.1654
-10.1778
-10.1895
-10.2007
-10.2113
-10.2213
-10.2309
-10.2399
-10.2485
-10.2566
-10.2642
-10.2714
-10.2781
-10.2844
-10.2903
-10.2957
-10.3007
-10.3053
-10.3094
-10.3131
-10.3164
-10.2495
-10.2741
-10.2452
-10.2084
-10.1852
-10.1773
-10.1743
-10.1738
-10.1757
-10.1795
-10.1844
-10.1902
-10.1966
-10.2033
-10.2102
-10.2173
-10.2244
-10.2314
-10.2384
-10.2451
-10.2517
-10.2581
-10.2642
-10.27
-10.2755
-10.2807
-10.2855
-10.2901
-10.2942
-10.2981
-10.3015
-10.3046
-10.3074
-9.83389
-9.7521
-9.80919
-9.89005
-9.94659
-9.9853
-10.0189
-10.0483
-10.0736
-10.0957
-10.1154
-10.1331
-10.1492
-10.1639
-10.1775
-10.19
-10.2016
-10.2125
-10.2226
-10.232
-10.2409
-10.2491
-10.2568
-10.2639
-10.2705
-10.2767
-10.2823
-10.2874
-10.2921
-10.2963
-10.3
-10.3032
-10.306
-10.8105
-10.5325
-10.3268
-10.2357
-10.1987
-10.1782
-10.1656
-10.1602
-10.1597
-10.1621
-10.1665
-10.1721
-10.1787
-10.1857
-10.193
-10.2005
-10.2081
-10.2155
-10.2228
-10.2299
-10.2368
-10.2434
-10.2497
-10.2557
-10.2614
-10.2667
-10.2716
-10.2761
-10.2803
-10.2841
-10.2875
-10.2906
-10.2932
-8.85251
-9.41412
-9.71887
-9.835
-9.91672
-9.98031
-10.0256
-10.0598
-10.0875
-10.1102
-10.1294
-10.1461
-10.1609
-10.1742
-10.1864
-10.1976
-10.208
-10.2176
-10.2267
-10.2351
-10.243
-10.2504
-10.2573
-10.2637
-10.2696
-10.2751
-10.2801
-10.2846
-10.2887
-10.2923
-10.2955
-10.2983
-10.3006
-9.92961
-10.5291
-10.592
-10.6486
-10.7593
-10.8372
-10.8946
-10.9438
-10.99
-11.0355
-11.0824
-11.1317
-11.1835
-11.2372
-11.2922
-11.3475
-11.4021
-11.4546
-11.504
-11.5489
-11.5886
-11.6223
-11.6497
-11.6706
-11.6848
-11.6923
-11.6927
-11.6853
-11.6695
-11.6442
-11.6086
-11.5617
-11.5028
-11.4311
-11.3462
-11.2474
-11.1344
-11.0066
-10.8638
-10.7056
-10.5317
-10.3419
-10.1363
-9.91493
-9.67808
-9.42617
-9.15977
-8.87964
-8.58671
-8.28204
-7.9669
-7.64265
-7.31081
-6.97297
-6.63082
-6.28612
-5.94063
-5.59614
-5.25442
-4.9172
-4.58614
-4.26281
-3.94866
-3.64501
-3.35303
-3.07372
-2.80791
-2.55625
-2.31921
-2.09709
-1.89005
-1.69806
-1.52097
-1.3585
-1.21028
-1.07582
-0.954574
-0.845929
-0.749224
-0.663762
-0.588819
-0.523645
-0.467477
-0.419525
-0.378995
-0.34505
-0.31687
-0.293536
-0.274247
-0.257887
-0.243863
-0.230479
-0.21807
-0.202936
-0.189018
-0.165366
-0.149425
-0.103577
-0.0959848
0.0101784
-10.7441
-11.0207
-10.9259
-10.8689
-10.8547
-10.8592
-10.8723
-10.8969
-10.9321
-10.9761
-11.0268
-11.0819
-11.1394
-11.1979
-11.256
-11.3129
-11.3677
-11.4195
-11.4675
-11.5109
-11.549
-11.5812
-11.6071
-11.6267
-11.6397
-11.6459
-11.6451
-11.6366
-11.6196
-11.5934
-11.5568
-11.5091
-11.4495
-11.3772
-11.2919
-11.1929
-11.0799
-10.9524
-10.81
-10.6525
-10.4795
-10.291
-10.0869
-9.86738
-9.63265
-9.38314
-9.11943
-8.84228
-8.55257
-8.25138
-7.93992
-7.61952
-7.29165
-6.95788
-6.61983
-6.27922
-5.93775
-5.59718
-5.25922
-4.92558
-4.59787
-4.27763
-3.96631
-3.6652
-3.37547
-3.09809
-2.8339
-2.58354
-2.34749
-2.12606
-1.9194
-1.7275
-1.55024
-1.38736
-1.23848
-1.10316
-0.980877
-0.871033
-0.772997
-0.686098
-0.609637
-0.542891
-0.485122
-0.435564
-0.393443
-0.357945
-0.328263
-0.303497
-0.282845
-0.265223
-0.249993
-0.235556
-0.222053
-0.206181
-0.191071
-0.167431
-0.14932
-0.106211
-0.0914624
-0.00027235
-10.4383
-10.5643
-10.6087
-10.6563
-10.7254
-10.7891
-10.8399
-10.8849
-10.9281
-10.9711
-11.0156
-11.0622
-11.1113
-11.1625
-11.2151
-11.2683
-11.321
-11.372
-11.4199
-11.4635
-11.5018
-11.534
-11.5597
-11.5786
-11.5907
-11.5959
-11.5938
-11.5841
-11.5659
-11.5385
-11.5009
-11.4523
-11.3919
-11.3191
-11.2334
-11.1342
-11.0213
-10.8941
-10.7523
-10.5956
-10.4238
-10.2367
-10.0343
-9.81677
-9.58434
-9.33745
-9.07664
-8.80266
-8.51637
-8.21882
-7.91117
-7.59472
-7.27091
-6.94125
-6.60734
-6.27083
-5.9334
-5.59677
-5.26262
-4.93262
-4.60836
-4.29136
-3.98302
-3.68463
-3.39731
-3.12205
-2.85966
-2.61078
-2.37588
-2.15528
-1.94914
-1.75747
-1.58015
-1.41694
-1.2675
-1.13139
-1.00813
-0.897134
-0.797799
-0.709477
-0.631495
-0.563154
-0.50374
-0.452514
-0.408724
-0.37158
-0.340292
-0.313984
-0.291854
-0.272854
-0.256303
-0.240707
-0.226007
-0.209307
-0.192921
-0.169241
-0.148896
-0.108555
-0.0865294
-0.0106574
-10.5459
-10.7109
-10.7739
-10.7921
-10.8176
-10.8435
-10.8669
-10.8933
-10.9248
-10.9614
-11.0026
-11.0477
-11.0955
-11.1449
-11.1947
-11.244
-11.2921
-11.3381
-11.381
-11.4202
-11.4546
-11.4838
-11.5072
-11.5243
-11.5351
-11.5391
-11.536
-11.5252
-11.5061
-11.4778
-11.4395
-11.3902
-11.3292
-11.2561
-11.1701
-11.071
-10.9582
-10.8315
-10.6904
-10.5347
-10.3641
-10.1785
-9.97791
-9.7625
-9.53249
-9.2883
-9.03047
-8.75972
-8.4769
-8.18301
-7.87921
-7.56677
-7.24707
-6.92159
-6.59191
-6.25964
-5.92643
-5.59394
-5.26383
-4.93772
-4.61716
-4.30365
-3.99855
-3.70311
-3.41844
-3.14551
-2.8851
-2.63786
-2.40426
-2.18462
-1.97911
-1.78776
-1.61046
-1.44701
-1.29707
-1.16025
-1.03606
-0.923966
-0.823379
-0.733672
-0.654194
-0.584268
-0.523202
-0.47028
-0.424773
-0.385916
-0.352938
-0.32499
-0.301276
-0.280785
-0.262802
-0.245935
-0.229936
-0.212314
-0.194571
-0.170786
-0.148166
-0.110569
-0.0812768
-0.020803
-10.5315
-10.621
-10.6641
-10.6931
-10.7344
-10.7784
-10.819
-10.8586
-10.8989
-10.9403
-10.9831
-11.0274
-11.0728
-11.119
-11.1657
-11.2121
-11.2575
-11.301
-11.3417
-11.3787
-11.411
-11.438
-11.4592
-11.4741
-11.4825
-11.4842
-11.4788
-11.4659
-11.4448
-11.4146
-11.3747
-11.3242
-11.2623
-11.1885
-11.1022
-11.003
-10.8904
-10.764
-10.6236
-10.4689
-10.2995
-10.1155
-9.91677
-9.70351
-9.47598
-9.23456
-8.97979
-8.71238
-8.43315
-8.1431
-7.84334
-7.5351
-7.21976
-6.89874
-6.57357
-6.24582
-5.91712
-5.58907
-5.26329
-4.94135
-4.62478
-4.31501
-4.01338
-3.72111
-3.43928
-3.16883
-2.91054
-2.66506
-2.43285
-2.21424
-2.00942
-1.81843
-1.6412
-1.47753
-1.32712
-1.1896
-1.06452
-0.951351
-0.849536
-0.758471
-0.677523
-0.606035
-0.54333
-0.488714
-0.441475
-0.400869
-0.366148
-0.336487
-0.311103
-0.289025
-0.269506
-0.251266
-0.233868
-0.215231
-0.196055
-0.172094
-0.147172
-0.112267
-0.0758185
-0.0305575
-10.5424
-10.6211
-10.6782
-10.7174
-10.7557
-10.7924
-10.8259
-10.8589
-10.8936
-10.9303
-10.9687
-11.0095
-11.0519
-11.0953
-11.139
-11.1822
-11.2243
-11.2643
-11.3015
-11.335
-11.3642
-11.3884
-11.407
-11.4197
-11.4262
-11.4261
-11.4189
-11.4042
-11.3813
-11.3496
-11.3081
-11.2562
-11.1933
-11.1186
-11.0317
-10.9321
-10.8195
-10.6934
-10.5535
-10.3996
-10.2314
-10.0489
-9.85201
-9.64095
-9.41594
-9.17738
-8.9258
-8.66187
-8.3864
-8.10037
-7.80484
-7.50104
-7.19028
-6.87396
-6.55357
-6.23062
-5.90669
-5.58334
-5.26213
-4.9446
-4.6322
-4.32634
-4.02831
-3.73931
-3.4604
-3.19249
-2.93637
-2.69267
-2.46187
-2.24431
-2.04019
-1.84958
-1.67241
-1.50852
-1.35765
-1.21944
-1.09345
-0.97921
-0.876169
-0.783747
-0.701334
-0.628289
-0.563954
-0.507648
-0.458677
-0.416314
-0.379824
-0.34841
-0.321295
-0.297557
-0.276418
-0.256713
-0.237826
-0.218086
-0.197407
-0.173196
-0.145963
-0.113664
-0.0702759
-0.0397564
-10.5452
-10.606
-10.6546
-10.6909
-10.7272
-10.7642
-10.7999
-10.8353
-10.8715
-10.9087
-10.9476
-10.9873
-11.0279
-11.0689
-11.1099
-11.1502
-11.1892
-11.2262
-11.2604
-11.2911
-11.3175
-11.3391
-11.3553
-11.3657
-11.3698
-11.3674
-11.3581
-11.3412
-11.3163
-11.2826
-11.2394
-11.1861
-11.122
-11.0464
-10.9589
-10.859
-10.7463
-10.6204
-10.4811
-10.328
-10.1611
-9.98012
-9.78517
-9.57637
-9.35399
-9.11839
-8.87011
-8.60981
-8.33828
-8.05644
-7.76536
-7.46621
-7.16025
-6.84884
-6.53341
-6.21543
-5.89642
-5.57788
-5.26134
-4.94826
-4.64008
-4.33815
-4.04374
-3.75801
-3.482
-3.21663
-2.96267
-2.72074
-2.49134
-2.27483
-2.0714
-1.88115
-1.70405
-1.53995
-1.3886
-1.24969
-1.12281
-1.00748
-0.90321
-0.809425
-0.725538
-0.650929
-0.584957
-0.526957
-0.476248
-0.43212
-0.393848
-0.360659
-0.331781
-0.306334
-0.283516
-0.262276
-0.241829
-0.220908
-0.198669
-0.174137
-0.144599
-0.114793
-0.064789
-0.0482582
-10.5467
-10.5976
-10.6435
-10.6817
-10.7185
-10.7547
-10.7893
-10.8233
-10.8577
-10.8929
-10.9292
-10.9663
-11.0043
-11.0425
-11.0807
-11.1181
-11.1541
-11.1881
-11.2192
-11.2469
-11.2705
-11.2894
-11.303
-11.311
-11.3129
-11.3083
-11.2968
-11.2779
-11.251
-11.2155
-11.1707
-11.1159
-11.0505
-10.9739
-10.8858
-10.7855
-10.6727
-10.547
-10.4083
-10.2561
-10.0904
-9.91101
-9.71803
-9.51158
-9.2919
-9.05938
-8.81452
-8.55795
-8.29046
-8.01293
-7.72638
-7.43194
-7.13083
-6.82437
-6.51392
-6.20091
-5.8868
-5.57306
-5.26114
-4.95248
-4.64847
-4.35043
-4.05959
-3.7771
-3.50397
-3.24111
-2.98928
-2.74912
-2.52111
-2.30563
-2.10291
-1.91303
-1.736
-1.57169
-1.41988
-1.28027
-1.15249
-1.03609
-0.930581
-0.835429
-0.750063
-0.673883
-0.606264
-0.546558
-0.4941
-0.448193
-0.408126
-0.373144
-0.342481
-0.315296
-0.290761
-0.26794
-0.245882
-0.223723
-0.199883
-0.174968
-0.143156
-0.115706
-0.0595057
-0.0559626
-10.5462
-10.5899
-10.6316
-10.6683
-10.7034
-10.738
-10.7717
-10.805
-10.8386
-10.8728
-10.9077
-10.9432
-10.979
-11.0149
-11.0504
-11.0851
-11.1182
-11.1492
-11.1775
-11.2024
-11.2233
-11.2395
-11.2507
-11.2563
-11.256
-11.2492
-11.2356
-11.2147
-11.1858
-11.1485
-11.1021
-11.0458
-10.9793
-10.9018
-10.813
-10.7124
-10.5995
-10.4742
-10.336
-10.1848
-10.0203
-9.84263
-9.65167
-9.4476
-9.23066
-9.00124
-8.7598
-8.50698
-8.24352
-7.97028
-7.68824
-7.39847
-7.10218
-6.8006
-6.49508
-6.18698
-5.87771
-5.56869
-5.26134
-4.95705
-4.65716
-4.36297
-4.07567
-3.79638
-3.52611
-3.26574
-3.01604
-2.77763
-2.55103
-2.33659
-2.13456
-1.94507
-1.76812
-1.60361
-1.45135
-1.31107
-1.1824
-1.06493
-0.958193
-0.861679
-0.774835
-0.69708
-0.627809
-0.566389
-0.51217
-0.464472
-0.422595
-0.385804
-0.353338
-0.324394
-0.298118
-0.273685
-0.249987
-0.226551
-0.201092
-0.175742
-0.141714
-0.116462
-0.0545657
-0.0628174
-10.5443
-10.5828
-10.621
-10.6563
-10.6903
-10.7237
-10.7564
-10.7887
-10.821
-10.8536
-10.8867
-10.92
-10.9536
-10.987
-11.0198
-11.0517
-11.082
-11.1102
-11.1356
-11.1577
-11.1759
-11.1896
-11.1983
-11.2016
-11.199
-11.1901
-11.1744
-11.1515
-11.1208
-11.0818
-11.0338
-10.9762
-10.9085
-10.8302
-10.7408
-10.6399
-10.5271
-10.4021
-10.2645
-10.1142
-9.95113
-9.77509
-9.58616
-9.38448
-9.17029
-8.94395
-8.70593
-8.45683
-8.19737
-7.92837
-7.65078
-7.36564
-7.07409
-6.77735
-6.47668
-6.17343
-5.86894
-5.56459
-5.26176
-4.96178
-4.66598
-4.37559
-4.0918
-3.8157
-3.54827
-3.29039
-3.04281
-2.80617
-2.58096
-2.36758
-2.16627
-1.97718
-1.80033
-1.63564
-1.48294
-1.34199
-1.21244
-1.09392
-0.985968
-0.888099
-0.799782
-0.720456
-0.649531
-0.586395
-0.530409
-0.480911
-0.437214
-0.398601
-0.364317
-0.333599
-0.305567
-0.279503
-0.254149
-0.229414
-0.202335
-0.17651
-0.140349
-0.117115
-0.0500801
-0.0688123
-10.5413
-10.5758
-10.6108
-10.6442
-10.6767
-10.7086
-10.74
-10.771
-10.802
-10.8331
-10.8645
-10.8959
-10.9273
-10.9583
-10.9887
-11.0179
-11.0454
-11.0708
-11.0935
-11.1129
-11.1284
-11.1396
-11.1459
-11.1469
-11.1421
-11.1311
-11.1134
-11.0886
-11.056
-11.0153
-10.9658
-10.907
-10.8382
-10.7591
-10.6692
-10.568
-10.4553
-10.3306
-10.1937
-10.0444
-9.88266
-9.70831
-9.52142
-9.32212
-9.11067
-8.88739
-8.65276
-8.40734
-8.15183
-7.88702
-7.61383
-7.33326
-7.04641
-6.75443
-6.45857
-6.1601
-5.86034
-5.56062
-5.26225
-4.96655
-4.67479
-4.38819
-4.10789
-3.83496
-3.57036
-3.31496
-3.06951
-2.83464
-2.61085
-2.39853
-2.19796
-2.00928
-1.83254
-1.66769
-1.51458
-1.37297
-1.24257
-1.123
-1.01384
-0.914629
-0.824847
-0.743953
-0.671379
-0.606525
-0.54877
-0.497469
-0.451945
-0.411503
-0.375394
-0.342892
-0.313094
-0.285389
-0.258376
-0.232327
-0.203645
-0.17731
-0.13912
-0.117705
-0.046116
-0.0739658
-10.5372
-10.5687
-10.6009
-10.6324
-10.6632
-10.6936
-10.7237
-10.7533
-10.7829
-10.8124
-10.8419
-10.8714
-10.9006
-10.9293
-10.9571
-10.9837
-11.0086
-11.0313
-11.0513
-11.068
-11.081
-11.0897
-11.0936
-11.0923
-11.0853
-11.0722
-11.0525
-11.0258
-10.9915
-10.9492
-10.8982
-10.8381
-10.7684
-10.6885
-10.5981
-10.4967
-10.384
-10.2597
-10.1235
-9.97529
-9.81486
-9.6422
-9.45734
-9.26043
-9.05169
-8.83145
-8.60017
-8.3584
-8.1068
-7.84614
-7.5773
-7.30124
-7.01902
-6.73176
-6.44064
-6.14691
-5.85183
-5.55667
-5.26274
-4.97128
-4.68354
-4.40069
-4.12386
-3.85409
-3.59232
-3.3394
-3.09608
-2.86299
-2.64062
-2.42939
-2.22956
-2.04132
-1.86471
-1.69972
-1.5462
-1.40396
-1.27272
-1.15212
-1.04177
-0.941222
-0.849982
-0.767528
-0.693307
-0.626738
-0.567216
-0.51411
-0.466757
-0.424483
-0.386544
-0.352253
-0.320688
-0.291338
-0.262669
-0.235301
-0.205041
-0.178164
-0.138063
-0.118253
-0.0426926
-0.0783128
-10.5324
-10.5612
-10.591
-10.6205
-10.6496
-10.6785
-10.707
-10.7352
-10.7633
-10.7911
-10.8189
-10.8463
-10.8734
-10.8998
-10.9252
-10.9493
-10.9716
-10.9917
-11.009
-11.0232
-11.0336
-11.0398
-11.0414
-11.0378
-11.0286
-11.0135
-10.9918
-10.9633
-10.9273
-10.8834
-10.831
-10.7698
-10.6991
-10.6185
-10.5276
-10.426
-10.3134
-10.1895
-10.054
-9.90678
-9.7477
-9.57673
-9.39391
-9.19936
-8.99331
-8.77609
-8.54813
-8.30997
-8.06223
-7.80567
-7.54113
-7.26953
-6.99188
-6.70928
-6.42285
-6.1338
-5.84335
-5.55272
-5.26317
-4.97592
-4.69217
-4.41306
-4.13968
-3.87305
-3.6141
-3.36367
-3.12248
-2.89117
-2.67024
-2.4601
-2.26104
-2.07325
-1.89679
-1.73167
-1.57778
-1.43493
-1.30285
-1.18124
-1.06971
-0.967837
-0.875147
-0.791139
-0.715278
-0.646999
-0.585711
-0.530802
-0.481621
-0.437515
-0.397747
-0.361668
-0.328336
-0.297341
-0.267025
-0.238335
-0.206529
-0.179078
-0.137189
-0.118762
-0.039791
-0.0818999
-10.5267
-10.5534
-10.5809
-10.6086
-10.636
-10.6632
-10.6902
-10.7169
-10.7433
-10.7695
-10.7954
-10.8209
-10.8459
-10.87
-10.8931
-10.9147
-10.9345
-10.952
-10.9668
-10.9784
-10.9863
-10.9901
-10.9893
-10.9835
-10.9722
-10.955
-10.9315
-10.9011
-10.8634
-10.818
-10.7643
-10.7019
-10.6302
-10.5489
-10.4576
-10.3559
-10.2434
-10.1199
-9.98511
-9.83893
-9.68121
-9.51192
-9.33112
-9.13891
-8.93554
-8.7213
-8.49663
-8.26202
-8.01811
-7.7656
-7.5053
-7.2381
-6.96497
-6.68697
-6.40518
-6.12076
-5.83488
-5.54874
-5.26353
-4.98045
-4.70065
-4.42524
-4.1553
-3.8918
-3.63566
-3.38771
-3.14866
-2.91914
-2.69966
-2.49063
-2.29235
-2.10502
-1.92874
-1.76352
-1.60926
-1.46581
-1.33293
-1.21032
-1.09762
-0.994433
-0.900305
-0.814753
-0.737257
-0.667273
-0.604225
-0.547516
-0.496511
-0.450576
-0.408982
-0.371117
-0.336025
-0.303389
-0.271437
-0.241426
-0.208107
-0.18005
-0.136498
-0.119231
-0.0373724
-0.0847851
-10.5204
-10.5452
-10.5707
-10.5965
-10.6222
-10.6478
-10.6732
-10.6983
-10.7231
-10.7475
-10.7716
-10.7952
-10.818
-10.8399
-10.8607
-10.8799
-10.8972
-10.9122
-10.9245
-10.9336
-10.9392
-10.9406
-10.9375
-10.9295
-10.9161
-10.8969
-10.8715
-10.8393
-10.8
-10.7531
-10.6981
-10.6345
-10.562
-10.48
-10.3883
-10.2864
-10.1741
-10.051
-9.91693
-9.77178
-9.61541
-9.44781
-9.269
-9.07912
-8.87839
-8.66711
-8.44567
-8.21459
-7.97444
-7.72592
-7.46981
-7.20695
-6.93829
-6.66482
-6.38761
-6.10776
-5.82641
-5.5447
-5.26379
-4.98484
-4.70895
-4.43723
-4.17069
-3.91031
-3.65697
-3.41149
-3.17458
-2.94685
-2.72883
-2.52092
-2.32344
-2.1366
-1.96051
-1.7952
-1.6406
-1.49657
-1.3629
-1.23931
-1.12546
-1.02097
-0.925418
-0.838331
-0.759211
-0.68753
-0.622727
-0.564225
-0.511401
-0.463642
-0.420229
-0.380584
-0.34374
-0.309469
-0.275898
-0.244567
-0.209773
-0.181079
-0.135985
-0.11966
-0.0353916
-0.087037
-10.5135
-10.5365
-10.5602
-10.5842
-10.6083
-10.6322
-10.656
-10.6794
-10.7026
-10.7253
-10.7475
-10.7691
-10.7899
-10.8097
-10.8281
-10.845
-10.8599
-10.8725
-10.8824
-10.8891
-10.8922
-10.8914
-10.886
-10.8759
-10.8604
-10.8392
-10.8119
-10.778
-10.7371
-10.6888
-10.6325
-10.5678
-10.4944
-10.4118
-10.3197
-10.2177
-10.1055
-9.98282
-9.84951
-9.70539
-9.55037
-9.38443
-9.20761
-9.02003
-8.82191
-8.61354
-8.3953
-8.16769
-7.93126
-7.68668
-7.43468
-7.1761
-6.91184
-6.64285
-6.37016
-6.09482
-5.81793
-5.5406
-5.26394
-4.98907
-4.71707
-4.44899
-4.18583
-3.92855
-3.678
-3.43498
-3.2002
-2.97427
-2.75771
-2.55094
-2.35427
-2.16793
-1.99205
-1.82667
-1.67175
-1.52716
-1.39272
-1.26816
-1.15318
-1.04741
-0.950446
-0.861837
-0.781103
-0.707734
-0.641187
-0.580899
-0.526264
-0.476689
-0.431466
-0.39005
-0.351466
-0.315571
-0.280397
-0.247754
-0.211521
-0.182162
-0.13564
-0.120051
-0.0338031
-0.0887322
-10.5059
-10.5274
-10.5494
-10.5717
-10.5941
-10.6164
-10.6385
-10.6604
-10.6818
-10.7028
-10.7232
-10.7429
-10.7616
-10.7792
-10.7955
-10.8101
-10.8227
-10.8329
-10.8404
-10.8448
-10.8456
-10.8424
-10.8349
-10.8226
-10.8051
-10.782
-10.7529
-10.7173
-10.6748
-10.6251
-10.5675
-10.5019
-10.4276
-10.3444
-10.2519
-10.1498
-10.0377
-9.9155
-9.78292
-9.63983
-9.48615
-9.32186
-9.14699
-8.96169
-8.76614
-8.56064
-8.34556
-8.12136
-7.88859
-7.64788
-7.39995
-7.14558
-6.88565
-6.62107
-6.35283
-6.08193
-5.80945
-5.53643
-5.26398
-4.99314
-4.72498
-4.4605
-4.2007
-3.94648
-3.69871
-3.45814
-3.22549
-3.00136
-2.78627
-2.58064
-2.38479
-2.19897
-2.02332
-1.85789
-1.70266
-1.55754
-1.42234
-1.29684
-1.18075
-1.07371
-0.975347
-0.885231
-0.802896
-0.727852
-0.659571
-0.597509
-0.541074
-0.489694
-0.442672
-0.399498
-0.359187
-0.32168
-0.284925
-0.250976
-0.213345
-0.183295
-0.135454
-0.120412
-0.0325615
-0.0899504
-10.4979
-10.5178
-10.5382
-10.559
-10.5797
-10.6005
-10.621
-10.6411
-10.6609
-10.6801
-10.6987
-10.7164
-10.7332
-10.7487
-10.7628
-10.7752
-10.7855
-10.7934
-10.7986
-10.8007
-10.7992
-10.7939
-10.7842
-10.7699
-10.7504
-10.7254
-10.6945
-10.6572
-10.6133
-10.5621
-10.5034
-10.4367
-10.3616
-10.2778
-10.185
-10.0827
-9.97086
-9.84908
-9.71723
-9.57517
-9.42282
-9.26015
-9.08723
-8.90416
-8.71115
-8.50848
-8.2965
-8.07566
-7.84648
-7.60958
-7.36564
-7.11542
-6.85974
-6.5995
-6.33563
-6.06912
-5.80097
-5.53221
-5.26389
-4.99703
-4.73266
-4.47176
-4.21527
-3.9641
-3.71907
-3.48095
-3.25041
-3.02808
-2.81446
-2.60997
-2.41496
-2.22967
-2.05425
-1.8888
-1.73329
-1.58764
-1.45172
-1.32529
-1.2081
-1.09982
-1.00008
-0.908469
-0.82455
-0.747845
-0.677844
-0.614022
-0.555799
-0.502629
-0.453822
-0.408904
-0.366885
-0.327782
-0.289469
-0.254225
-0.215234
-0.184473
-0.135413
-0.12075
-0.0316204
-0.0907714
-10.4893
-10.5078
-10.5268
-10.5459
-10.5652
-10.5843
-10.6032
-10.6217
-10.6398
-10.6573
-10.674
-10.6899
-10.7047
-10.7182
-10.7302
-10.7404
-10.7485
-10.7542
-10.7571
-10.757
-10.7533
-10.7458
-10.7341
-10.7177
-10.6963
-10.6694
-10.6368
-10.5979
-10.5524
-10.5
-10.4401
-10.3724
-10.2966
-10.2122
-10.119
-10.0167
-9.905
-9.78367
-9.65254
-9.5115
-9.36045
-9.1994
-9.02838
-8.84751
-8.657
-8.4571
-8.24817
-8.03063
-7.80499
-7.57182
-7.3318
-7.08564
-6.83415
-6.57816
-6.31859
-6.05638
-5.7925
-5.52793
-5.26368
-5.00075
-4.74012
-4.48274
-4.22953
-3.98137
-3.73906
-3.50335
-3.27493
-3.05438
-2.84223
-2.63889
-2.44472
-2.25997
-2.08482
-1.91934
-1.76357
-1.61743
-1.48079
-1.35346
-1.2352
-1.12569
-1.02459
-0.931508
-0.846022
-0.767674
-0.69597
-0.630402
-0.57041
-0.515464
-0.46489
-0.418246
-0.374538
-0.333857
-0.294011
-0.257488
-0.217174
-0.185688
-0.135498
-0.121073
-0.0309313
-0.0912731
-10.4802
-10.4974
-10.515
-10.5327
-10.5504
-10.568
-10.5853
-10.6022
-10.6186
-10.6344
-10.6493
-10.6633
-10.6762
-10.6877
-10.6976
-10.7057
-10.7117
-10.7152
-10.716
-10.7137
-10.7079
-10.6983
-10.6845
-10.6661
-10.6428
-10.6142
-10.5798
-10.5394
-10.4925
-10.4387