/*--------------------------------*- C++ -*----------------------------------*\
  =========                 |
  \\      /  F ield         | OpenFOAM: The Open Source CFD Toolbox
   \\    /   O peration     | Website:  https://openfoam.org
    \\  /    A nd           | Version:  10
     \\/     M anipulation  |
\*---------------------------------------------------------------------------*/
FoamFile
{
    format      ascii;
    class       volVectorField;
    location    "0.19";
    object      U;
}
// * * * * * * * * * * * * * * * * * * * * * * * * * * * * * * * * * * * * * //

dimensions      [0 1 -1 0 0 0 0];

internalField   nonuniform List<vector> 
6820
(
(7.33663 -0.254709 0)
(7.37111 -0.152738 0)
(7.32899 -0.0594681 0)
(7.25211 -0.011716 0)
(7.17469 0.00797537 0)
(7.10479 0.0139827 0)
(7.04369 0.0144739 0)
(6.99079 0.0130996 0)
(6.94463 0.0113515 0)
(6.90382 0.00977709 0)
(6.86726 0.00851671 0)
(6.83417 0.0075577 0)
(6.80392 0.00684385 0)
(6.77605 0.00631593 0)
(6.75023 0.00592446 0)
(6.72618 0.00563188 0)
(6.70368 0.00541093 0)
(6.68255 0.0052426 0)
(6.66266 0.00511415 0)
(6.64385 0.00501767 0)
(6.62601 0.00494914 0)
(6.60903 0.00490816 0)
(6.59279 0.00489836 0)
(6.57716 0.00492901 0)
(6.56199 0.00501777 0)
(6.54709 0.00519956 0)
(6.53216 0.00554426 0)
(6.51675 0.00614624 0)
(6.49988 0.00756369 0)
(6.48029 0.00909141 0)
(6.45428 0.0180337 0)
(6.41012 0.0204704 0)
(6.36045 0.0467595 0)
(7.32387 0.121388 0)
(7.30439 0.123281 0)
(7.30895 0.0779824 0)
(7.32917 0.0528062 0)
(7.34723 0.0392084 0)
(7.35527 0.0314051 0)
(7.35426 0.026955 0)
(7.34713 0.0242114 0)
(7.33614 0.0223167 0)
(7.32289 0.0208795 0)
(7.30843 0.0197043 0)
(7.29341 0.0186911 0)
(7.27826 0.0177895 0)
(7.2632 0.0169735 0)
(7.24839 0.0162285 0)
(7.23391 0.0155457 0)
(7.2198 0.0149194 0)
(7.20608 0.0143458 0)
(7.19276 0.0138228 0)
(7.17984 0.0133496 0)
(7.1673 0.0129276 0)
(7.15513 0.0125605 0)
(7.14331 0.0122563 0)
(7.13182 0.0120293 0)
(7.12063 0.0119047 0)
(7.1097 0.011932 0)
(7.09908 0.0121848 0)
(7.08858 0.0128713 0)
(7.07899 0.014208 0)
(7.06882 0.0171711 0)
(7.06483 0.0228953 0)
(7.05896 0.034423 0)
(7.08698 0.0628593 0)
(7.32565 -0.04379 0)
(7.32324 -0.0517245 0)
(7.33515 -0.0261892 0)
(7.34297 -0.00270259 0)
(7.34787 0.010453 0)
(7.35204 0.0169104 0)
(7.35501 0.0199888 0)
(7.35651 0.0212825 0)
(7.35653 0.0216333 0)
(7.35518 0.0215149 0)
(7.3527 0.0211742 0)
(7.34933 0.0207383 0)
(7.34525 0.0202733 0)
(7.34064 0.0198123 0)
(7.33564 0.0193711 0)
(7.33035 0.0189567 0)
(7.32485 0.0185718 0)
(7.3192 0.0182179 0)
(7.31346 0.0178963 0)
(7.30765 0.0176089 0)
(7.30181 0.0173595 0)
(7.29594 0.0171546 0)
(7.29006 0.0170047 0)
(7.28416 0.0169263 0)
(7.27823 0.016948 0)
(7.27224 0.0171095 0)
(7.26619 0.0175014 0)
(7.25996 0.0181844 0)
(7.25376 0.0195695 0)
(7.24713 0.0213149 0)
(7.24153 0.0257421 0)
(7.23581 0.0284666 0)
(7.23412 0.0385835 0)
(7.33338 0.011792 0)
(7.33034 0.0329297 0)
(7.32952 0.0333665 0)
(7.33251 0.0276687 0)
(7.3379 0.0242918 0)
(7.3434 0.0228275 0)
(7.34798 0.0222781 0)
(7.3516 0.022064 0)
(7.35437 0.0219287 0)
(7.35633 0.0217907 0)
(7.35759 0.0216247 0)
(7.35824 0.0214251 0)
(7.35835 0.0211962 0)
(7.35801 0.0209457 0)
(7.3573 0.0206817 0)
(7.35626 0.0204117 0)
(7.35495 0.0201427 0)
(7.35343 0.0198815 0)
(7.35171 0.0196345 0)
(7.34982 0.0194091 0)
(7.3478 0.019214 0)
(7.34565 0.0190606 0)
(7.34339 0.0189649 0)
(7.34101 0.0189493 0)
(7.33851 0.0190488 0)
(7.33589 0.0193126 0)
(7.33316 0.0198299 0)
(7.33028 0.0206982 0)
(7.32741 0.0221881 0)
(7.32447 0.0243539 0)
(7.32231 0.0281567 0)
(7.32115 0.0326457 0)
(7.32277 0.0405244 0)
(7.33122 -0.00351741 0)
(7.33003 -0.00431322 0)
(7.33357 0.00130458 0)
(7.33712 0.00876649 0)
(7.34038 0.0141447 0)
(7.34363 0.0171645 0)
(7.34675 0.0188181 0)
(7.34969 0.0197484 0)
(7.35239 0.0202601 0)
(7.35479 0.0205241 0)
(7.35688 0.0206363 0)
(7.35865 0.0206505 0)
(7.36012 0.0206002 0)
(7.36133 0.0205077 0)
(7.36228 0.0203882 0)
(7.363 0.0202529 0)
(7.36352 0.0201108 0)
(7.36386 0.0199697 0)
(7.36403 0.0198374 0)
(7.36404 0.0197222 0)
(7.36393 0.0196343 0)
(7.36368 0.0195865 0)
(7.36331 0.0195964 0)
(7.36282 0.0196877 0)
(7.36221 0.0198958 0)
(7.3615 0.0202671 0)
(7.3607 0.0208805 0)
(7.35983 0.0218123 0)
(7.35902 0.0232549 0)
(7.35835 0.0252124 0)
(7.35832 0.0281652 0)
(7.35928 0.0313708 0)
(7.36187 0.0355044 0)
(7.33264 0.00209001 0)
(7.33222 0.00992718 0)
(7.3339 0.0141393 0)
(7.33637 0.0160303 0)
(7.33933 0.0171575 0)
(7.34248 0.0179518 0)
(7.34548 0.0185804 0)
(7.34828 0.0190636 0)
(7.35089 0.0194005 0)
(7.3533 0.0196203 0)
(7.35552 0.0197534 0)
(7.35757 0.0198208 0)
(7.35945 0.0198387 0)
(7.36117 0.0198197 0)
(7.36273 0.0197739 0)
(7.36415 0.01971 0)
(7.36544 0.0196357 0)
(7.36659 0.0195588 0)
(7.36763 0.0194872 0)
(7.36855 0.0194301 0)
(7.36936 0.0193984 0)
(7.37007 0.0194058 0)
(7.37069 0.0194705 0)
(7.37121 0.0196163 0)
(7.37164 0.0198765 0)
(7.37201 0.0202934 0)
(7.37233 0.0209308 0)
(7.37266 0.0218504 0)
(7.37311 0.0231703 0)
(7.37381 0.0248997 0)
(7.37508 0.0272218 0)
(7.37726 0.0297475 0)
(7.3806 0.0325037 0)
(7.33258 0.000841566 0)
(7.33241 0.00455035 0)
(7.33424 0.00812285 0)
(7.33681 0.0113449 0)
(7.33957 0.0139503 0)
(7.34235 0.0157448 0)
(7.34502 0.0169186 0)
(7.34754 0.017686 0)
(7.34993 0.0181823 0)
(7.35221 0.0185008 0)
(7.35437 0.0187017 0)
(7.35642 0.0188216 0)
(7.35837 0.0188843 0)
(7.36022 0.0189063 0)
(7.36198 0.0189 0)
(7.36366 0.0188749 0)
(7.36524 0.0188393 0)
(7.36674 0.0188011 0)
(7.36816 0.0187685 0)
(7.3695 0.0187506 0)
(7.37077 0.0187583 0)
(7.37197 0.0188051 0)
(7.3731 0.0189081 0)
(7.37416 0.0190894 0)
(7.37518 0.019378 0)
(7.37617 0.019809 0)
(7.37717 0.0204298 0)
(7.37822 0.021283 0)
(7.37944 0.0224328 0)
(7.38095 0.0238707 0)
(7.38295 0.0256318 0)
(7.38568 0.0274593 0)
(7.38924 0.0291636 0)
(7.33284 0.0013453 0)
(7.333 0.00539143 0)
(7.33454 0.00896975 0)
(7.33674 0.0116815 0)
(7.33919 0.0136807 0)
(7.34177 0.0150686 0)
(7.34429 0.016031 0)
(7.34671 0.0167086 0)
(7.34902 0.0171779 0)
(7.35122 0.0174961 0)
(7.35332 0.0177071 0)
(7.35534 0.017841 0)
(7.35728 0.0179191 0)
(7.35915 0.0179571 0)
(7.36095 0.017967 0)
(7.3627 0.0179582 0)
(7.36439 0.0179391 0)
(7.36603 0.0179174 0)
(7.36761 0.0179015 0)
(7.36914 0.0179001 0)
(7.37063 0.0179238 0)
(7.37206 0.0179852 0)
(7.37346 0.0181001 0)
(7.37483 0.0182875 0)
(7.37618 0.0185713 0)
(7.37754 0.0189785 0)
(7.37894 0.0195415 0)
(7.38044 0.0202859 0)
(7.38213 0.0212391 0)
(7.3841 0.022379 0)
(7.38649 0.0236753 0)
(7.38946 0.0249493 0)
(7.39302 0.0259998 0)
(7.33291 0.00134635 0)
(7.33319 0.0047188 0)
(7.33457 0.00778576 0)
(7.33658 0.0102801 0)
(7.33885 0.0122685 0)
(7.34125 0.0137495 0)
(7.34363 0.0148113 0)
(7.34593 0.0155637 0)
(7.34815 0.0160863 0)
(7.35028 0.0164422 0)
(7.35232 0.0166798 0)
(7.3543 0.0168326 0)
(7.35621 0.0169243 0)
(7.35807 0.0169721 0)
(7.35987 0.0169893 0)
(7.36164 0.0169863 0)
(7.36336 0.0169718 0)
(7.36504 0.0169542 0)
(7.36669 0.0169415 0)
(7.3683 0.0169426 0)
(7.36989 0.0169674 0)
(7.37145 0.0170272 0)
(7.37299 0.0171357 0)
(7.37453 0.0173087 0)
(7.37608 0.0175645 0)
(7.37765 0.0179222 0)
(7.3793 0.0184014 0)
(7.38107 0.0190137 0)
(7.38302 0.0197631 0)
(7.38525 0.0206183 0)
(7.38782 0.0215251 0)
(7.39084 0.0223516 0)
(7.39429 0.0229326 0)
(7.33297 0.00132457 0)
(7.33334 0.00436819 0)
(7.33458 0.00719459 0)
(7.33639 0.00952526 0)
(7.33846 0.0113793 0)
(7.34067 0.0127744 0)
(7.34291 0.013791 0)
(7.34511 0.0145254 0)
(7.34725 0.0150477 0)
(7.34932 0.0154116 0)
(7.35133 0.0156588 0)
(7.35327 0.0158201 0)
(7.35515 0.015918 0)
(7.35699 0.0159698 0)
(7.35879 0.0159886 0)
(7.36055 0.0159853 0)
(7.36228 0.0159688 0)
(7.36398 0.0159475 0)
(7.36565 0.0159296 0)
(7.3673 0.0159233 0)
(7.36894 0.0159377 0)
(7.37056 0.0159829 0)
(7.37219 0.0160701 0)
(7.37382 0.0162118 0)
(7.37548 0.0164209 0)
(7.3772 0.0167095 0)
(7.37899 0.0170872 0)
(7.38092 0.0175551 0)
(7.38302 0.0181035 0)
(7.38536 0.0186975 0)
(7.38799 0.019279 0)
(7.39097 0.0197489 0)
(7.39425 0.0199855 0)
(7.333 0.00126455 0)
(7.3334 0.00399037 0)
(7.33453 0.00652756 0)
(7.33616 0.00865592 0)
(7.33806 0.0103806 0)
(7.34011 0.0117169 0)
(7.34222 0.012718 0)
(7.34431 0.0134555 0)
(7.34637 0.0139883 0)
(7.34838 0.0143639 0)
(7.35034 0.0146212 0)
(7.35225 0.0147899 0)
(7.35411 0.0148922 0)
(7.35593 0.0149455 0)
(7.35771 0.0149633 0)
(7.35946 0.0149563 0)
(7.36119 0.0149339 0)
(7.36289 0.0149043 0)
(7.36458 0.0148754 0)
(7.36625 0.014855 0)
(7.36791 0.0148512 0)
(7.36958 0.0148725 0)
(7.37125 0.0149279 0)
(7.37294 0.0150262 0)
(7.37468 0.015176 0)
(7.37647 0.0153834 0)
(7.37836 0.0156507 0)
(7.38037 0.0159719 0)
(7.38254 0.0163302 0)
(7.38492 0.0166908 0)
(7.38753 0.0170006 0)
(7.39041 0.0171848 0)
(7.3935 0.0171575 0)
(7.33302 0.00118272 0)
(7.33342 0.00363701 0)
(7.33445 0.00592813 0)
(7.33593 0.0078817 0)
(7.33767 0.00948471 0)
(7.33958 0.0107473 0)
(7.34156 0.0117084 0)
(7.34355 0.0124256 0)
(7.34553 0.0129499 0)
(7.34747 0.0133234 0)
(7.34938 0.0135811 0)
(7.35125 0.0137502 0)
(7.35308 0.0138519 0)
(7.35488 0.0139027 0)
(7.35665 0.0139159 0)
(7.35839 0.013902 0)
(7.36011 0.0138703 0)
(7.36182 0.0138286 0)
(7.36351 0.0137845 0)
(7.36519 0.013745 0)
(7.36687 0.013717 0)
(7.36856 0.0137076 0)
(7.37026 0.0137232 0)
(7.37199 0.0137699 0)
(7.37377 0.0138523 0)
(7.37562 0.013972 0)
(7.37755 0.014126 0)
(7.3796 0.0143044 0)
(7.38179 0.0144874 0)
(7.38416 0.0146428 0)
(7.38671 0.0147255 0)
(7.38946 0.014679 0)
(7.39238 0.0144443 0)
(7.33303 0.00109048 0)
(7.33342 0.0033002 0)
(7.33436 0.0053624 0)
(7.33571 0.00714218 0)
(7.33731 0.00861891 0)
(7.33908 0.00979972 0)
(7.34094 0.0107132 0)
(7.34283 0.0114039 0)
(7.34473 0.0119142 0)
(7.34661 0.0122806 0)
(7.34847 0.0125339 0)
(7.3503 0.0126992 0)
(7.3521 0.0127965 0)
(7.35387 0.0128414 0)
(7.35562 0.0128468 0)
(7.35735 0.012823 0)
(7.35907 0.0127789 0)
(7.36076 0.0127218 0)
(7.36246 0.0126588 0)
(7.36414 0.012596 0)
(7.36583 0.0125392 0)
(7.36754 0.0124937 0)
(7.36926 0.0124641 0)
(7.37101 0.0124539 0)
(7.37282 0.0124644 0)
(7.37469 0.012494 0)
(7.37664 0.0125367 0)
(7.3787 0.0125801 0)
(7.38088 0.0126045 0)
(7.3832 0.0125814 0)
(7.38568 0.012474 0)
(7.3883 0.0122399 0)
(7.39104 0.0118387 0)
(7.33303 0.00099418 0)
(7.33341 0.00297988 0)
(7.33427 0.00483169 0)
(7.3355 0.00644609 0)
(7.33698 0.00779907 0)
(7.33863 0.00889393 0)
(7.34037 0.00975137 0)
(7.34217 0.0104059 0)
(7.34399 0.0108928 0)
(7.34581 0.0112435 0)
(7.34761 0.0114854 0)
(7.3494 0.0116412 0)
(7.35116 0.0117292 0)
(7.35291 0.0117642 0)
(7.35464 0.0117583 0)
(7.35635 0.0117213 0)
(7.35805 0.0116615 0)
(7.35974 0.0115858 0)
(7.36143 0.0115005 0)
(7.36312 0.0114108 0)
(7.36481 0.0113213 0)
(7.36652 0.0112359 0)
(7.36826 0.0111574 0)
(7.37002 0.0110871 0)
(7.37184 0.0110241 0)
(7.37371 0.0109644 0)
(7.37567 0.0109003 0)
(7.37771 0.0108189 0)
(7.37986 0.0107017 0)
(7.38212 0.0105243 0)
(7.3845 0.0102575 0)
(7.38699 0.00986952 0)
(7.38956 0.00933289 0)
(7.33303 0.000897646 0)
(7.33339 0.00267507 0)
(7.33418 0.00433122 0)
(7.33531 0.0057862 0)
(7.33668 0.00701569 0)
(7.33821 0.00802006 0)
(7.33986 0.00881433 0)
(7.34157 0.00942516 0)
(7.34331 0.00988151 0)
(7.34506 0.0102102 0)
(7.34681 0.0104351 0)
(7.34855 0.0105764 0)
(7.35028 0.0106508 0)
(7.352 0.0106721 0)
(7.3537 0.0106515 0)
(7.3554 0.0105982 0)
(7.35709 0.0105197 0)
(7.35877 0.0104224 0)
(7.36045 0.0103118 0)
(7.36213 0.0101921 0)
(7.36382 0.010067 0)
(7.36553 0.00993902 0)
(7.36726 0.00980933 0)
(7.36903 0.00967763 0)
(7.37084 0.00954142 0)
(7.37271 0.00939546 0)
(7.37465 0.00923116 0)
(7.37666 0.00903604 0)
(7.37876 0.00879356 0)
(7.38095 0.00848344 0)
(7.38322 0.00808271 0)
(7.38558 0.00756772 0)
(7.38801 0.00691976 0)
(7.33303 0.000802965 0)
(7.33337 0.00238482 0)
(7.3341 0.00385768 0)
(7.33514 0.00515921 0)
(7.33641 0.00626649 0)
(7.33784 0.00717757 0)
(7.33939 0.00790313 0)
(7.34102 0.00846365 0)
(7.34268 0.00888268 0)
(7.34437 0.00918291 0)
(7.34607 0.00938494 0)
(7.34777 0.0095067 0)
(7.34946 0.00956323 0)
(7.35115 0.00956699 0)
(7.35282 0.00952824 0)
(7.3545 0.00945541 0)
(7.35617 0.0093554 0)
(7.35783 0.00923384 0)
(7.3595 0.00909529 0)
(7.36117 0.00894329 0)
(7.36286 0.00878039 0)
(7.36456 0.00860797 0)
(7.36629 0.00842611 0)
(7.36804 0.00823326 0)
(7.36984 0.00802588 0)
(7.37169 0.00779805 0)
(7.37359 0.00754116 0)
(7.37556 0.00724367 0)
(7.3776 0.00689125 0)
(7.37971 0.00646732 0)
(7.38189 0.00595403 0)
(7.38412 0.00533372 0)
(7.3864 0.00459377 0)
(7.33303 0.00071118 0)
(7.33334 0.00210808 0)
(7.33402 0.00340794 0)
(7.33499 0.00456136 0)
(7.33617 0.00554756 0)
(7.33751 0.00636303 0)
(7.33897 0.00701512 0)
(7.34052 0.00751951 0)
(7.34211 0.00789522 0)
(7.34374 0.00816123 0)
(7.34539 0.00833519 0)
(7.34704 0.00843273 0)
(7.34869 0.00846721 0)
(7.35035 0.00844979 0)
(7.352 0.0083897 0)
(7.35365 0.00829452 0)
(7.3553 0.00817035 0)
(7.35695 0.00802211 0)
(7.3586 0.00785355 0)
(7.36026 0.00766739 0)
(7.36193 0.00746529 0)
(7.36362 0.00724772 0)
(7.36533 0.00701385 0)
(7.36707 0.00676131 0)
(7.36884 0.00648598 0)
(7.37066 0.00618177 0)
(7.37252 0.00584046 0)
(7.37444 0.00545176 0)
(7.37641 0.00500354 0)
(7.37843 0.00448242 0)
(7.3805 0.0038746 0)
(7.38262 0.00316692 0)
(7.38476 0.00235094 0)
(7.33303 0.000622701 0)
(7.33332 0.0018437 0)
(7.33395 0.00297918 0)
(7.33485 0.00398931 0)
(7.33595 0.00485571 0)
(7.33721 0.00557387 0)
(7.3386 0.00614865 0)
(7.34007 0.00659196 0)
(7.3416 0.00691902 0)
(7.34317 0.00714556 0)
(7.34476 0.00728655 0)
(7.34637 0.00735546 0)
(7.34799 0.00736397 0)
(7.34961 0.00732191 0)
(7.35123 0.00723746 0)
(7.35285 0.00711728 0)
(7.35448 0.00696668 0)
(7.35611 0.00678978 0)
(7.35774 0.0065896 0)
(7.35938 0.00636812 0)
(7.36103 0.00612621 0)
(7.3627 0.00586363 0)
(7.36439 0.0055789 0)
(7.3661 0.00526913 0)
(7.36784 0.00492999 0)
(7.36962 0.00455552 0)
(7.37144 0.0041382 0)
(7.37329 0.00366906 0)
(7.37519 0.003138 0)
(7.37712 0.00253432 0)
(7.37909 0.00184743 0)
(7.38109 0.0010675 0)
(7.3831 0.000189012 0)
(7.33302 0.000537566 0)
(7.3333 0.00159051 0)
(7.33389 0.00256884 0)
(7.33472 0.00343994 0)
(7.33576 0.00418776 0)
(7.33695 0.0048073 0)
(7.33826 0.00530153 0)
(7.33966 0.00567942 0)
(7.34113 0.00595304 0)
(7.34264 0.00613531 0)
(7.34419 0.0062388 0)
(7.34576 0.00627494 0)
(7.34733 0.0062538 0)
(7.34892 0.00618389 0)
(7.35051 0.00607231 0)
(7.35211 0.00592476 0)
(7.35371 0.00574575 0)
(7.35532 0.00553865 0)
(7.35692 0.00530577 0)
(7.35854 0.0050484 0)
(7.36017 0.00476679 0)
(7.36181 0.00446014 0)
(7.36347 0.00412652 0)
(7.36515 0.00376281 0)
(7.36686 0.00336465 0)
(7.36859 0.00292649 0)
(7.37035 0.0024416 0)
(7.37214 0.00190231 0)
(7.37396 0.00130031 0)
(7.3758 0.000627123 0)
(7.37766 -0.00012536 0)
(7.37954 -0.000964481 0)
(7.38143 -0.00189367 0)
(7.33302 0.000455608 0)
(7.33328 0.00134731 0)
(7.33383 0.0021746 0)
(7.33461 0.00291041 0)
(7.33558 0.00354083 0)
(7.33671 0.00406076 0)
(7.33796 0.00447179 0)
(7.3393 0.00478062 0)
(7.34071 0.00499671 0)
(7.34217 0.00513056 0)
(7.34367 0.00519256 0)
(7.34519 0.0051923 0)
(7.34674 0.00513826 0)
(7.34829 0.00503769 0)
(7.34985 0.00489658 0)
(7.35142 0.00471971 0)
(7.35299 0.00451078 0)
(7.35457 0.00427242 0)
(7.35615 0.00400629 0)
(7.35774 0.00371309 0)
(7.35934 0.00339255 0)
(7.36095 0.00304346 0)
(7.36258 0.00266362 0)
(7.36422 0.00224984 0)
(7.36588 0.00179794 0)
(7.36756 0.00130284 0)
(7.36926 0.000758662 0)
(7.37098 0.000158944 0)
(7.37272 -0.00050308 0)
(7.37447 -0.00123409 0)
(7.37623 -0.00204027 0)
(7.378 -0.00292709 0)
(7.37977 -0.00389652 0)
(7.33302 0.000376552 0)
(7.33326 0.00111293 0)
(7.33378 0.0017943 0)
(7.33452 0.00239797 0)
(7.33543 0.00291197 0)
(7.3365 0.00333134 0)
(7.33769 0.0036567 0)
(7.33898 0.00389305 0)
(7.34033 0.00404765 0)
(7.34175 0.00412902 0)
(7.3432 0.00414567 0)
(7.34468 0.00410545 0)
(7.34619 0.00401539 0)
(7.34771 0.00388148 0)
(7.34924 0.00370865 0)
(7.35078 0.00350079 0)
(7.35232 0.00326076 0)
(7.35387 0.00299053 0)
(7.35542 0.00269112 0)
(7.35698 0.00236274 0)
(7.35855 0.00200469 0)
(7.36013 0.00161546 0)
(7.36171 0.00119271 0)
(7.36331 0.000733293 0)
(7.36492 0.000233334 0)
(7.36654 -0.000311734 0)
(7.36818 -0.000906985 0)
(7.36982 -0.0015578 0)
(7.37148 -0.00226965 0)
(7.37314 -0.00304777 0)
(7.3748 -0.00389683 0)
(7.37646 -0.00482092 0)
(7.37811 -0.00582095 0)
(7.33302 0.000300073 0)
(7.33325 0.000886227 0)
(7.33373 0.00142602 0)
(7.33443 0.00190033 0)
(7.3353 0.00229896 0)
(7.33631 0.00261734 0)
(7.33745 0.00285546 0)
(7.33869 0.00301706 0)
(7.34 0.00310752 0)
(7.34136 0.00313362 0)
(7.34278 0.00310212 0)
(7.34422 0.00301935 0)
(7.34569 0.00289099 0)
(7.34718 0.00272185 0)
(7.34867 0.00251578 0)
(7.35018 0.00227579 0)
(7.35169 0.00200403 0)
(7.35321 0.00170177 0)
(7.35473 0.00136952 0)
(7.35626 0.00100702 0)
(7.35779 0.000613275 0)
(7.35933 0.00018656 0)
(7.36088 -0.000275504 0)
(7.36242 -0.000775939 0)
(7.36398 -0.00131829 0)
(7.36554 -0.00190658 0)
(7.36711 -0.00254514 0)
(7.36868 -0.00323842 0)
(7.37025 -0.00399081 0)
(7.37183 -0.00480638 0)
(7.37339 -0.00568867 0)
(7.37494 -0.00664069 0)
(7.37648 -0.00766261 0)
(7.33302 0.000225829 0)
(7.33324 0.000666059 0)
(7.33369 0.00106767 0)
(7.33435 0.00141441 0)
(7.33518 0.00169766 0)
(7.33615 0.00191338 0)
(7.33724 0.00206132 0)
(7.33843 0.00214428 0)
(7.3397 0.00216622 0)
(7.34102 0.00213304 0)
(7.3424 0.0020498 0)
(7.34381 0.00192131 0)
(7.34524 0.0017519 0)
(7.34669 0.00154543 0)
(7.34816 0.00130471 0)
(7.34963 0.00103183 0)
(7.35111 0.000728166 0)
(7.3526 0.000394426 0)
(7.35409 3.05799e-05 0)
(7.35558 -0.000364043 0)
(7.35708 -0.000790719 0)
(7.35857 -0.0012513 0)
(7.36007 -0.00174817 0)
(7.36157 -0.00228416 0)
(7.36307 -0.00286253 0)
(7.36457 -0.00348677 0)
(7.36607 -0.00416056 0)
(7.36756 -0.00488755 0)
(7.36905 -0.00567124 0)
(7.37053 -0.0065148 0)
(7.372 -0.00742087 0)
(7.37345 -0.00839166 0)
(7.37488 -0.00942679 0)
(7.33302 0.000153516 0)
(7.33322 0.000451662 0)
(7.33366 0.000718494 0)
(7.33429 0.000940378 0)
(7.33508 0.00111027 0)
(7.33601 0.00122485 0)
(7.33706 0.00128365 0)
(7.33821 0.00128958 0)
(7.33943 0.00124298 0)
(7.34072 0.0011496 0)
(7.34206 0.00101355 0)
(7.34343 0.000838313 0)
(7.34483 0.000627102 0)
(7.34626 0.000382296 0)
(7.34769 0.00010603 0)
(7.34913 -0.000200311 0)
(7.35058 -0.000536039 0)
(7.35204 -0.000901015 0)
(7.35349 -0.0012957 0)
(7.35495 -0.00172108 0)
(7.3564 -0.00217864 0)
(7.35785 -0.0026703 0)
(7.3593 -0.00319838 0)
(7.36075 -0.00376553 0)
(7.36219 -0.00437467 0)
(7.36362 -0.00502883 0)
(7.36505 -0.0057311 0)
(7.36647 -0.0064845 0)
(7.36788 -0.0072918 0)
(7.36927 -0.00815545 0)
(7.37064 -0.0090774 0)
(7.37199 -0.0100593 0)
(7.37332 -0.0111003 0)
(7.33302 8.27336e-05 0)
(7.33321 0.000241176 0)
(7.33363 0.000373718 0)
(7.33423 0.000468552 0)
(7.33499 0.000520258 0)
(7.33588 0.000526627 0)
(7.3369 0.000488103 0)
(7.33801 0.000405368 0)
(7.3392 0.000284829 0)
(7.34046 0.000126658 0)
(7.34176 -6.64899e-05 0)
(7.34311 -0.000291752 0)
(7.34448 -0.000546992 0)
(7.34587 -0.000830948 0)
(7.34727 -0.00114246 0)
(7.34868 -0.00148103 0)
(7.3501 -0.00184668 0)
(7.35152 -0.00223995 0)
(7.35294 -0.00266174 0)
(7.35436 -0.0031134 0)
(7.35577 -0.00359661 0)
(7.35717 -0.0041134 0)
(7.35857 -0.00466605 0)
(7.35996 -0.00525705 0)
(7.36134 -0.00588901 0)
(7.36272 -0.00656459 0)
(7.36407 -0.0072864 0)
(7.36542 -0.00805691 0)
(7.36674 -0.00887832 0)
(7.36804 -0.00975251 0)
(7.36933 -0.0106809 0)
(7.37058 -0.0116647 0)
(7.37181 -0.0127028 0)
(7.33302 1.36138e-05 0)
(7.3332 3.71579e-05 0)
(7.3336 4.24156e-05 0)
(7.33417 1.95798e-05 0)
(7.3349 -3.57671e-05 0)
(7.33577 -0.000125757 0)
(7.33675 -0.000250522 0)
(7.33784 -0.000410312 0)
(7.339 -0.000599605 0)
(7.34023 -0.000819204 0)
(7.34151 -0.00106739 0)
(7.34282 -0.00134218 0)
(7.34417 -0.00164238 0)
(7.34553 -0.00196705 0)
(7.3469 -0.00231592 0)
(7.34829 -0.00268912 0)
(7.34967 -0.00308714 0)
(7.35106 -0.00351087 0)
(7.35244 -0.00396152 0)
(7.35382 -0.00444063 0)
(7.35519 -0.00495001 0)
(7.35655 -0.00549169 0)
(7.3579 -0.00606787 0)
(7.35923 -0.00668086 0)
(7.36055 -0.00733301 0)
(7.36186 -0.00802664 0)
(7.36315 -0.00876397 0)
(7.36441 -0.00954702 0)
(7.36566 -0.0103776 0)
(7.36688 -0.0112571 0)
(7.36807 -0.0121866 0)
(7.36923 -0.0131669 0)
(7.37036 -0.0141969 0)
(7.33302 -5.54748e-05 0)
(7.3332 -0.000172112 0)
(7.33358 -0.000308576 0)
(7.33414 -0.000472472 0)
(7.33485 -0.000663681 0)
(7.33569 -0.000879581 0)
(7.33665 -0.00111745 0)
(7.33771 -0.00137386 0)
(7.33884 -0.00164994 0)
(7.34004 -0.00194286 0)
(7.3413 -0.00225199 0)
(7.34258 -0.00257754 0)
(7.3439 -0.00292001 0)
(7.34524 -0.00328011 0)
(7.34658 -0.00365888 0)
(7.34794 -0.00405754 0)
(7.34929 -0.00447752 0)
(7.35064 -0.00492041 0)
(7.35199 -0.00538801 0)
(7.35333 -0.00588224 0)
(7.35465 -0.00640515 0)
(7.35597 -0.00695886 0)
(7.35726 -0.00754557 0)
(7.35854 -0.00816745 0)
(7.35981 -0.00882665 0)
(7.36105 -0.00952522 0)
(7.36227 -0.010265 0)
(7.36346 -0.0110478 0)
(7.36463 -0.0118748 0)
(7.36576 -0.0127473 0)
(7.36687 -0.0136659 0)
(7.36794 -0.0146312 0)
(7.36897 -0.015642 0)
(7.33301 -0.000119263 0)
(7.33318 -0.000350836 0)
(7.33353 -0.000586211 0)
(7.33406 -0.000836148 0)
(7.33475 -0.00110503 0)
(7.33557 -0.0013941 0)
(7.33651 -0.00170274 0)
(7.33756 -0.00202915 0)
(7.33868 -0.0023717 0)
(7.33987 -0.00272828 0)
(7.34111 -0.00309815 0)
(7.34239 -0.0034811 0)
(7.34369 -0.00387731 0)
(7.34501 -0.00428736 0)
(7.34633 -0.00471228 0)
(7.34766 -0.0051534 0)
(7.34899 -0.00561227 0)
(7.35031 -0.00609068 0)
(7.35162 -0.00659054 0)
(7.35292 -0.00711391 0)
(7.3542 -0.0076629 0)
(7.35547 -0.00823967 0)
(7.35672 -0.00884635 0)
(7.35794 -0.00948506 0)
(7.35915 -0.0101578 0)
(7.36032 -0.0108664 0)
(7.36147 -0.0116126 0)
(7.3626 -0.0123978 0)
(7.36369 -0.0132232 0)
(7.36474 -0.0140898 0)
(7.36576 -0.014998 0)
(7.36675 -0.0159484 0)
(7.36769 -0.0169396 0)
(7.33302 -0.000196987 0)
(7.3332 -0.00061049 0)
(7.33357 -0.00105415 0)
(7.33409 -0.0015211 0)
(7.33476 -0.00199508 0)
(7.33557 -0.00246368 0)
(7.33649 -0.00292089 0)
(7.3375 -0.00336496 0)
(7.3386 -0.00379723 0)
(7.33977 -0.00422027 0)
(7.34098 -0.00463746 0)
(7.34223 -0.00505246 0)
(7.34351 -0.00546895 0)
(7.3448 -0.00589043 0)
(7.3461 -0.00632021 0)
(7.3474 -0.0067614 0)
(7.3487 -0.00721689 0)
(7.34999 -0.00768942 0)
(7.35127 -0.00818157 0)
(7.35253 -0.00869579 0)
(7.35377 -0.00923441 0)
(7.355 -0.00979967 0)
(7.35619 -0.0103936 0)
(7.35737 -0.0110183 0)
(7.35852 -0.0116754 0)
(7.35963 -0.0123665 0)
(7.36072 -0.0130932 0)
(7.36177 -0.0138564 0)
(7.36279 -0.0146571 0)
(7.36377 -0.015496 0)
(7.36472 -0.0163733 0)
(7.36562 -0.0172894 0)
(7.36648 -0.0182428 0)
(7.333 -0.000220868 0)
(7.3331 -0.000620877 0)
(7.33339 -0.0010115 0)
(7.33388 -0.00142771 0)
(7.33454 -0.00187941 0)
(7.33536 -0.00236205 0)
(7.33631 -0.00286604 0)
(7.33736 -0.00338178 0)
(7.33848 -0.00390217 0)
(7.33967 -0.0044226 0)
(7.3409 -0.00494074 0)
(7.34216 -0.00545607 0)
(7.34344 -0.00596934 0)
(7.34473 -0.00648214 0)
(7.34602 -0.00699664 0)
(7.3473 -0.00751535 0)
(7.34858 -0.00804095 0)
(7.34984 -0.0085762 0)
(7.35109 -0.00912386 0)
(7.35231 -0.00968664 0)
(7.35351 -0.0102671 0)
(7.35469 -0.0108678 0)
(7.35584 -0.011491 0)
(7.35696 -0.0121389 0)
(7.35805 -0.0128134 0)
(7.3591 -0.0135162 0)
(7.36012 -0.0142488 0)
(7.36111 -0.0150125 0)
(7.36205 -0.0158082 0)
(7.36296 -0.0166365 0)
(7.36382 -0.017498 0)
(7.36465 -0.0183928 0)
(7.36543 -0.01932 0)
(7.33305 -0.000401548 0)
(7.3333 -0.00127252 0)
(7.33366 -0.00219536 0)
(7.33414 -0.00310187 0)
(7.33475 -0.00394143 0)
(7.3355 -0.00469806 0)
(7.33637 -0.00537531 0)
(7.33736 -0.00598377 0)
(7.33843 -0.00653611 0)
(7.33957 -0.00704495 0)
(7.34077 -0.00752188 0)
(7.342 -0.00797704 0)
(7.34325 -0.00841903 0)
(7.34452 -0.00885501 0)
(7.34579 -0.00929097 0)
(7.34705 -0.00973189 0)
(7.34831 -0.010182 0)
(7.34955 -0.0106448 0)
(7.35077 -0.0111234 0)
(7.35197 -0.0116205 0)
(7.35314 -0.0121385 0)
(7.35428 -0.0126794 0)
(7.35539 -0.013245 0)
(7.35647 -0.0138371 0)
(7.35751 -0.0144568 0)
(7.35852 -0.0151055 0)
(7.35949 -0.0157841 0)
(7.36041 -0.0164933 0)
(7.3613 -0.0172337 0)
(7.36214 -0.0180056 0)
(7.36294 -0.018809 0)
(7.36369 -0.019644 0)
(7.36439 -0.0205092 0)
(7.33293 -0.000136486 0)
(7.33282 -0.000325233 0)
(7.33298 -0.000576807 0)
(7.33345 -0.00101547 0)
(7.33418 -0.00162912 0)
(7.33509 -0.00235607 0)
(7.33613 -0.00314049 0)
(7.33726 -0.00394372 0)
(7.33845 -0.00474139 0)
(7.33969 -0.00551916 0)
(7.34095 -0.00626991 0)
(7.34222 -0.00699154 0)
(7.3435 -0.00768513 0)
(7.34478 -0.00835368 0)
(7.34604 -0.00900123 0)
(7.34729 -0.0096323 0)
(7.34852 -0.0102516 0)
(7.34972 -0.0108635 0)
(7.35091 -0.0114726 0)
(7.35206 -0.0120827 0)
(7.35318 -0.0126977 0)
(7.35427 -0.0133208 0)
(7.35533 -0.0139551 0)
(7.35634 -0.0146033 0)
(7.35732 -0.0152677 0)
(7.35827 -0.0159504 0)
(7.35917 -0.016653 0)
(7.36002 -0.0173769 0)
(7.36084 -0.0181232 0)
(7.3616 -0.0188927 0)
(7.36233 -0.019686 0)
(7.363 -0.0205034 0)
(7.36363 -0.0213441 0)
(7.33316 -0.000850406 0)
(7.33362 -0.00283776 0)
(7.33393 -0.00478486 0)
(7.3342 -0.00642288 0)
(7.33461 -0.00771126 0)
(7.33522 -0.00871358 0)
(7.33602 -0.00949948 0)
(7.33697 -0.0101263 0)
(7.33803 -0.0106403 0)
(7.33918 -0.0110773 0)
(7.34039 -0.0114646 0)
(7.34164 -0.0118223 0)
(7.34291 -0.0121651 0)
(7.34419 -0.0125035 0)
(7.34547 -0.0128454 0)
(7.34673 -0.0131963 0)
(7.34797 -0.0135603 0)
(7.34919 -0.0139405 0)
(7.35038 -0.0143392 0)
(7.35153 -0.0147583 0)
(7.35265 -0.0151992 0)
(7.35374 -0.0156631 0)
(7.35478 -0.0161509 0)
(7.35578 -0.0166634 0)
(7.35674 -0.0172011 0)
(7.35765 -0.0177646 0)
(7.35852 -0.0183542 0)
(7.35934 -0.0189701 0)
(7.36011 -0.0196122 0)
(7.36084 -0.0202806 0)
(7.36151 -0.020975 0)
(7.36214 -0.0216952 0)
(7.36271 -0.0224401 0)
(7.33266 0.000543486 0)
(7.33187 0.00182357 0)
(7.33191 0.00249547 0)
(7.33264 0.00222151 0)
(7.33371 0.00129463 0)
(7.33492 4.35601e-05 0)
(7.3362 -0.00133138 0)
(7.33752 -0.0027243 0)
(7.33884 -0.00407587 0)
(7.34015 -0.00535389 0)
(7.34146 -0.00654525 0)
(7.34275 -0.00764856 0)
(7.34402 -0.00866872 0)
(7.34526 -0.00961384 0)
(7.34648 -0.0104934 0)
(7.34768 -0.0113172 0)
(7.34885 -0.0120945 0)
(7.34998 -0.0128343 0)
(7.35109 -0.0135443 0)
(7.35216 -0.0142316 0)
(7.35319 -0.0149025 0)
(7.35419 -0.0155625 0)
(7.35515 -0.0162163 0)
(7.35607 -0.016868 0)
(7.35695 -0.0175211 0)
(7.35778 -0.0181786 0)
(7.35857 -0.0188431 0)
(7.35931 -0.0195166 0)
(7.36001 -0.0202007 0)
(7.36065 -0.0208969 0)
(7.36125 -0.0216059 0)
(7.3618 -0.0223286 0)
(7.36231 -0.0230646 0)
(7.33353 -0.00200398 0)
(7.33444 -0.00678983 0)
(7.33405 -0.0112535 0)
(7.33334 -0.0140458 0)
(7.33312 -0.0156371 0)
(7.33346 -0.0165359 0)
(7.33418 -0.0170008 0)
(7.33515 -0.0172026 0)
(7.33631 -0.0172593 0)
(7.33759 -0.0172468 0)
(7.33893 -0.0172127 0)
(7.34032 -0.0171857 0)
(7.34171 -0.0171825 0)
(7.34309 -0.017212 0)
(7.34446 -0.0172787 0)
(7.3458 -0.0173841 0)
(7.3471 -0.0175281 0)
(7.34837 -0.0177095 0)
(7.34959 -0.0179271 0)
(7.35077 -0.0181792 0)
(7.3519 -0.0184642 0)
(7.35298 -0.0187807 0)
(7.35402 -0.0191273 0)
(7.355 -0.0195029 0)
(7.35594 -0.0199062 0)
(7.35682 -0.0203363 0)
(7.35766 -0.0207923 0)
(7.35844 -0.0212733 0)
(7.35917 -0.0217786 0)
(7.35984 -0.0223075 0)
(7.36046 -0.0228591 0)
(7.36103 -0.023433 0)
(7.36155 -0.0240279 0)
(7.33179 0.00340774 0)
(7.32899 0.00924878 0)
(7.32947 0.0119082 0)
(7.33184 0.011649 0)
(7.33397 0.00959215 0)
(7.33576 0.00693151 0)
(7.33738 0.00416903 0)
(7.33885 0.0014946 0)
(7.34021 -0.00099039 0)
(7.34149 -0.00324368 0)
(7.34272 -0.00526227 0)
(7.34391 -0.00706119 0)
(7.34507 -0.00866259 0)
(7.34622 -0.010091 0)
(7.34734 -0.0113706 0)
(7.34845 -0.0125237 0)
(7.34955 -0.0135703 0)
(7.35062 -0.0145281 0)
(7.35168 -0.0154121 0)
(7.35271 -0.0162355 0)
(7.35372 -0.0170093 0)
(7.3547 -0.0177431 0)
(7.35565 -0.018445 0)
(7.35656 -0.0191216 0)
(7.35744 -0.0197789 0)
(7.35829 -0.0204217 0)
(7.35909 -0.021054 0)
(7.35984 -0.0216793 0)
(7.36056 -0.0223003 0)
(7.36122 -0.0229193 0)
(7.36184 -0.0235383 0)
(7.36241 -0.0241583 0)
(7.36293 -0.0247803 0)
(7.33408 -0.00611407 0)
(7.33406 -0.0189186 0)
(7.33032 -0.0269305 0)
(7.32666 -0.030413 0)
(7.3251 -0.0311626 0)
(7.32535 -0.0307052 0)
(7.32645 -0.0297129 0)
(7.32799 -0.0285113 0)
(7.3298 -0.0272973 0)
(7.33178 -0.026174 0)
(7.33383 -0.0251852 0)
(7.3359 -0.0243451 0)
(7.33797 -0.0236525 0)
(7.34001 -0.0230981 0)
(7.342 -0.0226691 0)
(7.34396 -0.0223519 0)
(7.34585 -0.0221332 0)
(7.34769 -0.0220008 0)
(7.34947 -0.0219439 0)
(7.35118 -0.0219529 0)
(7.35284 -0.0220197 0)
(7.35443 -0.0221374 0)
(7.35595 -0.0223 0)
(7.35741 -0.0225026 0)
(7.3588 -0.0227409 0)
(7.36012 -0.0230114 0)
(7.36138 -0.0233112 0)
(7.36257 -0.0236375 0)
(7.36369 -0.0239882 0)
(7.36474 -0.0243616 0)
(7.36573 -0.0247559 0)
(7.36666 -0.0251699 0)
(7.36752 -0.0256021 0)
(7.32967 0.0198646 0)
(7.32498 0.0370194 0)
(7.32933 0.0377124 0)
(7.33514 0.0323185 0)
(7.33883 0.0259134 0)
(7.34107 0.0196201 0)
(7.34293 0.0137439 0)
(7.34473 0.00848469 0)
(7.34654 0.00388793 0)
(7.34843 -9.28619e-05 0)
(7.35041 -0.00352696 0)
(7.35249 -0.00648587 0)
(7.35465 -0.00903844 0)
(7.35686 -0.0112471 0)
(7.35912 -0.0131661 0)
(7.36139 -0.0148419 0)
(7.36366 -0.0163137 0)
(7.36591 -0.0176145 0)
(7.36814 -0.0187721 0)
(7.37033 -0.0198096 0)
(7.37248 -0.0207465 0)
(7.37456 -0.0215989 0)
(7.37659 -0.0223805 0)
(7.37854 -0.0231028 0)
(7.38042 -0.0237753 0)
(7.38223 -0.0244063 0)
(7.38396 -0.0250025 0)
(7.38561 -0.0255698 0)
(7.38718 -0.0261133 0)
(7.38866 -0.0266371 0)
(7.39007 -0.0271449 0)
(7.39138 -0.0276394 0)
(7.39261 -0.0281245 0)
(7.32507 -0.0330733 0)
(7.29738 -0.0587449 0)
(7.2781 -0.061658 0)
(7.27379 -0.0592654 0)
(7.2804 -0.0557413 0)
(7.29184 -0.0516801 0)
(7.30511 -0.0477238 0)
(7.31885 -0.0442017 0)
(7.33231 -0.0411623 0)
(7.34509 -0.0385873 0)
(7.35701 -0.0364389 0)
(7.36802 -0.0346652 0)
(7.37813 -0.0332123 0)
(7.38738 -0.0320307 0)
(7.39582 -0.0310768 0)
(7.40351 -0.0303136 0)
(7.41051 -0.0297094 0)
(7.41688 -0.0292381 0)
(7.42267 -0.028878 0)
(7.42792 -0.0286112 0)
(7.43269 -0.0284229 0)
(7.437 -0.0283011 0)
(7.4409 -0.0282358 0)
(7.44441 -0.0282187 0)
(7.44756 -0.0282429 0)
(7.45039 -0.0283028 0)
(7.45292 -0.0283936 0)
(7.45516 -0.0285113 0)
(7.45714 -0.0286526 0)
(7.45887 -0.0288144 0)
(7.46038 -0.0289941 0)
(7.46167 -0.0291894 0)
(7.46278 -0.0293972 0)
(7.33915 0.134727 0)
(7.37621 0.127078 0)
(7.39344 0.0872187 0)