/*--------------------------------*- C++ -*----------------------------------*\
  =========                 |
  \\      /  F ield         | OpenFOAM: The Open Source CFD Toolbox
   \\    /   O peration     | Website:  https://openfoam.org
    \\  /    A nd           | Version:  10
     \\/     M anipulation  |
\*---------------------------------------------------------------------------*/
FoamFile
{
    format      ascii;
    class       volScalarField;
    location    "0.11";
    object      nut;
}
// * * * * * * * * * * * * * * * * * * * * * * * * * * * * * * * * * * * * * //

dimensions      [0 2 -1 0 0 0 0];

internalField   nonuniform List<scalar> 
6820
(
0.000503209
0.000397086
0.000324537
0.000269403
0.000236536
0.00021414
0.000197503
0.000184755
0.000174436
0.000165752
0.000158255
0.000151655
0.000145755
0.000140421
0.000135552
0.000131075
0.000126934
0.000123085
0.000119495
0.000116137
0.000112991
0.000110039
0.000107267
0.000104672
0.000102242
9.99709e-05
9.78558e-05
9.59023e-05
9.40898e-05
9.24848e-05
9.09512e-05
8.98056e-05
8.77527e-05
8.18477e-05
0.000143717
0.000196409
0.000210832
0.000206414
0.000197559
0.000187297
0.000177385
0.000168411
0.000160359
0.000153128
0.000146599
0.000140665
0.000135237
0.000130244
0.000125625
0.000121333
0.000117325
0.000113568
0.000110033
0.000106694
0.000103533
0.000100529
9.76652e-05
9.49333e-05
9.23203e-05
8.98175e-05
8.74138e-05
8.51168e-05
8.2886e-05
8.08192e-05
7.86805e-05
7.7344e-05
3.85925e-05
2.74019e-05
4.30357e-05
7.44482e-05
9.58636e-05
0.000109243
0.000116515
0.000119842
0.0001208
0.000120289
0.000118866
0.000116882
0.000114556
0.000112033
0.000109405
0.000106733
0.000104058
0.000101406
9.8796e-05
9.62381e-05
9.37393e-05
9.13029e-05
8.89318e-05
8.66233e-05
8.43767e-05
8.21909e-05
8.00622e-05
7.7987e-05
7.59607e-05
7.39798e-05
7.20395e-05
7.01136e-05
6.82148e-05
1.99686e-05
2.35362e-05
2.20818e-05
1.28061e-05
2.93881e-06
1.24221e-05
2.29635e-05
3.16539e-05
3.86748e-05
4.42771e-05
4.86993e-05
5.2153e-05
5.48087e-05
5.68024e-05
5.82522e-05
5.92539e-05
5.98864e-05
6.0214e-05
6.02897e-05
6.01569e-05
5.98511e-05
5.94015e-05
5.88317e-05
5.81615e-05
5.74061e-05
5.65782e-05
5.56877e-05
5.47424e-05
5.37473e-05
5.27006e-05
5.1602e-05
5.04517e-05
4.92753e-05
1.3244e-05
1.50939e-05
1.99414e-05
2.20328e-05
2.14787e-05
1.9532e-05
1.68985e-05
1.39424e-05
1.08775e-05
7.83124e-06
4.88844e-06
2.1356e-06
8.85678e-07
3.09517e-06
5.28504e-06
7.28536e-06
9.08903e-06
1.07017e-05
1.21328e-05
1.3393e-05
1.44934e-05
1.54448e-05
1.62576e-05
1.6941e-05
1.75032e-05
1.79516e-05
1.82924e-05
1.85304e-05
1.867e-05
1.8717e-05
1.86701e-05
1.85393e-05
1.82984e-05
1.0189e-05
1.10362e-05
1.18647e-05
1.2662e-05
1.32939e-05
1.38355e-05
1.42327e-05
1.44505e-05
1.45005e-05
1.44031e-05
1.4179e-05
1.38499e-05
1.34357e-05
1.29506e-05
1.2413e-05
1.18386e-05
1.12412e-05
1.06328e-05
1.00232e-05
9.42083e-06
8.83275e-06
8.26473e-06
7.72157e-06
7.20753e-06
6.72627e-06
6.28112e-06
5.87476e-06
5.51044e-06
5.18877e-06
4.9118e-06
4.67659e-06
4.49117e-06
4.35463e-06
7.53144e-06
8.26903e-06
8.70103e-06
8.93607e-06
8.83145e-06
8.62716e-06
8.46781e-06
8.38523e-06
8.37314e-06
8.40712e-06
8.46026e-06
8.51386e-06
8.55876e-06
8.5924e-06
8.61131e-06
8.61395e-06
8.60036e-06
8.57137e-06
8.52832e-06
8.47281e-06
8.40665e-06
8.33173e-06
8.24997e-06
8.16341e-06
8.07398e-06
7.98369e-06
7.89431e-06
7.80796e-06
7.7262e-06
7.65477e-06
7.59692e-06
7.55993e-06
7.5525e-06
5.74648e-06
6.63117e-06
7.03881e-06
7.15259e-06
6.90059e-06
6.53933e-06
6.21083e-06
5.94004e-06
5.72562e-06
5.55846e-06
5.42664e-06
5.32064e-06
5.23348e-06
5.1601e-06
5.09731e-06
5.04286e-06
4.99497e-06
4.9522e-06
4.91348e-06
4.8781e-06
4.84562e-06
4.81588e-06
4.78886e-06
4.76477e-06
4.74393e-06
4.72692e-06
4.71436e-06
4.70791e-06
4.70917e-06
4.72095e-06
4.74391e-06
4.78288e-06
4.8474e-06
4.46974e-06
5.26831e-06
5.57922e-06
5.73646e-06
5.65546e-06
5.4481e-06
5.20606e-06
4.96416e-06
4.74193e-06
4.54735e-06
4.37882e-06
4.23212e-06
4.10343e-06
3.98966e-06
3.88836e-06
3.79762e-06
3.71601e-06
3.64254e-06
3.57655e-06
3.51761e-06
3.46546e-06
3.42002e-06
3.3813e-06
3.34945e-06
3.32477e-06
3.30766e-06
3.29866e-06
3.29858e-06
3.30777e-06
3.32775e-06
3.36033e-06
3.40767e-06
3.47991e-06
3.53787e-06
4.25766e-06
4.55578e-06
4.72489e-06
4.69307e-06
4.53363e-06
4.33553e-06
4.13821e-06
3.95849e-06
3.80111e-06
3.66364e-06
3.54234e-06
3.43428e-06
3.33722e-06
3.24951e-06
3.17003e-06
3.09802e-06
3.03298e-06
2.97455e-06
2.92249e-06
2.87669e-06
2.83715e-06
2.80395e-06
2.77727e-06
2.75736e-06
2.74456e-06
2.73926e-06
2.742e-06
2.75351e-06
2.77475e-06
2.80698e-06
2.84989e-06
2.91332e-06
2.84462e-06
3.47876e-06
3.76015e-06
3.91896e-06
3.92409e-06
3.82248e-06
3.6795e-06
3.52611e-06
3.37717e-06
3.24008e-06
3.11655e-06
3.00601e-06
2.90734e-06
2.81931e-06
2.74073e-06
2.67062e-06
2.60818e-06
2.55275e-06
2.50387e-06
2.46122e-06
2.42457e-06
2.39384e-06
2.36902e-06
2.35014e-06
2.33733e-06
2.33078e-06
2.33073e-06
2.33752e-06
2.35149e-06
2.37296e-06
2.40285e-06
2.43955e-06
2.4926e-06
2.3153e-06
2.86925e-06
3.14962e-06
3.31453e-06
3.35305e-06
3.29106e-06
3.17918e-06
3.04877e-06
2.91737e-06
2.7944e-06
2.68295e-06
2.58312e-06
2.49413e-06
2.41493e-06
2.34446e-06
2.28184e-06
2.22637e-06
2.1775e-06
2.13481e-06
2.09802e-06
2.06688e-06
2.04126e-06
2.02106e-06
2.00622e-06
1.99675e-06
1.99269e-06
1.99408e-06
2.00101e-06
2.01362e-06
2.03185e-06
2.05638e-06
2.08478e-06
2.1261e-06
1.90129e-06
2.38712e-06
2.66955e-06
2.83892e-06
2.89848e-06
2.86729e-06
2.78588e-06
2.68265e-06
2.57366e-06
2.46775e-06
2.36878e-06
2.27803e-06
2.19579e-06
2.12184e-06
2.05573e-06
1.99695e-06
1.94502e-06
1.8995e-06
1.86e-06
1.82618e-06
1.79779e-06
1.77457e-06
1.75636e-06
1.74299e-06
1.73433e-06
1.73025e-06
1.73067e-06
1.73547e-06
1.74456e-06
1.7576e-06
1.77501e-06
1.79395e-06
1.82299e-06
1.56985e-06
2.00045e-06
2.28604e-06
2.46359e-06
2.54274e-06
2.53864e-06
2.48265e-06
2.40004e-06
2.30667e-06
2.21217e-06
2.12168e-06
2.03757e-06
1.96078e-06
1.89149e-06
1.82945e-06
1.77428e-06
1.72553e-06
1.68278e-06
1.64565e-06
1.61379e-06
1.58688e-06
1.56466e-06
1.54687e-06
1.53328e-06
1.52367e-06
1.5178e-06
1.51546e-06
1.5164e-06
1.52039e-06
1.52692e-06
1.5363e-06
1.5456e-06
1.56299e-06
1.29857e-06
1.68698e-06
1.97604e-06
2.16287e-06
2.2577e-06
2.27459e-06
2.23926e-06
2.17475e-06
2.09648e-06
2.01404e-06
1.93289e-06
1.85586e-06
1.78435e-06
1.71892e-06
1.65968e-06
1.60648e-06
1.55908e-06
1.51718e-06
1.48046e-06
1.44861e-06
1.4213e-06
1.39823e-06
1.3791e-06
1.36362e-06
1.35148e-06
1.34238e-06
1.33601e-06
1.33202e-06
1.33011e-06
1.32967e-06
1.33096e-06
1.3311e-06
1.3378e-06
1.07187e-06
1.43023e-06
1.72289e-06
1.91953e-06
2.02843e-06
2.06359e-06
2.0466e-06
1.99803e-06
1.93251e-06
1.85965e-06
1.78535e-06
1.71312e-06
1.6449e-06
1.58169e-06
1.52388e-06
1.47154e-06
1.42452e-06
1.38259e-06
1.34543e-06
1.31272e-06
1.28415e-06
1.25935e-06
1.238e-06
1.21975e-06
1.20425e-06
1.19114e-06
1.18006e-06
1.17061e-06
1.16245e-06
1.15496e-06
1.14839e-06
1.14004e-06
1.13717e-06
8.78721e-07
1.21827e-06
1.51507e-06
1.72145e-06
1.84288e-06
1.89335e-06
1.89173e-06
1.85661e-06
1.80207e-06
1.73771e-06
1.66974e-06
1.60203e-06
1.53686e-06
1.47549e-06
1.41858e-06
1.36632e-06
1.31872e-06
1.27562e-06
1.2368e-06
1.20198e-06
1.17084e-06
1.14306e-06
1.11828e-06
1.09615e-06
1.0763e-06
1.05835e-06
1.04192e-06
1.0266e-06
1.01204e-06
9.97659e-07
9.83705e-07
9.67723e-07
9.56488e-07
7.11285e-07
1.0426e-06
1.3444e-06
1.56001e-06
1.69272e-06
1.75649e-06
1.76833e-06
1.74516e-06
1.70037e-06
1.64341e-06
1.58068e-06
1.51635e-06
1.45308e-06
1.39244e-06
1.33535e-06
1.28218e-06
1.23309e-06
1.18801e-06
1.14679e-06
1.10916e-06
1.07484e-06
1.0435e-06
1.01478e-06
9.8833e-07
9.63768e-07
9.40706e-07
9.18763e-07
8.97528e-07
8.76687e-07
8.55698e-07
8.34846e-07
8.11912e-07
7.93259e-07
5.64222e-07
8.97508e-07
1.20527e-06
1.4293e-06
1.57207e-06
1.64732e-06
1.67071e-06
1.65776e-06
1.6212e-06
1.57036e-06
1.51182e-06
1.45003e-06
1.38789e-06
1.32729e-06
1.26924e-06
1.21438e-06
1.16296e-06
1.11503e-06
1.07049e-06
1.02913e-06
9.90722e-07
9.54963e-07
9.21532e-07
8.90086e-07
8.60269e-07
8.31715e-07
8.04061e-07
7.76933e-07
7.50046e-07
7.22934e-07
6.95895e-07
6.67011e-07
6.42109e-07
4.34644e-07
7.79836e-07
1.09402e-06
1.32536e-06
1.47697e-06
1.56218e-06
1.59565e-06
1.59171e-06
1.56248e-06
1.51715e-06
1.46236e-06
1.40273e-06
1.34143e-06
1.28052e-06
1.22126e-06
1.16443e-06
1.11042e-06
1.05935e-06
1.01122e-06
9.65894e-07
9.23161e-07
8.82768e-07
8.44421e-07
8.07806e-07
7.72593e-07
7.3844e-07
7.05017e-07
6.7198e-07
6.39081e-07
6.05916e-07
5.72795e-07
5.38023e-07
5.07043e-07
3.23403e-07
6.88826e-07
1.00858e-06
1.24572e-06
1.40473e-06
1.49834e-06
1.54027e-06
1.54382e-06
1.5205e-06
1.4793e-06
1.4269e-06
1.36813e-06
1.30638e-06
1.24393e-06
1.18227e-06
1.12232e-06
1.06461e-06
1.0094e-06
9.5675e-07
9.06612e-07
8.58836e-07
8.13217e-07
7.69507e-07
7.27434e-07
6.86704e-07
6.47015e-07
6.08069e-07
5.69562e-07
5.3127e-07
4.92853e-07
4.54582e-07
4.15071e-07
3.79113e-07
2.39499e-07
6.25897e-07
9.48244e-07
1.1892e-06
1.35422e-06
1.45506e-06
1.50449e-06
1.51491e-06
1.49725e-06
1.46029e-06
1.4107e-06
1.35342e-06
1.29197e-06
1.2288e-06
1.16554e-06
1.10325e-06
1.04256e-06
9.83841e-07
9.27239e-07
8.72768e-07
8.20344e-07
7.69821e-07
7.21002e-07
6.7366e-07
6.27547e-07
5.82398e-07
5.37944e-07
4.93908e-07
4.50064e-07
4.06086e-07
3.62133e-07
3.16947e-07
2.7463e-07
2.07145e-07
5.93827e-07
9.13073e-07
1.15519e-06
1.32426e-06
1.43046e-06
1.48539e-06
1.50055e-06
1.48634e-06
1.45132e-06
1.40221e-06
1.34409e-06
1.28068e-06
1.21464e-06
1.1478e-06
1.08141e-06
1.01623e-06
9.52747e-07
8.91206e-07
8.31698e-07
7.74204e-07
7.18633e-07
6.64842e-07
6.1265e-07
5.61855e-07
5.12232e-07
4.63551e-07
4.15561e-07
3.68039e-07
3.20679e-07
2.73467e-07
2.25409e-07
1.79127e-07
2.45496e-07
5.95354e-07
9.04159e-07
1.14483e-06
1.31681e-06
1.42805e-06
1.48885e-06
1.50981e-06
1.50069e-06
1.46975e-06
1.42355e-06
1.36717e-06
1.30441e-06
1.23802e-06
1.16997e-06
1.10161e-06
1.03386e-06
9.67316e-07
9.02328e-07
8.39098e-07
7.77707e-07
7.18161e-07
6.60407e-07
6.04357e-07
5.49902e-07
4.96914e-07
4.45269e-07
3.94841e-07
3.4555e-07
2.97316e-07
2.50331e-07
2.04507e-07
1.61948e-07
3.34703e-07
6.30956e-07
9.2197e-07
1.15753e-06
1.32931e-06
1.44211e-06
1.50469e-06
1.52679e-06
1.51776e-06
1.48578e-06
1.43753e-06
1.37826e-06
1.31197e-06
1.24164e-06
1.16938e-06
1.0967e-06
1.02462e-06
9.53826e-07
8.84752e-07
8.17667e-07
7.52722e-07
6.89994e-07
6.29513e-07
5.71287e-07
5.15319e-07
4.61628e-07
4.1027e-07
3.61371e-07
3.15182e-07
2.7215e-07
2.33094e-07
1.994e-07
1.72949e-07
4.51911e-07
6.99475e-07
9.68998e-07
1.19864e-06
1.37167e-06
1.48935e-06
1.55855e-06
1.58776e-06
1.58544e-06
1.55918e-06
1.51533e-06
1.45907e-06
1.39443e-06
1.3245e-06
1.25161e-06
1.17747e-06
1.10333e-06
1.03007e-06
9.58329e-07
8.88556e-07
8.21072e-07
7.56112e-07
6.93868e-07
6.3451e-07
5.7822e-07
5.25211e-07
4.75761e-07
4.30235e-07
3.89132e-07
3.53094e-07
3.22932e-07
2.99599e-07
2.83271e-07
5.89285e-07
7.98618e-07
1.04392e-06
1.26238e-06
1.42921e-06
1.54204e-06
1.6064e-06
1.63049e-06
1.62288e-06
1.59136e-06
1.54251e-06
1.4816e-06
1.41275e-06
1.33908e-06
1.2629e-06
1.1859e-06
1.10931e-06
1.03403e-06
9.60694e-07
8.89799e-07
8.21715e-07
7.5675e-07
6.95179e-07
6.37269e-07
5.83303e-07
5.3359e-07
4.88483e-07
4.48377e-07
4.13709e-07
3.84921e-07
3.62395e-07
3.46569e-07
3.36467e-07
7.46788e-07
9.29114e-07
1.1553e-06
1.37022e-06
1.54334e-06
1.66771e-06
1.74562e-06
1.78292e-06
1.78664e-06
1.76379e-06
1.72073e-06
1.66293e-06
1.5949e-06
1.52024e-06
1.44173e-06
1.36154e-06
1.28127e-06
1.20212e-06
1.125e-06
1.05059e-06
9.79388e-07
9.11819e-07
8.48221e-07
7.88894e-07
7.34113e-07
6.84138e-07
6.39212e-07
5.99547e-07
5.65325e-07
5.36623e-07
5.13461e-07
4.95739e-07
4.82322e-07
9.28471e-07
1.09105e-06
1.29295e-06
1.48725e-06
1.64042e-06
1.74503e-06
1.80472e-06
1.82681e-06
1.81903e-06
1.78835e-06
1.74064e-06
1.6807e-06
1.61234e-06
1.53852e-06
1.46158e-06
1.38332e-06
1.30516e-06
1.22818e-06
1.15327e-06
1.08111e-06
1.01226e-06
9.47172e-07
8.86221e-07
8.29716e-07
7.77911e-07
7.31007e-07
6.89146e-07
6.52403e-07
6.20795e-07
5.94237e-07
5.72594e-07
5.55761e-07
5.42225e-07
1.1408e-06
1.29471e-06
1.49457e-06
1.70781e-06
1.89348e-06
2.03333e-06
2.12357e-06
2.16803e-06
2.1737e-06
2.14845e-06
2.09984e-06
2.03446e-06
1.95775e-06
1.87397e-06
1.78642e-06
1.69755e-06
1.60916e-06
1.52257e-06
1.43872e-06
1.35832e-06
1.28185e-06
1.20967e-06
1.14205e-06
1.07915e-06
1.02111e-06
9.67975e-07
9.1975e-07
8.76373e-07
8.37739e-07
8.03626e-07
7.73842e-07
7.4802e-07
7.24976e-07
1.39502e-06
1.53803e-06
1.69675e-06
1.85216e-06
1.9767e-06
2.0646e-06
2.11904e-06
2.14481e-06
2.14604e-06
2.12638e-06
2.08935e-06
2.03831e-06
1.97643e-06
1.90658e-06
1.83134e-06
1.75292e-06
1.67318e-06
1.59363e-06
1.51551e-06
1.43974e-06
1.36707e-06
1.298e-06
1.23292e-06
1.17207e-06
1.11556e-06
1.06345e-06
1.0157e-06
9.72217e-07
9.32883e-07
8.97508e-07
8.65944e-07
8.38076e-07
8.1229e-07
1.70357e-06
1.86623e-06
2.08631e-06
2.34856e-06
2.58093e-06
2.74541e-06
2.83877e-06
2.87206e-06
2.8588e-06
2.81166e-06
2.74131e-06
2.65592e-06
2.56142e-06
2.46198e-06
2.36051e-06
2.25898e-06
2.15879e-06
2.06088e-06
1.96595e-06
1.87449e-06
1.78684e-06
1.70327e-06
1.62394e-06
1.54892e-06
1.47826e-06
1.41191e-06
1.3498e-06
1.29181e-06
1.23782e-06
1.18757e-06
1.141e-06
1.0977e-06
1.05675e-06
2.09671e-06
2.2183e-06
2.27824e-06
2.34491e-06
2.4287e-06
2.52178e-06
2.61126e-06
2.68444e-06
2.73221e-06
2.75076e-06
2.74082e-06
2.70584e-06
2.65047e-06
2.57958e-06
2.49767e-06
2.40859e-06
2.31549e-06
2.22084e-06
2.12649e-06
2.03382e-06
1.94377e-06
1.85699e-06
1.77388e-06
1.69464e-06
1.61934e-06
1.54795e-06
1.48038e-06
1.4165e-06
1.35621e-06
1.29941e-06
1.2461e-06
1.19641e-06
1.14864e-06
2.59451e-06
2.8849e-06
3.28692e-06
3.6969e-06
3.96978e-06
4.092e-06
4.10925e-06
4.06154e-06
3.97474e-06
3.86557e-06
3.74385e-06
3.6148e-06
3.48134e-06
3.34537e-06
3.20837e-06
3.07165e-06
2.93645e-06
2.80389e-06
2.67496e-06
2.55046e-06
2.43099e-06
2.31693e-06
2.20853e-06
2.10581e-06
2.0087e-06
1.91701e-06
1.83047e-06
1.74876e-06
1.67163e-06
1.59875e-06
1.5301e-06
1.46555e-06
1.40437e-06
3.29416e-06
3.19211e-06
2.90792e-06
2.85583e-06
3.03811e-06
3.30894e-06
3.56049e-06
3.74373e-06
3.84762e-06
3.88312e-06
3.86951e-06
3.82567e-06
3.76668e-06
3.70314e-06
3.64152e-06
3.58506e-06
3.5348e-06
3.49044e-06
3.45103e-06
3.41539e-06
3.38237e-06
3.35095e-06
3.32028e-06
3.2897e-06
3.25869e-06
3.22683e-06
3.19384e-06
3.15947e-06
3.12368e-06
3.08654e-06
3.0485e-06
3.01095e-06
2.97218e-06
4.32491e-06
5.53248e-06
6.27604e-06
6.51552e-06
6.40991e-06
6.19167e-06
6.05094e-06
6.06991e-06
6.25309e-06
6.55971e-06
6.93502e-06
7.33137e-06
7.71456e-06
8.06292e-06
8.36467e-06
8.61507e-06
8.81391e-06
8.96374e-06
9.06859e-06
9.13316e-06
9.16235e-06
9.16086e-06
9.13304e-06
9.0828e-06
9.01353e-06
8.92806e-06
8.82877e-06
8.71737e-06
8.59552e-06
8.46382e-06
8.32433e-06
8.17767e-06
8.02719e-06
5.64733e-06
3.57815e-06
2.74011e-06
4.59778e-06
7.31928e-06
9.88845e-06
1.20686e-05
1.37955e-05
1.50827e-05
1.59728e-05
1.65143e-05
1.67568e-05
1.67496e-05
1.65389e-05
1.61664e-05
1.56692e-05
1.50793e-05
1.44238e-05
1.37251e-05
1.30014e-05
1.22672e-05
1.15336e-05
1.08092e-05
1.01e-05
9.41022e-06
8.7425e-06
8.09808e-06
7.47665e-06
6.87785e-06
6.29747e-06
5.73788e-06
5.18477e-06
4.65734e-06
1.14374e-05
1.64955e-05
1.82513e-05
1.97541e-05
2.0216e-05
1.94587e-05
1.7704e-05
1.52256e-05
1.23763e-05
9.68918e-06
8.04545e-06
8.39211e-06
1.04769e-05
1.33217e-05
1.63327e-05
1.92542e-05
2.19778e-05
2.44593e-05
2.66854e-05
2.86586e-05
3.03902e-05
3.18959e-05
3.31935e-05
3.43012e-05
3.52371e-05
3.60186e-05
3.66622e-05
3.71836e-05
3.75989e-05
3.79239e-05
3.81797e-05
3.83855e-05
3.85915e-05
2.48873e-05
2.86487e-05
3.89933e-05
5.3429e-05
6.76814e-05
8.15856e-05
9.44053e-05
0.000105535
0.000114931
0.000122671
0.000128865
0.000133669
0.000137255
0.000139788
0.000141423
0.000142298
0.000142537
0.000142247
0.000141521
0.000140437
0.000139064
0.000137457
0.000135663
0.000133723
0.000131669
0.000129527
0.00012732
0.000125063
0.000122774
0.000120455
0.000118125
0.000115787
0.000113662
0.000543322
0.000510563
0.000491566
0.000467843
0.000443784
0.000421412
0.000399889
0.000379285
0.000359868
0.00034166
0.000324644
0.000308806
0.000294101
0.000280466
0.000267829
0.000256116
0.000245249
0.000235156
0.000225765
0.00021701
0.000208831
0.000201172
0.000193983
0.000187217
0.000180835
0.000174799
0.000169074
0.000163633
0.000158429
0.000153467
0.000148579
0.000144331
0.000140413
7.67245e-05
6.75904e-05
6.0857e-05
5.93813e-05
6.08771e-05
6.36446e-05
6.67182e-05
6.99139e-05
7.34447e-05
7.74204e-05
8.16266e-05
8.52973e-05
8.63853e-05
7.87859e-05
5.80636e-05
4.32151e-05
4.14138e-05
4.21041e-05
4.24907e-05
4.21797e-05
4.09216e-05
3.84537e-05
3.4723e-05
2.99903e-05
2.45077e-05
1.8919e-05
1.33525e-05
7.44545e-06
9.48177e-06
5.73506e-06
1.5905e-05
1.45672e-05
1.06277e-05
3.0169e-05
3.68348e-05
3.36069e-05
2.83015e-05
2.42729e-05
2.1599e-05
1.97622e-05
1.84705e-05
1.76399e-05
1.72553e-05
1.74994e-05
1.83913e-05
1.90939e-05
2.19316e-05
3.03095e-05
3.91777e-05
5.0039e-05
5.72093e-05
5.34224e-05
4.32901e-05
3.24143e-05
2.29881e-05
1.49913e-05
7.9568e-06
3.81466e-06
1.65368e-05
3.33041e-05
4.44552e-05
4.48766e-05
3.78712e-05
2.99163e-05
2.41886e-05
2.03114e-05
1.73263e-05
1.48162e-05
1.26517e-05
1.0765e-05
9.10089e-06
7.61942e-06
6.29842e-06
5.12782e-06
4.10236e-06
3.21656e-06
2.463e-06
1.83296e-06
1.31764e-06
9.08839e-07
6.00232e-07
3.87496e-07
2.68046e-07
2.27931e-07
2.30555e-07
2.46713e-07
2.68591e-07
2.95874e-07
3.25942e-07
3.52505e-07
3.68588e-07
3.68864e-07
3.5197e-07
3.1892e-07
2.75636e-07
2.24763e-07
1.75635e-07
1.25454e-07
9.55304e-08
9.09125e-08
9.86905e-05
9.33563e-05
8.73347e-05
8.38074e-05
8.14822e-05
7.94266e-05
7.75184e-05
7.62056e-05
7.61497e-05
7.76877e-05
8.07043e-05
8.48757e-05
8.9557e-05
9.25584e-05
8.42591e-05
6.01836e-05
4.48384e-05
4.24846e-05
4.23079e-05
4.17384e-05
4.03271e-05
3.78584e-05
3.42799e-05
2.97603e-05
2.45485e-05
1.94279e-05
1.37095e-05
9.84861e-06
1.04568e-05
1.00276e-05
2.14123e-05
1.10152e-05
1.67648e-05
3.43576e-05
3.7359e-05
3.27801e-05
2.76535e-05
2.40223e-05
2.15852e-05
1.98643e-05
1.86396e-05
1.78586e-05
1.75128e-05
1.76989e-05
1.86733e-05
1.97172e-05
2.16099e-05
2.83467e-05
3.74251e-05
4.74486e-05
5.6611e-05
5.59477e-05
4.71716e-05
3.61231e-05
2.59349e-05
1.73877e-05
1.09823e-05
1.18608e-05
2.49546e-05
3.99747e-05
4.73072e-05
4.44143e-05
3.62857e-05
2.87566e-05
2.36319e-05
2.00728e-05
1.72568e-05
1.4868e-05
1.27906e-05
1.09536e-05
9.3058e-06
7.81767e-06
6.47728e-06
5.28183e-06
4.23032e-06
3.31951e-06
2.54307e-06
1.89273e-06
1.36e-06
9.3672e-07
6.16423e-07
3.95288e-07
2.71923e-07
2.32969e-07
2.38813e-07
2.5789e-07
2.81953e-07
3.10443e-07
3.40556e-07
3.66132e-07
3.80453e-07
3.78437e-07
3.58711e-07
3.22377e-07
2.75223e-07
2.20619e-07
1.68456e-07
1.18892e-07
9.13574e-08
1.09461e-07
8.91323e-05
8.81996e-05
8.54635e-05
8.26981e-05
7.95655e-05
7.58199e-05
7.18465e-05
6.84913e-05
6.67388e-05
6.72081e-05
6.99563e-05
7.47671e-05
8.13505e-05
8.89674e-05
9.42268e-05
8.47561e-05
6.00234e-05
4.49707e-05
4.19202e-05
4.07957e-05
3.92351e-05
3.68498e-05
3.35204e-05
2.92805e-05
2.45105e-05
1.9692e-05
1.40187e-05
1.24717e-05
9.5513e-06
1.93835e-05
2.39274e-05
4.72622e-06
2.46534e-05
3.77203e-05
3.70711e-05
3.16749e-05
2.69626e-05
2.37611e-05
2.15465e-05
1.99289e-05
1.87647e-05
1.80258e-05
1.77176e-05
1.78704e-05
1.87763e-05
2.01298e-05
2.16841e-05
2.65888e-05
3.51546e-05
4.44231e-05
5.45567e-05
5.75008e-05
5.13282e-05
4.10633e-05
3.07963e-05
2.24465e-05
1.78221e-05
2.17332e-05
3.43595e-05
4.6003e-05
4.88064e-05
4.29569e-05
3.43266e-05
2.75125e-05
2.30356e-05
1.98226e-05
1.72061e-05
1.49513e-05
1.29595e-05
1.11656e-05
9.52852e-06
8.03058e-06
6.66933e-06
5.44813e-06
4.36958e-06
3.43243e-06
2.63141e-06
1.95871e-06
1.40578e-06
9.64772e-07
6.29224e-07
3.95521e-07
2.63872e-07
2.2417e-07
2.34423e-07
2.58498e-07
2.86617e-07
3.17781e-07
3.49096e-07
3.74673e-07
3.88204e-07
3.85028e-07
3.63928e-07
3.2617e-07
2.77352e-07
2.2145e-07
1.68589e-07
1.23029e-07
9.83122e-08
1.34131e-07
6.42158e-05
6.36679e-05
6.1906e-05
5.95951e-05
5.65228e-05
5.2622e-05
4.84521e-05
4.50738e-05
4.36045e-05
4.4577e-05
4.79071e-05
5.35509e-05
6.18456e-05
7.2647e-05
8.47757e-05
9.23516e-05
8.24855e-05
5.89348e-05
4.40641e-05
4.01489e-05
3.8111e-05
3.55638e-05
3.23354e-05
2.84075e-05
2.41725e-05
1.94379e-05
1.49422e-05
1.27464e-05
1.50547e-05
2.94513e-05
2.06604e-05
8.78871e-06
3.24068e-05
3.94578e-05
3.58929e-05
3.04103e-05
2.62965e-05
2.34911e-05
2.14595e-05
1.99347e-05
1.88328e-05
1.8137e-05
1.7862e-05
1.80123e-05
1.87978e-05
2.03037e-05
2.19311e-05
2.54349e-05
3.26924e-05
4.1223e-05
5.12148e-05
5.75198e-05
5.51632e-05
4.70316e-05
3.77036e-05
3.02965e-05
2.76708e-05
3.3057e-05
4.35323e-05
5.03295e-05
4.84668e-05
4.05141e-05
3.21756e-05
2.63219e-05
2.24726e-05
1.95848e-05
1.71694e-05
1.50532e-05
1.31478e-05
1.13958e-05
9.76842e-06
8.26019e-06
6.87772e-06
5.63006e-06
4.52324e-06
3.55824e-06
2.73111e-06
2.03485e-06
1.4613e-06
1.00255e-06
6.52111e-07
4.0661e-07
2.67717e-07
2.27944e-07
2.42449e-07
2.70798e-07
3.01985e-07
3.34765e-07
3.66319e-07
3.91095e-07
4.03171e-07
3.98245e-07
3.75207e-07
3.35516e-07
2.84635e-07
2.27502e-07
1.74523e-07
1.35422e-07
1.13248e-07
1.64115e-07
2.40927e-05
2.38146e-05
2.25928e-05
2.08126e-05
1.85295e-05
1.60151e-05
1.42396e-05
1.43382e-05
1.62409e-05
1.89745e-05
2.22083e-05
2.66299e-05
3.37029e-05
4.4726e-05
5.97636e-05
7.68312e-05
8.71499e-05
7.91982e-05
5.84543e-05
4.31938e-05
3.76506e-05
3.47518e-05
3.14766e-05
2.76848e-05
2.36521e-05
1.88721e-05
1.47175e-05
1.46202e-05
3.03172e-05
3.33742e-05
9.49657e-06
2.15008e-05
3.82499e-05
3.93166e-05
3.41226e-05
2.91421e-05
2.5658e-05
2.31832e-05
2.1306e-05
1.98716e-05
1.88333e-05
1.81794e-05
1.79274e-05
1.80858e-05
1.87571e-05
2.02181e-05
2.20466e-05
2.4771e-05
3.04548e-05
3.80609e-05
4.69932e-05
5.53019e-05
5.72338e-05
5.26978e-05
4.56646e-05
3.99936e-05
3.89912e-05
4.3968e-05
5.05262e-05
5.18986e-05
4.62149e-05
3.74198e-05
3.00371e-05
2.5201e-05
2.19189e-05
1.93432e-05
1.71357e-05
1.51625e-05
1.3344e-05
1.16336e-05
1.00168e-05
8.49973e-06
7.09704e-06
5.82293e-06
4.68703e-06
3.69278e-06
2.8379e-06
2.11634e-06
1.52026e-06
1.04191e-06
6.74714e-07
4.1527e-07
2.66538e-07
2.25116e-07
2.44264e-07
2.77996e-07
3.13481e-07
3.49061e-07
3.81902e-07
4.06725e-07
4.17989e-07
4.11841e-07
3.87446e-07
3.46692e-07
2.95068e-07
2.38737e-07
1.87989e-07
1.57954e-07
1.37713e-07
1.9972e-07
5.80659e-06
6.38729e-06
7.29816e-06
8.44101e-06
9.78966e-06
1.12806e-05
1.27064e-05
1.37255e-05
1.40036e-05
1.34025e-05
1.21443e-05
1.11306e-05
1.24147e-05
1.83478e-05
2.96044e-05
4.66172e-05
6.67196e-05
7.97172e-05
7.60654e-05
5.99662e-05
4.45264e-05
3.58836e-05
3.10795e-05
2.70306e-05
2.26657e-05
1.80748e-05
1.89813e-05
3.29035e-05
4.15578e-05
2.4778e-05
7.97111e-06
3.32117e-05
4.08399e-05
3.75428e-05
3.21261e-05
2.7971e-05
2.50425e-05
2.28271e-05
2.10852e-05
1.97417e-05
1.87684e-05
1.8156e-05
1.79202e-05
1.80827e-05
1.86791e-05
1.99706e-05
2.19047e-05
2.43304e-05
2.86907e-05
3.51105e-05
4.2622e-05
5.10512e-05
5.6376e-05
5.61366e-05
5.25005e-05
4.91051e-05
4.89331e-05
5.18693e-05
5.37135e-05
5.03665e-05
4.24722e-05
3.41141e-05
2.8067e-05
2.41752e-05
2.13873e-05
1.91069e-05
1.71079e-05
1.52788e-05
1.35478e-05
1.18813e-05
1.02779e-05
8.75413e-06
7.33187e-06
6.03063e-06
4.86403e-06
3.83848e-06
2.95372e-06
2.20489e-06
1.5847e-06
1.08552e-06
7.00733e-07
4.27008e-07
2.69055e-07
2.27985e-07
2.5353e-07
2.93339e-07
3.33159e-07
3.71269e-07
4.05048e-07
4.29608e-07
4.39841e-07
4.32359e-07
4.06601e-07
3.6494e-07
3.12891e-07
2.5805e-07
2.10017e-07
1.88671e-07
1.68631e-07
2.3904e-07
1.02305e-05
1.09542e-05
1.18215e-05
1.26652e-05
1.33782e-05
1.38819e-05
1.40766e-05
1.38552e-05
1.31568e-05
1.19968e-05
1.04836e-05
8.84438e-06
7.47299e-06
8.54297e-06
1.35146e-05
2.1805e-05
3.61571e-05
5.55153e-05
7.0339e-05
7.24196e-05
6.33908e-05
5.11297e-05
4.12448e-05
3.48481e-05
3.13734e-05
3.25866e-05
4.16633e-05
4.81287e-05
3.50301e-05
3.95315e-06
2.64612e-05
4.02296e-05
4.0001e-05
3.48843e-05
3.02535e-05
2.6929e-05
2.44192e-05
2.24075e-05
2.07947e-05
1.95449e-05
1.86372e-05
1.80649e-05
1.78414e-05
1.79952e-05
1.85457e-05
1.965e-05
2.14952e-05
2.38426e-05
2.73337e-05
3.25538e-05
3.87015e-05
4.58774e-05
5.25377e-05
5.57852e-05
5.56581e-05
5.45377e-05
5.44742e-05
5.47766e-05
5.25483e-05
4.62722e-05
3.80273e-05
3.10232e-05
2.63481e-05
2.32363e-05
2.0867e-05
1.88684e-05
1.70799e-05
1.53978e-05
1.37583e-05
1.21402e-05
1.05543e-05
9.02605e-06
7.58449e-06
6.25492e-06
5.05561e-06
3.99637e-06
3.07929e-06
2.3009e-06
1.65445e-06
1.13246e-06
7.28185e-07
4.38169e-07
2.68778e-07
2.2719e-07
2.59953e-07
3.06838e-07
3.5189e-07
3.93332e-07
4.28774e-07
4.53734e-07
4.63555e-07
4.55368e-07
4.28971e-07
3.87329e-07
3.3604e-07
2.84139e-07
2.39842e-07
2.26691e-07
2.06194e-07
2.82965e-07
6.66491e-06
7.22569e-06
7.88413e-06
8.53329e-06
9.09549e-06
9.51976e-06
9.76503e-06
9.80875e-06
9.66987e-06
9.41567e-06
9.14264e-06
8.9786e-06
9.01496e-06
9.30958e-06
1.12627e-05
1.54725e-05
2.01143e-05
2.81672e-05
4.28357e-05
5.74263e-05
6.47263e-05
6.40631e-05
5.93716e-05
5.47312e-05
5.22624e-05
5.30376e-05
5.21019e-05
3.79362e-05
9.41668e-06
2.18458e-05
3.8705e-05
4.11952e-05
3.69413e-05
3.22073e-05
2.86654e-05
2.59664e-05
2.37539e-05
2.19212e-05
2.04387e-05
1.92839e-05
1.84411e-05
1.79069e-05
1.76935e-05
1.78284e-05
1.83374e-05
1.92964e-05
2.09214e-05
2.31684e-05
2.61452e-05
3.03965e-05
3.54349e-05
4.10278e-05
4.70554e-05
5.17774e-05
5.40361e-05
5.45641e-05
5.42817e-05
5.25244e-05
4.79378e-05
4.08789e-05
3.37355e-05
2.84028e-05
2.48702e-05
2.23533e-05
2.03451e-05
1.86231e-05
1.70492e-05
1.55195e-05
1.39779e-05
1.24146e-05
1.08503e-05
9.31924e-06
7.85786e-06
6.49811e-06
5.26354e-06
4.16782e-06
3.21568e-06
2.40514e-06
1.73018e-06
1.18345e-06
7.58082e-07
4.50481e-07
2.69099e-07
2.28818e-07
2.71157e-07
3.26342e-07
3.77129e-07
4.22006e-07
4.59021e-07
4.84244e-07
4.93573e-07
4.8472e-07
4.5787e-07
4.1658e-07
3.6643e-07
3.17719e-07
2.76672e-07
2.6996e-07
2.47833e-07
3.29521e-07
4.8233e-06
5.26051e-06
5.77418e-06
6.29147e-06
6.75964e-06
7.15131e-06
7.45318e-06
7.66588e-06
7.81612e-06
7.96628e-06
8.20004e-06
8.61888e-06
9.33542e-06
1.02853e-05
1.14573e-05
1.40049e-05
1.83199e-05
2.16553e-05
2.38008e-05
2.9848e-05
3.96881e-05
4.78587e-05
5.18175e-05
5.20636e-05
4.97501e-05
4.38863e-05
2.90958e-05
7.41403e-06
2.31431e-05
3.82522e-05
4.13896e-05
3.7915e-05
3.3469e-05
3.00068e-05
2.73055e-05
2.50083e-05
2.30315e-05
2.13732e-05
2.00221e-05
1.89615e-05
1.81818e-05
1.76834e-05
1.74779e-05
1.75889e-05
1.80466e-05
1.8898e-05
2.02846e-05
2.23132e-05
2.49437e-05
2.84539e-05
3.26663e-05
3.70644e-05
4.16989e-05
4.60311e-05
4.89699e-05
5.01572e-05
4.96315e-05
4.69076e-05
4.18006e-05
3.55866e-05
3.01592e-05
2.62798e-05
2.35566e-05
2.14852e-05
1.98083e-05
1.83664e-05
1.70144e-05
1.56457e-05
1.42107e-05
1.27091e-05
1.11702e-05
9.63702e-06
8.15462e-06
6.76233e-06
5.48957e-06
4.35426e-06
3.36401e-06
2.51842e-06
1.81235e-06
1.23855e-06
7.89953e-07
4.62655e-07
2.67144e-07
2.28317e-07
2.81908e-07
3.46539e-07
4.03868e-07
4.52813e-07
4.91946e-07
5.17938e-07
5.27278e-07
5.18297e-07
4.91603e-07
4.51377e-07
4.03124e-07
3.58227e-07
3.20537e-07
3.19565e-07
2.95632e-07
3.81525e-07
4.03128e-06
4.36792e-06
4.75768e-06
5.15389e-06
5.52304e-06
5.84744e-06
6.12019e-06
6.34801e-06
6.5608e-06
6.81694e-06
7.19734e-06
7.78521e-06
8.65315e-06
9.86394e-06
1.13361e-05
1.30999e-05
1.60579e-05
2.05584e-05
2.42722e-05
2.50287e-05
2.39393e-05
2.37958e-05
2.46879e-05
2.43352e-05
2.08833e-05
1.41728e-05
1.69219e-05
3.03043e-05
3.93488e-05
4.07438e-05
3.75799e-05
3.37373e-05
3.07006e-05
2.82398e-05
2.60224e-05
2.40128e-05
2.22579e-05
2.07728e-05
1.95501e-05
1.8581e-05
1.78623e-05
1.7397e-05
1.7197e-05
1.72824e-05
1.76803e-05
1.84345e-05
1.96246e-05
2.13688e-05
2.36769e-05
2.65978e-05
3.01146e-05
3.37644e-05
3.72889e-05
4.05534e-05
4.29862e-05
4.40079e-05
4.32576e-05
4.04342e-05
3.59936e-05
3.12809e-05
2.74017e-05
2.45072e-05
2.23076e-05
2.05999e-05
1.9251e-05
1.80981e-05
1.69781e-05
1.57811e-05
1.44625e-05
1.30288e-05
1.15182e-05
9.98304e-06
8.47786e-06
7.05019e-06
5.73584e-06
4.55741e-06
3.52564e-06
2.64177e-06
1.90166e-06
1.29818e-06
8.24027e-07
4.74846e-07
2.63413e-07
2.28108e-07
2.96028e-07
3.7161e-07
4.36202e-07
4.89522e-07
5.3086e-07
5.57618e-07
5.66966e-07
5.57906e-07
5.31481e-07
4.92462e-07
4.46149e-07
4.04771e-07
3.69635e-07
3.73042e-07
3.46572e-07
4.35914e-07
3.43974e-06
3.70345e-06
4.00455e-06
4.31005e-06
4.59669e-06
4.85341e-06
5.08101e-06
5.29523e-06
5.53107e-06
5.8426e-06
6.29646e-06
6.95759e-06
7.87354e-06
9.07856e-06
1.05848e-05
1.23168e-05
1.4341e-05
1.73145e-05
2.16092e-05
2.5914e-05
2.84427e-05
2.87472e-05
2.7793e-05
2.70356e-05
2.80375e-05
3.19094e-05
3.68218e-05
3.95161e-05
3.87137e-05
3.58508e-05
3.2914e-05
3.05939e-05
2.85911e-05
2.66319e-05
2.47316e-05
2.29864e-05
2.14476e-05
2.01277e-05
1.90274e-05
1.81463e-05
1.74859e-05
1.70514e-05
1.68542e-05
1.69129e-05
1.72489e-05
1.79019e-05
1.89295e-05
2.04049e-05
2.23777e-05
2.48204e-05
2.76891e-05
3.07355e-05
3.35834e-05
3.60007e-05
3.76829e-05
3.82365e-05
3.73139e-05
3.48452e-05
3.14616e-05
2.80897e-05
2.52209e-05
2.28882e-05
2.10524e-05
1.96866e-05
1.86744e-05
1.7821e-05
1.69449e-05
1.59317e-05
1.4739e-05
1.33791e-05
1.1899e-05
1.03615e-05
8.83127e-06
7.36482e-06
6.00494e-06
4.77936e-06
3.70207e-06
2.77633e-06
1.99883e-06
1.36273e-06
8.60337e-07
4.86599e-07
2.56405e-07
2.2625e-07
3.11443e-07
3.99405e-07
4.7213e-07
5.3044e-07
5.74467e-07
6.02418e-07
6.12189e-07
6.03482e-07
5.77789e-07
5.40453e-07
4.96492e-07
4.58844e-07
4.26206e-07
4.33711e-07
4.0474e-07
4.97282e-07
2.92248e-06
3.12442e-06
3.35143e-06
3.58055e-06
3.7988e-06
4.00287e-06
4.19971e-06
4.40973e-06
4.6686e-06
5.02422e-06
5.52951e-06
6.22829e-06
7.1475e-06
8.30351e-06
9.71176e-06
1.13624e-05
1.31835e-05
1.5222e-05
1.78732e-05
2.1437e-05
2.54105e-05
2.8885e-05
3.14265e-05
3.32418e-05
3.48131e-05
3.59905e-05
3.6065e-05
3.48007e-05
3.28892e-05
3.11349e-05
2.96823e-05
2.82577e-05
2.66969e-05
2.50528e-05
2.34431e-05
2.1949e-05
2.06099e-05
1.94437e-05
1.84593e-05
1.76621e-05
1.70569e-05
1.66508e-05
1.64546e-05
1.64851e-05
1.67601e-05