/*--------------------------------*- C++ -*----------------------------------*\
  =========                 |
  \\      /  F ield         | OpenFOAM: The Open Source CFD Toolbox
   \\    /   O peration     | Website:  https://openfoam.org
    \\  /    A nd           | Version:  10
     \\/     M anipulation  |
\*---------------------------------------------------------------------------*/
FoamFile
{
    format      ascii;
    class       volScalarField;
    location    "0.06";
    object      k;
}
// * * * * * * * * * * * * * * * * * * * * * * * * * * * * * * * * * * * * * //

dimensions      [0 2 -2 0 0 0 0];

internalField   nonuniform List<scalar> 
6820
(
0.198344
0.19481
0.191213
0.187589
0.183985
0.180424
0.176917
0.173468
0.170076
0.166742
0.163465
0.160243
0.157075
0.153956
0.150885
0.147857
0.144866
0.141907
0.138971
0.136049
0.13313
0.130199
0.127239
0.124228
0.121138
0.117932
0.114566
0.110977
0.107084
0.102766
0.0978459
0.0921727
0.084133
0.200925
0.200905
0.200481
0.200035
0.19959
0.199139
0.198678
0.198203
0.197712
0.197206
0.196686
0.196152
0.195606
0.195049
0.194484
0.193912
0.193334
0.192754
0.192171
0.191589
0.191007
0.190427
0.189848
0.18927
0.188689
0.1881
0.187494
0.186852
0.186153
0.185338
0.184394
0.182923
0.181795
0.236729
0.0166982
0.00411488
0.00927607
0.00747479
0.00786595
0.00961535
0.0116359
0.013823
0.0161185
0.0184869
0.0209106
0.0233777
0.0258799
0.0284121
0.0309715
0.0335581
0.036174
0.0388244
0.0415169
0.0442625
0.0470758
0.0499759
0.0529871
0.0561403
0.0594743
0.0630389
0.0668951
0.0711248
0.0758264
0.0811308
0.0872422
0.0941693
0.210781
0.147917
0.104853
0.0795365
0.063927
0.053374
0.0456004
0.0394998
0.0344996
0.0302786
0.0266436
0.0234719
0.0206822
0.0182194
0.0160461
0.0141364
0.0124726
0.0110421
0.00983437
0.00883935
0.00804597
0.00744201
0.00701519
0.00675497
0.00665478
0.00671432
0.00694204
0.00735849
0.00800001
0.00893188
0.0102335
0.0121124
0.0145405
0.223402
0.0829923
0.0212571
0.00419883
0.000702122
0.000433277
0.000745328
0.00106855
0.00133879
0.00157232
0.00178165
0.00197015
0.00213686
0.00227965
0.00239662
0.00248654
0.00254893
0.00258397
0.00259232
0.00257495
0.00253294
0.00246731
0.00237885
0.002268
0.00213481
0.00197885
0.0017995
0.00159523
0.00136831
0.00110937
0.000846467
0.0005734
0.000211936
0.217066
0.115186
0.0544554
0.0304927
0.0210906
0.0164895
0.0132363
0.0102994
0.00750391
0.00500824
0.00303162
0.00166763
0.00084432
0.000402699
0.000187211
9.03481e-05
5.05005e-05
3.6374e-05
3.3989e-05
3.74504e-05
4.42166e-05
5.29803e-05
6.28259e-05
7.27047e-05
8.16242e-05
8.82445e-05
8.73106e-05
9.51244e-05
4.47267e-05
1.02696e-05
0.000136953
0.000235813
0.000136864
0.213359
0.133654
0.0681393
0.0361905
0.022369
0.0161017
0.0128358
0.010878
0.00956349
0.00860492
0.00786967
0.00729246
0.00684011
0.00651199
0.00630848
0.00615642
0.00599239
0.00578257
0.00550829
0.00517062
0.00479481
0.00442027
0.0040818
0.0037982
0.00357234
0.00339693
0.0032609
0.00315378
0.00306309
0.00298314
0.00291964
0.00285868
0.00279441
0.20408
0.179729
0.131624
0.0785124
0.0440604
0.0262268
0.0173792
0.0127573
0.0101102
0.00844254
0.00730895
0.00649624
0.00589468
0.00548391
0.00530954
0.00530624
0.00533845
0.0053669
0.00538624
0.00539762
0.00540218
0.00540053
0.00539279
0.00537954
0.00536176
0.00533932
0.00531196
0.00527891
0.00524132
0.00519906
0.00515217
0.00510545
0.00505974
0.202756
0.18607
0.163137
0.128672
0.0907278
0.0605945
0.0404393
0.0278897
0.0201295
0.0151715
0.0118464
0.00949987
0.00774229
0.00642989
0.00573495
0.00564659
0.00574848
0.00584908
0.00591716
0.00596263
0.00599722
0.00602674
0.00605158
0.00607029
0.00608124
0.00608239
0.00607223
0.00604964
0.00601466
0.00596922
0.00591631
0.00586199
0.00580831
0.202108
0.189235
0.175633
0.15957
0.13521
0.105123
0.0764846
0.0539535
0.0380775
0.0273787
0.020177
0.0152135
0.0116671
0.00918584
0.00789058
0.00764979
0.00780633
0.008034
0.00823176
0.00838115
0.00848479
0.00854669
0.00856756
0.00854697
0.00848539
0.0083845
0.00824747
0.00807843
0.00788248
0.00766729
0.00744208
0.00721896
0.00700633
0.201656
0.191438
0.181086
0.17163
0.160064
0.144132
0.123563
0.100573
0.0784902
0.0596455
0.0448211
0.0337956
0.025944
0.0207935
0.0182936
0.0178621
0.0183596
0.0190146
0.0195315
0.0198522
0.0199924
0.0199777
0.0198262
0.0195478
0.0191497
0.0186401
0.0180287
0.0173256
0.0165393
0.0156809
0.0147669
0.013832
0.0129103
0.201341
0.192981
0.184878
0.178419
0.171984
0.163825
0.152373
0.136924
0.118462
0.0991815
0.0813377
0.0665037
0.0554479
0.0483611
0.044991
0.0444796
0.0454211
0.0465482
0.0472763
0.0475189
0.047356
0.0468802
0.0461588
0.045231
0.0441158
0.0428182
0.0413288
0.0396192
0.0376262
0.0352624
0.0324637
0.0292551
0.0257968
0.20111
0.194118
0.18755
0.182773
0.178816
0.174808
0.169875
0.163
0.153452
0.141271
0.127461
0.113785
0.102121
0.0936174
0.0883879
0.0858189
0.0848626
0.0844114
0.0837784
0.0827834
0.0815102
0.0800748
0.0785413
0.0769249
0.0752113
0.073363
0.0713062
0.0688961
0.0658349
0.0615908
0.0554174
0.0462442
0.0357633
0.200945
0.194928
0.189457
0.185845
0.183341
0.181264
0.179012
0.175929
0.171439
0.165261
0.157611
0.149263
0.141304
0.134609
0.129506
0.125883
0.123289
0.121081
0.118873
0.116582
0.114272
0.112014
0.10984
0.107744
0.105689
0.103601
0.101341
0.0986174
0.0947787
0.0882511
0.0760826
0.0525462
0.0308764
0.200828
0.195507
0.190811
0.187987
0.18639
0.185453
0.184741
0.183821
0.182275
0.179779
0.176217
0.171783
0.166913
0.162075
0.157572
0.153503
0.149762
0.146131
0.142585
0.139205
0.136069
0.133219
0.130664
0.128382
0.126325
0.12441
0.122481
0.120208
0.116785
0.109862
0.0933424
0.0519483
0.0217294
0.200747
0.195908
0.191733
0.189432
0.188423
0.188145
0.188189
0.188197
0.187857
0.186931
0.185299
0.18299
0.180168
0.177039
0.173729
0.17025
0.166646
0.162978
0.159358
0.15589
0.152654
0.149698
0.147041
0.144681
0.142591
0.14071
0.138915
0.136911
0.133932
0.127639
0.111238
0.0664456
0.0292172
0.200694
0.196165
0.192285
0.190274
0.189628
0.189748
0.190211
0.190703
0.190971
0.190823
0.190139
0.188886
0.187096
0.184799
0.182046
0.178898
0.175473
0.171916
0.168368
0.164949
0.161751
0.158833
0.156224
0.153931
0.15194
0.150206
0.148634
0.147001
0.144743
0.140317
0.129781
0.105503
0.0732129
0.200664
0.196304
0.192563
0.190669
0.190169
0.190471
0.191137
0.191848
0.192371
0.192545
0.192263
0.191472
0.190164
0.188346
0.186066
0.183406
0.180476
0.177396
0.174282
0.171235
0.168334
0.165638
0.163182
0.160983
0.159037
0.157313
0.155735
0.154129
0.152105
0.148778
0.142367
0.130903
0.115227
0.200656
0.196332
0.192608
0.190724
0.190242
0.190574
0.191285
0.192054
0.192659
0.192951
0.192834
0.192253
0.191187
0.189647
0.187676
0.185346
0.18275
0.179991
0.177171
0.174381
0.171696
0.169172
0.166847
0.164736
0.162837
0.16112
0.159517
0.15789
0.155964
0.153236
0.148975
0.142779
0.135191
0.200668
0.196253
0.192425
0.19046
0.189916
0.190199
0.190867
0.191605
0.192198
0.192505
0.192444
0.191968
0.191064
0.189748
0.188056
0.18605
0.183803
0.181399
0.178919
0.176435
0.174011
0.171694
0.169515
0.167491
0.165618
0.16387
0.16219
0.160468
0.158516
0.156065
0.152815
0.148782
0.144392
0.200702
0.196052
0.191994
0.189861
0.189191
0.189371
0.189951
0.190613
0.191149
0.191428
0.191374
0.19095
0.190145
0.188975
0.187471
0.185686
0.183681
0.181522
0.179279
0.177012
0.174776
0.17261
0.170543
0.168587
0.166738
0.16497
0.16323
0.161432
0.159455
0.15716
0.154422
0.151348
0.148249
0.200764
0.195694
0.191263
0.188876
0.188029
0.18807
0.188532
0.189094
0.189552
0.189781
0.189713
0.189318
0.188591
0.187545
0.186211
0.184632
0.182857
0.180941
0.178938
0.176898
0.174862
0.172864
0.170926
0.169057
0.16725
0.165474
0.16369
0.16184
0.159856
0.157667
0.155225
0.152642
0.15016
0.200859
0.195158
0.190182
0.187443
0.186366
0.186244
0.186579
0.18704
0.18742
0.187599
0.187514
0.187137
0.186466
0.185515
0.18431
0.182887
0.181287
0.179556
0.177737
0.175871
0.173993
0.172129
0.170295
0.168493
0.166708
0.164919
0.163101
0.161221
0.159239
0.157125
0.154861
0.152551
0.150391
0.200994
0.194395
0.188665
0.18546
0.184101
0.183794
0.183998
0.184362
0.184674
0.184814
0.184723
0.184376
0.183772
0.182922
0.181851
0.180589
0.179169
0.177628
0.176002
0.17432
0.172613
0.170896
0.169166
0.16742
0.165654
0.163861
0.162026
0.160132
0.15816
0.156098
0.153943
0.151783
0.14979
0.201185
0.193316
0.186568
0.182781
0.181108
0.180628
0.18073
0.181034
0.181314
0.181447
0.181374
0.181071
0.180536
0.179781
0.178826
0.177698
0.176425
0.175037
0.173564
0.172029
0.17045
0.168831
0.167169
0.165465
0.163722
0.161938
0.160107
0.158221
0.156273
0.154259
0.152184
0.150126
0.148225
0.201459
0.191771
0.18364
0.179118
0.17709
0.176443
0.176469
0.176746
0.17703
0.177195
0.17718
0.176961
0.176534
0.175911
0.175108
0.174147
0.173051
0.171844
0.170547
0.16916
0.167687
0.16614
0.164526
0.162853
0.161128
0.159352
0.157524
0.155644
0.153708
0.151721
0.149686
0.147677
0.145803
0.201855
0.189533
0.179569
0.174202
0.171867
0.171154
0.171216
0.171566
0.171939
0.172199
0.172285
0.172173
0.171863
0.171365
0.170694
0.169872
0.168913
0.167838
0.166659
0.165371
0.163981
0.162503
0.160947
0.159322
0.157635
0.155889
0.154088
0.152232
0.150325
0.148371
0.146376
0.144403
0.142543
0.202452
0.18616
0.173665
0.167244
0.164587
0.16386
0.164031
0.164541
0.165096
0.165551
0.16584
0.165938
0.165842
0.165561
0.165108
0.164491
0.163706
0.162762
0.161675
0.160459
0.15913
0.1577
0.156182
0.154584
0.152915
0.15118
0.149383
0.147528
0.145621
0.143666
0.141672
0.139692
0.1378
0.203346
0.1811
0.165411
0.158023
0.15533
0.154865
0.155362
0.156187
0.157029
0.157743
0.15827
0.158579
0.158673
0.158566
0.158271
0.157794
0.157132
0.156299
0.15531
0.154183
0.152932
0.151572
0.150113
0.148564
0.146933
0.145226
0.143449
0.141609
0.13971
0.137759
0.135766
0.133775
0.131844
0.204794
0.172952
0.152782
0.144203
0.141549
0.141522
0.142574
0.143978
0.145384
0.146635
0.147654
0.148386
0.148828
0.149
0.148924
0.148622
0.14811
0.147408
0.146532
0.145498
0.144321
0.143014
0.141587
0.140052
0.138416
0.13669
0.134882
0.132999
0.131051
0.129046
0.126994
0.124933
0.122908
0.206971
0.160806
0.135842
0.126656
0.124407
0.124954
0.126578
0.12852
0.130437
0.132169
0.133625
0.134759
0.135571
0.136075
0.136292
0.136243
0.135949
0.13543
0.134704
0.133788
0.132695
0.131441
0.130037
0.128495
0.126827
0.125044
0.12316
0.121188
0.119139
0.11703
0.114872
0.1127
0.110545
0.210336
0.142867
0.112016
0.101632
0.0992415
0.100123
0.102378
0.105067
0.107757
0.110257
0.112459
0.11431
0.115791
0.1169
0.117646
0.118045
0.118115
0.11788
0.117362
0.116582
0.115559
0.114311
0.112858
0.111218
0.109411
0.107457
0.10538
0.103204
0.10095
0.0986416
0.0962993
0.0939571
0.0916349
0.217277
0.108597
0.0694979
0.058397
0.0567113
0.0586071
0.0619816
0.0658446
0.0697218
0.0733717
0.0766525
0.0794875
0.0818447
0.0837164
0.0851074
0.0860317
0.0865115
0.0865756
0.0862572
0.0855913
0.0846122
0.0833532
0.0818455
0.0801189
0.0782027
0.0761266
0.0739213
0.0716196
0.0692555
0.0668639
0.0644779
0.0621361
0.0598538
0.224397
0.0750233
0.0313051
0.0213847
0.0208741
0.0231691
0.0263892
0.0298582
0.0332688
0.0364573
0.0393272
0.0418252
0.0439258
0.0456158
0.0468886
0.0477471
0.0482064
0.048293
0.0480416
0.0474919
0.0466849
0.0456604
0.0444555
0.0431035
0.041635
0.0400781
0.0384598
0.0368063
0.0351431
0.0334948
0.0318832
0.0303311
0.0288434
0.227198
0.0627754
0.0185537
0.00860379
0.00726488
0.00817871
0.00979059
0.0116451
0.0135438
0.0153775
0.0170808
0.0186075
0.019924
0.0210059
0.0218363
0.0224081
0.0227253
0.0228019
0.0226597
0.0223263
0.0218325
0.0212113
0.0204951
0.0197152
0.0188997
0.0180728
0.0172541
0.0164581
0.0156945
0.0149689
0.0142825
0.0136357
0.0130213
0.224401
0.0758257
0.0302155
0.0179136
0.0145332
0.0134811
0.0130429
0.012758
0.0124905
0.0122091
0.0119119
0.0115982
0.0112679
0.0109275
0.0105843
0.0102437
0.00990847
0.0095788
0.0092534
0.00893108
0.00861129
0.00829371
0.00797843
0.00766619
0.00735817
0.0070557
0.00676005
0.00647224
0.00619294
0.0059224
0.00566074
0.00540691
0.00516784
0.213403
0.133899
0.087661
0.0635899
0.0502923
0.0421705
0.036732
0.0328215
0.029856
0.0275167
0.0256173
0.024036
0.0226887
0.0215219
0.0205005
0.0195985
0.0187955
0.0180754
0.0174255
0.0168356
0.0162972
0.0158035
0.0153491
0.0149297
0.0145416
0.0141821
0.0138486
0.0135392
0.0132522
0.0129862
0.0127391
0.012513
0.0122921
0.240251
0.000463544
0.0363929
2.22954e-05
0.000152977
9.76082e-05
0.000801141
0.000804738
0.000514722
0.000231246
0.000628594
0.00105018
0.00085973
0.000430064
0.000282013
0.000315199
0.000345279
0.00036038
0.00037726
0.000396462
0.000417337
0.000439448
0.00046229
0.000485347
0.000508439
0.000531601
0.000554923
0.000578517
0.000602517
0.000627076
0.000652337
0.000678538
0.000705582
0.200085
0.199947
0.199759
0.199573
0.199395
0.19922
0.199044
0.198865
0.198682
0.198493
0.198299
0.1981
0.197895
0.197687
0.197474
0.197259
0.197042
0.196824
0.196606
0.196384
0.196157
0.195926
0.195691
0.195456
0.195222
0.19499
0.194762
0.194539
0.194323
0.194115
0.193915
0.19373
0.193542
0.199877
0.199568
0.199234
0.19889
0.198545
0.198204
0.19787
0.197547
0.197234
0.196933
0.196642
0.196362
0.196091
0.19583
0.195578
0.195333
0.195096
0.194866
0.194641
0.194422
0.194208
0.193999
0.193793
0.19359
0.19339
0.193192
0.192995
0.1928
0.192604
0.192409
0.192213
0.192015
0.191816
0.0776427
0.0939319
0.112679
0.119884
0.122853
0.13366
0.145337
0.145984
0.137282
0.140833
0.153912
0.123679
0.103542
0.109092
0.121513
0.135196
0.14982
0.165598
0.182177
0.197241
0.209163
0.217041
0.220371
0.219306
0.213525
0.201655
0.184725
0.167723
0.146571
0.111097
0.0653599
0.0263384
0.00479535
0.000389863
0.00701028
0.0191427
0.0339314
0.0493618
0.0632541
0.0736374
0.0793097
0.0799955
0.0762086
0.069053
0.0600432
0.0509
0.0432873
0.0385124
0.0372956
0.0396951
0.0452057
0.0529812
0.0620839
0.0716805
0.0811445
0.0900713
0.0982418
0.105572
0.112075
0.117826
0.122928
0.127422
0.131148
0.133518
0.133327
0.129044
0.120439
0.110861
0.104943
0.103865
0.106943
0.114004
0.125243
0.138771
0.149818
0.155491
0.156471
0.154952
0.152387
0.149078
0.144968
0.140277
0.135703
0.132182
0.130249
0.129502
0.128761
0.126861
0.123329
0.118422
0.112667
0.106373
0.0993321
0.0908573
0.0797977
0.065485
0.0483201
0.03091
0.0169984
0.00559847
0.1743
0.164011
0.157232
0.156018
0.155477
0.152146
0.13948
0.118781
0.0999683
0.0956135
0.122475
0.140864
0.12176
0.110411
0.117708
0.130769
0.144256
0.157836
0.172181
0.185717
0.196661
0.203936
0.207062
0.205857
0.198928
0.185723
0.170728
0.155562
0.129962
0.0884821
0.0440444
0.0134008
0.00106389
0.00267791
0.0120597
0.0255262
0.0409731
0.0562242
0.0690042
0.0776259
0.0813457
0.0802703
0.0751228
0.0670729
0.0576218
0.0484483
0.0411578
0.036983
0.0365459
0.0397897
0.0460976
0.0545353
0.0641149
0.0739922
0.0835608
0.0924543
0.100496
0.107638
0.113918
0.119429
0.124286
0.128553
0.132107
0.134415
0.134304
0.130135
0.121335
0.111032
0.104356
0.102781
0.105303
0.111613
0.122395
0.136247
0.148149
0.154577
0.155926
0.154526
0.152085
0.149002
0.14517
0.140748
0.136403
0.133081
0.131349
0.130814
0.130234
0.128326
0.124511
0.119056
0.112658
0.10591
0.098936
0.0914477
0.0827224
0.0721335
0.0589763
0.0438115
0.029246
0.0135434
0.104462
0.114515
0.120118
0.12053
0.113437
0.0982701
0.077696
0.0578564
0.044425
0.0404695
0.0603957
0.106352
0.13052
0.122173
0.117226
0.124949
0.137441
0.150005
0.162253
0.173963
0.183666
0.190127
0.192752
0.190366
0.181895
0.169536
0.1581
0.141365
0.107993
0.0631071
0.0246953
0.00464269
0.00065883
0.00666853
0.0181725
0.0328686
0.0487449
0.0633612
0.0745626
0.0811302
0.0828114
0.0800289
0.0736347
0.0648123
0.0550331
0.0459344
0.039068
0.0355857
0.0360013
0.0401323
0.0472444
0.056318
0.066324
0.0764196
0.0860305
0.0948366
0.102708
0.109635
0.115681
0.120951
0.125571
0.129623
0.133016
0.135274
0.13528
0.131362
0.122702
0.112094
0.104865
0.102798
0.104637
0.109909
0.119839
0.133675
0.146321
0.153568
0.155374
0.154101
0.151722
0.148801
0.145235
0.141123
0.137078
0.134024
0.132546
0.132267
0.131925
0.13015
0.126248
0.120426
0.113453
0.106131
0.0988507
0.0915843
0.0839018
0.07558
0.066013
0.0552539
0.0438232
0.0281706
0.0190913
0.0255441
0.0303137
0.0307222
0.0274628
0.0219174
0.0157306
0.0104969
0.00775168
0.00678994
0.0130744
0.0488282
0.1007
0.126446
0.125285
0.123581
0.130061
0.1406
0.151487
0.161597
0.169849
0.175076
0.176391
0.172403
0.164279
0.15569
0.145684
0.121396
0.0801244
0.0377937
0.00990201
0.000449891
0.0029921
0.012154
0.0255182
0.041311
0.0571564
0.0705184
0.0796628
0.083965
0.0836157
0.0792465
0.0717531
0.0622942
0.0523066
0.0433941
0.0370578
0.0343633
0.0357006
0.0407505
0.0486581
0.0583244
0.068692
0.0789344
0.0885214
0.0971873
0.104852
0.111545
0.11735
0.122385
0.126782
0.130632
0.133876
0.136091
0.136223
0.132597
0.124196
0.113443
0.105738
0.103251
0.104463
0.10864
0.117482
0.131054
0.144355
0.152462
0.154782
0.15364
0.151271
0.14846
0.145143
0.141365
0.137666
0.134924
0.133724
0.133725
0.133676
0.132155
0.12835
0.122339
0.114863
0.106861
0.0989794
0.0914263
0.0838921
0.0762204
0.0678122
0.0591373
0.0497914
0.0383713
0.00320393
0.000526545
0.00143056
0.00176768
0.00135495
0.000639027
0.0025902
0.00184207
0.00100413
0.000995682
0.002176
0.0105025
0.0489337
0.0979288
0.124614
0.129194
0.129286
0.133259
0.140278
0.147837
0.154318
0.158279
0.15848
0.154981
0.150793
0.145104
0.128288
0.0924462
0.0493311
0.0167987
0.00186954
0.000514235
0.00747012
0.0192393
0.0343467
0.0508105
0.065887
0.0773123
0.084026
0.0859973
0.083732
0.0779463
0.0695121
0.0595485
0.0494686
0.0408552
0.0351593
0.0333475
0.0356709
0.0416605
0.0503399
0.0605414
0.0711954
0.0815076
0.0910042
0.0994805
0.106908
0.113352
0.118915
0.123723
0.127908
0.131571
0.134675
0.136848
0.1371
0.133775
0.125687
0.114889
0.106762
0.103903
0.104603
0.107746
0.115332
0.128403
0.142245
0.151224
0.154109
0.153109
0.150715
0.147969
0.144884
0.141453
0.138134
0.135733
0.134822
0.135093
0.135335
0.134119
0.130543
0.124532
0.116706
0.108031
0.0993672
0.0912105
0.0834431
0.0759155
0.0678734
0.0597587
0.0507538
0.0404835
0.000192622
0.000141738
0.000127128
0.000166156
0.000260424
0.000483051
0.000756824
0.000954393
0.00101062
0.000790368
0.000295816
0.00289225
0.0122642
0.0495277
0.0934056
0.121363
0.13159
0.134156
0.136188
0.13919
0.142531
0.144886
0.144922
0.144572
0.142515
0.129966
0.0983802
0.0565758
0.0221807
0.00393985
0.00122227
0.00478723
0.0143884
0.0282555
0.0447295
0.0610454
0.0744378
0.0833334
0.087433
0.0871637
0.0831773
0.0761668
0.0669455
0.0566015
0.0465457
0.0383509
0.0334116
0.032578
0.0359424
0.0428772
0.0522877
0.0629512
0.0738059
0.0841071
0.0934486
0.101691
0.108856
0.115042
0.120366
0.124957
0.128945
0.132435
0.13541
0.137541
0.137907
0.134884
0.127156
0.116417
0.10792
0.104643
0.104891
0.10714
0.113407
0.12575
0.13999
0.149836
0.153332
0.152491
0.150041
0.147314
0.144435
0.141362
0.138457
0.136436
0.135831
0.136354
0.136853
0.135936
0.132668
0.126838
0.118881
0.109664
0.100153
0.0911373
0.0828128
0.0751679
0.0673685
0.0596501
0.0509461
0.0408564
0.00271832
0.00262835
0.00257685
0.00260097
0.00270277
0.00286529
0.00305396
0.00321239
0.00322839
0.00299022
0.00236089
0.000454669
0.00124883
0.0134911
0.0450833
0.0831984
0.112061
0.127833
0.134886
0.138023
0.139849
0.140782
0.141133
0.138462
0.124749
0.0950356
0.0563124
0.0236422
0.00535508
0.00015875
0.00307517
0.0109908
0.0233273
0.0393136
0.056384
0.0713971
0.0822303
0.08824
0.089767
0.0874761
0.0820037
0.0739545
0.064084
0.0534773
0.0435667
0.0359197
0.03186
0.0320969
0.0365445
0.0444107
0.0544918
0.0655301
0.0764916
0.0866992
0.0958239
0.103793
0.110678
0.116602
0.121694
0.12608
0.129886
0.133217
0.136071
0.138163
0.138635
0.135909
0.128562
0.117946
0.109105
0.105317
0.105085
0.10662
0.111687
0.123152
0.13762
0.148291
0.152428
0.151767
0.149231
0.146473
0.143772
0.141066
0.138616
0.137027
0.136758
0.137521
0.138227
0.137562
0.134621
0.129117
0.12129
0.111796
0.101538
0.091494
0.0822368
0.0740774
0.0662927
0.0589611
0.0507324
0.0409837
0.00501584
0.00497708
0.00495928
0.00497
0.00500515
0.00505778
0.00511164
0.00514093
0.0051051
0.00491927
0.00444668
0.00339712
0.000953228
0.00207727
0.0110873
0.0346214
0.0648891
0.0912851
0.109393
0.119757
0.124426
0.124765
0.119902
0.104603
0.0778937
0.04602
0.019602
0.00474792
0.000415389
0.00262273
0.00900827
0.0198004
0.0349563
0.0523226
0.0685691
0.0810598
0.088744
0.0918307
0.0910264
0.0870041
0.0802775
0.0713499
0.060951
0.0501991
0.0405664
0.0336091
0.0305561
0.031948
0.0375032
0.0462645
0.0569361
0.0682485
0.0792191
0.0892522
0.098103
0.105767
0.112356
0.118018
0.122886
0.12708
0.130718
0.133902
0.136644
0.138697
0.139268
0.136824
0.129827
0.119279
0.110023
0.105666
0.105015
0.106072
0.110171
0.120677
0.135177
0.14658
0.151362
0.150893
0.148246
0.145406
0.142847
0.140514
0.138566
0.137473
0.137591
0.138603
0.139469
0.138979
0.136316
0.131205
0.123752
0.114354
0.103675
0.0926709
0.0821986
0.0730069
0.0647386
0.0575385
0.049838
0.040788
0.00576466
0.00573053
0.00570617
0.00568714
0.00566863
0.00564616
0.00561052
0.00555557
0.00548136
0.00538297
0.00520843
0.00488235
0.00379373
0.00124378
0.00145324
0.0067298
0.0208459
0.0400607
0.0581246
0.0710187
0.0770997
0.0757168
0.0656306
0.0478957
0.0275081
0.0111668
0.00246202
0.000572093
0.00285521
0.00822343
0.0177212
0.0319766
0.0493048
0.0663796
0.0801852
0.0892662
0.093652
0.0940787
0.0913039
0.0858439
0.078057
0.0683798
0.0575642
0.0467947
0.0375898
0.0314766
0.0295576
0.032175
0.0388383
0.0484336
0.0595956
0.071072
0.0819538
0.0917395
0.100269
0.1076
0.113882
0.11928
0.123926
0.127936
0.131417
0.134463
0.137099
0.139111
0.139771
0.137573
0.130816
0.120165
0.110355
0.105425
0.104524
0.105412
0.108845
0.118381
0.132706
0.144705
0.1501
0.149821
0.147034
0.144058
0.141604
0.139652
0.138258
0.13774
0.138315
0.139605
0.140601
0.140197
0.13771
0.132952
0.126007
0.117076
0.106494
0.0949478
0.0833114
0.0726839
0.06324
0.0555116
0.0479983
0.0398367
0.00680635
0.00661593
0.00644954
0.00629249
0.00613397
0.00595083
0.00572429
0.00546212
0.00521427
0.00504235
0.00497069
0.00494597
0.00493039
0.00387272
0.00211988
0.000366827
0.00169675
0.007185
0.0149632
0.0218199
0.0251054
0.0231848
0.0167344
0.00899133
0.00310233
0.000642779
0.00122483
0.00376329
0.00851962
0.0171628
0.0306955
0.0478007
0.0653028
0.080003
0.0901282
0.0955128
0.0968903
0.0951083
0.0907384
0.084082
0.0753786
0.0650584
0.0539426
0.0433026
0.0346958
0.0295906
0.0289256
0.0328176
0.0405611
0.050902
0.0624364
0.0739594
0.0846583
0.0941347
0.102311
0.109297
0.115268
0.120396
0.124813
0.128633
0.131951
0.134856
0.137385
0.13935
0.140072
0.138041
0.13135
0.1204
0.110078
0.104726
0.103727
0.104625
0.107602
0.116189
0.13016
0.142624
0.148589
0.148488
0.145518
0.142344
0.139956
0.138398
0.137625
0.137772
0.138889
0.140506
0.141626
0.141239
0.138799
0.134258
0.127788
0.119536
0.109582
0.0982117
0.08599
0.0740377
0.0629489
0.0538318
0.045652
0.0379055
0.0119851
0.0110362
0.0101518
0.0092801
0.00838897
0.00751488
0.0067548
0.00621174
0.00593121
0.00583749
0.0057923
0.00569383
0.00559468
0.00540691
0.00465918
0.00309282
0.000991686
0.00133163
0.000998728
0.00185848
0.00236389
0.00191546
0.00131528
0.00111172
0.00164418
0.00302026
0.00543567
0.00995608
0.0183347
0.0315128
0.0483364
0.0658635
0.0809405
0.0916479
0.0976655
0.09969
0.0986293
0.0951196
0.0894573
0.0817704
0.0722551
0.0613954
0.0501154
0.0397781
0.0319587
0.0280281
0.0287217
0.033908
0.0426708
0.0536424
0.0654158
0.0768659
0.0872946
0.0964112
0.104215
0.110858
0.11653
0.121398
0.125588
0.1292
0.132323
0.135057
0.137449
0.139329
0.140045
0.138049
0.131251
0.119971
0.109471
0.104013
0.102957
0.103776
0.106301
0.113925
0.1274
0.140225
0.146736
0.146799
0.143604
0.140165
0.137804
0.136663
0.13659
0.137509
0.139266
0.141272
0.142529
0.142115
0.13961
0.135107
0.12892
0.121288
0.112231
0.101731
0.0898918
0.0774599
0.0650265
0.0540973
0.0443199
0.0355868
0.0222716
0.0186841
0.01543
0.0124799
0.0100828
0.00870912
0.00861797
0.0095228
0.0107166
0.011487
0.0114701
0.0107086
0.00951901
0.00832815
0.00730623
0.00629959
0.00497658
0.00362136
0.00245336
0.00178557
0.00154413
0.0019148
0.00280626
0.00400416
0.00561089
0.0082244
0.0131359
0.0218702
0.0350498
0.0515167
0.0686063
0.0834245
0.0941221
0.100318
0.102654
0.102043
0.0991552
0.0942951
0.087535
0.0789237
0.0686879
0.0574093
0.0461304
0.0362963
0.0294673
0.0268716
0.0290028
0.0354673
0.0451532
0.0566153
0.0684839
0.079744
0.0898261
0.0985461
0.105971
0.112281
0.117671
0.1223
0.126278
0.129689
0.132614
0.135143
0.13733
0.139038
0.139631
0.137535
0.13061
0.119252
0.108909
0.103557
0.102402
0.102944
0.104854
0.111403
0.124201
0.137288
0.144345
0.144591
0.141149
0.137394
0.135032
0.134346
0.135072
0.136888
0.139392
0.141853
0.143268
0.142801
0.140149
0.13552
0.129355
0.122044
0.113722
0.104332
0.0936826
0.0820228
0.0694933
0.0574756
0.0460694
0.0349799
0.0265943
0.0189805
0.0136761
0.0106768
0.0103586
0.0127499
0.016952
0.0214381
0.0248312
0.0263909
0.0260231
0.0240718
0.0211147
0.0178112
0.014741
0.012232
0.010297
0.00876758
0.00763646
0.00693188
0.00677552
0.00723988
0.00825212
0.0100636
0.0133998
0.01935
0.0289096
0.042214
0.0580309
0.0740391
0.087804
0.097766
0.103602
0.105887
0.105466
0.10298
0.0987234
0.0927376
0.0849891
0.075536
0.0646854
0.0531384
0.0420586
0.0329522
0.0273221
0.0262046
0.0298171
0.0375012
0.047978
0.059769
0.0715844
0.0825454
0.0922188
0.10052
0.107569
0.113563
0.118692
0.1231
0.126884
0.130113
0.132854
0.135185
0.13716
0.138666
0.139091
0.136884
0.129935
0.118658
0.108515
0.103357
0.102161
0.102339
0.103376
0.108481
0.120231
0.133436
0.141083
0.141599
0.137953
0.133876
0.13151
0.131335
0.132983
0.135844
0.139219
0.142206
0.143796
0.143255
0.140398
0.135525
0.12916
0.121806
0.113752
0.10508
0.0956054
0.0853526
0.0740046
0.0624381
0.0506284
0.0374933
0.018158
0.0113987
0.0102253
0.013573
0.0203104
0.0288587
0.0373592
0.0442752
0.0487722
0.0506373
0.0500386
0.0473691
0.0431681
0.0380769
0.0327747
0.0278658
0.0237638
0.0206383
0.0184961
0.0173188
0.0171216
0.0179402
0.0201828
0.0244456
0.0313934
0.0414128
0.0541878
0.0684839
0.0824249
0.0941759
0.102606
0.10752
0.109402
0.108943
0.106676
0.102845
0.097467
0.0904673
0.0818079
0.0716075
0.0602767
0.0486468
0.0379953
0.0298587
0.0256311
0.0261056
0.0311981
0.0399971
0.0510983
0.0630415
0.0746572
0.0852234
0.0944426
0.102317
0.109005
0.114705
0.119595
0.123801
0.127407
0.130467
0.133039
0.13519
0.136973
0.13829
0.13856
0.136282
0.129394
0.118259
0.108293
0.103372
0.102249
0.102147
0.102167
0.105269
0.115155
0.128126
0.13642
0.137381
0.133682
0.129368
0.127054
0.127486
0.130218
0.13431
0.138709
0.142305
0.144085
0.143441
0.140325
0.135128
0.128425
0.120768
0.112537
0.103939
0.0949245
0.0855707
0.0754596
0.0651827
0.0543085
0.0411963
0.0120394
0.0128572
0.0201616
0.0308997
0.0428566
0.0542005
0.0636601
0.070655
0.0750894
0.07708
0.076859
0.0747116
0.0709691
0.0660364
0.0604115
0.0546605
0.0493444
0.0449313
0.0417485
0.0400171
0.039893
0.0416061
0.0455439
0.051936
0.0607181
0.0713157
0.0826375
0.0933148
0.102123
0.108349
0.111899
0.113111
0.112448
0.110265
0.106718
0.101795
0.0954066
0.0874686
0.0779872
0.0671613
0.055518
0.0440248
0.0340588
0.0271437
0.0245044
0.0266424
0.0331595
0.0429204
0.0544501
0.0663613
0.0776407
0.0877341
0.0964719
0.103926
0.110274
0.115706
0.120378
0.124401
0.127842
0.130749
0.133165
0.135151
0.13676
0.137907
0.138048
0.135741
0.128987
0.118069
0.108274
0.103587
0.10259
0.102353
0.101512
0.102364
0.10939
0.121208
0.129776
0.131278
0.127805
0.123491
0.121388
0.12259
0.126623
0.132188
0.137806
0.142123
0.144125
0.143358
0.139943
0.134374
0.127267
0.119191
0.110552
0.10162
0.0924405
0.08319
0.0735272
0.0640466
0.0541065
0.0421288
0.0245352
0.0327467
0.0454528
0.0588549
0.071057
0.0811553
0.0889191
0.0944482
0.0979181
0.0995663
0.0996763
0.0984917
0.0962012
0.0929781
0.0890453
0.0847234
0.0804329
0.0766479
0.0738305
0.0723765
0.0725973
0.0747381
0.0787613
0.084436
0.0912516
0.0984317
0.105111
0.110558
0.11435
0.116399
0.116847
0.115902
0.113718
0.110349
0.105755
0.099846
0.0925249
0.0837386
0.0735491
0.0622471
0.0504915
0.0393891
0.0303898
0.0249461
0.0240478
0.0278638
0.0356889
0.0462122
0.0579526
0.0696494
0.0804729
0.090037
0.098284
0.105335
0.11137
0.116559
0.121036
0.124893
0.128185
0.13095
0.133226
0.135064
0.136516
0.137511
0.137546
0.135253
0.128702
0.118079
0.108461
0.103988
0.103125
0.102832
0.10135
0.100213
0.104077
0.113659
0.121392
0.122832
0.119684
0.115755
0.11417
0.116395
0.122019
0.129363
0.136449
0.141635
0.143918
0.14303
0.139294
0.133333
0.125813
0.117315
0.108257
0.0989285
0.0894334
0.0800022
0.0703748
0.0611596
0.0517103
0.040442
0.0635929
0.0679495
0.0773816
0.0872506
0.095844
0.102717
0.107871
0.111421
0.113579
0.11465
0.114905
0.114516
0.113577
0.112144
0.110288
0.108132
0.105885
0.10383
0.102296
0.101591
0.101964
0.103459
0.105894
0.108984
0.112338
0.115511
0.11811
0.119868
0.120653
0.120431
0.119203
0.116968
0.113697
0.109334
0.103795
0.096986
0.0888285
0.0793041
0.06854
0.056938
0.0453068
0.0348855
0.0271508
0.0234105
0.0243528
0.0297905
0.0387413
0.049786
0.0615078
0.0728203
0.0830919
0.0920937
0.0998569
0.10653
0.112281
0.117255
0.121558
0.125265
0.128423
0.131062
0.133212
0.134921
0.136235
0.137099
0.137053
0.134812
0.128526
0.118277
0.108857
0.10458
0.103841
0.103528
0.101558
0.0987619
0.0996428
0.106496
0.112532
0.112785
0.10922
0.105803
0.105053
0.108596
0.116161
0.125669
0.134548
0.140813
0.14348
0.142509
0.138463
0.132115
0.124198
0.115311
0.105882
0.0962112
0.0864322
0.0767927
0.0671054
0.0579526
0.0488245
0.0380179
0.105527
0.103626
0.106437
0.110734
0.114941
0.118411
0.120947
0.122616
0.123627
0.124174
0.124384
0.124324
0.124034
0.12354
0.122872
0.122077
0.121232
0.12045
0.119867
0.119613
0.119772
0.120321
0.121181
0.122212
0.12324
0.124069
0.124522
0.124445
0.123714
0.122229
0.119906
0.116676
0.112475
0.107226
0.100844
0.0932399
0.0843539
0.0742107
0.0630235
0.0513323
0.0401067
0.0306916
0.024522
0.0226764
0.0254841
0.0324033
0.0422325
0.0535258
0.0650008
0.0757808
0.0854328
0.0938627
0.101164
0.10749
0.112988
0.11777
0.12192
0.125496
0.128537
0.131066
0.13311
0.134707
0.135905
0.136659
0.136558
0.134403
0.128435
0.118631
0.109437
0.105313
0.104683
0.104374
0.102036