/*--------------------------------*- C++ -*----------------------------------*\
  =========                 |
  \\      /  F ield         | OpenFOAM: The Open Source CFD Toolbox
   \\    /   O peration     | Website:  https://openfoam.org
    \\  /    A nd           | Version:  10
     \\/     M anipulation  |
\*---------------------------------------------------------------------------*/
FoamFile
{
    format      ascii;
    class       volScalarField;
    location    "0.06";
    object      nut;
}
// * * * * * * * * * * * * * * * * * * * * * * * * * * * * * * * * * * * * * //

dimensions      [0 2 -1 0 0 0 0];

internalField   nonuniform List<scalar> 
6820
(
0
0
0
0
0
0
0
0
0
0
0
0
0
0
0
0
0
0
0
0
0
0
0
0
0
0
0
0
0
0
0
0
0
0
0
0
0
0
0
0
0
0
0
0
0
0
0
0
0
0
0
0
0
0
0
0
0
0
0
0
0
0
0
0
0
0
0
0
0
0
0
0
0
0
0
0
0
0
0
0
0
0
0
0
0
0
0
0
0
0
0
0
0
0
0
0
0
0
0
0
0
0
0
0
0
0
0
0
0
0
0
0
0
0
0
0
0
0
0
0
0
0
0
0
0
0
0
0
0
0
0
0
1.60813e-05
0
0
0
0
0
0
0
0
0
0
0
0
0
0
0
0
0
0
0
0
0
0
0
0
0
0
0
0
0
0
0
0
6.19015e-06
4.71256e-05
3.65427e-05
1.88387e-05
6.79297e-06
5.59825e-07
0
0
0
0
0
0
0
0
0
0
0
0
0
0
0
0
5.30847e-09
1.08749e-08
1.36077e-08
1.03445e-08
0
0
0
0
0
0
0
0
1.29565e-05
2.63699e-05
3.4218e-05
3.30239e-05
2.99521e-05
2.71999e-05
2.44627e-05
2.17365e-05
1.91222e-05
1.65634e-05
1.39108e-05
1.09194e-05
7.28141e-06
2.92861e-06
0
0
0
0
0
0
0
0
0
0
0
0
0
0
0
0
0
0
0
7.43259e-06
1.41765e-05
2.54959e-05
2.93817e-05
2.88657e-05
2.75893e-05
2.61203e-05
2.46693e-05
2.34067e-05
2.2334e-05
2.13658e-05
2.02294e-05
1.78479e-05
8.46187e-06
0
0
0
0
0
0
0
1.44821e-07
1.93766e-07
1.31067e-08
0
0
0
0
0
0
0
0
0
5.70717e-06
7.87153e-06
1.58362e-05
2.20357e-05
2.55772e-05
2.7767e-05
2.86408e-05
2.87418e-05
2.87559e-05
2.91123e-05
3.01994e-05
3.26008e-05
3.75699e-05
4.28364e-05
2.08924e-06
0
0
0
0
0
0
1.73099e-07
1.57193e-07
0
0
0
0
0
0
0
0
0
0
4.43093e-06
5.06045e-06
1.02465e-05
1.5453e-05
1.95522e-05
2.34662e-05
2.64481e-05
2.84122e-05
2.99994e-05
3.18137e-05
3.43537e-05
3.77778e-05
3.96162e-05
2.77937e-05
6.58391e-06
0
0
0
0
0
0
0
0
0
0
0
0
0
0
0
0
0
0
3.41426e-06
3.4448e-06
7.01333e-06
1.0978e-05
1.42659e-05
1.82218e-05
2.23221e-05
2.58168e-05
2.86132e-05
3.07271e-05
3.18652e-05
3.07864e-05
2.51177e-05
1.50428e-05
6.0183e-06
1.34074e-06
0
0
0
0
6.07177e-08
9.973e-09
0
0
0
0
0
0
0
0
0
0
0
2.5925e-06
2.25143e-06
4.71877e-06
7.86567e-06
1.03634e-05
1.33583e-05
1.67887e-05
2.00382e-05
2.27475e-05
2.44972e-05
2.45897e-05
2.21362e-05
1.68922e-05
1.0445e-05
5.11342e-06
1.85679e-06
3.00597e-07
0
0
0
0
0
0
0
0
0
0
0
0
0
0
6.33999e-07
0
1.95486e-06
1.38145e-06
3.01262e-06
5.48404e-06
7.42208e-06
9.63373e-06
1.22005e-05
1.46594e-05
1.66348e-05
1.7668e-05
1.72173e-05
1.50015e-05
1.13967e-05
7.44622e-06
4.17786e-06
2.00081e-06
7.74947e-07
1.57134e-07
0
0
0
0
0
0
0
0
0
0
0
0
1.15678e-06
2.30369e-06
0
1.46405e-06
7.32542e-07
1.69277e-06
3.52023e-06
4.94299e-06
6.47724e-06
8.20018e-06
9.7476e-06
1.08397e-05
1.12018e-05
1.05683e-05
8.90981e-06
6.56767e-06
4.11831e-06
2.05358e-06
5.75397e-07
0
0
0
0
0
0
0
0
0
0
0
0
0
1.76313e-07
2.05529e-06
3.58659e-06
0
1.08822e-06
2.48272e-07
6.98611e-07
1.96827e-06
2.94606e-06
3.97078e-06
5.10785e-06
6.06721e-06
6.64133e-06
6.68943e-06
6.12074e-06
4.99772e-06
3.55775e-06
2.10617e-06
8.78018e-07
0
0
0
0
0
0
0
0
0
0
0
0
0
0
3.66704e-07
2.81453e-06
5.18114e-06
0
7.96814e-07
0
0
7.29336e-07
1.30659e-06
1.90111e-06
2.56738e-06
3.08112e-06
3.29579e-06
3.15088e-06
2.63514e-06
1.82227e-06
8.64228e-07
0
0
0
0
0
0
0
0
0
0
0
0
0
0
0
0
0
0
5.81751e-06
0
5.67707e-07
0
0
0
1.35614e-08
2.91054e-07
6.43201e-07
9.02138e-07
9.65172e-07
8.07839e-07
4.42007e-07
0
0
0
0
0
0
0
0
0
0
0
0
0
0
0
0
0
0
0
0
4.08961e-06
0
3.83622e-07
0
0
0
0
0
0
0
0
0
0
0
0
0
0
0
0
0
0
0
0
0
0
0
0
0
0
0
0
1.54766e-07
9.80562e-07
2.8977e-06
0
2.31395e-07
0
0
0
0
0
0
0
0
0
0
0
0
0
0
0
0
0
0
0
0
0
0
0
0
0
0
1.17109e-07
4.39397e-07
7.57971e-07
1.13824e-06
1.72238e-06
0
1.0019e-07
0
0
0
0
0
0
0
0
0
0
0
0
0
0
0
0
0
0
0
0
0
0
0
0
0
1.8332e-07
5.90648e-07
9.54068e-07
1.25617e-06
1.36652e-06
1.10416e-06
0
0
0
0
0
0
0
0
0
0
0
0
0
0
0
0
0
0
0
0
0
0
0
0
0
0
3.51234e-07
7.88805e-07
1.19347e-06
1.54104e-06
1.79523e-06
1.70991e-06
8.77635e-07
0
0
0
0
0
0
0
0
0
0
0
0
0
0
0
0
0
0
0
0
0
0
0
0
5.48025e-08
5.52411e-07
1.0404e-06
1.50577e-06
1.93389e-06
2.30465e-06
2.57094e-06
2.38822e-06
1.13507e-06
0
0
0
0
0
0
0
0
0
0
0
0
0
0
0
0
0
0
0
0
0
0
0
9.59424e-08
6.30241e-07
1.15774e-06
1.66899e-06
2.15341e-06
2.60002e-06
2.99641e-06
3.29154e-06
3.0568e-06
1.50505e-06
0
0
0
0
0
0
0
0
0
0
0
0
0
0
0
0
0
0
0
0
0
0
4.92772e-07
1.06717e-06
1.63745e-06
2.19641e-06
2.73632e-06
3.24887e-06
3.72569e-06
4.15885e-06
4.49096e-06
4.22392e-06
2.40916e-06
0
0
0
0
0
0
0
0
0
0
0
0
0
0
0
0
0
0
0
0
0
4.11083e-07
1.02511e-06
1.63708e-06
2.24112e-06
2.8314e-06
3.40212e-06
3.94788e-06
4.46413e-06
4.94809e-06
5.33835e-06
5.07475e-06
3.10001e-06
0
0
0
0
0
0
0
0
0
0
0
0
0
0
0
0
0
0
0
5.14622e-07
1.16021e-06
1.80715e-06
2.45078e-06
3.08643e-06
3.70972e-06
4.31624e-06
4.90179e-06
5.46274e-06
5.99626e-06
6.50118e-06
6.91061e-06
6.62322e-06
4.46708e-06
0
0
0
0
0
0
0
0
0
0
0
0
0
0
0
0
0
0
2.28186e-07
9.13158e-07
1.60075e-06
2.28633e-06
2.96572e-06
3.635e-06
4.29062e-06
4.92951e-06
5.54923e-06
6.14821e-06
6.72576e-06
7.28289e-06
7.74949e-06
7.48453e-06
5.26118e-06
0
0
0
0
0
0
0
0
0
0
0
0
0
0
0
1.75073e-07
8.72667e-07
1.57213e-06
2.27028e-06
2.96423e-06
3.651e-06
4.32803e-06
4.99292e-06
5.64333e-06
6.27719e-06
6.89276e-06
7.48867e-06
8.06407e-06
8.61859e-06
9.15286e-06
9.59326e-06
9.28596e-06
6.93435e-06
0
0
0
0
0
0
0
0
0
0
0
0
0
0
0
3.92667e-07
1.13163e-06
1.86839e-06
2.60017e-06
3.32466e-06
4.03942e-06
4.74232e-06
5.43145e-06
6.10513e-06
6.76202e-06
7.4012e-06
8.02215e-06
8.6249e-06
9.20989e-06
9.77844e-06
1.02561e-05
9.97176e-06
7.6269e-06
0
0
0
0
0
0
0
0
0
0
1.2953e-07
8.83751e-07
1.61793e-06
2.33138e-06
3.02554e-06
3.70273e-06
4.36495e-06
5.01362e-06
5.64987e-06
6.27434e-06
6.88704e-06
7.48771e-06
8.07587e-06
8.65089e-06
9.21207e-06
9.75875e-06
1.02903e-05
1.08063e-05
1.13061e-05
1.17891e-05
1.21801e-05
1.1826e-05
9.40823e-06
0
0
0
0
0
0
0
0
0
0
5.84499e-07
1.33665e-06
2.05564e-06
2.74653e-06
3.41521e-06
4.067e-06
4.70563e-06
5.33339e-06
5.9516e-06
6.56063e-06
7.16014e-06
7.74934e-06
8.32722e-06
8.89264e-06
9.44446e-06
9.98169e-06
1.05035e-05
1.10093e-05
1.14986e-05
1.19714e-05
1.23553e-05
1.20104e-05
9.68491e-06
0
1.52515e-07
0
8.20935e-07
2.32105e-06
3.49919e-06
4.46708e-06
5.3266e-06
6.0473e-06
6.62141e-06
7.08973e-06
7.48556e-06
7.83279e-06
8.1496e-06
8.4518e-06
8.75147e-06
9.05599e-06
9.36931e-06
9.69306e-06
1.00272e-05
1.03704e-05
1.07206e-05
1.10752e-05
1.14315e-05
1.17868e-05
1.21383e-05
1.24835e-05
1.28197e-05
1.31443e-05
1.34545e-05
1.36816e-05
1.32511e-05
1.09813e-05
0
0
0
2.74125e-06
4.89456e-06
6.06149e-06
6.77085e-06
7.34607e-06
7.72935e-06
7.9348e-06
8.06057e-06
8.1485e-06
8.22093e-06
8.29758e-06
8.39481e-06
8.52074e-06
8.67692e-06
8.86194e-06
9.07238e-06
9.30369e-06
9.55066e-06
9.8079e-06
1.00702e-05
1.03325e-05
1.05903e-05
1.08396e-05
1.10771e-05
1.13001e-05
1.15071e-05
1.16968e-05
1.18149e-05
1.13852e-05
9.4712e-06
2.33877e-05
1.53537e-05
1.17809e-05
1.17087e-05
1.26799e-05
1.32973e-05
1.35685e-05
1.36857e-05
1.35595e-05
1.32123e-05
1.2767e-05
1.22904e-05
1.18139e-05
1.13668e-05
1.09743e-05
1.06462e-05
1.03814e-05
1.0176e-05
1.00242e-05
9.91938e-06
9.85426e-06
9.82152e-06
9.8142e-06
9.82568e-06
9.84985e-06
9.88116e-06
9.91467e-06
9.94609e-06
9.97188e-06
9.98888e-06
9.95787e-06
9.55977e-06
8.12682e-06
2.07858e-05
2.73552e-05
1.79848e-05
1.32029e-05
1.20893e-05
1.20286e-05
1.19746e-05
1.1729e-05
1.12833e-05
1.07246e-05
1.01205e-05
9.51516e-06
8.9452e-06
8.44881e-06
8.0421e-06
7.71928e-06
7.46996e-06
7.28346e-06
7.14848e-06
7.05488e-06
6.99314e-06
6.95536e-06
6.93553e-06
6.92887e-06
6.93183e-06
6.94184e-06
6.957e-06
6.97578e-06
6.99693e-06
7.01891e-06
7.01536e-06
6.76487e-06
5.82189e-06
6.42642e-05
6.01874e-05
3.51845e-05
2.25148e-05
1.49894e-05
9.45812e-06
5.08993e-06
1.4548e-06
0
0
0
0
0
0
0
0
0
0
0
0
0
0
0
0
0
0
0
0
0
0
0
0
0
0
0
0
0
0
0
0
0
0
0
0
0
0
0
0
0
0
0
0
0
0
0
0
0
0
0
0
0
0
0
0
0
0
4.03273e-08
0
0
0
0
0
0
0
0
0
0
0
0
0
0
0
0
0
0
0
0
0
0
0
0
0
0
0
0
0
0
0
0
2.18324e-08
0
0
0
0
0
0
0
0
0
0
0
0
0
0
0
0
0
0
0
0
0
0
0
0
0
0
0
0
0
0
0
0
1.0439e-08
0
0
0
0
0
0
0
0
0
0
0
0
0
0
0
0
0
0
0
0
0
0
0
0
0
0
0
0
0
0
0
0
0
0
0
0
2.1081e-07
1.73972e-06
2.10529e-06
2.25946e-06
2.93287e-06
2.84813e-06
3.95166e-08
0
0
0
0
0
0
0
1.34249e-05
2.88557e-05
4.59499e-05
6.78089e-05
0.000101388
0.000164552
0.000293604
0
0
0
0
0
3.39806e-06
1.05919e-05
5.05626e-06
1.36568e-06
5.34641e-06
7.93065e-06
9.30301e-06
9.87461e-06
9.76082e-06
8.9814e-06
7.67379e-06
6.06752e-06
4.3919e-06
2.82281e-06
1.47112e-06
3.83915e-07
0
0
0
0
0
0
0
0
0
0
0
0
0
0
0
0
0
0
0
0
0
0
0
4.82301e-06
7.0277e-06
1.83855e-06
0
0
0
0
0
0
0
0
0
0
0
0
0
0
0
0
0
0
0
0
0
0
0
0
0
0
0
0
0
0
0
0
0
2.43081e-06
3.9585e-06
5.44225e-06
6.41658e-06
5.2965e-06
3.47e-06
0
0
0
0
0
0
0
9.81486e-06
2.7402e-05
4.7035e-05
7.12813e-05
0.000106516
0.000169189
0.00028945
0
0
0
0
0
9.44014e-06
8.82889e-06
2.52611e-06
3.82295e-06
7.54139e-06
9.93965e-06
1.13265e-05
1.18924e-05
1.16322e-05
1.06303e-05
9.10854e-06
7.32784e-06
5.51024e-06
3.81725e-06
2.35346e-06
1.16809e-06
2.49777e-07
0
0
0
0
0
0
0
0
0
0
0
0
0
0
0
0
0
0
0
0
0
0
3.95863e-06
6.61602e-06
3.08693e-06
0
0
0
0
0
0
0
0
0
0
0
0
0
0
0
0
0
0
0
0
0
0
0
0
0
0
0
0
0
0
0
0
4.59698e-07
3.99219e-06
8.35568e-06
1.08275e-05
8.84296e-06
5.15868e-06
3.18834e-06
1.05541e-06
0
0
0
0
0
0
2.42863e-06
2.01329e-05
4.03823e-05
6.45092e-05
9.69938e-05
0.000146012
0.000127894
0
0
0
0
7.4554e-07
1.06493e-05
5.40649e-06
2.01404e-06
6.14251e-06
9.4607e-06
1.16875e-05
1.30251e-05
1.34567e-05
1.29879e-05
1.17931e-05
1.01371e-05
8.27113e-06
6.39192e-06
4.64384e-06
3.12669e-06
1.89273e-06
9.37184e-07
1.93664e-07
0
0
0
0
0
0
0
0
0
0
0
0
0
0
0
0
0
0
0
0
0
2.75102e-06
5.34733e-06
3.59702e-06
0
0
0
0
0
0
0
0
0
0
0
0
0
0
0
0
0
0
0
0
0
0
0
0
0
0
0
0
0
0
0
0
3.20148e-06
9.46624e-06
1.00344e-05
6.97394e-06
4.54716e-06
2.05618e-06
2.37088e-07
0
0
0
0
0
0
0
0
8.23569e-06
2.60373e-05
4.60397e-05
6.73303e-05
7.87402e-05
3.14561e-05
0
0
0
0
9.47652e-06
7.58875e-06
1.68613e-06
4.27968e-06
8.28145e-06
1.12836e-05
1.33981e-05
1.45958e-05
1.47956e-05
1.40937e-05
1.27337e-05
1.09839e-05
9.06646e-06
7.15146e-06
5.37008e-06
3.82011e-06
2.55839e-06
1.58741e-06
8.46936e-07
2.28196e-07
0
0
0
0
0
0
0
0
0
0
0
0
0
0
0
0
0
0
0
0
1.45817e-06
3.5879e-06
3.41396e-06
0
0
0
0
0
0
0
0
0
0
0
0
0
0
0
0
0
0
0
0
0
0
0
0
0
0
0
0
0
0
0
0
1.52324e-06
1.34489e-06
2.69456e-06
2.13579e-06
1.34545e-06
7.04294e-07
0
0
0
0
0
0
0
0
0
0
1.14176e-05
2.52471e-05
3.74415e-05
4.42829e-05
4.85713e-05
8.70782e-05
0
0
5.51422e-06
8.88816e-06
3.35883e-06
1.7846e-06
6.70419e-06
1.03743e-05
1.32e-05
1.51681e-05
1.61096e-05
1.6016e-05
1.50824e-05
1.35798e-05
1.17524e-05
9.7899e-06
7.84123e-06
6.02908e-06
4.45157e-06
3.17171e-06
2.20037e-06
1.48223e-06
9.06631e-07
3.57242e-07
0
0
0
0
0
0
0
0
0
0
0
0
0
0
0
0
0
0
0
1.51377e-07
1.46384e-06
2.5187e-06
0
0
0
0
0
0
0
0
0
0
0
0
0
0
0
0
0
0
0
0
0
0
0
0
0
0
0
0
0
0
0
1.09332e-07
4.21641e-07
8.31402e-07
1.18451e-06
1.31649e-06
1.17127e-06
6.67439e-07
0
0
0
0
0
0
0
0
0
0
6.00909e-06
1.78642e-05
3.07217e-05
4.79159e-05
8.47051e-05
0.000170171
0
2.09841e-06
8.66036e-06
4.58068e-06
2.67975e-06
5.36175e-06
9.19814e-06
1.25479e-05
1.52129e-05
1.69115e-05
1.75023e-05
1.70996e-05
1.59568e-05
1.43338e-05
1.24395e-05
1.04354e-05
8.45477e-06
6.61479e-06
5.01593e-06
3.72927e-06
2.77515e-06
2.10121e-06
1.58991e-06
1.11558e-06
6.00043e-07
1.95573e-08
0
0
0
0
0
0
0
0
0
0
0
0
0
0
0
0
0
0
0
9.11702e-07
0
0
0
0
0
0
0
0
0
0
0
0
0
0
0
0
0
0
0
0
0
0
0
0
0
0
0
0
0
0
0
7.25952e-07
1.49749e-06
2.02354e-06
2.2531e-06
2.19021e-06
1.82249e-06
1.18675e-06
2.05183e-07
0
0
0
0
0
0
0
0
0
5.75011e-06
1.65138e-05
2.92083e-05
4.62568e-05
6.7188e-05
2.37205e-05
2.521e-06
7.45809e-06
4.82178e-06
9.07974e-07
4.14965e-06
7.97294e-06
1.15879e-05
1.48049e-05
1.72098e-05
1.85116e-05
1.87132e-05
1.80231e-05
1.67036e-05
1.49816e-05
1.30316e-05
1.09918e-05
8.98335e-06
7.12067e-06
5.50916e-06
4.23059e-06
3.31531e-06
2.70997e-06
2.28447e-06
1.90105e-06
1.47565e-06
9.8239e-07
4.28141e-07
0
0
0
0
0
0
0
0
0
0
0
0
0
0
0
0
0
0
0
0
0
0
0
0
0
0
0
0
0
0
0
0
0
0
0
0
0
0
0
0
0
0
0
0
0
0
0
0
0
3.17398e-07
1.30516e-06
2.13749e-06
2.63227e-06
2.75966e-06
2.5507e-06
2.02394e-06
1.25008e-06
3.07667e-07
0
0
0
0
0
0
0
0
0
4.6041e-06
1.19657e-05
1.90189e-05
2.23313e-05
7.90431e-06
3.03123e-06
5.68691e-06
3.93673e-06
1.32481e-06
3.56274e-06
6.90827e-06
1.05056e-05
1.40679e-05
1.70598e-05
1.90393e-05
1.98767e-05
1.97056e-05
1.87707e-05
1.731e-05
1.55117e-05
1.35191e-05
1.14511e-05
9.42011e-06
7.54124e-06
5.92853e-06
4.67737e-06
3.82705e-06
3.31653e-06
2.99682e-06
2.71751e-06
2.39064e-06
1.9892e-06
1.51944e-06
9.97563e-07
4.36959e-07
0
0
0
0
0
0
0
0
0
0
0
0
0
0
0
0
0
0
0
0
0
0
0
0
0
0
0
0
0
0
0
0
0
0
0
0
0
0
0
0
0
0
0
0
0
0
0
7.75671e-07
1.68128e-06
2.3961e-06
2.76084e-06
2.76275e-06
2.44854e-06
1.85476e-06
1.03235e-06
1.13894e-07
0
0
0
0
0
0
0
0
0
0
0
0
0
1.41538e-06
3.35076e-06
2.3096e-06
1.32613e-06
3.2984e-06
6.06916e-06
9.44235e-06
1.31408e-05
1.65534e-05
1.91171e-05
2.05705e-05
2.09505e-05
2.04593e-05
1.93325e-05
1.77689e-05
1.5918e-05
1.3896e-05
1.18068e-05
9.75872e-06
7.87188e-06
6.27331e-06
5.07436e-06
4.31952e-06
3.93035e-06
3.73346e-06
3.56756e-06
3.34414e-06
3.03726e-06
2.65326e-06
2.20807e-06
1.71553e-06
1.18385e-06
6.15521e-07
9.982e-09
0
0
0
0
0
0
0
0
0
0
0
0
0
0
0
0
0
0
0
0
0
0
0
0
0
0
0
0
0
0
0
0
0
0
0
0
0
0
0
0
0
0
0
4.69905e-07
1.29664e-06
2.06146e-06
2.59236e-06
2.77732e-06
2.62277e-06
2.19136e-06
1.54855e-06
7.48005e-07
0
0
0
0
0
0
0
0
0
0
0
0
0
8.4618e-08
1.10957e-06
8.52013e-07
1.5213e-06
3.15955e-06
5.41845e-06
8.48987e-06
1.21529e-05
1.57981e-05
1.88029e-05
2.08004e-05
2.17229e-05
2.1708e-05
2.09699e-05
1.97096e-05
1.80812e-05
1.6199e-05
1.41578e-05
1.20527e-05
9.99322e-06
8.10955e-06
6.54588e-06
5.4303e-06
4.80469e-06
4.56137e-06
4.4999e-06
4.45244e-06
4.33374e-06
4.12114e-06
3.82235e-06
3.4536e-06
3.02913e-06
2.55798e-06
2.04424e-06
1.49009e-06
8.97705e-07
2.70932e-07
0
0
0
0
0
0
0
0
0
0
0
0
0
0
0
0
0
0
0
0
0
0
0
0
0
0
0
0
0
0
0
0
0
0
0
0
0
0
0
0
3.59931e-07
1.30632e-06
2.16577e-06
2.78763e-06
3.0721e-06
2.98553e-06
2.60752e-06
2.04225e-06
1.34567e-06
5.2991e-07
0
0
0
0
0
0
0
0
0
0
0
0
0
2.22289e-07
7.81067e-07
1.64644e-06
2.92011e-06
4.85319e-06
7.66591e-06
1.11879e-05
1.48874e-05
1.81628e-05
2.05885e-05
2.20036e-05
2.24675e-05
2.21538e-05
2.12516e-05
1.99137e-05
1.8252e-05
1.63531e-05
1.42988e-05
1.2182e-05
1.01188e-05
8.25417e-06
6.75312e-06
5.75853e-06
5.2967e-06
5.2189e-06
5.2997e-06
5.37125e-06
5.35536e-06
5.23432e-06
5.01814e-06
4.72416e-06
4.36747e-06
3.95798e-06
3.50091e-06
2.99921e-06
2.45583e-06
1.87683e-06
1.27167e-06
6.49659e-07
2.55783e-08
0
0
0
0
6.42779e-07
9.90943e-08
0
0
0
0
0
0
0
0
0
0
0
0
0
0
0
0
0
0
0
0
0
0
0
0
0
0
0
0
0
0
0
1.55625e-06
2.56751e-06
3.22587e-06
3.44185e-06
3.30995e-06
2.9888e-06
2.61255e-06
2.12161e-06
1.37138e-06
3.40201e-07
0
0
0
0
0
0
0
0
0
0
0
0
0
3.39863e-07
1.22838e-06
2.46279e-06
4.29558e-06
6.92678e-06
1.02531e-05
1.38652e-05
1.72435e-05
1.99585e-05
2.1783e-05
2.26993e-05
2.28256e-05
2.23227e-05
2.13325e-05
1.99599e-05
1.82843e-05
1.63762e-05
1.43123e-05
1.21891e-05
1.01336e-05
8.31019e-06
6.90763e-06
6.07679e-06
5.81035e-06
5.9103e-06
6.13373e-06
6.32043e-06
6.40261e-06
6.36871e-06
6.23158e-06
6.00996e-06
5.72e-06
5.3727e-06
4.97426e-06
4.52805e-06
4.03731e-06
3.50833e-06
2.95077e-06
2.37553e-06
1.79864e-06
1.26043e-06
8.69467e-07
8.32255e-07
1.33557e-06
2.02716e-06
9.27307e-07
0
0
0
0
0
0
0
0
0
0
0
0
0
0
0
0
0
0
0
0
0
0
0
0
0
0
0
0
0
0
0
3.08853e-06
3.45965e-06
3.4442e-06
3.24748e-06
3.17968e-06
3.24189e-06
3.11464e-06
2.51649e-06
1.39521e-06
0
0
0
0
0
0
0
0
0
0
0
0
0
0
4.0633e-07
1.74788e-06
3.6075e-06
6.12895e-06
9.25519e-06
1.26992e-05
1.60496e-05
1.89184e-05
2.10526e-05
2.23729e-05
2.29364e-05
2.28613e-05
2.22653e-05
2.12406e-05
1.98573e-05
1.81765e-05
1.62624e-05
1.41927e-05
1.2071e-05
1.004e-05
8.28801e-06
7.02837e-06
6.40606e-06
6.35913e-06
6.63969e-06
6.99963e-06
7.29369e-06
7.46686e-06
7.51448e-06
7.45248e-06
7.30101e-06
7.07706e-06
6.79239e-06
6.45382e-06
6.0652e-06
5.62998e-06
5.15415e-06
4.64731e-06
4.12109e-06
3.59108e-06
3.09365e-06
2.72506e-06
2.66325e-06
3.04395e-06
3.45199e-06
1.87954e-06
0
0
0
0
0
0
0
0
0
0
0
0
0
0
0
0
0
0
0
0
0
0
0
0
0
0
0
0
0
0
0
3.6383e-06
3.17207e-06
3.11561e-06
3.51891e-06
4.00998e-06
4.15398e-06
3.69731e-06
2.59977e-06
9.71662e-07
0
0
0
0
0
0
0
0
0
0
0
0
0
0
6.18019e-07
2.58078e-06
5.05801e-06
8.01978e-06
1.12769e-05
1.45264e-05
1.74477e-05
1.97993e-05
2.1467e-05
2.24516e-05
2.28196e-05
2.26535e-05
2.20249e-05
2.09919e-05
1.96068e-05
1.7924e-05
1.60069e-05
1.3937e-05
1.1829e-05
9.84598e-06
8.20525e-06
7.14058e-06
6.76824e-06
6.953e-06
7.40701e-06
7.89154e-06
8.28197e-06
8.53741e-06
8.66031e-06
8.66963e-06
8.58662e-06
8.42866e-06
8.20766e-06
7.93056e-06
7.60127e-06
7.22324e-06
6.80228e-06
6.34804e-06
5.87248e-06
5.39036e-06
4.93368e-06
4.58585e-06
4.49758e-06
4.76095e-06
4.91404e-06
2.94681e-06
0
0
0
0
0
3.33553e-07
0
0
0
0
0
0
0
0
0
0
0
0
0
0
0
0
0
0
0
0
0
0
0
0
0
3.8476e-06
3.65513e-06
4.26011e-06
4.79661e-06
4.9435e-06
4.53751e-06
3.52702e-06
1.9739e-06
7.74578e-09
0
0
0
0
0
0
0
0
0
0
0
0
0
0
8.98372e-07
3.43097e-06
6.31617e-06
9.43385e-06
1.25767e-05
1.55045e-05
1.8013e-05
1.99782e-05
2.13592e-05
2.21718e-05
2.2457e-05
2.226e-05
2.16236e-05
2.05905e-05
1.92065e-05
1.75242e-05
1.56081e-05
1.35466e-05
1.14697e-05
9.56681e-06
8.08782e-06
7.27428e-06
7.18274e-06
7.59644e-06
8.20745e-06
8.79998e-06
9.27357e-06
9.60174e-06
9.79374e-06
9.87112e-06
9.85564e-06
9.76436e-06
9.60863e-06
9.39499e-06
9.12703e-06
8.8079e-06
8.44314e-06
8.04226e-06
7.61744e-06
7.18297e-06
6.76662e-06
6.43915e-06
6.32584e-06
6.48083e-06
6.40705e-06
4.11561e-06
0
0
0
0
0
2.55078e-06
1.76832e-06
0
0
0
0
0
0
0
0
0
0
0
0
0
0
0
0
0
0
0
0
0
0
0
0
5.33089e-06
5.29982e-06
5.50297e-06
5.4056e-06
4.906e-06
3.95918e-06
2.56315e-06
7.77475e-07
0
0
0
0
0
0
0
0
0
0
0
0
0
0
0
1.13005e-06
4.01537e-06
7.06474e-06
1.01399e-05
1.3075e-05
1.57132e-05
1.79382e-05
1.96836e-05
2.09247e-05
2.16632e-05
2.19156e-05
2.1707e-05
2.10685e-05
2.00372e-05
1.86564e-05
1.69778e-05
1.50685e-05
1.30275e-05
1.10059e-05
9.22637e-06
7.9701e-06
7.46076e-06
7.66275e-06
8.28714e-06
9.03116e-06
9.71199e-06
1.02545e-05
1.06459e-05
1.09015e-05
1.10446e-05
1.10965e-05
1.10733e-05
1.09848e-05
1.08369e-05
1.06324e-05
1.03741e-05
1.00671e-05
9.72056e-06
9.3467e-06
8.95947e-06
8.58313e-06
8.27699e-06
8.143e-06
8.20199e-06
7.93178e-06
5.38565e-06
0
0
0
0
0
4.53878e-06
4.97961e-06
2.87555e-06
7.67926e-07
0
0
0
0
0
0
0
0
0
0
0
0
0
0
0
0
0
0
0
0
0
0
6.11442e-06
5.85347e-06
5.46166e-06
4.79786e-06
3.86307e-06
2.63742e-06
1.11009e-06
0
0
0
0
0
0
0
0
0
0
0
0
0
0
0
0
1.29559e-06
4.281e-06
7.30506e-06
1.02489e-05
1.2994e-05
1.54369e-05
1.74989e-05
1.91278e-05
2.02951e-05
2.09912e-05
2.12216e-05
2.10037e-05
2.03641e-05
1.93362e-05
1.79608e-05
1.6289e-05
1.43942e-05
1.23908e-05
1.04587e-05
8.85907e-06
7.89326e-06
7.72697e-06
8.21195e-06
9.01534e-06
9.86338e-06
1.06114e-05
1.12088e-05
1.16549e-05
1.19697e-05
1.21772e-05
1.22973e-05
1.23439e-05
1.23251e-05
1.22452e-05
1.21064e-05
1.19109e-05
1.16632e-05
1.13721e-05
1.10495e-05
1.0709e-05
1.03719e-05
1.00873e-05
9.93603e-06
9.90987e-06
9.4702e-06
6.7306e-06
0
0
0
0
0
6.3376e-06
8.03963e-06
6.18652e-06
3.92012e-06
1.51765e-06
0
0
0
0
0
0
0
0
0
0
0
0
0
0
0
0
0
0
0
0
0
4.34421e-06
4.34421e-06
3.95443e-06
3.18281e-06
2.1672e-06
9.35312e-07
0
0
0
0
0
0
0
0
0
0
0
0
0
0
0
0
0
1.42263e-06
4.33777e-06
7.24215e-06
1.00364e-05
1.26264e-05
1.49286e-05
1.68753e-05
1.84168e-05
1.95222e-05
2.01783e-05
2.03864e-05
2.01594e-05
1.95193e-05
1.84955e-05
1.71263e-05
1.54652e-05
1.35957e-05
1.16553e-05
9.86027e-06
8.51066e-06
7.89993e-06
8.08885e-06
8.82258e-06
9.76389e-06
1.06847e-05
1.14792e-05
1.21187e-05
1.26126e-05
1.29839e-05
1.32557e-05
1.34453e-05
1.35639e-05
1.36172e-05
1.36078e-05
1.35371e-05
1.34066e-05
1.32204e-05
1.29865e-05
1.27166e-05
1.24239e-05
1.21271e-05
1.18668e-05
1.17051e-05
1.1609e-05
1.1032e-05
8.16333e-06
4.91144e-07
0
0
0
0
8.03829e-06
1.09143e-05
9.40931e-06
7.00473e-06
4.44869e-06
6.88344e-07
0
0
0
0
0
0
0
0
0
0
0
0
0
0
0
0
0
0
0
0
2.19863e-06
2.1757e-06
1.93686e-06
1.28113e-06
3.69735e-07
0
0
0
0
0
0
0
0
0
0
0
0
0
0
0
0
0
0
1.54027e-06
4.30951e-06
7.05641e-06
9.69152e-06
1.21305e-05
1.42981e-05
1.61318e-05
1.75846e-05
1.86259e-05
1.92402e-05
1.94247e-05
1.91875e-05
1.85454e-05
1.75242e-05
1.61614e-05
1.45165e-05
1.269e-05
1.08503e-05
9.25637e-06
8.23572e-06
8.02478e-06
8.54589e-06
9.47523e-06
1.05088e-05
1.14715e-05
1.22936e-05
1.29648e-05
1.35018e-05
1.39286e-05
1.42656e-05
1.45267e-05
1.47196e-05
1.48474e-05
1.49111e-05
1.49108e-05
1.48476e-05
1.47247e-05
1.45495e-05
1.43329e-05
1.40876e-05
1.38304e-05
1.35943e-05
1.34251e-05
1.32688e-05
1.25784e-05
9.63115e-06
2.12871e-06
0
0
0
0
9.70455e-06
1.35526e-05
1.24619e-05
9.95487e-06
7.22146e-06
3.49004e-06
0
0
0
0
0
0
0
0
0
0
0
0
0
0
0
0
0
0
0
0
6.32636e-07
2.82174e-07
5.81174e-08
0
0
0
0
0
0
0
0
0
0
0
0
0
0
0
0
0
0
0
0
1.66747e-06
4.25673e-06
6.8218e-06
9.2805e-06
1.15559e-05
1.35793e-05
1.5293e-05
1.66524e-05
1.76262e-05
1.81955e-05
1.8353e-05
1.81015e-05
1.74533e-05
1.64317e-05
1.50764e-05
1.34586e-05
1.17038e-05
1.00196e-05
8.70742e-06
8.08891e-06
8.28312e-06
9.07885e-06
1.01398e-05
1.12198e-05
1.21964e-05
1.30303e-05
1.37259e-05
1.4304e-05
1.47868e-05
1.5191e-05
1.55261e-05
1.57959e-05
1.60009e-05
1.61406e-05
1.62141e-05
1.62216e-05
1.61656e-05
1.60527e-05
1.58931e-05
1.5699e-05
1.54855e-05
1.52794e-05
1.51132e-05
1.49164e-05
1.41485e-05
1.11855e-05
3.95776e-06
0
0
0
1.66283e-06
1.14511e-05
1.59869e-05
1.53143e-05
1.27316e-05
9.78691e-06
6.07574e-06
0
0
0
0
0
0
0
0
0
0
0
0
0
0
0
0
0
0
0
0
0
0
0
0
0
0
0
0
0
0
0
0
0
0
0
0
0
0
0
0
0
0
0
1.79816e-06
4.18607e-06
6.55112e-06
8.81903e-06
1.09202e-05
1.27919e-05
1.43801e-05
1.56411e-05
1.65421e-05
1.70606e-05
1.71848e-05
1.69127e-05
1.6253e-05
1.52283e-05
1.3886e-05
1.23161e-05
1.06782e-05
9.22471e-06
8.28321e-06
8.10874e-06
8.66252e-06
9.65107e-06
1.07775e-05
1.18622e-05
1.2829e-05
1.36634e-05
1.43794e-05
1.49988e-05
1.55399e-05
1.6014e-05
1.64257e-05
1.6775e-05
1.70601e-05
1.72784e-05
1.74282e-05
1.75088e-05
1.75216e-05
1.74722e-05
1.73698e-05
1.72258e-05
1.70539e-05
1.68758e-05
1.67126e-05
1.64808e-05
1.56519e-05
1.27093e-05
5.82763e-06
0
0
0
3.88037e-06
1.32644e-05
1.81933e-05
1.78925e-05
1.52467e-05
1.20499e-05
8.29425e-06
1.85346e-06
0
0
0
0
0
0
0
0
0
0
0
0
0
0
0
0
0
0
0
0
0
0
0
0
0
0
0
0
0
0
0
0
0
0
0
0
0
0
0
0
0
0
1.93059e-06
4.1031e-06
6.2562e-06
8.32357e-06
1.02426e-05
1.19556e-05
1.34116e-05
1.45673e-05
1.5388e-05
1.58481e-05
1.59311e-05
1.56309e-05
1.49541e-05
1.39275e-05
1.26124e-05
1.11274e-05
9.67397e-06
8.54406e-06
8.04579e-06
8.29865e-06
9.12128e-06
1.0212e-05
1.13431e-05
1.23978e-05
1.33376e-05
1.41658e-05
1.49016e-05
1.55645e-05
1.61672e-05
1.67148e-05
1.72065e-05
1.7639e-05
1.80079e-05
1.83096e-05
1.85412e-05
1.87008e-05
1.87892e-05
1.88106e-05
1.87731e-05
1.86876e-05
1.85665e-05
1.84275e-05
1.82832e-05
1.80419e-05
1.71927e-05
1.43293e-05
7.85942e-06
0
0
0
6.36507e-06
1.51848e-05
2.02451e-05
2.02301e-05
1.75144e-05
1.40146e-05
1.00853e-05
4.1037e-06
0
0
0
0
0
0
0
0
0
0
0
0
0
0
0
0
0
3.56806e-07
4.76465e-07
0
0
0
0
0
0
0
0
0
0
0
0
0
0
0
0
0
0
0
0
0
0
1.39813e-07
2.0476e-06
3.99849e-06
5.93416e-06
7.79617e-06
9.52839e-06
1.10778e-05
1.23959e-05
1.34397e-05
1.41727e-05
1.45661e-05
1.45996e-05
1.42643e-05
1.35686e-05
1.25496e-05
1.1292e-05
9.95179e-06
8.77284e-06
8.057e-06
8.01998e-06
8.61595e-06
9.59347e-06
1.07019e-05
1.17884e-05
1.27883e-05
1.36912e-05
1.45116e-05
1.52696e-05
1.59795e-05
1.66473e-05
1.72713e-05
1.78457e-05
1.83636e-05
1.88185e-05
1.92051e-05
1.95193e-05
1.97584e-05
1.99217e-05
2.0012e-05
2.00362e-05
2.00038e-05
1.99261e-05
1.98174e-05
1.96828e-05
1.94248e-05
1.85529e-05
1.57745e-05
9.73289e-06
2.49544e-06
0
1.73489e-06
8.83139e-06
1.70502e-05
2.20665e-05
2.22532e-05
1.94581e-05
1.56093e-05
1.13468e-05
5.81823e-06
0
0
0
0
0
0
0
0
0
0
0
0
0
0
0
0
0
2.05575e-06
2.17088e-06
9.07517e-08
0
0
0
0
0
0
0
0
0
0
0
0
0
0
0
0
0
0
0
0
0
4.65694e-07
2.15121e-06
3.87702e-06
5.59224e-06
7.24571e-06
8.78723e-06
1.01681e-05
1.1342e-05
1.22664e-05
1.29034e-05
1.32211e-05
1.31971e-05
1.2823e-05
1.21148e-05
1.11287e-05
9.9821e-06
8.87141e-06
8.06369e-06
7.80733e-06
8.16619e-06
8.97538e-06
9.99721e-06
1.10568e-05
1.20659e-05
1.29989e-05
1.38636e-05
1.46795e-05
1.54639e-05
1.62249e-05
1.69614e-05
1.76653e-05
1.83264e-05
1.89344e-05
1.94809e-05
1.99593e-05
2.03643e-05
2.06922e-05
2.0941e-05
2.11121e-05
2.12108e-05
2.12455e-05
2.12261e-05
2.1164e-05
2.10595e-05
2.08125e-05
1.99569e-05
1.73085e-05
1.17065e-05
5.13208e-06
2.19663e-06
4.67902e-06
1.12436e-05
1.88747e-05
2.37331e-05
2.40454e-05
2.11711e-05
1.69545e-05
1.22227e-05
6.9102e-06
0
0
0
0
0
0
0
0
0
0
0
0
0
0
0
0
0
3.62174e-06
3.70647e-06
6.62346e-07
0
0
0
0
0
0
0
0
0
0
0
0
0
0
0
0
0
0
0
0
0
7.45969e-07
2.21274e-06
3.71644e-06
5.21352e-06
6.65962e-06
8.01008e-06
9.22021e-06
1.02461e-05
1.10454e-05
1.15794e-05
1.18149e-05
1.173e-05
1.13227e-05
1.06248e-05
9.72089e-06
8.76442e-06
7.97837e-06
7.60122e-06
7.75905e-06
8.3774e-06
9.26391e-06
1.02439e-05
1.12142e-05
1.21343e-05
1.3003e-05
1.38372e-05
1.4656e-05
1.54717e-05
1.62858e-05
1.70906e-05
1.78726e-05
1.86173e-05
1.93113e-05
1.99441e-05
2.05077e-05
2.09956e-05
2.14031e-05
2.17267e-05
2.19661e-05
2.21245e-05
2.22085e-05
2.22258e-05
2.2185e-05
2.20804e-05
2.18094e-05
2.09313e-05
1.83763e-05
1.31904e-05
7.27379e-06
4.77383e-06
7.24946e-06
1.34127e-05
2.05111e-05
2.51222e-05
2.54703e-05
2.25133e-05
1.79374e-05
1.26688e-05
7.14378e-06
0
0
0
0
0
0
0
0
0
0
0
0
0
0
0
0
1.00869e-06
5.14647e-06
5.23239e-06
1.87216e-06
8.57202e-08
0
0
0
0
0
0
0
0
0
0
0
0
0
0
0
0
0
0
0
0
9.9671e-07
2.24576e-06
3.52898e-06
4.80931e-06
6.04831e-06
7.20618e-06
8.24197e-06
9.1141e-06
9.78153e-06
1.02059e-05
1.0356e-05
1.02158e-05
9.7972e-06
9.1562e-06
8.40818e-06
7.73073e-06
7.32978e-06
7.34955e-06
7.7845e-06
8.50474e-06
9.3608e-06
1.02494e-05
1.11208e-05
1.19635e-05
1.27867e-05
1.36076e-05
1.44412e-05
1.52945e-05
1.61643e-05
1.70386e-05
1.79002e-05
1.87314e-05
1.95164e-05
2.02426e-05
2.09006e-05
2.1483e-05
2.19837e-05
2.23978e-05
2.2723e-05
2.29601e-05
2.31134e-05
2.31886e-05
2.31917e-05
2.31138e-05
2.28544e-05
2.20043e-05
1.96084e-05
1.48797e-05
9.59678e-06
7.51279e-06
1.00233e-05
1.58241e-05
2.22965e-05
2.64011e-05
2.65504e-05
2.346e-05
1.8601e-05
1.29046e-05
6.91611e-06
0
0
0
0
0
0
0
0
0
0
0
0
0
0
0
1.09631e-06
2.35632e-06
6.56294e-06
6.63177e-06
2.70393e-06
8.42443e-07
1.44353e-07
0
0
0
0
0
0
0
0
0
0
0
0
0
0
0
0
0
0
1.72148e-07
1.15644e-06
2.19902e-06
3.27168e-06
4.34328e-06
5.38081e-06
6.3492e-06
7.21141e-06
7.92899e-06
8.46365e-06
8.78072e-06
8.85587e-06
8.686e-06
8.30348e-06
7.78967e-06
7.2783e-06
6.93257e-06
6.88399e-06
7.16439e-06
7.70396e-06
8.39728e-06
9.1609e-06
9.94862e-06
1.07428e-05
1.15419e-05
1.23524e-05
1.31837e-05
1.40438e-05
1.49356e-05
1.58535e-05
1.67843e-05
1.77091e-05
1.86084e-05
1.94644e-05
2.02632e-05
2.09939e-05
2.16481e-05
2.22184e-05
2.26984e-05
2.3083e-05
2.33701e-05
2.35606e-05
2.36575e-05
2.36636e-05
2.35674e-05
2.32735e-05
2.24165e-05
2.01903e-05
1.60441e-05
1.16906e-05
1.04087e-05
1.32272e-05
1.86425e-05
2.4095e-05
2.70626e-05
2.64878e-05
2.30949e-05
1.81113e-05
1.23549e-05
6.19488e-06
0
0
0
0
0
0
0
0
0
0
0
0
0
0
0
2.73838e-06
3.7424e-06
7.95657e-06
8.05214e-06
4.3142e-06
2.32401e-06
1.56852e-06
1.09465e-06
6.46748e-07
2.01676e-07
0
0
0
0
0
0
0
0
0
0
0
0
0
0
0
4.91696e-07
1.27913e-06
2.11705e-06
2.98164e-06
3.84666e-06
4.68371e-06
5.46212e-06
6.1492e-06
6.71129e-06
7.11609e-06
7.3376e-06
7.36435e-06
7.21087e-06
6.9289e-06
6.61077e-06
6.37364e-06
6.31889e-06
6.48715e-06
6.85111e-06
7.35312e-06
7.94517e-06
8.60213e-06
9.31446e-06
1.00768e-05
1.08821e-05
1.17232e-05
1.25968e-05
1.35033e-05
1.44443e-05
1.54167e-05
1.64103e-05
1.74081e-05
1.83905e-05
1.93389e-05
2.02375e-05
2.10742e-05
2.18389e-05
2.25226e-05
2.31163e-05
2.36123e-05
2.40049e-05
2.42913e-05
2.44719e-05
2.45491e-05
2.45179e-05
2.43068e-05
2.36215e-05
2.18248e-05
1.8584e-05
1.54944e-05
1.52157e-05
1.81464e-05
2.24474e-05
2.5765e-05
2.64593e-05
2.43613e-05
2.03761e-05
1.54212e-05
9.91835e-06
3.88731e-06
0
0
0
0
0
0
0
0
0
0
0
0
0
0
1.47739e-06
4.20902e-06
4.97866e-06
9.27986e-06
9.36525e-06
5.16705e-06
3.14873e-06
2.40736e-06
1.96716e-06
1.55155e-06
1.13408e-06
7.24777e-07
3.2918e-07
0
0
0
0
0
0
0
0
0
0
0
0
7.70002e-08
6.31551e-07
1.24472e-06
1.89919e-06
2.57494e-06
3.25001e-06
3.90059e-06
4.50134e-06
5.02601e-06
5.44906e-06
5.74858e-06
5.91159e-06
5.94168e-06
5.86681e-06
5.74221e-06
5.64043e-06
5.62659e-06
5.73218e-06
5.951e-06
6.26113e-06
6.6504e-06
7.12477e-06
7.69882e-06
8.38051e-06
9.16134e-06
1.0018e-05
1.09229e-05
1.18559e-05
1.28091e-05
1.3784e-05
1.47841e-05
1.58067e-05
1.68414e-05
1.78722e-05
1.88816e-05
1.98531e-05
2.07734e-05
2.16304e-05
2.24121e-05
2.31056e-05
2.36973e-05
2.41743e-05
2.45253e-05
2.4742e-05
2.48221e-05
2.47699e-05
2.4563e-05
2.4046e-05
2.28796e-05
2.10807e-05
1.99437e-05
2.08165e-05
2.3073e-05
2.49559e-05
2.50378e-05
2.28985e-05
1.9076e-05
1.44022e-05
9.4815e-06
4.80505e-06
1.25115e-06
0
0
0
0
0
0
0
0
0
0
0
0
0
7.7236e-07
3.19298e-06
5.74698e-06
6.27408e-06
1.05856e-05
1.07178e-05
6.96643e-06
4.85984e-06
4.05851e-06
3.56629e-06
3.10205e-06
2.63887e-06
2.18609e-06
1.74859e-06
1.32889e-06
9.32333e-07
5.66229e-07
2.38397e-07
0
0
0
0
0
0
0
4.38466e-08
3.71145e-07
7.59502e-07
1.19636e-06
1.66688e-06
2.15464e-06
2.64208e-06
3.11083e-06
3.54242e-06
3.91927e-06
4.22641e-06
4.45407e-06
4.60137e-06
4.68006e-06
4.71582e-06
4.74305e-06
4.79257e-06
4.87975e-06
5.00393e-06
5.16156e-06
5.36196e-06
5.6338e-06
6.01778e-06
6.54887e-06
7.23942e-06
8.07206e-06
9.00683e-06
9.99748e-06
1.1009e-05
1.20252e-05
1.30477e-05
1.40877e-05
1.51533e-05
1.62436e-05
1.73489e-05
1.84536e-05
1.95412e-05
2.05968e-05
2.16065e-05
2.25553e-05
2.34251e-05
2.41942e-05
2.4838e-05
2.53306e-05
2.5647e-05
2.57739e-05
2.57291e-05
2.55661e-05
2.53159e-05
2.49089e-05
2.43554e-05
2.40482e-05