/*--------------------------------*- C++ -*----------------------------------*\
  =========                 |
  \\      /  F ield         | OpenFOAM: The Open Source CFD Toolbox
   \\    /   O peration     | Website:  https://openfoam.org
    \\  /    A nd           | Version:  10
     \\/     M anipulation  |
\*---------------------------------------------------------------------------*/
FoamFile
{
    format      ascii;
    class       surfaceScalarField;
    location    "0.06";
    object      phi;
}
// * * * * * * * * * * * * * * * * * * * * * * * * * * * * * * * * * * * * * //

dimensions      [0 3 -1 0 0 0 0];

internalField   nonuniform List<scalar> 
13452
(
5.94531e-05
8.15376e-07
5.8472e-05
9.81107e-07
5.74488e-05
1.02318e-06
5.63955e-05
1.05333e-06
5.53397e-05
1.05579e-06
5.42924e-05
1.04731e-06
5.32567e-05
1.03572e-06
5.22342e-05
1.02251e-06
5.12255e-05
1.0086e-06
5.02309e-05
9.94693e-07
4.92497e-05
9.81145e-07
4.82815e-05
9.68235e-07
4.73252e-05
9.56233e-07
4.63798e-05
9.45418e-07
4.54437e-05
9.36104e-07
4.45151e-05
9.28654e-07
4.35916e-05
9.23496e-07
4.26704e-05
9.21138e-07
4.17482e-05
9.22189e-07
4.08209e-05
9.27391e-07
3.98832e-05
9.37664e-07
3.8929e-05
9.54158e-07
3.79507e-05
9.78336e-07
3.69386e-05
1.01207e-06
3.58808e-05
1.05779e-06
3.47622e-05
1.11868e-06
3.35631e-05
1.19902e-06
3.22584e-05
1.30475e-06
3.08147e-05
1.44366e-06
2.91819e-05
1.63279e-06
2.73047e-05
1.87719e-06
2.501e-05
2.29476e-06
2.78001e-06
2.223e-05
6.24901e-05
3.15594e-07
6.29664e-05
5.04827e-07
6.34153e-05
5.74297e-07
6.38275e-05
6.4114e-07
6.41955e-05
6.87746e-07
6.4519e-05
7.2379e-07
6.47993e-05
7.55488e-07
6.50382e-05
7.83529e-07
6.52382e-05
8.08611e-07
6.54014e-05
8.31518e-07
6.55298e-05
8.5278e-07
6.56252e-05
8.72849e-07
6.56892e-05
8.92184e-07
6.57234e-05
9.11269e-07
6.57288e-05
9.30634e-07
6.57066e-05
9.50883e-07
6.56574e-05
9.7272e-07
6.55815e-05
9.96979e-07
6.54791e-05
1.02466e-06
6.53495e-05
1.05697e-06
6.51917e-05
1.09542e-06
6.5004e-05
1.1419e-06
6.47835e-05
1.1988e-06
6.45263e-05
1.26924e-06
6.42268e-05
1.35732e-06
6.38771e-05
1.46841e-06
6.3466e-05
1.6101e-06
6.29785e-05
1.79223e-06
6.23912e-05
2.031e-06
6.16781e-05
2.34591e-06
6.07778e-05
2.77749e-06
5.96919e-05
3.38062e-06
4.20514e-06
5.82668e-05
6.38348e-05
2.42207e-07
6.39112e-05
4.28426e-07
6.39813e-05
5.04181e-07
6.40543e-05
5.68119e-07
6.41294e-05
6.12661e-07
6.42086e-05
6.44577e-07
6.4293e-05
6.71148e-07
6.43825e-05
6.94029e-07
6.44769e-05
7.14196e-07
6.45758e-05
7.32634e-07
6.46785e-05
7.50008e-07
6.47846e-05
7.66824e-07
6.48932e-05
7.83556e-07
6.50038e-05
8.00674e-07
6.51158e-05
8.18665e-07
6.52286e-05
8.38069e-07
6.53418e-05
8.5951e-07
6.5455e-05
8.83725e-07
6.55681e-05
9.11598e-07
6.56809e-05
9.4421e-07
6.57934e-05
9.82909e-07
6.59059e-05
1.02939e-06
6.60189e-05
1.08582e-06
6.61331e-05
1.15501e-06
6.62498e-05
1.24063e-06
6.63706e-05
1.34755e-06
6.64983e-05
1.48247e-06
6.66364e-05
1.65409e-06
6.67916e-05
1.87577e-06
6.69744e-05
2.16319e-06
6.72094e-05
2.54244e-06
6.75477e-05
3.04236e-06
3.6448e-06
6.8108e-05
6.56409e-05
1.84414e-07
6.56937e-05
3.75559e-07
6.57311e-05
4.66815e-07
6.57613e-05
5.37909e-07
6.57851e-05
5.88891e-07
6.58042e-05
6.25451e-07
6.58201e-05
6.55284e-07
6.58334e-05
6.80738e-07
6.58446e-05
7.02943e-07
6.58542e-05
7.22997e-07
6.58626e-05
7.41679e-07
6.58698e-05
7.59567e-07
6.58762e-05
7.77187e-07
6.58818e-05
7.95046e-07
6.58868e-05
8.1365e-07
6.58914e-05
8.33546e-07
6.58955e-05
8.55354e-07
6.58995e-05
8.7979e-07
6.59034e-05
9.0769e-07
6.59075e-05
9.40053e-07
6.59123e-05
9.78087e-07
6.59185e-05
1.02328e-06
6.59268e-05
1.07747e-06
6.59388e-05
1.14298e-06
6.59567e-05
1.22272e-06
6.59839e-05
1.32041e-06
6.60256e-05
1.4408e-06
6.60898e-05
1.58983e-06
6.61907e-05
1.77486e-06
6.63489e-05
2.00497e-06
6.66063e-05
2.28505e-06
6.70198e-05
2.62889e-06
2.97088e-06
6.76937e-05
6.74908e-05
1.50437e-07
6.75325e-05
3.3381e-07
6.75679e-05
4.31428e-07
6.76006e-05
5.05163e-07
6.76291e-05
5.60448e-07
6.7653e-05
6.01538e-07
6.76731e-05
6.35231e-07
6.76896e-05
6.64186e-07
6.77029e-05
6.89648e-07
6.77131e-05
7.12777e-07
6.77204e-05
7.34431e-07
6.77247e-05
7.55241e-07
6.77261e-05
7.75768e-07
6.77246e-05
7.96544e-07
6.77202e-05
8.18093e-07
6.77128e-05
8.40968e-07
6.77023e-05
8.65778e-07
6.76889e-05
8.93216e-07
6.76725e-05
9.24084e-07
6.76532e-05
9.59318e-07
6.76313e-05
1.00002e-06
6.76071e-05
1.04753e-06
6.75811e-05
1.10341e-06
6.75545e-05
1.16959e-06
6.75289e-05
1.24835e-06
6.75069e-05
1.34241e-06
6.74928e-05
1.45485e-06
6.74935e-05
1.58915e-06
6.75202e-05
1.74817e-06
6.75905e-05
1.93468e-06
6.77328e-05
2.14269e-06
6.79923e-05
2.36939e-06
2.55133e-06
6.84119e-05
6.9412e-05
1.22493e-07
6.94514e-05
2.94381e-07
6.94857e-05
3.97141e-07
6.95163e-05
4.74506e-07
6.95428e-05
5.34024e-07
6.9565e-05
5.79261e-07
6.9584e-05
6.16301e-07
6.96e-05
6.48168e-07
6.96133e-05
6.76316e-07
6.96241e-05
7.01974e-07
6.96325e-05
7.26074e-07
6.96384e-05
7.49309e-07
6.96419e-05
7.72278e-07
6.96429e-05
7.95532e-07
6.96414e-05
8.19581e-07
6.96374e-05
8.44981e-07
6.96309e-05
8.72332e-07
6.96218e-05
9.02306e-07
6.96102e-05
9.3565e-07
6.95963e-05
9.73219e-07
6.95803e-05
1.01599e-06
6.95628e-05
1.0651e-06
6.95444e-05
1.12183e-06
6.95263e-05
1.18768e-06
6.95104e-05
1.26426e-06
6.94995e-05
1.35331e-06
6.94979e-05
1.4564e-06
6.95122e-05
1.57481e-06
6.95523e-05
1.70808e-06
6.96328e-05
1.85422e-06
6.97732e-05
2.00232e-06
7.00027e-05
2.13982e-06
2.2171e-06
7.0337e-05
7.13852e-05
1.03581e-07
7.14159e-05
2.63742e-07
7.14449e-05
3.68157e-07
7.14725e-05
4.46869e-07
7.14979e-05
5.08583e-07
7.15205e-05
5.56715e-07
7.15403e-05
5.96496e-07
7.15575e-05
6.30978e-07
7.15721e-05
6.6168e-07
7.15843e-05
6.89816e-07
7.1594e-05
7.1634e-07
7.16014e-05
7.41962e-07
7.16064e-05
7.6728e-07
7.1609e-05
7.92847e-07
7.16094e-05
8.19224e-07
7.16074e-05
8.46963e-07
7.16032e-05
8.76599e-07
7.15967e-05
9.08744e-07
7.15883e-05
9.44074e-07
7.15782e-05
9.8334e-07
7.15668e-05
1.02737e-06
7.15548e-05
1.07706e-06
7.15433e-05
1.1334e-06
7.15335e-05
1.19739e-06
7.15278e-05
1.26998e-06
7.15292e-05
1.35196e-06
7.1542e-05
1.44359e-06
7.15725e-05
1.54428e-06
7.16293e-05
1.6513e-06
7.17239e-05
1.75962e-06
7.18695e-05
1.85675e-06
7.20825e-05
1.92674e-06
1.93354e-06
7.23661e-05
7.34197e-05
8.91143e-08
7.34468e-05
2.36704e-07
7.34746e-05
3.40337e-07
7.35016e-05
4.19855e-07
7.35266e-05
4.83592e-07
7.35487e-05
5.34603e-07
7.3568e-05
5.77189e-07
7.35847e-05
6.14277e-07
7.35989e-05
6.47463e-07
7.36108e-05
6.77976e-07
7.36203e-05
7.06791e-07
7.36276e-05
7.34649e-07
7.36327e-05
7.62175e-07
7.36356e-05
7.89947e-07
7.36364e-05
8.18476e-07
7.36351e-05
8.48238e-07
7.36319e-05
8.79803e-07
7.36269e-05
9.13726e-07
7.36204e-05
9.50596e-07
7.36127e-05
9.91037e-07
7.36044e-05
1.0357e-06
7.35962e-05
1.08525e-06
7.35893e-05
1.14033e-06
7.35852e-05
1.20149e-06
7.35861e-05
1.26907e-06
7.3595e-05
1.34304e-06
7.3616e-05
1.42259e-06
7.36544e-05
1.50584e-06
7.3717e-05
1.5887e-06
7.3812e-05
1.66469e-06
7.3947e-05
1.72174e-06
7.41295e-05
1.74425e-06
1.70744e-06
7.43556e-05
7.55133e-05
7.82627e-08
7.55356e-05
2.1444e-07
7.55598e-05
3.16163e-07
7.55839e-05
3.95758e-07
7.56069e-05
4.60559e-07
7.5628e-05
5.13486e-07
7.5647e-05
5.58164e-07
7.5664e-05
5.97356e-07
7.56787e-05
6.32673e-07
7.56914e-05
6.65317e-07
7.57019e-05
6.96251e-07
7.57104e-05
7.26212e-07
7.57167e-05
7.55821e-07
7.5721e-05
7.85636e-07
7.57234e-05
8.16134e-07
7.57239e-05
8.4776e-07
7.57226e-05
8.81041e-07
7.57199e-05
9.16472e-07
7.57159e-05
9.54543e-07
7.57112e-05
9.95745e-07
7.57064e-05
1.04056e-06
7.57022e-05
1.08941e-06
7.56999e-05
1.14263e-06
7.5701e-05
1.20038e-06
7.57076e-05
1.26248e-06
7.57224e-05
1.32825e-06
7.57488e-05
1.39617e-06
7.57911e-05
1.46357e-06
7.5854e-05
1.52584e-06
7.59424e-05
1.57624e-06
7.60599e-05
1.60426e-06
7.62075e-05
1.59662e-06
1.53725e-06
7.63777e-05
7.7668e-05
6.97947e-08
7.76871e-05
1.95357e-07
7.77094e-05
2.93891e-07
7.77324e-05
3.72736e-07
7.77549e-05
4.38031e-07
7.77759e-05
4.92491e-07
7.7795e-05
5.391e-07
7.7812e-05
5.80324e-07
7.7827e-05
6.17714e-07
7.78399e-05
6.52424e-07
7.78508e-05
6.85389e-07
7.78596e-05
7.17343e-07
7.78666e-05
7.4888e-07
7.78717e-05
7.80512e-07
7.78751e-05
8.12727e-07
7.78769e-05
8.46001e-07
7.78771e-05
8.80758e-07
7.78762e-05
9.17397e-07
7.78744e-05
9.56311e-07
7.78723e-05
9.9787e-07
7.78705e-05
1.04239e-06
7.78698e-05
1.09009e-06
7.78714e-05
1.14103e-06
7.78768e-05
1.19503e-06
7.78877e-05
1.25153e-06
7.79065e-05
1.30943e-06
7.79359e-05
1.36679e-06
7.79788e-05
1.42064e-06
7.80382e-05
1.46643e-06
7.81165e-05
1.49797e-06
7.8214e-05
1.50679e-06
7.8328e-05
1.48258e-06
1.4157e-06
7.84496e-05
7.98851e-05
6.30311e-08
7.99013e-05
1.79107e-07
7.99212e-05
2.73982e-07
7.99423e-05
3.51691e-07
7.99632e-05
4.17075e-07
7.99832e-05
4.72564e-07
8.00016e-05
5.20636e-07
8.00185e-05
5.63482e-07
8.00336e-05
6.02589e-07
8.0047e-05
6.39065e-07
8.00585e-05
6.73803e-07
8.00684e-05
7.07521e-07
8.00764e-05
7.40812e-07
8.00828e-05
7.7416e-07
8.00876e-05
8.07953e-07
8.0091e-05
8.42593e-07
8.00932e-05
8.78491e-07
8.00946e-05
9.16002e-07
8.00955e-05
9.55426e-07
8.00964e-05
9.97004e-07
8.00979e-05
1.0409e-06
8.01008e-05
1.08714e-06
8.01063e-05
1.13558e-06
8.01155e-05
1.18579e-06
8.01301e-05
1.23696e-06
8.01518e-05
1.28774e-06
8.01825e-05
1.33607e-06
8.02241e-05
1.37902e-06
8.0278e-05
1.4125e-06
8.03447e-05
1.43133e-06
8.04224e-05
1.4291e-06
8.05065e-05
1.39847e-06
1.33436e-06
8.05878e-05
8.2166e-05
5.74827e-08
8.218e-05
1.65056e-07
8.21981e-05
2.55877e-07
8.22179e-05
3.31924e-07
8.22381e-05
3.969e-07
8.22577e-05
4.52956e-07
8.22762e-05
5.02155e-07
8.22933e-05
5.46402e-07
8.23088e-05
5.87067e-07
8.23227e-05
6.2518e-07
8.23349e-05
6.61574e-07
8.23455e-05
6.96921e-07
8.23545e-05
7.31761e-07
8.23622e-05
7.66538e-07
8.23685e-05
8.01648e-07
8.23736e-05
8.37472e-07
8.23777e-05
8.74345e-07
8.23812e-05
9.12528e-07
8.23844e-05
9.52224e-07
8.23879e-05
9.93568e-07
8.23921e-05
1.0366e-06
8.23981e-05
1.08121e-06
8.24066e-05
1.1271e-06
8.24187e-05
1.17368e-06
8.24356e-05
1.22e-06
8.24587e-05
1.26466e-06
8.24891e-05
1.30567e-06
8.25277e-05
1.34038e-06
8.25748e-05
1.3654e-06
8.26295e-05
1.37669e-06
8.26888e-05
1.36976e-06
8.27475e-05
1.3398e-06
1.28485e-06
8.2797e-05
8.45124e-05
5.28148e-08
8.45247e-05
1.52793e-07
8.45411e-05
2.39453e-07
8.45595e-05
3.13554e-07
8.45786e-05
3.77835e-07
8.45974e-05
4.34125e-07
8.46154e-05
4.84132e-07
8.46323e-05
5.29483e-07
8.4648e-05
5.71421e-07
8.46623e-05
6.10901e-07
8.46751e-05
6.48696e-07
8.46866e-05
6.85433e-07
8.46968e-05
7.21614e-07
8.47057e-05
7.57651e-07
8.47134e-05
7.93891e-07
8.47202e-05
8.30651e-07
8.47264e-05
8.68208e-07
8.47321e-05
9.06769e-07
8.47379e-05
9.46467e-07
8.47441e-05
9.87351e-07
8.47514e-05
1.02936e-06
8.47603e-05
1.07227e-06
8.47717e-05
1.11569e-06
8.47864e-05
1.15895e-06
8.48053e-05
1.2011e-06
8.48292e-05
1.24077e-06
8.48587e-05
1.27621e-06
8.48939e-05
1.30518e-06
8.49342e-05
1.32506e-06
8.4978e-05
1.33293e-06
8.50218e-05
1.32592e-06
8.50604e-05
1.30123e-06
1.2589e-06
8.50863e-05
8.69262e-05
4.87976e-08
8.6937e-05
1.41956e-07
8.6952e-05
2.24436e-07
8.69693e-05
2.96317e-07
8.69875e-05
3.5957e-07
8.70059e-05
4.15722e-07
8.70239e-05
4.66191e-07
8.7041e-05
5.12357e-07
8.70571e-05
5.55327e-07
8.7072e-05
5.95961e-07
8.70858e-05
6.34962e-07
8.70983e-05
6.72895e-07
8.71097e-05
7.10216e-07
8.71201e-05
7.47296e-07
8.71295e-05
7.84449e-07
8.71382e-05
8.21949e-07
8.71464e-05
8.60013e-07
8.71544e-05
8.98786e-07
8.71625e-05
9.38332e-07
8.71712e-05
9.78628e-07
8.71811e-05
1.01954e-06
8.71925e-05
1.0608e-06
8.72063e-05
1.10194e-06
8.72229e-05
1.14232e-06
8.7243e-05
1.18101e-06
8.72669e-05
1.21683e-06
8.72948e-05
1.2483e-06
8.73263e-05
1.27369e-06
8.73603e-05
1.29109e-06
8.73947e-05
1.29858e-06
8.7426e-05
1.29456e-06
8.74495e-05
1.27774e-06
1.24932e-06
8.74591e-05
8.94091e-05
4.52686e-08
8.94188e-05
1.3226e-07
8.94326e-05
2.10631e-07
8.94488e-05
2.80117e-07
8.94662e-05
3.42109e-07
8.94841e-05
3.9785e-07
8.95018e-05
4.48505e-07
8.95189e-05
4.95227e-07
8.95353e-05
5.38978e-07
8.95507e-05
5.80525e-07
8.95652e-05
6.20495e-07
8.95787e-05
6.59396e-07
8.95912e-05
6.97641e-07
8.9603e-05
7.35559e-07
8.9614e-05
7.7342e-07
8.96245e-05
8.11444e-07
8.96347e-05
8.49796e-07
8.96449e-05
8.88571e-07
8.96555e-05
9.27786e-07
8.96668e-05
9.67372e-07
8.96791e-05
1.00715e-06
8.96931e-05
1.04683e-06
8.97091e-05
1.08594e-06
8.97275e-05
1.12389e-06
8.97487e-05
1.15985e-06
8.97727e-05
1.19286e-06
8.97992e-05
1.22175e-06
8.98276e-05
1.24527e-06
8.98566e-05
1.26218e-06
8.98838e-05
1.27135e-06
8.99062e-05
1.27212e-06
8.99197e-05
1.26424e-06
1.24949e-06
8.99196e-05
9.1963e-05
4.21113e-08
9.19718e-05
1.23476e-07
9.19846e-05
1.97839e-07
9.19999e-05
2.64794e-07
9.20167e-05
3.25302e-07
9.20342e-05
3.80352e-07
9.20518e-05
4.30897e-07
9.20692e-05
4.77892e-07
9.2086e-05
5.22161e-07
9.21021e-05
5.64376e-07
9.21175e-05
6.05086e-07
9.21322e-05
6.4474e-07
9.21461e-05
6.83697e-07
9.21595e-05
7.22243e-07
9.21723e-05
7.60606e-07
9.21847e-05
7.98965e-07
9.21971e-05
8.37437e-07
9.22096e-05
8.76077e-07
9.22225e-05
9.14862e-07
9.22362e-05
9.53691e-07
9.2251e-05
9.9237e-07
9.22672e-05
1.0306e-06
9.22852e-05
1.06797e-06
9.23051e-05
1.10394e-06
9.23271e-05
1.13784e-06
9.23511e-05
1.16892e-06
9.23765e-05
1.19635e-06
9.24024e-05
1.2193e-06
9.24276e-05
1.23704e-06
9.24498e-05
1.24909e-06
9.24665e-05
1.25543e-06
9.24743e-05
1.25644e-06
1.25413e-06
9.24697e-05
9.459e-05
3.92406e-08
9.45981e-05
1.15418e-07
9.461e-05
1.8589e-07
9.46246e-05
2.50221e-07
9.46408e-05
3.09064e-07
9.4658e-05
3.63193e-07
9.46755e-05
4.13376e-07
9.4693e-05
4.60395e-07
9.47102e-05
5.04941e-07
9.4727e-05
5.47589e-07
9.47433e-05
5.88811e-07
9.47591e-05
6.28995e-07
9.47743e-05
6.68448e-07
9.47891e-05
7.07415e-07
9.48037e-05
7.46083e-07
9.4818e-05
7.84587e-07
9.48325e-05
8.23006e-07
9.48472e-05
8.6136e-07
9.48624e-05
8.99606e-07
9.48785e-05
9.37627e-07
9.48956e-05
9.75233e-07
9.49141e-05
1.01215e-06
9.4934e-05
1.04802e-06
9.49556e-05
1.08241e-06
9.49786e-05
1.1148e-06
9.50029e-05
1.14465e-06
9.50278e-05
1.17142e-06
9.50525e-05
1.19463e-06
9.50755e-05
1.21398e-06
9.50952e-05
1.22941e-06
9.51094e-05
1.2413e-06
9.51154e-05
1.2504e-06
1.25866e-06
9.51109e-05
9.72922e-05
3.65922e-08
9.72996e-05
1.07937e-07
9.73109e-05
1.74629e-07
9.73249e-05
2.36265e-07
9.73406e-05
2.93281e-07
9.73576e-05
3.46269e-07
9.73751e-05
3.95841e-07
9.73929e-05
4.42627e-07
9.74106e-05
4.87196e-07
9.74282e-05
5.3003e-07
9.74455e-05
5.71528e-07
9.74624e-05
6.12015e-07
9.74791e-05
6.5175e-07
9.74956e-05
6.90932e-07
9.7512e-05
7.29709e-07
9.75284e-05
7.68179e-07
9.7545e-05
8.06392e-07
9.7562e-05
8.44344e-07
9.75797e-05
8.81976e-07
9.75981e-05
9.19172e-07
9.76176e-05
9.55756e-07
9.76383e-05
9.91496e-07
9.76602e-05
1.0261e-06
9.76833e-05
1.05924e-06
9.77076e-05
1.09054e-06
9.77326e-05
1.11966e-06
9.77577e-05
1.1463e-06
9.77821e-05
1.17024e-06
9.78046e-05
1.19148e-06
9.78238e-05
1.21025e-06
9.78379e-05
1.22714e-06
9.78453e-05
1.24305e-06
1.25975e-06
9.78442e-05
0.000100072
3.41168e-08
0.000100079
1.00909e-07
0.000100089
1.63921e-07
0.000100103
2.22807e-07
0.000100118
2.77853e-07
0.000100135
3.29504e-07
0.000100153
3.78239e-07
0.000100171
4.24554e-07
0.000100189
4.6891e-07
0.000100207
5.11698e-07
0.000100226
5.53245e-07
0.000100244
5.93818e-07
0.000100262
6.33623e-07
0.00010028
6.72819e-07
0.000100298
7.11515e-07
0.000100317
7.4978e-07
0.000100335
7.87637e-07
0.000100355
8.25067e-07
0.000100375
8.62005e-07
0.000100395
8.98345e-07
0.000100417
9.33937e-07
0.00010044
9.68592e-07
0.000100464
1.00209e-06
0.000100489
1.0342e-06
0.000100515
1.0647e-06
0.000100541
1.09338e-06
0.000100567
1.12012e-06
0.000100593
1.14493e-06
0.000100616
1.16798e-06
0.000100637
1.18964e-06
0.000100653
1.21062e-06
0.000100665
1.23181e-06
1.25471e-06
0.00010067
0.00010293
3.17753e-08
0.000102937
9.4233e-08
0.000102947
1.53647e-07
0.00010296
2.09734e-07
0.000102976
2.62679e-07
0.000102992
3.12809e-07
0.00010301
3.60489e-07
0.000103028
4.06102e-07
0.000103047
4.50006e-07
0.000103067
4.92512e-07
0.000103086
5.33877e-07
0.000103105
5.7431e-07
0.000103125
6.13971e-07
0.000103145
6.52977e-07
0.000103165
6.91405e-07
0.000103186
7.29296e-07
0.000103207
7.66655e-07
0.000103228
8.03452e-07
0.000103251
8.39624e-07
0.000103274
8.75079e-07
0.000103298
9.09694e-07
0.000103323
9.4333e-07
0.00010335
9.75834e-07
0.000103377
1.00706e-06
0.000103405
1.03688e-06
0.000103433
1.06524e-06
0.000103461
1.09213e-06
0.000103488
1.11768e-06
0.000103514
1.14218e-06
0.000103537
1.16607e-06
0.000103558
1.19003e-06
0.000103575
1.21488e-06
1.24183e-06
0.000103588
0.000105871
2.95356e-08
0.000105877
8.78243e-08
0.000105887
1.43699e-07
0.0001059
1.9694e-07
0.000105915
2.47662e-07
0.000105932
2.96099e-07
0.00010595
3.42519e-07
0.000105969
3.87207e-07
0.000105988
4.30432e-07
0.000106008
4.72427e-07
0.000106029
5.13385e-07
0.00010605
5.5346e-07
0.000106071
5.92767e-07
0.000106093
6.31386e-07
0.000106115
6.69364e-07
0.000106137
7.06718e-07
0.00010616
7.43439e-07
0.000106184
7.7949e-07
0.000106209
8.14814e-07
0.000106235
8.49333e-07
0.000106262
8.82955e-07
0.000106289
9.15584e-07
0.000106318
9.47125e-07
0.000106348
9.77502e-07
0.000106378
1.00668e-06
0.000106408
1.03466e-06
0.000106439
1.06155e-06
0.000106469
1.08755e-06
0.000106498
1.11296e-06
0.000106526
1.13825e-06
0.000106552
1.16402e-06
0.000106576
1.19095e-06
1.22001e-06
0.000106598
0.000108896
2.73714e-08
0.000108902
8.16098e-08
0.000108911
1.33982e-07
0.000108924
1.84324e-07
0.000108939
2.32706e-07
0.000108956
2.79286e-07
0.000108974
3.24251e-07
0.000108994
3.678e-07
0.000109014
4.10123e-07
0.000109035
4.51381e-07
0.000109057
4.9171e-07
0.000109079
5.3121e-07
0.000109102
5.69956e-07
0.000109125
6.07992e-07
0.000109149
6.45339e-07
0.000109174
6.81993e-07
0.000109199
7.17934e-07
0.000109226
7.53122e-07
0.000109253
7.87505e-07
0.000109281
8.21022e-07
0.000109311
8.53607e-07
0.000109341
8.852e-07
0.000109372
9.15752e-07
0.000109405
9.45241e-07
0.000109438
9.73681e-07
0.000109471
1.00114e-06
0.000109505
1.02777e-06
0.000109539
1.05378e-06
0.000109572
1.07949e-06
0.000109605
1.10531e-06
0.000109637
1.13174e-06
0.000109669
1.15934e-06
1.1888e-06
0.0001097
0.000112007
2.52596e-08
0.000112013
7.55257e-08
0.000112022
1.24407e-07
0.000112035
1.71792e-07
0.00011205
2.17716e-07
0.000112067
2.62278e-07
0.000112085
3.05597e-07
0.000112105
3.47798e-07
0.000112127
3.89e-07
0.000112149
4.29301e-07
0.000112172
4.6878e-07
0.000112195
5.07493e-07
0.00011222
5.45473e-07
0.000112245
5.82735e-07
0.000112271
6.19272e-07
0.000112298
6.55066e-07
0.000112326
6.90085e-07
0.000112355
7.24288e-07
0.000112385
7.57627e-07
0.000112416
7.90056e-07
0.000112448
8.2153e-07
0.000112481
8.52016e-07
0.000112515
8.81498e-07
0.00011255
9.09988e-07
0.000112586
9.37538e-07
0.000112623
9.64246e-07
0.000112661
9.90267e-07
0.000112699
1.01582e-06
0.000112737
1.04118e-06
0.000112776
1.06669e-06
0.000112815
1.09275e-06
0.000112854
1.11976e-06
1.14823e-06
0.000112895
0.000115207
2.31803e-08
0.000115213
6.95152e-08
0.000115222
1.14896e-07
0.000115235
1.59255e-07
0.00011525
2.02605e-07
0.000115267
2.44996e-07
0.000115286
2.86489e-07
0.000115307
3.27145e-07
0.000115329
3.67018e-07
0.000115352
4.06151e-07
0.000115376
4.4457e-07
0.000115401
4.82288e-07
0.000115427
5.19304e-07
0.000115455
5.55601e-07
0.000115483
5.91153e-07
0.000115512
6.25925e-07
0.000115542
6.59876e-07
0.000115573
6.92963e-07
0.000115606
7.25143e-07
0.00011564
7.56378e-07
0.000115674
7.86639e-07
0.000115711
8.1591e-07
0.000115748
8.44198e-07
0.000115786
8.71537e-07
0.000115826
8.97991e-07
0.000115866
9.23667e-07
0.000115908
9.4871e-07
0.000115951
9.73311e-07
0.000115994
9.97702e-07
0.000116039
1.02215e-06
0.000116084
1.04694e-06
0.000116132
1.07234e-06
1.09872e-06
0.000116181
0.000118498
2.1114e-08
0.000118504
6.35229e-08
0.000118513
1.05367e-07
0.000118526
1.46616e-07
0.000118541
1.87267e-07
0.000118559
2.27329e-07
0.000118579
2.66813e-07
0.0001186
3.05724e-07
0.000118623
3.4406e-07
0.000118647
3.81812e-07
0.000118673
4.18961e-07
0.0001187
4.55482e-07
0.000118728
4.91337e-07
0.000118757
5.26486e-07
0.000118787
5.6088e-07
0.000118819
5.94472e-07
0.000118851
6.2721e-07
0.000118885
6.59049e-07
0.00011892
6.89948e-07
0.000118957
7.19873e-07
0.000118995
7.48803e-07
0.000119034
7.76736e-07
0.000119075
8.03687e-07
0.000119116
8.29697e-07
0.00011916
8.54833e-07
0.000119204
8.79189e-07
0.00011925
9.02893e-07
0.000119297
9.26095e-07
0.000119346
9.48974e-07
0.000119396
9.71718e-07
0.000119449
9.94527e-07
0.000119503
1.01756e-06
1.04105e-06
0.000119561
0.000121883
1.90442e-08
0.000121889
5.75017e-08
0.000121899
9.57543e-08
0.000121912
1.33806e-07
0.000121927
1.71639e-07
0.000121946
2.09227e-07
0.000121966
2.46535e-07
0.000121988
2.83519e-07
0.000122012
3.20127e-07
0.000122037
3.56303e-07
0.000122064
3.91985e-07
0.000122093
4.27112e-07
0.000122123
4.61617e-07
0.000122154
4.95435e-07
0.000122186
5.285e-07
0.00012222
5.6075e-07
0.000122255
5.92125e-07
0.000122291
6.22575e-07
0.000122329
6.52057e-07
0.000122368
6.80541e-07
0.000122409
7.0801e-07
0.000122452
7.34463e-07
0.000122495
7.59919e-07
0.000122541
7.84413e-07
0.000122587
8.08004e-07
0.000122636
8.30769e-07
0.000122686
8.52804e-07
0.000122738
8.74221e-07
0.000122792
8.95141e-07
0.000122848
9.15686e-07
0.000122906
9.35973e-07
0.000122968
9.5607e-07
9.76117e-07
0.000123033
0.000125366
1.6948e-08
0.000125372
5.13863e-08
0.000125381
8.5955e-08
0.000125395
1.2069e-07
0.000125411
1.5556e-07
0.000125429
1.90509e-07
0.00012545
2.25462e-07
0.000125474
2.60331e-07
0.000125499
2.95017e-07
0.000125526
3.29421e-07
0.000125554
3.63445e-07
0.000125584
3.96992e-07
0.000125616
4.29968e-07
0.000125649
4.62286e-07
0.000125684
4.93863e-07
0.00012572
5.24622e-07
0.000125757
5.54496e-07
0.000125797
5.83426e-07
0.000125837
6.11368e-07
0.00012588
6.3829e-07
0.000125923
6.64174e-07
0.000125969
6.89017e-07
0.000126016
7.12829e-07
0.000126065
7.35639e-07
0.000126115
7.57488e-07
0.000126168
7.78431e-07
0.000126222
7.98534e-07
0.000126278
8.17868e-07
0.000126337
8.36504e-07
0.000126398
8.54509e-07
0.000126462
8.71937e-07
0.000126529
8.88794e-07
9.0516e-07
0.0001266
0.000128947
1.48164e-08
0.000128953
4.51473e-08
0.000128963
7.59387e-08
0.000128977
1.07254e-07
0.000128993
1.39044e-07
0.000129013
1.71218e-07
0.000129035
2.03664e-07
0.000129059
2.36251e-07
0.000129085
2.68838e-07
0.000129113
3.01288e-07
0.000129143
3.33467e-07
0.000129175
3.65249e-07
0.000129208
3.96516e-07
0.000129243
4.27158e-07
0.00012928
4.57078e-07
0.000129318
4.86188e-07
0.000129359
5.14411e-07
0.0001294
5.41683e-07
0.000129444
5.67955e-07
0.000129489
5.9319e-07
0.000129536
6.17363e-07
0.000129584
6.40465e-07
0.000129634
6.62498e-07
0.000129687
6.83475e-07
0.000129741
7.0342e-07
0.000129797
7.22365e-07
0.000129855
7.40343e-07
0.000129915
7.57391e-07
0.000129978
7.73538e-07
0.000130044
7.88803e-07
0.000130113
8.03193e-07
0.000130185
8.16662e-07
8.29251e-07
0.000130261
0.000132631
1.25972e-08
0.000132638
3.86505e-08
0.000132648
6.54903e-08
0.000132662
9.32137e-08
0.00013268
1.21755e-07
0.0001327
1.50988e-07
0.000132723
1.80761e-07
0.000132748
2.10902e-07
0.000132776
2.41229e-07
0.000132805
2.71565e-07
0.000132837
3.01742e-07
0.000132871
3.31606e-07
0.000132906
3.61015e-07
0.000132944
3.89842e-07
0.000132983
4.17972e-07
0.000133024
4.45307e-07
0.000133066
4.71763e-07
0.000133111
4.97269e-07
0.000133157
5.21767e-07
0.000133205
5.45214e-07
0.000133255
5.67579e-07
0.000133306
5.88843e-07
0.00013336
6.08995e-07
0.000133415
6.28035e-07
0.000133473
6.45969e-07
0.000133532
6.62804e-07
0.000133594
6.7855e-07
0.000133658
6.93213e-07
0.000133725
7.06791e-07
0.000133794
7.1927e-07
0.000133867
7.30627e-07
0.000133943
7.40791e-07
7.49786e-07
0.000134022
0.000136421
1.03312e-08
0.000136427
3.19635e-08
0.000136438
5.47374e-08
0.000136452
7.87645e-08
0.00013647
1.03941e-07
0.000136491
1.30095e-07
0.000136515
1.57041e-07
0.000136541
1.84571e-07
0.00013657
2.12462e-07
0.000136601
2.40503e-07
0.000136634
2.68496e-07
0.00013667
2.96262e-07
0.000136707
3.23639e-07
0.000136746
3.50485e-07
0.000136788
3.76673e-07
0.000136831
4.02094e-07
0.000136876
4.26655e-07
0.000136923
4.50277e-07
0.000136972
4.72896e-07
0.000137023
4.94461e-07
0.000137075
5.14933e-07
0.00013713
5.34282e-07
0.000137186
5.52487e-07
0.000137245
5.69532e-07
0.000137305
5.85407e-07
0.000137368
6.00099e-07
0.000137433
6.13595e-07
0.0001375
6.25879e-07
0.00013757
6.36925e-07
0.000137643
6.46694e-07
0.000137718
6.55141e-07
0.000137797
6.62172e-07
6.67805e-07
0.000137879
0.000140318
7.80428e-09
0.000140326
2.46442e-08
0.000140337
4.30462e-08
0.000140353
6.31546e-08
0.000140372
8.48137e-08
0.000140394
1.07774e-07
0.00014042
1.31795e-07
0.000140448
1.56621e-07
0.000140478
1.81988e-07
0.000140511
2.07645e-07
0.000140546
2.33359e-07
0.000140583
2.58928e-07
0.000140623
2.84174e-07
0.000140664
3.0894e-07
0.000140708
3.33088e-07
0.000140754
3.56503e-07
0.000140801
3.79082e-07
0.000140851
4.00742e-07
0.000140902
4.21412e-07
0.000140956
4.41034e-07
0.000141011
4.59561e-07
0.000141068
4.76954e-07
0.000141128
4.93181e-07
0.000141189
5.08216e-07
0.000141252
5.22032e-07
0.000141318
5.34603e-07
0.000141385
5.45901e-07
0.000141455
5.55893e-07
0.000141528
5.6454e-07
0.000141603
5.71791e-07
0.00014168
5.77595e-07
0.000141761
5.81859e-07
5.84601e-07
0.000141844
0.000144327
5.36983e-09
0.000144334
1.72206e-08
0.000144346
3.11204e-08
0.000144362
4.71702e-08
0.000144382
6.51294e-08
0.000144405
8.46783e-08
0.000144431
1.05568e-07
0.00014446
1.27495e-07
0.000144492
1.50147e-07
0.000144527
1.73238e-07
0.000144564
1.96503e-07
0.000144603
2.19717e-07
0.000144644
2.42682e-07
0.000144688
2.65231e-07
0.000144734
2.8722e-07
0.000144782
3.08522e-07
0.000144832
3.29032e-07
0.000144884
3.48659e-07
0.000144938
3.67328e-07
0.000144994
3.84973e-07
0.000145052
4.01542e-07
0.000145112
4.16989e-07
0.000145174
4.31271e-07
0.000145238
4.44353e-07
0.000145304
4.56197e-07
0.000145372
4.66767e-07
0.000145441
4.76023e-07
0.000145513
4.83921e-07
0.000145588
4.9041e-07
0.000145664
4.95435e-07
0.000145743
4.98936e-07
0.000145824
5.00815e-07
5.01093e-07
0.000145907
0.000148451
1.99295e-09
0.00014846
8.12456e-09
0.000148474
1.71037e-08
0.000148493
2.89897e-08
0.000148514
4.33604e-08
0.000148539
5.9616e-08
0.000148568
7.74358e-08
0.000148599
9.65139e-08
0.000148632
1.16493e-07
0.000148668
1.3703e-07
0.000148707
1.57817e-07
0.000148748
1.78624e-07
0.000148792
1.99245e-07
0.000148837
2.19507e-07
0.000148885
2.39261e-07
0.000148935
2.5838e-07
0.000148988
2.76756e-07
0.000149042
2.94296e-07
0.000149099
3.10921e-07
0.000149157
3.26563e-07
0.000149217
3.41164e-07
0.00014928
3.54673e-07
0.000149344
3.67042e-07
0.00014941
3.78229e-07
0.000149478
3.88191e-07
0.000149548
3.96883e-07
0.00014962
4.04262e-07
0.000149693
4.1028e-07
0.000149769
4.14887e-07
0.000149846
4.18028e-07
0.000149925
4.1965e-07
0.000150007
4.19672e-07
4.18122e-07
0.00015009
0.000152692
-5.98175e-10
0.000152701
-6.63393e-10
0.000152714
3.10989e-09
0.000152733
1.04885e-08
0.000152756
2.06805e-08
0.000152782
3.32101e-08
0.000152812
4.77289e-08
0.000152845
6.37426e-08
0.00015288
8.08484e-08
0.000152919
9.87161e-08
0.000152959
1.16939e-07
0.000153003
1.35253e-07
0.000153049
1.53448e-07
0.000153097
1.71357e-07
0.000153147
1.88832e-07
0.0001532
2.05739e-07
0.000153255
2.21968e-07
0.000153311
2.37426e-07
0.00015337
2.52035e-07
0.000153431
2.65725e-07
0.000153494
2.78437e-07
0.000153558
2.90117e-07
0.000153625
3.00716e-07
0.000153693
3.10185e-07
0.000153763
3.1848e-07
0.000153834
3.25554e-07
0.000153907
3.31359e-07
0.000153981
3.35845e-07
0.000154057
3.38962e-07
0.000154135
3.40653e-07
0.000154213
3.40867e-07
0.000154293
3.39523e-07
3.3665e-07
0.000154375
0.000157057
-6.22813e-09
0.00015707
-1.35097e-08
0.000157088
-1.50015e-08
0.00015711
-1.15741e-08
0.000157135
-4.21742e-09
0.000157163
5.02484e-09
0.000157195
1.62515e-08
0.000157229
2.94322e-08
0.000157266
4.38378e-08
0.000157306
5.9075e-08
0.000157348
7.46455e-08
0.000157393
9.04019e-08
0.00015744
1.06091e-07
0.00015749
1.21548e-07
0.000157542
1.36642e-07
0.000157597
1.51245e-07
0.000157653
1.65251e-07
0.000157712
1.78569e-07
0.000157773
1.9112e-07
0.000157836
2.02837e-07
0.000157901
2.1366e-07
0.000157967
2.23535e-07
0.000158036
2.32411e-07
0.000158106
2.40241e-07
0.000158177
2.4698e-07
0.00015825
2.52584e-07
0.000158324
2.57008e-07
0.0001584
2.60208e-07
0.000158477
2.62141e-07
0.000158555
2.62763e-07
0.000158634
2.62036e-07
0.000158713
2.59903e-07
2.56399e-07
0.000158793
0.000161541
-8.99293e-09
0.000161553
-2.53955e-08
0.000161572
-3.35901e-08
0.000161596
-3.56843e-08
0.000161625
-3.32772e-08
0.000161657
-2.72931e-08
0.000161692
-1.87469e-08
0.00016173
-8.51005e-09
0.000161771
3.10228e-09
0.000161814
1.62288e-08
0.000161859
2.93553e-08
0.000161907
4.26251e-08
0.000161957
5.58668e-08
0.00016201
6.89781e-08
0.000162064
8.17933e-08
0.000162121
9.41831e-08
0.000162181
1.06056e-07
0.000162242
1.17331e-07
0.000162305
1.27948e-07
0.00016237
1.37836e-07
0.000162437
1.4694e-07
0.000162505
1.55216e-07
0.000162575
1.62616e-07
0.000162646
1.69097e-07
0.000162718
1.74617e-07
0.000162792
1.79135e-07
0.000162866
1.82609e-07
0.000162941
1.84999e-07
0.000163017
1.86262e-07
0.000163094
1.86355e-07
0.000163171
1.85239e-07
0.000163248
1.82852e-07
1.79227e-07
0.000163325
0.000166166
-2.15089e-08
0.000166187
-4.61601e-08
0.000166211
-5.78055e-08
0.000166238
-6.25702e-08
0.000166267
-6.26811e-08
0.000166299
-5.91677e-08
0.000166334
-5.31721e-08
0.000166371
-4.54271e-08
0.00016641
-3.64781e-08
0.000166453
-2.66693e-08
0.000166499
-1.64061e-08
0.000166547
-5.799e-09
0.000166598
4.691e-09
0.000166652
1.51337e-08
0.000166709
2.54103e-08
0.000166767
3.53889e-08
0.000166829
4.49674e-08
0.000166892
5.40646e-08
0.000166957
6.26237e-08
0.000167024
7.05911e-08
0.000167093
7.79161e-08
0.000167164
8.45551e-08
0.000167236
9.04638e-08
0.00016731
9.56072e-08
0.000167384
9.99501e-08
0.00016746
1.03459e-07
0.000167537
1.061e-07
0.000167614
1.07844e-07
0.000167691
1.08659e-07
0.000167769
1.08519e-07
0.000167847
1.07399e-07
0.000167925
1.05268e-07
1.0216e-07
0.000168002
0.000170911
-3.18999e-08
0.000170939
-7.42573e-08
0.000170972
-9.10658e-08
0.00017101
-9.98938e-08
0.00017105
-1.02657e-07
0.000171091
-1.00868e-07
0.000171135
-9.65137e-08
0.00017118
-9.05929e-08
0.000171227
-8.35195e-08
0.000171276
-7.56724e-08
0.000171327
-6.74504e-08