/*--------------------------------*- C++ -*----------------------------------*\
  =========                 |
  \\      /  F ield         | OpenFOAM: The Open Source CFD Toolbox
   \\    /   O peration     | Website:  https://openfoam.org
    \\  /    A nd           | Version:  10
     \\/     M anipulation  |
\*---------------------------------------------------------------------------*/
FoamFile
{
    format      ascii;
    class       volVectorField;
    location    "0.06";
    object      U;
}
// * * * * * * * * * * * * * * * * * * * * * * * * * * * * * * * * * * * * * //

dimensions      [0 1 -1 0 0 0 0];

internalField   nonuniform List<vector> 
6820
(
(7.28178 0.0248227 0)
(7.1782 0.0400539 0)
(7.05543 0.0450372 0)
(6.92657 0.0477629 0)
(6.79797 0.0489465 0)
(6.67002 0.0492418 0)
(6.54318 0.049085 0)
(6.4179 0.0486602 0)
(6.29433 0.0480769 0)
(6.17245 0.0474078 0)
(6.05225 0.0466991 0)
(5.93368 0.0459832 0)
(5.81662 0.0452861 0)
(5.70097 0.0446311 0)
(5.58655 0.04404 0)
(5.47316 0.0435355 0)
(5.36055 0.0431426 0)
(5.24842 0.0428895 0)
(5.1364 0.0428089 0)
(5.02402 0.0429401 0)
(4.91073 0.0433311 0)
(4.79585 0.0440421 0)
(4.67856 0.0451491 0)
(4.55781 0.0467502 0)
(4.43232 0.0489723 0)
(4.30046 0.0519822 0)
(4.16019 0.0559989 0)
(4.00878 0.061348 0)
(3.84288 0.0683647 0)
(3.65759 0.0781786 0)
(3.44588 0.0903577 0)
(3.20223 0.113503 0)
(2.8854 0.140884 0)
(7.35922 0.0258918 0)
(7.42105 0.0358118 0)
(7.47629 0.037689 0)
(7.52678 0.0398356 0)
(7.57311 0.0414254 0)
(7.61413 0.0427822 0)
(7.64978 0.0441791 0)
(7.68044 0.0456183 0)
(7.70637 0.0470933 0)
(7.72781 0.0486086 0)
(7.74502 0.0501647 0)
(7.75822 0.0517647 0)
(7.76762 0.0534172 0)
(7.77341 0.0551368 0)
(7.77574 0.0569449 0)
(7.77474 0.0588702 0)
(7.77051 0.0609503 0)
(7.76313 0.0632336 0)
(7.7526 0.0657815 0)
(7.73892 0.0686728 0)
(7.72198 0.0720085 0)
(7.70163 0.0759191 0)
(7.6776 0.0805748 0)
(7.64951 0.0861982 0)
(7.61681 0.0930867 0)
(7.5787 0.101635 0)
(7.53414 0.112398 0)
(7.48152 0.126119 0)
(7.41898 0.143939 0)
(7.34264 0.167579 0)
(7.2511 0.199306 0)
(7.12964 0.247006 0)
(7.00385 0.307546 0)
(7.33542 0.00694664 0)
(7.34563 0.0102091 0)
(7.35462 0.0128574 0)
(7.3624 0.0163649 0)
(7.3708 0.0193535 0)
(7.37972 0.0219916 0)
(7.38909 0.0245055 0)
(7.39907 0.0269017 0)
(7.40966 0.0291976 0)
(7.42079 0.0314285 0)
(7.4324 0.033623 0)
(7.44442 0.0358072 0)
(7.45678 0.0380085 0)
(7.46941 0.0402567 0)
(7.48222 0.0425849 0)
(7.49516 0.0450327 0)
(7.50817 0.0476485 0)
(7.5212 0.0504918 0)
(7.53422 0.0536364 0)
(7.5472 0.0571747 0)
(7.56015 0.0612248 0)
(7.57308 0.0659389 0)
(7.58603 0.0715159 0)
(7.59907 0.0782181 0)
(7.61231 0.0863986 0)
(7.62592 0.0965296 0)
(7.64013 0.109284 0)
(7.65531 0.125545 0)
(7.67195 0.146768 0)
(7.69122 0.174595 0)
(7.71416 0.212752 0)
(7.74696 0.264191 0)
(7.79149 0.334974 0)
(7.33494 0.0093001 0)
(7.3425 0.0201455 0)
(7.34807 0.0256824 0)
(7.35145 0.0294695 0)
(7.35433 0.0320132 0)
(7.35677 0.0338319 0)
(7.3587 0.035337 0)
(7.3603 0.0366679 0)
(7.36166 0.0379006 0)
(7.36282 0.0390982 0)
(7.36381 0.0403023 0)
(7.36468 0.0415432 0)
(7.36544 0.0428481 0)
(7.36611 0.0442447 0)
(7.3667 0.0457625 0)
(7.36723 0.0474346 0)
(7.36771 0.0492992 0)
(7.36816 0.0514031 0)
(7.36859 0.053805 0)
(7.36903 0.0565786 0)
(7.36952 0.0598177 0)
(7.37011 0.0636426 0)
(7.37089 0.0682091 0)
(7.37198 0.07372 0)
(7.37358 0.080444 0)
(7.376 0.0887359 0)
(7.37967 0.0990793 0)
(7.38536 0.112117 0)
(7.39409 0.128736 0)
(7.40812 0.150131 0)
(7.42953 0.177551 0)
(7.46686 0.21331 0)
(7.52044 0.253123 0)
(7.334 0.00639295 0)
(7.33876 0.0127457 0)
(7.34339 0.0156319 0)
(7.34697 0.0182986 0)
(7.35025 0.0207398 0)
(7.35314 0.0229277 0)
(7.35552 0.0250407 0)
(7.35749 0.0271162 0)
(7.35911 0.0291578 0)
(7.36039 0.0311849 0)
(7.36134 0.0332155 0)
(7.36196 0.0352669 0)
(7.36228 0.0373594 0)
(7.36228 0.039516 0)
(7.36196 0.0417629 0)
(7.36131 0.0441343 0)
(7.36035 0.0466738 0)
(7.35905 0.0494329 0)
(7.35743 0.0524736 0)
(7.35549 0.0558712 0)
(7.35325 0.0597186 0)
(7.35073 0.0641315 0)
(7.34798 0.0692546 0)
(7.3451 0.0752693 0)
(7.34221 0.0824041 0)
(7.33955 0.0909447 0)
(7.33746 0.101247 0)
(7.33655 0.113747 0)
(7.33766 0.128926 0)
(7.34255 0.147354 0)
(7.35294 0.169059 0)
(7.37429 0.194506 0)
(7.408 0.218409 0)
(7.33375 0.00535851 0)
(7.33776 0.0131544 0)
(7.34211 0.0184643 0)
(7.34551 0.0228123 0)
(7.34845 0.0262677 0)
(7.35104 0.0289902 0)
(7.35321 0.0312918 0)
(7.35504 0.0333355 0)
(7.35659 0.0352086 0)
(7.35786 0.0369856 0)
(7.35888 0.0387236 0)
(7.35963 0.040466 0)
(7.36013 0.0422503 0)
(7.36037 0.0441146 0)
(7.36035 0.0460985 0)
(7.36006 0.0482371 0)
(7.3595 0.0505688 0)
(7.35868 0.0531415 0)
(7.35759 0.0560138 0)
(7.35624 0.0592562 0)
(7.35465 0.0629534 0)
(7.35287 0.0672078 0)
(7.35095 0.0721432 0)
(7.34899 0.077909 0)
(7.34714 0.0846833 0)
(7.34565 0.092675 0)
(7.34486 0.102116 0)
(7.34537 0.113254 0)
(7.34794 0.126261 0)
(7.35397 0.141251 0)
(7.3649 0.157635 0)
(7.38407 0.174756 0)
(7.4124 0.188141 0)
(7.33346 0.00445916 0)
(7.33623 0.0111308 0)
(7.33964 0.0153151 0)
(7.34257 0.0184891 0)
(7.34525 0.0211101 0)
(7.34774 0.0233532 0)
(7.34992 0.0254349 0)
(7.35182 0.027454 0)
(7.35345 0.0294465 0)
(7.35483 0.0314446 0)
(7.35595 0.0334747 0)
(7.35683 0.0355584 0)
(7.35746 0.0377181 0)
(7.35786 0.039975 0)
(7.35802 0.042346 0)
(7.35794 0.0448685 0)
(7.35761 0.0475901 0)
(7.35706 0.0505582 0)
(7.3563 0.0538252 0)
(7.35534 0.0574534 0)
(7.35422 0.0615167 0)
(7.353 0.0661023 0)
(7.35177 0.0713124 0)
(7.35064 0.0772634 0)
(7.34978 0.0840835 0)
(7.34948 0.0919069 0)
(7.35008 0.100852 0)
(7.35215 0.111 0)
(7.35638 0.122286 0)
(7.36389 0.134483 0)
(7.37575 0.146703 0)
(7.39398 0.157725 0)
(7.41882 0.164068 0)
(7.33332 0.00379204 0)
(7.3355 0.0101225 0)
(7.33852 0.0148273 0)
(7.34133 0.0187786 0)
(7.34391 0.0222062 0)
(7.34628 0.0251503 0)
(7.34836 0.0277617 0)
(7.35015 0.0301544 0)
(7.35169 0.0323961 0)
(7.35299 0.0345458 0)
(7.35406 0.0366542 0)
(7.3549 0.038763 0)
(7.35552 0.0409081 0)
(7.35592 0.0431287 0)
(7.3561 0.0454784 0)
(7.35608 0.0479923 0)
(7.35585 0.0506894 0)
(7.35544 0.0536122 0)
(7.35486 0.0568138 0)
(7.35414 0.0603536 0)
(7.35333 0.0642976 0)
(7.35248 0.0687188 0)
(7.3517 0.0736955 0)
(7.35111 0.0793097 0)
(7.35089 0.0856389 0)
(7.3513 0.0927456 0)
(7.35269 0.100649 0)
(7.35552 0.109295 0)
(7.36037 0.11846 0)
(7.36805 0.127713 0)
(7.37927 0.136089 0)
(7.39506 0.142238 0)
(7.41525 0.143621 0)
(7.33322 0.00330621 0)
(7.33487 0.00910929 0)
(7.33734 0.0135278 0)
(7.33977 0.017088 0)
(7.34204 0.0200856 0)
(7.3442 0.0226535 0)
(7.34616 0.0249678 0)
(7.34791 0.0271537 0)
(7.34945 0.029278 0)
(7.35078 0.0313893 0)
(7.35191 0.0335261 0)
(7.35283 0.0357188 0)
(7.35355 0.0379968 0)
(7.35407 0.0403857 0)
(7.35439 0.0428919 0)
(7.35452 0.0455401 0)
(7.35448 0.0483949 0)
(7.35429 0.051498 0)
(7.35395 0.0548888 0)
(7.35352 0.0586112 0)
(7.35304 0.0627141 0)
(7.35259 0.0672497 0)
(7.35224 0.0722706 0)
(7.35214 0.0778237 0)
(7.35246 0.0839407 0)
(7.35343 0.0906233 0)
(7.35535 0.0978146 0)
(7.35857 0.105368 0)
(7.36355 0.11297 0)
(7.37078 0.120103 0)
(7.38066 0.125853 0)
(7.39357 0.128973 0)
(7.40903 0.127694 0)
(7.33316 0.00292631 0)
(7.33446 0.00828051 0)
(7.33658 0.0126337 0)
(7.3388 0.0163236 0)
(7.34095 0.0195893 0)
(7.34302 0.0225098 0)
(7.34493 0.0251861 0)
(7.34663 0.027704 0)
(7.34814 0.0301172 0)
(7.34946 0.0324704 0)
(7.35058 0.0348044 0)
(7.35151 0.0371546 0)
(7.35226 0.0395517 0)
(7.35283 0.0420299 0)
(7.35323 0.044638 0)
(7.35347 0.0474116 0)
(7.35356 0.0503626 0)
(7.35353 0.0535207 0)
(7.35339 0.0569252 0)
(7.3532 0.0606183 0)
(7.35299 0.0646415 0)
(7.35286 0.0690341 0)
(7.35287 0.0738286 0)
(7.35316 0.0790445 0)
(7.35389 0.0846777 0)
(7.35523 0.0906854 0)
(7.35744 0.0969606 0)
(7.36078 0.103305 0)
(7.36553 0.109373 0)
(7.37198 0.114649 0)
(7.38025 0.118343 0)
(7.39033 0.119423 0)
(7.4016 0.116724 0)
(7.33312 0.00262841 0)
(7.33415 0.00757263 0)
(7.33594 0.0117473 0)
(7.3379 0.015311 0)
(7.33984 0.0184433 0)
(7.34173 0.0212277 0)
(7.3435 0.0237684 0)
(7.34512 0.026163 0)
(7.34659 0.0284784 0)
(7.3479 0.0307654 0)
(7.34905 0.0330661 0)
(7.35003 0.0354153 0)
(7.35085 0.0378437 0)
(7.35152 0.0403756 0)
(7.35202 0.0430251 0)
(7.35239 0.0458183 0)
(7.35265 0.0487974 0)
(7.35281 0.051998 0)
(7.35291 0.0554495 0)
(7.35298 0.0591798 0)
(7.35307 0.0632143 0)
(7.35326 0.067574 0)
(7.35362 0.0722697 0)
(7.35426 0.0772958 0)
(7.35531 0.0826191 0)
(7.35693 0.0881653 0)
(7.35929 0.0937987 0)
(7.36257 0.0993011 0)
(7.36692 0.104337 0)
(7.37244 0.108441 0)
(7.3791 0.110977 0)
(7.38664 0.111157 0)
(7.39444 0.108264 0)
(7.33309 0.00238659 0)
(7.33393 0.00696251 0)
(7.33546 0.0109656 0)
(7.33722 0.0144738 0)
(7.33902 0.0176339 0)
(7.34081 0.0205219 0)
(7.34252 0.0232154 0)
(7.34412 0.0257868 0)
(7.34557 0.0282868 0)
(7.34689 0.0307546 0)
(7.34806 0.033225 0)
(7.34907 0.0357289 0)
(7.34995 0.0382941 0)
(7.35069 0.0409482 0)
(7.35131 0.0437213 0)
(7.35182 0.0466409 0)
(7.35223 0.0497284 0)
(7.35256 0.0530044 0)
(7.35285 0.0564916 0)
(7.35314 0.0602122 0)
(7.35347 0.0641845 0)
(7.3539 0.0684188 0)
(7.35453 0.0729129 0)
(7.35542 0.077645 0)
(7.35669 0.0825653 0)
(7.35844 0.0875845 0)
(7.3608 0.0925594 0)
(7.36386 0.0972786 0)
(7.36768 0.101445 0)
(7.37224 0.104673 0)
(7.37739 0.106484 0)
(7.38277 0.106319 0)
(7.38781 0.103788 0)
(7.33307 0.00218553 0)
(7.33377 0.00643334 0)
(7.33509 0.0102527 0)
(7.33666 0.0136602 0)
(7.3383 0.0167563 0)
(7.33996 0.0196009 0)
(7.34157 0.0222576 0)
(7.34309 0.0247928 0)
(7.34451 0.0272597 0)
(7.34581 0.0297012 0)
(7.34699 0.0321545 0)
(7.34805 0.0346513 0)
(7.34898 0.0372189 0)
(7.34981 0.0398803 0)
(7.35053 0.0426557 0)
(7.35116 0.0455675 0)
(7.35171 0.0486403 0)
(7.35222 0.0518973 0)
(7.35272 0.0553573 0)
(7.35322 0.0590343 0)
(7.3538 0.0629359 0)
(7.35448 0.0670607 0)
(7.35535 0.0713939 0)
(7.35646 0.0759016 0)
(7.3579 0.0805236 0)
(7.35974 0.0851655 0)
(7.36204 0.0896892 0)
(7.36484 0.0939054 0)
(7.36813 0.0975679 0)
(7.37181 0.100377 0)
(7.37569 0.101997 0)
(7.37938 0.102062 0)
(7.38237 0.100408 0)
(7.33306 0.00201433 0)
(7.33365 0.00596794 0)
(7.33479 0.00960347 0)
(7.33621 0.0129095 0)
(7.33772 0.0159591 0)
(7.33928 0.018806 0)
(7.34083 0.0215038 0)
(7.34232 0.0241079 0)
(7.34372 0.0266628 0)
(7.34503 0.029204 0)
(7.34624 0.0317621 0)
(7.34735 0.0343637 0)
(7.34836 0.0370321 0)
(7.34928 0.0397889 0)
(7.35011 0.0426553 0)
(7.35087 0.0456517 0)
(7.35158 0.0487958 0)
(7.35225 0.0521016 0)
(7.35293 0.0555805 0)
(7.35363 0.0592399 0)
(7.3544 0.063081 0)
(7.35528 0.0670959 0)
(7.35633 0.0712633 0)
(7.3576 0.0755447 0)
(7.35914 0.0798787 0)
(7.36099 0.0841761 0)
(7.36317 0.0883154 0)
(7.36568 0.0921401 0)
(7.36847 0.0954603 0)
(7.37139 0.0980611 0)
(7.37424 0.0997273 0)
(7.37665 0.100246 0)
(7.37821 0.0996027 0)
(7.33305 0.00186535 0)
(7.33356 0.00555399 0)
(7.33456 0.00900843 0)
(7.33584 0.0122024 0)
(7.33724 0.0151836 0)
(7.3387 0.0179934 0)
(7.34017 0.0206735 0)
(7.3416 0.0232693 0)
(7.34298 0.0258204 0)
(7.34429 0.0283603 0)
(7.34551 0.0309185 0)
(7.34666 0.0335208 0)
(7.34773 0.0361896 0)
(7.34872 0.0389448 0)
(7.34966 0.041804 0)
(7.35054 0.0447838 0)
(7.35138 0.0478995 0)
(7.35221 0.0511639 0)
(7.35306 0.0545857 0)
(7.35394 0.0581683 0)
(7.3549 0.0619079 0)
(7.35597 0.0657918 0)
(7.35719 0.069795 0)
(7.3586 0.0738775 0)
(7.36021 0.0779813 0)
(7.36206 0.0820274 0)
(7.36414 0.0859149 0)
(7.36641 0.0895221 0)
(7.36879 0.0927123 0)
(7.37113 0.0953439 0)
(7.37324 0.0972955 0)
(7.37479 0.0984674 0)
(7.37548 0.0989341 0)
(7.33304 0.00173319 0)
(7.33349 0.0051811 0)
(7.33438 0.00845905 0)
(7.33554 0.0115361 0)
(7.33684 0.0144438 0)
(7.33821 0.0172155 0)
(7.33963 0.0198862 0)
(7.34103 0.0224944 0)
(7.34239 0.0250744 0)
(7.34371 0.0276554 0)
(7.34497 0.0302626 0)
(7.34617 0.032918 0)
(7.34731 0.0356406 0)
(7.34839 0.0384472 0)
(7.34943 0.0413532 0)
(7.35044 0.0443723 0)
(7.35142 0.0475155 0)
(7.35241 0.0507911 0)
(7.35342 0.0542026 0)
(7.35447 0.057749 0)
(7.3556 0.0614232 0)
(7.35683 0.0652097 0)
(7.35818 0.0690833 0)
(7.35969 0.0730068 0)
(7.36136 0.0769295 0)
(7.36319 0.080787 0)
(7.36517 0.0845015 0)
(7.36724 0.0879861 0)
(7.3693 0.0911514 0)
(7.37123 0.0939163 0)
(7.37285 0.0962295 0)
(7.37388 0.0980702 0)
(7.37411 0.0995614 0)
(7.33304 0.00161394 0)
(7.33343 0.004841 0)
(7.33423 0.00794792 0)
(7.33529 0.0109042 0)
(7.3365 0.0137291 0)
(7.33781 0.0164481 0)
(7.33916 0.0190885 0)
(7.34052 0.0216808 0)
(7.34187 0.0242538 0)
(7.3432 0.0268325 0)
(7.34448 0.0294391 0)
(7.34572 0.0320931 0)
(7.34692 0.0348118 0)
(7.34809 0.03761 0)
(7.34922 0.0405006 0)
(7.35034 0.0434947 0)
(7.35145 0.0466009 0)
(7.35258 0.049825 0)
(7.35373 0.0531689 0)
(7.35494 0.05663 0)
(7.35622 0.0601997 0)
(7.3576 0.0638629 0)
(7.35908 0.0675961 0)
(7.36069 0.0713671 0)
(7.36242 0.0751346 0)
(7.36426 0.0788492 0)
(7.36617 0.0824554 0)
(7.36811 0.0858963 0)
(7.36999 0.0891213 0)
(7.37168 0.0920946 0)
(7.37304 0.0948134 0)
(7.37386 0.0973065 0)
(7.374 0.0997173 0)
(7.33303 0.00150467 0)
(7.33339 0.00452698 0)
(7.33411 0.00746823 0)
(7.33509 0.0103011 0)
(7.33622 0.013037 0)
(7.33747 0.0156952 0)
(7.33877 0.0182979 0)
(7.34011 0.0208702 0)
(7.34145 0.0234362 0)
(7.34279 0.0260176 0)
(7.3441 0.0286334 0)
(7.34539 0.0313003 0)
(7.34666 0.0340325 0)
(7.34791 0.0368424 0)
(7.34915 0.0397403 0)
(7.35038 0.0427347 0)
(7.35162 0.0458313 0)
(7.35288 0.0490333 0)
(7.35419 0.0523402 0)
(7.35554 0.0557473 0)
(7.35697 0.0592456 0)
(7.35848 0.0628205 0)
(7.36008 0.0664517 0)
(7.36178 0.070113 0)
(7.36357 0.0737731 0)
(7.36543 0.077397 0)
(7.36733 0.0809492 0)
(7.36921 0.0843981 0)
(7.371 0.0877225 0)
(7.3726 0.0909194 0)
(7.37389 0.0940171 0)
(7.37473 0.0970725 0)
(7.37502 0.100229 0)
(7.33303 0.00140318 0)
(7.33335 0.0042336 0)
(7.33402 0.00701406 0)
(7.33493 0.00972152 0)
(7.336 0.0123622 0)
(7.33718 0.0149505 0)
(7.33845 0.0175034 0)
(7.33976 0.0200408 0)
(7.3411 0.0225821 0)
(7.34245 0.025145 0)
(7.34379 0.0277453 0)
(7.34513 0.0303968 0)
(7.34646 0.0331113 0)
(7.34778 0.0358989 0)
(7.34911 0.0387678 0)
(7.35045 0.0417242 0)
(7.35181 0.0447721 0)
(7.3532 0.0479131 0)
(7.35463 0.0511457 0)
(7.35612 0.0544653 0)
(7.35768 0.0578636 0)
(7.35932 0.0613282 0)
(7.36104 0.0648432 0)
(7.36284 0.068389 0)
(7.3647 0.071944 0)
(7.36662 0.0754862 0)
(7.36855 0.0789963 0)
(7.37045 0.0824621 0)
(7.37226 0.0858836 0)
(7.37389 0.0892786 0)
(7.37528 0.0926925 0)
(7.37631 0.0961942 0)
(7.37695 0.0999167 0)
(7.33303 0.00130773 0)
(7.33332 0.00395638 0)
(7.33394 0.00658016 0)
(7.33479 0.00916052 0)
(7.33581 0.0117006 0)
(7.33695 0.014211 0)
(7.33819 0.016705 0)
(7.33948 0.0191981 0)
(7.34081 0.0217061 0)
(7.34217 0.0242435 0)
(7.34355 0.0268232 0)
(7.34493 0.0294565 0)
(7.34633 0.0321529 0)
(7.34773 0.0349202 0)
(7.34916 0.0377645 0)
(7.3506 0.0406901 0)
(7.35207 0.0436992 0)
(7.35359 0.046792 0)
(7.35515 0.0499662 0)
(7.35678 0.0532169 0)
(7.35847 0.0565368 0)
(7.36023 0.0599157 0)
(7.36207 0.0633416 0)
(7.36397 0.066801 0)
(7.36593 0.0702803 0)
(7.36793 0.0737682 0)
(7.36994 0.0772577 0)
(7.37192 0.0807502 0)
(7.37382 0.0842594 0)
(7.37559 0.0878148 0)
(7.37718 0.0914685 0)
(7.37852 0.0952907 0)
(7.37961 0.0993968 0)
(7.33303 0.00121691 0)
(7.3333 0.00369157 0)
(7.33388 0.00616184 0)
(7.33468 0.00861343 0)
(7.33565 0.0110478 0)
(7.33676 0.0134725 0)
(7.33797 0.0158976 0)
(7.33925 0.0183349 0)
(7.34059 0.0207965 0)
(7.34196 0.0232935 0)
(7.34337 0.0258359 0)
(7.3448 0.0284324 0)
(7.34626 0.0310902 0)
(7.34774 0.0338148 0)
(7.34925 0.0366106 0)
(7.35079 0.0394801 0)
(7.35237 0.0424243 0)
(7.35401 0.0454426 0)
(7.35569 0.0485325 0)
(7.35744 0.0516897 0)
(7.35926 0.0549083 0)
(7.36114 0.0581809 0)
(7.3631 0.0614994 0)
(7.36512 0.0648558 0)
(7.36719 0.0682435 0)
(7.3693 0.0716589 0)
(7.37143 0.0751042 0)
(7.37354 0.0785895 0)
(7.3756 0.0821358 0)
(7.37758 0.0857777 0)
(7.37946 0.0895666 0)
(7.38119 0.0935671 0)
(7.38278 0.0978747 0)
(7.33303 0.00112959 0)
(7.33328 0.00343602 0)
(7.33383 0.00575494 0)
(7.33459 0.00807599 0)
(7.33553 0.0103998 0)
(7.33661 0.0127318 0)
(7.33779 0.0150794 0)
(7.33907 0.0174514 0)
(7.34041 0.0198569 0)
(7.3418 0.0223044 0)
(7.34324 0.0248012 0)
(7.34472 0.0273539 0)
(7.34624 0.0299674 0)
(7.34779 0.0326456 0)
(7.34939 0.0353911 0)
(7.35103 0.0382049 0)
(7.35272 0.0410872 0)
(7.35446 0.0440364 0)
(7.35627 0.0470499 0)
(7.35814 0.0501239 0)
(7.36008 0.0532538 0)
(7.36209 0.0564343 0)
(7.36417 0.0596603 0)
(7.36631 0.0629279 0)
(7.36851 0.0662353 0)
(7.37076 0.0695843 0)
(7.37303 0.0729824 0)
(7.3753 0.0764441 0)
(7.37757 0.0799933 0)
(7.37981 0.083664 0)
(7.38201 0.0875027 0)
(7.38416 0.091564 0)
(7.38628 0.0959237 0)
(7.33302 0.00104479 0)
(7.33327 0.00318696 0)
(7.33379 0.00535565 0)
(7.33453 0.00754387 0)
(7.33543 0.00975194 0)
(7.33649 0.0119836 0)
(7.33766 0.014244 0)
(7.33893 0.0165392 0)
(7.34028 0.0188755 0)
(7.34169 0.0212586 0)
(7.34317 0.0236935 0)
(7.3447 0.0261844 0)
(7.34627 0.0287343 0)
(7.3479 0.0313452 0)
(7.34958 0.0340183 0)
(7.35131 0.0367535 0)
(7.3531 0.0395499 0)
(7.35496 0.0424058 0)
(7.35688 0.0453184 0)
(7.35887 0.0482847 0)
(7.36093 0.0513013 0)
(7.36307 0.0543649 0)
(7.36528 0.0574729 0)
(7.36755 0.0606243 0)
(7.36989 0.0638208 0)
(7.37228 0.0670676 0)
(7.37472 0.0703747 0)
(7.37719 0.0737582 0)
(7.37969 0.0772412 0)
(7.38221 0.0808542 0)
(7.38475 0.0846361 0)
(7.38732 0.0886302 0)
(7.38994 0.0928939 0)
(7.33302 0.000961658 0)
(7.33326 0.00294199 0)
(7.33376 0.00496066 0)
(7.33447 0.0070137 0)
(7.33536 0.00910155 0)
(7.33639 0.0112269 0)
(7.33755 0.0133932 0)
(7.33882 0.0156044 0)
(7.34018 0.0178645 0)
(7.34162 0.020177 0)
(7.34313 0.0225448 0)
(7.3447 0.02497 0)
(7.34634 0.0274538 0)
(7.34803 0.0299967 0)
(7.34979 0.0325983 0)
(7.35161 0.0352576 0)
(7.3535 0.0379728 0)
(7.35546 0.0407415 0)
(7.35749 0.0435611 0)
(7.35959 0.0464289 0)
(7.36177 0.049342 0)
(7.36403 0.0522985 0)
(7.36637 0.0552972 0)
(7.36878 0.0583389 0)
(7.37126 0.0614267 0)
(7.37381 0.0645672 0)
(7.37643 0.0677708 0)
(7.3791 0.0710525 0)
(7.38184 0.0744324 0)
(7.38464 0.0779354 0)
(7.38751 0.0815918 0)
(7.39047 0.0854331 0)
(7.39355 0.0895005 0)
(7.33302 0.00087942 0)
(7.33325 0.0026988 0)
(7.33373 0.0045663 0)
(7.33443 0.00648043 0)
(7.3353 0.00844163 0)
(7.33633 0.0104515 0)
(7.33749 0.0125117 0)
(7.33876 0.0146244 0)
(7.34014 0.0167912 0)
(7.3416 0.0190134 0)
(7.34315 0.0212921 0)
(7.34477 0.0236275 0)
(7.34647 0.0260194 0)
(7.34823 0.0284669 0)
(7.35007 0.0309686 0)
(7.35198 0.0335223 0)
(7.35396 0.036126 0)
(7.35602 0.0387768 0)
(7.35816 0.0414723 0)
(7.36037 0.0442099 0)
(7.36267 0.0469875 0)
(7.36506 0.0498036 0)
(7.36752 0.0526584 0)
(7.37007 0.0555533 0)
(7.3727 0.058492 0)
(7.37541 0.0614808 0)
(7.3782 0.0645291 0)
(7.38108 0.0676493 0)
(7.38405 0.0708575 0)
(7.38711 0.0741722 0)
(7.39029 0.0776152 0)
(7.3936 0.0812071 0)
(7.39707 0.0849757 0)
(7.33302 0.000797371 0)
(7.33324 0.00245552 0)
(7.33372 0.00417047 0)
(7.3344 0.00594325 0)
(7.33526 0.00777491 0)
(7.33628 0.00966657 0)
(7.33744 0.011619 0)
(7.33872 0.0136327 0)
(7.34011 0.0157075 0)
(7.3416 0.0178427 0)
(7.34318 0.0200375 0)
(7.34484 0.0222904 0)
(7.34659 0.0245993 0)
(7.34842 0.0269619 0)
(7.35033 0.0293754 0)
(7.35231 0.0318369 0)
(7.35438 0.0343432 0)
(7.35653 0.0368911 0)
(7.35877 0.0394776 0)
(7.36109 0.0421001 0)
(7.3635 0.0447563 0)
(7.366 0.0474452 0)
(7.36859 0.0501668 0)
(7.37127 0.0529224 0)
(7.37404 0.0557152 0)
(7.3769 0.0585502 0)
(7.37986 0.0614346 0)
(7.38293 0.0643776 0)
(7.3861 0.0673904 0)
(7.3894 0.0704854 0)
(7.39284 0.073676 0)
(7.39645 0.0769733 0)
(7.40024 0.0803945 0)
(7.33302 0.000714723 0)
(7.33324 0.00220938 0)
(7.33371 0.00376747 0)
(7.33439 0.00539159 0)
(7.33524 0.00708251 0)
(7.33627 0.00884035 0)
(7.33743 0.0106646 0)
(7.33873 0.0125542 0)
(7.34014 0.0145074 0)
(7.34167 0.0165224 0)
(7.34329 0.0185967 0)
(7.345 0.0207277 0)
(7.34681 0.0229123 0)
(7.34871 0.0251474 0)
(7.35069 0.0274295 0)
(7.35276 0.029755 0)
(7.35491 0.0321202 0)
(7.35716 0.0345215 0)
(7.35949 0.0369559 0)
(7.36192 0.0394205 0)
(7.36443 0.0419132 0)
(7.36704 0.0444326 0)
(7.36975 0.0469782 0)
(7.37255 0.0495507 0)
(7.37545 0.052152 0)
(7.37846 0.0547853 0)
(7.38158 0.057455 0)
(7.38481 0.0601667 0)
(7.38817 0.0629268 0)
(7.39167 0.0657418 0)
(7.39532 0.0686182 0)
(7.39916 0.0715592 0)
(7.40319 0.0745735 0)
(7.33302 0.000630886 0)
(7.33324 0.00195982 0)
(7.3337 0.00335995 0)
(7.33438 0.00483666 0)
(7.33523 0.00639163 0)
(7.33625 0.00802473 0)
(7.33742 0.00973441 0)
(7.33873 0.0115179 0)
(7.34016 0.0133716 0)
(7.34171 0.0152914 0)
(7.34336 0.017273 0)
(7.34512 0.0193118 0)
(7.34697 0.0214031 0)
(7.34892 0.0235422 0)
(7.35096 0.0257244 0)
(7.3531 0.027945 0)
(7.35534 0.0301995 0)
(7.35766 0.0324838 0)
(7.36008 0.0347939 0)
(7.3626 0.0371269 0)
(7.36521 0.0394799 0)
(7.36792 0.0418511 0)
(7.37073 0.0442391 0)
(7.37364 0.0466436 0)
(7.37666 0.0490649 0)
(7.37979 0.0515041 0)
(7.38304 0.0539631 0)
(7.38641 0.0564439 0)
(7.38992 0.0589486 0)
(7.39357 0.0614787 0)
(7.39739 0.0640349 0)
(7.40139 0.0666142 0)
(7.40559 0.0692196 0)
(7.33302 0.000544535 0)
(7.33324 0.00170017 0)
(7.33371 0.00293011 0)
(7.3344 0.00424022 0)
(7.33527 0.00563137 0)
(7.33631 0.00710268 0)
(7.3375 0.00865224 0)
(7.33884 0.0102769 0)
(7.3403 0.0119724 0)
(7.34189 0.0137343 0)
(7.34359 0.0155577 0)
(7.3454 0.0174374 0)
(7.34731 0.0193682 0)
(7.34932 0.0213449 0)
(7.35143 0.0233621 0)
(7.35364 0.0254147 0)
(7.35595 0.027498 0)
(7.35836 0.0296072 0)
(7.36086 0.031738 0)
(7.36347 0.0338867 0)
(7.36617 0.0360498 0)
(7.36897 0.0382245 0)
(7.37187 0.0404083 0)
(7.37488 0.0425995 0)
(7.378 0.0447965 0)
(7.38124 0.0469982 0)
(7.38459 0.0492035 0)
(7.38807 0.0514112 0)
(7.39168 0.0536194 0)
(7.39545 0.0558256 0)
(7.39937 0.0580258 0)
(7.40347 0.0602123 0)
(7.40776 0.0623838 0)
(7.33302 0.000455868 0)
(7.33324 0.00143786 0)
(7.33371 0.00250631 0)
(7.3344 0.00367058 0)
(7.33527 0.00493162 0)
(7.33631 0.00628642 0)
(7.33751 0.00773014 0)
(7.33886 0.00925662 0)
(7.34034 0.0108588 0)
(7.34195 0.0125295 0)
(7.34368 0.0142611 0)
(7.34552 0.0160468 0)
(7.34748 0.0178797 0)
(7.34954 0.0197534 0)
(7.35171 0.0216615 0)
(7.35398 0.0235983 0)
(7.35635 0.0255584 0)
(7.35883 0.0275365 0)
(7.3614 0.029528 0)
(7.36408 0.0315285 0)
(7.36686 0.0335341 0)
(7.36974 0.0355414 0)
(7.37272 0.037547 0)
(7.37581 0.039548 0)
(7.37901 0.0415416 0)
(7.38232 0.0435247 0)
(7.38575 0.0454942 0)
(7.3893 0.0474464 0)
(7.39299 0.0493768 0)
(7.39681 0.0512795 0)
(7.40079 0.0531478 0)
(7.40493 0.0549705 0)
(7.40924 0.0567442 0)
(7.33302 0.000360051 0)
(7.33326 0.00114294 0)
(7.33376 0.00200819 0)
(7.33448 0.0029657 0)
(7.33539 0.00401652 0)
(7.33648 0.00515943 0)
(7.33772 0.00639227 0)
(7.33911 0.00771015 0)
(7.34064 0.00910646 0)
(7.3423 0.0105741 0)
(7.34408 0.0121058 0)
(7.34597 0.013694 0)
(7.34798 0.0153313 0)
(7.35009 0.0170108 0)
(7.35232 0.0187255 0)
(7.35465 0.0204688 0)
(7.35708 0.0222345 0)
(7.35962 0.0240167 0)
(7.36226 0.0258098 0)
(7.365 0.0276084 0)
(7.36784 0.0294078 0)
(7.37079 0.0312031 0)
(7.37383 0.0329897 0)
(7.37698 0.0347632 0)
(7.38024 0.0365187 0)
(7.38361 0.0382514 0)
(7.38709 0.0399559 0)
(7.39068 0.0416261 0)
(7.3944 0.043255 0)
(7.39825 0.0448346 0)
(7.40223 0.0463555 0)
(7.40635 0.0478048 0)
(7.41062 0.049177 0)
(7.33302 0.000265322 0)
(7.33324 0.000875499 0)
(7.33374 0.00159729 0)
(7.33446 0.0024404 0)
(7.33537 0.00340024 0)
(7.33646 0.00446514 0)
(7.33771 0.00562533 0)
(7.33912 0.00687188 0)
(7.34067 0.00819475 0)
(7.34236 0.00958351 0)
(7.34417 0.0110286 0)
(7.3461 0.0125216 0)
(7.34815 0.0140547 0)
(7.35031 0.0156206 0)
(7.35259 0.0172124 0)
(7.35497 0.0188235 0)
(7.35746 0.020448 0)
(7.36006 0.0220801 0)
(7.36276 0.0237144 0)
(7.36555 0.0253456 0)
(7.36845 0.0269688 0)
(7.37145 0.028579 0)
(7.37454 0.0301713 0)
(7.37774 0.0317407 0)
(7.38103 0.0332818 0)
(7.38443 0.0347889 0)
(7.38793 0.0362556 0)
(7.39153 0.0376747 0)
(7.39524 0.0390383 0)
(7.39906 0.0403369 0)
(7.403 0.0415605 0)
(7.40705 0.0426952 0)
(7.41123 0.0437354 0)
(7.33303 0.000138316 0)
(7.33332 0.000467869 0)
(7.3339 0.000896649 0)
(7.33471 0.00144024 0)
(7.3357 0.00209654 0)
(7.33685 0.00286592 0)
(7.33817 0.0037458 0)
(7.33963 0.00472514 0)
(7.34123 0.0057936 0)
(7.34296 0.00694151 0)
(7.34481 0.00815707 0)
(7.34678 0.00942938 0)
(7.34886 0.0107489 0)
(7.35107 0.0121069 0)
(7.35338 0.0134951 0)
(7.3558 0.0149057 0)
(7.35833 0.0163312 0)
(7.36097 0.0177646 0)
(7.3637 0.0191995 0)
(7.36654 0.0206294 0)
(7.36947 0.0220482 0)
(7.3725 0.0234499 0)
(7.37563 0.024828 0)
(7.37885 0.0261764 0)
(7.38216 0.0274883 0)
(7.38557 0.0287565 0)
(7.38906 0.0299733 0)
(7.39265 0.0311302 0)
(7.39634 0.0322181 0)
(7.40011 0.0332268 0)
(7.40398 0.0341453 0)
(7.40795 0.0349598 0)
(7.412 0.0356642 0)
(7.33302 5.54863e-05 0)
(7.33326 0.000275422 0)
(7.33381 0.000652734 0)
(7.33461 0.001183 0)
(7.3356 0.00185348 0)
(7.33678 0.00261808 0)
(7.33813 0.00347056 0)
(7.33963 0.00441003 0)
(7.34128 0.00542053 0)
(7.34306 0.00648822 0)
(7.34496 0.00760337 0)
(7.34698 0.00875901 0)
(7.34912 0.00994683 0)
(7.35138 0.0111595 0)
(7.35375 0.0123907 0)
(7.35622 0.0136345 0)
(7.3588 0.0148846 0)
(7.36148 0.0161355 0)
(7.36426 0.0173814 0)
(7.36714 0.0186169 0)
(7.3701 0.0198365 0)
(7.37316 0.0210346 0)
(7.3763 0.0222056 0)
(7.37953 0.0233434 0)
(7.38284 0.0244417 0)
(7.38623 0.0254936 0)
(7.38969 0.0264917 0)
(7.39323 0.0274277 0)
(7.39684 0.0282929 0)
(7.40052 0.0290772 0)
(7.40427 0.0297704 0)
(7.40809 0.0303593 0)
(7.41197 0.0308385 0)
(7.33305 -0.00014868 0)
(7.33347 -0.00041746 0)
(7.33422 -0.000562199 0)
(7.33518 -0.000539878 0)
(7.33628 -0.000354813 0)
(7.33751 1.2652e-05 0)
(7.33891 0.000533989 0)
(7.34045 0.00116864 0)
(7.34211 0.00191163 0)
(7.3439 0.00275007 0)
(7.34581 0.00365401 0)
(7.34785 0.00461017 0)
(7.35 0.00560911 0)
(7.35227 0.00664125 0)
(7.35465 0.00769683 0)
(7.35714 0.00876712 0)
(7.35974 0.0098446 0)
(7.36244 0.0109222 0)
(7.36523 0.0119934 0)
(7.36813 0.0130516 0)
(7.37111 0.0140903 0)
(7.37417 0.0151032 0)
(7.37732 0.0160836 0)
(7.38055 0.0170248 0)
(7.38385 0.0179195 0)
(7.38723 0.0187602 0)
(7.39067 0.0195387 0)
(7.39417 0.0202465 0)
(7.39773 0.0208745 0)
(7.40134 0.0214128 0)
(7.405 0.0218515 0)
(7.4087 0.0221784 0)
(7.41244 0.0223884 0)
(7.33301 -0.000214157 0)
(7.33329 -0.000422967 0)
(7.334 -0.000362963 0)
(7.33499 -0.000129645 0)
(7.33621 0.000215072 0)
(7.33762 0.000684207 0)
(7.33914 0.00124344 0)
(7.3408 0.00186376 0)
(7.34259 0.00252442 0)
(7.34449 0.00321699 0)
(7.34648 0.00395001 0)
(7.34859 0.00471852 0)
(7.35082 0.00550953 0)
(7.35315 0.00632046 0)
(7.35559 0.00714822 0)
(7.35813 0.00798671 0)
(7.36077 0.00883028 0)
(7.36351 0.00967366 0)
(7.36633 0.0105117 0)
(7.36924 0.0113391 0)
(7.37223 0.0121509 0)
(7.3753 0.0129418 0)
(7.37843 0.0137063 0)
(7.38163 0.0144388 0)
(7.38489 0.0151334 0)
(7.3882 0.015784 0)
(7.39156 0.0163837 0)
(7.39496 0.0169255 0)
(7.39839 0.0174018 0)
(7.40184 0.0178044 0)
(7.40532 0.0181249 0)
(7.40882 0.0183528 0)
(7.41232 0.0184842 0)
(7.33314 -0.000775931 0)
(7.33391 -0.00213233 0)
(7.33497 -0.00299194 0)
(7.3361 -0.00345865 0)
(7.33734 -0.00362794 0)
(7.33869 -0.00357491 0)
(7.34015 -0.00334636 0)
(7.34173 -0.00297076 0)
(7.34341 -0.00249479 0)
(7.34522 -0.00194812 0)
(7.34719 -0.00133629 0)
(7.34927 -0.000678441 0)
(7.35146 1.59048e-05 0)
(7.35378 0.000732464 0)
(7.35621 0.00145984 0)
(7.35875 0.0021913 0)
(7.3614 0.00292053 0)
(7.36415 0.00364163 0)
(7.36698 0.00435047 0)
(7.36991 0.00504063 0)
(7.37292 0.00570671 0)
(7.376 0.00634406 0)
(7.37916 0.00694691 0)
(7.38237 0.00750938 0)
(7.38564 0.00802544 0)
(7.38896 0.00848875 0)
(7.39232 0.00889262 0)
(7.39571 0.00922997 0)
(7.39913 0.00949334 0)
(7.40256 0.00967486 0)
(7.406 0.00976658 0)
(7.40943 0.00975893 0)
(7.41285 0.0096484 0)
(7.33307 -0.000346722 0)
(7.33387 -0.000773723 0)
(7.3353 -0.000971297 0)
(7.33685 -0.00109643 0)
(7.3385 -0.0011383 0)
(7.34026 -0.00109906 0)
(7.34209 -0.00100024 0)
(7.34398 -0.000854949 0)
(7.34596 -0.000655027 0)
(7.34802 -0.000402101 0)
(7.35016 -0.000114113 0)
(7.3524 0.000202924 0)
(7.35473 0.00055231 0)
(7.35715 0.000926211 0)
(7.35966 0.00131793 0)
(7.36226 0.00172402 0)
(7.36494 0.00214047 0)
(7.36771 0.00256299 0)
(7.37056 0.00298628 0)
(7.37348 0.00340755 0)
(7.37647 0.00382295 0)
(7.37953 0.00422803 0)
(7.38264 0.00461931 0)
(7.3858 0.00499305 0)
(7.38899 0.00534521 0)
(7.39221 0.00567161 0)
(7.39546 0.00596787 0)
(7.39871 0.00622938 0)
(7.40196 0.00645133 0)
(7.4052 0.00662861 0)
(7.40843 0.00675631 0)
(7.41162 0.00682776 0)
(7.41479 0.00684188 0)
(7.33438 -0.00352219 0)
(7.33913 -0.0065581 0)
(7.34478 -0.00771242 0)
(7.35085 -0.00834663 0)
(7.3572 -0.00855749 0)
(7.36361 -0.0084672 0)
(7.36995 -0.00822619 0)
(7.37616 -0.00789939 0)
(7.38223 -0.00751903 0)
(7.38815 -0.00711015 0)
(7.39392 -0.00668827 0)
(7.39956 -0.00626039 0)
(7.40509 -0.00583846 0)
(7.41052 -0.00542475 0)
(7.41587 -0.00502027 0)
(7.42116 -0.00462843 0)
(7.4264 -0.00425217 0)
(7.43161 -0.00389391 0)
(7.43681 -0.00355759 0)
(7.442 -0.00324427 0)
(7.44719 -0.00295613 0)
(7.45239 -0.00269648 0)
(7.45762 -0.00246783 0)
(7.46287 -0.00227313 0)
(7.46817 -0.00211582 0)
(7.47351 -0.00199966 0)
(7.47891 -0.00192879 0)
(7.48438 -0.00190758 0)
(7.48991 -0.00194074 0)
(7.49553 -0.00203312 0)
(7.50122 -0.00218993 0)
(7.50701 -0.00241679 0)
(7.51288 -0.00271686 0)
(7.32977 -0.00391329 0)
(7.32452 -0.00810526 0)
(7.31588 -0.0104301 0)
(7.30567 -0.0120431 0)
(7.29532 -0.0130745 0)
(7.28498 -0.0136547 0)
(7.27479 -0.01394 0)
(7.26494 -0.0140247 0)
(7.2555 -0.0139672 0)
(7.24651 -0.0138137 0)
(7.23799 -0.013601 0)
(7.22993 -0.0133562 0)
(7.22233 -0.0130975 0)
(7.21517 -0.0128378 0)
(7.20842 -0.0125875 0)
(7.20205 -0.0123542 0)
(7.19605 -0.0121431 0)
(7.19037 -0.0119583 0)
(7.185 -0.0118021 0)
(7.1799 -0.011679 0)
(7.17504 -0.0115925 0)
(7.1704 -0.0115455 0)
(7.16593 -0.0115421 0)
(7.16162 -0.0115871 0)
(7.15742 -0.0116851 0)
(7.15331 -0.0118414 0)
(7.14926 -0.0120612 0)
(7.14522 -0.01235 0)
(7.14116 -0.0127133 0)
(7.13705 -0.0131564 0)
(7.13285 -0.0136848 0)
(7.12853 -0.0143021 0)
(7.12406 -0.0150129 0)
(2.56325 0.233238 0)
(2.98993 0.387001 0)
(3.55385 0.322928 0)
(3.90936 0.0509677 0)
(4.28037 -0.373206 0)
(4.77324 -0.948148 0)
(5.18894 -1.59762 0)
(5.21612 -2.00516 0)
(4.76355 -1.8499 0)
(4.19967 -1.0783 0)
(2.82615 -0.422012 0)