/*--------------------------------*- C++ -*----------------------------------*\
  =========                 |
  \\      /  F ield         | OpenFOAM: The Open Source CFD Toolbox
   \\    /   O peration     | Website:  https://openfoam.org
    \\  /    A nd           | Version:  10
     \\/     M anipulation  |
\*---------------------------------------------------------------------------*/
FoamFile
{
    format      ascii;
    class       volScalarField;
    location    "0.145";
    object      k;
}
// * * * * * * * * * * * * * * * * * * * * * * * * * * * * * * * * * * * * * //

dimensions      [0 2 -2 0 0 0 0];

internalField   nonuniform List<scalar> 
6820
(
0.196709
0.190616
0.184994
0.179724
0.174798
0.17025
0.166115
0.162408
0.159125
0.156249
0.153751
0.151601
0.149766
0.148214
0.146916
0.145843
0.144971
0.144276
0.143739
0.14334
0.143064
0.142895
0.14282
0.142829
0.142909
0.143054
0.14325
0.143514
0.143727
0.144414
0.143087
0.151365
0.114751
0.201954
0.200831
0.197543
0.193922
0.19084
0.188584
0.187153
0.186427
0.186256
0.186508
0.187076
0.187881
0.188862
0.189974
0.191184
0.192464
0.193796
0.195162
0.196549
0.197949
0.199351
0.20075
0.202141
0.20352
0.204886
0.206241
0.207589
0.208942
0.210317
0.211834
0.213274
0.216281
0.216926
0.200488
0.200475
0.199118
0.19707
0.194841
0.192691
0.190724
0.188985
0.187487
0.18623
0.185203
0.18439
0.183772
0.183331
0.183045
0.182896
0.182869
0.182947
0.183117
0.183366
0.183684
0.184062
0.184491
0.184965
0.185477
0.186023
0.186599
0.18721
0.187844
0.188544
0.189229
0.190096
0.190743
0.199661
0.199121
0.198219
0.196983
0.195545
0.194012
0.192458
0.190931
0.189463
0.188074
0.186776
0.185577
0.184479
0.183481
0.182582
0.181777
0.181062
0.18043
0.179877
0.179396
0.178983
0.178631
0.178337
0.178095
0.177901
0.177753
0.177648
0.177584
0.177559
0.177582
0.177642
0.177763
0.17793
0.199429
0.198466
0.197531
0.196513
0.195399
0.194214
0.192986
0.19174
0.190495
0.189268
0.188069
0.186909
0.185794
0.184728
0.183714
0.182753
0.181846
0.180993
0.180191
0.179441
0.178739
0.178084
0.177473
0.176905
0.176378
0.17589
0.175439
0.175024
0.174643
0.174299
0.173989
0.173714
0.173471
0.199398
0.198267
0.197202
0.196166
0.195133
0.194088
0.193029
0.191959
0.190884
0.189813
0.188751
0.187704
0.186679
0.185678
0.184705
0.183762
0.182851
0.181972
0.181127
0.180316
0.179538
0.178793
0.178081
0.177401
0.176751
0.176131
0.175541
0.174979
0.174446
0.17394
0.173462
0.17301
0.172584
0.199395
0.19822
0.197098
0.196021
0.194978
0.193957
0.192952
0.191958
0.190973
0.189998
0.189032
0.18808
0.187141
0.186219
0.185315
0.184431
0.183568
0.182728
0.18191
0.181116
0.180345
0.179598
0.178876
0.178176
0.177501
0.176848
0.176219
0.175612
0.175027
0.174464
0.173924
0.173404
0.172906
0.199395
0.198211
0.197069
0.195969
0.194908
0.193881
0.192884
0.191912
0.190961
0.19003
0.189116
0.188218
0.187337
0.186473
0.185626
0.184796
0.183983
0.183189
0.182413
0.181656
0.180917
0.180198
0.179497
0.178815
0.178152
0.177508
0.176882
0.176275
0.175686
0.175115
0.174562
0.174028
0.17351
0.199395
0.198209
0.197063
0.195955
0.194884
0.19385
0.192848
0.191877
0.190934
0.190017
0.189124
0.188252
0.187401
0.186569
0.185757
0.184963
0.184186
0.183428
0.182687
0.181963
0.181257
0.180567
0.179895
0.179238
0.178599
0.177975
0.177368
0.176777
0.176202
0.175642
0.175099
0.174571
0.174058
0.199395
0.198209
0.197061
0.195951
0.194877
0.193838
0.192833
0.19186
0.190916
0.190002
0.189114
0.188251
0.187411
0.186595
0.185799
0.185024
0.184269
0.183533
0.182814
0.182114
0.181431
0.180764
0.180114
0.17948
0.178862
0.178259
0.177671
0.177099
0.176541
0.175997
0.175468
0.174954
0.174454
0.199395
0.198209
0.197061
0.19595
0.194875
0.193834
0.192827
0.191852
0.190907
0.189992
0.189104
0.188243
0.187408
0.186596
0.185807
0.185041
0.184295
0.18357
0.182863
0.182176
0.181506
0.180854
0.180219
0.1796
0.178997
0.178409
0.177836
0.177278
0.176735
0.176205
0.17569
0.175188
0.1747
0.199395
0.198209
0.19706
0.195949
0.194874
0.193833
0.192825
0.191849
0.190903
0.189987
0.189099
0.188238
0.187403
0.186592
0.185805
0.185042
0.1843
0.183578
0.182878
0.182196
0.181533
0.180889
0.180261
0.179651
0.179056
0.178478
0.177914
0.177366
0.176832
0.176312
0.175807
0.175314
0.174835
0.199395
0.198209
0.19706
0.195949
0.194873
0.193832
0.192824
0.191847
0.190901
0.189984
0.189096
0.188234
0.187399
0.186588
0.185802
0.185039
0.184298
0.183578
0.182879
0.1822
0.18154
0.180898
0.180274
0.179668
0.179078
0.178504
0.177946
0.177403
0.176874
0.17636
0.17586
0.175373
0.1749
0.199395
0.198209
0.19706
0.195949
0.194873
0.193831
0.192823
0.191846
0.1909
0.189983
0.189094
0.188232
0.187396
0.186586
0.185799
0.185036
0.184295
0.183575
0.182877
0.182198
0.181539
0.180899
0.180276
0.179671
0.179083
0.178511
0.177955
0.177414
0.176889
0.176377
0.17588
0.175396
0.174926
0.199395
0.198208
0.19706
0.195948
0.194872
0.193831
0.192822
0.191845
0.190899
0.189982
0.189092
0.18823
0.187394
0.186583
0.185797
0.185033
0.184292
0.183573
0.182874
0.182196
0.181537
0.180896
0.180274
0.17967
0.179082
0.178511
0.177956
0.177416
0.176891
0.176381
0.175885
0.175402
0.174933
0.199395
0.198208
0.19706
0.195948
0.194872
0.19383
0.192822
0.191845
0.190898
0.189981
0.189091
0.188229
0.187393
0.186582
0.185795
0.185031
0.18429
0.18357
0.182871
0.182193
0.181534
0.180894
0.180271
0.179667
0.179079
0.178508
0.177953
0.177414
0.176889
0.176379
0.175883
0.175401
0.174932
0.199395
0.198208
0.19706
0.195948
0.194872
0.19383
0.192821
0.191844
0.190897
0.18998
0.18909
0.188228
0.187391
0.18658
0.185793
0.185029
0.184288
0.183568
0.182869
0.18219
0.181531
0.180891
0.180269
0.179664
0.179076
0.178505
0.17795
0.17741
0.176886
0.176376
0.175879
0.175397
0.174928
0.199395
0.198208
0.19706
0.195948
0.194872
0.19383
0.192821
0.191843
0.190896
0.189979
0.189089
0.188227
0.18739
0.186579
0.185791
0.185027
0.184286
0.183566
0.182867
0.182188
0.181529
0.180888
0.180266
0.179661
0.179073
0.178502
0.177947
0.177407
0.176882
0.176372
0.175875
0.175393
0.174923
0.199395
0.198208
0.197059
0.195948
0.194871
0.193829
0.19282
0.191843
0.190896
0.189978
0.189088
0.188226
0.187389
0.186578
0.18579
0.185026
0.184284
0.183564
0.182865
0.182186
0.181527
0.180886
0.180263
0.179658
0.179071
0.178499
0.177944
0.177403
0.176878
0.176368
0.175871
0.175388
0.174918
0.199395
0.198208
0.197059
0.195948
0.194871
0.193829
0.19282
0.191843
0.190895
0.189977
0.189088
0.188225
0.187388
0.186576
0.185789
0.185025
0.184283
0.183563
0.182863
0.182184
0.181525
0.180884
0.180261
0.179656
0.179068
0.178496
0.17794
0.1774
0.176875
0.176364
0.175867
0.175383
0.174913
0.199395
0.198208
0.197059
0.195947
0.194871
0.193829
0.19282
0.191842
0.190895
0.189977
0.189087
0.188224
0.187387
0.186575
0.185788
0.185023
0.184281
0.183561
0.182862
0.182182
0.181523
0.180882
0.180259
0.179653
0.179065
0.178493
0.177937
0.177397
0.176871
0.17636
0.175863
0.175379
0.174908
0.199395
0.198208
0.197059
0.195947
0.194871
0.193829
0.19282
0.191842
0.190895
0.189976
0.189086
0.188223
0.187386
0.186575
0.185787
0.185022
0.18428
0.18356
0.18286
0.182181
0.181521
0.18088
0.180257
0.179651
0.179063
0.178491
0.177934
0.177394
0.176868
0.176356
0.175859
0.175375
0.174904
0.199395
0.198208
0.197059
0.195947
0.194871
0.193829
0.192819
0.191842
0.190894
0.189976
0.189086
0.188223
0.187386
0.186574
0.185786
0.185021
0.184279
0.183558
0.182859
0.182179
0.181519
0.180878
0.180255
0.179649
0.17906
0.178488
0.177932
0.177391
0.176865
0.176353
0.175855
0.175371
0.174899
0.199395
0.198208
0.197059
0.195947
0.194871
0.193829
0.192819
0.191841
0.190894
0.189976
0.189085
0.188222
0.187385
0.186573
0.185785
0.18502
0.184278
0.183557
0.182858
0.182178
0.181518
0.180876
0.180253
0.179647
0.179058
0.178486
0.177929
0.177388
0.176861
0.176349
0.175851
0.175367
0.174895
0.199395
0.198208
0.197059
0.195947
0.194871
0.193829
0.192819
0.191841
0.190894
0.189975
0.189085
0.188222
0.187385
0.186572
0.185784
0.18502
0.184277
0.183556
0.182856
0.182177
0.181516
0.180875
0.180251
0.179645
0.179056
0.178483
0.177927
0.177385
0.176858
0.176346
0.175848
0.175363
0.174891
0.199395
0.198208
0.197059
0.195947
0.194871
0.193828
0.192819
0.191841
0.190894
0.189975
0.189085
0.188222
0.187384
0.186572
0.185784
0.185019
0.184276
0.183555
0.182855
0.182175
0.181515
0.180873
0.180249
0.179643
0.179054
0.178481
0.177924
0.177383
0.176856
0.176343
0.175845
0.175359
0.174887
0.199395
0.198208
0.197059
0.195947
0.194871
0.193828
0.192819
0.191841
0.190893
0.189975
0.189085
0.188221
0.187384
0.186571
0.185783
0.185018
0.184276
0.183555
0.182854
0.182174
0.181514
0.180872
0.180248
0.179642
0.179052
0.178479
0.177922
0.17738
0.176853
0.17634
0.175841
0.175356
0.174884
0.199395
0.198208
0.197059
0.195947
0.194871
0.193828
0.192819
0.191841
0.190893
0.189975
0.189084
0.188221
0.187384
0.186571
0.185783
0.185018
0.184275
0.183554
0.182854
0.182174
0.181513
0.180871
0.180247
0.17964
0.179051
0.178478
0.17792
0.177378
0.176851
0.176338
0.175839
0.175353
0.17488
0.199395
0.198208
0.197059
0.195947
0.194871
0.193828
0.192819
0.191841
0.190893
0.189975
0.189084
0.188221
0.187383
0.186571
0.185782
0.185017
0.184274
0.183553
0.182853
0.182173
0.181512
0.18087
0.180246
0.179639
0.179049
0.178476
0.177918
0.177376
0.176849
0.176336
0.175836
0.17535
0.174877
0.199395
0.198208
0.197059
0.195947
0.194871
0.193828
0.192819
0.191841
0.190893
0.189975
0.189085
0.188221
0.187384
0.186571
0.185783
0.185018
0.184275
0.183554
0.182853
0.182173
0.181512
0.180869
0.180245
0.179639
0.179049
0.178475
0.177918
0.177375
0.176847
0.176334
0.175834
0.175348
0.174875
0.199395
0.198208
0.197059
0.195947
0.194871
0.193828
0.192819
0.191841
0.190893
0.189975
0.189084
0.188221
0.187383
0.186571
0.185782
0.185017
0.184274
0.183553
0.182853
0.182172
0.181511
0.180869
0.180245
0.179638
0.179048
0.178475
0.177917
0.177374
0.176846
0.176333
0.175833
0.175347
0.174873
0.199395
0.198208
0.197059
0.195948
0.194871
0.193829
0.19282
0.191843
0.190895
0.189977
0.189087
0.188223
0.187386
0.186573
0.185785
0.18502
0.184277
0.183556
0.182855
0.182175
0.181513
0.180871
0.180247
0.17964
0.17905
0.178476
0.177918
0.177375
0.176847
0.176333
0.175833
0.175346
0.174873
0.199395
0.198209
0.19706
0.195949
0.194872
0.19383
0.192821
0.191843
0.190896
0.189977
0.189087
0.188224
0.187387
0.186574
0.185786
0.185021
0.184278
0.183557
0.182857
0.182176
0.181515
0.180873
0.180248
0.179641
0.179051
0.178476
0.177918
0.177375
0.176846
0.176332
0.175831
0.175344
0.174869
0.199395
0.198208
0.19706
0.19595
0.194875
0.193835
0.192827
0.191851
0.190904
0.189987
0.189097
0.188234
0.187397
0.186584
0.185796
0.18503
0.184287
0.183565
0.182864
0.182183
0.181521
0.180877
0.180251
0.179643
0.179051
0.178475
0.177914
0.177369
0.176838
0.176322
0.175819
0.175329
0.174851
0.199396
0.198212
0.197066
0.195957
0.194883
0.193842
0.192834
0.191857
0.190911
0.189993
0.189104
0.188241
0.187403
0.18659
0.185801
0.185034
0.184289
0.183565
0.182861
0.182177
0.181511
0.180863
0.180233
0.17962
0.179022
0.178441
0.177874
0.177323
0.176785
0.176261
0.175751
0.175253
0.174768
0.199396
0.198213
0.197071
0.195969
0.194902
0.193869
0.192866
0.191893
0.190947
0.190029
0.189137
0.188269
0.187426
0.186606
0.185808
0.185031
0.184275
0.183539
0.182823
0.182125
0.181444
0.180781
0.180135
0.179505
0.178891
0.178292
0.177708
0.177139
0.176583
0.17604
0.175511
0.174995
0.174491
0.199402
0.19824
0.197115
0.196019
0.194953
0.193916
0.192909
0.191928
0.190972
0.19004
0.189131
0.188245
0.187379
0.186535
0.185711
0.184907
0.184122
0.183355
0.182607
0.181877
0.181164
0.180468
0.179789
0.179125
0.178477
0.177844
0.177225
0.176621
0.176031
0.175455
0.174891
0.174341
0.173803
0.199421
0.198284
0.197214
0.196182
0.195158
0.194135
0.193118
0.192109
0.191116
0.19014
0.189186
0.188254
0.187345
0.186459
0.185597
0.184757
0.183938
0.18314
0.182363
0.181605
0.180865
0.180144
0.17944
0.178753
0.178082
0.177427
0.176787
0.176162
0.175552
0.174955
0.174372
0.173803
0.173247
0.199655
0.198885
0.198077
0.197302
0.196604
0.195976
0.195406
0.194882
0.194399
0.193954
0.193545
0.193172
0.192832
0.192526
0.192252
0.192009
0.191795
0.191609
0.191449
0.191315
0.191203
0.191113
0.191044
0.190994
0.190962
0.190946
0.190946
0.190961
0.19099
0.191032
0.191085
0.19115
0.191225
0.205419
0.216602
0.227661
0.238503
0.249093
0.259416
0.269459
0.279212
0.288667
0.297817
0.306659
0.315189
0.323407
0.331314
0.338913
0.346206
0.3532
0.359899
0.36631
0.37244
0.378297
0.383888
0.389223
0.394309
0.399155
0.403771
0.408163
0.412342
0.416316
0.420093
0.423681
0.427088
0.430326
0.317856
0.631554
0.951809
1.24066
1.47735
1.65289
1.76951
1.83743
1.86975
1.87883
1.87429
1.86265
1.84782
1.8319
1.81589
1.80029
1.78537
1.77135
1.75846
1.74689
1.73678
1.72815
1.72094
1.71496
1.7099
1.70542
1.7011
1.69649
1.69113
1.68457
1.67636
1.66604
1.65321
1.63748
1.61853
1.59608
1.56996
1.54006
1.5064
1.46908
1.42836
1.38457
1.33817
1.28972
1.23983
1.18922
1.13861
1.08873
1.04031
0.99402
0.950451
0.910087
0.873285
0.84026
0.811076
0.785649
0.763749
0.74501
0.728942
0.714943
0.702314
0.690284
0.678032
0.664722
0.649549
0.631775
0.610782
0.586125
0.557571
0.525158
0.489227
0.450457
0.409873
0.368817
0.328857
0.291614
0.258525
0.230586
0.208185
0.191106
0.178695
0.170098
0.164453
0.161001
0.159131
0.158373
0.158383
0.158916
0.159805
0.16094
0.162256
0.163715
0.165301
0.167006
0.168828
0.170757
0.172778
0.174886
0.176856
0.179959
0.23046
0.259527
0.303837
0.364181
0.440395
0.530809
0.631913
0.738772
0.845707
0.947273
1.03905
1.11812
1.1833
1.23488
1.27423
1.30328
1.3241
1.33858
1.34829
1.35446
1.35801
1.35959
1.35964
1.35842
1.35608
1.35264
1.34804
1.34216
1.33481
1.3258
1.31489
1.30184
1.2864
1.26833
1.24744
1.22359
1.1967
1.16675
1.13386
1.09823
1.06015
1.02003
0.978358
0.935704
0.892674
0.849907
0.808041
0.76769
0.729413
0.693694
0.660921
0.631373
0.605216
0.582494
0.563145
0.546999
0.533796
0.523188
0.514751
0.507985
0.50232
0.49713
0.491742
0.485463
0.477617
0.467583
0.454843
0.439034
0.419997
0.397818
0.372865
0.345796
0.317543
0.289245
0.262127
0.237336
0.215755
0.197875
0.183764
0.173148
0.165539
0.160379
0.157124
0.155301
0.154519
0.154474
0.154936
0.155742
0.156776
0.157967
0.159272
0.16067
0.162157
0.163734
0.165409
0.167182
0.169044
0.171003
0.172842
0.175801
0.191628
0.193846
0.198493
0.206191
0.217238
0.231971
0.250831
0.274419
0.303457
0.338433
0.37931
0.425459
0.475681
0.52834
0.581556
0.633436
0.68228
0.726754
0.76599
0.799608
0.827647
0.850451
0.868528
0.882421
0.892627
0.899547
0.903483
0.904646
0.903174
0.899151
0.892618
0.883587
0.872052
0.858005
0.841445
0.822401
0.800946
0.77721
0.751395
0.723777
0.694707
0.6646
0.63392
0.60316
0.57282
0.543384
0.515297
0.488944
0.464642
0.442623
0.423035
0.405946
0.391348
0.379168
0.36928
0.361516
0.355669
0.351499
0.34873
0.347044
0.346078
0.34542
0.344613
0.343167
0.340586
0.336402
0.330215
0.321745
0.31087
0.297672
0.282453
0.265735
0.248223
0.230734
0.214089
0.199
0.185973
0.175254
0.166852
0.160591
0.156187
0.153316
0.151658
0.150922
0.150864
0.151285
0.152035
0.153001
0.154107
0.155303
0.156563
0.157878
0.15925
0.160688
0.162204
0.163807
0.165496
0.167285
0.168973
0.171747
0.178074
0.178242
0.17862
0.179393
0.180704
0.182667
0.185381
0.18897
0.193575
0.199355
0.206544
0.2154
0.226172
0.239063
0.254187
0.271525
0.290889
0.311913
0.334069
0.35672
0.37919
0.400829
0.421069
0.439452
0.455636
0.469388
0.480571
0.48913
0.495074
0.49846
0.499377
0.497931
0.494238
0.488422
0.480615
0.470962
0.459634
0.446828
0.432778
0.417752
0.40205
0.38599
0.369896
0.354084
0.338841
0.324417
0.311013
0.298777
0.287805
0.278144
0.2698
0.262745
0.256927
0.25228
0.248725
0.246175
0.24454
0.243717
0.243589
0.24402
0.244839
0.245841
0.246779
0.24737
0.247309
0.246286
0.244026
0.240318
0.235058
0.228274
0.220146
0.211
0.201275
0.191474
0.182094
0.173561
0.166177
0.160104
0.155375
0.151913
0.149578
0.148192
0.147571
0.147539
0.147943
0.148653
0.149569
0.150614
0.151736
0.152901
0.154095
0.155312
0.156561
0.157854
0.159208
0.160635
0.162141
0.163747
0.16527
0.167824
0.17319
0.17286
0.17256
0.172333
0.172213
0.17223
0.172409
0.172775
0.173348
0.174146
0.175198
0.176544
0.178235
0.180325
0.182875
0.18594
0.189566
0.193782
0.19859
0.20396
0.209828
0.216092
0.222619
0.229246
0.235791
0.242064
0.247874
0.253046
0.25743
0.26091
0.263407
0.264879
0.265316
0.264742
0.263205
0.260776
0.257547
0.253627
0.249143
0.24423
0.239033
0.233694
0.228351
0.223126
0.218122
0.213424
0.209092
0.205167
0.201672
0.198615
0.195996
0.193804
0.192026
0.190647
0.189649
0.189014
0.188723
0.188752
0.189071
0.189638
0.190394
0.191258
0.192121
0.192849
0.193283
0.19325
0.192585
0.191145
0.188846
0.185671
0.181697
0.177085
0.17207
0.16693
0.161949
0.157379
0.153414
0.150171
0.147697
0.145971
0.144928
0.144474
0.144502
0.144904
0.145582
0.146453
0.147447
0.148512
0.149611
0.150721
0.151832
0.152945
0.154068
0.155216
0.156407
0.157658
0.158979
0.160395
0.161742
0.164051
0.172108
0.171568
0.171034
0.170516
0.170023
0.169563
0.16915
0.168793
0.168498
0.168269
0.168109
0.168024
0.168019
0.168102
0.168283
0.168573
0.168982
0.169521
0.170195
0.171006
0.171952
0.173025
0.174208
0.175479
0.176808
0.178157
0.179483
0.180741
0.181884
0.182868
0.183656
0.184217
0.184532
0.184587
0.184383
0.183928
0.183237
0.182337
0.181256
0.180031
0.178699
0.1773
0.17587
0.174445
0.173053
0.17172
0.170464
0.1693
0.168238
0.167282
0.166438
0.165706
0.165086
0.164579
0.164185
0.163904
0.163736
0.16368
0.163733
0.163886
0.164123
0.164417
0.164729
0.165003
0.165168
0.165141
0.164836
0.164173
0.163094
0.161575
0.159639
0.157354
0.154835
0.152225
0.149681
0.147347
0.145344
0.143754
0.142614
0.141927
0.141662
0.141766
0.142176
0.142824
0.143647
0.144588
0.145598
0.146641
0.147689
0.148727
0.149747
0.150752
0.15175
0.152756
0.153789
0.154867
0.156005
0.157229
0.158398
0.160442
0.172348
0.171719
0.171093
0.170471
0.169856
0.169251
0.168659
0.168084
0.167531
0.167001
0.166498
0.166021
0.165574
0.165156
0.16477
0.164418
0.164101
0.163822
0.163582
0.163382
0.163222
0.163102
0.16302
0.162971
0.162951
0.162952
0.162965
0.16298
0.162987
0.162975
0.162932
0.162849
0.16272
0.162539
0.162302
0.16201
0.161664
0.161268
0.160828
0.160351
0.159846
0.159322
0.158786
0.158249
0.157715
0.157192
0.156684
0.156193
0.155722
0.15527
0.154839
0.154427
0.154035
0.153663
0.153312
0.152983
0.152678
0.152402
0.152155
0.151939
0.151753
0.151592
0.151444
0.15129
0.151105
0.150853
0.150497
0.15
0.149331
0.148474
0.147434
0.146241
0.144949
0.14363
0.142367
0.14124
0.14032
0.139656
0.139275
0.139181
0.139356
0.139771
0.140385
0.141153
0.142031
0.14298
0.143965
0.144957
0.145937
0.146891
0.147815
0.148711
0.149587
0.150458
0.15134
0.152253
0.153213
0.154249
0.15524
0.157008
0.172928
0.172272
0.171614
0.170957
0.170301
0.169647
0.168998
0.168354
0.167717
0.16709
0.166473
0.165868
0.165275
0.164696
0.164131
0.163582
0.163048
0.16253
0.162029
0.161545
0.161079
0.16063
0.160199
0.159785
0.159387
0.159005
0.158635
0.158278
0.157929
0.157586
0.157247
0.156909
0.15657
0.156227
0.155881
0.15553
0.155175
0.154816
0.154454
0.15409
0.153726
0.153363
0.153002
0.152643
0.152287
0.151934
0.151581
0.151228
0.150872
0.150512
0.150145
0.149768
0.149379
0.148978
0.148564
0.148137
0.147699
0.147253
0.146802
0.14635
0.1459
0.145455
0.145015
0.144577
0.144135
0.14368
0.1432
0.142682
0.142115
0.141493
0.14082
0.140112
0.139394
0.138705
0.138087
0.137583
0.137232
0.137061
0.137084
0.137303
0.137706
0.138272
0.138973
0.139777
0.140653
0.14157
0.142501
0.143425
0.144325
0.14519
0.146016
0.146805
0.147565
0.148306
0.149047
0.149805
0.150597
0.151451
0.152268
0.153757
0.173479
0.172824
0.172168
0.17151
0.17085
0.170189
0.169529
0.168869
0.168211
0.167556
0.166905
0.16626
0.16562
0.164987
0.164362
0.163744
0.163136
0.162537
0.161948
0.161369
0.160801
0.160243
0.159696
0.15916
0.158637
0.158125
0.157625
0.157137
0.156661
0.156196
0.155742
0.155298
0.154865
0.154441
0.154027
0.153623
0.153228
0.152843
0.152467
0.1521
0.151742
0.151391
0.151047
0.150707
0.150369
0.150032
0.149692
0.149345
0.148989
0.14862
0.148234
0.147829
0.147401
0.146949
0.146472
0.145968
0.145439
0.144887
0.144315
0.143727
0.143128
0.142523
0.141916
0.141311
0.140713
0.140122
0.13954
0.138966
0.138401
0.137848
0.137312
0.136804
0.13634
0.13594
0.135626
0.135423
0.135348
0.135416
0.135632
0.135995
0.136493
0.137111
0.137826
0.138614
0.13945
0.14031
0.141171
0.142016
0.14283
0.143604
0.144333
0.145019
0.145667
0.146289
0.146898
0.147511
0.148145
0.148827
0.149481
0.150692
0.173887
0.173246
0.172602
0.171955
0.171305
0.170654
0.170001
0.169346
0.168692
0.168038
0.167385
0.166734
0.166086
0.165441
0.164801
0.164165
0.163535
0.162911
0.162293
0.161683
0.16108
0.160484
0.159897
0.159318
0.158749
0.158189
0.157641
0.157103
0.156576
0.156061
0.155558
0.155068
0.154589
0.154124
0.153671
0.153231
0.152805
0.152391
0.151989
0.151599
0.15122
0.15085
0.150486
0.150127
0.14977
0.149412
0.149049
0.148677
0.148294
0.147895
0.147476
0.147035
0.146568
0.146073
0.145548
0.144992
0.144407
0.143794
0.143155
0.142494
0.141816
0.141126
0.140432
0.139739
0.139054
0.138385
0.137737
0.137117
0.136531
0.135987
0.135493
0.135058
0.134693
0.134412
0.134227
0.13415
0.134191
0.134355
0.134643
0.13505
0.135566
0.136176
0.136861
0.137602
0.138377
0.139165
0.139948
0.140709
0.141435
0.142118
0.142753
0.14334
0.143883
0.144392
0.14488
0.145359
0.145849
0.146371
0.146871
0.147814
0.174147
0.17352
0.172891
0.172259
0.171623
0.170986
0.170346
0.169704
0.169061
0.168417
0.167773
0.16713
0.166487
0.165847
0.16521
0.164575
0.163944
0.163317
0.162694
0.162077
0.161465
0.16086
0.16026
0.159668
0.159084
0.158508
0.157941
0.157383
0.156836
0.1563
0.155775
0.155261
0.15476
0.154271
0.153795
0.153332
0.152882
0.152445
0.15202
0.151606
0.151202
0.150807
0.150418
0.150033
0.149649
0.149263
0.148871
0.148471
0.148057
0.147628
0.147178
0.146705
0.146207
0.14568
0.145123
0.144535
0.143917
0.143269
0.142595
0.141897
0.141181
0.140451
0.139715
0.138979
0.138252
0.137543
0.136859
0.13621
0.135605
0.135054
0.134565
0.134148
0.133813
0.133569
0.133424
0.133385
0.133457
0.133641
0.133934
0.13433
0.13482
0.135388
0.13602
0.136696
0.137398
0.138108
0.138809
0.139485
0.140124
0.140718
0.141262
0.141756
0.142201
0.142606
0.142982
0.14334
0.143698
0.144073
0.144432
0.145121
0.174292
0.173677
0.17306
0.17244
0.171817
0.171192
0.170564
0.169934
0.169303
0.168671
0.168038
0.167406
0.166774
0.166142
0.165513
0.164885
0.16426
0.163638
0.16302
0.162405
0.161795
0.16119
0.16059
0.159996
0.159408
0.158828
0.158255
0.15769
0.157135
0.156589
0.156054
0.155528
0.155014
0.154512
0.154021
0.153541
0.153074
0.152618
0.152173
0.151739
0.151314
0.150896
0.150483
0.150073
0.149664
0.149252
0.148834
0.148407
0.147967
0.147512
0.147037
0.14654
0.146018
0.145469
0.144891
0.144283
0.143647
0.142982
0.142291
0.141577
0.140845
0.140099
0.139346
0.138594
0.13785
0.137123
0.136424
0.13576
0.135143
0.134582
0.134087
0.133668
0.133332
0.133088
0.132943
0.132899
0.13296
0.133125
0.133389
0.133747
0.134187
0.134697
0.135262
0.135866
0.136491
0.137121
0.137738
0.138331
0.138885
0.139394
0.139852
0.140258
0.140612
0.140922
0.141195
0.141443
0.141681
0.141922
0.142154
0.142606
0.174363
0.173756
0.173146
0.172535
0.17192
0.171304
0.170686
0.170065
0.169444
0.168821
0.168197
0.167574
0.16695
0.166328
0.165706
0.165086
0.164468
0.163852
0.163239
0.16263
0.162024
0.161422
0.160825
0.160232
0.159646
0.159065
0.158491
0.157924
0.157366
0.156815
0.156274
0.155742
0.15522
0.154708
0.154206
0.153715
0.153235
0.152764
0.152304
0.151852
0.151409
0.150971
0.150538
0.150108
0.149677
0.149243
0.148803
0.148355
0.147894
0.147418
0.146924
0.146409
0.145871
0.145307
0.144716
0.144098
0.143452
0.14278
0.142083
0.141364
0.140628
0.139879
0.139124
0.138369
0.137622
0.136891
0.136187
0.135519
0.134895
0.134328
0.133825
0.133396
0.133049
0.13279
0.132626
0.132559
0.13259
0.132718
0.132938
0.133243
0.133624
0.134068
0.134562
0.13509
0.135637
0.136187
0.136724
0.137235
0.137709
0.138137
0.138514
0.138837
0.139107
0.139329
0.13951
0.139658
0.139788
0.139909
0.140026
0.140262
0.174393
0.173789
0.173184
0.172577
0.171967
0.171356
0.170743
0.170129
0.169513
0.168897
0.168279
0.167662
0.167044
0.166427
0.165812
0.165197
0.164584
0.163973
0.163364
0.162759
0.162156
0.161557
0.160963
0.160372
0.159786
0.159206
0.158632
0.158064
0.157504
0.15695
0.156405
0.155868
0.15534
0.154821
0.154311
0.153811
0.15332
0.152838
0.152364
0.151899
0.15144
0.150987
0.150537
0.15009
0.149641
0.14919
0.148733
0.148268
0.147791
0.1473
0.146792
0.146264
0.145715
0.145142
0.144544
0.14392
0.143271
0.142597
0.1419
0.141183
0.14045
0.139705
0.138954
0.138203
0.137461
0.136734
0.136032
0.135364
0.134739
0.134167
0.133657
0.133217
0.132855
0.132577
0.132388
0.13229
0.132284
0.132368
0.132538
0.132786
0.133104
0.13348
0.133901
0.134354
0.134824
0.135296
0.135755
0.136188
0.136586
0.136938
0.137239
0.137486
0.137679
0.13782
0.137917
0.137976
0.13801
0.138024
0.13804
0.138079
0.174401
0.173799
0.173196
0.17259
0.171983
0.171375
0.170765
0.170153
0.16954
0.168927
0.168313
0.167698
0.167084
0.16647
0.165857
0.165245
0.164635
0.164026
0.16342
0.162816
0.162215
0.161617
0.161023
0.160433
0.159848
0.159267
0.158692
0.158122
0.157559
0.157003
0.156454
0.155913
0.155379
0.154854
0.154337
0.153828
0.153328
0.152836
0.152352
0.151875
0.151404
0.150937
0.150474
0.150013
0.14955
0.149085
0.148615
0.148136
0.147647
0.147145
0.146627
0.14609
0.145534
0.144956
0.144354
0.143729
0.14308
0.142408
0.141716
0.141004
0.140277
0.13954
0.138797
0.138055
0.13732
0.1366
0.135904
0.135239
0.134616
0.134042
0.133526
0.133076
0.132699
0.1324
0.132185
0.132054
0.132009
0.132047
0.132165
0.132355
0.132609
0.132918
0.133268
0.133648
0.134043
0.13444
0.134824
0.135184
0.135509
0.13579
0.13602
0.136197
0.136319
0.136388
0.13641
0.136389
0.136338
0.136257
0.136183
0.136047
0.1744
0.173799
0.173196
0.172591
0.171984
0.171376
0.170767
0.170156
0.169545
0.168932
0.168319
0.167706
0.167092
0.166479
0.165867
0.165255
0.164645
0.164037
0.163431
0.162826
0.162225
0.161627
0.161032
0.16044
0.159853
0.159271
0.158693
0.158121
0.157555
0.156995
0.156441
0.155895
0.155356
0.154824
0.154301
0.153785
0.153276
0.152775
0.152281
0.151794
0.151312
0.150835
0.15036
0.149887
0.149413
0.148937
0.148456
0.147967
0.147468
0.146958
0.146432
0.14589
0.14533
0.144749
0.144146
0.143522
0.142876
0.142208
0.141521
0.140817
0.140099
0.139371
0.138638
0.137906
0.13718
0.136469
0.13578
0.135121
0.1345
0.133925
0.133404
0.132945
0.132553
0.132235
0.131993
0.13183
0.131746
0.131739
0.131805
0.131938
0.132131
0.132373
0.132655
0.132964
0.133287
0.133612
0.133925
0.134216
0.134473
0.134687
0.134852
0.134965
0.135023
0.135026
0.134981
0.134889
0.134763
0.134598
0.134447
0.134157
0.174396
0.173794
0.173191
0.172586
0.171979
0.171371
0.170761
0.17015
0.169538
0.168925
0.168312
0.167698
0.167084
0.166471
0.165857
0.165245
0.164634
0.164024
0.163416
0.16281
0.162207
0.161606
0.161009
0.160415
0.159824
0.159239
0.158657
0.158081
0.157511
0.156946
0.156388
0.155836
0.155291
0.154753
0.154222
0.153699
0.153183
0.152673
0.152171
0.151674
0.151183
0.150695
0.150211
0.149728
0.149244
0.148758
0.148268
0.147771
0.147265
0.146748
0.146217
0.145671
0.145108
0.144526
0.143924
0.143302
0.14266
0.141998
0.141318
0.140622
0.139913
0.139195
0.138473
0.137751
0.137036
0.136334
0.135653
0.135
0.134381
0.133806
0.133281
0.132813
0.132408
0.13207
0.131803
0.131608
0.131487
0.131435
0.131452
0.131529
0.131662
0.131841
0.132056
0.132296
0.132551
0.132807
0.133053
0.133277
0.13347
0.133623
0.133728
0.133782
0.133782
0.133728
0.133623
0.133469
0.133278
0.13304
0.132822
0.132398
0.174391
0.173789
0.173185
0.172579
0.171972
0.171363
0.170752
0.17014
0.169528
0.168914
0.168299
0.167684
0.167069
0.166454
0.165839
0.165225
0.164611
0.163999
0.163389
0.16278
0.162174
0.16157
0.160969
0.160371
0.159777
0.159187
0.158602
0.158021
0.157445
0.156875
0.156311
0.155753
0.155202
0.154657
0.154119
0.153589
0.153064
0.152547
0.152036
0.151531
0.15103
0.150534
0.150041
0.149549
0.149056
0.148562
0.148064
0.14756
0.147048
0.146525
0.145991
0.145442
0.144877
0.144295
0.143695
0.143075
0.142438
0.141782
0.141109
0.140422
0.139722
0.139015
0.138303
0.137591
0.136887
0.136194
0.13552
0.134873
0.134258
0.133682
0.133153
0.132677
0.132258
0.131902
0.13161
0.131385
0.131226
0.131132
0.1311
0.131124
0.131198
0.131315
0.131465
0.13164
0.131828
0.132018
0.1322
0.132362
0.132496
0.132592
0.132643
0.132644
0.132593
0.132488
0.132332
0.132124
0.131877
0.131577
0.1313
0.13076
0.174385
0.173783
0.173178
0.172572
0.171963
0.171354
0.170742
0.170129
0.169515
0.1689
0.168285
0.167668
0.167051
0.166434
0.165817
0.165201
0.164585
0.16397
0.163357
0.162745
0.162135
0.161528
0.160923
0.160321
0.159722
0.159128
0.158537
0.157951
0.15737
0.156794
0.156224
0.15566
0.155102
0.15455
0.154005
0.153467
0.152935
0.152409
0.15189
0.151376
0.150867
0.150363
0.149861
0.14936
0.14886
0.148358
0.147853
0.147343
0.146825
0.146298
0.14576
0.145209
0.144643
0.144061
0.143463
0.142847
0.142214
0.141564
0.140898
0.140219
0.139529
0.138831
0.138129
0.137428
0.136733
0.136049
0.135383
0.13474
0.134128
0.133553
0.133019
0.132535
0.132103
0.131727
0.131411
0.131156
0.130961
0.130825
0.130745
0.130717
0.130734
0.130791
0.130879
0.130989
0.131113
0.131241
0.131361
0.131466
0.131544
0.131588
0.131591
0.131546
0.131451
0.131302
0.131102
0.130849
0.130554
0.1302
0.129875
0.129236
0.17438
0.173777
0.173171
0.172564
0.171955
0.171344
0.170732
0.170118
0.169503
0.168887
0.16827
0.167651
0.167033
0.166414
0.165795
0.165176
0.164558
0.16394
0.163323
0.162708
0.162095
0.161483
0.160874
0.160268
0.159665
0.159065
0.15847
0.157878
0.157292
0.15671
0.156133
0.155563
0.154998
0.154439
0.153887
0.153341
0.152802
0.152268
0.151741
0.151219
0.150702
0.150189
0.149679
0.149171
0.148663
0.148155
0.147643
0.147127
0.146604
0.146073
0.145531
0.144978
0.144411
0.14383
0.143234
0.142621
0.141992
0.141348
0.140689
0.140018
0.139336
0.138647
0.137955
0.137263
0.136577
0.135901
0.135241
0.134603
0.133993
0.133417
0.132879
0.132385
0.131939
0.131545
0.131205
0.130919
0.130689
0.130511
0.130384
0.130304
0.130265
0.130262
0.130289
0.130337
0.1304
0.130467
0.13053
0.13058