/*--------------------------------*- C++ -*----------------------------------*\
  =========                 |
  \\      /  F ield         | OpenFOAM: The Open Source CFD Toolbox
   \\    /   O peration     | Website:  https://openfoam.org
    \\  /    A nd           | Version:  10
     \\/     M anipulation  |
\*---------------------------------------------------------------------------*/
FoamFile
{
    format      ascii;
    class       volScalarField;
    location    "0.145";
    object      nut;
}
// * * * * * * * * * * * * * * * * * * * * * * * * * * * * * * * * * * * * * //

dimensions      [0 2 -1 0 0 0 0];

internalField   nonuniform List<scalar> 
6820
(
0.000149484
0.000144853
0.000140581
0.000136577
0.000132833
0.000129377
0.000126234
0.000123417
0.000120923
0.000118737
0.000116839
0.000115205
0.000113811
0.000112631
0.000111645
0.00011083
0.000110167
0.000109639
0.000109231
0.000108927
0.000108717
0.000108589
0.000108532
0.000108539
0.0001086
0.00010871
0.000108859
0.00010906
0.000109221
0.000109744
0.000108735
0.000115026
8.7202e-05
0.000729198
0.000532391
0.000448012
0.000399707
0.000368381
0.000346732
0.000331089
0.00031936
0.000310274
0.000303026
0.000297095
0.000292135
0.000287911
0.000284257
0.000281057
0.000278224
0.000275693
0.000273414
0.000271349
0.000269466
0.00026774
0.000266153
0.000264686
0.000263327
0.000262064
0.000260886
0.000259788
0.00025876
0.000257805
0.000256922
0.000256126
0.000255291
0.0002567
0.000976777
0.000872181
0.000781623
0.000711264
0.000657319
0.000615279
0.000581708
0.000554248
0.000531312
0.000511817
0.000495002
0.000480321
0.000467369
0.000455842
0.000445503
0.00043617
0.000427698
0.000419967
0.000412883
0.000406367
0.000400353
0.000394784
0.000389615
0.000384802
0.000380311
0.000376109
0.000372167
0.000368459
0.000364947
0.000361621
0.000358378
0.000355202
0.000351685
0.00101348
0.00098823
0.000949374
0.000906193
0.000864425
0.000826383
0.000792552
0.000762665
0.000736229
0.000712734
0.000691725
0.000672819
0.0006557
0.000640108
0.000625834
0.000612701
0.000600568
0.000589314
0.00057884
0.000569062
0.000559908
0.000551316
0.000543234
0.000535616
0.000528421
0.000521613
0.000515158
0.000509027
0.000503185
0.000497614
0.000492252
0.000487122
0.000482006
0.00101671
0.00101241
0.00100191
0.000985661
0.000965604
0.000943712
0.000921423
0.000899612
0.000878749
0.000859042
0.00084055
0.000823252
0.000807083
0.000791965
0.000777811
0.000764538
0.000752069
0.000740332
0.000729261
0.0007188
0.000708895
0.000699502
0.000690579
0.000682087
0.000673995
0.000666271
0.000658887
0.000651817
0.000645033
0.000638514
0.000632224
0.000626152
0.00062024
0.00101676
0.00101592
0.0010136
0.00100903
0.00100204
0.00099292
0.000982191
0.000970398
0.000958007
0.000945376
0.000932765
0.000920348
0.000908238
0.000896503
0.000885182
0.00087429
0.00086383
0.000853794
0.000844171
0.000834943
0.000826093
0.000817602
0.000809451
0.000801621
0.000794094
0.000786853
0.000779879
0.000773156
0.000766667
0.000760395
0.000754322
0.000748436
0.00074272
0.00101671
0.00101623
0.00101553
0.00101428
0.00101219
0.0010091
0.00100497
0.000999892
0.00099402
0.000987522
0.000980561
0.000973284
0.000965815
0.000958253
0.000950677
0.000943145
0.000935703
0.000928384
0.00092121
0.000914197
0.000907356
0.000900693
0.000894209
0.000887905
0.000881779
0.000875827
0.000870044
0.000864424
0.000858962
0.000853651
0.000848482
0.000843452
0.000838555
0.0010167
0.00101622
0.00101574
0.00101518
0.00101442
0.00101335
0.00101188
0.00100995
0.00100756
0.00100471
0.00100145
0.000997828
0.000993912
0.000989754
0.00098541
0.000980927
0.000976348
0.000971709
0.000967042
0.00096237
0.000957716
0.000953096
0.000948524
0.000944009
0.00093956
0.000935183
0.000930883
0.000926661
0.000922519
0.00091846
0.000914482
0.000910587
0.000906777
0.0010167
0.00101621
0.00101575
0.00101528
0.0010148
0.00101425
0.00101359
0.00101279
0.00101179
0.00101059
0.00100917
0.00100754
0.00100569
0.00100365
0.00100144
0.000999067
0.000996567
0.000993956
0.000991254
0.00098848
0.000985652
0.000982783
0.000979889
0.00097698
0.000974066
0.000971156
0.000968258
0.000965378
0.000962521
0.000959692
0.000956896
0.000954135
0.000951415
0.0010167
0.00101621
0.00101574
0.00101529
0.00101484
0.00101439
0.00101393
0.00101344
0.0010129
0.00101229
0.0010116
0.00101082
0.00100994
0.00100895
0.00100787
0.00100668
0.0010054
0.00100403
0.00100259
0.00100107
0.00099949
0.000997855
0.000996174
0.000994455
0.000992704
0.000990929
0.000989136
0.000987329
0.000985516
0.0009837
0.000981886
0.000980079
0.000978283
0.0010167
0.00101621
0.00101574
0.00101528
0.00101484
0.00101441
0.00101398
0.00101356
0.00101313
0.0010127
0.00101224
0.00101176
0.00101125
0.0010107
0.00101011
0.00100947
0.00100878
0.00100805
0.00100728
0.00100646
0.00100559
0.00100469
0.00100375
0.00100278
0.00100178
0.00100075
0.0009997
0.000998631
0.000997546
0.000996449
0.000995342
0.00099423
0.000993115
0.0010167
0.00101621
0.00101574
0.00101528
0.00101484
0.0010144
0.00101398
0.00101357
0.00101317
0.00101277
0.00101238
0.00101199
0.00101159
0.00101119
0.00101078
0.00101035
0.00100991
0.00100946
0.00100898
0.00100849
0.00100798
0.00100745
0.0010069
0.00100633
0.00100574
0.00100514
0.00100452
0.00100389
0.00100325
0.0010026
0.00100194
0.00100127
0.00100059
0.0010167
0.00101621
0.00101574
0.00101528
0.00101483
0.0010144
0.00101398
0.00101357
0.00101317
0.00101278
0.0010124
0.00101203
0.00101167
0.00101131
0.00101095
0.0010106
0.00101024
0.00100989
0.00100953
0.00100917
0.0010088
0.00100843
0.00100806
0.00100768
0.00100729
0.0010069
0.0010065
0.0010061
0.00100569
0.00100528
0.00100486
0.00100444
0.00100402
0.0010167
0.00101621
0.00101574
0.00101528
0.00101483
0.0010144
0.00101398
0.00101357
0.00101317
0.00101278
0.0010124
0.00101204
0.00101168
0.00101133
0.00101098
0.00101065
0.00101032
0.00101
0.00100968
0.00100936
0.00100905
0.00100874
0.00100844
0.00100813
0.00100783
0.00100753
0.00100723
0.00100693
0.00100663
0.00100633
0.00100603
0.00100574
0.00100544
0.0010167
0.00101621
0.00101574
0.00101528
0.00101483
0.0010144
0.00101398
0.00101357
0.00101317
0.00101278
0.0010124
0.00101203
0.00101168
0.00101133
0.00101099
0.00101066
0.00101033
0.00101002
0.00100971
0.00100941
0.00100912
0.00100883
0.00100854
0.00100827
0.00100799
0.00100773
0.00100746
0.0010072
0.00100695
0.0010067
0.00100645
0.00100621
0.00100597
0.0010167
0.00101621
0.00101574
0.00101528
0.00101483
0.0010144
0.00101397
0.00101356
0.00101316
0.00101278
0.0010124
0.00101203
0.00101167
0.00101132
0.00101099
0.00101065
0.00101033
0.00101002
0.00100971
0.00100942
0.00100913
0.00100884
0.00100857
0.0010083
0.00100804
0.00100778
0.00100753
0.00100728
0.00100704
0.00100681
0.00100658
0.00100636
0.00100615
0.0010167
0.00101621
0.00101574
0.00101528
0.00101483
0.0010144
0.00101397
0.00101356
0.00101316
0.00101277
0.0010124
0.00101203
0.00101167
0.00101132
0.00101098
0.00101065
0.00101033
0.00101002
0.00100971
0.00100941
0.00100912
0.00100884
0.00100857
0.0010083
0.00100804
0.00100779
0.00100754
0.0010073
0.00100707
0.00100684
0.00100662
0.0010064
0.00100619
0.0010167
0.00101621
0.00101574
0.00101528
0.00101483
0.0010144
0.00101397
0.00101356
0.00101316
0.00101277
0.00101239
0.00101203
0.00101167
0.00101132
0.00101098
0.00101065
0.00101033
0.00101001
0.00100971
0.00100941
0.00100912
0.00100884
0.00100856
0.0010083
0.00100804
0.00100778
0.00100754
0.0010073
0.00100707
0.00100684
0.00100662
0.0010064
0.0010062
0.0010167
0.00101621
0.00101574
0.00101528
0.00101483
0.00101439
0.00101397
0.00101356
0.00101316
0.00101277
0.00101239
0.00101202
0.00101167
0.00101132
0.00101098
0.00101065
0.00101032
0.00101001
0.0010097
0.00100941
0.00100912
0.00100884
0.00100856
0.00100829
0.00100803
0.00100778
0.00100753
0.00100729
0.00100706
0.00100683
0.00100661
0.0010064
0.00100619
0.0010167
0.00101621
0.00101574
0.00101528
0.00101483
0.00101439
0.00101397
0.00101356
0.00101316
0.00101277
0.00101239
0.00101202
0.00101166
0.00101131
0.00101097
0.00101064
0.00101032
0.00101001
0.0010097
0.0010094
0.00100911
0.00100883
0.00100856
0.00100829
0.00100803
0.00100777
0.00100753
0.00100729
0.00100705
0.00100683
0.0010066
0.00100639
0.00100618
0.0010167
0.00101621
0.00101574
0.00101528
0.00101483
0.00101439
0.00101397
0.00101356
0.00101316
0.00101277
0.00101239
0.00101202
0.00101166
0.00101131
0.00101097
0.00101064
0.00101032
0.00101
0.0010097
0.0010094
0.00100911
0.00100883
0.00100855
0.00100828
0.00100802
0.00100777
0.00100752
0.00100728
0.00100705
0.00100682
0.0010066
0.00100638
0.00100617
0.0010167
0.00101621
0.00101574
0.00101528
0.00101483
0.00101439
0.00101397
0.00101356
0.00101316
0.00101277
0.00101239
0.00101202
0.00101166
0.00101131
0.00101097
0.00101064
0.00101032
0.00101
0.0010097
0.0010094
0.00100911
0.00100882
0.00100855
0.00100828
0.00100802
0.00100776
0.00100752
0.00100728
0.00100704
0.00100681
0.00100659
0.00100637
0.00100616
0.0010167
0.00101621
0.00101574
0.00101528
0.00101483
0.00101439
0.00101397
0.00101356
0.00101316
0.00101277
0.00101239
0.00101202
0.00101166
0.00101131
0.00101097
0.00101064
0.00101031
0.00101
0.00100969
0.00100939
0.0010091
0.00100882
0.00100855
0.00100828
0.00100801
0.00100776
0.00100751
0.00100727
0.00100703
0.00100681
0.00100658
0.00100636
0.00100615
0.0010167
0.00101621
0.00101574
0.00101528
0.00101483
0.00101439
0.00101397
0.00101356
0.00101316
0.00101277
0.00101239
0.00101202
0.00101166
0.00101131
0.00101097
0.00101064
0.00101031
0.00101
0.00100969
0.00100939
0.0010091
0.00100882
0.00100854
0.00100827
0.00100801
0.00100776
0.00100751
0.00100726
0.00100703
0.0010068
0.00100657
0.00100636
0.00100614
0.0010167
0.00101621
0.00101574
0.00101528
0.00101483
0.00101439
0.00101397
0.00101356
0.00101316
0.00101277
0.00101239
0.00101202
0.00101166
0.00101131
0.00101097
0.00101063
0.00101031
0.00101
0.00100969
0.00100939
0.0010091
0.00100882
0.00100854
0.00100827
0.00100801
0.00100775
0.0010075
0.00100726
0.00100702
0.00100679
0.00100657
0.00100635
0.00100614
0.0010167
0.00101621
0.00101574
0.00101528
0.00101483
0.00101439
0.00101397
0.00101356
0.00101316
0.00101277
0.00101239
0.00101202
0.00101166
0.00101131
0.00101097
0.00101063
0.00101031
0.00100999
0.00100969
0.00100939
0.0010091
0.00100881
0.00100854
0.00100827
0.001008
0.00100775
0.0010075
0.00100725
0.00100702
0.00100679
0.00100656
0.00100634
0.00100613
0.0010167
0.00101621
0.00101574
0.00101528
0.00101483
0.00101439
0.00101397
0.00101356
0.00101316
0.00101277
0.00101239
0.00101202
0.00101166
0.00101131
0.00101096
0.00101063
0.00101031
0.00100999
0.00100969
0.00100939
0.00100909
0.00100881
0.00100853
0.00100826
0.001008
0.00100774
0.00100749
0.00100725
0.00100701
0.00100678
0.00100656
0.00100634
0.00100612
0.0010167
0.00101621
0.00101574
0.00101528
0.00101483
0.00101439
0.00101397
0.00101356
0.00101316
0.00101277
0.00101239
0.00101202
0.00101166
0.00101131
0.00101096
0.00101063
0.00101031
0.00100999
0.00100968
0.00100939
0.00100909
0.00100881
0.00100853
0.00100826
0.001008
0.00100774
0.00100749
0.00100725
0.00100701
0.00100678
0.00100655
0.00100633
0.00100612
0.0010167
0.00101621
0.00101574
0.00101528
0.00101483
0.00101439
0.00101397
0.00101356
0.00101316
0.00101277
0.00101239
0.00101202
0.00101166
0.00101131
0.00101096
0.00101063
0.00101031
0.00100999
0.00100968
0.00100938
0.00100909
0.00100881
0.00100853
0.00100826
0.001008
0.00100774
0.00100749
0.00100724
0.00100701
0.00100677
0.00100655
0.00100633
0.00100611
0.0010167
0.00101621
0.00101574
0.00101528
0.00101483
0.00101439
0.00101397
0.00101356
0.00101316
0.00101277
0.00101239
0.00101202
0.00101166
0.00101131
0.00101097
0.00101063
0.00101031
0.00100999
0.00100968
0.00100938
0.00100909
0.00100881
0.00100853
0.00100826
0.00100799
0.00100774
0.00100749
0.00100724
0.001007
0.00100677
0.00100654
0.00100632
0.00100611
0.0010167
0.00101621
0.00101574
0.00101528
0.00101483
0.00101439
0.00101397
0.00101356
0.00101316
0.00101277
0.00101239
0.00101202
0.00101166
0.00101131
0.00101097
0.00101063
0.00101031
0.00100999
0.00100969
0.00100939
0.00100909
0.00100881
0.00100853
0.00100826
0.00100799
0.00100774
0.00100748
0.00100724
0.001007
0.00100676
0.00100654
0.00100631
0.0010061
0.0010167
0.00101621
0.00101574
0.00101528
0.00101483
0.0010144
0.00101397
0.00101356
0.00101316
0.00101277
0.00101239
0.00101202
0.00101166
0.00101131
0.00101097
0.00101064
0.00101031
0.00101
0.00100969
0.00100939
0.00100909
0.00100881
0.00100853
0.00100825
0.00100798
0.00100772
0.00100747
0.00100721
0.00100697
0.00100673
0.00100649
0.00100626
0.00100604
0.0010167
0.00101621
0.00101574
0.00101528
0.00101483
0.0010144
0.00101398
0.00101357
0.00101317
0.00101278
0.0010124
0.00101203
0.00101167
0.00101132
0.00101097
0.00101064
0.00101031
0.00100998
0.00100967
0.00100936
0.00100905
0.00100875
0.00100846
0.00100817
0.00100788
0.0010076
0.00100732
0.00100705
0.00100677
0.00100651
0.00100624
0.00100598
0.00100572
0.0010167
0.00101621
0.00101574
0.00101529
0.00101484
0.00101441
0.00101399
0.00101358
0.00101318
0.00101279
0.0010124
0.00101202
0.00101164
0.00101127
0.00101089
0.00101053
0.00101016
0.00100979
0.00100942
0.00100906
0.00100869
0.00100832
0.00100794
0.00100757
0.00100719
0.00100681
0.00100643
0.00100605
0.00100566
0.00100527
0.00100488
0.00100448
0.00100409
0.0010167
0.00101622
0.00101575
0.0010153
0.00101485
0.00101441
0.00101397
0.00101352
0.00101308
0.00101262
0.00101215
0.00101166
0.00101115
0.00101063
0.00101008
0.00100951
0.00100892
0.0010083
0.00100766
0.00100699
0.0010063
0.0010056
0.00100486
0.00100411
0.00100335
0.00100256
0.00100176
0.00100094
0.00100011
0.000999273
0.000998422
0.000997562
0.000996695
0.00101671
0.00101622
0.00101574
0.00101524
0.00101469
0.00101407
0.00101337
0.00101257
0.00101167
0.00101066
0.00100954
0.00100832
0.00100698
0.00100554
0.001004
0.00100237
0.00100066
0.000998868
0.000997008
0.000995087
0.000993111
0.000991088
0.000989026
0.000986931
0.000984809
0.000982666
0.000980508
0.000978339
0.000976165
0.00097399
0.000971817
0.00096965
0.000967493
0.00101671
0.001016
0.00101488
0.00101325
0.00101112
0.00100848
0.00100533
0.0010017
0.000997639
0.000993191
0.000988413
0.000983355
0.000978071
0.000972607
0.000967008
0.000961312
0.000955554
0.000949764
0.000943968
0.00093819
0.000932446
0.000926755
0.000921129
0.000915579
0.000910116
0.000904745
0.000899473
0.000894304
0.000889242
0.00088429
0.000879449
0.00087472
0.000870103
0.0010153
0.00100706
0.000995513
0.000981414
0.000965389
0.000948051
0.000929956
0.000911553
0.000893176
0.000875064
0.000857382
0.000840239
0.000823701
0.000807805
0.000792566
0.000777982
0.000764044
0.000750732
0.000738024
0.000725896
0.000714321
0.000703273
0.000692724
0.000682648
0.000673022
0.000663821
0.000655021
0.000646602
0.000638542
0.000630823
0.000623425
0.000616332
0.000609526
0.000935928
0.000815554
0.00072819
0.000659282
0.000602423
0.000555196
0.000515702
0.000482356
0.000453907
0.000429391
0.000408067
0.000389363
0.000372834
0.000358129
0.000344971
0.000333135
0.00032244
0.000312734
0.000303894
0.000295816
0.000288411
0.000281604
0.000275331
0.000269538
0.000264174
0.000259199
0.000254577
0.000250273
0.000246261
0.000242514
0.00023901
0.000235729
0.000232651
0.000125477
0.000128847
0.000132096
0.000135204
0.000138173
0.000141007
0.000143711
0.000146289
0.000148745
0.000151084
0.000153311
0.000155428
0.000157441
0.000159354
0.000161171
0.000162896
0.000164534
0.000166086
0.000167559
0.000168955
0.000170279
0.000171533
0.00017272
0.000173845
0.00017491
0.000175919
0.000176873
0.000177776
0.000178631
0.000179439
0.000180204
0.000180927
0.000181611
0.000108325
0.000153129
0.000197225
0.000239101
0.000278221
0.000313775
0.000345461
0.000373751
0.000399593
0.000424015
0.000447823
0.000471483
0.000495166
0.000518861
0.000542503
0.000566059
0.000589563
0.00061312
0.000636873
0.000660978
0.000685565
0.000710728
0.000736505
0.000762886
0.000789809
0.000817172
0.000844832
0.000872614
0.000900314
0.0009277
0.000954517
0.000980492
0.00100534
0.00102877
0.0010505
0.00107027
0.00108785
0.00110304
0.00111571
0.00112579
0.00113328
0.00113826
0.00114088
0.00114138
0.00114008
0.00113735
0.00113366
0.00112951
0.00112544
0.00112201
0.00111976
0.00111919
0.00112074
0.00112474
0.0011314
0.00114082
0.00115293
0.00116749
0.00118413
0.0012023
0.00122128
0.0012402
0.00125806
0.00127377
0.00128618
0.00129416
0.00129667
0.00129285
0.00128211
0.00126429
0.0012397
0.00120934
0.00117498
0.00113923
0.0011055
0.00107766
0.0010594
0.00105313
0.00105903
0.00107467
0.00109594
0.00111871
0.00114022
0.00115943
0.00117655
0.00119232
0.00120749
0.00122265
0.00123818
0.00125431
0.00127118
0.00128888
0.00130744
0.00132686
0.00134706
0.00136789
0.00138908
0.00141053
0.00143019
0.00145964
0.000245554
0.000213625
0.000184941
0.000171068
0.000170892
0.000181032
0.000198628
0.000221405
0.00024749
0.000275299
0.000303558
0.000331364
0.000358198
0.000383887
0.000408504
0.000432256
0.000455382
0.000478088
0.000500526
0.000522792
0.00054495
0.000567045
0.000589113
0.000611178
0.000633246
0.000655299
0.000677286
0.000699126
0.000720706
0.000741882
0.00076248
0.000782306
0.000801147
0.00081878
0.000834984
0.000849548
0.00086229
0.000873063
0.000881775
0.000888398
0.000892973
0.00089562
0.000896534
0.000895989
0.000894326
0.00089195
0.000889312
0.000886896
0.00088519
0.000884672
0.000885774
0.000888864
0.000894223
0.000902031
0.00091236
0.000925174
0.000940331
0.000957586
0.000976591
0.000996886
0.0010179
0.00103896
0.00105925
0.00107791
0.00109402
0.00110667
0.00111504
0.00111849
0.00111667
0.00110966
0.00109802
0.00108294
0.00106629
0.0010505
0.00103835
0.00103242
0.00103439
0.00104439
0.00106079
0.0010808
0.00110155
0.00112105
0.00113855
0.00115422
0.0011687
0.00118266
0.0011966
0.00121087
0.00122567
0.00124111
0.00125728
0.00127423
0.00129203
0.00131068
0.00133016
0.00135038
0.00137111
0.00139233
0.00141189
0.00144187
0.000349126
0.000344361
0.000328977
0.000300692
0.000266612
0.000235526
0.000212363
0.000197986
0.00019133
0.00019128
0.00019689
0.000207277
0.000221571
0.000238908
0.000258442
0.000279385
0.000301046
0.000322871
0.00034447
0.000365611
0.000386203
0.000406248
0.0004258
0.000444923
0.000463663
0.000482037
0.000500031
0.000517603
0.000534695
0.000551228
0.00056711
0.000582236
0.000596488
0.000609744
0.00062188
0.000632781
0.000642356
0.000650548
0.00065735
0.000662812
0.000667049
0.000670247
0.000672654
0.000674576
0.000676365
0.000678398
0.00068106
0.000684721
0.00068971
0.000696296
0.000704666
0.00071492
0.000727072
0.000741055
0.00075674
0.000773954
0.000792499
0.000812156
0.000832688
0.000853828
0.000875258
0.000896596
0.000917384
0.000937089
0.00095513
0.000970919
0.00098393
0.000993789
0.00100037
0.00100388
0.00100495
0.00100467
0.0010045
0.00100611
0.00101103
0.00102021
0.0010337
0.00105049
0.00106893
0.0010873
0.00110441
0.00111987
0.00113388
0.00114696
0.00115969
0.00117249
0.00118563
0.00119927
0.00121347
0.00122829
0.00124377
0.00125996
0.00127693
0.00129473
0.00131336
0.0013328
0.00135288
0.00137364
0.00139287
0.00142305
0.000476413
0.000470862
0.000464665
0.00045507
0.000439458
0.000416893
0.000388823
0.000358151
0.000328049
0.000300994
0.000278048
0.000259648
0.000245877
0.0002366
0.000231552
0.000230381
0.000232679
0.000237993
0.000245843
0.000255737
0.000267201
0.000279804
0.000293169
0.000306987
0.000321011
0.000335052
0.000348965
0.000362647
0.000376021
0.00038903
0.000401629
0.00041378
0.000425449
0.000436609
0.000447238
0.000457332
0.000466911
0.000476023
0.000484759
0.000493252
0.00050168
0.000510257
0.000519225
0.000528833
0.000539322
0.000550898
0.000563713
0.000577852
0.000593317
0.000610032
0.000627846
0.000646556
0.000665927
0.000685719
0.000705707
0.000725707
0.00074558
0.000765238
0.000784634
0.000803746
0.000822557
0.000841025
0.000859064
0.000876534
0.000893237
0.000908944
0.000923437
0.000936569
0.00094833
0.000958913
0.000968736
0.000978423
0.000988706
0.00100025
0.00101346
0.00102826
0.00104414
0.00106027
0.00107581
0.00109023
0.00110339
0.00111556
0.00112717
0.00113864
0.00115032
0.00116241
0.00117502
0.00118816
0.00120184
0.00121607
0.00123086
0.00124627
0.00126238
0.00127925
0.00129694
0.00131546
0.0013347
0.00135479
0.00137348
0.0014035
0.000613486
0.00060607
0.000598952
0.000591749
0.000583612
0.000573439
0.000560243
0.000543457
0.000523194
0.000500398
0.000476064
0.000451198
0.000426724
0.000403425
0.00038192
0.000362658
0.000345942
0.000331939
0.000320705
0.000312199
0.000306301
0.000302834
0.000301583
0.000302311
0.000304778
0.000308751
0.000314014
0.000320373
0.000327663
0.000335747
0.00034452
0.000353907
0.000363859
0.000374357
0.000385405
0.000397029
0.00040928
0.000422225
0.000435946
0.000450533
0.000466076
0.000482649
0.000500296
0.000519024
0.000538786
0.000559482
0.000580956
0.000603006
0.000625395
0.000647867
0.000670162
0.000692035
0.000713272
0.000733699
0.000753191
0.000771679
0.000789146
0.000805627
0.000821204
0.000835988
0.000850117
0.000863732
0.000876963
0.000889919
0.000902669
0.00091525
0.000927668
0.000939927
0.000952053
0.000964118
0.000976247
0.000988595
0.00100129
0.00101438
0.00102775
0.00104112
0.00105416
0.00106654
0.00107811
0.00108892
0.0010992
0.00110929
0.00111951
0.00113009
0.00114118
0.00115282
0.00116502
0.00117772
0.0011909
0.00120453
0.00121863
0.00123326
0.00124848
0.00126438
0.00128106
0.00129855
0.00131681
0.00133604
0.00135399
0.0013835
0.000736224
0.000728936
0.000721777
0.00071475
0.000707737
0.000700479
0.000692599
0.00068363
0.000673211
0.000661136
0.000647366
0.000632026
0.000615374
0.000597762
0.000579592
0.000561285
0.000543252
0.000525876
0.000509498
0.000494406
0.000480826
0.000468925
0.000458812
0.000450546
0.000444146
0.000439607
0.0004369
0.000435985
0.000436813
0.000439329
0.000443474
0.000449192
0.000456431
0.000465144
0.000475291
0.000486835
0.00049974
0.000513967
0.000529465
0.000546169
0.000563991
0.000582816
0.000602502
0.000622877
0.000643747
0.000664896
0.000686102
0.000707143
0.000727805
0.000747894
0.00076724
0.000785707
0.00080319
0.000819622
0.000834971
0.000849242
0.000862469
0.000874719
0.000886083
0.000896675
0.000906625
0.000916077
0.000925178
0.000934074
0.000942901
0.000951775
0.000960787
0.00097
0.000979447
0.000989137
0.000999051
0.00100914
0.00101933
0.0010295
0.00103951
0.00104921
0.00105851
0.00106743
0.00107606
0.00108459
0.00109325
0.00110227
0.00111179
0.00112191
0.00113264
0.00114394
0.00115576
0.00116802
0.00118068
0.00119371
0.00120712
0.00122096
0.00123529
0.00125021
0.00126584
0.00128225
0.00129942
0.00131763
0.00133467
0.00136332
0.000832994
0.000826717
0.000820472
0.000814281
0.000808143
0.000802031
0.00079587
0.000789533
0.000782872
0.000775726
0.000767954
0.000759456
0.000750187
0.000740165
0.000729461
0.000718203
0.000706558
0.000694722
0.000682914
0.000671357
0.00066027
0.000649858
0.000640305
0.000631772
0.000624395
0.000618288
0.000613547
0.000610247
0.000608445
0.000608177
0.00060946
0.000612294
0.000616659
0.000622522
0.000629836
0.000638542
0.000648565
0.000659816
0.000672194
0.000685576
0.000699826
0.00071479
0.000730304
0.000746191
0.000762274
0.000778374
0.000794321
0.000809959
0.000825148
0.000839769
0.000853726
0.000866947
0.000879384
0.000891014
0.000901836
0.000911868
0.00092115
0.000929736
0.000937695
0.000945108
0.000952063
0.000958658
0.000964991
0.000971162
0.000977267
0.000983393
0.000989613
0.00099598
0.00100252
0.00100924
0.0010161
0.00102306
0.00103005
0.00103702
0.00104392
0.00105074
0.00105753
0.0010644
0.00107147
0.0010789
0.00108684
0.00109538
0.00110458
0.00111442
0.00112486
0.00113583
0.00114726
0.00115906
0.00117119
0.0011836
0.00119632
0.00120937
0.00122282
0.00123678
0.00125136
0.00126664
0.00128267
0.00129976
0.00131576
0.00134323
0.000902432
0.000897497
0.00089254
0.000887576
0.000882617
0.000877669
0.000872729
0.000867784
0.000862804
0.000857744
0.000852552
0.000847174
0.000841561
0.000835679
0.000829511
0.000823067
0.000816378
0.000809502
0.00080252
0.000795531
0.000788647
0.000781991
0.000775686
0.000769853
0.000764608
0.000760061
0.000756312
0.00075345
0.000751552
0.000750679
0.000750876
0.00075217
0.000754568
0.000758064
0.000762631
0.000768229
0.000774802
0.00078228
0.000790577
0.000799598
0.000809233
0.000819365
0.000829867
0.000840614
0.000851478
0.000862336
0.000873073
0.000883585
0.000893782
0.000903586
0.000912938
0.000921793
0.000930122
0.000937913
0.000945166
0.000951897
0.000958134
0.000963915
0.000969288
0.000974309
0.000979039
0.000983542
0.000987883
0.000992126
0.00099633
0.00100055
0.00100482
0.00100919
0.00101366
0.00101825
0.00102296
0.00102776
0.00103266
0.00103766
0.0010428
0.00104812
0.00105372
0.00105968
0.00106613
0.00107315
0.00108081
0.00108914
0.00109813
0.00110773
0.00111788
0.00112849
0.00113949
0.00115079
0.00116236
0.00117415
0.00118618
0.00119846
0.00121107
0.00122409
0.00123763
0.00125181
0.00126666
0.00128256
0.00129744
0.00132348
0.000948289
0.000944711
0.000941083
0.000937413
0.00093371
0.000929983
0.000926239
0.000922485
0.000918726
0.00091496
0.000911183
0.000907385
0.000903556
0.000899683
0.000895757
0.000891774
0.000887735
0.000883654
0.000879554
0.000875467
0.000871439
0.000867523
0.000863778
0.000860269
0.000857064
0.000854231
0.000851837
0.000849945
0.000848613
0.000847891
0.00084782
0.000848431
0.00084974
0.000851753
0.000854464
0.000857853
0.00086189
0.000866534
0.000871732
0.000877421
0.000883533
0.00088999
0.000896712
0.000903614
0.000910614
0.00091763
0.000924588
0.000931418
0.000938059
0.000944457
0.000950571
0.000956367
0.000961824
0.000966928
0.000971679
0.000976082
0.000980155
0.000983923
0.000987417
0.000990677
0.000993747
0.000996673
0.000999505
0.00100229
0.00100508
0.0010079
0.0010108
0.0010138
0.00101693
0.0010202
0.00102363
0.00102724
0.00103105
0.0010351
0.00103944
0.00104414
0.00104928
0.00105493
0.00106116
0.00106803
0.00107555
0.00108371
0.00109249
0.00110181
0.00111162
0.00112183
0.00113236
0.00114314
0.00115414
0.00116531
0.00117665
0.00118819
0.00119998
0.0012121
0.00122465
0.00123775
0.00125145
0.00126615
0.00127986
0.00130427
0.0009762
0.000973791
0.000971323
0.000968799
0.000966225
0.000963607
0.000960953
0.00095827
0.000955566
0.000952849
0.000950125
0.000947402
0.000944684
0.000941976
0.000939281
0.000936603
0.000933948
0.000931323
0.000928736
0.000926203
0.00092374
0.00092137
0.000919119
0.000917018
0.000915099
0.000913398
0.000911952
0.000910797
0.000909967
0.000909495
0.000909409
0.00090973
0.000910475
0.000911652
0.000913263
0.000915301
0.000917754
0.000920598
0.000923806
0.000927343
0.000931165
0.000935229
0.000939482
0.000943873
0.000948349
0.000952857
0.000957348
0.000961774
0.000966092
0.000970266
0.000974261
0.000978054
0.000981624
0.000984958
0.00098805
0.000990903
0.000993523
0.000995927
0.000998135
0.00100018
0.00100208
0.00100389
0.00100564
0.00100737
0.00100913
0.00101096
0.00101289
0.00101495
0.00101719
0.00101963
0.0010223
0.00102523
0.00102846
0.00103204
0.00103602
0.00104045
0.0010454
0.00105091
0.00105702
0.00106376
0.00107112
0.00107907
0.00108757
0.00109657
0.00110598
0.00111574
0.00112578
0.00113603
0.00114644
0.001157
0.00116768
0.0011785
0.00118952
0.00120079
0.0012124
0.00122448
0.00123706
0.00125056
0.00126312
0.00128578
0.00099181
0.000990286
0.000988708
0.000987077
0.000985396
0.000983668
0.000981898
0.000980091
0.000978253
0.00097639
0.000974511
0.000972622
0.000970732
0.000968848
0.000966978
0.00096513
0.000963313
0.000961534
0.000959802
0.000958126
0.000956518
0.000954989
0.000953552
0.000952223
0.000951019
0.000949958
0.000949059
0.000948341
0.000947824
0.000947526
0.000947463
0.00094765
0.000948096
0.00094881
0.000949795
0.00095105
0.00095257
0.000954344
0.000956358
0.000958591
0.000961021
0.000963618
0.000966353
0.000969194
0.000972105
0.000975053
0.000978003
0.000980923
0.000983783
0.000986554
0.000989211
0.000991734
0.000994104
0.000996309
0.000998342
0.0010002
0.00100189
0.00100341
0.00100479
0.00100603
0.00100718
0.00100825
0.00100928
0.00101032
0.00101139
0.00101255
0.00101382
0.00101527
0.00101691
0.00101881
0.00102098
0.00102349
0.00102636
0.00102964
0.00103339
0.00103763
0.00104242
0.00104778
0.00105373
0.00106028
0.0010674
0.00107507
0.00108325
0.00109186
0.00110084
0.00111013
0.00111966
0.00112936
0.00113921
0.00114915
0.00115919
0.00116934
0.00117962
0.00119009
0.00120083
0.00121195
0.00122348
0.00123583
0.00124727
0.00126812
0.0009998
0.000998867
0.000997894
0.000996879
0.000995825
0.000994731
0.000993602
0.000992438
0.000991244
0.000990025
0.000988784
0.000987528
0.000986262
0.000984993
0.000983727
0.000982472
0.000981235
0.000980025
0.000978848
0.000977712
0.000976627
0.000975599
0.00097464
0.000973757
0.000972961
0.000972264
0.000971675
0.000971207
0.00097087
0.000970675
0.000970632
0.000970749
0.000971032
0.000971489
0.000972121
0.00097293
0.000973913
0.000975066
0.000976382
0.000977849
0.000979453
0.000981178
0.000983004
0.000984911
0.000986876
0.000988875
0.000990885
0.000992882
0.000994844
0.000996749
0.000998577
0.00100031
0.00100193
0.00100344
0.00100481
0.00100605
0.00100716
0.00100814
0.001009
0.00100976
0.00101043
0.00101106
0.00101165
0.00101225
0.0010129
0.00101364
0.00101451
0.00101555
0.00101682
0.00101835
0.0010202
0.0010224
0.001025
0.00102805
0.00103158
0.00103563
0.00104022
0.00104538
0.00105111
0.0010574
0.00106423
0.00107157
0.00107937
0.00108756
0.00109609
0.00110489
0.0011139
0.00112307
0.00113235
0.00114171
0.00115113
0.00116063
0.00117022
0.00117995
0.00118989
0.00120011
0.00121067
0.00122195
0.00123232
0.00125137
0.00100353
0.00100294
0.00100233
0.0010017
0.00100104
0.00100035
0.000999631
0.000998892
0.000998129
0.000997346
0.000996545
0.000995729
0.000994902
0.000994069
0.000993234
0.000992402
0.000991578
0.000990768
0.000989979
0.000989215
0.000988484
0.000987791
0.000987144
0.00098655
0.000986015
0.000985548
0.000985155
0.000984844
0.000984623
0.000984498
0.000984476
0.000984562
0.000984762
0.000985078
0.000985515
0.000986074
0.000986753
0.000987552
0.000988466
0.000989488
0.000990611
0.000991824
0.000993113
0.000994465
0.000995865
0.000997295
0.000998738
0.00100018
0.00100159
0.00100297
0.00100429
0.00100554
0.00100671
0.00100778
0.00100876
0.00100962
0.00101038
0.00101103
0.00101159
0.00101207
0.00101247
0.00101284
0.00101318
0.00101354
0.00101395
0.00101444