/*--------------------------------*- C++ -*----------------------------------*\
  =========                 |
  \\      /  F ield         | OpenFOAM: The Open Source CFD Toolbox
   \\    /   O peration     | Website:  https://openfoam.org
    \\  /    A nd           | Version:  10
     \\/     M anipulation  |
\*---------------------------------------------------------------------------*/
FoamFile
{
    format      ascii;
    class       volScalarField;
    location    "0.145";
    object      p;
}
// * * * * * * * * * * * * * * * * * * * * * * * * * * * * * * * * * * * * * //

dimensions      [0 2 -2 0 0 0 0];

internalField   nonuniform List<scalar> 
6820
(
-8.77148
-10.1356
-10.5491
-10.6446
-10.7255
-10.777
-10.8081
-10.8326
-10.8538
-10.8725
-10.8898
-10.9062
-10.922
-10.9373
-10.9522
-10.9668
-10.9811
-10.9952
-11.009
-11.0225
-11.0357
-11.0485
-11.0609
-11.0726
-11.0833
-11.0927
-11.0999
-11.1036
-11.1017
-11.0876
-11.0572
-10.9776
-10.7812
-11.5716
-11.1673
-10.8734
-10.7781
-10.7796
-10.7965
-10.8147
-10.8345
-10.8541
-10.8725
-10.8898
-10.9061
-10.9217
-10.9367
-10.9512
-10.9654
-10.9793
-10.9929
-11.0062
-11.0194
-11.0322
-11.0448
-11.0569
-11.0685
-11.0794
-11.0892
-11.0974
-11.104
-11.1065
-11.111
-11.1004
-11.1397
-11.143
-10.4286
-10.3004
-10.5254
-10.6632
-10.7248
-10.7693
-10.8015
-10.827
-10.8489
-10.8681
-10.8857
-10.9023
-10.9181
-10.9334
-10.9482
-10.9627
-10.977
-10.991
-11.0048
-11.0183
-11.0316
-11.0445
-11.0571
-11.0691
-11.0805
-11.091
-11.1002
-11.108
-11.1134
-11.1184
-11.1182
-11.1306
-11.1289
-10.7952
-10.8119
-10.7876
-10.7649
-10.7731
-10.7937
-10.8139
-10.8333
-10.8521
-10.87
-10.8869
-10.9031
-10.9187
-10.9338
-10.9485
-10.9629
-10.977
-10.9909
-11.0045
-11.018
-11.0312
-11.0441
-11.0567
-11.0689
-11.0807
-11.0918
-11.1022
-11.112
-11.1209
-11.1315
-11.142
-11.1679
-11.2013
-10.6852
-10.6313
-10.6752
-10.72
-10.7552
-10.7854
-10.8102
-10.8317
-10.8514
-10.8696
-10.8866
-10.9027
-10.9182
-10.9333
-10.9479
-10.9623
-10.9764
-10.9903
-11.0041
-11.0176
-11.0309
-11.044
-11.0569
-11.0695
-11.0818
-11.0938
-11.1054
-11.1171
-11.1288
-11.1427
-11.1588
-11.185
-11.219
-10.7259
-10.7191
-10.7375
-10.7546
-10.773
-10.7945
-10.8153
-10.8348
-10.8532
-10.8707
-10.8872
-10.9031
-10.9185
-10.9334
-10.948
-10.9623
-10.9764
-10.9903
-11.004
-11.0175
-11.0309
-11.0442
-11.0573
-11.0702
-11.083
-11.0957
-11.1085
-11.1217
-11.1358
-11.1524
-11.1721
-11.1995
-11.2349
-10.7251
-10.7144
-10.7292
-10.7509
-10.7729
-10.7954
-10.8164
-10.8357
-10.8539
-10.8711
-10.8875
-10.9032
-10.9185
-10.9333
-10.9478
-10.9621
-10.9761
-10.99
-11.0037
-11.0173
-11.0308
-11.0442
-11.0575
-11.0708
-11.0842
-11.0976
-11.1114
-11.126
-11.1418
-11.1601
-11.1817
-11.2089
-11.2424
-10.7347
-10.7317
-10.7448
-10.7628
-10.7811
-10.8006
-10.8196
-10.8378
-10.8552
-10.8719
-10.888
-10.9034
-10.9185
-10.9332
-10.9476
-10.9618
-10.9758
-10.9896
-11.0034
-11.017
-11.0306
-11.0441
-11.0577
-11.0713
-11.0851
-11.0992
-11.1139
-11.1294
-11.1465
-11.1658
-11.1881
-11.2147
-11.2459
-10.7432
-10.7421
-10.7526
-10.7685
-10.7856
-10.8039
-10.822
-10.8395
-10.8564
-10.8727
-10.8884
-10.9036
-10.9185
-10.933
-10.9473
-10.9614
-10.9753
-10.9892
-11.0029
-11.0166
-11.0302
-11.0439
-11.0577
-11.0716
-11.0858
-11.1004
-11.1157
-11.132
-11.1497
-11.1695
-11.1919
-11.2175
-11.2464
-10.7517
-10.7522
-10.7616
-10.7758
-10.7914
-10.8081
-10.825
-10.8416
-10.8578
-10.8736
-10.8889
-10.9038
-10.9185
-10.9328
-10.947
-10.961
-10.9748
-10.9886
-11.0023
-11.016
-11.0297
-11.0435
-11.0574
-11.0715
-11.086
-11.101
-11.1167
-11.1335
-11.1515
-11.1714
-11.1934
-11.2179
-11.2447
-10.7599
-10.7613
-10.7696
-10.7822
-10.7965
-10.8119
-10.8278
-10.8436
-10.8592
-10.8745
-10.8894
-10.904
-10.9184
-10.9326
-10.9466
-10.9604
-10.9742
-10.9879
-11.0016
-11.0152
-11.029
-11.0428
-11.0568
-11.0711
-11.0858
-11.101
-11.117
-11.1339
-11.1521
-11.1718
-11.1932
-11.2164
-11.2413
-10.7678
-10.7696
-10.7771
-10.7885
-10.8015
-10.8158
-10.8307
-10.8457
-10.8606
-10.8754
-10.8899
-10.9042
-10.9184
-10.9323
-10.9461
-10.9598
-10.9735
-10.9871
-11.0007
-11.0143
-11.028
-11.0419
-11.056
-11.0703
-11.0851
-11.1005
-11.1165
-11.1334
-11.1514
-11.1707
-11.1913
-11.2133
-11.2365
-10.7752
-10.7772
-10.784
-10.7943
-10.8063
-10.8196
-10.8335
-10.8478
-10.8621
-10.8763
-10.8904
-10.9044
-10.9182
-10.932
-10.9456
-10.9591
-10.9726
-10.9861
-10.9996
-11.0132
-11.0269
-11.0407
-11.0548
-11.0691
-11.0839
-11.0992
-11.1152
-11.132
-11.1496
-11.1683
-11.1881
-11.2088
-11.2305
-10.7822
-10.7841
-10.7904
-10.7998
-10.8108
-10.8232
-10.8363
-10.8498
-10.8635
-10.8772
-10.8909
-10.9045
-10.9181
-10.9315
-10.9449
-10.9583
-10.9716
-10.985
-10.9984
-11.0118
-11.0254
-11.0392
-11.0532
-11.0675
-11.0822
-11.0973
-11.1131
-11.1296
-11.1468
-11.1648
-11.1836
-11.2032
-11.2235
-10.7886
-10.7905
-10.7963
-10.8049
-10.8151
-10.8265
-10.8389
-10.8517
-10.8648
-10.878
-10.8913
-10.9046
-10.9178
-10.931
-10.9442
-10.9573
-10.9705
-10.9837
-10.9969
-11.0102
-11.0237
-11.0373
-11.0512
-11.0653
-11.0798
-11.0948
-11.1103
-11.1263
-11.1429
-11.1602
-11.1782
-11.1966
-11.2155
-10.7945
-10.7963
-10.8017
-10.8095
-10.819
-10.8297
-10.8413
-10.8535
-10.866
-10.8788
-10.8916
-10.9045
-10.9174
-10.9303
-10.9433
-10.9562
-10.9691
-10.9821
-10.9952
-11.0083
-11.0216
-11.0351
-11.0488
-11.0627
-11.077
-11.0916
-11.1067
-11.1222
-11.1382
-11.1547
-11.1717
-11.1891
-11.2068
-10.7998
-10.8015
-10.8065
-10.8138
-10.8226
-10.8326
-10.8435
-10.8551
-10.8671
-10.8794
-10.8918
-10.9043
-10.9169
-10.9295
-10.9422
-10.9549
-10.9676
-10.9804
-10.9932
-11.0062
-11.0193
-11.0325
-11.0459
-11.0596
-11.0735
-11.0877
-11.1024
-11.1173
-11.1327
-11.1484
-11.1644
-11.1807
-11.1972
-10.8046
-10.8062
-10.8109
-10.8176
-10.8258
-10.8352
-10.8455
-10.8566
-10.868
-10.8798
-10.8918
-10.904
-10.9163
-10.9286
-10.941
-10.9534
-10.9659
-10.9784
-10.991
-11.0037
-11.0165
-11.0295
-11.0426
-11.0559
-11.0695
-11.0833
-11.0974
-11.1117
-11.1264
-11.1412
-11.1563
-11.1716
-11.187
-10.8089
-10.8104
-10.8147
-10.8209
-10.8286
-10.8375
-10.8473
-10.8577
-10.8687
-10.8801
-10.8917
-10.9035
-10.9154
-10.9274
-10.9395
-10.9517
-10.9639
-10.9762
-10.9885
-11.0009
-11.0134
-11.0261
-11.0389
-11.0518
-11.0649
-11.0782
-11.0917
-11.1054
-11.1193
-11.1334
-11.1476
-11.1618
-11.1761
-10.8125
-10.8139
-10.818
-10.8238
-10.831
-10.8394
-10.8487
-10.8587
-10.8692
-10.8801
-10.8914
-10.9028
-10.9144
-10.9261
-10.9379
-10.9497
-10.9617
-10.9736
-10.9857
-10.9978
-11.01
-11.0223
-11.0347
-11.0472
-11.0598
-11.0726
-11.0855
-11.0985
-11.1116
-11.1249
-11.1381
-11.1514
-11.1646
-10.8157
-10.817
-10.8207
-10.8262
-10.833
-10.8409
-10.8497
-10.8593
-10.8694
-10.8799
-10.8908
-10.9019
-10.9131
-10.9245
-10.936
-10.9476
-10.9592
-10.9709
-10.9826
-10.9944
-11.0062
-11.0181
-11.0301
-11.0421
-11.0542
-11.0664
-11.0787
-11.091
-11.1034
-11.1158
-11.1281
-11.1404
-11.1526
-10.8182
-10.8194
-10.823
-10.8281
-10.8345
-10.842
-10.8504
-10.8596
-10.8693
-10.8794
-10.8899
-10.9007
-10.9116
-10.9227
-10.9339
-10.9451
-10.9564
-10.9678
-10.9791
-10.9906
-11.002
-11.0135
-11.025
-11.0366
-11.0482
-11.0598
-11.0714
-11.083
-11.0946
-11.1061
-11.1176
-11.1289
-11.1401
-10.8201
-10.8213
-10.8246
-10.8295
-10.8356
-10.8427
-10.8508
-10.8595
-10.8689
-10.8787
-10.8888
-10.8992
-10.9099
-10.9206
-10.9315
-10.9424
-10.9534
-10.9644
-10.9754
-10.9865
-10.9975
-11.0086
-11.0196
-11.0306
-11.0417
-11.0527
-11.0636
-11.0745
-11.0853
-11.096
-11.1066
-11.117
-11.1272
-10.8214
-10.8225
-10.8257
-10.8303
-10.8361
-10.8429
-10.8506
-10.859
-10.868
-10.8775
-10.8873
-10.8974
-10.9077
-10.9182
-10.9287
-10.9394
-10.95
-10.9607
-10.9713
-10.982
-10.9926
-11.0032
-11.0138
-11.0243
-11.0347
-11.0451
-11.0554
-11.0655
-11.0756
-11.0855
-11.0952
-11.1047
-11.114
-10.8221
-10.8232
-10.8262
-10.8306
-10.8361
-10.8427
-10.8501
-10.8582
-10.8669
-10.8761
-10.8857
-10.8955
-10.9055
-10.9156
-10.9259
-10.9362
-10.9465
-10.9568
-10.9671
-10.9773
-10.9875
-10.9977
-11.0077
-11.0177
-11.0275
-11.0373
-11.0469
-11.0563
-11.0656
-11.0747
-11.0835
-11.0921
-11.1005
-10.8222
-10.8232
-10.826
-10.8302
-10.8354
-10.8417
-10.8488
-10.8567
-10.8651
-10.874
-10.8833
-10.8929
-10.9026
-10.9125
-10.9224
-10.9324
-10.9424
-10.9524
-10.9623
-10.9722
-10.9819
-10.9916
-11.0011
-11.0106
-11.0199
-11.029
-11.0379
-11.0467
-11.0552
-11.0635
-11.0715
-11.0793
-11.0868
-10.8216
-10.8225
-10.8253
-10.8293
-10.8345
-10.8406
-10.8476
-10.8553
-10.8635
-10.8722
-10.8812
-10.8905
-10.9
-10.9096
-10.9192
-10.9289
-10.9386
-10.9482
-10.9577
-10.9671
-10.9764
-10.9856
-10.9946
-11.0035
-11.0122
-11.0207
-11.029
-11.037
-11.0448
-11.0523
-11.0595
-11.0665
-11.0731
-10.8202
-10.821
-10.8235
-10.8272
-10.832
-10.8379
-10.8446
-10.852
-10.8601
-10.8686
-10.8775
-10.8866
-10.8959
-10.9053
-10.9147
-10.9241
-10.9335
-10.9428
-10.952
-10.9611
-10.97
-10.9788
-10.9874
-10.9957
-11.0039
-11.0118
-11.0194
-11.0268
-11.0339
-11.0407
-11.0472
-11.0534
-11.0592
-10.8183
-10.8193
-10.822
-10.8259
-10.8309
-10.8368
-10.8435
-10.8508
-10.8588
-10.8671
-10.8757
-10.8846
-10.8936
-10.9027
-10.9118
-10.9208
-10.9298
-10.9387
-10.9475
-10.9561
-10.9646
-10.9728
-10.9808
-10.9886
-10.9962
-11.0035
-11.0105
-11.0171
-11.0235
-11.0296
-11.0353
-11.0407
-11.0457
-10.8151
-10.8154
-10.8171
-10.8201
-10.8245
-10.83
-10.8366
-10.8439
-10.8519
-10.8603
-10.8691
-10.878
-10.8871
-10.8962
-10.9053
-10.9143
-10.9232
-10.932
-10.9406
-10.949
-10.9571
-10.9651
-10.9727
-10.9801
-10.9872
-10.994
-11.0005
-11.0066
-11.0124
-11.0179
-11.0229
-11.0276
-11.0319
-10.8128
-10.8148
-10.8179
-10.8219
-10.8268
-10.8324
-10.8389
-10.846
-10.8536
-10.8615
-10.8698
-10.8782
-10.8868
-10.8954
-10.9039
-10.9124
-10.9208
-10.929
-10.937
-10.9448
-10.9524
-10.9598
-10.9668
-10.9736
-10.9801
-10.9862
-10.992
-10.9975
-11.0025
-11.0073
-11.0116
-11.0155
-11.0191
-10.8048
-10.8027
-10.8024
-10.8046
-10.8089
-10.8149
-10.8221
-10.8301
-10.8387
-10.8477
-10.8569
-10.8662
-10.8755
-10.8847
-10.8938
-10.9027
-10.9114
-10.9198
-10.928
-10.9359
-10.9435
-10.9507
-10.9576
-10.9642
-10.9704
-10.9762
-10.9817
-10.9867
-10.9914
-10.9956
-10.9995
-11.0029
-11.0059
-10.81
-10.8155
-10.8197
-10.8227
-10.8264
-10.831
-10.8366
-10.8429
-10.8498
-10.8572
-10.8648
-10.8727
-10.8806
-10.8886
-10.8965
-10.9044
-10.9121
-10.9196
-10.9268
-10.9339
-10.9406
-10.9471
-10.9532
-10.959
-10.9645
-10.9696
-10.9743
-10.9786
-10.9826
-10.9861
-10.9892
-10.9918
-10.9941
-10.7807
-10.7696
-10.7663
-10.7701
-10.7774
-10.7863
-10.7963
-10.8069
-10.8178
-10.8287
-10.8394
-10.85
-10.8603
-10.8703
-10.8799
-10.8891
-10.898
-10.9065
-10.9146
-10.9222
-10.9295
-10.9363
-10.9427
-10.9487
-10.9542
-10.9593
-10.9639
-10.9681
-10.9718
-10.9751
-10.9779
-10.9803
-10.9821
-10.828
-10.8441
-10.8453
-10.8395
-10.8372
-10.838
-10.8408
-10.8449
-10.85
-10.8559
-10.8623
-10.8691
-10.8761
-10.8832
-10.8903
-10.8973
-10.9042
-10.9109
-10.9174
-10.9237
-10.9296
-10.9352
-10.9405
-10.9454
-10.95
-10.9541
-10.9579
-10.9612
-10.9642
-10.9667
-10.9687
-10.9703
-10.9715
-10.7182
-10.6801
-10.6745
-10.6982
-10.7181
-10.7361
-10.754
-10.771
-10.787
-10.802
-10.8161
-10.8293
-10.8417
-10.8533
-10.8641
-10.8744
-10.8839
-10.8929
-10.9013
-10.9091
-10.9163
-10.923
-10.9292
-10.9348
-10.9399
-10.9445
-10.9486
-10.9522
-10.9552
-10.9578
-10.9598
-10.9613
-10.9624
-10.9303
-10.9548
-10.9255
-10.8886
-10.8651
-10.8571
-10.8537
-10.8528
-10.8543
-10.8575
-10.8618
-10.8668
-10.8724
-10.8783
-10.8843
-10.8904
-10.8964
-10.9023
-10.908
-10.9135
-10.9187
-10.9236
-10.9282
-10.9324
-10.9362
-10.9396
-10.9426
-10.9452
-10.9474
-10.9491
-10.9504
-10.9513
-10.9517
-10.5147
-10.4329
-10.4899
-10.5706
-10.6269
-10.665
-10.6981
-10.727
-10.7517
-10.7732
-10.7922
-10.8092
-10.8245
-10.8383
-10.8508
-10.8623
-10.8728
-10.8825
-10.8913
-10.8994
-10.9068
-10.9136
-10.9196
-10.9251
-10.93
-10.9342
-10.9379
-10.9411
-10.9437
-10.9457
-10.9472
-10.9481
-10.9485
-11.491
-11.2129
-11.0071
-10.9157
-10.8786
-10.8577
-10.8447
-10.8389
-10.8379
-10.8397
-10.8433
-10.8482
-10.8539
-10.86
-10.8664
-10.8728
-10.8792
-10.8855
-10.8915
-10.8972
-10.9026
-10.9077
-10.9124
-10.9167
-10.9205
-10.924
-10.9269
-10.9295
-10.9315
-10.9331
-10.9342
-10.9349
-10.9351
-9.53295
-10.0945
-10.399
-10.515
-10.5963
-10.6596
-10.7044
-10.7381
-10.7652
-10.7873
-10.8057
-10.8216
-10.8355
-10.8479
-10.859
-10.8691
-10.8783
-10.8868
-10.8945
-10.9015
-10.9079
-10.9137
-10.9189
-10.9235
-10.9276
-10.9311
-10.9341
-10.9365
-10.9384
-10.9398
-10.9406
-10.941
-10.9408
-10.7212
-11.2804
-11.3394
-11.4068
-11.507
-11.5823
-11.6424
-11.7008
-11.7628
-11.83
-11.9033
-11.9814
-12.0621
-12.1429
-12.2215
-12.2957
-12.3637
-12.4242
-12.4761
-12.5186
-12.5513
-12.5739
-12.5863
-12.5881
-12.5793
-12.5594
-12.5279
-12.4843
-12.4279
-12.3581
-12.2742
-12.1755
-12.0614
-11.9312
-11.7844
-11.6206
-11.4392
-11.2401
-11.0231
-10.7885
-10.5367
-10.2682
-9.98416
-9.6857
-9.37435
-9.05188
-8.7203
-8.38178
-8.03865
-7.69333
-7.34827
-7.00588
-6.66849
-6.33824
-6.01706
-5.70662
-5.40825
-5.12296
-4.8514
-4.59384
-4.35021
-4.12009
-3.90272
-3.6971
-3.50195
-3.31585
-3.13721
-2.96442
-2.79582
-2.62987
-2.46514
-2.3004
-2.13472
-1.96751
-1.7986
-1.62828
-1.45736
-1.2872
-1.11964
-0.956938
-0.801589
-0.656063
-0.522548
-0.402749
-0.297764
-0.208054
-0.133452
-0.0732653
-0.0263533
0.0086613
0.0333926
0.0492965
0.0581031
0.0607198
0.0592214
0.0528377
0.0459301
0.0320091
0.0263296
-0.0013418
-11.5324
-11.7867
-11.6934
-11.6271
-11.6118
-11.6118
-11.6235
-11.656
-11.7055
-11.7689
-11.8437
-11.9257
-12.0104
-12.0945
-12.175
-12.2497
-12.3172
-12.3764
-12.4266
-12.4673
-12.4983
-12.5194
-12.5303
-12.5309
-12.5209
-12.4999
-12.4675
-12.423
-12.3659
-12.2954
-12.211
-12.112
-11.9979
-11.8679
-11.7216
-11.5585
-11.3783
-11.1807
-10.9657
-10.7335
-10.4844
-10.2191
-9.9386
-9.64408
-9.33701
-9.01911
-8.69231
-8.3587
-8.02055
-7.68018
-7.33996
-7.0022
-6.66916
-6.34292
-6.02535
-5.71806
-5.42237
-5.13928
-4.86943
-4.61312
-4.3703
-4.14058
-3.92328
-3.71742
-3.52181
-3.33504
-3.15562
-2.98195
-2.81245
-2.6456
-2.48001
-2.31451
-2.1482
-1.98053
-1.81136
-1.64105
-1.47045
-1.30093
-1.13434
-0.972866
-0.818855
-0.674594
-0.542097
-0.422946
-0.318178
-0.228249
-0.153024
-0.0918703
-0.0437159
-0.00726219
0.0190426
0.0365765
0.047058
0.0512829
0.0514651
0.0464886
0.0414035
0.0283101
0.0253016
-0.00348503
-11.1998
-11.3073
-11.3506
-11.4038
-11.4744
-11.5377
-11.5945
-11.6463
-11.7025
-11.7634
-11.8296
-11.9002
-11.9737
-12.0481
-12.1212
-12.191
-12.2556
-12.3136
-12.3634
-12.4043
-12.4355
-12.4566
-12.4673
-12.4675
-12.4568
-12.4351
-12.4018
-12.3565
-12.2987
-12.2276
-12.1428
-12.0437
-11.9295
-11.7999
-11.6543
-11.4922
-11.3133
-11.1175
-10.9047
-10.6751
-10.4291
-10.1673
-9.8907
-9.60044
-9.29794
-8.98488
-8.6631
-8.33464
-8.00168
-7.66645
-7.33124
-6.9983
-6.66978
-6.34771
-6.0339
-5.72991
-5.43703
-5.15623
-4.88815
-4.6331
-4.39106
-4.16169
-3.94435
-3.73812
-3.54186
-3.35424
-3.17383
-2.99908
-2.82848
-2.66057
-2.494
-2.32765
-2.16067
-1.99258
-1.82329
-1.6532
-1.48318
-1.31461
-1.14926
-0.989206
-0.836625
-0.693641
-0.562129
-0.443584
-0.339
-0.248832
-0.172975
-0.110851
-0.0614523
-0.0235547
0.00433292
0.0235122
0.0356899
0.0415504
0.043445
0.0399125
0.0366857
0.0244675
0.0241511
-0.0056699
-11.309
-11.472
-11.5352
-11.553
-11.5762
-11.6006
-11.626
-11.6584
-11.6998
-11.7517
-11.8124
-11.8787
-11.9483
-12.0184
-12.0866
-12.151
-12.2099
-12.2623
-12.307
-12.3434
-12.371
-12.3893
-12.3979
-12.3966
-12.3848
-12.3623
-12.3284
-12.2826
-12.2244
-12.1531
-12.0683
-11.9692
-11.8554
-11.7263
-11.5815
-11.4206
-11.2434
-11.0495
-10.8391
-10.6123
-10.3695
-10.1114
-9.83881
-9.55297
-9.25522
-8.94717
-8.63061
-8.30752
-7.97997
-7.65013
-7.3202
-6.99234
-6.66862
-6.35099
-6.0412
-5.74076
-5.4509
-5.17259
-4.90644
-4.65279
-4.41163
-4.18265
-3.96526
-3.75862
-3.56165
-3.37309
-3.19158
-3.01565
-2.84386
-2.6748
-2.50721
-2.34002
-2.17246
-2.00409
-1.83487
-1.66523
-1.49604
-1.32862
-1.16465
-1.00607
-0.85491
-0.713159
-0.582584
-0.464604
-0.360181
-0.269764
-0.193274
-0.130183
-0.0795421
-0.0402004
-0.0107242
0.0101126
0.024005
0.0315258
0.0351627
0.0331093
0.0317761
0.0204783
0.0228817
-0.00790197
-11.2842
-11.3689
-11.409
-11.4391
-11.4818
-11.5275
-11.5725
-11.6189
-11.6736
-11.7295
-11.7888
-11.8516
-11.9161
-11.9806
-12.0434
-12.1029
-12.1578
-12.2067
-12.2486
-12.2826
-12.3079
-12.324
-12.3306
-12.3271
-12.3134
-12.289
-12.2535
-12.2063
-12.147
-12.0748
-11.9894
-11.89
-11.7763
-11.6476
-11.5036
-11.3438
-11.1681
-10.9762
-10.7683
-10.5443
-10.3049
-10.0506
-9.78228
-9.50107
-9.20829
-8.90549
-8.59441
-8.27692
-7.95505
-7.63086
-7.30646
-6.98392
-6.66525
-6.35231
-6.04676
-5.75008
-5.46345
-5.1878
-4.92376
-4.67164
-4.43147
-4.20299
-3.98564
-3.77864
-3.58098
-3.39149
-3.20887
-3.03175
-2.85876
-2.68858
-2.52002
-2.3521
-2.18407
-2.01558
-1.8466
-1.67757
-1.50934
-1.34315
-1.18059
-1.02345
-0.873666
-0.733092
-0.603406
-0.485962
-0.381683
-0.291012
-0.213893
-0.14984
-0.0979623
-0.0571776
-0.0261088
-0.00360395
0.0120201
0.0212248
0.0266317
0.0260919
0.0266854
0.0163536
0.0215046
-0.0101736
-11.2909
-11.3698
-11.4279
-11.4695
-11.5093
-11.5478
-11.5856
-11.6257
-11.6666
-11.7159
-11.7696
-11.8267
-11.8858
-11.945
-12.0028
-12.0575
-12.1077
-12.1521
-12.1898
-12.2199
-12.2419
-12.2551
-12.2591
-12.2535
-12.238
-12.212
-12.1751
-12.1267
-12.0664
-11.9935
-11.9075
-11.8079
-11.6941
-11.5658
-11.4225
-11.2639
-11.0897
-10.8998
-10.6943
-10.4733
-10.2373
-9.98686
-9.72287
-9.44639
-9.15871
-8.86131
-8.55586
-8.24416
-7.92814
-7.60979
-7.29111
-6.97409
-6.66063
-6.35251
-6.05134
-5.75853
-5.47523
-5.20234
-4.94047
-4.68997
-4.45086
-4.22293
-4.00567
-3.79835
-3.60006
-3.40968
-3.226
-3.04774
-2.87361
-2.70237
-2.53292
-2.36434
-2.19597
-2.02745
-1.85881
-1.69047
-1.52322
-1.35825
-1.19705
-1.04131
-0.89283
-0.753384
-0.624553
-0.507624
-0.40348
-0.312557
-0.234815
-0.169807
-0.1167
-0.0744756
-0.0418115
-0.0176295
-0.000258368
0.0106527
0.0178564
0.018864
0.0214163
0.0120963
0.0200242
-0.0124845
-11.2892
-11.3507
-11.3995
-11.437
-11.4748
-11.514
-11.553
-11.5965
-11.6419
-11.6911
-11.743
-11.797
-11.8521
-11.9069
-11.96
-12.0101
-12.0559
-12.0963
-12.1303
-12.1571
-12.176
-12.1865
-12.1881
-12.1802
-12.1626
-12.1347
-12.096
-12.0462
-11.9845
-11.9107
-11.824
-11.724
-11.6103
-11.4823
-11.3397
-11.1823
-11.0096
-10.8218
-10.6188
-10.4009
-10.1684
-9.92198
-9.66246
-9.39086
-9.10843
-8.81658
-8.5169
-8.21112
-7.90107
-7.58863
-7.27573
-6.96425
-6.65602
-6.35273
-6.05594
-5.76699
-5.48701
-5.21686
-4.95717
-4.70828
-4.47024
-4.24287
-4.02573
-3.81814
-3.61924
-3.42801
-3.24331
-3.06396
-2.88874
-2.71651
-2.54624
-2.37706
-2.20838
-2.03989
-1.87161
-1.70395
-1.53766
-1.37387
-1.21397
-1.05956
-0.912351
-0.773994
-0.645991
-0.529563
-0.425552
-0.33438
-0.256022
-0.190071
-0.135743
-0.0920822
-0.0578218
-0.0319547
-0.0128222
-0.000183502
0.00884244
0.0114308
0.0159729
0.00771042
0.0184458
-0.0148341
-11.287
-11.3394
-11.3865
-11.4267
-11.4659
-11.5052
-11.5448
-11.5837
-11.626
-11.6712
-11.7188
-11.7683
-11.8188
-11.8689
-11.9174
-11.963
-12.0045
-12.0408
-12.0711
-12.0945
-12.1102
-12.1179
-12.1168
-12.1067
-12.0869
-12.0571
-12.0169
-11.9656
-11.9028
-11.828
-11.7407
-11.6404
-11.5267
-11.3991
-11.2573
-11.101
-10.9301
-10.7444
-10.544
-10.3292
-10.1003
-9.85791
-9.6029
-9.33621
-9.05903
-8.77271
-8.47877
-8.17885
-7.87468
-7.56808
-7.26086
-6.95484
-6.65174
-6.35321
-6.06072
-5.77557
-5.49885
-5.23143
-4.9739
-4.72661
-4.48965
-4.26287
-4.04587
-3.83804
-3.63858
-3.44655
-3.2609
-3.08051
-2.90426
-2.73108
-2.56002
-2.3903
-2.22134
-2.05288
-1.88495
-1.71794
-1.55258
-1.38993
-1.23129
-1.07818
-0.932189
-0.794893
-0.667699
-0.551762
-0.447881
-0.356465
-0.277502
-0.210617
-0.155076
-0.109985
-0.0741286
-0.0465696
-0.0256629
-0.0112761
-0.000403801
0.00379817
0.0103599
0.00320035
0.016775
-0.0172222
-11.283
-11.3285
-11.3717
-11.4104
-11.4478
-11.4853
-11.5231
-11.5619
-11.6029
-11.6461
-11.691
-11.7371
-11.7837
-11.8297
-11.8739
-11.9152
-11.9526
-11.9851
-12.0117
-12.0318
-12.0446
-12.0494
-12.0459
-12.0335
-12.0117
-11.9801
-11.9382
-11.8856
-11.8217
-11.746
-11.6581
-11.5576
-11.4439
-11.3168
-11.1759
-11.0208
-10.8516
-10.668
-10.4703
-10.2586
-10.0333
-9.79496
-9.54441
-9.28258
-9.01057
-8.72969
-8.44139
-8.14721
-7.84882
-7.54793
-7.24628
-6.9456
-6.64755
-6.35367
-6.06541
-5.78401
-5.51053
-5.24579
-4.99042
-4.74474
-4.50889
-4.28274
-4.06593
-3.85791
-3.65796
-3.46519
-3.27864
-3.09728
-2.92006
-2.74599
-2.5742
-2.40395
-2.23474
-2.06632
-1.89874
-1.73238
-1.56793
-1.40637
-1.24896
-1.09711
-0.952321
-0.816061
-0.68966
-0.574205
-0.470453
-0.378799
-0.299239
-0.231432
-0.174688
-0.128173
-0.0907205
-0.061464
-0.0387714
-0.0226172
-0.00987542
-0.00402772
0.00458267
-0.00142913
0.0150177
-0.0196481
-11.2779
-11.3183
-11.3582
-11.3956
-11.4321
-11.4686
-11.5054
-11.5427
-11.5815
-11.6218
-11.6634
-11.7058
-11.7484
-11.7902
-11.8302
-11.8674
-11.9008
-11.9295
-11.9526
-11.9694
-11.9792
-11.9813
-11.9753
-11.9606
-11.9368
-11.9034
-11.86
-11.806
-11.7411
-11.6646
-11.5762
-11.4755
-11.362
-11.2354
-11.0953
-10.9416
-10.7741
-10.5927
-10.3976
-10.189
-9.96728
-9.73297
-9.48682
-9.22975
-8.96283
-8.68729
-8.4045
-8.11595
-7.82321
-7.52792
-7.23174
-6.9363
-6.64319
-6.3539
-6.0698
-5.7921
-5.52182
-5.25977
-5.00655
-4.76251
-4.5278
-4.30232
-4.08576
-3.87762
-3.67723
-3.48381
-3.29643
-3.11416
-2.93604
-2.76115
-2.58867
-2.41795
-2.24851
-2.08015
-1.91293
-1.74721
-1.58365
-1.42318
-1.26697
-1.11635
-0.972731
-0.837486
-0.711862
-0.596879
-0.493256
-0.401367
-0.321219
-0.252501
-0.194564
-0.146632
-0.107586
-0.0766273
-0.0521383
-0.0341981
-0.0195651
-0.0120401
-0.00135287
-0.0061729
0.01318
-0.0221112
-11.2716
-11.3081
-11.345
-11.3805
-11.4154
-11.4503
-11.4854
-11.5211
-11.5578
-11.5956
-11.6342
-11.6733
-11.7122
-11.7501
-11.7862
-11.8195
-11.8491
-11.8741
-11.8937
-11.9073
-11.9141
-11.9135
-11.905
-11.8882
-11.8624
-11.8272
-11.7823
-11.727
-11.661
-11.5838
-11.495
-11.3941
-11.2808
-11.1547
-11.0156
-10.8632
-10.6975
-10.5183
-10.3259
-10.1203
-9.90212
-9.67175
-9.42994
-9.17756
-8.91562
-8.64531
-8.36793
-8.08489
-7.79769
-7.50789
-7.21706
-6.92676
-6.63851
-6.35374
-6.07375
-5.79971
-5.53261
-5.27324
-5.02219
-4.77982
-4.54628
-4.32151
-4.10526
-3.89707
-3.69633
-3.50231
-3.3142
-3.1311
-2.95214
-2.77649
-2.60338
-2.43223
-2.26261
-2.09434
-1.92749
-1.76241
-1.59972
-1.44032
-1.28529
-1.13588
-0.993409
-0.859157
-0.734292
-0.619773
-0.516275
-0.424157
-0.34343
-0.273811
-0.214692
-0.165349
-0.124713
-0.0920486
-0.0657537
-0.04601
-0.029465
-0.0202318
-0.00744049
-0.0110255
0.011268
-0.0246107
-11.2644
-11.2978
-11.3318
-11.3654
-11.3986
-11.4319
-11.4653
-11.4992
-11.5337
-11.5689
-11.6045
-11.6403
-11.6756
-11.7098
-11.742
-11.7715
-11.7974
-11.8188
-11.8351
-11.8455
-11.8494
-11.8462
-11.8352
-11.8162
-11.7884
-11.7516
-11.7051
-11.6486
-11.5816
-11.5037
-11.4145
-11.3135
-11.2004
-11.0749
-10.9367
-10.7857
-10.6217
-10.4447
-10.2549
-10.0524
-9.83769
-9.61121
-9.37366
-9.12588
-8.86883
-8.60365
-8.33157
-8.05393
-7.77216
-7.48773
-7.20215
-6.91691
-6.63344
-6.35311
-6.07719
-5.80678
-5.54284
-5.28614
-5.03727
-4.79659
-4.56427
-4.34028
-4.12439
-3.91622
-3.7152
-3.52068
-3.3319
-3.14805
-2.96834
-2.79199
-2.61832
-2.44679
-2.27702
-2.10886
-1.9424
-1.77796
-1.61615
-1.4578
-1.30392
-1.1557
-1.01434
-0.881061
-0.756939
-0.642874
-0.539499
-0.447155
-0.365858
-0.295349
-0.235058
-0.184313
-0.14209
-0.107717
-0.0796075
-0.0580436
-0.039567
-0.0285953
-0.0136736
-0.0159812
0.0092875
-0.0271453
-11.2563
-11.287
-11.3186
-11.3501
-11.3814
-11.4129
-11.4445
-11.4763
-11.5086
-11.5412
-11.574
-11.6066
-11.6385
-11.6691
-11.6977
-11.7236
-11.7458
-11.7638
-11.7768
-11.7842
-11.7852
-11.7793
-11.766
-11.7447
-11.715
-11.6765
-11.6285
-11.5708
-11.5029
-11.4243
-11.3347
-11.2336
-11.1207
-10.9959
-10.8587
-10.709
-10.5468
-10.372
-10.1847
-9.98527
-9.77396
-9.5513
-9.31793
-9.07466
-8.82242
-8.56226
-8.29536
-8.02301
-7.74656
-7.4674
-7.18697
-6.90669
-6.62792
-6.35198
-6.08006
-5.81324
-5.55245
-5.29843
-5.05175
-4.81279
-4.58173
-4.35857
-4.14313
-3.93504
-3.73382
-3.53888
-3.34951
-3.165
-2.9846
-2.80763
-2.63346
-2.4616
-2.29173
-2.12371
-1.95765
-1.79386
-1.63291
-1.47559
-1.32285
-1.17579
-1.03552
-0.903188
-0.779791
-0.666169
-0.562913
-0.470347
-0.388489
-0.3171
-0.255649
-0.203511
-0.159704
-0.12362
-0.0936893
-0.0702894
-0.0498626
-0.0371228
-0.0200453
-0.0210338
0.00724434
-0.0297132
-11.2475
-11.2758
-11.3051
-11.3345
-11.3639
-11.3935
-11.4232
-11.453
-11.4829
-11.513
-11.543
-11.5725
-11.6011
-11.6283
-11.6534
-11.6757
-11.6945
-11.7092
-11.719
-11.7233
-11.7215
-11.713
-11.6973
-11.6739
-11.6423
-11.602
-11.5527
-11.4938
-11.4249
-11.3456
-11.2556
-11.1545
-11.0419
-10.9176
-10.7814
-10.6331
-10.4726
-10.3
-10.1153
-9.91886
-9.71092
-9.49201
-9.26275
-9.0239
-8.77635
-8.52111
-8.25929
-7.99211
-7.72086
-7.44687
-7.17149
-6.89608
-6.62193
-6.3503
-6.08235
-5.81909
-5.56142
-5.31007
-5.0656
-4.8284
-4.59865
-4.37638
-4.16143
-3.95351
-3.75218
-3.55689
-3.36702
-3.18193
-3.00093
-2.8234
-2.64879
-2.47666
-2.30672
-2.13887
-1.97322
-1.81009
-1.65
-1.4937
-1.34207
-1.19613
-1.05693
-0.925523
-0.802834
-0.689644
-0.586505
-0.49372
-0.411308
-0.339052
-0.276452
-0.222928
-0.177544
-0.139748
-0.107989
-0.0827376
-0.0603431
-0.0458061
-0.0265486
-0.0261771
0.00514383
-0.0323123
-11.2378
-11.2641
-11.2912
-11.3186
-11.3461
-11.3737
-11.4013
-11.429
-11.4567
-11.4842
-11.5114
-11.5379
-11.5634
-11.5873
-11.609
-11.6279
-11.6434
-11.6548
-11.6615
-11.6629
-11.6583
-11.6473
-11.6293
-11.6037
-11.5703
-11.5283
-11.4775
-11.4175
-11.3477
-11.2678
-11.1774
-11.0762
-10.964
-10.8403
-10.7051
-10.5581
-10.3994
-10.2289
-10.0468
-9.85322
-9.64859
-9.43336
-9.20812
-8.9736
-8.73064
-8.4802
-8.22335
-7.96123
-7.69507
-7.42613
-7.1557
-6.88506
-6.61545
-6.34807
-6.08402
-5.82429
-5.56972
-5.32105
-5.07881
-4.84339
-4.61499
-4.39366
-4.17929
-3.9716
-3.77023
-3.57469
-3.38441
-3.19881
-3.01729
-2.83928
-2.66429
-2.49194
-2.32198
-2.15433
-1.98911
-1.82663
-1.66739
-1.51209
-1.36155
-1.21671
-1.07856
-0.948051
-0.826052
-0.713284
-0.610259
-0.517259
-0.434303
-0.36119
-0.297452
-0.242553
-0.195597
-0.156088
-0.122495
-0.0953782
-0.0709997
-0.0546366
-0.0331764
-0.0314041
0.002991
-0.0349393
-11.2275
-11.2518
-11.2769
-11.3023
-11.3278
-11.3534
-11.3791
-11.4046
-11.4299
-11.4549
-11.4794
-11.5031
-11.5255
-11.5462
-11.5647
-11.5803
-11.5926
-11.6009
-11.6046
-11.6031
-11.5958
-11.5823
-11.562
-11.5344
-11.499
-11.4555
-11.4033
-11.342
-11.2714
-11.1908
-11.1002
-10.999
-10.887
-10.764
-10.6297
-10.4841
-10.3271
-10.1587
-9.97907
-9.78839
-9.58701
-9.37538
-9.15408
-8.92378
-8.68531
-8.43956
-8.18755
-7.93037
-7.66918
-7.40518
-7.13959
-6.87363
-6.60848
-6.34528
-6.08507
-5.82882
-5.57735
-5.33135
-5.09135
-4.85773
-4.63073
-4.4104
-4.19667
-3.9893
-3.78798
-3.59226
-3.40165
-3.21563
-3.03366
-2.85524
-2.67994
-2.50742
-2.33748
-2.17006
-2.00529
-1.84346
-1.68507
-1.53075
-1.38128
-1.23752
-1.10038
-0.970753
-0.849429
-0.737074
-0.634161
-0.54095
-0.457459
-0.383501
-0.318638
-0.262374
-0.213851
-0.172629
-0.137197
-0.108201
-0.0818233
-0.0636058
-0.0399216
-0.0367078
0.000790218
-0.0375904
-11.2165
-11.239
-11.2621
-11.2856
-11.3092
-11.3328
-11.3564
-11.3797
-11.4027
-11.4253
-11.4471
-11.468
-11.4874
-11.5051
-11.5204
-11.533
-11.5422
-11.5474
-11.5482
-11.5439
-11.534
-11.5181
-11.4955
-11.4659
-11.4287
-11.3835
-11.3299
-11.2676
-11.196
-11.1149
-11.0239
-10.9227
-10.811
-10.6886
-10.5554
-10.4111
-10.2558
-10.0895
-9.91228
-9.72442
-9.52622
-9.31811
-9.10064
-8.87448
-8.64037
-8.3992
-8.15192
-7.89955
-7.64322
-7.38403
-7.12317
-6.86179
-6.601
-6.34191
-6.0855
-5.83269
-5.58428
-5.34094
-5.1032
-4.87142
-4.64586
-4.42659
-4.21356
-4.00658
-3.80538
-3.60957
-3.41873
-3.23237
-3.05003
-2.87128
-2.69572
-2.52308
-2.3532
-2.18603
-2.02172
-1.86056
-1.70301
-1.54965
-1.40123
-1.25853
-1.12238
-0.993611
-0.872947
-0.760997
-0.658195
-0.564779
-0.480762
-0.405973
-0.339997
-0.282376
-0.232294
-0.18936
-0.152085
-0.121196
-0.0928049
-0.0727048
-0.0467773
-0.0420805
-0.00145459
-0.0402604
-11.2049
-11.2256
-11.2469
-11.2685
-11.2902
-11.3118
-11.3333
-11.3545
-11.3752
-11.3953
-11.4146
-11.4327
-11.4493
-11.464
-11.4764
-11.4859
-11.4922
-11.4945
-11.4924
-11.4854
-11.473
-11.4547
-11.4299
-11.3983
-11.3593
-11.3125
-11.2576
-11.1942
-11.1218
-11.0401
-10.9488
-10.8476
-10.7362
-10.6144
-10.4821
-10.3392
-10.1856
-10.0213
-9.84647
-9.66136
-9.46627
-9.2616
-9.04787
-8.82572
-8.59588
-8.35916
-8.11647
-7.8688
-7.61718
-7.3627
-7.10646
-6.84954
-6.59304
-6.33797
-6.08529
-5.83589
-5.59052
-5.34983
-5.11435
-4.88444
-4.66036
-4.4422
-4.22993
-4.02343
-3.82243
-3.62662
-3.43561
-3.24899
-3.06637
-2.88734
-2.7116
-2.53889
-2.3691
-2.20222
-2.03839
-1.87789
-1.72117
-1.56877
-1.42137
-1.2797
-1.14453
-1.0166
-0.896588
-0.785038
-0.682347
-0.588732
-0.5042
-0.428592
-0.361516
-0.30255
-0.250915
-0.206269
-0.167148
-0.134353
-0.103936
-0.0819244
-0.0537366
-0.0475138
-0.00374034
-0.0429429
-11.1926
-11.2118
-11.2313
-11.2511
-11.2709
-11.2905
-11.3099
-11.329
-11.3474
-11.3652
-11.3819
-11.3974
-11.4112
-11.4231
-11.4326
-11.4393
-11.4426
-11.4421
-11.4373
-11.4278
-11.4129
-11.3922
-11.3653
-11.3317
-11.2909
-11.2427
-11.1865
-11.1219
-11.0487
-10.9664
-10.8749
-10.7737
-10.6626
-10.5415
-10.4101
-10.2685
-10.1165
-9.95417
-9.78171
-9.59929
-9.40722
-9.20589
-8.99581
-8.77757
-8.55186
-8.31946
-8.08124
-7.83813
-7.59111
-7.3412
-7.08946
-6.83691
-6.58458
-6.33346
-6.08445
-5.8384
-5.59604
-5.358
-5.12478
-4.89677
-4.6742
-4.45721
-4.24578
-4.03981
-3.83909
-3.64336
-3.45227
-3.26548
-3.08264
-2.90341
-2.72754
-2.55482
-2.38516
-2.21859
-2.05525
-1.89542
-1.73952
-1.58807
-1.44168
-1.30103
-1.16681
-1.03971
-0.920333
-0.809177
-0.706601
-0.612795
-0.52776
-0.451346
-0.383184
-0.322884
-0.269704
-0.223347
-0.182376
-0.147663
-0.115207
-0.0912554
-0.0607933
-0.0529989
-0.00606466
-0.0456298
-11.1798
-11.1974
-11.2153
-11.2333
-11.2512
-11.2689
-11.2863
-11.3032
-11.3195
-11.3348
-11.3491
-11.362
-11.3733
-11.3824
-11.3892
-11.393
-11.3936
-11.3904
-11.383
-11.3709
-11.3536
-11.3307