/*--------------------------------*- C++ -*----------------------------------*\
  =========                 |
  \\      /  F ield         | OpenFOAM: The Open Source CFD Toolbox
   \\    /   O peration     | Website:  https://openfoam.org
    \\  /    A nd           | Version:  10
     \\/     M anipulation  |
\*---------------------------------------------------------------------------*/
FoamFile
{
    format      ascii;
    class       surfaceScalarField;
    location    "0.145";
    object      phi;
}
// * * * * * * * * * * * * * * * * * * * * * * * * * * * * * * * * * * * * * //

dimensions      [0 3 -1 0 0 0 0];

internalField   nonuniform List<scalar> 
13452
(
6.05771e-05
-3.08591e-07
6.03706e-05
2.0649e-07
5.98984e-05
4.72168e-07
5.92843e-05
6.1409e-07
5.86784e-05
6.05898e-07
5.81409e-05
5.37494e-07
5.76745e-05
4.66446e-07
5.7269e-05
4.05512e-07
5.6913e-05
3.55912e-07
5.65968e-05
3.16274e-07
5.63123e-05
2.84422e-07
5.6054e-05
2.58396e-07
5.58172e-05
2.36716e-07
5.55989e-05
2.18313e-07
5.53965e-05
2.02425e-07
5.5208e-05
1.88514e-07
5.50318e-05
1.76199e-07
5.48666e-05
1.65207e-07
5.47112e-05
1.55344e-07
5.45648e-05
1.46476e-07
5.44262e-05
1.3852e-07
5.42948e-05
1.31442e-07
5.41695e-05
1.25264e-07
5.40494e-05
1.20093e-07
5.39333e-05
1.16156e-07
5.38193e-05
1.13989e-07
5.37049e-05
1.14401e-07
5.35851e-05
1.19822e-07
5.34509e-05
1.34177e-07
5.32863e-05
1.64618e-07
5.30315e-05
2.54786e-07
5.2655e-05
3.76493e-07
7.51451e-07
5.19035e-05
6.18026e-05
-1.20866e-07
6.17624e-05
2.467e-07
6.18791e-05
3.55503e-07
6.20403e-05
4.52871e-07
6.21466e-05
4.99601e-07
6.21754e-05
5.08633e-07
6.21414e-05
5.0049e-07
6.20652e-05
4.81686e-07
6.19633e-05
4.57789e-07
6.1847e-05
4.32642e-07
6.17233e-05
4.08069e-07
6.15969e-05
3.84823e-07
6.14704e-05
3.63176e-07
6.13456e-05
3.43158e-07
6.12233e-05
3.24688e-07
6.11042e-05
3.07646e-07
6.09885e-05
2.91912e-07
6.08763e-05
2.77374e-07
6.07677e-05
2.63941e-07
6.06627e-05
2.51547e-07
6.0561e-05
2.40154e-07
6.04627e-05
2.29762e-07
6.03675e-05
2.20423e-07
6.02754e-05
2.1226e-07
6.0186e-05
2.05523e-07
6.00994e-05
2.00636e-07
6.00153e-05
1.98482e-07
5.9935e-05
2.00137e-07
5.98595e-05
2.09665e-07
5.97981e-05
2.26009e-07
5.97771e-05
2.75793e-07
5.98369e-05
3.16681e-07
4.84054e-07
6.01043e-05
6.36612e-05
-2.06674e-08
6.37527e-05
1.55235e-07
6.38146e-05
2.93613e-07
6.38671e-05
4.00306e-07
6.39099e-05
4.56785e-07
6.39413e-05
4.77241e-07
6.39615e-05
4.80353e-07
6.39688e-05
4.74344e-07
6.39638e-05
4.62831e-07
6.3948e-05
4.48374e-07
6.39236e-05
4.32492e-07
6.38924e-05
4.16055e-07
6.3856e-05
3.996e-07
6.38157e-05
3.83453e-07
6.37726e-05
3.67799e-07
6.37275e-05
3.52745e-07
6.3681e-05
3.38349e-07
6.36337e-05
3.24648e-07
6.3586e-05
3.1167e-07
6.35381e-05
2.99446e-07
6.34902e-05
2.88022e-07
6.34425e-05
2.77474e-07
6.3395e-05
2.67923e-07
6.33477e-05
2.59562e-07
6.33005e-05
2.52724e-07
6.32533e-05
2.47876e-07
6.32058e-05
2.46001e-07
6.3158e-05
2.47957e-07
6.31101e-05
2.57484e-07
6.3063e-05
2.73167e-07
6.30262e-05
3.12528e-07
6.29929e-05
3.50032e-07
4.48012e-07
6.30289e-05
6.55759e-05
-1.35063e-08
6.55536e-05
1.77589e-07
6.55642e-05
2.82935e-07
6.56049e-05
3.59662e-07
6.56537e-05
4.07913e-07
6.56986e-05
4.3237e-07
6.57359e-05
4.43089e-07
6.57652e-05
4.45004e-07
6.57872e-05
4.40871e-07
6.58026e-05
4.33004e-07
6.58122e-05
4.22897e-07
6.58168e-05
4.11439e-07
6.58172e-05
3.99216e-07
6.5814e-05
3.86622e-07
6.58079e-05
3.73926e-07
6.57993e-05
3.61314e-07
6.57887e-05
3.48924e-07
6.57765e-05
3.36864e-07
6.57629e-05
3.25225e-07
6.57483e-05
3.14098e-07
6.57327e-05
3.03582e-07
6.57164e-05
2.93803e-07
6.56994e-05
2.84932e-07
6.56817e-05
2.77204e-07
6.56635e-05
2.70985e-07
6.56446e-05
2.66754e-07
6.56252e-05
2.654e-07
6.56055e-05
2.67691e-07
6.55868e-05
2.76163e-07
6.55698e-05
2.90153e-07
6.55646e-05
3.17765e-07
6.5569e-05
3.45605e-07
3.91395e-07
6.56256e-05
6.74265e-05
1.67928e-08
6.74514e-05
1.5269e-07
6.74796e-05
2.5467e-07
6.75105e-05
3.28792e-07
6.75412e-05
3.77258e-07
6.75708e-05
4.02693e-07
6.75994e-05
4.1449e-07
6.76263e-05
4.18188e-07
6.76506e-05
4.16498e-07
6.76723e-05
4.11357e-07
6.76912e-05
4.04012e-07
6.77074e-05
3.95213e-07
6.77211e-05
3.85465e-07
6.77326e-05
3.75129e-07
6.77421e-05
3.6446e-07
6.77498e-05
3.53651e-07
6.77558e-05
3.42851e-07
6.77605e-05
3.32187e-07
6.7764e-05
3.21774e-07
6.77663e-05
3.11725e-07
6.77678e-05
3.02164e-07
6.77683e-05
2.93241e-07
6.77681e-05
2.85144e-07
6.77672e-05
2.78124e-07
6.77656e-05
2.72534e-07
6.77636e-05
2.68815e-07
6.77613e-05
2.67693e-07
6.77592e-05
2.69768e-07
6.77588e-05
2.76605e-07
6.77612e-05
2.87751e-07
6.77724e-05
3.06571e-07
6.77923e-05
3.25652e-07
3.48942e-07
6.78348e-05
6.93768e-05
2.40096e-08
6.93864e-05
1.43102e-07
6.94047e-05
2.36364e-07
6.94308e-05
3.02666e-07
6.94606e-05
3.47523e-07
6.94901e-05
3.73162e-07
6.95182e-05
3.86385e-07
6.95446e-05
3.91799e-07
6.95692e-05
3.9186e-07
6.95922e-05
3.88385e-07
6.96136e-05
3.82613e-07
6.96335e-05
3.75308e-07
6.9652e-05
3.66975e-07
6.96692e-05
3.57969e-07
6.96851e-05
3.48541e-07
6.96998e-05
3.38881e-07
6.97136e-05
3.29138e-07
6.97263e-05
3.19443e-07
6.97382e-05
3.09914e-07
6.97492e-05
3.00672e-07
6.97595e-05
2.91846e-07
6.97692e-05
2.8359e-07
6.97782e-05
2.76091e-07
6.97868e-05
2.69586e-07
6.97949e-05
2.64388e-07
6.98029e-05
2.60865e-07
6.9811e-05
2.59548e-07
6.98199e-05
2.60846e-07
6.9831e-05
2.65581e-07
6.98454e-05
2.7331e-07
6.9867e-05
2.84924e-07
6.98967e-05
2.96005e-07
3.05608e-07
6.994e-05
7.13593e-05
3.10401e-08
7.13709e-05
1.31466e-07
7.1392e-05
2.15322e-07
7.14179e-05
2.76769e-07
7.14455e-05
3.19924e-07
7.14725e-05
3.46167e-07
7.14984e-05
3.60488e-07
7.15232e-05
3.67015e-07
7.15468e-05
3.68177e-07
7.15695e-05
3.65735e-07
7.15912e-05
3.60912e-07
7.1612e-05
3.54484e-07
7.1632e-05
3.4697e-07
7.16513e-05
3.38731e-07
7.16698e-05
3.30025e-07
7.16876e-05
3.21042e-07
7.17048e-05
3.11937e-07
7.17214e-05
3.02837e-07
7.17375e-05
2.93863e-07
7.1753e-05
2.85133e-07
7.17681e-05
2.76775e-07
7.17827e-05
2.68934e-07
7.1797e-05
2.61783e-07
7.18111e-05
2.55528e-07
7.18251e-05
2.50423e-07
7.18392e-05
2.46748e-07
7.18539e-05
2.44853e-07
7.18698e-05
2.4496e-07
7.18879e-05
2.47392e-07
7.19096e-05
2.51658e-07
7.1937e-05
2.57536e-07
7.19708e-05
2.62204e-07
2.63659e-07
7.20127e-05
7.34033e-05
3.30026e-08
7.3414e-05
1.20799e-07
7.34326e-05
1.96674e-07
7.3456e-05
2.53428e-07
7.34818e-05
2.94108e-07
7.35079e-05
3.20071e-07
7.35333e-05
3.35047e-07
7.35578e-05
3.42508e-07
7.35813e-05
3.44662e-07
7.36039e-05
3.43129e-07
7.36258e-05
3.39089e-07
7.36469e-05
3.33331e-07
7.36675e-05
3.26396e-07
7.36876e-05
3.18664e-07
7.37072e-05
3.1041e-07
7.37264e-05
3.01837e-07
7.37452e-05
2.93105e-07
7.37637e-05
2.84347e-07
7.37819e-05
2.75683e-07
7.37998e-05
2.6723e-07
7.38175e-05
2.59109e-07
7.38349e-05
2.51451e-07
7.38523e-05
2.44406e-07
7.38697e-05
2.38142e-07
7.38873e-05
2.32852e-07
7.39053e-05
2.28723e-07
7.39242e-05
2.25953e-07
7.39446e-05
2.2461e-07
7.39672e-05
2.24706e-07
7.39932e-05
2.25722e-07
7.40237e-05
2.27019e-07
7.40592e-05
2.26691e-07
2.22907e-07
7.41e-05
7.55023e-05
3.32186e-08
7.55123e-05
1.10798e-07
7.55299e-05
1.79041e-07
7.5552e-05
2.31268e-07
7.55767e-05
2.69482e-07
7.56018e-05
2.94896e-07
7.56266e-05
3.10247e-07
7.56508e-05
3.18394e-07
7.56741e-05
3.21328e-07
7.56967e-05
3.20543e-07
7.57186e-05
3.1716e-07
7.574e-05
3.11959e-07
7.57609e-05
3.05489e-07
7.57814e-05
2.98145e-07
7.58016e-05
2.90215e-07
7.58215e-05
2.81914e-07
7.58412e-05
2.73411e-07
7.58607e-05
2.64843e-07
7.58801e-05
2.56333e-07
7.58993e-05
2.47993e-07
7.59185e-05
2.39936e-07
7.59377e-05
2.32279e-07
7.59569e-05
2.25145e-07
7.59764e-05
2.18662e-07
7.59963e-05
2.12962e-07
7.60169e-05
2.08155e-07
7.60385e-05
2.04317e-07
7.60617e-05
2.01404e-07
7.60871e-05
1.99258e-07
7.61155e-05
1.97365e-07
7.61475e-05
1.95008e-07
7.61833e-05
1.90859e-07
1.83543e-07
7.62227e-05
7.76607e-05
3.20845e-08
7.76703e-05
1.01229e-07
7.76867e-05
1.62596e-07
7.77074e-05
2.1056e-07
7.77307e-05
2.46243e-07
7.77549e-05
2.70712e-07
7.77791e-05
2.8604e-07
7.78029e-05
2.9457e-07
7.78261e-05
2.98067e-07
7.78488e-05
2.97881e-07
7.78709e-05
2.95051e-07
7.78925e-05
2.9033e-07
7.79138e-05
2.84262e-07
7.79347e-05
2.77246e-07
7.79553e-05
2.69579e-07
7.79757e-05
2.61483e-07
7.7996e-05
2.53133e-07
7.80162e-05
2.44672e-07
7.80363e-05
2.36221e-07
7.80564e-05
2.2789e-07
7.80766e-05
2.19781e-07
7.80968e-05
2.11995e-07
7.81174e-05
2.04629e-07
7.81382e-05
1.97776e-07
7.81597e-05
1.91512e-07
7.8182e-05
1.85882e-07
7.82054e-05
1.8088e-07
7.82304e-05
1.7639e-07
7.82575e-05
1.72173e-07
7.82871e-05
1.67756e-07
7.83196e-05
1.62485e-07
7.83551e-05
1.55425e-07
1.4563e-07
7.8393e-05
7.98802e-05
3.02208e-08
7.98893e-05
9.2139e-08
7.99046e-05
1.47251e-07
7.99241e-05
1.91093e-07
7.99461e-05
2.24186e-07
7.99694e-05
2.47441e-07
7.9993e-05
2.62449e-07
8.00165e-05
2.71106e-07
8.00396e-05
2.74954e-07
8.00623e-05
2.75201e-07
8.00845e-05
2.72802e-07
8.01064e-05
2.68472e-07
8.01279e-05
2.62738e-07
8.01491e-05
2.55997e-07
8.01702e-05
2.48545e-07
8.0191e-05
2.40609e-07
8.02118e-05
2.32367e-07
8.02325e-05
2.23961e-07
8.02532e-05
2.15512e-07
8.0274e-05
2.07122e-07
8.02949e-05
1.98886e-07
8.0316e-05
1.90885e-07
8.03374e-05
1.83193e-07
8.03593e-05
1.7587e-07
8.03819e-05
1.68951e-07
8.04054e-05
1.62431e-07
8.043e-05
1.56251e-07
8.04561e-05
1.50255e-07
8.04841e-05
1.44185e-07
8.05142e-05
1.37626e-07
8.05467e-05
1.30038e-07
8.05814e-05
1.20761e-07
1.09179e-07
8.06178e-05
8.21627e-05
2.79631e-08
8.21714e-05
8.34745e-08
8.21857e-05
1.32883e-07
8.22041e-05
1.72763e-07
8.2225e-05
2.0325e-07
8.22474e-05
2.25085e-07
8.22703e-05
2.39506e-07
8.22934e-05
2.48046e-07
8.23163e-05
2.52036e-07
8.23389e-05
2.5255e-07
8.23613e-05
2.50456e-07
8.23833e-05
2.46421e-07
8.24051e-05
2.40951e-07
8.24267e-05
2.34429e-07
8.24481e-05
2.27148e-07
8.24694e-05
2.19333e-07
8.24906e-05
2.11161e-07
8.25118e-05
2.02772e-07
8.2533e-05
1.94283e-07
8.25543e-05
1.85789e-07
8.25758e-05
1.77373e-07
8.25976e-05
1.69102e-07
8.26198e-05
1.61027e-07
8.26425e-05
1.5318e-07
8.26659e-05
1.45566e-07
8.26901e-05
1.38147e-07
8.27156e-05
1.30832e-07
8.27424e-05
1.23456e-07
8.27708e-05
1.1577e-07
8.2801e-05
1.07426e-07
8.2833e-05
9.80053e-08
8.28667e-05
8.7042e-08
7.41537e-08
8.29017e-05
8.45102e-05
2.55274e-08
8.45185e-05
7.52234e-08
8.45319e-05
1.19398e-07
8.45492e-05
1.55464e-07
8.45692e-05
1.83332e-07
8.45907e-05
2.03587e-07
8.4613e-05
2.17201e-07
8.46356e-05
2.25412e-07
8.46583e-05
2.29356e-07
8.46808e-05
2.29981e-07
8.47032e-05
2.28067e-07
8.47254e-05
2.24231e-07
8.47474e-05
2.18948e-07
8.47693e-05
2.12586e-07
8.4791e-05
2.05428e-07
8.48126e-05
1.97694e-07
8.48342e-05
1.89556e-07
8.48559e-05
1.81152e-07
8.48775e-05
1.7259e-07
8.48994e-05
1.63958e-07
8.49214e-05
1.55328e-07
8.49438e-05
1.46752e-07
8.49665e-05
1.38263e-07
8.49898e-05
1.29873e-07
8.50138e-05
1.21564e-07
8.50387e-05
1.13279e-07
8.50646e-05
1.04915e-07
8.50918e-05
9.63109e-08
8.51203e-05
8.7246e-08
8.51503e-05
7.74413e-08
8.51817e-05
6.658e-08
8.52144e-05
5.4341e-08
4.04972e-08
8.52481e-05
8.69247e-05
2.30421e-08
8.69325e-05
6.73661e-08
8.69452e-05
1.067e-07
8.69616e-05
1.39091e-07
8.69806e-05
1.64343e-07
8.70013e-05
1.82897e-07
8.70229e-05
1.95522e-07
8.70451e-05
2.03217e-07
8.70675e-05
2.06945e-07
8.709e-05
2.07534e-07
8.71124e-05
2.0568e-07
8.71347e-05
2.01945e-07
8.71568e-05
1.96774e-07
8.71789e-05
1.90511e-07
8.72009e-05
1.83428e-07
8.72229e-05
1.75735e-07
8.72448e-05
1.67599e-07
8.72668e-05
1.59149e-07
8.72889e-05
1.50487e-07
8.73112e-05
1.41693e-07
8.73337e-05
1.32827e-07
8.73565e-05
1.23928e-07
8.73798e-05
1.15017e-07
8.74036e-05
1.0609e-07
8.7428e-05
9.71153e-08
8.74533e-05
8.8027e-08
8.74794e-05
7.87218e-08
8.75067e-05
6.90542e-08
8.75351e-05
5.88385e-08
8.75647e-05
4.78572e-08
8.75954e-05
3.58792e-08
8.7627e-05
2.26864e-08
8.15444e-09
8.76594e-05
8.9408e-05
2.05807e-08
8.94155e-05
5.9883e-08
8.94275e-05
9.47017e-08
8.9443e-05
1.23554e-07
8.94612e-05
1.46198e-07
8.94811e-05
1.62958e-07
8.95022e-05
1.74443e-07
8.95239e-05
1.8146e-07
8.95461e-05
1.84818e-07
8.95684e-05
1.85235e-07
8.95907e-05
1.83328e-07
8.96131e-05
1.79603e-07
8.96354e-05
1.74468e-07
8.96576e-05
1.68246e-07
8.96799e-05
1.61191e-07
8.97021e-05
1.53502e-07
8.97244e-05
1.45336e-07
8.97467e-05
1.36815e-07
8.97691e-05
1.28033e-07
8.97918e-05
1.1906e-07
8.98147e-05
1.09948e-07
8.98379e-05
1.00725e-07
8.98615e-05
9.14011e-08
8.98856e-05
8.19631e-08
8.99103e-05
7.23723e-08
8.99358e-05
6.25625e-08
8.99621e-05
5.24376e-08
8.99893e-05
4.18725e-08
9.00174e-05
3.07176e-08
9.00464e-05
1.88085e-08
9.00763e-05
5.98149e-09
9.01069e-05
-7.90761e-09
-2.29159e-08
9.0138e-05
9.19623e-05
1.81825e-08
9.19694e-05
5.27514e-08
9.19808e-05
8.33271e-08
9.19956e-05
1.08764e-07
9.20129e-05
1.28816e-07
9.20322e-05
1.43712e-07
9.20527e-05
1.53934e-07
9.2074e-05
1.60133e-07
9.20959e-05
1.62984e-07
9.2118e-05
1.63106e-07
9.21403e-05
1.6104e-07
9.21626e-05
1.57237e-07
9.2185e-05
1.52068e-07
9.22074e-05
1.4583e-07
9.22299e-05
1.38758e-07
9.22523e-05
1.31038e-07
9.22749e-05
1.22816e-07
9.22975e-05
1.14203e-07
9.23202e-05
1.05287e-07
9.23432e-05
9.61293e-08
9.23663e-05
8.67714e-08
9.23898e-05
7.72354e-08
9.24137e-05
6.75234e-08
9.2438e-05
5.76171e-08
9.24629e-05
4.74763e-08
9.24885e-05
3.70391e-08
9.25147e-05
2.62217e-08
9.25416e-05
1.49207e-08
9.25693e-05
3.0205e-09
9.25977e-05
-9.59943e-09
9.26268e-05
-2.30509e-08
9.26563e-05
-3.74254e-08
-5.27364e-08
9.26861e-05
9.45895e-05
1.5866e-08
9.45963e-05
4.59464e-08
9.46071e-05
7.25067e-08
9.46212e-05
9.46434e-08
9.46379e-05
1.12123e-07
9.46565e-05
1.25103e-07
9.46765e-05
1.3396e-07
9.46974e-05
1.3922e-07
9.4719e-05
1.41443e-07
9.47409e-05
1.41159e-07
9.47631e-05
1.38836e-07
9.47855e-05
1.34874e-07
9.48079e-05
1.29606e-07
9.48305e-05
1.23299e-07
9.4853e-05
1.16169e-07
9.48757e-05
1.08387e-07
9.48984e-05
1.00086e-07
9.49213e-05
9.13693e-08
9.49442e-05
8.23129e-08
9.49674e-05
7.29717e-08
9.49908e-05
6.33803e-08
9.50145e-05
5.35544e-08
9.50385e-05
4.3492e-08
9.50629e-05
3.31728e-08
9.50879e-05
2.25591e-08
9.51133e-05
1.15959e-08
9.51393e-05
2.15105e-10
9.51659e-05
-1.16679e-08
9.51931e-05
-2.41367e-08
9.52207e-05
-3.72771e-08
9.52488e-05
-5.11617e-08
9.52773e-05
-6.58446e-08
-8.1311e-08
9.53058e-05
9.72917e-05
1.36371e-08
9.72983e-05
3.94414e-08
9.73086e-05
6.21783e-08
9.73221e-05
8.11189e-08
9.73382e-05
9.60499e-08
9.73562e-05
1.07073e-07
9.73757e-05
1.14483e-07
9.73962e-05
1.18701e-07
9.74175e-05
1.20191e-07
9.74392e-05
1.19401e-07
9.74613e-05
1.16733e-07
9.74837e-05
1.12538e-07
9.75062e-05
1.07109e-07
9.75288e-05
1.00685e-07
9.75515e-05
9.34621e-08
9.75743e-05
8.55927e-08
9.75972e-05
7.71976e-08
9.76202e-05
6.83686e-08
9.76433e-05
5.9174e-08
9.76666e-05
4.96607e-08
9.76901e-05
3.98576e-08
9.77139e-05
2.97761e-08
9.7738e-05
1.94119e-08
9.77624e-05
8.74552e-09
9.77872e-05
-2.25626e-09
9.78125e-05
-1.36391e-08
9.78381e-05
-2.54581e-08
9.78642e-05
-3.77752e-08
9.78908e-05
-5.06518e-08
9.79176e-05
-6.41442e-08
9.79448e-05
-7.82962e-08
9.79721e-05
-9.31353e-08
-1.08629e-07
9.79994e-05
0.000100071
1.14945e-08
0.000100077
3.3209e-08
0.000100087
5.22858e-08
0.0001001
6.81236e-08
0.000100116
8.05307e-08
0.000100133
8.95678e-08
0.000100152
9.54626e-08
0.000100173
9.85524e-08
0.000100194
9.92178e-08
0.000100215
9.78333e-08
0.000100237
9.47425e-08
0.000100259
9.02473e-08
0.000100282
8.46033e-08
0.000100305
7.80219e-08
0.000100327
7.06748e-08
0.00010035
6.26984e-08
0.000100373
5.41992e-08
0.000100396
4.52584e-08
0.00010042
3.59353e-08
0.000100443
2.62701e-08
0.000100467
1.62864e-08
0.00010049
5.99297e-09
0.000100514
-4.61525e-09
0.000100539
-1.55554e-08
0.000100563
-2.6855e-08
0.000100588
-3.85501e-08
0.000100613
-5.06826e-08
0.000100639
-6.32964e-08
0.000100665
-7.6433e-08
0.000100691
-9.01266e-08
0.000100717
-1.04399e-07
0.000100743
-1.1926e-07
-1.34665e-07
0.000100769
0.00010293
9.43303e-09
0.000102936
2.7222e-08
0.000102946
4.2778e-08
0.000102958
5.55961e-08
0.000102973
6.55041e-08
0.00010299
7.25339e-08
0.000103009
7.68588e-08
0.000103029
7.87471e-08
0.000103049
7.85085e-08
0.000103071
7.64535e-08
0.000103093
7.28708e-08
0.000103115
6.80171e-08
0.000103137
6.21117e-08
0.00010316
5.53373e-08
0.000103183
4.78427e-08
0.000103206
3.97463e-08
0.000103229
3.11406e-08
0.000103252
2.20955e-08
0.000103275
1.26616e-08
0.000103299
2.87287e-09
0.000103322
-7.25149e-09
0.000103346
-1.77049e-08
0.00010337
-2.84919e-08
0.000103394
-3.96264e-08
0.000103418
-5.11301e-08
0.000103443
-6.30298e-08
0.000103467
-7.53553e-08
0.000103492
-8.81356e-08
0.000103517
-1.01396e-07
0.000103542
-1.15154e-07
0.000103567
-1.29416e-07
0.000103592
-1.44178e-07
-1.59389e-07
0.000103617
0.000105871
7.44579e-09
0.000105876
2.14535e-08
0.000105886
3.36083e-08
0.000105898
4.3479e-08
0.000105912
5.09118e-08
0.000105929
5.5918e-08
0.000105947
5.8628e-08
0.000105967
5.92534e-08
0.000105987
5.80437e-08
0.000106008
5.52528e-08
0.00010603
5.11195e-08
0.000106052
4.58581e-08
0.000106075
3.96528e-08
0.000106097
3.26579e-08
0.00010612
2.49994e-08
0.000106143
1.67775e-08
0.000106166
8.07013e-09
0.000106189
-1.06395e-09
0.000106213
-1.05829e-08
0.000106236
-2.04589e-08
0.000106259
-3.06765e-08
0.000106283
-4.12307e-08
0.000106307
-5.2125e-08
0.00010633
-6.33704e-08
0.000106354
-7.49823e-08
0.000106378
-8.69796e-08
0.000106402
-9.93814e-08
0.000106426
-1.12205e-07
0.00010645
-1.25463e-07
0.000106474
-1.39159e-07
0.000106498
-1.5329e-07
0.000106522
-1.67843e-07
-1.82762e-07
0.000106545
0.000108895
5.52507e-09
0.000108901
1.58781e-08
0.00010891
2.47339e-08
0.000108922
3.17198e-08
0.000108936
3.66987e-08
0.000108952
3.96686e-08
0.00010897
4.07264e-08
0.000108989
4.00372e-08
0.000109009
3.77995e-08
0.00010903
3.42175e-08
0.000109052
2.94845e-08
0.000109074
2.37751e-08
0.000109097
1.72397e-08
0.000109119
1.00052e-08
0.000109142
2.17422e-09
0.000109165
-6.17091e-09
0.000109188
-1.49672e-08
0.000109211
-2.41672e-08
0.000109234
-3.37378e-08
0.000109257
-4.3657e-08
0.000109281
-5.39132e-08
0.000109304
-6.45027e-08
0.000109327
-7.54281e-08
0.000109351
-8.66971e-08
0.000109374
-9.83203e-08
0.000109397
-1.10309e-07
0.000109421
-1.22675e-07
0.000109444
-1.35424e-07
0.000109467
-1.4856e-07
0.00010949
-1.62079e-07
0.000109512
-1.75968e-07
0.000109535
-1.90207e-07
-2.04742e-07
0.000109557
0.000112006
3.66275e-09
0.000112012
1.04712e-08
0.00011202
1.61142e-08
0.000112032
2.02668e-08
0.000112046
2.28084e-08
0.000112062
2.37302e-08
0.000112079
2.3104e-08
0.000112098
2.10573e-08
0.000112118
1.77452e-08
0.000112139
1.33276e-08
0.000112161
7.9561e-09
0.000112183
1.7688e-09
0.000112205
-5.11748e-09
0.000112228
-1.26022e-08
0.00011225
-2.06053e-08
0.000112273
-2.90633e-08
0.000112296
-3.79277e-08
0.000112319
-4.7163e-08
0.000112342
-5.67442e-08
0.000112365
-6.66559e-08
0.000112388
-7.68899e-08
0.000112411
-8.74438e-08
0.000112434
-9.832e-08
0.000112457
-1.09523e-07
0.00011248
-1.2106e-07
0.000112502
-1.32936e-07
0.000112525
-1.45156e-07
0.000112547
-1.57719e-07
0.000112569
-1.70622e-07
0.000112591
-1.83853e-07
0.000112612
-1.97394e-07
0.000112633
-2.11224e-07
-2.25286e-07
0.000112654
0.000115206
1.85311e-09
0.000115212
5.21315e-09
0.00011522
7.71682e-09
0.000115231
9.07834e-09
0.000115245
9.1939e-09
0.00011526
8.05439e-09
0.000115278
5.71428e-09
0.000115297
2.27058e-09
0.000115316
-2.15699e-09
0.000115337
-7.4467e-09
0.000115359
-1.34869e-08
0.000115381
-2.01745e-08
0.000115403
-2.74225e-08
0.000115426
-3.51583e-08
0.000115448
-4.33243e-08
0.000115471
-5.18756e-08
0.000115494
-6.07787e-08
0.000115517
-7.00098e-08
0.00011554
-7.9553e-08
0.000115562
-8.9399e-08
0.000115585
-9.95434e-08
0.000115607
-1.09986e-07
0.00011563
-1.20729e-07
0.000115652
-1.31774e-07
0.000115674
-1.43127e-07
0.000115696
-1.54787e-07
0.000115718
-1.66754e-07
0.000115739
-1.79024e-07
0.00011576
-1.91586e-07
0.000115781
-2.04425e-07
0.000115801
-2.17521e-07
0.00011582
-2.3085e-07
-2.44354e-07
0.000115839
0.000118498
8.47219e-11
0.000118503
7.7948e-11
0.000118511
-5.02598e-10
0.000118522
-1.9055e-09
0.000118535
-4.2134e-09
0.000118551
-7.42847e-09
0.000118568
-1.15069e-08
0.000118587
-1.63749e-08
0.000118607
-2.19459e-08
0.000118627
-2.81342e-08
0.000118649
-3.48618e-08
0.00011867
-4.20596e-08
0.000118693
-4.96709e-08
0.000118715
-5.76498e-08
0.000118738
-6.59609e-08
0.000118761
-7.45781e-08
0.000118783
-8.34831e-08
0.000118806
-9.26641e-08
0.000118828
-1.02114e-07
0.000118851
-1.11831e-07
0.000118873
-1.21814e-07
0.000118895
-1.32065e-07
0.000118917
-1.42588e-07
0.000118939
-1.53383e-07
0.00011896
-1.64453e-07
0.000118981
-1.75796e-07
0.000119002
-1.87408e-07
0.000119022
-1.99279e-07
0.000119042
-2.11398e-07
0.000119061
-2.23747e-07
0.00011908
-2.36303e-07
0.000119098
-2.4904e-07
-2.61904e-07
0.000119116
0.000121883
-1.63273e-09
0.000121888
-4.92722e-09
0.000121896
-8.53605e-09
0.000121907
-1.26873e-08
0.00012192
-1.74337e-08
0.000121935
-2.27588e-08
0.000121952
-2.86175e-08
0.000121971
-3.4951e-08
0.000121991
-4.16992e-08
0.000122012
-4.88088e-08
0.000122033
-5.62354e-08
0.000122055
-6.3944e-08
0.000122077
-7.1908e-08
0.000122099
-8.01086e-08
0.000122122
-8.85337e-08
0.000122145
-9.71765e-08
0.000122167
-1.06034e-07
0.00012219
-1.15108e-07
0.000122212
-1.244e-07
0.000122234
-1.33915e-07
0.000122256
-1.43657e-07
0.000122277
-1.53633e-07
0.000122299
-1.63844e-07
0.00012232
-1.74294e-07
0.00012234
-1.84983e-07
0.00012236
-1.95907e-07
0.00012238
-2.07061e-07
0.000122399
-2.18434e-07
0.000122418
-2.30011e-07
0.000122436
-2.41773e-07
0.000122453
-2.53697e-07
0.00012247
-2.65759e-07
-2.77906e-07
0.000122486
0.000125365
-3.34984e-09
0.00012537
-9.88461e-09
0.000125378
-1.64994e-08
0.000125389
-2.33943e-08
0.000125402
-3.05832e-08
0.000125417
-3.80263e-08
0.000125434
-4.56766e-08
0.000125453
-5.34887e-08
0.000125473
-6.14259e-08
0.000125493
-6.94645e-08
0.000125515
-7.75921e-08
0.000125536
-8.58053e-08
0.000125559
-9.41071e-08
0.000125581
-1.02506e-07
0.000125603
-1.11011e-07
0.000125626
-1.19638e-07
0.000125648
-1.28397e-07
0.000125671
-1.37304e-07
0.000125692
-1.46371e-07
0.000125714
-1.5561e-07
0.000125736
-1.65032e-07
0.000125757
-1.74644e-07
0.000125777
-1.84453e-07
0.000125797
-1.94463e-07
0.000125817
-2.04672e-07
0.000125836
-2.15079e-07
0.000125855
-2.25675e-07
0.000125873
-2.3645e-07
0.00012589
-2.47389e-07
0.000125907
-2.58472e-07
0.000125923
-2.69676e-07
0.000125938
-2.80977e-07
-2.92327e-07
0.000125953
0.000128947
-4.90765e-09
0.000128951
-1.45663e-08
0.000128959
-2.41656e-08
0.000128969
-3.38819e-08
0.000128983
-4.36381e-08
0.000128998
-5.3324e-08
0.000129015
-6.28645e-08
0.000129034
-7.22186e-08
0.000129054
-8.13749e-08
0.000129075
-9.03447e-08
0.000129096
-9.91539e-08
0.000129118
-1.07836e-07
0.000129141
-1.16428e-07
0.000129163
-1.24966e-07
0.000129185
-1.33488e-07
0.000129208
-1.42027e-07
0.00012923
-1.50612e-07
0.000129252
-1.59272e-07
0.000129274
-1.68029e-07
0.000129295
-1.76903e-07
0.000129316
-1.85911e-07
0.000129336
-1.95065e-07
0.000129356
-2.04375e-07
0.000129376
-2.13844e-07
0.000129394
-2.23475e-07
0.000129413
-2.33264e-07
0.00012943
-2.43204e-07
0.000129447
-2.53284e-07
0.000129463
-2.63491e-07
0.000129478
-2.73805e-07
0.000129493
-2.84205e-07
0.000129507
-2.94668e-07
-3.0515e-07
0.000129519
0.000132631
-6.78551e-09
0.000132636
-1.95454e-08
0.000132644
-3.2049e-08
0.000132654
-4.4472e-08
0.000132667
-5.66961e-08
0.000132683
-6.85649e-08
0.0001327
-7.99763e-08
0.000132718
-9.08805e-08
0.000132738
-1.01276e-07
0.000132759
-1.11198e-07
0.000132781
-1.20702e-07
0.000132803
-1.29856e-07
0.000132825
-1.38728e-07
0.000132848
-1.47384e-07
0.00013287
-1.55887e-07
0.000132892
-1.64291e-07
0.000132914
-1.72645e-07
0.000132936
-1.8099e-07
0.000132957
-1.89363e-07
0.000132978
-1.97791e-07
0.000132999
-2.06298e-07
0.000133018
-2.14902e-07
0.000133038
-2.23616e-07
0.000133056
-2.32448e-07
0.000133074
-2.414e-07
0.000133091
-2.50472e-07
0.000133108
-2.59658e-07
0.000133123
-2.68948e-07
0.000133138
-2.78328e-07
0.000133152
-2.87783e-07
0.000133165
-2.97291e-07
0.000133178
-3.06833e-07
-3.16367e-07
0.000133189
0.000136419
-7.5481e-09
0.000136423
-2.32936e-08
0.00013643
-3.90633e-08
0.00013644
-5.48296e-08
0.000136454
-7.00938e-08
0.00013647
-8.4525e-08
0.000136488
-9.79965e-08
0.000136507
-1.10498e-07
0.000136528
-1.22088e-07
0.00013655
-1.32862e-07
0.000136572
-1.42935e-07
0.000136594
-1.52422e-07
0.000136617
-1.61434e-07
0.00013664
-1.70071e-07
0.000136662
-1.78422e-07
0.000136685
-1.86566e-07
0.000136707
-1.94567e-07
0.000136728
-2.02483e-07
0.000136749
-2.10358e-07
0.000136769
-2.1823e-07
0.000136789
-2.26129e-07
0.000136808
-2.34078e-07
0.000136827
-2.42093e-07
0.000136845
-2.50185e-07
0.000136862
-2.58359e-07
0.000136878
-2.66616e-07
0.000136893
-2.74952e-07
0.000136908
-2.83359e-07
0.000136921
-2.91826e-07
0.000136934
-3.00339e-07
0.000136945
-3.08879e-07
0.000136956
-3.17428e-07
-3.25951e-07
0.000136965
0.000140319
-1.08675e-08
0.000140325
-2.89188e-08
0.000140333
-4.68699e-08
0.000140343
-6.494e-08
0.000140355
-8.26685e-08
0.00014037
-9.94988e-08
0.000140387
-1.15109e-07
0.000140406
-1.29391e-07
0.000140426
-1.42382e-07
0.000140448
-1.54198e-07
0.00014047
-1.64991e-07
0.000140492
-1.74921e-07
0.000140515
-1.84141e-07
0.000140538
-1.92789e-07
0.00014056
-2.00988e-07
0.000140583
-2.08844e-07
0.000140605
-2.16445e-07
0.000140626
-2.23864e-07
0.000140647
-2.31163e-07
0.000140667
-2.38391e-07
0.000140686
-2.45586e-07
0.000140705
-2.52778e-07
0.000140723
-2.59989e-07
0.00014074
-2.67235e-07
0.000140756
-2.74525e-07
0.000140771
-2.81862e-07
0.000140786
-2.89245e-07
0.000140799
-2.96669e-07
0.000140811
-3.04126e-07
0.000140823
-3.11602e-07
0.000140833
-3.19083e-07
0.000140842
-3.26554e-07
-3.33981e-07
0.00014085
0.000144322
-7.89137e-09
0.000144322
-2.96517e-08
0.000144328
-5.2866e-08
0.00014434
-7.62429e-08
0.000144355
-9.8146e-08
0.000144374
-1.17965e-07
0.000144394
-1.35651e-07
0.000144416
-1.51337e-07
0.000144439
-1.65232e-07
0.000144462
-1.77575e-07
0.000144486
-1.88605e-07
0.00014451
-1.98549e-07
0.000144533
-2.07609e-07
0.000144556
-2.15958e-07
0.000144579
-2.23744e-07
0.000144601
-2.31093e-07
0.000144623
-2.38107e-07
0.000144644
-2.44871e-07
0.000144664
-2.51454e-07
0.000144684
-2.57912e-07
0.000144702
-2.6429e-07
0.00014472
-2.70621e-07
0.000144737
-2.76931e-07
0.000144753
-2.83238e-07
0.000144768
-2.89555e-07
0.000144782
-2.95887e-07
0.000144795
-3.02237e-07
0.000144807
-3.08602e-07
0.000144818
-3.14974e-07
0.000144828
-3.21346e-07
0.000144836
-3.27705e-07
0.000144844
-3.34039e-07
-3.40318e-07
0.00014485
0.000148457
-1.66914e-08
0.000148463
-3.63002e-08
0.000148469
-5.8202e-08
0.000148475
-8.29137e-08
0.000148485
-1.07995e-07
0.000148499
-1.31455e-07
0.000148515
-1.52363e-07
0.000148535
-1.70601e-07
0.000148556
-1.86399e-07
0.000148578
-2.00065e-07
0.000148602
-2.1193e-07
0.000148625
-2.22309e-07
0.000148649
-2.31481e-07
0.000148673
-2.39688e-07
0.000148696
-2.47128e-07
0.000148719
-2.5397e-07
0.000148742
-2.60349e-07
0.000148763
-2.66375e-07
0.000148784
-2.72136e-07
0.000148804
-2.77703e-07
0.000148822
-2.83131e-07
0.00014884
-2.88464e-07
0.000148857
-2.93735e-07
0.000148873
-2.98966e-07
0.000148887
-3.04176e-07
0.000148901
-3.09374e-07
0.000148913
-3.14565e-07
0.000148924
-3.1975e-07
0.000148934
-3.24926e-07
0.000148943
-3.30086e-07
0.000148951
-3.35222e-07
0.000148957
-3.40324e-07
-3.45369e-07
0.000148962
0.000152671
1.48518e-09
0.000152666
-3.12329e-08
0.000152674
-6.61565e-08
0.000152692
-1.00708e-07
0.000152714
-1.30703e-07
0.000152739
-1.56399e-07
0.000152765
-1.7824e-07
0.000152791
-1.96755e-07
0.000152817
-2.12453e-07
0.000152843
-2.25786e-07
0.000152868
-2.37178e-07
0.000152893
-2.46995e-07
0.000152917
-2.5554e-07
0.00015294
-2.63064e-07
0.000152963
-2.69774e-07
0.000152985
-2.75839e-07
0.000153006
-2.81396e-07
0.000153026
-2.86556e-07
0.000153045
-2.9141e-07
0.000153064
-2.96029e-07
0.000153081
-3.0047e-07
0.000153097
-3.04779e-07
0.000153113
-3.08991e-07
0.000153127
-3.13131e-07
0.00015314
-3.17219e-07
0.000153152
-3.21268e-07
0.000153163
-3.25285e-07
0.000153172
-3.29275e-07
0.00015318
-3.33237e-07
0.000153187
-3.37167e-07
0.000153193
-3.4106e-07
0.000153198
-3.44908e-07
-3.48693e-07
0.000153201
0.000157077
-2.41165e-08
0.000157076
-3.03101e-08
0.000157063
-5.3299e-08
0.000157055
-9.21413e-08
0.000157056
-1.31666e-07
0.000157066
-1.66727e-07
0.000157083
-1.95227e-07
0.000157104
-2.18259e-07
0.000157129
-2.36927e-07
0.000157155
-2.52058e-07
0.000157182
-2.64377e-07
0.00015721
-2.74485e-07
0.000157237
-2.82865e-07
0.000157264
-2.89898e-07
0.00015729
-2.95885e-07
0.000157315
-3.01061e-07
0.00015734
-3.0561e-07
0.000157363
-3.09676e-07
0.000157385
-3.13372e-07
0.000157405
-3.16785e-07
0.000157425
-3.19984e-07
0.000157443
-3.23021e-07
0.00015746
-3.25938e-07
0.000157476
-3.28764e-07
0.00015749
-3.31523e-07
0.000157503
-3.3423e-07
0.000157515
-3.36896e-07
0.000157525
-3.39527e-07
0.000157534
-3.42125e-07
0.000157541
-3.44692e-07
0.000157548
-3.47223e-07
0.000157552
-3.49718e-07
-3.52159e-07
0.000157556
0.00016147
4.46758e-08
0.000161456
-1.65238e-08
0.000161492
-8.9337e-08
0.000161535
-1.34927e-07
0.000161577
-1.73535e-07
0.000161613
-2.03352e-07
0.000161646
-2.27726e-07
0.000161675
-2.47865e-07
0.000161703
-2.64315e-07
0.000161728
-2.77776e-07
0.000161753
-2.88864e-07
0.000161776
-2.98043e-07
0.000161799
-3.05679e-07
0.000161821
-3.12073e-07
0.000161843
-3.17466e-07
0.000161864
-3.22051e-07
0.000161884
-3.25984e-07
0.000161904
-3.2939e-07
0.000161923
-3.32371e-07
0.000161941
-3.35009e-07
0.000161959
-3.37369e-07
0.000161975
-3.39505e-07
0.000161991
-3.41458e-07
0.000162005
-3.43264e-07
0.000162019
-3.44949e-07
0.000162031
-3.46532e-07
0.000162042
-3.48031e-07
0.000162052
-3.49455e-07
0.000162061
-3.50811e-07
0.000162068
-3.52104e-07
0.000162074
-3.53334e-07
0.000162079
-3.54499e-07
-3.55595e-07
0.000162082
0.00016619
7.78852e-09
0.000166126
4.74596e-08
0.000166046
-8.80308e-09
0.00016599
-7.85617e-08
0.000165977
-1.60505e-07
0.00016599
-2.16304e-07
0.000166018
-2.55895e-07
0.000166054
-2.84351e-07
0.000166095
-3.05402e-07
0.000166139
-3.2123e-07
0.000166183
-3.33223e-07
0.000166227
-3.42373e-07
0.000166271
-3.49393e-07
0.000166314
-3.54793e-07
0.000166355
-3.58948e-07
0.000166395
-3.62135e-07
0.000166434
-3.64563e-07
0.000166471
-3.6639e-07
0.000166506
-3.6774e-07
0.00016654
-3.68709e-07
0.000166572
-3.69371e-07
0.000166602
-3.69786e-07
0.000166631