/*--------------------------------*- C++ -*----------------------------------*\
  =========                 |
  \\      /  F ield         | OpenFOAM: The Open Source CFD Toolbox
   \\    /   O peration     | Website:  https://openfoam.org
    \\  /    A nd           | Version:  10
     \\/     M anipulation  |
\*---------------------------------------------------------------------------*/
FoamFile
{
    format      ascii;
    class       volVectorField;
    location    "0.145";
    object      U;
}
// * * * * * * * * * * * * * * * * * * * * * * * * * * * * * * * * * * * * * //

dimensions      [0 1 -1 0 0 0 0];

internalField   nonuniform List<vector> 
6820
(
(7.33663 -0.254711 0)
(7.37113 -0.152746 0)
(7.32905 -0.0594725 0)
(7.25222 -0.0117252 0)
(7.17487 0.00795887 0)
(7.10507 0.0139591 0)
(7.04408 0.0144437 0)
(6.99131 0.0130631 0)
(6.94529 0.0113086 0)
(6.90464 0.00972737 0)
(6.86828 0.00845968 0)
(6.83539 0.00749269 0)
(6.80536 0.00677002 0)
(6.77776 0.00623229 0)
(6.75222 0.00582985 0)
(6.72848 0.00552495 0)
(6.70632 0.0052901 0)
(6.68558 0.00510596 0)
(6.66611 0.00495942 0)
(6.64777 0.00484204 0)
(6.63045 0.00474909 0)
(6.61405 0.0046792 0)
(6.59846 0.00463458 0)
(6.58356 0.00462244 0)
(6.56922 0.00465721 0)
(6.55528 0.00476874 0)
(6.54147 0.00501817 0)
(6.52742 0.00548584 0)
(6.51221 0.00669847 0)
(6.49485 0.00792204 0)
(6.47151 0.016261 0)
(6.43229 0.0181284 0)
(6.38722 0.0420282 0)
(7.32387 0.121385 0)
(7.3044 0.123269 0)
(7.30896 0.0779561 0)
(7.3292 0.0527723 0)
(7.3473 0.0391679 0)
(7.35538 0.0313569 0)
(7.35443 0.026898 0)
(7.34736 0.0241444 0)
(7.33646 0.0222387 0)
(7.3233 0.0207894 0)
(7.30894 0.0196009 0)
(7.29405 0.0185731 0)
(7.27903 0.0176554 0)
(7.26413 0.0168215 0)
(7.24949 0.0160567 0)
(7.2352 0.0153518 0)
(7.2213 0.0147006 0)
(7.20782 0.014099 0)
(7.19476 0.0135441 0)
(7.18212 0.0130345 0)
(7.1699 0.0125704 0)
(7.15807 0.012154 0)
(7.14663 0.0117913 0)
(7.13555 0.0114937 0)
(7.12482 0.0112814 0)
(7.1144 0.0111974 0)
(7.10433 0.0113026 0)
(7.09445 0.0117886 0)
(7.0855 0.0128255 0)
(7.07611 0.0153654 0)
(7.07268 0.0202792 0)
(7.06794 0.0308695 0)
(7.09628 0.0565141 0)
(7.32565 -0.0437942 0)
(7.32325 -0.0517392 0)
(7.33518 -0.0262119 0)
(7.34303 -0.00273796 0)
(7.34798 0.0104037 0)
(7.35219 0.0168466 0)
(7.35523 0.0199097 0)
(7.35681 0.021187 0)
(7.35691 0.0215204 0)
(7.35566 0.0213828 0)
(7.3533 0.0210214 0)
(7.35005 0.0205627 0)
(7.34612 0.0200726 0)
(7.34168 0.019584 0)
(7.33686 0.0191122 0)
(7.33176 0.0186637 0)
(7.32648 0.0182409 0)
(7.32108 0.0178445 0)
(7.31561 0.0174748 0)
(7.31011 0.0171331 0)
(7.30459 0.0168216 0)
(7.29909 0.016545 0)
(7.29362 0.0163112 0)
(7.28817 0.0161336 0)
(7.28274 0.0160354 0)
(7.27731 0.0160495 0)
(7.27188 0.0162536 0)
(7.26636 0.0166951 0)
(7.26094 0.017743 0)
(7.25522 0.019046 0)
(7.25055 0.0227375 0)
(7.24586 0.0245411 0)
(7.24494 0.0327731 0)
(7.33338 0.0117852 0)
(7.33035 0.0329064 0)
(7.32956 0.0333321 0)
(7.33258 0.0276169 0)
(7.33802 0.0242218 0)
(7.34357 0.0227386 0)
(7.34821 0.0221692 0)
(7.35192 0.0219334 0)
(7.35478 0.0217748 0)
(7.35685 0.0216112 0)
(7.35822 0.0214171 0)
(7.359 0.0211868 0)
(7.35926 0.0209241 0)
(7.35909 0.0206362 0)
(7.35856 0.0203307 0)
(7.35772 0.0200147 0)
(7.35664 0.0196943 0)
(7.35536 0.0193754 0)
(7.35391 0.0190636 0)
(7.35233 0.0187647 0)
(7.35064 0.0184857 0)
(7.34885 0.0182357 0)
(7.34698 0.0180274 0)
(7.34505 0.017879 0)
(7.34304 0.0178192 0)
(7.34096 0.0178886 0)
(7.33883 0.0181625 0)
(7.33661 0.0187217 0)
(7.33448 0.0198001 0)
(7.33234 0.0214284 0)
(7.33103 0.0244571 0)
(7.33069 0.0279793 0)
(7.33319 0.0344393 0)
(7.33122 -0.00352586 0)
(7.33004 -0.0043382 0)
(7.3336 0.0012526 0)
(7.3372 0.00869487 0)
(7.3405 0.0140529 0)
(7.3438 0.0170501 0)
(7.34699 0.0186788 0)
(7.35001 0.019582 0)
(7.35281 0.0200641 0)
(7.35532 0.0202957 0)
(7.35752 0.0203725 0)
(7.35942 0.0203478 0)
(7.36105 0.0202548 0)
(7.36241 0.020115 0)
(7.36355 0.0199432 0)
(7.36447 0.0197498 0)
(7.36522 0.019543 0)
(7.3658 0.0193295 0)
(7.36623 0.0191158 0)
(7.36655 0.0189087 0)
(7.36675 0.0187161 0)
(7.36686 0.0185484 0)
(7.36687 0.0184195 0)
(7.36681 0.0183483 0)
(7.36668 0.0183637 0)
(7.36648 0.0185032 0)
(7.36624 0.0188324 0)
(7.36597 0.0194119 0)
(7.36582 0.0204053 0)
(7.36584 0.0217934 0)
(7.36649 0.0239967 0)
(7.36807 0.0262571 0)
(7.37113 0.0291869 0)
(7.33264 0.0020779 0)
(7.33223 0.00989437 0)
(7.33393 0.0140841 0)
(7.33644 0.0159484 0)
(7.33944 0.0170473 0)
(7.34265 0.0178122 0)
(7.34573 0.0184099 0)
(7.34861 0.0188598 0)
(7.3513 0.0191606 0)
(7.35382 0.0193412 0)
(7.35616 0.0194314 0)
(7.35834 0.0194517 0)
(7.36037 0.0194178 0)
(7.36225 0.0193416 0)
(7.364 0.0192326 0)
(7.36562 0.0190986 0)
(7.36712 0.0189462 0)
(7.36852 0.0187821 0)
(7.36982 0.0186128 0)
(7.37103 0.0184456 0)
(7.37215 0.0182891 0)
(7.37321 0.018154 0)
(7.37419 0.0180547 0)
(7.37512 0.0180101 0)
(7.376 0.0180469 0)
(7.37684 0.0181987 0)
(7.37769 0.0185171 0)
(7.37857 0.0190499 0)
(7.37959 0.0198937 0)
(7.38088 0.0210387 0)
(7.38271 0.0226375 0)
(7.38537 0.0242932 0)
(7.38906 0.0260524 0)
(7.33258 0.000826799 0)
(7.33243 0.00450514 0)
(7.33428 0.008049 0)
(7.33688 0.0112418 0)
(7.33968 0.0138163 0)
(7.34252 0.0155775 0)
(7.34526 0.0167153 0)
(7.34786 0.0174437 0)
(7.35034 0.0178976 0)
(7.35272 0.0181699 0)
(7.355 0.0183203 0)
(7.35718 0.0183848 0)
(7.35928 0.0183866 0)
(7.3613 0.0183416 0)
(7.36324 0.0182611 0)
(7.3651 0.0181539 0)
(7.3669 0.0180271 0)
(7.36864 0.0178873 0)
(7.37031 0.017741 0)
(7.37194 0.0175954 0)
(7.37351 0.0174589 0)
(7.37503 0.0173419 0)
(7.37652 0.0172578 0)
(7.37798 0.0172236 0)
(7.37941 0.0172621 0)
(7.38085 0.0174004 0)
(7.38232 0.0176758 0)
(7.38387 0.0181192 0)
(7.38559 0.0187798 0)
(7.3876 0.0196362 0)
(7.39007 0.0207104 0)
(7.39318 0.0217437 0)
(7.39701 0.0225816 0)
(7.33284 0.00132989 0)
(7.33301 0.00534318 0)
(7.33458 0.00888803 0)
(7.33681 0.0115644 0)
(7.3393 0.0135264 0)
(7.34193 0.0148748 0)
(7.34453 0.0157951 0)
(7.34703 0.0164275 0)
(7.34943 0.0168478 0)
(7.35173 0.0171127 0)
(7.35394 0.0172655 0)
(7.35609 0.0173357 0)
(7.35817 0.0173439 0)
(7.3602 0.0173049 0)
(7.36218 0.0172298 0)
(7.36412 0.017127 0)
(7.36602 0.0170037 0)
(7.36788 0.0168663 0)
(7.36971 0.0167211 0)
(7.37151 0.0165751 0)
(7.37329 0.0164362 0)
(7.37504 0.0163141 0)
(7.37678 0.0162205 0)
(7.37852 0.01617 0)
(7.38026 0.0161806 0)
(7.38203 0.0162726 0)
(7.38386 0.0164699 0)
(7.38581 0.0167894 0)
(7.38793 0.0172485 0)
(7.39033 0.0178176 0)
(7.39312 0.0184632 0)
(7.39641 0.0190108 0)
(7.40019 0.0192943 0)
(7.33291 0.00132797 0)
(7.33321 0.00466215 0)
(7.33461 0.00769057 0)
(7.33665 0.010145 0)
(7.33896 0.0120915 0)
(7.34141 0.013528 0)
(7.34386 0.0145423 0)
(7.34624 0.0152433 0)
(7.34854 0.0157104 0)
(7.35077 0.016006 0)
(7.35293 0.0161777 0)
(7.35503 0.0162585 0)
(7.35708 0.0162711 0)
(7.35909 0.0162321 0)
(7.36107 0.0161537 0)
(7.36302 0.016045 0)
(7.36494 0.0159137 0)
(7.36684 0.0157665 0)
(7.36873 0.0156098 0)
(7.3706 0.0154501 0)
(7.37246 0.015295 0)
(7.37433 0.0151529 0)
(7.37619 0.0150338 0)
(7.37807 0.0149492 0)
(7.37997 0.0149125 0)
(7.38193 0.0149369 0)
(7.38397 0.0150358 0)
(7.38613 0.0152143 0)
(7.38848 0.0154705 0)
(7.39107 0.0157699 0)
(7.39399 0.0160601 0)
(7.39728 0.0162169 0)
(7.40093 0.0161037 0)
(7.33297 0.00130388 0)
(7.33335 0.00430487 0)
(7.33461 0.00708807 0)
(7.33645 0.00937389 0)
(7.33856 0.0111808 0)
(7.34083 0.0125259 0)
(7.34313 0.013489 0)
(7.34541 0.014166 0)
(7.34763 0.0146262 0)
(7.3498 0.0149226 0)
(7.35191 0.0150963 0)
(7.35398 0.0151773 0)
(7.356 0.0151873 0)
(7.35799 0.0151425 0)
(7.35995 0.0150552 0)
(7.36188 0.0149348 0)
(7.3638 0.0147893 0)
(7.36571 0.0146252 0)
(7.36761 0.014449 0)
(7.36951 0.0142668 0)
(7.37141 0.0140854 0)
(7.37332 0.0139119 0)
(7.37524 0.0137544 0)
(7.37719 0.0136215 0)
(7.37919 0.0135219 0)
(7.38124 0.0134632 0)
(7.38339 0.0134503 0)
(7.38567 0.0134801 0)
(7.38812 0.0135398 0)
(7.39078 0.013594 0)
(7.3937 0.0135891 0)
(7.39692 0.0134346 0)
(7.40038 0.013031 0)
(7.333 0.00124154 0)
(7.33341 0.00392 0)
(7.33456 0.00640913 0)
(7.33622 0.0084877 0)
(7.33816 0.0101601 0)
(7.34026 0.0114411 0)
(7.34243 0.0123831 0)
(7.3446 0.0130572 0)
(7.34674 0.0135214 0)
(7.34884 0.0138225 0)
(7.35091 0.0139988 0)
(7.35293 0.014079 0)
(7.35492 0.0140847 0)
(7.35688 0.014032 0)
(7.35882 0.0139333 0)
(7.36074 0.0137984 0)
(7.36265 0.0136352 0)
(7.36456 0.0134502 0)
(7.36646 0.0132497 0)
(7.36836 0.0130394 0)
(7.37027 0.0128251 0)
(7.3722 0.0126127 0)
(7.37415 0.0124083 0)
(7.37613 0.0122176 0)
(7.37817 0.0120457 0)
(7.38027 0.0118951 0)
(7.38247 0.011765 0)
(7.3848 0.0116468 0)
(7.38727 0.0115228 0)
(7.38993 0.0113593 0)
(7.3928 0.0111085 0)
(7.39588 0.010704 0)
(7.39915 0.0100765 0)
(7.33302 0.00115741 0)
(7.33343 0.00355973 0)
(7.33448 0.00579807 0)
(7.33599 0.00769704 0)
(7.33777 0.00924278 0)
(7.33972 0.0104448 0)
(7.34176 0.0113412 0)
(7.34382 0.0119889 0)
(7.34588 0.0124382 0)
(7.34792 0.0127304 0)
(7.34992 0.0128997 0)
(7.3519 0.0129725 0)
(7.35386 0.0129689 0)
(7.35579 0.0129046 0)
(7.35771 0.0127916 0)
(7.35961 0.0126393 0)
(7.36151 0.0124555 0)
(7.3634 0.0122467 0)
(7.36529 0.0120185 0)
(7.36719 0.0117762 0)
(7.3691 0.0115245 0)
(7.37103 0.0112681 0)
(7.37299 0.011011 0)
(7.37499 0.0107567 0)
(7.37704 0.0105068 0)
(7.37916 0.0102606 0)
(7.38137 0.0100132 0)
(7.3837 0.00975305 0)
(7.38615 0.00946092 0)
(7.38877 0.00910667 0)
(7.39154 0.00865036 0)
(7.39448 0.00804313 0)
(7.39755 0.00723793 0)
(7.33303 0.00106292 0)
(7.33343 0.0032161 0)
(7.33439 0.00522088 0)
(7.33577 0.00694127 0)
(7.33741 0.00835579 0)
(7.33922 0.0094708 0)
(7.34114 0.0103141 0)
(7.3431 0.0109295 0)
(7.34507 0.0113586 0)
(7.34703 0.011637 0)
(7.34898 0.0117948 0)
(7.35092 0.0118562 0)
(7.35283 0.01184 0)
(7.35474 0.0117611 0)
(7.35663 0.011631 0)
(7.35851 0.0114589 0)
(7.36038 0.0112522 0)
(7.36226 0.011017 0)
(7.36413 0.0107585 0)
(7.36602 0.0104812 0)
(7.36792 0.0101889 0)
(7.36985 0.00988493 0)
(7.3718 0.00957172 0)
(7.3738 0.00925052 0)
(7.37585 0.00892073 0)
(7.37796 0.00857898 0)
(7.38016 0.00821799 0)
(7.38246 0.00782522 0)
(7.38487 0.00738185 0)
(7.38741 0.00686194 0)
(7.39007 0.00623342 0)
(7.39286 0.00546025 0)
(7.39574 0.00451093 0)
(7.33303 0.000964427 0)
(7.33342 0.00288911 0)
(7.3343 0.00467899 0)
(7.33556 0.00622936 0)
(7.33707 0.0075153 0)
(7.33876 0.00853931 0)
(7.34056 0.00932126 0)
(7.34242 0.00989485 0)
(7.34431 0.0102945 0)
(7.3462 0.0105509 0)
(7.34809 0.0106904 0)
(7.34998 0.0107349 0)
(7.35185 0.0107017 0)
(7.35372 0.0106045 0)
(7.35558 0.0104544 0)
(7.35743 0.0102599 0)
(7.35928 0.0100279 0)
(7.36114 0.00976406 0)
(7.363 0.00947297 0)
(7.36487 0.00915834 0)
(7.36675 0.00882311 0)
(7.36866 0.00846936 0)
(7.3706 0.00809811 0)
(7.37259 0.00770896 0)
(7.37462 0.00729957 0)
(7.37671 0.00686495 0)
(7.37888 0.0063967 0)
(7.38113 0.00588225 0)
(7.38347 0.00530445 0)
(7.38592 0.00464157 0)
(7.38846 0.00386838 0)
(7.3911 0.00295833 0)
(7.3938 0.0018905 0)
(7.33303 0.00086577 0)
(7.3334 0.00257785 0)
(7.33421 0.00416769 0)
(7.33537 0.00555415 0)
(7.33676 0.00671195 0)
(7.33834 0.00764059 0)
(7.34003 0.00835424 0)
(7.3418 0.00887871 0)
(7.3436 0.00924208 0)
(7.34543 0.0094703 0)
(7.34726 0.0095863 0)
(7.3491 0.00960941 0)
(7.35093 0.00955536 0)
(7.35275 0.00943681 0)
(7.35458 0.00926383 0)
(7.3564 0.00904444 0)
(7.35823 0.008785 0)
(7.36005 0.00849054 0)
(7.36189 0.00816501 0)
(7.36374 0.00781139 0)
(7.3656 0.00743173 0)
(7.36749 0.00702707 0)
(7.36941 0.00659728 0)
(7.37136 0.00614073 0)
(7.37337 0.0056539 0)
(7.37542 0.00513094 0)
(7.37754 0.00456316 0)
(7.37973 0.00393872 0)
(7.382 0.00324257 0)
(7.38434 0.00245686 0)
(7.38676 0.00156206 0)
(7.38925 0.000538547 0)
(7.39178 -0.000627426 0)
(7.33303 0.000769053 0)
(7.33338 0.00228142 0)
(7.33412 0.00368377 0)
(7.33519 0.00491247 0)
(7.33649 0.0059436 0)
(7.33796 0.00677432 0)
(7.33955 0.00741439 0)
(7.34123 0.0078834 0)
(7.34296 0.00820402 0)
(7.34471 0.00839802 0)
(7.34649 0.00848511 0)
(7.34827 0.00848225 0)
(7.35005 0.0084035 0)
(7.35184 0.00826027 0)
(7.35363 0.00806175 0)
(7.35542 0.00781521 0)
(7.35721 0.00752636 0)
(7.35901 0.0071996 0)
(7.36082 0.00683824 0)
(7.36264 0.00644452 0)
(7.36447 0.0060197 0)
(7.36633 0.00556398 0)
(7.36822 0.00507632 0)
(7.37014 0.00455424 0)
(7.3721 0.00399354 0)
(7.37411 0.00338803 0)
(7.37617 0.00272931 0)
(7.37829 0.00200662 0)
(7.38047 0.00120714 0)
(7.38271 0.000316464 0)
(7.385 -0.000680465 0)
(7.38734 -0.00179813 0)
(7.3897 -0.00304543 0)
(7.33303 0.000675338 0)
(7.33335 0.0019988 0)
(7.33404 0.00322419 0)
(7.33503 0.00430071 0)
(7.33624 0.00520657 0)
(7.33762 0.00593729 0)
(7.33912 0.00649932 0)
(7.34071 0.00690738 0)
(7.34236 0.00717961 0)
(7.34405 0.00733405 0)
(7.34577 0.00738745 0)
(7.3475 0.00735448 0)
(7.34923 0.00724749 0)
(7.35098 0.00707666 0)
(7.35273 0.00685015 0)
(7.35448 0.00657444 0)
(7.35624 0.00625455 0)
(7.35801 0.00589424 0)
(7.35978 0.00549613 0)
(7.36157 0.00506184 0)
(7.36337 0.00459193 0)
(7.36519 0.00408591 0)
(7.36704 0.00354208 0)
(7.36892 0.00295743 0)
(7.37083 0.00232746 0)
(7.37278 0.00164604 0)
(7.37478 0.000905327 0)
(7.37681 9.59599e-05 0)
(7.3789 -0.000792862 0)
(7.38102 -0.00177266 0)
(7.38319 -0.00285493 0)
(7.38538 -0.0040504 0)
(7.38759 -0.00536465 0)
(7.33303 0.000585053 0)
(7.33333 0.00172894 0)
(7.33397 0.00278623 0)
(7.33489 0.00371567 0)
(7.33601 0.00449781 0)
(7.33731 0.00512718 0)
(7.33873 0.00560765 0)
(7.34024 0.00595021 0)
(7.34182 0.00616913 0)
(7.34345 0.00627925 0)
(7.3451 0.00629458 0)
(7.34678 0.00622766 0)
(7.34847 0.00608919 0)
(7.35017 0.00588803 0)
(7.35188 0.00563135 0)
(7.35359 0.00532477 0)
(7.35531 0.00497257 0)
(7.35704 0.00457787 0)
(7.35878 0.00414266 0)
(7.36053 0.00366796 0)
(7.3623 0.00315376 0)
(7.36408 0.00259902 0)
(7.36588 0.00200162 0)
(7.36771 0.00135828 0)
(7.36956 0.000664439 0)
(7.37145 -8.5703e-05 0)
(7.37336 -0.000899202 0)
(7.37532 -0.00178412 0)
(7.3773 -0.00274937 0)
(7.37931 -0.00380407 0)
(7.38135 -0.00495698 0)
(7.3834 -0.00621604 0)
(7.38546 -0.00758454 0)
(7.33303 0.00049826 0)
(7.33331 0.00147071 0)
(7.3339 0.00236745 0)
(7.33476 0.0031544 0)
(7.33581 0.00381439 0)
(7.33703 0.00434144 0)
(7.33838 0.00473752 0)
(7.33982 0.00501066 0)
(7.34133 0.00517199 0)
(7.34289 0.00523351 0)
(7.34449 0.00520683 0)
(7.34611 0.00510248 0)
(7.34776 0.00492957 0)
(7.34941 0.00469568 0)
(7.35108 0.00440693 0)
(7.35275 0.00406808 0)
(7.35443 0.0036827 0)
(7.35612 0.00325322 0)
(7.35782 0.00278107 0)
(7.35953 0.00226672 0)
(7.36125 0.00170971 0)
(7.36298 0.0011086 0)
(7.36473 0.00046101 0)
(7.3665 -0.000236444 0)
(7.36829 -0.000988143 0)
(7.37011 -0.00179943 0)
(7.37194 -0.0026765 0)
(7.3738 -0.00362625 0)
(7.37568 -0.00465587 0)
(7.37758 -0.00577255 0)
(7.37949 -0.00698292 0)
(7.38141 -0.00829287 0)
(7.38332 -0.00970406 0)
(7.33302 0.000414813 0)
(7.33329 0.00122299 0)
(7.33384 0.00196565 0)
(7.33464 0.0026142 0)
(7.33563 0.00315362 0)
(7.33678 0.00357777 0)
(7.33806 0.00388726 0)
(7.33943 0.00408781 0)
(7.34088 0.00418797 0)
(7.34238 0.00419732 0)
(7.34393 0.00412529 0)
(7.3455 0.00398059 0)
(7.34709 0.00377078 0)
(7.3487 0.00350221 0)
(7.35033 0.00317995 0)
(7.35196 0.00280791 0)
(7.3536 0.00238893 0)
(7.35524 0.00192481 0)
(7.3569 0.00141644 0)
(7.35856 0.000863835 0)
(7.36023 0.000266134 0)
(7.36191 -0.000378348 0)
(7.36361 -0.00107213 0)
(7.36531 -0.00181854 0)
(7.36704 -0.00262169 0)
(7.36877 -0.00348639 0)
(7.37052 -0.00441799 0)
(7.37229 -0.00542224 0)
(7.37406 -0.00650496 0)
(7.37584 -0.00767174 0)
(7.37763 -0.00892761 0)
(7.37941 -0.0102769 0)
(7.38118 -0.0117201 0)
(7.33302 0.000334459 0)
(7.33327 0.000984674 0)
(7.33379 0.00157877 0)
(7.33454 0.0020925 0)
(7.33547 0.00251276 0)
(7.33656 0.00283356 0)
(7.33777 0.00305451 0)
(7.33908 0.00317959 0)
(7.34047 0.00321529 0)
(7.34192 0.00316909 0)
(7.34341 0.00304856 0)
(7.34493 0.00286071 0)
(7.34648 0.0026117 0)
(7.34804 0.00230668 0)
(7.34962 0.00194971 0)
(7.35121 0.00154386 0)
(7.3528 0.00109124 0)
(7.3544 0.000593072 0)
(7.35601 4.97322e-05 0)
(7.35762 -0.000539178 0)
(7.35924 -0.00117481 0)
(7.36087 -0.00185902 0)
(7.3625 -0.00259438 0)
(7.36414 -0.00338406 0)
(7.36579 -0.00423185 0)
(7.36745 -0.00514198 0)
(7.36911 -0.00611905 0)
(7.37077 -0.00716779 0)
(7.37244 -0.00829286 0)
(7.37411 -0.0094986 0)
(7.37577 -0.0107887 0)
(7.37742 -0.0121665 0)
(7.37905 -0.0136315 0)
(7.33302 0.000256902 0)
(7.33325 0.000754716 0)
(7.33374 0.00120504 0)
(7.33445 0.0015872 0)
(7.33533 0.00188982 0)
(7.33636 0.0021073 0)
(7.33752 0.00223866 0)
(7.33877 0.0022865 0)
(7.3401 0.00225563 0)
(7.3415 0.00215173 0)
(7.34294 0.00198068 0)
(7.34441 0.00174798 0)
(7.34591 0.00145842 0)
(7.34743 0.00111601 0)
(7.34896 0.000723859 0)
(7.3505 0.000284215 0)
(7.35205 -0.000201491 0)
(7.35361 -0.000732605 0)
(7.35516 -0.00130919 0)
(7.35672 -0.00193199 0)
(7.35829 -0.00260238 0)
(7.35985 -0.00332234 0)
(7.36142 -0.00409437 0)
(7.36299 -0.00492148 0)
(7.36456 -0.00580707 0)
(7.36614 -0.00675484 0)
(7.36771 -0.00776868 0)
(7.36927 -0.00885244 0)
(7.37083 -0.0100098 0)
(7.37238 -0.0112442 0)
(7.37392 -0.0125583 0)
(7.37544 -0.0139544 0)
(7.37693 -0.0154317 0)
(7.33302 0.000181821 0)
(7.33324 0.000532 0)
(7.3337 0.00084245 0)
(7.33437 0.00109538 0)
(7.3352 0.00128098 0)
(7.33618 0.00139417 0)
(7.33729 0.00143371 0)
(7.33849 0.00140131 0)
(7.33977 0.00130052 0)
(7.34112 0.00113569 0)
(7.34251 0.000911201 0)
(7.34394 0.000631194 0)
(7.34539 0.000299298 0)
(7.34686 -8.16049e-05 0)
(7.34835 -0.000509348 0)
(7.34985 -0.000982486 0)
(7.35135 -0.00150026 0)
(7.35285 -0.00206256 0)
(7.35436 -0.00266989 0)
(7.35586 -0.00332331 0)
(7.35737 -0.00402438 0)
(7.35887 -0.00477516 0)
(7.36037 -0.00557808 0)
(7.36187 -0.00643593 0)
(7.36336 -0.00735178 0)
(7.36485 -0.00832882 0)
(7.36633 -0.00937032 0)
(7.36779 -0.0104794 0)
(7.36924 -0.011659 0)
(7.37068 -0.0129117 0)
(7.3721 -0.0142395 0)
(7.37349 -0.0156439 0)
(7.37485 -0.0171236 0)
(7.33302 0.00010896 0)
(7.33322 0.000315988 0)
(7.33366 0.000490483 0)
(7.3343 0.000617315 0)
(7.33509 0.000688312 0)
(7.33603 0.000699082 0)
(7.33708 0.000648202 0)
(7.33824 0.000536614 0)
(7.33947 0.000366605 0)
(7.34077 0.000141122 0)
(7.34212 -0.000136659 0)
(7.3435 -0.000463855 0)
(7.34491 -0.000837976 0)
(7.34634 -0.00125714 0)
(7.34778 -0.00172002 0)
(7.34923 -0.00222589 0)
(7.35069 -0.00277459 0)
(7.35214 -0.00336647 0)
(7.3536 -0.0040024 0)
(7.35505 -0.00468367 0)
(7.35649 -0.00541199 0)
(7.35793 -0.00618942 0)
(7.35936 -0.00701829 0)
(7.36078 -0.00790118 0)
(7.36219 -0.00884079 0)
(7.36359 -0.00983989 0)
(7.36498 -0.0109012 0)
(7.36634 -0.0120273 0)
(7.36769 -0.0132204 0)
(7.36901 -0.0144824 0)
(7.37031 -0.0158148 0)
(7.37157 -0.0172187 0)
(7.37281 -0.0186924 0)
(7.33302 3.78454e-05 0)
(7.33321 0.000104482 0)
(7.33363 0.000144373 0)
(7.33423 0.000143995 0)
(7.33499 9.67056e-05 0)
(7.33589 -5.80291e-07 0)
(7.33691 -0.000148577 0)
(7.33802 -0.000346275 0)
(7.33921 -0.000591861 0)
(7.34047 -0.000883241 0)
(7.34177 -0.00121831 0)
(7.34311 -0.00159531 0)
(7.34448 -0.00201297 0)
(7.34587 -0.00247042 0)
(7.34726 -0.00296728 0)
(7.34867 -0.00350364 0)
(7.35007 -0.00408003 0)
(7.35148 -0.00469736 0)
(7.35288 -0.00535692 0)
(7.35427 -0.00606029 0)
(7.35566 -0.00680935 0)
(7.35703 -0.0076062 0)
(7.35839 -0.0084531 0)
(7.35973 -0.00935245 0)
(7.36106 -0.0103067 0)
(7.36237 -0.0113181 0)
(7.36366 -0.0123891 0)
(7.36493 -0.0135217 0)
(7.36617 -0.0147177 0)
(7.36738 -0.0159784 0)
(7.36856 -0.0173048 0)
(7.36971 -0.0186977 0)
(7.37081 -0.0201552 0)
(7.33302 -3.12731e-05 0)
(7.3332 -9.96835e-05 0)
(7.3336 -0.000187412 0)
(7.33417 -0.000305864 0)
(7.3349 -0.000460508 0)
(7.33576 -0.000654235 0)
(7.33674 -0.000888286 0)
(7.33782 -0.00116255 0)
(7.33897 -0.00147611 0)
(7.34019 -0.00182778 0)
(7.34146 -0.00221647 0)
(7.34276 -0.00264132 0)
(7.34409 -0.00310178 0)
(7.34544 -0.00359767 0)
(7.3468 -0.00412922 0)
(7.34816 -0.00469703 0)
(7.34952 -0.00530204 0)
(7.35087 -0.00594551 0)
(7.35222 -0.00662895 0)
(7.35355 -0.00735411 0)
(7.35487 -0.00812293 0)
(7.35618 -0.00893748 0)
(7.35747 -0.00979992 0)
(7.35874 -0.0107125 0)
(7.35999 -0.0116773 0)
(7.36121 -0.0126964 0)
(7.36241 -0.0137717 0)
(7.36357 -0.0149049 0)
(7.36471 -0.0160975 0)
(7.36581 -0.0173503 0)
(7.36688 -0.018664 0)
(7.36791 -0.0200392 0)
(7.36889 -0.0214738 0)
(7.33302 -9.97805e-05 0)
(7.3332 -0.000306738 0)
(7.33358 -0.000534433 0)
(7.33413 -0.000792102 0)
(7.33483 -0.00108087 0)
(7.33566 -0.00139919 0)
(7.33661 -0.00174523 0)
(7.33766 -0.00211742 0)
(7.33878 -0.00251481 0)
(7.33997 -0.00293712 0)
(7.3412 -0.00338459 0)
(7.34246 -0.00385789 0)
(7.34376 -0.00435803 0)
(7.34506 -0.00488628 0)
(7.34638 -0.00544415 0)
(7.34769 -0.00603329 0)
(7.349 -0.00665553 0)
(7.35031 -0.00731279 0)
(7.3516 -0.00800709 0)
(7.35288 -0.00874055 0)
(7.35414 -0.00951528 0)
(7.35538 -0.0103335 0)
(7.3566 -0.0111972 0)
(7.35779 -0.0121086 0)
(7.35896 -0.0130696 0)
(7.36009 -0.014082 0)
(7.3612 -0.0151474 0)
(7.36227 -0.0162672 0)
(7.36331 -0.0174423 0)
(7.36431 -0.0186736 0)
(7.36526 -0.0199614 0)
(7.36617 -0.0213058 0)
(7.36704 -0.0227049 0)
(7.33301 -0.000163252 0)
(7.33317 -0.000485344 0)
(7.33353 -0.000812433 0)
(7.33405 -0.0011563 0)
(7.33472 -0.00152219 0)
(7.33553 -0.00191226 0)
(7.33646 -0.00232687 0)
(7.33748 -0.00276522 0)
(7.33859 -0.00322623 0)
(7.33975 -0.00370917 0)
(7.34096 -0.00421379 0)
(7.3422 -0.00474038 0)
(7.34347 -0.00528968 0)
(7.34474 -0.00586285 0)
(7.34602 -0.00646135 0)
(7.3473 -0.00708691 0)
(7.34857 -0.00774144 0)
(7.34983 -0.00842698 0)
(7.35107 -0.00914566 0)
(7.35229 -0.00989965 0)
(7.35349 -0.0106911 0)
(7.35466 -0.0115223 0)
(7.35581 -0.0123951 0)
(7.35693 -0.0133116 0)
(7.35802 -0.0142737 0)
(7.35907 -0.0152829 0)
(7.36009 -0.0163407 0)
(7.36106 -0.0174483 0)
(7.362 -0.0186064 0)
(7.3629 -0.0198157 0)
(7.36375 -0.0210764 0)
(7.36455 -0.0223885 0)
(7.3653 -0.0237502 0)
(7.33302 -0.000238395 0)
(7.3332 -0.00073615 0)
(7.33355 -0.0012651 0)
(7.33407 -0.00182063 0)
(7.33472 -0.00238756 0)
(7.33551 -0.00295411 0)
(7.33641 -0.00351483 0)
(7.3374 -0.00406869 0)
(7.33847 -0.00461736 0)
(7.3396 -0.00516406 0)
(7.34078 -0.00571277 0)
(7.34198 -0.0062677 0)
(7.34321 -0.00683303 0)
(7.34445 -0.00741273 0)
(7.34569 -0.00801053 0)
(7.34693 -0.00862989 0)
(7.34815 -0.009274 0)
(7.34936 -0.00994585 0)
(7.35055 -0.0106482 0)
(7.35172 -0.0113836 0)
(7.35286 -0.0121544 0)
(7.35398 -0.012963 0)
(7.35506 -0.0138111 0)
(7.35611 -0.0147008 0)
(7.35712 -0.0156337 0)
(7.35809 -0.016611 0)
(7.35902 -0.0176341 0)
(7.35991 -0.0187037 0)
(7.36075 -0.0198205 0)
(7.36155 -0.0209847 0)
(7.3623 -0.0221965 0)
(7.363 -0.0234556 0)
(7.36364 -0.0247601 0)
(7.333 -0.000264488 0)
(7.3331 -0.00075383 0)
(7.33338 -0.00123326 0)
(7.33385 -0.00173873 0)
(7.33449 -0.00228124 0)
(7.33529 -0.00285754 0)
(7.33621 -0.00345942 0)
(7.33723 -0.00407844 0)
(7.33832 -0.00470829 0)
(7.33946 -0.00534516 0)
(7.34065 -0.00598739 0)
(7.34185 -0.00663496 0)
(7.34307 -0.00728908 0)
(7.34429 -0.00795176 0)
(7.34551 -0.0086255 0)
(7.34672 -0.00931312 0)
(7.34791 -0.0100175 0)
(7.34907 -0.0107417 0)
(7.35022 -0.0114885 0)
(7.35133 -0.0122607 0)
(7.35241 -0.013061 0)
(7.35346 -0.0138917 0)
(7.35448 -0.0147552 0)
(7.35545 -0.0156534 0)
(7.35638 -0.0165881 0)
(7.35727 -0.0175608 0)
(7.35812 -0.0185729 0)
(7.35892 -0.0196251 0)
(7.35967 -0.0207184 0)
(7.36037 -0.0218529 0)
(7.36102 -0.0230289 0)
(7.36162 -0.0242463 0)
(7.36216 -0.0255034 0)
(7.33305 -0.000435029 0)
(7.33329 -0.00137743 0)
(7.33364 -0.00237514 0)
(7.33411 -0.00336235 0)
(7.3347 -0.00428802 0)
(7.33542 -0.00513575 0)
(7.33626 -0.00590932 0)
(7.3372 -0.00661957 0)
(7.33823 -0.00727952 0)
(7.33933 -0.00790224 0)
(7.34046 -0.0084998 0)
(7.34163 -0.00908281 0)
(7.34281 -0.00966028 0)
(7.344 -0.0102398 0)
(7.34519 -0.0108277 0)
(7.34636 -0.0114293 0)
(7.34752 -0.012049 0)
(7.34865 -0.0126906 0)
(7.34975 -0.0133574 0)
(7.35082 -0.0140519 0)
(7.35186 -0.0147768 0)
(7.35286 -0.0155339 0)
(7.35382 -0.0163251 0)
(7.35473 -0.0171519 0)
(7.3556 -0.0180155 0)
(7.35642 -0.0189169 0)
(7.35719 -0.0198569 0)
(7.35791 -0.0208359 0)
(7.35858 -0.0218543 0)
(7.3592 -0.022912 0)
(7.35976 -0.0240089 0)
(7.36027 -0.0251446 0)
(7.36072 -0.0263175 0)
(7.33293 -0.000180777 0)
(7.33282 -0.000455362 0)
(7.33296 -0.000788458 0)
(7.33341 -0.00130803 0)
(7.33411 -0.00200208 0)
(7.33498 -0.00281077 0)
(7.33598 -0.00368051 0)
(7.33707 -0.0045739 0)
(7.33821 -0.00546737 0)
(7.33939 -0.00634724 0)
(7.34059 -0.0072069 0)
(7.34179 -0.00804467 0)
(7.34299 -0.00886198 0)
(7.34418 -0.00966212 0)
(7.34534 -0.0104494 0)
(7.34649 -0.0112285 0)
(7.34761 -0.0120042 0)
(7.34869 -0.0127813 0)
(7.34974 -0.0135642 0)
(7.35075 -0.0143568 0)
(7.35172 -0.015163 0)
(7.35265 -0.0159859 0)
(7.35354 -0.0168286 0)
(7.35438 -0.0176936 0)
(7.35517 -0.0185831 0)
(7.3559 -0.019499 0)
(7.35659 -0.0204427 0)
(7.35722 -0.0214153 0)
(7.3578 -0.0224179 0)
(7.35833 -0.0234508 0)
(7.3588 -0.0245144 0)
(7.3592 -0.0256088 0)
(7.35956 -0.0267326 0)
(7.33316 -0.000881781 0)
(7.33361 -0.00292808 0)
(7.33391 -0.00493372 0)
(7.33416 -0.00664027 0)
(7.33455 -0.00800333 0)
(7.33513 -0.00908542 0)
(7.33588 -0.00995592 0)
(7.33678 -0.010672 0)
(7.33778 -0.01128 0)
(7.33887 -0.0118161 0)
(7.34 -0.0123081 0)
(7.34117 -0.0127763 0)
(7.34235 -0.013236 0)
(7.34353 -0.0136979 0)
(7.3447 -0.0141702 0)
(7.34584 -0.0146587 0)
(7.34696 -0.0151677 0)
(7.34804 -0.0157004 0)
(7.34908 -0.0162593 0)
(7.35008 -0.0168463 0)
(7.35104 -0.0174628 0)
(7.35194 -0.01811 0)
(7.3528 -0.0187888 0)
(7.35361 -0.0194997 0)
(7.35436 -0.0202434 0)
(7.35505 -0.02102 0)
(7.35569 -0.0218298 0)
(7.35627 -0.0226728 0)
(7.35679 -0.0235487 0)
(7.35725 -0.0244573 0)
(7.35765 -0.025398 0)
(7.358 -0.0263705 0)
(7.35828 -0.0273732 0)
(7.33266 0.000517142 0)
(7.33187 0.00173495 0)
(7.33189 0.00233625 0)
(7.33259 0.00198336 0)
(7.33362 0.000986418 0)
(7.33478 -0.000332977 0)
(7.33601 -0.00177903 0)
(7.33727 -0.00324699 0)
(7.33853 -0.00467819 0)
(7.33977 -0.00604105 0)
(7.341 -0.00732288 0)
(7.3422 -0.0085226 0)
(7.34337 -0.00964535 0)
(7.34451 -0.0106995 0)
(7.34562 -0.0116946 0)
(7.34669 -0.0126407 0)
(7.34772 -0.0135472 0)
(7.34871 -0.0144229 0)
(7.34966 -0.0152759 0)
(7.35056 -0.0161132 0)
(7.35142 -0.016941 0)
(7.35223 -0.0177648 0)
(7.35299 -0.0185892 0)
(7.35369 -0.0194182 0)
(7.35435 -0.0202553 0)
(7.35495 -0.0211032 0)
(7.35549 -0.0219643 0)
(7.35598 -0.0228405 0)
(7.3564 -0.0237334 0)
(7.35678 -0.0246438 0)
(7.35709 -0.0255727 0)
(7.35734 -0.0265205 0)
(7.35753 -0.0274865 0)
(7.33352 -0.0020349 0)
(7.33442 -0.00688479 0)
(7.334 -0.0114024 0)
(7.33327 -0.0142366 0)
(7.33304 -0.015884 0)
(7.33334 -0.0168455 0)
(7.33401 -0.0173763 0)
(7.33493 -0.017648 0)
(7.33601 -0.0177787 0)
(7.33721 -0.0178442 0)
(7.33847 -0.0178924 0)
(7.33975 -0.0179526 0)
(7.34103 -0.0180415 0)
(7.3423 -0.0181684 0)
(7.34354 -0.018338 0)
(7.34474 -0.018552 0)
(7.3459 -0.0188104 0)
(7.347 -0.0191122 0)
(7.34806 -0.0194561 0)
(7.34905 -0.0198406 0)
(7.34999 -0.0202641 0)
(7.35088 -0.020725 0)
(7.3517 -0.021222 0)
(7.35246 -0.0217538 0)
(7.35316 -0.0223191 0)
(7.3538 -0.0229169 0)
(7.35437 -0.023546 0)
(7.35488 -0.0242055 0)
(7.35533 -0.0248945 0)
(7.35571 -0.0256119 0)
(7.35603 -0.0263568 0)
(7.35629 -0.0271286 0)
(7.35648 -0.0279255 0)
(7.33179 0.00338666 0)
(7.329 0.00918899 0)
(7.32948 0.0118019 0)
(7.33179 0.0115052 0)
(7.33387 0.00939303 0)
(7.3356 0.00667748 0)
(7.33716 0.00386019 0)
(7.33856 0.0011278 0)
(7.33985 -0.00141882 0)
(7.34105 -0.00373749 0)
(7.34218 -0.00582546 0)
(7.34327 -0.00769798 0)
(7.34432 -0.0093774 0)
(7.34534 -0.0108884 0)
(7.34634 -0.0122553 0)
(7.3473 -0.0135005 0)
(7.34824 -0.0146442 0)
(7.34915 -0.015704 0)
(7.35003 -0.0166951 0)
(7.35088 -0.0176306 0)
(7.35169 -0.0185217 0)
(7.35246 -0.0193777 0)
(7.35319 -0.0202068 0)
(7.35387 -0.0210156 0)
(7.3545 -0.0218099 0)
(7.35509 -0.0225944 0)
(7.35562 -0.023373 0)
(7.3561 -0.0241492 0)
(7.35652 -0.0249255 0)
(7.35689 -0.025704 0)
(7.3572 -0.0264865 0)
(7.35744 -0.027274 0)
(7.35763 -0.0280671 0)
(7.33408 -0.00613631 0)
(7.33404 -0.0189874 0)
(7.33026 -0.0270541 0)
(7.32659 -0.0305879 0)
(7.325 -0.0313712 0)
(7.32521 -0.0309538 0)
(7.32626 -0.0300057 0)
(7.32773 -0.02885 0)
(7.32947 -0.0276842 0)
(7.33135 -0.0266121 0)
(7.33331 -0.025678 0)
(7.33527 -0.0248961 0)
(7.33722 -0.0242656 0)
(7.33913 -0.0237773 0)
(7.34099 -0.0234187 0)
(7.34279 -0.023176 0)
(7.34453 -0.0230363 0)
(7.3462 -0.0229872 0)
(7.3478 -0.023018 0)
(7.34932 -0.0231192 0)
(7.35077 -0.0232826 0)
(7.35215 -0.0235012 0)
(7.35345 -0.023769 0)
(7.35467 -0.024081 0)
(7.35581 -0.0244329 0)
(7.35688 -0.0248211 0)
(7.35787 -0.0252423 0)
(7.35878 -0.025694 0)
(7.35961 -0.0261737 0)
(7.36036 -0.0266796 0)
(7.36104 -0.0272097 0)
(7.36165 -0.0277629 0)
(7.36218 -0.028337 0)
(7.32967 0.0198551 0)
(7.32497 0.0369897 0)
(7.32931 0.0376752 0)
(7.3351 0.0322593 0)
(7.33874 0.0258382 0)
(7.3409 0.0195183 0)
(7.34271 0.013608 0)
(7.34443 0.00831136 0)
(7.34617 0.0036744 0)
(7.34798 -0.000349391 0)
(7.34988 -0.00382906 0)
(7.35186 -0.00683609 0)
(7.35392 -0.00943936 0)
(7.35602 -0.0117014 0)
(7.35815 -0.0136766 0)
(7.36029 -0.0154114 0)
(7.36242 -0.0169452 0)
(7.36452 -0.0183111 0)
(7.36659 -0.0195368 0)
(7.36862 -0.0206456 0)
(7.37058 -0.0216569 0)
(7.37248 -0.0225869 0)
(7.3743 -0.0234494 0)
(7.37605 -0.0242556 0)
(7.37771 -0.0250153 0)
(7.37929 -0.0257365 0)
(7.38079 -0.0264261 0)
(7.38219 -0.0270898 0)
(7.3835 -0.0277326 0)
(7.38472 -0.0283585 0)
(7.38585 -0.0289712 0)
(7.38688 -0.0295733 0)
(7.38782 -0.0301684 0)
(7.32507 -0.0330851 0)
(7.29737 -0.0587821 0)
(7.27806 -0.0617284 0)
(7.27375 -0.0593725 0)
(7.28036 -0.0558894 0)
(7.29181 -0.0518584 0)
(7.30507 -0.0479278 0)
(7.3188 -0.0444316 0)
(7.33224 -0.0414193 0)
(7.345 -0.0388729 0)
(7.35689 -0.0367555 0)
(7.36786 -0.0350154 0)
(7.37793 -0.0335986 0)
(7.38714 -0.0324559 0)
(7.39553 -0.031544 0)
(7.40317 -0.0308254 0)
(7.41011 -0.0302688 0)
(7.41641 -0.0298481 0)
(7.42212 -0.0295414 0)
(7.42729 -0.0293309 0)
(7.43196 -0.0292018 0)
(7.43618 -0.029142 0)
(7.43997 -0.0291414 0)
(7.44337 -0.0291917 0)
(7.4464 -0.029286 0)
(7.4491 -0.0294185 0)
(7.45149 -0.0295845 0)
(7.45358 -0.0297798 0)
(7.4554 -0.0300011 0)
(7.45697 -0.0302452 0)
(7.45831 -0.0305096 0)
(7.45942 -0.0307917 0)
(7.46033 -0.0310885 0)
(7.33915 0.134724 0)
(7.3762 0.12707 0)