/*--------------------------------*- C++ -*----------------------------------*\
  =========                 |
  \\      /  F ield         | OpenFOAM: The Open Source CFD Toolbox
   \\    /   O peration     | Website:  https://openfoam.org
    \\  /    A nd           | Version:  10
     \\/     M anipulation  |
\*---------------------------------------------------------------------------*/
FoamFile
{
    format      ascii;
    class       volScalarField;
    location    "0.165";
    object      k;
}
// * * * * * * * * * * * * * * * * * * * * * * * * * * * * * * * * * * * * * //

dimensions      [0 2 -2 0 0 0 0];

internalField   nonuniform List<scalar> 
6820
(
0.198346
0.194822
0.191247
0.18766
0.18411
0.180628
0.177228
0.173919
0.170707
0.167596
0.16459
0.161691
0.158901
0.156219
0.153646
0.151181
0.148822
0.146568
0.144416
0.142365
0.140414
0.13856
0.136804
0.135145
0.133582
0.132115
0.130744
0.129467
0.128283
0.127186
0.126174
0.125265
0.124225
0.200924
0.200892
0.200444
0.199959
0.19946
0.198937
0.198385
0.197799
0.197176
0.196517
0.195822
0.195094
0.194335
0.193547
0.192734
0.191899
0.191046
0.190176
0.189294
0.1884
0.187498
0.186589
0.185674
0.184755
0.183833
0.182908
0.181982
0.181056
0.18013
0.179208
0.178282
0.177395
0.176381
0.236757
0.0165746
0.00395964
0.00907124
0.00722376
0.00752083
0.00912478
0.0109428
0.012863
0.0148197
0.0167696
0.0186881
0.0205562
0.0223595
0.0240864
0.0257282
0.0272779
0.0287304
0.0300818
0.0313289
0.0324696
0.0335021
0.0344252
0.0352382
0.0359411
0.0365347
0.0370206
0.0374026
0.0376851
0.0378777
0.037984
0.0380356
0.0379732
0.210809
0.147774
0.104546
0.0791207
0.0634486
0.0528649
0.0450848
0.0389983
0.0340307
0.0298596
0.0262897
0.0231955
0.0204915
0.0181168
0.0160265
0.0141857
0.0125664
0.0111454
0.00990194
0.00881765
0.0078753
0.0070587
0.00635258
0.00574257
0.00521535
0.00475875
0.00436183
0.00401494
0.00370972
0.00343918
0.00319706
0.0029789
0.00278099
0.223279
0.0836006
0.0219685
0.00462129
0.000927111
0.000539595
0.000766106
0.00102086
0.0012264
0.00139288
0.00153156
0.00164706
0.0017408
0.00181354
0.00186633
0.00190074
0.00191878
0.00192274
0.00191506
0.00189818
0.00187446
0.00184609
0.00181506
0.00178313
0.00175183
0.00172234
0.00169555
0.00167239
0.0016538
0.0016396
0.00162763
0.00161427
0.0015968
0.216602
0.117419
0.0584563
0.0345382
0.0249497
0.0202744
0.0170711
0.014181
0.0113494
0.00867002
0.00633388
0.004475
0.00311174
0.00217311
0.00155387
0.00115533
0.000902074
0.000742444
0.000643881
0.000587428
0.000560288
0.000554292
0.000564215
0.000586768
0.000619783
0.000661367
0.000709617
0.000763276
0.000822625
0.000886337
0.000949928
0.00100565
0.00106292
0.213435
0.133356
0.0723085
0.0428609
0.0300673
0.0243111
0.0214796
0.0199871
0.0192196
0.018903
0.0189012
0.0191413
0.0195802
0.0201887
0.0209429
0.0218197
0.0227977
0.0238563
0.0249741
0.0261292
0.0273021
0.0284762
0.0296381
0.0307764
0.0318813
0.0329459
0.033966
0.0349328
0.0358286
0.036624
0.0372755
0.037681
0.0377005
0.204667
0.17709
0.137803
0.09562
0.0657781
0.0485603
0.0392555
0.034367
0.0319648
0.0310521
0.0311141
0.0318768
0.0331877
0.0349543
0.0371116
0.0396001
0.0423465
0.0452738
0.0483055
0.0513618
0.0543688
0.0572619
0.0599893
0.0625162
0.064828
0.066923
0.0688044
0.0704755
0.0719301
0.0731392
0.0740428
0.074525
0.0744298
0.203632
0.182096
0.161561
0.139041
0.116017
0.0971199
0.0834376
0.074342
0.0687849
0.0657914
0.0646306
0.0647983
0.0659482
0.0678298
0.0702177
0.0728598
0.0755445
0.0781573
0.080656
0.0830319
0.0852829
0.087399
0.0893612
0.0911491
0.0927512
0.0941702
0.0954148
0.096488
0.0973796
0.0980568
0.098467
0.0985369
0.0981695
0.203261
0.183971
0.167456
0.154908
0.14262
0.130165
0.118613
0.10896
0.10157
0.0962927
0.0927679
0.0906171
0.0895095
0.0891763
0.0893924
0.0899469
0.0906916
0.0915433
0.0924631
0.0934349
0.094442
0.0954598
0.0964644
0.0974366
0.098359
0.0992175
0.0999994
0.100688
0.101262
0.10169
0.101939
0.101978
0.10176
0.203122
0.184731
0.168073
0.156358
0.147215
0.139174
0.131783
0.125007
0.118986
0.113838
0.109583
0.106162
0.103475
0.101408
0.0998521
0.0987117
0.0979068
0.0973731
0.0970614
0.0969309
0.0969352
0.0970313
0.0971901
0.0973934
0.0976256
0.0978698
0.0981092
0.0983253
0.0984981
0.0986048
0.0986276
0.0985562
0.0983665
0.203138
0.184817
0.167477
0.155225
0.146122
0.138571
0.131829
0.125592
0.119828
0.114607
0.109985
0.10597
0.102533
0.0996261
0.0971919
0.0951743
0.0935281
0.0922137
0.0911883
0.0904098
0.0898374
0.0894341
0.0891696
0.0890193
0.0889597
0.0889666
0.0890161
0.0890859
0.0891552
0.0892051
0.0892233
0.0892054
0.089137
0.203324
0.184056
0.165342
0.151902
0.142074
0.134304
0.127719
0.121792
0.11627
0.111085
0.106247
0.10179
0.0977434
0.0941297
0.0909566
0.0882183
0.0859039
0.0839966
0.0824649
0.0812713
0.0803801
0.0797533
0.0793495
0.0791266
0.079044
0.0790629
0.0791479
0.0792679
0.0793974
0.0795157
0.0796102
0.0796764
0.0797055
0.203649
0.182596
0.162133
0.147382
0.136614
0.128118
0.120909
0.114411
0.10834
0.102601
0.0971988
0.0921757
0.0875845
0.0834739
0.0798838
0.0768355
0.0743295
0.0723502
0.0708666
0.0698335
0.0691986
0.0689022
0.0688789
0.0690627
0.0693916
0.0698092
0.0702665
0.0707231
0.0711473
0.0715159
0.0718152
0.0720398
0.0721863
0.204092
0.180598
0.157932
0.141609
0.129703
0.120312
0.112344
0.105178
0.0985053
0.0922186
0.0863208
0.0808694
0.0759419
0.0716135
0.0679487
0.0649906
0.0627513
0.061213
0.0603297
0.0600282
0.0602164
0.060792
0.0616501
0.0626908
0.0638249
0.0649762
0.0660827
0.067097
0.0679846
0.0687232
0.0693012
0.0697162
0.0699725
0.204685
0.177921
0.152565
0.134511
0.121445
0.111164
0.102416
0.0945372
0.087223
0.0803902
0.0740733
0.0683644
0.063378
0.0592234
0.0559856
0.0537117
0.0524008
0.0519999
0.0524104
0.0534972
0.0551036
0.057069
0.0592413
0.0614867
0.0636947
0.0657793
0.0676775
0.0693461
0.070759
0.0719031
0.0727763
0.0733841
0.0737404
0.205475
0.174359
0.145782
0.125877
0.111683
0.100596
0.0911892
0.082757
0.0750099
0.0678967
0.0614947
0.0559447
0.0514095
0.0480366
0.045924
0.0450975
0.0454981
0.0469858
0.0493602
0.0523876
0.055829
0.0594638
0.063105
0.0666055
0.0698586
0.0727934
0.0753683
0.0775636
0.0793757
0.0808116
0.0818853
0.0826147
0.0830236
0.206521
0.169635
0.137305
0.115563
0.100431
0.0887728
0.0789619
0.0702547
0.0623894
0.0553693
0.0493423
0.044524
0.0411336
0.0393337
0.0391817
0.0406047
0.0434065
0.0472987
0.0519472
0.0570182
0.0622141
0.0672944
0.0720829
0.0764637
0.0803717
0.0837798
0.0866878
0.0891117
0.0910772
0.0926124
0.0937464
0.0945089
0.0949318
0.207902
0.163388
0.126855
0.103489
0.0877766
0.0759146
0.0660715
0.0574869
0.0499549
0.0435684
0.0385765
0.0352746
0.0338995
0.0345457
0.0371205
0.0413536
0.0468491
0.053157
0.0598409
0.0665269
0.0729294
0.0788549
0.0841919
0.0888936
0.0929585
0.0964138
0.0993014
0.10167
0.103565
0.105026
0.106091
0.106801
0.107201
0.2097
0.155194
0.114249
0.0897638
0.0740354
0.0624825
0.053092
0.0451346
0.0385152
0.033464
0.0303378
0.0294487
0.0309273
0.0346548
0.0402772
0.0472826
0.0551026
0.063204
0.0711486
0.0786206
0.0854242
0.0914648
0.096723
0.101228
0.105037
0.108219
0.110842
0.11297
0.114656
0.115944
0.116878
0.117504
0.117874
0.211979
0.144654
0.0995432
0.0747831
0.0597744
0.0491325
0.0407522
0.0340293
0.0290526
0.0261957
0.025831
0.0281218
0.0329217
0.0397954
0.0481228
0.0572306
0.0665046
0.0754591
0.0837616
0.091224
0.0977741
0.103421
0.108223
0.112262
0.11563
0.118411
0.120682
0.122504
0.123935
0.125023
0.125811
0.126343
0.12667
0.214736
0.131604
0.0832313
0.0593226
0.0458382
0.0367326
0.0299845
0.025233
0.02276
0.0229584
0.0260103
0.031744
0.0396572
0.0490436
0.0591499
0.0693041
0.0789913
0.0878755
0.0957828
0.102665
0.108556
0.113538
0.117714
0.121191
0.124065
0.126421
0.128329
0.129852
0.131045
0.131955
0.132619
0.133078
0.133373
0.217816
0.116489
0.0664303
0.044557
0.0333249
0.026374
0.0219756
0.0200312
0.0208555
0.0246184
0.0311277
0.0398407
0.0500013
0.060811
0.0715681
0.0817464
0.0910154
0.0992168
0.106321
0.112382
0.117495
0.121777
0.125339
0.128288
0.13071
0.132683
0.134275
0.135547
0.136547
0.137317
0.13789
0.138297
0.138572
0.220832
0.100843
0.0509687
0.0320394
0.0236294
0.0194714
0.0181729
0.0196981
0.0241262
0.0312412
0.0404904
0.0511097
0.0622949
0.0733447
0.0837418
0.0931704
0.101489
0.108685
0.11482
0.120001
0.124345
0.127968
0.130971
0.133445
0.135473
0.137127
0.138471
0.139555
0.140423
0.141109
0.14164
0.142038
0.142323
0.223143
0.0875958
0.0393691
0.0237671
0.018569
0.0177279
0.0199433
0.0249633
0.0325046
0.0420241
0.0527874
0.0640233
0.0750623
0.0854164
0.0947944
0.103073
0.110248
0.116387
0.121593
0.125976
0.129648
0.132711
0.135251
0.137348
0.139076
0.140499
0.141671
0.142634
0.143425
0.144068
0.144582
0.144978
0.145261
0.223991
0.0806227
0.0345876
0.0220662
0.0200445
0.0224598
0.0278103
0.0355101
0.044973
0.0554987
0.0663745
0.0769943
0.0869269
0.0959238
0.103888
0.110825
0.116802
0.121913
0.126257
0.129922
0.133
0.135578
0.137733
0.139535
0.141046
0.142315
0.143388
0.144297
0.145062
0.145692
0.146198
0.146596
0.146895
0.2228
0.0834472
0.0394046
0.0289741
0.0293292
0.0341241
0.0414715
0.0504532
0.0603169
0.0703968
0.0801693
0.0892857
0.0975595
0.104928
0.111409
0.11706
0.121954
0.126173
0.129795
0.132889
0.135524
0.137761
0.139656
0.141258
0.14261
0.143753
0.144718
0.145533
0.146219
0.146789
0.147255
0.147629
0.147919
0.219623
0.0968727
0.0546374
0.044795
0.0460751
0.0517406
0.0594229
0.0679465
0.076566
0.0848153
0.0924479
0.0993724
0.105589
0.11114
0.116084
0.120467
0.12433
0.127724
0.130698
0.1333
0.135574
0.137561
0.13929
0.14078
0.14206
0.143158
0.144101
0.144911
0.145605
0.146197
0.146699
0.147121
0.14747
0.215132
0.118455
0.0793217
0.0690699
0.0697295
0.0744654
0.080583
0.0868738
0.0928129
0.0982445
0.103191
0.107731
0.111938
0.11586
0.119518
0.122913
0.126041
0.128895
0.131476
0.13379
0.135849
0.13767
0.139275
0.140683
0.141915
0.142992
0.143932
0.14475
0.145459
0.146073
0.146599
0.14705
0.147432
0.210838
0.14047
0.106232
0.0954669
0.0944
0.0966996
0.0997149
0.102454
0.10474
0.106736
0.10867
0.110703
0.11291
0.115288
0.117791
0.120354
0.122905
0.125379
0.127721
0.129897
0.131887
0.13369
0.135319
0.136791
0.138125
0.139339
0.140446
0.141456
0.142378
0.143216
0.143973
0.144656
0.145266
0.207235
0.159876
0.132553
0.121532
0.117322
0.115164
0.113342
0.111576
0.110119
0.109263
0.109154
0.109792
0.111082
0.112888
0.115058
0.117455
0.119958
0.122472
0.124924
0.127265
0.129465
0.131509
0.133395
0.135127
0.136713
0.138163
0.139487
0.140694
0.141791
0.142785
0.14368
0.144483
0.1452
0.20558
0.168948
0.142995
0.12886
0.120541
0.114613
0.10972
0.105571
0.102319
0.100132
0.0990393
0.0989597
0.0997506
0.101246
0.103278
0.105689
0.108337
0.111107
0.113905
0.116662
0.119326
0.121866
0.124262
0.126504
0.128588
0.130516
0.132292
0.133919
0.135405
0.136753
0.13797
0.13906
0.140031
0.204586
0.174961
0.14801
0.127076
0.110398
0.0990557
0.093265
0.0904521
0.0885432
0.0876257
0.0877794
0.0888535
0.0906443
0.0929732
0.0956895
0.0986625
0.10178
0.104947
0.108088
0.111147
0.11408
0.11686
0.119471
0.121903
0.124155
0.126227
0.128123
0.12985
0.131412
0.132815
0.134063
0.135162
0.13612
0.206463
0.166047
0.120529
0.0848128
0.0630974
0.0524899
0.050451
0.0562394
0.0649857
0.0717111
0.0755581
0.077511
0.078827
0.0802837
0.0821382
0.0843724
0.0868931
0.0896115
0.0924543
0.0953581
0.0982667
0.101131
0.103911
0.106575
0.109096
0.111456
0.113642
0.115643
0.117453
0.119066
0.120478
0.121688
0.1227
0.21303
0.131515
0.0703091
0.0400161
0.0270514
0.0219706
0.0213213
0.0251138
0.0319985
0.0388237
0.0440021
0.0477716
0.0509931
0.0542994
0.0578791
0.061629
0.065354
0.0688837
0.0721095
0.074984
0.0775049
0.079697
0.081597
0.0832426
0.084665
0.0858864
0.0869207
0.0877754
0.0884544
0.0889596
0.0892935
0.0894508
0.0894776
0.218529
0.105796
0.0490257
0.0272646
0.0187598
0.0148428
0.0125767
0.0109951
0.00971988
0.0086066
0.00762537
0.00678284
0.00608436
0.00552253
0.00508092
0.00474071
0.00448517
0.00430148
0.00418053
0.00411572
0.00410306
0.00414173
0.00422318
0.00431919
0.00441573
0.00450923
0.00459869
0.00468351
0.00476277
0.00483561
0.00489948
0.00495862
0.00499601
0.211812
0.14129
0.0955648
0.0709175
0.0574127
0.0494161
0.0442724
0.0407421
0.0382015
0.0363136
0.0348783
0.0337628
0.0328795
0.0321689
0.0315835
0.0310838
0.0306408
0.0302338
0.0298466
0.0294659
0.0290821
0.0286882
0.0282731
0.027819
0.0273145
0.0267561
0.0261441
0.0254812
0.0247714
0.0240198
0.0232311
0.022415
0.0215531
0.240235
0.000526367
0.0374208
0.0338934
0.000768218
0.000556185
0.000111141
0.000276698
0.000346383
0.000574004
0.00114754
0.00152903
0.00140099
0.00118835
0.00124886
0.00145298
0.00164113
0.00183785
0.00210199
0.00243173
0.0027969
0.00318015
0.00358109
0.00400485
0.00445433
0.00492952
0.00542909
0.0059514
0.00649484
0.00705776
0.0076384
0.0082349
0.00884522
0.200086
0.199959
0.199792
0.19964
0.19951
0.1994
0.199306
0.199229
0.199168
0.199123
0.199095
0.199084
0.199091
0.199115
0.199156
0.199215
0.199289
0.199379
0.199483
0.1996
0.199729
0.199867
0.200015
0.200169
0.200329
0.200494
0.200661
0.200831
0.201
0.201169
0.201336
0.201502
0.20165
0.199875
0.199558
0.199208
0.198839
0.198458
0.198069
0.197675
0.197276
0.196871
0.196461
0.196044
0.195621
0.195191
0.194753
0.194308
0.193857
0.193399
0.192936
0.192468
0.191996
0.191521
0.191046
0.19057
0.190094
0.189621
0.189151
0.188686
0.188226
0.187772
0.187326
0.186888
0.186459
0.18604
0.128804
0.131208
0.131769
0.131202
0.129848
0.130527
0.134641
0.138583
0.139096
0.137006
0.134194
0.133853
0.140499
0.143771
0.121938
0.0748285
0.030206
0.013039
0.0267439
0.0565991
0.0868749
0.109867
0.124511
0.132383
0.135205
0.13413
0.12985
0.122827
0.113007
0.0991562
0.0805815
0.0615755
0.0508974
0.0549552
0.0705671
0.0847305
0.0952823
0.106595
0.105694
0.0932492
0.0973732
0.120383
0.150631
0.207824
0.269724
0.292111
0.269671
0.218456
0.169571
0.145867
0.138796
0.130294
0.114309
0.099305
0.0998783
0.116739
0.138648
0.152833
0.15482
0.148994
0.141544
0.132435
0.116503
0.0983639
0.0848971
0.0701133
0.0848295
0.162219
0.251301
0.310248
0.352467
0.394318
0.427491
0.42782
0.407616
0.377012
0.301303
0.193936
0.113546
0.0762294
0.0614277
0.0539232
0.0519656
0.0579035
0.0717763
0.0901697
0.107578
0.118172
0.120194
0.115454
0.105962
0.0902211
0.0641225
0.0314962
0.0111299
0.0174023
0.0371874
0.0459791
0.0468041
0.0418275
0.176
0.174951
0.174048
0.17339
0.172181
0.169765
0.166529
0.163323
0.160438
0.157733
0.156162
0.154834
0.144432
0.115449
0.0706241
0.0294596
0.0104879
0.0190634
0.0455639
0.0762489
0.102133
0.12031
0.131538
0.137592
0.139832
0.138923
0.135046
0.128215
0.118251
0.104238
0.0853968
0.0650531
0.0515622
0.0523321
0.0662086
0.0813345
0.0927369
0.104973
0.107936
0.0980233
0.0987797
0.119202
0.152722
0.215089
0.284331
0.316653
0.299372
0.243407
0.183859
0.152251
0.143764
0.136158
0.120193
0.102551
0.0989736
0.113215
0.135259
0.151349
0.155143
0.149924
0.142441
0.134673
0.121431
0.102948
0.0883816
0.0738345
0.0750974
0.134571
0.225049
0.294444
0.339318
0.374768
0.398393
0.39927
0.388114
0.351692
0.263372
0.161662
0.0984983
0.073413
0.0631646
0.0566027
0.054531
0.0598762
0.0728042
0.0901984
0.106639
0.116446
0.117952
0.112511
0.101522
0.0847968
0.0601186
0.030922
0.0122308
0.0196254
0.0393435
0.0459445
0.04488
0.0374585
0.0380636
0.0376533
0.0376618
0.0403312
0.0484675
0.0624732
0.079258
0.0947533
0.106115
0.112117
0.111517
0.0998665
0.0748991
0.0429685
0.0167936
0.0060067
0.0146053
0.0382883
0.0677315
0.0946558
0.114978
0.12846
0.1367
0.141328
0.143241
0.142635
0.139277
0.132808
0.122904
0.1089
0.090065
0.0688188
0.0528091
0.0502345
0.0618862
0.077508
0.0897852
0.102649
0.109126
0.102524
0.100649
0.117572
0.153045
0.219568
0.296145
0.339746
0.329326
0.27058
0.200721
0.159845
0.148615
0.141968
0.126235
0.106531
0.098974
0.110273
0.131967
0.149656
0.155246
0.150775
0.14316
0.136123
0.125607
0.108104
0.0919134
0.0781969
0.0706495
0.109032
0.192802
0.27118
0.323118
0.357199
0.375722
0.378535
0.36785
0.316688
0.220067
0.132167
0.0882604
0.0737493
0.0664959
0.0599601
0.0571397
0.0615304
0.0734633
0.0899546
0.105466
0.114576
0.115653
0.109718
0.0977599
0.079967
0.0562032
0.030311
0.0141895
0.0233178
0.0428459
0.0469719
0.0437585
0.0340559
0.00256221
0.00233967
0.002086
0.00191737
0.0022405
0.00418271
0.00895119
0.0161564
0.0233958
0.0273197
0.0251644
0.0178967
0.00700962
8.59995e-05
0.0023681
0.0147661
0.036403
0.0632967
0.0893817
0.110212
0.124688
0.134027
0.139975
0.143692
0.145544
0.145335
0.142544
0.136545
0.126873
0.113049
0.0944854
0.0728024
0.0546646
0.0487553
0.0577382
0.0733216
0.0864519
0.0996771
0.10914
0.106369
0.102979
0.115718
0.151286
0.220426
0.303576
0.358383
0.356213
0.297405
0.219075
0.1686
0.153493
0.14764
0.132351
0.111052
0.0998014
0.107956
0.12887
0.14783
0.155146
0.151538
0.143782
0.136949
0.128781
0.113497
0.0959076
0.0823844
0.0708123
0.0888804
0.157185
0.238918
0.299957
0.337514
0.355719
0.359057
0.338891
0.270356
0.175495
0.108867
0.08354
0.0766057
0.0704939
0.063166
0.059232
0.0625593
0.0736156
0.0893425
0.104033
0.112539
0.113259
0.106961
0.0944217
0.0759551
0.0527766
0.0296852
0.0168542
0.0277549
0.0458434
0.0472206
0.0423925
0.0311964
0.00156746
0.00151883
0.00142492
0.00127836
0.000687376
0.000407027
0.000775689
0.000132774
0.00212611
0.00407753
0.00463278
0.00281481
0.00229822
0.0073213
0.019871
0.0398028
0.0640743
0.087901
0.107461
0.121471
0.130799
0.137089
0.141626
0.144935
0.14692
0.147128
0.14488
0.139392
0.130072
0.116575
0.0985122
0.0768679
0.0571095
0.0479977
0.0539306
0.0688711
0.0827678
0.0961419
0.107914
0.109213
0.105645
0.113957
0.147446
0.217021
0.305035
0.369761
0.37667
0.320783
0.237121
0.178046
0.158469
0.152968
0.138413
0.115919
0.101339
0.106288
0.126076
0.145972
0.154876
0.152195
0.144352
0.137346
0.130858
0.118577
0.100671
0.0861485
0.0739293
0.0764818
0.122819
0.198443
0.266061
0.309877
0.330933
0.33076
0.294396
0.215358
0.135566
0.0939952
0.0835531
0.0805542
0.0739446
0.0653532
0.0603013
0.0627783
0.0732308
0.0883493
0.102329
0.110291
0.110694
0.104153
0.0913225
0.0727069
0.0502354
0.0294447
0.0200437
0.0324031
0.0479955
0.046641
0.040445
0.0282963
0.00120396
0.0014776
0.00190009
0.00238081
0.00280447
0.0030884
0.00324465
0.00325331
0.00346525
0.00423387
0.00644184
0.0112251
0.0198736
0.0333527
0.0513516
0.0717662
0.0914327
0.107713
0.119627
0.127803
0.133589
0.138161
0.142088
0.145349
0.147555
0.148136
0.146363
0.141369
0.132469
0.119402
0.102015
0.0808546
0.060082
0.0480515
0.0506484
0.0642927
0.0787757
0.0921686
0.105454
0.110837
0.108422
0.112643
0.141877
0.209106
0.299319
0.371736
0.387816
0.337636
0.252647
0.187331
0.163485
0.157925
0.144359
0.120957
0.103446
0.105254
0.123666
0.144178
0.154484
0.152733
0.144877
0.13748
0.131935
0.122787
0.106162
0.0898704
0.0779705
0.0720403
0.0953876
0.15431
0.220419
0.268824
0.292341
0.283991
0.233856
0.160015
0.106304
0.0878775
0.0865585
0.0840973
0.0759035
0.0659862
0.0601264
0.0621783
0.0723601
0.0870278
0.100371
0.107801
0.107919
0.101275
0.0884318
0.0700447
0.0485607
0.0298754
0.0236091
0.0364634
0.0487744
0.0448621
0.0376933
0.0252133
0.0372374
0.0367817
0.036783
0.036904
0.0367958
0.0363276
0.0356408
0.0351164
0.0353498
0.0372005
0.0413404
0.04837
0.0585378
0.0713809
0.0855227
0.0990883
0.110496
0.1191
0.125266
0.129926
0.133986
0.137936
0.141779
0.145172
0.147605
0.148487
0.147095
0.142543
0.134081
0.121498
0.10489
0.0845858
0.0634679
0.0489803
0.0480894
0.0597672
0.0745354
0.0879106
0.101875
0.11096
0.110912
0.112047
0.135275
0.197001
0.285968
0.363157
0.387748
0.345491
0.263453
0.195345
0.168322
0.162532
0.149995
0.126004
0.105968
0.104809
0.121699
0.142537
0.154026
0.15315
0.145342
0.137466
0.132226
0.125744
0.111879
0.0942702
0.0815822
0.07314
0.0790927
0.114733
0.16797
0.213816
0.23494
0.217935
0.167583
0.115879
0.0909407
0.0884908
0.090243
0.0859566
0.0758225
0.0649031
0.0587678
0.0609144
0.0711488
0.0854791
0.0981719
0.105017
0.104865
0.098262
0.0856737
0.0678297
0.0475144
0.0307722
0.0268682
0.0392491
0.0483376
0.0425729
0.0347784
0.0222548
0.0738718
0.0730776
0.0727257
0.0728356
0.0731193
0.0733756
0.0736038
0.0740585
0.07522
0.0774705
0.081178
0.0864741
0.093135
0.100522
0.107744
0.114014
0.11898
0.122821
0.126086
0.129358
0.132985
0.136958
0.140972
0.144557
0.147187
0.148295
0.147194
0.143012
0.134964
0.122873
0.107077
0.0878897
0.0670945
0.0507962
0.0464539
0.0555222
0.0701279
0.0835308
0.0974321
0.109378
0.112765
0.112287
0.128601
0.181707
0.265503
0.344058
0.375821
0.34293
0.267812
0.200971
0.172654
0.166786
0.155151
0.130905
0.108735
0.104882
0.120208
0.141129
0.153561
0.153452
0.145725
0.137361
0.131976
0.127363
0.117019
0.0997773
0.0848405
0.0760692
0.0736777
0.0880825
0.120346
0.153877
0.166593
0.147852
0.113993
0.0913623
0.0878646
0.0921287
0.0924532
0.0854042
0.0736525
0.0623311
0.0565464
0.0592822
0.0698035
0.083793
0.0957108
0.101857
0.101437
0.0950198
0.082939
0.0659053
0.0468713
0.031872
0.029472
0.0405071
0.0466664
0.039717
0.0317082
0.0194892
0.0975319
0.0967755
0.096379
0.0965026
0.0970318
0.097807
0.0987434
0.0998491
0.101178
0.10283
0.104886
0.107331
0.110033
0.112769
0.115308
0.117539
0.119562
0.121665
0.124195
0.127385
0.131237
0.135511
0.13979
0.143582
0.146381
0.14766
0.146771
0.142879
0.135199
0.123571
0.108555
0.0906206
0.070741
0.0534302
0.0459221
0.0518331
0.0656634
0.0791734
0.0924982
0.106089
0.113356
0.113323
0.122965
0.165025
0.239562
0.315728
0.352722
0.329829
0.264861
0.203374
0.176138
0.170639
0.159776
0.135437
0.111567
0.105387
0.119205
0.140019
0.153149
0.153657
0.146001
0.13718
0.131385
0.127812
0.120863
0.106012
0.0889045
0.0784376
0.0741828
0.0768232
0.089796
0.106112
0.109703
0.0984437
0.0869572
0.0857426
0.0913078
0.0949214
0.0918529
0.0823817
0.0697811
0.0587733
0.0539281
0.0576166
0.0684956
0.0819949
0.0929175
0.0982127
0.0975183
0.0914343
0.0801126
0.064142
0.0464762
0.0329745
0.0312098
0.0402552
0.0440133
0.0365942
0.0286973
0.016989
0.101433
0.101078
0.100928
0.101133
0.10169
0.102519
0.103534
0.104673
0.1059
0.107191
0.108527
0.109864
0.111152
0.112355
0.113496
0.114693
0.116171
0.118203
0.121007
0.124649
0.128984
0.133678
0.138275
0.14229
0.145249
0.146659
0.145918
0.142239
0.134867
0.123658
0.109347
0.0926785
0.0741665
0.0567124
0.0466114
0.049017
0.0613037
0.0749297
0.0875108
0.10139
0.112109
0.114533
0.11925
0.149136
0.21088
0.280746
0.320477
0.307424
0.254791
0.202249
0.178539
0.174017
0.1638
0.139464
0.114298
0.106224
0.11868
0.139252
0.152839
0.153783
0.146143
0.136907
0.130581
0.127383
0.123087
0.111913
0.0946209
0.0806923
0.075152
0.0749708
0.0785406
0.0830388
0.0832495
0.0815823
0.08387
0.089836
0.0945898
0.0943238
0.088178
0.0773763
0.0648431
0.0548176
0.0513534
0.0561596
0.0672864
0.0800273
0.0896837
0.0939654
0.0929926
0.0873896
0.0770765
0.0624096
0.0461782
0.0339189
0.0321007
0.0388094
0.0406142
0.0332097
0.0257096
0.0147368
0.0981675
0.0980141
0.0980257
0.0982925
0.0988355
0.0996161
0.100568
0.101619
0.102701
0.103753
0.10473
0.105602
0.106378
0.107129
0.107998
0.109193
0.11096
0.113518
0.116988
0.121322
0.126286
0.131489
0.136458
0.140719
0.143833
0.145348
0.144701
0.141166
0.134041
0.1232
0.109503
0.09402
0.0771475
0.0603755
0.0485187
0.0473944
0.0572975
0.0708253
0.0828642
0.095883
0.108772
0.114893
0.117672
0.136299
0.183061
0.24294
0.28244
0.278262
0.239029
0.197965
0.179817
0.17685
0.167134
0.142845
0.11678
0.107249
0.118557
0.138825
0.152656
0.153835
0.146128
0.136509
0.129628
0.126355
0.123783
0.11642
0.101444
0.0847107
0.0753022
0.0741404
0.076621
0.0792098
0.081439
0.0846353
0.0892477
0.0929308
0.0933549
0.0896959
0.0820019
0.0711121
0.0594636
0.0509341
0.049096
0.0549883
0.0661149
0.0777732
0.0858946
0.089019
0.0877704
0.0827894
0.0737215
0.0605863
0.0458515
0.0345998
0.0322333
0.0365088
0.036774
0.0297578
0.0228542
0.0127537
0.089101
0.0891321
0.089284
0.0896108
0.0901377
0.0908552
0.0917274
0.0927045
0.0937314
0.0947591
0.0957547
0.0967092
0.097666
0.0987339
0.100083
0.101928
0.104488
0.107931
0.112306
0.117495
0.123199
0.128986
0.134371
0.138898
0.142165
0.143761
0.143165
0.139712
0.132775
0.122257
0.109092
0.0946579
0.0795061
0.0640938
0.0514844
0.0472136
0.0540023
0.0668635
0.0787738
0.0903693
0.103639
0.113385
0.11731
0.127881
0.159763
0.206957
0.243087
0.245986
0.220043
0.19156
0.18016
0.179072
0.16967
0.145448
0.118884
0.108334
0.118738
0.138672
0.152536
0.153756
0.145925
0.135941
0.128537
0.124932
0.123264
0.119031
0.107863
0.0911163
0.0770511
0.0717918
0.073552
0.0779959
0.0827652
0.0867212
0.0891306
0.0891985
0.0867698
0.0818562
0.0742011
0.0642025
0.0540513
0.0473658
0.0472311
0.0540364
0.0648463
0.0751064
0.0814719
0.0833358
0.08182
0.077577
0.0699523
0.0585447
0.0453623
0.0349305
0.031725
0.0336443
0.0326631
0.0262319
0.020086
0.0110041
0.0797591
0.0798521
0.0800062
0.0802586
0.0806373
0.0811538
0.0818035
0.0825701
0.0834312
0.0843684
0.0853749
0.0864679
0.0877145
0.0892388
0.091215
0.0938453
0.097319
0.101754
0.107132
0.113261
0.119776
0.1262
0.132034
0.136843
0.140262
0.141921
0.141339
0.137915
0.13111
0.12088
0.108186
0.0946501
0.0811475
0.0675501
0.0552035
0.0485614
0.0518437
0.0631369
0.0751947
0.0855832
0.0975968
0.109532
0.116492
0.12348
0.143293
0.177131
0.207271
0.214806
0.200786
0.184477
0.179927
0.180619
0.171277
0.147153
0.120515
0.109413
0.119208
0.138814
0.152508
0.153543
0.145473
0.135151
0.127279
0.123229
0.121857
0.119799
0.11259
0.0985235
0.0821793
0.0711586
0.0683635
0.0712069
0.0756769
0.0790194
0.0801787
0.0792
0.0765273
0.0720973
0.0654515
0.05696
0.0487572
0.0441605
0.0457033
0.0531723
0.0633392
0.0719406
0.0764098
0.0769662
0.0751949
0.0717576
0.0657044
0.0561693
0.0445966
0.0348741
0.0307121
0.0304457
0.0284414
0.022702
0.0174172
0.00945917
0.0723035
0.072378
0.0724119
0.0724382
0.0724927
0.0726093
0.0728174
0.0731422
0.0736063
0.0742353
0.0750607
0.0761348
0.0775497
0.0794416
0.081984
0.0853636
0.0897366
0.095168
0.101571
0.108673
0.116037
0.123133
0.129447
0.134556
0.13813
0.139838
0.139241
0.135802
0.12908
0.11911
0.106857
0.0940868
0.0820617
0.0704932
0.0592896
0.0513108
0.0511964
0.0599337
0.0719047
0.0818702
0.0918633
0.103794
0.113734
0.120987
0.133498
0.155936
0.178907
0.188552
0.184047
0.178146
0.179486
0.181398
0.171806
0.147864
0.121612
0.110426
0.11994
0.13925
0.152568
0.153184
0.144744
0.134087
0.125797
0.121283
0.119818
0.119037
0.115124
0.104971
0.0896487
0.0748718
0.0659314
0.0634144
0.0645918
0.0664133
0.0672396
0.0666883
0.0648249
0.0613975
0.0560898
0.0494791
0.0435967
0.0412807
0.0444162
0.0522655
0.0614898
0.0682589
0.0707979
0.0700726
0.0680604
0.06543
0.0609765
0.0533821
0.0434713
0.0344302
0.0293324
0.0270851
0.0241928
0.0191529
0.0147851
0.00805088
0.0701064
0.0700647
0.0698362
0.0694505
0.0689496
0.0683855
0.0678185
0.0673159
0.0669521
0.0668073
0.0669684
0.0675407
0.06866
0.0704931
0.073229
0.0770523
0.0820944
0.0883692
0.0957127
0.103759
0.111978
0.119773
0.126596
0.132029
0.135768
0.137518
0.136883
0.133392
0.126715
0.116984
0.105168
0.0930752
0.082313
0.0727732
0.0633629
0.0551537
0.0522451
0.0577195
0.0687621
0.0790327
0.0874372
0.0975102
0.108654
0.117925
0.127931
0.142969
0.159591
0.169537
0.171703
0.173553
0.179012
0.181231
0.171099
0.147532
0.122134
0.111331
0.120916
0.139977
0.152701
0.152653
0.143707
0.132687
0.124014
0.119054
0.11729
0.117091
0.115538
0.109271
0.0971205
0.0819604
0.0687846
0.0605828
0.0569706
0.0558753
0.0554665
0.0547169
0.0531408
0.05038
0.0463782
0.041876
0.0385994
0.038681
0.0432675
0.0512036
0.0592442
0.0641252
0.0648351
0.0629501
0.0607254
0.0588291
0.0558811
0.0501929
0.0419721
0.0336605
0.0277696
0.0237846
0.0200938
0.0156858
0.0122052
0.00672999
0.0738763
0.0736928
0.0731607
0.0722978
0.0711389
0.0697369
0.0681654
0.0665204
0.0649212
0.0635061
0.0624324
0.0618835
0.0620699
0.0632243
0.065586
0.0693672
0.0746944
0.0815369
0.0896469
0.0985482
0.107596
0.1161
0.123461
0.129247
0.133167
0.134957
0.134268
0.130704
0.124044
0.11454
0.103176
0.0917224
0.0820183
0.0743451
0.067114
0.0596914
0.0549207
0.0569503
0.0659351
0.0765429
0.0845715
0.0922554
0.102257
0.112926
0.123331
0.135322
0.148052
0.157763
0.164109
0.17086
0.1783
0.179821
0.169024
0.146189
0.122072
0.112096
0.122131
0.140983
0.152874
0.151906
0.142322
0.130897
0.121845
0.116442
0.114293
0.11422
0.114135
0.111077
0.102792
0.0898196
0.0755179
0.0634639
0.0552004
0.0502116
0.0471666
0.0448523
0.0424929
0.0397502
0.0368145
0.0344488
0.0338658
0.0363087
0.0421316
0.0498798
0.056598
0.0596933
0.0588422
0.0560409
0.0536658
0.0523658
0.0506988
0.0467499
0.0401834
0.0326936
0.0262482
0.0207943
0.0163469
0.0124258
0.00970744
0.00545059
0.0831396
0.0828251
0.0820312
0.0807522
0.0789969
0.0767937
0.0741987
0.0713056
0.0682503
0.0652126
0.0624194
0.060148
0.0587167
0.0584695
0.0597488
0.0628436
0.0679144
0.0749088
0.0834995
0.0930873
0.102889
0.112093
0.120015
0.126186
0.130311
0.132147
0.131398
0.127749
0.121094
0.111812
0.100927
0.0901213
0.0813178
0.0752507
0.0703294
0.0645357
0.0589786
0.0578886
0.0638737
0.0740123
0.0826991
0.0889478
0.0963664
0.106371
0.117535
0.129287
0.140927
0.151002
0.159913
0.169141
0.176673
0.176781
0.16556
0.143985
0.121434
0.112702
0.123599
0.142258
0.153033
0.150882
0.140537
0.128654
0.119185
0.113305
0.110725
0.110534
0.111238
0.110506
0.105843
0.0962731
0.0832991
0.0698524
0.0583242
0.0495448
0.0430885
0.0381106
0.0339605
0.0305069
0.0281808
0.0276623
0.029535
0.0340744
0.0408429
0.048194
0.0536093
0.0552185
0.0532628
0.0499251
0.0475159
0.0466383
0.0459099
0.0433818
0.038329
0.0317529
0.0250512
0.0184091
0.0132177
0.00957759
0.00740459
0.00421945
0.095047
0.094694
0.0938014
0.0923333
0.0902585
0.087557
0.0842349
0.0803411
0.0759817
0.0713354
0.0666727
0.0623554
0.0588242
0.0565736
0.0561042
0.0578456
0.0620522
0.0686955
0.0773945
0.08743
0.0978639
0.107732
0.116231
0.12282
0.127178
0.129076
0.128272
0.12454
0.117894
0.108836
0.0984547
0.0883411
0.08035
0.0755894
0.0728721
0.0693275
0.064106
0.0605921
0.0630868
0.0715229
0.0809541
0.0873577
0.0924674
0.0999517
0.110414
0.122395
0.134537
0.145825
0.156533
0.16665
0.173143
0.171813
0.160934
0.141189
0.120185
0.113157
0.125374
0.143783
0.153098
0.149501
0.138287
0.12588
0.115907
0.109463
0.106391
0.105961
0.107034
0.107835
0.106108
0.10015
0.0899709
0.0773147
0.0644567
0.0529422