/*--------------------------------*- C++ -*----------------------------------*\
  =========                 |
  \\      /  F ield         | OpenFOAM: The Open Source CFD Toolbox
   \\    /   O peration     | Website:  https://openfoam.org
    \\  /    A nd           | Version:  10
     \\/     M anipulation  |
\*---------------------------------------------------------------------------*/
FoamFile
{
    format      ascii;
    class       volScalarField;
    location    "0.165";
    object      nut;
}
// * * * * * * * * * * * * * * * * * * * * * * * * * * * * * * * * * * * * * //

dimensions      [0 2 -1 0 0 0 0];

internalField   nonuniform List<scalar> 
6820
(
0
0
0
0
0
0
0
0
0
0
0
0
0
0
0
0
0
0
0
0
0
0
0
0
0
0
0
0
0
0
0
0
6.54755e-08
0
0
0
0
0
0
0
0
0
0
0
0
0
0
0
0
0
0
0
0
0
0
0
0
0
0
0
0
0
0
0
0
1.99033e-08
0
0
0
0
0
0
0
0
0
0
0
0
0
0
0
0
0
0
0
0
0
0
0
0
0
0
0
0
0
0
0
0
0
0
0
0
0
0
0
0
0
0
0
0
0
0
0
0
0
0
0
0
0
0
0
0
0
0
0
0
0
0
0
0
0
0
1.52712e-05
0
0
0
0
0
0
0
0
0
0
0
0
0
0
0
0
0
0
0
0
0
0
0
0
0
0
0
0
0
0
0
0
5.98534e-06
4.17885e-05
3.26404e-05
1.89839e-05
8.59215e-06
2.54082e-06
0
0
0
0
0
0
0
0
0
0
0
0
0
0
0
0
0
0
0
0
0
0
0
0
0
0
0
0
9.71847e-06
1.78163e-05
2.29207e-05
2.1959e-05
1.98142e-05
1.78178e-05
1.56888e-05
1.35233e-05
1.14787e-05
9.58626e-06
7.84996e-06
6.27686e-06
4.86726e-06
3.61648e-06
2.51758e-06
1.56303e-06
7.44288e-07
5.02575e-08
0
0
0
0
0
0
0
0
0
0
0
0
0
0
0
3.71556e-06
4.4083e-06
1.15272e-05
1.43367e-05
1.43373e-05
1.36047e-05
1.23071e-05
1.06991e-05
9.03094e-06
7.38525e-06
5.7969e-06
4.30027e-06
2.91848e-06
1.66357e-06
5.39322e-07
0
0
0
0
0
0
0
0
0
0
0
0
0
0
0
0
0
0
2.28683e-06
0
0
2.58687e-06
4.6836e-06
6.38151e-06
7.11056e-06
6.95411e-06
6.27895e-06
5.30337e-06
4.15748e-06
2.94614e-06
1.74419e-06
6.00726e-07
0
0
0
0
0
0
0
0
0
0
0
0
0
0
0
0
0
0
0
1.38912e-06
0
0
0
0
0
0
0
0
0
0
0
0
0
0
0
0
0
0
0
0
0
0
0
0
0
0
0
0
0
0
0
0
6.80158e-07
0
0
0
0
0
0
0
0
0
0
0
0
0
0
0
0
0
0
0
0
0
0
0
0
0
0
0
0
0
0
0
0
4.15637e-08
0
0
0
0
0
0
0
0
0
0
0
0
0
0
0
0
0
0
0
0
0
0
0
0
0
0
0
0
0
0
0
0
0
0
0
0
0
0
0
0
0
0
0
0
0
0
0
0
0
0
0
0
0
0
0
0
0
0
0
0
0
0
0
0
0
0
0
0
0
0
0
0
0
0
0
0
0
0
0
0
0
0
0
0
0
0
0
0
0
0
0
0
0
0
0
0
0
0
0
0
0
0
0
0
0
0
0
0
0
0
0
0
0
0
0
0
0
0
0
0
0
0
0
0
0
0
0
0
0
0
0
0
0
0
0
0
0
0
0
0
0
0
0
0
0
0
0
0
0
0
0
0
0
0
0
0
0
0
0
0
0
0
0
0
0
0
0
0
0
0
0
0
0
0
0
0
0
0
0
0
0
0
0
0
0
0
0
0
0
0
0
0
0
0
0
0
0
0
0
0
0
0
0
0
0
0
0
0
0
0
0
0
0
0
0
0
0
0
0
0
0
0
0
0
0
0
4.34858e-08
0
0
0
0
0
0
0
0
0
0
0
0
0
0
0
0
0
0
0
0
0
0
0
0
0
0
0
0
0
0
0
3.03478e-07
5.81652e-07
5.06629e-07
0
0
0
0
0
0
0
0
0
0
0
0
0
0
0
0
0
0
0
0
0
0
0
0
0
0
0
0
0
2.68469e-07
5.6732e-07
8.1826e-07
7.52471e-07
0
0
0
0
0
0
0
0
0
0
0
0
0
0
0
0
0
0
0
0
0
0
0
0
0
0
0
1.32737e-07
4.1842e-07
6.84077e-07
9.26996e-07
1.12041e-06
1.04611e-06
2.70573e-07
0
0
0
0
0
0
0
0
0
0
0
0
0
0
0
0
0
0
0
0
0
0
0
0
0
1.59934e-07
4.1246e-07
6.42058e-07
8.46316e-07
1.02233e-06
1.15032e-06
1.06914e-06
4.65128e-07
0
0
0
0
0
0
0
0
0
0
0
0
0
0
0
0
0
0
0
0
0
0
0
0
2.09033e-07
4.2442e-07
6.13091e-07
7.73404e-07
9.03248e-07
9.99873e-07
1.05135e-06
9.60337e-07
5.40237e-07
0
0
0
0
0
0
0
0
0
0
0
0
0
0
0
0
0
0
0
0
0
0
1.20498e-07
3.15508e-07
4.7993e-07
6.13702e-07
7.16183e-07
7.8615e-07
8.22158e-07
8.21946e-07
7.82049e-07
6.73283e-07
4.42197e-07
0
0
0
0
0
0
0
0
0
0
0
0
0
0
0
0
0
0
0
0
0
0
1.53655e-07
2.74847e-07
3.62694e-07
4.17202e-07
4.37945e-07
4.24059e-07
3.74534e-07
2.87404e-07
1.67882e-07
5.71659e-08
4.688e-08
0
0
0
0
0
0
0
0
0
0
0
0
0
0
0
0
0
0
0
1.68883e-07
3.07017e-07
4.02447e-07
4.57532e-07
4.74165e-07
4.53618e-07
3.96685e-07
3.03742e-07
1.74578e-07
8.83319e-09
0
0
0
0
0
0
0
0
0
0
0
0
0
0
0
0
0
0
0
0
0
0
0
0
0
0
0
0
0
0
0
0
0
0
0
0
0
0
0
0
0
0
0
0
0
0
0
0
0
0
0
0
5.66336e-08
2.07183e-07
2.96759e-07
3.30401e-07
3.12488e-07
2.46744e-07
1.36274e-07
0
0
0
0
0
0
0
0
0
0
0
0
0
0
0
0
0
0
0
0
0
0
0
0
0
0
0
0
0
0
0
0
0
0
0
0
0
0
0
0
0
0
0
0
0
0
0
0
0
0
0
0
0
0
0
0
0
0
0
0
0
0
0
0
0
0
0
0
0
0
0
0
0
0
0
0
0
0
0
0
0
0
0
0
0
0
0
0
0
0
0
0
0
0
0
0
0
0
0
0
0
0
0
0
0
0
0
0
0
0
0
0
0
0
0
0
0
0
0
0
0
0
0
0
0
0
0
0
0
0
0
0
0
0
0
0
0
0
0
0
0
0
0
0
0
0
0
0
0
0
0
0
0
0
0
0
0
0
0
0
0
0
0
0
0
0
0
0
0
0
0
0
0
0
0
0
0
0
0
4.50394e-06
1.19089e-05
1.368e-05
8.70672e-06
0
0
0
0
0
0
0
0
0
0
0
0
0
0
0
0
0
0
0
0
0
0
0
0
0
0
0
0
1.54078e-05
3.57051e-05
4.70929e-05
5.16248e-05
4.72587e-05
2.56024e-05
0
0
0
0
0
0
0
0
0
0
0
0
0
0
0
0
0
0
0
0
0
0
0
0
0
0
4.48431e-05
7.03336e-05
6.06208e-05
4.2977e-05
2.94059e-05
2.08267e-05
1.56468e-05
1.25537e-05
1.07029e-05
9.56795e-06
8.84252e-06
8.35913e-06
8.0249e-06
7.78672e-06
7.61381e-06
7.48844e-06
7.40076e-06
7.34545e-06
7.31901e-06
7.31904e-06
7.34425e-06
7.38449e-06
7.41111e-06
7.40827e-06
7.36953e-06
7.29112e-06
7.17036e-06
7.00556e-06
6.7966e-06
6.54594e-06
6.22539e-06
5.6886e-06
0
0
0
0
0
0
0
0
0
0
0
0
0
0
0
0
0
0
0
0
0
0
0
3.41259e-07
9.65579e-07
1.71995e-06
2.61652e-06
3.66661e-06
4.88039e-06
6.26639e-06
7.83132e-06
9.58492e-06
1.24885e-05
4.11085e-08
0
0
0
0
0
0
0
0
0
0
0
0
0
0
0
0
0
0
0
0
0
0
0
0
0
0
0
0
0
0
0
0
2.20895e-08
0
0
0
0
0
0
0
0
0
0
0
0
0
0
0
0
0
0
0
0
0
0
0
0
0
0
0
0
0
0
0
0
1.02389e-08
0
0
0
0
0
0
0
0
0
0
0
0
0
0
0
0
0
0
0
0
0
0
0
0
0
0
0
0
0
0
0
0
9.85915e-07
1.66095e-07
0
0
0
0
0
0
0
0
0
0
0
9.08641e-06
2.76044e-05
3.11209e-05
1.09532e-05
7.20618e-06
1.00077e-05
1.39168e-05
1.63314e-05
1.71093e-05
1.67151e-05
1.55837e-05
1.40711e-05
1.24488e-05
1.08799e-05
9.42129e-06
8.06469e-06
6.78088e-06
5.91018e-06
4.20505e-06
0
0
0
0
0
0
0
7.29719e-06
9.52605e-06
1.05058e-05
2.12257e-06
0
0
0
0
0
0
0
0
4.05911e-05
3.6173e-05
2.23867e-06
0
0
0
0
0
0
0
0
0
0
0
0
0
0
0
0
0
0
2.03233e-05
3.06828e-06
0
5.07169e-05
6.24483e-05
4.89744e-05
3.54091e-05
2.55815e-05
1.50224e-05
4.06542e-06
0
0
0
3.61226e-06
1.63972e-05
1.94658e-05
1.71045e-05
1.16772e-05
4.43217e-06
0
0
0
0
1.30923e-05
2.76715e-05
2.77014e-05
3.64736e-05
3.2121e-05
1.06875e-06
9.90232e-08
0
0
0
0
0
0
0
0
0
0
0
7.7094e-06
1.72388e-05
1.03146e-05
6.24514e-06
8.74305e-06
1.35888e-05
1.73748e-05
1.94234e-05
1.9882e-05
1.91637e-05
1.77385e-05
1.59895e-05
1.41522e-05
1.23495e-05
1.06263e-05
8.98228e-06
7.38252e-06
6.16415e-06
4.81203e-06
0
0
0
0
0
0
0
7.02512e-06
8.82114e-06
9.39459e-06
1.47851e-06
0
0
0
0
0
0
0
0
5.95088e-06
3.66889e-05
5.9361e-06
0
0
0
0
0
0
0
0
0
0
0
0
0
0
0
0
0
0
0
0
1.83747e-05
5.72279e-05
5.96934e-05
4.72041e-05
3.61597e-05
2.70142e-05
1.56977e-05
5.12054e-06
0
0
0
8.48668e-06
1.95687e-05
2.208e-05
1.97714e-05
1.47119e-05
8.00589e-06
7.11815e-07
0
0
0
1.84146e-05
3.17633e-05
3.00796e-05
3.65486e-05
3.18752e-05
1.46968e-07
0
3.26305e-08
0
0
0
0
0
0
0
0
0
0
3.58509e-06
5.82351e-06
3.98175e-06
6.86869e-06
1.18963e-05
1.64812e-05
1.96588e-05
2.11718e-05
2.12236e-05
2.0259e-05
1.87237e-05
1.69199e-05
1.50155e-05
1.31044e-05
1.12293e-05
9.39987e-06
7.58723e-06
6.07478e-06
4.87688e-06
4.99198e-07
0
0
0
0
0
0
5.28376e-06
7.65557e-06
7.81886e-06
1.18365e-06
0
0
0
0
0
0
0
0
0
2.96479e-05
8.49626e-06
0
0
0
0
0
0
0
0
0
0
0
0
0
0
0
0
0
0
0
0
3.0591e-05
5.60803e-05
5.43689e-05
4.42354e-05
3.61438e-05
2.75953e-05
1.64508e-05
6.78513e-06
1.3738e-08
0
2.34602e-07
1.26058e-05
2.18783e-05
2.40405e-05
2.20077e-05
1.75348e-05
1.15469e-05
4.93374e-06
0
0
0
2.29025e-05
3.5259e-05
3.19174e-05
3.63191e-05
3.13399e-05
0
2.15815e-08
2.50069e-07
0
0
0
0
0
0
0
0
0
0
1.78174e-07
1.73638e-06
5.46789e-06
1.00121e-05
1.47266e-05
1.86271e-05
2.1088e-05
2.20378e-05
2.17769e-05
2.07188e-05
1.91966e-05
1.74188e-05
1.5509e-05
1.35465e-05
1.15734e-05
9.60849e-06
7.63411e-06
5.86947e-06
4.6557e-06
1.37019e-06
0
0
0
0
0
0
1.90501e-06
6.31856e-06
6.23599e-06
1.31851e-06
0
0
0
0
0
0
0
0
0
1.65639e-05
9.36594e-06
0
0
0
0
0
0
0
0
0
0
0
0
0
0
0
0
0
0
0
4.48538e-07
3.47639e-05
5.10497e-05
4.82606e-05
4.1396e-05
3.62137e-05
2.80068e-05
1.76431e-05
8.99588e-06
3.07237e-06
7.96991e-07
5.09933e-06
1.59501e-05
2.37229e-05
2.57447e-05
2.41266e-05
2.0318e-05
1.50706e-05
9.10778e-06
3.74219e-06
3.54632e-07
1.93217e-06
2.64114e-05
3.76799e-05
3.28801e-05
3.56483e-05
3.05871e-05
0
8.35986e-06
2.54168e-06
0
0
0
0
0
0
0
0
0
1.85389e-08
1.55732e-06
4.33126e-06
8.27039e-06
1.28213e-05
1.70151e-05
2.01122e-05
2.18615e-05
2.23868e-05
2.19793e-05
2.09351e-05
1.94762e-05
1.77501e-05
1.58562e-05
1.38635e-05
1.1814e-05
9.73516e-06
7.62443e-06
5.64522e-06
4.27965e-06
1.90127e-06
0
0
0
0
0
0
0
4.71803e-06
4.79125e-06
1.74486e-06
0
0
0
0
0
0
0
0
0
0
8.14401e-06
0
0
0
0
0
0
0
0
0
0
0
0
0
0
0
0
0
0
0
4.37744e-06
3.34104e-05
4.42141e-05
4.25316e-05
3.97384e-05
3.66542e-05
2.8679e-05
1.9394e-05
1.16383e-05
6.40944e-06
4.90451e-06
9.37711e-06
1.8638e-05
2.53456e-05
2.74207e-05
2.63115e-05
2.31863e-05
1.86394e-05
1.32574e-05
8.19746e-06
4.80436e-06
7.45281e-06
2.91366e-05
3.91781e-05
3.32191e-05
3.45691e-05
2.95452e-05
0
0
0
0
0
0
0
0
0
0
0
0
5.18877e-07
3.07747e-06
6.66565e-06
1.08888e-05
1.50217e-05
1.8432e-05
2.07865e-05
2.2052e-05
2.23727e-05
2.19526e-05
2.09831e-05
1.96135e-05
1.79544e-05
1.60891e-05
1.40799e-05
1.19693e-05
9.7939e-06
7.56732e-06
5.41232e-06
3.82446e-06
2.05349e-06
0
0
0
0
0
0
0
2.35852e-06
3.4243e-06
2.17177e-06
0
0
0
0
0
0
0
0
0
0
4.64434e-06
0
0
0
0
0
0
0
0
0
0
0
0
0
0
0
0
0
0
0
6.29248e-06
2.88773e-05
3.70862e-05
3.8272e-05
3.95918e-05
3.72306e-05
2.97432e-05
2.14714e-05
1.43659e-05
9.6558e-06
8.65208e-06
1.29266e-05
2.08582e-05
2.68697e-05
2.91249e-05
2.85586e-05
2.60903e-05
2.21817e-05
1.73128e-05
1.25205e-05
9.22365e-06
1.27529e-05
3.1246e-05
3.98696e-05
3.30162e-05
3.30909e-05
2.82433e-05
0
0
0
0
0
0
0
0
0
0
0
0
1.11974e-06
4.63162e-06
8.58542e-06
1.25663e-05
1.61136e-05
1.89024e-05
2.07995e-05
2.18304e-05
2.21046e-05
2.17518e-05
2.08918e-05
1.96268e-05
1.80432e-05
1.62144e-05
1.4199e-05
1.2041e-05
9.78481e-06
7.46054e-06
5.16457e-06
3.33813e-06
1.86137e-06
0
0
0
0
0
0
0
0
1.94472e-06
2.30949e-06
0
0
0
0
0
0
0
0
0
0
0
0
0
0
0
0
0
0
0
0
0
0
0
0
0
0
0
0
0
0
6.12727e-06
2.3253e-05
3.11797e-05
3.64408e-05
4.04179e-05
3.78274e-05
3.10481e-05
2.34683e-05
1.68018e-05
1.25087e-05
1.18599e-05
1.58575e-05
2.28097e-05
2.83763e-05
3.08569e-05
3.08077e-05
2.89394e-05
2.56076e-05
2.12031e-05
1.66637e-05
1.35174e-05
1.73848e-05
3.25359e-05
3.97841e-05
3.24547e-05
3.14703e-05
2.6823e-05
0
0
0
0
0
0
0
0
0
0
0
0
1.87383e-06
5.70668e-06
9.58313e-06
1.32045e-05
1.63021e-05
1.87103e-05
2.03794e-05
2.13424e-05
2.16665e-05
2.14242e-05
2.06884e-05
1.9532e-05
1.80268e-05
1.62398e-05
1.42273e-05
1.2034e-05
9.71135e-06
7.30559e-06
4.89818e-06
2.85096e-06
1.41464e-06
0
0
0
0
0
0
0
0
0
1.94706e-06
1.13731e-06
0
0
0
0
0
0
0
0
0
0
0
0
0
0
0
0
0
0
0
0
0
0
0
0
0
0
0
0
0
4.74449e-06
1.83459e-05
2.79877e-05
3.69885e-05
4.12477e-05
3.84387e-05
3.21968e-05
2.50048e-05
1.87084e-05
1.48506e-05
1.45527e-05
1.83637e-05
2.46359e-05
2.98935e-05
3.2571e-05
3.29668e-05
3.16292e-05
2.88256e-05
2.48605e-05
2.05785e-05
1.75941e-05
2.12463e-05
3.31247e-05
3.89991e-05
3.15398e-05
2.97246e-05
2.53457e-05
0
0
0
0
0
0
0
0
0
0
0
0
2.47612e-06
6.21684e-06
9.84129e-06
1.31376e-05
1.59346e-05
1.81379e-05
1.97236e-05
2.07081e-05
2.11218e-05
2.10005e-05
2.03881e-05
1.93386e-05
1.79132e-05
1.6173e-05
1.41717e-05
1.19544e-05
9.57811e-06
7.10527e-06
4.61129e-06
2.37668e-06
8.18585e-07
0
0
0
0
0
0
0
0
0
9.1012e-07
4.09063e-06
0
0
0
0
0
0
0
0
0
0
0
0
0
0
0
0
0
0
0
0
0
0
0
0
0
0
0
0
0
3.08715e-06
1.56093e-05
2.79236e-05
3.83458e-05
4.16442e-05
3.88109e-05
3.27979e-05
2.59051e-05
2.00575e-05
1.67361e-05
1.68589e-05
2.06098e-05
2.64017e-05
3.13908e-05
3.41816e-05
3.49248e-05
3.40506e-05
3.17436e-05
2.82115e-05
2.41942e-05
2.13164e-05
2.42495e-05
3.3015e-05
3.75645e-05
3.02974e-05
2.79028e-05
2.3818e-05
0
0
0
0
0
0
0
0
0
0
0
0
2.93647e-06
6.39887e-06
9.71809e-06
1.27297e-05
1.53112e-05
1.73943e-05
1.8954e-05
1.99867e-05
2.04962e-05
2.04927e-05
1.99993e-05
1.90548e-05
1.77104e-05
1.60214e-05
1.40389e-05
1.18084e-05
9.39082e-06
6.86397e-06
4.30479e-06
1.92048e-06
1.63378e-07
0
0
0
0
0
0
0
0
0
0
4.40364e-06
0
0
0
0
0
0
0
0
0
0
0
1.02239e-06
9.95674e-07
5.80398e-07
1.0941e-07
0
0
0
0
0
0
0
0
0
0
0
0
0
0
1.56412e-06
1.51733e-05
2.92996e-05
3.90125e-05
4.15157e-05
3.85625e-05
3.27028e-05
2.62197e-05
2.09665e-05
1.82953e-05
1.89081e-05
2.2686e-05
2.80966e-05
3.27896e-05
3.55816e-05
3.65694e-05
3.61012e-05
3.42744e-05
3.11808e-05
2.74349e-05
2.45802e-05
2.64717e-05
3.23867e-05
3.56324e-05
2.87569e-05
2.6004e-05
2.22441e-05
0
0
0
0
0
0
0
0
0
0
0
2.16635e-07
3.31629e-06
6.44029e-06
9.43825e-06
1.21827e-05
1.45789e-05
1.65673e-05
1.81148e-05
1.91988e-05
1.98006e-05
1.99093e-05
1.953e-05
1.8688e-05
1.74254e-05
1.57917e-05
1.38352e-05
1.16019e-05
9.15542e-06
6.58683e-06
3.9812e-06
1.48486e-06
0
0
0
0
0
0
0
0
0
0
0
2.60165e-06
0
0
0
0
0
0
0
0
0
0
0
3.59388e-06
4.1538e-06
3.66538e-06
2.88933e-06
1.78791e-06
2.61978e-07
0
0
0
0
0
0
0
0
0
0
0
0
1.58645e-08
1.55816e-05
3.003e-05
3.86998e-05
4.05955e-05
3.75489e-05
3.20047e-05
2.61098e-05
2.1585e-05
1.96444e-05
2.07771e-05
2.46074e-05
2.9658e-05
3.39901e-05
3.66652e-05
3.77998e-05
3.76876e-05
3.63308e-05
3.36848e-05
3.02118e-05
2.72864e-05
2.79592e-05
3.13146e-05
3.33e-05
2.69644e-05
2.40928e-05
2.06391e-05
0
0
0
0
0
0
0
0
0
0
0
8.4563e-07
3.58645e-06
6.35884e-06
9.0439e-06
1.15408e-05
1.37713e-05
1.56787e-05
1.72198e-05
1.83544e-05
1.90439e-05
1.92587e-05
1.8988e-05
1.82454e-05
1.70647e-05
1.54898e-05
1.35663e-05
1.13406e-05
8.87794e-06
6.27985e-06
3.64428e-06
1.07212e-06
0
0
0
0
0
0
0
0
0
0
0
0
0
0
0
0
0
0
0
0
0
0
0
6.17653e-06
7.34338e-06
6.81062e-06
5.73839e-06
4.20135e-06
2.18103e-06
0
0
0
0
0
0
0
0
0
0
0
0
0
1.56506e-05
2.95349e-05
3.73067e-05
3.87952e-05
3.58918e-05
3.08737e-05
2.57183e-05
2.20174e-05
2.0847e-05
2.2484e-05
2.63401e-05
3.10046e-05
3.48982e-05
3.73448e-05
3.85336e-05
3.87277e-05
3.78277e-05
3.56349e-05
3.24335e-05
2.93662e-05
2.87886e-05
2.99038e-05
3.0671e-05
2.49496e-05
2.21909e-05
1.90201e-05
0
0
0
0
0
0
0
0
0
0
0
1.39461e-06
3.77797e-06
6.20654e-06
8.59021e-06
1.0851e-05
1.2924e-05
1.47535e-05
1.62862e-05
1.74659e-05
1.82356e-05
1.85486e-05
1.83802e-05
1.77333e-05
1.66342e-05
1.51214e-05
1.32375e-05
1.10296e-05
8.56433e-06
5.94957e-06
3.29836e-06
6.83904e-07
0
0
0
0
0
0
0
0
0
0
0
0
0
0
0
0
0
0
0
0
0
0
0
8.81544e-06
1.05326e-05
9.98683e-06
8.63447e-06
6.66906e-06
4.16363e-06
1.26257e-06
0
0
0
0
0
0
0
0
0
0
0
0
1.49455e-05
2.78537e-05
3.49577e-05
3.63209e-05
3.37619e-05
2.94161e-05
2.51123e-05
2.23084e-05
2.19195e-05
2.40112e-05
2.78342e-05
3.20645e-05
3.54434e-05
3.75599e-05
3.87125e-05
3.91553e-05
3.86873e-05
3.69446e-05
3.40134e-05
3.07676e-05
2.90027e-05
2.81768e-05
2.77721e-05
2.27297e-05
2.03275e-05
1.74007e-05
0
0
0
0
0
0
0
0
0
0
0
1.82276e-06
3.87412e-06
5.98247e-06
8.08472e-06
1.01239e-05
1.20471e-05
1.37999e-05
1.53209e-05
1.6539e-05
1.73807e-05
1.7784e-05
1.77116e-05
1.7157e-05
1.61392e-05
1.46918e-05
1.28544e-05
1.06746e-05
8.22048e-06
5.60313e-06
2.94903e-06
3.21471e-07
0
0
0
0
0
0
0
0
0
0
0
0
0
0
0
0
0
0
0
0
0
0
4.10164e-07
1.15469e-05
1.36856e-05
1.31578e-05
1.15481e-05
9.16653e-06
6.1922e-06
2.85648e-06
0
0
0
0
0
0
0
0
0
0
0
0
1.36148e-05
2.54982e-05
3.20758e-05
3.33905e-05
3.12357e-05
2.76514e-05
2.43043e-05
2.24707e-05
2.28574e-05
2.53316e-05
2.90462e-05
3.27881e-05
3.55864e-05
3.72851e-05
3.83137e-05
3.89367e-05
3.88578e-05
3.75475e-05
3.48859e-05
3.1467e-05
2.86507e-05
2.61628e-05
2.46008e-05
2.03017e-05
1.84848e-05
1.57791e-05
0
0
0
0
0
0
0
0
0
0
5.24739e-07
2.1749e-06
3.92492e-06
5.73601e-06
7.57068e-06
9.39336e-06
1.11648e-05
1.28343e-05
1.43339e-05
1.55799e-05
1.64837e-05
1.69689e-05
1.69866e-05
1.65213e-05
1.55851e-05
1.42065e-05
1.24224e-05
1.02808e-05
7.85224e-06
5.24786e-06
2.60306e-06
0
0
0
0
0
0
0
0
0
0
0
0
0
0
0
0
0
0
0
0
0
0
0
3.54834e-06
1.43724e-05
1.67603e-05
1.62806e-05
1.44431e-05
1.16634e-05
8.24341e-06
4.50237e-06
5.43167e-07
0
0
0
0
0
0
0
0
0
0
0
1.22439e-05
2.30809e-05
2.89835e-05
3.01092e-05
2.83292e-05
2.55797e-05
2.33044e-05
2.25126e-05
2.36496e-05
2.64185e-05
2.99448e-05
3.31517e-05
3.53263e-05
3.65454e-05
3.73732e-05
3.80974e-05
3.83403e-05
3.74217e-05
3.50239e-05
3.14721e-05
2.77891e-05
2.38968e-05
2.11236e-05
1.7649e-05
1.66284e-05
1.41178e-05
0
0
0
0
0
0
0
0
0
0
1.04477e-06
2.46304e-06
3.95105e-06
5.49085e-06
7.07013e-06
8.67701e-06
1.02895e-05
1.18643e-05
1.33299e-05
1.45919e-05
1.55474e-05
1.61065e-05
1.62091e-05
1.58306e-05
1.49765e-05
1.36704e-05
1.19467e-05
9.85408e-06
7.46541e-06
4.89088e-06
2.26833e-06
0
0
0
0
0
0
0
0
0
0
0
0
0
0
0
0
0
0
0
0
0
0
0
7.58282e-06
1.72398e-05
1.9707e-05
1.93057e-05
1.7276e-05
1.41236e-05
1.0289e-05
6.17944e-06
1.92456e-06
0
0
0
0
0
0
0
0
0
0
0
1.1213e-05
2.09554e-05
2.58943e-05
2.65938e-05
2.51138e-05
2.32551e-05
2.21499e-05
2.24401e-05
2.42745e-05
2.72429e-05
3.05113e-05
3.31628e-05
3.47149e-05
3.54403e-05
3.60169e-05
3.67563e-05
3.72224e-05
3.66192e-05
3.44619e-05
3.08404e-05
2.65132e-05
2.14821e-05
1.7338e-05
1.47767e-05
1.47138e-05
1.23644e-05
0
0
0
0
0
0
0
0
0
3.58721e-07
1.5351e-06
2.76109e-06
4.01925e-06
5.30661e-06
6.63379e-06
8.01501e-06
9.45073e-06
1.09099e-05
1.23217e-05
1.35826e-05
1.45767e-05
1.52007e-05
1.53828e-05
1.50892e-05
1.43182e-05
1.30888e-05
1.14329e-05
9.40006e-06
7.06571e-06
4.5386e-06
1.95284e-06
0
0
0
0
0
0
0
0
0
0
0
0
0
0
0
0
0
0
0
0
0
0
0
1.2101e-05
2.00382e-05
2.24681e-05
2.21783e-05
1.99957e-05
1.65046e-05
1.22961e-05
7.86207e-06
3.35051e-06
0
0
0
0
0
0
0
0
0
0
0
1.06592e-05
1.94194e-05
2.31378e-05
2.31235e-05
2.1799e-05
2.08173e-05
2.09041e-05
2.22451e-05
2.46913e-05
2.77718e-05
3.07447e-05
3.28721e-05
3.38743e-05
3.41657e-05
3.44861e-05
3.51542e-05
3.57078e-05
3.52951e-05
3.33232e-05
2.96976e-05
2.49643e-05
1.90883e-05
1.33087e-05
1.17089e-05
1.27385e-05
1.04522e-05
0
0
0
0
0
0
0
0
0
9.45277e-07
2.00617e-06
3.07792e-06
4.14124e-06
5.19974e-06
6.28137e-06
7.42683e-06
8.6645e-06
9.98281e-06
1.13168e-05
1.25569e-05
1.35752e-05
1.42546e-05
1.45112e-05
1.4301e-05
1.36148e-05
1.24665e-05
1.08864e-05
8.92458e-06
6.65874e-06
4.19661e-06
1.66418e-06
0
0
0
0
0
0
0
0
0
0
0
0
0
0
0
0
0
0
0
0
0
0
3.43201e-06
1.6556e-05
2.26117e-05
2.4981e-05
2.484e-05
2.25443e-05
1.87573e-05
1.42262e-05
9.51814e-06
4.79225e-06
0
0
0
0
0
0
0
0
0
0
0
1.05777e-05
1.87646e-05
2.11827e-05
2.01719e-05
1.87539e-05
1.84893e-05
1.96418e-05
2.19007e-05
2.48464e-05
2.79786e-05
3.06743e-05
3.23849e-05
3.30022e-05
3.30129e-05
3.31347e-05
3.36516e-05
3.41191e-05
3.37197e-05
3.1833e-05
2.8237e-05
2.32962e-05
1.68805e-05
9.2579e-06
8.58169e-06
1.08109e-05
8.4039e-06
0
0
0
0
0
0
0
0
5.95938e-07
1.52969e-06
2.48675e-06
3.42727e-06
4.32509e-06
5.18092e-06
6.02993e-06
6.93407e-06
7.95249e-06
9.10125e-06
1.03289e-05
1.15246e-05
1.25497e-05
1.32736e-05
1.35989e-05
1.34705e-05
1.28707e-05
1.18086e-05
1.03126e-05
8.43326e-06
6.24988e-06
3.86948e-06
1.40834e-06
0
0
0
0
0
0
0
0
0
0
0
0
0
0
0
1.00084e-05
0
0
0
0
0
0
1.20968e-05
2.03764e-05
2.47916e-05
2.71848e-05
2.723e-05
2.48578e-05
2.08268e-05
1.60353e-05
1.1108e-05
6.21197e-06
1.19931e-06
0
0
0
0
0
0
0
0
0
0
1.07737e-05
1.90468e-05
2.03912e-05
1.82709e-05
1.64515e-05
1.65426e-05
1.84372e-05
2.13755e-05
2.46949e-05
2.78631e-05
3.03727e-05
3.18589e-05
3.23485e-05
3.23157e-05
3.23475e-05
3.26439e-05
3.28319e-05
3.22308e-05
3.0279e-05
2.66748e-05
2.16212e-05
1.49169e-05
5.68481e-06
5.753e-06
9.07093e-06
6.28487e-06
0
0
0
0
0
0
0
3.9521e-07
1.1985e-06
2.05459e-06
2.92113e-06
3.75391e-06
4.51906e-06
5.20845e-06
5.85383e-06
6.52779e-06
7.31731e-06
8.27278e-06
9.36642e-06
1.0493e-05
1.15062e-05
1.22624e-05
1.26499e-05
1.26016e-05
1.20904e-05
1.11199e-05
9.71664e-06
7.93134e-06
5.84398e-06
3.56067e-06
1.18893e-06
0
0
0
0
0
0
0
0
0
0
0
0
0
0
0
6.11819e-07
1.39283e-05
3.84634e-06
0
0
2.01012e-06
1.10591e-05
1.85335e-05
2.30935e-05
2.6444e-05
2.90284e-05
2.92866e-05
2.68682e-05
2.26544e-05
1.76738e-05
1.2583e-05
7.56114e-06
2.50786e-06
0
0
0
0
0
0
0
0
0
0
1.08674e-05
1.99521e-05
2.06691e-05
1.76329e-05
1.52357e-05
1.52026e-05
1.7359e-05
2.06666e-05
2.42383e-05
2.74763e-05
2.99598e-05
3.14812e-05
3.21447e-05
3.2316e-05
3.23631e-05
3.2379e-05
3.21115e-05
3.10954e-05
2.88889e-05
2.51386e-05
1.99048e-05
1.30154e-05
3.26209e-06
4.35351e-06
7.48522e-06
4.35749e-06
0
0
0
0
0
0
3.58842e-07
1.00958e-06
1.73709e-06
2.51061e-06
3.2892e-06
4.02722e-06
4.68458e-06
5.24236e-06
5.72108e-06
6.19118e-06
6.75714e-06
7.50461e-06
8.43951e-06
9.47193e-06
1.04532e-05
1.12277e-05
1.16698e-05
1.1699e-05
1.12783e-05
1.04049e-05
9.10318e-06
7.42338e-06
5.44529e-06
3.27309e-06
1.00748e-06
0
0
0
0
0
0
0
0
0
0
0
0
0
0
0
0
5.03443e-06
1.07141e-05
9.91545e-06
1.02967e-05
1.38478e-05
1.86321e-05
2.21177e-05
2.44577e-05
2.75105e-05
3.04735e-05
3.09462e-05
2.85055e-05
2.41797e-05
1.9086e-05
1.38843e-05
8.7783e-06
3.73831e-06
0
0
0
0
0
0
0
0
0
0
1.0322e-05
2.08941e-05
2.13622e-05
1.77974e-05
1.49695e-05
1.45159e-05
1.64831e-05
1.98528e-05
2.3571e-05
2.69439e-05
2.95945e-05
3.14105e-05
3.24879e-05
3.30079e-05
3.31003e-05
3.27784e-05
3.19374e-05
3.03431e-05
2.76842e-05
2.35649e-05
1.7942e-05
1.08123e-05
2.30124e-06
4.70818e-06
4.92774e-06
2.81171e-06
0
0
0
0
0
3.83454e-07
8.88972e-07
1.47799e-06
2.13449e-06
2.83165e-06
3.5321e-06
4.19125e-06
4.76548e-06
5.22646e-06
5.58055e-06
5.88617e-06
6.25162e-06
6.7912e-06
7.551e-06
8.46766e-06
9.39736e-06
1.01758e-05
1.06639e-05
1.07674e-05
1.04386e-05
9.66772e-06
8.47573e-06
6.91218e-06
5.05581e-06
3.00754e-06
8.62137e-07
0
0
0
0
0
0
0
0
0
0
0
0
0
0
0
0
1.11561e-09
5.54965e-06
1.05902e-05
1.43111e-05
1.80619e-05
2.1196e-05
2.28295e-05
2.45107e-05
2.80193e-05
3.1491e-05
3.21441e-05
2.97027e-05
2.53443e-05
2.02116e-05
1.49433e-05
9.7911e-06
4.81896e-06
0
0
0
0
0
0
0
0
0
0
8.36357e-06
2.11784e-05
2.1516e-05
1.78634e-05
1.50613e-05
1.43299e-05
1.59335e-05
1.91525e-05
2.29247e-05
2.64821e-05
2.9441e-05
3.16976e-05
3.32559e-05
3.40928e-05
3.41564e-05
3.34381e-05
3.19735e-05
2.97087e-05
2.64208e-05
2.16706e-05
1.53821e-05
7.89224e-06
2.44714e-06
2.99078e-06
1.64578e-06
2.91058e-06
4.44689e-08
0
0
1.50666e-07
4.47664e-07
8.22869e-07
1.27589e-06
1.80125e-06
2.38643e-06
3.00911e-06
3.63631e-06
4.22616e-06
4.73411e-06
5.12501e-06
5.39154e-06
5.57501e-06
5.775e-06
6.12181e-06
6.70111e-06
7.48593e-06
8.34641e-06
9.11416e-06
9.63837e-06
9.81193e-06
9.5756e-06
8.9118e-06
7.83736e-06
6.40019e-06
4.67749e-06
2.76578e-06
7.52953e-07
0
0
0
0
0
0
0
0
0
0
0
1.6313e-07
1.28158e-06
1.58471e-06
9.44728e-07
0
0
1.19688e-06
6.48448e-06
1.20685e-05
1.68061e-05
1.98088e-05
2.12234e-05
2.35442e-05
2.80618e-05
3.20544e-05
3.28163e-05
3.04016e-05
2.60953e-05
2.09879e-05
1.5689e-05
1.05286e-05
5.67892e-06
1.10901e-06
0
0
0
0
0
0
0
0
0
3.82585e-06
2.01307e-05
2.02331e-05
1.70976e-05
1.49609e-05
1.44522e-05
1.58874e-05
1.89142e-05
2.26603e-05
2.6361e-05
2.96057e-05
3.22353e-05
3.41233e-05
3.50834e-05
3.49707e-05
3.38002e-05
3.1709e-05
2.87375e-05
2.46859e-05
1.90675e-05
1.18848e-05
3.82474e-06
1.34731e-06
1.16836e-06
3.94272e-06
4.15685e-06
2.21989e-07
1.39806e-07
2.66394e-07
4.71465e-07
7.37571e-07
1.0724e-06
1.4748e-06
1.94032e-06
2.45962e-06
3.01454e-06
3.57656e-06
4.10763e-06
4.5643e-06
4.90745e-06
5.11864e-06
5.22131e-06
5.29811e-06
5.48089e-06
5.88678e-06
6.53089e-06
7.30714e-06
8.04947e-06
8.59861e-06
8.8358e-06
8.69063e-06
8.13685e-06
7.18613e-06
5.88398e-06
4.30555e-06
2.54211e-06
6.72664e-07
0
0
0
0
0
0
0
0
0
0
1.29532e-06
2.8039e-06
3.4747e-06
3.31774e-06
2.23631e-06
3.44336e-07
0
0
2.47633e-06
7.71917e-06
1.2701e-05
1.5962e-05
1.81627e-05
2.20049e-05
2.77608e-05
3.21278e-05
3.29042e-05
3.05617e-05
2.63896e-05
2.13575e-05
1.60654e-05
1.09472e-05
6.2782e-06
2.07717e-06
0
0
0
0
0
0
0
0
0
0
1.72329e-05
1.71773e-05
1.53789e-05
1.4502e-05
1.47536e-05
1.64245e-05
1.94145e-05
2.30859e-05
2.67679e-05
3.00641e-05
3.27682e-05
3.4655e-05
3.54487e-05
3.49807e-05
3.33023e-05
3.05949e-05
2.69098e-05
2.20131e-05
1.54033e-05
7.23089e-06
0
0
0
9.1742e-06
7.00723e-06
1.20331e-07
2.03073e-07
3.59169e-07
5.54637e-07
7.97752e-07
1.10015e-06
1.46029e-06
1.87483e-06
2.33734e-06
2.83364e-06
3.33998e-06
3.82294e-06
4.24193e-06
4.5566e-06
4.74056e-06
4.80102e-06
4.79954e-06
4.85642e-06
5.10671e-06
5.6076e-06
6.28652e-06
6.98798e-06
7.54895e-06
7.84136e-06
7.78436e-06
7.34274e-06
6.52223e-06
5.36489e-06
3.94264e-06
2.3402e-06
6.25395e-07
0
0
0
0
0
0
0
0
0
1.94291e-06
6.58832e-06
6.24121e-06
5.76221e-06
4.77986e-06
3.09363e-06
7.6414e-07
0
0
0
3.1635e-06
7.51917e-06
1.09977e-05
1.45999e-05
2.03781e-05
2.72011e-05
3.16486e-05
3.23684e-05
3.01687e-05
2.61965e-05
2.12815e-05
1.60579e-05
1.10635e-05
6.64069e-06
2.83519e-06
0
0
0
0
0
0
0
0
0
0
1.26585e-05
1.30305e-05
1.30845e-05
1.36823e-05
1.49617e-05
1.72186e-05
2.04222e-05
2.40603e-05
2.75528e-05
3.05628e-05
3.29151e-05
3.43827e-05
3.46855e-05
3.36733e-05
3.14184e-05
2.80913e-05
2.36928e-05
1.79421e-05
1.04092e-05
1.29885e-06
0
0
0
1.27542e-05
8.53379e-06
0
1.6163e-07
3.29693e-07
4.99048e-07
7.06892e-07
9.6865e-07
1.28204e-06
1.64425e-06
2.05117e-06
2.49208e-06
2.94768e-06
3.38943e-06
3.78064e-06
4.08175e-06
4.26123e-06
4.31252e-06
4.27486e-06
4.24704e-06
4.36571e-06
4.72373e-06
5.29045e-06
5.93116e-06
6.48517e-06
6.81848e-06
6.8415e-06
6.51065e-06
5.82531e-06
4.82289e-06
3.56984e-06
2.14156e-06
5.91931e-07
0
0
0
0
0
0
0
0
0
0
1.94363e-05
1.11656e-05
8.01666e-06
5.56569e-06
3.07128e-06
2.30358e-07
0
0
0
0
2.11308e-06
6.09993e-06
1.14849e-05
1.90363e-05
2.63318e-05
3.05356e-05
3.12143e-05
2.9235e-05
2.54982e-05
2.07547e-05
1.57073e-05
1.09499e-05
6.83658e-06
3.42465e-06
5.18539e-07
0
0
0
0
0
0
0
0
0
7.90769e-06
8.90238e-06
1.03898e-05
1.21674e-05
1.44016e-05
1.73591e-05
2.09831e-05
2.47453e-05
2.80364e-05
3.05412e-05
3.21821e-05
3.28539e-05
3.2373e-05
3.0642e-05
2.77351e-05
2.3778e-05
1.87119e-05
1.23155e-05
4.35108e-06
0
0
0
0
1.73898e-05
2.87368e-06
0
0
0
8.64511e-08
2.87902e-07
5.35587e-07
8.26772e-07
1.15933e-06
1.53159e-06
1.93642e-06
2.35929e-06
2.77721e-06
3.15854e-06
3.46635e-06
3.66661e-06
3.74194e-06
3.71036e-06
3.64323e-06
3.66274e-06
3.88446e-06
4.32487e-06
4.88254e-06
5.40762e-06
5.76489e-06
5.85886e-06
5.63893e-06
5.0978e-06
4.26603e-06
3.20063e-06
1.96289e-06
5.89221e-07
0
0
0
0
0
0
0
0
0
0
7.5536e-06
0
1.52115e-06
2.45781e-06
1.63168e-07
0
0
0
0
0
0
2.38479e-06
9.43223e-06
1.79106e-05
2.49187e-05
2.87641e-05
2.951e-05
2.77809e-05
2.42832e-05
1.97868e-05
1.50363e-05
1.06019e-05
6.82206e-06
3.78276e-06
1.33363e-06
0
0
0
0
0
0
0
0
0
5.34233e-07
4.20695e-06
6.61631e-06
9.16545e-06
1.21231e-05
1.57649e-05
1.99596e-05
2.40617e-05
2.73137e-05
2.93349e-05
3.01438e-05
2.984e-05
2.84319e-05
2.59222e-05
2.23928e-05
1.79361e-05
1.25262e-05
6.15255e-06
0
0
0
0
6.1645e-06
2.7741e-06
0
0
0
0
0
0
4.09829e-08
2.92117e-07
5.82295e-07
9.11395e-07
1.27489e-06
1.66209e-06
2.05505e-06
2.42741e-06
2.74608e-06
2.97676e-06
3.09447e-06
3.0989e-06
3.0322e-06
2.98862e-06
3.08651e-06
3.38589e-06
3.83148e-06
4.29604e-06
4.65043e-06
4.79814e-06
4.68422e-06
4.29467e-06
3.65e-06
2.79201e-06
1.76162e-06
5.74073e-07
0
0
0
0
0
0
0
0
0
0
0
0
0
0
0
0
0
0
0
0
0
1.35453e-07
8.14455e-06
1.64224e-05
2.2813e-05
2.6472e-05
2.73458e-05
2.57944e-05
2.2501e-05
1.82746e-05
1.38349e-05
9.72127e-06
6.3016e-06
3.68909e-06
1.69438e-06
1.09882e-08
0
0
0
0
0
0
0
0
0
3.01384e-07
2.27363e-06
4.60092e-06
7.62018e-06
1.16915e-05
1.66254e-05
2.1475e-05
2.50716e-05
2.68536e-05
2.69604e-05
2.57615e-05
2.35235e-05
2.03927e-05
1.64848e-05
1.19022e-05
6.71829e-06
1.1044e-06
0
0
0
0
3.89511e-06
0
0
0
0
0
0
0
0
0
0
1.20552e-08
3.67431e-07
7.4822e-07
1.14187e-06
1.52784e-06
1.87795e-06
2.15977e-06
2.34413e-06
2.41688e-06
2.3939e-06
2.33539e-06
2.34229e-06
2.50393e-06
2.82044e-06
3.20184e-06
3.53405e-06
3.72491e-06
3.71777e-06
3.49091e-06
3.05004e-06
2.41486e-06
1.60006e-06
5.98549e-07
0
0
0
0
0
0
0
0
0
0
0
0
0
0
0
0
0
0
0
0
0
0
6.6736e-06
1.42396e-05
2.02449e-05
2.38556e-05
2.47283e-05
2.31843e-05
1.99841e-05
1.59637e-05
1.18695e-05
8.21584e-06
4.98933e-06
2.38466e-06
8.34367e-07
7.2959e-08
0
0
0
0
0
0
0
0
0
0
3.71215e-07
1.5925e-06
3.45476e-06
6.61936e-06
1.12904e-05
1.66941e-05
2.12569e-05
2.35759e-05
2.34849e-05
2.16944e-05
1.88757e-05
1.53855e-05
1.13938e-05
7.02082e-06
2.39611e-06
0
0
0
0
0
3.83972e-06
0
0
0
0
0
0
0
0
0
0
0
0
0
1.77048e-07
5.61992e-07
9.31082e-07
1.25514e-06
1.5038e-06
1.65396e-06
1.70122e-06
1.67304e-06
1.63747e-06
1.68566e-06
1.86734e-06
2.14411e-06
2.4292e-06
2.64223e-06
2.72886e-06
2.65947e-06
2.42085e-06
2.00532e-06
1.39956e-06
5.78054e-07
0
0
0
0
0
0
0
0
0
0
0
0
0
0
0
0
0
0
0
0
0
0
4.6526e-06
1.17132e-05
1.75362e-05
2.09645e-05
2.15907e-05
1.99057e-05
1.68481e-05
1.33216e-05
9.39962e-06
4.75154e-06
1.22122e-06
5.68299e-07
1.63144e-07
0
0
0
0
0
0
0
0
0
0
0
0
3.28919e-06
5.60594e-06
6.50406e-06
7.98813e-06
1.15058e-05
1.57992e-05
1.90598e-05
1.99691e-05
1.84663e-05
1.54823e-05
1.18137e-05
7.81575e-06
3.6425e-06
0
0
0
0
0
0
1.44233e-06
0
0
0
0
0
0
0
0
0
0
0
0
0
0
0
0
2.66853e-07
6.01601e-07
8.51881e-07
1.00125e-06
1.05412e-06
1.04649e-06
1.04948e-06
1.13919e-06
1.33228e-06
1.57841e-06
1.81225e-06
1.98163e-06
2.04765e-06
1.97778e-06
1.74025e-06
1.30144e-06
6.26595e-07
0
0
0
0
0
0
0
0
0
0
0
0
0
0
0
0
0
0
0
0
0
0
2.45048e-06
9.20178e-06
1.47779e-05
1.78513e-05
1.82632e-05
1.68662e-05
1.42967e-05
9.58299e-06
3.26685e-06
2.20338e-07
2.81195e-07
2.43867e-07
9.4382e-08
0
0
4.7216e-08
3.21893e-07
8.23409e-07
1.7228e-06
3.64898e-06
0
0
0
0
0
7.27475e-06
1.36811e-05
1.49255e-05
1.30147e-05
1.13149e-05
1.18714e-05
1.36557e-05
1.50682e-05
1.50953e-05
1.32766e-05
1.00103e-05
5.96545e-06
1.53562e-06
0
0
0
0
0
0
0
0
0
0
0
0
0
0
0
0
0
0
0
0
0
0
0
0
0
0
2.36624e-07
3.96895e-07
4.72631e-07
5.02901e-07
5.55942e-07
6.86459e-07
8.86868e-07
1.11372e-06
1.32173e-06
1.46816e-06
1.50989e-06
1.403e-06
1.10448e-06
5.74698e-07
0
0
0
0
0
0
0
0
0
0
0
0
0
0
0
0
0
0
0
0
0
0
3.46616e-07
6.79412e-06
1.22483e-05
1.56422e-05
1.69465e-05
1.53602e-05
8.19769e-06
2.10641e-06
1.03456e-06
9.62314e-07
6.58252e-07
3.59965e-07
2.61461e-07
4.71499e-07
1.09049e-06
2.46742e-06
5.49814e-06
1.17605e-05
2.12485e-05
1.30412e-05
0
0
0
0
0
1.25539e-05
2.55801e-05
2.93992e-05
2.56769e-05
1.91492e-05
1.39044e-05
1.12259e-05
1.01142e-05
9.46256e-06
8.8976e-06
7.8655e-06
5.27896e-06
5.36983e-07
0
0
0
0
0
0
0
0
0
0
0
0
0
0
0
0
0
0
0
0
0
0
0
0
0
0
0
0
9.57607e-08
1.82469e-07
2.4468e-07
3.50522e-07
5.20577e-07
7.29534e-07
9.41341e-07
1.11691e-06
1.21359e-06
1.1862e-06
9.89574e-07
5.82211e-07
0
0
0
0
0
0
0
0
0
0
0
0
0
0
0
0
0
0
0
0
0
0
0
3.92662e-06
1.18851e-05
1.93271e-05
1.66353e-05
7.21107e-06
3.00492e-06