/*--------------------------------*- C++ -*----------------------------------*\
  =========                 |
  \\      /  F ield         | OpenFOAM: The Open Source CFD Toolbox
   \\    /   O peration     | Website:  https://openfoam.org
    \\  /    A nd           | Version:  10
     \\/     M anipulation  |
\*---------------------------------------------------------------------------*/
FoamFile
{
    format      ascii;
    class       surfaceScalarField;
    location    "0.165";
    object      phi;
}
// * * * * * * * * * * * * * * * * * * * * * * * * * * * * * * * * * * * * * //

dimensions      [0 3 -1 0 0 0 0];

internalField   nonuniform List<scalar> 
13452
(
5.94564e-05
8.12086e-07
5.84836e-05
9.72779e-07
5.7475e-05
1.00862e-06
5.64438e-05
1.03114e-06
5.54195e-05
1.02438e-06
5.44145e-05
1.00494e-06
5.3434e-05
9.8053e-07
5.24814e-05
9.52594e-07
5.15593e-05
9.22096e-07
5.06695e-05
8.89782e-07
4.98134e-05
8.56107e-07
4.8992e-05
8.21429e-07
4.82059e-05
7.86066e-07
4.74556e-05
7.50294e-07
4.67413e-05
7.1434e-07
4.60629e-05
6.78384e-07
4.54203e-05
6.42551e-07
4.48134e-05
6.0692e-07
4.42419e-05
5.71526e-07
4.37055e-05
5.36376e-07
4.32041e-05
5.01461e-07
4.27373e-05
4.66776e-07
4.23049e-05
4.32339e-07
4.19067e-05
3.9822e-07
4.15422e-05
3.64555e-07
4.12106e-05
3.31583e-07
4.0911e-05
2.99631e-07
4.06417e-05
2.69269e-07
4.04009e-05
2.40745e-07
4.01848e-05
2.16099e-07
3.99924e-05
1.92416e-07
3.98108e-05
1.81581e-07
1.76828e-07
3.9634e-05
6.24891e-05
3.13314e-07
6.29645e-05
4.97369e-07
6.34123e-05
5.608e-07
6.38232e-05
6.20237e-07
6.41899e-05
6.57741e-07
6.45122e-05
6.82652e-07
6.47918e-05
7.00887e-07
6.50315e-05
7.12898e-07
6.52344e-05
7.19202e-07
6.54037e-05
7.20457e-07
6.55427e-05
7.17117e-07
6.56546e-05
7.09578e-07
6.57424e-05
6.9824e-07
6.58092e-05
6.83498e-07
6.58578e-05
6.65724e-07
6.58909e-05
6.45267e-07
6.5911e-05
6.2244e-07
6.59204e-05
5.97521e-07
6.59212e-05
5.70749e-07
6.59153e-05
5.4234e-07
6.59042e-05
5.12493e-07
6.58896e-05
4.81413e-07
6.58726e-05
4.49332e-07
6.58543e-05
4.16538e-07
6.58354e-05
3.83398e-07
6.58166e-05
3.50395e-07
6.57981e-05
3.18138e-07
6.57799e-05
2.87434e-07
6.57616e-05
2.59048e-07
6.57433e-05
2.34407e-07
6.57227e-05
2.13024e-07
6.57065e-05
1.97761e-07
1.76311e-07
6.57071e-05
6.38359e-05
2.38829e-07
6.39153e-05
4.17928e-07
6.39903e-05
4.85878e-07
6.40696e-05
5.40883e-07
6.41523e-05
5.75066e-07
6.424e-05
5.94911e-07
6.43335e-05
6.07447e-07
6.44322e-05
6.14116e-07
6.45357e-05
6.15721e-07
6.46431e-05
6.13101e-07
6.47534e-05
6.06801e-07
6.48658e-05
5.97211e-07
6.49793e-05
5.84681e-07
6.50933e-05
5.6952e-07
6.5207e-05
5.52007e-07
6.53199e-05
5.32392e-07
6.54314e-05
5.109e-07
6.55412e-05
4.87736e-07
6.56489e-05
4.63088e-07
6.57541e-05
4.37136e-07
6.58565e-05
4.10071e-07
6.59558e-05
3.821e-07
6.60517e-05
3.53475e-07
6.61437e-05
3.24515e-07
6.62315e-05
2.95616e-07
6.63146e-05
2.67298e-07
6.63925e-05
2.40201e-07
6.64648e-05
2.15179e-07
6.65308e-05
1.93021e-07
6.659e-05
1.75188e-07
6.66411e-05
1.61926e-07
6.6683e-05
1.55899e-07
1.54857e-07
6.67044e-05
6.56419e-05
1.7998e-07
6.5698e-05
3.61836e-07
6.57409e-05
4.43017e-07
6.5779e-05
5.02801e-07
6.58131e-05
5.40925e-07
6.58452e-05
5.62795e-07
6.58768e-05
5.75861e-07
6.59086e-05
5.82271e-07
6.59414e-05
5.83001e-07
6.59754e-05
5.79026e-07
6.60112e-05
5.71023e-07
6.6049e-05
5.59473e-07
6.60888e-05
5.4479e-07
6.6131e-05
5.27343e-07
6.61756e-05
5.07454e-07
6.62226e-05
4.85416e-07
6.6272e-05
4.6149e-07
6.63238e-05
4.35921e-07
6.63779e-05
4.08936e-07
6.64343e-05
3.80757e-07
6.64928e-05
3.51628e-07
6.6553e-05
3.21805e-07
6.66149e-05
2.91598e-07
6.6678e-05
2.61391e-07
6.6742e-05
2.31637e-07
6.68064e-05
2.02925e-07
6.68706e-05
1.75988e-07
6.6934e-05
1.51748e-07
6.69959e-05
1.31179e-07
6.70552e-05
1.15838e-07
6.71105e-05
1.06617e-07
6.71595e-05
1.0698e-07
1.14918e-07
6.71994e-05
6.74918e-05
1.44935e-07
6.75368e-05
3.16848e-07
6.75777e-05
4.02155e-07
6.76182e-05
4.62257e-07
6.76569e-05
5.02241e-07
6.76936e-05
5.26054e-07
6.77293e-05
5.40236e-07
6.77643e-05
5.47232e-07
6.77992e-05
5.48118e-07
6.78343e-05
5.43916e-07
6.787e-05
5.35368e-07
6.79064e-05
5.23e-07
6.7944e-05
5.07252e-07
6.79828e-05
4.88513e-07
6.80231e-05
4.67128e-07
6.80651e-05
4.43406e-07
6.8109e-05
4.17633e-07
6.81548e-05
3.90082e-07
6.82028e-05
3.61014e-07
6.82528e-05
3.30688e-07
6.83051e-05
2.99399e-07
6.83594e-05
2.6745e-07
6.84158e-05
2.35209e-07
6.84741e-05
2.03128e-07
6.8534e-05
1.71718e-07
6.85953e-05
1.41638e-07
6.86575e-05
1.13729e-07
6.87203e-05
8.89736e-08
6.87829e-05
6.85408e-08
6.88447e-05
5.40502e-08
6.89042e-05
4.71245e-08
6.89599e-05
5.12595e-08
6.77296e-08
6.90071e-05
6.9413e-05
1.15918e-07
6.94557e-05
2.74186e-07
6.94954e-05
3.6243e-07
6.95338e-05
4.23878e-07
6.95704e-05
4.65695e-07
6.96053e-05
4.91118e-07
6.96396e-05
5.0596e-07
6.96738e-05
5.13029e-07
6.97083e-05
5.13601e-07
6.97434e-05
5.08754e-07
6.97795e-05
4.99296e-07
6.98167e-05
4.858e-07
6.98552e-05
4.68732e-07
6.98953e-05
4.48502e-07
6.99369e-05
4.25467e-07
6.99804e-05
3.99953e-07
7.00257e-05
3.72262e-07
7.00731e-05
3.42689e-07
7.01226e-05
3.11522e-07
7.01743e-05
2.79046e-07
7.02281e-05
2.45601e-07
7.0284e-05
2.11515e-07
7.0342e-05
1.772e-07
7.0402e-05
1.43158e-07
7.04638e-05
1.09918e-07
7.05272e-05
7.81864e-08
7.05921e-05
4.88835e-08
7.0658e-05
2.29966e-08
7.07247e-05
1.84211e-09
7.07918e-05
-1.29899e-08
7.08584e-05
-1.94903e-08
7.09239e-05
-1.42528e-08
4.97844e-09
7.09867e-05
7.13863e-05
9.59659e-08
7.14201e-05
2.4038e-07
7.14544e-05
3.28088e-07
7.14897e-05
3.88587e-07
7.15252e-05
4.30197e-07
7.15603e-05
4.55994e-07
7.15954e-05
4.70918e-07
7.16306e-05
4.77792e-07
7.16663e-05
4.77949e-07
7.17026e-05
4.7245e-07
7.17398e-05
4.62115e-07
7.1778e-05
4.47538e-07
7.18176e-05
4.292e-07
7.18585e-05
4.07523e-07
7.19011e-05
3.8288e-07
7.19455e-05
3.55611e-07
7.19917e-05
3.26031e-07
7.20399e-05
2.9445e-07
7.20903e-05
2.6118e-07
7.21428e-05
2.26522e-07
7.21975e-05
1.90866e-07
7.22545e-05
1.54544e-07
7.23137e-05
1.18011e-07
7.2375e-05
8.18078e-08
7.24385e-05
4.64624e-08
7.2504e-05
1.26493e-08
7.25715e-05
-1.85491e-08
7.26408e-05
-4.63229e-08
7.27119e-05
-6.93072e-08
7.27849e-05
-8.59092e-08
7.28596e-05
-9.4182e-08
7.29364e-05
-9.10838e-08
-7.4478e-08
7.30158e-05
7.34208e-05
8.04712e-08
7.3451e-05
2.10197e-07
7.34841e-05
2.94928e-07
7.35188e-05
3.53945e-07
7.35538e-05
3.95191e-07
7.35884e-05
4.21365e-07
7.36228e-05
4.36461e-07
7.36575e-05
4.43167e-07
7.36925e-05
4.42882e-07
7.37283e-05
4.36672e-07
7.37651e-05
4.25383e-07
7.3803e-05
4.09636e-07
7.38422e-05
3.89936e-07
7.3883e-05
3.66718e-07
7.39255e-05
3.40369e-07
7.39699e-05
3.11242e-07
7.40163e-05
2.79667e-07
7.40647e-05
2.45974e-07
7.41154e-05
2.10493e-07
7.41684e-05
1.73521e-07
7.42238e-05
1.35507e-07
7.42816e-05
9.67711e-08
7.43418e-05
5.7774e-08
7.44045e-05
1.91201e-08
7.44697e-05
-1.87804e-08
7.45375e-05
-5.51029e-08
7.46079e-05
-8.90018e-08
7.46812e-05
-1.1955e-07
7.47574e-05
-1.45549e-07
7.4837e-05
-1.65548e-07
7.49207e-05
-1.77844e-07
7.50096e-05
-1.79962e-07
-1.70295e-07
7.51054e-05
7.55143e-05
6.86105e-08
7.55397e-05
1.84859e-07
7.5569e-05
2.65564e-07
7.56005e-05
3.22447e-07
7.56333e-05
3.62428e-07
7.56666e-05
3.88058e-07
7.57004e-05
4.02653e-07
7.57348e-05
4.08727e-07
7.577e-05
4.07692e-07
7.58061e-05
4.00586e-07
7.58433e-05
3.88234e-07
7.58816e-05
3.71261e-07
7.59214e-05
3.5017e-07
7.59627e-05
3.25398e-07
7.60058e-05
2.9733e-07
7.60507e-05
2.66333e-07
7.60976e-05
2.32751e-07
7.61466e-05
1.96926e-07
7.61979e-05
1.59208e-07
7.62516e-05
1.19855e-07
7.63077e-05
7.93794e-08
7.63664e-05
3.8074e-08
7.64278e-05
-3.60483e-09
7.64919e-05
-4.49985e-08
7.65589e-05
-8.57534e-08
7.66289e-05
-1.25118e-07
7.67022e-05
-1.62321e-07
7.67792e-05
-1.96503e-07
7.68603e-05
-2.26647e-07
7.69463e-05
-2.51544e-07
7.70383e-05
-2.69858e-07
7.71381e-05
-2.79799e-07
-2.80479e-07
7.72483e-05
7.7669e-05
5.91514e-08
7.76911e-05
1.62748e-07
7.77185e-05
2.38167e-07
7.77489e-05
2.92111e-07
7.7781e-05
3.30287e-07
7.78141e-05
3.5503e-07
7.78477e-05
3.69006e-07
7.7882e-05
3.74428e-07
7.7917e-05
3.72646e-07
7.7953e-05
3.64648e-07
7.799e-05
3.5123e-07
7.80282e-05
3.33015e-07
7.80679e-05
3.10509e-07
7.81091e-05
2.84151e-07
7.81521e-05
2.54331e-07
7.81971e-05
2.2142e-07
7.8244e-05
1.85771e-07
7.82932e-05
1.47733e-07
7.83447e-05
1.07699e-07
7.83988e-05
6.58362e-08
7.84553e-05
2.2864e-08
7.85145e-05
-2.11969e-08
7.85767e-05
-6.57215e-08
7.86419e-05
-1.10212e-07
7.87103e-05
-1.54216e-07
7.87823e-05
-1.97118e-07
7.88583e-05
-2.38247e-07
7.89386e-05
-2.7688e-07
7.90242e-05
-3.12206e-07
7.9116e-05
-3.43315e-07
7.92154e-05
-3.69289e-07
7.93246e-05
-3.88989e-07
-4.02184e-07
7.94463e-05
7.9886e-05
5.1422e-08
7.99052e-05
1.43548e-07
7.99301e-05
2.13272e-07
7.99583e-05
2.6397e-07
7.99885e-05
3.00025e-07
8.00201e-05
3.23475e-07
8.00526e-05
3.36464e-07
8.00861e-05
3.40922e-07
8.01207e-05
3.38132e-07
8.01563e-05
3.29035e-07
8.01931e-05
3.14397e-07
8.02313e-05
2.94826e-07
8.0271e-05
2.70819e-07
8.03123e-05
2.42815e-07
8.03554e-05
2.11204e-07
8.04005e-05
1.76354e-07
8.04477e-05
1.38619e-07
8.04971e-05
9.83365e-08
8.05487e-05
5.60225e-08
8.06032e-05
1.13585e-08
8.06603e-05
-3.42137e-08
8.07202e-05
-8.11307e-08
8.07832e-05
-1.28693e-07
8.08495e-05
-1.76494e-07
8.09194e-05
-2.24088e-07
8.09932e-05
-2.70957e-07
8.10715e-05
-3.16554e-07
8.11549e-05
-3.60315e-07
8.12444e-05
-4.01653e-07
8.1341e-05
-4.39972e-07
8.14465e-05
-4.74759e-07
8.1563e-05
-5.05477e-07
-5.32447e-07
8.16933e-05
8.21669e-05
4.49384e-08
8.21838e-05
1.26638e-07
8.22068e-05
1.90329e-07
8.22334e-05
2.37304e-07
8.22627e-05
2.70792e-07
8.22936e-05
2.92535e-07
8.23258e-05
3.04259e-07
8.23591e-05
3.076e-07
8.23936e-05
3.03724e-07
8.24291e-05
2.93499e-07
8.24659e-05
2.77634e-07
8.2504e-05
2.5671e-07
8.25436e-05
2.3121e-07
8.25848e-05
2.01561e-07
8.26279e-05
1.68149e-07
8.26729e-05
1.31336e-07
8.272e-05
9.14855e-08
8.27695e-05
4.88507e-08
8.28211e-05
4.43131e-09
8.28754e-05
-4.2954e-08
8.29326e-05
-9.13692e-08
8.29927e-05
-1.41238e-07
8.3056e-05
-1.92021e-07
8.31229e-05
-2.43327e-07
8.31935e-05
-2.94779e-07
8.32685e-05
-3.4596e-07
8.33484e-05
-3.96452e-07
8.3434e-05
-4.45856e-07
8.35261e-05
-4.93809e-07
8.36262e-05
-5.4e-07
8.37357e-05
-5.84274e-07
8.38568e-05
-6.26558e-07
-6.67533e-07
8.39919e-05
8.45133e-05
3.93711e-08
8.45284e-05
1.11626e-07
8.45494e-05
1.69254e-07
8.45744e-05
2.1231e-07
8.46022e-05
2.43038e-07
8.46319e-05
2.62852e-07
8.4663e-05
2.73109e-07
8.46954e-05
2.75166e-07
8.47291e-05
2.70058e-07
8.4764e-05
2.5858e-07
8.48003e-05
2.41389e-07
8.48379e-05
2.19037e-07
8.48772e-05
1.91989e-07
8.49181e-05
1.60662e-07
8.49608e-05
1.25439e-07
8.50054e-05
8.66629e-08
8.50522e-05
4.47139e-08
8.51013e-05
-2.57028e-10
8.51531e-05
-4.73628e-08
8.52073e-05
-9.71062e-08
8.52644e-05
-1.4848e-07
8.53246e-05
-2.01411e-07
8.53881e-05
-2.55545e-07
8.54553e-05
-3.10527e-07
8.55265e-05
-3.66045e-07
8.56024e-05
-4.21785e-07
8.56834e-05
-4.77458e-07
8.57703e-05
-5.32824e-07
8.58643e-05
-5.87717e-07
8.59663e-05
-6.42074e-07
8.60781e-05
-6.96022e-07
8.62014e-05
-7.4985e-07
-8.04459e-07
8.63383e-05
8.6927e-05
3.44967e-08
8.69405e-05
9.81682e-08
8.69599e-05
1.49801e-07
8.69835e-05
1.88751e-07
8.70101e-05
2.16479e-07
8.70388e-05
2.34084e-07
8.70693e-05
2.42628e-07
8.71013e-05
2.43219e-07
8.71346e-05
2.36756e-07
8.71692e-05
2.23949e-07
8.72052e-05
2.05395e-07
8.72426e-05
1.816e-07
8.72816e-05
1.53006e-07
8.73223e-05
1.20003e-07
8.73647e-05
8.29718e-08
8.74092e-05
4.22394e-08
8.74556e-05
-1.76179e-09
8.75043e-05
-4.89323e-08
8.75556e-05
-9.86336e-08
8.76094e-05
-1.50882e-07
8.7666e-05
-2.05142e-07
8.77258e-05
-2.61173e-07
8.77889e-05
-3.18694e-07
8.78558e-05
-3.77415e-07
8.79269e-05
-4.37089e-07
8.80026e-05
-4.97496e-07
8.80836e-05
-5.58464e-07
8.81706e-05
-6.19891e-07
8.82647e-05
-6.81775e-07
8.83669e-05
-7.44242e-07
8.84785e-05
-8.07618e-07
8.8601e-05
-8.72412e-07
-9.39592e-07
8.87362e-05
8.94099e-05
3.01589e-08
8.9422e-05
8.59989e-08
8.944e-05
1.31809e-07
8.94622e-05
1.66586e-07
8.94875e-05
1.91198e-07
8.95151e-05
2.0645e-07
8.95446e-05
2.13149e-07
8.95756e-05
2.12171e-07
8.96081e-05
2.04276e-07
8.9642e-05
1.90085e-07
8.96773e-05
1.70129e-07
8.9714e-05
1.44873e-07
8.97523e-05
1.14731e-07
8.97922e-05
8.00711e-08
8.98339e-05
4.12625e-08
8.98776e-05
-1.42473e-09
8.99233e-05
-4.75359e-08
8.99713e-05
-9.69082e-08
9.00218e-05
-1.49103e-07
9.00748e-05
-2.03934e-07
9.01307e-05
-2.61047e-07
9.01897e-05
-3.20182e-07
9.02522e-05
-3.81098e-07
9.03183e-05
-4.43566e-07
9.03886e-05
-5.074e-07
9.04636e-05
-5.72465e-07
9.05438e-05
-6.38683e-07
9.063e-05
-7.06065e-07
9.07229e-05
-7.74734e-07
9.08236e-05
-8.44943e-07
9.09332e-05
-9.17144e-07
9.10527e-05
-9.91972e-07
-1.07037e-06
9.11835e-05
9.19638e-05
2.62478e-08
9.19749e-05
7.4908e-08
9.19916e-05
1.15111e-07
9.20124e-05
1.457e-07
9.20365e-05
1.671e-07
9.20631e-05
1.79856e-07
9.20917e-05
1.84556e-07
9.2122e-05
1.81882e-07
9.21538e-05
1.72458e-07
9.21871e-05
1.56816e-07
9.22218e-05
1.35422e-07
9.2258e-05
1.08694e-07
9.22957e-05
7.70102e-08
9.23351e-05
4.07087e-08
9.23762e-05
1.77388e-10
9.24191e-05
-4.43646e-08
9.24641e-05
-9.25087e-08
9.25112e-05
-1.44024e-07
9.25607e-05
-1.98581e-07
9.26127e-05
-2.55932e-07
9.26674e-05
-3.15797e-07
9.27252e-05
-3.77937e-07
9.27862e-05
-4.42145e-07
9.28509e-05
-5.08243e-07
9.29196e-05
-5.76102e-07
9.29928e-05
-6.45649e-07
9.3071e-05
-7.16885e-07
9.31548e-05
-7.89899e-07
9.3245e-05
-8.64892e-07
9.33422e-05
-9.42195e-07
9.34474e-05
-1.02231e-06
9.35613e-05
-1.10589e-06
-1.19378e-06
9.36847e-05
9.45907e-05
2.26847e-08
9.46009e-05
6.47306e-08
9.46164e-05
9.95744e-08
9.46361e-05
1.26018e-07
9.4659e-05
1.44172e-07
9.46845e-05
1.54359e-07
9.47121e-05
1.56983e-07
9.47414e-05
1.52552e-07
9.47723e-05
1.41562e-07
9.48047e-05
1.24456e-07
9.48385e-05
1.01633e-07
9.48737e-05
7.34631e-08
9.49104e-05
4.02912e-08
9.49487e-05
2.39757e-09
9.49887e-05
-3.98063e-08
9.50305e-05
-8.61306e-08
9.50742e-05
-1.36217e-07
9.512e-05
-1.89805e-07
9.5168e-05
-2.46611e-07
9.52185e-05
-3.06386e-07
9.52716e-05
-3.68885e-07
9.53275e-05
-4.33896e-07
9.53866e-05
-5.01243e-07
9.54492e-05
-5.70786e-07
9.55155e-05
-6.42441e-07
9.5586e-05
-7.16184e-07
9.56612e-05
-7.92064e-07
9.57415e-05
-8.70219e-07
9.58275e-05
-9.5089e-07
9.59198e-05
-1.03443e-06
9.60188e-05
-1.12134e-06
9.61252e-05
-1.21226e-06
-1.30787e-06
9.62393e-05
9.72928e-05
1.94123e-08
9.73022e-05
5.53381e-08
9.73167e-05
8.508e-08
9.73352e-05
1.07461e-07
9.7357e-05
1.22369e-07
9.73815e-05
1.29941e-07
9.7408e-05
1.30426e-07
9.74364e-05
1.2418e-07
9.74664e-05
1.11582e-07
9.74978e-05
9.2991e-08
9.75307e-05
6.87404e-08
9.7565e-05
3.91491e-08
9.76008e-05
4.52668e-09
9.76381e-05
-3.48541e-08
9.76769e-05
-7.86645e-08
9.77174e-05
-1.26661e-07
9.77598e-05
-1.78548e-07
9.7804e-05
-2.34064e-07
9.78504e-05
-2.92948e-07
9.78989e-05
-3.54964e-07
9.795e-05
-4.19891e-07
9.80036e-05
-4.87541e-07
9.80601e-05
-5.57761e-07
9.81198e-05
-6.30442e-07
9.81829e-05
-7.0553e-07
9.82497e-05
-7.83029e-07
9.83207e-05
-8.63016e-07
9.83961e-05
-9.45645e-07
9.84764e-05
-1.03116e-06
9.85618e-05
-1.11992e-06
9.86528e-05
-1.21234e-06
9.87496e-05
-1.309e-06
-1.41041e-06
9.88521e-05
0.000100072
1.63883e-08
0.000100081
4.66297e-08
0.000100094
7.15301e-08
0.000100112
8.9963e-08
0.000100133
1.01663e-07
0.000100156
1.06618e-07
0.000100181
1.04945e-07
0.000100209
9.68722e-08
0.000100238
8.26728e-08
0.000100268
6.26225e-08
0.0001003
3.6993e-08
0.000100333
6.05282e-09
0.000100367
-2.99303e-08
0.000100403
-7.06982e-08
0.00010044
-1.15975e-07
0.000100479
-1.65507e-07
0.00010052
-2.19032e-07
0.000100562
-2.76297e-07
0.000100606
-3.37059e-07
0.000100652
-4.01095e-07
0.000100701
-4.68202e-07
0.000100751
-5.38207e-07
0.000100804
-6.10976e-07
0.00010086
-6.86417e-07
0.000100919
-7.64491e-07
0.000100982
-8.45213e-07
0.000101047
-9.28666e-07
0.000101117
-1.015e-06
0.00010119
-1.10443e-06
0.000101267
-1.19726e-06
0.000101349
-1.29387e-06
0.000101434
-1.39468e-06
-1.50009e-06
0.000101524
0.000102931
1.35807e-08
0.000102939
3.85264e-08
0.000102952
5.8843e-08
0.000102968
7.34652e-08
0.000102988
8.20242e-08
0.00010301
8.43913e-08
0.000103034
8.05698e-08
0.000103061
7.06789e-08
0.000103088
5.48973e-08
0.000103118
3.34246e-08
0.000103148
6.47271e-09
0.00010318
-2.5738e-08
0.000103213
-6.29777e-08
0.000103247
-1.05013e-07
0.000103283
-1.51599e-07
0.00010332
-2.02494e-07
0.000103358
-2.57455e-07
0.000103398
-3.16242e-07
0.00010344
-3.78626e-07
0.000103483
-4.44393e-07
0.000103528
-5.13355e-07
0.000103575
-5.85348e-07
0.000103625
-6.60248e-07
0.000103676
-7.37969e-07
0.00010373
-8.18473e-07
0.000103787
-9.01774e-07
0.000103846
-9.87939e-07
0.000103908
-1.07709e-06
0.000103973
-1.16941e-06
0.000104041
-1.26512e-06
0.000104112
-1.36451e-06
0.000104185
-1.4679e-06
-1.57551e-06
0.00010426
0.000105871
1.09652e-08
0.000105879
3.09661e-08
0.000105891
4.69511e-08
0.000105906
5.79181e-08
0.000105925
6.34304e-08
0.000105946
6.32676e-08
0.000105969
5.73404e-08
0.000105994
4.56748e-08
0.000106021
2.83657e-08
0.000106049
5.54383e-09
0.000106078
-2.26363e-08
0.000106108
-5.59987e-08
0.000106139
-9.4351e-08
0.000106172
-1.37487e-07
0.000106206
-1.85188e-07
0.00010624
-2.37228e-07
0.000106276
-2.9338e-07
0.000106313
-3.53416e-07
0.000106352
-4.17118e-07
0.000106392
-4.8428e-07
0.000106433
-5.54718e-07
0.000106476
-6.28276e-07
0.000106521
-7.04828e-07
0.000106567
-7.84286e-07
0.000106615
-8.66603e-07
0.000106665
-9.51775e-07
0.000106717
-1.03984e-06
0.000106771
-1.13089e-06
0.000106826
-1.22503e-06
0.000106884
-1.32242e-06
0.000106942
-1.42325e-06
0.000107002
-1.52772e-06
-1.63591e-06
0.000107063
0.000108896
8.52272e-09
0.000108903
2.38993e-08
0.000108914
3.57986e-08
0.000108929
4.32795e-08
0.000108946
4.58623e-08
0.000108966
4.32558e-08
0.000108988
3.52948e-08
0.000109012
2.1926e-08
0.000109037
3.17067e-09
0.000109064
-2.09033e-08
0.000109091
-5.01934e-08
0.00010912
-8.45668e-08
0.000109149
-1.23866e-07
0.00010918
-1.67911e-07
0.000109211
-2.16506e-07
0.000109243
-2.69443e-07
0.000109276
-3.26505e-07
0.000109311
-3.87477e-07
0.000109346
-4.52147e-07
0.000109382
-5.20314e-07
0.000109419
-5.91795e-07
0.000109457
-6.66432e-07
0.000109496
-7.44093e-07
0.000109536
-8.24679e-07
0.000109578
-9.08126e-07
0.000109621
-9.94401e-07
0.000109664
-1.08351e-06
0.000109709
-1.17548e-06
0.000109754
-1.27036e-06
0.0001098
-1.36825e-06
0.000109846
-1.46922e-06
0.000109892
-1.57335e-06
-1.68064e-06
0.000109936
0.000112007
6.23805e-09
0.000112013
1.72857e-08
0.000112024
2.53378e-08
0.000112038
2.95112e-08
0.000112054
2.92997e-08
0.000112073
2.43588e-08
0.000112094
1.44612e-08
0.000112116
-5.12568e-10
0.00011214
-2.06054e-08
0.000112165
-4.58052e-08
0.000112191
-7.60571e-08
0.000112218
-1.11268e-07
0.000112245
-1.51312e-07
0.000112273
-1.96036e-07
0.000112302
-2.45264e-07
0.000112331
-2.98804e-07
0.000112361
-3.56452e-07
0.000112392
-4.17998e-07
0.000112423
-4.83235e-07
0.000112454
-5.51966e-07
0.000112487
-6.24003e-07
0.000112519
-6.99182e-07
0.000112553
-7.7736e-07
0.000112586
-8.5842e-07
0.000112621
-9.42272e-07
0.000112655
-1.02885e-06
0.00011269
-1.11812e-06
0.000112724
-1.21005e-06
0.000112759
-1.30464e-06
0.000112792
-1.40188e-06
0.000112825
-1.50178e-06
0.000112856
-1.60432e-06
-1.70939e-06
0.000112884
0.000115207
4.09879e-09
0.000115213
1.10922e-08
0.000115223
1.55299e-08
0.000115236
1.65832e-08
0.000115251
1.37322e-08
0.000115269
6.59276e-09
0.000115288
-5.1128e-09
0.000115309
-2.15603e-08
0.000115332
-4.28478e-08
0.000115355
-6.90137e-08
0.000115379
-1.00046e-07
0.000115404
-1.35889e-07
0.000115429
-1.76447e-07
0.000115454
-2.21589e-07
0.00011548
-2.7116e-07
0.000115506
-3.2498e-07
0.000115533
-3.82856e-07
0.000115559
-4.44583e-07
0.000115586
-5.09957e-07
0.000115613
-5.78777e-07
0.00011564
-6.50851e-07
0.000115667
-7.26003e-07
0.000115693
-8.04075e-07
0.00011572
-8.84927e-07
0.000115746
-9.68442e-07
0.000115772
-1.05452e-06
0.000115797
-1.14307e-06
0.00011582
-1.23402e-06
0.000115843
-1.32731e-06
0.000115864
-1.42286e-06
0.000115883
-1.52059e-06
0.000115899
-1.6204e-06
-1.72212e-06
0.000115912
0.000118498
2.09341e-09
0.000118504
5.28712e-09
0.000118513
6.33339e-09
0.000118525
4.4555e-09
0.00011854
-8.71262e-10
0.000118556
-1.00607e-08
0.000118575
-2.343e-08
0.000118594
-4.12022e-08
0.000118615
-6.35229e-08
0.000118636
-9.04744e-08
0.000118658
-1.22083e-07
0.000118681
-1.58327e-07
0.000118704
-1.99135e-07
0.000118726
-2.44401e-07
0.000118749
-2.93986e-07
0.000118772
-3.47722e-07
0.000118794
-4.05423e-07
0.000118817
-4.66891e-07
0.000118839
-5.31921e-07
0.00011886
-6.00308e-07
0.000118881
-6.71853e-07
0.000118902
-7.46368e-07
0.000118921
-8.23675e-07
0.00011894
-9.03612e-07
0.000118958
-9.86031e-07
0.000118974
-1.0708e-06
0.000118988
-1.15778e-06
0.000119001
-1.24685e-06
0.000119012
-1.33789e-06
0.00011902
-1.43077e-06
0.000119025
-1.52534e-06
0.000119026
-1.62144e-06
-1.71884e-06
0.000119022
0.000121883
2.13151e-10
0.000121889
-1.54448e-10
0.000121897
-2.28042e-09
0.000121909
-6.88865e-09
0.000121922
-1.45035e-08
0.000121938
-2.55603e-08
0.000121955
-4.04103e-08
0.000121973
-5.93168e-08
0.000121992
-8.24671e-08
0.000122011
-1.09983e-07
0.000122031
-1.41926e-07
0.000122051
-1.78303e-07
0.000122071
-2.19069e-07
0.000122091
-2.64137e-07
0.00012211
-3.13383e-07
0.000122129
-3.6665e-07
0.000122147
-4.23759e-07
0.000122165
-4.84515e-07
0.000122182
-5.4871e-07
0.000122198
-6.16136e-07
0.000122212
-6.86583e-07
0.000122226
-7.59848e-07
0.000122238
-8.35737e-07
0.000122248
-9.14064e-07
0.000122257
-9.94651e-07
0.000122264
-1.07733e-06
0.000122268
-1.16193e-06
0.000122269
-1.24828e-06
0.000122267
-1.33623e-06
0.000122262
-1.42558e-06
0.000122253
-1.51614e-06
0.000122239
-1.60771e-06
-1.70001e-06
0.000122221
0.000125365
-1.5596e-09
0.00012537
-5.27336e-09
0.000125378
-1.03723e-08
0.000125389
-1.75259e-08
0.000125402
-2.72525e-08
0.000125416
-4.00022e-08
0.000125432
-5.61525e-08
0.000125449
-7.60001e-08
0.000125466
-9.97687e-08
0.000125484
-1.27614e-07
0.000125501
-1.59629e-07
0.000125519
-1.95847e-07
0.000125536
-2.36246e-07
0.000125553
-2.80757e-07
0.000125569
-3.2927e-07
0.000125584
-3.81637e-07
0.000125597
-4.37688e-07
0.00012561
-4.97228e-07
0.000125622
-5.6005e-07
0.000125631
-6.25939e-07
0.000125639
-6.94678e-07
0.000125646
-7.66049e-07
0.00012565
-8.39841e-07
0.000125652
-9.15848e-07
0.000125651
-9.93867e-07
0.000125647
-1.0737e-06
0.00012564
-1.15514e-06
0.00012563
-1.238e-06
0.000125616
-1.32207e-06
0.000125597
-1.40712e-06
0.000125574
-1.49293e-06
0.000125546
-1.57924e-06
-1.6658e-06
0.000125512
0.000128947
-3.22626e-09
0.000128952
-1.00825e-08
0.000128959
-1.79453e-08
0.000128969
-2.7427e-08
0.000128981
-3.90412e-08
0.000128994
-5.32531e-08
0.000129008
-7.04652e-08
0.000129023
-9.10063e-08
0.000129039
-1.15133e-07
0.000129054
-1.43033e-07
0.000129069
-1.74826e-07
0.000129084
-2.1057e-07
0.000129098
-2.50262e-07
0.000129111
-2.9385e-07
0.000129123
-3.41234e-07
0.000129134
-3.92279e-07
0.000129143
-4.46817e-07
0.00012915
-5.04657e-07
0.000129156
-5.65589e-07
0.000129159
-6.29394e-07
0.000129161
-6.95846e-07
0.000129159
-7.64717e-07
0.000129155
-8.35781e-07
0.000129148
-9.08813e-07
0.000129138
-9.8359e-07
0.000129124
-1.05989e-06
0.000129106
-1.13749e-06
0.000129085
-1.21616e-06
0.000129058
-1.29568e-06
0.000129027
-1.37579e-06
0.00012899
-1.45625e-06
0.000128948
-1.53679e-06
-1.61715e-06
0.000128899
0.000132631
-4.82697e-09
0.000132635
-1.46856e-08
0.000132642
-2.51693e-08
0.000132652
-3.6825e-08
0.000132663
-5.01577e-08
0.000132675
-6.56428e-08
0.000132689
-8.37039e-08
0.000132702
-1.04699e-07
0.000132716
-1.28918e-07
0.00013273
-1.56576e-07
0.000132743
-1.87821e-07
0.000132755
-2.22732e-07
0.000132766
-2.61327e-07
0.000132776
-3.03569e-07
0.000132784
-3.49371e-07
0.00013279
-3.98606e-07
0.000132794
-4.51112e-07
0.000132796
-5.06701e-07
0.000132796
-5.65165e-07
0.000132793
-6.26283e-07
0.000132787
-6.89823e-07
0.000132778
-7.5555e-07
0.000132765
-8.23227e-07
0.000132749
-8.92618e-07
0.000132729
-9.63483e-07
0.000132705
-1.03559e-06
0.000132676
-1.10868e-06
0.000132642
-1.18254e-06
0.000132603
-1.2569e-06
0.000132559
-1.3315e-06
0.000132509
-1.40609e-06
0.000132452
-1.48038e-06
-1.55411e-06
0.000132389
0.00013642
-6.3309e-09
0.000136424
-1.90204e-08
0.000136431
-3.19085e-08
0.00013644
-4.54857e-08
0.00013645
-6.02664e-08
0.000136461
-7.67463e-08
0.000136472
-9.53727e-08
0.000136484
-1.16534e-07
0.000136496
-1.40548e-07
0.000136507
-1.67658e-07
0.000136517
-1.98034e-07
0.000136526
-2.31773e-07
0.000136534
-2.68911e-07
0.00013654
-3.09423e-07
0.000136544
-3.53234e-07
0.000136545
-4.00226e-07
0.000136544
-4.50243e-07
0.000136541
-5.03102e-07
0.000136534
-5.58595e-07
0.000136524
-6.165e-07
0.000136511
-6.76585e-07
0.000136494
-7.38609e-07
0.000136473
-8.02329e-07
0.000136448
-8.67502e-07
0.000136419
-9.33879e-07
0.000136384
-1.00122e-06
0.000136345
-1.06926e-06
0.0001363
-1.13777e-06
0.00013625
-1.20648e-06
0.000136193
-1.27515e-06
0.000136131
-1.34349e-06
0.000136061
-1.41125e-06
-1.47819e-06
0.000135986
0.000140317
-7.9042e-09
0.000140322
-2.34657e-08
0.000140329
-3.87497e-08
0.000140337
-5.41606e-08
0.000140347
-7.02282e-08
0.000140358
-8.74774e-08
0.000140369
-1.06391e-07
0.00014038
-1.27397e-07
0.00014039
-1.50853e-07
0.0001404
-1.77033e-07
0.000140408
-2.0613e-07
0.000140414
-2.38264e-07
0.000140419
-2.73483e-07
0.000140421
-3.1178e-07
0.000140421
-3.53089e-07
0.000140418
-3.97302e-07
0.000140412
-4.44272e-07
0.000140403
-4.93822e-07
0.00014039
-5.4575e-07
0.000140373
-5.99838e-07
0.000140353
-6.55854e-07
0.000140327
-7.1356e-07
0.000140298
-7.72712e-07
0.000140263
-8.33065e-07
0.000140224
-8.94371e-07
0.000140179
-9.56383e-07
0.000140129
-1.01885e-06
0.000140072
-1.08152e-06
0.00014001
-1.14415e-06
0.000139941
-1.20647e-06
0.000139866
-1.26823e-06
0.000139784
-1.32916e-06
-1.38906e-06
0.000139695
0.000144326
-9.29125e-09
0.00014433
-2.75491e-08
0.000144336
-4.49626e-08
0.000144344
-6.1918e-08
0.000144353
-7.89924e-08
0.000144362
-9.67355e-08
0.000144371
-1.15657e-07
0.00014438
-1.36226e-07
0.000144388
-1.58839e-07
0.000144395
-1.83793e-07
0.0001444
-2.11299e-07
0.000144403
-2.41493e-07
0.000144404
-2.74443e-07
0.000144403
-3.10153e-07
0.000144398
-3.4857e-07
0.00014439
-3.89597e-07
0.000144379
-4.33095e-07
0.000144364
-4.78895e-07
0.000144345
-5.26802e-07
0.000144322
-5.76604e-07
0.000144294
-6.28075e-07
0.000144262
-6.80982e-07
0.000144224
-7.35086e-07
0.000144181
-7.90146e-07
0.000144133
-8.45919e-07
0.000144079
-9.02165e-07
0.000144018
-9.5864e-07
0.000143952
-1.0151e-06
0.000143879
-1.07131e-06
0.0001438
-1.12703e-06
0.000143713
-1.18203e-06
0.00014362
-1.23605e-06
-1.28891e-06
0.00014352
0.00014845
-1.12959e-08
0.000148455
-3.27705e-08
0.000148463
-5.25136e-08
0.000148472
-7.08934e-08
0.000148481
-8.86714e-08
0.000148491
-1.06509e-07
0.0001485
-1.24986e-07
0.000148509
-1.44629e-07
0.000148516
-1.6589e-07
0.000148521
-1.8911e-07
0.000148524
-2.14519e-07
0.000148525
-2.42265e-07
0.000148523
-2.72423e-07
0.000148518
-3.05008e-07
0.000148509
-3.39981e-07
0.000148497
-3.77252e-07
0.000148481
-4.16698e-07
0.00014846
-4.58158e-07
0.000148435
-5.01451e-07
0.000148404
-5.46375e-07
0.000148369
-5.92716e-07
0.000148328
-6.40253e-07
0.000148282
-6.88756e-07
0.00014823
-7.37997e-07
0.000148172
-7.87745e-07
0.000148107
-8.37769e-07
0.000148037
-8.87841e-07
0.000147959
-9.37733e-07
0.000147875
-9.8722e-07
0.000147784
-1.03608e-06
0.000147686
-1.08409e-06
0.000147581
-1.13102e-06
-1.17671e-06
0.000147469
0.00015269
-1.24691e-08
0.000152694
-3.69562e-08
0.000152701
-5.88209e-08
0.000152708
-7.85447e-08
0.000152717
-9.69552e-08
0.000152725
-1.14738e-07
0.000152733
-1.32562e-07
0.000152739
-1.5107e-07
0.000152744
-1.70763e-07
0.000152747
-1.91987e-07
0.000152747
-2.14996e-07
0.000152745
-2.39965e-07
0.000152739
-2.66992e-07
0.000152731
-2.96109e-07
0.000152718
-3.27287e-07
0.000152701
-3.60449e-07
0.00015268
-3.95482e-07
0.000152654
-4.32236e-07
0.000152623
-4.70543e-07
0.000152587
-5.10214e-07
0.000152545
-5.51049e-07
0.000152498
-5.9284e-07
0.000152444
-6.35375e-07
0.000152385
-6.78439e-07
0.000152319
-7.2182e-07
0.000152246
-7.65306e-07
0.000152167
-8.08689e-07
0.000152081
-8.51762e-07
0.000151988
-8.94326e-07
0.000151889
-9.36184e-07
0.000151782
-9.77148e-07
0.000151668
-1.01703e-06
-1.0557e-06
0.000151547
0.000157056
-1.65659e-08
0.000157064
-4.53487e-08
0.000157074
-6.91811e-08
0.000157085
-8.93799e-08
0.000157096
-1.07472e-07
0.000157105
-1.2432e-07
0.000157113
-1.40738e-07
0.00015712
-1.57447e-07
0.000157124
-1.74944e-07
0.000157126
-1.93583e-07
0.000157124
-2.13636e-07
0.00015712
-2.35289e-07
0.000157111
-2.58644e-07
0.000157099
-2.83737e-07
0.000157082
-3.10551e-07
0.000157061
-3.39022e-07
0.000157034
-3.69048e-07
0.000157002
-4.00502e-07
0.000156965
-4.33233e-07
0.000156922
-4.67073e-07
0.000156873
-5.01842e-07
0.000156817
-5.37356e-07
0.000156755
-5.73423e-07
0.000156687
-6.09852e-07
0.000156611
-6.46451e-07
0.000156529
-6.83032e-07
0.00015644
-7.19409e-07
0.000156344
-7.55401e-07
0.00015624
-7.90831e-07
0.000156129
-8.25524e-07
0.000156012
-8.59319e-07
0.000155887
-8.92036e-07
-9.2358e-07
0.000155754
0.000161539
-1.7279e-08
0.000161545
-5.1377e-08
0.000161554
-7.79985e-08
0.000161564
-9.95188e-08
0.000161574
-1.177e-07
0.000161584
-1.33607e-07
0.000161591
-1.48374e-07
0.000161597
-1.62884e-07
0.0001616
-1.77733e-07
0.000161599
-1.93358e-07
0.000161596
-2.10061e-07
0.000161588
-2.28032e-07
0.000161577
-2.47377e-07
0.000161562
-2.68136e-07
0.000161541
-2.90296e-07
0.000161516
-3.138e-07
0.000161486
-3.38557e-07
0.00016145
-3.64452e-07
0.000161408
-3.91346e-07
0.00016136
-4.19088e-07
0.000161305
-4.4752e-07
0.000161244
-4.76478e-07
0.000161177
-5.05794e-07
0.000161102
-5.35301e-07
0.000161021
-5.64833e-07
0.000160932
-5.9423e-07
0.000160836
-6.23337e-07
0.000160732
-6.52001e-07
0.000160622
-6.8008e-07
0.000160504
-7.07433e-07
0.000160378
-7.33931e-07
0.000160246
-7.59437e-07
-7.83876e-07
0.000160106
0.000166165
-2.86468e-08
0.000166181
-6.74169e-08
0.000166197
-9.3624e-08
0.000166211
-1.13641e-07
0.000166223
-1.30007e-07
0.000166233
-1.4364e-07
0.000166241
-1.55858e-07
0.000166245
-1.67578e-07
0.000166247
-1.79331e-07
0.000166245
-1.91505e-07
0.000166239
-2.04378e-07
0.000166229
-2.18129e-07
0.000166215
-2.32861e-07
0.000166195
-2.48624e-07
0.000166171
-2.65418e-07
0.00016614
-2.83204e-07
0.000166103