/*--------------------------------*- C++ -*----------------------------------*\
  =========                 |
  \\      /  F ield         | OpenFOAM: The Open Source CFD Toolbox
   \\    /   O peration     | Website:  https://openfoam.org
    \\  /    A nd           | Version:  10
     \\/     M anipulation  |
\*---------------------------------------------------------------------------*/
FoamFile
{
    format      ascii;
    class       volVectorField;
    location    "0.165";
    object      U;
}
// * * * * * * * * * * * * * * * * * * * * * * * * * * * * * * * * * * * * * //

dimensions      [0 1 -1 0 0 0 0];

internalField   nonuniform List<vector> 
6820
(
(7.28188 0.0247324 0)
(7.17893 0.0397875 0)
(7.05751 0.0445454 0)
(6.93084 0.0469788 0)
(6.80544 0.047798 0)
(6.68192 0.047651 0)
(6.56094 0.0469699 0)
(6.44321 0.0459383 0)
(6.32908 0.0446669 0)
(6.21879 0.0432326 0)
(6.11252 0.0416863 0)
(6.01041 0.0400654 0)
(5.91258 0.0383989 0)
(5.81908 0.0367094 0)
(5.72995 0.035014 0)
(5.6452 0.0333247 0)
(5.56482 0.0316489 0)
(5.48879 0.0299899 0)
(5.41708 0.0283474 0)
(5.34967 0.0267181 0)
(5.28651 0.025097 0)
(5.22759 0.0234785 0)
(5.17288 0.0218573 0)
(5.12234 0.0202305 0)
(5.07592 0.0185986 0)
(5.03358 0.0169683 0)
(4.99519 0.0153513 0)
(4.96062 0.013777 0)
(4.9296 0.012254 0)
(4.90206 0.0109055 0)
(4.87678 0.00961806 0)
(4.85588 0.00861587 0)
(4.83059 0.0111647 0)
(7.35917 0.0257716 0)
(7.42088 0.0354645 0)
(7.476 0.0370629 0)
(7.52637 0.0388532 0)
(7.57253 0.0399924 0)
(7.61339 0.0407846 0)
(7.64891 0.041485 0)
(7.67955 0.0420797 0)
(7.70566 0.0425482 0)
(7.7276 0.0428828 0)
(7.74576 0.0430735 0)
(7.76052 0.043113 0)
(7.77226 0.0429987 0)
(7.78133 0.0427316 0)
(7.78808 0.0423143 0)
(7.79285 0.0417507 0)
(7.79594 0.0410444 0)
(7.79762 0.0401986 0)
(7.79817 0.0392153 0)
(7.79782 0.0380959 0)
(7.79677 0.0368415 0)
(7.79521 0.0354539 0)
(7.79331 0.0339371 0)
(7.79119 0.0322995 0)
(7.78897 0.0305553 0)
(7.78673 0.0287281 0)
(7.78452 0.0268516 0)
(7.78235 0.0249797 0)
(7.78021 0.0231529 0)
(7.77804 0.0215337 0)
(7.77587 0.0199078 0)
(7.77322 0.0193355 0)
(7.77257 0.0167548 0)
(7.33544 0.0068484 0)
(7.34587 0.00989756 0)
(7.35532 0.0122908 0)
(7.36375 0.0154834 0)
(7.37296 0.0180803 0)
(7.38281 0.0202296 0)
(7.39321 0.0221366 0)
(7.40426 0.0237879 0)
(7.41591 0.0251813 0)
(7.42806 0.026334 0)
(7.4406 0.0272566 0)
(7.45343 0.0279572 0)
(7.46645 0.0284447 0)
(7.47955 0.0287278 0)
(7.49266 0.0288155 0)
(7.50571 0.028716 0)
(7.51863 0.0284369 0)
(7.53137 0.0279851 0)
(7.54388 0.0273665 0)
(7.55613 0.0265867 0)
(7.56808 0.0256517 0)
(7.57969 0.0245688 0)
(7.59093 0.0233483 0)
(7.60174 0.0220055 0)
(7.6121 0.0205625 0)
(7.62194 0.0190519 0)
(7.63121 0.0175182 0)
(7.63987 0.0160234 0)
(7.64783 0.0146391 0)
(7.65509 0.0134575 0)
(7.66138 0.0125866 0)
(7.66698 0.0118906 0)
(7.67047 0.0118584 0)
(7.33496 0.00914321 0)
(7.34273 0.0196375 0)
(7.34879 0.0247729 0)
(7.35291 0.0280922 0)
(7.35681 0.0300858 0)
(7.36054 0.0312566 0)
(7.36407 0.0320024 0)
(7.36758 0.0324487 0)
(7.37118 0.0326581 0)
(7.3749 0.032681 0)
(7.3788 0.0325462 0)
(7.3829 0.0322702 0)
(7.38724 0.0318648 0)
(7.39182 0.0313383 0)
(7.39666 0.0306968 0)
(7.40178 0.0299448 0)
(7.40717 0.0290852 0)
(7.41283 0.0281207 0)
(7.41875 0.0270536 0)
(7.42493 0.0258865 0)
(7.43135 0.0246238 0)
(7.438 0.0232723 0)
(7.44483 0.0218432 0)
(7.45183 0.0203537 0)
(7.45895 0.0188279 0)
(7.46614 0.0173012 0)
(7.47334 0.0158201 0)
(7.4805 0.0144509 0)
(7.48752 0.0132592 0)
(7.49433 0.0123795 0)
(7.50077 0.0118282 0)
(7.50671 0.0119991 0)
(7.51161 0.0123991 0)
(7.33402 0.00619479 0)
(7.33898 0.0121229 0)
(7.34409 0.0145354 0)
(7.34839 0.0166572 0)
(7.35264 0.0184607 0)
(7.35678 0.0198971 0)
(7.3607 0.0211237 0)
(7.36451 0.0221612 0)
(7.3683 0.0229965 0)
(7.3721 0.023632 0)
(7.37594 0.0240699 0)
(7.37985 0.0243106 0)
(7.38387 0.0243566 0)
(7.38801 0.0242119 0)
(7.39231 0.0238814 0)
(7.39678 0.0233709 0)
(7.40144 0.0226864 0)
(7.40631 0.0218347 0)
(7.4114 0.0208231 0)
(7.41672 0.0196598 0)
(7.42228 0.0183556 0)
(7.42808 0.0169231 0)
(7.4341 0.0153798 0)
(7.44033 0.0137497 0)
(7.44676 0.0120639 0)
(7.45336 0.010366 0)
(7.46008 0.0087148 0)
(7.46689 0.00718675 0)
(7.47372 0.00587496 0)
(7.48051 0.00491232 0)
(7.48713 0.0044419 0)
(7.49347 0.00473412 0)
(7.49913 0.00591799 0)
(7.33377 0.00511827 0)
(7.33798 0.0124014 0)
(7.34279 0.017141 0)
(7.34688 0.020833 0)
(7.35076 0.0235282 0)
(7.35455 0.025368 0)
(7.3582 0.0266494 0)
(7.36179 0.0275154 0)
(7.36541 0.0280368 0)
(7.36909 0.0282717 0)
(7.37285 0.028261 0)
(7.37671 0.028031 0)
(7.38071 0.0276008 0)
(7.38485 0.0269852 0)
(7.38916 0.0261959 0)
(7.39366 0.0252419 0)
(7.39834 0.024131 0)
(7.40324 0.0228709 0)
(7.40836 0.0214692 0)
(7.4137 0.0199338 0)
(7.41927 0.0182767 0)
(7.42507 0.0165115 0)
(7.43109 0.0146582 0)
(7.43733 0.0127444 0)
(7.44377 0.0108034 0)
(7.45039 0.00888064 0)
(7.45717 0.007044 0)
(7.46409 0.00536892 0)
(7.47111 0.00395669 0)
(7.47819 0.00295705 0)
(7.48527 0.0025275 0)
(7.49229 0.00299075 0)
(7.49907 0.00454031 0)
(7.33348 0.00417722 0)
(7.33644 0.0102443 0)
(7.34028 0.0137563 0)
(7.34388 0.0161658 0)
(7.34747 0.0179096 0)
(7.35111 0.0191417 0)
(7.35472 0.0200562 0)
(7.35832 0.020734 0)
(7.36195 0.0211928 0)
(7.36565 0.0214458 0)
(7.36942 0.0215012 0)
(7.37329 0.0213617 0)
(7.37728 0.0210288 0)
(7.38141 0.0205047 0)
(7.3857 0.0197919 0)
(7.39016 0.018894 0)
(7.39481 0.0178155 0)
(7.39966 0.016562 0)
(7.40472 0.0151408 0)
(7.41 0.0135604 0)
(7.41551 0.0118345 0)
(7.42124 0.00997695 0)
(7.42721 0.00800872 0)
(7.43341 0.0059606 0)
(7.43982 0.00386444 0)
(7.44644 0.00177713 0)
(7.45328 -0.000244556 0)
(7.4603 -0.00211045 0)
(7.46752 -0.00371098 0)
(7.47492 -0.00489955 0)
(7.4825 -0.00550139 0)
(7.49028 -0.00521953 0)
(7.49828 -0.00381638 0)
(7.33333 0.00346877 0)
(7.3357 0.00910942 0)
(7.33914 0.0130553 0)
(7.3426 0.0161536 0)
(7.34606 0.0186104 0)
(7.34955 0.0204425 0)
(7.353 0.0217794 0)
(7.35644 0.0227145 0)
(7.35991 0.0232963 0)
(7.36345 0.023565 0)
(7.36706 0.0235527 0)
(7.37078 0.0232821 0)
(7.37463 0.0227703 0)
(7.37863 0.0220318 0)
(7.38278 0.0210784 0)
(7.38712 0.0199199 0)
(7.39164 0.0185647 0)
(7.39638 0.0170223 0)
(7.40133 0.0153031 0)
(7.4065 0.0134175 0)
(7.41191 0.0113836 0)
(7.41756 0.00921649 0)
(7.42345 0.00694347 0)
(7.42959 0.00459371 0)
(7.43598 0.00220632 0)
(7.44262 -0.000171882 0)
(7.44952 -0.00248978 0)
(7.45669 -0.00465635 0)
(7.46415 -0.00656805 0)
(7.47192 -0.00809039 0)
(7.48006 -0.00905246 0)
(7.48865 -0.00919801 0)
(7.49781 -0.00831727 0)
(7.33323 0.00294261 0)
(7.33506 0.00796968 0)
(7.33794 0.0115327 0)
(7.34097 0.0141273 0)
(7.34407 0.0160251 0)
(7.34729 0.0173369 0)
(7.35055 0.0182163 0)
(7.35386 0.018768 0)
(7.35724 0.0190389 0)
(7.3607 0.0190575 0)
(7.36425 0.018843 0)
(7.36791 0.018406 0)
(7.3717 0.0177525 0)
(7.37563 0.0168872 0)
(7.37973 0.0158139 0)
(7.38399 0.0145371 0)
(7.38845 0.013062 0)
(7.3931 0.0113952 0)
(7.39797 0.00954417 0)
(7.40306 0.00751441 0)
(7.40839 0.00532543 0)
(7.41396 0.00298325 0)
(7.41979 0.000511778 0)
(7.42588 -0.00206121 0)
(7.43224 -0.00468611 0)
(7.43889 -0.00732387 0)
(7.44584 -0.00991134 0)
(7.45313 -0.012379 0)
(7.46079 -0.0146359 0)
(7.46888 -0.0165644 0)
(7.47749 -0.0180233 0)
(7.48677 -0.0188131 0)
(7.49687 -0.0187886 0)
(7.33317 0.00252292 0)
(7.33464 0.00701693 0)
(7.33714 0.0104266 0)
(7.33995 0.0130598 0)
(7.3429 0.0151334 0)
(7.34599 0.0167025 0)
(7.34915 0.0178448 0)
(7.35235 0.0186238 0)
(7.35562 0.0190716 0)
(7.35897 0.0192119 0)
(7.36241 0.0190647 0)
(7.36595 0.0186447 0)
(7.36963 0.0179634 0)
(7.37344 0.0170305 0)
(7.37742 0.0158544 0)
(7.38156 0.0144435 0)
(7.3859 0.0128052 0)
(7.39043 0.0109484 0)
(7.39518 0.00888479 0)
(7.40016 0.00661697 0)
(7.40538 0.00417805 0)
(7.41084 0.00158509 0)
(7.41656 -0.00115321 0)
(7.42257 -0.00401478 0)
(7.42887 -0.00696355 0)
(7.4355 -0.00995492 0)
(7.44247 -0.0129353 0)
(7.44983 -0.0158426 0)
(7.45765 -0.0185999 0)
(7.46599 -0.0211136 0)
(7.47497 -0.0232772 0)
(7.48478 -0.0249512 0)
(7.49558 -0.0260567 0)
(7.33313 0.00218613 0)
(7.33433 0.00618763 0)
(7.33647 0.0093296 0)
(7.33899 0.0117379 0)
(7.34168 0.013565 0)
(7.34452 0.0148681 0)
(7.34747 0.0157266 0)
(7.3505 0.0162154 0)
(7.35362 0.0163799 0)
(7.35684 0.0162501 0)
(7.36016 0.0158477 0)
(7.3636 0.0151868 0)
(7.36717 0.0142764 0)
(7.37089 0.0131235 0)
(7.37476 0.0117329 0)
(7.3788 0.0101102 0)
(7.38303 0.00826085 0)
(7.38746 0.00619148 0)
(7.39209 0.00391492 0)
(7.39696 0.00142457 0)
(7.40208 -0.0012755 0)
(7.40744 -0.00414352 0)
(7.41308 -0.00716332 0)
(7.419 -0.0103148 0)
(7.42524 -0.0135733 0)
(7.43183 -0.0169035 0)
(7.4388 -0.0202637 0)
(7.44621 -0.0236059 0)
(7.45412 -0.0268738 0)
(7.46263 -0.0300027 0)
(7.47186 -0.0329256 0)
(7.48201 -0.0355619 0)
(7.49323 -0.0378956 0)
(7.3331 0.00190653 0)
(7.3341 0.00545946 0)
(7.33597 0.00834402 0)
(7.33825 0.010605 0)
(7.34076 0.012363 0)
(7.34345 0.0136686 0)
(7.34628 0.0145751 0)
(7.34921 0.0151317 0)
(7.35223 0.0153666 0)
(7.35535 0.0152974 0)
(7.35857 0.0149372 0)
(7.36191 0.0142953 0)
(7.36537 0.0133787 0)
(7.36898 0.0121928 0)
(7.37274 0.0107428 0)
(7.37666 0.00903358 0)
(7.38077 0.00707092 0)
(7.38508 0.00485936 0)
(7.38959 0.00241013 0)
(7.39431 -0.000240235 0)
(7.39927 -0.0031271 0)
(7.4045 -0.00622664 0)
(7.41 -0.00951565 0)
(7.4158 -0.0129738 0)
(7.42193 -0.0165794 0)
(7.42842 -0.0203048 0)
(7.43532 -0.0241187 0)
(7.44268 -0.0279867 0)
(7.45058 -0.0318723 0)
(7.45913 -0.0357378 0)
(7.46844 -0.0395518 0)
(7.47869 -0.0432841 0)
(7.49002 -0.0469661 0)
(7.33308 0.00166902 0)
(7.33392 0.00481633 0)
(7.33556 0.00743398 0)
(7.33762 0.00950406 0)
(7.33992 0.0110982 0)
(7.34243 0.0122488 0)
(7.34507 0.0129926 0)
(7.34784 0.0133713 0)
(7.3507 0.0134145 0)
(7.35368 0.0131429 0)
(7.35676 0.0125725 0)
(7.35997 0.0117147 0)
(7.3633 0.0105775 0)
(7.36677 0.00916682 0)
(7.3704 0.00748779 0)
(7.37418 0.00554465 0)
(7.37814 0.00334303 0)
(7.3823 0.000882036 0)
(7.38667 -0.0018426 0)
(7.39127 -0.00479115 0)
(7.39609 -0.00796368 0)
(7.40117 -0.0113602 0)
(7.40653 -0.0149656 0)
(7.41219 -0.0187641 0)
(7.41819 -0.0227407 0)
(7.42456 -0.0268775 0)
(7.43134 -0.0311553 0)
(7.43861 -0.0355558 0)
(7.44644 -0.0400628 0)
(7.45491 -0.0446648 0)
(7.46414 -0.0493627 0)
(7.47431 -0.0541678 0)
(7.48551 -0.0591468 0)
(7.33307 0.0014629 0)
(7.33379 0.00424181 0)
(7.33523 0.00659608 0)
(7.3371 0.00847868 0)
(7.33923 0.00993354 0)
(7.34157 0.0109867 0)
(7.34408 0.0116656 0)
(7.34672 0.0120009 0)
(7.34947 0.0120142 0)
(7.35234 0.0117189 0)
(7.35531 0.0111242 0)
(7.35841 0.010236 0)
(7.36163 0.00905831 0)
(7.36498 0.00759367 0)
(7.36849 0.00584495 0)
(7.37215 0.0038137 0)
(7.37598 0.00150725 0)
(7.37999 -0.00106714 0)
(7.3842 -0.00391338 0)
(7.38862 -0.00703838 0)
(7.39328 -0.0104166 0)
(7.39818 -0.0140472 0)
(7.40336 -0.0179216 0)
(7.40883 -0.0220296 0)
(7.41464 -0.0263619 0)
(7.42082 -0.0309092 0)
(7.42741 -0.0356634 0)
(7.43448 -0.0406197 0)
(7.4421 -0.0457791 0)
(7.45035 -0.0511513 0)
(7.45933 -0.0567616 0)
(7.46919 -0.0626512 0)
(7.47999 -0.068907 0)
(7.33306 0.0012808 0)
(7.33369 0.00372434 0)
(7.33496 0.00582194 0)
(7.33666 0.00751071 0)
(7.33862 0.00880818 0)
(7.3408 0.00972669 0)
(7.34315 0.0102803 0)
(7.34563 0.0104886 0)
(7.34824 0.010367 0)
(7.35096 0.00992612 0)
(7.3538 0.00917396 0)
(7.35675 0.0081163 0)
(7.35982 0.00675715 0)
(7.36302 0.00509924 0)
(7.36637 0.00314592 0)
(7.36986 0.000896811 0)
(7.37353 -0.00164767 0)
(7.37737 -0.00447809 0)
(7.3814 -0.00758794 0)
(7.38564 -0.0109832 0)
(7.3901 -0.014652 0)
(7.39481 -0.0185918 0)
(7.39978 -0.0227986 0)
(7.40505 -0.0272679 0)
(7.41063 -0.0319969 0)
(7.41658 -0.0369848 0)
(7.42293 -0.0422341 0)
(7.42973 -0.0477526 0)
(7.43706 -0.0535562 0)
(7.44498 -0.0596718 0)
(7.45357 -0.0661431 0)
(7.46295 -0.0730318 0)
(7.47316 -0.0804348 0)
(7.33305 0.00111758 0)
(7.3336 0.00325428 0)
(7.33474 0.00510447 0)
(7.33628 0.00659979 0)
(7.33809 0.00774064 0)
(7.34012 0.00853116 0)
(7.34233 0.00897858 0)
(7.34468 0.00909554 0)
(7.34716 0.00889266 0)
(7.34975 0.00837672 0)
(7.35246 0.00755197 0)
(7.35529 0.00642074 0)
(7.35823 0.00498414 0)
(7.3613 0.00324177 0)
(7.36451 0.00119535 0)
(7.36785 -0.0011538 0)
(7.37135 -0.00380912 0)
(7.37502 -0.00677085 0)
(7.37887 -0.0100348 0)
(7.38291 -0.0136034 0)
(7.38716 -0.0174729 0)
(7.39164 -0.0216424 0)
(7.39637 -0.026112 0)
(7.40137 -0.0308822 0)
(7.40668 -0.0359564 0)
(7.41233 -0.0413409 0)
(7.41835 -0.0470468 0)
(7.4248 -0.0530916 0)
(7.43172 -0.0595024 0)
(7.43917 -0.0663173 0)
(7.44722 -0.0735914 0)
(7.45594 -0.0813974 0)
(7.46537 -0.0898323 0)
(7.33305 0.000969572 0)
(7.33354 0.0028242 0)
(7.33456 0.00443765 0)
(7.33595 0.00574128 0)
(7.33762 0.00672265 0)
(7.3395 0.00737705 0)
(7.34157 0.00770346 0)
(7.34378 0.00770613 0)
(7.34612 0.00738933 0)
(7.34857 0.00675535 0)
(7.35113 0.00580519 0)
(7.35381 0.00453891 0)
(7.35659 0.00295614 0)
(7.3595 0.00105577 0)
(7.36253 -0.00116515 0)
(7.3657 -0.00370453 0)
(7.36901 -0.00656264 0)
(7.37247 -0.00974103 0)
(7.37611 -0.0132385 0)
(7.37992 -0.0170563 0)
(7.38393 -0.0211944 0)
(7.38815 -0.0256542 0)
(7.3926 -0.0304388 0)
(7.39731 -0.0355532 0)
(7.4023 -0.0410054 0)
(7.40759 -0.0468076 0)
(7.41323 -0.0529776 0)
(7.41925 -0.0595403 0)
(7.42568 -0.06653 0)
(7.43258 -0.0739924 0)
(7.43998 -0.0819879 0)
(7.44794 -0.0905931 0)
(7.45645 -0.0998993 0)
(7.33304 0.000834136 0)
(7.33348 0.00242824 0)
(7.3344 0.00381623 0)
(7.33567 0.00493199 0)
(7.3372 0.00575469 0)
(7.33895 0.00627318 0)
(7.34088 0.00648092 0)
(7.34296 0.00637667 0)
(7.34516 0.00596048 0)
(7.34748 0.0052315 0)
(7.3499 0.0041881 0)
(7.35243 0.0028281 0)
(7.35507 0.00114889 0)
(7.35782 -0.000851439 0)
(7.36069 -0.00317749 0)
(7.36368 -0.00583133 0)
(7.3668 -0.00881479 0)
(7.37006 -0.0121309 0)
(7.37347 -0.0157818 0)
(7.37704 -0.0197705 0)
(7.38079 -0.0241001 0)
(7.38473 -0.0287751 0)
(7.38888 -0.033802 0)
(7.39325 -0.0391897 0)
(7.39787 -0.0449504 0)
(7.40276 -0.051101 0)
(7.40794 -0.0576641 0)
(7.41345 -0.0646692 0)
(7.41931 -0.0721548 0)
(7.42555 -0.0801694 0)
(7.43219 -0.0887741 0)
(7.43926 -0.0980436 0)
(7.44676 -0.108059 0)
(7.33304 0.000709326 0)
(7.33343 0.00206184 0)
(7.33426 0.00323579 0)
(7.33542 0.00416884 0)
(7.33683 0.00483466 0)
(7.33845 0.00521668 0)
(7.34025 0.00530316 0)
(7.34219 0.00508733 0)
(7.34425 0.00456435 0)
(7.34642 0.00372938 0)
(7.3487 0.00257748 0)
(7.35107 0.00110373 0)
(7.35355 -0.00069689 0)
(7.35612 -0.00282897 0)
(7.3588 -0.00529603 0)
(7.36159 -0.00810282 0)
(7.36449 -0.0112524 0)
(7.36752 -0.0147483 0)
(7.37068 -0.0185938 0)
(7.37399 -0.0227929 0)
(7.37744 -0.0273506 0)
(7.38107 -0.032273 0)
(7.38487 -0.0375686 0)
(7.38886 -0.0432487 0)
(7.39307 -0.049328 0)
(7.3975 -0.0558261 0)
(7.40218 -0.0627678 0)
(7.40712 -0.0701847 0)
(7.41234 -0.0781164 0)
(7.41786 -0.0866108 0)
(7.42367 -0.0957255 0)
(7.4298 -0.105529 0)
(7.43622 -0.11609 0)
(7.33303 0.000593691 0)
(7.33339 0.0017214 0)
(7.33414 0.00269263 0)
(7.3352 0.00344921 0)
(7.3365 0.00396151 0)
(7.338 0.00420896 0)
(7.33966 0.00417587 0)
(7.34147 0.00385137 0)
(7.34339 0.00322702 0)
(7.34543 0.0022951 0)
(7.34755 0.00104832 0)
(7.34977 -0.000520171 0)
(7.35208 -0.0024169 0)
(7.35448 -0.00464814 0)
(7.35697 -0.00721919 0)
(7.35956 -0.0101357 0)
(7.36224 -0.0134026 0)
(7.36503 -0.0170248 0)
(7.36793 -0.0210075 0)
(7.37095 -0.0253564 0)
(7.3741 -0.0300783 0)
(7.37738 -0.0351813 0)
(7.38082 -0.040676 0)
(7.3844 -0.0465756 0)
(7.38816 -0.052897 0)
(7.39209 -0.0596609 0)
(7.39622 -0.0668935 0)
(7.40054 -0.0746263 0)
(7.40506 -0.0828977 0)
(7.40979 -0.0917521 0)
(7.41473 -0.101242 0)
(7.41986 -0.111426 0)
(7.42515 -0.122362 0)
(7.33303 0.000486128 0)
(7.33335 0.00140411 0)
(7.33404 0.00218369 0)
(7.335 0.00277081 0)
(7.33619 0.003134 0)
(7.33758 0.00324966 0)
(7.33912 0.00309883 0)
(7.34079 0.00266697 0)
(7.34258 0.0019421 0)
(7.34447 0.000913407 0)
(7.34644 -0.000429132 0)
(7.3485 -0.00209476 0)
(7.35063 -0.00409203 0)
(7.35285 -0.00642882 0)
(7.35513 -0.00911214 0)
(7.3575 -0.0121486 0)
(7.35994 -0.0155443 0)
(7.36247 -0.0193051 0)
(7.36509 -0.023437 0)
(7.36781 -0.0279466 0)
(7.37062 -0.0328412 0)
(7.37353 -0.0381301 0)
(7.37656 -0.0438242 0)
(7.37971 -0.0499374 0)
(7.38298 -0.0564865 0)
(7.38638 -0.0634922 0)
(7.3899 -0.0709796 0)
(7.39356 -0.0789781 0)
(7.39735 -0.0875224 0)
(7.40127 -0.096652 0)
(7.40529 -0.106411 0)
(7.4094 -0.11685 0)
(7.41357 -0.128011 0)
(7.33303 0.000385788 0)
(7.33332 0.00110775 0)
(7.33394 0.00170646 0)
(7.33482 0.00213178 0)
(7.33592 0.00235142 0)
(7.33719 0.00233975 0)
(7.33861 0.00207534 0)
(7.34016 0.00154088 0)
(7.34181 0.000721655 0)
(7.34355 -0.000395505 0)
(7.34537 -0.00182262 0)
(7.34726 -0.00357068 0)
(7.34922 -0.00564969 0)
(7.35123 -0.00806872 0)
(7.35331 -0.010836 0)
(7.35545 -0.0139592 0)
(7.35765 -0.0174454 0)
(7.35991 -0.0213014 0)
(7.36224 -0.0255341 0)
(7.36463 -0.0301509 0)
(7.36709 -0.0351602 0)
(7.36962 -0.0405716 0)
(7.37223 -0.0463968 0)
(7.37491 -0.0526496 0)
(7.37767 -0.0593465 0)
(7.3805 -0.0665074 0)
(7.38341 -0.0741551 0)
(7.38638 -0.0823161 0)
(7.38941 -0.0910206 0)
(7.39249 -0.100302 0)
(7.39558 -0.110196 0)
(7.39868 -0.120742 0)
(7.40173 -0.131972 0)
(7.33303 0.000292 0)
(7.33329 0.000830521 0)
(7.33386 0.00125879 0)
(7.33466 0.00153024 0)
(7.33566 0.00161246 0)
(7.33683 0.00147836 0)
(7.33814 0.00110451 0)
(7.33956 0.000471157 0)
(7.34107 -0.000438863 0)
(7.34267 -0.00164105 0)
(7.34433 -0.00314952 0)
(7.34606 -0.00497704 0)
(7.34783 -0.00713519 0)
(7.34965 -0.00963437 0)
(7.35151 -0.0124839 0)
(7.35341 -0.0156923 0)
(7.35536 -0.0192673 0)
(7.35734 -0.0232161 0)
(7.35935 -0.0275462 0)
(7.36141 -0.0322649 0)
(7.3635 -0.0373805 0)
(7.36562 -0.0429024 0)
(7.36778 -0.0488414 0)
(7.36998 -0.0552104 0)
(7.3722 -0.0620243 0)
(7.37445 -0.0693003 0)
(7.37671 -0.0770582 0)
(7.37898 -0.0853203 0)
(7.38124 -0.0941109 0)
(7.38347 -0.103456 0)
(7.38564 -0.113384 0)
(7.38773 -0.123924 0)
(7.3897 -0.135095 0)
(7.33302 0.000204211 0)
(7.33326 0.000570958 0)
(7.33378 0.00083902 0)
(7.33452 0.000965223 0)
(7.33543 0.000917606 0)
(7.33649 0.000668372 0)
(7.33769 0.00019288 0)
(7.33899 -0.000530247 0)
(7.34037 -0.00151995 0)
(7.34182 -0.0027934 0)
(7.34332 -0.00436626 0)
(7.34487 -0.00625266 0)
(7.34646 -0.00846534 0)
(7.34807 -0.0110157 0)
(7.34971 -0.013914 0)
(7.35137 -0.0171694 0)
(7.35304 -0.0207903 0)
(7.35473 -0.0247843 0)
(7.35643 -0.0291591 0)
(7.35813 -0.0339223 0)
(7.35984 -0.0390819 0)
(7.36155 -0.0446469 0)
(7.36325 -0.0506274 0)
(7.36495 -0.0570348 0)
(7.36663 -0.0638822 0)
(7.36828 -0.0711841 0)
(7.3699 -0.0789569 0)
(7.37146 -0.0872181 0)
(7.37295 -0.0959867 0)
(7.37434 -0.105282 0)
(7.37562 -0.115123 0)
(7.37674 -0.125529 0)
(7.37767 -0.136513 0)
(7.33302 0.000122002 0)
(7.33324 0.000327797 0)
(7.33371 0.000445248 0)
(7.33438 0.00043426 0)
(7.33521 0.000263442 0)
(7.33619 -9.55566e-05 0)
(7.33727 -0.000668566 0)
(7.33845 -0.00147854 0)
(7.3397 -0.00254613 0)
(7.34101 -0.00389011 0)
(7.34236 -0.00552752 0)
(7.34374 -0.00747369 0)
(7.34514 -0.0097423 0)
(7.34655 -0.0123455 0)
(7.34796 -0.0152939 0)
(7.34937 -0.0185971 0)
(7.35078 -0.0222633 0)
(7.35217 -0.0263003 0)
(7.35354 -0.030715 0)
(7.35488 -0.0355146 0)
(7.3562 -0.0407062 0)
(7.35748 -0.0462974 0)
(7.35872 -0.0522967 0)
(7.35991 -0.0587132 0)
(7.36104 -0.0655573 0)
(7.36209 -0.0728403 0)
(7.36305 -0.0805742 0)
(7.36391 -0.0887716 0)
(7.36464 -0.0974455 0)
(7.36522 -0.106608 0)
(7.36562 -0.116272 0)
(7.36581 -0.126447 0)
(7.36575 -0.137138 0)
(7.33302 4.4805e-05 0)
(7.33322 9.98812e-05 0)
(7.33365 7.67298e-05 0)
(7.33426 -6.15249e-05 0)
(7.33502 -0.000344954 0)
(7.3359 -0.000801533 0)
(7.33688 -0.00145731 0)
(7.33794 -0.00233596 0)
(7.33906 -0.00345911 0)
(7.34022 -0.00484665 0)
(7.34141 -0.0065167 0)
(7.34261 -0.00848565 0)
(7.34381 -0.0107681 0)
(7.34501 -0.013377 0)
(7.34618 -0.0163237 0)
(7.34734 -0.0196182 0)
(7.34846 -0.0232691 0)
(7.34955 -0.0272841 0)
(7.35058 -0.0316703 0)
(7.35157 -0.0364342 0)
(7.35249 -0.0415822 0)
(7.35334 -0.0471207 0)
(7.35411 -0.0530568 0)
(7.35479 -0.0593975 0)
(7.35537 -0.0661505 0)
(7.35583 -0.0733238 0)
(7.35616 -0.0809253 0)
(7.35633 -0.0889632 0)
(7.35633 -0.097445 0)
(7.35613 -0.106377 0)
(7.35571 -0.115765 0)
(7.35503 -0.125611 0)
(7.35406 -0.135914 0)
(7.33302 -2.76728e-05 0)
(7.3332 -0.000114305 0)
(7.33359 -0.000270075 0)
(7.33415 -0.000529241 0)
(7.33484 -0.000921302 0)
(7.33564 -0.00147454 0)
(7.33653 -0.00221566 0)
(7.33748 -0.00316927 0)
(7.33848 -0.00435792 0)
(7.3395 -0.00580228 0)
(7.34054 -0.00752107 0)
(7.34158 -0.00953102 0)
(7.34259 -0.0118469 0)
(7.34359 -0.0144816 0)
(7.34454 -0.0174462 0)
(7.34544 -0.0207502 0)
(7.34629 -0.0244016 0)
(7.34708 -0.0284073 0)
(7.34778 -0.0327733 0)
(7.3484 -0.0375048 0)
(7.34893 -0.0426066 0)
(7.34935 -0.0480835 0)
(7.34966 -0.0539399 0)
(7.34983 -0.0601805 0)
(7.34987 -0.06681 0)
(7.34974 -0.0738326 0)
(7.34944 -0.0812527 0)
(7.34895 -0.0890736 0)
(7.34824 -0.0972981 0)
(7.34729 -0.105927 0)
(7.34608 -0.114961 0)
(7.34458 -0.124395 0)
(7.34276 -0.134224 0)
(7.33302 -9.57646e-05 0)
(7.33318 -0.000314767 0)
(7.33354 -0.00059218 0)
(7.33405 -0.000958141 0)
(7.33467 -0.00143993 0)
(7.33539 -0.00206461 0)
(7.33618 -0.00285851 0)
(7.33701 -0.00384655 0)
(7.33788 -0.00505205 0)
(7.33876 -0.00649666 0)
(7.33964 -0.00820014 0)
(7.34049 -0.0101802 0)
(7.34131 -0.0124527 0)
(7.34208 -0.015031 0)
(7.3428 -0.017927 0)
(7.34345 -0.0211505 0)
(7.34401 -0.0247098 0)
(7.34449 -0.0286116 0)
(7.34486 -0.0328615 0)
(7.34512 -0.0374641 0)
(7.34525 -0.0424232 0)
(7.34525 -0.0477421 0)
(7.3451 -0.0534237 0)
(7.34479 -0.0594702 0)
(7.3443 -0.0658836 0)
(7.34362 -0.0726653 0)
(7.34273 -0.0798158 0)
(7.34162 -0.0873349 0)
(7.34025 -0.0952209 0)
(7.33862 -0.10347 0)
(7.33669 -0.112078 0)
(7.33445 -0.121036 0)
(7.33187 -0.130334 0)
(7.33302 -0.000160624 0)
(7.33317 -0.000506597 0)
(7.3335 -0.000903109 0)
(7.33397 -0.00137854 0)
(7.33454 -0.00196018 0)
(7.3352 -0.00267523 0)
(7.33591 -0.00355005 0)
(7.33666 -0.00460944 0)
(7.33743 -0.00587651 0)
(7.33819 -0.0073725 0)
(7.33893 -0.00911657 0)
(7.33963 -0.0111258 0)
(7.34027 -0.0134149 0)
(7.34085 -0.0159969 0)
(7.34135 -0.0188822 0)
(7.34175 -0.0220797 0)
(7.34205 -0.0255963 0)
(7.34223 -0.0294376 0)
(7.34228 -0.0336075 0)
(7.34218 -0.038109 0)
(7.34193 -0.0429442 0)
(7.34152 -0.0481143 0)
(7.34092 -0.0536199 0)
(7.34013 -0.0594609 0)
(7.33913 -0.0656367 0)
(7.33791 -0.0721457 0)
(7.33645 -0.0789855 0)
(7.33473 -0.0861524 0)
(7.33273 -0.0936413 0)
(7.33044 -0.101445 0)
(7.32784 -0.109556 0)
(7.3249 -0.117962 0)
(7.32161 -0.12665 0)
(7.33301 -0.000221965 0)
(7.33316 -0.000684163 0)
(7.33346 -0.00118052 0)
(7.33388 -0.00173333 0)
(7.33439 -0.00236715 0)
(7.33497 -0.00310842 0)
(7.33559 -0.00398397 0)
(7.33622 -0.00501997 0)
(7.33686 -0.0062412 0)
(7.33747 -0.0076706 0)
(7.33805 -0.00932887 0)
(7.33857 -0.0112344 0)
(7.33902 -0.013403 0)
(7.33939 -0.0158484 0)
(7.33965 -0.0185817 0)
(7.33981 -0.021612 0)
(7.33983 -0.0249465 0)
(7.33971 -0.0285904 0)
(7.33944 -0.0325474 0)
(7.33901 -0.0368197 0)
(7.33839 -0.0414085 0)
(7.33759 -0.0463136 0)
(7.33657 -0.0515341 0)
(7.33534 -0.0570681 0)
(7.33388 -0.0629127 0)
(7.33216 -0.0690637 0)
(7.33018 -0.0755163 0)
(7.32793 -0.0822637 0)
(7.32538 -0.0892981 0)
(7.32251 -0.0966097 0)
(7.31932 -0.104187 0)
(7.31578 -0.112016 0)
(7.3119 -0.120083 0)
(7.33301 -0.000283259 0)
(7.33316 -0.000868795 0)
(7.33346 -0.00148566 0)
(7.33388 -0.00215552 0)
(7.33437 -0.00290264 0)
(7.33492 -0.00375164 0)
(7.33549 -0.00472696 0)
(7.33607 -0.00585264 0)
(7.33663 -0.00715146 0)
(7.33714 -0.00864429 0)
(7.33761 -0.0103499 0)
(7.33799 -0.0122849 0)
(7.33829 -0.0144637 0)
(7.33847 -0.0168984 0)
(7.33853 -0.0195987 0)
(7.33846 -0.0225723 0)
(7.33823 -0.0258246 0)
(7.33784 -0.0293596 0)
(7.33726 -0.0331792 0)
(7.33649 -0.0372841 0)
(7.33552 -0.0416737 0)
(7.33433 -0.0463463 0)
(7.33291 -0.0512991 0)
(7.33124 -0.0565284 0)
(7.32931 -0.0620295 0)
(7.32711 -0.0677966 0)
(7.32463 -0.0738227 0)
(7.32184 -0.0800997 0)
(7.31875 -0.0866179 0)
(7.31533 -0.0933659 0)
(7.31158 -0.100331 0)
(7.30747 -0.107498 0)
(7.303 -0.114853 0)
(7.33301 -0.00034049 0)
(7.33314 -0.00102253 0)
(7.33341 -0.00169873 0)
(7.33377 -0.00238462 0)
(7.3342 -0.00310712 0)
(7.33466 -0.00389555 0)
(7.33514 -0.00477896 0)
(7.3356 -0.00578549 0)
(7.33604 -0.00694159 0)
(7.33642 -0.00827111 0)
(7.33672 -0.00979486 0)
(7.33694 -0.0115307 0)
(7.33705 -0.0134938 0)
(7.33704 -0.0156966 0)
(7.33689 -0.0181492 0)
(7.33658 -0.0208592 0)
(7.33611 -0.0238323 0)
(7.33545 -0.0270721 0)
(7.33459 -0.0305801 0)
(7.33353 -0.0343566 0)
(7.33223 -0.0384002 0)
(7.33071 -0.0427082 0)
(7.32893 -0.0472766 0)
(7.32688 -0.0521004 0)
(7.32457 -0.0571733 0)
(7.32196 -0.0624879 0)
(7.31906 -0.0680355 0)
(7.31585 -0.0738063 0)
(7.31232 -0.0797888 0)
(7.30845 -0.0859704 0)
(7.30425 -0.0923369 0)
(7.29969 -0.0988718 0)
(7.29479 -0.105562 0)
(7.33302 -0.000410662 0)
(7.33319 -0.00125155 0)
(7.33351 -0.00210222 0)
(7.33394 -0.0029713 0)
(7.3344 -0.00387704 0)
(7.33489 -0.00483986 0)
(7.33537 -0.00588273 0)
(7.33581 -0.00703059 0)
(7.3362 -0.00830677 0)
(7.33651 -0.00973176 0)
(7.33673 -0.011324 0)
(7.33683 -0.0131 0)
(7.3368 -0.0150738 0)
(7.33663 -0.0172567 0)
(7.3363 -0.0196574 0)
(7.33579 -0.0222823 0)
(7.33508 -0.0251356 0)
(7.33417 -0.0282193 0)
(7.33303 -0.0315338 0)
(7.33167 -0.0350779 0)
(7.33005 -0.0388489 0)
(7.32818 -0.042843 0)
(7.32603 -0.0470552 0)
(7.3236 -0.0514796 0)
(7.32088 -0.0561093 0)
(7.31786 -0.0609361 0)
(7.31452 -0.065951 0)
(7.31087 -0.0711441 0)
(7.30688 -0.0765039 0)
(7.30256 -0.082018 0)
(7.2979 -0.087673 0)
(7.29289 -0.0934529 0)
(7.28753 -0.0993463 0)
(7.33301 -0.000461905 0)
(7.33312 -0.00133738 0)
(7.33338 -0.00212659 0)
(7.33373 -0.00286026 0)
(7.33412 -0.00358394 0)
(7.33452 -0.00433333 0)
(7.33491 -0.00513928 0)
(7.33525 -0.00603024 0)
(7.33553 -0.00703472 0)
(7.33572 -0.00817749 0)
(7.33581 -0.00947734 0)
(7.33577 -0.0109495 0)
(7.33559 -0.0126067 0)
(7.33525 -0.0144594 0)
(7.33474 -0.0165159 0)
(7.33403 -0.0187823 0)
(7.33312 -0.0212627 0)
(7.332 -0.023959 0)
(7.33064 -0.0268715 0)
(7.32903 -0.0299987 0)
(7.32717 -0.0333379 0)
(7.32503 -0.0368845 0)
(7.32261 -0.0406332 0)
(7.31991 -0.0445773 0)
(7.3169 -0.0487088 0)
(7.31358 -0.053019 0)
(7.30994 -0.057498 0)
(7.30598 -0.0621347 0)
(7.30169 -0.0669171 0)
(7.29706 -0.0718323 0)
(7.2921 -0.0768663 0)
(7.28679 -0.0820032 0)
(7.28115 -0.0872316 0)
(7.33304 -0.000596054 0)
(7.33334 -0.00182206 0)
(7.3338 -0.00299931 0)
(7.33432 -0.00410944 0)
(7.33482 -0.00517315 0)
(7.3353 -0.0062163 0)
(7.33572 -0.00727078 0)
(7.33606 -0.00837249 0)
(7.33631 -0.00954819 0)
(7.33645 -0.0108176 0)
(7.33646 -0.0122008 0)
(7.33633 -0.0137155 0)
(7.33603 -0.0153761 0)
(7.33555 -0.0171931 0)
(7.33488 -0.0191739 0)
(7.33399 -0.0213232 0)
(7.33288 -0.0236434 0)
(7.33152 -0.0261348 0)
(7.32992 -0.0287964 0)
(7.32804 -0.0316252 0)
(7.32589 -0.0346176 0)
(7.32345 -0.0377686 0)
(7.32071 -0.0410722 0)
(7.31767 -0.0445219 0)
(7.31431 -0.0481101 0)
(7.31063 -0.0518287 0)
(7.30663 -0.0556688 0)
(7.3023 -0.0596206 0)
(7.29764 -0.0636739 0)
(7.29264 -0.0678175 0)
(7.28731 -0.0720399 0)
(7.28164 -0.0763276 0)
(7.27564 -0.0806727 0)
(7.33299 -0.000583978 0)
(7.33311 -0.00155977 0)
(7.33347 -0.00232209 0)
(7.33393 -0.00298652 0)
(7.3344 -0.00361729 0)
(7.33485 -0.00424429 0)
(7.33525 -0.00490082 0)
(7.33555 -0.00561352 0)
(7.33574 -0.00640358 0)
(7.3358 -0.00729072 0)
(7.33572 -0.00829048 0)
(7.33548 -0.00941524 0)
(7.33506 -0.0106751 0)
(7.33446 -0.0120784 0)
(7.33365 -0.0136318 0)
(7.33262 -0.0153401 0)
(7.33136 -0.0172065 0)
(7.32986 -0.0192323 0)
(7.32809 -0.0214173 0)
(7.32606 -0.0237595 0)
(7.32374 -0.0262558 0)
(7.32113 -0.0289017 0)
(7.31821 -0.0316914 0)
(7.31499 -0.0346181 0)
(7.31145 -0.0376741 0)
(7.30758 -0.0408509 0)
(7.30339 -0.0441391 0)
(7.29887 -0.0475287 0)
(7.29401 -0.0510087 0)
(7.28881 -0.0545677 0)
(7.28329 -0.0581938 0)
(7.27743 -0.0618729 0)
(7.27126 -0.0655957 0)
(7.33313 -0.00110374 0)
(7.3338 -0.00318215 0)
(7.33457 -0.00483435 0)
(7.33523 -0.00617395 0)
(7.33581 -0.00731623 0)
(7.33631 -0.00832074 0)
(7.3367 -0.00925097 0)
(7.33697 -0.0101626 0)
(7.33712 -0.0110946 0)
(7.33712 -0.0120754 0)
(7.33695 -0.0131262 0)
(7.33662 -0.0142628 0)
(7.33608 -0.015496 0)
(7.33534 -0.016833 0)
(7.33436 -0.0182778 0)
(7.33314 -0.0198319 0)
(7.33166 -0.0214949 0)
(7.32991 -0.0232649 0)
(7.32787 -0.0251386 0)
(7.32554 -0.0271122 0)
(7.32289 -0.0291809 0)
(7.31993 -0.0313396 0)
(7.31665 -0.0335824 0)
(7.31303 -0.0359033 0)
(7.30909 -0.0382956 0)
(7.3048 -0.0407528 0)
(7.30019 -0.0432676 0)
(7.29523 -0.0458329 0)
(7.28994 -0.0484411 0)
(7.28433 -0.0510842 0)
(7.27838 -0.0537542 0)
(7.27212 -0.0564421 0)
(7.26555 -0.0591416 0)
(7.33304 -0.000518635 0)
(7.33362 -0.00132107 0)
(7.33463 -0.00192055 0)
(7.33557 -0.00247999 0)
(7.3364 -0.00299752 0)
(7.33714 -0.0034863 0)
(7.33773 -0.00397843 0)
(7.33817 -0.00448835 0)
(7.33846 -0.00502562 0)
(7.3386 -0.0056026 0)
(7.33858 -0.00623127 0)
(7.33841 -0.00692221 0)
(7.33807 -0.00768498 0)
(7.33756 -0.00852801 0)
(7.33689 -0.00945826 0)
(7.33603 -0.0104811 0)
(7.33498 -0.0116003 0)
(7.33375 -0.0128179 0)
(7.33231 -0.0141343 0)
(7.33067 -0.0155486 0)
(7.32882 -0.0170583 0)
(7.32676 -0.0186601 0)
(7.32448 -0.0203495 0)
(7.32197 -0.0221215 0)
(7.31924 -0.0239706 0)
(7.31628 -0.0258902 0)
(7.31309 -0.0278735 0)
(7.30966 -0.0299133 0)
(7.30601 -0.0320019 0)
(7.30211 -0.0341316 0)
(7.29799 -0.0362945 0)
(7.29363 -0.0384815 0)
(7.28905 -0.0406887 0)
(7.33442 -0.00376713 0)
(7.33937 -0.00728502 0)
(7.34532 -0.00895603 0)
(7.35183 -0.0101656 0)
(7.35881 -0.0110179 0)
(7.36606 -0.0116389 0)
(7.37346 -0.0121848 0)
(7.381 -0.012726 0)
(7.38865 -0.0132946 0)
(7.39641 -0.0139144 0)
(7.40426 -0.0145995 0)
(7.41219 -0.0153566 0)
(7.42019 -0.0161886 0)
(7.42822 -0.0170952 0)
(7.43625 -0.0180748 0)
(7.44426 -0.0191239 0)
(7.45219 -0.0202386 0)
(7.45999 -0.0214143 0)
(7.46763 -0.0226458 0)
(7.47505 -0.023928 0)
(7.4822 -0.0252555 0)
(7.48905 -0.0266227 0)
(7.49553 -0.0280239 0)
(7.50162 -0.0294534 0)
(7.50727 -0.0309053 0)
(7.51246 -0.0323736 0)
(7.51714 -0.0338524 0)
(7.52131 -0.0353356 0)
(7.52493 -0.0368173 0)
(7.52799 -0.0382912 0)
(7.53048 -0.0397519 0)
(7.53239 -0.0411928 0)
(7.5337 -0.042611 0)
(7.3297 -0.00412953 0)