/*--------------------------------*- C++ -*----------------------------------*\
  =========                 |
  \\      /  F ield         | OpenFOAM: The Open Source CFD Toolbox
   \\    /   O peration     | Website:  https://openfoam.org
    \\  /    A nd           | Version:  10
     \\/     M anipulation  |
\*---------------------------------------------------------------------------*/
FoamFile
{
    format      ascii;
    class       volScalarField;
    location    "0.125";
    object      epsilon;
}
// * * * * * * * * * * * * * * * * * * * * * * * * * * * * * * * * * * * * * //

dimensions      [0 2 -3 0 0 0 0];

internalField   nonuniform List<scalar> 
6820
(
23.2969
22.5752
21.9094
21.2853
20.7019
20.1633
19.6735
19.2345
18.8457
18.505
18.2092
17.9545
17.7371
17.5533
17.3994
17.2723
17.1689
17.0865
17.0226
16.9752
16.9423
16.9221
16.913
16.9138
16.923
16.9399
16.9627
16.9935
17.0182
17.099
16.9411
17.9213
13.5823
5.03385
6.81826
7.83923
8.46742
8.89774
9.23096
9.52089
9.79396
10.0622
10.3305
10.6009
10.8735
11.1482
11.4245
11.7017
11.9793
12.2565
12.5329
12.8079
13.0809
13.3515
13.6193
13.8839
14.1453
14.4033
14.6581
14.9106
15.162
15.4145
15.6834
15.9378
16.4137
16.4164
3.7036
4.1472
4.56525
4.9142
5.19788
5.43109
5.62787
5.79943
5.95421
6.09831
6.23601
6.37023
6.50288
6.63518
6.76784
6.90129
7.03569
7.17108
7.3074
7.44452
7.58228
7.7205
7.85902
7.99766
8.13633
8.27497
8.41359
8.55265
8.69194
8.83485
8.97626
9.13368
9.27769
3.54009
3.61093
3.72473
3.85371
3.98115
4.09938
4.20615
4.30187
4.38805
4.46645
4.53878
4.60655
4.67101
4.73313
4.79371
4.85331
4.91238
4.97123
5.03009
5.0891
5.14835
5.2079
5.26778
5.32799
5.38854
5.44945
5.51075
5.57258
5.63499
5.69855
5.7632
5.82998
5.89991
3.52064
3.50151
3.50498
3.52611
3.55867
3.5972
3.63777
3.67799
3.71658
3.75298
3.78711
3.81911
3.84925
3.87782
3.90513
3.93146
3.95704
3.98208
4.00676
4.03122
4.05555
4.07986
4.1042
4.12864
4.15321
4.17796
4.20293
4.22817
4.25377
4.27983
4.30645
4.33369
4.36166
3.5194
3.48247
3.45303
3.43232
3.41995
3.4145
3.41421
3.41749
3.42305
3.42994
3.43752
3.44537
3.45325
3.46102
3.46862
3.47605
3.48332
3.49046
3.49752
3.50454
3.51155
3.5186
3.52572
3.53294
3.54028
3.54777
3.55543
3.5633
3.5714
3.57979
3.58851
3.59755
3.60693
3.51943
3.47974
3.44283
3.40949
3.38025
3.35524
3.3342
3.31668
3.30212
3.28997
3.27975
3.27103
3.26351
3.25692
3.25108
3.24585
3.24111
3.2368
3.23286
3.22925
3.22595
3.22294
3.2202
3.21773
3.21552
3.21357
3.21188
3.21045
3.2093
3.20842
3.20784
3.20755
3.20754
3.51947
3.47943
3.44109
3.40466
3.37041
3.33852
3.30907
3.28206
3.25735
3.2348
3.21418
3.19529
3.17793
3.1619
3.14704
3.13321
3.12028
3.10816
3.09675
3.08599
3.07581
3.06617
3.05702
3.04834
3.04008
3.03224
3.02478
3.01769
3.01096
3.00459
2.99856
2.99287
2.9875
3.51948
3.47941
3.44085
3.40382
3.36835
3.33448
3.30225
3.27169
3.2428
3.21553
3.18984
3.16563
3.14283
3.12134
3.10106
3.08189
3.06375
3.04655
3.03022
3.01469
2.99991
2.98581
2.97235
2.95949
2.94719
2.93541
2.92413
2.91332
2.90295
2.89302
2.8835
2.87439
2.86564
3.51948
3.4794
3.44082
3.40368
3.36796
3.33361
3.30063
3.26898
3.23865
3.20962
3.18185
3.15532
3.12999
3.10579
3.0827
3.06064
3.03956
3.01942
3.00016
2.98173
2.96407
2.94716
2.93093
2.91537
2.90042
2.88606
2.87226
2.85899
2.84622
2.83394
2.82212
2.81074
2.79979
3.51948
3.4794
3.44081
3.40365
3.36788
3.33344
3.30028
3.26834
3.23759
3.208
3.17953
3.15214
3.1258
3.10047
3.07613
3.05273
3.03023
3.0086
2.98781
2.9678
2.94856
2.93004
2.91222
2.89505
2.87851
2.86258
2.84722
2.83241
2.81813
2.80436
2.79107
2.77825
2.76588
3.51948
3.4794
3.4408
3.40364
3.36786
3.3334
3.30019
3.26819
3.23734
3.20759
3.17891
3.15124
3.12456
3.09883
3.07401
3.05007
3.02698
3.0047
2.98321
2.96247
2.94246
2.92314
2.90449
2.88648
2.86908
2.85229
2.83606
2.82037
2.80522
2.79057
2.77642
2.76273
2.7495
3.51948
3.4794
3.44079
3.40363
3.36785
3.33337
3.30016
3.26814
3.23726
3.20747
3.17873
3.15099
3.12421
3.09835
3.07338
3.04925
3.02594
3.00341
2.98165
2.9606
2.94026
2.92059
2.90156
2.88316
2.86536
2.84814
2.83148
2.81535
2.79975
2.78464
2.77002
2.75586
2.74216
3.51947
3.47939
3.44079
3.40362
3.36783
3.33336
3.30014
3.26811
3.23722
3.20742
3.17867
3.1509
3.12409
3.0982
3.07317
3.04899
3.02561
3.003
2.98113
2.95998
2.93951
2.9197
2.90053
2.88197
2.864
2.84659
2.82974
2.81341
2.79759
2.78227
2.76742
2.75304
2.73909
3.51947
3.47939
3.44079
3.40362
3.36782
3.33334
3.30012
3.26808
3.23719
3.20739
3.17862
3.15085
3.12403
3.09812
3.07308
3.04888
3.02548
3.00284
2.98094
2.95975
2.93924
2.91939
2.90016
2.88154
2.8635
2.84602
2.82909
2.81268
2.79678
2.78136
2.76641
2.75192
2.73787
3.51947
3.47939
3.44078
3.40361
3.36782
3.33333
3.3001
3.26806
3.23717
3.20736
3.17859
3.15081
3.12399
3.09807
3.07303
3.04881
3.0254
3.00276
2.98085
2.95964
2.93912
2.91924
2.9
2.88136
2.86329
2.84579
2.82883
2.81239
2.79644
2.78099
2.766
2.75146
2.73736
3.51947
3.47939
3.44078
3.40361
3.36781
3.33332
3.30009
3.26805
3.23715
3.20733
3.17856
3.15078
3.12395
3.09803
3.07298
3.04876
3.02534
3.00269
2.98078
2.95957
2.93903
2.91915
2.8999
2.88125
2.86317
2.84566
2.82869
2.81223
2.79627
2.7808
2.76579
2.75123
2.73711
3.51947
3.47939
3.44078
3.4036
3.3678
3.33331
3.30008
3.26803
3.23713
3.20731
3.17853
3.15075
3.12392
3.09799
3.07294
3.04871
3.02529
3.00264
2.98072
2.9595
2.93896
2.91908
2.89982
2.88116
2.86308
2.84556
2.82858
2.81211
2.79615
2.78067
2.76565
2.75108
2.73694
3.51947
3.47939
3.44078
3.4036
3.3678
3.33331
3.30007
3.26802
3.23711
3.20729
3.17851
3.15072
3.12388
3.09795
3.0729
3.04867
3.02525
3.00259
2.98066
2.95944
2.9389
2.91901
2.89975
2.88108
2.863
2.84547
2.82848
2.81201
2.79604
2.78055
2.76552
2.75094
2.73679
3.51947
3.47939
3.44077
3.4036
3.36779
3.3333
3.30006
3.26801
3.2371
3.20727
3.17849
3.1507
3.12386
3.09792
3.07286
3.04863
3.0252
3.00254
2.98061
2.95939
2.93884
2.91895
2.89968
2.88101
2.86292
2.84539
2.82839
2.81192
2.79594
2.78044
2.7654
2.75082
2.73666
3.51947
3.47938
3.44077
3.40359
3.36779
3.33329
3.30005
3.268
3.23708
3.20726
3.17847
3.15068
3.12383
3.09789
3.07283
3.0486
3.02516
3.00249
2.98056
2.95933
2.93878
2.91889
2.89961
2.88094
2.86285
2.84531
2.82831
2.81182
2.79584
2.78033
2.76529
2.75069
2.73653
3.51947
3.47938
3.44077
3.40359
3.36779
3.33329
3.30004
3.26799
3.23707
3.20724
3.17845
3.15066
3.12381
3.09787
3.0728
3.04856
3.02513
3.00245
2.98052
2.95929
2.93873
2.91883
2.89955
2.88087
2.86277
2.84523
2.82823
2.81174
2.79574
2.78023
2.76518
2.75057
2.7364
3.51947
3.47938
3.44077
3.40359
3.36778
3.33329
3.30004
3.26798
3.23706
3.20723
3.17844
3.15064
3.12379
3.09785
3.07277
3.04853
3.02509
3.00242
2.98048
2.95924
2.93868
2.91878
2.89949
2.88081
2.86271
2.84516
2.82815
2.81165
2.79565
2.78013
2.76507
2.75046
2.73628
3.51947
3.47938
3.44077
3.40359
3.36778
3.33328
3.30003
3.26798
3.23706
3.20722
3.17843
3.15062
3.12377
3.09783
3.07275
3.04851
3.02506
3.00238
2.98044
2.9592
2.93864
2.91873
2.89944
2.88075
2.86264
2.84509
2.82807
2.81157
2.79556
2.78004
2.76497
2.75035
2.73616
3.51947
3.47938
3.44077
3.40359
3.36778
3.33328
3.30003
3.26797
3.23705
3.20721
3.17842
3.15061
3.12375
3.09781
3.07273
3.04848
3.02504
3.00235
2.98041
2.95916
2.9386
2.91868
2.89939
2.8807
2.86258
2.84502
2.828
2.81149
2.79548
2.77995
2.76487
2.75025
2.73604
3.51947
3.47938
3.44077
3.40359
3.36778
3.33328
3.30003
3.26797
3.23704
3.20721
3.17841
3.1506
3.12374
3.09779
3.07271
3.04846
3.02501
3.00233
2.98038
2.95913
2.93856
2.91864
2.89934
2.88065
2.86253
2.84496
2.82793
2.81142
2.7954
2.77986
2.76478
2.75015
2.73594
3.51947
3.47938
3.44077
3.40359
3.36778
3.33328
3.30002
3.26796
3.23704
3.2072
3.1784
3.15059
3.12373
3.09778
3.07269
3.04844
3.02499
3.0023
2.98035
2.9591
2.93852
2.9186
2.8993
2.8806
2.86247
2.8449
2.82787
2.81135
2.79533
2.77978
2.76469
2.75005
2.73584
3.51947
3.47938
3.44077
3.40359
3.36778
3.33328
3.30002
3.26796
3.23704
3.2072
3.17839
3.15058
3.12372
3.09777
3.07268
3.04843
3.02498
3.00228
2.98033
2.95907
2.9385
2.91857
2.89926
2.88056
2.86243
2.84486
2.82782
2.81129
2.79526
2.77971
2.76462
2.74997
2.73575
3.51947
3.47938
3.44077
3.40359
3.36778
3.33327
3.30002
3.26796
3.23703
3.20719
3.17838
3.15057
3.12371
3.09775
3.07267
3.04841
3.02495
3.00226
2.9803
2.95905
2.93847
2.91853
2.89923
2.88052
2.86239
2.84481
2.82776
2.81123
2.7952
2.77964
2.76454
2.74989
2.73566
3.51947
3.47938
3.44077
3.40359
3.36778
3.33328
3.30003
3.26796
3.23704
3.2072
3.1784
3.15058
3.12372
3.09776
3.07268
3.04842
3.02496
3.00226
2.9803
2.95904
2.93846
2.91852
2.89921
2.8805
2.86236
2.84478
2.82773
2.8112
2.79516
2.7796
2.76449
2.74983
2.7356
3.51947
3.47939
3.44077
3.40359
3.36778
3.33328
3.30002
3.26796
3.23703
3.20719
3.17838
3.15057
3.12371
3.09775
3.07266
3.0484
3.02494
3.00225
2.98028
2.95903
2.93844
2.91851
2.89919
2.88048
2.86234
2.84476
2.82771
2.81117
2.79513
2.77957
2.76446
2.7498
2.73557
3.51947
3.47938
3.44077
3.40359
3.36779
3.3333
3.30005
3.268
3.23708
3.20724
3.17844
3.15063
3.12377
3.09781
3.07273
3.04847
3.02501
3.00231
2.98035
2.95909
2.93851
2.91857
2.89926
2.88055
2.86242
2.84484
2.82779
2.81126
2.79522
2.77967
2.76457
2.74992
2.73569
3.51948
3.4794
3.4408
3.40362
3.36782
3.33332
3.30007
3.26801
3.23708
3.20725
3.17845
3.15064
3.12379
3.09784
3.07277
3.04852
3.02508
3.00241
2.98047
2.95924
2.93868
2.91878
2.8995
2.88083
2.86274
2.8452
2.8282
2.81172
2.79574
2.78024
2.7652
2.75061
2.73644
3.51947
3.47939
3.44079
3.40365
3.36789
3.33343
3.30023
3.26821
3.23733
3.20753
3.17877
3.15101
3.12421
3.09832
3.07332
3.04916
3.02581
3.00324
2.98142
2.96032
2.93992
2.92017
2.90107
2.88258
2.86469
2.84736
2.83058
2.81433
2.79859
2.78334
2.76855
2.75422
2.74033
3.51949
3.47947
3.44095
3.40385
3.36811
3.33369
3.30054
3.26862
3.23789
3.2083
3.1798
3.15236
3.12593
3.10048
3.07596
3.05235
3.0296
3.00768
2.98655
2.96619
2.94656
2.92763
2.90937
2.89175
2.87475
2.85833
2.84248
2.82718
2.81239
2.7981
2.78428
2.77093
2.758
3.5195
3.47952
3.44117
3.40446
3.36933
3.33572
3.30359
3.2729
3.24361
3.21569
3.18909
3.16375
3.13963
3.11666
3.09479
3.07396
3.05411
3.03519
3.01714
2.99992
2.98347
2.96774
2.9527
2.93831
2.92452
2.91129
2.89861
2.88643
2.87472
2.86346
2.85263
2.84219
2.83213
3.51969
3.48122
3.44561
3.41286
3.38295
3.35586
3.33147
3.3096
3.29005
3.2726
3.25703
3.24315
3.23075
3.21967
3.20974
3.20084
3.19282
3.18558
3.17902
3.17304
3.16758
3.16256
3.15793
3.15363
3.14961
3.14583
3.14227
3.13889
3.13566
3.13256
3.12957
3.12667
3.12384
3.52527
3.51368
3.51617
3.52941
3.55062
3.57776
3.60921
3.6437
3.68027
3.71817
3.75682
3.79577
3.83466
3.87321
3.91121
3.9485
3.98496
4.02049
4.05503
4.08854
4.121
4.15238
4.1827
4.21195
4.24014
4.26731
4.29346
4.31862
4.34283
4.36611
4.38849
4.41
4.43069
3.83318
4.3651
4.84921
5.31431
5.77489
6.22633
6.66435
7.08709
7.49419
7.88606
8.26345
8.62728
8.97844
9.31778
9.64603
9.96388
10.2719
10.5706
10.8605
11.1419
11.4152
11.6807
11.9388
12.1897
12.4337
12.6711
12.902
13.1267
13.3455
13.5585
13.7659
13.968
14.165
30.2663
32.7713
35.3126
37.865
40.4148
42.9529
45.4712
47.9622
50.4189
52.835
55.2051
57.5243
59.7886
61.9944
64.1391
66.2203
68.2366
70.1867
72.07
73.8862
75.6354
77.3179
78.9345
80.486
81.9735
83.3985
84.7622
86.0662
87.3122
88.5019
89.637
90.7191
91.7513
84.9527
233.302
409.917
575.297
703.325
783.433
818.268
817.908
793.998
756.801
713.837
669.921
627.76
588.618
552.887
520.497
491.187
464.656
440.625
418.849
399.109
381.194
364.897
350.009
336.325
323.646
311.79
300.592
289.904
279.604
269.588
259.772
250.093
240.506
230.983
221.51
212.087
202.725
193.441
184.26
175.205
166.301
157.568
149.021
140.665
132.497
124.505
116.669
108.96
101.347
93.7962
86.2752
78.7592
71.2346
63.7045
56.1943
48.7567
41.476
34.4705
27.8892
21.9025
16.6803
12.3579
8.99619
6.55423
4.89588
3.83433
3.18659
2.80729
2.59512
2.48434
2.43362
2.4173
2.41957
2.43082
2.44531
2.45981
2.47265
2.48317
2.49134
2.49752
2.50227
2.50626
2.51017
2.51458
2.51997
2.52662
2.53461
2.54382
2.5539
2.56437
2.57464
2.58407
2.59205
2.59805
2.60164
2.60263
2.60051
2.59708
2.58376
19.134
27.6397
43.6254
67.8513
99.7784
137.741
179.27
221.496
261.534
296.893
325.712
346.947
360.424
366.734
366.997
362.568
354.792
344.837
333.626
321.828
309.896
298.109
286.625
275.519
264.812
254.494
244.534
234.893
225.529
216.398
207.461
198.688
190.053
181.542
173.147
164.873
156.729
148.731
140.9
133.257
125.821
118.611
111.636
104.901
98.4027
92.1278
86.0559
80.1597
74.407
68.7637
63.1965
57.6772
52.1866
46.7188
41.286
35.9221
30.6857
25.6603
20.9511
16.6758
12.9472
9.85072
7.41963
5.62161
4.36656
3.53416
3.00552
2.68318
2.49598
2.39511
2.34803
2.33331
2.33695
2.34996
2.36667
2.38362
2.39886
2.41144
2.42107
2.42789
2.43235
2.43502
2.43659
2.43771
2.43901
2.441
2.44406
2.44837
2.45394
2.46058
2.46792
2.47548
2.48272
2.48908
2.49403
2.49715
2.4982
2.49665
2.494
2.48283
9.42263
9.78253
10.7384
12.6533
15.7907
20.3342
26.3411
33.9206
43.175
54.1281
66.6154
80.271
94.5549
108.818
122.385
134.64
145.09
153.41
159.465
163.301
165.103
165.15
163.755
161.224
157.824
153.775
149.246
144.366
139.231
133.914
128.469
122.943
117.373
111.794
106.238
100.735
95.3172
90.0113
84.8441
79.8385
75.0131
70.381
65.9489
61.7161
57.6749
53.8107
50.1026
46.5255
43.0516
39.6531
36.3048
32.9873
29.6903
26.4159
23.1809
20.019
16.9798
14.1259
11.5261
9.24466
7.32809
5.79376
4.62499
3.77635
3.1867
2.79348
2.54226
2.3902
2.30549
2.26526
2.25331
2.25837
2.2727
2.29109
2.31014
2.32773
2.34267
2.35441
2.36286
2.36827
2.37107
2.37185
2.37123
2.36987
2.36838
2.3673
2.36704
2.36789
2.36996
2.37316
2.37728
2.38195
2.38672
2.39108
2.39458
2.39677
2.39739
2.39591
2.3936
2.3839
5.97585
6.05875
6.16955
6.35888
6.68352
7.1954
7.93468
8.9353
10.2365
11.8581
13.836
16.2057
18.9924
22.2029
25.817
29.7799
33.9979
38.3402
42.6491
46.756
50.5023
53.7566
56.4258
58.4579
59.8392
60.587
60.7421
60.3609
59.5091
58.2563
56.6718
54.8217
52.7675
50.5649
48.2638
45.908
43.5358
41.1801
38.8681
36.6217
34.4576
32.3867
30.4145
28.5414
26.7624
25.0684
23.4464
21.8813
20.3564
18.8559
17.3658
15.8767
14.3851
12.8951
11.42
9.98136
8.60811
7.33277
6.18665
5.19427
4.36868
3.70948
3.20419
2.8322
2.56957
2.39276
2.2809
2.21659
2.18589
2.17799
2.1847
2.19995
2.21937
2.23985
2.25931
2.27641
2.29039
2.30094
2.30807
2.31205
2.3133
2.31236
2.30981
2.30628
2.30233
2.29852
2.29528
2.29294
2.2917
2.29159
2.2925
2.29419
2.29629
2.29839
2.30008
2.30094
2.3007
2.29884
2.29645
2.28753
4.39387
4.42951
4.4662
4.50915
4.56674
4.64975
4.7695
4.93634
5.15992
5.44501
5.79662
6.21939
6.71725
7.29308
7.94828
8.68206
9.49047
10.3652
11.293
12.2549
13.2274
14.1836
15.0948
15.9328
16.6712
17.2877
17.7649
18.092
18.2647
18.2855
18.1632
17.9113
17.5468
17.0891
16.5581
15.9733
15.3528
14.7132
14.0683
13.4296
12.8059
12.2033
11.6254
11.0734
10.5462
10.0408
9.5525
9.07557
8.60355
8.13004
7.64945
7.15782
6.6537
6.13887
5.61874
5.10226
4.60106
4.12811
3.69581
3.31418
2.98952
2.72384
2.51523
2.35877
2.2477
2.17442
2.13133
2.11137
2.10827
2.11679
2.13263
2.15242
2.17357
2.19418
2.21289
2.22882
2.24145
2.2506
2.25633
2.2589
2.25869
2.2562
2.25196
2.24653
2.24046
2.23425
2.22836
2.22315
2.21888
2.21565
2.21346
2.21217
2.21151
2.21117
2.21078
2.20999
2.20852
2.20586
2.20301
2.19422
3.61805
3.63066
3.64335
3.65656
3.67132
3.68943
3.7135
3.74649
3.79119
3.85006
3.92499
4.01727
4.12761
4.25619
4.40266
4.56613
4.74514
4.93753
5.14041
5.35009
5.56226
5.77208
5.97444
6.16412
6.336
6.48523
6.60751
6.69928
6.75808
6.78264
6.77307
6.73075
6.65826
6.5591
6.4374
6.29766
6.1444
5.98196
5.81427
5.64474
5.47615
5.31059
5.14948
4.99352
4.84277
4.69662
4.55393
4.41305
4.27203
4.12872
3.98109
3.82745
3.6668
3.49918
3.32586
3.14944
2.97373
2.8034
2.64337
2.49825
2.37174
2.26623
2.18266
2.1206
2.07844
2.05379
2.04376
2.0453
2.05545
2.07149
2.09105
2.11212
2.1331
2.1527
2.17
2.18436
2.19543
2.20309
2.2074
2.20859
2.20703
2.20314
2.1974
2.19032
2.18241
2.17414
2.16594
2.15819
2.15118
2.14509
2.13997
2.13579
2.13237
2.12949
2.12686
2.12416
2.12116
2.11734
2.11369
2.10444
3.20782
3.20827
3.20881
3.20946
3.21032
3.21165
3.2139
3.21771
3.22386
3.23316
3.24641
3.26426
3.28716
3.31537
3.34888
3.38745
3.43061
3.47764
3.52759
3.5793
3.63143
3.68255
3.73118
3.77589
3.81526
3.84799
3.87295
3.88915
3.89589
3.89273
3.87956
3.8566
3.8244
3.78375
3.73569
3.68138
3.62206
3.559
3.49338
3.4263
3.3587
3.29137
3.2249
3.15968
3.09592
3.03359
2.97251
2.91229
2.85244
2.79233
2.73133
2.66884
2.60444
2.538
2.46979
2.40052
2.33145
2.26422
2.20077
2.14309
2.09299
2.05188
2.02061
1.99944
1.98798
1.98537
1.99036
2.00148
2.01716
2.03587
2.05616
2.07673
2.09646
2.11446
2.13001
2.14263
2.15206
2.15818
2.16108
2.16096
2.15813
2.15297
2.14591
2.1374
2.1279
2.11785
2.10767
2.09771
2.08828
2.0796
2.07179
2.06488
2.05879
2.05337
2.0484
2.04364
2.03887
2.03361
2.02886
2.01861
2.98161
2.97508
2.96862
2.96221
2.95586
2.94963
2.94356
2.93779
2.93246
2.92781
2.92405
2.92141
2.9201
2.92028
2.92202
2.92535
2.93018
2.93634
2.94353
2.95139
2.95947
2.96726
2.97424
2.97988
2.98367
2.98514
2.98387
2.97948
2.9717
2.96033
2.94529
2.92659
2.90436
2.87883
2.8503
2.81915
2.78578
2.75064
2.71414
2.6767
2.6387
2.60048
2.56229
2.52437
2.48688
2.44989
2.41346
2.37755
2.3421
2.30701
2.27216
2.23746
2.20284
2.16835
2.13415
2.10057
2.06813
2.03751
2.00954
1.98508
1.96496
1.94988
1.94027
1.93631
1.93785
1.94447
1.95551
1.97011
1.98733
2.00615
2.0256
2.04473
2.0627
2.07881
2.09248
2.10332
2.11109
2.11571
2.11725
2.11588
2.11186
2.10555
2.09731
2.08755
2.07669
2.06513
2.05324
2.04138
2.02984
2.01887
2.00864
1.99922
1.9906
1.98271
1.97541
1.96849
1.9618
1.95489
1.94882
1.9371
2.85589
2.84501
2.83421
2.82347
2.8128
2.80219
2.79165
2.7812
2.77085
2.76066
2.75068
2.74097
2.73158
2.72256
2.71395
2.70578
2.69804
2.69071
2.68371
2.67693
2.67023
2.66344
2.65637
2.64883
2.64061
2.63154
2.62144
2.61014
2.59752
2.58348
2.56797
2.55095
2.53244
2.51252
2.49127
2.46882
2.44531
2.4209
2.39575
2.37003
2.3439
2.3175
2.29097
2.26442
2.23795
2.21165
2.18559
2.15985
2.13447
2.10952
2.08506
2.06117
2.03795
2.01553
1.99412
1.97395
1.95535
1.9387
1.92441
1.91291
1.90462
1.89985
1.89882
1.90157
1.908
1.91781
1.93055
1.94564
1.96239
1.98007
1.99792
2.01518
2.03117
2.0453
2.05708
2.06616
2.07233
2.07552
2.07576
2.0732
2.0681
2.06073
2.05145
2.0406
2.02857
2.0157
2.00237
1.98889
1.97554
1.96259
1.95021
1.93853
1.92758
1.91736
1.90778
1.89871
1.89004
1.88134
1.8738
1.86024
2.78752
2.77378
2.76013
2.74655
2.73304
2.7196
2.70623
2.69292
2.6797
2.66657
2.65353
2.64059
2.62776
2.61504
2.60245
2.58997
2.5776
2.56534
2.55317
2.54105
2.52893
2.51677
2.50449
2.49202
2.47931
2.46626
2.45283
2.43893
2.42452
2.40955
2.39398
2.37779
2.36097
2.34354
2.32552
2.30694
2.28785
2.26831
2.24838
2.22812
2.20759
2.18686
2.16599
2.14504
2.12408
2.10317
2.08238
2.06178
2.04148
2.02155
2.00212
1.98332
1.96529
1.94821
1.93229
1.91773
1.9048
1.89375
1.88486
1.8784
1.8746
1.87362
1.87557
1.88044
1.88811
1.89834
1.91078
1.92496
1.94034
1.95631
1.97223
1.98748
2.00145
2.01363
2.02357
2.03097
2.03562
2.03744
2.03647
2.03283
2.02671
2.0184
2.00818
1.99638
1.98333
1.96937
1.95481
1.93995
1.92508
1.91042
1.89618
1.8825
1.86946
1.8571
1.84538
1.83422
1.82357
1.813
1.8039
1.78823
2.75197
2.73638
2.72086
2.70542
2.69005
2.67475
2.65953
2.64437
2.6293
2.61432
2.59942
2.58462
2.56991
2.55528
2.54074
2.52627
2.51187
2.49752
2.48323
2.46896
2.45469
2.44042
2.42611
2.41174
2.39728
2.3827
2.36799
2.35312
2.33807
2.32281
2.30733
2.29161
2.27565
2.25943
2.24297
2.22626
2.20932
2.19216
2.1748
2.15726
2.13957
2.12174
2.1038
2.0858
2.06776
2.04975
2.03181
2.01403
1.99648
1.97927
1.96252
1.94636
1.93096
1.91648
1.90311
1.89106
1.88055
1.87178
1.86498
1.86033
1.85799
1.85808
1.86064
1.86565
1.873
1.88246
1.89373
1.90642
1.92006
1.93412
1.94804
1.96127
1.97327
1.98357
1.99177
1.99759
2.00081
2.00137
1.99927
1.99462
1.98759
1.97842
1.96737
1.95473
1.94082
1.92591
1.91032
1.89431
1.87815
1.86205
1.84622
1.83082
1.81594
1.80165
1.78796
1.77484
1.76228
1.74987
1.73918
1.72122
2.7346
2.71786
2.70118
2.68457
2.66801
2.65152
2.6351
2.61875
2.60248
2.58629
2.5702
2.55421
2.53832
2.52253
2.50683
2.49123
2.47571
2.46028
2.44491
2.4296
2.41434
2.39912
2.38392
2.36873
2.35354
2.33835
2.32313
2.30789
2.29262
2.27729
2.26192
2.24648
2.23096
2.21537
2.19969
2.18391
2.16805
2.15208
2.13603
2.11988
2.10364
2.08732
2.07093
2.0545
2.03804
2.02161
2.00525
1.98903
1.97301
1.95731
1.94203
1.9273
1.91327
1.90011
1.88797
1.87706
1.86756
1.85966
1.85354
1.84935
1.84722
1.84724
1.84944
1.85378
1.86016
1.86838
1.87816
1.88916
1.90097
1.91309
1.92505
1.93633
1.94645
1.95498
1.96155
1.96588
1.96778
1.96716
1.96403
1.95845
1.9506
1.94066
1.92888
1.91552
1.90086
1.88516
1.8687
1.85173
1.83449
1.81719
1.80002
1.78314
1.76668
1.7507
1.73526
1.72034
1.706
1.69181
1.67957
1.65927
2.7267
2.70931
2.69196
2.67465
2.65739
2.64018
2.62303
2.60594
2.58892
2.57198
2.55513
2.53837
2.52172
2.50517
2.48873
2.4724
2.45617
2.44005
2.42403
2.4081
2.39226
2.37649
2.3608
2.34517
2.3296
2.31408
2.29861
2.28318
2.2678
2.25244
2.23711
2.2218
2.2065
2.19121
2.1759
2.16059
2.14525
2.12988
2.11447
2.09902
2.08353
2.068
2.05243
2.03683
2.02123
2.00567
1.99018
1.97482
1.95966
1.9448
1.93033
1.91637
1.90307
1.89056
1.879
1.86857
1.85944
1.85176
1.8457
1.84139
1.83895
1.83843
1.83988
1.84324
1.84842
1.85525
1.86346
1.87276
1.88275
1.89301
1.90309
1.91253
1.92089
1.92775
1.93279
1.93574
1.93641
1.93471
1.93063
1.92422
1.91562
1.905
1.89258
1.8786
1.86329
1.84693
1.82974
1.81198
1.79384
1.77555
1.75727
1.73916
1.72135
1.70392
1.68695
1.67044
1.65448
1.63864
1.62495
1.60232
2.72335
2.70561
2.6879
2.67022
2.65258
2.63496
2.6174
2.59988
2.58242
2.56503
2.54771
2.53049
2.51335
2.49632
2.4794
2.46259
2.44589
2.4293
2.41283
2.39648
2.38023
2.36409
2.34805
2.33211
2.31626
2.30051
2.28484
2.26926
2.25375
2.23833
2.22297
2.20768
2.19244
2.17725
2.1621
2.14698
2.13187
2.11677
2.10167
2.08656
2.07144
2.0563
2.04115
2.02599
2.01086
1.99576
1.98075
1.96587
1.95119
1.93679
1.92277
1.90922
1.89628
1.88409
1.87277
1.86249
1.8534
1.84565
1.83937
1.8347
1.83172
1.8305
1.83105
1.83334
1.83727
1.84269
1.84936
1.857
1.86526
1.87376
1.88207
1.88978
1.89648
1.9018
1.90542
1.90709
1.90662
1.90393
1.89898
1.89182
1.88255
1.87133
1.85835
1.84383
1.82799
1.81106
1.79328
1.77485
1.75599
1.73688
1.71769
1.69856
1.67963
1.66099
1.64271
1.62482
1.60743
1.5901
1.57508
1.55025
2.72199
2.70409
2.6862
2.66834
2.65049
2.63267
2.61488
2.59713
2.57943
2.56178
2.5442
2.52669
2.50927
2.49194
2.4747
2.45758
2.44056
2.42366
2.40687
2.39021
2.37366
2.35724
2.34093
2.32473
2.30865
2.29269
2.27683
2.26108
2.24544
2.2299
2.21445
2.1991
2.18382
2.16862
2.15349
2.13841
2.12337
2.10836
2.09338
2.07841
2.06345
2.0485
2.03355
2.01862
2.00373
1.98889
1.97414
1.95952
1.94511
1.93097
1.91718
1.90385
1.89108
1.87901
1.86776
1.85746
1.84826
1.84029
1.83367
1.82852
1.82493
1.82294
1.82256
1.82378
1.82649
1.83054
1.83574
1.84181
1.84844
1.85527
1.86193
1.86802
1.87318
1.87706
1.87935
1.87983
1.87832
1.87471
1.86897
1.86113
1.85127
1.83952
1.82606
1.81109
1.7948
1.77741
1.75913
1.74017
1.72072
1.70095
1.68102
1.66107
1.64122
1.62157
1.6022
1.58314
1.56452
1.54589
1.52971
1.50285
2.72142
2.70345
2.68548
2.66752
2.64957
2.63164
2.61374
2.59587
2.57804
2.56025
2.54251
2.52484
2.50725
2.48973
2.4723
2.45497
2.43774
2.42062
2.40361
2.38672
2.36995
2.3533
2.33677
2.32036
2.30408
2.28792
2.27188
2.25597
2.24017
2.22449
2.20891
2.19345
2.17808
2.1628
2.14761
2.13248
2.11742
2.10241
2.08744
2.07251
2.0576
2.04272
2.02786
2.01304
1.99826
1.98355
1.96894
1.95448
1.94021
1.92621
1.91255
1.89931
1.88662
1.87456
1.86327
1.85287
1.84348
1.83523
1.82822
1.82256
1.81833
1.81556
1.81428
1.81445
1.81598
1.81875
1.82255
1.82714
1.83224
1.83752
1.84263
1.84721
1.85093
1.85347
1.85454
1.85391
1.85143
1.84698
1.84052
1.83206
1.82168
1.80948
1.79561
1.78025
1.76359
1.74583
1.72715
1.70777
1.68784
1.66754
1.64702
1.62641
1.60583
1.58536
1.5651
1.54508
1.52544
1.5057
1.48851
1.45986
2.72114
2.70313
2.68511
2.66711
2.64911
2.63113
2.61317
2.59523
2.57732
2.55945
2.54162
2.52386
2.50615
2.48851
2.47095
2.45348
2.43611
2.41883
2.40166
2.3846
2.36765
2.35082
2.33412
2.31753
2.30107
2.28474
2.26853
2.25245
2.23649
2.22066
2.20494
2.18934
2.17385
2.15847
2.14317
2.12796
2.11283
2.09776
2.08275
2.06779
2.05288
2.038
2.02317
2.00839
1.99366
1.97902
1.96449
1.9501
1.93591
1.92198
1.90838
1.89518
1.88249
1.8704
1.85903
1.84847
1.83886
1.83029
1.82287
1.8167
1.81183
1.80831
1.80615
1.80532
1.80574
1.80729
1.80978
1.81299
1.81665
1.82048
1.82414
1.82732
1.8297
1.83098
1.83091
1.82927
1.82589
1.82067
1.81355
1.80454
1.79369
1.7811
1.76688
1.75121
1.73425
1.71619
1.69721
1.67749
1.65719
1.63648
1.6155
1.59437
1.57321
1.55209
1.53112
1.51032
1.48984
1.46918
1.45117
1.42097
2.72095
2.70292
2.68488
2.66685
2.64882
2.6308
2.6128
2.59482
2.57686
2.55894
2.54105
2.52322
2.50544
2.48772
2.47007
2.45249
2.43501
2.41761
2.40031
2.38311
2.36603
2.34905
2.3322
2.31546
2.29884
2.28235
2.26599
2.24975
2.23364
2.21766
2.2018
2.18606
2.17044
2.15493
2.13952
2.1242
2.10897
2.09383
2.07875
2.06373
2.04878
2.03388
2.01904
2.00426
1.98955
1.97493
1.96043
1.94609
1.93194
1.91804
1.90445
1.89126
1.87854
1.86638
1.85489
1.84416
1.8343
1.82541
1.81758
1.81089
1.80541
1.80117
1.79817
1.7964
1.79577
1.79616
1.79742
1.79933
1.80166
1.80412
1.80644
1.8083
1.80943
1.80955
1.80842
1.80583
1.80162
1.7957
1.78799
1.77848
1.76722
1.75429
1.73979
1.72387
1.70668
1.6884
1.66918
1.64921
1.62864
1.60761
1.58628
1.56475
1.54313
1.52151
1.49998
1.47857
1.45743
1.43603
1.41735
1.38588
2.72079
2.70274
2.68469
2.66663
2.64858
2.63054
2.61251
2.59449
2.5765
2.55854
2.54061
2.52272
2.50488
2.48709
2.46937
2.45171
2.43413
2.41664
2.39924
2.38193
2.36472
2.34762
2.33064
2.31376
2.29701
2.28038
2.26387
2.24749
2.23124
2.21511
2.19911
2.18323
2.16748
2.15184
2.13631
2.12088
2.10555
2.09031
2.07515
2.06007
2.04505
2.03011
2.01524
2.00044
1.98573
1.97111
1.95663
1.94229
1.92815
1.91426
1.90067
1.88745
1.87468
1.86244
1.85081
1.8399
1.82979
1.82057
1.81233
1.80515
1.79907
1.79414
1.79035
1.78768
1.78606
1.78537
1.78547
1.78617
1.78724
1.78844
1.78949
1.79014
1.7901
1.78914
1.78702
1.78355
1.77858
1.77201
1.76375
1.75381
1.7422
1.72898
1.71425
1.69814
1.68078
1.66234
1.64296
1.62281
1.60204
1.58079
1.5592
1.53737
1.51541
1.49342
1.47146
1.44957
1.42792
1.40595
1.38675
1.35426
2.72065
2.70258
2.68451
2.66643
2.64836
2.6303
2.61224
2.5942
2.57617
2.55817
2.5402
2.52227
2.50438
2.48654
2.46875
2.45102
2.43337
2.41579
2.3983
2.38089
2.36358
2.34637
2.32926
2.31227
2.29539
2.27863
2.26199
2.24547
2.22909
2.21282
2.19669
2.18068
2.16479
2.14903
2.13338
2.11784
2.1024
2.08706
2.07182
2.05666
2.04158
2.02659
2.01167
1.99685
1.98211
1.96749
1.95299
1.93866
1.92452
1.91061
1.897
1.88374
1.8709
1.85856
1.84679
1.83568
1.82531
1.81577
1.80714
1.79947
1.79283
1.78724
1.78269
1.77918
1.77662
1.77492
1.77393
1.7735
1.7734
1.77341
1.77329
1.77279
1.77167
1.76969
1.76666
1.76238
1.75671
1.74953
1.74079
1.73046
1.71854
1.70509
1.69018
1.67393
1.65646
1.63792
1.61845
1.5982
1.5773
1.55591
1.53414
1.5121
1.48991
1.46763
1.44536
1.42312
1.40109
1.37868
1.35909
1.32581
2.7205
2.70242
2.68434
2.66624
2.64815
2.63007
2.61199
2.59392
2.57586
2.55783
2.53983
2.52185
2.50391
2.48602
2.46817
2.45039
2.43266
2.41501
2.39743
2.37993
2.36253
2.34521
2.328
2.3109
2.2939
2.27702
2.26026
2.24362
2.2271
2.21072
2.19445
2.17832
2.16231
2.14642
2.13065
2.115
2.09946
2.08403
2.06869
2.05346
2.03831
2.02326
2.0083
1.99343
1.97867
1.96402
1.94951
1.93516
1.921
1.90708
1.89343
1.88011
1.86719
1.85474
1.84282
1.83151
1.82089
1.81103
1.80201
1.79388
1.78669
1.78047
1.77521
1.77089
1.76745
1.7648
1.7628
1.7613
1.76011
1.75901
1.7578
1.75623
1.7541
1.75119
1.7473
1.74226
1.73594
1.72822
1.71904
1.70835
1.69617
1.68253
1.6675
1.65117
1.63365
1.61508
1.59557
1.57528
1.55434
1.53287
1.511
1.48884
1.46649
1.44403
1.42154
1.39905
1.37674
1.35402
1.33415
1.30028
2.72037
2.70227
2.68417
2.66606
2.64795
2.62984
2.61174
2.59365
2.57557
2.5575
2.53946
2.52145
2.50347
2.48553
2.46763
2.44978
2.43199
2.41427
2.39661
2.37904
2.36154
2.34414
2.32683
2.30962
2.29252
2.27552
2.25865
2.24189
2.22526
2.20875
2.19237
2.17611
2.15998
2.14398
2.1281
2.11234
2.0967
2.08117
2.06575
2.05043
2.03522
2.0201
2.00509
1.99018
1.97538
1.96071
1.94617
1.93179
1.91761
1.90365
1.88995
1.87657
1.86357
1.85099
1.83891
1.8274
1.81653
1.80636
1.79696
1.78838
1.78067
1.77385
1.76791
1.76284
1.75857
1.75503
1.75208
1.74958
1.74737
1.74524
1.74301
1.74045
1.73738
1.73359
1.7289
1.72316
1.71622
1.708
1.69841
1.68742
1.67502
1.66124
1.64613
1.62978
1.61227
1.59373
1.57426
1.554
1.53308
1.51161
1.48972
1.46751
1.44508
1.42251
1.39989
1.37724
1.35474
1.3318
1.31175
1.27746
2.72023
2.70213
2.68401
2.66589
2.64776
2.62963
2.61151
2.59339
2.57528
2.55719
2.53912
2.52107
2.50304
2.48506
2.46711
2.44921
2.43136
2.41357
2.39585
2.37819
2.36062
2.34313
2.32573
2.30842
2.29122
2.27412
2.25714
2.24028
2.22353
2.20691
2.19041
2.17404
2.1578
2.14169
2.1257
2.10984
2.0941
2.07847
2.06297
2.04757
2.03229
2.01711
2.00204
1.98709
1.97225
1.95754
1.94297
1.92856
1.91434
1.90033
1.88658
1.87313
1.86003
1.84733
1.83509
1.82337
1.81224
1.80176
1.792
1.78299
1.77477
1.76738
1.7608
1.75502
1.74998
1.7456
1.74177
1.73835
1.73518
1.7321
1.72891
1.72543
1.72147
1.71685
1.7114
1.70499
1.69748
1.68877
1.67881
1.66754
1.65497
1.6411
1.62597
1.60965
1.59223
1.57378
1.55443
1.53429
1.51346
1.49207
1.47024
1.44805
1.42562
1.40303
1.38035
1.35762
1.33502
1.31195
1.29178
1.25722
2.72011
2.70199
2.68385
2.66572
2.64757
2.62942
2.61128
2.59314
2.57501
2.55689
2.53878
2.5207
2.50264
2.48461
2.46662
2.44867
2.43076
2.41291
2.39513
2.3774
2.35975
2.34218
2.3247
2.3073
2.29001
2.27282
2.25573
2.23876
2.22191
2.20518
2.18858
2.1721
2.15576
2.13954
2.12345
2.10749
2.09165
2.07594
2.06035
2.04488
2.02952
2.01428
1.99916
1.98415
1.96927
1.95452
1.93991
1.92546
1.9112
1.89714
1.88333
1.8698
1.85659
1.84375
1.83135
1.81942
1.80804
1.79726
1.78714
1.77771
1.76902
1.76109
1.75391
1.74747
1.74171
1.73655
1.7319
1.72762
1.72357
1.71959
1.7155
1.71114
1.70633
1.70091
1.69472
1.68765
1.67956
1.67039
1.66007
1.64856
1.63585
1.62194
1.60686
1.59066
1.5734
1.55515
1.53601
1.51607
1.49544
1.47423
1.45254
1.43047
1.40812
1.38558
1.36292
1.34019
1.31756
1.29444
1.27422