/*--------------------------------*- C++ -*----------------------------------*\
  =========                 |
  \\      /  F ield         | OpenFOAM: The Open Source CFD Toolbox
   \\    /   O peration     | Website:  https://openfoam.org
    \\  /    A nd           | Version:  10
     \\/     M anipulation  |
\*---------------------------------------------------------------------------*/
FoamFile
{
    format      ascii;
    class       volScalarField;
    location    "0.125";
    object      nut;
}
// * * * * * * * * * * * * * * * * * * * * * * * * * * * * * * * * * * * * * //

dimensions      [0 2 -1 0 0 0 0];

internalField   nonuniform List<scalar> 
6820
(
0.000149484
0.000144853
0.000140581
0.000136577
0.000132833
0.000129377
0.000126234
0.000123417
0.000120923
0.000118737
0.000116839
0.000115205
0.00011381
0.00011263
0.000111643
0.000110827
0.000110163
0.000109635
0.000109225
0.000108921
0.00010871
0.00010858
0.000108522
0.000108527
0.000108586
0.000108694
0.000108841
0.000109039
0.000109197
0.000109715
0.000108702
0.000114993
8.71375e-05
0.000729198
0.000532393
0.000448015
0.000399711
0.000368386
0.000346738
0.000331096
0.000319367
0.000310281
0.000303033
0.000297103
0.000292143
0.000287919
0.000284266
0.000281066
0.000278233
0.000275703
0.000273424
0.000271359
0.000269476
0.000267752
0.000266165
0.000264699
0.00026334
0.000262078
0.000260901
0.000259803
0.000258776
0.000257821
0.000256933
0.000256134
0.000255282
0.00025654
0.000976777
0.000872181
0.000781624
0.000711267
0.000657323
0.000615285
0.000581716
0.000554259
0.000531325
0.000511833
0.000495022
0.000480344
0.000467396
0.000455873
0.000445539
0.000436211
0.000427743
0.000420018
0.00041294
0.00040643
0.000400423
0.000394862
0.000389701
0.000384898
0.000380418
0.000376229
0.000372301
0.000368611
0.000365121
0.000361821
0.00035862
0.000355489
0.000352087
0.00101348
0.00098823
0.000949374
0.000906194
0.000864427
0.000826388
0.000792559
0.000762675
0.000736242
0.00071275
0.000691745
0.000672842
0.000655728
0.000640142
0.000625872
0.000612746
0.000600619
0.000589372
0.000578906
0.000569136
0.000559991
0.000551409
0.000543339
0.000535733
0.000528552
0.00052176
0.000515323
0.000509213
0.000503398
0.000497857
0.000492536
0.000487452
0.000482418
0.00101671
0.00101241
0.00100191
0.000985661
0.000965605
0.000943715
0.000921427
0.000899618
0.000878758
0.000859054
0.000840566
0.000823271
0.000807107
0.000791994
0.000777845
0.000764579
0.000752116
0.000740386
0.000729323
0.00071887
0.000708976
0.000699593
0.000690681
0.000682204
0.000674126
0.00066642
0.000659055
0.000652008
0.000645251
0.000638766
0.000632515
0.000626493
0.00062064
0.00101676
0.00101592
0.0010136
0.00100903
0.00100204
0.000992921
0.000982194
0.000970402
0.000958012
0.000945384
0.000932776
0.000920362
0.000908255
0.000896525
0.000885209
0.000874322
0.000863868
0.000853839
0.000844222
0.000835003
0.000826162
0.000817681
0.000809541
0.000801724
0.000794211
0.000786986
0.000780031
0.00077333
0.000766866
0.000760625
0.000754588
0.000748746
0.000743079
0.00101671
0.00101623
0.00101553
0.00101428
0.00101219
0.0010091
0.00100497
0.000999894
0.000994023
0.000987526
0.000980567
0.000973292
0.000965826
0.000958267
0.000950695
0.000943167
0.00093573
0.000928416
0.000921248
0.000914242
0.000907409
0.000900753
0.000894279
0.000887986
0.000881872
0.000875934
0.000870167
0.000864566
0.000859125
0.000853838
0.000848699
0.000843702
0.000838842
0.0010167
0.00101622
0.00101574
0.00101518
0.00101442
0.00101335
0.00101188
0.00100995
0.00100756
0.00100471
0.00100145
0.000997833
0.000993918
0.000989763
0.00098542
0.00098094
0.000976364
0.00097173
0.000967066
0.0009624
0.000957752
0.000953138
0.000948573
0.000944067
0.000939627
0.000935261
0.000930972
0.000926764
0.000922639
0.000918598
0.000914641
0.000910769
0.000906985
0.0010167
0.00101621
0.00101575
0.00101528
0.0010148
0.00101425
0.00101359
0.00101279
0.00101179
0.00101059
0.00100918
0.00100754
0.00100569
0.00100366
0.00100144
0.000999075
0.000996576
0.000993968
0.000991269
0.000988498
0.000985674
0.00098281
0.00097992
0.000977017
0.00097411
0.000971208
0.000968318
0.000965448
0.000962602
0.000959785
0.000957002
0.000954256
0.000951552
0.0010167
0.00101621
0.00101574
0.00101529
0.00101484
0.00101439
0.00101393
0.00101344
0.0010129
0.00101229
0.0010116
0.00101082
0.00100994
0.00100895
0.00100787
0.00100668
0.00100541
0.00100404
0.0010026
0.00100108
0.000999503
0.000997871
0.000996193
0.000994477
0.000992731
0.000990961
0.000989173
0.000987373
0.000985566
0.000983757
0.000981952
0.000980154
0.000978367
0.0010167
0.00101621
0.00101574
0.00101528
0.00101484
0.00101441
0.00101398
0.00101356
0.00101313
0.0010127
0.00101224
0.00101176
0.00101125
0.0010107
0.00101011
0.00100947
0.00100879
0.00100806
0.00100728
0.00100646
0.0010056
0.0010047
0.00100376
0.00100279
0.00100179
0.00100077
0.000999722
0.000998657
0.000997576
0.000996483
0.000995381
0.000994274
0.000993164
0.0010167
0.00101621
0.00101574
0.00101528
0.00101484
0.0010144
0.00101398
0.00101357
0.00101317
0.00101278
0.00101238
0.00101199
0.00101159
0.00101119
0.00101078
0.00101036
0.00100992
0.00100946
0.00100899
0.0010085
0.00100798
0.00100745
0.00100691
0.00100634
0.00100575
0.00100515
0.00100454
0.00100391
0.00100327
0.00100262
0.00100196
0.00100129
0.00100062
0.0010167
0.00101621
0.00101574
0.00101528
0.00101483
0.0010144
0.00101398
0.00101357
0.00101317
0.00101278
0.0010124
0.00101203
0.00101167
0.00101131
0.00101095
0.0010106
0.00101024
0.00100989
0.00100953
0.00100917
0.00100881
0.00100844
0.00100807
0.00100769
0.0010073
0.00100691
0.00100651
0.00100611
0.0010057
0.00100529
0.00100488
0.00100446
0.00100404
0.0010167
0.00101621
0.00101574
0.00101528
0.00101483
0.0010144
0.00101398
0.00101357
0.00101317
0.00101278
0.0010124
0.00101204
0.00101168
0.00101133
0.00101099
0.00101065
0.00101032
0.00101
0.00100968
0.00100937
0.00100906
0.00100875
0.00100844
0.00100814
0.00100784
0.00100754
0.00100724
0.00100694
0.00100664
0.00100634
0.00100604
0.00100575
0.00100546
0.0010167
0.00101621
0.00101574
0.00101528
0.00101483
0.0010144
0.00101398
0.00101357
0.00101317
0.00101278
0.0010124
0.00101203
0.00101168
0.00101133
0.00101099
0.00101066
0.00101034
0.00101002
0.00100971
0.00100941
0.00100912
0.00100883
0.00100855
0.00100827
0.001008
0.00100773
0.00100747
0.00100721
0.00100696
0.00100671
0.00100646
0.00100622
0.00100598
0.0010167
0.00101621
0.00101574
0.00101528
0.00101483
0.0010144
0.00101397
0.00101356
0.00101317
0.00101278
0.0010124
0.00101203
0.00101167
0.00101133
0.00101099
0.00101066
0.00101033
0.00101002
0.00100972
0.00100942
0.00100913
0.00100885
0.00100857
0.0010083
0.00100804
0.00100778
0.00100753
0.00100729
0.00100705
0.00100682
0.00100659
0.00100637
0.00100615
0.0010167
0.00101621
0.00101574
0.00101528
0.00101483
0.0010144
0.00101397
0.00101356
0.00101316
0.00101277
0.0010124
0.00101203
0.00101167
0.00101132
0.00101098
0.00101065
0.00101033
0.00101002
0.00100971
0.00100942
0.00100913
0.00100885
0.00100857
0.0010083
0.00100804
0.00100779
0.00100755
0.0010073
0.00100707
0.00100684
0.00100662
0.00100641
0.0010062
0.0010167
0.00101621
0.00101574
0.00101528
0.00101483
0.0010144
0.00101397
0.00101356
0.00101316
0.00101277
0.00101239
0.00101203
0.00101167
0.00101132
0.00101098
0.00101065
0.00101033
0.00101001
0.00100971
0.00100941
0.00100912
0.00100884
0.00100857
0.0010083
0.00100804
0.00100779
0.00100754
0.0010073
0.00100707
0.00100684
0.00100662
0.00100641
0.0010062
0.0010167
0.00101621
0.00101574
0.00101528
0.00101483
0.00101439
0.00101397
0.00101356
0.00101316
0.00101277
0.00101239
0.00101202
0.00101167
0.00101132
0.00101098
0.00101065
0.00101032
0.00101001
0.00100971
0.00100941
0.00100912
0.00100884
0.00100856
0.0010083
0.00100804
0.00100778
0.00100754
0.0010073
0.00100706
0.00100684
0.00100662
0.0010064
0.0010062
0.0010167
0.00101621
0.00101574
0.00101528
0.00101483
0.00101439
0.00101397
0.00101356
0.00101316
0.00101277
0.00101239
0.00101202
0.00101166
0.00101132
0.00101098
0.00101064
0.00101032
0.00101001
0.0010097
0.00100941
0.00100912
0.00100883
0.00100856
0.00100829
0.00100803
0.00100778
0.00100753
0.00100729
0.00100706
0.00100683
0.00100661
0.0010064
0.00100619
0.0010167
0.00101621
0.00101574
0.00101528
0.00101483
0.00101439
0.00101397
0.00101356
0.00101316
0.00101277
0.00101239
0.00101202
0.00101166
0.00101131
0.00101097
0.00101064
0.00101032
0.00101001
0.0010097
0.0010094
0.00100911
0.00100883
0.00100855
0.00100829
0.00100803
0.00100777
0.00100753
0.00100728
0.00100705
0.00100682
0.0010066
0.00100639
0.00100618
0.0010167
0.00101621
0.00101574
0.00101528
0.00101483
0.00101439
0.00101397
0.00101356
0.00101316
0.00101277
0.00101239
0.00101202
0.00101166
0.00101131
0.00101097
0.00101064
0.00101032
0.00101
0.0010097
0.0010094
0.00100911
0.00100883
0.00100855
0.00100828
0.00100802
0.00100777
0.00100752
0.00100728
0.00100704
0.00100682
0.00100659
0.00100638
0.00100617
0.0010167
0.00101621
0.00101574
0.00101528
0.00101483
0.00101439
0.00101397
0.00101356
0.00101316
0.00101277
0.00101239
0.00101202
0.00101166
0.00101131
0.00101097
0.00101064
0.00101031
0.00101
0.00100969
0.0010094
0.00100911
0.00100882
0.00100855
0.00100828
0.00100802
0.00100776
0.00100751
0.00100727
0.00100704
0.00100681
0.00100659
0.00100637
0.00100616
0.0010167
0.00101621
0.00101574
0.00101528
0.00101483
0.00101439
0.00101397
0.00101356
0.00101316
0.00101277
0.00101239
0.00101202
0.00101166
0.00101131
0.00101097
0.00101064
0.00101031
0.00101
0.00100969
0.00100939
0.0010091
0.00100882
0.00100854
0.00100827
0.00100801
0.00100776
0.00100751
0.00100727
0.00100703
0.0010068
0.00100658
0.00100636
0.00100615
0.0010167
0.00101621
0.00101574
0.00101528
0.00101483
0.00101439
0.00101397
0.00101356
0.00101316
0.00101277
0.00101239
0.00101202
0.00101166
0.00101131
0.00101097
0.00101063
0.00101031
0.00101
0.00100969
0.00100939
0.0010091
0.00100882
0.00100854
0.00100827
0.00100801
0.00100775
0.0010075
0.00100726
0.00100702
0.00100679
0.00100657
0.00100635
0.00100614
0.0010167
0.00101621
0.00101574
0.00101528
0.00101483
0.00101439
0.00101397
0.00101356
0.00101316
0.00101277
0.00101239
0.00101202
0.00101166
0.00101131
0.00101097
0.00101063
0.00101031
0.00100999
0.00100969
0.00100939
0.0010091
0.00100881
0.00100854
0.00100827
0.001008
0.00100775
0.0010075
0.00100726
0.00100702
0.00100679
0.00100656
0.00100634
0.00100613
0.0010167
0.00101621
0.00101574
0.00101528
0.00101483
0.00101439
0.00101397
0.00101356
0.00101316
0.00101277
0.00101239
0.00101202
0.00101166
0.00101131
0.00101096
0.00101063
0.00101031
0.00100999
0.00100969
0.00100939
0.00100909
0.00100881
0.00100853
0.00100826
0.001008
0.00100774
0.00100749
0.00100725
0.00100701
0.00100678
0.00100656
0.00100634
0.00100612
0.0010167
0.00101621
0.00101574
0.00101528
0.00101483
0.00101439
0.00101397
0.00101356
0.00101316
0.00101277
0.00101239
0.00101202
0.00101166
0.00101131
0.00101096
0.00101063
0.00101031
0.00100999
0.00100968
0.00100939
0.00100909
0.00100881
0.00100853
0.00100826
0.001008
0.00100774
0.00100749
0.00100725
0.00100701
0.00100678
0.00100655
0.00100633
0.00100612
0.0010167
0.00101621
0.00101574
0.00101528
0.00101483
0.00101439
0.00101397
0.00101356
0.00101316
0.00101277
0.00101239
0.00101202
0.00101166
0.00101131
0.00101096
0.00101063
0.00101031
0.00100999
0.00100968
0.00100938
0.00100909
0.00100881
0.00100853
0.00100826
0.001008
0.00100774
0.00100749
0.00100724
0.00100701
0.00100677
0.00100655
0.00100633
0.00100611
0.0010167
0.00101621
0.00101574
0.00101528
0.00101483
0.00101439
0.00101397
0.00101356
0.00101316
0.00101277
0.00101239
0.00101202
0.00101166
0.00101131
0.00101096
0.00101063
0.00101031
0.00100999
0.00100968
0.00100938
0.00100909
0.00100881
0.00100853
0.00100826
0.00100799
0.00100774
0.00100749
0.00100724
0.001007
0.00100677
0.00100654
0.00100632
0.00100611
0.0010167
0.00101621
0.00101574
0.00101528
0.00101483
0.00101439
0.00101397
0.00101356
0.00101316
0.00101277
0.00101239
0.00101202
0.00101166
0.00101131
0.00101097
0.00101063
0.00101031
0.00100999
0.00100969
0.00100939
0.00100909
0.00100881
0.00100853
0.00100826
0.00100799
0.00100774
0.00100748
0.00100724
0.001007
0.00100676
0.00100654
0.00100631
0.0010061
0.0010167
0.00101621
0.00101574
0.00101528
0.00101483
0.0010144
0.00101397
0.00101356
0.00101316
0.00101277
0.00101239
0.00101202
0.00101166
0.00101131
0.00101097
0.00101064
0.00101031
0.00101
0.00100969
0.00100939
0.00100909
0.00100881
0.00100852
0.00100825
0.00100798
0.00100772
0.00100746
0.00100721
0.00100697
0.00100673
0.00100649
0.00100626
0.00100604
0.0010167
0.00101621
0.00101574
0.00101528
0.00101483
0.0010144
0.00101398
0.00101357
0.00101317
0.00101278
0.0010124
0.00101203
0.00101167
0.00101132
0.00101097
0.00101064
0.00101031
0.00100998
0.00100967
0.00100936
0.00100905
0.00100875
0.00100846
0.00100817
0.00100788
0.0010076
0.00100732
0.00100705
0.00100677
0.00100651
0.00100624
0.00100598
0.00100572
0.0010167
0.00101621
0.00101574
0.00101529
0.00101484
0.00101441
0.00101399
0.00101358
0.00101318
0.00101279
0.0010124
0.00101202
0.00101164
0.00101127
0.00101089
0.00101053
0.00101016
0.00100979
0.00100942
0.00100906
0.00100869
0.00100832
0.00100794
0.00100757
0.00100719
0.00100681
0.00100643
0.00100605
0.00100566
0.00100527
0.00100488
0.00100448
0.00100409
0.0010167
0.00101622
0.00101575
0.0010153
0.00101485
0.00101441
0.00101397
0.00101352
0.00101308
0.00101262
0.00101215
0.00101166
0.00101115
0.00101063
0.00101008
0.00100951
0.00100892
0.0010083
0.00100766
0.00100699
0.00100631
0.0010056
0.00100487
0.00100412
0.00100335
0.00100256
0.00100176
0.00100095
0.00100012
0.000999276
0.000998425
0.000997565
0.000996698
0.00101671
0.00101622
0.00101574
0.00101524
0.00101469
0.00101407
0.00101337
0.00101257
0.00101167
0.00101067
0.00100955
0.00100832
0.00100698
0.00100555
0.00100401
0.00100238
0.00100067
0.000998878
0.00099702
0.000995099
0.000993124
0.000991103
0.000989042
0.000986948
0.000984827
0.000982685
0.000980528
0.000978361
0.000976188
0.000974013
0.000971842
0.000969676
0.00096752
0.00101671
0.001016
0.00101488
0.00101326
0.00101113
0.00100848
0.00100533
0.00100171
0.00099765
0.000993206
0.00098843
0.000983376
0.000978095
0.000972635
0.00096704
0.000961349
0.000955595
0.00094981
0.000944019
0.000938245
0.000932507
0.000926821
0.000921201
0.000915658
0.0009102
0.000904835
0.00089957
0.000894408
0.000889354
0.000884409
0.000879576
0.000874855
0.000870246
0.0010153
0.00100706
0.000995519
0.000981424
0.000965404
0.000948069
0.000929979
0.00091158
0.000893208
0.0008751
0.000857421
0.000840282
0.000823748
0.000807855
0.00079262
0.00077804
0.000764104
0.000750796
0.000738092
0.000725967
0.000714396
0.00070335
0.000692805
0.000682733
0.00067311
0.000663912
0.000655115
0.000646699
0.000638643
0.000630926
0.000623532
0.000616442
0.000609639
0.000935928
0.000815552
0.000728185
0.000659267
0.000602398
0.000555161
0.000515659
0.000482305
0.000453848
0.000429326
0.000407995
0.000389285
0.00037275
0.00035804
0.000344876
0.000333035
0.000322334
0.000312624
0.000303779
0.000295696
0.000288286
0.000281475
0.000275197
0.000269399
0.000264031
0.000259052
0.000254425
0.000250118
0.000246101
0.00024235
0.000238842
0.000235557
0.000232476
0.000125477
0.000128847
0.000132096
0.000135204
0.000138173
0.000141007
0.000143711
0.000146289
0.000148745
0.000151084
0.00015331
0.000155428
0.000157441
0.000159354
0.000161171
0.000162895
0.000164532
0.000166085
0.000167557
0.000168953
0.000170276
0.000171529
0.000172716
0.000173841
0.000174905
0.000175913
0.000176866
0.000177769
0.000178623
0.00017943
0.000180194
0.000180916
0.0001816
0.000107441
0.00015149
0.000195688
0.000238694
0.000279669
0.000317365
0.000351204
0.000381579
0.000409432
0.000435842
0.000461654
0.000487355
0.00051312
0.000538931
0.000564722
0.000590468
0.000616228
0.000642144
0.000668403
0.000695198
0.000722695
0.000751012
0.000780217
0.000810317
0.000841274
0.000872999
0.000905364
0.000938206
0.000971334
0.00100454
0.00103762
0.00107035
0.00110255
0.00113404
0.00116468
0.00119437
0.00122302
0.00125061
0.0012771
0.00130249
0.00132679
0.00134999
0.00137204
0.00139286
0.00141226
0.00143
0.0014457
0.00145889
0.00146893
0.00147509
0.00147654
0.00147235
0.00146156
0.00144328
0.0014167
0.00138128
0.00133685
0.00128382
0.00122346
0.00115817
0.00109189
0.00103035
0.000980882
0.00095126
0.000947082
0.000968324
0.0010079
0.00105472
0.00109938
0.00113739
0.00116849
0.00119426
0.0012165
0.00123651
0.0012551
0.00127274
0.0012897
0.00130621
0.00132246
0.00133865
0.00135501
0.00137172
0.00138894
0.00140678
0.00142525
0.00144427
0.00146366
0.00148315
0.00150242
0.00152114
0.00153898
0.00155564
0.0015709
0.00158462
0.0015967
0.00160715
0.00161599
0.0016234
0.00162907
0.00163567
0.000245768
0.000213647
0.000184291
0.000169959
0.000169694
0.000180172
0.000198544
0.000222551
0.000250271
0.000280024
0.000310402
0.000340351
0.000369243
0.000396853
0.000423269
0.000448742
0.000473564
0.000497982
0.000522171
0.000546245
0.000570284
0.000594364
0.00061856
0.000642944
0.000667574
0.000692481
0.000717661
0.000743071
0.000768634
0.000794246
0.000819785
0.000845122
0.000870127
0.000894686
0.000918699
0.000942092
0.000964815
0.000986843
0.00100817
0.00102882
0.0010488
0.00106811
0.00108674
0.00110463
0.00112164
0.00113755
0.00115205
0.00116472
0.00117503
0.00118233
0.00118591
0.00118499
0.00117883
0.00116674
0.00114827
0.00112328
0.00109213
0.00105596
0.00101684
0.000978084
0.000944245
0.000920807
0.000913041
0.000924002
0.00095247
0.000992628
0.00103653
0.00107772
0.00111311
0.00114256
0.00116736
0.00118898
0.00120857
0.00122686
0.00124424
0.00126092
0.00127704
0.00129273
0.00130815
0.00132347
0.00133887
0.00135456
0.00137071
0.00138745
0.00140484
0.00142286
0.0014414
0.00146024
0.00147911
0.0014977
0.00151567
0.00153273
0.00154862
0.00156315
0.00157619
0.0015877
0.00159768
0.00160627
0.00161305
0.00162136
0.000349383
0.000343889
0.000327832
0.000299414
0.000265598
0.000234782
0.000211934
0.000197631
0.00019112
0.000191467
0.00019782
0.000209317
0.000225047
0.000244053
0.000265374
0.000288108
0.000311473
0.000334862
0.00035787
0.000380285
0.00040206
0.000423256
0.000443987
0.000464378
0.00048453
0.000504517
0.000524376
0.000544124
0.000563754
0.000583249
0.000602579
0.000621712
0.000640613
0.000659251
0.000677602
0.000695653
0.000713405
0.000730872
0.000748083
0.000765072
0.000781877
0.000798524
0.000815012
0.000831304
0.000847304
0.00086285
0.000877698
0.00089152
0.000903906
0.000914376
0.000922406
0.000927472
0.000929117
0.000927039
0.000921205
0.000911995
0.000900357
0.000887946
0.000877203
0.000871233
0.000873358
0.000886226
0.000910632
0.000944699
0.000984212
0.00102423
0.00106098
0.00109278
0.00111975
0.00114292
0.00116348
0.00118236
0.00120014
0.00121715
0.00123353
0.00124936
0.0012647
0.00127962
0.00129424
0.00130871
0.00132321
0.0013379
0.00135299
0.00136861
0.00138486
0.00140178
0.00141931
0.00143731
0.00145555
0.00147376
0.00149162
0.00150884
0.00152513
0.00154027
0.00155411
0.00156655
0.00157756
0.00158727
0.0015951
0.00160508
0.000476944
0.000471315
0.000464757
0.000454622
0.000438578
0.000415933
0.000388175
0.000358014
0.000328036
0.000300782
0.000277507
0.000258837
0.000244994
0.000235916
0.000231358
0.000230947
0.000234225
0.000240676
0.000249747
0.000260878
0.000273539
0.000287263
0.000301664
0.000316449
0.000331409
0.00034641
0.000361372
0.000376257
0.000391054
0.000405772
0.000420428
0.000435044
0.000449648
0.00046427
0.000478943
0.000493704
0.000508595
0.000523663
0.000538953
0.000554511
0.000570376
0.000586573
0.000603106
0.000619951
0.000637042
0.000654273
0.000671489
0.000688491
0.00070504
0.000720876
0.000735743
0.000749427
0.000761819
0.000772981
0.000783227
0.000793195
0.000803889
0.000816638
0.000832925
0.000854052
0.000880669
0.000912339
0.000947422
0.000983461
0.00101798
0.00104924
0.00107661
0.0011004
0.00112138
0.00114043
0.00115824
0.00117525
0.0011917
0.00120766
0.00122317
0.0012382
0.00125278
0.00126695
0.00128081
0.00129447
0.00130808
0.00132183
0.00133588
0.0013504
0.0013655
0.00138126
0.00139768
0.00141467
0.00143208
0.00144967
0.00146717
0.00148428
0.00150073
0.00151627
0.00153071
0.00154392
0.00155582
0.00156653
0.00157532
0.0015869
0.000613995
0.000606698
0.000599623
0.000592347
0.00058404
0.000573674
0.000560359
0.000543622
0.000523463
0.00050066
0.000476134
0.0004509
0.000425948
0.000402158
0.000380242
0.000360723
0.000343946
0.0003301
0.000319236
0.000311291
0.000306115
0.000303489
0.00030316
0.000304855
0.00030831
0.00031328
0.000319547
0.000326927
0.000335274
0.000344475
0.000354446
0.000365135
0.000376508
0.00038855
0.000401257
0.000414632
0.000428677
0.000443394
0.000458782
0.000474829
0.000491518
0.00050882
0.000526698
0.000545105
0.000563984
0.000583272
0.0006029
0.000622801
0.00064291
0.000663178
0.000683579
0.000704131
0.000724915
0.000746094
0.000767926
0.000790755
0.000814964
0.000840881
0.000868649
0.000898082
0.000928589
0.000959218
0.000988863
0.00101655
0.0010417
0.00106421
0.0010844
0.00110282
0.00112003
0.00113647
0.00115245
0.00116811
0.00118347
0.00119852
0.00121319
0.00122745
0.00124129
0.00125473
0.00126784
0.00128072
0.00129351
0.00130636
0.00131943
0.00133287
0.00134684
0.00136143
0.00137667
0.00139255
0.00140897
0.00142574
0.00144264
0.00145939
0.00147574
0.00149143
0.00150624
0.00152002
0.00153264
0.0015442
0.00155385
0.00156692
0.000736661
0.000729477
0.000722413
0.000715452
0.00070846
0.000701177
0.000693236
0.000684217
0.000673767
0.000661659
0.000647825
0.000632365
0.000615527
0.000597674
0.000579239
0.000560682
0.000542455
0.000524985
0.000508648
0.000493758
0.000480556
0.000469211
0.000459817
0.000452412
0.000446986
0.000443498
0.000441889
0.000442082
0.000443998
0.00044755
0.000452652
0.000459219
0.000467164
0.000476405
0.000486857
0.000498435
0.000511053
0.00052462
0.000539045
0.000554233
0.00057009
0.000586523
0.000603447
0.000620787
0.000638479
0.00065648
0.000674764
0.000693328
0.000712191
0.000731392
0.000750986
0.000771041
0.000791632
0.000812831
0.000834691
0.000857226
0.000880384
0.000904019
0.000927871
0.000951571
0.000974683
0.000996779
0.00101754
0.00103681
0.00105465
0.00107129
0.00108705
0.00110225
0.00111714
0.00113189
0.00114656
0.00116113
0.00117555
0.00118974
0.00120361
0.00121711
0.00123022
0.00124295
0.00125534
0.00126748
0.00127949
0.00129149
0.00130363
0.00131607
0.00132894
0.00134237
0.00135642
0.00137113
0.00138643
0.00140222
0.00141831
0.00143447
0.00145047
0.00146605
0.00148099
0.00149511
0.00150826
0.0015205
0.00153085
0.00154526
0.000833333
0.000827125
0.00082095
0.000814825
0.000808743
0.000802667
0.000796515
0.000790176
0.000783499
0.000776329
0.000768526
0.000759991
0.00075068
0.00074061
0.000729862
0.000718575
0.000706932
0.00069515
0.000683469
0.000672135
0.000661386
0.000651439
0.000642485
0.000634677
0.000628141
0.000622968
0.000619224
0.000616951
0.000616167
0.000616868
0.000619029
0.000622608
0.000627547
0.00063377
0.000641191
0.000649716
0.00065924
0.000669654
0.000680847
0.000692707
0.000705125
0.000718
0.00073124
0.000744766
0.000758515
0.000772441
0.00078652
0.000800747
0.000815134
0.000829708
0.000844508
0.000859574
0.000874938
0.000890617
0.0009066
0.000922839
0.000939244
0.000955685
0.000971997
0.000988009
0.00100357
0.00101857
0.001033
0.00104691
0.00106042
0.0010737
0.00108692
0.00110019
0.00111359
0.00112713
0.00114076
0.0011544
0.00116795
0.00118132
0.00119442
0.00120718
0.00121957
0.0012316
0.0012433
0.00125474
0.001266
0.00127721
0.00128849
0.00129999
0.00131183
0.00132414
0.00133703
0.00135053
0.00136466
0.00137934
0.00139446
0.00140983
0.00142524
0.00144046
0.00145528
0.0014695
0.00148294
0.00149566
0.00150654
0.00152208
0.000902673
0.00089778
0.000892869
0.00088795
0.000883034
0.000878124
0.000873213
0.000868288
0.000863318
0.000858263
0.000853072
0.000847694
0.000842087
0.00083622
0.000830085
0.000823695
0.000817092
0.000810342
0.000803536
0.000796783
0.000790207
0.000783937
0.000778102
0.000772823
0.000768211
0.000764365
0.000761368
0.000759287
0.000758173
0.000758057
0.000758952
0.000760853
0.000763739
0.000767569
0.000772294
0.000777847
0.000784158
0.000791145
0.000798726
0.000806816
0.000815332
0.000824196
0.000833337
0.000842693
0.000852213
0.000861856
0.000871598
0.000881425
0.000891335
0.000901337
0.000911446
0.000921678
0.00093205
0.000942569
0.000953231
0.00096402
0.000974903
0.00098584
0.000996787
0.00100771
0.00101859
0.00102944
0.00104032
0.00105128
0.00106241
0.00107379
0.00108548
0.00109749
0.00110981
0.00112238
0.00113511
0.00114791
0.00116065
0.00117324
0.00118559
0.00119763
0.00120933
0.00122068
0.00123172
0.00124248
0.00125304
0.00126351
0.001274
0.00128461
0.0012955
0.00130676
0.00131852
0.00133085
0.00134378
0.0013573
0.00137132
0.00138573
0.00140035
0.00141498
0.00142943
0.00144349
0.00145699
0.00146997
0.00148118
0.0014976
0.000948447
0.000944894
0.000941293
0.000937652
0.000933977
0.000930277
0.000926558
0.000922828
0.000919089
0.000915341
0.000911582
0.000907805
0.000904002
0.000900166
0.000896292
0.000892379
0.000888437
0.000884482
0.000880542
0.000876657
0.000872875
0.000869253
0.000865853
0.00086274
0.000859977
0.000857629
0.000855751
0.000854395
0.000853603
0.000853407
0.000853829
0.000854876
0.000856546
0.000858825
0.000861688
0.000865101
0.000869022
0.000873404
0.000878194
0.000883341
0.000888791
0.000894492
0.000900398
0.000906467
0.000912664
0.000918962
0.000925343
0.000931796
0.000938318
0.000944913
0.000951593
0.000958371
0.000965262
0.000972282
0.000979446
0.000986764
0.000994246
0.00100191
0.00100975
0.00101782
0.00102612
0.00103471
0.00104363
0.00105293
0.00106266
0.00107284
0.00108348
0.00109454
0.00110598
0.00111771
0.00112963
0.00114163
0.00115361
0.00116546
0.00117709
0.00118844
0.00119947
0.00121018
0.00122058
0.0012307
0.00124061
0.00125039
0.00126013
0.00126994
0.00127994
0.00129023
0.00130094
0.00131213
0.00132389
0.00133621
0.00134908
0.00136241
0.00137607
0.00138992
0.00140377
0.00141744
0.00143074
0.00144373
0.00145506
0.00147208
0.000976296
0.000973901
0.000971449
0.000968941
0.000966384
0.000963784
0.000961148
0.000958484
0.0009558
0.000953103
0.000950403
0.000947707
0.000945022
0.000942357
0.000939716
0.000937107
0.000934538
0.00093202
0.000929564
0.000927188
0.000924911
0.000922756
0.000920751
0.000918925
0.000917309
0.000915934
0.000914833
0.000914033
0.000913561
0.000913437
0.000913678
0.000914292
0.000915282
0.000916644
0.000918367
0.000920435
0.000922825
0.000925511
0.000928465
0.000931656
0.000935051
0.000938621
0.000942337
0.000946173
0.000950111
0.000954133
0.000958229
0.000962397
0.000966638
0.000970961
0.000975378
0.000979908
0.000984572
0.000989396
0.000994405
0.000999629
0.0010051
0.00101085
0.00101691
0.00102333
0.00103014
0.00103739
0.00104512
0.00105336
0.00106213
0.00107143
0.00108123
0.0010915
0.00110215
0.00111312
0.00112428
0.00113555
0.0011468
0.00115794
0.0011689
0.00117959
0.00119
0.00120009
0.00120987
0.00121939
0.00122868
0.00123781
0.00124687
0.00125594
0.00126512
0.00127453
0.00128425
0.00129439
0.00130502
0.00131617
0.00132786
0.00134004
0.00135265
0.00136555
0.0013786
0.00139166
0.00140453
0.0014173
0.00142852
0.00144581
0.000991865
0.000990349
0.000988779
0.000987157
0.000985485
0.000983768
0.000982011
0.000980217
0.000978395
0.000976551
0.000974693
0.000972831
0.000970974
0.00096913
0.00096731
0.000965523
0.000963779
0.000962088
0.000960459
0.000958905
0.000957436
0.000956065
0.000954804
0.000953669
0.000952675
0.000951837
0.00095117
0.00095069
0.00095041
0.000950342
0.000950494
0.000950872
0.000951479
0.000952313
0.000953369
0.000954639
0.000956111
0.000957771
0.000959604
0.000961591
0.000963714
0.000965957
0.000968303
0.000970738
0.000973251
0.000975836
0.000978489
0.000981212
0.000984013
0.000986904
0.000989902
0.000993029
0.000996311
0.000999779
0.00100347
0.00100741
0.00101166
0.00101624
0.0010212
0.00102659
0.00103245
0.00103881
0.0010457
0.00105316
0.00106117
0.00106974
0.00107883
0.00108838
0.00109833
0.00110858
0.00111905
0.00112962
0.00114019
0.00115068
0.00116099
0.00117107
0.00118088
0.00119038
0.0011996
0.00120854
0.00121724
0.00122577
0.00123419
0.00124258
0.00125103
0.00125962
0.00126845
0.00127761
0.00128718
0.00129721
0.00130775
0.00131877
0.00133025
0.0013421
0.00135421
0.00136647
0.0013787
0.00139101
0.0014019
0.00141912
0.000999831
0.000998902
0.000997933
0.000996923
0.000995874
0.000994787
0.000993665
0.000992511
0.000991329
0.000990124
0.000988902
0.000987668
0.000986431
0.000985197
0.000983974
0.00098277
0.000981595
0.000980455
0.000979361
0.00097832
0.000977341
0.000976433
0.000975603
0.000974861
0.000974216
0.000973676
0.000973251
0.000972947
0.000972772
0.000972733
0.000972834
0.000973078
0.000973467
0.000973999
0.000974672
0.000975482
0.000976421
0.000977482
0.000978655
0.000979931
0.000981299
0.000982751
0.000984276
0.000985869
0.000987524
0.00098924
0.000991018
0.000992865
0.000994791
0.000996811
0.000998944
0.00100122
0.00100365
0.00100629
0.00100916
0.00101231
0.00101578
0.00101962
0.00102386
0.00102855
0.00103373
0.00103944
0.0010457
0.00105252
0.00105991
0.00106784
0.00107629
0.0010852
0.0010945
0.0011041
0.00111391
0.00112384
0.00113378
0.00114365
0.00115336
0.00116286
0.0011721
0.00118105
0.00118973
0.00119813
0.00120629
0.00121425
0.00122209
0.00122985
0.00123761
0.00124547
0.00125349
0.00126176
0.00127036
0.00127935
0.00128878
0.00129867
0.001309
0.00131974
0.00133082
0.00134214
0.00135356
0.0013652
0.00137557
0.00139238
0.00100354
0.00100296
0.00100236
0.00100172
0.00100106
0.00100038
0.000999668
0.000998935
0.00099818
0.000997409
0.000996622
0.000995825
0.000995022
0.000994218
0.000993419
0.000992629
0.000991855
0.000991104
0.00099038
0.000989692
0.000989044
0.000988444
0.000987897
0.00098741
0.000986988
0.000986638
0.000986364
0.000986173
0.000986069
0.000986055
0.000986135
0.00098631
0.000986581
0.000986947
0.000987406
0.000987957
0.000988594
0.000989314
0.000990111
0.000990978
0.000991911
0.000992904
0.000993953
0.000995054
0.000996207
0.000997413
0.000998677
0.00100001
0.00100142
0.00100292
0.00100454
0.00100629
0.00100822
0.00101035
0.00101271
0.00101536
0.00101833
0.00102167
0.00102541
0.00102961
0.00103429
0.00103949
0.00104524
0.00105153
0.00105838
0.00106576
0.00107364
0.00108196
0.00109066
0.00109966
0.00110887
0.0011182