/*--------------------------------*- C++ -*----------------------------------*\
  =========                 |
  \\      /  F ield         | OpenFOAM: The Open Source CFD Toolbox
   \\    /   O peration     | Website:  https://openfoam.org
    \\  /    A nd           | Version:  10
     \\/     M anipulation  |
\*---------------------------------------------------------------------------*/
FoamFile
{
    format      ascii;
    class       volScalarField;
    location    "0.125";
    object      p;
}
// * * * * * * * * * * * * * * * * * * * * * * * * * * * * * * * * * * * * * //

dimensions      [0 2 -2 0 0 0 0];

internalField   nonuniform List<scalar> 
6820
(
-8.82259
-10.1867
-10.6003
-10.6961
-10.7772
-10.829
-10.8604
-10.8853
-10.9069
-10.9262
-10.944
-10.9611
-10.9777
-10.9939
-11.0097
-11.0254
-11.041
-11.0564
-11.0717
-11.087
-11.1022
-11.1172
-11.1322
-11.1468
-11.1611
-11.1747
-11.1872
-11.1975
-11.2046
-11.2026
-11.1913
-11.1409
-11.0287
-11.6227
-11.2184
-10.9247
-10.8295
-10.8312
-10.8484
-10.867
-10.8872
-10.9073
-10.9262
-10.9441
-10.9611
-10.9774
-10.9933
-11.0088
-11.024
-11.0391
-11.0541
-11.069
-11.0838
-11.0986
-11.1134
-11.128
-11.1426
-11.1568
-11.1708
-11.1839
-11.1967
-11.2071
-11.2214
-11.225
-11.281
-11.3132
-10.4797
-10.3515
-10.5766
-10.7146
-10.7765
-10.8212
-10.8538
-10.8797
-10.902
-10.9218
-10.94
-10.9572
-10.9738
-10.9899
-11.0057
-11.0213
-11.0368
-11.0521
-11.0674
-11.0826
-11.0978
-11.1129
-11.1279
-11.1428
-11.1575
-11.1719
-11.1858
-11.1992
-11.2114
-11.2245
-11.2342
-11.2554
-11.2583
-10.8462
-10.863
-10.8389
-10.8163
-10.8248
-10.8456
-10.8661
-10.8859
-10.9052
-10.9236
-10.9411
-10.958
-10.9743
-10.9903
-11.0059
-11.0214
-11.0367
-11.0519
-11.067
-11.0821
-11.0971
-11.1121
-11.1271
-11.1421
-11.1569
-11.1716
-11.1862
-11.2008
-11.2152
-11.2318
-11.2484
-11.2784
-11.3101
-10.7363
-10.6823
-10.7264
-10.7714
-10.8068
-10.8373
-10.8624
-10.8843
-10.9045
-10.9231
-10.9407
-10.9575
-10.9738
-10.9897
-11.0052
-11.0206
-11.0359
-11.0511
-11.0663
-11.0814
-11.0965
-11.1116
-11.1268
-11.1419
-11.1571
-11.1723
-11.1876
-11.2032
-11.2193
-11.2374
-11.2569
-11.2841
-11.3135
-10.7769
-10.7702
-10.7887
-10.806
-10.8245
-10.8463
-10.8675
-10.8873
-10.9062
-10.9241
-10.9413
-10.9578
-10.9739
-10.9897
-11.0051
-11.0205
-11.0357
-11.0508
-11.0659
-11.081
-11.0961
-11.1112
-11.1264
-11.1417
-11.1571
-11.1726
-11.1885
-11.205
-11.2223
-11.2416
-11.2629
-11.2897
-11.3201
-10.7761
-10.7654
-10.7803
-10.8021
-10.8244
-10.8472
-10.8685
-10.8882
-10.9068
-10.9245
-10.9414
-10.9578
-10.9737
-10.9894
-11.0048
-11.02
-11.0351
-11.0502
-11.0652
-11.0803
-11.0954
-11.1106
-11.1258
-11.1412
-11.1569
-11.1728
-11.1892
-11.2062
-11.2244
-11.2443
-11.2664
-11.2921
-11.321
-10.7856
-10.7826
-10.7959
-10.814
-10.8326
-10.8522
-10.8716
-10.8902
-10.908
-10.9252
-10.9418
-10.9579
-10.9736
-10.9891
-11.0043
-11.0194
-11.0345
-11.0494
-11.0644
-11.0794
-11.0945
-11.1097
-11.125
-11.1405
-11.1563
-11.1725
-11.1892
-11.2067
-11.2253
-11.2455
-11.2676
-11.2924
-11.3196
-10.794
-10.793
-10.8035
-10.8196
-10.8369
-10.8554
-10.8739
-10.8918
-10.9091
-10.9258
-10.942
-10.9579
-10.9734
-10.9887
-11.0038
-11.0187
-11.0337
-11.0485
-11.0634
-11.0784
-11.0934
-11.1086
-11.1239
-11.1395
-11.1554
-11.1717
-11.1886
-11.2063
-11.2251
-11.2452
-11.267
-11.2908
-11.3164
-10.8024
-10.803
-10.8125
-10.8268
-10.8426
-10.8596
-10.8768
-10.8937
-10.9103
-10.9265
-10.9424
-10.9579
-10.9731
-10.9882
-11.0031
-11.0179
-11.0327
-11.0475
-11.0623
-11.0771
-11.0921
-11.1072
-11.1225
-11.1381
-11.154
-11.1704
-11.1873
-11.205
-11.2237
-11.2436
-11.2648
-11.2875
-11.3116
-10.8106
-10.812
-10.8204
-10.8332
-10.8476
-10.8633
-10.8795
-10.8956
-10.9115
-10.9272
-10.9427
-10.9578
-10.9728
-10.9876
-11.0024
-11.017
-11.0316
-11.0462
-11.0609
-11.0756
-11.0905
-11.1055
-11.1207
-11.1362
-11.1521
-11.1684
-11.1853
-11.2029
-11.2214
-11.2408
-11.2614
-11.283
-11.3057
-10.8183
-10.8201
-10.8278
-10.8393
-10.8525
-10.867
-10.8822
-10.8975
-10.9128
-10.928
-10.9429
-10.9578
-10.9724
-10.987
-11.0015
-11.0159
-11.0304
-11.0448
-11.0593
-11.0739
-11.0886
-11.1035
-11.1186
-11.134
-11.1497
-11.1659
-11.1826
-11.2
-11.218
-11.2369
-11.2567
-11.2773
-11.2986
-10.8256
-10.8276
-10.8346
-10.845
-10.8572
-10.8706
-10.8849
-10.8994
-10.914
-10.9286
-10.9432
-10.9576
-10.972
-10.9863
-11.0005
-11.0147
-11.029
-11.0432
-11.0575
-11.0719
-11.0865
-11.1012
-11.1161
-11.1313
-11.1468
-11.1628
-11.1792
-11.1962
-11.2138
-11.232
-11.251
-11.2706
-11.2907
-10.8325
-10.8344
-10.8409
-10.8503
-10.8615
-10.874
-10.8874
-10.9012
-10.9152
-10.9293
-10.9434
-10.9574
-10.9714
-10.9854
-10.9994
-11.0134
-11.0274
-11.0414
-11.0555
-11.0697
-11.084
-11.0985
-11.1132
-11.1282
-11.1434
-11.1591
-11.1751
-11.1916
-11.2087
-11.2262
-11.2443
-11.2629
-11.2818
-10.8387
-10.8407
-10.8466
-10.8552
-10.8656
-10.8772
-10.8898
-10.9029
-10.9163
-10.9298
-10.9435
-10.9571
-10.9708
-10.9845
-10.9981
-11.0118
-11.0256
-11.0393
-11.0532
-11.0671
-11.0812
-11.0955
-11.1099
-11.1245
-11.1395
-11.1547
-11.1703
-11.1863
-11.2027
-11.2195
-11.2368
-11.2543
-11.2721
-10.8445
-10.8463
-10.8518
-10.8597
-10.8693
-10.8802
-10.892
-10.9044
-10.9172
-10.9303
-10.9434
-10.9567
-10.97
-10.9833
-10.9967
-11.0101
-11.0236
-11.0371
-11.0506
-11.0643
-11.0781
-11.092
-11.1061
-11.1204
-11.135
-11.1498
-11.1649
-11.1803
-11.196
-11.2121
-11.2284
-11.245
-11.2617
-10.8496
-10.8514
-10.8564
-10.8638
-10.8727
-10.8829
-10.894
-10.9058
-10.918
-10.9305
-10.9433
-10.9561
-10.969
-10.982
-10.9951
-11.0082
-11.0213
-11.0345
-11.0478
-11.0611
-11.0746
-11.0882
-11.1019
-11.1158
-11.1299
-11.1443
-11.1588
-11.1736
-11.1886
-11.2038
-11.2193
-11.2348
-11.2505
-10.8543
-10.8559
-10.8606
-10.8674
-10.8757
-10.8852
-10.8957
-10.9069
-10.9186
-10.9306
-10.9429
-10.9553
-10.9679
-10.9805
-10.9932
-11.006
-11.0188
-11.0317
-11.0447
-11.0577
-11.0708
-11.084
-11.0973
-11.1108
-11.1244
-11.1382
-11.1521
-11.1662
-11.1805
-11.1949
-11.2094
-11.224
-11.2386
-10.8583
-10.8598
-10.8642
-10.8705
-10.8783
-10.8872
-10.8972
-10.9078
-10.919
-10.9305
-10.9424
-10.9544
-10.9666
-10.9788
-10.9912
-11.0036
-11.0161
-11.0286
-11.0412
-11.0539
-11.0666
-11.0794
-11.0923
-11.1052
-11.1183
-11.1315
-11.1448
-11.1582
-11.1717
-11.1853
-11.1989
-11.2125
-11.2261
-10.8618
-10.8632
-10.8673
-10.8732
-10.8804
-10.8889
-10.8983
-10.9084
-10.9191
-10.9302
-10.9416
-10.9532
-10.965
-10.9769
-10.9889
-11.001
-11.0131
-11.0252
-11.0375
-11.0497
-11.062
-11.0744
-11.0868
-11.0992
-11.1117
-11.1243
-11.137
-11.1496
-11.1623
-11.1751
-11.1878
-11.2004
-11.213
-10.8647
-10.866
-10.8698
-10.8753
-10.8821
-10.8901
-10.8991
-10.9087
-10.9189
-10.9296
-10.9406
-10.9518
-10.9632
-10.9747
-10.9864
-10.9981
-11.0098
-11.0216
-11.0334
-11.0452
-11.0571
-11.069
-11.0809
-11.0928
-11.1047
-11.1166
-11.1286
-11.1405
-11.1524
-11.1643
-11.1761
-11.1877
-11.1993
-10.8669
-10.8682
-10.8718
-10.877
-10.8834
-10.891
-10.8994
-10.9087
-10.9184
-10.9287
-10.9393
-10.9501
-10.9611
-10.9723
-10.9835
-10.9949
-11.0062
-11.0176
-11.029
-11.0404
-11.0518
-11.0632
-11.0745
-11.0859
-11.0972
-11.1085
-11.1197
-11.1309
-11.142
-11.153
-11.1639
-11.1746
-11.1851
-10.8686
-10.8698
-10.8732
-10.8781
-10.8842
-10.8913
-10.8994
-10.9082
-10.9176
-10.9275
-10.9377
-10.9481
-10.9588
-10.9696
-10.9805
-10.9914
-11.0024
-11.0133
-11.0243
-11.0353
-11.0462
-11.057
-11.0679
-11.0786
-11.0893
-11.0999
-11.1104
-11.1209
-11.1311
-11.1413
-11.1512
-11.161
-11.1706
-10.8697
-10.8708
-10.874
-10.8786
-10.8844
-10.8912
-10.8989
-10.9074
-10.9164
-10.9259
-10.9357
-10.9458
-10.9561
-10.9665
-10.977
-10.9876
-10.9982
-11.0087
-11.0193
-11.0297
-11.0402
-11.0505
-11.0608
-11.0709
-11.081
-11.0909
-11.1007
-11.1104
-11.1198
-11.1291
-11.1382
-11.147
-11.1556
-10.8701
-10.8711
-10.8742
-10.8786
-10.8841
-10.8906
-10.898
-10.9062
-10.9149
-10.924
-10.9335
-10.9433
-10.9532
-10.9633
-10.9735
-10.9836
-10.9938
-11.004
-11.014
-11.0241
-11.034
-11.0438
-11.0535
-11.063
-11.0724
-11.0817
-11.0908
-11.0996
-11.1083
-11.1167
-11.1249
-11.1328
-11.1404
-10.8699
-10.8709
-10.8737
-10.8779
-10.8831
-10.8893
-10.8964
-10.9042
-10.9126
-10.9215
-10.9307
-10.9401
-10.9498
-10.9595
-10.9693
-10.9791
-10.9889
-10.9986
-11.0083
-11.0179
-11.0273
-11.0366
-11.0457
-11.0547
-11.0634
-11.072
-11.0804
-11.0885
-11.0964
-11.104
-11.1113
-11.1183
-11.125
-10.869
-10.8699
-10.8727
-10.8767
-10.8818
-10.8879
-10.8948
-10.9024
-10.9106
-10.9192
-10.9281
-10.9372
-10.9466
-10.956
-10.9654
-10.9748
-10.9842
-10.9935
-11.0027
-11.0118
-11.0207
-11.0295
-11.038
-11.0464
-11.0545
-11.0624
-11.07
-11.0774
-11.0845
-11.0912
-11.0977
-11.1038
-11.1096
-10.8673
-10.8682
-10.8706
-10.8743
-10.879
-10.8848
-10.8914
-10.8988
-10.9067
-10.9151
-10.9238
-10.9327
-10.9418
-10.951
-10.9602
-10.9693
-10.9784
-10.9874
-10.9962
-11.0048
-11.0133
-11.0216
-11.0296
-11.0374
-11.0449
-11.0522
-11.0591
-11.0658
-11.0721
-11.0781
-11.0838
-11.0891
-11.094
-10.8651
-10.8661
-10.8688
-10.8727
-10.8775
-10.8833
-10.8899
-10.8972
-10.9049
-10.9131
-10.9215
-10.9302
-10.9389
-10.9477
-10.9565
-10.9653
-10.9739
-10.9824
-10.9907
-10.9989
-11.0068
-11.0145
-11.0219
-11.0291
-11.036
-11.0425
-11.0488
-11.0547
-11.0603
-11.0655
-11.0703
-11.0748
-11.0789
-10.8617
-10.8619
-10.8636
-10.8666
-10.8709
-10.8763
-10.8827
-10.8899
-10.8977
-10.9059
-10.9144
-10.9231
-10.9319
-10.9407
-10.9494
-10.9581
-10.9666
-10.9749
-10.983
-10.9908
-10.9984
-11.0057
-11.0128
-11.0195
-11.0258
-11.0319
-11.0375
-11.0428
-11.0478
-11.0523
-11.0564
-11.0602
-11.0635
-10.8591
-10.861
-10.8641
-10.868
-10.8727
-10.8783
-10.8846
-10.8915
-10.8989
-10.9067
-10.9146
-10.9228
-10.931
-10.9392
-10.9474
-10.9555
-10.9634
-10.9711
-10.9786
-10.9858
-10.9928
-10.9995
-11.0058
-11.0118
-11.0175
-11.0229
-11.0278
-11.0324
-11.0365
-11.0403
-11.0437
-11.0466
-11.0491
-10.8508
-10.8488
-10.8484
-10.8505
-10.8547
-10.8606
-10.8675
-10.8753
-10.8837
-10.8924
-10.9013
-10.9103
-10.9192
-10.928
-10.9367
-10.9451
-10.9533
-10.9612
-10.9688
-10.976
-10.9829
-10.9895
-10.9956
-11.0014
-11.0068
-11.0118
-11.0163
-11.0204
-11.0241
-11.0274
-11.0302
-11.0325
-11.0344
-10.8557
-10.8611
-10.8652
-10.8682
-10.8717
-10.8762
-10.8816
-10.8877
-10.8944
-10.9014
-10.9088
-10.9163
-10.9238
-10.9314
-10.9388
-10.9461
-10.9533
-10.9602
-10.9668
-10.9732
-10.9793
-10.985
-10.9903
-10.9953
-10.9999
-11.0041
-11.0078
-11.0112
-11.0141
-11.0165
-11.0186
-11.0201
-11.0212
-10.8264
-10.8153
-10.8119
-10.8155
-10.8226
-10.8314
-10.8411
-10.8515
-10.862
-10.8726
-10.883
-10.8932
-10.903
-10.9125
-10.9216
-10.9303
-10.9386
-10.9465
-10.9539
-10.9608
-10.9673
-10.9734
-10.9789
-10.984
-10.9886
-10.9928
-10.9964
-10.9996
-11.0022
-11.0044
-11.0061
-11.0073
-11.0079
-10.8731
-10.8891
-10.8903
-10.8844
-10.882
-10.8827
-10.8852
-10.8891
-10.8939
-10.8994
-10.9054
-10.9118
-10.9184
-10.925
-10.9315
-10.938
-10.9443
-10.9503
-10.9561
-10.9616
-10.9668
-10.9716
-10.976
-10.98
-10.9836
-10.9868
-10.9895
-10.9918
-10.9936
-10.9949
-10.9958
-10.9962
-10.9962
-10.7634
-10.7253
-10.7197
-10.7432
-10.7629
-10.7807
-10.7982
-10.8149
-10.8306
-10.8453
-10.859
-10.8717
-10.8836
-10.8947
-10.905
-10.9146
-10.9235
-10.9317
-10.9394
-10.9464
-10.9528
-10.9587
-10.9639
-10.9686
-10.9727
-10.9763
-10.9793
-10.9818
-10.9837
-10.9851
-10.9859
-10.9862
-10.9859
-10.9751
-10.9995
-10.9701
-10.9332
-10.9094
-10.9013
-10.8977
-10.8965
-10.8976
-10.9005
-10.9044
-10.909
-10.914
-10.9194
-10.9248
-10.9303
-10.9356
-10.9408
-10.9457
-10.9504
-10.9548
-10.9588
-10.9624
-10.9656
-10.9684
-10.9708
-10.9727
-10.9742
-10.9752
-10.9757
-10.9757
-10.9753
-10.9744
-10.5595
-10.4777
-10.5346
-10.6153
-10.6713
-10.7091
-10.742
-10.7705
-10.7949
-10.816
-10.8346
-10.851
-10.8658
-10.879
-10.891
-10.9018
-10.9116
-10.9206
-10.9286
-10.9359
-10.9424
-10.9482
-10.9534
-10.9578
-10.9616
-10.9648
-10.9674
-10.9694
-10.9708
-10.9716
-10.9718
-10.9714
-10.9704
-11.5357
-11.2575
-11.0517
-10.9601
-10.9228
-10.9017
-10.8885
-10.8824
-10.881
-10.8824
-10.8856
-10.89
-10.8951
-10.9007
-10.9065
-10.9122
-10.9179
-10.9234
-10.9286
-10.9335
-10.938
-10.9422
-10.9459
-10.9492
-10.952
-10.9543
-10.9561
-10.9575
-10.9583
-10.9587
-10.9585
-10.9579
-10.9567
-9.57758
-10.1391
-10.4435
-10.5593
-10.6405
-10.7034
-10.748
-10.7814
-10.8081
-10.8298
-10.8478
-10.8632
-10.8765
-10.8883
-10.8988
-10.9083
-10.9168
-10.9244
-10.9313
-10.9375
-10.943
-10.9478
-10.952
-10.9556
-10.9586
-10.961
-10.9628
-10.9641
-10.9647
-10.9648
-10.9644
-10.9634
-10.9618
-10.8567
-11.1744
-11.3159
-11.4193
-11.5189
-11.5947
-11.6585
-11.7241
-11.7997
-11.8848
-11.9797
-12.0819
-12.1876
-12.2926
-12.3933
-12.4865
-12.5697
-12.641
-12.6989
-12.7427
-12.7718
-12.7861
-12.7856
-12.7702
-12.7402
-12.6953
-12.6356
-12.5608
-12.4707
-12.3652
-12.244
-12.1072
-11.9549
-11.7872
-11.6045
-11.4073
-11.1963
-10.9724
-10.7366
-10.4901
-10.2343
-9.97038
-9.69992
-9.42428
-9.14484
-8.86281
-8.57928
-8.29508
-8.01081
-7.72679
-7.44304
-7.15929
-6.87499
-6.58932
-6.30126
-6.00967
-5.71329
-5.4109
-5.1014
-4.78389
-4.45783
-4.12318
-3.78054
-3.43131
-3.07791
-2.72383
-2.37363
-2.03271
-1.70666
-1.40071
-1.11928
-0.865741
-0.642305
-0.449901
-0.288212
-0.155804
-0.0503696
0.0309946
0.0914964
0.134399
0.162833
0.179663
0.187422
0.188277
0.184037
0.176167
0.165834
0.153921
0.141115
0.127855
0.11455
0.10125
0.0884018
0.0754663
0.0636246
0.0506365
0.0406964
0.0257262
0.0207467
-0.00268347
-11.6536
-11.7807
-11.713
-11.6544
-11.6352
-11.6322
-11.6441
-11.6827
-11.7434
-11.8231
-11.918
-12.0228
-12.1314
-12.2386
-12.3401
-12.4329
-12.5146
-12.5838
-12.6395
-12.6812
-12.7085
-12.7213
-12.7195
-12.7033
-12.6725
-12.6271
-12.567
-12.492
-12.402
-12.2967
-12.1761
-12.0401
-11.8888
-11.7225
-11.5415
-11.3462
-11.1375
-10.9162
-10.6832
-10.4397
-10.187
-9.92636
-9.65921
-9.38691
-9.11075
-8.83192
-8.55144
-8.27014
-7.98857
-7.70704
-7.42556
-7.14386
-6.86138
-6.57734
-6.29074
-6.00044
-5.70523
-5.40392
-5.09543
-4.77893
-4.45396
-4.12059
-3.77962
-3.43268
-3.08242
-2.73247
-2.38735
-2.05204
-1.73155
-1.4306
-1.15325
-0.902737
-0.681201
-0.489605
-0.327722
-0.194264
-0.087092
-0.00348695
0.0595847
0.105233
0.136461
0.156039
0.16643
0.169754
0.167795
0.162005
0.153549
0.143318
0.132012
0.120084
0.107959
0.0957097
0.0837916
0.071691
0.0605872
0.048283
0.0389339
0.0245613
0.0200545
-0.00279289
-11.288
-11.3206
-11.3617
-11.4236
-11.4955
-11.5602
-11.6221
-11.6785
-11.7448
-11.8206
-11.9043
-11.9949
-12.0895
-12.1847
-12.2771
-12.3638
-12.4421
-12.5097
-12.5651
-12.607
-12.6347
-12.6478
-12.6462
-12.6299
-12.599
-12.5535
-12.4933
-12.4184
-12.3286
-12.2239
-12.104
-11.9691
-11.8192
-11.6546
-11.4756
-11.2827
-11.0766
-10.8581
-10.6282
-10.388
-10.1387
-9.88158
-9.61793
-9.34909
-9.07629
-8.80067
-8.52321
-8.24469
-7.96566
-7.68639
-7.40691
-7.12694
-6.84594
-6.56315
-6.27759
-5.98817
-5.69373
-5.39312
-5.08537
-4.76976
-4.446
-4.11434
-3.77578
-3.43214
-3.08613
-2.74133
-2.4019
-2.07239
-1.75737
-1.46122
-1.18781
-0.940219
-0.720543
-0.529756
-0.367707
-0.233238
-0.124371
-0.0385633
0.02705
0.0754277
0.109449
0.131785
0.144828
0.150653
0.151011
0.147342
0.140808
0.132306
0.122544
0.111992
0.101091
0.089931
0.078979
0.0677475
0.0574107
0.0458205
0.0370834
0.0233392
0.0193126
-0.00291095
-11.3974
-11.516
-11.5713
-11.5906
-11.6108
-11.6329
-11.6594
-11.6958
-11.7467
-11.811
-11.8875
-11.9719
-12.0604
-12.1492
-12.2348
-12.3143
-12.3853
-12.4463
-12.4958
-12.533
-12.5572
-12.5679
-12.5649
-12.5479
-12.5168
-12.4715
-12.4119
-12.3377
-12.2488
-12.1452
-12.0267
-11.8933
-11.7453
-11.5827
-11.4061
-11.2159
-11.0128
-10.7975
-10.5709
-10.3343
-10.0886
-9.83507
-9.57504
-9.30973
-9.04031
-8.76787
-8.49335
-8.21749
-7.94082
-7.6636
-7.38585
-7.10732
-6.82748
-6.54563
-6.26083
-5.97205
-5.67823
-5.37834
-5.07153
-4.75722
-4.43529
-4.10614
-3.7709
-3.43144
-3.09042
-2.75116
-2.41752
-2.09368
-1.78394
-1.49242
-1.22282
-0.978094
-0.760259
-0.570293
-0.408114
-0.272679
-0.162167
-0.0742002
-0.00607922
0.0450069
0.0818127
0.106912
0.122625
0.130975
0.133685
0.132176
0.127607
0.120878
0.112706
0.103574
0.0939377
0.0839071
0.0739579
0.0636299
0.0540903
0.0432437
0.0351425
0.0220542
0.0185241
-0.00304392
-11.3621
-11.4137
-11.4407
-11.4698
-11.5123
-11.5587
-11.6073
-11.6599
-11.7236
-11.791
-11.8644
-11.9431
-12.0243
-12.1053
-12.1835
-12.2566
-12.3224
-12.379
-12.4251
-12.4595
-12.4814
-12.4901
-12.4854
-12.467
-12.4348
-12.3888
-12.3287
-12.2544
-12.1658
-12.0628
-11.9454
-11.8134
-11.6672
-11.5068
-11.3326
-11.1452
-10.9451
-10.7331
-10.5101
-10.277
-10.035
-9.78531
-9.52899
-9.26728
-9.00129
-8.73206
-8.46048
-8.18725
-7.91288
-7.63764
-7.36154
-7.08436
-6.80564
-6.52469
-6.24069
-5.9527
-5.65974
-5.36092
-5.05551
-4.74308
-4.42364
-4.0977
-3.76642
-3.43162
-3.09582
-2.76211
-2.4341
-2.11574
-1.8111
-1.52409
-1.25822
-1.0163
-0.800295
-0.611168
-0.448896
-0.312544
-0.200437
-0.110357
-0.0397654
0.0140044
0.0535833
0.0814473
0.0998426
0.110741
0.115833
0.116521
0.113957
0.109042
0.102502
0.0948341
0.0865033
0.0776411
0.0687306
0.0593401
0.0506279
0.0405543
0.0331132
0.0207078
0.0176922
-0.00319143
-11.3646
-11.4235
-11.4719
-11.5115
-11.5501
-11.5884
-11.6288
-11.6703
-11.7196
-11.7792
-11.8452
-11.9163
-11.9901
-12.064
-12.1354
-12.202
-12.2617
-12.3128
-12.3539
-12.384
-12.4024
-12.4083
-12.4015
-12.3817
-12.3485
-12.3019
-12.2416
-12.1675
-12.0793
-11.9771
-11.8608
-11.7303
-11.5858
-11.4275
-11.2558
-11.0711
-10.874
-10.6653
-10.4458
-10.2164
-9.97814
-9.73218
-9.47961
-9.22154
-8.95904
-8.69309
-8.42451
-8.154
-7.88203
-7.60886
-7.33454
-7.05886
-6.7814
-6.50157
-6.21862
-5.93169
-5.63995
-5.34261
-5.03907
-4.72901
-4.41252
-4.09016
-3.76308
-3.43302
-3.10235
-2.77404
-2.45149
-2.13844
-1.83876
-1.55615
-1.29393
-1.05479
-0.840611
-0.652344
-0.490017
-0.352798
-0.239148
-0.147005
-0.0739824
-0.0175572
0.0247797
0.0554061
0.0764934
0.0899604
0.0974611
0.10038
0.0998588
0.0968
0.0919347
0.085771
0.0787865
0.0711313
0.0632956
0.0548765
0.0470222
0.0377511
0.0309949
0.0192989
0.0168181
-0.00335517
-11.3591
-11.4063
-11.4455
-11.4791
-11.515
-11.5538
-11.5957
-11.6446
-11.6967
-11.7551
-11.818
-11.8843
-11.9524
-12.0201
-12.0852
-12.1456
-12.1997
-12.2457
-12.2825
-12.3089
-12.3241
-12.3274
-12.3184
-12.2968
-12.2624
-12.2148
-12.1538
-12.0795
-11.9915
-11.8898
-11.7743
-11.6452
-11.5023
-11.3461
-11.1768
-10.9948
-10.8007
-10.5953
-10.3793
-10.1535
-9.91907
-9.67692
-9.42814
-9.17378
-8.91484
-8.65224
-8.38677
-8.11908
-7.84963
-7.57868
-7.30628
-7.03228
-6.7563
-6.47782
-6.19616
-5.91059
-5.62036
-5.32479
-5.0234
-4.71594
-4.40256
-4.08384
-3.76093
-3.4355
-3.10985
-2.78678
-2.46954
-2.16168
-1.86684
-1.58854
-1.32992
-1.09353
-0.881169
-0.693783
-0.53144
-0.393404
-0.278266
-0.18411
-0.1087
-0.049652
-0.0045759
0.0288071
0.0525925
0.0686443
0.0785795
0.0837603
0.0853185
0.0841546
0.0810041
0.0763859
0.0707874
0.0643775
0.0576524
0.0502386
0.0432727
0.0348333
0.0287876
0.0178267
0.0159037
-0.00353709
-11.354
-11.3965
-11.4361
-11.473
-11.5109
-11.5505
-11.5909
-11.6349
-11.6827
-11.7357
-11.793
-11.8533
-11.915
-11.9763
-12.0352
-12.0898
-12.1384
-12.1795
-12.2119
-12.2344
-12.2462
-12.2468
-12.2355
-12.2121
-12.1763
-12.1278
-12.0663
-11.9917
-11.9039
-11.8028
-11.6883
-11.5603
-11.4192
-11.2649
-11.098
-10.9187
-10.7276
-10.5254
-10.3128
-10.0907
-9.85999
-9.62162
-9.3766
-9.12592
-8.87052
-8.61126
-8.34889
-8.08404
-7.81715
-7.54848
-7.27809
-7.00585
-6.73146
-6.45445
-6.17423
-5.89016
-5.60157
-5.3079
-5.00874
-4.70393
-4.39367
-4.07857
-3.75976
-3.43889
-3.11814
-2.8002
-2.48816
-2.18538
-1.8953
-1.62123
-1.36615
-1.13247
-0.921933
-0.735447
-0.573126
-0.434324
-0.317753
-0.221639
-0.143888
-0.0822518
-0.0344591
0.00167087
0.0281571
0.0468071
0.059199
0.0666711
0.0703425
0.0711108
0.0697142
0.066681
0.0625075
0.0573806
0.0518015
0.0454266
0.0393796
0.0318009
0.0264918
0.0162908
0.0149509
-0.00373927
-11.3478
-11.386
-11.4232
-11.4585
-11.4943
-11.5318
-11.5714
-11.6142
-11.6604
-11.7105
-11.7639
-11.8194
-11.8758
-11.9314
-11.9846
-12.0337
-12.0771
-12.1134
-12.1415
-12.1603
-12.1689
-12.1668
-12.1534
-12.1283
-12.0911
-12.0416
-11.9796
-11.9048
-11.8172
-11.7166
-11.6029
-11.4763
-11.3367
-11.1845
-11.0199
-10.8432
-10.6551
-10.4561
-10.2469
-10.0284
-9.80131
-9.56665
-9.32533
-9.07826
-8.82634
-8.57038
-8.3111
-8.04908
-7.78475
-7.51837
-7.25003
-6.97963
-6.7069
-6.43145
-6.15277
-5.87028
-5.58343
-5.29173
-4.99487
-4.69275
-4.38563
-4.07414
-3.75941
-3.44304
-3.12713
-2.81424
-2.50731
-2.20951
-1.92409
-1.65418
-1.40258
-1.1716
-0.962866
-0.777298
-0.615038
-0.475521
-0.357573
-0.259556
-0.179513
-0.115327
-0.0648437
-0.0259799
0.00320632
0.0244648
0.0393327
0.0491226
0.0549391
0.0576752
0.0580702
0.0566604
0.0539499
0.0501427
0.0457445
0.0404416
0.0353439
0.0286545
0.0241085
0.014691
0.0139619
-0.00396385
-11.3407
-11.3758
-11.411
-11.4455
-11.4806
-11.5172
-11.5555
-11.5962
-11.6395
-11.6859
-11.7347
-11.7852
-11.8362
-11.8863
-11.934
-11.9777
-12.0161
-12.0478
-12.0718
-12.0869
-12.0924
-12.0876
-12.072
-12.0451
-12.0066
-11.9561
-11.8936
-11.8186
-11.7312
-11.6311
-11.5183
-11.393
-11.255
-11.1048
-10.9424
-10.7684
-10.5832
-10.3873
-10.1814
-9.96635
-9.74287
-9.51183
-9.27411
-9.03059
-8.78208
-8.52938
-8.27314
-8.01393
-7.75217
-7.48812
-7.22187
-6.95337
-6.68239
-6.40859
-6.13153
-5.85074
-5.56572
-5.2761
-4.98161
-4.68225
-4.3783
-4.07045
-3.75979
-3.44788
-3.13676
-2.82885
-2.52694
-2.23403
-1.95319
-1.68736
-1.43919
-1.21086
-1.00393
-0.8193
-0.657137
-0.516954
-0.397688
-0.297823
-0.21554
-0.148846
-0.0957018
-0.0541207
-0.0222388
0.00163492
0.0189953
0.0311271
0.0391185
0.0438561
0.0460786
0.0463294
0.0451187
0.0426674
0.0394843
0.0352858
0.0311676
0.0253955
0.0216393
0.0130277
0.0129392
-0.00421311
-11.3328
-11.3652
-11.3984
-11.4314
-11.4651
-11.5001
-11.5366
-11.5751
-11.6158
-11.6588
-11.7037
-11.7497
-11.7957
-11.8407
-11.8832
-11.9219
-11.9555
-11.9828
-12.0026
-12.0142
-12.0166
-12.0092
-11.9913
-11.9627
-11.9229
-11.8715
-11.8083
-11.7332
-11.6459
-11.5463
-11.4345
-11.3103
-11.174
-11.0256
-10.8655
-10.694
-10.5116
-10.3188
-10.1162
-9.90447
-9.68448
-9.45698
-9.22279
-8.98273
-8.73758
-8.48808
-8.23486
-7.97845
-7.71927
-7.45757
-7.19347
-6.92693
-6.65778
-6.38573
-6.11042
-5.83142
-5.54836
-5.2609
-4.96888
-4.67235
-4.37164
-4.06745
-3.76086
-3.4534
-3.147
-2.844
-2.54703
-2.25892
-1.98257
-1.72074
-1.47594
-1.25023
-1.0451
-0.861415
-0.699384
-0.558586
-0.438057
-0.336404
-0.251933
-0.182776
-0.127004
-0.0827255
-0.0481555
-0.0216628
-0.00179643
0.0126987
0.0228925
0.0296634
0.033748
0.035695
0.03602
0.0349595
0.0330251
0.0299627
0.0268536
0.022026
0.0190865
0.0113019
0.0118856
-0.00448926
-11.324
-11.3542
-11.3854
-11.4169
-11.4491
-11.4825
-11.5171
-11.5533
-11.5913
-11.6309
-11.6719
-11.7135
-11.7548
-11.7949
-11.8325
-11.8663
-11.8953
-11.9183
-11.9342
-11.9423
-11.9416
-11.9316
-11.9116
-11.8812
-11.8399
-11.7876
-11.7238
-11.6485
-11.5613
-11.4623
-11.3512
-11.2283
-11.0935
-10.947
-10.7891
-10.6201
-10.4404
-10.2505
-10.051
-9.84266
-9.62606
-9.40201
-9.17126
-8.9346
-8.69275
-8.44641
-8.19618
-7.94257
-7.68598
-7.42667
-7.16477
-6.90027
-6.63304
-6.36284
-6.08938
-5.8123
-5.5313
-5.24612
-4.95667
-4.66304
-4.36562
-4.06511
-3.7626
-3.45955
-3.15784
-2.85967
-2.56755
-2.28415
-2.0122
-1.7543
-1.51281
-1.28967
-1.08632
-0.903604
-0.74174
-0.600375
-0.478641
-0.37526
-0.288657
-0.217082
-0.158718
-0.111766
-0.0745192
-0.0454069
-0.0230241
-0.00614677
0.00627472
0.0151087
0.0210881
0.0247657
0.026661
0.0270252
0.0263721
0.0244768
0.0224057
0.0185492
0.0164529
0.009515
0.010804
-0.00479452
-11.3145
-11.3427
-11.372
-11.4018
-11.4323
-11.4638
-11.4964
-11.5303
-11.5654
-11.6018
-11.639
-11.6765
-11.7134
-11.7488
-11.7817
-11.811
-11.8356
-11.8544
-11.8666
-11.8712
-11.8675
-11.8549
-11.8327
-11.8005
-11.7579
-11.7046
-11.6402
-11.5646
-11.4775
-11.3789
-11.2687
-11.1469
-11.0136
-10.8689
-10.7131
-10.5465
-10.3694
-10.1824
-9.98604
-9.78087
-9.56758
-9.34689
-9.11952
-8.88618
-8.64757
-8.40435
-8.15709
-7.90628
-7.6523
-7.39541
-7.13577
-6.87338
-6.60816
-6.33992
-6.06842
-5.79338
-5.51455
-5.23176
-4.94496
-4.65432
-4.36024
-4.06344
-3.765
-3.46634
-3.16925
-2.87584
-2.58849
-2.3097
-2.04205
-1.78799
-1.54975
-1.32915
-1.12757
-0.945829
-0.784163
-0.642281
-0.5194
-0.41435
-0.325672
-0.25173
-0.190812
-0.141213
-0.101303
-0.0695742
-0.0446671
-0.0253915
-0.0107194
0.000205601
0.0081109
0.0135519
0.0170507
0.0188726
0.0195323
0.018834
0.0178291
0.0149692
0.0137424
0.0076692
0.00969785
-0.00513087
-11.3042
-11.3306
-11.358
-11.386
-11.4148
-11.4444
-11.4748
-11.5063
-11.5387
-11.5718
-11.6054
-11.6389
-11.6716
-11.7026
-11.7311
-11.756
-11.7763
-11.7912
-11.7997
-11.801
-11.7944
-11.7791
-11.7548
-11.7208
-11.6768
-11.6225
-11.5574
-11.4815
-11.3945
-11.2964
-11.1869
-11.0662
-10.9343
-10.7914
-10.6376
-10.4733
-10.2988
-10.1146
-9.92118
-9.71912
-9.50906
-9.29164
-9.06755
-8.83748
-8.60206
-8.36192
-8.1176
-7.86958
-7.61823
-7.36381
-7.10648
-6.84628
-6.58316
-6.31699
-6.04756
-5.77467
-5.49813
-5.21782
-4.93377
-4.64618
-4.35549
-4.06243
-3.76805
-3.47374
-3.18122
-2.89249
-2.6098
-2.33553
-2.07209
-1.82179
-1.58673
-1.36863
-1.16881
-0.98805
-0.826615
-0.684263
-0.560293
-0.453635
-0.36294
-0.286682
-0.223251
-0.171035
-0.12848
-0.0941394
-0.0667034
-0.0450158
-0.0280725
-0.0150307
-0.00517026
0.00206543
0.00719967
0.0105109
0.0125138
0.0130416
0.0131301
0.0112912
0.0109593
0.00576746
0.00857078
-0.00550005
-11.2931
-11.3178
-11.3434
-11.3696
-11.3965
-11.4241
-11.4524
-11.4814
-11.511
-11.541
-11.5711
-11.6008
-11.6295
-11.6563
-11.6806
-11.7013
-11.7176
-11.7287
-11.7336
-11.7317
-11.7221
-11.7044
-11.6779
-11.6422
-11.5968
-11.5414
-11.4757
-11.3994
-11.3125
-11.2146
-11.1059
-10.9863
-10.8557
-10.7145
-10.5627
-10.4006
-10.2286
-10.047
-9.85649
-9.65746
-9.45051
-9.23629
-9.01541
-8.78852
-8.55623
-8.31914
-8.07774
-7.83251
-7.58381
-7.33189
-7.07693
-6.819
-6.55807
-6.29406
-6.02681
-5.75618
-5.48203
-5.20432
-4.9231
-4.63863
-4.35136
-4.06205
-3.77173
-3.48173
-3.19371
-2.90958
-2.63147
-2.36161
-2.10228
-1.85566
-1.62371
-1.40808
-1.21
-1.03023
-0.869054
-0.726279
-0.601277
-0.493073
-0.40042
-0.3219
-0.256001
-0.201199
-0.156018
-0.119075
-0.0891085
-0.0649979
-0.0457652
-0.0305829
-0.0187399
-0.00967988
-0.00287973
0.00195105
0.00532653
0.00710806
0.00831606
0.00752165
0.00810912
0.00381356
0.00742673
-0.00590331
-11.2813
-11.3043
-11.3281
-11.3526
-11.3776
-11.4031
-11.4292
-11.4557
-11.4825
-11.5095
-11.5362
-11.5623
-11.5871
-11.61
-11.6303
-11.647
-11.6595
-11.6669
-11.6684
-11.6633
-11.651
-11.6307
-11.6021
-11.5646
-11.5178
-11.4613
-11.3949
-11.3183
-11.2313
-11.1339
-11.0258
-10.9071
-10.7779
-10.6382
-10.4883
-10.3283
-10.1587
-9.97979
-9.79202
-9.59591
-9.392
-9.18087
-8.96312
-8.73935
-8.51015
-8.27605
-8.03756
-7.79511
-7.54907
-7.29969
-7.04716
-6.79156
-6.53291
-6.27116
-6.0062
-5.73793
-5.46629
-5.19125
-4.91295
-4.63165
-4.34786
-4.06231
-3.77602
-3.4903
-3.20672
-2.9271
-2.65345
-2.38791
-2.1326
-1.88957
-1.66067
-1.44745
-1.25109
-1.07232
-0.911439
-0.768287
-0.64231
-0.532621
-0.438073
-0.357344
-0.289022
-0.23167
-0.183888
-0.144353
-0.111856
-0.0853142
-0.0637762
-0.0464318
-0.0325807
-0.0216684
-0.0131734
-0.00679415
-0.0020183
0.00104351
0.00339577
0.00366795
0.00519788
0.00181219
0.00626978
-0.00634134
-11.2688
-11.2902
-11.3123
-11.3349
-11.358
-11.3815
-11.4053
-11.4293
-11.4534
-11.4774
-11.5009
-11.5235
-11.5447
-11.5638
-11.5802
-11.5932
-11.602
-11.6059
-11.6041
-11.5959
-11.5808
-11.5582
-11.5275
-11.4882
-11.44
-11.3824
-11.3153
-11.2383
-11.1513
-11.0541
-10.9466
-10.8289
-10.7008
-10.5627
-10.4146
-10.2567
-10.0893
-9.91293
-9.72784
-9.53455
-9.33358
-9.12546
-8.91076
-8.69003
-8.46384
-8.2327
-7.99709
-7.75742
-7.51405
-7.26724
-7.01719
-6.764
-6.50772
-6.24831
-5.98574
-5.71995
-5.4509
-5.17864
-4.90332
-4.62526
-4.34497
-4.06319
-3.78091
-3.49941
-3.22019
-2.945
-2.67573
-2.41439
-2.163
-1.92347
-1.69756
-1.48671
-1.29205
-1.11429
-0.953728
-0.810244
-0.68335
-0.572238
-0.475855
-0.392975
-0.322278
-0.262413
-0.212054
-0.169942
-0.134918
-0.105939
-0.0820819
-0.0625559
-0.0466732
-0.0338824
-0.0236654
-0.0157102
-0.00950765
-0.0051404
-0.00162078
-0.000261049
0.00223259
-0.00023098
0.00510418
-0.00681393
-11.2556
-11.2754
-11.2958
-11.3166
-11.3378
-11.3592
-11.3807
-11.4023
-11.4237
-11.4448
-11.4652
-11.4845
-11.5022
-11.5177
-11.5305
-11.5399
-11.5452
-11.5456
-11.5407
-11.5296
-11.5118
-11.4868
-11.454
-11.413
-11.3634
-11.3048
-11.2369
-11.1595
-11.0724
-10.9754
-10.8685
-10.7516
-10.6247
-10.488
-10.3416
-10.1857
-10.0205
-9.84651
-9.664
-9.47344
-9.27531
-9.0701
-8.85837
-8.64062
-8.41738
-8.18915
-7.95639
-7.71949
-7.47881
-7.2346
-6.98708
-6.73636
-6.48252
-6.22556
-5.96548
-5.70225
-5.43589
-5.16649
-4.89423
-4.61945
-4.34268
-4.06467
-3.78638
-3.50905
-3.23412
-2.96326
-2.69826
-2.44103
-2.19345
-1.95734
-1.73434
-1.52582
-1.33284
-1.1561
-0.995879
-0.852108
-0.724352
-0.61188
-0.513724
-0.428751
-0.355728
-0.293389
-0.240481
-0.195809
-0.158264
-0.126844
-0.100657
-0.0789317
-0.0609956
-0.046302
-0.0343375
-0.0247806
-0.0171268
-0.0114305
-0.00672223
-0.00425525
-0.000778978
-0.00230918
0.00393412
-0.00731987
-11.2418
-11.2601
-11.2788
-11.2978
-11.317
-11.3363
-11.3556
-11.3748
-11.3936
-11.4119
-11.4292
-11.4453
-11.4597
-11.4718
-11.4812
-11.4871
-11.489
-11.4863
-11.4783
-11.4644
-11.444
-11.4167
-11.3819
-11.3392
-11.2881
-11.2284
-11.1598
-11.0819
-10.9947
-10.8979
-10.7914
-10.6753
-10.5496
-10.4142
-10.2694
-10.1154
-9.95235
-9.78063
-9.6006
-9.41266
-9.21727
-9.01489
-8.80602
-8.59117
-8.37083
-8.14547
-7.91552
-7.68139
-7.44339
-7.20182
-6.95686
-6.70868
-6.45735
-6.20293
-5.94542
-5.68485
-5.42127
-5.1548
-4.88566
-4.61421
-4.34099
-4.06674
-3.79241
-3.51919
-3.24847
-2.98184
-2.72102
-2.46778
-2.22392
-1.99114
-1.77098
-1.56474
-1.37342
-1.19769
-1.03785
-0.893835
-0.765273
-0.651502
-0.551636
-0.464628
-0.389332
-0.32456
-0.269133
-0.221919
-0.181861
-0.147999
-0.119472
-0.0955332
-0.0755242
-0.0589053
-0.0451695
-0.0339869
-0.024859
-0.0178117
-0.0118957
-0.00830309
-0.00382821
-0.0044144
0.00276371
-0.00785652
-11.2275
-11.2442
-11.2612
-11.2784
-11.2957