/*--------------------------------*- C++ -*----------------------------------*\
  =========                 |
  \\      /  F ield         | OpenFOAM: The Open Source CFD Toolbox
   \\    /   O peration     | Website:  https://openfoam.org
    \\  /    A nd           | Version:  10
     \\/     M anipulation  |
\*---------------------------------------------------------------------------*/
FoamFile
{
    format      ascii;
    class       volVectorField;
    location    "0.125";
    object      U;
}
// * * * * * * * * * * * * * * * * * * * * * * * * * * * * * * * * * * * * * //

dimensions      [0 1 -1 0 0 0 0];

internalField   nonuniform List<vector> 
6820
(
(7.33663 -0.254711 0)
(7.37113 -0.152749 0)
(7.32907 -0.0594745 0)
(7.25227 -0.0117291 0)
(7.17496 0.00795202 0)
(7.10519 0.0139495 0)
(7.04425 0.0144316 0)
(6.99153 0.0130487 0)
(6.94557 0.0112918 0)
(6.90499 0.00970819 0)
(6.86869 0.0084379 0)
(6.83589 0.00746805 0)
(6.80596 0.00674219 0)
(6.77845 0.00620086 0)
(6.75302 0.00579432 0)
(6.7294 0.00548471 0)
(6.70739 0.00524441 0)
(6.6868 0.00505389 0)
(6.66749 0.00489978 0)
(6.64934 0.00477329 0)
(6.63224 0.00466921 0)
(6.61608 0.00458544 0)
(6.60077 0.00452309 0)
(6.5862 0.00448766 0)
(6.57225 0.00449083 0)
(6.55878 0.00455781 0)
(6.54556 0.00474128 0)
(6.53229 0.00510715 0)
(6.51809 0.00614676 0)
(6.50233 0.00708727 0)
(6.48113 0.0147708 0)
(6.44682 0.0158262 0)
(6.40257 0.0353535 0)
(7.32387 0.121383 0)
(7.3044 0.123264 0)
(7.30897 0.0779441 0)
(7.32922 0.0527572 0)
(7.34734 0.0391502 0)
(7.35543 0.0313363 0)
(7.35451 0.0268739 0)
(7.34747 0.0241165 0)
(7.3366 0.0222065 0)
(7.32349 0.0207526 0)
(7.30918 0.0195591 0)
(7.29434 0.0185256 0)
(7.27938 0.0176016 0)
(7.26454 0.0167607 0)
(7.24998 0.015988 0)
(7.23577 0.015274 0)
(7.22196 0.0146125 0)
(7.20858 0.0139988 0)
(7.19563 0.0134298 0)
(7.18311 0.0129035 0)
(7.17102 0.0124191 0)
(7.15935 0.0119779 0)
(7.14808 0.011584 0)
(7.13719 0.0112461 0)
(7.12667 0.0109803 0)
(7.11649 0.0108229 0)
(7.1067 0.0108212 0)
(7.09715 0.0111493 0)
(7.08853 0.0119188 0)
(7.07963 0.014046 0)
(7.07642 0.0180426 0)
(7.07241 0.0272129 0)
(7.09875 0.0484142 0)
(7.32565 -0.0437965 0)
(7.32325 -0.0517463 0)
(7.3352 -0.0262224 0)
(7.34307 -0.00275407 0)
(7.34803 0.0103817 0)
(7.35227 0.0168186 0)
(7.35533 0.0198755 0)
(7.35694 0.0211463 0)
(7.35708 0.0214727 0)
(7.35588 0.0213277 0)
(7.35356 0.0209581 0)
(7.35037 0.0204904 0)
(7.3465 0.0199904 0)
(7.34213 0.0194907 0)
(7.33738 0.0190066 0)
(7.33238 0.0185441 0)
(7.32719 0.0181054 0)
(7.3219 0.0176907 0)
(7.31654 0.0173 0)
(7.31116 0.0169334 0)
(7.3058 0.0165924 0)
(7.30046 0.0162801 0)
(7.29516 0.0160024 0)
(7.28992 0.0157695 0)
(7.28473 0.0155997 0)
(7.27957 0.0155191 0)
(7.27446 0.0155911 0)
(7.26932 0.0158485 0)
(7.26433 0.0166053 0)
(7.25914 0.0174999 0)
(7.25495 0.020394 0)
(7.25058 0.0211185 0)
(7.2491 0.0270704 0)
(7.33338 0.0117815 0)
(7.33036 0.0328953 0)
(7.32958 0.033316 0)
(7.33261 0.0275933 0)
(7.33807 0.0241905 0)
(7.34365 0.0226996 0)
(7.34832 0.0221219 0)
(7.35206 0.0218775 0)
(7.35496 0.0217095 0)
(7.35707 0.0215357 0)
(7.3585 0.0213306 0)
(7.35933 0.021088 0)
(7.35966 0.0208117 0)
(7.35955 0.0205087 0)
(7.3591 0.0201863 0)
(7.35835 0.0198511 0)
(7.35736 0.019509 0)
(7.35618 0.0191652 0)
(7.35485 0.0188245 0)
(7.3534 0.0184917 0)
(7.35185 0.0181726 0)
(7.35022 0.0178743 0)
(7.34853 0.0176069 0)
(7.34679 0.0173846 0)
(7.34501 0.0172303 0)
(7.34319 0.0171763 0)
(7.34135 0.0172826 0)
(7.33946 0.0176127 0)
(7.33768 0.0183549 0)
(7.33594 0.0195156 0)
(7.33495 0.0217992 0)
(7.33473 0.0243655 0)
(7.33708 0.0295388 0)
(7.33122 -0.00353035 0)
(7.33004 -0.00435022 0)
(7.33362 0.00122854 0)
(7.33723 0.00866235 0)
(7.34056 0.0140119 0)
(7.34388 0.0169998 0)
(7.3471 0.0186183 0)
(7.35016 0.0195105 0)
(7.35299 0.0199807 0)
(7.35554 0.0201995 0)
(7.3578 0.0202621 0)
(7.35976 0.0202219 0)
(7.36145 0.0201116 0)
(7.36288 0.0199527 0)
(7.36409 0.0197595 0)
(7.3651 0.019542 0)
(7.36594 0.0193077 0)
(7.36662 0.0190629 0)
(7.36717 0.018813 0)
(7.36761 0.0185637 0)
(7.36795 0.0183214 0)
(7.36821 0.0180943 0)
(7.36839 0.0178932 0)
(7.36852 0.0177332 0)
(7.36859 0.0176367 0)
(7.36862 0.0176333 0)
(7.36863 0.0177746 0)
(7.36865 0.0181055 0)
(7.36877 0.0187576 0)
(7.36906 0.019693 0)
(7.3699 0.0212646 0)
(7.37144 0.0227499 0)
(7.37423 0.0248054 0)
(7.33264 0.00207156 0)
(7.33224 0.00987864 0)
(7.33395 0.0140584 0)
(7.33648 0.0159112 0)
(7.3395 0.0169981 0)
(7.34273 0.0177508 0)
(7.34584 0.0183358 0)
(7.34875 0.0187723 0)
(7.35149 0.0190586 0)
(7.35405 0.0192235 0)
(7.35644 0.0192966 0)
(7.35868 0.0192981 0)
(7.36077 0.0192433 0)
(7.36272 0.0191439 0)
(7.36454 0.019009 0)
(7.36624 0.0188458 0)
(7.36783 0.0186605 0)
(7.36933 0.0184587 0)
(7.37074 0.0182461 0)
(7.37207 0.0180287 0)
(7.37332 0.0178132 0)
(7.37452 0.0176084 0)
(7.37567 0.0174253 0)
(7.37677 0.0172786 0)
(7.37784 0.0171893 0)
(7.37889 0.0171831 0)
(7.37995 0.0173003 0)
(7.38105 0.0175756 0)
(7.38229 0.018085 0)
(7.38375 0.0188071 0)
(7.38568 0.01987 0)
(7.38825 0.0209116 0)
(7.39169 0.0220635 0)
(7.33258 0.000819113 0)
(7.33243 0.00448362 0)
(7.3343 0.00801481 0)
(7.33692 0.011195 0)
(7.33974 0.0137565 0)
(7.3426 0.0155039 0)
(7.34536 0.016627 0)
(7.348 0.0173397 0)
(7.35053 0.0177766 0)
(7.35295 0.0180304 0)
(7.35528 0.0181607 0)
(7.35751 0.018203 0)
(7.35967 0.0181803 0)
(7.36175 0.0181081 0)
(7.36376 0.0179974 0)
(7.36571 0.0178561 0)
(7.3676 0.0176909 0)
(7.36943 0.0175074 0)
(7.37121 0.017311 0)
(7.37295 0.0171077 0)
(7.37465 0.016904 0)
(7.37631 0.016708 0)
(7.37794 0.0165301 0)
(7.37956 0.0163834 0)
(7.38116 0.0162853 0)
(7.38278 0.0162564 0)
(7.38443 0.0163249 0)
(7.38616 0.0165128 0)
(7.38805 0.0168571 0)
(7.39016 0.0173321 0)
(7.39267 0.0179573 0)
(7.39569 0.0185031 0)
(7.39929 0.0188862 0)
(7.33284 0.00132178 0)
(7.33302 0.00532014 0)
(7.33459 0.00885016 0)
(7.33684 0.0115113 0)
(7.33936 0.0134575 0)
(7.34201 0.0147897 0)
(7.34464 0.0156928 0)
(7.34717 0.0163069 0)
(7.3496 0.0167076 0)
(7.35195 0.0169512 0)
(7.35421 0.0170808 0)
(7.35641 0.0171256 0)
(7.35855 0.0171056 0)
(7.36065 0.0170355 0)
(7.3627 0.0169258 0)
(7.36471 0.0167842 0)
(7.3667 0.0166173 0)
(7.36865 0.0164304 0)
(7.37059 0.0162289 0)
(7.3725 0.0160182 0)
(7.37439 0.0158047 0)
(7.37627 0.0155956 0)
(7.37815 0.0154 0)
(7.38002 0.0152289 0)
(7.38192 0.0150957 0)
(7.38384 0.0150155 0)
(7.38583 0.015006 0)
(7.38791 0.015078 0)
(7.39016 0.0152435 0)
(7.39263 0.0154734 0)
(7.39542 0.0157414 0)
(7.39861 0.0158978 0)
(7.40221 0.0158295 0)
(7.33291 0.00131836 0)
(7.33321 0.00463516 0)
(7.33462 0.00764651 0)
(7.33668 0.0100838 0)
(7.33901 0.0120126 0)
(7.34149 0.0134307 0)
(7.34396 0.0144256 0)
(7.34637 0.015106 0)
(7.34872 0.0155509 0)
(7.35099 0.0158224 0)
(7.35319 0.0159679 0)
(7.35535 0.01602 0)
(7.35745 0.016001 0)
(7.35953 0.015927 0)
(7.36157 0.0158097 0)
(7.36359 0.0156577 0)
(7.3656 0.0154777 0)
(7.36759 0.0152757 0)
(7.36957 0.0150568 0)
(7.37154 0.0148263 0)
(7.37352 0.01459 0)
(7.3755 0.0143543 0)
(7.37748 0.0141266 0)
(7.37949 0.0139155 0)
(7.38153 0.0137308 0)
(7.38362 0.0135818 0)
(7.38579 0.0134778 0)
(7.38806 0.0134209 0)
(7.39049 0.0134078 0)
(7.39313 0.0134075 0)
(7.39603 0.0133781 0)
(7.39924 0.0132158 0)
(7.40273 0.0128209 0)
(7.33297 0.00129308 0)
(7.33335 0.00427471 0)
(7.33463 0.00703879 0)
(7.33648 0.00930531 0)
(7.33861 0.0110924 0)
(7.3409 0.0124168 0)
(7.34323 0.0133582 0)
(7.34554 0.014012 0)
(7.3478 0.0144474 0)
(7.35001 0.014717 0)
(7.35217 0.0148615 0)
(7.35428 0.0149106 0)
(7.35636 0.0148855 0)
(7.3584 0.014802 0)
(7.36043 0.0146718 0)
(7.36244 0.0145037 0)
(7.36444 0.0143048 0)
(7.36643 0.0140809 0)
(7.36842 0.0138372 0)
(7.37041 0.0135787 0)
(7.37241 0.0133105 0)
(7.37443 0.013038 0)
(7.37646 0.012767 0)
(7.37853 0.0125038 0)
(7.38064 0.0122544 0)
(7.38281 0.0120238 0)
(7.38506 0.0118146 0)
(7.38742 0.0116227 0)
(7.38993 0.0114366 0)
(7.39263 0.0112259 0)
(7.39553 0.0109475 0)
(7.39866 0.0105275 0)
(7.402 0.00989125 0)
(7.333 0.00122953 0)
(7.33342 0.0038865 0)
(7.33457 0.00635438 0)
(7.33625 0.00841153 0)
(7.33821 0.010062 0)
(7.34033 0.0113202 0)
(7.34253 0.0122381 0)
(7.34473 0.0128867 0)
(7.3469 0.0133235 0)
(7.34904 0.0135951 0)
(7.35115 0.0137393 0)
(7.35322 0.0137845 0)
(7.35526 0.0137517 0)
(7.35728 0.0136567 0)
(7.35928 0.0135114 0)
(7.36127 0.0133246 0)
(7.36326 0.0131037 0)
(7.36524 0.0128543 0)
(7.36722 0.0125816 0)
(7.36921 0.0122902 0)
(7.37122 0.0119845 0)
(7.37324 0.0116688 0)
(7.37529 0.0113474 0)
(7.37738 0.0110243 0)
(7.37951 0.0107027 0)
(7.38171 0.0103836 0)
(7.384 0.0100652 0)
(7.38639 0.00973958 0)
(7.38891 0.00939132 0)
(7.39158 0.00899242 0)
(7.39443 0.00850443 0)
(7.39745 0.00787379 0)
(7.40062 0.0070482 0)
(7.33302 0.00114422 0)
(7.33344 0.00352296 0)
(7.3345 0.00573799 0)
(7.33602 0.00761347 0)
(7.33782 0.00913516 0)
(7.33979 0.0103121 0)
(7.34185 0.0111823 0)
(7.34394 0.0118021 0)
(7.34603 0.0122215 0)
(7.34811 0.0124816 0)
(7.35016 0.012616 0)
(7.35218 0.0126507 0)
(7.35419 0.0126055 0)
(7.35618 0.0124955 0)
(7.35815 0.0123321 0)
(7.36012 0.0121243 0)
(7.36208 0.0118788 0)
(7.36404 0.0116015 0)
(7.36601 0.011297 0)
(7.36799 0.0109695 0)
(7.36998 0.0106227 0)
(7.372 0.0102598 0)
(7.37405 0.00988359 0)
(7.37613 0.00949615 0)
(7.37827 0.00909817 0)
(7.38047 0.00868809 0)
(7.38275 0.00826105 0)
(7.38513 0.007807 0)
(7.38762 0.00730967 0)
(7.39024 0.00674429 0)
(7.393 0.00607887 0)
(7.39589 0.0052743 0)
(7.39889 0.00429517 0)
(7.33303 0.00104857 0)
(7.33344 0.00317612 0)
(7.33441 0.00515555 0)
(7.33579 0.00685043 0)
(7.33745 0.00823883 0)
(7.33928 0.00932672 0)
(7.34122 0.0101416 0)
(7.34321 0.0107268 0)
(7.34521 0.0111237 0)
(7.34721 0.0113673 0)
(7.3492 0.0114875 0)
(7.35118 0.0115079 0)
(7.35314 0.0114471 0)
(7.3551 0.0113193 0)
(7.35704 0.0111355 0)
(7.35898 0.0109044 0)
(7.36092 0.0106325 0)
(7.36286 0.0103252 0)
(7.36481 0.00998688 0)
(7.36677 0.00962109 0)
(7.36874 0.00923073 0)
(7.37074 0.00881808 0)
(7.37278 0.00838462 0)
(7.37485 0.00793077 0)
(7.37697 0.00745537 0)
(7.37915 0.00695498 0)
(7.3814 0.00642304 0)
(7.38374 0.00584876 0)
(7.38618 0.00521653 0)
(7.38872 0.00450516 0)
(7.39137 0.00368901 0)
(7.39412 0.0027394 0)
(7.39694 0.00163276 0)
(7.33303 0.000948953 0)
(7.33342 0.002846 0)
(7.33431 0.00460855 0)
(7.33558 0.00613143 0)
(7.33711 0.00738925 0)
(7.33882 0.0083841 0)
(7.34064 0.00913547 0)
(7.34253 0.00967668 0)
(7.34444 0.0100418 0)
(7.34637 0.010261 0)
(7.3483 0.0103603 0)
(7.35023 0.0103612 0)
(7.35214 0.0102805 0)
(7.35406 0.0101316 0)
(7.35597 0.00992467 0)
(7.35787 0.00966791 0)
(7.35978 0.00936757 0)
(7.3617 0.00902856 0)
(7.36362 0.00865473 0)
(7.36555 0.00824903 0)
(7.36751 0.00781364 0)
(7.36948 0.00734988 0)
(7.37149 0.00685815 0)
(7.37354 0.00633758 0)
(7.37563 0.00578572 0)
(7.37777 0.00519793 0)
(7.37999 0.00456689 0)
(7.38227 0.00388196 0)
(7.38463 0.00312899 0)
(7.38708 0.00229028 0)
(7.38961 0.00134569 0)
(7.39222 0.000274136 0)
(7.39488 -0.00093988 0)
(7.33303 0.00084921 0)
(7.3334 0.00253172 0)
(7.33422 0.00409231 0)
(7.33539 0.00544937 0)
(7.3368 0.00657713 0)
(7.33839 0.00747465 0)
(7.34011 0.0081557 0)
(7.3419 0.00864568 0)
(7.34373 0.00897228 0)
(7.34559 0.00916104 0)
(7.34745 0.00923447 0)
(7.34932 0.00921148 0)
(7.3512 0.00910736 0)
(7.35307 0.00893429 0)
(7.35494 0.00870183 0)
(7.35681 0.00841746 0)
(7.35868 0.00808694 0)
(7.36057 0.00771471 0)
(7.36246 0.00730409 0)
(7.36436 0.00685742 0)
(7.36629 0.00637618 0)
(7.36823 0.0058609 0)
(7.37021 0.00531107 0)
(7.37222 0.0047249 0)
(7.37427 0.00409907 0)
(7.37637 0.00342833 0)
(7.37852 0.00270524 0)
(7.38074 0.00191985 0)
(7.38302 0.00105975 0)
(7.38536 0.000110484 0)
(7.38777 -0.000943616 0)
(7.39023 -0.00211814 0)
(7.39274 -0.00342313 0)
(7.33303 0.000751458 0)
(7.33338 0.00223239 0)
(7.33413 0.00360367 0)
(7.33521 0.00480116 0)
(7.33652 0.00580042 0)
(7.33801 0.00659815 0)
(7.33962 0.00720369 0)
(7.34132 0.00763624 0)
(7.34307 0.00791803 0)
(7.34486 0.00807044 0)
(7.34666 0.00811274 0)
(7.34848 0.00806149 0)
(7.3503 0.00793031 0)
(7.35212 0.00773017 0)
(7.35395 0.00746977 0)
(7.35579 0.00715587 0)
(7.35763 0.00679366 0)
(7.35947 0.00638703 0)
(7.36133 0.00593875 0)
(7.3632 0.0054506 0)
(7.36509 0.00492341 0)
(7.36699 0.00435704 0)
(7.36893 0.0037503 0)
(7.37089 0.00310077 0)
(7.3729 0.00240464 0)
(7.37494 0.00165647 0)
(7.37703 0.000849096 0)
(7.37916 -2.64453e-05 0)
(7.38135 -0.000980742 0)
(7.38359 -0.00202551 0)
(7.38587 -0.00317284 0)
(7.38819 -0.00443432 0)
(7.39054 -0.00581631 0)
(7.33303 0.000656766 0)
(7.33335 0.00194704 0)
(7.33405 0.00313963 0)
(7.33505 0.00418323 0)
(7.33627 0.00505549 0)
(7.33766 0.00575147 0)
(7.33918 0.00627718 0)
(7.3408 0.00664695 0)
(7.34247 0.00687846 0)
(7.34418 0.00698935 0)
(7.34593 0.00699595 0)
(7.34769 0.00691253 0)
(7.34946 0.00675104 0)
(7.35124 0.00652119 0)
(7.35302 0.00623073 0)
(7.35481 0.00588568 0)
(7.35661 0.00549059 0)
(7.35842 0.00504877 0)
(7.36024 0.00456245 0)
(7.36206 0.00403287 0)
(7.36391 0.0034603 0)
(7.36577 0.00284408 0)
(7.36766 0.00218253 0)
(7.36957 0.00147282 0)
(7.37152 0.00071096 0)
(7.37349 -0.000108383 0)
(7.37551 -0.000991851 0)
(7.37756 -0.00194732 0)
(7.37965 -0.00298366 0)
(7.38177 -0.0041103 0)
(7.38393 -0.00533653 0)
(7.38611 -0.006671 0)
(7.38831 -0.00811755 0)
(7.33303 0.000565574 0)
(7.33333 0.00167463 0)
(7.33398 0.00269752 0)
(7.3349 0.00359245 0)
(7.33604 0.00433941 0)
(7.33735 0.00493241 0)
(7.33879 0.00537494 0)
(7.34032 0.00567752 0)
(7.34192 0.00585401 0)
(7.34356 0.00591882 0)
(7.34524 0.00588557 0)
(7.34695 0.0057664 0)
(7.34867 0.00557161 0)
(7.3504 0.00530966 0)
(7.35214 0.00498732 0)
(7.35388 0.00460979 0)
(7.35564 0.00418097 0)
(7.3574 0.00370359 0)
(7.35918 0.00317934 0)
(7.36096 0.00260896 0)
(7.36276 0.00199227 0)
(7.36457 0.00132818 0)
(7.36641 0.000614688 0)
(7.36826 -0.00015121 0)
(7.37014 -0.000973521 0)
(7.37204 -0.00185726 0)
(7.37398 -0.00280842 0)
(7.37593 -0.0038338 0)
(7.37792 -0.00494075 0)
(7.37993 -0.00613676 0)
(7.38196 -0.00742897 0)
(7.384 -0.00882389 0)
(7.38605 -0.0103236 0)
(7.33303 0.000477953 0)
(7.33331 0.00141408 0)
(7.33391 0.00227496 0)
(7.33477 0.00302594 0)
(7.33584 0.00364931 0)
(7.33707 0.00413854 0)
(7.33843 0.0044952 0)
(7.33988 0.00472686 0)
(7.34141 0.00484425 0)
(7.34299 0.00485894 0)
(7.34461 0.00478213 0)
(7.34626 0.004624 0)
(7.34793 0.00439326 0)
(7.34961 0.00409714 0)
(7.3513 0.00374137 0)
(7.353 0.00333037 0)
(7.35471 0.00286735 0)
(7.35643 0.00235446 0)
(7.35815 0.00179287 0)
(7.35989 0.00118289 0)
(7.36164 0.000523939 0)
(7.3634 -0.000185353 0)
(7.36517 -0.000947206 0)
(7.36696 -0.00176466 0)
(7.36877 -0.00264157 0)
(7.37059 -0.00358255 0)
(7.37244 -0.00459289 0)
(7.3743 -0.00567837 0)
(7.37618 -0.006845 0)
(7.37807 -0.00809874 0)
(7.37997 -0.00944506 0)
(7.38187 -0.0108889 0)
(7.38377 -0.012431 0)
(7.33302 0.00039377 0)
(7.33329 0.00116429 0)
(7.33385 0.00186978 0)
(7.33466 0.00248108 0)
(7.33565 0.00298259 0)
(7.33681 0.00336766 0)
(7.3381 0.00363643 0)
(7.33949 0.00379422 0)
(7.34095 0.00384915 0)
(7.34247 0.00381037 0)
(7.34403 0.00368694 0)
(7.34562 0.00348719 0)
(7.34724 0.00321837 0)
(7.34887 0.00288644 0)
(7.35051 0.00249618 0)
(7.35216 0.00205117 0)
(7.35383 0.00155395 0)
(7.35549 0.00100609 0)
(7.35717 0.000408305 0)
(7.35885 -0.000239518 0)
(7.36054 -0.000938247 0)
(7.36224 -0.00168948 0)
(7.36395 -0.00249553 0)
(7.36567 -0.00335938 0)
(7.3674 -0.00428463 0)
(7.36914 -0.00527545 0)
(7.3709 -0.00633644 0)
(7.37266 -0.00747244 0)
(7.37443 -0.00868836 0)
(7.3762 -0.00998889 0)
(7.37797 -0.0113782 0)
(7.37974 -0.01286 0)
(7.3815 -0.0144342 0)
(7.33302 0.000312784 0)
(7.33327 0.000924188 0)
(7.3338 0.00148 0)
(7.33455 0.00195538 0)
(7.33549 0.00233665 0)
(7.33658 0.00261727 0)
(7.33781 0.00279642 0)
(7.33913 0.00287769 0)
(7.34053 0.0028671 0)
(7.34199 0.00277174 0)
(7.34349 0.0025988 0)
(7.34503 0.00235497 0)
(7.34659 0.00204608 0)
(7.34817 0.00167694 0)
(7.34977 0.00125135 0)
(7.35137 0.000772083 0)
(7.35298 0.000241021 0)
(7.3546 -0.000340816 0)
(7.35622 -0.000973176 0)
(7.35785 -0.00165652 0)
(7.35948 -0.00239197 0)
(7.36111 -0.00318127 0)
(7.36276 -0.00402677 0)
(7.3644 -0.0049313 0)
(7.36605 -0.0058982 0)
(7.36771 -0.00693117 0)
(7.36936 -0.00803415 0)
(7.37102 -0.0092112 0)
(7.37268 -0.0104663 0)
(7.37433 -0.011803 0)
(7.37598 -0.0132246 0)
(7.37761 -0.0147339 0)
(7.37922 -0.0163301 0)
(7.33302 0.000234708 0)
(7.33325 0.000692754 0)
(7.33375 0.00110387 0)
(7.33446 0.00144678 0)
(7.33534 0.00170952 0)
(7.33638 0.00188596 0)
(7.33754 0.00197467 0)
(7.33881 0.00197789 0)
(7.34015 0.00189992 0)
(7.34155 0.00174609 0)
(7.343 0.00152193 0)
(7.34449 0.0012326 0)
(7.346 0.000882615 0)
(7.34753 0.000475691 0)
(7.34907 1.46655e-05 0)
(7.35062 -0.000498445 0)
(7.35218 -0.00106241 0)
(7.35374 -0.00167673 0)
(7.35531 -0.00234156 0)
(7.35688 -0.00305768 0)
(7.35845 -0.00382639 0)
(7.36002 -0.00464955 0)
(7.36159 -0.00552945 0)
(7.36315 -0.00646879 0)
(7.36472 -0.00747057 0)
(7.36628 -0.00853806 0)
(7.36784 -0.00967461 0)
(7.3694 -0.0108836 0)
(7.37094 -0.0121681 0)
(7.37248 -0.0135311 0)
(7.37399 -0.014975 0)
(7.37549 -0.0165017 0)
(7.37696 -0.0181101 0)
(7.33302 0.000159237 0)
(7.33324 0.000468951 0)
(7.3337 0.000739522 0)
(7.33437 0.000952538 0)
(7.33521 0.0010976 0)
(7.3362 0.00116912 0)
(7.33731 0.00116529 0)
(7.33851 0.00108778 0)
(7.3398 0.000939448 0)
(7.34115 0.00072422 0)
(7.34255 0.000446211 0)
(7.34398 0.000109309 0)
(7.34544 -0.000283201 0)
(7.34692 -0.000728678 0)
(7.34842 -0.00122518 0)
(7.34992 -0.00177147 0)
(7.35142 -0.00236694 0)
(7.35293 -0.00301163 0)
(7.35444 -0.00370609 0)
(7.35595 -0.00445138 0)
(7.35745 -0.005249 0)
(7.35895 -0.00610088 0)
(7.36045 -0.00700924 0)
(7.36193 -0.00797663 0)
(7.36341 -0.00900576 0)
(7.36489 -0.0100995 0)
(7.36635 -0.0112606 0)
(7.36779 -0.012492 0)
(7.36923 -0.0137961 0)
(7.37064 -0.0151751 0)
(7.37203 -0.0166308 0)
(7.37339 -0.0181647 0)
(7.37473 -0.0197752 0)
(7.33302 8.61021e-05 0)
(7.33323 0.000252093 0)
(7.33366 0.00038624 0)
(7.3343 0.000472741 0)
(7.33509 0.000502821 0)
(7.33603 0.000471556 0)
(7.33709 0.000377264 0)
(7.33825 0.000220001 0)
(7.33949 2.05044e-06 0)
(7.34079 -0.000273963 0)
(7.34214 -0.000605309 0)
(7.34352 -0.000989342 0)
(7.34494 -0.00142389 0)
(7.34637 -0.00190729 0)
(7.34781 -0.00243841 0)
(7.34926 -0.00301671 0)
(7.35071 -0.00364215 0)
(7.35216 -0.00431521 0)
(7.35361 -0.00503678 0)
(7.35506 -0.00580815 0)
(7.35649 -0.00663096 0)
(7.35792 -0.00750713 0)
(7.35934 -0.00843884 0)
(7.36075 -0.00942843 0)
(7.36214 -0.0104783 0)
(7.36352 -0.0115911 0)
(7.36488 -0.012769 0)
(7.36622 -0.0140144 0)
(7.36754 -0.0153292 0)
(7.36883 -0.0167152 0)
(7.3701 -0.0181736 0)
(7.37133 -0.0197055 0)
(7.37254 -0.0213091 0)
(7.33302 1.495e-05 0)
(7.33321 4.05773e-05 0)
(7.33363 3.99311e-05 0)
(7.33423 -9.45703e-07 0)
(7.33499 -8.9242e-05 0)
(7.33589 -0.000228614 0)
(7.33691 -0.000420036 0)
(7.33802 -0.000663386 0)
(7.33921 -0.000956834 0)
(7.34047 -0.00129859 0)
(7.34177 -0.00168695 0)
(7.34311 -0.00212049 0)
(7.34448 -0.00259807 0)
(7.34586 -0.00311908 0)
(7.34725 -0.00368331 0)
(7.34865 -0.00429103 0)
(7.35005 -0.00494286 0)
(7.35144 -0.00563982 0)
(7.35283 -0.0063832 0)
(7.35421 -0.00717459 0)
(7.35558 -0.00801579 0)
(7.35694 -0.00890879 0)
(7.35828 -0.00985572 0)
(7.3596 -0.0108588 0)
(7.36091 -0.0119202 0)
(7.36219 -0.0130421 0)
(7.36345 -0.0142265 0)
(7.36468 -0.0154754 0)
(7.36589 -0.0167902 0)
(7.36707 -0.0181723 0)
(7.36821 -0.0196224 0)
(7.36932 -0.0211414 0)
(7.37039 -0.0227272 0)
(7.33302 -5.4112e-05 0)
(7.3332 -0.000163507 0)
(7.3336 -0.000291807 0)
(7.33417 -0.000450814 0)
(7.33489 -0.000646509 0)
(7.33575 -0.000882278 0)
(7.33673 -0.00115989 0)
(7.33781 -0.00147925 0)
(7.33896 -0.00184008 0)
(7.34017 -0.0022416 0)
(7.34144 -0.00268295 0)
(7.34273 -0.00316349 0)
(7.34406 -0.00368291 0)
(7.34539 -0.00424122 0)
(7.34674 -0.00483882 0)
(7.34809 -0.00547646 0)
(7.34944 -0.00615517 0)
(7.35078 -0.00687627 0)
(7.35211 -0.00764131 0)
(7.35342 -0.00845202 0)
(7.35472 -0.00931028 0)
(7.35601 -0.0102181 0)
(7.35727 -0.0111774 0)
(7.35851 -0.0121904 0)
(7.35973 -0.0132591 0)
(7.36091 -0.0143852 0)
(7.36208 -0.0155706 0)
(7.36321 -0.0168168 0)
(7.3643 -0.018125 0)
(7.36536 -0.0194961 0)
(7.36639 -0.0209309 0)
(7.36737 -0.0224296 0)
(7.36831 -0.0239903 0)
(7.33302 -0.000122389 0)
(7.33319 -0.000369928 0)
(7.33357 -0.000637409 0)
(7.33412 -0.000934774 0)
(7.33482 -0.00126379 0)
(7.33565 -0.00162342 0)
(7.3366 -0.00201221 0)
(7.33764 -0.0024289 0)
(7.33875 -0.00287296 0)
(7.33993 -0.00334438 0)
(7.34115 -0.00384363 0)
(7.34241 -0.00437162 0)
(7.34369 -0.00492954 0)
(7.34498 -0.00551886 0)
(7.34628 -0.0061412 0)
(7.34758 -0.00679837 0)
(7.34887 -0.00749227 0)
(7.35016 -0.0082249 0)
(7.35143 -0.00899829 0)
(7.35268 -0.00981455 0)
(7.35391 -0.0106758 0)
(7.35512 -0.011584 0)
(7.35631 -0.0125413 0)
(7.35747 -0.0135496 0)
(7.35859 -0.0146108 0)
(7.35969 -0.0157266 0)
(7.36075 -0.0168984 0)
(7.36178 -0.0181274 0)
(7.36277 -0.0194147 0)
(7.36372 -0.0207609 0)
(7.36462 -0.0221663 0)
(7.36548 -0.0236312 0)
(7.3663 -0.0251533 0)
(7.33301 -0.000185547 0)
(7.33317 -0.000547972 0)
(7.33352 -0.000914886 0)
(7.33404 -0.00129845 0)
(7.33471 -0.0017043 0)
(7.33551 -0.00213506 0)
(7.33643 -0.00259154 0)
(7.33745 -0.0030733 0)
(7.33854 -0.00357966 0)
(7.3397 -0.00411021 0)
(7.34089 -0.004665 0)
(7.34212 -0.00524451 0)
(7.34337 -0.00584969 0)
(7.34463 -0.00648184 0)
(7.34589 -0.00714258 0)
(7.34714 -0.00783374 0)
(7.34839 -0.0085573 0)
(7.34962 -0.00931537 0)
(7.35083 -0.0101101 0)
(7.35202 -0.0109436 0)
(7.35319 -0.0118181 0)
(7.35433 -0.0127357 0)
(7.35544 -0.0136983 0)
(7.35651 -0.0147078 0)
(7.35755 -0.0157661 0)
(7.35856 -0.0168746 0)
(7.35953 -0.0180346 0)
(7.36045 -0.0192473 0)
(7.36133 -0.0205135 0)
(7.36217 -0.0218337 0)
(7.36296 -0.023208 0)
(7.36371 -0.0246366 0)
(7.3644 -0.0261175 0)
(7.33302 -0.000259536 0)
(7.33319 -0.000795039 0)
(7.33355 -0.0013612 0)
(7.33406 -0.00195421 0)
(7.33471 -0.00255942 0)
(7.33548 -0.0031654 0)
(7.33637 -0.00376696 0)
(7.33736 -0.0043633 0)
(7.33841 -0.00495635 0)
(7.33953 -0.00554959 0)
(7.34069 -0.0061472 0)
(7.34188 -0.0067536 0)
(7.34308 -0.00737311 0)
(7.3443 -0.00800985 0)
(7.34552 -0.00866769 0)
(7.34672 -0.00935018 0)
(7.34792 -0.0100606 0)
(7.3491 -0.010802 0)
(7.35026 -0.0115772 0)
(7.35139 -0.0123887 0)
(7.35249 -0.0132388 0)
(7.35356 -0.0141299 0)
(7.3546 -0.0150638 0)
(7.35559 -0.0160423 0)
(7.35655 -0.0170669 0)
(7.35747 -0.0181391 0)
(7.35835 -0.0192599 0)
(7.35918 -0.0204301 0)
(7.35996 -0.0216503 0)
(7.36069 -0.0229208 0)
(7.36137 -0.0242416 0)
(7.362 -0.0256126 0)
(7.36258 -0.0270318 0)
(7.333 -0.000286256 0)
(7.3331 -0.000815188 0)
(7.33338 -0.00133319 0)
(7.33384 -0.00187629 0)
(7.33447 -0.00245602 0)
(7.33526 -0.00306985 0)
(7.33616 -0.00371018 0)
(7.33717 -0.00436903 0)
(7.33824 -0.00504046 0)
(7.33937 -0.00572098 0)
(7.34053 -0.00640915 0)
(7.34172 -0.00710516 0)
(7.34291 -0.00781036 0)
(7.34411 -0.00852686 0)
(7.3453 -0.0092573 0)
(7.34647 -0.0100046 0)
(7.34762 -0.0107717 0)
(7.34875 -0.0115616 0)
(7.34986 -0.0123772 0)
(7.35093 -0.0132213 0)
(7.35197 -0.0140966 0)
(7.35297 -0.0150053 0)
(7.35393 -0.0159498 0)
(7.35485 -0.0169319 0)
(7.35572 -0.0179535 0)
(7.35655 -0.019016 0)
(7.35734 -0.0201206 0)
(7.35807 -0.0212683 0)
(7.35875 -0.0224596 0)
(7.35938 -0.0236951 0)
(7.35996 -0.0249747 0)
(7.36048 -0.0262985 0)
(7.36094 -0.0276647 0)
(7.33305 -0.000452375 0)
(7.33328 -0.00142644 0)
(7.33363 -0.00245678 0)
(7.33409 -0.00347817 0)
(7.33467 -0.00443937 0)
(7.33538 -0.00532387 0)
(7.33621 -0.00613546 0)
(7.33714 -0.00688511 0)
(7.33815 -0.00758601 0)
(7.33922 -0.00825145 0)
(7.34033 -0.00889367 0)
(7.34147 -0.00952346 0)
(7.34263 -0.01015 0)
(7.34379 -0.010781 0)
(7.34494 -0.0114229 0)
(7.34607 -0.0120811 0)
(7.34719 -0.0127601 0)
(7.34828 -0.0134638 0)
(7.34934 -0.0141953 0)
(7.35036 -0.0149576 0)
(7.35135 -0.0157529 0)
(7.35229 -0.0165834 0)
(7.35319 -0.0174507 0)
(7.35404 -0.0183563 0)
(7.35485 -0.0193015 0)
(7.3556 -0.0202872 0)
(7.3563 -0.0213142 0)
(7.35695 -0.0223829 0)
(7.35754 -0.0234936 0)
(7.35808 -0.0246463 0)
(7.35856 -0.0258408 0)
(7.35898 -0.0270768 0)
(7.35935 -0.0283524 0)
(7.33293 -0.000202726 0)
(7.33282 -0.000515597 0)
(7.33295 -0.000884635 0)
(7.33339 -0.00143791 0)
(7.33407 -0.00216435 0)
(7.33493 -0.00300542 0)
(7.33592 -0.00390836 0)
(7.33699 -0.00483623 0)
(7.33811 -0.00576581 0)
(7.33926 -0.00668367 0)
(7.34043 -0.0075834 0)
(7.34161 -0.00846344 0)
(7.34277 -0.00932533 0)
(7.34392 -0.0101724 0)
(7.34506 -0.0110091 0)
(7.34616 -0.0118402 0)
(7.34723 -0.0126706 0)
(7.34827 -0.0135049 0)
(7.34927 -0.0143475 0)
(7.35023 -0.0152026 0)
(7.35114 -0.0160739 0)
(7.35201 -0.0169646 0)
(7.35283 -0.0178777 0)
(7.3536 -0.0188156 0)
(7.35432 -0.0197807 0)
(7.35499 -0.0207746 0)
(7.3556 -0.0217989 0)
(7.35615 -0.0228547 0)
(7.35665 -0.0239429 0)
(7.35709 -0.025064 0)
(7.35746 -0.0262183 0)
(7.35778 -0.0274058 0)
(7.35804 -0.0286251 0)
(7.33316 -0.000897229 0)
(7.33361 -0.00296698 0)
(7.3339 -0.00499921 0)
(7.33415 -0.00673546 0)
(7.33452 -0.00812975 0)
(7.33508 -0.00924427 0)
(7.33582 -0.0101483 0)
(7.33669 -0.0108989 0)
(7.33767 -0.0115426 0)
(7.33873 -0.0121159 0)
(7.33984 -0.0126465 0)
(7.34097 -0.013155 0)
(7.34211 -0.0136568 0)
(7.34325 -0.0141628 0)
(7.34438 -0.0146812 0)
(7.34548 -0.0152179 0)
(7.34654 -0.0157773 0)
(7.34757 -0.0163628 0)
(7.34856 -0.0169767 0)
(7.3495 -0.0176211 0)
(7.35039 -0.0182974 0)
(7.35124 -0.0190067 0)
(7.35202 -0.0197499 0)
(7.35275 -0.0205277 0)
(7.35343 -0.0213405 0)
(7.35404 -0.0221887 0)
(7.3546 -0.0230724 0)
(7.35509 -0.0239915 0)
(7.35552 -0.024946 0)
(7.35589 -0.0259354 0)
(7.3562 -0.0269593 0)
(7.35644 -0.0280172 0)
(7.35662 -0.0291075 0)
(7.33266 0.000502798 0)
(7.33187 0.00168953 0)
(7.33188 0.00225941 0)
(7.33256 0.00187612 0)
(7.33357 0.00085169 0)
(7.33472 -0.00049459 0)
(7.33593 -0.00196814 0)
(7.33716 -0.00346463 0)
(7.33839 -0.00492571 0)
(7.33961 -0.00631999 0)
(7.3408 -0.00763494 0)
(7.34197 -0.00886957 0)
(7.3431 -0.0100291 0)
(7.3442 -0.0111219 0)
(7.34526 -0.0121578 0)
(7.34628 -0.0131466 0)
(7.34726 -0.0140979 0)
(7.34819 -0.0150206 0)
(7.34908 -0.0159227 0)
(7.34992 -0.0168112 0)
(7.35071 -0.0176923 0)
(7.35145 -0.0185716 0)
(7.35214 -0.0194537 0)
(7.35277 -0.0203425 0)
(7.35334 -0.0212415 0)
(7.35385 -0.0221534 0)
(7.35431 -0.0230808 0)
(7.3547 -0.0240253 0)
(7.35504 -0.0249885 0)
(7.35531 -0.0259715 0)
(7.35551 -0.026975 0)
(7.35566 -0.0279994 0)
(7.35574 -0.0290441 0)
(7.33352 -0.00205002 0)
(7.3344 -0.00693051 0)
(7.33398 -0.0114664 0)
(7.33324 -0.0143193 0)
(7.333 -0.0159906 0)
(7.33328 -0.0169771 0)
(7.33393 -0.0175337 0)
(7.33483 -0.0178323 0)
(7.33588 -0.0179908 0)
(7.33705 -0.0180852 0)
(7.33827 -0.0181637 0)
(7.33951 -0.0182553 0)
(7.34075 -0.0183772 0)
(7.34197 -0.0185386 0)
(7.34316 -0.0187443 0)
(7.34431 -0.0189961 0)
(7.34541 -0.019294 0)
(7.34645 -0.0196372 0)
(7.34744 -0.0200243 0)
(7.34837 -0.0204538 0)
(7.34924 -0.0209241 0)
(7.35005 -0.0214338 0)
(7.35079 -0.0219815 0)
(7.35147 -0.0225658 0)
(7.35208 -0.0231856 0)
(7.35263 -0.0238397 0)
(7.35311 -0.024527 0)
(7.35352 -0.0252466 0)
(7.35387 -0.0259975 0)
(7.35415 -0.0267788 0)
(7.35436 -0.0275894 0)
(7.3545 -0.0284287 0)
(7.35458 -0.0292948 0)
(7.33179 0.00337646 0)
(7.32901 0.00916416 0)
(7.32948 0.0117578 0)
(7.33177 0.0114426 0)
(7.33382 0.00930653 0)
(7.33553 0.00656867 0)
(7.33706 0.00372968 0)
(7.33844 0.000974856 0)
(7.33969 -0.00159513 0)
(7.34086 -0.00393816 0)
(7.34196 -0.00605162 0)
(7.34301 -0.00795083 0)
(7.34401 -0.00965822 0)
(7.34498 -0.0111985 0)
(7.34593 -0.0125961 0)
(7.34684 -0.0138734 0)
(7.34772 -0.0150506 0)
(7.34856 -0.0161455 0)
(7.34938 -0.0171732 0)
(7.35015 -0.0181469 0)
(7.35089 -0.0190777 0)
(7.35158 -0.019975 0)
(7.35222 -0.020847 0)
(7.35282 -0.0217003 0)
(7.35336 -0.0225406 0)
(7.35385 -0.0233728 0)
(7.35429 -0.0242007 0)
(7.35467 -0.0250277 0)
(7.35498 -0.0258565 0)
(7.35524 -0.0266891 0)
(7.35543 -0.0275272 0)
(7.35557 -0.0283719 0)
(7.35563 -0.0292237 0)
(7.33408 -0.00614755 0)
(7.33403 -0.0190197 0)
(7.33024 -0.027113 0)
(7.32656 -0.0306659 0)
(7.32495 -0.0314612 0)
(7.32515 -0.031059 0)
(7.32618 -0.0301277 0)
(7.32762 -0.0289889 0)
(7.32932 -0.0278407 0)
(7.33117 -0.0267871 0)
(7.33309 -0.0258725 0)
(7.33501 -0.0251113 0)
(7.33691 -0.0245025 0)
(7.33877 -0.0240371 0)
(7.34057 -0.0237026 0)
(7.34232 -0.0234855 0)
(7.34399 -0.0233724 0)
(7.3456 -0.0233514 0)
(7.34713 -0.0234117 0)
(7.34858 -0.0235436 0)
(7.34995 -0.0237391 0)
(7.35125 -0.0239912 0)
(7.35246 -0.0242939 0)
(7.35359 -0.0246421 0)
(7.35465 -0.0250316 0)
(7.35562 -0.0254587 0)
(7.3565 -0.0259202 0)
(7.35731 -0.0264136 0)
(7.35804 -0.0269363 0)
(7.35868 -0.0274865 0)
(7.35924 -0.0280623 0)
(7.35973 -0.0286624 0)
(7.36014 -0.0292847 0)
(7.32967 0.0198502 0)
(7.32497 0.0369765 0)
(7.3293 0.0376593 0)
(7.33508 0.0322336 0)
(7.33869 0.0258052 0)
(7.34083 0.0194739 0)
(7.34261 0.0135496 0)
(7.34431 0.00823811 0)
(7.34601 0.00358549 0)
(7.34779 -0.000454673 0)
(7.34965 -0.00395135 0)
(7.3516 -0.00697601 0)
(7.35361 -0.00959756 0)
(7.35566 -0.0118785 0)
(7.35774 -0.0138734 0)
(7.35983 -0.0156286 0)
(7.3619 -0.0171836 0)
(7.36395 -0.0185715 0)
(7.36595 -0.0198201 0)
(7.36791 -0.0209527 0)
(7.3698 -0.0219886 0)
(7.37162 -0.0229443 0)
(7.37337 -0.0238332 0)
(7.37503 -0.024667 0)
(7.37661 -0.0254551 0)
(7.3781 -0.0262058 0)
(7.3795 -0.0269258 0)
(7.3808 -0.027621 0)
(7.38201 -0.0282962 0)
(7.38313 -0.0289556 0)
(7.38415 -0.0296028 0)
(7.38507 -0.0302403 0)
(7.38589 -0.0308717 0)
(7.32507 -0.0330909 0)
(7.29737 -0.0587992 0)
(7.27804 -0.0617601 0)
(7.27373 -0.0594192 0)
(7.28034 -0.0559521 0)
(7.29179 -0.0519321 0)
(7.30504 -0.0480103 0)
(7.31876 -0.0445227 0)
(7.33219 -0.041519 0)
(7.34493 -0.0389818 0)
(7.3568 -0.0368741 0)
(7.36775 -0.0351443 0)
(7.3778 -0.0337387 0)
(7.38697 -0.0326078 0)
(7.39533 -0.0317084 0)
(7.40294 -0.0310033 0)
(7.40984 -0.0304609 0)
(7.4161 -0.0300551 0)
(7.42176 -0.0297642 0)
(7.42688 -0.0295702 0)
(7.4315 -0.0294584 0)
(7.43566 -0.0294166 0)
(7.43939 -0.0294348 0)
(7.44272 -0.0295047 0)
(7.44569 -0.0296194 0)
(7.44831 -0.0297731 0)
(7.45062 -0.0299611 0)
(7.45264 -0.0301792 0)
(7.45438 -0.0304241 0)
(7.45586 -0.0306926 0)
(7.4571 -0.0309823 0)
(7.45812 -0.0312905 0)