/*--------------------------------*- C++ -*----------------------------------*\
  =========                 |
  \\      /  F ield         | OpenFOAM: The Open Source CFD Toolbox
   \\    /   O peration     | Website:  https://openfoam.org
    \\  /    A nd           | Version:  10
     \\/     M anipulation  |
\*---------------------------------------------------------------------------*/
FoamFile
{
    format      ascii;
    class       volScalarField;
    location    "1100";
    object      nut;
}
// * * * * * * * * * * * * * * * * * * * * * * * * * * * * * * * * * * * * * //

dimensions      [0 2 -1 0 0 0 0];

internalField   nonuniform List<scalar> 
6820
(
5.21161e-05
7.23496e-05
8.49506e-05
9.15131e-05
9.44881e-05
9.54259e-05
9.5224e-05
9.44044e-05
9.32791e-05
9.20325e-05
9.07694e-05
8.9546e-05
8.83905e-05
8.73146e-05
8.63208e-05
8.54064e-05
8.45665e-05
8.37952e-05
8.30862e-05
8.24337e-05
8.18319e-05
8.1276e-05
8.07612e-05
8.02836e-05
7.98394e-05
7.94255e-05
7.90388e-05
7.86768e-05
7.83359e-05
7.80192e-05
7.76975e-05
7.74971e-05
7.65889e-05
0.00148779
0.000914493
0.000722323
0.000566086
0.000444965
0.000364554
0.000311028
0.000273876
0.000246823
0.000226542
0.000210742
0.000198386
0.000188225
0.000179921
0.000173043
0.000167268
0.000162375
0.000158201
0.000154618
0.000151527
0.000148847
0.000146516
0.000144481
0.0001427
0.000141136
0.000139761
0.000138546
0.000137476
0.000136513
0.000135666
0.000134886
0.000134241
0.000133421
0.00388235
0.00172611
0.00129522
0.00105715
0.000883653
0.000756982
0.000663656
0.000593356
0.000538663
0.00049523
0.000459793
0.000430501
0.000405787
0.000384676
0.000366437
0.000350537
0.00033655
0.00032417
0.000313134
0.000303255
0.000294361
0.00028633
0.000279044
0.000272419
0.000266375
0.000260843
0.00025577
0.000251106
0.000246804
0.000242841
0.000239126
0.000235719
0.000232412
0.00701486
0.0030933
0.00211865
0.00169399
0.00142842
0.00124177
0.00110356
0.000997707
0.000914036
0.000846515
0.000790842
0.000744244
0.000704627
0.00067054
0.000640856
0.000614798
0.00059169
0.000571093
0.000552563
0.000535857
0.000520649
0.000506821
0.000494102
0.00048247
0.000471667
0.000461753
0.000452451
0.000443907
0.000435795
0.000428355
0.00042118
0.000414631
0.00040818
0.00947863
0.00539464
0.00361892
0.00279676
0.00231358
0.00199145
0.00176049
0.00158676
0.00145105
0.00134224
0.00125305
0.0011787
0.00111573
0.00106176
0.00101494
0.000973976
0.000937768
0.000905591
0.000876724
0.000850759
0.000827178
0.000805769
0.000786122
0.000768156
0.000751512
0.00073621
0.00072191
0.000708708
0.000696266
0.000684735
0.000673773
0.000663576
0.000653788
0.0106282
0.0077634
0.00561756
0.00439956
0.00363522
0.00311496
0.00273997
0.0024579
0.00223822
0.00206258
0.00191909
0.00179982
0.00169916
0.00161316
0.00153881
0.00147397
0.00141689
0.00136632
0.00132114
0.00128061
0.00124396
0.00121076
0.00118045
0.00115276
0.00112725
0.0011038
0.00108203
0.00106189
0.00104308
0.00102558
0.00100912
0.000993729
0.000979158
0.0110845
0.00948062
0.00757881
0.00621462
0.00525
0.00454844
0.00402207
0.00361581
0.00329415
0.00303404
0.00281986
0.00264081
0.0024891
0.00235911
0.00224655
0.00214826
0.00206171
0.001985
0.00191653
0.00185511
0.00179967
0.00174945
0.0017037
0.00166192
0.00162356
0.00158827
0.00155565
0.00152546
0.00149738
0.00147124
0.0014468
0.00142393
0.00140242
0.0112619
0.0104723
0.00911496
0.00788286
0.00688557
0.00609514
0.00546645
0.00496065
0.00454794
0.00420654
0.00392048
0.00367801
0.0034703
0.00329072
0.00313412
0.00299655
0.00287483
0.00276649
0.00266949
0.00258223
0.00250332
0.00243168
0.00236636
0.00230661
0.00225173
0.0022012
0.00215451
0.00211126
0.00207106
0.00203365
0.0019987
0.00196601
0.00193535
0.0113319
0.0109613
0.0101483
0.00919368
0.00831236
0.00754597
0.00689415
0.00634289
0.00587565
0.00547744
0.00513576
0.00484048
0.00458348
0.0043583
0.00415971
0.00398356
0.00382644
0.00368559
0.00355871
0.00344394
0.00333968
0.00324464
0.00315767
0.00307786
0.00300437
0.00293652
0.00287371
0.00281541
0.00276117
0.00271061
0.00266335
0.00261912
0.00257762
0.0113604
0.011191
0.0107577
0.0101061
0.00941912
0.00876179
0.00816143
0.00762515
0.00715071
0.0067323
0.00636312
0.00603663
0.00574692
0.00548886
0.00525806
0.00505083
0.00486401
0.00469496
0.00454145
0.00440155
0.00427366
0.00415638
0.00404852
0.00394905
0.00385709
0.00377187
0.0036927
0.003619
0.00355025
0.00348599
0.00342582
0.00336939
0.00331639
0.0113724
0.0112961
0.0110835
0.0106835
0.0102001
0.00969075
0.00919015
0.00871656
0.00827792
0.00787638
0.00751102
0.00717947
0.00687877
0.00660587
0.00635782
0.00613193
0.00592576
0.00573715
0.00556418
0.00540518
0.00525867
0.00512338
0.00499815
0.004882
0.00477404
0.00467351
0.00457972
0.00449205
0.00440997
0.004333
0.00426072
0.00419274
0.00412873
0.0113776
0.0113432
0.0112429
0.0110225
0.0107093
0.010347
0.00996381
0.0095792
0.00920549
0.00884962
0.00851496
0.0082027
0.00791267
0.007644
0.0073954
0.00716543
0.00695262
0.00675551
0.00657276
0.0064031
0.00624538
0.00609854
0.00596163
0.00583378
0.00571423
0.00560227
0.00549727
0.00539867
0.00530595
0.00521865
0.00513637
0.00505872
0.00498537
0.01138
0.0113641
0.0113177
0.0112066
0.0110186
0.0107798
0.0105077
0.0102177
0.00992165
0.00962789
0.0093419
0.00906704
0.00880518
0.0085572
0.00832327
0.00810316
0.00789638
0.00770227
0.00752011
0.00734915
0.00718865
0.00703788
0.00689615
0.00676281
0.00663727
0.00651895
0.00640735
0.00630198
0.0062024
0.00610821
0.00601905
0.00593458
0.00585449
0.0113814
0.0113732
0.0113518
0.0112994
0.0111948
0.0110479
0.0108673
0.0106628
0.0104433
0.010216
0.00998659
0.00975918
0.00953663
0.00932089
0.00911314
0.00891408
0.00872401
0.00854299
0.00837089
0.00820745
0.00805236
0.00790524
0.00776571
0.00763336
0.00750781
0.00738867
0.00727556
0.00716813
0.00706604
0.00696899
0.00687668
0.00678883
0.00670519
0.0113823
0.0113772
0.011367
0.0113426
0.0112898
0.0112045
0.0110919
0.0109563
0.0108031
0.0106375
0.010464
0.0102863
0.0101076
0.00992993
0.00975513
0.00958437
0.0094185
0.00925805
0.00910337
0.00895461
0.0088118
0.00867492
0.00854383
0.0084184
0.00829842
0.00818371
0.00807405
0.00796922
0.00786901
0.0077732
0.00768158
0.00759397
0.00751016
0.0113826
0.0113796
0.0113738
0.0113622
0.0113373
0.011291
0.0112247
0.0111398
0.0110388
0.0109247
0.0108005
0.0106691
0.0105329
0.0103941
0.0102543
0.010115
0.00997717
0.00984165
0.00970905
0.00957979
0.00945418
0.00933241
0.0092146
0.00910079
0.00899098
0.00888512
0.00878317
0.00868502
0.00859057
0.00849973
0.00841237
0.00832837
0.00824761
0.0113825
0.0113808
0.0113772
0.011371
0.0113592
0.0113362
0.0112992
0.0112488
0.0111857
0.0111111
0.0110267
0.0109344
0.0108358
0.0107325
0.0106261
0.0105178
0.0104085
0.0102992
0.0101906
0.0100832
0.00997743
0.00987368
0.00977219
0.00967315
0.00957669
0.0094829
0.00939182
0.00930349
0.00921788
0.009135
0.0090548
0.00897724
0.00890226
0.0113825
0.0113812
0.0113791
0.0113752
0.0113691
0.0113581
0.0113388
0.0113103
0.0112727
0.0112264
0.0111719
0.0111101
0.0110421
0.0109689
0.0108916
0.0108111
0.0107284
0.0106441
0.0105589
0.0104734
0.0103881
0.0103033
0.0102194
0.0101366
0.0100552
0.00997526
0.00989698
0.00982044
0.0097457
0.00967282
0.00960183
0.00953274
0.00946555
0.0113825
0.0113813
0.0113798
0.0113776
0.0113737
0.011368
0.0113586
0.0113433
0.0113219
0.0112944
0.0112608
0.0112213
0.0111765
0.011127
0.0110734
0.0110162
0.0109562
0.010894
0.01083
0.0107647
0.0106987
0.0106321
0.0105654
0.0104989
0.0104327
0.0103672
0.0103023
0.0102384
0.0101754
0.0101136
0.0100529
0.00999342
0.00993522
0.0113824
0.0113813
0.01138
0.0113785
0.0113762
0.0113727
0.0113676
0.0113599
0.0113483
0.0113326
0.0113127
0.0112886
0.0112604
0.0112283
0.0111927
0.0111538
0.0111121
0.011068
0.0110219
0.0109741
0.0109249
0.0108746
0.0108236
0.0107721
0.0107203
0.0106683
0.0106165
0.0105649
0.0105136
0.0104628
0.0104126
0.010363
0.0103142
0.0113824
0.0113813
0.0113801
0.0113788
0.0113773
0.0113751
0.0113721
0.0113676
0.0113616
0.0113531
0.0113418
0.0113275
0.0113104
0.0112904
0.0112677
0.0112423
0.0112145
0.0111844
0.0111524
0.0111186
0.0110833
0.0110467
0.011009
0.0109704
0.0109311
0.0108913
0.0108512
0.0108108
0.0107702
0.0107297
0.0106894
0.0106492
0.0106092
0.0113824
0.0113812
0.0113801
0.0113789
0.0113776
0.0113761
0.0113742
0.0113716
0.011368
0.0113633
0.0113572
0.0113489
0.0113389
0.0113268
0.0113127
0.0112967
0.0112787
0.0112588
0.0112373
0.0112141
0.0111895
0.0111636
0.0111365
0.0111083
0.0110793
0.0110495
0.0110191
0.0109882
0.0109568
0.0109252
0.0108933
0.0108613
0.0108293
0.0113824
0.0113812
0.0113801
0.0113789
0.0113778
0.0113765
0.0113751
0.0113734
0.0113712
0.0113684
0.0113646
0.01136
0.0113543
0.011347
0.0113384
0.0113284
0.0113169
0.0113039
0.0112896
0.0112739
0.0112569
0.0112387
0.0112193
0.011199
0.0111776
0.0111555
0.0111325
0.011109
0.0110848
0.0110601
0.011035
0.0110096
0.010984
0.0113824
0.0113812
0.0113801
0.0113789
0.0113778
0.0113766
0.0113754
0.0113741
0.0113726
0.0113707
0.0113683
0.0113653
0.0113615
0.0113571
0.0113517
0.0113452
0.0113376
0.0113288
0.0113189
0.0113078
0.0112957
0.0112824
0.0112681
0.0112528
0.0112366
0.0112195
0.0112017
0.0111831
0.0111638
0.011144
0.0111236
0.0111028
0.0110815
0.0113824
0.0113812
0.0113801
0.0113789
0.0113778
0.0113767
0.0113755
0.0113743
0.011373
0.0113715
0.0113696
0.0113674
0.0113644
0.0113609
0.011357
0.0113521
0.0113461
0.0113392
0.0113314
0.0113225
0.0113126
0.0113017
0.0112898
0.011277
0.0112633
0.0112488
0.0112334
0.0112173
0.0112006
0.0111832
0.0111652
0.0111467
0.0111278
0.0113824
0.0113812
0.0113801
0.0113789
0.0113778
0.0113766
0.0113755
0.0113742
0.0113729
0.0113712
0.0113693
0.0113668
0.0113637
0.0113601
0.011356
0.0113507
0.0113446
0.0113375
0.0113294
0.0113204
0.0113103
0.0112992
0.0112872
0.0112743
0.0112604
0.0112458
0.0112303
0.0112141
0.0111972
0.0111797
0.0111617
0.0111431
0.0111241
0.0113824
0.0113812
0.0113801
0.0113789
0.0113778
0.0113766
0.0113753
0.0113738
0.0113719
0.0113697
0.0113669
0.0113633
0.0113591
0.0113538
0.0113475
0.0113402
0.0113317
0.0113221
0.0113114
0.0112996
0.0112867
0.0112727
0.0112577
0.0112418
0.011225
0.0112073
0.0111889
0.0111698
0.0111501
0.0111298
0.011109
0.0110878
0.0110661
0.0113824
0.0113812
0.0113801
0.0113789
0.0113777
0.0113763
0.0113745
0.0113723
0.0113693
0.0113655
0.0113608
0.0113545
0.0113468
0.0113377
0.0113272
0.0113151
0.0113015
0.0112865
0.01127
0.0112523
0.0112333
0.0112132
0.011192
0.0111699
0.0111468
0.0111231
0.0110986
0.0110735
0.0110479
0.0110219
0.0109955
0.0109688
0.0109419
0.0113824
0.0113813
0.0113801
0.0113789
0.0113773
0.0113753
0.0113724
0.0113683
0.011363
0.0113555
0.0113458
0.0113338
0.0113196
0.0113031
0.0112845
0.0112637
0.0112409
0.0112163
0.01119
0.0111622
0.0111331
0.0111028
0.0110715
0.0110393
0.0110063
0.0109728
0.0109388
0.0109044
0.0108698
0.0108349
0.0108
0.0107651
0.0107302
0.0113825
0.0113813
0.0113801
0.0113784
0.011376
0.0113722
0.0113667
0.0113583
0.0113461
0.0113304
0.0113111
0.0112881
0.0112616
0.0112318
0.011199
0.0111635
0.0111257
0.0110857
0.011044
0.0110009
0.0109565
0.0109111
0.0108651
0.0108185
0.0107716
0.0107245
0.0106773
0.0106303
0.0105834
0.0105368
0.0104906
0.0104448
0.0103996
0.0113825
0.0113814
0.0113798
0.0113765
0.011372
0.011364
0.0113499
0.0113298
0.0113037
0.0112714
0.0112333
0.0111899
0.0111418
0.0110896
0.0110339
0.0109753
0.0109144
0.0108517
0.0107878
0.0107229
0.0106575
0.0105919
0.0105263
0.010461
0.0103962
0.010332
0.0102686
0.010206
0.0101444
0.0100837
0.0100242
0.0099658
0.00990853
0.0113826
0.011381
0.0113775
0.0113716
0.0113594
0.0113357
0.0113013
0.0112563
0.0112012
0.0111371
0.0110652
0.0109869
0.0109036
0.0108164
0.0107263
0.0106345
0.0105415
0.0104482
0.010355
0.0102625
0.0101709
0.0100807
0.00999191
0.00990485
0.0098196
0.00973626
0.0096549
0.00957556
0.00949825
0.00942298
0.00934974
0.00927851
0.00920925
0.0113825
0.0113788
0.0113715
0.0113527
0.0113123
0.0112512
0.0111713
0.0110751
0.0109656
0.0108458
0.0107187
0.0105868
0.0104521
0.0103163
0.0101807
0.0100464
0.0099142
0.00978461
0.0096581
0.00953494
0.00941533
0.00929938
0.00918713
0.0090786
0.00897374
0.0088725
0.00877479
0.00868053
0.0085896
0.00850191
0.00841733
0.00833576
0.00825708
0.0113813
0.0113725
0.0113445
0.0112755
0.0111624
0.0110161
0.0108447
0.0106562
0.0104574
0.0102539
0.0100496
0.00984759
0.00964987
0.00945783
0.00927233
0.00909388
0.00892271
0.00875888
0.00860229
0.00845278
0.00831011
0.00817402
0.00804421
0.00792039
0.00780226
0.00768953
0.00758191
0.00747912
0.00738091
0.00728701
0.0071972
0.00711125
0.00702895
0.0113782
0.0113392
0.0112229
0.0110038
0.0107266
0.0104167
0.0100938
0.00977088
0.00945631
0.00915473
0.00886847
0.00859844
0.00834473
0.0081069
0.00788423
0.00767584
0.0074808
0.00729817
0.00712704
0.00696653
0.00681584
0.00667422
0.00654096
0.00641543
0.00629704
0.00618527
0.00607961
0.00597963
0.00588492
0.0057951
0.00570983
0.0056288
0.00555172
0.0113586
0.011167
0.0107276
0.0101788
0.00961591
0.00907913
0.00858445
0.00813532
0.00773015
0.00736507
0.0070357
0.00673806
0.00646846
0.00622361
0.00600061
0.00579694
0.00561039
0.00543907
0.0052813
0.00513565
0.00500085
0.00487581
0.00475957
0.00465127
0.00455016
0.0044556
0.004367
0.00428383
0.00420563
0.004132
0.00406256
0.00399697
0.00393495
0.0112033
0.010286
0.00914596
0.00815385
0.00734259
0.00668178
0.00613782
0.00568277
0.00529722
0.00496617
0.00467942
0.0044291
0.00420901
0.00401425
0.00384087
0.00368569
0.0035461
0.00341996
0.00330548
0.00320118
0.0031058
0.00301828
0.00293771
0.00286334
0.00279448
0.00273057
0.00267111
0.00261566
0.00256384
0.00251531
0.00246977
0.00242697
0.00238668
0.00988212
0.00703463
0.00556295
0.00467247
0.00408052
0.00363708
0.00328471
0.0029951
0.00275426
0.00255229
0.00238143
0.00223562
0.00211012
0.00200124
0.00190603
0.00182219
0.00174785
0.00168155
0.00162207
0.00156843
0.00151982
0.00147559
0.00143516
0.00139808
0.00136394
0.00133242
0.00130323
0.00127611
0.00125086
0.00122729
0.00120523
0.00118456
0.00116514
0.00388335
0.00236715
0.00190983
0.00162451
0.00144088
0.0012837
0.00115041
0.00104218
0.000954483
0.000882867
0.000823743
0.000774363
0.00073264
0.000697014
0.000666295
0.000639586
0.000616175
0.000595518
0.000577169
0.000560784
0.000546068
0.000532798
0.00052077
0.000509835
0.000499845
0.000490702
0.000482292
0.00047455
0.000467386
0.000460761
0.000454595
0.000448871
0.000443515
0.000128162
0.00013943
0.0001503
0.000159954
0.000168408
0.000175845
0.000182401
0.000188179
0.000193265
0.000197736
0.000201662
0.000205105
0.00020812
0.000210755
0.000213053
0.000215055
0.000216795
0.000218302
0.000219604
0.000220726
0.000221688
0.000222509
0.000223205
0.000223792
0.000224282
0.000224687
0.000225016
0.000225279
0.000225484
0.000225637
0.000225745
0.000225813
0.000225846
8.47007e-05
9.98628e-05
0.000125407
0.000160329
0.00020196
0.000247275
0.000293992
0.000340611
0.00038606
0.000429681
0.000470679
0.00050881
0.000544337
0.000577713
0.000609517
0.000640225
0.000670288
0.000699875
0.000729196
0.000758219
0.000786944
0.000815331
0.000843444
0.000871287
0.00089894
0.000926495
0.000953982
0.000981438
0.00100887
0.00103631
0.00106375
0.00109119
0.00111889
0.00114668
0.00117451
0.00120238
0.00123029
0.00125829
0.00128636
0.00131462
0.00134317
0.00137204
0.00140128
0.00143098
0.00146124
0.00149219
0.00152398
0.00155676
0.00159071
0.00162601
0.00166285
0.00170147
0.00174209
0.00178493
0.00183022
0.00187821
0.00192911
0.00198313
0.00204047
0.00210129
0.00216572
0.00223386
0.00230577
0.00238144
0.00246085
0.00254389
0.00263044
0.00272029
0.00281324
0.00290898
0.00300727
0.00310771
0.00321005
0.00331378
0.00341873
0.00352428
0.00363032
0.00373628
0.00384182
0.00394668
0.00405043
0.00415275
0.0042532
0.00435169
0.0044478
0.00454131
0.00463196
0.0047196
0.00480393
0.00488504
0.00496232
0.00503651
0.00510619
0.00517343
0.00523431
0.00529601
0.00534578
0.00540605
0.00543974
0.00550924
0.000133068
0.000134144
0.000137068
0.000144222
0.00015556
0.000170609
0.000189225
0.000210717
0.000235762
0.000264391
0.000295314
0.000328876
0.000364579
0.000401454
0.000438766
0.000475874
0.000512457
0.000548116
0.000583017
0.000616806
0.0006496
0.000681469
0.000712663
0.000743185
0.000773195
0.000802837
0.000832128
0.00086115
0.000889962
0.00091864
0.000947243
0.000975786
0.00100436
0.00103302
0.00106178
0.00109066
0.0011197
0.00114895
0.00117843
0.00120823
0.00123841
0.00126908
0.00130032
0.00133222
0.00136491
0.00139852
0.00143319
0.0014691
0.00150641
0.00154532
0.00158603
0.00162873
0.00167366
0.00172103
0.00177105
0.00182393
0.00187986
0.00193901
0.00200155
0.00206758
0.00213719
0.00221043
0.00228729
0.00236772
0.00245164
0.00253888
0.0026293
0.00272263
0.00281866
0.00291707
0.0030176
0.00311986
0.00322361
0.00332837
0.00343404
0.00353996
0.00364622
0.0037521
0.00385742
0.00396201
0.0040654
0.00416729
0.00426732
0.0043655
0.00446133
0.00455464
0.0046452
0.00473287
0.00481735
0.00489872
0.0049764
0.0050511
0.00512147
0.00518922
0.00525122
0.00531327
0.00536505
0.00542463
0.00546207
0.00553156
0.000228916
0.000225009
0.000220698
0.000217086
0.00021526
0.000215529
0.000218004
0.000222438
0.000229061
0.000238631
0.000251441
0.000267942
0.000288121
0.000311562
0.000337785
0.000366282
0.000396449
0.000427987
0.000460891
0.000493019
0.000525562
0.000558298
0.000591119
0.000623323
0.000655358
0.000687028
0.000718126
0.00074888
0.000779366
0.000809697
0.000839894
0.000870028
0.000900158
0.000930353
0.000960676
0.000991196
0.00102197
0.00105308
0.0010846
0.00111659
0.00114916
0.00118241
0.00121643
0.00125137
0.00128733
0.00132448
0.00136295
0.00140292
0.00144456
0.00148806
0.00153362
0.00158142
0.00163166
0.00168454
0.00174023
0.00179891
0.00186073
0.00192581
0.00199424
0.00206608
0.00214135
0.00222002
0.00230203
0.00238727
0.00247559
0.00256678
0.00266065
0.0027569
0.00285533
0.00295556
0.00305739
0.00316041
0.00326446
0.00336902
0.00347417
0.00357912
0.00368432
0.00378872
0.00389249
0.0039955
0.00409718
0.00419732
0.00429566
0.00439235
0.00448671
0.00457871
0.00466812
0.00475481
0.0048385
0.00491925
0.00499651
0.00507098
0.00514133
0.00520889
0.00527146
0.00533324
0.00538666
0.00544488
0.00548586
0.00555467
0.000401288
0.000393493
0.000385344
0.000377438
0.000370438
0.000364326
0.000359166
0.000354756
0.000351246
0.00034852
0.000347044
0.000347034
0.000349205
0.000353675
0.000361125
0.000371348
0.000385012
0.000401446
0.000421582
0.000444049
0.000469178
0.000495325
0.000523793
0.000551763
0.000582335
0.000611739
0.000640849
0.00067096
0.000701466
0.000732262
0.000763097
0.000794158
0.000825422
0.000856957
0.000888831
0.000921118
0.000953889
0.000987225
0.00102121
0.00105593
0.00109149
0.00112799
0.00116556
0.00120431
0.00124439
0.00128593
0.0013291
0.00137405
0.00142096
0.00146998
0.00152131
0.0015751
0.00163151
0.00169071
0.00175282
0.00181796
0.00188622
0.00195765
0.00203229
0.00211009
0.00219103
0.00227499
0.00236184
0.0024514
0.00254349
0.00263783
0.00273421
0.00283231
0.00293193
0.00303267
0.00313441
0.00323669
0.00333945
0.00344222
0.0035452
0.00364751
0.00375003
0.00385114
0.00395175
0.00405156
0.00414985
0.0042466
0.00434172
0.0044355
0.00452691
0.00461622
0.0047032
0.00478769
0.00486946
0.00494851
0.00502437
0.0050977
0.00516711
0.00523364
0.00529613
0.0053569
0.00541152
0.00546754
0.0055117
0.00557913
0.0006431
0.000631267
0.000619474
0.000608048
0.000597522
0.00058776
0.000578794
0.000570324
0.000562487
0.00055502
0.000548181
0.000541693
0.000535989
0.000530808
0.000526797
0.000523701
0.000522399
0.000522593
0.000525363
0.000530375
0.000538654
0.000549408
0.000563713
0.000580339
0.000600285
0.000622423
0.000647085
0.00067197
0.000699732
0.000727385
0.000755306
0.000784726
0.000814862
0.000845978
0.000878043
0.000911057
0.000945044
0.000980048
0.00101613
0.00105335
0.00109181
0.0011316
0.00117283
0.00121561
0.00126007
0.00130635
0.00135457
0.00140488
0.00145743
0.00151236
0.00156979
0.00162985
0.00169267
0.00175832
0.00182689
0.00189842
0.00197292
0.00205037
0.00213072
0.00221387
0.00229969
0.00238801
0.00247863
0.00257132
0.00266584
0.0027619
0.00285925
0.00295757
0.00305668
0.00315615
0.00325596
0.0033556
0.00345514
0.00355416
0.00365303
0.00375073
0.0038487
0.00394433
0.00404003
0.00413474
0.0042276
0.00431922
0.00440931
0.00449815
0.00458507
0.00467012
0.00475314
0.004834
0.00491248
0.00498855
0.00506183
0.00513269
0.00520035
0.00526505
0.00532647
0.00538536
0.0054406
0.00549342
0.00554019
0.00560565
0.000963187
0.000945711
0.000928695
0.000912309
0.000896997
0.000882639
0.00086926
0.000856568
0.00084468
0.000833329
0.000822714
0.000812535
0.000803053
0.00079395
0.000785594
0.000777698
0.00077075
0.000764521
0.000759588
0.000755652
0.00075347
0.000752769
0.000754356
0.000757938
0.000764282
0.000773018
0.000784951
0.000799198
0.000816562
0.000836457
0.000859171
0.000883373
0.000909676
0.00093798
0.000967934
0.000999527
0.00103276
0.00106764
0.0011042
0.00114248
0.00118255
0.00122447
0.00126832
0.00131419
0.00136217
0.00141237
0.00146489
0.00151983
0.00157728
0.00163733
0.00170008
0.00176557
0.00183386
0.00190498
0.00197891
0.00205564
0.00213509
0.00221717
0.00230174
0.00238864
0.00247768
0.0025686
0.00266117
0.00275511
0.00285014
0.00294594
0.00304228
0.00313879
0.00323535
0.00333148
0.0034273
0.00352216
0.00361641
0.00370965
0.00380233
0.00389339
0.00398479
0.00407336
0.00416134
0.00424852
0.00433423
0.00441872
0.00450186
0.00458386
0.00466439
0.00474337
0.00482072
0.00489629
0.00496993
0.00504154
0.00511089
0.00517799
0.00524266
0.00530439
0.00536377
0.00541982
0.00547429
0.00552397
0.00557185
0.00563517
0.00137887
0.00135328
0.00132864
0.00130502
0.00128276
0.00126178
0.00124207
0.0012234
0.00120582
0.00118913
0.00117344
0.00115853
0.00114456
0.0011313
0.00111896
0.00110736
0.00109677
0.00108703
0.00107848
0.00107093
0.00106476
0.00105982
0.00105649
0.00105476
0.00105492
0.00105697
0.00106132
0.00106807
0.00107703
0.00108841
0.00110272
0.00111965
0.00113926
0.00116164
0.00118651
0.00121385
0.00124362
0.00127581
0.00131042
0.00134745
0.00138691
0.00142884
0.00147327
0.00152025
0.00156982
0.00162204
0.00167696
0.00173463
0.00179509
0.00185836
0.00192446
0.0019934
0.00206514
0.00213964
0.00221683
0.00229659
0.0023788
0.00246329
0.00254984
0.00263824
0.00272823
0.00281951
0.00291181
0.00300479
0.00309815
0.00319157
0.00328479
0.00337745
0.00346941
0.00356016
0.00365002
0.00373805
0.00382512
0.00391073
0.00399611
0.00407823
0.00416007
0.0042399
0.00431852
0.0043962
0.00447264
0.00454799
0.00462218
0.00469543
0.00476759
0.00483862
0.00490845
0.00497696
0.00504407
0.00510959
0.00517347
0.0052354
0.00529569
0.00535314
0.00540935
0.00546145
0.00551426
0.00555954
0.00560838
0.00566763
0.00190181
0.00186549
0.00183065
0.00179733
0.00176575
0.00173584
0.00170759
0.0016808
0.00165546
0.00163143
0.00160875
0.00158727
0.00156705
0.00154797
0.00153015
0.00151348
0.00149816
0.0014841
0.00147151
0.00146029
0.00145069
0.00144254
0.0014362
0.00143162
0.00142852
0.00142744
0.00142836
0.00143144
0.0014367
0.00144418
0.00145411
0.00146657
0.00148162
0.00149939
0.00151991
0.0015432
0.00156928
0.00159818
0.00162991
0.00166451
0.00170199
0.00174238
0.00178571
0.00183198
0.00188124
0.00193348
0.00198873
0.00204699
0.00210824
0.00217246
0.00223962
0.00230965
0.00238246
0.00245795
0.00253597
0.00261637
0.00269894
0.00278344
0.00286964
0.00295723
0.00304592
0.00313538
0.00322527
0.00331525
0.00340499
0.00349413
0.00358241
0.00366947
0.00375512
0.00383885
0.00392113
0.00400065
0.00408015
0.00415674
0.00423154
0.00430385
0.00437495
0.0044442
0.00451194
0.00457852
0.00464394
0.00470835
0.00477181
0.00483451
0.00489649
0.00495772
0.00501822
0.00507789
0.00513673
0.00519448
0.00525128
0.0053065
0.00536092
0.00541268
0.00546445
0.00551135
0.00556149
0.00560103
0.00565042
0.00570376
0.00253224
0.00248309
0.00243599
0.00239093
0.00234801
0.00230721
0.00226845
0.00223161
0.00219663
0.0021634
0.00213191
0.00210204
0.00207382
0.00204716
0.00202215
0.00199874
0.00197705
0.00195707
0.00193895
0.00192262
0.0019083
0.00189585
0.00188553
0.00187715
0.00187136
0.001867
0.00186487
0.00186526
0.00186788
0.00187288
0.00188027
0.00189018
0.00190265
0.00191777
0.00193564
0.00195629
0.00197981
0.00200623
0.00203562
0.00206801
0.00210345
0.00214198
0.00218362
0.00222839
0.00227632
0.0023274
0.00238162
0.00243897
0.0024994
0.00256285
0.00262925
0.00269848
0.00277043
0.00284493
0.00292181
0.00300083
0.00308176
0.00316433
0.00324823
0.00333315
0.00341873
0.0035046
0.00359043
0.00367582
0.00376042
0.00384389
0.0039259
0.0040061
0.00408418
0.00415977
0.00423345
0.0043056
0.00437431
0.00444062
0.00450474
0.00456622
0.00462579
0.00468339
0.0047392
0.00479361
0.0048468
0.00489899
0.00495034
0.00500108
0.00505135
0.00510123
0.0051508
0.00520001
0.00524895
0.00529731
0.00534543
0.0053924
0.00543947
0.00548407
0.00553005
0.00557042
0.00561677
0.00564924
0.00569846
0.00574416
0.00325834
0.00319538
0.00313494
0.00307701
0.0030216
0.00296868
0.0029182
0.00287004
0.00282413
0.00278038
0.00273874
0.00269914
0.00266156
0.00262597
0.00259239
0.00256082
0.00253136
0.00250401
0.0024789
0.00245601
0.00243549
0.00241727
0.00240156
0.00238814
0.00237747
0.00236912
0.0023637
0.00236002
0.00235915
0.00236117
0.00236567
0.00237293
0.00238286
0.00239556
0.00241109
0.00242947
0.00245078
0.00247505
0.00250234
0.00253268
0.00256612
0.00260269
0.00264243
0.00268533
0.00273142
0.00278068
0.0028331
0.00288862
0.00294721
0.00300876
0.00307318
0.00314034
0.00321007
0.00328219
0.00335648
0.00343269
0.00351054
0.00358973
0.00366993
0.00375079
0.00383192
0.00391295
0.00399352
0.00407318
0.00415162
0.00422845
0.00430331
0.0043758
0.00444545
0.00451303
0.00457854
0.00464026
0.00469901
0.00475481
0.00480794
0.0048582
0.00490602
0.00495156
0.00499505
0.00503686
0.00507725
0.00511656
0.00515502
0.00519292
0.0052305
0.00526792
0.00530537
0.00534283
0.00538053
0.00541812
0.00545615
0.00549345
0.00553176
0.00556779
0.00560662
0.00563916
0.00568051
0.00570465
0.00575266
0.00578915
0.00405848
0.00398206
0.0039085
0.00383776
0.00376983
0.00370467
0.00364222
0.00358241
0.00352515
0.00347038
0.00341804
0.00336808
0.00332047
0.00327518
0.00323224
0.00319167
0.00315353
0.00311785
0.00308473
0.00305419
0.00302634
0.00300116
0.00297881
0.00295914
0.00294246
0.00292846
0.00291767
0.00290935
0.00290463
0.00290181
0.0029021
0.00290578
0.00291213
0.00292159
0.00293402
0.00294944
0.00296793
0.0029895
0.00301416
0.00304194
0.00307288
0.00310698
0.00314426
0.00318472
0.00322834
0.0032751
0.00332497
0.00337788
0.00343376
0.0034925
0.00355398
0.00361804
0.00368451
0.00375317
0.00382377
0.00389605
0.00396972
0.00404442
0.00411984
0.00419559
0.00427126
0.00434648
0.0044209
0.004494
0.00456552
0.00463504
0.00470209
0.00476619
0.00482804
0.00488738
0.00494282
0.00499494
0.0050437
0.00508911
0.00513139
0.00517054
0.00520683
0.00524051
0.00527184
0.00530118
0.00532887
0.00535526
0.00538071
0.00540552
0.00543004
0.00545448
0.00547916
0.0055041
0.00552967
0.00555549
0.00558233
0.00560884
0.00563719
0.00566344
0.00569389
0.0057174
0.00575252
0.0057673
0.00581271
0.00583866
0.00490463
0.00481648
0.00473131
0.00464908
0.00456978
0.00449337
0.00441981
0.00434905
0.00428102
0.00421568
0.00415297
0.00409285
0.00403532
0.00398036
0.00392799
0.00387824
0.00383117
0.00378681
0.00374526
0.00370654
0.00367077
0.00363794
0.00360818
0.00358141
0.00355785
0.00353729
0.00352011
0.00350581
0.00349516
0.00348707
0.00348309
0.00348134
0.00348258
0.00348783
0.00349597
0.00350731
0.00352195
0.00353977
0.00356079
0.00358505
0.00361255
0.00364326
0.00367717
0.00371426
0.0037545
0.00379785
0.00384425
0.00389362
0.00394584
0.00400081
0.00405837
0.00411835
0.00418055
0.00424473
0.00431063
0.00437797
0.00444644
0.00451567
0.00458535
0.00465505
0.00472436
0.00479295
0.00486043
0.00492622
0.00499022
0.00505179
0.00511037
0.00516679
0.00522022
0.00526987
0.00531602
0.00535857
0.00539748
0.00543276
0.00546458
0.00549301
0.00551827
0.00554063
0.00556037
0.00557782
0.00559335
0.00560736
0.00562021
0.00563228
0.00564397
0.00565554
0.0056674
0.00567962
0.00569271
0.00570628
0.00572133
0.00573631
0.00575386
0.00576945
0.0057905
0.00580404
0.00583178
0.00583645
0.00587755
0.00589215
0.00576601
0.005669
0.00557485
0.00548355
0.0053951
0.00530948
0.00522667
0.00514664
0.00506935
0.00499478
0.00492291
0.00485371
0.00478719
0.00472336
0.00466223
0.00460385
0.00454827
0.00449556
0.00444579
0.004399
0.0043553
0.0043147
0.00427732
0.00424314
0.0042123
0.00418469
0.00416056
0.00413962
0.00412233
0.00410812
0.00409767
0.00409038
0.00408648
0.0040862
0.00408852
0.00409475
0.00410454
0.00411743
0.00413368
0.00415336
0.00417633
0.00420253
0.00423197
0.00426462
0.00430041
0.00433928
0.00438114
0.00442589
0.0044734
0.00452352
0.0045761
0.00463093
0.0046878
0.00474645
0.00480661
0.00486798
0.00493025
0.00499303
0.00505601
0.00511873
0.00518078
0.00524196
0.0053017
0.00535943
0.0054153
0.00546815
0.00551907
0.00556639
0.00561044
0.00565091
0.0056877
0.00572072
0.00574995
0.00577537
0.00579713
0.00581533
0.00583016
0.00584188
0.00585077
0.00585714
0.00586137
0.00586384
0.00586494
0.00586505
0.00586462
0.00586395
0.0058635
0.00586338
0.00586421
0.00586561
0.00586876
0.00587201
0.00587838
0.00588284
0.00589384
0.00589682
0.00591621
0.0059104
0.00594549
0.00594819
0.00661241
0.00651018
0.00641048
0.00631333
0.00621875
0.00612674
0.00603732
0.00595048
0.00586623
0.00578456
0.00570548
0.005629
0.00555514
0.00548392
0.00541539
0.00534959
0.00528661
0.00522649
0.00516932
0.00511516
0.00506411
0.00501621
0.00497157
0.00493019
0.00489219
0.00485754
0.00482639
0.0047986
0.00477442
0.00475362
0.00473645
0.00472277
0.00471251
0.00470598
0.00470251
0.00470304
0.00470678
0.00471347
0.00472409
0.00473831
0.00475567
0.00477625
0.00480016
0.0048273
0.00485755
0.00489085
0.00492708
0.00496609
0.00500777
0.00505194
0.00509843
0.00514702
0.00519747
0.00524949
0.00530284
0.0053572
0.00541224
0.00546755
0.00552288
0.00557762
0.00563152
0.00568452
0.00573562
0.00578453
0.00583193
0.00587602
0.00591736
0.00595544
0.00599012
0.00602117
0.00604847
0.00607193
0.00609155
0.00610732
0.00611935
0.00612776
0.00613272
0.00613448
0.00613328
0.00612944
0.0061233
0.00611523
0.00610561
0.00609482
0.0060833
0.00607137
0.00605953
0.0060479
0.00603719
0.00602701