/*--------------------------------*- C++ -*----------------------------------*\
  =========                 |
  \\      /  F ield         | OpenFOAM: The Open Source CFD Toolbox
   \\    /   O peration     | Website:  https://openfoam.org
    \\  /    A nd           | Version:  10
     \\/     M anipulation  |
\*---------------------------------------------------------------------------*/
FoamFile
{
    format      ascii;
    class       volScalarField;
    location    "1100";
    object      omega;
}
// * * * * * * * * * * * * * * * * * * * * * * * * * * * * * * * * * * * * * //

dimensions      [0 0 -1 0 0 0 0];

internalField   nonuniform List<scalar> 
6820
(
6119.65
8495.53
9975.17
10745.8
11095.1
11205.2
11181.5
11085.3
10953.1
10806.8
10658.4
10514.8
10379.1
10252.8
10136.1
10028.7
9930.07
9839.5
9756.25
9679.62
9608.96
9543.68
9483.23
9427.14
9374.98
9326.37
9280.96
9238.44
9198.39
9161.24
9123.03
9101.29
9010.23
563.863
1593.66
2118.99
2485.29
2810.04
3047.21
3202.64
3297.98
3354.17
3382.65
3395.35
3394.49
3390.55
3382.3
3371.89
3361.05
3350.52
3340.71
3331.86
3324.04
3317.31
3311.6
3306.9
3303.07
3300.12
3297.9
3296.46
3295.62
3295.77
3296.51
3298.22
3301.25
3308.95
97.8512
383.671
612.514
783.211
925.912
1044.15
1139.72
1215.41
1275.18
1321.46
1357.37
1384.53
1405.16
1420.61
1432.05
1440.37
1446.35
1450.52
1453.37
1455.22
1456.38
1457.03
1457.37
1457.5
1457.54
1457.56
1457.63
1457.8
1458.13
1458.58
1459.49
1460.47
1462.52
35.0872
109.689
194.406
270.89
340.029
401.75
456.059
503.312
544.328
579.675
610.092
636.128
658.405
677.424
693.68
707.537
719.395
729.497
738.174
745.562
751.953
757.385
762.145
766.171
769.778
772.795
775.609
777.912
780.207
782.023
784.043
785.574
787.537
22.8645
46.9745
78.9735
111.645
143.697
174.308
202.955
229.405
253.675
275.804
295.908
314.101
330.538
345.355
358.716
370.736
381.575
391.321
400.123
408.038
415.209
421.658
427.53
432.809
437.648
441.996
446.02
449.632
453.017
456.057
458.958
461.571
464.125
19.4482
28.8211
42.7198
57.8276
73.3611
88.8415
103.932
118.422
132.214
145.247
157.503
168.976
179.69
189.667
198.948
207.564
215.565
222.981
229.864
236.24
242.162
247.646
252.747
257.473
261.88
265.965
269.785
273.332
276.662
279.761
282.686
285.42
288.021
18.2937
22.3026
29.0894
36.8342
45.0409
53.4275
61.8037
70.042
78.0648
85.8188
93.2711
100.401
107.199
113.664
119.8
125.611
131.111
136.309
141.22
145.854
150.231
154.358
158.255
161.93
165.402
168.677
171.775
174.7
177.471
180.091
182.579
184.937
187.184
17.8628
19.6407
23.1435
27.4253
32.1054
36.9869
41.946
46.901
51.7981
56.5996
61.2794
65.8192
70.2076
74.4371
78.5044
82.4079
86.1493
89.73
93.1546
96.4263
99.5512
102.533
105.38
108.095
110.685
113.156
115.514
117.764
119.913
121.964
123.925
125.8
127.595
17.6921
18.5022
20.2904
22.7591
25.5623
28.5575
31.6531
34.789
37.925
41.0328
44.0924
47.0892
50.0133
52.8576
55.6174
58.2898
60.8733
63.3674
65.7727
68.0899
70.3209
72.4673
74.5317
76.516
78.4233
80.2559
82.0169
83.7087
85.3346
86.897
88.399
89.8431
91.232
17.6213
17.9912
18.8824
20.3079
22.0195
23.9107
25.9093
27.9667
30.05
32.1359
34.2079
36.254
38.2654
40.2358
42.1608
44.037
45.8624
47.6356
49.3561
51.0236
52.6384
54.2009
55.712
57.1727
58.584
59.9473
61.2639
62.5352
63.7626
64.9476
66.0917
67.1963
68.2627
17.591
17.7573
18.1874
18.9891
20.029
21.2312
22.54
23.916
25.3312
26.7655
28.2045
29.6375
31.0565
32.4559
33.8312
35.1793
36.498
37.7854
39.0406
40.2629
41.452
42.6077
43.7302
44.8197
45.8768
46.902
47.8958
48.8591
49.7925
50.6968
51.5728
52.4213
53.2429
17.5777
17.6499
17.8528
18.2782
18.8974
19.6531
20.5077
21.4311
22.4002
23.3977
24.4109
25.43
26.4478
27.4588
28.4588
29.4446
30.4138
31.3647
32.296
33.2067
34.0961
34.9639
35.8098
36.6338
37.436
38.2165
38.9756
39.7135
40.4306
41.1274
41.8042
42.4615
43.0996
17.5717
17.6008
17.6934
17.9051
18.2597
18.7223
19.2706
19.8837
20.5439
21.2371
21.9523
22.6808
23.416
24.1527
24.8868
25.6153
26.3357
27.0462
27.7452
28.4318
29.105
29.7643
30.4092
31.0395
31.6551
32.2558
32.8416
33.4127
33.9692
34.5112
35.0389
35.5526
36.0524
17.5685
17.5785
17.6181
17.7167
17.9085
18.1807
18.5221
18.92
19.3623
19.8384
20.3392
20.8575
21.3874
21.9242
22.4641
23.0041
23.5418
24.0753
24.6031
25.124
25.6371
26.1416
26.6369
27.1227
27.5987
28.0645
28.5202
28.9656
29.4007
29.8255
30.24
30.6445
31.0388
17.5667
17.5684
17.5829
17.6262
17.7205
17.8733
18.0775
18.3273
18.6156
18.9354
19.2799
19.6435
20.0213
20.4092
20.8038
21.2024
21.6026
22.0027
22.4011
22.7965
23.1881
23.5749
23.9563
24.3318
24.7011
25.0637
25.4195
25.7683
26.11
26.4445
26.7717
27.0916
27.4042
17.5661
17.5629
17.5666
17.5833
17.6249
17.7047
17.8205
17.9706
18.1518
18.3599
18.5907
18.8401
19.1043
19.38
19.6645
19.9553
20.2503
20.5479
20.8466
21.1452
21.4427
21.7382
22.0312
22.321
22.6071
22.8892
23.167
23.4402
23.7087
23.9723
24.2309
24.4843
24.7326
17.5661
17.5601
17.5585
17.5631
17.5791
17.6155
17.6769
17.7623
17.8709
18.001
18.1502
18.3159
18.4957
18.6871
18.8878
19.096
19.31
19.5281
19.7492
19.9721
20.1959
20.4197
20.643
20.865
21.0854
21.3038
21.5197
21.7329
21.9431
22.1503
22.3541
22.5546
22.7515
17.5661
17.5591
17.5541
17.5533
17.5575
17.5711
17.5997
17.6448
17.7061
17.7833
17.8755
17.9813
18.0994
18.228
18.3657
18.511
18.6625
18.8191
18.9796
19.1431
19.3088
19.476
19.6439
19.8121
19.98
20.1473
20.3136
20.4787
20.6422
20.8039
20.9636
21.1213
21.2767
17.5662
17.5588
17.5523
17.5479
17.5469
17.5501
17.5603
17.5811
17.6128
17.6556
17.7093
17.7736
17.8477
17.9307
18.0218
18.1198
18.224
18.3333
18.4469
18.5641
18.6842
18.8066
18.9306
19.0559
19.1819
19.3083
19.4348
19.561
19.6867
19.8117
19.9358
20.0587
20.1804
17.5662
17.5587
17.5517
17.5456
17.5413
17.5397
17.5415
17.5482
17.5621
17.5834
17.6122
17.6487
17.6926
17.7435
17.801
17.8645
17.9334
18.0072
18.0851
18.1667
18.2515
18.3389
18.4285
18.5198
18.6126
18.7064
18.801
18.8961
18.9915
19.0869
19.1821
19.277
19.3714
17.5662
17.5587
17.5515
17.5447
17.5388
17.5344
17.5319
17.5324
17.5359
17.5442
17.5577
17.5764
17.6003
17.6295
17.6637
17.7028
17.7463
17.794
17.8455
17.9005
17.9585
18.0192
18.0822
18.1473
18.2142
18.2825
18.3521
18.4226
18.4938
18.5657
18.6379
18.7104
18.7829
17.5662
17.5587
17.5514
17.5444
17.5378
17.532
17.5272
17.5241
17.5231
17.5243
17.5283
17.5362
17.5475
17.5627
17.5815
17.604
17.63
17.6595
17.6921
17.7278
17.7663
17.8073
17.8507
17.8961
17.9434
17.9923
18.0428
18.0944
18.1472
18.2009
18.2553
18.3103
18.3659
17.5662
17.5587
17.5514
17.5442
17.5374
17.531
17.5251
17.5202
17.5164
17.5141
17.5138
17.5151
17.5189
17.5255
17.5347
17.5466
17.5613
17.5787
17.5987
17.6213
17.6464
17.6737
17.7032
17.7347
17.7681
17.8031
17.8398
17.8778
17.917
17.9574
17.9988
18.0411
18.084
17.5662
17.5587
17.5514
17.5442
17.5372
17.5306
17.5243
17.5185
17.5135
17.5094
17.5065
17.505
17.5052
17.5068
17.5105
17.5164
17.5245
17.5348
17.5473
17.5619
17.5787
17.5975
17.6184
17.6411
17.6656
17.6917
17.7195
17.7486
17.7791
17.8108
17.8436
17.8775
17.9121
17.5662
17.5587
17.5513
17.5442
17.5372
17.5304
17.524
17.518
17.5126
17.5078
17.5041
17.5014
17.5002
17.5004
17.5018
17.5051
17.5104
17.5177
17.5269
17.5381
17.5511
17.5661
17.583
17.6016
17.622
17.644
17.6675
17.6924
17.7187
17.7462
17.7749
17.8046
17.8352
17.5662
17.5587
17.5513
17.5442
17.5372
17.5305
17.5242
17.5183
17.5132
17.5088
17.5055
17.5034
17.5028
17.5035
17.5056
17.5097
17.5158
17.5238
17.5337
17.5456
17.5594
17.575
17.5925
17.6117
17.6326
17.6551
17.6791
17.7045
17.7311
17.759
17.788
17.8181
17.849
17.5662
17.5587
17.5513
17.5442
17.5374
17.5309
17.5251
17.52
17.5159
17.5131
17.5117
17.5122
17.5141
17.5183
17.5246
17.5331
17.5437
17.5566
17.5716
17.5888
17.608
17.6292
17.6522
17.677
17.7035
17.7316
17.7611
17.7919
17.824
17.8571
17.8913
17.9264
17.9624
17.5662
17.5587
17.5514
17.5444
17.5379
17.5322
17.5276
17.5243
17.523
17.5238
17.5267
17.5327
17.5416
17.5534
17.5681
17.5857
17.6061
17.6292
17.6549
17.6831
17.7135
17.7461
17.7806
17.817
17.855
17.8944
17.9353
17.9773
18.0204
18.0644
18.1093
18.1548
18.201
17.5662
17.5587
17.5516
17.5451
17.5396
17.5357
17.5342
17.5354
17.5395
17.5482
17.5612
17.5785
17.6003
17.6263
17.6565
17.6905
17.7282
17.7692
17.8134
17.8603
17.9097
17.9613
18.015
18.0703
18.1272
18.1853
18.2446
18.3048
18.3657
18.4273
18.4893
18.5516
18.6142
17.5662
17.5589
17.5522
17.5473
17.5446
17.5455
17.5504
17.5615
17.5798
17.605
17.6371
17.6761
17.7215
17.7729
17.8299
17.8918
17.9581
18.0284
18.102
18.1786
18.2577
18.3389
18.4217
18.506
18.5914
18.6776
18.7644
18.8516
18.939
19.0264
19.1138
19.2008
19.2875
17.5662
17.5594
17.5546
17.5542
17.558
17.5696
17.5932
17.6282
17.6749
17.7329
17.8016
17.8801
17.9674
18.0624
18.164
18.2714
18.3835
18.4996
18.6189
18.7408
18.8645
18.9897
19.1159
19.2426
19.3696
19.4965
19.6231
19.7491
19.8743
19.9987
20.122
20.2442
20.3651
17.5663
17.5617
17.563
17.5718
17.595
17.6401
17.7055
17.7911
17.8954
18.0165
18.1523
18.3006
18.4593
18.6266
18.8007
18.9802
19.1638
19.3502
19.5387
19.7283
19.9185
20.1085
20.2979
20.4864
20.6735
20.859
21.0426
21.2241
21.4034
21.5803
21.7548
21.9267
22.0961
17.5672
17.57
17.5859
17.6276
17.7109
17.8336
17.9919
18.1815
18.3976
18.6351
18.8897
19.1574
19.435
19.7198
20.0094
20.302
20.596
20.8902
21.1836
21.4753
21.7646
22.0511
22.3342
22.6137
22.8892
23.1606
23.4277
23.6903
23.9484
24.2019
24.4508
24.6951
24.9348
17.5716
17.5953
17.6662
17.8177
18.053
18.3543
18.7087
19.1036
19.5285
19.9745
20.4349
20.9044
21.3787
21.8548
22.3301
22.8027
23.2712
23.7345
24.1917
24.6422
25.0854
25.521
25.9488
26.3685
26.7802
27.1836
27.5788
27.9659
28.3448
28.7157
29.0786
29.4337
29.7811
17.5854
17.6974
17.9699
18.4419
19.0444
19.7381
20.4917
21.2821
22.0933
22.9141
23.7367
24.5557
25.3673
26.1688
26.9583
27.7344
28.4962
29.243
29.9745
30.6904
31.3907
32.0753
32.7443
33.3978
34.0361
34.6594
35.2678
35.8618
36.4414
37.0072
37.5593
38.0981
38.6238
17.6522
18.1438
19.1451
20.4574
21.9286
23.4776
25.0548
26.6331
28.1966
29.7371
31.25
32.7323
34.182
35.5983
36.9807
38.3291
39.6436
40.9246
42.1725
43.3878
44.5711
45.723
46.8442
47.9354
48.9973
50.0307
51.0362
52.0146
52.9666
53.893
54.7944
55.6717
56.5255
18.0423
20.3419
23.6954
27.3243
30.9671
34.5343
37.9952
41.351
44.6032
47.7618
50.8283
53.8045
56.6925
59.4942
62.2115
64.8462
67.4002
69.8754
72.2738
74.5972
76.8479
79.0276
81.1387
83.183
85.1627
87.0799
88.9365
90.7347
92.4763
94.1635
95.798
97.3817
98.9165
21.0783
32.2377
43.8848
55.0827
65.2654
74.7229
83.6608
92.2515
100.529
108.499
116.17
123.546
130.634
137.44
143.973
150.24
156.249
162.01
167.532
172.822
177.893
182.751
187.407
191.869
196.147
200.248
204.182
207.956
211.578
215.054
218.393
221.602
224.685
63.2893
131.146
179.994
220.948
253.72
286.904
320.749
353.551
384.646
413.765
440.836
465.898
489.061
510.454
530.221
548.493
565.404
581.067
595.602
609.099
621.66
633.357
644.277
654.474
664.025
672.968
681.373
689.262
696.705
703.707
710.338
716.588
722.534
1672.14
1819.15
1960.96
2086.92
2197.23
2294.25
2379.79
2455.18
2521.53
2579.87
2631.09
2676.01
2715.34
2749.72
2779.71
2805.83
2828.53
2848.19
2865.19
2879.82
2892.37
2903.08
2912.17
2919.82
2926.22
2931.5
2935.79
2939.23
2941.89
2943.89
2945.3
2946.18
2946.62
8849.71
8484.53
7910.83
7367.01
6856.18
6382.29
5948.2
5554.42
5197.16
4870.92
4575.31
4307.54
4064.43
3843.66
3642.67
3459.31
3291.17
3136.82
2994.39
2862.91
2741.31
2628.72
2524.11
2426.71
2335.64
2250.08
2169.4
2093
2020.36
1950.97
1884.42
1820.34
1757.99
1697.33
1638.18
1580.33
1523.59
1467.75
1412.75
1358.37
1304.52
1251.19
1198.36
1146.08
1094.39
1043.33
993.008
943.528
895.026
847.651
801.553
756.89
713.818
672.482
633.017
595.534
560.125
526.855
495.76
466.85
440.106
415.486
392.925
372.341
353.636
336.703
321.425
307.685
295.362
284.339
274.497
265.731
257.927
250.996
244.831
239.36
234.483
230.139
226.256
222.766
219.615
216.752
214.135
211.713
209.455
207.327
205.304
203.356
201.469
199.613
197.793
195.962
194.16
192.298
190.509
188.529
186.808
184.548
183.12
180.093
3308.87
3340.32
3413.89
3490.11
3569.82
3649.47
3715.34
3767.79
3789.71
3780.96
3753.06
3694.75
3609.22
3504.61
3386.99
3262.17
3134.14
3007.09
2881.96
2762.04
2647.56
2538.77
2435.14
2336.89
2243.54
2154.65
2070.04
1989.33
1912.17
1838.16
1766.98
1698.37
1631.98
1567.56
1504.91
1443.86
1384.26
1325.96
1268.9
1212.97
1158.11
1104.29
1051.52
999.821
949.248
899.868
851.765
805.037
759.789
716.135
674.184
634.044
595.809
559.561
525.363
493.26
463.271
435.396
409.611
385.871
364.112
344.257
326.213
309.881
295.152
281.919
270.067
259.49
250.076
241.727
234.339
227.825
222.09
217.062
212.649
208.799
205.42
202.473
199.894
197.621
195.616
193.836
192.243
190.788
189.451
188.201
187.014
185.864
184.739
183.612
182.486
181.321
180.149
178.903
177.678
176.276
175.036
173.357
172.274
169.944
1464.56
1469.56
1481.29
1495.81
1510.76
1528.56
1551.43
1582.84
1624.16
1673.62
1730.47
1790.61
1850.64
1907.55
1957.53
1997.19
2024.59
2037.56
2034.56
2023.4
1998.88
1963.41
1919.25
1870.42
1817
1761.12
1704.35
1646.89
1589.23
1531.67
1474.59
1418.16
1362.5
1307.69
1253.74
1200.7
1148.57
1097.36
1047.11
997.838
949.579
902.378
856.289
811.375
767.711
725.378
684.459
645.041
607.205
571.033
536.593
503.945
473.134
444.19
417.124
391.933
368.593
347.066
327.298
309.223
292.764
277.837
264.353
252.219
241.34
231.625
222.98
215.32
208.557
202.617
197.417
192.894
188.974
185.606
182.711
180.262
178.171
176.428
174.967
173.741
172.725
171.882
171.179
170.569
170.043
169.57
169.128
168.695
168.258
167.796
167.308
166.758
166.175
165.508
164.816
163.965
163.184
162.067
161.32
159.668
789.402
792.035
795.805
799.616
802.427
804.772
807.086
810.432
815.25
822.605
832.752
846.706
864.262
886.31
911.833
941.258
972.182
1004.77
1034.98
1063.74
1087.92
1108.93
1122.22
1132.23
1132.13
1129.03
1120.94
1106.24
1086.7
1063.3
1037.07
1008.34
977.703
945.574
912.319
878.258
843.67
808.797
773.854
739.029
704.495
670.405
636.902
604.116
572.169
541.173
511.229
482.43
454.853
428.569
403.629
380.075
357.931
337.208
317.903
300
283.468
268.268
254.352
241.663
230.141
219.721
210.335
201.918
194.401
187.72
181.81
176.613
172.068
168.127
164.729
161.836
159.393
157.367
155.697
154.373
153.312
152.539
151.974
151.59
151.376
151.296
151.32
151.404
151.555
151.734
151.924
152.105
152.265
152.384
152.459
152.458
152.407
152.268
152.063
151.724
151.37
150.784
150.358
149.349
466.861
469.947
473.166
476.239
478.73
480.754
482.33
483.781
485.089
486.605
488.255
490.499
493.239
497.051
501.73
507.919
515.194
524.185
534.124
545.447
557.066
569.438
581.019
592.308
601.656
609.412
614.566
618.664
618.91
617.701
614.438
608.155
599.618
588.825
576.061
561.606
545.732
528.699
510.752
492.117
473.006
453.614
434.116
414.676
395.437
376.531
358.074
340.167
322.896
306.333
290.537
275.552
261.41
248.129
235.718
224.174
213.486
203.636
194.599
186.345
178.84
172.048
165.932
160.454
155.574
151.257
147.463
144.161
141.311
138.889
136.853
135.186
133.847
132.819
132.056
131.563
131.26
131.208
131.298
131.536
131.923
132.412
132.986
133.611
134.281
134.971
135.664
136.341
136.989
137.592
138.141
138.615
139.019
139.337
139.568
139.687
139.718
139.623
139.496
139.079
290.873
294.011
297.096
300.052
302.702
305.064
307.122
308.979
310.604
312.107
313.433
314.72
315.904
317.156
318.393
319.805
321.284
323.026
324.905
327.166
329.606
332.439
335.389
338.604
341.731
344.852
347.501
349.875
351.464
352.325
352.154
351.339
349.503
346.613
342.763
337.956
332.228
325.64
318.274
310.224
301.595
292.495
283.033
273.317
263.451
253.532
243.651
233.891
224.324
215.016
206.02
197.383
189.142
181.323
173.949
167.031
160.576
154.586
149.056
143.98
139.345
135.14
131.348
127.954
124.941
122.291
119.986
118.011
116.344
114.977
113.882
113.058
112.472
112.118
111.963
112.022
112.221
112.631
113.173
113.833
114.612
115.482
116.428
117.425
118.461
119.517
120.577
121.624
122.643
123.621
124.545
125.402
126.18
126.882
127.481
127.994
128.374
128.689
128.852
128.951
189.675
192.418
195.099
197.691
200.123
202.39
204.479
206.423
208.207
209.865
211.373
212.771
214.03
215.195
216.232
217.186
218.014
218.769
219.401
219.976
220.45
220.886
221.244
221.565
221.815
222.024
222.126
222.102
221.988
221.724
221.182
220.386
219.287
217.834
216.042
213.889
211.363
208.461
205.187
201.56
197.604
193.352
188.843
184.12
179.229
174.218
169.135
164.026
158.935
153.904
148.971
144.168
139.526
135.068
130.817
126.787
122.993
119.442
116.142
113.095
110.301
107.76
105.469
103.423
101.618
100.048
98.7054
97.5856
96.6783
95.9842
95.4825
95.186
95.0614
95.1126
95.3023
95.6921
96.2043
96.868
97.6556
98.5511
99.5491
100.634
101.792
103.006
104.262
105.545
106.84
108.131
109.404
110.646
111.842
112.984
114.05
115.053
115.946
116.782
117.451
118.12
118.518
119.087
129.598
131.817
133.993
136.115
138.154
140.101
141.949
143.705
145.363
146.932
148.403
149.785
151.067
152.257
153.34
154.323
155.186
155.939
156.557
157.057
157.415
157.658
157.755
157.725
157.61
157.367
157.012
156.541
155.965
155.289
154.499
153.591
152.561
151.396
150.093
148.647
147.053
145.308
143.411
141.364
139.17
136.839
134.381
131.812
129.146
126.405
123.608
120.777
117.933
115.099
112.294
109.54
106.854
104.252
101.751
99.363
97.0988
94.9678
92.9775
91.1338
89.4408
87.9018
86.5184
85.2919
84.222
83.3084
82.5498
81.9456
81.4931
81.1961
81.0388
81.0428
81.1493
81.4128
81.808
82.3437
82.9939
83.766
84.6502
85.6351
86.7149
87.8791
89.1181
90.4187
91.7687
93.1559
94.5661
95.9869
97.4028
98.8035
100.171
101.501
102.765
103.985
105.095
106.178
107.071
108.03
108.612
109.584
92.7899
94.525
96.236
97.9163
99.5534
101.141
102.673
104.15
105.57
106.933
108.236
109.478
110.654
111.765
112.801
113.763
114.636
115.422
116.106
116.69
117.16
117.523
117.765
117.899
117.886
117.806
117.613
117.297
116.883
116.369
115.764
115.067
114.284
113.415
112.462
111.429
110.315
109.125
107.858
106.519
105.109
103.635
102.099
100.51
98.8733
97.199
95.4962
93.775
92.0464
90.3214
88.6114
86.9274
85.2802
83.68
82.1363
80.658
79.253
77.9282
76.69
75.5434
74.493
73.5427
72.6949
71.9527
71.3176
70.7911
70.3743
70.0689
69.8765
69.7997
69.8265
69.9493
70.1987
70.5567
71.0206
71.5968
72.2752
73.0567
73.938
74.9129
75.9767
77.1231
78.3451
79.6336
80.9791
82.3717
83.7994
85.252
86.7148
88.1796
89.6265
91.0564
92.4336
93.7875
95.0389
96.294
97.3449
98.5246
99.2396
100.538
69.4636
70.8071
72.1383
73.4535
74.7464
76.0126
77.2488
78.4535
79.6245
80.7608
81.8599
82.9208
83.9399
84.9155
85.8423
86.7175
87.5341
88.2888
88.9734
89.5856
90.1165
90.5671
90.9268
91.2035
91.3791
91.4703
91.4554
91.3827
91.2139
90.9501
90.6112
90.1915
89.6999
89.1381
88.51
87.8197
87.0708
86.267
85.412
84.5096
83.5635
82.5778
81.5567
80.5049
79.4272
78.3292
77.2164
76.0949
74.9712
73.8518
72.7434
71.6528
70.5865
69.5511
68.5527
67.5971
66.6899
65.8362
65.0404
64.3066
63.6387
63.04
62.5128
62.0605
61.6844
61.3869
61.1702
61.037
60.9917
61.0221
61.1279
61.3319
61.6236
62.0035
62.4702
63.0279
63.6737
64.4077
65.2293
66.1359
67.1248
68.1924
69.3344
70.5452
71.8177
73.1448
74.5169
75.9263
77.3596
78.8111
80.2607
81.7124
83.1275
84.5408
85.8628
87.2177
88.3638
89.6936
90.4968
92.0383
54.1709
55.2132
56.2501
57.2793
58.2975
59.302
60.2902
61.2608
62.212
63.1425
64.0506
64.9348
65.7929
66.6229
67.4215
68.186
68.9121
69.5963
70.2337
70.8213
71.3532
71.8282
72.2396
72.5894
72.8686
73.0839
73.2217
73.3009
73.2936
73.2442
73.1243
72.9289
72.6794
72.3683
72.0022
71.5848
71.1182
70.6066
70.0537
69.463
68.8381
68.1829
67.5013
66.7972
66.0746
65.3379
64.5911
63.8389
63.0856
62.3359
61.5944
60.8657
60.1543
59.4647
58.8013
58.1682
57.5692
57.008
56.4881
56.0125
55.5845
55.2064
54.88
54.6091
54.394
54.2375
54.1427
54.1134
54.1401
54.2255
54.3847
54.6119
54.9085
55.276
55.7146
56.2271
56.8136
57.4749
58.2116
59.0233
59.9092
60.8678
61.8969
62.9934
64.1528
65.3706
66.6395
67.9544
69.3039
70.6847
72.0776
73.4893
74.88
76.2891
77.6204
79.0104
80.1952
81.6071
82.4594
84.1583
43.822
44.636
45.4486
46.2583
47.0631
47.8613
48.6512
49.4316
50.2011
50.9586
51.7028
52.4324
53.1458
53.8414
54.517
55.1704
55.7988
56.3995
56.9691
57.5051
58.0036
58.4627
58.8782
59.2496
59.5719
59.8474
60.0684
60.2431
60.3578
60.4316
60.4385
60.4115
60.3393
60.2056
60.032
59.8154
59.5569
59.2611
58.9308
58.5681
58.1763
57.7589
57.3191
56.8603
56.3857
55.8988
55.403
54.902
54.3993
53.8985
53.4029
52.9162
52.4418
51.983
51.5431
51.1251
50.732
50.3666
50.0314
49.729
49.462
49.2317
49.0399
48.8904
48.782
48.7191
48.7053
48.7315
48.8046
48.9319
49.1107
49.3426
49.6292
49.9724
50.3731
50.8335
51.3549
51.9385
52.5859
53.2976
54.0742
54.9156
55.8213
56.79
57.8194
58.9069
60.0478
61.239
62.4715
63.7442
65.0397
66.367
67.687
69.0419
70.3332
71.7041
72.88
74.3129
75.1824
76.9556
36.6195
37.2603
37.9019
38.5432
39.1832
39.8206
40.4542
41.0832
41.7064
42.3229
42.9319
43.5322
44.1227
44.7021
45.2689
45.8215
46.358
46.8763
47.3741
47.8495
48.2998
48.7231
49.1168
49.4797
49.8087
50.1039
50.3613
50.5835
50.7646
50.9109
51.0141
51.082
51.112
51.1021
51.066
50.9886
50.8759
50.7354
50.5654
50.3674
50.1449
49.9011
49.6377
49.3575
49.0632
48.7576
48.4435
48.124
47.8017
47.4796
47.1604
46.847
46.542
46.2482
45.968
45.7038
45.4579
45.2328
45.0299
44.8519
44.7008
44.5763
44.4818
44.42
44.388
44.3938
44.4272
44.5007
44.611
44.7603
44.9497
45.1806
45.4544
45.7728
46.1371
46.5492
47.0107
47.5231
48.0882
48.7072
49.3813
50.1115
50.8981
51.7413
52.6402
53.594
54.5998
55.6564
56.7568
57.9022
59.0771
60.2924
61.5109
62.7766
63.9919
65.302
66.4318
67.8347
68.6945
70.4706
31.4872
31.9951
32.5051
33.0165
33.5284
34.0401
34.5507
35.0595
35.5657
36.0687
36.5677
37.0618
37.5503
38.0321
38.5063
38.9715
39.4265
39.8698
40.2998
40.7149
41.1134
41.4938
41.8541
42.1931
42.5089
42.8008
43.0666
43.3066
43.5181
43.7028
43.858
43.9848
44.0839
44.1528
44.1982
44.2118
44.202
44.1721
44.114
44.0322
43.9322
43.8147
43.6801
43.5309
43.3696
43.1982
43.0189
42.8343
42.6464
42.4577
42.2702
42.0863
41.9081
41.7381
41.5778
41.4292
41.2942
41.175
41.0722
40.9892
40.9262
40.8822
40.8629
40.8688
40.8937
40.9488
41.0293
41.1378
41.2749
41.4419
41.6398
41.8699
42.1334
42.4317
42.7663
43.1386
43.5503
44.003
44.4983
45.0378
45.6229
46.2552
46.9355
47.6649
48.4433
49.2713
50.1472
51.0715
52.0389
53.0521
54.0977
55.1882
56.2891
57.4447
58.5611
59.7816
60.8386
62.1732
63.0001
64.7242
27.7604
28.1651
28.5725
28.9822
29.3936
29.8061
30.2192
30.6323
31.0448
31.4562
31.866
32.2734
32.6779
33.0788
33.4752
33.8663
34.2511
34.6287
34.9978
35.3573
35.706
36.0426
36.366
36.6749
36.968
37.2446
37.5033
37.7436
37.9642
38.1652
38.3455
38.5048
38.6438
38.7609
38.8587
38.9351
38.9917
39.0308
39.0521
39.0513
39.0405
39.0143
38.9727
38.9196
38.8567
38.785
38.7068
38.6241
38.5381
38.4507
38.3639
38.2793
38.1989
38.1246
38.0571
37.9984
37.9502
37.9142
37.8904
37.8833
37.8898
37.9098
37.9504
38.0101
38.0862
38.1832
38.3005
38.4392
38.5999
38.7834
38.9908
39.2228
39.4807
39.7656
40.0786
40.421
40.7944
41.2001
41.6397
42.1147
42.6268
43.1774
43.7678
44.3995
45.073
45.7896
46.5484
47.3511
48.1936
49.0801
49.9989
50.9635
51.9422
52.9791
53.9855
55.0997
56.0679
57.3083
58.0848
59.717
25.0162
25.3393
25.6656
25.9946
26.3261
26.6596
26.9947
27.3309
27.6678
28.005
28.3421
28.6786
29.0139
29.3477
29.6793
30.0081
30.3333
30.6543
30.9702
31.2802
31.5834
31.8789
32.1658
32.4432
32.7102
32.966
33.2097
33.4408
33.6585
33.8623
34.0517
34.2263
34.3862
34.5308
34.6607
34.7757
34.876
34.9624
35.0361
35.095
35.1432
35.1807
35.2075
35.2251
35.2351
35.2377
35.2359
35.2307
35.2223
35.213
35.2041
35.1969
35.1932
35.1944
35.2
35.213
35.2347
35.2657
35.3064
35.3591
35.4237
35.4996
35.5896
35.6945
35.8132
35.9474
36.0974
36.2637
36.4468
36.6474
36.8661
37.1037
37.361
37.6389
37.9384
38.2605
38.6065
38.9775
39.375
39.8004
40.2551
40.7406
41.2583
41.8096
42.3956
43.0178
43.676
44.3724
45.104
45.8756
46.6773
47.523
48.3838
49.303
50.1976
51.1993
52.0715
53.2036
53.9188
55.4329
22.977
23.2348
23.496
23.7603
24.0275
24.2972
24.5691
24.843
25.1184
25.3951
25.6726
25.9508
26.2291
26.5073
26.7848
27.0613
27.3362
27.609
27.8791
28.1459
28.4087
28.667
28.9199
29.167
29.4075
29.6409
29.8664
30.0836
30.2919
30.4908
30.6802
30.8594
31.0286
31.1872
31.3356
31.4736
31.6013
31.7191
31.8278
31.9267
32.0173
32.1002
32.1759
32.245
32.3088
32.3678
32.4233
32.4766
32.5283
32.5796
32.6316
32.6856
32.7424
32.8035
32.8691
32.9405
33.0188
33.1049
33.199
33.3023
33.4154
33.5381
33.6713
33.8161
33.9721
34.1399
34.32
34.5125
34.7178
34.9364
35.1687
35.4152
35.6767
35.9536
36.2468
36.557
36.8853
37.2327
37.6003
37.9893
38.4009
38.8367
39.2977
39.7856
40.3014
40.8467
41.4216
42.0287
42.6657
43.3377
44.0362
44.7751
45.5281
46.337
47.1253
48.0164
48.7926
49.8119
50.4606
51.843
21.4552
21.6602
21.8687
22.0805
22.2954
22.5132
22.7336
22.9565
23.1815
23.4084
23.637
23.867
24.0981
24.3301
24.5625
24.7952
25.0277
25.2596
25.4905
25.7201
25.9478
26.1731
26.3957
26.6149
26.8304
27.0417
27.2483
27.4499
27.646
27.8362
28.0204
28.1982
28.3694
28.534
28.6918
28.843
28.9875
29.1255
29.2574
29.3833
29.5036
29.619
29.7299
29.8369
29.9406
30.0418
30.1411
30.2395
30.3376
30.4364
30.5367
30.6393
30.745
30.8547
30.969
31.0885
31.214
31.3462
31.4854
31.6321
31.787
31.95
32.1215
32.3021
32.4917
32.6906
32.899
33.1169
33.3446
33.5822
33.8302
34.0888
34.3585
34.6396
34.9327
35.2384
35.5574
35.8905
36.2386
36.6028
36.9841
37.3836
37.8025
38.2422
38.7036
39.1884
39.6969
40.2316
40.7907
41.3795
41.9904
42.6372
43.2958
44.0062
44.6979
45.4862
46.1718
47.0814
47.6633
48.9109
20.3208
20.4827
20.6482
20.8172
20.9894
21.1647
21.3429
21.5239
21.7075
21.8934
22.0816
22.2717
22.4637
22.6572
22.8521
23.0481
23.245
23.4425
23.6403
23.8381
24.0356
24.2324
24.4283
24.6228
24.8157
25.0066
25.1952
25.3811
25.5643
25.7442
25.9209
26.094
26.2635
26.4292
26.5911
26.7493
26.9037
27.0545
27.2019
27.3461
27.4874
27.6262
27.7629
27.8979
28.0318
28.1649
28.298
28.4317
28.5664
28.703
28.8419
28.9839
29.1295
29.2794
29.434
29.5938
29.7593
29.931
30.1089
30.2934
30.485
30.6837
30.8897
31.103
31.3238
31.552
31.7877
32.0306
32.2808
32.5387
32.8044
33.0778
33.3593
33.649
33.9473
34.2546
34.5713
34.8981
35.2358
35.5849
35.9465
36.3215
36.7108
37.1156
37.5368
37.976
38.4333
38.9115
39.4087
39.9304
40.4695
41.0397
41.6185
42.2443
42.8517
43.5484
44.1524
44.9606
45.4792
46.597
19.4808
19.6077
19.7382
19.8722
20.0095
20.1501
20.2938
20.4405
20.59
20.7423
20.8971
21.0545
21.2141
21.3759
21.5397
21.7053
21.8726
22.0413
22.2114
22.3825
22.5544
22.727
22.9
23.0732
23.2463
23.4191
23.5914
23.7631
23.9338
24.1036
24.2721
24.4394
24.6053
24.7698
24.9328
25.0944
25.2547
25.4138
25.5717
25.7288
25.8852
26.0413
26.1974
26.3537
26.5108
26.669
26.8288
26.9905
27.1547
27.322
27.4927
27.6673
27.8463
28.03
28.2189
28.4133
28.6134
28.8194
29.0314
29.2496
29.4743
29.7055
29.9432
30.1871
30.4373
30.6937
30.9561
31.2237
31.4972
31.7767
32.0619
32.3527
32.6491
32.9513
33.2593
33.5734
33.8939
34.2212
34.5558
34.8983
35.2493
35.6097
35.9801
36.3617
36.7549
37.1614
37.5813
38.017
38.4669
38.9365
39.4187
39.9274
40.4411
40.9968
41.5334
42.1516
42.6847
43.4033
43.8645
44.8633
18.8675
18.9664
19.0687
19.1745
19.2837
19.3961
19.5119
19.6307
19.7526
19.8775
20.0053
20.1359
20.2692
20.4051
20.5435
20.6843
20.8274
20.9726
21.1198
21.2689
21.4198
21.5723
21.7263
21.8816
22.0381
22.1956
22.3541
22.5133
22.6733
22.8338
22.9949
23.1565
23.3186
23.481
23.644
23.8075
23.9716
24.1364
24.3021
24.4688
24.6368
24.8064
24.9777
25.1511
25.327
25.5055
25.6871
25.872
26.0609
26.2539
26.4516
26.6542
26.8619
27.0752
27.2941
27.519
27.7499
27.9867
28.2294
28.4785
28.734
28.9956
29.2631
29.5364
29.8151
30.0991
30.388
30.6823
30.9815
31.2853
31.5932
31.9048
32.2201
32.539
32.8615
33.1876
33.5176
33.8516
34.19
34.5332
34.8816
35.2358
35.5964
35.9643
36.3398
36.7245
37.1182
37.5235
37.9385
38.3686
38.8071
39.2675
39.7293
40.2281
40.7063
41.2588
41.7317
42.3731
42.7838
43.6778
18.4311
18.5079
18.5882
18.6719
18.7589
18.8493
18.9429
19.0398
19.1399
19.2432
19.3496
19.459
19.5714
19.6868
19.8051
19.9262
20.05
20.1766
20.3057
20.4374
20.5716
20.7081
20.847
20.9881
21.1313
21.2767
21.4241
21.5735
21.7248
21.878
22.0332
22.1902
22.3492
22.5102
22.6732
22.8383
23.0056
23.1753
23.3475
23.5225
23.7003
23.8813
24.0657
24.2537
24.4457
24.6417
24.8421
25.0473
25.2578
25.4737
25.6954
25.9229
26.1565
26.3965
26.6428
26.8957
27.155
27.4211
27.6942
27.9745
28.261
28.5536
28.8517
29.1553
29.4639
29.7771
30.0946
30.4163
30.7409
31.0678
31.3974
31.7295
32.0639
32.4005
32.7392
33.0799
33.4225
33.7673
34.1142
34.4636
34.8157
35.171
35.5297
35.8928
36.2604
36.6337
37.0126
37.3994
37.792
38.1962
38.6046
39.0313
39.4555
39.9128
40.3472
40.8499
41.2762
41.8555
42.2239
43.0291
18.1349
18.1955
18.2594
18.3265
18.3971
18.4709
18.548
18.6285
18.7123
18.7993
18.8897
18.9833
19.0801
19.1801
19.2833
19.3897
19.4992
19.6119
19.7276
19.8464
19.9681
20.0929
20.2207
20.3514
20.4851
20.6217
20.7613
20.9037
21.0492
21.1976
21.349
21.5035
21.6611
21.822
21.9861
22.1538
22.325
22.4999
22.6788
22.8618
23.0492
23.2411
23.4378
23.6395
23.8466
24.0593
24.2781
24.5034
24.7353
24.9739
25.2193
25.4716
25.7311
25.9979
26.2718
26.553
26.8414
27.137
27.4395
27.7474
28.0612
28.3809
28.7063
29.0369
29.3724
29.7124
30.0563
30.4037
30.7544
31.1077
31.4631
31.8201
32.1784
32.5376
32.8976
33.2581
33.619
33.9801
34.3416
34.7034
35.0657
35.4289
35.793
36.1588
36.5262
36.8964
37.2689
37.6463
38.026
38.414
38.8025
39.2061
39.6033
40.0301
40.4313
40.8958
41.285
41.817
42.1529
42.8898
17.9535
18.0033
18.0563
18.1125
18.172
18.2348
18.3009
18.3704
18.4433
18.5195
18.5991
18.6821
18.7686
18.8585
18.9517
19.0485
19.1486
19.2522
19.3593
19.4698
19.5838
19.7013
19.8224
19.947
20.0751
20.2069
20.3424
20.4816
20.6246
20.7715
20.9223
21.0773
21.2364
21.3998
21.5677
21.7402
21.9175
22.0999
22.2874
22.4804
22.679
22.8835
23.0941
23.3111
23.5348
23.7653
24.0032
24.2477
24.4994
24.7585
25.0254
25.3001
25.5827
25.8734
26.172
26.4785
26.7928
27.1148
27.4443
27.7813
28.1249
28.4749
28.8308
29.1921
29.5583
29.929
30.3034
30.6811
31.0615
31.4441
31.8283
32.2134
32.599
32.9847
33.37
33.7547
34.1383
34.5208
34.902
35.2818
35.6602
36.0375
36.4135
36.7888
37.1633
37.5382
37.9124
38.289
38.6645
39.0458
39.424
39.8146
40.195
40.6027
40.981
41.4194
41.7816