/*--------------------------------*- C++ -*----------------------------------*\
  =========                 |
  \\      /  F ield         | OpenFOAM: The Open Source CFD Toolbox
   \\    /   O peration     | Website:  https://openfoam.org
    \\  /    A nd           | Version:  10
     \\/     M anipulation  |
\*---------------------------------------------------------------------------*/
FoamFile
{
    format      ascii;
    class       volScalarField;
    location    "1100";
    object      p;
}
// * * * * * * * * * * * * * * * * * * * * * * * * * * * * * * * * * * * * * //

dimensions      [0 2 -2 0 0 0 0];

internalField   nonuniform List<scalar> 
6820
(
6.39499
-4.49483
-8.01405
-8.74765
-9.14898
-9.48754
-9.68005
-9.77655
-9.84202
-9.89653
-9.94081
-9.9766
-10.0072
-10.0347
-10.0597
-10.0827
-10.1041
-10.1243
-10.1435
-10.1619
-10.1795
-10.1965
-10.2129
-10.2288
-10.2441
-10.2588
-10.2728
-10.2861
-10.2981
-10.3089
-10.3165
-10.3232
-10.3116
-15.493
-11.815
-11.0702
-10.3009
-9.93617
-9.8698
-9.86809
-9.87197
-9.89009
-9.91932
-9.95013
-9.97885
-10.0057
-10.0312
-10.0552
-10.0778
-10.0991
-10.1193
-10.1386
-10.1571
-10.1748
-10.192
-10.2086
-10.2246
-10.2401
-10.2551
-10.2695
-10.2831
-10.2959
-10.3078
-10.3177
-10.3281
-10.3329
-13.3444
-9.77027
-9.51498
-9.5169
-9.51067
-9.60913
-9.70984
-9.77762
-9.83216
-9.88207
-9.92542
-9.96207
-9.99403
-10.0227
-10.0488
-10.0728
-10.095
-10.1159
-10.1357
-10.1546
-10.1726
-10.19
-10.2068
-10.223
-10.2387
-10.2539
-10.2685
-10.2825
-10.2958
-10.3086
-10.3203
-10.3329
-10.3433
-10.8553
-9.39615
-9.54685
-9.66298
-9.64763
-9.70298
-9.77358
-9.82231
-9.86238
-9.90135
-9.9372
-9.96894
-9.9976
-10.0241
-10.0486
-10.0716
-10.0932
-10.1136
-10.1331
-10.1518
-10.1698
-10.1871
-10.2039
-10.2202
-10.2361
-10.2514
-10.2663
-10.2808
-10.2948
-10.3086
-10.322
-10.3363
-10.3504
-10.3958
-9.69847
-9.73895
-9.75518
-9.71096
-9.73864
-9.791
-9.83212
-9.86831
-9.90447
-9.93854
-9.96934
-9.99747
-10.0236
-10.0479
-10.0706
-10.0921
-10.1125
-10.1319
-10.1505
-10.1685
-10.1859
-10.2027
-10.219
-10.235
-10.2505
-10.2657
-10.2806
-10.2952
-10.3097
-10.3244
-10.34
-10.3565
-10.3305
-9.85531
-9.80922
-9.78726
-9.74848
-9.76703
-9.80877
-9.8453
-9.87885
-9.91237
-9.94426
-9.97353
-10.0005
-10.0257
-10.0493
-10.0716
-10.0926
-10.1126
-10.1318
-10.1502
-10.168
-10.1853
-10.2021
-10.2184
-10.2344
-10.2501
-10.2655
-10.2807
-10.2958
-10.3111
-10.3267
-10.3434
-10.3614
-10.2151
-9.88909
-9.83698
-9.81425
-9.78536
-9.79802
-9.83049
-9.86183
-9.89194
-9.92232
-9.95168
-9.97912
-10.0048
-10.0289
-10.0517
-10.0733
-10.0939
-10.1135
-10.1324
-10.1506
-10.1682
-10.1854
-10.2021
-10.2184
-10.2344
-10.2502
-10.2657
-10.2812
-10.2968
-10.3126
-10.3289
-10.3463
-10.3651
-10.109
-9.90394
-9.86148
-9.8413
-9.81901
-9.82732
-9.85234
-9.87885
-9.90559
-9.93301
-9.95994
-9.98557
-10.0099
-10.0329
-10.0549
-10.0758
-10.0958
-10.1151
-10.1336
-10.1515
-10.1689
-10.1859
-10.2025
-10.2188
-10.2348
-10.2506
-10.2663
-10.2821
-10.2979
-10.3141
-10.3309
-10.3487
-10.3677
-10.04
-9.91714
-9.88162
-9.86361
-9.84682
-9.85282
-9.87256
-9.8952
-9.91903
-9.94385
-9.96858
-9.99251
-10.0155
-10.0375
-10.0586
-10.0788
-10.0983
-10.1171
-10.1352
-10.1529
-10.1701
-10.1869
-10.2033
-10.2195
-10.2355
-10.2513
-10.2672
-10.283
-10.2991
-10.3155
-10.3325
-10.3504
-10.3695
-9.99764
-9.92575
-9.89633
-9.88122
-9.86939
-9.87447
-9.89068
-9.91035
-9.93176
-9.95436
-9.97716
-9.99954
-10.0212
-10.0422
-10.0625
-10.0821
-10.101
-10.1193
-10.1371
-10.1545
-10.1714
-10.188
-10.2043
-10.2204
-10.2363
-10.2522
-10.268
-10.2839
-10.3001
-10.3166
-10.3337
-10.3516
-10.3704
-9.97179
-9.93075
-9.9076
-9.89563
-9.88789
-9.89276
-9.90658
-9.92401
-9.94345
-9.96416
-9.98531
-10.0063
-10.0269
-10.0469
-10.0664
-10.0853
-10.1037
-10.1216
-10.139
-10.1561
-10.1728
-10.1892
-10.2053
-10.2213
-10.2371
-10.2529
-10.2688
-10.2847
-10.3009
-10.3174
-10.3344
-10.352
-10.3704
-9.95694
-9.93431
-9.91698
-9.9079
-9.90331
-9.90823
-9.92043
-9.93614
-9.95395
-9.97309
-9.99281
-10.0126
-10.0321
-10.0513
-10.0701
-10.0884
-10.1063
-10.1237
-10.1408
-10.1576
-10.174
-10.1902
-10.2062
-10.222
-10.2378
-10.2535
-10.2692
-10.2851
-10.3012
-10.3176
-10.3344
-10.3517
-10.3696
-9.94957
-9.93762
-9.9252
-9.91864
-9.91641
-9.92149
-9.93251
-9.94687
-9.96331
-9.9811
-9.99958
-10.0183
-10.0369
-10.0553
-10.0734
-10.0911
-10.1085
-10.1256
-10.1424
-10.1588
-10.175
-10.191
-10.2068
-10.2225
-10.2381
-10.2537
-10.2693
-10.285
-10.301
-10.3171
-10.3336
-10.3505
-10.3678
-9.94714
-9.94119
-9.93268
-9.92828
-9.92779
-9.93302
-9.94316
-9.95638
-9.97164
-9.98825
-10.0056
-10.0233
-10.0411
-10.0588
-10.0762
-10.0935
-10.1104
-10.1271
-10.1435
-10.1597
-10.1756
-10.1914
-10.207
-10.2225
-10.238
-10.2534
-10.2689
-10.2844
-10.3001
-10.316
-10.3321
-10.3485
-10.3652
-9.94792
-9.9452
-9.93969
-9.93707
-9.93787
-9.94321
-9.95264
-9.96488
-9.97909
-9.99464
-10.011
-10.0278
-10.0448
-10.0618
-10.0787
-10.0954
-10.1119
-10.1282
-10.1443
-10.1601
-10.1758
-10.1914
-10.2068
-10.2221
-10.2373
-10.2526
-10.2678
-10.2831
-10.2985
-10.3141
-10.3298
-10.3457
-10.3617
-9.95072
-9.94967
-9.94637
-9.94518
-9.94692
-9.95233
-9.96116
-9.97255
-9.98579
-10.0004
-10.0158
-10.0318
-10.048
-10.0643
-10.0806
-10.0968
-10.1129
-10.1288
-10.1446
-10.1601
-10.1756
-10.1909
-10.206
-10.2211
-10.2361
-10.2511
-10.2661
-10.2811
-10.2962
-10.3114
-10.3266
-10.342
-10.3574
-9.95476
-9.95452
-9.95281
-9.95272
-9.95514
-9.96057
-9.96888
-9.97949
-9.99186
-10.0055
-10.0201
-10.0352
-10.0507
-10.0664
-10.0821
-10.0978
-10.1135
-10.129
-10.1444
-10.1597
-10.1748
-10.1899
-10.2048
-10.2196
-10.2344
-10.2491
-10.2638
-10.2785
-10.2932
-10.3079
-10.3227
-10.3375
-10.3523
-9.95954
-9.95965
-9.95904
-9.95978
-9.96265
-9.96803
-9.97588
-9.9858
-9.99736
-10.0102
-10.0239
-10.0383
-10.0531
-10.0681
-10.0833
-10.0985
-10.1137
-10.1288
-10.1438
-10.1588
-10.1736
-10.1884
-10.203
-10.2176
-10.232
-10.2465
-10.2608
-10.2752
-10.2895
-10.3037
-10.318
-10.3322
-10.3463
-9.96471
-9.96496
-9.96508
-9.96639
-9.96954
-9.97482
-9.98224
-9.99151
-10.0023
-10.0143
-10.0273
-10.0409
-10.055
-10.0694
-10.084
-10.0988
-10.1135
-10.1282
-10.1429
-10.1575
-10.172
-10.1864
-10.2008
-10.215
-10.2292
-10.2433
-10.2573
-10.2712
-10.2851
-10.2989
-10.3126
-10.3262
-10.3398
-9.97005
-9.97033
-9.97091
-9.97259
-9.97587
-9.981
-9.98798
-9.99666
-10.0068
-10.0181
-10.0303
-10.0432
-10.0566
-10.0704
-10.0845
-10.0987
-10.113
-10.1273
-10.1416
-10.1558
-10.17
-10.1841
-10.1981
-10.212
-10.2258
-10.2395
-10.2532
-10.2667
-10.2801
-10.2934
-10.3066
-10.3197
-10.3326
-9.97542
-9.97569
-9.97652
-9.9784
-9.98168
-9.98659
-9.99315
-10.0012
-10.0107
-10.0213
-10.0328
-10.045
-10.0579
-10.0711
-10.0846
-10.0983
-10.1121
-10.126
-10.1399
-10.1538
-10.1676
-10.1813
-10.195
-10.2086
-10.222
-10.2354
-10.2486
-10.2617
-10.2746
-10.2874
-10.3001
-10.3126
-10.3249
-9.98072
-9.98097
-9.98191
-9.98383
-9.987
-9.99162
-9.99773
-10.0053
-10.0141
-10.024
-10.0349
-10.0465
-10.0587
-10.0713
-10.0843
-10.0976
-10.1109
-10.1244
-10.1379
-10.1514
-10.1649
-10.1782
-10.1915
-10.2047
-10.2178
-10.2307
-10.2436
-10.2562
-10.2687
-10.281
-10.2931
-10.305
-10.3167
-9.98592
-9.98614
-9.98707
-9.9889
-9.99185
-9.99611
-10.0017
-10.0087
-10.0169
-10.0262
-10.0365
-10.0475
-10.0591
-10.0712
-10.0837
-10.0965
-10.1094
-10.1225
-10.1356
-10.1487
-10.1618
-10.1748
-10.1877
-10.2005
-10.2132
-10.2258
-10.2382
-10.2504
-10.2624
-10.2742
-10.2858
-10.2971
-10.3082
-9.99099
-9.99119
-9.99201
-9.99361
-9.99623
-10.0001
-10.0052
-10.0116
-10.0192
-10.0279
-10.0375
-10.048
-10.059
-10.0707
-10.0827
-10.095
-10.1075
-10.1202
-10.1329
-10.1457
-10.1584
-10.171
-10.1836
-10.196
-10.2083
-10.2205
-10.2324
-10.2442
-10.2557
-10.267
-10.2781
-10.2889
-10.2994
-9.99595
-9.99612
-9.99674
-9.99798
-10.0001
-10.0034
-10.008
-10.0138
-10.0208
-10.0289
-10.038
-10.0479
-10.0585
-10.0696
-10.0812
-10.0931
-10.1052
-10.1175
-10.1299
-10.1423
-10.1546
-10.167
-10.1792
-10.1912
-10.2031
-10.2149
-10.2264
-10.2377
-10.2488
-10.2596
-10.2702
-10.2805
-10.2904
-10.0008
-10.001
-10.0013
-10.002
-10.0036
-10.0063
-10.0102
-10.0153
-10.0217
-10.0293
-10.0378
-10.0472
-10.0573
-10.068
-10.0792
-10.0907
-10.1025
-10.1145
-10.1265
-10.1386
-10.1506
-10.1625
-10.1744
-10.1861
-10.1976
-10.209
-10.2201
-10.231
-10.2416
-10.252
-10.262
-10.2718
-10.2813
-10.0058
-10.0059
-10.0057
-10.0058
-10.0066
-10.0085
-10.0116
-10.0161
-10.0219
-10.0289
-10.0369
-10.0458
-10.0555
-10.0659
-10.0767
-10.0879
-10.0994
-10.111
-10.1227
-10.1345
-10.1462
-10.1578
-10.1693
-10.1807
-10.1919
-10.2028
-10.2136
-10.224
-10.2342
-10.2441
-10.2537
-10.263
-10.2719
-10.0109
-10.011
-10.0102
-10.0092
-10.009
-10.01
-10.0123
-10.016
-10.0212
-10.0276
-10.0352
-10.0437
-10.053
-10.0631
-10.0736
-10.0845
-10.0957
-10.107
-10.1185
-10.1299
-10.1414
-10.1527
-10.1639
-10.175
-10.1858
-10.1964
-10.2068
-10.2168
-10.2266
-10.2361
-10.2452
-10.254
-10.2625
-10.0164
-10.0165
-10.0147
-10.0124
-10.0109
-10.0107
-10.0121
-10.015
-10.0195
-10.0254
-10.0325
-10.0407
-10.0497
-10.0595
-10.0697
-10.0804
-10.0914
-10.1025
-10.1137
-10.125
-10.1362
-10.1472
-10.1582
-10.1689
-10.1794
-10.1897
-10.1997
-10.2094
-10.2188
-10.2279
-10.2366
-10.245
-10.253
-10.0229
-10.0228
-10.0195
-10.0154
-10.0122
-10.0106
-10.0107
-10.0128
-10.0166
-10.022
-10.0288
-10.0367
-10.0455
-10.055
-10.0651
-10.0756
-10.0864
-10.0974
-10.1084
-10.1195
-10.1304
-10.1413
-10.152
-10.1625
-10.1727
-10.1827
-10.1923
-10.2017
-10.2107
-10.2194
-10.2278
-10.2357
-10.2433
-10.0309
-10.0305
-10.025
-10.018
-10.0126
-10.0092
-10.0081
-10.0092
-10.0124
-10.0173
-10.0238
-10.0314
-10.0401
-10.0495
-10.0595
-10.0699
-10.0806
-10.0915
-10.1024
-10.1133
-10.1241
-10.1347
-10.1452
-10.1555
-10.1655
-10.1752
-10.1846
-10.1936
-10.2023
-10.2107
-10.2187
-10.2263
-10.2335
-10.0419
-10.0407
-10.0312
-10.0203
-10.0119
-10.0063
-10.0036
-10.0038
-10.0063
-10.0109
-10.0172
-10.0247
-10.0333
-10.0427
-10.0527
-10.0631
-10.0738
-10.0846
-10.0954
-10.1062
-10.1169
-10.1274
-10.1378
-10.1478
-10.1576
-10.1671
-10.1763
-10.1851
-10.1935
-10.2016
-10.2093
-10.2166
-10.2235
-10.0584
-10.0547
-10.0383
-10.0217
-10.0096
-10.0013
-9.99694
-9.99609
-9.99812
-10.0024
-10.0086
-10.0161
-10.0248
-10.0343
-10.0443
-10.0548
-10.0655
-10.0763
-10.0872
-10.098
-10.1087
-10.1192
-10.1294
-10.1394
-10.149
-10.1584
-10.1674
-10.176
-10.1842
-10.1921
-10.1995
-10.2066
-10.2132
-10.0865
-10.0753
-10.0458
-10.0207
-10.004
-9.9928
-9.98671
-9.9851
-9.98681
-9.99103
-9.99724
-10.005
-10.0138
-10.0235
-10.0337
-10.0444
-10.0553
-10.0662
-10.0772
-10.0881
-10.0988
-10.1093
-10.1196
-10.1296
-10.1392
-10.1485
-10.1574
-10.166
-10.1741
-10.1818
-10.1891
-10.196
-10.2025
-10.1386
-10.1103
-10.0566
-10.0179
-9.99377
-9.97812
-9.9702
-9.96824
-9.97017
-9.97492
-9.98185
-9.99037
-9.99999
-10.0104
-10.0213
-10.0325
-10.0439
-10.0553
-10.0666
-10.0777
-10.0887
-10.0994
-10.1097
-10.1198
-10.1294
-10.1387
-10.1476
-10.1561
-10.1641
-10.1717
-10.1789
-10.1857
-10.192
-10.2178
-10.155
-10.0728
-10.0221
-9.98576
-9.95971
-9.94645
-9.9418
-9.94196
-9.94578
-9.95261
-9.96158
-9.972
-9.98339
-9.99544
-10.0079
-10.0205
-10.0331
-10.0456
-10.0579
-10.07
-10.0817
-10.093
-10.1039
-10.1143
-10.1243
-10.1338
-10.1429
-10.1515
-10.1595
-10.1671
-10.1742
-10.1808
-10.362
-10.1289
-10.0035
-9.9964
-9.98655
-9.97233
-9.96886
-9.97055
-9.97283
-9.97615
-9.98114
-9.9875
-9.99487
-10.0031
-10.012
-10.0215
-10.0313
-10.0413
-10.0515
-10.0617
-10.0718
-10.0818
-10.0916
-10.1011
-10.1104
-10.1193
-10.1279
-10.1361
-10.1439
-10.1513
-10.1583
-10.165
-10.1712
-11.3109
-10.0775
-9.48628
-9.41359
-9.4327
-9.47386
-9.53194
-9.59114
-9.64548
-9.69562
-9.74188
-9.78391
-9.82181
-9.85607
-9.88717
-9.91547
-9.9413
-9.96493
-9.98663
-10.0066
-10.0251
-10.0421
-10.058
-10.0726
-10.0863
-10.0989
-10.1107
-10.1216
-10.1317
-10.1411
-10.1497
-10.1576
-10.1648
-15.0768
-12.8662
-11.8532
-11.2336
-10.8159
-10.568
-10.4051
-10.2815
-10.1894
-10.1258
-10.0833
-10.0551
-10.0373
-10.0273
-10.0231
-10.0232
-10.0263
-10.0317
-10.0386
-10.0466
-10.0553
-10.0644
-10.0738
-10.0832
-10.0925
-10.1017
-10.1106
-10.1192
-10.1274
-10.1353
-10.1428
-10.1499
-10.1566
-1.21688
-5.30372
-7.4155
-8.17868
-8.61002
-8.97063
-9.23869
-9.41777
-9.54429
-9.64263
-9.72086
-9.78274
-9.83242
-9.87354
-9.90838
-9.93837
-9.96453
-9.98767
-10.0084
-10.0271
-10.0441
-10.0597
-10.0741
-10.0873
-10.0996
-10.1109
-10.1215
-10.1312
-10.1403
-10.1486
-10.1563
-10.1634
-10.1699
-10.3071
-10.0559
-10.363
-10.6601
-10.7855
-10.8279
-10.8465
-10.8537
-10.8562
-10.8634
-10.8823
-10.9145
-10.9591
-11.0138
-11.0759
-11.1424
-11.2105
-11.2775
-11.3411
-11.3993
-11.4507
-11.4942
-11.5287
-11.5538
-11.5692
-11.5746
-11.57
-11.5557
-11.5315
-11.4975
-11.4538
-11.4004
-11.3373
-11.2644
-11.1815
-11.0885
-10.9853
-10.8716
-10.7473
-10.6121
-10.4658
-10.3083
-10.1394
-9.9591
-9.76719
-9.56377
-9.34899
-9.12307
-8.8863
-8.63909
-8.38205
-8.11583
-7.84121
-7.55912
-7.27059
-6.97672
-6.67874
-6.37793
-6.07562
-5.77318
-5.47199
-5.1734
-4.87875
-4.58931
-4.30626
-4.03068
-3.76352
-3.50564
-3.25773
-3.02034
-2.7939
-2.57868
-2.37485
-2.18246
-2.00143
-1.83162
-1.67275
-1.52448
-1.38644
-1.25816
-1.13917
-1.02896
-0.927039
-0.832871
-0.745943
-0.665772
-0.591871
-0.523796
-0.46109
-0.403399
-0.350226
-0.301446
-0.25619
-0.215172
-0.175848
-0.142293
-0.104854
-0.0818106
-0.0343802
-0.0409498
-10.3571
-10.3412
-10.538
-10.6932
-10.7363
-10.7394
-10.7424
-10.7477
-10.7565
-10.7743
-10.8048
-10.8473
-10.8998
-10.96
-11.0255
-11.0939
-11.1627
-11.2298
-11.2931
-11.351
-11.4021
-11.4453
-11.4797
-11.5047
-11.5201
-11.5255
-11.521
-11.5068
-11.4828
-11.449
-11.4054
-11.3522
-11.2893
-11.2165
-11.1339
-11.0412
-10.9382
-10.8249
-10.701
-10.5663
-10.4205
-10.2637
-10.0956
-9.91618
-9.72534
-9.52315
-9.30977
-9.08541
-8.85039
-8.60511
-8.35015
-8.08619
-7.81398
-7.53442
-7.24853
-6.95739
-6.66219
-6.36418
-6.06466
-5.76498
-5.46646
-5.17045
-4.87824
-4.59109
-4.31014
-4.03647
-3.77102
-3.51463
-3.26799
-3.03167
-2.80608
-2.59152
-2.38816
-2.19607
-2.01518
-1.84536
-1.68635
-1.53783
-1.39945
-1.27074
-1.15125
-1.0405
-0.937998
-0.843216
-0.755655
-0.674838
-0.600282
-0.531551
-0.468185
-0.409838
-0.356005
-0.306574
-0.260644
-0.219002
-0.178934
-0.144914
-0.106384
-0.0838643
-0.0332991
-0.0460629
-10.3689
-10.376
-10.4639
-10.5764
-10.6471
-10.6871
-10.7164
-10.7381
-10.7541
-10.7714
-10.7955
-10.8286
-10.871
-10.9221
-10.9803
-11.0434
-11.1088
-11.174
-11.2364
-11.2941
-11.3452
-11.3884
-11.4229
-11.4482
-11.4638
-11.4695
-11.4654
-11.4517
-11.4281
-11.3947
-11.3515
-11.2987
-11.2362
-11.1638
-11.0816
-10.9893
-10.8869
-10.7741
-10.6507
-10.5166
-10.3717
-10.2157
-10.0486
-9.87029
-9.68073
-9.47998
-9.2682
-9.04563
-8.81256
-8.56941
-8.31676
-8.05525
-7.78563
-7.50879
-7.22571
-6.93745
-6.64518
-6.3501
-6.05351
-5.75668
-5.46095
-5.16762
-4.87795
-4.59316
-4.3144
-4.04271
-3.77904
-3.5242
-3.2789
-3.04369
-2.819
-2.60514
-2.40228
-2.21051
-2.02976
-1.85994
-1.70078
-1.552
-1.41326
-1.2841
-1.16409
-1.05277
-0.94964
-0.854203
-0.765968
-0.684462
-0.609208
-0.539775
-0.475705
-0.416659
-0.362122
-0.311995
-0.265358
-0.223042
-0.182209
-0.147658
-0.108065
-0.0859279
-0.0324192
-0.0509548
-10.3742
-10.3959
-10.4652
-10.5679
-10.6424
-10.6816
-10.7052
-10.7227
-10.7379
-10.7557
-10.7805
-10.8137
-10.8553
-10.9041
-10.9585
-11.0165
-11.076
-11.1349
-11.1916
-11.2444
-11.2915
-11.3317
-11.3643
-11.3884
-11.4035
-11.4092
-11.4053
-11.3918
-11.3685
-11.3355
-11.2929
-11.2406
-11.1786
-11.1068
-11.0251
-10.9334
-10.8316
-10.7194
-10.5968
-10.4636
-10.3195
-10.1646
-9.99866
-9.82164
-9.63354
-9.43441
-9.22442
-9.0038
-8.77286
-8.53202
-8.28182
-8.02292
-7.75605
-7.48206
-7.20193
-6.91669
-6.62746
-6.33544
-6.04188
-5.74803
-5.45519
-5.16463
-4.8776
-4.59528
-4.3188
-4.04919
-3.78738
-3.53418
-3.29028
-3.05626
-2.83253
-2.61942
-2.41711
-2.22569
-2.04512
-1.8753
-1.71601
-1.56697
-1.42785
-1.29823
-1.17768
-1.06576
-0.961975
-0.86585
-0.776905
-0.694668
-0.618673
-0.548495
-0.483678
-0.423886
-0.368602
-0.317735
-0.270353
-0.227316
-0.185689
-0.150551
-0.109901
-0.0880411
-0.0317084
-0.0556683
-10.3807
-10.4113
-10.4694
-10.5489
-10.6111
-10.6485
-10.6749
-10.6978
-10.7191
-10.7415
-10.7684
-10.8014
-10.8408
-10.8861
-10.9362
-10.9895
-11.0444
-11.0989
-11.1514
-11.2002
-11.2437
-11.2808
-11.3106
-11.3324
-11.3455
-11.3499
-11.3451
-11.3309
-11.3073
-11.2743
-11.2319
-11.1798
-11.1181
-11.0467
-10.9655
-10.8744
-10.7732
-10.6618
-10.54
-10.4076
-10.2646
-10.1108
-9.9461
-9.7705
-9.58396
-9.38658
-9.17849
-8.95995
-8.73126
-8.49284
-8.24522
-7.98904
-7.72502
-7.454
-7.17692
-6.8948
-6.60873
-6.31988
-6.02945
-5.73869
-5.44885
-5.16118
-4.87689
-4.59715
-4.32306
-4.05564
-3.79579
-3.54434
-3.30195
-3.06919
-2.84651
-2.63422
-2.43252
-2.2415
-2.06115
-1.89138
-1.73197
-1.58269
-1.44319
-1.3131
-1.19201
-1.07947
-0.975004
-0.878161
-0.788472
-0.705467
-0.628692
-0.557726
-0.49212
-0.431539
-0.375464
-0.323814
-0.275645
-0.23184
-0.189391
-0.153604
-0.111908
-0.0902085
-0.0311905
-0.0601508
-10.3861
-10.4192
-10.4686
-10.5321
-10.5878
-10.6271
-10.6569
-10.6826
-10.706
-10.7296
-10.7565
-10.7883
-10.8254
-10.8675
-10.9139
-10.963
-11.0135
-11.0636
-11.1118
-11.1566
-11.1966
-11.2305
-11.2577
-11.2772
-11.2885
-11.2914
-11.2854
-11.2703
-11.2461
-11.2127
-11.17
-11.1179
-11.0562
-10.985
-10.9041
-10.8134
-10.7127
-10.6019
-10.4808
-10.3493
-10.2073
-10.0546
-9.89124
-9.71707
-9.53215
-9.33655
-9.13042
-8.91402
-8.68764
-8.45171
-8.20674
-7.95336
-7.69228
-7.42432
-7.15039
-6.87148
-6.58867
-6.30309
-6.01591
-5.72835
-5.44163
-5.15697
-4.87555
-4.59852
-4.32694
-4.06183
-3.80407
-3.55447
-3.3137
-3.08232
-2.86078
-2.64939
-2.44838
-2.25784
-2.07775
-1.90806
-1.74858
-1.59909
-1.45923
-1.32868
-1.20704
-1.09386
-0.988707
-0.891125
-0.800662
-0.716857
-0.639267
-0.567476
-0.50104
-0.439628
-0.382723
-0.330243
-0.281247
-0.236627
-0.193329
-0.15683
-0.114102
-0.0924277
-0.0308972
-0.0643338
-10.3899
-10.4229
-10.4667
-10.5199
-10.5695
-10.6082
-10.6389
-10.6658
-10.6907
-10.7156
-10.743
-10.7741
-10.8096
-10.8491
-10.892
-10.9373
-10.9835
-11.0294
-11.0733
-11.1141
-11.1503
-11.181
-11.2052
-11.2223
-11.2316
-11.2327
-11.2254
-11.2093
-11.1843
-11.1503
-11.1071
-11.0547
-10.993
-10.9218
-10.8411
-10.7506
-10.6504
-10.5401
-10.4197
-10.289
-10.1479
-9.99636
-9.83422
-9.66148
-9.47816
-9.28435
-9.08021
-8.86597
-8.64194
-8.40855
-8.16629
-7.91577
-7.6577
-7.39287
-7.12217
-6.84657
-6.56712
-6.28491
-6.0011
-5.71686
-5.43338
-5.15185
-4.87343
-4.59922
-4.33029
-4.06761
-3.81207
-3.56444
-3.32539
-3.0955
-2.8752
-2.66483
-2.46457
-2.27456
-2.09481
-1.92527
-1.76577
-1.61609
-1.4759
-1.34491
-1.22272
-1.10892
-1.00306
-0.90472
-0.813461
-0.728832
-0.650395
-0.577746
-0.510443
-0.448161
-0.390386
-0.337035
-0.287171
-0.241691
-0.197515
-0.160245
-0.116494
-0.0946961
-0.0308544
-0.0681641
-10.3922
-10.4244
-10.4639
-10.5097
-10.5539
-10.591
-10.6219
-10.6496
-10.6756
-10.7015
-10.729
-10.7594
-10.7931
-10.8301
-10.8699
-10.9115
-10.9538
-10.9956
-11.0356
-11.0725
-11.1051
-11.1325
-11.1538
-11.1683
-11.1753
-11.1746
-11.1656
-11.1482
-11.1222
-11.0874
-11.0436
-10.9908
-10.9288
-10.8575
-10.7768
-10.6865
-10.5865
-10.4767
-10.3569
-10.2269
-10.0867
-9.93619
-9.77527
-9.60394
-9.42221
-9.23019
-9.02803
-8.81597
-8.59432
-8.36349
-8.12398
-7.87638
-7.62138
-7.35975
-7.09236
-6.82016
-6.54415
-6.26541
-5.98507
-5.70425
-5.42412
-5.14584
-4.87052
-4.59927
-4.3331
-4.07296
-3.81974
-3.57419
-3.33698
-3.10868
-2.88972
-2.68042
-2.481
-2.2916
-2.11227
-1.94293
-1.78345
-1.63363
-1.49315
-1.36173
-1.23901
-1.12458
-1.01802
-0.918919
-0.826849
-0.741375
-0.662067
-0.588529
-0.520328
-0.457141
-0.398459
-0.344197
-0.293427
-0.247041
-0.201961
-0.163855
-0.119097
-0.0970123
-0.0310836
-0.0716023
-10.3935
-10.4242
-10.4603
-10.5006
-10.5403
-10.5755
-10.6062
-10.6341
-10.6606
-10.6869
-10.7142
-10.7437
-10.7758
-10.8104
-10.8473
-10.8855
-10.9241
-10.9621
-10.9982
-11.0314
-11.0606
-11.0847
-11.1031
-11.115
-11.1198
-11.117
-11.1064
-11.0876
-11.0604
-11.0246
-10.98
-10.9266
-10.8642
-10.7927
-10.7118
-10.6216
-10.5218
-10.4123
-10.2929
-10.1636
-10.0242
-9.87469
-9.71494
-9.54497
-9.36481
-9.17456
-8.97437
-8.7645
-8.54524
-8.31699
-8.08025
-7.8356
-7.58371
-7.32533
-7.06131
-6.79256
-6.52006
-6.24487
-5.96806
-5.69075
-5.41406
-5.13911
-4.86699
-4.59877
-4.33545
-4.07795
-3.82714
-3.58376
-3.34849
-3.12186
-2.9043
-2.69614
-2.49764
-2.30894
-2.13008
-1.961
-1.80159
-1.65166
-1.51092
-1.3791
-1.25586
-1.14081
-1.03356
-0.933692
-0.840802
-0.754466
-0.674268
-0.599818
-0.53069
-0.466564
-0.406943
-0.351732
-0.30002
-0.252685
-0.206673
-0.167669
-0.121921
-0.0993753
-0.0316026
-0.0746125
-10.3936
-10.4229
-10.4561
-10.4922
-10.5282
-10.5613
-10.5913
-10.6191
-10.6456
-10.6718
-10.6987
-10.7272
-10.7577
-10.7901
-10.8241
-10.8591
-10.8942
-10.9286
-10.961
-10.9907
-11.0164
-11.0374
-11.0529
-11.0622
-11.0647
-11.0599
-11.0476
-11.0273
-10.9988
-10.962
-10.9166
-10.8625
-10.7996
-10.7276
-10.6466
-10.5563
-10.4566
-10.3473
-10.2284
-10.0997
-9.96105
-9.81244
-9.65382
-9.48518
-9.30656
-9.11805
-8.91982
-8.71212
-8.49524
-8.26958
-8.03563
-7.79394
-7.54518
-7.29007
-7.02944
-6.76418
-6.49524
-6.22364
-5.95042
-5.67666
-5.40346
-5.1319
-4.86304
-4.59792
-4.33751
-4.08272
-3.83439
-3.59326
-3.35998
-3.13506
-2.91897
-2.71204
-2.51454
-2.32657
-2.14823
-1.97945
-1.82015
-1.67014
-1.52917
-1.39698
-1.27324
-1.15759
-1.04964
-0.949009
-0.855292
-0.768085
-0.68698
-0.611596
-0.541517
-0.476425
-0.415834
-0.359639
-0.306954
-0.258627
-0.211658
-0.171691
-0.124972
-0.101785
-0.0324241
-0.0771645
-10.3929
-10.4207
-10.4513
-10.4841
-10.517
-10.5481
-10.5771
-10.6043
-10.6304
-10.6563
-10.6826
-10.7099
-10.7387
-10.7689
-10.8003
-10.8322
-10.8641
-10.8949
-10.9239
-10.9501
-10.9725
-10.9905
-11.0031
-11.0098
-11.0099
-11.0032
-10.989
-10.9672
-10.9374
-10.8995
-10.8532
-10.7984
-10.7349
-10.6626
-10.5813
-10.4909
-10.3913
-10.2822
-10.1636
-10.0355
-9.89756
-9.74987
-9.59236
-9.42502
-9.24791
-9.06113
-8.86485
-8.65931
-8.44481
-8.22173
-7.99056
-7.75184
-7.50621
-7.25439
-6.99717
-6.73541
-6.47005
-6.20205
-5.93245
-5.66227
-5.39259
-5.12446
-4.8589
-4.59692
-4.33947
-4.08743
-3.84163
-3.60279
-3.37153
-3.14839
-2.93382
-2.72818
-2.53169
-2.34452
-2.16672
-1.99829
-1.83912
-1.68907
-1.54789
-1.41535
-1.29113
-1.17488
-1.06624
-0.964845
-0.870298
-0.78221
-0.700185
-0.623849
-0.552798
-0.486715
-0.425126
-0.367917
-0.314228
-0.26487
-0.216918
-0.175925
-0.128255
-0.104244
-0.0335554
-0.079236
-10.3912
-10.4175
-10.446
-10.4761
-10.5063
-10.5355
-10.5632
-10.5896
-10.6152
-10.6404
-10.6658
-10.6919
-10.7191
-10.7471
-10.7759
-10.805
-10.8336
-10.8612
-10.8868
-10.9096
-10.9289
-10.9438
-10.9536
-10.9577
-10.9555
-10.9467
-10.9308
-10.9074
-10.8762
-10.8372
-10.79
-10.7344
-10.6703
-10.5976
-10.516
-10.4255
-10.3259
-10.217
-10.0988
-9.97119
-9.834
-9.68721
-9.53079
-9.36476
-9.18916
-9.00411
-8.80977
-8.60639
-8.39426
-8.17377
-7.94538
-7.70963
-7.46714
-7.2186
-6.96479
-6.70654
-6.44476
-6.18038
-5.9144
-5.64783
-5.38168
-5.11699
-4.85475
-4.59594
-4.34147
-4.09222
-3.84898
-3.61245
-3.38325
-3.16193
-2.94894
-2.7446
-2.54917
-2.3628
-2.18559
-2.01752
-1.85852
-1.70844
-1.56708
-1.4342
-1.3095
-1.19267
-1.08335
-0.981183
-0.885802
-0.796824
-0.713866
-0.636563
-0.56452
-0.497423
-0.434811
-0.376559
-0.321838
-0.271412
-0.222454
-0.180374
-0.13177
-0.106754
-0.0349977
-0.0808135
-10.3885
-10.4135
-10.4401
-10.4679
-10.4959
-10.5233
-10.5496
-10.575
-10.5997
-10.624
-10.6484
-10.6732
-10.6986
-10.7246
-10.7509
-10.7772
-10.8028
-10.8272
-10.8496
-10.8692
-10.8854
-10.8973
-10.9044
-10.9059
-10.9015
-10.8906
-10.8728
-10.8478
-10.8153
-10.7751
-10.7269
-10.6705
-10.6059
-10.5327
-10.4508
-10.3602
-10.2606
-10.1519
-10.0341
-9.90699
-9.77052
-9.62464
-9.46932
-9.3046
-9.13052
-8.9472
-8.75481
-8.55359
-8.34384
-8.12593
-7.90033
-7.66754
-7.42819
-7.18293
-6.93253
-6.6778
-6.41959
-6.15884
-5.89648
-5.63351
-5.37091
-5.10967
-4.85076
-4.59513
-4.34366
-4.09721
-3.85654
-3.62234
-3.39524
-3.17577
-2.96436
-2.76135
-2.567
-2.38148
-2.20487
-2.03719
-1.87836
-1.72828
-1.58674
-1.45353
-1.32837
-1.21095
-1.10094
-0.998011
-0.901789
-0.811913
-0.728011
-0.649725
-0.576673
-0.508539
-0.444882
-0.38556
-0.329779
-0.278252
-0.228264
-0.18504
-0.135515
-0.10932
-0.0367447
-0.0818937
-10.385
-10.4087
-10.4336
-10.4594
-10.4854
-10.5111
-10.5361
-10.5603
-10.5839
-10.6072
-10.6305
-10.6539
-10.6776
-10.7014
-10.7254
-10.749
-10.7717
-10.7931
-10.8124
-10.8289
-10.8421
-10.8511
-10.8555
-10.8545
-10.8478
-10.8348
-10.8152
-10.7886
-10.7548
-10.7133
-10.6642
-10.607
-10.5417
-10.468
-10.3858
-10.2951
-10.1955
-10.087
-9.96958
-9.84302
-9.70728
-9.56232
-9.40812
-9.24471
-9.07216
-8.89058
-8.70015
-8.5011
-8.29373
-8.07842
-7.85559
-7.62578
-7.38955
-7.14758
-6.90059
-6.64936
-6.39473
-6.13759
-5.87886
-5.61949
-5.36043
-5.10264
-4.84706
-4.59461
-4.34615
-4.1025
-3.86441
-3.63257
-3.40759
-3.18997
-2.98016
-2.7785
-2.58524
-2.40057
-2.22458
-2.0573
-1.89867
-1.74859
-1.60688
-1.47334
-1.34772
-1.22972
-1.11903
-1.01532
-0.918254
-0.827469
-0.742609
-0.663325
-0.589245
-0.520057
-0.45533
-0.394913
-0.338048
-0.285388
-0.234345
-0.189921
-0.139487
-0.111943
-0.0387837
-0.0824864
-10.3807
-10.4031
-10.4264
-10.4505
-10.4748
-10.4988
-10.5224
-10.5454
-10.5679
-10.59
-10.612
-10.6339
-10.6558
-10.6777
-10.6993
-10.7203
-10.7403
-10.7588
-10.7751
-10.7888
-10.799
-10.8053
-10.807
-10.8036
-10.7946
-10.7796
-10.7582
-10.73
-10.6947
-10.652
-10.6018
-10.5438
-10.4779
-10.4037
-10.3213
-10.2303
-10.1308
-10.0226
-9.90547
-9.77946
-9.64446
-9.50042
-9.34735
-9.18528
-9.01427
-8.83444
-8.64597
-8.4491
-8.24412
-8.0314
-7.81136
-7.58451
-7.35142
-7.11272
-6.86913
-6.62139
-6.37033
-6.11679
-5.86167
-5.60589
-5.35037
-5.09602
-4.84377
-4.59449
-4.34903
-4.10819
-3.87269
-3.64321
-3.42034
-3.20459
-2.99639
-2.79608
-2.60393
-2.42012
-2.24476
-2.07788
-1.91945
-1.76938
-1.62751
-1.49365
-1.36757
-1.24898
-1.1376
-1.03312
-0.935189
-0.843484
-0.757653
-0.677355
-0.60223
-0.531966
-0.466149
-0.404613
-0.346639
-0.292814
-0.240694
-0.195019
-0.143679
-0.114627
-0.0410963
-0.082613
-10.3755
-10.3967
-10.4186
-10.4411
-10.4638
-10.4863
-10.5085
-10.5302
-10.5515
-10.5724
-10.593
-10.6134
-10.6335
-10.6534
-10.6728
-10.6913
-10.7087
-10.7244
-10.7379
-10.7487
-10.7562
-10.7598
-10.7589
-10.7532
-10.742
-10.725
-10.7017
-10.6719
-10.6352
-10.5914
-10.5401
-10.4813
-10.4147
-10.34
-10.2573
-10.1662
-10.0667
-9.95866
-9.84196
-9.71651
-9.58225
-9.43916
-9.28723
-9.1265
-8.95704
-8.77898
-8.59249
-8.3978
-8.19521
-7.98508
-7.76782
-7.54393
-7.31396
-7.07853
-6.83832
-6.59406
-6.34654
-6.09659
-5.84507
-5.59286
-5.34085
-5.08993
-4.84099
-4.59488
-4.35241
-4.11437
-3.88145
-3.65433
-3.43357
-3.21968
-3.01309
-2.81414
-2.62309
-2.44015
-2.26543
-2.09896
-1.94074
-1.79068
-1.64864
-1.51446
-1.38791
-1.26873
-1.15666
-1.05138
-0.952588
-0.859951
-0.773135
-0.691808
-0.615619
-0.544261
-0.477332
-0.414654
-0.355546
-0.300528
-0.247305
-0.20033
-0.148084
-0.117374
-0.0436592
-0.0823047
-10.3695
-10.3896
-10.4102
-10.4313
-10.4525
-10.4736
-10.4944
-10.5148
-10.5348
-10.5544
-10.5735
-10.5923
-10.6108
-10.6287
-10.6459
-10.6621
-10.6769
-10.69
-10.7009
-10.7089
-10.7138
-10.7148
-10.7115
-10.7034
-10.69
-10.671
-10.646
-10.6146
-10.5765
-10.5315
-10.4792
-10.4196
-10.3523
-10.2772
-10.1941
-10.1029
-10.0034
-9.89558
-9.77926
-9.65438
-9.52089
-9.37875
-9.22798
-9.0686
-8.9007
-8.7244
-8.53989
-8.34739
-8.1472
-7.93965
-7.72517
-7.50423
-7.27737
-7.04518
-6.80833
-6.56754
-6.32355
-6.07716
-5.82921
-5.58054
-5.33202
-5.0845
-4.83885
-4.59588
-4.35638
-4.12112
-3.89078
-3.66599
-3.44734
-3.2353
-3.03031
-2.83272
-2.64278
-2.4607
-2.2866
-2.12055
-1.96253
-1.81247
-1.67027
-1.53576
-1.40874
-1.28897
-1.17619
-1.07012
-0.970445
-0.876863
-0.789047
-0.706674
-0.629404
-0.556932
-0.48887
-0.425028
-0.364762
-0.308524
-0.254173
-0.205851
-0.152694
-0.120187
-0.0464443
-0.0816006
-10.3628
-10.3818
-10.4012
-10.421
-10.4408
-10.4605
-10.48
-10.4991
-10.5177
-10.5359
-10.5537
-10.5709
-10.5876
-10.6036
-10.6187
-10.6326
-10.6451
-10.6557
-10.664
-10.6695
-10.6718
-10.6703
-10.6646
-10.6543
-10.6389
-10.618
-10.5912
-10.5582
-10.5188
-10.4725
-10.4193
-10.3588
-10.2909
-10.2153
-10.1319
-10.0406
-9.94115
-9.83353
-9.71761
-9.59332
-9.4606
-9.31943
-9.16981
-9.0118
-8.84547
-8.67095
-8.48842
-8.29811
-8.1003
-7.89533
-7.68361
-7.46561
-7.24183
-7.01287
-6.77937
-6.542
-6.3015
-6.05865
-5.81423
-5.56907
-5.324
-5.07986
-4.83746
-4.5976
-4.36105
-4.12854
-3.90075
-3.67828
-3.46171
-3.25151
-3.04811
-2.85186
-2.66301
-2.48179
-2.30832
-2.14266
-1.98483
-1.83478
-1.69241
-1.55756
-1.43006
-1.30969
-1.1962
-1.08931
-0.988748
-0.894207
-0.805376
-0.721941
-0.643572
-0.569967
-0.500753
-0.435725
-0.374278
-0.316793
-0.26129
-0.211579
-0.157497
-0.123066
-0.0494196
-0.0805462
-10.3554
-10.3734
-10.3917
-10.4102
-10.4287
-10.4472
-10.4653
-10.4831
-10.5004
-10.5172
-10.5335
-10.5492
-10.5641
-10.5782
-10.5913
-10.6031
-10.6133
-10.6215
-10.6274
-10.6305
-10.6303
-10.6265
-10.6186
-10.6061
-10.5887
-10.5659
-10.5374
-10.503
-10.4622
-10.4148
-10.3605
-10.2992
-10.2306
-10.1546
-10.0709
-9.97949
-9.88013
-9.77275
-9.65724
-9.53355
-9.40162
-9.26142
-9.11299
-8.95635
-8.79159
-8.61885
-8.43831
-8.25018
-8.05475
-7.85235
-7.64338
-7.42829
-7.20758
-6.98181
-6.75162
-6.51764
-6.2806
-6.04123
-5.80031
-5.55862
-5.31696
-5.07615
-4.83696
-4.60017
-4.36653
-4.13673
-3.91145
-3.69127
-3.47675
-3.26837
-3.06654
-2.8716
-2.68384
-2.50345
-2.33058
-2.16532
-2.00767
-1.85761
-1.71505
-1.57986
-1.45187
-1.33088
-1.21666
-1.10895
-1.00748
-0.91197
-0.822108
-0.737595
-0.65811
-0.583354
-0.512966
-0.446732
-0.384082
-0.325327
-0.268643
-0.217504
-0.162481
-0.126015
-0.0525501
-0.0791907
-10.3474
-10.3644
-10.3817
-10.399
-10.4163
-10.4335
-10.4504
-10.4669
-10.4829
-10.4983
-10.5131
-10.5272
-10.5405
-10.5528
-10.5639
-10.5736
-10.5816
-10.5876
-10.5912
-10.592
-10.5895
-10.5835
-10.5734
-10.5589
-10.5395
-10.515
-10.4849
-10.4489
-10.4068
-10.3583
-10.3031
-10.241
-10.1718
-10.0954
-10.0114