/*--------------------------------*- C++ -*----------------------------------*\
  =========                 |
  \\      /  F ield         | OpenFOAM: The Open Source CFD Toolbox
   \\    /   O peration     | Website:  https://openfoam.org
    \\  /    A nd           | Version:  10
     \\/     M anipulation  |
\*---------------------------------------------------------------------------*/
FoamFile
{
    format      ascii;
    class       volVectorField;
    location    "1100";
    object      U;
}
// * * * * * * * * * * * * * * * * * * * * * * * * * * * * * * * * * * * * * //

dimensions      [0 1 -1 0 0 0 0];

internalField   nonuniform List<vector> 
6820
(
(7.13228 -2.83247 0)
(7.73434 -2.22097 0)
(7.93448 -1.24474 0)
(7.85773 -0.6306 0)
(7.69324 -0.300931 0)
(7.51792 -0.135203 0)
(7.34937 -0.0534969 0)
(7.19463 -0.0130606 0)
(7.05694 0.00686805 0)
(6.93549 0.0163328 0)
(6.82783 0.0203896 0)
(6.73176 0.0216666 0)
(6.64553 0.0215373 0)
(6.56773 0.020717 0)
(6.49715 0.0195836 0)
(6.43278 0.0183401 0)
(6.37384 0.0170941 0)
(6.31964 0.0158997 0)
(6.26964 0.0147818 0)
(6.22336 0.0137497 0)
(6.18041 0.0128049 0)
(6.14044 0.0119446 0)
(6.10315 0.0111646 0)
(6.06827 0.0104607 0)
(6.03555 0.00982975 0)
(6.00479 0.00927073 0)
(5.97575 0.00878653 0)
(5.94822 0.00838394 0)
(5.922 0.00809239 0)
(5.8966 0.00791814 0)
(5.87258 0.00801223 0)
(5.84603 0.00891507 0)
(5.82182 0.00806927 0)
(7.57676 0.619468 0)
(7.41857 0.759314 0)
(7.35518 0.51949 0)
(7.35368 0.338998 0)
(7.40446 0.233424 0)
(7.46266 0.167015 0)
(7.5028 0.124256 0)
(7.52296 0.097055 0)
(7.52874 0.0793575 0)
(7.52455 0.0672666 0)
(7.51318 0.0586462 0)
(7.49676 0.0523021 0)
(7.47704 0.0474918 0)
(7.45521 0.0437277 0)
(7.43207 0.0406896 0)
(7.40818 0.0381722 0)
(7.38394 0.0360397 0)
(7.35964 0.0341988 0)
(7.33549 0.0325843 0)
(7.31162 0.0311502 0)
(7.28815 0.0298637 0)
(7.26515 0.0287014 0)
(7.24266 0.0276467 0)
(7.22071 0.0266883 0)
(7.19933 0.0258201 0)
(7.17851 0.025041 0)
(7.15827 0.0243574 0)
(7.13858 0.0237815 0)
(7.11946 0.0233553 0)
(7.10077 0.0230908 0)
(7.08299 0.0233554 0)
(7.06461 0.0234358 0)
(7.04966 0.0265738 0)
(7.26194 -0.0479146 0)
(7.1598 -0.0718991 0)
(7.19681 -0.084502 0)
(7.23914 -0.0533682 0)
(7.27631 -0.017222 0)
(7.31446 0.00633832 0)
(7.34736 0.0206579 0)
(7.37268 0.030012 0)
(7.39198 0.0360119 0)
(7.4065 0.039494 0)
(7.41687 0.0412601 0)
(7.42373 0.0419567 0)
(7.42779 0.0419933 0)
(7.42964 0.0416143 0)
(7.4297 0.0409785 0)
(7.42834 0.0401936 0)
(7.42582 0.0393301 0)
(7.42239 0.0384321 0)
(7.41822 0.0375279 0)
(7.41346 0.0366356 0)
(7.40824 0.0357673 0)
(7.40264 0.0349312 0)
(7.39676 0.0341335 0)
(7.39064 0.0333795 0)
(7.38435 0.0326759 0)
(7.37792 0.0320308 0)
(7.37139 0.0314583 0)
(7.36477 0.0309758 0)
(7.35811 0.0306264 0)
(7.35136 0.0304305 0)
(7.34473 0.0306097 0)
(7.33787 0.0308739 0)
(7.33184 0.0324099 0)
(7.29243 -0.0887256 0)
(7.22392 -0.0614725 0)
(7.23482 -0.0268995 0)
(7.25115 -0.00103357 0)
(7.2656 0.0189103 0)
(7.28496 0.0304708 0)
(7.30449 0.036274 0)
(7.32129 0.0394565 0)
(7.33582 0.0412413 0)
(7.3485 0.0420196 0)
(7.35931 0.0421313 0)
(7.36832 0.0418683 0)
(7.37578 0.0413986 0)
(7.3819 0.040806 0)
(7.38688 0.040141 0)
(7.39087 0.039439 0)
(7.39402 0.0387233 0)
(7.39645 0.0380081 0)
(7.39827 0.0373025 0)
(7.39956 0.0366128 0)
(7.4004 0.035944 0)
(7.40085 0.0353003 0)
(7.40097 0.034686 0)
(7.4008 0.0341061 0)
(7.40038 0.0335676 0)
(7.39974 0.0330802 0)
(7.39891 0.0326588 0)
(7.39791 0.0323229 0)
(7.39678 0.0321107 0)
(7.39551 0.0320512 0)
(7.39424 0.0322732 0)
(7.39288 0.0326507 0)
(7.39187 0.033754 0)
(7.31244 -0.0515033 0)
(7.26793 -0.0318755 0)
(7.26467 -0.0126191 0)
(7.26769 -5.8164e-05 0)
(7.27322 0.013053 0)
(7.28436 0.022648 0)
(7.29691 0.0282837 0)
(7.30832 0.0318838 0)
(7.31873 0.0343765 0)
(7.32833 0.0359795 0)
(7.337 0.0369009 0)
(7.34469 0.0373703 0)
(7.35151 0.0375412 0)
(7.35755 0.0375009 0)
(7.36289 0.0373093 0)
(7.36762 0.0370122 0)
(7.37179 0.0366434 0)
(7.37549 0.0362266 0)
(7.37877 0.0357789 0)
(7.38167 0.0353134 0)
(7.38424 0.0348408 0)
(7.38653 0.0343698 0)
(7.38855 0.0339087 0)
(7.39034 0.0334656 0)
(7.39193 0.0330501 0)
(7.39334 0.0326738 0)
(7.39459 0.0323523 0)
(7.3957 0.032105 0)
(7.39669 0.0319628 0)
(7.39761 0.0319533 0)
(7.39852 0.0321457 0)
(7.39944 0.0325025 0)
(7.40062 0.0332609 0)
(7.3203 -0.0314406 0)
(7.28849 -0.0238376 0)
(7.28204 -0.0120238 0)
(7.2814 -0.00207227 0)
(7.28395 0.00926714 0)
(7.29103 0.0182373 0)
(7.2996 0.0239842 0)
(7.30776 0.027859 0)
(7.31545 0.0306263 0)
(7.32275 0.032502 0)
(7.32954 0.0336874 0)
(7.33576 0.0343995 0)
(7.34146 0.0347888 0)
(7.34667 0.0349459 0)
(7.35146 0.0349335 0)
(7.35585 0.0347994 0)
(7.35988 0.0345788 0)
(7.3636 0.0342967 0)
(7.36703 0.0339718 0)
(7.37021 0.0336183 0)
(7.37316 0.0332478 0)
(7.3759 0.0328701 0)
(7.37846 0.0324941 0)
(7.38085 0.0321288 0)
(7.3831 0.0317838 0)
(7.38522 0.0314705 0)
(7.38722 0.031203 0)
(7.38913 0.0309984 0)
(7.39097 0.0308794 0)
(7.39278 0.0308671 0)
(7.39461 0.0309976 0)
(7.39652 0.0312594 0)
(7.39867 0.0317343 0)
(7.32446 -0.0216669 0)
(7.30104 -0.0195808 0)
(7.29416 -0.0109326 0)
(7.2922 -0.00220232 0)
(7.29331 0.00755213 0)
(7.29804 0.0155711 0)
(7.30422 0.021065 0)
(7.3104 0.0249133 0)
(7.3164 0.0277083 0)
(7.32221 0.029664 0)
(7.32772 0.0309685 0)
(7.33286 0.0318121 0)
(7.33766 0.0323308 0)
(7.34214 0.0326114 0)
(7.34632 0.0327152 0)
(7.35024 0.0326888 0)
(7.35391 0.0325668 0)
(7.35736 0.0323747 0)
(7.36061 0.0321314 0)
(7.36369 0.0318518 0)
(7.3666 0.031548 0)
(7.36937 0.0312301 0)
(7.37201 0.0309076 0)
(7.37453 0.0305892 0)
(7.37695 0.0302845 0)
(7.37928 0.0300039 0)
(7.38153 0.0297591 0)
(7.38374 0.0295637 0)
(7.38591 0.0294331 0)
(7.38808 0.0293804 0)
(7.39031 0.029421 0)
(7.39265 0.0295448 0)
(7.39519 0.0297617 0)
(7.32737 -0.0149951 0)
(7.31004 -0.0151752 0)
(7.30324 -0.0089234 0)
(7.30059 -0.0016527 0)
(7.30082 0.00655987 0)
(7.30407 0.0136079 0)
(7.3087 0.0187443 0)
(7.31359 0.0224811 0)
(7.31849 0.025247 0)
(7.32331 0.0272351 0)
(7.32795 0.0286131 0)
(7.33235 0.0295446 0)
(7.3365 0.0301514 0)
(7.34043 0.030516 0)
(7.34414 0.0306983 0)
(7.34765 0.0307436 0)
(7.35099 0.0306864 0)
(7.35416 0.030552 0)
(7.35719 0.03036 0)
(7.36008 0.0301257 0)
(7.36286 0.0298615 0)
(7.36553 0.0295777 0)
(7.36811 0.0292838 0)
(7.3706 0.0289883 0)
(7.37302 0.0286999 0)
(7.37539 0.0284275 0)
(7.3777 0.0281806 0)
(7.38 0.0279686 0)
(7.38229 0.0278007 0)
(7.3846 0.0276829 0)
(7.38699 0.0276171 0)
(7.38948 0.0275889 0)
(7.39216 0.0275787 0)
(7.3294 -0.00997864 0)
(7.31672 -0.0111224 0)
(7.3103 -0.00679832 0)
(7.30731 -0.000926435 0)
(7.30696 0.00594411 0)
(7.30918 0.0121037 0)
(7.31272 0.0168447 0)
(7.31668 0.0204204 0)
(7.32079 0.0231203 0)
(7.32491 0.0251055 0)
(7.32892 0.0265214 0)
(7.33278 0.0275079 0)
(7.33647 0.0281735 0)
(7.33998 0.0285956 0)
(7.34333 0.0288318 0)
(7.34653 0.0289263 0)
(7.3496 0.0289128 0)
(7.35254 0.0288168 0)
(7.35536 0.0286578 0)
(7.35809 0.0284515 0)
(7.36072 0.0282103 0)
(7.36327 0.0279446 0)
(7.36576 0.0276635 0)
(7.36818 0.0273752 0)
(7.37055 0.0270873 0)
(7.37288 0.0268071 0)
(7.37519 0.0265414 0)
(7.37749 0.0262963 0)
(7.37981 0.0260759 0)
(7.38216 0.0258801 0)
(7.38458 0.0257032 0)
(7.38712 0.0255269 0)
(7.38979 0.0253217 0)
(7.33075 -0.0063968 0)
(7.32165 -0.00775553 0)
(7.31591 -0.00477776 0)
(7.31286 -8.54864e-05 0)
(7.31212 0.00562812 0)
(7.31358 0.0109699 0)
(7.3163 0.0152864 0)
(7.31955 0.0186547 0)
(7.32303 0.0212514 0)
(7.32661 0.0232008 0)
(7.33015 0.0246242 0)
(7.33359 0.0256392 0)
(7.33692 0.0263412 0)
(7.34012 0.0268015 0)
(7.34319 0.0270748 0)
(7.34615 0.0272033 0)
(7.34899 0.0272198 0)
(7.35174 0.0271494 0)
(7.3544 0.0270116 0)
(7.35698 0.0268219 0)
(7.35948 0.0265927 0)
(7.36193 0.0263345 0)
(7.36432 0.0260557 0)
(7.36666 0.0257638 0)
(7.36897 0.0254656 0)
(7.37125 0.0251666 0)
(7.37353 0.0248714 0)
(7.3758 0.024583 0)
(7.3781 0.0243018 0)
(7.38044 0.0240236 0)
(7.38284 0.0237384 0)
(7.38534 0.0234266 0)
(7.38795 0.0230574 0)
(7.33162 -0.00393169 0)
(7.32523 -0.00506077 0)
(7.32037 -0.00292657 0)
(7.31748 0.000819243 0)
(7.31653 0.00553971 0)
(7.31744 0.0101307 0)
(7.31951 0.0140071 0)
(7.32218 0.0171311 0)
(7.32517 0.0195919 0)
(7.32829 0.0214763 0)
(7.33144 0.0228805 0)
(7.33455 0.0239014 0)
(7.33758 0.024621 0)
(7.34053 0.0251039 0)
(7.34338 0.0254007 0)
(7.34613 0.0255514 0)
(7.34881 0.0255874 0)
(7.3514 0.0255331 0)
(7.35392 0.0254077 0)
(7.35637 0.0252265 0)
(7.35877 0.0250016 0)
(7.36111 0.0247431 0)
(7.36342 0.0244591 0)
(7.36569 0.0241563 0)
(7.36793 0.0238403 0)
(7.37016 0.0235152 0)
(7.37238 0.0231839 0)
(7.37462 0.0228469 0)
(7.37687 0.0225019 0)
(7.37917 0.0221424 0)
(7.38152 0.0217566 0)
(7.38395 0.0213251 0)
(7.38647 0.0208201 0)
(7.33218 -0.00226301 0)
(7.32778 -0.00295768 0)
(7.32388 -0.00130587 0)
(7.32132 0.00171442 0)
(7.3203 0.00560352 0)
(7.32082 0.00951918 0)
(7.32241 0.0129571 0)
(7.32461 0.0158126 0)
(7.32717 0.0181109 0)
(7.32992 0.0199048 0)
(7.33274 0.0212663 0)
(7.33556 0.0222725 0)
(7.33834 0.0229928 0)
(7.34107 0.023484 0)
(7.34373 0.0237924 0)
(7.34632 0.0239551 0)
(7.34884 0.0240017 0)
(7.3513 0.0239558 0)
(7.3537 0.0238358 0)
(7.35605 0.0236566 0)
(7.35835 0.0234299 0)
(7.36061 0.0231654 0)
(7.36284 0.0228706 0)
(7.36504 0.0225515 0)
(7.36722 0.0222127 0)
(7.36939 0.0218571 0)
(7.37156 0.021486 0)
(7.37374 0.0210983 0)
(7.37595 0.0206901 0)
(7.37819 0.0202539 0)
(7.38047 0.0197773 0)
(7.38281 0.0192429 0)
(7.38522 0.0186268 0)
(7.33252 -0.0011514 0)
(7.32957 -0.00136559 0)
(7.32658 4.23775e-05 0)
(7.32445 0.00253297 0)
(7.32349 0.00574952 0)
(7.32378 0.00907467 0)
(7.325 0.0120924 0)
(7.32682 0.0146682 0)
(7.32903 0.0167849 0)
(7.33145 0.0184673 0)
(7.33399 0.0197653 0)
(7.33656 0.0207385 0)
(7.33912 0.0214436 0)
(7.34166 0.02193 0)
(7.34416 0.0222389 0)
(7.3466 0.0224043 0)
(7.34899 0.0224536 0)
(7.35134 0.0224091 0)
(7.35363 0.0222884 0)
(7.35589 0.0221058 0)
(7.3581 0.0218724 0)
(7.36029 0.0215974 0)
(7.36244 0.0212876 0)
(7.36458 0.0209484 0)
(7.3667 0.0205835 0)
(7.36881 0.0201948 0)
(7.37093 0.0197825 0)
(7.37305 0.0193445 0)
(7.3752 0.018876 0)
(7.37737 0.0183693 0)
(7.37958 0.0178129 0)
(7.38183 0.0171914 0)
(7.38412 0.0164853 0)
(7.33273 -0.000425965 0)
(7.3308 -0.00020042 0)
(7.32861 0.00110787 0)
(7.32695 0.00322708 0)
(7.32615 0.00591672 0)
(7.32632 0.00874064 0)
(7.32729 0.0113706 0)
(7.32882 0.0136682 0)
(7.33073 0.0155925 0)
(7.33288 0.0171475 0)
(7.33516 0.0183648 0)
(7.33752 0.0192886 0)
(7.33989 0.0199644 0)
(7.34226 0.0204338 0)
(7.34461 0.0207329 0)
(7.34692 0.0208921 0)
(7.3492 0.0209368 0)
(7.35144 0.0208874 0)
(7.35364 0.0207606 0)
(7.35581 0.0205698 0)
(7.35795 0.0203255 0)
(7.36006 0.0200362 0)
(7.36215 0.0197083 0)
(7.36422 0.0193463 0)
(7.36629 0.0189533 0)
(7.36834 0.0185304 0)
(7.3704 0.0180772 0)
(7.37246 0.0175908 0)
(7.37454 0.0170664 0)
(7.37665 0.0164965 0)
(7.37877 0.0158708 0)
(7.38092 0.0151767 0)
(7.3831 0.0143983 0)
(7.33285 3.58687e-05 0)
(7.33162 0.000621621 0)
(7.3301 0.00190608 0)
(7.32889 0.00377031 0)
(7.3283 0.00605692 0)
(7.32845 0.00846663 0)
(7.32926 0.0107505 0)
(7.33058 0.0127825 0)
(7.33225 0.0145119 0)
(7.33417 0.0159295 0)
(7.33625 0.017053 0)
(7.33841 0.0179139 0)
(7.34061 0.0185479 0)
(7.34283 0.0189892 0)
(7.34504 0.0192689 0)
(7.34724 0.0194139 0)
(7.34941 0.0194469 0)
(7.35156 0.0193868 0)
(7.35367 0.0192489 0)
(7.35577 0.0190457 0)
(7.35783 0.0187869 0)
(7.35988 0.0184804 0)
(7.3619 0.0181319 0)
(7.36392 0.0177454 0)
(7.36592 0.0173233 0)
(7.36792 0.0168663 0)
(7.36992 0.0163734 0)
(7.37192 0.0158417 0)
(7.37393 0.0152664 0)
(7.37596 0.0146408 0)
(7.378 0.0139562 0)
(7.38005 0.0132021 0)
(7.38212 0.0123661 0)
(7.33292 0.000320692 0)
(7.33217 0.00117693 0)
(7.33117 0.00246804 0)
(7.33036 0.00415565 0)
(7.32999 0.00613733 0)
(7.33019 0.00821135 0)
(7.33092 0.0101948 0)
(7.33209 0.0119816 0)
(7.33358 0.0135208 0)
(7.33532 0.0147969 0)
(7.33721 0.0158178 0)
(7.33921 0.0166055 0)
(7.34126 0.0171871 0)
(7.34334 0.0175907 0)
(7.34543 0.0178424 0)
(7.34752 0.0179658 0)
(7.3496 0.0179808 0)
(7.35166 0.0179046 0)
(7.35369 0.0177511 0)
(7.35571 0.0175316 0)
(7.35771 0.0172553 0)
(7.35969 0.0169292 0)
(7.36166 0.0165583 0)
(7.36361 0.0161463 0)
(7.36555 0.015695 0)
(7.36749 0.0152047 0)
(7.36943 0.0146743 0)
(7.37137 0.0141009 0)
(7.37331 0.0134802 0)
(7.37526 0.0128063 0)
(7.37722 0.0120721 0)
(7.37918 0.0112692 0)
(7.38114 0.0103879 0)
(7.33296 0.000488304 0)
(7.33253 0.00153069 0)
(7.33192 0.00283191 0)
(7.33145 0.0043912 0)
(7.33129 0.00614067 0)
(7.33157 0.00794488 0)
(7.33227 0.00967228 0)
(7.33334 0.0112384 0)
(7.3347 0.0125979 0)
(7.33628 0.0137332 0)
(7.33803 0.0146471 0)
(7.33988 0.0153542 0)
(7.3418 0.0158753 0)
(7.34377 0.0162331 0)
(7.34575 0.0164495 0)
(7.34774 0.0165445 0)
(7.34973 0.0165359 0)
(7.3517 0.0164387 0)
(7.35367 0.0162655 0)
(7.35561 0.0160266 0)
(7.35755 0.0157301 0)
(7.35947 0.0153824 0)
(7.36137 0.0149881 0)
(7.36327 0.0145501 0)
(7.36515 0.01407 0)
(7.36703 0.013548 0)
(7.36891 0.0129828 0)
(7.37078 0.0123718 0)
(7.37265 0.0117113 0)
(7.37453 0.0109963 0)
(7.3764 0.010221 0)
(7.37826 0.0093789 0)
(7.38012 0.00846262 0)
(7.33299 0.00057927 0)
(7.33276 0.00173605 0)
(7.33244 0.00303704 0)
(7.33222 0.00449498 0)
(7.33226 0.00606295 0)
(7.33262 0.0076491 0)
(7.33332 0.00915989 0)
(7.33433 0.0105305 0)
(7.33559 0.0117235 0)
(7.33706 0.0127229 0)
(7.33868 0.0135285 0)
(7.34042 0.0141507 0)
(7.34222 0.0146056 0)
(7.34408 0.0149113 0)
(7.34597 0.0150861 0)
(7.34786 0.0151472 0)
(7.34977 0.0151099 0)
(7.35167 0.0149875 0)
(7.35356 0.0147911 0)
(7.35544 0.0145298 0)
(7.35732 0.0142111 0)
(7.35917 0.0138405 0)
(7.36102 0.013422 0)
(7.36286 0.0129582 0)
(7.36469 0.0124504 0)
(7.3665 0.0118986 0)
(7.36832 0.0113017 0)
(7.37012 0.0106574 0)
(7.37192 0.00996251 0)
(7.37372 0.0092131 0)
(7.37551 0.00840452 0)
(7.37728 0.00753173 0)
(7.37905 0.0065892 0)
(7.333 0.000620794 0)
(7.33291 0.00183502 0)
(7.33278 0.00312024 0)
(7.33276 0.00449008 0)
(7.33294 0.00591011 0)
(7.33338 0.00731663 0)
(7.33409 0.00864323 0)
(7.33507 0.00984145 0)
(7.33626 0.0108822 0)
(7.33764 0.0117524 0)
(7.33916 0.0124512 0)
(7.34079 0.0129866 0)
(7.3425 0.0133713 0)
(7.34426 0.0136202 0)
(7.34606 0.0137486 0)
(7.34787 0.0137711 0)
(7.3497 0.013701 0)
(7.35153 0.0135497 0)
(7.35335 0.0133271 0)
(7.35517 0.0130413 0)
(7.35698 0.0126986 0)
(7.35878 0.0123041 0)
(7.36057 0.0118612 0)
(7.36235 0.0113722 0)
(7.36412 0.0108381 0)
(7.36588 0.0102589 0)
(7.36763 0.00963359 0)
(7.36937 0.0089603 0)
(7.3711 0.00823644 0)
(7.37281 0.00745883 0)
(7.37452 0.00662394 0)
(7.37621 0.00572792 0)
(7.37788 0.00476665 0)
(7.333 0.000631022 0)
(7.333 0.00186013 0)
(7.33301 0.00311403 0)
(7.33312 0.00440126 0)
(7.3334 0.0056947 0)
(7.3339 0.00694881 0)
(7.33462 0.00811624 0)
(7.33557 0.00916151 0)
(7.33671 0.0100631 0)
(7.33801 0.0108114 0)
(7.33945 0.0114064 0)
(7.34099 0.0118547 0)
(7.34261 0.012167 0)
(7.34429 0.0123558 0)
(7.346 0.012434 0)
(7.34774 0.0124142 0)
(7.34949 0.0123077 0)
(7.35126 0.0121246 0)
(7.35302 0.0118734 0)
(7.35477 0.0115611 0)
(7.35652 0.0111933 0)
(7.35827 0.0107744 0)
(7.36 0.0103073 0)
(7.36172 0.00979393 0)
(7.36343 0.00923525 0)
(7.36512 0.0086312 0)
(7.36681 0.00798093 0)
(7.36848 0.00728293 0)
(7.37014 0.00653517 0)
(7.37178 0.00573517 0)
(7.37341 0.00488027 0)
(7.37501 0.00396761 0)
(7.3766 0.00299416 0)
(7.33301 0.000622116 0)
(7.33305 0.00183635 0)
(7.33314 0.00304624 0)
(7.33333 0.00425277 0)
(7.33368 0.00543304 0)
(7.33421 0.0065534 0)
(7.33494 0.00757997 0)
(7.33585 0.00848742 0)
(7.33694 0.00926073 0)
(7.33818 0.00989392 0)
(7.33954 0.0103882 0)
(7.341 0.01075 0)
(7.34254 0.0109886 0)
(7.34414 0.0111149 0)
(7.34578 0.0111402 0)
(7.34745 0.0110751 0)
(7.34913 0.0109295 0)
(7.35083 0.0107121 0)
(7.35252 0.0104302 0)
(7.35422 0.01009 0)
(7.35591 0.00969622 0)
(7.35759 0.00925262 0)
(7.35927 0.00876177 0)
(7.36093 0.0082253 0)
(7.36258 0.00764394 0)
(7.36422 0.0070177 0)
(7.36584 0.00634589 0)
(7.36744 0.00562734 0)
(7.36903 0.00486045 0)
(7.3706 0.00404341 0)
(7.37215 0.0031742 0)
(7.37367 0.00225079 0)
(7.37517 0.00127091 0)
(7.33301 0.000602401 0)
(7.33307 0.00178306 0)
(7.33321 0.00294054 0)
(7.33344 0.00406752 0)
(7.33382 0.00514339 0)
(7.33435 0.00614265 0)
(7.33506 0.00704125 0)
(7.33594 0.0078219 0)
(7.33698 0.00847519 0)
(7.33815 0.00899859 0)
(7.33944 0.00939491 0)
(7.34082 0.00967071 0)
(7.34228 0.00983475 0)
(7.34381 0.00989678 0)
(7.34537 0.00986666 0)
(7.34697 0.00975379 0)
(7.34858 0.00956669 0)
(7.35021 0.00931285 0)
(7.35185 0.00899864 0)
(7.35348 0.00862928 0)
(7.35512 0.00820889 0)
(7.35674 0.0077406 0)
(7.35836 0.00722661 0)
(7.35996 0.00666826 0)
(7.36155 0.00606618 0)
(7.36313 0.00542038 0)
(7.36469 0.00473033 0)
(7.36623 0.00399514 0)
(7.36775 0.0032136 0)
(7.36924 0.00238438 0)
(7.37072 0.00150603 0)
(7.37217 0.000577092 0)
(7.37358 -0.000404104 0)
(7.33301 0.000577862 0)
(7.33308 0.0017158 0)
(7.33322 0.00281747 0)
(7.33346 0.00386707 0)
(7.33383 0.0048451 0)
(7.33435 0.00573204 0)
(7.33502 0.00651145 0)
(7.33584 0.00717276 0)
(7.33681 0.00771156 0)
(7.33791 0.00812862 0)
(7.33913 0.0084285 0)
(7.34043 0.00861834 0)
(7.34182 0.00870668 0)
(7.34326 0.00870253 0)
(7.34475 0.00861479 0)
(7.34628 0.00845175 0)
(7.34783 0.00822087 0)
(7.34939 0.00792862 0)
(7.35097 0.00758045 0)
(7.35254 0.00718081 0)
(7.35411 0.00673318 0)
(7.35568 0.00624019 0)
(7.35724 0.00570363 0)
(7.35879 0.00512463 0)
(7.36032 0.00450369 0)
(7.36183 0.00384081 0)
(7.36333 0.00313559 0)
(7.36481 0.00238735 0)
(7.36626 0.00159523 0)
(7.36769 0.000758227 0)
(7.36909 -0.000124647 0)
(7.37047 -0.00105445 0)
(7.37181 -0.00203239 0)
(7.33301 0.000553221 0)
(7.33307 0.00164795 0)
(7.3332 0.00269592 0)
(7.33341 0.00367252 0)
(7.33374 0.00455869 0)
(7.3342 0.00533979 0)
(7.33481 0.00600584 0)
(7.33556 0.00655233 0)
(7.33645 0.00697963 0)
(7.33747 0.00729174 0)
(7.3386 0.00749517 0)
(7.33982 0.00759794 0)
(7.34113 0.00760866 0)
(7.34249 0.00753593 0)
(7.34391 0.0073879 0)
(7.34536 0.00717201 0)
(7.34684 0.00689481 0)
(7.34834 0.00656191 0)
(7.34985 0.00617796 0)
(7.35136 0.0057467 0)
(7.35288 0.00527104 0)
(7.35438 0.00475312 0)
(7.35589 0.00419439 0)
(7.35737 0.00359574 0)
(7.35885 0.00295753 0)
(7.3603 0.00227977 0)
(7.36174 0.00156211 0)
(7.36316 0.000804057 0)
(7.36455 4.93851e-06 0)
(7.36591 -0.000835926 0)
(7.36725 -0.00171926 0)
(7.36856 -0.00264578 0)
(7.36983 -0.0036164 0)
(7.33301 0.000532762 0)
(7.33305 0.00159241 0)
(7.33313 0.00259486 0)
(7.33329 0.00350597 0)
(7.33354 0.0043068 0)
(7.33392 0.00498729 0)
(7.33443 0.00554365 0)
(7.33509 0.00597735 0)
(7.33588 0.00629362 0)
(7.3368 0.00649994 0)
(7.33783 0.00660502 0)
(7.33896 0.00661799 0)
(7.34018 0.00654782 0)
(7.34146 0.00640294 0)
(7.34279 0.00619102 0)
(7.34417 0.0059188 0)
(7.34558 0.00559207 0)
(7.34701 0.00521569 0)
(7.34846 0.00479359 0)
(7.34991 0.0043289 0)
(7.35137 0.00382396 0)
(7.35282 0.00328048 0)
(7.35426 0.00269957 0)
(7.3557 0.00208186 0)
(7.35712 0.0014276 0)
(7.35852 0.000736708 0)
(7.3599 8.91434e-06 0)
(7.36126 -0.00075623 0)
(7.36259 -0.00155921 0)
(7.3639 -0.00240056 0)
(7.36518 -0.00328076 0)
(7.36642 -0.00420037 0)
(7.36763 -0.00516006 0)
(7.333 0.000521113 0)
(7.33301 0.00156343 0)
(7.33303 0.00253573 0)
(7.33309 0.00339278 0)
(7.33323 0.00411599 0)
(7.33348 0.00470039 0)
(7.33387 0.0051488 0)
(7.3344 0.00546922 0)
(7.33507 0.00567225 0)
(7.33587 0.00576929 0)
(7.33679 0.0057716 0)
(7.33782 0.00568979 0)
(7.33893 0.00553346 0)
(7.34012 0.00531113 0)
(7.34137 0.00503017 0)
(7.34267 0.00469679 0)
(7.34401 0.00431615 0)
(7.34537 0.00389242 0)
(7.34676 0.00342893 0)
(7.34815 0.00292817 0)
(7.34955 0.00239201 0)
(7.35095 0.00182169 0)
(7.35235 0.001218 0)
(7.35373 0.000581294 0)
(7.3551 -8.83408e-05 0)
(7.35645 -0.000791082 0)
(7.35779 -0.00152724 0)
(7.3591 -0.00229723 0)
(7.36038 -0.00310147 0)
(7.36163 -0.00394039 0)
(7.36285 -0.00481439 0)
(7.36404 -0.00572387 0)
(7.36519 -0.0066694 0)
(7.333 0.000524179 0)
(7.33296 0.00157918 0)
(7.33286 0.00254565 0)
(7.33278 0.00336488 0)
(7.33276 0.00401966 0)
(7.33285 0.00451158 0)
(7.33308 0.0048514 0)
(7.33345 0.00505485 0)
(7.33396 0.00513888 0)
(7.33462 0.00511954 0)
(7.33541 0.00501123 0)
(7.33632 0.00482646 0)
(7.33733 0.00457585 0)
(7.33842 0.00426823 0)
(7.33958 0.00391085 0)
(7.34081 0.00350953 0)
(7.34207 0.0030689 0)
(7.34338 0.00259254 0)
(7.3447 0.00208315 0)
(7.34605 0.00154267 0)
(7.3474 0.000972412 0)
(7.34875 0.000373198 0)
(7.3501 -0.000254588 0)
(7.35144 -0.000910848 0)
(7.35277 -0.00159575 0)
(7.35409 -0.00230961 0)
(7.35538 -0.00305286 0)
(7.35664 -0.00382592 0)
(7.35789 -0.00462928 0)
(7.3591 -0.00546331 0)
(7.36027 -0.0063284 0)
(7.36142 -0.00722491 0)
(7.36253 -0.00815338 0)
(7.33299 0.000550559 0)
(7.33287 0.00166549 0)
(7.33262 0.00266224 0)
(7.33233 0.00346556 0)
(7.33209 0.00406219 0)
(7.33196 0.00446319 0)
(7.33197 0.00468976 0)
(7.33213 0.00476752 0)
(7.33247 0.0047214 0)
(7.33296 0.00457326 0)
(7.33361 0.00434146 0)
(7.33438 0.00404104 0)
(7.33528 0.00368398 0)
(7.33628 0.00327971 0)
(7.33736 0.00283552 0)
(7.33851 0.00235696 0)
(7.33971 0.00184817 0)
(7.34096 0.00131212 0)
(7.34224 0.000750879 0)
(7.34354 0.000165774 0)
(7.34486 -0.000442429 0)
(7.34618 -0.00107344 0)
(7.3475 -0.00172729 0)
(7.34881 -0.00240428 0)
(7.35011 -0.00310484 0)
(7.3514 -0.00382954 0)
(7.35266 -0.00457897 0)
(7.3539 -0.00535373 0)
(7.35511 -0.00615436 0)
(7.35629 -0.00698133 0)
(7.35744 -0.00783506 0)
(7.35855 -0.00871597 0)
(7.35962 -0.0096246 0)
(7.33299 0.000614093 0)
(7.33274 0.00186224 0)
(7.33225 0.00294134 0)
(7.33167 0.0037567 0)
(7.33112 0.00430481 0)
(7.33069 0.00461135 0)
(7.33042 0.00471237 0)
(7.33033 0.00464707 0)
(7.33045 0.00445097 0)
(7.33076 0.00415347 0)
(7.33125 0.00377801 0)
(7.33189 0.00334283 0)
(7.33268 0.00286174 0)
(7.33359 0.00234496 0)
(7.3346 0.00179992 0)
(7.33569 0.00123186 0)
(7.33685 0.000644354 0)
(7.33807 3.96936e-05 0)
(7.33932 -0.0005808 0)
(7.3406 -0.00121651 0)
(7.3419 -0.00186738 0)
(7.3432 -0.00253371 0)
(7.34451 -0.00321611 0)
(7.34581 -0.00391531 0)
(7.3471 -0.0046322 0)
(7.34837 -0.00536765 0)
(7.34962 -0.00612254 0)
(7.35085 -0.00689769 0)
(7.35205 -0.00769383 0)
(7.35322 -0.0085116 0)
(7.35435 -0.00935156 0)
(7.35544 -0.0102142 0)
(7.3565 -0.0111002 0)
(7.33297 0.000738712 0)
(7.33253 0.00223464 0)
(7.33168 0.00346937 0)
(7.33067 0.00432944 0)
(7.32969 0.00483315 0)
(7.32886 0.00502996 0)
(7.32823 0.00497854 0)
(7.32785 0.00473792 0)
(7.32773 0.00435816 0)
(7.32784 0.00387849 0)
(7.32817 0.00332887 0)
(7.3287 0.00273145 0)
(7.3294 0.00210208 0)
(7.33025 0.00145175 0)
(7.33121 0.000787846 0)
(7.33228 0.000115066 0)
(7.33342 -0.000563855 0)
(7.33463 -0.00124756 0)
(7.33588 -0.00193572 0)
(7.33717 -0.00262868 0)
(7.33847 -0.00332727 0)
(7.33979 -0.0040326 0)
(7.34111 -0.004746 0)
(7.34243 -0.00546883 0)
(7.34373 -0.00620251 0)
(7.34501 -0.00694838 0)
(7.34628 -0.00770772 0)
(7.34751 -0.00848168 0)
(7.34872 -0.00927129 0)
(7.34989 -0.0100774 0)
(7.35103 -0.0109008 0)
(7.35213 -0.0117423 0)
(7.35318 -0.0126025 0)
(7.33295 0.000968485 0)
(7.33217 0.00289329 0)
(7.33075 0.00438286 0)
(7.32911 0.00531879 0)
(7.32754 0.00576554 0)
(7.32618 0.00581252 0)
(7.32513 0.00555502 0)
(7.32442 0.00508207 0)
(7.32404 0.00446387 0)
(7.32397 0.00375222 0)
(7.32418 0.00298471 0)
(7.32463 0.00218765 0)
(7.32529 0.00137858 0)
(7.32611 0.000568643 0)
(7.32708 -0.000235491 0)
(7.32817 -0.00103033 0)
(7.32934 -0.00181451 0)
(7.33059 -0.00258821 0)
(7.33188 -0.00335246 0)
(7.33321 -0.00410899 0)
(7.33457 -0.0048598 0)
(7.33593 -0.00560713 0)
(7.3373 -0.00635319 0)
(7.33866 -0.00710023 0)
(7.34001 -0.00785032 0)
(7.34133 -0.00860547 0)
(7.34264 -0.00936743 0)
(7.34391 -0.0101378 0)
(7.34515 -0.0109181 0)
(7.34635 -0.0117094 0)
(7.34751 -0.0125128 0)
(7.34863 -0.0133293 0)
(7.34971 -0.0141599 0)
(7.3329 0.00139143 0)
(7.33153 0.00403327 0)
(7.32919 0.00589848 0)
(7.32662 0.0069197 0)
(7.32425 0.00725613 0)
(7.32225 0.00706507 0)
(7.32072 0.00650246 0)
(7.31968 0.00570288 0)
(7.31908 0.00476291 0)
(7.31889 0.00374864 0)
(7.31904 0.00270512 0)
(7.31948 0.00166157 0)
(7.32017 0.000635555 0)
(7.32106 -0.000363255 0)
(7.3221 -0.00133037 0)
(7.32328 -0.00226469 0)
(7.32455 -0.00316728 0)
(7.32589 -0.00404058 0)
(7.32729 -0.00488774 0)
(7.32872 -0.00571231 0)
(7.33017 -0.00651795 0)
(7.33163 -0.00730828 0)
(7.33309 -0.00808679 0)
(7.33454 -0.00885673 0)
(7.33597 -0.00962112 0)
(7.33737 -0.0103827 0)
(7.33874 -0.0111439 0)
(7.34008 -0.0119069 0)
(7.34138 -0.0126736 0)
(7.34264 -0.0134456 0)
(7.34386 -0.0142244 0)
(7.34503 -0.0150113 0)
(7.34615 -0.0158074 0)
(7.33278 0.00219484 0)
(7.33032 0.00601661 0)
(7.32651 0.00836847 0)
(7.32261 0.00940556 0)
(7.3192 0.00948319 0)
(7.31647 0.00887609 0)
(7.31447 0.00783878 0)
(7.31316 0.00656923 0)
(7.31246 0.00519249 0)
(7.31226 0.00378587 0)
(7.31248 0.00239782 0)
(7.31305 0.00105627 0)
(7.31389 -0.000225003 0)
(7.31495 -0.00144092 0)
(7.31617 -0.00259153 0)
(7.31753 -0.00367989 0)
(7.31899 -0.00471089 0)
(7.32051 -0.0056902 0)
(7.32209 -0.00662388 0)
(7.32369 -0.00751789 0)
(7.3253 -0.00837799 0)
(7.32692 -0.00920957 0)
(7.32852 -0.0100176 0)
(7.33011 -0.0108066 0)
(7.33167 -0.0115807 0)
(7.3332 -0.0123435 0)
(7.33469 -0.0130982 0)
(7.33613 -0.0138477 0)
(7.33753 -0.0145945 0)
(7.33889 -0.0153407 0)
(7.34019 -0.0160881 0)
(7.34144 -0.0168383 0)
(7.34264 -0.017593 0)
(7.33249 0.00373991 0)
(7.32795 0.00949104 0)
(7.32175 0.0123742 0)
(7.31603 0.0131793 0)
(7.31142 0.0126547 0)
(7.30798 0.0112914 0)
(7.30567 0.00950347 0)
(7.30431 0.00756118 0)
(7.30371 0.00560312 0)
(7.30373 0.00370322 0)
(7.30422 0.00190222 0)
(7.3051 0.00021772 0)
(7.30626 -0.00134735 0)
(7.30765 -0.00279746 0)
(7.3092 -0.0041406 0)
(7.31088 -0.00538646 0)
(7.31264 -0.00654537 0)
(7.31446 -0.00762758 0)
(7.31631 -0.00864284 0)
(7.31818 -0.00960018 0)
(7.32004 -0.0105079 0)
(7.3219 -0.0113734 0)
(7.32372 -0.0122034 0)
(7.32552 -0.013004 0)
(7.32728 -0.0137802 0)
(7.32899 -0.0145368 0)
(7.33065 -0.0152778 0)
(7.33226 -0.0160067 0)
(7.33381 -0.0167266 0)
(7.33531 -0.0174402 0)
(7.33675 -0.0181497 0)
(7.33812 -0.0188571 0)
(7.33943 -0.0195641 0)
(7.33193 0.00663976 0)
(7.32329 0.0152925 0)
(7.31325 0.0184842 0)
(7.30522 0.0185728 0)
(7.29944 0.0168813 0)
(7.29558 0.0142377 0)
(7.29334 0.0113079 0)
(7.29234 0.00842391 0)
(7.29223 0.00569606 0)
(7.29281 0.00316889 0)
(7.29389 0.00086144 0)
(7.29536 -0.00122916 0)
(7.2971 -0.00311899 0)
(7.29905 -0.00482774 0)
(7.30114 -0.00637522 0)
(7.30333 -0.00778053 0)
(7.30558 -0.00906172 0)
(7.30785 -0.0102353 0)
(7.31014 -0.0113161 0)
(7.31241 -0.0123172 0)
(7.31466 -0.0132505 0)
(7.31687 -0.014126 0)
(7.31903 -0.0149528 0)
(7.32115 -0.0157388 0)
(7.3232 -0.0164906 0)
(7.32519 -0.0172143 0)
(7.32711 -0.017915 0)
(7.32896 -0.018597 0)
(7.33074 -0.0192642 0)
(7.33245 -0.01992 0)
(7.33408 -0.0205671 0)
(7.33564 -0.0212081 0)
(7.33713 -0.0218455 0)
(7.33069 0.0134348 0)
(7.31368 0.0252082 0)
(7.29797 0.0267161 0)
(7.28753 0.0249965 0)
(7.28098 0.0216507 0)
(7.27735 0.0175205 0)
(7.27593 0.0134388 0)
(7.27598 0.0096971 0)
(7.27699 0.0062966 0)
(7.27869 0.00321798 0)
(7.28089 0.000449169 0)
(7.28343 -0.00203269 0)
(7.2862 -0.0042582 0)
(7.28913 -0.00625681 0)
(7.29214 -0.00805473 0)
(7.29519 -0.00967592 0)
(7.29825 -0.0111424 0)
(7.30129 -0.0124741 0)
(7.30428 -0.0136887 0)
(7.30722 -0.0148016 0)
(7.31009 -0.0158266 0)
(7.31288 -0.0167759 0)
(7.31558 -0.01766 0)
(7.3182 -0.0184882 0)
(7.32072 -0.0192686 0)
(7.32315 -0.0200082 0)
(7.32548 -0.0207132 0)
(7.32771 -0.0213889 0)
(7.32985 -0.0220399 0)
(7.33189 -0.0226702 0)
(7.33384 -0.023283 0)
(7.33569 -0.0238811 0)
(7.33744 -0.0244666 0)
(7.32456 0.0347127 0)
(7.28958 0.0467051 0)
(7.26765 0.0370836 0)
(7.25765 0.0262591 0)
(7.25264 0.0167259 0)
(7.25096 0.00874758 0)
(7.25187 0.00250283 0)
(7.25427 -0.00234227 0)
(7.2575 -0.0061825 0)
(7.26132 -0.00925491 0)
(7.26556 -0.0117286 0)
(7.27004 -0.013744 0)
(7.27465 -0.0154113 0)
(7.27931 -0.0168099 0)
(7.28395 -0.0179972 0)
(7.28854 -0.0190175 0)
(7.29303 -0.0199055 0)
(7.29741 -0.0206884 0)
(7.30166 -0.0213874 0)
(7.30576 -0.0220192 0)
(7.30971 -0.0225974 0)
(7.31352 -0.0231327 0)
(7.31716 -0.0236336 0)
(7.32065 -0.0241073 0)
(7.32399 -0.0245594 0)
(7.32717 -0.0249946 0)
(7.33021 -0.0254166 0)
(7.3331 -0.0258288 0)
(7.33584 -0.0262338 0)
(7.33845 -0.0266341 0)
(7.34092 -0.0270317 0)
(7.34326 -0.027429 0)
(7.34548 -0.0278289 0)
(7.29575 0.0823961 0)
(7.21821 0.127207 0)
(7.1868 0.128807 0)
(7.18645 0.114378 0)
(7.19338 0.0947853 0)
(7.20248 0.0767463 0)
(7.21295 0.0615385 0)
(7.22374 0.0483337 0)
(7.23444 0.0367085 0)
(7.24497 0.0265738 0)
(7.25523 0.017851 0)
(7.26511 0.0103855 0)
(7.27454 0.00400969 0)
(7.28351 -0.00142497 0)
(7.292 -0.00605044 0)
(7.30004 -0.00998588 0)
(7.30763 -0.0133367 0)
(7.31479 -0.0161935 0)
(7.32153 -0.0186333 0)
(7.32788 -0.0207215 0)
(7.33385 -0.0225132 0)
(7.33947 -0.0240551 0)
(7.34475 -0.0253866 0)
(7.34971 -0.0265407 0)
(7.35436 -0.0275453 0)
(7.35874 -0.0284239 0)
(7.36283 -0.0291964 0)
(7.36668 -0.0298794 0)
(7.37027 -0.0304869 0)
(7.37364 -0.0310307 0)
(7.37678 -0.0315205 0)
(7.3797 -0.0319637 0)
(7.38242 -0.032369 0)
(7.32909 -0.158988 0)
(7.19612 -0.292899 0)
(7.13085 -0.292312 0)
(7.10898 -0.259649 0)
(7.10972 -0.22668 0)
(7.13037 -0.19575 0)
(7.16107 -0.167839 0)
(7.19443 -0.144105 0)
(7.22758 -0.124635 0)
(7.25931 -0.108756 0)
(7.28884 -0.095776 0)
(7.31576 -0.0851751 0)
(7.34003 -0.0765317 0)
(7.36177 -0.0694804 0)
(7.38117 -0.0637142 0)
(7.39842 -0.058986 0)
(7.41372 -0.0550989 0)
(7.42727 -0.0518946 0)
(7.43923 -0.0492456 0)
(7.44979 -0.0470493 0)
(7.45908 -0.045223 0)
(7.46723 -0.0437005 0)
(7.47438 -0.0424281 0)
(7.48061 -0.0413625 0)
(7.48604 -0.0404684 0)
(7.49073 -0.0397173 0)
(7.49476 -0.0390858 0)
(7.49821 -0.0385549 0)
(7.50112 -0.0381089 0)
(7.50356 -0.0377347 0)
(7.50556 -0.0374212 0)
(7.50719 -0.0371595 0)
(7.50848 -0.0369378 0)
(7.33045 1.21807 0)
(7.6376 1.24116 0)
(7.81729 0.934087 0)
(7.87343 0.66212 0)
(7.88531 0.462339 0)
(7.87662 0.320594 0)
(7.85215 0.220101 0)
(7.81687 0.148063 0)
(7.77613 0.0958196 0)
(7.7334 0.0576539 0)
(7.69028 0.0296478 0)
(7.64755 0.00902614 0)
(7.60575 -0.00618912 0)
(7.56523 -0.017409 0)
(7.52614 -0.0256503 0)
(7.48857 -0.031657 0)
(7.4525 -0.0359795 0)