/*--------------------------------*- C++ -*----------------------------------*\
  =========                 |
  \\      /  F ield         | OpenFOAM: The Open Source CFD Toolbox
   \\    /   O peration     | Website:  https://openfoam.org
    \\  /    A nd           | Version:  10
     \\/     M anipulation  |
\*---------------------------------------------------------------------------*/
FoamFile
{
    format      ascii;
    class       volScalarField;
    location    "1100";
    object      yPlus;
}
// * * * * * * * * * * * * * * * * * * * * * * * * * * * * * * * * * * * * * //

dimensions      [0 0 0 0 0 0 0];

internalField   uniform 0;

boundaryField
{
    outlet
    {
        type            calculated;
        value           uniform 0;
    }
    inlet
    {
        type            calculated;
        value           uniform 0;
    }
    lowerWall
    {
        type            calculated;
        value           nonuniform List<scalar> 
148
(
12.7112
17.6462
20.7197
22.3203
23.0459
23.2746
23.2254
23.0255
22.751
22.4469
22.1389
21.8405
21.5587
21.2962
21.0538
20.8308
20.626
20.4378
20.2649
20.1058
19.959
19.8234
19.6978
19.5813
19.473
19.372
19.2777
19.1894
19.1062
19.029
18.9501
18.9031
18.6978
0.398833
2.16441
3.90156
5.23307
6.33061
7.24774
8.11394
8.985
9.85686
10.8772
11.2162
11.311
11.1572
11.4544
25.6399
0.398833
3.35879
4.97692
5.74276
5.92703
5.79554
5.49344
5.09943
4.58298
3.52484
6.56112
3.78793
9.03711
13.8775
18.5533
22.104
25.1169
27.7546
30.1082
32.2292
34.1494
35.8898
37.4688
38.904
40.2135
41.4153
42.527
43.5642
44.5407
45.4679
46.355
47.2089
48.0349
48.8371
49.6195
50.386
51.1418
51.8933
52.6455
53.3826
54.1103
54.8289
55.5377
56.2355
56.921
57.5925
58.2483
58.8866
59.5055
60.1029
60.6766
61.2244
61.744
62.2332
62.6896
63.1108
63.4947
63.8389
64.1417
64.4013
64.6166
64.786
64.9088
64.9847
65.0127
64.9931
64.9253
64.809
64.643
64.4226
64.1868
63.9505
63.6662
63.3344
62.9642
62.5631
62.1373
61.6901
61.2254
60.7464
60.256
59.7572
59.253
58.7457
58.2379
57.7316
57.2288
56.731
56.2398
55.7568
55.2831
54.8206
54.3694
53.9334
53.5108
53.1099
52.7272
52.3803
52.0776
51.8317
)
;
    }
    upperWall
    {
        type            calculated;
        value           nonuniform List<scalar> 
133
(
31.2591
34.0073
36.6584
39.0132
41.0752
42.889
44.4881
45.8973
47.1377
48.2283
49.1859
50.0257
50.7609
51.4035
51.9643
52.4525
52.8767
53.2444
53.562
53.8356
54.0702
54.2704
54.4403
54.5834
54.703
54.8017
54.882
54.9462
54.9961
55.0334
55.0597
55.0762
55.0845
55.0839
55.0724
55.05
55.0172
54.9744
54.9223
54.8613
54.7919
54.7145
54.6297
54.5378
54.4392
54.3342
54.2232
54.1063
53.9838
53.856
53.7229
53.5848
53.4417
53.2937
53.1408
52.9831
52.8205
52.6529
52.4803
52.3026
52.1196
51.9311
51.737
51.5371
51.3311
51.1187
50.8998
50.6741
50.4414
50.2012
49.9534
49.6977
49.4339
49.1617
48.881
48.5914
48.293
47.9855
47.6689
47.3432
47.0084
46.6646
46.3121
45.951
45.5817
45.2047
44.8205
44.4297
44.0331
43.6316
43.2261
42.8177
42.4076
41.9972
41.5876
41.1807
40.7777
40.3803
39.9902
39.6089
39.238
38.8791
38.5335
38.2027
37.8877
37.5896
37.3091
37.0467
36.8027
36.5773
36.3702
36.1811
36.0092
35.8536
35.7134
35.5872
35.4741
35.3723
35.2807
35.1976
35.1217
35.0516
34.9861
34.9237
34.8634
34.8037
34.7442
34.6833
34.62
34.555
34.4809
34.4211
34.2885
)
;
    }
    frontAndBack
    {
        type            empty;
    }
}


// ************************************************************************* //
