/*--------------------------------*- C++ -*----------------------------------*\
  =========                 |
  \\      /  F ield         | OpenFOAM: The Open Source CFD Toolbox
   \\    /   O peration     | Website:  https://openfoam.org
    \\  /    A nd           | Version:  10
     \\/     M anipulation  |
\*---------------------------------------------------------------------------*/
FoamFile
{
    format      ascii;
    class       volScalarField;
    location    "0.175";
    object      nut;
}
// * * * * * * * * * * * * * * * * * * * * * * * * * * * * * * * * * * * * * //

dimensions      [0 2 -1 0 0 0 0];

internalField   nonuniform List<scalar> 
6820
(
0
0
0
0
0
0
0
0
0
0
0
0
0
0
0
0
0
0
0
0
0
0
0
0
0
0
0
0
0
0
0
0
0
0
0
0
0
0
0
0
0
0
0
0
0
0
0
0
0
0
0
0
0
0
0
0
0
0
0
0
0
0
0
0
0
0
0
0
0
0
0
0
0
0
0
0
0
0
0
0
0
0
0
0
0
0
0
0
0
0
0
0
0
0
0
0
0
0
0
0
0
0
0
0
0
0
0
0
0
0
0
0
0
0
0
0
0
0
0
0
0
0
0
0
0
0
0
0
0
0
0
0
1.57159e-05
0
0
0
0
0
0
0
0
0
0
0
0
0
0
0
0
0
0
0
0
0
0
0
0
0
0
0
0
0
0
0
0
6.18346e-06
4.46666e-05
3.45122e-05
1.89568e-05
7.85576e-06
1.72945e-06
0
0
0
0
0
0
0
0
0
0
0
0
0
0
0
0
0
0
0
0
0
0
0
0
0
0
0
0
1.16591e-05
2.20129e-05
2.77972e-05
2.64449e-05
2.3899e-05
2.17239e-05
1.95725e-05
1.74827e-05
1.55858e-05
1.38917e-05
1.23851e-05
1.10586e-05
9.90135e-06
8.90018e-06
8.04482e-06
7.32731e-06
6.7384e-06
6.26274e-06
5.87335e-06
5.52648e-06
5.15974e-06
4.70072e-06
4.095e-06
3.34852e-06
2.54021e-06
1.74391e-06
9.36232e-07
1.9817e-07
0
0
0
0
0
6.02875e-06
9.41619e-06
1.7833e-05
2.05692e-05
2.00725e-05
1.89895e-05
1.75583e-05
1.5974e-05
1.44315e-05
1.29735e-05
1.1608e-05
1.03543e-05
9.22916e-06
8.24442e-06
7.41208e-06
6.74573e-06
6.26205e-06
5.9845e-06
5.94936e-06
6.21403e-06
6.86211e-06
7.96976e-06
9.37609e-06
9.95502e-06
7.7806e-06
4.04427e-06
1.47802e-06
2.34825e-07
0
0
0
0
0
4.56963e-06
3.04151e-06
7.06927e-06
1.05497e-05
1.27523e-05
1.43793e-05
1.50103e-05
1.48224e-05
1.4221e-05
1.34129e-05
1.25011e-05
1.15673e-05
1.0671e-05
9.85334e-06
9.14643e-06
8.57798e-06
8.17327e-06
7.95688e-06
7.95213e-06
8.17188e-06
8.58365e-06
9.01131e-06
8.95867e-06
7.66084e-06
5.05437e-06
2.37948e-06
5.96003e-07
0
0
0
0
0
0
3.58584e-06
5.98247e-07
1.27763e-06
2.38733e-06
3.50722e-06
5.37644e-06
7.03454e-06
8.01098e-06
8.45323e-06
8.52701e-06
8.34828e-06
8.02447e-06
7.64099e-06
7.25826e-06
6.9215e-06
6.66638e-06
6.52039e-06
6.50191e-06
6.61364e-06
6.82358e-06
7.02453e-06
6.97675e-06
6.316e-06
4.81172e-06
2.77179e-06
8.80565e-07
0
0
0
0
0
0
0
2.80639e-06
0
0
0
0
0
0
8.91401e-07
2.12566e-06
3.10294e-06
3.79579e-06
4.24415e-06
4.51243e-06
4.65985e-06
4.73546e-06
4.77678e-06
4.80697e-06
4.83091e-06
4.82792e-06
4.74009e-06
4.46264e-06
3.85997e-06
2.84656e-06
1.51502e-06
1.56054e-07
0
0
0
0
0
0
0
0
2.15498e-06
0
0
0
0
0
0
0
0
0
0
0
0
0
0
0
0
0
0
0
0
0
0
0
0
0
0
0
0
0
0
0
0
1.63825e-06
0
0
0
0
0
0
0
0
0
0
0
0
0
0
0
0
0
0
0
0
0
0
0
0
0
0
0
0
0
0
0
0
1.23004e-06
0
0
0
0
0
0
0
0
0
0
0
0
0
0
0
0
0
0
0
0
0
0
0
0
0
0
0
0
0
0
0
0
9.08731e-07
0
0
0
0
0
0
0
0
0
0
0
0
0
0
0
0
0
0
0
0
0
0
0
0
0
0
0
0
0
0
0
0
6.50592e-07
0
0
0
0
0
0
0
0
0
0
0
0
0
0
0
0
0
0
0
0
0
0
0
0
0
0
0
0
0
0
0
0
4.37846e-07
0
0
0
0
0
0
0
0
0
0
0
0
0
0
0
0
0
0
0
0
0
0
0
0
0
0
0
0
0
0
0
0
2.54548e-07
0
0
0
0
0
0
0
0
0
0
0
0
0
0
0
0
0
0
0
0
0
0
0
0
0
0
0
0
1.04414e-07
0
0
0
8.76884e-08
0
0
0
0
0
0
0
0
0
0
0
0
0
0
0
0
0
0
0
0
0
0
0
0
0
0
0
4.41792e-07
8.06687e-07
6.22703e-07
0
0
0
0
0
0
0
0
0
0
0
0
0
0
0
0
0
0
0
0
0
0
0
0
0
0
0
0
0
4.23887e-07
8.26445e-07
1.14834e-06
9.80571e-07
0
0
0
0
0
0
0
0
0
0
0
0
0
0
0
0
0
0
0
0
0
0
0
0
0
0
0
1.84447e-07
5.74977e-07
9.35618e-07
1.26545e-06
1.51882e-06
1.35039e-06
1.33571e-07
0
0
0
0
0
0
0
0
0
0
0
0
0
0
0
0
0
0
0
0
0
0
0
0
0
2.63075e-07
6.1045e-07
9.29316e-07
1.21646e-06
1.47101e-06
1.6562e-06
1.49047e-06
4.68532e-07
0
0
0
0
0
0
0
0
0
0
0
0
0
0
0
0
0
0
0
0
0
0
0
0
2.93233e-07
5.97967e-07
8.74555e-07
1.12144e-06
1.33654e-06
1.51974e-06
1.64341e-06
1.4881e-06
6.61604e-07
0
0
0
0
0
0
0
0
0
0
0
0
0
0
0
0
0
0
0
0
0
0
1.6405e-07
4.3969e-07
6.88888e-07
9.11247e-07
1.10598e-06
1.2726e-06
1.41083e-06
1.52238e-06
1.58898e-06
1.44699e-06
7.89965e-07
0
0
0
0
0
0
0
0
0
0
0
0
0
0
0
0
0
0
0
0
0
7.33544e-08
3.06386e-07
5.15729e-07
7.01882e-07
8.65082e-07
1.00567e-06
1.12477e-06
1.22433e-06
1.30823e-06
1.36571e-06
1.27078e-06
7.72715e-07
0
0
0
0
0
0
0
0
0
0
0
0
0
0
0
0
0
0
0
1.45568e-07
3.49692e-07
5.31858e-07
6.92803e-07
8.33872e-07
9.56782e-07
1.06344e-06
1.15624e-06
1.2383e-06
1.31309e-06
1.38463e-06
1.44375e-06
1.38221e-06
9.5833e-07
0
0
0
0
0
0
0
0
0
0
0
0
0
0
0
0
0
0
0
1.26381e-07
2.92849e-07
4.4317e-07
5.78714e-07
7.0101e-07
8.11769e-07
9.12837e-07
1.00612e-06
1.09346e-06
1.17618e-06
1.25517e-06
1.31936e-06
1.26615e-06
8.85499e-07
0
0
0
0
0
0
0
0
0
0
0
0
0
0
0
9.74076e-08
3.18321e-07
5.14432e-07
6.94102e-07
8.54184e-07
9.94235e-07
1.11606e-06
1.2215e-06
1.31246e-06
1.39085e-06
1.45824e-06
1.51571e-06
1.56358e-06
1.60114e-06
1.62681e-06
1.62982e-06
1.52948e-06
1.13956e-06
0
0
0
0
0
0
0
0
0
0
0
0
0
0
0
0
1.41308e-07
3.07511e-07
4.50038e-07
5.69807e-07
6.68848e-07
7.49911e-07
8.15179e-07
8.66224e-07
9.04045e-07
9.29047e-07
9.41053e-07
9.39375e-07
9.22862e-07
8.90277e-07
8.35753e-07
7.07509e-07
4.25282e-07
0
0
0
0
0
0
0
0
0
0
4.15228e-07
9.38244e-07
1.36487e-06
1.66463e-06
1.87163e-06
1.99889e-06
2.05643e-06
2.05963e-06
2.0257e-06
1.96766e-06
1.89508e-06
1.81437e-06
1.72887e-06
1.63966e-06
1.5462e-06
1.44692e-06
1.33964e-06
1.22167e-06
1.09015e-06
9.42038e-07
7.76777e-07
6.02451e-07
3.92687e-07
0
0
0
0
0
0
0
0
4.00817e-07
1.06319e-06
1.61983e-06
2.08129e-06
2.30265e-06
2.26566e-06
2.03683e-06
1.68178e-06
1.26318e-06
8.33458e-07
4.31148e-07
7.80846e-08
0
0
0
0
0
0
0
0
0
0
0
0
0
0
0
0
0
1.32519e-06
3.29257e-06
5.1656e-06
6.88695e-06
8.26024e-06
9.15277e-06
9.54045e-06
9.42249e-06
8.80818e-06
7.78851e-06
6.50734e-06
5.11992e-06
3.7634e-06
2.53549e-06
1.49085e-06
6.45074e-07
0
0
0
0
0
0
0
0
0
0
0
0
0
0
0
0
2.97969e-06
6.79476e-06
9.94092e-06
1.24676e-05
1.43688e-05
1.55637e-05
1.59718e-05
1.55613e-05
1.43399e-05
1.23776e-05
9.83337e-06
6.9589e-06
4.04876e-06
1.36166e-06
0
0
0
0
0
0
0
0
0
0
0
0
0
0
0
0
0
7.32441e-06
1.23123e-05
1.59323e-05
1.90875e-05
2.18732e-05
2.42067e-05
2.59537e-05
2.69801e-05
2.71675e-05
2.63917e-05
2.45157e-05
2.14572e-05
1.73083e-05
1.24294e-05
7.40297e-06
2.82028e-06
0
0
0
0
0
0
0
0
0
0
0
0
0
0
0
0
0
2.09801e-05
2.90045e-05
2.94931e-05
3.03595e-05
3.21439e-05
3.42483e-05
3.63067e-05
3.81237e-05
3.9525e-05
4.0184e-05
3.95016e-05
3.66075e-05
3.06772e-05
2.17362e-05
1.13307e-05
1.81615e-06
0
0
0
0
0
0
0
0
0
0
0
0
0
0
0
0
2.7965e-05
6.51639e-05
5.37065e-05
3.89422e-05
2.74212e-05
1.86472e-05
1.22276e-05
7.7152e-06
4.73686e-06
2.92091e-06
1.90479e-06
1.39787e-06
1.19538e-06
1.16236e-06
1.21541e-06
1.30712e-06
1.41322e-06
1.52319e-06
1.63369e-06
1.74475e-06
1.85766e-06
1.97366e-06
2.09326e-06
2.21605e-06
2.34071e-06
2.46517e-06
2.58683e-06
2.70268e-06
2.80965e-06
2.90467e-06
2.98515e-06
3.03503e-06
2.99924e-06
0
0
0
0
0
0
0
0
0
0
0
0
0
0
0
0
0
0
0
0
0
0
0
0
0
0
0
0
0
0
0
0
0
4.05376e-08
0
0
0
0
0
0
0
0
0
0
0
0
0
0
0
0
0
0
0
0
0
0
0
0
0
0
0
0
0
0
0
0
2.17337e-08
0
0
0
0
0
0
0
0
0
0
0
0
0
0
0
0
0
0
0
0
0
0
0
0
0
0
0
0
0
0
0
0
1.00491e-08
0
0
0
0
0
0
0
0
0
0
0
0
0
0
0
0
0
0
0
0
0
0
0
0
0
0
0
0
0
0
0
0
1.04132e-06
1.71082e-06
5.90476e-07
0
0
0
0
0
0
0
0
0
0
0
0
0
0
9.36335e-06
2.99734e-05
3.7451e-05
2.83732e-05
1.6866e-05
1.1171e-05
9.40553e-06
1.30122e-05
1.63174e-05
1.76606e-05
1.72379e-05
1.58493e-05
1.40842e-05
1.23375e-05
1.08688e-05
9.7923e-06
9.10023e-06
8.72393e-06
8.59941e-06
8.60644e-06
8.56748e-06
8.95093e-06
9.5049e-06
3.44133e-06
0
0
0
0
2.29613e-06
1.15429e-05
1.186e-05
1.36917e-05
1.70287e-05
2.02086e-05
2.02974e-05
1.74586e-05
1.21378e-05
2.33177e-06
0
0
1.78521e-05
3.44759e-05
4.32013e-05
5.0319e-05
5.41053e-05
4.75709e-05
3.13185e-05
1.45455e-05
3.98409e-06
0
0
0
0
0
0
0
0
0
0
0
0
0
2.461e-05
5.46886e-05
6.78863e-05
6.3161e-05
5.11722e-05
3.98693e-05
3.0584e-05
2.18806e-05
1.4717e-05
8.4217e-06
1.75574e-06
0
0
0
0
6.95819e-06
1.38575e-05
3.22777e-07
0
0
0
6.66862e-07
7.1353e-07
5.25469e-07
0
0
0
0
0
0
0
0
0
0
0
0
0
0
1.16211e-05
2.32478e-05
2.74287e-05
1.8772e-05
1.0726e-05
7.91612e-06
1.16651e-05
1.62215e-05
1.90083e-05
1.96957e-05
1.88883e-05
1.72327e-05
1.52693e-05
1.34036e-05
1.18693e-05
1.07503e-05
1.00191e-05
9.58957e-06
9.38345e-06
9.29859e-06
9.12274e-06
9.18137e-06
9.90934e-06
5.62904e-06
0
0
0
0
0
1.20501e-05
1.18727e-05
1.28981e-05
1.56555e-05
1.85597e-05
1.84332e-05
1.51434e-05
9.30489e-06
2.47046e-07
0
6.81384e-06
2.7959e-05
4.13118e-05
4.85568e-05
5.45495e-05
5.65835e-05
4.82333e-05
3.06737e-05
1.34e-05
3.36868e-06
1.24268e-07
0
0
0
0
0
0
0
0
0
0
0
0
2.46762e-05
5.31379e-05
6.41722e-05
5.99472e-05
4.98316e-05
4.00015e-05
3.12467e-05
2.34738e-05
1.73653e-05
1.13847e-05
4.55182e-06
0
0
0
0
9.72687e-06
1.47109e-05
1.00702e-06
0
0
0
0
0
1.61537e-07
6.01922e-07
3.97301e-07
0
0
0
0
0
0
0
0
0
0
0
1.92168e-06
9.6114e-06
1.69679e-05
1.64524e-05
8.69903e-06
5.86691e-06
9.5479e-06
1.46357e-05
1.84651e-05
2.02986e-05
2.03777e-05
1.92329e-05
1.74355e-05
1.54766e-05
1.3675e-05
1.21987e-05
1.11103e-05
1.03859e-05
9.93814e-06
9.67669e-06
9.51489e-06
9.24336e-06
9.01304e-06
9.61753e-06
7.05102e-06
0
0
0
0
0
1.13794e-05
1.13107e-05
1.14512e-05
1.34155e-05
1.5811e-05
1.55054e-05
1.20576e-05
6.42073e-06
0
1.98377e-07
1.60558e-05
3.50313e-05
4.61612e-05
5.26196e-05
5.78944e-05
5.83318e-05
4.80857e-05
2.93555e-05
1.20222e-05
2.86345e-06
1.04968e-06
1.8653e-06
5.63956e-07
0
0
0
0
0
0
0
0
0
0
2.22091e-05
4.81574e-05
5.80256e-05
5.50493e-05
4.71676e-05
3.8957e-05
3.11777e-05
2.47646e-05
1.96659e-05
1.40537e-05
7.34032e-06
2.48503e-07
0
0
0
1.16383e-05
1.5183e-05
1.89417e-06
0
0
0
0
0
6.43857e-08
5.60494e-07
3.41724e-07
0
0
0
0
0
0
0
0
0
0
0
6.92879e-07
6.19489e-06
8.6551e-06
5.04089e-06
3.84024e-06
7.77623e-06
1.2751e-05
1.70184e-05
1.97204e-05
2.07102e-05
2.02792e-05
1.89243e-05
1.71544e-05
1.53323e-05
1.3666e-05
1.22764e-05
1.12307e-05
1.05236e-05
1.00728e-05
9.77372e-06
9.54526e-06
9.20196e-06
8.73777e-06
9.04271e-06
7.85094e-06
0
0
0
0
0
9.73213e-06
1.05323e-05
9.77779e-06
1.08486e-05
1.26458e-05
1.22652e-05
8.96404e-06
4.14369e-06
5.10266e-07
6.11469e-06
2.34722e-05
4.0545e-05
5.02251e-05
5.63244e-05
6.13214e-05
6.04865e-05
4.82415e-05
2.81182e-05
1.07333e-05
2.57071e-06
2.0968e-06
4.51779e-06
5.30622e-06
1.6651e-06
0
0
0
0
0
0
0
0
0
1.92361e-05
4.23034e-05
5.13841e-05
4.99044e-05
4.43129e-05
3.76203e-05
3.10295e-05
2.59547e-05
2.16314e-05
1.63629e-05
9.93109e-06
3.21916e-06
0
0
0
1.31727e-05
1.56381e-05
2.99541e-06
0
0
0
0
0
6.24099e-06
2.95164e-06
0
0
0
0
0
0
0
0
0
0
0
0
0
1.27245e-06
1.90148e-06
3.49168e-06
6.76773e-06
1.1107e-05
1.53512e-05
1.85468e-05
2.02639e-05
2.05522e-05
1.9774e-05
1.83908e-05
1.67718e-05
1.51351e-05
1.36057e-05
1.22883e-05
1.12712e-05
1.05745e-05
1.01231e-05
9.79688e-06
9.5086e-06
9.10606e-06
8.46905e-06
8.38621e-06
8.06508e-06
6.48293e-07
0
0
0
0
6.99371e-06
9.61135e-06
8.0712e-06
8.19e-06
9.34348e-06
9.01577e-06
6.18372e-06
2.67832e-06
2.37606e-06
1.17962e-05
2.96536e-05
4.52794e-05
5.40424e-05
6.01321e-05
6.52693e-05
6.34865e-05
4.91155e-05
2.7248e-05
9.64641e-06
2.52439e-06
3.35773e-06
7.08284e-06
9.68569e-06
7.45827e-06
1.30258e-06
0
0
0
0
0
0
0
0
1.65455e-05
3.66723e-05
4.52426e-05
4.54885e-05
4.20054e-05
3.65344e-05
3.11359e-05
2.70833e-05
2.32698e-05
1.83415e-05
1.23211e-05
6.14562e-06
6.6729e-07
0
2.10934e-06
1.46366e-05
1.62733e-05
4.35689e-06
0
0
0
0
0
0
2.36562e-07
0
0
0
0
0
0
0
0
0
0
0
0
1.03209e-07
1.03295e-06
2.97432e-06
5.96509e-06
9.74825e-06
1.37034e-05
1.70357e-05
1.92102e-05
2.01031e-05
1.99261e-05
1.90451e-05
1.77973e-05
1.63972e-05
1.4952e-05
1.35412e-05
1.22729e-05
1.12637e-05
1.05633e-05
1.01073e-05
9.76106e-06
9.42052e-06
8.96486e-06
8.21188e-06
7.73244e-06
7.771e-06
2.58921e-06
0
0
0
0
3.0414e-06
8.40504e-06
6.36932e-06
5.50133e-06
5.97607e-06
5.82577e-06
3.79944e-06
1.97775e-06
4.81829e-06
1.69242e-05
3.48767e-05
4.94952e-05
5.77275e-05
6.40599e-05
6.96583e-05
6.72046e-05
5.06732e-05
2.6782e-05
8.79681e-06
2.76715e-06
4.92256e-06
9.74993e-06
1.38223e-05
1.3269e-05
6.98045e-06
0
0
0
0
0
0
0
0
1.44031e-05
3.18331e-05
4.02737e-05
4.23447e-05
4.04054e-05
3.58674e-05
3.14201e-05
2.79542e-05
2.44761e-05
1.99525e-05
1.44794e-05
8.9696e-06
4.32771e-06
2.08015e-06
6.53343e-06
1.62675e-05
1.72231e-05
5.99899e-06
0
0
0
0
0
0
0
0
0
0
0
0
0
0
0
0
0
0
0
6.29638e-07
2.4529e-06
5.09203e-06
8.4323e-06
1.20203e-05
1.52522e-05
1.76458e-05
1.89949e-05
1.93766e-05
1.904e-05
1.82634e-05
1.72476e-05
1.60869e-05
1.48193e-05
1.35029e-05
1.22572e-05
1.12293e-05
1.05033e-05
1.00318e-05
9.66794e-06
9.28256e-06
8.77507e-06
7.94989e-06
7.12292e-06
7.10186e-06
4.00541e-06
0
0
0
0
0
6.66229e-06
4.67836e-06
2.83882e-06
2.6045e-06
2.7241e-06
1.81313e-06
1.88543e-06
7.43908e-06
2.13841e-05
3.93426e-05
5.33574e-05
6.13619e-05
6.80848e-05
7.42481e-05
7.12536e-05
5.26988e-05
2.66697e-05
8.19416e-06
3.35892e-06
6.88986e-06
1.26919e-05
1.7914e-05
1.89707e-05
1.32713e-05
4.05217e-06
0
0
0
0
0
0
0
1.29281e-05
2.82859e-05
3.71147e-05
4.06613e-05
3.94872e-05
3.56264e-05
3.16834e-05
2.84362e-05
2.52357e-05
2.1222e-05
1.64249e-05
1.16803e-05
7.91089e-06
6.52083e-06
1.06347e-05
1.81534e-05
1.85058e-05
7.87015e-06
0
0
0
0
0
0
0
0
0
0
0
0
0
0
0
0
0
0
0
1.17941e-06
3.79941e-06
6.87471e-06
1.01219e-05
1.3158e-05
1.56253e-05
1.73067e-05
1.81781e-05
1.83767e-05
1.81112e-05
1.7561e-05
1.68162e-05
1.58884e-05
1.47742e-05
1.35237e-05
1.22699e-05
1.11912e-05
1.04108e-05
9.90546e-06
9.52111e-06
9.09777e-06
8.53794e-06
7.66808e-06
6.57581e-06
6.22051e-06
4.68298e-06
0
0
0
0
0
4.04811e-06
2.95555e-06
2.70713e-07
0
0
1.58724e-07
2.18793e-06
9.9401e-06
2.51378e-05
4.31623e-05
5.69624e-05
6.50286e-05
7.21913e-05
7.86864e-05
7.51257e-05
5.49567e-05
2.68653e-05
7.86039e-06
4.40643e-06
9.38418e-06
1.60567e-05
2.21618e-05
2.45646e-05
1.99138e-05
9.74442e-06
0
0
0
0
0
0
0
1.23732e-05
2.67066e-05
3.61624e-05
4.01878e-05
3.92087e-05
3.56782e-05
3.17978e-05
2.85478e-05
2.56186e-05
2.22038e-05
1.81841e-05
1.42728e-05
1.13769e-05
1.07335e-05
1.44882e-05
2.02847e-05
2.0086e-05
9.91666e-06
7.7589e-07
0
0
0
0
0
0
0
0
0
0
0
0
0
0
0
0
0
0
1.81387e-06
4.75327e-06
7.78772e-06
1.0682e-05
1.31916e-05
1.51291e-05
1.64181e-05
1.71111e-05
1.73525e-05
1.72965e-05
1.70319e-05
1.65613e-05
1.58407e-05
1.48461e-05
1.36285e-05
1.23347e-05
1.11714e-05
1.03032e-05
9.73945e-06
9.32552e-06
8.86896e-06
8.25653e-06
7.35306e-06
6.0857e-06
5.27745e-06
4.59422e-06
0
0
0
0
0
2.72334e-07
1.06299e-06
0
0
0
0
2.64438e-06
1.2104e-05
2.81456e-05
4.63452e-05
6.03164e-05
6.87616e-05
7.62653e-05
8.25164e-05
7.84283e-05
5.73945e-05
2.74223e-05
7.88131e-06
6.12131e-06
1.25643e-05
1.99406e-05
2.67025e-05
3.01223e-05
2.66505e-05
1.62699e-05
3.04681e-06
0
0
0
0
0
0
1.31908e-05
2.75153e-05
3.69486e-05
4.05209e-05
3.94449e-05
3.58852e-05
3.18076e-05
2.8428e-05
2.57263e-05
2.29369e-05
1.97582e-05
1.67279e-05
1.4688e-05
1.46886e-05
1.81103e-05
2.25679e-05
2.18672e-05
1.20599e-05
2.77034e-06
0
0
0
0
0
0
0
0
0
0
0
0
0
0
0
0
0
0
2.24628e-06
5.13531e-06
7.94031e-06
1.0483e-05
1.2608e-05
1.4226e-05
1.53433e-05
1.60532e-05
1.64816e-05
1.6712e-05
1.67454e-05
1.65186e-05
1.59597e-05
1.50429e-05
1.3826e-05
1.24653e-05
1.11881e-05
1.01987e-05
9.54717e-06
9.08827e-06
8.59974e-06
7.9363e-06
6.99768e-06
5.63275e-06
4.38415e-06
3.88746e-06
0
0
0
0
0
0
0
0
0
0
0
3.00794e-06
1.37691e-05
3.034e-05
4.8786e-05
6.32722e-05
7.23934e-05
7.99256e-05
8.53676e-05
8.12561e-05
6.03887e-05
2.86168e-05
8.50555e-06
8.91361e-06
1.655e-05
2.42701e-05
3.15072e-05
3.56756e-05
3.32809e-05
2.33483e-05
8.67859e-06
0
0
0
0
0
0
1.53647e-05
2.98271e-05
3.84623e-05
4.13509e-05
4.00024e-05
3.62477e-05
3.18847e-05
2.82542e-05
2.5649e-05
2.34296e-05
2.11157e-05
1.90047e-05
1.78031e-05
1.8359e-05
2.1481e-05
2.48858e-05
2.37406e-05
1.42343e-05
4.7065e-06
0
0
0
0
0
0
0
0
0
0
0
0
0
0
0
0
0
0
2.53256e-06
5.20573e-06
7.71279e-06
9.92622e-06
1.17626e-05
1.32083e-05
1.43212e-05
1.51956e-05
1.59008e-05
1.64344e-05
1.6726e-05
1.66804e-05
1.62256e-05
1.53463e-05
1.41063e-05
1.2663e-05
1.12532e-05
1.01142e-05
9.34334e-06
8.81831e-06
8.29413e-06
7.58303e-06
6.6007e-06
5.18986e-06
3.59767e-06
2.81467e-06
7.60009e-07
0
0
0
0
0
0
0
0
0
0
3.01695e-06
1.47948e-05
3.16205e-05
5.02616e-05
6.54613e-05
7.5392e-05
8.26069e-05
8.74024e-05
8.44302e-05
6.49496e-05
3.1119e-05
1.0395e-05
1.34284e-05
2.10421e-05
2.84846e-05
3.61943e-05
4.10834e-05
3.9635e-05
3.06013e-05
1.52697e-05
0
0
0
0
0
0
1.79413e-05
3.22339e-05
4.00728e-05
4.23835e-05
4.07715e-05
3.68532e-05
3.21944e-05
2.8174e-05
2.54554e-05
2.36733e-05
2.22104e-05
2.10512e-05
2.06761e-05
2.17121e-05
2.45577e-05
2.71174e-05
2.5593e-05
1.63715e-05
6.5386e-06
0
0
0
0
0
0
0
0
0
0
0
0
0
0
0
0
0
2.48491e-07
2.69742e-06
5.07252e-06
7.26789e-06
9.20992e-06
1.08775e-05
1.23056e-05
1.35603e-05
1.46896e-05
1.56824e-05
1.64645e-05
1.6932e-05
1.69913e-05
1.65872e-05
1.57168e-05
1.44437e-05
1.29166e-05
1.13693e-05
1.00623e-05
9.14286e-06
8.5264e-06
7.95745e-06
7.20258e-06
6.16752e-06
4.73248e-06
2.92311e-06
1.63663e-06
5.73374e-07
0
0
0
0
0
0
0
0
0
0
2.36298e-06
1.50151e-05
3.18666e-05
5.04996e-05
6.63587e-05
7.70263e-05
8.41735e-05
8.95494e-05
8.92996e-05
7.29431e-05
3.6409e-05
1.53345e-05
1.94635e-05
2.40682e-05
3.09096e-05
3.97391e-05
4.58819e-05
4.54874e-05
3.76236e-05
2.25834e-05
2.15218e-06
0
0
0
0
1.72658e-07
2.03116e-05
3.42567e-05
4.15067e-05
4.34349e-05
4.17018e-05
3.77221e-05
3.28006e-05
2.82824e-05
2.52138e-05
2.36744e-05
2.30083e-05
2.28205e-05
2.32621e-05
2.47127e-05
2.72924e-05
2.91589e-05
2.73286e-05
1.84164e-05
8.24035e-06
0
0
0
0
0
0
0
0
0
0
0
0
0
0
0
0
0
6.3371e-07
2.78367e-06
4.85221e-06
6.78069e-06
8.55027e-06
1.01837e-05
1.17244e-05
1.31975e-05
1.45779e-05
1.57868e-05
1.67173e-05
1.72684e-05
1.73672e-05
1.69778e-05
1.61042e-05
1.48026e-05
1.32045e-05
1.15299e-05
1.00499e-05
8.95905e-06
8.2244e-06
7.59629e-06
6.79998e-06
5.70748e-06
4.24485e-06
2.32885e-06
5.44256e-07
0
0
0
0
0
0
0
0
0
0
0
6.79321e-07
1.41593e-05
3.09336e-05
4.93173e-05
6.56003e-05
7.70888e-05
8.53571e-05
9.27461e-05
9.6728e-05
8.7082e-05
4.75876e-05
2.38691e-05
1.86031e-05
1.97108e-05
2.80898e-05
4.01673e-05
4.9139e-05
5.04567e-05
4.40277e-05
3.01805e-05
8.41395e-06
0
0
0
0
2.54565e-06
2.25545e-05
3.59485e-05
4.26965e-05
4.43935e-05
4.26728e-05
3.87513e-05
3.36636e-05
2.86333e-05
2.50163e-05
2.34808e-05
2.35053e-05
2.42804e-05
2.55209e-05
2.7326e-05
2.964e-05
3.09249e-05
2.88665e-05
2.0316e-05
9.78018e-06
0
0
0
0
0
0
0
0
0
0
0
0
0
0
0
0
0
9.49157e-07
2.80448e-06
4.61933e-06
6.38273e-06
8.11166e-06
9.83217e-06
1.15491e-05
1.32229e-05
1.47698e-05
1.60834e-05
1.7061e-05
1.76235e-05
1.77212e-05
1.73314e-05
1.64582e-05
1.51445e-05
1.34989e-05
1.17198e-05
1.00765e-05
8.80193e-06
7.92429e-06
7.2188e-06
6.38001e-06
5.23149e-06
3.72532e-06
1.77202e-06
0
0
0
0
0
0
0
0
0
0
0
0
0
1.17519e-05
2.85121e-05
4.65827e-05
6.31796e-05
7.60134e-05
8.63058e-05
9.51037e-05
0.00010099
9.14374e-05
2.37903e-05
0
0
0
1.54874e-05
3.45936e-05
4.93549e-05
5.39172e-05
4.94254e-05
3.74718e-05
1.56127e-05
0
0
0
0
5.37313e-06
2.47785e-05
3.73551e-05
4.35589e-05
4.50899e-05
4.34918e-05
3.97728e-05
3.46853e-05
2.92457e-05
2.49752e-05
2.31868e-05
2.37312e-05
2.54137e-05
2.74164e-05
2.95198e-05
3.15637e-05
3.23499e-05
3.01409e-05
2.20239e-05
1.11346e-05
0
0
0
0
0
0
0
0
0
0
0
0
0
0
0
0
0
1.21633e-06
2.84157e-06
4.50523e-06
6.22397e-06
8.01237e-06
9.86008e-06
1.17173e-05
1.34977e-05
1.50969e-05
1.6414e-05
1.73676e-05
1.79017e-05
1.79833e-05
1.75955e-05
1.6737e-05
1.54343e-05
1.37711e-05
1.19187e-05
1.01343e-05
8.67662e-06
7.63687e-06
6.83411e-06
5.94762e-06
4.74908e-06
3.18462e-06
1.21662e-06
0
0
0
0
0
0
0
0
0
0
0
0
0
7.19901e-06
2.38241e-05
4.15724e-05
5.83684e-05
7.22646e-05
8.18744e-05
8.2892e-05
5.80409e-05
2.95089e-06
1.6668e-06
0
0
0
0
2.02586e-05
4.45047e-05
5.49173e-05
5.335e-05
4.38183e-05
2.34042e-05
0
0
0
0
8.63974e-06
2.69382e-05
3.83852e-05
4.39471e-05
4.53487e-05
4.39803e-05
4.0622e-05
3.57417e-05
3.00906e-05
2.51879e-05
2.29181e-05
2.37457e-05
2.62167e-05
2.89162e-05
3.12657e-05
3.30384e-05
3.33896e-05
3.11017e-05
2.3497e-05
1.22808e-05
0
0
0
0
0
0
0
0
0
0
0
0
0
0
0
0
6.12284e-08
1.45508e-06
2.9538e-06
4.57843e-06
6.33682e-06
8.20938e-06
1.01415e-05
1.20487e-05
1.38313e-05
1.53925e-05
1.66508e-05
1.75468e-05
1.80414e-05
1.81102e-05
1.77368e-05
1.69117e-05
1.56449e-05
1.3995e-05
1.21045e-05
1.02101e-05
8.58256e-06
7.37042e-06
6.4516e-06
5.50856e-06
4.26686e-06
2.63912e-06
6.43804e-07
0
0
0
0
0
0
0
0
0
0
0
0
0
3.36115e-07
1.5792e-05
3.23038e-05
4.76701e-05
5.83292e-05
5.69555e-05
3.07483e-05
0
4.83104e-06
6.19748e-06
0
0
0
0
0
3.2489e-05
5.21185e-05
5.51467e-05
4.85674e-05
3.09925e-05
0
0
0
0
1.2321e-05
2.89323e-05
3.89436e-05
4.37697e-05
4.5066e-05
4.40143e-05
4.11577e-05
3.66923e-05
3.10797e-05
2.56945e-05
2.28016e-05
2.36305e-05
2.66991e-05
2.99943e-05
3.25424e-05
3.40573e-05
3.40312e-05
3.17296e-05
2.4712e-05
1.32128e-05
0
0
0
0
0
0
0
0
0
0
0
0
0
0
0
0
4.49702e-07
1.74214e-06
3.20839e-06
4.85476e-06
6.65854e-06
8.56616e-06
1.04991e-05
1.23657e-05
1.40752e-05
1.55482e-05
1.6723e-05
1.75556e-05
1.80164e-05
1.80841e-05
1.77399e-05
1.69661e-05
1.57577e-05
1.41499e-05
1.22561e-05
1.02874e-05
8.51372e-06
7.1295e-06
6.07986e-06
5.06963e-06
3.78959e-06
2.10516e-06
5.88006e-08
0
0
0
0
0
0
0
0
0
0
0
0
0
0
4.37211e-06
1.73621e-05
2.73618e-05
2.80559e-05
1.21757e-05
0
3.18409e-06
1.09481e-05
8.14124e-06
0
0
0
0
0
1.24404e-05
4.39303e-05
5.38805e-05
5.09656e-05
3.70875e-05
0
0
0
0
1.63305e-05
3.06034e-05
3.89313e-05
4.29635e-05
4.4174e-05
4.34993e-05
4.12529e-05
3.7385e-05
3.20723e-05
2.64514e-05
2.29267e-05
2.34758e-05
2.68852e-05
3.06363e-05
3.33426e-05
3.46407e-05
3.43093e-05
3.20573e-05
2.56799e-05
1.39427e-05
0
0
0
0
0
0
0
0
0
0
0
0
0
0
0
0
8.2132e-07
2.09292e-06
3.57204e-06
5.23811e-06
7.04312e-06
8.91774e-06
1.07809e-05
1.25501e-05
1.41504e-05
1.55198e-05
1.66104e-05
1.73877e-05
1.78263e-05
1.79055e-05
1.76033e-05
1.68952e-05
1.5763e-05
1.42215e-05
1.23558e-05
1.03489e-05
8.45978e-06
6.91438e-06
5.72546e-06
4.63783e-06
3.32115e-06
1.59351e-06
0
0
0
0
0
0
0
0
0
0
0
0
0
0
0
0
0
2.24004e-06
0
0
3.53523e-07
1.00675e-05
1.28057e-05
9.23564e-06
0
0
0
0
0
0
2.93703e-05
4.83856e-05
4.99904e-05
3.99617e-05
0
0
0
1.53192e-06
2.03893e-05
3.16797e-05
3.81908e-05
4.14355e-05
4.25944e-05
4.23425e-05
4.07857e-05
3.76648e-05
3.28958e-05
2.73343e-05
2.33086e-05
2.33604e-05
2.68145e-05
3.08492e-05
3.36827e-05
3.48442e-05
3.43145e-05
3.21783e-05
2.6449e-05
1.44977e-05
0
0
0
0
0
0
0
0
0
0
0
0
0
0
0
1.77587e-07
1.2373e-06
2.51419e-06
3.99333e-06
5.63553e-06
7.38307e-06
9.16713e-06
1.09157e-05
1.25604e-05
1.40414e-05
1.5309e-05
1.63243e-05
1.70576e-05
1.74852e-05
1.75856e-05
1.73344e-05
1.67014e-05
1.56582e-05
1.42014e-05
1.23903e-05
1.03788e-05
8.40806e-06
6.72132e-06
5.39253e-06
4.22003e-06
2.86687e-06
1.1104e-06
0
0
0
0
0
0
0
0
0
0
0
0
0
0
0
0
0
0
0
0
7.1847e-06
1.22294e-05
1.33944e-05
1.01216e-05
0
0
0
0
0
0
1.03105e-05
3.77643e-05
4.41959e-05
3.74502e-05
0
0
0
1.00997e-05
2.389e-05
3.17896e-05
3.65258e-05
3.90716e-05
4.02411e-05
4.04559e-05
3.96469e-05
3.73879e-05
3.33711e-05
2.81658e-05
2.38748e-05
2.33305e-05
2.6541e-05
3.06709e-05
3.36118e-05
3.47549e-05
3.41738e-05
3.22167e-05
2.70704e-05
1.48745e-05
0
0
0
0
0
0
0
0
0
0
0
0
0
0
0
6.03185e-07
1.66822e-06
2.93696e-06
4.38067e-06
5.95434e-06
7.60237e-06
9.26443e-06
1.08808e-05
1.23961e-05
1.37617e-05
1.49368e-05
1.58878e-05
1.65872e-05
1.7012e-05
1.714e-05
1.69446e-05
1.63919e-05
1.54452e-05
1.40862e-05
1.23508e-05
1.03643e-05
8.34564e-06
6.54345e-06
5.08205e-06
3.82097e-06
2.43139e-06
6.5779e-07
0
0
0
0
0
0
0
0
0
0
0
0
0
0
0
0
0
0
0
3.28973e-06
9.36972e-06
1.2566e-05
1.38842e-05
1.11646e-05
0
0
0
0
0
0
0
2.28769e-05
3.17392e-05
2.70967e-05
0
0
0
1.96973e-05
2.58901e-05
3.05487e-05
3.37649e-05
3.57874e-05
3.7062e-05
3.77885e-05
3.77659e-05
3.64474e-05
3.33446e-05
2.87589e-05
2.44893e-05
2.33908e-05
2.61353e-05
3.0179e-05
3.32138e-05
3.4472e-05
3.39961e-05
3.22471e-05
2.75183e-05
1.49961e-05
0
0
0
0
0
0
0
0
0
0
0
0
0
0
1.96225e-07
1.05331e-06
2.10355e-06
3.32884e-06
4.69693e-06
6.16571e-06
7.68729e-06
9.21192e-06
1.06912e-05
1.208e-05
1.3338e-05
1.443e-05
1.53254e-05
1.59982e-05
1.64255e-05
1.65841e-05
1.64464e-05
1.59756e-05
1.51292e-05
1.38766e-05
1.22329e-05
1.02965e-05
8.26172e-06
6.37335e-06
4.79375e-06
3.44537e-06
2.02178e-06
2.41457e-07
0
0
0
0
0
0
0
0
0
0
0
0
0
0
0
0
0
0
0
5.11055e-06
9.3982e-06
1.26506e-05
1.48717e-05
1.30272e-05
0
0
0
0
0
0
0
8.08493e-06
1.12039e-05
9.10231e-06
0
0
0
2.58358e-05
2.55967e-05
2.7766e-05
2.98857e-05
3.16311e-05
3.31233e-05
3.43933e-05
3.51631e-05
3.48154e-05
3.2727e-05
2.89648e-05
2.50002e-05
2.35122e-05
2.56819e-05
2.94899e-05
3.25981e-05
3.40719e-05
3.37997e-05
3.2197e-05
2.76141e-05
1.47763e-05
0
0
0
0
0
0
0
0
0
0
0
0
0
0
6.28879e-07
1.47124e-06
2.47848e-06
3.63015e-06
4.89679e-06
6.24284e-06
7.6292e-06
9.01573e-06
1.03631e-05
1.16339e-05
1.27937e-05
1.38111e-05
1.4658e-05
1.53092e-05
1.57416e-05
1.59317e-05
1.58511e-05
1.54618e-05
1.47169e-05
1.35759e-05
1.20363e-05
1.0171e-05
8.14877e-06
6.20383e-06
4.52481e-06
3.09406e-06
1.64025e-06
0
0
0
0
0
0
0
0
0
0
0
0
0
0
0
0
0
0
0
1.91699e-07
4.79638e-06
9.0492e-06
1.32964e-05
1.67873e-05
1.62945e-05
5.01095e-06
0
0
0
0
2.10864e-05
1.07628e-05
0
0
0
9.28334e-06
0
0
2.54013e-05
2.32229e-05
2.37505e-05
2.52204e-05
2.69323e-05
2.87192e-05
3.05097e-05
3.20128e-05
3.25919e-05
3.15333e-05
2.87113e-05
2.52884e-05
2.36542e-05
2.52768e-05
2.87511e-05
3.18805e-05
3.35723e-05
3.34612e-05
3.18013e-05
2.69914e-05
1.44516e-05
0
0
0
0
0
0
0
0
0
0
0
0
0
3.83164e-07
1.03618e-06
1.83622e-06
2.77283e-06
3.82784e-06
4.97713e-06
6.19225e-06
7.44209e-06
8.69435e-06
9.91673e-06
1.10777e-05
1.21471e-05
1.30966e-05
1.38997e-05
1.45321e-05
1.49707e-05
1.5192e-05
1.51674e-05
1.48581e-05
1.42148e-05
1.31895e-05
1.1764e-05
9.98816e-06
8.00462e-06
6.03235e-06
4.27607e-06
2.77214e-06
1.29467e-06
0
0
0
0
0
0
0
0
0
0
0
0
0
0
0
0
0
0
0
0
3.97886e-06
9.23289e-06
1.48417e-05
1.94988e-05
2.06171e-05
1.26534e-05
0
0
0
8.39249e-05
5.91719e-05
9.82613e-06
0
0
0
3.36913e-06
1.00032e-06
3.28152e-06
2.10497e-05
2.01049e-05
1.97158e-05
2.07177e-05
2.23864e-05
2.43817e-05
2.65632e-05
2.86476e-05
3.00067e-05
2.98829e-05
2.80119e-05
2.52895e-05
2.37732e-05
2.49952e-05
2.80945e-05
3.1134e-05
3.28961e-05
3.27216e-05
3.06486e-05
2.51297e-05
1.40698e-05
0
0
3.82602e-08
0
0
0
0
0
0
0
0
0
2.68168e-07
7.56427e-07
1.36979e-06
2.10545e-06
2.95439e-06
3.90229e-06
4.9304e-06
6.01646e-06
7.13577e-06
8.2621e-06
9.36849e-06
1.04279e-05
1.14137e-05
1.23e-05
1.30623e-05
1.36772e-05
1.41222e-05
1.43737e-05
1.44035e-05
1.41728e-05
1.36309e-05
1.2724e-05
1.14211e-05
9.75013e-06
7.82806e-06
5.85497e-06
4.0432e-06
2.47594e-06
9.80791e-07
0
0
0
0
0
0
0
0
0
0
0
0
0
0
0
0
0
0
0
0
3.65275e-06
1.02686e-05
1.68309e-05
2.22035e-05
2.47924e-05
2.10093e-05
4.014e-06
0
0
6.59978e-05
2.71975e-05
0
0
0
0
0
1.18236e-05
0
1.39754e-05
1.65029e-05
1.65111e-05
1.71786e-05
1.85764e-05
2.05545e-05
2.29358e-05
2.53982e-05
2.73242e-05
2.7955e-05
2.69495e-05
2.49974e-05
2.3825e-05
2.48439e-05
2.75558e-05
3.03143e-05
3.18358e-05
3.1194e-05
2.81856e-05
2.10326e-05
1.02695e-05
0
0
1.98434e-07
0
0
0
0
0
0
0
0
2.15051e-07
5.67859e-07
1.0222e-06
1.58043e-06
2.2404e-06
2.99564e-06
3.83568e-06
4.74636e-06
5.71044e-06
6.70824e-06
7.71827e-06
8.71783e-06
9.68363e-06
1.05922e-05
1.14204e-05
1.21454e-05
1.27451e-05
1.31978e-05
1.34802e-05
1.35644e-05
1.34122e-05
1.29726e-05
1.21876e-05
1.10153e-05
9.46395e-06
7.62504e-06
5.67708e-06
3.83297e-06
2.21527e-06
7.10784e-07
0
0
0
0
0
0
0
0
0
0
0
0
0
0
0
0
0
0
0
0
4.18309e-06
1.1537e-05
1.84998e-05
2.41868e-05
2.76744e-05
2.69929e-05
1.85945e-05
8.83447e-07
0
6.78874e-06
0
0
0
0
0
0
1.37345e-05
9.20232e-06
1.14403e-05
1.23836e-05
1.2516e-05
1.3186e-05
1.47158e-05
1.68863e-05
1.94727e-05
2.2192e-05
2.45081e-05
2.57228e-05
2.54788e-05
2.43169e-05
2.3651e-05
2.46406e-05
2.69379e-05
2.91451e-05
2.99794e-05
2.82964e-05
2.36625e-05
1.41082e-05
3.25041e-06
0
0
4.55546e-07
1.08576e-07
0
0
0
0
0
8.83625e-08
2.51265e-07
4.86312e-07
8.01443e-07
1.20204e-06
1.69046e-06
2.26589e-06
2.92412e-06
3.65759e-06
4.45555e-06
5.30447e-06
6.18843e-06
7.08967e-06
7.98915e-06
8.86694e-06
9.70269e-06
1.04758e-05
1.11656e-05
1.17515e-05
1.22122e-05
1.25251e-05
1.26628e-05
1.2588e-05
1.22496e-05
1.15872e-05
1.05498e-05
9.12802e-06
7.38884e-06
5.48749e-06
3.63164e-06
1.97574e-06
4.69586e-07
0
0
0
0
0
0
0
0
0
0
0
0
0
0
0
0
0
0
0
0
4.68592e-06
1.23823e-05
1.95501e-05
2.53146e-05
2.90621e-05
2.96781e-05
2.51889e-05
1.4628e-05
2.39177e-06
0
0
0
0
0
0
0
1.10668e-05
1.42851e-05
1.22525e-05
8.85572e-06
7.64619e-06
8.20562e-06
9.86572e-06
1.22357e-05
1.51183e-05
1.82286e-05
2.10242e-05
2.28332e-05
2.33211e-05
2.29514e-05
2.28645e-05
2.38974e-05
2.56878e-05
2.702e-05
2.66759e-05
2.34456e-05
1.71356e-05
6.77823e-06
0
0
0
4.59033e-07
1.35963e-07
3.54425e-08
0
0
9.31292e-09
6.3414e-08
1.62356e-07
3.14483e-07
5.2726e-07
8.07096e-07
1.15875e-06
1.58488e-06
2.08576e-06
2.65892e-06
3.29912e-06
3.99844e-06
4.74645e-06
5.53057e-06
6.33647e-06
7.14842e-06
7.94969e-06
8.7228e-06
9.44966e-06
1.01116e-05
1.06894e-05
1.11628e-05
1.15098e-05
1.17037e-05
1.17081e-05
1.14726e-05
1.09353e-05
1.00382e-05
8.75661e-06
7.13431e-06
5.30206e-06
3.45718e-06
1.77871e-06
2.8146e-07
0
0
0
0
0
0
0
0
0
0
0
0
0
0
0
0
0
0
0
0
4.69323e-06
1.27233e-05
2.00954e-05
2.58499e-05
2.95656e-05
3.05346e-05
2.72974e-05
1.86393e-05
5.41957e-06
0
0
0
0
0
0
0
1.82564e-06
1.96407e-06
1.29872e-06
9.95284e-07
1.10783e-06
2.24222e-06
4.02514e-06
6.39608e-06
9.50277e-06
1.31299e-05
1.65898e-05
1.90976e-05
2.03179e-05
2.06831e-05
2.1096e-05
2.20645e-05
2.31611e-05
2.33605e-05
2.16695e-05
1.72418e-05
1.0621e-05
1.78165e-06
0
0
0
7.16977e-07
4.0477e-07
2.92536e-07
2.34399e-07
2.00525e-07
1.933e-07
2.18613e-07
2.83579e-07
3.9515e-07
5.59621e-07
7.82557e-07
1.06843e-06
1.42017e-06
1.83878e-06
2.32308e-06
2.86957e-06
3.47244e-06
4.12367e-06
4.81324e-06
5.52951e-06
6.25947e-06
6.98904e-06
7.70326e-06
8.38631e-06
9.02143e-06
9.59086e-06
1.00755e-05
1.04541e-05
1.07003e-05
1.07788e-05
1.06401e-05
1.02218e-05
9.46109e-06
8.32123e-06
6.82545e-06
5.0806e-06
3.26975e-06
1.58842e-06
1.14216e-07
0