/*--------------------------------*- C++ -*----------------------------------*\
  =========                 |
  \\      /  F ield         | OpenFOAM: The Open Source CFD Toolbox
   \\    /   O peration     | Website:  https://openfoam.org
    \\  /    A nd           | Version:  10
     \\/     M anipulation  |
\*---------------------------------------------------------------------------*/
FoamFile
{
    format      ascii;
    class       volScalarField;
    location    "0.175";
    object      p;
}
// * * * * * * * * * * * * * * * * * * * * * * * * * * * * * * * * * * * * * //

dimensions      [0 2 -2 0 0 0 0];

internalField   nonuniform List<scalar> 
6820
(
-9.68518
-9.98836
-10.0366
-10.0555
-10.0914
-10.121
-10.1444
-10.1661
-10.1866
-10.2057
-10.2237
-10.2409
-10.2573
-10.2728
-10.2873
-10.3008
-10.313
-10.3237
-10.3325
-10.339
-10.3428
-10.3433
-10.3399
-10.3318
-10.318
-10.2974
-10.2686
-10.23
-10.1791
-10.113
-10.0286
-9.91697
-9.78722
-9.88614
-10.0119
-10.0505
-10.0692
-10.0993
-10.1257
-10.1474
-10.1679
-10.1876
-10.2061
-10.2237
-10.2406
-10.2566
-10.2719
-10.2863
-10.2996
-10.3117
-10.3223
-10.3311
-10.3378
-10.3418
-10.3428
-10.34
-10.3329
-10.3205
-10.3018
-10.2758
-10.2409
-10.1955
-10.1381
-10.066
-9.9845
-9.88815
-9.88593
-9.97215
-10.0327
-10.0625
-10.0947
-10.1237
-10.1477
-10.1696
-10.1902
-10.2094
-10.2275
-10.2446
-10.2609
-10.2762
-10.2905
-10.3038
-10.3157
-10.3262
-10.335
-10.3416
-10.3459
-10.3473
-10.3453
-10.3394
-10.3289
-10.3133
-10.2916
-10.2631
-10.2274
-10.184
-10.1351
-10.0826
-10.0477
-9.94253
-10.0131
-10.0631
-10.0864
-10.112
-10.1369
-10.1581
-10.1777
-10.1966
-10.2145
-10.2315
-10.2478
-10.2633
-10.2781
-10.292
-10.3049
-10.3167
-10.3271
-10.336
-10.3429
-10.3476
-10.3497
-10.3488
-10.3443
-10.3359
-10.323
-10.3051
-10.2818
-10.2531
-10.2193
-10.1828
-10.1467
-10.123
-9.97211
-10.0117
-10.0528
-10.0789
-10.1057
-10.1317
-10.1545
-10.1754
-10.1952
-10.2139
-10.2316
-10.2485
-10.2645
-10.2797
-10.2939
-10.3071
-10.3192
-10.33
-10.3392
-10.3466
-10.352
-10.355
-10.3553
-10.3526
-10.3465
-10.3368
-10.3232
-10.3056
-10.2845
-10.2607
-10.2367
-10.2149
-10.2044
-10.0015
-10.033
-10.0724
-10.0988
-10.1229
-10.1463
-10.1671
-10.1863
-10.2047
-10.2221
-10.2388
-10.2547
-10.27
-10.2845
-10.2983
-10.3111
-10.323
-10.3337
-10.343
-10.3508
-10.3568
-10.3608
-10.3625
-10.3617
-10.3582
-10.3519
-10.3427
-10.3308
-10.3169
-10.302
-10.2881
-10.2773
-10.275
-10.026
-10.0466
-10.0772
-10.1003
-10.1221
-10.1444
-10.1651
-10.1844
-10.203
-10.2209
-10.2379
-10.2543
-10.2699
-10.2848
-10.299
-10.3123
-10.3246
-10.3358
-10.3459
-10.3545
-10.3616
-10.3669
-10.3704
-10.3718
-10.3712
-10.3686
-10.364
-10.3579
-10.3511
-10.3445
-10.34
-10.3392
-10.3454
-10.0476
-10.0629
-10.0898
-10.1129
-10.1344
-10.1557
-10.1757
-10.1943
-10.2121
-10.2292
-10.2456
-10.2613
-10.2765
-10.2909
-10.3048
-10.3178
-10.3301
-10.3414
-10.3518
-10.3609
-10.3688
-10.3754
-10.3805
-10.3842
-10.3864
-10.3873
-10.3873
-10.3867
-10.3864
-10.3874
-10.3912
-10.3991
-10.4132
-10.0668
-10.078
-10.1
-10.1202
-10.1393
-10.1586
-10.1774
-10.1953
-10.2126
-10.2295
-10.2458
-10.2616
-10.2768
-10.2915
-10.3057
-10.3191
-10.3319
-10.3438
-10.355
-10.3651
-10.3743
-10.3825
-10.3896
-10.3958
-10.4011
-10.4058
-10.4103
-10.4151
-10.421
-10.4291
-10.4406
-10.4566
-10.4787
-10.0842
-10.0927
-10.1113
-10.1302
-10.1484
-10.1671
-10.1854
-10.203
-10.22
-10.2365
-10.2525
-10.2681
-10.2831
-10.2976
-10.3117
-10.3252
-10.3381
-10.3504
-10.362
-10.3729
-10.3831
-10.3927
-10.4016
-10.4101
-10.4183
-10.4265
-10.4352
-10.4449
-10.4566
-10.471
-10.4894
-10.5127
-10.5424
-10.1
-10.1067
-10.1223
-10.1391
-10.1557
-10.1728
-10.1899
-10.2065
-10.2228
-10.2388
-10.2544
-10.2697
-10.2847
-10.2993
-10.3135
-10.3272
-10.3406
-10.3535
-10.3659
-10.3779
-10.3894
-10.4006
-10.4116
-10.4225
-10.4336
-10.4454
-10.4582
-10.4727
-10.4896
-10.5099
-10.5346
-10.5646
-10.6013
-10.1147
-10.12
-10.1333
-10.1485
-10.164
-10.1803
-10.1967
-10.2129
-10.2289
-10.2447
-10.2602
-10.2754
-10.2903
-10.3049
-10.3192
-10.3331
-10.3468
-10.3602
-10.3733
-10.3861
-10.3988
-10.4115
-10.4243
-10.4374
-10.4513
-10.4662
-10.4827
-10.5014
-10.523
-10.5484
-10.5786
-10.6144
-10.657
-10.1282
-10.1327
-10.144
-10.1577
-10.172
-10.187
-10.2024
-10.2178
-10.2331
-10.2483
-10.2634
-10.2783
-10.293
-10.3075
-10.3219
-10.3361
-10.3501
-10.364
-10.3779
-10.3917
-10.4057
-10.4198
-10.4345
-10.4499
-10.4663
-10.4842
-10.5042
-10.5267
-10.5525
-10.5825
-10.6174
-10.6582
-10.706
-10.1409
-10.1446
-10.1544
-10.1668
-10.18
-10.1941
-10.2088
-10.2237
-10.2386
-10.2536
-10.2685
-10.2833
-10.298
-10.3126
-10.3271
-10.3416
-10.356
-10.3705
-10.385
-10.3998
-10.4149
-10.4304
-10.4468
-10.4641
-10.4829
-10.5034
-10.5263
-10.5521
-10.5814
-10.6151
-10.6539
-10.6985
-10.7502
-10.1527
-10.156
-10.1645
-10.1756
-10.1879
-10.2011
-10.2149
-10.2291
-10.2435
-10.2579
-10.2724
-10.2869
-10.3015
-10.316
-10.3306
-10.3452
-10.3599
-10.3749
-10.39
-10.4056
-10.4217
-10.4386
-10.4565
-10.4756
-10.4964
-10.5193
-10.5447
-10.5732
-10.6055
-10.6422
-10.684
-10.7317
-10.7862
-10.1638
-10.1666
-10.1742
-10.1843
-10.1956
-10.208
-10.2212
-10.2348
-10.2487
-10.2628
-10.2771
-10.2915
-10.306
-10.3206
-10.3353
-10.3501
-10.3652
-10.3807
-10.3965
-10.4128
-10.4299
-10.448
-10.4672
-10.4879
-10.5104
-10.5352
-10.5626
-10.5934
-10.6279
-10.6667
-10.7107
-10.7602
-10.8164
-10.1742
-10.1767
-10.1835
-10.1927
-10.2032
-10.2148
-10.2273
-10.2403
-10.2537
-10.2674
-10.2813
-10.2954
-10.3097
-10.3242
-10.3389
-10.3539
-10.3693
-10.385
-10.4013
-10.4183
-10.4362
-10.4551
-10.4754
-10.4974
-10.5213
-10.5476
-10.5766
-10.6089
-10.645
-10.6853
-10.7305
-10.781
-10.8377
-10.184
-10.1862
-10.1923
-10.2007
-10.2105
-10.2214
-10.2333
-10.2458
-10.2587
-10.2721
-10.2857
-10.2996
-10.3138
-10.3283
-10.3431
-10.3582
-10.3738
-10.3899
-10.4066
-10.4242
-10.4427
-10.4625
-10.4837
-10.5066
-10.5315
-10.5589
-10.589
-10.6223
-10.6593
-10.7003
-10.7459
-10.7965
-10.8526
-10.1932
-10.1952
-10.2007
-10.2084
-10.2175
-10.2278
-10.2391
-10.2511
-10.2636
-10.2765
-10.2898
-10.3035
-10.3175
-10.3318
-10.3466
-10.3617
-10.3774
-10.3937
-10.4107
-10.4286
-10.4476
-10.4679
-10.4896
-10.5132
-10.5388
-10.5667
-10.5974
-10.6311
-10.6683
-10.7093
-10.7546
-10.8043
-10.859
-10.2017
-10.2036
-10.2086
-10.2158
-10.2243
-10.234
-10.2447
-10.2562
-10.2683
-10.2808
-10.2938
-10.3073
-10.3211
-10.3353
-10.35
-10.3651
-10.3809
-10.3973
-10.4145
-10.4327
-10.452
-10.4725
-10.4946
-10.5185
-10.5444
-10.5725
-10.6033
-10.6369
-10.6738
-10.7141
-10.7582
-10.8063
-10.8588
-10.2097
-10.2114
-10.2161
-10.2227
-10.2307
-10.2399
-10.2501
-10.2611
-10.2727
-10.2849
-10.2976
-10.3107
-10.3243
-10.3383
-10.3529
-10.3679
-10.3836
-10.4
-10.4173
-10.4355
-10.4548
-10.4754
-10.4976
-10.5214
-10.5472
-10.5751
-10.6054
-10.6384
-10.6743
-10.7133
-10.7557
-10.8015
-10.8511
-10.2171
-10.2187
-10.223
-10.2292
-10.2367
-10.2454
-10.2552
-10.2657
-10.277
-10.2888
-10.3011
-10.3139
-10.3272
-10.341
-10.3553
-10.3702
-10.3858
-10.4021
-10.4192
-10.4373
-10.4565
-10.4769
-10.4988
-10.5223
-10.5477
-10.575
-10.6045
-10.6363
-10.6708
-10.7079
-10.748
-10.791
-10.8371
-10.2239
-10.2253
-10.2294
-10.2352
-10.2423
-10.2506
-10.2599
-10.2701
-10.2809
-10.2923
-10.3043
-10.3168
-10.3298
-10.3433
-10.3574
-10.372
-10.3873
-10.4034
-10.4202
-10.438
-10.4569
-10.4769
-10.4983
-10.5211
-10.5456
-10.572
-10.6002
-10.6305
-10.6631
-10.6979
-10.7352
-10.7749
-10.8171
-10.2301
-10.2315
-10.2353
-10.2408
-10.2475
-10.2554
-10.2643
-10.274
-10.2844
-10.2955
-10.3071
-10.3192
-10.3319
-10.345
-10.3587
-10.373
-10.3879
-10.4035
-10.42
-10.4373
-10.4555
-10.4749
-10.4955
-10.5174
-10.5408
-10.5658
-10.5924
-10.6208
-10.651
-10.6832
-10.7173
-10.7533
-10.7913
-10.2357
-10.237
-10.2406
-10.2458
-10.2522
-10.2598
-10.2683
-10.2776
-10.2877
-10.2984
-10.3096
-10.3214
-10.3336
-10.3464
-10.3597
-10.3735
-10.388
-10.4032
-10.419
-10.4357
-10.4533
-10.4718
-10.4914
-10.5122
-10.5342
-10.5575
-10.5822
-10.6084
-10.636
-10.6652
-10.6958
-10.7279
-10.7614
-10.2407
-10.2419
-10.2453
-10.2503
-10.2564
-10.2636
-10.2718
-10.2807
-10.2904
-10.3006
-10.3115
-10.3228
-10.3346
-10.3468
-10.3596
-10.3728
-10.3868
-10.4013
-10.4164
-10.4322
-10.4488
-10.4662
-10.4846
-10.5039
-10.5242
-10.5456
-10.5682
-10.5918
-10.6166
-10.6425
-10.6694
-10.6974
-10.7263
-10.245
-10.2462
-10.2495
-10.2543
-10.2601
-10.2671
-10.2749
-10.2836
-10.2929
-10.3028
-10.3133
-10.3242
-10.3355
-10.3473
-10.3596
-10.3725
-10.3856
-10.3994
-10.4137
-10.4286
-10.4441
-10.4604
-10.4773
-10.4951
-10.5136
-10.5329
-10.5531
-10.574
-10.5958
-10.6183
-10.6415
-10.6653
-10.6896
-10.2487
-10.2498
-10.253
-10.2576
-10.2632
-10.2698
-10.2774
-10.2856
-10.2945
-10.304
-10.3139
-10.3243
-10.3351
-10.3463
-10.3579
-10.37
-10.3823
-10.3952
-10.4085
-10.4222
-10.4365
-10.4513
-10.4667
-10.4826
-10.499
-10.5161
-10.5337
-10.5518
-10.5703
-10.5893
-10.6087
-10.6283
-10.648
-10.2516
-10.2527
-10.2559
-10.2604
-10.2659
-10.2724
-10.2797
-10.2878
-10.2964
-10.3055
-10.3152
-10.3251
-10.3355
-10.3461
-10.3571
-10.3685
-10.3801
-10.3921
-10.4044
-10.417
-10.43
-10.4434
-10.4571
-10.4711
-10.4855
-10.5003
-10.5153
-10.5305
-10.5459
-10.5615
-10.577
-10.5924
-10.6077
-10.2538
-10.2549
-10.2579
-10.2622
-10.2675
-10.2737
-10.2807
-10.2884
-10.2965
-10.3051
-10.314
-10.3236
-10.3333
-10.3433
-10.3535
-10.364
-10.3746
-10.3855
-10.3966
-10.4079
-10.4194
-10.4311
-10.443
-10.455
-10.4672
-10.4794
-10.4917
-10.5039
-10.5161
-10.5281
-10.5399
-10.5513
-10.5623
-10.2552
-10.2564
-10.2595
-10.264
-10.2694
-10.2756
-10.2826
-10.2901
-10.2982
-10.3065
-10.3152
-10.3243
-10.3335
-10.3429
-10.3525
-10.3622
-10.372
-10.3819
-10.3919
-10.402
-10.4121
-10.4222
-10.4323
-10.4424
-10.4524
-10.4623
-10.472
-10.4814
-10.4905
-10.4992
-10.5074
-10.515
-10.5219
-10.2556
-10.2567
-10.2596
-10.2638
-10.269
-10.2749
-10.2815
-10.2887
-10.2963
-10.3042
-10.3124
-10.3208
-10.3293
-10.338
-10.3467
-10.3555
-10.3643
-10.3731
-10.3818
-10.3904
-10.3989
-10.4073
-10.4155
-10.4235
-10.4312
-10.4386
-10.4456
-10.4521
-10.4581
-10.4635
-10.4682
-10.4722
-10.4753
-10.2553
-10.2567
-10.2603
-10.2651
-10.2707
-10.277
-10.2838
-10.291
-10.2985
-10.3063
-10.3142
-10.3222
-10.3302
-10.3383
-10.3463
-10.3543
-10.3622
-10.37
-10.3776
-10.3849
-10.3921
-10.3989
-10.4054
-10.4116
-10.4172
-10.4224
-10.427
-10.431
-10.4342
-10.4367
-10.4382
-10.4388
-10.4383
-10.2533
-10.2543
-10.2574
-10.2619
-10.2671
-10.2731
-10.2797
-10.2866
-10.2938
-10.3012
-10.3087
-10.3162
-10.3237
-10.3311
-10.3384
-10.3455
-10.3524
-10.359
-10.3653
-10.3713
-10.3769
-10.382
-10.3867
-10.3908
-10.3943
-10.3971
-10.3992
-10.4005
-10.4009
-10.4004
-10.3989
-10.3964
-10.3928
-10.2512
-10.2536
-10.2585
-10.2643
-10.2704
-10.277
-10.2838
-10.2908
-10.2979
-10.3051
-10.3122
-10.3192
-10.3262
-10.3329
-10.3395
-10.3458
-10.3519
-10.3576
-10.3629
-10.3677
-10.3721
-10.3759
-10.3791
-10.3816
-10.3834
-10.3844
-10.3846
-10.3837
-10.3819
-10.379
-10.3749
-10.3696
-10.363
-10.2444
-10.2452
-10.2494
-10.2551
-10.2613
-10.2681
-10.2752
-10.2824
-10.2896
-10.2967
-10.3037
-10.3106
-10.3172
-10.3235
-10.3295
-10.3351
-10.3403
-10.345
-10.3491
-10.3527
-10.3556
-10.3578
-10.3593
-10.3599
-10.3597
-10.3586
-10.3565
-10.3533
-10.3491
-10.3438
-10.3372
-10.3295
-10.3205
-10.2422
-10.2479
-10.2554
-10.2623
-10.269
-10.2759
-10.2828
-10.2896
-10.2964
-10.303
-10.3094
-10.3157
-10.3217
-10.3274
-10.3328
-10.3378
-10.3423
-10.3463
-10.3498
-10.3526
-10.3547
-10.356
-10.3566
-10.3562
-10.3549
-10.3525
-10.3491
-10.3445
-10.3387
-10.3316
-10.3232
-10.3134
-10.302
-10.2201
-10.2238
-10.2342
-10.2436
-10.2524
-10.2613
-10.2698
-10.2777
-10.2853
-10.2925
-10.2993
-10.3057
-10.3116
-10.317
-10.3219
-10.3262
-10.3299
-10.3329
-10.3352
-10.3368
-10.3375
-10.3373
-10.3362
-10.3342
-10.331
-10.3268
-10.3215
-10.315
-10.3073
-10.2983
-10.2881
-10.2766
-10.2638
-10.2323
-10.242
-10.2516
-10.2584
-10.2658
-10.2732
-10.2801
-10.2869
-10.2935
-10.2999
-10.3061
-10.312
-10.3176
-10.3227
-10.3275
-10.3317
-10.3353
-10.3384
-10.3407
-10.3422
-10.3429
-10.3428
-10.3416
-10.3394
-10.3361
-10.3315
-10.3258
-10.3187
-10.3103
-10.3005
-10.2892
-10.2763
-10.2619
-10.1304
-10.1971
-10.2213
-10.2323
-10.2461
-10.2581
-10.2676
-10.2761
-10.2838
-10.2908
-10.2972
-10.3029
-10.3081
-10.3126
-10.3165
-10.3197
-10.3222
-10.3238
-10.3246
-10.3246
-10.3235
-10.3215
-10.3184
-10.3141
-10.3088
-10.3022
-10.2944
-10.2854
-10.275
-10.2633
-10.2503
-10.2359
-10.2201
-9.57595
-10.2602
-10.4811
-9.90385
-8.6197
-7.36209
-7.09345
-8.18523
-10.3581
-13.1544
-16.3654
-19.8353
-23.3419
-26.6551
-29.5421
-31.7658
-33.1748
-33.6549
-33.114
-31.5155
-28.9923
-25.8427
-22.4232
-19.0221
-15.8054
-12.8644
-10.2594
-8.02396
-6.15779
-4.63266
-3.40587
-2.43137
-1.66571
-1.07089
-0.615306
-0.273778
-0.0269537
0.139356
0.233919
0.261996
0.223257
0.115114
-0.0828503
-0.435725
-0.960021
-1.58507
-2.26819
-3.07735
-4.20415
-5.87265
-8.27208
-11.5464
-15.7912
-21.0964
-27.5412
-35.023
-42.9877
-50.399
-56.2926
-60.1167
-61.3897
-59.6357
-54.4646
-46.1972
-36.0438
-25.6354
-16.3108
-8.85145
-3.5688
-0.388333
1.09189
1.34742
0.61187
-1.06907
-4.33458
-9.86392
-16.7048
-22.9199
-26.3208
-25.7972
-21.6285
-15.7755
-10.3382
-6.38303
-3.8699
-2.33943
-1.40954
-0.840281
-0.488332
-0.276164
-0.156672
-0.0923857
-0.0559005
-0.030499
-0.0135408
0.00130362
-0.000410806
0.0169974
-0.0188064
0.0526711
-9.91392
-10.3289
-10.2214
-9.55932
-8.70342
-8.01235
-7.91487
-8.72369
-10.5
-13.0832
-16.2099
-19.5467
-22.8259
-25.8608
-28.509
-30.6037
-31.9137
-32.2439
-31.5332
-29.8506
-27.3978
-24.4674
-21.3502
-18.253
-15.2989
-12.5702
-10.1288
-8.0114
-6.22377
-4.74586
-3.54342
-2.57756
-1.81032
-1.20767
-0.740721
-0.386046
-0.125431
0.0546179
0.162738
0.203851
0.177564
0.0808348
-0.0998367
-0.421112
-0.91723
-1.53312
-2.21986
-3.02943
-4.14807
-5.82054
-8.25664
-11.6085
-15.9727
-21.4421
-28.0929
-35.7958
-43.9305
-51.4134
-57.2964
-61.0838
-62.3431
-60.5706
-55.317
-46.877
-36.5064
-25.9127
-16.4703
-8.94284
-3.62419
-0.452183
0.963358
1.12525
0.30633
-1.41671
-4.5055
-9.47804
-15.5244
-21.003
-24.026
-23.622
-20.0022
-14.858
-10.0038
-6.37567
-3.98525
-2.47694
-1.53326
-0.941824
-0.569372
-0.339723
-0.204775
-0.127127
-0.0798462
-0.0464904
-0.0239229
-0.00532499
-0.00391521
0.0145214
-0.0180484
0.0493839
-10.0261
-10.1721
-10.1292
-9.80166
-9.28917
-8.8191
-8.78883
-9.53182
-11.1437
-13.4729
-16.274
-19.2979
-22.3167
-25.1307
-27.5568
-29.3415
-30.3305
-30.413
-29.5963
-27.9783
-25.7453
-23.1283
-20.3383
-17.5311
-14.8181
-12.285
-9.99703
-7.99317
-6.28317
-4.85354
-3.67737
-2.72225
-1.95539
-1.34656
-0.869549
-0.502728
-0.229041
-0.0357538
0.0855681
0.139629
0.125945
0.0410507
-0.124197
-0.416661
-0.883101
-1.48479
-2.17203
-2.98338
-4.09499
-5.76837
-8.23538
-11.6584
-16.135
-21.7571
-28.593
-36.4798
-44.7347
-52.2395
-58.0734
-61.8006
-63.0336
-61.2393
-55.9193
-47.3426
-36.8035
-26.078
-16.5721
-9.02744
-3.71157
-0.566876
0.780999
0.853082
-0.0382025
-1.78793
-4.71807
-9.20366
-14.5426
-19.3425
-22.0026
-21.6892
-18.5612
-14.0542
-9.7199
-6.38212
-4.10191
-2.61435
-1.65811
-1.04547
-0.652574
-0.404963
-0.254017
-0.162582
-0.104322
-0.0629095
-0.0346419
-0.012225
-0.00763233
0.0118206
-0.0175484
0.0456922
-10.1118
-10.205
-10.1868
-9.93956
-9.58126
-9.34335
-9.50188
-10.263
-11.6822
-13.6734
-16.0925
-18.7548
-21.4404
-23.925
-25.9764
-27.4686
-28.2699
-28.3053
-27.5762
-26.1675
-24.2234
-21.9148
-19.4099
-16.8524
-14.3549
-12.0039
-9.8626
-7.96897
-6.33574
-4.95527
-3.80716
-2.86488
-2.1004
-1.4871
-1.00143
-0.623544
-0.337591
-0.131645
0.0024407
0.0692486
0.06816
-0.00473348
-0.155899
-0.42104
-0.854863
-1.43813
-2.12432
-2.93889
-4.04381
-5.71333
-8.20323
-11.6881
-16.2656
-22.0222
-29.0133
-37.0374
-45.359
-52.8379
-58.5917
-62.2375
-63.4287
-61.6081
-56.2408
-47.572
-36.9257
-26.133
-16.6228
-9.11196
-3.83729
-0.73904
0.540265
0.529024
-0.42266
-2.18405
-4.96968
-9.03096
-13.7487
-17.9398
-20.2617
-20.013
-17.3139
-13.3648
-9.48242
-6.39802
-4.217
-2.75007
-1.78315
-1.15044
-0.737212
-0.471248
-0.3039
-0.19835
-0.128888
-0.0792461
-0.0451605
-0.0188847
-0.0111245
0.00935005
-0.0168568
0.0425506
-10.2021
-10.2462
-10.2246
-10.0767
-9.89145
-9.82538
-10.0716
-10.7927
-12.0466
-13.7763
-15.8608
-18.1418
-20.4366
-22.5603
-24.3497
-25.6689
-26.3825
-26.4261
-25.8034
-24.5792
-22.8639
-20.7997
-18.5358
-16.2036
-13.9078
-11.7291
-9.72716
-7.93957
-6.3818
-5.05115
-3.93276
-3.00532
-2.24518
-1.62918
-1.1363
-0.748524
-0.451209
-0.233261
-0.0869201
-0.00769874
0.00372613
-0.056703
-0.194591
-0.43489
-0.834124
-1.39454
-2.07687
-2.89504
-3.9936
-5.65346
-8.1556
-11.6893
-16.3519
-22.22
-29.3296
-37.4404
-45.7734
-53.1815
-58.8262
-62.3675
-63.4989
-61.6457
-56.2517
-47.5438
-36.8658
-26.0841
-16.6348
-9.20726
-4.0096
-0.976967
0.233838
0.149552
-0.848614
-2.60337
-5.24928
-8.93954
-13.1199
-16.779
-18.7962
-18.5897
-16.2535
-12.7803
-9.28451
-6.42086
-4.33015
-2.88399
-1.90799
-1.2562
-0.822794
-0.538188
-0.354172
-0.23436
-0.153572
-0.0956451
-0.0557057
-0.0255522
-0.0146388
0.0068225
-0.0163294
0.0391827
-10.2794
-10.3099
-10.3124
-10.2479
-10.1752
-10.217
-10.523
-11.2172
-12.3447
-13.8614
-15.6682
-17.6345
-19.6111
-21.4521
-23.009
-24.143
-24.7481
-24.7753
-24.2222
-23.1356
-21.6068
-19.7564
-17.7114
-15.5869
-13.4783
-11.4607
-9.59072
-7.90513
-6.4215
-5.14114
-4.05396
-3.14326
-2.38941
-1.77248
-1.2739
-0.877474
-0.569773
-0.340549
-0.182505
-0.0912794
-0.0675148
-0.115246
-0.240314
-0.458914
-0.823205
-1.35618
-2.03038
-2.85157
-3.94493
-5.58964
-8.09121
-11.657
-16.3845
-22.336
-29.5224
-37.665
-45.9521
-53.2461
-58.7541
-62.1685
-63.222
-61.3295
-55.9309
-47.2451
-36.6256
-25.9474
-16.6307
-9.33351
-4.24127
-1.28817
-0.144132
-0.287992
-1.31601
-3.04578
-5.55054
-8.91083
-12.6279
-15.8307
-17.5816
-17.4
-15.3628
-12.2874
-9.11866
-6.44779
-4.44036
-3.01547
-2.032
-1.36212
-0.908763
-0.605351
-0.404473
-0.270301
-0.178097
-0.111812
-0.0659838
-0.0319351
-0.0179081
0.00454144
-0.0156614
0.036316
-10.359
-10.3906
-10.413
-10.4079
-10.4226
-10.5509
-10.902
-11.5656
-12.5773
-13.9065
-15.4756
-17.177
-18.8847
-20.4667
-21.7947
-22.7584
-23.2703
-23.2804
-22.7814
-21.8112
-20.4457
-18.785
-16.9369
-15.002
-13.0663
-11.1992
-9.4539
-7.86621
-6.4552
-5.22539
-4.17072
-3.27854
-2.53286
-1.91676
-1.41405
-1.01027
-0.693237
-0.453552
-0.284429
-0.181729
-0.145838
-0.180808
-0.29314
-0.492994
-0.823536
-1.32492
-1.98558
-2.80794
-3.89752
-5.52221
-8.00861
-11.5856
-16.3529
-22.3548
-29.5712
-37.6868
-45.8707
-53.0098
-58.356
-61.6236
-62.5824
-60.6438
-55.2643
-46.6697
-36.2144
-25.7477
-16.6428
-9.51893
-4.55101
-1.68245
-0.598764
-0.786183
-1.82475
-3.5109
-5.86967
-8.92969
-12.2437
-15.0571
-16.58
-16.4107
-14.6154
-11.8686
-8.97733
-6.47696
-4.54745
-3.14433
-2.15476
-1.46768
-0.994657
-0.672386
-0.45453
-0.305957
-0.202357
-0.127727
-0.0760211
-0.038097
-0.0210271
0.00235817
-0.01507
0.0334074
-10.4361
-10.4756
-10.5201
-10.565
-10.6462
-10.8333
-11.2068
-11.8336
-12.7411
-13.9069
-15.2682
-16.7357
-18.2026
-19.5568
-20.6917
-21.5106
-21.9356
-21.923
-21.4667
-20.5967
-19.3742
-17.8817
-16.2105
-14.4481
-12.6717
-10.9448
-9.31709
-7.82326
-6.48321
-5.304
-4.28296
-3.41095
-2.67526
-2.06175
-1.55648
-1.14669
-0.821438
-0.572176
-0.392649
-0.279059
-0.231412
-0.253789
-0.35324
-0.536791
-0.836397
-1.30278
-1.94371
-2.76374
-3.85026
-5.4509
-7.90624
-11.4694
-16.2459
-22.26
-29.4559
-37.4843
-45.5092
-52.4556
-57.6173
-60.7218
-61.5704
-59.5801
-54.2455
-45.8205
-35.6511
-25.5201
-16.7129
-9.79999
-4.96255
-2.17183
-1.13464
-1.34604
-2.374
-3.99787
-6.20434
-8.98495
-11.9419
-14.4198
-15.7468
-15.5813
-13.981
-11.5074
-8.85466
-6.5074
-4.65141
-3.27034
-2.27579
-1.57234
-1.07999
-0.738884
-0.504021
-0.341056
-0.226101
-0.143163
-0.0856031
-0.0438382
-0.0238142
0.000484152
-0.0143535
0.0309457
-10.5115
-10.5626
-10.628
-10.7102
-10.8378
-11.0633
-11.4463
-12.0354
-12.85
-13.8722
-15.0513
-16.3134
-17.5697
-18.7254
-19.6882
-20.3749
-20.7208
-20.6881
-20.2687
-19.4851
-18.387
-17.0429
-15.5299
-13.9242
-12.2941
-10.6977
-9.1809
-7.77686
-6.50595
-5.37718
-4.39067
-3.54033
-2.81635
-2.20717
-1.70092
-1.2865
-0.954205
-0.696326
-0.507154
-0.383331
-0.324448
-0.334542
-0.420929
-0.589824
-0.862615
-1.29204
-1.90691
-2.71901
-3.80129
-5.37486
-7.78324
-11.3043
-16.0536
-22.0367
-29.1588
-37.0401
-44.8531
-51.5711
-56.528
-59.4573
-60.1805
-58.1343
-52.875
-44.7089
-34.9637
-25.3076
-16.8897
-10.2191
-5.50368
-2.76959
-1.75601
-1.9677
-2.9623
-4.50507
-6.5531
-9.06973
-11.7038
-13.8858
-15.041
-14.8733
-13.4328
-11.1908
-8.74722
-6.53915
-4.7526
-3.39343
-2.39473
-1.67563
-1.16428
-0.804436
-0.552609
-0.375332
-0.24913
-0.157981
-0.094646
-0.0491191
-0.0262701
-0.00113674
-0.0136324
0.0285805
-10.5844
-10.6474
-10.7308
-10.841
-11.0011
-11.2501
-11.6317
-12.1804
-12.9098
-13.8049
-14.8244
-15.9073
-16.9792
-17.9601
-18.7717
-19.3435
-19.62
-19.5673
-19.1771
-18.4669
-17.4771
-16.2641
-14.8929
-13.4293
-11.9337
-10.4584
-9.04587
-7.72753
-6.5238
-5.44513
-4.49387
-3.66654
-2.95591
-2.35271
-1.84706
-1.42942
-1.09129
-0.825814
-0.627822
-0.494454
-0.424981
-0.423266
-0.496577
-0.651645
-0.902222
-1.29508
-1.87769
-2.67419
-3.74853
-5.29268
-7.6394
-11.0876
-15.7683
-21.6722
-28.6655
-36.3419
-43.8931
-50.3496
-55.0831
-57.8286
-58.41
-56.3058
-51.1591
-43.3548
-34.1877
-25.1569
-17.2235
-10.8195
-6.20308
-3.48896
-2.46593
-2.64968
-3.58713
-5.03063
-6.9146
-9.18023
-11.5182
-13.4333
-14.4335
-14.2593
-12.9531
-10.9118
-8.65412
-6.57298
-4.85151
-3.51358
-2.51124
-1.77706
-1.24703
-0.86858
-0.599906
-0.408464
-0.271176
-0.171949
-0.102953
-0.053769
-0.0282477
-0.00234429
-0.0127701
0.0266355
-10.652
-10.7263
-10.8247
-10.955
-11.1358
-11.3961
-11.7678
-12.2753
-12.927
-13.7099
-14.5899
-15.5164
-16.4272
-17.2555
-17.9346
-18.4047
-18.6185
-18.5467
-18.1809
-17.5342
-16.639
-15.5419
-14.2976
-12.9626
-11.5901
-10.2272
-8.91255
-7.67585
-6.53723
-5.5081
-4.59261
-3.78947
-3.09368
-2.49807
-1.99457
-1.57513
-1.23241
-0.960407
-0.754501
-0.61233
-0.532984
-0.520048
-0.580526
-0.722078
-0.954493
-1.31385
-1.8589
-2.63069
-3.69061
-5.20253
-7.47466
-10.8185
-15.3848
-21.1565
-27.9651
-35.3819
-42.6259
-48.79
-53.2823
-55.8338
-56.2576
-54.0963
-49.111
-41.7866
-33.3616
-25.1095
-17.7542
-11.6357
-7.08447
-4.34046
-3.26536
-3.38876
-4.24496
-5.57238
-7.28732
-9.31429
-11.3793
-13.0518
-13.9099
-13.726
-12.5341
-10.6683
-8.57607
-6.61002
-4.94877
-3.63088
-2.62506
-1.87618
-1.32771
-0.930827
-0.64549
-0.440107
-0.29196
-0.184852
-0.11037
-0.0576829
-0.0296898
-0.00313254
-0.0118202
0.0249005
-10.7151
-10.7987
-10.9083
-11.0518
-11.244
-11.5067
-11.8624
-12.3282
-12.9085
-13.5916
-14.3491
-15.1389
-15.9095
-16.6044
-17.1677
-17.5487
-17.7074
-17.6179
-17.2722
-16.68
-15.8673
-14.8725
-13.7416
-12.523
-11.2633
-10.0043
-8.78149
-7.6224
-6.54668
-5.56635
-4.68696
-3.90901
-3.22943
-2.64293
-2.1431
-1.72327
-1.37723
-1.0998
-0.886935
-0.736728
-0.648277
-0.624844
-0.672996
-0.801196
-1.01823
-1.34925
-1.85399
-2.59139
-3.62699
-5.10174
-7.28877
-10.4986
-14.9021
-20.4845
-27.0514
-34.1572
-41.053
-46.8964
-51.1288
-53.4711
-53.7223
-51.5127
-46.7539
-40.0391
-32.5183
-25.1878
-18.4963
-12.6801
-8.15812
-5.32793
-4.15169
-4.17971
-4.93105
-6.12756
-7.66963
-9.4702
-11.2837
-12.7358
-13.464
-13.2678
-12.1732
-10.4601
-8.51414
-6.65141
-5.04505
-3.74546
-2.7359
-1.97249
-1.40578
-0.990647
-0.688899
-0.469871
-0.311162
-0.196427
-0.116683
-0.0606866
-0.0304589
-0.00336806
-0.0106806
0.0235892
-10.7702
-10.8611
-10.9786
-11.1298
-11.3264
-11.5844
-11.92
-12.3444
-12.8591
-13.4535
-14.1035
-14.7742
-15.4226
-16.0015
-16.4639
-16.7671
-16.8771
-16.7714
-16.4425
-15.8974
-15.157
-14.2527
-13.2232
-12.1098
-10.9531
-9.79021
-8.65321
-7.56773
-6.55262
-5.62019
-4.77702
-4.02508
-3.36295
-2.78698
-2.29227
-1.87344
-1.52535
-1.24361
-1.0248
-0.867364
-0.770624
-0.737532
-0.774036
-0.889148
-1.09225
-1.40074
-1.86617
-2.56053
-3.55905
-4.9878
-7.08099
-10.1315
-14.3253
-19.658
-25.9242
-32.6701
-39.1806
-44.6766
-48.6255
-50.7391
-50.8065
-48.5721
-44.1223
-38.1506
-31.6766
-25.381
-19.422
-13.929
-9.41125
-6.44376
-5.11709
-5.0148
-5.63927
-6.69278
-8.06019
-9.64636
-11.2287
-12.4811
-13.0906
-12.8803
-11.8679
-10.287
-8.46928
-6.69832
-5.14108
-3.8575
-2.84351
-2.06549
-1.48064
-1.04748
-0.729633
-0.497334
-0.328434
-0.206397
-0.121684
-0.0626261
-0.0304538
-0.00300125
-0.00936247
0.0225824
-10.8189
-10.9147
-11.0365
-11.1906
-11.3859
-11.6342
-11.9467
-12.3303
-12.7848
-13.2999
-13.8556
-14.4224
-14.9645
-15.4426
-15.8172
-16.0526
-16.1198
-15.9996
-15.6848
-15.1806
-14.5034
-13.6793
-12.7404
-11.722
-10.6592
-9.58504
-8.52822
-7.51239
-6.5555
-5.6699
-4.86289
-4.1376
-3.49401
-2.92989
-2.44168
-2.0252
-1.67632
-1.39142
-1.16768
-1.00388
-0.899659
-0.857769
-0.883524
-0.98606
-1.17576
-1.46648
-1.89738
-2.54319
-3.49093
-4.86024
-6.85036
-9.72201
-13.6647
-18.6884
-24.5928
-30.9292
-37.0182
-42.1394
-45.7748
-47.6405
-47.5245
-45.3094
-41.2665
-36.1611
-30.8298
-25.6292
-20.4489
-15.3143
-10.802
-7.66488
-6.14687
-5.88332
-6.3622
-7.26396
-8.45758
-9.84119
-11.2115
-12.2829
-12.7844
-12.5588
-11.6156
-10.1486
-8.44246
-6.75195
-5.23766
-3.96722
-2.94765
-2.15466
-1.55168
-1.10071
-0.767145
-0.522027
-0.343389
-0.21445
-0.125125
-0.063307
-0.0295276
-0.00190423
-0.00778032
0.0220314
-10.8579
-10.9565
-11.0798
-11.233
-11.4229
-11.6579
-11.9456
-12.2898
-12.6889
-13.1334
-13.606
-14.0822
-14.5321
-14.9229
-15.2216
-15.3982
-15.4282
-15.2953
-14.9926
-14.5239
-13.9024
-13.1492
-12.2913
-11.3586
-10.3815
-9.38904
-8.40696
-7.4569
-6.5558
-5.71581
-4.94471
-4.24653
-3.62241
-3.07132
-2.5909
-2.17808
-1.82965
-1.54272
-1.31507
-1.14583
-1.03491
-0.985041
-1.0011
-1.09182
-1.26836
-1.54404
-1.94728
-2.54429
-3.42952
-4.72259
-6.59714
-9.27558
-12.9355
-17.5985
-23.08
-28.9548
-34.5836
-39.2981
-42.5911
-44.195
-43.9168
-41.7932
-38.2667
-34.1103
-29.9433
-25.8338
-21.4554
-16.7307
-12.2616
-8.95208
-7.21867
-6.77145
-7.09141
-7.83664
-8.85994
-10.0533
-11.2296
-12.1375
-12.5409
-12.2994
-11.4144
-10.0448
-8.43485
-6.81365
-5.33565
-4.07484
-3.04807
-2.23947
-1.61825
-1.14969
-0.800843
-0.543442
-0.355605
-0.220247
-0.126746
-0.0625324
-0.0275437
3.37859e-06
-0.00591966
0.0218647
-10.8894
-10.9886
-11.1108
-11.2599
-11.441
-11.6601
-11.922
-12.2285
-12.5768
-12.9582
-13.3578
-13.7549
-14.1248
-14.4399
-14.6728
-14.7985
-14.7963
-14.6522
-14.3601
-13.9225
-13.3499
-12.6596
-11.8741
-11.0187
-10.1197
-9.20238
-8.28984
-7.40174
-6.55393
-5.7582
-5.0226
-4.35183
-3.74792
-3.21092
-2.73951
-2.33157
-1.98478
-1.69693
-1.4664
-1.29266
-1.17585
-1.11877
-1.12614
-1.20597
-1.36974
-1.63136
-2.01314
-2.56673
-3.38334
-4.58368
-6.32589
-8.79846
-12.155
-16.4201
-21.427
-26.7882
-31.9152
-36.1898
-39.1243
-40.4649
-40.0754
-38.1445
-35.2302
-32.0419
-28.9823
-25.9029
-22.3251
-18.0644
-13.7035
-10.2534
-8.30316
-7.66242
-7.81743
-8.40603
-9.26525
-10.2812
-11.2808
-12.0414
-12.3564
-12.0991
-11.2629
-9.97604
-8.4478
-6.88483
-5.43596
-4.18065
-3.14449
-2.31932
-1.67963
-1.1937
-0.830072
-0.561017
-0.36462
-0.223418
-0.126256
-0.0600782
-0.0243355
0.00285946
-0.00369425
0.0222159
-10.9108
-11.0088
-11.1276
-11.2703
-11.4404
-11.642
-11.8781
-12.1487
-12.4505
-12.7755
-13.1108
-13.4392
-13.7397
-13.9895
-14.166
-14.2479
-14.2181
-14.0646
-13.7819
-13.3717
-12.8423
-12.2078
-11.487
-10.7013
-9.87333
-9.02515
-8.17721
-7.34736
-6.55031
-5.79739
-5.09671
-4.45345
-3.87036
-3.34836
-2.88703
-2.48513
-2.1411
-1.85342
-1.621
-1.44367
-1.3218
-1.25824
-1.25778
-1.32775
-1.47934
-1.72711
-2.09105
-2.60966
-3.35979
-4.45691
-6.049
-8.30106
-11.3418
-15.1895
-19.692
-24.5012
-29.0912
-32.9029
-35.4765
-36.5778
-36.158
-34.5246
-32.2717
-29.9986
-27.9324
-25.7877
-22.9844
-19.227
-15.0414
-11.5096
-9.36619
-8.53721
-8.53006
-8.96716
-9.67138
-10.5237
-11.363
-11.9915
-12.2275
-11.9554
-11.1601
-9.943
-8.48285
-6.96702
-5.53957
-4.28492
-3.23662
-2.39358
-1.73504
-1.23196
-0.854126
-0.574143
-0.369929
-0.223559
-0.123341
-0.0557065
-0.0197358
0.00676198
-0.0010832
0.023019
-10.9244
-11.0194
-11.1331
-11.2674
-11.4248
-11.6081
-11.8184
-12.0552
-12.3145
-12.5892
-12.8681
-13.1364
-13.3769
-13.5704
-13.6982
-13.7426
-13.6891
-13.5276
-13.2534
-12.8673
-12.3761
-11.7913
-11.1284
-10.4056
-9.64215
-8.85739
-8.06936
-7.29415
-6.54533
-5.83367
-5.16718
-4.55136
-3.98953
-3.48329
-3.03299
-2.63817
-2.29798
-2.01149
-1.77814
-1.5981
-1.47199
-1.40271
-1.39511
-1.45614
-1.59631
-1.83033
-2.17759
-2.66858
-3.3617
-4.35627
-5.78724
-7.80373
-10.5182
-13.9418
-17.9344
-22.1831
-26.2265
-29.5728
-31.7975
-32.7081
-32.349
-31.0932
-29.4982
-28.0305
-26.8044
-25.4774
-23.3987
-20.1588
-16.2049
-12.6594
-10.3712
-9.37583
-9.21884
-9.51509
-10.0762
-10.7793
-11.4742
-11.9851
-12.1514
-11.8662
-11.1057
-9.94673
-8.54181
-7.06192
-5.64752
-4.38792
-3.32414
-2.46152
-1.7836
-1.26361
-0.872211
-0.582145
-0.370982
-0.220233
-0.117664
-0.0491578
-0.0135493
0.0118777
0.0020225
0.0244393
-10.9284
-11.0192
-11.1262
-11.2508
-11.3945
-11.5589
-11.7444
-11.9495
-12.1703
-12.4001
-12.6293
-12.8455
-13.034
-13.1792
-13.2653
-13.2777
-13.2043
-13.0364
-12.77
-12.4055
-11.9482
-11.4076
-10.7966
-10.1304
-9.42572
-8.6991
-7.96654
-7.24248
-6.53935
-5.8673
-5.23415
-4.64555
-4.10523
-3.61535
-3.17692
-2.79011
-2.45472
-2.17036
-1.93698
-1.75503
-1.62545
-1.55118
-1.53704
-1.58983
-1.71936
-1.93987
-2.27046
-2.73771
-3.38543
-4.28992
-5.56421
-7.33962
-9.71939
-12.7163
-16.2061
-19.91
-23.4281
-26.322
-28.2284
-29.0241
-28.8288
-28.0059
-27.0042
-26.1781
-25.6133
-24.9703
-23.5412
-20.8079
-17.1342
-13.6471
-11.2809
-10.1586
-9.87376
-10.0452
-10.4776
-11.0466
-11.6126
-12.0198
-12.1257
-11.8302
-11.0999
-9.98883
-8.62682
-7.17142
-5.76095
-4.48994
-3.40664
-2.52236
-1.82437
-1.28768
-0.883476
-0.584297
-0.367183
-0.212966
-0.108857
-0.0401557
-0.005587
0.0182993
0.00561922
0.0263649
-10.9249
-11.0102
-11.1094
-11.2233
-11.3528
-11.4985
-11.6601
-11.8356
-12.0214
-12.2112
-12.3968
-12.5675
-12.7113
-12.8149
-12.8654
-12.8505
-12.7602
-12.5873
-12.3281
-11.9829
-11.5558
-11.0546
-10.4901
-9.87502
-9.22358
-8.55022
-7.86895
-7.19266
-6.5327
-5.89855
-5.29775