/*--------------------------------*- C++ -*----------------------------------*\
  =========                 |
  \\      /  F ield         | OpenFOAM: The Open Source CFD Toolbox
   \\    /   O peration     | Website:  https://openfoam.org
    \\  /    A nd           | Version:  10
     \\/     M anipulation  |
\*---------------------------------------------------------------------------*/
FoamFile
{
    format      ascii;
    class       surfaceScalarField;
    location    "0.175";
    object      phi;
}
// * * * * * * * * * * * * * * * * * * * * * * * * * * * * * * * * * * * * * //

dimensions      [0 3 -1 0 0 0 0];

internalField   nonuniform List<scalar> 
13452
(
5.94548e-05
8.13684e-07
5.84782e-05
9.76618e-07
5.74632e-05
1.01499e-06
5.64227e-05
1.04048e-06
5.53854e-05
1.03733e-06
5.43631e-05
1.02229e-06
5.33598e-05
1.00323e-06
5.23782e-05
9.81643e-07
5.14197e-05
9.58466e-07
5.04854e-05
9.34342e-07
4.95758e-05
9.09544e-07
4.86916e-05
8.84197e-07
4.78333e-05
8.58367e-07
4.70012e-05
8.32089e-07
4.61958e-05
8.054e-07
4.54174e-05
7.7836e-07
4.46664e-05
7.5108e-07
4.39426e-05
7.23732e-07
4.32461e-05
6.96562e-07
4.25762e-05
6.69898e-07
4.1932e-05
6.44157e-07
4.13121e-05
6.19858e-07
4.07145e-05
5.9763e-07
4.01363e-05
5.78244e-07
3.95736e-05
5.6266e-07
3.90215e-05
5.52107e-07
3.84733e-05
5.48209e-07
3.792e-05
5.5332e-07
3.73496e-05
5.70418e-07
3.67433e-05
6.06236e-07
3.60784e-05
6.6491e-07
3.53e-05
7.78406e-07
9.62031e-07
3.4338e-05
6.24894e-05
3.14572e-07
6.29649e-05
5.01212e-07
6.34125e-05
5.67358e-07
6.38231e-05
6.29881e-07
6.41894e-05
6.71026e-07
6.45113e-05
7.00342e-07
6.47906e-05
7.23947e-07
6.50298e-05
7.42454e-07
6.52318e-05
7.56486e-07
6.53994e-05
7.66733e-07
6.55353e-05
7.736e-07
6.56422e-05
7.77361e-07
6.57223e-05
7.78243e-07
6.5778e-05
7.7644e-07
6.58112e-05
7.72134e-07
6.58241e-05
7.65528e-07
6.58183e-05
7.56867e-07
6.57955e-05
7.46461e-07
6.57574e-05
7.34705e-07
6.57052e-05
7.22095e-07
6.56401e-05
7.09247e-07
6.55631e-05
6.96915e-07
6.54747e-05
6.86019e-07
6.53752e-05
6.77682e-07
6.52646e-05
6.73305e-07
6.5142e-05
6.74651e-07
6.50062e-05
6.84083e-07
6.48548e-05
7.04669e-07
6.46841e-05
7.41138e-07
6.44908e-05
7.99487e-07
6.42648e-05
8.90993e-07
6.40141e-05
1.02903e-06
1.22978e-06
6.37464e-05
6.38353e-05
2.40701e-07
6.39131e-05
4.23405e-07
6.39855e-05
4.94934e-07
6.40616e-05
5.53737e-07
6.41405e-05
5.92128e-07
6.42241e-05
6.16782e-07
6.43132e-05
6.34902e-07
6.44075e-05
6.48075e-07
6.45068e-05
6.57202e-07
6.46104e-05
6.63175e-07
6.47174e-05
6.66534e-07
6.48272e-05
6.67625e-07
6.49387e-05
6.66714e-07
6.50511e-05
6.6402e-07
6.51635e-05
6.59736e-07
6.5275e-05
6.5406e-07
6.53846e-05
6.47223e-07
6.54916e-05
6.39504e-07
6.5595e-05
6.31256e-07
6.56942e-05
6.22921e-07
6.57884e-05
6.15046e-07
6.5877e-05
6.08311e-07
6.59595e-05
6.03552e-07
6.60354e-05
6.018e-07
6.61043e-05
6.04341e-07
6.61662e-05
6.12799e-07
6.6221e-05
6.29282e-07
6.62691e-05
6.56506e-07
6.63121e-05
6.98218e-07
6.63524e-05
7.59119e-07
6.63977e-05
8.45771e-07
6.64612e-05
9.65518e-07
1.11679e-06
6.65742e-05
6.56413e-05
1.82458e-07
6.56957e-05
3.69048e-07
6.57357e-05
4.54883e-07
6.577e-05
5.19501e-07
6.57992e-05
5.62854e-07
6.58255e-05
5.90556e-07
6.58501e-05
6.10241e-07
6.5874e-05
6.24207e-07
6.58977e-05
6.33536e-07
6.59216e-05
6.3926e-07
6.5946e-05
6.42065e-07
6.59713e-05
6.42405e-07
6.59973e-05
6.40639e-07
6.60243e-05
6.37074e-07
6.6052e-05
6.31989e-07
6.60804e-05
6.25662e-07
6.61092e-05
6.18399e-07
6.61382e-05
6.10551e-07
6.61669e-05
6.02533e-07
6.6195e-05
5.94843e-07
6.6222e-05
5.88076e-07
6.62473e-05
5.82949e-07
6.62706e-05
5.80323e-07
6.62911e-05
5.81236e-07
6.63085e-05
5.86955e-07
6.63223e-05
5.99033e-07
6.63322e-05
6.19397e-07
6.63382e-05
6.50444e-07
6.63414e-05
6.95069e-07
6.63435e-05
7.56961e-07
6.63503e-05
8.38954e-07
6.63692e-05
9.46713e-07
1.0681e-06
6.64178e-05
6.74912e-05
1.48023e-07
6.75345e-05
3.25804e-07
6.75725e-05
4.16827e-07
6.76092e-05
4.8278e-07
6.76431e-05
5.28997e-07
6.7674e-05
5.59653e-07
6.77027e-05
5.81493e-07
6.77298e-05
5.97127e-07
6.77556e-05
6.07756e-07
6.77804e-05
6.14481e-07
6.78044e-05
6.18082e-07
6.78277e-05
6.19085e-07
6.78504e-05
6.1791e-07
6.78726e-05
6.14921e-07
6.78941e-05
6.10447e-07
6.7915e-05
6.04819e-07
6.7935e-05
5.9839e-07
6.7954e-05
5.91558e-07
6.79717e-05
5.84781e-07
6.7988e-05
5.78596e-07
6.80024e-05
5.73638e-07
6.80147e-05
5.70651e-07
6.80245e-05
5.7052e-07
6.80314e-05
5.74291e-07
6.80352e-05
5.83208e-07
6.80355e-05
5.98752e-07
6.80322e-05
6.22676e-07
6.80256e-05
6.57057e-07
6.80165e-05
7.04156e-07
6.80068e-05
7.66609e-07
6.80001e-05
8.45734e-07
6.80024e-05
9.44336e-07
1.05244e-06
6.80181e-05
6.94124e-05
1.19624e-07
6.94533e-05
2.84894e-07
6.94903e-05
3.79901e-07
6.95248e-05
4.48197e-07
6.95566e-05
4.97227e-07
6.95858e-05
5.30481e-07
6.96133e-05
5.53994e-07
6.96397e-05
5.70755e-07
6.96652e-05
5.82182e-07
6.96903e-05
5.89458e-07
6.97149e-05
5.93453e-07
6.97392e-05
5.9477e-07
6.97632e-05
5.93888e-07
6.97869e-05
5.91219e-07
6.98102e-05
5.87141e-07
6.9833e-05
5.82026e-07
6.98552e-05
5.76266e-07
6.98764e-05
5.70292e-07
6.98966e-05
5.64593e-07
6.99155e-05
5.59731e-07
6.99328e-05
5.56355e-07
6.99482e-05
5.5522e-07
6.99615e-05
5.57202e-07
6.99725e-05
5.63318e-07
6.99809e-05
5.74749e-07
6.99868e-05
5.92854e-07
6.99903e-05
6.19172e-07
6.9992e-05
6.55431e-07
6.99928e-05
7.03344e-07
6.99947e-05
7.6473e-07
7.00003e-05
8.40121e-07
7.00138e-05
9.30791e-07
1.02991e-06
7.00363e-05
7.13857e-05
1.00273e-07
7.14178e-05
2.52809e-07
7.14493e-05
3.48327e-07
7.14809e-05
4.16678e-07
7.15116e-05
4.66481e-07
7.1541e-05
5.01086e-07
7.15693e-05
5.25679e-07
7.15968e-05
5.43286e-07
7.16236e-05
5.55402e-07
7.16498e-05
5.63212e-07
7.16756e-05
5.67625e-07
7.17011e-05
5.69291e-07
7.17263e-05
5.68732e-07
7.17511e-05
5.66403e-07
7.17755e-05
5.62719e-07
7.17995e-05
5.58089e-07
7.18228e-05
5.52937e-07
7.18454e-05
5.47721e-07
7.1867e-05
5.42951e-07
7.18875e-05
5.39201e-07
7.19068e-05
5.37124e-07
7.19245e-05
5.37463e-07
7.19406e-05
5.41063e-07
7.19551e-05
5.48886e-07
7.19678e-05
5.62014e-07
7.1979e-05
5.81659e-07
7.19891e-05
6.09131e-07
7.19987e-05
6.45814e-07
7.2009e-05
6.9298e-07
7.20219e-05
7.51825e-07
7.20395e-05
8.22535e-07
7.20647e-05
9.0562e-07
9.96694e-07
7.20979e-05
7.34202e-05
8.53763e-08
7.34486e-05
2.2434e-07
7.3479e-05
3.17925e-07
7.35099e-05
3.85791e-07
7.35402e-05
4.36197e-07
7.35692e-05
4.72145e-07
7.35969e-05
4.97896e-07
7.36239e-05
5.16362e-07
7.36501e-05
5.29127e-07
7.36759e-05
5.37406e-07
7.37014e-05
5.42153e-07
7.37266e-05
5.44076e-07
7.37516e-05
5.43741e-07
7.37764e-05
5.41643e-07
7.38009e-05
5.38233e-07
7.3825e-05
5.33951e-07
7.38487e-05
5.29244e-07
7.38718e-05
5.2459e-07
7.38943e-05
5.20508e-07
7.39159e-05
5.17575e-07
7.39366e-05
5.16431e-07
7.39563e-05
5.17793e-07
7.39749e-05
5.2246e-07
7.39924e-05
5.31317e-07
7.40091e-05
5.45335e-07
7.40252e-05
5.65558e-07
7.40413e-05
5.93066e-07
7.40582e-05
6.28937e-07
7.4077e-05
6.74099e-07
7.40995e-05
7.29323e-07
7.41274e-05
7.9465e-07
7.41628e-05
8.70261e-07
9.53402e-07
7.42061e-05
7.55137e-05
7.41049e-08
7.55374e-05
2.00687e-07
7.55641e-05
2.91254e-07
7.55919e-05
3.57949e-07
7.56201e-05
4.08035e-07
7.56478e-05
4.44385e-07
7.56751e-05
4.70603e-07
7.5702e-05
4.89448e-07
7.57286e-05
5.02537e-07
7.5755e-05
5.11076e-07
7.57811e-05
5.16025e-07
7.5807e-05
5.18116e-07
7.58328e-05
5.17941e-07
7.58585e-05
5.16017e-07
7.58839e-05
5.1282e-07
7.5909e-05
5.08807e-07
7.59338e-05
5.0444e-07
7.59582e-05
5.00206e-07
7.59821e-05
4.96623e-07
7.60054e-05
4.94257e-07
7.60281e-05
4.93725e-07
7.60502e-05
4.95703e-07
7.60717e-05
5.00928e-07
7.60929e-05
5.10198e-07
7.61138e-05
5.24357e-07
7.61351e-05
5.44278e-07
7.61574e-05
5.70825e-07
7.61815e-05
6.04817e-07
7.62087e-05
6.46908e-07
7.62404e-05
6.9758e-07
7.62783e-05
7.56804e-07
7.63239e-05
8.24619e-07
8.99217e-07
7.63781e-05
7.76685e-05
6.52267e-08
7.76889e-05
1.8024e-07
7.77136e-05
2.66522e-07
7.77404e-05
3.31224e-07
7.7768e-05
3.80426e-07
7.77955e-05
4.16809e-07
7.78228e-05
4.43351e-07
7.78497e-05
4.62532e-07
7.78763e-05
4.75926e-07
7.79027e-05
4.84709e-07
7.79289e-05
4.89836e-07
7.79549e-05
4.92055e-07
7.79809e-05
4.91983e-07
7.80068e-05
4.90157e-07
7.80325e-05
4.87072e-07
7.80581e-05
4.832e-07
7.80835e-05
4.79011e-07
7.81088e-05
4.74994e-07
7.81337e-05
4.71658e-07
7.81584e-05
4.69547e-07
7.81829e-05
4.69247e-07
7.82072e-05
4.71381e-07
7.82315e-05
4.76613e-07
7.82561e-05
4.85642e-07
7.82813e-05
4.9918e-07
7.83076e-05
5.1794e-07
7.83359e-05
5.42591e-07
7.83669e-05
5.73731e-07
7.8402e-05
6.11803e-07
7.84425e-05
6.57076e-07
7.84899e-05
7.0946e-07
7.85456e-05
7.68923e-07
8.34153e-07
7.86106e-05
7.98855e-05
5.80646e-08
7.99031e-05
1.62663e-07
7.99254e-05
2.44222e-07
7.995e-05
3.06594e-07
7.99758e-05
3.54564e-07
8.00021e-05
3.9054e-07
8.00285e-05
4.17001e-07
8.00548e-05
4.36166e-07
8.00812e-05
4.49563e-07
8.01076e-05
4.58345e-07
8.01339e-05
4.63451e-07
8.01604e-05
4.65636e-07
8.01868e-05
4.65524e-07
8.02133e-05
4.63664e-07
8.02398e-05
4.60556e-07
8.02664e-05
4.56676e-07
8.02929e-05
4.52494e-07
8.03194e-05
4.48489e-07
8.03459e-05
4.45151e-07
8.03724e-05
4.42997e-07
8.03991e-05
4.42565e-07
8.04261e-05
4.4442e-07
8.04535e-05
4.49145e-07
8.04819e-05
4.57333e-07
8.05115e-05
4.69568e-07
8.0543e-05
4.86408e-07
8.05772e-05
5.08354e-07
8.06152e-05
5.35815e-07
8.06579e-05
5.69056e-07
8.07068e-05
6.0818e-07
8.07632e-05
6.53033e-07
8.08287e-05
7.03495e-07
7.58476e-07
8.09043e-05
8.21664e-05
5.2131e-08
8.21817e-05
1.47325e-07
8.22021e-05
2.23791e-07
8.22254e-05
2.83329e-07
8.22504e-05
3.29593e-07
8.22762e-05
3.64722e-07
8.23024e-05
3.90797e-07
8.23288e-05
4.09763e-07
8.23553e-05
4.23051e-07
8.23819e-05
4.31757e-07
8.24086e-05
4.36788e-07
8.24353e-05
4.38885e-07
8.24622e-05
4.38673e-07
8.24891e-05
4.367e-07
8.25162e-05
4.33469e-07
8.25434e-05
4.29454e-07
8.25708e-05
4.25117e-07
8.25984e-05
4.20918e-07
8.26262e-05
4.17327e-07
8.26544e-05
4.14821e-07
8.26831e-05
4.13888e-07
8.27125e-05
4.15027e-07
8.27429e-05
4.18736e-07
8.27747e-05
4.25504e-07
8.28085e-05
4.35796e-07
8.28449e-05
4.50029e-07
8.28847e-05
4.68551e-07
8.29289e-05
4.91611e-07
8.29786e-05
5.19321e-07
8.30351e-05
5.51653e-07
8.30998e-05
5.88372e-07
8.3174e-05
6.29273e-07
6.73358e-07
8.32591e-05
8.45128e-05
4.70929e-08
8.45263e-05
1.33823e-07
8.4545e-05
2.05128e-07
8.45667e-05
2.61593e-07
8.45904e-05
3.05917e-07
8.46152e-05
3.39931e-07
8.46406e-05
3.65369e-07
8.46665e-05
3.83916e-07
8.46926e-05
3.96893e-07
8.4719e-05
4.0534e-07
8.47457e-05
4.10125e-07
8.47726e-05
4.11977e-07
8.47998e-05
4.11511e-07
8.48272e-05
4.09272e-07
8.48549e-05
4.05755e-07
8.48829e-05
4.01426e-07
8.49113e-05
3.96731e-07
8.49401e-05
3.92108e-07
8.49695e-05
3.87993e-07
8.49995e-05
3.8482e-07
8.50303e-05
3.83024e-07
8.50623e-05
3.83031e-07
8.50958e-05
3.85257e-07
8.51312e-05
3.9009e-07
8.51691e-05
3.97879e-07
8.52102e-05
4.08916e-07
8.52554e-05
4.23412e-07
8.53055e-05
4.41478e-07
8.53617e-05
4.63099e-07
8.54253e-05
4.88133e-07
8.54974e-05
5.16261e-07
8.55795e-05
5.4717e-07
5.79891e-07
8.56729e-05
8.69265e-05
4.2723e-08
8.69386e-05
1.21803e-07
8.69557e-05
1.8797e-07
8.69762e-05
2.41132e-07
8.69989e-05
2.8323e-07
8.7023e-05
3.15804e-07
8.7048e-05
3.40312e-07
8.70738e-05
3.58207e-07
8.71e-05
3.70694e-07
8.71266e-05
3.78743e-07
8.71535e-05
3.83174e-07
8.71808e-05
3.84685e-07
8.72084e-05
3.83874e-07
8.72364e-05
3.8127e-07
8.72648e-05
3.77355e-07
8.72937e-05
3.72577e-07
8.73231e-05
3.67359e-07
8.7353e-05
3.62114e-07
8.73838e-05
3.57238e-07
8.74155e-05
3.53119e-07
8.74484e-05
3.50135e-07
8.74828e-05
3.48641e-07
8.75191e-05
3.4897e-07
8.75577e-05
3.51416e-07
8.75994e-05
3.56224e-07
8.76447e-05
3.63572e-07
8.76946e-05
3.73554e-07
8.77499e-05
3.86164e-07
8.78117e-05
4.01282e-07
8.78812e-05
4.18669e-07
8.79595e-05
4.37931e-07
8.8048e-05
4.58668e-07
4.79938e-07
8.8148e-05
8.94094e-05
3.88604e-08
8.94202e-05
1.10987e-07
8.94361e-05
1.72134e-07
8.94553e-05
2.21875e-07
8.9477e-05
2.61579e-07
8.95003e-05
2.92511e-07
8.95247e-05
3.15894e-07
8.95499e-05
3.32969e-07
8.95758e-05
3.44813e-07
8.96022e-05
3.52323e-07
8.96291e-05
3.56265e-07
8.96565e-05
3.57304e-07
8.96844e-05
3.56012e-07
8.97127e-05
3.52901e-07
8.97417e-05
3.48432e-07
8.97712e-05
3.43032e-07
8.98015e-05
3.37099e-07
8.98326e-05
3.3101e-07
8.98647e-05
3.25124e-07
8.9898e-05
3.19781e-07
8.99329e-05
3.15295e-07
8.99695e-05
3.11958e-07
9.00085e-05
3.10021e-07
9.00502e-05
3.09692e-07
9.00953e-05
3.11123e-07
9.01445e-05
3.14391e-07
9.01986e-05
3.19492e-07
9.02584e-05
3.26326e-07
9.0325e-05
3.34681e-07
9.03994e-05
3.44243e-07
9.04828e-05
3.54556e-07
9.05763e-05
3.65136e-07
3.75075e-07
9.06812e-05
9.19633e-05
3.5391e-08
9.19732e-05
1.01152e-07
9.19879e-05
1.57437e-07
9.20061e-05
2.03682e-07
9.20268e-05
2.40836e-07
9.20494e-05
2.69922e-07
9.20733e-05
2.91962e-07
9.20983e-05
3.08018e-07
9.2124e-05
3.19046e-07
9.21505e-05
3.25865e-07
9.21776e-05
3.29187e-07
9.22052e-05
3.29633e-07
9.22335e-05
3.27747e-07
9.22624e-05
3.24013e-07
9.2292e-05
3.18867e-07
9.23223e-05
3.12707e-07
9.23535e-05
3.05901e-07
9.23857e-05
2.98792e-07
9.24191e-05
2.91693e-07
9.2454e-05
2.84894e-07
9.24907e-05
2.78654e-07
9.25294e-05
2.73197e-07
9.25707e-05
2.68704e-07
9.26151e-05
2.65303e-07
9.26632e-05
2.63064e-07
9.27156e-05
2.61982e-07
9.27731e-05
2.61971e-07
9.28366e-05
2.62854e-07
9.29069e-05
2.64354e-07
9.29851e-05
2.66099e-07
9.3072e-05
2.67593e-07
9.31688e-05
2.68306e-07
2.67397e-07
9.32765e-05
9.45903e-05
3.22318e-08
9.45993e-05
9.21226e-08
9.46131e-05
1.43724e-07
9.46303e-05
1.86451e-07
9.46502e-05
2.20953e-07
9.4672e-05
2.48049e-07
9.46954e-05
2.68594e-07
9.47199e-05
2.83487e-07
9.47454e-05
2.93569e-07
9.47717e-05
2.99579e-07
9.47987e-05
3.02168e-07
9.48264e-05
3.01913e-07
9.48549e-05
2.99321e-07
9.4884e-05
2.94845e-07
9.4914e-05
2.88892e-07
9.49449e-05
2.8183e-07
9.49768e-05
2.73994e-07
9.50099e-05
2.65687e-07
9.50444e-05
2.57181e-07
9.50806e-05
2.48718e-07
9.51187e-05
2.405e-07
9.51593e-05
2.32692e-07
9.52025e-05
2.25409e-07
9.52491e-05
2.18714e-07
9.52996e-05
2.12604e-07
9.53546e-05
2.07009e-07
9.54148e-05
2.01778e-07
9.54809e-05
1.96677e-07
9.55539e-05
1.91383e-07
9.56345e-05
1.85486e-07
9.57236e-05
1.78474e-07
9.58222e-05
1.69784e-07
1.58662e-07
9.59309e-05
9.72924e-05
2.93209e-08
9.73008e-05
8.37554e-08
9.73137e-05
1.30856e-07
9.733e-05
1.70073e-07
9.73491e-05
2.01849e-07
9.73704e-05
2.26834e-07
9.73932e-05
2.45737e-07
9.74174e-05
2.59321e-07
9.74426e-05
2.68317e-07
9.74688e-05
2.73388e-07
9.74959e-05
2.75125e-07
9.75237e-05
2.74055e-07
9.75524e-05
2.70648e-07
9.75819e-05
2.65322e-07
9.76124e-05
2.5845e-07
9.76438e-05
2.50368e-07
9.76764e-05
2.41374e-07
9.77104e-05
2.31733e-07
9.77459e-05
2.21674e-07
9.77832e-05
2.11392e-07
9.78227e-05
2.01038e-07
9.78647e-05
1.90723e-07
9.79096e-05
1.80506e-07
9.79579e-05
1.70392e-07
9.80102e-05
1.60322e-07
9.8067e-05
1.50174e-07
9.8129e-05
1.3975e-07
9.81969e-05
1.2878e-07
9.82714e-05
1.16912e-07
9.83532e-05
1.03722e-07
9.84429e-05
8.87024e-08
9.85414e-05
7.12979e-08
5.08651e-08
9.86492e-05
0.000100072
2.66111e-08
0.00010008
7.59369e-08
0.000100092
1.18713e-07
0.000100107
1.54454e-07
0.000100126
1.8346e-07
0.000100146
2.06247e-07
0.000100169
2.234e-07
0.000100192
2.35563e-07
0.000100217
2.43369e-07
0.000100243
2.47404e-07
0.00010027
2.48197e-07
0.000100298
2.46226e-07
0.000100327
2.41919e-07
0.000100357
2.35655e-07
0.000100387
2.27773e-07
0.000100419
2.18573e-07
0.000100452
2.08317e-07
0.000100487
1.97233e-07
0.000100523
1.85508e-07
0.000100561
1.73293e-07
0.000100601
1.60696e-07
0.000100644
1.4778e-07
0.00010069
1.34555e-07
0.000100739
1.20982e-07
0.000100793
1.06959e-07
0.000100851
9.23266e-08
0.000100914
7.68573e-08
0.000100982
6.0258e-08
0.000101057
4.21698e-08
0.000101138
2.21742e-08
0.000101227
-2.0908e-10
0.000101324
-2.55171e-08
-5.42842e-08
0.000101429
0.000102931
2.4066e-08
0.000102938
6.85749e-08
0.000102949
1.07194e-07
0.000102964
1.39507e-07
0.000102982
1.65723e-07
0.000103002
1.86246e-07
0.000103024
2.01561e-07
0.000103047
2.12206e-07
0.000103072
2.18727e-07
0.000103098
2.21633e-07
0.000103125
2.21396e-07
0.000103152
2.18442e-07
0.000103181
2.13155e-07
0.000103211
2.05877e-07
0.000103242
1.9691e-07
0.000103274
1.86518e-07
0.000103307
1.74928e-07
0.000103342
1.6233e-07
0.000103379
1.48873e-07
0.000103417
1.3467e-07
0.000103458
1.19788e-07
0.000103502
1.04249e-07
0.000103548
8.80297e-08
0.000103598
7.10523e-08
0.000103652
5.31874e-08
0.00010371
3.42502e-08
0.000103773
1.40018e-08
0.000103841
-7.86335e-09
0.000103915
-3.16867e-08
0.000103995
-5.7865e-08
0.000104082
-8.68398e-08
0.000104175
-1.19102e-07
-1.55066e-07
0.000104276
0.000105871
2.16563e-08
0.000105878
6.1594e-08
0.000105889
9.62097e-08
0.000105903
1.25155e-07
0.000105921
1.48578e-07
0.00010594
1.66798e-07
0.000105961
1.80212e-07
0.000105984
1.89269e-07
0.000106009
1.94433e-07
0.000106034
1.96145e-07
0.000106061
1.94816e-07
0.000106088
1.90824e-07
0.000106117
1.84508e-07
0.000106147
1.7617e-07
0.000106178
1.66075e-07
0.00010621
1.54452e-07
0.000106243
1.41494e-07
0.000106278
1.27354e-07
0.000106315
1.12148e-07
0.000106353
9.59551e-08
0.000106394
7.88089e-08
0.000106438
6.07e-08
0.000106484
4.15757e-08
0.000106534
2.13357e-08
0.000106587
-1.68548e-10
0.000106645
-2.31334e-08
0.000106707
-4.78007e-08
0.000106773
-7.44572e-08
0.000106845
-1.03428e-07
0.000106922
-1.35075e-07
0.000107005
-1.69787e-07
0.000107094
-2.07998e-07
-2.50011e-07
0.000107189
0.000108896
1.93587e-08
0.000108902
5.49319e-08
0.000108913
8.56834e-08
0.000108927
1.11328e-07
0.000108943
1.31973e-07
0.000108962
1.47871e-07
0.000108983
1.59344e-07
0.000109006
1.66765e-07
0.00010903
1.70522e-07
0.000109055
1.70992e-07
0.000109081
1.68531e-07
0.000109108
1.63464e-07
0.000109137
1.56088e-07
0.000109166
1.46666e-07
0.000109197
1.35426e-07
0.000109229
1.22562e-07
0.000109262
1.08237e-07
0.000109297
9.25701e-08
0.000109333
7.56455e-08
0.000109372
5.75194e-08
0.000109412
3.81934e-08
0.000109455
1.7635e-08
0.000109501
-4.22669e-09
0.00010955
-2.75068e-08
0.000109602
-5.23614e-08
0.000109658
-7.89849e-08
0.000109718
-1.07609e-07
0.000109782
-1.38497e-07
0.000109851
-1.71945e-07
0.000109924
-2.0827e-07
0.000110002
-2.47798e-07
0.000110085
-2.90901e-07
-3.37768e-07
0.000110172
0.000112007
1.71533e-08
0.000112013
4.85357e-08
0.000112023
7.55482e-08
0.000112037
9.79605e-08
0.000112053
1.15855e-07
0.000112071
1.29429e-07
0.000112092
1.38942e-07
0.000112114
1.44698e-07
0.000112137
1.4702e-07
0.000112162
1.46225e-07
0.000112188
1.42611e-07
0.000112215
1.36458e-07
0.000112243
1.2802e-07
0.000112272
1.17522e-07
0.000112302
1.05154e-07
0.000112334
9.10802e-08
0.000112367
7.54357e-08
0.000112401
5.83063e-08
0.000112437
3.97464e-08
0.000112474
1.98056e-08
0.000112514
-1.55264e-09
0.000112556
-2.43717e-08
0.000112601
-4.87305e-08
0.000112648
-7.47511e-08
0.000112698
-1.02587e-07
0.000112752
-1.32421e-07
0.000112808
-1.64466e-07
0.000112869
-1.98957e-07
0.000112933
-2.36149e-07
0.000113001
-2.76308e-07
0.000113073
-3.19698e-07
0.000113149
-3.66621e-07
-4.17159e-07
0.000113228
0.000115207
1.50237e-08
0.000115213
4.23607e-08
0.000115223
6.57468e-08
0.000115236
8.49999e-08
0.000115251
1.00184e-07
0.000115269
1.11453e-07
0.000115289
1.19013e-07
0.000115311
1.23107e-07
0.000115334
1.23995e-07
0.000115358
1.21939e-07
0.000115383
1.17186e-07
0.00011541
1.09966e-07
0.000115437
1.00495e-07
0.000115466
8.8962e-08
0.000115496
7.55186e-08
0.000115526
6.02984e-08
0.000115558
4.34248e-08
0.000115592
2.49468e-08
0.000115627
4.864e-09
0.000115663
-1.6702e-08
0.000115702
-3.98908e-08
0.000115742
-6.47162e-08
0.000115784
-9.12689e-08
0.000115829
-1.19665e-07
0.000115877
-1.50049e-07
0.000115927
-1.82587e-07
0.00011598
-2.17465e-07
0.000116036
-2.54883e-07
0.000116095
-2.95051e-07
0.000116157
-3.38184e-07
0.000116221
-3.84482e-07
0.000116289
-4.34182e-07
-4.87275e-07
0.000116359
0.000118498
1.29541e-08
0.000118504
3.6364e-08
0.000118513
5.62204e-08
0.000118526
7.2383e-08
0.000118541
8.49017e-08
0.000118559
9.38948e-08
0.000118578
9.95194e-08
0.0001186
1.01964e-07
0.000118622
1.01437e-07
0.000118646
9.81448e-08
0.000118671
9.22844e-08
0.000118697
8.40405e-08
0.000118724
7.35927e-08
0.000118751
6.10999e-08
0.00011878
4.66722e-08
0.00011881
3.03999e-08
0.000118841
1.24475e-08
0.000118873
-7.23703e-09
0.000118907
-2.86018e-08
0.000118942
-5.16273e-08
0.000118978
-7.63728e-08
0.000119016
-1.02892e-07
0.000119056
-1.31271e-07
0.000119098
-1.61616e-07
0.000119142
-1.94056e-07
0.000119189
-2.28734e-07
0.000119237
-2.65806e-07
0.000119287
-3.05434e-07
0.00011934
-3.47782e-07
0.000119395
-3.93009e-07
0.000119452
-4.41255e-07
0.00011951
-4.92688e-07
-5.47221e-07
0.00011957
0.000121883
1.0932e-08
0.000121889
3.05117e-08
0.000121898
4.69274e-08
0.000121911
6.00759e-08
0.000121926
6.99946e-08
0.000121943
7.67691e-08
0.000121962
8.05125e-08
0.000121982
8.13623e-08
0.000122004
7.94768e-08
0.000122028
7.50124e-08
0.000122052
6.81182e-08
0.000122077
5.89291e-08
0.000122103
4.75995e-08
0.00012213
3.42556e-08
0.000122157
1.89865e-08
0.000122186
1.74161e-09
0.000122215
-1.7056e-08
0.000122246
-3.77493e-08
0.000122278
-6.01821e-08
0.00012231
-8.43735e-08
0.000122344
-1.10368e-07
0.00012238
-1.38224e-07
0.000122416
-1.6802e-07
0.000122455
-1.99849e-07
0.000122494
-2.3382e-07
0.000122536
-2.70051e-07
0.000122579
-3.08665e-07
0.000122623
-3.49785e-07
0.000122669
-3.93529e-07
0.000122716
-4.40008e-07
0.000122764
-4.89306e-07
0.000122813
-5.4154e-07
-5.96561e-07
0.000122862
0.000125365
8.93875e-09
0.000125371
2.47522e-08
0.00012538
3.77893e-08
0.000125392
4.79804e-08
0.000125407
5.53495e-08
0.000125424
5.99547e-08
0.000125443
6.18693e-08
0.000125463
6.11795e-08
0.000125484
5.80025e-08
0.000125507
5.2449e-08
0.00012553
4.4618e-08
0.000125555
3.4587e-08
0.00012558
2.24944e-08
0.000125606
8.46675e-09
0.000125632
-7.52742e-09
0.000125659
-2.53827e-08
0.000125687
-4.49899e-08
0.000125716
-6.64144e-08
0.000125745
-8.96352e-08
0.000125775
-1.14667e-07
0.000125807
-1.41549e-07
0.000125839
-1.70334e-07
0.000125872
-2.0109e-07
0.000125906
-2.33894e-07
0.000125941
-2.68832e-07
0.000125977
-3.05995e-07
0.000126014
-3.45471e-07
0.000126051
-3.87346e-07
0.000126089
-4.31695e-07
0.000126128
-4.7858e-07
0.000126167
-5.28035e-07
0.000126205
-5.80117e-07
-6.34629e-07
0.000126243
0.000128947
6.96941e-09
0.000128953
1.90693e-08
0.000128962
2.88e-08
0.000128974
3.61233e-08
0.000128988
4.10389e-08
0.000129004
4.3575e-08
0.000129022
4.37628e-08
0.000129042
4.16356e-08
0.000129063
3.72829e-08
0.000129084
3.0755e-08
0.000129107
2.21368e-08
0.00012913
1.13785e-08
0.000129154
-1.33743e-09
0.000129178
-1.58879e-08
0.000129203
-3.23568e-08
0.000129228
-5.06543e-08
0.000129254
-7.0745e-08
0.00012928
-9.26372e-08
0.000129307
-1.16336e-07
0.000129334
-1.41859e-07
0.000129362
-1.69239e-07
0.00012939
-1.98523e-07
0.000129419
-2.29764e-07
0.000129448
-2.63021e-07
0.000129477
-2.98359e-07
0.000129507
-3.3584e-07
0.000129537
-3.75521e-07
0.000129567
-4.17454e-07
0.000129597
-4.61676e-07
0.000129627
-5.0821e-07
0.000129656
-5.57051e-07
0.000129684
-6.08222e-07
-6.61493e-07
0.000129711
0.000132631
4.97625e-09
0.000132637
1.33438e-08
0.000132646
1.97688e-08
0.000132658
2.42504e-08
0.000132672
2.67502e-08
0.000132688
2.72825e-08
0.000132706
2.58396e-08
0.000132725
2.23952e-08
0.000132746
1.69874e-08
0.000132767
9.6223e-09
0.000132788
4.99525e-10
0.000132811
-1.09083e-08
0.000132833
-2.39836e-08
0.000132856
-3.88805e-08
0.00013288
-5.55959e-08
0.000132903
-7.4095e-08
0.000132927
-9.43602e-08
0.00013295
-1.16397e-07
0.000132974
-1.40217e-07
0.000132998
-1.65839e-07
0.000133022
-1.93292e-07
0.000133046
-2.22608e-07
0.000133071
-2.53828e-07
0.000133095
-2.86993e-07
0.000133118
-3.22143e-07
0.000133142
-3.59314e-07
0.000133165
-3.98535e-07
0.000133187
-4.39824e-07
0.000133209
-4.83183e-07
0.000133229
-5.28601e-07
0.000133248
-5.76032e-07
0.000133265
-6.25455e-07
-6.76617e-07
0.00013328
0.00013642
3.00535e-09
0.000136426
7.65456e-09
0.000136435
1.08415e-08
0.000136447
1.26152e-08
0.00013646
1.28327e-08
0.000136476
1.15111e-08
0.000136493
8.56202e-09
0.000136512
3.87465e-09
0.000136531
-2.40551e-09
0.000136551
-1.03776e-08
0.000136572
-2.01152e-08
0.000136593
-3.16937e-08
0.000136614
-4.49665e-08
0.000136635
-5.99522e-08
0.000136656
-7.66584e-08
0.000136677
-9.50749e-08
0.000136698
-1.152e-07
0.000136718
-1.37042e-07
0.000136739
-1.60614e-07
0.000136759
-1.85931e-07
0.000136779
-2.13016e-07
0.000136798
-2.41892e-07
0.000136817
-2.72584e-07
0.000136835
-3.05116e-07
0.000136852
-3.39509e-07
0.000136869
-3.75776e-07
0.000136884
-4.13921e-07
0.000136898
-4.53936e-07
0.000136911
-4.95799e-07
0.000136922
-5.39472e-07
0.00013693
-5.84889e-07
0.000136937
-6.32012e-07
-6.80583e-07
0.000136941
0.000140318
8.45585e-10
0.000140324
1.56779e-09
0.000140333
1.39221e-09
0.000140346
5.07117e-10
0.00014036
-1.58658e-09
0.000140376
-4.65566e-09
0.000140394
-8.89687e-09
0.000140412
-1.44561e-08
0.000140431
-2.14296e-08
0.00014045
-2.98777e-08
0.00014047
-3.98717e-08
0.00014049
-5.147e-08
0.00014051
-6.46565e-08
0.000140529
-7.94406e-08
0.000140548
-9.58361e-08
0.000140567
-1.13848e-07
0.000140585
-1.33483e-07
0.000140603
-1.54755e-07
0.00014062
-1.77678e-07
0.000140637
-2.02262e-07
0.000140652
-2.28522e-07
0.000140667
-2.56471e-07
0.00014068
-2.86121e-07
0.000140693
-3.17479e-07
0.000140704
-3.50545e-07
0.000140713
-3.85314e-07
0.000140721
-4.21766e-07
0.000140727
-4.59871e-07
0.000140731
-4.99582e-07
0.000140732
-5.40836e-07
0.000140731
-5.83546e-07
0.000140726
-6.27641e-07
-6.72858e-07
0.000140719
0.000144327
-1.15548e-09
0.000144332
-4.32246e-09
0.000144342
-7.77398e-09
0.000144354
-1.14238e-08
0.000144368
-1.5533e-08
0.000144383
-2.02079e-08
0.0001444
-2.56426e-08
0.000144417
-3.2034e-08
0.000144435
-3.95052e-08
0.000144454
-4.81934e-08
0.000144472
-5.82058e-08
0.00014449
-6.96092e-08
0.000144508
-8.24385e-08
0.000144525
-9.67231e-08
0.000144542
-1.12488e-07
0.000144558
-1.29751e-07
0.000144573
-1.48533e-07
0.000144587
-1.6885e-07
0.0001446
-1.90711e-07
0.000144612
-2.14124e-07
0.000144623
-2.39095e-07
0.000144632
-2.6563e-07
0.000144639
-2.93729e-07
0.000144645
-3.23388e-07
0.000144649
-3.54594e-07
0.000144651
-3.87326e-07
0.000144651
-4.2155e-07
0.000144648
-4.5722e-07
0.000144643
-4.94278e-07
0.000144635
-5.32652e-07
0.000144624
-5.72247e-07
0.000144609
-6.12993e-07
-6.5464e-07
0.000144591
0.000148451
-3.91883e-09
0.000148458
-1.16395e-08
0.000148469
-1.86426e-08
0.000148482
-2.49073e-08
0.000148498
-3.08574e-08
0.000148514
-3.67953e-08
0.000148532
-4.30193e-08
0.000148549
-4.98232e-08
0.000148567
-5.74257e-08
0.000148585
-6.60034e-08
0.000148603
-7.56918e-08
0.00014862
-8.65865e-08
0.000148636
-9.87501e-08
0.000148651
-1.12226e-07
0.000148666
-1.27045e-07
0.00014868
-1.43227e-07
0.000148692
-1.60793e-07
0.000148703
-1.79769e-07
0.000148712
-2.00164e-07
0.00014872
-2.21982e-07
0.000148726
-2.45223e-07
0.00014873
-2.69883e-07
0.000148733
-2.95952e-07
0.000148733
-3.23414e-07
0.00014873
-3.52244e-07
0.000148725
-3.82406e-07
0.000148718
-4.13856e-07
0.000148707
-4.46533e-07
0.000148693
-4.80365e-07
0.000148676
-5.15266e-07
0.000148655
-5.5113e-07
0.000148629
-5.87863e-07
-6.25227e-07
0.0001486
0.000152691
-5.90246e-09
0.000152698
-1.81977e-08
0.000152708
-2.87883e-08
0.000152721
-3.77947e-08
0.000152736
-4.57319e-08
0.000152752
-5.29918e-08
0.000152769
-5.99881e-08
0.000152786
-6.71213e-08
0.000152803
-7.46939e-08
0.00015282
-8.29377e-08
0.000152837
-9.20315e-08
0.000152852
-1.02105e-07
0.000152867
-1.13248e-07
0.00015288
-1.25528e-07
0.000152892
-1.3899e-07
0.000152902
-1.53671e-07
0.000152911
-1.69603e-07
0.000152918
-1.86803e-07
0.000152923
-2.05277e-07
0.000152926
-2.25025e-07
0.000152927
-2.46048e-07
0.000152926
-2.68339e-07
0.000152922
-2.91883e-07
0.000152915
-3.16659e-07
0.000152905
-3.42634e-07
0.000152892
-3.69768e-07
0.000152877
-3.9801e-07
0.000152857
-4.27298e-07
0.000152835
-4.57558e-07
0.000152808
-4.88708e-07
0.000152778
-5.20649e-07
0.000152743
-5.53305e-07
-5.86458e-07
0.000152704
0.000157056
-1.08751e-08
0.000157067
-2.90635e-08
0.000157082
-4.30957e-08
0.000157098
-5.39941e-08
0.000157115
-6.30066e-08
0.000157133
-7.07366e-08
0.000157151
-7.77641e-08
0.000157168
-8.46137e-08
0.000157185
-9.16503e-08
0.000157201
-9.91383e-08
0.000157216
-1.07279e-07
0.000157231
-1.16217e-07
0.000157243
-1.26058e-07
0.000157255
-1.36876e-07
0.000157265
-1.48726e-07
0.000157272
-1.61645e-07
0.000157279
-1.7566e-07
0.000157283
-1.90781e-07
0.000157284
-2.0701e-07
0.000157284
-2.24347e-07
0.00015728
-2.42788e-07
0.000157274
-2.62323e-07
0.000157265
-2.82932e-07
0.000157253
-3.04589e-07
0.000157238
-3.27256e-07
0.000157219
-3.50889e-07
0.000157196
-3.75433e-07
0.00015717
-4.00821e-07
0.000157139
-4.26977e-07
0.000157104
-4.53813e-07
0.000157065
-4.81227e-07
0.000157021
-5.09126e-07
-5.37315e-07
0.000156972
0.00016154
-1.27351e-08
0.000161549
-3.81077e-08
0.000161563
-5.66475e-08
0.000161579
-7.04879e-08
0.000161598
-8.11647e-08
0.000161616
-8.95216e-08
0.000161635
-9.65063e-08
0.000161653
-1.02861e-07
0.000161671
-1.0905e-07
0.000161687
-1.15408e-07
0.000161702
-1.22182e-07
0.000161715
-1.29544e-07
0.000161727
-1.37615e-07
0.000161736
-1.46477e-07
0.000161744
-1.5619e-07
0.000161749
-1.66794e-07
0.000161752
-1.78317e-07
0.000161752
-1.90784e-07
0.000161749
-2.04206e-07
0.000161743
-2.18586e-07
0.000161734
-2.33921e-07
0.000161722
-2.50198e-07
0.000161707
-2.674e-07
0.000161687
-2.85498e-07
0.000161665
-3.04457e-07
0.000161638
-3.24235e-07
0.000161607
-3.44777e-07
0.000161573
-3.66024e-07
0.000161533
-3.87906e-07
0.00016149
-4.1035e-07
0.000161442
-4.33267e-07
0.00016139
-4.56594e-07
-4.80155e-07
0.000161332
0.000166166
-2.48403e-08
0.000166184
-5.67315e-08
0.000166204
-7.65909e-08
0.000166224
-9.05859e-08
0.000166244
-1.01042e-07
0.000166263
-1.08729e-07
0.000166282
-1.14836e-07
0.000166299
-1.2017e-07
0.000166315
-1.25171e-07
0.00016633
-1.30165e-07
0.000166343
-1.35399e-07
0.000166355
-1.41038e-07
0.000166364
-1.47199e-07
0.000166372
-1.53965e-07
0.000166377
-1.61396e-07
0.00016638
-1.69532e-07
0.00016638
-1.78404e-07
0.000166377
-1.88029e-07
0.000166371
-1.98414e-07
0.000166362
-2.0956e-07
0.00016635
-2.21459e-07
0.000166334
-2.341e-07
0.000166314
-2.47463e-07
0.00016629
-2.61522e-07
0.000166262
-2.76245e-07
0.000166229
-2.91591e-07
0.000166192
-3.07512e-07
0.00016615
-3.23952e-07