/*--------------------------------*- C++ -*----------------------------------*\
  =========                 |
  \\      /  F ield         | OpenFOAM: The Open Source CFD Toolbox
   \\    /   O peration     | Website:  https://openfoam.org
    \\  /    A nd           | Version:  10
     \\/     M anipulation  |
\*---------------------------------------------------------------------------*/
FoamFile
{
    format      ascii;
    class       volVectorField;
    location    "0.175";
    object      U;
}
// * * * * * * * * * * * * * * * * * * * * * * * * * * * * * * * * * * * * * //

dimensions      [0 1 -1 0 0 0 0];

internalField   nonuniform List<vector> 
6820
(
(7.28183 0.024775 0)
(7.17858 0.0399054 0)
(7.05655 0.0447517 0)
(6.92893 0.0472963 0)
(6.80221 0.0482562 0)
(6.67687 0.0482873 0)
(6.55349 0.0478282 0)
(6.43265 0.0470655 0)
(6.31458 0.0461095 0)
(6.19939 0.0450315 0)
(6.08717 0.0438732 0)
(5.97802 0.0426591 0)
(5.87198 0.0414043 0)
(5.7691 0.040118 0)
(5.66945 0.0388061 0)
(5.57308 0.037474 0)
(5.48001 0.0361276 0)
(5.39027 0.0347755 0)
(5.30385 0.0334295 0)
(5.22072 0.0321057 0)
(5.1408 0.030825 0)
(5.06394 0.029614 0)
(4.98992 0.0285058 0)
(4.91847 0.0275422 0)
(4.84918 0.0267765 0)
(4.78152 0.0262788 0)
(4.71481 0.0261424 0)
(4.6481 0.026512 0)
(4.58015 0.0275585 0)
(4.50931 0.0297165 0)
(4.43252 0.0333212 0)
(4.34809 0.0396608 0)
(4.24208 0.0555304 0)
(7.35919 0.0258331 0)
(7.42093 0.0356327 0)
(7.47604 0.0373497 0)
(7.52637 0.0392835 0)
(7.57249 0.0406011 0)
(7.61331 0.0416187 0)
(7.64879 0.0426028 0)
(7.67939 0.0435491 0)
(7.70542 0.0444438 0)
(7.72722 0.0452821 0)
(7.74512 0.046053 0)
(7.75942 0.0467444 0)
(7.77043 0.0473457 0)
(7.77841 0.0478483 0)
(7.78362 0.0482455 0)
(7.78631 0.0485338 0)
(7.78668 0.048714 0)
(7.78496 0.0487924 0)
(7.78133 0.0487821 0)
(7.77595 0.048704 0)
(7.76899 0.0485889 0)
(7.76057 0.0484787 0)
(7.75077 0.0484293 0)
(7.73967 0.0485135 0)
(7.72726 0.0488278 0)
(7.7135 0.0494997 0)
(7.69827 0.0507046 0)
(7.68136 0.0526882 0)
(7.66249 0.0558016 0)
(7.64097 0.0606545 0)
(7.61697 0.0678611 0)
(7.58731 0.0801708 0)
(7.56087 0.0956967 0)
(7.33543 0.00690453 0)
(7.34574 0.0100644 0)
(7.35494 0.0125775 0)
(7.36303 0.0159068 0)
(7.37184 0.0186648 0)
(7.38123 0.0210098 0)
(7.39113 0.0231578 0)
(7.40167 0.0251063 0)
(7.41282 0.0268626 0)
(7.42451 0.0284517 0)
(7.43664 0.0298895 0)
(7.44913 0.0311864 0)
(7.46188 0.0323506 0)
(7.47478 0.0333886 0)
(7.48773 0.034306 0)
(7.50063 0.0351092 0)
(7.51337 0.0358067 0)
(7.52585 0.0364107 0)
(7.53798 0.036939 0)
(7.54965 0.0374169 0)
(7.56079 0.037879 0)
(7.57132 0.0383716 0)
(7.58118 0.0389561 0)
(7.5903 0.0397126 0)
(7.59864 0.0407469 0)
(7.60616 0.0421985 0)
(7.61287 0.04426 0)
(7.61878 0.047184 0)
(7.62396 0.0513701 0)
(7.62871 0.057263 0)
(7.63324 0.0658975 0)
(7.63954 0.0776701 0)
(7.64735 0.0951185 0)
(7.33495 0.00923002 0)
(7.3426 0.0199011 0)
(7.3484 0.0252205 0)
(7.35215 0.0287394 0)
(7.35556 0.030958 0)
(7.3587 0.0323893 0)
(7.36151 0.0334404 0)
(7.36419 0.0342453 0)
(7.36683 0.0348735 0)
(7.36949 0.0353802 0)
(7.37218 0.035797 0)
(7.37495 0.0361413 0)
(7.37782 0.036425 0)
(7.38078 0.0366563 0)
(7.38384 0.0368421 0)
(7.38699 0.0369901 0)
(7.39019 0.0371099 0)
(7.39343 0.0372149 0)
(7.39667 0.0373234 0)
(7.39985 0.0374605 0)
(7.40294 0.0376595 0)
(7.40589 0.0379643 0)
(7.40862 0.0384317 0)
(7.41108 0.0391353 0)
(7.41322 0.0401703 0)
(7.41497 0.0416608 0)
(7.4163 0.0437691 0)
(7.41719 0.0467117 0)
(7.41767 0.0507615 0)
(7.41794 0.0563141 0)
(7.41818 0.0636922 0)
(7.41966 0.0736845 0)
(7.42215 0.0851688 0)
(7.33401 0.00630585 0)
(7.33885 0.012452 0)
(7.34371 0.0150856 0)
(7.34765 0.0174431 0)
(7.35143 0.0195088 0)
(7.35499 0.0212458 0)
(7.35822 0.0228233 0)
(7.36123 0.0242718 0)
(7.3641 0.0255873 0)
(7.36684 0.0267804 0)
(7.36949 0.0278593 0)
(7.37205 0.028829 0)
(7.37456 0.0296953 0)
(7.377 0.030465 0)
(7.37937 0.0311462 0)
(7.38168 0.0317494 0)
(7.3839 0.0322881 0)
(7.38603 0.0327808 0)
(7.38803 0.0332514 0)
(7.38989 0.0337315 0)
(7.39157 0.0342614 0)
(7.39303 0.0348925 0)
(7.39424 0.0356897 0)
(7.39516 0.0367348 0)
(7.39576 0.0381304 0)
(7.39598 0.0400059 0)
(7.39582 0.0425237 0)
(7.39529 0.0458869 0)
(7.3944 0.0503417 0)
(7.39335 0.0561873 0)
(7.3923 0.063677 0)
(7.39203 0.0731958 0)
(7.39255 0.0840083 0)
(7.33376 0.00525336 0)
(7.33785 0.0127995 0)
(7.34242 0.017805 0)
(7.34616 0.0217808 0)
(7.34959 0.0247891 0)
(7.35282 0.0269827 0)
(7.35581 0.0286689 0)
(7.35863 0.0300026 0)
(7.36137 0.0310642 0)
(7.36404 0.0319199 0)
(7.36666 0.0326171 0)
(7.36925 0.0331873 0)
(7.3718 0.0336542 0)
(7.37432 0.0340374 0)
(7.37681 0.0343539 0)
(7.37925 0.034621 0)
(7.38163 0.0348575 0)
(7.38393 0.035086 0)
(7.38612 0.0353337 0)
(7.38819 0.0356345 0)
(7.39011 0.0360309 0)
(7.39185 0.0365753 0)
(7.39338 0.0373327 0)
(7.39467 0.0383832 0)
(7.3957 0.0398255 0)
(7.39646 0.0417803 0)
(7.39695 0.0443928 0)
(7.39721 0.0478382 0)
(7.39731 0.052308 0)
(7.39741 0.0580266 0)
(7.3977 0.065125 0)
(7.39867 0.0738238 0)
(7.40038 0.0835501 0)
(7.33347 0.00433643 0)
(7.33632 0.0107153 0)
(7.33993 0.0145425 0)
(7.34319 0.017284 0)
(7.34634 0.0193888 0)
(7.34945 0.0210241 0)
(7.35242 0.0223977 0)
(7.35527 0.0236021 0)
(7.35806 0.024666 0)
(7.36078 0.025613 0)
(7.36345 0.0264604 0)
(7.36608 0.0272188 0)
(7.36869 0.0278973 0)
(7.37125 0.0285055 0)
(7.37379 0.0290544 0)
(7.37627 0.0295573 0)
(7.3787 0.0300312 0)
(7.38107 0.0304978 0)
(7.38334 0.0309844 0)
(7.38552 0.0315256 0)
(7.38756 0.0321646 0)
(7.38947 0.0329544 0)
(7.39121 0.0339599 0)
(7.39279 0.0352599 0)
(7.39418 0.0369492 0)
(7.39541 0.0391404 0)
(7.39649 0.0419647 0)
(7.39748 0.0455731 0)
(7.39848 0.0501222 0)
(7.39963 0.0557797 0)
(7.40112 0.0626368 0)
(7.40328 0.0708242 0)
(7.40618 0.079987 0)
(7.33332 0.00365193 0)
(7.33558 0.00964915 0)
(7.3388 0.0139515 0)
(7.34193 0.0174204 0)
(7.34497 0.0202773 0)
(7.34794 0.0225536 0)
(7.35077 0.0243927 0)
(7.3535 0.0259012 0)
(7.35615 0.0271395 0)
(7.35875 0.028159 0)
(7.3613 0.0290016 0)
(7.36383 0.0296993 0)
(7.36634 0.0302781 0)
(7.36883 0.0307612 0)
(7.37129 0.0311704 0)
(7.37372 0.0315278 0)
(7.37611 0.0318574 0)
(7.37845 0.0321865 0)
(7.38073 0.032547 0)
(7.38294 0.0329767 0)
(7.38506 0.0335206 0)
(7.38707 0.0342323 0)
(7.38899 0.0351758 0)
(7.39079 0.0364263 0)
(7.3925 0.0380721 0)
(7.39413 0.0402152 0)
(7.39572 0.0429691 0)
(7.39735 0.0464576 0)
(7.3991 0.0508026 0)
(7.40113 0.0561251 0)
(7.40359 0.0624886 0)
(7.40672 0.0699737 0)
(7.41058 0.0783722 0)
(7.33322 0.00314929 0)
(7.33495 0.00857859 0)
(7.33761 0.0125444 0)
(7.34033 0.0155594 0)
(7.34304 0.0179099 0)
(7.34576 0.0197211 0)
(7.34844 0.0211617 0)
(7.35107 0.0223504 0)
(7.35367 0.0233475 0)
(7.35624 0.0241942 0)
(7.35878 0.0249216 0)
(7.36131 0.0255513 0)
(7.36382 0.0261005 0)
(7.36632 0.0265851 0)
(7.3688 0.0270213 0)
(7.37126 0.0274266 0)
(7.37369 0.0278215 0)
(7.37608 0.0282306 0)
(7.37842 0.0286832 0)
(7.38072 0.0292149 0)
(7.38295 0.029868 0)
(7.38513 0.0306929 0)
(7.38725 0.0317489 0)
(7.38931 0.0331048 0)
(7.39135 0.0348392 0)
(7.39339 0.0370401 0)
(7.39549 0.0398034 0)
(7.39772 0.043231 0)
(7.40018 0.0474203 0)
(7.403 0.0524619 0)
(7.40633 0.0584061 0)
(7.41036 0.0653119 0)
(7.41515 0.0730619 0)
(7.33316 0.00275288 0)
(7.33453 0.0076939 0)
(7.33683 0.0115484 0)
(7.33934 0.014642 0)
(7.34191 0.0172065 0)
(7.34452 0.0193135 0)
(7.34712 0.0210567 0)
(7.34968 0.0225152 0)
(7.3522 0.0237356 0)
(7.3547 0.0247556 0)
(7.35718 0.0256082 0)
(7.35965 0.026321 0)
(7.3621 0.0269179 0)
(7.36455 0.0274214 0)
(7.36699 0.0278539 0)
(7.36941 0.0282384 0)
(7.37182 0.0286001 0)
(7.37422 0.0289672 0)
(7.37658 0.0293717 0)
(7.37893 0.0298508 0)
(7.38125 0.030447 0)
(7.38355 0.0312097 0)
(7.38585 0.0321949 0)
(7.38815 0.0334662 0)
(7.39049 0.0350941 0)
(7.39291 0.0371552 0)
(7.39546 0.0397291 0)
(7.39824 0.0428965 0)
(7.40133 0.0467319 0)
(7.40487 0.0513014 0)
(7.40898 0.0566433 0)
(7.41382 0.0628016 0)
(7.41946 0.0697039 0)
(7.33312 0.0024389 0)
(7.33423 0.00693141 0)
(7.33618 0.0105611 0)
(7.33841 0.0134726 0)
(7.34074 0.0158361 0)
(7.34314 0.0177262 0)
(7.34556 0.0192397 0)
(7.34798 0.0204678 0)
(7.3504 0.0214714 0)
(7.35282 0.0222957 0)
(7.35524 0.0229768 0)
(7.35767 0.0235427 0)
(7.36009 0.0240168 0)
(7.36252 0.0244198 0)
(7.36496 0.024772 0)
(7.36739 0.0250945 0)
(7.36983 0.02541 0)
(7.37226 0.0257443 0)
(7.37469 0.0261266 0)
(7.37713 0.0265907 0)
(7.37957 0.0271751 0)
(7.38203 0.0279237 0)
(7.38452 0.028886 0)
(7.38707 0.0301166 0)
(7.38972 0.0316746 0)
(7.39251 0.0336227 0)
(7.39551 0.0360249 0)
(7.3988 0.0389436 0)
(7.40247 0.0424348 0)
(7.40665 0.0465455 0)
(7.41144 0.0513022 0)
(7.41701 0.0567359 0)
(7.42342 0.0627923 0)
(7.33309 0.00218151 0)
(7.334 0.00626817 0)
(7.33569 0.00968149 0)
(7.33771 0.012486 0)
(7.33987 0.0148202 0)
(7.34215 0.016753 0)
(7.34448 0.0183553 0)
(7.34683 0.0196939 0)
(7.34919 0.0208141 0)
(7.35156 0.0217498 0)
(7.35394 0.0225298 0)
(7.35632 0.0231791 0)
(7.35872 0.0237195 0)
(7.36112 0.0241722 0)
(7.36353 0.0245584 0)
(7.36595 0.0249001 0)
(7.36839 0.0252213 0)
(7.37084 0.0255482 0)
(7.37331 0.0259101 0)
(7.37581 0.0263398 0)
(7.37834 0.0268738 0)
(7.38093 0.0275527 0)
(7.38359 0.0284206 0)
(7.38636 0.0295253 0)
(7.38927 0.0309168 0)
(7.39239 0.0326461 0)
(7.39576 0.0347634 0)
(7.39949 0.0373152 0)
(7.40365 0.0403408 0)
(7.40837 0.0438703 0)
(7.41374 0.0479181 0)
(7.41991 0.0525011 0)
(7.42695 0.0575678 0)
(7.33308 0.00196544 0)
(7.33383 0.00568768 0)
(7.3353 0.00887377 0)
(7.33711 0.0115266 0)
(7.3391 0.013737 0)
(7.34121 0.0155571 0)
(7.3434 0.0170431 0)
(7.34563 0.018255 0)
(7.34789 0.0192407 0)
(7.35017 0.0200384 0)
(7.35247 0.0206809 0)
(7.35479 0.0211963 0)
(7.35714 0.021609 0)
(7.35951 0.0219412 0)
(7.3619 0.0222144 0)
(7.36432 0.0224506 0)
(7.36676 0.0226723 0)
(7.36924 0.0229042 0)
(7.37176 0.0231729 0)
(7.37433 0.0235077 0)
(7.37697 0.0239406 0)
(7.37969 0.0245062 0)
(7.38252 0.0252416 0)
(7.3855 0.0261856 0)
(7.38867 0.0273777 0)
(7.39208 0.0288566 0)
(7.39581 0.0306585 0)
(7.39992 0.032815 0)
(7.4045 0.0353497 0)
(7.40967 0.038278 0)
(7.41552 0.0416009 0)
(7.42219 0.0453202 0)
(7.42974 0.0493796 0)
(7.33306 0.00177988 0)
(7.33371 0.00517307 0)
(7.33499 0.00813359 0)
(7.33663 0.010636 0)
(7.33847 0.0127446 0)
(7.34045 0.0145055 0)
(7.34253 0.0159663 0)
(7.34468 0.0171771 0)
(7.34687 0.0181783 0)
(7.3491 0.0190017 0)
(7.35136 0.0196744 0)
(7.35365 0.02022 0)
(7.35596 0.0206595 0)
(7.35831 0.0210128 0)
(7.36069 0.0212994 0)
(7.3631 0.0215396 0)
(7.36556 0.0217545 0)
(7.36806 0.0219668 0)
(7.37062 0.0222009 0)
(7.37325 0.0224831 0)
(7.37597 0.0228414 0)
(7.3788 0.0233055 0)
(7.38177 0.0239061 0)
(7.38492 0.0246743 0)
(7.38829 0.0256405 0)
(7.39195 0.0268328 0)
(7.39594 0.0282754 0)
(7.40036 0.0299871 0)
(7.40527 0.0319786 0)
(7.41079 0.0342515 0)
(7.41699 0.0367947 0)
(7.424 0.0395952 0)
(7.43189 0.0425907 0)
(7.33305 0.00161725 0)
(7.33361 0.00471231 0)
(7.33474 0.00745191 0)
(7.33623 0.00979558 0)
(7.33792 0.0117821 0)
(7.33977 0.013445 0)
(7.34174 0.0148196 0)
(7.34378 0.0159459 0)
(7.34588 0.0168595 0)
(7.34803 0.0175903 0)
(7.35021 0.0181654 0)
(7.35244 0.0186089 0)
(7.3547 0.0189429 0)
(7.35701 0.0191878 0)
(7.35936 0.0193637 0)
(7.36175 0.0194903 0)
(7.3642 0.019588 0)
(7.36672 0.0196777 0)
(7.36931 0.0197812 0)
(7.37199 0.0199213 0)
(7.37478 0.0201215 0)
(7.3777 0.0204059 0)
(7.38079 0.0207985 0)
(7.38409 0.0213222 0)
(7.38764 0.021998 0)
(7.39149 0.0228438 0)
(7.3957 0.0238726 0)
(7.40035 0.0250911 0)
(7.40551 0.0264978 0)
(7.41127 0.0280824 0)
(7.41771 0.0298219 0)
(7.42495 0.0316897 0)
(7.43303 0.0336179 0)
(7.33305 0.00147226 0)
(7.33354 0.0042953 0)
(7.33454 0.00682081 0)
(7.33589 0.00900359 0)
(7.33746 0.010866 0)
(7.33919 0.0124344 0)
(7.34106 0.0137378 0)
(7.34301 0.01481 0)
(7.34504 0.0156824 0)
(7.34712 0.0163818 0)
(7.34926 0.016932 0)
(7.35144 0.0173543 0)
(7.35367 0.017668 0)
(7.35595 0.0178912 0)
(7.35828 0.0180412 0)
(7.36066 0.0181356 0)
(7.36311 0.0181917 0)
(7.36564 0.0182276 0)
(7.36825 0.0182617 0)
(7.37097 0.0183125 0)
(7.37381 0.018399 0)
(7.37681 0.0185395 0)
(7.38 0.0187515 0)
(7.3834 0.0190506 0)
(7.38707 0.0194494 0)
(7.39106 0.0199568 0)
(7.39543 0.020576 0)
(7.40024 0.0213037 0)
(7.40555 0.0221284 0)
(7.41145 0.0230296 0)
(7.418 0.023975 0)
(7.42532 0.0249265 0)
(7.43341 0.0258137 0)
(7.33304 0.00134107 0)
(7.33348 0.0039141 0)
(7.33438 0.00623346 0)
(7.33561 0.0082543 0)
(7.33706 0.00998693 0)
(7.33869 0.0114495 0)
(7.34045 0.0126637 0)
(7.34231 0.0136559 0)
(7.34425 0.0144516 0)
(7.34626 0.0150742 0)
(7.34833 0.0155449 0)
(7.35045 0.0158832 0)
(7.35263 0.0161075 0)
(7.35486 0.0162349 0)
(7.35715 0.0162819 0)
(7.35951 0.0162648 0)
(7.36194 0.0161993 0)
(7.36445 0.0161014 0)
(7.36707 0.0159867 0)
(7.3698 0.0158702 0)
(7.37268 0.0157664 0)
(7.37572 0.0156886 0)
(7.37896 0.0156483 0)
(7.38243 0.0156541 0)
(7.38618 0.0157115 0)
(7.39025 0.015821 0)
(7.3947 0.0159774 0)
(7.39958 0.016169 0)
(7.40496 0.0163755 0)
(7.4109 0.0165682 0)
(7.41745 0.0167074 0)
(7.42471 0.0167463 0)
(7.4327 0.0166145 0)
(7.33304 0.00122086 0)
(7.33343 0.00356233 0)
(7.33424 0.00568374 0)
(7.33537 0.00754333 0)
(7.33672 0.00914364 0)
(7.33825 0.0104971 0)
(7.33992 0.0116203 0)
(7.34169 0.0125348 0)
(7.34356 0.0132625 0)
(7.3455 0.0138238 0)
(7.34751 0.0142378 0)
(7.34958 0.0145218 0)
(7.35171 0.0146921 0)
(7.3539 0.0147636 0)
(7.35616 0.0147507 0)
(7.35849 0.0146669 0)
(7.3609 0.0145254 0)
(7.3634 0.0143387 0)
(7.36602 0.0141187 0)
(7.36876 0.0138766 0)
(7.37164 0.0136219 0)
(7.3747 0.0133628 0)
(7.37797 0.0131048 0)
(7.38147 0.0128504 0)
(7.38525 0.0125982 0)
(7.38935 0.0123418 0)
(7.39382 0.012069 0)
(7.3987 0.0117611 0)
(7.40405 0.0113912 0)
(7.40992 0.0109245 0)
(7.41637 0.010316 0)
(7.42345 0.00951336 0)
(7.43118 0.00844904 0)
(7.33303 0.00110948 0)
(7.33339 0.00323488 0)
(7.33413 0.00516636 0)
(7.33517 0.00686639 0)
(7.33643 0.00833255 0)
(7.33786 0.00957232 0)
(7.33944 0.0105978 0)
(7.34114 0.0114253 0)
(7.34292 0.0120724 0)
(7.34479 0.012556 0)
(7.34673 0.0128921 0)
(7.34874 0.0130957 0)
(7.35081 0.0131809 0)
(7.35295 0.0131607 0)
(7.35516 0.0130474 0)
(7.35744 0.0128528 0)
(7.35982 0.0125877 0)
(7.36229 0.0122621 0)
(7.36487 0.0118848 0)
(7.36759 0.0114635 0)
(7.37046 0.011004 0)
(7.3735 0.0105097 0)
(7.37675 0.00998156 0)
(7.38023 0.00941669 0)
(7.38399 0.00880816 0)
(7.38805 0.00814409 0)
(7.39246 0.00740678 0)
(7.39727 0.00657207 0)
(7.4025 0.00560852 0)
(7.40822 0.00447726 0)
(7.41444 0.00313077 0)
(7.42125 0.0015138 0)
(7.42861 -0.000436194 0)
(7.33303 0.00100532 0)
(7.33335 0.00292763 0)
(7.33404 0.00467676 0)
(7.335 0.00621967 0)
(7.33617 0.00755103 0)
(7.33752 0.00867473 0)
(7.33902 0.0095993 0)
(7.34063 0.0103373 0)
(7.34235 0.010903 0)
(7.34414 0.0113106 0)
(7.34602 0.0115737 0)
(7.34796 0.0117052 0)
(7.34998 0.0117173 0)
(7.35206 0.0116209 0)
(7.35422 0.0114263 0)
(7.35646 0.0111427 0)
(7.35879 0.0107783 0)
(7.36122 0.0103402 0)
(7.36376 0.00983395 0)
(7.36643 0.00926349 0)
(7.36926 0.00863061 0)
(7.37226 0.00793457 0)
(7.37546 0.00717159 0)
(7.37889 0.00633426 0)
(7.38258 0.00541093 0)
(7.38655 0.00438511 0)
(7.39085 0.0032348 0)
(7.3955 0.00193215 0)
(7.40055 0.000442511 0)
(7.40602 -0.00127495 0)
(7.41195 -0.00326849 0)
(7.41837 -0.00559408 0)
(7.42526 -0.00830816 0)
(7.33303 0.000907076 0)
(7.33332 0.00263722 0)
(7.33396 0.00421099 0)
(7.33485 0.00559965 0)
(7.33595 0.00679629 0)
(7.33722 0.00780208 0)
(7.33864 0.00862248 0)
(7.34018 0.00926661 0)
(7.34182 0.00974536 0)
(7.34354 0.0100699 0)
(7.34535 0.0102511 0)
(7.34723 0.0102993 0)
(7.34917 0.0102243 0)
(7.35119 0.0100348 0)
(7.35329 0.00973883 0)
(7.35546 0.00934327 0)
(7.35773 0.00885393 0)
(7.3601 0.00827517 0)
(7.36257 0.00760974 0)
(7.36518 0.00685858 0)
(7.36794 0.00602016 0)
(7.37086 0.00509028 0)
(7.37397 0.00406162 0)
(7.37729 0.00292319 0)
(7.38085 0.00165995 0)
(7.38468 0.000252168 0)
(7.3888 -0.00132489 0)
(7.39324 -0.00310101 0)
(7.39802 -0.00511181 0)
(7.40317 -0.00739852 0)
(7.40871 -0.010008 0)
(7.41467 -0.0129943 0)
(7.42101 -0.0164071 0)
(7.33303 0.000813718 0)
(7.3333 0.0023609 0)
(7.33389 0.00376569 0)
(7.33472 0.00500329 0)
(7.33575 0.00606616 0)
(7.33696 0.00695352 0)
(7.3383 0.00766849 0)
(7.33977 0.00821745 0)
(7.34133 0.00860855 0)
(7.34298 0.00885049 0)
(7.34472 0.00895186 0)
(7.34652 0.00892093 0)
(7.3484 0.00876535 0)
(7.35035 0.00849197 0)
(7.35238 0.00810657 0)
(7.35448 0.00761389 0)
(7.35667 0.00701741 0)
(7.35896 0.00631884 0)
(7.36135 0.00551818 0)
(7.36387 0.0046137 0)
(7.36653 0.00360065 0)
(7.36934 0.00247186 0)
(7.37233 0.00121704 0)
(7.37551 -0.000177635 0)
(7.37891 -0.00173 0)
(7.38254 -0.003462 0)
(7.38643 -0.00539992 0)
(7.39059 -0.00757475 0)
(7.39505 -0.0100221 0)
(7.39981 -0.0127822 0)
(7.4049 -0.0158995 0)
(7.41032 -0.0194253 0)
(7.41605 -0.0234012 0)
(7.33302 0.000724395 0)
(7.33328 0.00209635 0)
(7.33383 0.00333785 0)
(7.33461 0.00442759 0)
(7.33558 0.00535783 0)
(7.33672 0.00612634 0)
(7.338 0.00673416 0)
(7.33939 0.00718517 0)
(7.34088 0.00748488 0)
(7.34247 0.00763938 0)
(7.34413 0.00765485 0)
(7.34586 0.0075372 0)
(7.34766 0.00729187 0)
(7.34953 0.00692356 0)
(7.35148 0.00643582 0)
(7.3535 0.00583126 0)
(7.3556 0.00511131 0)
(7.35779 0.0042753 0)
(7.36009 0.00332059 0)
(7.36249 0.00224403 0)
(7.36502 0.00103778 0)
(7.3677 -0.000307538 0)
(7.37052 -0.00180435 0)
(7.37352 -0.0034684 0)
(7.37671 -0.00531888 0)
(7.3801 -0.00737861 0)
(7.3837 -0.00967421 0)
(7.38754 -0.0122362 0)
(7.39162 -0.0150988 0)
(7.39594 -0.0182999 0)
(7.40052 -0.0218803 0)
(7.40536 -0.0258864 0)
(7.41042 -0.0303517 0)
(7.33302 0.000638393 0)
(7.33326 0.00184164 0)
(7.33378 0.00292507 0)
(7.33451 0.00387051 0)
(7.33543 0.00467055 0)
(7.33651 0.00532208 0)
(7.33772 0.00582469 0)
(7.33904 0.00618036 0)
(7.34047 0.00639251 0)
(7.34197 0.00646512 0)
(7.34356 0.00640226 0)
(7.34521 0.00620777 0)
(7.34693 0.00588519 0)
(7.34871 0.00543729 0)
(7.35056 0.0048655 0)
(7.35249 0.00417036 0)
(7.35448 0.00335193 0)
(7.35656 0.00240662 0)
(7.35873 0.00133079 0)
(7.361 0.000116745 0)
(7.36338 -0.00124288 0)
(7.36588 -0.0027594 0)
(7.36851 -0.00444718 0)
(7.37129 -0.00632322 0)
(7.37423 -0.00840752 0)
(7.37733 -0.0107232 0)
(7.38061 -0.0132967 0)
(7.38408 -0.0161574 0)
(7.38773 -0.0193374 0)
(7.39157 -0.0228718 0)
(7.3956 -0.0267971 0)
(7.39982 -0.0311552 0)
(7.40419 -0.0359717 0)
(7.33302 0.000555077 0)
(7.33325 0.00159495 0)
(7.33373 0.0025246 0)
(7.33443 0.0033285 0)
(7.3353 0.0039994 0)
(7.33632 0.00453327 0)
(7.33747 0.00492819 0)
(7.33873 0.00518416 0)
(7.34009 0.00530248 0)
(7.34152 0.00528499 0)
(7.34303 0.00513366 0)
(7.3446 0.00485028 0)
(7.34624 0.00443663 0)
(7.34793 0.00389379 0)
(7.34969 0.00322113 0)
(7.3515 0.0024173 0)
(7.35339 0.00148232 0)
(7.35534 0.000409797 0)
(7.35737 -0.00080572 0)
(7.35948 -0.0021736 0)
(7.36169 -0.00370245 0)
(7.364 -0.00540465 0)
(7.36641 -0.00729505 0)
(7.36895 -0.00939095 0)
(7.3716 -0.0117123 0)
(7.37439 -0.0142816 0)
(7.37731 -0.0171238 0)
(7.38037 -0.0202661 0)
(7.38357 -0.0237379 0)
(7.3869 -0.0275702 0)
(7.39035 -0.0317947 0)
(7.39392 -0.0364475 0)
(7.39758 -0.0415467 0)
(7.33302 0.000473896 0)
(7.33324 0.00135493 0)
(7.3337 0.0021353 0)
(7.33436 0.00280219 0)
(7.33518 0.00334916 0)
(7.33615 0.00377205 0)
(7.33724 0.00406815 0)
(7.33843 0.00423604 0)
(7.33972 0.00427548 0)
(7.34108 0.00418648 0)
(7.3425 0.00396894 0)
(7.34398 0.00362252 0)
(7.34552 0.00314728 0)
(7.34711 0.00254305 0)
(7.34875 0.00180627 0)
(7.35045 0.000935568 0)
(7.35219 -7.63757e-05 0)
(7.354 -0.00123128 0)
(7.35587 -0.00253738 0)
(7.3578 -0.0040031 0)
(7.3598 -0.00564047 0)
(7.36189 -0.00746251 0)
(7.36406 -0.00948429 0)
(7.36631 -0.0117231 0)
(7.36866 -0.0141983 0)
(7.37109 -0.0169313 0)
(7.37363 -0.0199454 0)
(7.37625 -0.0232655 0)
(7.37896 -0.0269178 0)
(7.38175 -0.0309296 0)
(7.38461 -0.0353279 0)
(7.38754 -0.0401439 0)
(7.39049 -0.0453892 0)
(7.33302 0.000394224 0)
(7.33323 0.00111936 0)
(7.33367 0.00175251 0)
(7.3343 0.00228266 0)
(7.33508 0.00270318 0)
(7.33601 0.003009 0)
(7.33705 0.00319607 0)
(7.33819 0.00326157 0)
(7.33941 0.00320385 0)
(7.3407 0.00302116 0)
(7.34205 0.00271225 0)
(7.34345 0.00227424 0)
(7.3449 0.00170766 0)
(7.34639 0.00100978 0)
(7.34792 0.000178753 0)
(7.34948 -0.000790417 0)
(7.35109 -0.00190688 0)
(7.35275 -0.00317376 0)
(7.35445 -0.00459915 0)
(7.35619 -0.00619257 0)
(7.35799 -0.00796559 0)
(7.35984 -0.00993129 0)
(7.36175 -0.0121045 0)
(7.36371 -0.0145017 0)
(7.36573 -0.0171411 0)
(7.3678 -0.0200424 0)
(7.36993 -0.0232264 0)
(7.37211 -0.0267152 0)
(7.37433 -0.0305312 0)
(7.37657 -0.0346974 0)
(7.37884 -0.0392359 0)
(7.3811 -0.0441719 0)
(7.38335 -0.0495114 0)
(7.33302 0.000315645 0)
(7.33322 0.000888274 0)
(7.33364 0.00137987 0)
(7.33424 0.00178253 0)
(7.33499 0.00209075 0)
(7.33587 0.0023 0)
(7.33685 0.00240582 0)
(7.33793 0.00240338 0)
(7.33907 0.00228894 0)
(7.34028 0.00205988 0)
(7.34154 0.00171189 0)
(7.34284 0.00123832 0)
(7.34418 0.000639262 0)
(7.34555 -9.10466e-05 0)
(7.34695 -0.000953725 0)
(7.34837 -0.00195603 0)
(7.34983 -0.00310236 0)
(7.3513 -0.00440259 0)
(7.35281 -0.00586515 0)
(7.35434 -0.00749992 0)
(7.3559 -0.00931844 0)
(7.35749 -0.0113336 0)
(7.35911 -0.0135597 0)
(7.36075 -0.0160123 0)
(7.36242 -0.0187081 0)
(7.36411 -0.0216649 0)
(7.36581 -0.0249014 0)
(7.36753 -0.0284365 0)
(7.36924 -0.0322896 0)
(7.37093 -0.03648 0)
(7.37261 -0.0410254 0)
(7.37424 -0.0459467 0)
(7.3758 -0.0512452 0)
(7.33302 0.000236965 0)
(7.33321 0.000655365 0)
(7.33363 0.00100044 0)
(7.33421 0.00126529 0)
(7.33494 0.00144302 0)
(7.33579 0.0015283 0)
(7.33674 0.00151528 0)
(7.33777 0.0013982 0)
(7.33887 0.00117782 0)
(7.34002 0.000846293 0)
(7.3412 0.000398166 0)
(7.34242 -0.000163971 0)
(7.34366 -0.00085172 0)
(7.34492 -0.00166941 0)
(7.3462 -0.00262194 0)
(7.34749 -0.00371437 0)
(7.3488 -0.00495255 0)
(7.35011 -0.00634504 0)
(7.35142 -0.00790072 0)
(7.35275 -0.00962949 0)
(7.35407 -0.0115425 0)
(7.35541 -0.0136519 0)
(7.35674 -0.0159711 0)
(7.35807 -0.0185143 0)
(7.35939 -0.0212964 0)
(7.3607 -0.024333 0)
(7.36198 -0.02764 0)
(7.36324 -0.0312334 0)
(7.36446 -0.0351286 0)
(7.36562 -0.0393409 0)
(7.36671 -0.0438836 0)
(7.36772 -0.0487724 0)
(7.36862 -0.0540045 0)
(7.33302 0.000158734 0)
(7.33321 0.000429215 0)
(7.3336 0.000644602 0)
(7.33417 0.000802051 0)
(7.33486 0.000893035 0)
(7.33566 0.000913916 0)
(7.33655 0.000857723 0)
(7.33752 0.000717366 0)
(7.33854 0.000479285 0)
(7.3396 0.000138123 0)
(7.3407 -0.000309048 0)
(7.34181 -0.000864208 0)
(7.34294 -0.0015384 0)
(7.34407 -0.0023365 0)
(7.3452 -0.00326578 0)
(7.34633 -0.0043326 0)
(7.34746 -0.00554411 0)
(7.34857 -0.0069087 0)
(7.34968 -0.00843538 0)
(7.35077 -0.010134 0)
(7.35184 -0.0120151 0)
(7.35289 -0.0140901 0)
(7.35391 -0.0163711 0)
(7.3549 -0.0188706 0)
(7.35586 -0.0216018 0)
(7.35677 -0.0245782 0)
(7.35763 -0.0278133 0)
(7.35842 -0.0313202 0)
(7.35915 -0.0351116 0)
(7.35978 -0.0391996 0)
(7.36032 -0.0435944 0)
(7.36073 -0.0483084 0)
(7.36102 -0.0533361 0)
(7.33302 7.58505e-05 0)
(7.33322 0.000179812 0)
(7.33363 0.000229705 0)
(7.33421 0.000224098 0)
(7.3349 0.000162899 0)
(7.33571 3.65949e-05 0)
(7.33659 -0.00016108 0)
(7.33753 -0.000435427 0)
(7.33851 -0.000799078 0)
(7.33952 -0.00125501 0)
(7.34055 -0.00180804 0)
(7.34158 -0.0024693 0)
(7.34262 -0.00324066 0)
(7.34364 -0.00412896 0)
(7.34465 -0.00514174 0)
(7.34565 -0.00628618 0)
(7.34662 -0.00757003 0)
(7.34756 -0.00900164 0)
(7.34847 -0.0105898 0)
(7.34934 -0.0123437 0)
(7.35017 -0.0142733 0)
(7.35096 -0.0163891 0)
(7.3517 -0.018702 0)
(7.35238 -0.0212233 0)
(7.35299 -0.0239642 0)
(7.35353 -0.0269358 0)
(7.35399 -0.0301491 0)
(7.35435 -0.0336143 0)
(7.35461 -0.0373409 0)
(7.35475 -0.0413373 0)
(7.35475 -0.0456101 0)
(7.35461 -0.0501674 0)
(7.3543 -0.0550012 0)
(7.33302 -4.06715e-06 0)
(7.3332 -4.00573e-05 0)
(7.33359 -9.21082e-05 0)
(7.33414 -0.000158829 0)
(7.3348 -0.000246067 0)
(7.33555 -0.000370577 0)
(7.33638 -0.000546138 0)
(7.33726 -0.000785677 0)
(7.33816 -0.00109547 0)
(7.33909 -0.0014878 0)
(7.34003 -0.0019732 0)
(7.34096 -0.00255964 0)
(7.34187 -0.00325319 0)
(7.34276 -0.00406061 0)
(7.34363 -0.00498871 0)
(7.34446 -0.00604426 0)
(7.34524 -0.00723456 0)
(7.34598 -0.00856782 0)
(7.34668 -0.0100523 0)
(7.34731 -0.0116966 0)
(7.34788 -0.0135093 0)
(7.34839 -0.0154996 0)
(7.34881 -0.0176768 0)
(7.34916 -0.0200501 0)
(7.34941 -0.0226292 0)
(7.34957 -0.0254231 0)
(7.34962 -0.0284406 0)
(7.34955 -0.03169 0)
(7.34935 -0.0351786 0)
(7.34901 -0.0389131 0)
(7.34852 -0.0428978 0)
(7.34786 -0.0471393 0)
(7.34704 -0.0516286 0)
(7.33303 -0.00010261 0)
(7.33326 -0.000351027 0)
(7.33372 -0.00062573 0)
(7.33434 -0.0009192 0)
(7.33506 -0.00123704 0)
(7.33585 -0.0015807 0)
(7.33669 -0.00195732 0)
(7.33757 -0.00237769 0)
(7.33845 -0.00285231 0)
(7.33934 -0.00339103 0)
(7.34021 -0.00400353 0)
(7.34106 -0.00469915 0)
(7.34189 -0.00548633 0)
(7.34268 -0.00637341 0)
(7.34342 -0.00736863 0)
(7.34412 -0.00848015 0)
(7.34475 -0.00971632 0)
(7.34533 -0.0110849 0)
(7.34583 -0.0125934 0)
(7.34626 -0.01425 0)
(7.34661 -0.0160628 0)
(7.34687 -0.0180403 0)
(7.34703 -0.0201908 0)
(7.34709 -0.0225224 0)
(7.34703 -0.0250429 0)
(7.34686 -0.0277594 0)
(7.34655 -0.0306784 0)
(7.3461 -0.0338055 0)
(7.34549 -0.0371453 0)
(7.34473 -0.0407012 0)
(7.34378 -0.0444748 0)
(7.34264 -0.0484687 0)
(7.3413 -0.0526725 0)
(7.33301 -0.00018261 0)
(7.3332 -0.000523441 0)
(7.33361 -0.000799095 0)
(7.33418 -0.00102586 0)
(7.33485 -0.00123544 0)
(7.3356 -0.00144957 0)
(7.3364 -0.00168738 0)
(7.33723 -0.00196657 0)
(7.33807 -0.00230107 0)
(7.33889 -0.0027025 0)
(7.33969 -0.00318063 0)
(7.34046 -0.00374347 0)
(7.34118 -0.00439767 0)
(7.34185 -0.00514916 0)
(7.34246 -0.00600352 0)
(7.343 -0.00696624 0)
(7.34347 -0.00804364 0)
(7.34385 -0.00924382 0)
(7.34414 -0.0105739 0)
(7.34434 -0.0120402 0)
(7.34444 -0.0136495 0)
(7.34442 -0.0154084 0)
(7.34429 -0.0173233 0)
(7.34403 -0.0194009 0)
(7.34364 -0.0216474 0)
(7.34311 -0.0240685 0)
(7.34243 -0.0266696 0)
(7.34159 -0.0294553 0)
(7.34058 -0.0324292 0)
(7.3394 -0.0355941 0)
(7.33804 -0.0389512 0)
(7.33647 -0.0425032 0)
(7.33472 -0.0462401 0)
(7.33305 -0.00035397 0)
(7.33341 -0.00110979 0)
(7.33403 -0.00182514 0)
(7.33477 -0.00247131 0)
(7.33555 -0.00305813 0)
(7.33638 -0.003599 0)
(7.33721 -0.00411275 0)
(7.33804 -0.00462038 0)
(7.33884 -0.0051405 0)
(7.33962 -0.00568951 0)
(7.34036 -0.00628202 0)
(7.34105 -0.00693086 0)
(7.34168 -0.00764738 0)
(7.34224 -0.00844195 0)
(7.34274 -0.00932405 0)
(7.34315 -0.0103027 0)
(7.34348 -0.0113863 0)
(7.34372 -0.0125803 0)
(7.34385 -0.0138907 0)
(7.34388 -0.015324 0)
(7.34379 -0.0168869 0)
(7.34358 -0.0185857 0)
(7.34323 -0.0204259 0)
(7.34274 -0.0224129 0)
(7.34211 -0.0245512 0)
(7.34131 -0.0268446 0)
(7.34034 -0.029296 0)
(7.3392 -0.0319075 0)
(7.33787 -0.0346801 0)
(7.33635 -0.0376137 0)
(7.33462 -0.0407069 0)
(7.33267 -0.0439585 0)
(7.3305 -0.0473583 0)
(7.333 -0.000377597 0)
(7.33321 -0.000966429 0)
(7.33374 -0.00136179 0)
(7.33446 -0.0016665 0)
(7.33525 -0.0019345 0)
(7.3361 -0.00218566 0)
(7.33696 -0.00244387 0)
(7.3378 -0.00272925 0)
(7.33862 -0.00305407 0)
(7.33938 -0.00342744 0)
(7.34009 -0.00385711 0)
(7.34074 -0.00434939 0)
(7.3413 -0.00490953 0)
(7.34179 -0.00554223 0)
(7.34218 -0.00625189 0)
(7.34247 -0.00704262 0)
(7.34265 -0.00791888 0)
(7.34271 -0.00888631 0)
(7.34265 -0.00995016 0)
(7.34246 -0.0111154 0)
(7.34213 -0.012387 0)
(7.34165 -0.0137698 0)
(7.34103 -0.0152684 0)
(7.34024 -0.0168876 0)
(7.3393 -0.0186314 0)
(7.33818 -0.0205037 0)
(7.33688 -0.0225077 0)
(7.33539 -0.0246462 0)
(7.33372 -0.0269209 0)
(7.33185 -0.0293331 0)
(7.32978 -0.0318825 0)
(7.3275 -0.03457 0)
(7.32501 -0.037387 0)
(7.33314 -0.000931548 0)
(7.33387 -0.00266622 0)
(7.33479 -0.00397885 0)
(7.33568 -0.00497641 0)
(7.33656 -0.005764 0)
(7.33743 -0.0063918 0)
(7.33826 -0.00691502 0)
(7.33905 -0.00738111 0)
(7.33979 -0.0078229 0)
(7.34047 -0.00826512 0)
(7.34109 -0.00872734 0)
(7.34164 -0.00922479 0)
(7.34211 -0.00976962 0)
(7.34248 -0.0103719 0)
(7.34277 -0.0110403 0)
(7.34295 -0.0117824 0)
(7.34301 -0.0126048 0)
(7.34295 -0.0135133 0)
(7.34277 -0.0145129 0)
(7.34244 -0.015608 0)
(7.34197 -0.0168027 0)
(7.34135 -0.0181007 0)
(7.34055 -0.0195048 0)
(7.33959 -0.0210175 0)
(7.33844 -0.0226403 0)
(7.3371 -0.0243742 0)
(7.33556 -0.0262191 0)
(7.33381 -0.0281743 0)
(7.33185 -0.0302382 0)
(7.32966 -0.0324083 0)
(7.32724 -0.0346808 0)
(7.32458 -0.0370526 0)
(7.32168 -0.0395138 0)
(7.33305 -0.000418404 0)
(7.33375 -0.00102459 0)
(7.33496 -0.00143628 0)
(7.33618 -0.00181356 0)
(7.33738 -0.00215055 0)
(7.33854 -0.00245617 0)
(7.33964 -0.00275812 0)
(7.34065 -0.00306613 0)
(7.34159 -0.00338416 0)
(7.34245 -0.00371817 0)
(7.34322 -0.00407374 0)
(7.3439 -0.00445532 0)
(7.34449 -0.004867 0)
(7.34498 -0.00531262 0)
(7.34537 -0.00579579 0)
(7.34565 -0.00632 0)
(7.34582 -0.00688876 0)
(7.34587 -0.00750574 0)
(7.34579 -0.00817467 0)
(7.34559 -0.00889937 0)
(7.34525 -0.00968367 0)
(7.34479 -0.0105314 0)
(7.34418 -0.0114464 0)
(7.34344 -0.0124323 0)
(7.34256 -0.0134927 0)
(7.34153 -0.0146308 0)
(7.34037 -0.0158496 0)
(7.33907 -0.0171513 0)
(7.33763 -0.0185379 0)
(7.33605 -0.0200107 0)
(7.33434 -0.0215699 0)
(7.3325 -0.0232172 0)
(7.33054 -0.024945 0)
(7.3344 -0.00364709 0)
(7.33929 -0.00694878 0)
(7.34516 -0.00840991 0)
(7.35156 -0.00940193 0)
(7.35836 -0.010021 0)
(7.36534 -0.0103852 0)
(7.37236 -0.010644 0)
(7.37938 -0.0108628 0)
(7.38637 -0.0110711 0)
(7.3933 -0.0112919 0)
(7.40015 -0.0115408 0)
(7.40693 -0.0118276 0)
(7.41363 -0.0121598 0)
(7.42027 -0.0125434 0)
(7.42683 -0.0129836 0)
(7.43334 -0.0134852 0)
(7.4398 -0.0140525 0)
(7.44623 -0.0146896 0)
(7.45262 -0.0154001 0)
(7.45901 -0.0161873 0)
(7.46538 -0.0170542 0)
(7.47175 -0.0180032 0)
(7.47813 -0.0190362 0)
(7.48452 -0.0201548 0)
(7.49091 -0.0213596 0)
(7.49731 -0.0226509 0)
(7.50371 -0.0240281 0)
(7.51011 -0.02549 0)
(7.51648 -0.0270352 0)
(7.52281 -0.028661 0)
(7.52909 -0.0303654 0)
(7.5353 -0.0321444 0)
(7.5414 -0.033995 0)
(7.32973 -0.00403568 0)
(7.32421 -0.00850051 0)
(7.31498 -0.0111644 0)
(7.30382 -0.0131929 0)
(7.29213 -0.0147119 0)
(7.28004 -0.0158471 0)
(7.26762 -0.0167491 0)
(7.25506 -0.0175047 0)
(7.2424 -0.0181656 0)
(7.22969 -0.0187715 0)
(7.21691 -0.0193522 0)
(7.20408 -0.0199301 0)
(7.19116 -0.0205226 0)
(7.17815 -0.0211446 0)
(7.16501 -0.0218086 0)