/*--------------------------------*- C++ -*----------------------------------*\
  =========                 |
  \\      /  F ield         | OpenFOAM: The Open Source CFD Toolbox
   \\    /   O peration     | Website:  https://openfoam.org
    \\  /    A nd           | Version:  10
     \\/     M anipulation  |
\*---------------------------------------------------------------------------*/
FoamFile
{
    format      ascii;
    class       volScalarField;
    location    "0.125";
    object      nut;
}
// * * * * * * * * * * * * * * * * * * * * * * * * * * * * * * * * * * * * * //

dimensions      [0 2 -1 0 0 0 0];

internalField   nonuniform List<scalar> 
6820
(
0.000503208
0.000397082
0.000324533
0.000269408
0.000236561
0.000214199
0.000197609
0.000184922
0.000174676
0.000166077
0.000158675
0.000152179
0.00014639
0.00014117
0.00013642
0.000132061
0.000128035
0.000124296
0.000120807
0.000117539
0.000114468
0.000111573
0.000108836
0.000106242
0.000103786
0.000101455
9.92395e-05
9.7143e-05
9.51436e-05
9.33089e-05
9.14917e-05
9.00223e-05
8.76877e-05
8.1848e-05
0.000143715
0.000196402
0.000210822
0.000206406
0.000197561
0.000187321
0.000177442
0.000168512
0.000160515
0.000153349
0.000146897
0.000141049
0.000135716
0.000130825
0.000126316
0.000122139
0.000118252
0.000114621
0.000111215
0.000108009
0.000104982
0.000102116
9.93949e-05
9.68002e-05
9.43241e-05
9.19552e-05
8.96786e-05
8.74936e-05
8.53445e-05
8.32831e-05
8.10234e-05
7.89527e-05
3.85908e-05
2.73976e-05
4.30268e-05
7.44226e-05
9.58108e-05
0.000109156
0.00011639
0.00011968
0.000120602
0.000120061
0.000118613
0.000116612
0.000114275
0.000111748
0.000109123
0.000106461
0.000103802
0.000101172
9.85901e-05
9.60656e-05
9.36054e-05
9.12128e-05
8.88888e-05
8.6634e-05
8.44454e-05
8.23205e-05
8.02557e-05
7.82434e-05
7.62748e-05
7.43267e-05
7.23831e-05
7.03379e-05
6.82958e-05
1.99671e-05
2.35325e-05
2.20807e-05
1.28133e-05
2.92073e-06
1.23444e-05
2.2829e-05
3.14441e-05
3.83733e-05
4.38699e-05
4.81758e-05
5.15052e-05
5.40332e-05
5.58976e-05
5.72185e-05
5.80941e-05
5.86046e-05
5.88162e-05
5.87828e-05
5.85492e-05
5.81517e-05
5.76205e-05
5.698e-05
5.62505e-05
5.54484e-05
5.4586e-05
5.36734e-05
5.27155e-05
5.17157e-05
5.06685e-05
4.9565e-05
4.84083e-05
4.72296e-05
1.32433e-05
1.50891e-05
1.99385e-05
2.2032e-05
2.14818e-05
1.95446e-05
1.69302e-05
1.40062e-05
1.09892e-05
8.00791e-06
5.14583e-06
2.47416e-06
5.89472e-07
2.46822e-06
4.50502e-06
6.34361e-06
7.97715e-06
9.41387e-06
1.06659e-05
1.17467e-05
1.26701e-05
1.34495e-05
1.40978e-05
1.46268e-05
1.50473e-05
1.53686e-05
1.55984e-05
1.57435e-05
1.58077e-05
1.57972e-05
1.57203e-05
1.56036e-05
1.54887e-05
1.01888e-05
1.103e-05
1.18599e-05
1.266e-05
1.32926e-05
1.38316e-05
1.4223e-05
1.4433e-05
1.44745e-05
1.437e-05
1.41419e-05
1.38135e-05
1.34075e-05
1.29385e-05
1.24255e-05
1.18844e-05
1.13287e-05
1.07697e-05
1.02164e-05
9.67582e-06
9.15349e-06
8.65346e-06
8.17869e-06
7.73122e-06
7.31261e-06
6.92406e-06
6.56606e-06
6.23923e-06
5.94201e-06
5.67151e-06
5.41757e-06
5.14913e-06
4.84764e-06
7.5321e-06
8.26202e-06
8.69398e-06
8.93207e-06
8.83085e-06
8.6286e-06
8.46864e-06
8.38189e-06
8.36156e-06
8.38293e-06
8.41897e-06
8.45104e-06
8.4694e-06
8.47233e-06
8.4571e-06
8.42267e-06
8.36957e-06
8.29909e-06
8.21289e-06
8.11285e-06
8.00088e-06
7.87888e-06
7.7487e-06
7.61205e-06
7.47057e-06
7.32572e-06
7.17842e-06
7.02923e-06
6.87684e-06
6.71845e-06
6.54719e-06
6.34713e-06
6.1064e-06
5.74821e-06
6.62375e-06
7.02979e-06
7.14567e-06
6.89688e-06
6.53878e-06
6.21264e-06
5.94291e-06
5.72791e-06
5.55825e-06
5.42169e-06
5.30852e-06
5.21158e-06
5.1255e-06
5.04676e-06
4.973e-06
4.90235e-06
4.83329e-06
4.76468e-06
4.69576e-06
4.626e-06
4.55512e-06
4.48297e-06
4.40951e-06
4.33471e-06
4.25848e-06
4.18035e-06
4.09928e-06
4.01326e-06
3.91798e-06
3.80676e-06
3.66735e-06
3.48964e-06
4.47273e-06
5.26091e-06
5.56866e-06
5.72714e-06
5.6488e-06
5.44433e-06
5.20472e-06
4.96448e-06
4.74299e-06
4.54818e-06
4.37835e-06
4.22916e-06
4.09661e-06
3.97743e-06
3.86903e-06
3.7693e-06
3.67663e-06
3.58978e-06
3.5078e-06
3.42997e-06
3.35571e-06
3.28451e-06
3.21594e-06
3.14953e-06
3.08476e-06
3.02091e-06
2.95688e-06
2.89091e-06
2.82024e-06
2.74026e-06
2.64566e-06
2.5288e-06
2.38294e-06
3.54226e-06
4.25068e-06
4.54406e-06
4.71337e-06
4.68353e-06
4.52648e-06
4.33042e-06
4.13434e-06
3.95492e-06
3.79684e-06
3.6576e-06
3.53344e-06
3.42136e-06
3.31904e-06
3.2247e-06
3.13704e-06
3.05512e-06
2.97821e-06
2.90567e-06
2.83698e-06
2.77165e-06
2.70924e-06
2.6493e-06
2.59131e-06
2.53465e-06
2.47846e-06
2.42151e-06
2.36196e-06
2.29736e-06
2.22438e-06
2.13911e-06
2.03737e-06
1.91492e-06
2.85051e-06
3.47256e-06
3.74776e-06
3.90569e-06
3.9121e-06
3.81249e-06
3.67138e-06
3.51922e-06
3.37068e-06
3.23303e-06
3.10791e-06
2.99466e-06
2.89207e-06
2.79879e-06
2.7135e-06
2.63507e-06
2.56253e-06
2.49504e-06
2.4319e-06
2.37252e-06
2.31635e-06
2.2629e-06
2.21166e-06
2.16207e-06
2.11344e-06
2.06489e-06
2.01523e-06
1.96294e-06
1.90609e-06
1.84238e-06
1.76952e-06
1.68644e-06
1.59155e-06
2.32275e-06
2.8641e-06
3.13706e-06
3.30004e-06
3.33909e-06
3.27857e-06
3.16823e-06
3.03889e-06
2.90785e-06
2.78437e-06
2.67147e-06
2.56918e-06
2.47662e-06
2.39266e-06
2.31613e-06
2.24602e-06
2.18146e-06
2.12174e-06
2.06623e-06
2.01438e-06
1.96568e-06
1.91963e-06
1.8757e-06
1.83333e-06
1.79183e-06
1.7504e-06
1.70804e-06
1.6636e-06
1.61579e-06
1.56346e-06
1.50583e-06
1.444e-06
1.3783e-06
1.91033e-06
2.38322e-06
2.65729e-06
2.82378e-06
2.88315e-06
2.85292e-06
2.77275e-06
2.67048e-06
2.56189e-06
2.45569e-06
2.35562e-06
2.2629e-06
2.17771e-06
2.09975e-06
2.02847e-06
1.96323e-06
1.90343e-06
1.84846e-06
1.79777e-06
1.75083e-06
1.70713e-06
1.66617e-06
1.62745e-06
1.5904e-06
1.55443e-06
1.51886e-06
1.48298e-06
1.44604e-06
1.40743e-06
1.36693e-06
1.32486e-06
1.28362e-06
1.24463e-06
1.58048e-06
1.99793e-06
2.27448e-06
2.44838e-06
2.52672e-06
2.5231e-06
2.46803e-06
2.38624e-06
2.29328e-06
2.19863e-06
2.10732e-06
2.02165e-06
1.94249e-06
1.86994e-06
1.80369e-06
1.74326e-06
1.68811e-06
1.63771e-06
1.59154e-06
1.54912e-06
1.50998e-06
1.47365e-06
1.43968e-06
1.40759e-06
1.37689e-06
1.34711e-06
1.31781e-06
1.28865e-06
1.25957e-06
1.23101e-06
1.20398e-06
1.18133e-06
1.16474e-06
1.31076e-06
1.68585e-06
1.9655e-06
2.14814e-06
2.24165e-06
2.25864e-06
2.22397e-06
2.1602e-06
2.08243e-06
2.00011e-06
1.9186e-06
1.84065e-06
1.7676e-06
1.69996e-06
1.63779e-06
1.58087e-06
1.52889e-06
1.48149e-06
1.43826e-06
1.3988e-06
1.36272e-06
1.32961e-06
1.29908e-06
1.27076e-06
1.2443e-06
1.21941e-06
1.19589e-06
1.17376e-06
1.15329e-06
1.13531e-06
1.12106e-06
1.11323e-06
1.11327e-06
1.08555e-06
1.43045e-06
1.71359e-06
1.90575e-06
2.01302e-06
2.04801e-06
2.03152e-06
1.98367e-06
1.91881e-06
1.84638e-06
1.77222e-06
1.69973e-06
1.63085e-06
1.56655e-06
1.50718e-06
1.45277e-06
1.40317e-06
1.35811e-06
1.31725e-06
1.28026e-06
1.24679e-06
1.21652e-06
1.18911e-06
1.16431e-06
1.14186e-06
1.12164e-06
1.10364e-06
1.08807e-06
1.07538e-06
1.06651e-06
1.06264e-06
1.06597e-06
1.07757e-06
8.93753e-07
1.21969e-06
1.50715e-06
1.70902e-06
1.8287e-06
1.87888e-06
1.87771e-06
1.8434e-06
1.78976e-06
1.72625e-06
1.65902e-06
1.59189e-06
1.52713e-06
1.466e-06
1.40912e-06
1.35673e-06
1.30883e-06
1.26528e-06
1.22587e-06
1.19037e-06
1.15851e-06
1.13004e-06
1.10473e-06
1.08241e-06
1.06294e-06
1.0463e-06
1.03259e-06
1.02212e-06
1.01538e-06
1.01322e-06
1.01661e-06
1.02719e-06
1.04565e-06
7.27458e-07
1.04496e-06
1.33789e-06
1.54925e-06
1.68029e-06
1.74382e-06
1.75621e-06
1.73403e-06
1.69046e-06
1.63485e-06
1.57353e-06
1.51066e-06
1.4489e-06
1.38984e-06
1.3344e-06
1.28304e-06
1.23593e-06
1.19308e-06
1.15439e-06
1.11971e-06
1.08884e-06
1.06161e-06
1.03785e-06
1.01745e-06
1.00036e-06
9.86596e-07
9.76314e-07
9.69808e-07
9.67521e-07
9.70116e-07
9.78311e-07
9.93185e-07
1.01525e-06
5.81158e-07
9.00445e-07
1.20014e-06
1.42044e-06
1.56185e-06
1.63706e-06
1.66123e-06
1.64956e-06
1.61463e-06
1.56571e-06
1.50931e-06
1.4499e-06
1.39044e-06
1.3328e-06
1.27813e-06
1.22708e-06
1.18e-06
1.13702e-06
1.09816e-06
1.06333e-06
1.03246e-06
1.00543e-06
9.82137e-07
9.62532e-07
9.46596e-07
9.34389e-07
9.26049e-07
9.21822e-07
9.22042e-07
9.27177e-07
9.37694e-07
9.54239e-07
9.77196e-07
4.51632e-07
7.82826e-07
1.09016e-06
1.31858e-06
1.46932e-06
1.55487e-06
1.58945e-06
1.58718e-06
1.56006e-06
1.51722e-06
1.46529e-06
1.40895e-06
1.35139e-06
1.29474e-06
1.24038e-06
1.18916e-06
1.14157e-06
1.09789e-06
1.05823e-06
1.02263e-06
9.91066e-07
9.635e-07
9.3989e-07
9.20214e-07
9.04483e-07
8.92751e-07
8.85128e-07
8.81783e-07
8.82933e-07
8.88861e-07
8.99836e-07
9.1615e-07
9.38199e-07
3.38897e-07
6.91185e-07
1.00586e-06
1.24112e-06
1.39995e-06
1.49441e-06
1.53791e-06
1.54358e-06
1.52288e-06
1.48478e-06
1.43597e-06
1.38134e-06
1.32434e-06
1.26735e-06
1.21197e-06
1.15924e-06
1.10982e-06
1.06412e-06
1.02238e-06
9.84704e-07
9.51162e-07
9.21772e-07
8.96541e-07
8.75474e-07
8.58594e-07
8.45941e-07
8.37581e-07
8.3361e-07
8.34138e-07
8.39298e-07
8.49205e-07
8.63914e-07
8.83805e-07
2.49881e-07
6.26859e-07
9.46494e-07
1.18689e-06
1.35255e-06
1.45487e-06
1.50639e-06
1.51942e-06
1.50486e-06
1.47151e-06
1.42608e-06
1.37356e-06
1.31758e-06
1.26067e-06
1.2046e-06
1.15056e-06
1.09936e-06
1.05151e-06
1.00735e-06
9.67094e-07
9.30883e-07
8.98804e-07
8.70918e-07
8.47273e-07
8.27914e-07
8.12884e-07
8.02228e-07
7.95995e-07
7.94225e-07
7.96949e-07
8.04191e-07
8.15819e-07
8.32316e-07
2.06124e-07
5.92724e-07
9.12179e-07
1.15524e-06
1.32593e-06
1.43432e-06
1.49191e-06
1.51021e-06
1.49958e-06
1.46865e-06
1.42419e-06
1.37133e-06
1.31393e-06
1.25473e-06
1.19571e-06
1.13824e-06
1.08325e-06
1.0314e-06
9.83116e-07
9.3868e-07
8.98292e-07
8.62089e-07
8.30172e-07
8.02616e-07
7.79485e-07
7.60826e-07
7.46677e-07
7.3706e-07
7.31977e-07
7.31404e-07
7.35305e-07
7.43464e-07
7.56341e-07
2.32344e-07
5.91851e-07
9.04055e-07
1.14732e-06
1.32198e-06
1.43615e-06
1.50017e-06
1.52466e-06
1.51944e-06
1.49278e-06
1.45133e-06
1.40024e-06
1.34339e-06
1.28366e-06
1.22312e-06
1.16327e-06
1.10518e-06
1.04959e-06
9.97033e-07
9.47894e-07
9.02448e-07
8.60906e-07
8.23433e-07
7.90168e-07
7.61227e-07
7.36712e-07
7.16706e-07
7.01269e-07
6.90435e-07
6.84193e-07
6.8253e-07
6.85175e-07
6.92738e-07
3.15473e-07
6.25308e-07
9.22715e-07
1.16257e-06
1.33816e-06
1.45468e-06
1.52104e-06
1.54709e-06
1.54223e-06
1.51471e-06
1.47125e-06
1.4172e-06
1.35664e-06
1.2926e-06
1.22733e-06
1.16241e-06
1.09899e-06
1.03786e-06
9.79591e-07
9.24569e-07
8.73083e-07
8.25354e-07
7.81559e-07
7.4186e-07
7.06404e-07
6.75343e-07
6.4882e-07
6.26972e-07
6.09916e-07
5.97729e-07
5.90474e-07
5.87968e-07
5.9077e-07
4.30482e-07
6.92392e-07
9.70787e-07
1.2064e-06
1.38433e-06
1.50641e-06
1.57978e-06
1.61305e-06
1.61474e-06
1.59251e-06
1.55277e-06
1.50076e-06
1.44057e-06
1.37537e-06
1.30754e-06
1.23888e-06
1.17067e-06
1.10388e-06
1.03919e-06
9.77089e-07
9.17936e-07
8.62001e-07
8.09502e-07
7.60629e-07
7.15567e-07
6.74513e-07
6.37685e-07
6.05325e-07
5.77697e-07
5.55057e-07
5.37689e-07
5.25598e-07
5.19635e-07
5.67397e-07
7.90953e-07
1.04702e-06
1.27301e-06
1.44581e-06
1.56375e-06
1.63271e-06
1.66105e-06
1.65742e-06
1.62968e-06
1.58445e-06
1.52705e-06
1.46161e-06
1.39129e-06
1.31841e-06
1.24467e-06
1.17129e-06
1.09915e-06
1.02885e-06
9.60825e-07
8.95363e-07
8.3268e-07
7.72939e-07
7.16287e-07
6.62875e-07
6.12886e-07
5.66558e-07
5.24205e-07
4.86233e-07
4.53147e-07
4.25553e-07
4.03986e-07
3.89514e-07
7.25412e-07
9.21775e-07
1.16016e-06
1.38399e-06
1.56394e-06
1.69379e-06
1.77619e-06
1.8172e-06
1.82398e-06
1.8036e-06
1.76248e-06
1.70615e-06
1.63912e-06
1.56501e-06
1.4866e-06
1.40602e-06
1.32481e-06
1.24411e-06
1.16471e-06
1.08713e-06
1.01174e-06
9.38751e-07
8.68297e-07
8.00457e-07
7.3529e-07
6.7286e-07
6.13264e-07
5.56664e-07
5.03329e-07
4.53673e-07
4.0834e-07
3.6816e-07
3.34727e-07
9.0831e-07
1.08475e-06
1.29984e-06
1.5042e-06
1.66506e-06
1.77569e-06
1.8401e-06
1.86581e-06
1.8607e-06
1.83178e-06
1.78498e-06
1.72511e-06
1.65597e-06
1.58054e-06
1.5011e-06
1.41941e-06
1.33677e-06
1.25417e-06
1.17233e-06
1.09175e-06
1.01278e-06
9.35649e-07
8.60474e-07
7.87315e-07
7.16184e-07
6.47065e-07
5.79933e-07
5.14771e-07
4.51591e-07
3.90457e-07
3.31524e-07
2.75175e-07
2.2191e-07
1.12244e-06
1.2903e-06
1.50425e-06
1.72836e-06
1.92192e-06
2.06732e-06
2.16127e-06
2.20791e-06
2.21443e-06
2.18882e-06
2.13872e-06
2.07078e-06
1.99044e-06
1.90198e-06
1.80865e-06
1.71284e-06
1.61629e-06
1.52019e-06
1.42535e-06
1.33231e-06
1.24139e-06
1.15275e-06
1.06648e-06
9.82561e-07
9.00962e-07
8.21611e-07
7.44428e-07
6.69328e-07
5.96235e-07
5.25057e-07
4.55742e-07
3.8821e-07
3.22205e-07
1.37903e-06
1.53584e-06
1.70894e-06
1.87587e-06
2.00896e-06
2.10281e-06
2.16094e-06
2.1884e-06
2.18956e-06
2.16825e-06
2.1281e-06
2.0726e-06
2.00496e-06
1.92811e-06
1.84463e-06
1.7567e-06
1.66613e-06
1.57439e-06
1.48259e-06
1.39158e-06
1.30199e-06
1.21423e-06
1.1286e-06
1.04529e-06
9.64395e-07
8.86006e-07
8.10182e-07
7.37002e-07
6.66587e-07
5.99116e-07
5.34876e-07
4.74362e-07
4.17564e-07
1.69042e-06
1.86731e-06
2.1024e-06
2.37583e-06
2.61542e-06
2.784e-06
2.87899e-06
2.91184e-06
2.89631e-06
2.84527e-06
2.76954e-06
2.67741e-06
2.5749e-06
2.46627e-06
2.35446e-06
2.24147e-06
2.12868e-06
2.01702e-06
1.90714e-06
1.79947e-06
1.69433e-06
1.59194e-06
1.49245e-06
1.39597e-06
1.30258e-06
1.21237e-06
1.12541e-06
1.04182e-06
9.61741e-07
8.85335e-07
8.12893e-07
7.44544e-07
6.80714e-07
2.08692e-06
2.22202e-06
2.29636e-06
2.37469e-06
2.46642e-06
2.56357e-06
2.65375e-06
2.72495e-06
2.76863e-06
2.78136e-06
2.76416e-06
2.72063e-06
2.65554e-06
2.57383e-06
2.48005e-06
2.37808e-06
2.27111e-06
2.16162e-06
2.05148e-06
1.9421e-06
1.83447e-06
1.72931e-06
1.6271e-06
1.52817e-06
1.43274e-06
1.34101e-06
1.25311e-06
1.16922e-06
1.08955e-06
1.01441e-06
9.44149e-07
8.79432e-07
8.1975e-07
2.58839e-06
2.89336e-06
3.30916e-06
3.72777e-06
4.00525e-06
4.12887e-06
4.14474e-06
4.09323e-06
4.00048e-06
3.88349e-06
3.75233e-06
3.61247e-06
3.46702e-06
3.31808e-06
3.16729e-06
3.01612e-06
2.86598e-06
2.71814e-06
2.57376e-06
2.4338e-06
2.29901e-06
2.16997e-06
2.04709e-06
1.93062e-06
1.82068e-06
1.71732e-06
1.62052e-06
1.53021e-06
1.44636e-06
1.3689e-06
1.29791e-06
1.23347e-06
1.17567e-06
3.29197e-06
3.20203e-06
2.93064e-06
2.88806e-06
3.07419e-06
3.34372e-06
3.59067e-06
3.76709e-06
3.8625e-06
3.88836e-06
3.86455e-06
3.8107e-06
3.74269e-06
3.67189e-06
3.60539e-06
3.54686e-06
3.49759e-06
3.45732e-06
3.42501e-06
3.3993e-06
3.37875e-06
3.36208e-06
3.34815e-06
3.33604e-06
3.32497e-06
3.31431e-06
3.30357e-06
3.29232e-06
3.28032e-06
3.26747e-06
3.2539e-06
3.24108e-06
3.22725e-06
4.32694e-06
5.54701e-06
6.29871e-06
6.54231e-06
6.43668e-06
6.214e-06
6.06586e-06
6.07731e-06
6.25614e-06
6.56399e-06
6.94707e-06
7.35749e-06
7.76013e-06
8.1322e-06
8.46075e-06
8.73996e-06
8.96866e-06
9.14851e-06
9.28285e-06
9.3758e-06
9.43179e-06
9.45519e-06
9.45012e-06
9.42032e-06
9.36912e-06
9.29933e-06
9.21339e-06
9.11308e-06
9.00014e-06
8.87529e-06
8.74061e-06
8.59679e-06
8.4478e-06
5.65241e-06
3.59098e-06
2.7555e-06
4.60688e-06
7.32689e-06
9.90017e-06
1.20881e-05
1.38246e-05
1.51208e-05
1.60173e-05
1.65605e-05
1.67982e-05
1.67781e-05
1.65456e-05
1.61421e-05
1.56043e-05
1.49646e-05
1.42507e-05
1.34858e-05
1.26891e-05
1.18761e-05
1.10592e-05
1.0248e-05
9.44981e-06
8.67e-06
7.91222e-06
7.1788e-06
6.47036e-06
5.78736e-06
5.12624e-06
4.48996e-06
3.86352e-06
3.2682e-06
1.14448e-05
1.65074e-05
1.82645e-05
1.9765e-05
2.02198e-05
1.94496e-05
1.76765e-05
1.51783e-05
1.23219e-05
9.67986e-06
8.20378e-06
8.8163e-06
1.11328e-05
1.41691e-05
1.73603e-05
2.0462e-05
2.3368e-05
2.60332e-05
2.84424e-05
3.05962e-05
3.2504e-05
3.41796e-05
3.56391e-05
3.68995e-05
3.79775e-05
3.88893e-05
3.96505e-05
4.0276e-05
4.07812e-05
4.11812e-05
4.14968e-05
4.17471e-05
4.19846e-05
2.49021e-05
2.8676e-05
3.90467e-05
5.35241e-05
6.78346e-05
8.18145e-05
9.47254e-05
0.000105959
0.000115468
0.000123327
0.000129639
0.00013456
0.000138257
0.000140894
0.000142623
0.000143581
0.000143892
0.000143663
0.000142986
0.00014194
0.000140594
0.000139003
0.000137218
0.000135276
0.000133213
0.000131054
0.000128823
0.000126536
0.000124211
0.00012185
0.00011947
0.000117083
0.000114903
0.000543338
0.000510579
0.00049158
0.000467841
0.00044375
0.000421326
0.000399729
0.000379025
0.000359484
0.000341127
0.000323942
0.000307916
0.000293007
0.000279155
0.000266291
0.000254343
0.000243237
0.000232902
0.00022327
0.000214276
0.00020586
0.000197969
0.000190553
0.000183569
0.000176975
0.000170737
0.00016482
0.000159198
0.000153824
0.000148705
0.000143667
0.000139283
0.000135217
7.86498e-05
7.7845e-05
7.60899e-05
7.51154e-05
7.23942e-05
6.66531e-05
5.9286e-05
5.42803e-05
5.20205e-05
4.9351e-05
4.39562e-05
3.57886e-05
2.52347e-05
1.38351e-05
6.76452e-06
1.46061e-05
2.1927e-05
1.67265e-05
2.77079e-05
4.15264e-05
4.39997e-05
4.03515e-05
3.66375e-05
3.45205e-05
3.35033e-05
3.493e-05
3.80109e-05
4.43849e-05
5.06198e-05
4.65632e-05
3.67329e-05
2.92099e-05
2.57059e-05
2.36684e-05
2.12133e-05
1.79177e-05
1.432e-05
1.16736e-05
1.12518e-05
1.25734e-05
1.43438e-05
1.76048e-05
2.5462e-05
3.40549e-05
3.61685e-05
3.21972e-05
2.76309e-05
2.52929e-05
2.41679e-05
2.25625e-05
2.01677e-05
1.76719e-05
1.56208e-05
1.41743e-05
1.3373e-05
1.30819e-05
1.3155e-05
1.43775e-05
1.75501e-05
2.47984e-05
3.99703e-05
5.33027e-05
5.54074e-05
4.76759e-05
3.56823e-05
2.33591e-05
1.24528e-05
3.00353e-06
5.87735e-06
1.6627e-05
3.01191e-05
4.29047e-05
4.85166e-05
4.47136e-05
3.56018e-05
2.66365e-05
2.02117e-05
1.58733e-05
1.26453e-05
1.00498e-05
7.92943e-06
6.20733e-06
4.81527e-06
3.69097e-06
2.78473e-06
2.05993e-06
1.48881e-06
1.04871e-06
7.22648e-07
5.04432e-07
3.94753e-07
3.72635e-07
3.84626e-07
3.90508e-07
3.79727e-07
3.52034e-07
3.27142e-07
2.9797e-07
3.05914e-07
2.89143e-07
9.98047e-05
9.79215e-05
9.65701e-05
9.65792e-05
9.69762e-05
9.5518e-05
8.8877e-05
7.69148e-05
6.40976e-05
5.38921e-05
4.52487e-05
3.61208e-05
2.58609e-05
1.89182e-05
2.26137e-05
2.88034e-05
2.05299e-05
1.7024e-05
3.50976e-05
4.32851e-05
4.18477e-05
3.78257e-05
3.47967e-05
3.31627e-05
3.22846e-05
3.31032e-05
3.6161e-05
4.10595e-05
4.92192e-05
4.96961e-05
4.08371e-05
3.10378e-05
2.55706e-05
2.31121e-05
2.08687e-05
1.79041e-05
1.46938e-05
1.23e-05
1.16343e-05
1.23911e-05
1.36707e-05
1.78028e-05
2.75119e-05
3.58779e-05
3.64259e-05
3.16271e-05
2.73006e-05
2.53522e-05
2.42793e-05
2.2535e-05
2.00956e-05
1.76887e-05
1.57556e-05
1.43908e-05
1.36308e-05
1.33866e-05
1.34438e-05
1.44222e-05
1.74411e-05
2.37535e-05
3.8237e-05
5.34598e-05
5.7895e-05
5.13098e-05
3.93343e-05
2.64834e-05
1.4945e-05
5.88784e-06
7.71242e-06
1.85235e-05
3.25642e-05
4.51866e-05
4.97053e-05
4.46882e-05
3.50478e-05
2.62453e-05
2.01549e-05
1.60041e-05
1.28402e-05
1.02622e-05
8.1401e-06
6.40239e-06
4.98447e-06
3.82913e-06
2.89144e-06
2.13798e-06
1.54255e-06
1.08289e-06
7.41589e-07
5.12279e-07
3.97432e-07
3.76937e-07
3.93164e-07
4.02958e-07
3.94727e-07
3.6919e-07
3.45103e-07
3.18203e-07
3.26499e-07
3.09834e-07
8.86602e-05
8.89268e-05
8.95006e-05
9.11093e-05
9.36138e-05
9.6491e-05
9.80484e-05
9.50613e-05
8.58064e-05
7.26265e-05
5.93506e-05
4.80311e-05
4.08405e-05
3.95602e-05
3.83547e-05
2.64695e-05
1.04935e-05
2.82324e-05
4.09769e-05
4.23161e-05
3.87358e-05
3.51918e-05
3.28494e-05
3.15585e-05
3.09126e-05
3.11958e-05
3.37855e-05
3.77753e-05
4.57923e-05
5.10761e-05
4.57836e-05
3.49734e-05
2.63717e-05
2.22012e-05
1.98815e-05
1.73653e-05
1.46083e-05
1.23604e-05
1.12792e-05
1.12934e-05
1.25612e-05
1.93755e-05
3.09007e-05
3.79328e-05
3.63516e-05
3.08469e-05
2.69737e-05
2.54469e-05
2.43541e-05
2.24298e-05
1.99605e-05
1.76628e-05
1.58556e-05
1.45769e-05
1.38542e-05
1.36458e-05
1.37192e-05
1.44601e-05
1.71661e-05
2.26673e-05
3.59052e-05
5.26752e-05
5.99128e-05
5.51329e-05
4.36859e-05
3.07031e-05
1.9015e-05
1.08494e-05
1.1728e-05
2.17354e-05
3.59205e-05
4.79056e-05
5.08415e-05
4.43679e-05
3.42429e-05
2.57428e-05
2.00685e-05
1.6139e-05
1.30583e-05
1.05057e-05
8.3799e-06
6.61977e-06
5.16855e-06
3.97612e-06
3.00255e-06
2.21723e-06
1.59479e-06
1.1124e-06
7.51777e-07
5.06818e-07
3.84017e-07
3.67268e-07
3.92354e-07
4.10199e-07
4.07575e-07
3.86042e-07
3.63693e-07
3.39029e-07
3.4701e-07
3.30869e-07
6.18466e-05
6.29517e-05
6.46246e-05
6.72132e-05
7.06441e-05
7.47851e-05
7.91794e-05
8.25466e-05
8.27519e-05
7.84495e-05
7.05517e-05
6.15934e-05
5.33533e-05
4.31474e-05
2.61386e-05
6.2842e-06
2.45369e-05
3.85927e-05
4.15737e-05
3.87318e-05
3.51977e-05
3.26334e-05
3.08971e-05
2.98515e-05
2.94312e-05
2.95582e-05
3.13742e-05
3.47309e-05
4.12123e-05
4.98096e-05
5.0218e-05
4.13849e-05
3.02416e-05
2.23831e-05
1.82804e-05
1.55807e-05
1.30319e-05
1.07078e-05
9.02516e-06
8.6051e-06
1.24424e-05
2.34418e-05
3.52526e-05
3.95216e-05
3.55851e-05
2.98328e-05
2.66774e-05
2.55373e-05
2.43271e-05
2.22227e-05
1.97769e-05
1.76162e-05
1.59358e-05
1.47414e-05
1.40545e-05
1.38733e-05
1.39839e-05
1.45603e-05
1.68863e-05
2.16897e-05
3.32104e-05
5.09844e-05
6.1461e-05
5.92525e-05
4.88953e-05
3.61087e-05
2.44892e-05
1.69126e-05
1.72496e-05
2.63543e-05
4.01435e-05
5.08146e-05
5.16415e-05
4.36038e-05
3.31968e-05
2.51954e-05
1.99957e-05
1.62928e-05
1.33005e-05
1.07768e-05
8.64638e-06
6.85981e-06
5.3709e-06
4.13797e-06
3.12647e-06
2.30822e-06
1.65832e-06
1.15346e-06
7.74488e-07
5.15156e-07
3.85066e-07
3.70922e-07
4.02511e-07
4.26236e-07
4.27685e-07
4.09282e-07
3.88121e-07
3.65332e-07
3.7245e-07
3.56111e-07
2.08722e-05
2.21397e-05
2.39705e-05
2.66112e-05
3.01181e-05
3.43644e-05
3.90073e-05
4.34859e-05
4.68428e-05
4.77125e-05
4.5036e-05
3.86865e-05
2.7735e-05
1.16359e-05
8.84077e-06
2.70491e-05
3.77311e-05
3.99723e-05
3.75091e-05
3.43688e-05
3.2003e-05
3.02472e-05
2.89157e-05
2.80702e-05
2.78223e-05
2.80143e-05
2.91914e-05
3.19141e-05
3.65806e-05
4.55442e-05
5.16866e-05
4.81441e-05
3.78348e-05
2.68395e-05
1.86936e-05
1.34263e-05
9.56069e-06
6.09318e-06
3.47554e-06
7.01439e-06
1.70145e-05
3.02097e-05
3.96895e-05
4.00115e-05
3.4076e-05
2.8742e-05
2.64791e-05
2.55962e-05
2.41619e-05
2.19047e-05
1.95372e-05
1.75308e-05
1.5976e-05
1.48658e-05
1.42153e-05
1.40495e-05
1.42001e-05
1.46662e-05
1.65789e-05
2.08234e-05
3.0355e-05
4.81478e-05
6.19606e-05
6.31477e-05
5.46403e-05
4.25231e-05
3.12206e-05
2.40948e-05
2.4094e-05
3.23676e-05
4.51755e-05
5.37177e-05
5.19006e-05
4.23e-05
3.18979e-05
2.4589e-05
1.99078e-05
1.6444e-05
1.35533e-05
1.10654e-05
8.93003e-06
7.11368e-06
5.58348e-06
4.30727e-06
3.25581e-06
2.40297e-06
1.72393e-06
1.19441e-06
7.94347e-07
5.17484e-07
3.77532e-07
3.66848e-07
4.07836e-07
4.40192e-07
4.4791e-07
4.34228e-07
4.1532e-07
3.94999e-07
4.01416e-07
3.85502e-07
5.8607e-06
5.11744e-06
3.95668e-06
2.24114e-06
1.15051e-06
3.77841e-06
7.37207e-06
1.09521e-05
1.37655e-05
1.51488e-05
1.48976e-05
1.4228e-05
1.70655e-05
2.45539e-05
3.24734e-05
3.69098e-05
3.70566e-05
3.48244e-05
3.24562e-05
3.0693e-05
2.92551e-05
2.79703e-05
2.69503e-05
2.63209e-05
2.62018e-05
2.65295e-05
2.73588e-05
2.93527e-05
3.26721e-05
3.96101e-05
4.88637e-05
5.20205e-05
4.65378e-05
3.63151e-05
2.58205e-05
1.72062e-05
1.06005e-05
6.1108e-06
7.4046e-06
1.51442e-05
2.66749e-05
3.80392e-05
4.27441e-05
3.88604e-05
3.19928e-05
2.77815e-05
2.64099e-05
2.55581e-05
2.38228e-05
2.14844e-05
1.92544e-05
1.74139e-05
1.5982e-05
1.49547e-05
1.43417e-05
1.41804e-05
1.43652e-05
1.47773e-05
1.62767e-05
2.00101e-05
2.76212e-05
4.41799e-05
6.09064e-05
6.62375e-05
6.05502e-05
4.97862e-05
3.91393e-05
3.24114e-05
3.21658e-05
3.9629e-05
5.0744e-05
5.62273e-05
5.13357e-05
4.0389e-05
3.03964e-05
2.39637e-05
1.9823e-05
1.66056e-05
1.38257e-05
1.13766e-05
9.23423e-06
7.38456e-06
5.80994e-06
4.48816e-06
3.39503e-06
2.50609e-06
1.79637e-06
1.24091e-06
8.18919e-07
5.24439e-07
3.75775e-07
3.70282e-07
4.2105e-07
4.61613e-07
4.75097e-07
4.65759e-07
4.48821e-07
4.30748e-07
4.3622e-07
4.20583e-07
7.7045e-06
7.28599e-06
6.6312e-06
5.86892e-06
5.4832e-06
6.29045e-06
8.61233e-06
1.19529e-05
1.56879e-05
1.93306e-05
2.27201e-05
2.60036e-05
2.91738e-05
3.16561e-05
3.26873e-05
3.216e-05
3.08643e-05
2.96586e-05
2.87117e-05
2.7776e-05
2.67537e-05
2.57816e-05
2.50397e-05
2.46164e-05
2.45844e-05
2.50013e-05
2.57485e-05
2.7159e-05
2.95538e-05
3.40127e-05
4.26242e-05
5.06969e-05
5.20632e-05
4.6652e-05
3.79927e-05
2.94301e-05
2.2961e-05
2.00553e-05
2.19732e-05
2.8657e-05
3.7825e-05
4.41901e-05
4.29981e-05
3.60644e-05
2.981e-05
2.71638e-05
2.64216e-05
2.53273e-05
2.32948e-05
2.09832e-05
1.89378e-05
1.72654e-05
1.59529e-05
1.50064e-05
1.44324e-05
1.42664e-05
1.44685e-05
1.48706e-05
1.60121e-05
1.91945e-05
2.52456e-05
3.93941e-05
5.79516e-05
6.78417e-05
6.6032e-05
5.7505e-05
4.79839e-05
4.17333e-05
4.13118e-05
4.77779e-05
5.62926e-05
5.77904e-05
4.96676e-05
3.78776e-05
2.87724e-05
2.33456e-05
1.97447e-05
1.67799e-05
1.41191e-05
1.17107e-05
9.55942e-06
7.67346e-06
6.05174e-06
4.68207e-06
3.54505e-06
2.61772e-06
1.87483e-06
1.29075e-06
8.43833e-07
5.28159e-07
3.6734e-07
3.6749e-07
4.30616e-07
4.81727e-07
5.02844e-07
4.99171e-07
4.85149e-07
4.69744e-07
4.74539e-07
4.59495e-07
4.31784e-06
3.95545e-06
3.45413e-06
3.00997e-06
3.15137e-06
4.38469e-06
6.60089e-06
9.52282e-06
1.28869e-05
1.63654e-05
1.96218e-05
2.24198e-05
2.45613e-05
2.58656e-05
2.64121e-05
2.65263e-05
2.64642e-05
2.62417e-05
2.5788e-05
2.51261e-05
2.43795e-05
2.3694e-05
2.31894e-05
2.29335e-05
2.29702e-05
2.34068e-05
2.41811e-05
2.53028e-05
2.7054e-05
2.98112e-05
3.55853e-05
4.44854e-05
5.13147e-05
5.24657e-05
4.87939e-05
4.31801e-05
3.83021e-05
3.60689e-05
3.73672e-05
4.16893e-05
4.61348e-05
4.60412e-05
3.99734e-05
3.24171e-05
2.81364e-05
2.69599e-05
2.63477e-05
2.48129e-05
2.25983e-05
2.04309e-05
1.85971e-05
1.70888e-05
1.58917e-05
1.50224e-05
1.44873e-05
1.43109e-05
1.45067e-05
1.49235e-05
1.58049e-05
1.8376e-05
2.3291e-05
3.43456e-05
5.29723e-05
6.71592e-05
7.01435e-05
6.48997e-05
5.71755e-05
5.16424e-05
5.10728e-05
5.60815e-05
6.09284e-05
5.77395e-05
4.6702e-05
3.48793e-05
2.71308e-05
2.27614e-05
1.96831e-05
1.69746e-05
1.44379e-05
1.20705e-05
9.90798e-06
7.98314e-06
6.31186e-06
4.8918e-06
3.70821e-06
2.73961e-06
1.96071e-06
1.34544e-06
8.71489e-07
5.33114e-07
3.60256e-07
3.68967e-07
4.46185e-07
5.08277e-07
5.37048e-07
5.38895e-07
5.27578e-07
5.14459e-07
5.18314e-07
5.03278e-07
2.91309e-06
2.63987e-06
2.32953e-06
2.22229e-06
2.72684e-06
3.9706e-06
5.78523e-06
8.01412e-06
1.05289e-05
1.31933e-05
1.57977e-05
1.80941e-05
1.99587e-05
2.13897e-05
2.24268e-05
2.30844e-05
2.33737e-05
2.33434e-05
2.30741e-05
2.26537e-05
2.21708e-05
2.172e-05
2.13941e-05
2.12639e-05
2.13675e-05
2.17888e-05
2.2565e-05
2.35994e-05
2.50065e-05
2.68778e-05
3.01022e-05
3.64683e-05
4.4668e-05
5.07179e-05
5.27144e-05
5.1606e-05
4.94531e-05
4.81178e-05
4.82825e-05
4.91615e-05
4.80521e-05
4.26421e-05
3.48492e-05
2.92714e-05
2.73684e-05
2.69664e-05
2.59523e-05
2.39886e-05
2.17914e-05
1.9858e-05
1.82396e-05
1.68868e-05
1.58001e-05
1.50031e-05
1.45039e-05
1.43155e-05
1.44808e-05
1.49116e-05
1.56407e-05
1.76085e-05
2.16565e-05
2.97194e-05
4.63097e-05
6.35329e-05
7.17077e-05
7.07739e-05
6.56757e-05
6.12433e-05
6.04996e-05
6.33189e-05
6.34653e-05
5.54544e-05
4.24598e-05
3.16312e-05
2.55769e-05
2.22288e-05
1.96455e-05
1.71948e-05
1.47849e-05
1.24581e-05
1.02826e-05
8.31665e-06
6.59316e-06
5.11955e-06
3.88592e-06
2.87243e-06
2.05422e-06
1.40458e-06
9.00508e-07
5.35916e-07
3.475e-07
3.66226e-07
4.60339e-07
5.35481e-07
5.73477e-07
5.81914e-07
5.74046e-07
5.63426e-07
5.66508e-07
5.51296e-07
2.34657e-06
2.16774e-06
2.03146e-06
2.14884e-06
2.7439e-06
3.8432e-06
5.35156e-06
7.16956e-06
9.19786e-06
1.13262e-05
1.34227e-05
1.53883e-05
1.71231e-05
1.85344e-05
1.95679e-05
2.0237e-05
2.05987e-05
2.0714e-05
2.0635e-05
2.04159e-05
2.01253e-05
1.98456e-05
1.96581e-05
1.96267e-05
1.97916e-05
2.02036e-05
2.09311e-05
2.19199e-05
2.31784e-05
2.47022e-05
2.66262e-05
3.00591e-05
3.59788e-05
4.28735e-05
4.82038e-05
5.09323e-05
5.16019e-05
5.12847e-05
5.03202e-05
4.8002e-05
4.30215e-05
3.59766e-05
3.01306e-05
2.76862e-05
2.73184e-05
2.67237e-05
2.50757e-05
2.29316e-05
2.09495e-05
1.92866e-05
1.78695e-05
1.66616e-05
1.56798e-05
1.49489e-05
1.44804e-05
1.42806e-05
1.43978e-05
1.48199e-05
1.54813e-05
1.69545e-05
2.02129e-05
2.60122e-05
3.89019e-05
5.6836e-05
6.95993e-05
7.3599e-05
7.1919e-05
6.90473e-05
6.8013e-05
6.77802e-05
6.26606e-05
5.06468e-05
3.72907e-05
2.845e-05
2.41864e-05
2.17576e-05
1.96391e-05
1.74458e-05
1.51641e-05
1.28773e-05
1.06873e-05
8.67804e-06
6.89907e-06
5.36796e-06
4.07994e-06
3.0174e-06
2.15604e-06
1.46867e-06
9.31543e-07
5.37934e-07
3.32462e-07
3.65652e-07
4.79494e-07
5.6867e-07
6.16259e-07
6.31315e-07
6.26782e-07
6.18252e-07
6.20359e-07
6.04285e-07
1.97871e-06
1.9001e-06
1.91287e-06
2.16594e-06
2.7712e-06
3.73495e-06
5.0055e-06
6.5178e-06
8.1996e-06
9.97118e-06
1.17421e-05
1.34116e-05
1.48834e-05
1.61031e-05
1.70556e-05
1.7745e-05
1.8186e-05
1.84074e-05
1.84514e-05
1.83692e-05
1.82209e-05
1.80741e-05
1.79962e-05
1.80413e-05
1.82506e-05
1.86635e-05
1.93307e-05
2.02494e-05
2.14047e-05
2.28047e-05
2.43452e-05
2.62414e-05
2.93378e-05
3.39552e-05
3.89728e-05
4.28881e-05
4.49765e-05
4.52458e-05
4.36902e-05
4.00839e-05
3.48832e-05
3.0132e-05
2.78301e-05
2.75069e-05
2.71873e-05
2.58209e-05
2.37789e-05
2.17919e-05
2.01325e-05
1.87258e-05
1.74882e-05
1.64146e-05
1.5531e-05
1.48599e-05
1.44156e-05
1.42053e-05
1.42674e-05
1.4646e-05
1.52785e-05
1.64228e-05
1.89315e-05
2.32553e-05
3.20711e-05
4.78481e-05
6.32501e-05
7.18768e-05
7.40167e-05
7.30695e-05
7.15109e-05
6.76111e-05
5.77405e-05
4.36968e-05
3.18728e-05
2.56249e-05
2.29873e-05
2.13487e-05
1.96687e-05
1.77326e-05
1.55802e-05
1.33334e-05
1.11276e-05
9.07205e-06
7.23332e-06
5.63969e-06
4.29206e-06
3.17585e-06
2.26705e-06
1.53822e-06
9.64646e-07
5.38165e-07
3.11327e-07
3.62762e-07
4.99637e-07
6.04719e-07
6.63212e-07
6.85702e-07
6.85004e-07
6.78543e-07
6.79717e-07
6.62329e-07
1.75512e-06
1.76235e-06
1.87499e-06
2.18632e-06
2.75482e-06
3.58503e-06
4.64898e-06
5.90467e-06
7.30004e-06
8.77229e-06
1.02499e-05
1.16623e-05
1.29468e-05
1.40532e-05
1.49467e-05
1.56166e-05
1.60766e-05
1.63545e-05
1.64832e-05
1.65019e-05
1.64588e-05
1.64102e-05
1.64134e-05
1.65155e-05
1.67539e-05
1.71666e-05
1.77878e-05
1.86255e-05
1.96738e-05
2.09466e-05
2.24076e-05
2.39295e-05
2.56608e-05
2.79973e-05
3.09087e-05
3.36759e-05
3.54388e-05
3.57246e-05
3.44325e-05
3.18734e-05
2.91986e-05
2.77646e-05
2.75909e-05
2.73752e-05
2.61869e-05
2.42645e-05