/*--------------------------------*- C++ -*----------------------------------*\
  =========                 |
  \\      /  F ield         | OpenFOAM: The Open Source CFD Toolbox
   \\    /   O peration     | Website:  https://openfoam.org
    \\  /    A nd           | Version:  10
     \\/     M anipulation  |
\*---------------------------------------------------------------------------*/
FoamFile
{
    format      ascii;
    class       volScalarField;
    location    "0.125";
    object      p;
}
// * * * * * * * * * * * * * * * * * * * * * * * * * * * * * * * * * * * * * //

dimensions      [0 2 -2 0 0 0 0];

internalField   nonuniform List<scalar> 
6820
(
7.31835
-7.01269
-9.01151
-9.1919
-9.3462
-9.2843
-9.24933
-9.26474
-9.30387
-9.3568
-9.41703
-9.48079
-9.54644
-9.61316
-9.68054
-9.74832
-9.81633
-9.88445
-9.95262
-10.0208
-10.089
-10.1572
-10.2257
-10.2943
-10.3638
-10.434
-10.5055
-10.5787
-10.6553
-10.7332
-10.823
-10.9003
-11.0432
1.94103
-6.8096
-8.81622
-9.07018
-9.27649
-9.27827
-9.26468
-9.28653
-9.32586
-9.37602
-9.43307
-9.494
-9.55732
-9.62224
-9.68826
-9.75504
-9.82232
-9.88992
-9.95771
-10.0256
-10.0936
-10.1617
-10.2301
-10.2988
-10.3677
-10.4377
-10.5089
-10.5818
-10.6574
-10.7349
-10.8204
-10.8989
-11.0159
-0.138291
-5.59672
-8.02206
-8.61427
-8.99563
-9.14034
-9.1889
-9.23783
-9.29301
-9.35303
-9.41701
-9.4832
-9.55046
-9.61823
-9.68622
-9.75431
-9.82243
-9.89052
-9.95855
-10.0265
-10.0944
-10.1623
-10.2303
-10.2985
-10.367
-10.4363
-10.5064
-10.5775
-10.6504
-10.7236
-10.7982
-10.8594
-10.9028
-1.70486
-5.4126
-7.72388
-8.37426
-8.75687
-8.96478
-9.06356
-9.14451
-9.22272
-9.29784
-9.37152
-9.4444
-9.51664
-9.58844
-9.6598
-9.73071
-9.80119
-9.87128
-9.94098
-10.0103
-10.0794
-10.1481
-10.2167
-10.2852
-10.3537
-10.4224
-10.4913
-10.5602
-10.6288
-10.6952
-10.7567
-10.8019
-10.8145
-2.9887
-5.45529
-7.41481
-8.09844
-8.50938
-8.78312
-8.93584
-9.0474
-9.14517
-9.2335
-9.31648
-9.39652
-9.47423
-9.5501
-9.6247
-9.69825
-9.77089
-9.8427
-9.91377
-9.98416
-10.0539
-10.1232
-10.1919
-10.2602
-10.3281
-10.3956
-10.4625
-10.5283
-10.5919
-10.6511
-10.7018
-10.7354
-10.7371
-3.94468
-5.57654
-7.22875
-7.94338
-8.36381
-8.65974
-8.8385
-8.96653
-9.07633
-9.17415
-9.26421
-9.34962
-9.43175
-9.51131
-9.58881
-9.66464
-9.73908
-9.81231
-9.8845
-9.95573
-10.0261
-10.0956
-10.1644
-10.2324
-10.2996
-10.3658
-10.4307
-10.4935
-10.553
-10.6069
-10.6518
-10.6815
-10.6872
-4.68832
-5.78657
-7.13888
-7.82378
-8.23057
-8.53511
-8.73793
-8.88535
-9.00918
-9.11756
-9.21531
-9.30641
-9.39288
-9.47577
-9.5559
-9.63387
-9.71005
-9.78469
-9.85797
-9.93003
-10.001
-10.0708
-10.1396
-10.2074
-10.2739
-10.3391
-10.4024
-10.4631
-10.5199
-10.571
-10.6131
-10.6424
-10.6535
-5.27016
-6.01417
-7.09859
-7.73685
-8.13232
-8.43915
-8.65669
-8.81669
-8.94948
-9.06504
-9.1685
-9.2641
-9.35422
-9.44016
-9.52284
-9.60291
-9.6808
-9.7568
-9.83114
-9.90398
-9.97543
-10.0456
-10.1144
-10.1819
-10.248
-10.3123
-10.3744
-10.4336
-10.4888
-10.5383
-10.5801
-10.6116
-10.6302
-5.73116
-6.24347
-7.10581
-7.68459
-8.05971
-8.35744
-8.58033
-8.74898
-8.88941
-9.01183
-9.12114
-9.22148
-9.31547
-9.40458
-9.48983
-9.57198
-9.65156
-9.72891
-9.80432
-9.87796
-9.94997
-10.0204
-10.0894
-10.1567
-10.2224
-10.2861
-10.3475
-10.4059
-10.4604
-10.51
-10.5531
-10.5886
-10.6151
-6.10112
-6.46035
-7.14126
-7.65414
-8.00529
-8.29092
-8.51515
-8.68977
-8.83582
-8.96332
-9.07709
-9.18114
-9.27822
-9.36993
-9.45737
-9.54135
-9.62243
-9.70101
-9.77737
-9.85173
-9.92424
-9.99499
-10.064
-10.1313
-10.1967
-10.2601
-10.321
-10.3791
-10.4337
-10.4841
-10.5296
-10.5695
-10.604
-6.40127
-6.65849
-7.19536
-7.64329
-7.96827
-8.23856
-8.45891
-8.63551
-8.78472
-8.91578
-9.03319
-9.14059
-9.24061
-9.33488
-9.42451
-9.51034
-9.59295
-9.67277
-9.75012
-9.82523
-9.89828
-9.96937
-10.0386
-10.1059
-10.1712
-10.2344
-10.2953
-10.3535
-10.4088
-10.4606
-10.5089
-10.5535
-10.5951
-6.64715
-6.83553
-7.25953
-7.64626
-7.94365
-8.19697
-8.41062
-8.58699
-8.73802
-8.87166
-8.99193
-9.10207
-9.20456
-9.301
-9.39252
-9.47994
-9.56389
-9.64481
-9.72303
-9.79881
-9.87233
-9.94372
-10.0131
-10.0804
-10.1457
-10.2089
-10.2699
-10.3286
-10.3847
-10.4382
-10.4893
-10.5383
-10.5861
-6.85002
-6.99119
-7.32767
-7.65926
-7.92924
-8.16512
-8.37003
-8.54389
-8.69498
-8.82983
-8.95198
-9.0642
-9.16872
-9.26707
-9.36031
-9.44925
-9.53449
-9.61648
-9.69557
-9.77202
-9.84604
-9.91778
-9.98735
-10.0548
-10.1202
-10.1836
-10.2449
-10.3041
-10.3612
-10.4165
-10.4702
-10.5229
-10.5757
-7.01819
-7.12641
-7.39541
-7.67872
-7.92224
-8.14071
-8.33564
-8.50544
-8.65543
-8.79066
-8.91406
-9.02791
-9.13415
-9.23416
-9.32892
-9.41921
-9.5056
-9.58856
-9.66842
-9.74547
-9.81992
-9.89196
-9.96172
-10.0293
-10.0948
-10.1583
-10.2199
-10.2797
-10.3378
-10.3946
-10.4505
-10.5061
-10.5626
-7.15781
-7.24258
-7.45971
-7.70169
-7.92048
-8.12218
-8.30666
-8.47135
-8.61922
-8.75398
-8.8779
-8.99282
-9.10035
-9.20169
-9.29775
-9.38923
-9.47667
-9.56051
-9.64109
-9.71871
-9.79358
-9.86592
-9.93589
-10.0036
-10.0693
-10.133
-10.1948
-10.2551
-10.314
-10.372
-10.4295
-10.4872
-10.5463
-7.27345
-7.34124
-7.51852
-7.72574
-7.92198
-8.10789
-8.28189
-8.44079
-8.58585
-8.71953
-8.84348
-8.95909
-9.06763
-9.17011
-9.26731
-9.35985
-9.44824
-9.53288
-9.61412
-9.69224
-9.76748
-9.84006
-9.91018
-9.978
-10.0437
-10.1075
-10.1695
-10.2301
-10.2896
-10.3483
-10.4068
-10.4657
-10.526
-7.36856
-7.42383
-7.57049
-7.74888
-7.92502
-8.0964
-8.26031
-8.41317
-8.55499
-8.68716
-8.81073
-8.92667
-9.03593
-9.13932
-9.23747
-9.33092
-9.42014
-9.5055
-9.58731
-9.66588
-9.74144
-9.81422
-9.88444
-9.9523
-10.018
-10.0818
-10.1439
-10.2046
-10.2642
-10.3232
-10.3821
-10.4414
-10.502
-7.4457
-7.49163
-7.61474
-7.7695
-7.92809
-8.08637
-8.24086
-8.38775
-8.52612
-8.65651
-8.77943
-8.89547
-9.00525
-9.10937
-9.20834
-9.30262
-9.39258
-9.47857
-9.56089
-9.63983
-9.71563
-9.78854
-9.85877
-9.92656
-9.99214
-10.0558
-10.1177
-10.1782
-10.2376
-10.2965
-10.3551
-10.414
-10.4739
-7.50679
-7.54569
-7.65068
-7.78631
-7.92988
-8.07662
-8.22258
-8.36381
-8.49879
-8.62733
-8.74949
-8.86547
-8.97565
-9.0804
-9.1801
-9.27511
-9.36574
-9.45231
-9.53508
-9.61434
-9.69033
-9.76329
-9.83346
-9.90109
-9.96642
-10.0297
-10.0912
-10.1513
-10.2102
-10.2684
-10.3262
-10.384
-10.4424
-7.55323
-7.58681
-7.6779
-7.79823
-7.92922
-8.06604
-8.20452
-8.34064
-8.47244
-8.5992
-8.72058
-8.83645
-8.94694
-9.05224
-9.15259
-9.24825
-9.33947
-9.42653
-9.50967
-9.58915
-9.66522
-9.73813
-9.80811
-9.87543
-9.94033
-10.0031
-10.0639
-10.1232
-10.1812
-10.2383
-10.2948
-10.351
-10.4073
-7.586
-7.61556
-7.69608
-7.80439
-7.92511
-8.05367
-8.18582
-8.31757
-8.44664
-8.5719
-8.69266
-8.80853
-8.9194
-9.0253
-9.12633
-9.22265
-9.31448
-9.40202
-9.48551
-9.56519
-9.6413
-9.71409
-9.78381
-9.8507
-9.91503
-9.97706
-10.0371
-10.0953
-10.1521
-10.2077
-10.2624
-10.3164
-10.3701
-7.6057
-7.63228
-7.70488
-7.80397
-7.91661
-8.03856
-8.16563
-8.29385
-8.42074
-8.54485
-8.66521
-8.78119
-8.8925
-8.99899
-9.10067
-9.19761
-9.28996
-9.3779
-9.46164
-9.5414
-9.61742
-9.68995
-9.75923
-9.82552
-9.88908
-9.95016
-10.009
-10.0659
-10.1211
-10.1749
-10.2275
-10.279
-10.3298
-7.61265
-7.63707
-7.70394
-7.79626
-7.90287
-8.01992
-8.14328
-8.26904
-8.39455
-8.51814
-8.63858
-8.75507
-8.86711
-8.97445
-9.07697
-9.17469
-9.26768
-9.3561
-9.44014
-9.52
-9.59592
-9.66815
-9.73693
-9.80252
-9.86517
-9.92514
-9.98268
-10.038
-10.0914
-10.1431
-10.1932
-10.242
-10.2895
-7.60683
-7.62979
-7.69279
-7.78051
-7.88303
-7.99681
-8.11783
-8.24216
-8.36707
-8.49068
-8.61158
-8.72882
-8.84175
-8.95
-9.05338
-9.15183
-9.24541
-9.33422
-9.41844
-9.49827
-9.57394
-9.6457
-9.7138
-9.7785
-9.84004
-9.89868
-9.95466
-10.0082
-10.0595
-10.1089
-10.1564
-10.2022
-10.2464
-7.58795
-7.61007
-7.67085
-7.756
-7.85641
-7.96876
-8.08909
-8.21344
-8.33898
-8.46366
-8.58592
-8.70464
-8.81906
-8.92873
-9.03337
-9.13287
-9.22726
-9.31663
-9.40115
-9.48102
-9.55646
-9.62774
-9.69511
-9.75882
-9.81914
-9.87632
-9.93058
-9.98217
-10.0313
-10.0781
-10.1227
-10.1654
-10.206
-7.55536
-7.5772
-7.63727
-7.72172
-7.82182
-7.93436
-8.05538
-8.18086
-8.30788
-8.43426
-8.55831
-8.67882
-8.79495
-8.90614
-9.01209
-9.11265
-9.20781
-9.29767
-9.38239
-9.46217
-9.53725
-9.60788
-9.67435
-9.7369
-9.79581
-9.85132
-9.90368
-9.95311
-9.9998
-10.0439
-10.0857
-10.1251
-10.1624
-7.50811
-7.53027
-7.59123
-7.67712
-7.77919
-7.89425
-8.01821
-8.14693
-8.27731
-8.40704
-8.5343
-8.65777
-8.77653
-8.89
-8.99783
-9.09988
-9.19613
-9.2867
-9.37174
-9.4515
-9.52621
-9.59618
-9.66166
-9.72296
-9.78034
-9.83406
-9.88438
-9.93151
-9.97565
-10.017
-10.0557
-10.0918
-10.1254
-7.44475
-7.46773
-7.53104
-7.62009
-7.72576
-7.84474
-7.97284
-8.10574
-8.24024
-8.3739
-8.50483
-8.63164
-8.75334
-8.86932
-8.97922
-9.08288
-9.1803
-9.27159
-9.35695
-9.43663
-9.5109
-9.58008
-9.64446
-9.70435
-9.76005
-9.81183
-9.85994
-9.90464
-9.94614
-9.98462
-10.0202
-10.0532
-10.0835
-7.36343
-7.38815
-7.45611
-7.5515
-7.66434
-7.79098
-7.92684
-8.06723
-8.20869
-8.34866
-8.48517
-8.61679
-8.74254
-8.86184
-8.97436
-9.07998
-9.17878
-9.27089
-9.35658
-9.43613
-9.50986
-9.57812
-9.64125
-9.69957
-9.7534
-9.80305
-9.8488
-9.89089
-9.92955
-9.965
-9.99737
-10.0268
-10.0535
-7.26128
-7.28805
-7.36187
-7.46478
-7.58557
-7.72047
-7.86468
-8.01318
-8.16233
-8.30941
-8.45234
-8.5896
-8.72019
-8.84351
-8.95924
-9.06733
-9.16787
-9.26109
-9.34727
-9.42678
-9.5
-9.56731
-9.6291
-9.68575
-9.73762
-9.78503
-9.8283
-9.86772
-9.90353
-9.93597
-9.96524
-9.99156
-10.015
-7.13543
-7.16665
-7.25168
-7.36901
-7.50501
-7.65503
-7.81349
-7.97482
-8.13518
-8.2919
-8.44294
-8.5869
-8.72292
-8.85052
-8.96952
-9.07996
-9.18205
-9.2761
-9.36249
-9.44165
-9.51403
-9.58007
-9.6402
-9.69485
-9.74442
-9.78926
-9.82973
-9.86613
-9.89874
-9.92781
-9.95355
-9.97616
-9.99574
-6.97934
-7.01346
-7.10847
-7.23835
-7.38767
-7.55207
-7.72539
-7.90117
-8.07504
-8.24401
-8.40582
-8.55898
-8.70263
-8.83636
-8.96011
-9.07405
-9.17853
-9.27401
-9.36099
-9.44003
-9.51168
-9.57648
-9.63494
-9.68756
-9.73478
-9.77703
-9.8147
-9.84813
-9.87765
-9.90356
-9.92612
-9.94561
-9.9622
-6.79089
-6.83784
-6.95981
-7.11981
-7.29682
-7.48594
-7.68062
-7.87432
-8.06309
-8.24439
-8.4163
-8.57762
-8.72775
-8.86651
-8.99398
-9.11051
-9.21657
-9.31272
-9.3996
-9.47785
-9.54812
-9.61101
-9.66713
-9.71703
-9.76122
-9.80016
-9.83429
-9.86399
-9.88962
-9.91151
-9.92992
-9.94513
-9.95732
-6.54852
-6.59457
-6.73023
-6.91051
-7.11218
-7.32977
-7.55339
-7.77404
-7.9869
-8.18898
-8.37821
-8.55352
-8.71463
-8.8617
-8.99522
-9.1159
-9.22453
-9.32198
-9.40912
-9.48679
-9.55582
-9.61694
-9.67087
-9.71825
-9.75964
-9.79558
-9.82654
-9.85295
-9.87521
-9.89369
-9.90875
-9.92077
-9.93003
-6.27028
-6.364
-6.56747
-6.8009
-7.03989
-7.28711
-7.53469
-7.77468
-8.00377
-8.21969
-8.42062
-8.60566
-8.77465
-8.92783
-9.06578
-9.18932
-9.2994
-9.39704
-9.48326
-9.55909
-9.62549
-9.68335
-9.73351
-9.7767
-9.81359
-9.84479
-9.87081
-9.89213
-9.90916
-9.92232
-9.93197
-9.93849
-9.94228
-5.84636
-5.91409
-6.14813
-6.43857
-6.74474
-7.05967
-7.36672
-7.65607
-7.92505
-8.17205
-8.39636
-8.59854
-8.77973
-8.94129
-9.08469
-9.21147
-9.32312
-9.42106
-9.50665
-9.58112
-9.64562
-9.70118
-9.74872
-9.78906
-9.82291
-9.85091
-9.87358
-9.89141
-9.90482
-9.91421
-9.92001
-9.92277
-9.92303
-5.4811
-5.73336
-6.08847
-6.40554
-6.72319
-7.05598
-7.3806
-7.6883
-7.97735
-8.24422
-8.48659
-8.70419
-8.89762
-9.06805
-9.21709
-9.34659
-9.45844
-9.55448
-9.63648
-9.70607
-9.76471
-9.81373
-9.85427
-9.88734
-9.91379
-9.93433
-9.94954
-9.95988
-9.96571
-9.96733
-9.96492
-9.95911
-9.94995
-4.4265
-4.69185
-5.30101
-5.84478
-6.34356
-6.8162
-7.2383
-7.61239
-7.94603
-8.242
-8.50336
-8.73354
-8.93549
-9.11186
-9.26508
-9.3974
-9.51094
-9.60769
-9.6895
-9.7581
-9.81506
-9.86179
-9.89954
-9.92943
-9.95237
-9.96914
-9.98031
-9.98628
-9.98719
-9.98316
-9.97351
-9.9593
-9.93657
-4.47639
-5.03561
-5.47521
-5.83675
-6.3094
-6.80063
-7.26037
-7.69142
-8.08527
-8.43366
-8.73645
-8.99627
-9.21641
-9.40082
-9.55378
-9.67943
-9.78164
-9.86388
-9.92923
-9.98035
-10.0195
-10.0487
-10.0696
-10.0836
-10.0917
-10.095
-10.094
-10.0891
-10.0803
-10.0669
-10.0467
-10.0175
-9.9683
0.466903
-3.22439
-4.54721
-5.21369
-6.00815
-6.68023
-7.21853
-7.68917
-8.09962
-8.45126
-8.75179
-9.00725
-9.22249
-9.4024
-9.55154
-9.6741
-9.77385
-9.85413
-9.91793
-9.9678
-10.006
-10.0344
-10.0546
-10.068
-10.0759
-10.079
-10.0784
-10.0745
-10.0683
-10.0592
-10.0497
-10.0353
-10.0257
-10.9946
-10.7722
-10.4104
-9.81471
-9.15688
-8.69689
-8.78039
-9.78472
-12.0289
-15.604
-20.2422
-25.2396
-29.6227
-32.5654
-33.6863
-32.8915
-30.212
-25.7028
-19.7701
-13.4973
-8.05078
-3.91312
-0.993788
0.935774
2.03894
2.3572
1.89035
0.484051
-2.23922
-6.47156
-12.0176
-18.3668
-24.9554
-31.3592
-37.2667
-42.3379
-46.1386
-48.2368
-48.4014
-46.5714
-42.8926
-37.5399
-30.9167
-24.0348
-18.0449
-13.3396
-9.65707
-6.70242
-4.36775
-2.61519
-1.36293
-0.492481
0.105469
0.511643
0.779669
0.942062
1.01368
0.994157
0.864088
0.584677
0.00401134
-1.42898
-4.6554
-10.3076
-17.9066
-25.9533
-32.5409
-36.1231
-35.9697
-31.9708
-24.965
-16.9631
-10.2131
-5.729
-3.12644
-1.65191
-0.792752
-0.28251
0.0198243
0.197148
0.300453
0.360574
0.395297
0.414314
0.422612
0.422637
0.41561
0.402297
0.383383
0.359648
0.331911
0.301146
0.267971
0.233618
0.197503
0.162703
0.123578
0.0932909
0.0437654
0.0355404
-10.9643
-10.704
-10.3379
-9.78068
-9.1684
-8.73767
-8.8529
-9.90155
-12.1145
-15.479
-19.7076
-24.1911
-28.1286
-30.8281
-31.8531
-30.9762
-28.1944
-23.7375
-18.2269
-12.6477
-7.82856
-4.09064
-1.38483
0.434631
1.48116
1.78664
1.3313
0.0210836
-2.41145
-6.20601
-11.2916
-17.2741
-23.6096
-29.8222
-35.5472
-40.431
-44.0696
-46.0739
-46.2342
-44.4726
-40.9105
-35.7513
-29.4714
-23.0654
-17.5228
-13.1174
-9.60795
-6.76187
-4.50293
-2.79683
-1.56315
-0.691939
-0.0837581
0.335406
0.615549
0.787368
0.86509
0.847892
0.716237
0.430674
-0.126632
-1.42201
-4.31849
-9.45403
-16.47
-23.997
-30.2271
-33.6567
-33.5688
-29.8623
-23.3595
-15.978
-9.78246
-5.6485
-3.20207
-1.77327
-0.914526
-0.389917
-0.0697097
0.12511
0.244154
0.317788
0.36374
0.391848
0.407328
0.412887
0.409998
0.399671
0.382799
0.360365
0.333357
0.302912
0.26975
0.23526
0.198849
0.163827
0.124314
0.0939603
0.0439809
0.0358554
-10.8431
-10.6314
-10.2844
-9.77955
-9.25845
-8.96145
-9.19542
-10.2632
-12.3703
-15.507
-19.3696
-23.3929
-26.9011
-29.2487
-29.9537
-28.8101
-25.925
-21.6947
-16.7772
-11.9182
-7.6809
-4.3113
-1.813
-0.106448
0.880216
1.17023
0.737739
-0.490712
-2.68429
-6.07058
-10.6613
-16.1863
-22.1733
-28.129
-33.6398
-38.3277
-41.8056
-43.7149
-43.8639
-42.1655
-38.7327
-33.8119
-27.9432
-22.0654
-16.9866
-12.8816
-9.54735
-6.81548
-4.63771
-2.98128
-1.76797
-0.89736
-0.280108
0.151113
0.442704
0.623494
0.707033
0.69228
0.559909
0.269738
-0.272077
-1.44748
-4.02707
-8.63353
-15.0247
-21.9802
-27.8101
-31.0661
-31.0438
-27.6517
-21.6919
-14.9714
-9.35276
-5.57353
-3.28193
-1.89803
-1.03969
-0.500725
-0.162378
0.0504259
0.185773
0.273461
0.331111
0.368679
0.39161
0.402877
0.404234
0.39695
0.382163
0.361064
0.334808
0.304696
0.27155
0.236916
0.200206
0.164948
0.125054
0.0946024
0.0442077
0.036113
-10.7608
-10.5858
-10.2876
-9.88767
-9.50443
-9.33835
-9.65848
-10.7342
-12.7229
-15.5802
-19.0236
-22.5573
-25.5293
-27.3502
-27.6381
-26.2936
-23.5287
-19.7649
-15.5238
-11.329
-7.60075
-4.56425
-2.26699
-0.676075
0.248624
0.520565
0.115033
-1.03589
-3.0301
-6.04164
-10.1314
-15.1353
-20.6822
-26.3033
-31.5532
-36.0261
-39.3382
-41.151
-41.285
-39.6555
-36.384
-31.7674
-26.3827
-21.0682
-16.4497
-12.636
-9.47717
-6.86508
-4.77293
-3.16811
-1.97641
-1.10786
-0.483005
-0.0409134
0.26132
0.450623
0.539729
0.527534
0.395227
0.102321
-0.42854
-1.49842
-3.7762
-7.85177
-13.5893
-19.9323
-25.3271
-28.3925
-28.4379
-25.3826
-20.0022
-13.9718
-8.93745
-5.50715
-3.36517
-2.02492
-1.16745
-0.614578
-0.258031
-0.0268269
0.125383
0.227693
0.297552
0.345011
0.375734
0.392966
0.39874
0.394599
0.381923
0.36213
0.336567
0.306718
0.273523
0.238689
0.20164
0.166108
0.125827
0.0952398
0.0444657
0.0363255
-10.6935
-10.5641
-10.3456
-10.0728
-9.84127
-9.8176
-10.2109
-11.2266
-12.9877
-15.4526
-18.3716
-21.2818
-23.6244
-24.9538
-24.9943
-23.7149
-21.3095
-18.1043
-14.4857
-10.8582
-7.5723
-4.84145
-2.73912
-1.26478
-0.402679
-0.150616
-0.52868
-1.60039
-3.42503
-6.10864
-9.72217
-14.1774
-19.2064
-24.4039
-29.3255
-33.5451
-36.6753
-38.3877
-38.5082
-36.9689
-33.9123
-29.6773
-24.8376
-20.0964
-15.9187
-12.383
-9.39942
-6.91204
-4.90882
-3.35696
-2.18814
-1.32325
-0.692363
-0.240641
0.0713768
0.268711
0.363181
0.353684
0.222337
-0.0708883
-0.592943
-1.5723
-3.57024
-7.12859
-12.2008
-17.9014
-22.8305
-25.6869
-25.7996
-23.1001
-18.327
-13.0016
-8.54579
-5.45166
-3.45218
-2.15412
-1.29802
-0.731624
-0.356752
-0.106685
0.0629748
0.180493
0.263075
0.320834
0.359645
0.383029
0.393321
0.392357
0.381802
0.363309
0.338426
0.30882
0.275554
0.240494
0.203091
0.167263
0.126597
0.0958455
0.0447313
0.0364819
-10.6623
-10.5794
-10.4444
-10.2906
-10.2001
-10.2948
-10.7281
-11.6471
-13.1351
-15.1497
-17.4796
-19.7629
-21.5974
-22.6105
-22.591
-21.4981
-19.4642
-16.7391
-13.6336
-10.4827
-7.58472
-5.13509
-3.22005
-1.86173
-1.06264
-0.831018
-1.18356
-2.17539
-3.84908
-6.25643
-9.44406
-13.3639
-17.8304
-22.5225
-27.035
-30.9448
-33.8627
-35.4663
-35.5832
-34.1741
-31.4011
-27.621
-23.3585
-19.1699
-15.3995
-12.1254
-9.3167
-6.958
-5.04554
-3.54724
-2.40242
-1.54294
-0.907738
-0.447741
-0.126873
0.077992
0.177695
0.17109
0.0415683
-0.249587
-0.763004
-1.66783
-3.41605
-6.48715
-10.9007
-15.941
-20.3781
-23.0077
-23.1871
-20.8584
-16.7088
-12.0857
-8.18687
-5.40855
-3.5425
-2.28517
-1.43117
-0.851771
-0.458503
-0.189118
-0.00139955
0.131943
0.227798
0.296306
0.343542
0.373314
0.388272
0.390563
0.382133
0.364899
0.340627
0.311185
0.277775
0.242424
0.204621
0.168453
0.127393
0.0964407
0.0450213
0.0365945
-10.6441
-10.5983
-10.5243
-10.4565
-10.4595
-10.6284
-11.0767
-11.906
-13.165
-14.8067
-16.671
-18.491
-19.9397
-20.716
-20.6433
-19.685
-17.9388
-15.6001
-12.922
-10.1813
-7.62843
-5.43821
-3.70225
-2.45839
-1.72261
-1.51122
-1.84021
-2.75402
-4.28655
-6.45885
-9.2818
-12.7155
-16.625
-20.7665
-24.8007
-28.3382
-31.0042
-32.4861
-32.62
-31.3881
-28.961
-25.6786
-21.9829
-18.2985
-14.8941
-11.8658
-9.23193
-7.00431
-5.1829
-3.73827
-2.61867
-1.76647
-1.12876
-0.661912
-0.333171
-0.12131
-0.0164573
-0.0199068
-0.146717
-0.433537
-0.93656
-1.78076
-3.31377
-5.9417
-9.72406
-14.1038
-18.0324
-20.4211
-20.6651
-18.7147
-15.1885
-11.2444
-7.86655
-5.37824
-3.63583
-2.41799
-1.56698
-0.975122
-0.56335
-0.274149
-0.06772
0.0821021
0.191801
0.271504
0.327479
0.363831
0.383542
0.389102
0.382772
0.366751
0.343037
0.313703
0.280098
0.24441
0.206175
0.169637
0.128183
0.0969998
0.0453149
0.0366537
-10.6372
-10.625
-10.6025
-10.6004
-10.6715
-10.8886
-11.3343
-12.079
-13.15
-14.5027
-16.0058
-17.4423
-18.5595
-19.128
-19.0068
-18.1587
-16.6516
-14.6386
-12.3265
-9.94275
-7.69714
-5.74514
-4.1792
-3.04709
-2.37442
-2.18282
-2.4895
-3.32898
-4.72751
-6.69204
-9.20698
-12.2223
-15.6259
-19.2269
-22.7544
-25.8767
-28.2564
-29.5948
-29.7754
-28.7545
-26.7023
-23.9109
-20.7291
-17.4834
-14.4035
-11.6075
-9.14825
-7.05191
-5.32046
-3.92931
-2.83622
-1.99325
-1.35493
-0.882703
-0.547111
-0.328808
-0.218842
-0.218738
-0.341956
-0.622386
-1.11218
-1.90593
-3.25907
-5.49844
-8.69877
-12.4399
-15.8581
-17.9969
-18.302
-16.7261
-13.8031
-10.4934
-7.58782
-5.36028
-3.7317
-2.55252
-1.70552
-1.10175
-0.671342
-0.361784
-0.135942
0.0310639
0.155218
0.246593
0.311644
0.354786
0.379363
0.388227
0.383969
0.369092
0.345844
0.316522
0.282632
0.246528
0.207806
0.17085
0.128988
0.0975383
0.0456236
0.0366675
-10.6371
-10.6526
-10.6703
-10.7166
-10.8336
-11.0768
-11.506
-12.1684
-13.0765
-14.1864
-15.3884
-16.5175
-17.3783
-17.7894
-17.6327
-16.8741
-15.5652
-13.828
-11.8296
-9.75655
-7.78449
-6.05082
-4.64538
-3.62135
-3.01084
-2.83894
-3.12388
-3.89308
-5.16509
-6.93999
-9.18984
-11.8532
-14.8247
-17.9434
-20.9906
-23.6973
-25.7808
-26.9874
-27.2039
-26.3952
-24.6977
-22.3409
-19.5937
-16.7191
-13.9285
-11.3549
-9.06842
-7.10112
-5.45753
-4.11963
-3.05446
-2.22274
-1.58571
-1.10962
-0.768226
-0.544049
-0.428986
-0.4248
-0.543503
-0.815646
-1.28909
-2.03846
-3.24469
-5.15563
-7.84146
-10.99
-13.914
-15.8022
-16.1622
-14.9429
-12.58
-9.8404
-7.35012
-5.35341
-3.82977
-2.68891
-1.84703
-1.23184
-0.7826
-0.452069
-0.206032
-0.0210768
0.118182
0.22172
0.296173
0.346285
0.375792
0.387939
0.385686
0.371862
0.348981
0.319574
0.285317
0.248726
0.20947
0.172054
0.12978
0.0980346
0.0459318
0.0366292
-10.6394
-10.678
-10.7271
-10.8087
-10.9561
-11.2107
-11.615
-12.1992
-12.966
-13.875
-14.8375
-15.7217
-16.3739
-16.653
-16.466
-15.7839
-14.6447
-13.1436
-11.4156
-9.61359
-7.88524
-6.35106
-5.09604
-4.1755
-3.62543
-3.47307
-3.73699
-4.43964
-5.59314
-7.1927
-9.20692
-11.5703
-14.1807
-16.8948
-19.528
-21.8623
-23.6702
-24.7481
-24.991
-24.3618
-22.9582
-20.953
-18.5583
-15.999
-13.4721
-11.1125
-8.99429
-7.15167
-5.59334
-4.30857
-3.27279
-2.45432
-1.8205
-1.34209
-0.995951
-0.766456
-0.646291
-0.637372
-0.750526
-1.01264
-1.46686
-2.17426
-3.26105
-4.90309
-7.15339
-9.77748
-12.2441
-13.8912
-14.2967
-13.3998
-11.5326
-9.28452
-7.14994
-5.35599
-3.92994
-2.82751
-1.99185
-1.36565
-0.897283
-0.545062
-0.277952
-0.0741999
0.0808683
0.197086
0.281278
0.338544
0.373045
0.388453
0.388125
0.375239
0.352597
0.322977
0.288238
0.251063
0.211204
0.173271
0.13057
0.0984948
0.0462433
0.0365397
-10.642
-10.6988
-10.771
-10.8766
-11.0412
-11.2954
-11.6687
-12.1794
-12.8238
-13.5651
-14.3307
-15.0162
-15.5027
-15.6806
-15.475
-14.8606
-13.8659
-12.5664
-11.0714
-9.50631
-7.99492
-6.64231
-5.5273
-4.70494
-4.21302
-4.07977
-4.32369
-4.96327
-6.00615
-7.44355
-9.24368
-11.3435
-13.647
-16.0246
-18.3167
-20.3411
-21.9138
-22.8726
-23.1218
-22.6222
-21.4402
-19.7084
-17.6029
-15.3207
-13.0394
-10.8841
-8.92646
-7.20284
-5.72716
-4.49554
-3.49063
-2.68738
-2.05867
-1.5795
-1.22966
-0.995375
-0.870081
-0.85571
-0.962118
-1.21256
-1.64505
-2.31056
-3.29804
-4.72433
-6.61997
-8.80252
-10.8676
-12.2942
-12.7322
-12.1086
-10.657
-8.81693
-6.98171
-5.36647
-4.03247
-2.96893
-2.14049
-1.50356
-1.01564
-0.640863
-0.35167
-0.128174
0.0434669
0.172909
0.26717
0.331746
0.371259
0.389858
0.391331
0.379234
0.35668
0.326706
0.291363
0.253506
0.212976
0.174475
0.131336
0.0989034
0.0465495
0.0363964
-10.6422
-10.7129
-10.8014
-10.9221
-11.0945
-11.3406
-11.6801
-12.1232
-12.6621
-13.2643
-13.8701
-14.397
-14.7522
-14.8499
-14.6312
-14.0757
-13.2051
-12.0792
-10.7859
-9.42821
-8.10971
-6.9217
-5.93611
-5.20602
-4.7694
-4.65454
-4.87962
-5.45976
-6.39954
-7.68744
-9.2919
-11.1547
-13.1884
-15.2779
-17.2839
-19.0513
-20.4269
-21.275
-21.5108
-21.0978
-20.0826
-18.5729
-16.7185
-14.6883
-12.6355
-10.6714
-8.86437
-7.2538
-5.85843
-4.68009
-3.70747
-2.92134
-2.29958
-1.82116
-1.46866
-1.23007
-1.09957
-1.079
-1.17731
-1.41445
-1.82306
-2.44577
-3.34683
-4.60004
-6.2143
-8.04145
-9.77259
-11.0075
-11.4627
-11.0547
-9.93411
-8.42324
-6.83927
-5.38385
-4.13807
-3.11402
-2.29366
-1.6461
-1.138
-0.739612
-0.427154
-0.182845
0.0062096
0.149451
0.25412
0.326144
0.370669
0.392364
0.395488
0.384002
0.361351
0.330849
0.294754
0.25609
0.214804
0.175669
0.132074
0.099253
0.0468443
0.0361918
-10.6389
-10.7195
-10.8185
-10.9472
-11.1199
-11.3522
-11.6568
-12.0379
-12.4858
-12.9718
-13.4472
-13.8468
-14.0979
-14.1344
-13.91
-13.408
-12.6451
-11.6688
-10.5501
-9.37375
-8.22642
-7.18695
-6.32016
-5.67599
-5.29141
-5.19398
-5.40132
-5.92581
-6.76976
-7.9202
-9.34624
-10.9944
-12.7864
-14.6207
-16.3765
-17.9209
-19.1228
-19.8668
-20.0791
-19.7294
-18.8525
-17.537
-15.908
-14.1065
-12.2621
-10.4735
-8.80696
-7.30393
-5.98681
-4.86187
-3.92285
-3.15561
-2.54259
-2.06638
-1.71221
-1.46973
-1.33391
-1.30638
-1.39515
-1.61725
-2.00015
-2.57894
-3.40103
-4.51182
-5.90368
-7.45241
-8.91781
-9.99298
-10.45
-10.2005
-9.33398
-8.08707
-6.71732
-5.40803
-4.2479
-3.26394
-2.45229
-1.79398
-1.26482
-0.841506
-0.504388
-0.238041
-0.0306416
0.127013
0.242421
0.322001
0.37149
0.396133
0.400705
0.389608
0.366643
0.335415
0.298403
0.2588
0.216669
0.176836
0.132772
0.0995354
0.0471268
0.0359269
-10.6308
-10.7178
-10.8226
-10.9537
-11.1215
-11.3367
-11.6067
-11.932
-12.302
-12.6917
-13.0614
-13.3593
-13.5292
-13.5193
-13.2938
-12.8397
-12.1701
-11.323
-10.3559
-9.33812
-8.34236
-7.43635
-6.67783
-6.11294
-5.77678
-5.69561
-5.88624
-6.35882
-7.11405
-8.13838
-9.40222
-10.8565
-12.4315
-14.0379
-15.5706
-16.9159
-17.9618
-18.6113
-18.8004
-18.5037
-17.7474
-16.6032
-15.1735
-13.5747
-11.917
-10.2887
-8.75336
-7.35297
-6.11217
-5.04065
-4.13638
-3.38968
-2.78706
-2.31443
-1.95952
-1.71354
-1.57219
-1.53691
-1.61471
-1.81997
-2.17544
-2.70934
-3.45673
-4.44514
-5.65702
-6.98676
-8.24376
-9.18786
-9.63419
-9.49625
-8.82449
-7.79414
-6.61266
-5.43987
-4.36356
-3.42016
-2.61763
-1.94815
-1.3967
-0.94681
-0.583362
-0.293559
-0.0667792
0.105953
0.232423
0.319637
0.374001
0.4014
0.407172
0.396197
0.37266
0.340473
0.302346
0.261647
0.218564
0.177957
0.133404
0.0997267
0.0473801
0.0355859
-10.6176
-10.7079
-10.8147
-10.9441
-11.1033
-11.2993
-11.536
-11.8113
-12.1145
-12.4243
-12.7081
-12.9252
-13.0317
-12.9877
-12.7655
-12.3551
-11.7672
-11.032
-10.1964
-9.31728
-8.45534
-7.66863
-7.0081
-6.51568
-6.22408
-6.15783
-6.33274
-6.75708
-7.4305
-8.33943
-9.45606
-10.7359
-12.1167
-13.5204
-14.8557
-16.0252
-16.9337
-17.5
-17.6678
-17.4153
-16.7622
-15.7653
-14.5082
-13.0874
-11.5969
-10.1157
-8.70329
-7.40097
-6.23454
-5.21628
-4.34773
-3.62305
-3.03236
-2.56462
-2.2098
-1.96063
-1.81349
-1.76962
-1.83507
-2.02166
-2.34804
-2.8363
-3.51178
-4.39052
-5.45046
-6.6017
-7.6908
-8.52475
-8.95277
-8.89544
-8.38001
-7.53531
-6.52434
-5.48096
-4.48702
-3.58457
-2.79132
-2.10984
-1.53442
-1.05588
-0.664086
-0.349179
-0.101839
0.0866717
0.224519
0.319408
0.378498
0.408392
0.415055
0.403883
0.379473
0.346059
0.306599
0.264633
0.220482
0.179024
0.133967
0.0998246
0.0476091
0.0351705
-10.5988
-10.69
-10.7957
-10.9203
-11.0685
-11.2446
-11.4498
-11.6809
-11.9274
-12.1711
-12.3857
-12.5389
-12.5967
-12.5284
-12.3126
-11.942
-11.4254
-10.7873
-10.0658
-9.30764
-8.56352
-7.88293
-7.31045
-6.88371
-6.63264
-6.5798
-6.73984
-7.1195
-7.71771
-8.52135
-9.50461
-10.6274
-11.8349
-13.0586
-14.2198
-15.2351
-16.0233
-16.5153
-16.6627
-16.4463
-15.8803
-15.0097
-13.9026
-12.6391
-11.2997
-9.95401
-8.65691
-7.44819
-6.35405
-5.38874
-4.55668
-3.85532
-3.27795
-2.81624
-2.46227
-2.21013
-2.05688
-2.00354
-2.05525
-2.22147
-2.51719
-2.95921
-3.56509
-4.34287
-5.26923
-6.26809
-7.21502
-7.95339
-8.36127
-8.36826
-7.98611
-7.30645
-6.4529
-5.53332
-4.62071
-3.75954
-2.9754
-2.28061
-1.67899
-1.16918
-0.746593
-0.404636
-0.135398
0.0696377
0.219174
0.321726
0.385325
0.417386
0.424564
0.412813
0.387174
0.35222
0.311169
0.267736
0.222387
0.17999
0.134412
0.0997882
0.0477884
0.0346599
-10.5746
-10.6648
-10.7672
-10.8848
-11.0205
-11.1767
-11.3529
-11.5449
-11.7433
-11.9326
-12.0915
-12.1945
-12.2153
-12.1302
-11.9233
-11.5892
-11.1353
-10.5816
-9.95904
-9.30625
-8.66547
-8.07877
-7.58484
-7.21706
-7.00244
-6.96141
-7.10733
-7.44579
-7.97513
-8.68301
-9.54578
-10.5276
-11.5802
-12.644
-13.6511
-14.5303
-15.2121
-15.638
-15.7662
-15.5794
-15.0874
-14.3259
-13.3502
-12.2269
-11.0243
-9.80352
-8.61448
-7.49492
-6.47093
-5.55808
-4.76309
-4.08617
-3.52332
-3.06866
-2.71617
-2.46122
-2.30146
-2.23774
-2.2743
-2.41855
-2.68219
-3.07758
-3.61608
-4.29997
-5.1062
-5.97095
-6.79367
-7.44896
-7.8383
-7.9005
-7.63584
-7.1057
-6.39931
-5.59933
-4.76754
-3.94805
-3.17251
-2.46249
-1.83169
-1.28731
-0.830949
-0.459617
-0.166981
0.055403
0.216922
0.327061
0.39487
0.428683
0.435918
0.423141
0.395863
0.359017
0.316089
0.27097
0.224277
0.180852
0.134736
0.0996135
0.0479218
0.0340488
-10.5452
-10.6327
-10.7301
-10.8392
-10.9619
-11.0987
-11.2484
-11.4065
-11.5644
-11.7091
-11.8234
-11.8873
-11.8804
-11.7849
-11.5885
-11.2877
-10.8888
-10.4083
-9.87164
-9.31045
-8.76
-8.25592
-7.83156
-7.51621
-7.33395
-7.30306
-7.43548
-7.73598
-8.20245
-8.82348
-9.57766
-10.4331
-11.3476
-12.2694
-13.1403
-13.8992
-14.4872
-14.8541
-14.9643
-14.8019
-14.3734
-13.7067
-12.8468
-11.8486
-10.77
-9.66418
-8.57629
-7.54157
-6.58552
-5.72449
-4.96695
-4.31536
-3.76808
-3.32134
-2.97084
-2.7131
-2.54636
-2.4713
-2.49132
-2.6121
-2.84242
-3.19093
-3.66425
-4.26064
-4.95814
-5.70384
-6.41747
-7.00016
-7.3731
-7.48375
-7.32434
-6.93163
-6.36472
-5.68177
-4.9311
-4.15379
-3.38597
-2.65805
-1.99416
-1.41104
-0.917228
-0.513785
-0.196019
0.0446125
0.218376
0.335947
0.407568
0.442615
0.449357
0.435022
0.405624
0.36647
0.321333
0.274279
0.226083
0.181533
0.134872
0.099249
0.0479828
0.0333225
-10.5115
-10.5951
-10.6863
-10.7862
-10.8956
-11.0142
-11.14
-11.2687
-11.3925
-11.5008
-11.5796
-11.6133
-11.5862
-11.4847
-11.2999
-11.0295
-10.6791
-10.2623
-9.7999
-9.31812
-8.84629
-8.41447
-8.05126
-7.78212
-7.62824
-7.6058
-7.72533
-7.99096
-8.40022
-8.94277
-9.59938
-10.342
-11.1336
-11.9297
-12.6803
-13.3331
-13.8383
-14.1528
-14.2463
-14.104
-13.7301
-13.1462
-12.3884
-11.502
-10.5358
-9.53594
-8.54269
-7.58864
-6.69829
-5.88828
-5.16838
-4.54282
-4.01195
-3.57382
-3.22568
-2.96509
-2.7908
-2.7034
-2.70553
-2.80138
-2.99726
-3.29879
-3.70904
-4.22367
-4.82244
-5.46215
-6.07955
-6.59838
-6.95659
-7.11057
-7.04705
-6.78289
-6.35059
-5.78398
-5.11577
-4.38145
-3.62003
-2.87055
-2.16848
-1.54133
-1.00552
-0.566732
-0.221821
0.038027
0.224255
0.349002
0.423915
0.459563
0.465159
0.448648
0.416582
0.374657
0.326943
0.277676
0.227798
0.182019
0.1348
0.0986714
0.0479571
0.032453
-10.4734
-10.5521
-10.6364
-10.7268
-10.8232
-10.9248
-11.0295
-11.1328
-11.2283
-11.307
-11.3578
-11.3685
-11.327
-11.2232
-11.0506
-10.8079
-10.5001
-10.1386
-9.74038
-9.32724
-8.92354
-8.55457
-8.24468
-8.01583
-7.88648
-7.8708
-7.97797
-8.21153
-8.56885
-9.04058
-9.60973
-10.2516
-10.9342
-11.6191
-12.2636
-12.8232
-13.2555
-13.5239
-13.602
-13.4768
-13.1502
-12.6386
-11.9712
-11.1851
-10.321
-9.41879
-8.5141
-7.63671
-6.80979
-6.04991
-5.36764
-4.76862
-4.2548
-3.82581
-3.48023
-3.21658
-3.03411
-2.93331
-2.9162
-2.98576