/*--------------------------------*- C++ -*----------------------------------*\
  =========                 |
  \\      /  F ield         | OpenFOAM: The Open Source CFD Toolbox
   \\    /   O peration     | Website:  https://openfoam.org
    \\  /    A nd           | Version:  10
     \\/     M anipulation  |
\*---------------------------------------------------------------------------*/
FoamFile
{
    format      ascii;
    class       surfaceScalarField;
    location    "0.125";
    object      phi;
}
// * * * * * * * * * * * * * * * * * * * * * * * * * * * * * * * * * * * * * //

dimensions      [0 3 -1 0 0 0 0];

internalField   nonuniform List<scalar> 
13452
(
4.01931e-05
2.00753e-05
2.59372e-05
1.42559e-05
1.85362e-05
7.40099e-06
1.51671e-05
3.36917e-06
1.37564e-05
1.41063e-06
1.30529e-05
7.03542e-07
1.2604e-05
4.48862e-07
1.22579e-05
3.46095e-07
1.19649e-05
2.92998e-07
1.17131e-05
2.51885e-07
1.14981e-05
2.14969e-07
1.13162e-05
1.81918e-07
1.11632e-05
1.53013e-07
1.1035e-05
1.28196e-07
1.09279e-05
1.07029e-07
1.0839e-05
8.89224e-08
1.07657e-05
7.33018e-08
1.0706e-05
5.96747e-08
1.06584e-05
4.7638e-08
1.06215e-05
3.68692e-08
1.05944e-05
2.71004e-08
1.05763e-05
1.81438e-08
1.05666e-05
9.67064e-09
1.05653e-05
1.30669e-09
1.05717e-05
-6.35437e-09
1.0586e-05
-1.43358e-08
1.06091e-05
-2.31289e-08
1.06416e-05
-3.24311e-08
1.06879e-05
-4.63597e-08
1.07473e-05
-5.93785e-08
1.08479e-05
-1.00656e-07
1.0961e-05
-1.13016e-07
-4.07355e-07
1.13683e-05
6.59036e-05
1.6162e-05
6.19008e-05
1.82587e-05
5.5646e-05
1.36558e-05
4.9786e-05
9.22917e-06
4.53006e-05
5.89607e-06
4.21e-05
3.90411e-06
3.98075e-05
2.7414e-06
3.81239e-05
2.02964e-06
3.6844e-05
1.57296e-06
3.58366e-05
1.2593e-06
3.50213e-05
1.03019e-06
3.43478e-05
8.55443e-07
3.3783e-05
7.17857e-07
3.33043e-05
6.06868e-07
3.28958e-05
5.15519e-07
3.25457e-05
4.38996e-07
3.22452e-05
3.73861e-07
3.19872e-05
3.17616e-07
3.17665e-05
2.68408e-07
3.15785e-05
2.24838e-07
3.14198e-05
1.85815e-07
3.12874e-05
1.50479e-07
3.11791e-05
1.18035e-07
3.10925e-05
8.78561e-08
3.10267e-05
5.94696e-08
3.09805e-05
3.19016e-08
3.09535e-05
3.85723e-09
3.09461e-05
-2.50746e-08
3.09596e-05
-5.9854e-08
3.09993e-05
-9.90685e-08
3.10685e-05
-1.69833e-07
3.12124e-05
-2.56898e-07
-4.81859e-07
3.12869e-05
6.91814e-05
1.0742e-05
7.25089e-05
1.49313e-05
7.30652e-05
1.30995e-05
7.16962e-05
1.05982e-05
6.94588e-05
8.13342e-06
6.70897e-05
6.27323e-06
6.4872e-05
4.95913e-06
6.28963e-05
4.00528e-06
6.11733e-05
3.29599e-06
5.96809e-05
2.75172e-06
5.83899e-05
2.32113e-06
5.72724e-05
1.97298e-06
5.63033e-05
1.68695e-06
5.54613e-05
1.4489e-06
5.47283e-05
1.24847e-06
5.40894e-05
1.07793e-06
5.35319e-05
9.31391e-07
5.30452e-05
8.04277e-07
5.26206e-05
6.93022e-07
5.22506e-05
5.94797e-07
5.19291e-05
5.07331e-07
5.16508e-05
4.28766e-07
5.14113e-05
3.57512e-07
5.1207e-05
2.92183e-07
5.10349e-05
2.31598e-07
5.08924e-05
1.74337e-07
5.07776e-05
1.1867e-07
5.06895e-05
6.30306e-08
5.06268e-05
2.85358e-09
5.05917e-05
-6.39008e-08
5.05746e-05
-1.528e-07
5.05793e-05
-2.61556e-07
-4.25528e-07
5.05229e-05
6.88458e-05
7.47928e-06
7.21608e-05
1.16162e-05
7.45358e-05
1.07245e-05
7.59465e-05
9.18757e-06
7.65258e-05
7.55412e-06
7.6591e-05
6.20805e-06
7.63501e-05
5.19998e-06
7.5929e-05
4.42643e-06
7.54083e-05
3.81669e-06
7.48369e-05
3.32307e-06
7.42457e-05
2.91239e-06
7.36547e-05
2.56392e-06
7.3078e-05
2.26364e-06
7.25251e-05
2.00181e-06
7.20018e-05
1.77184e-06
7.15111e-05
1.56856e-06
7.10548e-05
1.38775e-06
7.06331e-05
1.22598e-06
7.02456e-05
1.08045e-06
6.98916e-05
9.48826e-07
6.95698e-05
8.29132e-07
6.92789e-05
7.19682e-07
6.90174e-05
6.18971e-07
6.8784e-05
5.25633e-07
6.85772e-05
4.38384e-07
6.83958e-05
3.55782e-07
6.82383e-05
2.76104e-07
6.81038e-05
1.97583e-07
6.79896e-05
1.17006e-07
6.78937e-05
3.20307e-08
6.78057e-05
-6.4781e-08
6.77173e-05
-1.73148e-07
-2.90626e-07
6.75824e-05
6.95589e-05
5.3772e-06
7.18357e-05
9.33934e-06
7.35375e-05
9.02271e-06
7.4808e-05
7.91708e-06
7.57003e-05
6.6618e-06
7.63518e-05
5.55657e-06
7.68485e-05
4.70323e-06
7.72323e-05
4.04267e-06
7.75311e-05
3.51787e-06
7.77634e-05
3.09073e-06
7.79421e-05
2.7337e-06
7.80774e-05
2.42868e-06
7.81766e-05
2.16446e-06
7.82454e-05
1.93299e-06
7.82895e-05
1.72775e-06
7.8314e-05
1.54404e-06
7.83234e-05
1.37836e-06
7.83214e-05
1.22793e-06
7.83113e-05
1.09056e-06
7.82957e-05
9.64424e-07
7.82769e-05
8.48007e-07
7.82565e-05
7.40005e-07
7.82362e-05
6.39256e-07
7.82172e-05
5.44687e-07
7.82003e-05
4.55263e-07
7.81862e-05
3.69858e-07
7.81752e-05
2.87167e-07
7.81669e-05
2.05858e-07
7.81599e-05
1.24053e-07
7.81512e-05
4.06487e-08
7.81324e-05
-4.5918e-08
7.80926e-05
-1.33345e-07
-2.11568e-07
7.80135e-05
7.08403e-05
3.92092e-06
7.2628e-05
7.55166e-06
7.39359e-05
7.71485e-06
7.48678e-05
6.98514e-06
7.55002e-05
6.02937e-06
7.59523e-05
5.10445e-06
7.63111e-05
4.34442e-06
7.66169e-05
3.73691e-06
7.68899e-05
3.2449e-06
7.71398e-05
2.84079e-06
7.73709e-05
2.50261e-06
7.75853e-05
2.21427e-06
7.77851e-05
1.96472e-06
7.79718e-05
1.7462e-06
7.81467e-05
1.55294e-06
7.83103e-05
1.38044e-06
7.84634e-05
1.22524e-06
7.86067e-05
1.08458e-06
7.8741e-05
9.56244e-07
7.8867e-05
8.38447e-07
7.89853e-05
7.29695e-07
7.90966e-05
6.28728e-07
7.92014e-05
5.34451e-07
7.93002e-05
4.45881e-07
7.93934e-05
3.62106e-07
7.9481e-05
2.82224e-07
7.95629e-05
2.05294e-07
7.96382e-05
1.30502e-07
7.97053e-05
5.69851e-08
7.97613e-05
-1.53741e-08
7.98012e-05
-8.58095e-08
7.98187e-05
-1.50846e-07
-2.01306e-07
7.98085e-05
7.2389e-05
2.89828e-06
7.38419e-05
6.09872e-06
7.49711e-05
6.58562e-06
7.57917e-05
6.16459e-06
7.6353e-05
5.46806e-06
7.67388e-05
4.71862e-06
7.70255e-05
4.05777e-06
7.72551e-05
3.50733e-06
7.74509e-05
3.04903e-06
7.76264e-05
2.66529e-06
7.77886e-05
2.34047e-06
7.79411e-05
2.06174e-06
7.80861e-05
1.81967e-06
7.8225e-05
1.60731e-06
7.83586e-05
1.41935e-06
7.84874e-05
1.25162e-06
7.86118e-05
1.10083e-06
7.87321e-05
9.64331e-07
7.88484e-05
8.39976e-07
7.89608e-05
7.26004e-07
7.90695e-05
6.2095e-07
7.91747e-05
5.23578e-07
7.92763e-05
4.32832e-07
7.93744e-05
3.47792e-07
7.94689e-05
2.67644e-07
7.95594e-05
1.91665e-07
7.96455e-05
1.19217e-07
7.97261e-05
4.98754e-08
7.97996e-05
-1.65198e-08
7.98636e-05
-7.938e-08
7.99147e-05
-1.36842e-07
7.99486e-05
-1.84763e-07
-2.1589e-07
7.99632e-05
7.41254e-05
2.17814e-06
7.52934e-05
4.93072e-06
7.62763e-05
5.60279e-06
7.70302e-05
5.41062e-06
7.75783e-05
4.91999e-06
7.79699e-05
4.32705e-06
7.82626e-05
3.76503e-06
7.84939e-05
3.27599e-06
7.86864e-05
2.85662e-06
7.88539e-05
2.49777e-06
7.90048e-05
2.18956e-06
7.9144e-05
1.92255e-06
7.92745e-05
1.68914e-06
7.93984e-05
1.48346e-06
7.95169e-05
1.30084e-06
7.9631e-05
1.13752e-06
7.97413e-05
9.90479e-07
7.98484e-05
8.57243e-07
7.99526e-05
7.35788e-07
8.00542e-05
6.24439e-07
8.01533e-05
5.218e-07
8.02502e-05
4.26703e-07
8.03449e-05
3.3816e-07
8.04373e-05
2.55338e-07
8.05274e-05
1.77545e-07
8.06149e-05
1.0423e-07
8.06991e-05
3.50127e-08
8.07791e-05
-3.0206e-08
8.08537e-05
-9.10717e-08
8.09208e-05
-1.46535e-07
8.09784e-05
-1.94391e-07
8.10244e-05
-2.30745e-07
-2.50155e-07
8.10586e-05
7.60169e-05
1.66375e-06
7.69539e-05
3.99372e-06
7.78036e-05
4.75303e-06
7.84865e-05
4.72777e-06
7.90089e-05
4.39755e-06
7.93994e-05
3.93652e-06
7.97002e-05
3.46427e-06
7.99424e-05
3.03376e-06
8.01457e-05
2.65333e-06
8.03228e-05
2.32067e-06
8.04818e-05
2.03061e-06
8.06276e-05
1.77676e-06
8.07634e-05
1.55326e-06
8.08916e-05
1.35529e-06
8.10136e-05
1.17883e-06
8.11305e-05
1.02059e-06
8.12432e-05
8.77811e-07
8.13522e-05
7.48231e-07
8.1458e-05
6.29967e-07
8.1561e-05
5.21452e-07
8.16614e-05
4.21378e-07
8.17595e-05
3.2865e-07
8.18553e-05
2.42362e-07
8.19489e-05
1.61772e-07
8.20401e-05
8.63019e-08
8.21288e-05
1.55514e-08
8.22145e-05
-5.06571e-08
8.22964e-05
-1.12184e-07
8.23738e-05
-1.6844e-07
8.24455e-05
-2.1821e-07
8.25104e-05
-2.59362e-07
8.25683e-05
-2.8859e-07
-3.02026e-07
8.26202e-05
7.80331e-05
1.29023e-06
7.87847e-05
3.24213e-06
7.95171e-05
4.02062e-06
8.01332e-05
4.11168e-06
8.06266e-05
3.90418e-06
8.1011e-05
3.55212e-06
8.13152e-05
3.16006e-06
8.15642e-05
2.78468e-06
8.17751e-05
2.44244e-06
8.19594e-05
2.13637e-06
8.21249e-05
1.86514e-06
8.22766e-05
1.62508e-06
8.24178e-05
1.41202e-06
8.25509e-05
1.2222e-06
8.26774e-05
1.05229e-06
8.27986e-05
8.99446e-07
8.29152e-05
7.61219e-07
8.30279e-05
6.35554e-07
8.31371e-05
5.20716e-07
8.32433e-05
4.15246e-07
8.33468e-05
3.17922e-07
8.34477e-05
2.27727e-07
8.35462e-05
1.43828e-07
8.36424e-05
6.55656e-08
8.37363e-05
-7.54638e-09
8.38276e-05
-7.57966e-08
8.39162e-05
-1.39236e-07
8.40016e-05
-1.97611e-07
8.40835e-05
-2.5026e-07
8.41613e-05
-2.96016e-07
8.4235e-05
-3.33071e-07
8.43052e-05
-3.58857e-07
-3.70846e-07
8.43741e-05
8.01547e-05
1.01383e-06
8.07594e-05
2.63746e-06
8.13901e-05
3.38987e-06
8.19452e-05
3.5566e-06
8.24082e-05
3.44117e-06
8.27827e-05
3.17764e-06
8.30871e-05
2.85572e-06
8.33407e-05
2.53105e-06
8.35579e-05
2.22524e-06
8.37489e-05
1.94538e-06
8.39208e-05
1.69319e-06
8.40786e-05
1.46733e-06
8.42254e-05
1.26517e-06
8.43637e-05
1.08394e-06
8.4495e-05
9.20987e-07
8.46205e-05
7.73893e-07
8.47412e-05
6.40527e-07
8.48577e-05
5.19044e-07
8.49706e-05
4.07859e-07
8.50802e-05
3.05628e-07
8.51869e-05
2.11215e-07
8.5291e-05
1.2368e-07
8.53925e-05
4.22565e-08
8.54918e-05
-3.36484e-08
8.55887e-05
-1.04449e-07
8.56832e-05
-1.70366e-07
8.57754e-05
-2.31393e-07
8.5865e-05
-2.87254e-07
8.59521e-05
-3.37341e-07
8.60368e-05
-3.80674e-07
8.61196e-05
-4.1587e-07
8.62018e-05
-4.41101e-07
-4.54907e-07
8.62859e-05
8.23693e-05
8.05021e-07
8.28581e-05
2.14864e-06
8.34008e-05
2.84718e-06
8.38999e-05
3.05747e-06
8.43324e-05
3.00869e-06
8.46949e-05
2.8151e-06
8.49978e-05
2.55287e-06
8.5255e-05
2.27379e-06
8.54782e-05
2.0021e-06
8.56758e-05
1.74771e-06
8.58544e-05
1.51458e-06
8.60185e-05
1.30323e-06
8.61713e-05
1.11239e-06
8.63151e-05
9.40184e-07
8.64515e-05
7.84579e-07
8.65818e-05
6.43601e-07
8.67069e-05
5.15422e-07
8.68275e-05
3.98408e-07
8.69442e-05
2.91132e-07
8.70575e-05
1.92358e-07
8.71677e-05
1.01042e-07
8.72751e-05
1.63098e-08
8.73799e-05
-6.25454e-08
8.74823e-05
-1.36063e-07
8.75824e-05
-2.04614e-07
8.76805e-05
-2.6839e-07
8.77765e-05
-3.27384e-07
8.78706e-05
-3.81364e-07
8.79631e-05
-4.29855e-07
8.80545e-05
-4.72129e-07
8.81459e-05
-5.0725e-07
8.82389e-05
-5.34061e-07
-5.5192e-07
8.83359e-05
8.46689e-05
6.43878e-07
8.50668e-05
1.75073e-06
8.55341e-05
2.37988e-06
8.59827e-05
2.60892e-06
8.63854e-05
2.60594e-06
8.67344e-05
2.46614e-06
8.70337e-05
2.25355e-06
8.72929e-05
2.01464e-06
8.75207e-05
1.77426e-06
8.77244e-05
1.54404e-06
8.79094e-05
1.32955e-06
8.80799e-05
1.13272e-06
8.82389e-05
9.53413e-07
8.83885e-05
7.90533e-07
8.85305e-05
6.42628e-07
8.8666e-05
5.08122e-07
8.87959e-05
3.85473e-07
8.89211e-05
2.73251e-07
8.9042e-05
1.70176e-07
8.91593e-05
7.51212e-08
8.92732e-05
-1.28791e-08
8.93841e-05
-9.46341e-08
8.94924e-05
-1.70801e-07
8.95982e-05
-2.41883e-07
8.97018e-05
-3.08234e-07
8.98035e-05
-3.70046e-07
8.99034e-05
-4.2735e-07
9.00021e-05
-4.80004e-07
9.00999e-05
-5.277e-07
9.01978e-05
-5.69984e-07
9.02969e-05
-6.06328e-07
9.03989e-05
-6.36143e-07
-6.59364e-07
9.05064e-05
8.70492e-05
5.16834e-07
8.7376e-05
1.42396e-06
8.77793e-05
1.97658e-06
8.81824e-05
2.2058e-06
8.85567e-05
2.23169e-06
8.88911e-05
2.13172e-06
8.91854e-05
1.95924e-06
8.94452e-05
1.75483e-06
8.96769e-05
1.54254e-06
8.98861e-05
1.33484e-06
9.00774e-05
1.13828e-06
9.02543e-05
9.55794e-07
9.04196e-05
7.88121e-07
9.05753e-05
6.34832e-07
9.0723e-05
4.94958e-07
9.08638e-05
3.67278e-07
9.09988e-05
2.50513e-07
9.11286e-05
1.43421e-07
9.12539e-05
4.48597e-08
9.13752e-05
-4.61957e-08
9.1493e-05
-1.30635e-07
9.16076e-05
-2.09212e-07
9.17193e-05
-2.82547e-07
9.18286e-05
-3.51123e-07
9.19356e-05
-4.15293e-07
9.20409e-05
-4.75274e-07
9.21447e-05
-5.31157e-07
9.22476e-05
-5.8291e-07
9.23503e-05
-6.30404e-07
9.24537e-05
-6.73441e-07
9.25592e-05
-7.11837e-07
9.26685e-05
-7.45445e-07
-7.74591e-07
9.27838e-05
8.95078e-05
4.14566e-07
8.9779e-05
1.1528e-06
9.01284e-05
1.62712e-06
9.04913e-05
1.84296e-06
9.08389e-05
1.88405e-06
9.11586e-05
1.81205e-06
9.14469e-05
1.67095e-06
9.17062e-05
1.49546e-06
9.19409e-05
1.30791e-06
9.21549e-05
1.12083e-06
9.23519e-05
9.41227e-07
9.2535e-05
7.72704e-07
9.27065e-05
6.16619e-07
9.28683e-05
4.73067e-07
9.30218e-05
3.41476e-07
9.31681e-05
2.20935e-07
9.33082e-05
1.10388e-07
9.34429e-05
8.76203e-09
9.35727e-05
-8.49613e-08
9.36982e-05
-1.71715e-07
9.38199e-05
-2.52325e-07
9.39382e-05
-3.27499e-07
9.40535e-05
-3.97829e-07
9.41662e-05
-4.63792e-07
9.42766e-05
-5.25749e-07
9.43853e-05
-5.83958e-07
9.44927e-05
-6.3858e-07
9.45995e-05
-6.89698e-07
9.47065e-05
-7.37346e-07
9.48146e-05
-7.81544e-07
9.49251e-05
-8.22376e-07
9.50397e-05
-8.6002e-07
-8.95025e-07
9.51601e-05
9.20439e-05
3.30574e-07
9.22716e-05
9.25073e-07
9.25762e-05
1.32252e-06
9.29037e-05
1.5154e-06
9.3227e-05
1.56083e-06
9.35322e-05
1.50684e-06
9.38138e-05
1.38928e-06
9.4072e-05
1.23734e-06
9.43088e-05
1.07108e-06
9.45271e-05
9.02499e-07
9.47297e-05
7.38697e-07
9.49188e-05
5.83581e-07
9.50965e-05
4.38918e-07
9.52644e-05
3.05176e-07
9.54238e-05
1.82089e-07
9.55757e-05
6.89855e-08
9.57211e-05
-3.50033e-08
9.58607e-05
-1.30808e-07
9.59951e-05
-2.19343e-07
9.61248e-05
-3.01464e-07
9.62504e-05
-3.77941e-07
9.63724e-05
-4.49447e-07
9.64911e-05
-5.16554e-07
9.6607e-05
-5.79738e-07
9.67207e-05
-6.39381e-07
9.68325e-05
-6.95783e-07
9.69431e-05
-7.49175e-07
9.70531e-05
-7.99743e-07
9.71634e-05
-8.47658e-07
9.7275e-05
-8.93112e-07
9.7389e-05
-9.36379e-07
9.75068e-05
-9.77851e-07
-1.01818e-06
9.763e-05
9.46575e-05
2.60239e-07
9.48513e-05
7.31262e-07
9.51189e-05
1.05497e-06
9.54159e-05
1.21835e-06
9.57172e-05
1.25955e-06
9.60088e-05
1.21524e-06
9.62838e-05
1.1143e-06
9.65402e-05
9.80891e-07
9.67788e-05
8.32517e-07
9.7001e-05
6.80282e-07
9.72087e-05
5.31e-07
9.74036e-05
3.88625e-07
9.75874e-05
2.55126e-07
9.77614e-05
1.312e-07
9.79267e-05
1.67872e-08
9.80843e-05
-8.86067e-08
9.8235e-05
-1.85707e-07
9.83795e-05
-2.75334e-07
9.85185e-05
-3.58319e-07
9.86525e-05
-4.35454e-07
9.8782e-05
-5.07465e-07
9.89076e-05
-5.74998e-07
9.90296e-05
-6.38615e-07
9.91487e-05
-6.98794e-07
9.92652e-05
-7.55939e-07
9.93799e-05
-8.1039e-07
9.94931e-05
-8.62441e-07
9.96057e-05
-9.12361e-07
9.97185e-05
-9.60425e-07
9.98323e-05
-1.00694e-06
9.99483e-05
-1.05231e-06
0.000100067
-1.09704e-06
-1.1418e-06
0.000100191
9.73495e-05
2.00212e-07
9.75169e-05
5.63889e-07
9.77542e-05
8.17687e-07
9.80253e-05
9.47251e-07
9.83073e-05
9.77545e-07
9.85865e-05
9.36059e-07
9.88551e-05
8.45711e-07
9.91098e-05
7.26214e-07
9.93498e-05
5.92479e-07
9.95757e-05
4.54413e-07
9.97884e-05
3.18304e-07
9.99891e-05
1.87925e-07
0.000100179
6.52608e-08
0.000100359
-4.88949e-08
0.00010053
-1.54488e-07
0.000100694
-2.51905e-07
0.00010085
-3.41778e-07
0.000100999
-4.24848e-07
0.000101143
-5.01888e-07
0.000101281
-5.73643e-07
0.000101414
-6.40809e-07
0.000101543
-7.04012e-07
0.000101668
-7.63805e-07
0.00010179
-8.20675e-07
0.000101909
-8.75044e-07
0.000102026
-9.27285e-07
0.000102142
-9.77739e-07
0.000102256
-1.02674e-06
0.00010237
-1.07462e-06
0.000102485
-1.12177e-06
0.000102601
-1.16865e-06
0.00010272
-1.21581e-06
-1.26388e-06
0.000102842
0.000100121
1.48e-07
0.000100268
4.17032e-07
0.000100481
6.04821e-07
0.00010073
6.97816e-07
0.000100996
7.12028e-07
0.000101264
6.67706e-07
0.000101527
5.82768e-07
0.00010178
4.73032e-07
0.000102022
3.50888e-07
0.000102252
2.24891e-07
0.000102469
1.00609e-07
0.000102676
-1.85459e-08
0.000102872
-1.3073e-07
0.000103058
-2.35177e-07
0.000103235
-3.31812e-07
0.000103404
-4.20982e-07
0.000103566
-5.03272e-07
0.00010372
-5.79383e-07
0.000103869
-6.5005e-07
0.000104011
-7.15992e-07
0.000104148
-7.77883e-07
0.00010428
-8.36338e-07
0.000104408
-8.91907e-07
0.000104533
-9.45081e-07
0.000104654
-9.96296e-07
0.000104773
-1.04595e-06
0.000104889
-1.09441e-06
0.000105005
-1.14205e-06
0.000105119
-1.18924e-06
0.000105234
-1.23639e-06
0.000105349
-1.28397e-06
0.000105466
-1.33253e-06
-1.38261e-06
0.000105585
0.000102974
1.01702e-07
0.000103105
2.85945e-07
0.000103299
4.11288e-07
0.000103531
4.65989e-07
0.000103783
4.60114e-07
0.000104042
4.08324e-07
0.0001043
3.24382e-07
0.000104553
2.20735e-07
0.000104796
1.07407e-07
0.00010503
-8.48517e-09
0.000105252
-1.22222e-07
0.000105465
-2.309e-07
0.000105667
-3.32949e-07
0.00010586
-4.27742e-07
0.000106043
-5.15268e-07
0.000106218
-5.95898e-07
0.000106385
-6.70222e-07
0.000106544
-7.38933e-07
0.000106697
-8.02756e-07
0.000106844
-8.62401e-07
0.000106984
-9.18531e-07
0.00010712
-9.71756e-07
0.00010725
-1.02263e-06
0.000107377
-1.07163e-06
0.0001075
-1.11922e-06
0.00010762
-1.1658e-06
0.000107737
-1.21175e-06
0.000107852
-1.25746e-06
0.000107967
-1.30329e-06
0.00010808
-1.34967e-06
0.000108193
-1.39702e-06
0.000108306
-1.44586e-06
-1.49662e-06
0.00010842
0.000105911
5.98174e-08
0.00010603
1.66748e-07
0.000106208
2.32635e-07
0.000106427
2.47924e-07
0.000106668
2.18823e-07
0.00010692
1.5576e-07
0.000107176
6.90713e-08
0.000107428
-3.1693e-08
0.000107674
-1.38695e-07
0.000107912
-2.46268e-07
0.00010814
-3.50643e-07
0.000108359
-4.49528e-07
0.000108568
-5.41741e-07
0.000108767
-6.2689e-07
0.000108957
-7.0511e-07
0.000109138
-7.76859e-07
0.00010931
-8.42779e-07
0.000109475
-9.03591e-07
0.000109632
-9.60036e-07
0.000109783
-1.01283e-06
0.000109927
-1.06264e-06
0.000110065
-1.11007e-06
0.000110198
-1.15568e-06
0.000110327
-1.19996e-06
0.000110451
-1.24335e-06
0.000110571
-1.28626e-06
0.000110688
-1.32906e-06
0.000110803
-1.37213e-06
0.000110916
-1.41583e-06
0.000111027
-1.46054e-06
0.000111136
-1.50663e-06
0.000111245
-1.55455e-06
-1.6046e-06
0.000111353
0.000108932
2.11232e-08
0.000109043
5.61879e-08
0.00010921
6.48956e-08
0.000109418
3.9941e-08
0.000109652
-1.48997e-08
0.0001099
-9.23695e-08
0.000110154
-1.84939e-07
0.000110408
-2.85552e-07
0.000110658
-3.88372e-07
0.000110901
-4.89173e-07
0.000111135
-5.85194e-07
0.000111361
-6.74844e-07
0.000111576
-7.57422e-07
0.000111782
-8.32861e-07
0.000111979
-9.01511e-07
0.000112166
-9.63977e-07
0.000112344
-1.02099e-06
0.000112514
-1.07335e-06
0.000112675
-1.12182e-06
0.00011283
-1.16715e-06
0.000112977
-1.21001e-06
0.000113118
-1.25103e-06
0.000113253
-1.29075e-06
0.000113383
-1.32966e-06
0.000113508
-1.36819e-06
0.000113628
-1.40674e-06
0.000113745
-1.44568e-06
0.000113858
-1.48534e-06
0.000113968
-1.52605e-06
0.000114076
-1.56814e-06
0.000114181
-1.61192e-06
0.000114284
-1.65775e-06
-1.70582e-06
0.000114386
0.000112041
-1.54254e-08
0.000112146
-4.85661e-08
0.000112306
-9.55774e-08
0.000112508
-1.61586e-07
0.000112737
-2.44295e-07
0.000112984
-3.38814e-07
0.000113239
-4.39913e-07
0.000113496
-5.42696e-07
0.000113751
-6.4316e-07
0.000114
-7.38486e-07
0.000114242
-8.26965e-07
0.000114475
-9.07779e-07
0.000114698
-9.80787e-07
0.000114911
-1.04632e-06
0.000115115
-1.10502e-06
0.000115309
-1.15768e-06
0.000115493
-1.20519e-06
0.000115668
-1.24842e-06
0.000115834
-1.28821e-06
0.000115992
-1.32536e-06
0.000116143
-1.36055e-06
0.000116286
-1.39442e-06
0.000116423
-1.42752e-06
0.000116554
-1.46032e-06
0.000116679
-1.49325e-06
0.000116799
-1.52668e-06
0.000116914
-1.56094e-06
0.000117025
-1.59633e-06
0.000117132
-1.63313e-06
0.000117236
-1.67161e-06
0.000117336
-1.712e-06
0.000117432
-1.75455e-06
-1.79934e-06
0.000117526
0.00011524
-5.07551e-08
0.000115341
-1.50069e-07
0.000115498
-2.52213e-07
0.000115697
-3.60234e-07
0.000115925
-4.72695e-07
0.000116173
-5.86479e-07
0.000116431
-6.98276e-07
0.000116693
-8.05094e-07
0.000116955
-9.04631e-07
0.000117212
-9.95455e-07
0.000117462
-1.07694e-06
0.000117703
-1.1491e-06
0.000117935
-1.21243e-06
0.000118156
-1.26773e-06
0.000118367
-1.31597e-06
0.000118568
-1.35821e-06
0.000118758
-1.3955e-06
0.000118938
-1.42886e-06
0.000119109
-1.4592e-06
0.000119271
-1.48737e-06
0.000119425
-1.5141e-06
0.000119571
-1.54002e-06
0.000119709
-1.5657e-06
0.00011984
-1.59159e-06
0.000119965
-1.61811e-06
0.000120084
-1.64559e-06
0.000120197
-1.67432e-06
0.000120305
-1.70456e-06
0.000120409
-1.73653e-06
0.000120508
-1.77042e-06
0.000120602
-1.80639e-06
0.000120692
-1.84462e-06
-1.88508e-06
0.000120778
0.000118531
-8.57515e-08
0.000118632
-2.50799e-07
0.000118788
-4.08488e-07
0.000118987
-5.59867e-07
0.000119219
-7.03962e-07
0.000119471
-8.39025e-07
0.000119736
-9.63377e-07
0.000120007
-1.07574e-06
0.000120278
-1.17543e-06
0.000120545
-1.26239e-06
0.000120805
-1.33711e-06
0.000121056
-1.40051e-06
0.000121298
-1.45377e-06
0.000121528
-1.49823e-06
0.000121748
-1.53527e-06
0.000121956
-1.56625e-06
0.000122152
-1.59243e-06
0.000122339
-1.61499e-06
0.000122514
-1.63494e-06
0.00012268
-1.6532e-06
0.000122837
-1.67053e-06
0.000122984
-1.6876e-06
0.000123123
-1.70496e-06
0.000123255
-1.72306e-06
0.000123379
-1.74227e-06
0.000123496
-1.7629e-06
0.000123607
-1.7852e-06
0.000123712
-1.80936e-06
0.000123811
-1.83555e-06
0.000123905
-1.86388e-06
0.000123993
-1.89442e-06
0.000124075
-1.92725e-06
-1.96225e-06
0.000124152
0.000121917
-1.21282e-07
0.000122019
-3.53194e-07
0.000122179
-5.67845e-07
0.000122383
-7.64317e-07
0.000122621
-9.41881e-07
0.000122882
-1.09993e-06
0.000123157
-1.23826e-06
0.000123438
-1.35723e-06
0.000123721
-1.45772e-06
0.000123999
-1.54107e-06
0.000124271
-1.60895e-06
0.000124534
-1.66321e-06
0.000124786
-1.7058e-06
0.000125026
-1.73866e-06
0.000125255
-1.76361e-06
0.000125471
-1.78235e-06
0.000125675
-1.7964e-06
0.000125867
-1.80711e-06
0.000126047
-1.81563e-06
0.000126217
-1.82295e-06
0.000126377
-1.82988e-06
0.000126526
-1.8371e-06
0.000126666
-1.84517e-06
0.000126798
-1.85451e-06
0.000126921
-1.86548e-06
0.000127036
-1.87834e-06
0.000127144
-1.89329e-06
0.000127246
-1.91046e-06
0.00012734
-1.92995e-06
0.000127428
-1.95181e-06
0.000127509
-1.97603e-06
0.000127585
-2.00264e-06
-2.03143e-06
0.000127654
0.000125401
-1.58356e-07
0.000125507
-4.60099e-07
0.000125674
-7.34498e-07
0.000125888
-9.78618e-07
0.000126138
-1.19186e-06
0.000126413
-1.37464e-06
0.000126703
-1.52815e-06
0.000127
-1.65436e-06
0.000127298
-1.75579e-06
0.000127592
-1.83522e-06
0.000127879
-1.89558e-06
0.000128156
-1.93978e-06
0.00012842
-1.97058e-06
0.000128672
-1.9906e-06
0.000128911
-2.00216e-06
0.000129136
-2.00734e-06
0.000129347
-2.00794e-06
0.000129546
-2.00552e-06
0.000129731
-2.00136e-06
0.000129905
-1.99652e-06
0.000130067
-1.99189e-06
0.000130218
-1.98816e-06
0.000130359
-1.98587e-06
0.00013049
-1.98544e-06
0.000130611
-1.98717e-06
0.000130724
-1.9913e-06
0.000130829
-1.99795e-06
0.000130926
-2.00721e-06
0.000131015
-2.0191e-06
0.000131097
-2.03358e-06
0.000131171
-2.0506e-06
0.000131239
-2.07005e-06
-2.09168e-06
0.000131299
0.000128985
-1.97933e-07
0.000129099
-5.7427e-07
0.000129277
-9.12316e-07
0.000129505
-1.20705e-06
0.000129771
-1.45813e-06
0.000130064
-1.66708e-06
0.000130372
-1.83658e-06
0.000130688
-1.97032e-06
0.000131005
-2.07249e-06
0.000131317
-2.14742e-06
0.000131621
-2.19935e-06
0.000131913
-2.23232e-06
0.000132193
-2.25e-06
0.000132458
-2.25572e-06
0.000132708
-2.25237e-06
0.000132943
-2.24246e-06
0.000133163
-2.22811e-06
0.000133369
-2.21107e-06
0.00013356
-2.1928e-06
0.000133738
-2.17445e-06
0.000133903
-2.15696e-06
0.000134056
-2.14104e-06
0.000134198
-2.12723e-06
0.000134328
-2.11591e-06
0.000134448
-2.10736e-06
0.000134559
-2.10175e-06
0.00013466
-2.09916e-06
0.000134752
-2.09961e-06
0.000134836
-2.10305e-06
0.000134912
-2.10939e-06
0.00013498
-2.1185e-06
0.00013504
-2.13023e-06
-2.14427e-06
0.000135093
0.000132673
-2.41708e-07
0.000132799
-7.00347e-07
0.000132995
-1.10828e-06
0.000133246
-1.45812e-06
0.000133538
-1.7499e-06
0.000133857
-1.98644e-06
0.000134193
-2.17212e-06
0.000134535
-2.31265e-06
0.000134877
-2.41418e-06
0.000135212
-2.48281e-06
0.000135537
-2.52428e-06
0.000135848
-2.54386e-06
0.000136145
-2.54624e-06
0.000136425
-2.53553e-06
0.000136687
-2.51521e-06
0.000136933
-2.48823e-06
0.000137162
-2.45705e-06
0.000137375
-2.42366e-06
0.000137572
-2.38965e-06
0.000137753
-2.35628e-06
0.000137921
-2.32452e-06
0.000138075
-2.29509e-06
0.000138216
-2.26853e-06
0.000138346
-2.24519e-06
0.000138463
-2.22529e-06
0.000138571
-2.20894e-06
0.000138668
-2.19617e-06
0.000138755
-2.18692e-06
0.000138833
-2.18108e-06
0.000138902
-2.17848e-06
0.000138962
-2.1789e-06
0.000139014
-2.18212e-06
-2.18776e-06
0.000139058
0.000136467
-2.90523e-07
0.000136608
-8.41211e-07
0.000136826
-1.32613e-06
0.000137103
-1.7357e-06
0.000137425
-2.07108e-06
0.000137775
-2.33677e-06
0.000138142
-2.53911e-06
0.000138515
-2.68598e-06
0.000138887
-2.7857e-06
0.00013925
-2.84627e-06
0.000139601
-2.87512e-06
0.000139936
-2.87889e-06
0.000140253
-2.86342e-06
0.000140551
-2.83368e-06
0.00014083
-2.79384e-06
0.000141089
-2.74736e-06
0.000141329
-2.69705e-06
0.000141551
-2.64514e-06
0.000141754
-2.5934e-06
0.000141941
-2.54317e-06
0.000142112
-2.49546e-06
0.000142268
-2.45101e-06
0.00014241
-2.4103e-06
0.000142538
-2.37366e-06
0.000142654
-2.34125e-06
0.000142759
-2.31311e-06
0.000142852
-2.28921e-06
0.000142934
-2.26942e-06
0.000143007
-2.25355e-06
0.000143069
-2.24139e-06
0.000143123
-2.23265e-06
0.000143168
-2.22707e-06
-2.22423e-06
0.000143205
0.000140374
-3.4903e-07
0.000140541
-1.00809e-06
0.000140797
-1.58177e-06
0.000141119
-2.05773e-06
0.000141487
-2.4393e-06
0.000141884
-2.7337e-06
0.000142295
-2.95026e-06
0.000142709
-3.1e-06
0.000143117
-3.19399e-06
0.000143514
-3.2425e-06
0.000143893
-3.25481e-06
0.000144254
-3.23906e-06
0.000144592
-3.20226e-06
0.000144909
-3.15027e-06
0.000145203
-3.08795e-06
0.000145475
-3.01925e-06
0.000145725
-2.94732e-06
0.000145955
-2.87463e-06
0.000146164
-2.8031e-06
0.000146355
-2.73414e-06
0.000146529
-2.66878e-06
0.000146685
-2.60775e-06
0.000146827
-2.55151e-06
0.000146953
-2.5003e-06
0.000147066
-2.45424e-06
0.000147166
-2.41329e-06
0.000147255
-2.37733e-06
0.000147331
-2.34616e-06
0.000147397
-2.31951e-06
0.000147453
-2.29709e-06
0.000147499
-2.27853e-06
0.000147535
-2.26348e-06
-2.25142e-06
0.000147562
0.000144391
-4.15065e-07
0.000144582
-1.19987e-06
0.000144875
-1.87408e-06
0.000145241
-2.4245e-06
0.00014566
-2.85789e-06
0.00014611
-3.18405e-06
0.000146575
-3.41532e-06
0.000147042
-3.56632e-06
0.000147499
-3.65144e-06
0.00014794
-3.68372e-06
0.00014836
-3.67476e-06
0.000148756
-3.63457e-06
0.000149125
-3.57158e-06
0.000149468
-3.49273e-06
0.000149783
-3.40365e-06
0.000150073
-3.30884e-06
0.000150338
-3.2118e-06
0.000150578
-3.11525e-06
0.000150796
-3.02119e-06
0.000150993
-2.93109e-06
0.00015117
-2.84599e-06
0.000151329
-2.76655e-06
0.000151471
-2.69315e-06
0.000151596
-2.62597e-06
0.000151707
-2.56502e-06
0.000151804
-2.51018e-06
0.000151888
-2.46124e-06
0.00015196
-2.41791e-06
0.00015202
-2.37985e-06
0.00015207
-2.34671e-06
0.000152109
-2.31806e-06
0.000152139
-2.29354e-06
-2.27254e-06
0.00015216
0.000148541
-5.08021e-07
0.000148794
-1.45322e-06
0.000149166
-2.24571e-06
0.000149616
-2.87434e-06
0.000150114
-3.35588e-06
0.000150636
-3.70667e-06
0.000151166
-3.94463e-06
0.000151689
-4.08929e-06
0.000152196
-4.15861e-06
0.000152681
-4.16844e-06
0.000153138
-4.13259e-06
0.000153567
-4.06286e-06
0.000153964
-3.96899e-06
0.00015433
-3.85895e-06
0.000154666
-3.73912e-06
0.000154971
-3.61451e-06
0.000155249
-3.48899e-06
0.000155499
-3.36548e-06
0.000155724
-3.24611e-06
0.000155925
-3.13237e-06
0.000156104
-3.02527e-06
0.000156263
-2.9254e-06
0.000156403
-2.83307e-06
0.000156525
-2.74833e-06
0.000156631
-2.67109e-06
0.000156722
-2.60111e-06
0.000156799
-2.53808e-06
0.000156863
-2.48162e-06
0.000156914
-2.43131e-06
0.000156954
-2.38668e-06
0.000156984
-2.34724e-06
0.000157003
-2.31251e-06
-2.28178e-06
0.000157012
0.000152784
-6.0338e-07
0.000153074
-1.7426e-06
0.000153507
-2.67858e-06
0.000154039
-3.40704e-06
0.000154635
-3.95135e-06
0.00015526
-4.33182e-06
0.000155889
-4.5739e-06
0.000156505
-4.70485e-06
0.000157095
-4.74838e-06
0.000157651
-4.72459e-06
0.000158169
-4.65065e-06
0.000158647
-4.54074e-06
0.000159084
-4.4063e-06
0.000159482
-4.25646e-06
0.000159841
-4.09837e-06
0.000160164
-3.93752e-06
0.000160453
-3.77803e-06
0.00016071
-3.62293e-06
0.000160939
-3.47434e-06
0.00016114
-3.33369e-06
0.000161316
-3.20186e-06
0.00016147
-3.07928e-06
0.000161603
-2.9661e-06
0.000161717
-2.86222e-06
0.000161814
-2.76736e-06
0.000161894
-2.68115e-06
0.000161959
-2.60314e-06
0.00016201
-2.53284e-06
0.000162048
-2.46976e-06
0.000162075
-2.41339e-06
0.000162091
-2.36318e-06
0.000162097
-2.31868e-06
-2.27906e-06
0.000162094
0.000157246
-7.9776e-07
0.000157696
-2.19263e-06
0.000158287
-3.27001e-06
0.000158953
-4.07313e-06
0.000159659
-4.65648e-06
0.000160374
-5.04769e-06
0.00016108
-5.27957e-06
0.000161761
-5.38558e-06
0.000162406
-5.39353e-06
0.000163009
-5.32721e-06
0.000163565
-5.20691e-06
0.000164073
-5.04922e-06
0.000164534
-4.86734e-06
0.00016495
-4.67168e-06
0.000165321
-4.47019e-06
0.000165653
-4.26883e-06
0.000165947
-4.07196e-06
0.000166206
-3.88263e-06
0.000166435
-3.70289e-06
0.000166635
-3.534e-06
0.00016681
-3.3766e-06
0.000166962
-3.23092e-06
0.000167092
-3.09684e-06
0.000167204
-2.974e-06
0.000167299
-2.86193e-06
0.000167378
-2.76004e-06
0.000167442
-2.6677e-06
0.000167494
-2.58428e-06
0.000167533
-2.50919e-06
0.000167561
-2.44185e-06
0.00016758
-2.38174e-06
0.00016759
-2.32834e-06
-2.28081e-06
0.000167591
0.000161692
-9.5136e-07
0.000162214
-2.71498e-06
0.000162954
-4.0094e-06
0.000163817
-4.93645e-06
0.000164728
-5.56737e-06
0.00016563
-5.95001e-06
0.000166495
-6.14453e-06
0.00016731
-6.20045e-06
0.00016807
-6.15339e-06
0.000168775
-6.03178e-06
0.000169426
-5.85837e-06
0.000170027
-5.65066e-06
0.000170582
-5.42214e-06
0.000171094
-5.18313e-06
0.000171565
-4.94137e-06
0.000171999
-4.70261e-06
0.000172398
-4.47099e-06
0.000172764
-4.2494e-06
0.000173101
-4.03975e-06
0.00017341
-3.84314e-06
0.000173694
-3.6601e-06
0.000173954
-3.49069e-06
0.000174192
-3.33465e-06
0.000174409
-3.19147e-06
0.000174608
-3.06051e-06
0.000174789
-2.94103e-06
0.000174953
-2.83228e-06
0.000175102
-2.73354e-06
0.000175237
-2.6442e-06
0.000175359
-2.5637e-06
0.000175469
-2.49186e-06
0.000175569
-2.42821e-06
-2.37302e-06
0.000175661
0.000166689
-1.48724e-06
0.000167547
-3.57247e-06
0.00016849
-4.95198e-06
0.000169509
-5.95613e-06
0.000170608
-6.66587e-06
0.000171765
-7.1076e-06
0.000172963
-7.3424e-06
0.000174179
-7.41644e-06
0.000175389
-7.36367e-06
0.000176573
-7.21507e-06
0.000177712
-6.9973e-06
0.000178793
-6.73218e-06
0.000179808
-6.43738e-06
0.000180752