/*--------------------------------*- C++ -*----------------------------------*\
  =========                 |
  \\      /  F ield         | OpenFOAM: The Open Source CFD Toolbox
   \\    /   O peration     | Website:  https://openfoam.org
    \\  /    A nd           | Version:  10
     \\/     M anipulation  |
\*---------------------------------------------------------------------------*/
FoamFile
{
    format      ascii;
    class       volVectorField;
    location    "0.125";
    object      U;
}
// * * * * * * * * * * * * * * * * * * * * * * * * * * * * * * * * * * * * * //

dimensions      [0 1 -1 0 0 0 0];

internalField   nonuniform List<vector> 
6820
(
(5.57356 0.459152 0)
(3.88302 0.245924 0)
(2.58927 0.00880731 0)
(1.95741 -0.0641776 0)
(1.73217 -0.0594851 0)
(1.62117 -0.0340218 0)
(1.5564 -0.0153629 0)
(1.51071 -0.00529228 0)
(1.47242 -0.000697115 0)
(1.43941 0.000810882 0)
(1.41113 0.000871276 0)
(1.3871 0.000368984 0)
(1.36684 -0.000287464 0)
(1.34983 -0.000917863 0)
(1.33561 -0.00145313 0)
(1.32376 -0.00187817 0)
(1.31395 -0.00220165 0)
(1.30591 -0.00244034 0)
(1.29942 -0.00261172 0)
(1.2943 -0.00273111 0)
(1.29043 -0.00281115 0)
(1.2877 -0.00285885 0)
(1.286 -0.00288453 0)
(1.28535 -0.00285317 0)
(1.28566 -0.00295 0)
(1.28691 -0.00305927 0)
(1.28912 -0.00319793 0)
(1.29257 -0.00333748 0)
(1.29688 -0.00369296 0)
(1.30425 -0.00392112 0)
(1.31014 -0.00584072 0)
(1.33223 -0.00387215 0)
(1.32603 -0.0349277 0)
(7.66981 0.863902 0)
(7.71729 0.890796 0)
(7.00021 0.598408 0)
(6.19785 0.347467 0)
(5.58478 0.179508 0)
(5.14052 0.0929715 0)
(4.82406 0.0525706 0)
(4.59598 0.0340471 0)
(4.42532 0.0255337 0)
(4.29279 0.021172 0)
(4.18671 0.0184908 0)
(4.09974 0.0165499 0)
(4.02722 0.0149757 0)
(3.96599 0.0136041 0)
(3.91387 0.0123521 0)
(3.86927 0.0111758 0)
(3.83098 0.0100519 0)
(3.7981 0.00896769 0)
(3.76991 0.00791512 0)
(3.74583 0.00688832 0)
(3.7254 0.00588163 0)
(3.70825 0.00489128 0)
(3.69406 0.00390503 0)
(3.68257 0.00292887 0)
(3.67358 0.00188975 0)
(3.66696 0.000809919 0)
(3.66262 -0.000375897 0)
(3.66057 -0.00171012 0)
(3.6608 -0.00354796 0)
(3.66394 -0.00556352 0)
(3.66955 -0.0102472 0)
(3.68202 -0.0153234 0)
(3.6962 -0.0320764 0)
(7.56352 0.520308 0)
(8.22519 0.66354 0)
(8.4649 0.576114 0)
(8.36423 0.458511 0)
(8.12883 0.344377 0)
(7.8526 0.259432 0)
(7.58333 0.199698 0)
(7.34084 0.156779 0)
(7.12846 0.125514 0)
(6.94423 0.10221 0)
(6.7849 0.0843788 0)
(6.64707 0.070436 0)
(6.52766 0.0593365 0)
(6.424 0.0503658 0)
(6.33383 0.0430062 0)
(6.25528 0.0368704 0)
(6.18676 0.0316684 0)
(6.12695 0.0271837 0)
(6.07474 0.0232532 0)
(6.02921 0.0197526 0)
(5.98958 0.0165849 0)
(5.9552 0.0136727 0)
(5.92552 0.0109485 0)
(5.90008 0.00834779 0)
(5.87848 0.00584121 0)
(5.86044 0.00334677 0)
(5.84568 0.000763138 0)
(5.83403 -0.00202815 0)
(5.82532 -0.00534429 0)
(5.81964 -0.00931502 0)
(5.8168 -0.0155322 0)
(5.81593 -0.0237869 0)
(5.81598 -0.0402912 0)
(7.43337 0.341086 0)
(7.88465 0.51447 0)
(8.24335 0.489552 0)
(8.44193 0.429706 0)
(8.54168 0.358438 0)
(8.57191 0.297799 0)
(8.55722 0.251626 0)
(8.51722 0.216041 0)
(8.46296 0.188031 0)
(8.4009 0.165333 0)
(8.33522 0.146355 0)
(8.26868 0.130138 0)
(8.20306 0.116058 0)
(8.13969 0.103675 0)
(8.07938 0.0926973 0)
(8.02261 0.0829039 0)
(7.96962 0.0741141 0)
(7.92052 0.0661752 0)
(7.87528 0.0589575 0)
(7.83384 0.0523506 0)
(7.79607 0.0462585 0)
(7.76184 0.0405974 0)
(7.73098 0.0352894 0)
(7.70333 0.0302631 0)
(7.67874 0.0254444 0)
(7.65706 0.0207415 0)
(7.63813 0.0160355 0)
(7.62182 0.0112066 0)
(7.60797 0.0059574 0)
(7.59626 5.24703e-05 0)
(7.58629 -0.00733776 0)
(7.57646 -0.0164136 0)
(7.56626 -0.027717 0)
(7.39682 0.251032 0)
(7.67997 0.42105 0)
(7.92335 0.40398 0)
(8.07726 0.353996 0)
(8.18766 0.29926 0)
(8.26983 0.25356 0)
(8.33057 0.219571 0)
(8.37722 0.193616 0)
(8.41377 0.172943 0)
(8.44228 0.155897 0)
(8.46433 0.141379 0)
(8.48116 0.128721 0)
(8.49377 0.117508 0)
(8.50276 0.107446 0)
(8.50876 0.0983138 0)
(8.51237 0.089943 0)
(8.51411 0.0822031 0)
(8.51443 0.0749911 0)
(8.5137 0.0682238 0)
(8.51224 0.0618318 0)
(8.51031 0.0557561 0)
(8.50814 0.0499436 0)
(8.5059 0.0443442 0)
(8.50373 0.0389069 0)
(8.50175 0.0335785 0)
(8.50005 0.0282909 0)
(8.49868 0.0229522 0)
(8.49763 0.0174523 0)
(8.49684 0.0116069 0)
(8.49607 0.00525897 0)
(8.49486 -0.00189375 0)
(8.49184 -0.00978391 0)
(8.48638 -0.017903 0)
(7.37402 0.180689 0)
(7.57411 0.336134 0)
(7.76081 0.342342 0)
(7.87527 0.313167 0)
(7.95145 0.273991 0)
(8.00676 0.235814 0)
(8.04813 0.204431 0)
(8.0822 0.179301 0)
(8.1124 0.158946 0)
(8.1399 0.142217 0)
(8.16525 0.128155 0)
(8.18874 0.116053 0)
(8.21057 0.105451 0)
(8.23098 0.0960348 0)
(8.25007 0.0875529 0)
(8.26794 0.0798131 0)
(8.28466 0.0726725 0)
(8.30031 0.0660212 0)
(8.31497 0.059772 0)
(8.32871 0.053854 0)
(8.34161 0.0482075 0)
(8.35373 0.0427806 0)
(8.36514 0.0375255 0)
(8.37589 0.0323957 0)
(8.38603 0.0273435 0)
(8.39558 0.0223131 0)
(8.40455 0.0172355 0)
(8.41288 0.012039 0)
(8.42046 0.00662858 0)
(8.42704 0.000960166 0)
(8.43225 -0.00497693 0)
(8.43543 -0.0109373 0)
(8.4361 -0.0160668 0)
(7.35905 0.13277 0)
(7.50329 0.273186 0)
(7.65564 0.295057 0)
(7.75561 0.278335 0)
(7.82165 0.248792 0)
(7.86853 0.216901 0)
(7.90184 0.18921 0)
(7.92733 0.166459 0)
(7.9487 0.147662 0)
(7.96756 0.131944 0)
(7.98478 0.118565 0)
(8.00087 0.106958 0)
(8.01611 0.0967243 0)
(8.03068 0.0875743 0)
(8.04466 0.0792989 0)
(8.05813 0.0717394 0)
(8.07114 0.0647701 0)
(8.0837 0.0582884 0)
(8.09585 0.0522098 0)
(8.1076 0.0464635 0)
(8.11896 0.0409894 0)
(8.12995 0.0357357 0)
(8.14057 0.0306557 0)
(8.15084 0.0257062 0)
(8.16073 0.0208456 0)
(8.17025 0.0160318 0)
(8.17934 0.011221 0)
(8.18793 0.00637865 0)
(8.1959 0.00147605 0)
(8.20302 -0.00345416 0)
(8.20904 -0.00830973 0)
(8.21349 -0.0127577 0)
(8.21612 -0.0161182 0)
(7.34964 0.0990725 0)
(7.4534 0.220587 0)
(7.57642 0.250459 0)
(7.66506 0.243786 0)
(7.72678 0.224159 0)
(7.77238 0.200027 0)
(7.80568 0.177176 0)
(7.83097 0.157238 0)
(7.85164 0.140006 0)
(7.86937 0.125111 0)
(7.88512 0.112162 0)
(7.89951 0.100778 0)
(7.91293 0.0906573 0)
(7.92559 0.0815692 0)
(7.93767 0.0733318 0)
(7.94927 0.0657952 0)
(7.96047 0.0588367 0)
(7.97132 0.0523559 0)
(7.98187 0.0462703 0)
(7.99214 0.0405115 0)
(8.00217 0.0350217 0)
(8.01195 0.0297515 0)
(8.02152 0.0246577 0)
(8.03087 0.0197021 0)
(8.03999 0.014851 0)
(8.04887 0.0100749 0)
(8.05746 0.00535121 0)
(8.06569 0.000672109 0)
(8.07345 -0.00394186 0)
(8.08058 -0.00841837 0)
(8.08687 -0.0125745 0)
(8.09207 -0.0160541 0)
(8.09614 -0.0182978 0)
(7.34381 0.0751151 0)
(7.41918 0.178634 0)
(7.51794 0.213027 0)
(7.59524 0.213958 0)
(7.65164 0.201439 0)
(7.69497 0.18281 0)
(7.72792 0.16346 0)
(7.75358 0.145728 0)
(7.77478 0.12997 0)
(7.79302 0.116093 0)
(7.80919 0.103873 0)
(7.82389 0.093031 0)
(7.83751 0.0833215 0)
(7.85029 0.0745467 0)
(7.86241 0.0665454 0)
(7.87399 0.0591852 0)
(7.88512 0.0523584 0)
(7.89588 0.045976 0)
(7.9063 0.0399642 0)
(7.91643 0.0342605 0)
(7.92631 0.028812 0)
(7.93594 0.0235734 0)
(7.94535 0.0185065 0)
(7.95455 0.0135791 0)
(7.96353 0.00876591 0)
(7.97227 0.00404983 0)
(7.98075 -0.000573942 0)
(7.98891 -0.00508927 0)
(7.99667 -0.00944475 0)
(8.00394 -0.0135322 0)
(8.0106 -0.0171565 0)
(8.01657 -0.0199971 0)
(8.0219 -0.021632 0)
(7.34017 0.0578695 0)
(7.3955 0.144956 0)
(7.47459 0.180434 0)
(7.54143 0.186336 0)
(7.59258 0.179157 0)
(7.6333 0.16538 0)
(7.6654 0.149658 0)
(7.69099 0.134451 0)
(7.71232 0.120426 0)
(7.73077 0.107707 0)
(7.74714 0.0962504 0)
(7.76201 0.0859175 0)
(7.77578 0.0765501 0)
(7.78869 0.0680069 0)
(7.80092 0.0601644 0)
(7.81259 0.0529147 0)
(7.8238 0.0461648 0)
(7.83461 0.039835 0)
(7.84508 0.0338569 0)
(7.85524 0.0281723 0)
(7.86514 0.0227317 0)
(7.87478 0.0174936 0)
(7.8842 0.0124236 0)
(7.89339 0.00749488 0)
(7.90237 0.00268899 0)
(7.91112 -0.00200186 0)
(7.91962 -0.00657003 0)
(7.92784 -0.0109847 0)
(7.93575 -0.0151812 0)
(7.9433 -0.0190476 0)
(7.95045 -0.0224041 0)
(7.95723 -0.0249815 0)
(7.96376 -0.0264731 0)
(7.33788 0.0452151 0)
(7.37902 0.117866 0)
(7.4424 0.152399 0)
(7.49992 0.16166 0)
(7.54608 0.158584 0)
(7.58404 0.148718 0)
(7.61494 0.135989 0)
(7.64016 0.12285 0)
(7.66145 0.110242 0)
(7.68 0.0984975 0)
(7.69653 0.0877228 0)
(7.71157 0.0778819 0)
(7.72549 0.068881 0)
(7.73853 0.0606168 0)
(7.75088 0.0529898 0)
(7.76265 0.0459075 0)
(7.77393 0.0392875 0)
(7.78481 0.0330581 0)
(7.79533 0.0271571 0)
(7.80553 0.021531 0)
(7.81545 0.0161347 0)
(7.82512 0.0109303 0)
(7.83456 0.00588754 0)
(7.84377 0.000983877 0)
(7.85278 -0.0037938 0)
(7.86157 -0.00844682 0)
(7.87014 -0.0129607 0)
(7.87849 -0.0172995 0)
(7.8866 -0.0213976 0)
(7.89448 -0.0251513 0)
(7.90215 -0.0284095 0)
(7.9097 -0.0309634 0)
(7.91727 -0.0326084 0)
(7.33643 0.035747 0)
(7.36744 0.0960142 0)
(7.41836 0.128272 0)
(7.46763 0.139396 0)
(7.50908 0.139171 0)
(7.54427 0.132317 0)
(7.57383 0.122149 0)
(7.59855 0.11096 0)
(7.61973 0.0998116 0)
(7.63835 0.0891465 0)
(7.65503 0.0791598 0)
(7.67024 0.0698947 0)
(7.68432 0.0613163 0)
(7.69751 0.0533633 0)
(7.70998 0.0459658 0)
(7.72186 0.0390533 0)
(7.73325 0.0325589 0)
(7.7442 0.0264217 0)
(7.75478 0.0205871 0)
(7.76504 0.0150075 0)
(7.775 0.00964168 0)
(7.78471 0.00445537 0)
(7.79417 -0.000578627 0)
(7.80342 -0.00547955 0)
(7.81245 -0.0102573 0)
(7.8213 -0.01491 0)
(7.82995 -0.0194215 0)
(7.83843 -0.0237569 0)
(7.84675 -0.0278577 0)
(7.85495 -0.0316381 0)
(7.86309 -0.0349833 0)
(7.87128 -0.0377452 0)
(7.87969 -0.0398016 0)
(7.33548 0.0285117 0)
(7.35923 0.0782751 0)
(7.4003 0.107502 0)
(7.44244 0.119397 0)
(7.47952 0.121123 0)
(7.512 0.116595 0)
(7.54008 0.108557 0)
(7.56414 0.0990534 0)
(7.58507 0.0891779 0)
(7.60366 0.0794564 0)
(7.62043 0.070161 0)
(7.63578 0.0614051 0)
(7.65002 0.0532078 0)
(7.66337 0.0455441 0)
(7.67599 0.0383695 0)
(7.68801 0.0316306 0)
(7.69951 0.0252723 0)
(7.71056 0.0192415 0)
(7.72123 0.0134896 0)
(7.73156 0.00797283 0)
(7.74158 0.00265348 0)
(7.75133 -0.00250018 0)
(7.76084 -0.00751293 0)
(7.77012 -0.0124021 0)
(7.7792 -0.0171762 0)
(7.78811 -0.0218335 0)
(7.79685 -0.0263601 0)
(7.80546 -0.030727 0)
(7.81397 -0.0348886 0)
(7.82244 -0.0387815 0)
(7.83096 -0.0423276 0)
(7.83965 -0.045433 0)
(7.84867 -0.0480398 0)
(7.33486 0.0228634 0)
(7.35332 0.0637639 0)
(7.38666 0.0895996 0)
(7.42269 0.101429 0)
(7.45579 0.104326 0)
(7.48567 0.101463 0)
(7.5122 0.0950979 0)
(7.53548 0.0870162 0)
(7.55607 0.0782829 0)
(7.57456 0.0694625 0)
(7.59138 0.0608688 0)
(7.60685 0.0526579 0)
(7.62124 0.0448857 0)
(7.63474 0.0375553 0)
(7.64751 0.0306429 0)
(7.65966 0.0241108 0)
(7.67128 0.0179158 0)
(7.68244 0.0120135 0)
(7.69319 0.00636166 0)
(7.70358 0.000921347 0)
(7.71366 -0.00434192 0)
(7.72345 -0.00945731 0)
(7.73299 -0.014448 0)
(7.74231 -0.0193306 0)
(7.75143 -0.0241141 0)
(7.76038 -0.0287988 0)
(7.76918 -0.0333755 0)
(7.77789 -0.037824 0)
(7.78655 -0.0421139 0)
(7.79523 -0.0462048 0)
(7.80401 -0.050052 0)
(7.81304 -0.0536077 0)
(7.82245 -0.0568613 0)
(7.33444 0.0183603 0)
(7.34903 0.051778 0)
(7.37631 0.0741175 0)
(7.40717 0.0852715 0)
(7.43669 0.0887285 0)
(7.46412 0.0869989 0)
(7.48912 0.0819238 0)
(7.51153 0.0750196 0)
(7.5317 0.0672741 0)
(7.55002 0.059254 0)
(7.56682 0.0512938 0)
(7.58236 0.0435795 0)
(7.59686 0.0361973 0)
(7.6105 0.029175 0)
(7.6234 0.0225076 0)
(7.63568 0.0161718 0)
(7.64741 0.0101347 0)
(7.65867 0.00435923 0)
(7.6695 -0.00119165 0)
(7.67997 -0.0065532 0)
(7.6901 -0.0117573 0)
(7.69993 -0.0168316 0)
(7.7095 -0.0217989 0)
(7.71884 -0.0266761 0)
(7.72799 -0.0314743 0)
(7.73697 -0.0361974 0)
(7.74582 -0.0408427 0)
(7.75459 -0.0454007 0)
(7.76334 -0.0498561 0)
(7.77214 -0.0541903 0)
(7.78107 -0.0583871 0)
(7.79028 -0.0624351 0)
(7.79986 -0.0663563 0)
(7.33414 0.0146965 0)
(7.34587 0.0417669 0)
(7.36841 0.0606621 0)
(7.39495 0.0707106 0)
(7.4213 0.0742379 0)
(7.44647 0.0731829 0)
(7.46996 0.0690301 0)
(7.49149 0.0630467 0)
(7.51117 0.0561214 0)
(7.52927 0.0488006 0)
(7.546 0.0414225 0)
(7.56158 0.0341875 0)
(7.57617 0.0272 0)
(7.58993 0.0205038 0)
(7.60295 0.0141073 0)
(7.61535 0.00799717 0)
(7.62719 0.0021483 0)
(7.63854 -0.00347038 0)
(7.64945 -0.00889188 0)
(7.65998 -0.0141484 0)
(7.67015 -0.0192701 0)
(7.68001 -0.0242837 0)
(7.6896 -0.029212 0)
(7.69895 -0.0340734 0)
(7.7081 -0.0388813 0)
(7.71708 -0.0436447 0)
(7.72593 -0.0483678 0)
(7.73472 -0.0530512 0)
(7.74349 -0.057694 0)
(7.75231 -0.0622961 0)
(7.76128 -0.0668637 0)
(7.7705 -0.0714124 0)
(7.78006 -0.0759851 0)
(7.33392 0.0116565 0)
(7.34351 0.0332993 0)
(7.36236 0.0488879 0)
(7.38531 0.057538 0)
(7.40889 0.0607517 0)
(7.43202 0.0599934 0)
(7.4541 0.0564465 0)
(7.47473 0.0511539 0)
(7.4939 0.0448922 0)
(7.51173 0.0381673 0)
(7.52837 0.0313047 0)
(7.54395 0.0245066 0)
(7.5586 0.0178864 0)
(7.57245 0.0114988 0)
(7.58559 0.00536161 0)
(7.59809 -0.000530175 0)
(7.61003 -0.00619526 0)
(7.62146 -0.0116598 0)
(7.63244 -0.016953 0)
(7.64301 -0.022105 0)
(7.65322 -0.0271444 0)
(7.6631 -0.0320977 0)
(7.67269 -0.0369885 0)
(7.68203 -0.0418367 0)
(7.69115 -0.0466593 0)
(7.7001 -0.0514697 0)
(7.70893 -0.0562793 0)
(7.71767 -0.0610982 0)
(7.72639 -0.0659375 0)
(7.73516 -0.0708117 0)
(7.74404 -0.0757435 0)
(7.75314 -0.0807672 0)
(7.76251 -0.0859365 0)
(7.33377 0.00908559 0)
(7.34174 0.0260367 0)
(7.3577 0.0384949 0)
(7.37771 0.0455564 0)
(7.39891 0.0481584 0)
(7.42023 0.0473832 0)
(7.44099 0.0441624 0)
(7.46077 0.0393423 0)
(7.47942 0.0335858 0)
(7.49697 0.0273478 0)
(7.51348 0.0209311 0)
(7.52904 0.0145309 0)
(7.54375 0.00826195 0)
(7.55767 0.00218344 0)
(7.5709 -0.0036817 0)
(7.5835 -0.00933394 0)
(7.59552 -0.0147883 0)
(7.60703 -0.020068 0)
(7.61807 -0.0252007 0)
(7.62868 -0.0302152 0)
(7.6389 -0.03514 0)
(7.64878 -0.0400019 0)
(7.65835 -0.0448259 0)
(7.66766 -0.0496342 0)
(7.67673 -0.0544471 0)
(7.68562 -0.0592829 0)
(7.69436 -0.0641591 0)
(7.703 -0.0690938 0)
(7.7116 -0.0741074 0)
(7.72021 -0.0792254 0)
(7.72891 -0.0844815 0)
(7.73775 -0.0899211 0)
(7.7468 -0.0956018 0)
(7.33365 0.00686995 0)
(7.34041 0.0197124 0)
(7.35411 0.0292236 0)
(7.37173 0.0345785 0)
(7.39092 0.0363389 0)
(7.41065 0.0352896 0)
(7.43025 0.0321541 0)
(7.44923 0.0276101 0)
(7.46738 0.0222114 0)
(7.48465 0.0163545 0)
(7.50103 0.0103114 0)
(7.51657 0.00426141 0)
(7.5313 -0.00168669 0)
(7.5453 -0.00747478 0)
(7.55861 -0.0130789 0)
(7.57129 -0.0184979 0)
(7.5834 -0.0237447 0)
(7.59497 -0.0288413 0)
(7.60605 -0.0338139 0)
(7.61669 -0.0386909 0)
(7.62692 -0.0435008 0)
(7.63678 -0.048271 0)
(7.64632 -0.0530278 0)
(7.65556 -0.0577955 0)
(7.66455 -0.0625974 0)
(7.67333 -0.0674558 0)
(7.68195 -0.0723933 0)
(7.69043 -0.0774339 0)
(7.69885 -0.0826047 0)
(7.70724 -0.0879381 0)
(7.71565 -0.0934738 0)
(7.72414 -0.0992627 0)
(7.73275 -0.105361 0)
(7.33356 0.0049238 0)
(7.33939 0.0141137 0)
(7.35135 0.0208496 0)
(7.36706 0.0244281 0)
(7.38457 0.0251708 0)
(7.40295 0.0236372 0)
(7.42152 0.0203818 0)
(7.4398 0.01594 0)
(7.4575 0.0107645 0)
(7.4745 0.00519165 0)
(7.49076 -0.00054266 0)
(7.50627 -0.00628007 0)
(7.52103 -0.0119231 0)
(7.53509 -0.0174193 0)
(7.54848 -0.0227477 0)
(7.56124 -0.0279083 0)
(7.57341 -0.032915 0)
(7.58503 -0.0377903 0)
(7.59615 -0.042561 0)
(7.60679 -0.0472564 0)
(7.61701 -0.0519058 0)
(7.62684 -0.0565383 0)
(7.63631 -0.0611819 0)
(7.64547 -0.0658632 0)
(7.65435 -0.0706084 0)
(7.66299 -0.0754432 0)
(7.67143 -0.0803939 0)
(7.67971 -0.0854888 0)
(7.68787 -0.0907591 0)
(7.69596 -0.0962408 0)
(7.70402 -0.101976 0)
(7.71207 -0.108017 0)
(7.72016 -0.114414 0)
(7.33349 0.00318057 0)
(7.33863 0.00906849 0)
(7.34924 0.0131774 0)
(7.36344 0.0149381 0)
(7.37959 0.0145259 0)
(7.39685 0.0123341 0)
(7.41458 0.0087815 0)
(7.43225 0.00428378 0)
(7.44957 -0.00079783 0)
(7.46635 -0.00618749 0)
(7.48252 -0.0116887 0)
(7.49801 -0.0171687 0)
(7.51281 -0.0225463 0)
(7.52694 -0.0277788 0)
(7.54041 -0.0328513 0)
(7.55325 -0.0377678 0)
(7.56549 -0.0425448 0)
(7.57716 -0.0472062 0)
(7.5883 -0.0517805 0)
(7.59895 -0.056298 0)
(7.60915 -0.0607893 0)
(7.61892 -0.0652848 0)
(7.62831 -0.0698138 0)
(7.63736 -0.0744051 0)
(7.64609 -0.0790865 0)
(7.65456 -0.0838862 0)
(7.66278 -0.0888328 0)
(7.67081 -0.0939567 0)
(7.67867 -0.099291 0)
(7.6864 -0.104873 0)
(7.69403 -0.110743 0)
(7.70159 -0.11695 0)
(7.70909 -0.12354 0)
(7.33344 0.00158676 0)
(7.33806 0.00443413 0)
(7.34767 0.00603429 0)
(7.3607 0.00595087 0)
(7.37579 0.00427663 0)
(7.39216 0.00128629 0)
(7.4092 -0.00270779 0)
(7.42639 -0.00738863 0)
(7.4434 -0.0124758 0)
(7.46003 -0.0177517 0)
(7.47613 -0.0230603 0)
(7.49163 -0.0282981 0)
(7.50649 -0.033404 0)
(7.52069 -0.0383491 0)
(7.53423 -0.0431284 0)
(7.54715 -0.0477531 0)
(7.55944 -0.0522447 0)
(7.57116 -0.0566314 0)
(7.58231 -0.0609446 0)
(7.59295 -0.0652173 0)
(7.6031 -0.0694824 0)
(7.61281 -0.0737722 0)
(7.62209 -0.0781181 0)
(7.631 -0.0825503 0)
(7.63956 -0.0870985 0)
(7.64782 -0.0917922 0)
(7.65579 -0.0966615 0)
(7.66353 -0.101737 0)
(7.67104 -0.107053 0)
(7.67837 -0.112643 0)
(7.68554 -0.118548 0)
(7.69255 -0.12481 0)
(7.69944 -0.131467 0)
(7.33341 9.80102e-05 0)
(7.33765 8.89354e-05 0)
(7.34652 -0.000736352 0)
(7.3587 -0.00268954 0)
(7.373 -0.00571913 0)
(7.38871 -0.0096337 0)
(7.40526 -0.0142052 0)
(7.42212 -0.0191997 0)
(7.43894 -0.024409 0)
(7.45549 -0.0296712 0)
(7.4716 -0.034872 0)
(7.48716 -0.0399384 0)
(7.50211 -0.0448315 0)
(7.51641 -0.0495385 0)
(7.53007 -0.054066 0)
(7.54307 -0.0584335 0)
(7.55544 -0.0626689 0)
(7.5672 -0.0668051 0)
(7.57837 -0.070877 0)
(7.58899 -0.0749206 0)
(7.59909 -0.0789708 0)
(7.60871 -0.083062 0)
(7.61787 -0.0872268 0)
(7.62662 -0.0914969 0)
(7.63499 -0.0959029 0)
(7.643 -0.100475 0)
(7.65069 -0.105243 0)
(7.65809 -0.110237 0)
(7.66523 -0.115489 0)
(7.67212 -0.121032 0)
(7.67878 -0.126899 0)
(7.68522 -0.133129 0)
(7.69146 -0.13975 0)
(7.33338 -0.00132429 0)
(7.33737 -0.00407441 0)
(7.34575 -0.00727782 0)
(7.35735 -0.0111289 0)
(7.37111 -0.0155884 0)
(7.38639 -0.020519 0)
(7.40262 -0.0257564 0)
(7.4193 -0.0311346 0)
(7.43604 -0.0365091 0)
(7.45259 -0.0417711 0)
(7.46876 -0.046849 0)
(7.48442 -0.0517039 0)
(7.49949 -0.0563236 0)
(7.51392 -0.060716 0)
(7.52769 -0.0649034 0)
(7.54079 -0.0689177 0)
(7.55323 -0.0727961 0)
(7.56502 -0.0765787 0)
(7.5762 -0.0803058 0)
(7.5868 -0.0840175 0)
(7.59684 -0.0877519 0)
(7.60635 -0.0915454 0)
(7.61538 -0.0954325 0)
(7.62395 -0.0994457 0)
(7.63209 -0.103616 0)
(7.63985 -0.107973 0)
(7.64724 -0.112547 0)
(7.65428 -0.117365 0)
(7.66102 -0.122457 0)
(7.66745 -0.127851 0)
(7.6736 -0.133577 0)
(7.67947 -0.139666 0)
(7.68507 -0.146138 0)
(7.33337 -0.00271613 0)
(7.33721 -0.00815787 0)
(7.34531 -0.0137361 0)
(7.35659 -0.0195372 0)
(7.37008 -0.0255193 0)
(7.38518 -0.0315836 0)
(7.40132 -0.0376181 0)
(7.418 -0.0435162 0)
(7.43483 -0.0491905 0)
(7.45152 -0.0545815 0)
(7.46787 -0.059658 0)
(7.48373 -0.0644139 0)
(7.499 -0.0688626 0)
(7.51361 -0.0730322 0)
(7.52754 -0.076961 0)
(7.54076 -0.0806931 0)
(7.5533 -0.0842755 0)
(7.56515 -0.0877556 0)
(7.57634 -0.09118 0)
(7.58691 -0.0945929 0)
(7.59687 -0.0980361 0)
(7.60627 -0.101548 0)
(7.61514 -0.105166 0)
(7.62352 -0.108922 0)
(7.63142 -0.112847 0)
(7.63889 -0.116972 0)
(7.64594 -0.121324 0)
(7.65261 -0.125929 0)
(7.65892 -0.130812 0)
(7.66487 -0.135999 0)
(7.67049 -0.141513 0)
(7.67577 -0.147379 0)
(7.68072 -0.153607 0)
(7.33337 -0.004112 0)
(7.33716 -0.0122573 0)
(7.34517 -0.0202419 0)
(7.35637 -0.0280429 0)
(7.36983 -0.0355993 0)
(7.38496 -0.0428325 0)
(7.4012 -0.0496699 0)
(7.41804 -0.0560569 0)
(7.43508 -0.061962 0)
(7.45202 -0.0673788 0)
(7.46863 -0.0723229 0)
(7.48474 -0.0768279 0)
(7.50025 -0.0809402 0)
(7.51508 -0.0847145 0)
(7.52919 -0.0882102 0)
(7.54256 -0.0914875 0)
(7.5552 -0.0946059 0)
(7.56712 -0.0976224 0)
(7.57833 -0.10059 0)
(7.58887 -0.103559 0)
(7.59876 -0.106573 0)
(7.60805 -0.109673 0)
(7.61676 -0.112898 0)
(7.62493 -0.11628 0)
(7.63258 -0.119849 0)
(7.63976 -0.123635 0)
(7.64648 -0.127661 0)
(7.65277 -0.131953 0)
(7.65865 -0.136531 0)
(7.66413 -0.141415 0)
(7.66923 -0.146624 0)
(7.67395 -0.152176 0)
(7.67831 -0.158075 0)
(7.33337 -0.00554882 0)
(7.33722 -0.0164848 0)
(7.34535 -0.0269789 0)
(7.35675 -0.0369088 0)
(7.37048 -0.0461977 0)
(7.38595 -0.0547863 0)
(7.4026 -0.062637 0)
(7.41987 -0.0697396 0)
(7.43737 -0.0761092 0)
(7.45475 -0.0817824 0)
(7.47179 -0.0868138 0)
(7.4883 -0.0912709 0)
(7.50416 -0.0952293 0)
(7.51929 -0.0987685 0)
(7.53364 -0.101968 0)
(7.5472 -0.104906 0)
(7.55997 -0.107655 0)
(7.57196 -0.110284 0)
(7.58319 -0.112854 0)
(7.5937 -0.115422 0)
(7.60351 -0.118036 0)
(7.61266 -0.120743 0)
(7.62119 -0.12358 0)
(7.62913 -0.126583 0)
(7.63651 -0.129781 0)
(7.64337 -0.133202 0)
(7.64973 -0.136869 0)
(7.65562 -0.140803 0)
(7.66105 -0.145021 0)
(7.66605 -0.14954 0)
(7.67062 -0.154371 0)
(7.67478 -0.159526 0)
(7.67852 -0.165004 0)
(7.33338 -0.00706476 0)
(7.33738 -0.0209356 0)
(7.34582 -0.0340452 0)
(7.35764 -0.0461497 0)
(7.37186 -0.0571393 0)
(7.38788 -0.0669666 0)
(7.40511 -0.0756333 0)
(7.42297 -0.0831887 0)
(7.44105 -0.089714 0)
(7.459 -0.0953089 0)
(7.47657 -0.100084 0)
(7.49356 -0.104154 0)
(7.50985 -0.107633 0)
(7.52536 -0.110632 0)
(7.54002 -0.113253 0)
(7.55383 -0.115593 0)
(7.56678 -0.117737 0)
(7.57888 -0.119764 0)
(7.59017 -0.121742 0)
(7.60066 -0.123732 0)
(7.61041 -0.125787 0)
(7.61945 -0.127953 0)
(7.62781 -0.13027 0)
(7.63553 -0.132771 0)
(7.64265 -0.135486 0)
(7.64921 -0.138439 0)
(7.65522 -0.141651 0)
(7.66072 -0.145139 0)
(7.66574 -0.148918 0)
(7.67028 -0.152998 0)
(7.67436 -0.157388 0)
(7.678 -0.162093 0)
(7.68122 -0.167108 0)
(7.33341 -0.00871344 0)
(7.3377 -0.0257992 0)
(7.34676 -0.0418241 0)
(7.35941 -0.0564459 0)
(7.37459 -0.0695415 0)
(7.39164 -0.0810716 0)
(7.40989 -0.0910554 0)
(7.42875 -0.0995719 0)
(7.44775 -0.10674 0)
(7.46654 -0.112703 0)
(7.48485 -0.117613 0)
(7.50249 -0.121627 0)
(7.51932 -0.124899 0)
(7.53526 -0.127572 0)
(7.55027 -0.129781 0)
(7.56433 -0.131646 0)
(7.57746 -0.133273 0)
(7.58966 -0.134757 0)
(7.60098 -0.136179 0)
(7.61144 -0.137608 0)
(7.62109 -0.139104 0)
(7.62998 -0.140718 0)
(7.63814 -0.14249 0)
(7.64561 -0.144456 0)
(7.65244 -0.146644 0)
(7.65866 -0.149078 0)
(7.6643 -0.151776 0)
(7.66939 -0.154751 0)
(7.67396 -0.158015 0)
(7.67802 -0.161574 0)
(7.6816 -0.16543 0)
(7.68471 -0.169586 0)
(7.68735 -0.17403 0)
(7.33345 -0.0105397 0)
(7.33811 -0.0311171 0)
(7.34793 -0.0501423 0)
(7.36158 -0.0671149 0)
(7.37786 -0.0819053 0)
(7.39606 -0.0945336 0)
(7.4155 -0.105111 0)
(7.43553 -0.11382 0)
(7.45565 -0.120878 0)
(7.47548 -0.126506 0)
(7.49474 -0.130921 0)
(7.51321 -0.13433 0)
(7.53077 -0.136921 0)
(7.54733 -0.138869 0)
(7.56284 -0.140326 0)
(7.5773 -0.141428 0)
(7.59071 -0.142295 0)
(7.60311 -0.143027 0)
(7.61454 -0.143711 0)
(7.62503 -0.144423 0)
(7.63464 -0.145223 0)
(7.64341 -0.146163 0)
(7.65141 -0.147285 0)
(7.65866 -0.148623 0)
(7.66523 -0.150204 0)
(7.67114 -0.15205 0)
(7.67643 -0.154176 0)
(7.68115 -0.156593 0)
(7.68531 -0.159308 0)
(7.68894 -0.162325 0)
(7.69208 -0.165642 0)
(7.69472 -0.169258 0)
(7.69692 -0.173157 0)
(7.33352 -0.0126638 0)
(7.33893 -0.0374402 0)
(7.35021 -0.0603311 0)
(7.36571 -0.0807169 0)
(7.38397 -0.0984278 0)
(7.40415 -0.113433 0)
(7.42544 -0.125819 0)
(7.44715 -0.135793 0)
(7.46873 -0.143624 0)
(7.48983 -0.149605 0)
(7.51017 -0.15403 0)
(7.52954 -0.157177 0)
(7.54783 -0.159304 0)
(7.56497 -0.160641 0)
(7.58094 -0.161387 0)
(7.59573 -0.161716 0)
(7.60937 -0.161774 0)
(7.6219 -0.161685 0)
(7.63337 -0.161548 0)
(7.64383 -0.161449 0)
(7.65334 -0.161455 0)
(7.66195 -0.16162 0)
(7.66973 -0.161986 0)
(7.67672 -0.162588 0)
(7.68298 -0.163451 0)
(7.68854 -0.164592 0)
(7.69345 -0.166025 0)
(7.69775 -0.167758 0)
(7.70148 -0.169793 0)
(7.70465 -0.17213 0)
(7.70731 -0.174763 0)
(7.70945 -0.177685 0)
(7.71112 -0.180877 0)
(7.33356 -0.0150937 0)
(7.33955 -0.0442716 0)
(7.35215 -0.0704709 0)
(7.36935 -0.0929803 0)
(7.38955 -0.11187 0)
(7.41183 -0.127371 0)
(7.43529 -0.139784 0)
(7.45911 -0.149477 0)
(7.4827 -0.156828 0)
(7.50561 -0.162191 0)
(7.52755 -0.1659 0)
(7.54831 -0.168263 0)
(7.56777 -0.169555 0)
(7.58586 -0.170022 0)
(7.60259 -0.169876 0)
(7.61796 -0.169302 0)
(7.63203 -0.168457 0)
(7.64485 -0.167472 0)
(7.65649 -0.166457 0)
(7.66703 -0.165501 0)
(7.67652 -0.164676 0)
(7.68505 -0.164039 0)
(7.69267 -0.163633 0)
(7.69945 -0.163493 0)
(7.70545 -0.163643 0)
(7.71071 -0.1641 0)
(7.7153 -0.164875 0)
(7.71925 -0.165973 0)
(7.7226 -0.167394 0)
(7.72538 -0.169134 0)
(7.72765 -0.171186 0)
(7.7294 -0.17354 0)
(7.73071 -0.176172 0)
(7.33381 -0.0182791 0)
(7.34178 -0.0540812 0)
(7.35773 -0.0866083 0)
(7.37867 -0.114756 0)
(7.40239 -0.138296 0)
(7.42781 -0.157256 0)
(7.454 -0.171943 0)
(7.48015 -0.182883 0)
(7.50569 -0.190649 0)
(7.53027 -0.195792 0)
(7.55361 -0.198826 0)
(7.57553 -0.200204 0)
(7.59594 -0.20032 0)
(7.61481 -0.199504 0)
(7.63214 -0.19803 0)
(7.64797 -0.196126 0)
(7.66236 -0.193974 0)
(7.67537 -0.191722 0)
(7.6871 -0.189487 0)
(7.69761 -0.18736 0)
(7.70699 -0.185414 0)
(7.71533 -0.183701 0)
(7.7227 -0.182262 0)
(7.72917 -0.181126 0)
(7.7348 -0.180312 0)
(7.73965 -0.179833 0)
(7.74379 -0.179694 0)
(7.74725 -0.179897 0)
(7.75009 -0.180439 0)
(7.75234 -0.181312 0)
(7.75404 -0.182507 0)
(7.75523 -0.184009 0)
(7.75593 -0.185789 0)
(7.3337 -0.0217265 0)
(7.34211 -0.0624936 0)
(7.36 -0.0971426 0)
(7.38393 -0.125641 0)
(7.4114 -0.148903 0)
(7.44103 -0.167437 0)
(7.47144 -0.181709 0)
(7.50153 -0.192272 0)
(7.5306 -0.199652 0)
(7.55821 -0.204344 0)
(7.58406 -0.206821 0)
(7.608 -0.207521 0)
(7.62999 -0.206839 0)
(7.65003 -0.205121 0)
(7.66819 -0.202666 0)
(7.68456 -0.199727 0)
(7.69924 -0.196513 0)
(7.71234 -0.193196 0)
(7.72398 -0.189909 0)
(7.73428 -0.186761 0)
(7.74333 -0.183832 0)
(7.75125 -0.181182 0)
(7.75812 -0.178853 0)
(7.76404 -0.176876 0)
(7.76907 -0.175269 0)
(7.77329 -0.17404 0)
(7.77677 -0.173195 0)
(7.77955 -0.17273 0)
(7.7817 -0.172641 0)
(7.78325 -0.172918 0)
(7.78427 -0.173547 0)
(7.78479 -0.174514 0)
(7.78487 -0.175782 0)
(7.33482 -0.0280975 0)
(7.34952 -0.0832125 0)
(7.37518 -0.131089 0)
(7.40552 -0.16987 0)
(7.43779 -0.199894 0)
(7.47119 -0.221953 0)
(7.50463 -0.23729 0)
(7.53716 -0.247232 0)
(7.56823 -0.252914 0)
(7.59744 -0.255291 0)
(7.62454 -0.255163 0)
(7.64942 -0.253178 0)
(7.67205 -0.249855 0)
(7.6925 -0.245611 0)
(7.71086 -0.240774 0)
(7.72725 -0.235607 0)
(7.74182 -0.230314 0)
(7.75471 -0.225053 0)
(7.76609 -0.219948 0)
(7.77607 -0.21509 0)
(7.7848 -0.210547 0)
(7.7924 -0.206365 0)
(7.79897 -0.202577 0)
(7.80462 -0.199202 0)
(7.80942 -0.19625 0)
(7.81346 -0.193723 0)
(7.8168 -0.19162 0)
(7.81949 -0.189936 0)
(7.8216 -0.188664 0)
(7.82318 -0.187795 0)
(7.82427 -0.187319 0)
(7.82492 -0.187224 0)
(7.82517 -0.187469 0)
(7.33379 -0.0318896 0)
(7.34765 -0.0867533 0)
(7.37776 -0.129987 0)
(7.41571 -0.16571 0)
(7.45662 -0.195187 0)
(7.49824 -0.218089 0)
(7.53866 -0.234851 0)
(7.5769 -0.24623 0)
(7.61268 -0.252965 0)
(7.64593 -0.255847 0)
(7.67669 -0.255675 0)
(7.70511 -0.253179 0)
(7.73133 -0.248994 0)
(7.7555 -0.243657 0)
(7.77778 -0.237606 0)
(7.7983 -0.231186 0)
(7.81719 -0.224666 0)
(7.83455 -0.218248 0)
(7.8505 -0.21208 0)
(7.86514 -0.206268 0)
(7.87858 -0.200882 0)
(7.89089 -0.195966 0)
(7.90217 -0.191546 0)
(7.91249 -0.187629 0)
(7.92192 -0.184214 0)
(7.93053 -0.181294 0)
(7.93836 -0.178854 0)
(7.94548 -0.176882 0)
(7.95192 -0.175367 0)
(7.95774 -0.174299 0)
(7.963 -0.173679 0)
(7.96775 -0.173503 0)
(7.97208 -0.173744 0)
(7.33892 -0.0544153 0)
(7.37186 -0.151671 0)
(7.41448 -0.220952 0)
(7.45784 -0.267936 0)
(7.5041 -0.298808 0)
(7.55414 -0.317544 0)
(7.60647 -0.327852 0)
(7.65997 -0.332427 0)
(7.71377 -0.332972 0)
(7.76683 -0.330651 0)
(7.81826 -0.326276 0)
(7.8674 -0.320423 0)
(7.91376 -0.313525 0)
(7.95705 -0.305917 0)
(7.99711 -0.297873 0)
(8.03389 -0.289617 0)
(8.06746 -0.281339 0)
(8.09793 -0.273193 0)
(8.12548 -0.265302 0)
(8.15029 -0.257765 0)
(8.17256 -0.25065 0)
(8.1925 -0.244007 0)
(8.2103 -0.237867 0)
(8.22614 -0.232245 0)
(8.24018 -0.227142 0)
(8.25259 -0.222555 0)
(8.2635 -0.218473 0)
(8.27301 -0.214887 0)
(8.28123 -0.211795 0)
(8.28823 -0.209197 0)
(8.29413 -0.207142 0)
(8.29898 -0.205626 0)
(8.30296 -0.204828 0)
(7.33754 -0.0404278 0)
(7.38841 -0.10583 0)
(7.47747 -0.163671 0)
(7.57887 -0.219553 0)
(7.6865 -0.267216 0)
(7.79523 -0.304318 0)
(7.89907 -0.331505 0)
(7.9945 -0.349469 0)
(8.07956 -0.359289 0)
(8.15315 -0.362428 0)
(8.21507 -0.360342 0)
(8.26569 -0.354343 0)
(8.30577 -0.345562 0)
(8.33631 -0.334932 0)
(8.35836 -0.323196 0)
(8.37302 -0.310934 0)
(8.38133 -0.298583 0)
(8.38423 -0.286466 0)
(8.38258 -0.274811 0)
(8.37713 -0.26377 0)
(8.36851 -0.253439 0)
(8.35729 -0.243868 0)
(8.34392 -0.235071 0)
(8.32879 -0.227039 0)
(8.31222 -0.219744 0)
(8.29447 -0.213143 0)
(8.27575 -0.207186 0)
(8.25619 -0.201825 0)
(8.23594 -0.197018 0)
(8.215 -0.192737 0)
(8.19351 -0.189061 0)
(8.17119 -0.185937 0)
(8.14871 -0.184325 0)
(7.39946 -0.196891 0)
(7.59552 -0.376424 0)
(7.76799 -0.459579 0)
(7.8947 -0.513712 0)
(7.97765 -0.542674 0)
(8.0149 -0.552307 0)
(8.01069 -0.549236 0)
(7.97338 -0.536814 0)
(7.91062 -0.51754 0)
(7.82899 -0.493679 0)
(7.73428 -0.467023 0)
(7.63121 -0.438966 0)
(7.52351 -0.410588 0)
(7.41401 -0.382699 0)
(7.30482 -0.355873 0)
(7.19742 -0.330491 0)
(7.09287 -0.306784 0)
(6.99183 -0.284867 0)
(6.8947 -0.264772 0)
(6.80167 -0.246466 0)
(6.71278 -0.22988 0)
(6.62798 -0.214915 0)
(6.54715 -0.201454 0)
(6.47011 -0.189374 0)
(6.39666 -0.178543 0)
(6.3266 -0.168829 0)
(6.25971 -0.160091 0)
(6.19574 -0.152197 0)
(6.13446 -0.144981 0)
(6.0755 -0.138299 0)
(6.01855 -0.132038 0)
(5.96262 -0.125412 0)
(5.9081 -0.121763 0)
(7.16009 -0.185973 0)
(6.91072 -0.345429 0)
(6.49917 -0.392902 0)
(6.03491 -0.394519 0)
(5.59404 -0.366543 0)
(5.17679 -0.322802 0)
(4.78724 -0.274213 0)
(4.43218 -0.2264 0)
(4.11216 -0.182348 0)
(3.82551 -0.143539 0)
(3.57022 -0.110373 0)
(3.34373 -0.0826581 0)
(3.14321 -0.0599146 0)
(2.96585 -0.0415205 0)
(2.80901 -0.026824 0)
(2.67019 -0.0152093 0)
(2.54714 -0.00612706 0)
(2.43785 0.000895581 0)
(2.34051 0.00625564 0)
(2.25355 0.0102809 0)
(2.17558 0.0132392 0)
(2.1054 0.0153478 0)
(2.04195 0.0167837 0)
(1.98435 0.017691 0)
(1.93181 0.018193 0)
(1.88368 0.018396 0)
(1.83938 0.0184178 0)
(1.79854 0.0183761 0)
(1.76065 0.0184915 0)
(1.72592 0.019061 0)
(1.6934 0.0204271 0)
(1.66519 0.0250812 0)
(1.63918 0.0204184 0)
(1.462 -0.0620188 0)
(1.57791 -0.0810174 0)
(1.64454 -0.11937 0)
(1.64331 -0.138439 0)
(1.61125 -0.102981 0)
(1.65536 0.0417145 0)