# y+ ()       
# Time        	patch         	min           	max           	average       
900           	lowerWall	5.074898e+00	8.062586e+01	4.284513e+01
900           	upperWall	3.060454e+01	4.709429e+01	4.141694e+01
