/*--------------------------------*- C++ -*----------------------------------*\
  =========                 |
  \\      /  F ield         | OpenFOAM: The Open Source CFD Toolbox
   \\    /   O peration     | Website:  https://openfoam.org
    \\  /    A nd           | Version:  10
     \\/     M anipulation  |
\*---------------------------------------------------------------------------*/
FoamFile
{
    format      ascii;
    class       volScalarField;
    location    "200";
    object      k;
}
// * * * * * * * * * * * * * * * * * * * * * * * * * * * * * * * * * * * * * //

dimensions      [0 2 -2 0 0 0 0];

internalField   nonuniform List<scalar> 
6820
(
0.318929
0.614647
0.847408
0.983418
1.04846
1.06948
1.0651
1.04703
1.02246
0.99561
0.968818
0.943287
0.919572
0.897858
0.878141
0.860317
0.844243
0.829765
0.816732
0.805006
0.794468
0.785009
0.77654
0.768987
0.762289
0.756398
0.751281
0.74691
0.743289
0.740408
0.737837
0.737731
0.727734
0.838881
1.4573
1.53044
1.40677
1.25032
1.11088
0.996164
0.903313
0.827979
0.766385
0.715602
0.673432
0.638127
0.608396
0.583217
0.56179
0.543461
0.52772
0.514133
0.502366
0.492116
0.48316
0.475278
0.468317
0.462107
0.456542
0.451481
0.446855
0.442524
0.438532
0.434695
0.431252
0.427334
0.3799
0.662277
0.793338
0.827924
0.818085
0.790257
0.756202
0.720962
0.686667
0.654195
0.623881
0.595824
0.569993
0.546297
0.524609
0.504791
0.486695
0.470181
0.45511
0.441356
0.428798
0.41733
0.406844
0.397259
0.388481
0.380448
0.373076
0.36632
0.360098
0.354394
0.349089
0.344138
0.339403
0.246132
0.33929
0.411847
0.458821
0.485598
0.498724
0.503081
0.501899
0.497224
0.490342
0.482077
0.472983
0.463441
0.453718
0.444002
0.434426
0.42508
0.416028
0.407308
0.398946
0.390953
0.383335
0.376089
0.369209
0.362684
0.356505
0.350656
0.345127
0.339902
0.334956
0.330262
0.325801
0.321546
0.216722
0.253392
0.285766
0.312191
0.332381
0.347023
0.357165
0.363835
0.367875
0.369927
0.370467
0.369853
0.36836
0.366198
0.363531
0.360489
0.357175
0.35367
0.35004
0.346337
0.342601
0.338866
0.335157
0.331495
0.327896
0.324372
0.320932
0.317582
0.314329
0.311175
0.308121
0.305165
0.302307
0.206697
0.223733
0.23995
0.254371
0.266626
0.276664
0.284678
0.290954
0.295781
0.29941
0.302051
0.303876
0.305028
0.305621
0.305753
0.305503
0.304938
0.304114
0.303078
0.301869
0.300522
0.299065
0.297522
0.295914
0.294259
0.292572
0.290865
0.289152
0.287442
0.285744
0.284065
0.28241
0.280785
0.202774
0.211427
0.220434
0.228869
0.236413
0.242951
0.248508
0.253176
0.257061
0.260264
0.262877
0.264981
0.266646
0.267932
0.26889
0.269566
0.269998
0.270219
0.270258
0.270141
0.269889
0.269523
0.269059
0.268514
0.267899
0.267229
0.266514
0.265765
0.26499
0.2642
0.263402
0.262603
0.261808
0.201167
0.205669
0.210925
0.21615
0.221015
0.225386
0.229236
0.232594
0.235503
0.238009
0.240156
0.241983
0.243528
0.244824
0.245898
0.246778
0.247484
0.248037
0.248455
0.248754
0.248947
0.249049
0.24907
0.249022
0.248913
0.248754
0.248553
0.248318
0.248058
0.247781
0.247492
0.247199
0.246907
0.200483
0.202797
0.205888
0.209202
0.212437
0.215442
0.218167
0.220606
0.222775
0.224694
0.226385
0.227869
0.229166
0.230296
0.231275
0.232118
0.232841
0.233455
0.233971
0.234401
0.234753
0.235036
0.235259
0.23543
0.235555
0.235641
0.235697
0.235727
0.23574
0.235741
0.235736
0.235731
0.235729
0.200184
0.20133
0.203109
0.205199
0.20736
0.209451
0.211405
0.213198
0.214827
0.216299
0.217622
0.218807
0.219866
0.22081
0.221649
0.222393
0.223051
0.223632
0.224142
0.224589
0.224981
0.225322
0.22562
0.22588
0.226108
0.226309
0.226489
0.226654
0.226809
0.22696
0.227112
0.227268
0.22743
0.200051
0.20058
0.201559
0.202837
0.204256
0.205699
0.207097
0.208416
0.209642
0.210772
0.211806
0.212749
0.213606
0.214383
0.215087
0.215723
0.216298
0.216817
0.217285
0.217708
0.218091
0.218438
0.218754
0.219044
0.219312
0.219563
0.219802
0.220034
0.220262
0.220493
0.220729
0.220974
0.221229
0.199992
0.200201
0.200701
0.201443
0.202339
0.203308
0.204288
0.205246
0.206161
0.207022
0.207826
0.208571
0.209259
0.209894
0.210477
0.211013
0.211505
0.211958
0.212374
0.212758
0.213113
0.213444
0.213753
0.214045
0.214324
0.214592
0.214856
0.215118
0.215382
0.215653
0.215934
0.216226
0.216532
0.199965
0.200012
0.200234
0.20063
0.201163
0.201783
0.202446
0.203122
0.203788
0.204433
0.205048
0.20563
0.206176
0.206688
0.207166
0.207611
0.208027
0.208415
0.208778
0.209119
0.209441
0.209745
0.210037
0.210317
0.210591
0.21086
0.211129
0.211402
0.211681
0.21197
0.212271
0.212588
0.212919
0.199954
0.19992
0.199986
0.200167
0.200454
0.200823
0.201247
0.201702
0.202169
0.202636
0.203095
0.203538
0.203963
0.204368
0.204753
0.205118
0.205464
0.205792
0.206104
0.206401
0.206687
0.206962
0.20723
0.207492
0.207753
0.208014
0.208278
0.20855
0.208831
0.209125
0.209433
0.209758
0.2101
0.199949
0.199876
0.199857
0.19991
0.200038
0.200232
0.20048
0.200765
0.201074
0.201397
0.201724
0.20205
0.20237
0.202683
0.202986
0.203278
0.20356
0.203832
0.204096
0.204351
0.2046
0.204844
0.205086
0.205327
0.20557
0.205817
0.206071
0.206335
0.20661
0.2069
0.207207
0.207532
0.207875
0.199947
0.199855
0.199792
0.199772
0.199801
0.199879
0.200001
0.20016
0.200347
0.200553
0.200773
0.201001
0.201232
0.201463
0.201693
0.201921
0.202145
0.202365
0.202583
0.202798
0.203011
0.203225
0.20344
0.203657
0.20388
0.20411
0.20435
0.204601
0.204866
0.205148
0.205447
0.205766
0.206103
0.199946
0.199846
0.199761
0.1997
0.19967
0.199674
0.199712
0.19978
0.199875
0.199992
0.200126
0.200272
0.200428
0.20059
0.200757
0.200927
0.201099
0.201272
0.201447
0.201624
0.201804
0.201987
0.202175
0.202369
0.20257
0.202782
0.203004
0.20324
0.203492
0.203761
0.20405
0.204358
0.204685
0.199946
0.199842
0.199746
0.199664
0.199601
0.19956
0.199543
0.19955
0.199579
0.199629
0.199696
0.199778
0.199873
0.199977
0.20009
0.200209
0.200335
0.200466
0.200603
0.200745
0.200892
0.201046
0.201208
0.201378
0.201558
0.20175
0.201955
0.202174
0.202411
0.202666
0.20294
0.203235
0.203551
0.199946
0.19984
0.199739
0.199647
0.199565
0.199498
0.199448
0.199415
0.1994
0.199402
0.19942
0.199453
0.199499
0.199556
0.199624
0.199702
0.199788
0.199882
0.199985
0.200095
0.200213
0.200341
0.200478
0.200625
0.200784
0.200956
0.201143
0.201345
0.201565
0.201804
0.202064
0.202344
0.202645
0.199946
0.199839
0.199736
0.199638
0.199548
0.199466
0.199396
0.199339
0.199294
0.199264
0.199248
0.199245
0.199254
0.199276
0.199309
0.199352
0.199406
0.199469
0.199542
0.199625
0.199718
0.199821
0.199936
0.200062
0.200201
0.200354
0.200523
0.200708
0.200912
0.201135
0.201378
0.201643
0.201928
0.199946
0.199839
0.199735
0.199635
0.199539
0.19945
0.199369
0.199297
0.199235
0.199184
0.199145
0.199117
0.199101
0.199096
0.199102
0.19912
0.199148
0.199186
0.199236
0.199296
0.199367
0.199449
0.199544
0.199652
0.199773
0.199909
0.200061
0.20023
0.200417
0.200624
0.200852
0.2011
0.20137
0.199946
0.199839
0.199734
0.199633
0.199536
0.199443
0.199356
0.199276
0.199204
0.19914
0.199086
0.199043
0.199009
0.198986
0.198974
0.198972
0.198981
0.199001
0.199032
0.199075
0.199129
0.199195
0.199273
0.199365
0.199471
0.199592
0.199729
0.199883
0.200056
0.200247
0.20046
0.200692
0.200945
0.199946
0.199839
0.199734
0.199632
0.199534
0.199439
0.199349
0.199265
0.199188
0.199118
0.199056
0.199002
0.198959
0.198924
0.1989
0.198887
0.198883
0.198891
0.198909
0.198939
0.198981
0.199035
0.199101
0.199181
0.199275
0.199384
0.199508
0.199649
0.199808
0.199986
0.200184
0.200401
0.200638
0.199946
0.199839
0.199734
0.199632
0.199533
0.199438
0.199347
0.199261
0.199182
0.199109
0.199043
0.198986
0.198937
0.198898
0.198868
0.198848
0.198838
0.198839
0.19885
0.198873
0.198907
0.198954
0.199012
0.199084
0.199169
0.199269
0.199384
0.199515
0.199662
0.199828
0.200012
0.200215
0.200437
0.199946
0.199839
0.199734
0.199632
0.199533
0.199438
0.199348
0.199262
0.199183
0.19911
0.199045
0.198988
0.198939
0.198899
0.198869
0.198848
0.198838
0.198837
0.198848
0.198869
0.198901
0.198944
0.199
0.199068
0.199148
0.199242
0.199351
0.199474
0.199613
0.199769
0.199942
0.200132
0.200339
0.199946
0.199839
0.199734
0.199632
0.199534
0.19944
0.199351
0.199268
0.199192
0.199123
0.199061
0.199009
0.198965
0.198931
0.198906
0.19889
0.198885
0.198889
0.198904
0.198929
0.198964
0.19901
0.199067
0.199135
0.199215
0.199307
0.199413
0.199531
0.199664
0.199812
0.199976
0.200155
0.200349
0.199946
0.199839
0.199734
0.199634
0.199537
0.199446
0.199361
0.199283
0.199213
0.199152
0.1991
0.199058
0.199025
0.199002
0.198989
0.198985
0.198992
0.199007
0.199032
0.199067
0.199111
0.199164
0.199228
0.199301
0.199385
0.199479
0.199584
0.199701
0.199831
0.199973
0.200129
0.200299
0.200482
0.199946
0.199839
0.199736
0.199637
0.199544
0.199459
0.199382
0.199314
0.199257
0.199211
0.199176
0.199152
0.199139
0.199136
0.199143
0.19916
0.199185
0.19922
0.199262
0.199313
0.199371
0.199438
0.199512
0.199595
0.199686
0.199785
0.199894
0.200012
0.20014
0.200279
0.200429
0.200591
0.200763
0.199946
0.19984
0.199739
0.199645
0.19956
0.199487
0.199426
0.199379
0.199346
0.199327
0.199321
0.199328
0.199346
0.199375
0.199413
0.19946
0.199514
0.199575
0.199642
0.199715
0.199794
0.199879
0.199969
0.200065
0.200166
0.200274
0.200388
0.200509
0.200638
0.200774
0.20092
0.201074
0.201237
0.199946
0.199843
0.199747
0.199665
0.199598
0.19955
0.199521
0.199512
0.199522
0.19955
0.199592
0.199648
0.199714
0.19979
0.199872
0.19996
0.200053
0.20015
0.20025
0.200352
0.200456
0.200563
0.200672
0.200784
0.200898
0.201015
0.201136
0.201261
0.201391
0.201525
0.201666
0.201812
0.201965
0.199947
0.199849
0.199769
0.199713
0.199686
0.19969
0.199724
0.199786
0.199871
0.199975
0.200093
0.200222
0.200358
0.200498
0.20064
0.200783
0.200924
0.201065
0.201202
0.201338
0.201471
0.201602
0.201732
0.201859
0.201986
0.202113
0.202239
0.202367
0.202496
0.202627
0.202761
0.202898
0.20304
0.19995
0.199869
0.199827
0.199835
0.199895
0.200005
0.200158
0.200344
0.200553
0.200776
0.201006
0.201238
0.201467
0.20169
0.201906
0.202113
0.20231
0.202498
0.202677
0.202846
0.203008
0.203161
0.203308
0.203449
0.203586
0.203717
0.203846
0.203972
0.204097
0.20422
0.204344
0.204469
0.204595
0.199958
0.199927
0.199986
0.200144
0.200392
0.200711
0.201077
0.201468
0.201868
0.202263
0.202646
0.20301
0.203352
0.203672
0.203968
0.204242
0.204495
0.204728
0.204942
0.20514
0.205322
0.205491
0.205648
0.205794
0.205931
0.206061
0.206183
0.2063
0.206413
0.206522
0.206628
0.206733
0.206837
0.199986
0.200106
0.200431
0.200939
0.201574
0.202276
0.202997
0.203701
0.204369
0.204988
0.205554
0.206067
0.206529
0.206942
0.207312
0.207642
0.207936
0.208199
0.208433
0.208643
0.20883
0.208998
0.209149
0.209285
0.209408
0.20952
0.209623
0.209717
0.209805
0.209887
0.209965
0.210039
0.21011
0.200089
0.200682
0.201702
0.202983
0.20436
0.205711
0.206965
0.208093
0.209088
0.209956
0.210706
0.211353
0.211908
0.212385
0.212794
0.213144
0.213445
0.213702
0.213923
0.214111
0.214272
0.214409
0.214526
0.214625
0.214708
0.214779
0.214838
0.214887
0.214929
0.214963
0.214991
0.215015
0.215035
0.200505
0.202628
0.205423
0.208301
0.210959
0.213274
0.215218
0.21682
0.218129
0.21919
0.220049
0.220743
0.221302
0.221753
0.222116
0.222406
0.222637
0.222818
0.222958
0.223064
0.223141
0.223192
0.223223
0.223236
0.223234
0.223218
0.223191
0.223155
0.22311
0.223058
0.223
0.222938
0.222871
0.202133
0.209262
0.216778
0.222891
0.227496
0.230889
0.233361
0.235154
0.236445
0.237369
0.238026
0.238486
0.238801
0.239007
0.23913
0.239188
0.239195
0.239161
0.239093
0.238997
0.238878
0.238738
0.238581
0.23841
0.238225
0.23803
0.237824
0.237611
0.23739
0.237164
0.236932
0.236696
0.236456
0.20829
0.226767
0.244115
0.257355
0.266301
0.271757
0.274785
0.276284
0.276864
0.276907
0.27664
0.276199
0.275662
0.275073
0.274455
0.27382
0.273176
0.272524
0.271866
0.271203
0.270535
0.269862
0.269184
0.268503
0.267818
0.267131
0.266443
0.265754
0.265066
0.264379
0.263696
0.263015
0.26234
0.245788
0.310482
0.343831
0.35902
0.365679
0.368384
0.369055
0.368496
0.367144
0.365283
0.363101
0.36073
0.358261
0.35576
0.353273
0.350831
0.348457
0.346166
0.343966
0.341863
0.339859
0.337956
0.336153
0.334449
0.332841
0.331326
0.329903
0.328567
0.327316
0.326146
0.325054
0.324037
0.32309
0.214305
0.253644
0.294733
0.33381
0.370023
0.403413
0.434038
0.461945
0.487217
0.509976
0.530371
0.548564
0.56472
0.579006
0.591585
0.602615
0.612242
0.620605
0.62783
0.634034
0.639323
0.643794
0.647533
0.65062
0.653124
0.65511
0.656634
0.657745
0.658491
0.658911
0.659042
0.658913
0.658563
0.774018
0.849767
0.941378
1.04483
1.14329
1.22614
1.29042
1.33752
1.37122
1.395
1.41128
1.42049
1.42087
1.4094
1.38265
1.33771
1.27323
1.18853
1.0858
0.968158
0.841085
0.710812
0.586212
0.476905
0.391195
0.336268
0.313701
0.320287
0.368436
0.526978
0.866634
1.35325
1.89372
2.4197
2.89863
3.3173
3.6709
3.95881
4.18306
4.34744
4.4568
4.51661
4.53265
4.51098
4.45798
4.38042
4.28518
4.17895
4.06781
3.95672
3.84925
3.74752
3.65246
3.56415
3.48216
3.40589
3.33469
3.26801
3.20538
3.14645
3.09095
3.03868
2.98947
2.9432
2.89976
2.85904
2.82097
2.78547
2.75247
2.7219
2.69371
2.66784
2.64421
2.62278
2.60346
2.58621
2.57093
2.55757
2.54604
2.53625
2.52814
2.52161
2.51657
2.51293
2.51061
2.50952
2.50955
2.51063
2.51266
2.51555
2.51921
2.52357
2.52854
2.53405
2.54002
2.5464
2.5531
2.56006
2.56719
2.57434
0.423016
0.423462
0.429373
0.439577
0.453507
0.470072
0.488048
0.50659
0.525342
0.544179
0.562816
0.580472
0.595749
0.606555
0.610434
0.605139
0.588939
0.561559
0.524003
0.478604
0.429456
0.381319
0.339552
0.308568
0.291051
0.288744
0.302132
0.333014
0.4071
0.597343
0.956272
1.44082
1.9679
2.47929
2.9463
3.35638
3.70444
3.98937
4.21265
4.37753
4.48834
4.5501
4.56823
4.54852
4.4972
4.42102
4.32696
4.22184
4.11188
4.00213
3.89618
3.79616
3.70291
3.61645
3.5363
3.46178
3.39222
3.32704
3.26577
3.20805
3.15361
3.10226
3.05383
3.0082
2.96527
2.92495
2.88716
2.85184
2.81892
2.78834
2.76004
2.73399
2.7101
2.68834
2.66864
2.65094
2.63518
2.62127
2.60916
2.59877
2.59001
2.58281
2.57708
2.57274
2.5697
2.56788
2.56718
2.56753
2.56884
2.57101
2.57397
2.57764
2.58195
2.58682
2.59218
2.59798
2.60416
2.61063
2.61731
2.62398
0.333985
0.328108
0.322504
0.317225
0.312464
0.308391
0.305123
0.302772
0.30144
0.301189
0.301992
0.303678
0.305903
0.308114
0.309603
0.309622
0.307504
0.30298
0.296207
0.287856
0.279168
0.271747
0.267379
0.267743
0.274453
0.289354
0.314566
0.356906
0.449859
0.661966
1.02841
1.50355
2.01506
2.51223
2.96874
3.37215
3.71689
4.00128
4.22622
4.39434
4.50942
4.57596
4.59896
4.58392
4.53683
4.46435
4.37347
4.27112
4.16363
4.05618
3.95245
3.85459
3.76346
3.67906
3.60086
3.52817
3.4603
3.39664
3.33671
3.28016
3.22672
3.17619
3.12842
3.08329
3.04072
3.00061
2.9629
2.92753
2.89444
2.86359
2.83492
2.80839
2.78396
2.76156
2.74116
2.7227
2.70611
2.69134
2.67832
2.66698
2.65724
2.64905
2.6423
2.63694
2.63287
2.63001
2.62829
2.62762
2.62792
2.62912
2.63112
2.63386
2.63727
2.64127
2.64582
2.65086
2.65632
2.66214
2.66823
2.67428
0.316784
0.311497
0.306305
0.30122
0.296282
0.291538
0.287031
0.282798
0.278876
0.275291
0.272056
0.269165
0.266589
0.264275
0.26215
0.26014
0.258201
0.256368
0.254795
0.253792
0.25384
0.255606
0.259925
0.26787
0.280963
0.301304
0.331812
0.382739
0.491406
0.718325
1.08461
1.54616
2.04055
2.52326
2.9697
3.36731
3.70998
3.99542
4.22386
4.39731
4.51893
4.59266
4.62302
4.61512
4.57467
4.50814
4.42247
4.32462
4.22101
4.11695
4.01624
3.92113
3.83255
3.7505
3.67448
3.60378
3.53771
3.47565
3.41712
3.36176
3.30931
3.25957
3.21239
3.16769
3.12535
3.08533
3.04754
3.01195
2.97851
2.94717
2.91791
2.89068
2.86544
2.84216
2.82078
2.80128
2.78359
2.76766
2.75344
2.74086
2.72986
2.72037
2.71232
2.70564
2.70026
2.69609
2.69307
2.69112
2.69015
2.69011
2.69091
2.69249
2.69477
2.69771
2.70125
2.70532
2.7099
2.7149
2.72024
2.72555
0.299067
0.295397
0.291734
0.288091
0.284465
0.280864
0.277309
0.273828
0.270446
0.267185
0.264069
0.261124
0.258381
0.255877
0.253659
0.251786
0.250346
0.249469
0.249347
0.250259
0.252596
0.256892
0.263878
0.274603
0.290631
0.314108
0.3487
0.407568
0.529273
0.765098
1.12615
1.57166
2.04794
2.51573
2.95194
3.34394
3.68508
3.97246
4.20563
4.38592
4.51584
4.59873
4.63857
4.64003
4.60847
4.55006
4.47161
4.38004
4.28181
4.18235
4.08561
3.99396
3.90846
3.82917
3.75564
3.68719
3.62312
3.56281
3.5058
3.45172
3.40031
3.35138
3.30481
3.26049
3.21835
3.17832
3.14037
3.10444
3.0705
3.03853
3.0085
2.98038
2.95414
2.92976
2.9072
2.88642
2.8674
2.85007
2.8344
2.82034
2.80781
2.79677
2.78716
2.77891
2.77195
2.76622
2.76165
2.75817
2.7557
2.75419
2.75356
2.75376
2.75471
2.75637
2.7587
2.76163
2.76515
2.76917
2.7736
2.77802
0.278915
0.276758
0.274561
0.272335
0.270072
0.267764
0.265418
0.263045
0.260664
0.2583
0.255988
0.253775
0.251718
0.249886
0.248361
0.247244
0.246659
0.246768
0.247784
0.249996
0.253791
0.259699
0.268462
0.281174
0.299457
0.32556
0.364004
0.430212
0.562045
0.801892
1.15427
1.58227
2.0398
2.49214
2.91766
3.30377
3.6434
3.93303
4.17158
4.35967
4.49916
4.59275
4.64384
4.65659
4.63595
4.58772
4.51846
4.43496
4.34369
4.25016
4.15845
4.07112
3.98936
3.91336
3.84274
3.77686
3.71506
3.65675
3.60144
3.54878
3.49853
3.45051
3.40459
3.36069
3.31874
3.2787
3.24053
3.20421
3.1697
3.137
3.10608
3.07695
3.04957
3.02393
3.00001
2.97779
2.95724
2.93832
2.921
2.90523
2.89097
2.87817
2.86677
2.85672
2.84797
2.84045
2.83411
2.82888
2.82469
2.8215
2.81923
2.81784
2.81726
2.81745
2.81837
2.81999
2.82227
2.82514
2.82852
2.8319
0.260882
0.259797
0.258672
0.257513
0.256306
0.255036
0.253694
0.252283
0.250815
0.249315
0.247822
0.246393
0.245096
0.244019
0.243263
0.24295
0.243224
0.244266
0.246303
0.249635
0.254659
0.261919
0.272191
0.286631
0.306906
0.33539
0.377436
0.449989
0.588841
0.828816
1.17009
1.57974
2.01811
2.45446
2.86865
3.2483
3.58602
3.87777
4.12186
4.31824
4.46809
4.57347
4.6372
4.66285
4.65491
4.61873
4.56053
4.4869
4.40422
4.31802
4.23253
4.15048
4.07325
4.00117
3.93398
3.87111
3.81195
3.75592
3.70258
3.65157
3.60266
3.55569
3.51054
3.46715
3.42546
3.38545
3.34709
3.31036
3.27526
3.24178
3.20993
3.1797
3.15109
3.12409
3.0987
3.07491
3.0527
3.03204
3.01291
2.99528
2.97911
2.96436
2.951
2.93897
2.92824
2.91874
2.91043
2.90326
2.89716
2.89209
2.88799
2.88481
2.88252
2.88106
2.8804
2.88052
2.8814
2.88296
2.88512
2.88732
0.246563
0.246154
0.245726
0.245274
0.244786
0.24424
0.243622
0.242927
0.242163
0.241351
0.240532
0.239763
0.239123
0.238707
0.238627
0.239019
0.240041
0.241885
0.244793
0.249075
0.255143
0.263561
0.275146
0.2911
0.313107
0.343658
0.388824
0.466305
0.609247
0.846223
1.17468
1.5655
1.98446
2.40432
2.80646
3.17887
3.51398
3.80734
4.0567
4.2614
4.42197
4.53982
4.61715
4.65698
4.66321
4.64075
4.59536
4.53332
4.46084
4.38345
4.30546
4.22978
4.15797
4.09056
4.02742
3.96809
3.91202
3.85867
3.80761
3.75854
3.71123
3.66552
3.62133
3.5786
3.53731
3.49742
3.45894
3.42187
3.38621
3.35197
3.31918
3.28784
3.25797
3.22957
3.20265
3.17721
3.15324
3.13075
3.1097
3.09008
3.07188
3.05506
3.03959
3.02544
3.01257
3.00093
2.9905
2.98121
2.97304
2.96592
2.95982
2.9547
2.95051
2.94722
2.94482
2.94328
2.94258
2.94267
2.94346
2.94433
0.235728
0.235726
0.235723
0.235714
0.235686
0.235617
0.235489
0.235296
0.23504
0.234743
0.234442
0.234197
0.234087
0.234212
0.234692
0.235669
0.23731
0.239819
0.243447
0.248516
0.255452
0.264842
0.277537
0.29476
0.318177
0.350368
0.397948
0.478743
0.623135
0.854579
1.169
1.54077
1.94018
2.34311
2.73246
3.09671
3.4283
3.72247
3.97649
4.18915
4.36035
4.49091
4.58243
4.63731
4.65889
4.65153
4.62049
4.57165
4.51098
4.44388
4.37473
4.30659
4.24121
4.17932
4.12096
4.06579
4.01334
3.96313
3.91479
3.86801
3.82261
3.77845
3.73547
3.69362
3.6529
3.61331
3.57485
3.53755
3.50142
3.46651
3.43283
3.40042
3.36931
3.33952
3.31106
3.28395
3.2582
3.23381
3.21079
3.18913
3.16881
3.14983
3.13215
3.11577
3.10065
3.08676
3.07407
3.06255
3.05215
3.04285
3.0346
3.02738
3.02115
3.01589
3.01158
3.00822
3.00579
3.00425
3.0035
3.00289
0.227627
0.227864
0.228116
0.228378
0.228637
0.228875
0.229074
0.229226
0.229334
0.229417
0.229511
0.229676
0.229989
0.230552
0.231488
0.232943
0.235091
0.238143
0.242357
0.248065
0.255707
0.265887
0.279476
0.297687
0.322132
0.355452
0.404566
0.487064
0.63054
0.854436
1.15399
1.50661
1.88643
2.27205
2.64787
3.00301
3.33002
3.62396
3.88172
4.10162
4.28301
4.42613
4.532
4.60242
4.64016
4.64897
4.63358
4.59938
4.55199
4.49666
4.43772
4.37835
4.3205
4.26509
4.21233
4.16203
4.11383
4.06731
4.02216
3.97813
3.93503
3.89277
3.85131
3.81063
3.77074
3.73166
3.69342
3.65606
3.61963
3.58417
3.54973
3.51635
3.48408
3.45295
3.423
3.39425
3.36674
3.34047
3.31547
3.29174
3.26927
3.24808
3.22815
3.20948
3.19203
3.17581
3.16078
3.14692
3.1342
3.1226
3.11209
3.10264
3.09424
3.08686
3.08052
3.07519
3.07088
3.06755
3.06513
3.06287
0.221539
0.221914
0.222317
0.222742
0.22318
0.223615
0.224033
0.224426
0.224797
0.225165
0.225565
0.226053
0.226707
0.227628
0.228938
0.230785
0.233348
0.236839
0.241525
0.247741
0.255937
0.266728
0.280982
0.299874
0.324925
0.358784
0.408526
0.491151
0.631648
0.846396
1.13048
1.46397
1.82421
2.19222
2.55384
2.8989
3.22019
3.51269
3.77305
3.99917
4.18994
4.34508
4.46506
4.55113
4.60545
4.63116
4.63242
4.61407
4.58131
4.53911
4.49174
4.44242
4.39324
4.34533
4.29909
4.25446
4.21121
4.16903
4.12764
4.08685
4.04652
4.00659
3.96703
3.92787
3.88912
3.85085
3.81309
3.77592
3.7394
3.70358
3.66855
3.63436
3.60106
3.56872
3.53737
3.50708
3.47787
3.44978
3.42284
3.39707
3.37249
3.3491
3.32691
3.30592
3.28613
3.26752
3.2501
3.23384
3.21873
3.20476
3.19189
3.18012
3.16944
3.15985
3.15134
3.14391
3.1376
3.13235
3.1281
3.12404
0.216904
0.217357
0.217848
0.218371
0.218921
0.219484
0.220051
0.220615
0.221182
0.221768
0.222409
0.223159
0.224092
0.225308
0.226927
0.229098
0.231999
0.235845
0.240901
0.247507
0.256115
0.267336
0.282015
0.301253
0.326471
0.36028
0.409727
0.491012
0.626775
0.831104
1.09928
1.41372
1.75445
2.10463
2.45146
2.7855
3.09988
3.38964
3.65126
3.88234
4.08138
4.24765
4.38113
4.48253
4.55346
4.59644
4.615
4.61343
4.59642
4.56861
4.53408
4.49605
4.45673
4.4174
4.37864
4.34057
4.30307
4.26593
4.22895
4.19199
4.15497
4.11786
4.08066
4.04342
4.00621
3.96909
3.93214
3.89545
3.85911
3.8232
3.78781
3.75301
3.71888
3.68549
3.65292
3.62122
3.59044
3.56065
3.53187
3.50414
3.4775
3.45196
3.42755
3.40428
3.38216
3.36118
3.34136
3.32268
3.30515
3.28875
3.27348
3.25933
3.2463
3.23439
3.22362
3.214
3.20557
3.19826
3.19205
3.18605
0.213323
0.213818
0.214358
0.21494
0.215558
0.216206
0.216876
0.217565
0.21828
0.219038
0.219873
0.220836
0.222002
0.223464
0.225341
0.227779
0.230954
0.235078
0.240415
0.247301
0.256178
0.267645
0.282502
0.301755
0.326707
0.359885
0.408162
0.486795
0.616344
0.809228
1.06119
1.35666
1.67801
2.01022
2.34172
2.66386
2.97018
3.25584
3.51726
3.75184
3.95779
4.13399
4.27999
4.39605
4.48321
4.54342
4.57958
4.59539
4.59499
4.5826
4.56206
4.53652
4.50821
4.47857
4.44832
4.41773
4.38683
4.35551
4.32366
4.2912
4.25809
4.22435
4.19003
4.15521
4.11997
4.08443
4.04868
4.01283
3.97701
3.94131
3.90584
3.87071
3.836
3.8018
3.76821
3.73529
3.70313
3.67179
3.64131
3.61177
3.58319
3.55561
3.52907
3.50359
3.4792
3.4559
3.43371
3.41264
3.39269
3.37386
3.35617
3.3396
3.32418
3.30991
3.29681
3.28492
3.27426
3.2648
3.25651
3.24843
0.210518
0.211033
0.211598
0.212212
0.212873
0.213577
0.214319
0.215101
0.215929
0.216823
0.217815
0.218956
0.220315
0.221982
0.224074
0.226729
0.23012
0.234453
0.239986
0.247045
0.256054
0.267584
0.282372
0.301318
0.325595
0.357607
0.403925
0.478766
0.600863
0.781468
1.01696
1.2936
1.59571
1.90986
2.22561
2.53506
2.83219
3.11238
3.37207
3.60857
3.81985
4.00453
4.16178
4.29144
4.39407
4.47108
4.52475
4.55815
4.57489
4.57871
4.57313
4.56113
4.54494
4.52605
4.50534
4.48322
4.45982
4.43517
4.40922
4.38198
4.35346
4.32372
4.29286
4.261
4.22825
4.19475
4.16065
4.12607
4.09115
4.05604
4.02084
3.98569
3.9507
3.91598
3.88163
3.84776
3.81444
3.78176
3.7498
3.71862
3.68827
3.6588
3.63027
3.60271
3.57615
3.55062
3.52614
3.50274
3.48042
3.45921
3.43911
3.42013
3.40231
3.38565
3.37019
3.35597
3.34302
3.33133
3.32086
3.31057
0.208294
0.208815
0.20939
0.21002
0.210706
0.211445
0.212238
0.213088
0.214004
0.215007
0.216126
0.217412
0.218931
0.220767
0.223032
0.225859
0.229412
0.233889
0.239536
0.246662
0.255669
0.267082
0.281566
0.299906
0.323144
0.353525
0.397206
0.467298
0.580922
0.748563
0.967378
1.22531
1.50835
1.80441
2.10408
2.40013
2.68703
2.96041
3.21683
3.45357
3.66849
3.85996
4.02691
4.1688
4.28578
4.37876
4.44944
4.50029
4.53435
4.55485
4.56493
4.56734
4.56423
4.55712
4.54695
4.53426
4.5193
4.50219
4.48297
4.46172
4.43852
4.41347
4.38672
4.35842
4.32873
4.29782
4.26586
4.23302
4.19947
4.16536
4.13084
4.09605
4.06114
4.02623
3.99145
3.95691
3.92272
3.88898
3.85578
3.82318
3.79128
3.76013
3.72979
3.70032
3.67175
3.64412
3.61748
3.59185
3.56726
3.54373
3.52129
3.49995
3.47976
3.46073
3.44291
3.42633
3.41106
3.39707
3.38436
3.37174
0.206517
0.207035
0.207609
0.208244
0.208941
0.209702
0.210529
0.211428
0.212411
0.213497
0.214719
0.216121
0.217767
0.219739
0.222138
0.225092
0.228753
0.23331
0.238991
0.246084
0.254958
0.266086
0.280051
0.297526
0.319421
0.347789
0.388284
0.452852
0.557181
0.711291
0.913263
1.15259
1.41672
1.69473
1.97804
2.2601
2.53581
2.80112
3.05276
3.28805
3.50479
3.70124
3.87611
4.0286
4.15848
4.26622
4.35302
4.42078
4.47194
4.50923
4.53539
4.55285
4.56361
4.56915
4.57045
4.56813
4.56252
4.55383
4.5422
4.52775
4.51063
4.49101
4.46906
4.44498
4.41897
4.39124
4.36199
4.33143
4.29974
4.26711
4.23372
4.19973
4.16531
4.1306
4.09576
4.06091
4.02618
3.99169
3.95754
3.92382
3.89063
3.85804
3.82613
3.79495
3.76457
3.73503
3.70639
3.67869
3.65196
3.62623
3.60155
3.57794
3.55544
3.53409
3.51394
3.49503
3.47743
3.46113
3.44612
3.43109
0.20509
0.205597
0.206164
0.206795
0.207494
0.208265
0.209113
0.210046
0.211076
0.212225
0.213524
0.215016
0.216759
0.218831
0.221326
0.224362
0.22808
0.232654
0.238292
0.245256
0.253875
0.264567
0.277827
0.294224
0.31454
0.340609
0.377505
0.435966
0.530366
0.670488
0.855462
1.07627
1.32165
1.58165
1.84842
2.11598
2.37966
2.63574
2.88115
3.11331
3.33004
3.52956
3.71043
3.87164
4.01269
4.13368
4.23534
4.31905
4.38671
4.44053
4.48281
4.51565
4.54084
4.55973
4.5733
4.58218
4.58679
4.58739
4.58419
4.57738
4.56714
4.55371
4.53729
4.51813
4.49648
4.47257
4.44664
4.41894
4.38967
4.35905
4.32729
4.29458
4.2611
4.22704
4.19255
4.15779
4.1229
4.08802
4.05326
4.01875
3.98457
3.95084
3.91762
3.885
3.85305
3.82183
3.7914
3.76181
3.73312
3.70536
3.67857
3.65281
3.62812
3.60453
3.58213
3.56094
3.54105
3.52244
3.50512
3.48762
0.203941
0.204434
0.204988
0.205609
0.206302
0.207074
0.207931
0.208883
0.209944
0.211136
0.212488
0.214042
0.215853
0.217991
0.220543
0.223616
0.227339
0.231868
0.237391
0.244137
0.252395
0.262521
0.274929
0.290089
0.30866
0.332242
0.365271
0.417236
0.501263
0.627046
0.794876
0.997217
1.22398
1.46603
1.71613
1.96879
2.21972
2.46552
2.70334
2.93076
3.14569
3.34631
3.53116
3.69907
3.84935
3.98177
4.0967
4.19504
4.2782
4.3479
4.40598
4.45419
4.49404
4.52675
4.55319
4.574
4.58959
4.60028
4.60632
4.60794
4.60539
4.59892
4.5888
4.5753
4.5587
4.53929
4.51734
4.49311
4.46686
4.43882
4.40925
4.37834
4.34632
4.31337
4.2797
4.24547
4.21085
4.17598
4.14101
4.10606
4.07126
4.03671
4.00251
3.96874
3.93551
3.90287
3.8709
3.83966
3.80922
3.77962
3.75092
3.72317
3.69643
3.67074
3.64619
3.62281
3.60069
3.57982
3.56022
3.5402
0.203019
0.203494
0.204031
0.204637
0.205318
0.206082
0.206937
0.207895
0.208971
0.210186
0.211569
0.213159
0.215007
0.217176
0.219746
0.222813
0.226492
0.230919
0.236258
0.24271
0.250516
0.259974
0.271423
0.28524
0.301975
0.322976
0.352014
0.3973
0.470716
0.581925
0.732479
0.916358
1.12459
1.34875
1.5821
1.81954
2.05712
2.29172
2.52074
2.74191
2.95328
3.15309
3.33985
3.51236
3.66975
3.81158
3.9379
4.04923
4.14652
4.23104
4.30421
4.3674
4.42183
4.46851
4.50819
4.54143
4.56863
4.5901
4.60611
4.61693
4.62283
4.62409
4.62102
4.61392
4.6031
4.58889
4.57159
4.5515
4.5289
4.50406
4.47725
4.44872
4.41869
4.3874
4.35504
4.32183
4.28793
4.25352
4.21876
4.18379
4.14875
4.11375
4.07892
4.04436
4.01015
3.9764
3.94318
3.91056
3.87862
3.84742
3.81702
3.78749
3.75888
3.73127
3.70471
3.67927
3.65503
3.63199
3.61015
3.58762
0.202285
0.202739
0.203255
0.203841
0.204505
0.205254
0.206098
0.207049
0.208124
0.209344
0.210735
0.212335
0.21419
0.216357
0.218908
0.221926
0.225512
0.229784
0.234883
0.240974
0.24826
0.256978
0.2674
0.279824
0.294695
0.313114
0.33818
0.376813
0.439603
0.536148
0.669317
0.834695
1.02443
1.23074
1.44728
1.66925
1.89299
2.11561
2.33474
2.5483
2.75447
2.95161
3.13827
3.31323
3.47553
3.6246
3.76022
3.8826
3.99232
4.09026
4.17741
4.2548
4.32335
4.38382
4.43681
4.48274
4.52196
4.55474
4.58134
4.60203
4.61708
4.62679
4.63149
4.63152
4.62721
4.61891
4.60696
4.59168
4.57339
4.55239
4.52897
4.5034
4.47595
4.44686
4.41636
4.38468
4.35201
4.31854
4.28445
4.2499
4.21504
4.18001
4.14494
4.10995
4.07513
4.0406
4.00645
3.97276
3.93961
3.90708
3.87524
3.84416
3.81391
3.78456
3.75619
3.72885
3.70263
3.67754
3.65357
3.62854
0.201707
0.202139
0.202632
0.203195
0.203836
0.204562
0.205386
0.20632
0.20738
0.208585
0.209964
0.211549
0.213382
0.215515
0.218009
0.220938
0.224389
0.228461
0.23327
0.238952
0.245668
0.253605
0.262971
0.274
0.287039
0.302957
0.324203
0.356421
0.408823
0.490801
0.606531
0.753321
0.924521
1.11297
1.31265
1.51897
1.72846
1.93846
2.14676
2.35149
2.55099
2.74373
2.92834
3.10364
3.26865
3.42268
3.56536
3.69665
3.81684
3.92644
4.02612
4.11656
4.19838
4.2721
4.33812
4.39671
4.44811
4.49252
4.53014
4.56122
4.58601
4.60482
4.61797
4.62581
4.6287
4.62701
4.6211
4.61132
4.59801
4.58149
4.5621
4.54012
4.51584
4.48954
4.46146
4.43186
4.40094
4.36892
4.336
4.30234
4.26813
4.2335
4.19861
4.16359
4.12855
4.09361
4.05888
4.02445
3.99042
3.95686
3.92387
3.89151
3.85987
3.82902
3.79904
3.77001
3.74199
3.71501
3.68903
3.66156
0.201263
0.201671
0.20214
0.202676
0.20329
0.203988
0.204784
0.205689
0.20672
0.207895
0.209241
0.210788
0.212572
0.21464
0.217045
0.21985
0.223127
0.22696
0.231442
0.23668
0.242799
0.24994
0.25826
0.267932
0.279223
0.292786
0.310478
0.336718
0.379251
0.447008
0.545353
0.673441
0.825982
0.996487
1.17922
1.36973
1.56467
1.76151
1.95822
2.15308
2.34458
2.53134
2.7121
2.88573
3.05127
3.208