/*--------------------------------*- C++ -*----------------------------------*\
  =========                 |
  \\      /  F ield         | OpenFOAM: The Open Source CFD Toolbox
   \\    /   O peration     | Website:  https://openfoam.org
    \\  /    A nd           | Version:  10
     \\/     M anipulation  |
\*---------------------------------------------------------------------------*/
FoamFile
{
    format      ascii;
    class       volScalarField;
    location    "200";
    object      omega;
}
// * * * * * * * * * * * * * * * * * * * * * * * * * * * * * * * * * * * * * //

dimensions      [0 0 -1 0 0 0 0];

internalField   nonuniform List<scalar> 
6820
(
6119.61
8495.52
9975.24
10746
11095.7
11206.3
11183.4
11088.1
10957.3
10812.4
10666
10524.5
10391.4
10268
10154.6
10051.1
9956.78
9871.06
9793.26
9722.75
9658.93
9601.3
9549.42
9502.91
9461.49
9424.92
9393.06
9365.77
9343.12
9325.05
9308.91
9308.71
9251.3
563.862
1593.54
2118.86
2484.81
2808.84
3045.64
3199.99
3294.94
3349.49
3377.65
3387.92
3386.21
3380.85
3370.09
3357.56
3343.82
3330.53
3316.93
3304.49
3291.77
3280.36
3268.26
3257.44
3245.27
3234.15
3220.89
3208.4
3192.67
3177.57
3158.37
3144.35
3123.79
3109.54
97.853
383.664
612.468
783.106
925.551
1043.61
1138.75
1214.13
1273.33
1319.12
1354.37
1380.76
1400.67
1415.14
1425.66
1432.74
1437.59
1440.18
1441.65
1441.48
1440.8
1439.09
1437.4
1434.05
1431.61
1427.07
1423.95
1418.13
1414.21
1406.7
1401.47
1392.08
1384.69
35.0873
109.687
194.385
270.836
339.878
401.501
455.629
502.688
543.441
578.483
608.553
634.164
655.992
674.469
690.158
703.336
714.489
723.749
731.556
737.907
743.215
747.357
750.79
753.219
755.134
756.169
756.789
756.583
755.984
754.555
752.811
749.744
746.226
22.8643
46.9728
78.9624
111.621
143.632
174.191
202.755
229.1
253.233
275.194
295.097
313.051
329.214
343.714
356.716
368.33
378.713
387.948
396.181
403.462
409.927
415.589
420.588
424.89
428.648
431.768
434.445
436.487
438.171
439.15
439.867
439.72
439.178
19.448
28.8198
42.7135
57.8143
73.3291
88.7831
103.832
118.268
131.988
144.93
157.072
168.411
178.963
188.754
197.817
206.187
213.905
221.003
227.526
233.5
238.971
243.95
248.491
252.584
256.299
259.584
262.549
265.075
267.34
269.118
270.689
271.69
272.515
18.2936
22.3015
29.0854
36.8258
45.0228
53.3953
61.75
69.9588
77.9421
85.6455
93.034
100.086
106.791
113.145
119.151
124.813
130.14
135.14
139.827
144.209
148.3
152.106
155.645
158.914
161.94
164.704
167.247
169.526
171.603
173.401
175.015
176.315
177.453
17.8627
19.6398
23.1407
27.4194
32.0939
36.9671
41.914
46.852
51.7264
56.4985
61.1409
65.6348
69.9671
74.1298
78.118
81.9294
85.5636
89.0215
92.3054
95.4172
98.3612
101.139
103.756
106.211
108.514
110.658
112.657
114.496
116.195
117.731
119.128
120.351
121.442
17.692
18.5015
20.2883
22.7548
25.5544
28.5443
31.6324
34.7579
37.88
40.9697
44.0063
46.9747
49.864
52.6665
55.3766
57.9907
60.5064
62.9221
65.2373
67.4517
69.5661
71.5803
73.4959
75.3124
77.0322
78.6537
80.18
81.608
82.9415
84.1751
85.3141
86.3488
87.2895
17.6212
17.9907
18.8809
20.3046
22.0137
23.9014
25.895
27.9457
30.02
32.0943
34.1515
36.1792
38.1681
40.1114
42.0041
43.8423
45.6233
47.3452
49.0066
50.6064
52.1443
53.6197
55.0325
56.3825
57.67
58.8944
60.0564
61.1549
62.1907
63.1623
64.0705
64.9127
65.6912
17.5909
17.7569
18.1862
18.9866
20.0247
21.2243
22.5298
23.9012
25.3103
26.7369
28.166
29.5866
30.9906
32.3719
33.7256
35.0482
36.337
37.5899
38.8053
39.9821
41.1193
42.2163
43.2726
44.2878
45.2617
46.1939
47.0843
47.9326
48.7388
49.5023
50.2231
50.9004
51.5348
17.5777
17.6496
17.8519
18.2763
18.8941
19.648
20.5002
21.4203
22.3852
23.3774
24.3838
25.3945
26.402
27.4005
28.3856
29.3539
30.3026
31.2298
32.1337
33.0131
33.867
34.6946
35.4953
36.2685
37.014
37.7313
38.4203
39.0806
39.7123
40.3149
40.8885
41.4325
41.9473
17.5717
17.6006
17.6927
17.9036
18.2572
18.7185
19.265
19.8758
20.5331
21.2225
21.933
22.6556
23.3836
24.1116
24.8353
25.5516
26.2577
26.9516
27.6316
28.2964
28.945
29.5764
30.19
30.7852
31.3617
31.919
32.457
32.9753
33.4739
33.9525
34.411
34.8492
35.2671
17.5685
17.5784
17.6176
17.7156
17.9066
18.1779
18.518
18.9143
19.3545
19.8279
20.3253
20.8395
21.3644
21.8951
22.4277
22.9591
23.4868
24.0087
24.5232
25.0289
25.5247
26.0098
26.4833
26.9448
27.3938
27.8298
28.2527
28.6621
29.0579
29.4399
29.8081
30.1622
30.5022
17.5667
17.5682
17.5826
17.6254
17.7191
17.8712
18.0744
18.3231
18.61
18.9279
19.2701
19.6308
20.0051
20.3888
20.7783
21.1709
21.5642
21.9561
22.3452
22.7301
23.1096
23.4829
23.8493
24.2081
24.5588
24.9011
25.2346
25.5591
25.8744
26.1803
26.4766
26.7634
27.0403
17.5661
17.5627
17.5663
17.5827
17.6239
17.7031
17.8183
17.9676
18.1478
18.3547
18.5839
18.8313
19.0931
19.366
19.647
19.9337
20.224
20.516
20.8084
21.0997
21.389
21.6754
21.9581
22.2366
22.5103
22.7788
23.0417
23.2989
23.5501
23.7951
24.0337
24.2659
24.4915
17.5661
17.56
17.5583
17.5626
17.5784
17.6144
17.6753
17.7602
17.8681
17.9974
18.1456
18.3101
18.4884
18.6779
18.8764
19.0819
19.2927
19.5072
19.7241
19.9422
20.1607
20.3785
20.5951
20.8098
21.0222
21.2318
21.4383
21.6414
21.8409
22.0366
22.2284
22.4159
22.5992
17.5661
17.559
17.5539
17.5529
17.5569
17.5703
17.5986
17.6434
17.7043
17.781
17.8726
17.9777
18.0949
18.2224
18.3588
18.5024
18.6521
18.8064
18.9644
19.1251
19.2876
19.4511
19.615
19.7788
19.942
20.1043
20.2652
20.4245
20.582
20.7374
20.8907
21.0416
21.1899
17.5662
17.5587
17.5522
17.5476
17.5465
17.5496
17.5596
17.5802
17.6117
17.6542
17.7077
17.7716
17.8453
17.9278
18.0182
18.1155
18.2187
18.3269
18.4392
18.555
18.6735
18.794
18.9161
19.0392
19.163
19.2871
19.4111
19.5348
19.6581
19.7806
19.9023
20.0229
20.1423
17.5662
17.5587
17.5516
17.5454
17.541
17.5393
17.5411
17.5477
17.5615
17.5827
17.6115
17.6479
17.6917
17.7426
17.7999
17.8633
17.932
18.0054
18.0831
18.1643
18.2487
18.3356
18.4248
18.5157
18.6081
18.7017
18.7961
18.8911
18.9866
19.0824
19.1783
19.2741
19.3697
17.5662
17.5586
17.5514
17.5446
17.5386
17.5341
17.5316
17.5321
17.5357
17.544
17.5576
17.5764
17.6005
17.6299
17.6644
17.7038
17.7476
17.7957
17.8477
17.9031
17.9616
18.0229
18.0867
18.1527
18.2206
18.2902
18.3612
18.4335
18.5069
18.5812
18.6564
18.7322
18.8085
17.5662
17.5586
17.5513
17.5442
17.5376
17.5318
17.5271
17.5239
17.5231
17.5244
17.5286
17.5368
17.5486
17.5641
17.5835
17.6066
17.6334
17.6637
17.6973
17.7341
17.7738
17.8162
17.8612
17.9085
17.9579
18.0093
18.0624
18.1173
18.1736
18.2314
18.2904
18.3506
18.4117
17.5662
17.5586
17.5513
17.5441
17.5373
17.5309
17.5251
17.5202
17.5166
17.5145
17.5145
17.5162
17.5205
17.5277
17.5377
17.5505
17.5662
17.5848
17.6062
17.6303
17.6571
17.6865
17.7183
17.7524
17.7887
17.827
17.8674
17.9096
17.9535
17.9992
18.0464
18.0951
18.1451
17.5662
17.5586
17.5513
17.5441
17.5371
17.5305
17.5243
17.5187
17.5138
17.51
17.5075
17.5066
17.5073
17.5096
17.5143
17.5213
17.5306
17.5424
17.5565
17.5731
17.5921
17.6134
17.637
17.6629
17.691
17.7211
17.7533
17.7875
17.8235
17.8614
17.901
17.9423
17.9851
17.5662
17.5586
17.5513
17.5441
17.5371
17.5304
17.5241
17.5183
17.5131
17.5087
17.5054
17.5034
17.503
17.5038
17.5062
17.5109
17.5177
17.5266
17.5378
17.5511
17.5668
17.5847
17.6048
17.6271
17.6515
17.6781
17.7067
17.7373
17.7699
17.8043
17.8406
17.8786
17.9183
17.5662
17.5586
17.5513
17.5441
17.5372
17.5306
17.5244
17.5188
17.5139
17.51
17.5072
17.5058
17.506
17.5075
17.5109
17.5165
17.5242
17.5341
17.5462
17.5606
17.5772
17.5961
17.6172
17.6405
17.6659
17.6935
17.7231
17.7547
17.7882
17.8236
17.8609
17.8999
17.9406
17.5662
17.5586
17.5513
17.5442
17.5374
17.5311
17.5255
17.5206
17.517
17.5146
17.5141
17.5151
17.518
17.5234
17.5311
17.5411
17.5536
17.5687
17.5862
17.6061
17.6285
17.6533
17.6804
17.7097
17.7412
17.7748
17.8105
17.8481
17.8876
17.9289
17.972
18.0168
18.0632
17.5662
17.5587
17.5514
17.5444
17.5381
17.5325
17.5282
17.5253
17.5247
17.5259
17.5296
17.5367
17.5466
17.5598
17.5761
17.5955
17.6181
17.6436
17.6722
17.7035
17.7376
17.7742
17.8132
17.8546
17.8982
17.9439
17.9915
18.041
18.0922
18.1452
18.1997
18.2558
18.3132
17.5662
17.5587
17.5515
17.5452
17.5399
17.5363
17.5353
17.5368
17.5416
17.5512
17.5651
17.5837
17.6069
17.6345
17.6666
17.7029
17.7431
17.787
17.8345
17.8851
17.9387
17.995
18.0538
18.1149
18.1781
18.2433
18.3102
18.3788
18.4489
18.5203
18.5931
18.667
18.742
17.5662
17.5588
17.5522
17.5475
17.5451
17.5463
17.5517
17.5637
17.5829
17.6091
17.6426
17.6831
17.7303
17.7838
17.8431
17.9077
17.9772
18.051
18.1286
18.2097
18.2937
18.3804
18.4694
18.5605
18.6533
18.7477
18.8434
18.9403
19.0381
19.1369
19.2365
19.3367
19.4374
17.5662
17.5594
17.5547
17.5546
17.5587
17.571
17.5954
17.6315
17.6794
17.7388
17.8092
17.8897
17.9793
18.0769
18.1817
18.2925
18.4086
18.5291
18.6533
18.7807
18.9106
19.0426
19.1763
19.3113
19.4473
19.584
19.7213
19.8589
19.9967
20.1345
20.2723
20.4099
20.5473
17.5662
17.5617
17.5632
17.5724
17.5963
17.6423
17.7089
17.7958
17.9018
18.0248
18.1629
18.3139
18.4757
18.6465
18.8247
19.0087
19.1973
19.3896
19.5845
19.7813
19.9793
20.1781
20.3771
20.576
20.7746
20.9724
21.1695
21.3655
21.5604
21.754
21.9464
22.1374
22.3269
17.5672
17.5701
17.5862
17.6287
17.7131
17.837
17.9969
18.1885
18.4068
18.647
18.9047
19.1761
19.458
19.7475
20.0426
20.3414
20.6424
20.9444
21.2465
21.5479
21.8479
22.1461
22.4422
22.7357
23.0264
23.3143
23.5992
23.881
24.1596
24.4351
24.7074
24.9766
25.2425
17.5716
17.5955
17.6669
17.8195
18.0564
18.3596
18.7162
19.1138
19.5418
19.9916
20.4565
20.9312
21.4115
21.8945
22.3777
22.8594
23.338
23.8126
24.2824
24.7468
25.2055
25.658
26.1043
26.5442
26.9776
27.4046
27.8252
28.2395
28.6475
29.0494
29.4452
29.8352
30.2194
17.5854
17.6977
17.9713
18.445
19.0496
19.746
20.5028
21.297
22.1128
22.9393
23.7688
24.5959
25.417
26.2295
27.0314
27.8217
28.5995
29.3642
30.1157
30.8537
31.5783
32.2897
32.9879
33.6732
34.3459
35.0061
35.6544
36.2908
36.9159
37.5298
38.133
38.7257
39.3081
17.6523
18.1446
19.1476
20.4624
21.9368
23.4894
25.0713
26.6554
28.2265
29.7772
31.3023
32.799
34.2657
35.7016
37.1065
38.4806
39.8241
41.1376
42.4218
43.6773
44.9049
46.1053
47.2795
48.4281
49.5519
50.6519
51.7288
52.7833
53.8163
54.8284
55.8204
56.7931
57.7467
18.0423
20.3436
23.6994
27.3329
30.9804
34.5529
38.0231
41.3904
44.6617
47.8429
50.9364
53.9448
56.8706
59.7162
62.4839
65.1761
67.7951
70.3432
72.8225
75.2355
77.5845
79.8717
82.0993
84.2697
86.385
88.4474
90.4588
92.4215
94.3372
96.208
98.0355
99.8218
101.568
21.0773
32.2403
43.8842
55.0929
65.2765
74.7423
83.7144
92.3527
100.686
108.726
116.482
123.96
131.166
138.11
144.8
151.245
157.453
163.435
169.2
174.758
180.118
185.29
190.284
195.109
199.772
204.283
208.65
212.88
216.98
220.958
224.819
228.572
232.218
63.2886
131.175
179.995
221.055
253.722
287.139
321.241
354.336
385.765
415.268
442.776
468.332
492.049
514.059
534.507
553.528
571.253
587.802
603.288
617.811
631.461
644.321
656.465
667.959
678.864
689.233
699.115
708.552
717.583
726.246
734.565
742.579
750.301
1672.14
1819.15
1960.97
2086.92
2197.2
2294.2
2379.69
2455
2521.25
2579.47
2630.54
2675.28
2714.38
2748.5
2778.2
2803.98
2826.28
2845.52
2862.03
2876.13
2888.1
2898.18
2906.58
2913.5
2919.1
2923.53
2926.92
2929.4
2931.05
2931.99
2932.27
2931.98
2931.2
8984.28
8564.24
7946.72
7323.5
6739.65
6215.63
5749.77
5336.05
4966.48
4631.65
4319.48
4027.4
3751.95
3488.2
3232.18
2979.68
2724.84
2469.67
2199.21
1916.19
1614.45
1314.85
1016.31
749.33
554.435
409.086
309.622
245.025
209.917
195.083
190.345
190.439
193.189
198.516
205.517
213.319
221.297
228.947
235.886
241.784
246.36
249.355
250.489
249.854
247.107
242.031
235.249
227.142
218.198
208.938
199.829
191.233
183.38
176.381
170.251
164.942
160.372
156.45
153.081
150.183
147.681
145.514
143.631
141.992
140.561
139.31
138.218
137.264
136.433
135.711
135.087
134.552
134.098
133.718
133.408
133.162
132.976
132.847
132.773
132.751
132.779
132.856
132.977
133.139
133.34
133.579
133.851
134.155
134.488
134.849
135.235
135.645
136.076
136.527
136.996
137.482
137.983
138.498
139.022
139.587
3064.25
3028.9
2990.81
2932.25
2852.77
2752.96
2635.89
2507.49
2375.47
2246.86
2125.65
2011.97
1902.03
1791.73
1676.56
1550.33
1414.92
1262.9
1104.23
947.441
794.78
653.486
526.055
417.592
332.361
268.644
223.494
194.175
177.591
171.119
170.949
173.398
178.701
185.979
194.495
203.523
212.503
220.994
228.646
235.157
240.254
243.68
245.177
244.752
242.251
237.299
230.58
222.512
213.613
204.424
195.426
186.982
179.32
172.538
166.642
161.573
157.244
153.556
150.412
147.728
145.428
143.451
141.747
140.275
139.001
137.898
136.944
136.12
135.411
134.804
134.288
133.853
133.492
133.2
132.97
132.799
132.682
132.615
132.601
132.636
132.716
132.836
132.995
133.19
133.42
133.683
133.976
134.297
134.644
135.014
135.406
135.819
136.25
136.698
137.161
137.639
138.128
138.629
139.138
139.678
1369.38
1347.2
1321.22
1287.96
1247.42
1201.14
1151.02
1099.13
1047.54
997.863
950.829
906.544
863.904
821.418
777.187
729.153
676.613
618.625
556.54
492.504
429.25
369.436
315.053
268.125
229.347
200.362
178.222
162.309
153.867
152.03
153.766
158.437
165.473
174.17
183.816
193.779
203.555
212.746
221.027
228.11
233.728
237.626
239.567
239.442
237.318
232.658
226.158
218.275
209.546
200.525
191.704
183.452
175.994
169.428
163.752
158.904
154.792
151.313
148.37
145.876
143.757
141.95
140.407
139.085
137.953
136.985
136.157
135.451
134.853
134.349
133.929
133.583
133.305
133.089
132.93
132.824
132.765
132.757
132.796
132.877
132.995
133.149
133.336
133.557
133.808
134.087
134.393
134.723
135.075
135.447
135.839
136.247
136.671
137.11
137.56
138.023
138.495
138.977
139.465
139.974
740.376
730.783
718.653
702.994
683.556
660.89
635.847
609.414
582.561
556.107
530.514
505.968
482.253
458.958
435.481
411.191
385.656
358.599
330.233
301.023
272.026
243.827
218.178
195.808
176.684
160.623
147.562
138.55
134.873
135.428
138.848
145.057
153.312
163.005
173.462
184.114
194.502
204.261
213.082
220.689
226.82
231.217
233.657
233.926
232.266
228.07
221.925
214.364
205.921
197.161
188.583
180.562
173.326
166.976
161.51
156.866
152.951
149.66
146.897
144.574
142.616
140.963
139.565
138.381
137.379
136.532
135.817
135.218
134.719
134.308
133.975
133.71
133.507
133.36
133.264
133.214
133.211
133.254
133.336
133.453
133.602
133.782
133.992
134.23
134.495
134.785
135.096
135.429
135.781
136.149
136.534
136.932
137.344
137.767
138.2
138.642
139.092
139.549
140.012
140.487
437.73
434.435
429.671
423.138
414.679
404.442
392.753
380.015
366.641
352.992
339.314
325.735
312.249
298.759
285.099
271.1
256.636
241.673
226.308
210.742
195.305
180.339
166.204
153.259
141.834
132.121
124.424
119.794
119.149
120.994
125.818
132.989
142.076
152.427
163.425
174.551
185.387
195.587
204.861
212.939
219.56
224.467
227.425
228.216
227.051
223.475
217.816
210.701
202.657
194.247
185.977
178.227
171.234
165.105
159.843
155.391
151.656
148.536
145.935
143.767
141.957
140.443
139.177
138.116
137.23
136.494
135.883
135.381
134.974
134.649
134.395
134.204
134.069
133.985
133.945
133.95
133.999
134.084
134.2
134.347
134.522
134.723
134.95
135.201
135.475
135.769
136.083
136.413
136.759
137.119
137.492
137.876
138.271
138.674
139.085
139.503
139.927
140.356
140.788
141.227
272.682
272.279
271.166
268.881
265.584
261.272
256.073
250.154
243.691
236.854
229.771
222.524
215.134
207.583
199.822
191.797
183.467
174.832
165.943
156.907
147.885
139.075
130.692
122.982
116.19
110.509
106.361
104.722
105.505
108.631
114.291
122.087
131.668
142.397
153.706
165.12
176.251
186.775
196.412
204.9
211.98
217.395
220.904
222.293
221.652
218.807
213.757
207.202
199.661
191.689
183.792
176.357
169.633
163.734
158.676
154.407
150.841
147.881
145.429
143.402
141.724
140.335
139.189
138.242
137.463
136.828
136.313
135.902
135.58
135.335
135.155
135.032
134.961
134.936
134.952
135.009
135.1
135.22
135.368
135.541
135.738
135.958
136.198
136.459
136.738
137.034
137.345
137.67
138.007
138.356
138.714
139.081
139.455
139.835
140.221
140.612
141.007
141.404
141.804
142.204
178.342
179.129
179.121
178.794
177.927
176.344
174.233
171.638
168.641
165.318
161.737
157.944
153.963
149.797
145.434
140.859
136.065
131.06
125.879
120.591
115.291
110.105
105.18
100.701
96.8509
93.8061
92.0643
92.1789
93.9199
97.9649
104.037
112.198
122.007
132.884
144.31
155.848
167.137
177.872
187.784
196.615
204.112
210.018
214.089
216.124
216.055
213.995
209.674
203.782
196.84
189.389
181.931
174.859
168.432
162.779
157.929
153.844
150.444
147.63
145.315
143.416
141.86
140.588
139.551
138.709
138.031
137.491
137.066
136.74
136.499
136.329
136.22
136.161
136.152
136.185
136.256
136.357
136.487
136.641
136.818
137.016
137.233
137.469
137.721
137.989
138.272
138.567
138.875
139.193
139.52
139.854
140.196
140.543
140.896
141.251
141.611
141.972
142.336
142.7
143.065
143.424
122.489
123.48
124.108
124.525
124.485
124.219
123.588
122.597
121.328
119.809
118.077
116.155
114.063
111.809
109.396
106.824
104.098
101.23
98.246
95.1981
92.1452
89.1822
86.4111
83.984
82.0277
80.7174
80.6293
81.5549
84.1806
88.6005
94.9103
103.203
113.028
123.865
135.243
146.762
158.086
168.926
179.023
188.128
195.991
202.358
206.985
209.667
210.256
208.965
205.499
200.352
194.095
187.245
180.292
173.634
167.54
162.155
157.527
153.628
150.387
147.715
145.53
143.752
142.31
141.147
140.214
139.471
138.887
138.437
138.098
137.854
137.69
137.593
137.551
137.56
137.613
137.701
137.82
137.965
138.133
138.321
138.527
138.749
138.986
139.237
139.501
139.776
140.063
140.358
140.661
140.972
141.288
141.609
141.934
142.262
142.591
142.922
143.254
143.585
143.917
144.247
144.577
144.895
88.26
89.2254
90.0054
90.6313
91.021
91.2562
91.2197
91.0413
90.6349
90.0364
89.2783
88.37
87.3274
86.1582
84.8697
83.4681
81.9641
80.3691
78.7075
77.0222
75.3498
73.7705
72.3591
71.2456
70.4902
70.4463
71.0421
72.7581
75.8285
80.371
86.7642
95.0011
104.674
115.32
126.514
137.89
149.137
159.982
170.178
179.483
187.653
194.44
199.6
202.921
204.244
203.67
201.149
196.824
191.331
185.156
178.774
172.582
166.861
161.772
157.383
153.677
150.597
148.067
146.009
144.348
143.016
141.957
141.123
140.476
139.984
139.62
139.365
139.199
139.111
139.086
139.115
139.191
139.303
139.445
139.612
139.801
140.008
140.231
140.467
140.715
140.973
141.241
141.518
141.802
142.093
142.39
142.691
142.995
143.302
143.611
143.92
144.229
144.537
144.844
145.149
145.451
145.751
146.047
146.341
146.619
66.5211
67.3768
68.1305
68.784
69.3069
69.7172
69.9705
70.1318
70.1162
70.0103
69.7688
69.4082
68.9523
68.4012
67.766
67.0546
66.2796
65.4518
64.5957
63.7491
62.9338
62.2202
61.6763
61.3877
61.4666
61.9896
63.2336
65.3737
68.5632
73.1197
79.4603
87.503
96.8957
107.231
118.13
129.258
140.329
151.087
161.296
170.725
179.138
186.293
191.948
195.889
197.964
198.113
196.541
193.119
188.454
183.02
177.272
171.601
166.298
161.538
157.409
153.911
151.002
148.618
146.688
145.144
143.92
142.964
142.227
141.673
141.27
140.992
140.819
140.731
140.72
140.769
140.87
141.01
141.182
141.379
141.597
141.832
142.08
142.34
142.609
142.885
143.168
143.457
143.749
144.045
144.344
144.645
144.946
145.247
145.548
145.846
146.143
146.435
146.725
147.009
147.29
147.565
147.835
148.099
148.358
148.597
52.2236
52.952
53.6219
54.229
54.7601
55.2162
55.5791
55.8665
56.0514
56.1664
56.1869
56.1381
56.0154
55.8163
55.5637
55.2624
54.9261
54.5644
54.205
53.8792
53.5984
53.423
53.4397
53.6427
54.1888
55.1873
56.7563
59.0394
62.2257
66.7187
72.8885
80.6329
89.6494
99.583
110.096
120.889
131.697
142.283
152.425
161.902
170.488
177.95
184.052
188.577
191.359
192.312
191.589
189.168
185.375
180.74
175.685
170.591
165.752
161.36
157.518
154.249
151.524
149.296
147.5
146.076
144.963
144.109
143.471
143.01
142.696
142.504
142.412
142.407
142.474
142.6
142.771
142.977
143.21
143.465
143.737
144.021
144.315
144.616
144.922
145.231
145.542
145.855
146.168
146.481
146.792
147.101
147.407
147.71
148.008
148.301
148.588
148.869
149.143
149.41
149.669
149.92
150.164
150.398
150.625
150.826
42.5131
43.1225
43.6977
44.2344
44.7257
45.1685
45.5545
45.8867
46.1555
46.3707
46.5272
46.6274
46.6896
46.6994
46.6745
46.6174
46.5458
46.4693
46.4205
46.4199
46.4671
46.616
46.9502
47.5018
48.3481
49.5778
51.2852
53.5805
56.6826
61.0438
66.9549
74.3256
82.8964
92.3596
102.418
112.803
123.274
133.613
143.61
153.06
161.747
169.449
175.936
180.996
184.454
186.219
186.293
184.882
182.016
178.225
173.916
169.451
165.125
161.142
157.621
154.606
152.087
150.028
148.377
147.08
146.082
145.335
144.798
144.432
144.209
144.105
144.1
144.177
144.327
144.529
144.773
145.048
145.347
145.664
145.993
146.332
146.676
147.023
147.371
147.718
148.064
148.407
148.746
149.08
149.41
149.733
150.05
150.36
150.662
150.955
151.239
151.513
151.778
152.031
152.274
152.506
152.727
152.935
153.134
153.302
35.7307
36.237
36.7235
37.187
37.6231
38.0288
38.3995
38.7341
39.0288
39.2856
39.5045
39.6858
39.8394
39.9641
40.0689
40.1606
40.2513
40.3518
40.4839
40.6701
40.9282
41.2933
41.8221
42.5605
43.5652
44.8991
46.6302
48.856
51.8214
55.989
61.581
68.5258
76.6029
85.547
95.0983
105.018
115.09
125.114
134.898
144.247
152.962
160.831
167.637
173.169
177.251
179.768
180.691
180.175
178.309
175.394
171.874
168.087
164.322
160.792
157.63
154.9
152.611
150.74
149.248
148.089
147.216
146.583
146.15
145.885
145.757
145.745
145.827
145.995
146.228
146.51
146.831
147.179
147.549
147.933
148.326
148.724
149.124
149.523
149.92
150.312
150.699
151.078
151.451
151.814
152.169
152.514
152.849
153.173
153.486
153.786
154.074
154.349
154.61
154.857
155.09
155.309
155.513
155.701
155.877
156.017
30.8821
31.3017
31.7103
32.1058
32.4853
32.8463
33.186
33.5028
33.7947
34.0617
34.3045
34.5242
34.7257
34.9124
35.0907
35.2679
35.4542
35.6607
35.9039
36.2039
36.5826
37.0701
37.7087
38.5409
39.6106
40.9625
42.6456
44.7528
47.5487
51.4717
56.7022
63.1869
70.7395
79.1322
88.1394
97.5508
107.173
116.825
126.33
135.511
144.181
152.143
159.192
165.126
169.765
172.983
174.732
175.058
174.179
172.174
169.477
166.409
163.252
160.22
157.457
155.046
153.016
151.357
150.044
149.038
148.3
147.79
147.471
147.313
147.287
147.368
147.549
147.808
148.129
148.496
148.899
149.327
149.772
150.229
150.692
151.156
151.619
152.078
152.531
152.976
153.411
153.835
154.249
154.65
155.038
155.413
155.775
156.121
156.453
156.769
157.069
157.352
157.619
157.867
158.098
158.311
158.506
158.68
158.84
158.956
27.3518
27.699
28.0411
28.3763
28.7028
29.019
29.3229
29.6131
29.8886
30.149
30.3951
30.6282
30.8517
31.0695
31.2873
31.512
31.7525
32.0195
32.3269
32.6921
33.1361
33.6857
34.3749
35.2392
36.3128
37.6272
39.2195
41.1803
43.7853
47.4251
52.2662
58.2703
65.281
73.1035
81.5423
90.4136
99.5461
108.778
117.949
126.898
135.454
143.434
150.648
156.904
162.025
165.876
168.386
169.574
169.548
168.512
166.655
164.34
161.83
159.338
157.018
154.964
153.222
151.804
150.692
149.858
149.271
148.897
148.702
148.659
148.736
148.926
149.209
149.566
149.981
150.44
150.931
151.445
151.973
152.51
153.049
153.588
154.122
154.648
155.165
155.67
156.163
156.641
157.104
157.552
157.983
158.398
158.795
159.174
159.534
159.875
160.197
160.498
160.779
161.039
161.277
161.492
161.687
161.856
162.007
162.107
24.7467
25.0336
25.3191
25.6019
25.881
26.1552
26.4232
26.6841
26.9373
27.1827
27.4209
27.6534
27.8831
28.1135
28.3497
28.5981
28.8668
29.1654
29.506
29.9038
30.3774
30.9501
31.6501
32.5061
33.5444
34.7877
36.2654
38.0656
40.4603
43.7951
48.2307
53.7445
60.2066
67.4506
75.3078
83.6181
92.2314
101.004
109.793
118.452
126.828
134.755
142.055
148.55
154.069
158.472
161.671
163.652
164.486
164.323
163.354
161.811
159.981
158.068
156.23
154.573
153.157
152.007
151.123
150.483
150.065
149.841
149.784
149.86
150.06
150.365
150.758
151.22
151.737
152.294
152.881
153.488
154.107
154.731
155.356
155.977
156.59
157.192
157.782
158.357
158.917
159.458
159.981
160.485
160.97
161.434
161.877
162.298
162.698
163.075
163.429
163.759
164.065
164.346
164.601
164.83
165.033
165.207
165.358
165.451
22.8079
23.0444
23.2819
23.5197
23.757
23.9931
24.2274
24.4591
24.6881
24.9145
25.1391
25.3633
25.5896
25.8212
26.0629
26.3202
26.6004
26.912
27.2655
27.6741
28.1538
28.7245
29.4092
30.2312
31.2104
32.3639
33.7162
35.3503
37.5222
40.54
44.5629
49.5848
55.4994
62.165
69.4362
77.1742
85.2481
93.5313
101.898
110.219
118.355
126.158
133.466
140.115
145.943
150.81
154.616
157.32
158.958
159.634
159.508
158.77
157.644
156.341
155.021
153.798
152.744
151.896
151.267
150.846
150.62
150.564
150.651
150.868
151.202
151.633
152.145
152.722
153.349
154.013
154.704
155.413
156.131
156.851
157.57
158.282
158.983
159.671
160.344
160.999
161.634
162.249
162.843
163.414
163.962
164.487
164.987
165.463
165.913
166.337
166.735
167.106
167.449
167.762
168.047
168.3
168.524
168.712
168.874
168.967
21.3598
21.5541
21.751
21.9501
22.151
22.3534
22.5568
22.761
22.966
23.1722
23.3805
23.5922
23.8096
24.0358
24.2747
24.5316
24.8125
25.1251
25.4784
25.8835
26.3542
26.9068
27.5601
28.3327
29.24
30.2951
31.5194
32.9881
34.9318
37.6285
41.2384
45.7728
51.1469
57.2406
63.9285
71.0908
78.6134
86.3864
94.2996
102.239
110.082
117.697
124.94
131.659
137.706
142.942
147.262
150.607
152.978
154.44
155.125
155.16
154.774
154.101
153.331
152.575
151.917
151.404
151.063
150.886
150.875
150.995
151.254
151.63
152.111
152.68
153.323
154.024
154.772
155.553
156.358
157.177
158.003
158.83
159.651
160.464
161.263
162.047
162.812
163.557
164.28
164.98
165.654
166.304
166.927
167.524
168.093
168.635
169.148
169.632
170.086
170.51
170.902
171.262
171.587
171.878
172.133
172.347
172.531
172.635
20.28
20.4389
20.6015
20.7676
20.9371
21.1099
21.2857
21.4648
21.6472
21.8335
22.0247
22.2221
22.4277
22.6445
22.8759
23.1264
23.4015
23.7075
24.0522
24.4451
24.8972
25.4222
26.0351
26.7503
27.5802
28.5353
29.6344
30.943
32.66
35.0381
38.2403
42.2957
47.1406
52.6736
58.7868
65.3762
72.3433
79.5927
87.0288
94.5525
102.057
109.427
116.534
123.244
129.419
134.929
139.666
143.557
146.579
148.763
150.196
150.991
151.316
151.305
151.109
150.849
150.619
150.473
150.453
150.54
150.756
151.091
151.542
152.095
152.739
153.46
154.246
155.085
155.964
156.873
157.802
158.743
159.687
160.629
161.564
162.487
163.395
164.284
165.153
165.999
166.82
167.615
168.383
169.123
169.833
170.514
171.165
171.786
172.374
172.931
173.455
173.945
174.4
174.818
175.199
175.539
175.837
176.09
176.308
176.432
19.4807
19.6102
19.7441
19.8823
20.0251
20.1723
20.3241
20.4807
20.6426
20.8103
20.9848
21.1675
21.3603
21.5658
21.7871
22.028
22.2932
22.5883
22.9197
23.295
23.7235
24.216
24.7842
25.4397
26.192
27.0501
28.0306
29.1879
30.6862
32.7544
35.5587
39.1472
43.4768
48.4636
54.0146
60.0396
66.453
73.1725
80.1159
87.1977
94.326
101.4
108.309
114.934
121.152
126.84
131.894
136.232
139.813
142.64
144.763
146.27
147.28
147.92
148.314
148.579
148.805
149.054
149.368
149.756
150.235
150.807
151.47
152.217
153.04
153.93
154.876
155.865
156.888
157.937
159.001
160.074
161.147
162.216
163.274
164.319
165.347
166.353
167.337
168.295
169.226
170.129
171.001
171.843
172.654
173.432
174.177
174.889
175.567
176.21
176.818
177.388
177.92
178.411
178.858
179.26
179.616
179.919
180.185
180.338
18.8979
19.0033
19.1135
19.2287
19.3491
19.4749
19.6062
19.7435
19.8873
20.0383
20.1976
20.3664
20.5465
20.7403
20.9505
21.1804
21.434
21.7161
22.0318
22.3874
22.7903
23.2488
23.772
24.369
25.0473
25.8146
26.6855
27.7034
28.9968
30.77
33.1905
36.3267
40.1569
44.614
49.6183
55.0909
60.9577
67.1474
73.5895
80.2109
86.9332
93.6702
100.327
106.799
112.978
118.754
124.025
128.708
132.749
136.129
138.87
141.029
142.692
143.962
144.946
145.745
146.445
147.112
147.791
148.504
149.272
150.102
150.999
151.96
152.981
154.055
155.174
156.329
157.512
158.713
159.926
161.143
162.357
163.563
164.758
165.936
167.094
168.229
169.339
170.422
171.475
172.497
173.487
174.444
175.367
176.256
177.11
177.927
178.708
179.452
180.157
180.822
181.444
182.021
182.549
183.026
183.451
183.818
184.143
184.336
18.4841
18.5705
18.6619
18.7587
18.8611
18.9695
19.0841
19.2055
19.3342
19.4711
19.6172
19.7738
19.9424
20.1253
20.3248
20.5438
20.7858
21.0545
21.3543
21.6902
22.0678
22.4936
22.9743
23.5169
24.1273
24.8122
25.584
26.4767
27.5847
29.0838
31.1395
33.8405
37.1882
41.1331
45.6076
50.5429
55.874
61.5391
67.4777
73.6275
79.9222
86.2889
92.6468
98.907
104.974
110.752
116.144
121.071
125.47
129.307
132.581
135.323
137.589
139.457
141.014
142.346
143.531
144.632
145.698
146.758
147.837
148.949
150.101
151.295
152.532
153.808
155.118
156.453
157.81
159.179
160.554
161.928
163.296
164.653
165.995
167.319
168.62
169.897
171.145
172.365
173.553
174.707
175.828
176.914
177.963
178.976
179.952
180.89
181.788
182.647
183.465
184.239
184.964
185.639
186.26
186.825
187.332
187.775
188.173
188.416
18.2048
18.277
18.3545
18.4375
18.5264
18.6216
18.7235
18.8327
18.9498
19.0758
19.2115
19.3583
19.5177
19.6915
19.8819
20.0914
20.323
20.5797
20.8651
21.183
21.5377
21.934
22.3768
22.8713
23.4219
24.0343
24.7189
25.5016
26.4495
27.7008
29.4163
31.7022
34.5854
38.0356
41.9978
46.4121
51.2212
56.371
61.8092
67.4828
73.336
79.3075
85.3297
91.3275
97.2195
102.921
108.346
113.419
118.074
122.269
125.984
129.227
132.033
134.453
136.553
138.404
140.072
141.616
143.084
144.509
145.919
147.332
148.759
150.207
151.679
153.174
154.69
156.223
157.769
159.319
160.872
162.419
163.955
165.475
166.979
168.461
169.919
171.349
172.751
174.12
175.456
176.758
178.023
179.251
180.442
181.593
182.706
183.779
184.811
185.801
186.745
187.639
188.481
189.266
189.993
190.657
191.259
191.788
192.272
192.575
18.0367
18.0997
18.1681
18.2422
18.3223
18.409
18.5027
18.6041
18.7138
18.8327
18.9617
19.1022
19.2555
19.4234
19.6076
19.8105
20.0343
20.2818
20.5556
20.8588
21.1943
21.5656
21.9761
22.4294
22.9294
23.4803
24.0905
24.7794
25.5938
26.6317
28.0386
29.9344
32.3723
35.3448
38.8116
42.7215
47.0236
51.6701
56.6152
61.8135
67.2181
72.7777
78.4362
84.131
89.7935
95.351
100.729
105.856
110.67
115.122
119.182
122.841
126.111
129.024
131.625
133.967
136.105
138.09
139.966
141.768
143.523
145.254
146.974
148.694
150.419
152.151
153.892
155.638
157.388
159.137
160.881
162.616
164.336
166.035
167.713
169.368
170.997
172.596
174.164
175.698
177.197
178.66
180.085
181.471
182.818
184.125
185.391
186.616
187.797
188.93
190.013
191.04
192.009
192.917
193.76
194.536
195.243
195.871