/*--------------------------------*- C++ -*----------------------------------*\
  =========                 |
  \\      /  F ield         | OpenFOAM: The Open Source CFD Toolbox
   \\    /   O peration     | Website:  https://openfoam.org
    \\  /    A nd           | Version:  10
     \\/     M anipulation  |
\*---------------------------------------------------------------------------*/
FoamFile
{
    format      ascii;
    class       volScalarField;
    location    "200";
    object      p;
}
// * * * * * * * * * * * * * * * * * * * * * * * * * * * * * * * * * * * * * //

dimensions      [0 2 -2 0 0 0 0];

internalField   nonuniform List<scalar> 
6820
(
15.6199
4.72946
1.2086
0.472377
0.0676171
-0.27542
-0.473475
-0.576662
-0.650013
-0.7137
-0.768547
-0.816415
-0.860764
-0.903752
-0.94629
-0.989009
-1.03256
-1.07753
-1.12445
-1.17384
-1.22619
-1.28203
-1.34197
-1.40672
-1.47709
-1.55398
-1.63843
-1.73172
-1.83523
-1.9532
-2.08992
-2.25852
-2.44461
-6.26802
-2.59079
-1.8474
-1.08057
-0.719318
-0.657417
-0.661222
-0.671714
-0.69765
-0.735977
-0.77727
-0.817972
-0.858497
-0.899388
-0.940768
-0.98285
-1.02603
-1.07076
-1.11749
-1.16666
-1.21874
-1.27423
-1.33371
-1.39786
-1.46744
-1.54332
-1.62658
-1.71877
-1.82225
-1.94016
-2.075
-2.23499
-2.41901
-4.11927
-0.545885
-0.292081
-0.29644
-0.293673
-0.396561
-0.502734
-0.577095
-0.639393
-0.698343
-0.752098
-0.800658
-0.846134
-0.890122
-0.933454
-0.976771
-1.02072
-1.06589
-1.11281
-1.16198
-1.21389
-1.26908
-1.32812
-1.39166
-1.46041
-1.53522
-1.61709
-1.70736
-1.80768
-1.9203
-2.04668
-2.19131
-2.34758
-1.62999
-0.171606
-0.323839
-0.442443
-0.43051
-0.490235
-0.566249
-0.621483
-0.669232
-0.717142
-0.763276
-0.806781
-0.848804
-0.890353
-0.931931
-0.97396
-1.01692
-1.06127
-1.10745
-1.15589
-1.20705
-1.26141
-1.31948
-1.38183
-1.44911
-1.52206
-1.60154
-1.68862
-1.78451
-1.89065
-2.00759
-2.13658
-2.27182
-1.17037
-0.473702
-0.515753
-0.534415
-0.493551
-0.525568
-0.583278
-0.630825
-0.674604
-0.719593
-0.763819
-0.806224
-0.847523
-0.88848
-0.929532
-0.971069
-1.01352
-1.05733
-1.1029
-1.15064
-1.20098
-1.25436
-1.31125
-1.37217
-1.43766
-1.50838
-1.58501
-1.66834
-1.75912
-1.85805
-1.96501
-2.07973
-2.19758
-1.10478
-0.630246
-0.585778
-0.566278
-0.530844
-0.553679
-0.600698
-0.643576
-0.684595
-0.726809
-0.768695
-0.809371
-0.849307
-0.889092
-0.929106
-0.969702
-1.01126
-1.05417
-1.09881
-1.14554
-1.19476
-1.24686
-1.30224
-1.36135
-1.42467
-1.49269
-1.56593
-1.64488
-1.72995
-1.82132
-1.91848
-2.02045
-2.12359
-0.989112
-0.663619
-0.613195
-0.592964
-0.567425
-0.584338
-0.622033
-0.659629
-0.69709
-0.736016
-0.775176
-0.813799
-0.852119
-0.89054
-0.929359
-0.96887
-1.0094
-1.05128
-1.09484
-1.14041
-1.18832
-1.23893
-1.29257
-1.34962
-1.41045
-1.47543
-1.5449
-1.61914
-1.69824
-1.78207
-1.8699
-1.96045
-2.05088
-0.882551
-0.677925
-0.637163
-0.619529
-0.600616
-0.613176
-0.643371
-0.676052
-0.710025
-0.745824
-0.782361
-0.818928
-0.855582
-0.892567
-0.930104
-0.968426
-1.0078
-1.04852
-1.09086
-1.1351
-1.18153
-1.23044
-1.28212
-1.33686
-1.39493
-1.45658
-1.522
-1.59127
-1.6643
-1.74073
-1.81972
-1.89999
-1.97925
-0.81293
-0.690416
-0.656564
-0.64112
-0.62771
-0.637949
-0.662837
-0.691565
-0.722509
-0.755538
-0.789667
-0.824256
-0.859245
-0.894761
-0.930953
-0.968005
-1.00613
-1.04557
-1.08655
-1.12932
-1.17411
-1.22114
-1.27066
-1.32287
-1.37794
-1.43603
-1.49719
-1.56137
-1.62833
-1.69759
-1.76829
-1.83923
-1.9086
-0.769757
-0.698126
-0.670328
-0.657747
-0.649278
-0.658575
-0.679858
-0.705533
-0.733924
-0.76454
-0.796497
-0.829226
-0.862592
-0.896638
-0.931456
-0.967181
-1.00398
-1.04204
-1.08156
-1.12272
-1.16571
-1.21071
-1.25788
-1.30737
-1.35927
-1.41362
-1.4704
-1.52944
-1.59041
-1.65277
-1.71572
-1.77817
-1.83869
-0.742865
-0.702037
-0.680426
-0.670919
-0.666477
-0.67548
-0.694291
-0.717601
-0.743843
-0.772365
-0.802379
-0.833377
-0.865182
-0.897775
-0.931203
-0.965558
-1.00096
-1.03757
-1.07551
-1.11494
-1.156
-1.19882
-1.24349
-1.2901
-1.33868
-1.38919
-1.44151
-1.49543
-1.55055
-1.60635
-1.66206
-1.71678
-1.76933
-0.726734
-0.70427
-0.688393
-0.681683
-0.680283
-0.689232
-0.706273
-0.727692
-0.752094
-0.778772
-0.80703
-0.836407
-0.866704
-0.89786
-0.929882
-0.962825
-0.996775
-1.03183
-1.06811
-1.1057
-1.14471
-1.18521
-1.22726
-1.27087
-1.31602
-1.36262
-1.41048
-1.45935
-1.50883
-1.5584
-1.60739
-1.65503
-1.70038
-0.717823
-0.706017
-0.694965
-0.690663
-0.69148
-0.700418
-0.716102
-0.735931
-0.758698
-0.783705
-0.810334
-0.838164
-0.866984
-0.896702
-0.927291
-0.958774
-0.991201
-1.02464
-1.05915
-1.0948
-1.13165
-1.16973
-1.20905
-1.24958
-1.29123
-1.33389
-1.37734
-1.42129
-1.46536
-1.50906
-1.55182
-1.59298
-1.63179
-0.713598
-0.707768
-0.700541
-0.698261
-0.70066
-0.709547
-0.724109
-0.742528
-0.763784
-0.787224
-0.812297
-0.838616
-0.865963
-0.89422
-0.923337
-0.953302
-0.984135
-1.01586
-1.04853
-1.08215
-1.11674
-1.15231
-1.18882
-1.2262
-1.26434
-1.30309
-1.3422
-1.3814
-1.42032
-1.45851
-1.49549
-1.53071
-1.56358
-0.7123
-0.709693
-0.705371
-0.704732
-0.708235
-0.717005
-0.730578
-0.747696
-0.767515
-0.789446
-0.812995
-0.837809
-0.863663
-0.890423
-0.918012
-0.946395
-0.975558
-1.0055
-1.03622
-1.06773
-1.09999
-1.13297
-1.16662
-1.20083
-1.23547
-1.27035
-1.30526
-1.33989
-1.37392
-1.40696
-1.43859
-1.46838
-1.49583
-0.71275
-0.711801
-0.709599
-0.71024
-0.71448
-0.72306
-0.735726
-0.751615
-0.770044
-0.790495
-0.812532
-0.835826
-0.860155
-0.885369
-0.911372
-0.938102
-0.965521
-0.993598
-1.02231
-1.05162
-1.08148
-1.11183
-1.14258
-1.17362
-1.20479
-1.2359
-1.26673
-1.29701
-1.32643
-1.35466
-1.38135
-1.40614
-1.42864
-0.714164
-0.714016
-0.713301
-0.714889
-0.71958
-0.727895
-0.739704
-0.754416
-0.77149
-0.790482
-0.811006
-0.832761
-0.855527
-0.879145
-0.903501
-0.928513
-0.954116
-0.980258
-1.00689
-1.03394
-1.06135
-1.08904
-1.11689
-1.14478
-1.17254
-1.19999
-1.22691
-1.25304
-1.27812
-1.30187
-1.32398
-1.34418
-1.36215
-0.71603
-0.716232
-0.71651
-0.718749
-0.723662
-0.731635
-0.742611
-0.756186
-0.771937
-0.789486
-0.808498
-0.828696
-0.849866
-0.871843
-0.894498
-0.917732
-0.94146
-0.965606
-0.990097
-1.01485
-1.03979
-1.0648
-1.08977
-1.11455
-1.13898
-1.16288
-1.18605
-1.20826
-1.22926
-1.24883
-1.26671
-1.28268
-1.29649
-0.71801
-0.718339
-0.719237
-0.721872
-0.726815
-0.734368
-0.744516
-0.756981
-0.771435
-0.78756
-0.805063
-0.823694
-0.843243
-0.863543
-0.884456
-0.905866
-0.927671
-0.949778
-0.972096
-0.994528
-1.01697
-1.03931
-1.06142
-1.08316
-1.10436
-1.12485
-1.14444
-1.16293
-1.18012
-1.19578
-1.20974
-1.22181
-1.2318
-0.719889
-0.720241
-0.721482
-0.724293
-0.729104
-0.73616
-0.745469
-0.756839
-0.770016
-0.784734
-0.800737
-0.817797
-0.835712
-0.854314
-0.873456
-0.893011
-0.912863
-0.932904
-0.953029
-0.973129
-0.993089
-1.01279
-1.03209
-1.05086
-1.06894
-1.08615
-1.10234
-1.11732
-1.13092
-1.14296
-1.15328
-1.16174
-1.16819
-0.721533
-0.721865
-0.723244
-0.726045
-0.730582
-0.737061
-0.745506
-0.755785
-0.767699
-0.781026
-0.795541
-0.811035
-0.827313
-0.844208
-0.861566
-0.879252
-0.897138
-0.915106
-0.933037
-0.950815
-0.968317
-0.985418
-1.00198
-1.01787
-1.03294
-1.04703
-1.05999
-1.07166
-1.0819
-1.09055
-1.09749
-1.10261
-1.1058
-0.722867
-0.723164
-0.724525
-0.727156
-0.731291
-0.737113
-0.744658
-0.753837
-0.764496
-0.776446
-0.789488
-0.803427
-0.818077
-0.833269
-0.848846
-0.864665
-0.880591
-0.896494
-0.912251
-0.927735
-0.942823
-0.957384
-0.971288
-0.9844
-0.996581
-1.00769
-1.0176
-1.02615
-1.03324
-1.03874
-1.04253
-1.04456
-1.04473
-0.723859
-0.724117
-0.72534
-0.727658
-0.73127
-0.736351
-0.742951
-0.751013
-0.760417
-0.771002
-0.782588
-0.79499
-0.808029
-0.821535
-0.835348
-0.849319
-0.863305
-0.877173
-0.890789
-0.904028
-0.916759
-0.928857
-0.940193
-0.950638
-0.960064
-0.968346
-0.975362
-0.980993
-0.985133
-0.987682
-0.988557
-0.987706
-0.985078
-0.724514
-0.724734
-0.725715
-0.727587
-0.730556
-0.734807
-0.740406
-0.747326
-0.755471
-0.764701
-0.774849
-0.785739
-0.797194
-0.809043
-0.821123
-0.833279
-0.845365
-0.85724
-0.86877
-0.879824
-0.890274
-0.899996
-0.908865
-0.916763
-0.92357
-0.929175
-0.933469
-0.936353
-0.937737
-0.937541
-0.935698
-0.932177
-0.926953
-0.724876
-0.725058
-0.725699
-0.726984
-0.729185
-0.732506
-0.73704
-0.742783
-0.749661
-0.757546
-0.766279
-0.775689
-0.785597
-0.795831
-0.806223
-0.816614
-0.826853
-0.836796
-0.846306
-0.855252
-0.863508
-0.870953
-0.877469
-0.882945
-0.887273
-0.890353
-0.892091
-0.892403
-0.891214
-0.888462
-0.884094
-0.878095
-0.870463
-0.725027
-0.725171
-0.725363
-0.725905
-0.727191
-0.729471
-0.732862
-0.737388
-0.742988
-0.74954
-0.756887
-0.764856
-0.773267
-0.78194
-0.790703
-0.799393
-0.807853
-0.815939
-0.823512
-0.830441
-0.836603
-0.841881
-0.846165
-0.849352
-0.851344
-0.852053
-0.851398
-0.849309
-0.845727
-0.8406
-0.833889
-0.825596
-0.815735
-0.725104
-0.725206
-0.724811
-0.724413
-0.724609
-0.725712
-0.72787
-0.731132
-0.735442
-0.740677
-0.746676
-0.753256
-0.760229
-0.76741
-0.774618
-0.781685
-0.788452
-0.79477
-0.800502
-0.805517
-0.809697
-0.812929
-0.815111
-0.816147
-0.815952
-0.814447
-0.811564
-0.807245
-0.801443
-0.794119
-0.785245
-0.774834
-0.762916
-0.725313
-0.725367
-0.724186
-0.722583
-0.721466
-0.721225
-0.722043
-0.723986
-0.726998
-0.730942
-0.73564
-0.740896
-0.746509
-0.75228
-0.758024
-0.763563
-0.768735
-0.77339
-0.777391
-0.780609
-0.782929
-0.784247
-0.784465
-0.783498
-0.781269
-0.777711
-0.772768
-0.766391
-0.758544
-0.749201
-0.738341
-0.725988
-0.712185
-0.725972
-0.725954
-0.723682
-0.720498
-0.71777
-0.715978
-0.715327
-0.715895
-0.717608
-0.720299
-0.72376
-0.727774
-0.73212
-0.736584
-0.740969
-0.745092
-0.748785
-0.751896
-0.75429
-0.75584
-0.756438
-0.755983
-0.754387
-0.751573
-0.747474
-0.742031
-0.7352
-0.726942
-0.717232
-0.706049
-0.693385
-0.679269
-0.663754
-0.727578
-0.727423
-0.723552
-0.71823
-0.713494
-0.70989
-0.707622
-0.706762
-0.707189
-0.708682
-0.710993
-0.713869
-0.717061
-0.720339
-0.723491
-0.726325
-0.728671
-0.730375
-0.731302
-0.731331
-0.730356
-0.728286
-0.725039
-0.720547
-0.714751
-0.707605
-0.699069
-0.689117
-0.677731
-0.6649
-0.65062
-0.634929
-0.617883
-0.730946
-0.730473
-0.724124
-0.715826
-0.708544
-0.702799
-0.698746
-0.696418
-0.695599
-0.695981
-0.697254
-0.699121
-0.701299
-0.703533
-0.705597
-0.707293
-0.708443
-0.708895
-0.708515
-0.707187
-0.704811
-0.701302
-0.696585
-0.690602
-0.683302
-0.674646
-0.664605
-0.65316
-0.640301
-0.626024
-0.610332
-0.593265
-0.574882
-0.737458
-0.736146
-0.725764
-0.713255
-0.702725
-0.694426
-0.688408
-0.6846
-0.682611
-0.682001
-0.682383
-0.6834
-0.684731
-0.686092
-0.687242
-0.687974
-0.688108
-0.68749
-0.685991
-0.683498
-0.679917
-0.675168
-0.669188
-0.661923
-0.653331
-0.643382
-0.632055
-0.619336
-0.605223
-0.589718
-0.572831
-0.554601
-0.535091
-0.749761
-0.745928
-0.72856
-0.710138
-0.695595
-0.684311
-0.676178
-0.670937
-0.667902
-0.666456
-0.666122
-0.666481
-0.667161
-0.667851
-0.668296
-0.668277
-0.667614
-0.666151
-0.663761
-0.660336
-0.655787
-0.650041
-0.64304
-0.634738
-0.625101
-0.614104
-0.601734
-0.587983
-0.572855
-0.556358
-0.538505
-0.519337
-0.498912
-0.774102
-0.762763
-0.732076
-0.70502
-0.685658
-0.671092
-0.660926
-0.654533
-0.650751
-0.648751
-0.647979
-0.647946
-0.648229
-0.648493
-0.648472
-0.647943
-0.646722
-0.644657
-0.641623
-0.637517
-0.632255
-0.625771
-0.618011
-0.608937
-0.59852
-0.586743
-0.573596
-0.559079
-0.543199
-0.52597
-0.507409
-0.487557
-0.466473
-0.822926
-0.794432
-0.73951
-0.698598
-0.671618
-0.652363
-0.64009
-0.633047
-0.629146
-0.627294
-0.626837
-0.627159
-0.627749
-0.628238
-0.628346
-0.627847
-0.626558
-0.62433
-0.621048
-0.616617
-0.610965
-0.604035
-0.595785
-0.586183
-0.575211
-0.562859
-0.549126
-0.53402
-0.517553
-0.499743
-0.480612
-0.4602
-0.438552
-0.899508
-0.83634
-0.752824
-0.699867
-0.66052
-0.630743
-0.612966
-0.603032
-0.597159
-0.594157
-0.593326
-0.59379
-0.594821
-0.595938
-0.596786
-0.597077
-0.596576
-0.595106
-0.592529
-0.588738
-0.583653
-0.577214
-0.569382
-0.560129
-0.549438
-0.537305
-0.523735
-0.508743
-0.49235
-0.474583
-0.455469
-0.43505
-0.413378
-1.04188
-0.808161
-0.681267
-0.671908
-0.659078
-0.641121
-0.63303
-0.629315
-0.625397
-0.621699
-0.618821
-0.61645
-0.614203
-0.611882
-0.609326
-0.606343
-0.602751
-0.598399
-0.593161
-0.586928
-0.579609
-0.571133
-0.561446
-0.550508
-0.538291
-0.524774
-0.509949
-0.493814
-0.476384
-0.457677
-0.437716
-0.416529
-0.394147
-1.98953
-0.755417
-0.162655
-0.0877367
-0.10395
-0.141242
-0.194435
-0.248029
-0.295994
-0.338919
-0.377086
-0.41011
-0.438077
-0.46146
-0.480708
-0.49617
-0.508149
-0.516926
-0.522748
-0.52583
-0.526352
-0.524468
-0.520312
-0.514006
-0.505663
-0.495385
-0.483264
-0.469378
-0.453801
-0.436607
-0.417877
-0.397683
-0.376084
-5.75444
-3.54309
-2.52869
-1.907
-1.487
-1.23573
-1.06806
-0.938611
-0.840055
-0.769129
-0.718416
-0.68117
-0.653327
-0.632343
-0.616213
-0.603325
-0.592486
-0.582835
-0.573723
-0.56466
-0.55528
-0.545309
-0.534531
-0.52278
-0.509939
-0.495944
-0.480758
-0.46435
-0.44669
-0.427758
-0.407563
-0.386152
-0.363552
8.10599
4.01988
1.90957
1.14883
0.721516
0.365688
0.102417
-0.0711479
-0.191072
-0.281786
-0.351442
-0.403797
-0.443
-0.472638
-0.494993
-0.511472
-0.5231
-0.530673
-0.534772
-0.535821
-0.534154
-0.530037
-0.523666
-0.51518
-0.504696
-0.49234
-0.478243
-0.462509
-0.445204
-0.426368
-0.40606
-0.384361
-0.361403
-2.77289
-2.63501
-3.00122
-3.32472
-3.41242
-3.35686
-3.22766
-3.05985
-2.89287
-2.76875
-2.7188
-2.76057
-2.89625
-3.11316
-3.38788
-3.69209
-3.9972
-4.27731
-4.51156
-4.68349
-4.77993
-4.79094
-4.70828
-4.52529
-4.24012
-3.85452
-3.37388
-2.81694
-2.22494
-1.63412
-1.05736
-0.500765
0.0437171
0.585087
1.11552
1.62227
2.09248
2.51806
2.89541
3.22332
3.50275
3.73631
3.92839
4.08358
4.2057
4.29932
4.36971
4.42075
4.45548
4.47619
4.48445
4.4814
4.46791
4.44476
4.41275
4.37271
4.32552
4.272
4.21297
4.14913
4.0811
4.0094
3.93449
3.85672
3.77639
3.69373
3.60895
3.5222
3.43361
3.34329
3.25132
3.15779
3.06278
2.96633
2.86852
2.76938
2.66897
2.56731
2.46446
2.36044
2.25529
2.14902
2.04167
1.93322
1.82372
1.71312
1.60147
1.48872
1.37488
1.25993
1.14383
1.02665
0.908166
0.788813
0.667729
0.546873
0.422477
0.303311
0.172099
0.0669714
-2.68428
-2.80786
-3.05893
-3.23814
-3.26049
-3.1911
-3.07574
-2.93533
-2.79784
-2.69661
-2.65809
-2.69762
-2.81783
-3.00857
-3.24989
-3.51674
-3.78319
-4.02529
-4.22316
-4.36082
-4.42557
-4.40772
-4.30009
-4.09719
-3.79663
-3.4005
-2.91513
-2.36
-1.77394
-1.19182
-0.636039
-0.116555
0.383591
0.879508
1.36665
1.83374
2.26916
2.66524
3.01814
3.32626
3.58993
3.81083
3.99255
4.13928
4.25406
4.34043
4.40345
4.44703
4.47431
4.48778
4.48933
4.48031
4.46179
4.43462
4.39958
4.35741
4.30888
4.25468
4.19548
4.13189
4.06442
3.99352
3.91956
3.84285
3.76364
3.68214
3.59851
3.51288
3.42537
3.33607
3.24505
3.1524
3.05818
2.96246
2.86528
2.7667
2.66677
2.56553
2.46303
2.3593
2.25439
2.14831
2.04109
1.93276
1.82332
1.7128
1.60119
1.48849
1.3747
1.25982
1.1438
1.02673
0.908391
0.789225
0.668352
0.547745
0.423596
0.30454
0.173493
0.0672959
-2.55179
-2.68866
-2.83375
-2.97321
-3.03235
-3.01253
-2.94122
-2.8402
-2.73495
-2.6547
-2.6235
-2.65575
-2.7549
-2.91345
-3.11514
-3.33876
-3.56166
-3.76242
-3.92246
-4.02624
-4.06117
-4.01754
-3.88833
-3.66861
-3.35638
-2.95369
-2.46722
-1.9171
-1.33962
-0.770059
-0.238625
0.245487
0.705866
1.16094
1.60859
2.03923
2.4425
2.81115
3.14114
3.43053
3.67913
3.88787
4.05949
4.19789
4.3055
4.38481
4.44054
4.47663
4.49632
4.50232
4.4968
4.48141
4.45744
4.42584
4.38739
4.34278
4.29264
4.23754
4.17803
4.11457
4.04759
3.97742
3.90439
3.82872
3.75064
3.6703
3.58784
3.50335
3.41694
3.32868
3.23864
3.14688
3.05349
2.9585
2.86198
2.76397
2.66455
2.56373
2.4616
2.35817
2.25349
2.1476
2.04054
1.93232
1.82297
1.71251
1.60095
1.4883
1.37457
1.25976
1.14383
1.02688
0.908681
0.7897
0.669043
0.548663
0.424782
0.305736
0.174932
0.0674188
-2.43743
-2.57914
-2.71054
-2.83868
-2.90233
-2.89062
-2.83091
-2.74736
-2.66118
-2.59534
-2.56949
-2.59563
-2.67681
-2.80711
-2.97321
-3.15722
-3.33952
-3.501
-3.62459
-3.69567
-3.70211
-3.63438
-3.48553
-3.25096
-2.92902
-2.52167
-2.03578
-1.49191
-0.924898
-0.371944
0.132027
0.582619
1.00708
1.4251
1.83649
2.23339
2.60674
2.9497
3.25813
3.52983
3.76416
3.9614
4.12352
4.25407
4.35504
4.42801
4.47711
4.50634
4.51898
4.51791
4.50558
4.48394
4.4545
4.41837
4.37636
4.32912
4.2772
4.22104
4.16107
4.09763
4.03102
3.96152
3.88933
3.81467
3.73766
3.65845
3.57712
3.49376
3.40843
3.3212
3.23213
3.14126
3.04868
2.95443
2.85856
2.76114
2.66221
2.56183
2.46006
2.35694
2.25252
2.14683
2.03992
1.93183
1.82257
1.71219
1.60069
1.48811
1.37444
1.25971
1.14387
1.02703
0.908987
0.790184
0.669741
0.549558
0.425936
0.306812
0.176264
0.0672479
-2.33665
-2.47074
-2.58672
-2.68869
-2.74296
-2.74051
-2.69985
-2.63927
-2.57481
-2.52452
-2.50479
-2.52602
-2.59122
-2.69598
-2.82958
-2.97707
-3.12154
-3.24605
-3.33504
-3.37485
-3.35401
-3.26333
-3.0961
-2.84809
-2.5178
-2.10674
-1.62208
-1.08518
-0.530225
0.00247067
0.477964
0.897359
1.28935
1.67377
2.052
2.41782
2.76336
3.08228
3.37042
3.62537
3.84612
4.03246
4.18557
4.30859
4.40326
4.47044
4.51343
4.53629
4.5423
4.53451
4.5156
4.48781
4.4529
4.41214
4.36642
4.31638
4.26249
4.20511
4.14453
4.08097
4.01464
3.94571
3.87432
3.80059
3.72463
3.64651
3.56629
3.48404
3.39978
3.31357
3.22545
3.13548
3.04371
2.95019
2.85498
2.75814
2.65972
2.55978
2.45839
2.35559
2.25143
2.14595
2.03922
1.93125
1.82211
1.71181
1.60039
1.48788
1.37428
1.25964
1.1439
1.0272
0.909301
0.790676
0.670445
0.550438
0.427071
0.307794
0.177538
0.0668234
-2.24278
-2.36386
-2.46627
-2.55156
-2.60196
-2.60876
-2.58241
-2.53731
-2.48725
-2.44713
-2.43045
-2.44594
-2.49627
-2.57802
-2.68243
-2.7969
-2.90682
-2.99723
-3.05401
-3.06459
-3.01819
-2.90614
-2.72197
-2.4617
-2.12384
-1.70964
-1.22686
-0.697608
-0.156931
0.352605
0.799872
1.19043
1.55315
1.90725
2.25534
2.59269
2.91255
3.20911
3.47825
3.71742
3.92531
4.1013
4.24591
4.3617
4.45034
4.51219
4.54957
4.56648
4.56627
4.55207
4.52681
4.49298
4.45259
4.40711
4.35754
4.30452
4.24849
4.18971
4.12836
4.06456
3.99839
3.92994
3.85927
3.78642
3.71145
3.63439
3.55527
3.4741
3.3909
3.3057
3.21854
3.12946
3.0385
2.94571
2.85117
2.75491
2.65701
2.55753
2.45653
2.35406
2.25017
2.14492
2.03837
1.93056
1.82153
1.71134
1.60001
1.48759
1.37408
1.25953
1.14391
1.02734
0.909602
0.791155
0.671142
0.551293
0.42819
0.308688
0.178782
0.0661602
-2.15393
-2.26111
-2.3516
-2.42468
-2.47022
-2.48144
-2.46468
-2.4313
-2.39272
-2.36079
-2.34627
-2.35633
-2.39329
-2.45449
-2.53271
-2.61734
-2.69578
-2.75487
-2.78189
-2.76531
-2.69513
-2.56317
-2.36338
-2.09204
-1.74753
-1.33083
-0.850548
-0.330056
0.193585
0.678271
1.09797
1.46201
1.79839
2.12523
2.44611
2.75754
3.05384
3.3297
3.58115
3.80552
4.00129
4.16751
4.30415
4.41306
4.49594
4.55286
4.58519
4.59662
4.5906
4.57036
4.53901
4.49929
4.45347
4.40323
4.34968
4.29353
4.23519
4.17485
4.11258
4.04839
3.98227
3.9142
3.84415
3.77212
3.69809
3.62206
3.54399
3.46389
3.38173
3.29754
3.21133
3.12312
3.03297
2.94093
2.84705
2.7514
2.65403
2.55502
2.45442
2.35228
2.24869
2.14368
2.03733
1.92968
1.82079
1.71072
1.5995
1.48718
1.37378
1.25934
1.14385
1.02742
0.90986
0.791596
0.671807
0.552102
0.429271
0.309481
0.179994
0.0652576
-2.06871
-2.16263
-2.24208
-2.30507
-2.34553
-2.35883
-2.34895
-2.32441
-2.29432
-2.2681
-2.2543
-2.25876
-2.28341
-2.32607
-2.38075
-2.43844
-2.48831
-2.51878
-2.51848
-2.47689
-2.38479
-2.23459
-2.02065
-1.73944
-1.38913
-0.970597
-0.493637
0.0162783
0.520626
0.979608
1.37268
1.71241
2.02511
2.32758
2.624
2.912
3.18678
3.4436
3.67864
3.8892
4.07357
4.23058
4.35976
4.46223
4.53961
4.59193
4.61977
4.62624
4.61488
4.58902
4.55191
4.50653
4.45539
4.40039
4.3428
4.28341
4.22261
4.16054
4.09719
4.03247
3.96627
3.89846
3.82896
3.75767
3.68453
3.60946
3.53242
3.45335
3.37222
3.28901
3.20373
3.1164
3.02706
2.93576
2.84256
2.74752
2.6507
2.55216
2.45198
2.3502
2.24691
2.14216
2.03603
1.92856
1.81984
1.70991
1.59881
1.48661
1.37333
1.25903
1.14368
1.02742
0.91004
0.791966
0.672412
0.55284
0.430295
0.310163
0.181175
0.0641142
-1.98626
-2.06794
-2.13706
-2.19133
-2.22683
-2.24057
-2.23508
-2.21664
-2.19241
-2.1698
-2.15557
-2.15433
-2.16759
-2.19349
-2.22698
-2.26041
-2.28443
-2.2889
-2.26367
-2.19924
-2.08717
-1.92045
-1.69388
-1.40404
-1.04884
-0.629359
-0.157018
0.3404
0.823956
1.25693
1.62466
1.94213
2.23355
2.51429
2.78888
3.05579
3.31105
3.55042
3.7703
3.96801
4.14171
4.29006
4.41226
4.50875
4.5809
4.62888
4.65277
4.65483
4.63865
4.60764
4.56516
4.51442
4.45814
4.39846
4.33682
4.2741
4.21072
4.14679
4.08221
4.01681
3.95039
3.88275
3.81369
3.74306
3.67073
3.59658
3.52052
3.44245
3.3623
3.28005
3.19569
3.10922
3.0207
2.93015
2.83764
2.74322
2.64695
2.5489
2.44915
2.34775
2.24478
2.14031
2.03441
1.92715
1.81861
1.70884
1.5979
1.48584
1.3727
1.25855
1.14337
1.02728
0.910105
0.792231
0.672924
0.553481
0.431238
0.310721
0.182319
0.0627342
-1.90593
-1.97645
-2.03601
-2.08245
-2.11311
-2.12601
-2.12287
-2.10824
-2.08769
-2.06696
-2.05129
-2.04423
-2.04686
-2.05754
-2.07194
-2.08355
-2.08428
-2.06527
-2.0175
-1.9324
-1.80232
-1.62087
-1.38323
-1.08606
-0.72705
-0.307786
0.158368
0.641736
1.10349
1.51073
1.8547
2.15179
2.42409
2.68553
2.9407
3.18874
3.42637
3.64984
3.85578
4.04157
4.2053
4.3455
4.46114
4.55213
4.61935
4.66321
4.68357
4.68185
4.6614
4.62574
4.57837
4.52263
4.46148
4.39726
4.33162
4.26555
4.19951
4.13358
4.06764
4.00142
3.93466
3.86705
3.79832
3.72826
3.65668
3.58339
3.50825
3.43113
3.35194
3.27061
3.18715
3.10155
3.01384
2.92404
2.83222
2.73842
2.64272
2.54517
2.44586
2.34485
2.24222
2.13805
2.03241
1.92539
1.81705
1.70746
1.59669
1.4848
1.37183
1.25786
1.14286
1.02696
0.910012
0.792352
0.673306
0.553993
0.432073
0.311138
0.18342
0.0611192
-1.82727
-1.88765
-1.9384
-1.97767
-2.00354
-2.01467
-2.01226
-1.9996
-1.9809
-1.96058
-1.94259
-1.92958
-1.92225
-1.91906
-1.91628
-1.90831
-1.88817
-1.84809
-1.78009
-1.6765
-1.53041
-1.33606
-1.08898
-0.785827
-0.424266
-0.00662075
0.451825
0.919839
1.35926
1.74169
2.06361
2.34211
2.59725
2.84156
3.07953
3.31075
3.53253
3.74155
3.93472
4.10949
4.26392
4.39647
4.50595
4.59184
4.6545
4.69447
4.7116
4.7067
4.68257
4.64285
4.5911
4.53081
4.46513
4.3966
4.32708
4.25767
4.18892
4.12091
4.05347
3.98632
3.91907
3.85138
3.78288
3.71329
3.64237
3.56987
3.49559
3.41936
3.34108
3.26066
3.17808
3.09333
3.00642
2.91737
2.82624
2.73307
2.63794
2.54091
2.44205
2.34145
2.23918
2.13533
2.02997
1.9232
1.81508
1.70571
1.59514
1.48344
1.37067
1.25689
1.1421
1.02643
0.909714
0.792284
0.673518
0.554341
0.432768
0.311397
0.184465
0.0592782
-1.74995
-1.80116
-1.84381
-1.87642
-1.89752
-1.9062
-1.90326
-1.89107
-1.87275
-1.8516
-1.83056
-1.81151
-1.7948
-1.77897
-1.76074
-1.73527
-1.69651
-1.63765
-1.55169
-1.43177
-1.2717
-1.06628
-0.811429
-0.503745
-0.141012
0.273482
0.722725
1.17432
1.59151
1.9506
2.25229
2.51389
2.75365
2.98278
3.20553
3.42181
3.62937
3.82532
4.00681
4.17141
4.31719
4.44255
4.54621
4.62735
4.68588
4.72218
4.73634
4.72878
4.70163
4.65843
4.60288
4.53856
4.46876
4.39623
4.32301
4.25036
4.17889
4.10874
4.03972
3.9715
3.90365
3.83575
3.76737
3.69816
3.6278
3.55601
3.48252
3.40713
3.3297
3.25016
3.16844
3.08452
2.9984
2.91009
2.81965
2.72711
2.63255
2.53604
2.43766
2.33748
2.23559
2.13207
2.02702
1.92052
1.81267
1.70353
1.59318
1.4817
1.36915
1.25559
1.14104
1.02561
0.90916
0.791979
0.673514
0.554486
0.433287
0.311477
0.185435
0.0572165
-1.67381
-1.7167
-1.75191
-1.77828
-1.79466
-1.80037
-1.79593
-1.78303
-1.76389
-1.74094
-1.71627
-1.69114
-1.6656
-1.63823
-1.60614
-1.56509
-1.50982
-1.43439
-1.33264
-1.19852
-1.02647
-0.811833
-0.550855
-0.240199
0.122169
0.531886
0.970445
1.40496
1.80068
2.13829
2.42167
2.66802
2.89399
3.10967
3.31896
3.52197
3.71682
3.90096
4.07179
4.22703
4.36475
4.48336
4.58151
4.6582
4.71297
4.74594
4.75733
4.7475
4.71798
4.67197
4.61324
4.54546
4.47203
4.39588
4.31922
4.24346
4.16934
4.09702
4.02635
3.95697
3.88841
3.82018
3.7518
3.68287
3.61299
3.54182
3.46903
3.39441
3.3178
3.2391
3.15821
3.07509
2.98973
2.90215
2.81239
2.72048
2.62651
2.53052
2.43262
2.33288
2.23138
2.12823
2.0235
1.91731
1.80973
1.70085
1.59076
1.47953
1.36722
1.25391
1.13962
1.02445
0.908296
0.791386
0.673244
0.554383
0.43359
0.311353
0.18631
0.0549497
-1.59876
-1.6341
-1.66245
-1.68295
-1.69468
-1.69704
-1.69038
-1.67583
-1.65495
-1.62944
-1.60072
-1.56954
-1.53571
-1.49784
-1.45333
-1.39848
-1.3287
-1.2388
-1.12336
-0.97706
-0.795004
-0.573006
-0.307583
0.00444891
0.364757
0.767981
1.19457
1.61185
1.9874
2.30568
2.5727
2.80538
3.01904
3.22276
3.42015
3.61138
3.79487
3.96835
4.12946
4.27605
4.40628
4.51855
4.61148
4.68396
4.73529
4.76529
4.77417
4.76236
4.73105
4.68293
4.62168
4.55105
4.47456
4.39524
4.31547
4.23682
4.16015
4.0857
4.01335
3.94273
3.87336
3.80469
3.73621
3.66746
3.59796
3.5273
3.45513
3.38122
3.30537
3.22745
3.14735
3.065
2.98039
2.89352
2.80443
2.71315
2.61975
2.5243
2.42689
2.32759
2.22651
2.12373
2.01936
1.91348
1.80621
1.69762
1.5878
1.47685
1.36481
1.25178
1.13778
1.02291
0.907063
0.79045
0.672656
0.553986
0.433632
0.310996
0.18706
0.0524889
-1.52479
-1.55324
-1.57527
-1.59025
-1.59738
-1.59616
-1.58674
-1.56985
-1.54653
-1.51789
-1.48484
-1.44773
-1.40616
-1.35876
-1.30319
-1.23619
-1.15375
-1.05135
-0.924241
-0.767749
-0.577579
-0.350019
-0.0818597
0.229865
0.586346
0.981403
1.39502
1.79535
2.15245
2.45367
2.70634
2.92689
3.12958
3.32268
3.50949
3.69024
3.86356
4.02741
4.17965
4.31829
4.44153
4.54783
4.63581
4.7043
4.75243
4.7798
4.78648
4.77295
4.74031
4.69076
4.6277
4.5549
4.47594
4.39397
4.31149
4.23023
4.15118
4.07469
4.00065
3.92875
3.85849
3.7893
3.72063
3.65196
3.58272
3.51247
3.44084
3.36756
3.29242
3.21522
3.13586
3.05425
2.97035
2.88417
2.79573
2.70506
2.61224
2.51733
2.42041
2.32158
2.22092
2.11854
2.01453
1.909
1.80205
1.69378
1.58426
1.47361
1.36187
1.24915
1.13546
1.02091
0.905405
0.789113
0.671693
0.553245
0.433367
0.31038
0.187656
0.0498592
-1.45193
-1.47409
-1.49028
-1.50004
-1.50268
-1.49771
-1.48515
-1.46543
-1.43916
-1.40702
-1.3695
-1.32664
-1.27787
-1.22187
-1.15651
-1.0789
-0.985555
-0.872516
-0.735637
-0.570845
-0.374395
-0.143022
0.126179
0.43588
0.786766
1.1721
1.572
1.95603
2.29662
2.58316
2.8235
3.03344
3.22639
3.41004
3.58744
3.75884
3.92302
4.07816
4.2223
4.35358
4.47031
4.57098
4.65425
4.71893
4.76406
4.78908
4.7939
4.77896
4.74533
4.69495
4.63082
4.55654
4.47575
4.3917
4.30698
4.22346
4.14227
4.06386
3.98819
3.91499
3.8438
3.77403
3.7051
3.63639
3.5673
3.49736
3.42619
3.35346
3.27894
3.20241
3.12373
3.04281
2.95959
2.87407
2.78626
2.6962
2.60395
2.50957
2.41316
2.31479
2.21457
2.11259
2.00897
1.90381
1.7972
1.68927
1.58008
1.46975
1.35834
1.24595
1.1326
1.0184
0.90326
0.787317
0.6703
0.552109
0.432745
0.309472
0.188061
0.0470804
-1.38025
-1.39663
-1.40742
-1.41224
-1.4105
-1.40172
-1.38579
-1.36289
-1.33335
-1.29748
-1.25546
-1.2071
-1.15171
-1.088
-1.01403
-0.927262
-0.824621
-0.702675
-0.55782
-0.38652
-0.185538
0.047964
0.316555
0.622542
0.966137
1.34037
1.72606
2.09465
2.42077
2.69498
2.925
3.12585
3.31025
3.48549
3.65449
3.81751
3.97345
4.12067
4.25738
4.38184
4.49247
4.58784
4.66662
4.72764
4.76993
4.79282
4.79608
4.78007
4.74581
4.69508
4.63053
4.55551
4.47358
4.38806
4.30162
4.21624
4.1332
4.05305
3.97585
3.90141
3.82929
3.75891
3.68963
3.62076
3.55172
3.482
3.41119
3.33894
3.26496
3.18903
3.11098
3.03069
2.94811
2.86322
2.77602
2.68654
2.59484
2.501
2.40508
2.30718
2.20741
2.10585
2.00263
1.89785
1.79162
1.68404
1.57521
1.46523
1.35417
1.24213
1.12915
1.01531
0.900573
0.785007
0.668421
0.550528
0.431718
0.308244
0.188242
0.0441892
-1.30982
-1.3209
-1.32666
-1.32682
-1.32084
-1.30823
-1.2888
-1.26254
-1.22953
-1.18985
-1.1434
-1.08985
-1.02842
-0.957857
-0.876407
-0.781808
-0.671378
-0.542138
-0.390972
-0.214838
-0.0109639
0.223075
0.489481
0.790153
1.12489
1.48682
1.85801
2.2121
2.52569
2.78987
3.01157
3.20486
3.38186
3.54967
3.71114
3.8666
4.01508
4.15508
4.28495
4.40307
4.50798
4.5983
4.67279
4.73031
4.76989
4.79082
4.79278
4.77603
4.74149
4.69081
4.62642
4.55135
4.469
4.38265
4.29505
4.20828
4.12373
4.04209
3.96353
3.88794
3.81494
3.74391
3.67418
3.60508
3.536
3.46641
3.39588
3.32401
3.2505
3.17509
3.0976
3.0179
2.93591
2.8516
2.76498
2.67606
2.58491
2.49158
2.39616
2.29873
2.19941
2.09829
1.99548
1.8911
1.78525
1.67805
1.56959
1.45998
1.3493
1.23764
1.12505
1.01161
0.897285
0.782126
0.666001
0.548453
0.430239
0.306664
0.18816
0.0412169
-1.24075
-1.24692
-1.248
-1.24376
-1.2337
-1.21731
-1.19434
-1.16463
-1.1281
-1.08461
-1.03391
-0.975518
-0.908631
-0.832049
-0.744166
-0.64298
-0.526151
-0.391104
-0.235165
-0.0557402
0.149511
0.382613
0.64538
0.939276
1.26379
1.61241
1.96888
2.30933
2.61215
2.86843
3.08379
3.27106
3.44184
3.60313
3.75788
3.90652
4.04821
4.18159
4.30513
4.41734
4.51685
4.60238
4.67275
4.72689
4.76387
4.78297
4.78383
4.76662
4.73215
4.68193
4.61815
4.54365
4.46158
4.37507
4.28691
4.19924
4.11358
4.03075
3.95109
3.87452
3.80067
3.72897
3.65874
3.58934
3.52015
3.45062
3.38027
3.3087
3.23557
3.16061
3.08362
3.00444
2.92298
2.83922
2.75314
2.66476
2.57413
2.4813
2.38637
2.28942
2.19055
2.08986
1.98748
1.88351
1.77806
1.67125
1.56319
1.45397
1.34368
1.23242
1.12024
1.00723
0.893348
0.778626
0.662993
0.545842
0.428267
0.304714
0.187785
0.0382129
-1.1731
-1.17473
-1.17145
-1.16307
-1.14909
-1.12902
-1.10254
-1.0694
-1.02937
-0.982177
-0.927451
-0.864625
-0.792873
-0.711061
-0.617728
-0.511104
-0.389153
-0.24966
-0.0903507
0.0909598
0.296212
0.527047
0.784876
1.07073
1.38386
1.71837
2.05994
2.38739
2.68087
2.93113
3.14205
3.3249
3.49067
3.64639
3.79518
3.93766
4.07316
4.20044
4.3181
4.42478
4.51919
4.60014
4.66656
4.71743
4.75189
4.76926
4.76917
4.75173
4.71763
4.66822
4.60551
4.5321
4.45091
4.36491
4.27681
4.1888
4.10248
4.01885
3.93837
3.86097
3.78635
3.71399
3.64327
3.57354
3.50417
3.43462
3.36438
3.29303
3.2202
3.14562
3.06904
2.99032
2.90935
2.82608
2.7405
2.65263
2.56249
2.47016
2.3757
2.27922
2.1808
2.08056
1.9786
1.87505
1.77002
1.66362
1.55596
1.44715
1.33728
1.22645
1.1147
1.00213
0.888716
0.774462
0.659353
0.542655
0.425766
0.302369
0.187087
0.035221
-1.10697
-1.10438
-1.09704
-1.08475
-1.06704