/*--------------------------------*- C++ -*----------------------------------*\
  =========                 |
  \\      /  F ield         | OpenFOAM: The Open Source CFD Toolbox
   \\    /   O peration     | Website:  https://openfoam.org
    \\  /    A nd           | Version:  10
     \\/     M anipulation  |
\*---------------------------------------------------------------------------*/
FoamFile
{
    format      ascii;
    class       surfaceScalarField;
    location    "200";
    object      phi;
}
// * * * * * * * * * * * * * * * * * * * * * * * * * * * * * * * * * * * * * //

dimensions      [0 3 -1 0 0 0 0];

internalField   nonuniform List<scalar> 
13452
(
6.29964e-05
-2.72796e-06
6.37631e-05
-7.66669e-07
6.45365e-05
-7.73407e-07
6.3866e-05
6.70501e-07
6.25313e-05
1.33474e-06
6.11051e-05
1.42618e-06
5.97843e-05
1.32076e-06
5.86037e-05
1.18059e-06
5.75585e-05
1.04523e-06
5.66357e-05
9.22822e-07
5.58199e-05
8.15829e-07
5.50958e-05
7.24099e-07
5.44502e-05
6.45594e-07
5.38724e-05
5.77739e-07
5.3354e-05
5.18405e-07
5.28881e-05
4.65938e-07
5.24691e-05
4.18998e-07
5.20926e-05
3.76484e-07
5.17551e-05
3.37489e-07
5.14539e-05
3.01251e-07
5.11868e-05
2.67111e-07
5.09523e-05
2.34482e-07
5.07494e-05
2.02823e-07
5.05779e-05
1.71592e-07
5.04376e-05
1.40249e-07
5.03294e-05
1.08208e-07
5.02543e-05
7.50826e-08
5.0214e-05
4.03331e-08
5.02067e-05
7.26282e-09
5.02322e-05
-2.54465e-08
5.02896e-05
-5.74698e-08
5.03973e-05
-1.07627e-07
-1.29221e-07
5.05265e-05
6.28941e-05
-3.63172e-06
6.27387e-05
-6.11293e-07
6.21196e-05
-1.54268e-07
6.23956e-05
3.94442e-07
6.288e-05
8.50389e-07
6.32764e-05
1.02976e-06
6.35254e-05
1.07173e-06
6.36419e-05
1.06407e-06
6.36564e-05
1.03079e-06
6.3598e-05
9.81212e-07
6.34899e-05
9.23951e-07
6.33489e-05
8.6505e-07
6.31872e-05
8.07361e-07
6.3013e-05
7.51891e-07
6.28325e-05
6.98931e-07
6.26499e-05
6.48506e-07
6.24685e-05
6.00452e-07
6.22905e-05
5.54476e-07
6.21177e-05
5.10233e-07
6.19516e-05
4.67345e-07
6.17933e-05
4.25423e-07
6.16438e-05
3.84047e-07
6.15038e-05
3.42778e-07
6.13743e-05
3.01124e-07
6.1256e-05
2.58539e-07
6.11498e-05
2.14369e-07
6.1057e-05
1.67895e-07
6.09793e-05
1.18087e-07
6.09231e-05
6.33712e-08
6.0897e-05
6.85524e-10
6.09096e-05
-7.00802e-08
6.09709e-05
-1.68922e-07
-2.83e-07
6.11247e-05
6.23347e-05
-2.20505e-06
6.26299e-05
-9.06442e-07
6.27902e-05
-3.14588e-07
6.31026e-05
8.20325e-08
6.34577e-05
4.95284e-07
6.37646e-05
7.22856e-07
6.40166e-05
8.19774e-07
6.42186e-05
8.62089e-07
6.43751e-05
8.74243e-07
6.44927e-05
8.63668e-07
6.45784e-05
8.38197e-07
6.46389e-05
8.04604e-07
6.46794e-05
7.66781e-07
6.47047e-05
7.26666e-07
6.47182e-05
6.85374e-07
6.47231e-05
6.43594e-07
6.47219e-05
6.01689e-07
6.47166e-05
5.59767e-07
6.4709e-05
5.17791e-07
6.47008e-05
4.75607e-07
6.46932e-05
4.32982e-07
6.46877e-05
3.89601e-07
6.46854e-05
3.45088e-07
6.46875e-05
2.98954e-07
6.46955e-05
2.50614e-07
6.47105e-05
1.99298e-07
6.47344e-05
1.44057e-07
6.4769e-05
8.35041e-08
6.48166e-05
1.57611e-08
6.48802e-05
-6.29606e-08
6.4966e-05
-1.55904e-07
6.50741e-05
-2.76948e-07
-4.25376e-07
6.52164e-05
6.47919e-05
-1.41383e-06
6.47406e-05
-8.55199e-07
6.47911e-05
-3.65061e-07
6.49066e-05
-3.34723e-08
6.5084e-05
3.17837e-07
6.52626e-05
5.44293e-07
6.54266e-05
6.55788e-07
6.5575e-05
7.13626e-07
6.57071e-05
7.42195e-07
6.58228e-05
7.4796e-07
6.59236e-05
7.37424e-07
6.60114e-05
7.168e-07
6.60883e-05
6.89906e-07
6.61561e-05
6.58787e-07
6.62168e-05
6.24715e-07
6.62718e-05
5.8855e-07
6.63227e-05
5.50812e-07
6.63707e-05
5.11752e-07
6.64171e-05
4.71442e-07
6.64629e-05
4.29816e-07
6.65092e-05
3.86702e-07
6.65569e-05
3.4182e-07
6.66072e-05
2.94797e-07
6.6661e-05
2.45133e-07
6.67195e-05
1.92186e-07
6.67837e-05
1.35108e-07
6.68549e-05
7.28036e-08
6.69347e-05
3.74407e-09
6.70246e-05
-7.42079e-08
6.71263e-05
-1.64577e-07
6.72414e-05
-2.71036e-07
6.73671e-05
-4.02616e-07
-5.60746e-07
6.75024e-05
6.70186e-05
-9.75602e-07
6.68725e-05
-7.09177e-07
6.68487e-05
-3.41231e-07
6.688e-05
-6.48137e-08
6.69735e-05
2.24359e-07
6.70882e-05
4.29572e-07
6.72021e-05
5.41936e-07
6.73109e-05
6.04852e-07
6.74134e-05
6.39697e-07
6.75087e-05
6.52655e-07
6.75967e-05
6.49348e-07
6.76783e-05
6.3528e-07
6.77542e-05
6.14012e-07
6.78254e-05
5.87554e-07
6.78929e-05
5.57198e-07
6.79576e-05
5.23835e-07
6.80204e-05
4.88024e-07
6.80821e-05
4.50058e-07
6.81435e-05
4.10042e-07
6.82054e-05
3.67937e-07
6.82685e-05
3.23582e-07
6.83336e-05
2.76702e-07
6.84015e-05
2.26908e-07
6.8473e-05
1.73675e-07
6.85488e-05
1.16323e-07
6.863e-05
5.39594e-08
6.87174e-05
-1.45655e-08
6.88119e-05
-9.08075e-08
6.89145e-05
-1.76818e-07
6.90255e-05
-2.7554e-07
6.91446e-05
-3.9019e-07
6.92683e-05
-5.26256e-07
-6.84802e-07
6.93923e-05
6.90894e-05
-6.80979e-07
6.89453e-05
-5.6506e-07
6.89046e-05
-3.00515e-07
6.89115e-05
-7.16984e-08
6.89676e-05
1.68189e-07
6.90478e-05
3.4937e-07
6.91323e-05
4.57514e-07
6.92157e-05
5.21419e-07
6.9297e-05
5.58377e-07
6.93752e-05
5.74428e-07
6.94499e-05
5.7464e-07
6.95214e-05
5.63862e-07
6.959e-05
5.45367e-07
6.96564e-05
5.21111e-07
6.97213e-05
4.92375e-07
6.97851e-05
4.60043e-07
6.98484e-05
4.24675e-07
6.99119e-05
3.86572e-07
6.99761e-05
3.45848e-07
7.00416e-05
3.02467e-07
7.01089e-05
2.56268e-07
7.01786e-05
2.06968e-07
7.02514e-05
1.54166e-07
7.03277e-05
9.73223e-08
7.04083e-05
3.57431e-08
7.04937e-05
-3.14596e-08
7.05846e-05
-1.05412e-07
7.06813e-05
-1.87555e-07
7.07842e-05
-2.79696e-07
7.08928e-05
-3.84146e-07
7.10059e-05
-5.03336e-07
7.11201e-05
-6.40377e-07
-7.95631e-07
7.12309e-05
7.11542e-05
-4.6883e-07
7.10296e-05
-4.40489e-07
7.09843e-05
-2.55207e-07
7.09806e-05
-6.79454e-08
7.10169e-05
1.31856e-07
7.10763e-05
2.89936e-07
7.11427e-05
3.91121e-07
7.12105e-05
4.53609e-07
7.12783e-05
4.90587e-07
7.1345e-05
5.07695e-07
7.14101e-05
5.09541e-07
7.14736e-05
5.00372e-07
7.15358e-05
4.83171e-07
7.15971e-05
4.59818e-07
7.16579e-05
4.31571e-07
7.17187e-05
3.99295e-07
7.17798e-05
3.63539e-07
7.18418e-05
3.24607e-07
7.1905e-05
2.82613e-07
7.197e-05
2.37524e-07
7.2037e-05
1.89176e-07
7.21067e-05
1.37284e-07
7.21795e-05
8.14474e-08
7.22556e-05
2.11327e-08
7.23357e-05
-4.43357e-08
7.24201e-05
-1.15798e-07
7.25089e-05
-1.94288e-07
7.26024e-05
-2.8106e-07
7.27003e-05
-3.77597e-07
7.28018e-05
-4.856e-07
7.29052e-05
-6.06716e-07
7.30073e-05
-7.4254e-07
-8.92852e-07
7.31046e-05
7.32529e-05
-3.16488e-07
7.31468e-05
-3.34337e-07
7.30996e-05
-2.08006e-07
7.30893e-05
-5.76765e-08
7.31135e-05
1.07717e-07
7.31593e-05
2.44113e-07
7.32137e-05
3.36649e-07
7.32714e-05
3.95987e-07
7.33303e-05
4.31664e-07
7.33893e-05
4.48639e-07
7.34479e-05
4.51018e-07
7.35057e-05
4.42498e-07
7.35632e-05
4.25766e-07
7.36204e-05
4.02607e-07
7.36777e-05
3.7424e-07
7.37355e-05
3.41502e-07
7.37941e-05
3.04932e-07
7.38539e-05
2.64831e-07
7.39152e-05
2.21316e-07
7.39783e-05
1.74357e-07
7.40437e-05
1.23795e-07
7.41116e-05
6.9356e-08
7.41824e-05
1.0651e-08
7.42564e-05
-5.2824e-08
7.43338e-05
-1.21697e-07
7.44147e-05
-1.96725e-07
7.44992e-05
-2.78807e-07
7.45871e-05
-3.68975e-07
7.46779e-05
-4.68365e-07
7.47704e-05
-5.78149e-07
7.4863e-05
-6.99315e-07
7.4953e-05
-8.32519e-07
-9.77137e-07
7.50373e-05
7.53948e-05
-2.08809e-07
7.53057e-05
-2.45232e-07
7.5259e-05
-1.61284e-07
7.52445e-05
-4.32642e-08
7.52603e-05
9.1932e-08
7.52964e-05
2.08049e-07
7.53422e-05
2.90861e-07
7.53925e-05
3.45709e-07
7.5445e-05
3.79081e-07
7.54986e-05
3.95063e-07
7.55524e-05
3.97206e-07
7.56062e-05
3.88686e-07
7.56601e-05
3.71897e-07
7.57142e-05
3.48503e-07
7.57688e-05
3.19666e-07
7.58241e-05
2.86192e-07
7.58804e-05
2.48603e-07
7.59381e-05
2.07197e-07
7.59973e-05
1.62096e-07
7.60584e-05
1.13277e-07
7.61216e-05
6.05966e-08
7.61871e-05
3.79787e-09
7.62553e-05
-5.74776e-08
7.63261e-05
-1.23688e-07
7.63998e-05
-1.9539e-07
7.64763e-05
-2.73238e-07
7.65555e-05
-3.5797e-07
7.66369e-05
-4.50388e-07
7.67198e-05
-5.51304e-07
7.68031e-05
-6.61455e-07
7.68852e-05
-7.81328e-07
7.69636e-05
-9.11002e-07
-1.0496e-06
7.70361e-05
7.75847e-05
-1.3395e-07
7.7512e-05
-1.72556e-07
7.74683e-05
-1.17497e-07
7.74516e-05
-2.66324e-08
7.74614e-05
8.21605e-08
7.749e-05
1.79428e-07
7.7529e-05
2.51886e-07
7.75735e-05
3.01216e-07
7.76211e-05
3.31449e-07
7.76704e-05
3.45735e-07
7.77206e-05
3.47026e-07
7.77713e-05
3.38005e-07
7.78224e-05
3.20772e-07
7.78741e-05
2.96848e-07
7.79264e-05
2.67323e-07
7.79797e-05
2.32963e-07
7.8034e-05
1.9427e-07
7.80896e-05
1.51538e-07
7.81469e-05
1.04895e-07
7.82058e-05
5.43312e-08
7.82667e-05
-2.79136e-10
7.83296e-05
-5.9162e-08
7.83948e-05
-1.22634e-07
7.84622e-05
-1.91094e-07
7.85318e-05
-2.65016e-07
7.86035e-05
-3.44933e-07
7.8677e-05
-4.31422e-07
7.87516e-05
-5.25066e-07
7.88267e-05
-6.26396e-07
7.89011e-05
-7.35807e-07
7.89732e-05
-8.53428e-07
7.90412e-05
-9.78987e-07
-1.11145e-06
7.9103e-05
7.98272e-05
-8.2855e-08
7.97699e-05
-1.15268e-07
7.97311e-05
-7.86723e-08
7.97141e-05
-9.58258e-09
7.97196e-05
7.65736e-08
7.97425e-05
1.56572e-07
7.97759e-05
2.18455e-07
7.98156e-05
2.61531e-07
7.98591e-05
2.87943e-07
7.99049e-05
2.99935e-07
7.99521e-05
2.99852e-07
8.00002e-05
2.89913e-07
8.0049e-05
2.71922e-07
8.00986e-05
2.47244e-07
8.01491e-05
2.16884e-07
8.02005e-05
1.81557e-07
8.0253e-05
1.41742e-07
8.03068e-05
9.77295e-08
8.03621e-05
4.96516e-08
8.04189e-05
-2.48504e-09
8.04774e-05
-5.87801e-08
8.05376e-05
-1.19423e-07
8.05997e-05
-1.84681e-07
8.06635e-05
-2.54883e-07
8.07289e-05
-3.30413e-07
8.07956e-05
-4.11683e-07
8.08633e-05
-4.99115e-07
8.09314e-05
-5.93095e-07
8.09989e-05
-6.93924e-07
8.10648e-05
-8.01741e-07
8.11278e-05
-9.16427e-07
8.11863e-05
-1.0375e-06
-1.16384e-06
8.12387e-05
8.21263e-05
-4.87031e-08
8.20827e-05
-7.16911e-08
8.20502e-05
-4.61171e-08
8.20343e-05
6.25793e-09
8.20374e-05
7.35309e-08
8.20559e-05
1.38058e-07
8.20848e-05
1.89542e-07
8.21204e-05
2.25932e-07
8.21603e-05
2.48005e-07
8.22031e-05
2.57207e-07
8.22476e-05
2.5531e-07
8.22934e-05
2.44095e-07
8.23403e-05
2.25083e-07
8.2388e-05
1.99472e-07
8.24367e-05
1.6817e-07
8.24865e-05
1.31836e-07
8.25373e-05
9.09227e-08
8.25893e-05
4.57122e-08
8.26426e-05
-3.6561e-09
8.26973e-05
-5.71574e-08
8.27534e-05
-1.14862e-07
8.28109e-05
-1.76918e-07
8.28697e-05
-2.43537e-07
8.29298e-05
-3.14977e-07
8.29909e-05
-3.91528e-07
8.30527e-05
-4.73488e-07
8.31147e-05
-5.61136e-07
8.31763e-05
-6.54695e-07
8.32367e-05
-7.54282e-07
8.32948e-05
-8.5985e-07
8.33495e-05
-9.71118e-07
8.33995e-05
-1.08748e-06
-1.2078e-06
8.34434e-05
8.44855e-05
-2.64155e-08
8.44536e-05
-3.97733e-08
8.44278e-05
-2.03589e-08
8.44145e-05
1.96136e-08
8.44164e-05
7.15713e-08
8.44319e-05
1.22595e-07
8.44572e-05
1.64216e-07
8.44893e-05
1.93789e-07
8.45262e-05
2.11193e-07
8.45661e-05
2.17226e-07
8.46083e-05
2.13155e-07
8.4652e-05
2.00366e-07
8.4697e-05
1.80113e-07
8.4743e-05
1.53424e-07
8.47901e-05
1.21103e-07
8.48382e-05
8.37503e-08
8.48873e-05
4.17886e-08
8.49375e-05
-4.51088e-09
8.49889e-05
-5.50016e-08
8.50414e-05
-1.09639e-07
8.5095e-05
-1.68463e-07
8.51496e-05
-2.31577e-07
8.52052e-05
-2.99136e-07
8.52616e-05
-3.71327e-07
8.53184e-05
-4.48349e-07
8.53753e-05
-5.30397e-07
8.54318e-05
-6.17627e-07
8.54872e-05
-7.10127e-07
8.55408e-05
-8.07875e-07
8.55917e-05
-9.10698e-07
8.56388e-05
-1.01821e-06
8.5681e-05
-1.12975e-06
-1.24415e-06
8.57174e-05
8.6908e-05
-1.22827e-08
8.68856e-05
-1.73704e-08
8.68665e-05
-1.25308e-09
8.68565e-05
2.96823e-08
8.68585e-05
6.95019e-08
8.68721e-05
1.09036e-07
8.68947e-05
1.41609e-07
8.6924e-05
1.64512e-07
8.69581e-05
1.77108e-07
8.69956e-05
1.79723e-07
8.70355e-05
1.7321e-07
8.70773e-05
1.58615e-07
8.71204e-05
1.36944e-07
8.71648e-05
1.09063e-07
8.72102e-05
7.56749e-08
8.72566e-05
3.73157e-08
8.73041e-05
-5.62493e-09
8.73524e-05
-5.28865e-08
8.74017e-05
-1.04317e-07
8.7452e-05
-1.59852e-07
8.7503e-05
-2.19499e-07
8.75547e-05
-2.83318e-07
8.7607e-05
-3.51409e-07
8.76596e-05
-4.23889e-07
8.77121e-05
-5.00878e-07
8.77642e-05
-5.82476e-07
8.78153e-05
-6.68738e-07
8.78648e-05
-7.59647e-07
8.7912e-05
-8.55082e-07
8.79561e-05
-9.54781e-07
8.79962e-05
-1.0583e-06
8.80314e-05
-1.16496e-06
-1.27361e-06
8.80609e-05
8.93969e-05
-3.65795e-09
8.9382e-05
-2.45729e-09
8.93689e-05
1.18235e-08
8.93625e-05
3.61485e-08
8.93655e-05
6.64735e-08
8.93781e-05
9.64277e-08
8.93988e-05
1.20937e-07
8.94257e-05
1.37537e-07
8.94575e-05
1.4537e-07
8.94927e-05
1.44456e-07
8.95306e-05
1.35333e-07
8.95705e-05
1.18766e-07
8.96119e-05
9.55507e-08
8.96545e-05
6.64035e-08
8.96983e-05
3.19257e-08
8.9743e-05
-7.40691e-09
8.97886e-05
-5.12388e-08
8.9835e-05
-9.93214e-08
8.98822e-05
-1.51498e-07
8.99301e-05
-2.07685e-07
8.99784e-05
-2.6786e-07
9.00271e-05
-3.32041e-07
9.0076e-05
-4.00273e-07
9.01247e-05
-4.72613e-07
9.0173e-05
-5.49109e-07
9.02203e-05
-6.29782e-07
9.02661e-05
-7.14606e-07
9.031e-05
-8.03486e-07
9.03511e-05
-8.96228e-07
9.03889e-05
-9.92521e-07
9.04224e-05
-1.09189e-06
9.04511e-05
-1.19366e-06
-1.29671e-06
9.04743e-05
9.19549e-05
1.30747e-09
9.19457e-05
6.74948e-09
9.19377e-05
1.97642e-08
9.19348e-05
3.91077e-08
9.19393e-05
6.20049e-08
9.19516e-05
8.4071e-08
9.1971e-05
1.0155e-07
9.19962e-05
1.12365e-07
9.20259e-05
1.15632e-07
9.20592e-05
1.11203e-07
9.20951e-05
9.93993e-08
9.21331e-05
8.07722e-08
9.21727e-05
5.59398e-08
9.22136e-05
2.54888e-08
9.22556e-05
-1.00704e-08
9.22985e-05
-5.03206e-08
9.23422e-05
-9.4939e-08
9.23866e-05
-1.43689e-07
9.24315e-05
-1.96411e-07
9.24768e-05
-2.53004e-07
9.25224e-05
-3.13416e-07
9.2568e-05
-3.77626e-07
9.26133e-05
-4.45633e-07
9.26582e-05
-5.17438e-07
9.27021e-05
-5.93027e-07
9.27446e-05
-6.72359e-07
9.27854e-05
-7.55345e-07
9.28237e-05
-8.41832e-07
9.28591e-05
-9.31582e-07
9.28908e-05
-1.02426e-06
9.29183e-05
-1.11938e-06
9.29409e-05
-1.21627e-06
-1.31388e-06
9.29581e-05
9.45846e-05
3.88193e-09
9.45796e-05
1.1743e-08
9.45758e-05
2.356e-08
9.4576e-05
3.89477e-08
9.4582e-05
5.59504e-08
9.45945e-05
7.15369e-08
9.46131e-05
8.29717e-08
9.46369e-05
8.85904e-08
9.46649e-05
8.75946e-08
9.46964e-05
7.97744e-08
9.47304e-05
6.53122e-08
9.47666e-05
4.46076e-08
9.48044e-05
1.81411e-08
9.48435e-05
-1.36088e-08
9.48836e-05
-5.02104e-08
9.49246e-05
-9.12992e-08
9.49663e-05
-1.36583e-07
9.50084e-05
-1.85837e-07
9.50509e-05
-2.38897e-07
9.50936e-05
-2.9565e-07
9.51362e-05
-3.56015e-07
9.51785e-05
-4.19939e-07
9.52202e-05
-4.87378e-07
9.52611e-05
-5.58286e-07
9.53006e-05
-6.32601e-07
9.53385e-05
-7.1023e-07
9.53742e-05
-7.91038e-07
9.54072e-05
-8.74834e-07
9.5437e-05
-9.61356e-07
9.5463e-05
-1.05025e-06
9.54847e-05
-1.14106e-06
9.55015e-05
-1.23313e-06
-1.32545e-06
9.55131e-05
9.72885e-05
4.92434e-09
9.72865e-05
1.37282e-08
9.72859e-05
2.41818e-08
9.72886e-05
3.62296e-08
9.72961e-05
4.84319e-08
9.7309e-05
5.86562e-08
9.7327e-05
6.49209e-08
9.73497e-05
6.59379e-08
9.73762e-05
6.10438e-08
9.7406e-05
5.00308e-08
9.74383e-05
3.30089e-08
9.74726e-05
1.02757e-08
9.75085e-05
-1.77888e-08
9.75457e-05
-5.07913e-08
9.75839e-05
-8.8365e-08
9.76228e-05
-1.3019e-07
9.76622e-05
-1.76001e-07
9.77019e-05
-2.25584e-07
9.77418e-05
-2.78774e-07
9.77816e-05
-3.35443e-07
9.78211e-05
-3.95488e-07
9.786e-05
-4.58828e-07
9.7898e-05
-5.25382e-07
9.79348e-05
-5.95066e-07
9.79699e-05
-6.67779e-07
9.80031e-05
-7.43392e-07
9.80338e-05
-8.21738e-07
9.80616e-05
-9.02601e-07
9.80859e-05
-9.8571e-07
9.81064e-05
-1.07072e-06
9.81225e-05
-1.15717e-06
9.81338e-05
-1.24446e-06
-1.33163e-06
9.814e-05
0.000100069
5.012e-09
0.000100069
1.36533e-08
0.000100071
2.25149e-08
0.000100075
3.159e-08
0.000100084
3.97584e-08
0.000100097
4.54777e-08
0.000100115
4.73083e-08
0.000100137
4.42771e-08
0.000100162
3.58657e-08
0.00010019
2.19053e-08
0.00010022
2.47755e-09
0.000100253
-2.21817e-08
0.000100287
-5.17618e-08
0.000100322
-8.59326e-08
0.000100358
-1.24378e-07
0.000100395
-1.66816e-07
0.000100432
-2.13001e-07
0.000100469
-2.62732e-07
0.000100506
-3.1584e-07
0.000100543
-3.72185e-07
0.000100579
-4.3165e-07
0.000100614
-4.94125e-07
0.000100648
-5.59503e-07
0.000100681
-6.2767e-07
0.000100711
-6.98495e-07
0.00010074
-7.71824e-07
0.000100766
-8.47469e-07
0.000100788
-9.25204e-07
0.000100807
-1.00476e-06
0.000100822
-1.08579e-06
0.000100833
-1.16788e-06
0.000100839
-1.25045e-06
-1.33261e-06
0.00010084
0.000102929
4.53349e-09
0.00010293
1.22551e-08
0.000102933
1.93345e-08
0.000102939
2.56756e-08
0.000102948
3.03545e-08
0.000102962
3.2218e-08
0.000102979
3.02134e-08
0.000102999
2.36211e-08
0.000103023
1.20595e-08
0.00010305
-4.58474e-09
0.000103078
-2.62307e-08
0.000103109
-5.26749e-08
0.000103141
-8.36513e-08
0.000103174
-1.18875e-07
0.000103207
-1.58067e-07
0.000103242
-2.00974e-07
0.000103276
-2.4737e-07
0.00010331
-2.97059e-07
0.000103344
-3.49874e-07
0.000103378
-4.05666e-07
0.00010341
-4.64301e-07
0.000103442
-5.25652e-07
0.000103472
-5.8959e-07
0.0001035
-6.55979e-07
0.000103527
-7.24668e-07
0.00010355
-7.95485e-07
0.000103571
-8.68233e-07
0.000103588
-9.42684e-07
0.000103602
-1.01857e-06
0.000103612
-1.09558e-06
0.000103618
-1.17331e-06
0.000103618
-1.25123e-06
-1.3285e-06
0.000103614
0.00010587
3.75418e-09
0.000105872
1.01076e-08
0.000105876
1.5307e-08
0.000105882
1.91079e-08
0.000105892
2.07056e-08
0.000105905
1.92112e-08
0.000105921
1.38526e-08
0.000105941
4.1137e-09
0.000105963
-1.02636e-08
0.000105988
-2.93317e-08
0.000106015
-5.29937e-08
0.000106043
-8.10589e-08
0.000106073
-1.13288e-07
0.000106103
-1.49425e-07
0.000106134
-1.89219e-07
0.000106166
-2.32439e-07
0.000106197
-2.78872e-07
0.000106229
-3.28331e-07
0.000106259
-3.80646e-07
0.000106289
-4.35663e-07
0.000106318
-4.93237e-07
0.000106346
-5.53226e-07
0.000106372
-6.15488e-07
0.000106396
-6.7987e-07
0.000106417
-7.46209e-07
0.000106436
-8.14324e-07
0.000106452
-8.84017e-07
0.000106464
-9.55062e-07
0.000106473
-1.02721e-06
0.000106477
-1.10016e-06
0.000106478
-1.17355e-06
0.000106473
-1.24688e-06
-1.31939e-06
0.000106464
0.000108894
2.86205e-09
0.000108897
7.66733e-09
0.000108901
1.10102e-08
0.000108908
1.24741e-08
0.000108917
1.1328e-08
0.000108929
6.87269e-09
0.000108945
-1.45033e-09
0.000108963
-1.39888e-08
0.000108983
-3.08887e-08
0.000109006
-5.21387e-08
0.000109031
-7.76164e-08
0.000109057
-1.07131e-07
0.000109084
-1.40456e-07
0.000109112
-1.77355e-07
0.00010914
-2.17598e-07
0.000109169
-2.60967e-07
0.000109197
-3.07263e-07
0.000109225
-3.56303e-07
0.000109253
-4.07918e-07
0.000109279
-4.61952e-07
0.000109304
-5.18251e-07
0.000109327
-5.76666e-07
0.000109349
-6.37043e-07
0.000109368
-6.99221e-07
0.000109385
-7.63031e-07
0.000109399
-8.2829e-07
0.00010941
-8.94801e-07
0.000109417
-9.62352e-07
0.000109421
-1.03071e-06
0.00010942
-1.09959e-06
0.000109415
-1.16867e-06
0.000109406
-1.23749e-06
-1.30534e-06
0.000109392
0.000112005
1.9998e-09
0.000112008
5.31649e-09
0.000112012
6.96219e-09
0.000112018
6.33814e-09
0.000112026
2.75992e-09
0.000112038
-4.32069e-09
0.000112051
-1.52863e-08
0.000112068
-3.03353e-08
0.000112086
-4.95074e-08
0.000112107
-7.27253e-08
0.000112129
-9.98336e-08
0.000112153
-1.30631e-07
0.000112177
-1.64897e-07
0.000112202
-2.02407e-07
0.000112228
-2.42943e-07
0.000112253
-2.863e-07
0.000112278
-3.32288e-07
0.000112302
-3.80731e-07
0.000112326
-4.31461e-07
0.000112348
-4.84321e-07
0.000112369
-5.39155e-07
0.000112388
-5.95807e-07
0.000112405
-6.54119e-07
0.00011242
-7.13927e-07
0.000112432
-7.75061e-07
0.000112441
-8.37342e-07
0.000112447
-9.00579e-07
0.000112449
-9.64573e-07
0.000112448
-1.02911e-06
0.000112442
-1.09393e-06
0.000112432
-1.15874e-06
0.000112418
-1.22313e-06
-1.28644e-06
0.000112399
0.000115205
1.28864e-09
0.000115207
3.40366e-09
0.00011521
3.66107e-09
0.000115215
1.26715e-09
0.000115223
-4.42651e-09
0.000115232
-1.38313e-08
0.000115244
-2.71677e-08
0.000115258
-4.44895e-08
0.000115274
-6.57282e-08
0.000115292
-9.07353e-08
0.000115312
-1.19316e-07
0.000115333
-1.51251e-07
0.000115354
-1.86318e-07
0.000115376
-2.24299e-07
0.000115398
-2.64984e-07
0.00011542
-3.0818e-07
0.000115441
-3.53705e-07
0.000115462
-4.01388e-07
0.000115481
-4.51067e-07
0.0001155
-5.02585e-07
0.000115516
-5.55786e-07
0.000115531
-6.10514e-07
0.000115544
-6.66612e-07
0.000115554
-7.23917e-07
0.000115561
-7.82261e-07
0.000115565
-8.41472e-07
0.000115566
-9.01372e-07
0.000115563
-9.61774e-07
0.000115556
-1.02248e-06
0.000115546
-1.08327e-06
0.000115531
-1.14387e-06
0.000115511
-1.20391e-06
-1.26279e-06
0.000115488
0.000118496
8.48147e-10
0.000118497
2.28687e-09
0.000118499
1.63345e-09
0.000118503
-2.12433e-09
0.000118508
-9.59426e-09
0.000118515
-2.10425e-08
0.000118525
-3.65206e-08
0.000118536
-5.59288e-08
0.000118549
-7.90798e-08
0.000118564
-1.05745e-07
0.000118581
-1.3568e-07
0.000118598
-1.68643e-07
0.000118616
-2.04403e-07
0.000118635
-2.42742e-07
0.000118653
-2.83459e-07
0.000118671
-3.26369e-07
0.000118689
-3.71299e-07
0.000118706
-4.18085e-07
0.000118721
-4.66572e-07
0.000118735
-5.16607e-07
0.000118747
-5.68038e-07
0.000118758
-6.20713e-07
0.000118765
-6.74477e-07
0.000118771
-7.29175e-07
0.000118773
-7.84645e-07
0.000118772
-8.40725e-07
0.000118768
-8.97249e-07
0.000118761
-9.54049e-07
0.000118749
-1.01095e-06
0.000118733
-1.06774e-06
0.000118714
-1.1242e-06
0.00011869
-1.17998e-06
-1.23455e-06
0.000118662
0.000121881
8.17384e-10
0.000121881
2.38712e-09
0.000121881
1.50124e-09
0.000121882
-3.1099e-09
0.000121885
-1.19877e-08
0.000121889
-2.52199e-08
0.000121895
-4.26616e-08
0.000121903
-6.40344e-08
0.000121913
-8.90122e-08
0.000121925
-1.1727e-07
0.000121937
-1.48506e-07
0.000121951
-1.82443e-07
0.000121966
-2.18837e-07
0.00012198
-2.57468e-07
0.000121995
-2.98141e-07
0.000122009
-3.40678e-07
0.000122023
-3.84916e-07
0.000122036
-4.30702e-07
0.000122047
-4.77889e-07
0.000122057
-5.26331e-07
0.000122065
-5.75886e-07
0.00012207
-6.26408e-07
0.000122073
-6.77751e-07
0.000122074
-7.29768e-07
0.000122072
-7.82308e-07
0.000122066
-8.35221e-07
0.000122057
-8.88356e-07
0.000122045
-9.41561e-07
0.000122029
-9.94679e-07
0.000122008
-1.04754e-06
0.000121984
-1.09992e-06
0.000121956
-1.15154e-06
-1.20191e-06
0.000121923
0.000125363
1.38363e-09
0.000125361
4.2647e-09
0.000125358
4.07797e-09
0.000125356
-7.56756e-10
0.000125355
-1.06527e-08
0.000125355
-2.54531e-08
0.000125357
-4.47618e-08
0.000125361
-6.80769e-08
0.000125367
-9.48999e-08
0.000125375
-1.24788e-07
0.000125383
-1.57363e-07
0.000125393
-1.92305e-07
0.000125404
-2.2935e-07
0.000125415
-2.68273e-07
0.000125425
-3.08882e-07
0.000125436
-3.51011e-07
0.000125445
-3.94507e-07
0.000125454
-4.3923e-07
0.000125461
-4.85045e-07
0.000125466
-5.31821e-07
0.00012547
-5.79425e-07
0.000125471
-6.27725e-07
0.00012547
-6.76586e-07
0.000125466
-7.25873e-07
0.000125459
-7.7545e-07
0.000125449
-8.25181e-07
0.000125436
-8.74932e-07
0.000125419
-9.24567e-07
0.000125398
-9.7395e-07
0.000125374
-1.02293e-06
0.000125345
-1.07133e-06
0.000125312
-1.11888e-06
-1.16517e-06
0.000125276
0.000128944
2.8306e-09
0.000128939
8.74318e-09
0.000128933
1.05183e-08
0.000128926
6.21453e-09
0.000128919
-4.32375e-09
0.000128915
-2.05781e-08
0.000128912
-4.18067e-08
0.000128911
-6.72089e-08
0.000128912
-9.60624e-08
0.000128915
-1.27773e-07
0.000128919
-1.61865e-07
0.000128925
-1.97965e-07
0.000128931
-2.35781e-07
0.000128938
-2.75082e-07
0.000128945
-3.15683e-07
0.000128952
-3.57428e-07
0.000128957
-4.00182e-07
0.000128962
-4.43823e-07
0.000128965
-4.88233e-07
0.000128966
-5.33299e-07
0.000128966
-5.78905e-07
0.000128963
-6.24938e-07
0.000128958
-6.71277e-07
0.00012895
-7.17805e-07
0.000128939
-7.64402e-07
0.000128924
-8.10949e-07
0.000128907
-8.57329e-07
0.000128886
-9.03426e-07
0.000128861
-9.49123e-07
0.000128832
-9.94293e-07
0.0001288
-1.03878e-06
0.000128763
-1.08237e-06
-1.12468e-06
0.000128723
0.000132626
5.62936e-09
0.000132618
1.71242e-08
0.000132606
2.25574e-08
0.000132592
1.96367e-08
0.000132579
8.72588e-09
0.000132568
-9.09328e-09
0.000132559
-3.25738e-08
0.000132552
-6.0493e-08
0.000132548
-9.1827e-08
0.000132546
-1.25784e-07
0.000132546
-1.61769e-07
0.000132547
-1.99341e-07
0.000132549
-2.38179e-07
0.000132552
-2.78049e-07
0.000132555
-3.18777e-07
0.000132558
-3.60226e-07
0.00013256
-4.02287e-07
0.000132561
-4.44863e-07
0.000132561
-4.87863e-07
0.000132559
-5.31197e-07
0.000132555
-5.74776e-07
0.000132548
-6.18508e-07
0.000132539
-6.62295e-07
0.000132528
-7.0604e-07
0.000132513
-7.49643e-07
0.000132495
-7.93005e-07
0.000132474
-8.36028e-07
0.000132449
-8.78615e-07
0.00013242
-9.2067e-07
0.000132388
-9.62087e-07
0.000132352
-1.00274e-06
0.000132312
-1.04245e-06
-1.08088e-06
0.000132268
0.000136413
1.06211e-08
0.000136399
3.15778e-08
0.000136378
4.28998e-08
0.000136356
4.21913e-08
0.000136334
3.08588e-08
0.000136314
1.08947e-08
0.000136297
-1.56757e-08
0.000136283
-4.70108e-08
0.000136273
-8.16761e-08
0.000136266
-1.18632e-07
0.000136262
-1.57141e-07
0.000136259
-1.96693e-07
0.000136258
-2.36947e-07
0.000136257
-2.77679e-07
0.000136257
-3.1874e-07
0.000136257
-3.60031e-07
0.000136256
-4.01479e-07
0.000136254
-4.43025e-07
0.000136251
-4.84617e-07
0.000136246
-5.26201e-07
0.000136239
-5.6772e-07
0.00013623
-6.0911e-07
0.000136218
-6.50304e-07
0.000136203
-6.91229e-07
0.000136185
-7.31811e-07
0.000136164
-7.71972e-07
0.00013614
-8.11636e-07
0.000136112
-8.50726e-07
0.00013608
-8.89166e-07
0.000136045
-9.26874e-07
0.000136006
-9.63749e-07
0.000135963
-9.99643e-07
-1.03428e-06
0.000135917
0.000140307
1.9401e-08
0.000140283
5.58645e-08
0.00014025
7.584e-08
0.000140214
7.77926e-08
0.00014018
6.52134e-08
0.000140149
4.16072e-08
0.000140123
1.02419e-08
0.000140102
-2.61272e-08
0.000140086
-6.55318e-08
0.000140074
-1.06649e-07
0.000140066
-1.48603e-07
0.00014006
-1.90837e-07
0.000140056
-2.33023e-07
0.000140053
-2.74981e-07
0.000140051
-3.16618e-07
0.000140049
-3.57897e-07
0.000140046
-3.98804e-07
0.000140043
-4.3934e-07
0.000140037
-4.79502e-07
0.000140031
-5.19287e-07
0.000140021
-5.58678e-07
0.00014001
-5.97653e-07
0.000139996
-6.36179e-07
0.000139979
-6.74215e-07
0.000139959
-7.11713e-07
0.000139935
-7.48624e-07
0.000139909
-7.84893e-07
0.000139878
-8.20466e-07
0.000139845
-8.55288e-07
0.000139807
-8.89298e-07
0.000139766
-9.22421e-07
0.000139721
-9.54544e-07
-9.85438e-07
0.000139672
0.000144309
3.51768e-08
0.000144268
9.66632e-08
0.000144216
1.28181e-07
0.000144161
1.31978e-07
0.000144111
1.15653e-07
0.000144067
8.52444e-08
0.000144032
4.60125e-08
0.000144004
2.00085e-09
0.000143982
-4.42189e-08
0.000143967
-9.10846e-08
0.000143956
-1.37651e-07
0.000143948
-1.83396e-07
0.000143943
-2.28078e-07
0.00014394
-2.71622e-07
0.000143937
-3.14043e-07
0.000143935
-3.55401e-07
0.000143932
-3.95777e-07
0.000143928
-4.3525e-07
0.000143922
-4.73891e-07
0.000143915
-5.11757e-07
0.000143905
-5.48888e-07
0.000143892
-5.85309e-07
0.000143877
-6.21028e-07
0.000143859
-6.56043e-07
0.000143838
-6.90339e-07
0.000143813
-7.23894e-07
0.000143785
-7.56681e-07
0.000143753
-7.88669e-07
0.000143718
-8.19822e-07
0.000143678
-8.50103e-07
0.000143635
-8.7946e-07
0.000143589
-9.07812e-07
-9.34979e-07
0.000143538
0.000148418
6.48125e-08
0.000148349
1.65955e-07
0.000148267
2.10367e-07
0.000148187
2.11987e-07
0.000148116
1.86185e-07
0.000148058
1.43085e-07
0.000148013
9.10219e-08
0.00014798
3.56282e-08
0.000147956
-2.00959e-08
0.000147939
-7.45861e-08
0.000147929
-1.27023e-07
0.000147922
-1.77078e-07
0.000147919
-2.24725e-07
0.000147917
-2.7009e-07
0.000147917
-3.13362e-07
0.000147916
-3.54754e-07
0.000147915
-3.94469e-07
0.000147912
-4.32698e-07
0.000147908
-4.69601e-07
0.000147901
-5.05314e-07
0.000147893
-5.39942e-07
0.000147881
-5.73567e-07
0.000147866
-6.06247e-07
0.000147848
-6.38021e-07
0.000147827
-6.68911e-07
0.000147802
-6.98928e-07
0.000147773
-7.28072e-07
0.000147741
-7.56334e-07
0.000147705
-7.83704e-07
0.000147665
-8.10162e-07
0.000147621
-8.35681e-07
0.000147573
-8.60211e-07
-8.83617e-07
0.000147522
0.000152631
1.23254e-07
0.000152511
2.85413e-07
0.000152384
3.37633e-07
0.00015227
3.25865e-07
0.000152177
2.79232e-07
0.000152106
2.13693e-07
0.000152056
1.41744e-07
0.000152021
7.03522e-08
0.000151999
2.18861e-09
0.000151986
-6.17442e-08
0.00015198
-1.21102e-07
0.000151979
-1.75997e-07
0.000151981
-2.26795e-07
0.000151985
-2.73941e-07
0.000151989
-3.17878e-07
0.000151994
-3.59015e-07
0.000151997
-3.97724e-07
0.000151998
-4.34326e-07
0.000151998
-4.69093e-07
0.000151995
-5.02249e-07
0.000151989
-5.33978e-07
0.00015198
-5.64424e-07
0.000151967
-5.93699e-07
0.000151951
-6.21889e-07
0.000151931
-6.49055e-07
0.000151908
-6.75242e-07
0.00015188
-7.00479e-07
0.000151848
-7.24783e-07
0.000151813
-7.48165e-07
0.000151773
-7.70625e-07
0.00015173
-7.9216e-07
0.000151682
-8.12747e-07
-8.32294e-07
0.000151631
0.000156934
2.40748e-07
0.000156725
4.94803e-07
0.000156531
5.3149e-07
0.000156376
4.80369e-07
0.000156263
3.92489e-07
0.000156187
2.90036e-07
0.000156139
1.89607e-07
0.000156112
9.75882e-08
0.000156099
1.45214e-08
0.000156098
-6.00805e-08
0.000156103
-1.268e-07
0.000156114
-1.86487e-07
0.000156127
-2.40103e-07
0.000156142
-2.88528e-07
0.000156156
-3.32525e-07
0.00015617
-3.72749e-07
0.000156182
-4.09768e-07
0.000156192
-4.44057e-07
0.000156199
-4.76013e-07
0.000156202
-5.0596e-07
0.000156203
-5.34163e-07
0.000156199
-5.60836e-07
0.000156191
-5.86147e-07
0.00015618
-6.10229e-07
0.000156164
-6.33185e-07
0.000156144
-6.55095e-07
0.000156119
-6.76016e-07
0.000156091
-6.9599e-07
0.000156057
-7.1505e-07
0.00015602
-7.33215e-07
0.000155978
-7.50499e-07
0.000155932
-7.66906e-07
-7.82388e-07
0.000155883
0.000161292
4.86906e-07
0.000160926
8.61495e-07
0.000160642
8.15007e-07
0.000160446
6.76521e-07
0.000160323
5.15077e-07
0.000160257
3.56184e-07
0.000160228
2.18443e-07
0.000160224
1.0231e-07
0.000160235
2.98178e-09
0.000160258
-8.25208e-08
0.000160287
-1.5611e-07
0.00016032
-2.1968e-07
0.000160355
-2.74989e-07
0.00016039
-3.23464e-07
0.000160424
-3.66242e-07
0.000160455
-4.04268e-07
0.000160484
-4.3833e-07
0.000160509
-4.69081e-07
0.00016053
-4.97052e-07
0.000160547
-5.22676e-07
0.000160559
-5.46304e-07
0.000160566
-5.68219e-07
0.000160569
-5.88646e-07
0.000160566
-6.07765e-07
0.000160559
-6.25719e-07
0.000160546
-6.4262e-07
0.000160529
-6.58554e-07
0.000160506
-6.73586e-07
0.000160479
-6.87765e-07
0.000160447
-7.01131e-07
0.00016041
-7.13713e-07
0.000160369
-7.25537e-07
-7.36583e-07
0.000160323
0.000165514
1.12601e-06
0.00016491
1.46601e-06
0.000164569
1.15638e-06
0.000164372
8.73521e-07
0.000164283
6.03809e-07
0.000164266
3.72689e-07
0.000164289
1.9533e-07
0.000164336
5.62362e-08
0.000164396
-5.79052e-08
0.000164467
-1.52632e-07
0.000164542
-2.31104e-07
0.000164618
-2.96359e-07
0.000164694