/*--------------------------------*- C++ -*----------------------------------*\
  =========                 |
  \\      /  F ield         | OpenFOAM: The Open Source CFD Toolbox
   \\    /   O peration     | Website:  https://openfoam.org
    \\  /    A nd           | Version:  10
     \\/     M anipulation  |
\*---------------------------------------------------------------------------*/
FoamFile
{
    format      ascii;
    class       volVectorField;
    location    "200";
    object      U;
}
// * * * * * * * * * * * * * * * * * * * * * * * * * * * * * * * * * * * * * //

dimensions      [0 1 -1 0 0 0 0];

internalField   nonuniform List<vector> 
6820
(
(7.13228 -2.83249 0)
(7.73443 -2.22097 0)
(7.93473 -1.24476 0)
(7.85845 -0.630716 0)
(7.69467 -0.301134 0)
(7.52028 -0.135485 0)
(7.35291 -0.0538522 0)
(7.19962 -0.0134936 0)
(7.06369 0.00635235 0)
(6.9443 0.0157246 0)
(6.83904 0.0196781 0)
(6.74575 0.0208401 0)
(6.6627 0.0205804 0)
(6.58852 0.0196114 0)
(6.52204 0.0183083 0)
(6.46232 0.0168713 0)
(6.40862 0.0154034 0)
(6.36033 0.0139546 0)
(6.31699 0.0125441 0)
(6.2782 0.0111739 0)
(6.24368 0.00983535 0)
(6.21322 0.00851499 0)
(6.18665 0.00719499 0)
(6.1639 0.00585388 0)
(6.14495 0.00446466 0)
(6.12985 0.0029957 0)
(6.11873 0.00142238 0)
(6.1117 -0.000287227 0)
(6.10928 -0.00199356 0)
(6.11036 -0.00369751 0)
(6.11666 -0.00531202 0)
(6.12432 -0.0078291 0)
(6.14983 -0.0111897 0)
(7.57676 0.619459 0)
(7.41865 0.75924 0)
(7.35547 0.519332 0)
(7.35411 0.338773 0)
(7.40512 0.233099 0)
(7.46368 0.166575 0)
(7.5043 0.12368 0)
(7.52508 0.0963237 0)
(7.53162 0.0784511 0)
(7.52836 0.066166 0)
(7.5181 0.0573281 0)
(7.503 0.0507405 0)
(7.48481 0.0456582 0)
(7.46475 0.0415875 0)
(7.44364 0.0382034 0)
(7.42207 0.035294 0)
(7.40048 0.0327165 0)
(7.37917 0.0303695 0)
(7.35839 0.028178 0)
(7.33833 0.026082 0)
(7.31913 0.0240325 0)
(7.30091 0.0219871 0)
(7.28378 0.0199069 0)
(7.26785 0.0177502 0)
(7.25321 0.0154704 0)
(7.23995 0.013013 0)
(7.22821 0.0103277 0)
(7.21817 0.00734411 0)
(7.21003 0.00409295 0)
(7.20512 0.000352722 0)
(7.2045 -0.00390358 0)
(7.20824 -0.0109456 0)
(7.21957 -0.0171625 0)
(7.26194 -0.0479432 0)
(7.15988 -0.0720159 0)
(7.19709 -0.0847155 0)
(7.23972 -0.0537142 0)
(7.27729 -0.0177131 0)
(7.31594 0.00568281 0)
(7.34947 0.0198201 0)
(7.37554 0.0289684 0)
(7.39573 0.0347377 0)
(7.4113 0.0379602 0)
(7.42288 0.0394341 0)
(7.43114 0.0398012 0)
(7.43681 0.0394654 0)
(7.44049 0.0386658 0)
(7.44265 0.0375538 0)
(7.44365 0.0362288 0)
(7.44381 0.034752 0)
(7.44339 0.0331569 0)
(7.44262 0.0314582 0)
(7.44169 0.0296562 0)
(7.44076 0.0277427 0)
(7.43999 0.0257021 0)
(7.43952 0.0235123 0)
(7.43951 0.0211385 0)
(7.44009 0.0185357 0)
(7.44141 0.0156441 0)
(7.44365 0.0123905 0)
(7.44701 0.00866603 0)
(7.45176 0.0042894 0)
(7.4581 -0.00110451 0)
(7.46671 -0.00784507 0)
(7.47745 -0.0172557 0)
(7.49135 -0.0293264 0)
(7.29243 -0.0887658 0)
(7.224 -0.0616364 0)
(7.23509 -0.0272053 0)
(7.25174 -0.00149644 0)
(7.26663 0.0182614 0)
(7.28654 0.0296081 0)
(7.30677 0.03517 0)
(7.3244 0.0380814 0)
(7.3399 0.0395613 0)
(7.35372 0.0399971 0)
(7.36583 0.0397234 0)
(7.37634 0.0390259 0)
(7.38549 0.0380664 0)
(7.39354 0.0369205 0)
(7.4007 0.0356295 0)
(7.40714 0.034218 0)
(7.41303 0.0326976 0)
(7.41854 0.0310674 0)
(7.4238 0.0293186 0)
(7.42893 0.0274357 0)
(7.43407 0.0253984 0)
(7.43932 0.0231798 0)
(7.44479 0.0207456 0)
(7.45061 0.0180497 0)
(7.45688 0.015034 0)
(7.46373 0.0116239 0)
(7.47131 0.00772245 0)
(7.47975 0.00318984 0)
(7.48924 -0.00217179 0)
(7.49993 -0.00870041 0)
(7.51203 -0.0167682 0)
(7.52528 -0.0273419 0)
(7.53975 -0.0405432 0)
(7.31244 -0.0515558 0)
(7.26801 -0.0320886 0)
(7.26494 -0.0130229 0)
(7.26826 -0.000676761 0)
(7.27424 0.0121916 0)
(7.28594 0.021515 0)
(7.2992 0.0268483 0)
(7.31145 0.0301104 0)
(7.32285 0.0322246 0)
(7.33361 0.0334032 0)
(7.34361 0.0338476 0)
(7.35282 0.0337803 0)
(7.36136 0.0333464 0)
(7.36934 0.0326236 0)
(7.37686 0.0316607 0)
(7.38404 0.0304909 0)
(7.39095 0.029133 0)
(7.39771 0.0275929 0)
(7.40439 0.0258666 0)
(7.41108 0.0239424 0)
(7.41787 0.0218009 0)
(7.42483 0.0194138 0)
(7.43206 0.0167435 0)
(7.43963 0.0137404 0)
(7.44763 0.0103416 0)
(7.45617 0.00646497 0)
(7.46533 0.00200263 0)
(7.47521 -0.00319496 0)
(7.48593 -0.00933313 0)
(7.49752 -0.0167189 0)
(7.51 -0.0256999 0)
(7.5231 -0.0368892 0)
(7.53656 -0.050446 0)
(7.3203 -0.0315081 0)
(7.28858 -0.0241012 0)
(7.28232 -0.0125234 0)
(7.28198 -0.00283763 0)
(7.28497 0.00820498 0)
(7.29261 0.0168451 0)
(7.30188 0.0222255 0)
(7.31087 0.0256921 0)
(7.31955 0.0280035 0)
(7.328 0.029369 0)
(7.3361 0.0299824 0)
(7.34383 0.0300519 0)
(7.35122 0.0297183 0)
(7.35835 0.029061 0)
(7.36528 0.0281299 0)
(7.37207 0.0269581 0)
(7.37878 0.0255631 0)
(7.38547 0.0239499 0)
(7.39221 0.0221132 0)
(7.39906 0.0200392 0)
(7.40607 0.0177051 0)
(7.41331 0.0150788 0)
(7.42084 0.0121188 0)
(7.42871 0.00877176 0)
(7.437 0.0049696 0)
(7.44577 0.000624774 0)
(7.45509 -0.00437587 0)
(7.465 -0.010181 0)
(7.47555 -0.0169826 0)
(7.48671 -0.0250347 0)
(7.49842 -0.0346191 0)
(7.51039 -0.0461199 0)
(7.52232 -0.0596679 0)
(7.32447 -0.021753 0)
(7.30114 -0.0198998 0)
(7.29446 -0.0115311 0)
(7.29281 -0.00311681 0)
(7.29435 0.00628568 0)
(7.29963 0.0139148 0)
(7.3065 0.0189769 0)
(7.3135 0.0223458 0)
(7.32046 0.0246068 0)
(7.3274 0.0259662 0)
(7.33419 0.0266035 0)
(7.3408 0.0266989 0)
(7.34725 0.0263775 0)
(7.35359 0.0257133 0)
(7.35986 0.0247532 0)
(7.3661 0.0235272 0)
(7.37236 0.0220505 0)
(7.37868 0.0203261 0)
(7.38511 0.0183467 0)
(7.39169 0.0160962 0)
(7.39847 0.0135492 0)
(7.40549 0.0106715 0)
(7.4128 0.00741885 0)
(7.42045 0.00373552 0)
(7.42848 -0.000449043 0)
(7.43693 -0.00522325 0)
(7.44583 -0.0106977 0)
(7.4552 -0.0170099 0)
(7.46503 -0.0243282 0)
(7.47527 -0.032856 0)
(7.4858 -0.0428089 0)
(7.49635 -0.0544253 0)
(7.50665 -0.0677897 0)
(7.32738 -0.0151038 0)
(7.31016 -0.0155567 0)
(7.30357 -0.00962733 0)
(7.30124 -0.00272147 0)
(7.3019 0.00508508 0)
(7.30569 0.011684 0)
(7.311 0.0163241 0)
(7.31669 0.0195107 0)
(7.32253 0.0216651 0)
(7.32845 0.0229715 0)
(7.33434 0.0235881 0)
(7.34016 0.0236673 0)
(7.34591 0.0233187 0)
(7.35163 0.0226109 0)
(7.35735 0.0215878 0)
(7.3631 0.0202766 0)
(7.36891 0.0186906 0)
(7.37482 0.0168313 0)
(7.38086 0.0146899 0)
(7.38708 0.0122485 0)
(7.39349 0.00948034 0)
(7.40015 0.00634992 0)
(7.40708 0.00281177 0)
(7.41431 -0.00119078 0)
(7.42187 -0.00572771 0)
(7.42977 -0.0108842 0)
(7.43804 -0.0167629 0)
(7.44665 -0.023486 0)
(7.45558 -0.0311953 0)
(7.46475 -0.0400489 0)
(7.474 -0.0502032 0)
(7.48313 -0.0618029 0)
(7.49189 -0.0748888 0)
(7.32941 -0.0101135 0)
(7.31685 -0.0115737 0)
(7.31065 -0.00761574 0)
(7.30799 -0.00215646 0)
(7.30807 0.00425531 0)
(7.31083 0.00990782 0)
(7.31504 0.0140889 0)
(7.31979 0.0170447 0)
(7.32481 0.0190566 0)
(7.33 0.0202762 0)
(7.33523 0.0208382 0)
(7.34046 0.0208707 0)
(7.34569 0.0204686 0)
(7.35093 0.0196945 0)
(7.35621 0.0185888 0)
(7.36154 0.0171763 0)
(7.36696 0.0154685 0)
(7.37249 0.0134653 0)
(7.37816 0.0111567 0)
(7.384 0.00852405 0)
(7.39003 0.00553993 0)
(7.39628 0.00216828 0)
(7.40277 -0.00163629 0)
(7.40952 -0.00592933 0)
(7.41655 -0.0107777 0)
(7.42384 -0.0162605 0)
(7.4314 -0.0224699 0)
(7.43921 -0.0295108 0)
(7.4472 -0.0374985 0)
(7.45528 -0.0465524 0)
(7.46332 -0.056781 0)
(7.47113 -0.0682679 0)
(7.47851 -0.0810203 0)
(7.33076 -0.0065602 0)
(7.32178 -0.00828372 0)
(7.31628 -0.00571723 0)
(7.31357 -0.00148491 0)
(7.31327 0.00371834 0)
(7.31527 0.00849641 0)
(7.31864 0.0121907 0)
(7.32266 0.0148709 0)
(7.32705 0.0167048 0)
(7.33166 0.0178066 0)
(7.33637 0.0182861 0)
(7.34114 0.0182484 0)
(7.34595 0.0177744 0)
(7.3508 0.0169195 0)
(7.35571 0.0157204 0)
(7.36069 0.0141991 0)
(7.36577 0.012365 0)
(7.37096 0.010217 0)
(7.37628 0.00774442 0)
(7.38177 0.004928 0)
(7.38742 0.00174038 0)
(7.39327 -0.00185402 0)
(7.39932 -0.00589921 0)
(7.40557 -0.010448 0)
(7.41205 -0.0155624 0)
(7.41872 -0.0213138 0)
(7.42558 -0.0277824 0)
(7.43258 -0.0350559 0)
(7.43966 -0.043225 0)
(7.44673 -0.0523773 0)
(7.45366 -0.0625845 0)
(7.46029 -0.0738903 0)
(7.46646 -0.0862774 0)
(7.33163 -0.00412534 0)
(7.32536 -0.00567149 0)
(7.32076 -0.00399619 0)
(7.31821 -0.000758019 0)
(7.3177 0.00340134 0)
(7.31915 0.0073733 0)
(7.32187 0.0105669 0)
(7.3253 0.0129365 0)
(7.32916 0.0145617 0)
(7.33329 0.015519 0)
(7.33757 0.0158924 0)
(7.34195 0.0157654 0)
(7.34641 0.0152051 0)
(7.35093 0.0142593 0)
(7.35552 0.0129602 0)
(7.36019 0.0113267 0)
(7.36496 0.00936649 0)
(7.36984 0.00707734 0)
(7.37485 0.00444811 0)
(7.37999 0.00145966 0)
(7.38528 -0.00191479 0)
(7.39073 -0.00570947 0)
(7.39635 -0.00996593 0)
(7.40212 -0.0147331 0)
(7.40806 -0.0200671 0)
(7.41413 -0.0260306 0)
(7.42031 -0.0326919 0)
(7.42654 -0.0401218 0)
(7.43278 -0.0483903 0)
(7.43892 -0.0575591 0)
(7.44485 -0.067673 0)
(7.45045 -0.0787489 0)
(7.45557 -0.0907524 0)
(7.33219 -0.00248776 0)
(7.32792 -0.00365487 0)
(7.32427 -0.00251223 0)
(7.32206 -4.83129e-05 0)
(7.32148 0.00322925 0)
(7.32254 0.00647178 0)
(7.32476 0.00916794 0)
(7.32771 0.0112047 0)
(7.33112 0.0125973 0)
(7.33484 0.0133875 0)
(7.33875 0.0136346 0)
(7.34279 0.013402 0)
(7.34693 0.0127435 0)
(7.35115 0.0116989 0)
(7.35546 0.0102954 0)
(7.35985 0.00854883 0)
(7.36434 0.00646509 0)
(7.36893 0.00404094 0)
(7.37363 0.00126509 0)
(7.37845 -0.00188115 0)
(7.38339 -0.00542339 0)
(7.38846 -0.00939377 0)
(7.39365 -0.0138307 0)
(7.39896 -0.0187784 0)
(7.40438 -0.0242866 0)
(7.40987 -0.030409 0)
(7.4154 -0.0372022 0)
(7.42093 -0.0447223 0)
(7.42638 -0.0530213 0)
(7.43168 -0.0621414 0)
(7.43673 -0.0721075 0)
(7.44142 -0.0829187 0)
(7.44563 -0.0945288 0)
(7.33253 -0.00140747 0)
(7.3297 -0.00215136 0)
(7.32696 -0.00130511 0)
(7.32518 0.000579 0)
(7.32466 0.00313346 0)
(7.32548 0.00573228 0)
(7.32733 0.00795107 0)
(7.32988 0.00964604 0)
(7.33291 0.0107896 0)
(7.33626 0.0113949 0)
(7.33984 0.0114989 0)
(7.34358 0.011147 0)
(7.34744 0.0103803 0)
(7.35139 0.00923053 0)
(7.35543 0.00771986 0)
(7.35956 0.00586099 0)
(7.36378 0.00365787 0)
(7.36809 0.00110651 0)
(7.37249 -0.00180437 0)
(7.377 -0.00509265 0)
(7.3816 -0.0087823 0)
(7.3863 -0.0129029 0)
(7.39109 -0.0174892 0)
(7.39595 -0.0225805 0)
(7.40086 -0.0282196 0)
(7.40581 -0.0344517 0)
(7.41073 -0.0413225 0)
(7.4156 -0.0488754 0)
(7.42034 -0.057148 0)
(7.42488 -0.0661674 0)
(7.42915 -0.0759443 0)
(7.43304 -0.0864659 0)
(7.43647 -0.0976784 0)
(7.33274 -0.000713008 0)
(7.33092 -0.00107512 0)
(7.32898 -0.00038254 0)
(7.32765 0.00107882 0)
(7.32728 0.00305548 0)
(7.32798 0.00510053 0)
(7.32956 0.00687584 0)
(7.33179 0.00823291 0)
(7.3345 0.00911955 0)
(7.33754 0.00952776 0)
(7.34082 0.00947588 0)
(7.34428 0.00899363 0)
(7.34787 0.00811062 0)
(7.35157 0.00685102 0)
(7.35536 0.00523184 0)
(7.35923 0.00326262 0)
(7.36319 0.000945539 0)
(7.36723 -0.0017241 0)
(7.37136 -0.00475733 0)
(7.37556 -0.00817095 0)
(7.37983 -0.011987 0)
(7.38417 -0.0162322 0)
(7.38856 -0.0209374 0)
(7.39298 -0.0261366 0)
(7.39742 -0.031866 0)
(7.40184 -0.0381629 0)
(7.4062 -0.0450634 0)
(7.41045 -0.0526001 0)
(7.41454 -0.060799 0)
(7.41841 -0.069676 0)
(7.42197 -0.079232 0)
(7.42516 -0.0894463 0)
(7.4279 -0.10026 0)
(7.33286 -0.000281369 0)
(7.33174 -0.000340753 0)
(7.33045 0.000273588 0)
(7.32956 0.00142795 0)
(7.32939 0.0029505 0)
(7.33004 0.00452947 0)
(7.33144 0.00590457 0)
(7.33343 0.00693859 0)
(7.33587 0.00756895 0)
(7.33864 0.00777399 0)
(7.34165 0.00755787 0)
(7.34485 0.0069375 0)
(7.34819 0.00593254 0)
(7.35164 0.00456011 0)
(7.35519 0.00283246 0)
(7.35882 0.000756092 0)
(7.36253 -0.00166847 0)
(7.3663 -0.00444648 0)
(7.37014 -0.00758858 0)
(7.37404 -0.0111103 0)
(7.37799 -0.0150315 0)
(7.38197 -0.019376 0)
(7.38598 -0.0241704 0)
(7.38999 -0.0294437 0)
(7.39397 -0.0352261 0)
(7.39789 -0.0415473 0)
(7.40172 -0.0484352 0)
(7.40541 -0.0559136 0)
(7.4089 -0.0639997 0)
(7.41215 -0.0727009 0)
(7.41508 -0.0820114 0)
(7.41765 -0.0919055 0)
(7.41978 -0.102322 0)
(7.33293 -2.55758e-05 0)
(7.33228 0.000129552 0)
(7.3315 0.000696876 0)
(7.33099 0.00162285 0)
(7.33102 0.00278978 0)
(7.33169 0.0039821 0)
(7.33298 0.00500432 0)
(7.33478 0.00573821 0)
(7.33699 0.00612049 0)
(7.33952 0.00612244 0)
(7.3423 0.0057385 0)
(7.34526 0.00497577 0)
(7.34836 0.00384577 0)
(7.35157 0.00235951 0)
(7.35488 0.00052498 0)
(7.35827 -0.00165406 0)
(7.36173 -0.00417857 0)
(7.36524 -0.0070542 0)
(7.3688 -0.010291 0)
(7.3724 -0.0139033 0)
(7.37603 -0.0179085 0)
(7.37967 -0.0223273 0)
(7.3833 -0.0271826 0)
(7.3869 -0.0324984 0)
(7.39044 -0.0382991 0)
(7.3939 -0.0446082 0)
(7.39723 -0.0514465 0)
(7.40039 -0.0588308 0)
(7.40333 -0.0667713 0)
(7.40602 -0.0752697 0)
(7.40839 -0.0843154 0)
(7.41039 -0.0938797 0)
(7.41199 -0.103901 0)
(7.33297 0.000114518 0)
(7.33263 0.00040226 0)
(7.33222 0.000927878 0)
(7.33203 0.00167512 0)
(7.33224 0.00256035 0)
(7.33296 0.0034334 0)
(7.33418 0.00414926 0)
(7.33584 0.00461043 0)
(7.33786 0.00475864 0)
(7.34018 0.00456304 0)
(7.34273 0.00401229 0)
(7.34547 0.00310662 0)
(7.34834 0.0018513 0)
(7.35133 0.000252397 0)
(7.3544 -0.00168571 0)
(7.35755 -0.00396159 0)
(7.36076 -0.00657743 0)
(7.36401 -0.0095391 0)
(7.36729 -0.0128561 0)
(7.3706 -0.0165409 0)
(7.3739 -0.0206091 0)
(7.3772 -0.0250783 0)
(7.38046 -0.0299673 0)
(7.38367 -0.0352959 0)
(7.38679 -0.0410835 0)
(7.3898 -0.0473479 0)
(7.39266 -0.0541042 0)
(7.39533 -0.0613635 0)
(7.39777 -0.069131 0)
(7.39994 -0.0774043 0)
(7.40179 -0.0861697 0)
(7.4033 -0.0953972 0)
(7.4044 -0.105025 0)
(7.33299 0.00017981 0)
(7.33285 0.000531716 0)
(7.33271 0.00100814 0)
(7.33275 0.00160609 0)
(7.33311 0.00226256 0)
(7.33388 0.0028705 0)
(7.33505 0.00332221 0)
(7.3366 0.00353931 0)
(7.33846 0.00347102 0)
(7.3406 0.00308764 0)
(7.34295 0.00237514 0)
(7.34547 0.00132944 0)
(7.34812 -4.8619e-05 0)
(7.35088 -0.00175672 0)
(7.35373 -0.00379329 0)
(7.35663 -0.00615877 0)
(7.35959 -0.00885622 0)
(7.36257 -0.0118916 0)
(7.36558 -0.0152735 0)
(7.36859 -0.0190131 0)
(7.37158 -0.0231237 0)
(7.37453 -0.0276198 0)
(7.37744 -0.032517 0)
(7.38026 -0.0378309 0)
(7.38298 -0.0435765 0)
(7.38556 -0.0497669 0)
(7.38797 -0.0564128 0)
(7.39018 -0.0635206 0)
(7.39215 -0.071092 0)
(7.39385 -0.0791217 0)
(7.39523 -0.0875943 0)
(7.39627 -0.0964793 0)
(7.39694 -0.105717 0)
(7.333 0.000197833 0)
(7.33299 0.000561051 0)
(7.33302 0.000976565 0)
(7.33323 0.00144201 0)
(7.3337 0.00190666 0)
(7.33449 0.00229132 0)
(7.33562 0.00251502 0)
(7.33707 0.0025154 0)
(7.3388 0.0022497 0)
(7.34076 0.00169111 0)
(7.34292 0.000825097 0)
(7.34523 -0.00035473 0)
(7.34767 -0.00185032 0)
(7.35021 -0.00366195 0)
(7.35282 -0.00579008 0)
(7.35549 -0.00823646 0)
(7.35819 -0.0110047 0)
(7.36091 -0.0141007 0)
(7.36364 -0.017532 0)
(7.36634 -0.0213085 0)
(7.36902 -0.0254411 0)
(7.37164 -0.0299418 0)
(7.37419 -0.0348229 0)
(7.37664 -0.0400967 0)
(7.37896 -0.0457741 0)
(7.38114 -0.0518646 0)
(7.38313 -0.0583748 0)
(7.3849 -0.0653083 0)
(7.38644 -0.0726639 0)
(7.38769 -0.0804343 0)
(7.38864 -0.0886037 0)
(7.38926 -0.0971416 0)
(7.38951 -0.10599 0)
(7.33301 0.000187066 0)
(7.33306 0.000523881 0)
(7.33321 0.000867619 0)
(7.33352 0.0012106 0)
(7.33405 0.00150925 0)
(7.33485 0.00170234 0)
(7.33593 0.00172782 0)
(7.33728 0.00153612 0)
(7.33888 0.00109196 0)
(7.34068 0.000372152 0)
(7.34265 -0.000636989 0)
(7.34476 -0.00194266 0)
(7.34699 -0.00354832 0)
(7.34931 -0.00545583 0)
(7.35169 -0.00766694 0)
(7.35411 -0.0101842 0)
(7.35655 -0.0130115 0)
(7.359 -0.0161542 0)
(7.36144 -0.0196192 0)
(7.36385 -0.0234147 0)
(7.36621 -0.0275496 0)
(7.3685 -0.0320334 0)
(7.3707 -0.0368758 0)
(7.37279 -0.0420858 0)
(7.37473 -0.0476712 0)
(7.37651 -0.0536384 0)
(7.3781 -0.0599911 0)
(7.37947 -0.0667303 0)
(7.38059 -0.0738531 0)
(7.38143 -0.0813512 0)
(7.38198 -0.0892084 0)
(7.3822 -0.0973952 0)
(7.38209 -0.105856 0)
(7.33301 0.000160007 0)
(7.3331 0.000446268 0)
(7.3333 0.000711039 0)
(7.33366 0.000938939 0)
(7.33421 0.00109049 0)
(7.33499 0.00111629 0)
(7.33601 0.000967707 0)
(7.33726 0.000605335 0)
(7.33871 4.89186e-07 0)
(7.34035 -0.000866222 0)
(7.34214 -0.00200688 0)
(7.34405 -0.00342847 0)
(7.34607 -0.00513501 0)
(7.34816 -0.00712912 0)
(7.3503 -0.00941321 0)
(7.35247 -0.0119902 0)
(7.35466 -0.0148639 0)
(7.35684 -0.0180391 0)
(7.35899 -0.0215218 0)
(7.3611 -0.0253185 0)
(7.36314 -0.0294366 0)
(7.36511 -0.0338833 0)
(7.36696 -0.0386657 0)
(7.36869 -0.0437902 0)
(7.37027 -0.0492621 0)
(7.37167 -0.0550851 0)
(7.37288 -0.0612609 0)
(7.37386 -0.0677886 0)
(7.37459 -0.074664 0)
(7.37505 -0.0818784 0)
(7.37522 -0.0894159 0)
(7.37508 -0.097248 0)
(7.37461 -0.105322 0)
(7.33301 0.000125325 0)
(7.33312 0.000348648 0)
(7.33333 0.000532341 0)
(7.33369 0.000652637 0)
(7.33423 0.000672305 0)
(7.33495 0.000550098 0)
(7.33589 0.000247253 0)
(7.33701 -0.000267453 0)
(7.33832 -0.00101685 0)
(7.33979 -0.0020166 0)
(7.34139 -0.00327671 0)
(7.3431 -0.00480339 0)
(7.3449 -0.00660047 0)
(7.34676 -0.00867074 0)
(7.34866 -0.0110168 0)
(7.35058 -0.0136414 0)
(7.3525 -0.0165482 0)
(7.35441 -0.0197414 0)
(7.35627 -0.0232257 0)
(7.35808 -0.0270066 0)
(7.35981 -0.0310895 0)
(7.36144 -0.0354797 0)
(7.36296 -0.0401824 0)
(7.36435 -0.0452016 0)
(7.36557 -0.0505405 0)
(7.36661 -0.0562009 0)
(7.36745 -0.0621828 0)
(7.36806 -0.0684839 0)
(7.36843 -0.0750994 0)
(7.36853 -0.0820205 0)
(7.36835 -0.0892317 0)
(7.36787 -0.0967061 0)
(7.36708 -0.104394 0)
(7.33301 8.93522e-05 0)
(7.33311 0.000247624 0)
(7.33331 0.000353884 0)
(7.33364 0.000375878 0)
(7.33411 0.000277521 0)
(7.33476 2.36334e-05 0)
(7.33558 -0.000416785 0)
(7.33657 -0.00106801 0)
(7.33772 -0.00194755 0)
(7.339 -0.00306733 0)
(7.34041 -0.00443508 0)
(7.34191 -0.0060557 0)
(7.34349 -0.00793244 0)
(7.34511 -0.0100678 0)
(7.34677 -0.0124641 0)
(7.34843 -0.015124 0)
(7.35008 -0.0180504 0)
(7.3517 -0.0212469 0)
(7.35328 -0.0247173 0)
(7.35479 -0.0284656 0)
(7.35621 -0.0324958 0)
(7.35752 -0.0368117 0)
(7.35871 -0.0414164 0)
(7.35975 -0.0463124 0)
(7.36063 -0.051501 0)
(7.36133 -0.0569824 0)
(7.36182 -0.0627555 0)
(7.36208 -0.0688171 0)
(7.36211 -0.0751621 0)
(7.36187 -0.0817816 0)
(7.36136 -0.0886611 0)
(7.36057 -0.0957752 0)
(7.35948 -0.103077 0)
(7.33301 5.71541e-05 0)
(7.33309 0.000157627 0)
(7.33325 0.000196308 0)
(7.33351 0.000132269 0)
(7.33389 -7.00331e-05 0)
(7.33442 -0.000440723 0)
(7.3351 -0.0010041 0)
(7.33593 -0.00177806 0)
(7.3369 -0.00277496 0)
(7.33799 -0.00400294 0)
(7.33919 -0.00546718 0)
(7.34047 -0.00717096 0)
(7.34181 -0.00911658 0)
(7.3432 -0.0113059 0)
(7.3446 -0.0137408 0)
(7.346 -0.0164235 0)
(7.34738 -0.0193563 0)
(7.34873 -0.0225419 0)
(7.35001 -0.0259833 0)
(7.35122 -0.0296833 0)
(7.35234 -0.0336447 0)
(7.35334 -0.0378696 0)
(7.35421 -0.0423599 0)
(7.35493 -0.0471164 0)
(7.35548 -0.0521393 0)
(7.35584 -0.0574276 0)
(7.356 -0.0629792 0)
(7.35594 -0.0687903 0)
(7.35564 -0.0748558 0)
(7.3551 -0.081167 0)
(7.35429 -0.0877103 0)
(7.3532 -0.0944621 0)
(7.35183 -0.101379 0)
(7.33301 3.33577e-05 0)
(7.33305 9.25709e-05 0)
(7.33314 8.03106e-05 0)
(7.3333 -5.36802e-05 0)
(7.33356 -0.000344602 0)
(7.33394 -0.000817711 0)
(7.33445 -0.00149083 0)
(7.33509 -0.00237547 0)
(7.33586 -0.00347865 0)
(7.33675 -0.00480448 0)
(7.33772 -0.00635527 0)
(7.33877 -0.00813241 0)
(7.33987 -0.0101369 0)
(7.34101 -0.0123698 0)
(7.34215 -0.0148323 0)
(7.34329 -0.017526 0)
(7.3444 -0.0204526 0)
(7.34547 -0.0236141 0)
(7.34647 -0.0270126 0)
(7.34739 -0.0306498 0)
(7.3482 -0.0345274 0)
(7.3489 -0.0386465 0)
(7.34946 -0.0430076 0)
(7.34987 -0.0476106 0)
(7.35011 -0.0524545 0)
(7.35017 -0.0575374 0)
(7.35002 -0.0628566 0)
(7.34965 -0.0684081 0)
(7.34906 -0.0741866 0)
(7.34823 -0.0801841 0)
(7.34714 -0.0863879 0)
(7.34579 -0.0927762 0)
(7.34417 -0.0993089 0)
(7.333 2.29227e-05 0)
(7.333 6.7714e-05 0)
(7.33299 2.8958e-05 0)
(7.33302 -0.000154327 0)
(7.33311 -0.000516697 0)
(7.3333 -0.00107793 0)
(7.33361 -0.00184885 0)
(7.33404 -0.00283401 0)
(7.33458 -0.0040345 0)
(7.33523 -0.00544991 0)
(7.33597 -0.0070793 0)
(7.33677 -0.00892178 0)
(7.33763 -0.0109768 0)
(7.33851 -0.0132444 0)
(7.3394 -0.015725 0)
(7.34027 -0.0184193 0)
(7.34112 -0.0213286 0)
(7.34191 -0.0244542 0)
(7.34263 -0.0277972 0)
(7.34327 -0.0313588 0)
(7.3438 -0.0351395 0)
(7.34421 -0.0391397 0)
(7.34449 -0.0433589 0)
(7.34461 -0.0477961 0)
(7.34456 -0.0524496 0)
(7.34432 -0.0573169 0)
(7.34389 -0.0623948 0)
(7.34325 -0.0676794 0)
(7.34239 -0.0731652 0)
(7.3413 -0.0788448 0)
(7.33996 -0.0847066 0)
(7.33837 -0.0907308 0)
(7.33653 -0.0968807 0)
(7.333 3.20687e-05 0)
(7.33293 0.000102141 0)
(7.33279 7.08951e-05 0)
(7.33263 -0.000135647 0)
(7.33251 -0.000550266 0)
(7.33247 -0.00118571 0)
(7.33253 -0.0020444 0)
(7.33271 -0.00312265 0)
(7.333 -0.00441462 0)
(7.3334 -0.0059146 0)
(7.33388 -0.0076178 0)
(7.33443 -0.00952063 0)
(7.33503 -0.0116207 0)
(7.33566 -0.0139166 0)
(7.3363 -0.016408 0)
(7.33692 -0.0190949 0)
(7.3375 -0.021978 0)
(7.33804 -0.0250577 0)
(7.3385 -0.0283349 0)
(7.33887 -0.0318099 0)
(7.33914 -0.0354827 0)
(7.33929 -0.0393528 0)
(7.33929 -0.0434193 0)
(7.33915 -0.0476805 0)
(7.33884 -0.0521342 0)
(7.33835 -0.0567775 0)
(7.33766 -0.061607 0)
(7.33677 -0.0666186 0)
(7.33567 -0.0718073 0)
(7.33435 -0.0771662 0)
(7.33279 -0.0826847 0)
(7.331 -0.088345 0)
(7.32897 -0.0941137 0)
(7.33299 6.96937e-05 0)
(7.33283 0.000222546 0)
(7.3325 0.000245156 0)
(7.3321 4.75424e-05 0)
(7.33171 -0.000398598 0)
(7.33138 -0.00109603 0)
(7.33115 -0.00203618 0)
(7.33104 -0.0032049 0)
(7.33105 -0.00458776 0)
(7.33117 -0.00617257 0)
(7.33138 -0.00794981 0)
(7.33168 -0.0099126 0)
(7.33202 -0.0120563 0)
(7.33241 -0.0143781 0)
(7.3328 -0.0168765 0)
(7.33318 -0.019551 0)
(7.33353 -0.0224015 0)
(7.33382 -0.0254282 0)
(7.33405 -0.0286314 0)
(7.33418 -0.0320111 0)
(7.33421 -0.0355669 0)
(7.33412 -0.0392979 0)
(7.3339 -0.0432028 0)
(7.33352 -0.0472795 0)
(7.33298 -0.0515256 0)
(7.33226 -0.0559381 0)
(7.33136 -0.0605135 0)
(7.33026 -0.0652477 0)
(7.32895 -0.0701361 0)
(7.32743 -0.0751722 0)
(7.3257 -0.0803467 0)
(7.32373 -0.0856438 0)
(7.32154 -0.0910336 0)
(7.33298 0.000149906 0)
(7.33269 0.000469595 0)
(7.3321 0.000608781 0)
(7.33136 0.000458697 0)
(7.3306 1.36217e-06 0)
(7.32991 -0.000750748 0)
(7.32933 -0.00177362 0)
(7.32888 -0.00303891 0)
(7.32858 -0.00452089 0)
(7.32841 -0.00619913 0)
(7.32836 -0.0080583 0)
(7.3284 -0.0100875 0)
(7.32851 -0.0122794 0)
(7.32866 -0.0146296 0)
(7.32883 -0.0171355 0)
(7.329 -0.0197961 0)
(7.32914 -0.022611 0)
(7.32923 -0.0255801 0)
(7.32926 -0.0287037 0)
(7.32919 -0.0319815 0)
(7.32902 -0.0354131 0)
(7.32873 -0.0389976 0)
(7.32831 -0.0427335 0)
(7.32774 -0.0466187 0)
(7.32701 -0.0506508 0)
(7.32611 -0.0548268 0)
(7.32502 -0.0591432 0)
(7.32375 -0.0635964 0)
(7.32228 -0.0681818 0)
(7.3206 -0.0728938 0)
(7.31872 -0.0777242 0)
(7.31662 -0.0826591 0)
(7.3143 -0.087672 0)
(7.33297 0.000296879 0)
(7.33246 0.000909133 0)
(7.33148 0.00124915 0)
(7.33027 0.00119007 0)
(7.32904 0.000736399 0)
(7.32789 -7.49548e-05 0)
(7.32689 -0.00119669 0)
(7.32607 -0.0025799 0)
(7.32543 -0.0041836 0)
(7.32497 -0.00597669 0)
(7.32466 -0.00793656 0)
(7.32447 -0.0100476 0)
(7.32437 -0.0122996 0)
(7.32434 -0.0146866 0)
(7.32433 -0.0172054 0)
(7.32433 -0.0198545 0)
(7.32431 -0.0226336 0)
(7.32424 -0.0255431 0)
(7.32411 -0.0285831 0)
(7.32389 -0.031754 0)
(7.32357 -0.0350556 0)
(7.32313 -0.0384871 0)
(7.32256 -0.0420474 0)
(7.32184 -0.0457348 0)
(7.32097 -0.0495469 0)
(7.31992 -0.0534811 0)
(7.3187 -0.0575342 0)
(7.3173 -0.0617028 0)
(7.31571 -0.0659828 0)
(7.31391 -0.0703694 0)
(7.31192 -0.0748553 0)
(7.30972 -0.0794288 0)
(7.30731 -0.0840667 0)
(7.33294 0.000554887 0)
(7.33209 0.00165225 0)
(7.33051 0.00230334 0)
(7.32864 0.00237709 0)
(7.32676 0.00192489 0)
(7.32504 0.00102436 0)
(7.32355 -0.000239791 0)
(7.32232 -0.00178782 0)
(7.32136 -0.00355768 0)
(7.32063 -0.00550486 0)
(7.3201 -0.00759826 0)
(7.31973 -0.00981728 0)
(7.31949 -0.0121493 0)
(7.31932 -0.0145875 0)
(7.3192 -0.0171284 0)
(7.3191 -0.0197713 0)
(7.31898 -0.0225165 0)
(7.31882 -0.0253653 0)
(7.31859 -0.0283188 0)
(7.31828 -0.0313781 0)
(7.31787 -0.0345437 0)
(7.31734 -0.0378159 0)
(7.31667 -0.0411939 0)
(7.31586 -0.0446766 0)
(7.31489 -0.0482623 0)
(7.31376 -0.0519489 0)
(7.31245 -0.0557335 0)
(7.31096 -0.0596134 0)
(7.30929 -0.0635849 0)
(7.30742 -0.0676439 0)
(7.30536 -0.0717844 0)
(7.3031 -0.0759965 0)
(7.30064 -0.0802604 0)
(7.33289 0.00101211 0)
(7.33143 0.00289422 0)
(7.32892 0.00398793 0)
(7.32608 0.00421399 0)
(7.32337 0.00371936 0)
(7.32095 0.00265056 0)
(7.31893 0.00115395 0)
(7.31731 -0.000644108 0)
(7.31606 -0.00265413 0)
(7.31514 -0.00481634 0)
(7.31447 -0.00709132 0)
(7.31402 -0.00945471 0)
(7.31371 -0.0118932 0)
(7.31351 -0.0144005 0)
(7.31337 -0.016975 0)
(7.31325 -0.0196175 0)
(7.31312 -0.0223306 0)
(7.31294 -0.025117 0)
(7.3127 -0.0279797 0)
(7.31237 -0.0309212 0)
(7.31193 -0.0339436 0)
(7.31137 -0.0370482 0)
(7.31068 -0.0402353 0)
(7.30983 -0.0435049 0)
(7.30883 -0.046856 0)
(7.30766 -0.0502873 0)
(7.30632 -0.0537967 0)
(7.30479 -0.057382 0)
(7.30309 -0.0610402 0)
(7.30119 -0.064768 0)
(7.2991 -0.0685605 0)
(7.29682 -0.0724097 0)
(7.29435 -0.0762993 0)
(7.33277 0.00185591 0)
(7.33021 0.00499678 0)
(7.3262 0.00665392 0)
(7.32201 0.00697148 0)
(7.31822 0.00629387 0)
(7.31503 0.00488649 0)
(7.3125 0.00299557 0)
(7.31057 0.000812153 0)
(7.30917 -0.00154453 0)
(7.30819 -0.00400249 0)
(7.30753 -0.00651799 0)
(7.30713 -0.0090672 0)
(7.30691 -0.0116399 0)
(7.3068 -0.0142338 0)
(7.30675 -0.0168512 0)
(7.30673 -0.0194969 0)
(7.30668 -0.0221764 0)
(7.3066 -0.0248957 0)
(7.30643 -0.0276603 0)
(7.30617 -0.0304751 0)
(7.30579 -0.0333439 0)
(7.30529 -0.0362698 0)
(7.30463 -0.0392548 0)
(7.30382 -0.0422999 0)
(7.30285 -0.0454055 0)
(7.30171 -0.0485712 0)
(7.30039 -0.0517958 0)
(7.29888 -0.0550779 0)
(7.29719 -0.0584154 0)
(7.29531 -0.0618056 0)
(7.29324 -0.0652449 0)
(7.29099 -0.0687273 0)
(7.28854 -0.0722393 0)
(7.33248 0.00344741 0)
(7.32783 0.00860638 0)
(7.32141 0.0108793 0)
(7.31538 0.0110469 0)
(7.31038 0.00984882 0)
(7.30646 0.00776906 0)
(7.30358 0.00521473 0)
(7.30157 0.00245059 0)
(7.30024 -0.000389144 0)
(7.29943 -0.00323508 0)
(7.299 -0.00605031 0)
(7.29885 -0.00882056 0)
(7.29889 -0.0115458 0)
(7.29905 -0.0142327 0)
(7.29926 -0.0168913 0)
(7.29948 -0.0195323 0)
(7.29967 -0.0221667 0)
(7.29979 -0.0248047 0)
(7.29982 -0.0274554 0)
(7.29974 -0.0301266 0)
(7.29952 -0.0328247 0)
(7.29916 -0.035555 0)
(7.29865 -0.0383211 0)
(7.29796 -0.041126 0)
(7.2971 -0.0439712 0)
(7.29605 -0.0468575 0)
(7.29482 -0.0497849 0)
(7.2934 -0.0527529 0)
(7.29179 -0.0557601 0)
(7.28999 -0.0588048 0)
(7.28799 -0.0618846 0)
(7.28581 -0.0649952 0)
(7.28343 -0.0681266 0)
(7.33192 0.00639921 0)
(7.32317 0.0145557 0)
(7.31291 0.0172258 0)
(7.30456 0.0167623 0)
(7.29837 0.0144839 0)
(7.29403 0.0112138 0)
(7.29121 0.00761181 0)
(7.28953 0.00400577 0)
(7.28867 0.000503459 0)
(7.28838 -0.00285425 0)
(7.2885 -0.00605187 0)
(7.2889 -0.00909543 0)
(7.28948 -0.0120032 0)
(7.29014 -0.0147968 0)
(7.29084 -0.0174973 0)
(7.29151 -0.0201248 0)
(7.29212 -0.0226976 0)
(7.29263 -0.0252321 0)
(7.29302 -0.0277425 0)
(7.29328 -0.0302407 0)
(7.29337 -0.0327367 0)
(7.29329 -0.0352386 0)
(7.29303 -0.0377528 0)
(7.29259 -0.0402842 0)
(7.29194 -0.0428363 0)
(7.2911 -0.0454115 0)
(7.29006 -0.0480113 0)
(7.28882 -0.0506363 0)
(7.28737 -0.0532862 0)
(7.28573 -0.0559603 0)
(7.28388 -0.0586571 0)
(7.28184 -0.0613745 0)
(7.27959 -0.0641053 0)
(7.33068 0.0132498 0)
(7.31355 0.024625 0)
(7.29764 0.0256999 0)
(7.28689 0.0235151 0)
(7.27994 0.0196734 0)
(7.27582 0.0150139 0)
(7.27381 0.0103615 0)
(7.27318 0.0060055 0)
(7.27341 0.00194582 0)
(7.27422 -0.00184225 0)
(7.27543 -0.00537054 0)
(7.27688 -0.00866365 0)
(7.27844 -0.0117545 0)
(7.28004 -0.0146744 0)
(7.28161 -0.0174507 0)
(7.2831 -0.0201082 0)
(7.28447 -0.0226692 0)
(7.28569 -0.0251535 0)
(7.28674 -0.027578 0)
(7.2876 -0.0299572 0)
(7.28826 -0.0323034 0)
(7.2887 -0.0346269 0)
(7.28893 -0.036936 0)
(7.28893 -0.0392375 0)
(7.2887 -0.0415366 0)
(7.28825 -0.0438374 0)
(7.28757 -0.0461428 0)
(7.28666 -0.048455 0)
(7.28553 -0.0507752 0)
(7.28419 -0.0531037 0)
(7.28262 -0.0554405 0)
(7.28085 -0.057785 0)
(7.27886 -0.0601335 0)
(7.32455 0.0345817 0)
(7.28947 0.0462685 0)
(7.26734 0.0363025 0)
(7.25705 0.0251043 0)
(7.25166 0.0151752 0)
(7.24949 0.00677355 0)
(7.24981 6.47465e-05 0)
(7.25151 -0.00528285 0)
(7.25396 -0.00965522 0)
(7.25688 -0.0132985 0)
(7.26012 -0.0163882 0)
(7.26349 -0.0190657 0)
(7.26688 -0.0214415 0)
(7.2702 -0.0235953 0)
(7.27339 -0.0255853 0)
(7.2764 -0.027456 0)
(7.27919 -0.0292423 0)
(7.28173 -0.0309711 0)
(7.28402 -0.0326631 0)
(7.28604 -0.0343342 0)
(7.28777 -0.0359965 0)
(7.28922 -0.0376591 0)
(7.29039 -0.039329 0)
(7.29127 -0.0410112 0)
(7.29187 -0.0427089 0)
(7.29218 -0.0444242 0)
(7.29223 -0.0461579 0)
(7.292 -0.0479106 0)
(7.29151 -0.0496821 0)
(7.29077 -0.0514717 0)
(7.28977 -0.0532784 0)
(7.28854 -0.0551008 0)
(7.28707 -0.0569372 0)
(7.29575 0.0823103 0)
(7.21813 0.126905 0)
(7.18653 0.128247 0)
(7.18591 0.113547 0)
(7.19245 0.0936821 0)
(7.20107 0.0753738 0)
(7.21096 0.05984 0)
(7.22109 0.0462699 0)
(7.23104 0.0342354 0)
(7.24073 0.0236624 0)
(7.25006 0.0144737 0)
(7.25891 0.00651226 0)
(7.26721 -0.000391932 0)
(7.27494 -0.00638939 0)
(7.28209 -0.0116134 0)
(7.28868 -0.0161839 0)
(7.2947 -0.0202066 0)
(7.30018 -0.0237722 0)
(7.30514 -0.0269575 0)
(7.30958 -0.0298276 0)
(7.31354 -0.0324367 0)
(7.31702 -0.0348302 0)
(7.32006 -0.037046 0)
(7.32266 -0.0391161 0)
(7.32485 -0.0410673 0)
(7.32664 -0.0429212 0)
(7.32805 -0.0446954 0)
(7.3291 -0.046404 0)
(7.3298 -0.048059 0)
(7.33017 -0.0496706 0)
(7.33022 -0.0512473 0)
(7.32997 -0.0527954 0)
(7.32943 -0.0543211 0)
(7.32909 -0.159029 0)
(7.19604 -0.293096 0)
(7.1306 -0.29267 0)
(7.10849 -0.26022 0)
(7.10885 -0.227512 0)
(7.12938 -0.196889 0)
(7.15993 -0.169266 0)
(7.19307 -0.145821 0)
(7.22594 -0.126659 0)
(7.25734 -0.111115 0)
(7.28647 -0.0985021 0)
(7.31293 -0.0882975 0)
(7.33666 -0.08008 0)
(7.35781 -0.0734843 0)
(7.37653 -0.0682038 0)
(7.39303 -0.0639914 0)
(7.40751 -0.06065 0)
(7.42014 -0.0580204 0)
(7.43111 -0.0559747 0)
(7.44057 -0.0544097 0)
(7.44869 -0.0532422 0)
(7.45557 -0.0524044 0)
(7.46135 -0.0518407 0)
(7.46612 -0.0515063 0)
(7.46997 -0.0513653 0)
(7.47299 -0.0513879 0)
(7.47525 -0.051549 0)
(7.47682 -0.0518269 0)
(7.47776 -0.0522032 0)
(7.47811 -0.052663 0)
(7.47792 -0.0531942 0)
(7.47723 -0.0537871 0)
(7.4761 -0.0544296 0)
(7.33045 1.21805 0)