/*--------------------------------*- C++ -*----------------------------------*\
  =========                 |
  \\      /  F ield         | OpenFOAM: The Open Source CFD Toolbox
   \\    /   O peration     | Website:  https://openfoam.org
    \\  /    A nd           | Version:  10
     \\/     M anipulation  |
\*---------------------------------------------------------------------------*/
FoamFile
{
    format      ascii;
    class       volScalarField;
    location    "0.135";
    object      nut;
}
// * * * * * * * * * * * * * * * * * * * * * * * * * * * * * * * * * * * * * //

dimensions      [0 2 -1 0 0 0 0];

internalField   nonuniform List<scalar> 
6820
(
0.000503208
0.000397097
0.00032458
0.000269495
0.000236691
0.000214372
0.000197826
0.000185182
0.000174981
0.000166429
0.000159076
0.000152633
0.000146903
0.000141751
0.000137076
0.000132805
0.000128881
0.00012526
0.000121909
0.000118797
0.00011591
0.000113227
0.000110738
0.000108431
0.000106293
0.000104321
0.00010251
0.000100864
9.9362e-05
9.80679e-05
9.68333e-05
9.59696e-05
9.42012e-05
8.18433e-05
0.000143704
0.000196386
0.00021081
0.000206406
0.000197575
0.000187348
0.000177482
0.000168562
0.000160573
0.000153413
0.000146963
0.000141117
0.000135783
0.000130891
0.00012638
0.000122202
0.000118315
0.000114686
0.000111285
0.000108084
0.000105067
0.000102209
9.95054e-05
9.69432e-05
9.45081e-05
9.21937e-05
8.99878e-05
8.78968e-05
8.58806e-05
8.40401e-05
8.21422e-05
8.10524e-05
3.85921e-05
2.74048e-05
4.30046e-05
7.43779e-05
9.57512e-05
0.000109088
0.000116321
0.000119614
0.000120542
0.000120007
0.000118566
0.00011657
0.000114236
0.000111708
0.00010908
0.000106411
0.000103742
0.000101098
9.8496e-05
9.59486e-05
9.34602e-05
9.10353e-05
8.86745e-05
8.63692e-05
8.41253e-05
8.19374e-05
7.98023e-05
7.77195e-05
7.56846e-05
7.36927e-05
7.17451e-05
6.98046e-05
6.79556e-05
1.99671e-05
2.3539e-05
2.20943e-05
1.28417e-05
2.93776e-06
1.22852e-05
2.27486e-05
3.13482e-05
3.82669e-05
4.37574e-05
4.80606e-05
5.13895e-05
5.39177e-05
5.5782e-05
5.71002e-05
5.79693e-05
5.84682e-05
5.86613e-05
5.86017e-05
5.83324e-05
5.7889e-05
5.72992e-05
5.65889e-05
5.57738e-05
5.48698e-05
5.38869e-05
5.28249e-05
5.16919e-05
5.04965e-05
4.92425e-05
4.79339e-05
4.65799e-05
4.51938e-05
1.3242e-05
1.50975e-05
1.99456e-05
2.20374e-05
2.1489e-05
1.9558e-05
1.69536e-05
1.40423e-05
1.10393e-05
8.07242e-06
5.22517e-06
2.57114e-06
6.4548e-07
2.38327e-06
4.39852e-06
6.21986e-06
7.83384e-06
9.24602e-06
1.04663e-05
1.15063e-05
1.23775e-05
1.30913e-05
1.36582e-05
1.40891e-05
1.43917e-05
1.45796e-05
1.4664e-05
1.46456e-05
1.453e-05
1.43226e-05
1.40241e-05
1.36484e-05
1.31715e-05
1.01864e-05
1.10395e-05
1.18718e-05
1.26686e-05
1.32961e-05
1.38304e-05
1.42188e-05
1.44281e-05
1.44713e-05
1.43708e-05
1.41487e-05
1.38283e-05
1.34319e-05
1.29744e-05
1.24745e-05
1.19484e-05
1.14101e-05
1.08712e-05
1.03416e-05
9.82922e-06
9.34053e-06
8.88078e-06
8.45366e-06
8.06216e-06
7.70707e-06
7.3874e-06
7.10196e-06
6.85147e-06
6.63475e-06
6.45585e-06
6.31034e-06
6.21077e-06
6.14748e-06
7.52831e-06
8.27127e-06
8.70883e-06
8.94796e-06
8.84553e-06
8.64092e-06
8.47833e-06
8.38933e-06
8.36757e-06
8.38862e-06
8.42562e-06
8.46007e-06
8.4822e-06
8.49024e-06
8.48155e-06
8.45503e-06
8.41109e-06
8.35094e-06
8.27616e-06
8.18852e-06
8.08994e-06
7.98216e-06
7.86696e-06
7.74583e-06
7.62066e-06
7.49524e-06
7.37445e-06
7.25907e-06
7.14971e-06
7.05011e-06
6.96024e-06
6.89194e-06
6.84974e-06
5.74287e-06
6.63237e-06
7.04564e-06
7.16397e-06
6.91578e-06
6.55765e-06
6.23163e-06
5.9626e-06
5.74904e-06
5.58161e-06
5.44814e-06
5.33903e-06
5.24721e-06
5.16741e-06
5.09618e-06
5.03124e-06
4.97081e-06
4.91343e-06
4.85805e-06
4.80394e-06
4.75066e-06
4.6981e-06
4.64622e-06
4.59525e-06
4.54679e-06
4.50152e-06
4.45904e-06
4.421e-06
4.38888e-06
4.36559e-06
4.3528e-06
4.35799e-06
4.38809e-06
4.46573e-06
5.26842e-06
5.58514e-06
5.74732e-06
5.67055e-06
5.46693e-06
5.22831e-06
4.98966e-06
4.77056e-06
4.57901e-06
4.4134e-06
4.26946e-06
4.14326e-06
4.03163e-06
3.93208e-06
3.84264e-06
3.7618e-06
3.68848e-06
3.62189e-06
3.56147e-06
3.50685e-06
3.45781e-06
3.41405e-06
3.37585e-06
3.34297e-06
3.31534e-06
3.29358e-06
3.27859e-06
3.27106e-06
3.27272e-06
3.28544e-06
3.31294e-06
3.36297e-06
3.53353e-06
4.25679e-06
4.56078e-06
4.73518e-06
4.70787e-06
4.55229e-06
4.35756e-06
4.1633e-06
3.98647e-06
3.8319e-06
3.69719e-06
3.57862e-06
3.47328e-06
3.37891e-06
3.2938e-06
3.21677e-06
3.147e-06
3.08389e-06
3.02698e-06
2.97592e-06
2.93046e-06
2.89044e-06
2.85572e-06
2.82634e-06
2.80224e-06
2.78364e-06
2.77056e-06
2.76327e-06
2.76242e-06
2.76919e-06
2.78518e-06
2.81129e-06
2.85443e-06
2.84003e-06
3.47697e-06
3.7641e-06
3.92846e-06
3.93851e-06
3.84129e-06
3.70224e-06
3.55245e-06
3.40689e-06
3.27301e-06
3.15257e-06
3.04497e-06
2.94911e-06
2.86369e-06
2.7875e-06
2.71949e-06
2.6588e-06
2.60472e-06
2.55668e-06
2.51425e-06
2.47708e-06
2.44498e-06
2.41773e-06
2.3953e-06
2.37759e-06
2.36459e-06
2.35634e-06
2.35311e-06
2.35536e-06
2.36352e-06
2.37855e-06
2.39947e-06
2.43225e-06
2.31051e-06
2.86666e-06
3.15257e-06
3.3232e-06
3.36693e-06
3.30967e-06
3.20205e-06
3.07555e-06
2.94783e-06
2.82836e-06
2.72031e-06
2.62377e-06
2.53797e-06
2.46181e-06
2.39421e-06
2.33422e-06
2.28107e-06
2.23413e-06
2.19291e-06
2.15698e-06
2.12602e-06
2.09977e-06
2.07798e-06
2.06051e-06
2.04722e-06
2.038e-06
2.03277e-06
2.0315e-06
2.03421e-06
2.04078e-06
2.05163e-06
2.06479e-06
2.08533e-06
1.89637e-06
2.38386e-06
2.67153e-06
2.84667e-06
2.91162e-06
2.88543e-06
2.80863e-06
2.7097e-06
2.60478e-06
2.5028e-06
2.40765e-06
2.32063e-06
2.242e-06
2.17151e-06
2.10865e-06
2.05286e-06
2.00359e-06
1.96033e-06
1.9226e-06
1.88998e-06
1.86209e-06
1.8386e-06
1.81921e-06
1.80367e-06
1.79174e-06
1.78317e-06
1.77772e-06
1.77516e-06
1.7753e-06
1.77767e-06
1.78233e-06
1.78682e-06
1.79548e-06
1.56483e-06
1.99666e-06
2.28718e-06
2.47044e-06
2.55509e-06
2.55617e-06
2.50502e-06
2.42695e-06
2.33787e-06
2.2475e-06
2.16103e-06
2.08083e-06
2.00784e-06
1.94221e-06
1.88366e-06
1.83175e-06
1.78598e-06
1.74585e-06
1.71091e-06
1.68073e-06
1.65492e-06
1.63311e-06
1.61497e-06
1.60016e-06
1.58837e-06
1.57925e-06
1.57247e-06
1.56763e-06
1.56435e-06
1.56188e-06
1.56003e-06
1.55619e-06
1.55405e-06
1.29348e-06
1.6828e-06
1.97648e-06
2.1689e-06
2.26922e-06
2.29137e-06
2.26102e-06
2.20121e-06
2.12744e-06
2.04935e-06
1.97245e-06
1.89958e-06
1.83212e-06
1.77062e-06
1.71513e-06
1.66547e-06
1.62135e-06
1.58239e-06
1.54822e-06
1.51845e-06
1.49269e-06
1.47058e-06
1.45173e-06
1.43578e-06
1.42234e-06
1.41101e-06
1.40134e-06
1.39283e-06
1.38497e-06
1.37693e-06
1.36837e-06
1.3568e-06
1.34535e-06
1.06675e-06
1.42582e-06
1.72283e-06
1.92486e-06
2.03917e-06
2.07958e-06
2.06761e-06
2.02382e-06
1.9629e-06
1.89449e-06
1.82453e-06
1.75654e-06
1.69245e-06
1.63326e-06
1.57934e-06
1.5307e-06
1.48716e-06
1.44844e-06
1.4142e-06
1.38405e-06
1.35762e-06
1.33451e-06
1.31432e-06
1.29665e-06
1.28106e-06
1.2671e-06
1.25428e-06
1.24203e-06
1.22979e-06
1.21668e-06
1.20231e-06
1.18439e-06
1.16557e-06
8.73584e-07
1.21382e-06
1.51474e-06
1.72628e-06
1.85294e-06
1.90855e-06
1.91189e-06
1.88153e-06
1.8316e-06
1.77171e-06
1.70813e-06
1.64472e-06
1.58377e-06
1.52656e-06
1.47367e-06
1.42532e-06
1.38147e-06
1.34193e-06
1.30645e-06
1.27471e-06
1.24636e-06
1.22103e-06
1.19833e-06
1.17785e-06
1.15915e-06
1.14176e-06
1.12518e-06
1.10881e-06
1.09209e-06
1.07417e-06
1.05463e-06
1.03151e-06
1.007e-06
7.06171e-07
1.03831e-06
1.34407e-06
1.56455e-06
1.70225e-06
1.77096e-06
1.78761e-06
1.76909e-06
1.72881e-06
1.67624e-06
1.61781e-06
1.55773e-06
1.49863e-06
1.44211e-06
1.38904e-06
1.33983e-06
1.29462e-06
1.25333e-06
1.21578e-06
1.18171e-06
1.15081e-06
1.12273e-06
1.09709e-06
1.0735e-06
1.0515e-06
1.03064e-06
1.01041e-06
9.90248e-07
9.69594e-07
9.47678e-07
9.24111e-07
8.97176e-07
8.68753e-07
5.59196e-07
8.93674e-07
1.20524e-06
1.43382e-06
1.58128e-06
1.66118e-06
1.68913e-06
1.68061e-06
1.64835e-06
1.60174e-06
1.54734e-06
1.48964e-06
1.43157e-06
1.37498e-06
1.32097e-06
1.27014e-06
1.22275e-06
1.17886e-06
1.13837e-06
1.10111e-06
1.06681e-06
1.03519e-06
1.00591e-06
9.78596e-07
9.5285e-07
9.28234e-07
9.04281e-07
8.8047e-07
8.56288e-07
8.31053e-07
8.04415e-07
7.74942e-07
7.44186e-07
4.2986e-07
7.76821e-07
1.09463e-06
1.33016e-06
1.48608e-06
1.57557e-06
1.61325e-06
1.61341e-06
1.58818e-06
1.54676e-06
1.49579e-06
1.43995e-06
1.38241e-06
1.32525e-06
1.26978e-06
1.21679e-06
1.1667e-06
1.11967e-06
1.07574e-06
1.03479e-06
9.96649e-07
9.61087e-07
9.27824e-07
8.96543e-07
8.66893e-07
8.38488e-07
8.10913e-07
7.83711e-07
7.56429e-07
7.28483e-07
6.99577e-07
6.68496e-07
6.36623e-07
3.19279e-07
6.87117e-07
1.01022e-06
1.25111e-06
1.41398e-06
1.51144e-06
1.55715e-06
1.56439e-06
1.54466e-06
1.50696e-06
1.45801e-06
1.40264e-06
1.34429e-06
1.28527e-06
1.2271e-06
1.17076e-06
1.11684e-06
1.06563e-06
1.01728e-06
9.71768e-07
9.29013e-07
8.88857e-07
8.51093e-07
8.15473e-07
7.81713e-07
7.49493e-07
7.18467e-07
6.88249e-07
6.58458e-07
6.28607e-07
5.98447e-07
5.66996e-07
5.35383e-07
2.37121e-07
6.26062e-07
9.51293e-07
1.1955e-06
1.36386e-06
1.46802e-06
1.5207e-06
1.53427e-06
1.51963e-06
1.48558e-06
1.43881e-06
1.38429e-06
1.32557e-06
1.26513e-06
1.20468e-06
1.14533e-06
1.08779e-06
1.03252e-06
9.7973e-07
9.29539e-07
8.8195e-07
8.369e-07
7.94277e-07
7.53923e-07
7.15648e-07
6.79224e-07
6.44399e-07
6.10882e-07
5.78382e-07
5.46516e-07
5.15104e-07
4.83315e-07
4.52241e-07
2.08331e-07
5.96383e-07
9.17889e-07
1.16268e-06
1.33453e-06
1.44347e-06
1.50108e-06
1.51881e-06
1.50702e-06
1.47431e-06
1.4274e-06
1.3714e-06
1.31006e-06
1.24609e-06
1.1814e-06
1.11729e-06
1.05462e-06
9.93968e-07
9.3567e-07
8.79928e-07
8.26833e-07
7.76407e-07
7.28617e-07
6.8339e-07
6.40619e-07
6.00169e-07
5.61877e-07
5.25546e-07
4.90975e-07
4.57885e-07
4.2614e-07
3.95115e-07
3.65656e-07
2.50259e-07
6.00611e-07
9.11028e-07
1.15376e-06
1.32788e-06
1.44117e-06
1.5039e-06
1.52663e-06
1.5191e-06
1.48954e-06
1.44454e-06
1.3892e-06
1.32735e-06
1.26181e-06
1.19459e-06
1.12714e-06
1.06045e-06
9.95229e-07
9.31932e-07
8.70872e-07
8.12249e-07
7.56184e-07
7.02747e-07
6.51967e-07
6.03841e-07
5.58344e-07
5.15427e-07
4.75014e-07
4.3702e-07
4.01297e-07
3.67805e-07
3.36071e-07
3.06965e-07
3.41532e-07
6.38876e-07
9.31057e-07
1.1681e-06
1.34139e-06
1.45558e-06
1.5194e-06
1.54256e-06
1.53438e-06
1.50302e-06
1.45517e-06
1.3961e-06
1.32984e-06
1.25938e-06
1.18691e-06
1.114e-06
1.04174e-06
9.70906e-07
9.02023e-07
8.35447e-07
7.71423e-07
7.10116e-07
6.51641e-07
5.96077e-07
5.43483e-07
4.939e-07
4.47357e-07
4.03867e-07
3.63437e-07
3.26039e-07
2.91689e-07
2.60167e-07
2.32016e-07
4.60043e-07
7.09777e-07
9.80296e-07
1.21087e-06
1.38466e-06
1.50286e-06
1.57232e-06
1.6015e-06
1.59883e-06
1.57188e-06
1.52703e-06
1.46943e-06
1.40316e-06
1.33136e-06
1.2564e-06
1.18003e-06
1.10358e-06
1.02797e-06
9.53917e-07
8.81905e-07
8.12296e-07
7.45357e-07
6.81281e-07
6.20221e-07
5.62297e-07
5.07608e-07
4.56244e-07
4.08282e-07
3.63795e-07
3.22841e-07
2.85508e-07
2.51751e-07
2.21952e-07
5.98518e-07
8.10998e-07
1.0574e-06
1.27639e-06
1.4434e-06
1.55608e-06
1.62e-06
1.64334e-06
1.63462e-06
1.60162e-06
1.55089e-06
1.48772e-06
1.41623e-06
1.33956e-06
1.26006e-06
1.17945e-06
1.09899e-06
1.01963e-06
9.42017e-07
8.66656e-07
7.93912e-07
7.24062e-07
6.57323e-07
5.9387e-07
5.33851e-07
4.77397e-07
4.24625e-07
3.75642e-07
3.30551e-07
2.89444e-07
2.52392e-07
2.19503e-07
1.90597e-07
7.57125e-07
9.43281e-07
1.17065e-06
1.38556e-06
1.55794e-06
1.68101e-06
1.75715e-06
1.79223e-06
1.79329e-06
1.76732e-06
1.72069e-06
1.65888e-06
1.58642e-06
1.50692e-06
1.4232e-06
1.33745e-06
1.25129e-06
1.16596e-06
1.08234e-06
1.00112e-06
9.22772e-07
8.47672e-07
7.76094e-07
7.0825e-07
6.44312e-07
5.84415e-07
5.28673e-07
4.7717e-07
4.29968e-07
3.87079e-07
3.48481e-07
3.14094e-07
2.83415e-07
9.39989e-07
1.10686e-06
1.31018e-06
1.50429e-06
1.65633e-06
1.75913e-06
1.81645e-06
1.83564e-06
1.82447e-06
1.78988e-06
1.73775e-06
1.67289e-06
1.59912e-06
1.51945e-06
1.43623e-06
1.35131e-06
1.26611e-06
1.18176e-06
1.09913e-06
1.01892e-06
9.41641e-07
8.67732e-07
7.97519e-07
7.31265e-07
6.69169e-07
6.11382e-07
5.58007e-07
5.09096e-07
4.64653e-07
4.24611e-07
3.88849e-07
3.57254e-07
3.28914e-07
1.1536e-06
1.31194e-06
1.51292e-06
1.72501e-06
1.90814e-06
2.04455e-06
2.13071e-06
2.17058e-06
2.17119e-06
2.14042e-06
2.08584e-06
2.01407e-06
1.93056e-06
1.83962e-06
1.74457e-06
1.64789e-06
1.55143e-06
1.45653e-06
1.36416e-06
1.27501e-06
1.18958e-06
1.10823e-06
1.03119e-06
9.58625e-07
8.90635e-07
8.27254e-07
7.6847e-07
7.14207e-07
6.64347e-07
6.18667e-07
5.76948e-07
5.38786e-07
5.03448e-07
1.4092e-06
1.5567e-06
1.71676e-06
1.87118e-06
1.99311e-06
2.07718e-06
2.1269e-06
2.14728e-06
2.14258e-06
2.11652e-06
2.07269e-06
2.0145e-06
1.94518e-06
1.86765e-06
1.78454e-06
1.69812e-06
1.61028e-06
1.52259e-06
1.4363e-06
1.35238e-06
1.27156e-06
1.19437e-06
1.12119e-06
1.05224e-06
9.87649e-07
9.27433e-07
8.71547e-07
8.19873e-07
7.72259e-07
7.28493e-07
6.88374e-07
6.51733e-07
6.1744e-07
1.71919e-06
1.88582e-06
2.10572e-06
2.36477e-06
2.59235e-06
2.75114e-06
2.83821e-06
2.86477e-06
2.84439e-06
2.78981e-06
2.71174e-06
2.61842e-06
2.51585e-06
2.40828e-06
2.29866e-06
2.18905e-06
2.08085e-06
1.97506e-06
1.8724e-06
1.77336e-06
1.67832e-06
1.58751e-06
1.50109e-06
1.41912e-06
1.34161e-06
1.26851e-06
1.19971e-06
1.13504e-06
1.07435e-06
1.01737e-06
9.63922e-07
9.1357e-07
8.65828e-07
2.11378e-06
2.23923e-06
2.29967e-06
2.36385e-06
2.4426e-06
2.52884e-06
2.61055e-06
2.67562e-06
2.71519e-06
2.72554e-06
2.70741e-06
2.66428e-06
2.60081e-06
2.52187e-06
2.43199e-06
2.33506e-06
2.23427e-06
2.13211e-06
2.03047e-06
1.93074e-06
1.83389e-06
1.74058e-06
1.65121e-06
1.566e-06
1.48499e-06
1.40816e-06
1.3354e-06
1.26655e-06
1.20147e-06
1.14004e-06
1.08218e-06
1.02803e-06
9.76288e-07
2.61293e-06
2.90488e-06
3.30307e-06
3.70714e-06
3.97332e-06
4.08803e-06
4.0971e-06
4.04074e-06
3.94493e-06
3.8265e-06
3.69538e-06
3.55688e-06
3.41403e-06
3.26883e-06
3.12287e-06
2.97759e-06
2.83436e-06
2.69441e-06
2.55886e-06
2.4286e-06
2.30429e-06
2.18641e-06
2.07519e-06
1.97071e-06
1.87287e-06
1.78147e-06
1.69618e-06
1.61662e-06
1.54244e-06
1.47322e-06
1.40877e-06
1.34886e-06
1.29304e-06
3.3137e-06
3.21389e-06
2.92777e-06
2.86912e-06
3.04132e-06
3.30096e-06
3.54162e-06
3.71442e-06
3.80833e-06
3.83454e-06
3.81274e-06
3.76237e-06
3.69909e-06
3.63397e-06
3.5738e-06
3.52198e-06
3.47951e-06
3.44594e-06
3.42008e-06
3.40044e-06
3.38552e-06
3.37398e-06
3.36465e-06
3.35654e-06
3.34887e-06
3.34094e-06
3.33222e-06
3.32221e-06
3.31064e-06
3.29736e-06
3.2825e-06
3.26745e-06
3.2504e-06
4.34464e-06
5.54679e-06
6.28275e-06
6.51447e-06
6.39893e-06
6.16899e-06
6.01742e-06
6.0295e-06
6.21216e-06
6.52546e-06
6.9142e-06
7.3296e-06
7.73619e-06
8.11112e-06
8.44158e-06
8.72195e-06
8.95127e-06
9.13145e-06
9.26597e-06
9.35914e-06
9.41549e-06
9.43947e-06
9.43525e-06
9.40656e-06
9.35673e-06
9.28852e-06
9.20429e-06
9.10574e-06
8.99454e-06
8.87125e-06
8.73795e-06
8.59512e-06
8.44665e-06
5.66728e-06
3.59451e-06
2.73697e-06
4.57806e-06
7.29901e-06
9.8749e-06
1.20651e-05
1.38031e-05
1.51e-05
1.59966e-05
1.65396e-05
1.67772e-05
1.67576e-05
1.65265e-05
1.61255e-05
1.55917e-05
1.49575e-05
1.42508e-05
1.34946e-05
1.2708e-05
1.19063e-05
1.11018e-05
1.03037e-05
9.51902e-06
8.7529e-06
8.00865e-06
7.28825e-06
6.59199e-06
5.92e-06
5.26836e-06
4.6398e-06
4.01902e-06
3.42769e-06
1.14474e-05
1.64959e-05
1.82455e-05
1.97409e-05
2.01906e-05
1.94145e-05
1.76344e-05
1.51279e-05
1.22619e-05
9.60944e-06
8.12843e-06
8.74982e-06
1.10758e-05
1.41122e-05
1.72956e-05
2.0384e-05
2.3273e-05
2.59189e-05
2.83075e-05
3.04402e-05
3.23271e-05
3.39825e-05
3.54233e-05
3.66666e-05
3.77298e-05
3.86295e-05
3.93816e-05
4.00011e-05
4.05039e-05
4.09052e-05
4.12261e-05
4.14855e-05
4.17367e-05
2.49103e-05
2.86783e-05
3.90511e-05
5.35342e-05
6.78499e-05
8.18326e-05
9.47426e-05
0.000105972
0.000115472
0.000123318
0.000129616
0.000134521
0.000138203
0.000140824
0.000142539
0.000143485
0.000143786
0.000143549
0.000142867
0.000141818
0.000140472
0.000138883
0.000137101
0.000135166
0.000133109
0.000130959
0.000128739
0.000126462
0.000124149
0.0001218
0.000119433
0.000117059
0.000114893
0.000543346
0.00051058
0.000491569
0.000467812
0.0004437
0.000421254
0.000399633
0.000378909
0.000359351
0.00034098
0.000323784
0.000307752
0.00029284
0.000278988
0.000266127
0.000254184
0.000243085
0.000232759
0.000223137
0.000214154
0.000205751
0.000197873
0.00019047
0.0001835
0.000176921
0.000170697
0.000164795
0.000159187
0.000153827
0.000148722
0.000143697
0.000139326
0.000135273
8.43924e-05
7.88822e-05
7.48509e-05
7.28719e-05
7.2611e-05
7.47738e-05
7.92162e-05
8.52662e-05
9.16913e-05
9.69166e-05
9.83022e-05
8.43831e-05
6.17885e-05
5.35273e-05
5.08813e-05
4.57729e-05
3.87979e-05
3.09708e-05
2.28127e-05
1.52089e-05
8.84246e-06
1.22088e-05
1.66866e-05
1.26353e-05
1.58056e-05
2.52569e-05
3.62626e-05
4.1228e-05
3.94697e-05
3.58155e-05
3.32024e-05
3.2035e-05
3.27381e-05
3.39776e-05
3.58776e-05
3.78136e-05
3.69708e-05
3.44461e-05
3.1931e-05
2.97009e-05
2.73228e-05
2.42603e-05
2.02246e-05
1.51784e-05
9.23947e-06
3.25836e-06
1.62643e-06
6.45332e-06
1.44201e-05
2.69845e-05
3.75583e-05
3.97445e-05
3.48617e-05
2.82109e-05
2.30295e-05
1.93964e-05
1.65887e-05
1.43673e-05
1.27555e-05
1.16844e-05
1.09809e-05
1.05251e-05
1.02674e-05
1.02158e-05
1.07751e-05
1.27539e-05
1.65316e-05
2.5185e-05
3.73688e-05
4.52889e-05
4.63226e-05
4.25745e-05
3.60442e-05
2.77385e-05
1.83568e-05
8.50544e-06
2.8095e-06
1.83343e-05
3.55668e-05
4.72505e-05
4.81713e-05
4.01598e-05
2.90433e-05
1.95476e-05
1.33205e-05
9.67785e-06
7.34102e-06
5.58003e-06
4.17695e-06
3.07387e-06
2.22008e-06
1.56555e-06
1.0681e-06
7.06751e-07
4.52666e-07
3.23098e-07
2.89464e-07
3.38073e-07
4.03156e-07
4.31399e-07
0.000104071
9.99763e-05
9.45027e-05
8.88877e-05
8.3689e-05
8.0113e-05
7.91046e-05
8.06691e-05
8.40366e-05
8.81697e-05
9.31168e-05
9.66759e-05
8.42181e-05
6.0595e-05
4.93168e-05
4.60762e-05
4.07729e-05
3.3377e-05
2.56615e-05
1.86241e-05
1.47401e-05
1.70489e-05
1.23245e-05
8.53113e-06
1.62027e-05
2.79279e-05
3.84276e-05
4.07365e-05
3.77018e-05
3.42076e-05
3.20395e-05
3.09464e-05
3.13265e-05
3.28228e-05
3.44843e-05
3.69321e-05
3.72249e-05
3.4856e-05
3.19865e-05
2.94153e-05
2.6782e-05
2.36085e-05
1.96158e-05
1.47387e-05
9.26501e-06
4.26013e-06
1.52042e-06
7.35851e-06
1.86291e-05
3.24236e-05
4.06292e-05
3.97889e-05
3.36331e-05
2.72864e-05
2.26837e-05
1.93353e-05
1.66491e-05
1.45194e-05
1.29757e-05
1.19378e-05
1.1241e-05
1.07824e-05
1.05375e-05
1.0496e-05
1.0977e-05
1.28572e-05
1.64366e-05
2.43586e-05
3.70239e-05
4.63583e-05
4.82914e-05
4.46647e-05
3.7888e-05
2.92377e-05
1.95763e-05
9.88312e-06
6.39138e-06
2.14359e-05
3.9067e-05
4.98764e-05
4.91623e-05
3.9867e-05
2.83484e-05
1.91401e-05
1.33557e-05
9.9176e-06
7.56959e-06
5.74888e-06
4.30777e-06
3.1829e-06
2.30862e-06
1.63222e-06
1.1143e-06
7.35848e-07
4.67122e-07
3.28169e-07
2.91001e-07
3.45621e-07
4.12432e-07
4.49179e-07
8.88474e-05
8.79113e-05
8.46731e-05
7.96397e-05
7.36676e-05
6.82508e-05
6.49701e-05
6.45544e-05
6.65058e-05
6.98888e-05
7.42664e-05
8.07596e-05
8.61225e-05
7.7292e-05
5.68016e-05
4.31016e-05
3.85395e-05
3.43724e-05
2.88169e-05
2.29332e-05
1.92834e-05
1.31481e-05
1.22091e-06
9.28e-06
1.82976e-05
3.25793e-05
4.0171e-05
3.93828e-05
3.55968e-05
3.24978e-05
3.07035e-05
2.97679e-05
2.9771e-05
3.11414e-05
3.28374e-05
3.5408e-05
3.71779e-05
3.56565e-05
3.24351e-05
2.93317e-05
2.63819e-05
2.30798e-05
1.91465e-05
1.45037e-05
9.59905e-06
5.11969e-06
3.13322e-06
1.1409e-05
2.54046e-05
3.80961e-05
4.25645e-05
3.88164e-05
3.20185e-05
2.62863e-05
2.22748e-05
1.9219e-05
1.66963e-05
1.46856e-05
1.32135e-05
1.22008e-05
1.15015e-05
1.10291e-05
1.07861e-05
1.07553e-05
1.1141e-05
1.28231e-05
1.6227e-05
2.33183e-05
3.6122e-05
4.70146e-05
5.02531e-05
4.70703e-05
4.02551e-05
3.14696e-05
2.18765e-05
1.31098e-05
1.17459e-05
2.62982e-05
4.36422e-05
5.28253e-05
4.99692e-05
3.92647e-05
2.74775e-05
1.87333e-05
1.34509e-05
1.01901e-05
7.8136e-06
5.9371e-06
4.46199e-06
3.31075e-06
2.40719e-06
1.70136e-06
1.15812e-06
7.59407e-07
4.72781e-07
3.19996e-07
2.77676e-07
3.41791e-07
4.15573e-07
4.65912e-07
5.84823e-05
5.72181e-05
5.42035e-05
4.95755e-05
4.39743e-05
3.89488e-05
3.62907e-05
3.65285e-05
3.86881e-05
4.19981e-05
4.6657e-05
5.30379e-05
6.25735e-05
7.06047e-05
6.71434e-05
5.26086e-05
3.79354e-05
2.9094e-05
2.32379e-05
1.73714e-05
1.13439e-05
8.14319e-06
9.98052e-06
9.93957e-06
2.51489e-05
3.75975e-05
4.00986e-05
3.6934e-05
3.32601e-05
3.07537e-05
2.92579e-05
2.84778e-05
2.83396e-05
2.93347e-05
3.10168e-05
3.33977e-05
3.63868e-05
3.67238e-05
3.38485e-05
3.00113e-05
2.63983e-05
2.2796e-05
1.88319e-05
1.44194e-05
1.00737e-05
6.34454e-06
7.93313e-06
1.93053e-05
3.35762e-05
4.26499e-05
4.2723e-05
3.68314e-05
3.02226e-05
2.5352e-05
2.18854e-05
1.90909e-05
1.67377e-05
1.48542e-05
1.3456e-05
1.2467e-05
1.17626e-05
1.12721e-05
1.10219e-05
1.10118e-05
1.13347e-05
1.27639e-05
1.59533e-05
2.2188e-05
3.47432e-05
4.73155e-05
5.23671e-05
5.0028e-05
4.33646e-05
3.45695e-05
2.5283e-05
1.77625e-05
1.83964e-05
3.2759e-05
4.89594e-05
5.56593e-05
5.02659e-05
3.82442e-05
2.65036e-05
1.84518e-05
1.3675e-05
1.05153e-05
8.07668e-06
6.14524e-06
4.6402e-06
3.45987e-06
2.52149e-06
1.78191e-06
1.21096e-06
7.90976e-07
4.86649e-07
3.21891e-07
2.76445e-07
3.49954e-07
4.27908e-07
4.883e-07
1.68588e-05
1.57647e-05
1.3375e-05
9.9326e-06
6.83475e-06
7.51442e-06
1.09387e-05
1.37755e-05
1.52337e-05
1.61724e-05
1.83784e-05
2.32025e-05
3.06968e-05
4.08946e-05
5.02952e-05
5.24706e-05
4.63413e-05
3.67441e-05
2.7902e-05
2.24057e-05
2.0339e-05
1.64614e-05
6.19107e-06
1.91053e-05
3.45218e-05
3.98132e-05
3.77469e-05
3.38995e-05
3.09338e-05
2.89606e-05
2.76787e-05
2.70161e-05
2.68995e-05
2.75719e-05
2.90736e-05
3.1127e-05
3.44213e-05
3.6972e-05
3.59941e-05
3.22643e-05
2.78229e-05
2.35364e-05
1.93245e-05
1.5177e-05
1.16741e-05
1.0604e-05
1.70526e-05
2.97237e-05
4.10094e-05
4.47812e-05
4.09777e-05
3.42203e-05
2.84747e-05
2.44861e-05
2.14781e-05
1.89328e-05
1.67632e-05
1.50136e-05
1.3687e-05
1.27158e-05
1.20009e-05
1.14882e-05
1.1221e-05
1.12245e-05
1.15158e-05
1.26963e-05
1.56228e-05
2.10459e-05
3.28144e-05
4.6908e-05
5.42877e-05
5.3373e-05
4.72163e-05
3.8652e-05
2.99575e-05
2.39085e-05
2.64362e-05
4.0551e-05
5.46336e-05
5.79912e-05
4.98175e-05
3.67521e-05
2.54686e-05
1.83009e-05
1.39755e-05
1.08468e-05
8.33738e-06
6.36459e-06
4.8351e-06
3.62156e-06
2.6424e-06
1.86496e-06
1.26396e-06
8.21176e-07
4.97164e-07
3.16793e-07
2.6607e-07
3.51653e-07
4.37705e-07
5.12335e-07
8.34984e-06
9.27004e-06
1.06923e-05
1.23673e-05
1.39018e-05
1.4832e-05
1.47277e-05
1.33563e-05
1.08252e-05
7.7956e-06
6.07682e-06
8.9277e-06
1.43836e-05
1.94951e-05
2.41826e-05
2.91872e-05
3.22651e-05
3.15337e-05
2.80622e-05
2.32404e-05
1.47129e-05
1.01456e-06
1.86754e-05
3.33829e-05
3.91419e-05
3.77354e-05
3.4014e-05
3.0897e-05
2.87154e-05
2.71387e-05
2.60515e-05
2.54991e-05
2.54738e-05
2.59778e-05
2.71741e-05
2.88903e-05
3.16621e-05
3.54558e-05
3.7359e-05
3.57333e-05
3.17483e-05
2.70956e-05
2.27072e-05
1.91578e-05
1.75915e-05
2.04745e-05
2.92403e-05
3.96489e-05
4.53785e-05
4.38522e-05
3.77735e-05
3.14751e-05
2.69196e-05
2.36973e-05
2.10693e-05
1.87627e-05
1.67782e-05
1.51582e-05
1.38969e-05
1.2939e-05
1.22123e-05
1.16783e-05
1.13886e-05
1.1397e-05
1.1677e-05
1.26363e-05
1.5235e-05
1.99593e-05
3.04128e-05
4.55205e-05
5.56287e-05
5.69018e-05
5.18509e-05
4.39257e-05
3.61097e-05
3.16398e-05
3.5866e-05
4.92e-05
6.00338e-05
5.93058e-05
4.83905e-05
3.48124e-05
2.44889e-05
1.8321e-05
1.43373e-05
1.11782e-05
8.60292e-06
6.6039e-06
5.05135e-06
3.79825e-06
2.77253e-06
1.95418e-06
1.32154e-06
8.54881e-07
5.10345e-07
3.14859e-07
2.62395e-07
3.62414e-07
4.55638e-07
5.42515e-07
9.24977e-06
9.92789e-06
1.08155e-05
1.16689e-05
1.2192e-05
1.21403e-05
1.1398e-05
1.00335e-05
8.32202e-06
6.82471e-06
6.47412e-06
8.08246e-06
1.19744e-05
1.71533e-05
2.10777e-05
2.1911e-05
2.02234e-05
1.75153e-05
1.43582e-05
1.17931e-05
1.58529e-05
2.61505e-05
3.50361e-05
3.83184e-05
3.66453e-05
3.32353e-05
3.03419e-05
2.82499e-05
2.66124e-05
2.53225e-05
2.44293e-05
2.39859e-05
2.40291e-05
2.44934e-05
2.54302e-05
2.68325e-05
2.88681e-05
3.23785e-05
3.63e-05
3.80032e-05
3.672e-05
3.36179e-05
3.02987e-05
2.81559e-05
2.87415e-05
3.32729e-05
4.03604e-05
4.55497e-05
4.53243e-05
4.03074e-05
3.39959e-05
2.90262e-05
2.56086e-05
2.29716e-05
2.06558e-05
1.85765e-05
1.67727e-05
1.52751e-05
1.40736e-05
1.31282e-05
1.23919e-05
1.18405e-05
1.1526e-05
1.15273e-05
1.18062e-05
1.25892e-05
1.48028e-05
1.89521e-05
2.77494e-05
4.30064e-05
5.59387e-05
6.02281e-05
5.7117e-05
5.04141e-05
4.37893e-05
4.097e-05
4.63948e-05
5.79093e-05
6.43151e-05
5.90675e-05
4.58549e-05
3.25583e-05
2.36852e-05
1.84899e-05
1.47111e-05
1.14933e-05
8.87751e-06
6.8682e-06
5.28976e-06
3.98915e-06
2.91132e-06
2.04927e-06
1.38332e-06
8.91114e-07
5.23692e-07
3.08775e-07
2.51458e-07
3.67765e-07
4.71167e-07
5.73397e-07
6.00828e-06
6.51897e-06
7.15528e-06
7.76766e-06
8.17849e-06
8.25239e-06
7.95136e-06
7.36707e-06
6.73535e-06
6.44274e-06
6.93171e-06
8.29541e-06
1.0499e-05
1.39994e-05
1.87846e-05
2.33225e-05
2.61135e-05
2.72124e-05
2.80361e-05
2.99638e-05
3.3083e-05
3.56935e-05
3.59837e-05
3.40158e-05
3.13219e-05
2.90794e-05
2.73701e-05
2.58994e-05
2.45918e-05
2.3543e-05
2.28344e-05
2.24929e-05
2.25629e-05
2.3026e-05
2.38237e-05
2.49842e-05
2.64829e-05
2.8935e-05
3.28635e-05
3.68386e-05
3.90061e-05
3.91313e-05
3.83128e-05
3.80859e-05
3.96339e-05
4.29186e-05
4.58029e-05
4.54876e-05
4.1363e-05
3.5554e-05
3.055e-05
2.70684e-05
2.45041e-05
2.22829e-05
2.02322e-05
1.83704e-05
1.6739e-05
1.53553e-05
1.42111e-05
1.32818e-05
1.25415e-05
1.19786e-05
1.16393e-05
1.16195e-05
1.18975e-05
1.25553e-05
1.43616e-05
1.79984e-05
2.50976e-05
3.93723e-05
5.4677e-05
6.26421e-05
6.24637e-05
5.77594e-05
5.27255e-05
5.14956e-05
5.71865e-05
6.55057e-05
6.65078e-05
5.68384e-05
4.22652e-05
3.02363e-05
2.31421e-05
1.87491e-05
1.50607e-05
1.17969e-05
9.17572e-06
7.16472e-06
5.55175e-06
4.19476e-06
3.06029e-06
2.15232e-06
1.45135e-06
9.31563e-07
5.38982e-07
3.03113e-07
2.44621e-07
3.8078e-07
4.94311e-07
6.10509e-07
4.63489e-06
5.03468e-06
5.51021e-06
5.95855e-06
6.26361e-06
6.33762e-06
6.15494e-06
5.78642e-06
5.43352e-06
5.43225e-06
6.09814e-06
7.50574e-06
9.46725e-06
1.18552e-05
1.48932e-05
1.86887e-05
2.26314e-05
2.59232e-05
2.8417e-05
3.02533e-05
3.12438e-05
3.10582e-05
2.99107e-05
2.84612e-05
2.71643e-05
2.60108e-05
2.48555e-05
2.36975e-05
2.26486e-05
2.1817e-05
2.12621e-05
2.10054e-05
2.10831e-05
2.1526e-05
2.2264e-05
2.32871e-05
2.45207e-05
2.61179e-05
2.88025e-05
3.27116e-05
3.66573e-05
3.95181e-05
4.12435e-05
4.25881e-05
4.39752e-05
4.48849e-05
4.39689e-05
4.05527e-05
3.56811e-05
3.11778e-05
2.79159e-05
2.55521e-05
2.35224e-05
2.16001e-05
1.97897e-05
1.81375e-05
1.66694e-05
1.53943e-05
1.43096e-05
1.34037e-05
1.26666e-05
1.20969e-05
1.17331e-05
1.16767e-05
1.19416e-05
1.2519e-05
1.39528e-05
1.70651e-05
2.27101e-05
3.49122e-05
5.14248e-05
6.31998e-05
6.68685e-05
6.50386e-05
6.20427e-05
6.21058e-05
6.67777e-05
7.05288e-05
6.57058e-05
5.24495e-05
3.79399e-05
2.81505e-05
2.28528e-05
1.90163e-05
1.53671e-05
1.21064e-05
9.51281e-06
7.49786e-06
5.83744e-06
4.41526e-06
3.22051e-06
2.26463e-06
1.52654e-06
9.76463e-07
5.55662e-07
2.94152e-07
2.32042e-07
3.90422e-07
5.16656e-07
6.49239e-07
3.91964e-06
4.21271e-06
4.54258e-06
4.83717e-06
5.01821e-06
5.02588e-06
4.84709e-06
4.54996e-06
4.31736e-06
4.44114e-06
5.15732e-06
6.4773e-06
8.26743e-06
1.03604e-05
1.26463e-05
1.51569e-05
1.78706e-05
2.05315e-05
2.27582e-05
2.43086e-05
2.51097e-05
2.531e-05
2.51468e-05
2.47624e-05
2.418e-05
2.34087e-05
2.25172e-05
2.16127e-05
2.07958e-05
2.01439e-05
1.97092e-05
1.9522e-05
1.96123e-05
2.00198e-05
2.07105e-05
2.16511e-05
2.27901e-05
2.40339e-05
2.56503e-05
2.81757e-05
3.15512e-05
3.49754e-05
3.77384e-05
3.96253e-05
4.04741e-05
3.98605e-05
3.75491e-05
3.41061e-05
3.06809e-05
2.80241e-05
2.60338e-05
2.42888e-05
2.25755e-05
2.09013e-05
1.93241e-05
1.78746e-05
1.65629e-05
1.53956e-05
1.43759e-05
1.35018e-05
1.27737e-05
1.21991e-05
1.18102e-05
1.1703e-05
1.19323e-05
1.24567e-05
1.35992e-05
1.61585e-05
2.06994e-05
3.02259e-05
4.61727e-05
6.09933e-05
6.89256e-05
7.06875e-05
7.00773e-05
7.08909e-05
7.32108e-05
7.15089e-05
6.13629e-05
4.61876e-05
3.34619e-05
2.65277e-05
2.27194e-05
1.92334e-05
1.56489e-05
1.24537e-05
9.90423e-06
7.87083e-06
6.14755e-06
4.65236e-06
3.39425e-06
2.38826e-06
1.61014e-06
1.02629e-06
5.73849e-07
2.83132e-07
2.21477e-07
4.06782e-07
5.46436e-07
6.94632e-07
3.32291e-06
3.53368e-06
3.75694e-06
3.93938e-06
4.02687e-06
3.98019e-06
3.79801e-06
3.54914e-06
3.40622e-06
3.62483e-06
4.37076e-06
5.60222e-06
7.19075e-06
9.02727e-06
1.10116e-05
1.30535e-05
1.50935e-05
1.70502e-05
1.87699e-05
2.0148e-05
2.11539e-05
2.1776e-05
2.20217e-05
2.19299e-05
2.15656e-05
2.10102e-05
2.03495e-05
1.96655e-05
1.90342e-05
1.85238e-05
1.81869e-05
1.80577e-05
1.81644e-05
1.8539e-05
1.91742e-05
2.00404e-05
2.11149e-05
2.22975e-05
2.35197e-05
2.4992e-05
2.69801e-05
2.93305e-05
3.15151e-05
3.30181e-05
3.34941e-05
3.27678e-05
3.11077e-05
2.9146e-05
2.74033e-05
2.59386e-05
2.45434e-05
2.30919e-05
2.16141e-05
2.01829e-05
1.88368e-05
1.75831e-05
1.64243e-05
1.53671e-05
1.44189e-05
1.35836e-05
1.28679e-05
1.22865e-05
1.18693e-05
1.17001e-05
1.18656e-05
1.23413e-05
1.32857e-05
1.53276e-05
1.90226e-05
2.60127e-05
3.95513e-05
5.56034e-05
6.72495e-05
7.27708e-05
7.45953e-05
7.54958e-05
7.45207e-05
6.74642e-05
5.36527e-05
3.89035e-05
2.95105e-05
2.53903e-05
2.26218e-05
1.93998e-05
1.59544e-05
1.28719e-05
1.03598e-05
8.28502e-06
6.48332e-06
4.90889e-06
3.58434e-06
2.52526e-06
1.70322e-06
1.08151e-06
5.93903e-07
2.68872e-07
2.07181e-07
4.22521e-07
5.77799e-07
7.43244e-07
2.82918e-06
2.97349e-06
3.11409e-06
3.2109e-06
3.22722e-06
3.13853e-06
2.95143e-06
2.73521e-06
2.65508e-06
2.9345e-06
3.67506e-06
4.80509e-06
6.21344e-06
7.81543e-06
9.54136e-06
1.13171e-05
1.30655e-05
1.47183e-05
1.62113e-05
1.7469e-05
1.84269e-05
1.90558e-05
1.93686e-05
1.94014e-05
1.92035e-05
1.8835e-05
1.83607e-05
1.78472e-05
1.73614e-05
1.69653e-05
1.6709e-05
1.66268e-05
1.67469e-05
1.70966e-05
1.76775e-05
1.84707e-05
1.94589e-05
2.06027e-05
2.17912e-05
2.29576e-05
2.41766e-05
2.5498e-05
2.67548e-05
2.76751e-05
2.80278e-05
2.77748e-05
2.71078e-05