/*--------------------------------*- C++ -*----------------------------------*\
  =========                 |
  \\      /  F ield         | OpenFOAM: The Open Source CFD Toolbox
   \\    /   O peration     | Website:  https://openfoam.org
    \\  /    A nd           | Version:  10
     \\/     M anipulation  |
\*---------------------------------------------------------------------------*/
FoamFile
{
    format      ascii;
    class       surfaceScalarField;
    location    "0.135";
    object      phi;
}
// * * * * * * * * * * * * * * * * * * * * * * * * * * * * * * * * * * * * * //

dimensions      [0 3 -1 0 0 0 0];

internalField   nonuniform List<scalar> 
13452
(
4.01945e-05
2.0074e-05
2.59412e-05
1.42533e-05
1.85436e-05
7.39753e-06
1.51784e-05
3.36518e-06
1.37723e-05
1.40613e-06
1.30737e-05
6.98557e-07
1.26303e-05
4.43446e-07
1.22901e-05
3.40201e-07
1.20036e-05
2.86516e-07
1.17589e-05
2.44661e-07
1.15521e-05
2.06807e-07
1.13795e-05
1.7259e-07
1.12373e-05
1.42253e-07
1.11216e-05
1.15701e-07
1.10291e-05
9.24514e-08
1.09573e-05
7.18647e-08
1.09039e-05
5.33092e-08
1.08677e-05
3.62554e-08
1.08476e-05
2.01171e-08
1.08432e-05
4.40718e-09
1.08538e-05
-1.061e-08
1.08795e-05
-2.57621e-08
1.09209e-05
-4.13361e-08
1.09778e-05
-5.69641e-08
1.10516e-05
-7.37889e-08
1.1143e-05
-9.13505e-08
1.12534e-05
-1.10401e-07
1.13834e-05
-1.30065e-07
1.15363e-05
-1.52892e-07
1.1706e-05
-1.69657e-07
1.19081e-05
-2.02134e-07
1.20629e-05
-1.54764e-07
-3.36271e-07
1.23992e-05
6.59047e-05
1.61597e-05
6.19053e-05
1.82526e-05
5.5656e-05
1.36468e-05
4.98027e-05
9.21848e-06
4.53245e-05
5.88435e-06
4.21314e-05
3.89165e-06
3.98465e-05
2.72834e-06
3.81708e-05
2.01589e-06
3.68991e-05
1.55829e-06
3.59004e-05
1.24336e-06
3.50946e-05
1.01256e-06
3.44316e-05
8.35576e-07
3.38788e-05
6.95117e-07
3.34139e-05
5.80508e-07
3.30217e-05
4.84678e-07
3.26909e-05
4.02685e-07
3.24133e-05
3.30951e-07
3.21827e-05
2.66828e-07
3.19946e-05
2.08248e-07
3.18453e-05
1.53692e-07
3.17325e-05
1.0212e-07
3.16547e-05
5.20566e-08
3.16116e-05
1.7739e-09
3.16016e-05
-4.70029e-08
3.16253e-05
-9.74656e-08
3.1683e-05
-1.49003e-07
3.17757e-05
-2.03175e-07
3.19052e-05
-2.59553e-07
3.20729e-05
-3.20534e-07
3.22834e-05
-3.8021e-07
3.25371e-05
-4.55759e-07
3.28873e-05
-5.04981e-07
-6.43159e-07
3.31942e-05
6.91817e-05
1.07394e-05
7.25109e-05
1.49234e-05
7.30711e-05
1.30867e-05
7.17082e-05
1.05814e-05
6.94787e-05
8.11387e-06
6.71184e-05
6.25189e-06
6.49101e-05
4.93663e-06
6.29442e-05
3.98184e-06
6.1231e-05
3.27148e-06
5.97486e-05
2.72576e-06
5.84681e-05
2.29309e-06
5.73616e-05
1.94202e-06
5.64047e-05
1.65206e-06
5.55764e-05
1.40884e-06
5.48592e-05
1.20185e-06
5.42387e-05
1.02313e-06
5.37031e-05
8.66564e-07
5.32426e-05
7.27354e-07
5.28492e-05
6.01646e-07
5.25166e-05
4.86333e-07
5.22397e-05
3.78964e-07
5.20146e-05
2.77155e-07
5.18374e-05
1.78972e-07
5.17069e-05
8.34829e-08
5.16218e-05
-1.22976e-08
5.15822e-05
-1.09387e-07
5.1588e-05
-2.09062e-07
5.16398e-05
-3.11324e-07
5.17377e-05
-4.18395e-07
5.18854e-05
-5.27947e-07
5.20781e-05
-6.48457e-07
5.23341e-05
-7.61008e-07
-9.00672e-07
5.25917e-05
6.88461e-05
7.47636e-06
7.21619e-05
1.16076e-05
7.45384e-05
1.07102e-05
7.59517e-05
9.16808e-06
7.65353e-05
7.53022e-06
7.66066e-05
6.18058e-06
7.63735e-05
5.16971e-06
7.59615e-05
4.39387e-06
7.5451e-05
3.78197e-06
7.48908e-05
3.28602e-06
7.43114e-05
2.87248e-06
7.37331e-05
2.52032e-06
7.31699e-05
2.21523e-06
7.26316e-05
1.94712e-06
7.21244e-05
1.70911e-06
7.16518e-05
1.49569e-06
7.1216e-05
1.30235e-06
7.0818e-05
1.12533e-06
7.04582e-05
9.61449e-07
7.01366e-05
8.08019e-07
6.98528e-05
6.62741e-07
6.96065e-05
5.23434e-07
6.93974e-05
3.88086e-07
6.92255e-05
2.55404e-07
6.90898e-05
1.23328e-07
6.89898e-05
-9.37723e-09
6.89263e-05
-1.45573e-07
6.88999e-05
-2.84917e-07
6.89113e-05
-4.29796e-07
6.89632e-05
-5.79788e-07
6.90539e-05
-7.39152e-07
6.91943e-05
-9.01401e-07
-1.07667e-06
6.93703e-05
6.95593e-05
5.37386e-06
7.18373e-05
9.32965e-06
7.35405e-05
9.00692e-06
7.4813e-05
7.89566e-06
7.57078e-05
6.63534e-06
7.63628e-05
5.52563e-06
7.68642e-05
4.66832e-06
7.72539e-05
4.00412e-06
7.75601e-05
3.47577e-06
7.78013e-05
3.04489e-06
7.79901e-05
2.68364e-06
7.81368e-05
2.37361e-06
7.82488e-05
2.10323e-06
7.83318e-05
1.86414e-06
7.83914e-05
1.6495e-06
7.84328e-05
1.45423e-06
7.84608e-05
1.27443e-06
7.84791e-05
1.10695e-06
7.84914e-05
9.4915e-07
7.85007e-05
7.98794e-07
7.85095e-05
6.5394e-07
7.85201e-05
5.12782e-07
7.85345e-05
3.73674e-07
7.85545e-05
2.35392e-07
7.85813e-05
9.65248e-08
7.86154e-05
-4.33847e-08
7.8656e-05
-1.86219e-07
7.87044e-05
-3.3329e-07
7.87612e-05
-4.86655e-07
7.88284e-05
-6.46921e-07
7.8906e-05
-8.16797e-07
7.89994e-05
-9.94808e-07
-1.18652e-06
7.91093e-05
7.08407e-05
3.91715e-06
7.26297e-05
7.54066e-06
7.39396e-05
7.69702e-06
7.48743e-05
6.96099e-06
7.55101e-05
5.99954e-06
7.59662e-05
5.06947e-06
7.63298e-05
4.30472e-06
7.66413e-05
3.69271e-06
7.69208e-05
3.19621e-06
7.71784e-05
2.78735e-06
7.74181e-05
2.4439e-06
7.76422e-05
2.14947e-06
7.78528e-05
1.89271e-06
7.80514e-05
1.66552e-06
7.82391e-05
1.46181e-06
7.84165e-05
1.27675e-06
7.85845e-05
1.1065e-06
7.87435e-05
9.47909e-07
7.88943e-05
7.98369e-07
7.90374e-05
6.55659e-07
7.91735e-05
5.17863e-07
7.9303e-05
3.83259e-07
7.94264e-05
2.50287e-07
7.95441e-05
1.17668e-07
7.96567e-05
-1.60394e-08
7.97652e-05
-1.51913e-07
7.98709e-05
-2.91851e-07
7.99742e-05
-4.36644e-07
8.00754e-05
-5.87833e-07
8.0175e-05
-7.46541e-07
8.02734e-05
-9.15143e-07
8.03733e-05
-1.09471e-06
-1.2905e-06
8.04773e-05
7.23894e-05
2.89409e-06
7.38436e-05
6.08641e-06
7.4975e-05
6.56564e-06
7.57986e-05
6.13745e-06
7.63637e-05
5.43437e-06
7.67543e-05
4.67893e-06
7.70465e-05
4.0125e-06
7.72825e-05
3.45671e-06
7.74857e-05
2.99305e-06
7.76693e-05
2.6037e-06
7.78405e-05
2.27272e-06
7.8003e-05
1.98701e-06
7.81589e-05
1.73682e-06
7.83095e-05
1.5149e-06
7.84557e-05
1.3156e-06
7.8598e-05
1.13444e-06
7.87368e-05
9.67742e-07
7.88722e-05
8.12501e-07
7.90044e-05
6.66176e-07
7.91334e-05
5.26594e-07
7.92594e-05
3.91865e-07
7.93824e-05
2.60286e-07
7.95024e-05
1.30335e-07
7.96194e-05
6.81182e-10
7.97337e-05
-1.30433e-07
7.98458e-05
-2.63953e-07
7.99553e-05
-4.01395e-07
8.00625e-05
-5.43766e-07
8.01671e-05
-6.9247e-07
8.02694e-05
-8.48881e-07
8.03695e-05
-1.01521e-06
8.04684e-05
-1.19359e-06
-1.38825e-06
8.05661e-05
7.41258e-05
2.17351e-06
7.52952e-05
4.9171e-06
7.62802e-05
5.58063e-06
7.70372e-05
5.38044e-06
7.75892e-05
4.88237e-06
7.79856e-05
4.28254e-06
7.8284e-05
3.71405e-06
7.85219e-05
3.21878e-06
7.87218e-05
2.79318e-06
7.88977e-05
2.42785e-06
7.90578e-05
2.11263e-06
7.9207e-05
1.8378e-06
7.93483e-05
1.59546e-06
7.94838e-05
1.3794e-06
7.96148e-05
1.18465e-06
7.97421e-05
1.0071e-06
7.98665e-05
8.43382e-07
7.99883e-05
6.9065e-07
8.0108e-05
5.46496e-07
8.02258e-05
4.08838e-07
8.03418e-05
2.75856e-07
8.04561e-05
1.45931e-07
8.05689e-05
1.7554e-08
8.06802e-05
-1.10585e-07
8.07896e-05
-2.39882e-07
8.08972e-05
-3.71511e-07
8.10026e-05
-5.06777e-07
8.11056e-05
-6.46775e-07
8.12059e-05
-7.92801e-07
8.13033e-05
-9.46273e-07
8.13972e-05
-1.10916e-06
8.14874e-05
-1.28378e-06
-1.4731e-06
8.15723e-05
7.60173e-05
1.65868e-06
7.69556e-05
3.97878e-06
7.78076e-05
4.72868e-06
7.84935e-05
4.69453e-06
7.90198e-05
4.35602e-06
7.94152e-05
3.88722e-06
7.97216e-05
3.40764e-06
7.99703e-05
2.97004e-06
8.01809e-05
2.58255e-06
8.03662e-05
2.24261e-06
8.0534e-05
1.94476e-06
8.06895e-05
1.68234e-06
8.08358e-05
1.44917e-06
8.09751e-05
1.24012e-06
8.11088e-05
1.05087e-06
8.12382e-05
8.77765e-07
8.13638e-05
7.17712e-07
8.14864e-05
5.68086e-07
8.16063e-05
4.26628e-07
8.17237e-05
2.91374e-07
8.1839e-05
1.60597e-07
8.19522e-05
3.27548e-08
8.20633e-05
-9.35565e-08
8.21723e-05
-2.1958e-07
8.2279e-05
-3.46589e-07
8.23832e-05
-4.75715e-07
8.24845e-05
-6.08094e-07
8.25825e-05
-7.44793e-07
8.26767e-05
-8.86983e-07
8.27664e-05
-1.03594e-06
8.28505e-05
-1.19326e-06
8.29276e-05
-1.36089e-06
-1.54048e-06
8.2995e-05
7.80335e-05
1.28473e-06
7.87864e-05
3.22587e-06
7.95211e-05
3.99407e-06
8.01402e-05
4.07539e-06
8.06375e-05
3.85873e-06
8.10266e-05
3.49808e-06
8.13364e-05
3.09785e-06
8.15919e-05
2.71458e-06
8.18099e-05
2.36452e-06
8.20021e-05
2.05043e-06
8.21761e-05
1.77072e-06
8.2337e-05
1.52143e-06
8.24881e-05
1.2981e-06
8.26316e-05
1.09664e-06
8.2769e-05
9.13421e-07
8.29015e-05
7.45256e-07
8.30299e-05
5.89369e-07
8.31546e-05
4.43351e-07
8.32761e-05
3.05103e-07
8.33947e-05
1.72788e-07
8.35106e-05
4.47765e-08
8.36237e-05
-8.0379e-08
8.37341e-05
-2.03988e-07
8.38418e-05
-3.27224e-07
8.39464e-05
-4.51223e-07
8.40477e-05
-5.7702e-07
8.41452e-05
-7.05614e-07
8.42384e-05
-8.37953e-07
8.43264e-05
-9.75007e-07
8.44083e-05
-1.1178e-06
8.44824e-05
-1.26745e-06
8.45469e-05
-1.42533e-06
-1.59196e-06
8.45984e-05
8.01551e-05
1.0079e-06
8.07611e-05
2.6199e-06
8.1394e-05
3.36116e-06
8.19521e-05
3.51728e-06
8.2419e-05
3.39186e-06
8.27982e-05
3.11892e-06
8.3108e-05
2.78805e-06
8.33678e-05
2.45475e-06
8.35919e-05
2.14041e-06
8.37905e-05
1.85188e-06
8.39706e-05
1.59061e-06
8.4137e-05
1.35497e-06
8.42931e-05
1.14205e-06
8.4441e-05
9.48762e-07
8.45822e-05
7.72149e-07
8.4718e-05
6.09475e-07
8.48491e-05
4.58283e-07
8.49761e-05
3.16392e-07
8.50993e-05
1.81876e-07
8.52191e-05
5.30284e-08
8.53355e-05
-7.16649e-08
8.54487e-05
-1.93548e-07
8.55585e-05
-3.13827e-07
8.56649e-05
-4.33585e-07
8.57675e-05
-5.53829e-07
8.58659e-05
-6.7547e-07
8.59597e-05
-7.99348e-07
8.60479e-05
-9.26238e-07
8.61298e-05
-1.05688e-06
8.6204e-05
-1.19198e-06
8.62687e-05
-1.33219e-06
8.63217e-05
-1.47826e-06
-1.62985e-06
8.63595e-05
8.23697e-05
7.98674e-07
8.28598e-05
2.1298e-06
8.34046e-05
2.81634e-06
8.39067e-05
3.0152e-06
8.43429e-05
2.95562e-06
8.471e-05
2.75184e-06
8.50181e-05
2.47993e-06
8.52813e-05
2.19153e-06
8.5511e-05
1.91068e-06
8.57159e-05
1.64704e-06
8.59022e-05
1.40432e-06
8.60744e-05
1.18277e-06
8.62356e-05
9.80809e-07
8.63881e-05
7.96274e-07
8.65334e-05
6.26839e-07
8.66727e-05
4.70218e-07
8.68067e-05
3.24275e-07
8.6936e-05
1.87065e-07
8.7061e-05
5.68369e-08
8.7182e-05
-6.79715e-08
8.72991e-05
-1.8875e-07
8.74123e-05
-3.06732e-07
8.75215e-05
-4.23018e-07
8.76265e-05
-5.38583e-07
8.7727e-05
-6.54301e-07
8.78224e-05
-7.70945e-07
8.79123e-05
-8.8919e-07
8.79957e-05
-1.00962e-06
8.80715e-05
-1.13273e-06
8.81385e-05
-1.25892e-06
8.81947e-05
-1.3884e-06
8.82378e-05
-1.52137e-06
-1.65691e-06
8.82649e-05
8.46693e-05
6.37125e-07
8.50685e-05
1.73066e-06
8.55378e-05
2.34699e-06
8.59892e-05
2.56381e-06
8.63956e-05
2.54926e-06
8.67489e-05
2.39853e-06
8.70532e-05
2.17558e-06
8.7318e-05
1.92673e-06
8.75521e-05
1.67663e-06
8.77624e-05
1.43668e-06
8.79546e-05
1.2122e-06
8.81325e-05
1.00485e-06
8.82991e-05
8.14203e-07
8.84565e-05
6.38886e-07
8.86062e-05
4.77156e-07
8.87492e-05
3.27149e-07
8.88865e-05
1.87035e-07
8.90184e-05
5.50961e-08
8.91455e-05
-7.02398e-08
8.92679e-05
-1.90389e-07
8.93858e-05
-3.06616e-07
8.94991e-05
-4.20039e-07
8.96077e-05
-5.31646e-07
8.97114e-05
-6.42295e-07
8.98099e-05
-7.52729e-07
8.99025e-05
-8.63578e-07
8.99887e-05
-9.75353e-07
9.00675e-05
-1.08844e-06
9.01379e-05
-1.20311e-06
9.01984e-05
-1.31947e-06
9.02474e-05
-1.43738e-06
9.02826e-05
-1.55661e-06
-1.67588e-06
9.03016e-05
8.70496e-05
5.09691e-07
8.73775e-05
1.40271e-06
8.77828e-05
1.94174e-06
8.81886e-05
2.15798e-06
8.85663e-05
2.17157e-06
8.89048e-05
2.06e-06
8.92039e-05
1.87655e-06
8.9469e-05
1.66164e-06
8.97064e-05
1.43916e-06
8.99218e-05
1.22135e-06
9.01195e-05
1.0145e-06
9.0303e-05
8.21304e-07
9.0475e-05
6.42214e-07
9.06374e-05
4.76534e-07
9.07915e-05
3.23022e-07
9.09384e-05
1.80191e-07
9.1079e-05
4.64952e-08
9.12136e-05
-7.95649e-08
9.13428e-05
-1.99386e-07
9.14666e-05
-3.1424e-07
9.15853e-05
-4.25266e-07
9.16987e-05
-5.33465e-07
9.18068e-05
-6.3971e-07
9.19092e-05
-7.44742e-07
9.20057e-05
-8.49175e-07
9.20956e-05
-9.53498e-07
9.21783e-05
-1.05807e-06
9.2253e-05
-1.1631e-06
9.23185e-05
-1.26864e-06
9.23736e-05
-1.37458e-06
9.24167e-05
-1.48053e-06
9.24461e-05
-1.58593e-06
-1.68938e-06
9.24596e-05
8.95082e-05
4.07057e-07
8.97804e-05
1.13044e-06
9.01317e-05
1.59044e-06
9.04971e-05
1.79259e-06
9.0848e-05
1.82072e-06
9.11715e-05
1.73652e-06
9.14641e-05
1.58389e-06
9.17283e-05
1.39745e-06
9.19682e-05
1.19932e-06
9.21877e-05
1.00184e-06
9.23904e-05
8.11769e-07
9.25792e-05
6.32465e-07
9.27564e-05
4.65025e-07
9.29237e-05
3.09288e-07
9.30823e-05
1.64429e-07
9.32332e-05
2.92878e-08
9.33771e-05
-9.74259e-08
9.35145e-05
-2.17009e-07
9.36459e-05
-3.30696e-07
9.37712e-05
-4.39621e-07
9.38908e-05
-5.44799e-07
9.40044e-05
-6.47121e-07
9.41121e-05
-7.47343e-07
9.42134e-05
-8.46094e-07
9.43081e-05
-9.43868e-07
9.43956e-05
-1.04103e-06
9.44753e-05
-1.13778e-06
9.45465e-05
-1.23421e-06
9.4608e-05
-1.33018e-06
9.46588e-05
-1.42542e-06
9.46977e-05
-1.51936e-06
9.4723e-05
-1.61129e-06
-1.69976e-06
9.47334e-05
9.20442e-05
3.22724e-07
9.22729e-05
9.01692e-07
9.25792e-05
1.28414e-06
9.29091e-05
1.46269e-06
9.32353e-05
1.49456e-06
9.3544e-05
1.42782e-06
9.38296e-05
1.29828e-06
9.40921e-05
1.135e-06
9.43335e-05
9.57869e-07
9.45566e-05
7.78707e-07
9.4764e-05
6.04372e-07
9.4958e-05
4.38534e-07
9.51403e-05
2.82719e-07
9.53124e-05
1.37157e-07
9.54755e-05
1.3444e-09
9.56304e-05
-1.2561e-07
9.57777e-05
-2.4478e-07
9.5918e-05
-3.57286e-07
9.60515e-05
-4.64216e-07
9.61785e-05
-5.66576e-07
9.6299e-05
-6.65268e-07
9.64129e-05
-7.61073e-07
9.65202e-05
-8.54643e-07
9.66206e-05
-9.465e-07
9.67138e-05
-1.03703e-06
9.67992e-05
-1.12648e-06
9.68764e-05
-1.21496e-06
9.69446e-05
-1.3024e-06
9.7003e-05
-1.38858e-06
9.70507e-05
-1.47309e-06
9.70866e-05
-1.5553e-06
9.71097e-05
-1.6344e-06
-1.70905e-06
9.7119e-05
9.46578e-05
2.52081e-07
9.48525e-05
7.06953e-07
9.51216e-05
1.01506e-06
9.54208e-05
1.16353e-06
9.57247e-05
1.19066e-06
9.60194e-05
1.13314e-06
9.62978e-05
1.01983e-06
9.6558e-05
8.74785e-07
9.68005e-05
7.15356e-07
9.70268e-05
5.52457e-07
9.72385e-05
3.92688e-07
9.74372e-05
2.39777e-07
9.76245e-05
9.54671e-08
9.78014e-05
-3.97674e-08
9.79689e-05
-1.66196e-07
9.81278e-05
-2.84507e-07
9.82787e-05
-3.95603e-07
9.84218e-05
-5.00456e-07
9.85576e-05
-6.00026e-07
9.86863e-05
-6.95208e-07
9.88078e-05
-7.86799e-07
9.89222e-05
-8.75481e-07
9.90294e-05
-9.61813e-07
9.91291e-05
-1.04622e-06
9.92211e-05
-1.12901e-06
9.93049e-05
-1.21032e-06
9.93801e-05
-1.29016e-06
9.94461e-05
-1.36841e-06
9.95023e-05
-1.44475e-06
9.95479e-05
-1.51872e-06
9.95823e-05
-1.58965e-06
9.96047e-05
-1.65677e-06
-1.71885e-06
9.96145e-05
9.73498e-05
1.91781e-07
9.7518e-05
5.38761e-07
9.77566e-05
7.76432e-07
9.80296e-05
8.906e-07
9.83138e-05
9.06375e-07
9.85957e-05
8.51308e-07
9.88672e-05
7.48297e-07
9.9125e-05
6.16966e-07
9.93683e-05
4.72083e-07
9.95974e-05
3.2338e-07
9.98131e-05
1.76943e-07
0.000100017
3.63346e-08
0.000100209
-9.66695e-08
0.00010039
-2.21478e-07
0.000100562
-3.38224e-07
0.000100725
-4.47462e-07
0.00010088
-5.49967e-07
0.000101026
-6.46599e-07
0.000101164
-7.38216e-07
0.000101295
-8.25617e-07
0.000101417
-9.0951e-07
0.000101532
-9.90494e-07
0.000101639
-1.06905e-06
0.000101739
-1.14552e-06
0.00010183
-1.22013e-06
0.000101913
-1.29295e-06
0.000101986
-1.36395e-06
0.000102051
-1.43291e-06
0.000102106
-1.49951e-06
0.00010215
-1.56327e-06
0.000102184
-1.62355e-06
0.000102207
-1.67962e-06
-1.73044e-06
0.000102218
0.000100122
1.39338e-07
0.000100269
3.9121e-07
0.000100483
5.6243e-07
0.000100734
6.39625e-07
0.000101001
6.38968e-07
0.000101272
5.80784e-07
0.000101537
4.82984e-07
0.000101793
3.61311e-07
0.000102037
2.28029e-07
0.000102269
9.1527e-08
0.000102489
-4.28149e-08
0.000102697
-1.71778e-07
0.000102894
-2.9371e-07
0.00010308
-4.08027e-07
0.000103257
-5.14819e-07
0.000103424
-6.14572e-07
0.000103582
-7.07988e-07
0.000103731
-7.95847e-07
0.000103872
-8.78931e-07
0.000104004
-9.57967e-07
0.000104128
-1.03359e-06
0.000104244
-1.10634e-06
0.000104352
-1.17662e-06
0.000104451
-1.24471e-06
0.000104542
-1.31079e-06
0.000104624
-1.37488e-06
0.000104697
-1.43689e-06
0.00010476
-1.4966e-06
0.000104814
-1.55366e-06
0.000104859
-1.60763e-06
0.000104893
-1.65792e-06
0.000104917
-1.70389e-06
-1.74468e-06
0.000104932
0.000102975
9.28526e-08
0.000103106
2.59566e-07
0.000103301
3.67992e-07
0.000103534
4.06585e-07
0.000103787
3.85586e-07
0.000104048
3.19751e-07
0.000104308
2.22847e-07
0.000104562
1.07261e-07
0.000104807
-1.70992e-08
0.000105042
-1.43262e-07
0.000105266
-2.66688e-07
0.000105479
-3.84647e-07
0.000105681
-4.95743e-07
0.000105872
-5.99513e-07
0.000106054
-6.96086e-07
0.000106225
-7.85952e-07
0.000106387
-8.69782e-07
0.000106539
-9.4832e-07
0.000106683
-1.0223e-06
0.000106817
-1.09241e-06
0.000106943
-1.15922e-06
0.00010706
-1.22321e-06
0.000107168
-1.28476e-06
0.000107267
-1.3441e-06
0.000107358
-1.40135e-06
0.000107439
-1.45651e-06
0.000107512
-1.50948e-06
0.000107575
-1.56003e-06
0.00010763
-1.60784e-06
0.000107674
-1.65249e-06
0.00010771
-1.69348e-06
0.000107736
-1.73028e-06
-1.76218e-06
0.000107754
0.000105911
5.08304e-08
0.00010603
1.3996e-07
0.00010621
1.88685e-07
0.000106429
1.8766e-07
0.000106671
1.43284e-07
0.000106925
6.60919e-08
0.000107181
-3.35585e-08
0.000107434
-1.46165e-07
0.000107681
-2.63992e-07
0.00010792
-3.81507e-07
0.000108148
-4.95103e-07
0.000108366
-6.02648e-07
0.000108573
-7.03116e-07
0.00010877
-7.9626e-07
0.000108956
-8.82335e-07
0.000109132
-9.6189e-07
0.000109298
-1.03563e-06
0.000109454
-1.10429e-06
0.0001096
-1.16859e-06
0.000109737
-1.2292e-06
0.000109865
-1.28666e-06
0.000109983
-1.34141e-06
0.000110092
-1.3938e-06
0.000110192
-1.44403e-06
0.000110283
-1.4922e-06
0.000110364
-1.5383e-06
0.000110437
-1.58221e-06
0.000110501
-1.62374e-06
0.000110556
-1.66258e-06
0.000110601
-1.69837e-06
0.000110639
-1.7307e-06
0.000110668
-1.75914e-06
-1.78313e-06
0.000110688
0.000108932
1.20522e-08
0.000109043
2.91524e-08
0.000109211
2.05611e-08
0.00010942
-2.08064e-08
0.000109654
-9.0966e-08
0.000109902
-1.82543e-07
0.000110157
-2.87972e-07
0.000110411
-4.00233e-07
0.000110661
-5.13578e-07
0.000110903
-6.23903e-07
0.000111136
-7.28591e-07
0.00011136
-8.262e-07
0.000111573
-9.16168e-07
0.000111775
-9.98552e-07
0.000111967
-1.07381e-06
0.000112147
-1.1426e-06
0.000112318
-1.20572e-06
0.000112477
-1.26393e-06
0.000112627
-1.31799e-06
0.000112766
-1.36853e-06
0.000112895
-1.41611e-06
0.000113015
-1.46115e-06
0.000113125
-1.50398e-06
0.000113226
-1.54478e-06
0.000113318
-1.58365e-06
0.0001134
-1.62058e-06
0.000113473
-1.65546e-06
0.000113537
-1.68811e-06
0.000113593
-1.71827e-06
0.00011364
-1.74566e-06
0.00011368
-1.76993e-06
0.000113711
-1.79075e-06
-1.80769e-06
0.000113736
0.000112041
-2.45277e-08
0.000112146
-7.56786e-08
0.000112306
-1.40011e-07
0.000112508
-2.22416e-07
0.000112737
-3.20378e-07
0.000112984
-4.28875e-07
0.000113238
-5.42631e-07
0.000113495
-6.56773e-07
0.000113749
-7.67372e-07
0.000113997
-8.71723e-07
0.000114236
-9.68244e-07
0.000114466
-1.05625e-06
0.000114686
-1.13573e-06
0.000114894
-1.20712e-06
0.000115092
-1.27114e-06
0.000115278
-1.32866e-06
0.000115453
-1.38055e-06
0.000115616
-1.4277e-06
0.000115769
-1.47087e-06
0.000115912
-1.51076e-06
0.000116043
-1.5479e-06
0.000116165
-1.58275e-06
0.000116277
-1.6156e-06
0.000116378
-1.64666e-06
0.000116471
-1.67601e-06
0.000116554
-1.70366e-06
0.000116628
-1.72951e-06
0.000116693
-1.75342e-06
0.00011675
-1.77516e-06
0.000116799
-1.79451e-06
0.00011684
-1.81119e-06
0.000116875
-1.82496e-06
-1.83545e-06
0.000116902
0.00011524
-5.9827e-08
0.000115341
-1.77077e-07
0.000115498
-2.96445e-07
0.000115696
-4.2073e-07
0.000115924
-5.48264e-07
0.000116171
-6.75792e-07
0.000116428
-7.99943e-07
0.000116689
-9.17738e-07
0.000116949
-1.02694e-06
0.000117203
-1.12622e-06
0.00011745
-1.21506e-06
0.000117687
-1.29361e-06
0.000117914
-1.36245e-06
0.000118129
-1.4225e-06
0.000118333
-1.47479e-06
0.000118525
-1.52042e-06
0.000118705
-1.56046e-06
0.000118873
-1.59587e-06
0.000119029
-1.62752e-06
0.000119175
-1.65613e-06
0.000119309
-1.68229e-06
0.000119433
-1.70644e-06
0.000119546
-1.72891e-06
0.000119649
-1.74991e-06
0.000119743
-1.76953e-06
0.000119827
-1.78778e-06
0.000119902
-1.8046e-06
0.000119969
-1.81987e-06
0.000120027
-1.83341e-06
0.000120077
-1.84504e-06
0.000120121
-1.85455e-06
0.000120158
-1.86176e-06
-1.86639e-06
0.000120189
0.000118531
-9.47306e-08
0.000118631
-2.77516e-07
0.000118787
-4.52206e-07
0.000118986
-6.19595e-07
0.000119216
-7.7847e-07
0.000119467
-9.26934e-07
0.00011973
-1.06324e-06
0.000119999
-1.18612e-06
0.000120267
-1.29493e-06
0.00012053
-1.38971e-06
0.000120786
-1.47106e-06
0.000121033
-1.54e-06
0.000121268
-1.59782e-06
0.000121492
-1.64594e-06
0.000121703
-1.6858e-06
0.000121901
-1.71878e-06
0.000122087
-1.74615e-06
0.00012226
-1.76904e-06
0.000122421
-1.78841e-06
0.00012257
-1.80504e-06
0.000122707
-1.81958e-06
0.000122833
-1.83249e-06
0.000122948
-1.84412e-06
0.000123053
-1.8547e-06
0.000123148
-1.86432e-06
0.000123233
-1.87303e-06
0.000123309
-1.88077e-06
0.000123377
-1.88744e-06
0.000123436
-1.89291e-06
0.000123488
-1.89703e-06
0.000123533
-1.89961e-06
0.000123572
-1.90054e-06
-1.89955e-06
0.000123605
0.000121917
-1.30105e-07
0.000122019
-3.79426e-07
0.000122177
-6.10731e-07
0.00012238
-8.22837e-07
0.000122617
-1.01477e-06
0.000122875
-1.18578e-06
0.000123148
-1.33557e-06
0.000123426
-1.4645e-06
0.000123705
-1.57351e-06
0.000123979
-1.664e-06
0.000124246
-1.73774e-06
0.000124502
-1.7967e-06
0.000124748
-1.8429e-06
0.00012498
-1.87836e-06
0.000125199
-1.90495e-06
0.000125405
-1.9244e-06
0.000125597
-1.93822e-06
0.000125775
-1.94772e-06
0.000125941
-1.95398e-06
0.000126094
-1.95788e-06
0.000126234
-1.96012e-06
0.000126363
-1.9612e-06
0.000126481
-1.9615e-06
0.000126587
-1.96126e-06
0.000126683
-1.96059e-06
0.00012677
-1.95956e-06
0.000126847
-1.95811e-06
0.000126916
-1.95619e-06
0.000126977
-1.95366e-06
0.00012703
-1.95042e-06
0.000127077
-1.9463e-06
0.000127118
-1.94124e-06
-1.935e-06
0.000127153
0.0001254
-1.66956e-07
0.000125507
-4.85648e-07
0.000125672
-7.76224e-07
0.000125885
-1.03548e-06
0.000126132
-1.26258e-06
0.000126404
-1.45776e-06
0.000126691
-1.62214e-06
0.000126984
-1.75771e-06
0.000127278
-1.86699e-06
0.000127567
-1.95285e-06
0.000127847
-2.01831e-06
0.000128117
-2.06636e-06
0.000128374
-2.09986e-06
0.000128617
-2.12148e-06
0.000128846
-2.13361e-06
0.000129059
-2.13833e-06
0.000129259
-2.13746e-06
0.000129443
-2.13248e-06
0.000129614
-2.12464e-06
0.000129771
-2.11492e-06
0.000129915
-2.10406e-06
0.000130047
-2.09263e-06
0.000130166
-2.08103e-06
0.000130274
-2.0695e-06
0.000130372
-2.05819e-06
0.000130459
-2.04715e-06
0.000130538
-2.03636e-06
0.000130607
-2.02575e-06
0.000130669
-2.0152e-06
0.000130723
-2.0046e-06
0.000130771
-1.99382e-06
0.000130812
-1.98275e-06
-1.97116e-06
0.000130848
0.000128984
-2.06244e-07
0.000129098
-5.9894e-07
0.000129274
-9.52558e-07
0.0001295
-1.26181e-06
0.000129764
-1.52611e-06
0.000130053
-1.74682e-06
0.000130357
-1.92654e-06
0.000130669
-2.06894e-06
0.00013098
-2.17825e-06
0.000131286
-2.25887e-06
0.000131583
-2.31513e-06
0.000131867
-2.35113e-06
0.000132138
-2.37065e-06
0.000132394
-2.37706e-06
0.000132633
-2.37331e-06
0.000132857
-2.36193e-06
0.000133065
-2.34502e-06
0.000133256
-2.32433e-06
0.000133433
-2.30124e-06
0.000133595
-2.27685e-06
0.000133743
-2.25198e-06
0.000133878
-2.22725e-06
0.000134
-2.20306e-06
0.00013411
-2.1797e-06
0.000134209
-2.15731e-06
0.000134298
-2.13593e-06
0.000134377
-2.11555e-06
0.000134447
-2.09608e-06
0.000134509
-2.07744e-06
0.000134564
-2.05949e-06
0.000134613
-2.04209e-06
0.000134655
-2.02518e-06
-2.0085e-06
0.000134692
0.000132672
-2.49664e-07
0.000132797
-7.23935e-07
0.000132992
-1.14671e-06
0.00013324
-1.51032e-06
0.000133529
-1.81458e-06
0.000133844
-2.06213e-06
0.000134175
-2.2573e-06
0.000134512
-2.40575e-06
0.000134847
-2.51369e-06
0.000135175
-2.58726e-06
0.000135493
-2.6323e-06
0.000135796
-2.65415e-06
0.000136082
-2.65758e-06
0.000136352
-2.64675e-06
0.000136604
-2.62521e-06
0.000136838
-2.59592e-06
0.000137054
-2.56134e-06
0.000137253
-2.52343e-06
0.000137436
-2.48376e-06
0.000137603
-2.44353e-06
0.000137754
-2.40362e-06
0.000137892
-2.3647e-06
0.000138016
-2.32719e-06
0.000138128
-2.29137e-06
0.000138228
-2.25738e-06
0.000138317
-2.22526e-06
0.000138396
-2.19497e-06
0.000138467
-2.16641e-06
0.000138529
-2.13947e-06
0.000138583
-2.11399e-06
0.000138631
-2.08981e-06
0.000138673
-2.0668e-06
-2.04466e-06
0.000138709
0.000136467
-2.98061e-07
0.000136606
-8.63529e-07
0.000136822
-1.36243e-06
0.000137097
-1.78492e-06
0.000137414
-2.13194e-06
0.00013776
-2.40782e-06
0.000138121
-2.61883e-06
0.000138488
-2.77283e-06
0.000138853
-2.87818e-06
0.000139208
-2.94294e-06
0.000139551
-2.97462e-06
0.000139877
-2.97994e-06
0.000140184
-2.96481e-06
0.000140471
-2.93426e-06
0.000140739
-2.89251e-06
0.000140986
-2.84306e-06
0.000141213
-2.78871e-06
0.000141421
-2.7317e-06
0.000141611
-2.67375e-06
0.000141784
-2.61618e-06
0.00014194
-2.55994e-06
0.000142081
-2.50571e-06
0.000142208
-2.45394e-06
0.000142322
-2.40488e-06
0.000142423
-2.35865e-06
0.000142513
-2.31526e-06
0.000142593
-2.27466e-06
0.000142663
-2.23671e-06
0.000142725
-2.20126e-06
0.000142779
-2.16814e-06
0.000142826
-2.13715e-06
0.000142867
-2.10815e-06
-2.08081e-06
0.000142904
0.000140374
-3.5608e-07
0.000140539
-1.02893e-06
0.000140792
-1.61561e-06
0.000141111
-2.10353e-06
0.000141475
-2.4958e-06
0.000141866
-2.79948e-06
0.000142272
-3.02385e-06
0.000142679
-3.1799e-06
0.000143079
-3.27874e-06
0.000143467
-3.33071e-06
0.000143837
-3.34515e-06
0.000144188
-3.33029e-06
0.000144516
-3.29321e-06
0.000144822
-3.23985e-06
0.000145104
-3.1751e-06
0.000145364
-3.10296e-06
0.000145602
-3.02658e-06
0.000145819
-2.94845e-06
0.000146016
-2.87045e-06
0.000146193
-2.79399e-06
0.000146354
-2.72008e-06
0.000146497
-2.64939e-06
0.000146626
-2.58236e-06
0.00014674
-2.51922e-06
0.000146841
-2.46006e-06
0.000146931
-2.40483e-06
0.00014701
-2.35343e-06
0.000147079
-2.30568e-06
0.000147139
-2.26138e-06
0.000147191
-2.22029e-06
0.000147236
-2.18215e-06
0.000147275
-2.14673e-06
-2.11362e-06
0.000147307
0.00014439
-4.21578e-07
0.00014458
-1.21909e-06
0.00014487
-1.9052e-06
0.000145233
-2.46651e-06
0.000145647
-2.90956e-06
0.000146091
-3.24401e-06
0.000146549
-3.48215e-06
0.000147008
-3.63859e-06
0.000147457
-3.72775e-06
0.000147889
-3.76275e-06
0.000148299
-3.75526e-06
0.000148684
-3.71538e-06
0.000149043
-3.6516e-06
0.000149374
-3.57094e-06
0.000149678
-3.47907e-06
0.000149955
-3.38053e-06
0.000150208
-3.27886e-06
0.000150436
-3.17677e-06
0.000150642
-3.07627e-06
0.000150827
-2.97884e-06
0.000150992
-2.88547e-06
0.000151139
-2.79684e-06
0.00015127
-2.71332e-06
0.000151386
-2.63507e-06
0.000151488
-2.56212e-06
0.000151578
-2.49435e-06
0.000151656
-2.4316e-06
0.000151724
-2.37363e-06
0.000151783
-2.32016e-06
0.000151833
-2.27092e-06
0.000151877
-2.22559e-06
0.000151914
-2.18393e-06
-2.14543e-06
0.000151946
0.00014854
-5.13912e-07
0.000148792
-1.47059e-06
0.00014916
-2.27378e-06
0.000149606
-2.91214e-06
0.000150099
-3.40224e-06
0.000150615
-3.76029e-06
0.000151137
-4.00415e-06
0.000151652
-4.15337e-06
0.00015215
-4.22594e-06
0.000152625
-4.23777e-06
0.000153072
-4.20278e-06
0.00015349
-4.13282e-06
0.000153876
-4.03774e-06
0.000154231
-3.92556e-06
0.000154554
-3.80272e-06
0.000154848
-3.67428e-06
0.000155113
-3.54414e-06
0.000155352
-3.41524e-06
0.000155565
-3.28972e-06
0.000155756
-3.16907e-06
0.000155924
-3.05431e-06
0.000156074
-2.94603e-06
0.000156205
-2.84455e-06
0.00015632
-2.74994e-06
0.00015642
-2.66212e-06
0.000156506
-2.5809e-06
0.000156581
-2.506e-06
0.000156644
-2.43711e-06
0.000156698
-2.37387e-06
0.000156743
-2.31591e-06
0.00015678
-2.26284e-06
0.00015681
-2.21429e-06
-2.16963e-06
0.000156835
0.000152784
-6.08638e-07
0.000153071
-1.75803e-06
0.000153501
-2.70341e-06
0.000154029
-3.44034e-06
0.000154619
-3.99199e-06
0.000155237
-4.3786e-06
0.000155859
-4.62554e-06
0.000156465
-4.76012e-06
0.000157045
-4.80607e-06
0.000157591
-4.78359e-06
0.000158098
-4.70993e-06
0.000158565
-4.59934e-06
0.000158991
-4.46336e-06
0.000159376
-4.31119e-06
0.000159724
-4.15005e-06
0.000160035
-3.98546e-06
0.000160312
-3.8216e-06
0.000160558
-3.6615e-06
0.000160776
-3.50731e-06
0.000160967
-3.36048e-06
0.000161135
-3.22189e-06
0.000161281
-3.092e-06
0.000161407
-2.97097e-06
0.000161516
-2.85872e-06
0.000161609
-2.755e-06
0.000161688
-2.6595e-06
0.000161753
-2.57181e-06
0.000161808
-2.4915e-06
0.000161852
-2.41816e-06
0.000161888
-2.35135e-06
0.000161915
-2.29063e-06
0.000161937
-2.23564e-06
-2.18561e-06
0.000161953
0.000157245
-8.02273e-07
0.000157693
-2.2059e-06
0.000158281
-3.29132e-06
0.000158942
-4.1016e-06
0.000159641
-4.69105e-06
0.00016035
-5.08724e-06
0.000161047
-5.32292e-06
0.000161719
-5.43159e-06
0.000162354
-5.44112e-06
0.000162946
-5.37541e-06
0.00016349
-5.25484e-06
0.000163987
-5.09608e-06
0.000164436
-4.91245e-06
0.00016484
-4.7144e-06
0.000165199
-4.50995e-06
0.000165519
-4.30512e-06
0.000165802
-4.10428e-06
0.000166051
-3.91052e-06
0.000166269
-3.72591e-06
0.000166461
-3.55171e-06
0.000166627
-3.3886e-06
0.000166772
-3.23681e-06
0.000166897
-3.09625e-06
0.000167005
-2.9666e-06
0.000167098
-2.84742e-06
0.000167176
-2.73816e-06
0.000167243
-2.63826e-06
0.000167298
-2.54715e-06
0.000167345
-2.4643e-06
0.000167382
-2.38922e-06
0.000167413
-2.32146e-06
0.000167438
-2.26061e-06
-2.20586e-06
0.000167459
0.000161691
-9.55133e-07
0.000162211
-2.726e-06
0.000162947
-4.02698e-06
0.000163805
-4.95975e-06
0.00016471
-5.59543e-06
0.000165604
-5.98182e-06
0.00016646
-6.17907e-06
0.000167265
-6.23675e-06
0.000168015
-6.19053e-06
0.000168708
-6.06893e-06
0.000169348
-5.89477e-06
0.000169938
-5.68563e-06
0.000170481
-5.45509e-06
0.00017098
-5.21352e-06
0.000171438
-4.96874e-06
0.00017186
-4.72654e-06
0.000172247
-4.49111e-06
0.000172602
-4.26538e-06
0.000172927
-4.05128e-06
0.000173225
-3.84995e-06
0.000173499
-3.66195e-06
0.000173749
-3.48737e-06
0.000173979
-3.32598e-06
0.00017419
-3.17731e-06
0.000174383
-3.04078e-06
0.00017456
-2.91569e-06
0.000174724
-2.80135e-06
0.000174873
-2.69712e-06
0.000175012
-2.60244e-06
0.000175139
-2.51684e-06
0.000175258
-2.44021e-06
0.00017537
-2.37216e-06
-2.31302e-06
0.000175477
0.000166689
-1.49024e-06
0.000167544
-3.58113e-06
0.000168483
-4.96575e-06
0.000169497
-5.97436e-06
0.00017059
-6.68777e-06
0.00017174
-7.13228e-06
0.00017293
-7.36885e-06
0.000174137
-7.44365e-06
0.000175337
-7.39066e-06
0.000176509
-7.24097e-06
0.000177635
-7.02136e-06
0.000178704