/*--------------------------------*- C++ -*----------------------------------*\
  =========                 |
  \\      /  F ield         | OpenFOAM: The Open Source CFD Toolbox
   \\    /   O peration     | Website:  https://openfoam.org
    \\  /    A nd           | Version:  10
     \\/     M anipulation  |
\*---------------------------------------------------------------------------*/
FoamFile
{
    format      ascii;
    class       volVectorField;
    location    "0.135";
    object      U;
}
// * * * * * * * * * * * * * * * * * * * * * * * * * * * * * * * * * * * * * //

dimensions      [0 1 -1 0 0 0 0];

internalField   nonuniform List<vector> 
6820
(
(5.57362 0.45913 0)
(3.88329 0.245892 0)
(2.58994 0.00876521 0)
(1.95854 -0.064236 0)
(1.7338 -0.0595623 0)
(1.62339 -0.0341112 0)
(1.55926 -0.0154571 0)
(1.51425 -0.00539232 0)
(1.47671 -0.000807873 0)
(1.44452 0.000683245 0)
(1.41717 0.000720147 0)
(1.39419 0.000187709 0)
(1.37515 -0.000505689 0)
(1.35955 -0.00117997 0)
(1.34696 -0.00176619 0)
(1.33702 -0.00224949 0)
(1.32945 -0.00263891 0)
(1.32403 -0.00294941 0)
(1.3206 -0.00320017 0)
(1.31912 -0.00337076 0)
(1.3195 -0.00362495 0)
(1.32169 -0.00387176 0)
(1.32576 -0.00415654 0)
(1.33171 -0.00432555 0)
(1.33962 -0.00452988 0)
(1.34963 -0.00479081 0)
(1.36181 -0.00512185 0)
(1.37651 -0.00546214 0)
(1.39329 -0.00591993 0)
(1.41409 -0.00594531 0)
(1.43328 -0.00689481 0)
(1.46689 -0.00047848 0)
(1.45771 -0.0244791 0)
(7.66981 0.863825 0)
(7.71754 0.890619 0)
(7.00101 0.598165 0)
(6.1994 0.347186 0)
(5.58717 0.179193 0)
(5.14378 0.0926169 0)
(4.82821 0.0521722 0)
(4.60106 0.0335991 0)
(4.43133 0.0250274 0)
(4.2998 0.0205956 0)
(4.19478 0.0178283 0)
(4.10899 0.0157808 0)
(4.03778 0.0140739 0)
(3.97807 0.0125377 0)
(3.92772 0.0110821 0)
(3.88519 0.00965542 0)
(3.84938 0.00822591 0)
(3.81945 0.00677294 0)
(3.79477 0.00527415 0)
(3.77488 0.00372878 0)
(3.75942 0.00207933 0)
(3.74815 0.000327279 0)
(3.741 -0.0014721 0)
(3.73786 -0.00358121 0)
(3.73864 -0.00583077 0)
(3.7434 -0.00822703 0)
(3.75223 -0.0108782 0)
(3.76532 -0.0137468 0)
(3.78275 -0.0170814 0)
(3.80515 -0.0202185 0)
(3.83195 -0.0249123 0)
(3.86732 -0.0259509 0)
(3.90772 -0.0339183 0)
(7.56352 0.520204 0)
(8.22526 0.663231 0)
(8.46528 0.575617 0)
(8.36519 0.457883 0)
(8.13062 0.343669 0)
(7.85536 0.258677 0)
(7.58716 0.198907 0)
(7.34578 0.155949 0)
(7.13452 0.124627 0)
(6.95143 0.10124 0)
(6.79326 0.0832891 0)
(6.65666 0.0691839 0)
(6.53858 0.0578697 0)
(6.43639 0.0486222 0)
(6.3479 0.0409132 0)
(6.2713 0.0343429 0)
(6.20508 0.0286061 0)
(6.148 0.0234682 0)
(6.09906 0.0187452 0)
(6.05744 0.0142846 0)
(6.02248 0.00999516 0)
(5.99369 0.00575064 0)
(5.97063 0.00149557 0)
(5.95293 -0.00298145 0)
(5.94049 -0.00769121 0)
(5.93331 -0.0126942 0)
(5.93133 -0.0181226 0)
(5.93461 -0.0239782 0)
(5.94314 -0.0304164 0)
(5.95719 -0.0372262 0)
(5.9767 -0.0452694 0)
(6.00224 -0.0527516 0)
(6.03357 -0.0649146 0)
(7.43338 0.340978 0)
(7.88472 0.514142 0)
(8.24352 0.488984 0)
(8.44232 0.428915 0)
(8.54245 0.35746 0)
(8.57327 0.296673 0)
(8.55936 0.250387 0)
(8.52031 0.214708 0)
(8.46714 0.186607 0)
(8.40627 0.163802 0)
(8.34187 0.144685 0)
(8.2767 0.128278 0)
(8.21254 0.113941 0)
(8.15074 0.101217 0)
(8.09214 0.0897916 0)
(8.03726 0.0794242 0)
(7.98641 0.0699115 0)
(7.93976 0.0610757 0)
(7.89737 0.0527583 0)
(7.85925 0.0448199 0)
(7.82539 0.0371301 0)
(7.79575 0.029558 0)
(7.77027 0.0219566 0)
(7.74895 0.0142956 0)
(7.73177 0.00638625 0)
(7.71857 -0.00194543 0)
(7.70938 -0.0107805 0)
(7.70432 -0.02023 0)
(7.70342 -0.0304585 0)
(7.70689 -0.0414156 0)
(7.71483 -0.0535609 0)
(7.72747 -0.0661414 0)
(7.74586 -0.0803297 0)
(7.39683 0.250907 0)
(7.68006 0.420681 0)
(7.92358 0.403362 0)
(8.07768 0.353133 0)
(8.18832 0.298166 0)
(8.27081 0.252254 0)
(8.33198 0.218072 0)
(8.37921 0.191938 0)
(8.41648 0.171088 0)
(8.44587 0.153852 0)
(8.46895 0.139116 0)
(8.48695 0.126191 0)
(8.50089 0.114643 0)
(8.51134 0.104157 0)
(8.51895 0.0944854 0)
(8.52432 0.0854336 0)
(8.52798 0.0768414 0)
(8.53041 0.0685732 0)
(8.53199 0.0605093 0)
(8.53308 0.0525407 0)
(8.534 0.0445677 0)
(8.535 0.0364868 0)
(8.53631 0.0282018 0)
(8.53813 0.0196227 0)
(8.54064 0.0106252 0)
(8.54397 0.00112845 0)
(8.54801 -0.00892659 0)
(8.55282 -0.019713 0)
(8.5585 -0.0314113 0)
(8.56521 -0.0440888 0)
(8.57303 -0.0580292 0)
(8.58226 -0.0730445 0)
(8.59325 -0.0897512 0)
(7.37403 0.180548 0)
(7.5742 0.335713 0)
(7.76108 0.341646 0)
(7.8758 0.312207 0)
(7.95229 0.272784 0)
(8.008 0.234373 0)
(8.04983 0.202763 0)
(8.08445 0.177407 0)
(8.1153 0.156815 0)
(8.14354 0.139828 0)
(8.16974 0.125473 0)
(8.19421 0.113024 0)
(8.21713 0.102001 0)
(8.23872 0.0920725 0)
(8.25912 0.0829614 0)
(8.27841 0.0744495 0)
(8.29665 0.0663636 0)
(8.31391 0.0585602 0)
(8.33027 0.0509151 0)
(8.34579 0.0433167 0)
(8.36054 0.0356616 0)
(8.37456 0.0278482 0)
(8.38792 0.0197732 0)
(8.40065 0.0113528 0)
(8.41281 0.00248812 0)
(8.42444 -0.00688258 0)
(8.43575 -0.0168937 0)
(8.44679 -0.0276689 0)
(8.45759 -0.03937 0)
(8.46821 -0.0521144 0)
(8.47864 -0.0661403 0)
(8.48911 -0.0815219 0)
(8.4997 -0.098731 0)
(7.35906 0.132612 0)
(7.50338 0.272713 0)
(7.65591 0.294273 0)
(7.75614 0.277247 0)
(7.82254 0.247415 0)
(7.86985 0.215246 0)
(7.90369 0.187286 0)
(7.9298 0.164266 0)
(7.95187 0.145189 0)
(7.97153 0.129167 0)
(7.98962 0.115447 0)
(8.00669 0.103443 0)
(8.023 0.0927387 0)
(8.03873 0.0830231 0)
(8.05396 0.0740637 0)
(8.06877 0.0656763 0)
(8.08321 0.0577066 0)
(8.09729 0.0500206 0)
(8.11104 0.0424988 0)
(8.12446 0.0350317 0)
(8.13757 0.0275178 0)
(8.15036 0.0198574 0)
(8.16284 0.0119553 0)
(8.17501 0.00371376 0)
(8.18688 -0.00495444 0)
(8.19852 -0.0141894 0)
(8.20991 -0.0241298 0)
(8.22105 -0.0348712 0)
(8.23193 -0.0465486 0)
(8.24257 -0.0592985 0)
(8.25296 -0.0733472 0)
(8.26319 -0.088899 0)
(8.27323 -0.106423 0)
(7.34965 0.0988971 0)
(7.45349 0.220061 0)
(7.57668 0.249584 0)
(7.66558 0.24257 0)
(7.72764 0.222613 0)
(7.77369 0.198163 0)
(7.80751 0.174998 0)
(7.83341 0.154745 0)
(7.85478 0.137184 0)
(7.87331 0.121935 0)
(7.88993 0.10859 0)
(7.90528 0.0967531 0)
(7.91973 0.0861021 0)
(7.93352 0.0763863 0)
(7.94681 0.0674007 0)
(7.95969 0.0589698 0)
(7.97225 0.0509425 0)
(7.98454 0.0431868 0)
(7.99659 0.0355853 0)
(8.00845 0.0280306 0)
(8.02012 0.0204225 0)
(8.03163 0.0126638 0)
(8.04297 0.0046578 0)
(8.05417 -0.00369764 0)
(8.0652 -0.012502 0)
(8.07604 -0.0218645 0)
(8.08669 -0.0318925 0)
(8.0971 -0.042687 0)
(8.10727 -0.0543842 0)
(8.11716 -0.0671375 0)
(8.12673 -0.0811625 0)
(8.13595 -0.0967115 0)
(8.14472 -0.114152 0)
(7.34382 0.0749224 0)
(7.41926 0.178054 0)
(7.51819 0.212062 0)
(7.59575 0.212614 0)
(7.65249 0.199724 0)
(7.69624 0.180732 0)
(7.72969 0.161023 0)
(7.75595 0.142928 0)
(7.77782 0.126794 0)
(7.79681 0.112514 0)
(7.81381 0.0998491 0)
(7.82941 0.088505 0)
(7.84401 0.0782164 0)
(7.85783 0.0687644 0)
(7.87106 0.0599648 0)
(7.88382 0.0516595 0)
(7.89619 0.0437123 0)
(7.90823 0.0360032 0)
(7.92 0.0284238 0)
(7.93152 0.0208736 0)
(7.94282 0.0132576 0)
(7.95391 0.00548424 0)
(7.9648 -0.00253911 0)
(7.97549 -0.0108982 0)
(7.98597 -0.0196943 0)
(7.99622 -0.0290205 0)
(8.00622 -0.0389846 0)
(8.01591 -0.0496981 0)
(8.02526 -0.0612898 0)
(8.03421 -0.0739048 0)
(8.04268 -0.0877302 0)
(8.05055 -0.103 0)
(8.05765 -0.11997 0)
(7.34017 0.0576596 0)
(7.39558 0.144322 0)
(7.47484 0.179377 0)
(7.54192 0.184861 0)
(7.59341 0.177271 0)
(7.63453 0.16309 0)
(7.66712 0.146968 0)
(7.69328 0.131356 0)
(7.71525 0.11691 0)
(7.7344 0.103744 0)
(7.75155 0.0917981 0)
(7.76727 0.0809173 0)
(7.78193 0.0709247 0)
(7.7958 0.0616581 0)
(7.80903 0.0529712 0)
(7.82176 0.0447311 0)
(7.83406 0.0368169 0)
(7.846 0.0291184 0)
(7.85762 0.0215337 0)
(7.86895 0.0139675 0)
(7.88002 0.00632898 0)
(7.89083 -0.00146957 0)
(7.90138 -0.00951446 0)
(7.91168 -0.0178902 0)
(7.92171 -0.0266875 0)
(7.93145 -0.0359972 0)
(7.94085 -0.0459161 0)
(7.94987 -0.0565425 0)
(7.95844 -0.067986 0)
(7.96649 -0.0803713 0)
(7.97391 -0.0938475 0)
(7.9805 -0.108601 0)
(7.98608 -0.12478 0)
(7.33789 0.0449881 0)
(7.3791 0.117179 0)
(7.44264 0.151252 0)
(7.50039 0.160056 0)
(7.54687 0.156529 0)
(7.58522 0.146219 0)
(7.61659 0.133049 0)
(7.64235 0.119462 0)
(7.66424 0.106392 0)
(7.68345 0.0941592 0)
(7.7007 0.0828547 0)
(7.71652 0.0724267 0)
(7.73126 0.0627627 0)
(7.74517 0.0537392 0)
(7.75842 0.045234 0)
(7.77111 0.0371304 0)
(7.78335 0.0293188 0)
(7.79519 0.021698 0)
(7.80666 0.0141734 0)
(7.81781 0.00665602 0)
(7.82865 -0.000938831 0)
(7.83919 -0.00869271 0)
(7.84943 -0.0166856 0)
(7.85936 -0.0249961 0)
(7.86896 -0.0337051 0)
(7.87821 -0.0428934 0)
(7.88704 -0.052644 0)
(7.89542 -0.0630426 0)
(7.90326 -0.0741813 0)
(7.91045 -0.0861602 0)
(7.91688 -0.0990865 0)
(7.92233 -0.113088 0)
(7.92661 -0.128221 0)
(7.33643 0.0355031 0)
(7.36752 0.0952747 0)
(7.41858 0.127036 0)
(7.46809 0.137665 0)
(7.50983 0.136951 0)
(7.54539 0.129614 0)
(7.57539 0.118964 0)
(7.60061 0.10729 0)
(7.62236 0.0956424 0)
(7.64159 0.0844526 0)
(7.65893 0.0739014 0)
(7.67485 0.0640159 0)
(7.68967 0.0547435 0)
(7.70363 0.0460027 0)
(7.71689 0.0377022 0)
(7.72957 0.0297476 0)
(7.74175 0.0220463 0)
(7.7535 0.0145094 0)
(7.76484 0.00705191 0)
(7.77582 -0.000407622 0)
(7.78644 -0.00794729 0)
(7.79672 -0.0156422 0)
(7.80665 -0.0235654 0)
(7.81622 -0.0317883 0)
(7.8254 -0.0403819 0)
(7.83415 -0.0494167 0)
(7.84244 -0.0589627 0)
(7.85019 -0.0690894 0)
(7.85733 -0.0798665 0)
(7.86374 -0.0913633 0)
(7.86929 -0.103644 0)
(7.87376 -0.116778 0)
(7.877 -0.130752 0)
(7.33549 0.0282514 0)
(7.3593 0.0774846 0)
(7.40051 0.106179 0)
(7.44286 0.117543 0)
(7.48023 0.118743 0)
(7.51306 0.113695 0)
(7.54154 0.105139 0)
(7.56606 0.0951147 0)
(7.58751 0.0847058 0)
(7.60666 0.0744271 0)
(7.62403 0.0645371 0)
(7.64001 0.0551339 0)
(7.6549 0.0462188 0)
(7.66893 0.0377483 0)
(7.68222 0.0296567 0)
(7.69491 0.0218684 0)
(7.70705 0.0143038 0)
(7.71873 0.00688377 0)
(7.72996 -0.000468885 0)
(7.74078 -0.00782838 0)
(7.75121 -0.0152659 0)
(7.76124 -0.0228499 0)
(7.77088 -0.0306462 0)
(7.7801 -0.0387181 0)
(7.78888 -0.0471268 0)
(7.79718 -0.055931 0)
(7.80496 -0.065186 0)
(7.81214 -0.0749439 0)
(7.81864 -0.0852518 0)
(7.82436 -0.0961509 0)
(7.82916 -0.107668 0)
(7.83285 -0.119825 0)
(7.8353 -0.132557 0)
(7.33487 0.0225872 0)
(7.35339 0.0629244 0)
(7.38686 0.0881934 0)
(7.42309 0.099457 0)
(7.45645 0.101793 0)
(7.48664 0.0983748 0)
(7.51355 0.0914589 0)
(7.53725 0.0828241 0)
(7.55831 0.0735276 0)
(7.5773 0.064123 0)
(7.59465 0.0549109 0)
(7.61067 0.0460327 0)
(7.62562 0.0375276 0)
(7.63969 0.0293806 0)
(7.65302 0.0215482 0)
(7.6657 0.0139719 0)
(7.67782 0.0065857 0)
(7.68942 -0.000678603 0)
(7.70054 -0.00788901 0)
(7.71121 -0.0151118 0)
(7.72144 -0.0224106 0)
(7.73124 -0.0298464 0)
(7.74059 -0.0374772 0)
(7.74947 -0.0453573 0)
(7.75788 -0.0535376 0)
(7.76575 -0.0620649 0)
(7.77305 -0.0709804 0)
(7.77971 -0.0803194 0)
(7.78565 -0.0901079 0)
(7.79077 -0.100362 0)
(7.79496 -0.111076 0)
(7.79805 -0.122235 0)
(7.79994 -0.133743 0)
(7.33444 0.0180691 0)
(7.34909 0.0508921 0)
(7.37649 0.0726323 0)
(7.40753 0.0831877 0)
(7.43729 0.0860512 0)
(7.46501 0.0837352 0)
(7.49034 0.0780788 0)
(7.51314 0.0705935 0)
(7.53372 0.0622595 0)
(7.55248 0.0536331 0)
(7.56974 0.0450366 0)
(7.58575 0.0366419 0)
(7.60072 0.0285194 0)
(7.61482 0.02068 0)
(7.62816 0.0131007 0)
(7.64084 0.00573875 0)
(7.65292 -0.00145932 0)
(7.66445 -0.00855166 0)
(7.67547 -0.0155978 0)
(7.68599 -0.0226564 0)
(7.69604 -0.0297842 0)
(7.70561 -0.0370349 0)
(7.71469 -0.0444587 0)
(7.72327 -0.0521014 0)
(7.73132 -0.0600041 0)
(7.7388 -0.0682021 0)
(7.74568 -0.0767235 0)
(7.75189 -0.0855878 0)
(7.75735 -0.0948032 0)
(7.76199 -0.104364 0)
(7.7657 -0.114244 0)
(7.76836 -0.124399 0)
(7.76989 -0.134719 0)
(7.33414 0.0143912 0)
(7.34592 0.0408376 0)
(7.36857 0.0591035 0)
(7.39527 0.068523 0)
(7.42183 0.0714272 0)
(7.44727 0.0697573 0)
(7.47105 0.0649967 0)
(7.49291 0.0584083 0)
(7.51295 0.0508739 0)
(7.53142 0.0429305 0)
(7.54855 0.0349044 0)
(7.56451 0.0269832 0)
(7.57948 0.0192566 0)
(7.59359 0.0117528 0)
(7.60694 0.00446345 0)
(7.61961 -0.00264204 0)
(7.63165 -0.00960692 0)
(7.64311 -0.0164807 0)
(7.65403 -0.0233153 0)
(7.66441 -0.0301624 0)
(7.67428 -0.0370716 0)
(7.68363 -0.0440894 0)
(7.69246 -0.0512583 0)
(7.70075 -0.0586158 0)
(7.70847 -0.0661938 0)
(7.71561 -0.0740168 0)
(7.72211 -0.0821013 0)
(7.72792 -0.0904538 0)
(7.73299 -0.0990678 0)
(7.73724 -0.107922 0)
(7.7406 -0.116974 0)
(7.74297 -0.126165 0)
(7.74432 -0.13538 0)
(7.33393 0.0113383 0)
(7.34356 0.0323302 0)
(7.3625 0.0472621 0)
(7.38559 0.055256 0)
(7.40936 0.0578201 0)
(7.43271 0.0564221 0)
(7.45504 0.052245 0)
(7.47596 0.0463281 0)
(7.49543 0.0394419 0)
(7.51357 0.0320835 0)
(7.53052 0.0245678 0)
(7.54641 0.017085 0)
(7.56135 0.00973506 0)
(7.57545 0.00255845 0)
(7.58879 -0.00444186 0)
(7.60143 -0.0112861 0)
(7.61343 -0.0180083 0)
(7.62482 -0.0246501 0)
(7.63564 -0.0312562 0)
(7.64589 -0.0378714 0)
(7.65559 -0.0445388 0)
(7.66474 -0.0512981 0)
(7.67333 -0.0581846 0)
(7.68136 -0.0652283 0)
(7.6888 -0.0724525 0)
(7.69562 -0.0798729 0)
(7.7018 -0.087496 0)
(7.70729 -0.0953179 0)
(7.71204 -0.103321 0)
(7.71601 -0.111475 0)
(7.71913 -0.119726 0)
(7.72134 -0.12801 0)
(7.72262 -0.136214 0)
(7.33377 0.00875585 0)
(7.34179 0.0250321 0)
(7.35782 0.0368092 0)
(7.37795 0.0431906 0)
(7.39931 0.0451203 0)
(7.42081 0.0436846 0)
(7.44179 0.0398154 0)
(7.4618 0.0343565 0)
(7.48069 0.0279653 0)
(7.49849 0.0210888 0)
(7.51524 0.0140204 0)
(7.53102 0.00694411 0)
(7.54592 -3.72057e-05 0)
(7.55999 -0.00687699 0)
(7.57331 -0.0135653 0)
(7.58593 -0.0201155 0)
(7.59789 -0.0265556 0)
(7.60921 -0.032921 0)
(7.61992 -0.039251 0)
(7.63004 -0.0455847 0)
(7.63959 -0.0519596 0)
(7.64855 -0.0584096 0)
(7.65693 -0.064964 0)
(7.66472 -0.071646 0)
(7.6719 -0.0784719 0)
(7.67846 -0.08545 0)
(7.68437 -0.0925794 0)
(7.68959 -0.0998483 0)
(7.6941 -0.107233 0)
(7.69785 -0.114695 0)
(7.70082 -0.12218 0)
(7.70296 -0.12962 0)
(7.70429 -0.136913 0)
(7.33365 0.00653017 0)
(7.34044 0.018677 0)
(7.35421 0.0274863 0)
(7.37193 0.032141 0)
(7.39125 0.0332103 0)
(7.41112 0.0314839 0)
(7.43089 0.0276866 0)
(7.45005 0.0224943 0)
(7.46839 0.016456 0)
(7.48583 0.00996158 0)
(7.50238 0.00327444 0)
(7.51805 -0.00343589 0)
(7.53289 -0.0100712 0)
(7.54694 -0.0165843 0)
(7.56024 -0.0229623 0)
(7.57283 -0.0292147 0)
(7.58474 -0.0353647 0)
(7.59599 -0.0414433 0)
(7.60662 -0.0474846 0)
(7.61662 -0.0535231 0)
(7.62602 -0.0595912 0)
(7.63481 -0.0657174 0)
(7.643 -0.0719257 0)
(7.65059 -0.0782335 0)
(7.65755 -0.0846515 0)
(7.66388 -0.0911823 0)
(7.66956 -0.0978192 0)
(7.67458 -0.104546 0)
(7.6789 -0.111334 0)
(7.68252 -0.118144 0)
(7.68541 -0.124921 0)
(7.68756 -0.131602 0)
(7.68899 -0.138096 0)
(7.33356 0.00457567 0)
(7.33942 0.0130528 0)
(7.35143 0.0190699 0)
(7.36721 0.0219319 0)
(7.38482 0.0219692 0)
(7.40331 0.0197466 0)
(7.42201 0.0158208 0)
(7.44041 0.0107262 0)
(7.45823 0.00491182 0)
(7.47535 -0.00129194 0)
(7.4917 -0.00765639 0)
(7.50726 -0.0140318 0)
(7.52204 -0.0203297 0)
(7.53606 -0.0265071 0)
(7.54934 -0.0325519 0)
(7.5619 -0.0384727 0)
(7.57376 -0.0442909 0)
(7.58496 -0.0500349 0)
(7.59549 -0.055736 0)
(7.60539 -0.0614254 0)
(7.61466 -0.0671318 0)
(7.6233 -0.0728803 0)
(7.63132 -0.0786906 0)
(7.63871 -0.0845762 0)
(7.64548 -0.0905436 0)
(7.65162 -0.0965915 0)
(7.65712 -0.10271 0)
(7.66197 -0.10888 0)
(7.66617 -0.115072 0)
(7.6697 -0.121248 0)
(7.67257 -0.127357 0)
(7.67477 -0.133341 0)
(7.67635 -0.139123 0)
(7.3335 0.00282601 0)
(7.33865 0.00798797 0)
(7.3493 0.0113652 0)
(7.36355 0.0123978 0)
(7.37977 0.0112705 0)
(7.3971 0.00838265 0)
(7.4149 0.00415604 0)
(7.43265 -0.000993721 0)
(7.45003 -0.00670808 0)
(7.46686 -0.0127162 0)
(7.48305 -0.0188275 0)
(7.49852 -0.0249169 0)
(7.51326 -0.0309105 0)
(7.52725 -0.0367735 0)
(7.54052 -0.0424981 0)
(7.55306 -0.0480946 0)
(7.5649 -0.0535843 0)
(7.57605 -0.0589947 0)
(7.58651 -0.0643552 0)
(7.59632 -0.0696945 0)
(7.60547 -0.0750387 0)
(7.61398 -0.0804097 0)
(7.62185 -0.0858242 0)
(7.62909 -0.0912926 0)
(7.6357 -0.0968185 0)
(7.64168 -0.102398 0)
(7.64704 -0.10802 0)
(7.65176 -0.113665 0)
(7.65587 -0.119304 0)
(7.65935 -0.124901 0)
(7.66223 -0.130411 0)
(7.66451 -0.135785 0)
(7.66625 -0.140957 0)
(7.33345 0.00122759 0)
(7.33807 0.00334007 0)
(7.3477 0.00420039 0)
(7.36076 0.00338198 0)
(7.37588 0.000987641 0)
(7.39229 -0.00270082 0)
(7.40936 -0.00736737 0)
(7.42658 -0.0126943 0)
(7.4436 -0.018403 0)
(7.4602 -0.0242794 0)
(7.47625 -0.030173 0)
(7.49166 -0.0359862 0)
(7.50637 -0.041664 0)
(7.52037 -0.0471836 0)
(7.53363 -0.0525454 0)
(7.54616 -0.0577646 0)
(7.55798 -0.0628656 0)
(7.56908 -0.0678772 0)
(7.57948 -0.0728292 0)
(7.58921 -0.0777499 0)
(7.59826 -0.0826644 0)
(7.60665 -0.0875932 0)
(7.61439 -0.0925514 0)
(7.62149 -0.0975478 0)
(7.62797 -0.102585 0)
(7.63382 -0.107658 0)
(7.63905 -0.112755 0)
(7.64369 -0.117858 0)
(7.64773 -0.122941 0)
(7.6512 -0.127972 0)
(7.65411 -0.132912 0)
(7.65648 -0.137721 0)
(7.65838 -0.142344 0)
(7.33341 -0.000263377 0)
(7.33765 -0.00101168 0)
(7.34653 -0.00258031 0)
(7.35872 -0.00527045 0)
(7.37302 -0.00901994 0)
(7.38873 -0.0136295 0)
(7.40526 -0.0188667 0)
(7.42209 -0.0244959 0)
(7.43887 -0.0303099 0)
(7.45534 -0.0361496 0)
(7.47133 -0.0419049 0)
(7.48673 -0.0475075 0)
(7.50146 -0.0529234 0)
(7.51549 -0.0581445 0)
(7.52878 -0.063181 0)
(7.54134 -0.0680549 0)
(7.55315 -0.0727947 0)
(7.56424 -0.0774318 0)
(7.5746 -0.0819974 0)
(7.58426 -0.0865202 0)
(7.59323 -0.0910251 0)
(7.60153 -0.0955322 0)
(7.60916 -0.100056 0)
(7.61615 -0.104604 0)
(7.62251 -0.109179 0)
(7.62825 -0.113777 0)
(7.6334 -0.118387 0)
(7.63796 -0.122992 0)
(7.64195 -0.127571 0)
(7.64541 -0.132095 0)
(7.64836 -0.136533 0)
(7.65082 -0.140853 0)
(7.65285 -0.14501 0)
(7.33338 -0.00168551 0)
(7.33737 -0.00517436 0)
(7.34574 -0.00911962 0)
(7.35732 -0.0137046 0)
(7.37105 -0.0188785 0)
(7.3863 -0.0244959 0)
(7.40247 -0.0303872 0)
(7.41907 -0.0363841 0)
(7.43571 -0.0423422 0)
(7.45212 -0.0481546 0)
(7.46811 -0.0537527 0)
(7.48355 -0.0591014 0)
(7.49834 -0.0641919 0)
(7.51243 -0.0690354 0)
(7.52577 -0.0736565 0)
(7.53836 -0.0780877 0)
(7.55019 -0.0823654 0)
(7.56127 -0.0865262 0)
(7.57161 -0.0906049 0)
(7.58122 -0.0946326 0)
(7.59012 -0.0986358 0)
(7.59834 -0.102635 0)
(7.60588 -0.106646 0)
(7.61277 -0.110676 0)
(7.61903 -0.11473 0)
(7.62468 -0.118803 0)
(7.62974 -0.122886 0)
(7.63424 -0.126967 0)
(7.63821 -0.131026 0)
(7.64166 -0.13504 0)
(7.64465 -0.138986 0)
(7.64719 -0.142837 0)
(7.64935 -0.146559 0)
(7.33337 -0.003075 0)
(7.3372 -0.00924992 0)
(7.34527 -0.0155632 0)
(7.35651 -0.0220895 0)
(7.36995 -0.0287751 0)
(7.38497 -0.0355125 0)
(7.40101 -0.0421837 0)
(7.41757 -0.048679 0)
(7.43424 -0.0549104 0)
(7.45074 -0.0608195 0)
(7.46686 -0.0663776 0)
(7.48244 -0.0715808 0)
(7.49737 -0.0764455 0)
(7.51158 -0.0810017 0)
(7.52503 -0.0852888 0)
(7.53771 -0.0893504 0)
(7.54959 -0.0932312 0)
(7.5607 -0.0969742 0)
(7.57104 -0.100619 0)
(7.58062 -0.1042 0)
(7.58947 -0.107746 0)
(7.59762 -0.11128 0)
(7.60508 -0.114818 0)
(7.61189 -0.118372 0)
(7.61806 -0.121945 0)
(7.62363 -0.125536 0)
(7.62862 -0.129139 0)
(7.63306 -0.132743 0)
(7.63699 -0.136334 0)
(7.64043 -0.139895 0)
(7.64343 -0.143405 0)
(7.64601 -0.146846 0)
(7.64824 -0.150189 0)
(7.33336 -0.0044659 0)
(7.33714 -0.0133336 0)
(7.34511 -0.022041 0)
(7.35625 -0.0305534 0)
(7.36962 -0.0387974 0)
(7.38465 -0.0466852 0)
(7.40075 -0.0541378 0)
(7.41742 -0.0610969 0)
(7.43426 -0.06753 0)
(7.45095 -0.0734307 0)
(7.46727 -0.078816 0)
(7.48305 -0.0837212 0)
(7.49817 -0.0881943 0)
(7.51256 -0.0922912 0)
(7.52615 -0.0960709 0)
(7.53894 -0.0995924 0)
(7.5509 -0.102912 0)
(7.56206 -0.106081 0)
(7.57241 -0.109145 0)
(7.58199 -0.112143 0)
(7.59081 -0.115108 0)
(7.59891 -0.118063 0)
(7.60631 -0.121029 0)
(7.61304 -0.124017 0)
(7.61914 -0.127033 0)
(7.62463 -0.130079 0)
(7.62956 -0.133149 0)
(7.63395 -0.136237 0)
(7.63784 -0.139331 0)
(7.64126 -0.142418 0)
(7.64427 -0.145483 0)
(7.64688 -0.148515 0)
(7.64917 -0.151488 0)
(7.33337 -0.00589519 0)
(7.33719 -0.0175374 0)
(7.34527 -0.0287366 0)
(7.35659 -0.0393582 0)
(7.37021 -0.0493127 0)
(7.38554 -0.0585314 0)
(7.40201 -0.0669698 0)
(7.41907 -0.0746136 0)
(7.43631 -0.0814761 0)
(7.45341 -0.087594 0)
(7.47012 -0.0930224 0)
(7.48625 -0.09783 0)
(7.50168 -0.102094 0)
(7.51632 -0.105893 0)
(7.53013 -0.109307 0)
(7.54308 -0.112411 0)
(7.55517 -0.115275 0)
(7.5664 -0.11796 0)
(7.57679 -0.120522 0)
(7.58638 -0.123005 0)
(7.59517 -0.125447 0)
(7.60322 -0.127879 0)
(7.61056 -0.130321 0)
(7.61721 -0.132789 0)
(7.62323 -0.135292 0)
(7.62864 -0.137834 0)
(7.63348 -0.140413 0)
(7.6378 -0.143026 0)
(7.64163 -0.145664 0)
(7.645 -0.148319 0)
(7.64797 -0.150977 0)
(7.65056 -0.153632 0)
(7.65284 -0.156261 0)
(7.33338 -0.00740098 0)
(7.33734 -0.0219564 0)
(7.34572 -0.0357481 0)
(7.35744 -0.0485197 0)
(7.37152 -0.060149 0)
(7.38737 -0.0705784 0)
(7.40438 -0.0798031 0)
(7.422 -0.0878676 0)
(7.43979 -0.0948507 0)
(7.45741 -0.100851 0)
(7.47461 -0.105981 0)
(7.49118 -0.110353 0)
(7.50701 -0.114084 0)
(7.52199 -0.117282 0)
(7.53609 -0.120051 0)
(7.54927 -0.122482 0)
(7.56153 -0.124659 0)
(7.57289 -0.126653 0)
(7.58336 -0.128526 0)
(7.59299 -0.130329 0)
(7.60179 -0.132102 0)
(7.60982 -0.133879 0)
(7.61711 -0.135684 0)
(7.62371 -0.137535 0)
(7.62965 -0.139441 0)
(7.63499 -0.141409 0)
(7.63976 -0.14344 0)
(7.644 -0.145532 0)
(7.64776 -0.147679 0)
(7.65108 -0.149876 0)
(7.65401 -0.152112 0)
(7.65658 -0.154384 0)
(7.65885 -0.156673 0)
(7.33341 -0.00903685 0)
(7.33767 -0.02678 0)
(7.34665 -0.0434581 0)
(7.35917 -0.0587158 0)
(7.37419 -0.0724178 0)
(7.39103 -0.0845147 0)
(7.40904 -0.0950188 0)
(7.42762 -0.104005 0)
(7.4463 -0.111589 0)
(7.46472 -0.117913 0)
(7.48262 -0.123131 0)
(7.49981 -0.127399 0)
(7.51614 -0.13087 0)
(7.53155 -0.133689 0)
(7.54598 -0.135987 0)
(7.55942 -0.137883 0)
(7.57187 -0.139478 0)
(7.58335 -0.140862 0)
(7.5939 -0.142109 0)
(7.60354 -0.143279 0)
(7.61234 -0.144423 0)
(7.62032 -0.145577 0)
(7.62755 -0.146771 0)
(7.63406 -0.148026 0)
(7.6399 -0.149356 0)
(7.64513 -0.150769 0)
(7.64979 -0.152268 0)
(7.65392 -0.153853 0)
(7.65757 -0.155521 0)
(7.66078 -0.157267 0)
(7.6636 -0.159084 0)
(7.66606 -0.160967 0)
(7.66821 -0.1629 0)
(7.33344 -0.0108478 0)
(7.33806 -0.0320503 0)
(7.3478 -0.0516952 0)
(7.3613 -0.0692695 0)
(7.3774 -0.0846314 0)
(7.39538 -0.0977911 0)
(7.41455 -0.108852 0)
(7.43426 -0.117994 0)
(7.45402 -0.125429 0)
(7.47345 -0.131378 0)
(7.49227 -0.136058 0)
(7.51027 -0.139674 0)
(7.52731 -0.142416 0)
(7.54332 -0.144457 0)
(7.55824 -0.145948 0)
(7.57207 -0.147022 0)
(7.58482 -0.147796 0)
(7.59653 -0.148365 0)
(7.60722 -0.14881 0)
(7.61696 -0.149198 0)
(7.6258 -0.149582 0)
(7.63378 -0.150002 0)
(7.64096 -0.150492 0)
(7.64741 -0.151073 0)
(7.65318 -0.151761 0)
(7.65831 -0.152567 0)
(7.66286 -0.153495 0)
(7.66688 -0.154546 0)
(7.67042 -0.15572 0)
(7.67353 -0.157011 0)
(7.67625 -0.158415 0)
(7.67862 -0.159929 0)
(7.68071 -0.161535 0)
(7.33352 -0.0129538 0)
(7.33888 -0.0383171 0)
(7.35006 -0.0617871 0)
(7.3654 -0.0827315 0)
(7.38346 -0.100969 0)
(7.40339 -0.116459 0)
(7.42438 -0.129282 0)
(7.44574 -0.13964 0)
(7.46695 -0.147801 0)
(7.48762 -0.154058 0)
(7.50749 -0.158701 0)
(7.52637 -0.162012 0)
(7.54413 -0.164246 0)
(7.56071 -0.165634 0)
(7.57609 -0.166373 0)
(7.59027 -0.166636 0)
(7.60327 -0.166564 0)
(7.61514 -0.166277 0)
(7.62594 -0.16587 0)
(7.63571 -0.165422 0)
(7.64453 -0.164991 0)
(7.65246 -0.164626 0)
(7.65956 -0.16436 0)
(7.66589 -0.164218 0)
(7.67152 -0.164218 0)
(7.6765 -0.164369 0)
(7.68089 -0.164678 0)
(7.68474 -0.165145 0)
(7.6881 -0.16577 0)
(7.69103 -0.166548 0)
(7.69356 -0.167473 0)
(7.69573 -0.16854 0)
(7.6976 -0.169732 0)
(7.33355 -0.0153634 0)
(7.3395 -0.0450864 0)
(7.35198 -0.0718226 0)
(7.36902 -0.0948488 0)
(7.389 -0.114223 0)
(7.41101 -0.130169 0)
(7.43415 -0.142978 0)
(7.45761 -0.153016 0)
(7.48078 -0.160656 0)
(7.50325 -0.166252 0)
(7.52471 -0.170138 0)
(7.54495 -0.172621 0)
(7.56386 -0.173978 0)
(7.58139 -0.174452 0)
(7.59752 -0.174257 0)
(7.61229 -0.173576 0)
(7.62575 -0.172562 0)
(7.63795 -0.171343 0)
(7.64896 -0.170026 0)
(7.65887 -0.168693 0)
(7.66776 -0.167412 0)
(7.67569 -0.166233 0)
(7.68275 -0.165194 0)
(7.68901 -0.164323 0)
(7.69453 -0.163639 0)
(7.69939 -0.163154 0)
(7.70363 -0.162874 0)
(7.70734 -0.162802 0)
(7.71054 -0.162935 0)
(7.71331 -0.163271 0)
(7.7157 -0.163803 0)
(7.71773 -0.164527 0)
(7.71949 -0.165421 0)
(7.33381 -0.0185255 0)
(7.34172 -0.0548232 0)
(7.35755 -0.0878341 0)
(7.3783 -0.116443 0)
(7.40179 -0.140411 0)
(7.42693 -0.159758 0)
(7.45278 -0.174785 0)
(7.47854 -0.186016 0)
(7.50366 -0.194021 0)
(7.52778 -0.199353 0)
(7.55062 -0.202522 0)
(7.57201 -0.203985 0)
(7.59188 -0.204134 0)
(7.61018 -0.203299 0)
(7.62694 -0.201755 0)
(7.64218 -0.199727 0)
(7.65598 -0.197397 0)
(7.6684 -0.194908 0)
(7.67955 -0.192376 0)
(7.6895 -0.189889 0)
(7.69836 -0.187513 0)
(7.7062 -0.185298 0)
(7.71311 -0.183281 0)
(7.71917 -0.181486 0)
(7.72446 -0.17993 0)
(7.72906 -0.178622 0)
(7.73302 -0.177567 0)
(7.73641 -0.176764 0)
(7.7393 -0.176213 0)
(7.74173 -0.175907 0)
(7.74375 -0.175839 0)
(7.74541 -0.176002 0)
(7.74676 -0.17637 0)
(7.3337 -0.0219486 0)
(7.34205 -0.0631625 0)
(7.35982 -0.0982476 0)
(7.38356 -0.127161 0)
(7.41078 -0.150806 0)
(7.44011 -0.169682 0)
(7.47017 -0.184251 0)
(7.49986 -0.19506 0)
(7.52848 -0.202636 0)
(7.55561 -0.207472 0)
(7.58095 -0.210042 0)
(7.60435 -0.210786 0)
(7.62578 -0.210099 0)
(7.64526 -0.208328 0)
(7.66285 -0.205773 0)
(7.67864 -0.202686 0)
(7.69276 -0.199276 0)
(7.70531 -0.195711 0)
(7.71643 -0.192125 0)
(7.72623 -0.188622 0)
(7.73483 -0.18528 0)
(7.74234 -0.182157 0)
(7.74886 -0.179293 0)
(7.75449 -0.176717 0)
(7.75931 -0.174443 0)
(7.76342 -0.172483 0)
(7.76687 -0.170839 0)
(7.76974 -0.16951 0)
(7.7721 -0.168494 0)
(7.774 -0.167785 0)
(7.77551 -0.167374 0)
(7.77667 -0.167253 0)
(7.77757 -0.16739 0)
(7.33481 -0.0282909 0)
(7.34946 -0.0837912 0)
(7.37498 -0.132039 0)
(7.40513 -0.171167 0)
(7.43714 -0.201505 0)
(7.47022 -0.223841 0)
(7.5033 -0.239413 0)
(7.53543 -0.249546 0)
(7.56604 -0.255375 0)
(7.59475 -0.257854 0)
(7.62134 -0.257784 0)
(7.64568 -0.255815 0)
(7.66776 -0.252469 0)
(7.68764 -0.24816 0)
(7.70544 -0.243222 0)
(7.72128 -0.237913 0)
(7.73531 -0.23244 0)
(7.74769 -0.226961 0)
(7.75858 -0.221597 0)
(7.76812 -0.216438 0)
(7.77645 -0.211552 0)
(7.7837 -0.206983 0)
(7.78999 -0.202762 0)
(7.79541 -0.198908 0)
(7.80007 -0.195432 0)
(7.80405 -0.192335 0)
(7.80742 -0.189619 0)
(7.81026 -0.187279 0)
(7.81262 -0.185313 0)
(7.81457 -0.183716 0)
(7.81616 -0.182481 0)
(7.81745 -0.181605 0)
(7.8185 -0.181049 0)
(7.33379 -0.0320566 0)
(7.34759 -0.087252 0)
(7.37756 -0.130805 0)
(7.41531 -0.166826 0)
(7.45595 -0.196569 0)
(7.49724 -0.219699 0)
(7.53728 -0.236644 0)
(7.5751 -0.248161 0)
(7.61042 -0.254991 0)
(7.64318 -0.257927 0)
(7.67344 -0.257769 0)
(7.70132 -0.255253 0)
(7.72699 -0.251015 0)
(7.75061 -0.245593 0)
(7.77233 -0.239425 0)
(7.79228 -0.232859 0)
(7.81061 -0.226161 0)
(7.82742 -0.219533 0)
(7.84284 -0.213123 0)
(7.85697 -0.207034 0)
(7.86993 -0.201337 0)
(7.8818 -0.196076 0)
(7.89269 -0.191275 0)
(7.90267 -0.186943 0)
(7.91183 -0.18308 0)
(7.92023 -0.17968 0)
(7.92795 -0.176733 0)
(7.93504 -0.174229 0)
(7.94157 -0.172161 0)
(7.94759 -0.170527 0)
(7.95317 -0.169331 0)
(7.95838 -0.168577 0)
(7.96331 -0.168245 0)
(7.33891 -0.0545494 0)
(7.3718 -0.152068 0)
(7.41427 -0.221591 0)
(7.45744 -0.268792 0)
(7.50344 -0.299852 0)
(7.5532 -0.318745 0)
(7.60519 -0.329181 0)
(7.65831 -0.333851 0)
(7.71168 -0.334457 0)
(7.76427 -0.33216 0)
(7.81518 -0.327774 0)
(7.86375 -0.321875 0)
(7.90951 -0.314897 0)
(7.95215 -0.307177 0)
(7.99153 -0.298991 0)
(8.02763 -0.290566 0)
(8.0605 -0.282093 0)
(8.09029 -0.27373 0)
(8.11718 -0.2656 0)
(8.14136 -0.257803 0)
(8.16305 -0.25041 0)
(8.18246 -0.243473 0)
(8.1998 -0.237022 0)
(8.21527 -0.231076 0)
(8.22903 -0.225641 0)
(8.24126 -0.220713 0)
(8.25209 -0.216289 0)
(8.26164 -0.212363 0)
(8.27004 -0.208938 0)
(8.27735 -0.206021 0)
(8.2837 -0.203666 0)
(8.28915 -0.201879 0)
(8.29388 -0.200842 0)
(7.33753 -0.0405254 0)
(7.38834 -0.106127 0)
(7.4773 -0.164169 0)
(7.57854 -0.220243 0)
(7.68598 -0.268072 0)
(7.79445 -0.3053 0)
(7.89795 -0.332562 0)
(7.99298 -0.350548 0)
(8.07756 -0.360338 0)
(8.15062 -0.363398 0)
(8.21195 -0.361196 0)
(8.26197 -0.355049 0)
(8.30144 -0.346097 0)
(8.33137 -0.335279 0)
(8.35286 -0.323346 0)
(8.36701 -0.310881 0)
(8.37487 -0.298324 0)
(8.37741 -0.285999 0)
(8.37547 -0.274137 0)
(8.36983 -0.262891 0)
(8.36112 -0.252357 0)
(8.3499 -0.242585 0)
(8.33664 -0.233592 0)
(8.32172 -0.22537 0)
(8.30546 -0.217891 0)
(8.28812 -0.211118 0)
(8.26989 -0.205003 0)
(8.25093 -0.199502 0)
(8.23136 -0.194578 0)
(8.21118 -0.190207 0)
(8.19053 -0.186477 0)
(8.16911 -0.18334 0)
(8.14758 -0.18176 0)
(7.39947 -0.196987 0)
(7.59551 -0.376684 0)
(7.76787 -0.459977 0)
(7.89437 -0.514217 0)
(7.97702 -0.543241 0)
(8.0139 -0.552889 0)
(8.00924 -0.549788 0)
(7.97146 -0.537296 0)
(7.90822 -0.517926 0)
(7.82615 -0.493952 0)
(7.73104 -0.467179 0)
(7.62766 -0.439009 0)
(7.51973 -0.410531 0)
(7.41009 -0.382558 0)
(7.30085 -0.355665 0)
(7.19352 -0.330234 0)
(7.08912 -0.306494 0)
(6.98833 -0.284558 0)
(6.89152 -0.264454 0)
(6.79889 -0.246147 0)
(6.71047 -0.229563 0)
(6.6262 -0.214603 0)
(6.54593 -0.201147 0)
(6.4695 -0.18907 0)
(6.39669 -0.17824 0)
(6.32728 -0.168525 0)
(6.26104 -0.159786 0)
(6.19772 -0.15189 0)
(6.13708 -0.144674 0)
(6.07872 -0.137995 0)
(6.02233 -0.131746 0)
(5.96691 -0.125141 0)
(5.91283 -0.121525 0)
(7.16007 -0.186026 0)
(6.91056 -0.345554 0)
(6.49875 -0.393066 0)
(6.03418 -0.394687 0)
(5.59296 -0.366689 0)
(5.17538 -0.322908 0)
(4.78553 -0.274276 0)
(4.43021 -0.226423 0)
(4.10999 -0.182346 0)
(3.8232 -0.14353 0)
(3.56782 -0.110373 0)
(3.34128 -0.082686 0)
(3.14074 -0.0599828 0)
(2.96339 -0.041637 0)
(2.80656 -0.0269918 0)
(2.66775 -0.0154267 0)
(2.54472 -0.00638812 0)
(2.43543 0.000600415 0)
(2.33809 0.00593882 0)
(2.25113 0.00995719 0)
(2.17315 0.0129251 0)
(2.10296 0.0150611 0)
(2.03952 0.016543 0)
(1.98193 0.0175153 0)
(1.92943 0.0181015 0)
(1.88136 0.0184076 0)
(1.83715 0.0185513 0)
(1.79645 0.0186497 0)
(1.75872 0.018923 0)
(1.7242 0.0196682 0)
(1.69193 0.0212275 0)
(1.66401 0.0260931 0)
(1.63834 0.0216465 0)
(1.60312 0.00884324 0)
(1.91322 0.0942219 0)
(2.30037 0.137428 0)
(2.69537 0.0700471 0)
(3.05733 -0.136165 0)