/*--------------------------------*- C++ -*----------------------------------*\
  =========                 |
  \\      /  F ield         | OpenFOAM: The Open Source CFD Toolbox
   \\    /   O peration     | Website:  https://openfoam.org
    \\  /    A nd           | Version:  10
     \\/     M anipulation  |
\*---------------------------------------------------------------------------*/
FoamFile
{
    format      ascii;
    class       volScalarField;
    location    "0.01";
    object      epsilon;
}
// * * * * * * * * * * * * * * * * * * * * * * * * * * * * * * * * * * * * * //

dimensions      [0 2 -3 0 0 0 0];

internalField   nonuniform List<scalar> 
6820
(
23.2968
22.5752
21.9097
21.2863
20.7037
20.1659
19.6764
19.2367
18.8458
18.5015
18.1999
17.9364
17.7051
17.4994
17.3144
17.1498
17.0128
16.9164
16.8739
16.892
16.965
17.0735
17.1886
17.2805
17.327
17.3191
17.2614
17.1734
17.06
17.0188
16.7138
17.7808
12.7602
5.03365
6.81629
7.83463
8.45893
8.88299
9.20621
9.48109
9.73278
9.97203
10.2026
10.4248
10.6368
10.835
11.0147
11.1722
11.3063
11.4241
11.5372
11.6579
11.7941
11.9449
12.099
12.2373
12.3387
12.3864
12.3728
12.3014
12.1845
12.037
11.8841
11.704
11.6334
11.2407
3.70362
4.14749
4.56519
4.91318
5.19505
5.42531
5.61767
5.78298
5.92931
6.06241
6.18608
6.30244
6.41203
6.51437
6.60896
6.697
6.78234
6.87128
6.97063
7.08457
7.21141
7.34234
7.46288
7.55679
7.61076
7.6181
7.58007
7.50535
7.40582
7.29767
7.18748
7.09319
7.01024
3.54002
3.61077
3.72437
3.85309
3.98004
4.09738
4.20271
4.29633
4.37962
4.45427
4.52187
4.58355
4.63981
4.69077
4.73703
4.78026
4.82418
4.87448
4.93705
5.01532
5.10794
5.20782
5.30327
5.38106
5.43008
5.44434
5.42428
5.3763
5.31059
5.23903
5.17301
5.11902
5.0919
3.52064
3.50154
3.50503
3.52611
3.55849
3.59666
3.63667
3.67603
3.71345
3.74837
3.78064
3.81017
3.83674
3.86013
3.8806
3.89985
3.92145
3.95047
3.99202
4.04906
4.12045
4.20022
4.2786
4.34451
4.38852
4.40543
4.39536
4.36342
4.31821
4.26977
4.22838
4.20075
4.19761
3.51939
3.48241
3.45296
3.43228
3.41995
3.41448
3.41409
3.41712
3.42231
3.42872
3.4357
3.44265
3.44891
3.45392
3.45784
3.46213
3.47007
3.48623
3.51519
3.55955
3.61826
3.68602
3.75419
3.81298
3.85404
3.87267
3.86879
3.8467
3.81389
3.7792
3.75176
3.73832
3.74667
3.51942
3.47973
3.44286
3.40959
3.38044
3.35553
3.33459
3.31714
3.30263
3.29056
3.28042
3.27163
3.26351
3.25547
3.24759
3.24123
3.23945
3.24655
3.26679
3.3026
3.35303
3.41319
3.47514
3.52986
3.56961
3.58988
3.59036
3.57476
3.54971
3.5232
3.50346
3.49712
3.51035
3.51947
3.47942
3.44109
3.40473
3.37059
3.33887
3.30963
3.28285
3.25843
3.23626
3.21612
3.19764
3.18029
3.16359
3.14764
3.13381
3.12505
3.12556
3.13948
3.16923
3.21398
3.26916
3.32728
3.37975
3.4191
3.44085
3.44443
3.43304
3.41266
3.39067
3.37466
3.37103
3.38507
3.51947
3.4794
3.44086
3.4039
3.36854
3.33484
3.30285
3.27258
3.24408
3.21734
3.19232
3.16879
3.14637
3.12465
3.10382
3.08526
3.07192
3.06795
3.07754
3.10315
3.14412
3.19616
3.25204
3.3034
3.34286
3.36587
3.37156
3.3627
3.34482
3.32483
3.30986
3.30611
3.31833
3.51947
3.47939
3.44082
3.40375
3.36813
3.33396
3.30121
3.26986
3.23995
3.21149
3.18448
3.15876
3.13397
3.10978
3.08641
3.06525
3.04925
3.04259
3.04948
3.07253
3.11124
3.16149
3.21625
3.26723
3.30708
3.33105
3.33803
3.33046
3.3135
3.29375
3.27805
3.27239
3.28122
3.51947
3.47939
3.44082
3.40372
3.36805
3.33377
3.30083
3.26919
3.23886
3.20984
3.18214
3.15559
3.12986
3.10464
3.08012
3.0577
3.04034
3.03222
3.03762
3.05926
3.09677
3.14619
3.20055
3.25162
3.29192
3.31656
3.3242
3.31699
3.29987
3.27923
3.2617
3.25315
3.25782
3.51947
3.47939
3.44081
3.40371
3.36802
3.33371
3.30072
3.269
3.23854
3.20936
3.18144
3.15461
3.12855
3.10293
3.07794
3.05497
3.03694
3.02808
3.03272
3.05365
3.09063
3.13977
3.19414
3.24548
3.28618
3.3112
3.31897
3.31149
3.29351
3.2713
3.25139
3.23955
3.23986
3.51947
3.47939
3.44081
3.4037
3.368
3.33368
3.30066
3.26891
3.23841
3.20917
3.18116
3.15424
3.12805
3.10228
3.07709
3.05386
3.03551
3.02625
3.03049
3.05107
3.08785
3.13696
3.19151
3.24311
3.28407
3.30917
3.31668
3.30847
3.28919
3.26507
3.24257
3.22738
3.22351
3.51947
3.47939
3.44081
3.40369
3.36799
3.33365
3.30062
3.26885
3.23832
3.20904
3.18099
3.15401
3.12776
3.10191
3.07662
3.05324
3.03468
3.02518
3.02917
3.04957
3.08627
3.13545
3.19015
3.24193
3.28294
3.30783
3.31475
3.30549
3.28466
3.25847
3.23336
3.21499
3.20727
3.51947
3.4794
3.44081
3.40369
3.36798
3.33363
3.30058
3.26879
3.23823
3.20893
3.18084
3.15382
3.12753
3.10161
3.07624
3.05274
3.03402
3.02434
3.02815
3.04843
3.0851
3.13433
3.18912
3.24092
3.28177
3.30619
3.31225
3.3017
3.27916
3.25084
3.2232
3.20189
3.19073
3.51947
3.4794
3.44081
3.40369
3.36797
3.33361
3.30055
3.26874
3.23816
3.20882
3.1807
3.15364
3.1273
3.10133
3.07588
3.05227
3.03341
3.02358
3.02724
3.04742
3.08406
3.1333
3.18809
3.23977
3.28026
3.30398
3.30896
3.29695
3.27259
3.24216
3.21214
3.18814
3.17396
3.51948
3.4794
3.44081
3.40369
3.36796
3.33359
3.30052
3.26869
3.23809
3.20872
3.18057
3.15346
3.12708
3.10105
3.07553
3.05181
3.03283
3.02285
3.02639
3.04649
3.08309
3.13231
3.18702
3.23844
3.27839
3.30124
3.30497
3.29137
3.26514
3.23264
3.20038
3.17399
3.15716
3.51948
3.4794
3.44082
3.40369
3.36796
3.33358
3.30049
3.26865
3.23802
3.20863
3.18044
3.1533
3.12686
3.10077
3.07517
3.05136
3.03226
3.02216
3.0256
3.04562
3.08218
3.13135
3.1859
3.23696
3.27626
3.29808
3.30044
3.28517
3.25707
3.22257
3.18825
3.15971
3.1406
3.51948
3.47941
3.44082
3.40369
3.36796
3.33357
3.30047
3.26861
3.23796
3.20854
3.18032
3.15313
3.12665
3.1005
3.07483
3.05092
3.03171
3.0215
3.02485
3.04482
3.08134
3.13043
3.18478
3.2354
3.27394
3.29464
3.29556
3.27858
3.24864
3.21224
3.17603
3.14558
3.12451
3.51948
3.47941
3.44082
3.40369
3.36796
3.33356
3.30045
3.26857
3.23791
3.20846
3.1802
3.15297
3.12644
3.10024
3.07449
3.0505
3.03118
3.02088
3.02415
3.04408
3.08056
3.12956
3.18367
3.2338
3.27152
3.29105
3.29049
3.27182
3.2401
3.20192
3.16399
3.13187
3.10911
3.51948
3.47941
3.44083
3.40369
3.36796
3.33355
3.30043
3.26854
3.23786
3.20838
3.18009
3.15282
3.12624
3.09998
3.07416
3.05008
3.03068
3.02028
3.0235
3.04339
3.07984
3.12874
3.18259
3.2322
3.26907
3.28742
3.28538
3.26508
3.23165
3.19183
3.15236
3.11879
3.0946
3.51948
3.47942
3.44083
3.4037
3.36796
3.33355
3.30042
3.26851
3.23781
3.2083
3.17998
3.15268
3.12605
3.09973
3.07385
3.04969
3.03019
3.01972
3.02288
3.04275
3.07917
3.12797
3.18155
3.23063
3.26665
3.28383
3.28037
3.2585
3.2235
3.18218
3.14133
3.1065
3.0811
3.51948
3.47942
3.44084
3.4037
3.36796
3.33354
3.3004
3.26848
3.23776
3.20823
3.17988
3.15254
3.12587
3.09949
3.07354
3.0493
3.02973
3.01919
3.02231
3.04215
3.07854
3.12724
3.18055
3.22911
3.2643
3.28035
3.27555
3.25222
3.21577
3.1731
3.13105
3.09515
3.06873
3.51948
3.47942
3.44084
3.4037
3.36795
3.33354
3.30039
3.26845
3.23771
3.20816
3.17978
3.15241
3.12569
3.09927
3.07325
3.04894
3.02929
3.01869
3.02176
3.04159
3.07794
3.12654
3.17959
3.22764
3.26205
3.27705
3.271
3.24634
3.20858
3.16473
3.12164
3.08482
3.05754
3.51948
3.47942
3.44084
3.40371
3.36795
3.33353
3.30037
3.26843
3.23767
3.20809
3.17968
3.15228
3.12552
3.09905
3.07297
3.04859
3.02888
3.01821
3.02124
3.04104
3.07736
3.12586
3.17865
3.22624
3.25992
3.27396
3.26678
3.24092
3.20201
3.15713
3.11316
3.07556
3.04757
3.51949
3.47942
3.44084
3.40371
3.36795
3.33352
3.30035
3.2684
3.23762
3.20803
3.17959
3.15215
3.12536
3.09884
3.07271
3.04827
3.02848
3.01776
3.02074
3.04051
3.07679
3.12517
3.17773
3.22489
3.25792
3.2711
3.26292
3.23602
3.19612
3.15036
3.10564
3.0674
3.03881
3.51949
3.47943
3.44085
3.40371
3.36795
3.33351
3.30034
3.26837
3.23758
3.20797
3.1795
3.15203
3.1252
3.09864
3.07246
3.04795
3.0281
3.01732
3.02025
3.03998
3.07621
3.12448
3.17682
3.22359
3.25605
3.26848
3.25944
3.23166
3.19092
3.14442
3.09908
3.06032
3.03123
3.51949
3.47943
3.44085
3.4037
3.36794
3.3335
3.30032
3.26834
3.23753
3.2079
3.17941
3.15191
3.12505
3.09845
3.07222
3.04766
3.02775
3.01689
3.01977
3.03944
3.07561
3.12377
3.17591
3.22234
3.25431
3.26612
3.25636
3.22784
3.18641
3.13931
3.09348
3.05429
3.02479
3.51949
3.47943
3.44085
3.4037
3.36794
3.33349
3.3003
3.26831
3.23749
3.20784
3.17934
3.15181
3.12491
3.09827
3.072
3.04739
3.02741
3.01649
3.0193
3.0389
3.07498
3.12303
3.17498
3.22113
3.25269
3.26398
3.25365
3.22454
3.18256
3.135
3.08877
3.04924
3.0194
3.51949
3.47942
3.44084
3.40369
3.36792
3.33347
3.30027
3.26827
3.23744
3.20777
3.17924
3.15169
3.12477
3.0981
3.07178
3.04712
3.02708
3.01609
3.01882
3.03835
3.07434
3.12227
3.17405
3.21996
3.2512
3.26209
3.25131
3.22175
3.17935
3.13143
3.0849
3.0451
3.01498
3.51949
3.47943
3.44085
3.4037
3.36793
3.33348
3.30028
3.26827
3.23743
3.20774
3.17919
3.15162
3.12467
3.09797
3.07162
3.04691
3.02681
3.01574
3.01838
3.0378
3.07368
3.12148
3.17311
3.21881
3.24979
3.26039
3.24927
3.21938
3.17669
3.12852
3.08178
3.04178
3.01144
3.51948
3.47942
3.44082
3.40367
3.36789
3.33343
3.30022
3.2682
3.23735
3.20765
3.17909
3.1515
3.12453
3.0978
3.07143
3.04668
3.02653
3.01539
3.01795
3.03727
3.07305
3.12073
3.17222
3.21776
3.24854
3.25891
3.24755
3.21743
3.17453
3.12618
3.07929
3.03915
3.00865
3.51949
3.47944
3.44087
3.40375
3.36799
3.33354
3.30033
3.26832
3.23746
3.20775
3.17917
3.15157
3.12458
3.09783
3.07143
3.04665
3.02645
3.01523
3.01769
3.03689
3.07253
3.12007
3.17139
3.21675
3.24735
3.25752
3.24598
3.21569
3.17266
3.12421
3.07725
3.03702
3.0064
3.51947
3.4794
3.44081
3.40367
3.36791
3.33347
3.30027
3.26827
3.23742
3.20773
3.17917
3.15158
3.12462
3.09791
3.07154
3.0468
3.02664
3.01545
3.01793
3.03713
3.07274
3.12022
3.17144
3.21665
3.24704
3.25699
3.24521
3.2147
3.17147
3.12286
3.07575
3.03537
3.00454
3.51951
3.47954
3.44109
3.40405
3.36838
3.33402
3.30091
3.269
3.23828
3.20874
3.18037
3.15301
3.12631
3.09989
3.07386
3.04948
3.0297
3.0189
3.02174
3.04126
3.07711
3.12473
3.17596
3.22107
3.25126
3.2609
3.24876
3.21783
3.17417
3.1251
3.07749
3.03654
3.00508
3.51949
3.47949
3.44113
3.4044
3.36923
3.33553
3.30326
3.27237
3.24285
3.2147
3.18787
3.16221
3.13735
3.1129
3.08893
3.0667
3.04914
3.04062
3.04575
3.06752
3.10551
3.15506
3.2079
3.25416
3.28493
3.29452
3.28166
3.24941
3.2039
3.15259
3.10249
3.05893
3.02477
3.51973
3.48139
3.44576
3.41278
3.38245
3.35473
3.32947
3.30647
3.28555
3.26653
3.24922
3.23331
3.21831
3.20374
3.18958
3.17703
3.16899
3.16983
3.18419
3.21509
3.26203
3.32016
3.38085
3.43367
3.46908
3.48086
3.46747
3.43207
3.38126
3.3232
3.26566
3.21466
3.1735
3.52535
3.51282
3.51376
3.52519
3.54422
3.56884
3.59744
3.62885
3.66226
3.69711
3.73296
3.76941
3.80592
3.84197
3.87756
3.91395
3.95428
4.00335
4.06631
4.14644
4.24291
4.34953
4.45528
4.54669
4.61131
4.64105
4.63418
4.59548
4.53457
4.46324
4.39267
4.33147
4.28409
3.83325
4.36711
4.85317
5.32902
5.80541
6.27766
6.74202
7.19745
7.64451
8.08457
8.5193
8.9501
9.37779
9.80267
10.2251
10.6461
11.0675
11.4905
11.9141
12.3318
12.7316
13.0961
13.4068
13.6478
13.8107
13.897
13.918
13.8925
13.8425
13.7886
13.7465
13.7261
13.7287
30.2663
32.7714
35.3137
37.8665
40.416
42.9532
45.4694
47.9565
50.4071
52.8143
55.1717
57.4727
59.711
61.881
63.9806
66.0121
67.979
69.879
71.6932
73.3805
74.879
76.1189
77.041
77.6142
77.8449
77.776
77.4759
77.023
76.4904
75.9355
75.3944
74.8856
74.4052
76.2534
244.411
442.284
571.81
573.272
448.087
257.684
100.111
33.2305
24.6464
30.6217
37.5595
43.097
46.8829
48.9372
49.2978
47.9716
44.974
40.4305
34.6897
28.3578
22.1916
16.8695
12.768
9.89064
7.98148
6.7153
5.8356
5.1907
4.70367
4.33225
4.04666
3.82371
3.64639
3.50317
3.38641
3.29072
3.2121
3.14739
3.09413
3.05032
3.01435
2.98489
2.96085
2.94129
2.92547
2.91272
2.90252
2.89441
2.88801
2.88301
2.87915
2.8762
2.874
2.87238
2.87124
2.87046
2.86996
2.86969
2.86958
2.86959
2.86969
2.86985
2.87004
2.87026
2.87049
2.87072
2.87094
2.87115
2.87134
2.87151
2.87166
2.87179
2.8719
2.87199
2.87206
2.87212
2.87216
2.87218
2.87218
2.87218
2.87216
2.87213
2.87209
2.87205
2.87199
2.87193
2.87187
2.8718
2.87172
2.87164
2.87156
2.87148
2.87139
2.8713
2.87122
2.87113
2.87103
2.87096
2.87077
11.5536
16.7281
28.0104
40.0831
42.275
30.7958
18.2024
14.7304
17.3214
21.7191
26.824
31.7113
35.7199
38.6152
40.3248
40.7937
39.9611
37.7897
34.3423
29.8697
24.8385
19.8481
15.4528
11.9826
9.47693
7.76036
6.58787
5.75668
5.14117
4.67396
4.31612
4.03986
3.82354
3.65115
3.51168
3.3977
3.30396
3.22655
3.16247
3.10933
3.06527
3.02874
2.99852
2.97356
2.95301
2.93615
2.92235
2.91112
2.90201
2.89467
2.88878
2.88409
2.88038
2.87747
2.87521
2.87348
2.87217
2.87119
2.87048
2.86998
2.86964
2.86942
2.86929
2.86923
2.86922
2.86925
2.86929
2.86935
2.86941
2.86947
2.86952
2.86957
2.86961
2.86963
2.86965
2.86966
2.86965
2.86964
2.86961
2.86958
2.86954
2.86949
2.86943
2.86937
2.8693
2.86922
2.86915
2.86906
2.86898
2.86889
2.8688
2.86871
2.86862
2.86852
2.86843
2.86834
2.86824
2.86814
2.86806
2.86787
6.85184
6.9557
7.60773
8.53901
9.193
9.61402
10.4254
12.0616
14.7844
18.4269
22.3968
26.1011
29.1819
31.4913
32.9608
33.521
33.0898
31.6013
29.0709
25.6678
21.7402
17.755
14.1607
11.2453
9.07373
7.53599
6.45417
5.67168
5.08606
4.63884
4.29456
4.02755
3.8178
3.65038
3.51481
3.40388
3.31246
3.23675
3.1738
3.12134
3.07755
3.04098
3.01046
2.98502
2.96383
2.94623
2.93164
2.91958
2.90963
2.90146
2.89477
2.8893
2.88486
2.88126
2.87836
2.87602
2.87416
2.87267
2.87149
2.87056
2.86983
2.86926
2.86881
2.86846
2.86819
2.86798
2.86781
2.86767
2.86756
2.86746
2.86738
2.8673
2.86723
2.86716
2.86709
2.86701
2.86694
2.86686
2.86678
2.8667
2.86661
2.86652
2.86643
2.86633
2.86624
2.86614
2.86604
2.86594
2.86584
2.86574
2.86564
2.86553
2.86543
2.86533
2.86522
2.86512
2.86502
2.86492
2.86483
2.86464
5.05245
5.04931
5.18629
5.53915
6.14252
7.0488
8.35705
10.1938
12.6262
15.5181
18.5437
21.3549
23.7306
25.5752
26.8338
27.4394
27.3057
26.3523
24.56
22.0324
19.0203
15.8806
12.972
10.5424
8.67278
7.30343
6.31121
5.57878
5.02424
4.59771
4.26735
4.00975
3.80663
3.64419
3.51255
3.40478
3.31588
3.24213
3.18068
3.12929
3.08622
3.05006
3.01969
2.99418
2.97275
2.95478
2.93972
2.92712
2.91659
2.9078
2.90048
2.8944
2.88935
2.88516
2.8817
2.87883
2.87647
2.87451
2.8729
2.87157
2.87046
2.86955
2.86879
2.86815
2.86762
2.86717
2.86678
2.86645
2.86616
2.86591
2.86568
2.86547
2.86528
2.86511
2.86495
2.86479
2.86464
2.8645
2.86436
2.86422
2.86409
2.86396
2.86383
2.86371
2.86358
2.86346
2.86334
2.86322
2.8631
2.86298
2.86287
2.86275
2.86264
2.86252
2.86241
2.8623
2.8622
2.86208
2.862
2.86179
4.2128
4.2727
4.43832
4.76852
5.30808
6.11688
7.2755
8.8456
10.8155
13.06
15.3585
17.4917
19.3229
20.7913
21.8571
22.4639
22.5314
21.9756
20.7551
18.9232
16.6534
14.2121
11.882
9.87358
8.27487
7.06352
6.15966
5.47852
4.95628
4.55119
4.2352
3.98727
3.79088
3.63341
3.50565
3.401
3.31463
3.24294
3.18312
3.13303
3.09094
3.0555
3.02561
3.00037
2.97906
2.96105
2.94584
2.933
2.92216
2.91302
2.90531
2.89881
2.89334
2.88873
2.88485
2.88158
2.87882
2.87649
2.87453
2.87286
2.87145
2.87025
2.86922
2.86834
2.86758
2.86692
2.86635
2.86584
2.8654
2.865
2.86465
2.86433
2.86403
2.86377
2.86352
2.86329
2.86307
2.86287
2.86268
2.86249
2.86232
2.86215
2.86199
2.86184
2.86168
2.86154
2.8614
2.86126
2.86112
2.86099
2.86086
2.86074
2.86062
2.86049
2.86038
2.86026
2.86015
2.86003
2.85994
2.85973
3.78302
3.86712
4.03546
4.33827
4.82135
5.53013
6.508
7.77892
9.32008
11.0373
12.7811
14.4079
15.8277
16.9996
17.8958
18.4731
18.663
18.3867
17.5918
16.2965
14.6143
12.739
10.8895
9.24141
7.88336
6.81894
6.00135
5.37218
4.88318
4.50023
4.19908
3.96112
3.7716
3.61911
3.49517
3.39354
3.30962
3.23993
3.18176
3.133
3.092
3.05742
3.02819
3.00344
2.98247
2.96467
2.94957
2.93674
2.92583
2.91657
2.90869
2.90199
2.89629
2.89144
2.88731
2.88378
2.88077
2.87819
2.87598
2.87409
2.87246
2.87105
2.86982
2.86876
2.86783
2.86702
2.8663
2.86567
2.86511
2.8646
2.86415
2.86374
2.86336
2.86302
2.86271
2.86242
2.86215
2.8619
2.86167
2.86145
2.86124
2.86104
2.86085
2.86068
2.86051
2.86034
2.86018
2.86003
2.85988
2.85974
2.8596
2.85947
2.85934
2.85921
2.85909
2.85897
2.85885
2.85873
2.85863
2.85842
3.55416
3.64715
3.8123
4.08607
4.50263
5.09426
5.88891
6.89646
8.09161
9.40437
10.7341
11.9858
13.098
14.041
14.7941
15.3248
15.5786
15.4871
14.9965
14.1023
12.874
11.4486
9.99225
8.64858
7.50199
6.57276
5.83841
5.2612
4.80603
4.44576
4.15988
3.93221
3.74977
3.60234
3.48217
3.38348
3.3019
3.2341
3.17749
3.13003
3.0901
3.0564
3.02789
3.00373
2.98321
2.96577
2.95092
2.93826
2.92746
2.91825
2.91037
2.90364
2.89787
2.89293
2.88869
2.88505
2.88191
2.87921
2.87687
2.87484
2.87308
2.87155
2.87021
2.86904
2.86801
2.8671
2.86629
2.86557
2.86493
2.86435
2.86384
2.86337
2.86294
2.86255
2.86219
2.86187
2.86156
2.86128
2.86102
2.86077
2.86054
2.86033
2.86012
2.85993
2.85974
2.85957
2.8594
2.85924
2.85908
2.85893
2.85879
2.85865
2.85851
2.85838
2.85825
2.85812
2.858
2.85788
2.85778
2.85757
3.42899
3.52017
3.67301
3.91314
4.26558
4.75262
5.39078
6.18228
7.10565
8.11192
9.13406
10.1084
10.9912
11.7587
12.3937
12.8712
13.149
13.1717
12.8895
12.2862
11.4005
10.326
9.18634
8.09681
7.13411
6.32799
5.67294
5.147
4.72583
4.38857
4.11832
3.90127
3.72614
3.5839
3.46755
3.37176
3.29244
3.22644
3.1713
3.12504
3.08611
3.05325
3.02545
3.00187
2.98184
2.96479
2.95026
2.93786
2.92727
2.9182
2.91044
2.90378
2.89805
2.89313
2.88889
2.88523
2.88207
2.87933
2.87695
2.87487
2.87307
2.87148
2.87009
2.86887
2.86779
2.86683
2.86598
2.86522
2.86454
2.86393
2.86338
2.86288
2.86242
2.86201
2.86163
2.86128
2.86096
2.86066
2.86038
2.86012
2.85988
2.85965
2.85944
2.85923
2.85904
2.85886
2.85868
2.85852
2.85836
2.8582
2.85805
2.85791
2.85777
2.85764
2.85751
2.85738
2.85726
2.85713
2.85704
2.85682
3.35834
3.44209
3.57884
3.78607
4.08097
4.47824
4.98761
5.60851
6.32463
7.10241
7.89731
8.66606
9.3766
10.0087
10.5469
10.9708
11.2483
11.3357
11.1907
10.7925
10.1597
9.35436
8.46651
7.58684
6.78253
6.08737
5.50694
5.03087
4.64348
4.32934
4.07497
3.86883
3.70126
3.56437
3.45192
3.35905
3.28197
3.21772
3.16397
3.11885
3.08085
3.04877
3.02162
2.99859
2.97903
2.96238
2.94818
2.93607
2.9257
2.91683
2.90922
2.90269
2.89707
2.89223
2.88805
2.88444
2.88131
2.87859
2.87623
2.87417
2.87236
2.87078
2.86938
2.86815
2.86706
2.8661
2.86524
2.86447
2.86378
2.86315
2.86259
2.86208
2.86162
2.8612
2.86081
2.86045
2.86012
2.85982
2.85953
2.85927
2.85902
2.85879
2.85857
2.85837
2.85817
2.85799
2.85781
2.85764
2.85748
2.85732
2.85717
2.85703
2.85689
2.85675
2.85662
2.85649
2.85637
2.85625
2.85615
2.85593
3.31528
3.38887
3.50821
3.68494
3.93044
4.25412
4.66155
5.15123
5.71144
6.31962
6.94608
7.56101
8.14029
8.66642
9.12495
9.49859
9.76219
9.88223
9.82429
9.56734
9.1181
8.51639
7.82653
7.11856
6.44947
5.8533
5.34225
4.91406
4.55978
4.26866
4.03028
3.83526
3.67548
3.54413
3.4357
3.34581
3.27098
3.20848
3.15609
3.11206
3.07495
3.04359
3.01705
2.99454
2.97541
2.95913
2.94525
2.93341
2.92328
2.91461
2.90717
2.90079
2.8953
2.89056
2.88648
2.88295
2.87988
2.87722
2.8749
2.87288
2.8711
2.86955
2.86818
2.86697
2.86589
2.86494
2.86409
2.86333
2.86265
2.86203
2.86147
2.86097
2.86051
2.86009
2.8597
2.85935
2.85902
2.85872
2.85843
2.85817
2.85792
2.85769
2.85747
2.85727
2.85707
2.85689
2.85671
2.85654
2.85638
2.85622
2.85607
2.85593
2.85579
2.85565
2.85552
2.85539
2.85527
2.85515
2.85505
2.85483
3.28514
3.34783
3.45027
3.60007
3.80441
4.06906
4.39711
4.78697
5.23048
5.71253
6.21313
6.71135
7.18877
7.63035
8.0227
8.3507
8.59422
8.72737
8.72287
8.56176
8.24422
7.7951
7.25967
6.69115
6.13656
5.62784
5.1805
4.79769
4.4755
4.20703
3.98463
3.80087
3.64905
3.5234
3.41912
3.33229
3.25978
3.19903
3.14801
3.10506
3.06881
3.03816
3.01219
2.99016
2.97144
2.9555
2.94192
2.93033
2.92043
2.91195
2.90469
2.89846
2.89309
2.88848
2.88449
2.88105
2.87806
2.87547
2.87321
2.87124
2.86952
2.868
2.86667
2.86549
2.86444
2.86351
2.86269
2.86194
2.86128
2.86068
2.86013
2.85964
2.85919
2.85878
2.8584
2.85805
2.85773
2.85743
2.85715
2.85689
2.85665
2.85642
2.8562
2.856
2.85581
2.85562
2.85545
2.85528
2.85512
2.85496
2.85481
2.85467
2.85453
2.85439
2.85426
2.85413
2.85401
2.85388
2.85379
2.85357
3.26047
3.31267
3.39974
3.5265
3.69717
3.91507
4.18175
4.4958
4.85158
5.23892
5.64415
6.05234
6.44927
6.82219
7.15897
7.4463
7.66765
7.80271
7.83001
7.73341
7.50992
7.17464
6.75909
6.30315
5.84483
5.41263
5.02315
4.6828
4.39134
4.14495
3.93835
3.76588
3.62215
3.50234
3.40232
3.31865
3.2485
3.18956
3.13993
3.09806
3.06267
3.03271
3.00731
2.98574
2.96741
2.9518
2.9385
2.92716
2.91746
2.90917
2.90207
2.89598
2.89074
2.88624
2.88236
2.879
2.8761
2.87358
2.87138
2.86947
2.8678
2.86633
2.86503
2.86389
2.86288
2.86198
2.86118
2.86046
2.85981
2.85923
2.8587
2.85822
2.85779
2.85739
2.85702
2.85668
2.85636
2.85607
2.8558
2.85555
2.85531
2.85508
2.85487
2.85467
2.85448
2.8543
2.85412
2.85396
2.8538
2.85364
2.85349
2.85335
2.85321
2.85307
2.85294
2.85281
2.85269
2.85256
2.85247
2.85225
3.23789
3.28058
3.35423
3.46166
3.60507
3.78605
4.00519
4.26127
4.5504
4.86564
5.19751
5.53515
5.86753
6.18393
6.47367
6.72506
6.92429
7.05514
7.10063
7.04735
6.89107
6.64069
6.31801
5.95264
5.57475
5.20893
4.8714
4.57032
4.30796
4.08288
3.89177
3.73052
3.59492
3.48104
3.38538
3.30495
3.23723
3.18014
3.13193
3.09116
3.05664
3.02737
3.00253
2.98142
2.96347
2.94818
2.93516
2.92404
2.91455
2.90643
2.89949
2.89353
2.88842
2.88402
2.88024
2.87697
2.87414
2.87169
2.86957
2.86771
2.86609
2.86467
2.86341
2.86231
2.86133
2.86046
2.85969
2.85899
2.85837
2.85781
2.8573
2.85683
2.85641
2.85602
2.85566
2.85533
2.85503
2.85474
2.85448
2.85423
2.85399
2.85377
2.85357
2.85337
2.85318
2.853
2.85283
2.85266
2.8525
2.85235
2.8522
2.85206
2.85192
2.85178
2.85165
2.85152
2.8514
2.85127
2.85117
2.85095
3.21608
3.25047
3.31265
3.40407
3.52543
3.67715
3.85918
4.07047
4.30828
4.56783
4.84242
5.12404
5.40404
5.67353
5.92323
6.14301
6.32123
6.4447
6.49985
6.47567
6.3676
6.18072
5.93001
5.63731
5.32627
5.01758
4.72623
4.46109
4.22598
4.02126
3.84519
3.69499
3.56751
3.4596
3.36836
3.29124
3.22601
3.1708
3.12404
3.0844
3.05076
3.0222
2.99792
2.97727
2.95969
2.94472
2.93196
2.92107
2.91177
2.90383
2.89703
2.8912
2.88621
2.88192
2.87822
2.87504
2.87229
2.86991
2.86784
2.86604
2.86447
2.86309
2.86188
2.86082
2.85987
2.85903
2.85828
2.85761
2.85701
2.85647
2.85597
2.85553
2.85512
2.85474
2.85439
2.85407
2.85378
2.8535
2.85324
2.853
2.85277
2.85255
2.85234
2.85215
2.85196
2.85179
2.85162
2.85145
2.85129
2.85114
2.85099
2.85085
2.85071
2.85058
2.85045
2.85032
2.85019
2.85007
2.84997
2.84975
3.1947
3.22196
3.27449
3.35266
3.45615
3.58453
3.73731
3.91355
4.11131
4.32723
4.55651
4.79313
5.03028
5.26062
5.4762
5.66828
5.82705
5.94166
6.00114
5.99642
5.92311
5.7839
5.58904
5.35458
5.09888
4.83902
4.58838
4.35579
4.14596
3.96049
3.7989
3.6595
3.54005
3.43811
3.35133
3.27755
3.21484
3.16157
3.11629
3.07779
3.04505
3.0172
2.99349
2.9733
2.9561
2.94144
2.92894
2.91827
2.90916
2.90138
2.89472
2.88903
2.88414
2.87995
2.87635
2.87324
2.87057
2.86825
2.86624
2.86449
2.86297
2.86164
2.86047
2.85944
2.85852
2.85771
2.85699
2.85635
2.85576
2.85524
2.85476
2.85433
2.85393
2.85357
2.85323
2.85292
2.85263
2.85236
2.85211
2.85187
2.85164
2.85143
2.85123
2.85104
2.85086
2.85068
2.85051
2.85035
2.85019
2.85004
2.84989
2.84975
2.84961
2.84948
2.84935
2.84922
2.84909
2.84897
2.84887
2.84865
3.17376
3.19498
3.23941
3.30665
3.39559
3.50519
3.63467
3.78315
3.94924
4.13055
4.32356
4.52371
4.7256
4.92314
5.1096
5.27751
5.41858
5.52382
5.58428
5.59245
5.5443
5.44102
5.2896
5.10178
4.89174
4.67339
4.45835
4.25498
4.06839
3.90097
3.75318
3.62425
3.51267
3.41665
3.33433
3.26391
3.20377
3.15244
3.10866
3.07133
3.03951
3.01237
2.98924
2.96951
2.95268
2.93833
2.92609
2.91564
2.90672
2.8991
2.89258
2.88701
2.88223
2.87813
2.87462
2.87159
2.86898
2.86673
2.86477
2.86308
2.8616
2.86031
2.85918
2.85818
2.8573
2.85651
2.85582
2.85519
2.85463
2.85412
2.85366
2.85324
2.85286
2.85251
2.85218
2.85188
2.8516
2.85133
2.85109
2.85085
2.85063
2.85042
2.85023
2.85004
2.84986
2.84968
2.84952
2.84935
2.8492
2.84905
2.8489
2.84876
2.84862
2.84849
2.84836
2.84823
2.8481
2.84798
2.84788
2.84766
3.1534
3.16954
3.20721
3.26539
3.34241
3.43678
3.5475
3.67376
3.8145
3.96803
4.13174
4.30211
4.47481
4.64481
4.80643
4.95332
5.07847
5.17441
5.23376
5.25029
5.22037
5.14426
5.02669
4.87625
4.70379
4.52055
4.33644
4.1591
3.99367
3.84303
3.70831
3.58942
3.48551
3.39532
3.31742
3.25036
3.19279
3.14343
3.10117
3.06502
3.03412
3.00771
2.98515
2.96589
2.94944
2.9354
2.92341
2.91318
2.90444
2.89697
2.89059
2.88513
2.88046
2.87646
2.87302
2.87007
2.86752
2.86533
2.86343
2.86178
2.86035
2.8591
2.858
2.85704
2.85618
2.85543
2.85475
2.85415
2.85361
2.85312
2.85267
2.85227
2.85189
2.85155
2.85123
2.85094
2.85067
2.85041
2.85017
2.84994
2.84972
2.84952
2.84932
2.84914
2.84896
2.84879
2.84862
2.84846
2.84831
2.84816
2.84801
2.84787
2.84773
2.8476
2.84747
2.84734
2.84722
2.84709
2.84699
2.84677
3.13382
3.14568
3.17771
3.22837
3.29556
3.37747
3.47295
3.58122
3.70148
3.83251
3.97233
4.1182
4.26663
4.41345
4.55388
4.68253
4.7935
4.88053
4.93752
4.95925
4.94251
4.88701
4.79588
4.67537
4.5338
4.38014
4.22275
4.06844
3.92215
3.78699
3.66453
3.55521
3.4587
3.37419
3.30065
3.23694
3.18193
3.13455
3.09382
3.05885
3.02888
3.0032
2.98122
2.96242
2.94635
2.93262
2.92088
2.91086
2.9023
2.89499
2.88874
2.88339
2.87882
2.87491
2.87155
2.86867
2.86619
2.86405
2.8622
2.8606
2.85921
2.85799
2.85693
2.85599
2.85517
2.85444
2.85379
2.8532
2.85268
2.85221
2.85177
2.85138
2.85102
2.85069
2.85038
2.8501
2.84983
2.84958
2.84934
2.84912
2.84891
2.84871
2.84851
2.84833
2.84815
2.84798
2.84782
2.84766
2.84751
2.84736
2.84721
2.84707
2.84694
2.8468
2.84667
2.84654
2.84642
2.84629
2.84619
2.84597
3.11518
3.12346
3.15077
3.19517
3.25419
3.32584
3.40881
3.50239
3.60594
3.71857
3.83877
3.96437
4.09253
4.2198
4.34215
4.45501
4.55341
4.63211
4.68602
4.71078
4.70352
4.66365
4.5932
4.49669
4.38046
4.25167
4.11725
3.98319
3.85409
3.73309
3.62205
3.52178
3.43236
3.35338
3.2841
3.22369
3.17122
3.12581
3.0866
3.05283
3.02378
2.99884
2.97744
2.9591
2.94341
2.92998
2.9185
2.90868
2.9003
2.89313
2.88701
2.88178
2.87731
2.87347
2.87019
2.86738
2.86496
2.86287
2.86107
2.85951
2.85816
2.85698
2.85595
2.85505
2.85425
2.85354
2.85291
2.85235
2.85184
2.85138
2.85096
2.85058
2.85023
2.84991
2.84961
2.84933
2.84907
2.84883
2.8486
2.84838
2.84817
2.84797
2.84778
2.8476
2.84743
2.84726
2.8471
2.84694
2.84679
2.84664
2.84649
2.84635
2.84622
2.84608
2.84595
2.84582
2.8457
2.84557
2.84547
2.84525
3.09764
3.10292
3.12627
3.16542
3.21763
3.28074
3.35338
3.43485
3.52466
3.62212
3.72608
3.83482
3.94599
4.05673
4.16363
4.26284
4.35016
4.42119
4.47168
4.49794
4.49746
4.46946
4.41519
4.33792
4.24247
4.13451
4.01978
3.90343
3.78967
3.68155
3.58107
3.4893
3.40663
3.33295
3.26783
3.21064
3.16068
3.11722
3.07954
3.04695
3.01883
2.99462
2.9738
2.95593
2.9406
2.92748
2.91624
2.90664
2.89842
2.8914
2.8854
2.88028
2.8759
2.87215
2.86894
2.86619
2.86382
2.86179
2.86004
2.85852
2.8572
2.85606
2.85506
2.85418
2.85341
2.85272
2.85211
2.85156
2.85107
2.85063
2.85022
2.84986
2.84952
2.8492
2.84891
2.84864
2.84839
2.84815
2.84792
2.84771
2.8475
2.84731
2.84712
2.84694
2.84677
2.8466
2.84644
2.84629
2.84613
2.84599
2.84584
2.8457
2.84557
2.84543
2.8453
2.84518
2.84505
2.84492
2.84482
2.8446
3.08132
3.08408
3.1041
3.13882
3.18532
3.24128
3.30531
3.37672
3.45511
3.53999
3.63044
3.72507
3.82195
3.91867
4.01236
4.09978
4.17737
4.24142
4.28837
4.3151
4.31939
4.30038
4.25879
4.19696
4.11854
4.028
3.93007
3.82915
3.729
3.63252
3.54174
3.4579
3.3816
3.313
3.25188
3.19784
3.15035
3.10881
3.07263
3.04121
3.01402
2.99054
2.9703
2.95289
2.93793
2.9251
2.91411
2.90471
2.89666
2.88978
2.8839
2.87888
2.87459
2.87092
2.86778
2.86509
2.86278
2.86079
2.85908
2.8576
2.85632
2.85521
2.85424
2.85339
2.85264
2.85197
2.85138
2.85085
2.85037
2.84994
2.84955
2.84919
2.84886
2.84856
2.84828
2.84801
2.84776
2.84753
2.84731
2.8471
2.8469
2.8467
2.84652
2.84634
2.84617
2.84601
2.84585
2.84569
2.84554
2.8454
2.84526
2.84512
2.84498
2.84485
2.84472
2.84459
2.84446
2.84434
2.84423
2.84401
3.06631
3.06696
3.08416
3.11512
3.15677
3.2067
3.2635
3.32649
3.39536
3.46972
3.54885
3.63162
3.71642
3.80124
3.88363
3.96086
4.02992
4.08768
4.13113
4.15761
4.1652
4.15299
4.12135
4.0719
4.00743
3.93144
3.84781
3.76027
3.67215
3.58612
3.5042
3.4277
3.35739
3.29361
3.23633
3.18533
3.14024
3.10059
3.06588
3.03563
3.00936
2.98659
2.96693
2.94997
2.93538
2.92285
2.9121
2.90289
2.895
2.88826
2.8825
2.87758
2.87337
2.86978
2.8667
2.86407
2.86181
2.85987
2.8582
2.85676
2.85551
2.85443
2.85349
2.85266
2.85193
2.85128
2.85071
2.8502
2.84974
2.84932
2.84894
2.84859
2.84827
2.84797
2.8477
2.84744
2.8472
2.84697
2.84675
2.84654
2.84635
2.84616
2.84598
2.8458
2.84563
2.84547
2.84531
2.84516
2.84501
2.84486
2.84472
2.84458
2.84444
2.84431
2.84418
2.84405
2.84393
2.8438
2.8437
2.84348
3.05267
3.05152
3.06632
3.09408
3.13159
3.1764
3.22708
3.28298
3.34383
3.40935
3.47895
3.55171
3.62628
3.70095
3.77366
3.84209
3.90368
3.9558
3.99588
4.02167
4.03147
4.02439
4.00052
3.96103
3.90797
3.84412
3.77263
3.69665
3.6191
3.54243
3.46855
3.39881
3.33409
3.27485
3.22124
3.17316
3.13039
3.09257
3.05932
3.03021
3.00484
2.98279
2.96368
2.94718
2.93294
2.9207
2.91019
2.90117
2.89345
2.88684
2.88119
2.87636
2.87224
2.86871
2.8657
2.86312
2.86091
2.85902
2.85739
2.85598
2.85477
2.85371
2.85279
2.85199
2.85128
2.85065
2.8501
2.8496
2.84915
2.84874
2.84838
2.84804
2.84773
2.84744
2.84717
2.84691
2.84668
2.84645
2.84624
2.84604
2.84584
2.84566
2.84548
2.8453
2.84514
2.84498
2.84482
2.84467
2.84452
2.84437
2.84423
2.84409
2.84396
2.84382
2.84369
2.84357
2.84344
2.84331
2.84321
2.84299
3.04042
3.03775
3.05049
3.07548
3.10944
3.14987
3.19534
3.24522
3.29929
3.35732
3.41886
3.48313
3.549
3.61501
3.67942
3.74024
3.79531
3.84238
3.87929
3.9041
3.9153
3.91206
3.8943
3.86279
3.81907
3.76534
3.70413
3.63812
3.56984
3.50148
3.43486
3.37131
3.31177
3.25679
3.20665
3.16137
3.12083
3.08479
3.05295
3.02496
3.00047
2.97912
2.96057
2.9445
2.93062
2.91866
2.90838
2.89955
2.89198
2.8855
2.87996
2.87523
2.87118
2.86773
2.86477
2.86225
2.86008
2.85823
2.85664
2.85526
2.85408
2.85305
2.85215
2.85137
2.85068
2.85007
2.84953
2.84905
2.84861
2.84822
2.84786
2.84753
2.84723
2.84694
2.84668
2.84643
2.8462
2.84598
2.84577
2.84557
2.84538
2.8452
2.84502
2.84485
2.84469
2.84453
2.84437
2.84422
2.84407
2.84393
2.84378
2.84365
2.84351
2.84338
2.84325