/*--------------------------------*- C++ -*----------------------------------*\
  =========                 |
  \\      /  F ield         | OpenFOAM: The Open Source CFD Toolbox
   \\    /   O peration     | Website:  https://openfoam.org
    \\  /    A nd           | Version:  10
     \\/     M anipulation  |
\*---------------------------------------------------------------------------*/
FoamFile
{
    format      ascii;
    class       volScalarField;
    location    "0.01";
    object      k;
}
// * * * * * * * * * * * * * * * * * * * * * * * * * * * * * * * * * * * * * //

dimensions      [0 2 -2 0 0 0 0];

internalField   nonuniform List<scalar> 
6820
(
0.196709
0.190616
0.184996
0.179733
0.174814
0.170272
0.166139
0.162426
0.159126
0.156219
0.153672
0.151449
0.149498
0.147766
0.146209
0.144818
0.143648
0.142801
0.142391
0.142486
0.143051
0.143941
0.144922
0.145743
0.146206
0.146219
0.145803
0.14511
0.144173
0.14382
0.141216
0.150188
0.107734
0.201948
0.200828
0.197547
0.193928
0.190828
0.188517
0.186987
0.186104
0.185714
0.185675
0.185873
0.18621
0.1866
0.186964
0.187248
0.187441
0.187609
0.187889
0.188438
0.189366
0.190674
0.192237
0.193825
0.195176
0.196067
0.196382
0.196132
0.195444
0.194491
0.193564
0.192514
0.192686
0.190344
0.20049
0.200485
0.199133
0.197089
0.194862
0.192706
0.190726
0.188962
0.187425
0.186114
0.185015
0.184103
0.183344
0.182702
0.182156
0.181721
0.181465
0.181501
0.181947
0.182876
0.184258
0.185942
0.187682
0.1892
0.190262
0.190742
0.190642
0.190094
0.189285
0.188496
0.187851
0.187726
0.18803
0.199659
0.199116
0.19821
0.196979
0.19555
0.194026
0.192481
0.190961
0.189498
0.188114
0.186819
0.185614
0.184491
0.183438
0.182463
0.181611
0.180978
0.180695
0.180893
0.181641
0.182901
0.184509
0.186209
0.187713
0.188785
0.189296
0.189253
0.188788
0.188118
0.187505
0.187203
0.187407
0.18844
0.199429
0.198466
0.197533
0.196517
0.195408
0.194231
0.193013
0.19178
0.190551
0.189344
0.18817
0.187031
0.185925
0.184848
0.183821
0.182904
0.182209
0.18188
0.182052
0.182792
0.184054
0.185667
0.187371
0.18888
0.189963
0.190495
0.190491
0.190088
0.189511
0.189027
0.188911
0.189361
0.19068
0.199398
0.198265
0.1972
0.196166
0.195138
0.194102
0.193053
0.191998
0.190942
0.189896
0.188865
0.187848
0.186842
0.185847
0.184888
0.184034
0.183404
0.183151
0.18341
0.184243
0.185595
0.187291
0.189064
0.19063
0.191758
0.192331
0.192365
0.192002
0.191472
0.191043
0.19099
0.191523
0.192891
0.199394
0.19822
0.197099
0.196025
0.194986
0.193972
0.192977
0.191997
0.191031
0.190081
0.189147
0.188226
0.18731
0.1864
0.185522
0.18475
0.184209
0.184055
0.184422
0.18537
0.186839
0.188644
0.190516
0.192167
0.193367
0.193998
0.194078
0.193747
0.193233
0.192803
0.192727
0.193222
0.194498
0.199395
0.19821
0.197069
0.195971
0.194915
0.193895
0.192908
0.191949
0.191017
0.190111
0.189228
0.188362
0.187504
0.186652
0.185835
0.185127
0.184658
0.184584
0.185042
0.18609
0.187663
0.189573
0.191545
0.193288
0.194568
0.195263
0.195387
0.195076
0.194555
0.194086
0.193932
0.194312
0.195411
0.199395
0.198209
0.197063
0.195958
0.194892
0.193864
0.192872
0.191914
0.190989
0.190097
0.189234
0.188393
0.187563
0.186743
0.18596
0.185291
0.184866
0.184844
0.185363
0.186481
0.188133
0.190128
0.192187
0.194014
0.195369
0.196124
0.196287
0.195986
0.195441
0.194908
0.194645
0.194868
0.195749
0.199395
0.198209
0.197061
0.195953
0.194884
0.193851
0.192855
0.191895
0.190969
0.190079
0.189221
0.188388
0.187569
0.186763
0.185995
0.185344
0.184939
0.184943
0.185494
0.186654
0.188357
0.190413
0.19254
0.194436
0.195856
0.196661
0.196853
0.196552
0.19597
0.195361
0.194974
0.195026
0.195676
0.199395
0.198209
0.197061
0.195952
0.194881
0.193847
0.192849
0.191886
0.190958
0.190067
0.189208
0.188377
0.18756
0.186757
0.185994
0.185347
0.184948
0.184958
0.185522
0.186701
0.188435
0.190531
0.192708
0.194657
0.196126
0.196969
0.197177
0.196866
0.196239
0.195546
0.195033
0.194913
0.19534
0.199395
0.198208
0.197061
0.195952
0.19488
0.193845
0.192845
0.191881
0.190952
0.190059
0.189199
0.188366
0.18755
0.186746
0.185982
0.185333
0.184931
0.184938
0.185502
0.186687
0.188436
0.190557
0.192767
0.194754
0.196258
0.197125
0.197338
0.197005
0.196326
0.195547
0.19491
0.194627
0.194845
0.199395
0.198208
0.197061
0.195951
0.194879
0.193844
0.192843
0.191878
0.190948
0.190053
0.189192
0.188358
0.18754
0.186735
0.185968
0.185314
0.184905
0.184906
0.185463
0.186646
0.188401
0.190538
0.192769
0.194781
0.196306
0.197183
0.197388
0.197024
0.196287
0.19542
0.194664
0.194229
0.194258
0.199395
0.198209
0.197061
0.195951
0.194879
0.193843
0.192842
0.191875
0.190944
0.190048
0.189186
0.18835
0.18753
0.186723
0.185953
0.185294
0.184878
0.184869
0.185418
0.186597
0.188353
0.190497
0.192742
0.194768
0.196301
0.197176
0.197361
0.196957
0.196156
0.195201
0.194332
0.193757
0.193617
0.199395
0.198209
0.197061
0.195951
0.194878
0.193842
0.19284
0.191873
0.190941
0.190044
0.18918
0.188343
0.187522
0.186712
0.185939
0.185275
0.184851
0.184833
0.185374
0.186547
0.188301
0.190448
0.192699
0.194729
0.196261
0.197122
0.197278
0.196825
0.195956
0.194914
0.193938
0.193236
0.192946
0.199395
0.198209
0.197061
0.195951
0.194878
0.193841
0.192839
0.191871
0.190938
0.19004
0.189175
0.188336
0.187513
0.186701
0.185924
0.185255
0.184824
0.184799
0.185331
0.186497
0.188249
0.190396
0.192648
0.194676
0.196197
0.197034
0.197152
0.196644
0.195704
0.194575
0.193499
0.192682
0.192259
0.199395
0.198209
0.197061
0.195951
0.194878
0.193841
0.192838
0.19187
0.190935
0.190036
0.18917
0.18833
0.187505
0.18669
0.18591
0.185236
0.184799
0.184765
0.18529
0.186451
0.188198
0.190344
0.192592
0.194611
0.196114
0.196921
0.196993
0.196425
0.195412
0.194199
0.19303
0.192109
0.19157
0.199395
0.198209
0.197061
0.195951
0.194878
0.19384
0.192837
0.191868
0.190933
0.190033
0.189165
0.188323
0.187496
0.18668
0.185896
0.185218
0.184774
0.184734
0.185252
0.186407
0.188151
0.190292
0.192534
0.19454
0.196019
0.196789
0.196811
0.196179
0.195093
0.1938
0.192544
0.191529
0.190889
0.199395
0.198209
0.197061
0.195951
0.194878
0.19384
0.192836
0.191867
0.190931
0.190029
0.18916
0.188317
0.187488
0.18667
0.185883
0.1852
0.184751
0.184704
0.185216
0.186366
0.188106
0.190242
0.192475
0.194465
0.195916
0.196646
0.196613
0.195917
0.194759
0.193389
0.192053
0.190955
0.190227
0.199395
0.198209
0.197061
0.195951
0.194878
0.19384
0.192836
0.191865
0.190929
0.190026
0.189156
0.188311
0.187481
0.18666
0.18587
0.185183
0.184729
0.184676
0.185183
0.186328
0.188064
0.190195
0.192417
0.194388
0.195809
0.196495
0.196407
0.195647
0.194419
0.192977
0.191568
0.190397
0.189592
0.199395
0.198209
0.197062
0.195951
0.194878
0.193839
0.192835
0.191864
0.190927
0.190023
0.189152
0.188306
0.187473
0.18665
0.185857
0.185166
0.184707
0.18465
0.185152
0.186293
0.188025
0.190149
0.19236
0.194311
0.1957
0.196342
0.1962
0.195378
0.194083
0.192574
0.191099
0.189864
0.188994
0.199395
0.198209
0.197062
0.195952
0.194878
0.193839
0.192834
0.191863
0.190925
0.190021
0.189148
0.1883
0.187466
0.186641
0.185845
0.18515
0.184687
0.184625
0.185123
0.186261
0.187988
0.190107
0.192306
0.194235
0.195593
0.196192
0.195996
0.195114
0.193758
0.192188
0.190655
0.189363
0.188436
0.199395
0.19821
0.197062
0.195952
0.194878
0.193839
0.192834
0.191862
0.190923
0.190018
0.189144
0.188295
0.187459
0.186632
0.185833
0.185135
0.184668
0.184602
0.185096
0.18623
0.187954
0.190066
0.192253
0.194162
0.195489
0.196046
0.1958
0.194863
0.19345
0.191825
0.190241
0.1889
0.187925
0.199395
0.19821
0.197062
0.195952
0.194878
0.193839
0.192833
0.191861
0.190922
0.190015
0.189141
0.18829
0.187453
0.186623
0.185822
0.185121
0.18465
0.18458
0.18507
0.186202
0.187921
0.190027
0.192203
0.194092
0.195389
0.195908
0.195615
0.194628
0.193164
0.19149
0.189861
0.188478
0.187462
0.199395
0.19821
0.197062
0.195952
0.194878
0.193839
0.192833
0.19186
0.19092
0.190013
0.189137
0.188285
0.187447
0.186615
0.185812
0.185108
0.184633
0.184559
0.185046
0.186174
0.18789
0.18999
0.192154
0.194025
0.195295
0.195778
0.195444
0.194412
0.192904
0.191188
0.18952
0.188101
0.18705
0.199395
0.19821
0.197062
0.195952
0.194878
0.193838
0.192832
0.191859
0.190918
0.190011
0.189134
0.188281
0.187441
0.186607
0.185802
0.185095
0.184617
0.184539
0.185023
0.186147
0.187859
0.189953
0.192107
0.193962
0.195208
0.195659
0.195289
0.194217
0.19267
0.190918
0.189218
0.187768
0.186687
0.199395
0.19821
0.197062
0.195952
0.194878
0.193838
0.192832
0.191858
0.190917
0.190008
0.189131
0.188277
0.187435
0.1866
0.185792
0.185083
0.184602
0.18452
0.185
0.186121
0.187828
0.189916
0.192061
0.193901
0.195126
0.195551
0.195149
0.194045
0.192465
0.190684
0.188956
0.187481
0.186374
0.199395
0.19821
0.197062
0.195952
0.194877
0.193838
0.192831
0.191857
0.190915
0.190006
0.189127
0.188272
0.187429
0.186593
0.185784
0.185071
0.184587
0.184502
0.184978
0.186094
0.187797
0.189879
0.192015
0.193843
0.19505
0.195453
0.195026
0.193894
0.192289
0.190483
0.188732
0.187236
0.186108
0.199395
0.19821
0.197062
0.195952
0.194877
0.193837
0.192831
0.191856
0.190914
0.190004
0.189124
0.188268
0.187425
0.186587
0.185775
0.185061
0.184573
0.184485
0.184955
0.186068
0.187766
0.189842
0.19197
0.193787
0.19498
0.195365
0.194918
0.193766
0.19214
0.190314
0.188546
0.187033
0.185886
0.199395
0.19821
0.197062
0.195952
0.194877
0.193837
0.19283
0.191855
0.190912
0.190001
0.189121
0.188264
0.187419
0.18658
0.185767
0.185051
0.18456
0.184467
0.184934
0.186041
0.187734
0.189804
0.191926
0.193734
0.194916
0.195288
0.194826
0.193658
0.192017
0.190176
0.188394
0.186867
0.185705
0.199395
0.19821
0.197062
0.195952
0.194877
0.193837
0.19283
0.191855
0.190911
0.19
0.189119
0.188262
0.187416
0.186576
0.185761
0.185042
0.184549
0.184452
0.184913
0.186015
0.187702
0.189766
0.191881
0.193682
0.194857
0.195219
0.194747
0.193568
0.191916
0.190065
0.188273
0.186735
0.185561
0.199395
0.198209
0.197062
0.195951
0.194876
0.193835
0.192828
0.191853
0.190909
0.189997
0.189116
0.188258
0.187411
0.18657
0.185755
0.185034
0.184538
0.184437
0.184893
0.185989
0.187671
0.189729
0.191839
0.193635
0.194804
0.19516
0.194681
0.193495
0.191836
0.189978
0.188179
0.186633
0.185449
0.199395
0.19821
0.197063
0.195954
0.194879
0.193839
0.192832
0.191857
0.190913
0.190001
0.189119
0.18826
0.187413
0.186571
0.185755
0.185032
0.184533
0.184428
0.184878
0.185967
0.187641
0.189692
0.191796
0.193585
0.194749
0.1951
0.194617
0.193428
0.191766
0.189906
0.188104
0.186554
0.185364
0.199395
0.198209
0.197061
0.195951
0.194877
0.193838
0.192831
0.191856
0.190913
0.190001
0.189119
0.18826
0.187413
0.186571
0.185753
0.185029
0.184528
0.184419
0.184864
0.185946
0.187611
0.189653
0.191748
0.19353
0.194686
0.195033
0.194547
0.193356
0.191694
0.189835
0.188034
0.186483
0.18529
0.199396
0.198214
0.197072
0.195965
0.194894
0.193856
0.19285
0.191876
0.190933
0.190021
0.189139
0.188279
0.18743
0.186587
0.185767
0.185038
0.184529
0.18441
0.184839
0.185901
0.187544
0.189562
0.191633
0.193396
0.194539
0.19488
0.194394
0.193209
0.191557
0.189708
0.187916
0.186372
0.185181
0.199396
0.198212
0.19707
0.195969
0.194903
0.193871
0.192869
0.191897
0.190954
0.190041
0.189155
0.188289
0.187433
0.18658
0.185749
0.185005
0.184475
0.184326
0.184717
0.185734
0.187327
0.189297
0.191327
0.193059
0.194187
0.194524
0.194046
0.192875
0.191237
0.189401
0.187616
0.186072
0.184874
0.199404
0.198247
0.197126
0.196035
0.194972
0.193938
0.19293
0.191948
0.190991
0.190059
0.189149
0.188258
0.187373
0.186489
0.185621
0.184833
0.184244
0.184016
0.184307
0.185206
0.186675
0.188531
0.190473
0.192154
0.193267
0.19362
0.193176
0.192043
0.190437
0.188618
0.186834
0.185274
0.184048
0.19942
0.198281
0.197209
0.196172
0.195141
0.19411
0.19308
0.192057
0.191048
0.190061
0.189099
0.188161
0.18724
0.18633
0.185439
0.184618
0.183968
0.183636
0.183778
0.184494
0.18578
0.187487
0.189344
0.191015
0.19218
0.192618
0.192257
0.191179
0.189588
0.187745
0.185909
0.184284
0.18299
0.199659
0.198896
0.19809
0.19732
0.196632
0.196024
0.195482
0.195001
0.19458
0.194223
0.193932
0.193709
0.193548
0.193438
0.193375
0.193381
0.193516
0.193882
0.194603
0.19577
0.197398
0.199386
0.201515
0.203488
0.205005
0.205842
0.205911
0.205273
0.204114
0.202682
0.201227
0.199948
0.198954
0.205419
0.216603
0.227665
0.238509
0.249098
0.259417
0.269451
0.27919
0.288622
0.297739
0.306534
0.315
0.323127
0.33091
0.338353
0.345475
0.352299
0.358829
0.365021
0.370754
0.375843
0.380073
0.383256
0.385291
0.38619
0.386083
0.385183
0.383741
0.382001
0.380156
0.378338
0.376616
0.374985
0.336664
0.707286
1.10674
1.41497
1.50009
1.30012
0.897443
0.551129
0.490502
0.634132
0.821155
0.992748
1.12511
1.21473
1.26396
1.27472
1.24848
1.18734
1.09522
0.979208
0.8499
0.72014
0.60194
0.503127
0.425889
0.367989
0.325265
0.293631
0.269929
0.25192
0.238028
0.227129
0.218433
0.211395
0.205643
0.200916
0.197018
0.193798
0.191136
0.188937
0.187124
0.185631
0.184406
0.183404
0.182589
0.181927
0.181394
0.180966
0.180626
0.180356
0.180146
0.179983
0.179858
0.179764
0.179696
0.179647
0.179613
0.179592
0.179579
0.179574
0.179575
0.179579
0.179585
0.179594
0.179603
0.179613
0.179623
0.179633
0.179642
0.179651
0.179659
0.179666
0.179672
0.179678
0.179682
0.179686
0.17969
0.179692
0.179694
0.179695
0.179696
0.179696
0.179696
0.179696
0.179695
0.179694
0.179692
0.17969
0.179689
0.179686
0.179684
0.179682
0.179679
0.179677
0.179674
0.179671
0.179669
0.179666
0.179663
0.179657
0.193523
0.215498
0.252469
0.293215
0.314212
0.304396
0.306856
0.37009
0.481283
0.618774
0.763934
0.894775
0.998828
1.07286
1.11657
1.12979
1.11242
1.06515
0.990516
0.894006
0.784404
0.672678
0.56939
0.481796
0.412392
0.35969
0.320286
0.290701
0.268223
0.250944
0.237511
0.226928
0.218468
0.211613
0.206002
0.201377
0.197549
0.194371
0.191729
0.189532
0.187707
0.186191
0.184936
0.183898
0.183044
0.182342
0.181768
0.181301
0.180923
0.180618
0.180373
0.180178
0.180025
0.179904
0.179811
0.17974
0.179686
0.179646
0.179617
0.179597
0.179584
0.179576
0.179572
0.17957
0.179571
0.179573
0.179576
0.179579
0.179583
0.179587
0.17959
0.179593
0.179596
0.179598
0.1796
0.179601
0.179602
0.179603
0.179603
0.179603
0.179602
0.179601
0.1796
0.179598
0.179597
0.179595
0.179593
0.17959
0.179588
0.179585
0.179583
0.17958
0.179577
0.179574
0.179571
0.179568
0.179565
0.179562
0.17956
0.179553
0.188351
0.192417
0.2019
0.215584
0.23372
0.262244
0.309845
0.381079
0.475552
0.585698
0.697508
0.798156
0.880375
0.941426
0.980106
0.995224
0.985634
0.950895
0.892294
0.81384
0.722592
0.627756
0.538517
0.461531
0.399512
0.351661
0.31533
0.28765
0.26634
0.249781
0.236808
0.226543
0.218319
0.211649
0.206183
0.201671
0.197926
0.194808
0.192204
0.190028
0.188208
0.186686
0.185416
0.184356
0.183475
0.182742
0.182136
0.181636
0.181224
0.180886
0.18061
0.180385
0.180203
0.180056
0.179937
0.179843
0.179768
0.179708
0.179662
0.179625
0.179597
0.179576
0.179559
0.179547
0.179537
0.17953
0.179525
0.179521
0.179518
0.179516
0.179514
0.179512
0.179511
0.179509
0.179508
0.179506
0.179504
0.179502
0.1795
0.179498
0.179496
0.179493
0.179491
0.179488
0.179485
0.179482
0.179479
0.179476
0.179473
0.17947
0.179467
0.179464
0.179461
0.179457
0.179454
0.179451
0.179448
0.179444
0.179442
0.179435
0.189957
0.193194
0.200249
0.213618
0.235661
0.268965
0.316131
0.379056
0.456809
0.54342
0.629767
0.707712
0.772653
0.822699
0.856602
0.872795
0.869531
0.845556
0.801109
0.738871
0.664324
0.585042
0.508897
0.441902
0.386879
0.343626
0.310214
0.284368
0.264211
0.248384
0.235889
0.225952
0.217969
0.211486
0.206168
0.201774
0.198122
0.195075
0.192524
0.190384
0.188586
0.187075
0.185805
0.184738
0.183843
0.183093
0.182466
0.181942
0.181505
0.181141
0.180839
0.180589
0.180382
0.180211
0.180071
0.179955
0.17986
0.179782
0.179718
0.179666
0.179623
0.179588
0.17956
0.179536
0.179516
0.1795
0.179487
0.179475
0.179465
0.179457
0.179449
0.179443
0.179437
0.179431
0.179426
0.179421
0.179417
0.179412
0.179408
0.179404
0.1794
0.179396
0.179392
0.179388
0.179384
0.17938
0.179376
0.179373
0.179369
0.179365
0.179361
0.179358
0.179354
0.17935
0.179347
0.179343
0.17934
0.179336
0.179333
0.179327
0.193014
0.19734
0.205399
0.219211
0.240388
0.270798
0.312343
0.365634
0.428785
0.497113
0.56436
0.625203
0.676743
0.717766
0.747279
0.763769
0.765294
0.750123
0.717703
0.669595
0.609881
0.544645
0.48051
0.422814
0.374379
0.335499
0.304892
0.280838
0.261836
0.246762
0.234765
0.225169
0.217433
0.211137
0.205968
0.201693
0.198138
0.195167
0.192677
0.190583
0.188819
0.187331
0.186075
0.185015
0.184119
0.183364
0.182727
0.18219
0.181738
0.181357
0.181038
0.180769
0.180544
0.180355
0.180197
0.180064
0.179953
0.17986
0.179782
0.179716
0.179661
0.179614
0.179574
0.179541
0.179512
0.179488
0.179466
0.179448
0.179432
0.179418
0.179405
0.179394
0.179384
0.179375
0.179366
0.179359
0.179351
0.179345
0.179338
0.179332
0.179327
0.179321
0.179316
0.179311
0.179306
0.179301
0.179296
0.179292
0.179287
0.179283
0.179279
0.179275
0.179271
0.179267
0.179263
0.179259
0.179256
0.179252
0.179249
0.179242
0.195496
0.200134
0.20798
0.220826
0.240159
0.267192
0.302733
0.346641
0.397238
0.451077
0.503804
0.551809
0.593135
0.62697
0.652604
0.668775
0.673639
0.6653
0.6427
0.606519
0.559638
0.506807
0.453482
0.404308
0.362018
0.327281
0.299379
0.277084
0.259244
0.244944
0.233466
0.224225
0.216743
0.210636
0.205614
0.201457
0.197996
0.195103
0.192676
0.190632
0.188908
0.187451
0.186218
0.185173
0.184287
0.183536
0.1829
0.18236
0.181902
0.181514
0.181185
0.180906
0.180669
0.180469
0.180299
0.180154
0.180032
0.179927
0.179839
0.179763
0.179698
0.179642
0.179594
0.179553
0.179517
0.179486
0.179459
0.179435
0.179414
0.179396
0.179379
0.179364
0.179351
0.179338
0.179327
0.179317
0.179308
0.179299
0.179291
0.179283
0.179276
0.179269
0.179263
0.179257
0.179251
0.179246
0.17924
0.179235
0.17923
0.179225
0.179221
0.179216
0.179212
0.179208
0.179204
0.1792
0.179196
0.179192
0.179189
0.179181
0.197071
0.201686
0.209107
0.220664
0.237465
0.260349
0.289765
0.325383
0.365749
0.408297
0.449985
0.48831
0.521868
0.550055
0.572349
0.587762
0.594709
0.591372
0.576451
0.549996
0.513908
0.471773
0.427979
0.386482
0.349849
0.319013
0.293711
0.273147
0.256473
0.242963
0.232024
0.223154
0.215933
0.210018
0.205143
0.201101
0.197732
0.194915
0.192549
0.190556
0.188873
0.18745
0.186243
0.185219
0.184349
0.183609
0.18298
0.182444
0.181988
0.181599
0.181267
0.180985
0.180743
0.180537
0.180361
0.18021
0.180081
0.17997
0.179875
0.179793
0.179722
0.179661
0.179607
0.179561
0.17952
0.179485
0.179453
0.179426
0.179401
0.179379
0.17936
0.179342
0.179326
0.179312
0.179299
0.179287
0.179276
0.179266
0.179256
0.179248
0.179239
0.179232
0.179225
0.179218
0.179212
0.179205
0.1792
0.179194
0.179189
0.179184
0.179179
0.179174
0.17917
0.179165
0.179161
0.179157
0.179153
0.179149
0.179146
0.179138
0.197765
0.202063
0.208779
0.218859
0.233124
0.25215
0.276159
0.304782
0.336882
0.370618
0.403861
0.434828
0.462445
0.486192
0.505638
0.520018
0.528048
0.528133
0.518946
0.500141
0.472863
0.439719
0.404146
0.369442
0.337947
0.31075
0.287938
0.26907
0.253559
0.240854
0.23047
0.221985
0.215035
0.209318
0.20459
0.200661
0.197383
0.194637
0.19233
0.190386
0.188744
0.187353
0.186174
0.185173
0.184321
0.183596
0.182977
0.18245
0.182
0.181615
0.181286
0.181004
0.180763
0.180556
0.180378
0.180225
0.180094
0.17998
0.179882
0.179797
0.179723
0.179658
0.179602
0.179553
0.17951
0.179471
0.179438
0.179408
0.179381
0.179358
0.179336
0.179317
0.1793
0.179284
0.17927
0.179257
0.179245
0.179234
0.179224
0.179215
0.179206
0.179198
0.17919
0.179183
0.179176
0.17917
0.179164
0.179158
0.179152
0.179147
0.179142
0.179137
0.179132
0.179128
0.179123
0.179119
0.179115
0.179111
0.179108
0.1791
0.197791
0.201624
0.207543
0.216198
0.22816
0.243812
0.263266
0.286205
0.31179
0.338714
0.365483
0.390801
0.413812
0.434027
0.451046
0.464254
0.472643
0.474895
0.469793
0.456791
0.436491
0.410714
0.382083
0.353284
0.326391
0.302556
0.282111
0.264894
0.250539
0.238645
0.22883
0.220743
0.214074
0.20856
0.203982
0.200168
0.196978
0.194303
0.192052
0.190155
0.18855
0.187192
0.186039
0.18506
0.184226
0.183516
0.182911
0.182394
0.181952
0.181574
0.18125
0.180973
0.180735
0.18053
0.180353
0.180201
0.18007
0.179956
0.179857
0.179772
0.179697
0.179632
0.179575
0.179525
0.17948
0.179441
0.179407
0.179376
0.179349
0.179324
0.179302
0.179282
0.179265
0.179248
0.179233
0.17922
0.179208
0.179196
0.179186
0.179176
0.179167
0.179159
0.179151
0.179143
0.179136
0.17913
0.179124
0.179118
0.179112
0.179107
0.179101
0.179097
0.179092
0.179087
0.179083
0.179078
0.179074
0.17907
0.179067
0.179059
0.197378
0.200694
0.205814
0.213175
0.22316
0.236017
0.251793
0.270241
0.290758
0.312431
0.334208
0.355133
0.374506
0.391858
0.406797
0.418803
0.427081
0.430582
0.428262
0.419519
0.404597
0.384719
0.361834
0.338085
0.31526
0.294496
0.276281
0.260659
0.247443
0.236361
0.227122
0.219444
0.213067
0.207763
0.203341
0.199643
0.196543
0.193937
0.191742
0.189888
0.18832
0.186991
0.185864
0.184905
0.18409
0.183395
0.182802
0.182296
0.181864
0.181493
0.181176
0.180904
0.18067
0.180469
0.180296
0.180146
0.180017
0.179905
0.179807
0.179723
0.179649
0.179584
0.179528
0.179478
0.179434
0.179395
0.179361
0.17933
0.179303
0.179278
0.179256
0.179236
0.179218
0.179202
0.179187
0.179173
0.179161
0.17915
0.179139
0.179129
0.17912
0.179112
0.179104
0.179096
0.179089
0.179083
0.179076
0.17907
0.179065
0.179059
0.179054
0.179049
0.179044
0.17904
0.179035
0.179031
0.179027
0.179023
0.179019
0.179012
0.196707
0.199516
0.203897
0.210135
0.218476
0.229072
0.241937
0.256884
0.273487
0.291109
0.309005
0.326462
0.342903
0.357888
0.37103
0.381871
0.38977
0.393899
0.393403
0.387705
0.376838
0.361593
0.343387
0.323895
0.304623
0.286635
0.270501
0.256405
0.2443
0.234023
0.225364
0.218103
0.212025
0.206939
0.202677
0.1991
0.196091
0.193555
0.191415
0.189605
0.188073
0.186773
0.185669
0.184731
0.183932
0.183251
0.182671
0.182175
0.181752
0.181389
0.181079
0.180813
0.180584
0.180387
0.180218
0.180072
0.179945
0.179836
0.179741
0.179658
0.179586
0.179522
0.179467
0.179418
0.179375
0.179337
0.179303
0.179273
0.179246
0.179222
0.179201
0.179181
0.179163
0.179147
0.179133
0.179119
0.179107
0.179096
0.179085
0.179076
0.179067
0.179058
0.17905
0.179043
0.179036
0.179029
0.179023
0.179017
0.179012
0.179006
0.179001
0.178996
0.178991
0.178987
0.178982
0.178978
0.178974
0.178969
0.178966
0.178958
0.195904
0.198248
0.201971
0.207258
0.214255
0.223047
0.233625
0.245851
0.259425
0.273902
0.288747
0.303424
0.317458
0.330449
0.342025
0.351771
0.359158
0.363527
0.364189
0.360633
0.35278
0.341125
0.326684
0.31074
0.294537
0.279031
0.264817
0.252168
0.241137
0.231651
0.22357
0.21673
0.210959
0.206096
0.202
0.198547
0.195632
0.193168
0.191084
0.189318
0.18782
0.186549
0.185468
0.184549
0.183766
0.1831
0.182531
0.182045
0.18163
0.181276
0.180972
0.180712
0.180488
0.180296
0.180131
0.179988
0.179865
0.179758
0.179666
0.179585
0.179515
0.179453
0.1794
0.179352
0.179311
0.179274
0.179241
0.179212
0.179186
0.179162
0.179141
0.179122
0.179105
0.179089
0.179075
0.179062
0.17905
0.179039
0.179029
0.179019
0.17901
0.179002
0.178994
0.178987
0.17898
0.178974
0.178967
0.178961
0.178956
0.17895
0.178945
0.17894
0.178936
0.178931
0.178926
0.178922
0.178918
0.178914
0.17891
0.178903
0.195041
0.196973
0.200128
0.20462
0.210525
0.217878
0.226659
0.236762
0.247974
0.259982
0.2724
0.284818
0.29685
0.308138
0.318338
0.327073
0.333895
0.338272
0.339646
0.337585
0.331958
0.323067
0.311629
0.29862
0.285043
0.271737
0.259277
0.247983
0.23798
0.229263
0.221754
0.215334
0.209873
0.20524
0.201314
0.197988
0.19517
0.19278
0.190753
0.189032
0.18757
0.186326
0.185269
0.184369
0.183602
0.182948
0.182391
0.181915
0.181509
0.181161
0.180864
0.180609
0.180391
0.180203
0.180042
0.179903
0.179783
0.179679
0.179589
0.179511
0.179443
0.179384
0.179331
0.179286
0.179245
0.17921
0.179178
0.17915
0.179125
0.179102
0.179082
0.179063
0.179047
0.179031
0.179018
0.179005
0.178993
0.178982
0.178972
0.178963
0.178954
0.178946
0.178939
0.178932
0.178925
0.178918
0.178912
0.178906
0.178901
0.178895
0.17889
0.178885
0.178881
0.178876
0.178872
0.178867
0.178863
0.178859
0.178855
0.178848
0.194157
0.195732
0.198404
0.202235
0.207252
0.213455
0.220813
0.229244
0.238596
0.248645
0.259109
0.269674
0.280023
0.289847
0.298832
0.306641
0.312889
0.317136
0.318931
0.317909
0.313928
0.30716
0.29811
0.287513
0.276169
0.264793
0.253918
0.243882
0.234852
0.226878
0.219927
0.213925
0.208775
0.204374
0.200622
0.197427
0.194707
0.192394
0.190425
0.18875
0.187324
0.186109
0.185075
0.184194
0.183442
0.182802
0.182255
0.181789
0.181391
0.18105
0.180759
0.18051
0.180297
0.180114
0.179956
0.179821
0.179704
0.179603
0.179516
0.17944
0.179374
0.179316
0.179266
0.179222
0.179183
0.179148
0.179118
0.179091
0.179066
0.179045
0.179025
0.179007
0.178991
0.178976
0.178963
0.178951
0.178939
0.178929
0.178919
0.17891
0.178902
0.178894
0.178886
0.178879
0.178873
0.178866
0.17886
0.178854
0.178849
0.178844
0.178839
0.178834
0.178829
0.178824
0.17882
0.178815
0.178811
0.178807
0.178804
0.178796
0.193275
0.194542
0.196806
0.200089
0.204381
0.209657
0.21588
0.222981
0.230852
0.23933
0.248206
0.257237
0.266165
0.274725
0.282637
0.289604
0.295291
0.299331
0.301353
0.301054
0.29829
0.293155
0.286003
0.277382
0.267925
0.25823
0.248775
0.239893
0.231777
0.22451
0.218102
0.212511
0.207671
0.203503
0.199926
0.196864
0.194247
0.192011
0.190102
0.188474
0.187084
0.185899
0.184888
0.184026
0.18329
0.182662
0.182127
0.18167
0.181279
0.180946
0.180661
0.180417
0.180208
0.180029
0.179876
0.179743
0.17963
0.179532
0.179447
0.179373
0.179309
0.179254
0.179205
0.179162
0.179125
0.179091
0.179062
0.179036
0.179012
0.178991
0.178973
0.178955
0.17894
0.178926
0.178913
0.178901
0.17889
0.17888
0.17887
0.178861
0.178853
0.178845
0.178838
0.178831
0.178825
0.178818
0.178812
0.178807
0.178801
0.178796
0.178791
0.178786
0.178781
0.178777
0.178772
0.178768
0.178764
0.178759
0.178756
0.178748
0.192406
0.193411
0.195331
0.198159
0.201857
0.206382
0.211689
0.217722
0.224401
0.231606
0.23918
0.246935
0.254659
0.262126
0.269094
0.275297
0.28045
0.284241
0.286364
0.286563
0.284703
0.280828
0.275183
0.268178
0.260308
0.252066
0.243873
0.236042
0.228774
0.222177
0.21629
0.211099
0.206565
0.20263
0.19923
0.196302
0.193788
0.191631
0.189784
0.188203
0.186851
0.185695
0.184708
0.183865
0.183145
0.18253
0.182005
0.181557
0.181175
0.180848
0.180569
0.18033
0.180126
0.179951
0.179801
0.179672
0.179561
0.179466
0.179383
0.179312
0.17925
0.179196
0.179149
0.179108
0.179071
0.179039
0.179011
0.178986
0.178963
0.178943
0.178925
0.178908
0.178893
0.17888
0.178867
0.178856
0.178845
0.178835
0.178826
0.178817
0.178809
0.178802
0.178794
0.178788
0.178781
0.178775
0.178769
0.178764
0.178758
0.178753
0.178748
0.178743
0.178738
0.178734
0.178729
0.178725
0.178721
0.178716
0.178713
0.178705
0.191559
0.192343
0.193974
0.196423
0.199631
0.203541
0.208104
0.213272
0.218982
0.225146
0.231646
0.238334
0.245036
0.25156
0.257695
0.263214
0.267866
0.27139
0.273529
0.274065
0.272876
0.269975
0.265529
0.259843
0.253303
0.246312
0.239231
0.232347
0.225861
0.219893
0.214502
0.209699
0.205464
0.201758
0.198535
0.195743
0.193332
0.191255
0.18947
0.187938
0.186624
0.185498
0.184535
0.183711
0.183007
0.182405
0.181891
0.181452
0.181077
0.180756
0.180483
0.180249
0.180049
0.179878
0.179732
0.179606
0.179498
0.179405
0.179325
0.179256
0.179196
0.179144
0.179098
0.179058
0.179023
0.178992
0.178965
0.17894
0.178919
0.178899
0.178882
0.178866
0.178851
0.178838
0.178826
0.178815
0.178805
0.178795
0.178786
0.178778
0.17877
0.178762
0.178755
0.178749
0.178742
0.178736
0.17873
0.178725
0.178719
0.178714
0.178709
0.178704
0.1787
0.178695
0.178691
0.178686
0.178682
0.178678
0.178674
0.178666
0.190744
0.19134
0.192728
0.19486
0.197662
0.201066
0.205019
0.209478
0.214394
0.219703
0.225311
0.231102
0.236934
0.242644
0.248051
0.252957
0.257148
0.260401
0.262498
0.263258
0.262567
0.260419
0.256928
0.252318
0.246889
0.240968
0.234862
0.228826
0.223054
0.217671
0.212749
0.208317
0.204373
0.200893
0.197844
0.195187
0.19288
0.190884
0.189162
0.187678
0.186403
0.185307
0.184368
0.183564
0.182875
0.182286
0.181782
0.181352
0.180985
0.180671
0.180403
0.180174
0.179979
0.179811
0.179668
0.179546
0.17944
0.17935
0.179272
0.179205
0.179146
0.179096
0.179051
0.179013
0.178979
0.178949
0.178923
0.178899
0.178878
0.17886
0.178843
0.178827
0.178813
0.178801
0.178789
0.178778
0.178768
0.178759
0.17875
0.178742
0.178734
0.178727
0.17872
0.178713
0.178707
0.178701
0.178695
0.17869
0.178685
0.178679
0.178674
0.17867
0.178665
0.17866
0.178656
0.178651
0.178647
0.178643
0.17864
0.178632
0.189967
0.190404
0.191587
0.193454
0.195918
0.198902
0.202351
0.206225
0.210487
0.215085
0.219949
0.224985
0.230075
0.235083
0.239853
0.244215
0.247984
0.250971
0.252993
0.253892
0.253569
0.252004
0.249272
0.24554
0.241037
0.236028
0.23077
0.22549
0.220365
0.215522
0.211041
0.206962
0.203297
0.200037
0.19716
0.194636
0.192433
0.190518
0.188859
0.187424
0.186187
0.185123
0.184208
0.183423
0.18275
0.182173
0.18168
0.181259
0.180899
0.180592
0.180329
0.180105
0.179913
0.17975
0.17961
0.17949
0.179387
0.179299
0.179223
0.179158
0.179101
0.179052
0.179009
0.178972
0.178939
0.17891
0.178885
0.178862
0.178842
0.178824
0.178807
0.178793
0.178779
0.178767
0.178755
0.178745
0.178735
0.178726
0.178718
0.17871
0.178702
0.178695
0.178688
0.178682
0.178676
0.17867
0.178664
0.178659
0.178653
0.178648
0.178643
0.178638
0.178634
0.178629
0.178625
0.17862
0.178616
0.178612
0.178608
0.178601
0.189235
0.189537
0.190548
0.192191
0.194371
0.197004
0.200034
0.203423
0.207139
0.211145
0.215385
0.219782
0.224239
0.228642
0.232856
0.236736
0.240124
0.242857
0.244781
0.24576
0.245707
0.244592
0.242465
0.239447
0.235715
0.231481
0.226959
0.222346
0.217804
0.213456
0.209385
0.20564
0.202243
0.199195
0.196485
0.194093
0.191993
0.190158
0.188561
0.187176
0.185978
0.184944
0.184053
0.183287
0.18263
0.182066
0.181584
0.181171
0.180818
0.180517
0.18026
0.18004
0.179853
0.179692
0.179555
0.179438
0.179338
0.179252
0.179178
0.179114
0.179059
0.179012
0.17897
0.178934
0.178903
0.178875
0.17885
0.178828
0.178809
0.178791
0.178775
0.178761
0.178748
0.178736
0.178725
0.178715
0.178705
0.178697
0.178688
0.178681
0.178673
0.178666
0.17866