/*--------------------------------*- C++ -*----------------------------------*\
  =========                 |
  \\      /  F ield         | OpenFOAM: The Open Source CFD Toolbox
   \\    /   O peration     | Website:  https://openfoam.org
    \\  /    A nd           | Version:  10
     \\/     M anipulation  |
\*---------------------------------------------------------------------------*/
FoamFile
{
    format      ascii;
    class       volScalarField;
    location    "0.01";
    object      nut;
}
// * * * * * * * * * * * * * * * * * * * * * * * * * * * * * * * * * * * * * //

dimensions      [0 2 -1 0 0 0 0];

internalField   nonuniform List<scalar> 
6820
(
0.000149483
0.000144853
0.000140583
0.000136583
0.000132845
0.000129394
0.000126253
0.000123431
0.000120924
0.000118714
0.000116779
0.00011509
0.00011361
0.000112297
0.000111118
0.00011006
0.00010916
0.000108491
0.000108142
0.000108169
0.000108561
0.000109217
0.00010997
0.000110627
0.000111033
0.000111103
0.000110841
0.000110352
0.000109656
0.000109384
0.000107384
0.000114172
8.1863e-05
0.000729188
0.000532528
0.000448296
0.000400137
0.00036895
0.000347428
0.000331899
0.000320272
0.000311277
0.000304115
0.000298267
0.000293385
0.000289226
0.000285617
0.00028245
0.000279672
0.000277287
0.000275388
0.000274132
0.000273641
0.000273933
0.000274895
0.000276298
0.00027786
0.000279324
0.000280529
0.000281441
0.000282151
0.000282829
0.000283741
0.000284992
0.000287234
0.000290087
0.000976786
0.000872214
0.000781754
0.000711552
0.000657817
0.000616037
0.000582781
0.000555697
0.000533205
0.000514228
0.000498012
0.000484011
0.000471825
0.000461167
0.00045185
0.000443784
0.000436966
0.000431481
0.000427427
0.000424857
0.000423715
0.000423802
0.000424798
0.000426332
0.000428075
0.000429821
0.000431527
0.000433318
0.000435414
0.000438188
0.000441868
0.000447144
0.000453905
0.00101348
0.000988218
0.000949385
0.000906303
0.000864707
0.000826908
0.00079339
0.000763894
0.000737932
0.000715001
0.000694649
0.000676493
0.000660225
0.00064562
0.000632539
0.00062098
0.00061104
0.000602846
0.000596512
0.00059207
0.000589425
0.000588332
0.000588435
0.000589338
0.000590708
0.000592354
0.000594271
0.000596634
0.000599734
0.00060397
0.000609714
0.000617485
0.000627637
0.00101671
0.00101241
0.00100192
0.000985706
0.000965745
0.000944016
0.000921962
0.00090047
0.000880013
0.000860806
0.000842904
0.00082628
0.000810875
0.000796654
0.000783668
0.000772042
0.000761966
0.000753642
0.000747209
0.000742682
0.000739923
0.000738649
0.000738487
0.000739053
0.000740051
0.000741349
0.000743012
0.000745285
0.000748526
0.000753157
0.000759593
0.000768238
0.000779565
0.00101676
0.00101591
0.00101359
0.00100904
0.00100209
0.000993063
0.000982478
0.000970897
0.000958798
0.000946545
0.000934391
0.000922496
0.000910987
0.000899999
0.000889723
0.000880425
0.000872417
0.000865978
0.00086127
0.000858276
0.000856794
0.000856483
0.000856929
0.000857751
0.000858685
0.000859663
0.000860832
0.000862514
0.000865141
0.000869171
0.000875042
0.000883094
0.000893759
0.00101671
0.00101623
0.00101553
0.00101429
0.00101222
0.00100916
0.00100511
0.00100015
0.000994461
0.000988208
0.000981551
0.000974627
0.000967569
0.00096055
0.00095383
0.000947763
0.000942743
0.000939106
0.000937017
0.000936409
0.000937
0.000938359
0.000940012
0.000941551
0.000942732
0.000943537
0.000944182
0.00094507
0.000946702
0.000949586
0.000954182
0.000960827
0.000969885
0.0010167
0.00101622
0.00101574
0.00101518
0.00101444
0.00101339
0.00101196
0.0010101
0.00100781
0.00100511
0.00100203
0.000998623
0.00099494
0.000991126
0.00098744
0.000984261
0.000982021
0.000981079
0.000981584
0.000983412
0.000986185
0.000989373
0.000992421
0.000994877
0.000996493
0.00099728
0.000997507
0.00099764
0.000998243
0.000999874
0.00100302
0.00100804
0.00101525
0.0010167
0.00101621
0.00101575
0.00101529
0.00101482
0.00101428
0.00101366
0.00101289
0.00101197
0.00101087
0.00100956
0.00100804
0.0010063
0.00100445
0.00100274
0.00100153
0.00100126
0.00100232
0.00100482
0.00100858
0.00101315
0.0010179
0.00102219
0.00102552
0.00102762
0.00102851
0.00102847
0.00102803
0.00102778
0.00102833
0.00103019
0.00103373
0.00103926
0.0010167
0.00101621
0.00101574
0.00101529
0.00101486
0.00101443
0.00101399
0.00101354
0.00101305
0.00101252
0.00101191
0.00101119
0.00101035
0.00100947
0.00100877
0.00100863
0.00100951
0.00101175
0.00101549
0.00102051
0.0010263
0.00103216
0.00103737
0.0010414
0.00104393
0.00104496
0.0010448
0.00104398
0.00104313
0.00104286
0.00104371
0.00104607
0.00105023
0.0010167
0.00101621
0.00101574
0.00101529
0.00101485
0.00101444
0.00101404
0.00101365
0.00101328
0.00101291
0.00101252
0.00101208
0.00101158
0.00101109
0.00101082
0.00101116
0.00101256
0.00101539
0.00101976
0.00102546
0.00103194
0.00103846
0.00104428
0.00104878
0.00105163
0.00105281
0.00105262
0.00105157
0.00105031
0.00104947
0.00104958
0.00105104
0.00105413
0.0010167
0.00101621
0.00101574
0.00101529
0.00101485
0.00101443
0.00101404
0.00101366
0.00101331
0.00101298
0.00101265
0.00101229
0.00101189
0.00101152
0.00101141
0.00101191
0.0010135
0.00101655
0.00102119
0.00102719
0.001034
0.00104087
0.00104702
0.00105181
0.00105488
0.00105619
0.00105599
0.00105481
0.00105327
0.00105202
0.00105158
0.00105235
0.00105461
0.0010167
0.00101621
0.00101574
0.00101529
0.00101485
0.00101443
0.00101403
0.00101365
0.0010133
0.00101298
0.00101266
0.00101232
0.00101194
0.00101161
0.00101153
0.00101207
0.0010137
0.0010168
0.00102151
0.00102761
0.00103456
0.00104158
0.00104791
0.00105287
0.00105608
0.00105746
0.00105726
0.00105597
0.00105423
0.00105265
0.00105178
0.00105201
0.00105359
0.0010167
0.00101621
0.00101574
0.00101529
0.00101485
0.00101443
0.00101403
0.00101365
0.00101329
0.00101297
0.00101265
0.00101231
0.00101193
0.0010116
0.00101152
0.00101206
0.00101368
0.00101677
0.00102147
0.00102758
0.00103455
0.00104165
0.00104805
0.00105311
0.00105639
0.00105781
0.00105758
0.0010562
0.00105428
0.00105243
0.00105119
0.00105095
0.00105195
0.0010167
0.00101621
0.00101574
0.00101528
0.00101485
0.00101443
0.00101402
0.00101364
0.00101329
0.00101296
0.00101263
0.00101229
0.00101192
0.00101158
0.00101149
0.00101201
0.0010136
0.00101665
0.00102132
0.0010274
0.00103438
0.00104148
0.00104793
0.00105302
0.00105634
0.00105776
0.00105749
0.001056
0.0010539
0.0010518
0.00105023
0.00104957
0.00105008
0.0010167
0.00101621
0.00101574
0.00101528
0.00101485
0.00101442
0.00101402
0.00101364
0.00101328
0.00101295
0.00101262
0.00101227
0.0010119
0.00101155
0.00101145
0.00101195
0.00101351
0.00101653
0.00102115
0.0010272
0.00103415
0.00104125
0.00104771
0.00105281
0.00105613
0.00105752
0.00105719
0.00105558
0.00105329
0.00105095
0.00104908
0.00104806
0.00104813
0.0010167
0.00101621
0.00101574
0.00101528
0.00101485
0.00101442
0.00101402
0.00101363
0.00101327
0.00101294
0.00101261
0.00101226
0.00101188
0.00101153
0.00101141
0.0010119
0.00101343
0.00101641
0.00102099
0.001027
0.00103392
0.00104101
0.00104745
0.00105255
0.00105584
0.00105718
0.00105676
0.00105501
0.00105255
0.00104998
0.00104783
0.00104648
0.00104616
0.0010167
0.00101621
0.00101574
0.00101529
0.00101485
0.00101442
0.00101402
0.00101363
0.00101327
0.00101293
0.0010126
0.00101225
0.00101186
0.0010115
0.00101138
0.00101185
0.00101335
0.00101629
0.00102084
0.00102681
0.0010337
0.00104076
0.00104718
0.00105226
0.00105551
0.00105678
0.00105625
0.00105437
0.00105172
0.00104893
0.00104652
0.00104488
0.00104422
0.0010167
0.00101621
0.00101574
0.00101529
0.00101485
0.00101442
0.00101401
0.00101363
0.00101326
0.00101292
0.00101259
0.00101223
0.00101184
0.00101148
0.00101135
0.0010118
0.00101328
0.00101619
0.0010207
0.00102663
0.00103349
0.00104052
0.00104692
0.00105195
0.00105515
0.00105634
0.0010557
0.00105366
0.00105084
0.00104784
0.0010452
0.00104329
0.00104233
0.0010167
0.00101621
0.00101574
0.00101529
0.00101485
0.00101442
0.00101401
0.00101362
0.00101326
0.00101292
0.00101258
0.00101222
0.00101182
0.00101146
0.00101131
0.00101175
0.00101321
0.00101609
0.00102056
0.00102647
0.00103329
0.00104029
0.00104665
0.00105164
0.00105477
0.00105587
0.00105511
0.00105293
0.00104994
0.00104675
0.00104389
0.00104174
0.00104051
0.0010167
0.00101621
0.00101574
0.00101529
0.00101485
0.00101442
0.00101401
0.00101362
0.00101326
0.00101291
0.00101257
0.00101221
0.00101181
0.00101144
0.00101128
0.00101171
0.00101314
0.001016
0.00102044
0.00102631
0.0010331
0.00104007
0.00104639
0.00105133
0.00105439
0.0010554
0.00105452
0.0010522
0.00104904
0.00104567
0.00104262
0.00104026
0.0010388
0.0010167
0.00101621
0.00101574
0.00101529
0.00101485
0.00101442
0.00101401
0.00101362
0.00101325
0.0010129
0.00101256
0.0010122
0.00101179
0.00101142
0.00101126
0.00101166
0.00101308
0.00101592
0.00102033
0.00102617
0.00103293
0.00103986
0.00104614
0.00105102
0.00105401
0.00105493
0.00105394
0.00105148
0.00104818
0.00104465
0.00104142
0.00103887
0.00103721
0.0010167
0.00101621
0.00101574
0.00101529
0.00101485
0.00101442
0.00101401
0.00101362
0.00101325
0.0010129
0.00101255
0.00101218
0.00101178
0.0010114
0.00101123
0.00101163
0.00101303
0.00101584
0.00102023
0.00102604
0.00103276
0.00103966
0.00104589
0.00105073
0.00105365
0.00105448
0.00105338
0.0010508
0.00104736
0.00104368
0.0010403
0.00103758
0.00103574
0.0010167
0.00101621
0.00101574
0.00101529
0.00101485
0.00101442
0.00101401
0.00101362
0.00101325
0.00101289
0.00101255
0.00101218
0.00101177
0.00101138
0.00101121
0.00101159
0.00101298
0.00101577
0.00102013
0.00102591
0.0010326
0.00103947
0.00104566
0.00105045
0.0010533
0.00105405
0.00105285
0.00105017
0.00104661
0.0010428
0.00103928
0.00103642
0.00103442
0.0010167
0.00101621
0.00101574
0.00101529
0.00101485
0.00101442
0.00101401
0.00101362
0.00101324
0.00101289
0.00101254
0.00101217
0.00101175
0.00101136
0.00101118
0.00101156
0.00101293
0.0010157
0.00102004
0.00102579
0.00103245
0.00103928
0.00104544
0.00105018
0.00105298
0.00105366
0.00105237
0.00104959
0.00104592
0.001042
0.00103837
0.00103538
0.00103324
0.0010167
0.00101621
0.00101574
0.00101529
0.00101485
0.00101442
0.00101401
0.00101361
0.00101324
0.00101288
0.00101253
0.00101216
0.00101174
0.00101135
0.00101116
0.00101153
0.00101289
0.00101563
0.00101995
0.00102567
0.00103231
0.00103911
0.00104523
0.00104993
0.00105268
0.00105329
0.00105194
0.00104907
0.00104532
0.00104131
0.00103757
0.00103447
0.00103221
0.0010167
0.00101621
0.00101574
0.00101529
0.00101485
0.00101442
0.00101401
0.00101361
0.00101324
0.00101288
0.00101253
0.00101215
0.00101173
0.00101133
0.00101114
0.0010115
0.00101284
0.00101557
0.00101986
0.00102556
0.00103217
0.00103893
0.00104503
0.00104969
0.0010524
0.00105297
0.00105155
0.00104862
0.0010448
0.00104071
0.00103688
0.00103369
0.00103132
0.0010167
0.00101621
0.00101574
0.00101529
0.00101485
0.00101442
0.00101401
0.00101361
0.00101323
0.00101288
0.00101252
0.00101214
0.00101172
0.00101132
0.00101112
0.00101147
0.0010128
0.00101551
0.00101978
0.00102545
0.00103203
0.00103877
0.00104483
0.00104947
0.00105215
0.00105268
0.00105122
0.00104824
0.00104436
0.0010402
0.00103631
0.00103303
0.00103057
0.0010167
0.00101621
0.00101574
0.00101529
0.00101485
0.00101442
0.00101401
0.00101361
0.00101323
0.00101287
0.00101251
0.00101213
0.00101171
0.00101131
0.00101111
0.00101145
0.00101277
0.00101546
0.0010197
0.00102534
0.00103189
0.0010386
0.00104465
0.00104926
0.00105192
0.00105242
0.00105094
0.00104792
0.001044
0.00103979
0.00103584
0.00103249
0.00102995
0.0010167
0.00101621
0.00101574
0.00101529
0.00101485
0.00101442
0.00101401
0.00101361
0.00101323
0.00101287
0.00101251
0.00101213
0.0010117
0.0010113
0.00101109
0.00101142
0.00101273
0.0010154
0.00101962
0.00102523
0.00103175
0.00103844
0.00104447
0.00104907
0.00105171
0.0010522
0.0010507
0.00104767
0.00104371
0.00103947
0.00103547
0.00103206
0.00102945
0.0010167
0.00101621
0.00101574
0.00101529
0.00101485
0.00101442
0.00101401
0.00101361
0.00101323
0.00101287
0.00101251
0.00101212
0.0010117
0.00101129
0.00101108
0.00101141
0.0010127
0.00101535
0.00101954
0.00102513
0.00103162
0.00103829
0.00104429
0.00104888
0.00105152
0.00105201
0.00105051
0.00104746
0.00104349
0.00103923
0.00103518
0.00103173
0.00102906
0.0010167
0.00101621
0.00101574
0.00101529
0.00101485
0.00101442
0.001014
0.00101361
0.00101323
0.00101286
0.0010125
0.00101212
0.00101169
0.00101128
0.00101107
0.00101139
0.00101267
0.0010153
0.00101947
0.00102503
0.00103149
0.00103814
0.00104413
0.00104871
0.00105135
0.00105185
0.00105035
0.00104731
0.00104333
0.00103905
0.00103498
0.00103149
0.00102878
0.0010167
0.00101622
0.00101575
0.00101529
0.00101485
0.00101443
0.00101401
0.00101361
0.00101323
0.00101287
0.00101251
0.00101212
0.0010117
0.00101129
0.00101107
0.00101138
0.00101264
0.00101525
0.00101939
0.00102491
0.00103134
0.00103796
0.00104393
0.0010485
0.00105115
0.00105165
0.00105017
0.00104715
0.00104319
0.00103892
0.00103485
0.00103134
0.0010286
0.0010167
0.00101621
0.00101574
0.00101529
0.00101486
0.00101443
0.00101402
0.00101362
0.00101324
0.00101288
0.00101251
0.00101212
0.00101168
0.00101125
0.00101102
0.0010113
0.00101252
0.00101508
0.00101915
0.00102459
0.00103094
0.00103748
0.00104339
0.00104793
0.00105057
0.0010511
0.00104966
0.00104669
0.0010428
0.00103859
0.00103458
0.00103112
0.00102842
0.0010167
0.00101623
0.00101577
0.00101532
0.00101489
0.00101446
0.00101403
0.00101361
0.00101319
0.00101277
0.00101234
0.00101186
0.00101133
0.00101078
0.0010104
0.00101051
0.00101152
0.00101382
0.00101759
0.00102271
0.00102874
0.00103498
0.00104066
0.00104505
0.00104763
0.00104819
0.00104686
0.00104408
0.00104041
0.00103645
0.0010327
0.00102949
0.00102702
0.0010167
0.00101622
0.00101574
0.00101525
0.00101473
0.00101415
0.0010135
0.00101278
0.00101198
0.0010111
0.00101012
0.00100903
0.0010078
0.00100649
0.00100528
0.00100447
0.00100448
0.00100566
0.00100824
0.00101213
0.00101697
0.00102216
0.001027
0.00103083
0.00103313
0.00103371
0.00103266
0.00103036
0.00102732
0.00102409
0.00102111
0.00101868
0.00101696
0.00101672
0.00101602
0.00101495
0.00101344
0.00101148
0.00100904
0.00100617
0.00100287
0.000999219
0.000995247
0.000991
0.000986509
0.000981811
0.000976989
0.000972219
0.000967788
0.000964069
0.00096143
0.000960123
0.000960194
0.000961451
0.000963496
0.000965796
0.000967796
0.000969045
0.0009693
0.000968581
0.000967127
0.000965308
0.000963503
0.000962016
0.000961032
0.000960648
0.00101526
0.00100728
0.000996145
0.000982499
0.000966987
0.000950194
0.000932661
0.000914814
0.00089697
0.000879356
0.000862116
0.000845333
0.00082905
0.000813302
0.000798154
0.000783744
0.000770296
0.000758115
0.000747527
0.000738811
0.000732107
0.000727346
0.000724222
0.000722241
0.000720831
0.00071948
0.000717848
0.000715802
0.00071339
0.000710769
0.000708131
0.000705641
0.000703456
0.000935948
0.000815271
0.000727678
0.000657562
0.000599404
0.000550885
0.000510111
0.000475485
0.000445749
0.000419938
0.000397318
0.000377324
0.000359516
0.000343543
0.000329137
0.000316139
0.000304527
0.000294428
0.000286075
0.000279709
0.000275453
0.000273206
0.000272605
0.00027306
0.000273878
0.000274405
0.000274174
0.000272977
0.000270877
0.000268135
0.000265107
0.000262138
0.000259488
0.000125477
0.000128848
0.000132097
0.000135206
0.000138175
0.000141008
0.000143709
0.000146283
0.000148734
0.000151064
0.00015328
0.000155382
0.000157375
0.00015926
0.000161041
0.000162724
0.00016432
0.000165833
0.000167263
0.000168591
0.000169784
0.000170798
0.000171593
0.000172139
0.000172431
0.000172488
0.000172349
0.000172068
0.000171698
0.000171286
0.000170869
0.000170468
0.000170085
0.000133775
0.00018421
0.000249249
0.000315129
0.00035328
0.000339508
0.0002813
0.000273066
0.00065161
0.00146842
0.00198181
0.00236157
0.00264356
0.00283261
0.00293812
0.00296649
0.00292432
0.00282118
0.00267017
0.00248767
0.00229248
0.00210323
0.00193306
0.00178433
0.00165048
0.00152697
0.00141792
0.00132973
0.00126332
0.00121431
0.00117702
0.00114734
0.00112303
0.00110298
0.00108645
0.00107284
0.0010616
0.00105233
0.00104466
0.00103834
0.00103313
0.00102884
0.00102533
0.00102246
0.00102012
0.00101822
0.00101669
0.00101546
0.00101448
0.0010137
0.00101308
0.0010126
0.00101224
0.00101196
0.00101175
0.00101161
0.0010115
0.00101144
0.0010114
0.00101138
0.00101138
0.00101139
0.00101141
0.00101143
0.00101146
0.00101149
0.00101152
0.00101156
0.00101159
0.00101162
0.00101165
0.00101167
0.0010117
0.00101172
0.00101174
0.00101176
0.00101178
0.00101179
0.00101181
0.00101182
0.00101183
0.00101184
0.00101185
0.00101186
0.00101186
0.00101187
0.00101187
0.00101188
0.00101188
0.00101188
0.00101189
0.00101189
0.00101189
0.00101189
0.00101189
0.00101189
0.00101189
0.00101189
0.00101189
0.00101189
0.000291736
0.00024985
0.000204804
0.000193042
0.000210187
0.000270787
0.000465568
0.000836843
0.00120354
0.00158659
0.00195808
0.00227226
0.00251371
0.00268268
0.00278253
0.00281607
0.00278705
0.00270205
0.0025712
0.0024082
0.00222945
0.00205181
0.00188823
0.00174348
0.00161508
0.00150044
0.00140144
0.00132118
0.00125943
0.00121259
0.00117629
0.00114723
0.00112345
0.00110382
0.0010876
0.00107418
0.00106306
0.00105382
0.00104615
0.00103978
0.00103451
0.00103014
0.00102654
0.00102358
0.00102114
0.00101915
0.00101753
0.00101621
0.00101515
0.00101429
0.00101361
0.00101307
0.00101264
0.00101231
0.00101206
0.00101186
0.00101172
0.00101162
0.00101154
0.0010115
0.00101147
0.00101145
0.00101145
0.00101145
0.00101146
0.00101148
0.0010115
0.00101152
0.00101154
0.00101156
0.00101157
0.00101159
0.00101161
0.00101163
0.00101164
0.00101165
0.00101167
0.00101168
0.00101169
0.0010117
0.00101171
0.00101171
0.00101172
0.00101172
0.00101173
0.00101173
0.00101174
0.00101174
0.00101174
0.00101174
0.00101174
0.00101174
0.00101175
0.00101175
0.00101175
0.00101175
0.00101175
0.00101175
0.00101175
0.00101174
0.000465982
0.000479057
0.000482236
0.000489856
0.000534782
0.000643799
0.000828778
0.0010836
0.00137669
0.00167548
0.00195504
0.00219664
0.00239037
0.00253293
0.00262295
0.0026593
0.00264229
0.00257515
0.0024649
0.00232237
0.00216155
0.00199758
0.00184313
0.0017048
0.00158313
0.0014769
0.00138655
0.00131299
0.00125526
0.00121046
0.00117521
0.00114684
0.0011236
0.00110443
0.00108855
0.00107536
0.00106438
0.00105523
0.00104758
0.00104121
0.00103589
0.00103146
0.00102778
0.00102473
0.00102221
0.00102013
0.00101842
0.00101701
0.00101586
0.00101493
0.00101417
0.00101356
0.00101307
0.00101268
0.00101237
0.00101213
0.00101194
0.0010118
0.00101169
0.00101161
0.00101155
0.0010115
0.00101147
0.00101146
0.00101145
0.00101144
0.00101144
0.00101145
0.00101145
0.00101146
0.00101147
0.00101148
0.00101149
0.00101149
0.0010115
0.00101151
0.00101152
0.00101152
0.00101153
0.00101153
0.00101154
0.00101154
0.00101155
0.00101155
0.00101155
0.00101155
0.00101155
0.00101156
0.00101156
0.00101156
0.00101156
0.00101156
0.00101156
0.00101156
0.00101156
0.00101156
0.00101156
0.00101156
0.00101156
0.00101155
0.000642763
0.000665271
0.000695864
0.000741438
0.000813715
0.000923674
0.00107628
0.00126857
0.00148744
0.00171267
0.00192489
0.00211086
0.00226413
0.0023818
0.00246104
0.00249857
0.00249206
0.0024418
0.00235178
0.00223006
0.00208825
0.00193977
0.00179679
0.00166707
0.00155322
0.00145508
0.00137231
0.00130456
0.00125047
0.00120767
0.00117354
0.00114592
0.00112329
0.0011046
0.00108909
0.00107618
0.00106539
0.00105636
0.0010488
0.00104245
0.00103713
0.00103268
0.00102895
0.00102584
0.00102324
0.00102108
0.00101929
0.00101781
0.00101658
0.00101557
0.00101474
0.00101407
0.00101351
0.00101306
0.0010127
0.0010124
0.00101217
0.00101198
0.00101183
0.00101171
0.00101162
0.00101155
0.00101149
0.00101145
0.00101141
0.00101139
0.00101137
0.00101136
0.00101135
0.00101135
0.00101134
0.00101134
0.00101134
0.00101134
0.00101134
0.00101134
0.00101134
0.00101134
0.00101134
0.00101135
0.00101135
0.00101135
0.00101135
0.00101135
0.00101135
0.00101135
0.00101135
0.00101135
0.00101135
0.00101135
0.00101134
0.00101134
0.00101134
0.00101134
0.00101134
0.00101134
0.00101134
0.00101134
0.00101134
0.00101133
0.000795884
0.000820294
0.000855504
0.000906949
0.000979785
0.00107895
0.00120683
0.00136022
0.00152994
0.00170298
0.0018664
0.0020112
0.00213313
0.00223011
0.00229941
0.00233712
0.00233943
0.00230445
0.00223361
0.00213241
0.00201015
0.00187849
0.00174886
0.00162954
0.00152442
0.00143418
0.00135825
0.00129566
0.00124494
0.00120413
0.00117121
0.00114442
0.00112242
0.00110423
0.00108912
0.00107651
0.00106596
0.0010571
0.00104966
0.00104339
0.00103811
0.00103366
0.00102993
0.00102678
0.00102415
0.00102194
0.00102009
0.00101854
0.00101725
0.00101618
0.00101529
0.00101455
0.00101393
0.00101343
0.00101301
0.00101267
0.00101239
0.00101216
0.00101197
0.00101181
0.00101169
0.00101159
0.0010115
0.00101144
0.00101138
0.00101134
0.0010113
0.00101127
0.00101125
0.00101123
0.00101121
0.0010112
0.00101119
0.00101118
0.00101117
0.00101117
0.00101116
0.00101116
0.00101115
0.00101115
0.00101115
0.00101114
0.00101114
0.00101114
0.00101113
0.00101113
0.00101113
0.00101113
0.00101113
0.00101112
0.00101112
0.00101112
0.00101112
0.00101112
0.00101112
0.00101111
0.00101111
0.00101111
0.00101111
0.0010111
0.000909239
0.000932172
0.000964701
0.00101164
0.00107665
0.00116187
0.0012674
0.00139022
0.00152378
0.00165913
0.0017873
0.00190205
0.00200046
0.00208112
0.00214186
0.00217902
0.00218834
0.00216658
0.00211324
0.00203159
0.00192876
0.00181465
0.00169963
0.00159195
0.00149621
0.00141374
0.00134411
0.00128622
0.00123868
0.00119989
0.00116825
0.00114234
0.001121
0.00110333
0.00108863
0.00107635
0.00106605
0.00105739
0.0010501
0.00104394
0.00103874
0.00103434
0.00103063
0.00102749
0.00102484
0.00102261
0.00102073
0.00101914
0.00101781
0.00101669
0.00101575
0.00101496
0.0010143
0.00101375
0.00101329
0.00101291
0.00101259
0.00101232
0.0010121
0.00101191
0.00101175
0.00101162
0.00101152
0.00101143
0.00101135
0.00101129
0.00101123
0.00101119
0.00101115
0.00101112
0.00101109
0.00101107
0.00101105
0.00101103
0.00101101
0.001011
0.00101099
0.00101098
0.00101097
0.00101096
0.00101096
0.00101095
0.00101094
0.00101094
0.00101093
0.00101093
0.00101093
0.00101092
0.00101092
0.00101092
0.00101091
0.00101091
0.00101091
0.00101091
0.0010109
0.0010109
0.0010109
0.0010109
0.0010109
0.00101089
0.000983443
0.00100379
0.00103227
0.0010725
0.00112714
0.00119749
0.00128322
0.00138168
0.0014879
0.00159538
0.00169775
0.00179047
0.00187136
0.00193936
0.00199286
0.00202885
0.00204326
0.00203233
0.00199425
0.00193051
0.00184629
0.00174967
0.00164977
0.00155438
0.00146834
0.00139351
0.00132981
0.0012763
0.00123179
0.00119503
0.00116474
0.00113977
0.00111912
0.00110198
0.00108769
0.00107573
0.0010657
0.00105725
0.00105012
0.00104409
0.00103899
0.00103467
0.00103101
0.00102791
0.00102527
0.00102305
0.00102116
0.00101956
0.0010182
0.00101706
0.00101609
0.00101528
0.00101458
0.001014
0.00101351
0.00101309
0.00101274
0.00101245
0.0010122
0.00101198
0.0010118
0.00101165
0.00101152
0.00101141
0.00101132
0.00101124
0.00101117
0.00101111
0.00101106
0.00101102
0.00101098
0.00101095
0.00101092
0.0010109
0.00101088
0.00101086
0.00101084
0.00101083
0.00101081
0.0010108
0.00101079
0.00101078
0.00101077
0.00101077
0.00101076
0.00101075
0.00101075
0.00101074
0.00101074
0.00101073
0.00101073
0.00101073
0.00101072
0.00101072
0.00101072
0.00101071
0.00101071
0.00101071
0.00101071
0.0010107
0.00102653
0.00104388
0.00106805
0.00110166
0.00114667
0.00120401
0.00127324
0.0013523
0.00143745
0.00152395
0.0016071
0.00168343
0.00175112
0.00180925
0.00185662
0.00189087
0.00190852
0.00190585
0.00188041
0.00183236
0.00176519
0.00168523
0.0016002
0.00151712
0.00144078
0.0013734
0.00131532
0.00126596
0.0012244
0.00118967
0.00116079
0.0011368
0.00111687
0.00110027
0.00108639
0.00107476
0.00106498
0.00105674
0.00104978
0.0010439
0.00103891
0.00103467
0.00103108
0.00102803
0.00102543
0.00102323
0.00102135
0.00101976
0.00101841
0.00101726
0.00101628
0.00101545
0.00101474
0.00101414
0.00101363
0.0010132
0.00101283
0.00101251
0.00101224
0.00101201
0.00101182
0.00101165
0.00101151
0.00101138
0.00101128
0.00101119
0.00101111
0.00101104
0.00101098
0.00101093
0.00101088
0.00101084
0.00101081
0.00101078
0.00101075
0.00101073
0.00101071
0.00101069
0.00101067
0.00101066
0.00101065
0.00101063
0.00101062
0.00101062
0.00101061
0.0010106
0.00101059
0.00101059
0.00101058
0.00101058
0.00101057
0.00101057
0.00101056
0.00101056
0.00101056
0.00101055
0.00101055
0.00101055
0.00101054
0.00101054
0.00104841
0.00106293
0.00108322
0.00111111
0.00114804
0.00119467
0.00125066
0.00131447
0.00138335
0.00145379
0.00152229
0.00158611
0.00164363
0.00169394
0.00173604
0.00176813
0.00178741
0.00179057
0.001775
0.00174003
0.00168777
0.00162296
0.00155186
0.00148057
0.0014136
0.00135339
0.00130068
0.00125529
0.00121661
0.00118393
0.00115649
0.00113354
0.00111435
0.0010983
0.00108484
0.00107353
0.00106401
0.00105597
0.00104918
0.00104343
0.00103855
0.00103441
0.00103089
0.00102789
0.00102535
0.00102318
0.00102133
0.00101976
0.00101842
0.00101728
0.0010163
0.00101547
0.00101476
0.00101416
0.00101364
0.0010132
0.00101282
0.0010125
0.00101222
0.00101198
0.00101178
0.0010116
0.00101145
0.00101132
0.00101121
0.00101111
0.00101102
0.00101095
0.00101088
0.00101083
0.00101078
0.00101073
0.00101069
0.00101066
0.00101063
0.0010106
0.00101058
0.00101056
0.00101054
0.00101052
0.00101051
0.0010105
0.00101049
0.00101048
0.00101047
0.00101046
0.00101045
0.00101044
0.00101044
0.00101043
0.00101043
0.00101042
0.00101042
0.00101041
0.00101041
0.00101041
0.0010104
0.0010104
0.0010104
0.00101039
0.00105759
0.00106968
0.0010867
0.00110991
0.00114034
0.00117847
0.00122405
0.00127595
0.00133218
0.00139015
0.00144722
0.00150122
0.00155067
0.00159463
0.00163218
0.0016619
0.00168158
0.00168849
0.0016802
0.0016556
0.00161578
0.00156413
0.00150554
0.00144511
0.00138694
0.00133352
0.00128594
0.00124437
0.00120851
0.00117788
0.00115193
0.00113004
0.00111163
0.00109615
0.00108312
0.00107213
0.00106287
0.00105503
0.0010484
0.00104277
0.001038
0.00103395
0.0010305
0.00102757
0.00102508
0.00102295
0.00102114
0.00101959
0.00101827
0.00101715
0.00101619
0.00101537
0.00101466
0.00101406
0.00101355
0.00101311
0.00101273
0.00101241
0.00101213
0.00101189
0.00101168
0.0010115
0.00101134
0.00101121
0.00101109
0.00101099
0.0010109
0.00101083
0.00101076
0.0010107
0.00101065
0.0010106
0.00101056
0.00101053
0.0010105
0.00101047
0.00101044
0.00101042
0.0010104
0.00101039
0.00101037
0.00101036
0.00101034
0.00101033
0.00101032
0.00101031
0.00101031
0.0010103
0.00101029
0.00101029
0.00101028
0.00101028
0.00101027
0.00101027
0.00101026
0.00101026
0.00101026
0.00101025
0.00101025
0.00101024
0.00106006
0.00107013
0.00108445
0.00110389
0.00112918
0.00116063
0.00119807
0.00124067
0.00128698
0.00133513
0.00138313
0.00142922
0.00147208
0.00151075
0.00154433
0.00157164
0.00159093
0.00160003
0.00159683
0.00158009
0.00155025
0.00150959
0.00146182
0.00141108
0.00136095
0.00131389
0.00127118
0.00123329
0.00120019
0.00117161
0.00114716
0.00112637
0.00110876
0.00109387
0.00108128
0.00107063
0.00106162
0.00105398
0.00104751
0.00104201
0.00103735
0.00103338
0.00103
0.00102713
0.00102468
0.0010226
0.00102082
0.00101931
0.00101801
0.00101691
0.00101596
0.00101516
0.00101447
0.00101388
0.00101337
0.00101294
0.00101256
0.00101224
0.00101197
0.00101173
0.00101152
0.00101135
0.00101119
0.00101106
0.00101094
0.00101084
0.00101075
0.00101068
0.00101061
0.00101055
0.0010105
0.00101045
0.00101041
0.00101038
0.00101035
0.00101032
0.00101029
0.00101027
0.00101025
0.00101023
0.00101022
0.0010102
0.00101019
0.00101018
0.00101017
0.00101016
0.00101015
0.00101015
0.00101014
0.00101013
0.00101013
0.00101012
0.00101012
0.00101011
0.00101011
0.0010101
0.0010101
0.0010101
0.0010101
0.00101009
0.00105937
0.00106778
0.00107988
0.00109628
0.00111747
0.00114365
0.00117469
0.00120998
0.00124848
0.00128881
0.00132947
0.00136905
0.00140639
0.00144055
0.00147064
0.00149562
0.00151409
0.0015243
0.00152452
0.00151357
0.00149147
0.00145972
0.00142105
0.00137873
0.00133582
0.00129461
0.00125649
0.00122213
0.00119172
0.00116518
0.00114224
0.00112257
0.00110579
0.00109151
0.00107937
0.00106907
0.00106032
0.00105289
0.00104657
0.0010412
0.00103664
0.00103275
0.00102945
0.00102663
0.00102423
0.00102219
0.00102044
0.00101896
0.00101769
0.00101661
0.00101568
0.00101489
0.00101422
0.00101364
0.00101314
0.00101272
0.00101235
0.00101204
0.00101177
0.00101154
0.00101134
0.00101116
0.00101101
0.00101088
0.00101077
0.00101067
0.00101058
0.00101051
0.00101044
0.00101038
0.00101033
0.00101029
0.00101025
0.00101021
0.00101018
0.00101015
0.00101013
0.00101011
0.00101009
0.00101007
0.00101006
0.00101004
0.00101003
0.00101002
0.00101001
0.00101
0.00100999
0.00100998
0.00100998
0.00100997
0.00100997
0.00100996
0.00100996
0.00100995
0.00100995
0.00100994
0.00100994
0.00100994
0.00100993
0.00100993
0.00105738
0.0010644
0.00107465
0.00108857
0.00110646
0.00112845
0.00115443
0.00118393
0.0012162
0.00125023
0.00128487
0.00131901
0.00135164
0.00138188
0.00140886
0.00143165
0.00144907
0.00145971
0.00146217
0.0014554
0.00143921
0.00141454
0.00138337
0.00134825
0.00131171
0.00127583
0.00124199
0.00121099
0.00118318
0.00115863
0.0011372
0.00111866
0.00110272
0.00108908
0.00107742
0.00106747
0.00105899
0.00105177
0.00104562
0.00104038
0.00103591
0.00103211
0.00102887
0.00102611
0.00102375
0.00102175
0.00102004
0.00101858
0.00101734
0.00101628
0.00101537
0.0010146
0.00101394
0.00101337
0.00101289
0.00101247
0.00101212
0.00101181
0.00101155
0.00101132
0.00101113
0.00101096
0.00101081
0.00101069
0.00101058
0.00101048
0.0010104
0.00101033
0.00101026
0.00101021
0.00101016
0.00101011
0.00101008
0.00101004
0.00101001
0.00100999
0.00100996
0.00100994
0.00100992
0.00100991
0.00100989
0.00100988
0.00100986
0.00100985
0.00100984
0.00100984
0.00100983
0.00100982
0.00100981
0.00100981
0.0010098
0.0010098
0.00100979
0.00100979
0.00100978
0.00100978
0.00100978
0.00100977
0.00100977
0.00100976
0.00105493
0.00106076
0.00106947
0.00108133
0.00109655
0.00111517
0.00113709
0.00116197
0.00118923
0.00121813
0.0012478
0.00127734
0.00130591
0.00133268
0.00135687
0.0013776
0.00139387
0.00140453
0.00140842
0.00140464
0.00139292
0.00137383
0.00134878
0.00131973
0.00128876
0.00125765
0.00122777
0.00119994
0.00117464
0.00115203
0.00113209
0.00111469
0.0010996
0.0010866
0.00107542
0.00106585