/*--------------------------------*- C++ -*----------------------------------*\
  =========                 |
  \\      /  F ield         | OpenFOAM: The Open Source CFD Toolbox
   \\    /   O peration     | Website:  https://openfoam.org
    \\  /    A nd           | Version:  10
     \\/     M anipulation  |
\*---------------------------------------------------------------------------*/
FoamFile
{
    format      ascii;
    class       volScalarField;
    location    "0.01";
    object      p;
}
// * * * * * * * * * * * * * * * * * * * * * * * * * * * * * * * * * * * * * //

dimensions      [0 2 -2 0 0 0 0];

internalField   nonuniform List<scalar> 
6820
(
-5.90562
-7.27252
-7.69359
-7.80171
-7.89807
-7.96886
-8.02316
-8.075
-8.12768
-8.18239
-8.24041
-8.30257
-8.3694
-8.44138
-8.51897
-8.60244
-8.69317
-8.79321
-8.90323
-9.0235
-9.15471
-9.29779
-9.45405
-9.62536
-9.81417
-10.0237
-10.258
-10.5224
-10.8233
-11.1706
-11.5795
-12.0691
-12.6561
-8.70492
-8.30341
-8.01991
-7.93426
-7.9509
-7.98722
-8.02883
-8.07603
-8.12729
-8.18173
-8.23974
-8.30186
-8.36866
-8.44072
-8.51871
-8.60354
-8.69578
-8.79525
-8.9034
-9.02131
-9.15046
-9.29248
-9.44909
-9.62215
-9.81371
-10.0264
-10.2631
-10.5293
-10.8283
-11.1778
-11.5645
-12.0921
-12.6011
-7.5612
-7.43532
-7.66496
-7.81857
-7.89609
-7.95993
-8.01538
-8.06815
-8.12146
-8.17662
-8.23483
-8.29698
-8.36375
-8.43573
-8.51353
-8.59775
-8.68906
-8.78862
-8.89708
-9.01553
-9.14497
-9.2866
-9.44187
-9.61254
-9.80077
-10.0093
-10.2413
-10.5014
-10.7934
-11.1286
-11.5029
-11.9597
-12.4036
-7.92659
-7.94669
-7.93469
-7.91961
-7.94278
-7.98256
-8.02589
-8.07244
-8.12258
-8.17611
-8.23336
-8.29484
-8.36102
-8.43243
-8.50964
-8.59333
-8.68412
-8.78275
-8.8899
-9.00663
-9.1341
-9.27366
-9.42683
-9.59532
-9.78106
-9.98637
-10.2138
-10.4672
-10.7492
-11.0682
-11.4193
-11.8296
-12.2365
-7.81416
-7.76107
-7.81238
-7.87112
-7.92235
-7.97176
-8.01956
-8.06806
-8.1188
-8.17231
-8.22922
-8.29018
-8.35574
-8.42644
-8.50286
-8.58558
-8.67525
-8.77259
-8.87837
-8.99351
-9.11907
-9.25621
-9.4063
-9.57085
-9.75162
-9.95066
-10.1702
-10.4131
-10.6816
-10.9806
-11.3068
-11.6734
-12.043
-7.85369
-7.85059
-7.8759
-7.90417
-7.93731
-7.97757
-8.02101
-8.06701
-8.11606
-8.16836
-8.22429
-8.28432
-8.34893
-8.41863
-8.49391
-8.57534
-8.66354
-8.75915
-8.8629
-8.97564
-9.09832
-9.23206
-9.37807
-9.53772
-9.7125
-9.90408
-10.1142
-10.3449
-10.5975
-10.8749
-11.1745
-11.5019
-11.8358
-7.84757
-7.83972
-7.86205
-7.89564
-7.9328
-7.97398
-8.01726
-8.06266
-8.1109
-8.16232
-8.2173
-8.27629
-8.33977
-8.40818
-8.48201
-8.56181
-8.64812
-8.74155
-8.84277
-8.95255
-9.07174
-9.20131
-9.34229
-9.49585
-9.66318
-9.8456
-10.0444
-10.2609
-10.4958
-10.7504
-11.0225
-11.3139
-11.6122
-7.85423
-7.85408
-7.8745
-7.90365
-7.93644
-7.97393
-8.01474
-8.05837
-8.10512
-8.1552
-8.20887
-8.26651
-8.32853
-8.39535
-8.4674
-8.54517
-8.62916
-8.71993
-8.81807
-8.92426
-9.03923
-9.1638
-9.29884
-9.44529
-9.60406
-9.77611
-9.96225
-10.1632
-10.3793
-10.6106
-10.8552
-11.1128
-11.376
-7.85773
-7.85913
-7.87681
-7.90363
-7.93496
-7.97088
-8.01024
-8.05251
-8.09787
-8.14654
-8.19875
-8.25484
-8.31517
-8.3801
-8.45004
-8.52542
-8.60668
-8.69432
-8.78885
-8.89085
-9.00093
-9.11977
-9.24804
-9.38644
-9.53565
-9.69626
-9.86871
-10.0533
-10.2497
-10.4575
-10.675
-10.9007
-11.1297
-7.86068
-7.8637
-7.8801
-7.90487
-7.93417
-7.9679
-8.0053
-8.04582
-8.08952
-8.13654
-8.18706
-8.24135
-8.29971
-8.36248
-8.42998
-8.50261
-8.58074
-8.6648
-8.75522
-8.85247
-8.95705
-9.06946
-9.19022
-9.31981
-9.45864
-9.60701
-9.76503
-9.93259
-10.1091
-10.2937
-10.4846
-10.6801
-10.8763
-7.86253
-7.86623
-7.88132
-7.9041
-7.93154
-7.96339
-7.99898
-8.03778
-8.07976
-8.12502
-8.17368
-8.22596
-8.28212
-8.34244
-8.40721
-8.47674
-8.55137
-8.63143
-8.71727
-8.80927
-8.90778
-9.01318
-9.12579
-9.24592
-9.37373
-9.50928
-9.65241
-9.8027
-9.95935
-10.1212
-10.2865
-10.4534
-10.6184
-7.86314
-7.86713
-7.88118
-7.90226
-7.92795
-7.95792
-7.99161
-8.02856
-8.06866
-8.11197
-8.15857
-8.20863
-8.26235
-8.31995
-8.38169
-8.44781
-8.51858
-8.59425
-8.67509
-8.76136
-8.85332
-8.95119
-9.05515
-9.1653
-9.28163
-9.40399
-9.53199
-9.66501
-9.80207
-9.94191
-10.0827
-10.2226
-10.3586
-7.8624
-7.86643
-7.87951
-7.89901
-7.92298
-7.95111
-7.98292
-8.01795
-8.05607
-8.09729
-8.14166
-8.18929
-8.24034
-8.29498
-8.35341
-8.41581
-8.48237
-8.5533
-8.62875
-8.7089
-8.79389
-8.8838
-8.97869
-9.0785
-9.18306
-9.29204
-9.40489
-9.52084
-9.63882
-9.75749
-9.87508
-9.98984
-10.0989
-7.86024
-7.86417
-7.87634
-7.89437
-7.9167
-7.94302
-7.9729
-8.00593
-8.04196
-8.08095
-8.12291
-8.16791
-8.21607
-8.26751
-8.32236
-8.38075
-8.44281
-8.50865
-8.57838
-8.65205
-8.72972
-8.81135
-8.89687
-8.9861
-9.07873
-9.1743
-9.27216
-9.37144
-9.47102
-9.56955
-9.66535
-9.75677
-9.84119
-7.85661
-7.86035
-7.87164
-7.88829
-7.90901
-7.93353
-7.96146
-7.99243
-8.02626
-8.06287
-8.10227
-8.14447
-8.18953
-8.23753
-8.28855
-8.34267
-8.39994
-8.46042
-8.52413
-8.59104
-8.66111
-8.73421
-8.81017
-8.8887
-8.96939
-9.05169
-9.13487
-9.21803
-9.30002
-9.37956
-9.45505
-9.52502
-9.58705
-7.85148
-7.85499
-7.86541
-7.88074
-7.89988
-7.92261
-7.94857
-7.9774
-8.00892
-8.04305
-8.07972
-8.11893
-8.1607
-8.20506
-8.25203
-8.30164
-8.35388
-8.40875
-8.46619
-8.52611
-8.58838
-8.6528
-8.71911
-8.78693
-8.85579
-8.92508
-8.99404
-9.06174
-9.12709
-9.18886
-9.24559
-9.29598
-9.33785
-7.84481
-7.84807
-7.85764
-7.8717
-7.88928
-7.91021
-7.93416
-7.9608
-7.98993
-8.02145
-8.05526
-8.09133
-8.12963
-8.17015
-8.21287
-8.25776
-8.30477
-8.35383
-8.40481
-8.45758
-8.51192
-8.56759
-8.62424
-8.68145
-8.73871
-8.79537
-8.85067
-8.9037
-8.95341
-8.9987
-9.03823
-9.07088
-9.09473
-7.83662
-7.8396
-7.84834
-7.86114
-7.87719
-7.89632
-7.91823
-7.94262
-7.96927
-7.99807
-8.02889
-8.06168
-8.09636
-8.13288
-8.17118
-8.21118
-8.25279
-8.29587
-8.34027
-8.38578
-8.43215
-8.47907
-8.52616
-8.57296
-8.61894
-8.66344
-8.70572
-8.74492
-8.78008
-8.81018
-8.83406
-8.85076
-8.85863
-7.82688
-7.82958
-7.83749
-7.84907
-7.86359
-7.88091
-7.90076
-7.92284
-7.94695
-7.97293
-8.00066
-8.03004
-8.06096
-8.09334
-8.12708
-8.16206
-8.19814
-8.23516
-8.27289
-8.31111
-8.34952
-8.38777
-8.42547
-8.46215
-8.49725
-8.53015
-8.56013
-8.5864
-8.60809
-8.6243
-8.63404
-8.6365
-8.63029
-7.81561
-7.81804
-7.82512
-7.83549
-7.84848
-7.86399
-7.88175
-7.90148
-7.92298
-7.94607
-7.97061
-7.99648
-8.02354
-8.05168
-8.08075
-8.11061
-8.14109
-8.17197
-8.20302
-8.23397
-8.2645
-8.29426
-8.32282
-8.34971
-8.37441
-8.39632
-8.41477
-8.42904
-8.43836
-8.44197
-8.439
-8.42884
-8.41029
-7.80284
-7.80499
-7.81125
-7.82041
-7.83189
-7.84558
-7.86123
-7.87858
-7.89741
-7.91755
-7.93884
-7.96112
-7.98423
-8.00805
-8.03238
-8.05707
-8.0819
-8.10665
-8.13105
-8.15482
-8.17763
-8.1991
-8.21883
-8.23636
-8.25119
-8.26275
-8.27046
-8.27367
-8.27171
-8.26394
-8.24966
-8.22836
-8.19909
-7.78858
-7.79046
-7.79591
-7.80388
-7.81385
-7.82571
-7.83924
-7.85418
-7.87031
-7.88746
-7.90543
-7.92407
-7.94319
-7.96263
-7.9822
-8.0017
-8.0209
-8.03956
-8.0574
-8.07413
-8.08941
-8.10288
-8.11414
-8.12277
-8.12829
-8.1302
-8.12797
-8.12106
-8.10888
-8.09092
-8.0666
-8.03555
-7.997
-7.7729
-7.77451
-7.77915
-7.78593
-7.79439
-7.80444
-7.81585
-7.82836
-7.84178
-7.85591
-7.87055
-7.88551
-7.90062
-7.91568
-7.93048
-7.94482
-7.95844
-7.9711
-7.98252
-7.99239
-8.0004
-8.0062
-8.0094
-8.00962
-8.00644
-7.99939
-7.98804
-7.97191
-7.95053
-7.92348
-7.89032
-7.85078
-7.80427
-7.75585
-7.75718
-7.76102
-7.76662
-7.77359
-7.78183
-7.79111
-7.8012
-7.8119
-7.82299
-7.83429
-7.84559
-7.85669
-7.86739
-7.87747
-7.88671
-7.89485
-7.90165
-7.90683
-7.91009
-7.91113
-7.90962
-7.90522
-7.89756
-7.88628
-7.87099
-7.8513
-7.82684
-7.79723
-7.76213
-7.72123
-7.67436
-7.62105
-7.7375
-7.73856
-7.74162
-7.74605
-7.75155
-7.758
-7.76518
-7.77288
-7.78089
-7.78898
-7.79697
-7.80463
-7.81177
-7.81816
-7.8236
-7.82784
-7.83065
-7.83176
-7.83092
-7.82784
-7.82224
-7.81381
-7.80226
-7.78726
-7.76851
-7.74566
-7.71841
-7.68646
-7.64952
-7.60734
-7.55971
-7.50652
-7.44746
-7.71795
-7.71874
-7.721
-7.72428
-7.7283
-7.73296
-7.73806
-7.74337
-7.74869
-7.75381
-7.75852
-7.76261
-7.76585
-7.76804
-7.76896
-7.76836
-7.76601
-7.76167
-7.75508
-7.74598
-7.73412
-7.71922
-7.70102
-7.67925
-7.65364
-7.62394
-7.58988
-7.55124
-7.50782
-7.45946
-7.406
-7.34743
-7.28353
-7.69731
-7.69784
-7.69934
-7.70152
-7.70416
-7.70713
-7.71024
-7.71327
-7.71602
-7.71826
-7.71979
-7.72039
-7.71985
-7.71794
-7.71447
-7.70918
-7.70187
-7.69229
-7.68022
-7.66542
-7.64766
-7.6267
-7.60233
-7.57431
-7.54244
-7.50651
-7.46634
-7.42176
-7.37264
-7.31889
-7.26043
-7.19729
-7.12935
-7.67569
-7.67592
-7.67661
-7.67758
-7.67873
-7.67993
-7.68099
-7.68172
-7.68191
-7.68133
-7.67977
-7.67702
-7.67285
-7.66706
-7.65942
-7.64972
-7.63774
-7.62328
-7.60611
-7.58603
-7.56283
-7.53633
-7.50633
-7.47266
-7.43516
-7.39368
-7.34809
-7.29829
-7.24421
-7.18581
-7.12309
-7.05613
-6.98486
-7.6533
-7.65335
-7.65343
-7.65351
-7.65353
-7.65331
-7.65263
-7.65131
-7.64913
-7.64588
-7.64136
-7.63535
-7.62765
-7.61806
-7.60637
-7.59238
-7.5759
-7.55673
-7.53469
-7.5096
-7.48129
-7.44959
-7.41438
-7.37552
-7.33289
-7.28639
-7.23596
-7.18155
-7.12313
-7.06073
-6.99439
-6.92421
-6.85022
-7.63015
-7.62966
-7.62851
-7.62703
-7.62533
-7.62325
-7.6206
-7.61716
-7.6127
-7.60698
-7.59977
-7.59085
-7.58003
-7.56708
-7.55182
-7.53406
-7.51361
-7.49031
-7.46398
-7.43449
-7.40169
-7.36546
-7.32569
-7.2823
-7.23521
-7.18438
-7.12978
-7.07141
-7.00931
-6.94355
-6.87419
-6.80139
-6.72521
-7.60703
-7.60704
-7.60614
-7.6046
-7.60242
-7.59937
-7.59528
-7.58998
-7.5833
-7.57502
-7.56497
-7.55295
-7.53878
-7.52228
-7.50326
-7.48157
-7.45704
-7.42953
-7.3989
-7.36503
-7.32782
-7.28719
-7.24306
-7.19539
-7.14416
-7.08935
-7.03098
-6.9691
-6.90378
-6.83511
-6.76321
-6.68822
-6.61028
-7.58223
-7.57966
-7.57542
-7.57096
-7.56659
-7.56185
-7.55631
-7.54964
-7.54153
-7.53171
-7.51993
-7.50597
-7.48965
-7.47077
-7.44918
-7.42472
-7.39726
-7.36667
-7.33284
-7.29569
-7.25512
-7.21108
-7.16355
-7.11249
-7.05794
-6.99992
-6.9385
-6.87375
-6.8058
-6.73478
-6.66083
-6.58413
-6.50484
-7.56278
-7.56529
-7.56463
-7.56165
-7.55712
-7.55108
-7.54351
-7.53432
-7.52333
-7.51035
-7.49522
-7.47777
-7.45782
-7.43522
-7.40983
-7.38149
-7.3501
-7.31553
-7.27771
-7.23657
-7.19206
-7.14417
-7.0929
-7.03828
-6.98035
-6.91918
-6.85486
-6.7875
-6.71723
-6.64418
-6.56852
-6.49043
-6.41007
-7.52737
-7.51697
-7.50705
-7.50071
-7.49613
-7.49123
-7.48514
-7.47746
-7.4678
-7.45582
-7.44129
-7.42403
-7.40392
-7.38081
-7.35461
-7.32522
-7.29256
-7.25655
-7.21713
-7.17426
-7.12789
-7.07801
-7.02466
-6.96787
-6.90773
-6.84437
-6.77791
-6.70852
-6.63639
-6.56171
-6.48468
-6.4055
-6.32438
-7.54237
-7.55269
-7.5498
-7.53976
-7.52907
-7.51786
-7.50537
-7.49135
-7.47554
-7.45771
-7.43763
-7.41512
-7.38997
-7.36203
-7.33116
-7.29721
-7.26007
-7.21968
-7.17596
-7.12891
-7.07854
-7.02491
-6.96808
-6.90816
-6.84525
-6.77947
-6.71095
-6.63983
-6.56626
-6.4904
-6.41243
-6.33253
-6.2509
-7.43614
-7.39977
-7.39278
-7.39791
-7.40268
-7.40423
-7.40296
-7.3988
-7.39127
-7.38021
-7.36562
-7.3475
-7.32586
-7.30072
-7.27211
-7.24001
-7.20443
-7.16533
-7.12267
-7.07638
-7.02641
-6.97275
-6.91543
-6.85455
-6.79028
-6.72286
-6.65254
-6.57962
-6.50437
-6.42706
-6.34795
-6.26724
-6.18519
-7.62273
-7.64168
-7.60018
-7.55492
-7.52924
-7.50842
-7.48757
-7.4665
-7.44473
-7.42157
-7.39653
-7.36927
-7.3395
-7.30699
-7.27154
-7.23297
-7.19115
-7.146
-7.0975
-7.04572
-6.99078
-6.93284
-6.87208
-6.80869
-6.7428
-6.67451
-6.6039
-6.53105
-6.45604
-6.379
-6.3001
-6.21949
-6.1375
-7.20618
-7.12408
-7.17707
-7.25143
-7.28282
-7.30128
-7.31463
-7.3206
-7.3197
-7.31306
-7.30128
-7.2848
-7.264
-7.23919
-7.21063
-7.17849
-7.14286
-7.10373
-7.06094
-7.01428
-6.96348
-6.90836
-6.84886
-6.78518
-6.71766
-6.64682
-6.57319
-6.49733
-6.4197
-6.34066
-6.26051
-6.17939
-6.09762
-8.17165
-7.89025
-7.67851
-7.57666
-7.53141
-7.49564
-7.46381
-7.43614
-7.41013
-7.38387
-7.35638
-7.32704
-7.29534
-7.26088
-7.22334
-7.18248
-7.13817
-7.09043
-7.0395
-6.98577
-6.92972
-6.87177
-6.81215
-6.75085
-6.68763
-6.62211
-6.5539
-6.48274
-6.40858
-6.33159
-6.25217
-6.17074
-6.08792
-6.20946
-6.76827
-7.0624
-7.16775
-7.23219
-7.27787
-7.30227
-7.31213
-7.31237
-7.30487
-7.29106
-7.27215
-7.24899
-7.22224
-7.19244
-7.15998
-7.12503
-7.08741
-7.04657
-7.00161
-6.95149
-6.89538
-6.83294
-6.7645
-6.691
-6.61377
-6.53425
-6.45365
-6.37282
-6.29217
-6.21168
-6.1312
-6.05013
-13.7136
-12.0627
-13.8914
-16.8899
-19.692
-21.969
-23.2646
-23.2889
-22.0408
-19.6384
-16.6813
-13.8811
-11.4797
-9.4288
-7.66012
-6.14779
-4.86564
-3.7851
-2.88188
-2.1341
-1.52158
-1.02599
-0.630397
-0.318461
-0.0733972
0.120989
0.277081
0.402023
0.5
0.57474
0.630077
0.669595
0.696345
0.712812
0.721013
0.7226
0.718942
0.711174
0.700232
0.686887
0.671772
0.655402
0.638194
0.620488
0.60255
0.584595
0.566787
0.549254
0.53209
0.515362
0.499119
0.483388
0.468185
0.453512
0.439364
0.425728
0.412586
0.399915
0.387691
0.375887
0.364474
0.353423
0.342705
0.332293
0.322158
0.312273
0.302611
0.293149
0.283862
0.274728
0.265725
0.256835
0.248038
0.239317
0.230656
0.222041
0.213457
0.204892
0.196334
0.187773
0.179198
0.1706
0.161971
0.153303
0.14459
0.135824
0.127
0.118113
0.109157
0.100127
0.0910203
0.0818318
0.0725582
0.0631956
0.0537418
0.0441914
0.034547
0.0247934
0.0149574
0.00496814
-13.7366
-13.4043
-14.4596
-16.5127
-18.5472
-20.2088
-21.1843
-21.1885
-20.1038
-18.0868
-15.6549
-13.2336
-11.0584
-9.16082
-7.50599
-6.07681
-4.85409
-3.81543
-2.94063
-2.21093
-1.60866
-1.11739
-0.721632
-0.406177
-0.155503
0.0451236
0.207023
0.337141
0.439933
0.519323
0.579166
0.622993
0.653804
0.674056
0.685763
0.690582
0.689895
0.684848
0.676393
0.665317
0.652267
0.637775
0.622275
0.606118
0.589586
0.572905
0.556252
0.539765
0.523549
0.507679
0.492212
0.477183
0.462614
0.448514
0.434884
0.421716
0.408995
0.396705
0.384824
0.373328
0.362192
0.351391
0.340898
0.330687
0.320732
0.311008
0.301491
0.292158
0.282986
0.273955
0.265044
0.256235
0.247511
0.238854
0.230251
0.221686
0.213147
0.204621
0.196098
0.187567
0.179019
0.170445
0.161836
0.153187
0.144489
0.135738
0.126926
0.118049
0.109102
0.100081
0.0909814
0.0817991
0.0725311
0.0631733
0.0537242
0.0441771
0.0345376
0.0247849
0.0149577
0.00495933
-13.1404
-13.127
-13.9459
-15.6257
-17.3296
-18.7037
-19.4855
-19.3981
-18.4202
-16.7574
-14.6992
-12.5874
-10.6354
-8.89219
-7.34983
-6.00291
-4.83946
-3.84292
-2.99709
-2.28618
-1.69489
-1.20857
-0.813133
-0.494555
-0.238663
-0.032154
0.135326
0.270544
0.378163
0.46225
0.526656
0.574853
0.60979
0.633902
0.649193
0.657328
0.659695
0.657453
0.651567
0.642838
0.631929
0.619388
0.605662
0.591116
0.576048
0.560696
0.545247
0.529852
0.514624
0.49965
0.484993
0.470697
0.456791
0.443291
0.430202
0.417522
0.405242
0.39335
0.381827
0.370653
0.359807
0.349267
0.339008
0.329007
0.319241
0.309686
0.30032
0.291122
0.282071
0.273147
0.264332
0.255608
0.24696
0.23837
0.229826
0.221314
0.212822
0.204338
0.195851
0.187352
0.178832
0.170282
0.161696
0.153066
0.144385
0.135648
0.126849
0.117983
0.109046
0.100033
0.0909408
0.0817651
0.0725029
0.06315
0.0537058
0.0441623
0.0345279
0.0247761
0.0149577
0.00495089
-12.8415
-13.1688
-13.9261
-15.2149
-16.4977
-17.4849
-17.9906
-17.8396
-16.9908
-15.5709
-13.8108
-11.9709
-10.2228
-8.62616
-7.19285
-5.92653
-4.82173
-3.86728
-3.05077
-2.35923
-1.77954
-1.29878
-0.904209
-0.583045
-0.322467
-0.110528
0.0622524
0.202451
0.314869
0.40366
0.472654
0.525258
0.56437
0.592399
0.61134
0.622861
0.628355
0.628993
0.62575
0.619442
0.610746
0.600223
0.588336
0.575464
0.561917
0.547946
0.533752
0.519494
0.505297
0.491258
0.477446
0.463916
0.450703
0.437828
0.425305
0.413135
0.401316
0.389839
0.378691
0.367854
0.357312
0.347044
0.337031
0.32725
0.317681
0.308302
0.299095
0.290038
0.281113
0.272302
0.263587
0.254952
0.246383
0.237864
0.229383
0.220926
0.212482
0.204041
0.195592
0.187127
0.178636
0.170113
0.161549
0.152939
0.144275
0.135553
0.126768
0.117914
0.108987
0.099983
0.0908985
0.0817295
0.0724735
0.0631258
0.0536866
0.044147
0.0345177
0.0247672
0.0149574
0.00494292
-12.5428
-12.9508
-13.5847
-14.5673
-15.5598
-16.3118
-16.6649
-16.4818
-15.7315
-14.5126
-13.0001
-11.3902
-9.82377
-8.36454
-7.03567
-5.8476
-4.80049
-3.88793
-3.10098
-2.42929
-1.86182
-1.38726
-0.994207
-0.671132
-0.406526
-0.189696
-0.0119577
0.133053
0.250198
0.343667
0.417246
0.474272
0.517589
0.549578
0.572223
0.58719
0.595878
0.599463
0.598933
0.595115
0.588699
0.580261
0.570276
0.559138
0.54717
0.534634
0.521744
0.508671
0.495548
0.482482
0.469553
0.456822
0.444332
0.432111
0.420179
0.408543
0.397206
0.386164
0.375407
0.364924
0.354699
0.344717
0.33496
0.325409
0.316046
0.306853
0.297811
0.288902
0.280109
0.271416
0.262806
0.254265
0.245779
0.237334
0.228918
0.220519
0.212126
0.20373
0.195322
0.186891
0.178432
0.169935
0.161395
0.152806
0.144161
0.135455
0.126683
0.117841
0.108925
0.0999306
0.0908542
0.0816924
0.0724428
0.0631006
0.0536667
0.044131
0.0345069
0.024758
0.0149567
0.00493552
-12.2633
-12.6934
-13.2502
-14.0127
-14.764
-15.3071
-15.5183
-15.2998
-14.6272
-13.5702
-12.2596
-10.8444
-9.43993
-8.10813
-6.87835
-5.76586
-4.7753
-3.90434
-3.14713
-2.49576
-1.94111
-1.47343
-1.08263
-0.758408
-0.490511
-0.269384
-0.0870739
0.0625383
0.1843
0.282386
0.360518
0.421959
0.469495
0.505473
0.531864
0.550328
0.562266
0.56886
0.571107
0.569843
0.565773
0.559482
0.551461
0.542116
0.531783
0.520736
0.509201
0.497359
0.485354
0.473303
0.461294
0.449397
0.437661
0.426124
0.414809
0.403732
0.392899
0.382312
0.371965
0.361851
0.351959
0.342276
0.332788
0.323478
0.314332
0.305333
0.296464
0.287711
0.279056
0.270487
0.261987
0.253544
0.245145
0.236778
0.22843
0.220092
0.211753
0.203405
0.195038
0.186644
0.178217
0.169749
0.161234
0.152666
0.144041
0.135351
0.126594
0.117765
0.10886
0.0998757
0.0908079
0.0816536
0.0724106
0.0630742
0.0536458
0.0441144
0.0344956
0.0247486
0.0149556
0.00492875
-11.9814
-12.3874
-12.8611
-13.4453
-14.0039
-14.3879
-14.4974
-14.2583
-13.651
-12.726
-11.5818
-10.3324
-9.07159
-7.85702
-6.72069
-5.68087
-4.74562
-3.91591
-3.18861
-2.55803
-2.01683
-1.55677
-1.16902
-0.844489
-0.57409
-0.3493
-0.162844
-0.00888561
0.11734
0.219949
0.302576
0.368402
0.420152
0.460133
0.490299
0.5123
0.527536
0.537193
0.542274
0.543625
0.541959
0.537876
0.531879
0.524384
0.515741
0.506236
0.496105
0.485541
0.474698
0.463703
0.452653
0.441624
0.430676
0.419852
0.409183
0.398689
0.388384
0.378272
0.368355
0.358628
0.349084
0.339715
0.330508
0.321452
0.312533
0.303737
0.29505
0.28646
0.277951
0.269511
0.261127
0.252787
0.244479
0.236193
0.227918
0.219643
0.211361
0.203062
0.194739
0.186385
0.177991
0.169553
0.161065
0.15252
0.143914
0.135243
0.126501
0.117686
0.108793
0.0998181
0.0907593
0.0816129
0.0723769
0.0630466
0.0536238
0.0440969
0.0344837
0.0247389
0.0149538
0.00492266
-11.6943
-12.0576
-12.4541
-12.9006
-13.3081
-13.5659
-13.5945
-13.339
-12.7843
-11.9669
-10.9604
-9.85225
-8.71856
-7.61125
-6.56255
-5.59234
-4.71101
-3.92213
-3.2249
-2.61557
-2.08849
-1.63682
-1.25298
-0.929025
-0.656939
-0.429145
-0.239003
-0.0809939
0.0495048
0.156505
0.243541
0.313699
0.369636
0.41362
0.447575
0.473143
0.491716
0.504481
0.512446
0.516465
0.51726
0.515442
0.511523
0.505934
0.499034
0.491122
0.482444
0.473205
0.463569
0.45367
0.443616
0.433493
0.423366
0.413286
0.40329
0.393406
0.383651
0.374037
0.364569
0.355247
0.346068
0.337027
0.328116
0.319325
0.310643
0.302061
0.293565
0.285146
0.276789
0.268486
0.260223
0.251992
0.24378
0.235579
0.227379
0.219172
0.210949
0.202703
0.194426
0.186112
0.177754
0.169348
0.160887
0.152366
0.143782
0.135129
0.126403
0.117602
0.108721
0.0997575
0.0907083
0.0815701
0.0723415
0.0630175
0.0536008
0.0440787
0.034471
0.0247289
0.0149513
0.00491729
-11.4017
-11.7147
-12.0388
-12.3746
-12.6623
-12.8205
-12.7873
-12.5211
-12.0105
-11.2816
-10.3897
-9.40223
-8.38079
-7.37111
-6.40417
-5.50027
-4.67129
-3.92272
-3.25563
-2.66801
-2.15573
-1.71326
-1.3342
-1.0117
-0.738753
-0.508621
-0.315279
-0.153552
-0.0190098
0.0922194
0.183548
0.257961
0.318041
0.366007
0.403754
0.432904
0.454842
0.470753
0.481646
0.488381
0.491687
0.492185
0.490398
0.486766
0.48166
0.475391
0.468214
0.460344
0.451957
0.443196
0.434178
0.424995
0.415721
0.406416
0.397122
0.387874
0.378694
0.3696
0.360601
0.351702
0.342905
0.334208
0.325606
0.317092
0.308661
0.300302
0.292007
0.283766
0.27557
0.267409
0.259274
0.251156
0.243045
0.234934
0.226813
0.218676
0.210516
0.202324
0.194096
0.185825
0.177505
0.169132
0.1607
0.152205
0.143642
0.135009
0.126301
0.117514
0.108646
0.0996939
0.0906546
0.0815252
0.0723043
0.062987
0.0535765
0.0440594
0.0344574
0.0247185
0.014948
0.00491261
-11.1056
-11.3672
-11.6251
-11.8717
-12.0647
-12.1448
-12.064
-11.7909
-11.3169
-10.6611
-9.86511
-8.98096
-8.05847
-7.13729
-6.24619
-5.40511
-4.62667
-3.91768
-3.2807
-2.71517
-2.21831
-1.78583
-1.41243
-1.09226
-0.819244
-0.587441
-0.3914
-0.226318
-0.0879963
0.0272668
0.122745
0.201312
0.265471
0.317383
0.358907
0.391643
0.416964
0.436048
0.449905
0.459396
0.465259
0.46812
0.468513
0.466887
0.463624
0.459044
0.453414
0.446959
0.439863
0.432279
0.424332
0.416125
0.407739
0.399239
0.390675
0.382089
0.373509
0.364956
0.356447
0.347991
0.339593
0.331254
0.322975
0.314753
0.306582
0.298457
0.290372
0.282319
0.27429
0.266279
0.258278
0.250279
0.242274
0.234256
0.226219
0.218156
0.210061
0.201928
0.19375
0.185524
0.177244
0.168905
0.160503
0.152035
0.143496
0.134883
0.126193
0.117422
0.108568
0.0996272
0.0905983
0.081478
0.0722651
0.0629549
0.0535509
0.0440392
0.0344431
0.0247076
0.0149439
0.00490861
-10.8083
-11.0205
-11.2191
-11.393
-11.511
-11.5296
-11.4124
-11.1356
-10.6928
-10.098
-9.38272
-8.5873
-7.75198
-6.91071
-6.08961
-5.30769
-4.57772
-3.90736
-3.30027
-2.75708
-2.27619
-1.85441
-1.48747
-1.17046
-0.898147
-0.665324
-0.467097
-0.299048
-0.157241
-0.0381672
0.0612914
0.14389
0.212042
0.267846
0.313118
0.349431
0.37814
0.400416
0.417262
0.429544
0.438002
0.443269
0.445885
0.44631
0.444935
0.442089
0.43805
0.433051
0.427286
0.420919
0.414081
0.406884
0.399417
0.391753
0.383948
0.37605
0.368093
0.360105
0.352106
0.34411
0.336128
0.328165
0.320223
0.312304
0.304406
0.296526
0.288659
0.280803
0.27295
0.265096
0.257234
0.249359
0.241465
0.233546
0.225597
0.217611
0.209584
0.201511
0.193387
0.185208
0.176969
0.168667
0.160297
0.151857
0.143343
0.134751
0.126079
0.117325
0.108485
0.0995571
0.0905392
0.0814284
0.0722241
0.0629213
0.053524
0.044018
0.0344278
0.0246963
0.014939
0.00490522
-10.5121
-10.6787
-10.8249
-10.939
-10.9975
-10.9682
-10.8235
-10.5455
-10.1295
-9.58611
-8.9392
-8.22021
-7.46165
-6.69234
-5.93555
-5.209
-4.52523
-3.89231
-3.31467
-2.79391
-2.3294
-1.91895
-1.5592
-1.24611
-0.975221
-0.742006
-0.542108
-0.371499
-0.226524
-0.10389
-0.00064296
0.0858421
0.157882
0.217505
0.26648
0.306347
0.338439
0.363912
0.383767
0.398866
0.40995
0.417659
0.422538
0.425055
0.42561
0.42454
0.422132
0.418629
0.414235
0.409121
0.403428
0.397275
0.390759
0.383959
0.376941
0.369756
0.362447
0.355045
0.347577
0.340061
0.332511
0.324938
0.317348
0.309746
0.302132
0.294507
0.28687
0.279218
0.271549
0.263858
0.256143
0.248398
0.24062
0.232804
0.224945
0.217041
0.209085
0.201076
0.193008
0.184878
0.176682
0.168418
0.160082
0.151671
0.143182
0.134613
0.125961
0.117224
0.108399
0.0994838
0.0904773
0.0813766
0.0721811
0.062886
0.0534958
0.0439958
0.0344116
0.0246846
0.0149333
0.00490238
-10.2192
-10.3445
-10.445
-10.51
-10.5211
-10.4545
-10.2893
-10.0122
-9.61975
-9.12008
-8.53148
-7.87858
-7.18765
-6.48297
-5.78504
-5.11007
-4.47005
-3.87316
-3.32435
-2.82592
-2.37807
-1.97944
-1.62753
-1.31904
-1.05024
-0.817239
-0.61618
-0.443429
-0.295625
-0.169701
-0.0628816
0.0273237
0.103127
0.16648
0.219098
0.26248
0.297936
0.326605
0.349477
0.36741
0.381146
0.391326
0.398502
0.403147
0.405669
0.406413
0.405675
0.403706
0.40072
0.396894
0.392379
0.387303
0.381768
0.375862
0.369657
0.363211
0.356572
0.349779
0.342861
0.335843
0.328743
0.321575
0.314351
0.307078
0.29976
0.292401
0.285002
0.277564
0.270086
0.262566
0.255003
0.247394
0.239736
0.232028
0.224265
0.216445
0.208564
0.200621
0.192611
0.184532
0.176382
0.168158
0.159856
0.151476
0.143014
0.134468
0.125837
0.117118
0.108308
0.0994071
0.0904126
0.0813224
0.0721361
0.0628491
0.0534662
0.0439726
0.0343946
0.0246724
0.0149268
0.00489999
-9.93142
-10.02
-10.0811
-10.1054
-10.0789
-9.9835
-9.80341
-9.5288
-9.1573
-8.69522
-8.15672
-7.56118
-6.92988
-6.28319
-5.63895
-5.0118
-4.413
-3.8506
-3.3298
-2.85343
-2.42236
-2.03594
-1.69238
-1.3891
-1.12301
-0.890791
-0.689072
-0.514603
-0.364324
-0.235401
-0.125241
-0.031501
0.0479226
0.114899
0.171083
0.21793
0.256719
0.288568
0.314455
0.335231
0.351636
0.364311
0.373812
0.380616
0.385138
0.387731
0.388698
0.388298
0.386753
0.384249
0.380946
0.376976
0.372452
0.367468
0.362102
0.356419
0.350474
0.344309
0.337961
0.331458
0.324825
0.318078
0.311234
0.304302
0.297292
0.290209
0.283058
0.275842
0.268562
0.26122
0.253815
0.246348
0.238816
0.231219
0.223555
0.215823
0.208021
0.200146
0.192197
0.184172
0.176069
0.167886
0.159621
0.151273
0.142839
0.134318
0.125708
0.117007
0.108214
0.0993271
0.0903451
0.0812658
0.0720891
0.0628106
0.0534353
0.0439483
0.0343766
0.0246598
0.0149196
0.00489796
-9.65034
-9.70643
-9.73378
-9.7248
-9.66841
-9.55081
-9.36025
-9.08944
-8.73682
-8.30739
-7.81223
-7.2667
-6.68804
-6.09331
-5.49794
-4.91497
-4.35482
-3.82522
-3.33148
-2.87677
-2.46246
-2.0885
-1.75373
-1.45618
-1.19335
-0.96245
-0.760557
-0.584795
-0.432402
-0.300783
-0.187535
-0.0904613
-0.00757688
0.0629003
0.122558
0.172804
0.214881
0.249884
0.278775
0.302394
0.321477
0.336663
0.34851
0.3575
0.36405
0.368521
0.371225
0.372426
0.372354
0.371203
0.36914
0.366306
0.36282
0.358784
0.354283
0.349387
0.344156
0.33864
0.332881
0.326912
0.32076
0.314449
0.307998
0.30142
0.294728
0.287932
0.281038
0.274052
0.266979
0.259821
0.252581
0.24526
0.237859
0.230378
0.222818
0.215177
0.207456
0.199653
0.191767
0.183798
0.175744
0.167604
0.159377
0.151062
0.142657
0.134161
0.125573
0.116892
0.108116
0.099244
0.0902749
0.081207
0.0720403
0.0627706
0.0534031
0.043923
0.0343578
0.0246466
0.0149118
0.00489621
-9.37718
-9.4049
-9.40358
-9.36722
-9.28714
-9.15273
-8.95518
-8.68917
-8.35373
-7.95292
-7.49551
-6.99373
-6.46164
-5.91347
-5.36247
-4.82019
-4.29612
-3.79759
-3.32984
-2.89624
-2.49856
-2.13721
-1.81156
-1.52019
-1.26112
-1.03202
-0.830421
-0.653786
-0.499646
-0.365644
-0.24957
-0.149381
-0.0632113
0.0106278
0.0736524
0.127217
0.172526
0.210646
0.242518
0.26897
0.290731
0.308437
0.322645
0.333839
0.342441
0.348817
0.353284
0.356114
0.357543
0.357773
0.356979
0.355308
0.352886
0.349823
0.346209
0.342121
0.337627
0.33278
0.327627
0.322207
0.316554
0.310692
0.304647
0.298435
0.292073
0.285572
0.278944
0.272197
0.265337
0.25837
0.251301
0.244132
0.236867
0.229506
0.222053
0.214507
0.206869
0.19914
0.19132
0.183409
0.175406
0.167311
0.159123
0.150842
0.142468
0.133999
0.125434
0.116773
0.108014
0.0991576
0.0902021
0.0811459
0.0719896
0.062729
0.0533697
0.0438968
0.0343382
0.0246331
0.0149034
0.00489463
-9.1129
-9.11602
-9.0905
-9.03175
-8.933
-8.78602
-8.58421
-8.32372
-8.00405
-7.62855
-7.20422
-6.74091
-6.25008
-5.74361
-5.23285
-4.72795
-4.23746
-3.76822
-3.3253
-2.91218
-2.53086
-2.18216
-1.86588
-1.58105
-1.32617
-1.09934
-0.89847
-0.721368
-0.565847
-0.429783
-0.311156
-0.208081
-0.118814
-0.0417662
0.0245048
0.0812955
0.129766
0.170952
0.205772
0.235038
0.259469
0.279695
0.296271
0.309683
0.320354
0.328655
0.334908
0.339391
0.342346
0.343983
0.344482
0.343998
0.342665
0.340597
0.337892
0.334634
0.330895
0.326735
0.322206
0.317352
0.31221
0.306812
0.301185
0.29535
0.289328
0.283133
0.27678
0.270279
0.263639
0.25687
0.249977
0.242965
0.235839
0.228604
0.221261
0.213813
0.206262
0.19861
0.190858
0.183007
0.175056
0.167007
0.158861
0.150616
0.142272
0.13383
0.125289
0.116649
0.107909
0.0990683
0.0901266
0.0810826
0.0719371
0.0626859
0.053335
0.0438696
0.0343178
0.0246191
0.0148946
0.00489316
-8.85825
-8.84017
-8.79435
-8.71739
-8.60404
-8.44786
-8.24392
-7.98947
-7.68437
-7.3314
-6.93624
-6.50687
-6.05268
-5.58359
-5.10929
-4.63863
-4.1793
-3.73756
-3.31827
-2.92488
-2.55959
-2.22348
-1.91671
-1.63872
-1.3884
-1.16425
-0.964525
-0.787349
-0.630806
-0.492999
-0.3721
-0.266378
-0.174215
-0.0941235
-0.0247399
0.0351704
0.0867214
0.130912
0.168635
0.200685
0.227768
0.250506
0.269451
0.285087
0.297839
0.30808
0.316136
0.322292
0.326794
0.329859
0.331674
0.332399
0.332175
0.331123
0.329348
0.326938
0.323972
0.320516
0.316626
0.312353
0.307737
0.302815
0.297618
0.292171
0.286498
0.280618
0.274547
0.2683
0.261888
0.255322
0.24861
0.24176
0.234779
0.227672
0.220443
0.213097
0.205636
0.198063
0.190381
0.182591
0.174695
0.166694
0.158589
0.150381
0.14207
0.133656
0.12514
0.116521
0.1078
0.098976
0.0900487
0.0810174
0.0718829
0.0626414
0.0532992
0.0438416
0.0342967
0.0246047
0.0148854
0.00489171
-8.61375
-8.57753
-8.51479
-8.42312
-8.29845
-8.13576
-7.93134
-7.68329
-7.39169
-7.05892
-6.68963
-6.29032
-5.86873
-5.43316
-4.99186
-4.55254
-4.12202
-3.70602
-3.30911
-2.93467
-2.58496
-2.26129
-1.96411
-1.69318
-1.44774
-1.22663
-1.02843
-0.851548
-0.694332
-0.555101
-0.432212
-0.324088
-0.22924
-0.146281
-0.0739301
-0.0110181
0.0435188
0.0906412
0.131213
0.166007
0.195714
0.220948
0.242254
0.260113
0.27495
0.28714
0.297013
0.304856
0.310922
0.315433
0.318581
0.320534
0.321439
0.321421
0.320592
0.319048
0.316872
0.314134
0.310899
0.30722
0.303142
0.298708
0.293951
0.288903
0.283589
0.278031
0.272251
0.266264
0.260085
0.253728
0.247203
0.240521
0.233688
0.226713
0.219602
0.212359
0.20499
0.197499
0.189889
0.182163
0.174323
0.166372
0.15831
0.15014
0.141862
0.133477
0.124987
0.11639
0.107688
0.098881
0.0899686
0.0809502
0.071827
0.0625957
0.0532623
0.0438128
0.0342749
0.0245898
0.0148758
0.00489023
-8.37977
-8.32812
-8.25137
-8.14791
-8.01462
-7.84754
-7.64392
-7.40246
-7.12342
-6.80886
-6.46261
-6.09003
-5.69752
-5.29204
-4.8806
-4.4699
-4.06596
-3.67398
-3.29818
-2.94183
-2.60721
-2.29576
-2.00815
-1.74443
-1.50412
-1.28637
-1.09003
-0.913799
-0.756244
-0.6159
-0.491303
-0.381027
-0.283711
-0.19807