/*--------------------------------*- C++ -*----------------------------------*\
  =========                 |
  \\      /  F ield         | OpenFOAM: The Open Source CFD Toolbox
   \\    /   O peration     | Website:  https://openfoam.org
    \\  /    A nd           | Version:  10
     \\/     M anipulation  |
\*---------------------------------------------------------------------------*/
FoamFile
{
    format      ascii;
    class       surfaceScalarField;
    location    "0.01";
    object      phi;
}
// * * * * * * * * * * * * * * * * * * * * * * * * * * * * * * * * * * * * * //

dimensions      [0 3 -1 0 0 0 0];

internalField   nonuniform List<scalar> 
13452
(
6.05803e-05
-3.11806e-07
6.03851e-05
1.95121e-07
5.99326e-05
4.52527e-07
5.93453e-05
5.87279e-07
5.87742e-05
5.71116e-07
5.82798e-05
4.94386e-07
5.78654e-05
4.14396e-07
5.75216e-05
3.43848e-07
5.72378e-05
2.838e-07
5.70051e-05
2.32647e-07
5.68172e-05
1.87924e-07
5.66698e-05
1.47392e-07
5.65604e-05
1.09454e-07
5.64871e-05
7.33133e-08
5.64481e-05
3.89719e-08
5.64378e-05
1.02481e-08
5.64492e-05
-1.13223e-08
5.64796e-05
-3.04792e-08
5.653e-05
-5.03877e-08
5.66017e-05
-7.16811e-08
5.66964e-05
-9.47252e-08
5.68167e-05
-1.20261e-07
5.6966e-05
-1.4928e-07
5.71488e-05
-1.82821e-07
5.73706e-05
-2.21843e-07
5.76378e-05
-2.67125e-07
5.79574e-05
-3.19602e-07
5.83381e-05
-3.8075e-07
5.87895e-05
-4.51352e-07
5.93349e-05
-5.45446e-07
5.99616e-05
-6.26696e-07
6.08242e-05
-8.62539e-07
-8.93872e-07
6.1718e-05
6.18038e-05
-1.25312e-07
6.17676e-05
2.31322e-07
6.18894e-05
3.30781e-07
6.20609e-05
4.15753e-07
6.2182e-05
4.50036e-07
6.22305e-05
4.4589e-07
6.22211e-05
4.23837e-07
6.21748e-05
3.90131e-07
6.21084e-05
3.50149e-07
6.20335e-05
3.07532e-07
6.19576e-05
2.63844e-07
6.18855e-05
2.19517e-07
6.18204e-05
1.74521e-07
6.1765e-05
1.28736e-07
6.17218e-05
8.21456e-08
6.16966e-05
3.54362e-08
6.16956e-05
-1.02444e-08
6.17202e-05
-5.51585e-08
6.17694e-05
-9.95848e-08
6.18426e-05
-1.44801e-07
6.19401e-05
-1.92316e-07
6.2064e-05
-2.44117e-07
6.22172e-05
-3.02432e-07
6.24038e-05
-3.69459e-07
6.26291e-05
-4.47114e-07
6.28991e-05
-5.37155e-07
6.32207e-05
-6.41196e-07
6.36023e-05
-7.62383e-07
6.40539e-05
-9.02926e-07
6.45867e-05
-1.07829e-06
6.5239e-05
-1.27897e-06
6.5996e-05
-1.61954e-06
-1.9276e-06
6.70297e-05
6.36632e-05
-2.7071e-08
6.37604e-05
1.34119e-07
6.38353e-05
2.558e-07
6.3903e-05
3.48117e-07
6.39654e-05
3.87658e-07
6.4021e-05
3.9028e-07
6.40707e-05
3.7414e-07
6.41133e-05
3.47462e-07
6.41498e-05
3.13686e-07
6.41822e-05
2.75136e-07
6.4213e-05
2.3304e-07
6.42446e-05
1.87895e-07
6.42793e-05
1.39846e-07
6.43191e-05
8.89438e-08
6.43658e-05
3.53915e-08
6.44217e-05
-2.0401e-08
6.44892e-05
-7.77206e-08
6.45701e-05
-1.3606e-07
6.46657e-05
-1.95213e-07
6.47772e-05
-2.56278e-07
6.49062e-05
-3.21365e-07
6.50556e-05
-3.93465e-07
6.52291e-05
-4.7594e-07
6.54316e-05
-5.72007e-07
6.56689e-05
-6.84353e-07
6.5947e-05
-8.15319e-07
6.62727e-05
-9.6692e-07
6.66534e-05
-1.143e-06
6.70969e-05
-1.34651e-06
6.76119e-05
-1.59327e-06
6.82126e-05
-1.87968e-06
6.88799e-05
-2.28681e-06
-2.70912e-06
6.96614e-05
6.55789e-05
-2.29367e-08
6.55654e-05
1.47672e-07
6.5586e-05
2.35171e-07
6.56439e-05
2.90227e-07
6.57151e-05
3.16507e-07
6.57876e-05
3.17736e-07
6.5858e-05
3.03764e-07
6.59263e-05
2.79173e-07
6.59935e-05
2.46443e-07
6.6061e-05
2.07628e-07
6.61302e-05
1.63898e-07
6.62023e-05
1.15721e-07
6.62789e-05
6.32318e-08
6.63614e-05
6.51007e-09
6.6451e-05
-5.42404e-08
6.65491e-05
-1.18495e-07
6.66569e-05
-1.85498e-07
6.67754e-05
-2.54614e-07
6.6906e-05
-3.25761e-07
6.70499e-05
-4.00189e-07
6.7209e-05
-4.80487e-07
6.73859e-05
-5.70349e-07
6.75839e-05
-6.73976e-07
6.78074e-05
-7.95434e-07
6.80612e-05
-9.38165e-07
6.8351e-05
-1.1051e-06
6.86828e-05
-1.29873e-06
6.90628e-05
-1.52303e-06
6.9498e-05
-1.78169e-06
6.99924e-05
-2.08771e-06
7.05557e-05
-2.44295e-06
7.11668e-05
-2.89791e-06
-3.39777e-06
7.18554e-05
6.74283e-05
5.52014e-09
6.74613e-05
1.14654e-07
6.75038e-05
1.92711e-07
6.75529e-05
2.41087e-07
6.76069e-05
2.62574e-07
6.76653e-05
2.5934e-07
6.77285e-05
2.40573e-07
6.77961e-05
2.11535e-07
6.78679e-05
1.74619e-07
6.79441e-05
1.31432e-07
6.80252e-05
8.28271e-08
6.81118e-05
2.90721e-08
6.82049e-05
-2.98321e-08
6.83053e-05
-9.39148e-08
6.84141e-05
-1.62987e-07
6.85321e-05
-2.3651e-07
6.86603e-05
-3.1369e-07
6.87995e-05
-3.93863e-07
6.89508e-05
-4.77068e-07
6.91154e-05
-5.64744e-07
6.92948e-05
-6.59884e-07
6.94912e-05
-7.66756e-07
6.97075e-05
-8.90254e-07
6.99472e-05
-1.03515e-06
7.02146e-05
-1.20554e-06
7.05143e-05
-1.40481e-06
7.08514e-05
-1.63579e-06
7.12306e-05
-1.9023e-06
7.16571e-05
-2.20813e-06
7.21327e-05
-2.56331e-06
7.26615e-05
-2.97173e-06
7.32273e-05
-3.46376e-06
-4.01236e-06
7.38419e-05
6.93799e-05
9.66976e-09
6.93969e-05
9.76678e-08
6.94284e-05
1.612e-07
6.94732e-05
1.96242e-07
6.95273e-05
2.08501e-07
6.95868e-05
1.99813e-07
6.96508e-05
1.76554e-07
6.97194e-05
1.42942e-07
6.9793e-05
1.01045e-07
6.98721e-05
5.2298e-08
6.99575e-05
-2.50244e-09
7.00497e-05
-6.3132e-08
7.01495e-05
-1.29637e-07
7.02577e-05
-2.02099e-07
7.0375e-05
-2.80367e-07
7.05025e-05
-3.6392e-07
7.06407e-05
-4.51966e-07
7.07907e-05
-5.43878e-07
7.09535e-05
-6.39817e-07
7.11301e-05
-7.41397e-07
7.13222e-05
-8.51896e-07
7.15314e-05
-9.75971e-07
7.17601e-05
-1.11899e-06
7.20112e-05
-1.28622e-06
7.22878e-05
-1.48221e-06
7.25937e-05
-1.7107e-06
7.29326e-05
-1.97469e-06
7.3308e-05
-2.27764e-06
7.37229e-05
-2.62306e-06
7.41779e-05
-3.01828e-06
7.46736e-05
-3.46748e-06
7.51984e-05
-3.98856e-06
-4.5691e-06
7.57551e-05
7.13623e-05
1.37288e-08
7.13819e-05
7.80208e-08
7.14166e-05
1.26484e-07
7.14615e-05
1.51359e-07
7.15136e-05
1.5638e-07
7.1571e-05
1.42497e-07
7.16333e-05
1.14222e-07
7.1701e-05
7.5248e-08
7.17745e-05
2.75697e-08
7.18542e-05
-2.74882e-08
7.1941e-05
-8.92078e-08
7.20352e-05
-1.57396e-07
7.21377e-05
-2.3214e-07
7.22492e-05
-3.13558e-07
7.23703e-05
-4.01538e-07
7.2502e-05
-4.956e-07
7.26451e-05
-5.95008e-07
7.28004e-05
-6.99212e-07
7.29691e-05
-8.08496e-07
7.31523e-05
-9.24613e-07
7.33514e-05
-1.05101e-06
7.3568e-05
-1.19258e-06
7.3804e-05
-1.35494e-06
7.40614e-05
-1.54364e-06
7.43427e-05
-1.76349e-06
7.46503e-05
-2.01836e-06
7.49869e-05
-2.31127e-06
7.53545e-05
-2.64519e-06
7.57545e-05
-3.02306e-06
7.61862e-05
-3.45e-06
7.66483e-05
-3.92953e-06
7.71318e-05
-4.47206e-06
-5.0722e-06
7.76349e-05
7.34063e-05
1.26982e-08
7.3425e-05
5.93181e-08
7.34572e-05
9.42859e-08
7.34996e-05
1.08963e-07
7.35502e-05
1.05824e-07
7.36069e-05
8.57639e-08
7.36691e-05
5.19736e-08
7.3737e-05
7.42307e-09
7.38107e-05
-4.61864e-08
7.38909e-05
-1.07713e-07
7.39783e-05
-1.76536e-07
7.40734e-05
-2.52489e-07
7.41769e-05
-3.35678e-07
7.42896e-05
-4.26241e-07
7.44122e-05
-5.24105e-07
7.45454e-05
-6.28851e-07
7.46902e-05
-7.39831e-07
7.48476e-05
-8.56607e-07
7.50187e-05
-9.79587e-07
7.52047e-05
-1.11063e-06
7.5407e-05
-1.25326e-06
7.56268e-05
-1.41243e-06
7.58657e-05
-1.59382e-06
7.61251e-05
-1.80306e-06
7.64066e-05
-2.04499e-06
7.67117e-05
-2.32343e-06
7.70417e-05
-2.64122e-06
7.73973e-05
-3.00081e-06
7.77786e-05
-3.4044e-06
7.81839e-05
-3.85531e-06
7.86104e-05
-4.35607e-06
7.90509e-05
-4.91252e-06
-5.52223e-06
7.95009e-05
7.5505e-05
1.01299e-08
7.55232e-05
4.11949e-08
7.55544e-05
6.30116e-08
7.55957e-05
6.76589e-08
7.56451e-05
5.64217e-08
7.5701e-05
2.99414e-08
7.57626e-05
-9.63898e-09
7.583e-05
-6.00233e-08
7.59036e-05
-1.19762e-07
7.59838e-05
-1.87899e-07
7.60712e-05
-2.6391e-07
7.61663e-05
-3.47668e-07
7.627e-05
-4.39303e-07
7.63827e-05
-5.38977e-07
7.65053e-05
-6.46663e-07
7.66384e-05
-7.62022e-07
7.67831e-05
-8.84525e-07
7.69404e-05
-1.01387e-06
7.71114e-05
-1.1506e-06
7.72974e-05
-1.29663e-06
7.74996e-05
-1.45549e-06
7.77193e-05
-1.63207e-06
7.79574e-05
-1.83194e-06
7.82149e-05
-2.06056e-06
7.84926e-05
-2.32264e-06
7.87909e-05
-2.62177e-06
7.91101e-05
-2.96045e-06
7.94498e-05
-3.34054e-06
7.98089e-05
-3.7635e-06
8.01848e-05
-4.23119e-06
8.05738e-05
-4.74505e-06
8.09693e-05
-5.30803e-06
-5.91862e-06
8.13657e-05
7.76635e-05
6.20776e-09
7.76812e-05
2.35228e-08
7.77112e-05
3.30311e-08
7.77509e-05
2.79362e-08
7.77987e-05
8.55118e-09
7.78534e-05
-2.4721e-08
7.79142e-05
-7.04494e-08
7.79811e-05
-1.26907e-07
7.80543e-05
-1.92918e-07
7.81341e-05
-2.67717e-07
7.82211e-05
-3.50891e-07
7.83158e-05
-4.42371e-07
7.84188e-05
-5.42313e-07
7.85307e-05
-6.50906e-07
7.86522e-05
-7.68177e-07
7.87841e-05
-8.93883e-07
7.89272e-05
-1.02764e-06
7.90826e-05
-1.1693e-06
7.92515e-05
-1.31953e-06
7.94352e-05
-1.4803e-06
7.96348e-05
-1.65507e-06
7.98513e-05
-1.84854e-06
8.00853e-05
-2.06601e-06
8.03374e-05
-2.31263e-06
8.06075e-05
-2.59275e-06
8.08953e-05
-2.90958e-06
8.12001e-05
-3.2652e-06
8.15204e-05
-3.66085e-06
8.18541e-05
-4.09723e-06
8.21979e-05
-4.57504e-06
8.25476e-05
-5.09469e-06
8.28968e-05
-5.65723e-06
-6.26108e-06
8.32392e-05
7.98829e-05
1.61625e-09
7.99e-05
6.40273e-09
7.99288e-05
4.29197e-09
7.99671e-05
-1.03501e-08
8.00135e-05
-3.78784e-08
8.00669e-05
-7.81212e-08
8.01266e-05
-1.30193e-07
8.01926e-05
-1.9286e-07
8.02649e-05
-2.65218e-07
8.03438e-05
-3.46676e-07
8.04299e-05
-4.36938e-07
8.05235e-05
-5.3599e-07
8.06252e-05
-6.44014e-07
8.07355e-05
-7.61228e-07
8.08551e-05
-8.87716e-07
8.09845e-05
-1.02334e-06
8.11248e-05
-1.16788e-06
8.12768e-05
-1.32137e-06
8.14419e-05
-1.48459e-06
8.16212e-05
-1.65957e-06
8.18157e-05
-1.84961e-06
8.20263e-05
-2.05915e-06
8.22534e-05
-2.29307e-06
8.24968e-05
-2.55605e-06
8.2756e-05
-2.85195e-06
8.30299e-05
-3.18348e-06
8.33169e-05
-3.55218e-06
8.36147e-05
-3.95868e-06
8.39205e-05
-4.40296e-06
8.42302e-05
-4.88482e-06
8.45393e-05
-5.40375e-06
8.48416e-05
-5.9595e-06
-6.55005e-06
8.51305e-05
8.21654e-05
-3.31501e-09
8.2182e-05
-1.01752e-08
8.22095e-05
-2.32501e-08
8.22463e-05
-4.7178e-08
8.22912e-05
-8.27543e-08
8.23431e-05
-1.30053e-07
8.24015e-05
-1.88593e-07
8.24662e-05
-2.5755e-07
8.25373e-05
-3.36266e-07
8.26149e-05
-4.24321e-07
8.26995e-05
-5.21524e-07
8.27914e-05
-6.2792e-07
8.28911e-05
-7.43717e-07
8.29991e-05
-8.69158e-07
8.31157e-05
-1.00438e-06
8.32417e-05
-1.14936e-06
8.33779e-05
-1.30405e-06
8.35252e-05
-1.46866e-06
8.36847e-05
-1.64414e-06
8.38577e-05
-1.8325e-06
8.4045e-05
-2.03691e-06
8.42472e-05
-2.26141e-06
8.44646e-05
-2.51039e-06
8.46964e-05
-2.78792e-06
8.49417e-05
-3.09725e-06
8.51987e-05
-3.44047e-06
8.54651e-05
-3.81854e-06
8.57379e-05
-4.23147e-06
8.60135e-05
-4.67864e-06
8.62878e-05
-5.15909e-06
8.65556e-05
-5.67159e-06
8.68111e-05
-6.21495e-06
-6.78672e-06
8.70478e-05
8.45128e-05
-8.35537e-09
8.45288e-05
-2.61621e-08
8.45551e-05
-4.95985e-08
8.45905e-05
-8.25284e-08
8.46338e-05
-1.2602e-07
8.46841e-05
-1.80369e-07
8.47409e-05
-2.45408e-07
8.4804e-05
-3.20646e-07
8.48734e-05
-4.05654e-07
8.49492e-05
-5.00167e-07
8.50318e-05
-6.04096e-07
8.51214e-05
-7.17537e-07
8.52184e-05
-8.40717e-07
8.53232e-05
-9.73897e-07
8.5436e-05
-1.11727e-06
8.55576e-05
-1.27091e-06
8.56885e-05
-1.43495e-06
8.58296e-05
-1.60981e-06
8.59821e-05
-1.79659e-06
8.61469e-05
-1.99729e-06
8.63249e-05
-2.21489e-06
8.65165e-05
-2.45303e-06
8.67216e-05
-2.71548e-06
8.69393e-05
-3.00562e-06
8.7168e-05
-3.32596e-06
8.74054e-05
-3.67792e-06
8.76487e-05
-4.06184e-06
8.78944e-05
-4.47715e-06
8.81385e-05
-4.92269e-06
8.83763e-05
-5.39692e-06
8.86028e-05
-5.89806e-06
8.88121e-05
-6.4243e-06
-6.97284e-06
8.89983e-05
8.69272e-05
-1.33611e-08
8.69425e-05
-4.15188e-08
8.69677e-05
-7.47563e-08
8.70015e-05
-1.16369e-07
8.70431e-05
-1.67583e-07
8.70916e-05
-2.28891e-07
8.71466e-05
-3.00371e-07
8.72077e-05
-3.81807e-07
8.72751e-05
-4.72969e-07
8.73486e-05
-5.73731e-07
8.74286e-05
-6.84096e-07
8.75153e-05
-8.04205e-07
8.76089e-05
-9.34298e-07
8.77096e-05
-1.07464e-06
8.78178e-05
-1.22547e-06
8.79339e-05
-1.38698e-06
8.80584e-05
-1.55945e-06
8.81921e-05
-1.74352e-06
8.83359e-05
-1.94045e-06
8.84909e-05
-2.15225e-06
8.86577e-05
-2.38168e-06
8.88366e-05
-2.63192e-06
8.90272e-05
-2.90608e-06
8.92283e-05
-3.20678e-06
8.94381e-05
-3.53572e-06
8.96537e-05
-3.89357e-06
8.9872e-05
-4.28004e-06
9.00889e-05
-4.69405e-06
9.03001e-05
-5.13396e-06
9.0501e-05
-5.59782e-06
9.06864e-05
-6.08348e-06
9.08509e-05
-6.58874e-06
-7.11058e-06
9.09886e-05
8.94104e-05
-1.82399e-08
8.94251e-05
-5.6201e-08
8.9449e-05
-9.87039e-08
8.94813e-05
-1.48644e-07
8.95211e-05
-2.07337e-07
8.95676e-05
-2.75436e-07
8.96205e-05
-3.53219e-07
8.96793e-05
-4.40689e-07
8.97442e-05
-5.37789e-07
8.9815e-05
-6.44516e-07
8.98918e-05
-7.60952e-07
8.99749e-05
-8.87276e-07
9.00643e-05
-1.02373e-06
9.01603e-05
-1.17059e-06
9.02629e-05
-1.3281e-06
9.03725e-05
-1.49655e-06
9.04894e-05
-1.67642e-06
9.06144e-05
-1.86853e-06
9.07483e-05
-2.07431e-06
9.08919e-05
-2.2958e-06
9.10457e-05
-2.53553e-06
9.121e-05
-2.79618e-06
9.13841e-05
-3.08019e-06
9.15666e-05
-3.38932e-06
9.17553e-05
-3.72445e-06
9.19473e-05
-4.08548e-06
9.21387e-05
-4.47149e-06
9.23255e-05
-4.88089e-06
9.25033e-05
-5.31169e-06
9.26671e-05
-5.76168e-06
9.28121e-05
-6.22849e-06
9.29331e-05
-6.70972e-06
-7.20233e-06
9.30249e-05
9.19645e-05
-2.29314e-08
9.19785e-05
-7.01639e-08
9.20012e-05
-1.21408e-07
9.20319e-05
-1.79285e-07
9.20697e-05
-2.45156e-07
9.2114e-05
-3.19807e-07
9.21645e-05
-4.03674e-07
9.22207e-05
-4.96935e-07
9.22826e-05
-5.9968e-07
9.23501e-05
-7.12013e-07
9.24233e-05
-8.34082e-07
9.25021e-05
-9.66092e-07
9.25866e-05
-1.10828e-06
9.2677e-05
-1.26091e-06
9.27731e-05
-1.42424e-06
9.28752e-05
-1.59865e-06
9.29835e-05
-1.78477e-06
9.30987e-05
-1.98365e-06
9.32212e-05
-2.19688e-06
9.33519e-05
-2.42651e-06
9.34913e-05
-2.67485e-06
9.36392e-05
-2.94412e-06
9.3795e-05
-3.23601e-06
9.39572e-05
-3.55144e-06
9.41231e-05
-3.89041e-06
9.42897e-05
-4.25206e-06
9.4453e-05
-4.63483e-06
9.46089e-05
-5.03672e-06
9.47526e-05
-5.45547e-06
9.48797e-05
-5.8887e-06
9.49852e-05
-6.334e-06
9.50644e-05
-6.78894e-06
-7.25061e-06
9.51127e-05
9.45916e-05
-2.73944e-08
9.46048e-05
-8.33614e-08
9.46262e-05
-1.42818e-07
9.46551e-05
-2.08203e-07
9.46909e-05
-2.80899e-07
9.47329e-05
-3.61792e-07
9.47806e-05
-4.51447e-07
9.48339e-05
-5.50181e-07
9.48924e-05
-6.58204e-07
9.49561e-05
-7.75707e-07
9.50249e-05
-9.02895e-07
9.50988e-05
-1.03999e-06
9.51777e-05
-1.18721e-06
9.52616e-05
-1.34479e-06
9.53504e-05
-1.51301e-06
9.54441e-05
-1.6923e-06
9.55427e-05
-1.88347e-06
9.56469e-05
-2.08775e-06
9.57569e-05
-2.30692e-06
9.58734e-05
-2.54306e-06
9.59969e-05
-2.79826e-06
9.6127e-05
-3.07426e-06
9.6263e-05
-3.37202e-06
9.64032e-05
-3.6916e-06
9.65449e-05
-4.03214e-06
9.66848e-05
-4.392e-06
9.68191e-05
-4.76906e-06
9.69433e-05
-5.16092e-06
9.70529e-05
-5.56515e-06
9.71436e-05
-5.97933e-06
9.72107e-05
-6.40112e-06
9.725e-05
-6.82821e-06
-7.25794e-06
9.72573e-05
9.72937e-05
-3.15985e-08
9.73061e-05
-9.57453e-08
9.73262e-05
-1.62875e-07
9.73533e-05
-2.35299e-07
9.73868e-05
-3.14409e-07
9.74261e-05
-4.0117e-07
9.74709e-05
-4.96243e-07
9.75208e-05
-6.00055e-07
9.75755e-05
-7.12913e-07
9.76349e-05
-8.35079e-07
9.76988e-05
-9.66797e-07
9.77671e-05
-1.1083e-06
9.78397e-05
-1.25978e-06
9.79163e-05
-1.42143e-06
9.79968e-05
-1.59353e-06
9.80811e-05
-1.77658e-06
9.81692e-05
-1.97152e-06
9.82612e-05
-2.17979e-06
9.83576e-05
-2.40333e-06
9.84588e-05
-2.64427e-06
9.85651e-05
-2.90451e-06
9.86761e-05
-3.1853e-06
9.8791e-05
-3.4869e-06
9.89079e-05
-3.80853e-06
9.90243e-05
-4.14846e-06
9.91366e-05
-4.50433e-06
9.9241e-05
-4.87346e-06
9.93332e-05
-5.25315e-06
9.94089e-05
-5.64085e-06
9.94638e-05
-6.03423e-06
9.94938e-05
-6.4311e-06
9.9495e-05
-6.8294e-06
-7.22681e-06
9.94639e-05
0.000100073
-3.55194e-08
0.000100085
-1.07265e-07
0.000100103
-1.81504e-07
0.000100128
-2.60459e-07
0.000100159
-3.4552e-07
0.000100196
-4.37709e-07
0.000100237
-5.37759e-07
0.000100284
-6.46183e-07
0.000100334
-7.6336e-07
0.000100389
-8.89608e-07
0.000100447
-1.0252e-06
0.000100509
-1.17036e-06
0.000100575
-1.32526e-06
0.000100643
-1.49005e-06
0.000100715
-1.66498e-06
0.000100789
-1.85061e-06
0.000100865
-2.048e-06
0.000100944
-2.2588e-06
0.000101026
-2.48511e-06
0.000101111
-2.72912e-06
0.000101199
-2.99254e-06
0.00010129
-3.27616e-06
0.000101382
-3.57959e-06
0.000101475
-3.9012e-06
0.000101565
-4.23846e-06
0.000101649
-4.5883e-06
0.000101723
-4.94757e-06
0.000101783
-5.3133e-06
0.000101825
-5.68291e-06
0.000101845
-6.05421e-06
0.000101839
-6.42528e-06
0.000101804
-6.79439e-06
-7.15963e-06
0.000101737
0.000102932
-3.91353e-08
0.000102942
-1.17869e-07
0.000102959
-1.98625e-07
0.000102983
-2.83559e-07
0.000103011
-3.74055e-07
0.000103045
-4.71169e-07
0.000103082
-5.75689e-07
0.000103124
-6.88188e-07
0.00010317
-8.091e-07
0.000103219
-9.38783e-07
0.000103272
-1.07753e-06
0.000103327
-1.22555e-06
0.000103385
-1.38297e-06
0.000103444
-1.5499e-06
0.000103506
-1.72656e-06
0.000103569
-1.91355e-06
0.000103633
-2.11205e-06
0.000103698
-2.32391e-06
0.000103764
-2.55139e-06
0.000103832
-2.79671e-06
0.000103901
-3.06144e-06
0.000103971
-3.34596e-06
0.00010404
-3.64921e-06
0.000104108
-3.96882e-06
0.000104171
-4.30147e-06
0.000104226
-4.64345e-06
0.00010427
-4.99118e-06
0.000104298
-5.34149e-06
0.000104307
-5.69183e-06
0.000104293
-6.04022e-06
0.000104253
-6.38506e-06
0.000104183
-6.72502e-06
-7.05864e-06
0.000104082
0.000105872
-4.24262e-08
0.000105882
-1.27502e-07
0.000105897
-2.1415e-07
0.000105918
-3.04469e-07
0.000105944
-3.99831e-07
0.000105974
-5.01309e-07
0.000106008
-6.09728e-07
0.000106046
-7.257e-07
0.000106086
-8.49698e-07
0.000106129
-9.82105e-07
0.000106175
-1.12322e-06
0.000106223
-1.27323e-06
0.000106272
-1.43223e-06
0.000106322
-1.60027e-06
0.000106373
-1.77753e-06
0.000106425
-1.96465e-06
0.000106475
-2.16293e-06
0.000106526
-2.37436e-06
0.000106576
-2.60139e-06
0.000106625
-2.8463e-06
0.000106675
-3.11051e-06
0.000106723
-3.394e-06
0.000106769
-3.69514e-06
0.000106811
-4.01083e-06
0.000106846
-4.33706e-06
0.000106872
-4.66953e-06
0.000106885
-5.00428e-06
0.000106882
-5.338e-06
0.000106858
-5.66824e-06
0.000106811
-5.99327e-06
0.000106738
-6.31185e-06
0.000106636
-6.62308e-06
-6.92598e-06
0.000106503
0.000108896
-4.5372e-08
0.000108905
-1.36108e-07
0.000108919
-2.27986e-07
0.000108937
-3.23053e-07
0.00010896
-4.22662e-07
0.000108987
-5.27889e-07
0.000109017
-6.39577e-07
0.000109049
-7.5836e-07
0.000109084
-8.84734e-07
0.000109121
-1.0191e-06
0.00010916
-1.16174e-06
0.000109199
-1.31284e-06
0.00010924
-1.47243e-06
0.00010928
-1.64051e-06
0.00010932
-1.81723e-06
0.000109358
-2.00325e-06
0.000109395
-2.19995e-06
0.00010943
-2.40951e-06
0.000109463
-2.63451e-06
0.000109494
-2.8773e-06
0.000109523
-3.13917e-06
0.000109549
-3.41977e-06
0.000109571
-3.71692e-06
0.000109587
-4.02688e-06
0.000109595
-4.345e-06
0.000109592
-4.66648e-06
0.000109574
-4.98703e-06
0.00010954
-5.30329e-06
0.000109484
-5.6129e-06
0.000109405
-5.91442e-06
0.000109301
-6.20704e-06
0.000109168
-6.49026e-06
-6.7636e-06
0.000109005
0.000112007
-4.79532e-08
0.000112015
-1.43628e-07
0.000112027
-2.40038e-07
0.000112043
-3.39176e-07
0.000112062
-4.42367e-07
0.000112085
-5.50676e-07
0.000112111
-6.64947e-07
0.000112138
-7.85824e-07
0.000112167
-9.13813e-07
0.000112197
-1.04931e-06
0.000112228
-1.19261e-06
0.000112259
-1.34384e-06
0.00011229
-1.503e-06
0.000112319
-1.67004e-06
0.000112347
-1.84506e-06
0.000112373
-2.02874e-06
0.000112395
-2.22255e-06
0.000112415
-2.42881e-06
0.00011243
-2.65025e-06
0.000112442
-2.88927e-06
0.00011245
-3.14705e-06
0.000112453
-3.42294e-06
0.000112451
-3.71429e-06
0.000112441
-4.01679e-06
0.000112421
-4.32524e-06
0.000112389
-4.63441e-06
0.000112342
-4.93977e-06
0.000112276
-5.2379e-06
0.00011219
-5.52661e-06
0.00011208
-5.80477e-06
0.000111945
-6.07197e-06
0.000111783
-6.32815e-06
-6.57329e-06
0.000111593
0.000115207
-5.01494e-08
0.000115213
-1.50004e-07
0.000115223
-2.50209e-07
0.000115237
-3.52701e-07
0.000115253
-4.58766e-07
0.000115272
-5.69443e-07
0.000115293
-6.85566e-07
0.000115314
-8.07772e-07
0.000115337
-9.36566e-07
0.00011536
-1.07234e-06
0.000115383
-1.21536e-06
0.000115405
-1.36575e-06
0.000115425
-1.52345e-06
0.000115444
-1.68834e-06
0.000115459
-1.86051e-06
0.000115471
-2.04064e-06
0.000115479
-2.23029e-06
0.000115482
-2.43187e-06
0.00011548
-2.64826e-06
0.000115472
-2.8819e-06
0.000115459
-3.13389e-06
0.00011544
-3.40333e-06
0.000115413
-3.68715e-06
0.000115376
-3.98056e-06
0.000115329
-4.27791e-06
0.000115268
-4.5736e-06
0.000115191
-4.86292e-06
0.000115096
-5.14247e-06
0.00011498
-5.41023e-06
0.00011484
-5.6654e-06
0.000114676
-5.90794e-06
0.000114486
-6.13823e-06
-6.35667e-06
0.00011427
0.000118498
-5.19419e-08
0.000118503
-1.55179e-07
0.000118511
-2.58409e-07
0.000118522
-3.63504e-07
0.000118535
-4.71699e-07
0.000118549
-5.83993e-07
0.000118565
-7.01192e-07
0.000118581
-8.2392e-07
0.000118597
-9.52667e-07
0.000118613
-1.08781e-06
0.000118627
-1.22961e-06
0.000118639
-1.37815e-06
0.000118649
-1.53333e-06
0.000118656
-1.69498e-06
0.000118659
-1.86317e-06
0.000118656
-2.03857e-06
0.000118649
-2.2228e-06
0.000118635
-2.4184e-06
0.000118616
-2.62832e-06
0.000118589
-2.85505e-06
0.000118554
-3.09962e-06
0.000118512
-3.36093e-06
0.00011846
-3.63556e-06
0.000118398
-3.91834e-06
0.000118324
-4.20325e-06
0.000118234
-4.48443e-06
0.000118128
-4.75703e-06
0.000118004
-5.01772e-06
0.000117858
-5.26467e-06
0.00011769
-5.49738e-06
0.000117498
-5.7162e-06
0.000117282
-5.92187e-06
-6.1152e-06
0.000117041
0.000121883
-5.33062e-08
0.000121887
-1.59085e-07
0.000121893
-2.64531e-07
0.000121901
-3.71445e-07
0.00012191
-4.80995e-07
0.00012192
-5.94124e-07
0.00012193
-7.116e-07
0.000121941
-8.34016e-07
0.00012195
-9.61844e-07
0.000121957
-1.09544e-06
0.000121963
-1.23505e-06
0.000121965
-1.38072e-06
0.000121964
-1.53232e-06
0.000121959
-1.68965e-06
0.000121949
-1.85273e-06
0.000121932
-2.02226e-06
0.000121909
-2.19989e-06
0.000121879
-2.38823e-06
0.000121841
-2.59032e-06
0.000121795
-2.80868e-06
0.00012174
-3.04429e-06
0.000121674
-3.29585e-06
0.000121599
-3.55972e-06
0.000121511
-3.83042e-06
0.000121409
-4.10165e-06
0.000121292
-4.36739e-06
0.000121158
-4.62273e-06
0.000121004
-4.86441e-06
0.000120831
-5.09082e-06
0.000120635
-5.30175e-06
0.000120417
-5.49788e-06
0.000120175
-5.68031e-06
-5.85018e-06
0.00011991
0.000125364
-5.42351e-08
0.000125367
-1.6169e-07
0.000125371
-2.68527e-07
0.000125376
-3.76461e-07
0.000125382
-4.86568e-07
0.000125387
-5.99718e-07
0.000125392
-7.16627e-07
0.000125396
-8.37856e-07
0.000125398
-9.63851e-07
0.000125398
-1.09495e-06
0.000125394
-1.23138e-06
0.000125386
-1.37316e-06
0.000125374
-1.52013e-06
0.000125357
-1.67206e-06
0.000125333
-1.82896e-06
0.000125302
-1.99151e-06
0.000125264
-2.16141e-06
0.000125217
-2.34131e-06
0.000125161
-2.5343e-06
0.000125095
-2.74291e-06
0.000125019
-2.96806e-06
0.000124931
-3.20836e-06
0.000124831
-3.45997e-06
0.000124718
-3.71721e-06
0.00012459
-3.97363e-06
0.000124446
-4.22309e-06
0.000124284
-4.46072e-06
0.000124103
-4.68336e-06
0.000123902
-4.88962e-06
0.000123679
-5.07954e-06
0.000123436
-5.2541e-06
0.00012317
-5.4147e-06
-5.56277e-06
0.000122883
0.000128946
-5.46557e-08
0.000128947
-1.62839e-07
0.000128948
-2.70189e-07
0.00012895
-3.78331e-07
0.000128952
-4.88218e-07
0.000128953
-6.00612e-07
0.000128952
-7.16151e-07
0.00012895
-8.35347e-07
0.000128945
-9.58615e-07
0.000128936
-1.08628e-06
0.000128923
-1.21853e-06
0.000128905
-1.35539e-06
0.000128882
-1.49668e-06
0.000128852
-1.64216e-06
0.000128815
-1.79182e-06
0.00012877
-1.94634e-06
0.000128716
-2.10742e-06
0.000128652
-2.27774e-06
0.000128578
-2.4604e-06
0.000128493
-2.65794e-06
0.000128396
-2.87124e-06
0.000128287
-3.09881e-06
0.000128164
-3.33672e-06
0.000128026
-3.5792e-06
0.000127872
-3.81974e-06
0.000127701
-4.05219e-06
0.000127512
-4.27175e-06
0.000127304
-4.47541e-06
0.000127076
-4.66196e-06
0.000126828
-4.8317e-06
0.00012656
-4.98585e-06
0.000126271
-5.12606e-06
-5.25398e-06
0.000125963
0.000132629
-5.46988e-08
0.000132629
-1.62712e-07
0.000132629
-2.6973e-07
0.000132627
-3.77238e-07
0.000132625
-4.86033e-07
0.000132621
-5.96767e-07
0.000132615
-7.10017e-07
0.000132606
-8.2625e-07
0.000132593
-9.45844e-07
0.000132576
-1.0691e-06
0.000132554
-1.1962e-06
0.000132526
-1.32715e-06
0.000132491
-1.46177e-06
0.000132448
-1.59978e-06
0.000132398
-1.7412e-06
0.000132338
-1.88669e-06
0.000132269
-2.03795e-06
0.000132189
-2.19765e-06
0.000132097
-2.36887e-06
0.000131993
-2.55412e-06
0.000131876
-2.75424e-06
0.000131745
-2.96771e-06
0.000131599
-3.19058e-06
0.000131437
-3.41708e-06
0.000131258
-3.64074e-06
0.000131061
-3.85551e-06
0.000130846
-4.0567e-06
0.000130612
-4.24148e-06
0.000130359
-4.40883e-06
0.000130087
-4.55924e-06
0.000129795
-4.69414e-06
0.000129484
-4.81535e-06
-4.92471e-06
0.000129155
0.000136417
-5.37969e-08
0.000136415
-1.60461e-07
0.000136412
-2.66294e-07
0.000136407
-3.72589e-07
0.000136401
-4.79792e-07
0.000136392
-5.88311e-07
0.000136381
-6.98599e-07
0.000136366
-8.11073e-07
0.000136346
-9.26098e-07
0.000136321
-1.04398e-06
0.00013629
-1.16491e-06
0.000136251
-1.28891e-06
0.000136205
-1.41579e-06
0.000136151
-1.54531e-06
0.000136087
-1.67746e-06
0.000136013
-1.81292e-06
0.000135929
-1.95336e-06
0.000135833
-2.1014e-06
0.000135724
-2.26008e-06
0.000135601
-2.43183e-06
0.000135465
-2.61749e-06
0.000135313
-2.81553e-06
0.000135144
-3.02207e-06
0.000134958
-3.23144e-06
0.000134755
-3.43729e-06
0.000134533
-3.63377e-06
0.000134293
-3.81636e-06
0.000134034
-3.98241e-06
0.000133756
-4.13108e-06
0.00013346
-4.26302e-06
0.000133145
-4.37981e-06
0.000132814
-4.48339e-06
-4.57572e-06
0.000132465
0.000140315
-5.34822e-08
0.000140313
-1.57848e-07
0.000140308
-2.61339e-07
0.0001403
-3.65097e-07
0.00014029
-4.69413e-07
0.000140276
-5.74563e-07
0.000140259
-6.80887e-07
0.000140236
-7.887e-07
0.000140208
-8.98305e-07
0.000140174
-1.00997e-06
0.000140133
-1.12389e-06
0.000140085
-1.24007e-06
0.000140027
-1.35834e-06
0.00013996
-1.47849e-06
0.000139883
-1.60051e-06
0.000139795
-1.72508e-06
0.000139696
-1.85382e-06
0.000139584
-1.9893e-06
0.000139458
-2.13445e-06
0.000139318
-2.29166e-06
0.000139162
-2.46172e-06
0.00013899
-2.64316e-06
0.0001388
-2.8322e-06
0.000138592
-3.02338e-06
0.000138365
-3.2106e-06
0.00013812
-3.38823e-06
0.000137855
-3.55201e-06
0.000137572
-3.69946e-06
0.000137271
-3.82993e-06
0.000136952
-3.94417e-06
0.000136617
-4.04388e-06
0.000136264
-4.13107e-06
-4.20774e-06
0.000135896
0.00014432
-4.88978e-08
0.000144312
-1.49892e-07
0.000144302
-2.51632e-07
0.000144291
-3.54099e-07
0.000144278
-4.56292e-07
0.000144262
-5.58094e-07
0.000144241
-6.59885e-07
0.000144214
-7.62098e-07
0.000144181
-8.65143e-07
0.00014414
-9.69375e-07
0.000144092
-1.07503e-06
0.000144034
-1.18218e-06
0.000143966
-1.29069e-06
0.000143888
-1.40036e-06
0.000143799
-1.51121e-06
0.000143697
-1.62389e-06
0.000143584
-1.73995e-06
0.000143456
-1.86186e-06
0.000143314
-1.99242e-06
0.000143156
-2.13395e-06
0.000142982
-2.28721e-06
0.000142789
-2.45084e-06
0.000142579
-2.62126e-06
0.000142348
-2.79329e-06
0.000142099
-2.96113e-06
0.00014183
-3.11947e-06
0.000141542
-3.26429e-06
0.000141236
-3.39334e-06
0.000140913
-3.50609e-06
0.000140572
-3.60341e-06
0.000140215
-3.68701e-06
0.000139843
-3.75896e-06
-3.82128e-06
0.000139456
0.000148451
-5.2238e-08
0.000148447
-1.46003e-07
0.000148437
-2.41227e-07
0.000148421
-3.3813e-07
0.0001484
-4.35678e-07
0.000148375
-5.32972e-07
0.000148345
-6.29776e-07
0.000148309
-7.26192e-07
0.000148267
-8.22516e-07
0.000148216
-9.19086e-07
0.000148157
-1.01616e-06
0.000148089
-1.11383e-06
0.00014801
-1.21202e-06
0.000147921
-1.31057e-06
0.000147819
-1.40954e-06
0.000147705
-1.50958e-06
0.000147577
-1.61219e-06
0.000147435
-1.71973e-06
0.000147277
-1.8349e-06
0.000147103
-1.9599e-06
0.000146912
-2.09551e-06
0.000146701
-2.24047e-06
0.000146471
-2.39146e-06
0.000146222
-2.5436e-06
0.000145952
-2.69146e-06
0.000145663
-2.83008e-06
0.000145354
-2.95573e-06
0.000145027
-3.06637e-06
0.000144683
-3.16162e-06
0.000144322
-3.24242e-06
0.000143945
-3.31054e-06
0.000143554
-3.36804e-06
-3.41695e-06
0.00014315
0.00015267
-3.34872e-08
0.000152651
-1.26649e-07
0.000152635
-2.25623e-07
0.000152622
-3.24893e-07
0.000152607
-4.20608e-07
0.000152587
-5.12876e-07
0.00015256
-6.02764e-07
0.000152525
-6.91003e-07
0.00015248
-7.78196e-07
0.000152426
-8.64867e-07
0.000152361
-9.51376e-07
0.000152286
-1.03787e-06
0.000152198
-1.1243e-06
0.000152098
-1.21051e-06
0.000151985
-1.29654e-06
0.000151858
-1.38294e-06
0.000151717
-1.4711e-06
0.000151561
-1.56323e-06
0.000151388
-1.66188e-06
0.000151197
-1.76919e-06
0.000150987
-1.88601e-06
0.000150758
-2.01127e-06
0.000150509
-2.14197e-06
0.000150239
-2.27359e-06
0.000149948
-2.40108e-06
0.000149638
-2.51979e-06
0.000149308
-2.62627e-06
0.000148961
-2.71867e-06
0.000148596
-2.79674e-06
0.000148215
-2.86149e-06
0.000147819
-2.91473e-06
0.00014741
-2.95855e-06
-2.99493e-06
0.000146988
0.000157067
-4.90915e-08
0.000157056
-1.15902e-07
0.000157029
-1.98482e-07
0.000156995
-2.91169e-07
0.000156959
-3.84642e-07
0.000156921
-4.74714e-07
0.000156879
-5.60739e-07
0.000156832
-6.43286e-07
0.000156777
-7.23207e-07
0.000156713
-8.01229e-07
0.000156639
-8.77876e-07
0.000156555
-9.53442e-07
0.000156459
-1.02798e-06
0.00015635
-1.10144e-06
0.000156227
-1.1739e-06
0.00015609
-1.24596e-06
0.000155938
-1.319e-06
0.00015577
-1.39517e-06
0.000155585
-1.47697e-06
0.000155382
-1.5665e-06
0.000155161
-1.6646e-06
0.00015492
-1.77031e-06
0.000154659
-1.88077e-06
0.000154377
-1.99171e-06
0.000154074
-2.09837e-06
0.000153751
-2.19643e-06
0.000153407
-2.28275e-06
0.000153044
-2.35583e-06
0.000152663
-2.41567e-06
0.000152265
-2.46354e-06
0.000151852
-2.50137e-06
0.000151425
-2.53134e-06
-2.5554e-06
0.000150985
0.000161473
1.67633e-08
0.000161449
-9.27719e-08
0.000161445
-1.9388e-07
0.000161445
-2.91657e-07
0.000161438
-3.76903e-07
0.000161418
-4.55314e-07
0.000161387
-5.29259e-07
0.000161343
-5.99553e-07
0.000161287
-6.67159e-07
0.000161219
-7.32868e-07
0.000161138
-7.97182e-07
0.000161045
-8.60323e-07
0.000160939
-9.22252e-07
0.00016082
-9.82796e-07
0.000160688
-1.0419e-06
0.000160542
-1.09998e-06
0.000160382
-1.15818e-06
0.000160205
-1.21845e-06
0.000160011
-1.28311e-06
0.000159799
-1.3542e-06
0.000159567
-1.43263e-06
0.000159314
-1.51762e-06
0.00015904
-1.60658e-06
0.000158744
-1.69556e-06
0.000158425
-1.78014e-06
0.000158085
-1.85638e-06
0.000157724
-1.92155e-06
0.000157343
-1.97454e-06
0.000156943
-2.01575e-06
0.000156526
-2.04673e-06
0.000156094
-2.0696e-06
0.00015565
-2.08657e-06
-2.09949e-06
0.000155194
0.000166178