/*--------------------------------*- C++ -*----------------------------------*\
  =========                 |
  \\      /  F ield         | OpenFOAM: The Open Source CFD Toolbox
   \\    /   O peration     | Website:  https://openfoam.org
    \\  /    A nd           | Version:  10
     \\/     M anipulation  |
\*---------------------------------------------------------------------------*/
FoamFile
{
    format      ascii;
    class       volVectorField;
    location    "0.01";
    object      U;
}
// * * * * * * * * * * * * * * * * * * * * * * * * * * * * * * * * * * * * * //

dimensions      [0 1 -1 0 0 0 0];

internalField   nonuniform List<vector> 
6820
(
(7.33661 -0.254782 0)
(7.37195 -0.153125 0)
(7.33176 -0.0596748 0)
(7.25777 -0.0121738 0)
(7.18415 0.00711279 0)
(7.11906 0.012705 0)
(7.06384 0.0127863 0)
(7.01795 0.0109916 0)
(6.98004 0.00879214 0)
(6.94882 0.00671393 0)
(6.92336 0.00487211 0)
(6.90303 0.00322418 0)
(6.88744 0.00169156 0)
(6.87635 0.000222719 0)
(6.86955 -0.00117683 0)
(6.86685 -0.00220388 0)
(6.86704 -0.00267828 0)
(6.86955 -0.00279174 0)
(6.87443 -0.00273993 0)
(6.8818 -0.00270504 0)
(6.89185 -0.00288361 0)
(6.90483 -0.00345802 0)
(6.92109 -0.00455314 0)
(6.94113 -0.00619905 0)
(6.96555 -0.00833082 0)
(6.99508 -0.0108353 0)
(7.03053 -0.0135892 0)
(7.07281 -0.0166555 0)
(7.12319 -0.0195989 0)
(7.18268 -0.024916 0)
(7.25589 -0.0241517 0)
(7.33508 -0.0468312 0)
(7.46995 -0.0318566 0)
(7.32393 0.121218 0)
(7.3047 0.122732 0)
(7.30979 0.0766461 0)
(7.3309 0.0510644 0)
(7.35046 0.0371036 0)
(7.36058 0.0288651 0)
(7.36223 0.0238941 0)
(7.35837 0.0205452 0)
(7.35133 0.0179582 0)
(7.34271 0.0157328 0)
(7.33362 0.0136602 0)
(7.32475 0.0116258 0)
(7.31655 0.00956925 0)
(7.30935 0.00746226 0)
(7.30343 0.00529315 0)
(7.29911 0.00317403 0)
(7.29743 0.00111803 0)
(7.29885 -0.00102842 0)
(7.30324 -0.00338583 0)
(7.31046 -0.00594423 0)
(7.32051 -0.00866117 0)
(7.33352 -0.0115271 0)
(7.34978 -0.0146001 0)
(7.36972 -0.0180128 0)
(7.39391 -0.0219579 0)
(7.42298 -0.0266604 0)
(7.45779 -0.0323752 0)
(7.49896 -0.0393484 0)
(7.54829 -0.0480189 0)
(7.60509 -0.0587798 0)
(7.67663 -0.0728029 0)
(7.75395 -0.0932877 0)
(7.86867 -0.113654 0)
(7.32569 -0.0439915 0)
(7.32365 -0.0524283 0)
(7.33665 -0.0272532 0)
(7.34618 -0.0044232 0)
(7.3531 0.0079921 0)
(7.3598 0.0136585 0)
(7.36591 0.0158777 0)
(7.37121 0.0162305 0)
(7.37571 0.0155431 0)
(7.3796 0.0142711 0)
(7.38316 0.0126401 0)
(7.38669 0.0107492 0)
(7.39044 0.00863301 0)
(7.39466 0.00629846 0)
(7.39958 0.00375076 0)
(7.4054 0.000974742 0)
(7.41242 -0.00199327 0)
(7.4209 -0.00504361 0)
(7.43102 -0.00818307 0)
(7.44288 -0.0114931 0)
(7.45664 -0.0151409 0)
(7.47255 -0.0193561 0)
(7.49098 -0.0243835 0)
(7.51243 -0.030449 0)
(7.53754 -0.0377393 0)
(7.56697 -0.0464235 0)
(7.6015 -0.0566567 0)
(7.64181 -0.068776 0)
(7.68913 -0.0829981 0)
(7.74348 -0.100881 0)
(7.8084 -0.121647 0)
(7.87888 -0.15455 0)
(7.96749 -0.18855 0)
(7.33343 0.0114598 0)
(7.33105 0.0317854 0)
(7.33133 0.0316639 0)
(7.33581 0.0250836 0)
(7.34345 0.0207575 0)
(7.35181 0.0182768 0)
(7.35984 0.016613 0)
(7.36756 0.0151656 0)
(7.37511 0.0136581 0)
(7.3826 0.0119878 0)
(7.3902 0.0101058 0)
(7.39806 0.00797691 0)
(7.40634 0.00557296 0)
(7.41519 0.00287165 0)
(7.42477 -0.000131209 0)
(7.43523 -0.00342558 0)
(7.4467 -0.00698746 0)
(7.45932 -0.0108116 0)
(7.4732 -0.0149097 0)
(7.4885 -0.0193569 0)
(7.50537 -0.0242997 0)
(7.52407 -0.0299564 0)
(7.54491 -0.0365982 0)
(7.56833 -0.0445206 0)
(7.59485 -0.0540141 0)
(7.62506 -0.0653681 0)
(7.65963 -0.0788702 0)
(7.69919 -0.0949381 0)
(7.74466 -0.113997 0)
(7.7962 -0.137257 0)
(7.85575 -0.165081 0)
(7.92042 -0.202443 0)
(7.99563 -0.244233 0)
(7.33122 -0.00391045 0)
(7.3305 -0.00547531 0)
(7.3353 -0.00123717 0)
(7.34068 0.00521385 0)
(7.34623 0.0095282 0)
(7.35234 0.0113229 0)
(7.35895 0.0115944 0)
(7.36606 0.01098 0)
(7.37364 0.00976863 0)
(7.38167 0.00811031 0)
(7.3902 0.00607353 0)
(7.39929 0.00367702 0)
(7.40903 0.000914828 0)
(7.41952 -0.00222764 0)
(7.43086 -0.00575298 0)
(7.44315 -0.00965568 0)
(7.45651 -0.0139097 0)
(7.47101 -0.0184913 0)
(7.48677 -0.023411 0)
(7.5039 -0.028766 0)
(7.52254 -0.0347552 0)
(7.54289 -0.0416712 0)
(7.56522 -0.0498666 0)
(7.58989 -0.0597094 0)
(7.61732 -0.0715478 0)
(7.64799 -0.085712 0)
(7.68246 -0.102519 0)
(7.72121 -0.1224 0)
(7.76492 -0.145809 0)
(7.81372 -0.173811 0)
(7.86856 -0.20693 0)
(7.92772 -0.248476 0)
(7.9932 -0.296023 0)
(7.33271 0.00148468 0)
(7.33281 0.00834813 0)
(7.33558 0.0114717 0)
(7.33978 0.0119913 0)
(7.34505 0.0116252 0)
(7.35112 0.0108314 0)
(7.35767 0.00974111 0)
(7.36466 0.00833494 0)
(7.37216 0.00657868 0)
(7.38021 0.00447062 0)
(7.38888 0.00200613 0)
(7.39824 -0.000834039 0)
(7.40836 -0.00407917 0)
(7.41933 -0.00775748 0)
(7.43122 -0.0118861 0)
(7.44413 -0.0164601 0)
(7.45814 -0.0214577 0)
(7.47335 -0.0268631 0)
(7.48984 -0.0327028 0)
(7.50774 -0.0390901 0)
(7.52717 -0.0462458 0)
(7.54831 -0.0544918 0)
(7.57137 -0.0642197 0)
(7.59664 -0.075847 0)
(7.62442 -0.0897771 0)
(7.65509 -0.106393 0)
(7.68905 -0.126062 0)
(7.72667 -0.149224 0)
(7.76837 -0.176354 0)
(7.81424 -0.208322 0)
(7.86464 -0.245736 0)
(7.91851 -0.290686 0)
(7.97636 -0.342197 0)
(7.33264 0.000114506 0)
(7.333 0.00233024 0)
(7.33595 0.00447667 0)
(7.34024 0.00621292 0)
(7.34527 0.00720204 0)
(7.35092 0.00720316 0)
(7.35707 0.00638352 0)
(7.36373 0.0049378 0)
(7.37097 0.0029748 0)
(7.37883 0.000557178 0)
(7.38736 -0.00229216 0)
(7.39664 -0.00558152 0)
(7.40672 -0.00933732 0)
(7.41769 -0.0135894 0)
(7.42962 -0.0183571 0)
(7.44258 -0.0236401 0)
(7.45667 -0.0294219 0)
(7.47197 -0.0356933 0)
(7.48858 -0.0424914 0)
(7.50662 -0.0499436 0)
(7.52622 -0.0582912 0)
(7.54752 -0.0678845 0)
(7.57071 -0.0791492 0)
(7.59599 -0.0925396 0)
(7.62359 -0.108496 0)
(7.65377 -0.127431 0)
(7.68679 -0.149731 0)
(7.72289 -0.17582 0)
(7.7623 -0.206155 0)
(7.805 -0.241435 0)
(7.85105 -0.282246 0)
(7.89968 -0.329941 0)
(7.95079 -0.384288 0)
(7.33289 0.000624906 0)
(7.33357 0.00308925 0)
(7.33621 0.00500267 0)
(7.34007 0.00590082 0)
(7.34474 0.00593468 0)
(7.35013 0.00519003 0)
(7.35608 0.00382065 0)
(7.36257 0.0019302 0)
(7.36963 -0.000440712 0)
(7.3773 -0.00327529 0)
(7.38565 -0.00657317 0)
(7.39474 -0.0103544 0)
(7.40464 -0.0146523 0)
(7.41542 -0.0195031 0)
(7.42715 -0.0249323 0)
(7.4399 -0.0309462 0)
(7.45376 -0.0375367 0)
(7.46882 -0.0447045 0)
(7.48519 -0.0524986 0)
(7.50299 -0.0610589 0)
(7.52234 -0.0706403 0)
(7.54338 -0.0816079 0)
(7.56625 -0.0944041 0)
(7.59109 -0.109503 0)
(7.61806 -0.127363 0)
(7.64731 -0.148412 0)
(7.67898 -0.173041 0)
(7.71319 -0.201652 0)
(7.75001 -0.23466 0)
(7.78932 -0.272624 0)
(7.83099 -0.316056 0)
(7.87439 -0.365857 0)
(7.91917 -0.422115 0)
(7.33295 0.000458117 0)
(7.33373 0.0019744 0)
(7.33618 0.0031246 0)
(7.33982 0.00358184 0)
(7.34426 0.00337268 0)
(7.34939 0.00245748 0)
(7.3551 0.000886852 0)
(7.36136 -0.00126666 0)
(7.3682 -0.00395923 0)
(7.37565 -0.00717034 0)
(7.38377 -0.0108986 0)
(7.39261 -0.0151641 0)
(7.40225 -0.0200021 0)
(7.41273 -0.0254517 0)
(7.42414 -0.0315431 0)
(7.43653 -0.0382897 0)
(7.44999 -0.0456927 0)
(7.46462 -0.0537643 0)
(7.48053 -0.0625656 0)
(7.49783 -0.0722474 0)
(7.51664 -0.0830728 0)
(7.5371 -0.0954132 0)
(7.55929 -0.109716 0)
(7.58333 -0.126459 0)
(7.60929 -0.146105 0)
(7.63724 -0.169077 0)
(7.66722 -0.195755 0)
(7.69922 -0.226506 0)
(7.73318 -0.261693 0)
(7.76893 -0.301754 0)
(7.80619 -0.34711 0)
(7.8444 -0.398374 0)
(7.88311 -0.455731 0)
(7.33301 0.000330874 0)
(7.33386 0.00131768 0)
(7.33614 0.00199909 0)
(7.33952 0.00203899 0)
(7.34368 0.00141656 0)
(7.34854 0.000116206 0)
(7.354 -0.00182095 0)
(7.36003 -0.00433865 0)
(7.36663 -0.00741022 0)
(7.37384 -0.0110275 0)
(7.3817 -0.0151999 0)
(7.39026 -0.0199546 0)
(7.39957 -0.0253317 0)
(7.4097 -0.0313748 0)
(7.4207 -0.0381202 0)
(7.43264 -0.0455895 0)
(7.44559 -0.053795 0)
(7.45966 -0.0627617 0)
(7.47493 -0.0725635 0)
(7.49154 -0.0833602 0)
(7.5096 -0.0954185 0)
(7.52922 -0.109108 0)
(7.55047 -0.124869 0)
(7.5734 -0.143169 0)
(7.59805 -0.164458 0)
(7.62439 -0.189142 0)
(7.65238 -0.217577 0)
(7.68192 -0.250085 0)
(7.71285 -0.286973 0)
(7.74491 -0.328575 0)
(7.77778 -0.375218 0)
(7.8109 -0.427319 0)
(7.84379 -0.485054 0)
(7.33304 0.000158614 0)
(7.3339 0.00059883 0)
(7.33603 0.000748838 0)
(7.33917 0.000335737 0)
(7.34308 -0.000679135 0)
(7.34768 -0.0023206 0)
(7.35288 -0.00458025 0)
(7.35865 -0.00743113 0)
(7.36499 -0.0108609 0)
(7.37192 -0.0148711 0)
(7.37948 -0.0194772 0)
(7.38771 -0.0247104 0)
(7.39666 -0.030614 0)
(7.40638 -0.0372352 0)
(7.41691 -0.0446159 0)
(7.42832 -0.0527864 0)
(7.44067 -0.0617706 0)
(7.45405 -0.0716077 0)
(7.46858 -0.0823841 0)
(7.48435 -0.0942673 0)
(7.50148 -0.107524 0)
(7.52005 -0.122514 0)
(7.54013 -0.139662 0)
(7.56172 -0.159412 0)
(7.5848 -0.182188 0)
(7.60929 -0.208366 0)
(7.63507 -0.238265 0)
(7.66197 -0.272161 0)
(7.68974 -0.310299 0)
(7.71808 -0.352925 0)
(7.74661 -0.400277 0)
(7.7748 -0.452626 0)
(7.80217 -0.510096 0)
(7.33306 -3.28857e-05 0)
(7.3339 -8.4461e-05 0)
(7.33589 -0.000410931 0)
(7.33881 -0.0012423 0)
(7.34248 -0.00263874 0)
(7.34681 -0.00463601 0)
(7.35174 -0.00724147 0)
(7.35723 -0.010445 0)
(7.36329 -0.0142454 0)
(7.36991 -0.0186529 0)
(7.37714 -0.0236901 0)
(7.38501 -0.0293933 0)
(7.39354 -0.0358092 0)
(7.4028 -0.042989 0)
(7.4128 -0.05098 0)
(7.42361 -0.0598213 0)
(7.43529 -0.0695496 0)
(7.44791 -0.0802184 0)
(7.46157 -0.0919272 0)
(7.47638 -0.10485 0)
(7.49243 -0.119249 0)
(7.50979 -0.135471 0)
(7.52851 -0.153914 0)
(7.54857 -0.174989 0)
(7.56989 -0.199082 0)
(7.59234 -0.226529 0)
(7.61575 -0.257604 0)
(7.63987 -0.292532 0)
(7.66443 -0.331498 0)
(7.68907 -0.374673 0)
(7.71339 -0.42221 0)
(7.73686 -0.474275 0)
(7.75905 -0.530922 0)
(7.33306 -0.000232264 0)
(7.33387 -0.000746298 0)
(7.33573 -0.00152967 0)
(7.33845 -0.00277526 0)
(7.34187 -0.00455362 0)
(7.34594 -0.0069065 0)
(7.3506 -0.00985512 0)
(7.3558 -0.013406 0)
(7.36155 -0.0175694 0)
(7.36784 -0.0223645 0)
(7.3747 -0.0278202 0)
(7.38216 -0.0339768 0)
(7.39025 -0.0408841 0)
(7.39899 -0.0485961 0)
(7.40842 -0.057165 0)
(7.41857 -0.0666383 0)
(7.42951 -0.0770654 0)
(7.44128 -0.0885145 0)
(7.45399 -0.101098 0)
(7.46773 -0.114996 0)
(7.48258 -0.130465 0)
(7.4986 -0.14783 0)
(7.51582 -0.167458 0)
(7.53418 -0.189719 0)
(7.55359 -0.214951 0)
(7.57386 -0.24344 0)
(7.59478 -0.275411 0)
(7.61608 -0.311035 0)
(7.63741 -0.350441 0)
(7.65842 -0.393732 0)
(7.67869 -0.440992 0)
(7.69772 -0.492303 0)
(7.71509 -0.547652 0)
(7.33306 -0.000432632 0)
(7.33384 -0.00138296 0)
(7.33556 -0.0025975 0)
(7.33808 -0.0042409 0)
(7.34128 -0.00638982 0)
(7.34508 -0.00909327 0)
(7.34946 -0.0123834 0)
(7.35436 -0.0162793 0)
(7.35977 -0.020801 0)
(7.36571 -0.0259748 0)
(7.37218 -0.0318354 0)
(7.3792 -0.0384267 0)
(7.3868 -0.0458006 0)
(7.39498 -0.0540136 0)
(7.40379 -0.063122 0)
(7.41324 -0.0731811 0)
(7.42336 -0.0842525 0)
(7.43423 -0.0964193 0)
(7.44592 -0.109807 0)
(7.4585 -0.1246 0)
(7.47205 -0.141048 0)
(7.48662 -0.159453 0)
(7.50222 -0.180143 0)
(7.51877 -0.203439 0)
(7.53615 -0.229625 0)
(7.55415 -0.258933 0)
(7.57253 -0.291531 0)
(7.59096 -0.327538 0)
(7.60912 -0.367029 0)
(7.62661 -0.410052 0)
(7.64303 -0.456632 0)
(7.65789 -0.506785 0)
(7.67084 -0.560448 0)
(7.33306 -0.000629456 0)
(7.33379 -0.00199305 0)
(7.33538 -0.00361598 0)
(7.33772 -0.00564252 0)
(7.34068 -0.00815209 0)
(7.34423 -0.0111994 0)
(7.34831 -0.0148249 0)
(7.3529 -0.0190578 0)
(7.35797 -0.0239266 0)
(7.36352 -0.0294644 0)
(7.36957 -0.0357105 0)
(7.37613 -0.0427121 0)
(7.3832 -0.0505225 0)
(7.39079 -0.0591997 0)
(7.39893 -0.0688028 0)
(7.40762 -0.0793943 0)
(7.4169 -0.0910473 0)
(7.4268 -0.103859 0)
(7.4374 -0.117969 0)
(7.44875 -0.133565 0)
(7.46093 -0.150889 0)
(7.47398 -0.170216 0)
(7.48787 -0.191833 0)
(7.50253 -0.216005 0)
(7.5178 -0.242959 0)
(7.53348 -0.272864 0)
(7.54928 -0.305835 0)
(7.56488 -0.341936 0)
(7.57993 -0.381194 0)
(7.59404 -0.423612 0)
(7.60682 -0.469167 0)
(7.61783 -0.517828 0)
(7.62674 -0.569492 0)
(7.33306 -0.000819842 0)
(7.33373 -0.00257476 0)
(7.3352 -0.00458365 0)
(7.33736 -0.00697625 0)
(7.3401 -0.00983289 0)
(7.34338 -0.013213 0)
(7.34717 -0.0171634 0)
(7.35142 -0.0217216 0)
(7.35613 -0.0269232 0)
(7.36129 -0.0328067 0)
(7.36689 -0.0394156 0)
(7.37295 -0.0467991 0)
(7.37946 -0.0550115 0)
(7.38643 -0.0641108 0)
(7.39386 -0.0741585 0)
(7.40176 -0.0852228 0)
(7.41014 -0.0973876 0)
(7.41903 -0.110765 0)
(7.42849 -0.125504 0)
(7.43857 -0.141801 0)
(7.44933 -0.159886 0)
(7.46078 -0.180007 0)
(7.47291 -0.202405 0)
(7.48562 -0.22729 0)
(7.49876 -0.254824 0)
(7.51209 -0.285114 0)
(7.52532 -0.318218 0)
(7.53814 -0.35415 0)
(7.55018 -0.392895 0)
(7.56107 -0.434416 0)
(7.57045 -0.478658 0)
(7.5779 -0.525556 0)
(7.58316 -0.574983 0)
(7.33305 -0.00100185 0)
(7.33368 -0.0031263 0)
(7.33503 -0.00549882 0)
(7.337 -0.00823902 0)
(7.33952 -0.0114271 0)
(7.34253 -0.0151259 0)
(7.34602 -0.0193875 0)
(7.34994 -0.0242556 0)
(7.35427 -0.0297715 0)
(7.35901 -0.0359782 0)
(7.36414 -0.0429224 0)
(7.36967 -0.0506548 0)
(7.3756 -0.0592296 0)
(7.38191 -0.0687043 0)
(7.3886 -0.0791411 0)
(7.39567 -0.0906131 0)
(7.40312 -0.103214 0)
(7.41097 -0.117068 0)
(7.41925 -0.132339 0)
(7.42802 -0.149226 0)
(7.43732 -0.167948 0)
(7.44715 -0.188725 0)
(7.45749 -0.211754 0)
(7.46823 -0.237184 0)
(7.47921 -0.265113 0)
(7.4902 -0.295585 0)
(7.50091 -0.3286 0)
(7.51102 -0.364127 0)
(7.52018 -0.402112 0)
(7.52803 -0.44249 0)
(7.53425 -0.485184 0)
(7.53845 -0.530106 0)
(7.54041 -0.577121 0)
(7.33305 -0.00117412 0)
(7.33362 -0.00364577 0)
(7.33485 -0.00635918 0)
(7.33665 -0.00942677 0)
(7.33894 -0.012928 0)
(7.34169 -0.0169283 0)
(7.34487 -0.0214836 0)
(7.34844 -0.0266421 0)
(7.35238 -0.0324498 0)
(7.35668 -0.0389532 0)
(7.36133 -0.0462013 0)
(7.36631 -0.0542453 0)
(7.37162 -0.0631386 0)
(7.37725 -0.0729371 0)
(7.38317 -0.083703 0)
(7.38939 -0.0955127 0)
(7.39588 -0.108468 0)
(7.40265 -0.122708 0)
(7.40975 -0.138405 0)
(7.41718 -0.155763 0)
(7.425 -0.174993 0)
(7.43319 -0.196285 0)
(7.44173 -0.219789 0)
(7.45051 -0.245596 0)
(7.45935 -0.273739 0)
(7.46804 -0.304199 0)
(7.47629 -0.336921 0)
(7.48378 -0.371831 0)
(7.4902 -0.408845 0)
(7.49521 -0.447877 0)
(7.4985 -0.488835 0)
(7.49973 -0.531623 0)
(7.49874 -0.576108 0)
(7.33305 -0.00133557 0)
(7.33356 -0.00413119 0)
(7.33467 -0.00716191 0)
(7.3363 -0.0105349 0)
(7.33836 -0.0143287 0)
(7.34085 -0.0186102 0)
(7.34371 -0.0234381 0)
(7.34693 -0.0288641 0)
(7.35047 -0.0349373 0)
(7.35432 -0.0417069 0)
(7.35846 -0.0492232 0)
(7.36288 -0.0575374 0)
(7.36755 -0.066701 0)
(7.37247 -0.0767677 0)
(7.37761 -0.0877983 0)
(7.38294 -0.0998718 0)
(7.38845 -0.113098 0)
(7.39415 -0.127625 0)
(7.40003 -0.14364 0)
(7.40613 -0.161348 0)
(7.41246 -0.180951 0)
(7.41903 -0.202612 0)
(7.42578 -0.226434 0)
(7.43261 -0.252452 0)
(7.43935 -0.280632 0)
(7.4458 -0.310897 0)
(7.45167 -0.34314 0)
(7.45667 -0.377248 0)
(7.46049 -0.413111 0)
(7.46284 -0.450631 0)
(7.46344 -0.48971 0)
(7.462 -0.530254 0)
(7.45837 -0.572137 0)
(7.33304 -0.00148533 0)
(7.3335 -0.00458047 0)
(7.3345 -0.00790381 0)
(7.33595 -0.0115585 0)
(7.33779 -0.0156217 0)
(7.34001 -0.0201611 0)
(7.34256 -0.0252372 0)
(7.34541 -0.0309039 0)
(7.34854 -0.0372127 0)
(7.35192 -0.0442141 0)
(7.35554 -0.0519591 0)
(7.35938 -0.0604979 0)
(7.3634 -0.0698799 0)
(7.3676 -0.0801552 0)
(7.37193 -0.0913828 0)
(7.37637 -0.103643 0)
(7.3809 -0.117052 0)
(7.3855 -0.131768 0)
(7.39017 -0.147988 0)
(7.39494 -0.165922 0)
(7.3998 -0.185762 0)
(7.40475 -0.207644 0)
(7.40974 -0.231628 0)
(7.41467 -0.257691 0)
(7.41938 -0.28574 0)
(7.42365 -0.315639 0)
(7.42724 -0.347234 0)
(7.42988 -0.380378 0)
(7.43127 -0.414942 0)
(7.43116 -0.450819 0)
(7.4293 -0.487916 0)
(7.42544 -0.526144 0)
(7.41947 -0.565396 0)
(7.33304 -0.00162257 0)
(7.33344 -0.00499146 0)
(7.33432 -0.00858134 0)
(7.3356 -0.012492 0)
(7.33722 -0.0167991 0)
(7.33916 -0.0215704 0)
(7.34139 -0.0268671 0)
(7.34388 -0.0327446 0)
(7.34659 -0.0392554 0)
(7.3495 -0.0464507 0)
(7.35259 -0.0543813 0)
(7.35583 -0.0630959 0)
(7.35919 -0.0726407 0)
(7.36265 -0.0830621 0)
(7.36617 -0.0944162 0)
(7.36971 -0.106783 0)
(7.37325 -0.120285 0)
(7.37676 -0.13509 0)
(7.38024 -0.151403 0)
(7.38368 -0.169438 0)
(7.3871 -0.189378 0)
(7.39048 -0.211333 0)
(7.39376 -0.235323 0)
(7.39684 -0.261271 0)
(7.39958 -0.289028 0)
(7.40178 -0.318402 0)
(7.4032 -0.349197 0)
(7.4036 -0.381237 0)
(7.40273 -0.41438 0)
(7.40035 -0.448515 0)
(7.39625 -0.483558 0)
(7.39022 -0.519434 0)
(7.38218 -0.556057 0)
(7.33303 -0.00174649 0)
(7.33339 -0.00536187 0)
(7.33415 -0.00919074 0)
(7.33525 -0.0133297 0)
(7.33665 -0.0178528 0)
(7.33832 -0.0228271 0)
(7.34023 -0.0283138 0)
(7.34234 -0.0343686 0)
(7.34463 -0.0410441 0)
(7.34706 -0.0483919 0)
(7.34961 -0.0564614 0)
(7.35225 -0.0652993 0)
(7.35494 -0.0749483 0)
(7.35766 -0.0854503 0)
(7.36036 -0.096858 0)
(7.36301 -0.109252 0)
(7.36556 -0.122756 0)
(7.36799 -0.137548 0)
(7.37029 -0.153841 0)
(7.37245 -0.171853 0)
(7.37447 -0.191757 0)
(7.37632 -0.21364 0)
(7.37794 -0.237484 0)
(7.37925 -0.263162 0)
(7.38011 -0.290471 0)
(7.38033 -0.319174 0)
(7.3797 -0.349034 0)
(7.37801 -0.379852 0)
(7.37504 -0.411475 0)
(7.37058 -0.443797 0)
(7.36444 -0.476744 0)
(7.35647 -0.51026 0)
(7.3466 -0.544284 0)
(7.33303 -0.00185631 0)
(7.33333 -0.0056894 0)
(7.33398 -0.00972814 0)
(7.33491 -0.0140661 0)
(7.33609 -0.0187753 0)
(7.33749 -0.0239215 0)
(7.33907 -0.0295652 0)
(7.34081 -0.0357614 0)
(7.34267 -0.0425625 0)
(7.34461 -0.0500187 0)
(7.34662 -0.0581783 0)
(7.34865 -0.0670849 0)
(7.35068 -0.0767773 0)
(7.35266 -0.0872929 0)
(7.35455 -0.0986802 0)
(7.3563 -0.111018 0)
(7.35789 -0.124435 0)
(7.35926 -0.139114 0)
(7.36041 -0.155276 0)
(7.36133 -0.173141 0)
(7.36198 -0.192874 0)
(7.36236 -0.214542 0)
(7.3624 -0.23809 0)
(7.36202 -0.263348 0)
(7.36108 -0.290065 0)
(7.35944 -0.317959 0)
(7.35689 -0.346764 0)
(7.35326 -0.376259 0)
(7.34835 -0.406286 0)
(7.34198 -0.436745 0)
(7.33401 -0.467578 0)
(7.3243 -0.498751 0)
(7.31283 -0.530225 0)
(7.33302 -0.00195124 0)
(7.33327 -0.00597163 0)
(7.3338 -0.0101893 0)
(7.33457 -0.0146947 0)
(7.33553 -0.0195573 0)
(7.33665 -0.0248409 0)
(7.33791 -0.0306045 0)
(7.33928 -0.036902 0)
(7.34071 -0.0437846 0)
(7.34217 -0.0513011 0)
(7.34364 -0.0594975 0)
(7.34507 -0.0684147 0)
(7.34643 -0.0780871 0)
(7.34767 -0.0885472 0)
(7.34876 -0.0998394 0)
(7.34964 -0.112041 0)
(7.35028 -0.125281 0)
(7.35063 -0.139749 0)
(7.35067 -0.155672 0)
(7.35038 -0.17327 0)
(7.34974 -0.192702 0)
(7.34871 -0.214016 0)
(7.34724 -0.237125 0)
(7.34526 -0.261819 0)
(7.34264 -0.287806 0)
(7.33924 -0.314768 0)
(7.33491 -0.342411 0)
(7.32947 -0.370499 0)
(7.32277 -0.398872 0)
(7.31467 -0.427439 0)
(7.30505 -0.456161 0)
(7.2938 -0.485024 0)
(7.28091 -0.514015 0)
(7.33302 -0.0020305 0)
(7.33322 -0.0062064 0)
(7.33363 -0.0105712 0)
(7.33423 -0.015212 0)
(7.33497 -0.0201957 0)
(7.33583 -0.0255833 0)
(7.33677 -0.0314315 0)
(7.33776 -0.0377921 0)
(7.33877 -0.044714 0)
(7.33976 -0.052244 0)
(7.34069 -0.0604253 0)
(7.34152 -0.0692953 0)
(7.34222 -0.0788842 0)
(7.34275 -0.0892195 0)
(7.34305 -0.100341 0)
(7.34308 -0.112324 0)
(7.34279 -0.1253 0)
(7.34215 -0.139459 0)
(7.34113 -0.155034 0)
(7.33969 -0.172247 0)
(7.33781 -0.191249 0)
(7.33545 -0.212072 0)
(7.33257 -0.2346 0)
(7.32907 -0.258591 0)
(7.32487 -0.283718 0)
(7.31984 -0.309631 0)
(7.31385 -0.336015 0)
(7.30675 -0.362625 0)
(7.29842 -0.389301 0)
(7.28875 -0.415964 0)
(7.27764 -0.442592 0)
(7.26503 -0.469192 0)
(7.2509 -0.495778 0)
(7.33301 -0.00209322 0)
(7.33316 -0.00639051 0)
(7.33347 -0.010867 0)
(7.3339 -0.0156059 0)
(7.33442 -0.0206704 0)
(7.33501 -0.0261185 0)
(7.33564 -0.0320044 0)
(7.33627 -0.0383781 0)
(7.33686 -0.0452865 0)
(7.33737 -0.0527738 0)
(7.33777 -0.0608807 0)
(7.33803 -0.0696409 0)
(7.33809 -0.0790801 0)
(7.33791 -0.0892213 0)
(7.33745 -0.1001 0)
(7.33665 -0.111787 0)
(7.33549 -0.124415 0)
(7.3339 -0.138177 0)
(7.33186 -0.153306 0)
(7.32933 -0.170024 0)
(7.32629 -0.188478 0)
(7.32268 -0.208681 0)
(7.31846 -0.230497 0)
(7.31356 -0.253656 0)
(7.30789 -0.277803 0)
(7.30135 -0.302564 0)
(7.29382 -0.327607 0)
(7.2852 -0.352681 0)
(7.27539 -0.377632 0)
(7.26429 -0.402392 0)
(7.25186 -0.426956 0)
(7.23803 -0.451353 0)
(7.22282 -0.475619 0)
(7.33301 -0.0021389 0)
(7.33311 -0.00652433 0)
(7.3333 -0.0110821 0)
(7.33357 -0.0158921 0)
(7.33389 -0.021013 0)
(7.33422 -0.0264976 0)
(7.33454 -0.0323953 0)
(7.33481 -0.0387516 0)
(7.33499 -0.0456096 0)
(7.33505 -0.0530106 0)
(7.33494 -0.0609917 0)
(7.33462 -0.0695834 0)
(7.33405 -0.0788075 0)
(7.3332 -0.0886826 0)
(7.332 -0.0992402 0)
(7.33042 -0.110549 0)
(7.32841 -0.12274 0)
(7.32592 -0.136006 0)
(7.32292 -0.150583 0)
(7.31937 -0.166691 0)
(7.31523 -0.184468 0)
(7.31046 -0.203919 0)
(7.30501 -0.224887 0)
(7.2988 -0.247082 0)
(7.29177 -0.270127 0)
(7.28383 -0.293632 0)
(7.2749 -0.317255 0)
(7.26489 -0.340743 0)
(7.25373 -0.363947 0)
(7.24137 -0.386811 0)
(7.22775 -0.409349 0)
(7.21286 -0.431608 0)
(7.1967 -0.453644 0)
(7.333 -0.00216546 0)
(7.33305 -0.00659595 0)
(7.33313 -0.0111842 0)
(7.33324 -0.0160051 0)
(7.33334 -0.0211137 0)
(7.33342 -0.0265613 0)
(7.33344 -0.0323959 0)
(7.33337 -0.0386617 0)
(7.33316 -0.0453993 0)
(7.33278 -0.0526469 0)
(7.33217 -0.0604381 0)
(7.33132 -0.068799 0)
(7.33016 -0.0777469 0)
(7.32865 -0.0872955 0)
(7.32676 -0.0974717 0)
(7.32443 -0.108341 0)
(7.32163 -0.12003 0)
(7.3183 -0.132732 0)
(7.3144 -0.146679 0)
(7.3099 -0.162088 0)
(7.30475 -0.179092 0)
(7.29889 -0.197683 0)
(7.29229 -0.217693 0)
(7.28489 -0.238815 0)
(7.27661 -0.260659 0)
(7.26739 -0.282825 0)
(7.25718 -0.304967 0)
(7.24591 -0.326833 0)
(7.23354 -0.348282 0)
(7.22003 -0.369273 0)
(7.20536 -0.389831 0)
(7.18953 -0.410024 0)
(7.17256 -0.429923 0)
(7.333 -0.00217602 0)
(7.333 -0.0066332 0)
(7.33299 -0.0112567 0)
(7.33295 -0.0161143 0)
(7.33287 -0.0212466 0)
(7.33271 -0.0266901 0)
(7.33244 -0.032482 0)
(7.33203 -0.0386593 0)
(7.33144 -0.0452585 0)
(7.33062 -0.0523154 0)
(7.32954 -0.0598622 0)
(7.32816 -0.0679233 0)
(7.32642 -0.0765143 0)
(7.3243 -0.0856467 0)
(7.32174 -0.095345 0)
(7.31871 -0.105672 0)
(7.31515 -0.116751 0)
(7.31103 -0.128774 0)
(7.3063 -0.141969 0)
(7.30092 -0.156548 0)
(7.29483 -0.172639 0)
(7.28799 -0.190226 0)
(7.28034 -0.209133 0)
(7.27184 -0.229045 0)
(7.26242 -0.249566 0)
(7.25205 -0.270292 0)
(7.24069 -0.290878 0)
(7.22829 -0.311078 0)
(7.21483 -0.33076 0)
(7.20031 -0.349892 0)
(7.18471 -0.368515 0)
(7.16806 -0.386708 0)
(7.15037 -0.404559 0)
(7.33299 -0.00215449 0)
(7.33291 -0.00653397 0)
(7.33276 -0.0110387 0)
(7.33254 -0.0157438 0)
(7.33225 -0.020702 0)
(7.33187 -0.0259592 0)
(7.33135 -0.0315551 0)
(7.33064 -0.0375237 0)
(7.32972 -0.0438954 0)
(7.32852 -0.0506985 0)
(7.32702 -0.0579576 0)
(7.32516 -0.0656903 0)
(7.32291 -0.0739056 0)
(7.32022 -0.0826092 0)
(7.31706 -0.0918204 0)
(7.31338 -0.101597 0)
(7.30913 -0.112058 0)
(7.30429 -0.123387 0)
(7.29879 -0.135808 0)
(7.2926 -0.149524 0)
(7.28566 -0.164655 0)
(7.27791 -0.18118 0)
(7.2693 -0.198917 0)
(7.2598 -0.217549 0)
(7.24936 -0.236682 0)
(7.23794 -0.255916 0)
(7.22553 -0.274912 0)
(7.21211 -0.293433 0)
(7.19769 -0.311357 0)
(7.18226 -0.328664 0)
(7.16585 -0.345408 0)
(7.14848 -0.361678 0)
(7.13018 -0.377572 0)
(7.33301 -0.00215012 0)
(7.33295 -0.00660017 0)
(7.33275 -0.0112532 0)
(7.33243 -0.0161228 0)
(7.33197 -0.0211971 0)
(7.33134 -0.0264849 0)
(7.33053 -0.0320142 0)
(7.3295 -0.0378199 0)
(7.3282 -0.043939 0)
(7.32659 -0.0504076 0)
(7.32465 -0.057257 0)
(7.32231 -0.0645102 0)
(7.31954 -0.0721797 0)
(7.31631 -0.0802732 0)
(7.31257 -0.0888101 0)
(7.30827 -0.0978459 0)
(7.30339 -0.107495 0)
(7.29788 -0.117936 0)
(7.29168 -0.129383 0)
(7.28475 -0.142035 0)
(7.27704 -0.156004 0)
(7.26848 -0.171267 0)
(7.25903 -0.187644 0)
(7.24865 -0.204824 0)
(7.2373 -0.222419 0)
(7.22496 -0.24004 0)
(7.21164 -0.257358 0)
(7.19734 -0.274146 0)
(7.18208 -0.290292 0)
(7.16588 -0.305783 0)
(7.14877 -0.320682 0)
(7.13077 -0.335086 0)
(7.11195 -0.349099 0)
(7.33294 -0.00197732 0)
(7.33261 -0.0058976 0)
(7.33214 -0.00992196 0)
(7.33161 -0.014192 0)
(7.33101 -0.0187636 0)
(7.33028 -0.0236534 0)
(7.32934 -0.028866 0)
(7.32815 -0.0344047 0)
(7.32664 -0.0402767 0)
(7.32478 -0.0464926 0)
(7.32252 -0.0530636 0)
(7.31982 -0.0599967 0)
(7.31664 -0.0672931 0)
(7.31295 -0.0749526 0)
(7.30871 -0.0829885 0)
(7.30388 -0.0914509 0)
(7.29843 -0.100448 0)
(7.29232 -0.110147 0)
(7.28549 -0.120752 0)
(7.2779 -0.13245 0)
(7.26947 -0.145346 0)
(7.26017 -0.159411 0)
(7.24994 -0.17447 0)
(7.23875 -0.190219 0)
(7.22657 -0.206288 0)
(7.21341 -0.222302 0)
(7.19927 -0.23795 0)
(7.18418 -0.253022 0)
(7.16817 -0.267416 0)
(7.15128 -0.281133 0)
(7.13355 -0.294242 0)
(7.11503 -0.306846 0)
(7.09575 -0.319058 0)
(7.33309 -0.00224107 0)
(7.33315 -0.0070434 0)
(7.33281 -0.0120666 0)
(7.33213 -0.0171106 0)
(7.33122 -0.022094 0)
(7.33009 -0.0270535 0)
(7.32874 -0.0320618 0)
(7.32712 -0.0371869 0)
(7.32519 -0.0424885 0)
(7.32291 -0.0480177 0)
(7.32023 -0.0538145 0)
(7.3171 -0.0599051 0)
(7.31348 -0.0663023 0)
(7.30933 -0.0730112 0)
(7.30462 -0.0800459 0)
(7.2993 -0.0874523 0)
(7.29333 -0.0953297 0)
(7.28668 -0.103835 0)
(7.2793 -0.113161 0)
(7.27113 -0.123485 0)
(7.26211 -0.134909 0)
(7.2522 -0.14741 0)
(7.24134 -0.160824 0)
(7.22951 -0.174864 0)
(7.21668 -0.189177 0)
(7.20288 -0.203408 0)
(7.1881 -0.217261 0)
(7.1724 -0.230534 0)
(7.15581 -0.243135 0)
(7.13838 -0.255068 0)
(7.12015 -0.266403 0)
(7.10119 -0.277246 0)
(7.08154 -0.28771 0)
(7.3327 -0.00102754 0)
(7.33166 -0.00307729 0)
(7.33074 -0.00569016 0)
(7.33008 -0.009145 0)
(7.32946 -0.0132784 0)
(7.32865 -0.0178831 0)
(7.32754 -0.022832 0)
(7.32606 -0.0280538 0)
(7.32417 -0.0335109 0)
(7.32181 -0.0391868 0)
(7.31897 -0.0450767 0)
(7.3156 -0.0511795 0)
(7.31168 -0.0574926 0)
(7.30718 -0.0640148 0)
(7.30207 -0.0707582 0)
(7.29633 -0.0777684 0)
(7.28992 -0.0851419 0)
(7.28279 -0.0930286 0)
(7.27489 -0.101609 0)
(7.26618 -0.111046 0)
(7.25658 -0.121433 0)
(7.24606 -0.132742 0)
(7.23458 -0.144814 0)
(7.22211 -0.15738 0)
(7.20866 -0.170108 0)
(7.19423 -0.182671 0)
(7.17886 -0.194797 0)
(7.1626 -0.20631 0)
(7.14548 -0.217137 0)
(7.12756 -0.227298 0)
(7.1089 -0.236873 0)
(7.08955 -0.245978 0)
(7.06956 -0.254729 0)
(7.33337 -0.00321691 0)
(7.33374 -0.0104708 0)
(7.3328 -0.017042 0)
(7.33123 -0.0224532 0)
(7.32956 -0.0269926 0)
(7.32785 -0.0310504 0)
(7.32601 -0.0348843 0)
(7.32393 -0.0386591 0)
(7.32155 -0.0424962 0)
(7.3188 -0.0464813 0)
(7.31562 -0.0506676 0)
(7.31194 -0.0550826 0)
(7.30774 -0.0597332 0)
(7.30296 -0.0646146 0)
(7.29756 -0.0697258 0)
(7.29151 -0.0750926 0)
(7.28477 -0.0807888 0)
(7.27731 -0.0869429 0)
(7.26909 -0.0937213 0)
(7.26006 -0.101285 0)
(7.25017 -0.109735 0)
(7.23939 -0.119065 0)
(7.22768 -0.12914 0)
(7.21501 -0.139715 0)
(7.20137 -0.150477 0)
(7.18675 -0.161109 0)
(7.17118 -0.171345 0)
(7.15468 -0.181009 0)
(7.13731 -0.190027 0)
(7.11911 -0.198415 0)
(7.10015 -0.206253 0)
(7.08052 -0.213654 0)
(7.06026 -0.220735 0)
(7.33184 0.0025178 0)
(7.32915 0.00657286 0)
(7.32855 0.00692784 0)
(7.32877 0.00393908 0)
(7.32873 -0.000587592 0)
(7.32812 -0.00573798 0)
(7.32697 -0.0111638 0)
(7.32527 -0.0166886 0)
(7.32301 -0.0222204 0)
(7.32019 -0.0277253 0)
(7.31681 -0.0332014 0)
(7.31287 -0.0386577 0)
(7.30836 -0.044104 0)
(7.30327 -0.0495512 0)
(7.29759 -0.0550219 0)
(7.2913 -0.0605678 0)
(7.28435 -0.0662843 0)
(7.2767 -0.0723116 0)
(7.26831 -0.0788131 0)
(7.25911 -0.0859324 0)
(7.24905 -0.0937437 0)
(7.23806 -0.102213 0)
(7.22611 -0.111187 0)
(7.21318 -0.120416 0)
(7.19924 -0.129607 0)
(7.1843 -0.138477 0)
(7.16838 -0.14681 0)
(7.15152 -0.154487 0)
(7.13377 -0.16149 0)
(7.11522 -0.167885 0)
(7.09594 -0.173793 0)
(7.07602 -0.17935 0)
(7.05555 -0.184683 0)
(7.33396 -0.00713307 0)
(7.33305 -0.0220388 0)
(7.32803 -0.0323909 0)
(7.32355 -0.0373896 0)
(7.32093 -0.0400279 0)
(7.31909 -0.0417385 0)
(7.3174 -0.0430105 0)
(7.31562 -0.0441916 0)
(7.31361 -0.045506 0)
(7.31126 -0.0470602 0)
(7.30848 -0.0488965 0)
(7.30523 -0.0510191 0)
(7.30144 -0.0534043 0)
(7.2971 -0.0560113 0)
(7.29218 -0.0587992 0)
(7.28664 -0.0617508 0)
(7.28049 -0.0648961 0)
(7.27373 -0.0683255 0)
(7.26633 -0.0721788 0)
(7.25829 -0.0766096 0)
(7.24953 -0.0817306 0)
(7.23996 -0.0875616 0)
(7.22944 -0.094 0)
(7.21782 -0.10083 0)
(7.20498 -0.107766 0)
(7.19083 -0.114519 0)
(7.17537 -0.120857 0)
(7.15866 -0.126642 0)
(7.14083 -0.131841 0)
(7.12204 -0.136511 0)
(7.10248 -0.140764 0)
(7.08233 -0.144734 0)
(7.06172 -0.148539 0)
(7.32968 0.0193996 0)
(7.32475 0.0356236 0)
(7.3285 0.035656 0)
(7.33252 0.029488 0)
(7.33341 0.0218544 0)
(7.33301 0.0140561 0)
(7.33218 0.00651368 0)
(7.33096 -0.000558129 0)
(7.32943 -0.00710589 0)
(7.32767 -0.0131687 0)
(7.32568 -0.0188119 0)
(7.32348 -0.0241004 0)
(7.32106 -0.0290924 0)
(7.31843 -0.0338433 0)
(7.31559 -0.0384212 0)
(7.31254 -0.0429228 0)
(7.30924 -0.0474778 0)
(7.30557 -0.0522293 0)
(7.30134 -0.0572915 0)
(7.29622 -0.062699 0)
(7.28986 -0.0683728 0)
(7.28186 -0.0741227 0)
(7.27196 -0.0796891 0)
(7.26 -0.0848096 0)
(7.24603 -0.0892876 0)
(7.23027 -0.0930392 0)
(7.21305 -0.0961042 0)
(7.19476 -0.0986244 0)
(7.17579 -0.100799 0)
(7.15644 -0.102834 0)
(7.13694 -0.104902 0)
(7.11742 -0.107117 0)
(7.09791 -0.109529 0)
(7.32499 -0.0336175 0)
(7.2969 -0.0604709 0)
(7.2764 -0.064925 0)
(7.27225 -0.0644367 0)
(7.27936 -0.062435 0)
(7.29103 -0.0596963 0)
(7.30436 -0.0570929 0)
(7.3181 -0.055024 0)
(7.33151 -0.0535648 0)
(7.3442 -0.0527114 0)
(7.35599 -0.0524249 0)
(7.36681 -0.0526367 0)
(7.37662 -0.053264 0)
(7.38538 -0.0542159 0)
(7.39303 -0.0553909 0)
(7.39942 -0.0566708 0)
(7.40429 -0.0579191 0)
(7.40724 -0.0589916 0)
(7.40778 -0.0597642 0)
(7.40534 -0.0601718 0)
(7.39948 -0.0602409 0)
(7.38998 -0.060099 0)
(7.37694 -0.059951 0)
(7.36083 -0.060027 0)
(7.3424 -0.060522 0)
(7.32255 -0.0615493 0)
(7.30216 -0.0631217 0)
(7.28193 -0.0651611 0)
(7.26234 -0.0675306 0)
(7.24359 -0.0700724 0)
(7.22567 -0.0726476 0)
(7.20841 -0.0751486 0)
(7.19153 -0.0775408 0)
(7.33915 0.134571 0)
(7.37555 0.126679 0)
(7.3919 0.0862777 0)
(7.3853 0.0518555 0)
(7.36621 0.0257803 0)
(7.34017 0.00668295 0)
(7.30958 -0.00736852 0)
(7.27606 -0.0180035 0)
(7.24061 -0.0263084 0)
(7.20372 -0.0329961 0)
(7.16566 -0.0385402 0)
(7.1266 -0.0432438 0)
(7.08668 -0.0472841 0)
(7.046 -0.0507377 0)
(7.00471 -0.0535838 0)
(6.96304 -0.0556968 0)
(6.9213 -0.0568523 0)
(6.87996 -0.0567689 0)
(6.83959 -0.0552022 0)