/*--------------------------------*- C++ -*----------------------------------*\
  =========                 |
  \\      /  F ield         | OpenFOAM: The Open Source CFD Toolbox
   \\    /   O peration     | Website:  https://openfoam.org
    \\  /    A nd           | Version:  10
     \\/     M anipulation  |
\*---------------------------------------------------------------------------*/
FoamFile
{
    format      ascii;
    class       volScalarField;
    location    "1900";
    object      epsilon;
}
// * * * * * * * * * * * * * * * * * * * * * * * * * * * * * * * * * * * * * //

dimensions      [0 2 -3 0 0 0 0];

internalField   nonuniform List<scalar> 
6820
(
23.3479
22.8004
22.2986
21.7956
21.2906
20.7982
20.3323
19.9019
19.5116
19.1626
18.854
18.5837
18.349
18.1469
17.9745
17.8288
17.7071
17.6069
17.526
17.4622
17.4137
17.3789
17.3562
17.3443
17.342
17.3485
17.3627
17.3826
17.4107
17.5112
16.9277
20.061
12.4106
5.24751
7.40636
8.54779
9.16334
9.54949
9.84075
10.0951
10.3381
10.5806
10.8264
11.0767
11.3315
11.5902
11.852
12.1163
12.3823
12.6495
12.9172
13.1851
13.4528
13.7199
13.9863
14.252
14.5172
14.7826
15.0491
15.318
15.5932
15.8777
16.2012
16.3921
17.2297
18.417
3.71892
4.27985
4.80504
5.21573
5.52679
5.76841
5.96455
6.1316
6.28039
6.41802
6.54914
6.67683
6.80309
6.9292
7.05595
7.18379
7.31296
7.44355
7.57556
7.70891
7.84354
7.97936
8.11631
8.25439
8.39366
8.53437
8.6769
8.82226
8.97046
9.1311
9.28495
9.46117
9.98887
3.53759
3.62335
3.7716
3.93761
4.09554
4.23612
4.35835
4.46443
4.5574
4.64013
4.71511
4.78433
4.84938
4.91148
4.9716
5.03044
5.08855
5.14633
5.20407
5.262
5.32027
5.37901
5.43831
5.49828
5.559
5.62065
5.68342
5.74773
5.81374
5.88361
5.95707
6.02645
6.14671
3.52015
3.50151
3.51115
3.54398
3.59068
3.64318
3.69618
3.74684
3.79395
3.83722
3.87683
3.9132
3.94679
3.97809
4.00755
4.03556
4.06245
4.08852
4.114
4.13909
4.16396
4.18875
4.21359
4.23857
4.26381
4.28943
4.31558
4.34245
4.37022
4.39942
4.43061
4.4623
4.49946
3.51931
3.48209
3.45346
3.43537
3.42736
3.42745
3.43326
3.44265
3.454
3.46619
3.47851
3.49055
3.50208
3.51303
3.5234
3.53322
3.54256
3.55152
3.56016
3.56858
3.57684
3.58503
3.59321
3.60145
3.60982
3.61839
3.62725
3.63649
3.64624
3.65669
3.66811
3.68047
3.69399
3.51943
3.47964
3.44271
3.40975
3.38151
3.35816
3.33934
3.32445
3.31275
3.30354
3.29622
3.29031
3.28544
3.28133
3.27777
3.27464
3.27182
3.26927
3.26694
3.26482
3.26288
3.26114
3.25959
3.25826
3.25715
3.25631
3.25575
3.25553
3.25571
3.25636
3.25761
3.25953
3.26215
3.51947
3.47942
3.44105
3.40466
3.37057
3.33905
3.31021
3.28405
3.26043
3.23912
3.21988
3.20245
3.18657
3.17202
3.15863
3.14621
3.13465
3.12383
3.11366
3.10408
3.09503
3.08645
3.07833
3.07063
3.06333
3.05643
3.04993
3.04383
3.03815
3.03292
3.02818
3.024
3.02038
3.51948
3.47941
3.44084
3.40381
3.36835
3.33453
3.30244
3.2721
3.24352
3.21667
3.19149
3.16788
3.14575
3.12496
3.10543
3.08703
3.06966
3.05325
3.03769
3.02293
3.00889
2.99553
2.98279
2.97063
2.95903
2.94794
2.93736
2.92727
2.91767
2.90854
2.89992
2.89181
2.88423
3.51948
3.4794
3.44081
3.40368
3.36795
3.33361
3.30063
3.26902
3.23876
3.20983
3.18222
3.15588
3.13078
3.10686
3.08406
3.06234
3.04162
3.02186
3.00299
2.98496
2.96771
2.95121
2.93541
2.92026
2.90574
2.89182
2.87846
2.86565
2.85337
2.84161
2.83037
2.81965
2.80944
3.51948
3.4794
3.44081
3.40365
3.36788
3.33343
3.30026
3.26832
3.23758
3.208
3.17955
3.1522
3.12592
3.10067
3.07642
3.05313
3.03076
3.00927
2.98863
2.96879
2.94973
2.9314
2.91377
2.8968
2.88048
2.86477
2.84965
2.83509
2.82108
2.80761
2.79466
2.78224
2.77032
3.51948
3.4794
3.4408
3.40364
3.36785
3.33339
3.30017
3.26816
3.2373
3.20755
3.17885
3.15119
3.12451
3.09878
3.07397
3.05005
3.02698
3.00474
2.98328
2.96258
2.94262
2.92336
2.90477
2.88683
2.86952
2.85281
2.83668
2.82111
2.80609
2.79159
2.77762
2.76416
2.75119
3.51948
3.4794
3.44079
3.40363
3.36784
3.33337
3.30014
3.26811
3.23722
3.20743
3.17867
3.15092
3.12412
3.09825
3.07326
3.04912
3.02579
3.00326
2.98148
2.96043
2.94008
2.92041
2.90138
2.88299
2.8652
2.84799
2.83136
2.81526
2.79971
2.78467
2.77013
2.7561
2.74254
3.51948
3.47939
3.44079
3.40362
3.36783
3.33335
3.30012
3.26809
3.23719
3.20738
3.17861
3.15083
3.124
3.09809
3.07304
3.04884
3.02543
3.0028
2.98091
2.95973
2.93924
2.91941
2.90021
2.88163
2.86364
2.84623
2.82936
2.81303
2.79723
2.78193
2.76712
2.7528
2.73894
3.51947
3.47939
3.44079
3.40362
3.36782
3.33334
3.30011
3.26807
3.23717
3.20735
3.17857
3.15079
3.12395
3.09802
3.07296
3.04874
3.02531
3.00265
2.98073
2.95951
2.93897
2.91908
2.89983
2.88118
2.86312
2.84562
2.82867
2.81225
2.79634
2.78092
2.766
2.75154
2.73754
3.51947
3.47939
3.44078
3.40361
3.36781
3.33333
3.30009
3.26805
3.23714
3.20733
3.17855
3.15076
3.12392
3.09798
3.07292
3.04869
3.02525
3.00258
2.98065
2.95942
2.93887
2.91897
2.89969
2.88103
2.86294
2.84541
2.82843
2.81197
2.79603
2.78057
2.76559
2.75108
2.73702
3.51947
3.47939
3.44078
3.40361
3.36781
3.33332
3.30008
3.26803
3.23713
3.20731
3.17852
3.15073
3.12389
3.09795
3.07288
3.04865
3.02521
3.00254
2.9806
2.95937
2.93881
2.91891
2.89963
2.88096
2.86286
2.84533
2.82834
2.81187
2.79591
2.78043
2.76543
2.7509
2.7368
3.51947
3.47939
3.44078
3.4036
3.3678
3.33331
3.30007
3.26802
3.23711
3.20729
3.1785
3.15071
3.12386
3.09792
3.07285
3.04862
3.02518
3.00251
2.98057
2.95933
2.93878
2.91887
2.89959
2.88091
2.86282
2.84528
2.82829
2.81181
2.79584
2.78036
2.76535
2.75079
2.73668
3.51947
3.47939
3.44078
3.4036
3.3678
3.3333
3.30006
3.26801
3.2371
3.20727
3.17848
3.15069
3.12384
3.0979
3.07283
3.04859
3.02515
3.00248
2.98053
2.9593
2.93874
2.91884
2.89955
2.88088
2.86278
2.84524
2.82824
2.81177
2.79579
2.7803
2.76528
2.75072
2.73659
3.51947
3.47939
3.44077
3.4036
3.36779
3.3333
3.30005
3.268
3.23709
3.20726
3.17847
3.15067
3.12382
3.09788
3.0728
3.04857
3.02512
3.00245
2.98051
2.95927
2.93871
2.9188
2.89952
2.88084
2.86275
2.84521
2.82821
2.81173
2.79575
2.78025
2.76522
2.75065
2.73651
3.51947
3.47939
3.44077
3.40359
3.36779
3.33329
3.30005
3.26799
3.23708
3.20724
3.17845
3.15065
3.1238
3.09786
3.07278
3.04854
3.0251
3.00242
2.98048
2.95924
2.93868
2.91878
2.89949
2.88081
2.86271
2.84517
2.82817
2.81169
2.7957
2.7802
2.76517
2.75058
2.73643
3.51947
3.47938
3.44077
3.40359
3.36779
3.33329
3.30004
3.26798
3.23707
3.20723
3.17844
3.15064
3.12379
3.09784
3.07277
3.04852
3.02508
3.0024
2.98046
2.95922
2.93866
2.91875
2.89947
2.88079
2.86268
2.84514
2.82813
2.81165
2.79566
2.78015
2.76511
2.75051
2.73635
3.51947
3.47938
3.44077
3.40359
3.36778
3.33329
3.30004
3.26798
3.23706
3.20723
3.17843
3.15063
3.12377
3.09783
3.07275
3.04851
3.02506
3.00238
2.98044
2.9592
2.93864
2.91873
2.89944
2.88076
2.86265
2.84511
2.8281
2.81161
2.79561
2.7801
2.76505
2.75045
2.73628
3.51947
3.47938
3.44077
3.40359
3.36778
3.33328
3.30003
3.26797
3.23705
3.20722
3.17842
3.15062
3.12376
3.09781
3.07274
3.04849
3.02505
3.00237
2.98042
2.95918
2.93862
2.91871
2.89942
2.88073
2.86263
2.84508
2.82807
2.81157
2.79557
2.78005
2.765
2.75039
2.73621
3.51947
3.47938
3.44077
3.40359
3.36778
3.33328
3.30003
3.26797
3.23705
3.20721
3.17841
3.15061
3.12375
3.0978
3.07273
3.04848
3.02503
3.00235
2.98041
2.95917
2.9386
2.91869
2.8994
2.88071
2.8626
2.84505
2.82803
2.81153
2.79553
2.78001
2.76494
2.75033
2.73614
3.51947
3.47938
3.44077
3.40359
3.36778
3.33328
3.30003
3.26797
3.23704
3.20721
3.17841
3.1506
3.12374
3.0978
3.07272
3.04847
3.02502
3.00234
2.98039
2.95915
2.93859
2.91867
2.89938
2.88069
2.86258
2.84502
2.828
2.8115
2.79549
2.77996
2.76489
2.75027
2.73607
3.51947
3.47938
3.44077
3.40359
3.36778
3.33328
3.30002
3.26796
3.23704
3.2072
3.1784
3.1506
3.12374
3.09779
3.07271
3.04846
3.02501
3.00233
2.98038
2.95914
2.93857
2.91866
2.89936
2.88067
2.86256
2.845
2.82798
2.81147
2.79546
2.77992
2.76485
2.75022
2.73601
3.51947
3.47938
3.44077
3.40359
3.36778
3.33328
3.30002
3.26796
3.23704
3.2072
3.1784
3.15059
3.12373
3.09778
3.0727
3.04846
3.02501
3.00232
2.98038
2.95913
2.93856
2.91864
2.89935
2.88066
2.86254
2.84498
2.82795
2.81144
2.79542
2.77988
2.7648
2.75017
2.73596
3.51947
3.47938
3.44077
3.40359
3.36778
3.33327
3.30002
3.26796
3.23704
3.2072
3.1784
3.15059
3.12373
3.09778
3.0727
3.04845
3.025
3.00232
2.98037
2.95912
2.93855
2.91863
2.89934
2.88064
2.86252
2.84496
2.82793
2.81142
2.79539
2.77985
2.76477
2.75013
2.73591
3.51947
3.47938
3.44077
3.40359
3.36778
3.33327
3.30002
3.26796
3.23704
3.2072
3.1784
3.15059
3.12373
3.09778
3.0727
3.04845
3.025
3.00232
2.98037
2.95912
2.93855
2.91863
2.89933
2.88064
2.86252
2.84495
2.82792
2.8114
2.79538
2.77983
2.76474
2.75009
2.73587
3.51947
3.47938
3.44077
3.40359
3.36778
3.33327
3.30002
3.26796
3.23704
3.2072
3.1784
3.15059
3.12373
3.09778
3.0727
3.04845
3.025
3.00232
2.98037
2.95912
2.93855
2.91863
2.89933
2.88063
2.86251
2.84495
2.82791
2.81139
2.79537
2.77982
2.76473
2.75009
2.73586
3.51947
3.47938
3.44077
3.40359
3.36778
3.33327
3.30002
3.26796
3.23704
3.2072
3.1784
3.1506
3.12374
3.09779
3.07271
3.04847
3.02502
3.00234
2.98039
2.95915
2.93859
2.91867
2.89938
2.88069
2.86257
2.84501
2.82799
2.81148
2.79546
2.77992
2.76484
2.75021
2.73599
3.51947
3.47938
3.44077
3.40359
3.36778
3.33328
3.30002
3.26796
3.23704
3.20721
3.17841
3.15061
3.12376
3.09782
3.07276
3.04852
3.02509
3.00243
2.98051
2.95929
2.93875
2.91887
2.89961
2.88096
2.86289
2.84538
2.8284
2.81194
2.79598
2.7805
2.76548
2.75091
2.73677
3.51947
3.47938
3.44077
3.40359
3.36778
3.33329
3.30005
3.268
3.23711
3.20731
3.17856
3.15081
3.12403
3.09816
3.07318
3.04905
3.02573
3.00319
2.9814
2.96033
2.93996
2.92025
2.90118
2.88273
2.86487
2.84757
2.83083
2.81461
2.79889
2.78367
2.76892
2.75461
2.74074
3.51947
3.47938
3.44078
3.40362
3.36785
3.33342
3.30029
3.26838
3.23767
3.2081
3.17964
3.15223
3.12584
3.10043
3.07595
3.05238
3.02968
3.0078
2.98673
2.96641
2.94683
2.92794
2.90973
2.89216
2.87521
2.85884
2.84304
2.82778
2.81303
2.79878
2.78501
2.77169
2.7588
3.51947
3.47942
3.44096
3.40413
3.36893
3.33533
3.30326
3.27268
3.24352
3.21574
3.18928
3.16409
3.14009
3.11725
3.09549
3.07477
3.05502
3.0362
3.01824
3.00111
2.98474
2.9691
2.95415
2.93983
2.92612
2.91298
2.90037
2.88827
2.87664
2.86546
2.8547
2.84434
2.83435
3.5195
3.48076
3.44539
3.41321
3.38397
3.35746
3.33352
3.31197
3.29263
3.27532
3.25984
3.24601
3.23365
3.22261
3.21274
3.2039
3.19596
3.18882
3.18237
3.17653
3.17123
3.16638
3.16194
3.15785
3.15405
3.15052
3.14721
3.14409
3.14114
3.13832
3.13562
3.13303
3.13051
3.52507
3.51486
3.52103
3.53651
3.55838
3.58513
3.61572
3.64923
3.68486
3.72192
3.75985
3.79821
3.83664
3.87485
3.91263
3.94979
3.9862
4.02177
4.05642
4.0901
4.12277
4.15442
4.18504
4.21461
4.24316
4.2707
4.29724
4.32279
4.34739
4.37106
4.39382
4.4157
4.43673
3.84201
4.38782
4.87752
5.34277
5.79504
6.23577
6.6629
7.07507
7.47226
7.85507
8.22424
8.58053
8.92472
9.25751
9.57957
9.89144
10.1936
10.4866
10.7707
11.0464
11.3139
11.5735
11.8255
12.0702
12.3078
12.5386
12.7627
12.9804
13.1919
13.3974
13.5971
13.7911
13.9798
30.2673
32.7691
35.3054
37.8488
40.3863
42.9101
45.4131
47.8885
50.3296
52.7305
55.0859
57.3912
59.6425
61.8364
63.9703
66.0421
68.0502
69.9934
71.8712
73.6832
75.4295
77.1105
78.7269
80.2795
81.7695
83.1981
84.5667
85.8769
87.1301
88.3281
89.4726
90.5651
91.6086
1.23341
329.16
737.554
898.575
890.766
855.087
844.326
848.951
844.964
822.059
782.424
731.673
675.376
618.448
564.875
517.318
477.092
444.36
418.393
397.826
380.967
366.116
351.78
336.723
319.986
301.028
279.982
257.829
236.287
217.449
203.322
195.403
194.277
199.297
208.55
219.352
229.123
236.166
239.907
240.616
238.896
235.26
229.92
222.81
213.716
202.446
188.975
173.56
156.77
139.438
122.554
107.115
93.9817
83.7721
76.774
72.8969
71.6791
72.3822
74.1603
76.2314
77.9897
79.04
79.1776
78.3432
76.5759
73.9745
70.6696
66.8048
62.5259
57.9737
53.2805
48.5672
43.9421
39.4999
35.321
31.4715
28.0036
24.9577
22.3677
20.2773
18.7785
18.0588
18.3659
19.819
22.2326
25.1813
28.2124
30.9938
33.3431
35.1943
36.5527
37.4606
37.9752
38.1558
38.0585
37.731
37.2192
36.5383
35.8176
34.4202
11.9392
18.2458
95.6479
216.802
311.126
364.13
397.325
429.833
465.704
496.492
511.579
507.021
487.254
459.476
429.736
401.904
378.016
358.805
344.053
332.805
323.6
314.764
304.71
292.163
276.354
257.216
235.524
212.83
191.178
172.697
159.287
152.389
152.716
159.892
172.227
187.003
201.291
212.842
220.534
224.242
224.394
221.506
215.92
207.771
197.092
183.949
168.581
151.472
133.363
115.187
97.9403
82.5329
69.6712
59.7968
53.0754
49.3942
48.3567
49.3191
51.5025
54.1437
56.6166
58.4873
59.5102
59.5928
58.7513
57.0713
54.6775
51.7132
48.3256
44.6583
40.8449
37.0065
33.2494
29.6638
26.323
23.2841
20.5887
18.2654
16.3361
14.832
13.8319
13.5108
14.1151
15.7821
18.3602
21.4574
24.6423
27.591
30.1202
32.1587
33.7058
34.7982
35.4885
35.8329
35.8856
35.6931
35.3012
34.7244
34.0942
32.7942
9.67262
6.7636
8.74645
25.8108
53.9419
81.6243
102.929
118.916
133.54
149.671
167.997
187.225
203.959
215.796
222.556
225.611
226.758
227.456
228.481
229.832
230.794
230.17
226.634
219.126
207.2
191.256
172.542
152.891
134.312
118.628
107.363
101.795
102.898
110.951
124.999
142.734
161.109
177.329
189.565
197.11
200.058
198.847
193.93
185.665
174.357
160.356
144.162
126.482
108.223
90.3999
73.9834
59.7383
48.1285
39.3218
33.272
29.8017
28.6188
29.2897
31.2458
33.8608
36.5573
38.8868
40.5582
41.4269
41.4634
40.7184
39.2921
37.3115
34.9131
32.2329
29.3982
26.5238
23.7085
21.0336
18.5625
16.3408
14.3983
12.7518
11.4114
10.394
9.75731
9.65256
10.3238
11.9527
14.4623
17.5231
20.7326
23.7674
26.4317
28.6379
30.3705
31.6545
32.5342
33.0599
33.2821
33.2452
32.9941
32.5431
32.0226
30.8533
6.32045
5.97607
5.24608
5.79379
8.88184
13.9855
19.4804
24.0033
27.3737
30.3963
33.9833
38.8164
45.5357
54.2177
64.3297
75.1217
85.9961
96.6262
106.83
116.321
124.497
130.405
132.957
131.31
125.25
115.39
103.044
89.8645
77.4084
66.8765
59.1415
55.0217
55.5493
61.8139
74.2106
91.6597
111.63
131.037
147.292
158.87
165.282
166.692
163.535
156.325
145.609
132.009
116.293
99.4051
82.4188
66.4009
52.2256
40.4271
31.1621
24.2927
19.5359
16.6018
15.2533
15.2721
16.3868
18.2421
20.4341
22.5809
24.3822
25.6449
26.2799
26.2822
25.7059
24.6415
23.1981
21.4898
19.6265
17.7072
15.8164
14.0215
12.3727
10.9034
9.63257
8.56843
7.71315
7.07258
6.68099
6.65169
7.20813
8.57908
10.7927
13.6155
16.691
19.6982
22.4215
24.7484
26.6407
28.1056
29.1741
29.8878
30.2909
30.4244
30.3309
30.0247
29.6313
28.6252
4.56449
4.59798
4.4933
4.37008
4.53197
5.15755
6.14733
7.19328
8.02072
8.6199
9.18867
9.87223
10.8458
12.3733
14.6863
17.9386
22.1815
27.3659
33.341
39.8094
46.2475
51.8794
55.8035
57.2781
56.0267
52.3719
47.1081
41.2039
35.5128
30.6202
26.86
24.4928
24.0329
26.5459
33.4533
45.5745
62.1122
80.6672
98.2703
112.508
122.03
126.414
125.823
120.746
111.87
100.042
86.283
71.7475
57.6054
44.8483
34.1162
25.6328
19.2725
14.708
11.5596
9.50368
8.32216
7.89337
8.1351
8.93948
10.1398
11.5226
12.8683
13.9933
14.7747
15.1549
15.1331
14.7494
14.0699
13.1726
12.1372
11.0374
9.93632
8.88339
7.91428
7.05166
6.30751
5.68612
5.18769
4.81352
4.57973
4.55472
4.90993
5.88647
7.61974
10.0065
12.7688
15.6032
18.2764
20.6464
22.6462
24.2591
25.4984
26.3926
26.9771
27.2872
27.3618
27.2143
26.9616
26.1472
3.71399
3.73994
3.74932
3.73322
3.72854
3.79607
3.96534
4.19995
4.42003
4.57611
4.68485
4.78276
4.91816
5.15789
5.56974
6.21774
7.16015
8.44592
10.1026
12.1074
14.3417
16.5577
18.4051
19.5396
19.7648
19.1113
17.8055
16.1608
14.4696
12.9451
11.7117
10.8324
10.397
10.7277
12.6427
17.4273
26.1078
38.3994
52.4511
65.7484
76.205
82.5907
84.4825
82.0764
76.0047
67.2126
56.8517
46.128
36.099
27.4887
20.6115
15.4298
11.6923
9.07416
7.27264
6.05198
5.25597
4.80106
4.65367
4.79583
5.19318
5.77868
6.45661
7.12093
7.67735
8.05939
8.23452
8.20174
7.98413
7.61967
7.15273
6.62724
6.08204
5.54834
5.04887
4.59845
4.20549
3.8738
3.60473
3.39944
3.26452
3.23217
3.40535
3.98095
5.1538
6.95858
9.23606
11.735
14.2209
16.5264
18.5533
20.2568
21.6277
22.6775
23.4297
23.9111
24.1548
24.1726
24.0683
23.4673
3.26624
3.27336
3.28071
3.28347
3.28237
3.28862
3.31614
3.36634
3.4225
3.46419
3.48483
3.49126
3.49965
3.53158
3.60894
3.75158
3.97666
4.29845
4.72647
5.25952
5.87483
6.51763
7.10291
7.53745
7.75414
7.73704
7.52178
7.17534
6.77119
6.37283
6.02727
5.76373
5.60002
5.58206
5.88878
6.97676
9.60669
14.4864
21.5898
29.8697
37.7151
43.6153
46.6068
46.4163
43.3838
38.2865
32.1137
25.8225
20.1326
15.431
11.802
9.13311
7.22873
5.88924
4.94885
4.2853
3.81678
3.49574
3.30132
3.22846
3.27423
3.42623
3.65735
3.92799
4.1936
4.41384
4.5597
4.61682
4.58492
4.47465
4.3033
4.09075
3.85623
3.61624
3.3837
3.16777
2.97442
2.80727
2.66847
2.55973
2.48399
2.45342
2.51583
2.79302
3.46365
4.6521
6.33272
8.34908
10.5006
12.6121
14.5601
16.2715
17.7119
18.8727
19.7617
20.395
20.7968
20.9761
21.0198
20.6439
3.01676
3.01377
3.01185
3.00989
3.00681
3.00372
3.00413
3.01035
3.01994
3.02687
3.02647
3.01838
3.00679
2.99908
3.00382
3.02918
3.08203
3.1675
3.28839
3.44389
3.62734
3.82416
4.01228
4.16668
4.26694
4.30362
4.28012
4.20974
4.11057
4.00126
3.89856
3.81587
3.76199
3.74562
3.79782
4.01836
4.62278
5.92724
8.20109
11.4076
15.058
18.3602
20.5542
21.2084
20.334
18.306
15.67
12.9401
10.4712
8.43135
6.84458
5.65549
4.78122
4.14139
3.67021
3.31858
3.05226
2.84952
2.69901
2.59724
2.54461
2.54055
2.57979
2.651
2.73822
2.82393
2.89251
2.93286
2.93956
2.91261
2.85617
2.77692
2.6825
2.58025
2.47653
2.37638
2.28352
2.20061
2.12957
2.07197
2.02944
2.00598
2.01915
2.12709
2.44738
3.11546
4.19844
5.65123
7.3464
9.13357
10.8825
12.4994
13.9262
15.1328
16.1095
16.8584
17.3931
17.7179
17.899
17.747
2.87595
2.86719
2.85911
2.85148
2.84387
2.83611
2.82877
2.82264
2.81759
2.81215
2.80447
2.79354
2.77992
2.76567
2.75389
2.74804
2.7514
2.76662
2.79532
2.83762
2.89153
2.95259
3.01401
3.06794
3.10737
3.128
3.12905
3.11297
3.08436
3.04891
3.01256
2.98106
2.9592
2.95093
2.96348
3.01872
3.16747
3.49691
4.10783
5.0473
6.23534
7.45132
8.41054
8.89102
8.82518
8.30258
7.50102
6.60294
5.74222
4.99113
4.37277
3.88076
3.49559
3.19479
2.95799
2.76869
2.61455
2.48709
2.38127
2.2951
2.22873
2.18301
2.15783
2.15098
2.15783
2.17208
2.18702
2.19673
2.19706
2.18593
2.16325
2.13045
2.08986
2.04421
1.99618
1.94815
1.90207
1.85952
1.82175
1.78981
1.76467
1.74763
1.74394
1.77553
1.90151
2.21837
2.8174
3.73179
4.91972
6.28765
7.72707
9.14153
10.4583
11.6293
12.627
13.4392
14.0664
14.5064
14.8026
14.8578
2.79812
2.78571
2.77372
2.76212
2.75076
2.73947
2.72827
2.7173
2.70659
2.69581
2.68436
2.67168
2.65761
2.64255
2.62744
2.61355
2.60231
2.5951
2.59298
2.59646
2.60525
2.6181
2.63285
2.64681
2.65735
2.66245
2.66113
2.65349
2.64053
2.62389
2.60564
2.58816
2.57392
2.56533
2.56527
2.57929
2.61989
2.71061
2.88174
3.15245
3.50955
3.89904
4.24076
4.46087
4.52201
4.43227
4.23194
3.97163
3.69505
3.43149
3.19602
2.99327
2.82167
2.67678
2.55345
2.4469
2.3533
2.26985
2.19484
2.12756
2.06818
2.01736
1.97579
1.94354
1.9198
1.90279
1.8901
1.87918
1.86776
1.85421
1.83763
1.81785
1.79524
1.77054
1.74463
1.71843
1.69281
1.66852
1.6462
1.62643
1.6097
1.59646
1.58798
1.5909
1.62864
1.75263
2.03342
2.52894
3.25574
4.183
5.24672
6.37111
7.48563
8.53377
9.47549
10.2851
10.9506
11.4624
11.8395
12.068
2.75701
2.74224
2.72776
2.71357
2.6996
2.68579
2.67208
2.65845
2.6449
2.63133
2.61752
2.60323
2.5883
2.57275
2.5568
2.54084
2.52545
2.51124
2.49883
2.48867
2.48093
2.47543
2.47156
2.46843
2.46502
2.46037
2.45379
2.44493
2.43381
2.42074
2.40639
2.39169
2.37786
2.36636
2.35878
2.35713
2.3649
2.38866
2.43757
2.51855
2.62975
2.75731
2.87845
2.96976
3.01584
3.0134
2.96962
2.89717
2.80917
2.71613
2.62486
2.53885
2.45922
2.38569
2.31735
2.25317
2.19231
2.13421
2.07861
2.0256
1.97553
1.92898
1.88655
1.84874
1.81573
1.78729
1.76279
1.74135
1.72198
1.70378
1.68605
1.66833
1.65044
1.63236
1.61426
1.59635
1.5789
1.56218
1.54642
1.53187
1.51869
1.507
1.49701
1.49028
1.49425
1.53031
1.63816
1.86575
2.24916
2.79762
3.49116
4.2884
5.13822
5.99024
6.80151
7.53891
8.18057
8.71022
9.12449
9.47599
2.73664
2.72041
2.70437
2.68854
2.6729
2.6574
2.64201
2.6267
2.61145
2.59619
2.58083
2.56526
2.54939
2.53317
2.51665
2.49994
2.48326
2.46688
2.45111
2.43626
2.42254
2.41003
2.39862
2.38805
2.37791
2.36773
2.35708
2.3456
2.33308
2.31946
2.30488
2.28968
2.27446
2.26005
2.24746
2.23779
2.23241
2.23339
2.24356
2.26535
2.29885
2.34053
2.38371
2.42069
2.44533
2.45468
2.44906
2.43102
2.40394
2.371
2.33456
2.29615
2.25652
2.21599
2.17464
2.13249
2.08965
2.04631
2.00282
1.95959
1.91713
1.876
1.83673
1.79983
1.76567
1.73442
1.70608
1.68046
1.65721
1.63595
1.61627
1.59784
1.58038
1.56371
1.54772
1.53235
1.5176
1.50348
1.49001
1.47723
1.46512
1.45362
1.44267
1.43248
1.42494
1.42717
1.45636
1.54061
1.7112
1.99072
2.38512
2.88262
3.45762
4.07691
4.7058
5.31256
5.8716
6.36327
6.76664
7.17893
2.72729
2.7102
2.69325
2.67645
2.65977
2.64322
2.62677
2.61038
2.59405
2.57772
2.56136
2.54488
2.52824
2.5114
2.49437
2.4772
2.45997
2.44281
2.4259
2.40941
2.3935
2.37829
2.36379
2.34993
2.33653
2.32333
2.31005
2.29642
2.2822
2.26725
2.25153
2.23517
2.21846
2.20189
2.1861
2.17187
2.16002
2.15151
2.14741
2.1486
2.15533
2.16671
2.18074
2.1948
2.20642
2.21383
2.21616
2.21336
2.20578
2.19398
2.17841
2.15943
2.1373
2.11219
2.0843
2.05387
2.02122
1.98677
1.951
1.91445
1.87767
1.8412
1.80555
1.77118
1.73845
1.70764
1.67892
1.65232
1.62779
1.60518
1.58432
1.565
1.547
1.53015
1.51427
1.49924
1.48494
1.47128
1.4582
1.4456
1.43338
1.4214
1.40951
1.39763
1.3861
1.37688
1.37589
1.39564
1.45482
1.57342
1.76577
2.03614
2.37807
2.77627
3.20989
3.65587
4.092
4.50011
4.84986
5.25853
2.72332
2.70578
2.68832
2.67097
2.65371
2.63653
2.61944
2.6024
2.58539
2.56841
2.5514
2.53432
2.51715
2.49987
2.48246
2.46495
2.4474
2.42988
2.41249
2.39535
2.37857
2.36222
2.34636
2.33094
2.31587
2.30099
2.2861
2.27097
2.25543
2.23931
2.22255
2.20517
2.18734
2.16936
2.15167
2.13484
2.11951
2.10634
2.09597
2.08889
2.08532
2.08505
2.08742
2.09143
2.09596
2.09996
2.10254
2.10305
2.10103
2.09615
2.08818
2.07696
2.06243
2.04461
2.0236
1.99963
1.97302
1.94417
1.91357
1.88174
1.8492
1.81646
1.784
1.75225
1.72154
1.69216
1.66431
1.6381
1.61358
1.59071
1.56943
1.54961
1.53112
1.51381
1.49753
1.48215
1.46752
1.45354
1.44008
1.42703
1.41423
1.40153
1.38874
1.37572
1.36247
1.34942
1.33831
1.33355
1.34356
1.38026
1.45619
1.58058
1.75667
1.98116
2.24517
2.53591
2.83847
3.13994
3.40936
3.76172
2.72174
2.70397
2.68626
2.66861
2.65102
2.6335
2.61603
2.5986
2.58121
2.56382
2.54642
2.52898
2.51148
2.4939
2.47624
2.45852
2.44077
2.42305
2.40542
2.38797
2.37076
2.35385
2.33727
2.32101
2.30499
2.28911
2.27319
2.25708
2.24062
2.22367
2.20616
2.18808
2.16954
2.15074
2.132
2.11375
2.09652
2.08084
2.06726
2.05618
2.04787
2.04232
2.0393
2.03831
2.03872
2.0398
2.04082
2.04105
2.03986
2.03671
2.03114
2.02283
2.01157
1.99725
1.97993
1.95973
1.93691
1.91181
1.88486
1.85652
1.82724
1.79751
1.76774
1.73833
1.70961
1.68183
1.6552
1.62986
1.60587
1.58327
1.56202
1.54206
1.52331
1.50565
1.48896
1.47311
1.458
1.44348
1.42945
1.41576
1.40227
1.38881
1.37521
1.36131
1.34705
1.3325
1.31811
1.30522
1.29685
1.29835
1.31704
1.36065
1.43516
1.54306
1.68288
1.8496
2.03528
2.23289
2.41687
2.68397
2.72113
2.70325
2.6854
2.66759
2.64983
2.63211
2.61443
2.59678
2.57914
2.56152
2.54389
2.52623
2.50853
2.49077
2.47297
2.45512
2.43726
2.41943
2.40166
2.38403
2.36657
2.34932
2.33232
2.31553
2.29891
2.28236
2.26577
2.249
2.23192
2.21442
2.19643
2.17794
2.159
2.13978
2.12052
2.10156
2.08332
2.06626
2.05085
2.0375
2.02649
2.01793
2.01174
2.00764
2.00519
2.00382
2.00291
2.00181
1.9999
1.99661
1.99145
1.98405
1.97415
1.96159
1.94635
1.9285
1.90823
1.88581
1.86158
1.83593
1.80927
1.782
1.75451
1.72714
1.70021
1.67395
1.64856
1.62419
1.60092
1.57879
1.55781
1.53793
1.5191
1.50124
1.48424
1.46801
1.45244
1.43741
1.4228
1.4085
1.39435
1.3802
1.3659
1.35131
1.33635
1.32101
1.30541
1.28994
1.27555
1.26417
1.25903
1.26449
1.28522
1.32503
1.38583
1.46716
1.56606
1.67987
1.79055
1.9692
2.72087
2.70292
2.685
2.66711
2.64924
2.63141
2.6136
2.59581
2.57803
2.56027
2.54249
2.5247
2.50688
2.48902
2.47113
2.45321
2.43529
2.41739
2.39954
2.38179
2.36417
2.34671
2.32941
2.31226
2.29523
2.27823
2.26118
2.24396
2.22647
2.20861
2.19034
2.17163
2.15253
2.13315
2.11369
2.09442
2.07568
2.05786
2.04137
2.02659
2.0138
2.00317
1.9947
1.98823
1.98344
1.97988
1.97703
1.97431
1.97116
1.96705
1.96152
1.95419
1.94479
1.93313
1.91915
1.90287
1.88442
1.86399
1.84187
1.81837
1.79384
1.76863
1.74308
1.71749
1.69214
1.66727
1.64306
1.61964
1.59712
1.57553
1.5549
1.53521
1.51642
1.49847
1.48128
1.46476
1.44882
1.43336
1.41826
1.40342
1.3887
1.37397
1.35909
1.34394
1.32845
1.31259
1.29641
1.28004
1.26376
1.24822
1.23458
1.22472
1.22115
1.22661
1.24348
1.27317
1.31552
1.3705
1.42722
1.53122
2.72073
2.70274
2.68477
2.66682
2.64889
2.63098
2.61308
2.5952
2.57733
2.55947
2.5416
2.52372
2.50582
2.4879
2.46996
2.452
2.43403
2.41609
2.39819
2.38036
2.36263
2.34501
2.3275
2.3101
2.29277
2.27545
2.25807
2.24054
2.22278
2.20472
2.18629
2.1675
2.14837
2.12898
2.10951
2.09016
2.07122
2.05301
2.03587
2.02014
2.0061
1.99392
1.98366
1.97523
1.96841
1.96285
1.95811
1.95372
1.94917
1.944
1.93776
1.93012
1.92078
1.90956
1.89635
1.88115
1.86403
1.84514
1.82469
1.80294
1.78018
1.75671
1.73281
1.70877
1.68483
1.66121
1.63807
1.61555
1.59374
1.57271
1.55247
1.53303
1.51435
1.49638
1.47908
1.46235
1.44613
1.43032
1.41482
1.39954
1.38435
1.36913
1.35378
1.33818
1.32228
1.30605
1.28951
1.27273
1.25582
1.23899
1.22264
1.20745
1.19449
1.18514
1.18097
1.18342
1.19333
1.21171
1.23332
1.28243
2.72062
2.7026
2.6846
2.66661
2.64862
2.63066
2.6127
2.59476
2.57682
2.55888
2.54094
2.523
2.50504
2.48707
2.46909
2.4511
2.43311
2.41513
2.39719
2.3793
2.36148
2.34374
2.32608
2.30849
2.29095
2.2734
2.25579
2.23805
2.22012
2.20193
2.18344
2.16464
2.14556
2.12626
2.10688
2.08758
2.0686
2.05021
2.03269
2.01633
2.00137
1.988
1.9763
1.96623
1.95765
1.95028
1.94379
1.93778
1.93182
1.92549
1.91841
1.91024
1.90072
1.88964
1.87689
1.86243
1.8463
1.82859
1.80947
1.78915
1.76786
1.74586
1.72339
1.70069
1.678
1.65549
1.63332
1.61163
1.5905
1.57
1.55016
1.53098
1.51245
1.49452
1.47716
1.4603
1.44387
1.42778
1.41196
1.39632
1.38074
1.36513
1.34939
1.33343
1.31721
1.30069
1.2839
1.26689
1.24971
1.23246
1.21529
1.19844
1.18229
1.16742
1.1546
1.14468
1.13846
1.13684
1.13834
1.15154
2.72052
2.70248
2.68445
2.66642
2.6484
2.63039
2.61238
2.59439
2.57639
2.5584
2.54041
2.52241
2.50441
2.4864
2.46838
2.45036
2.43234
2.41433
2.39635
2.37841
2.36052
2.34269
2.32492
2.30719
2.28948
2.27177
2.25399
2.23611
2.21807
2.19981
2.18131
2.16256
2.14357
2.12441
2.10516
2.08598
2.06706
2.0486
2.03086
2.01407
1.99845
1.98417
1.97132
1.95989
1.9498
1.94086
1.93278
1.92526
1.91794
1.91045
1.90246
1.89366
1.8838
1.87267
1.86015
1.84618
1.83076
1.81396
1.7959
1.77674
1.75667
1.7359
1.71465
1.69312
1.67151
1.64999
1.6287
1.60776
1.58727
1.56728
1.54782
1.52892
1.51055
1.4927
1.47533
1.45838
1.44179
1.4255
1.40942
1.39348
1.3776
1.36167
1.34561
1.32937
1.31288
1.29615
1.27918
1.262
1.24468
1.22727
1.20984
1.19249
1.17536
1.15868
1.14275
1.12797
1.11482
1.1037
1.09527
1.08769
2.72042
2.70237
2.68431
2.66625
2.6482
2.63015
2.61211
2.59406
2.57602
2.55798
2.53994
2.5219
2.50386
2.48581
2.46776
2.44971
2.43166
2.41362
2.39561
2.37762
2.35967
2.34177
2.3239
2.30606
2.28824
2.2704
2.25251
2.23453
2.21642
2.19813
2.17966
2.16097
2.1421
2.12308
2.10399
2.08496
2.06613
2.04769
2.02983
2.01275
1.99665
1.98166
1.96789
1.95536
1.94401
1.93371
1.92424
1.91536
1.90678
1.89818
1.88928
1.87979
1.86948
1.85817
1.84571
1.83203
1.81711
1.801
1.78376
1.76553
1.74647
1.72673
1.70652
1.68599
1.66533
1.64468
1.62417
1.60392
1.58401
1.56449
1.54541
1.52678
1.50859
1.49084
1.47348
1.45649
1.43979
1.42334
1.40706
1.39089
1.37475
1.35857
1.34226
1.32579
1.3091
1.29219
1.27508
1.2578
1.24039
1.2229
1.20538
1.18788
1.17048
1.15325
1.13633
1.11986
1.10412
1.08905
1.07642
1.0583
2.72033
2.70226
2.68418
2.6661
2.64802
2.62994
2.61186
2.59377
2.5757
2.55762
2.53954
2.52146
2.50337
2.48529
2.46721
2.44912
2.43105
2.41298
2.39493
2.3769
2.3589
2.34093
2.32299
2.30506
2.28715
2.26922
2.25125
2.2332
2.21505
2.19676
2.17832
2.15971
2.14095
2.12208
2.10316
2.08428
2.06557
2.04717
2.02926
2.01199
1.99553
1.98001
1.96551
1.95208
1.93969
1.92824
1.91757
1.90749
1.89777
1.88814
1.87835
1.86817
1.85736
1.84577
1.83325
1.81971
1.80513
1.78951
1.77291
1.75543
1.73718
1.71831
1.69896
1.67929
1.65945
1.63956
1.61975
1.60011
1.58073
1.56165
1.54292
1.52456
1.50656
1.48892
1.47161
1.45459
1.43782
1.42125
1.40482
1.38847
1.37214
1.35575
1.33924
1.32259
1.30574
1.2887
1.27149
1.25413
1.23666
1.21913
1.20157
1.18403
1.16656
1.14919
1.13199
1.115
1.0984
1.08187
1.06771
1.0449
2.72025
2.70216
2.68406
2.66596
2.64785
2.62974
2.61163
2.59352
2.5754
2.55729
2.53917
2.52105
2.50294
2.48482
2.46671
2.44859
2.43048
2.41239
2.3943
2.37623
2.35819
2.34016
2.32216
2.30417
2.28619
2.26819
2.25015
2.23206
2.21389
2.19561
2.17721
2.15868
2.14004
2.1213
2.10253
2.0838
2.06522
2.04689
2.02896
2.01156
1.99484
1.9789
1.96384
1.94968
1.93642
1.92401
1.91232
1.9012
1.89046
1.87989
1.86928
1.85841
1.8471
1.83517
1.8225
1.80899
1.79461
1.77935
1.76323
1.74633
1.72874
1.71058
1.69196
1.67302
1.65388
1.63466
1.61546
1.59637
1.57747
1.55879
1.54039
1.52228
1.50447
1.48695
1.4697
1.45269
1.43588
1.41923
1.40269
1.38621
1.36972
1.35317
1.33651
1.31972
1.30275
1.28562
1.26834
1.25092
1.23342
1.21586
1.19829
1.18075
1.16327
1.14587
1.12861
1.11148
1.09464
1.07763
1.06298
1.03832
2.72016
2.70206
2.68395
2.66582
2.64769
2.62956
2.61142
2.59328
2.57514
2.55699
2.53884
2.52069
2.50255
2.4844
2.46625
2.44811
2.42997
2.41184
2.39373
2.37562
2.35754
2.33947
2.32141
2.30337
2.28533
2.26728
2.2492
2.23108
2.2129
2.19463
2.17628
2.15782
2.13928
2.12067
2.10204
2.08345
2.06498
2.04673
2.0288
2.01133
1.99441
1.97815
1.96263
1.94788
1.93392
1.9207
1.90815
1.89613
1.88451
1.8731
1.86173
1.85022
1.83839
1.8261
1.81322
1.79967
1.78539
1.77037
1.75461
1.73816
1.7211
1.70352
1.68551
1.66719
1.64866
1.63001
1.61135
1.59275
1.57427
1.55597
1.53787
1.52001
1.50239
1.48499
1.46782
1.45084
1.43402
1.41732
1.4007
1.38411
1.36751
1.35085
1.33408
1.31718
1.30013
1.28294
1.2656
1.24816
1.23064
1.21308
1.19551
1.17798
1.1605
1.14312
1.12585
1.1087
1.0918
1.07465