/*--------------------------------*- C++ -*----------------------------------*\
  =========                 |
  \\      /  F ield         | OpenFOAM: The Open Source CFD Toolbox
   \\    /   O peration     | Website:  https://openfoam.org
    \\  /    A nd           | Version:  10
     \\/     M anipulation  |
\*---------------------------------------------------------------------------*/
FoamFile
{
    format      ascii;
    class       volScalarField;
    location    "1900";
    object      k;
}
// * * * * * * * * * * * * * * * * * * * * * * * * * * * * * * * * * * * * * //

dimensions      [0 2 -2 0 0 0 0];

internalField   nonuniform List<scalar> 
6820
(
0.19714
0.192517
0.18828
0.184033
0.179769
0.175612
0.171677
0.168043
0.164747
0.1618
0.159195
0.156912
0.154931
0.153224
0.151768
0.150537
0.149509
0.148663
0.14798
0.147441
0.147032
0.146738
0.146546
0.146445
0.146425
0.146479
0.1466
0.146775
0.146923
0.148219
0.142808
0.160993
0.148456
0.207249
0.212376
0.210056
0.205416
0.200993
0.197549
0.19514
0.193613
0.19278
0.192477
0.192576
0.192979
0.193613
0.194423
0.195369
0.196418
0.197547
0.198736
0.19997
0.201238
0.202532
0.203844
0.205171
0.206511
0.207865
0.209239
0.210639
0.212097
0.213602
0.215459
0.21657
0.219935
0.230455
0.200993
0.203847
0.204551
0.203318
0.201177
0.198803
0.196517
0.194451
0.192649
0.191114
0.189835
0.188793
0.187965
0.187329
0.186864
0.186551
0.186371
0.186309
0.186349
0.186481
0.186692
0.186974
0.187317
0.187716
0.188166
0.188664
0.189207
0.189805
0.190441
0.191226
0.192004
0.192831
0.195901
0.199593
0.199508
0.199518
0.199121
0.198258
0.197061
0.195675
0.194212
0.192747
0.191324
0.189972
0.188707
0.187536
0.186463
0.185486
0.184605
0.183813
0.183108
0.182483
0.181934
0.181455
0.181042
0.180691
0.180397
0.180157
0.179969
0.179832
0.179747
0.179714
0.179758
0.179873
0.179984
0.180444
0.199411
0.198475
0.197748
0.197076
0.196333
0.195471
0.194494
0.193431
0.192314
0.191173
0.19003
0.188902
0.187802
0.186739
0.185718
0.184744
0.183819
0.182943
0.182116
0.181338
0.180609
0.179925
0.179287
0.178693
0.178141
0.17763
0.17716
0.176733
0.176347
0.17601
0.175725
0.175477
0.175309
0.199394
0.198255
0.197227
0.19629
0.195403
0.194525
0.193631
0.192711
0.191765
0.1908
0.189824
0.188847
0.187875
0.186915
0.185973
0.185053
0.184157
0.183289
0.182449
0.181639
0.18086
0.180111
0.179393
0.178706
0.178049
0.177422
0.176826
0.17626
0.175726
0.175226
0.174762
0.174334
0.173945
0.199394
0.198216
0.197096
0.196039
0.195039
0.194082
0.193155
0.192245
0.191343
0.190446
0.189552
0.188664
0.187782
0.186908
0.186046
0.185197
0.184364
0.183548
0.18275
0.181972
0.181215
0.180478
0.179763
0.17907
0.178399
0.177749
0.177123
0.176519
0.175939
0.175384
0.174854
0.174352
0.173877
0.199395
0.19821
0.197068
0.19597
0.194919
0.193911
0.192942
0.192005
0.191094
0.190206
0.189336
0.188482
0.187642
0.186816
0.186005
0.185207
0.184424
0.183655
0.182902
0.182165
0.181445
0.180741
0.180053
0.179383
0.17873
0.178095
0.177477
0.176877
0.176296
0.175734
0.175192
0.174671
0.174172
0.199395
0.198209
0.197062
0.195954
0.194885
0.193855
0.192861
0.191902
0.190975
0.190076
0.189204
0.188355
0.187527
0.18672
0.18593
0.185159
0.184404
0.183666
0.182944
0.182238
0.181548
0.180873
0.180214
0.17957
0.178941
0.178328
0.17773
0.177147
0.176581
0.176031
0.175497
0.174981
0.174484
0.199395
0.198209
0.197061
0.195951
0.194877
0.193839
0.192835
0.191865
0.190926
0.190018
0.189138
0.188285
0.187456
0.186651
0.185868
0.185106
0.184363
0.18364
0.182934
0.182245
0.181573
0.180918
0.180278
0.179653
0.179044
0.17845
0.17787
0.177305
0.176755
0.17622
0.1757
0.175196
0.174709
0.199395
0.198209
0.197061
0.19595
0.194875
0.193834
0.192827
0.191852
0.190909
0.189995
0.18911
0.188252
0.18742
0.186613
0.185829
0.185068
0.184329
0.18361
0.18291
0.182229
0.181566
0.18092
0.180291
0.179678
0.179081
0.178499
0.177932
0.17738
0.176842
0.176319
0.175811
0.175318
0.17484
0.199395
0.198209
0.19706
0.195949
0.194874
0.193832
0.192824
0.191848
0.190903
0.189986
0.189099
0.188238
0.187404
0.186594
0.185809
0.185047
0.184307
0.183589
0.18289
0.182211
0.181552
0.18091
0.180285
0.179678
0.179086
0.178511
0.177951
0.177406
0.176876
0.176361
0.17586
0.175374
0.174903
0.199395
0.198209
0.19706
0.195949
0.194873
0.193832
0.192823
0.191846
0.1909
0.189983
0.189094
0.188232
0.187397
0.186586
0.1858
0.185036
0.184296
0.183576
0.182878
0.182199
0.18154
0.180899
0.180276
0.17967
0.179081
0.178509
0.177952
0.17741
0.176884
0.176373
0.175876
0.175394
0.174926
0.199395
0.198209
0.19706
0.195949
0.194873
0.193831
0.192823
0.191845
0.190899
0.189981
0.189092
0.18823
0.187394
0.186582
0.185795
0.185031
0.18429
0.18357
0.182871
0.182192
0.181533
0.180892
0.180269
0.179664
0.179076
0.178504
0.177948
0.177408
0.176883
0.176373
0.175878
0.175397
0.174931
0.199395
0.198208
0.19706
0.195948
0.194872
0.193831
0.192822
0.191845
0.190898
0.18998
0.189091
0.188228
0.187392
0.18658
0.185793
0.185029
0.184287
0.183567
0.182867
0.182188
0.181528
0.180887
0.180264
0.179659
0.179071
0.1785
0.177944
0.177404
0.17688
0.17637
0.175875
0.175395
0.174928
0.199395
0.198208
0.19706
0.195948
0.194872
0.19383
0.192821
0.191844
0.190897
0.189979
0.18909
0.188227
0.18739
0.186579
0.185791
0.185027
0.184285
0.183565
0.182865
0.182186
0.181526
0.180885
0.180262
0.179656
0.179068
0.178497
0.177941
0.177401
0.176877
0.176367
0.175872
0.175391
0.174924
0.199395
0.198208
0.19706
0.195948
0.194872
0.19383
0.192821
0.191844
0.190897
0.189979
0.189089
0.188226
0.187389
0.186578
0.18579
0.185025
0.184283
0.183563
0.182863
0.182184
0.181524
0.180883
0.18026
0.179655
0.179066
0.178495
0.177939
0.177399
0.176874
0.176365
0.175869
0.175388
0.17492
0.199395
0.198208
0.19706
0.195948
0.194872
0.19383
0.192821
0.191843
0.190896
0.189978
0.189088
0.188225
0.187388
0.186577
0.185789
0.185024
0.184282
0.183562
0.182862
0.182183
0.181523
0.180881
0.180258
0.179653
0.179065
0.178493
0.177937
0.177397
0.176872
0.176362
0.175867
0.175385
0.174917
0.199395
0.198208
0.197059
0.195948
0.194871
0.193829
0.19282
0.191843
0.190895
0.189977
0.189087
0.188225
0.187388
0.186576
0.185788
0.185023
0.184281
0.183561
0.182861
0.182181
0.181521
0.18088
0.180257
0.179652
0.179063
0.178492
0.177936
0.177396
0.176871
0.17636
0.175864
0.175382
0.174913
0.199395
0.198208
0.197059
0.195948
0.194871
0.193829
0.19282
0.191842
0.190895
0.189977
0.189087
0.188224
0.187387
0.186575
0.185787
0.185022
0.18428
0.18356
0.18286
0.18218
0.18152
0.180879
0.180256
0.179651
0.179062
0.17849
0.177934
0.177394
0.176869
0.176358
0.175862
0.175379
0.17491
0.199395
0.198208
0.197059
0.195947
0.194871
0.193829
0.19282
0.191842
0.190895
0.189977
0.189086
0.188223
0.187386
0.186574
0.185786
0.185022
0.184279
0.183559
0.182859
0.182179
0.181519
0.180878
0.180255
0.179649
0.179061
0.178489
0.177933
0.177393
0.176867
0.176356
0.175859
0.175376
0.174907
0.199395
0.198208
0.197059
0.195947
0.194871
0.193829
0.19282
0.191842
0.190894
0.189976
0.189086
0.188223
0.187386
0.186574
0.185786
0.185021
0.184279
0.183558
0.182858
0.182179
0.181519
0.180877
0.180254
0.179648
0.17906
0.178488
0.177932
0.177391
0.176865
0.176354
0.175857
0.175374
0.174903
0.199395
0.198208
0.197059
0.195947
0.194871
0.193829
0.192819
0.191842
0.190894
0.189976
0.189086
0.188222
0.187385
0.186573
0.185785
0.18502
0.184278
0.183557
0.182858
0.182178
0.181518
0.180876
0.180253
0.179647
0.179059
0.178487
0.17793
0.17739
0.176864
0.176352
0.175855
0.175371
0.1749
0.199395
0.198208
0.197059
0.195947
0.194871
0.193829
0.192819
0.191841
0.190894
0.189976
0.189085
0.188222
0.187385
0.186573
0.185785
0.18502
0.184278
0.183557
0.182857
0.182177
0.181517
0.180876
0.180252
0.179647
0.179058
0.178486
0.177929
0.177388
0.176862
0.17635
0.175853
0.175369
0.174898
0.199395
0.198208
0.197059
0.195947
0.194871
0.193829
0.192819
0.191841
0.190894
0.189975
0.189085
0.188222
0.187385
0.186572
0.185784
0.185019
0.184277
0.183556
0.182856
0.182177
0.181516
0.180875
0.180252
0.179646
0.179057
0.178484
0.177928
0.177387
0.176861
0.176349
0.175851
0.175366
0.174895
0.199395
0.198208
0.197059
0.195947
0.194871
0.193828
0.192819
0.191841
0.190894
0.189975
0.189085
0.188222
0.187384
0.186572
0.185784
0.185019
0.184277
0.183556
0.182856
0.182176
0.181516
0.180874
0.180251
0.179645
0.179056
0.178483
0.177927
0.177385
0.176859
0.176347
0.175849
0.175364
0.174892
0.199395
0.198208
0.197059
0.195947
0.194871
0.193828
0.192819
0.191841
0.190893
0.189975
0.189085
0.188221
0.187384
0.186572
0.185784
0.185019
0.184276
0.183556
0.182856
0.182176
0.181515
0.180874
0.18025
0.179644
0.179055
0.178483
0.177926
0.177384
0.176858
0.176345
0.175847
0.175362
0.17489
0.199395
0.198208
0.197059
0.195947
0.194871
0.193828
0.192819
0.191841
0.190893
0.189975
0.189085
0.188221
0.187384
0.186572
0.185784
0.185019
0.184276
0.183555
0.182855
0.182175
0.181515
0.180873
0.18025
0.179644
0.179055
0.178482
0.177925
0.177383
0.176856
0.176344
0.175845
0.17536
0.174888
0.199395
0.198208
0.197059
0.195947
0.194871
0.193828
0.192819
0.191841
0.190893
0.189975
0.189085
0.188221
0.187384
0.186572
0.185783
0.185019
0.184276
0.183555
0.182855
0.182175
0.181515
0.180873
0.180249
0.179643
0.179054
0.178481
0.177924
0.177382
0.176855
0.176342
0.175844
0.175358
0.174886
0.199395
0.198208
0.197059
0.195947
0.194871
0.193828
0.192819
0.191841
0.190893
0.189975
0.189085
0.188221
0.187384
0.186572
0.185783
0.185019
0.184276
0.183555
0.182855
0.182175
0.181515
0.180873
0.180249
0.179643
0.179054
0.178481
0.177923
0.177382
0.176854
0.176341
0.175842
0.175357
0.174884
0.199395
0.198208
0.197059
0.195947
0.194871
0.193828
0.192819
0.191841
0.190893
0.189975
0.189085
0.188221
0.187384
0.186572
0.185784
0.185019
0.184276
0.183555
0.182855
0.182175
0.181515
0.180873
0.180249
0.179643
0.179053
0.17848
0.177923
0.177381
0.176854
0.176341
0.175841
0.175356
0.174883
0.199395
0.198208
0.197059
0.195947
0.194871
0.193828
0.192819
0.191841
0.190893
0.189975
0.189085
0.188222
0.187384
0.186572
0.185784
0.185019
0.184277
0.183556
0.182856
0.182176
0.181515
0.180873
0.18025
0.179643
0.179054
0.178481
0.177923
0.177381
0.176854
0.176341
0.175841
0.175355
0.174882
0.199395
0.198208
0.197059
0.195947
0.194871
0.193828
0.192819
0.191841
0.190894
0.189975
0.189085
0.188222
0.187385
0.186573
0.185785
0.18502
0.184278
0.183557
0.182857
0.182177
0.181516
0.180875
0.180251
0.179644
0.179055
0.178481
0.177924
0.177381
0.176853
0.17634
0.17584
0.175353
0.17488
0.199395
0.198208
0.197059
0.195947
0.194871
0.193829
0.19282
0.191842
0.190895
0.189978
0.189088
0.188226
0.187389
0.186578
0.18579
0.185026
0.184283
0.183563
0.182863
0.182183
0.181522
0.180879
0.180255
0.179648
0.179057
0.178482
0.177923
0.177379
0.17685
0.176334
0.175832
0.175344
0.174868
0.199395
0.198208
0.197059
0.195948
0.194872
0.193831
0.192824
0.191848
0.190902
0.189986
0.189097
0.188235
0.1874
0.186588
0.185801
0.185036
0.184293
0.183571
0.182869
0.182186
0.181522
0.180877
0.180249
0.179637
0.179042
0.178463
0.177898
0.177349
0.176813
0.176292
0.175783
0.175288
0.174805
0.199395
0.198209
0.197062
0.195955
0.194886
0.193853
0.192854
0.191885
0.190945
0.190032
0.189146
0.188284
0.187446
0.186631
0.185838
0.185066
0.184314
0.183582
0.182869
0.182175
0.181498
0.180839
0.180196
0.17957
0.178959
0.178363
0.177782
0.177216
0.176663
0.176124
0.175597
0.175084
0.174583
0.199395
0.198223
0.197107
0.196032
0.194988
0.19397
0.192977
0.192007
0.19106
0.190136
0.189233
0.188352
0.187492
0.186652
0.185833
0.185034
0.184254
0.183493
0.18275
0.182025
0.181317
0.180626
0.179951
0.179292
0.178649
0.178021
0.177407
0.176808
0.176222
0.17565
0.175091
0.174544
0.174011
0.19941
0.198319
0.197296
0.1963
0.19531
0.194318
0.193328
0.192345
0.191373
0.190417
0.189479
0.188561
0.187665
0.186789
0.185936
0.185103
0.184291
0.183499
0.182726
0.181972
0.181236
0.180518
0.179817
0.179132
0.178463
0.17781
0.177172
0.176549
0.175939
0.175344
0.174762
0.174194
0.173638
0.199716
0.19914
0.19847
0.197765
0.197073
0.19642
0.195813
0.195252
0.194735
0.194261
0.19383
0.193438
0.193084
0.192767
0.192484
0.192233
0.192013
0.19182
0.191655
0.191513
0.191395
0.191297
0.19122
0.19116
0.191117
0.19109
0.191077
0.191078
0.191091
0.191115
0.19115
0.191195
0.191249
0.205424
0.216593
0.22763
0.238435
0.248976
0.259243
0.269229
0.278926
0.288326
0.297423
0.306216
0.3147
0.322877
0.330747
0.338313
0.345578
0.352548
0.359228
0.365624
0.371744
0.377595
0.383184
0.38852
0.393612
0.398468
0.403096
0.407505
0.411703
0.415699
0.419502
0.423118
0.426556
0.429828
0.00489588
0.576979
1.60653
2.20837
2.35912
2.33817
2.31186
2.32062
2.3461
2.36533
2.36519
2.34057
2.29381
2.23268
2.1668
2.1047
2.05242
2.01307
1.98666
1.97037
1.95915
1.9467
1.92645
1.89243
1.84028
1.76861
1.68044
1.58363
1.49002
1.41364
1.36841
1.36581
1.41211
1.50537
1.63412
1.77971
1.92189
2.04443
2.13789
2.19896
2.22814
2.22721
2.19791
2.1418
2.06061
1.95681
1.834
1.69723
1.55294
1.40872
1.27281
1.15353
1.05864
0.99442
0.964401
0.96785
0.999147
1.04884
1.10608
1.16115
1.20691
1.23914
1.25605
1.25759
1.24481
1.21934
1.18308
1.138
1.08604
1.02908
0.968864
0.907043
0.845149
0.7846
0.726704
0.67267
0.623627
0.580676
0.545078
0.51894
0.50684
0.517136
0.55871
0.632369
0.726887
0.825761
0.915905
0.990645
1.04833
1.09004
1.1179
1.13425
1.14123
1.14066
1.13405
1.12259
1.1073
1.08862
1.06887
1.03458
0.214588
0.193434
0.402467
0.810073
1.15471
1.34177
1.42552
1.48155
1.54992
1.62698
1.68984
1.72408
1.73195
1.72256
1.70532
1.6878
1.67529
1.67069
1.67418
1.68312
1.69236
1.69519
1.68452
1.65437
1.60123
1.52547
1.43219
1.33084
1.23389
1.15497
1.10736
1.10253
1.1479
1.24356
1.37979
1.53819
1.69692
1.83705
1.94631
2.01937
2.05565
2.0568
2.02509
1.96305
1.87362
1.76044
1.62822
1.48286
1.33133
1.18137
1.04098
0.91781
0.81866
0.74901
0.712328
0.708875
0.734606
0.781395
0.83894
0.897285
0.948632
0.987984
1.0129
1.02286
1.01863
1.00168
0.973867
0.937183
0.893618
0.845088
0.793404
0.740243
0.687144
0.6355
0.586557
0.541424
0.501085
0.466451
0.438522
0.419029
0.41207
0.425743
0.469323
0.544515
0.640853
0.742148
0.835299
0.913467
0.974809
1.02023
1.05172
1.07154
1.08174
1.08412
1.08018
1.07108
1.05786
1.04096
1.02279
0.989988
0.196763
0.184362
0.18863
0.258772
0.384099
0.508537
0.597269
0.650458
0.687007
0.727135
0.782086
0.850814
0.922668
0.988199
1.04414
1.09221
1.13602
1.17866
1.22134
1.26267
1.29857
1.32292
1.32902
1.31136
1.26751
1.19939
1.11354
1.02002
0.930582
0.857031
0.810623
0.802059
0.840442
0.929876
1.06515
1.23049
1.40358
1.56256
1.69142
1.78171
1.83098
1.84031
1.81239
1.75069
1.65932
1.54313
1.40789
1.26037
1.1082
0.959485
0.822024
0.702542
0.606104
0.536126
0.494681
0.482338
0.497175
0.533937
0.58459
0.640166
0.692726
0.736513
0.768176
0.786399
0.791333
0.784067
0.766215
0.739639
0.706271
0.668005
0.626636
0.583821
0.541056
0.499658
0.46076
0.425313
0.394101
0.367791
0.347055
0.333075
0.329057
0.342272
0.382444
0.453392
0.546905
0.64776
0.742625
0.823978
0.889322
0.93908
0.974948
0.998974
1.01313
1.01914
1.01848
1.01232
1.00171
0.987082
0.970942
0.940274
0.181347
0.17979
0.176495
0.180245
0.198244
0.228088
0.260216
0.285438
0.301041
0.310819
0.321085
0.338162
0.367101
0.409339
0.462684
0.523267
0.587557
0.653122
0.718092
0.780002
0.834828
0.876923
0.900094
0.899493
0.873563
0.825132
0.761055
0.690512
0.622881
0.566377
0.528248
0.516264
0.539844
0.608125
0.724173
0.879506
1.05467
1.22597
1.37302
1.48283
1.54978
1.57338
1.55602
1.50177
1.41569
1.30377
1.17297
1.03121
0.887148
0.74944
0.625622
0.521028
0.438298
0.377849
0.339036
0.321192
0.323578
0.344277
0.379254
0.422615
0.467861
0.509275
0.542753
0.565991
0.578223
0.579808
0.571837
0.555811
0.533422
0.506395
0.476395
0.44496
0.413456
0.383049
0.354693
0.329134
0.306928
0.2885
0.274223
0.26475
0.262186
0.272311
0.304657
0.36569
0.450969
0.54735
0.641466
0.72478
0.793718
0.847891
0.888471
0.917186
0.935824
0.94602
0.949193
0.946507
0.939011
0.927164
0.913493
0.885658
0.175295
0.175055
0.174079
0.17325
0.174498
0.17899
0.186108
0.193694
0.199469
0.202684
0.204371
0.206211
0.210148
0.218257
0.232252
0.253212
0.281423
0.316386
0.356813
0.400387
0.4434
0.48075
0.506801
0.517052
0.50985
0.487152
0.453856
0.41611
0.379572
0.348488
0.325933
0.31523
0.322179
0.35649
0.429178
0.544733
0.694228
0.857109
1.00982
1.13374
1.2182
1.25933
1.25792
1.21768
1.14419
1.04447
0.926826
0.800624
0.675536
0.560289
0.461238
0.381489
0.321035
0.277791
0.249035
0.232673
0.227751
0.233953
0.250484
0.27525
0.304869
0.335356
0.363006
0.385042
0.399853
0.40691
0.406525
0.399578
0.387277
0.370974
0.352027
0.331706
0.311132
0.291233
0.272734
0.256162
0.241882
0.230141
0.221132
0.215156
0.213341
0.219548
0.24187
0.288659
0.360203
0.447045
0.536655
0.619527
0.690704
0.748654
0.793764
0.827267
0.850656
0.865398
0.872824
0.874059
0.87014
0.86154
0.850761
0.826457
0.173554
0.173144
0.172619
0.171961
0.171488
0.171659
0.172681
0.174283
0.175825
0.176763
0.177044
0.17701
0.177225
0.178357
0.181034
0.185798
0.193094
0.203239
0.216317
0.231966
0.249073
0.265607
0.278907
0.286502
0.287105
0.281126
0.270394
0.257352
0.244249
0.232724
0.223837
0.218525
0.218578
0.228254
0.255748
0.311777
0.40257
0.521914
0.651661
0.770519
0.862047
0.916997
0.932463
0.910304
0.855743
0.776467
0.681925
0.58235
0.487283
0.403944
0.336186
0.284528
0.247122
0.221055
0.203458
0.192224
0.186294
0.185512
0.190054
0.199745
0.213648
0.23008
0.246937
0.262163
0.274131
0.281853
0.284992
0.283756
0.278736
0.270746
0.260682
0.249421
0.237744
0.226296
0.215573
0.205928
0.197597
0.190741
0.185482
0.181961
0.180677
0.183736
0.19678
0.228042
0.281908
0.354023
0.434338
0.513128
0.584084
0.644285
0.693061
0.73094
0.758971
0.778347
0.790241
0.795697
0.795706
0.790747
0.783225
0.763101
0.173358
0.1728
0.172244
0.17165
0.171043
0.170538
0.170252
0.170189
0.170204
0.170109
0.169813
0.169372
0.168961
0.16881
0.169145
0.170157
0.171995
0.174756
0.178469
0.183042
0.18818
0.19333
0.197728
0.200615
0.201519
0.200435
0.197782
0.194205
0.190351
0.18674
0.18375
0.181705
0.181114
0.183156
0.190525
0.208291
0.243431
0.300866
0.377533
0.461412
0.536997
0.591211
0.616521
0.611387
0.579272
0.527238
0.464305
0.399547
0.340253
0.29076
0.252382
0.224216
0.204266
0.19035
0.180628
0.173811
0.169208
0.166663
0.16636
0.168514
0.173078
0.179596
0.187254
0.195039
0.201959
0.207219
0.210339
0.211166
0.209834
0.206678
0.202146
0.19672
0.190853
0.184934
0.179271
0.174091
0.169556
0.16578
0.162858
0.160873
0.160019
0.161234
0.167715
0.185725
0.221384
0.275267
0.341492
0.411688
0.478868
0.538782
0.58953
0.630718
0.662771
0.68648
0.702764
0.712514
0.716631
0.715575
0.711571
0.696178
0.173614
0.173001
0.1724
0.171795
0.171181
0.170577
0.17002
0.169528
0.169074
0.168599
0.16806
0.167462
0.166858
0.166336
0.165991
0.165909
0.166153
0.166756
0.167719
0.168994
0.170472
0.171977
0.173283
0.174173
0.174502
0.174244
0.173484
0.172376
0.171092
0.16979
0.168605
0.16767
0.167179
0.167507
0.169457
0.174577
0.185372
0.204877
0.234927
0.273698
0.314906
0.349916
0.371245
0.375181
0.362495
0.337488
0.306129
0.274084
0.245355
0.221877
0.203892
0.190655
0.181064
0.174056
0.168783
0.16466
0.161361
0.158797
0.157066
0.156351
0.156783
0.158333
0.160769
0.163699
0.166657
0.169197
0.170975
0.171792
0.171599
0.170473
0.16858
0.166133
0.163352
0.160443
0.157578
0.154893
0.152493
0.150457
0.148856
0.147745
0.147198
0.147561
0.150321
0.15927
0.179824
0.215396
0.264524
0.321832
0.381056
0.437244
0.487375
0.530032
0.564857
0.59209
0.61228
0.626082
0.634235
0.637144
0.636763
0.626484
0.173924
0.1733
0.172685
0.172074
0.171462
0.170848
0.170241
0.16965
0.16907
0.168484
0.167872
0.167229
0.166569
0.165924
0.165338
0.164852
0.164503
0.164315
0.164293
0.16442
0.164658
0.164941
0.165192
0.165338
0.165327
0.165137
0.164779
0.16428
0.16368
0.163022
0.162353
0.161735
0.161257
0.161075
0.161479
0.162978
0.166345
0.172553
0.182432
0.195979
0.211689
0.22659
0.237283
0.241409
0.238581
0.230269
0.218902
0.206846
0.195763
0.18646
0.179074
0.173358
0.168914
0.16535
0.162348
0.159685
0.157243
0.154993
0.152996
0.151363
0.150216
0.149626
0.149579
0.149964
0.1506
0.151276
0.151801
0.152028
0.151878
0.151336
0.150439
0.14926
0.14789
0.146423
0.144945
0.143531
0.142239
0.14112
0.140217
0.139568
0.139202
0.139223
0.140204
0.144025
0.154293
0.174852
0.207136
0.249163
0.296762
0.345459
0.391711
0.433248
0.468896
0.498243
0.521357
0.538553
0.550336
0.556995
0.560121
0.555091
0.174158
0.173541
0.172929
0.172321
0.171714
0.171106
0.170497
0.169891
0.169286
0.168676
0.168053
0.16741
0.166748
0.166078
0.165417
0.164787
0.164209
0.163702
0.163277
0.162937
0.162672
0.162462
0.162279
0.162094
0.161883
0.161628
0.161317
0.160945
0.16051
0.160016
0.159479
0.158926
0.158405
0.157996
0.157828
0.158098
0.159078
0.161083
0.164366
0.168927
0.174338
0.179708
0.183939
0.186155
0.186064
0.183997
0.18067
0.176848
0.173113
0.16978
0.166937
0.164524
0.162414
0.160474
0.158596
0.15671
0.154787
0.152838
0.150907
0.149069
0.147408
0.145999
0.144886
0.144066
0.143492
0.143085
0.142755
0.142417
0.14201
0.141497
0.140869
0.14014
0.139337
0.138495
0.13765
0.136836
0.136082
0.135415
0.134858
0.134431
0.134146
0.134025
0.134247
0.135586
0.139963
0.150268
0.168895
0.196237
0.230535
0.268809
0.307937
0.34536
0.379315
0.408776
0.433281
0.452737
0.46733
0.477177
0.483412
0.483429
0.174299
0.173692
0.173087
0.172486
0.171886
0.171285
0.170684
0.170081
0.169476
0.168867
0.168249
0.167617
0.166968
0.166306
0.165636
0.164969
0.164316
0.163692
0.163108
0.162572
0.162089
0.161656
0.161265
0.160904
0.160559
0.160215
0.159856
0.159468
0.159037
0.158556
0.158026
0.157458
0.15688
0.15634
0.155906
0.155671
0.155752
0.156267
0.157303
0.15885
0.160755
0.162728
0.164414
0.165517
0.165909
0.165646
0.164914
0.163928
0.162858
0.161798
0.160768
0.159737
0.158656
0.157478
0.156167
0.154709
0.153111
0.151399
0.149615
0.147813
0.146053
0.144396
0.14289
0.141563
0.140422
0.13945
0.138615
0.137879
0.137203
0.136559
0.135928
0.135301
0.134678
0.134066
0.133473
0.132911
0.132391
0.131921
0.131512
0.131171
0.130901
0.130699
0.130604
0.13088
0.132367
0.136729
0.146028
0.16166
0.183606
0.210539
0.240423
0.271113
0.300762
0.327996
0.351922
0.372043
0.388196
0.400276
0.408899
0.413341
0.174369
0.173769
0.173171
0.172575
0.171979
0.171384
0.170788
0.170191
0.16959
0.168986
0.168375
0.167753
0.167119
0.166471
0.165812
0.165147
0.164482
0.163826
0.163189
0.16258
0.162006
0.161471
0.160974
0.160512
0.160074
0.159649
0.159222
0.158778
0.158303
0.157786
0.157223
0.156618
0.155988
0.155363
0.154784
0.154308
0.153998
0.153913
0.154092
0.154534
0.155183
0.155936
0.15667
0.157278
0.157702
0.157936
0.158012
0.157971
0.157838
0.157616
0.157288
0.156826
0.156198
0.155384
0.154374
0.153171
0.151795
0.150274
0.148646
0.146956
0.145251
0.143578
0.141979
0.140488
0.139124
0.137897
0.136804
0.135831
0.134963
0.134181
0.133469
0.132814
0.132208
0.131645
0.131122
0.130637
0.130191
0.129784
0.129415
0.129085
0.128789
0.128519
0.128272
0.128118
0.128363
0.129779
0.133643
0.141333
0.153658
0.170494
0.19092
0.213577
0.23701
0.259904
0.281205
0.300156
0.316298
0.329312
0.339286
0.347079
0.174397
0.1738
0.173205
0.172611
0.172018
0.171425
0.170831
0.170236
0.169639
0.169038
0.168431
0.167817
0.167192
0.166557
0.165912
0.165258
0.164601
0.163945
0.163298
0.162667
0.162059
0.161479
0.160929
0.160406
0.159905
0.159417
0.158929
0.158428
0.157902
0.15734
0.156737
0.156095
0.155423
0.154741
0.154079
0.153474
0.152972
0.152611
0.152422
0.152412
0.152564
0.152839
0.153189
0.153568
0.153942
0.15429
0.154596
0.154845
0.155016
0.155081
0.15501
0.154772
0.154344
0.153714
0.152879
0.151846
0.150636
0.149275
0.147798
0.146241
0.144643
0.143044
0.141478
0.139976
0.138562
0.137251
0.136051
0.134964
0.133984
0.133103
0.13231
0.131596
0.130951
0.130365
0.12983
0.129341
0.128892
0.128478
0.128094
0.127735
0.127393
0.127057
0.126715
0.126375
0.126129
0.126277
0.127437
0.130516
0.136408
0.145603
0.15799
0.172959
0.189615
0.20698
0.224131
0.240281
0.254834
0.267337
0.277443
0.287127
0.174402
0.173807
0.173212
0.172618
0.172025
0.171431
0.170837
0.170242
0.169645
0.169045
0.16844
0.167829
0.16721
0.166583
0.165948
0.165306
0.164659
0.164012
0.163368
0.162735
0.162116
0.161516
0.160937
0.160379
0.159836
0.159302
0.158766
0.158219
0.157649
0.157048
0.156412
0.155739
0.155038
0.15432
0.153609
0.152934
0.152327
0.151824
0.151451
0.151224
0.151144
0.151197
0.151361
0.151608
0.151913
0.152247
0.152581
0.152885
0.153123
0.153261
0.153266
0.15311
0.152773
0.152245
0.151524
0.150618
0.149543
0.148322
0.146985
0.145562
0.144088
0.142593
0.141109
0.139663
0.138276
0.136966
0.135745
0.134619
0.133588
0.132652
0.131804
0.131037
0.130342
0.129713
0.129139
0.128614
0.12813
0.127679
0.127254
0.126847
0.12645
0.12605
0.125635
0.125195
0.124753
0.124404
0.124401
0.125199
0.127407
0.131601
0.138095
0.146827
0.157407
0.16925
0.181702
0.194119
0.205939
0.216702
0.225804
0.235791
0.1744
0.173804
0.173208
0.172613
0.172017
0.171422
0.170826
0.170228
0.169629
0.169027
0.168422
0.167812
0.167196
0.166574
0.165945
0.16531
0.164672
0.164032
0.163394
0.162763
0.16214
0.161531
0.160936
0.160355
0.159783
0.159216
0.158646
0.158064
0.157462
0.156833
0.156173
0.15548
0.15476
0.154022
0.153285
0.152569
0.151904
0.151318
0.150839
0.150485
0.150268
0.150184
0.150223
0.150365
0.150585
0.150856
0.151143
0.151414
0.151631
0.151761
0.151773
0.151641
0.151349
0.150885
0.150248
0.149443
0.148483
0.147387
0.146178
0.144884
0.143532
0.14215
0.140764
0.139398
0.138072
0.136803
0.135603
0.13448
0.133439
0.13248
0.131601
0.130797
0.130063
0.129392
0.128776
0.128207
0.127677
0.12718
0.126706
0.126247
0.125794
0.125335
0.124857
0.12435
0.123814
0.123275
0.12282
0.122641
0.12305
0.124444
0.127192
0.131507
0.137369
0.144543
0.152653
0.161259
0.169919
0.178256
0.185601
0.194551
0.174395
0.173798
0.173201
0.172603
0.172005
0.171407
0.170808
0.170207
0.169605
0.169001
0.168394
0.167783
0.167167
0.166547
0.165921
0.165291
0.164657
0.164023
0.163389
0.162759
0.162135
0.16152
0.160914
0.160316
0.159724
0.159134
0.158539
0.157933
0.157308
0.15666
0.155984
0.155279
0.15455
0.153804
0.153054
0.152318
0.15162
0.150984
0.150435
0.149995
0.149677
0.149486
0.149417
0.149455
0.14958
0.149763
0.149973
0.150177
0.15034
0.150432
0.150424
0.150294
0.150024
0.149605
0.149034
0.148313
0.147452
0.146467
0.145375
0.144199
0.142964
0.141691
0.140405
0.139126
0.137873
0.136661
0.135503
0.134406
0.133376
0.132415
0.131524
0.1307
0.129939
0.129234
0.128581
0.127971
0.127399
0.126855
0.126333
0.125824
0.125319
0.124806
0.124275
0.123715
0.123121
0.122499
0.121875
0.121319
0.120965
0.121019
0.12173
0.123337
0.125985
0.129683
0.1343
0.139601
0.145293
0.151108
0.156442
0.163564
0.17439
0.173792
0.173193
0.172593
0.171992
0.171391
0.170789
0.170185
0.16958
0.168973
0.168363
0.16775
0.167134
0.166513
0.165889
0.165261
0.16463
0.163998
0.163366
0.162736
0.16211
0.16149
0.160875
0.160265
0.159659
0.159051
0.158439
0.157815
0.157175
0.156514
0.155829
0.15512
0.154388
0.15364
0.152887
0.152143
0.151427
0.15076
0.150165
0.149661
0.149263
0.14898
0.148811
0.148746
0.148767
0.148852
0.148972
0.149095
0.149192
0.149234
0.149195
0.149054
0.148795
0.148408
0.147889
0.147238
0.146462
0.145572
0.144584
0.143515
0.142385
0.141215
0.140025
0.138832
0.137654
0.136504
0.135395
0.134334
0.133327
0.132378
0.131488
0.130655
0.129876
0.129148
0.128466
0.127823
0.127213
0.126629
0.126064
0.125509
0.124957
0.124397
0.12382
0.123216
0.12258
0.121911
0.121217
0.120522
0.119876
0.119368
0.119128
0.119313
0.12007
0.121501
0.123629
0.126387
0.129633
0.133215
0.136662
0.141712
0.174386
0.173786
0.173185
0.172584
0.171981
0.171377
0.170772
0.170165
0.169557
0.168947
0.168335
0.16772
0.167101
0.16648
0.165855
0.165228
0.164598
0.163966
0.163335
0.162704
0.162076
0.16145
0.160829
0.160209
0.159591
0.158971
0.158345
0.157709
0.157059
0.15639
0.155701
0.154991
0.154261
0.153516
0.152765
0.15202
0.151297
0.150612
0.149984
0.149433
0.148971
0.14861
0.14835
0.148187
0.148107
0.148091
0.148116
0.148154
0.148179
0.148165
0.148087
0.147928
0.14767
0.147304
0.146824
0.14623
0.145524
0.144716
0.143817
0.142842
0.141808
0.14073
0.139628
0.138516
0.13741
0.136322
0.135264
0.134243
0.133265
0.132334
0.131452
0.130618
0.129831
0.129088
0.128384
0.127714
0.127073
0.126455
0.125853
0.125259
0.124666
0.124066
0.123449
0.122808
0.122138
0.121437
0.120706
0.119955
0.119201
0.11848
0.117848
0.117385
0.117186
0.117343
0.117924
0.118955
0.120404
0.122219
0.124099
0.127198
0.174382
0.173781
0.173179
0.172575
0.17197
0.171364
0.170757
0.170148
0.169537
0.168924
0.168309
0.167692
0.167072
0.166449
0.165824
0.165195
0.164565
0.163933
0.163301
0.162669
0.162038
0.161408
0.16078
0.160153
0.159526
0.158896
0.15826
0.157616
0.156959
0.156286
0.155595
0.154886
0.154161
0.153422
0.152677
0.151936
0.15121
0.150515
0.149866
0.149279
0.148768
0.148341
0.148003
0.147752
0.147578
0.147467
0.147399
0.147352
0.147303
0.147229
0.147108
0.146923
0.146658
0.146303
0.145851
0.145299
0.14465
0.14391
0.143087
0.142192
0.141241
0.140246
0.139222
0.138184
0.137145
0.136117
0.135108
0.134127
0.133181
0.132272
0.131402
0.130573
0.129783
0.12903
0.128311
0.127621
0.126955
0.126308
0.125675
0.125048
0.12442
0.123785
0.123134
0.122461
0.121763
0.121036
0.120281
0.119502
0.118706
0.117906
0.117126
0.1164
0.115777
0.115314
0.115065
0.115076
0.115367
0.115943
0.116662
0.118129
0.174378
0.173776
0.173172
0.172567
0.171961
0.171353
0.170743
0.170132
0.169519
0.168904
0.168287
0.167667
0.167045
0.166421
0.165794
0.165165
0.164534
0.163902
0.163268
0.162634
0.162
0.161367
0.160734
0.160101
0.159466
0.158829
0.158186
0.157535
0.156873
0.156198
0.155508
0.154802
0.154082
0.153351
0.152614
0.151878
0.151154
0.150455
0.149792
0.14918
0.148629
0.14815
0.147747
0.14742
0.147163
0.146965
0.146811
0.146683
0.146562
0.146427
0.146259
0.146043
0.145763
0.145409
0.144974
0.144453
0.143848
0.143162
0.142401
0.141575
0.140694
0.13977
0.138817
0.137845
0.136867
0.135892
0.134931
0.133989
0.133074
0.132188
0.131334
0.130513
0.129724
0.128965
0.128235
0.127529
0.126843
0.126173
0.125514
0.124858
0.124202
0.123536
0.122856
0.122157
0.121433
0.120685
0.119911
0.119114
0.118297
0.117466
0.116632
0.115808
0.115015
0.114284
0.113645
0.113133
0.112776
0.112592
0.112559