/*--------------------------------*- C++ -*----------------------------------*\
  =========                 |
  \\      /  F ield         | OpenFOAM: The Open Source CFD Toolbox
   \\    /   O peration     | Website:  https://openfoam.org
    \\  /    A nd           | Version:  10
     \\/     M anipulation  |
\*---------------------------------------------------------------------------*/
FoamFile
{
    format      ascii;
    class       volScalarField;
    location    "1900";
    object      nut;
}
// * * * * * * * * * * * * * * * * * * * * * * * * * * * * * * * * * * * * * //

dimensions      [0 2 -1 0 0 0 0];

internalField   nonuniform List<scalar> 
6820
(
0.000149811
0.000146298
0.000143078
0.00013985
0.000136611
0.000133451
0.000130461
0.0001277
0.000125195
0.000122956
0.000120975
0.000119241
0.000117735
0.000116438
0.000115331
0.000114396
0.000113614
0.000112971
0.000112452
0.000112042
0.000111731
0.000111507
0.000111361
0.000111285
0.00011127
0.00011131
0.000111403
0.00011154
0.000111585
0.000112911
0.00010843
0.00011628
0.000159825
0.000736674
0.000548088
0.000464579
0.000414437
0.000380736
0.000356914
0.000339489
0.00032634
0.000316125
0.000307977
0.000301325
0.000295784
0.000291086
0.000287044
0.000283521
0.000280417
0.000277658
0.000275185
0.000272953
0.000270927
0.000269079
0.000267385
0.000265827
0.00026439
0.00026306
0.000261829
0.000260686
0.000259643
0.000258621
0.000257884
0.000257516
0.00025267
0.000259536
0.000977663
0.000873823
0.0007837
0.000713313
0.000659064
0.000616643
0.00058273
0.000554997
0.000531848
0.000512185
0.000495236
0.000480444
0.000467401
0.000455795
0.000445389
0.000435997
0.00042747
0.000419689
0.000412557
0.000405993
0.000399929
0.000394307
0.00038908
0.000384204
0.000379642
0.00037536
0.000371325
0.000367516
0.000363874
0.000360424
0.000357342
0.000353712
0.00034578
0.0010135
0.000988678
0.000949905
0.000906244
0.000863762
0.000825038
0.000790663
0.000760379
0.000733668
0.000709988
0.000688859
0.00066988
0.000652719
0.000637109
0.000622832
0.000609707
0.000597588
0.000586351
0.000575894
0.000566131
0.000556988
0.000548402
0.000540318
0.000532687
0.000525468
0.000518621
0.000512111
0.000505907
0.000499975
0.000494282
0.000488809
0.000483783
0.000476742
0.00101667
0.00101251
0.00100235
0.000986318
0.000966165
0.000943899
0.00092109
0.00089873
0.000877352
0.000857193
0.000838317
0.000820697
0.000804263
0.000788925
0.00077459
0.000761167
0.000748571
0.000736726
0.000725562
0.000715018
0.000705038
0.000695573
0.000686578
0.000678012
0.00066984
0.000662027
0.000654541
0.000647354
0.000640436
0.000633758
0.00062726
0.000621045
0.000614739
0.00101674
0.0010159
0.00101373
0.00100941
0.00100265
0.000993629
0.000982848
0.000970869
0.000958203
0.000945247
0.000932293
0.000919535
0.000907097
0.000895056
0.00088345
0.000872296
0.000861594
0.000851336
0.000841506
0.000832085
0.000823053
0.000814388
0.000806068
0.000798072
0.000790378
0.000782965
0.000775812
0.000768899
0.000762203
0.000755706
0.00074937
0.000743197
0.000737174
0.00101671
0.00101621
0.00101554
0.00101439
0.00101245
0.00100952
0.00100553
0.00100053
0.000994668
0.00098811
0.000981036
0.000973604
0.000965951
0.000958186
0.000950397
0.000942647
0.000934987
0.00092745
0.000920062
0.00091284
0.000905792
0.000898924
0.000892238
0.000885731
0.000879401
0.000873241
0.000867243
0.0008614
0.000855701
0.000850135
0.000844688
0.000839348
0.000834113
0.0010167
0.00101622
0.00101574
0.0010152
0.00101449
0.0010135
0.00101214
0.00101031
0.00100801
0.00100522
0.001002
0.000998386
0.000994442
0.00099023
0.000985806
0.000981225
0.000976532
0.000971767
0.000966963
0.000962147
0.000957342
0.000952564
0.000947829
0.000943146
0.000938522
0.000933964
0.000929474
0.000925053
0.000920701
0.000916417
0.000912197
0.000908038
0.000903938
0.0010167
0.00101621
0.00101574
0.00101528
0.00101481
0.00101429
0.00101367
0.00101292
0.001012
0.00101086
0.00100951
0.00100792
0.00100612
0.0010041
0.0010019
0.00099952
0.000996998
0.000994351
0.0009916
0.000988766
0.000985866
0.000982916
0.00097993
0.00097692
0.000973897
0.000970869
0.000967844
0.000964826
0.000961822
0.000958834
0.000955865
0.00095292
0.000949998
0.0010167
0.00101621
0.00101574
0.00101528
0.00101484
0.0010144
0.00101395
0.00101348
0.00101297
0.00101239
0.00101174
0.001011
0.00101016
0.00100921
0.00100816
0.001007
0.00100574
0.00100439
0.00100294
0.00100142
0.000999827
0.00099817
0.000996458
0.000994699
0.000992901
0.00099107
0.000989212
0.000987334
0.00098544
0.000983535
0.000981625
0.000979713
0.000977804
0.0010167
0.00101621
0.00101574
0.00101528
0.00101484
0.00101441
0.00101398
0.00101357
0.00101315
0.00101273
0.00101229
0.00101183
0.00101134
0.00101081
0.00101024
0.00100963
0.00100897
0.00100826
0.0010075
0.0010067
0.00100584
0.00100495
0.00100401
0.00100303
0.00100202
0.00100098
0.000999907
0.000998812
0.000997697
0.000996564
0.000995417
0.000994261
0.0009931
0.0010167
0.00101621
0.00101574
0.00101528
0.00101483
0.0010144
0.00101398
0.00101357
0.00101317
0.00101278
0.00101239
0.00101201
0.00101162
0.00101123
0.00101083
0.00101042
0.00100999
0.00100955
0.00100909
0.00100861
0.00100811
0.00100759
0.00100705
0.00100649
0.00100591
0.00100531
0.00100469
0.00100406
0.00100341
0.00100275
0.00100208
0.00100141
0.00100073
0.0010167
0.00101621
0.00101574
0.00101528
0.00101483
0.0010144
0.00101398
0.00101357
0.00101317
0.00101278
0.0010124
0.00101203
0.00101167
0.00101131
0.00101096
0.00101061
0.00101026
0.00100991
0.00100956
0.00100921
0.00100885
0.00100849
0.00100812
0.00100775
0.00100737
0.00100698
0.00100659
0.00100619
0.00100579
0.00100538
0.00100497
0.00100456
0.00100415
0.0010167
0.00101621
0.00101574
0.00101528
0.00101483
0.0010144
0.00101398
0.00101357
0.00101317
0.00101278
0.0010124
0.00101203
0.00101167
0.00101132
0.00101098
0.00101065
0.00101032
0.00101
0.00100968
0.00100937
0.00100906
0.00100875
0.00100845
0.00100815
0.00100785
0.00100755
0.00100726
0.00100696
0.00100667
0.00100638
0.00100609
0.0010058
0.00100552
0.0010167
0.00101621
0.00101574
0.00101528
0.00101483
0.0010144
0.00101398
0.00101356
0.00101316
0.00101278
0.0010124
0.00101203
0.00101167
0.00101132
0.00101098
0.00101065
0.00101032
0.00101001
0.0010097
0.0010094
0.0010091
0.00100882
0.00100853
0.00100826
0.00100799
0.00100772
0.00100746
0.0010072
0.00100695
0.00100671
0.00100647
0.00100623
0.00100601
0.0010167
0.00101621
0.00101574
0.00101528
0.00101483
0.0010144
0.00101397
0.00101356
0.00101316
0.00101277
0.0010124
0.00101203
0.00101167
0.00101132
0.00101098
0.00101065
0.00101032
0.00101001
0.0010097
0.0010094
0.00100911
0.00100883
0.00100855
0.00100828
0.00100802
0.00100776
0.00100751
0.00100727
0.00100703
0.0010068
0.00100658
0.00100636
0.00100616
0.0010167
0.00101621
0.00101574
0.00101528
0.00101483
0.0010144
0.00101397
0.00101356
0.00101316
0.00101277
0.00101239
0.00101202
0.00101167
0.00101132
0.00101098
0.00101064
0.00101032
0.00101001
0.0010097
0.0010094
0.00100911
0.00100883
0.00100855
0.00100828
0.00100802
0.00100777
0.00100752
0.00100728
0.00100705
0.00100682
0.0010066
0.00100639
0.00100619
0.0010167
0.00101621
0.00101574
0.00101528
0.00101483
0.00101439
0.00101397
0.00101356
0.00101316
0.00101277
0.00101239
0.00101202
0.00101166
0.00101131
0.00101097
0.00101064
0.00101032
0.00101
0.0010097
0.0010094
0.00100911
0.00100882
0.00100855
0.00100828
0.00100802
0.00100777
0.00100752
0.00100728
0.00100705
0.00100682
0.0010066
0.00100639
0.00100619
0.0010167
0.00101621
0.00101574
0.00101528
0.00101483
0.00101439
0.00101397
0.00101356
0.00101316
0.00101277
0.00101239
0.00101202
0.00101166
0.00101131
0.00101097
0.00101064
0.00101032
0.00101
0.0010097
0.0010094
0.00100911
0.00100882
0.00100855
0.00100828
0.00100802
0.00100776
0.00100752
0.00100728
0.00100705
0.00100682
0.0010066
0.00100639
0.00100618
0.0010167
0.00101621
0.00101574
0.00101528
0.00101483
0.00101439
0.00101397
0.00101356
0.00101316
0.00101277
0.00101239
0.00101202
0.00101166
0.00101131
0.00101097
0.00101064
0.00101032
0.00101
0.00100969
0.0010094
0.0010091
0.00100882
0.00100855
0.00100828
0.00100802
0.00100776
0.00100752
0.00100728
0.00100704
0.00100682
0.0010066
0.00100638
0.00100618
0.0010167
0.00101621
0.00101574
0.00101528
0.00101483
0.00101439
0.00101397
0.00101356
0.00101316
0.00101277
0.00101239
0.00101202
0.00101166
0.00101131
0.00101097
0.00101064
0.00101031
0.00101
0.00100969
0.00100939
0.0010091
0.00100882
0.00100854
0.00100828
0.00100801
0.00100776
0.00100751
0.00100727
0.00100704
0.00100681
0.00100659
0.00100638
0.00100617
0.0010167
0.00101621
0.00101574
0.00101528
0.00101483
0.00101439
0.00101397
0.00101356
0.00101316
0.00101277
0.00101239
0.00101202
0.00101166
0.00101131
0.00101097
0.00101064
0.00101031
0.00101
0.00100969
0.00100939
0.0010091
0.00100882
0.00100854
0.00100827
0.00100801
0.00100776
0.00100751
0.00100727
0.00100704
0.00100681
0.00100659
0.00100637
0.00100616
0.0010167
0.00101621
0.00101574
0.00101528
0.00101483
0.00101439
0.00101397
0.00101356
0.00101316
0.00101277
0.00101239
0.00101202
0.00101166
0.00101131
0.00101097
0.00101064
0.00101031
0.00101
0.00100969
0.00100939
0.0010091
0.00100882
0.00100854
0.00100827
0.00100801
0.00100776
0.00100751
0.00100727
0.00100703
0.0010068
0.00100658
0.00100636
0.00100615
0.0010167
0.00101621
0.00101574
0.00101528
0.00101483
0.00101439
0.00101397
0.00101356
0.00101316
0.00101277
0.00101239
0.00101202
0.00101166
0.00101131
0.00101097
0.00101063
0.00101031
0.00101
0.00100969
0.00100939
0.0010091
0.00100882
0.00100854
0.00100827
0.00100801
0.00100775
0.00100751
0.00100726
0.00100703
0.0010068
0.00100658
0.00100636
0.00100615
0.0010167
0.00101621
0.00101574
0.00101528
0.00101483
0.00101439
0.00101397
0.00101356
0.00101316
0.00101277
0.00101239
0.00101202
0.00101166
0.00101131
0.00101097
0.00101063
0.00101031
0.00101
0.00100969
0.00100939
0.0010091
0.00100881
0.00100854
0.00100827
0.00100801
0.00100775
0.0010075
0.00100726
0.00100702
0.00100679
0.00100657
0.00100635
0.00100614
0.0010167
0.00101621
0.00101574
0.00101528
0.00101483
0.00101439
0.00101397
0.00101356
0.00101316
0.00101277
0.00101239
0.00101202
0.00101166
0.00101131
0.00101097
0.00101063
0.00101031
0.00100999
0.00100969
0.00100939
0.0010091
0.00100881
0.00100854
0.00100827
0.00100801
0.00100775
0.0010075
0.00100726
0.00100702
0.00100679
0.00100657
0.00100635
0.00100613
0.0010167
0.00101621
0.00101574
0.00101528
0.00101483
0.00101439
0.00101397
0.00101356
0.00101316
0.00101277
0.00101239
0.00101202
0.00101166
0.00101131
0.00101097
0.00101063
0.00101031
0.00100999
0.00100969
0.00100939
0.0010091
0.00100881
0.00100854
0.00100827
0.001008
0.00100775
0.0010075
0.00100726
0.00100702
0.00100679
0.00100656
0.00100634
0.00100613
0.0010167
0.00101621
0.00101574
0.00101528
0.00101483
0.00101439
0.00101397
0.00101356
0.00101316
0.00101277
0.00101239
0.00101202
0.00101166
0.00101131
0.00101097
0.00101063
0.00101031
0.00100999
0.00100969
0.00100939
0.0010091
0.00100881
0.00100854
0.00100827
0.001008
0.00100775
0.0010075
0.00100725
0.00100702
0.00100678
0.00100656
0.00100634
0.00100612
0.0010167
0.00101621
0.00101574
0.00101528
0.00101483
0.00101439
0.00101397
0.00101356
0.00101316
0.00101277
0.00101239
0.00101202
0.00101166
0.00101131
0.00101097
0.00101063
0.00101031
0.00100999
0.00100969
0.00100939
0.0010091
0.00100881
0.00100853
0.00100826
0.001008
0.00100774
0.00100749
0.00100725
0.00100701
0.00100678
0.00100655
0.00100633
0.00100612
0.0010167
0.00101621
0.00101574
0.00101528
0.00101483
0.00101439
0.00101397
0.00101356
0.00101316
0.00101277
0.00101239
0.00101202
0.00101166
0.00101131
0.00101097
0.00101063
0.00101031
0.00100999
0.00100969
0.00100939
0.0010091
0.00100881
0.00100853
0.00100826
0.001008
0.00100774
0.00100749
0.00100725
0.00100701
0.00100678
0.00100655
0.00100633
0.00100611
0.0010167
0.00101621
0.00101574
0.00101528
0.00101483
0.00101439
0.00101397
0.00101356
0.00101316
0.00101277
0.00101239
0.00101202
0.00101166
0.00101131
0.00101097
0.00101063
0.00101031
0.00100999
0.00100969
0.00100939
0.0010091
0.00100881
0.00100853
0.00100826
0.001008
0.00100774
0.00100749
0.00100724
0.001007
0.00100677
0.00100654
0.00100632
0.0010061
0.0010167
0.00101621
0.00101574
0.00101528
0.00101483
0.00101439
0.00101397
0.00101356
0.00101316
0.00101277
0.00101239
0.00101202
0.00101166
0.00101131
0.00101097
0.00101063
0.00101031
0.00100999
0.00100969
0.00100939
0.00100909
0.00100881
0.00100853
0.00100825
0.00100799
0.00100772
0.00100747
0.00100722
0.00100697
0.00100673
0.0010065
0.00100627
0.00100605
0.0010167
0.00101621
0.00101574
0.00101528
0.00101483
0.00101439
0.00101397
0.00101356
0.00101316
0.00101277
0.00101239
0.00101202
0.00101166
0.0010113
0.00101096
0.00101062
0.0010103
0.00100997
0.00100966
0.00100935
0.00100905
0.00100875
0.00100845
0.00100817
0.00100788
0.0010076
0.00100732
0.00100705
0.00100678
0.00100652
0.00100625
0.00100599
0.00100573
0.0010167
0.00101621
0.00101574
0.00101528
0.00101483
0.00101439
0.00101397
0.00101356
0.00101315
0.00101276
0.00101237
0.00101199
0.00101162
0.00101125
0.00101088
0.00101051
0.00101015
0.00100979
0.00100942
0.00100906
0.00100869
0.00100832
0.00100796
0.00100758
0.00100721
0.00100684
0.00100646
0.00100608
0.00100569
0.00100531
0.00100492
0.00100453
0.00100414
0.0010167
0.00101621
0.00101574
0.00101527
0.00101482
0.00101438
0.00101394
0.0010135
0.00101305
0.00101259
0.00101213
0.00101164
0.00101114
0.00101062
0.00101008
0.00100952
0.00100893
0.00100832
0.00100769
0.00100703
0.00100635
0.00100565
0.00100492
0.00100418
0.00100342
0.00100265
0.00100185
0.00100105
0.00100023
0.000999394
0.000998552
0.000997702
0.000996845
0.0010167
0.00101621
0.00101571
0.00101519
0.00101464
0.00101403
0.00101334
0.00101256
0.00101168
0.00101069
0.00100958
0.00100837
0.00100705
0.00100563
0.00100411
0.00100249
0.00100079
0.000999016
0.00099717
0.000995262
0.000993299
0.000991289
0.00098924
0.000987157
0.000985046
0.000982915
0.000980768
0.00097861
0.000976446
0.00097428
0.000972117
0.000969959
0.000967811
0.00101669
0.00101596
0.00101486
0.00101329
0.00101119
0.00100856
0.00100543
0.00100183
0.000997793
0.000993383
0.000988645
0.000983632
0.000978393
0.000972974
0.000967417
0.00096176
0.000956037
0.000950278
0.000944507
0.000938748
0.00093302
0.000927338
0.000921716
0.000916166
0.000910698
0.000905318
0.000900033
0.000894847
0.000889766
0.000884791
0.000879924
0.000875166
0.000870519
0.00101524
0.00100707
0.000994967
0.000980639
0.0009648
0.000947904
0.000930334
0.000912437
0.000894507
0.000876773
0.000859399
0.000842498
0.000826146
0.000810386
0.000795242
0.00078072
0.000766814
0.000753512
0.000740797
0.000728647
0.000717038
0.000705947
0.00069535
0.000685222
0.000675539
0.00066628
0.000657421
0.000648943
0.000640826
0.00063305
0.000625599
0.000618454
0.000611601
0.000934352
0.000813408
0.000726833
0.000658832
0.000603168
0.000556831
0.00051792
0.000484955
0.00045675
0.00043238
0.000411137
0.000392474
0.00037596
0.000361254
0.000348085
0.000336232
0.000325516
0.000315789
0.000306927
0.000298827
0.000291401
0.000284575
0.000278284
0.000272472
0.000267092
0.000262102
0.000257465
0.000253148
0.000249123
0.000245365
0.00024185
0.000238559
0.000235472
0.000125479
0.000128845
0.000132087
0.000135185
0.000138141
0.000140961
0.00014365
0.000146214
0.000148657
0.000150984
0.000153199
0.000155307
0.000157312
0.000159217
0.000161028
0.000162748
0.00016438
0.00016593
0.000167401
0.000168796
0.000170119
0.000171374
0.000172563
0.00017369
0.000174758
0.00017577
0.000176729
0.000177637
0.000178498
0.000179313
0.000180084
0.000180815
0.000181507
1.74903e-06
9.1024e-05
0.000314937
0.000488464
0.000562313
0.000575418
0.000569711
0.00057091
0.000586267
0.000612526
0.000643476
0.000673857
0.00070115
0.000725425
0.000748048
0.000770663
0.000794646
0.000820774
0.000848996
0.000878307
0.000906757
0.000931581
0.000949481
0.000957215
0.000952526
0.000935196
0.00090774
0.000875421
0.000845648
0.000827113
0.000828874
0.000859197
0.000923764
0.00102337
0.00115239
0.00129957
0.00145087
0.00159284
0.00171462
0.00180865
0.00187033
0.00189764
0.00189097
0.00185295
0.00178812
0.00170228
0.0016019
0.00149373
0.00138449
0.00128089
0.00118971
0.00111802
0.00107323
0.00106239
0.00109029
0.00115651
0.00125346
0.00136782
0.00148472
0.00159179
0.00168096
0.00174838
0.00179329
0.00181685
0.0018212
0.00180888
0.00178253
0.00174469
0.00169777
0.00164403
0.00158562
0.0015246
0.00146295
0.00140263
0.00134563
0.00129398
0.00124991
0.00121592
0.00119547
0.00119527
0.00123118
0.00133279
0.00152969
0.00181595
0.00213888
0.0024371
0.00267611
0.00284973
0.00296643
0.00303846
0.00307702
0.00309091
0.00308666
0.00306899
0.0030413
0.003006
0.00296486
0.00291909
0.00287073
0.00279872
0.000347116
0.000184562
0.000152415
0.000272412
0.000385702
0.000444982
0.000460303
0.000459594
0.00046425
0.000479837
0.000502365
0.000527633
0.000554061
0.000581202
0.000609053
0.000637915
0.00066821
0.000700121
0.000733194
0.000766091
0.000796566
0.000821662
0.000838129
0.000843108
0.000834992
0.000814243
0.00078381
0.000748968
0.000716733
0.000695181
0.000692848
0.000717906
0.000776541
0.000870461
0.00099487
0.00113871
0.00128748
0.001427
0.00154593
0.00163666
0.00169485
0.00171885
0.00170937
0.00166925
0.00160301
0.0015163
0.00141534
0.0013065
0.00119613
0.00109046
0.000995783
0.000918589
0.000865757
0.000844383
0.000860417
0.0009156
0.00100437
0.00111421
0.00122992
0.00133831
0.00143052
0.00150204
0.00155161
0.0015801
0.00158948
0.00158227
0.00156111
0.00152859
0.0014872
0.00143928
0.00138706
0.00133264
0.00127807
0.00122531
0.00117633
0.00113307
0.00109758
0.00107207
0.00105944
0.00106544
0.00110485
0.00120741
0.00140444
0.00169082
0.00201317
0.00231019
0.00254826
0.00272183
0.00283938
0.00291297
0.00295352
0.00296961
0.00296757
0.00295201
0.00292626
0.00289269
0.00285306
0.0028085
0.00276146
0.00268971
0.000360236
0.000452279
0.000366127
0.000233494
0.000246152
0.000285147
0.000311923
0.000320215
0.000318093
0.000317933
0.00032768
0.000347975
0.000375655
0.000407275
0.00044088
0.000475879
0.000512213
0.000549691
0.000587574
0.000624328
0.000657581
0.000684326
0.000701419
0.000706303
0.000697836
0.000676939
0.000646786
0.000612459
0.000580279
0.000557248
0.000550839
0.000568761
0.000617806
0.000701393
0.000816884
0.000954712
0.00110052
0.00123919
0.00135828
0.00144946
0.00150818
0.00153287
0.00152441
0.0014857
0.00142123
0.00133648
0.00123746
0.00113034
0.00102133
0.000916538
0.000822011
0.000743591
0.000686964
0.000657873
0.000661932
0.000702594
0.000777335
0.000876005
0.00098436
0.00108926
0.00118138
0.00125545
0.00130944
0.00134352
0.00135924
0.00135881
0.00134474
0.00131959
0.00128587
0.00124596
0.00120213
0.00115655
0.00111128
0.00106825
0.00102933
0.000996288
0.000970838
0.000954715
0.000949949
0.000960605
0.000998744
0.0010923
0.00127509
0.00154784
0.00186135
0.00215506
0.00239402
0.00257094
0.00269299
0.00277145
0.00281678
0.00283736
0.00283943
0.00282754
0.00280503
0.00277428
0.00273709
0.00269458
0.00264956
0.00257899
0.000468289
0.000486808
0.000534409
0.000504668
0.000398234
0.000334785
0.000312834
0.000305489
0.000297961
0.000286048
0.000273034
0.000265141
0.000266356
0.000278143
0.000299502
0.000328037
0.000361296
0.000397315
0.000434421
0.000470735
0.000503824
0.000530726
0.000548411
0.000554551
0.000548342
0.000531035
0.000505886
0.000477526
0.000451091
0.000431698
0.000424644
0.000435966
0.000472172
0.000538446
0.000636007
0.000759524
0.000896803
0.00103231
0.0011519
0.00124561
0.00130785
0.00133658
0.00133249
0.00129843
0.00123877
0.00115889
0.00106478
0.000962781
0.000859426
0.000761275
0.000674502
0.000604354
0.000554824
0.000528935
0.000529541
0.000559262
0.000617783
0.00069849
0.000789966
0.000881167
0.000964101
0.00103372
0.00108736
0.00112425
0.00114501
0.00115119
0.00114486
0.00112831
0.00110391
0.00107396
0.00104072
0.00100632
0.000972734
0.000941795
0.000915134
0.000894182
0.000880184
0.000874242
0.000877442
0.000891945
0.000926023
0.00100332
0.00115889
0.00140291
0.00169593
0.00198034
0.00221874
0.00240009
0.00252877
0.00261442
0.00266676
0.0026938
0.00270168
0.00269494
0.00267694
0.00265014
0.00261637
0.00257678
0.00253456
0.00246619
0.000605884
0.000599827
0.000606972
0.000618156
0.000604697
0.000559057
0.000507088
0.000469406
0.000446457
0.000428921
0.000409098
0.00038766
0.000366465
0.000346492
0.00033056
0.000321679
0.000321345
0.000329207
0.000343673
0.000362424
0.000382601
0.000400946
0.000414244
0.000420072
0.000417572
0.000407824
0.000393535
0.000378198
0.000365128
0.000356953
0.000355953
0.000365139
0.000388716
0.000430863
0.000495539
0.000585986
0.000698343
0.000819629
0.000933914
0.00102823
0.00109449
0.00112909
0.00113186
0.00110518
0.00105323
0.0009814
0.000896012
0.000804068
0.000712978
0.000629972
0.000561218
0.00051099
0.000481293
0.000472199
0.00048286
0.000512676
0.000560952
0.000624077
0.00069413
0.000762758
0.000824973
0.000878422
0.000921612
0.00095354
0.000973925
0.000983296
0.000982852
0.000974248
0.00095939
0.000940282
0.000918916
0.000897184
0.000876812
0.0008593
0.000845881
0.000837495
0.000834819
0.000838329
0.000848346
0.000865542
0.000894443
0.000952448
0.00107234
0.00127397
0.00153249
0.00179747
0.00202994
0.00221385
0.00234928
0.00244321
0.00250398
0.00253897
0.0025541
0.00255383
0.00254156
0.00251979
0.00249044
0.00245469
0.00241608
0.00235102
0.000729913
0.000721424
0.000715263
0.000712883
0.000709858
0.000698619
0.000676787
0.000650893
0.000629473
0.00061451
0.000602157
0.0005896
0.000574762
0.000555074
0.000529574
0.00049968
0.000468661
0.000440158
0.00041686
0.000399983
0.000389309
0.000383461
0.000380384
0.000378078
0.000375348
0.000372181
0.000369558
0.000368837
0.000371066
0.000376547
0.000385022
0.000396751
0.000413569
0.00043709
0.000465615
0.000501997
0.00055867
0.000638435
0.00072867
0.000812688
0.000877648
0.000916319
0.000926274
0.000908652
0.000867139
0.000807305
0.00073616
0.000661676
0.000591984
0.000534233
0.000493505
0.000472207
0.000470076
0.000484659
0.000512273
0.00054949
0.000594277
0.000645135
0.000698557
0.000748737
0.000791059
0.000824462
0.000849986
0.000868659
0.000880944
0.000887127
0.000887706
0.000883538
0.00087579
0.000865823
0.000855055
0.000844845
0.000836396
0.000830679
0.000828395
0.000829965
0.000835577
0.000845269
0.000858964
0.000876583
0.000899974
0.000940016
0.00102339
0.00117567
0.00138781
0.00162101
0.00183828
0.00201936
0.00215906
0.00226057
0.00233004
0.00237375
0.00239708
0.00240433
0.00239881
0.00238307
0.00235909
0.00232806
0.00229387
0.00223328
0.000828095
0.000820991
0.000813885
0.000807601
0.000802173
0.000795925
0.000786673
0.000774368
0.0007618
0.000751785
0.000744732
0.000739511
0.000734163
0.000726223
0.000713476
0.000694591
0.000669509
0.000639432
0.000606499
0.000573318
0.000542495
0.000516122
0.000495386
0.000480557
0.000471348
0.000467318
0.000468052
0.000473064
0.000481603
0.000492478
0.000504168
0.000515553
0.000527175
0.000540864
0.00055478
0.000559667
0.000555163
0.000562379
0.000594158
0.000641489
0.00068813
0.000721254
0.000733988
0.000724776
0.000696113
0.000653448
0.000604168
0.00055639
0.000517544
0.000493083
0.00048574
0.000495402
0.000519485
0.000553721
0.000593347
0.000634476
0.000675128
0.000715122
0.000754487
0.000791628
0.000823408
0.000847265
0.000862853
0.000871599
0.000875347
0.000875563
0.000873268
0.00086926
0.000864295
0.000859155
0.000854618
0.000851408
0.000850119
0.000851177
0.000854814
0.000861081
0.00086989
0.000881097
0.000894532
0.00090994
0.000927754
0.000953641
0.00100624
0.00111149
0.00127351
0.00146589
0.00165735
0.001827
0.00196544
0.00207149
0.00214828
0.00220032
0.00223205
0.00224732
0.00224924
0.0022403
0.00222248
0.00219699
0.00216795
0.00211296
0.000899236
0.000893778
0.000888139
0.0008825
0.000877103
0.000871814
0.000866011
0.000859228
0.000851913
0.000845195
0.000839914
0.000836179
0.000833358
0.000830279
0.00082554
0.000817821
0.000806157
0.000790111
0.000769877
0.000746335
0.000721042
0.000696058
0.000673541
0.000655259
0.000642283
0.000634925
0.000632853
0.000635243
0.000640917
0.000648442
0.000656262
0.000663074
0.000668632
0.000674194
0.0006805
0.000682602
0.000669001
0.000637349
0.00060567
0.000591005
0.000592705
0.000600196
0.00060348
0.000597333
0.000581598
0.00055997
0.000538248
0.000522482
0.000517411
0.000525498
0.000546634
0.000578454
0.000617119
0.000658379
0.000698572
0.000735307
0.000767746
0.000796444
0.000822627
0.000847092
0.000869403
0.000888089
0.000901702
0.000909759
0.000912894
0.000912372
0.000909562
0.000905643
0.000901545
0.000897986
0.000895511
0.00089452
0.000895271
0.000897889
0.000902376
0.000908635
0.000916504
0.00092582
0.000936441
0.000948165
0.000960884
0.000976915
0.00100719
0.00107331
0.00118914
0.00134028
0.00149998
0.00164952
0.00177887
0.00188386
0.00196445
0.00202282
0.00206199
0.00208496
0.00209441
0.00209261
0.00208145
0.00206208
0.00203878
0.00199038
0.000946624
0.000942718
0.000938687
0.000934552
0.000930394
0.000926269
0.000922088
0.000917683
0.000913056
0.000908492
0.000904379
0.000900973
0.000898252
0.000895904
0.000893386
0.000890035
0.000885191
0.000878306
0.000869053
0.000857434
0.000843876
0.000829268
0.000814847
0.000801942
0.000791656
0.000784631
0.000780964
0.000780254
0.000781749
0.000784492
0.000787457
0.000789729
0.000790867
0.000791296
0.000791903
0.000791912
0.000786231
0.000766308
0.000729176
0.000684859
0.000646811
0.000620144
0.000602493
0.000589925
0.000580485
0.000574778
0.000574937
0.000583176
0.000600654
0.000626924
0.000660014
0.000696966
0.000734604
0.000770211
0.000801934
0.000828895
0.000851108
0.000869314
0.000884692
0.000898421
0.000911204
0.000923004
0.000933186
0.000940984
0.000945962
0.000948215
0.00094828
0.000946918
0.000944914
0.000942956
0.000941575
0.000941145
0.000941892
0.000943916
0.000947216
0.000951719
0.000957309
0.000963871
0.000971311
0.00097951
0.000988263
0.000998187
0.00101445
0.00105145
0.00112678
0.00124037
0.00137059
0.00149725
0.00161109
0.00170823
0.00178714
0.00184798
0.00189206
0.0019212
0.00193736
0.00194235
0.00193784
0.0019248
0.00190752
0.00186644
0.000975578
0.000972991
0.000970317
0.000967555
0.000964721
0.000961846
0.000958939
0.000955973
0.000952931
0.000949863
0.00094688
0.000944108
0.000941616
0.000939383
0.000937282
0.000935099
0.000932562
0.000929386
0.000925326
0.00092024
0.000914155
0.00090732
0.000900206
0.00089342
0.000887562
0.000883069
0.00088011
0.000878573
0.000878117
0.000878264
0.000878486
0.000878295
0.000877376
0.000875776
0.000873934
0.000872158
0.000869318
0.00086154
0.000843746
0.000814693
0.000779423
0.000745453
0.000718035
0.000699155
0.000689025
0.000687447
0.000694184
0.000708717
0.000729926
0.000756022
0.000784766
0.000813868
0.00084136
0.000865841
0.000886546
0.000903279
0.0009163
0.000926205
0.000933814
0.000940016
0.000945578
0.000950954
0.000956212
0.000961102
0.000965251
0.00096837
0.000970375
0.000971405
0.000971758
0.000971799
0.000971886
0.000972319
0.000973313
0.000975003
0.000977446
0.000980641
0.000984547
0.00098911
0.000994283
0.00100001
0.00100613
0.00101264
0.00102143
0.00103999
0.00108254
0.00115954
0.00126255
0.00137045
0.00146914
0.00155468
0.00162659
0.00168489
0.00172987
0.00176227
0.00178312
0.0017936
0.00179495
0.00178783
0.00177642
0.00174289
0.000991734
0.000990136
0.000988477
0.000986754
0.000984969
0.00098313
0.000981244
0.000979318
0.000977349
0.000975343
0.000973323
0.000971324
0.000969383
0.000967521
0.000965734
0.000963983
0.000962203
0.000960305
0.000958196
0.000955801
0.000953092
0.000950115
0.000947005
0.000943966
0.000941225
0.000938966
0.00093727
0.000936099
0.000935305
0.000934674
0.000933967
0.000932967
0.000931523
0.000929614
0.000927428
0.000925286
0.000923199
0.000920078
0.000913611
0.000901708
0.00088442
0.000864337
0.000845202
0.000830248
0.000821436
0.000819502
0.000824246
0.000834784
0.000849735
0.00086744
0.000886203
0.000904514
0.000921213
0.00093555
0.000947169
0.000956044
0.000962395
0.000966615
0.000969215
0.000970762
0.000971809
0.000972808
0.000974042
0.000975593
0.000977379
0.000979233
0.000980986
0.000982539
0.000983881
0.000985082
0.000986263
0.000987559
0.000989096
0.000990972
0.000993247
0.000995951
0.000999084
0.00100263
0.00100657
0.00101087
0.00101545
0.00102017
0.00102549
0.00103447
0.0010553
0.00109946
0.00117154
0.00126065
0.00134895
0.001426
0.00149013
0.00154258
0.00158444
0.00161635
0.00163882
0.00165242
0.00165791
0.00165552
0.00164917
0.00162269
0.000999919
0.000998973
0.000997989
0.000996963
0.000995895
0.000994783
0.000993629
0.000992436
0.000991207
0.000989941
0.000988639
0.000987308
0.000985954
0.000984591
0.000983227
0.000981871
0.000980523
0.000979177
0.000977824
0.000976454
0.000975063
0.000973662
0.000972286
0.000970984
0.000969813
0.000968816
0.000967998
0.00096732
0.000966701
0.000966036
0.000965221
0.000964168
0.000962828
0.000961207
0.000959409
0.000957641
0.000956091
0.000954613
0.0009525
0.000948756
0.0009428
0.000935022
0.000926747
0.00091969
0.000915334
0.000914555
0.000917537
0.000923861
0.000932695
0.000943003
0.00095374
0.000963999
0.000973094
0.000980589
0.000986283
0.000990171
0.000992394
0.000993199
0.000992904
0.000991863
0.000990442
0.000988979
0.000987748
0.000986928
0.000986595
0.000986736
0.000987279
0.000988135
0.000989225
0.0009905
0.000991945
0.000993569
0.000995398
0.000997457
0.00099977
0.00100235
0.00100519
0.00100829
0.00101163
0.00101518
0.00101889
0.00102265
0.00102646
0.00103127
0.00104071
0.00106213
0.00110373
0.0011669
0.0012418
0.00131417
0.00137542
0.00142417
0.00146217
0.0014912
0.00151236
0.00152628
0.00153348
0.00153383
0.00153109
0.00151021
0.00100366
0.00100309
0.0010025
0.00100189
0.00100126
0.00100059
0.0009999
0.000999177
0.000998425
0.000997641
0.000996823
0.00099597
0.000995078
0.000994151
0.000993195
0.000992219
0.000991236
0.00099026
0.00098931
0.000988399
0.000987544
0.000986759
0.000986055
0.000985439
0.000984913
0.000984465
0.00098407
0.000983682
0.000983245
0.000982698
0.00098199
0.000981086
0.000979984
0.000978716
0.000977364
0.000976071
0.000975005
0.000974254
0.000973701
0.000973031
0.000971924
0.000970308
0.000968486
0.000967049
0.000966651
0.000967774
0.000970594
0.00097496
0.000980469
0.000986575
0.000992707
0.000998357
0.00100313
0.00100679
0.0010092
0.00101036
0.00101038
0.00100942
0.00100767