/*--------------------------------*- C++ -*----------------------------------*\
  =========                 |
  \\      /  F ield         | OpenFOAM: The Open Source CFD Toolbox
   \\    /   O peration     | Website:  https://openfoam.org
    \\  /    A nd           | Version:  10
     \\/     M anipulation  |
\*---------------------------------------------------------------------------*/
FoamFile
{
    format      ascii;
    class       volScalarField;
    location    "1900";
    object      p;
}
// * * * * * * * * * * * * * * * * * * * * * * * * * * * * * * * * * * * * * //

dimensions      [0 2 -2 0 0 0 0];

internalField   nonuniform List<scalar> 
6820
(
-7.94953
-8.721
-9.16837
-9.31535
-9.39385
-9.45887
-9.50432
-9.53449
-9.55776
-9.57783
-9.59552
-9.61136
-9.62592
-9.63958
-9.65249
-9.66475
-9.67639
-9.68744
-9.69786
-9.70761
-9.7166
-9.7247
-9.7317
-9.73731
-9.7411
-9.74244
-9.74025
-9.73327
-9.71815
-9.69338
-9.64709
-9.5958
-9.34928
-9.50395
-9.64912
-9.62501
-9.55617
-9.52843
-9.53366
-9.54649
-9.55931
-9.57296
-9.58743
-9.60176
-9.61549
-9.62862
-9.64123
-9.65332
-9.66489
-9.67595
-9.68648
-9.69645
-9.70581
-9.71448
-9.72234
-9.72921
-9.73485
-9.73891
-9.74092
-9.74006
-9.73567
-9.72496
-9.70881
-9.66664
-9.61997
-9.57737
-9.50761
-9.37222
-9.37252
-9.4067
-9.44232
-9.47957
-9.51168
-9.53676
-9.55774
-9.57652
-9.59353
-9.609
-9.62331
-9.63676
-9.64949
-9.66158
-9.67309
-9.68403
-9.69439
-9.70413
-9.71319
-9.72146
-9.72879
-9.73498
-9.73973
-9.74269
-9.74326
-9.74095
-9.73405
-9.72414
-9.70568
-9.71344
-9.74603
-9.438
-9.36044
-9.40479
-9.45195
-9.4777
-9.50213
-9.52606
-9.54633
-9.56408
-9.58065
-9.59623
-9.61079
-9.62453
-9.6376
-9.65008
-9.66202
-9.67342
-9.6843
-9.69465
-9.70442
-9.71356
-9.72199
-9.72959
-9.73621
-9.74165
-9.74569
-9.74801
-9.7485
-9.74694
-9.74547
-9.74554
-9.75992
-9.77847
-9.43149
-9.40203
-9.43171
-9.46318
-9.48237
-9.50355
-9.52619
-9.54623
-9.56394
-9.58046
-9.596
-9.61056
-9.62429
-9.63736
-9.64984
-9.66179
-9.67322
-9.68416
-9.69459
-9.7045
-9.71383
-9.72254
-9.73055
-9.73776
-9.74407
-9.74938
-9.75365
-9.75707
-9.7601
-9.76448
-9.77161
-9.78642
-9.81237
-9.43944
-9.42536
-9.44145
-9.46685
-9.48681
-9.50736
-9.52872
-9.54804
-9.56533
-9.58147
-9.59672
-9.61109
-9.62469
-9.63767
-9.6501
-9.66203
-9.67347
-9.68446
-9.69498
-9.70503
-9.71458
-9.7236
-9.73205
-9.73989
-9.74711
-9.75373
-9.75988
-9.76591
-9.7725
-9.781
-9.79306
-9.81255
-9.84394
-9.44725
-9.43974
-9.4511
-9.4734
-9.49296
-9.51194
-9.53155
-9.54993
-9.56671
-9.58246
-9.59742
-9.61159
-9.62508
-9.63798
-9.65037
-9.66229
-9.67376
-9.68481
-9.69544
-9.70566
-9.71545
-9.72482
-9.73375
-9.74227
-9.75041
-9.75829
-9.76615
-9.77441
-9.78379
-9.79544
-9.81094
-9.83273
-9.86282
-9.45526
-9.45215
-9.46164
-9.48062
-9.49876
-9.51629
-9.53445
-9.55195
-9.56821
-9.58356
-9.5982
-9.61217
-9.62552
-9.63833
-9.65068
-9.66259
-9.6741
-9.68522
-9.69598
-9.70638
-9.71644
-9.72617
-9.7356
-9.74478
-9.75382
-9.76287
-9.77221
-9.78231
-9.79381
-9.80765
-9.825
-9.84717
-9.87496
-9.46369
-9.46325
-9.47155
-9.48761
-9.50427
-9.52065
-9.53756
-9.55417
-9.56986
-9.58478
-9.59909
-9.61283
-9.62602
-9.63874
-9.65103
-9.66293
-9.67448
-9.68568
-9.69657
-9.70716
-9.71749
-9.72759
-9.73752
-9.74734
-9.7572
-9.76728
-9.77789
-9.78943
-9.80247
-9.81772
-9.83598
-9.85792
-9.88394
-9.47218
-9.47317
-9.48066
-9.49447
-9.50972
-9.52503
-9.54082
-9.55653
-9.57163
-9.58611
-9.60009
-9.61358
-9.6266
-9.63921
-9.65144
-9.66333
-9.6749
-9.68618
-9.6972
-9.70799
-9.71859
-9.72905
-9.73944
-9.74986
-9.76046
-9.77143
-9.78305
-9.7957
-9.80983
-9.82594
-9.84457
-9.86611
-9.89069
-9.4805
-9.48219
-9.48909
-9.50117
-9.51508
-9.52937
-9.54414
-9.55901
-9.57351
-9.58755
-9.60118
-9.61441
-9.62725
-9.63973
-9.6519
-9.66376
-9.67536
-9.68672
-9.69787
-9.70885
-9.71971
-9.73051
-9.74133
-9.75228
-9.76351
-9.77521
-9.78764
-9.8011
-9.81595
-9.83255
-9.85124
-9.87223
-9.89552
-9.4885
-9.4905
-9.49692
-9.50763
-9.5203
-9.53363
-9.54748
-9.56157
-9.57547
-9.58906
-9.60234
-9.6153
-9.62796
-9.64031
-9.6524
-9.66424
-9.67585
-9.68728
-9.69855
-9.70971
-9.7208
-9.73191
-9.74311
-9.75452
-9.76628
-9.77857
-9.7916
-9.80563
-9.82092
-9.83772
-9.85625
-9.8766
-9.89871
-9.49611
-9.4982
-9.50418
-9.5138
-9.52537
-9.5378
-9.55081
-9.56416
-9.57749
-9.59063
-9.60356
-9.61625
-9.62871
-9.64093
-9.65293
-9.66473
-9.67636
-9.68784
-9.69922
-9.71053
-9.72184
-9.73322
-9.74475
-9.75653
-9.76871
-9.78144
-9.7949
-9.80929
-9.82479
-9.84159
-9.8598
-9.87945
-9.90046
-9.50328
-9.50534
-9.51091
-9.51964
-9.53025
-9.54184
-9.55409
-9.56675
-9.57953
-9.59223
-9.60481
-9.61723
-9.62948
-9.64156
-9.65347
-9.66523
-9.67686
-9.68839
-9.69985
-9.7113
-9.72279
-9.73438
-9.74617
-9.75826
-9.77075
-9.78379
-9.79751
-9.81208
-9.82762
-9.84425
-9.86204
-9.88095
-9.90092
-9.50998
-9.51196
-9.51714
-9.52513
-9.53489
-9.54572
-9.55727
-9.56931
-9.58155
-9.59383
-9.60607
-9.61822
-9.63027
-9.64219
-9.654
-9.66571
-9.67732
-9.68888
-9.70041
-9.71197
-9.72359
-9.73536
-9.74735
-9.75964
-9.77235
-9.78557
-9.79943
-9.81403
-9.82946
-9.84581
-9.86308
-9.88124
-9.90021
-9.51621
-9.51808
-9.5229
-9.53025
-9.53929
-9.54942
-9.56033
-9.57178
-9.58353
-9.5954
-9.6073
-9.61919
-9.63103
-9.6428
-9.6545
-9.66614
-9.67773
-9.6893
-9.70087
-9.7125
-9.72422
-9.73611
-9.74823
-9.76066
-9.77348
-9.78677
-9.80064
-9.81515
-9.83037
-9.84632
-9.86302
-9.88041
-9.89842
-9.52194
-9.52369
-9.52819
-9.535
-9.5434
-9.5529
-9.56323
-9.57415
-9.58543
-9.59691
-9.60849
-9.62012
-9.63175
-9.64336
-9.65495
-9.66651
-9.67806
-9.68961
-9.7012
-9.71286
-9.72464
-9.7366
-9.74878
-9.76126
-9.77411
-9.78738
-9.80115
-9.81547
-9.83038
-9.84588
-9.86196
-9.87856
-9.89564
-9.52717
-9.52882
-9.53301
-9.53935
-9.54719
-9.55614
-9.56594
-9.57637
-9.58722
-9.59833
-9.6096
-9.62097
-9.6324
-9.64385
-9.65531
-9.66678
-9.67827
-9.68979
-9.70136
-9.71303
-9.72482
-9.73679
-9.74898
-9.76144
-9.77423
-9.7874
-9.80099
-9.81503
-9.82954
-9.84453
-9.85996
-9.87578
-9.89194
-9.53189
-9.53344
-9.53736
-9.54329
-9.55065
-9.55911
-9.56843
-9.57841
-9.58886
-9.59963
-9.6106
-9.62173
-9.63295
-9.64423
-9.65556
-9.66693
-9.67835
-9.68981
-9.70134
-9.71297
-9.72473
-9.73666
-9.74879
-9.76117
-9.77383
-9.78682
-9.80015
-9.81385
-9.82792
-9.84235
-9.8571
-9.87213
-9.8874
-9.5361
-9.53756
-9.54124
-9.54681
-9.55375
-9.56177
-9.57066
-9.58024
-9.59032
-9.60076
-9.61146
-9.62235
-9.63337
-9.64449
-9.65569
-9.66694
-9.67826
-9.68964
-9.7011
-9.71266
-9.72435
-9.73619
-9.74821
-9.76045
-9.77293
-9.78566
-9.79868
-9.81198
-9.82556
-9.83939
-9.85346
-9.8677
-9.88208
-9.53978
-9.54116
-9.54463
-9.54989
-9.55646
-9.56409
-9.5726
-9.58182
-9.59157
-9.60171
-9.61215
-9.62281
-9.63364
-9.64459
-9.65564
-9.66678
-9.67798
-9.68926
-9.70063
-9.71209
-9.72366
-9.73537
-9.74724
-9.75928
-9.77151
-9.78395
-9.7966
-9.80945
-9.8225
-9.83573
-9.84909
-9.86255
-9.87607
-9.54293
-9.54423
-9.54751
-9.55251
-9.55876
-9.56605
-9.57422
-9.58312
-9.59256
-9.60243
-9.61263
-9.62308
-9.63372
-9.64451
-9.65542
-9.66642
-9.6775
-9.68865
-9.69989
-9.71122
-9.72265
-9.73419
-9.74586
-9.75766
-9.7696
-9.7817
-9.79394
-9.80632
-9.81882
-9.83141
-9.84407
-9.85675
-9.86943
-9.54552
-9.54676
-9.54988
-9.55463
-9.56061
-9.56761
-9.57549
-9.58409
-9.59327
-9.6029
-9.61288
-9.62313
-9.63359
-9.64422
-9.65498
-9.66583
-9.67678
-9.6878
-9.69889
-9.71006
-9.72131
-9.73265
-9.74408
-9.7556
-9.76722
-9.77894
-9.79074
-9.80262
-9.81455
-9.82651
-9.83847
-9.85039
-9.86224
-9.54753
-9.54872
-9.5517
-9.55625
-9.56199
-9.56873
-9.57636
-9.58471
-9.59366
-9.60307
-9.61285
-9.62292
-9.63322
-9.64369
-9.6543
-9.66501
-9.67581
-9.68667
-9.6976
-9.70859
-9.71964
-9.73075
-9.74191
-9.75313
-9.76439
-9.77571
-9.78705
-9.79841
-9.80976
-9.82108
-9.83235
-9.84352
-9.85457
-9.54895
-9.55009
-9.55294
-9.55732
-9.56285
-9.56938
-9.57679
-9.58494
-9.59369
-9.60291
-9.61252
-9.62243
-9.63258
-9.6429
-9.65337
-9.66393
-9.67457
-9.68528
-9.69603
-9.70682
-9.71764
-9.72849
-9.73937
-9.75025
-9.76115
-9.77204
-9.78291
-9.79374
-9.80451
-9.8152
-9.82578
-9.83622
-9.8465
-9.54975
-9.55084
-9.55359
-9.5578
-9.56317
-9.56953
-9.57676
-9.58474
-9.59332
-9.60239
-9.61185
-9.62163
-9.63164
-9.64183
-9.65215
-9.66257
-9.67306
-9.68359
-9.69415
-9.70473
-9.71532
-9.7259
-9.73646
-9.74701
-9.75751
-9.76797
-9.77836
-9.78866
-9.79886
-9.80893
-9.81884
-9.82857
-9.8381
-9.5499
-9.55095
-9.55359
-9.55767
-9.56289
-9.56911
-9.57621
-9.58406
-9.59252
-9.60147
-9.61082
-9.62048
-9.63038
-9.64045
-9.65065
-9.66093
-9.67126
-9.68162
-9.69199
-9.70235
-9.71269
-9.72299
-9.73324
-9.74343
-9.75354
-9.76356
-9.77347
-9.78325
-9.79288
-9.80234
-9.81161
-9.82065
-9.82947
-9.54936
-9.55038
-9.55292
-9.55687
-9.56198
-9.56809
-9.5751
-9.58286
-9.59124
-9.60012
-9.60939
-9.61897
-9.62878
-9.63875
-9.64883
-9.65898
-9.66916
-9.67935
-9.68952
-9.69966
-9.70975
-9.71976
-9.72969
-9.73953
-9.74925
-9.75883
-9.76826
-9.77753
-9.78661
-9.79547
-9.80412
-9.81251
-9.82064
-9.54812
-9.54909
-9.55152
-9.55535
-9.56035
-9.56641
-9.57338
-9.5811
-9.58945
-9.59829
-9.60753
-9.61706
-9.62682
-9.63672
-9.64671
-9.65675
-9.6668
-9.67683
-9.68682
-9.69674
-9.70658
-9.71632
-9.72594
-9.73543
-9.74476
-9.75392
-9.7629
-9.77167
-9.78021
-9.78852
-9.79657
-9.80433
-9.81181
-9.54613
-9.54704
-9.54934
-9.55302
-9.55795
-9.564
-9.57098
-9.57873
-9.5871
-9.59597
-9.60521
-9.61474
-9.62446
-9.6343
-9.64422
-9.65415
-9.66407
-9.67394
-9.68374
-9.69345
-9.70304
-9.7125
-9.72181
-9.73094
-9.7399
-9.74865
-9.75718
-9.76547
-9.77351
-9.78127
-9.78876
-9.79594
-9.80282
-9.5434
-9.54421
-9.5463
-9.5498
-9.55469
-9.56078
-9.56784
-9.57568
-9.58415
-9.59312
-9.60246
-9.61206
-9.62183
-9.63169
-9.6416
-9.65149
-9.66133
-9.6711
-9.68075
-9.69028
-9.69965
-9.70886
-9.71788
-9.7267
-9.7353
-9.74366
-9.75177
-9.75961
-9.76717
-9.77443
-9.78138
-9.788
-9.79428
-9.53992
-9.54057
-9.5423
-9.54554
-9.55043
-9.55668
-9.56391
-9.5719
-9.58049
-9.58956
-9.59895
-9.60858
-9.61834
-9.62818
-9.63803
-9.64784
-9.65757
-9.6672
-9.67669
-9.68603
-9.69519
-9.70416
-9.71291
-9.72143
-9.7297
-9.73771
-9.74544
-9.75288
-9.76
-9.76681
-9.77329
-9.77944
-9.78525
-9.53579
-9.53611
-9.53721
-9.54005
-9.54498
-9.55148
-9.55908
-9.56754
-9.57665
-9.5862
-9.59602
-9.60598
-9.61601
-9.62604
-9.63601
-9.64587
-9.65559
-9.66515
-9.67453
-9.68371
-9.69267
-9.70139
-9.70987
-9.71807
-9.726
-9.73364
-9.74096
-9.74797
-9.75465
-9.76098
-9.76696
-9.77256
-9.77779
-9.53123
-9.53079
-9.53072
-9.53323
-9.53842
-9.54501
-9.5524
-9.56062
-9.5696
-9.57908
-9.58886
-9.59883
-9.6089
-9.61897
-9.62899
-9.6389
-9.64866
-9.65825
-9.66763
-9.67678
-9.6857
-9.69435
-9.70273
-9.71081
-9.71859
-9.72604
-9.73316
-9.73994
-9.74637
-9.75243
-9.75814
-9.76348
-9.76848
-9.52691
-9.52464
-9.52167
-9.5238
-9.53103
-9.54027
-9.55007
-9.5603
-9.57082
-9.58141
-9.59194
-9.60237
-9.61267
-9.6228
-9.63273
-9.64245
-9.65193
-9.66118
-9.67018
-9.67891
-9.68737
-9.69555
-9.70343
-9.711
-9.71826
-9.72517
-9.73175
-9.73797
-9.74382
-9.7493
-9.7544
-9.75909
-9.76336
-9.52403
-9.51887
-9.51123
-9.50878
-9.51118
-9.51651
-9.52434
-9.53412
-9.54494
-9.5562
-9.56766
-9.57919
-9.59067
-9.60198
-9.61306
-9.62386
-9.63437
-9.64456
-9.65441
-9.66393
-9.67309
-9.68189
-9.69033
-9.69839
-9.70606
-9.71335
-9.72024
-9.72672
-9.7328
-9.73847
-9.74374
-9.74862
-9.75314
-9.52422
-9.50427
-9.50698
-9.5266
-9.54315
-9.55382
-9.56338
-9.5735
-9.58348
-9.59298
-9.60219
-9.61129
-9.62028
-9.62912
-9.63782
-9.64635
-9.6547
-9.66286
-9.67081
-9.67854
-9.68602
-9.69325
-9.70021
-9.70687
-9.71323
-9.71927
-9.72497
-9.73032
-9.73532
-9.73994
-9.74418
-9.74801
-9.75141
-9.56149
-9.4382
-9.37501
-9.3785
-9.40067
-9.42216
-9.44322
-9.46468
-9.48553
-9.50513
-9.52349
-9.54075
-9.55698
-9.57225
-9.58664
-9.60021
-9.61305
-9.62518
-9.63667
-9.64755
-9.65785
-9.66759
-9.67678
-9.68545
-9.69361
-9.70125
-9.7084
-9.71505
-9.7212
-9.72687
-9.73207
-9.73679
-9.74105
-9.72127
-9.73438
-9.69298
-9.65068
-9.62651
-9.61577
-9.61101
-9.60878
-9.60862
-9.61055
-9.61414
-9.61887
-9.62437
-9.63043
-9.63691
-9.64364
-9.65052
-9.65747
-9.6644
-9.67126
-9.67801
-9.68461
-9.691
-9.69718
-9.70309
-9.70873
-9.71406
-9.71907
-9.72375
-9.72809
-9.73207
-9.73569
-9.73893
-8.55695
-8.85724
-9.12217
-9.24796
-9.31279
-9.36873
-9.41807
-9.4562
-9.48564
-9.5103
-9.53193
-9.55107
-9.56815
-9.58362
-9.59784
-9.611
-9.62325
-9.6347
-9.64544
-9.65553
-9.66503
-9.67397
-9.68237
-9.69026
-9.69764
-9.70452
-9.71092
-9.71684
-9.72228
-9.72725
-9.73175
-9.73579
-9.73939
-9.59791
-10.1143
-10.1608
-10.2096
-10.2102
-10.1471
-10.1557
-10.3048
-10.5289
-10.7324
-10.8703
-10.946
-10.9776
-10.9785
-10.9566
-10.9203
-10.8823
-10.8581
-10.8618
-10.9023
-10.98
-11.0862
-11.2032
-11.3068
-11.37
-11.368
-11.2833
-11.1095
-10.8532
-10.5338
-10.1803
-9.82701
-9.50934
-9.25879
-9.0988
-9.04149
-9.08615
-9.22007
-9.42147
-9.66327
-9.91648
-10.1528
-10.3464
-10.4751
-10.5217
-10.474
-10.3264
-10.0797
-9.7415
-9.32506
-8.84841
-8.33254
-7.79953
-7.27056
-6.76403
-6.29392
-5.86871
-5.49126
-5.15955
-4.86826
-4.6104
-4.3787
-4.16645
-3.96788
-3.77832
-3.59407
-3.41239
-3.23128
-3.0494
-2.86598
-2.68066
-2.49344
-2.30456
-2.11441
-1.92348
-1.73228
-1.54128
-1.35086
-1.16145
-0.974008
-0.791263
-0.619019
-0.465679
-0.338971
-0.241911
-0.171768
-0.122546
-0.0881663
-0.0639658
-0.0468389
-0.0347768
-0.0264818
-0.0210295
-0.0176523
-0.0159242
-0.0145537
-0.014707
-0.0111938
-0.0123738
-0.000731034
-9.7659
-10.1995
-10.213
-10.2574
-10.2552
-10.1495
-10.1127
-10.2469
-10.4812
-10.6967
-10.8348
-10.9007
-10.9215
-10.9174
-10.8978
-10.8686
-10.8393
-10.823
-10.8329
-10.8771
-10.9559
-11.06
-11.1717
-11.2674
-11.3211
-11.3095
-11.2168
-11.0383
-10.7814
-10.4653
-10.1178
-9.77191
-9.46147
-9.21711
-9.06225
-9.00958
-9.05916
-9.1988
-9.4067
-9.65514
-9.9142
-10.1545
-10.3495
-10.4765
-10.5183
-10.4635
-10.3077
-10.0531
-9.70828
-9.28768
-8.80973
-8.2953
-7.76581
-7.24158
-6.74017
-6.27506
-5.85455
-5.4816
-5.15432
-4.86746
-4.61402
-4.38659
-4.17832
-3.98331
-3.79676
-3.61494
-3.43507
-3.25517
-3.07396
-2.89071
-2.70512
-2.51728
-2.32749
-2.1362
-1.94396
-1.75131
-1.55869
-1.36645
-1.17489
-0.984787
-0.798684
-0.622448
-0.464939
-0.334606
-0.235016
-0.163518
-0.113859
-0.0796366
-0.0559415
-0.0395104
-0.0282398
-0.0207744
-0.0161502
-0.0135899
-0.0126199
-0.0120411
-0.01276
-0.0102636
-0.0112719
-0.00225261
-9.84474
-10.0586
-10.1455
-10.211
-10.2079
-10.1257
-10.108
-10.2405
-10.462
-10.664
-10.7896
-10.8441
-10.8573
-10.8519
-10.8376
-10.8179
-10.7991
-10.7915
-10.8067
-10.8524
-10.9288
-11.0268
-11.1296
-11.2145
-11.2573
-11.2367
-11.139
-10.9605
-10.7091
-10.4028
-10.0677
-9.7345
-9.43495
-9.1985
-9.04828
-8.99768
-9.04788
-9.18771
-9.39592
-9.64473
-9.90372
-10.1429
-10.3351
-10.4574
-10.4929
-10.431
-10.2682
-10.008
-9.66023
-9.23986
-8.76546
-8.25739
-7.73604
-7.22045
-6.72707
-6.26865
-5.85331
-5.48423
-5.15995
-4.87564
-4.62455
-4.3994
-4.19329
-4.00027
-3.81546
-3.63506
-3.45624
-3.27703
-3.09614
-2.91288
-2.72702
-2.53866
-2.34818
-2.15607
-1.96292
-1.76928
-1.57561
-1.38223
-1.18937
-0.997658
-0.809441
-0.630453
-0.469687
-0.336033
-0.233601
-0.160069
-0.1092
-0.0744225
-0.0506315
-0.0344024
-0.023518
-0.0165453
-0.0124637
-0.0104758
-0.0100425
-0.0100711
-0.01115
-0.00954619
-0.0101056
-0.00374605
-9.83991
-10.0129
-10.143
-10.1784
-10.1554
-10.1112
-10.1305
-10.2615
-10.4576
-10.6347
-10.7449
-10.7914
-10.801
-10.7959
-10.7861
-10.7742
-10.764
-10.7632
-10.7814
-10.8256
-10.8957
-10.9838
-11.074
-11.1458
-11.1773
-11.1494
-11.0504
-10.8774
-10.638
-10.3485
-10.0324
-9.7175
-9.43294
-9.2064
-9.0605
-9.00921
-9.05513
-9.18866
-9.38979
-9.63138
-9.8832
-10.1151
-10.2996
-10.414
-10.4417
-10.3728
-10.2048
-9.9421
-9.59537
-9.17988
-8.71395
-8.21705
-7.70827
-7.20517
-6.72284
-6.27316
-5.86398
-5.4987
-5.17647
-4.8931
-4.64242
-4.41749
-4.2116
-4.01885
-3.83431
-3.65415
-3.47548
-3.29629
-3.1153
-2.93183
-2.74565
-2.5569
-2.36597
-2.1734
-1.97979
-1.7857
-1.59161
-1.39785
-1.20461
-1.01246
-0.823541
-0.643286
-0.480485
-0.344142
-0.238832
-0.162755
-0.109965
-0.0739069
-0.0493559
-0.032743
-0.0217315
-0.0148002
-0.0108603
-0.00908637
-0.00886122
-0.00920215
-0.0103477
-0.00939008
-0.00918055
-0.0053135
-9.87763
-10.0124
-10.1044
-10.1179
-10.1146
-10.1224
-10.1707
-10.2851
-10.4424
-10.588
-10.6849
-10.7315
-10.7467
-10.7485
-10.7455
-10.7405
-10.7366
-10.7398
-10.758
-10.7971
-10.8574
-10.932
-11.0069
-11.064
-11.084
-11.0507
-10.9536
-10.7907
-10.5684
-10.3011
-10.0092
-9.71736
-9.45159
-9.23719
-9.09575
-9.04162
-9.07893
-9.20012
-9.3871
-9.61416
-9.85187
-10.0705
-10.2427
-10.3462
-10.3646
-10.289
-10.1175
-9.85523
-9.51327
-9.1068
-8.65344
-8.17153
-7.67872
-7.19105
-6.72229
-6.28337
-5.88173
-5.52092
-5.20065
-4.91751
-4.66602
-4.43986
-4.23268
-4.03876
-3.85323
-3.67226
-3.49293
-3.31319
-3.13174
-2.94786
-2.76134
-2.57232
-2.38118
-2.18846
-1.99478
-1.8007
-1.60671
-1.41317
-1.22031
-1.02869
-0.840297
-0.660134
-0.496495
-0.358186
-0.250104
-0.171109
-0.115794
-0.0778057
-0.0518887
-0.034354
-0.0227436
-0.0154388
-0.0112728
-0.00938399
-0.0090683
-0.009451
-0.0104046
-0.00986268
-0.00862676
-0.00706
-9.901
-9.99304
-10.0606
-10.089
-10.1166
-10.1538
-10.2071
-10.2954
-10.4149
-10.5331
-10.6206
-10.6705
-10.6936
-10.7029
-10.7064
-10.7072
-10.7083
-10.7144
-10.7319
-10.7654
-10.8151
-10.8751
-10.934
-10.9761
-10.9852
-10.9474
-10.8539
-10.7028
-10.4996
-10.2565
-9.99139
-9.72538
-9.48141
-9.28184
-9.14624
-9.08857
-9.11425
-9.21815
-9.38481
-9.59074
-9.80803
-10.0079
-10.1638
-10.2537
-10.2621
-10.1803
-10.0073
-9.74853
-9.41486
-9.02097
-8.58343
-8.11924
-7.64458
-7.17413
-6.72051
-6.29378
-5.90098
-5.54567
-5.22801
-4.94525
-4.6927
-4.46468
-4.25536
-4.05935
-3.87196
-3.68943
-3.50884
-3.32813
-3.14596
-2.96159
-2.77476
-2.5856
-2.39447
-2.20189
-2.00846
-1.81476
-1.62126
-1.42838
-1.23644
-1.04606
-0.859119
-0.680167
-0.516789
-0.377292
-0.266712
-0.184595
-0.126266
-0.0857688
-0.0579236
-0.0389609
-0.0263063
-0.0182369
-0.0134995
-0.0111877
-0.0105044
-0.0106763
-0.0112059
-0.010861
-0.00839737
-0.00891502
-9.90986
-9.97857
-10.0401
-10.0835
-10.1249
-10.1689
-10.2183
-10.2881
-10.3826
-10.4828
-10.5644
-10.6171
-10.6456
-10.6598
-10.6671
-10.6716
-10.6761
-10.6844
-10.7011
-10.7294
-10.7695
-10.8162
-10.8601
-10.8884
-10.8874
-10.8457
-10.7558
-10.616
-10.431
-10.2114
-9.97226
-9.73212
-9.51089
-9.32806
-9.20065
-9.14109
-9.15497
-9.23916
-9.38122
-9.56075
-9.7523
-9.92879
-10.0648
-10.1393
-10.1372
-10.0505
-9.87827
-9.62586
-9.3036
-8.9251
-8.50563
-8.06078
-7.60539
-7.153
-6.71523
-6.30147
-5.91833
-5.56936
-5.25505
-4.97325
-4.71995
-4.49013
-4.27851
-4.08009
-3.89045
-3.70596
-3.52378
-3.34186
-3.15883
-2.97393
-2.78686
-2.59768
-2.40674
-2.21451
-2.02157
-1.82848
-1.63574
-1.44381
-1.25311
-1.06439
-0.879492
-0.702549
-0.540338
-0.400448
-0.287825
-0.202618
-0.140973
-0.0974972
-0.0672201
-0.0463546
-0.0322296
-0.023018
-0.0173749
-0.0143413
-0.0130236
-0.012739
-0.0126296
-0.0122613
-0.00842261
-0.0107512
-9.91574
-9.97325
-10.0311
-10.0795
-10.1241
-10.1688
-10.216
-10.2763
-10.3555
-10.4421
-10.5171
-10.5696
-10.6006
-10.6174
-10.6271
-10.6341
-10.6412
-10.6512
-10.667
-10.6909
-10.7225
-10.7576
-10.7883
-10.8043
-10.7943
-10.7489
-10.6619
-10.5321
-10.3634
-10.1649
-9.94959
-9.73351
-9.53393
-9.36778
-9.24972
-9.19034
-9.1945
-9.25998
-9.37672
-9.52753
-9.69003
-9.83979
-9.95337
-10.011
-9.99829
-9.90769
-9.73805
-9.49413
-9.18524
-8.82369
-8.42336
-7.99848
-7.56271
-7.12855
-6.70682
-6.30627
-5.93316
-5.59101
-5.28059
-5.00027
-4.74666
-4.51536
-4.30161
-4.10083
-3.9089
-3.72236
-3.53849
-3.35527
-3.17135
-2.98591
-2.79862
-2.60951
-2.41886
-2.2271
-2.03478
-1.84243
-1.6506
-1.45976
-1.27047
-1.08361
-0.901043
-0.726552
-0.566134
-0.426546
-0.312445
-0.224414
-0.159389
-0.11264
-0.0795296
-0.0563423
-0.0403513
-0.0296386
-0.0227684
-0.0187234
-0.0165139
-0.0155326
-0.0145838
-0.0139684
-0.00866228
-0.0124547
-9.92072
-9.9713
-10.0246
-10.073
-10.1179
-10.1625
-10.2089
-10.2639
-10.332
-10.4068
-10.4743
-10.5244
-10.5562
-10.5749
-10.5866
-10.5957
-10.6047
-10.6156
-10.6305
-10.6504
-10.6747
-10.6999
-10.7195
-10.725
-10.7073
-10.6588
-10.5744
-10.4532
-10.2988
-10.1188
-9.92463
-9.73001
-9.54995
-9.39908
-9.29002
-9.23174
-9.2282
-9.27737
-9.37079
-9.49385
-9.62725
-9.74953
-9.83972
-9.87976
-9.8564
-9.76222
-9.59577
-9.36095
-9.06586
-8.72144
-8.34019
-7.93506
-7.5186
-7.10237
-6.69642
-6.30896
-5.94593
-5.61082
-5.30463
-5.02619
-4.77267
-4.54024
-4.32465
-4.1217
-3.9276
-3.73908
-3.55354
-3.36904
-3.18421
-2.99825
-2.81076
-2.62174
-2.43141
-2.24017
-2.04852
-1.85698
-1.66611
-1.47645
-1.28864
-1.10371
-0.923542
-0.751665
-0.593372
-0.454583
-0.339543
-0.249093
-0.180846
-0.130735
-0.0945378
-0.0687003
-0.0505002
-0.037958
-0.0295586
-0.0242261
-0.020879
-0.0189684
-0.0169951
-0.0159077
-0.00909536
-0.0139315
-9.92439
-9.9698
-10.0185
-10.0653
-10.1097
-10.1538
-10.1992
-10.25
-10.3096
-10.3741
-10.434
-10.4809
-10.5128
-10.533
-10.5464
-10.557
-10.5671
-10.5783
-10.5917
-10.6079
-10.626
-10.6429
-10.6533
-10.6502
-10.6263
-10.5754
-10.4936
-10.3801
-10.2382
-10.0745
-9.89881
-9.72306
-9.5602
-9.42283
-9.32181
-9.26474
-9.2548
-9.28997
-9.36279
-9.46065
-9.56699
-9.66318
-9.73076
-9.75359
-9.71958
-9.62166
-9.45807
-9.23185
-8.94992
-8.62187
-8.25889
-7.87267
-7.47472
-7.0757
-6.68496
-6.31019
-5.95707
-5.62903
-5.32727
-5.05101
-4.79792
-4.56468
-4.34753
-4.14267
-3.94657
-3.75621
-3.56909
-3.38335
-3.19766
-3.01118
-2.82351
-2.63459
-2.44459
-2.25387
-2.06291
-1.87222
-1.68235
-1.49391
-1.30762
-1.12462
-0.946837
-0.777561
-0.621497
-0.4838
-0.368244
-0.275792
-0.204603
-0.151218
-0.111845
-0.0831509
-0.0624779
-0.0478262
-0.0376254
-0.0307487
-0.0260327
-0.0229702
-0.0198023
-0.0180207
-0.00971046
-0.0151073
-9.92668
-9.96798
-10.0127
-10.0573
-10.1005
-10.1434
-10.1873
-10.2344
-10.2869
-10.343
-10.396
-10.4394
-10.4708
-10.4921
-10.5068
-10.5183
-10.5288
-10.5395
-10.5512
-10.5639
-10.5765
-10.5865
-10.5893
-10.5793
-10.5506
-10.4981
-10.4189
-10.3125
-10.1817
-10.0323
-9.87281
-9.71354
-9.56564
-9.43997
-9.34582
-9.28964
-9.274
-9.29693
-9.35174
-9.42741
-9.50956
-9.58206
-9.62879
-9.63548
-9.59122
-9.48944
-9.32816
-9.10967
-8.83981
-8.52694
-8.18098
-7.81249
-7.43196
-7.0492
-6.67293
-6.31034
-5.96683
-5.64578
-5.34854
-5.07467
-4.82229
-4.58854
-4.37009
-4.16354
-3.96564
-3.77356
-3.58498
-3.39808
-3.21157
-3.02461
-2.83677
-2.64795
-2.4583
-2.26813
-2.07787
-1.88806
-1.69923
-1.51205
-1.32733
-1.14626
-0.970797
-0.804029
-0.650162
-0.513684
-0.397908
-0.303813
-0.229983
-0.173498
-0.130987
-0.0993548
-0.0760446
-0.0590736
-0.0468453
-0.0381972
-0.031901
-0.0274781
-0.0229599
-0.0202687
-0.0105045
-0.0159341
-9.92769
-9.9656
-10.0069
-10.0489
-10.0905
-10.1317
-10.1734
-10.217
-10.264
-10.3131
-10.3601
-10.4
-10.4304
-10.452
-10.4675
-10.4794
-10.4898
-10.4996
-10.5093
-10.5186
-10.5265
-10.5306
-10.5271
-10.5116
-10.4793
-10.426
-10.3495
-10.2496
-10.1287
-9.99208
-9.84688
-9.70202
-9.56712
-9.45148
-9.36303
-9.30724
-9.2862
-9.29806
-9.33687
-9.39295
-9.45376
-9.50521
-9.53324
-9.52527
-9.47156
-9.36603
-9.20661
-8.99498
-8.73604
-8.43706
-8.1068
-7.75478
-7.39052
-7.02308
-6.66052
-6.30957
-5.97535
-5.66117
-5.3685
-5.09719
-4.84573
-4.61171
-4.39221
-4.18417
-3.98463
-3.79098
-3.60103
-3.41304
-3.22575
-3.03834
-2.85036
-2.66167
-2.47238
-2.28277
-2.09327
-1.90436
-1.71664
-1.53077
-1.34764
-1.1685
-0.995296
-0.830918
-0.679145
-0.543908
-0.428099
-0.33265
-0.25646
-0.19707
-0.151511
-0.11694
-0.0909176
-0.0714977
-0.0570779
-0.046476
-0.0384191
-0.0324487
-0.0264408
-0.0226365
-0.0114846
-0.0163989
-9.92753
-9.96255
-10.0007
-10.0402
-10.0796
-10.1188
-10.1582
-10.1985
-10.2408
-10.2842
-10.326
-10.3625
-10.3914
-10.4128
-10.4284
-10.4403
-10.4502
-10.4588
-10.4664
-10.4726
-10.4763
-10.4754
-10.4668
-10.4469
-10.4118
-10.3583
-10.2846
-10.1907
-10.0789
-9.95357
-9.82097
-9.68875
-9.56514
-9.4581
-9.37435
-9.31851
-9.29228
-9.29396
-9.31831
-9.35685
-9.39864
-9.43138
-9.44274
-9.42164
-9.35937
-9.25038
-9.09253
-8.88705
-8.63803
-8.35175
-8.036
-7.69928
-7.35027
-6.99726
-6.64771
-6.3079
-5.98267
-5.67523
-5.38717
-5.11855
-4.86823
-4.63417
-4.41384
-4.2045
-4.00348
-3.80838
-3.61714
-3.42811
-3.2401
-3.05227
-2.86416
-2.67562
-2.48671
-2.2977
-2.10897
-1.92102
-1.73444
-1.54994
-1.36844
-1.19123
-1.02022
-0.858108
-0.708305
-0.574266
-0.458525
-0.361947
-0.283651
-0.221555
-0.173057
-0.135575
-0.106811
-0.0848702
-0.0681555
-0.0554714
-0.0455162
-0.0378444
-0.0302302
-0.0251294
-0.0126644
-0.0165286
-9.92628
-9.95876
-9.99412
-10.031
-10.0681
-10.1051
-10.1419
-10.1792
-10.2174
-10.2561
-10.2934
-10.3265
-10.3536
-10.3742
-10.3896
-10.4011
-10.4102
-10.4174
-10.4229
-10.4262
-10.4262
-10.4211
-10.4084
-10.385
-10.3479
-10.2946
-10.2237
-10.1354
-10.0317
-9.91638
-9.7949
-9.67376
-9.55997
-9.46029
-9.38041
-9.32421
-9.29305
-9.28536
-9.29656
-9.31927
-9.34396
-9.35992
-9.35633
-9.32343
-9.25344
-9.14126
-8.98481
-8.78489
-8.54493
-8.27037
-7.96806
-7.64564
-7.31096
-6.97159
-6.63441
-6.30528
-5.98876
-5.68796
-5.40453
-5.13874
-4.88975
-4.65588
-4.43493
-4.22449
-4.02215
-3.82572
-3.63327
-3.44328
-3.25457
-3.06634
-2.87813
-2.68974
-2.50124
-2.31284
-2.12492
-1.93797
-1.75258
-1.56949
-1.38964
-1.21435
-1.04546
-0.8855
-0.737535
-0.604622
-0.488993
-0.391445
-0.311265
-0.246668
-0.195363
-0.155021
-0.123503
-0.098991
-0.0799093
-0.0650547
-0.0531051
-0.0436173
-0.0343105
-0.0277592
-0.0140527
-0.0163882
-9.92401
-9.95418
-9.98696
-10.0213
-10.056
-10.0906
-10.1249
-10.1593
-10.1939
-10.2285
-10.2618
-10.2918
-10.3168
-10.3364
-10.3511
-10.362
-10.37
-10.3757
-10.3791
-10.3797
-10.3765
-10.3678
-10.3517
-10.3256
-10.2871
-10.2343
-10.1662
-10.083
-9.98658
-9.88022
-9.76853
-9.65706
-9.55177
-9.45838
-9.38168
-9.32488
-9.28906
-9.27279
-9.27207
-9.28047
-9.28975
-9.29058
-9.2735
-9.22993
-9.15292
-9.03784
-8.88262
-8.68777
-8.45613
-8.1924
-7.9026
-7.59356
-7.27236
-6.94591
-6.62054
-6.30167
-5.9936
-5.69933
-5.42055
-5.15772
-4.91026
-4.67679
-4.45544
-4.24409
-4.0406
-3.84296
-3.64942
-3.45851
-3.26915
-3.08055
-2.89224
-2.70403
-2.51594
-2.32817
-2.14109
-1.95516
-1.771
-1.58934
-1.41116
-1.23776
-1.07093
-0.913008
-0.766756
-0.634885
-0.519374
-0.420962
-0.339073
-0.272165
-0.218208
-0.175093
-0.14084
-0.113725
-0.0922166
-0.0751185
-0.0611006
-0.049711
-0.0386521
-0.0305288
-0.0156381
-0.0160681
-9.92076
-9.94883
-9.9792
-10.0111
-10.0434
-10.0756
-10.1074
-10.1389
-10.1704
-10.2014
-10.2312
-10.2581
-10.281
-10.2992
-10.313
-10.3229
-10.3298
-10.3339
-10.3353
-10.3335
-10.3274
-10.3157
-10.2968
-10.2686
-10.2292
-10.1772
-10.1117
-10.0332
-9.94334
-9.84487
-9.74175
-9.6387
-9.54074
-9.45268
-9.37853
-9.32095
-9.28076
-9.25666
-9.24515
-9.24066
-9.23606
-9.22324
-9.19399
-9.14075
-9.05735
-8.93958
-8.78544
-8.59522
-8.37123
-8.11752
-7.83938
-7.54287
-7.23438
-6.92017
-6.60605
-6.29703
-5.99716
-5.70932
-5.43522
-5.17547
-4.9297
-4.69685
-4.47532
-4.26327
-4.0588
-3.86009
-3.66554
-3.4738
-3.28383
-3.09489
-2.9065
-2.71847
-2.5308
-2.34368
-2.15745
-1.97258
-1.78966
-1.60946
-1.43295
-1.26141
-1.09656
-0.940557
-0.795899
-0.664988
-0.549584
-0.450377
-0.366909
-0.297848
-0.24139
-0.195613
-0.158682
-0.128968
-0.104999
-0.0855989
-0.0694488
-0.0560849
-0.0432272
-0.0334352
-0.017388
-0.0156699
-9.91661
-9.94271
-9.97083
-10.0003
-10.0303
-10.0601
-10.0895
-10.1183
-10.1468
-10.1747
-10.2013
-10.2254
-10.2461
-10.2628
-10.2753
-10.2841
-10.2897
-10.2923
-10.2917
-10.2876
-10.2791
-10.2649
-10.2437
-10.2139
-10.174
-10.1228
-10.06
-9.98577
-9.90167
-9.81014
-9.71449
-9.61872
-9.52703
-9.44346
-9.37133
-9.31282
-9.26854
-9.23731
-9.21606
-9.19999
-9.18291
-9.15784
-9.11761
-9.05561
-8.9664
-8.84615
-8.69298
-8.50696
-8.29
-8.04556
-7.77826
-7.49348
-7.19694
-6.89433
-6.59092
-6.29138
-5.99946
-5.71794
-5.44853
-5.19195
-4.94806
-4.71602
-4.49452
-4.28196
-4.07669
-3.87706
-3.68162
-3.48913
-3.2986
-3.10935
-2.92091
-2.73307
-2.54583
-2.35937
-2.174
-1.99019
-1.80854
-1.6298
-1.45494
-1.28522
-1.12227
-0.968078
-0.824902
-0.694873
-0.57956
-0.479608
-0.394661
-0.323573
-0.26474
-0.216412
-0.176882
-0.144609
-0.118178
-0.0964462
-0.078118
-0.0627199
-0.0480219
-0.0364809
-0.0192649
-0.015292
-9.91161
-9.93587
-9.96187
-9.9891
-10.0168
-10.0443
-10.0713
-10.0976
-10.1234
-10.1484
-10.1721
-10.1936
-10.2121
-10.227
-10.2382
-10.2457
-10.2499
-10.2509
-10.2486
-10.2424
-10.2317
-10.2154
-10.1924
-10.1614
-10.1213
-10.0711
-10.0106
-9.94031
-9.86135
-9.77588
-9.68672
-9.5972
-9.51084
-9.43101
-9.36043
-9.30088
-9.25279
-9.21508
-9.18507
-9.15861
-9.13036
-9.09429
-9.04421
-8.97432
-8.87984
-8.75733
-8.60501
-8.42282
-8.2123
-7.97642
-7.71919
-7.44537
-7.16007
-6.8684
-6.5752
-6.28473
-6.00052
-5.72519
-5.46047
-5.20716
-4.9653
-4.73427
-4.513
-4.30014
-4.09423
-3.89383
-3.69761
-3.50446
-3.31344
-3.12392
-2.93544
-2.74782
-2.56102
-2.37522
-2.19073
-2.00799
-1.8276
-1.65031
-1.47708
-1.30913
-1.14799
-0.995508
-0.853707
-0.724487
-0.609248
-0.508593
-0.422251
-0.34924
-0.288139
-0.237356
-0.195305
-0.160525
-0.13166
-0.107595
-0.0870688
-0.069598
-0.0530264
-0.0396729
-0.0212392
-0.0150175
-9.90582
-9.92834
-9.95234
-9.97742
-10.0029
-10.0282
-10.0529
-10.0768
-10.1
-10.1224
-10.1434
-10.1625
-10.1788
-10.192
-10.2016
-10.2078
-10.2106
-10.21
-10.2059
-10.1979
-10.1853
-10.1673
-10.1428
-10.111
-10.0708
-10.0217
-9.9635
-9.89663
-9.8222
-9.742
-9.65842
-9.57424
-9.49238
-9.41562
-9.34619
-9.28552
-9.23388
-9.1903
-9.15242
-9.11667
-9.07845
-9.03256
-8.97365
-8.89669
-8.79746
-8.6729
-8.52136
-8.34265
-8.13805
-7.91005
-7.66215
-7.39855
-7.12378
-6.84245
-6.55893
-6.27715
-6.00038
-5.73112
-5.47107
-5.22111
-4.98141
-4.75157
-4.53073
-4.31775
-4.11139
-3.91036
-3.7135
-3.51976
-3.32833
-3.13858
-2.9501
-2.7627
-2.57636
-2.39123
-2.20761
-2.02594
-1.84681
-1.67096
-1.49932
-1.33307
-1.17366
-1.02278
-0.882258
-0.753778
-0.638597
-0.537276
-0.449614
-0.374775
-0.3115
-0.258347
-0.213845
-0.176613
-0.145349
-0.118969
-0.096245
-0.0766851
-0.058219
-0.0430096
-0.0232862
-0.0149005
-9.89932
-9.92018
-9.9423
-9.96534
-9.98872
-10.0118
-10.0343
-10.056
-10.0769
-10.0968
-10.1153
-10.1321
-10.1464
-10.1577
-10.1657
-10.1705