/*--------------------------------*- C++ -*----------------------------------*\
  =========                 |
  \\      /  F ield         | OpenFOAM: The Open Source CFD Toolbox
   \\    /   O peration     | Website:  https://openfoam.org
    \\  /    A nd           | Version:  10
     \\/     M anipulation  |
\*---------------------------------------------------------------------------*/
FoamFile
{
    format      ascii;
    class       surfaceScalarField;
    location    "1900";
    object      phi;
}
// * * * * * * * * * * * * * * * * * * * * * * * * * * * * * * * * * * * * * //

dimensions      [0 3 -1 0 0 0 0];

internalField   nonuniform List<scalar> 
13452
(
6.0292e-05
-2.3584e-08
5.99941e-05
2.97994e-07
5.95902e-05
4.03841e-07
5.91164e-05
4.73838e-07
5.86123e-05
5.04105e-07
5.81313e-05
4.80991e-07
5.76954e-05
4.3585e-07
5.7305e-05
3.90395e-07
5.69546e-05
3.50407e-07
5.66384e-05
3.1622e-07
5.63511e-05
2.87324e-07
5.60881e-05
2.62998e-07
5.58457e-05
2.42421e-07
5.56208e-05
2.24847e-07
5.54111e-05
2.09691e-07
5.52146e-05
1.96517e-07
5.50296e-05
1.85e-07
5.48547e-05
1.74907e-07
5.46886e-05
1.66075e-07
5.45302e-05
1.58401e-07
5.43784e-05
1.51841e-07
5.4232e-05
1.46411e-07
5.40898e-05
1.42196e-07
5.39504e-05
1.39381e-07
5.38121e-05
1.38308e-07
5.36726e-05
1.39519e-07
5.35286e-05
1.4402e-07
5.33755e-05
1.53036e-07
5.32014e-05
1.74135e-07
5.30199e-05
1.81516e-07
5.27404e-05
2.79445e-07
5.23003e-05
4.40072e-07
5.59215e-07
5.17411e-05
6.21472e-05
-1.80438e-07
6.21733e-05
2.71931e-07
6.21953e-05
3.81776e-07
6.2212e-05
4.57196e-07
6.22123e-05
5.03759e-07
6.21825e-05
5.10827e-07
6.2121e-05
4.97285e-07
6.20342e-05
4.77264e-07
6.19295e-05
4.5508e-07
6.18136e-05
4.32166e-07
6.16912e-05
4.09667e-07
6.15659e-05
3.88332e-07
6.14398e-05
3.68458e-07
6.13146e-05
3.50095e-07
6.11911e-05
3.33206e-07
6.10699e-05
3.17727e-07
6.09513e-05
3.03586e-07
6.08355e-05
2.90717e-07
6.07225e-05
2.79075e-07
6.06122e-05
2.68642e-07
6.05046e-05
2.59433e-07
6.03995e-05
2.51513e-07
6.02967e-05
2.45012e-07
6.0196e-05
2.40146e-07
6.0097e-05
2.37295e-07
5.99995e-05
2.36983e-07
5.99032e-05
2.40316e-07
5.98082e-05
2.48016e-07
5.97147e-05
2.67625e-07
5.96127e-05
2.83541e-07
5.95288e-05
3.63317e-07
5.94814e-05
4.87465e-07
5.73308e-07
5.94674e-05
6.36687e-05
-8.77427e-08
6.37277e-05
2.12966e-07
6.3788e-05
3.21454e-07
6.38518e-05
3.93438e-07
6.39069e-05
4.48659e-07
6.39439e-05
4.73827e-07
6.39626e-05
4.78515e-07
6.39659e-05
4.73977e-07
6.39563e-05
4.64649e-07
6.39363e-05
4.52249e-07
6.39078e-05
4.38166e-07
6.38726e-05
4.23462e-07
6.38323e-05
4.08755e-07
6.3788e-05
3.94384e-07
6.37407e-05
3.80558e-07
6.3691e-05
3.67417e-07
6.36395e-05
3.5506e-07
6.35867e-05
3.43563e-07
6.35328e-05
3.32996e-07
6.3478e-05
3.23444e-07
6.34224e-05
3.15017e-07
6.3366e-05
3.07867e-07
6.33088e-05
3.02218e-07
6.32506e-05
2.98384e-07
6.3191e-05
2.96859e-07
6.31297e-05
2.98311e-07
6.3066e-05
3.03969e-07
6.2999e-05
3.15042e-07
6.29298e-05
3.36877e-07
6.28488e-05
3.64452e-07
6.27857e-05
4.26492e-07
6.27588e-05
5.14351e-07
5.94773e-07
6.27373e-05
6.55169e-05
-2.1556e-08
6.5558e-05
1.71827e-07
6.55952e-05
2.84265e-07
6.56365e-05
3.52191e-07
6.56791e-05
4.05993e-07
6.57164e-05
4.36596e-07
6.57465e-05
4.48374e-07
6.57698e-05
4.50665e-07
6.57866e-05
4.47889e-07
6.57972e-05
4.41645e-07
6.58022e-05
4.33133e-07
6.58023e-05
4.23347e-07
6.57981e-05
4.12931e-07
6.57903e-05
4.02282e-07
6.57791e-05
3.91678e-07
6.57652e-05
3.81335e-07
6.57489e-05
3.71422e-07
6.57303e-05
3.62087e-07
6.57099e-05
3.53469e-07
6.56876e-05
3.45716e-07
6.56636e-05
3.39006e-07
6.56379e-05
3.33557e-07
6.56105e-05
3.29662e-07
6.55811e-05
3.27713e-07
6.55497e-05
3.28277e-07
6.55159e-05
3.32113e-07
6.54794e-05
3.40441e-07
6.54399e-05
3.54627e-07
6.53986e-05
3.78097e-07
6.5353e-05
4.10116e-07
6.53158e-05
4.63672e-07
6.52941e-05
5.36045e-07
6.1037e-07
6.52785e-05
6.74275e-05
7.69284e-09
6.7448e-05
1.51337e-07
6.74717e-05
2.60554e-07
6.75001e-05
3.23841e-07
6.75336e-05
3.72527e-07
6.75664e-05
4.03699e-07
6.75962e-05
4.18647e-07
6.76224e-05
4.24472e-07
6.7645e-05
4.25265e-07
6.76641e-05
4.22555e-07
6.76798e-05
4.17416e-07
6.76924e-05
4.10778e-07
6.7702e-05
4.0327e-07
6.7709e-05
3.95298e-07
6.77135e-05
3.87155e-07
6.77158e-05
3.79077e-07
6.7716e-05
3.71262e-07
6.77142e-05
3.63887e-07
6.77105e-05
3.57125e-07
6.77051e-05
3.5116e-07
6.76979e-05
3.46206e-07
6.76889e-05
3.42522e-07
6.76781e-05
3.40441e-07
6.76654e-05
3.40393e-07
6.76507e-05
3.42967e-07
6.76339e-05
3.48932e-07
6.7615e-05
3.59389e-07
6.7594e-05
3.75627e-07
6.75722e-05
3.99913e-07
6.75492e-05
4.33095e-07
6.75317e-05
4.81115e-07
6.75266e-05
5.41146e-07
6.05065e-07
6.75319e-05
6.93699e-05
2.17828e-08
6.93827e-05
1.38545e-07
6.94045e-05
2.38824e-07
6.94289e-05
2.99413e-07
6.9457e-05
3.44374e-07
6.94856e-05
3.75134e-07
6.95124e-05
3.91806e-07
6.95373e-05
3.99667e-07
6.956e-05
4.02493e-07
6.95807e-05
4.01852e-07
6.95994e-05
3.98766e-07
6.9616e-05
3.94111e-07
6.96308e-05
3.88506e-07
6.96438e-05
3.82355e-07
6.9655e-05
3.75956e-07
6.96645e-05
3.69552e-07
6.96724e-05
3.63351e-07
6.96787e-05
3.57543e-07
6.96835e-05
3.52316e-07
6.96868e-05
3.47872e-07
6.96886e-05
3.44444e-07
6.96888e-05
3.42307e-07
6.96874e-05
3.41809e-07
6.96844e-05
3.43385e-07
6.96798e-05
3.47602e-07
6.96736e-05
3.55175e-07
6.96659e-05
3.67047e-07
6.96572e-05
3.84311e-07
6.96487e-05
4.08492e-07
6.96412e-05
4.40535e-07
6.96397e-05
4.8267e-07
6.96481e-05
5.32708e-07
5.87682e-07
6.96655e-05
7.13588e-05
2.92791e-08
7.13696e-05
1.27804e-07
7.13906e-05
2.17811e-07
7.14135e-05
2.76513e-07
7.14388e-05
3.1911e-07
7.14646e-05
3.49249e-07
7.14894e-05
3.67026e-07
7.15128e-05
3.76325e-07
7.15347e-05
3.8055e-07
7.15552e-05
3.81318e-07
7.15744e-05
3.7963e-07
7.15922e-05
3.76328e-07
7.16086e-05
3.72029e-07
7.16238e-05
3.67147e-07
7.16378e-05
3.61989e-07
7.16506e-05
3.56806e-07
7.16621e-05
3.51812e-07
7.16724e-05
3.47206e-07
7.16816e-05
3.43183e-07
7.16895e-05
3.39952e-07
7.16962e-05
3.37752e-07
7.17016e-05
3.36861e-07
7.17058e-05
3.37618e-07
7.17088e-05
3.40438e-07
7.17105e-05
3.45835e-07
7.17113e-05
3.54436e-07
7.17113e-05
3.67001e-07
7.17112e-05
3.84377e-07
7.17122e-05
4.07528e-07
7.17157e-05
4.37055e-07
7.17248e-05
4.73588e-07
7.17418e-05
5.15712e-07
5.62083e-07
7.17674e-05
7.3402e-05
3.25973e-08
7.34117e-05
1.18063e-07
7.34311e-05
1.98398e-07
7.34529e-05
2.54745e-07
7.34765e-05
2.95447e-07
7.3501e-05
3.24826e-07
7.35246e-05
3.43353e-07
7.35471e-05
3.53838e-07
7.35685e-05
3.59226e-07
7.35886e-05
3.61134e-07
7.36077e-05
3.60557e-07
7.36257e-05
3.5831e-07
7.36427e-05
3.55011e-07
7.36588e-05
3.51092e-07
7.36739e-05
3.46873e-07
7.36881e-05
3.42616e-07
7.37014e-05
3.38543e-07
7.37137e-05
3.34859e-07
7.37251e-05
3.31766e-07
7.37356e-05
3.29474e-07
7.37451e-05
3.28218e-07
7.37537e-05
3.28267e-07
7.37614e-05
3.29938e-07
7.37683e-05
3.33607e-07
7.37744e-05
3.39719e-07
7.378e-05
3.48787e-07
7.37856e-05
3.61391e-07
7.37919e-05
3.78126e-07
7.37999e-05
3.99546e-07
7.3811e-05
4.25914e-07
7.38274e-05
4.57207e-07
7.38508e-05
4.92327e-07
5.30213e-07
7.38826e-05
7.55018e-05
3.32537e-08
7.55108e-05
1.09031e-07
7.55285e-05
1.80725e-07
7.55492e-05
2.34057e-07
7.55717e-05
2.72956e-07
7.55951e-05
3.01449e-07
7.5618e-05
3.20383e-07
7.56401e-05
3.31814e-07
7.56611e-05
3.38203e-07
7.56811e-05
3.41105e-07
7.57002e-05
3.41498e-07
7.57183e-05
3.40166e-07
7.57356e-05
3.37723e-07
7.57521e-05
3.34612e-07
7.57678e-05
3.31169e-07
7.57827e-05
3.27665e-07
7.5797e-05
3.24331e-07
7.58104e-05
3.21379e-07
7.58232e-05
3.19011e-07
7.58352e-05
3.17437e-07
7.58466e-05
3.16882e-07
7.58572e-05
3.17597e-07
7.58673e-05
3.19868e-07
7.58769e-05
3.24021e-07
7.58862e-05
3.3042e-07
7.58955e-05
3.39464e-07
7.59053e-05
3.51562e-07
7.59164e-05
3.67087e-07
7.59296e-05
3.86301e-07
7.59463e-05
4.09212e-07
7.5968e-05
4.35486e-07
7.59963e-05
4.64125e-07
4.94104e-07
7.60324e-05
7.76605e-05
3.23717e-08
7.7669e-05
1.00464e-07
7.76852e-05
1.64585e-07
7.77047e-05
2.14484e-07
7.77262e-05
2.51534e-07
7.77486e-05
2.79013e-07
7.7771e-05
2.98019e-07
7.77927e-05
3.10119e-07
7.78135e-05
3.17325e-07
7.78336e-05
3.21081e-07
7.78527e-05
3.22331e-07
7.78711e-05
3.21821e-07
7.78886e-05
3.20148e-07
7.79055e-05
3.1776e-07
7.79217e-05
3.15e-07
7.79372e-05
3.12147e-07
7.79521e-05
3.09437e-07
7.79664e-05
3.07086e-07
7.79801e-05
3.05295e-07
7.79933e-05
3.04266e-07
7.80059e-05
3.04212e-07
7.80182e-05
3.05361e-07
7.80301e-05
3.07961e-07
7.80418e-05
3.12281e-07
7.80536e-05
3.18605e-07
7.80659e-05
3.2722e-07
7.8079e-05
3.38389e-07
7.80938e-05
3.52303e-07
7.81111e-05
3.69017e-07
7.8132e-05
3.88359e-07
7.81576e-05
4.09846e-07
7.81892e-05
4.32539e-07
4.55451e-07
7.82278e-05
7.988e-05
3.06527e-08
7.98883e-05
9.22333e-08
7.99031e-05
1.49749e-07
7.99216e-05
1.96031e-07
7.9942e-05
2.31124e-07
7.99635e-05
2.57468e-07
7.99853e-05
2.76253e-07
8.00067e-05
2.88742e-07
8.00274e-05
2.96564e-07
8.00475e-05
3.01018e-07
8.00668e-05
3.03002e-07
8.00854e-05
3.03218e-07
8.01033e-05
3.02237e-07
8.01206e-05
3.00501e-07
8.01372e-05
2.98354e-07
8.01533e-05
2.96075e-07
8.01688e-05
2.93905e-07
8.01839e-05
2.92056e-07
8.01984e-05
2.90725e-07
8.02126e-05
2.90104e-07
8.02264e-05
2.90387e-07
8.024e-05
2.91774e-07
8.02535e-05
2.94474e-07
8.02671e-05
2.98698e-07
8.0281e-05
3.04653e-07
8.02957e-05
3.12528e-07
8.03116e-05
3.22461e-07
8.03294e-05
3.34506e-07
8.03499e-05
3.48574e-07
8.03739e-05
3.6438e-07
8.04023e-05
3.8138e-07
8.04362e-05
3.9871e-07
4.15446e-07
8.04762e-05
8.21626e-05
2.8509e-08
8.21705e-05
8.42991e-08
8.21843e-05
1.3602e-07
8.22016e-05
1.78653e-07
8.22211e-05
2.11664e-07
8.22418e-05
2.36759e-07
8.2263e-05
2.55086e-07
8.2284e-05
2.67706e-07
8.23046e-05
2.75938e-07
8.23247e-05
2.80928e-07
8.23442e-05
2.83513e-07
8.23631e-05
2.84347e-07
8.23813e-05
2.8397e-07
8.2399e-05
2.8281e-07
8.24162e-05
2.81203e-07
8.24328e-05
2.79428e-07
8.2449e-05
2.7772e-07
8.24648e-05
2.76285e-07
8.24802e-05
2.75312e-07
8.24953e-05
2.74978e-07
8.25103e-05
2.75456e-07
8.25251e-05
2.76917e-07
8.25401e-05
2.79526e-07
8.25553e-05
2.83441e-07
8.25712e-05
2.88801e-07
8.2588e-05
2.95707e-07
8.26063e-05
3.04202e-07
8.26265e-05
3.14239e-07
8.26495e-05
3.25636e-07
8.26758e-05
3.38046e-07
8.27063e-05
3.50921e-07
8.27415e-05
3.63485e-07
3.74898e-07
8.2782e-05
8.45101e-05
2.61804e-08
8.45177e-05
7.666e-08
8.45305e-05
1.23221e-07
8.45469e-05
1.62268e-07
8.45655e-05
1.93092e-07
8.45854e-05
2.16829e-07
8.4606e-05
2.34502e-07
8.46267e-05
2.47025e-07
8.46472e-05
2.55472e-07
8.46673e-05
2.60835e-07
8.46869e-05
2.63882e-07
8.4706e-05
2.65219e-07
8.47246e-05
2.65349e-07
8.47428e-05
2.6468e-07
8.47604e-05
2.63537e-07
8.47777e-05
2.62189e-07
8.47945e-05
2.60863e-07
8.48111e-05
2.59757e-07
8.48273e-05
2.59045e-07
8.48434e-05
2.58888e-07
8.48594e-05
2.59436e-07
8.48755e-05
2.60828e-07
8.48919e-05
2.6319e-07
8.49087e-05
2.66628e-07
8.49262e-05
2.71222e-07
8.49449e-05
2.77006e-07
8.49652e-05
2.83949e-07
8.49875e-05
2.91933e-07
8.50124e-05
3.00725e-07
8.50405e-05
3.09955e-07
8.50723e-05
3.19102e-07
8.51083e-05
3.27486e-07
3.34366e-07
8.51489e-05
8.69245e-05
2.38035e-08
8.69319e-05
6.93216e-08
8.69439e-05
1.11212e-07
8.69594e-05
1.4678e-07
8.69771e-05
1.75338e-07
8.69963e-05
1.97615e-07
8.70164e-05
2.14472e-07
8.70367e-05
2.26698e-07
8.7057e-05
2.35175e-07
8.70771e-05
2.40755e-07
8.70968e-05
2.44127e-07
8.71162e-05
2.4585e-07
8.71352e-05
2.46386e-07
8.71537e-05
2.46117e-07
8.71719e-05
2.45355e-07
8.71897e-05
2.44353e-07
8.72073e-05
2.43329e-07
8.72246e-05
2.42464e-07
8.72417e-05
2.41921e-07
8.72587e-05
2.41839e-07
8.72758e-05
2.42345e-07
8.72931e-05
2.43546e-07
8.73108e-05
2.45533e-07
8.7329e-05
2.48367e-07
8.73482e-05
2.52078e-07
8.73685e-05
2.56648e-07
8.73905e-05
2.61994e-07
8.74145e-05
2.67955e-07
8.74409e-05
2.74274e-07
8.74703e-05
2.80587e-07
8.7503e-05
2.86417e-07
8.75393e-05
2.91182e-07
2.94244e-07
8.75794e-05
8.94079e-05
2.14522e-08
8.94149e-05
6.2284e-08
8.94263e-05
9.98771e-08
8.94409e-05
1.32091e-07
8.9458e-05
1.58333e-07
8.94765e-05
1.79057e-07
8.9496e-05
1.94957e-07
8.9516e-05
2.0671e-07
8.95361e-05
2.15049e-07
8.95562e-05
2.20694e-07
8.95761e-05
2.24259e-07
8.95957e-05
2.26249e-07
8.9615e-05
2.27088e-07
8.9634e-05
2.27129e-07
8.96527e-05
2.26661e-07
8.96711e-05
2.25924e-07
8.96893e-05
2.25118e-07
8.97073e-05
2.24412e-07
8.97253e-05
2.23949e-07
8.97433e-05
2.23849e-07
8.97614e-05
2.24214e-07
8.97799e-05
2.25125e-07
8.97988e-05
2.26635e-07
8.98183e-05
2.28774e-07
8.98389e-05
2.3153e-07
8.98607e-05
2.34847e-07
8.98841e-05
2.38609e-07
8.99094e-05
2.42633e-07
8.9937e-05
2.46658e-07
8.99673e-05
2.50341e-07
9.00004e-05
2.53262e-07
9.00367e-05
2.54935e-07
2.5482e-07
9.00761e-05
9.19621e-05
1.91633e-08
9.19689e-05
5.55406e-08
9.19796e-05
8.91228e-08
9.19936e-05
1.18107e-07
9.201e-05
1.42003e-07
9.20279e-05
1.6109e-07
9.2047e-05
1.75912e-07
9.20666e-05
1.87039e-07
9.20866e-05
1.95083e-07
9.21067e-05
2.00651e-07
9.21266e-05
2.0428e-07
9.21465e-05
2.06423e-07
9.21661e-05
2.07463e-07
9.21855e-05
2.07719e-07
9.22047e-05
2.07461e-07
9.22237e-05
2.06906e-07
9.22426e-05
2.0624e-07
9.22614e-05
2.05612e-07
9.22802e-05
2.05147e-07
9.22991e-05
2.04947e-07
9.23182e-05
2.0509e-07
9.23377e-05
2.05629e-07
9.23578e-05
2.06593e-07
9.23786e-05
2.07979e-07
9.24003e-05
2.09748e-07
9.24234e-05
2.11817e-07
9.24479e-05
2.14052e-07
9.24743e-05
2.16264e-07
9.25028e-05
2.18201e-07
9.25335e-05
2.19555e-07
9.25668e-05
2.19966e-07
9.26027e-05
2.19032e-07
2.16308e-07
9.26412e-05
9.45894e-05
1.69522e-08
9.45958e-05
4.90765e-08
9.46061e-05
7.88715e-08
9.46195e-05
1.04737e-07
9.46352e-05
1.26274e-07
9.46526e-05
1.43651e-07
9.46712e-05
1.57286e-07
9.46906e-05
1.67654e-07
9.47105e-05
1.7526e-07
9.47305e-05
1.80617e-07
9.47506e-05
1.84188e-07
9.47706e-05
1.86372e-07
9.47906e-05
1.8751e-07
9.48104e-05
1.87892e-07
9.48301e-05
1.87759e-07
9.48497e-05
1.87308e-07
9.48692e-05
1.86705e-07
9.48888e-05
1.86081e-07
9.49084e-05
1.85544e-07
9.49282e-05
1.85174e-07
9.49482e-05
1.85028e-07
9.49687e-05
1.85138e-07
9.49898e-05
1.85509e-07
9.50117e-05
1.86116e-07
9.50345e-05
1.869e-07
9.50586e-05
1.87763e-07
9.5084e-05
1.88564e-07
9.51112e-05
1.89117e-07
9.51402e-05
1.89193e-07
9.51712e-05
1.88521e-07
9.52044e-05
1.86797e-07
9.52397e-05
1.83702e-07
1.78869e-07
9.52772e-05
9.72916e-05
1.48224e-08
9.72979e-05
4.28721e-08
9.73077e-05
6.90571e-08
9.73205e-05
9.19002e-08
9.73357e-05
1.11074e-07
9.73527e-05
1.26679e-07
9.73709e-05
1.39031e-07
9.73901e-05
1.48517e-07
9.74098e-05
1.55557e-07
9.74298e-05
1.60577e-07
9.745e-05
1.63972e-07
9.74703e-05
1.6609e-07
9.74906e-05
1.67231e-07
9.75108e-05
1.6765e-07
9.7531e-05
1.67561e-07
9.75512e-05
1.67139e-07
9.75714e-05
1.66529e-07
9.75916e-05
1.65845e-07
9.7612e-05
1.65173e-07
9.76326e-05
1.64577e-07
9.76535e-05
1.64094e-07
9.76749e-05
1.63738e-07
9.76969e-05
1.63496e-07
9.77197e-05
1.63326e-07
9.77435e-05
1.63158e-07
9.77683e-05
1.62885e-07
9.77945e-05
1.6237e-07
9.78222e-05
1.61438e-07
9.78515e-05
1.59886e-07
9.78826e-05
1.57483e-07
9.79154e-05
1.5398e-07
9.79499e-05
1.49126e-07
1.42625e-07
9.79862e-05
0.000100071
1.27707e-08
0.000100077
3.69032e-08
0.000100087
5.96204e-08
0.000100099
7.95217e-08
0.000100114
9.63324e-08
0.00010013
1.10111e-07
0.000100148
1.21092e-07
0.000100167
1.29588e-07
0.000100187
1.35943e-07
0.000100207
1.4051e-07
0.000100227
1.4362e-07
0.000100248
1.45572e-07
0.000100268
1.46622e-07
0.000100289
1.46995e-07
0.00010031
1.46874e-07
0.00010033
1.46412e-07
0.000100351
1.45733e-07
0.000100372
1.44931e-07
0.000100393
1.44075e-07
0.000100415
1.43211e-07
0.000100436
1.42361e-07
0.000100458
1.41522e-07
0.000100481
1.40669e-07
0.000100505
1.39749e-07
0.000100529
1.38685e-07
0.000100555
1.37371e-07
0.000100582
1.35677e-07
0.00010061
1.33447e-07
0.000100639
1.30502e-07
0.00010067
1.26653e-07
0.000100702
1.21699e-07
0.000100736
1.15448e-07
1.07667e-07
0.000100771
0.00010293
1.07907e-08
0.000102936
3.11444e-08
0.000102945
5.05086e-08
0.000102957
6.75327e-08
0.000102971
8.19805e-08
0.000102987
9.38832e-08
0.000103005
1.03415e-07
0.000103024
1.10824e-07
0.000103043
1.16387e-07
0.000103064
1.20393e-07
0.000103084
1.23115e-07
0.000103105
1.24804e-07
0.000103126
1.25679e-07
0.000103147
1.25926e-07
0.000103168
1.25704e-07
0.000103189
1.25141e-07
0.000103211
1.24338e-07
0.000103232
1.23372e-07
0.000103254
1.22295e-07
0.000103276
1.21137e-07
0.000103299
1.19906e-07
0.000103322
1.18587e-07
0.000103345
1.17146e-07
0.000103369
1.15523e-07
0.000103394
1.13641e-07
0.00010342
1.11398e-07
0.000103447
1.08675e-07
0.000103475
1.05336e-07
0.000103505
1.01231e-07
0.000103535
9.62046e-08
0.000103567
9.01021e-08
0.000103599
8.27807e-08
7.40588e-08
0.000103633
0.000105871
8.87415e-09
0.000105876
2.55689e-08
0.000105885
4.16725e-08
0.000105897
5.58695e-08
0.000105911
6.79522e-08
0.000105927
7.79348e-08
0.000105944
8.59457e-08
0.000105963
9.21768e-08
0.000105982
9.68501e-08
0.000106003
1.00196e-07
0.000106023
1.02436e-07
0.000106044
1.03775e-07
0.000106066
1.04393e-07
0.000106087
1.04445e-07
0.000106109
1.0406e-07
0.00010613
1.03342e-07
0.000106152
1.02371e-07
0.000106175
1.01206e-07
0.000106197
9.98835e-08
0.00010622
9.84191e-08
0.000106243
9.68092e-08
0.000106266
9.50304e-08
0.00010629
9.30409e-08
0.000106315
9.07812e-08
0.000106341
8.81735e-08
0.000106367
8.51262e-08
0.000106394
8.15317e-08
0.000106422
7.72756e-08
0.000106451
7.22336e-08
0.000106481
6.62853e-08
0.000106512
5.93107e-08
0.000106543
5.12106e-08
4.1844e-08
0.000106576
0.000108895
7.01247e-09
0.000108901
2.01508e-08
0.000108909
3.30671e-08
0.000108921
4.44731e-08
0.000108934
5.41837e-08
0.00010895
6.2203e-08
0.000108968
6.86251e-08
0.000108986
7.35965e-08
0.000109006
7.72897e-08
0.000109026
7.98846e-08
0.000109047
8.15562e-08
0.000109068
8.24659e-08
0.00010909
8.27563e-08
0.000109112
8.25498e-08
0.000109134
8.19476e-08
0.000109156
8.10302e-08
0.000109179
7.98577e-08
0.000109201
7.84707e-08
0.000109224
7.68909e-08
0.000109248
7.51222e-08
0.000109271
7.31509e-08
0.000109295
7.09474e-08
0.00010932
6.84666e-08
0.000109345
6.56486e-08
0.000109371
6.24215e-08
0.000109397
5.87013e-08
0.000109424
5.43974e-08
0.000109452
4.94122e-08
0.000109481
4.36493e-08
0.00010951
3.70137e-08
0.00010954
2.94203e-08
0.00010957
2.08002e-08
1.10493e-08
0.000109601
0.000112006
5.1971e-09
0.000112012
1.48645e-08
0.00011202
2.46497e-08
0.000112031
3.32875e-08
0.000112045
4.06125e-08
0.00011206
4.66244e-08
0.000112078
5.13931e-08
0.000112096
5.5028e-08
0.000112116
5.76588e-08
0.000112136
5.94208e-08
0.000112157
6.04456e-08
0.000112179
6.08543e-08
0.000112201
6.0754e-08
0.000112223
6.02353e-08
0.000112246
5.93724e-08
0.000112269
5.8222e-08
0.000112292
5.68246e-08
0.000112315
5.5204e-08
0.000112338
5.33684e-08
0.000112362
5.13106e-08
0.000112386
4.90096e-08
0.000112411
4.64307e-08
0.000112436
4.35273e-08
0.000112461
4.02421e-08
0.000112487
3.65087e-08
0.000112514
3.2254e-08
0.000112541
2.74011e-08
0.000112568
2.18717e-08
0.000112596
1.55902e-08
0.000112625
8.48698e-09
0.000112654
5.01999e-10
0.000112683
-8.40638e-09
-1.83147e-08
0.000112712
0.000115206
3.41989e-09
0.000115211
9.68723e-09
0.00011522
1.63814e-08
0.000115231
2.22601e-08
0.000115244
2.71772e-08
0.00011526
3.11345e-08
0.000115277
3.4186e-08
0.000115295
3.64116e-08
0.000115315
3.79039e-08
0.000115336
3.87586e-08
0.000115357
3.90671e-08
0.000115379
3.89129e-08
0.000115402
3.83685e-08
0.000115424
3.74938e-08
0.000115447
3.63364e-08
0.000115471
3.49302e-08
0.000115494
3.32963e-08
0.000115518
3.14428e-08
0.000115542
2.93649e-08
0.000115566
2.70465e-08
0.000115591
2.44594e-08
0.000115616
2.15664e-08
0.000115641
1.832e-08
0.000115666
1.4667e-08
0.000115692
1.05466e-08
0.000115719
5.89743e-09
0.000115745
6.54557e-10
0.000115773
-5.24241e-09
0.0001158
-1.18518e-08
0.000115828
-1.92214e-08
0.000115856
-2.73917e-08
0.000115884
-3.63826e-08
-4.62495e-08
0.000115912
0.000118498
1.67392e-09
0.000118503
4.59815e-09
0.000118511
8.22673e-09
0.000118522
1.13407e-08
0.000118535
1.38162e-08
0.000118551
1.56655e-08
0.000118568
1.69349e-08
0.000118587
1.76811e-08
0.000118607
1.79644e-08
0.000118627
1.78446e-08
0.000118649
1.73763e-08
0.000118671
1.66069e-08
0.000118694
1.55753e-08
0.000118717
1.43117e-08
0.000118741
1.28372e-08
0.000118765
1.11638e-08
0.000118789
9.29358e-09
0.000118813
7.21944e-09
0.000118837
4.92548e-09
0.000118862
2.38585e-09
0.000118887
-4.3153e-10
0.000118912
-3.56832e-09
0.000118937
-7.0688e-09
0.000118963
-1.09853e-08
0.000118989
-1.53684e-08
0.000119015
-2.02734e-08
0.000119042
-2.57498e-08
0.000119068
-3.18472e-08
0.000119095
-3.86047e-08
0.000119122
-4.60571e-08
0.000119149
-5.4225e-08
0.000119175
-6.31158e-08
-7.27647e-08
0.000119202
0.000121883
-4.62744e-11
0.000121888
-4.18349e-10
0.000121896
1.55626e-10
0.000121907
4.82281e-10
0.00012192
4.6761e-10
0.000121936
1.45834e-10
0.000121953
-4.35508e-10
0.000121972
-1.23825e-09
0.000121992
-2.22999e-09
0.000122014
-3.384e-09
0.000122036
-4.68044e-09
0.000122058
-6.10714e-09
0.000122082
-7.6579e-09
0.000122105
-9.33201e-09
0.000122129
-1.1134e-08
0.000122153
-1.30742e-08
0.000122178
-1.51686e-08
0.000122203
-1.74385e-08
0.000122227
-1.99118e-08
0.000122252
-2.26211e-08
0.000122278
-2.56049e-08
0.000122303
-2.89045e-08
0.000122328
-3.25657e-08
0.000122354
-3.66341e-08
0.00012238
-4.1157e-08
0.000122406
-4.6178e-08
0.000122432
-5.17394e-08
0.000122458
-5.78757e-08
0.000122484
-6.46168e-08
0.00012251
-7.1981e-08
0.000122535
-7.99796e-08
0.000122561
-8.8606e-08
-9.78844e-08
0.000122586
0.000125365
-1.74299e-09
0.00012537
-5.37048e-09
0.000125378
-7.85421e-09
0.000125389
-1.03587e-08
0.000125402
-1.2933e-08
0.000125418
-1.55027e-08
0.000125436
-1.80104e-08
0.000125455
-2.04324e-08
0.000125475
-2.27619e-08
0.000125497
-2.50026e-08
0.000125519
-2.7169e-08
0.000125543
-2.92837e-08
0.000125566
-3.13736e-08
0.00012559
-3.34673e-08
0.000125615
-3.55953e-08
0.00012564
-3.77893e-08
0.000125665
-4.00832e-08
0.00012569
-4.25132e-08
0.000125715
-4.51173e-08
0.00012574
-4.79359e-08
0.000125766
-5.10117e-08
0.000125791
-5.4388e-08
0.000125817
-5.81088e-08
0.000125842
-6.2217e-08
0.000125868
-6.67537e-08
0.000125893
-7.17562e-08
0.000125919
-7.72572e-08
0.000125944
-8.32827e-08
0.000125969
-8.98515e-08
0.000125994
-9.69732e-08
0.000126019
-1.04649e-07
0.000126043
-1.12864e-07
-1.21633e-07
0.000126067
0.000128947
-3.41349e-09
0.000128952
-1.02525e-08
0.00012896
-1.58116e-08
0.00012897
-2.12207e-08
0.000128984
-2.64535e-08
0.000129
-3.1368e-08
0.000129018
-3.58879e-08
0.000129037
-4.00029e-08
0.000129058
-4.37302e-08
0.00012908
-4.71027e-08
0.000129103
-5.01699e-08
0.000129127
-5.29907e-08
0.000129151
-5.5626e-08
0.000129176
-5.81346e-08
0.000129201
-6.05725e-08
0.000129226
-6.29943e-08
0.000129252
-6.5451e-08
0.000129277
-6.79935e-08
0.000129303
-7.06694e-08
0.000129328
-7.35279e-08
0.000129354
-7.66139e-08
0.000129379
-7.99742e-08
0.000129405
-8.36504e-08
0.00012943
-8.76841e-08
0.000129456
-9.21107e-08
0.000129481
-9.69629e-08
0.000129506
-1.02265e-07
0.000129531
-1.08038e-07
0.000129555
-1.14291e-07
0.000129579
-1.21029e-07
0.000129603
-1.28244e-07
0.000129626
-1.3592e-07
-1.44062e-07
0.000129648
0.000132631
-5.04495e-09
0.000132635
-1.50337e-08
0.000132643
-2.37027e-08
0.000132654
-3.21351e-08
0.000132668
-4.01686e-08
0.000132684
-4.75519e-08
0.000132702
-5.4184e-08
0.000132723
-6.00714e-08
0.000132744
-6.52542e-08
0.000132767
-6.9796e-08
0.00013279
-7.37839e-08
0.000132815
-7.73164e-08
0.00013284
-8.04895e-08
0.000132865
-8.33935e-08
0.00013289
-8.61118e-08
0.000132916
-8.87205e-08
0.000132942
-9.12905e-08
0.000132968
-9.38848e-08
0.000132994
-9.65641e-08
0.00013302
-9.93815e-08
0.000133045
-1.0239e-07
0.000133071
-1.05634e-07
0.000133097
-1.09159e-07
0.000133122
-1.13002e-07
0.000133147
-1.17197e-07
0.000133172
-1.21769e-07
0.000133196
-1.26742e-07
0.00013322
-1.32127e-07
0.000133244
-1.37931e-07
0.000133267
-1.44152e-07
0.00013329
-1.5078e-07
0.000133311
-1.57793e-07
-1.65191e-07
0.000133333
0.00013642
-6.6055e-09
0.000136424
-1.96352e-08
0.000136432
-3.14748e-08
0.000136443
-4.31224e-08
0.000136457
-5.41631e-08
0.000136474
-6.41775e-08
0.000136493
-7.30436e-08
0.000136513
-8.079e-08
0.000136536
-8.74801e-08
0.000136559
-9.32125e-08
0.000136583
-9.81217e-08
0.000136608
-1.02351e-07
0.000136634
-1.06036e-07
0.00013666
-1.093e-07
0.000136686
-1.12254e-07
0.000136712
-1.14997e-07
0.000136739
-1.17619e-07
0.000136765
-1.20197e-07
0.000136791
-1.22801e-07
0.000136817
-1.25493e-07
0.000136843
-1.28329e-07
0.000136869
-1.31357e-07
0.000136894
-1.34621e-07
0.00013692
-1.38158e-07
0.000136944
-1.42e-07
0.000136969
-1.4617e-07
0.000136993
-1.50686e-07
0.000137016
-1.55559e-07
0.000137039
-1.6079e-07
0.000137061
-1.66376e-07
0.000137083
-1.72305e-07
0.000137104
-1.78558e-07
-1.85134e-07
0.000137123
0.000140317
-8.02253e-09
0.000140321
-2.38835e-08
0.000140329
-3.90109e-08
0.00014034
-5.41964e-08
0.000140354
-6.85371e-08
0.000140372
-8.13869e-08
0.000140391
-9.26403e-08
0.000140413
-1.02357e-07
0.000140436
-1.10617e-07
0.00014046
-1.17558e-07
0.000140486
-1.23375e-07
0.000140511
-1.28265e-07
0.000140538
-1.32409e-07
0.000140564
-1.35969e-07
0.000140591
-1.39087e-07
0.000140618
-1.41888e-07
0.000140645
-1.44478e-07
0.000140672
-1.46952e-07
0.000140698
-1.49388e-07
0.000140725
-1.51857e-07
0.000140751
-1.54417e-07
0.000140777
-1.57121e-07
0.000140802
-1.60013e-07
0.000140827
-1.6313e-07
0.000140851
-1.66501e-07
0.000140875
-1.70149e-07
0.000140899
-1.74089e-07
0.000140922
-1.7833e-07
0.000140944
-1.82871e-07
0.000140965
-1.87707e-07
0.000140986
-1.92824e-07
0.000141005
-1.982e-07
-2.03828e-07
0.000141024
0.000144326
-9.13777e-09
0.000144329
-2.74096e-08
0.000144336
-4.60761e-08
0.000144347
-6.53768e-08
0.000144362
-8.3454e-08
0.00014438
-9.93824e-08
0.000144401
-1.13163e-07
0.000144423
-1.24921e-07
0.000144448
-1.34767e-07
0.000144473
-1.42906e-07
0.000144499
-1.49605e-07
0.000144526
-1.55118e-07
0.000144553
-1.59674e-07
0.000144581
-1.63471e-07
0.000144608
-1.66686e-07
0.000144636
-1.69468e-07
0.000144663
-1.71946e-07
0.000144691
-1.74225e-07
0.000144718
-1.76398e-07
0.000144744
-1.7854e-07
0.000144771
-1.8072e-07
0.000144797
-1.82989e-07
0.000144822
-1.85395e-07
0.000144847
-1.87974e-07
0.000144871
-1.90758e-07
0.000144895
-1.93765e-07
0.000144918
-1.97013e-07
0.00014494
-2.00508e-07
0.000144961
-2.04252e-07
0.000144982
-2.08241e-07
0.000145001
-2.12465e-07
0.00014502
-2.16911e-07
-2.21575e-07
0.000145038
0.000148448
-9.59092e-09
0.00014845
-2.9487e-08
0.000148457
-5.22398e-08
0.000148468
-7.65841e-08
0.000148483
-9.90724e-08
0.000148503
-1.18582e-07
0.000148525
-1.35244e-07
0.000148549
-1.49182e-07
0.000148575
-1.60572e-07
0.000148602
-1.69773e-07
0.000148629
-1.77184e-07
0.000148657
-1.83147e-07
0.000148686
-1.87946e-07
0.000148714
-1.91828e-07
0.000148742
-1.95002e-07
0.00014877
-1.97641e-07
0.000148798
-1.9989e-07
0.000148826
-2.01868e-07
0.000148853
-2.03675e-07
0.00014888
-2.05393e-07
0.000148907
-2.07091e-07
0.000148932
-2.08827e-07
0.000148958
-2.10648e-07
0.000148982
-2.12591e-07
0.000149006
-2.14686e-07
0.000149029
-2.16954e-07
0.000149052
-2.1941e-07
0.000149073
-2.22063e-07
0.000149094
-2.24912e-07
0.000149114
-2.27953e-07
0.000149132
-2.31172e-07
0.00014915
-2.34546e-07
-2.3807e-07
0.000149166
0.000152688
-8.36892e-09
0.000152687
-2.86737e-08
0.000152692
-5.72727e-08
0.000152703
-8.78853e-08
0.000152719
-1.14956e-07
0.000152739
-1.38194e-07
0.000152762
-1.58084e-07
0.000152787
-1.74548e-07
0.000152814
-1.87737e-07
0.000152843
-1.98161e-07
0.000152872
-2.06358e-07
0.000152901
-2.12765e-07
0.000152931
-2.17745e-07
0.000152961
-2.21611e-07
0.000152991
-2.24619e-07
0.00015302
-2.26978e-07
0.000153049
-2.28855e-07
0.000153077
-2.30388e-07
0.000153106
-2.31686e-07
0.000153133
-2.3284e-07
0.00015316
-2.33923e-07
0.000153186
-2.34997e-07
0.000153211
-2.36107e-07
0.000153236
-2.37293e-07
0.00015326
-2.38585e-07
0.000153283
-2.40006e-07
0.000153305
-2.41569e-07
0.000153326
-2.43285e-07
0.000153347
-2.45159e-07
0.000153366
-2.4719e-07
0.000153384
-2.49378e-07
0.000153401
-2.5172e-07
-2.54214e-07
0.000153417
0.000157046
-2.99739e-09
0.000157038
-2.06747e-08
0.000157042
-6.07424e-08
0.000157056
-1.01893e-07
0.000157076
-1.35112e-07
0.0001571
-1.62164e-07
0.000157126
-1.84505e-07
0.000157154
-2.02402e-07
0.000157183
-2.16428e-07
0.000157212
-2.27385e-07
0.000157241
-2.35915e-07
0.000157271
-2.42489e-07
0.000157301
-2.47508e-07
0.000157331
-2.51305e-07
0.00015736
-2.54156e-07
0.000157389
-2.56274e-07
0.000157418
-2.57837e-07
0.000157447
-2.58983e-07
0.000157475
-2.59829e-07
0.000157503
-2.60466e-07
0.00015753
-2.60972e-07
0.000157556
-2.61406e-07
0.000157582
-2.6182e-07
0.000157607
-2.62252e-07
0.000157631
-2.62734e-07
0.000157654
-2.63288e-07
0.000157677
-2.63933e-07
0.000157698
-2.64677e-07
0.000157718
-2.65526e-07
0.000157738
-2.66475e-07
0.000157756
-2.67518e-07
0.000157773
-2.6863e-07
-2.69816e-07
0.000157788
0.000161526
9.61391e-09
0.000161505
2.07294e-10
0.000161497
-5.2736e-08
0.000161501
-1.05709e-07
0.000161515
-1.49718e-07
0.000161539
-1.86048e-07
0.000161569
-2.14564e-07
0.000161603
-2.35782e-07
0.000161638
-2.51396e-07
0.000161673
-2.62997e-07
0.000161709
-2.71608e-07
0.000161744
-2.77928e-07
0.000161779
-2.82508e-07
0.000161814
-2.85777e-07
0.000161848
-2.88052e-07
0.000161881
-2.89571e-07
0.000161914
-2.90513e-07
0.000161946
-2.9102e-07
0.000161977
-2.91201e-07
0.000162008
-2.91147e-07
0.000162038
-2.90924e-07
0.000162067
-2.90592e-07
0.000162095
-2.90194e-07
0.000162123
-2.89769e-07
0.000162149
-2.89345e-07
0.000162175
-2.88946e-07
0.0001622
-2.8859e-07
0.000162223
-2.8829e-07
0.000162246
-2.88056e-07
0.000162267
-2.87898e-07
0.000162288
-2.87825e-07
0.000162307
-2.8785e-07
-2.87973e-07
0.000162325
0.0001661
6.3587e-08
0.000166096
4.07242e-09
0.000166112
-6.93465e-08
0.000166128
-1.21332e-07
0.000166143
-1.65172e-07
0.000166162
-2.04342e-07
0.000166184
-2.36364e-07
0.000166209
-2.61046e-07
0.000166237
-2.79991e-07
0.000166269
-2.94587e-07
0.000166303
-3.0571e-07
0.000166339
-3.14051e-07
0.000166377
-3.20202e-07
0.000166416
-3.24637e-07
0.000166455
-3.27714e-07
0.000166496
-3.2971e-07
0.000166536
-3.30849e-07
0.000166576
-3.31309e-07
0.000166616
-3.31233e-07
0.000166656
-3.30736e-07
0.000166695
-3.29912e-07
0.000166733
-3.28837e-07
0.00016677
-3.27574e-07
0.000166807
-3.26173e-07
0.000166842
-3.24678e-07
0.000166876
-3.23121e-07
0.000166909
-3.21529e-07
0.000166941
-3.19922e-07