/*--------------------------------*- C++ -*----------------------------------*\
  =========                 |
  \\      /  F ield         | OpenFOAM: The Open Source CFD Toolbox
   \\    /   O peration     | Website:  https://openfoam.org
    \\  /    A nd           | Version:  10
     \\/     M anipulation  |
\*---------------------------------------------------------------------------*/
FoamFile
{
    format      ascii;
    class       volVectorField;
    location    "1900";
    object      U;
}
// * * * * * * * * * * * * * * * * * * * * * * * * * * * * * * * * * * * * * //

dimensions      [0 1 -1 0 0 0 0];

internalField   nonuniform List<vector> 
6820
(
(7.31669 -0.387303 0)
(7.31541 -0.335166 0)
(7.28424 -0.203519 0)
(7.22636 -0.111114 0)
(7.16211 -0.0567896 0)
(7.10113 -0.0270289 0)
(7.04542 -0.0112986 0)
(6.99518 -0.00310505 0)
(6.95015 0.00111528 0)
(6.90971 0.0032438 0)
(6.87311 0.00428064 0)
(6.83972 0.00475972 0)
(6.80903 0.00496262 0)
(6.78065 0.00503557 0)
(6.75424 0.00505361 0)
(6.72954 0.00505472 0)
(6.70632 0.00505767 0)
(6.68441 0.00507167 0)
(6.66364 0.00510163 0)
(6.64386 0.00515116 0)
(6.62493 0.00522445 0)
(6.6067 0.00532767 0)
(6.58905 0.00547073 0)
(6.57179 0.00566836 0)
(6.55473 0.0059465 0)
(6.53759 0.00635614 0)
(6.52009 0.00691934 0)
(6.50157 0.00770582 0)
(6.48098 0.0105736 0)
(6.45944 0.00557509 0)
(6.4295 0.0246469 0)
(6.3835 0.0480171 0)
(6.33879 0.0117688 0)
(7.33961 0.100775 0)
(7.35429 0.149913 0)
(7.35848 0.123228 0)
(7.35875 0.0898266 0)
(7.35942 0.0660087 0)
(7.35819 0.0500832 0)
(7.35296 0.0395002 0)
(7.34397 0.03254 0)
(7.33238 0.0278979 0)
(7.31916 0.0246818 0)
(7.30495 0.0223571 0)
(7.29021 0.0206092 0)
(7.27527 0.0192445 0)
(7.26035 0.0181408 0)
(7.24559 0.0172216 0)
(7.23107 0.0164395 0)
(7.21684 0.0157646 0)
(7.20293 0.0151789 0)
(7.18935 0.014672 0)
(7.17609 0.0142396 0)
(7.16313 0.0138826 0)
(7.15047 0.0136073 0)
(7.13807 0.0134266 0)
(7.12589 0.013363 0)
(7.11391 0.0134535 0)
(7.10205 0.0137563 0)
(7.09032 0.0143913 0)
(7.07846 0.0154667 0)
(7.06725 0.0174884 0)
(7.05307 0.020455 0)
(7.04431 0.0262983 0)
(7.03267 0.0362184 0)
(7.01788 0.0689822 0)
(7.32714 0.0061169 0)
(7.3243 -0.00161309 0)
(7.33134 -0.00621306 0)
(7.33979 -0.000827276 0)
(7.34687 0.00698927 0)
(7.35225 0.0127066 0)
(7.35552 0.0162064 0)
(7.35672 0.0182915 0)
(7.35625 0.0194616 0)
(7.35447 0.020018 0)
(7.35161 0.0201873 0)
(7.3479 0.0201297 0)
(7.34351 0.0199459 0)
(7.33859 0.0196969 0)
(7.33328 0.0194211 0)
(7.32766 0.0191432 0)
(7.3218 0.0188797 0)
(7.31575 0.0186421 0)
(7.30956 0.0184399 0)
(7.30325 0.0182825 0)
(7.29684 0.0181806 0)
(7.29033 0.0181482 0)
(7.28371 0.0182053 0)
(7.27696 0.0183797 0)
(7.27005 0.0187161 0)
(7.26292 0.0192758 0)
(7.25553 0.0201752 0)
(7.24769 0.0215399 0)
(7.2396 0.0238758 0)
(7.23032 0.0269019 0)
(7.22175 0.0340485 0)
(7.21654 0.0456021 0)
(7.21161 0.0617901 0)
(7.32977 -0.00401806 0)
(7.32631 0.00242592 0)
(7.33114 0.0106324 0)
(7.33683 0.0167515 0)
(7.34151 0.02029 0)
(7.34587 0.0217849 0)
(7.34972 0.0222549 0)
(7.35273 0.0223655 0)
(7.35493 0.0223334 0)
(7.35643 0.0222121 0)
(7.35728 0.0220372 0)
(7.35754 0.0218378 0)
(7.35728 0.02163 0)
(7.35658 0.0214227 0)
(7.35548 0.0212225 0)
(7.35405 0.0210359 0)
(7.35232 0.0208693 0)
(7.35033 0.0207298 0)
(7.34811 0.0206258 0)
(7.34567 0.0205677 0)
(7.34303 0.0205693 0)
(7.34019 0.020649 0)
(7.33715 0.0208324 0)
(7.33388 0.0211553 0)
(7.33038 0.0216713 0)
(7.3266 0.0224552 0)
(7.32252 0.0236336 0)
(7.31807 0.0253621 0)
(7.31336 0.0280478 0)
(7.30832 0.0317966 0)
(7.3037 0.0381431 0)
(7.30043 0.0460841 0)
(7.2981 0.05438 0)
(7.33182 -0.00100827 0)
(7.33002 0.00668402 0)
(7.33264 0.012265 0)
(7.33618 0.0150284 0)
(7.33951 0.0170283 0)
(7.34306 0.0185025 0)
(7.34655 0.0194632 0)
(7.34963 0.0201045 0)
(7.35226 0.0205437 0)
(7.35451 0.0208251 0)
(7.35639 0.0209885 0)
(7.35791 0.0210727 0)
(7.3591 0.0211058 0)
(7.35998 0.0211068 0)
(7.36059 0.0210904 0)
(7.36093 0.0210694 0)
(7.36104 0.0210555 0)
(7.36092 0.0210601 0)
(7.36058 0.0210955 0)
(7.36005 0.0211756 0)
(7.35932 0.0213178 0)
(7.35839 0.0215442 0)
(7.35725 0.0218844 0)
(7.35591 0.0223784 0)
(7.35434 0.0230831 0)
(7.35253 0.0240768 0)
(7.35048 0.0254778 0)
(7.3482 0.0274377 0)
(7.3458 0.0302225 0)
(7.34335 0.0339672 0)
(7.34126 0.0392188 0)
(7.34012 0.0455052 0)
(7.34065 0.0531774 0)
(7.33247 0.000671909 0)
(7.33167 0.00628979 0)
(7.33351 0.0105047 0)
(7.33636 0.0131087 0)
(7.33919 0.0153649 0)
(7.34215 0.0171305 0)
(7.34513 0.0182833 0)
(7.34789 0.019036 0)
(7.35039 0.0195601 0)
(7.35267 0.0199248 0)
(7.35474 0.0201738 0)
(7.3566 0.0203459 0)
(7.35824 0.0204688 0)
(7.35969 0.0205609 0)
(7.36095 0.0206366 0)
(7.36203 0.0207083 0)
(7.36293 0.0207878 0)
(7.36365 0.020887 0)
(7.36422 0.0210188 0)
(7.36461 0.0211985 0)
(7.36484 0.0214448 0)
(7.3649 0.0217815 0)
(7.36479 0.0222398 0)
(7.36451 0.022861 0)
(7.36405 0.023701 0)
(7.36341 0.0248342 0)
(7.36262 0.0263632 0)
(7.36172 0.0284138 0)
(7.3608 0.0311587 0)
(7.36003 0.034717 0)
(7.35971 0.0393416 0)
(7.36034 0.0449506 0)
(7.36256 0.0515723 0)
(7.33271 0.00109509 0)
(7.33243 0.00545065 0)
(7.33401 0.00937813 0)
(7.33656 0.012137 0)
(7.33911 0.0143489 0)
(7.34171 0.0160333 0)
(7.34434 0.0171695 0)
(7.34683 0.0179441 0)
(7.34915 0.0185078 0)
(7.35132 0.0189234 0)
(7.35335 0.0192292 0)
(7.35523 0.0194604 0)
(7.35698 0.0196435 0)
(7.3586 0.0197968 0)
(7.36008 0.0199347 0)
(7.36144 0.0200699 0)
(7.36266 0.0202146 0)
(7.36377 0.0203812 0)
(7.36474 0.0205835 0)
(7.36559 0.0208374 0)
(7.36631 0.0211623 0)
(7.36691 0.0215826 0)
(7.36737 0.0221294 0)
(7.3677 0.0228425 0)
(7.3679 0.0237739 0)
(7.368 0.0249895 0)
(7.36802 0.0265731 0)
(7.36802 0.0286219 0)
(7.36812 0.0312497 0)
(7.36846 0.0345439 0)
(7.36932 0.0386086 0)
(7.371 0.0433463 0)
(7.37401 0.0485849 0)
(7.33286 0.00125727 0)
(7.33289 0.00499557 0)
(7.33429 0.00860998 0)
(7.33654 0.0112649 0)
(7.3389 0.0133227 0)
(7.34129 0.0149246 0)
(7.3437 0.0160728 0)
(7.34602 0.0168878 0)
(7.34821 0.0174914 0)
(7.35027 0.0179463 0)
(7.35222 0.0182913 0)
(7.35406 0.0185609 0)
(7.3558 0.0187819 0)
(7.35744 0.0189733 0)
(7.35898 0.0191503 0)
(7.36043 0.0193262 0)
(7.36179 0.0195138 0)
(7.36305 0.0197259 0)
(7.36422 0.0199767 0)
(7.36529 0.0202822 0)
(7.36626 0.0206621 0)
(7.36715 0.02114 0)
(7.36793 0.0217455 0)
(7.36864 0.0225155 0)
(7.36926 0.0234956 0)
(7.36984 0.0247411 0)
(7.37041 0.0263171 0)
(7.37104 0.0282944 0)
(7.37183 0.030744 0)
(7.37293 0.0337136 0)
(7.37454 0.0372195 0)
(7.37685 0.0411545 0)
(7.38028 0.0453789 0)
(7.33295 0.00132427 0)
(7.33317 0.004631 0)
(7.33441 0.00786636 0)
(7.3364 0.0103636 0)
(7.33858 0.012314 0)
(7.34081 0.0138647 0)
(7.34306 0.0150224 0)
(7.34526 0.0158664 0)
(7.34735 0.0164991 0)
(7.34933 0.0169834 0)
(7.35122 0.0173582 0)
(7.35302 0.0176564 0)
(7.35473 0.0179047 0)
(7.35636 0.0181228 0)
(7.35791 0.0183267 0)
(7.35939 0.0185303 0)
(7.36079 0.0187467 0)
(7.36212 0.0189894 0)
(7.36338 0.0192724 0)
(7.36456 0.019612 0)
(7.36568 0.0200269 0)
(7.36673 0.0205397 0)
(7.36772 0.0211775 0)
(7.36867 0.0219727 0)
(7.36958 0.0229638 0)
(7.3705 0.0241949 0)
(7.37146 0.025714 0)
(7.37253 0.0275687 0)
(7.3738 0.0297986 0)
(7.37541 0.0324197 0)
(7.3775 0.0354104 0)
(7.3802 0.0386774 0)
(7.38386 0.0421154 0)
(7.333 0.00131722 0)
(7.33332 0.00427627 0)
(7.33444 0.00716785 0)
(7.33621 0.00950881 0)
(7.33821 0.0113656 0)
(7.34029 0.0128572 0)
(7.34241 0.0140032 0)
(7.3445 0.0148612 0)
(7.34652 0.0155148 0)
(7.34844 0.0160225 0)
(7.35028 0.0164218 0)
(7.35204 0.0167436 0)
(7.35373 0.0170141 0)
(7.35534 0.0172532 0)
(7.35689 0.0174774 0)
(7.35838 0.0177009 0)
(7.3598 0.0179375 0)
(7.36117 0.0182005 0)
(7.36248 0.0185041 0)
(7.36373 0.018864 0)
(7.36494 0.019298 0)
(7.36611 0.0198266 0)
(7.36724 0.0204739 0)
(7.36836 0.0212673 0)
(7.36948 0.0222378 0)
(7.37064 0.0234188 0)
(7.37188 0.0248434 0)
(7.37327 0.0265404 0)
(7.37489 0.0285271 0)
(7.37684 0.0307991 0)
(7.37923 0.0333196 0)
(7.38216 0.0360061 0)
(7.38592 0.0387652 0)
(7.33302 0.00126393 0)
(7.33339 0.00393486 0)
(7.33441 0.00652973 0)
(7.336 0.00870786 0)
(7.33784 0.0104648 0)
(7.33977 0.0118889 0)
(7.34177 0.0130092 0)
(7.34376 0.0138694 0)
(7.34569 0.0145355 0)
(7.34756 0.0150597 0)
(7.34936 0.0154777 0)
(7.3511 0.0158185 0)
(7.35276 0.0161068 0)
(7.35437 0.0163627 0)
(7.35592 0.0166025 0)
(7.35741 0.0168409 0)
(7.35885 0.0170914 0)
(7.36024 0.0173674 0)
(7.36159 0.0176826 0)
(7.3629 0.0180519 0)
(7.36418 0.0184916 0)
(7.36544 0.0190201 0)
(7.36668 0.0196577 0)
(7.36793 0.0204269 0)
(7.36922 0.0213513 0)
(7.37056 0.0224546 0)
(7.37202 0.0237577 0)
(7.37364 0.0252748 0)
(7.3755 0.0270079 0)
(7.37768 0.0289401 0)
(7.38026 0.0310281 0)
(7.38331 0.0331964 0)
(7.38706 0.0353587 0)
(7.33303 0.0011865 0)
(7.33342 0.00360774 0)
(7.33436 0.00594243 0)
(7.33578 0.00795371 0)
(7.33747 0.00960551 0)
(7.33928 0.0109579 0)
(7.34115 0.0120422 0)
(7.34304 0.0128931 0)
(7.34491 0.0135621 0)
(7.34672 0.014095 0)
(7.34848 0.0145251 0)
(7.35019 0.0148792 0)
(7.35184 0.0151808 0)
(7.35343 0.0154491 0)
(7.35498 0.0157003 0)
(7.35648 0.0159487 0)
(7.35794 0.0162077 0)
(7.35936 0.0164902 0)
(7.36075 0.0168093 0)
(7.3621 0.0171786 0)
(7.36344 0.0176128 0)
(7.36477 0.0181276 0)
(7.36611 0.0187396 0)
(7.36748 0.0194664 0)
(7.36889 0.0203248 0)
(7.37039 0.0213302 0)
(7.37201 0.0224937 0)
(7.3738 0.0238187 0)
(7.37583 0.025297 0)
(7.37815 0.0269043 0)
(7.38083 0.0285953 0)
(7.38392 0.0303011 0)
(7.38759 0.0319436 0)
(7.33304 0.00109774 0)
(7.33342 0.00329353 0)
(7.33428 0.00539677 0)
(7.33558 0.0072429 0)
(7.33713 0.00878599 0)
(7.33881 0.0100628 0)
(7.34058 0.0111022 0)
(7.34237 0.011933 0)
(7.34416 0.0125956 0)
(7.34592 0.0131293 0)
(7.34764 0.0135646 0)
(7.34932 0.0139262 0)
(7.35095 0.0142357 0)
(7.35254 0.0145115 0)
(7.35409 0.0147693 0)
(7.35559 0.0150228 0)
(7.35707 0.0152849 0)
(7.35851 0.0155677 0)
(7.35993 0.0158835 0)
(7.36134 0.0162443 0)
(7.36273 0.0166629 0)
(7.36413 0.0171523 0)
(7.36555 0.0177254 0)
(7.36701 0.0183951 0)
(7.36853 0.0191726 0)
(7.37015 0.0200662 0)
(7.3719 0.0210793 0)
(7.37382 0.0222077 0)
(7.37595 0.0234368 0)
(7.37836 0.0247384 0)
(7.38109 0.026068 0)
(7.38415 0.0273644 0)
(7.38771 0.0285579 0)
(7.33304 0.00100479 0)
(7.3334 0.00299184 0)
(7.3342 0.00488631 0)
(7.33539 0.00657195 0)
(7.33681 0.00800348 0)
(7.33839 0.00920067 0)
(7.34005 0.0101879 0)
(7.34176 0.0109892 0)
(7.34347 0.0116368 0)
(7.34518 0.0121637 0)
(7.34685 0.0125972 0)
(7.3485 0.01296 0)
(7.35011 0.0132719 0)
(7.35169 0.0135501 0)
(7.35324 0.0138093 0)
(7.35476 0.0140627 0)
(7.35624 0.0143222 0)
(7.35771 0.0145992 0)
(7.35916 0.0149046 0)
(7.36061 0.015249 0)
(7.36205 0.0156429 0)
(7.36352 0.0160967 0)
(7.36501 0.0166201 0)
(7.36654 0.0172214 0)
(7.36815 0.0179071 0)
(7.36986 0.01868 0)
(7.3717 0.0195378 0)
(7.37371 0.0204711 0)
(7.37592 0.0214615 0)
(7.37836 0.0224796 0)
(7.38109 0.0234836 0)
(7.38409 0.02442 0)
(7.3875 0.0252279 0)
(7.33304 0.000911602 0)
(7.33338 0.00270263 0)
(7.33412 0.0044059 0)
(7.33521 0.00593672 0)
(7.33653 0.00725483 0)
(7.338 0.00836877 0)
(7.33957 0.00929755 0)
(7.34119 0.0100613 0)
(7.34284 0.0106858 0)
(7.34449 0.0111985 0)
(7.34613 0.0116236 0)
(7.34774 0.0119814 0)
(7.34934 0.01229 0)
(7.3509 0.0125651 0)
(7.35245 0.0128205 0)
(7.35397 0.0130683 0)
(7.35547 0.0133196 0)
(7.35696 0.0135847 0)
(7.35844 0.013873 0)
(7.35992 0.0141936 0)
(7.36141 0.0145548 0)
(7.36292 0.0149646 0)
(7.36447 0.0154293 0)
(7.36608 0.0159539 0)
(7.36776 0.0165407 0)
(7.36953 0.0171883 0)
(7.37144 0.0178904 0)
(7.3735 0.0186344 0)
(7.37574 0.0194 0)
(7.37819 0.0201584 0)
(7.38087 0.0208717 0)
(7.3838 0.0214939 0)
(7.38705 0.0219722 0)
(7.33304 0.000820243 0)
(7.33336 0.00242562 0)
(7.33405 0.00395127 0)
(7.33505 0.00533304 0)
(7.33628 0.0065368 0)
(7.33765 0.00756424 0)
(7.33914 0.00842922 0)
(7.34069 0.00914832 0)
(7.34227 0.0097423 0)
(7.34387 0.0102339 0)
(7.34546 0.0106439 0)
(7.34705 0.0109907 0)
(7.34862 0.0112902 0)
(7.35017 0.0115568 0)
(7.35171 0.011803 0)
(7.35324 0.0120399 0)
(7.35475 0.0122775 0)
(7.35625 0.0125247 0)
(7.35776 0.0127897 0)
(7.35927 0.0130799 0)
(7.3608 0.0134016 0)
(7.36235 0.0137603 0)
(7.36395 0.0141597 0)
(7.3656 0.0146018 0)
(7.36734 0.0150857 0)
(7.36916 0.015607 0)
(7.37111 0.0161566 0)
(7.37319 0.0167202 0)
(7.37544 0.0172773 0)
(7.37786 0.0178007 0)
(7.38049 0.0182566 0)
(7.3833 0.0186063 0)
(7.38639 0.0188044 0)
(7.33303 0.00073168 0)
(7.33334 0.00216027 0)
(7.33398 0.00351888 0)
(7.33491 0.00475699 0)
(7.33605 0.00584617 0)
(7.33734 0.00678424 0)
(7.33875 0.00758073 0)
(7.34023 0.00824897 0)
(7.34175 0.00880567 0)
(7.3433 0.00926948 0)
(7.34485 0.00965822 0)
(7.34641 0.00998787 0)
(7.34796 0.0102727 0)
(7.3495 0.0105254 0)
(7.35104 0.0107571 0)
(7.35256 0.0109779 0)
(7.35408 0.0111964 0)
(7.3556 0.0114204 0)
(7.35712 0.0116565 0)
(7.35866 0.0119105 0)
(7.36022 0.012187 0)
(7.36181 0.0124892 0)
(7.36344 0.0128187 0)
(7.36513 0.013175 0)
(7.3669 0.0135548 0)
(7.36875 0.0139515 0)
(7.37071 0.0143546 0)
(7.3728 0.0147492 0)
(7.37503 0.0151152 0)
(7.37741 0.015428 0)
(7.37995 0.0156581 0)
(7.38265 0.0157731 0)
(7.38556 0.0157342 0)
(7.33303 0.000646238 0)
(7.33332 0.00190578 0)
(7.33391 0.00310574 0)
(7.33478 0.00420493 0)
(7.33585 0.00517972 0)
(7.33707 0.00602595 0)
(7.3384 0.00674978 0)
(7.33982 0.0073616 0)
(7.34128 0.00787483 0)
(7.34278 0.00830465 0)
(7.3443 0.00866608 0)
(7.34583 0.00897288 0)
(7.34736 0.00923749 0)
(7.34889 0.009471 0)
(7.35042 0.00968327 0)
(7.35194 0.0098829 0)
(7.35347 0.0100774 0)
(7.35499 0.0102731 0)
(7.35653 0.0104754 0)
(7.35809 0.0106885 0)
(7.35967 0.0109153 0)
(7.36128 0.0111573 0)
(7.36294 0.0114141 0)
(7.36465 0.0116834 0)
(7.36643 0.0119601 0)
(7.3683 0.0122365 0)
(7.37026 0.0125013 0)
(7.37233 0.0127396 0)
(7.37452 0.0129328 0)
(7.37684 0.0130588 0)
(7.37929 0.0130924 0)
(7.38186 0.0130067 0)
(7.3846 0.0127691 0)
(7.33303 0.000563895 0)
(7.3333 0.00166117 0)
(7.33385 0.00270922 0)
(7.33466 0.00367354 0)
(7.33567 0.0045343 0)
(7.33682 0.00528657 0)
(7.33809 0.00593396 0)
(7.33945 0.0064844 0)
(7.34087 0.0069485 0)
(7.34232 0.00733853 0)
(7.34381 0.00766694 0)
(7.34531 0.0079454 0)
(7.34682 0.00818452 0)
(7.34833 0.00839383 0)
(7.34985 0.00858175 0)
(7.35137 0.00875558 0)
(7.3529 0.00892152 0)
(7.35443 0.0090847 0)
(7.35598 0.00924912 0)
(7.35755 0.00941757 0)
(7.35914 0.00959151 0)
(7.36077 0.00977089 0)
(7.36244 0.00995394 0)
(7.36417 0.0101369 0)
(7.36595 0.0103137 0)
(7.36782 0.0104758 0)
(7.36976 0.0106118 0)
(7.3718 0.0107076 0)
(7.37393 0.0107462 0)
(7.37617 0.0107083 0)
(7.37852 0.0105725 0)
(7.38095 0.0103169 0)
(7.38353 0.00991404 0)
(7.33303 0.000484438 0)
(7.33328 0.00142538 0)
(7.3338 0.00232698 0)
(7.33456 0.00315974 0)
(7.33551 0.00390686 0)
(7.33661 0.00456329 0)
(7.33782 0.00513084 0)
(7.33913 0.00561536 0)
(7.3405 0.00602516 0)
(7.34191 0.00637001 0)
(7.34336 0.00666004 0)
(7.34484 0.00690494 0)
(7.34633 0.0071136 0)
(7.34783 0.00729398 0)
(7.34933 0.00745306 0)
(7.35085 0.00759684 0)
(7.35238 0.00773027 0)
(7.35392 0.00785721 0)
(7.35547 0.00798045 0)
(7.35705 0.0081015 0)
(7.35865 0.0082206 0)
(7.36028 0.00833648 0)
(7.36195 0.00844624 0)
(7.36368 0.0085452 0)
(7.36546 0.00862667 0)
(7.3673 0.00868186 0)
(7.36921 0.00869979 0)
(7.37121 0.00866735 0)
(7.37328 0.00856944 0)
(7.37543 0.00838935 0)
(7.37766 0.00810922 0)
(7.37997 0.00771129 0)
(7.38237 0.00717269 0)
(7.33303 0.000407561 0)
(7.33326 0.0011973 0)
(7.33376 0.00195687 0)
(7.33448 0.00266072 0)
(7.33537 0.00329448 0)
(7.33642 0.00385332 0)
(7.33758 0.0043379 0)
(7.33884 0.00475238 0)
(7.34017 0.00510311 0)
(7.34155 0.00539777 0)
(7.34297 0.00564443 0)
(7.34442 0.00585092 0)
(7.34588 0.00602448 0)
(7.34737 0.00617154 0)
(7.34887 0.00629771 0)
(7.35038 0.00640769 0)
(7.3519 0.00650519 0)
(7.35344 0.00659294 0)
(7.355 0.00667255 0)
(7.35657 0.00674448 0)
(7.35817 0.0068079 0)
(7.3598 0.00686061 0)
(7.36147 0.00689891 0)
(7.36318 0.00691755 0)
(7.36494 0.00690958 0)
(7.36676 0.00686636 0)
(7.36863 0.00677755 0)
(7.37056 0.00663127 0)
(7.37256 0.00641428 0)
(7.37462 0.0061124 0)
(7.37674 0.00571083 0)
(7.37891 0.00519541 0)
(7.38116 0.00454718 0)
(7.33302 0.000332919 0)
(7.33325 0.000975811 0)
(7.33372 0.00159691 0)
(7.3344 0.00217386 0)
(7.33525 0.00269431 0)
(7.33625 0.00315389 0)
(7.33737 0.00355255 0)
(7.33859 0.00389316 0)
(7.33988 0.00418046 0)
(7.34122 0.00442031 0)
(7.34262 0.00461897 0)
(7.34404 0.00478258 0)
(7.34549 0.00491678 0)
(7.34696 0.00502658 0)
(7.34845 0.00511622 0)
(7.34995 0.00518917 0)
(7.35147 0.00524799 0)
(7.353 0.0052943 0)
(7.35455 0.00532872 0)
(7.35612 0.00535074 0)
(7.35772 0.00535871 0)
(7.35934 0.00534971 0)
(7.361 0.00531955 0)
(7.36269 0.00526265 0)
(7.36442 0.0051721 0)
(7.3662 0.00503964 0)
(7.36802 0.00485577 0)
(7.36989 0.00460992 0)
(7.37181 0.00429063 0)
(7.37377 0.00388603 0)
(7.37577 0.00338402 0)
(7.37781 0.00277341 0)
(7.3799 0.00203862 0)
(7.33302 0.000260161 0)
(7.33324 0.000759831 0)
(7.33368 0.00124524 0)
(7.33433 0.0016967 0)
(7.33515 0.0021036 0)
(7.33611 0.0024622 0)
(7.33719 0.00277212 0)
(7.33837 0.00303527 0)
(7.33962 0.00325508 0)
(7.34094 0.00343588 0)
(7.34231 0.00358232 0)
(7.34371 0.00369896 0)
(7.34515 0.00378999 0)
(7.3466 0.00385903 0)
(7.34808 0.00390906 0)
(7.34957 0.00394235 0)
(7.35108 0.00396037 0)
(7.35261 0.00396376 0)
(7.35415 0.00395222 0)
(7.35571 0.00392447 0)
(7.35729 0.00387819 0)
(7.3589 0.00380997 0)
(7.36053 0.00371529 0)
(7.36219 0.00358851 0)
(7.36389 0.00342294 0)
(7.36562 0.00321087 0)
(7.36739 0.00294372 0)
(7.36919 0.0026122 0)
(7.37102 0.0022066 0)
(7.37288 0.00171702 0)
(7.37477 0.00113371 0)
(7.37668 0.000447972 0)
(7.37862 -0.000352963 0)
(7.33302 0.000188949 0)
(7.33323 0.000548341 0)
(7.33365 0.000900137 0)
(7.33427 0.00122691 0)
(7.33506 0.00151965 0)
(7.33599 0.0017754 0)
(7.33703 0.00199379 0)
(7.33818 0.00217607 0)
(7.33941 0.00232463 0)
(7.3407 0.00244247 0)
(7.34204 0.00253283 0)
(7.34343 0.00259887 0)
(7.34484 0.00264339 0)
(7.34629 0.0026687 0)
(7.34775 0.00267658 0)
(7.34923 0.00266818 0)
(7.35073 0.00264398 0)
(7.35224 0.00260369 0)
(7.35377 0.00254625 0)
(7.35532 0.00246973 0)
(7.35689 0.00237129 0)
(7.35847 0.00224718 0)
(7.36008 0.00209274 0)
(7.36171 0.00190245 0)
(7.36336 0.00166993 0)
(7.36504 0.00138814 0)
(7.36674 0.00104942 0)
(7.36847 0.000645766 0)
(7.37022 0.000168959 0)
(7.37198 -0.000389085 0)
(7.37375 -0.00103619 0)
(7.37553 -0.00177901 0)
(7.37733 -0.00262793 0)
(7.33302 0.000118974 0)
(7.33322 0.000340417 0)
(7.33362 0.000560023 0)
(7.33422 0.000762296 0)
(7.33498 0.00093978 0)
(7.33588 0.00109057 0)
(7.3369 0.00121458 0)
(7.33802 0.00131268 0)
(7.33922 0.00138643 0)
(7.34049 0.00143773 0)
(7.34181 0.00146858 0)
(7.34318 0.00148083 0)
(7.34458 0.00147597 0)
(7.34601 0.00145513 0)
(7.34747 0.00141892 0)
(7.34894 0.00136745 0)
(7.35042 0.00130026 0)
(7.35192 0.00121628 0)
(7.35344 0.00111375 0)
(7.35497 0.000990193 0)
(7.35651 0.000842413 0)
(7.35807 0.000666445 0)
(7.35965 0.000457629 0)
(7.36124 0.000210616 0)
(7.36284 -8.0505e-05 0)
(7.36447 -0.000422132 0)
(7.3661 -0.000820972 0)
(7.36775 -0.00128391 0)
(7.36941 -0.00181776 0)
(7.37107 -0.00242913 0)
(7.37274 -0.00312415 0)
(7.3744 -0.00390787 0)
(7.37606 -0.00478861 0)
(7.33302 4.99876e-05 0)
(7.33321 0.000135282 0)
(7.3336 0.000223494 0)
(7.33418 0.000300759 0)
(7.33491 0.000361318 0)
(7.33579 0.000404635 0)
(7.33678 0.000431238 0)
(7.33788 0.000441864 0)
(7.33907 0.000437429 0)
(7.34032 0.00041892 0)
(7.34163 0.000387214 0)
(7.34298 0.000342937 0)
(7.34437 0.000286393 0)
(7.34579 0.00021753 0)
(7.34723 0.000135904 0)
(7.34868 4.06537e-05 0)
(7.35016 -6.95379e-05 0)
(7.35164 -0.000196472 0)
(7.35314 -0.000342489 0)
(7.35465 -0.000510496 0)
(7.35617 -0.00070398 0)
(7.3577 -0.000927009 0)
(7.35924 -0.00118417 0)
(7.36079 -0.00148055 0)
(7.36234 -0.00182159 0)
(7.36391 -0.00221301 0)
(7.36548 -0.00266065 0)
(7.36705 -0.00317037 0)
(7.36862 -0.00374781 0)
(7.37019 -0.00439825 0)
(7.37174 -0.00512649 0)
(7.37328 -0.00593627 0)
(7.37482 -0.00683424 0)
(7.33302 -1.81699e-05 0)
(7.3332 -6.75992e-05 0)
(7.33358 -0.000110595 0)
(7.33414 -0.000159657 0)
(7.33485 -0.000218483 0)
(7.33571 -0.0002857 0)
(7.33669 -0.000359817 0)
(7.33777 -0.000440037 0)
(7.33894 -0.000525909 0)
(7.34018 -0.000617223 0)
(7.34148 -0.000714121 0)
(7.34282 -0.000817134 0)
(7.3442 -0.000927132 0)
(7.3456 -0.00104529 0)
(7.34703 -0.00117309 0)
(7.34848 -0.0013123 0)
(7.34994 -0.00146504 0)
(7.35141 -0.00163376 0)
(7.35289 -0.00182131 0)
(7.35437 -0.00203093 0)
(7.35586 -0.00226632 0)
(7.35736 -0.00253156 0)
(7.35886 -0.00283113 0)
(7.36037 -0.00316976 0)
(7.36187 -0.00355244 0)
(7.36338 -0.00398423 0)
(7.36488 -0.00447021 0)
(7.36637 -0.00501529 0)
(7.36786 -0.00562412 0)
(7.36933 -0.00630088 0)
(7.37078 -0.00704931 0)
(7.37221 -0.00787202 0)
(7.37363 -0.0087743 0)
(7.33302 -8.54936e-05 0)
(7.33319 -0.000268356 0)
(7.33355 -0.000442985 0)
(7.3341 -0.000620746 0)
(7.3348 -0.000802491 0)
(7.33564 -0.000984082 0)
(7.33661 -0.00116267 0)
(7.33768 -0.00133727 0)
(7.33884 -0.00150779 0)
(7.34007 -0.00167468 0)
(7.34136 -0.00183903 0)
(7.3427 -0.00200248 0)
(7.34407 -0.002167 0)
(7.34547 -0.00233483 0)
(7.34689 -0.00250844 0)
(7.34832 -0.00269049 0)
(7.34977 -0.00288385 0)
(7.35122 -0.00309159 0)
(7.35268 -0.00331703 0)
(7.35414 -0.00356374 0)
(7.3556 -0.00383556 0)
(7.35707 -0.00413659 0)
(7.35853 -0.00447111 0)
(7.35998 -0.00484359 0)
(7.36144 -0.00525853 0)
(7.36288 -0.00572044 0)
(7.36431 -0.00623369 0)
(7.36573 -0.0068024 0)
(7.36713 -0.00743037 0)
(7.36852 -0.00812093 0)
(7.36987 -0.00887691 0)
(7.3712 -0.00970017 0)
(7.3725 -0.0105949 0)
(7.33302 -0.000151679 0)
(7.33318 -0.000466386 0)
(7.33353 -0.000773737 0)
(7.33406 -0.00108405 0)
(7.33475 -0.00139377 0)
(7.33558 -0.00169469 0)
(7.33654 -0.00198218 0)
(7.33761 -0.00225495 0)
(7.33877 -0.00251315 0)
(7.34 -0.00275797 0)
(7.34128 -0.00299165 0)
(7.34262 -0.0032171 0)
(7.34398 -0.00343751 0)
(7.34538 -0.00365619 0)
(7.34679 -0.00387651 0)
(7.34821 -0.00410192 0)
(7.34965 -0.00433593 0)
(7.35108 -0.00458211 0)
(7.35252 -0.00484413 0)
(7.35396 -0.00512576 0)
(7.35539 -0.00543094 0)
(7.35682 -0.00576367 0)
(7.35824 -0.00612808 0)
(7.35965 -0.00652829 0)
(7.36105 -0.0069684 0)
(7.36244 -0.00745239 0)
(7.3638 -0.00798403 0)
(7.36515 -0.00856679 0)
(7.36647 -0.00920378 0)
(7.36777 -0.00989761 0)
(7.36903 -0.0106504 0)
(7.37025 -0.0114633 0)
(7.37145 -0.0123396 0)
(7.33302 -0.000215847 0)
(7.33317 -0.00065973 0)
(7.3335 -0.00110179 0)
(7.33401 -0.00155081 0)
(7.33469 -0.00199564 0)
(7.33552 -0.0024222 0)
(7.33648 -0.00282411 0)
(7.33756 -0.00319977 0)
(7.33872 -0.00354909 0)
(7.33995 -0.00387345 0)
(7.34124 -0.00417606 0)
(7.34258 -0.00446117 0)
(7.34394 -0.00473343 0)
(7.34533 -0.00499747 0)
(7.34674 -0.00525794 0)
(7.34816 -0.00551931 0)
(7.34958 -0.00578596 0)
(7.351 -0.00606209 0)
(7.35242 -0.00635184 0)
(7.35383 -0.00665924 0)
(7.35523 -0.00698832 0)
(7.35663 -0.00734304 0)
(7.35801 -0.00772733 0)
(7.35938 -0.00814501 0)
(7.36072 -0.00859979 0)
(7.36205 -0.00909514 0)
(7.36335 -0.00963433 0)
(7.36463 -0.0102202 0)
(7.36588 -0.0108554 0)
(7.36709 -0.0115418 0)
(7.36826 -0.0122812 0)
(7.3694 -0.0130742 0)
(7.3705 -0.0139236 0)
(7.33302 -0.00027596 0)
(7.33315 -0.000843768 0)
(7.33346 -0.00142409 0)
(7.33394 -0.00202219 0)
(7.33462 -0.00261266 0)
(7.33545 -0.0031723 0)
(7.33642 -0.0036937 0)
(7.33751 -0.00417678 0)
(7.33868 -0.00462271 0)
(7.33993 -0.00503414 0)
(7.34124 -0.0054154 0)
(7.34258 -0.00577161 0)
(7.34396 -0.00610798 0)
(7.34535 -0.00642969 0)
(7.34675 -0.00674189 0)
(7.34816 -0.0070496 0)
(7.34958 -0.00735759 0)
(7.35098 -0.0076705 0)
(7.35238 -0.00799274 0)
(7.35377 -0.00832859 0)
(7.35515 -0.00868219 0)
(7.35651 -0.00905754 0)
(7.35785 -0.00945847 0)
(7.35917 -0.0098887 0)
(7.36047 -0.0103516 0)
(7.36174 -0.0108505 0)
(7.36298 -0.0113882 0)
(7.36419 -0.0119673 0)
(7.36536 -0.0125898 0)
(7.36649 -0.0132575 0)
(7.36759 -0.0139714 0)
(7.36864 -0.014732 0)
(7.36965 -0.015541 0)
(7.33301 -0.000327588 0)
(7.33312 -0.00100896 0)
(7.33338 -0.00173356 0)
(7.33384 -0.00249723 0)
(7.33451 -0.00325098 0)
(7.33536 -0.00395854 0)
(7.33635 -0.00460747 0)
(7.33746 -0.00519423 0)
(7.33865 -0.00571968 0)
(7.33992 -0.00619011 0)
(7.34123 -0.00661505 0)
(7.34259 -0.00700416 0)
(7.34397 -0.0073661 0)
(7.34537 -0.00770866 0)
(7.34678 -0.00803882 0)
(7.34819 -0.00836282 0)
(7.34959 -0.00868613 0)
(7.35099 -0.00901366 0)
(7.35237 -0.00934989 0)
(7.35374 -0.00969893 0)
(7.35509 -0.0100646 0)
(7.35642 -0.0104505 0)
(7.35773 -0.0108601 0)
(7.35901 -0.0112964 0)
(7.36026 -0.0117624 0)
(7.36148 -0.0122609 0)
(7.36266 -0.0127941 0)
(7.36381 -0.013364 0)
(7.36492 -0.0139725 0)
(7.36598 -0.0146207 0)
(7.367 -0.0153095 0)
(7.36798 -0.0160395 0)
(7.36891 -0.0168122 0)
(7.33301 -0.000360296 0)
(7.33306 -0.00113741 0)
(7.33324 -0.00202274 0)
(7.33366 -0.00297196 0)
(7.33433 -0.003898 0)
(7.33521 -0.00477122 0)
(7.33624 -0.00559293 0)
(7.3374 -0.00635681 0)
(7.33865 -0.00705344 0)
(7.33996 -0.00768149 0)
(7.34131 -0.00824664 0)
(7.34269 -0.00875684 0)
(7.34409 -0.00922054 0)
(7.34549 -0.00964643 0)
(7.3469 -0.0100431 0)
(7.3483 -0.0104185 0)
(7.34969 -0.01078 0)
(7.35107 -0.0111343 0)
(7.35243 -0.0114873 0)
(7.35377 -0.0118444 0)
(7.35509 -0.0122104 0)
(7.35638 -0.0125898 0)
(7.35765 -0.0129864 0)
(7.35888 -0.0134039 0)
(7.36009 -0.0138453 0)
(7.36125 -0.0143136 0)
(7.36238 -0.014811 0)
(7.36347 -0.0153396 0)
(7.36451 -0.015901 0)
(7.36551 -0.0164962 0)
(7.36646 -0.017126 0)
(7.36736 -0.0177902 0)
(7.36821 -0.0184897 0)
(7.33299 -0.000347888 0)
(7.33293 -0.00118016 0)
(7.33298 -0.0022875 0)
(7.33334 -0.00350407 0)
(7.33402 -0.00460774 0)
(7.33491 -0.00553863 0)
(7.33594 -0.00632775 0)
(7.3371 -0.00700866 0)
(7.33837 -0.0076054 0)
(7.33972 -0.00813908 0)
(7.34111 -0.008627 0)
(7.34253 -0.00908154 0)
(7.34396 -0.00951166 0)
(7.3454 -0.00992438 0)
(7.34684 -0.0103254 0)
(7.34826 -0.0107193 0)
(7.34966 -0.0111102 0)
(7.35105 -0.0115016 0)
(7.35241 -0.0118967 0)
(7.35374 -0.0122987 0)
(7.35505 -0.0127102 0)
(7.35633 -0.0131342 0)
(7.35757 -0.013573 0)
(7.35878 -0.0140291 0)
(7.35995 -0.0145048 0)
(7.36108 -0.0150019 0)
(7.36216 -0.0155223 0)
(7.36321 -0.0160676 0)
(7.3642 -0.0166389 0)
(7.36515 -0.0172372 0)
(7.36605 -0.0178633 0)
(7.3669 -0.0185177 0)
(7.36771 -0.0192016 0)
(7.33295 -0.000246161 0)
(7.33261 -0.00102771 0)
(7.33238 -0.00234424 0)
(7.33273 -0.00400178 0)
(7.33358 -0.00575925 0)
(7.33468 -0.00746599 0)
(7.33588 -0.00900978 0)
(7.33715 -0.0103287 0)
(7.33848 -0.0114219 0)
(7.33984 -0.0123195 0)
(7.34122 -0.0130555 0)
(7.34261 -0.0136601 0)
(7.34401 -0.0141609 0)
(7.3454 -0.0145826 0)
(7.34679 -0.0149458 0)
(7.34817 -0.0152674 0)
(7.34953 -0.0155608 0)
(7.35088 -0.0158372 0)
(7.35221 -0.0161056 0)
(7.35351 -0.016373 0)
(7.35479 -0.0166455 0)
(7.35605 -0.0169278 0)
(7.35727 -0.0172237 0)
(7.35845 -0.0175366 0)
(7.3596 -0.0178692 0)
(7.36071 -0.0182236 0)
(7.36178 -0.0186016 0)
(7.3628 -0.0190045 0)
(7.36378 -0.0194333 0)
(7.3647 -0.0198886 0)
(7.36558 -0.0203707 0)
(7.3664 -0.0208791 0)
(7.36716 -0.021414 0)
(7.3329 9.14218e-05 0)
(7.33206 -0.000977362 0)
(7.33122 -0.00233004 0)
(7.33104 -0.00302964 0)
(7.33151 -0.00332862 0)
(7.33243 -0.00368666 0)
(7.33368 -0.00421488 0)
(7.33515 -0.00485144 0)
(7.33673 -0.00555023 0)
(7.33835 -0.00629299 0)
(7.33998 -0.00706203 0)
(7.3416 -0.00783813 0)
(7.3432 -0.00860692 0)
(7.34479 -0.00935972 0)
(7.34634 -0.0100917 0)
(7.34787 -0.0108004 0)
(7.34937 -0.0114856 0)
(7.35084 -0.0121482 0)
(7.35229 -0.0127903 0)
(7.3537 -0.0134146 0)
(7.35508 -0.0140237 0)
(7.35642 -0.0146209 0)
(7.35773 -0.0152091 0)
(7.359 -0.0157912 0)
(7.36023 -0.01637 0)
(7.36142 -0.0169482 0)
(7.36257 -0.017528 0)
(7.36366 -0.0181116 0)
(7.36471 -0.018701 0)
(7.36571 -0.0192976 0)
(7.36666 -0.019903 0)
(7.36755 -0.020518 0)
(7.36841 -0.0211443 0)
(7.33241 0.00204951 0)
(7.33045 -0.000650835 0)
(7.33028 -0.00739214 0)
(7.33135 -0.0138456 0)
(7.33232 -0.0185545 0)
(7.33302 -0.0217202 0)
(7.33383 -0.0237598 0)
(7.33487 -0.0249783 0)
(7.33608 -0.0256139 0)
(7.33742 -0.0258568 0)
(7.33887 -0.0258471 0)
(7.34043 -0.0256833 0)
(7.34206 -0.0254338 0)
(7.34376 -0.0251448 0)
(7.3455 -0.0248471 0)
(7.34727 -0.0245607 0)
(7.34905 -0.0242984 0)
(7.35084 -0.024068 0)
(7.35261 -0.023874 0)
(7.35437 -0.0237187 0)
(7.35611 -0.023603 0)
(7.35782 -0.023527 0)
(7.35949 -0.0234898 0)
(7.36112 -0.0234908 0)
(7.36271 -0.0235288 0)
(7.36424 -0.0236026 0)
(7.36573 -0.0237111 0)
(7.36715 -0.0238529 0)
(7.36852 -0.024027 0)
(7.36983 -0.0242322 0)
(7.37107 -0.0244676 0)
(7.37224 -0.0247324 0)
(7.37335 -0.0250266 0)
(7.32878 0.00626664 0)
(7.31724 0.0179087 0)
(7.31239 0.0250903 0)
(7.3139 0.0271213 0)
(7.31772 0.0257947 0)
(7.32187 0.0229681 0)
(7.32605 0.0195988 0)
(7.33025 0.016044 0)
(7.33437 0.0124858 0)
(7.33836 0.00906275 0)
(7.34221 0.00585912 0)
(7.34594 0.0029067 0)
(7.34954 0.000207648 0)
(7.35302 -0.00224804 0)
(7.35639 -0.00447609 0)
(7.35964 -0.00649554 0)
(7.36279 -0.00832677 0)
(7.36583 -0.0099898 0)
(7.36876 -0.0115035 0)
(7.37159 -0.0128851 0)
(7.37432 -0.0141504 0)
(7.37695 -0.0153136 0)
(7.37947 -0.0163873 0)
(7.3819 -0.0173829 0)
(7.38423 -0.0183103 0)
(7.38646 -0.0191784 0)
(7.38859 -0.0199949 0)
(7.39063 -0.0207666 0)
(7.39256 -0.0214994 0)
(7.3944 -0.0221982 0)
(7.39615 -0.0228671 0)
(7.3978 -0.0235087 0)
(7.39937 -0.0241274 0)
(7.33379 -0.0333045 0)
(7.33299 -0.0723278 0)
(7.3281 -0.085713 0)
(7.32653 -0.0871576 0)
(7.33008 -0.0847713 0)
(7.33729 -0.0808063 0)
(7.34623 -0.0759651 0)
(7.35569 -0.0709047 0)
(7.36515 -0.0660829 0)
(7.37436 -0.0616727 0)
(7.38314 -0.0577028 0)
(7.39142 -0.054164 0)
(7.39915 -0.0510341 0)
(7.40633 -0.0482801 0)
(7.41298 -0.0458637 0)
(7.41912 -0.0437469 0)
(7.42478 -0.0418951 0)
(7.42999 -0.040277 0)
(7.43477 -0.038865 0)
(7.43916 -0.0376344 0)
(7.44317 -0.0365638 0)
(7.44685 -0.0356346 0)
(7.4502 -0.0348305 0)
(7.45325 -0.0341375 0)
(7.45602 -0.0335432 0)
(7.45853 -0.033037 0)
(7.46079 -0.0326094 0)
(7.46281 -0.0322523 0)
(7.46462 -0.0319584 0)
(7.46621 -0.0317216 0)
(7.46761 -0.0315361 0)
(7.46882 -0.0313973 0)
(7.46988 -0.0312995 0)
(7.33141 0.164995 0)
(7.34785 0.185179 0)
(7.36033 0.152142 0)
(7.35673 0.118041 0)
(7.3426 0.0898055 0)
(7.32377 0.0673944 0)
(7.30236 0.0498833 0)