/*--------------------------------*- C++ -*----------------------------------*\
  =========                 |
  \\      /  F ield         | OpenFOAM: The Open Source CFD Toolbox
   \\    /   O peration     | Website:  https://openfoam.org
    \\  /    A nd           | Version:  10
     \\/     M anipulation  |
\*---------------------------------------------------------------------------*/
FoamFile
{
    format      ascii;
    class       volScalarField;
    location    "1900";
    object      yPlus;
}
// * * * * * * * * * * * * * * * * * * * * * * * * * * * * * * * * * * * * * //

dimensions      [0 0 0 0 0 0 0];

internalField   uniform 0;

boundaryField
{
    outlet
    {
        type            calculated;
        value           uniform 0;
    }
    inlet
    {
        type            calculated;
        value           uniform 0;
    }
    lowerWall
    {
        type            calculated;
        value           nonuniform List<scalar> 
148
(
9.9937
9.87583
9.76655
9.65577
9.54325
9.43227
9.32599
9.22676
9.13583
9.05375
8.98057
8.91594
8.85948
8.81054
8.76858
8.73294
8.70308
8.67842
8.65846
8.64268
8.63068
8.62205
8.6164
8.61343
8.61285
8.61443
8.61799
8.62313
8.62748
8.66545
8.5058
9.03114
8.67237
4.70453
6.87539
8.75048
10.0895
10.9992
11.3545
11.2911
11.4145
11.7821
11.5966
11.4322
11.4709
11.4281
11.2468
8.43508
4.70453
11.2748
11.8796
12.2976
12.5549
12.7121
12.7463
12.0543
12.5826
14.8518
17.9869
21.2385
24.413
27.4547
30.347
33.0886
35.6848
38.143
40.4706
42.6744
44.7604
46.7338
48.5989
50.3594
52.0184
53.5785
55.0427
56.4142
57.6982
58.9024
60.0381
61.1203
62.1678
63.2018
64.2441
65.3145
66.4282
67.5935
68.8112
70.0743
71.37
72.681
73.9881
75.2738
76.5249
77.7298
78.878
79.9296
80.8676
81.6734
82.3303
82.8243
83.1454
83.289
83.2559
83.0527
82.6913
82.188
81.563
80.8387
80.0394
79.1894
78.3113
77.4244
76.5447
75.6844
74.8517
74.0505
73.2819
72.5495
71.9344
71.5063
71.1736
70.8992
70.6707
70.4804
70.322
70.189
70.0749
69.9723
69.8728
69.7654
69.6369
69.4721
69.2551
68.9707
68.6063
68.1536
67.6096
66.977
66.2634
65.48
64.6405
63.7593
62.8507
61.9281
61.0055
60.0827
59.2587
58.0101
)
;
    }
    upperWall
    {
        type            calculated;
        value           nonuniform List<scalar> 
133
(
30.6045
31.4255
32.2163
32.972
33.693
34.3806
35.0365
35.6619
36.2579
36.8254
37.3658
37.8799
38.3689
38.8337
39.2753
39.6948
40.0931
40.4711
40.8298
41.1701
41.4929
41.7988
42.0888
42.3638
42.6243
42.8711
43.1049
43.3264
43.5361
43.7348
43.9229
44.101
44.2698
44.4552
44.658
44.8539
45.0427
45.2241
45.3982
45.5646
45.7234
45.8743
46.0173
46.1523
46.2791
46.3975
46.5077
46.6094
46.7025
46.7871
46.8629
46.9299
46.9882
47.0374
47.0776
47.1089
47.131
47.1439
47.1477
47.1421
47.1273
47.1032
47.0696
47.0267
46.9741
46.912
46.8401
46.7584
46.6667
46.5647
46.4522
46.3287
46.194
46.0476
45.889
45.7177
45.533
45.3345
45.1217
44.894
44.6513
44.3933
44.1201
43.832
43.5295
43.2136
42.8856
42.5469
42.1996
41.8459
41.4884
41.1298
40.7731
40.4213
40.0774
39.7445
39.4253
39.1224
38.8381
38.5743
38.3325
38.1138
37.9185
37.7469
37.5983
37.4719
37.366
37.2791
37.2086
37.1523
37.1075
37.0714
37.0413
37.0147
36.989
36.9623
36.9326
36.8981
36.8583
36.8133
36.762
36.7039
36.6392
36.568
36.4911
36.4091
36.3229
36.2332
36.1402
36.0463
35.9455
35.8627
35.7028
)
;
    }
    frontAndBack
    {
        type            empty;
    }
}


// ************************************************************************* //
