/*--------------------------------*- C++ -*----------------------------------*\
  =========                 |
  \\      /  F ield         | OpenFOAM: The Open Source CFD Toolbox
   \\    /   O peration     | Website:  https://openfoam.org
    \\  /    A nd           | Version:  10
     \\/     M anipulation  |
\*---------------------------------------------------------------------------*/
FoamFile
{
    format      ascii;
    class       volScalarField;
    location    "1300";
    object      k;
}
// * * * * * * * * * * * * * * * * * * * * * * * * * * * * * * * * * * * * * //

dimensions      [0 2 -2 0 0 0 0];

internalField   nonuniform List<scalar> 
6820
(
0.19714
0.192517
0.18828
0.184033
0.179769
0.175612
0.171677
0.168043
0.164748
0.161801
0.159196
0.156914
0.154934
0.153229
0.151775
0.150547
0.149522
0.14868
0.148001
0.147468
0.147065
0.146778
0.146595
0.146505
0.146497
0.146565
0.1467
0.146908
0.147
0.148568
0.1433
0.159589
0.140748
0.207249
0.212377
0.210057
0.205417
0.200994
0.19755
0.195142
0.193616
0.192786
0.192486
0.192589
0.192997
0.193637
0.194455
0.19541
0.19647
0.197612
0.198815
0.200067
0.201355
0.202672
0.204012
0.205371
0.206749
0.208148
0.209577
0.211048
0.212594
0.214219
0.216312
0.217597
0.221638
0.230079
0.200993
0.203847
0.204551
0.203318
0.201177
0.198803
0.196518
0.194452
0.19265
0.191116
0.189838
0.188796
0.18797
0.187336
0.186873
0.186563
0.186386
0.186328
0.186373
0.18651
0.186728
0.187018
0.187371
0.187782
0.188246
0.188761
0.189328
0.189956
0.190627
0.191485
0.192323
0.193264
0.196159
0.199593
0.199508
0.199518
0.199121
0.198258
0.197061
0.195675
0.194212
0.192747
0.191324
0.189972
0.188707
0.187537
0.186464
0.185488
0.184607
0.183816
0.183111
0.182488
0.18194
0.181463
0.181053
0.180705
0.180415
0.18018
0.179999
0.179871
0.179801
0.179783
0.179856
0.180013
0.180183
0.18068
0.199411
0.198475
0.197748
0.197076
0.196333
0.195471
0.194494
0.193431
0.192314
0.191173
0.190029
0.188901
0.187801
0.186738
0.185717
0.184743
0.183818
0.182942
0.182116
0.181338
0.180609
0.179927
0.179289
0.178696
0.178146
0.177639
0.177174
0.176752
0.176375
0.176053
0.175791
0.175568
0.175418
0.199395
0.198255
0.197227
0.19629
0.195403
0.194525
0.193631
0.19271
0.191764
0.190799
0.189824
0.188846
0.187874
0.186914
0.185972
0.185051
0.184156
0.183287
0.182447
0.181637
0.180857
0.180109
0.179391
0.178704
0.178047
0.177422
0.176827
0.176265
0.175736
0.175243
0.174789
0.174373
0.173995
0.199394
0.198216
0.197096
0.196039
0.195039
0.194082
0.193155
0.192244
0.191342
0.190445
0.189552
0.188663
0.187781
0.186907
0.186045
0.185196
0.184362
0.183545
0.182747
0.181969
0.181211
0.180474
0.179759
0.179065
0.178394
0.177745
0.177119
0.176517
0.175939
0.175387
0.174863
0.174367
0.1739
0.199395
0.19821
0.197068
0.19597
0.194919
0.193911
0.192942
0.192004
0.191094
0.190205
0.189335
0.188481
0.187641
0.186815
0.186003
0.185205
0.184421
0.183653
0.182899
0.182162
0.18144
0.180736
0.180048
0.179377
0.178724
0.178088
0.177471
0.176871
0.176291
0.175731
0.175192
0.174675
0.17418
0.199395
0.198209
0.197062
0.195954
0.194885
0.193855
0.192861
0.191902
0.190975
0.190076
0.189203
0.188354
0.187526
0.186718
0.185929
0.185157
0.184402
0.183664
0.182941
0.182234
0.181544
0.180868
0.180208
0.179564
0.178934
0.178321
0.177723
0.17714
0.176574
0.176025
0.175493
0.174979
0.174484
0.199395
0.198209
0.197061
0.195951
0.194877
0.193839
0.192835
0.191864
0.190926
0.190017
0.189137
0.188284
0.187455
0.18665
0.185867
0.185104
0.184361
0.183637
0.182931
0.182242
0.181569
0.180913
0.180273
0.179648
0.179038
0.178443
0.177863
0.177298
0.176748
0.176213
0.175694
0.175192
0.174705
0.199395
0.198209
0.197061
0.19595
0.194874
0.193834
0.192827
0.191852
0.190908
0.189994
0.189109
0.188251
0.187419
0.186612
0.185828
0.185067
0.184327
0.183607
0.182907
0.182226
0.181562
0.180916
0.180286
0.179673
0.179075
0.178493
0.177925
0.177373
0.176835
0.176312
0.175804
0.175312
0.174835
0.199395
0.198209
0.19706
0.195949
0.194874
0.193832
0.192824
0.191848
0.190902
0.189986
0.189098
0.188237
0.187403
0.186593
0.185808
0.185046
0.184305
0.183586
0.182888
0.182208
0.181548
0.180906
0.180281
0.179673
0.179081
0.178505
0.177944
0.177399
0.176869
0.176354
0.175853
0.175368
0.174897
0.199395
0.198209
0.19706
0.195949
0.194873
0.193832
0.192823
0.191846
0.1909
0.189983
0.189094
0.188232
0.187396
0.186585
0.185798
0.185035
0.184294
0.183574
0.182875
0.182196
0.181537
0.180895
0.180272
0.179666
0.179076
0.178503
0.177946
0.177404
0.176878
0.176366
0.17587
0.175388
0.174921
0.199395
0.198209
0.19706
0.195949
0.194873
0.193831
0.192822
0.191845
0.190899
0.189981
0.189092
0.188229
0.187393
0.186581
0.185794
0.18503
0.184288
0.183568
0.182869
0.182189
0.18153
0.180888
0.180265
0.17966
0.179071
0.178499
0.177943
0.177402
0.176877
0.176367
0.175872
0.175392
0.174926
0.199395
0.198208
0.19706
0.195948
0.194872
0.193831
0.192822
0.191845
0.190898
0.18998
0.18909
0.188228
0.187391
0.186579
0.185792
0.185027
0.184285
0.183565
0.182865
0.182186
0.181526
0.180884
0.180261
0.179656
0.179067
0.178495
0.177939
0.177399
0.176875
0.176365
0.17587
0.17539
0.174924
0.199395
0.198208
0.19706
0.195948
0.194872
0.19383
0.192821
0.191844
0.190897
0.189979
0.18909
0.188227
0.18739
0.186578
0.18579
0.185026
0.184284
0.183563
0.182863
0.182184
0.181523
0.180882
0.180259
0.179653
0.179065
0.178493
0.177937
0.177397
0.176873
0.176363
0.175868
0.175387
0.174921
0.199395
0.198208
0.19706
0.195948
0.194872
0.19383
0.192821
0.191843
0.190896
0.189979
0.189089
0.188226
0.187389
0.186577
0.185789
0.185025
0.184282
0.183562
0.182862
0.182182
0.181522
0.180881
0.180257
0.179652
0.179063
0.178491
0.177936
0.177396
0.176871
0.176361
0.175866
0.175385
0.174917
0.199395
0.198208
0.19706
0.195948
0.194872
0.19383
0.192821
0.191843
0.190896
0.189978
0.189088
0.188225
0.187388
0.186576
0.185788
0.185024
0.184281
0.183561
0.182861
0.182181
0.181521
0.18088
0.180256
0.179651
0.179062
0.178491
0.177935
0.177395
0.17687
0.17636
0.175864
0.175383
0.174915
0.199395
0.198208
0.19706
0.195948
0.194871
0.193829
0.19282
0.191843
0.190895
0.189977
0.189087
0.188224
0.187387
0.186575
0.185787
0.185023
0.18428
0.18356
0.18286
0.18218
0.18152
0.180879
0.180256
0.17965
0.179062
0.17849
0.177934
0.177394
0.176869
0.176359
0.175863
0.175381
0.174912
0.199395
0.198208
0.197059
0.195948
0.194871
0.193829
0.19282
0.191842
0.190895
0.189977
0.189087
0.188224
0.187387
0.186575
0.185787
0.185022
0.18428
0.183559
0.182859
0.18218
0.181519
0.180878
0.180255
0.179649
0.179061
0.178489
0.177933
0.177393
0.176868
0.176357
0.175861
0.175379
0.17491
0.199395
0.198208
0.197059
0.195947
0.194871
0.193829
0.19282
0.191842
0.190895
0.189976
0.189086
0.188223
0.187386
0.186574
0.185786
0.185021
0.184279
0.183558
0.182859
0.182179
0.181519
0.180877
0.180254
0.179649
0.17906
0.178488
0.177933
0.177392
0.176867
0.176356
0.17586
0.175377
0.174908
0.199395
0.198208
0.197059
0.195947
0.194871
0.193829
0.192819
0.191842
0.190894
0.189976
0.189086
0.188223
0.187386
0.186574
0.185786
0.185021
0.184278
0.183558
0.182858
0.182178
0.181518
0.180877
0.180254
0.179648
0.17906
0.178488
0.177932
0.177391
0.176866
0.176355
0.175858
0.175375
0.174905
0.199395
0.198208
0.197059
0.195947
0.194871
0.193829
0.192819
0.191842
0.190894
0.189976
0.189086
0.188222
0.187385
0.186573
0.185785
0.18502
0.184278
0.183557
0.182857
0.182178
0.181518
0.180876
0.180253
0.179648
0.179059
0.178487
0.177931
0.17739
0.176865
0.176354
0.175857
0.175373
0.174903
0.199395
0.198208
0.197059
0.195947
0.194871
0.193829
0.192819
0.191841
0.190894
0.189976
0.189085
0.188222
0.187385
0.186573
0.185785
0.18502
0.184278
0.183557
0.182857
0.182177
0.181517
0.180876
0.180253
0.179647
0.179059
0.178486
0.17793
0.17739
0.176864
0.176352
0.175855
0.175372
0.174901
0.199395
0.198208
0.197059
0.195947
0.194871
0.193829
0.192819
0.191841
0.190894
0.189975
0.189085
0.188222
0.187385
0.186572
0.185784
0.18502
0.184277
0.183557
0.182857
0.182177
0.181517
0.180875
0.180252
0.179647
0.179058
0.178486
0.17793
0.177389
0.176863
0.176351
0.175854
0.17537
0.174899
0.199395
0.198208
0.197059
0.195947
0.194871
0.193828
0.192819
0.191841
0.190894
0.189975
0.189085
0.188222
0.187384
0.186572
0.185784
0.185019
0.184277
0.183556
0.182856
0.182177
0.181517
0.180875
0.180252
0.179646
0.179058
0.178485
0.177929
0.177388
0.176862
0.17635
0.175852
0.175368
0.174897
0.199395
0.198208
0.197059
0.195947
0.194871
0.193828
0.192819
0.191841
0.190893
0.189975
0.189085
0.188221
0.187384
0.186572
0.185784
0.185019
0.184277
0.183556
0.182856
0.182177
0.181516
0.180875
0.180252
0.179646
0.179057
0.178485
0.177928
0.177387
0.176861
0.176349
0.175851
0.175366
0.174895
0.199395
0.198208
0.197059
0.195947
0.194871
0.193828
0.192819
0.191841
0.190893
0.189975
0.189085
0.188221
0.187384
0.186572
0.185784
0.185019
0.184277
0.183556
0.182856
0.182176
0.181516
0.180875
0.180251
0.179646
0.179057
0.178484
0.177928
0.177386
0.17686
0.176348
0.17585
0.175365
0.174893
0.199395
0.198208
0.197059
0.195947
0.194871
0.193828
0.192819
0.191841
0.190893
0.189975
0.189085
0.188221
0.187384
0.186572
0.185784
0.185019
0.184277
0.183556
0.182856
0.182176
0.181516
0.180875
0.180251
0.179645
0.179056
0.178484
0.177927
0.177386
0.176859
0.176347
0.175849
0.175364
0.174892
0.199395
0.198208
0.197059
0.195947
0.194871
0.193828
0.192819
0.191841
0.190893
0.189975
0.189085
0.188221
0.187384
0.186572
0.185784
0.185019
0.184277
0.183556
0.182856
0.182176
0.181516
0.180875
0.180251
0.179645
0.179056
0.178484
0.177927
0.177385
0.176859
0.176346
0.175848
0.175363
0.174891
0.199395
0.198208
0.197059
0.195947
0.194871
0.193828
0.192819
0.191841
0.190893
0.189975
0.189085
0.188221
0.187384
0.186572
0.185784
0.185019
0.184277
0.183556
0.182856
0.182177
0.181516
0.180875
0.180251
0.179645
0.179056
0.178484
0.177927
0.177385
0.176858
0.176346
0.175847
0.175362
0.174889
0.199395
0.198208
0.197059
0.195947
0.194871
0.193828
0.192819
0.191841
0.190893
0.189975
0.189085
0.188222
0.187385
0.186572
0.185785
0.18502
0.184278
0.183557
0.182857
0.182177
0.181517
0.180876
0.180252
0.179646
0.179057
0.178484
0.177927
0.177386
0.176859
0.176346
0.175847
0.175362
0.174889
0.199395
0.198208
0.197059
0.195947
0.194871
0.193828
0.192819
0.191841
0.190894
0.189975
0.189085
0.188222
0.187385
0.186573
0.185785
0.185021
0.184278
0.183558
0.182858
0.182178
0.181518
0.180877
0.180253
0.179647
0.179058
0.178485
0.177928
0.177386
0.176858
0.176345
0.175846
0.17536
0.174887
0.199395
0.198208
0.197059
0.195947
0.194871
0.193829
0.19282
0.191842
0.190895
0.189978
0.189088
0.188226
0.18739
0.186578
0.185791
0.185026
0.184285
0.183564
0.182864
0.182184
0.181524
0.180882
0.180258
0.179651
0.17906
0.178486
0.177928
0.177384
0.176855
0.17634
0.175839
0.175351
0.174875
0.199395
0.198208
0.197059
0.195948
0.194872
0.193831
0.192824
0.191848
0.190902
0.189986
0.189097
0.188236
0.1874
0.186589
0.185801
0.185036
0.184293
0.183572
0.18287
0.182188
0.181524
0.180879
0.180251
0.17964
0.179046
0.178467
0.177903
0.177354
0.176819
0.176298
0.17579
0.175295
0.174812
0.199395
0.198209
0.197062
0.195955
0.194886
0.193853
0.192854
0.191885
0.190945
0.190033
0.189146
0.188284
0.187447
0.186632
0.185838
0.185067
0.184315
0.183584
0.182871
0.182177
0.181501
0.180842
0.180199
0.179573
0.178963
0.178368
0.177788
0.177221
0.176669
0.176131
0.175605
0.175092
0.174591
0.199395
0.198223
0.197106
0.196032
0.194988
0.19397
0.192977
0.192007
0.19106
0.190135
0.189233
0.188352
0.187492
0.186653
0.185834
0.185035
0.184255
0.183494
0.182751
0.182026
0.181319
0.180628
0.179954
0.179295
0.178653
0.178025
0.177412
0.176813
0.176228
0.175656
0.175098
0.174552
0.174018
0.19941
0.198319
0.197296
0.1963
0.19531
0.194319
0.193329
0.192346
0.191374
0.190418
0.18948
0.188563
0.187666
0.186791
0.185937
0.185105
0.184292
0.1835
0.182727
0.181973
0.181237
0.180519
0.179817
0.179132
0.178463
0.17781
0.177171
0.176548
0.175938
0.175343
0.174761
0.174192
0.173636
0.199716
0.199139
0.19847
0.197765
0.197072
0.196419
0.195812
0.19525
0.194733
0.194258
0.193825
0.193432
0.193076
0.192756
0.19247
0.192215
0.191991
0.191794
0.191623
0.191476
0.191351
0.191247
0.191162
0.191094
0.191044
0.191008
0.190987
0.190979
0.190983
0.190999
0.191026
0.191062
0.191108
0.205424
0.216593
0.22763
0.238435
0.248976
0.259243
0.269229
0.278926
0.288326
0.297425
0.306217
0.314703
0.32288
0.330752
0.338319
0.345587
0.352559
0.359242
0.365642
0.371766
0.377621
0.383216
0.388559
0.393658
0.398521
0.403158
0.407577
0.411786
0.415794
0.419608
0.423238
0.42669
0.429976
0.0769062
0.577909
1.44577
2.0211
2.21994
2.25251
2.27095
2.31197
2.35943
2.39507
2.40964
2.40113
2.37273
2.33043
2.28026
2.22689
2.17353
2.12227
2.07454
2.03131
1.99317
1.96028
1.93225
1.90816
1.88666
1.86623
1.84541
1.82315
1.79906
1.77356
1.74799
1.72448
1.70558
1.69377
1.6907
1.69645
1.70918
1.72528
1.74012
1.74918
1.74901
1.73798
1.7165
1.68697
1.65341
1.62071
1.59361
1.57525
1.56615
1.56379
1.56345
1.55968
1.54779
1.52481
1.48976
1.44347
1.38814
1.32694
1.26364
1.20224
1.14672
1.10065
1.06675
1.04638
1.03919
1.04313
1.05496
1.07098
1.08779
1.10276
1.11413
1.12092
1.12279
1.11978
1.11214
1.10027
1.08459
1.06556
1.04365
1.01933
0.993077
0.96541
0.936866
0.908021
0.879502
0.852006
0.826321
0.803335
0.78401
0.769264
0.759748
0.75557
0.7561
0.760028
0.765678
0.771394
0.77596
0.778409
0.779188
0.775468
0.222432
0.216096
0.366172
0.674378
0.968641
1.16126
1.28736
1.41026
1.55045
1.68576
1.78976
1.85358
1.88338
1.88953
1.88033
1.86158
1.83727
1.81019
1.78246
1.75573
1.73121
1.7096
1.69095
1.67464
1.65946
1.64394
1.62659
1.60637
1.5829
1.55668
1.52917
1.50258
1.47966
1.46313
1.45501
1.45593
1.46457
1.4777
1.49079
1.49908
1.49869
1.48747
1.46532
1.43423
1.39794
1.3613
1.32933
1.30593
1.29263
1.28791
1.28763
1.28641
1.27918
1.26238
1.23442
1.19559
1.14774
1.09372
1.03705
0.981519
0.930927
0.888747
0.857765
0.839621
0.834401
0.840523
0.85508
0.874531
0.895455
0.915074
0.931463
0.943499
0.950698
0.953006
0.950635
0.943941
0.933347
0.919309
0.902293
0.88278
0.861266
0.838264
0.814315
0.789993
0.765919
0.742782
0.721355
0.702515
0.687213
0.676372
0.670659
0.6702
0.67438
0.681885
0.691023
0.700116
0.707923
0.713509
0.717092
0.717325
0.197855
0.190208
0.191773
0.234047
0.319652
0.417235
0.501115
0.57143
0.646962
0.743974
0.861035
0.983091
1.09312
1.18073
1.24477
1.28873
1.31703
1.33364
1.34189
1.34462
1.34424
1.34252
1.34046
1.33817
1.33501
1.32983
1.32134
1.30855
1.29111
1.26952
1.24516
1.22023
1.19741
1.17951
1.16883
1.16657
1.17218
1.18321
1.19564
1.20482
1.20662
1.19833
1.17922
1.15059
1.11556
1.0785
1.04431
1.01736
1.00025
0.992869
0.992304
0.993761
0.992103
0.983224
0.964807
0.936446
0.899348
0.855885
0.809129
0.762471
0.719313
0.682824
0.655673
0.639695
0.635506
0.642251
0.657714
0.678825
0.702353
0.725485
0.746131
0.762967
0.775317
0.782976
0.78605
0.78482
0.779667
0.771019
0.759328
0.745063
0.728708
0.710766
0.691761
0.672249
0.652826
0.634147
0.616949
0.602068
0.590428
0.582947
0.580339
0.58282
0.589885
0.600311
0.612444
0.624605
0.635503
0.6442
0.650616
0.654974
0.181665
0.180974
0.178253
0.179017
0.189655
0.2111
0.237512
0.261903
0.282833
0.304981
0.335678
0.380561
0.440708
0.512816
0.589595
0.663105
0.727822
0.781276
0.823466
0.855926
0.880861
0.900466
0.916431
0.929658
0.940208
0.947468
0.950504
0.948477
0.941025
0.928512
0.912102
0.893672
0.87559
0.860401
0.850407
0.847166
0.85094
0.860332
0.872346
0.882994
0.888286
0.885216
0.872432
0.850456
0.821512
0.789097
0.757396
0.730548
0.711726
0.702181
0.700673
0.703761
0.706926
0.705945
0.697914
0.681655
0.657609
0.627453
0.593626
0.558909
0.526097
0.497778
0.476189
0.463057
0.459364
0.465061
0.478945
0.498852
0.522138
0.546226
0.568993
0.588939
0.605164
0.617253
0.625133
0.628957
0.629007
0.625643
0.619266
0.610301
0.599198
0.586422
0.572463
0.557835
0.543088
0.528821
0.515707
0.504514
0.496107
0.491386
0.491116
0.495655
0.504693
0.517192
0.531617
0.546318
0.559948
0.571546
0.580668
0.589153
0.17542
0.17533
0.174559
0.173452
0.173626
0.176707
0.182842
0.190263
0.196766
0.201766
0.206672
0.213831
0.225585
0.243646
0.269004
0.301063
0.337535
0.37536
0.411755
0.444889
0.474042
0.499355
0.521395
0.540699
0.557455
0.571388
0.581876
0.588228
0.590002
0.587266
0.580695
0.571531
0.561424
0.552219
0.545715
0.543375
0.545959
0.553153
0.563363
0.573907
0.581641
0.583799
0.57872
0.566219
0.547538
0.525002
0.501556
0.480279
0.463893
0.454182
0.451403
0.454019
0.459085
0.463173
0.463391
0.458046
0.446808
0.430514
0.410769
0.389542
0.368829
0.350445
0.335955
0.326649
0.323504
0.327014
0.336984
0.352433
0.371741
0.392994
0.414353
0.434311
0.451802
0.466183
0.477157
0.484679
0.488873
0.489969
0.488269
0.484114
0.477882
0.469971
0.460807
0.450836
0.440539
0.430436
0.421109
0.413227
0.40756
0.404951
0.406196
0.411808
0.421737
0.435229
0.450961
0.467378
0.4831
0.497131
0.508616
0.520982
0.173617
0.173238
0.172752
0.172052
0.171383
0.171301
0.172231
0.174026
0.176006
0.177531
0.178531
0.179547
0.181405
0.184813
0.19021
0.197971
0.208113
0.220243
0.233655
0.247548
0.261236
0.274274
0.286466
0.297765
0.308132
0.317408
0.325283
0.331347
0.335241
0.336804
0.336178
0.333823
0.330451
0.326931
0.324185
0.323075
0.324265
0.328013
0.333942
0.340943
0.347342
0.351341
0.351563
0.347451
0.339368
0.328417
0.316126
0.304144
0.294024
0.28704
0.283933
0.284612
0.288022
0.292381
0.295735
0.296547
0.294058
0.288335
0.280081
0.270349
0.260279
0.250922
0.243185
0.237851
0.235614
0.237055
0.242506
0.251892
0.264648
0.279795
0.296141
0.312502
0.327872
0.341506
0.352923
0.361874
0.368289
0.37223
0.37385
0.373366
0.371042
0.367177
0.362101
0.356168
0.349763
0.343304
0.337261
0.332175
0.328682
0.327519
0.329457
0.335126
0.344751
0.357944
0.373704
0.390673
0.407497
0.423164
0.436395
0.452054
0.173389
0.172841
0.17229
0.171684
0.171036
0.17048
0.170193
0.17023
0.170446
0.170609
0.170595
0.170493
0.170558
0.171058
0.172168
0.174019
0.176651
0.179997
0.183897
0.188138
0.192498
0.196793
0.2009
0.20475
0.208305
0.21152
0.214318
0.216586
0.218205
0.219093
0.219246
0.218757
0.217809
0.216653
0.215581
0.214896
0.214889
0.21577
0.217583
0.220107
0.22284
0.225089
0.226186
0.225701
0.223565
0.22005
0.215652
0.210959
0.206562
0.203021
0.200814
0.20022
0.201175
0.2032
0.205513
0.207281
0.207881
0.207048
0.204876
0.201716
0.198037
0.19432
0.191005
0.188496
0.187189
0.187483
0.189747
0.194217
0.200897
0.209513
0.219547
0.230338
0.241204
0.251533
0.260841
0.26879
0.275178
0.279922
0.28303
0.284583
0.284716
0.283609
0.281477
0.278562
0.275139
0.271511
0.268021
0.265066
0.263127
0.262786
0.26471
0.269558
0.277772
0.289339
0.30368
0.319759
0.336359
0.352508
0.366554
0.384498
0.173628
0.173019
0.172417
0.171806
0.171179
0.170563
0.170012
0.16956
0.169182
0.168809
0.168382
0.167914
0.167487
0.167209
0.167167
0.167417
0.167976
0.168818
0.169882
0.171085
0.172342
0.173574
0.174723
0.175752
0.176643
0.177386
0.177969
0.178375
0.178583
0.178576
0.178351
0.177927
0.177343
0.176658
0.175948
0.1753
0.174806
0.174554
0.1746
0.174937
0.175469
0.176016
0.176365
0.176333
0.175823
0.17484
0.173473
0.171857
0.170156
0.16855
0.167234
0.166396
0.166154
0.166486
0.167213
0.168045
0.168682
0.168907
0.168634
0.167904
0.166839
0.165603
0.164368
0.163307
0.162605
0.162475
0.163148
0.164842
0.167699
0.171735
0.176817
0.182681
0.188987
0.19537
0.201492
0.207074
0.211907
0.215855
0.218849
0.220876
0.221973
0.222217
0.221719
0.220618
0.219081
0.2173
0.215498
0.213939
0.212946
0.212928
0.214392
0.217911
0.22401
0.232963
0.244617
0.258361
0.273254
0.288478
0.302145
0.320925
0.173927
0.173306
0.172689
0.172073
0.171454
0.170836
0.170233
0.169659
0.16911
0.168566
0.168002
0.167416
0.166832
0.166295
0.165849
0.165526
0.165342
0.165289
0.165343
0.165468
0.165623
0.165771
0.165882
0.165936
0.165923
0.165839
0.165684
0.165458
0.16516
0.164788
0.164343
0.163826
0.163247
0.162618
0.161958
0.161294
0.160657
0.160083
0.159604
0.159241
0.158988
0.158809
0.158648
0.158442
0.158138
0.157707
0.157138
0.156444
0.155648
0.154793
0.153941
0.153177
0.152587
0.15223
0.152106
0.152156
0.152278
0.152371
0.152357
0.152204
0.151912
0.151513
0.151051
0.15058
0.150171
0.149913
0.149922
0.150329
0.151255
0.152779
0.154911
0.157584
0.160667
0.163985
0.167353
0.170594
0.173559
0.176132
0.178235
0.179824
0.180889
0.181447
0.181541
0.181237
0.180622
0.179802
0.178908
0.178095
0.177561
0.177559
0.178425
0.18058
0.184488
0.190537
0.198877
0.209312
0.221279
0.234228
0.246274
0.264165
0.174156
0.17354
0.172927
0.172315
0.171703
0.171093
0.170487
0.169889
0.169299
0.168711
0.168114
0.167505
0.166888
0.166277
0.165693
0.165153
0.16467
0.164245
0.163873
0.16354
0.163227
0.162919
0.162599
0.162257
0.161887
0.161489
0.161061
0.160606
0.160124
0.159613
0.159074
0.158503
0.157901
0.157268
0.15661
0.155933
0.155254
0.154589
0.153959
0.153384
0.152875
0.152433
0.152047
0.151696
0.151354
0.150996
0.150598
0.150141
0.149614
0.149017
0.148363
0.147686
0.147034
0.146454
0.145983
0.145632
0.145384
0.145208
0.145065
0.144922
0.144754
0.144549
0.144301
0.144015
0.143702
0.143394
0.143135
0.142991
0.143035
0.143334
0.14393
0.144833
0.146011
0.147398
0.148908
0.150448
0.151928
0.153272
0.154418
0.155325
0.155969
0.156345
0.156463
0.156349
0.156041
0.155593
0.155073
0.154567
0.154183
0.154066
0.154412
0.155488
0.157627
0.161179
0.16641
0.173397
0.181925
0.191761
0.20127
0.216669
0.174295
0.173688
0.173083
0.172479
0.171875
0.171273
0.170673
0.170075
0.169481
0.168886
0.168287
0.167681
0.167066
0.166447
0.165828
0.165219
0.164626
0.164053
0.1635
0.162964
0.16244
0.161921
0.161401
0.160877
0.160346
0.159806
0.15926
0.158706
0.158144
0.157573
0.15699
0.15639
0.155771
0.155129
0.154466
0.153785
0.153093
0.152403
0.15173
0.15109
0.150497
0.149958
0.149476
0.149044
0.148648
0.148269
0.147883
0.14747
0.14701
0.146492
0.145916
0.145293
0.144647
0.144012
0.14342
0.142896
0.142452
0.142086
0.141786
0.141532
0.141302
0.141074
0.140831
0.140556
0.140241
0.139888
0.139509
0.139131
0.138789
0.138526
0.138379
0.138375
0.13852
0.138804
0.139195
0.139653
0.140132
0.140589
0.140984
0.141285
0.141473
0.141534
0.141467
0.141277
0.140981
0.140601
0.140172
0.139735
0.139349
0.139087
0.139057
0.13941
0.140349
0.142122
0.144978
0.149093
0.15447
0.161122
0.167807
0.179726
0.174365
0.173765
0.173166
0.172568
0.171971
0.171375
0.17078
0.170187
0.169594
0.169001
0.168406
0.167806
0.167199
0.166586
0.165967
0.165344
0.16472
0.164098
0.163479
0.162863
0.16225
0.16164
0.16103
0.160422
0.159814
0.159208
0.158604
0.158002
0.157401
0.156798
0.15619
0.155573
0.154942
0.154294
0.153628
0.152946
0.152254
0.15156
0.150878
0.150219
0.149597
0.149021
0.148495
0.148018
0.147578
0.147163
0.146754
0.14633
0.145873
0.145373
0.144822
0.144226
0.143599
0.142961
0.142336
0.141747
0.141212
0.140738
0.140325
0.139965
0.139641
0.139336
0.13903
0.138705
0.138345
0.137942
0.137493
0.137007
0.136497
0.135987
0.1355
0.135059
0.134682
0.134376
0.134138
0.133956
0.133813
0.133688
0.133561
0.133411
0.133223
0.132988
0.132698
0.132353
0.131957
0.13152
0.131055
0.130583
0.130131
0.129737
0.129453
0.129358
0.129564
0.130222
0.131509
0.133594
0.136563
0.140553
0.14472
0.153012
0.174392
0.173796
0.1732
0.172605
0.172011
0.171418
0.170826
0.170235
0.169644
0.169053
0.16846
0.167863
0.167262
0.166655
0.166041
0.165421
0.164794
0.164162
0.163526
0.162887
0.162244
0.161601
0.160957
0.160315
0.159675
0.15904
0.158409
0.157784
0.157162
0.156542
0.155919
0.155291
0.154653
0.154001
0.153335
0.152655
0.151967
0.151278
0.150597
0.149935
0.149304
0.148711
0.148161
0.147654
0.147181
0.146733
0.146293
0.145845
0.145374
0.144869
0.144325
0.143742
0.143129
0.142501
0.141874
0.141266
0.140692
0.140163
0.139682
0.139244
0.138841
0.138459
0.138081
0.137692
0.137275
0.136821
0.136321
0.135775
0.135188
0.13457
0.133935
0.133299
0.132675
0.132076
0.131509
0.130975
0.130471
0.129992
0.129528
0.12907
0.128611
0.128141
0.127658
0.127157
0.126638
0.126104
0.12556
0.125014
0.124479
0.123971
0.123516
0.12315
0.12293
0.122939
0.123282
0.124084
0.125436
0.127497
0.12975
0.134899
0.174398
0.173803
0.173208
0.172614
0.17202
0.171427
0.170835
0.170243
0.169652
0.16906
0.168466
0.16787
0.167271
0.166667
0.166057
0.165441
0.164818
0.164188
0.163552
0.16291
0.162264
0.161614
0.160962
0.160311
0.159661
0.159016
0.158375
0.157739
0.157107
0.156477
0.155847
0.155212
0.15457
0.153917
0.153253
0.152579
0.151897
0.151214
0.150539
0.14988
0.149245
0.148643
0.148078
0.147548
0.147048
0.146571
0.146102
0.14563
0.145141
0.144626
0.14408
0.143503
0.142901
0.142283
0.141663
0.141053
0.140466
0.139909
0.139388
0.1389
0.138439
0.137995
0.137556
0.137109
0.136639
0.136138
0.135597
0.135012
0.134385
0.133719
0.133022
0.132303
0.131572
0.13084
0.130115
0.129403
0.128707
0.128028
0.127365
0.126715
0.126076
0.125442
0.124813
0.124184
0.123555
0.122926
0.122298
0.121674
0.121058
0.120457
0.119882
0.119349
0.118884
0.118528
0.118338
0.118389
0.11875
0.119549
0.120507
0.123257
0.174396
0.173801
0.173205
0.17261
0.172015
0.17142
0.170825
0.170231
0.169637
0.169043
0.168447
0.167849
0.167249
0.166645
0.166036
0.165422
0.164802
0.164175
0.163543
0.162905
0.162262
0.161615
0.160965
0.160315
0.159665
0.159018
0.158375
0.157735
0.157099
0.156465
0.15583
0.155192
0.154549
0.153897
0.153237
0.152568
0.151894
0.151219
0.15055
0.149895
0.14926
0.148652
0.148074
0.147526
0.147004
0.146501
0.146007
0.145512
0.145006
0.14448
0.14393
0.143356
0.142761
0.142153
0.14154
0.140934
0.140343
0.139773
0.139229
0.138708
0.138208
0.137719
0.137233
0.136739
0.136226
0.135686
0.135111
0.134499
0.133847
0.133157
0.132434
0.131682
0.13091
0.130124
0.129331
0.128539
0.12775
0.12697
0.126201
0.125442
0.124695
0.123958
0.12323
0.12251
0.121797
0.121092
0.120392
0.1197
0.119016
0.118342
0.117682
0.117042
0.116433
0.115873
0.115391
0.115027
0.114822
0.114861
0.115022
0.116106
0.174392
0.173795
0.173198
0.172601
0.172004
0.171407
0.170809
0.170212
0.169614
0.169016
0.168417
0.167816
0.167213
0.166607
0.165997
0.165382
0.164763
0.164139
0.16351
0.162875
0.162237
0.161594
0.160948
0.160302
0.159655
0.15901
0.158367
0.157726
0.157088
0.156452
0.155815
0.155176
0.154532
0.153882
0.153226
0.152563
0.151896
0.151228
0.150566
0.149915
0.14928
0.148667
0.148079
0.147516
0.146975
0.146451
0.145936
0.145421
0.144899
0.144362
0.143807
0.143234
0.142644
0.142043
0.141438
0.140837
0.140245
0.139669
0.139111
0.138569
0.138041
0.137521
0.137
0.136471
0.135924
0.135354
0.134753
0.134119
0.133451
0.132748
0.132013
0.13125
0.130464
0.12966
0.128844
0.128021
0.127195
0.12637
0.12555
0.124737
0.123932
0.123136
0.122349
0.121571
0.120803
0.120043
0.11929
0.118546
0.11781
0.117081
0.11636
0.11565
0.114955
0.11428
0.11364
0.113053
0.112543
0.112152
0.111864
0.111882
0.174388
0.17379
0.173192
0.172592
0.171993
0.171393
0.170792
0.170192
0.16959
0.168988
0.168385
0.167781
0.167174
0.166565
0.165952
0.165337
0.164717
0.164093
0.163465
0.162833
0.162197
0.161557
0.160915
0.160272
0.159628
0.158984
0.158342
0.157702
0.157063
0.156425
0.155786
0.155146
0.154503
0.153855
0.153201
0.152544
0.151883
0.151222
0.150565
0.149918
0.149284
0.148667
0.148071
0.147495
0.146938
0.146396
0.145862
0.14533
0.144793
0.144247
0.143687
0.143113
0.142526
0.14193
0.141331
0.140734
0.140143
0.139563
0.138996
0.13844
0.137893
0.13735
0.136804
0.136249
0.135677
0.135084
0.134463
0.133814
0.133133
0.132422
0.131682
0.130916
0.130128
0.129321
0.128501
0.12767
0.126833
0.125993
0.125154
0.124318
0.123487
0.122661
0.121844
0.121033
0.120231
0.119436
0.118649
0.117869
0.117096
0.116328
0.115567
0.11481
0.114061
0.11332
0.112593
0.111888
0.111219
0.110598
0.110072
0.10946
0.174384
0.173785
0.173185
0.172584
0.171982
0.17138
0.170777
0.170173
0.169568
0.168962
0.168355
0.167747
0.167137
0.166524
0.165909
0.165291
0.16467
0.164045
0.163417
0.162786
0.162151
0.161513
0.160873
0.160232
0.15959
0.158947
0.158306
0.157665
0.157025
0.156386
0.155746
0.155105
0.154461
0.153814
0.153163
0.152509
0.151853
0.151198
0.150546
0.149901
0.149267
0.148647
0.148044
0.147458
0.146888
0.14633
0.14578
0.145233
0.144683
0.144128
0.143562
0.142986
0.142401
0.141809
0.141213
0.140618
0.140029
0.139446
0.138872
0.138306
0.137745
0.137185
0.136621
0.136046
0.135456
0.134846
0.134211
0.13355
0.132861
0.132145
0.131403
0.130637
0.12985
0.129046
0.128228
0.1274
0.126563
0.125723
0.12488
0.124038
0.123198
0.122361
0.12153
0.120704
0.119884
0.11907
0.118262
0.117459
0.116662
0.115869
0.115079
0.114292
0.113509
0.112728
0.111953
0.111185
0.110434
0.109693
0.10905
0.108088
0.174381
0.173781
0.17318
0.172577
0.171973
0.171368
0.170763
0.170156
0.169548
0.168939
0.168329
0.167717
0.167104
0.166488
0.16587
0.16525
0.164626
0.164
0.163371
0.162739
0.162105
0.161468
0.160829
0.160188
0.159546
0.158904
0.158263
0.157621
0.15698
0.156339
0.155698
0.155055
0.154411
0.153765
0.153116
0.152464
0.151812
0.15116
0.150511
0.149868
0.149234
0.148612
0.148003
0.147408
0.146826
0.146255
0.145691
0.145131
0.14457
0.144006
0.143435
0.142856
0.14227
0.141679
0.141086
0.140493
0.139903
0.139319
0.13874
0.138165
0.137594
0.137021
0.136442
0.135854
0.13525
0.134627
0.133981
0.133312
0.132617
0.131898
0.131155
0.130391
0.129607
0.128808
0.127995
0.127171
0.12634
0.125504
0.124664
0.123823
0.122983
0.122145
0.121309
0.120477
0.11965
0.118826
0.118007
0.117191
0.116379
0.11557
0.114762
0.113956
0.113151
0.112346
0.111543
0.110741
0.109947
0.109144
0.108443
0.107297
0.174378
0.173777
0.173174
0.17257
0.171965
0.171358
0.17075
0.170141
0.169531
0.168919
0.168306
0.167691
0.167074
0.166456
0.165835
0.165212
0.164587
0.163959
0.163329
0.162696
0.162061
0.161424
0.160784
0.160144
0.159502
0.15886
0.158217
0.157575
0.156932
0.15629
0.155647
0.155003
0.154358
0.153711
0.153063
0.152413
0.151763
0.151113
0.150466
0.149824
0.14919
0.148565
0.147951
0.147348
0.146757
0.146175
0.1456
0.145028
0.144457
0.143885
0.143307
0.142725
0.142138
0.141547
0.140954
0.140362
0.139771
0.139184
0.1386
0.138019
0.137439
0.136856
0.136267
0.135667
0.135052
0.13442
0.133767
0.133091
0.132393
0.131671
0.130929
0.130166
0.129387
0.128592
0.127784
0.126967
0.126141
0.125311
0.124476
0.12364
0.122803
0.121967
0.121132
0.120299
0.119469
0.118641
0.117816
0.116994
0.116173
0.115354
0.114535
0.113716
0.112897