/*--------------------------------*- C++ -*----------------------------------*\
  =========                 |
  \\      /  F ield         | OpenFOAM: The Open Source CFD Toolbox
   \\    /   O peration     | Website:  https://openfoam.org
    \\  /    A nd           | Version:  10
     \\/     M anipulation  |
\*---------------------------------------------------------------------------*/
FoamFile
{
    format      ascii;
    class       volScalarField;
    location    "1300";
    object      p;
}
// * * * * * * * * * * * * * * * * * * * * * * * * * * * * * * * * * * * * * //

dimensions      [0 2 -2 0 0 0 0];

internalField   nonuniform List<scalar> 
6820
(
-8.06104
-8.83247
-9.27975
-9.4266
-9.50495
-9.56979
-9.61502
-9.64492
-9.66787
-9.68757
-9.70486
-9.72026
-9.73433
-9.74742
-9.7597
-9.77124
-9.78209
-9.79225
-9.80169
-9.81033
-9.81807
-9.82472
-9.83005
-9.83368
-9.83509
-9.83349
-9.82758
-9.81548
-9.79385
-9.75584
-9.69639
-9.60358
-9.40306
-9.61547
-9.7606
-9.7364
-9.66743
-9.63954
-9.6446
-9.6572
-9.66974
-9.68307
-9.69718
-9.71111
-9.7244
-9.73703
-9.74908
-9.76054
-9.7714
-9.78167
-9.79132
-9.80031
-9.80858
-9.81602
-9.82247
-9.82773
-9.83149
-9.83332
-9.83266
-9.82851
-9.82001
-9.80382
-9.78315
-9.73279
-9.70531
-9.5908
-9.61914
-9.48371
-9.48391
-9.51797
-9.55344
-9.59051
-9.62239
-9.6472
-9.66785
-9.68628
-9.70289
-9.71792
-9.73173
-9.74462
-9.75672
-9.76811
-9.77884
-9.78891
-9.7983
-9.80696
-9.81481
-9.82171
-9.82747
-9.83184
-9.83448
-9.83494
-9.83253
-9.82668
-9.81572
-9.8017
-9.77652
-9.77219
-9.77194
-9.54953
-9.47194
-9.51619
-9.56322
-9.58883
-9.61308
-9.63679
-9.65678
-9.67421
-9.69043
-9.70561
-9.71974
-9.73298
-9.7455
-9.75735
-9.76859
-9.77923
-9.78926
-9.79866
-9.80738
-9.81535
-9.82246
-9.82857
-9.83349
-9.83699
-9.8388
-9.83857
-9.83622
-9.83138
-9.82655
-9.8214
-9.83562
-9.87097
-9.54305
-9.51355
-9.54314
-9.57448
-9.59352
-9.61452
-9.63694
-9.6567
-9.6741
-9.69026
-9.70542
-9.71954
-9.73279
-9.7453
-9.75717
-9.76843
-9.77911
-9.78921
-9.79873
-9.80762
-9.81583
-9.82329
-9.8299
-9.83554
-9.8401
-9.84348
-9.84563
-9.84683
-9.84754
-9.85021
-9.85682
-9.87781
-9.91584
-9.55102
-9.53691
-9.5529
-9.57818
-9.59799
-9.61837
-9.6395
-9.65855
-9.67553
-9.69132
-9.70619
-9.72013
-9.73325
-9.74568
-9.75751
-9.76876
-9.77947
-9.78965
-9.79929
-9.80836
-9.81684
-9.82469
-9.83184
-9.83827
-9.84395
-9.84892
-9.85336
-9.85776
-9.86295
-9.87096
-9.88398
-9.90736
-9.94362
-9.55887
-9.55132
-9.56259
-9.58477
-9.60419
-9.62299
-9.64238
-9.66049
-9.67696
-9.69237
-9.70695
-9.72071
-9.73371
-9.74608
-9.75788
-9.76915
-9.77991
-9.79019
-9.79997
-9.80926
-9.81805
-9.82632
-9.83408
-9.84133
-9.84813
-9.85465
-9.86118
-9.86829
-9.87688
-9.88854
-9.90506
-9.92934
-9.96324
-9.56692
-9.56377
-9.57318
-9.59204
-9.61003
-9.62739
-9.64533
-9.66257
-9.67853
-9.69354
-9.70782
-9.72138
-9.73426
-9.74656
-9.75833
-9.76961
-9.78044
-9.79082
-9.80078
-9.81031
-9.81943
-9.82816
-9.83653
-9.8446
-9.85249
-9.86043
-9.86877
-9.87807
-9.88917
-9.90325
-9.92167
-9.94605
-9.97745
-9.57539
-9.57492
-9.58313
-9.59908
-9.6156
-9.63181
-9.64851
-9.66486
-9.68026
-9.69485
-9.70881
-9.72215
-9.73489
-9.74711
-9.75885
-9.77015
-9.78104
-9.79155
-9.80168
-9.81147
-9.82094
-9.83013
-9.83911
-9.84797
-9.85688
-9.86607
-9.87592
-9.88694
-9.89984
-9.91549
-9.93484
-9.9588
-9.98782
-9.58394
-9.5849
-9.5923
-9.606
-9.62111
-9.63627
-9.65184
-9.66731
-9.68213
-9.69629
-9.70992
-9.72303
-9.73562
-9.74775
-9.75946
-9.77077
-9.78173
-9.79236
-9.80268
-9.81273
-9.82255
-9.8322
-9.84176
-9.85135
-9.86116
-9.87143
-9.88251
-9.89484
-9.90899
-9.92559
-9.94526
-9.9685
-9.99538
-9.59232
-9.59399
-9.60081
-9.61278
-9.62655
-9.64069
-9.65526
-9.66989
-9.68412
-9.69785
-9.71115
-9.72401
-9.73645
-9.74848
-9.76014
-9.77147
-9.7825
-9.79325
-9.80375
-9.81406
-9.82422
-9.8343
-9.84441
-9.85467
-9.86526
-9.87642
-9.88846
-9.90176
-9.91673
-9.93383
-9.95345
-9.97582
-10.0008
-9.6004
-9.60237
-9.60871
-9.61932
-9.63187
-9.64505
-9.65871
-9.67256
-9.68621
-9.69951
-9.71247
-9.72509
-9.73735
-9.74928
-9.7609
-9.77224
-9.78333
-9.7942
-9.80488
-9.81544
-9.82592
-9.8364
-9.847
-9.85783
-9.86908
-9.88097
-9.89374
-9.9077
-9.92318
-9.94046
-9.95978
-9.98122
-10.0046
-9.60809
-9.61015
-9.61606
-9.62558
-9.63704
-9.64932
-9.66216
-9.67529
-9.68837
-9.70124
-9.71387
-9.72624
-9.73833
-9.75015
-9.76172
-9.77307
-9.78421
-9.79519
-9.80605
-9.81683
-9.8276
-9.83844
-9.84946
-9.86078
-9.87257
-9.88501
-9.89831
-9.9127
-9.92842
-9.94566
-9.96453
-9.98503
-10.007
-9.61536
-9.61739
-9.62289
-9.63153
-9.64202
-9.65348
-9.66556
-9.67802
-9.69056
-9.70302
-9.71532
-9.72744
-9.73936
-9.75107
-9.76258
-9.77393
-9.78512
-9.7962
-9.8072
-9.81819
-9.82922
-9.84037
-9.85175
-9.86346
-9.87566
-9.8885
-9.90214
-9.91677
-9.93254
-9.94957
-9.9679
-9.98749
-10.0082
-9.62217
-9.62412
-9.62924
-9.63714
-9.6468
-9.6575
-9.66889
-9.68074
-9.69277
-9.70481
-9.71679
-9.72867
-9.74041
-9.75201
-9.76346
-9.7748
-9.78603
-9.79719
-9.80832
-9.81948
-9.83073
-9.84213
-9.8538
-9.86581
-9.87831
-9.89141
-9.90525
-9.91995
-9.93562
-9.95232
-9.97005
-9.98876
-10.0083
-9.6285
-9.63035
-9.63511
-9.64239
-9.65133
-9.66134
-9.67211
-9.68339
-9.69494
-9.7066
-9.71827
-9.72991
-9.74147
-9.75295
-9.76434
-9.77565
-9.78691
-9.79813
-9.80937
-9.82067
-9.83209
-9.84369
-9.85557
-9.8678
-9.88049
-9.89373
-9.90763
-9.92228
-9.93773
-9.95402
-9.97112
-9.98897
-10.0074
-9.63436
-9.6361
-9.64054
-9.64728
-9.65559
-9.66499
-9.67519
-9.68595
-9.69705
-9.70834
-9.71972
-9.73112
-9.74251
-9.75387
-9.76518
-9.77647
-9.78773
-9.799
-9.81032
-9.82172
-9.83326
-9.84501
-9.85702
-9.86938
-9.88216
-9.89545
-9.9093
-9.92378
-9.93893
-9.95474
-9.97119
-9.98821
-10.0057
-9.63973
-9.64136
-9.6455
-9.65178
-9.65955
-9.6684
-9.67809
-9.68838
-9.69907
-9.71001
-9.72111
-9.73229
-9.7435
-9.75474
-9.76597
-9.77721
-9.78847
-9.79976
-9.81113
-9.8226
-9.83422
-9.84604
-9.85813
-9.87054
-9.88333
-9.89656
-9.91027
-9.92451
-9.93928
-9.95458
-9.97036
-9.98656
-10.0031
-9.6446
-9.64613
-9.65001
-9.65589
-9.66318
-9.67155
-9.68078
-9.69064
-9.70096
-9.71158
-9.7224
-9.73337
-9.74442
-9.75553
-9.76668
-9.77786
-9.78909
-9.80039
-9.81177
-9.82326
-9.83492
-9.84677
-9.85887
-9.87125
-9.88397
-9.89707
-9.91057
-9.9245
-9.93884
-9.95359
-9.96869
-9.9841
-9.99972
-9.64897
-9.65041
-9.65406
-9.65959
-9.66647
-9.67441
-9.68323
-9.69271
-9.70268
-9.713
-9.72358
-9.73434
-9.74523
-9.75621
-9.76726
-9.77838
-9.78957
-9.80084
-9.81221
-9.8237
-9.83534
-9.84717
-9.85922
-9.87152
-9.88411
-9.897
-9.91023
-9.92379
-9.93766
-9.95184
-9.96626
-9.98089
-9.99564
-9.65282
-9.65418
-9.65762
-9.66285
-9.66938
-9.67695
-9.6854
-9.69453
-9.7042
-9.71425
-9.7246
-9.73517
-9.7459
-9.75675
-9.76771
-9.77875
-9.78988
-9.8011
-9.81243
-9.82387
-9.83546
-9.84722
-9.85917
-9.87133
-9.88373
-9.89637
-9.90927
-9.92242
-9.9358
-9.94938
-9.96313
-9.97699
-9.99091
-9.65614
-9.65743
-9.6607
-9.66566
-9.67189
-9.67913
-9.68726
-9.69609
-9.70548
-9.71529
-9.72543
-9.73581
-9.7464
-9.75713
-9.76798
-9.77894
-9.78999
-9.80115
-9.8124
-9.82377
-9.83527
-9.84691
-9.85871
-9.87069
-9.88285
-9.8952
-9.90773
-9.92043
-9.93329
-9.94628
-9.95935
-9.97246
-9.98556
-9.65892
-9.66015
-9.66326
-9.668
-9.67396
-9.68093
-9.68877
-9.69734
-9.70649
-9.71608
-9.72603
-9.73625
-9.74669
-9.7573
-9.76805
-9.77892
-9.78988
-9.80095
-9.81211
-9.82338
-9.83475
-9.84624
-9.85786
-9.86961
-9.88149
-9.8935
-9.90564
-9.91788
-9.9302
-9.94258
-9.95498
-9.96736
-9.97967
-9.66113
-9.66231
-9.66529
-9.66983
-9.67556
-9.6823
-9.68991
-9.69825
-9.70718
-9.71659
-9.72637
-9.73645
-9.74676
-9.75725
-9.7679
-9.77866
-9.78953
-9.80049
-9.81154
-9.82268
-9.8339
-9.84521
-9.85661
-9.8681
-9.87967
-9.89132
-9.90304
-9.9148
-9.92658
-9.93835
-9.95009
-9.96175
-9.9733
-9.66275
-9.66389
-9.66675
-9.67112
-9.67667
-9.6832
-9.69061
-9.69877
-9.70753
-9.71678
-9.72642
-9.73637
-9.74656
-9.75695
-9.76749
-9.77815
-9.78891
-9.79976
-9.81068
-9.82166
-9.83271
-9.84382
-9.85497
-9.86618
-9.87742
-9.88869
-9.89997
-9.91124
-9.92248
-9.93365
-9.94474
-9.9557
-9.96651
-9.66376
-9.66485
-9.66761
-9.67184
-9.67723
-9.6836
-9.69086
-9.69887
-9.70749
-9.71661
-9.72614
-9.73598
-9.74608
-9.75637
-9.76681
-9.77737
-9.78801
-9.79874
-9.80951
-9.82033
-9.83119
-9.84207
-9.85297
-9.86387
-9.87477
-9.88564
-9.89648
-9.90725
-9.91795
-9.92853
-9.93898
-9.94926
-9.95935
-9.66412
-9.66518
-9.66784
-9.67195
-9.6772
-9.68345
-9.69059
-9.69849
-9.70702
-9.71605
-9.72549
-9.73526
-9.74527
-9.75548
-9.76583
-9.77629
-9.78683
-9.79742
-9.80805
-9.81869
-9.82935
-9.83999
-9.85061
-9.86121
-9.87175
-9.88222
-9.89261
-9.9029
-9.91306
-9.92307
-9.9329
-9.94253
-9.95193
-9.6638
-9.66482
-9.6674
-9.67139
-9.67653
-9.6827
-9.68976
-9.6976
-9.70607
-9.71506
-9.72445
-9.73416
-9.74412
-9.75426
-9.76454
-9.77491
-9.78533
-9.7958
-9.80627
-9.81673
-9.82717
-9.83757
-9.84792
-9.85819
-9.86837
-9.87845
-9.88839
-9.8982
-9.90783
-9.91728
-9.92651
-9.93551
-9.94426
-9.66277
-9.66375
-9.66623
-9.6701
-9.67516
-9.68128
-9.68832
-9.69615
-9.70461
-9.71359
-9.72297
-9.73267
-9.74261
-9.75271
-9.76293
-9.77323
-9.78356
-9.7939
-9.80423
-9.81452
-9.82476
-9.83492
-9.84498
-9.85494
-9.86477
-9.87446
-9.88398
-9.89332
-9.90245
-9.91136
-9.92002
-9.92842
-9.93654
-9.66101
-9.66193
-9.66427
-9.66801
-9.67301
-9.67913
-9.68621
-9.69407
-9.70259
-9.71161
-9.72103
-9.73075
-9.74068
-9.75076
-9.76094
-9.77116
-9.7814
-9.79162
-9.8018
-9.81191
-9.82193
-9.83184
-9.84163
-9.85127
-9.86075
-9.87006
-9.87916
-9.88804
-9.89669
-9.90509
-9.91321
-9.92105
-9.92859
-9.65848
-9.65932
-9.66145
-9.66503
-9.66999
-9.67617
-9.68334
-9.69131
-9.69995
-9.7091
-9.71865
-9.72846
-9.73847
-9.7486
-9.7588
-9.76902
-9.77921
-9.78936
-9.79942
-9.80938
-9.81922
-9.82892
-9.83845
-9.8478
-9.85696
-9.8659
-9.87461
-9.88307
-9.89126
-9.89916
-9.90677
-9.91406
-9.92102
-9.65522
-9.65589
-9.65767
-9.661
-9.66597
-9.67232
-9.67968
-9.68782
-9.6966
-9.70587
-9.71549
-9.72536
-9.73539
-9.74552
-9.75569
-9.76585
-9.77597
-9.78601
-9.79594
-9.80575
-9.8154
-9.82488
-9.83417
-9.84325
-9.85211
-9.86071
-9.86906
-9.87713
-9.88492
-9.89239
-9.89955
-9.90637
-9.91288
-9.65128
-9.65162
-9.65278
-9.65572
-9.66074
-9.66737
-9.6751
-9.68373
-9.69305
-9.70283
-9.71289
-9.72312
-9.73345
-9.74379
-9.7541
-9.76434
-9.77447
-9.78448
-9.79432
-9.804
-9.81347
-9.82274
-9.83178
-9.84057
-9.8491
-9.85736
-9.86532
-9.87299
-9.88033
-9.88734
-9.89401
-9.90031
-9.90624
-9.6469
-9.64649
-9.64649
-9.6491
-9.6544
-9.66111
-9.66865
-9.67706
-9.68626
-9.69599
-9.70604
-9.7163
-9.72667
-9.73708
-9.74747
-9.75778
-9.76798
-9.77803
-9.7879
-9.79758
-9.80703
-9.81625
-9.82521
-9.83389
-9.84229
-9.85039
-9.85817
-9.86561
-9.87272
-9.87948
-9.88589
-9.89194
-9.89765
-9.64276
-9.64051
-9.63762
-9.63985
-9.6472
-9.65658
-9.66655
-9.67697
-9.68774
-9.6986
-9.70942
-9.72016
-9.73078
-9.74127
-9.75158
-9.76172
-9.77166
-9.7814
-9.79091
-9.80018
-9.80921
-9.81797
-9.82645
-9.83465
-9.84254
-9.85011
-9.85736
-9.86426
-9.87081
-9.87699
-9.8828
-9.8882
-9.89319
-9.64003
-9.6349
-9.62734
-9.625
-9.62753
-9.633
-9.641
-9.65099
-9.66205
-9.67359
-9.68536
-9.69723
-9.70905
-9.72073
-9.73221
-9.74345
-9.75443
-9.76512
-9.77551
-9.78558
-9.79532
-9.80472
-9.81377
-9.82247
-9.83079
-9.83874
-9.84631
-9.85348
-9.86026
-9.86664
-9.87262
-9.87822
-9.88346
-9.64034
-9.62043
-9.62322
-9.64296
-9.65965
-9.67048
-9.68022
-9.69054
-9.70077
-9.71056
-9.7201
-9.72954
-9.73889
-9.74812
-9.75723
-9.76621
-9.77505
-9.78373
-9.79222
-9.80052
-9.8086
-9.81644
-9.82403
-9.83134
-9.83837
-9.84508
-9.85148
-9.85754
-9.86325
-9.8686
-9.87356
-9.87812
-9.88226
-9.67771
-9.55446
-9.49134
-9.49496
-9.51728
-9.53896
-9.56022
-9.58191
-9.60303
-9.62292
-9.64161
-9.65922
-9.67583
-9.69149
-9.7063
-9.72034
-9.73366
-9.74632
-9.75837
-9.76982
-9.78071
-9.79106
-9.80089
-9.8102
-9.81901
-9.82732
-9.83514
-9.84247
-9.84932
-9.8557
-9.86159
-9.86703
-9.87202
-9.83756
-9.85071
-9.80937
-9.76714
-9.74311
-9.73253
-9.72796
-9.72596
-9.72608
-9.72833
-9.73226
-9.73734
-9.74321
-9.74967
-9.75657
-9.76377
-9.77115
-9.77863
-9.78613
-9.79359
-9.80095
-9.80818
-9.81523
-9.82206
-9.82866
-9.83499
-9.84103
-9.84676
-9.85216
-9.85721
-9.8619
-9.86622
-9.87013
-8.67329
-8.97363
-9.23871
-9.36469
-9.42968
-9.48576
-9.53527
-9.57363
-9.60337
-9.62838
-9.65039
-9.66991
-9.68737
-9.70325
-9.7179
-9.73153
-9.74429
-9.75628
-9.76758
-9.77827
-9.78837
-9.79793
-9.80696
-9.81549
-9.82352
-9.83107
-9.83815
-9.84475
-9.85089
-9.85657
-9.86181
-9.86659
-9.87095
-9.68058
-10.3194
-10.3521
-10.2751
-10.2374
-10.2587
-10.3333
-10.4424
-10.5657
-10.6904
-10.8084
-10.9119
-10.9952
-11.0576
-11.1023
-11.1334
-11.1543
-11.1674
-11.1748
-11.1786
-11.1811
-11.184
-11.1881
-11.1932
-11.1979
-11.1996
-11.1949
-11.1799
-11.1509
-11.1049
-11.0407
-10.9591
-10.8629
-10.7568
-10.6462
-10.5359
-10.4295
-10.3278
-10.2285
-10.1269
-10.0163
-9.88954
-9.74047
-9.56532
-9.36339
-9.13729
-8.89233
-8.63534
-8.37316
-8.11124
-7.85268
-7.59796
-7.34528
-7.09131
-6.83214
-6.56414
-6.28473
-5.99282
-5.68906
-5.37591
-5.05735
-4.7385
-4.42501
-4.12236
-3.83519
-3.56681
-3.31897
-3.09197
-2.88496
-2.69634
-2.52415
-2.36632
-2.22083
-2.08583
-1.95968
-1.8409
-1.72825
-1.62067
-1.51728
-1.41736
-1.32032
-1.22569
-1.13312
-1.04234
-0.953186
-0.86559
-0.779624
-0.695519
-0.613709
-0.534845
-0.459736
-0.389268
-0.324127
-0.264881
-0.211198
-0.163668
-0.119021
-0.0833957
-0.036967
-0.0318184
-9.78676
-10.5038
-10.4885
-10.2765
-10.1766
-10.1898
-10.2752
-10.3965
-10.5259
-10.6508
-10.7663
-10.8676
-10.9499
-11.0121
-11.0572
-11.0895
-11.112
-11.1268
-11.1354
-11.1399
-11.1427
-11.1458
-11.1501
-11.1554
-11.1602
-11.1618
-11.1567
-11.1409
-11.111
-11.064
-10.9989
-10.9166
-10.8201
-10.7138
-10.6032
-10.4933
-10.3874
-10.2865
-10.1883
-10.0879
-9.97856
-9.85301
-9.70504
-9.53077
-9.32956
-9.10411
-8.85988
-8.6039
-8.34322
-8.08342
-7.82764
-7.57627
-7.32731
-7.07719
-6.82176
-6.55721
-6.28086
-5.99161
-5.69016
-5.379
-5.06216
-4.7448
-4.4326
-4.13107
-3.84492
-3.57752
-3.33068
-3.10475
-2.89885
-2.71137
-2.54029
-2.3835
-2.23893
-2.10471
-1.97915
-1.86079
-1.74838
-1.64085
-1.53734
-1.43711
-1.33961
-1.24436
-1.15102
-1.05933
-0.96912
-0.880324
-0.793014
-0.707426
-0.624016
-0.543473
-0.466669
-0.39456
-0.327898
-0.267303
-0.21243
-0.163943
-0.118314
-0.0823952
-0.0343015
-0.0325417
-9.96095
-10.384
-10.3772
-10.1998
-10.1306
-10.1754
-10.2772
-10.3962
-10.5118
-10.6195
-10.7212
-10.8148
-10.8949
-10.958
-11.0053
-11.0402
-11.0657
-11.0832
-11.0941
-11.1001
-11.1037
-11.1069
-11.1112
-11.1162
-11.1205
-11.1213
-11.1152
-11.0983
-11.0673
-11.0196
-10.9541
-10.8719
-10.7758
-10.6702
-10.5604
-10.451
-10.3456
-10.2448
-10.1467
-10.0464
-9.93729
-9.81223
-9.66507
-9.49197
-9.29226
-9.06858
-8.82632
-8.57246
-8.31403
-8.05664
-7.80348
-7.55495
-7.30901
-7.06202
-6.80974
-6.5483
-6.275
-5.98873
-5.69021
-5.38193
-5.06788
-4.75311
-4.4432
-4.14362
-3.85905
-3.59289
-3.34704
-3.12191
-2.91671
-2.72986
-2.55934
-2.40304
-2.25887
-2.12495
-1.99958
-1.88129
-1.7688
-1.66108
-1.55724
-1.45657
-1.35849
-1.26256
-1.16844
-1.07585
-0.984633
-0.894731
-0.806208
-0.719304
-0.634486
-0.552466
-0.474156
-0.400563
-0.332485
-0.270585
-0.214524
-0.165018
-0.118371
-0.0819572
-0.0323586
-0.0332216
-9.98797
-10.2206
-10.2657
-10.1805
-10.15
-10.204
-10.3012
-10.4091
-10.5116
-10.6056
-10.6934
-10.7751
-10.8471
-10.9063
-10.9528
-10.9888
-11.0162
-11.0362
-11.0495
-11.0574
-11.0621
-11.0657
-11.0697
-11.0741
-11.0773
-11.0768
-11.0693
-11.0511
-11.0191
-10.971
-10.9058
-10.8246
-10.73
-10.6261
-10.5177
-10.4093
-10.3041
-10.2029
-10.1038
-10.0024
-9.89237
-9.76695
-9.62024
-9.44854
-9.25112
-9.03042
-8.79151
-8.54104
-8.28577
-8.0312
-7.78054
-7.53429
-7.29055
-7.04581
-6.79591
-6.53708
-6.26666
-5.98358
-5.68856
-5.38401
-5.07378
-4.76274
-4.45625
-4.15959
-3.87731
-3.61282
-3.36809
-3.14362
-2.93877
-2.75205
-2.58153
-2.42512
-2.28078
-2.14661
-2.02093
-1.90227
-1.78935
-1.68112
-1.57672
-1.47541
-1.37664
-1.27995
-1.185
-1.09153
-0.999382
-0.908488
-0.818915
-0.730903
-0.644917
-0.561679
-0.482113
-0.407252
-0.337926
-0.274828
-0.217626
-0.167084
-0.119403
-0.0823314
-0.0313452
-0.0340788
-9.99559
-10.1453
-10.2156
-10.1909
-10.1824
-10.2297
-10.3109
-10.4039
-10.4964
-10.5834
-10.6646
-10.7399
-10.8069
-10.8631
-10.9082
-10.9437
-10.9713
-10.992
-11.0062
-11.0151
-11.0202
-11.0237
-11.0268
-11.0295
-11.0308
-11.0282
-11.0185
-10.9987
-10.9657
-10.9174
-10.8532
-10.7738
-10.6816
-10.5803
-10.4742
-10.3672
-10.2623
-10.1602
-10.0594
-9.9558
-9.84383
-9.71723
-9.57057
-9.40036
-9.20583
-8.98912
-8.7548
-8.50893
-8.25777
-8.00654
-7.75838
-7.51399
-7.27174
-7.02841
-6.78015
-6.52338
-6.2556
-5.97579
-5.68464
-5.38446
-5.07889
-4.77253
-4.47045
-4.17762
-3.89841
-3.63613
-3.39279
-3.16902
-2.96434
-2.77742
-2.60647
-2.44948
-2.30447
-2.1696
-2.04318
-1.92376
-1.81007
-1.70106
-1.59586
-1.49375
-1.39415
-1.29663
-1.20082
-1.10649
-1.01346
-0.92168
-0.831204
-0.74227
-0.655334
-0.571108
-0.490512
-0.414578
-0.34415
-0.279942
-0.221642
-0.170047
-0.12132
-0.0834387
-0.0312006
-0.0350077
-10.0072
-10.1142
-10.1871
-10.1969
-10.2037
-10.2441
-10.3118
-10.3928
-10.4769
-10.5578
-10.6332
-10.7029
-10.7656
-10.8195
-10.8637
-10.899
-10.9267
-10.9478
-10.9626
-10.9721
-10.9777
-10.981
-10.9831
-10.9841
-10.983
-10.9776
-10.9654
-10.9434
-10.909
-10.8606
-10.7975
-10.7202
-10.6309
-10.5327
-10.4293
-10.324
-10.2193
-10.1162
-10.013
-9.9066
-9.79189
-9.66344
-9.51637
-9.34754
-9.15615
-8.944
-8.71507
-8.4747
-8.22849
-7.98118
-7.73579
-7.49312
-7.25193
-7.00944
-6.76224
-6.50709
-6.2417
-5.96515
-5.67809
-5.38269
-5.08235
-4.78135
-4.4844
-4.19614
-3.92068
-3.66119
-3.41964
-3.19678
-2.9923
-2.80505
-2.63342
-2.47553
-2.32952
-2.19358
-2.06609
-1.94561
-1.83088
-1.72086
-1.61468
-1.51161
-1.4111
-1.31268
-1.216
-1.12083
-1.02698
-0.93441
-0.843169
-0.753486
-0.665802
-0.580802
-0.499378
-0.422545
-0.351141
-0.285892
-0.226516
-0.173838
-0.124047
-0.0852012
-0.0318591
-0.035885
-10.017
-10.0989
-10.1668
-10.1948
-10.2127
-10.2503
-10.3097
-10.382
-10.4586
-10.5331
-10.6027
-10.6671
-10.7256
-10.7767
-10.8194
-10.8539
-10.8812
-10.9021
-10.9172
-10.9271
-10.933
-10.9361
-10.9372
-10.9364
-10.9329
-10.9248
-10.9098
-10.8856
-10.8499
-10.8013
-10.7392
-10.6641
-10.5778
-10.4827
-10.3821
-10.2786
-10.1745
-10.0702
-9.96484
-9.85536
-9.73763
-9.60694
-9.45912
-9.29138
-9.10298
-8.8954
-8.67203
-8.43749
-8.19664
-7.95371
-7.71143
-7.4707
-7.2306
-6.98883
-6.74248
-6.48875
-6.22562
-5.9523
-5.66943
-5.37899
-5.08413
-4.78881
-4.49737
-4.21411
-3.94284
-3.68654
-3.44716
-3.2255
-3.02139
-2.83387
-2.66151
-2.50261
-2.3554
-2.21819
-2.0894
-1.96763
-1.85167
-1.74046
-1.63316
-1.52903
-1.42752
-1.32816
-1.23061
-1.13462
-1.04001
-0.946741
-0.854859
-0.764582
-0.676329
-0.59075
-0.50869
-0.431122
-0.358862
-0.292637
-0.232204
-0.178408
-0.127525
-0.0875619
-0.0332655
-0.036616
-10.0242
-10.0905
-10.1513
-10.188
-10.2145
-10.2521
-10.3062
-10.3714
-10.4408
-10.509
-10.5733
-10.633
-10.6876
-10.7357
-10.7764
-10.8096
-10.836
-10.8564
-10.8713
-10.8814
-10.8873
-10.8899
-10.8899
-10.8874
-10.8814
-10.8707
-10.8531
-10.8267
-10.7896
-10.7407
-10.6794
-10.6062
-10.5224
-10.4302
-10.3321
-10.2304
-10.1269
-10.0219
-9.91455
-9.80239
-9.68191
-9.54915
-9.40057
-9.23378
-9.04812
-8.84483
-8.62678
-8.3979
-8.16241
-7.92398
-7.68507
-7.44657
-7.20784
-6.96702
-6.72167
-6.46944
-6.20862
-5.93857
-5.6599
-5.37445
-5.08511
-4.79551
-4.50965
-4.23148
-3.96454
-3.71163
-3.47462
-3.25435
-3.05077
-2.8631
-2.69006
-2.53014
-2.38168
-2.24311
-2.1129
-1.98973
-1.87241
-1.75991
-1.65138
-1.54611
-1.44354
-1.34321
-1.24477
-1.14797
-1.05265
-0.958745
-0.866311
-0.775557
-0.686877
-0.600878
-0.518349
-0.4402
-0.367207
-0.300083
-0.238621
-0.183682
-0.13168
-0.0904612
-0.0353554
-0.0371364
-10.0291
-10.0851
-10.1396
-10.1801
-10.2124
-10.2508
-10.3008
-10.3596
-10.4225
-10.485
-10.5446
-10.6
-10.6509
-10.696
-10.7345
-10.7661
-10.7915
-10.8112
-10.8258
-10.8357
-10.8413
-10.8433
-10.8421
-10.8378
-10.8295
-10.8162
-10.7962
-10.7678
-10.7295
-10.6802
-10.6195
-10.5478
-10.4662
-10.3765
-10.2806
-10.1805
-10.0775
-9.97198
-9.86306
-9.7487
-9.62594
-9.49148
-9.34234
-9.17652
-8.99344
-8.79415
-8.58106
-8.35753
-8.12716
-7.89316
-7.65769
-7.42165
-7.18458
-6.94501
-6.70095
-6.45043
-6.19205
-5.9253
-5.65081
-5.37028
-5.08635
-4.80235
-4.52194
-4.24877
-3.98611
-3.73659
-3.50199
-3.28318
-3.08023
-2.89248
-2.71884
-2.55791
-2.40822
-2.26825
-2.13659
-2.01196
-1.8932
-1.77933
-1.66952
-1.56306
-1.45939
-1.35805
-1.25871
-1.1611
-1.06507
-0.970555
-0.877615
-0.786447
-0.697423
-0.611107
-0.528225
-0.449619
-0.376006
-0.308067
-0.245625
-0.189543
-0.13641
-0.093822
-0.0380397
-0.0374123
-10.0324
-10.0813
-10.1306
-10.1721
-10.2078
-10.2465
-10.2931
-10.3467
-10.4039
-10.4613
-10.5163
-10.5678
-10.615
-10.6572
-10.6934
-10.7234
-10.7477
-10.7666
-10.7807
-10.7901
-10.7952
-10.7964
-10.7939
-10.7878
-10.7775
-10.7619
-10.7398
-10.7096
-10.6701
-10.6204
-10.5602
-10.4897
-10.41
-10.3223
-10.2283
-10.1296
-10.0272
-9.92128
-9.81117
-9.69509
-9.57057
-9.43485
-9.28544
-9.12068
-8.94008
-8.74452
-8.53604
-8.31748
-8.09195
-7.86221
-7.63018
-7.39672
-7.16155
-6.92351
-6.681
-6.4324
-6.17658
-5.91318
-5.64282
-5.36707
-5.08837
-4.80977
-4.53461
-4.26627
-4.00776
-3.76155
-3.52935
-3.31204
-3.10976
-2.92199
-2.7478
-2.58593
-2.43501
-2.29366
-2.16053
-2.03441
-1.9142
-1.79893
-1.68779
-1.5801
-1.47529
-1.37292
-1.27265
-1.17422
-1.07748
-0.982357
-0.88892
-0.797354
-0.708011
-0.621417
-0.538239
-0.459245
-0.385091
-0.316411
-0.253042
-0.195839
-0.14158
-0.0975431
-0.0411967
-0.0374447
-10.0344
-10.0781
-10.1232
-10.1642
-10.2013
-10.2399
-10.2837
-10.3328
-10.3851
-10.4377
-10.4885
-10.5361
-10.5799
-10.6191
-10.653
-10.6815
-10.7045
-10.7225
-10.7358
-10.7445
-10.7489
-10.7491
-10.7454
-10.7376
-10.7254
-10.7078
-10.6838
-10.652
-10.6115
-10.5615
-10.5017
-10.4323
-10.354
-10.268
-10.1757
-10.0781
-9.97622
-9.87011
-9.75911
-9.64174
-9.51593
-9.37937
-9.23
-9.06641
-8.88822
-8.69616
-8.49196
-8.27803
-8.05703
-7.83135
-7.6027
-7.3719
-7.1388
-6.90253
-6.6618
-6.41532
-6.16218
-5.90216
-5.63587
-5.36479
-5.09115
-4.81774
-4.54764
-4.28394
-4.02945
-3.78647
-3.55663
-3.34083
-3.13926
-2.95155
-2.77686
-2.6141
-2.46201
-2.31931
-2.18474
-2.05714
-1.93547
-1.81879
-1.70631
-1.59737
-1.49141
-1.38799
-1.28677
-1.18751
-1.09004
-0.994305
-0.900361
-0.808389
-0.718722
-0.631847
-0.54838
-0.469018
-0.394356
-0.324974
-0.26072
-0.202419
-0.14705
-0.101513
-0.0446761
-0.0372704
-10.0354
-10.0752
-10.1167
-10.1563
-10.1935
-10.2314
-10.2729
-10.3182
-10.3659
-10.4141
-10.4609
-10.5049
-10.5454
-10.5818
-10.6135
-10.6402
-10.6619
-10.6788
-10.6912
-10.699
-10.7025
-10.7017
-10.6966
-10.6873
-10.6733
-10.654
-10.6283
-10.5952
-10.5538
-10.5035
-10.4439
-10.3754
-10.2984
-10.2138
-10.1228
-10.0263
-9.92484
-9.81861
-9.70697
-9.58866
-9.46194
-9.3249
-9.1758
-9.01349
-8.83765
-8.64889
-8.44868
-8.23908
-8.02234
-7.80054
-7.5752
-7.3471
-7.11621
-6.8819
-6.64315
-6.39894
-6.14859
-5.89197
-5.62971
-5.36319
-5.09446
-4.82607
-4.56085
-4.30164
-4.05104
-3.81121
-3.5837
-3.36941
-3.1686
-2.981
-2.80589
-2.6423
-2.48909
-2.34509
-2.20911
-2.08007
-1.95695
-1.83887
-1.72506
-1.61487
-1.50775
-1.40328
-1.30112
-1.20101
-1.10281
-1.00645
-0.911994
-0.819605
-0.729597
-0.642426
-0.558654
-0.478917
-0.40375
-0.333682
-0.268563
-0.209179
-0.152711
-0.105639
-0.0483274
-0.0369662
-10.0354
-10.072
-10.1105
-10.1483
-10.1848
-10.2216
-10.2608
-10.3027
-10.3465
-10.3906
-10.4336
-10.4741
-10.5115
-10.5452
-10.5747
-10.5996
-10.6198
-10.6355
-10.6467
-10.6535
-10.656
-10.6541
-10.6478
-10.637
-10.6215
-10.6005
-10.5733
-10.5389
-10.4968
-10.4461
-10.3868
-10.319
-10.243
-10.1597
-10.0698
-9.97415
-9.87318
-9.76691
-9.65483
-9.53585
-9.40854
-9.27128
-9.12265
-8.96169
-8.78814
-8.60252
-8.40606
-8.2005
-7.98779
-7.76971
-7.54762
-7.32226
-7.0937
-6.8615
-6.62489
-6.38309
-6.1356
-5.8824
-5.62413
-5.36206
-5.0981
-4.83457
-4.57407
-4.31921
-4.0724
-3.83565
-3.61045
-3.39769
-3.19768
-3.01024
-2.83477
-2.67041
-2.51615
-2.37089
-2.23355
-2.10308
-1.97855
-1.85908
-1.74395
-1.63252
-1.52426
-1.41874
-1.31563
-1.21469
-1.11576
-1.01878
-0.923799
-0.830984
-0.740623
-0.653136
-0.569041
-0.488913
-0.413233
-0.342481
-0.276508
-0.21605
-0.158492
-0.109864
-0.0520296
-0.0366376
-10.0346
-10.0684
-10.1042
-10.1401
-10.1753
-10.2107
-10.2477
-10.2866
-10.3268
-10.3672
-10.4065
-10.4438
-10.4782
-10.5093
-10.5365
-10.5595
-10.5782
-10.5925
-10.6025
-10.6082
-10.6095
-10.6065
-10.599
-10.5869
-10.5698
-10.5473
-10.5187
-10.4833
-10.4404
-10.3895
-10.3304
-10.2631
-10.188
-10.1057
-10.0168
-9.92189
-9.82134
-9.71512
-9.60275
-9.48335
-9.35569
-9.21844
-9.07044
-8.91088
-8.73956
-8.55691
-8.36397
-8.16223
-7.95334
-7.73884
-7.51995
-7.29736
-7.07123
-6.84128
-6.60695
-6.36767
-6.12311
-5.87334
-5.61899
-5.36128
-5.10194
-4.84313
-4.5872
-4.33656
-4.09343
-3.85971
-3.6368
-3.42558
-3.22642
-3.03919
-2.86343
-2.69837
-2.54311
-2.39664
-2.25797
-2.12612
-2.00018
-1.87935
-1.76292
-1.65025
-1.54085
-1.43429
-1.33025
-1.22847
-1.12882
-1.03122
-0.935722
-0.842476
-0.751751
-0.663935
-0.579498
-0.498964
-0.422761
-0.35132
-0.284499
-0.222976
-0.164331
-0.114144
-0.0556947
-0.0363888
-10.033
-10.0644
-10.0978
-10.1316
-10.1652
-10.199
-10.2338
-10.2698
-10.3068
-10.3438
-10.3798
-10.4139
-10.4455
-10.474
-10.499
-10.5201
-10.5371
-10.5499
-10.5586
-10.5631
-10.5632
-10.559
-10.5503
-10.5369
-10.5184
-10.4946
-10.4648
-10.4283
-10.3847
-10.3335
-10.2745
-10.2077
-10.1333
-10.0519
-9.9638
-9.86957
-9.76943
-9.66332
-9.55083
-9.43119
-9.3034
-9.16636
-9.0191
-8.86098
-8.69182
-8.51199
-8.32238
-8.12424
-7.91898
-7.70794
-7.4922
-7.27241
-7.0488
-6.82122
-6.5893
-6.35264
-6.11106
-5.86471
-5.61424
-5.36078
-5.10593
-4.85167
-4.60017
-4.35362
-4.11409
-3.88333
-3.66269
-3.45303
-3.25475
-3.0678
-2.8918
-2.72611
-2.5699
-2.42229
-2.28233
-2.14912
-2.02181
-1.89964
-1.78191
-1.66802
-1.55749
-1.4499
-1.34492
-1.24232
-1.14194
-1.04373
-0.947711
-0.854029
-0.762932
-0.674773
-0.58998
-0.509023
-0.432285
-0.360153
-0.292484
-0.229904
-0.170173
-0.118435
-0.0592548
-0.0362869
-10.0306
-10.0599
-10.091
-10.1228
-10.1546
-10.1865
-10.2192
-10.2526
-10.2866
-10.3204
-10.3533
-10.3844
-10.4133
-10.4393
-10.462
-10.4812
-10.4965
-10.5078
-10.5151
-10.5183
-10.5172
-10.5118
-10.5018
-10.4871
-10.4674
-10.4423
-10.4113
-10.374
-10.3297
-10.2782
-10.2192
-10.1527
-10.079
-9.99827
-9.91093
-9.81731
-9.71757
-9.61163
-9.49913
-9.37943
-9.25169
-9.11502
-8.96861
-8.81194
-8.64488
-8.46775
-8.28128
-8.08655
-7.88475
-7.67705
-7.46441
-7.24744
-7.02643
-6.80132
-6.57191
-6.33796
-6.09941
-5.85648
-5.60981
-5.3605
-5.11001
-4.86016
-4.61294
-4.37036
-4.13432
-3.90647
-3.68808
-3.47999
-3.28262
-3.09601
-2.91985
-2.75358
-2.5965
-2.44778
-2.30658
-2.17205
-2.04341
-1.9199
-1.80089
-1.6858
-1.57414
-1.46552
-1.35962
-1.25619
-1.1551
-1.05627
-0.959728
-0.865606
-0.774128
-0.685614
-0.600449
-0.519055
-0.441771
-0.368941
-0.300425
-0.236792
-0.175971
-0.1227
-0.0626621
-0.0363571
-10.0274
-10.0547
-10.0838
-10.1136
-10.1435
-10.1735
-10.204
-10.2349
-10.2661
-10.297
-10.327
-10.3554
-10.3816
-10.4052
-10.4257
-10.4429
-10.4564
-10.4662
-10.4721
-10.4739
-10.4715
-10.4649
-10.4537
-10.4378
-10.4168
-10.3906
-10.3585
-10.3203
-10.2754
-10.2235
-10.1646
-10.0984
-10.0251
-9.945
-9.85829
-9.7652
-9.66585
-9.56014
-9.44774
-9.32813
-9.2006
-9.06443
-8.91895
-8.76376
-8.59874
-8.42417
-8.24069
-8.04919
-7.8507
-7.64623
-7.43663
-7.2225
-7.00413
-6.78159
-6.55478
-6.32361
-6.08812
-5.8486
-5.60569
-5.36041
-5.11416
-4.86857
-4.62548
-4.38674
-4.1541
-3.92909
-3.71292
-3.50641
-3.31
-3.12377
-2.94751
-2.78074
-2.62284
-2.47309
-2.33069
-2.19489
-2.06493
-1.94013
-1.81985
-1.70357
-1.59079
-1.48115
-1.37432
-1.27007
-1.16826
-1.06881
-0.97175
-0.877181
-0.785311
-0.696427
-0.610876
-0.529031
-0.45119
-0.377657
-0.308293
-0.243612
-0.181693
-0.126912
-0.0658917
-0.0365942
-10.0235
-10.049
-10.0761
-10.1039
-10.1319
-10.16
-10.1884
-10.217
-10.2456
-10.2737
-10.301
-10.3267
-10.3504
-10.3716
-10.39
-10.4052
-10.417
-10.4252
-10.4295
-10.43
-10.4263
-10.4184
-10.406
-10.3889
-10.3668
-10.3394
-10.3063
-10.2673
-10.2218
-10.1697
-10.1106
-10.0446
-9.97177
-9.89215
-9.80597
-9.71337
-9.61441
-9.50897
-9.39677
-9.27737
-9.15019
-9.01462
-8.87015
-8.71643
-8.5534
-8.38129
-8.20064
-8.01221
-7.81688
-7.61554
-7.40894
-7.19763
-6.98196
-6.76205
-6.53792
-6.30959
-6.07718
-5.84104
-5.60182
-5.36049
-5.11834
-4.87687
-4.63777
-4.40274
-4.1734
-3.95117
-3.73719
-3.53226
-3.33683
-3.15105
-2.97474
-2.80754
-2.6489
-2.49816
-2.35463
-2.21759
-2.08636
-1.96028
-1.83877
-1.7213
-1.60742
-1.49676
-1.38901
-1.28395
-1.18142
-1.08135
-0.983759
-0.888734
-0.79646
-0.707193
-0.621239
-0.538928
-0.460521
-0.386279
-0.316065
-0.250343
-0.187318
-0.131051
-0.0689412
-0.036979
-10.0189
-10.0427
-10.0679
-10.0939
-10.12
-10.1462
-10.1724
-10.1987
-10.2249
-10.2505
-10.2752
-10.2984
-10.3196
-10.3386
-10.3549
-10.3682
-10.3782
-10.3847
-10.3876
-10.3866
-10.3816
-10.3724
-10.3588
-10.3405
-10.3173
-10.2889
-10.2549
-10.2151
-10.169
-10.1165
-10.0574
-9.99156
-9.919
-9.8398
-9.75408
-9.66193
-9.56334
-9.45822
-9.3463
-9.22722
-9.10049
-8.96563
-8.82222
-8.66999
-8.50889
-8.33913
-8.16117
-7.97567
-7.78337
-7.58505
-7.38139
-7.1729
-6.95995
-6.74273
-6.52133
-6.29588
-6.06657
-5.83379
-5.59819
-5.36071
-5.12252
-4.88504
-4.64979
-4.41835
-4.19221
-3.97269
-3.76086
-3.5575
-3.36309
-3.17779
-3.00151
-2.83393
-2.67461
-2.52295
-2.37834
-2.24012
-2.10765
-1.98033
-1.85761
-1.73897
-1.62401
-1.51234
-1.40368
-1.2978
-1.19456
-1.09387
-0.995738
-0.900248
-0.807557
-0.717892
-0.63152
-0.54873
-0.469745
-0.39479
-0.323726
-0.256967
-0.192831
-0.135108
-0.0718201
-0.0374833
-10.0136
-10.0359
-10.0593
-10.0834
-10.1077
-10.132
-10.1562
-10.1803
-10.2042
-10.2274
-10.2496
-10.2704
-10.2894
-10.3062
-10.3204
-10.3318
-10.34
-10.3449
-10.3463
-10.3439
-10.3376
-10.3271
-10.3123
-10.2928
-10.2685
-10.2391
-10.2042
-10.1637
-10.1171
-10.0643
-10.005
-9.93923
-9.8669
-9.78805
-9.70274
-9.61099
-9.51278
-9.40801
-9.29644
-9.17776
-9.05158
-8.9175
-8.77519
-8.62444