/*--------------------------------*- C++ -*----------------------------------*\
  =========                 |
  \\      /  F ield         | OpenFOAM: The Open Source CFD Toolbox
   \\    /   O peration     | Website:  https://openfoam.org
    \\  /    A nd           | Version:  10
     \\/     M anipulation  |
\*---------------------------------------------------------------------------*/
FoamFile
{
    format      ascii;
    class       surfaceScalarField;
    location    "1300";
    object      phi;
}
// * * * * * * * * * * * * * * * * * * * * * * * * * * * * * * * * * * * * * //

dimensions      [0 3 -1 0 0 0 0];

internalField   nonuniform List<scalar> 
13452
(
6.0292e-05
-2.35604e-08
5.99939e-05
2.98076e-07
5.95899e-05
4.03999e-07
5.91159e-05
4.74077e-07
5.86114e-05
5.04428e-07
5.813e-05
4.81404e-07
5.76937e-05
4.3636e-07
5.73027e-05
3.9101e-07
5.69515e-05
3.5114e-07
5.66344e-05
3.17086e-07
5.63461e-05
2.88338e-07
5.60819e-05
2.64174e-07
5.58382e-05
2.43776e-07
5.56118e-05
2.26402e-07
5.54003e-05
2.11472e-07
5.52017e-05
1.98553e-07
5.50144e-05
1.87329e-07
5.48368e-05
1.77572e-07
5.46677e-05
1.69129e-07
5.45058e-05
1.61913e-07
5.43499e-05
1.559e-07
5.41988e-05
1.51133e-07
5.4051e-05
1.47743e-07
5.3905e-05
1.45981e-07
5.37587e-05
1.46288e-07
5.36093e-05
1.49414e-07
5.34528e-05
1.5657e-07
5.32829e-05
1.69873e-07
5.30849e-05
1.98019e-07
5.28639e-05
2.2096e-07
5.25332e-05
3.30742e-07
5.20191e-05
5.14047e-07
7.52575e-07
5.12665e-05
6.21472e-05
-1.80409e-07
6.21732e-05
2.72037e-07
6.21952e-05
3.81989e-07
6.22118e-05
4.57523e-07
6.2212e-05
5.04206e-07
6.2182e-05
5.11402e-07
6.21204e-05
4.98e-07
6.20333e-05
4.78136e-07
6.19283e-05
4.5613e-07
6.18119e-05
4.33417e-07
6.16891e-05
4.11143e-07
6.15632e-05
3.90058e-07
6.14366e-05
3.70462e-07
6.13106e-05
3.52408e-07
6.11862e-05
3.35866e-07
6.10639e-05
3.20778e-07
6.09442e-05
3.07077e-07
6.0827e-05
2.9471e-07
6.07125e-05
2.83641e-07
6.06006e-05
2.73869e-07
6.0491e-05
2.65435e-07
6.03837e-05
2.58436e-07
6.02784e-05
2.53051e-07
6.01748e-05
2.49571e-07
6.00726e-05
2.48484e-07
5.99716e-05
2.50505e-07
5.98711e-05
2.57027e-07
5.97716e-05
2.69372e-07
5.96734e-05
2.96197e-07
5.95718e-05
3.2256e-07
5.94887e-05
4.13868e-07
5.9439e-05
5.63714e-07
7.31233e-07
5.94604e-05
6.36687e-05
-8.76947e-08
6.37276e-05
2.13128e-07
6.37878e-05
3.21765e-07
6.38514e-05
3.93907e-07
6.39064e-05
4.49292e-07
6.39431e-05
4.74634e-07
6.39616e-05
4.79514e-07
6.39646e-05
4.75194e-07
6.39546e-05
4.66113e-07
6.3934e-05
4.53992e-07
6.39049e-05
4.40224e-07
6.38691e-05
4.25871e-07
6.3828e-05
4.11555e-07
6.37828e-05
3.9762e-07
6.37344e-05
3.84282e-07
6.36835e-05
3.71691e-07
6.36306e-05
3.59952e-07
6.35761e-05
3.49154e-07
6.35204e-05
3.39385e-07
6.34635e-05
3.3075e-07
6.34056e-05
3.23389e-07
6.33465e-05
3.17498e-07
6.32862e-05
3.1336e-07
6.32244e-05
3.1138e-07
6.31607e-05
3.12182e-07
6.30946e-05
3.16632e-07
6.30253e-05
3.26308e-07
6.29519e-05
3.42791e-07
6.28755e-05
3.72599e-07
6.27876e-05
4.10465e-07
6.27108e-05
4.90604e-07
6.26704e-05
6.04139e-07
7.17806e-07
6.26838e-05
6.55169e-05
-2.14858e-08
6.55579e-05
1.72054e-07
6.5595e-05
2.84691e-07
6.56361e-05
3.52823e-07
6.56785e-05
4.0684e-07
6.57155e-05
4.37674e-07
6.57453e-05
4.49706e-07
6.57682e-05
4.52283e-07
6.57845e-05
4.49832e-07
6.57945e-05
4.43957e-07
6.57989e-05
4.35857e-07
6.57983e-05
4.26532e-07
6.57932e-05
4.1663e-07
6.57842e-05
4.06554e-07
6.57719e-05
3.96591e-07
6.57567e-05
3.86965e-07
6.57388e-05
3.77858e-07
6.57185e-05
3.69433e-07
6.5696e-05
3.61847e-07
6.56715e-05
3.55278e-07
6.56449e-05
3.49935e-07
6.56163e-05
3.4609e-07
6.55856e-05
3.44104e-07
6.55525e-05
3.44467e-07
6.55168e-05
3.47888e-07
6.54781e-05
3.55326e-07
6.54361e-05
3.6833e-07
6.53903e-05
3.88625e-07
6.53423e-05
4.20563e-07
6.52892e-05
4.63601e-07
6.52465e-05
5.33264e-07
6.52282e-05
6.22477e-07
7.18747e-07
6.52272e-05
6.74275e-05
7.78554e-09
6.74479e-05
1.51631e-07
6.74715e-05
2.61101e-07
6.74997e-05
3.24649e-07
6.75329e-05
3.73606e-07
6.75655e-05
4.05068e-07
6.75949e-05
4.20339e-07
6.76207e-05
4.26528e-07
6.76428e-05
4.27731e-07
6.76612e-05
4.25483e-07
6.76762e-05
4.20863e-07
6.7688e-05
4.14803e-07
6.76967e-05
4.0794e-07
6.77025e-05
4.00685e-07
6.77058e-05
3.93341e-07
6.77066e-05
3.86155e-07
6.77051e-05
3.7934e-07
6.77014e-05
3.73089e-07
6.76957e-05
3.67597e-07
6.76879e-05
3.63081e-07
6.7678e-05
3.59791e-07
6.76661e-05
3.58044e-07
6.76519e-05
3.58244e-07
6.76355e-05
3.60925e-07
6.76166e-05
3.66812e-07
6.7595e-05
3.76862e-07
6.75709e-05
3.92463e-07
6.75443e-05
4.15197e-07
6.7517e-05
4.47902e-07
6.74892e-05
4.91412e-07
6.747e-05
5.5244e-07
6.74658e-05
6.26712e-07
7.08755e-07
6.74757e-05
6.93699e-05
2.18978e-08
6.93826e-05
1.38907e-07
6.94042e-05
2.39495e-07
6.94285e-05
3.00403e-07
6.94564e-05
3.45694e-07
6.94847e-05
3.76809e-07
6.95111e-05
3.93876e-07
6.95355e-05
4.02181e-07
6.95577e-05
4.05507e-07
6.95778e-05
4.0543e-07
6.95956e-05
4.02973e-07
6.96114e-05
3.9902e-07
6.96252e-05
3.94194e-07
6.9637e-05
3.88908e-07
6.96468e-05
3.83471e-07
6.96548e-05
3.78138e-07
6.9661e-05
3.73132e-07
6.96655e-05
3.68662e-07
6.96681e-05
3.64942e-07
6.9669e-05
3.62206e-07
6.96681e-05
3.60728e-07
6.96653e-05
3.60841e-07
6.96605e-05
3.62965e-07
6.96538e-05
3.67631e-07
6.96451e-05
3.75536e-07
6.96344e-05
3.87556e-07
6.9622e-05
4.04853e-07
6.96085e-05
4.28725e-07
6.95954e-05
4.60994e-07
6.95843e-05
5.0257e-07
6.95806e-05
5.5608e-07
6.95886e-05
6.18705e-07
6.87078e-07
6.96103e-05
7.13588e-05
2.94164e-08
7.13695e-05
1.28232e-07
7.13904e-05
2.18606e-07
7.14131e-05
2.77687e-07
7.14381e-05
3.20675e-07
7.14637e-05
3.51237e-07
7.14881e-05
3.69484e-07
7.1511e-05
3.7931e-07
7.15323e-05
3.84129e-07
7.15522e-05
3.85563e-07
7.15706e-05
3.84619e-07
7.15874e-05
3.82144e-07
7.16029e-05
3.78762e-07
7.16169e-05
3.74897e-07
7.16295e-05
3.70866e-07
7.16407e-05
3.66932e-07
7.16505e-05
3.63328e-07
7.16589e-05
3.60272e-07
7.16658e-05
3.57986e-07
7.16713e-05
3.56712e-07
7.16753e-05
3.56731e-07
7.16778e-05
3.58377e-07
7.16787e-05
3.62057e-07
7.1678e-05
3.68275e-07
7.16759e-05
3.77656e-07
7.16725e-05
3.90953e-07
7.16683e-05
4.09086e-07
7.1664e-05
4.33027e-07
7.16611e-05
4.63895e-07
7.16614e-05
5.02261e-07
7.16687e-05
5.48824e-07
7.16859e-05
6.01431e-07
6.57729e-07
7.17153e-05
7.34019e-05
3.27566e-08
7.34116e-05
1.18557e-07
7.34309e-05
1.99318e-07
7.34525e-05
2.56104e-07
7.34759e-05
2.97261e-07
7.35e-05
3.27131e-07
7.35233e-05
3.46202e-07
7.35453e-05
3.573e-07
7.35661e-05
3.63376e-07
7.35856e-05
3.66055e-07
7.36038e-05
3.66336e-07
7.36209e-05
3.65042e-07
7.36369e-05
3.62799e-07
7.36518e-05
3.60047e-07
7.36655e-05
3.57119e-07
7.36781e-05
3.54288e-07
7.36897e-05
3.51796e-07
7.37001e-05
3.49868e-07
7.37093e-05
3.48731e-07
7.37174e-05
3.48631e-07
7.37243e-05
3.49842e-07
7.373e-05
3.52685e-07
7.37345e-05
3.57541e-07
7.37379e-05
3.6486e-07
7.37404e-05
3.75177e-07
7.37423e-05
3.89103e-07
7.3744e-05
4.0732e-07
7.37466e-05
4.30496e-07
7.37512e-05
4.59244e-07
7.37597e-05
4.93753e-07
7.37747e-05
5.33837e-07
7.37984e-05
5.77712e-07
6.23649e-07
7.38325e-05
7.55018e-05
3.34349e-08
7.55108e-05
1.0959e-07
7.55283e-05
1.8177e-07
7.55488e-05
2.35602e-07
7.55711e-05
2.75019e-07
7.55941e-05
3.0407e-07
7.56167e-05
3.23625e-07
7.56382e-05
3.35753e-07
7.56587e-05
3.42923e-07
7.5678e-05
3.46699e-07
7.56963e-05
3.48064e-07
7.57136e-05
3.4781e-07
7.57298e-05
3.46559e-07
7.57451e-05
3.44764e-07
7.57594e-05
3.42771e-07
7.57728e-05
3.40865e-07
7.57853e-05
3.39296e-07
7.57969e-05
3.38295e-07
7.58076e-05
3.38091e-07
7.58173e-05
3.38925e-07
7.5826e-05
3.4106e-07
7.58339e-05
3.44796e-07
7.5841e-05
3.50471e-07
7.58474e-05
3.58473e-07
7.58533e-05
3.69236e-07
7.58592e-05
3.83227e-07
7.58656e-05
4.00916e-07
7.58734e-05
4.22708e-07
7.58838e-05
4.48856e-07
7.58983e-05
4.79256e-07
7.59188e-05
5.13345e-07
7.59469e-05
5.496e-07
5.86695e-07
7.59838e-05
7.76604e-05
3.25745e-08
7.76689e-05
1.01087e-07
7.7685e-05
1.65752e-07
7.77044e-05
2.16212e-07
7.77255e-05
2.53845e-07
7.77476e-05
2.81951e-07
7.77696e-05
3.01651e-07
7.77908e-05
3.1453e-07
7.78112e-05
3.22608e-07
7.78305e-05
3.27339e-07
7.78489e-05
3.29672e-07
7.78664e-05
3.30362e-07
7.78829e-05
3.30014e-07
7.78986e-05
3.29085e-07
7.79134e-05
3.27928e-07
7.79275e-05
3.26836e-07
7.79407e-05
3.26065e-07
7.79531e-05
3.25848e-07
7.79648e-05
3.26411e-07
7.79757e-05
3.27987e-07
7.7986e-05
3.30821e-07
7.79956e-05
3.35182e-07
7.80047e-05
3.41364e-07
7.80135e-05
3.49684e-07
7.80223e-05
3.60477e-07
7.80314e-05
3.74073e-07
7.80416e-05
3.90765e-07
7.80535e-05
4.10745e-07
7.80684e-05
4.34025e-07
7.80873e-05
4.60309e-07
7.81117e-05
4.88906e-07
7.81428e-05
5.18507e-07
5.48065e-07
7.81815e-05
7.988e-05
3.08769e-08
7.98882e-05
9.29176e-08
7.99029e-05
1.51037e-07
7.99212e-05
1.97942e-07
7.99413e-05
2.3368e-07
7.99626e-05
2.60717e-07
7.99839e-05
2.8027e-07
8.00049e-05
2.93617e-07
8.00251e-05
3.02399e-07
8.00445e-05
3.07926e-07
8.00631e-05
3.11101e-07
8.00808e-05
3.12633e-07
8.00977e-05
3.13103e-07
8.01138e-05
3.12961e-07
8.01292e-05
3.12561e-07
8.01438e-05
3.12199e-07
8.01578e-05
3.12128e-07
8.0171e-05
3.1258e-07
8.01837e-05
3.13775e-07
8.01957e-05
3.15931e-07
8.02073e-05
3.19271e-07
8.02184e-05
3.2403e-07
8.02293e-05
3.30451e-07
8.02402e-05
3.38783e-07
8.02514e-05
3.49266e-07
8.02634e-05
3.62114e-07
8.02767e-05
3.77474e-07
8.02921e-05
3.9538e-07
8.03104e-05
4.15688e-07
8.03327e-05
4.38e-07
8.036e-05
4.61612e-07
8.03931e-05
4.85404e-07
5.08537e-07
8.04326e-05
8.21626e-05
2.87542e-08
8.21704e-05
8.50438e-08
8.21841e-05
1.37426e-07
8.22013e-05
1.80743e-07
8.22205e-05
2.14462e-07
8.22409e-05
2.40315e-07
8.22617e-05
2.59479e-07
8.22823e-05
2.73035e-07
8.23023e-05
2.82313e-07
8.23218e-05
2.88467e-07
8.23406e-05
2.92344e-07
8.23586e-05
2.94605e-07
8.23759e-05
2.95797e-07
8.23925e-05
2.96357e-07
8.24084e-05
2.96633e-07
8.24237e-05
2.96915e-07
8.24384e-05
2.97452e-07
8.24525e-05
2.98469e-07
8.24661e-05
3.00173e-07
8.24793e-05
3.02764e-07
8.24921e-05
3.06441e-07
8.25047e-05
3.114e-07
8.25173e-05
3.17833e-07
8.25302e-05
3.25926e-07
8.25436e-05
3.35835e-07
8.25581e-05
3.47675e-07
8.25741e-05
3.61483e-07
8.25923e-05
3.77183e-07
8.26134e-05
3.94538e-07
8.26383e-05
4.1311e-07
8.26677e-05
4.32235e-07
8.27021e-05
4.50964e-07
4.68623e-07
8.2742e-05
8.45101e-05
2.64461e-08
8.45177e-05
7.74626e-08
8.45303e-05
1.24743e-07
8.45466e-05
1.64532e-07
8.45649e-05
1.96125e-07
8.45845e-05
2.20683e-07
8.46047e-05
2.39261e-07
8.4625e-05
2.52793e-07
8.46449e-05
2.62365e-07
8.46644e-05
2.68981e-07
8.46834e-05
2.73415e-07
8.47017e-05
2.76281e-07
8.47194e-05
2.7809e-07
8.47365e-05
2.79258e-07
8.4753e-05
2.8012e-07
8.4769e-05
2.80956e-07
8.47844e-05
2.82006e-07
8.47994e-05
2.83483e-07
8.4814e-05
2.85577e-07
8.48283e-05
2.8847e-07
8.48424e-05
2.92328e-07
8.48565e-05
2.97313e-07
8.48707e-05
3.0357e-07
8.48854e-05
3.11221e-07
8.49009e-05
3.20357e-07
8.49176e-05
3.31013e-07
8.49359e-05
3.43145e-07
8.49565e-05
3.56605e-07
8.49799e-05
3.7111e-07
8.50068e-05
3.86222e-07
8.50377e-05
4.01339e-07
8.5073e-05
4.15669e-07
4.28667e-07
8.5113e-05
8.69245e-05
2.40892e-08
8.69318e-05
7.01798e-08
8.69437e-05
1.12844e-07
8.6959e-05
1.49212e-07
8.69766e-05
1.78599e-07
8.69955e-05
2.01759e-07
8.70152e-05
2.19585e-07
8.70351e-05
2.32888e-07
8.70549e-05
2.42566e-07
8.70744e-05
2.49479e-07
8.70935e-05
2.54326e-07
8.71121e-05
2.57672e-07
8.71302e-05
2.59987e-07
8.71478e-05
2.6166e-07
8.71649e-05
2.63012e-07
8.71815e-05
2.64307e-07
8.71978e-05
2.65771e-07
8.72136e-05
2.67602e-07
8.72292e-05
2.69972e-07
8.72447e-05
2.73038e-07
8.72601e-05
2.7694e-07
8.72756e-05
2.818e-07
8.72914e-05
2.87722e-07
8.73079e-05
2.94776e-07
8.73252e-05
3.02996e-07
8.73439e-05
3.12357e-07
8.73643e-05
3.22763e-07
8.73869e-05
3.34022e-07
8.74121e-05
3.45836e-07
8.74406e-05
3.57789e-07
8.74725e-05
3.69355e-07
8.75083e-05
3.79875e-07
3.88915e-07
8.75481e-05
8.94079e-05
2.1757e-08
8.94149e-05
6.31946e-08
8.94261e-05
1.01615e-07
8.94406e-05
1.34685e-07
8.94574e-05
1.61811e-07
8.94757e-05
1.83476e-07
8.94949e-05
2.00406e-07
8.95145e-05
2.13301e-07
8.95341e-05
2.22909e-07
8.95536e-05
2.29962e-07
8.95729e-05
2.35082e-07
8.95918e-05
2.38781e-07
8.96103e-05
2.41488e-07
8.96284e-05
2.43563e-07
8.96461e-05
2.45305e-07
8.96634e-05
2.4696e-07
8.96804e-05
2.48739e-07
8.96972e-05
2.50819e-07
8.97138e-05
2.53354e-07
8.97304e-05
2.56476e-07
8.9747e-05
2.60297e-07
8.97639e-05
2.64905e-07
8.97813e-05
2.70365e-07
8.97994e-05
2.76706e-07
8.98185e-05
2.83916e-07
8.98389e-05
2.9193e-07
8.9861e-05
3.00616e-07
8.98853e-05
3.09763e-07
8.9912e-05
3.1908e-07
8.99416e-05
3.28185e-07
8.99744e-05
3.36625e-07
9.00104e-05
3.43865e-07
3.49552e-07
9.00497e-05
9.19621e-05
1.94863e-08
9.19688e-05
5.65005e-08
9.19795e-05
9.09597e-08
9.19933e-05
1.20852e-07
9.20094e-05
1.45687e-07
9.20271e-05
1.65769e-07
9.20459e-05
1.81676e-07
9.20652e-05
1.94006e-07
9.20847e-05
2.03382e-07
9.21042e-05
2.10425e-07
9.21236e-05
2.1568e-07
9.21428e-05
2.19606e-07
9.21617e-05
2.22591e-07
9.21803e-05
2.24963e-07
9.21986e-05
2.26994e-07
9.22167e-05
2.28912e-07
9.22345e-05
2.30906e-07
9.22522e-05
2.33136e-07
9.22698e-05
2.35733e-07
9.22875e-05
2.38806e-07
9.23053e-05
2.42438e-07
9.23236e-05
2.4669e-07
9.23423e-05
2.51591e-07
9.23619e-05
2.5714e-07
9.23825e-05
2.6329e-07
9.24045e-05
2.69948e-07
9.24282e-05
2.76964e-07
9.24538e-05
2.84126e-07
9.24817e-05
2.91158e-07
9.25122e-05
2.97722e-07
9.25454e-05
3.03437e-07
9.25814e-05
3.07864e-07
3.10727e-07
9.26202e-05
9.45894e-05
1.72923e-08
9.45958e-05
5.00815e-08
9.46059e-05
8.08007e-08
9.46192e-05
1.07624e-07
9.46347e-05
1.3015e-07
9.46519e-05
1.48572e-07
9.46702e-05
1.63344e-07
9.46893e-05
1.74966e-07
9.47087e-05
1.83961e-07
9.47283e-05
1.90852e-07
9.47478e-05
1.9611e-07
9.47673e-05
2.00141e-07
9.47866e-05
2.03292e-07
9.48057e-05
2.05855e-07
9.48246e-05
2.08077e-07
9.48434e-05
2.10161e-07
9.4862e-05
2.12277e-07
9.48806e-05
2.14563e-07
9.48992e-05
2.17128e-07
9.49179e-05
2.20059e-07
9.4937e-05
2.23414e-07
9.49564e-05
2.27228e-07
9.49765e-05
2.31504e-07
9.49974e-05
2.36213e-07
9.50194e-05
2.41288e-07
9.50428e-05
2.46619e-07
9.50677e-05
2.52051e-07
9.50944e-05
2.57378e-07
9.51232e-05
2.62349e-07
9.51543e-05
2.66672e-07
9.51877e-05
2.70027e-07
9.52235e-05
2.72066e-07
2.72568e-07
9.52617e-05
9.72916e-05
1.51782e-08
9.72978e-05
4.39181e-08
9.73075e-05
7.10705e-08
9.73202e-05
9.49168e-08
9.73353e-05
1.15125e-07
9.7352e-05
1.3182e-07
9.737e-05
1.45355e-07
9.73888e-05
1.56142e-07
9.74082e-05
1.64619e-07
9.74278e-05
1.71223e-07
9.74476e-05
1.76358e-07
9.74673e-05
1.80376e-07
9.7487e-05
1.83582e-07
9.75067e-05
1.86234e-07
9.75262e-05
1.8855e-07
9.75456e-05
1.90709e-07
9.7565e-05
1.92858e-07
9.75845e-05
1.95114e-07
9.76041e-05
1.97566e-07
9.76238e-05
2.00276e-07
9.7644e-05
2.03285e-07
9.76646e-05
2.06602e-07
9.76859e-05
2.10211e-07
9.7708e-05
2.14065e-07
9.77312e-05
2.18082e-07
9.77557e-05
2.22145e-07
9.77817e-05
2.26101e-07
9.78093e-05
2.29759e-07
9.78387e-05
2.32897e-07
9.78701e-05
2.35267e-07
9.79036e-05
2.36604e-07
9.7939e-05
2.36633e-07
2.35182e-07
9.79764e-05
0.000100071
1.31407e-08
0.000100077
3.79853e-08
0.000100086
6.17085e-08
0.000100099
8.26536e-08
0.000100113
1.00539e-07
0.00010013
1.15448e-07
0.000100147
1.27651e-07
0.000100166
1.37489e-07
0.000100185
1.45321e-07
0.000100205
1.51513e-07
0.000100225
1.56404e-07
0.000100245
1.60296e-07
0.000100265
1.63451e-07
0.000100285
1.66094e-07
0.000100305
1.68413e-07
0.000100326
1.70561e-07
0.000100346
1.72662e-07
0.000100366
1.74812e-07
0.000100387
1.7708e-07
0.000100407
1.79509e-07
0.000100429
1.82119e-07
0.00010045
1.84903e-07
0.000100473
1.87829e-07
0.000100496
1.90837e-07
0.00010052
1.93838e-07
0.000100545
1.96715e-07
0.000100572
1.99322e-07
0.000100601
2.01488e-07
0.00010063
2.0302e-07
0.000100662
2.03708e-07
0.000100695
2.03342e-07
0.00010073
2.01703e-07
1.9866e-07
0.000100767
0.00010293
1.11732e-08
0.000102936
3.22572e-08
0.000102945
5.26613e-08
0.000102957
7.07644e-08
0.000102971
8.63226e-08
0.000102987
9.93895e-08
0.000103004
1.10177e-07
0.000103023
1.18959e-07
0.000103042
1.26031e-07
0.000103062
1.31692e-07
0.000103082
1.36226e-07
0.000103103
1.39884e-07
0.000103123
1.42889e-07
0.000103144
1.4543e-07
0.000103165
1.47666e-07
0.000103185
1.49723e-07
0.000103206
1.51705e-07
0.000103228
1.53684e-07
0.000103249
1.55711e-07
0.000103271
1.57813e-07
0.000103293
1.59991e-07
0.000103315
1.62226e-07
0.000103339
1.64473e-07
0.000103363
1.66666e-07
0.000103388
1.68715e-07
0.000103414
1.70505e-07
0.000103442
1.71903e-07
0.00010347
1.72757e-07
0.000103501
1.72904e-07
0.000103532
1.72171e-07
0.000103565
1.70389e-07
0.000103599
1.67392e-07
1.6308e-07
0.000103635
0.000105871
9.26723e-09
0.000105876
2.67065e-08
0.000105885
4.38781e-08
0.000105897
5.91835e-08
0.00010591
7.24056e-08
0.000105926
8.35799e-08
0.000105944
9.28718e-08
0.000105962
1.005e-07
0.000105981
1.06705e-07
0.000106001
1.11727e-07
0.000106022
1.15796e-07
0.000106043
1.19121e-07
0.000106064
1.21882e-07
0.000106085
1.24236e-07
0.000106106
1.26309e-07
0.000106128
1.28207e-07
0.000106149
1.30005e-07
0.000106171
1.31761e-07
0.000106193
1.33504e-07
0.000106216
1.35247e-07
0.000106239
1.36978e-07
0.000106263
1.38666e-07
0.000106287
1.40259e-07
0.000106312
1.41689e-07
0.000106338
1.42863e-07
0.000106364
1.4368e-07
0.000106392
1.44015e-07
0.000106421
1.4374e-07
0.000106452
1.42716e-07
0.000106483
1.40806e-07
0.000106515
1.37875e-07
0.000106549
1.338e-07
1.28506e-07
0.000106584
0.000108895
7.4139e-09
0.000108901
2.13068e-08
0.000108909
3.5313e-08
0.000108921
4.78503e-08
0.000108934
5.87225e-08
0.00010895
6.79538e-08
0.000108967
7.56746e-08
0.000108986
8.20587e-08
0.000109005
8.72956e-08
0.000109025
9.15771e-08
0.000109046
9.50846e-08
0.000109067
9.79828e-08
0.000109088
1.00415e-07
0.00010911
1.02503e-07
0.000109132
1.04345e-07
0.000109154
1.06021e-07
0.000109177
1.07586e-07
0.000109199
1.09076e-07
0.000109222
1.10507e-07
0.000109246
1.11875e-07
0.00010927
1.13159e-07
0.000109294
1.14318e-07
0.000109319
1.153e-07
0.000109345
1.1603e-07
0.000109371
1.16425e-07
0.000109398
1.16387e-07
0.000109426
1.15812e-07
0.000109456
1.14587e-07
0.000109486
1.12601e-07
0.000109517
1.09741e-07
0.000109549
1.05907e-07
0.000109582
1.01008e-07
9.49892e-08
0.000109615
0.000112006
5.60452e-09
0.000112012
1.6032e-08
0.00011202
2.69222e-08
0.000112031
3.67068e-08
0.000112045
4.52084e-08
0.00011206
5.24447e-08
0.000112077
5.85217e-08
0.000112096
6.35754e-08
0.000112115
6.77526e-08
0.000112136
7.11999e-08
0.000112157
7.40554e-08
0.000112178
7.64425e-08
0.0001122
7.84682e-08
0.000112222
8.02215e-08
0.000112245
8.17737e-08
0.000112268
8.31779e-08
0.000112291
8.44693e-08
0.000112314
8.56655e-08
0.000112338
8.67675e-08
0.000112362
8.77596e-08
0.000112387
8.86113e-08
0.000112412
8.92778e-08
0.000112437
8.97004e-08
0.000112464
8.98102e-08
0.000112491
8.95272e-08
0.000112518
8.87646e-08
0.000112547
8.7431e-08
0.000112576
8.54331e-08
0.000112606
8.268e-08
0.000112636
7.90859e-08
0.000112668
7.45744e-08
0.0001127
6.90814e-08
6.25704e-08
0.000112732
0.000115206
3.83064e-09
0.000115211
1.08587e-08
0.00011522
1.86656e-08
0.000115231
2.56991e-08
0.000115244
3.17995e-08
0.00011526
3.69855e-08
0.000115277
4.1346e-08
0.000115295
4.49871e-08
0.000115315
4.8018e-08
0.000115336
5.05455e-08
0.000115357
5.26671e-08
0.000115379
5.44679e-08
0.000115402
5.60197e-08
0.000115424
5.738e-08
0.000115448
5.85925e-08
0.000115471
5.96862e-08
0.000115495
6.06761e-08
0.000115519
6.15629e-08
0.000115543
6.23335e-08
0.000115568
6.29627e-08
0.000115593
6.34113e-08
0.000115619
6.36313e-08
0.000115645
6.35625e-08
0.000115672
6.31395e-08
0.000115699
6.22872e-08
0.000115727
6.09311e-08
0.000115755
5.8991e-08
0.000115784
5.63922e-08
0.000115814
5.30603e-08
0.000115844
4.8932e-08
0.000115875
4.39499e-08
0.000115906
3.8073e-08
3.12763e-08
0.000115937
0.000118498
2.08519e-09
0.000118503
5.76567e-09
0.000118511
1.05068e-08
0.000118522
1.47751e-08
0.000118535
1.84324e-08
0.000118551
2.15059e-08
0.000118568
2.40757e-08
0.000118587
2.6224e-08
0.000118607
2.80276e-08
0.000118628
2.95566e-08
0.000118649
3.08713e-08
0.000118672
3.20203e-08
0.000118695
3.30411e-08
0.000118718
3.39608e-08
0.000118742
3.47958e-08
0.000118766
3.55523e-08
0.000118791
3.62253e-08
0.000118815
3.67994e-08
0.000118841
3.72501e-08
0.000118866
3.75407e-08
0.000118892
3.76285e-08
0.000118918
3.74593e-08
0.000118944
3.6977e-08
0.000118972
3.61147e-08
0.000118999
3.48097e-08
0.000119027
3.29913e-08
0.000119055
3.05968e-08
0.000119084
2.75606e-08
0.000119113
2.38293e-08
0.000119143
1.93514e-08
0.000119173
1.4091e-08
0.000119203
8.01942e-09
1.1263e-09
0.000119233
0.000121883
3.62449e-10
0.000121888
7.3686e-10
0.000121896
2.41478e-09
0.000121907
3.88653e-09
0.00012192
5.04297e-09
0.000121936
5.93166e-09
0.000121953
6.63256e-09
0.000121972
7.20855e-09
0.000121993
7.7077e-09
0.000122014
8.16675e-09
0.000122036
8.61081e-09
0.000122059
9.05281e-09
0.000122083
9.49705e-09
0.000122107
9.94025e-09
0.000122131
1.03727e-08
0.000122156
1.07774e-08
0.000122181
1.11307e-08
0.000122207
1.1403e-08
0.000122232
1.15557e-08
0.000122258
1.15464e-08
0.000122285
1.13241e-08
0.000122311
1.08358e-08
0.000122338
1.00219e-08
0.000122366
8.8246e-09
0.000122393
7.18187e-09
0.000122421
5.03697e-09
0.000122449
2.33258e-09
0.000122478
-9.79708e-10
0.000122507
-4.94529e-09
0.000122536
-9.59718e-09
0.000122565
-1.4963e-08
0.000122594
-2.1054e-08
-2.78769e-08
0.000122623
0.000125365
-1.34004e-09
0.00012537
-4.23642e-09
0.000125378
-5.63375e-09
0.000125389
-7.01161e-09
0.000125403
-8.43489e-09
0.000125418
-9.81743e-09
0.000125436
-1.1071e-08
0.000125455
-1.21481e-08
0.000125476
-1.30271e-08
0.000125498
-1.37021e-08
0.000125521
-1.41829e-08
0.000125544
-1.44917e-08
0.000125568
-1.46576e-08
0.000125593
-1.47138e-08
0.000125618
-1.46966e-08
0.000125644
-1.46448e-08
0.000125669
-1.46001e-08
0.000125695
-1.46083e-08
0.000125722
-1.47174e-08
0.000125748
-1.49793e-08
0.000125775
-1.54484e-08
0.000125802
-1.61805e-08
0.000125829
-1.72327e-08
0.000125857
-1.8661e-08
0.000125884
-2.05201e-08
0.000125912
-2.28611e-08
0.00012594
-2.57307e-08
0.000125969
-2.9169e-08
0.000125997
-3.32091e-08
0.000126025
-3.78751e-08
0.000126053
-4.31825e-08
0.000126081
-4.91347e-08
-5.57307e-08
0.000126109
0.000128947
-3.01974e-09
0.000128952
-9.14878e-09
0.00012896
-1.36483e-08
0.000128971
-1.7959e-08
0.000128984
-2.20706e-08
0.000129
-2.58311e-08
0.000129018
-2.91351e-08
0.000129038
-3.19498e-08
0.000129059
-3.42781e-08
0.000129082
-3.6144e-08
0.000129105
-3.75927e-08
0.000129129
-3.8683e-08
0.000129154
-3.94786e-08
0.00012918
-4.0043e-08
0.000129205
-4.04383e-08
0.000129231
-4.07267e-08
0.000129258
-4.09673e-08
0.000129284
-4.12211e-08
0.000129311
-4.15456e-08
0.000129338
-4.20019e-08
0.000129365
-4.26461e-08
0.000129393
-4.35382e-08
0.00012942
-4.47319e-08
0.000129448
-4.62825e-08
0.000129476
-4.82381e-08
0.000129503
-5.06452e-08
0.000129531
-5.35415e-08
0.000129559
-5.69609e-08
0.000129587
-6.09266e-08
0.000129614
-6.54564e-08
0.000129642
-7.05573e-08
0.000129669
-7.62272e-08
-8.24615e-08
0.000129696
0.000132631
-4.66394e-09
0.000132636
-1.39699e-08
0.000132643
-2.16157e-08
0.000132655
-2.89878e-08
0.000132668
-3.59401e-08
0.000132685
-4.22129e-08
0.000132703
-4.76777e-08
0.000132724
-5.23198e-08
0.000132746
-5.61664e-08
0.000132769
-5.92723e-08
0.000132793
-6.17209e-08
0.000132818
-6.36108e-08
0.000132843
-6.50412e-08
0.000132869
-6.6107e-08
0.000132896
-6.68985e-08
0.000132923
-6.74987e-08
0.00013295
-6.7988e-08
0.000132977
-6.84379e-08
0.000133004
-6.89211e-08
0.000133032
-6.95003e-08
0.000133059
-7.02414e-08
0.000133087
-7.12004e-08
0.000133115
-7.24359e-08
0.000133142
-7.39958e-08
0.00013317
-7.5929e-08
0.000133198
-7.82726e-08
0.000133225
-8.10629e-08
0.000133253
-8.43234e-08
0.00013328
-8.80752e-08
0.000133307
-9.23262e-08
0.000133333
-9.70811e-08
0.000133359
-1.02329e-07
-1.08064e-07
0.000133385
0.00013642
-6.24098e-09
0.000136425
-1.8621e-08
0.000136432
-2.94838e-08
0.000136444
-4.01195e-08
0.000136458
-5.01293e-08
0.000136475
-5.90869e-08
0.000136494
-6.68448e-08
0.000136515
-7.34118e-08
0.000136538
-7.88392e-08
0.000136561
-8.32179e-08
0.000136586
-8.66789e-08
0.000136612
-8.93656e-08
0.000136639
-9.14173e-08
0.000136665
-9.29611e-08
0.000136693
-9.41161e-08
0.00013672
-9.49884e-08
0.000136748
-9.5676e-08
0.000136776
-9.62659e-08
0.000136804
-9.68382e-08
0.000136832
-9.74658e-08
0.000136859
-9.82155e-08
0.000136887
-9.91484e-08
0.000136915
-1.0032e-07
0.000136943
-1.01779e-07
0.000136971
-1.03568e-07
0.000136998
-1.05726e-07
0.000137025
-1.08279e-07
0.000137052
-1.11251e-07
0.000137079
-1.14655e-07
0.000137105
-1.18499e-07
0.000137131
-1.22782e-07
0.000137156
-1.27496e-07
-1.32634e-07
0.000137181
0.000140317
-7.67826e-09
0.000140322
-2.2929e-08
0.000140329
-3.71359e-08
0.00014034
-5.13684e-08
0.000140355
-6.4739e-08
0.000140373
-7.6596e-08
0.000140392
-8.68106e-08
0.000140415
-9.54249e-08
0.000140438
-1.02506e-07
0.000140463
-1.08188e-07
0.000140489
-1.12658e-07
0.000140516
-1.16117e-07
0.000140543
-1.18748e-07
0.000140571
-1.20719e-07
0.000140599
-1.22177e-07
0.000140627
-1.23256e-07
0.000140656
-1.24069e-07
0.000140684
-1.24721e-07
0.000140713
-1.25299e-07
0.000140741
-1.25885e-07
0.000140769
-1.26547e-07
0.000140798
-1.27352e-07
0.000140826
-1.28351e-07
0.000140853
-1.29596e-07
0.000140881
-1.31125e-07
0.000140908
-1.32973e-07
0.000140935
-1.35165e-07
0.000140962
-1.37722e-07
0.000140988
-1.40653e-07
0.000141013
-1.43963e-07
0.000141038
-1.47648e-07
0.000141062
-1.51694e-07
-1.5609e-07
0.000141086
0.000144326
-8.81763e-09
0.000144329
-2.65249e-08
0.000144337
-4.43375e-08
0.000144348
-6.27544e-08
0.000144363
-7.99327e-08
0.000144381
-9.49426e-08
0.000144402
-1.07764e-07
0.000144425
-1.18506e-07
0.00014445
-1.2727e-07
0.000144476
-1.34253e-07
0.000144503
-1.39719e-07
0.000144531
-1.43924e-07
0.00014456
-1.47099e-07
0.000144588
-1.49448e-07
0.000144617
-1.51154e-07
0.000144646
-1.52372e-07
0.000144676
-1.5324e-07
0.000144705
-1.53872e-07
0.000144734
-1.54369e-07
0.000144763
-1.54817e-07
0.000144791
-1.55294e-07
0.00014482
-1.55862e-07
0.000144848
-1.5658e-07
0.000144876
-1.57493e-07
0.000144904
-1.58644e-07
0.000144931
-1.60061e-07
0.000144957
-1.61773e-07
0.000144983
-1.63793e-07
0.000145009
-1.66135e-07
0.000145034
-1.68801e-07
0.000145058
-1.71792e-07
0.000145081
-1.751e-07
-1.78722e-07
0.000145104
0.000148448
-9.29878e-09
0.000148451
-2.86822e-08
0.000148457
-5.06578e-08
0.000148468
-7.4198e-08
0.000148484
-9.58692e-08
0.000148504
-1.14545e-07
0.000148526
-1.30338e-07
0.000148551
-1.43357e-07
0.000148578
-1.5377e-07
0.000148606
-1.61929e-07
0.000148634
-1.68232e-07
0.000148663
-1.73021e-07
0.000148693
-1.76582e-07
0.000148722
-1.79167e-07
0.000148752
-1.80991e-07
0.000148782
-1.82236e-07
0.000148812
-1.83051e-07
0.000148842
-1.83565e-07
0.000148871
-1.83885e-07
0.0001489
-1.84104e-07
0.000148929
-1.84299e-07
0.000148958
-1.84537e-07
0.000148986
-1.84875e-07
0.000149014
-1.85359e-07
0.000149042
-1.86028e-07
0.000149068
-1.86913e-07
0.000149095
-1.88038e-07
0.00014912
-1.89418e-07
0.000149145
-1.91062e-07
0.000149169
-1.92972e-07
0.000149193
-1.95143e-07
0.000149215
-1.97557e-07
-2.00207e-07
0.000149237
0.000152688
-8.10867e-09
0.000152687
-2.79586e-08
0.000152692
-5.5867e-08
0.000152704
-8.57656e-08
0.00015272
-1.12111e-07
0.00015274
-1.34609e-07
0.000152764
-1.5373e-07
0.00015279
-1.69382e-07
0.000152818
-1.81709e-07
0.000152847
-1.91216e-07
0.000152877
-1.98439e-07
0.000152908
-2.03816e-07
0.000152939
-2.07711e-07
0.00015297
-2.10442e-07
0.000153002
-2.1227e-07
0.000153033
-2.13412e-07
0.000153064
-2.14041e-07
0.000153095
-2.143e-07
0.000153125
-2.14307e-07
0.000153155
-2.14162e-07
0.000153185
-2.13945e-07
0.000153214
-2.13726e-07
0.000153243
-2.1356e-07
0.000153271
-2.13494e-07
0.000153298
-2.13566e-07
0.000153325
-2.13806e-07
0.000153351
-2.14236e-07
0.000153377
-2.14874e-07
0.000153401
-2.15731e-07
0.000153425
-2.16812e-07
0.000153448
-2.18123e-07
0.00015347
-2.19668e-07
-2.21442e-07
0.000153492
0.000157046
-2.77287e-09
0.000157038
-2.00592e-08
0.000157042
-5.95327e-08
0.000157056
-1.0007e-07
0.000157077
-1.32668e-07
0.000157101
-1.59085e-07
0.000157128
-1.80765e-07
0.000157157
-1.97965e-07
0.000157186
-2.11254e-07
0.000157217
-2.21427e-07
0.000157247
-2.29125e-07
0.000157278
-2.34821e-07
0.00015731
-2.38916e-07
0.000157341
-2.41748e-07
0.000157372
-2.43598e-07
0.000157403
-2.44684e-07
0.000157435
-2.4519e-07
0.000157466
-2.45259e-07
0.000157496
-2.45015e-07
0.000157527
-2.44556e-07
0.000157557
-2.43968e-07
0.000157586
-2.43316e-07
0.000157615
-2.4266e-07
0.000157644
-2.42043e-07
0.000157672
-2.41507e-07
0.000157699
-2.41079e-07
0.000157726
-2.40783e-07
0.000157751
-2.40634e-07
0.000157776
-2.40644e-07
0.0001578
-2.40813e-07
0.000157823
-2.41137e-07
0.000157845
-2.41597e-07
-2.42195e-07
0.000157866
0.000161526
9.79871e-09
0.000161505
7.14677e-10
0.000161497
-5.17378e-08
0.000161501
-1.04207e-07
0.000161516
-1.47705e-07
0.000161541
-1.83514e-07
0.000161572
-2.11488e-07
0.000161606
-2.32137e-07
0.000161642
-2.47149e-07
0.000161678
-2.58108e-07
0.000161715
-2.66038e-07
0.000161752
-2.71637e-07
0.000161789
-2.75458e-07
0.000161825
-2.77937e-07
0.000161861
-2.79394e-07
0.000161896
-2.80069e-07
0.000161931
-2.80147e-07
0.000161965
-2.79775e-07
0.000162
-2.79067e-07
0.000162033
-2.7812e-07
0.000162066
-2.77006e-07
0.000162099
-2.75791e-07
0.00016213
-2.74525e-07
0.000162162
-2.73251e-07
0.000162192
-2.72004e-07
0.000162222
-2.70813e-07
0.000162251
-2.69699e-07
0.000162279
-2.68683e-07
0.000162306
-2.67778e-07
0.000162332
-2.66997e-07
0.000162357
-2.66353e-07
0.000162382
-2.65863e-07
-2.65525e-07
0.000162405
0.0001661
6.37278e-08
0.000166096
4.45809e-09
0.000166113
-6.85852e-08
0.000166129
-1.20185e-07
0.000166145
-1.63627e-07
0.000166164
-2.02388e-07
0.000166186
-2.33989e-07
0.000166212
-2.58231e-07
0.000166242
-2.7671e-07
0.000166274
-2.90806e-07
0.00016631
-3.01397e-07
0.000166347
-3.09172e-07
0.000166387
-3.14727e-07
0.000166427
-3.18539e-07
0.000166469
-3.20971e-07
0.000166511
-3.22303e-07
0.000166554
-3.22762e-07
0.000166596
-3.22531e-07
0.000166639
-3.21756e-07
0.000166681
-3.20559e-07
0.000166724
-3.19037e-07
0.000166765
-3.17272e-07
0.000166806
-3.15332e-07
0.000166846
-3.13272e-07
0.000166885
-3.11139e-07
0.000166923
-3.08971e-07
0.00016696
-3.06798e-07
0.000166996
-3.04643e-07
0.000167031
-3.02525e-07
0.000167064