/*--------------------------------*- C++ -*----------------------------------*\
  =========                 |
  \\      /  F ield         | OpenFOAM: The Open Source CFD Toolbox
   \\    /   O peration     | Website:  https://openfoam.org
    \\  /    A nd           | Version:  10
     \\/     M anipulation  |
\*---------------------------------------------------------------------------*/
FoamFile
{
    format      ascii;
    class       volScalarField;
    location    "1300";
    object      yPlus;
}
// * * * * * * * * * * * * * * * * * * * * * * * * * * * * * * * * * * * * * //

dimensions      [0 0 0 0 0 0 0];

internalField   uniform 0;

boundaryField
{
    outlet
    {
        type            calculated;
        value           uniform 0;
    }
    inlet
    {
        type            calculated;
        value           uniform 0;
    }
    lowerWall
    {
        type            calculated;
        value           nonuniform List<scalar> 
148
(
9.9937
9.87583
9.76655
9.65577
9.54325
9.43227
9.32599
9.22676
9.13585
9.05377
8.9806
8.916
8.85957
8.81068
8.76878
8.73323
8.70345
8.67891
8.65907
8.64347
8.63165
8.62322
8.61784
8.6152
8.61496
8.61696
8.62093
8.62704
8.62974
8.67564
8.52044
8.99167
8.44423
5.05509
7.6689
9.50718
10.8124
11.608
11.8159
11.0494
11.1829
11.7149
11.2877
11.5926
11.5862
11.4037
11.2294
8.60438
5.05509
11.3713
11.8835
12.0717
12.0787
11.9732
11.8626
11.815
11.8971
12.4909
14.7047
18.4281
22.2719
25.9038
29.2836
32.422
35.3405
38.0624
40.6087
42.9973
45.2437
47.3608
49.3601
51.252
53.0461
54.7511
56.3749
57.9246
59.4059
60.8237
62.1817
63.4822
64.7269
65.917
67.0532
68.1372
69.1723
70.164
71.1159
72.0141
72.8641
73.6649
74.4143
75.1095
75.7478
76.3276
76.8482
77.3102
77.7155
78.0674
78.3694
78.6254
78.8387
79.0114
79.1441
79.2353
79.2818
79.2782
79.2179
79.0931
78.896
78.6189
78.2553
77.8017
77.2583
76.6294
75.9274
75.1834
74.4775
73.8881
73.3118
72.6981
72.0535
71.3925
70.7282
70.0709
69.4281
68.8048
68.2039
67.6269
67.0744
66.5465
66.0431
65.5637
65.1083
64.6766
64.2679
63.8818
63.5169
63.1714
62.8424
62.5262
62.2181
61.9123
61.6029
61.284
60.9525
60.6039
60.2698
59.7943
)
;
    }
    upperWall
    {
        type            calculated;
        value           nonuniform List<scalar> 
133
(
30.6045
31.4255
32.2163
32.972
33.693
34.3806
35.0365
35.6619
36.2579
36.8255
37.3659
37.8801
38.369
38.8339
39.2757
39.6953
40.0937
40.4719
40.8308
41.1714
41.4943
41.8006
42.091
42.3662
42.6271
42.8744
43.1087
43.3307
43.5411
43.7403
43.9291
44.1079
44.2774
44.4637
44.6675
44.8645
45.0545
45.2373
45.4127
45.5807
45.741
45.8936
46.0383
46.175
46.3037
46.4241
46.5362
46.6398
46.7349
46.8212
46.8989
46.9676
47.0272
47.0778
47.119
47.1509
47.1732
47.1859
47.1888
47.1818
47.1647
47.1375
47.0998
47.0517
46.9929
46.9232
46.8426
46.7508
46.6477
46.5332
46.407
46.269
46.119
45.9569
45.7826
45.5961
45.3971
45.1858
44.9621
44.7261
44.478
44.2181
43.9467
43.6643
43.3716
43.0693
42.7582
42.4397
42.1149
41.7855
41.4531
41.1197
40.7873
40.4585
40.1355
39.821
39.5176
39.2279
38.9543
38.6989
38.4639
38.2504
38.0595
37.8916
37.7463
37.6228
37.5197
37.435
37.3662
37.3107
37.2657
37.228
37.195
37.1638
37.1321
37.0975
37.0585
37.0136
36.9617
36.9022
36.8346
36.7591
36.6757
36.5847
36.4866
36.382
36.2714
36.1557
36.0347
35.9111
35.7775
35.6654
35.4496
)
;
    }
    frontAndBack
    {
        type            empty;
    }
}


// ************************************************************************* //
