/*--------------------------------*- C++ -*----------------------------------*\
  =========                 |
  \\      /  F ield         | OpenFOAM: The Open Source CFD Toolbox
   \\    /   O peration     | Website:  https://openfoam.org
    \\  /    A nd           | Version:  10
     \\/     M anipulation  |
\*---------------------------------------------------------------------------*/
FoamFile
{
    format      ascii;
    class       volScalarField;
    location    "0.155";
    object      k;
}
// * * * * * * * * * * * * * * * * * * * * * * * * * * * * * * * * * * * * * //

dimensions      [0 2 -2 0 0 0 0];

internalField   nonuniform List<scalar> 
6820
(
0.19835
0.194842
0.191295
0.187746
0.184241
0.180808
0.177454
0.174182
0.170992
0.16788
0.164845
0.161885
0.158996
0.156177
0.153427
0.150745
0.148133
0.145591
0.143121
0.140728
0.138416
0.136192
0.134064
0.132042
0.130139
0.128371
0.126759
0.125318
0.124079
0.123064
0.122437
0.122603
0.125411
0.200923
0.20087
0.200388
0.199858
0.199308
0.198733
0.198131
0.197503
0.19685
0.196177
0.195485
0.194778
0.194058
0.193328
0.192589
0.191842
0.191088
0.190326
0.189556
0.188777
0.187989
0.187189
0.186376
0.185547
0.184701
0.183815
0.182804
0.181626
0.180236
0.178582
0.176596
0.174096
0.171203
0.236783
0.0160633
0.036056
0.00938191
0.0063162
0.00736599
0.0086511
0.0103601
0.012164
0.0140037
0.0158534
0.0176946
0.019515
0.0213042
0.0230531
0.0247528
0.0263941
0.027967
0.0294605
0.0308619
0.0321566
0.0333288
0.0343533
0.0352349
0.0359513
0.036492
0.0369079
0.0371937
0.037326
0.0372659
0.0369631
0.0363187
0.0353128
0.210834
0.147596
0.104197
0.0786897
0.0630446
0.0525294
0.0448489
0.0388801
0.0340374
0.0299901
0.0265367
0.0235464
0.0209301
0.0186248
0.0165846
0.0147757
0.0131723
0.0117542
0.0105051
0.00941085
0.00845871
0.00763757
0.00694112
0.00633284
0.0057979
0.0053263
0.00490912
0.00453825
0.00420498
0.00389936
0.00360962
0.003318
0.00302018
0.222808
0.0859542
0.0242664
0.00595245
0.00163321
0.000913433
0.00095276
0.00109627
0.00123018
0.00134636
0.00144862
0.00153874
0.00161693
0.00168315
0.00173774
0.00178156
0.00181592
0.00184256
0.00186286
0.00187766
0.00188844
0.00189447
0.00189524
0.00189043
0.0018799
0.00186358
0.00184146
0.00181356
0.00178004
0.00174125
0.00169801
0.00165149
0.00160441
0.214826
0.126253
0.0718884
0.0478739
0.0373497
0.0318292
0.0279465
0.024487
0.0211408
0.0179408
0.0150126
0.0124583
0.0103183
0.0085818
0.00719836
0.00610409
0.00523886
0.00455228
0.004004
0.00356374
0.00320869
0.00292228
0.00269261
0.00251133
0.00237269
0.00227266
0.00220839
0.002178
0.00218018
0.00221418
0.00227902
0.0023753
0.00249806
0.211768
0.141373
0.091446
0.0662832
0.0545228
0.0487566
0.0455642
0.0434677
0.0418315
0.0403614
0.0389085
0.0374188
0.0358827
0.0343064
0.0327017
0.0310846
0.0294714
0.0278768
0.0263145
0.0247959
0.0233309
0.0219273
0.0205918
0.0193294
0.0181435
0.0170364
0.0160084
0.0150589
0.014186
0.0133876
0.0126604
0.0120024
0.0114031
0.204842
0.176022
0.149328
0.126805
0.110709
0.100271
0.0935795
0.0891153
0.0858994
0.083341
0.0810652
0.0788513
0.0765353
0.0739633
0.0710304
0.0677123
0.0640601
0.0601745
0.0561769
0.0521837
0.0482914
0.0445708
0.0410681
0.0378102
0.034809
0.0320661
0.0295757
0.0273273
0.0253071
0.0234992
0.0218852
0.0204504
0.0191601
0.205362
0.173436
0.151717
0.13884
0.130332
0.124461
0.120372
0.117506
0.115499
0.114075
0.11303
0.11218
0.111356
0.110361
0.109042
0.10731
0.105122
0.102472
0.0993773
0.0958627
0.0919574
0.0877031
0.0831626
0.0784231
0.0735895
0.0687703
0.0640637
0.0595474
0.0552759
0.0512826
0.047583
0.0441921
0.0410726
0.206356
0.168533
0.146156
0.135268
0.129223
0.12539
0.122837
0.121145
0.120108
0.119562
0.119368
0.119377
0.119484
0.119617
0.119723
0.119748
0.119643
0.119364
0.118864
0.118091
0.116989
0.115506
0.113595
0.111225
0.108377
0.10506
0.101306
0.0971784
0.0927658
0.0881796
0.0835359
0.0789602
0.0745
0.207837
0.161194
0.135736
0.124706
0.119775
0.117436
0.116354
0.115994
0.116136
0.116672
0.117522
0.118602
0.119844
0.121209
0.122646
0.124091
0.125486
0.126776
0.127913
0.128856
0.129576
0.13005
0.130256
0.130164
0.129731
0.128908
0.127644
0.125901
0.123663
0.120943
0.117784
0.114262
0.110428
0.20965
0.152172
0.123656
0.112222
0.107618
0.105766
0.105174
0.105294
0.105911
0.106934
0.108312
0.110012
0.111985
0.114185
0.11655
0.119013
0.121504
0.123953
0.126296
0.128472
0.130435
0.132154
0.133609
0.134796
0.135713
0.136356
0.136715
0.136771
0.136501
0.135877
0.134878
0.133498
0.131732
0.211543
0.142656
0.111503
0.0997641
0.0952948
0.0935904
0.0930985
0.0932846
0.0939707
0.0951113
0.0967055
0.0987564
0.101245
0.104128
0.107339
0.110791
0.114389
0.118036
0.121635
0.125103
0.128372
0.131389
0.134123
0.136557
0.138686
0.14051
0.142035
0.143261
0.144188
0.14481
0.145121
0.145114
0.144783
0.213054
0.134893
0.102132
0.0903986
0.0860232
0.0842111
0.0834023
0.0831074
0.0832223
0.0837835
0.084873
0.0865688
0.088916
0.0919093
0.0954882
0.0995467
0.103949
0.108545
0.113187
0.117745
0.12211
0.126201
0.129968
0.133381
0.136432
0.139124
0.141469
0.143483
0.145179
0.146571
0.147671
0.148482
0.14901
0.213596
0.131829
0.0986877
0.0870253
0.0825347
0.0803094
0.0787935
0.0775342
0.0764834
0.0757631
0.0755666
0.0760967
0.0775175
0.0799171
0.0832885
0.0875317
0.0924731
0.0978954
0.103569
0.109279
0.114845
0.12013
0.125041
0.129526
0.133562
0.137153
0.140312
0.143063
0.145431
0.147442
0.149118
0.15047
0.151513
0.212773
0.135535
0.103315
0.0916075
0.086719
0.0838189
0.081331
0.0787788
0.0761109
0.0734912
0.0712092
0.0696147
0.0690484
0.0697733
0.0719212
0.0754691
0.0802495
0.0859876
0.0923531
0.0990115
0.105666
0.112081
0.11809
0.123595
0.128549
0.132945
0.136804
0.140158
0.143048
0.145511
0.147585
0.149291
0.150652
0.21072
0.145512
0.115525
0.10364
0.0980981
0.0943883
0.090914
0.0871126
0.0828447
0.0782157
0.0735208
0.0692027
0.0657832
0.0637664
0.0635346
0.0652692
0.068919
0.0742228
0.0807728
0.0880974
0.0957382
0.103306
0.11051
0.11716
0.123157
0.128469
0.13311
0.137122
0.140557
0.143469
0.145909
0.147914
0.149519
0.208088
0.158609
0.132139
0.120237
0.114015
0.109569
0.105341
0.100671
0.095276
0.0891129
0.0823555
0.0754043
0.0688595
0.0634352
0.0598216
0.0585348
0.0598041
0.0635321
0.0693364
0.0766501
0.084842
0.0933232
0.101617
0.109387
0.116434
0.122673
0.128096
0.132746
0.136689
0.139998
0.142746
0.144988
0.14677
0.205607
0.171126
0.149139
0.137731
0.131081
0.12613
0.121479
0.116424
0.110565
0.103684
0.0957495
0.0869757
0.0778626
0.0691777
0.061843
0.0567468
0.0545386
0.0554797
0.0594013
0.0657756
0.07386
0.0828609
0.0920678
0.100932
0.109094
0.11636
0.122669
0.128047
0.132569
0.136327
0.139414
0.141907
0.143872
0.203677
0.180957
0.163745
0.153438
0.14677
0.141606
0.13682
0.131761
0.125976
0.119122
0.110965
0.101465
0.0908748
0.0798102
0.0692267
0.0602644
0.0539985
0.0511791
0.0520551
0.0563457
0.0633523
0.072154
0.0818115
0.091521
0.100695
0.108975
0.116198
0.122343
0.127475
0.131697
0.135125
0.137858
0.139993
0.202339
0.187818
0.174987
0.166189
0.159891
0.154777
0.150049
0.14518
0.139753
0.133379
0.125693
0.116423
0.105518
0.0932979
0.0805315
0.0683859
0.0582145
0.0512405
0.0482517
0.0494198
0.0543048
0.0620214
0.0714844
0.0816421
0.0916397
0.100891
0.109071
0.116063
0.121891
0.126656
0.130488
0.13351
0.135851
0.201467
0.192313
0.183087
0.175917
0.170251
0.165384
0.160822
0.156201
0.151194
0.145448
0.138557
0.130098
0.119757
0.107509
0.0937937
0.0795812
0.066269
0.0553946
0.0482578
0.0455935
0.047416
0.0530815
0.0615153
0.0715003
0.0819267
0.091944
0.101008
0.108853
0.11542
0.120778
0.125059
0.128404
0.130967
0.200913
0.195179
0.188707
0.183059
0.178145
0.173648
0.169315
0.164934
0.160293
0.155128
0.149069
0.141643
0.132359
0.120887
0.10729
0.0921945
0.0768235
0.0628015
0.0517903
0.0450674
0.04321
0.0460007
0.0525662
0.0616655
0.0720033
0.0824711
0.0922727
0.100942
0.108287
0.114309
0.119116
0.122853
0.125693
0.200564
0.196991
0.192522
0.188169
0.184007
0.179938
0.175867
0.171701
0.167335
0.162612
0.157255
0.150822
0.142744
0.132474
0.119731
0.104746
0.0884168
0.0722418
0.0580356
0.0474879
0.0417315
0.0410824
0.0450381
0.0525011
0.0621118
0.0725634
0.082812
0.092161
0.100245
0.106952
0.112334
0.116517
0.119681
0.200345
0.198134
0.195074
0.19175
0.188266
0.184628
0.180832
0.176867
0.172711
0.168304
0.16348
0.157882
0.150945
0.141993
0.130474
0.116246
0.0998253
0.0824481
0.0658937
0.0520865
0.0426131
0.0383307
0.0392079
0.044435
0.0527246
0.0626653
0.0730084
0.082828
0.0915573
0.098937
0.104928
0.109605
0.113139
0.200209
0.198849
0.196749
0.194199
0.191276
0.188021
0.184478
0.180686
0.176676
0.17247
0.168001
0.163015
0.156998
0.149218
0.13895
0.125764
0.109812
0.092005
0.0739463
0.0576207
0.044917
0.0371538
0.0347837
0.037372
0.0438236
0.0527353
0.0627325
0.0726981
0.0818676
0.0898149
0.0963792
0.101558
0.105488
0.200126
0.199286
0.197813
0.195808
0.193312
0.190373
0.187053
0.183411
0.179513
0.175431
0.171176
0.166602
0.161308
0.154602
0.145653
0.133773
0.118759
0.101155
0.0823005
0.064122
0.0486893
0.0376959
0.032056
0.0317549
0.0359763
0.0434192
0.0526583
0.0624295
0.0717861
0.0801298
0.0871638
0.0927923
0.0971038
0.20008
0.199537
0.198448
0.196798
0.194589
0.191852
0.188636
0.184991
0.181002
0.176793
0.172474
0.168031
0.163196
0.15736
0.149663
0.139237
0.125572
0.10883
0.0900065
0.0708301
0.053386
0.0396045
0.0307914
0.0273651
0.0288698
0.0342196
0.0420472
0.0510229
0.0600635
0.0684142
0.0756365
0.0815249
0.0860992
0.200059
0.199653
0.198744
0.197261
0.195164
0.192463
0.189224
0.185546
0.181551
0.177385
0.173197
0.169049
0.164769
0.159837
0.153398
0.144448
0.132228
0.116583
0.0981879
0.078531
0.0596196
0.0435027
0.0317748
0.0252302
0.0237744
0.0265859
0.0324287
0.0399841
0.0480996
0.0559136
0.062876
0.0686796
0.0732641
0.200056
0.199682
0.198819
0.197347
0.195179
0.192305
0.18881
0.184843
0.180573
0.176175
0.171816
0.167591
0.163389
0.15878
0.15298
0.144983
0.133929
0.119462
0.101985
0.0827026
0.0634081
0.0460643
0.0323323
0.0232043
0.0188576
0.0187464
0.0218606
0.0270322
0.0331853
0.0394747
0.0453218
0.0503621
0.0544592
0.200074
0.199604
0.198578
0.19689
0.194499
0.191483
0.188004
0.18424
0.180331
0.176385
0.172499
0.168726
0.164973
0.160858
0.155658
0.148406
0.138197
0.124547
0.107679
0.0886028
0.0689376
0.0505366
0.0350482
0.0235602
0.0164346
0.0133563
0.0135392
0.0159924
0.0197503
0.0240141
0.028203
0.0319346
0.0350393
0.200096
0.199508
0.198235
0.196127
0.193149
0.189446
0.185279
0.180896
0.176472
0.172107
0.167845
0.163664
0.15939
0.154594
0.148576
0.140497
0.12965
0.115759
0.0991792
0.0809085
0.0623869
0.045169
0.0305763
0.0194419
0.0120123
0.00800735
0.00678986
0.00757049
0.00958433
0.0122026
0.0149777
0.0176368
0.0200739
0.200179
0.199094
0.196754
0.193175
0.188673
0.183706
0.17868
0.173829
0.169221
0.164809
0.160494
0.156127
0.151468
0.146129
0.139576
0.131215
0.120575
0.107505
0.0923115
0.075775
0.05902
0.0432825
0.0296492
0.0188484
0.0111506
0.00639162
0.00409308
0.00362611
0.00436718
0.00580758
0.00760445
0.00957673
0.0116721
0.200304
0.198483
0.194365
0.188307
0.181173
0.17384
0.166883
0.160509
0.154657
0.149127
0.143657
0.137952
0.131695
0.124557
0.116227
0.106463
0.0951654
0.0824561
0.0687308
0.0546552
0.0410747
0.0288507
0.0186757
0.0109326
0.0056498
0.00255717
0.00120757
0.00111142
0.00184031
0.00307932
0.00463339
0.00639893
0.00833735
0.200888
0.195533
0.185834
0.174835
0.164671
0.156304
0.147958
0.140119
0.132946
0.126284
0.119819
0.113106
0.105632
0.09696
0.086905
0.0756307
0.0636124
0.0515005
0.0399608
0.0295547
0.0206778
0.0135408
0.00817179
0.004436
0.00207754
0.000781817
0.000242983
0.000214945
0.000532672
0.00110454
0.0018887
0.00286344
0.00401368
0.203272
0.183584
0.15461
0.125785
0.100839
0.0801391
0.0626952
0.0489741
0.0386553
0.0309709
0.0251489
0.0205986
0.0169453
0.0139367
0.0114093
0.0092686
0.00747052
0.00599832
0.00483961
0.00396976
0.00334647
0.00291501
0.00261873
0.00240875
0.00224904
0.00211655
0.00199838
0.0018881
0.00178278
0.00168114
0.00158261
0.00148724
0.00139456
0.208474
0.158031
0.11622
0.0898972
0.0737856
0.0633426
0.0559877
0.0504087
0.0459236
0.0421561
0.038882
0.0359675
0.033335
0.0309328
0.0287254
0.0266892
0.0248087
0.0230743
0.0214804
0.0200232
0.0186974
0.017495
0.0164052
0.0154161
0.0145152
0.0136911
0.0129337
0.0122348
0.0115873
0.010986
0.010426
0.00990559
0.00941236
0.240216
0.000604719
0.040126
0.000220509
5.1001e-05
0.001667
0.00146204
0.000819627
0.000636518
0.000697405
0.000795008
0.000860574
0.00101476
0.00124318
0.00147325
0.00169446
0.00191764
0.00213872
0.00234961
0.0025506
0.00274735
0.00294336
0.00313738
0.00332521
0.00350285
0.00366777
0.00381831
0.00395318
0.00407124
0.00417142
0.00425279
0.00431545
0.00435623
0.200087
0.199976
0.199839
0.199728
0.199646
0.199588
0.199547
0.199519
0.199499
0.199484
0.19947
0.199455
0.199437
0.199414
0.199384
0.199346
0.1993
0.199244
0.199178
0.199101
0.199013
0.198912
0.1988
0.198675
0.198536
0.198384
0.198218
0.198038
0.197844
0.197635
0.197411
0.197175
0.196908
0.199877
0.19955
0.199183
0.198789
0.19838
0.197961
0.197539
0.197117
0.196699
0.196286
0.195882
0.195487
0.195104
0.194734
0.194377
0.194034
0.193706
0.193394
0.193097
0.192815
0.19255
0.192301
0.192064
0.191851
0.191687
0.191576
0.191515
0.1915
0.191526
0.19159
0.191685
0.191811
0.191946
0.129217
0.13436
0.138753
0.141664
0.143458
0.144151
0.141616
0.130162
0.103934
0.06661
0.0314484
0.00857216
0.000135618
0.000976932
0.00570144
0.0126537
0.0206141
0.0273654
0.0285982
0.0226048
0.0251111
0.0492344
0.0758492
0.0864918
0.0878347
0.0884229
0.0893639
0.0904331
0.0913691
0.0939498
0.103825
0.116558
0.135172
0.155499
0.166996
0.136217
0.125096
0.239274
0.376773
0.38411
0.271403
0.148073
0.0838004
0.0816098
0.105523
0.127287
0.137627
0.138292
0.132292
0.120009
0.102012
0.0834757
0.0727962
0.0744125
0.0843022
0.0938013
0.0975589
0.0909844
0.0673234
0.0409121
0.06344
0.157774
0.270179
0.354575
0.410893
0.450426
0.473953
0.475708
0.458458
0.452198
0.41365
0.28983
0.142276
0.0566026
0.042616
0.0643298
0.0919977
0.113352
0.125988
0.131336
0.132077
0.130647
0.128305
0.124778
0.11844
0.108058
0.0967794
0.0922672
0.0964619
0.101004
0.0973191
0.0845921
0.0687922
0.0555777
0.0440551
0.0318961
0.0203512
0.0123674
0.00924822
0.0149077
0.166024
0.158185
0.149126
0.139456
0.128566
0.11446
0.094172
0.0673851
0.0402606
0.0185047
0.00479388
0.000231413
0.00111935
0.0039457
0.00893271
0.0168064
0.0255842
0.0321588
0.0330069
0.0257848
0.0237008
0.0441657
0.073105
0.0874241
0.0899891
0.090553
0.0911251
0.0915641
0.0923083
0.0956421
0.105608
0.117837
0.135493
0.154319
0.162571
0.130242
0.13006
0.253675
0.398215
0.411628
0.294527
0.160591
0.0882579
0.0834347
0.107771
0.1302
0.140509
0.140932
0.135387
0.12454
0.107766
0.0883015
0.0741855
0.0720557
0.0806667
0.0918664
0.0987913
0.0971614
0.078867
0.0494085
0.0527279
0.126438
0.234901
0.32654
0.388726
0.429007
0.452434
0.45234
0.441149
0.438161
0.386187
0.253861
0.117819
0.0496333
0.0447668
0.0673986
0.0932453
0.113093
0.12497
0.129985
0.1306
0.129136
0.126711
0.122956
0.116454
0.106559
0.0963938
0.0920933
0.0948201
0.0974998
0.0925549
0.079079
0.0625427
0.0484348
0.0365319
0.0251221
0.0152034
0.00913905
0.0077002
0.0145315
0.0333134
0.0300847
0.0263246
0.0223441
0.0178182
0.0127159
0.00612757
0.012364
0.00248722
0.00314717
0.00159498
0.00205161
0.00335472
0.00620228
0.0126371
0.0223052
0.0317754
0.0375757
0.0374598
0.0292487
0.0231053
0.0389836
0.0692098
0.0877243
0.092097
0.0927607
0.0930143
0.0929823
0.0937068
0.0976304
0.107197
0.119103
0.135735
0.153157
0.157625
0.125146
0.135012
0.265733
0.41596
0.43626
0.316653
0.172342
0.0925553
0.0853121
0.110015
0.132961
0.143108
0.143148
0.137857
0.128369
0.113252
0.0937614
0.076799
0.0704882
0.076593
0.0885047
0.0981222
0.101004
0.0892089
0.0606866
0.0486287
0.0987515
0.196625
0.292003
0.360695
0.404087
0.427273
0.42731
0.423416
0.418224
0.34953
0.213145
0.0942204
0.0447832
0.0477717
0.0703553
0.0942459
0.112726
0.123903
0.128561
0.129025
0.127541
0.125108
0.12127
0.114776
0.105342
0.0959147
0.0915263
0.0929673
0.0942008
0.0883764
0.0744139
0.0573298
0.0424922
0.030268
0.0194907
0.0110046
0.00670337
0.00683566
0.0148379
0.00260525
0.00205027
0.00148005
0.00100528
0.000239343
0.000291113
0.000805499
0.00108602
0.00124962
0.00204675
0.0029957
0.00349232
0.0047954
0.0093686
0.0183417
0.0296875
0.0391115
0.0433731
0.0417079
0.0327102
0.0232989
0.0339569
0.064156
0.0870468
0.0939658
0.0950455
0.095088
0.0947636
0.0955149
0.0997383
0.108518
0.120138
0.135791
0.151987
0.15237
0.120832
0.13948
0.274949
0.429224
0.456342
0.33623
0.182787
0.0965334
0.0872871
0.112335
0.135622
0.145459
0.145008
0.139798
0.131517
0.118311
0.0996395
0.0806668
0.0701044
0.072588
0.0839784
0.0956495
0.102341
0.0973464
0.0732713
0.0509329
0.077154
0.158174
0.251972
0.325974
0.374021
0.397983
0.400333
0.402839
0.389445
0.303318
0.170225
0.0738422
0.0427464
0.0514278
0.0729733
0.0949488
0.112262
0.122777
0.127028
0.127313
0.125829
0.123445
0.119629
0.113267
0.104317
0.0954638
0.0908235
0.0909507
0.0907619
0.0841637
0.0699895
0.0527565
0.0375358
0.0251174
0.0148626
0.00760676
0.00490172
0.00647469
0.0153256
0.00155311
0.00151368
0.00151103
0.00155812
0.00170211
0.00191426
0.00223908
0.00273629
0.00331927
0.00373808
0.0038562
0.00443408
0.00752684
0.0150923
0.0266741
0.0388495
0.0471471
0.049084
0.0453799
0.0357774
0.0241294
0.0293849
0.0580231
0.0850668
0.0954112
0.0973185
0.0973588
0.0968891
0.097575
0.101714
0.109468
0.12077
0.135551
0.150656
0.14705
0.117143
0.143247
0.281247
0.43731
0.469734
0.350395
0.191016
0.099936
0.0893933
0.114824
0.138238
0.147595
0.146568
0.141307
0.134025
0.122786
0.105625
0.0856483
0.0711984
0.0692474
0.0787403
0.0916141
0.101286
0.102498
0.0855296
0.0587231
0.0634365
0.122825
0.208716
0.284953
0.337656
0.363429
0.370224
0.376606
0.348864
0.248611
0.128601
0.0585826
0.0434586
0.055231
0.075067
0.0953885
0.11173
0.121553
0.125318
0.125396
0.123934
0.12165
0.117931
0.111768
0.103266
0.0948256
0.0898076
0.0885959
0.0869299
0.0794774
0.0651162
0.0479627
0.0327624
0.0205362
0.0109857
0.00492993
0.00363913
0.00638845
0.0157714
0.00268599
0.00294577
0.00323936
0.0035541
0.00388501
0.00422848
0.00456866
0.00485854
0.00498618
0.0049036
0.00512906
0.0072632
0.0134047
0.0242463
0.0376052
0.0492187
0.0551715
0.0541433
0.0481298
0.0381051
0.0253658
0.0255455
0.0510279
0.0815098
0.0960101
0.0993676
0.099689
0.0991714
0.0996966
0.103484
0.110195
0.120928
0.134952
0.148926
0.141745
0.11437
0.146597
0.284159
0.439335
0.475054
0.357337
0.195823
0.10239
0.0916321
0.117547
0.140846
0.149532
0.147861
0.142461
0.135964
0.126587
0.111411
0.0914682
0.0738799
0.0671049
0.0733425
0.0863133
0.0981641
0.10431
0.0957298
0.0703222
0.0584378
0.0937855
0.165473
0.239481
0.295222
0.323613
0.336515
0.34138
0.294712
0.189147
0.0927631
0.0497486
0.04629
0.0586025
0.0765546
0.0956434
0.111133
0.120155
0.123333
0.123187
0.12178
0.119649
0.116088
0.110165
0.102064
0.0938973
0.0884209
0.0859151
0.0828231
0.074521
0.0600135
0.0431194
0.0282634
0.0165389
0.00784409
0.00297178
0.00293473
0.00662255
0.0161544
0.0107997
0.010183
0.009618
0.0090967
0.00861736
0.00817707
0.00777255
0.00738706
0.00706491
0.00720256
0.0089548
0.0140988
0.0238052
0.0370758
0.0504757
0.0597951
0.0623109
0.0580087
0.049738
0.039492
0.0267629
0.0226755
0.0435475
0.0761746
0.0953559
0.100865
0.101755
0.101375
0.101778
0.105012
0.110788
0.120601
0.13399
0.146586
0.136546
0.112518
0.149373
0.28403
0.435209
0.471839
0.356528
0.196233
0.103537
0.0939472
0.12048
0.143398
0.151226
0.14888
0.14331
0.137408
0.129675
0.116718
0.09776
0.0780755
0.0665816
0.0684231
0.0801226
0.093378
0.102971
0.102358
0.0833157
0.0618501
0.0737145
0.125818
0.192357
0.248104
0.279831
0.298228
0.293049
0.22822
0.131866
0.0671422
0.0473164
0.0500058
0.0610415
0.0775168
0.0958197
0.110429
0.11846
0.120946
0.120575
0.119266
0.117338
0.113988
0.108337
0.100599
0.0926095
0.086645
0.0829452
0.0785784
0.0695582
0.0550057
0.038485
0.024154
0.01312
0.00538464
0.0016831
0.00272728
0.00708276
0.0164916
0.0178838
0.0166021
0.0154618
0.0144574
0.013595
0.0128871
0.0123528
0.0120689
0.0123539
0.0140449
0.0185113
0.026945
0.0391189
0.0526798
0.0638589
0.0693119
0.0677717
0.0603544
0.0502351
0.0399958
0.0281645
0.0209641
0.0361134
0.0690199
0.0930356
0.101406
0.103184
0.103244
0.103661
0.106254
0.111211
0.119921
0.132668
0.143531
0.131558
0.111199
0.151021
0.281147
0.425797
0.46017
0.347683
0.19194
0.103266
0.0963472
0.123645
0.145894
0.152673
0.149635
0.143902
0.138441
0.132067
0.121338
0.104115
0.0835347
0.0679234
0.0646391
0.0735472
0.0872799
0.0991159
0.104623
0.0947741
0.0719295
0.0645137
0.0933926
0.146413
0.197878
0.232831
0.250959
0.228172
0.156443
0.0860965
0.0542905
0.0495005
0.0531159
0.0623645
0.0781965
0.0959918
0.109501
0.116296
0.117997
0.117418
0.116259
0.114589
0.111501
0.106152
0.0987528
0.0908862
0.0844491
0.0796856
0.0742184
0.0646353
0.0501679
0.0341558
0.0205099
0.010293
0.00355637
0.00097064
0.00292891
0.0077429
0.0167856
0.0379281
0.0347582
0.0319743
0.0295807
0.0275846
0.0260049
0.0249187
0.0245858
0.0256186
0.0290085
0.0357188
0.0458485
0.0579274
0.069052
0.0759923
0.0766731
0.0711298
0.0612192
0.0499565
0.0399903
0.0296144
0.0205826
0.0293893
0.0602396
0.0886259
0.100625
0.103687
0.104532
0.105173
0.10719
0.111394
0.1189
0.130904
0.139758
0.126818
0.110063
0.15133
0.275319
0.410727
0.440085
0.330796
0.182936
0.101659
0.0989174
0.127063
0.148314
0.153852
0.150123
0.144265
0.139137
0.133822
0.125142
0.110141
0.0898665
0.0711646
0.062573
0.0672582
0.0801808
0.0934639
0.102811
0.101967
0.0851073
0.0667874
0.0723219
0.105048
0.146324
0.17971
0.187513
0.150942
0.0940424
0.0600276
0.0528888
0.0530749
0.0545086
0.0628518
0.0789045
0.0961314
0.10815
0.113451
0.114303
0.113549
0.112598
0.111244
0.108472
0.103464
0.0964039
0.0886486
0.0817989
0.0761392
0.0697866
0.0598327
0.0455864
0.0301765
0.0173096
0.00798222
0.00225372
0.000716348
0.00340682
0.00846148
0.016983
0.0697616
0.0647508
0.0601424
0.0559937
0.0523718
0.0493986
0.0473308
0.046645
0.0480355
0.0521752
0.0592126
0.0682653
0.0773246
0.0837818
0.0854084
0.0813313
0.0724786
0.0610179
0.0494805
0.0401077
0.0314168
0.0217476
0.024157
0.0503291
0.0817633
0.0981432
0.103076
0.105009
0.106138
0.107795
0.111268
0.117583
0.128557
0.135301
0.122222
0.108866
0.150264
0.266423
0.389971
0.411912
0.306316
0.169636
0.0990281
0.101796
0.13074
0.150617
0.154736
0.150342
0.144417
0.139552
0.135016
0.128084
0.115508
0.0965911
0.076114
0.0626338
0.0620435
0.0725202
0.0864734
0.0980435
0.103603
0.0964104
0.0779916
0.0664661
0.075322
0.0989363
0.119379
0.11318
0.0823471
0.0582509
0.0549357
0.0573167
0.0548029
0.0540842
0.0631559
0.0798474
0.0960571
0.106106
0.109692
0.109665
0.108782
0.108101
0.107127
0.104738
0.100124
0.0934309
0.0858159
0.0786529
0.072292
0.0652913
0.055181
0.0413075
0.026587
0.0145565
0.00613972
0.00138958
0.000811907
0.00407712
0.00921447
0.0170776
0.105861
0.100467
0.0949833
0.0896261
0.0846617
0.080433
0.077378
0.0760097
0.0767832
0.0798281
0.0846516
0.0900094
0.0940809
0.0949672
0.0914041
0.0833898
0.0723306
0.0603781
0.0494414
0.0410408
0.0340622
0.0247598
0.0213116
0.0402113
0.0723009
0.0935219
0.10118
0.104461
0.106365
0.107991
0.110787
0.116031
0.125546
0.13019
0.117576
0.107401
0.14788
0.254565
0.363783
0.376345
0.275279
0.152986
0.0959123
0.10516
0.134654
0.152737
0.155291
0.150286
0.144369
0.139729
0.135735
0.130189
0.119987
0.103201
0.0823706
0.0649824
0.0586684
0.0650218
0.0783799
0.0914149
0.100498
0.101802
0.0912587
0.0749583
0.066008
0.0684937
0.0697212
0.0596309
0.0505595
0.0544745
0.0620551
0.0605011
0.0533285
0.0528321
0.0639326
0.0809701
0.0954454
0.103067
0.104789
0.10389
0.102931
0.102583
0.102064
0.100139
0.0959925
0.0897244
0.0823207
0.0749835
0.0681445
0.060755
0.0507246
0.0373846
0.0234153
0.0122292
0.0046998
0.000875968
0.00117006
0.00485412
0.00991005
0.0170132
0.129317
0.12605
0.122296
0.118219
0.114093
0.110279
0.1072
0.105243
0.10462
0.10519
0.106348
0.107037
0.105919
0.101772
0.0940617
0.0833747
0.0713338
0.0598808
0.0502974
0.0432682
0.0379854
0.0299249
0.0218614
0.0314132
0.0605833
0.0862482
0.0977538
0.102718
0.105631
0.107604
0.109915
0.114267
0.121916
0.124472
0.112695
0.105489
0.144263
0.240017
0.332621
0.334494
0.23934
0.134433
0.0930627
0.109202
0.138741
0.154586
0.155483
0.149959
0.144127
0.139693
0.136053
0.131532
0.123455
0.109241
0.0893784
0.0694899
0.0577164
0.0586413
0.0696099
0.083374
0.0944936
0.100741
0.0991359
0.0887835
0.0756704
0.0653198
0.0565781
0.0525766
0.0583528
0.0676952
0.0682777
0.0586389
0.0498209
0.0521008
0.0654315
0.0819317
0.0938996
0.0987495
0.0985519
0.0968251
0.0958516
0.0959051
0.0959212
0.094553
0.0909653
0.0852093
0.0781269
0.0707902
0.063712
0.0561905
0.0464706
0.033823
0.0206563
0.0102979
0.00360435
0.000640615
0.00172135
0.00569764
0.0105425
0.0167805
0.144031
0.142647
0.140687
0.13821
0.135364
0.132378
0.129514
0.126986
0.124853
0.12293
0.120735
0.117488
0.11227
0.104398
0.0939321
0.0819071
0.0700125
0.0598616
0.052175
0.0468626
0.0432591
0.0372181
0.0266586
0.0260807
0.0478698
0.0759446
0.0923918
0.0996635
0.103718
0.106357
0.108562
0.112229
0.117832
0.118264
0.107477
0.103017
0.139507
0.22306
0.297129
0.287984
0.200768
0.115824
0.0913539
0.114078
0.142889
0.156057
0.155281
0.149366
0.143698
0.139454
0.136032
0.132214
0.125897
0.114356
0.0965065
0.0757354
0.0594684
0.0543412
0.0610481
0.0740893
0.0866945
0.0954698
0.0993273
0.0971239
0.0896397
0.080079
0.0734517
0.0734252
0.077413
0.0767144
0.0666012
0.0529466
0.0465277
0.0526554
0.0673766
0.0822258
0.0910374
0.0929383
0.0908763
0.0884221
0.0875107
0.0880296
0.0886569
0.0879381
0.0850115
0.0798785
0.0732634
0.0661334
0.0590668
0.0516564
0.0424472
0.0306227
0.0182836
0.00871002
0.00278667
0.000622668
0.00242555
0.00655603
0.0110352
0.0163165
0.149289
0.149162
0.148542
0.147421
0.14583
0.143828
0.141481
0.138824
0.135814
0.132274
0.127824
0.121888
0.113884
0.103632
0.0917342
0.0795583
0.0687162
0.0604051
0.0548903
0.0515186
0.0495155
0.04587
0.035528
0.0263474
0.0366793
0.0629263
0.0844649
0.0951361
0.100484
0.103924
0.106475
0.109708
0.113319
0.111719
0.101952
0.0999794
0.133686
0.203861
0.258141
0.239012
0.162351
0.099232
0.0916404
0.119858
0.146925
0.157035
0.154668
0.148527
0.143087
0.139014
0.135712
0.132338
0.127374
0.118331
0.103148
0.0830587
0.063825
0.0528624
0.0538774
0.0641797
0.07728
0.0879005
0.094379
0.0968133
0.0954167
0.0918043
0.0890293
0.0875031
0.0837853
0.0738356
0.0589667
0.0467494
0.0448805
0.0543934
0.0691749
0.0813301
0.0865591
0.0855445
0.0818254
0.0788239
0.0780703
0.0791016
0.0803887
0.0803922
0.0782225
0.0738359
0.067859
0.0611676
0.0543704
0.0472836
0.0387166
0.0277757
0.016244
0.00739527
0.00217951
0.000775181
0.0032493
0.00739419
0.0113645
0.015616
0.152347
0.152838
0.152817
0.152247
0.1511
0.149357
0.146999
0.143992
0.140248
0.135565
0.129576
0.121822
0.112031
0.100503
0.0882837
0.0768931
0.0677194
0.0615068
0.0581609
0.0567674
0.0563211
0.0549952
0.0472392
0.0333634
0.0305739
0.0489853
0.0733235
0.0886312
0.0959038
0.100082
0.103204
0.106265
0.108217
0.104958
0.0962799
0.0964932
0.126791
0.182459
0.216842
0.190404
0.127192
0.0866786
0.0945876
0.126462
0.150617
0.157409
0.153647
0.147465
0.142296
0.138363
0.13511
0.131993
0.127998
0.121085
0.108808
0.0906697
0.0702875
0.0545525
0.0492462
0.0548483
0.0666021
0.0784349
0.0867768
0.0911908
0.0925123
0.0918234
0.089774
0.0856211
0.0773062
0.0641963
0.0501336
0.0422027
0.0450673
0.0567182
0.0701599
0.0787975
0.0803181
0.0767012
0.0717337
0.0684666
0.0679793
0.0695273
0.0714627
0.0722097
0.0708635
0.0673403
0.0621863
0.0561838
0.0499187
0.0433327
0.0354451
0.0253294
0.0144957
0.00627814
0.00171822
0.00106483
0.00416084
0.0081258
0.0114308
0.0146414
0.151812
0.152645
0.152945
0.152664
0.151752
0.150151
0.147799
0.144603
0.14041
0.13495
0.127853
0.118827
0.107974
0.0960453
0.0843694
0.0744126
0.067239
0.063187
0.0618791
0.0623122
0.0633025
0.0638154
0.0597754
0.04628
0.0329238
0.0379713
0.0592734
0.0790618
0.0897712
0.0949356
0.0983959
0.101307
0.102138
0.0979841
0.0906941
0.0927718
0.118723
0.158902
0.175029
0.145548
0.0983217
0.0797039
0.100509
0.133618
0.153676
0.157093
0.152252
0.146213
0.141324
0.137482
0.134229
0.131239
0.127891
0.122653
0.113158
0.0977858
0.0780284
0.0592465
0.0479836
0.047523
0.0557624
0.0672597
0.0770507
0.0829995
0.0853505
0.0849637
0.0821757
0.076292
0.0663471
0.0535556
0.0427924
0.0399035
0.0466604
0.0588847
0.0696939
0.0743344
0.0724359
0.0668861
0.0613109
0.0581582
0.0580353
0.0600274
0.0625007
0.063926
0.063411
0.0608442
0.056692
0.0516286
0.0461505
0.0402013
0.0329229
0.0234148
0.0130283
0.00529111
0.00134823
0.00146704
0.00511444
0.00865579
0.0111791
0.0134382
0.150889
0.151898
0.152313
0.152084
0.151151
0.149441
0.146861
0.143274
0.138464
0.132124
0.123966
0.113961
0.102606
0.090986
0.0804962
0.0723784
0.0673371
0.0654056
0.0660378
0.0682261
0.0706622
0.0724305
0.0715418
0.0622057
0.044727
0.0352191
0.0454825
0.0655779
0.0809573
0.0886401
0.0924081
0.0947541
0.09477
0.090613
0.0851636
0.0886205
0.108749
0.133229
0.13547
0.108046
0.0781434
0.0791806
0.109301
0.14083
0.155786
0.156054
0.150546
0.1448
0.140155
0.136346
0.133053
0.130111
0.127161
0.123143
0.116049
0.103759
0.0860488
0.0662507
0.0503643
0.0434647
0.0463349
0.0553481
0.0653357
0.0725982
0.0759505
0.0757016
0.0722081
0.0652461
0.0550404
0.0442374
0.0378671
0.0397739
0.0489695
0.0600659
0.0672505
0.0679512
0.0634565
0.0570258
0.0516843
0.0490786
0.0493681
0.0516219
0.0543931
0.0563157
0.0565646
0.0549978
0.0519903
0.0480816
0.0436036
0.0383715
0.0315386
0.0222725
0.0119151
0.00440728
0.00104747
0.00198937
0.00605307
0.0088576
0.0105297
0.0120397
0.148279
0.149386
0.149846
0.149613
0.148619
0.146772
0.143944
0.139943
0.134504
0.127345
0.118354
0.107824
0.0965886
0.085892
0.0770261
0.0709374
0.0680103
0.0680597
0.0704562
0.0742634
0.0782175
0.0811281
0.0821693
0.0778088
0.0631311
0.0445764
0.0388355
0.0505177
0.0677742
0.07994
0.0857766
0.0878586
0.0870672
0.0832229
0.0795424
0.0830916
0.0959547
0.107508
0.102521
0.0807445
0.0679391
0.0853234
0.120353
0.14737
0.156661
0.154347
0.148621
0.143241
0.138762
0.134923
0.131559
0.128611
0.125881
0.122685
0.117486
0.10816