/*--------------------------------*- C++ -*----------------------------------*\
  =========                 |
  \\      /  F ield         | OpenFOAM: The Open Source CFD Toolbox
   \\    /   O peration     | Website:  https://openfoam.org
    \\  /    A nd           | Version:  10
     \\/     M anipulation  |
\*---------------------------------------------------------------------------*/
FoamFile
{
    format      ascii;
    class       volScalarField;
    location    "0.155";
    object      nut;
}
// * * * * * * * * * * * * * * * * * * * * * * * * * * * * * * * * * * * * * //

dimensions      [0 2 -1 0 0 0 0];

internalField   nonuniform List<scalar> 
6820
(
0
0
0
0
0
0
0
0
0
0
0
0
0
0
0
0
0
0
0
0
0
0
0
0
0
0
0
0
0
0
1.16583e-08
6.71764e-08
1.9478e-07
0
0
0
0
0
0
0
0
0
0
0
0
0
0
0
0
0
0
0
0
0
0
0
0
0
0
0
0
0
0
0
2.59669e-08
2.00887e-07
0
0
0
0
0
0
0
0
0
0
0
0
0
0
0
0
0
0
0
0
0
0
0
0
0
0
0
0
0
0
0
0
0
0
0
0
0
0
0
0
0
0
0
0
0
0
0
0
0
0
0
0
0
0
0
0
0
0
0
0
0
0
0
0
0
0
1.34132e-05
0
0
0
0
0
0
0
0
0
0
0
0
0
0
0
0
0
0
0
0
0
0
0
0
0
0
0
0
0
0
0
0
4.41059e-06
3.06002e-05
2.51721e-05
1.73045e-05
9.55336e-06
4.2226e-06
8.79836e-07
0
0
0
0
0
0
0
0
0
0
0
0
0
0
0
0
0
0
0
0
0
0
0
0
0
0
0
4.36233e-07
3.93858e-06
8.64464e-06
8.9742e-06
7.81677e-06
6.29646e-06
4.40275e-06
2.39488e-06
5.12939e-07
0
0
0
0
0
0
0
0
0
0
0
0
0
0
0
0
0
0
0
0
0
0
0
0
0
0
0
0
0
0
0
0
0
0
0
0
0
0
0
0
0
0
0
0
0
0
0
0
0
0
0
0
0
0
0
0
0
0
0
0
0
0
0
0
0
0
0
0
0
0
0
0
0
0
0
0
0
0
0
0
0
0
0
0
0
0
0
0
0
0
0
0
0
0
0
0
0
0
0
0
0
0
0
0
0
0
0
0
0
0
0
0
0
0
0
0
0
0
0
0
0
0
0
0
0
0
0
0
0
0
0
0
0
0
0
0
0
0
0
0
0
0
0
0
0
0
0
0
0
0
0
0
0
0
0
0
0
0
0
0
0
0
0
0
0
0
0
0
0
0
0
0
0
0
0
0
0
0
0
0
0
0
0
0
0
0
0
0
0
0
0
0
0
0
0
0
0
0
0
0
0
0
0
0
0
0
0
0
0
0
0
0
0
0
0
0
0
0
0
0
0
0
0
0
0
0
0
0
0
0
0
0
0
0
0
0
0
0
0
0
0
0
0
0
0
0
0
0
0
0
0
0
0
1.82621e-07
0
0
0
0
0
0
0
0
0
0
0
0
0
0
0
0
0
0
0
0
0
0
0
0
0
0
0
0
0
0
0
1.20592e-07
6.29715e-07
0
0
0
0
0
0
0
0
0
0
0
0
0
0
0
0
0
0
0
0
0
0
0
0
0
0
0
0
0
0
0
2.11809e-07
8.5173e-07
0
0
0
0
0
0
0
0
0
0
0
0
0
0
0
0
0
0
0
0
0
0
0
0
0
0
0
0
0
6.87334e-08
1.13202e-07
2.80026e-07
1.02481e-06
0
0
0
0
0
0
0
0
0
0
0
0
0
0
0
0
0
0
0
0
0
0
0
0
0
0
0
0
2.5513e-08
2.71073e-08
0
1.07357e-07
9.69246e-07
0
0
0
0
0
0
0
0
0
0
0
0
0
0
0
0
0
0
0
0
0
0
0
0
0
0
5.41087e-08
9.58892e-08
6.70618e-08
0
0
0
8.45578e-07
0
0
0
0
0
0
0
0
0
0
0
0
0
0
0
0
0
0
0
0
0
0
0
0
0
3.4436e-08
4.90714e-08
0
0
0
0
0
5.1858e-07
0
0
0
0
0
0
0
0
0
0
0
0
0
0
0
0
0
0
0
0
0
0
0
4.51703e-08
8.99452e-08
7.61122e-08
0
0
0
0
0
0
1.13441e-07
0
0
0
0
0
0
0
0
0
0
0
0
0
0
0
0
0
0
0
0
0
5.58594e-09
6.24225e-08
7.64926e-08
3.66443e-08
0
0
0
0
0
0
0
0
0
0
0
0
0
0
0
0
0
0
0
0
0
0
0
0
0
0
0
0
5.89088e-08
8.5266e-08
7.3739e-08
1.41172e-08
0
0
0
0
0
0
0
0
0
0
0
0
0
0
0
0
0
0
0
0
0
0
0
0
0
0
2.1704e-08
1.0405e-07
1.29543e-07
1.16367e-07
7.28374e-08
0
0
0
0
0
0
0
0
0
0
0
0
0
0
0
0
0
0
0
0
0
0
0
0
0
0
2.1379e-08
1.39497e-07
1.83396e-07
1.68043e-07
1.12064e-07
3.10277e-08
0
0
0
0
0
0
0
0
0
0
0
0
0
0
0
0
0
0
0
0
0
0
0
0
5.29512e-08
2.65408e-07
3.97542e-07
4.48448e-07
4.24285e-07
3.38687e-07
2.11314e-07
6.39444e-08
0
0
0
0
0
0
0
0
0
0
0
0
0
0
0
0
0
0
0
0
0
0
0
1.08925e-07
3.04993e-07
4.35301e-07
4.93848e-07
4.8e-07
3.9825e-07
2.59563e-07
8.14902e-08
0
0
0
0
0
0
0
0
0
0
0
0
0
0
0
0
0
0
0
0
0
1.18206e-07
3.85578e-07
6.44781e-07
8.58231e-07
1.00386e-06
1.07076e-06
1.05561e-06
9.60061e-07
7.8988e-07
5.5539e-07
2.73467e-07
0
0
0
0
0
0
0
0
0
0
0
0
0
0
0
0
0
0
0
0
4.47031e-08
2.16427e-07
4.06512e-07
5.82629e-07
7.1184e-07
7.73533e-07
7.59829e-07
6.70935e-07
5.11353e-07
2.88131e-07
1.09314e-08
0
0
0
0
0
0
0
0
0
0
0
0
0
0
0
0
0
0
2.03278e-07
6.09724e-08
1.54066e-07
3.72453e-07
6.68973e-07
9.90271e-07
1.26908e-06
1.4625e-06
1.5479e-06
1.51915e-06
1.38285e-06
1.15182e-06
8.40134e-07
4.61568e-07
3.05287e-08
0
0
0
0
0
0
0
0
0
0
0
0
0
0
0
0
0
0
2.84684e-07
0
0
0
0
0
0
0
0
0
0
0
0
0
0
0
0
0
0
0
0
0
0
0
0
0
0
0
0
0
0
0
0
7.38431e-07
1.79113e-07
2.32178e-07
2.69949e-07
1.84822e-07
4.7539e-08
0
0
0
0
0
0
0
0
0
0
0
0
0
0
0
0
0
0
0
0
0
0
0
0
0
0
0
8.72939e-08
0
0
0
0
0
0
0
0
0
0
0
0
0
0
0
0
0
0
0
0
0
0
0
0
0
0
0
0
0
0
0
0
1.26541e-06
0
0
0
0
0
0
0
0
0
0
0
0
0
0
0
0
0
0
0
0
0
0
0
0
0
0
0
0
0
0
0
0
0
0
0
0
0
0
0
0
0
0
0
0
0
0
0
0
0
0
0
0
0
0
0
0
0
0
0
0
0
0
0
0
0
0
0
0
0
0
2.96198e-08
1.36654e-05
1.93046e-05
2.09844e-05
2.07722e-05
1.96384e-05
1.8039e-05
1.62159e-05
1.43028e-05
1.23834e-05
1.05239e-05
8.78486e-06
7.22027e-06
5.86828e-06
4.74187e-06
3.82629e-06
3.08585e-06
2.47734e-06
1.96272e-06
1.51516e-06
1.11859e-06
7.64293e-07
4.47329e-07
1.64587e-07
0
0
0
0
0
0
0
0
0
0
0
0
0
0
1.39022e-07
5.08745e-07
8.92138e-07
1.28856e-06
1.6966e-06
2.1143e-06
2.53941e-06
2.96958e-06
3.40261e-06
3.8365e-06
4.26939e-06
4.69911e-06
5.1231e-06
5.53845e-06
5.9416e-06
6.32855e-06
6.69505e-06
7.0365e-06
7.34836e-06
7.62612e-06
7.8662e-06
8.06776e-06
8.63869e-06
4.37859e-08
0
0
0
0
0
0
0
0
0
0
0
0
0
0
0
0
0
0
0
0
1.81439e-09
4.63376e-09
7.64793e-09
1.08232e-08
1.41245e-08
1.75179e-08
2.09615e-08
2.44106e-08
2.78122e-08
3.11187e-08
3.42451e-08
3.76287e-08
2.42762e-08
0
0
0
0
0
0
0
0
0
0
0
0
0
0
0
0
0
0
0
0
0
0
9.22748e-09
2.77721e-08
4.64142e-08
6.50943e-08
8.37249e-08
1.02197e-07
1.20381e-07
1.38106e-07
1.55195e-07
1.64225e-07
1.21701e-08
0
0
0
0
0
0
0
0
0
0
0
0
0
0
0
0
0
0
0
0
0
0
4.31817e-09
2.24614e-08
4.07232e-08
5.90509e-08
7.73701e-08
9.55831e-08
1.13567e-07
1.31158e-07
1.47096e-07
1.54514e-07
0
0
0
0
0
0
0
0
0
1.17509e-05
1.11277e-05
5.21499e-06
6.25211e-07
1.63527e-06
3.87547e-06
5.62328e-06
6.97796e-06
7.87295e-06
8.06002e-06
7.45313e-06
8.08541e-06
8.91097e-06
3.16347e-06
0
0
0
0
0
0
1.7069e-06
8.15867e-06
4.01511e-05
4.53843e-05
3.06951e-05
1.7445e-05
0
0
0
0
0
0.000130599
6.58403e-05
0
0
0
0
0
0
0
0
0
0
0
0
0
0
0
0
0
0
0
0
0
0
0
3.02879e-05
7.05343e-05
0
0
5.22435e-05
7.48634e-05
6.29889e-05
4.24573e-05
2.49319e-05
1.76829e-05
1.67738e-05
1.72662e-05
1.74336e-05
1.67043e-05
1.53273e-05
1.362e-05
1.17502e-05
9.89702e-06
8.47954e-06
8.32213e-06
1.06976e-05
1.69979e-05
2.68786e-05
3.575e-05
3.97491e-05
3.84829e-05
3.24479e-05
2.30123e-05
1.12896e-05
0
0
0
0
0
0
0
0
0
0
0
0
0
0
2.28888e-07
6.50268e-06
3.55185e-06
8.09163e-07
1.84655e-06
3.56346e-06
5.37397e-06
7.2169e-06
8.61427e-06
9.38943e-06
9.45017e-06
8.59438e-06
8.49366e-06
9.99307e-06
6.08353e-06
0
0
0
0
0
3.37333e-07
2.1996e-06
8.34814e-06
3.23763e-05
4.15247e-05
3.57255e-05
2.76331e-05
0
0
0
0
0
0.00011788
6.71145e-05
0
0
0
0
0
0
0
0
0
0
0
0
0
0
0
0
0
0
0
0
0
0
0
0
9.69095e-06
0
2.03251e-05
6.57578e-05
7.47664e-05
6.12285e-05
4.13958e-05
2.5271e-05
1.96181e-05
1.94186e-05
2.01556e-05
2.01832e-05
1.93178e-05
1.79582e-05
1.64167e-05
1.48239e-05
1.33313e-05
1.23256e-05
1.25522e-05
1.50887e-05
2.09739e-05
2.97134e-05
3.76139e-05
4.12478e-05
3.97825e-05
3.34174e-05
2.35105e-05
1.14381e-05
0
0
0
0
0
0
0
0
0
0
0
0
0
0
1.21662e-06
2.06367e-06
1.77048e-06
2.29708e-06
3.21783e-06
4.57118e-06
6.55741e-06
8.51725e-06
9.8303e-06
1.03942e-05
1.028e-05
9.27829e-06
8.49969e-06
1.00488e-05
8.14873e-06
1.66244e-06
0
0
0
0
7.63983e-07
2.32756e-06
7.05512e-06
2.37667e-05
3.66599e-05
3.91772e-05
3.9084e-05
0
0
0
0
0
1.41605e-05
4.9741e-05
0
0
0
0
0
0
0
0
0
0
0
0
0
0
0
0
0
0
0
0
0
0
0
0
0
7.72183e-06
4.01367e-05
6.72084e-05
6.96708e-05
5.6435e-05
3.83501e-05
2.49135e-05
2.11555e-05
2.15828e-05
2.2375e-05
2.22545e-05
2.13421e-05
2.00922e-05
1.87801e-05
1.75049e-05
1.63973e-05
1.57963e-05
1.63355e-05
1.88849e-05
2.41958e-05
3.17461e-05
3.86184e-05
4.18263e-05
4.02275e-05
3.37275e-05
2.36044e-05
1.14315e-05
4.97589e-08
0
0
0
1.45417e-07
0
0
0
0
0
0
0
0
3.01009e-07
7.79949e-07
1.47816e-06
2.32503e-06
2.96587e-06
3.81893e-06
5.5689e-06
7.82667e-06
9.76017e-06
1.08775e-05
1.11655e-05
1.08265e-05
9.73141e-06
8.45194e-06
9.62808e-06
9.4128e-06
4.21452e-06
0
0
0
0
9.04784e-07
1.84993e-06
4.51883e-06
1.5788e-05
3.14488e-05
4.12261e-05
5.1179e-05
0
0
0
0
0
0
1.53604e-05
0
0
0
0
0
0
0
0
0
0
0
0
0
0
0
0
0
0
0
0
0
0
0
0
0
1.33784e-05
4.37195e-05
6.20764e-05
6.21464e-05
5.01499e-05
3.46633e-05
2.47112e-05
2.26503e-05
2.35098e-05
2.42246e-05
2.39885e-05
2.31045e-05
2.20171e-05
2.09569e-05
2.0004e-05
1.92738e-05
1.90535e-05
1.98603e-05
2.2369e-05
2.70915e-05
3.3506e-05
3.93197e-05
4.1996e-05
4.02394e-05
3.37106e-05
2.35516e-05
1.14112e-05
4.20875e-07
0
0
0
4.17321e-07
0
0
0
0
0
0
0
0
5.48979e-07
1.27803e-06
2.03148e-06
2.64432e-06
3.30311e-06
4.69715e-06
6.92837e-06
9.27496e-06
1.10217e-05
1.18365e-05
1.17903e-05
1.11865e-05
1.00192e-05
8.43776e-06
8.98976e-06
9.94755e-06
6.46163e-06
1.32133e-06
0
0
0
6.71076e-07
7.28371e-07
1.26339e-06
9.03601e-06
2.61855e-05
4.16583e-05
6.18502e-05
8.60781e-05
0
0
0
0
0
0
0
0
0
0
0
0
4.34607e-08
3.39198e-08
0
0
0
0
0
0
0
0
0
0
0
0
0
0
0
0
0
1.30719e-05
3.95688e-05
5.38843e-05
5.35244e-05
4.33912e-05
3.13959e-05
2.50536e-05
2.42693e-05
2.52936e-05
2.5863e-05
2.55714e-05
2.47781e-05
2.38811e-05
2.30755e-05
2.24375e-05
2.20683e-05
2.21968e-05
2.32225e-05
2.56425e-05
2.97788e-05
3.51361e-05
3.99179e-05
4.1997e-05
4.00245e-05
3.34768e-05
2.33597e-05
1.13609e-05
8.15993e-07
0
0
0
7.24678e-07
0
0
0
0
0
0
0
1.91887e-07
9.30239e-07
1.69432e-06
2.37509e-06
3.0328e-06
4.15442e-06
6.13422e-06
8.59462e-06
1.0804e-05
1.221e-05
1.26326e-05
1.22236e-05
1.13465e-05
1.01213e-05
8.42417e-06
8.27372e-06
9.84856e-06
8.08839e-06
3.4777e-06
1.40974e-07
0
0
3.88268e-10
0
0
3.61913e-06
2.10682e-05
4.01793e-05
6.78354e-05
0.000156502
0.000198403
4.26137e-05
0
0
0
0
0
1.1656e-06
1.42663e-06
1.61638e-06
1.77947e-06
1.82421e-06
1.72952e-06
1.45598e-06
9.67336e-07
2.96127e-07
0
0
0
0
0
0
0
0
0
0
0
0
0
0
0
1.06048e-05
3.2765e-05
4.47249e-05
4.45968e-05
3.69419e-05
2.92631e-05
2.59107e-05
2.58977e-05
2.68511e-05
2.72971e-05
2.7027e-05
2.63692e-05
2.56708e-05
2.51135e-05
2.47799e-05
2.47529e-05
2.51971e-05
2.6396e-05
2.86898e-05
3.22546e-05
3.66412e-05
4.04538e-05
4.19266e-05
3.97179e-05
3.31618e-05
2.31239e-05
1.13066e-05
1.1991e-06
0
0
0
1.15972e-06
0
0
0
0
0
0
0
6.04486e-07
1.39245e-06
2.1574e-06
2.92801e-06
3.98093e-06
5.68814e-06
7.99801e-06
1.03884e-05
1.2248e-05
1.31946e-05
1.31821e-05
1.24232e-05
1.12978e-05
1.00284e-05
8.36429e-06
7.58722e-06
9.25435e-06
8.95458e-06
5.34952e-06
1.53127e-06
0
0
0
0
0
0
1.62674e-05
3.6961e-05
6.74937e-05
0.000143239
0.000242865
0.000140225
0
0
0
0
0
3.62817e-06
4.20381e-06
4.23238e-06
4.10274e-06
3.84361e-06
3.46667e-06
2.92765e-06
2.17426e-06
1.21819e-06
1.53072e-07
0
0
0
0
0
0
0
0
0
0
0
0
0
0
7.8467e-06
2.58155e-05
3.56958e-05
3.60657e-05
3.18067e-05
2.85711e-05
2.70837e-05
2.73301e-05
2.81298e-05
2.85445e-05
2.83617e-05
2.78562e-05
2.73484e-05
2.70299e-05
2.69909e-05
2.72872e-05
2.80132e-05
2.9342e-05
3.14781e-05
3.44883e-05
3.79806e-05
4.08888e-05
4.17705e-05
3.93347e-05
3.27976e-05
2.28692e-05
1.12345e-05
1.52523e-06
0
0
0
1.72916e-06
0
0
0
0
0
0
2.8977e-07
1.13043e-06
2.03752e-06
3.00274e-06
4.14003e-06
5.68006e-06
7.72242e-06
1.00183e-05
1.20785e-05
1.34412e-05
1.38765e-05
1.34395e-05
1.23794e-05
1.10599e-05
9.76469e-06
8.23171e-06
7.01151e-06
8.32746e-06
9.067e-06
6.65365e-06
2.83042e-06
2.6688e-07
0
0
0
0
0
1.1876e-05
3.2508e-05
6.19247e-05
0.000112728
0.000184539
0.000160699
2.36757e-05
0
0
0
0
6.15384e-06
7.08487e-06
6.94854e-06
6.49819e-06
5.91157e-06
5.24147e-06
4.43705e-06
3.42973e-06
2.2061e-06
8.42454e-07
0
0
0
0
0
0
0
0
0
0
0
0
0
0
5.35883e-06
1.94905e-05
2.73552e-05
2.88902e-05
2.90732e-05
2.89706e-05
2.82419e-05
2.84e-05
2.91496e-05
2.96378e-05
2.957e-05
2.92025e-05
2.88669e-05
2.87774e-05
2.9024e-05
2.96237e-05
3.05973e-05
3.20159e-05
3.39698e-05
3.64474e-05
3.91199e-05
4.11931e-05
4.15126e-05
3.88696e-05
3.23897e-05
2.2613e-05
1.11618e-05
1.79091e-06
0
0
0
2.43788e-06
0
0
0
0
0
8.76966e-08
1.02462e-06
2.0892e-06
3.24882e-06
4.52362e-06
6.01423e-06
7.82233e-06
9.8798e-06
1.18908e-05
1.34574e-05
1.42639e-05
1.42041e-05
1.34004e-05
1.21175e-05
1.06821e-05
9.38828e-06
8.03356e-06
6.59582e-06
7.24306e-06
8.53098e-06
7.24892e-06
3.81838e-06
5.84383e-07
0
0
0
0
0
7.92104e-06
2.73812e-05
5.35561e-05
8.77442e-05
0.000139466
0.000145677
4.21313e-05
0
0
0
0
8.73767e-06
1.00224e-05
9.71889e-06
8.93036e-06
8.00425e-06
7.03815e-06
5.97147e-06
4.72059e-06
3.24854e-06
1.60278e-06
0
0
0
0
0
0
0
0
0
0
0
0
0
0
3.07295e-06
1.38269e-05
2.02956e-05
2.45259e-05
2.88512e-05
2.97547e-05
2.89962e-05
2.90889e-05
2.9986e-05
3.06004e-05
3.06234e-05
3.03563e-05
3.01704e-05
3.03016e-05
3.08243e-05
3.17058e-05
3.28926e-05
3.43641e-05
3.61175e-05
3.80874e-05
4.00103e-05
4.13195e-05
4.11166e-05
3.82951e-05
3.19148e-05
2.23339e-05
1.10724e-05
1.98707e-06
0
0
0
3.25166e-06
0
0
0
0
0
9.51141e-07
2.12742e-06
3.44021e-06
4.86237e-06
6.40579e-06
8.10717e-06
9.95274e-06
1.17961e-05
1.33702e-05
1.4389e-05
1.46649e-05
1.4183e-05
1.31051e-05
1.16954e-05
1.02343e-05
8.97963e-06
7.80905e-06
6.35605e-06
6.18931e-06
7.51012e-06
7.12221e-06
4.33905e-06
7.79377e-07
0
0
0
0
0
4.41289e-06
2.20512e-05
4.4433e-05
6.90838e-05
0.000107613
0.000121585
4.93441e-05
0
0
0
0
1.13742e-05
1.29643e-05
1.24894e-05
1.13575e-05
1.0094e-05
8.83875e-06
7.51755e-06
6.03371e-06
4.3322e-06
2.42754e-06
4.4627e-07
0
0
0
0
0
0
0
0
0
0
0
0
0
8.71347e-07
9.02187e-06
1.58405e-05
2.39781e-05
2.97206e-05
3.01883e-05
2.91661e-05
2.95386e-05
3.07177e-05
3.14221e-05
3.14692e-05
3.12547e-05
3.11969e-05
3.15397e-05
3.23265e-05
3.34665e-05
3.48332e-05
3.63258e-05
3.78674e-05
3.93595e-05
4.06034e-05
4.12248e-05
4.05527e-05
3.75952e-05
3.13682e-05
2.20379e-05
1.09757e-05
2.11907e-06
0
0
0
4.17615e-06
0
0
0
0
9.35334e-07
2.14683e-06
3.51741e-06
5.02163e-06
6.62663e-06
8.31014e-06
1.00389e-05
1.17292e-05
1.32233e-05
1.43172e-05
1.48272e-05
1.46614e-05
1.38657e-05
1.26221e-05
1.11842e-05
9.78454e-06
8.61194e-06
7.60566e-06
6.2726e-06
5.35877e-06
6.21183e-06
6.36418e-06
4.31208e-06
8.02434e-07
0
0
0
0
0
1.36449e-06
1.68716e-05
3.57099e-05
5.4829e-05
8.40276e-05
9.77885e-05
4.84504e-05
0
0
0
2.97428e-06
1.40472e-05
1.58539e-05
1.51989e-05
1.37328e-05
1.21502e-05
1.06233e-05
9.0609e-06
7.35628e-06
5.4434e-06
3.30646e-06
1.03988e-06
0
0
0
0
0
0
0
0
0
0
0
0
0
0
6.12108e-06
1.54033e-05
2.54781e-05
3.02058e-05
2.97827e-05
2.89467e-05
2.99424e-05
3.13693e-05
3.20511e-05
3.20381e-05
3.18299e-05
3.18788e-05
3.24206e-05
3.34559e-05
3.48303e-05
3.63464e-05
3.78341e-05
3.91605e-05
4.02101e-05
4.08476e-05
4.08611e-05
3.97834e-05
3.67466e-05
3.07358e-05
2.17173e-05
1.08698e-05
2.18705e-06
0
0
0
5.19158e-06
0
0
0
8.18776e-07
2.04609e-06
3.39168e-06
4.8832e-06
6.49161e-06
8.16673e-06
9.84978e-06
1.14636e-05
1.29018e-05
1.40285e-05
1.46996e-05
1.48052e-05
1.43178e-05
1.33256e-05
1.20219e-05
1.06432e-05
9.37257e-06
8.31628e-06
7.44106e-06
6.28453e-06
4.89068e-06
4.88818e-06
5.15309e-06
3.73788e-06
5.93137e-07
0
0
0
0
0
0
1.2091e-05
2.78756e-05
4.3485e-05
6.57144e-05
7.68944e-05
4.28576e-05
0
0
0
6.54127e-06
1.6724e-05
1.86289e-05
1.77818e-05
1.6007e-05
1.41405e-05
1.23699e-05
1.05858e-05
8.67552e-06
6.56886e-06
4.22657e-06
1.70292e-06
0
0
0
0
0
0
0
0
0
0
0
0
0
0
5.51257e-06
1.704e-05
2.6418e-05
2.95131e-05
2.86986e-05
2.87315e-05
3.04013e-05
3.18889e-05
3.24069e-05
3.22563e-05
3.2014e-05
3.2146e-05
3.2869e-05
3.4134e-05
3.57189e-05
3.73581e-05
3.88226e-05
3.99398e-05
4.05905e-05
4.06993e-05
4.01904e-05
3.87788e-05
3.57286e-05
3.00062e-05
2.13714e-05
1.07636e-05
2.19966e-06
0
0
0
6.31228e-06
0
0
7.00334e-07
1.84704e-06
3.12885e-06
4.52048e-06
6.0357e-06
7.637e-06
9.26175e-06
1.08331e-05
1.22592e-05
1.34345e-05
1.42464e-05
1.4591e-05
1.44067e-05
1.37131e-05
1.26305e-05
1.1357e-05
1.0102e-05
8.99612e-06
8.06777e-06
7.28026e-06
6.28539e-06
4.74838e-06
3.80874e-06
3.74019e-06
2.71076e-06
8.91231e-08
0
0
0
0
0
0
7.87052e-06
2.10717e-05
3.413e-05
5.10155e-05
5.92992e-05
3.5073e-05
0
0
0
1.02314e-05
1.93524e-05
2.12212e-05
2.01705e-05
1.81308e-05
1.60321e-05
1.40555e-05
1.20753e-05
9.97837e-06
7.69607e-06
5.17414e-06
2.42688e-06
0
0
0
0
0
0
0
0
0
0
0
0
0
0
5.71732e-06
1.78688e-05
2.57373e-05
2.77655e-05
2.75562e-05
2.87797e-05
3.0866e-05
3.21726e-05
3.24031e-05
3.20554e-05
3.17447e-05
3.1934e-05
3.2816e-05
3.42894e-05
3.60623e-05
3.78036e-05
3.92356e-05
4.01605e-05
4.04665e-05
4.01318e-05
3.91923e-05
3.75221e-05
3.45225e-05
2.91591e-05
2.09831e-05
1.06518e-05
2.15979e-06
0
0
0
7.53014e-06
0
7.4117e-07
1.55298e-06
2.7151e-06
3.98976e-06
5.35733e-06
6.82284e-06
8.3423e-06
9.84883e-06
1.1262e-05
1.24899e-05
1.3434e-05
1.39977e-05
1.41036e-05
1.37262e-05
1.29227e-05
1.18372e-05
1.0661e-05
9.56376e-06
8.62267e-06
7.80818e-06
7.05798e-06
6.15113e-06
4.68715e-06
3.12544e-06
2.40946e-06
1.43353e-06
0
0
0
0
0
0
0
4.3021e-06
1.53017e-05
2.62575e-05
3.9014e-05
4.47435e-05
2.66097e-05
0
0
0
1.38011e-05
2.18602e-05
2.35571e-05
2.22994e-05
2.00587e-05
1.77936e-05
1.56562e-05
1.35112e-05
1.12513e-05
8.81325e-06
6.13583e-06
3.19976e-06
1.27244e-07
0
0
0
0
0
0
0
0
0
0
0
0
0
5.57951e-06
1.70262e-05
2.3724e-05
2.57584e-05
2.68383e-05
2.90736e-05
3.11921e-05
3.21062e-05
3.19627e-05
3.13808e-05
3.09774e-05
3.12016e-05
3.222e-05
3.38788e-05
3.5818e-05
3.76457e-05
3.90454e-05
3.98073e-05
3.98347e-05
3.9154e-05
3.78861e-05
3.60334e-05
3.31337e-05
2.81797e-05
2.05259e-05
1.05178e-05
2.06574e-06
0
0
0
8.87871e-06
0
1.43204e-06
2.32392e-06
3.46342e-06
4.6832e-06
5.97489e-06
7.33827e-06
8.72557e-06
1.00719e-05
1.13023e-05
1.23312e-05
1.3068e-05
1.34279e-05
1.33558e-05
1.28573e-05
1.20194e-05
1.09959e-05
9.95666e-06
9.02142e-06
8.21667e-06
7.48184e-06
6.72834e-06
5.8262e-06
4.47244e-06
2.70496e-06
1.36885e-06
1.85713e-07
0
0
0
0
0
0
0
1.42909e-06
1.05347e-05
1.96362e-05
2.91988e-05
3.27904e-05
1.82664e-05
0
0
0
1.71155e-05
2.41563e-05
2.55596e-05
2.41107e-05
2.17525e-05
1.93964e-05
1.71483e-05
1.48744e-05
1.24798e-05
9.90887e-06
7.09921e-06
4.00799e-06
7.10272e-07
0
0
0
0
0
0
0
0
0
0
0
0
0
4.7026e-06
1.51449e-05
2.13346e-05
2.4142e-05
2.66331e-05
2.94284e-05
3.12169e-05
3.15887e-05
3.10293e-05
3.02077e-05
2.97115e-05
2.99633e-05
3.11e-05
3.29188e-05
3.49996e-05
3.69e-05
3.8276e-05
3.89155e-05
3.87455e-05
3.78326e-05
3.63516e-05
3.43907e-05
3.16101e-05
2.70684e-05
1.99611e-05
1.03191e-05
1.89675e-06
0
0
0
1.03905e-05
0
1.90783e-06
2.87997e-06
3.98352e-06
5.12955e-06
6.32509e-06
7.56925e-06
8.81373e-06
9.99767e-06
1.10523e-05
1.18982e-05
1.2452e-05
1.26432e-05
1.24408e-05
1.188e-05
1.10663e-05
1.01477e-05
9.25973e-06
8.47073e-06
7.76498e-06
7.06648e-06
6.27469e-06
5.30991e-06
3.99771e-06
2.24183e-06
5.79593e-07
0
0
0
0
0
0
0
0
0
6.7201e-06
1.41719e-05
2.12222e-05
2.29194e-05
1.04548e-05
0
0
6.86686e-06
2.0094e-05
2.61332e-05
2.71538e-05
2.55602e-05
2.31844e-05
2.08156e-05
1.8509e-05
1.61455e-05
1.3649e-05
1.09712e-05
8.0527e-06
4.83781e-06
1.35927e-06
0
0
0
0
0
0
0
0
0
0
0
0
0
3.54036e-06
1.30721e-05
1.91994e-05
2.31488e-05
2.67893e-05
2.96219e-05
3.07913e-05
3.05439e-05
2.95868e-05
2.85739e-05
2.80329e-05
2.83372e-05
2.95836e-05
3.1529e-05
3.37152e-05
3.56688e-05
3.7031e-05
3.75994e-05
3.73281e-05
3.63129e-05
3.47453e-05
3.27434e-05
3.00593e-05
2.58591e-05
1.9252e-05
9.9968e-06
1.61199e-06
0
0
0
1.21555e-05
0
2.28404e-06
3.31699e-06
4.3646e-06
5.4175e-06
6.50073e-06
7.61473e-06
8.71121e-06
9.73241e-06
1.06146e-05
1.12845e-05
1.16693e-05
1.17178e-05
1.14254e-05
1.08501e-05
1.01031e-05
9.3118e-06
8.57016e-06
7.90157e-06
7.26237e-06
6.56895e-06
5.72093e-06
4.65349e-06
3.28934e-06
1.55434e-06
0
0
0
0
0
0
0
0
0
0
3.70051e-06
9.68018e-06
1.46057e-05
1.45081e-05
3.58256e-06
0
0
1.19958e-05
2.26541e-05
2.76736e-05
2.82768e-05
2.66242e-05
2.43383e-05
2.20307e-05
1.97167e-05
1.73057e-05
1.4743e-05
1.19876e-05
8.98495e-06
5.67569e-06
2.06047e-06
0
0
0
0
0
0
0
0
0
0
0
0
0
2.40698e-06
1.11481e-05
1.75621e-05
2.27669e-05
2.70591e-05
2.9428e-05
2.97908e-05
2.89457e-05
2.76985e-05
2.66306e-05
2.61719e-05
2.66047e-05
2.79622e-05
2.99812e-05
3.22077e-05
3.41728e-05
3.55242e-05
3.60759e-05
3.58063e-05
3.48204e-05
3.32837e-05
3.12836e-05
2.86219e-05
2.46118e-05
1.83751e-05
9.50031e-06
1.15375e-06
0
0
0
1.4304e-05
0
2.43107e-06
3.52906e-06
4.52167e-06
5.4826e-06
6.45606e-06
7.44527e-06
8.40271e-06
9.27308e-06
9.99713e-06
1.05094e-05
1.07515e-05
1.06941e-05
1.03561e-05
9.80907e-06
9.15686e-06
8.49778e-06
7.88451e-06
7.30525e-06
6.70031e-06
5.98567e-06
5.07391e-06
3.89956e-06
2.43207e-06
6.55206e-07
0
0
0
0
0
0
0
0
0
0
1.08993e-06
5.68527e-06
8.66979e-06
7.1053e-06
0
0
3.76132e-06
1.58886e-05
2.46801e-05
2.86638e-05
2.88929e-05
2.73046e-05
2.52096e-05
2.30254e-05
2.07521e-05
1.83365e-05
1.57456e-05
1.29444e-05
9.88419e-06
6.50853e-06
2.79806e-06
0
0
0
0
0
0
0
0
0
0
0
0
0
1.37242e-06
9.48951e-06
1.651e-05
2.28047e-05
2.71261e-05
2.86318e-05
2.81506e-05
2.68659e-05
2.5563e-05
2.46984e-05
2.45508e-05
2.52433e-05
2.67144e-05
2.87165e-05
3.08693e-05
3.27666e-05
3.40864e-05
3.46608e-05
3.44763e-05
3.36154e-05
3.21729e-05
3.01571e-05
2.7386e-05
2.33533e-05
1.73071e-05
8.82416e-06
4.60157e-07
0
0
0
1.69718e-05
0
2.46286e-06
3.61276e-06
4.54095e-06
5.40321e-06
6.264e-06
7.12948e-06
7.9528e-06
8.68065e-06
9.25896e-06
9.63267e-06
9.76047e-06
9.63395e-06
9.28866e-06
8.79845e-06
8.25104e-06
7.71355e-06
7.20327e-06
6.68324e-06
6.08353e-06
5.32461e-06
4.33906e-06
3.06828e-06
1.49856e-06
0
0
0
0
0
0
0
0
0
0
0
0
1.57136e-06
2.97703e-06
8.56765e-07
0
0
8.84204e-06
1.88631e-05
2.60212e-05
2.90176e-05
2.90108e-05
2.76282e-05
2.58014e-05
2.37873e-05
2.15983e-05
1.9221e-05
1.66402e-05
1.38265e-05
1.07375e-05
7.32339e-06
3.55558e-06
0
0
0
0
0
0
0
0
0
0
0
0
0
4.49775e-07
8.14969e-06
1.59252e-05
2.28883e-05
2.6646e-05
2.70863e-05
2.59287e-05
2.45337e-05
2.35571e-05
2.32726e-05
2.37323e-05
2.48306e-05
2.63993e-05
2.82579e-05
3.01796e-05
3.18834e-05
3.31086e-05
3.36996e-05
3.36206e-05
3.28906e-05
3.15e-05
2.93591e-05
2.6297e-05
2.20169e-05
1.60155e-05
8.05331e-06
0
0
0
0
2.05133e-05
2.89794e-07
2.2815e-06
3.48736e-06
4.35746e-06
5.12936e-06
5.88732e-06
6.64042e-06
7.34299e-06
7.94465e-06
8.3985e-06
8.6622e-06
8.71164e-06
8.55486e-06
8.23542e-06
7.82106e-06
7.37925e-06
6.9479e-06
6.5162e-06
6.03122e-06
5.41898e-06
4.60869e-06
3.54697e-06
2.19195e-06
5.42679e-07
0
0
0
0
0
0
0
0
0
0
0
0
0
0
0
0
3.92888e-06
1.2428e-05
2.09282e-05
2.6522e-05
2.87196e-05
2.86948e-05
2.76376e-05
2.61204e-05
2.4307e-05
2.22414e-05
1.99432e-05
1.741e-05
1.46177e-05
1.15304e-05
8.1065e-06
4.3163e-06
1.90609e-07
0
0
0
0
0
0
0
0
0
0
0
0
0
7.02837e-06
1.54189e-05
2.25424e-05
2.53374e-05
2.47982e-05
2.33703e-05
2.23594e-05
2.21835e-05
2.28556e-05
2.41442e-05
2.57206e-05
2.7352e-05
2.89554e-05
3.0494e-05
3.18618e-05
3.28873e-05
3.3419e-05
3.33661e-05
3.26523e-05
3.11535e-05
2.86987e-05
2.51433e-05
2.04147e-05
1.43877e-05
7.33014e-06
0
0
0
0
2.43481e-05
1.01299e-06
1.98038e-06
3.2339e-06
4.04395e-06
4.72636e-06
5.38536e-06
6.03299e-06
6.62553e-06
7.11693e-06
7.46893e-06
7.65202e-06
7.65608e-06
7.49909e-06
7.22538e-06
6.89202e-06
6.54586e-06
6.19921e-06
5.82014e-06
5.34599e-06
4.70534e-06
3.84305e-06
2.71683e-06
1.30187e-06
0
0
0
0
0
0
0
0
0
0
0
0
0
0
0
0
9.21561e-07
7.16505e-06
1.49857e-05
2.18771e-05
2.61226e-05
2.78718e-05
2.80502e-05
2.73754e-05
2.61725e-05
2.45787e-05
2.26706e-05
2.04884e-05
1.80376e-05
1.52998e-05
1.22456e-05
8.84206e-06
5.06306e-06
9.22776e-07
0
0
0
0
0
0
0
0
0
0
0
0
0
5.84516e-06
1.44306e-05
2.13228e-05
2.3099e-05
2.20055e-05
2.09075e-05
2.0816e-05
2.18047e-05
2.35878e-05
2.57086e-05
2.77263e-05
2.93907e-05
3.07023e-05
3.17924e-05
3.27289e-05
3.34408e-05
3.37795e-05
3.35858e-05
3.26814e-05
3.08474e-05
2.78645e-05
2.36286e-05
1.82723e-05
1.21457e-05
6.48588e-06
0
0
0
3.10139e-07
2.91382e-05
0
1.50309e-06
2.80536e-06
3.56308e-06
4.16667e-06
4.73936e-06
5.29639e-06
5.7973e-06
6.20173e-06
6.48027e-06
6.614e-06
6.60218e-06
6.46756e-06
6.25187e-06
6.00081e-06
5.74141e-06
5.46305e-06
5.11829e-06
4.64094e-06
3.96844e-06
3.05957e-06
1.88457e-06
4.36067e-07
0
0
0
0
0
0
0
0
0
0
0
0
0
0
0
0
3.23604e-06
9.54304e-06
1.62261e-05
2.15975e-05
2.49933e-05
2.66772e-05
2.71785e-05
2.68697e-05
2.5963e-05
2.46005e-05
2.28772e-05
2.08414e-05
1.85039e-05
1.58517e-05
1.28621e-05
9.51026e-06
5.77654e-06
1.66846e-06
0
0
0
0
0
0
0
0
0
0
0
0
0
4.27898e-06
1.24008e-05
1.89507e-05
2.01048e-05
1.91426e-05
1.8964e-05
2.01054e-05
2.22915e-05
2.50412e-05
2.78264e-05
3.01876e-05
3.1879e-05
3.2952e-05
3.36397e-05
3.41352e-05
3.4454e-05
3.44565e-05
3.3926e-05
3.26047e-05
3.02129e-05
2.6512e-05
2.14353e-05
1.52728e-05
8.76559e-06
3.58268e-06
0
0
0
1.72877e-06
1.40211e-05
0
9.1203e-07
2.2577e-06
2.96668e-06
3.49819e-06
3.99424e-06
4.47383e-06
4.90079e-06
5.24057e-06
5.47091e-06
5.58001e-06
5.57255e-06
5.47316e-06
5.31983e-06
5.14634e-06
4.96025e-06
4.73162e-06
4.40353e-06
3.91265e-06
3.21177e-06
2.27112e-06
1.07338e-06
0
0
0
0
0
0
0
0
0
0
0
0
0
0
0
0
0
4.81075e-06
1.05299e-05
1.59937e-05
2.04174e-05
2.34959e-05
2.53251e-05
2.61347e-05
2.61341e-05
2.54996e-05
2.43737e-05
2.28522e-05
2.09846e-05
1.87852e-05
1.62463e-05
1.33514e-05
1.0084e-05
6.43175e-06
2.40194e-06
0
0
0
0
0
0
0
0
0
0
0
0
0
2.19212e-06
8.90172e-06
1.53815e-05
1.67277e-05
1.65592e-05
1.75869e-05
1.99029e-05
2.30377e-05
2.64748e-05
2.97159e-05
3.23217e-05
3.40624e-05
3.49992e-05
3.53972e-05
3.55097e-05
3.54082e-05
3.49661e-05
3.39357e-05
3.20156e-05
2.88991e-05
2.43443e-05
1.8315e-05
1.11848e-05
3.65853e-06
0
0
0
0
3.34205e-06
0
0
2.01918e-07
1.58611e-06
2.25305e-06
2.72349e-06
3.15711e-06
3.5768e-06
3.95063e-06
4.24862e-06
4.4534e-06
4.55814e-06
4.57159e-06
4.51944e-06
4.43392e-06
4.33393e-06
4.20726e-06
4.01052e-06
3.68564e-06
3.17937e-06
2.45945e-06
1.50519e-06
3.11369e-07
0
0
0
0
0
0
0
0
0
0
0
0
0
0
0
0
2.7286e-07
5.08922e-06
1.01303e-05
1.48869e-05
1.89039e-05
2.1919e-05
2.3895e-05
2.49321e-05
2.51805e-05
2.47932e-05
2.3898e-05
2.2582e-05
2.08928e-05
1.88478e-05
1.64445e-05
1.36726e-05
1.05233e-05
6.99275e-06
3.09104e-06
0
0
0
0
0
0
0
0
0
0
0
0
0
0
3.69811e-06
1.07734e-05
1.31702e-05
1.41704e-05
1.63618e-05
1.95891e-05
2.33515e-05
2.71967e-05
3.06958e-05
3.34673e-05
3.52894e-05
3.61966e-05
3.64306e-05
3.62478e-05
3.57414e-05
3.47996e-05
3.31712e-05
3.05472e-05
2.6621e-05
2.11611e-05
1.41797e-05
5.97624e-06
0
0
0
0
9.20747e-07
3.99827e-06
0
0
0
8.13878e-07
1.44699e-06
1.86892e-06
2.25549e-06
2.63307e-06
2.97321e-06
3.2491e-06
3.44694e-06
3.56411e-06
3.61268e-06
3.61711e-06
3.59992e-06
3.56283e-06
3.47779e-06
3.29643e-06
2.96696e-06
2.45108e-06
1.72754e-06
7.83624e-07
0
0
0
0
0
0
0
0
0
0
0
0
0
0
0
0
0
3.71855e-08
4.56822e-06
9.20327e-06
1.35941e-05
1.73885e-05
2.0345e-05
2.23902e-05
2.35792e-05
2.40255e-05
2.38522e-05
2.31651e-05
2.20408e-05
2.05256e-05
1.86402e-05
1.63878e-05
1.37643e-05
1.07686e-05
7.4057e-06
3.69008e-06
0
0
0
0
0
0
0
0
0
0
0
0
0
0
0
5.98709e-06
9.24374e-06
1.1597e-05
1.47996e-05
1.86339e-05
2.26943e-05
2.66657e-05
3.02437e-05
3.31136e-05
3.50419e-05
3.60043e-05
3.61796e-05
3.57872e-05
3.49171e-05
3.34735e-05
3.12253e-05
2.78854e-05
2.31675e-05
1.68829e-05
9.0804e-06
0
0
0
0
0
3.31009e-06
4.98054e-06
0
0
0
0
5.88639e-07
9.69642e-07
1.31968e-06
1.66723e-06
1.98655e-06
2.25368e-06
2.45845e-06
2.60198e-06
2.69734e-06
2.76321e-06
2.8086e-06
2.81972e-06
2.76094e-06
2.58719e-06
2.25735e-06
1.7466e-06
1.03986e-06
1.31794e-07
0
0
0
0
0
0
0
0
0
0
0
0
0
0
0
0
0
0
3.99532e-06
8.29225e-06
1.23644e-05
1.5924e-05
1.8766e-05
2.08135e-05
2.20928e-05
2.26815e-05
2.26717e-05
2.21488e-05
2.11819e-05
1.98191e-05
1.80866e-05
1.59935e-05
1.35414e-05
1.07368e-05
7.59371e-06
4.13274e-06
3.77659e-07
0
0
0
0
0
0
0
0
0
0
0
0
0
0
2.46913e-06
5.02567e-06
8.69657e-06
1.25992e-05
1.66616e-05
2.06729e-05
2.45142e-05
2.80266e-05
3.09413e-05
3.29804e-05
3.40352e-05
3.42024e-05
3.36477e-05
3.2449e-05
3.05327e-05
2.77084e-05
2.37344e-05
1.83767e-05
1.15489e-05
3.36693e-06
0
0
0
0
0
1.03786e-05
6.22296e-06
0
0
0
0
0
3.40393e-08
3.64728e-07
6.99748e-07
1.01577e-06
1.29153e-06
1.51978e-06
1.70326e-06
1.852e-06
1.97513e-06
2.06879e-06
2.11083e-06
2.0668e-06
1.89972e-06
1.58039e-06
1.09253e-06
4.25072e-07
0
0
0
0
0
0
0
0
0
0
0
0
0
0
0
0
0
0
0
3.5207e-06
7.45373e-06
1.11901e-05
1.44903e-05
1.71787e-05
1.91757e-05
2.04816e-05
2.11418e-05
2.12224e-05
2.07962e-05
1.99323e-05
1.8686e-05
1.70914e-05
1.51627e-05
1.29056e-05
1.03326e-05
7.468e-06
4.33996e-06
9.68061e-07
0
0
0
0
0
0
0
0
0
0
0
0
0
0
0
1.30355e-06
5.41393e-06
9.30951e-06
1.31927e-05
1.69574e-05
2.06211e-05
2.40997e-05
2.70972e-05
2.92489e-05
3.03601e-05
3.04656e-05
2.97006e-05
2.81513e-05
2.57897e-05
2.24945e-05
1.81048e-05
1.25081e-05
5.8003e-06
0
0
0
0
0
3.56326e-06
0
0
0
1.53268e-06
0
0
0
0
0
0
9.50674e-08
3.85966e-07
6.42141e-07
8.64803e-07
1.05852e-06
1.22391e-06
1.35009e-06
1.41417e-06
1.38681e-06
1.23878e-06
9.50047e-07
5.07726e-07
0
0
0
0
0
0
0
0
0
0
0
0
0
0
0
0
0
0
0
0
3.11768e-06
6.67891e-06
1.00751e-05
1.31001e-05
1.55979e-05
1.74837e-05
1.87347e-05
1.93709e-05
1.94444e-05
1.90285e-05
1.82032e-05
1.7036e-05
1.55689e-05
1.38181e-05
1.17894e-05
9.49944e-06
6.98185e-06
4.27285e-06
1.38421e-06
0
0
0
0
0
0
0
0
0
0
0
0
0
0
0
0
1.09775e-06
4.48469e-06
7.85195e-06
1.1233e-05
1.48358e-05
1.86113e-05
2.20812e-05
2.45999e-05
2.58149e-05
2.57649e-05
2.46579e-05
2.26737e-05
1.9894e-05
1.63164e-05
1.19093e-05
6.70705e-06
9.51406e-07
0
0
0
0
0
0
0
0
0
0
0
0
0
0
0
0
0
0
0
1.21322e-07
3.45772e-07
5.39018e-07
6.88478e-07
7.74109e-07
7.71514e-07
6.57625e-07
4.1744e-07
3.92014e-08
0
0
0
0
0
0
0
0
0
0
0
0
0
0
0
0
0
0
0
0
2.72839e-06
5.93462e-06
8.99716e-06
1.17338e-05
1.39993e-05
1.56997e-05
1.67938e-05
1.72922e-05
1.72527e-05
1.6766e-05
1.59316e-05
1.48303e-05
1.35081e-05
1.19781e-05
1.02403e-05
8.31056e-06
6.22692e-06
4.02731e-06
1.7042e-06
0
0
0
0
0
0
0
0
0
0
0
0
0
0
0
0
0
1.14898e-06
3.3378e-06
5.65629e-06
8.47814e-06
1.19786e-05
1.58853e-05
1.93297e-05
2.12843e-05
2.13771e-05
1.99446e-05
1.74758e-05
1.43129e-05
1.06406e-05
6.55427e-06
2.14552e-06
0
0
0
0
0
9.28874e-07
8.22241e-07
0
0
0
1.14796e-06
0
0
0
0
0
0
0
0
0
0
0
0
3.6607e-08
1.57388e-07
1.99772e-07
1.44561e-07
0
0
0
0
0
0
0
0
0
0
0
0
0
0
0
0
0
0
0
0
0
0
2.43775e-06
5.28572e-06
8.00086e-06
1.04112e-05
1.23696e-05
1.37744e-05
1.45856e-05
1.48314e-05
1.45975e-05
1.40021e-05
1.31623e-05
1.21649e-05
1.10517e-05
9.82516e-06
8.4713e-06
6.99512e-06
5.42602e-06
3.79956e-06
2.08619e-06
1.92325e-07
0
0
0
0
0
0
0
0
0
0
0
0
0
0
0
0
1.37905e-07
2.74214e-06
4.70536e-06
5.93557e-06
7.43843e-06
9.97034e-06
1.32427e-05
1.62456e-05
1.75924e-05
1.65908e-05
1.38372e-05
1.02666e-05
6.45885e-06
2.64203e-06
0
0
0
0
0
0
0
0
0
0
0
1.15279e-06
0
0
0
0
0
0
0
0
0
0
0
0
0
0