/*--------------------------------*- C++ -*----------------------------------*\
  =========                 |
  \\      /  F ield         | OpenFOAM: The Open Source CFD Toolbox
   \\    /   O peration     | Website:  https://openfoam.org
    \\  /    A nd           | Version:  10
     \\/     M anipulation  |
\*---------------------------------------------------------------------------*/
FoamFile
{
    format      ascii;
    class       volScalarField;
    location    "0.155";
    object      p;
}
// * * * * * * * * * * * * * * * * * * * * * * * * * * * * * * * * * * * * * //

dimensions      [0 2 -2 0 0 0 0];

internalField   nonuniform List<scalar> 
6820
(
-8.79945
-9.10569
-9.16309
-9.19534
-9.24833
-9.29894
-9.34757
-9.39884
-9.4534
-9.51149
-9.57382
-9.64106
-9.71379
-9.79264
-9.87829
-9.97146
-10.0729
-10.1836
-10.3043
-10.4362
-10.5805
-10.7385
-10.9115
-11.1012
-11.3095
-11.5383
-11.7903
-12.0693
-12.3854
-12.7465
-13.171
-13.6586
-14.3122
-8.99865
-9.12764
-9.17523
-9.20715
-9.2542
-9.30161
-9.34856
-9.3986
-9.4523
-9.50975
-9.57155
-9.63828
-9.7105
-9.78878
-9.87378
-9.96619
-10.0667
-10.1763
-10.2957
-10.426
-10.5683
-10.7238
-10.894
-11.0803
-11.2841
-11.507
-11.7526
-12.0266
-12.3341
-12.6804
-13.0742
-13.5223
-14.015
-8.99763
-9.08722
-9.1567
-9.19953
-9.24846
-9.29819
-9.34703
-9.39809
-9.45232
-9.51001
-9.57178
-9.63827
-9.71004
-9.78765
-9.87176
-9.96302
-10.0621
-10.1698
-10.287
-10.4146
-10.5535
-10.7049
-10.8699
-11.0502
-11.2473
-11.4642
-11.7028
-11.9652
-12.2547
-12.5754
-12.9304
-13.3191
-13.7216
-9.05251
-9.12623
-9.18485
-9.22099
-9.26314
-9.30858
-9.35448
-9.40308
-9.45531
-9.51135
-9.57168
-9.63684
-9.70734
-9.78366
-9.86645
-9.95628
-10.0538
-10.1597
-10.2748
-10.3999
-10.5361
-10.6843
-10.8456
-11.0213
-11.213
-11.4222
-11.6502
-11.8992
-12.1719
-12.4703
-12.7936
-13.1403
-13.4883
-9.07973
-9.1224
-9.17215
-9.21095
-9.25404
-9.30037
-9.34742
-9.39682
-9.44953
-9.50581
-9.56612
-9.63104
-9.70102
-9.77656
-9.85833
-9.94685
-10.0427
-10.1466
-10.2592
-10.3812
-10.5136
-10.6572
-10.8129
-10.9819
-11.1654
-11.3647
-11.581
-11.8158
-12.0701
-12.3443
-12.636
-12.9424
-13.2474
-9.10619
-9.14074
-9.18853
-9.2273
-9.26737
-9.31064
-9.35535
-9.40256
-9.45321
-9.50757
-9.56605
-9.62916
-9.69731
-9.77091
-9.85062
-9.93684
-10.0301
-10.1311
-10.2404
-10.3587
-10.4868
-10.6254
-10.7753
-10.9373
-11.1125
-11.3017
-11.5057
-11.7251
-11.9601
-12.2103
-12.4732
-12.7457
-13.0166
-9.12693
-9.15051
-9.18924
-9.22445
-9.262
-9.30372
-9.34777
-9.39453
-9.44471
-9.49855
-9.55635
-9.61865
-9.68569
-9.75796
-9.8362
-9.92055
-10.0115
-10.1097
-10.2157
-10.3301
-10.4534
-10.5863
-10.7295
-10.8836
-11.0492
-11.2269
-11.4171
-11.62
-11.8353
-12.062
-12.2974
-12.5386
-12.7784
-9.14407
-9.16224
-9.19717
-9.23211
-9.26884
-9.30916
-9.35186
-9.39715
-9.44572
-9.49786
-9.55389
-9.61432
-9.67926
-9.74899
-9.82453
-9.9059
-9.99366
-10.0882
-10.19
-10.2995
-10.4172
-10.5437
-10.6794
-10.8247
-10.9801
-11.1457
-11.3217
-11.5079
-11.7035
-11.9072
-12.1167
-12.3294
-12.5403
-9.15809
-9.17205
-9.20171
-9.23339
-9.26719
-9.30489
-9.34564
-9.38932
-9.43639
-9.48703
-9.54142
-9.60037
-9.66353
-9.73178
-9.80481
-9.88343
-9.96804
-10.0589
-10.1564
-10.2609
-10.3729
-10.4926
-10.6204
-10.7565
-10.9011
-11.0541
-11.2155
-11.3846
-11.5605
-11.7419
-11.9266
-12.1123
-12.2956
-9.16942
-9.18062
-9.20665
-9.23657
-9.26914
-9.30558
-9.34514
-9.3876
-9.43331
-9.48237
-9.5351
-9.59149
-9.65241
-9.71782
-9.78787
-9.86311
-9.94384
-10.0303
-10.1228
-10.2215
-10.3269
-10.4391
-10.5582
-10.6843
-10.8174
-10.9573
-11.1036
-11.2555
-11.412
-11.5716
-11.7325
-11.8926
-12.0492
-9.17839
-9.18762
-9.21033
-9.23775
-9.268
-9.30202
-9.33933
-9.37961
-9.42326
-9.47024
-9.52086
-9.57511
-9.63348
-9.6961
-9.76314
-9.83491
-9.91166
-9.99358
-10.0809
-10.1738
-10.2724
-10.3768
-10.487
-10.6029
-10.7244
-10.851
-10.9822
-11.1172
-11.2547
-11.3934
-11.5315
-11.6672
-11.7983
-9.18522
-9.19302
-9.21305
-9.23836
-9.2669
-9.29927
-9.33505
-9.37389
-9.41571
-9.46089
-9.50941
-9.56133
-9.61701
-9.6766
-9.74021
-9.80806
-9.88037
-9.95726
-10.0389
-10.1252
-10.2165
-10.3125
-10.4133
-10.5185
-10.6279
-10.741
-10.857
-10.975
-11.0938
-11.2122
-11.3283
-11.4406
-11.5471
-9.19007
-9.19679
-9.21454
-9.23773
-9.26427
-9.29453
-9.32813
-9.36471
-9.40429
-9.44703
-9.49294
-9.54211
-9.59472
-9.65093
-9.7108
-9.77448
-9.8421
-9.91371
-9.98937
-10.0691
-10.1527
-10.2403
-10.3315
-10.426
-10.5233
-10.6229
-10.724
-10.8256
-10.9265
-11.0254
-11.1207
-11.211
-11.2943
-9.19304
-9.19893
-9.21475
-9.23598
-9.26072
-9.28905
-9.32073
-9.3554
-9.39294
-9.43344
-9.4769
-9.52334
-9.57289
-9.62563
-9.68162
-9.74093
-9.8036
-9.86965
-9.93904
-10.0117
-10.0875
-10.1662
-10.2475
-10.331
-10.4162
-10.5023
-10.5886
-10.674
-10.7575
-10.8377
-10.9131
-10.9825
-11.0439
-9.19423
-9.19943
-9.21358
-9.23296
-9.25581
-9.28214
-9.31168
-9.34406
-9.37917
-9.41701
-9.45757
-9.50086
-9.54693
-9.59583
-9.64756
-9.70214
-9.75956
-9.81975
-9.88263
-9.94805
-10.0158
-10.0855
-10.1569
-10.2295
-10.3026
-10.3756
-10.4476
-10.5176
-10.5845
-10.647
-10.7039
-10.7538
-10.795
-9.19368
-9.19832
-9.211
-9.22862
-9.24965
-9.27401
-9.30145
-9.33161
-9.36434
-9.39958
-9.43731
-9.47747
-9.52006
-9.56508
-9.6125
-9.66226
-9.71431
-9.76852
-9.82474
-9.88277
-9.94232
-10.003
-10.0645
-10.1262
-10.1874
-10.2475
-10.3055
-10.3606
-10.4116
-10.4575
-10.4969
-10.5287
-10.5512
-9.19146
-9.19559
-9.20695
-9.22292
-9.24214
-9.26452
-9.28976
-9.31754
-9.34768
-9.38008
-9.41468
-9.4514
-9.4902
-9.53103
-9.57382
-9.61848
-9.66488
-9.71286
-9.76223
-9.81271
-9.86398
-9.91565
-9.96724
-10.0182
-10.0678
-10.1155
-10.1602
-10.2011
-10.2373
-10.2676
-10.2908
-10.3061
-10.3118
-9.1876
-9.19129
-9.20144
-9.21583
-9.23328
-9.25366
-9.2767
-9.30207
-9.32959
-9.35912
-9.39056
-9.42381
-9.45878
-9.49539
-9.53351
-9.57301
-9.61373
-9.65546
-9.69796
-9.74091
-9.78395
-9.82667
-9.86855
-9.90902
-9.94743
-9.98306
-10.0151
-10.0427
-10.0648
-10.0807
-10.0891
-10.0892
-10.0796
-9.18214
-9.18542
-9.19446
-9.20733
-9.22303
-9.24141
-9.26221
-9.2851
-9.30988
-9.3364
-9.36452
-9.39411
-9.42506
-9.45724
-9.49049
-9.52466
-9.55953
-9.59488
-9.6304
-9.66579
-9.70063
-9.7345
-9.76687
-9.79718
-9.82478
-9.84898
-9.86902
-9.88408
-9.89331
-9.89586
-9.89077
-9.87731
-9.8542
-9.17514
-9.17803
-9.18601
-9.19743
-9.2114
-9.22779
-9.24632
-9.2667
-9.28869
-9.31214
-9.33689
-9.36278
-9.38966
-9.41737
-9.44574
-9.47456
-9.5036
-9.5326
-9.56124
-9.58918
-9.616
-9.64126
-9.66445
-9.685
-9.7023
-9.7157
-9.72448
-9.72791
-9.72521
-9.71565
-9.69837
-9.67276
-9.6377
-9.16662
-9.16915
-9.17613
-9.18614
-9.19841
-9.2128
-9.22906
-9.24688
-9.26604
-9.28635
-9.30764
-9.32973
-9.35245
-9.37561
-9.399
-9.42241
-9.44558
-9.46823
-9.49002
-9.51061
-9.52957
-9.54646
-9.56078
-9.572
-9.57954
-9.58279
-9.5811
-9.57381
-9.56024
-9.53974
-9.51159
-9.4753
-9.42988
-9.15666
-9.15884
-9.16486
-9.1735
-9.18409
-9.1965
-9.21047
-9.22571
-9.24201
-9.25915
-9.27695
-9.29521
-9.31374
-9.33233
-9.35077
-9.36881
-9.38617
-9.40258
-9.41768
-9.43112
-9.44249
-9.45136
-9.45725
-9.45965
-9.45804
-9.45184
-9.4405
-9.42343
-9.40002
-9.36974
-9.33198
-9.28634
-9.232
-9.1453
-9.14715
-9.15224
-9.15955
-9.16849
-9.17893
-9.19063
-9.20329
-9.21671
-9.23067
-9.24495
-9.25937
-9.27371
-9.28774
-9.30124
-9.31396
-9.3256
-9.33587
-9.34445
-9.35096
-9.35502
-9.35622
-9.3541
-9.34821
-9.33806
-9.32315
-9.30297
-9.27702
-9.2448
-9.20586
-9.15968
-9.106
-9.0441
-9.13264
-9.13417
-9.13836
-9.14437
-9.15169
-9.16018
-9.16961
-9.17971
-9.19024
-9.20101
-9.21178
-9.22236
-9.23252
-9.24203
-9.25065
-9.25812
-9.26417
-9.26849
-9.27075
-9.27062
-9.26772
-9.26166
-9.25203
-9.23842
-9.22039
-9.1975
-9.16932
-9.13542
-9.09539
-9.04886
-8.99542
-8.93489
-8.8667
-9.11876
-9.11997
-9.12331
-9.12805
-9.13379
-9.14037
-9.14757
-9.15513
-9.16283
-9.17045
-9.17776
-9.18457
-9.19062
-9.19571
-9.19957
-9.20196
-9.20259
-9.20117
-9.1974
-9.19094
-9.18145
-9.16857
-9.15195
-9.13119
-9.10593
-9.07579
-9.04041
-8.99943
-8.95253
-8.89941
-8.83977
-8.7735
-8.70014
-9.10375
-9.10467
-9.10717
-9.11069
-9.11489
-9.11959
-9.12458
-9.12963
-9.1345
-9.13899
-9.14287
-9.14593
-9.14794
-9.14867
-9.14788
-9.14531
-9.14071
-9.13378
-9.12425
-9.1118
-9.09612
-9.07689
-9.0538
-9.0265
-8.99468
-8.95803
-8.91625
-8.86907
-8.81621
-8.75748
-8.69264
-8.62166
-8.54417
-9.08775
-9.08837
-9.09008
-9.09244
-9.09516
-9.09806
-9.10094
-9.10358
-9.10575
-9.10723
-9.10782
-9.10729
-9.10543
-9.102
-9.09677
-9.0895
-9.07993
-9.0678
-9.05285
-9.03479
-9.01336
-8.98827
-8.95923
-8.92598
-8.88825
-8.84578
-8.79834
-8.74572
-8.68773
-8.62423
-8.55506
-8.48025
-8.39951
-9.07086
-9.07122
-9.07216
-9.07339
-9.07466
-9.07578
-9.07657
-9.0768
-9.07627
-9.07477
-9.07209
-9.06802
-9.06235
-9.05486
-9.04533
-9.03352
-9.01922
-9.00217
-8.98213
-8.95886
-8.93212
-8.90166
-8.86724
-8.82865
-8.78566
-8.73809
-8.68575
-8.6285
-8.5662
-8.49878
-8.42615
-8.34837
-8.26524
-9.05326
-9.05337
-9.05362
-9.05383
-9.05379
-9.05332
-9.05222
-9.05027
-9.04728
-9.04304
-9.03734
-9.03
-9.0208
-9.00953
-8.996
-8.97998
-8.96126
-8.93964
-8.9149
-8.88682
-8.8552
-8.81984
-8.78055
-8.73714
-8.68947
-8.63738
-8.58076
-8.51951
-8.45355
-8.38287
-8.30742
-8.22731
-8.1424
-9.03507
-9.03493
-9.0345
-9.03368
-9.0323
-9.03016
-9.02709
-9.02289
-9.01738
-9.01037
-9.00167
-8.99109
-8.97845
-8.96354
-8.94619
-8.92619
-8.90337
-8.87752
-8.84847
-8.81603
-8.78004
-8.74033
-8.69676
-8.64918
-8.5975
-8.5416
-8.48142
-8.41691
-8.34805
-8.27486
-8.19733
-8.11562
-8.02963
-9.0165
-9.0162
-9.01529
-9.01373
-9.01137
-9.00798
-9.00337
-8.99735
-8.98974
-8.98035
-8.96902
-8.95557
-8.93981
-8.9216
-8.90074
-8.87708
-8.85046
-8.82071
-8.78768
-8.75123
-8.71122
-8.66753
-8.62006
-8.56872
-8.51343
-8.45414
-8.39083
-8.3235
-8.25215
-8.17685
-8.09765
-8.01471
-7.92798
-8.99762
-8.99706
-8.9955
-8.99296
-8.98931
-8.98436
-8.97793
-8.96988
-8.96002
-8.94819
-8.93424
-8.918
-8.89931
-8.87802
-8.85397
-8.82702
-8.79703
-8.76386
-8.72739
-8.68751
-8.6441
-8.5971
-8.54642
-8.49202
-8.43386
-8.37193
-8.30623
-8.23681
-8.16371
-8.08702
-8.00681
-7.92329
-7.83641
-8.97882
-8.97838
-8.97686
-8.97418
-8.97012
-8.96444
-8.95696
-8.94751
-8.93596
-8.92216
-8.90597
-8.88726
-8.8659
-8.84176
-8.81471
-8.78465
-8.75145
-8.71502
-8.67526
-8.6321
-8.58546
-8.5353
-8.48157
-8.42428
-8.36341
-8.29898
-8.23106
-8.15969
-8.08496
-8.00698
-7.92587
-7.84183
-7.75487
-8.95969
-8.95869
-8.95633
-8.95254
-8.94721
-8.94014
-8.93114
-8.92005
-8.90673
-8.89104
-8.87284
-8.85201
-8.82843
-8.80197
-8.77254
-8.74002
-8.70434
-8.66541
-8.62316
-8.57754
-8.52851
-8.47605
-8.42015
-8.36083
-8.29813
-8.23208
-8.16277
-8.09027
-8.01471
-7.9362
-7.85487
-7.77094
-7.68442
-8.94162
-8.94192
-8.94101
-8.93812
-8.93307
-8.92577
-8.91609
-8.9039
-8.88914
-8.87172
-8.85155
-8.82854
-8.80262
-8.7737
-8.7417
-8.70655
-8.66819
-8.62657
-8.58164
-8.53338
-8.48178
-8.42684
-8.36859
-8.30707
-8.24233
-8.17445
-8.10353
-8.02969
-7.95303
-7.87373
-7.79193
-7.70785
-7.62154
-8.92123
-8.91954
-8.91727
-8.91345
-8.90764
-8.89967
-8.88929
-8.87633
-8.86072
-8.84234
-8.82112
-8.79696
-8.7698
-8.73955
-8.70616
-8.66957
-8.62973
-8.58663
-8.54023
-8.49053
-8.43755
-8.38132
-8.32189
-8.25931
-8.19367
-8.12506
-8.0536
-7.97942
-7.90265
-7.82346
-7.74198
-7.65844
-7.57288
-8.90692
-8.91064
-8.91201
-8.90931
-8.90366
-8.89533
-8.88401
-8.8697
-8.85247
-8.83229
-8.8091
-8.78287
-8.75356
-8.72111
-8.68549
-8.64667
-8.60461
-8.55931
-8.51075
-8.45896
-8.40396
-8.34581
-8.28455
-8.22026
-8.15306
-8.08304
-8.01035
-7.93511
-7.8575
-7.77768
-7.69583
-7.6122
-7.52685
-8.87511
-8.8755
-8.87873
-8.87786
-8.8737
-8.86681
-8.85666
-8.84324
-8.82666
-8.80692
-8.78397
-8.75783
-8.72846
-8.69584
-8.65995
-8.62078
-8.57833
-8.5326
-8.48362
-8.43141
-8.37603
-8.31755
-8.25604
-8.1916
-8.12435
-8.0544
-7.98191
-7.90701
-7.82986
-7.75063
-7.66948
-7.58663
-7.50213
-8.8833
-8.89074
-8.89377
-8.89039
-8.88447
-8.87545
-8.86289
-8.84718
-8.82844
-8.80658
-8.7816
-8.75348
-8.72221
-8.68774
-8.65007
-8.60917
-8.56504
-8.51768
-8.46712
-8.41338
-8.35651
-8.29659
-8.23369
-8.16792
-8.09939
-8.02824
-7.95462
-7.87869
-7.80062
-7.72063
-7.63889
-7.55569
-7.47116
-8.77049
-8.83509
-8.852
-8.85261
-8.85332
-8.84934
-8.83994
-8.82666
-8.80987
-8.78955
-8.76579
-8.73867
-8.70822
-8.67444
-8.63736
-8.59698
-8.55332
-8.50643
-8.45634
-8.40312
-8.34682
-8.28753
-8.22535
-8.16039
-8.0928
-8.02272
-7.95028
-7.87565
-7.79895
-7.72036
-7.64
-7.55811
-7.47464
-15.0412
-14.7484
-14.6777
-15.4355
-17.3275
-20.0831
-22.9949
-25.1457
-26.0001
-25.2394
-23.0957
-20.071
-16.6646
-13.3235
-10.3998
-8.07191
-6.34084
-5.13064
-4.36797
-4.00485
-4.02598
-4.44729
-5.3052
-6.60876
-8.28316
-10.2231
-12.3311
-14.5791
-17.1237
-20.4083
-25.2064
-32.3818
-41.8504
-51.5293
-59.5766
-65.3285
-69.7032
-74.4027
-77.2553
-74.2483
-64.8076
-52.4898
-40.8758
-31.5733
-24.5912
-19.3507
-15.3131
-12.1232
-9.56714
-7.50928
-5.85264
-4.52266
-3.46099
-2.6223
-1.97357
-1.49182
-1.16909
-1.01325
-1.0547
-1.37093
-2.01115
-3.79597
-8.39457
-16.3187
-26.2064
-35.3301
-40.9256
-41.4142
-36.5348
-27.5809
-18.187
-11.4339
-7.50276
-5.21724
-3.74597
-2.74219
-2.04908
-1.56695
-1.22679
-0.981788
-0.800774
-0.662982
-0.554548
-0.466267
-0.392215
-0.328868
-0.274371
-0.22817
-0.190114
-0.159902
-0.136892
-0.12023
-0.107274
-0.0960795
-0.082349
-0.0683235
-0.0496803
-0.0387197
-0.0200066
-0.0169257
-14.6343
-14.6481
-14.748
-15.4947
-17.0299
-19.1115
-21.2468
-22.7981
-23.3629
-22.7077
-20.9311
-18.365
-15.4161
-12.4787
-9.8613
-7.72593
-6.09473
-4.9231
-4.15985
-3.76851
-3.73894
-4.0892
-4.85894
-6.07212
-7.67903
-9.57528
-11.6696
-13.9236
-16.4801
-19.8006
-24.6839
-31.9866
-41.4819
-51.1502
-59.2615
-65.215
-69.995
-75.2002
-78.4477
-75.6772
-66.0466
-53.2716
-41.2281
-31.6728
-24.5962
-19.3408
-15.3174
-12.1486
-9.61296
-7.57248
-5.92978
-4.61062
-3.55748
-2.72612
-2.08472
-1.61173
-1.30054
-1.15989
-1.21949
-1.55932
-2.23137
-3.81179
-7.71524
-14.5206
-23.2226
-31.429
-36.5662
-37.089
-32.7903
-24.9787
-16.8849
-11.0283
-7.49613
-5.33504
-3.88943
-2.882
-2.17578
-1.67714
-1.31979
-1.0584
-0.862503
-0.711619
-0.591927
-0.494176
-0.412357
-0.34284
-0.283623
-0.233922
-0.19331
-0.161252
-0.136884
-0.119189
-0.105501
-0.093941
-0.0803082
-0.0668002
-0.0487851
-0.0382021
-0.0195049
-0.0162557
-14.1976
-14.395
-14.6428
-15.3354
-16.5644
-18.1686
-19.7927
-20.9586
-21.3178
-20.6795
-19.1067
-16.8656
-14.2886
-11.6971
-9.34691
-7.38386
-5.84502
-4.70913
-3.94283
-3.51955
-3.43306
-3.7029
-4.37016
-5.47083
-6.98184
-8.80522
-10.8582
-13.0966
-15.6568
-19.0209
-24.0023
-31.4212
-40.9298
-50.5771
-58.7464
-64.8964
-70.0608
-75.6917
-79.266
-76.7302
-66.9918
-53.8563
-41.4544
-31.6915
-24.5476
-19.2942
-15.2959
-12.156
-9.64648
-7.6279
-6.00275
-4.69738
-3.65525
-2.83336
-2.20117
-1.7385
-1.43991
-1.31519
-1.39279
-1.75067
-2.44871
-3.88493
-7.19927
-12.9654
-20.4656
-27.6947
-32.3184
-32.874
-29.1992
-22.558
-15.714
-10.68
-7.50375
-5.45381
-4.03295
-3.02358
-2.30539
-1.79054
-1.41582
-1.13761
-0.926309
-0.76179
-0.630349
-0.522731
-0.432862
-0.357001
-0.29298
-0.239761
-0.196633
-0.162806
-0.137155
-0.118465
-0.104027
-0.0920267
-0.0783989
-0.065329
-0.0479484
-0.0378389
-0.0193486
-0.0162031
-13.8959
-14.193
-14.5133
-15.1349
-16.1297
-17.367
-18.5706
-19.3834
-19.5359
-18.8908
-17.4896
-15.5285
-13.2695
-10.9743
-8.85709
-7.04844
-5.59463
-4.49171
-3.72048
-3.26265
-3.11464
-3.2963
-3.84807
-4.81515
-6.20172
-7.92056
-9.90102
-12.0995
-14.6543
-18.0661
-23.1472
-30.6612
-40.164
-49.7823
-58.0032
-64.3396
-69.8477
-75.8121
-79.6359
-77.325
-67.5828
-54.1952
-41.5233
-31.6135
-24.4373
-19.2065
-15.2462
-12.1437
-9.66669
-7.67484
-6.07104
-4.78253
-3.75395
-2.94369
-2.32252
-1.87168
-1.58663
-1.47826
-1.57352
-1.94691
-2.6662
-4.00726
-6.83432
-11.6678
-18.0065
-24.2397
-28.3224
-28.916
-25.8893
-20.3904
-14.6973
-10.3876
-7.5201
-5.57019
-4.17541
-3.16661
-2.43773
-1.90699
-1.51472
-1.21928
-0.992049
-0.813354
-0.669675
-0.551784
-0.453552
-0.371108
-0.302102
-0.245228
-0.19948
-0.163812
-0.136857
-0.117222
-0.102136
-0.0898685
-0.076383
-0.0637878
-0.0470115
-0.037245
-0.0189083
-0.0155879
-13.6011
-13.9243
-14.2691
-14.8168
-15.6123
-16.5509
-17.4253
-17.9729
-17.9821
-17.343
-16.0822
-14.35
-12.3553
-10.3107
-8.39443
-6.72295
-5.34702
-4.27455
-3.49701
-3.00292
-2.79037
-2.87837
-3.30482
-4.12108
-5.35532
-6.93794
-8.81216
-10.9439
-13.4814
-16.9404
-22.1207
-29.7118
-39.1889
-48.7652
-57.0214
-63.5244
-69.3141
-75.5052
-79.4907
-77.3859
-67.7414
-54.2361
-41.4047
-31.4251
-24.2594
-19.0751
-15.1669
-12.1112
-9.67341
-7.71333
-6.13477
-4.86622
-3.85377
-3.05728
-2.44893
-2.01131
-1.74062
-1.64867
-1.76122
-2.14697
-2.87884
-4.15811
-6.60193
-10.6398
-15.9176
-21.1826
-24.7199
-25.3505
-22.9581
-18.5181
-13.8386
-10.1462
-7.54281
-5.68394
-4.31694
-3.3111
-2.57273
-2.02645
-1.6165
-1.30341
-1.05969
-0.866265
-0.709847
-0.581282
-0.474395
-0.385182
-0.311083
-0.250512
-0.202156
-0.164699
-0.136515
-0.116014
-0.100348
-0.0878027
-0.0744222
-0.062253
-0.0460812
-0.0367093
-0.0186583
-0.0153514
-13.3297
-13.6535
-13.9971
-14.4693
-15.0965
-15.7967
-16.4115
-16.744
-16.6316
-15.9918
-14.8445
-13.3031
-11.5308
-9.69975
-7.9585
-6.40976
-5.1054
-4.06123
-3.2767
-2.74583
-2.46767
-2.45923
-2.75444
-3.40787
-4.46643
-5.88468
-7.62178
-9.66305
-12.1737
-15.6794
-20.9538
-28.5962
-38.0166
-47.5265
-55.7903
-62.4302
-68.4395
-74.7377
-78.7838
-76.8596
-67.4018
-53.9324
-41.0739
-31.1127
-24.0076
-18.8972
-15.0567
-12.0578
-9.66621
-7.74314
-6.19384
-4.9484
-3.95462
-3.174
-2.58015
-2.15704
-1.90142
-1.82562
-1.95465
-2.3503
-3.08651
-4.32027
-6.47655
-9.87108
-14.2361
-18.6131
-21.627
-22.2867
-20.475
-16.9611
-13.1308
-9.9472
-7.56778
-5.7938
-4.45728
-3.45691
-2.71028
-2.14885
-1.72107
-1.38989
-1.12914
-0.920398
-0.75073
-0.611081
-0.495236
-0.399041
-0.31971
-0.255353
-0.204343
-0.165084
-0.135693
-0.114386
-0.0982405
-0.085541
-0.0723704
-0.0606606
-0.0450843
-0.0360259
-0.0182433
-0.0147656
-13.0552
-13.3579
-13.6754
-14.0704
-14.5548
-15.0629
-15.4737
-15.6403
-15.4394
-14.8072
-13.7568
-12.3744
-10.7889
-9.13989
-7.55092
-6.11171
-4.87298
-3.8554
-3.06401
-2.49711
-2.1543
-2.04967
-2.21257
-2.6985
-3.56473
-4.79647
-6.372
-8.30412
-10.7808
-14.3294
-19.6832
-27.3381
-36.6584
-46.0659
-54.3005
-61.0361
-67.21
-73.4982
-77.4889
-75.7124
-66.5239
-53.2461
-40.5089
-30.6648
-23.6771
-18.6705
-14.9147
-11.983
-9.64492
-7.76418
-6.24821
-5.02908
-4.05649
-3.29378
-2.71605
-2.30858
-2.06864
-2.00852
-2.1528
-2.55601
-3.28998
-4.48262
-6.42553
-9.32185
-12.947
-16.5636
-19.107
-19.7822
-18.4605
-15.7045
-12.5526
-9.77964
-7.5919
-5.89965
-4.5966
-3.60405
-2.85035
-2.27415
-1.82841
-1.47869
-1.2003
-0.975654
-0.792212
-0.641067
-0.515972
-0.412613
-0.32795
-0.259774
-0.206132
-0.165129
-0.134618
-0.112608
-0.0960721
-0.083267
-0.070318
-0.0590486
-0.044071
-0.035356
-0.0179327
-0.0144155
-12.7831
-13.0551
-13.336
-13.6583
-14.0228
-14.3765
-14.6268
-14.6635
-14.3934
-13.7679
-12.7973
-11.5476
-10.1203
-8.62755
-7.17175
-5.83074
-4.65254
-3.66047
-2.86328
-2.26245
-1.85804
-1.66064
-1.69523
-2.01653
-2.6832
-3.71508
-5.11333
-6.9231
-9.35858
-12.9398
-18.3451
-25.9627
-35.1306
-44.3896
-52.5516
-59.3346
-65.5924
-71.7703
-75.6044
-73.9333
-65.0872
-52.1552
-39.6941
-30.0739
-23.2647
-18.3938
-14.74
-11.8866
-9.60939
-7.77637
-6.29778
-5.10813
-4.15925
-3.41642
-2.85633
-2.46547
-2.24164
-2.19666
-2.35445
-2.76315
-3.48928
-4.63933
-6.41761
-8.93735
-11.9923
-15.0012
-17.1513
-17.8243
-16.88
-14.705
-12.0757
-9.63225
-7.6128
-6.00157
-4.73506
-3.75252
-2.99292
-2.40235
-1.93849
-1.56973
-1.27308
-1.03189
-0.834131
-0.671071
-0.536433
-0.425723
-0.335624
-0.263589
-0.207317
-0.164607
-0.133042
-0.110415
-0.0936046
-0.0808089
-0.0681743
-0.0573804
-0.0430064
-0.034586
-0.0175216
-0.0138517
-12.5055
-12.7412
-12.9783
-13.2311
-13.4935
-13.7226
-13.8469
-13.7838
-13.4634
-12.849
-11.9481
-10.8115
-9.51884
-8.16057
-6.82154
-5.56881
-4.44678
-3.47973
-2.67869
-2.0474
-1.58641
-1.30277
-1.21813
-1.38342
-1.85511
-2.68458
-3.9002
-5.58098
-7.96707
-11.5621
-16.9778
-24.4986
-33.4561
-42.5118
-50.5522
-57.3285
-63.5718
-69.5461
-73.1486
-71.536
-63.0926
-50.6535
-38.6239
-29.3376
-22.7694
-18.0668
-14.5328
-11.7684
-9.55963
-7.77968
-6.34248
-5.1854
-4.26272
-3.54169
-3.00061
-2.62722
-2.41975
-2.38932
-2.55869
-2.97065
-3.68427
-4.78842
-6.4297
-8.66191
-11.2884
-13.8369
-15.6781
-16.331
-15.6524
-13.9013
-11.669
-9.49568
-7.62973
-6.10021
-4.87295
-3.90242
-3.13807
-2.53351
-2.05131
-1.66296
-1.34736
-1.08897
-0.876323
-0.700922
-0.556455
-0.438229
-0.342623
-0.266727
-0.207877
-0.163549
-0.131045
-0.107932
-0.0909619
-0.0782602
-0.0659873
-0.0556768
-0.0419183
-0.033814
-0.0171716
-0.0134419
-12.2268
-12.424
-12.6154
-12.8045
-12.9813
-13.1101
-13.1359
-12.9966
-12.6396
-12.0374
-11.1964
-10.1556
-8.978
-7.73622
-6.50022
-5.32738
-4.25797
-3.3161
-2.51403
-1.85703
-1.34625
-0.985825
-0.795706
-0.818456
-1.11063
-1.74655
-2.78492
-4.33683
-6.66426
-10.2465
-15.6207
-22.9775
-31.6618
-40.4533
-48.3181
-55.0268
-61.1658
-66.848
-70.1568
-68.5612
-60.5666
-48.7535
-37.3034
-28.459
-22.1929
-17.69
-14.2933
-11.6288
-9.49574
-7.77414
-6.38223
-5.26075
-4.36663
-3.66921
-3.14843
-2.79324
-2.60218
-2.58561
-2.76464
-3.17738
-3.87463
-4.9296
-6.44838
-8.45
-10.7495
-12.9536
-14.5584
-15.1775
-14.6747
-13.2295
-11.3066
-9.36465
-7.64338
-6.19645
-5.01066
-4.05396
-3.28596
-2.66773
-2.16691
-1.75834
-1.42302
-1.14671
-0.918583
-0.730404
-0.575826
-0.44993
-0.34876
-0.269014
-0.207645
-0.161791
-0.128463
-0.104989
-0.0879976
-0.0755148
-0.0636991
-0.0539141
-0.0407856
-0.0329694
-0.0167544
-0.0128977
-11.9448
-12.1035
-12.2497
-12.3812
-12.4856
-12.5337
-12.4826
-12.2858
-11.9038
-11.3163
-10.5284
-9.57073
-8.49256
-7.35241
-6.20784
-5.10775
-4.08815
-3.17218
-2.37265
-1.69581
-1.14348
-0.718216
-0.439022
-0.338731
-0.474609
-0.93592
-1.81161
-3.24066
-5.49952
-9.03607
-14.3101
-21.4321
-29.7776
-38.2409
-45.8722
-52.4474
-58.4011
-63.7179
-66.6833
-65.0718
-57.5587
-46.4862
-35.7505
-27.4476
-21.5394
-17.2656
-14.0225
-11.4683
-9.418
-7.75979
-6.41693
-5.33394
-4.47063
-3.79855
-3.29926
-2.96285
-2.78811
-2.7846
-2.97147
-3.38234
-4.05996
-5.06325
-6.46774
-8.27239
-10.3082
-12.2435
-13.6607
-14.2377
-13.8527
-12.6401
-10.9732
-9.2382
-7.65535
-6.29129
-5.14871
-4.20752
-3.43688
-2.8052
-2.28536
-1.85582
-1.49995
-1.20492
-0.960684
-0.75928
-0.594318
-0.460622
-0.353862
-0.270316
-0.206531
-0.159286
-0.125289
-0.10162
-0.0847598
-0.072615
-0.0613357
-0.0521097
-0.0396342
-0.032128
-0.0163843
-0.0124703
-11.6636
-11.785
-11.8883
-11.9682
-12.0121
-11.9954
-11.8849
-11.6454
-11.2474
-10.6759
-9.9354
-9.04969
-8.05787
-7.00691
-5.94408
-4.91081
-3.93893
-3.05012
-2.2573
-1.56733
-0.982801
-0.506637
-0.155246
0.0439042
0.0355219
-0.277753
-1.01177
-2.3282
-4.50843
-7.96275
-13.0754
-19.894
-27.8356
-35.9065
-43.2446
-49.6179
-55.3131
-60.2101
-62.798
-61.1476
-54.1387
-43.9011
-33.9951
-26.3189
-20.8162
-16.7969
-13.7221
-11.2877
-9.32682
-7.73674
-6.44649
-5.40471
-4.57434
-3.92918
-3.45244
-3.13525
-2.97664
-2.98526
-3.17822
-3.58464
-4.23985
-5.18999
-6.4864
-8.11511
-9.92488
-11.6345
-12.8915
-13.4251
-13.1289
-12.1083
-10.6641
-9.11802
-7.66745
-6.38577
-5.28781
-4.36366
-3.59126
-2.94619
-2.40679
-1.95539
-1.57799
-1.26338
-1.00236
-0.78727
-0.611659
-0.470053
-0.357707
-0.27044
-0.204367
-0.155887
-0.121392
-0.0977072
-0.0811515
-0.0694918
-0.0588568
-0.0502423
-0.0384402
-0.0312265
-0.0159572
-0.0119425
-11.3826
-11.469
-11.5328
-11.5676
-11.561
-11.4926
-11.3366
-11.0661
-10.6593
-10.1052
-9.40765
-8.58549
-7.66961
-6.69772
-5.70862
-4.73727
-3.8116
-2.9516
-2.17005
-1.47421
-0.867627
-0.355145
0.0508719
0.323475
0.410977
0.214484
-0.402021
-1.61801
-3.7099
-7.04537
-11.9387
-18.3907
-25.8684
-33.4863
-40.4712
-46.575
-51.9483
-56.3891
-58.5815
-56.88
-50.3922
-41.0637
-32.0778
-25.0938
-20.033
-16.2882
-13.3944
-11.0883
-9.22273
-7.70512
-6.47075
-5.47272
-4.67725
-4.06049
-3.60722
-3.30959
-3.16683
-3.18658
-3.3839
-3.78351
-4.41408
-5.31043
-6.50487
-7.97406
-9.58351
-11.0944
-12.2103
-12.7041
-12.4824
-11.6271
-10.3796
-9.00614
-7.68132
-6.48111
-5.42893
-4.52315
-3.74968
-3.09111
-2.53138
-2.05705
-1.657
-1.32184
-1.0433
-0.814052
-0.627541
-0.477948
-0.360061
-0.269199
-0.201012
-0.151499
-0.116721
-0.0932338
-0.077179
-0.0661624
-0.0562833
-0.0483403
-0.0372484
-0.0303556
-0.0155915
-0.0115342
-11.1057
-11.1596
-11.1876
-11.183
-11.1345
-11.0252
-10.8346
-10.5425
-10.1325
-9.59678
-8.93858
-8.17288
-7.32423
-6.42296
-5.50089
-4.58744
-3.70696
-2.87772
-2.11217
-1.4179
-0.799823
-0.264641
0.177692
0.499461
0.651691
0.539359
0.015697
-1.11132
-3.10548
-6.28859
-10.9122
-16.9444
-23.9062
-31.0176
-37.5924
-43.3631
-48.3621
-52.3266
-54.1204
-52.3675
-46.4165
-38.0511
-30.0476
-23.7973
-19.2015
-15.7453
-13.0421
-10.8714
-9.10641
-7.66511
-6.48956
-5.53761
-4.77883
-4.19179
-3.76279
-3.48494
-3.35766
-3.38753
-3.58757
-3.97828
-4.58255
-5.4251
-6.52387
-7.84878
-9.28029
-10.6159
-11.6081
-12.0659
-11.9071
-11.1944
-10.1203
-8.90405
-7.69855
-6.57873
-5.57327
-4.68701
-3.91294
-3.24048
-2.65941
-2.16082
-1.73682
-1.38
-1.08315
-0.839254
-0.64161
-0.483988
-0.360647
-0.26636
-0.196277
-0.14597
-0.111155
-0.0881036
-0.0727695
-0.0625755
-0.0535793
-0.0463704
-0.0360091
-0.0294181
-0.015153
-0.0110142
-10.8326
-10.857
-10.8533
-10.8151
-10.7324
-10.591
-10.3749
-10.0686
-9.65993
-9.14323
-8.52148
-7.80663
-7.01823
-6.18073
-5.3202
-4.4614
-3.6255
-2.82909
-2.08424
-1.39891
-0.779782
-0.234121
0.227088
0.576096
0.765245
0.706376
0.25226
-0.794582
-2.68116
-5.68344
-9.9977
-15.5698
-21.9756
-28.5373
-34.6513
-40.0324
-44.6163
-48.0975
-49.5034
-47.7121
-42.3163
-34.9484
-27.9586
-22.4569
-18.3347
-15.1745
-12.6687
-10.6389
-8.97863
-7.61689
-6.50273
-5.59891
-4.87844
-4.32229
-3.91825
-3.66032
-3.54809
-3.58709
-3.78831
-4.16838
-4.74505
-5.53443
-6.5437
-7.73859
-9.01292
-10.1951
-11.0789
-11.5034
-11.3972
-10.8071
-9.88579
-8.81301
-7.72084
-6.68025
-5.72232
-4.85652
-4.08205
-3.395
-2.79123
-2.26675
-1.81724
-1.43753
-1.1215
-0.862443
-0.653454
-0.487808
-0.35916
-0.261678
-0.189974
-0.139164
-0.104606
-0.0822714
-0.067911
-0.0587456
-0.0507817
-0.0443971
-0.0348209
-0.0285737
-0.0148282
-0.0106651
-10.5665
-10.5644
-10.5328
-10.4661
-10.3556
-10.1893
-9.9548
-9.64008
-9.23614
-8.73901
-8.15131
-7.48268
-6.74875
-5.96928
-5.16571
-4.35886
-3.56714
-2.80561
-2.08588
-1.41645
-0.805724
-0.261036
0.203846
0.561392
0.764977
0.733531
0.32831
-0.643843
-2.41176
-5.20945
-9.1861
-14.2726
-20.0973
-26.0794
-31.6915
-36.6364
-40.7762
-43.7779
-44.8186
-43.017
-38.2005
-31.8446
-25.8657
-21.1008
-17.4462
-14.5828
-12.2778
-10.3926
-8.84025
-7.56065
-6.51005
-5.65614
-4.97538
-4.45112
-4.07262
-3.8347
-3.73705
-3.78421
-3.98525
-4.35325
-4.90133
-5.6388
-6.56452
-7.6422
-8.77782
-9.8258
-10.6144
-11.0084
-10.9461
-10.4616
-9.67564
-8.73425
-7.74994
-6.78753
-5.87789
-5.0333
-4.25832
-3.55557
-2.9273
-2.37492
-1.89807
-1.49403
-1.15786
-0.883122
-0.662605
-0.488994
-0.355251
-0.254871
-0.181879
-0.130912
-0.0969485
-0.0756461
-0.0625389
-0.0546224
-0.047839
-0.0423455
-0.0335637
-0.0276222
-0.0143726
-0.0101337
-10.3072
-10.2817
-10.2262
-10.1358
-10.0031
-9.81814
-9.57099
-9.25256
-8.85612
-8.37891
-7.8233
-7.19711
-6.51293
-5.7868
-5.03641
-4.2793
-3.5315
-2.80676
-2.11618
-1.46904
-0.874495
-0.341135
0.114904
0.46609
0.667327
0.643802
0.270858
-0.629895
-2.26727
-4.83986
-8.45948
-13.0487
-18.2839
-23.6723
-28.7542
-33.2292
-36.9076
-39.4417
-40.1531
-38.3857
-34.1779
-28.8271
-23.8201
-19.7551
-16.5494
-13.9773
-11.8735
-10.1347
-8.6922
-7.49661
-6.51125
-5.70874
-5.0689
-4.57739
-4.2249
-4.00703
-3.92349
-3.97792
-4.17757
-4.53237
-5.05132
-5.7385
-6.58648
-7.55848
-8.57147
-9.50189
-10.2069
-10.5734
-10.5479
-10.155
-9.48938
-8.66889
-7.78769
-6.90266
-6.04211
-5.21935
-4.44339
-3.72331
-3.06819
-2.48542
-1.97904
-1.54902
-1.19165
-0.900697
-0.668516
-0.487074
-0.348532
-0.245628
-0.171756
-0.121041
-0.0880684
-0.0681687
-0.0566439
-0.0502456
-0.0448413
-0.0403678
-0.032461
-0.0268906
-0.0141475
-0.00989964
-10.0572
-10.0112
-9.93531
-9.82535
-9.67509
-9.47638
-9.22124
-8.90272
-8.51584
-8.05872
-7.53351
-6.94662
-6.30827
-5.63154
-4.93108
-4.22177
-3.51765
-2.83125
-2.1733
-1.55385
-0.982104
-0.468723
-0.0313479
0.302565
0.489771
0.461503
0.109278
-0.722794
-2.21937
-4.54953
-7.79858
-11.8885
-16.5398
-21.3356
-25.8747
-29.8609
-33.0724
-35.159
-35.5919
-33.9219
-30.3536
-25.9729
-21.8649
-18.4422
-15.6565
-13.3652
-11.4598
-9.86732
-8.5354
-7.42494
-6.50607
-5.75613
-5.15819
-4.70014
-4.37406
-4.1762
-4.10633
-4.16724
-4.36451
-4.70528
-5.19508
-5.83376
-6.60967
-7.48642
-8.39091
-9.21835
-9.85024
-10.1918
-10.1975
-9.88439
-9.32649
-8.61799
-7.83596
-7.028
-6.21757
-5.41713
-4.63927
-3.89962
-3.21463
-2.59838
-2.05984
-1.60193
-1.22221
-0.914489
-0.67057
-0.48152
-0.338566
-0.233606
-0.159343
-0.109358
-0.0778289
-0.0597427
-0.0501524
-0.0455396
-0.0416795
-0.0382819
-0.0312262
-0.0259426
-0.0136577
-0.00932027
-9.81632
-9.75265
-9.65974
-9.53408
-9.37048
-9.1622
-8.90289
-8.58724
-8.21155
-7.77462
-7.2784
-6.7282
-6.13238
-5.50172
-4.84844
-4.18524
-3.52449
-2.87763
-2.25517
-1.6675
-1.12397
-0.637194
-0.225625
0.0837061
0.249645
0.209774
-0.128443
-0.894997
-2.24562
-4.32236
-7.193
-10.787
-14.8673
-19.0825
-23.0802
-26.5736
-29.325
-30.9988
-31.2213
-29.7305
-26.824
-23.3422
-20.0316
-17.1795
-14.7782
-12.7532
-11.0407
-9.59251
-8.37078
-7.34583
-6.49421
-5.79769
-5.24243
-4.81842
-4.51905
-4.34116
-4.28454
-4.35126
-4.54537
-4.87162
-5.33258
-5.92489
-6.63412
-7.42507
-8.23353
-8.9708
-9.53855
-9.85788
-9.89006
-9.64707
-9.18637
-8.58247
-7.8967
-7.16623
-6.40736
-5.62968
-4.84852
-4.08624
-3.36751
-2.71394
-2.1401
-1.65209
-1.24871
-0.923705
-0.668051
-0.471726
-0.324868
-0.218426
-0.144353
-0.09566
-0.0661017
-0.0503158
-0.0430922
-0.0406214
-0.0385742
-0.0364376
-0.0303559
-0.0254612
-0.0136317
-0.00928746
-9.58624
-9.50754
-9.40056
-9.26245
-9.08895
-8.87448
-8.614
-8.30346
-7.94013
-7.52331
-7.05479
-6.53903
-5.98293
-5.39546
-4.78689
-4.16817
-3.55026
-2.94369
-2.35883
-1.80583