/*--------------------------------*- C++ -*----------------------------------*\
  =========                 |
  \\      /  F ield         | OpenFOAM: The Open Source CFD Toolbox
   \\    /   O peration     | Website:  https://openfoam.org
    \\  /    A nd           | Version:  10
     \\/     M anipulation  |
\*---------------------------------------------------------------------------*/
FoamFile
{
    format      ascii;
    class       surfaceScalarField;
    location    "0.155";
    object      phi;
}
// * * * * * * * * * * * * * * * * * * * * * * * * * * * * * * * * * * * * * //

dimensions      [0 3 -1 0 0 0 0];

internalField   nonuniform List<scalar> 
13452
(
5.94618e-05
8.0666e-07
5.85018e-05
9.60032e-07
5.7513e-05
9.88747e-07
5.65082e-05
1.00482e-06
5.55154e-05
9.92795e-07
5.45458e-05
9.69579e-07
5.36027e-05
9.43143e-07
5.26876e-05
9.15038e-07
5.18015e-05
8.86192e-07
5.09443e-05
8.5717e-07
5.01162e-05
8.28113e-07
4.93172e-05
7.98971e-07
4.85476e-05
7.69578e-07
4.7808e-05
7.39661e-07
4.70991e-05
7.08908e-07
4.64221e-05
6.7695e-07
4.57788e-05
6.4332e-07
4.51713e-05
6.07496e-07
4.46024e-05
5.68891e-07
4.40756e-05
5.26819e-07
4.35951e-05
4.80472e-07
4.31662e-05
4.28906e-07
4.27952e-05
3.70962e-07
4.24898e-05
3.05489e-07
4.22591e-05
2.30681e-07
4.21147e-05
1.44329e-07
4.20681e-05
4.66765e-08
4.21297e-05
-6.16258e-08
4.23188e-05
-1.89091e-07
4.26626e-05
-3.43771e-07
4.32201e-05
-5.5758e-07
4.40684e-05
-8.48257e-07
-1.27894e-06
4.53473e-05
6.2488e-05
3.08993e-07
6.29641e-05
4.83963e-07
6.34147e-05
5.38167e-07
6.38313e-05
5.88179e-07
6.42077e-05
6.16394e-07
6.45448e-05
6.32497e-07
6.48452e-05
6.4276e-07
6.51123e-05
6.4794e-07
6.53497e-05
6.48755e-07
6.55609e-05
6.45931e-07
6.57492e-05
6.39832e-07
6.59176e-05
6.30625e-07
6.60688e-05
6.18342e-07
6.62056e-05
6.02836e-07
6.63306e-05
5.83905e-07
6.64463e-05
5.61226e-07
6.65554e-05
5.34305e-07
6.66603e-05
5.02548e-07
6.6764e-05
4.65248e-07
6.68692e-05
4.21531e-07
6.69794e-05
3.70347e-07
6.70978e-05
3.10449e-07
6.72285e-05
2.40311e-07
6.73753e-05
1.58669e-07
6.7542e-05
6.40133e-08
6.77298e-05
-4.34832e-08
6.79432e-05
-1.66739e-07
6.81935e-05
-3.11965e-07
6.84926e-05
-4.88125e-07
6.88547e-05
-7.0586e-07
6.92872e-05
-9.90161e-07
6.98089e-05
-1.36996e-06
-1.8718e-06
7.04018e-05
6.3838e-05
2.3238e-07
6.39233e-05
3.98687e-07
6.40073e-05
4.54115e-07
6.40988e-05
4.96755e-07
6.41963e-05
5.18886e-07
6.43016e-05
5.27159e-07
6.44156e-05
5.28765e-07
6.45383e-05
5.2527e-07
6.46695e-05
5.17527e-07
6.48091e-05
5.06333e-07
6.49569e-05
4.92068e-07
6.51126e-05
4.74881e-07
6.52762e-05
4.54764e-07
6.54475e-05
4.31488e-07
6.56266e-05
4.04821e-07
6.58135e-05
3.74394e-07
6.60081e-05
3.39637e-07
6.62108e-05
2.99912e-07
6.64215e-05
2.54468e-07
6.66407e-05
2.02377e-07
6.68685e-05
1.42589e-07
6.71051e-05
7.37527e-08
6.73513e-05
-5.87255e-09
6.76071e-05
-9.71483e-08
6.78745e-05
-2.03353e-07
6.81585e-05
-3.27428e-07
6.84648e-05
-4.73044e-07
6.87976e-05
-6.44775e-07
6.916e-05
-8.50582e-07
6.95558e-05
-1.10167e-06
6.99794e-05
-1.41377e-06
7.04258e-05
-1.81633e-06
-2.29944e-06
7.08534e-05
6.56441e-05
1.71381e-07
6.57065e-05
3.36274e-07
6.57598e-05
4.00835e-07
6.58123e-05
4.44253e-07
6.58647e-05
4.66404e-07
6.59191e-05
4.72839e-07
6.59767e-05
4.71125e-07
6.60385e-05
4.63477e-07
6.61052e-05
4.50864e-07
6.61773e-05
4.3415e-07
6.62556e-05
4.13773e-07
6.63406e-05
3.89921e-07
6.64328e-05
3.62583e-07
6.65328e-05
3.31461e-07
6.66413e-05
2.96349e-07
6.67588e-05
2.56844e-07
6.68862e-05
2.12286e-07
6.70241e-05
1.61997e-07
6.71734e-05
1.05163e-07
6.7335e-05
4.07467e-08
6.75101e-05
-3.25136e-08
6.76999e-05
-1.1605e-07
6.79056e-05
-2.11539e-07
6.81292e-05
-3.20735e-07
6.83722e-05
-4.46413e-07
6.86365e-05
-5.9167e-07
6.89241e-05
-7.60604e-07
6.92376e-05
-9.58359e-07
6.95791e-05
-1.19202e-06
6.99489e-05
-1.47148e-06
7.03423e-05
-1.8072e-06
7.07457e-05
-2.21974e-06
-2.69491e-06
7.11412e-05
6.7494e-05
1.34174e-07
6.75454e-05
2.84893e-07
6.75967e-05
3.49476e-07
6.76518e-05
3.89222e-07
6.77089e-05
4.09295e-07
6.7768e-05
4.13728e-07
6.783e-05
4.09134e-07
6.78955e-05
3.97972e-07
6.79651e-05
3.81272e-07
6.80393e-05
3.59899e-07
6.81188e-05
3.34293e-07
6.8204e-05
3.04686e-07
6.82956e-05
2.71028e-07
6.83941e-05
2.32907e-07
6.85003e-05
1.90172e-07
6.86148e-05
1.42356e-07
6.87384e-05
8.86773e-08
6.8872e-05
2.84204e-08
6.90165e-05
-3.93007e-08
6.91728e-05
-1.15613e-07
6.93421e-05
-2.01792e-07
6.95254e-05
-2.99328e-07
6.97239e-05
-4.10104e-07
6.99393e-05
-5.36101e-07
7.0173e-05
-6.80068e-07
7.04266e-05
-8.4529e-07
7.07017e-05
-1.03575e-06
7.09997e-05
-1.25632e-06
7.13207e-05
-1.51303e-06
7.16632e-05
-1.81401e-06
7.20223e-05
-2.16623e-06
7.23852e-05
-2.58272e-06
-3.0511e-06
7.27414e-05
6.94153e-05
1.02937e-07
6.94644e-05
2.3571e-07
6.95149e-05
2.99073e-07
6.9568e-05
3.36121e-07
6.96232e-05
3.54034e-07
6.96809e-05
3.56084e-07
6.97419e-05
3.48109e-07
6.9807e-05
3.32892e-07
6.98766e-05
3.11631e-07
6.99513e-05
2.85195e-07
7.00316e-05
2.54022e-07
7.01178e-05
2.18421e-07
7.02106e-05
1.7831e-07
7.03104e-05
1.33093e-07
7.04178e-05
8.27582e-08
7.05334e-05
2.67548e-08
7.06579e-05
-3.58717e-08
7.07922e-05
-1.05799e-07
7.09368e-05
-1.83987e-07
7.10929e-05
-2.71641e-07
7.12612e-05
-3.70104e-07
7.14428e-05
-4.80949e-07
7.16388e-05
-6.06077e-07
7.18503e-05
-7.47601e-07
7.20784e-05
-9.08199e-07
7.23241e-05
-1.09103e-06
7.25882e-05
-1.29979e-06
7.28708e-05
-1.53893e-06
7.31713e-05
-1.81352e-06
7.3487e-05
-2.12976e-06
7.38131e-05
-2.49227e-06
7.4139e-05
-2.90863e-06
-3.36925e-06
7.44571e-05
7.13885e-05
8.08101e-08
7.14287e-05
1.95439e-07
7.14737e-05
2.54065e-07
7.15238e-05
2.86021e-07
7.15782e-05
2.99651e-07
7.16363e-05
2.98027e-07
7.16983e-05
2.86067e-07
7.17647e-05
2.66506e-07
7.18358e-05
2.40583e-07
7.19119e-05
2.09081e-07
7.19935e-05
1.72361e-07
7.2081e-05
1.30923e-07
7.21749e-05
8.44295e-08
7.22758e-05
3.21751e-08
7.23841e-05
-2.5524e-08
7.25003e-05
-8.94719e-08
7.26251e-05
-1.60677e-07
7.27592e-05
-2.39828e-07
7.29032e-05
-3.27967e-07
7.30578e-05
-4.26308e-07
7.32239e-05
-5.36235e-07
7.34024e-05
-6.59351e-07
7.35938e-05
-7.97542e-07
7.37991e-05
-9.52933e-07
7.4019e-05
-1.12807e-06
7.42539e-05
-1.32589e-06
7.45038e-05
-1.54976e-06
7.47684e-05
-1.80351e-06
7.50461e-05
-2.09118e-06
7.53337e-05
-2.41733e-06
7.56263e-05
-2.78492e-06
7.59159e-05
-3.19826e-06
-3.65011e-06
7.61968e-05
7.3423e-05
6.31016e-08
7.34597e-05
1.58689e-07
7.35037e-05
2.10117e-07
7.35533e-05
2.36447e-07
7.36073e-05
2.4561e-07
7.3665e-05
2.40279e-07
7.37267e-05
2.24388e-07
7.37927e-05
2.00491e-07
7.38634e-05
1.69889e-07
7.39392e-05
1.33298e-07
7.40206e-05
9.0971e-08
7.41078e-05
4.37434e-08
7.4201e-05
-8.79597e-09
7.43012e-05
-6.8027e-08
7.44086e-05
-1.32926e-07
7.45239e-05
-2.04721e-07
7.46473e-05
-2.84161e-07
7.47796e-05
-3.72122e-07
7.49213e-05
-4.69659e-07
7.5073e-05
-5.77991e-07
7.52353e-05
-6.98508e-07
7.54087e-05
-8.32801e-07
7.55939e-05
-9.82695e-07
7.57912e-05
-1.15024e-06
7.60009e-05
-1.33779e-06
7.62231e-05
-1.54801e-06
7.64571e-05
-1.78381e-06
7.67019e-05
-2.04834e-06
7.69555e-05
-2.34478e-06
7.72145e-05
-2.67634e-06
7.74745e-05
-3.04487e-06
7.7729e-05
-3.45273e-06
-3.89427e-06
7.79731e-05
7.55165e-05
4.90332e-08
7.55484e-05
1.2681e-07
7.55885e-05
1.70005e-07
7.56349e-05
1.90077e-07
7.56866e-05
1.93891e-07
7.5743e-05
1.83945e-07
7.58039e-05
1.63464e-07
7.58696e-05
1.34779e-07
7.59402e-05
9.9284e-08
7.6016e-05
5.74889e-08
7.60976e-05
9.39731e-09
7.61848e-05
-4.34709e-08
7.62785e-05
-1.02531e-07
7.63785e-05
-1.68034e-07
7.64855e-05
-2.39921e-07
7.65999e-05
-3.19077e-07
7.6722e-05
-4.06322e-07
7.68525e-05
-5.02538e-07
7.69916e-05
-6.08772e-07
7.71398e-05
-7.26233e-07
7.72976e-05
-8.56287e-07
7.74653e-05
-1.00047e-06
7.76431e-05
-1.1605e-06
7.78311e-05
-1.33829e-06
7.80293e-05
-1.53596e-06
7.82371e-05
-1.75583e-06
7.84536e-05
-2.00036e-06
7.86774e-05
-2.27206e-06
7.89059e-05
-2.57332e-06
7.91359e-05
-2.90633e-06
7.93631e-05
-3.27213e-06
7.95824e-05
-3.67199e-06
-4.10127e-06
7.97894e-05
7.76712e-05
3.73769e-08
7.76999e-05
9.81788e-08
7.7738e-05
1.31865e-07
7.77832e-05
1.44852e-07
7.78344e-05
1.4277e-07
7.78904e-05
1.27876e-07
7.79512e-05
1.02703e-07
7.80167e-05
6.92458e-08
7.80871e-05
2.89192e-08
7.81625e-05
-1.79235e-08
7.8243e-05
-7.11563e-08
7.83295e-05
-1.29925e-07
7.84219e-05
-1.94907e-07
7.85204e-05
-2.66557e-07
7.86256e-05
-3.45097e-07
7.87377e-05
-4.31204e-07
7.88571e-05
-5.25713e-07
7.89841e-05
-6.29522e-07
7.9119e-05
-7.43661e-07
7.9262e-05
-8.69299e-07
7.94135e-05
-1.00774e-06
7.95735e-05
-1.16043e-06
7.97419e-05
-1.32896e-06
7.99187e-05
-1.51505e-06
8.01033e-05
-1.72056e-06
8.02949e-05
-1.94744e-06
8.04922e-05
-2.19768e-06
8.06934e-05
-2.47322e-06
8.08958e-05
-2.77576e-06
8.10962e-05
-3.1067e-06
8.12906e-05
-3.4665e-06
8.14743e-05
-3.85577e-06
-4.27044e-06
8.16435e-05
7.98882e-05
2.74756e-08
7.99139e-05
7.25376e-08
7.99494e-05
9.63657e-08
7.99922e-05
1.02022e-07
8.00412e-05
9.3789e-08
8.00954e-05
7.36354e-08
8.01546e-05
4.35162e-08
8.02188e-05
4.99312e-09
8.02881e-05
-4.03001e-08
8.03625e-05
-9.23645e-08
8.04422e-05
-1.50814e-07
8.05275e-05
-2.15218e-07
8.06185e-05
-2.85974e-07
8.07155e-05
-3.63565e-07
8.08188e-05
-4.4832e-07
8.09284e-05
-5.40878e-07
8.10448e-05
-6.42056e-07
8.1168e-05
-7.52733e-07
8.12982e-05
-8.73897e-07
8.14356e-05
-1.00666e-06
8.15801e-05
-1.15224e-06
8.17316e-05
-1.31196e-06
8.18899e-05
-1.48724e-06
8.20544e-05
-1.6796e-06
8.22245e-05
-1.89061e-06
8.23989e-05
-2.12186e-06
8.25761e-05
-2.37488e-06
8.2754e-05
-2.65109e-06
8.29299e-05
-2.95163e-06
8.31004e-05
-3.27729e-06
8.3262e-05
-3.62806e-06
8.34103e-05
-4.00411e-06
-4.40173e-06
8.35416e-05
8.21691e-05
1.88589e-08
8.21923e-05
4.92979e-08
8.22257e-05
6.29938e-08
8.22668e-05
6.09018e-08
8.23145e-05
4.61271e-08
8.23678e-05
2.03297e-08
8.24262e-05
-1.49537e-08
8.24896e-05
-5.83384e-08
8.2558e-05
-1.08695e-07
8.26313e-05
-1.65735e-07
8.27097e-05
-2.29195e-07
8.27934e-05
-2.9887e-07
8.28824e-05
-3.75034e-07
8.2977e-05
-4.58136e-07
8.30773e-05
-5.48587e-07
8.31834e-05
-6.46994e-07
8.32954e-05
-7.54127e-07
8.34135e-05
-8.7083e-07
8.35377e-05
-9.98036e-07
8.36678e-05
-1.13677e-06
8.38037e-05
-1.28815e-06
8.39451e-05
-1.45335e-06
8.40915e-05
-1.63362e-06
8.42421e-05
-1.83022e-06
8.43959e-05
-2.04444e-06
8.45516e-05
-2.27752e-06
8.47073e-05
-2.53058e-06
8.48608e-05
-2.80457e-06
8.50093e-05
-3.10015e-06
8.51496e-05
-3.41762e-06
8.52782e-05
-3.75663e-06
8.53911e-05
-4.11698e-06
-4.49515e-06
8.54845e-05
8.45154e-05
1.12127e-08
8.45366e-05
2.81153e-08
8.45678e-05
3.17558e-08
8.46069e-05
2.18342e-08
8.46526e-05
4.46237e-10
8.4704e-05
-3.10552e-08
8.47606e-05
-7.15411e-08
8.48221e-05
-1.19891e-07
8.48886e-05
-1.75194e-07
8.496e-05
-2.37117e-07
8.50363e-05
-3.05482e-07
8.51176e-05
-3.80182e-07
8.5204e-05
-4.61438e-07
8.52955e-05
-5.49665e-07
8.53922e-05
-6.45311e-07
8.54942e-05
-7.48955e-07
8.56014e-05
-8.61315e-07
8.57137e-05
-9.83181e-07
8.58311e-05
-1.11541e-06
8.59533e-05
-1.25894e-06
8.60799e-05
-1.41475e-06
8.62104e-05
-1.58387e-06
8.63441e-05
-1.76733e-06
8.64801e-05
-1.96617e-06
8.6617e-05
-2.18138e-06
8.67533e-05
-2.41387e-06
8.68872e-05
-2.66439e-06
8.70161e-05
-2.93349e-06
8.71373e-05
-3.2214e-06
8.72478e-05
-3.52806e-06
8.73439e-05
-3.8528e-06
8.74221e-05
-4.19518e-06
-4.55175e-06
8.74787e-05
8.6929e-05
4.32977e-09
8.69485e-05
8.69403e-09
8.69777e-05
2.48257e-09
8.70149e-05
-1.53263e-08
8.70588e-05
-4.34055e-08
8.71085e-05
-8.07648e-08
8.71635e-05
-1.26534e-07
8.72234e-05
-1.79828e-07
8.72881e-05
-2.39941e-07
8.73576e-05
-3.06559e-07
8.74316e-05
-3.79544e-07
8.75103e-05
-4.58872e-07
8.75937e-05
-5.44755e-07
8.76816e-05
-6.37575e-07
8.7774e-05
-7.37782e-07
8.7871e-05
-8.45924e-07
8.79723e-05
-9.6266e-07
8.80779e-05
-1.08871e-06
8.81873e-05
-1.22486e-06
8.83003e-05
-1.37192e-06
8.84163e-05
-1.53073e-06
8.85346e-05
-1.70215e-06
8.86543e-05
-1.88702e-06
8.87742e-05
-2.08613e-06
8.8893e-05
-2.3002e-06
8.9009e-05
-2.52984e-06
8.91201e-05
-2.77544e-06
8.92238e-05
-3.03722e-06
8.93175e-05
-3.31508e-06
8.9398e-05
-3.60862e-06
8.94622e-05
-3.91695e-06
8.95064e-05
-4.23937e-06
-4.57253e-06
8.95272e-05
8.94118e-05
-1.92928e-09
8.94297e-05
-9.17837e-09
8.9457e-05
-2.48979e-08
8.94922e-05
-5.04787e-08
8.9534e-05
-8.51838e-08
8.95815e-05
-1.28332e-07
8.96343e-05
-1.79292e-07
8.96919e-05
-2.37401e-07
8.97541e-05
-3.02121e-07
8.98207e-05
-3.73182e-07
8.98916e-05
-4.50491e-07
8.99668e-05
-5.34074e-07
9.00462e-05
-6.24132e-07
9.01296e-05
-7.21017e-07
9.0217e-05
-8.25159e-07
9.03082e-05
-9.37069e-07
9.04028e-05
-1.05734e-06
9.05007e-05
-1.18661e-06
9.06015e-05
-1.32557e-06
9.07044e-05
-1.4749e-06
9.0809e-05
-1.63531e-06
9.09144e-05
-1.80748e-06
9.10194e-05
-1.99204e-06
9.11228e-05
-2.18957e-06
9.12231e-05
-2.40052e-06
9.13185e-05
-2.6252e-06
9.14068e-05
-2.86375e-06
9.14856e-05
-3.11606e-06
9.15523e-05
-3.38176e-06
9.16039e-05
-3.6602e-06
9.16372e-05
-3.95029e-06
9.1649e-05
-4.25115e-06
-4.55953e-06
9.1636e-05
9.19656e-05
-7.65583e-09
9.19821e-05
-2.5655e-08
9.20076e-05
-5.04546e-08
9.20407e-05
-8.36096e-08
9.20804e-05
-1.24819e-07
9.21257e-05
-1.73664e-07
9.21761e-05
-2.29718e-07
9.22312e-05
-2.92499e-07
9.22907e-05
-3.61604e-07
9.23544e-05
-4.36824e-07
9.2422e-05
-5.18097e-07
9.24934e-05
-6.05482e-07
9.25684e-05
-6.99177e-07
9.26469e-05
-7.99505e-07
9.27286e-05
-9.06866e-07
9.28133e-05
-1.02172e-06
9.29005e-05
-1.1446e-06
9.299e-05
-1.27605e-06
9.3081e-05
-1.41665e-06
9.31731e-05
-1.56696e-06
9.32653e-05
-1.72755e-06
9.33568e-05
-1.89892e-06
9.34462e-05
-2.08151e-06
9.35323e-05
-2.27567e-06
9.36135e-05
-2.48163e-06
9.36877e-05
-2.69945e-06
9.3753e-05
-2.92902e-06
9.38069e-05
-3.16998e-06
9.38469e-05
-3.42174e-06
9.38701e-05
-3.68344e-06
9.38737e-05
-3.95386e-06
9.38545e-05
-4.23195e-06
-4.51456e-06
9.38095e-05
9.45924e-05
-1.29077e-08
9.46076e-05
-4.08411e-08
9.46314e-05
-7.42246e-08
9.46624e-05
-1.14656e-07
9.46997e-05
-1.62141e-07
9.47425e-05
-2.16476e-07
9.47902e-05
-2.77406e-07
9.48423e-05
-3.44601e-07
9.48985e-05
-4.17778e-07
9.49585e-05
-4.96785e-07
9.5022e-05
-5.81595e-07
9.50888e-05
-6.72286e-07
9.51586e-05
-7.6905e-07
9.52313e-05
-8.72177e-07
9.53065e-05
-9.82028e-07
9.53838e-05
-1.09901e-06
9.54627e-05
-1.22357e-06
9.55429e-05
-1.35618e-06
9.56235e-05
-1.49729e-06
9.57039e-05
-1.64735e-06
9.57831e-05
-1.80676e-06
9.58601e-05
-1.97587e-06
9.59335e-05
-2.15494e-06
9.60019e-05
-2.34413e-06
9.60638e-05
-2.54343e-06
9.6117e-05
-2.75272e-06
9.61596e-05
-2.97165e-06
9.61894e-05
-3.19969e-06
9.62037e-05
-3.43604e-06
9.61999e-05
-3.67973e-06
9.61755e-05
-3.9294e-06
9.61275e-05
-4.18393e-06
-4.44029e-06
9.60532e-05
9.72943e-05
-1.77214e-08
9.73083e-05
-5.48036e-08
9.73303e-05
-9.62228e-08
9.73592e-05
-1.43554e-07
9.73941e-05
-1.97014e-07
9.74342e-05
-2.5657e-07
9.74789e-05
-3.22107e-07
9.75277e-05
-3.93423e-07
9.75802e-05
-4.7033e-07
9.76362e-05
-5.52728e-07
9.76952e-05
-6.40615e-07
9.7757e-05
-7.3408e-07
9.78212e-05
-8.33303e-07
9.78876e-05
-9.38541e-07
9.79557e-05
-1.05011e-06
9.8025e-05
-1.16835e-06
9.80951e-05
-1.29364e-06
9.81653e-05
-1.42635e-06
9.82348e-05
-1.56683e-06
9.83029e-05
-1.71541e-06
9.83685e-05
-1.87233e-06
9.84304e-05
-2.0378e-06
9.84873e-05
-2.2119e-06
9.85378e-05
-2.39461e-06
9.85802e-05
-2.58577e-06
9.86125e-05
-2.78505e-06
9.86328e-05
-2.99195e-06
9.86388e-05
-3.20576e-06
9.86284e-05
-3.42558e-06
9.8599e-05
-3.65031e-06
9.85481e-05
-3.87855e-06
9.84733e-05
-4.1091e-06
-4.33912e-06
9.83721e-05
0.000100073
-2.21181e-08
0.000100086
-6.75792e-08
0.000100106
-1.16441e-07
0.000100133
-1.70223e-07
0.000100165
-2.29277e-07
0.000100203
-2.93702e-07
0.000100244
-3.63494e-07
0.000100289
-4.38553e-07
0.000100337
-5.18768e-07
0.000100389
-6.04086e-07
0.000100443
-6.94525e-07
0.000100499
-7.90178e-07
0.000100557
-8.91207e-07
0.000100616
-9.97837e-07
0.000100676
-1.11033e-06
0.000100737
-1.22897e-06
0.000100797
-1.35406e-06
0.000100857
-1.48586e-06
0.000100915
-1.62462e-06
0.00010097
-1.77054e-06
0.000101021
-1.92376e-06
0.000101068
-2.08432e-06
0.000101108
-2.25216e-06
0.00010114
-2.42711e-06
0.000101164
-2.60885e-06
0.000101175
-2.79691e-06
0.000101174
-2.99065e-06
0.000101158
-3.18926e-06
0.000101124
-3.39174e-06
0.00010107
-3.59694e-06
0.000100995
-3.80343e-06
0.000100896
-4.01e-06
-4.214e-06
0.000100771
0.000102932
-2.61078e-08
0.000102944
-7.91818e-08
0.000102962
-1.34855e-07
0.000102986
-1.94573e-07
0.000103016
-2.58773e-07
0.00010305
-3.27648e-07
0.000103088
-4.01281e-07
0.000103129
-4.79653e-07
0.000103173
-5.62713e-07
0.000103219
-6.50446e-07
0.000103267
-7.42882e-07
0.000103317
-8.40112e-07
0.000103368
-9.42277e-07
0.00010342
-1.04956e-06
0.000103472
-1.16219e-06
0.000103523
-1.28036e-06
0.000103574
-1.40431e-06
0.000103622
-1.5342e-06
0.000103668
-1.6702e-06
0.000103709
-1.81238e-06
0.000103746
-1.96076e-06
0.000103777
-2.11526e-06
0.000103801
-2.27569e-06
0.000103816
-2.44175e-06
0.00010382
-2.613e-06
0.000103812
-2.78886e-06
0.00010379
-2.96859e-06
0.000103752
-3.1513e-06
0.000103696
-3.33594e-06
0.00010362
-3.52135e-06
0.000103523
-3.70612e-06
0.000103402
-3.88903e-06
-4.06767e-06
0.000103256
0.000105872
-2.96929e-08
0.000105883
-8.96084e-08
0.000105899
-1.51425e-07
0.000105921
-2.16507e-07
0.000105948
-2.85337e-07
0.000105978
-3.58176e-07
0.000106012
-4.3517e-07
0.000106049
-5.1636e-07
0.000106088
-6.01744e-07
0.000106129
-6.91331e-07
0.000106171
-7.85162e-07
0.000106214
-8.83319e-07
0.000106258
-9.8592e-07
0.000106302
-1.09311e-06
0.000106344
-1.20506e-06
0.000106386
-1.32192e-06
0.000106425
-1.44382e-06
0.000106462
-1.57087e-06
0.000106495
-1.70313e-06
0.000106523
-1.84057e-06
0.000106546
-1.9831e-06
0.000106561
-2.13053e-06
0.000106568
-2.28258e-06
0.000106565
-2.43883e-06
0.000106551
-2.59875e-06
0.000106523
-2.76168e-06
0.000106482
-2.92682e-06
0.000106424
-3.09324e-06
0.000106348
-3.25987e-06
0.000106252
-3.42555e-06
0.000106135
-3.58894e-06
0.000105994
-3.74887e-06
-3.90313e-06
0.00010583
0.000108897
-3.28705e-08
0.000108906
-9.88434e-08
0.00010892
-1.661e-07
0.00010894
-2.35921e-07
0.000108963
-3.08807e-07
0.00010899
-3.85063e-07
0.00010902
-4.64879e-07
0.000109052
-5.48341e-07
0.000109086
-6.35481e-07
0.000109121
-7.26327e-07
0.000109156
-8.20924e-07
0.000109192
-9.19341e-07
0.000109228
-1.02167e-06
0.000109263
-1.12802e-06
0.000109297
-1.23851e-06
0.000109328
-1.35322e-06
0.000109356
-1.47223e-06
0.000109381
-1.59556e-06
0.000109401
-1.72317e-06
0.000109415
-1.85496e-06
0.000109423
-1.99076e-06
0.000109423
-2.13027e-06
0.000109413
-2.27313e-06
0.000109393
-2.41885e-06
0.000109361
-2.56682e-06
0.000109316
-2.71633e-06
0.000109256
-2.86656e-06
0.000109179
-3.01655e-06
0.000109085
-3.16526e-06
0.000108971
-3.31156e-06
0.000108836
-3.4542e-06
0.000108679
-3.59207e-06
-3.72318e-06
0.000108499
0.000112007
-3.56345e-08
0.000112015
-1.06864e-07
0.000112028
-1.78824e-07
0.000112045
-2.52712e-07
0.000112065
-3.29028e-07
0.000112088
-4.08098e-07
0.000112113
-4.90145e-07
0.00011214
-5.75284e-07
0.000112168
-6.63571e-07
0.000112197
-7.55046e-07
0.000112226
-8.4975e-07
0.000112254
-9.4774e-07
0.000112282
-1.04908e-06
0.000112308
-1.15385e-06
0.000112331
-1.2621e-06
0.000112352
-1.37388e-06
0.000112369
-1.48919e-06
0.000112381
-1.60798e-06
0.000112388
-1.73014e-06
0.000112389
-1.8555e-06
0.000112382
-1.98381e-06
0.000112366
-2.1147e-06
0.000112341
-2.24775e-06
0.000112304
-2.38241e-06
0.000112256
-2.51803e-06
0.000112193
-2.65388e-06
0.000112116
-2.78912e-06
0.000112022
-2.92282e-06
0.000111911
-3.05397e-06
0.000111781
-3.18151e-06
0.000111631
-3.30428e-06
0.00011146
-3.42127e-06
-3.53069e-06
0.000111267
0.000115207
-3.79769e-08
0.000115214
-1.13643e-07
0.000115224
-1.89538e-07
0.000115238
-2.66777e-07
0.000115255
-3.45844e-07
0.000115274
-4.27076e-07
0.000115295
-5.10711e-07
0.000115316
-5.96885e-07
0.000115338
-6.85669e-07
0.00011536
-7.7711e-07
0.000115382
-8.71246e-07
0.000115402
-9.68116e-07
0.000115421
-1.06776e-06
0.000115437
-1.17022e-06
0.000115451
-1.2755e-06
0.000115461
-1.38361e-06
0.000115466
-1.49447e-06
0.000115466
-1.608e-06
0.00011546
-1.72401e-06
0.000115446
-1.84228e-06
0.000115425
-1.96249e-06
0.000115395
-2.08424e-06
0.000115354
-2.20703e-06
0.000115302
-2.3303e-06
0.000115237
-2.45339e-06
0.000115159
-2.57555e-06
0.000115066
-2.69596e-06
0.000114957
-2.81374e-06
0.000114831
-2.92792e-06
0.000114687
-3.03754e-06
0.000114524
-3.14152e-06
0.000114342
-3.23898e-06
-3.32836e-06
0.000114139
0.000118498
-3.98898e-08
0.000118503
-1.19153e-07
0.000118512
-1.98191e-07
0.000118523
-2.7803e-07
0.000118536
-3.59132e-07
0.000118551
-4.41833e-07
0.000118567
-5.26378e-07
0.000118583
-6.12914e-07
0.000118599
-7.01522e-07
0.000118614
-7.9225e-07
0.000118628
-8.85129e-07
0.00011864
-9.80184e-07
0.00011865
-1.07743e-06
0.000118656
-1.17687e-06
0.000118659
-1.27849e-06
0.000118658
-1.38222e-06
0.000118651
-1.48798e-06
0.000118639
-1.5956e-06
0.00011862
-1.70487e-06
0.000118593
-1.8155e-06
0.000118558
-1.92714e-06
0.000118513
-2.03935e-06
0.000118457
-2.15163e-06
0.00011839
-2.26337e-06
0.000118311
-2.37394e-06
0.000118218
-2.48259e-06
0.000118111
-2.58855e-06
0.000117988
-2.69098e-06
0.000117849
-2.78899e-06
0.000117693
-2.88171e-06
0.00011752
-2.96818e-06
0.000117328
-3.04763e-06
-3.11871e-06
0.000117119
0.000121883
-4.13649e-08
0.000121887
-1.2337e-07
0.000121894
-2.04728e-07
0.000121902
-2.86379e-07
0.000121912
-3.68755e-07
0.000121922
-4.52184e-07
0.000121932
-5.36914e-07
0.000121943
-6.23097e-07
0.000121952
-7.10822e-07
0.00012196
-8.00136e-07
0.000121966
-8.91064e-07
0.000121969
-9.83615e-07
0.000121969
-1.07778e-06
0.000121966
-1.17355e-06
0.000121959
-1.27085e-06
0.000121946
-1.3696e-06
0.000121928
-1.46966e-06
0.000121903
-1.57084e-06
0.000121871
-1.67289e-06
0.000121831
-1.77548e-06
0.000121782
-1.87823e-06
0.000121723
-1.9807e-06
0.000121654
-2.08236e-06
0.000121573
-2.18263e-06
0.00012148
-2.28087e-06
0.000121374
-2.37639e-06
0.000121254
-2.46846e-06
0.000121119
-2.5563e-06
0.000120969
-2.63912e-06
0.000120804
-2.71612e-06
0.000120622
-2.78649e-06
0.000120424
-2.84957e-06
-2.90419e-06
0.000120209
0.000125364
-4.24006e-08
0.000125367
-1.26286e-07
0.000125372
-2.09134e-07
0.000125377
-2.91796e-07
0.000125383
-3.74671e-07
0.000125389
-4.58074e-07
0.000125394
-5.4225e-07
0.000125399
-6.27356e-07
0.000125401
-7.13481e-07
0.000125402
-8.00675e-07
0.0001254
-8.88957e-07
0.000125394
-9.78324e-07
0.000125385
-1.06876e-06
0.000125372
-1.1602e-06
0.000125354
-1.25259e-06
0.00012533
-1.34579e-06
0.0001253
-1.43964e-06
0.000125263
-1.53392e-06
0.000125219
-1.62836e-06
0.000125166
-1.72261e-06
0.000125104
-1.81628e-06
0.000125032
-1.90893e-06
0.00012495
-2.00003e-06
0.000124856
-2.08903e-06
0.00012475
-2.17532e-06
0.000124632
-2.25825e-06
0.000124501
-2.33714e-06
0.000124356
-2.41131e-06
0.000124197
-2.48004e-06
0.000124023
-2.54265e-06
0.000123835
-2.59843e-06
0.000123633
-2.64682e-06
-2.68687e-06
0.000123415
0.000128946
-4.29893e-08
0.000128947
-1.27878e-07
0.00012895
-2.11357e-07
0.000128952
-2.94184e-07
0.000128954
-3.76729e-07
0.000128955
-4.59299e-07
0.000128955
-5.42136e-07
0.000128953
-6.25404e-07
0.000128949
-7.09197e-07
0.000128942
-7.93566e-07
0.000128931
-8.78526e-07
0.000128917
-9.64064e-07
0.000128898
-1.05015e-06
0.000128875
-1.13671e-06
0.000128846
-1.22365e-06
0.000128811
-1.31083e-06
0.000128769
-1.39806e-06
0.000128721
-1.4851e-06
0.000128664
-1.57168e-06
0.000128599
-1.65744e-06
0.000128524
-1.74199e-06
0.00012844
-1.82489e-06
0.000128346
-1.90565e-06
0.000128241
-1.98374e-06
0.000128124
-2.05859e-06
0.000127995
-2.12962e-06
0.000127854
-2.1962e-06
0.000127701
-2.25774e-06
0.000127534
-2.31361e-06
0.000127355
-2.36322e-06
0.000127163
-2.40599e-06
0.000126957
-2.44147e-06
-2.46884e-06
0.000126739
0.000132629
-4.31556e-08
0.00013263
-1.28209e-07
0.00013263
-2.115e-07
0.000132629
-2.93685e-07
0.000132628
-3.75104e-07
0.000132624
-4.56055e-07
0.000132619
-5.36779e-07
0.000132611
-6.17446e-07
0.0001326
-6.98162e-07
0.000132585
-7.78984e-07
0.000132567
-8.59927e-07
0.000132544
-9.40979e-07
0.000132516
-1.0221e-06
0.000132482
-1.1032e-06
0.000132443
-1.18419e-06
0.000132397
-1.26491e-06
0.000132344
-1.34516e-06
0.000132284
-1.4247e-06
0.000132215
-1.50324e-06
0.000132138
-1.58044e-06
0.000132052
-1.65593e-06
0.000131956
-1.72928e-06
0.000131851
-1.80002e-06
0.000131735
-1.86768e-06
0.000131608
-1.93173e-06
0.00013147
-1.99164e-06
0.000131321
-2.04689e-06
0.00013116
-2.09693e-06
0.000130987
-2.14124e-06
0.000130803
-2.17933e-06
0.000130608
-2.21071e-06
0.000130402
-2.23503e-06
-2.25163e-06
0.000130185
0.000136418
-4.28702e-08
0.000136417
-1.27216e-07
0.000136415
-2.0943e-07
0.000136411
-2.90076e-07
0.000136406
-3.6949e-07
0.000136398
-4.47975e-07
0.000136387
-5.2578e-07
0.000136372
-6.03087e-07
0.000136354
-6.80013e-07
0.000136332
-7.56621e-07
0.000136305
-8.32931e-07
0.000136273
-9.08929e-07
0.000136235
-9.84568e-07
0.000136192
-1.05977e-06
0.000136142
-1.13441e-06
0.000136085
-1.20835e-06
0.000136022
-1.28139e-06
0.00013595
-1.35327e-06
0.000135871
-1.42373e-06
0.000135783
-1.49245e-06
0.000135686
-1.55905e-06
0.00013558
-1.62316e-06
0.000135464
-1.68434e-06
0.000135339
-1.74215e-06
0.000135203
-1.79615e-06
0.000135057
-1.84585e-06
0.000134901
-1.8908e-06
0.000134735
-1.93054e-06
0.000134558
-1.96464e-06
0.000134371
-1.99269e-06
0.000134175
-2.0143e-06
0.000133969
-2.0292e-06
-2.03687e-06
0.000133754
0.000140315
-4.22743e-08
0.000140313
-1.25227e-07
0.000140309
-2.05657e-07
0.000140303
-2.8401e-07
0.000140294
-3.60624e-07
0.000140282
-4.35816e-07
0.000140266
-5.09864e-07
0.000140246
-5.8298e-07
0.000140222
-6.55311e-07
0.000140192
-7.26941e-07
0.000140157
-7.97904e-07
0.000140116
-8.68197e-07
0.000140069
-9.37777e-07
0.000140016
-1.00657e-06
0.000139956
-1.07446e-06
0.000139889
-1.1413e-06
0.000139815
-1.2069e-06
0.000139732
-1.27102e-06
0.000139642
-1.33341e-06
0.000139543
-1.39376e-06
0.000139436
-1.45173e-06
0.00013932
-1.50698e-06
0.000139195
-1.55913e-06
0.00013906
-1.60778e-06
0.000138917
-1.65253e-06
0.000138764
-1.69298e-06
0.000138602
-1.72873e-06
0.000138431
-1.75942e-06
0.000138251
-1.78468e-06
0.000138062
-1.8042e-06
0.000137866
-1.81766e-06
0.000137661
-1.82487e-06
-1.82543e-06
0.00013745
0.000144323
-4.11546e-08
0.00014432
-1.2184e-07
0.000144314
-1.99547e-07
0.000144305
-2.74678e-07
0.000144292
-3.47625e-07
0.000144275
-4.1873e-07
0.000144253
-4.88291e-07
0.000144227
-5.56547e-07
0.000144195
-6.23669e-07
0.000144158
-6.89759e-07
0.000144115
-7.54868e-07
0.000144065
-8.19002e-07
0.00014401
-8.82131e-07
0.000143947
-9.44186e-07
0.000143878
-1.00506e-06
0.000143801
-1.06463e-06
0.000143717
-1.1227e-06
0.000143625
-1.17906e-06
0.000143525
-1.23348e-06
0.000143417
-1.28568e-06
0.000143301
-1.33537e-06
0.000143176
-1.38223e-06
0.000143043
-1.42593e-06
0.000142901
-1.46612e-06
0.000142751
-1.50248e-06
0.000142593
-1.53465e-06
0.000142426
-1.56233e-06
0.000142252
-1.58518e-06
0.000142071
-1.60294e-06
0.000141882
-1.61535e-06
0.000141686
-1.62219e-06
0.000141485
-1.62331e-06
-1.61841e-06
0.000141278
0.000148447
-4.02355e-08
0.000148444
-1.18458e-07
0.000148437
-1.92967e-07
0.000148427
-2.64106e-07
0.000148411
-3.32439e-07
0.000148391
-3.98423e-07
0.000148365
-4.62448e-07
0.000148333
-5.24834e-07
0.000148296
-5.85806e-07
0.000148251
-6.45504e-07
0.0001482
-7.04003e-07
0.000148143
-7.61327e-07
0.000148078
-8.17458e-07
0.000148006
-8.72339e-07
0.000147927
-9.25877e-07
0.00014784
-9.77946e-07
0.000147746
-1.02839e-06
0.000147644
-1.07701e-06
0.000147534
-1.1236e-06
0.000147416
-1.16792e-06
0.000147291
-1.2097e-06
0.000147157
-1.24869e-06
0.000147016
-1.28458e-06
0.000146867
-1.3171e-06
0.00014671
-1.34596e-06
0.000146547
-1.37088e-06
0.000146376
-1.3916e-06
0.000146199
-1.40788e-06
0.000146015
-1.41949e-06
0.000145826
-1.42625e-06
0.000145632
-1.428e-06
0.000145433
-1.42465e-06
-1.41597e-06
0.000145231
0.000152687
-3.82003e-08
0.000152682
-1.13048e-07
0.000152672
-1.83475e-07
0.000152658
-2.49956e-07
0.000152639
-3.13143e-07
0.000152614
-3.73526e-07
0.000152583
-4.31547e-07
0.000152546
-4.87607e-07
0.000152502
-5.41986e-07
0.000152451
-5.94868e-07
0.000152394
-6.4636e-07
0.000152329
-6.96514e-07
0.000152257
-7.45333e-07
0.000152177
-7.92781e-07
0.00015209
-8.38788e-07
0.000151995
-8.83254e-07
0.000151893
-9.26046e-07
0.000151783
-9.67003e-07
0.000151665
-1.00594e-06
0.00015154
-1.04266e-06
0.000151407
-1.07693e-06
0.000151267
-1.10853e-06
0.00015112
-1.13723e-06
0.000150965
-1.16279e-06
0.000150805
-1.18498e-06
0.000150637
-1.20358e-06
0.000150464
-1.21837e-06
0.000150285
-1.22918e-06
0.000150102
-1.23584e-06
0.000149914
-1.2382e-06
0.000149722
-1.23615e-06
0.000149527
-1.22966e-06
-1.21854e-06
0.000149329
0.000157052
-3.87061e-08
0.00015705
-1.10915e-07
0.000157043
-1.765e-07
0.00015703
-2.3675e-07
0.00015701
-2.93082e-07
0.000156982
-3.46194e-07
0.000156947
-3.96706e-07
0.000156905
-4.45137e-07
0.000156855
-4.91821e-07
0.000156797
-5.36965e-07
0.000156731
-5.80695e-07
0.000156658
-6.23076e-07
0.000156577
-6.64122e-07
0.000156488
-7.0381e-07
0.000156391
-7.42084e-07
0.000156286
-7.78859e-07
0.000156174
-8.14024e-07
0.000156055
-8.47443e-07
0.000155928
-8.78962e-07
0.000155794
-9.08411e-07
0.000155652
-9.35614e-07
0.000155504
-9.60387e-07
0.00015535
-9.82547e-07
0.000155189
-1.00191e-06
0.000155022
-1.0183e-06
0.00015485
-1.03154e-06
0.000154673
-1.04148e-06
0.000154492
-1.04798e-06
0.000154307
-1.05092e-06
0.000154119
-1.05022e-06
0.000153929
-1.04579e-06
0.000153737
-1.03764e-06
-1.02564e-06
0.000153544
0.000161535
-3.52149e-08
0.000161529
-1.05007e-07
0.000161519
-1.66086e-07
0.000161503
-2.20745e-07
0.00016148
-2.70541e-07
0.00016145
-3.16347e-07
0.000161413
-3.59145e-07
0.000161367
-3.99643e-07
0.000161314
-4.38256e-07
0.000161252
-4.75255e-07
0.000161182
-5.10817e-07
0.000161104
-5.45039e-07
0.000161018
-5.77962e-07
0.000160924
-6.09585e-07
0.000160821
-6.39875e-07
0.000160711
-6.68773e-07
0.000160593
-6.96196e-07
0.000160468
-7.22048e-07
0.000160335
-7.46216e-07
0.000160195
-7.68578e-07
0.000160049
-7.89001e-07
0.000159896
-8.07346e-07
0.000159737
-8.23475e-07
0.000159572
-8.37246e-07
0.000159402
-8.48527e-07
0.000159228
-8.57189e-07
0.00015905
-8.63116e-07
0.000158868
-8.66208e-07
0.000158683
-8.6638e-07
0.000158497
-8.63568e-07
0.000158309
-8.57722e-07
0.00015812
-8.4884e-07
-8.36831e-07
0.000157931
0.000166161
-4.29625e-08
0.000166165
-1.0909e-07
0.000166161