/*--------------------------------*- C++ -*----------------------------------*\
  =========                 |
  \\      /  F ield         | OpenFOAM: The Open Source CFD Toolbox
   \\    /   O peration     | Website:  https://openfoam.org
    \\  /    A nd           | Version:  10
     \\/     M anipulation  |
\*---------------------------------------------------------------------------*/
FoamFile
{
    format      ascii;
    class       volScalarField;
    location    "0.08";
    object      nut;
}
// * * * * * * * * * * * * * * * * * * * * * * * * * * * * * * * * * * * * * //

dimensions      [0 2 -1 0 0 0 0];

internalField   nonuniform List<scalar> 
6820
(
0.00050321
0.000397022
0.00032434
0.000269032
0.000235976
0.000213379
0.000196531
0.000183563
0.000173009
0.000164074
0.000156304
0.000149406
0.000143178
0.000137479
0.000132204
0.000127271
0.000122618
0.000118193
0.000113954
0.000109864
0.000105893
0.000102014
9.82026e-05
9.44361e-05
9.06951e-05
8.69624e-05
8.32208e-05
7.94643e-05
7.56652e-05
7.18776e-05
6.79493e-05
6.42451e-05
5.95177e-05
8.18675e-05
0.000143766
0.00019648
0.000210885
0.00020642
0.000197505
0.000187176
0.000177195
0.000168153
0.000160036
0.000152741
0.00014615
0.000140156
0.000134667
0.000129611
0.000124926
0.000120562
0.000116477
0.000112634
0.000109001
0.000105554
0.000102268
9.91232e-05
9.61021e-05
9.31883e-05
9.03661e-05
8.76217e-05
8.49356e-05
8.22983e-05
7.96556e-05
7.70082e-05
7.41388e-05
7.10686e-05
3.85865e-05
2.73713e-05
4.31314e-05
7.4644e-05
9.61336e-05
0.000109563
0.000116864
0.000120205
0.000121165
0.00012065
0.000119221
0.000117232
0.000114905
0.000112388
0.000109773
0.000107124
0.000104481
0.000101872
9.93173e-05
9.68276e-05
9.44109e-05
9.20716e-05
8.98122e-05
8.76332e-05
8.5534e-05
8.35125e-05
8.15655e-05
7.96856e-05
7.7865e-05
7.60742e-05
7.42949e-05
7.2417e-05
7.05246e-05
1.99685e-05
2.35085e-05
2.20239e-05
1.26834e-05
2.88483e-06
1.2706e-05
2.33666e-05
3.2166e-05
3.92889e-05
4.49865e-05
4.94993e-05
5.30413e-05
5.57846e-05
5.78707e-05
5.94216e-05
6.05372e-05
6.13002e-05
6.17789e-05
6.20302e-05
6.21012e-05
6.20314e-05
6.18539e-05
6.15962e-05
6.12818e-05
6.09301e-05
6.05572e-05
6.01759e-05
5.97946e-05
5.94196e-05
5.90469e-05
5.86793e-05
5.83078e-05
5.80328e-05
1.32496e-05
1.50585e-05
1.99115e-05
2.20089e-05
2.14452e-05
1.94668e-05
1.67802e-05
1.37519e-05
1.05988e-05
7.45048e-06
4.3914e-06
1.50594e-06
1.3899e-06
3.91023e-06
6.27526e-06
8.4562e-06
1.04591e-05
1.22964e-05
1.39836e-05
1.55376e-05
1.6976e-05
1.83163e-05
1.95761e-05
2.07723e-05
2.19213e-05
2.30382e-05
2.41376e-05
2.52321e-05
2.63342e-05
2.74541e-05
2.86125e-05
2.98446e-05
3.12544e-05
1.01991e-05
1.09968e-05
1.18159e-05
1.26259e-05
1.3278e-05
1.38393e-05
1.42504e-05
1.44741e-05
1.45206e-05
1.44096e-05
1.41612e-05
1.37967e-05
1.33334e-05
1.27863e-05
1.21726e-05
1.15067e-05
1.08003e-05
1.00627e-05
9.30043e-06
8.51802e-06
7.7177e-06
6.89984e-06
6.06309e-06
5.20463e-06
4.32026e-06
3.40454e-06
2.45093e-06
1.45135e-06
4.01508e-07
6.78759e-07
1.89984e-06
3.27664e-06
4.86115e-06
7.54762e-06
8.23086e-06
8.64057e-06
8.87111e-06
8.77021e-06
8.57418e-06
8.42515e-06
8.35321e-06
8.35102e-06
8.39341e-06
8.45294e-06
8.51039e-06
8.55733e-06
8.58964e-06
8.60326e-06
8.59633e-06
8.56843e-06
8.51984e-06
8.45117e-06
8.36313e-06
8.25632e-06
8.13113e-06
7.98764e-06
7.82547e-06
7.64369e-06
7.44057e-06
7.2134e-06
6.95725e-06
6.66533e-06
6.32148e-06
5.91126e-06
5.38606e-06
4.72894e-06
5.76928e-06
6.59598e-06
6.97515e-06
7.0792e-06
6.82387e-06
6.46106e-06
6.13026e-06
5.85527e-06
5.63461e-06
5.45932e-06
5.31748e-06
5.19932e-06
5.09767e-06
5.00747e-06
4.92535e-06
4.84875e-06
4.77558e-06
4.70415e-06
4.63318e-06
4.56175e-06
4.48925e-06
4.41532e-06
4.33979e-06
4.26264e-06
4.18391e-06
4.10358e-06
4.02138e-06
3.93611e-06
3.84576e-06
3.7447e-06
3.62688e-06
3.47982e-06
3.29315e-06
4.4996e-06
5.23807e-06
5.51379e-06
5.65676e-06
5.56896e-06
5.35676e-06
5.10891e-06
4.85882e-06
4.62548e-06
4.41674e-06
4.23082e-06
4.06331e-06
3.91018e-06
3.76806e-06
3.63408e-06
3.50593e-06
3.38175e-06
3.26007e-06
3.13968e-06
3.0196e-06
2.89898e-06
2.77708e-06
2.65329e-06
2.52711e-06
2.39809e-06
2.26582e-06
2.12985e-06
1.98949e-06
1.844e-06
1.69245e-06
1.53666e-06
1.38913e-06
1.27305e-06
3.57501e-06
4.23355e-06
4.49014e-06
4.63986e-06
4.59784e-06
4.43149e-06
4.22649e-06
4.02028e-06
3.82877e-06
3.65632e-06
3.50025e-06
3.35657e-06
3.22213e-06
3.09441e-06
2.97143e-06
2.85168e-06
2.73393e-06
2.61716e-06
2.50043e-06
2.3829e-06
2.26385e-06
2.1426e-06
2.01863e-06
1.89149e-06
1.76092e-06
1.62688e-06
1.4898e-06
1.35097e-06
1.21383e-06
1.08683e-06
9.88685e-07
9.58151e-07
1.03811e-06
2.88911e-06
3.46192e-06
3.69677e-06
3.83122e-06
3.82214e-06
3.71025e-06
3.55757e-06
3.39307e-06
3.23063e-06
3.07716e-06
2.93407e-06
2.80049e-06
2.67505e-06
2.55624e-06
2.44254e-06
2.3326e-06
2.22524e-06
2.11941e-06
2.01424e-06
1.909e-06
1.80314e-06
1.69627e-06
1.58823e-06
1.47917e-06
1.36972e-06
1.26129e-06
1.15667e-06
1.06108e-06
9.83907e-07
9.4101e-07
9.54013e-07
1.04633e-06
1.22685e-06
2.36708e-06
2.8603e-06
3.09034e-06
3.22636e-06
3.2469e-06
3.17148e-06
3.04741e-06
2.90398e-06
2.75758e-06
2.61697e-06
2.48487e-06
2.36108e-06
2.24457e-06
2.13408e-06
2.02831e-06
1.92615e-06
1.82664e-06
1.72903e-06
1.63272e-06
1.5373e-06
1.4426e-06
1.34874e-06
1.25623e-06
1.16624e-06
1.08088e-06
1.00368e-06
9.40318e-07
8.99276e-07
8.91684e-07
9.29732e-07
1.0228e-06
1.17654e-06
1.38885e-06
1.96025e-06
2.38632e-06
2.616e-06
2.7529e-06
2.79125e-06
2.74377e-06
2.64772e-06
2.52948e-06
2.4039e-06
2.27916e-06
2.15871e-06
2.04358e-06
1.93385e-06
1.82913e-06
1.72882e-06
1.6323e-06
1.53901e-06
1.44849e-06
1.36047e-06
1.27491e-06
1.19212e-06
1.11285e-06
1.03854e-06
9.71502e-07
9.15309e-07
8.7501e-07
8.57074e-07
8.68693e-07
9.16258e-07
1.00414e-06
1.13397e-06
1.30648e-06
1.51868e-06
1.63579e-06
2.00771e-06
2.23936e-06
2.38185e-06
2.43721e-06
2.41447e-06
2.34185e-06
2.24274e-06
2.13181e-06
2.01799e-06
1.90602e-06
1.79799e-06
1.69472e-06
1.59629e-06
1.50245e-06
1.41285e-06
1.32719e-06
1.24535e-06
1.16742e-06
1.09382e-06
1.02542e-06
9.63692e-07
9.10823e-07
8.69891e-07
8.44827e-07
8.40124e-07
8.60169e-07
9.08454e-07
9.87023e-07
1.09667e-06
1.23715e-06
1.40849e-06
1.60793e-06
1.37121e-06
1.70185e-06
1.93687e-06
2.08724e-06
2.15661e-06
2.15329e-06
2.09997e-06
2.01801e-06
1.9217e-06
1.81999e-06
1.71797e-06
1.61829e-06
1.52231e-06
1.43063e-06
1.34348e-06
1.26097e-06
1.18325e-06
1.1106e-06
1.04355e-06
9.82974e-07
9.30203e-07
8.87085e-07
8.56004e-07
8.39771e-07
8.41331e-07
8.63337e-07
9.07738e-07
9.7561e-07
1.06724e-06
1.18249e-06
1.3208e-06
1.48209e-06
1.66381e-06
1.15083e-06
1.45195e-06
1.69138e-06
1.85135e-06
1.93411e-06
1.94833e-06
1.91278e-06
1.84654e-06
1.76331e-06
1.67209e-06
1.57853e-06
1.48602e-06
1.39658e-06
1.31136e-06
1.23107e-06
1.15621e-06
1.08724e-06
1.02478e-06
9.69635e-07
9.22919e-07
8.86067e-07
8.60808e-07
8.49049e-07
8.52667e-07
8.73259e-07
9.11938e-07
9.69263e-07
1.04533e-06
1.1399e-06
1.25263e-06
1.38291e-06
1.53055e-06
1.69319e-06
9.63418e-07
1.24566e-06
1.49088e-06
1.66156e-06
1.75722e-06
1.78699e-06
1.76716e-06
1.71505e-06
1.64397e-06
1.56304e-06
1.47831e-06
1.39367e-06
1.31159e-06
1.23364e-06
1.16089e-06
1.09417e-06
1.03423e-06
9.81892e-07
9.38112e-07
9.03988e-07
8.80747e-07
8.69657e-07
8.71899e-07
8.88436e-07
9.19902e-07
9.66579e-07
1.02844e-06
1.10524e-06
1.1966e-06
1.30211e-06
1.42112e-06
1.55332e-06
1.69665e-06
8.0085e-07
1.07398e-06
1.32671e-06
1.50872e-06
1.6171e-06
1.66138e-06
1.6563e-06
1.61772e-06
1.55844e-06
1.48762e-06
1.4116e-06
1.33471e-06
1.25989e-06
1.18912e-06
1.12383e-06
1.06511e-06
1.01391e-06
9.71105e-07
9.37581e-07
9.14213e-07
9.01835e-07
9.01169e-07
9.12755e-07
9.36921e-07
9.73756e-07
1.02314e-06
1.08481e-06
1.1584e-06
1.24347e-06
1.33959e-06
1.44609e-06
1.56258e-06
1.68729e-06
6.57203e-07
9.3061e-07
1.19281e-06
1.38647e-06
1.50737e-06
1.56529e-06
1.57395e-06
1.54803e-06
1.49989e-06
1.43872e-06
1.37113e-06
1.30182e-06
1.23408e-06
1.17022e-06
1.11188e-06
1.06032e-06
1.01652e-06
9.81328e-07
9.55445e-07
9.39475e-07
9.33888e-07
9.38997e-07
9.54903e-07
9.81626e-07
1.019e-06
1.06673e-06
1.12446e-06
1.19179e-06
1.26825e-06
1.35339e-06
1.44654e-06
1.54725e-06
1.65416e-06
5.28372e-07
8.11546e-07
1.08514e-06
1.29048e-06
1.42362e-06
1.49454e-06
1.51629e-06
1.50263e-06
1.46549e-06
1.41404e-06
1.35509e-06
1.29358e-06
1.23308e-06
1.17613e-06
1.12454e-06
1.07963e-06
1.04237e-06
1.01349e-06
9.93501e-07
9.82747e-07
9.8142e-07
9.89593e-07
1.00699e-06
1.03354e-06
1.06891e-06
1.11276e-06
1.1647e-06
1.22432e-06
1.29115e-06
1.36475e-06
1.44448e-06
1.52987e-06
1.61991e-06
4.12214e-07
7.15013e-07
1.00133e-06
1.21795e-06
1.36278e-06
1.44589e-06
1.4798e-06
1.47747e-06
1.4504e-06
1.40767e-06
1.35621e-06
1.30122e-06
1.24645e-06
1.19463e-06
1.14768e-06
1.10697e-06
1.07344e-06
1.04772e-06
1.03018e-06
1.02098e-06
1.02012e-06
1.02744e-06
1.04299e-06
1.06625e-06
1.09687e-06
1.13448e-06
1.17871e-06
1.22917e-06
1.28541e-06
1.347e-06
1.41338e-06
1.48405e-06
1.55841e-06
3.09926e-07
6.4155e-07
9.40505e-07
1.16761e-06
1.32352e-06
1.41831e-06
1.46401e-06
1.47294e-06
1.45615e-06
1.42263e-06
1.37935e-06
1.3316e-06
1.28325e-06
1.23708e-06
1.19506e-06
1.15853e-06
1.12839e-06
1.10515e-06
1.08909e-06
1.08027e-06
1.07856e-06
1.0837e-06
1.09584e-06
1.11434e-06
1.13886e-06
1.16908e-06
1.20462e-06
1.24514e-06
1.29023e-06
1.33951e-06
1.39249e-06
1.44871e-06
1.50793e-06
2.3071e-07
5.93839e-07
9.02856e-07
1.13878e-06
1.30444e-06
1.40946e-06
1.46526e-06
1.48348e-06
1.47474e-06
1.44791e-06
1.41e-06
1.36636e-06
1.32105e-06
1.27699e-06
1.23623e-06
1.20017e-06
1.16969e-06
1.14529e-06
1.12722e-06
1.11548e-06
1.11e-06
1.11062e-06
1.11667e-06
1.12816e-06
1.14476e-06
1.16615e-06
1.19199e-06
1.22197e-06
1.25574e-06
1.29298e-06
1.33329e-06
1.37626e-06
1.42184e-06
2.00319e-07
5.7614e-07
8.89929e-07
1.13286e-06
1.30769e-06
1.4231e-06
1.48975e-06
1.51861e-06
1.5198e-06
1.50188e-06
1.47171e-06
1.43457e-06
1.39451e-06
1.35442e-06
1.31635e-06
1.2817e-06
1.25134e-06
1.22579e-06
1.20529e-06
1.18989e-06
1.17951e-06
1.17404e-06
1.17297e-06
1.17627e-06
1.18372e-06
1.19506e-06
1.21002e-06
1.22834e-06
1.24978e-06
1.27407e-06
1.30094e-06
1.33001e-06
1.36152e-06
2.42042e-07
5.92183e-07
9.02915e-07
1.14942e-06
1.33043e-06
1.45271e-06
1.52587e-06
1.56024e-06
1.56561e-06
1.55051e-06
1.52187e-06
1.48519e-06
1.44457e-06
1.40304e-06
1.36273e-06
1.32505e-06
1.29091e-06
1.26081e-06
1.23497e-06
1.21343e-06
1.19609e-06
1.18276e-06
1.1734e-06
1.16768e-06
1.16541e-06
1.16642e-06
1.17052e-06
1.17755e-06
1.18736e-06
1.19977e-06
1.21463e-06
1.23164e-06
1.25121e-06
3.38266e-07
6.44169e-07
9.45523e-07
1.19471e-06
1.38364e-06
1.51647e-06
1.60133e-06
1.64744e-06
1.66376e-06
1.65817e-06
1.63724e-06
1.60626e-06
1.56929e-06
1.52941e-06
1.48883e-06
1.44911e-06
1.4113e-06
1.37604e-06
1.3437e-06
1.31445e-06
1.28832e-06
1.26526e-06
1.24521e-06
1.22802e-06
1.21359e-06
1.20181e-06
1.19262e-06
1.18595e-06
1.18174e-06
1.17994e-06
1.1805e-06
1.18324e-06
1.18871e-06
4.66929e-07
7.31231e-07
1.01683e-06
1.26241e-06
1.45112e-06
1.58396e-06
1.66803e-06
1.71244e-06
1.72632e-06
1.7178e-06
1.69363e-06
1.65916e-06
1.61847e-06
1.57455e-06
1.52953e-06
1.48485e-06
1.44145e-06
1.39993e-06
1.36058e-06
1.32357e-06
1.28892e-06
1.25662e-06
1.22663e-06
1.19889e-06
1.17337e-06
1.15008e-06
1.12903e-06
1.11028e-06
1.09388e-06
1.07992e-06
1.06847e-06
1.05952e-06
1.05363e-06
6.21192e-07
8.54648e-07
1.12728e-06
1.37665e-06
1.57803e-06
1.72778e-06
1.82983e-06
1.89098e-06
1.91881e-06
1.92064e-06
1.90299e-06
1.87137e-06
1.8302e-06
1.78294e-06
1.73218e-06
1.6798e-06
1.62712e-06
1.57502e-06
1.52405e-06
1.47453e-06
1.42665e-06
1.38048e-06
1.33606e-06
1.29339e-06
1.25251e-06
1.21347e-06
1.17634e-06
1.14124e-06
1.10833e-06
1.07779e-06
1.04981e-06
1.02453e-06
1.00258e-06
8.02747e-07
1.01316e-06
1.2648e-06
1.49857e-06
1.68444e-06
1.81802e-06
1.90467e-06
1.95268e-06
1.97034e-06
1.96491e-06
1.94235e-06
1.90743e-06
1.8638e-06
1.81425e-06
1.76084e-06
1.70509e-06
1.64808e-06
1.59058e-06
1.53312e-06
1.47605e-06
1.41963e-06
1.36401e-06
1.30931e-06
1.25566e-06
1.20317e-06
1.15198e-06
1.10226e-06
1.05424e-06
1.00818e-06
9.64381e-07
9.23158e-07
8.84872e-07
8.49996e-07
1.01714e-06
1.21788e-06
1.472e-06
1.7311e-06
1.95494e-06
2.12769e-06
2.24729e-06
2.31867e-06
2.34955e-06
2.3482e-06
2.32234e-06
2.27861e-06
2.22233e-06
2.15764e-06
2.08758e-06
2.01435e-06
1.93949e-06
1.864e-06
1.78854e-06
1.71354e-06
1.63922e-06
1.56572e-06
1.49314e-06
1.42153e-06
1.35097e-06
1.28157e-06
1.21344e-06
1.14678e-06
1.08182e-06
1.01884e-06
9.58141e-07
9.00169e-07
8.45189e-07
1.2754e-06
1.46349e-06
1.67642e-06
1.87947e-06
2.0447e-06
2.16807e-06
2.25382e-06
2.30747e-06
2.33369e-06
2.33651e-06
2.31961e-06
2.28646e-06
2.24018e-06
2.18358e-06
2.11906e-06
2.04866e-06
1.97403e-06
1.89648e-06
1.81702e-06
1.73639e-06
1.65517e-06
1.57374e-06
1.4924e-06
1.41138e-06
1.33084e-06
1.25095e-06
1.1719e-06
1.09385e-06
1.01704e-06
9.41716e-07
8.68119e-07
7.96727e-07
7.27124e-07
1.58964e-06
1.80045e-06
2.08212e-06
2.39793e-06
2.67333e-06
2.87295e-06
2.99574e-06
3.05413e-06
3.06243e-06
3.03375e-06
2.97896e-06
2.90631e-06
2.82173e-06
2.72936e-06
2.63204e-06
2.53164e-06
2.42942e-06
2.32624e-06
2.22267e-06
2.1191e-06
2.01581e-06
1.913e-06
1.81083e-06
1.70942e-06
1.60889e-06
1.50936e-06
1.41096e-06
1.31385e-06
1.21822e-06
1.12425e-06
1.03213e-06
9.42246e-07
8.53872e-07
1.99045e-06
2.15671e-06
2.27292e-06
2.39251e-06
2.52271e-06
2.65453e-06
2.77489e-06
2.87212e-06
2.93838e-06
2.97087e-06
2.97099e-06
2.94259e-06
2.89054e-06
2.8198e-06
2.73487e-06
2.63961e-06
2.53712e-06
2.42983e-06
2.31956e-06
2.20768e-06
2.09517e-06
1.98271e-06
1.87079e-06
1.75976e-06
1.64984e-06
1.54124e-06
1.43413e-06
1.3287e-06
1.22516e-06
1.12381e-06
1.02489e-06
9.29113e-07
8.35056e-07
2.49758e-06
2.84501e-06
3.31542e-06
3.77798e-06
4.09046e-06
4.24406e-06
4.28626e-06
4.25798e-06
4.18572e-06
4.08666e-06
3.97101e-06
3.8443e-06
3.70968e-06
3.56922e-06
3.42451e-06
3.27693e-06
3.12777e-06
2.97823e-06
2.82934e-06
2.68201e-06
2.53696e-06
2.39475e-06
2.25577e-06
2.12031e-06
1.98855e-06
1.8606e-06
1.73655e-06
1.61649e-06
1.50055e-06
1.38898e-06
1.28203e-06
1.18049e-06
1.08337e-06
3.20837e-06
3.1498e-06
2.92353e-06
2.93014e-06
3.16094e-06
3.46567e-06
3.73952e-06
3.93708e-06
4.04919e-06
4.08754e-06
4.07174e-06
4.02095e-06
3.95066e-06
3.87204e-06
3.79227e-06
3.71535e-06
3.64307e-06
3.5758e-06
3.51316e-06
3.45445e-06
3.39886e-06
3.34567e-06
3.29426e-06
3.24416e-06
3.19503e-06
3.14664e-06
3.09886e-06
3.05163e-06
3.00509e-06
2.95952e-06
2.91538e-06
2.87467e-06
2.83517e-06
4.25524e-06
5.53603e-06
6.33831e-06
6.6197e-06
6.54809e-06
6.35456e-06
6.22573e-06
6.24288e-06
6.41299e-06
6.69999e-06
7.05362e-06
7.42923e-06
7.79414e-06
8.12723e-06
8.41673e-06
8.65759e-06
8.8492e-06
8.99365e-06
9.09454e-06
9.1562e-06
9.18316e-06
9.17985e-06
9.1504e-06
9.09853e-06
9.02751e-06
8.94009e-06
8.83861e-06
8.72482e-06
8.60036e-06
8.46595e-06
8.32363e-06
8.17438e-06
8.02123e-06
5.58858e-06
3.56646e-06
2.81129e-06
4.70335e-06
7.41863e-06
9.97578e-06
1.21449e-05
1.38633e-05
1.51445e-05
1.60307e-05
1.65696e-05
1.68095e-05
1.67984e-05
1.65811e-05
1.61981e-05
1.56855e-05
1.50745e-05
1.43915e-05
1.36586e-05
1.2894e-05
1.21121e-05
1.13243e-05
1.05395e-05
9.76424e-06
9.00336e-06
8.26004e-06
7.53623e-06
6.83229e-06
6.14856e-06
5.48155e-06
4.83447e-06
4.19347e-06
3.58224e-06
1.14278e-05
1.65407e-05
1.83223e-05
1.98416e-05
2.03196e-05
1.95814e-05
1.78504e-05
1.54005e-05
1.25842e-05
9.9326e-06
8.30776e-06
8.62578e-06
1.06748e-05
1.35184e-05
1.65614e-05
1.95403e-05
2.23414e-05
2.49166e-05
2.725e-05
2.93419e-05
3.12016e-05
3.28429e-05
3.42819e-05
3.55352e-05
3.66193e-05
3.75501e-05
3.83426e-05
3.90111e-05
3.95703e-05
4.00345e-05
4.04237e-05
4.07559e-05
4.10818e-05
2.48551e-05
2.86405e-05
3.89751e-05
5.33852e-05
6.76128e-05
8.14987e-05
9.43119e-05
0.00010545
0.000114868
0.000122645
0.000128887
0.000133749
0.0001374
0.000140004
0.000141713
0.000142664
0.000142978
0.000142763
0.00014211
0.000141097
0.000139791
0.000138248
0.000136516
0.000134633
0.000132631
0.000130538
0.000128376
0.000126159
0.000123905
0.000121616
0.00011931
0.000116994
0.000114885
0.000543292
0.000510561
0.000491608
0.000467953
0.000443975
0.00042169
0.000400256
0.000379736
0.000360396
0.000342252
0.000325286
0.000309484
0.000294799
0.000281168
0.000268518
0.000256776
0.000245866
0.000235713
0.000226249
0.000217406
0.000209126
0.000201353
0.000194037
0.000187134
0.000180603
0.000174409
0.000168517
0.000162902
0.000157518
0.000152372
0.000147293
0.000142852
0.000138728
5.75654e-05
5.50314e-05
4.66922e-05
4.37773e-05
4.51044e-05
4.71893e-05
4.83823e-05
4.76509e-05
4.47174e-05
4.04246e-05
3.61979e-05
3.27794e-05
2.97968e-05
2.55127e-05
1.71104e-05
1.11402e-05
1.32475e-05
1.88602e-05
2.09959e-05
2.64827e-05
3.69243e-05
4.17024e-05
4.03858e-05
3.74636e-05
3.56366e-05
3.52301e-05
3.61873e-05
3.88349e-05
4.277e-05
4.55151e-05
4.33893e-05
3.70601e-05
3.0003e-05
2.45987e-05
2.09826e-05
1.8133e-05
1.525e-05
1.21412e-05
9.28025e-06
7.51315e-06
7.00729e-06
9.7203e-06
1.82544e-05
2.76237e-05
3.2945e-05
3.33976e-05
3.07755e-05
2.7036e-05
2.3345e-05
2.01701e-05
1.75587e-05
1.53861e-05
1.35256e-05
1.19018e-05
1.04747e-05
9.21601e-06
8.09981e-06
7.10246e-06
6.20438e-06
5.39096e-06
4.65214e-06
3.98146e-06
3.37506e-06
2.8309e-06
2.34799e-06
1.92577e-06
1.56341e-06
1.25926e-06
1.01049e-06
8.12546e-07
6.60494e-07
5.47256e-07
4.65916e-07
4.09831e-07
3.73116e-07
3.50925e-07
3.39428e-07
3.35858e-07
3.38605e-07
3.47274e-07
3.62352e-07
3.84412e-07
4.13042e-07
4.463e-07
4.81322e-07
5.15883e-07
5.49315e-07
5.81189e-07
6.08706e-07
6.26412e-07
6.30341e-07
6.22294e-07
6.09937e-07
5.99857e-07
5.94183e-07
5.86377e-07
5.75642e-07
5.49119e-07
5.41248e-07
4.59276e-07
8.92896e-05
9.03358e-05
8.42725e-05
7.021e-05
5.73322e-05
5.25537e-05
5.0396e-05
4.74278e-05
4.32734e-05
3.83531e-05
3.34497e-05
2.90158e-05
2.45229e-05
1.67563e-05
7.78714e-06
8.03236e-06
1.55474e-05
1.9935e-05
1.99496e-05
2.98214e-05
3.93122e-05
4.10886e-05
3.85241e-05
3.58384e-05
3.44304e-05
3.4199e-05
3.50148e-05
3.70797e-05
4.04557e-05
4.40189e-05
4.39987e-05
3.90184e-05
3.17507e-05
2.52426e-05
2.05951e-05
1.72085e-05
1.4163e-05
1.10121e-05
7.93954e-06
5.21624e-06
4.84227e-06
1.21925e-05
2.2678e-05
3.09116e-05
3.42628e-05
3.33857e-05
3.02554e-05
2.64833e-05
2.29456e-05
1.99502e-05
1.74731e-05
1.53837e-05
1.35759e-05
1.19897e-05
1.0589e-05
9.34529e-06
8.23321e-06
7.23125e-06
6.32292e-06
5.49647e-06
4.74395e-06
4.0602e-06
3.44212e-06
2.88797e-06
2.39689e-06
1.96824e-06
1.60104e-06
1.29345e-06
1.04235e-06
8.43304e-07
6.90125e-07
5.76183e-07
4.94292e-07
4.37609e-07
4.00099e-07
3.76802e-07
3.63893e-07
3.58739e-07
3.59939e-07
3.67258e-07
3.81212e-07
4.02259e-07
4.2982e-07
4.61827e-07
4.95401e-07
5.28494e-07
5.60931e-07
5.93017e-07
6.22515e-07
6.43813e-07
6.51877e-07
6.47197e-07
6.36253e-07
6.25215e-07
6.16714e-07
6.05314e-07
5.91085e-07
5.61473e-07
5.5228e-07
4.67284e-07
9.17465e-05
9.46993e-05
9.77785e-05
9.67162e-05
8.48446e-05
6.78783e-05
5.61714e-05
4.96421e-05
4.36619e-05
3.69465e-05
3.00992e-05
2.36367e-05
1.63866e-05
8.40169e-06
6.05104e-06
1.37603e-05
2.0208e-05
1.74073e-05
2.22492e-05
3.50828e-05
4.07348e-05
3.94994e-05
3.63595e-05
3.4117e-05
3.30554e-05
3.28783e-05
3.35306e-05
3.5171e-05
3.79333e-05
4.16732e-05
4.36783e-05
4.09931e-05
3.45312e-05
2.72403e-05
2.11616e-05
1.65903e-05
1.28201e-05
9.16791e-06
5.22014e-06
3.59475e-07
7.70584e-06
1.80624e-05
2.7856e-05
3.3754e-05
3.49979e-05
3.30015e-05
2.95367e-05
2.58273e-05
2.24929e-05
1.96992e-05
1.7368e-05
1.53732e-05
1.36287e-05
1.20862e-05
1.07136e-05
9.48407e-06
8.37461e-06
7.36707e-06
6.4482e-06
5.60882e-06
4.84274e-06
4.14595e-06
3.51602e-06
2.95159e-06
2.45189e-06
2.01618e-06
1.64321e-06
1.33075e-06
1.07531e-06
8.71976e-07
7.14769e-07
5.96954e-07
5.11447e-07
4.5163e-07
4.11705e-07
3.8691e-07
3.73544e-07
3.6893e-07
3.71416e-07
3.80304e-07
3.9554e-07
4.17061e-07
4.44012e-07
4.74382e-07
5.0567e-07
5.36454e-07
5.67367e-07
5.99564e-07
6.31289e-07
6.56703e-07
6.69916e-07
6.6997e-07
6.61989e-07
6.51545e-07
6.41497e-07
6.27356e-07
6.1e-07
5.77515e-07
5.66933e-07
4.79171e-07
7.7848e-05
8.23395e-05
8.80668e-05
9.41829e-05
9.66172e-05
8.9839e-05
7.47981e-05
5.91931e-05
4.7581e-05
3.87609e-05
3.09163e-05
2.33758e-05
1.66444e-05
1.42602e-05
1.89709e-05
2.32783e-05
1.79566e-05
1.57378e-05
3.00897e-05
3.92382e-05
3.99081e-05
3.68597e-05
3.40153e-05
3.23387e-05
3.15253e-05
3.13507e-05
3.18852e-05
3.32112e-05
3.53942e-05
3.87362e-05
4.20986e-05
4.22314e-05
3.79699e-05
3.11454e-05
2.41066e-05
1.80718e-05
1.30739e-05
8.7697e-06
5.55127e-06
7.80314e-06
1.58904e-05
2.53329e-05
3.25184e-05
3.55752e-05
3.49664e-05
3.22005e-05
2.86209e-05
2.50905e-05
2.20125e-05
1.94365e-05
1.72546e-05
1.53583e-05
1.36819e-05
1.21866e-05
1.08435e-05
9.62841e-06
8.52157e-06
7.50859e-06
6.57946e-06
5.72741e-06
4.94788e-06
4.23795e-06
3.59588e-06
3.02073e-06
2.51189e-06
2.06865e-06
1.68963e-06
1.3724e-06
1.11323e-06
9.07069e-07
7.47675e-07
6.28139e-07
5.41287e-07
4.80398e-07
4.39566e-07
4.13924e-07
3.99697e-07
3.94192e-07
3.95759e-07
4.03683e-07
4.17832e-07
4.38035e-07
4.63341e-07
4.917e-07
5.20654e-07
5.48982e-07
5.77831e-07
6.09213e-07
6.42124e-07
6.70678e-07
6.8808e-07
6.92262e-07
6.87204e-07
6.77788e-07
6.66771e-07
6.50235e-07
6.29749e-07
5.93871e-07
5.81728e-07
4.89492e-07
4.4671e-05
5.08395e-05
5.83182e-05
6.66933e-05
7.53646e-05
8.16622e-05
8.14337e-05
7.36428e-05
6.18502e-05
5.02552e-05
4.08196e-05
3.40074e-05
3.10285e-05
3.10758e-05
2.89285e-05
1.87721e-05
1.09607e-05
2.64095e-05
3.75834e-05
3.9736e-05
3.70311e-05
3.38528e-05
3.17284e-05
3.04682e-05
2.97716e-05
2.95751e-05
2.99942e-05
3.11165e-05
3.28915e-05
3.55639e-05
3.91835e-05
4.16393e-05
4.0514e-05
3.59137e-05
2.96453e-05
2.34288e-05
1.82421e-05
1.47804e-05
1.43789e-05
1.83117e-05
2.51993e-05
3.18153e-05
3.56405e-05
3.61472e-05
3.42363e-05
3.10691e-05
2.75614e-05
2.42998e-05
2.15098e-05
1.91556e-05
1.71245e-05
1.53319e-05
1.37291e-05
1.22845e-05
1.09726e-05
9.77252e-06
8.66903e-06
7.65153e-06
6.71305e-06
5.84896e-06
5.05629e-06
4.33322e-06
3.6788e-06
3.09261e-06
2.57433e-06
2.12326e-06
1.73787e-06
1.41544e-06
1.15193e-06
9.41933e-07
7.79028e-07
6.5621e-07
5.66387e-07
5.02926e-07
4.60038e-07
4.32966e-07
4.18009e-07
4.12448e-07
4.14475e-07
4.23054e-07
4.37641e-07
4.57661e-07
4.81897e-07
5.08231e-07
5.34352e-07
5.59416e-07
5.85295e-07
6.15046e-07
6.48577e-07
6.80235e-07
7.02505e-07
7.11902e-07
7.11023e-07
7.039e-07
6.93022e-07
6.74898e-07
6.51746e-07
6.12703e-07
5.99096e-07
5.02592e-07
9.52887e-06
1.44414e-05
2.07999e-05
2.83366e-05
3.67842e-05
4.57378e-05
5.36209e-05
5.79516e-05
5.74961e-05
5.33977e-05
4.77193e-05
4.23554e-05
3.6599e-05
2.76618e-05
1.33213e-05
9.22465e-06
2.63936e-05
3.69647e-05
3.91737e-05
3.66106e-05
3.33325e-05
3.10174e-05
2.9532e-05
2.85219e-05
2.79041e-05
2.77211e-05
2.8061e-05
2.90016e-05
3.04747e-05
3.25332e-05
3.55709e-05
3.90118e-05
4.07008e-05
3.93456e-05
3.55831e-05
3.09587e-05
2.69228e-05
2.46932e-05
2.52164e-05
2.84619e-05
3.27849e-05
3.59558e-05
3.6819e-05
3.55671e-05
3.29424e-05
2.96848e-05
2.64087e-05
2.34874e-05
2.10009e-05
1.88653e-05
1.69846e-05
1.5299e-05
1.37733e-05
1.23813e-05
1.11015e-05
9.91767e-06
8.81879e-06
7.79796e-06
6.85095e-06
5.97523e-06
5.1694e-06
4.43289e-06
3.76569e-06
3.16797e-06
2.63974e-06
2.18039e-06
1.78828e-06
1.4605e-06
1.19273e-06
9.79372e-07
8.13838e-07
6.8899e-07
5.97642e-07
5.33084e-07
4.89431e-07
4.61815e-07
4.4642e-07
4.40431e-07
4.41944e-07
4.49817e-07
4.63382e-07
4.81953e-07
5.0424e-07
5.28106e-07
5.51263e-07
5.73037e-07
5.95825e-07
6.23663e-07
6.57382e-07
6.91406e-07
7.17599e-07
7.31487e-07
7.3457e-07
7.30013e-07
7.19781e-07
7.0045e-07
6.74732e-07
6.32111e-07
6.16919e-07
5.14527e-07
5.019e-06
3.50266e-06
3.45844e-06
6.53564e-06
1.09153e-05
1.5607e-05
2.01449e-05
2.40439e-05
2.64839e-05
2.66424e-05
2.42351e-05
1.9047e-05
1.03264e-05
4.78368e-06
1.85443e-05
3.0862e-05
3.74907e-05
3.81063e-05
3.53492e-05
3.22176e-05
3.00037e-05
2.85316e-05
2.74156e-05
2.65631e-05
2.6034e-05
2.58918e-05
2.61879e-05
2.69678e-05
2.81907e-05
2.9811e-05
3.20597e-05
3.51931e-05
3.82547e-05
3.96814e-05
3.8976e-05
3.68932e-05
3.46579e-05
3.3459e-05
3.38352e-05
3.53925e-05
3.69083e-05
3.72929e-05
3.62682e-05
3.4111e-05
3.12458e-05
2.81458e-05
2.52278e-05
2.26846e-05
2.04947e-05
1.85676e-05
1.68353e-05
1.52592e-05
1.38132e-05
1.24757e-05
1.12298e-05
1.00639e-05
8.97139e-06
7.94851e-06
6.9937e-06
6.10652e-06
5.28734e-06
4.53697e-06
3.85644e-06
3.24662e-06
2.70791e-06
2.23982e-06
1.84062e-06
1.50716e-06
1.23484e-06
1.01777e-06
8.49088e-07
7.21544e-07
6.27884e-07
5.61397e-07
5.16221e-07
4.87512e-07
4.7146e-07
4.6521e-07
4.66732e-07
4.74656e-07
4.88016e-07
5.05836e-07
5.26611e-07
5.48105e-07
5.68046e-07
5.85938e-07
6.0472e-07
6.29469e-07
6.62242e-07
6.98172e-07
7.28636e-07
7.47889e-07
7.5609e-07
7.55371e-07
7.47007e-07
7.27437e-07
6.99782e-07
6.53843e-07
6.37227e-07
5.28909e-07
4.11425e-06
4.15229e-06
5.02694e-06
7.24212e-06
1.05074e-05
1.41675e-05
1.74059e-05
1.94825e-05
2.01548e-05
1.99022e-05
1.97748e-05
2.12412e-05
2.51298e-05
3.051e-05
3.50453e-05
3.68121e-05
3.56352e-05
3.29445e-05
3.03801e-05
2.8588e-05
2.73323e-05
2.62817e-05
2.53605e-05
2.46483e-05
2.42226e-05
2.41241e-05
2.4393e-05
2.50506e-05
2.60646e-05
2.73863e-05
2.90417e-05
3.13469e-05
3.42831e-05
3.69621e-05
3.84713e-05
3.87061e-05
3.82386e-05
3.78363e-05
3.7795e-05
3.78505e-05
3.74733e-05
3.6362e-05
3.45177e-05
3.20815e-05
2.93141e-05
2.65633e-05
2.40787e-05
2.19104e-05
1.99944e-05
1.82633e-05
1.66777e-05
1.52129e-05
1.38488e-05
1.25679e-05
1.13582e-05
1.02126e-05
9.12818e-06
8.1044e-06
7.14226e-06
6.2436e-06
5.41069e-06
4.64589e-06
3.95136e-06
3.32879e-06
2.77899e-06
2.30162e-06
1.8949e-06
1.55548e-06
1.2785e-06
1.05782e-06
8.864e-07
7.56811e-07
6.61696e-07
5.94238e-07
5.48462e-07
5.194e-07
5.03113e-07
4.9662e-07
4.97761e-07
5.05027e-07
5.17315e-07
5.33537e-07
5.52129e-07
5.70827e-07
5.87344e-07
6.0126e-07
6.15942e-07
6.37444e-07
6.68962e-07
7.06135e-07
7.40037e-07
7.64022e-07
7.77169e-07
7.80597e-07
7.74689e-07
7.55405e-07
7.2609e-07
6.76554e-07
6.58495e-07
5.4265e-07
1.73653e-06
2.36907e-06
3.744e-06
5.88134e-06
8.76264e-06
1.23234e-05
1.63197e-05
2.02822e-05
2.37233e-05
2.64317e-05
2.85968e-05
3.05419e-05
3.21917e-05
3.30797e-05
3.27727e-05
3.13796e-05
2.95638e-05
2.79843e-05
2.6825e-05
2.58961e-05
2.50092e-05
2.41433e-05
2.33792e-05
2.28037e-05
2.24686e-05
2.24e-05
2.26354e-05
2.32004e-05
2.40585e-05
2.51756e-05
2.64917e-05
2.81189e-05
3.02831e-05
3.28053e-05
3.50643e-05
3.65674e-05
3.72789e-05
3.74633e-05
3.7275e-05
3.66791e-05
3.56126e-05
3.40705e-05
3.20811e-05
2.97557e-05
2.7331e-05
2.50461e-05
2.30002e-05
2.11683e-05
1.94968e-05
1.79513e-05
1.65116e-05
1.51601e-05
1.38801e-05
1.26586e-05
1.14879e-05
1.0365e-05
9.29042e-06
8.26665e-06
7.29744e-06
6.38708e-06
5.53991e-06
4.75997e-06
4.0507e-06
3.4146e-06
2.85299e-06
2.36572e-06
1.95098e-06
1.60525e-06
1.3234e-06
1.09901e-06
9.2476e-07
7.93019e-07
6.96271e-07
6.27589e-07
5.80921e-07
5.51237e-07
5.34551e-07
5.27814e-07
5.28755e-07
5.35695e-07
5.47312e-07
5.62308e-07
5.78954e-07
5.94875e-07
6.07711e-07
6.17051e-07
6.26592e-07
6.4339e-07
6.72231e-07
7.09938e-07
7.47362e-07
7.76726e-07
7.9583e-07
8.0463e-07
8.02466e-07
7.84569e-07
7.54383e-07
7.01575e-07
6.82335e-07
5.5871e-07
1.76794e-06
2.6159e-06
3.87315e-06
5.52944e-06
7.56535e-06
9.98509e-06
1.27837e-05
1.58604e-05
1.89641e-05
2.17694e-05
2.40247e-05
2.56304e-05
2.65315e-05
2.67232e-05
2.64059e-05
2.5875e-05
2.533e-05
2.47975e-05
2.42119e-05
2.35371e-05
2.28087e-05
2.21007e-05
2.1486e-05
2.10228e-05
2.07524e-05
2.07015e-05
2.09039e-05
2.13913e-05
2.21331e-05
2.31001e-05
2.42316e-05
2.54977e-05
2.7012e-05
2.88571e-05
3.08285e-05
3.25327e-05
3.3684e-05
3.42318e-05
3.42026e-05
3.36402e-05
3.26092e-05
3.11626e-05
2.9377e-05
2.74142e-05
2.54698e-05
2.36593e-05
2.19947e-05
2.04475e-05
1.89967e-05
1.76309e-05
1.63375e-05
1.51013e-05
1.39082e-05
1.27493e-05
1.16206e-05
1.05228e-05
9.45952e-06
8.43643e-06
7.46021e-06
6.53775e-06
5.67565e-06
4.87974e-06
4.1548e-06
3.50427e-06
2.93001e-06
2.43212e-06
2.0088e-06
1.65636e-06
1.36944e-06
1.14133e-06
9.6446e-07
8.30961e-07
7.33123e-07
6.63842e-07
6.16906e-07
5.87137e-07
5.70412e-07
5.63556e-07
5.64167e-07
5.7043e-07
5.80891e-07
5.94147e-07
6.08406e-07
6.21244e-07
6.30222e-07
6.34875e-07
6.39149e-07
6.51012e-07
6.76704e-07
7.14209e-07
7.54391e-07
7.88624e-07
8.13625e-07
8.28217e-07
8.30524e-07
8.14716e-07
7.84129e-07
7.27896e-07
7.0757e-07
5.74533e-07
2.08669e-06
2.90365e-06
4.01644e-06
5.42192e-06
7.08135e-06
8.94513e-06
1.09666e-05
1.30967e-05
1.52525e-05
1.73045e-05
1.90783e-05
2.04626e-05
2.14448e-05
2.20983e-05
2.24864e-05
2.26364e-05
2.25635e-05
2.22895e-05
2.1855e-05
2.13173e-05
2.07382e-05
2.01751e-05
1.96793e-05
1.92993e-05
1.90757e-05
1.90369e-05
1.92121e-05
1.96317e-05
2.02784e-05
2.11255e-05
2.21299e-05
2.32293e-05
2.44114e-05
2.57281e-05
2.71619e-05
2.85403e-05
2.9627e-05
3.02897e-05
3.04543e-05
3.0122e-05
2.93402e-05
2.81862e-05
2.67861e-05
2.52931e-05
2.38176e-05
2.23985e-05
2.10374e-05
1.97343e-05
1.84911e-05
1.73027e-05
1.61566e-05
1.50378e-05
1.3935e-05
1.28421e-05
1.17584e-05
1.06877e-05
9.63696e-06
8.61503e-06
7.63166e-06
6.69655e-06
5.81864e-06
5.00572e-06
4.264e-06
3.59794e-06
3.01003e-06
2.50066e-06
2.06808e-06
1.70849e-06
1.41629e-06
1.18448e-06
1.00519e-06
8.70215e-07
7.71581e-07
7.01945e-07
6.54909e-07
6.25158e-07
6.08467e-07
6.01573e-07
6.01975e-07
6.07724e-07
6.17206e-07
6.28861e-07
6.40768e-07
6.5039e-07
6.5514e-07
6.54397e-07
6.52193e-07
6.57414e-07
6.78313e-07
7.14627e-07
7.57373e-07
7.96902e-07
8.28679e-07
8.50259e-07
8.58398e-07
8.45922e-07
8.15895e-07
7.56642e-07
7.35627e-07
5.92717e-07
2.29847e-06
3.05136e-06
4.02846e-06
5.23564e-06
6.64835e-06
8.22214e-06
9.90058e-06
1.16214e-05
1.33207e-05
1.4931e-05
1.63893e-05
1.76447e-05
1.86657e-05
1.94255e-05
1.99143e-05
2.01488e-05
2.01594e-05
1.99839e-05
1.96687e-05
1.92627e-05
1.88123e-05
1.8362e-05
1.79566e-05
1.76405e-05
1.74531e-05
1.74228e-05
1.75753e-05
1.79373e-05
1.85029e-05
1.92491e-05
2.01446e-05
2.11394e-05
2.21796e-05
2.32421e-05
2.43164e-05
2.53438e-05
2.62109e-05
2.68106e-05
2.7047e-05
2.68888e-05
2.6363e-05
2.55481e-05
2.45509e-05
2.34644e-05
2.23428e-05
2.12144e-05