/*--------------------------------*- C++ -*----------------------------------*\
  =========                 |
  \\      /  F ield         | OpenFOAM: The Open Source CFD Toolbox
   \\    /   O peration     | Website:  https://openfoam.org
    \\  /    A nd           | Version:  10
     \\/     M anipulation  |
\*---------------------------------------------------------------------------*/
FoamFile
{
    format      ascii;
    class       volScalarField;
    location    "0.08";
    object      p;
}
// * * * * * * * * * * * * * * * * * * * * * * * * * * * * * * * * * * * * * //

dimensions      [0 2 -2 0 0 0 0];

internalField   nonuniform List<scalar> 
6820
(
8.26308
-6.06527
-8.05659
-8.22826
-8.37174
-8.29675
-8.24622
-8.24323
-8.26107
-8.28976
-8.32267
-8.3559
-8.3876
-8.41677
-8.44275
-8.46506
-8.48328
-8.49706
-8.5061
-8.51014
-8.50902
-8.50264
-8.491
-8.47425
-8.4527
-8.42682
-8.39747
-8.36545
-8.33303
-8.2998
-8.2749
-8.24374
-8.25744
2.88445
-5.86358
-7.86281
-8.10777
-8.30307
-8.29146
-8.26209
-8.26541
-8.28339
-8.3093
-8.33906
-8.36951
-8.39897
-8.42645
-8.45121
-8.47267
-8.49032
-8.50375
-8.5126
-8.51656
-8.51544
-8.5091
-8.49752
-8.48081
-8.45926
-8.43331
-8.40372
-8.37132
-8.33793
-8.30381
-8.27478
-8.24064
-8.22344
0.803015
-4.65313
-7.07156
-7.65466
-8.02488
-8.15604
-8.18871
-8.21917
-8.25312
-8.28906
-8.32596
-8.36191
-8.39557
-8.42617
-8.45322
-8.47638
-8.49534
-8.50982
-8.51955
-8.52432
-8.52396
-8.51839
-8.50759
-8.49168
-8.4709
-8.44564
-8.41653
-8.3842
-8.34978
-8.313
-8.27477
-8.22445
-8.14721
-0.765619
-4.47136
-6.77663
-7.41861
-7.79066
-7.98547
-8.06876
-8.13165
-8.18909
-8.24066
-8.28791
-8.33135
-8.37103
-8.40687
-8.43865
-8.46618
-8.48929
-8.50779
-8.52152
-8.53032
-8.53409
-8.53278
-8.52641
-8.51511
-8.49908
-8.47866
-8.45424
-8.4262
-8.39474
-8.35884
-8.31538
-8.25516
-8.15077
-2.05191
-4.51675
-6.47076
-7.14645
-7.54739
-7.80874
-7.94672
-8.04115
-8.11927
-8.18534
-8.24336
-8.29548
-8.34224
-8.38409
-8.42138
-8.45416
-8.48239
-8.50602
-8.52499
-8.53928
-8.54887
-8.55381
-8.55418
-8.55016
-8.54195
-8.52983
-8.51406
-8.49471
-8.47143
-8.44281
-8.40422
-8.34911
-8.2524
-3.0107
-4.64091
-6.28798
-6.99501
-7.40583
-7.68985
-7.85449
-7.96615
-8.05723
-8.1339
-8.20032
-8.25951
-8.31272
-8.36051
-8.40331
-8.44143
-8.47505
-8.50429
-8.52924
-8.54999
-8.56666
-8.5794
-8.58841
-8.59394
-8.59629
-8.59576
-8.59259
-8.58684
-8.57798
-8.56477
-8.54379
-8.51152
-8.45561
-3.75755
-4.85423
-6.20179
-6.87955
-7.27723
-7.57047
-7.75983
-7.89165
-7.99767
-8.08596
-8.16131
-8.22761
-8.28677
-8.33981
-8.38751
-8.43041
-8.46884
-8.50304
-8.53322
-8.55957
-8.58234
-8.60177
-8.61819
-8.63194
-8.64344
-8.65309
-8.66128
-8.66822
-8.67384
-8.67764
-8.67804
-8.67399
-8.6626
-4.34301
-5.08554
-6.16554
-6.79705
-7.18385
-7.47996
-7.68471
-7.82991
-7.94584
-8.04246
-8.12485
-8.1972
-8.26187
-8.32011
-8.37283
-8.42068
-8.46408
-8.5034
-8.53896
-8.57105
-8.60001
-8.62619
-8.64998
-8.67185
-8.69228
-8.71179
-8.73088
-8.75
-8.76945
-8.78941
-8.80988
-8.83153
-8.8562
-4.80805
-5.31896
-6.17717
-6.74963
-7.1166
-7.40424
-7.6151
-7.76982
-7.89443
-7.9991
-8.08872
-8.16742
-8.23779
-8.30132
-8.35905
-8.41179
-8.4601
-8.50447
-8.54531
-8.58301
-8.618
-8.65072
-8.68166
-8.71135
-8.7404
-8.76943
-8.79912
-8.83016
-8.86328
-8.89929
-8.93936
-8.98528
-9.04103
-5.1825
-5.54042
-6.21748
-6.72446
-7.06796
-7.34414
-7.55709
-7.71868
-7.84995
-7.96093
-8.05644
-8.14052
-8.21591
-8.28427
-8.34675
-8.40423
-8.4574
-8.50681
-8.55294
-8.59628
-8.63732
-8.67659
-8.71466
-8.75214
-8.78974
-8.82821
-8.86838
-8.91118
-8.95769
-9.00922
-9.06768
-9.1355
-9.21759
-5.48762
-5.74359
-6.27688
-6.71933
-7.03721
-7.2987
-7.50858
-7.6731
-7.80865
-7.92449
-8.02515
-8.11429
-8.1946
-8.26778
-8.33503
-8.3973
-8.45533
-8.50975
-8.56113
-8.61003
-8.65701
-8.70267
-8.74765
-8.79266
-8.83848
-8.88599
-8.93616
-8.99011
-9.04922
-9.11511
-9.19012
-9.27696
-9.38073
-5.73892
-5.92614
-6.34683
-6.72851
-7.01934
-7.26455
-7.46856
-7.63382
-7.77233
-7.89207
-7.99711
-8.09076
-8.17556
-8.25322
-8.32497
-8.39182
-8.45456
-8.51387
-8.57038
-8.62472
-8.6775
-8.72938
-8.78107
-8.83334
-8.88706
-8.94317
-9.00278
-9.06715
-9.1378
-9.21655
-9.30589
-9.40849
-9.52919
-5.94771
-6.0878
-6.42124
-6.74821
-7.01219
-7.24066
-7.43678
-7.60055
-7.7403
-7.86264
-7.97114
-8.06867
-8.15758
-8.23948
-8.31561
-8.38695
-8.45433
-8.51846
-8.58002
-8.63967
-8.69809
-8.75598
-8.81409
-8.87326
-8.93441
-8.99854
-9.06683
-9.14062
-9.2215
-9.31132
-9.41253
-9.52762
-9.66091
-6.12229
-6.22952
-6.49575
-6.77487
-7.01297
-7.22475
-7.41177
-7.57252
-7.71238
-7.83649
-7.94784
-8.04884
-8.14154
-8.22745
-8.30774
-8.38339
-8.45524
-8.52403
-8.59045
-8.65522
-8.71903
-8.78263
-8.8468
-8.91243
-8.98044
-9.05189
-9.12798
-9.21006
-9.2997
-9.39869
-9.5093
-9.63371
-9.77561
-6.26881
-6.35269
-6.56733
-6.80556
-7.01951
-7.21526
-7.39272
-7.54941
-7.6884
-7.81346
-7.92697
-8.03089
-8.12697
-8.21657
-8.3008
-8.38058
-8.45674
-8.53001
-8.60113
-8.67079
-8.73974
-8.80873
-8.87857
-8.95014
-9.02441
-9.10241
-9.18532
-9.27446
-9.37132
-9.47755
-9.59515
-9.72596
-9.87301
-6.39185
-6.45885
-6.63393
-6.83784
-7.02983
-7.21054
-7.37843
-7.53041
-7.66783
-7.79325
-7.90843
-8.01489
-8.11407
-8.20715
-8.29511
-8.37884
-8.45911
-8.53667
-8.61223
-8.68652
-8.76027
-8.83424
-8.90926
-8.98619
-9.06598
-9.14965
-9.23832
-9.33323
-9.43573
-9.54728
-9.66959
-9.80414
-9.95335
-6.49485
-6.54944
-6.69419
-6.86972
-7.04221
-7.20913
-7.36786
-7.51489
-7.65033
-7.77568
-7.89212
-8.00077
-8.10273
-8.19901
-8.29048
-8.37793
-8.46211
-8.54373
-8.6235
-8.70211
-8.78032
-8.85886
-8.93856
-9.02024
-9.10483
-9.19329
-9.28665
-9.38605
-9.49268
-9.60778
-9.73277
-9.86877
-10.0176
-6.58037
-6.62572
-6.74722
-6.89958
-7.05512
-7.20971
-7.35994
-7.50207
-7.63533
-7.76034
-7.87776
-7.98832
-8.09284
-8.19211
-8.28687
-8.37784
-8.4657
-8.55112
-8.63478
-8.71738
-8.79962
-8.88225
-8.96603
-9.05178
-9.14036
-9.23264
-9.32959
-9.43219
-9.54147
-9.65846
-9.78426
-9.91972
-10.0662
-6.65031
-6.68874
-6.79242
-6.92611
-7.06723
-7.21104
-7.35366
-7.49123
-7.62234
-7.74692
-7.86518
-7.97749
-8.08438
-8.18647
-8.28436
-8.37865
-8.46998
-8.55896
-8.64624
-8.73249
-8.81838
-8.90462
-8.99195
-9.08112
-9.17292
-9.26817
-9.36768
-9.47233
-9.58295
-9.70038
-9.82546
-9.95876
-10.1012
-6.70606
-6.73927
-6.82936
-6.94821
-7.07736
-7.21201
-7.34804
-7.48157
-7.61074
-7.73495
-7.85399
-7.96793
-8.07706
-8.18179
-8.28259
-8.37998
-8.4745
-8.56673
-8.65728
-8.74675
-8.8358
-8.92509
-9.01533
-9.10719
-9.20139
-9.29864
-9.39968
-9.50521
-9.61594
-9.73248
-9.85546
-9.98525
-10.1225
-6.74856
-6.77787
-6.85768
-6.96497
-7.08446
-7.21159
-7.34221
-7.47241
-7.60006
-7.72413
-7.84408
-7.9597
-8.07106
-8.17839
-8.28203
-8.3824
-8.47996
-8.57525
-8.66879
-8.76118
-8.853
-8.94487
-9.03751
-9.13145
-9.22733
-9.32581
-9.4275
-9.53297
-9.64279
-9.7574
-9.87724
-10.0025
-10.1336
-6.7784
-6.80483
-6.87703
-6.97556
-7.08754
-7.2088
-7.33522
-7.46293
-7.58956
-7.71379
-7.8348
-7.95214
-8.06568
-8.17548
-8.28176
-8.38486
-8.48517
-8.58314
-8.67928
-8.77411
-8.86816
-8.96194
-9.05639
-9.15168
-9.24846
-9.34731
-9.44873
-9.5532
-9.66113
-9.77285
-9.88864
-10.0086
-10.1328
-6.79584
-6.82022
-6.887
-6.9792
-7.08574
-7.20281
-7.32639
-7.45262
-7.57902
-7.704
-7.8265
-7.94587
-8.0618
-8.17422
-8.28323
-8.38907
-8.49206
-8.59259
-8.69113
-8.78816
-8.8842
-8.97984
-9.07522
-9.17126
-9.26835
-9.36692
-9.4674
-9.57016
-9.6755
-9.78364
-9.89474
-10.0088
-10.1258
-6.80084
-6.82387
-6.88706
-6.97509
-7.0781
-7.19261
-7.31466
-7.44043
-7.56729
-7.69349
-7.81776
-7.93929
-8.05762
-8.17256
-8.28411
-8.39243
-8.49777
-8.60049
-8.70099
-8.7997
-8.8971
-8.99365
-9.08974
-9.18593
-9.28262
-9.38019
-9.47899
-9.57931
-9.68137
-9.78532
-9.89122
-9.99902
-10.1087
-6.79304
-6.81533
-6.87659
-6.96249
-7.06393
-7.17768
-7.29984
-7.42655
-7.55508
-7.68349
-7.81037
-7.93473
-8.05599
-8.17385
-8.28821
-8.39917
-8.50693
-8.6118
-8.71413
-8.81433
-8.91283
-9.01004
-9.10638
-9.20226
-9.29808
-9.39415
-9.49076
-9.58815
-9.68647
-9.7858
-9.88616
-9.98744
-10.0895
-6.77176
-6.79387
-6.85468
-6.94029
-7.04194
-7.15651
-7.28009
-7.40878
-7.53973
-7.67088
-7.80067
-7.92802
-8.05223
-8.17292
-8.28992
-8.40328
-8.51315
-8.6198
-8.72355
-8.82477
-8.92387
-9.02122
-9.11721
-9.21222
-9.30659
-9.40059
-9.49448
-9.58844
-9.68258
-9.77697
-9.87159
-9.96633
-10.0611
-6.73597
-6.75848
-6.82047
-6.9079
-7.01202
-7.12972
-7.25699
-7.38974
-7.52497
-7.66047
-7.79454
-7.92598
-8.05401
-8.17818
-8.29829
-8.41433
-8.52646
-8.6349
-8.73999
-8.84207
-8.94151
-9.03871
-9.13401
-9.22777
-9.32029
-9.41183
-9.50261
-9.59278
-9.68245
-9.77164
-9.86032
-9.94837
-10.0356
-6.68414
-6.70758
-6.77214
-6.86309
-6.97127
-7.09345
-7.22548
-7.36313
-7.50326
-7.64355
-7.78221
-7.91793
-8.04988
-8.17755
-8.30071
-8.41932
-8.53351
-8.64351
-8.74962
-8.8522
-8.95161
-9.04822
-9.14239
-9.23444
-9.32468
-9.41335
-9.50065
-9.58674
-9.67171
-9.75559
-9.83837
-9.91998
-10.0003
-6.61437
-6.63963
-6.70909
-6.80675
-6.92256
-7.05296
-7.19341
-7.33927
-7.48716
-7.6346
-7.77971
-7.92114
-8.05805
-8.18993
-8.31657
-8.43797
-8.55427
-8.66574
-8.7727
-8.87552
-8.97458
-9.07026
-9.16291
-9.25288
-9.34045
-9.42588
-9.50936
-9.59106
-9.67105
-9.7494
-9.82609
-9.90105
-9.97415
-6.52369
-6.55108
-6.62661
-6.73207
-6.85621
-6.99531
-7.14461
-7.29917
-7.45537
-7.61059
-7.76282
-7.91062
-8.05307
-8.18966
-8.32017
-8.44462
-8.56319
-8.67615
-8.78389
-8.88679
-8.98527
-9.07974
-9.17059
-9.25816
-9.34277
-9.42469
-9.50415
-9.58131
-9.65629
-9.72919
-9.80002
-9.86882
-9.93549
-6.40917
-6.44109
-6.52807
-6.64831
-6.78808
-6.94281
-7.10694
-7.27494
-7.44301
-7.60853
-7.76953
-7.92469
-8.0732
-8.21466
-8.34896
-8.47621
-8.59667
-8.7107
-8.81874
-8.92122
-9.01862
-9.11136
-9.19988
-9.28455
-9.36571
-9.44366
-9.51864
-9.59084
-9.66042
-9.72748
-9.79208
-9.85422
-9.91384
-6.26411
-6.29898
-6.39609
-6.52909
-6.68247
-6.85193
-7.03133
-7.21424
-7.39631
-7.57459
-7.74688
-7.91173
-8.06834
-8.21636
-8.35577
-8.48679
-8.60981
-8.72532
-8.83384
-8.93595
-9.03219
-9.12307
-9.2091
-9.29071
-9.36828
-9.44215
-9.51262
-9.57993
-9.64427
-9.70581
-9.76465
-9.82094
-9.87467
-6.0864
-6.13422
-6.25855
-6.42203
-6.60351
-6.79814
-6.99939
-7.2007
-7.39815
-7.58924
-7.77208
-7.94551
-8.10897
-8.2623
-8.40564
-8.53936
-8.66395
-8.78001
-8.88816
-8.98905
-9.0833
-9.1715
-9.2542
-9.33191
-9.40506
-9.47403
-9.53917
-9.60075
-9.65902
-9.71416
-9.76633
-9.81565
-9.86218
-5.85418
-5.90108
-6.03919
-6.22313
-6.42953
-6.65294
-6.88349
-7.11215
-7.33409
-7.54636
-7.74689
-7.93464
-8.10932
-8.27116
-8.42065
-8.5585
-8.68554
-8.80262
-8.91062
-9.01036
-9.10264
-9.18817
-9.2676
-9.34153
-9.41044
-9.4748
-9.53498
-9.59131
-9.64408
-9.69357
-9.74001
-9.78365
-9.82466
-5.5857
-5.68046
-5.88667
-6.12409
-6.36818
-6.62162
-6.87653
-7.12492
-7.36344
-7.58985
-7.80232
-7.99999
-8.18267
-8.35064
-8.50448
-8.64502
-8.7732
-8.89003
-8.99654
-9.09371
-9.18248
-9.2637
-9.33815
-9.40651
-9.46939
-9.52729
-9.58067
-9.62991
-9.67534
-9.71726
-9.75594
-9.79165
-9.82469
-5.17044
-5.23921
-5.47616
-5.77088
-6.08245
-6.40393
-6.71867
-7.01678
-7.29555
-7.55335
-7.78947
-8.00446
-8.19944
-8.37577
-8.53492
-8.67842
-8.80776
-8.92435
-9.02952
-9.12449
-9.21036
-9.28812
-9.35864
-9.42269
-9.48092
-9.53389
-9.58205
-9.62582
-9.66552
-9.70151
-9.7341
-9.76379
-9.79103
-4.81355
-5.06687
-5.42512
-5.7469
-6.07044
-6.41027
-6.74298
-7.05973
-7.35878
-7.63656
-7.89077
-8.1211
-8.32817
-8.51314
-8.67761
-8.8234
-8.95239
-9.06641
-9.1672
-9.25634
-9.33528
-9.40528
-9.46744
-9.52272
-9.57189
-9.61562
-9.65442
-9.68867
-9.71865
-9.74463
-9.76668
-9.7854
-9.80078
-3.76555
-4.03244
-4.64494
-5.19352
-5.69838
-6.17839
-6.60905
-6.99275
-7.33694
-7.64434
-7.91793
-8.16111
-8.37677
-8.56753
-8.73584
-8.88392
-9.01388
-9.12768
-9.22715
-9.31399
-9.38973
-9.45574
-9.51324
-9.56327
-9.60671
-9.64427
-9.67648
-9.7037
-9.72602
-9.74352
-9.75551
-9.76306
-9.76223
-3.82044
-4.38139
-4.82578
-5.1939
-5.67422
-6.17413
-6.64338
-7.08463
-7.48934
-7.8492
-8.16404
-8.43649
-8.66983
-8.86803
-9.03533
-9.17587
-9.29349
-9.39164
-9.47337
-9.54133
-9.59778
-9.64463
-9.68351
-9.71577
-9.7425
-9.76456
-9.78256
-9.79682
-9.80721
-9.81303
-9.81199
-9.80194
-9.77163
1.11433
-2.57788
-3.90552
-4.57852
-5.38061
-6.06143
-6.60927
-7.0901
-7.51134
-7.8743
-8.18669
-8.45452
-8.68266
-8.87597
-9.03906
-9.17608
-9.29079
-9.38654
-9.46627
-9.53253
-9.58753
-9.63312
-9.67092
-9.70225
-9.72825
-9.74984
-9.76785
-9.78276
-9.79547
-9.80544
-9.815
-9.81981
-9.82925
-8.19227
-7.58111
-7.06197
-6.75195
-7.17799
-8.68161
-11.4898
-15.5953
-20.707
-26.2433
-31.5049
-35.9198
-39.1731
-41.0591
-41.3565
-39.9328
-36.9554
-32.6791
-27.2355
-20.9104
-14.4647
-8.78938
-4.33423
-1.09053
1.10771
2.38694
2.77671
2.23397
0.569887
-2.46294
-6.93724
-12.5627
-18.7717
-24.9776
-30.7403
-35.7426
-39.7062
-42.3589
-43.4695
-42.8809
-40.5795
-36.7328
-31.695
-26.0307
-20.4179
-15.4046
-11.2457
-7.94622
-5.39256
-3.44569
-1.97937
-0.889117
-0.0909688
0.481929
0.882494
1.15228
1.32367
1.42171
1.46576
1.47071
1.44805
1.40664
1.35328
1.29313
1.23005
1.1668
1.10525
1.04654
0.991232
0.939423
0.890941
0.84537
0.802231
0.761064
0.721482
0.683209
0.646098
0.610113
0.575297
0.541728
0.509476
0.478571
0.44898
0.420603
0.393274
0.366786
0.34092
0.315505
0.290401
0.265591
0.240944
0.216601
0.192027
0.167992
0.142331
0.119079
0.0891336
0.0713587
0.0259134
0.0371104
-8.10149
-7.52704
-6.87255
-6.58895
-7.10776
-8.62722
-11.3343
-15.2358
-20.0631
-25.2827
-30.2509
-34.428
-37.4723
-39.1822
-39.3992
-38.0444
-35.2018
-31.022
-25.699
-19.6886
-13.7643
-8.61944
-4.54758
-1.53108
0.542304
1.75529
2.1215
1.60588
0.0637588
-2.69091
-6.74377
-11.8933
-17.6722
-23.5372
-29.0345
-33.818
-37.5989
-40.1135
-41.152
-40.5675
-38.3585
-34.7078
-29.9887
-24.7499
-19.5914
-14.9695
-11.0946
-7.97719
-5.52923
-3.63737
-2.19439
-1.10834
-0.303183
0.283006
0.700035
0.987522
1.17667
1.29188
1.35214
1.37216
1.36336
1.33455
1.29253
1.24247
1.18824
1.13265
1.07763
1.02442
0.973666
0.925592
0.880126
0.836983
0.795798
0.756208
0.717906
0.680681
0.64443
0.609149
0.574899
0.541771
0.509845
0.479163
0.449702
0.421376
0.394036
0.367494
0.341551
0.316051
0.290869
0.265992
0.241284
0.216888
0.192265
0.168186
0.142487
0.119191
0.0892408
0.071365
0.0260968
0.0367773
-7.97834
-7.47953
-6.9678
-6.74657
-7.22622
-8.75225
-11.4036
-15.0766
-19.5352
-24.3394
-28.9269
-32.7974
-35.6008
-37.1548
-37.3414
-36.0567
-33.2904
-29.1775
-24.047
-18.4735
-13.1334
-8.51336
-4.80562
-2.00954
-0.0633291
1.0808
1.42408
0.936944
-0.492168
-2.99651
-6.65065
-11.3143
-16.6161
-22.0785
-27.2571
-31.7878
-35.3695
-37.7403
-38.7055
-38.1316
-36.037
-32.6234
-28.2701
-23.4856
-18.784
-14.543
-10.9425
-8.00237
-5.6595
-3.82409
-2.40649
-1.32657
-0.51592
0.0824706
0.515248
0.820022
1.02676
1.15914
1.23571
1.27099
1.27627
1.2603
1.22986
1.19012
1.14496
1.09723
1.04894
1.00137
0.955299
0.911055
0.868686
0.828041
0.788867
0.750905
0.713932
0.677805
0.642465
0.607937
0.5743
0.541655
0.510091
0.479655
0.450339
0.422072
0.394725
0.368132
0.342116
0.316541
0.291289
0.266354
0.241596
0.217156
0.192493
0.168377
0.142649
0.119311
0.0893685
0.0713784
0.0263139
0.0364341
-7.97687
-7.59019
-7.17532
-7.07615
-7.65883
-9.14494
-11.6486
-15.095
-19.1975
-23.5478
-27.684
-31.1809
-33.7431
-35.1876
-35.3152
-33.9806
-31.1854
-27.1647
-22.3652
-17.3441
-12.6029
-8.47148
-5.09971
-2.51608
-0.699133
0.373484
0.694834
0.238376
-1.08357
-3.36088
-6.64387
-10.8302
-15.6299
-20.6404
-25.4484
-29.6873
-33.0474
-35.2657
-36.1584
-35.6125
-33.6688
-30.5404
-26.5906
-22.2696
-18.0106
-14.1309
-10.7908
-8.02176
-5.78278
-4.00511
-2.61498
-1.54321
-0.728696
-0.119294
0.328433
0.650016
0.874115
1.0236
1.11658
1.16728
1.18684
1.18395
1.16532
1.13612
1.10025
1.06059
1.0192
0.977464
0.936239
0.895983
0.85686
0.818836
0.781777
0.745522
0.709935
0.674937
0.64052
0.606744
0.573709
0.541534
0.51032
0.480126
0.450957
0.422756
0.395412
0.368778
0.342694
0.317044
0.29172
0.266721
0.241906
0.217418
0.192715
0.168561
0.142808
0.119424
0.0894981
0.0713734
0.0265341
0.0360402
-8.10968
-7.85213
-7.60621
-7.64931
-8.28466
-9.7343
-12.0812
-15.2427
-18.9782
-22.9156
-26.6323
-29.7747
-32.0736
-33.2763
-33.1627
-31.6537
-28.8537
-25.079
-20.7677
-16.3492
-12.1714
-8.48158
-5.42079
-3.04344
-1.35657
-0.356624
-0.0567709
-0.480978
-1.69855
-3.76863
-6.71449
-10.4515
-14.7508
-19.2802
-23.6733
-27.5789
-30.6897
-32.7458
-33.5726
-33.0807
-31.3267
-28.5194
-24.9876
-21.1186
-17.2771
-13.7352
-10.6407
-8.03597
-5.89937
-4.18047
-2.81971
-1.758
-0.941226
-0.322026
0.139808
0.477677
0.718868
0.885397
0.994835
1.0611
1.09515
1.10554
1.09896
1.08053
1.05416
1.02276
0.988456
0.952701
0.916459
0.880301
0.844508
0.809179
0.774291
0.73979
0.705629
0.671797
0.638339
0.605348
0.572949
0.541274
0.510435
0.480503
0.451496
0.423372
0.396036
0.369364
0.343217
0.317493
0.2921
0.26704
0.242177
0.21765
0.192918
0.168735
0.142969
0.11954
0.0896455
0.0713729
0.0267844
0.0356344
-8.37628
-8.25449
-8.18118
-8.36169
-9.03041
-10.3788
-12.4986
-15.3333
-18.6707
-22.1793
-25.4817
-28.2316
-30.1325
-30.9707
-30.6079
-29.0444
-26.4434
-23.1009
-19.353
-15.5071
-11.8292
-8.53318
-5.76064
-3.58237
-2.02422
-1.09655
-0.81776
-1.20959
-2.32602
-4.20561
-6.84966
-10.1785
-14.0036
-18.0506
-22.0044
-25.5457
-28.3829
-30.2645
-31.0419
-30.6286
-29.0897
-26.6152
-23.4907
-20.0448
-16.5878
-13.3576
-10.4929
-8.04526
-6.00922
-4.34994
-3.02033
-1.97057
-1.15316
-0.525422
-0.0503722
0.303214
0.561194
0.744657
0.870592
0.952553
1.00127
1.02517
1.03085
1.02341
1.00675
0.983803
0.956753
0.927141
0.896029
0.864101
0.831764
0.799233
0.766607
0.733932
0.701249
0.668617
0.636136
0.603936
0.57217
0.540989
0.510521
0.480849
0.452005
0.423963
0.396645
0.369943
0.343738
0.317945
0.292485
0.267362
0.242447
0.217877
0.193114
0.168901
0.143127
0.119652
0.0897973
0.0713572
0.0270407
0.0351822
-8.64866
-8.6425
-8.71742
-9.01868
-9.71615
-10.9517
-12.8008
-15.2324
-18.0859
-21.0862
-23.8993
-26.1839
-27.6943
-28.2816
-27.8663
-26.4711
-24.2343
-21.3776
-18.1513
-14.8013
-11.5574
-8.61476
-6.11083
-4.12373
-2.69154
-1.83494
-1.57664
-1.93651
-2.95563
-4.65844
-7.03163
-9.99629
-13.3898
-16.9811
-20.5012
-23.67
-26.2243
-27.9353
-28.6661
-28.3413
-27.0186
-24.8618
-22.1131
-19.0513
-15.943
-12.998
-10.3476
-8.05
-6.11257
-4.51355
-3.21672
-2.18069
-1.36424
-0.729235
-0.24189
0.126816
0.401252
0.601522
0.743974
0.841747
0.905307
0.942922
0.961082
0.964835
0.958078
0.943775
0.924149
0.900828
0.874972
0.847382
0.818585
0.788923
0.758611
0.727804
0.696632
0.665228
0.633748
0.602363
0.571252
0.540586
0.510506
0.481111
0.452443
0.424492
0.397197
0.37047
0.344209
0.318347
0.292817
0.267634
0.242672
0.218068
0.193285
0.169053
0.143283
0.119766
0.0899651
0.0713445
0.0273256
0.0347154
-8.89481
-8.97326
-9.15079
-9.53173
-10.2379
-11.3698
-12.9754
-15.0243
-17.3917
-19.8638
-22.172
-24.0546
-25.3089
-25.7917
-25.4394
-24.2639
-22.3684
-19.9233
-17.1311
-14.2025
-11.3399
-8.71771
-6.46398
-4.65902
-3.34889
-2.56167
-2.32292
-2.6516
-3.57796
-5.11609
-7.24409
-9.88482
-12.8942
-16.073
-19.1902
-22.0035
-24.2829
-25.8279
-26.5124
-26.2684
-25.1421
-23.2703
-20.8562
-18.1366
-15.3412
-12.6563
-10.2052
-8.05062
-6.20971
-4.67135
-3.40875
-2.38815
-1.57423
-0.933235
-0.434531
-0.0513256
0.239213
0.456145
0.615118
0.728809
0.80738
0.858905
0.889753
0.904909
0.908251
0.902763
0.890721
0.873832
0.853358
0.830216
0.805058
0.778349
0.750424
0.721542
0.691923
0.661778
0.631316
0.600753
0.570298
0.540145
0.510452
0.481331
0.452842
0.424987
0.397722
0.370977
0.344669
0.318743
0.293148
0.267903
0.242891
0.218249
0.193447
0.169196
0.143436
0.119875
0.0901396
0.0713192
0.0276201
0.0342039
-9.12325
-9.26471
-9.51062
-9.93724
-10.6323
-11.6669
-13.0693
-14.8074
-16.7791
-18.8179
-20.7225
-22.2873
-23.3319
-23.7249
-23.4133
-22.4069
-20.7827
-18.6743
-16.2495
-13.6883
-11.1657
-8.83495
-6.8135
-5.18113
-3.9885
-3.26865
-3.04867
-3.34695
-4.18519
-5.56983
-7.47421
-9.82498
-12.4937
-15.3063
-18.0625
-20.5524
-22.5775
-23.9641
-24.5979
-24.4181
-23.4596
-21.8345
-19.7129
-17.2952
-14.7797
-12.3315
-10.0659
-8.04767
-6.30107
-4.82356
-3.59644
-2.59285
-1.78298
-1.13724
-0.628113
-0.231037
0.0752395
0.308676
0.484166
0.613875
0.707619
0.773248
0.816986
0.843744
0.85737
0.860866
0.856556
0.846228
0.831246
0.812644
0.791199
0.767503
0.742009
0.715084
0.687045
0.658176
0.628749
0.599021
0.569236
0.539608
0.510314
0.48148
0.453179
0.425428
0.398199
0.371439
0.345082
0.319091
0.293426
0.26812
0.243063
0.218391
0.19358
0.16932
0.143584
0.119984
0.0903298
0.0712962
0.0279438
0.0336743
-9.33482
-9.52256
-9.81352
-10.2634
-10.9348
-11.8773
-13.1071
-14.5932
-16.2513
-17.9489
-19.5249
-20.8106
-21.6601
-21.9685
-21.6863
-20.8155
-19.4141
-17.5904
-15.4836
-13.246
-11.0271
-8.96078
-7.1541
-5.68426
-4.60391
-3.94891
-3.74696
-4.01587
-4.77079
-6.01265
-7.71231
-9.80144
-12.1659
-14.6536
-17.0894
-19.2911
-21.0865
-22.3251
-22.9049
-22.773
-21.9545
-20.5405
-18.6727
-16.5208
-14.2554
-12.0229
-9.93015
-8.04183
-6.3872
-4.97047
-3.77989
-2.79477
-1.99037
-1.34111
-0.822483
-0.412161
-0.0905128
0.15927
0.351272
0.497096
0.606175
0.686098
0.742927
0.781479
0.805566
0.818202
0.821761
0.818111
0.808722
0.794744
0.777085
0.75646
0.733446
0.708518
0.682086
0.654513
0.62613
0.597243
0.568127
0.539022
0.510125
0.481577
0.453466
0.425824
0.398638
0.371872
0.345474
0.319424
0.293694
0.268326
0.243222
0.218518
0.193699
0.169432
0.143729
0.120089
0.0905289
0.0712626
0.0282819
0.0330981
-9.52532
-9.74598
-10.0646
-10.5213
-11.1601
-12.0148
-13.093
-14.3653
-15.762
-17.1764
-18.4775
-19.5321
-20.2227
-20.4599
-20.1979
-19.4371
-18.2241
-16.646
-14.8171
-12.8648
-10.9168
-9.0901
-7.48128
-6.16361
-5.18972
-4.59665
-4.41195
-4.65283
-5.32938
-6.43883
-7.95106
-9.8031
-11.8942
-14.0912
-16.2416
-18.1863
-19.7751
-20.878
-21.4039
-21.3073
-20.6053
-19.3717
-17.7244
-15.8066
-13.7654
-11.73
-9.79851
-8.03393
-6.46875
-5.1125
-3.95932
-2.99398
-2.1964
-1.54477
-1.01753
-0.594569
-0.257903
0.00807721
0.216593
0.378638
0.503215
0.597625
0.667741
0.718273
0.752989
0.77491
0.78646
0.789591
0.785877
0.776592
0.76277
0.745257
0.724751
0.70184
0.67703
0.650761
0.623429
0.595387
0.566946
0.538371
0.509876
0.481622
0.453706
0.426178
0.399038
0.372265
0.345825
0.319713
0.293913
0.268482
0.243333
0.218601
0.193785
0.169521
0.143866
0.120193
0.0907448
0.0712317
0.0286526
0.0324983
-9.6939
-9.93623
-10.2687
-10.72
-11.3202
-12.0916
-13.0355
-14.1249
-15.3017
-16.4795
-17.5538
-18.4173
-18.9734
-19.1486
-18.9043
-18.2391
-17.189
-15.8235
-14.2367
-12.5356
-10.829
-9.21875
-7.79142
-6.61533
-5.7416
-5.20719
-5.03891
-5.25325
-5.85656
-6.84365
-8.18463
-9.82179
-11.6663
-13.6021
-15.4964
-17.2108
-18.6134
-19.5925
-20.0667
-19.9959
-19.3913
-18.3126
-16.8575
-15.1472
-13.3077
-11.4529
-9.67178
-8.02489
-6.54648
-5.2502
-4.13506
-3.19064
-2.40112
-1.74822
-1.2132
-0.778168
-0.426809
-0.144757
0.0802952
0.258679
0.398929
0.508022
0.591621
0.654312
0.699814
0.731153
0.750803
0.760799
0.762827
0.758284
0.748338
0.733965
0.715989
0.695108
0.671926
0.646964
0.620683
0.593482
0.565709
0.537659
0.509564
0.481602
0.453885
0.426476
0.39939
0.37262
0.346147
0.319978
0.294113
0.268619
0.243424
0.218663
0.193852
0.169595
0.143998
0.120294
0.0909727
0.071192
0.0290438
0.0318464
-9.83949
-10.0944
-10.4305
-10.8677
-11.426
-12.1192
-12.9446
-13.8773
-14.8689
-15.8495
-16.7353
-17.4397
-17.8846
-18.0097
-17.7818
-17.1982
-16.2873
-15.1054
-13.7299
-12.25
-10.7584
-9.34325
-8.08165
-7.03648
-6.25629
-5.777
-5.62427
-5.81356
-6.34894
-7.2234
-8.40828
-9.85098
-11.4732
-13.1741
-14.8381
-16.3452
-17.5801
-18.4458
-18.8705
-18.8181
-18.2956
-17.3506
-16.0642
-14.5384
-12.881
-11.1917
-9.55079
-8.01565
-6.62124
-5.38421
-4.30758
-3.38507
-2.60471
-1.95152
-1.40949
-0.962907
-0.597134
-0.299098
-0.057456
0.137411
0.293526
0.417508
0.514787
0.589813
0.646247
0.687119
0.714957
0.731884
0.739699
0.739931
0.73388
0.722659
0.707218
0.688369
0.666813
0.643155
0.617918
0.591555
0.564449
0.536922
0.509227
0.481557
0.45404
0.42675
0.399717
0.372947
0.346435
0.320204
0.294267
0.268707
0.243465
0.21868
0.193882
0.169643
0.144122
0.120394
0.0912205
0.0711564
0.0294747
0.0311631
-9.96265
-10.2229
-10.5547
-10.9717
-11.4865
-12.107
-12.8276
-13.6259
-14.4615
-15.2774
-16.0066
-16.5794
-16.9323
-17.0161
-16.8031
-16.2903
-15.5
-14.4776
-13.2865
-12.0013
-10.7007
-9.46084
-8.34988
-7.425
-6.73152
-6.30361
-6.16546
-6.33134
-6.80405
-7.57529
-8.61822
-9.88525
-11.3075
-12.7974
-14.2545
-15.5749
-16.6586
-17.4208
-17.7983
-17.7588
-17.3055
-16.4766
-15.3387
-13.9772
-12.4842
-10.9465
-9.43637
-8.00724
-6.69398
-5.51531
-4.47745
-3.57768
-2.80744
-2.15485
-1.6065
-1.14879
-0.768818
-0.454825
-0.196491
0.0150411
0.187239
0.326331
0.437492
0.525025
0.592526
0.643031
0.679123
0.703022
0.716645
0.721655
0.719495
0.711413
0.69849
0.681653
0.661704
0.63933
0.61512
0.589578
0.563124
0.53611
0.508809
0.48143
0.454116
0.426953
0.399982
0.373224
0.346685
0.320399
0.294395
0.268768
0.243478
0.218666
0.193886
0.169671
0.144238
0.120491
0.0914844
0.0711139
0.0299346
0.0304172
-10.064
-10.3237
-10.6457
-11.0385
-11.5098
-12.063
-12.6912
-13.3742
-14.0779
-14.7564
-15.3557
-15.8196
-16.0969
-16.1478
-15.9492
-15.4981
-14.8121
-13.9278
-12.8976
-11.7836
-10.6523
-9.56935
-8.59464
-7.77961
-7.16594
-6.78553
-6.66094
-6.80516
-7.22035
-7.89735
-8.81155
-9.92023
-11.1629
-12.4635
-13.7353
-14.8881
-15.8353
-16.5032
-16.8363
-16.8053
-16.4108
-15.6826
-14.6754
-13.4606
-12.1163
-10.7177
-9.32936
-8.00072
-6.76574
-5.64441
-4.64542
-3.76904
-3.00975
-2.35851
-1.80439
-1.3359
-0.941839
-0.611837
-0.336641
-0.108209
0.0803266
0.234773
0.360026
0.460231
0.53892
0.599135
0.643525
0.67441
0.693836
0.703609
0.705316
0.700348
0.689916
0.675067
0.656701
0.635591
0.612391
0.587655
0.561841
0.53533
0.508415
0.481321
0.454203
0.42716
0.400245
0.37349
0.346913
0.320562
0.294483
0.268783
0.243441
0.218604
0.19385
0.169669
0.144346
0.12059
0.0917742
0.0710787
0.0304453
0.0296291
-10.1445
-10.3993
-10.7073
-11.0736
-11.5023
-11.9938
-12.5405
-13.1242
-13.7167
-14.2805
-14.7721
-15.1463
-15.3619
-15.3868
-15.2021
-14.805
-14.2095
-13.4453
-12.5555
-11.5917
-10.6102
-9.66717
-8.81509
-8.09973
-7.55896
-7.22215
-7.11004
-7.23438
-7.59692
-8.1883
-8.98611
-9.95239
-11.0342
-12.1654
-13.2714
-14.274
-15.0986
-15.6809
-15.9725
-15.9467
-15.602
-14.9615
-14.0697
-12.9859
-11.7762
-10.5054
-9.23063
-7.99722
-6.83769
-5.77258
-4.8124
-3.95989
-3.21222
-2.56292
-2.00345
-1.52438
-1.11623
-0.770058
-0.47774
-0.232101
-0.0269208
0.143154
0.282725
0.395768
0.485752
0.555734
0.608432
0.646283
0.671469
0.685946
0.691454
0.689533
0.681526
0.668603
0.651766
0.631871
0.609639
0.585676
0.560477
0.534451
0.507913
0.481102
0.454186
0.427274
0.400428
0.373694
0.347093
0.320687
0.294536
0.268762
0.243367
0.218503
0.193779
0.169641
0.144444
0.120687
0.0920864
0.0710394
0.0309972
0.0287626
-10.206
-10.4525
-10.7438
-11.0826
-11.4704
-11.9057
-12.3805
-12.8791
-13.3776
-13.8455
-14.2478
-14.5483
-14.7139
-14.7188
-14.5477
-14.198
-13.6811
-13.0212
-12.2535
-11.4213
-10.5718
-9.75317
-9.01086
-8.38539
-7.91074
-7.61359
-7.51283
-7.61904
-7.93356
-8.4475
-9.14049
-9.97903
-10.9169
-11.897
-12.8549
-13.7233
-14.438
-14.943
-15.1961
-15.1731
-14.8708
-14.3069
-13.5172
-12.5507
-11.463
-10.3098
-9.14107
-7.99796
-6.9111
-5.90102
-4.97947
-4.15117
-3.4156
-2.76868
-2.20411
-1.71448
-1.29208
-0.929441
-0.619622
-0.35638
-0.134183
0.0518334
0.205959
0.332001
0.433367
0.513142
0.574131
0.618895
0.649771
0.668873
0.678103
0.679153
0.673505
0.662449
0.647092
0.628371
0.607073
0.583855
0.559246
0.533685
0.507506
0.480962
0.454232
0.427434
0.400646
0.373909
0.347269
0.320793
0.294557
0.268699
0.243243
0.218351
0.193664
0.169581
0.144535
0.120789
0.0924339
0.0710127
0.031616
0.0278394
-10.2494
-10.4851
-10.758
-11.0692
-11.4182
-11.8025
-12.2143
-12.6397
-13.0588
-13.4469
-13.7754
-14.0156
-14.141
-14.1308
-13.9728
-13.665
-13.2165
-12.6471
-11.9858
-11.2686
-10.5352
-9.82658
-9.18204
-8.63709
-8.22197
-7.96061
-7.87005
-7.95973
-8.2307
-8.67482
-9.2737
-9.99799
-10.8075
-11.6531
-12.4792
-13.2281
-13.8445
-14.2799
-14.4976
-14.4756
-14.2097
-13.7129
-13.0139
-12.1528
-11.1761
-10.1312
-9.0616
-8.0042
-6.98737
-6.03112
-5.14792
-4.34402
-3.62088
-2.97656
-2.40693
-1.90657
-1.46957
-1.08998
-0.762128
-0.480763
-0.241091
-0.0387627
0.130186
0.26939
0.382211
0.471772
0.540985
0.592556
0.628987
0.652569
0.665373
0.669253
0.665834
0.656529
0.64255
0.624917
0.604484
0.581957
0.5579
0.532779
0.506948
0.480669
0.454136
0.427473
0.400759
0.374047
0.347387
0.320854
0.294539
0.268594
0.243073
0.218149
0.193504
0.169486
0.144615
0.120893
0.0928141
0.070987
0.0322935
0.0268162
-10.2774
-10.5007
-10.7545
-11.0385
-11.3513
-11.6896
-12.0461
-12.4086
-12.7607
-13.082
-13.3497
-13.5406
-13.6337
-13.6125
-13.4672
-13.1963
-12.8073
-12.3164
-11.7476
-11.1306
-10.4988
-9.88706
-9.32909
-8.85582
-8.49388
-8.26455
-8.18301
-8.25765
-8.48933
-8.87068
-9.3854
-10.0078
-10.7032
-11.4292
-12.1382
-12.781
-13.3098
-13.6831
-13.8685
-13.8465
-13.6119
-13.1742
-12.5561
-11.79
-10.9146
-9.96976
-8.99317
-8.0173
-7.06805
-6.16448
-5.31929
-4.53984
-3.82926
-3.18757
-2.61266
-2.10115
-1.64894
-1.2517
-0.905105
-0.604956
-0.347253
-0.128189
0.0558666
0.208389
0.332709
0.432016
0.509352
0.56759
0.609421
0.637323
0.653551
0.660123
0.658813
0.65116
0.638476
0.621866
0.602243
0.580362
0.556818
0.5321
0.506585
0.480541
0.454171
0.427612
0.400945
0.37423
0.347525
0.320913
0.294498
0.26845
0.242853
0.217891
0.193293
0.169356
0.144688
0.121009
0.0932431
0.0709823
0.0330607
0.0257174
-10.2905
-10.5003
-10.7346
-10.9924
-11.2717
-11.5688
-11.8769
-12.1857
-12.4812
-12.7469
-12.9645
-13.1154
-13.1829
-13.154
-13.021
-12.7828
-12.4457
-12.0229
-11.5342
-11.0043
-10.4612
-9.93438
-9.45266
-9.04279
-8.72801
-8.52706
-8.45336
-8.51432
-8.71064
-9.03579
-9.47543
-10.0073
-10.6014
-11.2215
-11.827
-12.3757
-12.8269
-13.1447
-13.3012
-13.2786
-13.0714
-12.6861
-12.1403
-11.4603
-10.6777
-9.82583
-8.93674
-8.03869
-7.15485
-6.30291
-5.4954
-4.74036
-4.04228
-3.40298
-2.82231
-2.2989
-1.83057
-1.4147
-1.04839
-0.728602
-0.452164
-0.215844