/*--------------------------------*- C++ -*----------------------------------*\
  =========                 |
  \\      /  F ield         | OpenFOAM: The Open Source CFD Toolbox
   \\    /   O peration     | Website:  https://openfoam.org
    \\  /    A nd           | Version:  10
     \\/     M anipulation  |
\*---------------------------------------------------------------------------*/
FoamFile
{
    format      ascii;
    class       surfaceScalarField;
    location    "0.08";
    object      phi;
}
// * * * * * * * * * * * * * * * * * * * * * * * * * * * * * * * * * * * * * //

dimensions      [0 3 -1 0 0 0 0];

internalField   nonuniform List<scalar> 
13452
(
4.01877e-05
2.00807e-05
2.59208e-05
1.42669e-05
1.85048e-05
7.41604e-06
1.51174e-05
3.38742e-06
1.3685e-05
1.43236e-06
1.2956e-05
7.28993e-07
1.24781e-05
4.77913e-07
1.20991e-05
3.7896e-07
1.17691e-05
3.30047e-07
1.14755e-05
2.93609e-07
1.12135e-05
2.61976e-07
1.09786e-05
2.34913e-07
1.07658e-05
2.12799e-07
1.05701e-05
1.95662e-07
1.0387e-05
1.83152e-07
1.02122e-05
1.74796e-07
1.0042e-05
1.7015e-07
9.87316e-06
1.68865e-07
9.70247e-06
1.70687e-07
9.52703e-06
1.75448e-07
9.34398e-06
1.83049e-07
9.15055e-06
1.93431e-07
8.94399e-06
2.06556e-07
8.72161e-06
2.22381e-07
8.48082e-06
2.40786e-07
8.21916e-06
2.61666e-07
7.93477e-06
2.84388e-07
7.62581e-06
3.08963e-07
7.29388e-06
3.31925e-07
6.9384e-06
3.55478e-07
6.57982e-06
3.58577e-07
6.2306e-06
3.49224e-07
1.9052e-07
6.04008e-06
6.58994e-05
1.61716e-05
6.18821e-05
1.82842e-05
5.56028e-05
1.36953e-05
4.97106e-05
9.27961e-06
4.5187e-05
5.95599e-06
4.19425e-05
3.97345e-06
3.96e-05
2.82041e-06
3.78598e-05
2.11916e-06
3.65157e-05
1.67415e-06
3.54359e-05
1.37346e-06
3.4539e-05
1.15883e-06
3.37737e-05
1.00026e-06
3.31057e-05
8.80789e-07
3.25112e-05
7.90108e-07
3.19729e-05
7.21509e-07
3.14772e-05
6.70474e-07
3.10134e-05
6.33905e-07
3.05726e-05
6.09673e-07
3.0147e-05
5.96325e-07
2.97295e-05
5.92889e-07
2.93139e-05
5.98736e-07
2.88938e-05
6.13474e-07
2.84635e-05
6.36865e-07
2.80171e-05
6.6876e-07
2.75489e-05
7.08973e-07
2.70533e-05
7.57306e-07
2.65247e-05
8.12975e-07
2.59582e-05
8.75469e-07
2.53496e-05
9.40528e-07
2.46975e-05
1.00754e-06
2.40027e-05
1.05342e-06
2.32836e-05
1.06831e-06
9.95303e-07
2.24788e-05
6.91805e-05
1.07525e-05
7.25014e-05
1.49634e-05
7.30417e-05
1.31551e-05
7.16452e-05
1.06761e-05
6.93694e-05
8.2318e-06
6.69518e-05
6.391e-06
6.46764e-05
5.09583e-06
6.26342e-05
4.16135e-06
6.08357e-05
3.47262e-06
5.92586e-05
2.95066e-06
5.78728e-05
2.54458e-06
5.66495e-05
2.22361e-06
5.55623e-05
1.96791e-06
5.45887e-05
1.76373e-06
5.3709e-05
1.60118e-06
5.29065e-05
1.47303e-06
5.21665e-05
1.37393e-06
5.14762e-05
1.29992e-06
5.08245e-05
1.24808e-06
5.0201e-05
1.21629e-06
4.95967e-05
1.20304e-06
4.90029e-05
1.20728e-06
4.84115e-05
1.22832e-06
4.78146e-05
1.26567e-06
4.72046e-05
1.31897e-06
4.6574e-05
1.38787e-06
4.59154e-05
1.4716e-06
4.52215e-05
1.56933e-06
4.44844e-05
1.67765e-06
4.36977e-05
1.79426e-06
4.28461e-05
1.90503e-06
4.19156e-05
1.99882e-06
2.07338e-06
4.08375e-05
6.88448e-05
7.49081e-06
7.21574e-05
1.16507e-05
7.45284e-05
1.07841e-05
7.59307e-05
9.27378e-06
7.64948e-05
7.66771e-06
7.6536e-05
6.34982e-06
7.62613e-05
5.37055e-06
7.57957e-05
4.62689e-06
7.52196e-05
4.0487e-06
7.45815e-05
3.58881e-06
7.39115e-05
3.2146e-06
7.32295e-05
2.90558e-06
7.25491e-05
2.64827e-06
7.1879e-05
2.43386e-06
7.12237e-05
2.25643e-06
7.05853e-05
2.11145e-06
6.99638e-05
1.99547e-06
6.93578e-05
1.9059e-06
6.87651e-05
1.84084e-06
6.81824e-05
1.79893e-06
6.76062e-05
1.77927e-06
6.70322e-05
1.7813e-06
6.64557e-05
1.80474e-06
6.58719e-05
1.84952e-06
6.52752e-05
1.91565e-06
6.46599e-05
2.00316e-06
6.40197e-05
2.11184e-06
6.33477e-05
2.24132e-06
6.26354e-05
2.38992e-06
6.18735e-05
2.55616e-06
6.10432e-05
2.73537e-06
6.01196e-05
2.92246e-06
3.14072e-06
5.90522e-05
6.95574e-05
5.39019e-06
7.18307e-05
9.37745e-06
7.35282e-05
9.08661e-06
7.47942e-05
8.00774e-06
7.56817e-05
6.78023e-06
7.63272e-05
5.70431e-06
7.68157e-05
4.88201e-06
7.7188e-05
4.25459e-06
7.74712e-05
3.7655e-06
7.76829e-05
3.37711e-06
7.78352e-05
3.06229e-06
7.7937e-05
2.80377e-06
7.79944e-05
2.59087e-06
7.80125e-05
2.4158e-06
7.79962e-05
2.27275e-06
7.79498e-05
2.15787e-06
7.78767e-05
2.06852e-06
7.77797e-05
2.00288e-06
7.76608e-05
1.95978e-06
7.75212e-05
1.93853e-06
7.73616e-05
1.93885e-06
7.71822e-05
1.96077e-06
7.69823e-05
2.0046e-06
7.6761e-05
2.07082e-06
7.65166e-05
2.16005e-06
7.62468e-05
2.27299e-06
7.59483e-05
2.41028e-06
7.56171e-05
2.57254e-06
7.52469e-05
2.76011e-06
7.48296e-05
2.97345e-06
7.43499e-05
3.2151e-06
7.37854e-05
3.48698e-06
3.81844e-06
7.31077e-05
7.08389e-05
3.93535e-06
7.26223e-05
7.59404e-06
7.39237e-05
7.78518e-06
7.48476e-05
7.08382e-06
7.54709e-05
6.15694e-06
7.59132e-05
5.26204e-06
7.62616e-05
4.53362e-06
7.65564e-05
3.95977e-06
7.68179e-05
3.50403e-06
7.70557e-05
3.13928e-06
7.72739e-05
2.84407e-06
7.74749e-05
2.60281e-06
7.76606e-05
2.40512e-06
7.78326e-05
2.24389e-06
7.79913e-05
2.11398e-06
7.81376e-05
2.01164e-06
7.82719e-05
1.93422e-06
7.83949e-05
1.87988e-06
7.85072e-05
1.84743e-06
7.86096e-05
1.83616e-06
7.87026e-05
1.8458e-06
7.8787e-05
1.8764e-06
7.88633e-05
1.92832e-06
7.89319e-05
2.00214e-06
7.89933e-05
2.09864e-06
7.90475e-05
2.21881e-06
7.90941e-05
2.36376e-06
7.91318e-05
2.53483e-06
7.91579e-05
2.73393e-06
7.91679e-05
2.96347e-06
7.9154e-05
3.22907e-06
7.91041e-05
3.5368e-06
3.90893e-06
7.90136e-05
7.23876e-05
2.91413e-06
7.38363e-05
6.1453e-06
7.49589e-05
6.66263e-06
7.57704e-05
6.2723e-06
7.63204e-05
5.60692e-06
7.66928e-05
4.88964e-06
7.6964e-05
4.26241e-06
7.71763e-05
3.74753e-06
7.7353e-05
3.32725e-06
7.75078e-05
2.98454e-06
7.76476e-05
2.70426e-06
7.77763e-05
2.47412e-06
7.78961e-05
2.28529e-06
7.80085e-05
2.13146e-06
7.81146e-05
2.00796e-06
7.82149e-05
1.91132e-06
7.83101e-05
1.83904e-06
7.84006e-05
1.7893e-06
7.84872e-05
1.76088e-06
7.85704e-05
1.75299e-06
7.86509e-05
1.76526e-06
7.87297e-05
1.7976e-06
7.88078e-05
1.85021e-06
7.88864e-05
1.92351e-06
7.89669e-05
2.01814e-06
7.90508e-05
2.13493e-06
7.91396e-05
2.27498e-06
7.92347e-05
2.4397e-06
7.93375e-05
2.63117e-06
7.94487e-05
2.85225e-06
7.95693e-05
3.10848e-06
7.96991e-05
3.40698e-06
3.76062e-06
7.98474e-05
7.4124e-05
2.19537e-06
7.52879e-05
4.98142e-06
7.62642e-05
5.68638e-06
7.70092e-05
5.52729e-06
7.75459e-05
5.07019e-06
7.79238e-05
4.51176e-06
7.82005e-05
3.98574e-06
7.84133e-05
3.53467e-06
7.85848e-05
3.15573e-06
7.87291e-05
2.84032e-06
7.88543e-05
2.57906e-06
7.89653e-05
2.36306e-06
7.90653e-05
2.18529e-06
7.91563e-05
2.0405e-06
7.92396e-05
1.92465e-06
7.93162e-05
1.83466e-06
7.93871e-05
1.76821e-06
7.94527e-05
1.72363e-06
7.95139e-05
1.69972e-06
7.95712e-05
1.6957e-06
7.96253e-05
1.71114e-06
7.9677e-05
1.74587e-06
7.97273e-05
1.79996e-06
7.97771e-05
1.87372e-06
7.98276e-05
1.9676e-06
7.98802e-05
2.08231e-06
7.99364e-05
2.21878e-06
7.99979e-05
2.37825e-06
8.00665e-05
2.5626e-06
8.01443e-05
2.77441e-06
8.02349e-05
3.01786e-06
8.03431e-05
3.29882e-06
3.62335e-06
8.04804e-05
7.60155e-05
1.68235e-06
7.69484e-05
4.04848e-06
7.77917e-05
4.84315e-06
7.84656e-05
4.8533e-06
7.89769e-05
4.55892e-06
7.9354e-05
4.13466e-06
7.96391e-05
3.70069e-06
7.98633e-05
3.31044e-06
8.00462e-05
2.97278e-06
8.02007e-05
2.68589e-06
8.03346e-05
2.44514e-06
8.0453e-05
2.24466e-06
8.05591e-05
2.07917e-06
8.06552e-05
1.94441e-06
8.07429e-05
1.83699e-06
8.08233e-05
1.75423e-06
8.08974e-05
1.69408e-06
8.09661e-05
1.65498e-06
8.103e-05
1.63581e-06
8.10899e-05
1.63581e-06
8.11465e-05
1.65451e-06
8.12007e-05
1.69167e-06
8.12534e-05
1.7473e-06
8.13055e-05
1.82156e-06
8.13583e-05
1.91483e-06
8.1413e-05
2.02762e-06
8.1471e-05
2.16072e-06
8.15341e-05
2.31518e-06
8.16042e-05
2.49249e-06
8.1684e-05
2.69469e-06
8.17772e-05
2.92465e-06
8.18896e-05
3.18637e-06
3.48195e-06
8.2031e-05
7.80318e-05
1.31017e-06
7.87794e-05
3.30085e-06
7.95054e-05
4.11716e-06
8.01127e-05
4.24596e-06
8.05951e-05
4.07657e-06
8.09662e-05
3.76352e-06
8.1255e-05
3.41194e-06
8.14864e-05
3.07901e-06
8.16775e-05
2.78171e-06
8.18398e-05
2.52357e-06
8.19811e-05
2.30379e-06
8.21066e-05
2.1192e-06
8.22196e-05
1.9662e-06
8.23224e-05
1.84156e-06
8.24169e-05
1.74255e-06
8.25042e-05
1.6669e-06
8.25855e-05
1.61279e-06
8.26616e-05
1.57883e-06
8.27335e-05
1.56394e-06
8.28019e-05
1.56737e-06
8.28678e-05
1.58861e-06
8.29321e-05
1.62736e-06
8.29959e-05
1.68351e-06
8.30604e-05
1.75712e-06
8.31268e-05
1.84838e-06
8.31968e-05
1.95767e-06
8.3272e-05
2.0855e-06
8.33546e-05
2.23262e-06
8.3447e-05
2.40005e-06
8.35526e-05
2.58912e-06
8.36758e-05
2.80141e-06
8.38231e-05
3.03911e-06
3.30182e-06
8.40032e-05
8.01534e-05
1.03507e-06
8.07542e-05
2.70003e-06
8.13787e-05
3.49268e-06
8.19253e-05
3.69941e-06
8.23775e-05
3.62431e-06
8.27391e-05
3.40195e-06
8.30284e-05
3.12262e-06
8.32649e-05
2.84249e-06
8.3463e-05
2.58366e-06
8.36328e-05
2.35374e-06
8.37816e-05
2.15495e-06
8.39144e-05
1.98645e-06
8.40344e-05
1.84614e-06
8.41443e-05
1.73175e-06
8.42456e-05
1.64119e-06
8.43399e-05
1.57257e-06
8.44284e-05
1.52432e-06
8.45121e-05
1.49517e-06
8.45919e-05
1.48412e-06
8.46689e-05
1.49041e-06
8.4744e-05
1.51349e-06
8.48184e-05
1.55297e-06
8.48932e-05
1.60864e-06
8.497e-05
1.6804e-06
8.50501e-05
1.76826e-06
8.51354e-05
1.87236e-06
8.52279e-05
1.99294e-06
8.53302e-05
2.13033e-06
8.54453e-05
2.28499e-06
8.55769e-05
2.45748e-06
8.57301e-05
2.6482e-06
8.59115e-05
2.85775e-06
3.08407e-06
8.61292e-05
8.2368e-05
8.27526e-07
8.28531e-05
2.21492e-06
8.33898e-05
2.95601e-06
8.38807e-05
3.20851e-06
8.43028e-05
3.20219e-06
8.46529e-05
3.05184e-06
8.49413e-05
2.83421e-06
8.51822e-05
2.60162e-06
8.5387e-05
2.3788e-06
8.55646e-05
2.17616e-06
8.57214e-05
1.99817e-06
8.5862e-05
1.84581e-06
8.59899e-05
1.71831e-06
8.61074e-05
1.61426e-06
8.62164e-05
1.53214e-06
8.63185e-05
1.47045e-06
8.6415e-05
1.42787e-06
8.65069e-05
1.40324e-06
8.65954e-05
1.39562e-06
8.66816e-05
1.40424e-06
8.67666e-05
1.42851e-06
8.68516e-05
1.46796e-06
8.6938e-05
1.52223e-06
8.70273e-05
1.59108e-06
8.71212e-05
1.67431e-06
8.72218e-05
1.77181e-06
8.73313e-05
1.88347e-06
8.74523e-05
2.00924e-06
8.75883e-05
2.149e-06
8.77433e-05
2.30254e-06
8.79222e-05
2.46933e-06
8.81312e-05
2.64867e-06
2.83753e-06
8.83778e-05
8.46677e-05
6.67585e-07
8.50621e-05
1.82054e-06
8.55237e-05
2.49446e-06
8.59643e-05
2.76782e-06
8.63572e-05
2.80931e-06
8.66944e-05
2.71468e-06
8.698e-05
2.54855e-06
8.72238e-05
2.35791e-06
8.74345e-05
2.1681e-06
8.76194e-05
1.99124e-06
8.77842e-05
1.83337e-06
8.79331e-05
1.69687e-06
8.80694e-05
1.58205e-06
8.81954e-05
1.48828e-06
8.8313e-05
1.41453e-06
8.84238e-05
1.35965e-06
8.85291e-05
1.32253e-06
8.86302e-05
1.30213e-06
8.87283e-05
1.29756e-06
8.88245e-05
1.30804e-06
8.89201e-05
1.33291e-06
8.90164e-05
1.37161e-06
8.9115e-05
1.42367e-06
8.92174e-05
1.48866e-06
8.93255e-05
1.56618e-06
8.94415e-05
1.65587e-06
8.95677e-05
1.75729e-06
8.97069e-05
1.86998e-06
8.98626e-05
1.99332e-06
9.00387e-05
2.12648e-06
9.02398e-05
2.26817e-06
9.04717e-05
2.41681e-06
2.56887e-06
9.07403e-05
8.70481e-05
5.41673e-07
8.73715e-05
1.49709e-06
8.77694e-05
2.09657e-06
8.81651e-05
2.37208e-06
8.85301e-05
2.44431e-06
8.88535e-05
2.39131e-06
8.91351e-05
2.26697e-06
8.93806e-05
2.11242e-06
8.95965e-05
1.95219e-06
8.97885e-05
1.79921e-06
8.99614e-05
1.66046e-06
9.0119e-05
1.53934e-06
9.0264e-05
1.43696e-06
9.0399e-05
1.35332e-06
9.05257e-05
1.28783e-06
9.06457e-05
1.23961e-06
9.07605e-05
1.20775e-06
9.08713e-05
1.19131e-06
9.09795e-05
1.18942e-06
9.10862e-05
1.20131e-06
9.11929e-05
1.22624e-06
9.13009e-05
1.26357e-06
9.14119e-05
1.31269e-06
9.15275e-05
1.37302e-06
9.16498e-05
1.44395e-06
9.17808e-05
1.52487e-06
9.1923e-05
1.61506e-06
9.20793e-05
1.7137e-06
9.22528e-05
1.81975e-06
9.24474e-05
1.9319e-06
9.26672e-05
2.04836e-06
9.29171e-05
2.16695e-06
2.28408e-06
9.32019e-05
8.95068e-05
4.40458e-07
8.97748e-05
1.22902e-06
9.01193e-05
1.75213e-06
9.04753e-05
2.01607e-06
9.08144e-05
2.10522e-06
9.11239e-05
2.0818e-06
9.14005e-05
1.99034e-06
9.16468e-05
1.8661e-06
9.18672e-05
1.73184e-06
9.20658e-05
1.60056e-06
9.22466e-05
1.47969e-06
9.24127e-05
1.37321e-06
9.25669e-05
1.28286e-06
9.27111e-05
1.20908e-06
9.28473e-05
1.15162e-06
9.2977e-05
1.10988e-06
9.31017e-05
1.08306e-06
9.32227e-05
1.07031e-06
9.33414e-05
1.07079e-06
9.3459e-05
1.08369e-06
9.3577e-05
1.10824e-06
9.36969e-05
1.14369e-06
9.38203e-05
1.1893e-06
9.39489e-05
1.24435e-06
9.40848e-05
1.30804e-06
9.42302e-05
1.37955e-06
9.43873e-05
1.45792e-06
9.4559e-05
1.54203e-06
9.47482e-05
1.63054e-06
9.49583e-05
1.72181e-06
9.51929e-05
1.81375e-06
9.54559e-05
1.9039e-06
1.9888e-06
9.57512e-05
9.20429e-05
3.57428e-07
9.22678e-05
1.00411e-06
9.25678e-05
1.4521e-06
9.28892e-05
1.69473e-06
9.32046e-05
1.78974e-06
9.35007e-05
1.78573e-06
9.37719e-05
1.71911e-06
9.40185e-05
1.61956e-06
9.42427e-05
1.50758e-06
9.44477e-05
1.39561e-06
9.46363e-05
1.29112e-06
9.48111e-05
1.19839e-06
9.49744e-05
1.11951e-06
9.51283e-05
1.05524e-06
9.52743e-05
1.00559e-06
9.54141e-05
9.70114e-07
9.5549e-05
9.48132e-07
9.56804e-05
9.38853e-07
9.58098e-05
9.41445e-07
9.59384e-05
9.55069e-07
9.60677e-05
9.78889e-07
9.61994e-05
1.01207e-06
9.63349e-05
1.05378e-06
9.64761e-05
1.10314e-06
9.66249e-05
1.15923e-06
9.67834e-05
1.22101e-06
9.6954e-05
1.28736e-06
9.71391e-05
1.35696e-06
9.73414e-05
1.42825e-06
9.75637e-05
1.49942e-06
9.78092e-05
1.56826e-06
9.80809e-05
1.63223e-06
1.68819e-06
9.83815e-05
9.46566e-05
2.87955e-07
9.48479e-05
8.12819e-07
9.51114e-05
1.18863e-06
9.54029e-05
1.4032e-06
9.56974e-05
1.4953e-06
9.59809e-05
1.50218e-06
9.62468e-05
1.45323e-06
9.64933e-05
1.37309e-06
9.67211e-05
1.27971e-06
9.69322e-05
1.18459e-06
9.71284e-05
1.09488e-06
9.73119e-05
1.01487e-06
9.74846e-05
9.46807e-07
9.76482e-05
8.91636e-07
9.78043e-05
8.49504e-07
9.79543e-05
8.20081e-07
9.80997e-05
8.02756e-07
9.82418e-05
7.96766e-07
9.8382e-05
8.01275e-07
9.85216e-05
8.15412e-07
9.86622e-05
8.38284e-07
9.88053e-05
8.68985e-07
9.89525e-05
9.06579e-07
9.91056e-05
9.50084e-07
9.92664e-05
9.98451e-07
9.94368e-05
1.05054e-06
9.96191e-05
1.10507e-06
9.98155e-05
1.16061e-06
0.000100028
1.21551e-06
0.00010026
1.2679e-06
0.000100512
1.3156e-06
0.000100788
1.35614e-06
1.38681e-06
0.00010109
9.73488e-05
2.28678e-07
9.7514e-05
6.47636e-07
9.77477e-05
9.54882e-07
9.80141e-05
1.13686e-06
9.82902e-05
1.21916e-06
9.85626e-05
1.22981e-06
9.88235e-05
1.19225e-06
9.907e-05
1.12666e-06
9.93014e-05
1.04834e-06
9.95184e-05
9.67577e-07
9.97223e-05
8.90969e-07
9.99146e-05
8.22575e-07
0.000100097
7.64616e-07
0.00010027
7.18081e-07
0.000100437
6.83176e-07
0.000100597
6.59612e-07
0.000100753
6.46804e-07
0.000100906
6.43993e-07
0.000101057
6.50323e-07
0.000101207
6.64885e-07
0.000101359
6.86735e-07
0.000101513
7.14902e-07
0.000101671
7.48375e-07
0.000101835
7.86094e-07
0.000102007
8.26927e-07
0.000102188
8.69651e-07
0.00010238
9.12926e-07
0.000102585
9.55274e-07
0.000102806
9.95037e-07
0.000103043
1.03038e-06
0.000103299
1.05926e-06
0.000103576
1.07938e-06
1.08852e-06
0.000103874
0.000100121
1.77095e-07
0.000100266
5.02612e-07
0.000100476
7.44954e-07
0.000100721
8.91358e-07
0.000100982
9.58428e-07
0.000101245
9.66953e-07
0.000101502
9.35344e-07
0.000101748
8.79854e-07
0.000101984
8.13256e-07
0.000102207
7.44434e-07
0.000102418
6.79241e-07
0.00010262
6.2133e-07
0.000102812
5.72739e-07
0.000102995
5.34378e-07
0.000103172
5.06417e-07
0.000103343
4.88551e-07
0.00010351
4.80176e-07
0.000103673
4.80511e-07
0.000103835
4.88666e-07
0.000103996
5.03692e-07
0.000104158
5.24597e-07
0.000104323
5.50358e-07
0.000104491
5.79917e-07
0.000104665
6.12159e-07
0.000104846
6.45907e-07
0.000105036
6.79909e-07
0.000105236
7.12815e-07
0.000105448
7.43165e-07
0.000105674
7.6937e-07
0.000105914
7.89712e-07
0.000106171
8.02341e-07
0.000106445
8.05245e-07
7.96653e-07
0.000106737
0.000102974
1.31295e-07
0.000103104
3.7297e-07
0.000103295
5.5372e-07
0.000103524
6.62569e-07
0.000103772
7.10152e-07
0.000104027
7.11654e-07
0.000104281
6.81305e-07
0.000104529
6.31965e-07
0.000104768
5.74005e-07
0.000104998
5.14847e-07
0.000105218
4.5945e-07
0.000105428
4.10927e-07
0.00010563
3.70994e-07
0.000105824
3.40375e-07
0.000106011
3.19126e-07
0.000106193
3.06862e-07
0.00010637
3.02923e-07
0.000106544
3.06473e-07
0.000106716
3.16581e-07
0.000106888
3.32252e-07
0.00010706
3.52453e-07
0.000107234
3.76119e-07
0.000107412
4.02179e-07
0.000107594
4.2948e-07
0.000107783
4.56839e-07
0.00010798
4.83019e-07
0.000108186
5.0671e-07
0.000108403
5.26523e-07
0.000108631
5.40988e-07
0.000108873
5.4856e-07
0.000109127
5.47629e-07
0.000109396
5.36475e-07
5.13765e-07
0.000109679
0.00010591
8.97689e-08
0.000106028
2.54806e-07
0.000106205
3.76686e-07
0.000106421
4.46593e-07
0.00010666
4.71283e-07
0.00010691
4.61681e-07
0.000107163
4.28568e-07
0.000107413
3.81876e-07
0.000107657
3.29762e-07
0.000107894
2.7816e-07
0.000108122
2.31049e-07
0.000108342
1.9089e-07
0.000108554
1.58965e-07
0.000108759
1.35722e-07
0.000108957
1.21024e-07
0.00010915
1.14355e-07
0.000109338
1.14954e-07
0.000109522
1.21912e-07
0.000109705
1.34239e-07
0.000109886
1.50893e-07
0.000110068
1.70803e-07
0.000110251
1.92858e-07
0.000110437
2.16063e-07
0.000110627
2.39179e-07
0.000110823
2.61073e-07
0.000111026
2.80564e-07
0.000111236
2.96418e-07
0.000111455
3.07361e-07
0.000111684
3.1208e-07
0.000111923
3.09235e-07
0.000112173
2.97481e-07
0.000112434
2.7541e-07
2.42094e-07
0.000112706
0.000108932
5.12852e-08
0.000109042
1.44843e-07
0.000109209
2.09847e-07
0.000109416
2.39703e-07
0.000109648
2.38708e-07
0.000109895
2.14588e-07
0.000110149
1.7529e-07
0.000110402
1.28223e-07
0.000110652
7.9512e-08
0.000110897
3.36161e-08
0.000111135
-6.53484e-09
0.000111365
-3.92032e-08
0.000111587
-6.36408e-08
0.000111803
-7.97572e-08
0.000112012
-8.7946e-08
0.000112215
-8.89098e-08
0.000112413
-8.35433e-08
0.000112608
-7.28514e-08
0.0001128
-5.78959e-08
0.000112991
-3.97615e-08
0.000113181
-1.95348e-08
0.000113373
1.48923e-09
0.000113566
2.27168e-08
0.000113763
4.25644e-08
0.000113964
6.0106e-08
0.00011417
7.42193e-08
0.000114383
8.37753e-08
0.000114602
8.76421e-08
0.00011483
8.46862e-08
0.000115065
7.3784e-08
0.000115309
5.3855e-08
0.00011556
2.37731e-08
-1.70151e-08
0.00011582
0.000112041
1.47948e-08
0.000112146
4.02293e-08
0.000112306
4.95252e-08
0.000112507
3.82297e-08
0.000112737
9.13166e-09
0.000112984
-3.24371e-08
0.00011324
-8.08599e-08
0.000113499
-1.30919e-07
0.000113757
-1.78353e-07
0.000114011
-2.20145e-07
0.000114259
-2.54441e-07
0.0001145
-2.80329e-07
0.000114734
-2.97639e-07
0.000114961
-3.06724e-07
0.000115181
-3.08292e-07
0.000115396
-3.0328e-07
0.000115605
-2.9275e-07
0.00011581
-2.7783e-07
0.000116012
-2.59663e-07
0.000116211
-2.39388e-07
0.00011641
-2.18131e-07
0.000116608
-1.97012e-07
0.000116808
-1.76997e-07
0.00011701
-1.59245e-07
0.000117215
-1.44765e-07
0.000117423
-1.34562e-07
0.000117637
-1.29633e-07
0.000117855
-1.30951e-07
0.00011808
-1.3946e-07
0.000118309
-1.56059e-07
0.000118545
-1.81571e-07
0.000118785
-2.16828e-07
-2.62102e-07
0.000119031
0.00011524
-2.06377e-08
0.000115342
-6.1607e-08
0.000115499
-1.07736e-07
0.000115699
-1.61436e-07
0.000115929
-2.20808e-07
0.000116178
-2.82328e-07
0.00011644
-3.42325e-07
0.000116707
-3.9752e-07
0.000116974
-4.45385e-07
0.000117238
-4.8432e-07
0.000117497
-5.13587e-07
0.00011775
-5.33143e-07
0.000117996
-5.43475e-07
0.000118234
-5.45432e-07
0.000118466
-5.40095e-07
0.000118691
-5.28673e-07
0.000118911
-5.12429e-07
0.000119126
-4.92628e-07
0.000119337
-4.70506e-07
0.000119545
-4.47256e-07
0.000119751
-4.2402e-07
0.000119955
-4.01886e-07
0.00012016
-3.81873e-07
0.000120366
-3.64983e-07
0.000120573
-3.52164e-07
0.000120783
-3.44313e-07
0.000120996
-3.42287e-07
0.000121212
-3.46893e-07
0.000121431
-3.58884e-07
0.000121654
-3.78948e-07
0.00012188
-4.07673e-07
0.000122109
-4.45651e-07
-4.92914e-07
0.00012234
0.000118531
-5.59031e-08
0.000118633
-1.63158e-07
0.00011879
-2.65435e-07
0.000118992
-3.63188e-07
0.000119226
-4.55015e-07
0.000119483
-5.38791e-07
0.000119753
-6.12508e-07
0.00012003
-6.74637e-07
0.000120309
-7.24291e-07
0.000120586
-7.61274e-07
0.000120858
-7.86002e-07
0.000121125
-7.99358e-07
0.000121384
-8.02552e-07
0.000121635
-7.96993e-07
0.000121879
-7.84186e-07
0.000122116
-7.65655e-07
0.000122347
-7.4289e-07
0.000122571
-7.17314e-07
0.000122791
-6.90268e-07
0.000123007
-6.62998e-07
0.00012322
-6.36663e-07
0.00012343
-6.12333e-07
0.000123639
-5.90991e-07
0.000123848
-5.73557e-07
0.000124056
-5.60878e-07
0.000124266
-5.53732e-07
0.000124476
-5.52828e-07
0.000124688
-5.58809e-07
0.000124902
-5.72238e-07
0.000125116
-5.93601e-07
0.000125332
-6.23269e-07
0.000125548
-6.61598e-07
-7.08408e-07
0.000125763
0.000121917
-9.1871e-08
0.000122021
-2.66869e-07
0.000122183
-4.27023e-07
0.00012239
-5.70862e-07
0.000122632
-6.97263e-07
0.000122899
-8.05272e-07
0.000123181
-8.94395e-07
0.000123471
-9.64764e-07
0.000123764
-1.0171e-06
0.000124055
-1.05263e-06
0.000124342
-1.07295e-06
0.000124623
-1.07994e-06
0.000124896
-1.07558e-06
0.000125161
-1.06189e-06
0.000125417
-1.04084e-06
0.000125666
-1.01431e-06
0.000125907
-9.84036e-07
0.000126141
-9.51625e-07
0.00012637
-9.18524e-07
0.000126593
-8.86041e-07
0.000126811
-8.5535e-07
0.000127027
-8.27498e-07
0.000127239
-8.03422e-07
0.000127449
-7.83956e-07
0.000127658
-7.69843e-07
0.000127866
-7.61735e-07
0.000128074
-7.60198e-07
0.000128281
-7.6571e-07
0.000128487
-7.78666e-07
0.000128693
-7.99369e-07
0.000128898
-8.28008e-07
0.000129101
-8.64763e-07
-9.09302e-07
0.000129302
0.000125401
-1.29555e-07
0.00012551
-3.75597e-07
0.00012568
-5.96736e-07
0.000125898
-7.89526e-07
0.000126154
-9.53013e-07
0.000126436
-1.08729e-06
0.000126735
-1.19329e-06
0.000127043
-1.2728e-06
0.000127354
-1.32819e-06
0.000127664
-1.36217e-06
0.000127968
-1.37763e-06
0.000128266
-1.37749e-06
0.000128555
-1.3646e-06
0.000128835
-1.34165e-06
0.000129105
-1.31114e-06
0.000129366
-1.27531e-06
0.000129618
-1.23619e-06
0.000129862
-1.19557e-06
0.000130098
-1.15501e-06
0.000130328
-1.11588e-06
0.000130552
-1.07938e-06
0.000130771
-1.04651e-06
0.000130986
-1.01815e-06
0.000131197
-9.95063e-07
0.000131405
-9.7787e-07
0.000131611
-9.67099e-07
0.000131814
-9.63172e-07
0.000132014
-9.66415e-07
0.000132213
-9.77056e-07
0.000132408
-9.95229e-07
0.000132601
-1.02095e-06
0.000132791
-1.05422e-06
-1.09457e-06
0.000132976
0.000128985
-1.6991e-07
0.000129102
-4.92088e-07
0.000129284
-7.78416e-07
0.000129518
-1.0234e-06
0.000129791
-1.22639e-06
0.000130092
-1.38862e-06
0.000130411
-1.51254e-06
0.00013074
-1.60168e-06
0.000131072
-1.66013e-06
0.000131402
-1.69216e-06
0.000131727
-1.702e-06
0.000132043
-1.69371e-06
0.000132349
-1.67107e-06
0.000132645
-1.63749e-06
0.00013293
-1.59603e-06
0.000133204
-1.54936e-06
0.000133468
-1.49981e-06
0.000133722
-1.44938e-06
0.000133966
-1.39976e-06
0.000134203
-1.35238e-06
0.000134432
-1.30843e-06
0.000134654
-1.26892e-06
0.000134871
-1.23464e-06
0.000135082
-1.20627e-06
0.000135288
-1.18433e-06
0.000135491
-1.16921e-06
0.000135689
-1.16121e-06
0.000135883
-1.16049e-06
0.000136073
-1.16715e-06
0.000136259
-1.18118e-06
0.00013644
-1.20246e-06
0.000136617
-1.23087e-06
-1.26585e-06
0.000136788
0.000132674
-2.14644e-07
0.000132803
-6.2101e-07
0.000133003
-9.79102e-07
0.000133261
-1.28109e-06
0.000133561
-1.52674e-06
0.000133891
-1.7186e-06
0.00013424
-1.86088e-06
0.000134597
-1.95912e-06
0.000134957
-2.01943e-06
0.000135312
-2.04786e-06
0.00013566
-2.05017e-06
0.000135998
-2.03167e-06
0.000136324
-1.99714e-06
0.000136638
-1.9508e-06
0.000136938
-1.8963e-06
0.000137225
-1.83675e-06
0.0001375
-1.7748e-06
0.000137764
-1.71263e-06
0.000138016
-1.65208e-06
0.000138258
-1.59463e-06
0.000138491
-1.54147e-06
0.000138716
-1.49356e-06
0.000138933
-1.45165e-06
0.000139143
-1.4163e-06
0.000139346
-1.38792e-06
0.000139544
-1.36679e-06
0.000139736
-1.35305e-06
0.000139922
-1.34677e-06
0.000140103
-1.34787e-06
0.000140278
-1.3562e-06
0.000140447
-1.37153e-06
0.00014061
-1.39357e-06
-1.42168e-06
0.000140765
0.000136468
-2.64576e-07
0.000136612
-7.65186e-07
0.000136836
-1.20241e-06
0.000137121
-1.56628e-06
0.000137452
-1.85771e-06
0.000137814
-2.08098e-06
0.000138196
-2.24226e-06
0.000138586
-2.34935e-06
0.000138977
-2.41049e-06
0.000139363
-2.4337e-06
0.000139739
-2.42642e-06
0.000140103
-2.39536e-06
0.000140452
-2.34644e-06
0.000140786
-2.28475e-06
0.000141104
-2.21462e-06
0.000141407
-2.13966e-06
0.000141695
-2.06284e-06
0.000141969
-1.9866e-06
0.00014223
-1.91287e-06
0.000142479
-1.84321e-06
0.000142716
-1.7788e-06
0.000142943
-1.72055e-06
0.00014316
-1.66914e-06
0.000143369
-1.62502e-06
0.00014357
-1.58849e-06
0.000143763
-1.55971e-06
0.000143948
-1.53868e-06
0.000144127
-1.52534e-06
0.000144298
-1.51949e-06
0.000144463
-1.52089e-06
0.000144621
-1.52918e-06
0.000144771
-1.54401e-06
-1.56467e-06
0.000144914
0.000140376
-3.24402e-07
0.000140546
-9.35951e-07
0.000140808
-1.46444e-06
0.000141139
-1.89717e-06
0.000141519
-2.23724e-06
0.00014193
-2.49169e-06
0.000142357
-2.66973e-06
0.00014279
-2.7823e-06
0.00014322
-2.84046e-06
0.000143641
-2.8545e-06
0.000144048
-2.83372e-06
0.000144439
-2.78637e-06
0.000144812
-2.71953e-06
0.000145167
-2.6392e-06
0.000145502
-2.55036e-06
0.00014582
-2.45711e-06
0.00014612
-2.36276e-06
0.000146403
-2.26993e-06
0.000146671
-2.18068e-06
0.000146924
-2.09659e-06
0.000147164
-2.01885e-06
0.000147392
-1.94829e-06
0.000147608
-1.88551e-06
0.000147814
-1.83085e-06
0.00014801
-1.78449e-06
0.000148197
-1.74645e-06
0.000148375
-1.71663e-06
0.000148544
-1.69482e-06
0.000148706
-1.68071e-06
0.000148859
-1.67393e-06
0.000149003
-1.67401e-06
0.00014914
-1.68047e-06
-1.69251e-06
0.000149268
0.000144392
-3.91871e-07
0.000144588
-1.132e-06
0.000144887
-1.76374e-06
0.000145264
-2.2736e-06
0.000145695
-2.66813e-06
0.00014616
-2.957e-06
0.000146643
-3.15245e-06
0.00014713
-3.26906e-06
0.00014761
-3.32121e-06
0.000148078
-3.32198e-06
0.000148527
-3.28303e-06
0.000148955
-3.21448e-06
0.00014936
-3.12483e-06
0.000149742
-3.02116e-06
0.000150101
-2.90921e-06
0.000150438
-2.79361e-06
0.000150753
-2.67801e-06
0.000151048
-2.56524e-06
0.000151325
-2.45744e-06
0.000151585
-2.3562e-06
0.000151828
-2.26264e-06
0.000152058
-2.17754e-06
0.000152274
-2.10134e-06
0.000152477
-2.03428e-06
0.000152669
-1.97638e-06
0.00015285
-1.92755e-06
0.000153021
-1.88753e-06
0.000153182
-1.856e-06
0.000153334
-1.83255e-06
0.000153477
-1.8167e-06
0.000153611
-1.80791e-06
0.000153736
-1.80567e-06
-1.80909e-06
0.000153852
0.000148543
-4.86548e-07
0.000148801
-1.39032e-06
0.000149181
-2.14344e-06
0.000149642
-2.73447e-06
0.000150153
-3.18001e-06
0.000150693
-3.49628e-06
0.000151241
-3.70117e-06
0.000151787
-3.81419e-06
0.000152319
-3.85336e-06
0.000152831
-3.83458e-06
0.00015332
-3.77176e-06
0.000153782
-3.67678e-06
0.000154217
-3.5595e-06
0.000154624
-3.42801e-06
0.000155003
-3.28879e-06
0.000155357
-3.14697e-06
0.000155685
-3.00654e-06
0.000155991
-2.87051e-06
0.000156274
-2.7411e-06
0.000156538
-2.61989e-06
0.000156783
-2.50795e-06
0.000157012
-2.40593e-06
0.000157224
-2.31417e-06
0.000157423
-2.23273e-06
0.000157608
-2.16151e-06
0.000157781
-2.10024e-06
0.000157942
-2.04854e-06
0.000158092
-2.00596e-06
0.000158231
-1.97196e-06
0.00015836
-1.94596e-06
0.00015848
-1.92731e-06
0.000158589
-1.91537e-06
-1.90916e-06
0.00015869
0.000152786
-5.8363e-07
0.000153081
-1.6849e-06
0.000153522
-2.58482e-06
0.000154067
-3.27885e-06
0.000154677
-3.7902e-06
0.00015532
-4.13912e-06
0.000155969
-4.35103e-06
0.000156609
-4.45325e-06
0.000157225
-4.46954e-06
0.00015781
-4.42013e-06
0.000158361
-4.32226e-06
0.000158874
-4.19024e-06
0.00015935
-4.03562e-06
0.00015979
-3.86765e-06
0.000160195
-3.69358e-06
0.000160567
-3.51899e-06
0.000160908
-3.34808e-06
0.000161222
-3.18396e-06
0.000161509
-3.02882e-06
0.000161774
-2.88411e-06
0.000162017
-2.75076e-06
0.00016224
-2.62922e-06
0.000162445
-2.51961e-06
0.000162634
-2.42183e-06
0.000162808
-2.33554e-06
0.000162968
-2.26032e-06
0.000163116
-2.19562e-06
0.00016325
-2.14086e-06
0.000163374
-2.09541e-06
0.000163487
-2.05861e-06
0.000163589
-2.02977e-06
0.000163682
-2.00825e-06
-1.99297e-06
0.000163766
0.000157248
-7.8019e-07
0.000157704
-2.14103e-06
0.000158305
-3.18601e-06
0.000158985
-3.9581e-06
0.000159706
-4.51166e-06
0.000160441
-4.87435e-06
0.000161169
-5.07902e-06
0.000161875
-5.15924e-06
0.000162549
-5.14292e-06
0.000163182
-5.05397e-06
0.000163773
-4.91277e-06
0.000164319
-4.73601e-06
0.00016482
-4.53701e-06
0.000165279
-4.32625e-06
0.000165697
-4.11178e-06
0.000166078
-3.89966e-06
0.000166424
-3.69429e-06
0.000166739
-3.4988e-06
0.000167025
-3.31527e-06
0.000167286
-3.14499e-06
0.000167524
-2.98862e-06
0.000167741
-2.84638e-06
0.00016794
-2.71812e-06
0.000168121
-2.60346e-06
0.000168287
-2.50183e-06
0.00016844
-2.41257e-06
0.000168579
-2.33496e-06
0.000168706
-2.26825e-06
0.000168823
-2.2117e-06
0.000168929
-2.16459e-06
0.000169025
-2.12622e-06
0.000169113
-2.09592e-06
-2.07258e-06
0.000169192
0.000161694
-9.35996e-07
0.000162223
-2.66986e-06
0.000162973
-3.9359e-06
0.000163851
-4.83571e-06
0.000164779
-5.44042e-06
0.000165703
-5.79782e-06
0.000166592
-5.96804e-06
0.000167433
-6.00068e-06
0.000168222
-5.93147e-06
0.000168957
-5.78901e-06
0.00016964
-5.5962e-06
0.000170275
-5.37076e-06
0.000170864
-5.12636e-06
0.000171412
-4.87348e-06
0.00017192
-4.62003e-06
0.000172392
-4.37189e-06
0.000172831
-4.1333e-06
0.00017324
-3.90722e-06
0.00017362
-3.69559e-06
0.000173974
-3.49954e-06
0.000174305
-3.31958e-06
0.000174615
-3.15575e-06
0.000174904
-3.00773e-06
0.000175176
-2.87495e-06
0.000175431
-2.75667e-06
0.00017567
-2.65205e-06
0.000175895
-2.56022e-06
0.000176107
-2.4803e-06
0.000176307
-2.41155e-06
0.000176496
-2.35321e-06
0.000176675
-2.30493e-06
0.000176845
-2.26605e-06
-2.23655e-06
0.000177009
0.000166692
-1.47431e-06
0.000167557
-3.53472e-06
0.000168511
-4.89014e-06
0.000169545
-5.87012e-06
0.00017066
-6.5554e-06
0.000171835
-6.97253e-06
0.00017305
-7.18287e-06
0.000174282
-7.23303e-06
0.000175508
-7.15744e-06
0.000176707
-6.98751e-06
0.000177861
-6.75029e-06
0.000178958
-6.46793e-06
0.00017999
-6.15836e-06
0.000180952
-5.83575e-06
0.000181843
-5.511e-06
0.000182664
-5.19233e-06
0.000183416
-4.88568e-06
0.000184104
-4.59516e-06
0.000184732
-4.32339e-06
0.000185304
-4.07182e-06
0.000185826
-3.84101e-06
0.000186301
-3.63084e-06
0.000186734
-3.44071e-06
0.000187128
-3.26969e-06
0.000187488