/*--------------------------------*- C++ -*----------------------------------*\
  =========                 |
  \\      /  F ield         | OpenFOAM: The Open Source CFD Toolbox
   \\    /   O peration     | Website:  https://openfoam.org
    \\  /    A nd           | Version:  10
     \\/     M anipulation  |
\*---------------------------------------------------------------------------*/
FoamFile
{
    format      ascii;
    class       volScalarField;
    location    "700";
    object      epsilon;
}
// * * * * * * * * * * * * * * * * * * * * * * * * * * * * * * * * * * * * * //

dimensions      [0 2 -3 0 0 0 0];

internalField   nonuniform List<scalar> 
6820
(
23.348
22.8004
22.2986
21.7955
21.2906
20.7981
20.3322
19.9017
19.5114
19.1623
18.8537
18.5833
18.3485
18.1463
17.9738
17.8279
17.706
17.6057
17.5246
17.4606
17.4119
17.3769
17.3539
17.3417
17.339
17.345
17.3575
17.3829
17.3904
17.4576
17.5552
14.5125
23.5337
5.24752
7.40664
8.54838
9.16415
9.55048
9.8419
10.0964
10.3396
10.5822
10.8282
11.0788
11.3337
11.5926
11.8548
12.1194
12.3859
12.6537
12.9223
13.1912
13.4601
13.7289
13.9976
14.2663
14.5357
14.8067
15.0811
15.3622
15.657
15.9661
16.3315
16.79
15.6142
15.4024
3.71892
4.27985
4.80509
5.21587
5.52702
5.76873
5.96494
6.13206
6.2809
6.41857
6.54975
6.6775
6.80383
6.93004
7.05692
7.18494
7.31434
7.44523
7.57765
7.71155
7.84691
7.98373
8.12205
8.26202
8.40396
8.54849
8.69657
8.85052
9.01237
9.18949
9.38986
9.6334
8.49463
3.53759
3.62335
3.77161
3.93766
4.09564
4.23625
4.35851
4.46462
4.5576
4.64035
4.71533
4.78457
4.84963
4.91177
4.97193
5.03083
5.08902
5.14692
5.20482
5.26297
5.32154
5.38068
5.44055
5.50131
5.56315
5.62642
5.69154
5.75938
5.83113
5.90867
5.99508
6.11187
6.02281
3.52015
3.50151
3.51116
3.54399
3.59071
3.64323
3.69624
3.74692
3.79404
3.83732
3.87694
3.91331
3.94691
3.97823
4.0077
4.03574
4.06267
4.08879
4.11435
4.13955
4.16457
4.18956
4.21466
4.24003
4.2658
4.29218
4.31943
4.34791
4.3782
4.41112
4.44794
4.49383
4.53252
3.51931
3.48209
3.45346
3.43537
3.42736
3.42747
3.43328
3.44268
3.45404
3.46624
3.47856
3.4906
3.50214
3.5131
3.52348
3.53332
3.54269
3.55167
3.56036
3.56883
3.57718
3.58548
3.59381
3.60225
3.61091
3.61987
3.62929
3.63935
3.65031
3.66254
3.67661
3.69363
3.71357
3.51943
3.47964
3.44271
3.40975
3.38151
3.35815
3.33935
3.32446
3.31276
3.30356
3.29624
3.29034
3.28547
3.28136
3.27782
3.27469
3.27189
3.26936
3.26706
3.26496
3.26307
3.26139
3.25993
3.25871
3.25776
3.25713
3.25688
3.25709
3.25788
3.25941
3.26192
3.26566
3.27096
3.51947
3.47942
3.44105
3.40466
3.37057
3.33904
3.31021
3.28405
3.26043
3.23913
3.21989
3.20246
3.18658
3.17204
3.15865
3.14624
3.13468
3.12387
3.11372
3.10416
3.09513
3.08659
3.07851
3.07087
3.06367
3.05689
3.05055
3.04468
3.03932
3.03453
3.03042
3.02701
3.02441
3.51948
3.47941
3.44084
3.4038
3.36834
3.33453
3.30243
3.27209
3.24351
3.21667
3.19149
3.16788
3.14575
3.12497
3.10544
3.08704
3.06968
3.05327
3.03772
3.02296
3.00894
2.99559
2.98288
2.97076
2.9592
2.94818
2.93769
2.92772
2.91829
2.9094
2.90109
2.89334
2.88615
3.51948
3.47941
3.44081
3.40367
3.36794
3.3336
3.30063
3.26902
3.23875
3.20983
3.18221
3.15588
3.13077
3.10685
3.08406
3.06234
3.04163
3.02186
3.003
2.98497
2.96773
2.95124
2.93545
2.92032
2.90582
2.89193
2.87862
2.86588
2.8537
2.84207
2.83099
2.82043
2.81037
3.51948
3.4794
3.44081
3.40365
3.36787
3.33342
3.30025
3.26831
3.23757
3.20799
3.17954
3.1522
3.12592
3.10067
3.07642
3.05313
3.03076
3.00927
2.98863
2.9688
2.94973
2.93141
2.91378
2.89683
2.88052
2.86482
2.84973
2.83521
2.82126
2.80786
2.79499
2.78263
2.77076
3.51948
3.4794
3.4408
3.40364
3.36785
3.33338
3.30017
3.26815
3.23729
3.20754
3.17885
3.15118
3.1245
3.09878
3.07397
3.05005
3.02698
3.00474
2.98328
2.96258
2.94262
2.92336
2.90478
2.88684
2.86954
2.85284
2.83672
2.82118
2.80618
2.79173
2.77779
2.76434
2.75137
3.51948
3.4794
3.44079
3.40363
3.36784
3.33336
3.30014
3.26811
3.23722
3.20742
3.17867
3.15091
3.12412
3.09824
3.07325
3.04911
3.02579
3.00326
2.98148
2.96043
2.94008
2.92041
2.90139
2.88299
2.86521
2.84801
2.83138
2.81531
2.79976
2.78474
2.77022
2.75617
2.74258
3.51948
3.47939
3.44079
3.40362
3.36783
3.33335
3.30012
3.26808
3.23718
3.20737
3.1786
3.15083
3.124
3.09808
3.07304
3.04884
3.02543
3.0028
2.98091
2.95973
2.93924
2.91941
2.90022
2.88164
2.86365
2.84624
2.82938
2.81306
2.79726
2.78196
2.76715
2.7528
2.73889
3.51948
3.47939
3.44079
3.40362
3.36782
3.33333
3.3001
3.26806
3.23716
3.20734
3.17857
3.15078
3.12395
3.09802
3.07296
3.04874
3.02531
3.00265
2.98073
2.95951
2.93897
2.91909
2.89984
2.88119
2.86313
2.84563
2.82868
2.81226
2.79635
2.78093
2.76599
2.7515
2.73745
3.51947
3.47939
3.44078
3.40361
3.36781
3.33332
3.30009
3.26804
3.23714
3.20732
3.17854
3.15075
3.12391
3.09798
3.07292
3.04869
3.02525
3.00259
2.98065
2.95942
2.93887
2.91897
2.8997
2.88103
2.86295
2.84542
2.82844
2.81198
2.79603
2.78056
2.76556
2.75101
2.7369
3.51947
3.47939
3.44078
3.40361
3.36781
3.33332
3.30008
3.26803
3.23712
3.2073
3.17852
3.15073
3.12388
3.09795
3.07288
3.04865
3.02521
3.00254
2.98061
2.95937
2.93882
2.91892
2.89964
2.88096
2.86287
2.84534
2.82834
2.81187
2.7959
2.78041
2.76539
2.75081
2.73667
3.51947
3.47939
3.44078
3.4036
3.3678
3.33331
3.30007
3.26802
3.23711
3.20728
3.1785
3.1507
3.12386
3.09792
3.07285
3.04862
3.02518
3.00251
2.98057
2.95934
2.93878
2.91888
2.8996
2.88092
2.86282
2.84529
2.82829
2.81181
2.79583
2.78033
2.76529
2.7507
2.73654
3.51947
3.47939
3.44078
3.4036
3.3678
3.3333
3.30006
3.26801
3.23709
3.20727
3.17848
3.15068
3.12384
3.0979
3.07283
3.04859
3.02515
3.00248
2.98054
2.9593
2.93875
2.91884
2.89956
2.88088
2.86278
2.84524
2.82824
2.81176
2.79577
2.78027
2.76522
2.75063
2.73646
3.51947
3.47939
3.44078
3.4036
3.36779
3.3333
3.30005
3.268
3.23708
3.20725
3.17846
3.15067
3.12382
3.09788
3.0728
3.04857
3.02513
3.00245
2.98051
2.95927
2.93872
2.91881
2.89953
2.88085
2.86275
2.84521
2.8282
2.81171
2.79572
2.78021
2.76516
2.75056
2.73638
3.51947
3.47939
3.44077
3.40359
3.36779
3.33329
3.30004
3.26799
3.23707
3.20724
3.17845
3.15065
3.1238
3.09786
3.07278
3.04854
3.0251
3.00243
2.98048
2.95925
2.93869
2.91878
2.8995
2.88082
2.86271
2.84517
2.82816
2.81167
2.79567
2.78016
2.76511
2.7505
2.73632
3.51947
3.47939
3.44077
3.40359
3.36779
3.33329
3.30004
3.26798
3.23706
3.20723
3.17844
3.15064
3.12378
3.09784
3.07277
3.04853
3.02508
3.0024
2.98046
2.95922
2.93866
2.91875
2.89947
2.88079
2.86268
2.84513
2.82812
2.81163
2.79563
2.78011
2.76505
2.75044
2.73625
3.51947
3.47938
3.44077
3.40359
3.36778
3.33328
3.30004
3.26798
3.23706
3.20722
3.17843
3.15063
3.12377
3.09783
3.07275
3.04851
3.02506
3.00239
2.98044
2.9592
2.93864
2.91873
2.89944
2.88076
2.86265
2.8451
2.82809
2.81159
2.79559
2.78006
2.765
2.75039
2.73619
3.51947
3.47938
3.44077
3.40359
3.36778
3.33328
3.30003
3.26797
3.23705
3.20722
3.17842
3.15062
3.12376
3.09782
3.07274
3.04849
3.02505
3.00237
2.98042
2.95918
2.93862
2.91871
2.89942
2.88073
2.86262
2.84507
2.82805
2.81155
2.79555
2.78002
2.76496
2.75033
2.73614
3.51947
3.47938
3.44077
3.40359
3.36778
3.33328
3.30003
3.26797
3.23705
3.20721
3.17841
3.15061
3.12375
3.09781
3.07273
3.04848
3.02504
3.00236
2.98041
2.95917
2.9386
2.91869
2.8994
2.88071
2.8626
2.84504
2.82802
2.81152
2.79551
2.77998
2.76491
2.75029
2.73609
3.51947
3.47938
3.44077
3.40359
3.36778
3.33328
3.30003
3.26797
3.23704
3.20721
3.17841
3.1506
3.12375
3.0978
3.07272
3.04847
3.02503
3.00234
2.9804
2.95915
2.93859
2.91867
2.89938
2.88069
2.86258
2.84502
2.828
2.81149
2.79548
2.77994
2.76487
2.75024
2.73604
3.51947
3.47938
3.44077
3.40359
3.36778
3.33328
3.30003
3.26797
3.23704
3.2072
3.17841
3.1506
3.12374
3.09779
3.07271
3.04847
3.02502
3.00233
2.98039
2.95914
2.93857
2.91866
2.89936
2.88067
2.86256
2.845
2.82797
2.81146
2.79545
2.77991
2.76483
2.7502
2.736
3.51947
3.47938
3.44077
3.40359
3.36778
3.33328
3.30002
3.26796
3.23704
3.2072
3.1784
3.1506
3.12374
3.09779
3.07271
3.04846
3.02501
3.00233
2.98038
2.95913
2.93856
2.91864
2.89935
2.88066
2.86254
2.84498
2.82795
2.81144
2.79542
2.77988
2.7648
2.75017
2.73596
3.51947
3.47938
3.44077
3.40359
3.36778
3.33328
3.30002
3.26796
3.23704
3.2072
3.1784
3.15059
3.12374
3.09779
3.0727
3.04846
3.02501
3.00232
2.98037
2.95913
2.93856
2.91864
2.89934
2.88064
2.86253
2.84496
2.82793
2.81142
2.7954
2.77986
2.76477
2.75014
2.73592
3.51947
3.47938
3.44077
3.40359
3.36778
3.33328
3.30002
3.26796
3.23704
3.2072
3.1784
3.15059
3.12374
3.09779
3.0727
3.04846
3.02501
3.00232
2.98037
2.95912
2.93855
2.91863
2.89934
2.88064
2.86252
2.84495
2.82792
2.81141
2.79538
2.77984
2.76476
2.75012
2.7359
3.51947
3.47938
3.44077
3.40359
3.36778
3.33328
3.30002
3.26796
3.23704
3.2072
3.1784
3.1506
3.12374
3.09779
3.07271
3.04846
3.02501
3.00232
2.98037
2.95912
2.93855
2.91863
2.89933
2.88064
2.86252
2.84495
2.82792
2.81141
2.79538
2.77984
2.76476
2.75012
2.7359
3.51947
3.47938
3.44077
3.40359
3.36778
3.33328
3.30003
3.26797
3.23704
3.20721
3.17841
3.1506
3.12375
3.0978
3.07272
3.04847
3.02503
3.00234
2.9804
2.95915
2.93859
2.91867
2.89938
2.88069
2.86258
2.84502
2.828
2.81149
2.79548
2.77995
2.76487
2.75025
2.73605
3.51947
3.47938
3.44077
3.40359
3.36778
3.33328
3.30003
3.26797
3.23705
3.20721
3.17842
3.15062
3.12377
3.09783
3.07276
3.04853
3.0251
3.00243
2.98051
2.95929
2.93876
2.91887
2.89962
2.88097
2.8629
2.84539
2.82841
2.81196
2.79601
2.78053
2.76552
2.75096
2.73683
3.51947
3.47938
3.44077
3.40359
3.36778
3.33329
3.30005
3.26801
3.23712
3.20732
3.17857
3.15082
3.12403
3.09817
3.07319
3.04905
3.02573
3.00319
2.9814
2.96034
2.93996
2.92025
2.90119
2.88273
2.86488
2.84759
2.83085
2.81463
2.79893
2.78371
2.76897
2.75468
2.74082
3.51947
3.47938
3.44078
3.40362
3.36785
3.33343
3.30029
3.26839
3.23768
3.20811
3.17965
3.15224
3.12585
3.10043
3.07596
3.05239
3.02968
3.0078
2.98673
2.96641
2.94683
2.92795
2.90974
2.89217
2.87522
2.85886
2.84307
2.82782
2.81308
2.79885
2.78509
2.77178
2.75892
3.51947
3.47942
3.44096
3.40413
3.36894
3.33534
3.30327
3.27269
3.24354
3.21576
3.1893
3.1641
3.1401
3.11726
3.0955
3.07477
3.05502
3.03619
3.01824
3.0011
2.98474
2.9691
2.95415
2.93985
2.92615
2.91302
2.90043
2.88835
2.87675
2.8656
2.85487
2.84455
2.8346
3.5195
3.48076
3.44539
3.41322
3.384
3.35751
3.33358
3.31204
3.29271
3.27539
3.25991
3.24607
3.2337
3.22265
3.21277
3.20392
3.19597
3.18883
3.18238
3.17655
3.17125
3.16642
3.16199
3.15792
3.15415
3.15065
3.14739
3.14432
3.14142
3.13867
3.13605
3.13354
3.13112
3.52508
3.51484
3.5211
3.53668
3.55864
3.58544
3.61605
3.64957
3.68518
3.72222
3.76012
3.79845
3.83685
3.87503
3.91278
3.94991
3.9863
4.02183
4.05645
4.09009
4.12272
4.15432
4.18488
4.2144
4.24289
4.27036
4.29682
4.3223
4.34681
4.3704
4.39308
4.41488
4.43584
3.842
4.38777
4.87731
5.34216
5.79405
6.23448
6.66141
7.07345
7.47057
7.85333
8.22244
8.57865
8.9227
9.25527
9.577
9.88843
10.19
10.4822
10.7654
11.0399
11.306
11.564
11.8142
12.0568
12.292
12.5201
12.7413
12.9558
13.1638
13.3657
13.5614
13.7514
13.9358
30.2673
32.7691
35.3053
37.8487
40.3862
42.9099
45.413
47.8884
50.3294
52.7302
55.0856
57.3907
59.6419
61.8356
63.9694
66.041
68.0489
69.9919
71.8696
73.6816
75.428
77.1093
78.7261
80.2794
81.7703
83.2
84.5701
85.8821
87.1375
88.3381
89.4857
90.5818
91.6294
305.726
309.396
316.997
434.575
605.444
744.376
809.204
815.219
792.462
759.143
721.824
682.496
642.634
603.994
568.205
536.314
508.538
484.297
462.536
442.184
422.46
402.94
383.446
363.963
344.626
325.764
307.878
291.539
277.235
265.231
255.508
247.785
241.618
236.528
232.101
228.047
224.189
220.415
216.621
212.651
208.288
203.274
197.357
190.343
182.141
172.79
162.471
151.511
140.365
129.607
119.895
111.92
106.303
103.416
103.197
105.079
108.144
111.392
113.982
115.35
115.212
113.504
110.308
105.796
100.188
93.7258
86.6609
79.2469
71.7313
64.3487
57.3128
50.8084
44.9839
39.9462
35.7567
32.43
29.9339
28.1926
27.0951
26.509
26.2978
26.3356
26.5169
26.7609
27.0098
27.2263
27.3885
27.4864
27.5178
27.4859
27.3963
27.2555
27.0691
26.8407
26.5721
26.2608
25.9087
25.4932
25.094
24.2785
79.8638
133.4
145.16
155.988
180.325
224.24
281.554
338.065
383.963
416.273
435.494
443.332
442.245
435.348
425.914
416.525
408.388
401.302
394.196
385.843
375.361
362.404
347.09
329.884
311.498
292.824
274.827
258.407
244.245
232.691
223.724
217.01
212.011
208.132
204.846
201.766
198.652
195.372
191.839
187.941
183.52
178.372
172.289
165.114
156.784
147.366
137.066
126.226
115.3
104.827
95.4041
87.6471
82.1306
79.2551
79.0601
81.1049
84.5472
88.3918
91.7497
93.9886
94.7594
93.9513
91.6221
87.9366
83.1207
77.4311
71.1363
64.5037
57.7894
51.2289
45.0287
39.359
34.3482
30.0805
26.5962
23.8944
21.9363
20.6494
19.9342
19.6749
19.7518
20.0541
20.4878
20.9794
21.4757
21.9406
22.3522
22.6993
22.9778
23.189
23.3364
23.4248
23.4581
23.4387
23.3675
23.2415
23.0619
22.808
22.5495
21.9257
18.1344
36.7114
45.5868
48.0063
48.2499
50.1087
56.5618
69.1098
86.9508
107.44
127.809
146.321
162.762
178.152
193.909
210.844
228.581
245.719
260.419
271.003
276.369
276.159
270.719
260.945
248.094
233.601
218.889
205.196
193.432
184.098
177.271
172.66
169.73
167.848
166.422
164.995
163.276
161.114
158.437
155.185
151.268
146.553
140.896
134.187
126.399
117.625
108.085
98.1199
88.1576
78.6778
70.1725
63.125
57.9933
55.1569
54.7771
56.6297
60.0705
64.2039
68.1397
71.1839
72.9091
73.1355
71.873
69.2591
65.509
60.8789
55.6411
50.0663
44.4099
38.9007
33.7321
29.0544
24.972
21.5438
18.7876
16.6884
15.2048
14.2753
13.8218
13.7552
13.983
14.4166
14.9785
15.6056
16.2497
16.8765
17.4632
17.9963
18.4688
18.8787
19.2266
19.5143
19.7434
19.9144
20.0264
20.0757
20.0623
19.9675
19.8484
19.4246
6.78396
9.37832
11.5444
12.9711
13.553
13.6429
13.8824
14.8523
16.9727
20.3965
24.9003
30.0713
35.5433
41.4386
48.4942
57.9938
71.2249
88.484
108.405
128.323
145.352
157.354
163.439
163.91
159.895
152.924
144.579
136.251
128.993
123.456
119.88
118.135
117.815
118.361
119.199
119.852
119.992
119.445
118.145
116.075
113.212
109.504
104.882
99.297
92.7655
85.4021
77.4323
69.1771
61.0168
53.3433
46.5161
40.8435
36.5959
34.0308
33.3575
34.5986
37.4426
41.2532
45.2522
48.7349
51.2003
52.381
52.211
50.773
48.2459
44.8643
40.8866
36.5728
32.166
27.8798
23.8867
20.3125
17.2344
14.6846
12.6602
11.1342
10.066
9.40824
9.1089
9.11146
9.3563
9.78377
10.3381
10.9704
11.6408
12.3181
12.9796
13.6095
14.1979
14.7387
15.2289
15.6666
16.0504
16.3779
16.646
16.8496
16.9866
17.0402
17.0526
16.829
4.6038
4.8733
5.20882
5.53132
5.77871
5.90939
5.96458
6.04364
6.26038
6.71185
7.43086
8.38749
9.51939
10.7651
12.186
14.0264
16.8168
21.3264
28.1748
37.2323
47.4728
57.3822
65.4273
70.6423
72.8626
72.5903
70.6918
68.109
65.6669
63.9749
63.3859
63.9853
65.6101
67.9084
70.4352
72.7575
74.5364
75.5626
75.7466
75.0775
73.5746
71.2532
68.1185
64.1849
59.5098
54.2214
48.5279
42.7001
37.0346
31.8071
27.2343
23.4607
20.5769
18.6692
17.8629
18.2946
19.9813
22.6878
25.9333
29.1376
31.7879
33.5373
34.2239
33.8443
32.5104
30.4063
27.7525
24.7779
21.6977
18.6965
15.9175
13.4565
11.3636
9.65011
8.3002
7.28344
6.56523
6.11296
5.89727
5.89014
6.06244
6.38317
6.8204
7.3432
7.92335
8.53651
9.16269
9.78613
10.3949
10.9801
11.5352
12.0549
12.5343
12.968
13.3501
13.6735
13.9332
14.1141
14.2416
14.2065
3.74074
3.78111
3.8275
3.88064
3.93657
3.98149
4.00754
4.02368
4.0539
4.12715
4.26323
4.466
4.72564
5.02445
5.35164
5.72296
6.20213
6.94168
8.17396
10.1044
12.7486
15.8341
18.926
21.5726
23.4702
24.5466
24.9369
24.9012
24.7421
24.7477
25.1566
26.1264
27.7012
29.7906
32.1826
34.5939
36.7399
38.3944
39.419
39.7589
39.4172
38.4259
36.8271
34.6733
32.0403
29.0416
25.832
22.5922
19.5022
16.7102
14.3134
12.3553
10.8403
9.76383
9.15019
9.07949
9.66171
10.9426
12.8061
14.9651
17.0496
18.7231
19.7588
20.0618
19.6537
18.6399
17.1752
15.4327
13.5788
11.7546
10.0652
8.57604
7.31681
6.28933
5.47811
4.86004
4.41183
4.11421
3.95295
3.91736
3.99772
4.18319
4.46101
4.81688
5.23587
5.70333
6.20564
6.7306
7.26762
7.80756
8.34249
8.86509
9.36811
9.84379
10.2839
10.6788
11.0209
11.2959
11.5122
11.6395
3.27989
3.28805
3.29257
3.29672
3.30346
3.31161
3.31783
3.32086
3.32408
3.33473
3.36039
3.40544
3.46969
3.54914
3.63839
3.73506
3.8445
3.99041
4.22125
4.60494
5.17765
5.89874
6.68755
7.44613
8.08847
8.5664
8.8783
9.06153
9.17842
9.30424
9.51925
9.90063
10.5088
11.368
12.4484
13.6627
14.8826
15.9696
16.806
17.3147
17.4618
17.2488
16.7011
15.8594
14.7784
13.5268
12.1853
10.8389
9.56441
8.41941
7.43711
6.62794
5.9866
5.50231
5.17193
5.01577
5.08676
5.45337
6.15109
7.13236
8.25642
9.32971
10.1684
10.6475
10.7203
10.4113
9.79603
8.97515
8.05224
7.11701
6.23596
5.45023
4.77859
4.2234
3.77721
3.42839
3.16523
2.97842
2.86194
2.81271
2.82923
2.91008
3.05286
3.25377
3.50781
3.80914
4.1515
4.52853
4.93391
5.36143
5.80489
6.25781
6.7131
7.16264
7.59726
8.00638
8.3801
8.7051
8.974
9.22253
3.02293
3.02022
3.01516
3.00875
3.00282
2.99813
2.99416
2.99001
2.98558
2.98211
2.98184
2.98684
2.99809
3.01515
3.03644
3.06032
3.08657
3.11888
3.16845
3.25484
3.39097
3.57359
3.78603
4.00469
4.20633
4.37442
4.50246
4.59387
4.66003
4.71793
4.78862
4.8956
5.06198
5.30513
5.62982
6.02274
6.45189
6.87211
7.23509
7.49967
7.63874
7.6414
7.51115
7.26254
6.91784
6.5045
6.05258
5.59167
5.14757
4.73968
4.37987
4.0731
3.81916
3.61508
3.45844
3.35223
3.31074
3.36145
3.53516
3.84532
4.26894
4.74392
5.18594
5.5154
5.67986
5.66368
5.48462
5.18239
4.80519
4.39846
3.99812
3.62818
3.30162
3.02297
2.79139
2.60328
2.45434
2.34098
2.26103
2.21393
2.20042
2.2218
2.27926
2.37337
2.50396
2.67016
2.87062
3.1036
3.36711
3.65884
3.97607
4.31537
4.67228
5.04093
5.41379
5.78147
6.13382
6.45943
6.73905
7.05442
2.87874
2.87005
2.8603
2.84968
2.83898
2.82882
2.81933
2.81027
2.80134
2.79256
2.78435
2.77738
2.77224
2.76915
2.76785
2.76783
2.76866
2.77078
2.77687
2.79236
2.82226
2.86787
2.92609
2.99073
3.05461
3.11164
3.15815
3.19333
3.21908
3.23947
3.26037
3.2889
3.3327
3.39842
3.48973
3.6053
3.73793
3.87521
4.00189
4.10292
4.16636
4.18511
4.15741
4.0863
3.97842
3.84279
3.68948
3.52848
3.36862
3.21686
3.07792
2.95432
2.84679
2.75482
2.67753
2.61492
2.56989
2.55028
2.56826
2.63517
2.75349
2.91101
3.08167
3.23296
3.33604
3.37361
3.34263
3.2522
3.11862
2.96019
2.79329
2.63032
2.47933
2.34454
2.22741
2.12769
2.04438
1.97641
1.92317
1.88476
1.86205
1.85646
1.86968
1.9033
1.95864
2.03668
2.13807
2.26326
2.41253
2.58601
2.7836
3.00473
3.24807
3.51107
3.78955
4.07736
4.36655
4.6491
4.9
5.22339
2.79939
2.78692
2.77403
2.76072
2.74728
2.73405
2.72123
2.70879
2.69662
2.68458
2.67267
2.66101
2.64982
2.6393
2.62953
2.62046
2.61197
2.60405
2.59729
2.5931
2.59316
2.59846
2.60873
2.62245
2.6374
2.65129
2.66234
2.66966
2.67332
2.67432
2.67446
2.67617
2.68221
2.69522
2.71696
2.74772
2.7858
2.82761
2.86819
2.90218
2.92476
2.93245
2.92358
2.89831
2.85839
2.80673
2.74686
2.68244
2.61678
2.55257
2.49165
2.43509
2.38322
2.33588
2.29268
2.25335
2.21834
2.18956
2.17091
2.1674
2.18283
2.21684
2.26361
2.31284
2.35291
2.3743
2.37196
2.34575
2.29942
2.23884
2.17027
2.09919
2.0297
1.96444
1.90479
1.85128
1.8039
1.76245
1.72687
1.69734
1.67443
1.65911
1.6526
1.65628
1.67153
1.69964
1.74176
1.79892
1.87209
1.96221
2.07016
2.19672
2.34232
2.50677
2.68884
2.88586
3.09322
3.30698
3.50286
3.78472
2.75756
2.74269
2.72765
2.71242
2.69712
2.68192
2.66694
2.65224
2.63776
2.62344
2.60921
2.59505
2.581
2.56718
2.55368
2.5406
2.52799
2.51587
2.50437
2.49381
2.48465
2.47721
2.47154
2.46724
2.46361
2.45981
2.45507
2.44885
2.44099
2.43174
2.42172
2.41188
2.40337
2.39737
2.39479
2.39605
2.40083
2.40808
2.4161
2.42289
2.42644
2.42512
2.41788
2.4044
2.38503
2.36067
2.33256
2.30207
2.27046
2.23875
2.20758
2.17728
2.14784
2.11911
2.09082
2.0628
2.03509
2.00818
1.98329
1.96233
1.94737
1.93971
1.9389
1.94257
1.94695
1.94813
1.94308
1.93034
1.91004
1.8835
1.85262
1.81937
1.78543
1.75205
1.71997
1.68958
1.66101
1.63428
1.60943
1.58659
1.56608
1.54845
1.53443
1.52492
1.5209
1.52343
1.53351
1.55217
1.58037
1.6191
1.66934
1.73211
1.80831
1.89867
2.00343
2.12209
2.25274
2.39463
2.52838
2.74113
2.73684
2.72047
2.70405
2.68754
2.67099
2.6545
2.63814
2.62196
2.60594
2.59006
2.57427
2.55853
2.54284
2.52725
2.51183
2.49668
2.48189
2.46756
2.45373
2.44049
2.4279
2.416
2.40472
2.39387
2.38314
2.37216
2.36058
2.34813
2.3347
2.32035
2.30536
2.29018
2.27538
2.26157
2.2493
2.23891
2.23049
2.22376
2.21817
2.21294
2.20725
2.20031
2.19155
2.18065
2.16759
2.15256
2.13597
2.11825
2.09981
2.08094
2.06177
2.04226
2.02227
2.00158
1.98
1.95742
1.93386
1.90955
1.88497
1.86091
1.8384
1.81838
1.80143
1.78742
1.77554
1.76456
1.75322
1.74055
1.72606
1.70974
1.6919
1.673
1.65353
1.63386
1.61424
1.59478
1.57551
1.55644
1.53758
1.51901
1.50089
1.4835
1.46724
1.45262
1.44024
1.43079
1.42499
1.42359
1.42737
1.43711
1.45364
1.47779
1.51042
1.55235
1.60424
1.66645
1.73849
1.8212
1.90124
2.04161
2.7273
2.71008
2.69283
2.67554
2.65822
2.64094
2.62374
2.60664
2.58966
2.57278
2.55598
2.53923
2.52252
2.50588
2.48936
2.47303
2.45698
2.44131
2.42607
2.41131
2.39701
2.38312
2.36952
2.35605
2.34249
2.3286
2.31417
2.29906
2.28318
2.26658
2.24941
2.23193
2.21447
2.19742
2.18115
2.16594
2.15195
2.1392
2.12752
2.11665
2.10624
2.09592
2.0854
2.07445
2.06296
2.0509
2.03834
2.02533
2.01191
1.99807
1.98369
1.96859
1.95255
1.93536
1.91683
1.89689
1.8756
1.85314
1.8298
1.80606
1.78248
1.75967
1.73818
1.71836
1.70027
1.68371
1.66832
1.65368
1.63944
1.62533
1.61123
1.59707
1.58282
1.56845
1.55391
1.53915
1.52408
1.50865
1.49283
1.47664
1.46015
1.44351
1.42692
1.41066
1.39507
1.38054
1.36753
1.35652
1.34804
1.34263
1.34088
1.34341
1.35087
1.36392
1.38318
1.40921
1.4421
1.48302
1.52398
1.6042
2.72323
2.70555
2.68786
2.67014
2.6524
2.63468
2.61699
2.59938
2.58183
2.56436
2.54695
2.52959
2.51227
2.495
2.47783
2.46081
2.444
2.42749
2.41134
2.39558
2.3802
2.36514
2.35029
2.33551
2.32062
2.30543
2.28979
2.27358
2.25674
2.23929
2.22133
2.20303
2.18463
2.16639
2.14858
2.13143
2.11512
2.09974
2.08528
2.07169
2.05881
2.04649
2.03457
2.0229
2.01137
1.99991
1.98843
1.97685
1.96507
1.95294
1.94024
1.92676
1.91225
1.89649
1.87933
1.86072
1.8407
1.81945
1.79723
1.77439
1.75132
1.72848
1.70629
1.68511
1.66519
1.64662
1.6294
1.6134
1.59844
1.58432
1.57082
1.55776
1.54495
1.53221
1.51937
1.50629
1.49282
1.47887
1.46438
1.44933
1.43374
1.41769
1.40128
1.38466
1.36803
1.35161
1.33565
1.32044
1.30631
1.29359
1.28268
1.27396
1.26789
1.26493
1.26556
1.27024
1.27925
1.29351
1.30909
1.34598
2.7216
2.7037
2.68579
2.66786
2.64991
2.63196
2.61404
2.59615
2.5783
2.56051
2.54276
2.52504
2.50737
2.48975
2.47221
2.45478
2.43753
2.4205
2.40376
2.38732
2.3712
2.35534
2.33967
2.32407
2.30839
2.29249
2.27625
2.25955
2.24234
2.22464
2.20651
2.18806
2.16947
2.15092
2.13264
2.11481
2.09759
2.08109
2.06538
2.05045
2.03626
2.02274
2.00981
1.99737
1.98533
1.9736
1.96207
1.95061
1.93906
1.92722
1.91488
1.90179
1.88772
1.87247
1.8559
1.83798
1.81873
1.79833
1.77698
1.75501
1.73273
1.71052
1.6887
1.6676
1.64746
1.62844
1.61062
1.594
1.57849
1.56395
1.55021
1.53708
1.52433
1.51178
1.49921
1.48646
1.47337
1.45983
1.44577
1.43113
1.41593
1.4002
1.384
1.36741
1.35055
1.33354
1.31653
1.29969
1.28321
1.26729
1.25216
1.23806
1.22526
1.21407
1.2048
1.19777
1.19328
1.19183
1.19229
1.20087
2.72096
2.70297
2.68495
2.66692
2.64888
2.63083
2.61279
2.59477
2.57678
2.55882
2.54089
2.52299
2.50514
2.48732
2.46957
2.45192
2.4344
2.41706
2.39993
2.38305
2.36641
2.34999
2.33373
2.31755
2.30133
2.28496
2.26834
2.25138
2.23403
2.21629
2.1982
2.17984
2.16134
2.14285
2.12452
2.10653
2.089
2.07206
2.05576
2.04015
2.02523
2.01097
1.99731
1.98421
1.97158
1.95933
1.94736
1.93553
1.92366
1.91157
1.89903
1.88583
1.87174
1.8566
1.84028
1.82273
1.80401
1.78423
1.7636
1.74237
1.72085
1.69934
1.67812
1.65747
1.6376
1.61868
1.60079
1.58396
1.56815
1.55326
1.53915
1.52565
1.51257
1.49972
1.48691
1.47397
1.46075
1.44715
1.43308
1.41849
1.40338
1.38776
1.37167
1.35517
1.33832
1.32121
1.30392
1.28656
1.26924
1.25207
1.2352
1.21876
1.20291
1.18783
1.17371
1.16076
1.14921
1.13918
1.13133
1.12288
2.72069
2.70265
2.68459
2.66652
2.64843
2.63034
2.61225
2.59417
2.57611
2.55807
2.54005
2.52207
2.50411
2.48619
2.46833
2.45055
2.43287
2.41533
2.39796
2.38078
2.36379
2.34697
2.33029
2.31367
2.29706
2.28035
2.26346
2.24633
2.22891
2.21119
2.1932
2.17499
2.15666
2.13832
2.12011
2.10214
2.08455
2.06743
2.05086
2.03487
2.0195
2.00472
1.99053
1.97687
1.96368
1.95088
1.93837
1.92602
1.91366
1.90113
1.88822
1.87473
1.86046
1.84527
1.82904
1.81174
1.7934
1.77412
1.75408
1.73351
1.71266
1.6918
1.67117
1.65102
1.63153
1.61285
1.59507
1.5782
1.56224
1.54709
1.53266
1.51878
1.5053
1.49205
1.47886
1.46557
1.45205
1.43821
1.42396
1.40925
1.39409
1.37846
1.3624
1.34595
1.32916
1.31209
1.29479
1.27734
1.25981
1.24226
1.22478
1.20745
1.19037
1.17364
1.15737
1.14166
1.12673
1.11239
1.10036
1.08249
2.72054
2.70248
2.6844
2.66631
2.6482
2.63009
2.61198
2.59387
2.57578
2.5577
2.53964
2.5216
2.50359
2.48562
2.46769
2.44983
2.43205
2.41439
2.39685
2.37946
2.36221
2.34511
2.32811
2.31119
2.29427
2.2773
2.26021
2.24295
2.22548
2.20779
2.1899
2.17184
2.15368
2.13552
2.11744
2.09957
2.082
2.06481
2.04808
2.03186
2.01617
2.00102
1.98639
1.97226
1.95857
1.94525
1.93221
1.91933
1.90647
1.89347
1.88014
1.86632
1.85183
1.83653
1.82034
1.80322
1.78519
1.76634
1.74682
1.72682
1.70656
1.68628
1.66619
1.6465
1.62739
1.60896
1.59132
1.57448
1.55842
1.54309
1.52839
1.51418
1.50034
1.4867
1.47312
1.45947
1.44563
1.4315
1.41701
1.40214
1.38685
1.37116
1.35508
1.33866
1.32191
1.3049
1.28767
1.27027
1.25275
1.23516
1.21755
1.19998
1.1825
1.16517
1.14806
1.13122
1.11483
1.09852
1.08458
1.06195
2.72044
2.70237
2.68427
2.66617
2.64805
2.62993
2.6118
2.59368
2.57557
2.55746
2.53938
2.52131
2.50327
2.48525
2.46728
2.44937
2.43152
2.41376
2.39611
2.37856
2.36113
2.34382
2.32659
2.30943
2.29228
2.27511
2.25786
2.2405
2.22299
2.20532
2.18751
2.16957
2.15156
2.13354
2.1156
2.09783
2.08029
2.06308
2.04626
2.02986
2.01393
1.99848
1.98349
1.96896
1.95482
1.94103
1.9275
1.91413
1.90079
1.88734
1.87362
1.85948
1.84477
1.82937
1.8132
1.79622
1.77845
1.75997
1.7409
1.72141
1.70168
1.68191
1.66231
1.64304
1.62426
1.60608
1.58857
1.57177
1.55565
1.54017
1.52525
1.51076
1.49659
1.48261
1.46869
1.4547
1.44055
1.42615
1.41144
1.39638
1.38097
1.36519
1.34907
1.33263
1.31592
1.29897
1.28181
1.2645
1.24706
1.22954
1.21198
1.19441
1.17687
1.15941
1.14206
1.12484
1.10792
1.09082
1.07612
1.05131
2.72036
2.70227
2.68417
2.66605
2.64793
2.6298
2.61166
2.59353
2.5754
2.55728
2.53917
2.52108
2.50301
2.48497
2.46697
2.44901
2.4311
2.41327
2.39552
2.37786
2.36029
2.34281
2.32541
2.30806
2.29073
2.2734
2.25603
2.23858
2.22103
2.20337
2.18561
2.16776
2.14987
2.13198
2.11415
2.09646
2.07897
2.06175
2.04485
2.02832
2.0122
1.99649
1.9812
1.96631
1.95178
1.93757
1.9236
1.90979
1.89601
1.88215
1.86807
1.85364
1.83873
1.82323
1.80707
1.79021
1.77268
1.75452
1.73585
1.71681
1.69754
1.67824
1.65906
1.64017
1.62169
1.60373
1.58636
1.56959
1.55343
1.53783
1.52271
1.50798
1.49354
1.47926
1.46504
1.45076
1.43633
1.42169
1.40677
1.39155
1.376
1.36013
1.34396
1.32752
1.31082
1.29391
1.27682
1.25958
1.24224
1.22482
1.20736
1.18988
1.17241
1.15499
1.13764
1.12037
1.10332
1.08598
1.07104
1.04538
2.72028
2.70219
2.68407
2.66595
2.64782
2.62968
2.61153
2.59339
2.57525
2.55711
2.53899
2.52088
2.50278
2.48472
2.46668
2.44868
2.43073
2.41284
2.39501
2.37725
2.35957
2.34196
2.32441
2.30692
2.28945
2.27199
2.25451
2.23698
2.2194
2.20174
2.18401
2.16623
2.14842
2.13062
2.11288
2.09525
2.0778
2.06057
2.04362
2.02699
2.0107
1.99477
1.97922
1.96402
1.94915
1.93456
1.9202
1.90599
1.89182
1.8776
1.86321
1.84851
1.83342
1.81783
1.80167
1.78492
1.76759
1.74972
1.7314
1.71275
1.6939
1.67501
1.65621
1.63765
1.61945
1.60169
1.58444
1.56772
1.55152
1.53582
1.52053
1.5056
1.49091
1.47638
1.46189
1.44735
1.43269
1.41783
1.40273
1.38736
1.3717
1.35576
1.33954
1.32307
1.30638
1.2895
1.27247
1.2553
1.23805
1.22073
1.20337
1.186
1.16864
1.15131
1.13405
1.11685
1.09984
1.08248
1.06754
1.04162
2.72021
2.70211
2.68399
2.66585
2.64771
2.62956
2.61141
2.59325
2.5751
2.55695
2.53881
2.52068
2.50257
2.48447
2.46641
2.44837
2.43038
2.41243
2.39453
2.3767
2.35892
2.34121
2.32355
2.30593
2.28835
2.27078
2.25321
2.23561
2.21798
2.20031
2.1826
2.16486
2.14711
2.12938
2.1117
2.09413
2.0767
2.05946
2.04247
2.02574
2.00931
1.9932
1.97742
1.96195
1.94678
1.93186
1.91716
1.90259
1.88808
1.87354
1.85886
1.84393
1.82867
1.813
1.79685
1.78019
1.76303
1.74542
1.72741
1.7091
1.69062
1.67209
1.65363
1.63538
1.61742
1.59985
1.58271
1.56603
1.54981
1.53401
1.51859
1.50348
1.48858
1.47382
1.45911
1.44435
1.42948
1.41444
1.39918
1.38368
1.36792
1.35191
1.33565
1.31917
1.30249
1.28563
1.26864
1.25154
1.23436
1.21713
1.19986
1.1826
1.16534
1.14813
1.13097
1.11387
1.09695
1.07967
1.06479
1.03889
2.72015
2.70203
2.6839
2.66576
2.64761
2.62945
2.61129
2.59312
2.57496
2.55679
2.53864
2.52049
2.50236
2.48424
2.46614
2.44808
2.43004
2.41204
2.39409
2.37619
2.35833
2.34053
2.32277
2.30506
2.28738
2.26972
2.25206
2.23441
2.21674
2.19905
2.18134
2.16362
2.14591
2.12822
2.11059
2.09304
2.07563
2.05839
2.04134
2.02454
2.00799
1.99172
1.97574
1.96004
1.9446
1.9294
1.91439
1.89952
1.8847
1.86987
1.85494
1.83981
1.8244
1.80865
1.7925
1.77592
1.75892
1.74151
1.72377
1.70577
1.68762
1.66941
1.65126
1.63327
1.61554
1.59813
1.5811
1.56446
1.54823
1.53236
1.51683
1.50156
1.48649
1.47153
1.45662
1.44167
1.42663
1.41143
1.39604
1.38043
1.36459
1.34852
1.33223
1.31573
1.29906
1.28224
1.26529
1.24824
1.23113
1.21397
1.19679
1.17961
1.16246
1.14535
1.12829
1.11129
1.09448
1.0773
1.0625
1.03671
2.72009
2.70197
2.68383
2.66568
2.64752
2.62935
2.61118
2.593
2.57482
2.55664
2.53847
2.52031
2.50215
2.48401
2.46589
2.44779
2.42972
2.41168
2.39367
2.37571
2.35779
2.33991
2.32207
2.30428
2.28651
2.26877
2.25105
2.23334
2.21562
2.19791
2.18019
2.16248
2.14479
2.12712
2.10952
2.092
2.07459
2.05733
2.04025
2.02337
2.00672
1.99031
1.97416
1.95825
1.94259
1.92714
1.91186
1.89671
1.88163
1.86655
1.85139
1.83608
1.82055
1.80472
1.78857
1.77205
1.75518
1.73796
1.72046
1.70273
1.68485
1.66693
1.64906
1.63131
1.61378
1.59653
1.5796
1.56301
1.54677
1.53085
1.51522
1.49982
1.4846
1.46948
1.4544
1.4393
1.4241
1.40877
1.39327
1.37757
1.36167
1.34556
1.32924
1.31275
1.29609
1.2793
1.26239
1.2454
1.22834
1.21125
1.19415
1.17705
1.15998
1.14296