/*--------------------------------*- C++ -*----------------------------------*\
  =========                 |
  \\      /  F ield         | OpenFOAM: The Open Source CFD Toolbox
   \\    /   O peration     | Website:  https://openfoam.org
    \\  /    A nd           | Version:  10
     \\/     M anipulation  |
\*---------------------------------------------------------------------------*/
FoamFile
{
    format      ascii;
    class       volScalarField;
    location    "700";
    object      k;
}
// * * * * * * * * * * * * * * * * * * * * * * * * * * * * * * * * * * * * * //

dimensions      [0 2 -2 0 0 0 0];

internalField   nonuniform List<scalar> 
6820
(
0.19714
0.192517
0.18828
0.184033
0.179769
0.175611
0.171677
0.168042
0.164747
0.161799
0.159193
0.156911
0.154929
0.153222
0.151765
0.150534
0.149505
0.148658
0.147973
0.147434
0.147023
0.146727
0.146534
0.146432
0.14641
0.146463
0.146569
0.146781
0.146918
0.147199
0.151814
0.130164
0.0256996
0.20725
0.212378
0.210059
0.205419
0.200996
0.197553
0.195146
0.19362
0.192789
0.192488
0.192588
0.192993
0.193629
0.194442
0.19539
0.196443
0.197575
0.198769
0.200009
0.201285
0.202588
0.203913
0.205256
0.206618
0.208003
0.209419
0.210888
0.21245
0.214129
0.216137
0.219428
0.223335
0.14785
0.200993
0.203847
0.20455
0.203318
0.201177
0.198803
0.196518
0.194452
0.19265
0.191116
0.189837
0.188796
0.187968
0.187333
0.18687
0.186558
0.186379
0.186319
0.186362
0.186497
0.186712
0.186999
0.187351
0.187761
0.188227
0.188749
0.189328
0.18998
0.19072
0.191603
0.19268
0.195251
0.177301
0.199593
0.199508
0.199518
0.199121
0.198259
0.197061
0.195675
0.194212
0.192747
0.191324
0.189972
0.188707
0.187536
0.186463
0.185487
0.184606
0.183815
0.18311
0.182486
0.181938
0.181461
0.18105
0.180702
0.180413
0.180181
0.180005
0.179886
0.179831
0.179851
0.179968
0.180203
0.181023
0.179557
0.199411
0.198475
0.197748
0.197076
0.196333
0.195471
0.194494
0.193431
0.192314
0.191173
0.190029
0.188901
0.187802
0.186738
0.185718
0.184744
0.183818
0.182942
0.182116
0.181339
0.18061
0.179927
0.17929
0.178697
0.178148
0.177643
0.177182
0.176768
0.176407
0.176112
0.175898
0.175873
0.175827
0.199395
0.198255
0.197227
0.19629
0.195403
0.194525
0.193631
0.19271
0.191765
0.1908
0.189824
0.188847
0.187875
0.186915
0.185973
0.185053
0.184157
0.183288
0.182449
0.181639
0.180859
0.180111
0.179393
0.178706
0.17805
0.177425
0.176833
0.176274
0.175752
0.175272
0.174844
0.174491
0.174223
0.199395
0.198216
0.197096
0.196039
0.195039
0.194082
0.193155
0.192244
0.191343
0.190446
0.189552
0.188664
0.187782
0.186908
0.186046
0.185197
0.184364
0.183548
0.18275
0.181972
0.181214
0.180477
0.179762
0.179069
0.178398
0.177749
0.177124
0.176524
0.17595
0.175405
0.174894
0.174422
0.174003
0.199395
0.19821
0.197068
0.19597
0.194919
0.193911
0.192941
0.192004
0.191094
0.190206
0.189336
0.188482
0.187642
0.186816
0.186005
0.185207
0.184423
0.183655
0.182902
0.182165
0.181444
0.18074
0.180052
0.179382
0.178729
0.178094
0.177477
0.176879
0.176301
0.175745
0.175214
0.174708
0.174234
0.199395
0.198209
0.197062
0.195954
0.194885
0.193855
0.192861
0.191902
0.190975
0.190076
0.189204
0.188355
0.187527
0.18672
0.18593
0.185159
0.184404
0.183666
0.182944
0.182238
0.181547
0.180872
0.180213
0.179569
0.17894
0.178327
0.17773
0.177149
0.176584
0.176038
0.175511
0.175004
0.174517
0.199395
0.198209
0.197061
0.195951
0.194877
0.193838
0.192835
0.191864
0.190926
0.190018
0.189138
0.188285
0.187456
0.186651
0.185868
0.185106
0.184363
0.18364
0.182934
0.182245
0.181573
0.180917
0.180277
0.179653
0.179044
0.178449
0.17787
0.177307
0.176758
0.176226
0.17571
0.17521
0.174727
0.199395
0.198209
0.197061
0.19595
0.194874
0.193834
0.192827
0.191852
0.190908
0.189995
0.189109
0.188252
0.18742
0.186613
0.185829
0.185068
0.184329
0.18361
0.18291
0.182229
0.181566
0.18092
0.180291
0.179678
0.179081
0.178499
0.177932
0.177381
0.176844
0.176323
0.175817
0.175326
0.174849
0.199395
0.198209
0.19706
0.195949
0.194874
0.193832
0.192824
0.191848
0.190902
0.189986
0.189098
0.188238
0.187404
0.186594
0.185809
0.185047
0.184307
0.183589
0.18289
0.182211
0.181551
0.180909
0.180285
0.179677
0.179086
0.178511
0.177951
0.177407
0.176877
0.176363
0.175863
0.175377
0.174905
0.199395
0.198209
0.19706
0.195949
0.194873
0.193832
0.192823
0.191846
0.1909
0.189983
0.189094
0.188232
0.187397
0.186586
0.1858
0.185037
0.184296
0.183576
0.182878
0.182199
0.18154
0.180899
0.180276
0.17967
0.179081
0.178509
0.177952
0.177411
0.176885
0.176374
0.175877
0.175394
0.174924
0.199395
0.198209
0.19706
0.195948
0.194873
0.193831
0.192822
0.191845
0.190899
0.189981
0.189092
0.18823
0.187393
0.186582
0.185795
0.185031
0.18429
0.18357
0.182871
0.182192
0.181533
0.180892
0.180269
0.179664
0.179076
0.178504
0.177948
0.177408
0.176883
0.176373
0.175877
0.175395
0.174926
0.199395
0.198209
0.19706
0.195948
0.194872
0.193831
0.192822
0.191845
0.190898
0.18998
0.189091
0.188228
0.187392
0.18658
0.185793
0.185029
0.184287
0.183567
0.182867
0.182188
0.181528
0.180887
0.180265
0.179659
0.179071
0.1785
0.177944
0.177404
0.176879
0.176369
0.175874
0.175391
0.174922
0.199395
0.198208
0.19706
0.195948
0.194872
0.19383
0.192821
0.191844
0.190897
0.189979
0.18909
0.188227
0.18739
0.186579
0.185791
0.185027
0.184285
0.183565
0.182865
0.182186
0.181526
0.180885
0.180262
0.179657
0.179068
0.178497
0.177941
0.177401
0.176876
0.176366
0.17587
0.175387
0.174918
0.199395
0.198208
0.19706
0.195948
0.194872
0.19383
0.192821
0.191843
0.190896
0.189979
0.189089
0.188226
0.187389
0.186578
0.18579
0.185025
0.184283
0.183563
0.182864
0.182184
0.181524
0.180883
0.18026
0.179655
0.179066
0.178495
0.177939
0.177399
0.176873
0.176363
0.175866
0.175383
0.174913
0.199395
0.198208
0.19706
0.195948
0.194872
0.19383
0.19282
0.191843
0.190896
0.189978
0.189088
0.188225
0.187388
0.186577
0.185789
0.185024
0.184282
0.183562
0.182862
0.182183
0.181523
0.180882
0.180259
0.179653
0.179065
0.178493
0.177937
0.177397
0.176871
0.17636
0.175863
0.17538
0.17491
0.199395
0.198208
0.19706
0.195948
0.194871
0.193829
0.19282
0.191843
0.190895
0.189977
0.189087
0.188224
0.187388
0.186576
0.185788
0.185023
0.184281
0.183561
0.182861
0.182182
0.181522
0.18088
0.180257
0.179652
0.179063
0.178491
0.177935
0.177395
0.176869
0.176358
0.175861
0.175377
0.174907
0.199395
0.198208
0.197059
0.195948
0.194871
0.193829
0.19282
0.191842
0.190895
0.189977
0.189087
0.188224
0.187387
0.186575
0.185787
0.185022
0.18428
0.18356
0.18286
0.182181
0.18152
0.180879
0.180256
0.179651
0.179062
0.17849
0.177934
0.177393
0.176867
0.176356
0.175859
0.175375
0.174904
0.199395
0.198208
0.197059
0.195947
0.194871
0.193829
0.19282
0.191842
0.190895
0.189976
0.189086
0.188223
0.187386
0.186574
0.185786
0.185022
0.184279
0.183559
0.182859
0.18218
0.181519
0.180878
0.180255
0.179649
0.179061
0.178489
0.177932
0.177392
0.176866
0.176354
0.175857
0.175372
0.174901
0.199395
0.198208
0.197059
0.195947
0.194871
0.193829
0.192819
0.191842
0.190894
0.189976
0.189086
0.188223
0.187386
0.186574
0.185786
0.185021
0.184279
0.183558
0.182858
0.182179
0.181519
0.180877
0.180254
0.179648
0.17906
0.178487
0.177931
0.17739
0.176864
0.176352
0.175855
0.17537
0.174899
0.199395
0.198208
0.197059
0.195947
0.194871
0.193829
0.192819
0.191841
0.190894
0.189976
0.189086
0.188222
0.187385
0.186573
0.185785
0.18502
0.184278
0.183557
0.182858
0.182178
0.181518
0.180876
0.180253
0.179647
0.179059
0.178486
0.17793
0.177389
0.176862
0.176351
0.175853
0.175368
0.174897
0.199395
0.198208
0.197059
0.195947
0.194871
0.193829
0.192819
0.191841
0.190894
0.189976
0.189085
0.188222
0.187385
0.186573
0.185785
0.18502
0.184278
0.183557
0.182857
0.182177
0.181517
0.180876
0.180252
0.179646
0.179058
0.178485
0.177929
0.177387
0.176861
0.176349
0.175851
0.175366
0.174895
0.199395
0.198208
0.197059
0.195947
0.194871
0.193829
0.192819
0.191841
0.190894
0.189975
0.189085
0.188222
0.187385
0.186572
0.185784
0.18502
0.184277
0.183556
0.182856
0.182177
0.181516
0.180875
0.180251
0.179646
0.179057
0.178484
0.177927
0.177386
0.17686
0.176347
0.175849
0.175364
0.174893
0.199395
0.198208
0.197059
0.195947
0.194871
0.193828
0.192819
0.191841
0.190894
0.189975
0.189085
0.188222
0.187384
0.186572
0.185784
0.185019
0.184277
0.183556
0.182856
0.182176
0.181516
0.180874
0.180251
0.179645
0.179056
0.178483
0.177926
0.177385
0.176858
0.176346
0.175848
0.175363
0.174891
0.199395
0.198208
0.197059
0.195947
0.194871
0.193828
0.192819
0.191841
0.190893
0.189975
0.189085
0.188221
0.187384
0.186572
0.185784
0.185019
0.184276
0.183556
0.182856
0.182176
0.181515
0.180874
0.18025
0.179644
0.179055
0.178482
0.177926
0.177384
0.176857
0.176345
0.175846
0.175361
0.174889
0.199395
0.198208
0.197059
0.195947
0.194871
0.193828
0.192819
0.191841
0.190893
0.189975
0.189085
0.188221
0.187384
0.186572
0.185784
0.185019
0.184276
0.183555
0.182855
0.182175
0.181515
0.180873
0.18025
0.179644
0.179054
0.178482
0.177925
0.177383
0.176856
0.176344
0.175845
0.17536
0.174888
0.199395
0.198208
0.197059
0.195947
0.194871
0.193828
0.192819
0.191841
0.190893
0.189975
0.189085
0.188221
0.187384
0.186572
0.185784
0.185019
0.184276
0.183555
0.182855
0.182175
0.181515
0.180873
0.180249
0.179643
0.179054
0.178481
0.177924
0.177382
0.176855
0.176343
0.175844
0.175359
0.174886
0.199395
0.198208
0.197059
0.195947
0.194871
0.193828
0.192819
0.191841
0.190893
0.189975
0.189085
0.188221
0.187384
0.186572
0.185784
0.185019
0.184276
0.183555
0.182855
0.182175
0.181515
0.180873
0.180249
0.179643
0.179054
0.178481
0.177924
0.177382
0.176855
0.176342
0.175843
0.175358
0.174885
0.199395
0.198208
0.197059
0.195947
0.194871
0.193828
0.192819
0.191841
0.190893
0.189975
0.189085
0.188221
0.187384
0.186572
0.185784
0.185019
0.184276
0.183555
0.182855
0.182175
0.181515
0.180873
0.180249
0.179643
0.179054
0.178481
0.177923
0.177381
0.176854
0.176342
0.175843
0.175357
0.174885
0.199395
0.198208
0.197059
0.195947
0.194871
0.193828
0.192819
0.191841
0.190894
0.189975
0.189085
0.188222
0.187384
0.186572
0.185784
0.185019
0.184277
0.183556
0.182856
0.182176
0.181515
0.180874
0.18025
0.179644
0.179054
0.178481
0.177924
0.177382
0.176855
0.176342
0.175843
0.175357
0.174884
0.199395
0.198208
0.197059
0.195947
0.194871
0.193829
0.192819
0.191841
0.190894
0.189975
0.189085
0.188222
0.187385
0.186573
0.185785
0.18502
0.184278
0.183557
0.182857
0.182177
0.181516
0.180875
0.180251
0.179644
0.179055
0.178482
0.177924
0.177382
0.176855
0.176341
0.175842
0.175355
0.174882
0.199395
0.198208
0.197059
0.195947
0.194871
0.193829
0.19282
0.191842
0.190896
0.189978
0.189088
0.188226
0.187389
0.186578
0.18579
0.185026
0.184284
0.183563
0.182863
0.182183
0.181522
0.180879
0.180255
0.179648
0.179057
0.178483
0.177924
0.17738
0.176851
0.176336
0.175834
0.175346
0.174871
0.199395
0.198208
0.197059
0.195948
0.194872
0.193831
0.192824
0.191848
0.190902
0.189986
0.189097
0.188236
0.1874
0.186588
0.185801
0.185036
0.184293
0.183571
0.182869
0.182186
0.181523
0.180877
0.180249
0.179637
0.179042
0.178463
0.177899
0.17735
0.176815
0.176293
0.175785
0.17529
0.174808
0.199395
0.198209
0.197062
0.195955
0.194886
0.193853
0.192854
0.191885
0.190945
0.190033
0.189146
0.188284
0.187446
0.186631
0.185838
0.185066
0.184314
0.183582
0.182869
0.182175
0.181498
0.180839
0.180196
0.17957
0.178959
0.178364
0.177783
0.177217
0.176664
0.176125
0.175599
0.175086
0.174586
0.199395
0.198223
0.197106
0.196031
0.194988
0.19397
0.192977
0.192008
0.191061
0.190136
0.189233
0.188352
0.187492
0.186653
0.185834
0.185034
0.184254
0.183493
0.18275
0.182024
0.181316
0.180625
0.17995
0.179291
0.178648
0.17802
0.177406
0.176806
0.176221
0.175648
0.175089
0.174543
0.174009
0.19941
0.198319
0.197296
0.196301
0.195311
0.194319
0.19333
0.192346
0.191375
0.190418
0.18948
0.188562
0.187666
0.18679
0.185936
0.185103
0.184291
0.183498
0.182725
0.18197
0.181233
0.180514
0.179812
0.179126
0.178455
0.177801
0.177161
0.176536
0.175925
0.175327
0.174744
0.174173
0.173616
0.199716
0.199139
0.198469
0.197764
0.197071
0.196418
0.195812
0.19525
0.194733
0.19426
0.193827
0.193435
0.193081
0.192762
0.192478
0.192225
0.192002
0.191807
0.191638
0.191492
0.191368
0.191265
0.191181
0.191113
0.191062
0.191025
0.191001
0.19099
0.19099
0.191
0.191021
0.19105
0.191088
0.205424
0.216593
0.227629
0.238434
0.248975
0.259243
0.269229
0.278926
0.288326
0.297424
0.306216
0.314701
0.322877
0.330747
0.338313
0.345578
0.352548
0.359227
0.365623
0.371743
0.377594
0.383184
0.388522
0.393615
0.398473
0.403104
0.407517
0.411721
0.415723
0.419532
0.423157
0.426604
0.429886
1.52448
2.04619
2.03302
1.96086
1.96919
2.04056
2.09145
2.10664
2.10584
2.10179
2.09552
2.08494
2.0703
2.05491
2.0436
2.04045
2.04668
2.05998
2.07546
2.08747
2.09116
2.08335
2.06274
2.02987
1.98717
1.93876
1.88992
1.84606
1.81167
1.78935
1.77951
1.7806
1.7898
1.80395
1.82033
1.83702
1.85285
1.86701
1.87849
1.88565
1.88618
1.8774
1.85677
1.82253
1.7741
1.71231
1.6395
1.55937
1.477
1.39874
1.33222
1.28598
1.2681
1.28333
1.32989
1.39864
1.47592
1.54805
1.6047
1.63993
1.65163
1.64032
1.6081
1.55785
1.49279
1.41623
1.33149
1.24178
1.15025
1.05991
0.973567
0.893841
0.823041
0.763108
0.715474
0.68089
0.659228
0.64939
0.649427
0.656878
0.669206
0.684174
0.700047
0.715629
0.730189
0.743356
0.755008
0.765177
0.773981
0.781569
0.788074
0.793573
0.798063
0.801443
0.80354
0.804088
0.802898
0.799393
0.794854
0.781204
0.605446
1.18659
1.31038
1.23491
1.13605
1.09745
1.13105
1.20558
1.29002
1.36784
1.43233
1.48193
1.51895
1.5492
1.58025
1.61818
1.66478
1.71696
1.76826
1.8113
1.83978
1.84986
1.84043
1.81313
1.77194
1.72265
1.67195
1.62632
1.59091
1.56868
1.56007
1.56329
1.57504
1.59156
1.60953
1.62658
1.64136
1.65316
1.66133
1.66477
1.66169
1.64977
1.62671
1.5908
1.5414
1.47927
1.40656
1.32679
1.24464
1.16585
1.09718
1.04636
1.02138
1.02825
1.06753
1.13225
1.20972
1.28585
1.34918
1.39254
1.41283
1.40998
1.38577
1.34302
1.28502
1.21523
1.13712
1.05405
0.969235
0.885704
0.806222
0.733262
0.668952
0.615022
0.572732
0.542745
0.524972
0.518468
0.521493
0.531789
0.546979
0.564928
0.583945
0.602843
0.620873
0.637634
0.652965
0.666861
0.679405
0.690711
0.700884
0.709974
0.717955
0.724705
0.730032
0.733657
0.735375
0.734623
0.732559
0.722181
0.255903
0.461324
0.570029
0.581154
0.546583
0.50645
0.484195
0.489737
0.521912
0.571976
0.630057
0.689682
0.74968
0.81352
0.886274
0.971018
1.06668
1.168
1.26679
1.35394
1.42151
1.46435
1.48099
1.47349
1.44692
1.4083
1.36548
1.3259
1.29548
1.27785
1.27394
1.2822
1.29926
1.32102
1.34363
1.36417
1.38093
1.39316
1.40048
1.40235
1.39766
1.38471
1.36162
1.32685
1.27978
1.22102
1.15251
1.07745
1.00003
0.925188
0.858481
0.806141
0.775065
0.771755
0.799413
0.854718
0.927571
1.00455
1.0733
1.12518
1.1557
1.16376
1.15052
1.11849
1.07088
1.01118
0.942931
0.869576
0.794374
0.72032
0.650084
0.585951
0.529784
0.482999
0.446565
0.42098
0.406194
0.40152
0.40562
0.416662
0.432621
0.45159
0.471997
0.492681
0.51287
0.53211
0.550178
0.567006
0.582618
0.597079
0.610449
0.622748
0.63392
0.643824
0.652246
0.658896
0.663546
0.665652
0.666188
0.659499
0.184636
0.214474
0.244945
0.26416
0.269144
0.264203
0.256628
0.251963
0.253204
0.261125
0.274699
0.292245
0.312777
0.337468
0.370289
0.41764
0.485599
0.575313
0.680189
0.787715
0.884181
0.958956
1.00676
1.02769
1.02605
1.00873
0.98365
0.958463
0.939476
0.930923
0.934547
0.949591
0.973275
1.00166
1.03068
1.05698
1.07836
1.09379
1.10296
1.10576
1.10176
1.09004
1.06936
1.03858
0.99722
0.945839
0.88617
0.821044
0.754107
0.689435
0.631218
0.583709
0.551561
0.540025
0.553717
0.593524
0.654102
0.72489
0.79392
0.851359
0.891064
0.910458
0.909651
0.890495
0.855841
0.809023
0.753527
0.692788
0.630038
0.5682
0.509786
0.456829
0.410834
0.372797
0.343276
0.322482
0.310331
0.306398
0.309858
0.319496
0.333853
0.351437
0.370925
0.391261
0.411686
0.4317
0.451007
0.469462
0.48701
0.503649
0.519382
0.534182
0.54796
0.560549
0.571713
0.581142
0.588582
0.593505
0.596642
0.593906
0.175817
0.178341
0.182839
0.187501
0.190816
0.19198
0.191448
0.19032
0.189686
0.190246
0.192179
0.195309
0.199397
0.204427
0.211125
0.221313
0.238279
0.266321
0.308593
0.364019
0.426637
0.487641
0.538319
0.573282
0.591631
0.596222
0.592086
0.584912
0.579931
0.581204
0.591141
0.610226
0.637037
0.668674
0.701537
0.732188
0.758013
0.777481
0.79002
0.795609
0.794301
0.785903
0.769933
0.745876
0.713596
0.673708
0.627756
0.578143
0.527818
0.479841
0.436984
0.401562
0.375711
0.362084
0.364229
0.385356
0.425515
0.479713
0.539142
0.594367
0.638001
0.66575
0.676187
0.670028
0.649368
0.617075
0.576359
0.530468
0.482473
0.4351
0.390594
0.350629
0.316289
0.288126
0.266293
0.250719
0.241239
0.237616
0.239482
0.246251
0.257117
0.271146
0.287404
0.305068
0.323479
0.342149
0.360745
0.379053
0.396944
0.414342
0.431186
0.447396
0.462842
0.477327
0.490586
0.502288
0.512141
0.519633
0.525197
0.526455
0.173967
0.173775
0.173843
0.174149
0.174515
0.174672
0.174496
0.174072
0.173619
0.173359
0.17342
0.17381
0.174474
0.175373
0.176596
0.178477
0.181684
0.18732
0.196756
0.210991
0.229863
0.251603
0.273321
0.292022
0.305744
0.314122
0.318232
0.320067
0.321989
0.326314
0.334979
0.349197
0.369122
0.393679
0.420751
0.447685
0.471943
0.491602
0.505563
0.513448
0.515308
0.511313
0.501573
0.486176
0.465388
0.439905
0.410978
0.380344
0.349966
0.321683
0.296925
0.2766
0.261261
0.251572
0.24897
0.255867
0.274586
0.305284
0.344643
0.386639
0.42469
0.453588
0.470369
0.474245
0.466102
0.447919
0.422264
0.391895
0.359457
0.327256
0.2971
0.270227
0.247324
0.228621
0.214055
0.203436
0.196582
0.193371
0.193709
0.197436
0.204265
0.21377
0.225451
0.238798
0.253354
0.26874
0.284663
0.300904
0.317303
0.33374
0.350105
0.366279
0.382098
0.397339
0.411712
0.424864
0.436461
0.446008
0.453597
0.458583
0.173584
0.173065
0.17251
0.171976
0.171495
0.171033
0.17054
0.170002
0.169449
0.16894
0.168526
0.168221
0.168014
0.167889
0.167861
0.168011
0.16851
0.169623
0.171683
0.175004
0.179656
0.185282
0.191276
0.196925
0.201629
0.205091
0.207386
0.208911
0.210292
0.212291
0.215726
0.221359
0.229718
0.240889
0.254369
0.269082
0.283606
0.296504
0.306633
0.313298
0.316237
0.315498
0.311294
0.303926
0.293795
0.28147
0.267717
0.253452
0.239601
0.226944
0.216005
0.207038
0.200098
0.19523
0.192774
0.193692
0.199531
0.211695
0.230303
0.253513
0.277889
0.299537
0.315282
0.323317
0.323284
0.315989
0.302994
0.286204
0.26753
0.248637
0.230796
0.214836
0.201179
0.189939
0.18104
0.174337
0.169707
0.167099
0.166526
0.168017
0.171553
0.177031
0.184266
0.193028
0.203079
0.2142
0.226208
0.238952
0.25231
0.26618
0.280458
0.295025
0.309719
0.324319
0.338535
0.352009
0.364375
0.375159
0.384109
0.392176
0.17373
0.173136
0.172496
0.17183
0.171169
0.170527
0.169895
0.169263
0.168629
0.168009
0.167417
0.166866
0.166353
0.165875
0.165437
0.165065
0.164821
0.164793
0.165086
0.165793
0.166922
0.168375
0.16998
0.171538
0.172876
0.173887
0.174559
0.174967
0.175271
0.175693
0.176505
0.177996
0.180424
0.18394
0.188512
0.193881
0.199582
0.205029
0.209645
0.212973
0.214745
0.214884
0.213468
0.21068
0.20677
0.202039
0.196829
0.191489
0.186343
0.181643
0.177549
0.174123
0.171355
0.169215
0.167753
0.167248
0.168319
0.171803
0.178336
0.187847
0.199328
0.21104
0.221052
0.227806
0.230471
0.229001
0.223985
0.216389
0.207294
0.19769
0.188355
0.179811
0.17234
0.166044
0.160908
0.156869
0.153871
0.151897
0.150985
0.151203
0.152622
0.155276
0.15915
0.164184
0.170293
0.177388
0.18539
0.194234
0.203872
0.214258
0.225347
0.23707
0.249318
0.261921
0.274638
0.287149
0.299093
0.310045
0.31945
0.329545
0.173984
0.173368
0.172723
0.172051
0.171372
0.170698
0.170032
0.169371
0.168713
0.168058
0.16741
0.166772
0.166148
0.165537
0.164943
0.16438
0.163873
0.16346
0.163183
0.163078
0.163151
0.163369
0.163668
0.163974
0.164217
0.164348
0.164344
0.164219
0.164016
0.163812
0.163705
0.16381
0.164235
0.165056
0.16629
0.167874
0.169666
0.171464
0.173047
0.174219
0.174841
0.17485
0.174258
0.173138
0.171602
0.169782
0.167817
0.165833
0.163937
0.162203
0.160669
0.159335
0.158179
0.157165
0.156279
0.155584
0.155283
0.155731
0.157328
0.160298
0.164504
0.169396
0.174159
0.17795
0.180144
0.180462
0.178978
0.176034
0.172103
0.167674
0.163161
0.158867
0.154978
0.15158
0.148694
0.146306
0.144395
0.142959
0.142026
0.141655
0.141917
0.142881
0.144596
0.14708
0.150333
0.15434
0.159084
0.164556
0.170756
0.17769
0.185364
0.193774
0.202886
0.212616
0.222815
0.233252
0.243632
0.253617
0.262468
0.273224
0.174188
0.173571
0.172936
0.172281
0.171617
0.170951
0.170289
0.169631
0.168975
0.168318
0.167661
0.167004
0.166348
0.165695
0.16505
0.16442
0.16382
0.163266
0.162781
0.162381
0.16207
0.161837
0.161655
0.161489
0.161304
0.161069
0.160764
0.160385
0.159943
0.159469
0.159006
0.158606
0.158324
0.158201
0.158257
0.158479
0.158821
0.159209
0.159558
0.159786
0.159828
0.159648
0.159244
0.158642
0.15789
0.157047
0.156171
0.155315
0.154514
0.153785
0.153124
0.152511
0.151916
0.151306
0.150655
0.149966
0.149301
0.148793
0.148634
0.149004
0.14997
0.151425
0.153095
0.154624
0.155675
0.156028
0.155612
0.154496
0.152845
0.150861
0.148735
0.146623
0.144629
0.142812
0.141194
0.139774
0.138545
0.137508
0.136679
0.136092
0.135801
0.135862
0.136334
0.137261
0.138676
0.140602
0.143052
0.146044
0.149598
0.153738
0.158498
0.163904
0.169975
0.176699
0.184019
0.191812
0.199885
0.208029
0.215468
0.22549
0.174312
0.173701
0.173077
0.172441
0.171795
0.171146
0.170498
0.169851
0.169205
0.168558
0.167909
0.167256
0.166599
0.165942
0.165288
0.164643
0.164016
0.163416
0.162856
0.162345
0.161884
0.161468
0.161084
0.160712
0.160331
0.159919
0.159462
0.158951
0.158388
0.157785
0.157164
0.156556
0.15599
0.155496
0.155092
0.15478
0.154548
0.15437
0.154211
0.154033
0.153807
0.153512
0.153143
0.152708
0.152228
0.151728
0.151236
0.150771
0.150342
0.149948
0.149572
0.149189
0.148769
0.148283
0.147705
0.147028
0.146267
0.145474
0.144733
0.14415
0.143806
0.143724
0.143849
0.14406
0.144213
0.144184
0.143899
0.143345
0.142559
0.141606
0.140562
0.139492
0.138444
0.137446
0.136509
0.135633
0.134812
0.134044
0.133335
0.132705
0.132183
0.13181
0.131629
0.131685
0.132015
0.132653
0.133629
0.134969
0.136699
0.13885
0.141455
0.144551
0.148172
0.15234
0.157055
0.162274
0.167901
0.173843
0.179428
0.187675
0.174372
0.173766
0.173152
0.172529
0.171898
0.171264
0.170629
0.169995
0.16936
0.168723
0.168084
0.167442
0.166795
0.166146
0.165499
0.164857
0.164227
0.163616
0.163032
0.162478
0.161957
0.161463
0.160989
0.160521
0.160045
0.159545
0.159009
0.15843
0.157806
0.157143
0.156453
0.155757
0.155073
0.154425
0.153826
0.153288
0.15281
0.152384
0.151996
0.151631
0.151271
0.150906
0.150531
0.150146
0.149761
0.149384
0.149026
0.148693
0.148384
0.148088
0.147788
0.147459
0.147075
0.146609
0.146043
0.145366
0.144581
0.143712
0.142798
0.141898
0.141071
0.140361
0.139783
0.139317
0.138918
0.138535
0.138123
0.137657
0.137133
0.13656
0.135957
0.135344
0.134733
0.134132
0.133539
0.132948
0.132354
0.13175
0.131138
0.130525
0.129927
0.129368
0.128875
0.128482
0.128221
0.128122
0.128217
0.128532
0.129095
0.129935
0.131083
0.132572
0.134434
0.136702
0.139395
0.142514
0.146023
0.149907
0.153656
0.159691
0.174393
0.173791
0.173182
0.172567
0.171947
0.171324
0.170698
0.170073
0.169446
0.168818
0.168188
0.167555
0.166918
0.16628
0.165641
0.165007
0.164382
0.163771
0.163178
0.162608
0.162059
0.16153
0.161012
0.160497
0.159973
0.159429
0.158855
0.158244
0.157594
0.156909
0.156197
0.155469
0.154743
0.154033
0.153355
0.152719
0.152131
0.15159
0.151092
0.150631
0.150197
0.149785
0.149389
0.14901
0.148647
0.148304
0.147982
0.147681
0.147394
0.147108
0.146808
0.14647
0.146073
0.145594
0.145018
0.144336
0.143549
0.14267
0.141723
0.14074
0.139763
0.13883
0.137969
0.137195
0.136508
0.135893
0.135334
0.134814
0.134321
0.133847
0.133389
0.132944
0.132507
0.132072
0.131631
0.131173
0.13069
0.130175
0.129624
0.129038
0.128425
0.127797
0.127172
0.126569
0.126012
0.125525
0.125131
0.124854
0.124719
0.124751
0.124974
0.125416
0.126107
0.127073
0.128341
0.129927
0.131826
0.134058
0.136279
0.140194
0.174396
0.173794
0.173189
0.172579
0.171964
0.171347
0.170728
0.170107
0.169486
0.168863
0.168239
0.167612
0.166983
0.166352
0.165722
0.165095
0.164474
0.163864
0.163268
0.162687
0.162123
0.161573
0.161031
0.160489
0.15994
0.159373
0.158781
0.158158
0.157503
0.156816
0.156103
0.155374
0.15464
0.153914
0.153209
0.152534
0.151897
0.151301
0.150748
0.150233
0.149754
0.149306
0.148885
0.14849
0.148119
0.147771
0.147444
0.147134
0.146831
0.146523
0.146195
0.145828
0.145403
0.144903
0.144313
0.143628
0.142848
0.141981
0.141044
0.140061
0.13906
0.138071
0.13712
0.136231
0.135415
0.134677
0.134016
0.133425
0.132894
0.132413
0.131973
0.131562
0.131169
0.130782
0.130388
0.129976
0.129534
0.129055
0.128533
0.127965
0.127355
0.126708
0.126033
0.125344
0.124653
0.123979
0.123337
0.122745
0.122223
0.121788
0.121462
0.121266
0.121221
0.121351
0.121679
0.122225
0.122997
0.124023
0.125106
0.127268
0.174392
0.17379
0.173185
0.172577
0.171966
0.171351
0.170735
0.170118
0.169499
0.168879
0.168258
0.167635
0.16701
0.166384
0.165759
0.165136
0.164518
0.163907
0.163307
0.162719
0.162144
0.161578
0.161018
0.160458
0.159892
0.159312
0.158711
0.158086
0.157433
0.156754
0.156052
0.155334
0.154608
0.153886
0.153177
0.152491
0.151835
0.151214
0.15063
0.150084
0.149573
0.149096
0.14865
0.148232
0.14784
0.147471
0.147121
0.146784
0.146451
0.146111
0.145749
0.145349
0.144895
0.144373
0.143772
0.143086
0.142317
0.14147
0.140559
0.139602
0.138621
0.137638
0.136678
0.135761
0.134902
0.134112
0.133396
0.132752
0.132176
0.131659
0.131192
0.130762
0.130355
0.12996
0.129561
0.129148
0.128708
0.128233
0.127716
0.127154
0.126546
0.125895
0.125206
0.124486
0.123743
0.122989
0.122233
0.121489
0.12077
0.120088
0.11946
0.118899
0.118423
0.118049
0.117794
0.117677
0.11771
0.117917
0.118213
0.119055
0.174386
0.173784
0.173179
0.172572
0.171961
0.171348
0.170734
0.170117
0.1695
0.168881
0.16826
0.167639
0.167016
0.166393
0.165769
0.165148
0.16453
0.163918
0.163314
0.162719
0.162132
0.161553
0.160979
0.160405
0.159825
0.159235
0.15863
0.158004
0.157356
0.156687
0.155998
0.155295
0.154584
0.153873
0.153171
0.152486
0.151824
0.151191
0.150591
0.150024
0.14949
0.148989
0.148518
0.148075
0.147657
0.147262
0.146883
0.146515
0.146149
0.145775
0.145379
0.144948
0.144468
0.143928
0.143319
0.142635
0.141878
0.141054
0.140172
0.139248
0.1383
0.137346
0.136406
0.135497
0.134636
0.133831
0.133091
0.132416
0.131805
0.131252
0.130749
0.130283
0.129844
0.129418
0.128992
0.128556
0.128097
0.127608
0.127082
0.126514
0.125904
0.125252
0.12456
0.123831
0.123072
0.122289
0.121489
0.12068
0.119871
0.119071
0.11829
0.117539
0.116829
0.116171
0.11558
0.115068
0.114649
0.114333
0.114123
0.11404
0.174381
0.173779
0.173173
0.172566
0.171955
0.171343
0.170728
0.170112
0.169495
0.168876
0.168256
0.167634
0.167012
0.166389
0.165767
0.165145
0.164526
0.163912
0.163303
0.1627
0.162104
0.161513
0.160926
0.160339
0.159749
0.15915
0.15854
0.157914
0.15727
0.15661
0.155933
0.155244
0.154548
0.15385
0.153158
0.152478
0.151817
0.15118
0.150569
0.149988
0.149436
0.148914
0.14842
0.147953
0.147509
0.147085
0.146677
0.146278
0.14588
0.145473
0.145047
0.144589
0.144087
0.143533
0.142918
0.142238
0.141495
0.140692
0.13984
0.138949
0.138036
0.137115
0.136204
0.135318
0.134469
0.133667
0.13292
0.13223
0.131596
0.131015
0.130478
0.129977
0.129502
0.12904
0.128581
0.128114
0.127628
0.127117
0.126574
0.125994
0.125377
0.12472
0.124026
0.123297
0.122535
0.121746
0.120933
0.120102
0.119259
0.118409
0.11756
0.116719
0.115893
0.11509
0.114319
0.113589
0.112912
0.112286
0.111774
0.111088
0.174377
0.173774
0.173168
0.17256
0.17195
0.171337
0.170723
0.170106
0.169488
0.168869
0.168249
0.167627
0.167004
0.166381
0.165757
0.165135
0.164514
0.163896
0.163282
0.162673
0.162068
0.161468
0.16087
0.160272
0.159671
0.159065
0.158449
0.157822
0.157182
0.156527
0.15586
0.155183
0.154499
0.153814
0.153132
0.152459
0.1518
0.151161
0.150543
0.149951
0.149385
0.148845
0.14833
0.14784
0.147371
0.14692
0.146484
0.146055
0.145627
0.145192
0.144738
0.144257
0.143738
0.143172
0.142554
0.141879
0.141149
0.140368
0.139542
0.138683
0.137802
0.136915
0.136034
0.135172
0.134341
0.13355
0.132804
0.132107
0.131459
0.130856
0.130293
0.129762
0.129253
0.128758
0.128266
0.127767
0.127253
0.126718
0.126154
0.125559
0.124931
0.124267
0.12357
0.12284
0.122079
0.121291
0.120477
0.119643
0.118791
0.117927
0.117053
0.116176
0.115299
0.114429
0.113571
0.112731
0.111919
0.111123
0.110444
0.109395
0.174373
0.17377
0.173164
0.172555
0.171945
0.171332
0.170717
0.1701
0.169482
0.168862
0.168241
0.167618
0.166995
0.166371
0.165746
0.165122
0.164499
0.163878
0.163259
0.162644
0.162032
0.161422
0.160815
0.160207
0.159598
0.158984
0.158364
0.157735
0.157095
0.156446
0.155786
0.155117
0.154443
0.153767
0.153094
0.152427
0.151771
0.151131
0.150509
0.149908
0.149329
0.148773
0.14824
0.147729
0.147237
0.146762
0.146299
0.145844
0.145389
0.144927
0.14445
0.143948
0.143414
0.14284
0.142219
0.14155
0.140833
0.140071
0.13927
0.138439
0.137589
0.136731
0.135878
0.13504
0.134228
0.133449
0.132709
0.13201
0.131352
0.130734
0.130149
0.129593
0.129057
0.128532
0.12801
0.127482
0.126942
0.126382
0.125798
0.125187
0.124545
0.123873
0.12317
0.122438
0.121678
0.120891
0.120081
0.119249
0.1184
0.117534
0.116656
0.115768
0.114875
0.113979
0.113085
0.112195
0.111319
0.110438
0.109675
0.108425
0.17437
0.173766
0.17316
0.172551
0.17194
0.171327
0.170711
0.170094
0.169475
0.168855
0.168233
0.16761
0.166985
0.16636
0.165734
0.165108
0.164483
0.163859
0.163236
0.162616
0.161997
0.16138
0.160765
0.160149
0.159532
0.158912
0.158287
0.157655
0.157016
0.156368
0.155713
0.155051
0.154384
0.153716
0.153048
0.152387
0.151733
0.151092
0.150467
0.149858
0.149269
0.1487
0.14815
0.14762
0.147107
0.14661
0.146123
0.145643
0.145165
0.14468
0.144182
0.143663
0.143115
0.142533
0.141912
0.141248
0.140543
0.139798
0.139019
0.138213
0.13739
0.136559
0.135732
0.134916
0.134122
0.133355
0.132621
0.131921
0.131258
0.130627
0.130026
0.129449
0.128889
0.128339
0.127791
0.127238
0.126673
0.126091
0.125488
0.12486
0.124205
0.123523
0.122814
0.122077
0.121316
0.12053
0.119722
0.118895
0.118049
0.117187
0.116312
0.115426
0.11453
0.113628
0.112723
0.111815
0.110913
0.109995