/*--------------------------------*- C++ -*----------------------------------*\
  =========                 |
  \\      /  F ield         | OpenFOAM: The Open Source CFD Toolbox
   \\    /   O peration     | Website:  https://openfoam.org
    \\  /    A nd           | Version:  10
     \\/     M anipulation  |
\*---------------------------------------------------------------------------*/
FoamFile
{
    format      ascii;
    class       volScalarField;
    location    "700";
    object      p;
}
// * * * * * * * * * * * * * * * * * * * * * * * * * * * * * * * * * * * * * //

dimensions      [0 2 -2 0 0 0 0];

internalField   nonuniform List<scalar> 
6820
(
-8.04157
-8.81289
-9.25991
-9.40631
-9.48399
-9.54795
-9.59207
-9.62062
-9.64197
-9.65983
-9.67497
-9.68789
-9.69911
-9.70892
-9.71743
-9.72464
-9.73051
-9.73491
-9.7377
-9.73863
-9.73736
-9.73348
-9.72636
-9.7152
-9.6988
-9.6755
-9.64277
-9.59662
-9.53085
-9.43525
-9.28916
-9.07247
-8.89058
-9.59604
-9.74104
-9.71658
-9.64716
-9.61861
-9.62279
-9.63428
-9.64548
-9.65723
-9.6695
-9.6813
-9.69213
-9.70193
-9.71072
-9.71844
-9.725
-9.73032
-9.73426
-9.73666
-9.73729
-9.73583
-9.73186
-9.72485
-9.71404
-9.69842
-9.67658
-9.64639
-9.60536
-9.54767
-9.47097
-9.35457
-9.22029
-8.78451
-9.59977
-9.46422
-9.46416
-9.49777
-9.53259
-9.56878
-9.59957
-9.62305
-9.64214
-9.65875
-9.67325
-9.68584
-9.69686
-9.70653
-9.71494
-9.72209
-9.72794
-9.73241
-9.73533
-9.73651
-9.73567
-9.73244
-9.72631
-9.71666
-9.7026
-9.68302
-9.65629
-9.62064
-9.57273
-9.5116
-9.42991
-9.34989
-9.19736
-9.53026
-9.45255
-9.49655
-9.54314
-9.56811
-9.5915
-9.61412
-9.63281
-9.6487
-9.66313
-9.67624
-9.68798
-9.69847
-9.70783
-9.71607
-9.72317
-9.72905
-9.73362
-9.73674
-9.73823
-9.73784
-9.73524
-9.73004
-9.72174
-9.70967
-9.69308
-9.67101
-9.64265
-9.60697
-9.56559
-9.52048
-9.49202
-9.48789
-9.5239
-9.49429
-9.52364
-9.55456
-9.57297
-9.59313
-9.61448
-9.63297
-9.64886
-9.66328
-9.67641
-9.68821
-9.69877
-9.70822
-9.71658
-9.72383
-9.72992
-9.73477
-9.73827
-9.74027
-9.74055
-9.73889
-9.73497
-9.72845
-9.71893
-9.70601
-9.68939
-9.66916
-9.64602
-9.62328
-9.60689
-9.6139
-9.66696
-9.53202
-9.51781
-9.53358
-9.55844
-9.57765
-9.5972
-9.61731
-9.63512
-9.65064
-9.66474
-9.67764
-9.68933
-9.69986
-9.70934
-9.7178
-9.72521
-9.73154
-9.73673
-9.74069
-9.7433
-9.74441
-9.74385
-9.74144
-9.73699
-9.73035
-9.72148
-9.7106
-9.69854
-9.68704
-9.68015
-9.68483
-9.71445
-9.78842
-9.54005
-9.53241
-9.54346
-9.56525
-9.58408
-9.6021
-9.62049
-9.63741
-9.65248
-9.66626
-9.67895
-9.69054
-9.70108
-9.71063
-9.71922
-9.72685
-9.73349
-9.73909
-9.7436
-9.74692
-9.74899
-9.7497
-9.74898
-9.7468
-9.74323
-9.73854
-9.73332
-9.72886
-9.72739
-9.733
-9.75201
-9.79409
-9.87191
-9.54831
-9.54508
-9.55428
-9.57277
-9.5902
-9.60681
-9.62379
-9.63989
-9.6545
-9.66796
-9.68044
-9.69194
-9.70248
-9.71211
-9.72087
-9.72875
-9.73574
-9.74181
-9.74693
-9.75106
-9.75418
-9.75626
-9.75734
-9.75752
-9.75705
-9.75641
-9.75644
-9.75862
-9.76528
-9.78003
-9.80795
-9.85548
-9.92985
-9.55702
-9.55648
-9.56449
-9.58008
-9.59607
-9.61157
-9.62736
-9.64262
-9.65674
-9.66986
-9.68212
-9.69352
-9.70406
-9.71379
-9.72272
-9.73088
-9.73825
-9.74483
-9.75062
-9.75561
-9.75984
-9.76335
-9.76625
-9.76877
-9.77128
-9.77437
-9.77903
-9.78672
-9.79958
-9.82058
-9.85343
-9.90215
-9.97042
-9.56584
-9.56674
-9.57395
-9.58732
-9.60193
-9.6164
-9.63112
-9.64556
-9.65918
-9.67195
-9.68399
-9.69528
-9.70583
-9.71565
-9.72478
-9.73322
-9.741
-9.74811
-9.7546
-9.76048
-9.76584
-9.77077
-9.77547
-9.78021
-9.78546
-9.79187
-9.80041
-9.81245
-9.8298
-9.85473
-9.88977
-9.93727
-9.99884
-9.57452
-9.57613
-9.58278
-9.59444
-9.60774
-9.62124
-9.635
-9.64867
-9.66178
-9.67422
-9.68603
-9.69722
-9.70777
-9.71769
-9.72702
-9.73576
-9.74395
-9.75162
-9.75881
-9.76559
-9.77206
-9.77837
-9.78476
-9.79156
-9.79924
-9.80847
-9.82015
-9.83546
-9.85585
-9.88295
-9.91841
-9.96347
-10.0186
-9.58293
-9.58485
-9.59103
-9.60136
-9.61346
-9.62605
-9.63896
-9.65192
-9.66452
-9.67663
-9.68823
-9.69931
-9.70986
-9.71989
-9.72942
-9.73847
-9.74709
-9.7553
-9.76319
-9.77084
-9.77838
-9.78599
-9.79393
-9.80255
-9.81233
-9.82387
-9.83799
-9.85563
-9.87789
-9.90592
-9.9407
-9.98279
-10.0321
-9.59099
-9.593
-9.59876
-9.60802
-9.61907
-9.6308
-9.64295
-9.65526
-9.66739
-9.67916
-9.69056
-9.70154
-9.7121
-9.72223
-9.73196
-9.74132
-9.75035
-9.7591
-9.76767
-9.77615
-9.78469
-9.79349
-9.80282
-9.81301
-9.82452
-9.8379
-9.8538
-9.87298
-9.89625
-9.92433
-9.95779
-9.99678
-10.0409
-9.59864
-9.60063
-9.60601
-9.6144
-9.62453
-9.63548
-9.64694
-9.65865
-9.67033
-9.68179
-9.69299
-9.70387
-9.71444
-9.72467
-9.7346
-9.74426
-9.75369
-9.76297
-9.77217
-9.78142
-9.79088
-9.80074
-9.81127
-9.82278
-9.83568
-9.85044
-9.86758
-9.88767
-9.91128
-9.93886
-9.97066
-10.0066
-10.0463
-9.60587
-9.60779
-9.61279
-9.62048
-9.62981
-9.64005
-9.65089
-9.66206
-9.67331
-9.68448
-9.69549
-9.70629
-9.71686
-9.72719
-9.73732
-9.74726
-9.75707
-9.76683
-9.77663
-9.78658
-9.79685
-9.80763
-9.81917
-9.83175
-9.84571
-9.86145
-9.87937
-9.89989
-9.92337
-9.95007
-9.98007
-10.0132
-10.049
-9.61266
-9.61448
-9.61914
-9.62623
-9.63487
-9.64448
-9.65475
-9.66544
-9.67631
-9.6872
-9.69803
-9.70875
-9.71933
-9.72976
-9.74006
-9.75027
-9.76044
-9.77064
-9.78097
-9.79154
-9.80252
-9.81407
-9.82642
-9.83983
-9.85457
-9.87095
-9.88928
-9.90985
-9.93287
-9.95849
-9.98665
-10.0172
-10.0496
-9.619
-9.62071
-9.62506
-9.63164
-9.63969
-9.64874
-9.65851
-9.66876
-9.67928
-9.68992
-9.70058
-9.71122
-9.7218
-9.73232
-9.74279
-9.75325
-9.76374
-9.77433
-9.78513
-9.79624
-9.8078
-9.81998
-9.83297
-9.84698
-9.86224
-9.87898
-9.89742
-9.91776
-9.94011
-9.96452
-9.9909
-10.019
-10.0485
-9.62488
-9.62649
-9.63056
-9.6367
-9.64424
-9.6528
-9.66212
-9.67197
-9.68218
-9.69259
-9.7031
-9.71367
-9.72426
-9.73485
-9.74547
-9.75614
-9.76692
-9.77786
-9.78906
-9.80061
-9.81265
-9.82532
-9.83877
-9.85319
-9.86874
-9.88561
-9.90393
-9.92384
-9.94539
-9.96855
-9.99321
-10.0192
-10.0461
-9.63029
-9.6318
-9.63562
-9.64138
-9.64849
-9.65662
-9.66554
-9.67505
-9.68497
-9.69517
-9.70555
-9.71605
-9.72664
-9.73731
-9.74806
-9.75892
-9.76993
-9.78117
-9.79269
-9.8046
-9.81701
-9.83003
-9.84379
-9.85844
-9.87411
-9.89091
-9.90896
-9.9283
-9.94894
-9.97085
-9.99389
-10.0179
-10.0425
-9.63521
-9.63664
-9.64025
-9.64568
-9.65242
-9.66017
-9.66874
-9.67795
-9.68763
-9.69764
-9.70789
-9.71833
-9.72892
-9.73965
-9.75051
-9.76152
-9.77274
-9.78421
-9.79599
-9.80817
-9.82084
-9.83409
-9.84803
-9.86277
-9.8784
-9.895
-9.91262
-9.9313
-9.95101
-9.97169
-9.99321
-10.0154
-10.0381
-9.63964
-9.641
-9.64441
-9.64957
-9.65599
-9.66342
-9.67169
-9.68063
-9.69009
-9.69994
-9.71008
-9.72047
-9.73106
-9.74182
-9.75277
-9.76392
-9.77529
-9.78694
-9.79892
-9.81128
-9.82412
-9.8375
-9.8515
-9.8662
-9.88167
-9.89794
-9.91507
-9.93302
-9.95179
-9.97128
-9.99138
-10.012
-10.0328
-9.64357
-9.64486
-9.64811
-9.65302
-9.65917
-9.66633
-9.67434
-9.68306
-9.69233
-9.70203
-9.71208
-9.72242
-9.733
-9.74381
-9.75482
-9.76607
-9.77756
-9.78933
-9.80143
-9.81392
-9.82683
-9.84024
-9.8542
-9.86877
-9.88398
-9.89986
-9.91641
-9.93362
-9.95144
-9.96979
-9.98857
-10.0077
-10.0269
-9.64696
-9.6482
-9.6513
-9.65602
-9.66194
-9.66886
-9.67666
-9.68518
-9.6943
-9.70388
-9.71385
-9.72415
-9.73472
-9.74555
-9.75662
-9.76793
-9.7795
-9.79135
-9.80353
-9.81605
-9.82898
-9.84234
-9.85618
-9.87053
-9.88541
-9.90082
-9.91677
-9.93321
-9.95011
-9.96738
-9.98494
-10.0027
-10.0205
-9.64981
-9.651
-9.65398
-9.65852
-9.66425
-9.67098
-9.6786
-9.68697
-9.69595
-9.70544
-9.71535
-9.72561
-9.73618
-9.74702
-9.75812
-9.76947
-9.78109
-9.79298
-9.80517
-9.81769
-9.83056
-9.8438
-9.85745
-9.87152
-9.88602
-9.90094
-9.91625
-9.93194
-9.94793
-9.96418
-9.9806
-9.99709
-10.0135
-9.65207
-9.65322
-9.65609
-9.66049
-9.66606
-9.67264
-9.68011
-9.68836
-9.69725
-9.70667
-9.71653
-9.72677
-9.73733
-9.74818
-9.7593
-9.77067
-9.7823
-9.79419
-9.80636
-9.81882
-9.83158
-9.84466
-9.85807
-9.87181
-9.88589
-9.90028
-9.91496
-9.9299
-9.94504
-9.96032
-9.97567
-9.99102
-10.0063
-9.65373
-9.65484
-9.65762
-9.66189
-9.66733
-9.67379
-9.68116
-9.68932
-9.69815
-9.70752
-9.71735
-9.72758
-9.73814
-9.749
-9.76012
-9.7715
-9.78312
-9.79498
-9.80709
-9.81944
-9.83206
-9.84493
-9.85806
-9.87145
-9.88508
-9.89894
-9.91299
-9.9272
-9.94151
-9.95589
-9.97025
-9.98455
-9.99869
-9.65474
-9.65582
-9.65852
-9.66268
-9.66801
-9.67438
-9.68169
-9.6898
-9.69859
-9.70795
-9.71778
-9.72801
-9.73858
-9.74944
-9.76057
-9.77194
-9.78353
-9.79534
-9.80736
-9.81959
-9.83203
-9.84466
-9.85749
-9.87051
-9.88369
-9.89701
-9.91044
-9.92395
-9.93749
-9.95101
-9.96446
-9.97778
-9.99091
-9.65507
-9.65611
-9.65873
-9.66279
-9.66805
-9.67437
-9.68165
-9.68975
-9.69854
-9.70791
-9.71777
-9.72802
-9.73862
-9.74949
-9.76062
-9.77197
-9.78353
-9.79526
-9.80718
-9.81925
-9.83149
-9.84387
-9.85638
-9.86901
-9.88173
-9.89452
-9.90736
-9.92019
-9.93299
-9.94572
-9.95831
-9.97074
-9.98294
-9.65468
-9.65569
-9.65821
-9.66217
-9.66737
-9.67367
-9.68097
-9.68911
-9.69795
-9.70737
-9.71728
-9.72759
-9.73822
-9.74913
-9.76027
-9.77161
-9.78312
-9.79479
-9.80659
-9.81851
-9.83054
-9.84266
-9.85485
-9.8671
-9.87938
-9.89167
-9.90393
-9.91614
-9.92825
-9.94023
-9.95204
-9.96365
-9.97498
-9.65354
-9.65449
-9.65689
-9.66074
-9.66589
-9.67223
-9.67959
-9.68782
-9.69676
-9.70628
-9.71628
-9.72667
-9.73736
-9.7483
-9.75945
-9.77077
-9.78223
-9.7938
-9.80547
-9.81722
-9.82903
-9.84088
-9.85275
-9.86462
-9.87646
-9.88826
-9.89998
-9.91159
-9.92306
-9.93435
-9.94544
-9.95629
-9.96685
-9.65163
-9.65249
-9.65469
-9.65838
-9.66352
-9.66994
-9.67743
-9.6858
-9.69491
-9.70461
-9.71478
-9.72532
-9.73614
-9.74718
-9.7584
-9.76975
-9.78119
-9.79272
-9.80429
-9.81589
-9.8275
-9.83911
-9.85068
-9.8622
-9.87364
-9.88498
-9.89619
-9.90725
-9.91812
-9.92878
-9.9392
-9.94934
-9.95917
-9.64894
-9.64964
-9.6515
-9.65495
-9.66012
-9.66674
-9.67444
-9.68301
-9.6923
-9.70217
-9.71246
-9.72309
-9.73398
-9.74506
-9.75628
-9.76761
-9.779
-9.79044
-9.80188
-9.81333
-9.82474
-9.8361
-9.84738
-9.85857
-9.86964
-9.88056
-9.89132
-9.90188
-9.91223
-9.92233
-9.93216
-9.94171
-9.95094
-9.64556
-9.64593
-9.64717
-9.65024
-9.65547
-9.66238
-9.6705
-9.67959
-9.68945
-9.69986
-9.71063
-9.72166
-9.73287
-9.7442
-9.75559
-9.76702
-9.77845
-9.78986
-9.80123
-9.81253
-9.82375
-9.83486
-9.84586
-9.8567
-9.86739
-9.87789
-9.88818
-9.89824
-9.90805
-9.91758
-9.92682
-9.93573
-9.94427
-9.64169
-9.64131
-9.64139
-9.64415
-9.64967
-9.65669
-9.66463
-9.67353
-9.6833
-9.69369
-9.70448
-9.71557
-9.72686
-9.73829
-9.74978
-9.7613
-9.77281
-9.78427
-9.79566
-9.80696
-9.81814
-9.82918
-9.84006
-9.85075
-9.86125
-9.87152
-9.88155
-9.89132
-9.90081
-9.91
-9.91888
-9.92745
-9.93568
-9.63802
-9.63581
-9.633
-9.63538
-9.64296
-9.65267
-9.66305
-9.67399
-9.68536
-9.6969
-9.70848
-9.72008
-9.73165
-9.74317
-9.75461
-9.76597
-9.77724
-9.78839
-9.79941
-9.8103
-9.82103
-9.83159
-9.84196
-9.85212
-9.86206
-9.87176
-9.88119
-9.89035
-9.89921
-9.90776
-9.91596
-9.92381
-9.93124
-9.6357
-9.63061
-9.62314
-9.62095
-9.62373
-9.62954
-9.63798
-9.6485
-9.66019
-9.67244
-9.685
-9.69775
-9.71054
-9.72327
-9.7359
-9.74838
-9.76069
-9.7728
-9.7847
-9.79637
-9.8078
-9.81898
-9.82989
-9.84052
-9.85086
-9.86088
-9.87059
-9.87996
-9.889
-9.89768
-9.906
-9.91398
-9.9216
-9.63637
-9.61649
-9.61938
-9.63929
-9.65622
-9.66739
-9.67757
-9.68844
-9.69932
-9.70983
-9.72018
-9.73052
-9.74085
-9.75115
-9.76141
-9.77164
-9.78181
-9.79191
-9.80191
-9.8118
-9.82156
-9.83116
-9.84058
-9.84979
-9.85879
-9.86754
-9.87604
-9.88425
-9.89217
-9.89976
-9.90702
-9.91392
-9.92042
-9.67402
-9.55081
-9.4878
-9.4916
-9.51419
-9.53622
-9.55792
-9.58018
-9.60194
-9.62258
-9.64211
-9.66064
-9.67824
-9.69499
-9.71098
-9.72628
-9.74095
-9.75504
-9.7686
-9.78166
-9.79423
-9.80634
-9.81799
-9.8292
-9.83997
-9.8503
-9.8602
-9.86966
-9.87869
-9.88728
-9.89545
-9.9032
-9.91053
-9.83407
-9.84726
-9.80602
-9.764
-9.74025
-9.73004
-9.72594
-9.72452
-9.7253
-9.72829
-9.73306
-9.73905
-9.74592
-9.75347
-9.76154
-9.76999
-9.77871
-9.78761
-9.79661
-9.80565
-9.81467
-9.82363
-9.83248
-9.84119
-9.84971
-9.85802
-9.8661
-9.87392
-9.88145
-9.88869
-9.89562
-9.90223
-9.9085
-8.6699
-8.97028
-9.23543
-9.36153
-9.42674
-9.48318
-9.53318
-9.57214
-9.60256
-9.62833
-9.65119
-9.67165
-9.69015
-9.70715
-9.723
-9.73793
-9.75206
-9.76552
-9.77837
-9.79068
-9.8025
-9.81384
-9.82472
-9.83517
-9.84518
-9.85477
-9.86392
-9.87265
-9.88094
-9.8888
-9.89622
-9.9032
-9.90973
-10.01
-11.4756
-11.0258
-10.7151
-10.5948
-10.5616
-10.5704
-10.5984
-10.6274
-10.6546
-10.6874
-10.7284
-10.7719
-10.8101
-10.8408
-10.8703
-10.9097
-10.9698
-11.056
-11.1658
-11.2894
-11.4121
-11.5179
-11.592
-11.624
-11.6093
-11.5495
-11.4517
-11.3272
-11.189
-11.0497
-10.9197
-10.8059
-10.7117
-10.6367
-10.5781
-10.5312
-10.4905
-10.4499
-10.4034
-10.3445
-10.2662
-10.1616
-10.0236
-9.84579
-9.62318
-9.35306
-9.03585
-8.67568
-8.28076
-7.86322
-7.4384
-7.02321
-6.63378
-6.28276
-5.97731
-5.7185
-5.50228
-5.32125
-5.16652
-5.02904
-4.90033
-4.77295
-4.64059
-4.49824
-4.34222
-4.17023
-3.98136
-3.77603
-3.55588
-3.3236
-3.08277
-2.83753
-2.59237
-2.35178
-2.11995
-1.90046
-1.69596
-1.50807
-1.33734
-1.18344
-1.04543
-0.922006
-0.811743
-0.713222
-0.625123
-0.546247
-0.475546
-0.412097
-0.355121
-0.30392
-0.257943
-0.216545
-0.179453
-0.145612
-0.115597
-0.0863367
-0.0622871
-0.0309216
-0.0200581
-9.31069
-11.2209
-11.2856
-10.9697
-10.7726
-10.6734
-10.6353
-10.6351
-10.6457
-10.6564
-10.6734
-10.7019
-10.7384
-10.7744
-10.8058
-10.8366
-10.8769
-10.9373
-11.0232
-11.1322
-11.2544
-11.3749
-11.4777
-11.5481
-11.5764
-11.5584
-11.4964
-11.3977
-11.2736
-11.137
-11
-10.8728
-10.7619
-10.6703
-10.5975
-10.5406
-10.4948
-10.4549
-10.4148
-10.3685
-10.3097
-10.2316
-10.1272
-9.98934
-9.81177
-9.58954
-9.32012
-9.00405
-8.64559
-8.25288
-7.83783
-7.41543
-7.00234
-6.61472
-6.26556
-5.96253
-5.70712
-5.49534
-5.31958
-5.1705
-5.03855
-4.91482
-4.79151
-4.66215
-4.52167
-4.36646
-4.1944
-4.00478
-3.79826
-3.57672
-3.34306
-3.10096
-2.85466
-2.60861
-2.36727
-2.13478
-1.91464
-1.70951
-1.52098
-1.34962
-1.1951
-1.05649
-0.932484
-0.821642
-0.722542
-0.633856
-0.554382
-0.483065
-0.418983
-0.361358
-0.309495
-0.262851
-0.220787
-0.183046
-0.148544
-0.11796
-0.0879471
-0.0637499
-0.0306717
-0.0227515
-9.54984
-10.7102
-11.0039
-10.8907
-10.7872
-10.7266
-10.6913
-10.6761
-10.6683
-10.6614
-10.6618
-10.6767
-10.7046
-10.7379
-10.7708
-10.8046
-10.8471
-10.9075
-10.9913
-11.0968
-11.2145
-11.3302
-11.4281
-11.4942
-11.519
-11.4991
-11.4368
-11.3396
-11.2183
-11.0853
-10.9523
-10.8287
-10.721
-10.6317
-10.5605
-10.5043
-10.4586
-10.4181
-10.377
-10.3295
-10.2694
-10.1902
-10.0848
-9.94648
-9.76891
-9.54744
-9.27971
-8.96649
-8.61208
-8.22447
-7.81515
-7.39843
-6.99032
-6.60653
-6.26012
-5.95919
-5.7058
-5.49641
-5.32354
-5.17771
-5.04905
-4.92833
-4.8075
-4.67991
-4.54047
-4.38561
-4.21335
-4.02318
-3.81595
-3.59373
-3.35955
-3.11718
-2.87082
-2.6249
-2.38374
-2.15137
-1.93122
-1.72587
-1.53693
-1.365
-1.2098
-1.07043
-0.945613
-0.833946
-0.734017
-0.644505
-0.564209
-0.492075
-0.427181
-0.368747
-0.316082
-0.268645
-0.225799
-0.187296
-0.152035
-0.120766
-0.0899157
-0.0654182
-0.0306102
-0.0252996
-9.73526
-10.4413
-10.7771
-10.7903
-10.7554
-10.7294
-10.7043
-10.6845
-10.6701
-10.6595
-10.6569
-10.6678
-10.6911
-10.7207
-10.7514
-10.7837
-10.824
-10.8806
-10.9588
-11.0572
-11.1672
-11.2753
-11.3667
-11.4279
-11.4502
-11.4302
-11.3703
-11.2774
-11.1617
-11.0346
-10.9072
-10.7883
-10.6839
-10.5967
-10.5261
-10.4695
-10.4224
-10.3798
-10.3362
-10.286
-10.2231
-10.1413
-10.0338
-9.89416
-9.71636
-9.49603
-9.23109
-8.92249
-8.57453
-8.19496
-7.79467
-7.38708
-6.98711
-6.60964
-6.26735
-5.96861
-5.71612
-5.50708
-5.3345
-5.18912
-5.06105
-4.94094
-4.82058
-4.69322
-4.55373
-4.39861
-4.22598
-4.03545
-3.82803
-3.60589
-3.37213
-3.13052
-2.8852
-2.64047
-2.4005
-2.16915
-1.94972
-1.74472
-1.55575
-1.38345
-1.22761
-1.0874
-0.961627
-0.848935
-0.747951
-0.657378
-0.576031
-0.502864
-0.436958
-0.377536
-0.323906
-0.275529
-0.231768
-0.192376
-0.156239
-0.124162
-0.0923777
-0.0674159
-0.0308592
-0.0277212
-9.86475
-10.3269
-10.6258
-10.6946
-10.696
-10.6905
-10.6765
-10.6601
-10.6481
-10.642
-10.6443
-10.658
-10.6823
-10.7122
-10.7434
-10.7757
-10.814
-10.8652
-10.9342
-11.0206
-11.1177
-11.2139
-11.2957
-11.3508
-11.3709
-11.3523
-11.297
-11.2109
-11.1033
-10.9843
-10.864
-10.7505
-10.6497
-10.564
-10.4933
-10.4351
-10.3854
-10.3394
-10.2919
-10.2375
-10.1705
-10.0849
-9.97441
-9.83279
-9.65457
-9.43572
-9.17449
-8.87196
-8.53239
-8.1632
-7.77458
-7.37893
-6.98994
-6.62127
-6.28484
-5.98894
-5.73683
-5.52659
-5.35209
-5.20466
-5.0747
-4.95293
-4.83111
-4.7025
-4.56193
-4.40595
-4.23274
-4.042
-3.83482
-3.6134
-3.38085
-3.14086
-2.89748
-2.65483
-2.41689
-2.18734
-1.96929
-1.76519
-1.5766
-1.40419
-1.24785
-1.10685
-0.980075
-0.866254
-0.764073
-0.672276
-0.589705
-0.515331
-0.448246
-0.387677
-0.332934
-0.283477
-0.238671
-0.198265
-0.161139
-0.12813
-0.0953267
-0.0697323
-0.0314658
-0.0299759
-9.95306
-10.2684
-10.5111
-10.6037
-10.63
-10.6395
-10.6366
-10.6282
-10.6229
-10.6236
-10.6312
-10.6473
-10.6711
-10.6998
-10.7304
-10.7629
-10.8006
-10.8487
-10.9107
-10.9865
-11.0707
-11.1537
-11.2243
-11.2718
-11.2886
-11.2715
-11.2213
-11.1432
-11.0447
-10.9347
-10.8222
-10.7145
-10.617
-10.5323
-10.4605
-10.3997
-10.3463
-10.2958
-10.2432
-10.1836
-10.1115
-10.0212
-9.90695
-9.76295
-9.58423
-9.3672
-9.1104
-8.81503
-8.48523
-8.12796
-7.75271
-7.37086
-6.99483
-6.63701
-6.30825
-6.01639
-5.76496
-5.55284
-5.37495
-5.22352
-5.08958
-4.96419
-4.83926
-4.70809
-4.56556
-4.40823
-4.23432
-4.04354
-3.837
-3.61687
-3.38619
-3.14853
-2.90778
-2.66787
-2.43259
-2.20539
-1.98926
-1.7865
-1.59865
-1.42643
-1.26978
-1.12809
-1.00037
-0.885409
-0.781979
-0.688875
-0.604978
-0.529282
-0.460897
-0.399056
-0.343078
-0.292418
-0.246449
-0.204909
-0.166682
-0.132615
-0.0987106
-0.0723068
-0.0324098
-0.0319678
-10.0091
-10.2339
-10.4268
-10.5259
-10.5677
-10.5882
-10.5959
-10.5969
-10.5993
-10.6062
-10.6179
-10.635
-10.6576
-10.6843
-10.7136
-10.7456
-10.7825
-10.8278
-10.8839
-10.9502
-11.0225
-11.0932
-11.1529
-11.1927
-11.2062
-11.1901
-11.1449
-11.0746
-10.9855
-10.8848
-10.7804
-10.6786
-10.5845
-10.5005
-10.4272
-10.363
-10.3049
-10.2489
-10.1905
-10.1249
-10.047
-9.9515
-9.8331
-9.68656
-9.5074
-9.29249
-9.04063
-8.75307
-8.43373
-8.08909
-7.72791
-7.36057
-6.99838
-6.65248
-6.33267
-6.04613
-5.79631
-5.58265
-5.40099
-5.24457
-5.10531
-4.97487
-4.84555
-4.71081
-4.56562
-4.40658
-4.2319
-4.04128
-3.83574
-3.61738
-3.38909
-3.15428
-2.91664
-2.67991
-2.44767
-2.22319
-2.00929
-1.80817
-1.62133
-1.44951
-1.29274
-1.1505
-1.02191
-0.905867
-0.801207
-0.706787
-0.621529
-0.544459
-0.474706
-0.411516
-0.354215
-0.302261
-0.255028
-0.212247
-0.172815
-0.13757
-0.102482
-0.0750886
-0.0336675
-0.0335989
-10.0446
-10.2121
-10.3657
-10.4612
-10.5115
-10.5405
-10.5572
-10.5669
-10.5759
-10.5873
-10.6015
-10.619
-10.6404
-10.6655
-10.6938
-10.7254
-10.7616
-10.8044
-10.8552
-10.9133
-10.9751
-11.0345
-11.0839
-11.1162
-11.1259
-11.1099
-11.0687
-11.005
-10.924
-10.832
-10.7352
-10.6394
-10.5488
-10.4659
-10.3913
-10.3239
-10.2611
-10.1994
-10.1349
-10.0631
-9.97931
-9.8786
-9.7561
-9.60712
-9.42769
-9.21507
-8.96834
-8.68874
-8.37995
-8.04795
-7.70074
-7.34781
-6.99939
-6.66555
-6.3551
-6.07456
-5.82718
-5.61273
-5.42773
-5.26636
-5.12142
-4.98532
-4.8509
-4.71196
-4.56367
-4.40268
-4.2272
-4.03687
-3.83259
-3.61632
-3.39075
-3.1591
-2.92486
-2.69154
-2.46253
-2.24093
-2.02941
-1.83009
-1.6444
-1.47311
-1.31633
-1.17364
-1.04426
-0.927189
-0.821337
-0.725622
-0.639012
-0.560561
-0.489421
-0.424849
-0.36618
-0.312872
-0.264306
-0.220203
-0.179479
-0.142948
-0.106603
-0.0780461
-0.0352287
-0.034804
-10.0671
-10.1968
-10.3204
-10.4081
-10.4622
-10.4972
-10.5208
-10.5372
-10.5513
-10.5659
-10.5818
-10.5997
-10.6205
-10.6446
-10.6721
-10.7031
-10.7382
-10.7785
-10.8245
-10.8753
-10.928
-10.9777
-11.0181
-11.0436
-11.0494
-11.0331
-10.9946
-10.9362
-10.8621
-10.7774
-10.6874
-10.5969
-10.5097
-10.428
-10.3524
-10.2822
-10.2151
-10.1483
-10.078
-10.0003
-9.91087
-9.80521
-9.6789
-9.52775
-9.34826
-9.13809
-8.8965
-8.62475
-8.32626
-8.0065
-7.67279
-7.33372
-6.99856
-6.67639
-6.37514
-6.10071
-5.85616
-5.64145
-5.45371
-5.28785
-5.13748
-4.99578
-4.85615
-4.71285
-4.56129
-4.39825
-4.22195
-4.03197
-3.82907
-3.61501
-3.3923
-3.16393
-2.93316
-2.7033
-2.47756
-2.25886
-2.04976
-1.85227
-1.66779
-1.49711
-1.34039
-1.19731
-1.06719
-0.949119
-0.842098
-0.745103
-0.657148
-0.577319
-0.504789
-0.438826
-0.378772
-0.324083
-0.274145
-0.228668
-0.186591
-0.14869
-0.111029
-0.0811547
-0.0370833
-0.0355618
-10.0809
-10.1848
-10.2858
-10.3647
-10.4194
-10.4579
-10.4861
-10.5074
-10.5252
-10.5423
-10.5597
-10.5783
-10.5989
-10.6225
-10.6492
-10.6791
-10.7126
-10.7501
-10.7916
-10.836
-10.8809
-10.9222
-10.955
-10.9745
-10.9769
-10.9599
-10.9234
-10.8693
-10.8008
-10.7221
-10.6379
-10.5521
-10.4679
-10.3874
-10.3112
-10.2386
-10.1679
-10.0964
-10.0209
-9.93788
-9.84331
-9.73319
-9.60352
-9.45057
-9.27129
-9.06368
-8.82718
-8.56305
-8.27444
-7.96636
-7.64545
-7.31949
-6.99686
-6.68573
-6.39327
-6.12481
-5.88321
-5.66861
-5.47859
-5.30875
-5.15343
-5.00647
-4.86188
-4.71434
-4.55956
-4.3945
-4.21739
-4.02775
-3.82621
-3.61436
-3.39448
-3.16934
-2.94199
-2.71552
-2.49298
-2.27713
-2.0704
-1.87472
-1.69147
-1.52142
-1.36481
-1.22139
-1.09057
-0.971529
-0.863354
-0.765083
-0.67578
-0.594566
-0.520635
-0.45327
-0.391817
-0.33573
-0.284399
-0.237516
-0.194048
-0.154719
-0.115704
-0.0843853
-0.039204
-0.0358972
-10.089
-10.1745
-10.2586
-10.3289
-10.3821
-10.4221
-10.4531
-10.4777
-10.4984
-10.5175
-10.5362
-10.5555
-10.5763
-10.5994
-10.6252
-10.6538
-10.6853
-10.7197
-10.7568
-10.7955
-10.8336
-10.8677
-10.894
-10.9084
-10.9076
-10.8899
-10.8549
-10.8042
-10.7403
-10.6668
-10.5874
-10.5056
-10.4241
-10.3448
-10.2681
-10.1935
-10.1196
-10.0441
-9.96407
-9.87628
-9.77721
-9.66321
-9.5307
-9.3764
-9.19762
-8.99269
-8.76121
-8.5044
-8.22518
-7.92813
-7.61925
-7.30559
-6.9947
-6.69394
-6.40978
-6.14705
-5.90843
-5.69418
-5.5023
-5.32896
-5.16916
-5.01739
-4.86819
-4.71668
-4.55887
-4.39187
-4.21398
-4.02467
-3.82444
-3.61471
-3.39756
-3.17553
-2.95146
-2.72828
-2.50882
-2.29572
-2.0913
-1.8974
-1.71536
-1.54597
-1.38949
-1.24577
-1.11429
-0.994318
-0.885012
-0.785477
-0.694825
-0.612216
-0.53687
-0.468083
-0.40521
-0.347704
-0.294957
-0.246642
-0.201756
-0.160959
-0.120567
-0.0877041
-0.0415411
-0.0358784
-10.0931
-10.1651
-10.2364
-10.2989
-10.3493
-10.3895
-10.4219
-10.4486
-10.4713
-10.492
-10.5119
-10.5318
-10.5527
-10.5753
-10.6
-10.6271
-10.6564
-10.6877
-10.7207
-10.7541
-10.7862
-10.8142
-10.8347
-10.8446
-10.8411
-10.8226
-10.7888
-10.7408
-10.6807
-10.6115
-10.5362
-10.4579
-10.3787
-10.3004
-10.2233
-10.1471
-10.0704
-9.99139
-9.90737
-9.81546
-9.71249
-9.59519
-9.46037
-9.30513
-9.12715
-8.92501
-8.69847
-8.4487
-8.1784
-7.89174
-7.59416
-7.29202
-6.99212
-6.7011
-6.42477
-6.16753
-5.93186
-5.71814
-5.52472
-5.3483
-5.18448
-5.02832
-4.87488
-4.71969
-4.55906
-4.39025
-4.21164
-4.02265
-3.82369
-3.61599
-3.40144
-3.1824
-2.9615
-2.74146
-2.52499
-2.31456
-2.11237
-1.92021
-1.73937
-1.57064
-1.41434
-1.27035
-1.13825
-1.01738
-0.906975
-0.806195
-0.714205
-0.630201
-0.55343
-0.483207
-0.418895
-0.359946
-0.305758
-0.255985
-0.209656
-0.167356
-0.125571
-0.0910866
-0.0440342
-0.0356089
-10.0943
-10.1561
-10.2175
-10.2731
-10.3204
-10.3597
-10.3926
-10.4203
-10.4445
-10.4663
-10.487
-10.5074
-10.5283
-10.5502
-10.5738
-10.5991
-10.6261
-10.6544
-10.6834
-10.7122
-10.739
-10.7615
-10.777
-10.7829
-10.7769
-10.7576
-10.7246
-10.6788
-10.622
-10.5564
-10.4846
-10.4092
-10.3321
-10.2546
-10.1771
-10.0995
-10.0205
-9.93831
-9.8508
-9.75529
-9.64895
-9.52887
-9.39221
-9.23642
-9.05949
-8.86025
-8.63857
-8.39557
-8.13376
-7.85692
-7.56997
-7.27864
-6.98906
-6.70718
-6.43825
-6.18626
-5.95352
-5.74049
-5.54582
-5.3667
-5.19924
-5.03907
-4.88173
-4.72314
-4.55988
-4.3894
-4.21012
-4.02146
-3.8237
-3.61795
-3.40592
-3.18976
-2.97191
-2.75494
-2.54136
-2.33353
-2.13353
-1.94307
-1.76342
-1.59537
-1.43926
-1.29504
-1.16236
-1.04063
-0.929154
-0.827152
-0.733839
-0.648447
-0.570252
-0.498584
-0.43282
-0.372411
-0.316762
-0.265509
-0.217714
-0.173884
-0.130692
-0.0945249
-0.0466284
-0.0352104
-10.0935
-10.1473
-10.2008
-10.2506
-10.2945
-10.3323
-10.3649
-10.3931
-10.418
-10.4406
-10.4618
-10.4824
-10.503
-10.5243
-10.5466
-10.5701
-10.5947
-10.6201
-10.6454
-10.6699
-10.6919
-10.7096
-10.7208
-10.7231
-10.7148
-10.6946
-10.6622
-10.6182
-10.5639
-10.5014
-10.4326
-10.3597
-10.2843
-10.2076
-10.1299
-10.0509
-9.96979
-9.88493
-9.79435
-9.69571
-9.58649
-9.46408
-9.32599
-9.16998
-8.99434
-8.79807
-8.58116
-8.34469
-8.09095
-7.82339
-7.54645
-7.2653
-6.98541
-6.71214
-6.45023
-6.20328
-5.97344
-5.76125
-5.56561
-5.38412
-5.21341
-5.04958
-4.88864
-4.72689
-4.56117
-4.38912
-4.20923
-4.02088
-3.8243
-3.62042
-3.41081
-3.19744
-2.98256
-2.76856
-2.5578
-2.35251
-2.15467
-1.9659
-1.78744
-1.62008
-1.46419
-1.31978
-1.18655
-1.06399
-0.951476
-0.848277
-0.753657
-0.666887
-0.58727
-0.514156
-0.446931
-0.385051
-0.327927
-0.275178
-0.2259
-0.180519
-0.13591
-0.0980176
-0.049277
-0.0347967
-10.091
-10.1385
-10.1858
-10.2305
-10.2711
-10.3071
-10.3389
-10.3669
-10.392
-10.4149
-10.4363
-10.4568
-10.4771
-10.4975
-10.5186
-10.5403
-10.5625
-10.585
-10.6069
-10.6274
-10.6452
-10.6586
-10.6658
-10.665
-10.6545
-10.6334
-10.6014
-10.5588
-10.5067
-10.4467
-10.3804
-10.3096
-10.2357
-10.1596
-10.0816
-10.0016
-9.91859
-9.83135
-9.73809
-9.63674
-9.52505
-9.40073
-9.26157
-9.10564
-8.93146
-8.73822
-8.52598
-8.29579
-8.04974
-7.79096
-7.52345
-7.25186
-6.98109
-6.71596
-6.4607
-6.21859
-5.99165
-5.78042
-5.58407
-5.40056
-5.22695
-5.05981
-4.89557
-4.73089
-4.56289
-4.38936
-4.20889
-4.02084
-3.82537
-3.6233
-3.41602
-3.20534
-2.99333
-2.78222
-2.57423
-2.37143
-2.17571
-1.98862
-1.81136
-1.64471
-1.48907
-1.3445
-1.21076
-1.08741
-0.973885
-0.869512
-0.773603
-0.685466
-0.604432
-0.529871
-0.461181
-0.397822
-0.339211
-0.284954
-0.23418
-0.187234
-0.141198
-0.101557
-0.0519355
-0.0344506
-10.0873
-10.1296
-10.1718
-10.2122
-10.2496
-10.2836
-10.3142
-10.3417
-10.3666
-10.3894
-10.4107
-10.4309
-10.4506
-10.4701
-10.4898
-10.5097
-10.5296
-10.5493
-10.568
-10.5849
-10.5988
-10.6084
-10.6121
-10.6084
-10.596
-10.574
-10.5421
-10.5006
-10.4502
-10.3922
-10.3281
-10.2591
-10.1864
-10.1108
-10.0326
-9.95158
-9.86701
-9.7777
-9.68211
-9.57842
-9.46466
-9.3388
-9.1989
-9.0433
-8.87073
-8.68055
-8.47288
-8.24871
-8.00996
-7.75948
-7.50087
-7.23826
-6.97608
-6.71861
-6.46967
-6.23223
-6.00815
-5.79803
-5.60122
-5.416
-5.23984
-5.06972
-4.90248
-4.73511
-4.56499
-4.39009
-4.20906
-4.0213
-3.82689
-3.62654
-3.42149
-3.21341
-3.00419
-2.79589
-2.59058
-2.39022
-2.19659
-2.01117
-1.83511
-1.66919
-1.51383
-1.36914
-1.23493
-1.11083
-0.996326
-0.890807
-0.793629
-0.704138
-0.621694
-0.545687
-0.475529
-0.410684
-0.350578
-0.294803
-0.242524
-0.194004
-0.146528
-0.105129
-0.0545641
-0.0342206
-10.0825
-10.1206
-10.1585
-10.1952
-10.2297
-10.2615
-10.2907
-10.3174
-10.3417
-10.3641
-10.385
-10.4047
-10.4237
-10.4422
-10.4604
-10.4785
-10.4962
-10.5132
-10.5289
-10.5425
-10.553
-10.5591
-10.5597
-10.5534
-10.5391
-10.5162
-10.4843
-10.4435
-10.3945
-10.3382
-10.2758
-10.2082
-10.1366
-10.0614
-9.98303
-9.90116
-9.81518
-9.72409
-9.6265
-9.52084
-9.40536
-9.27829
-9.13795
-8.98289
-8.81206
-8.62495
-8.42173
-8.20333
-7.97153
-7.72888
-7.47862
-7.22447
-6.97035
-6.72011
-6.47718
-6.24423
-6.023
-5.81409
-5.61705
-5.43043
-5.25205
-5.07929
-4.90935
-4.73952
-4.56745
-4.39127
-4.20974
-4.02225
-3.82884
-3.63013
-3.42723
-3.22163
-3.01509
-2.80951
-2.60682
-2.40885
-2.21727
-2.03349
-1.85864
-1.69347
-1.53842
-1.39364
-1.25901
-1.1342
-1.01875
-0.912112
-0.813688
-0.722859
-0.639016
-0.561567
-0.489941
-0.423607
-0.362
-0.304701
-0.250907
-0.200807
-0.151876
-0.108724
-0.057135
-0.0341285
-10.077
-10.1114
-10.1457
-10.1791
-10.2109
-10.2407
-10.2683
-10.2939
-10.3174
-10.3391
-10.3594
-10.3784
-10.3965
-10.4138
-10.4306
-10.4469
-10.4624
-10.4769
-10.4898
-10.5003
-10.5076
-10.5107
-10.5084
-10.4998
-10.4838
-10.46
-10.4279
-10.3876
-10.3396
-10.2847
-10.2236
-10.1573
-10.0865
-10.0117
-9.93306
-9.85045
-9.76329
-9.67066
-9.57138
-9.46407
-9.3472
-9.21923
-9.0787
-8.92439
-8.75541
-8.57136
-8.37245
-8.15957
-7.93435
-7.69909
-7.45669
-7.21046
-6.96392
-6.7205
-6.48326
-6.25464
-6.03622
-5.82865
-5.63158
-5.44384
-5.26357
-5.08849
-4.91612
-4.74408
-4.57024
-4.3929
-4.21091
-4.02369
-3.83123
-3.63408
-3.43321
-3.23
-3.02604
-2.82308
-2.62292
-2.42727
-2.2377
-2.05555
-1.88189
-1.71749
-1.56279
-1.41796
-1.28294
-1.15745
-1.0411
-0.93338
-0.833735
-0.741589
-0.656359
-0.577476
-0.504385
-0.436562
-0.373451
-0.314623
-0.259307
-0.207626
-0.157227
-0.112332
-0.0596357
-0.0341791
-10.0707
-10.102
-10.1333
-10.1638
-10.1931
-10.2208
-10.2468
-10.2711
-10.2936
-10.3145
-10.3339
-10.352
-10.3691
-10.3852
-10.4005
-10.415
-10.4284
-10.4405
-10.4507
-10.4584
-10.4629
-10.4631
-10.4583
-10.4476
-10.43
-10.4052
-10.3728
-10.3328
-10.2856
-10.2317
-10.1717
-10.1063
-10.0362
-9.96168
-9.88289
-9.79965
-9.71146
-9.61755
-9.51686
-9.4082
-9.29024
-9.16165
-9.02117
-8.86777
-8.70071
-8.5197
-8.32497
-8.11737
-7.89838
-7.67007
-7.43505
-7.19625
-6.95683
-6.71982
-6.48799
-6.26352
-6.04789
-5.84173
-5.64484
-5.45625
-5.27439
-5.09728
-4.92278
-4.74877
-4.57333
-4.39495
-4.21255
-4.02559
-3.83404
-3.63837
-3.43944
-3.2385
-3.03701
-2.83658
-2.63886
-2.44546
-2.25785
-2.0773
-1.90484
-1.74121
-1.58688
-1.44204
-1.30667
-1.18055
-1.06333
-0.954561
-0.853725
-0.760283
-0.673684
-0.593379
-0.518829
-0.44952
-0.384905
-0.324548
-0.267708
-0.214446
-0.162567
-0.115947
-0.0620645
-0.034364
-10.0638
-10.0925
-10.121
-10.149
-10.1759
-10.2017
-10.2261
-10.249
-10.2703
-10.2901
-10.3085
-10.3257
-10.3416
-10.3565
-10.3702
-10.3829
-10.3943
-10.4041
-10.4119
-10.417
-10.4188
-10.4166
-10.4094
-10.3967
-10.3777
-10.3519
-10.3191
-10.2793
-10.2325
-10.1794
-10.1202
-10.0556
-9.98599
-9.91167
-9.83271