/*--------------------------------*- C++ -*----------------------------------*\
  =========                 |
  \\      /  F ield         | OpenFOAM: The Open Source CFD Toolbox
   \\    /   O peration     | Website:  https://openfoam.org
    \\  /    A nd           | Version:  10
     \\/     M anipulation  |
\*---------------------------------------------------------------------------*/
FoamFile
{
    format      ascii;
    class       surfaceScalarField;
    location    "700";
    object      phi;
}
// * * * * * * * * * * * * * * * * * * * * * * * * * * * * * * * * * * * * * //

dimensions      [0 3 -1 0 0 0 0];

internalField   nonuniform List<scalar> 
13452
(
6.02917e-05
-2.32341e-08
5.99927e-05
2.9898e-07
5.95877e-05
4.05019e-07
5.91126e-05
4.75055e-07
5.86073e-05
5.05334e-07
5.81251e-05
4.82232e-07
5.7688e-05
4.37116e-07
5.72963e-05
3.9171e-07
5.69445e-05
3.51803e-07
5.66267e-05
3.17733e-07
5.63377e-05
2.88994e-07
5.60729e-05
2.64868e-07
5.58283e-05
2.44541e-07
5.5601e-05
2.27278e-07
5.53885e-05
2.12509e-07
5.51887e-05
1.99814e-07
5.49998e-05
1.88894e-07
5.48203e-05
1.79547e-07
5.46486e-05
1.71656e-07
5.44834e-05
1.65185e-07
5.43233e-05
1.60184e-07
5.41664e-05
1.56812e-07
5.40111e-05
1.55374e-07
5.38547e-05
1.56403e-07
5.36939e-05
1.60781e-07
5.35239e-05
1.70027e-07
5.3337e-05
1.86866e-07
5.31217e-05
2.15312e-07
5.28569e-05
2.64751e-07
5.24881e-05
3.68822e-07
5.2017e-05
4.71108e-07
5.17309e-05
2.86088e-07
1.58671e-06
5.01442e-05
6.21472e-05
-1.80058e-07
6.21729e-05
2.73192e-07
6.21944e-05
3.83608e-07
6.22101e-05
4.59312e-07
6.22094e-05
5.06019e-07
6.21785e-05
5.13167e-07
6.21159e-05
4.99685e-07
6.20279e-05
4.79737e-07
6.1922e-05
4.57662e-07
6.18049e-05
4.3491e-07
6.16812e-05
4.12635e-07
6.15545e-05
3.91598e-07
6.14269e-05
3.72108e-07
6.13e-05
3.54231e-07
6.11745e-05
3.3795e-07
6.10511e-05
3.23227e-07
6.093e-05
3.10025e-07
6.08112e-05
2.98326e-07
6.06947e-05
2.8815e-07
6.05803e-05
2.7957e-07
6.04678e-05
2.72732e-07
6.03567e-05
2.67889e-07
6.02466e-05
2.65448e-07
6.0137e-05
2.66043e-07
6.00271e-05
2.70693e-07
5.99162e-05
2.80945e-07
5.98034e-05
2.99665e-07
5.96882e-05
3.30495e-07
5.95703e-05
3.82584e-07
5.94686e-05
4.70593e-07
5.93443e-05
5.95379e-07
5.92155e-05
4.14922e-07
1.84008e-06
5.89621e-05
6.36685e-05
-8.72e-08
6.37271e-05
2.14688e-07
6.37867e-05
3.23972e-07
6.38496e-05
3.96381e-07
6.39038e-05
4.51831e-07
6.39398e-05
4.77131e-07
6.39576e-05
4.81914e-07
6.39599e-05
4.77482e-07
6.39492e-05
4.68306e-07
6.3928e-05
4.56128e-07
6.38983e-05
4.42355e-07
6.38618e-05
4.28064e-07
6.382e-05
4.13893e-07
6.37741e-05
4.002e-07
6.37248e-05
3.87222e-07
6.36729e-05
3.75135e-07
6.36188e-05
3.64085e-07
6.35629e-05
3.54211e-07
6.35054e-05
3.45673e-07
6.34463e-05
3.38677e-07
6.33855e-05
3.33503e-07
6.33229e-05
3.30547e-07
6.32579e-05
3.30385e-07
6.31901e-05
3.33851e-07
6.31186e-05
3.42217e-07
6.30422e-05
3.57326e-07
6.29596e-05
3.82338e-07
6.28688e-05
4.21304e-07
6.27689e-05
4.82451e-07
6.26646e-05
5.7484e-07
6.25459e-05
7.14135e-07
6.21857e-05
7.75067e-07
1.63201e-06
6.23938e-05
6.55167e-05
-2.08231e-08
6.55573e-05
1.74056e-07
6.55938e-05
2.87473e-07
6.56343e-05
3.55918e-07
6.56761e-05
4.1e-07
6.57125e-05
4.40766e-07
6.57417e-05
4.52661e-07
6.57641e-05
4.55084e-07
6.57799e-05
4.52499e-07
6.57895e-05
4.46537e-07
6.57935e-05
4.38419e-07
6.57924e-05
4.29162e-07
6.57868e-05
4.19429e-07
6.57774e-05
4.09644e-07
6.57645e-05
4.00119e-07
6.57485e-05
3.9111e-07
6.57298e-05
3.82846e-07
6.57084e-05
3.75553e-07
6.56846e-05
3.69474e-07
6.56584e-05
3.64904e-07
6.56297e-05
3.62221e-07
6.55983e-05
3.61924e-07
6.5564e-05
3.64705e-07
6.55263e-05
3.71533e-07
6.54847e-05
3.8381e-07
6.54385e-05
4.03518e-07
6.53871e-05
4.33749e-07
6.53299e-05
4.78546e-07
6.52676e-05
5.44739e-07
6.52026e-05
6.39835e-07
6.51394e-05
7.77329e-07
6.49783e-05
9.36128e-07
1.42068e-06
6.51896e-05
6.74273e-05
8.6163e-09
6.74473e-05
1.54089e-07
6.74703e-05
2.64457e-07
6.74979e-05
3.28336e-07
6.75306e-05
3.77332e-07
6.75627e-05
4.08678e-07
6.75916e-05
4.23751e-07
6.76169e-05
4.29725e-07
6.76387e-05
4.3074e-07
6.76569e-05
4.28365e-07
6.76716e-05
4.237e-07
6.76831e-05
4.17697e-07
6.76915e-05
4.11012e-07
6.7697e-05
4.04077e-07
6.76999e-05
3.97223e-07
6.77003e-05
3.90736e-07
6.76983e-05
3.84878e-07
6.76939e-05
3.79913e-07
6.76873e-05
3.76132e-07
6.76783e-05
3.7388e-07
6.76669e-05
3.73586e-07
6.7653e-05
3.75808e-07
6.76364e-05
3.8129e-07
6.76169e-05
3.9104e-07
6.75943e-05
4.06459e-07
6.75684e-05
4.29453e-07
6.75393e-05
4.62759e-07
6.7508e-05
5.09872e-07
6.74769e-05
5.75905e-07
6.74503e-05
6.66436e-07
6.74377e-05
7.89884e-07
6.7425e-05
9.4886e-07
1.22925e-06
6.76164e-05
6.93698e-05
2.28929e-08
6.9382e-05
1.41828e-07
6.9403e-05
2.43428e-07
6.94267e-05
3.04677e-07
6.94541e-05
3.49965e-07
6.94818e-05
3.80899e-07
6.95079e-05
3.97693e-07
6.95319e-05
4.05707e-07
6.95539e-05
4.08778e-07
6.95737e-05
4.08517e-07
6.95915e-05
4.05974e-07
6.96071e-05
4.02052e-07
6.96207e-05
3.97395e-07
6.96324e-05
3.92438e-07
6.96421e-05
3.87519e-07
6.96499e-05
3.82933e-07
6.96558e-05
3.78957e-07
6.96598e-05
3.75875e-07
6.9662e-05
3.73997e-07
6.96622e-05
3.7369e-07
6.96603e-05
3.75405e-07
6.96564e-05
3.79711e-07
6.96504e-05
3.87349e-07
6.96421e-05
3.99285e-07
6.96318e-05
4.16801e-07
6.96197e-05
4.41563e-07
6.96067e-05
4.75773e-07
6.95945e-05
5.22074e-07
6.95866e-05
5.83808e-07
6.95888e-05
6.64224e-07
6.96118e-05
7.66898e-07
6.96674e-05
8.93181e-07
1.05387e-06
6.98428e-05
7.13587e-05
3.05716e-08
7.13689e-05
1.31619e-07
7.13892e-05
2.2312e-07
7.14113e-05
2.82551e-07
7.14358e-05
3.25491e-07
7.14609e-05
3.55797e-07
7.14849e-05
3.73687e-07
7.15075e-05
3.83136e-07
7.15286e-05
3.87619e-07
7.15483e-05
3.88799e-07
7.15666e-05
3.87713e-07
7.15834e-05
3.85228e-07
7.15988e-05
3.81988e-07
7.16128e-05
3.78439e-07
7.16254e-05
3.74928e-07
7.16366e-05
3.71758e-07
7.16463e-05
3.69215e-07
7.16546e-05
3.67592e-07
7.16614e-05
3.67205e-07
7.16667e-05
3.68424e-07
7.16704e-05
3.71694e-07
7.16725e-05
3.77564e-07
7.16732e-05
3.86719e-07
7.16724e-05
4.00026e-07
7.16707e-05
4.18566e-07
7.16686e-05
4.43664e-07
7.16674e-05
4.76912e-07
7.16695e-05
5.20025e-07
7.16785e-05
5.74759e-07
7.17005e-05
6.42229e-07
7.1745e-05
7.22401e-07
7.1826e-05
8.12146e-07
9.00573e-07
7.19793e-05
7.34018e-05
3.40673e-08
7.3411e-05
1.22411e-07
7.34297e-05
2.04416e-07
7.34507e-05
2.61563e-07
7.34735e-05
3.02625e-07
7.34972e-05
3.32166e-07
7.35201e-05
3.5079e-07
7.35418e-05
3.61416e-07
7.35624e-05
3.67066e-07
7.35817e-05
3.6941e-07
7.36e-05
3.6948e-07
7.36171e-05
3.68119e-07
7.36331e-05
3.65972e-07
7.3648e-05
3.63502e-07
7.36619e-05
3.61069e-07
7.36747e-05
3.58985e-07
7.36863e-05
3.57543e-07
7.36969e-05
3.57037e-07
7.37063e-05
3.57783e-07
7.37146e-05
3.60139e-07
7.37218e-05
3.64523e-07
7.37279e-05
3.71437e-07
7.37331e-05
3.81481e-07
7.37378e-05
3.95373e-07
7.37424e-05
4.13958e-07
7.37479e-05
4.3818e-07
7.37558e-05
4.69038e-07
7.37684e-05
5.07397e-07
7.37894e-05
5.53762e-07
7.38239e-05
6.07666e-07
7.38794e-05
6.66903e-07
7.39657e-05
7.25858e-07
7.70645e-07
7.40957e-05
7.55016e-05
3.48959e-08
7.55101e-05
1.13906e-07
7.55271e-05
1.87449e-07
7.5547e-05
2.41656e-07
7.55687e-05
2.80937e-07
7.55913e-05
3.09585e-07
7.56135e-05
3.28602e-07
7.56347e-05
3.40161e-07
7.5655e-05
3.46808e-07
7.56742e-05
3.50159e-07
7.56925e-05
3.5123e-07
7.57098e-05
3.50838e-07
7.57261e-05
3.4962e-07
7.57416e-05
3.48051e-07
7.57561e-05
3.46502e-07
7.57698e-05
3.45292e-07
7.57827e-05
3.44719e-07
7.57946e-05
3.45073e-07
7.58057e-05
3.4666e-07
7.58161e-05
3.49816e-07
7.58257e-05
3.5492e-07
7.58347e-05
3.62406e-07
7.58434e-05
3.72767e-07
7.58522e-05
3.86557e-07
7.58618e-05
4.04368e-07
7.58732e-05
4.26784e-07
7.5888e-05
4.54283e-07
7.59083e-05
4.87053e-07
7.59374e-05
5.2472e-07
7.59792e-05
5.65857e-07
7.60388e-05
6.07304e-07
7.61216e-05
6.4304e-07
6.61776e-07
7.62305e-05
7.76603e-05
3.41804e-08
7.76683e-05
1.0586e-07
7.76838e-05
1.72007e-07
7.77026e-05
2.2286e-07
7.77232e-05
2.60316e-07
7.77448e-05
2.87949e-07
7.77664e-05
3.07021e-07
7.77873e-05
3.19232e-07
7.78075e-05
3.26686e-07
7.78267e-05
3.30893e-07
7.78451e-05
3.32841e-07
7.78627e-05
3.33307e-07
7.78794e-05
3.32912e-07
7.78953e-05
3.32132e-07
7.79104e-05
3.31341e-07
7.79249e-05
3.30862e-07
7.79386e-05
3.30989e-07
7.79517e-05
3.32005e-07
7.79641e-05
3.34197e-07
7.79761e-05
3.37871e-07
7.79876e-05
3.43355e-07
7.7999e-05
3.51005e-07
7.80106e-05
3.612e-07
7.80228e-05
3.74324e-07
7.80365e-05
3.90739e-07
7.80526e-05
4.10709e-07
7.80725e-05
4.34307e-07
7.80983e-05
4.61235e-07
7.81325e-05
4.90592e-07
7.81778e-05
5.20516e-07
7.82374e-05
5.47734e-07
7.83134e-05
5.66987e-07
5.7047e-07
7.84047e-05
7.98799e-05
3.26215e-08
7.98876e-05
9.81396e-08
7.99017e-05
1.57859e-07
7.99194e-05
2.05174e-07
7.9939e-05
2.407e-07
7.99598e-05
2.67197e-07
7.99808e-05
2.86033e-07
8.00014e-05
2.98613e-07
8.00214e-05
3.06666e-07
8.00408e-05
3.11566e-07
8.00593e-05
3.14253e-07
8.00772e-05
3.15463e-07
8.00943e-05
3.1579e-07
8.01107e-05
3.15699e-07
8.01265e-05
3.15563e-07
8.01417e-05
3.15697e-07
8.01563e-05
3.16386e-07
8.01704e-05
3.17898e-07
8.01841e-05
3.20496e-07
8.01975e-05
3.24448e-07
8.02109e-05
3.30024e-07
8.02244e-05
3.37499e-07
8.02384e-05
3.47137e-07
8.02536e-05
3.59171e-07
8.02706e-05
3.73758e-07
8.02904e-05
3.90914e-07
8.03142e-05
4.1042e-07
8.03438e-05
4.31679e-07
8.03808e-05
4.53545e-07
8.04273e-05
4.74099e-07
8.04846e-05
4.90425e-07
8.05531e-05
4.98434e-07
4.93237e-07
8.06304e-05
8.21624e-05
3.06305e-08
8.21699e-05
9.07013e-08
8.21829e-05
1.44799e-07
8.21996e-05
1.88547e-07
8.22182e-05
2.22021e-07
8.22382e-05
2.47269e-07
8.22586e-05
2.6563e-07
8.22789e-05
2.78318e-07
8.22988e-05
2.86761e-07
8.23182e-05
2.92179e-07
8.2337e-05
2.95458e-07
8.23551e-05
2.97286e-07
8.23727e-05
2.98224e-07
8.23897e-05
2.98719e-07
8.24061e-05
2.9913e-07
8.24221e-05
2.99762e-07
8.24376e-05
3.00884e-07
8.24527e-05
3.02741e-07
8.24676e-05
3.05569e-07
8.24825e-05
3.09589e-07
8.24975e-05
3.15015e-07
8.2513e-05
3.22042e-07
8.25293e-05
3.30829e-07
8.2547e-05
3.41476e-07
8.25667e-05
3.53981e-07
8.25895e-05
3.6818e-07
8.26162e-05
3.8367e-07
8.26482e-05
3.99712e-07
8.26866e-05
4.15115e-07
8.27326e-05
4.28131e-07
8.27866e-05
4.36396e-07
8.28481e-05
4.36972e-07
4.27051e-07
8.29143e-05
8.451e-05
2.84463e-08
8.45171e-05
8.35405e-08
8.45293e-05
1.32648e-07
8.45449e-05
1.72889e-07
8.45627e-05
2.04205e-07
8.45819e-05
2.28098e-07
8.46018e-05
2.4579e-07
8.46217e-05
2.58354e-07
8.46415e-05
2.66982e-07
8.46609e-05
2.72747e-07
8.46799e-05
2.76465e-07
8.46984e-05
2.78778e-07
8.47164e-05
2.80208e-07
8.4734e-05
2.81175e-07
8.47511e-05
2.82023e-07
8.47678e-05
2.83036e-07
8.47842e-05
2.84462e-07
8.48005e-05
2.86523e-07
8.48166e-05
2.89418e-07
8.48329e-05
2.93326e-07
8.48495e-05
2.98402e-07
8.48668e-05
3.04768e-07
8.48851e-05
3.12494e-07
8.4905e-05
3.21575e-07
8.49271e-05
3.31892e-07
8.49521e-05
3.43165e-07
8.49809e-05
3.54902e-07
8.50143e-05
3.6633e-07
8.5053e-05
3.76346e-07
8.50977e-05
3.83483e-07
8.51481e-05
3.85949e-07
8.52033e-05
3.81754e-07
3.6946e-07
8.52609e-05
8.69244e-05
2.62046e-08
8.69313e-05
7.66578e-08
8.69427e-05
1.21258e-07
8.69575e-05
1.58099e-07
8.69745e-05
1.8718e-07
8.6993e-05
2.09614e-07
8.70123e-05
2.26472e-07
8.70319e-05
2.3871e-07
8.70516e-05
2.47334e-07
8.70711e-05
2.53277e-07
8.70902e-05
2.57285e-07
8.71091e-05
2.59947e-07
8.71275e-05
2.61744e-07
8.71456e-05
2.63067e-07
8.71634e-05
2.64236e-07
8.7181e-05
2.65512e-07
8.71983e-05
2.67119e-07
8.72156e-05
2.69249e-07
8.72329e-05
2.72066e-07
8.72505e-05
2.75707e-07
8.72687e-05
2.80273e-07
8.72876e-05
2.85824e-07
8.73078e-05
2.92357e-07
8.73295e-05
2.99791e-07
8.73535e-05
3.0793e-07
8.73802e-05
3.16436e-07
8.74103e-05
3.24792e-07
8.74444e-05
3.32272e-07
8.74828e-05
3.37925e-07
8.75257e-05
3.40592e-07
8.75727e-05
3.38989e-07
8.76226e-05
3.31838e-07
3.18546e-07
8.76735e-05
8.94078e-05
2.39779e-08
8.94144e-05
7.00497e-08
8.94251e-05
1.10507e-07
8.94392e-05
1.4407e-07
8.94555e-05
1.70864e-07
8.94733e-05
1.91747e-07
8.94922e-05
2.0763e-07
8.95115e-05
2.19363e-07
8.95311e-05
2.27807e-07
8.95506e-05
2.33769e-07
8.95699e-05
2.3792e-07
8.95891e-05
2.40796e-07
8.9608e-05
2.42836e-07
8.96267e-05
2.44398e-07
8.96451e-05
2.45772e-07
8.96634e-05
2.47195e-07
8.96817e-05
2.48865e-07
8.97e-05
2.50942e-07
8.97185e-05
2.53556e-07
8.97374e-05
2.56803e-07
8.97569e-05
2.6074e-07
8.97774e-05
2.65374e-07
8.97991e-05
2.70652e-07
8.98225e-05
2.76437e-07
8.98479e-05
2.82496e-07
8.98759e-05
2.88474e-07
8.99068e-05
2.93878e-07
8.9941e-05
2.9807e-07
8.99786e-05
3.00275e-07
9.00196e-05
2.99623e-07
9.00633e-05
2.95237e-07
9.01088e-05
2.86341e-07
2.72839e-07
9.01545e-05
9.1962e-05
2.18022e-08
9.19684e-05
6.37045e-08
9.19786e-05
1.00295e-07
9.1992e-05
1.307e-07
9.20077e-05
1.55176e-07
9.2025e-05
1.74424e-07
9.20434e-05
1.89209e-07
9.20625e-05
2.00281e-07
9.20819e-05
2.08382e-07
9.21015e-05
2.14213e-07
9.2121e-05
2.18366e-07
9.21405e-05
2.21326e-07
9.21598e-05
2.23486e-07
9.21791e-05
2.25171e-07
9.21982e-05
2.26639e-07
9.22173e-05
2.28101e-07
9.22364e-05
2.29724e-07
9.22557e-05
2.3164e-07
9.22753e-05
2.33947e-07
9.22954e-05
2.36704e-07
9.23162e-05
2.39931e-07
9.2338e-05
2.43597e-07
9.23611e-05
2.47612e-07
9.23857e-05
2.51811e-07
9.24122e-05
2.55949e-07
9.2441e-05
2.59685e-07
9.24723e-05
2.62578e-07
9.25063e-05
2.64095e-07
9.25429e-05
2.63637e-07
9.2582e-05
2.60578e-07
9.26229e-05
2.54347e-07
9.26647e-05
2.44503e-07
2.31229e-07
9.27063e-05
9.45893e-05
1.96916e-08
9.45954e-05
5.76036e-08
9.46051e-05
9.05393e-08
9.46179e-05
1.17891e-07
9.46331e-05
1.40035e-07
9.46499e-05
1.57574e-07
9.4668e-05
1.71151e-07
9.46868e-05
1.81424e-07
9.47062e-05
1.89036e-07
9.47258e-05
1.94592e-07
9.47456e-05
1.98614e-07
9.47654e-05
2.01531e-07
9.47851e-05
2.03695e-07
9.48049e-05
2.05392e-07
9.48247e-05
2.0685e-07
9.48446e-05
2.08249e-07
9.48646e-05
2.09729e-07
9.48848e-05
2.11395e-07
9.49054e-05
2.13312e-07
9.49266e-05
2.15513e-07
9.49486e-05
2.17986e-07
9.49715e-05
2.20674e-07
9.49957e-05
2.23465e-07
9.50213e-05
2.26188e-07
9.50486e-05
2.28602e-07
9.50779e-05
2.30399e-07
9.51093e-05
2.31205e-07
9.51428e-05
2.30598e-07
9.51783e-05
2.28129e-07
9.52155e-05
2.23367e-07
9.52539e-05
2.15964e-07
9.52927e-05
2.05694e-07
1.92881e-07
9.5331e-05
9.72916e-05
1.76486e-08
9.72974e-05
5.1722e-08
9.73068e-05
8.1166e-08
9.73192e-05
1.05556e-07
9.73338e-05
1.2536e-07
9.73503e-05
1.41125e-07
9.7368e-05
1.53396e-07
9.73867e-05
1.62747e-07
9.7406e-05
1.69737e-07
9.74257e-05
1.74886e-07
9.74457e-05
1.7865e-07
9.74658e-05
1.81406e-07
9.7486e-05
1.83463e-07
9.75064e-05
1.85068e-07
9.75268e-05
1.86419e-07
9.75474e-05
1.87666e-07
9.75682e-05
1.88922e-07
9.75893e-05
1.90264e-07
9.76109e-05
1.91734e-07
9.76331e-05
1.93338e-07
9.7656e-05
1.95045e-07
9.76799e-05
1.96781e-07
9.77049e-05
1.98425e-07
9.77313e-05
1.9981e-07
9.77592e-05
2.00716e-07
9.77887e-05
2.00878e-07
9.78199e-05
1.99993e-07
9.78528e-05
1.97735e-07
9.78871e-05
1.93785e-07
9.79226e-05
1.87862e-07
9.79588e-05
1.79767e-07
9.79951e-05
1.69409e-07
1.57171e-07
9.80308e-05
0.000100071
1.56688e-08
0.000100077
4.60316e-08
0.000100086
7.21103e-08
0.000100098
9.36112e-08
0.000100112
1.11072e-07
0.000100128
1.25007e-07
0.000100146
1.35885e-07
0.000100164
1.44204e-07
0.000100184
1.50449e-07
0.000100203
1.5507e-07
0.000100224
1.5846e-07
0.000100244
1.60944e-07
0.000100265
1.6279e-07
0.000100286
1.6421e-07
0.000100307
1.65366e-07
0.000100328
1.66383e-07
0.000100349
1.67348e-07
0.000100371
1.68313e-07
0.000100394
1.69298e-07
0.000100417
1.70292e-07
0.000100441
1.71249e-07
0.000100465
1.72086e-07
0.000100491
1.72686e-07
0.000100518
1.72891e-07
0.000100546
1.72511e-07
0.000100576
1.71328e-07
0.000100607
1.69103e-07
0.000100639
1.65598e-07
0.000100672
1.60594e-07
0.000100706
1.53917e-07
0.00010074
1.45473e-07
0.000100774
1.35246e-07
1.23634e-07
0.000100808
0.00010293
1.37447e-08
0.000102936
4.05022e-08
0.000102944
6.33128e-08
0.000102956
8.19808e-08
0.00010297
9.70954e-08
0.000102986
1.09151e-07
0.000103003
1.18555e-07
0.000103022
1.25743e-07
0.000103041
1.31135e-07
0.000103061
1.35117e-07
0.000103081
1.38024e-07
0.000103102
1.40136e-07
0.000103123
1.41678e-07
0.000103145
1.42826e-07
0.000103166
1.43713e-07
0.000103188
1.44437e-07
0.00010321
1.45059e-07
0.000103233
1.45611e-07
0.000103256
1.46096e-07
0.00010328
1.46488e-07
0.000103305
1.46733e-07
0.00010333
1.46747e-07
0.000103356
1.46419e-07
0.000103384
1.45612e-07
0.000103412
1.44164e-07
0.000103441
1.41903e-07
0.000103472
1.38649e-07
0.000103503
1.34233e-07
0.000103535
1.28514e-07
0.000103568
1.21394e-07
0.0001036
1.12843e-07
0.000103633
1.02889e-07
9.19193e-08
0.000103664
0.000105871
1.18673e-08
0.000105876
3.5103e-08
0.000105885
5.47188e-08
0.000105896
7.05947e-08
0.00010591
8.33564e-08
0.000105925
9.3486e-08
0.000105943
1.01344e-07
0.000105961
1.07312e-07
0.00010598
1.11752e-07
0.000106001
1.14994e-07
0.000106021
1.17322e-07
0.000106042
1.1897e-07
0.000106064
1.20125e-07
0.000106086
1.20928e-07
0.000106108
1.21484e-07
0.000106131
1.21864e-07
0.000106154
1.22107e-07
0.000106177
1.22227e-07
0.000106201
1.22214e-07
0.000106225
1.22031e-07
0.00010625
1.21621e-07
0.000106276
1.20903e-07
0.000106303
1.19776e-07
0.00010633
1.18123e-07
0.000106359
1.15815e-07
0.000106388
1.12718e-07
0.000106418
1.08703e-07
0.000106448
1.03655e-07
0.00010648
9.74896e-08
0.000106511
9.01623e-08
0.000106542
8.16812e-08
0.000106573
7.20957e-08
6.17689e-08
0.000106603
0.000108895
1.00269e-08
0.000108901
2.98039e-08
0.000108909
4.62774e-08
0.00010892
5.93872e-08
0.000108934
6.97848e-08
0.000108949
7.79438e-08
0.000108966
8.41892e-08
0.000108985
8.88545e-08
0.000109004
9.22537e-08
0.000109025
9.46663e-08
0.000109046
9.63292e-08
0.000109067
9.74342e-08
0.000109089
9.81303e-08
0.000109112
9.85277e-08
0.000109134
9.87025e-08
0.000109158
9.87015e-08
0.000109181
9.85454e-08
0.000109205
9.82321e-08
0.00010923
9.77389e-08
0.000109255
9.70239e-08
0.00010928
9.60281e-08
0.000109306
9.46768e-08
0.000109333
9.28825e-08
0.000109361
9.05481e-08
0.000109389
8.75725e-08
0.000109418
8.3856e-08
0.000109447
7.93092e-08
0.000109477
7.38598e-08
0.000109507
6.74636e-08
0.000109537
6.0109e-08
0.000109567
5.18277e-08
0.000109597
4.26762e-08
3.2989e-08
0.000109625
0.000112006
8.21405e-09
0.000112012
2.4576e-08
0.00011202
3.79412e-08
0.000112031
4.82969e-08
0.000112044
5.63121e-08
0.00011206
6.24554e-08
0.000112077
6.70242e-08
0.000112096
7.03129e-08
0.000112115
7.25917e-08
0.000112136
7.40952e-08
0.000112157
7.50172e-08
0.000112179
7.55104e-08
0.000112202
7.56888e-08
0.000112224
7.56317e-08
0.000112248
7.53892e-08
0.000112271
7.49857e-08
0.000112296
7.44242e-08
0.00011232
7.36891e-08
0.000112345
7.27483e-08
0.000112371
7.15562e-08
0.000112397
7.00547e-08
0.000112423
6.81764e-08
0.00011245
6.58462e-08
0.000112478
6.29864e-08
0.000112506
5.95195e-08
0.000112534
5.53746e-08
0.000112563
5.04927e-08
0.000112592
4.4833e-08
0.000112621
3.83778e-08
0.00011265
3.11376e-08
0.000112679
2.31545e-08
0.000112707
1.4486e-08
5.43563e-09
0.000112735
0.000115206
6.42013e-09
0.000115211
1.93928e-08
0.00011522
2.96666e-08
0.000115231
3.7266e-08
0.000115244
4.28718e-08
0.00011526
4.69513e-08
0.000115277
4.97815e-08
0.000115296
5.16242e-08
0.000115316
5.27108e-08
0.000115336
5.32355e-08
0.000115358
5.33525e-08
0.00011538
5.31776e-08
0.000115403
5.27915e-08
0.000115427
5.22446e-08
0.00011545
5.1562e-08
0.000115475
5.07477e-08
0.000115499
4.97884e-08
0.000115524
4.86564e-08
0.00011555
4.73125e-08
0.000115576
4.57081e-08
0.000115602
4.37875e-08
0.000115629
4.149e-08
0.000115656
3.87529e-08
0.000115683
3.55142e-08
0.000115711
3.17168e-08
0.000115739
2.73119e-08
0.000115767
2.22635e-08
0.000115796
1.65525e-08
0.000115824
1.01793e-08
0.000115852
3.16635e-09
0.000115879
-4.44004e-09
0.000115906
-1.2586e-08
-2.09982e-08
0.000115933
0.000118498
4.63744e-09
0.000118503
1.4231e-08
0.000118511
2.14144e-08
0.000118522
2.624e-08
0.000118536
2.93981e-08
0.000118551
3.13598e-08
0.000118569
3.23891e-08
0.000118587
3.27202e-08
0.000118608
3.25499e-08
0.000118629
3.20355e-08
0.000118651
3.12944e-08
0.000118674
3.04073e-08
0.000118697
2.9423e-08
0.000118721
2.83643e-08
0.000118745
2.72326e-08
0.00011877
2.60124e-08
0.000118795
2.46755e-08
0.000118821
2.31834e-08
0.000118846
2.14907e-08
0.000118873
1.95465e-08
0.000118899
1.72974e-08
0.000118926
1.46891e-08
0.000118953
1.16692e-08
0.00011898
8.18875e-09
0.000119008
4.2066e-09
0.000119035
-3.09571e-10
0.000119063
-5.37891e-09
0.000119091
-1.10065e-08
0.000119118
-1.71805e-08
0.000119145
-2.3873e-08
0.000119172
-3.10373e-08
0.000119198
-3.86257e-08
-4.63931e-08
0.000119223
0.000121883
2.8602e-09
0.000121888
9.07235e-09
0.000121897
1.31513e-08
0.000121908
1.51683e-08
0.000121921
1.58255e-08
0.000121937
1.56064e-08
0.000121955
1.47693e-08
0.000121974
1.35251e-08
0.000121994
1.20392e-08
0.000122016
1.04344e-08
0.000122038
8.79327e-09
0.000122062
7.1624e-09
0.000122085
5.55967e-09
0.00012211
3.9807e-09
0.000122135
2.40414e-09
0.00012216
7.9609e-10
0.000122185
-8.8618e-10
0.000122211
-2.69087e-09
0.000122237
-4.66976e-09
0.000122264
-6.87525e-09
0.000122291
-9.35937e-09
0.000122317
-1.2171e-08
0.000122344
-1.5355e-08
0.000122372
-1.89492e-08
0.000122399
-2.29841e-08
0.000122426
-2.74791e-08
0.000122453
-3.2443e-08
0.00012248
-3.78713e-08
0.000122506
-4.37467e-08
0.000122533
-5.0039e-08
0.000122558
-5.67049e-08
0.000122583
-6.37027e-08
-7.08144e-08
0.000122608
0.000125365
1.08569e-09
0.00012537
3.90699e-09
0.000125379
4.8526e-09
0.00012539
4.00479e-09
0.000125404
2.08712e-09
0.00012542
-3.89489e-10
0.000125438
-3.16451e-09
0.000125457
-6.04769e-09
0.000125478
-8.90313e-09
0.0001255
-1.16406e-08
0.000125523
-1.42122e-08
0.000125547
-1.66054e-08
0.000125571
-1.88333e-08
0.000125596
-2.09272e-08
0.000125622
-2.29309e-08
0.000125647
-2.48964e-08
0.000125673
-2.68803e-08
0.000125699
-2.8941e-08
0.000125726
-3.11356e-08
0.000125753
-3.35194e-08
0.000125779
-3.61433e-08
0.000125806
-3.90529e-08
0.000125833
-4.22867e-08
0.00012586
-4.5876e-08
0.000125887
-4.98424e-08
0.000125914
-5.41982e-08
0.00012594
-5.89445e-08
0.000125966
-6.40725e-08
0.000125992
-6.9562e-08
0.000126018
-7.53839e-08
0.000126042
-8.14986e-08
0.000126067
-8.78711e-08
-9.43069e-08
0.00012609
0.000128947
-6.83418e-10
0.000128952
-1.26082e-09
0.00012896
-3.49237e-09
0.000128972
-7.29103e-09
0.000128986
-1.18868e-08
0.000129002
-1.67169e-08
0.00012902
-2.15109e-08
0.00012904
-2.60992e-08
0.000129062
-3.03743e-08
0.000129084
-3.4278e-08
0.000129108
-3.77983e-08
0.000129132
-4.09583e-08
0.000129157
-4.38032e-08
0.000129183
-4.63917e-08
0.000129209
-4.87907e-08
0.000129235
-5.10704e-08
0.000129261
-5.33015e-08
0.000129288
-5.55521e-08
0.000129315
-5.7886e-08
0.000129342
-6.03612e-08
0.000129368
-6.3029e-08
0.000129395
-6.59329e-08
0.000129422
-6.91081e-08
0.000129449
-7.25808e-08
0.000129475
-7.6368e-08
0.000129502
-8.04769e-08
0.000129528
-8.49055e-08
0.000129553
-8.96424e-08
0.000129578
-9.46679e-08
0.000129603
-9.99552e-08
0.000129627
-1.0547e-07
0.00012965
-1.11184e-07
-1.16926e-07
0.000129673
0.000132631
-2.43451e-09
0.000132636
-6.4011e-09
0.000132644
-1.18709e-08
0.000132656
-1.87514e-08
0.00013267
-2.61717e-08
0.000132687
-3.34782e-08
0.000132706
-4.03859e-08
0.000132726
-4.67499e-08
0.000132748
-5.24917e-08
0.000132772
-5.75867e-08
0.000132796
-6.2062e-08
0.000132821
-6.59795e-08
0.000132847
-6.94187e-08
0.000132873
-7.2467e-08
0.000132899
-7.52153e-08
0.000132926
-7.77529e-08
0.000132953
-8.01652e-08
0.00013298
-8.25305e-08
0.000133007
-8.49199e-08
0.000133034
-8.7395e-08
0.000133061
-9.0009e-08
0.000133088
-9.28047e-08
0.000133114
-9.5816e-08
0.000133141
-9.90663e-08
0.000133167
-1.0257e-07
0.000133193
-1.06333e-07
0.000133218
-1.10352e-07
0.000133243
-1.14614e-07
0.000133268
-1.19103e-07
0.000133292
-1.23794e-07
0.000133315
-1.28658e-07
0.000133337
-1.3367e-07
-1.38679e-07
0.000133359
0.00013642
-4.13549e-09
0.000136425
-1.14354e-08
0.000136433
-2.02306e-08
0.000136445
-3.03977e-08
0.00013646
-4.08527e-08
0.000136477
-5.07962e-08
0.000136497
-5.99335e-08
0.000136518
-6.81508e-08
0.000136541
-7.53992e-08
0.000136565
-8.16935e-08
0.00013659
-8.71096e-08
0.000136616
-9.17552e-08
0.000136642
-9.57473e-08
0.000136669
-9.92044e-08
0.000136696
-1.02242e-07
0.000136723
-1.0497e-07
0.00013675
-1.07489e-07
0.000136778
-1.09888e-07
0.000136805
-1.12245e-07
0.000136832
-1.14627e-07
0.000136859
-1.1709e-07
0.000136886
-1.19677e-07
0.000136913
-1.22423e-07
0.000136939
-1.25351e-07
0.000136965
-1.28475e-07
0.000136991
-1.31799e-07
0.000137016
-1.35321e-07
0.00013704
-1.39032e-07
0.000137064
-1.42916e-07
0.000137087
-1.46954e-07
0.000137109
-1.51121e-07
0.000137131
-1.55403e-07
-1.59667e-07
0.000137152
0.000140317
-5.71369e-09
0.000140322
-1.61901e-08
0.00014033
-2.84541e-08
0.000140342
-4.22428e-08
0.000140357
-5.60292e-08
0.000140375
-6.88121e-08
0.000140396
-8.03259e-08
0.000140418
-9.04985e-08
0.000140442
-9.93038e-08
0.000140467
-1.06802e-07
0.000140493
-1.1313e-07
0.00014052
-1.18452e-07
0.000140547
-1.22929e-07
0.000140575
-1.26716e-07
0.000140602
-1.29957e-07
0.00014063
-1.32785e-07
0.000140658
-1.35316e-07
0.000140686
-1.3765e-07
0.000140713
-1.39875e-07
0.000140741
-1.42063e-07
0.000140768
-1.44272e-07
0.000140795
-1.4655e-07
0.000140821
-1.48931e-07
0.000140847
-1.51439e-07
0.000140873
-1.54089e-07
0.000140898
-1.56887e-07
0.000140923
-1.59832e-07
0.000140946
-1.62917e-07
0.00014097
-1.66129e-07
0.000140992
-1.69453e-07
0.000141014
-1.72867e-07
0.000141035
-1.76355e-07
-1.798e-07
0.000141055
0.000144326
-7.01039e-09
0.00014433
-2.02956e-08
0.000144338
-3.63059e-08
0.00014435
-5.43056e-08
0.000144366
-7.18634e-08
0.000144385
-8.77264e-08
0.000144406
-1.0175e-07
0.00014443
-1.13938e-07
0.000144455
-1.24305e-07
0.000144481
-1.32982e-07
0.000144508
-1.40182e-07
0.000144535
-1.46128e-07
0.000144564
-1.51027e-07
0.000144592
-1.55071e-07
0.00014462
-1.58435e-07
0.000144649
-1.61276e-07
0.000144677
-1.63725e-07
0.000144706
-1.65899e-07
0.000144734
-1.67892e-07
0.000144761
-1.69783e-07
0.000144789
-1.71637e-07
0.000144816
-1.73502e-07
0.000144842
-1.75418e-07
0.000144868
-1.77409e-07
0.000144893
-1.79492e-07
0.000144918
-1.81677e-07
0.000144942
-1.83965e-07
0.000144966
-1.86352e-07
0.000144988
-1.8883e-07
0.00014501
-1.91388e-07
0.000145032
-1.94014e-07
0.000145052
-1.96702e-07
-1.99356e-07
0.000145071
0.000148449
-7.66491e-09
0.000148451
-2.30242e-08
0.000148458
-4.33539e-08
0.000148471
-6.65054e-08
0.000148487
-8.85124e-08
0.000148507
-1.07955e-07
0.000148531
-1.24836e-07
0.000148556
-1.39168e-07
0.000148583
-1.51042e-07
0.00014861
-1.60747e-07
0.000148639
-1.68636e-07
0.000148668
-1.75017e-07
0.000148697
-1.80156e-07
0.000148726
-1.8429e-07
0.000148755
-1.87628e-07
0.000148784
-1.90345e-07
0.000148813
-1.92592e-07
0.000148842
-1.94492e-07
0.00014887
-1.96148e-07
0.000148898
-1.97645e-07
0.000148925
-1.99049e-07
0.000148952
-2.00415e-07
0.000148979
-2.0178e-07
0.000149004
-2.03174e-07
0.000149029
-2.04617e-07
0.000149054
-2.06119e-07
0.000149078
-2.07684e-07
0.000149101
-2.09312e-07
0.000149123
-2.10997e-07
0.000149144
-2.12729e-07
0.000149165
-2.14494e-07
0.000149184
-2.16278e-07
-2.17995e-07
0.000149203
0.000152688
-6.66365e-09
0.000152688
-2.29324e-08
0.000152694
-4.93669e-08
0.000152706
-7.89068e-08
0.000152723
-1.05537e-07
0.000152744
-1.28704e-07
0.000152768
-1.48782e-07
0.000152795
-1.65594e-07
0.000152823
-1.79217e-07
0.000152852
-1.90099e-07
0.000152882
-1.98735e-07
0.000152913
-2.05531e-07
0.000152943
-2.10834e-07
0.000152974
-2.14945e-07
0.000153005
-2.18121e-07
0.000153035
-2.2057e-07
0.000153065
-2.22464e-07
0.000153094
-2.23942e-07
0.000153123
-2.25119e-07
0.000153152
-2.26084e-07
0.000153179
-2.26912e-07
0.000153207
-2.27657e-07
0.000153233
-2.28362e-07
0.000153259
-2.29059e-07
0.000153284
-2.29768e-07
0.000153309
-2.30505e-07
0.000153332
-2.31276e-07
0.000153355
-2.32083e-07
0.000153377
-2.32928e-07
0.000153398
-2.33806e-07
0.000153418
-2.34717e-07
0.000153438
-2.35667e-07
-2.36585e-07
0.000153456
0.000157046
-1.53166e-09
0.000157039
-1.57239e-08
0.000157044
-5.39119e-08
0.000157059
-9.41225e-08
0.00015708
-1.26945e-07
0.000157106
-1.53919e-07
0.000157133
-1.76406e-07
0.000157162
-1.94595e-07
0.000157192
-2.08992e-07
0.000157222
-2.20348e-07
0.000157253
-2.29263e-07
0.000157283
-2.36186e-07
0.000157314
-2.41497e-07
0.000157345
-2.45523e-07
0.000157375
-2.48535e-07
0.000157405
-2.50748e-07
0.000157435
-2.5234e-07
0.000157465
-2.53453e-07
0.000157494
-2.54206e-07
0.000157522
-2.5469e-07
0.00015755
-2.54982e-07
0.000157578
-2.55141e-07
0.000157605
-2.55211e-07
0.000157631
-2.55227e-07
0.000157656
-2.55214e-07
0.000157681
-2.55189e-07
0.000157705
-2.55162e-07
0.000157728
-2.55138e-07
0.00015775
-2.55118e-07
0.000157771
-2.55097e-07
0.000157792
-2.55064e-07
0.000157811
-2.55006e-07
-2.54863e-07
0.000157829
0.000161526
1.08217e-08
0.000161506
4.30608e-09
0.000161499
-4.7068e-08
0.000161504
-9.92497e-08
0.00016152
-1.42909e-07
0.000161546
-1.79151e-07
0.000161577
-2.07768e-07
0.000161612
-2.29213e-07
0.000161648
-2.45126e-07
0.000161684
-2.57053e-07
0.000161721
-2.65985e-07
0.000161757
-2.72597e-07
0.000161793
-2.77427e-07
0.000161829
-2.80895e-07
0.000161864
-2.83317e-07
0.000161898
-2.84925e-07
0.000161931
-2.85902e-07
0.000161964
-2.86391e-07
0.000161997
-2.86503e-07
0.000162028
-2.86327e-07
0.000162059
-2.85934e-07
0.000162089
-2.85378e-07
0.000162119
-2.84702e-07
0.000162148
-2.83939e-07
0.000162175
-2.83114e-07
0.000162203
-2.82247e-07
0.000162229
-2.8135e-07
0.000162254
-2.80433e-07
0.000162278
-2.79504e-07
0.000162302
-2.78568e-07
0.000162324
-2.77634e-07
0.000162346
-2.76724e-07
-2.75773e-07
0.000162367
0.0001661
6.45135e-08
0.000166097
7.24205e-09
0.000166115
-6.49442e-08
0.000166132
-1.16291e-07
0.000166149
-1.59816e-07
0.000166169
-1.98877e-07
0.000166192
-2.30952e-07
0.000166218
-2.55796e-07
0.000166248
-2.74967e-07
0.000166281
-2.89813e-07
0.000166316
-3.01187e-07
0.000166353
-3.09757e-07
0.000166392
-3.16105e-07
0.000166432
-3.20697e-07
0.000166472
-3.23886e-07
0.000166513
-3.25949e-07
0.000166555
-3.2711e-07
0.000166596
-3.27547e-07
0.000166637
-3.27405e-07
0.000166677
-3.268e-07
0.000166717
-3.25826e-07
0.000166756
-3.24559e-07
0.000166794
-3.23061e-07
0.000166832
-3.2138e-07
0.000166868
-3.19557e-07
0.000166904
-3.17623e-07
0.000166938
-3.15602e-07
0.000166971
-3.13512e-07
0.000167003
-3.11366e-07