/*--------------------------------*- C++ -*----------------------------------*\
  =========                 |
  \\      /  F ield         | OpenFOAM: The Open Source CFD Toolbox
   \\    /   O peration     | Website:  https://openfoam.org
    \\  /    A nd           | Version:  10
     \\/     M anipulation  |
\*---------------------------------------------------------------------------*/
FoamFile
{
    format      ascii;
    class       volVectorField;
    location    "700";
    object      U;
}
// * * * * * * * * * * * * * * * * * * * * * * * * * * * * * * * * * * * * * //

dimensions      [0 1 -1 0 0 0 0];

internalField   nonuniform List<vector> 
6820
(
(7.31669 -0.3873 0)
(7.31533 -0.335148 0)
(7.28404 -0.20349 0)
(7.22604 -0.111078 0)
(7.16166 -0.0567488 0)
(7.10055 -0.0269858 0)
(7.04472 -0.011254 0)
(6.99434 -0.00305956 0)
(6.94917 0.00116188 0)
(6.90857 0.0032922 0)
(6.87181 0.00433189 0)
(6.83824 0.00481509 0)
(6.80734 0.00502353 0)
(6.77872 0.00510367 0)
(6.75204 0.00513089 0)
(6.72702 0.00514371 0)
(6.70343 0.00516164 0)
(6.68108 0.00519487 0)
(6.65977 0.00524963 0)
(6.63934 0.00533142 0)
(6.61962 0.00544708 0)
(6.60041 0.00560685 0)
(6.58152 0.0058264 0)
(6.56267 0.00613139 0)
(6.54353 0.00656508 0)
(6.52362 0.00717304 0)
(6.50216 0.00817956 0)
(6.47811 0.00955294 0)
(6.44976 0.011594 0)
(6.41298 0.0185246 0)
(6.35676 0.0153254 0)
(6.32235 -0.102555 0)
(6.32832 0.152365 0)
(7.33961 0.100788 0)
(7.35429 0.14995 0)
(7.35845 0.123283 0)
(7.35864 0.0898928 0)
(7.35922 0.0660831 0)
(7.35788 0.0501633 0)
(7.35252 0.0395845 0)
(7.34341 0.0326282 0)
(7.33171 0.0279908 0)
(7.31837 0.0247814 0)
(7.30403 0.022466 0)
(7.28915 0.0207305 0)
(7.27407 0.0193815 0)
(7.25899 0.0182977 0)
(7.24405 0.0174034 0)
(7.22934 0.0166523 0)
(7.21488 0.0160166 0)
(7.20071 0.0154803 0)
(7.18681 0.0150362 0)
(7.17318 0.0146845 0)
(7.15979 0.0144323 0)
(7.1466 0.014295 0)
(7.13355 0.0142995 0)
(7.1206 0.0144899 0)
(7.10766 0.0149378 0)
(7.09461 0.0157649 0)
(7.08143 0.0171628 0)
(7.06776 0.0195232 0)
(7.05397 0.0234865 0)
(7.03939 0.0302871 0)
(7.02842 0.0417989 0)
(6.9625 0.0432045 0)
(7.14577 0.141192 0)
(7.32714 0.00613479 0)
(7.32428 -0.0015522 0)
(7.33126 -0.00612069 0)
(7.33964 -0.000717307 0)
(7.34663 0.00710936 0)
(7.35192 0.0128326 0)
(7.35509 0.0163362 0)
(7.35619 0.0184251 0)
(7.35562 0.019601 0)
(7.35372 0.0201664 0)
(7.35076 0.0203488 0)
(7.34692 0.0203091 0)
(7.34239 0.0201485 0)
(7.33733 0.0199292 0)
(7.33184 0.0196908 0)
(7.32602 0.0194601 0)
(7.31993 0.0192562 0)
(7.31361 0.0190941 0)
(7.30711 0.018988 0)
(7.30042 0.0189535 0)
(7.29355 0.0190108 0)
(7.28648 0.0191871 0)
(7.27918 0.0195221 0)
(7.27159 0.0200738 0)
(7.26362 0.0209331 0)
(7.25516 0.022235 0)
(7.24606 0.0242287 0)
(7.23606 0.0272305 0)
(7.22505 0.0320354 0)
(7.21261 0.0395446 0)
(7.20084 0.0523693 0)
(7.16887 0.06202 0)
(7.196 0.137353 0)
(7.32977 -0.0039939 0)
(7.32628 0.00250158 0)
(7.33105 0.010746 0)
(7.33668 0.0168874 0)
(7.34128 0.0204393 0)
(7.34556 0.0219425 0)
(7.34932 0.0224181 0)
(7.35224 0.0225344 0)
(7.35435 0.0225107 0)
(7.35576 0.0224017 0)
(7.35651 0.0222445 0)
(7.35667 0.0220688 0)
(7.35629 0.021892 0)
(7.35545 0.0217241 0)
(7.3542 0.0215738 0)
(7.35259 0.02145 0)
(7.35065 0.0213627 0)
(7.34842 0.0213234 0)
(7.34591 0.0213464 0)
(7.34313 0.0214508 0)
(7.34008 0.0216619 0)
(7.33675 0.0220152 0)
(7.3331 0.022561 0)
(7.32911 0.0233721 0)
(7.32472 0.0245577 0)
(7.31984 0.0262793 0)
(7.31442 0.0288034 0)
(7.30835 0.0325036 0)
(7.30166 0.0380926 0)
(7.29444 0.0464525 0)
(7.28778 0.0595977 0)
(7.27851 0.0762318 0)
(7.28503 0.123021 0)
(7.33182 -0.00097798 0)
(7.32999 0.00677833 0)
(7.33255 0.0124051 0)
(7.33602 0.0151942 0)
(7.33929 0.0172085 0)
(7.34276 0.0186913 0)
(7.34618 0.019658 0)
(7.34917 0.020306 0)
(7.35173 0.0207551 0)
(7.35389 0.0210517 0)
(7.35569 0.0212366 0)
(7.35712 0.0213499 0)
(7.3582 0.021421 0)
(7.35896 0.0214705 0)
(7.35943 0.0215156 0)
(7.35962 0.0215719 0)
(7.35953 0.0216553 0)
(7.3592 0.0217823 0)
(7.35861 0.0219722 0)
(7.35778 0.0222491 0)
(7.35669 0.0226436 0)
(7.35534 0.0231972 0)
(7.35371 0.023967 0)
(7.35178 0.0250331 0)
(7.34951 0.0265117 0)
(7.3469 0.0285689 0)
(7.34393 0.0314589 0)
(7.34066 0.0355331 0)
(7.3373 0.0413636 0)
(7.33427 0.0496466 0)
(7.33264 0.0615662 0)
(7.33385 0.0774421 0)
(7.34503 0.103934 0)
(7.33247 0.000708081 0)
(7.33164 0.00640184 0)
(7.33343 0.0106698 0)
(7.33621 0.0133024 0)
(7.33897 0.0155741 0)
(7.34186 0.0173483 0)
(7.34477 0.0185074 0)
(7.34745 0.0192675 0)
(7.34988 0.0198029 0)
(7.35209 0.020185 0)
(7.35408 0.020459 0)
(7.35586 0.0206651 0)
(7.35741 0.0208326 0)
(7.35875 0.0209818 0)
(7.35989 0.0211296 0)
(7.36082 0.0212918 0)
(7.36156 0.0214846 0)
(7.36209 0.0217256 0)
(7.36243 0.0220357 0)
(7.36257 0.0224409 0)
(7.3625 0.0229744 0)
(7.36222 0.0236802 0)
(7.36171 0.0246176 0)
(7.36098 0.0258678 0)
(7.36001 0.0275436 0)
(7.35884 0.0298002 0)
(7.35753 0.0328577 0)
(7.35623 0.0370044 0)
(7.35522 0.0426454 0)
(7.35511 0.0502215 0)
(7.35694 0.0602695 0)
(7.36276 0.072827 0)
(7.37557 0.0882193 0)
(7.33271 0.00113687 0)
(7.3324 0.00558002 0)
(7.33393 0.00956803 0)
(7.33641 0.0123586 0)
(7.3389 0.014587 0)
(7.34143 0.0162802 0)
(7.34398 0.0174226 0)
(7.34641 0.0182048 0)
(7.34866 0.0187807 0)
(7.35076 0.0192154 0)
(7.35272 0.0195492 0)
(7.35453 0.0198186 0)
(7.35619 0.0200521 0)
(7.35771 0.02027 0)
(7.35908 0.0204894 0)
(7.36031 0.0207265 0)
(7.3614 0.0209982 0)
(7.36234 0.021323 0)
(7.36312 0.0217229 0)
(7.36376 0.0222248 0)
(7.36423 0.0228627 0)
(7.36455 0.0236808 0)
(7.36471 0.0247369 0)
(7.36472 0.0261076 0)
(7.3646 0.0278944 0)
(7.36442 0.0302299 0)
(7.36427 0.033287 0)
(7.36435 0.0372733 0)
(7.365 0.0424332 0)
(7.3668 0.0489695 0)
(7.37064 0.056973 0)
(7.37811 0.0660476 0)
(7.39018 0.0748634 0)
(7.33286 0.00130438 0)
(7.33286 0.00514192 0)
(7.33421 0.00882442 0)
(7.3364 0.0115144 0)
(7.33869 0.0135896 0)
(7.34101 0.0152005 0)
(7.34335 0.0163547 0)
(7.34561 0.0171772 0)
(7.34773 0.0177934 0)
(7.34972 0.0182686 0)
(7.35161 0.0186439 0)
(7.35338 0.0189554 0)
(7.35504 0.0192317 0)
(7.35659 0.0194941 0)
(7.35804 0.0197605 0)
(7.35938 0.0200479 0)
(7.36061 0.0203736 0)
(7.36173 0.0207569 0)
(7.36274 0.0212197 0)
(7.36363 0.0217891 0)
(7.36442 0.0224984 0)
(7.3651 0.0233894 0)
(7.36568 0.0245157 0)
(7.36618 0.0259446 0)
(7.36665 0.0277611 0)
(7.36717 0.0300689 0)
(7.36786 0.03299 0)
(7.36893 0.0366516 0)
(7.3707 0.0411648 0)
(7.37366 0.0465522 0)
(7.37848 0.0526474 0)
(7.38616 0.0588519 0)
(7.39668 0.0637439 0)
(7.33295 0.00137647 0)
(7.33314 0.004794 0)
(7.33434 0.00810513 0)
(7.33627 0.0106409 0)
(7.33838 0.01261 0)
(7.34054 0.0141698 0)
(7.34273 0.015333 0)
(7.34486 0.0161842 0)
(7.34688 0.0168297 0)
(7.34881 0.0173351 0)
(7.35063 0.0177418 0)
(7.35236 0.0180847 0)
(7.354 0.0183923 0)
(7.35555 0.0186866 0)
(7.35702 0.0189863 0)
(7.3584 0.0193087 0)
(7.35969 0.0196718 0)
(7.36091 0.0200948 0)
(7.36204 0.0205995 0)
(7.36309 0.021212 0)
(7.36407 0.0219634 0)
(7.36498 0.0228919 0)
(7.36585 0.024044 0)
(7.36671 0.0254756 0)
(7.36762 0.0272526 0)
(7.36865 0.0294479 0)
(7.36994 0.0321362 0)
(7.37169 0.0353759 0)
(7.37417 0.0391809 0)
(7.37776 0.0434609 0)
(7.3829 0.0479381 0)
(7.39015 0.0520085 0)
(7.39905 0.0545723 0)
(7.333 0.00137426 0)
(7.33329 0.0044555 0)
(7.33437 0.00743058 0)
(7.33608 0.00981374 0)
(7.33802 0.0116906 0)
(7.34003 0.0131915 0)
(7.34209 0.0143427 0)
(7.34411 0.0152073 0)
(7.34606 0.0158734 0)
(7.34793 0.0164026 0)
(7.34971 0.0168349 0)
(7.35141 0.0172034 0)
(7.35303 0.0175361 0)
(7.35458 0.0178553 0)
(7.35605 0.0181799 0)
(7.35746 0.0185277 0)
(7.35879 0.0189166 0)
(7.36007 0.0193654 0)
(7.36128 0.0198953 0)
(7.36244 0.0205305 0)
(7.36356 0.0212992 0)
(7.36465 0.0222344 0)
(7.36574 0.0233745 0)
(7.36687 0.0247626 0)
(7.3681 0.0264451 0)
(7.36952 0.0284669 0)
(7.37124 0.0308624 0)
(7.37344 0.0336383 0)
(7.37635 0.0367467 0)
(7.3802 0.0400418 0)
(7.38528 0.0432266 0)
(7.39185 0.0457881 0)
(7.39931 0.0469758 0)
(7.33302 0.00132555 0)
(7.33337 0.00412982 0)
(7.33435 0.00681593 0)
(7.33587 0.00904004 0)
(7.33765 0.0108186 0)
(7.33953 0.0122523 0)
(7.34146 0.0133774 0)
(7.34338 0.0142436 0)
(7.34526 0.0149217 0)
(7.34707 0.0154673 0)
(7.34882 0.0159188 0)
(7.3505 0.0163074 0)
(7.35211 0.0166599 0)
(7.35365 0.0169984 0)
(7.35514 0.0173417 0)
(7.35656 0.0177074 0)
(7.35793 0.0181129 0)
(7.35926 0.0185765 0)
(7.36054 0.0191178 0)
(7.36179 0.0197587 0)
(7.36303 0.0205235 0)
(7.36426 0.0214395 0)
(7.36553 0.0225364 0)
(7.36688 0.0238447 0)
(7.36836 0.025393 0)
(7.37006 0.0272024 0)
(7.37209 0.0292767 0)
(7.37457 0.0315882 0)
(7.37768 0.0340561 0)
(7.38158 0.0365196 0)
(7.3864 0.038711 0)
(7.39224 0.0402344 0)
(7.39852 0.0406142 0)
(7.33303 0.00125244 0)
(7.3334 0.00381785 0)
(7.33429 0.00625144 0)
(7.33567 0.00831255 0)
(7.3373 0.00998763 0)
(7.33904 0.01135 0)
(7.34086 0.0124388 0)
(7.34269 0.0132949 0)
(7.34449 0.0139752 0)
(7.34625 0.014529 0)
(7.34796 0.0149925 0)
(7.34962 0.0153949 0)
(7.35122 0.0157614 0)
(7.35276 0.0161134 0)
(7.35426 0.0164693 0)
(7.35571 0.0168459 0)
(7.35712 0.0172601 0)
(7.35849 0.0177285 0)
(7.35984 0.0182692 0)
(7.36117 0.0189009 0)
(7.36251 0.0196439 0)
(7.36387 0.0205195 0)
(7.36529 0.0215487 0)
(7.36681 0.0227507 0)
(7.36849 0.0241389 0)
(7.3704 0.025716 0)
(7.37262 0.0274651 0)
(7.37527 0.0293385 0)
(7.37844 0.0312441 0)
(7.38224 0.03303 0)
(7.38672 0.0344765 0)
(7.39189 0.0352968 0)
(7.39721 0.0352068 0)
(7.33304 0.00116771 0)
(7.3334 0.0035181 0)
(7.33422 0.00572775 0)
(7.33547 0.00762757 0)
(7.33696 0.00919566 0)
(7.33859 0.0104829 0)
(7.3403 0.0115264 0)
(7.34204 0.0123616 0)
(7.34377 0.0130345 0)
(7.34548 0.0135883 0)
(7.34716 0.0140562 0)
(7.34879 0.0144656 0)
(7.35038 0.01484 0)
(7.35192 0.0151994 0)
(7.35343 0.0155613 0)
(7.3549 0.015942 0)
(7.35635 0.0163566 0)
(7.35777 0.0168206 0)
(7.35917 0.0173495 0)
(7.36058 0.017959 0)
(7.36201 0.0186651 0)
(7.36348 0.0194831 0)
(7.36503 0.0204263 0)
(7.36669 0.0215042 0)
(7.36852 0.0227185 0)
(7.37057 0.0240586 0)
(7.37291 0.0254953 0)
(7.37562 0.0269726 0)
(7.37877 0.0284002 0)
(7.3824 0.0296472 0)
(7.38651 0.0305442 0)
(7.39108 0.0308919 0)
(7.39566 0.0305319 0)
(7.33304 0.00107848 0)
(7.33339 0.00323008 0)
(7.33415 0.00523825 0)
(7.33529 0.0069814 0)
(7.33666 0.00843971 0)
(7.33818 0.00964787 0)
(7.33979 0.0106388 0)
(7.34144 0.0114436 0)
(7.34311 0.0121002 0)
(7.34477 0.0126458 0)
(7.34641 0.0131108 0)
(7.34801 0.0135203 0)
(7.34959 0.0138958 0)
(7.35114 0.014256 0)
(7.35266 0.0146174 0)
(7.35415 0.0149948 0)
(7.35562 0.0154021 0)
(7.35709 0.0158527 0)
(7.35855 0.0163596 0)
(7.36002 0.0169355 0)
(7.36153 0.0175921 0)
(7.3631 0.0183393 0)
(7.36475 0.019184 0)
(7.36651 0.0201276 0)
(7.36845 0.0211634 0)
(7.37059 0.0222728 0)
(7.37299 0.0234206 0)
(7.3757 0.0245503 0)
(7.37877 0.0255809 0)
(7.38219 0.0264063 0)
(7.38595 0.0269013 0)
(7.39001 0.0269324 0)
(7.394 0.0264193 0)
(7.33304 0.000988679 0)
(7.33337 0.00295363 0)
(7.33408 0.00477758 0)
(7.33512 0.00636964 0)
(7.33639 0.0077163 0)
(7.33781 0.00884176 0)
(7.33933 0.00977383 0)
(7.34091 0.0105401 0)
(7.34251 0.0111721 0)
(7.34412 0.0117019 0)
(7.34572 0.0121566 0)
(7.3473 0.0125591 0)
(7.34887 0.012929 0)
(7.35041 0.0132836 0)
(7.35194 0.0136377 0)
(7.35345 0.0140047 0)
(7.35495 0.0143969 0)
(7.35645 0.0148257 0)
(7.35796 0.0153017 0)
(7.3595 0.0158342 0)
(7.36107 0.0164313 0)
(7.36271 0.0170983 0)
(7.36444 0.0178365 0)
(7.36629 0.0186419 0)
(7.36829 0.0195021 0)
(7.37048 0.0203944 0)
(7.37289 0.0212821 0)
(7.37556 0.0221134 0)
(7.3785 0.0228196 0)
(7.38171 0.0233185 0)
(7.38515 0.0235206 0)
(7.38878 0.023339 0)
(7.39229 0.0227407 0)
(7.33304 0.000900355 0)
(7.33335 0.00268836 0)
(7.334 0.00434127 0)
(7.33497 0.00578788 0)
(7.33615 0.00702193 0)
(7.33748 0.00806142 0)
(7.33892 0.00892928 0)
(7.34042 0.00964974 0)
(7.34197 0.0102496 0)
(7.34353 0.0107562 0)
(7.34509 0.0111936 0)
(7.34665 0.0115823 0)
(7.34821 0.01194 0)
(7.34975 0.0122823 0)
(7.35128 0.0126224 0)
(7.3528 0.0129722 0)
(7.35433 0.0133421 0)
(7.35586 0.0137416 0)
(7.35741 0.0141788 0)
(7.359 0.0146601 0)
(7.36062 0.0151903 0)
(7.36232 0.0157708 0)
(7.36411 0.0163991 0)
(7.366 0.0170672 0)
(7.36804 0.0177599 0)
(7.37025 0.0184528 0)
(7.37264 0.0191115 0)
(7.37523 0.0196906 0)
(7.37804 0.0201347 0)
(7.38104 0.020382 0)
(7.38419 0.0203706 0)
(7.38746 0.020045 0)
(7.39059 0.0194003 0)
(7.33303 0.000814446 0)
(7.33333 0.00243361 0)
(7.33394 0.0039256 0)
(7.33483 0.00523193 0)
(7.33594 0.00635306 0)
(7.33719 0.0073037 0)
(7.33855 0.00810262 0)
(7.33999 0.00877099 0)
(7.34148 0.00933174 0)
(7.343 0.00980816 0)
(7.34453 0.0102214 0)
(7.34607 0.0105897 0)
(7.34761 0.0109288 0)
(7.34914 0.0112524 0)
(7.35068 0.0115722 0)
(7.35221 0.0118983 0)
(7.35376 0.0122395 0)
(7.35532 0.0126031 0)
(7.3569 0.0129949 0)
(7.35852 0.013419 0)
(7.36019 0.0138773 0)
(7.36193 0.0143682 0)
(7.36375 0.0148867 0)
(7.36567 0.0154222 0)
(7.36772 0.0159585 0)
(7.36991 0.0164721 0)
(7.37226 0.0169321 0)
(7.37476 0.0173006 0)
(7.37742 0.0175344 0)
(7.38022 0.0175882 0)
(7.38312 0.0174204 0)
(7.38609 0.0169965 0)
(7.38891 0.0163269 0)
(7.33303 0.000731255 0)
(7.33331 0.00218844 0)
(7.33388 0.00352735 0)
(7.33471 0.0046979 0)
(7.33575 0.00570619 0)
(7.33693 0.00656548 0)
(7.33823 0.00729124 0)
(7.33961 0.00790188 0)
(7.34105 0.00841713 0)
(7.34253 0.00885692 0)
(7.34403 0.00923962 0)
(7.34554 0.00958122 0)
(7.34706 0.00989554 0)
(7.3486 0.0101944 0)
(7.35013 0.0104879 0)
(7.35168 0.0107845 0)
(7.35324 0.0110911 0)
(7.35482 0.0114131 0)
(7.35642 0.0117546 0)
(7.35807 0.0121173 0)
(7.35977 0.0125008 0)
(7.36153 0.0129017 0)
(7.36337 0.013313 0)
(7.3653 0.0137233 0)
(7.36734 0.0141166 0)
(7.3695 0.0144713 0)
(7.37178 0.014761 0)
(7.37418 0.0149551 0)
(7.3767 0.0150207 0)
(7.37931 0.0149256 0)
(7.38198 0.0146424 0)
(7.38469 0.0141504 0)
(7.38727 0.0134679 0)
(7.33303 0.000650733 0)
(7.33329 0.00195179 0)
(7.33383 0.00314371 0)
(7.33461 0.0041822 0)
(7.33559 0.0050779 0)
(7.33671 0.00584364 0)
(7.33795 0.00649245 0)
(7.33928 0.0070403 0)
(7.34067 0.00750427 0)
(7.34211 0.0079014 0)
(7.34358 0.00824751 0)
(7.34507 0.00855646 0)
(7.34658 0.00884016 0)
(7.3481 0.00910868 0)
(7.34964 0.00937042 0)
(7.35119 0.00963217 0)
(7.35276 0.00989925 0)
(7.35435 0.0101754 0)
(7.35598 0.0104627 0)
(7.35764 0.0107614 0)
(7.35935 0.0110694 0)
(7.36112 0.0113818 0)
(7.36297 0.0116908 0)
(7.36489 0.0119851 0)
(7.3669 0.0122494 0)
(7.36901 0.0124651 0)
(7.37122 0.0126102 0)
(7.37351 0.0126607 0)
(7.37589 0.0125922 0)
(7.37833 0.0123821 0)
(7.3808 0.0120131 0)
(7.3833 0.0114731 0)
(7.38566 0.0107841 0)
(7.33303 0.000572643 0)
(7.33327 0.00172245 0)
(7.33378 0.00277213 0)
(7.33452 0.00368153 0)
(7.33545 0.00446486 0)
(7.33652 0.0051351 0)
(7.33771 0.00570351 0)
(7.33899 0.00618403 0)
(7.34034 0.00659144 0)
(7.34174 0.00694034 0)
(7.34318 0.00724426 0)
(7.34466 0.00751504 0)
(7.34615 0.00776275 0)
(7.34767 0.00799576 0)
(7.3492 0.00822086 0)
(7.35075 0.00844329 0)
(7.35232 0.00866681 0)
(7.35392 0.00889368 0)
(7.35556 0.00912452 0)
(7.35723 0.00935815 0)
(7.35894 0.00959132 0)
(7.36072 0.00981849 0)
(7.36255 0.0100316 0)
(7.36445 0.0102197 0)
(7.36642 0.0103693 0)
(7.36847 0.0104646 0)
(7.37059 0.0104879 0)
(7.37278 0.0104206 0)
(7.37503 0.0102451 0)
(7.37731 0.0099461 0)
(7.37961 0.00951279 0)
(7.38191 0.00893855 0)
(7.38409 0.00824653 0)
(7.33303 0.000496658 0)
(7.33326 0.00149921 0)
(7.33374 0.00241029 0)
(7.33444 0.00319285 0)
(7.33532 0.00386387 0)
(7.33635 0.0044368 0)
(7.33749 0.00492166 0)
(7.33873 0.00533069 0)
(7.34005 0.00567675 0)
(7.34142 0.00597234 0)
(7.34284 0.00622893 0)
(7.34429 0.00645647 0)
(7.34577 0.00666332 0)
(7.34727 0.00685623 0)
(7.3488 0.00704045 0)
(7.35035 0.00721979 0)
(7.35193 0.00739663 0)
(7.35353 0.0075719 0)
(7.35516 0.00774504 0)
(7.35683 0.00791387 0)
(7.35854 0.00807441 0)
(7.3603 0.00822078 0)
(7.36212 0.0083451 0)
(7.36398 0.00843747 0)
(7.36591 0.0084862 0)
(7.36789 0.00847814 0)
(7.36993 0.00839933 0)
(7.37201 0.00823592 0)
(7.37413 0.00797527 0)
(7.37627 0.00760719 0)
(7.37841 0.00712543 0)
(7.38055 0.00652664 0)
(7.38257 0.00583356 0)
(7.33302 0.000422413 0)
(7.33325 0.00128085 0)
(7.3337 0.00205602 0)
(7.33438 0.00271329 0)
(7.33522 0.00327186 0)
(7.33621 0.0037457 0)
(7.33731 0.00414406 0)
(7.33852 0.00447781 0)
(7.3398 0.00475816 0)
(7.34114 0.00499581 0)
(7.34254 0.0052004 0)
(7.34397 0.00538016 0)
(7.34544 0.00554182 0)
(7.34693 0.00569064 0)
(7.34845 0.00583044 0)
(7.35 0.00596371 0)
(7.35157 0.00609161 0)
(7.35317 0.00621397 0)
(7.35479 0.0063293 0)
(7.35645 0.00643468 0)
(7.35815 0.00652576 0)
(7.35989 0.00659664 0)
(7.36167 0.00663995 0)
(7.3635 0.00664694 0)
(7.36537 0.00660771 0)
(7.36729 0.00651162 0)
(7.36924 0.00634789 0)
(7.37122 0.00610628 0)
(7.37322 0.00577798 0)
(7.37523 0.00535641 0)
(7.37723 0.00483822 0)
(7.37922 0.00422198 0)
(7.3811 0.0035293 0)
(7.33302 0.000349537 0)
(7.33324 0.00106619 0)
(7.33368 0.00170729 0)
(7.33432 0.00224021 0)
(7.33513 0.00268585 0)
(7.33608 0.0030588 0)
(7.33716 0.00336783 0)
(7.33833 0.00362277 0)
(7.33958 0.00383344 0)
(7.3409 0.00400897 0)
(7.34228 0.00415738 0)
(7.34369 0.00428534 0)
(7.34515 0.00439808 0)
(7.34663 0.00449946 0)
(7.34814 0.00459201 0)
(7.34968 0.00467702 0)
(7.35124 0.00475458 0)
(7.35283 0.00482364 0)
(7.35445 0.00488196 0)
(7.3561 0.00492617 0)
(7.35777 0.00495173 0)
(7.35949 0.00495299 0)
(7.36123 0.00492323 0)
(7.36301 0.00485486 0)
(7.36483 0.00473968 0)
(7.36667 0.00456925 0)
(7.36853 0.00433534 0)
(7.37042 0.00403054 0)
(7.37231 0.00364883 0)
(7.37419 0.00318611 0)
(7.37607 0.00264085 0)
(7.37792 0.00201273 0)
(7.37968 0.00132183 0)
(7.33302 0.000277678 0)
(7.33323 0.000854127 0)
(7.33365 0.00136226 0)
(7.33427 0.00177111 0)
(7.33506 0.00210294 0)
(7.33598 0.00237305 0)
(7.33703 0.00259 0)
(7.33817 0.0027628 0)
(7.3394 0.00290014 0)
(7.3407 0.0030098 0)
(7.34206 0.00309836 0)
(7.34346 0.00317105 0)
(7.3449 0.00323174 0)
(7.34637 0.00328299 0)
(7.34787 0.00332617 0)
(7.3494 0.00336149 0)
(7.35095 0.00338815 0)
(7.35253 0.00340433 0)
(7.35413 0.00340727 0)
(7.35576 0.00339329 0)
(7.35741 0.00335788 0)
(7.35909 0.00329571 0)
(7.3608 0.00320079 0)
(7.36253 0.00306666 0)
(7.36428 0.0028866 0)
(7.36605 0.002654 0)
(7.36783 0.00236269 0)
(7.36962 0.00200736 0)
(7.37141 0.00158401 0)
(7.37318 0.00109021 0)
(7.37494 0.000525547 0)
(7.37667 -0.000109737 0)
(7.37832 -0.000797235 0)
(7.33302 0.000206516 0)
(7.33322 0.000643671 0)
(7.33363 0.00101921 0)
(7.33423 0.00130361 0)
(7.33499 0.00152031 0)
(7.3359 0.00168536 0)
(7.33692 0.00180741 0)
(7.33804 0.00189491 0)
(7.33926 0.00195556 0)
(7.34054 0.001996 0)
(7.34188 0.00202151 0)
(7.34326 0.00203602 0)
(7.34469 0.00204215 0)
(7.34615 0.00204127 0)
(7.34764 0.00203367 0)
(7.34916 0.00201864 0)
(7.3507 0.00199456 0)
(7.35226 0.00195902 0)
(7.35384 0.00190886 0)
(7.35545 0.00184024 0)
(7.35707 0.00174875 0)
(7.35871 0.00162945 0)
(7.36038 0.00147708 0)
(7.36205 0.00128617 0)
(7.36374 0.00105129 0)
(7.36544 0.000767284 0)
(7.36714 0.000429576 0)
(7.36884 3.44367e-05 0)
(7.37053 -0.00042074 0)
(7.3722 -0.000937279 0)
(7.37385 -0.00151492 0)
(7.37548 -0.00215318 0)
(7.37702 -0.00283534 0)
(7.33302 0.000135793 0)
(7.33321 0.000433985 0)
(7.33361 0.000676646 0)
(7.3342 0.000835517 0)
(7.33494 0.000935115 0)
(7.33582 0.000992534 0)
(7.33683 0.00101673 0)
(7.33794 0.00101578 0)
(7.33914 0.000996631 0)
(7.34041 0.000964859 0)
(7.34173 0.000924615 0)
(7.34311 0.00087862 0)
(7.34453 0.000828302 0)
(7.34598 0.000773956 0)
(7.34745 0.000714888 0)
(7.34896 0.000649549 0)
(7.35048 0.00057565 0)
(7.35203 0.000490275 0)
(7.35359 0.000389959 0)
(7.35516 0.000270791 0)
(7.35676 0.000128501 0)
(7.35836 -4.14262e-05 0)
(7.35998 -0.000243628 0)
(7.3616 -0.000482704 0)
(7.36323 -0.000763043 0)
(7.36485 -0.00108863 0)
(7.36648 -0.00146286 0)
(7.36809 -0.00188831 0)
(7.36969 -0.00236665 0)
(7.37127 -0.00289848 0)
(7.37282 -0.00348322 0)
(7.37434 -0.00412033 0)
(7.37579 -0.00479472 0)
(7.33302 6.53433e-05 0)
(7.33321 0.00022449 0)
(7.33359 0.000333334 0)
(7.33416 0.000364759 0)
(7.3349 0.000344523 0)
(7.33577 0.000291163 0)
(7.33676 0.000214267 0)
(7.33786 0.000121718 0)
(7.33905 1.97857e-05 0)
(7.34031 -8.68302e-05 0)
(7.34162 -0.000195052 0)
(7.34299 -0.000303314 0)
(7.3444 -0.000411324 0)
(7.34584 -0.000519831 0)
(7.34731 -0.000630445 0)
(7.3488 -0.000745486 0)
(7.35031 -0.000867844 0)
(7.35183 -0.00100086 0)
(7.35337 -0.00114823 0)
(7.35492 -0.00131388 0)
(7.35648 -0.00150192 0)
(7.35804 -0.00171648 0)
(7.35961 -0.00196164 0)
(7.36118 -0.00224127 0)
(7.36274 -0.00255895 0)
(7.36431 -0.00291775 0)
(7.36585 -0.00332019 0)
(7.36739 -0.00376805 0)
(7.3689 -0.00426236 0)
(7.37039 -0.0048033 0)
(7.37185 -0.00539013 0)
(7.37328 -0.00602235 0)
(7.37463 -0.00668635 0)
(7.33302 -4.82912e-06 0)
(7.3332 1.50271e-05 0)
(7.33358 -1.15189e-05 0)
(7.33414 -0.000110528 0)
(7.33486 -0.000254422 0)
(7.33572 -0.000422476 0)
(7.33671 -0.000604116 0)
(7.3378 -0.000791578 0)
(7.33898 -0.000979165 0)
(7.34024 -0.00116299 0)
(7.34155 -0.00134098 0)
(7.34291 -0.00151268 0)
(7.34432 -0.00167887 0)
(7.34575 -0.00184127 0)
(7.34721 -0.00200236 0)
(7.34868 -0.00216519 0)
(7.35018 -0.00233323 0)
(7.35168 -0.00251021 0)
(7.35319 -0.00270004 0)
(7.35471 -0.0029067 0)
(7.35624 -0.00313415 0)
(7.35776 -0.00338622 0)
(7.35928 -0.00366654 0)
(7.3608 -0.00397844 0)
(7.36231 -0.00432485 0)
(7.3638 -0.00470821 0)
(7.36528 -0.00513039 0)
(7.36674 -0.00559265 0)
(7.36817 -0.00609559 0)
(7.36958 -0.00663917 0)
(7.37095 -0.00722264 0)
(7.37229 -0.00784561 0)
(7.37356 -0.00849597 0)
(7.33302 -7.44203e-05 0)
(7.33319 -0.000193818 0)
(7.33356 -0.000358011 0)
(7.3341 -0.000591937 0)
(7.33482 -0.000864837 0)
(7.33568 -0.0011526 0)
(7.33666 -0.0014433 0)
(7.33776 -0.00172919 0)
(7.33894 -0.0020051 0)
(7.3402 -0.00226803 0)
(7.34151 -0.00251714 0)
(7.34287 -0.00275328 0)
(7.34427 -0.0029784 0)
(7.3457 -0.00319521 0)
(7.34715 -0.00340699 0)
(7.34862 -0.00361742 0)
(7.35009 -0.00383043 0)
(7.35158 -0.00405004 0)
(7.35307 -0.00428031 0)
(7.35456 -0.00452519 0)
(7.35605 -0.00478849 0)
(7.35753 -0.00507379 0)
(7.35901 -0.00538434 0)
(7.36047 -0.00572303 0)
(7.36192 -0.00609234 0)
(7.36336 -0.00649421 0)
(7.36477 -0.00693012 0)
(7.36616 -0.00740096 0)
(7.36752 -0.00790709 0)
(7.36885 -0.00844837 0)
(7.37014 -0.00902407 0)
(7.3714 -0.00963386 0)
(7.37259 -0.0102669 0)
(7.33302 -0.000142546 0)
(7.33318 -0.000400091 0)
(7.33353 -0.000705101 0)
(7.33406 -0.00108073 0)
(7.33477 -0.00149005 0)
(7.33563 -0.0019039 0)
(7.33662 -0.00230903 0)
(7.33773 -0.00269781 0)
(7.33892 -0.00306507 0)
(7.34018 -0.00340822 0)
(7.34151 -0.00372749 0)
(7.34287 -0.00402512 0)
(7.34427 -0.00430446 0)
(7.3457 -0.00456952 0)
(7.34714 -0.00482471 0)
(7.34859 -0.00507464 0)
(7.35006 -0.00532392 0)
(7.35152 -0.00557704 0)
(7.35299 -0.00583833 0)
(7.35445 -0.00611184 0)
(7.35591 -0.00640133 0)
(7.35735 -0.00671018 0)
(7.35879 -0.0070414 0)
(7.3602 -0.00739755 0)
(7.3616 -0.00778072 0)
(7.36298 -0.00819255 0)
(7.36433 -0.00863416 0)
(7.36565 -0.00910623 0)
(7.36694 -0.00960898 0)
(7.3682 -0.0101422 0)
(7.36942 -0.0107053 0)
(7.3706 -0.0112982 0)
(7.37172 -0.0119114 0)
(7.33302 -0.000207162 0)
(7.33317 -0.00059916 0)
(7.33349 -0.00104971 0)
(7.33401 -0.00157805 0)
(7.33471 -0.00213461 0)
(7.33558 -0.00268203 0)
(7.33659 -0.00320655 0)
(7.3377 -0.00370243 0)
(7.33891 -0.00416615 0)
(7.3402 -0.00459657 0)
(7.34153 -0.00499519 0)
(7.34291 -0.00536516 0)
(7.34432 -0.00571041 0)
(7.34575 -0.00603542 0)
(7.34719 -0.00634506 0)
(7.34863 -0.0066443 0)
(7.35009 -0.00693806 0)
(7.35153 -0.00723111 0)
(7.35298 -0.00752792 0)
(7.35441 -0.00783265 0)
(7.35584 -0.0081491 0)
(7.35725 -0.00848062 0)
(7.35864 -0.00883013 0)
(7.36001 -0.00920008 0)
(7.36135 -0.00959244 0)
(7.36267 -0.0100087 0)
(7.36396 -0.01045 0)
(7.36522 -0.0109168 0)
(7.36645 -0.0114094 0)
(7.36764 -0.0119277 0)
(7.36879 -0.0124711 0)
(7.3699 -0.0130395 0)
(7.37095 -0.0136243 0)
(7.33301 -0.000263831 0)
(7.33313 -0.000781465 0)
(7.33342 -0.00138475 0)
(7.33391 -0.00208294 0)
(7.33461 -0.00280465 0)
(7.3355 -0.00350053 0)
(7.33653 -0.00415227 0)
(7.33767 -0.00475119 0)
(7.33891 -0.00529377 0)
(7.34021 -0.00578281 0)
(7.34156 -0.00622517 0)
(7.34295 -0.0066286 0)
(7.34437 -0.00700052 0)
(7.3458 -0.00734797 0)
(7.34724 -0.00767757 0)
(7.34869 -0.00799543 0)
(7.35013 -0.00830706 0)
(7.35156 -0.0086174 0)
(7.35299 -0.00893088 0)
(7.3544 -0.00925144 0)
(7.3558 -0.00958251 0)
(7.35717 -0.00992705 0)
(7.35853 -0.0102876 0)
(7.35986 -0.010666 0)
(7.36116 -0.0110641 0)
(7.36243 -0.011483 0)
(7.36367 -0.0119233 0)
(7.36487 -0.0123857 0)
(7.36604 -0.0128701 0)
(7.36717 -0.0133764 0)
(7.36826 -0.0139044 0)
(7.36931 -0.0144542 0)
(7.3703 -0.0150186 0)
(7.33301 -0.000302104 0)
(7.33307 -0.000929064 0)
(7.33328 -0.0017027 0)
(7.33373 -0.00259133 0)
(7.33444 -0.00348753 0)
(7.33536 -0.00434968 0)
(7.33644 -0.00517383 0)
(7.33764 -0.00594901 0)
(7.33892 -0.00666181 0)
(7.34027 -0.00730769 0)
(7.34166 -0.00788986 0)
(7.34308 -0.00841449 0)
(7.34451 -0.00888883 0)
(7.34595 -0.00932082 0)
(7.34739 -0.00971861 0)
(7.34883 -0.01009 0)
(7.35025 -0.0104424 0)
(7.35167 -0.0107821 0)
(7.35307 -0.0111153 0)
(7.35445 -0.0114469 0)
(7.35581 -0.0117815 0)
(7.35715 -0.0121229 0)
(7.35846 -0.0124741 0)
(7.35975 -0.0128377 0)
(7.361 -0.0132158 0)
(7.36222 -0.0136098 0)
(7.36341 -0.0140208 0)
(7.36456 -0.0144494 0)
(7.36567 -0.014896 0)
(7.36674 -0.0153605 0)
(7.36777 -0.0158427 0)
(7.36875 -0.0163423 0)
(7.36967 -0.0168527 0)
(7.33299 -0.000295772 0)
(7.33294 -0.000992989 0)
(7.33302 -0.00199938 0)
(7.33343 -0.00316085 0)
(7.33414 -0.00423702 0)
(7.33507 -0.00515732 0)
(7.33615 -0.00594819 0)
(7.33736 -0.00663904 0)
(7.33867 -0.00725036 0)
(7.34006 -0.00780037 0)
(7.34149 -0.00830409 0)
(7.34294 -0.00877229 0)
(7.34441 -0.00921283 0)
(7.34588 -0.00963204 0)
(7.34735 -0.0100352 0)
(7.34881 -0.0104267 0)
(7.35025 -0.0108104 0)
(7.35167 -0.0111898 0)
(7.35307 -0.0115679 0)
(7.35444 -0.0119475 0)
(7.35579 -0.0123312 0)
(7.35711 -0.012721 0)
(7.3584 -0.0131189 0)
(7.35965 -0.0135263 0)
(7.36088 -0.0139446 0)
(7.36206 -0.0143745 0)
(7.36321 -0.0148169 0)
(7.36432 -0.015272 0)
(7.36539 -0.0157402 0)
(7.36642 -0.0162214 0)
(7.36741 -0.0167158 0)
(7.36836 -0.0172237 0)
(7.36925 -0.0177401 0)
(7.33295 -0.000200624 0)
(7.33262 -0.000863645 0)
(7.33243 -0.0020912 0)
(7.33281 -0.00369992 0)
(7.33371 -0.00543282 0)
(7.33486 -0.0071299 0)
(7.33611 -0.00867497 0)
(7.33743 -0.0100025 0)
(7.3388 -0.0111086 0)
(7.34021 -0.0120207 0)
(7.34162 -0.0127707 0)
(7.34305 -0.0133874 0)
(7.34448 -0.0138976 0)
(7.34591 -0.0143252 0)
(7.34733 -0.0146907 0)
(7.34874 -0.0150106 0)
(7.35014 -0.0152983 0)
(7.35152 -0.0155649 0)
(7.35289 -0.0158189 0)
(7.35423 -0.0160675 0)
(7.35555 -0.0163161 0)
(7.35684 -0.0165691 0)
(7.35811 -0.0168298 0)
(7.35934 -0.0171008 0)
(7.36054 -0.0173839 0)
(7.36171 -0.0176804 0)
(7.36284 -0.0179912 0)
(7.36393 -0.0183168 0)
(7.36499 -0.0186573 0)
(7.366 -0.0190124 0)
(7.36697 -0.0193819 0)
(7.36789 -0.0197653 0)
(7.36875 -0.0201574 0)
(7.33289 0.00012985 0)
(7.33208 -0.000838379 0)
(7.33127 -0.00211455 0)
(7.33113 -0.00277126 0)
(7.33165 -0.00304781 0)
(7.33262 -0.00339641 0)
(7.33392 -0.00392523 0)
(7.33544 -0.00456953 0)
(7.33707 -0.00528038 0)
(7.33873 -0.00603707 0)
(7.3404 -0.00681989 0)
(7.34206 -0.00760822 0)
(7.3437 -0.00838674 0)
(7.34531 -0.00914626 0)
(7.3469 -0.00988164 0)
(7.34846 -0.0105904 0)
(7.35 -0.0112719 0)
(7.3515 -0.0119273 0)
(7.35298 -0.0125584 0)
(7.35443 -0.0131675 0)
(7.35584 -0.0137572 0)
(7.35723 -0.0143303 0)
(7.35858 -0.0148892 0)
(7.3599 -0.0154364 0)
(7.36118 -0.0159739 0)
(7.36243 -0.0165038 0)
(7.36363 -0.0170275 0)
(7.3648 -0.0175465 0)
(7.36592 -0.018062 0)
(7.367 -0.018575 0)
(7.36805 -0.0190861 0)
(7.36905 -0.0195965 0)
(7.37 -0.0201027 0)
(7.33241 0.00208028 0)
(7.33047 -0.000539124 0)
(7.33033 -0.00721998 0)
(7.33145 -0.0136395 0)
(7.33246 -0.0183289 0)
(7.33322 -0.0214841 0)
(7.33408 -0.0235204 0)
(7.33517 -0.0247412 0)
(7.33643 -0.0253829 0)
(7.33781 -0.0256337 0)
(7.33931 -0.0256325 0)
(7.34091 -0.0254765 0)
(7.34258 -0.0252332 0)
(7.34431 -0.0249482 0)
(7.34609 -0.0246522 0)
(7.34789 -0.0243647 0)
(7.3497 -0.0240985 0)
(7.35151 -0.0238612 0)
(7.35332 -0.0236573 0)
(7.35512 -0.0234889 0)
(7.35689 -0.0233568 0)
(7.35863 -0.0232607 0)
(7.36034 -0.0231998 0)
(7.36201 -0.0231728 0)
(7.36364 -0.0231782 0)
(7.36522 -0.0232143 0)
(7.36675 -0.0232795 0)
(7.36824 -0.0233721 0)
(7.36967 -0.0234903 0)
(7.37104 -0.0236324 0)
(7.37236 -0.023797 0)
(7.37362 -0.0239832 0)
(7.3748 -0.0241861 0)
(7.32878 0.00628919 0)
(7.31726 0.0179909 0)
(7.31244 0.0252201 0)
(7.314 0.0272778 0)
(7.31787 0.025966 0)
(7.32207 0.0231465 0)
(7.32632 0.019778 0)
(7.33057 0.0162194 0)
(7.33474 0.0126547 0)
(7.33878 0.00922332 0)
(7.34269 0.00601088 0)
(7.34645 0.00304991 0)
(7.3501 0.000343166 0)
(7.35361 -0.00211887 0)
(7.35701 -0.00435147 0)
(7.36029 -0.00637334 0)
(7.36346 -0.00820453 0)
(7.36652 -0.00986488 0)
(7.36948 -0.011373 0)
(7.37232 -0.0127462 0)
(7.37507 -0.014 0)
(7.3777 -0.0151484 0)
(7.38024 -0.016204 0)
(7.38267 -0.0171776 0)
(7.38501 -0.0180791 0)
(7.38724 -0.0189171 0)
(7.38938 -0.0196989 0)
(7.39142 -0.0204313 0)
(7.39336 -0.0211197 0)
(7.39522 -0.021769 0)
(7.39698 -0.0223831 0)
(7.39866 -0.0229653 0)
(7.40024 -0.0235149 0)
(7.33378 -0.0332907 0)
(7.33301 -0.0722736 0)
(7.32815 -0.0856253 0)
(7.3266 -0.0870509 0)
(7.33018 -0.0846569 0)
(7.33744 -0.0806916 0)
(7.34644 -0.0758536 0)
(7.35598 -0.070797 0)
(7.3655 -0.0659777 0)
(7.37477 -0.0615678 0)
(7.38361 -0.0575958 0)
(7.39194 -0.0540524 0)
(7.3997 -0.0509155 0)
(7.4069 -0.0481522 0)
(7.41355 -0.045724 0)
(7.41968 -0.0435928 0)
(7.42532 -0.0417237 0)
(7.43049 -0.0400854 0)
(7.43522 -0.0386499 0)
(7.43954 -0.0373929 0)
(7.44349 -0.0362928 0)
(7.44708 -0.0353311 0)
(7.45033 -0.0344916 0)
(7.45328 -0.0337603 0)
(7.45594 -0.0331251 0)
(7.45832 -0.0325755 0)
(7.46045 -0.0321023 0)
(7.46235 -0.0316975 0)
(7.46402 -0.0313544 0)
(7.46549 -0.031067 0)
(7.46676 -0.0308304 0)
(7.46786 -0.0306416 0)
(7.46878 -0.030493 0)
(7.33141 0.164999 0)
(7.34787 0.185196 0)
(7.36038 0.152174 0)
(7.35688 0.118088 0)
(7.34283 0.0898604 0)
(7.32407 0.0674523 0)
(7.30273 0.0499424 0)
(7.27964 0.0362017 0)
(7.25557 0.0252572 0)