/*--------------------------------*- C++ -*----------------------------------*\
  =========                 |
  \\      /  F ield         | OpenFOAM: The Open Source CFD Toolbox
   \\    /   O peration     | Website:  https://openfoam.org
    \\  /    A nd           | Version:  10
     \\/     M anipulation  |
\*---------------------------------------------------------------------------*/
FoamFile
{
    format      ascii;
    class       volScalarField;
    location    "700";
    object      yPlus;
}
// * * * * * * * * * * * * * * * * * * * * * * * * * * * * * * * * * * * * * //

dimensions      [0 0 0 0 0 0 0];

internalField   uniform 0;

boundaryField
{
    outlet
    {
        type            calculated;
        value           uniform 0;
    }
    inlet
    {
        type            calculated;
        value           uniform 0;
    }
    lowerWall
    {
        type            calculated;
        value           nonuniform List<scalar> 
148
(
9.9937
9.87583
9.76655
9.65577
9.54325
9.43224
9.32599
9.22673
9.13583
9.05372
8.98051
8.91591
8.85942
8.81048
8.76849
8.73286
8.70296
8.67827
8.65825
8.64247
8.63042
8.62172
8.61605
8.61305
8.6124
8.61396
8.61708
8.62331
8.62733
8.63558
8.76991
8.12053
3.6083
5.5439
8.18339
9.73502
10.7006
11.2465
11.3628
11.0676
11.8536
11.3346
11.788
11.8701
11.7589
10.394
16.8025
37.0179
5.5439
12.3554
12.8674
13.0726
13.0498
12.8462
12.5805
12.3257
12.1659
12.1733
12.6369
14.6918
18.7367
23.0079
26.9689
30.5846
33.8873
36.9175
39.7116
42.3002
44.7074
46.953
49.0528
51.0204
52.8674
54.6039
56.2395
57.7825
59.2415
60.6241
61.9384
63.1922
64.3933
65.549
66.6657
67.7487
68.8028
69.833
70.8462
71.842
72.8103
73.7514
74.6581
75.5211
76.3285
77.0669
77.7218
78.2781
78.721
79.0372
79.2161
79.2509
79.1403
78.8895
78.5102
78.0217
77.449
76.8216
76.1714
75.5297
74.9254
74.3824
73.9174
73.5391
73.2486
73.0397
72.8965
72.7966
72.7176
72.6389
72.5401
72.4067
72.2773
72.3201
72.4376
72.5021
72.4701
72.3256
72.065
71.6925
71.2179
70.6552
70.0202
69.3297
68.6
67.8458
67.0805
66.3149
65.5579
64.8161
64.0943
63.3957
62.722
62.0741
61.4522
60.8557
60.2853
59.7394
59.2527
58.606
)
;
    }
    upperWall
    {
        type            calculated;
        value           nonuniform List<scalar> 
133
(
30.6045
31.4255
32.2162
32.9719
33.6929
34.3806
35.0365
35.6619
36.2579
36.8255
37.3658
37.8799
38.3689
38.8337
39.2753
39.6948
40.0931
40.4711
40.8298
41.1701
41.4928
41.7988
42.089
42.3639
42.6245
42.8715
43.1055
43.3273
43.5374
43.7364
43.9249
44.1035
44.2728
44.459
44.6626
44.8595
45.0494
45.2322
45.4076
45.5757
45.7362
45.8891
46.0342
46.1715
46.3009
46.4222
46.5353
46.6403
46.7368
46.825
46.9045
46.9755
47.0377
47.091
47.1353
47.1705
47.1965
47.213
47.2201
47.2174
47.205
47.1825
47.1498
47.1068
47.0532
46.9889
46.9136
46.8272
46.7294
46.62
46.4988
46.3656
46.2201
46.0621
45.8916
45.7083
45.5121
45.303
45.0812
44.8465
44.5995
44.3403
44.0696
43.7881
43.4965
43.1959
42.8876
42.5729
42.2532
41.9303
41.6057
41.2813
40.9589
40.6403
40.3274
40.0218
39.7254
39.4397
39.1663
38.9067
38.6623
38.4342
38.2237
38.0316
37.8585
37.7048
37.5704
37.4548
37.3571
37.2759
37.2093
37.155
37.1104
37.0728
37.0393
37.0072
36.9738
36.937
36.8949
36.846
36.7892
36.7242
36.6506
36.5685
36.4782
36.3803
36.2753
36.1641
36.0467
35.926
35.7946
35.684
35.4698
)
;
    }
    frontAndBack
    {
        type            empty;
    }
}


// ************************************************************************* //
