/*--------------------------------*- C++ -*----------------------------------*\
  =========                 |
  \\      /  F ield         | OpenFOAM: The Open Source CFD Toolbox
   \\    /   O peration     | Website:  https://openfoam.org
    \\  /    A nd           | Version:  10
     \\/     M anipulation  |
\*---------------------------------------------------------------------------*/
FoamFile
{
    format      ascii;
    class       volScalarField;
    location    "0.035";
    object      epsilon;
}
// * * * * * * * * * * * * * * * * * * * * * * * * * * * * * * * * * * * * * //

dimensions      [0 2 -3 0 0 0 0];

internalField   nonuniform List<scalar> 
6820
(
23.2969
22.5752
21.9094
21.2855
20.7022
20.1636
19.6739
19.2348
18.8457
18.5044
18.2076
17.9516
17.7324
17.5461
17.3893
17.2585
17.1508
17.0633
16.9937
16.9396
16.8991
16.8705
16.8521
16.8425
16.8406
16.8452
16.8549
16.8719
16.881
16.949
16.7604
17.789
13.1326
5.03382
6.81797
7.83854
8.46613
8.8955
9.2272
9.51487
9.78475
10.0487
10.3116
10.5751
10.8394
11.1042
11.3688
11.6324
11.8945
12.1542
12.4109
12.6639
12.9128
13.1571
13.3965
13.6307
13.8597
14.0837
14.3033
14.5196
14.7342
14.9505
15.1809
15.4009
15.8114
15.801
3.7036
4.14724
4.56524
4.91404
5.19745
5.4302
5.6263
5.7969
5.9504
6.09284
6.22845
6.36006
6.48955
6.61805
6.74624
6.87446
7.00285
7.13139
7.25998
7.38845
7.51665
7.64439
7.77151
7.89791
8.02355
8.1485
8.27294
8.39753
8.52243
8.65116
8.77973
8.92491
9.06146
3.54008
3.61091
3.72467
3.85361
3.98097
4.09906
4.2056
4.301
4.38672
4.46452
4.53611
4.60294
4.66626
4.72702
4.78597
4.84368
4.90056
4.95689
5.01289
5.06869
5.12437
5.17998
5.23556
5.29113
5.34674
5.40246
5.4584
5.51483
5.57199
5.63072
5.69129
5.75581
5.82518
3.52064
3.50152
3.50498
3.52611
3.55863
3.5971
3.63758
3.67766
3.71604
3.75219
3.78598
3.81757
3.8472
3.87517
3.90176
3.92724
3.95185
3.97579
3.99921
4.02225
4.04502
4.06759
4.09006
4.11247
4.13489
4.15739
4.18006
4.20304
4.2265
4.25074
4.27606
4.30311
4.33238
3.5194
3.48246
3.45302
3.43231
3.41994
3.41448
3.41417
3.41739
3.42287
3.42964
3.43707
3.44473
3.45237
3.45985
3.46711
3.47412
3.48092
3.48751
3.49396
3.50028
3.50653
3.51273
3.51893
3.52516
3.53146
3.53786
3.54443
3.55124
3.55838
3.56601
3.57431
3.58356
3.5941
3.51943
3.47974
3.44283
3.4095
3.38027
3.35526
3.33423
3.31671
3.30213
3.28995
3.27967
3.27088
3.26326
3.25655
3.25056
3.24513
3.24018
3.23561
3.23137
3.22743
3.22376
3.22033
3.21715
3.2142
3.21148
3.209
3.20679
3.20487
3.2033
3.20214
3.2015
3.20155
3.20249
3.51947
3.47943
3.44108
3.40467
3.37043
3.33856
3.30913
3.28213
3.25745
3.2349
3.2143
3.19541
3.17803
3.16198
3.14708
3.13319
3.1202
3.10799
3.09648
3.08559
3.07527
3.06547
3.05615
3.04728
3.03882
3.03078
3.02313
3.01588
3.00906
3.00269
2.99684
2.9916
2.98711
3.51948
3.47941
3.44085
3.40383
3.36837
3.33452
3.30231
3.27178
3.24292
3.21569
3.19003
3.16587
3.14311
3.12165
3.1014
3.08226
3.06415
3.04697
3.03066
3.01515
3.00037
2.98628
2.97282
2.95996
2.94766
2.9359
2.92465
2.91391
2.90367
2.89396
2.88481
2.87627
2.86845
3.51948
3.4794
3.44081
3.40368
3.36797
3.33365
3.30069
3.26907
3.23878
3.20979
3.18208
3.1556
3.13033
3.10621
3.08318
3.0612
3.04021
3.02016
3.00098
2.98265
2.9651
2.94829
2.93219
2.91676
2.90195
2.88776
2.87415
2.86111
2.84864
2.83675
2.82545
2.81481
2.80487
3.51948
3.4794
3.4408
3.40366
3.3679
3.33347
3.30033
3.26843
3.23772
3.20817
3.17975
3.15243
3.12616
3.10092
3.07667
3.05336
3.03098
3.00947
2.98881
2.96896
2.94987
2.93153
2.9139
2.89694
2.88064
2.86497
2.84991
2.83546
2.8216
2.80835
2.79572
2.78375
2.77248
3.51948
3.4794
3.4408
3.40364
3.36787
3.33342
3.30024
3.26827
3.23745
3.20775
3.17912
3.15152
3.12492
3.09927
3.07455
3.05073
3.02776
3.00562
2.98428
2.96371
2.94388
2.92478
2.90636
2.88861
2.87151
2.85503
2.83918
2.82393
2.80929
2.79526
2.78186
2.76911
2.75706
3.51947
3.47939
3.44079
3.40363
3.36786
3.3334
3.3002
3.26821
3.23737
3.20763
3.17894
3.15126
3.12455
3.09878
3.0739
3.04989
3.0267
3.00432
2.98272
2.96185
2.94171
2.92227
2.9035
2.88538
2.8679
2.85105
2.8348
2.81916
2.80412
2.78969
2.77588
2.76273
2.75025
3.51947
3.47939
3.44079
3.40363
3.36784
3.33338
3.30018
3.26818
3.23732
3.20757
3.17886
3.15116
3.12442
3.09861
3.07368
3.0496
3.02635
3.00388
2.98218
2.96121
2.94094
2.92137
2.90246
2.88419
2.86656
2.84954
2.83312
2.81731
2.80209
2.78747
2.77347
2.76011
2.7474
3.51947
3.47939
3.44078
3.40362
3.36783
3.33337
3.30016
3.26815
3.23729
3.20752
3.17881
3.15109
3.12434
3.09851
3.07357
3.04947
3.02619
3.00369
2.98195
2.96094
2.94064
2.92101
2.90205
2.88373
2.86604
2.84895
2.83247
2.81658
2.80129
2.78659
2.7725
2.75903
2.7462
3.51947
3.47939
3.44078
3.40361
3.36782
3.33335
3.30014
3.26812
3.23726
3.20748
3.17876
3.15104
3.12428
3.09844
3.07348
3.04937
3.02608
3.00357
2.98182
2.96079
2.94047
2.92082
2.90184
2.88349
2.86577
2.84866
2.83215
2.81624
2.80091
2.78617
2.77203
2.7585
2.74558
3.51947
3.47939
3.44078
3.40361
3.36782
3.33334
3.30012
3.2681
3.23723
3.20745
3.17872
3.15099
3.12422
3.09837
3.07341
3.04929
3.02599
3.00347
2.9817
2.96066
2.94033
2.92067
2.90167
2.88332
2.86558
2.84845
2.83193
2.81599
2.80064
2.78587
2.77169
2.75811
2.74513
3.51947
3.47939
3.44078
3.4036
3.36781
3.33333
3.30011
3.26808
3.2372
3.20742
3.17868
3.15095
3.12417
3.09831
3.07334
3.04921
3.0259
3.00337
2.98159
2.96054
2.9402
2.92053
2.90152
2.88315
2.8654
2.84826
2.83171
2.81576
2.80038
2.78558
2.77137
2.75773
2.74468
3.51947
3.47939
3.44077
3.4036
3.3678
3.33332
3.3001
3.26807
3.23718
3.20739
3.17865
3.1509
3.12412
3.09826
3.07327
3.04914
3.02581
3.00327
2.98149
2.96042
2.94007
2.92039
2.90136
2.88298
2.86521
2.84805
2.83149
2.81551
2.80011
2.78528
2.77102
2.75733
2.74421
3.51947
3.47938
3.44077
3.4036
3.3678
3.33332
3.30008
3.26805
3.23716
3.20737
3.17861
3.15086
3.12407
3.0982
3.07321
3.04906
3.02573
3.00318
2.98138
2.96031
2.93993
2.92024
2.9012
2.8828
2.86502
2.84784
2.83125
2.81525
2.79981
2.78495
2.77064
2.7569
2.74371
3.51947
3.47938
3.44077
3.4036
3.3678
3.33331
3.30007
3.26804
3.23714
3.20734
3.17858
3.15083
3.12403
3.09815
3.07315
3.04899
3.02565
3.00308
2.98127
2.96019
2.9398
2.92009
2.90104
2.88262
2.86481
2.84761
2.831
2.81497
2.7995
2.78459
2.77024
2.75643
2.74318
3.51947
3.47938
3.44077
3.4036
3.36779
3.3333
3.30007
3.26803
3.23713
3.20732
3.17856
3.15079
3.12399
3.0981
3.07309
3.04892
3.02557
3.00299
2.98117
2.96007
2.93967
2.91994
2.90087
2.88243
2.86461
2.84738
2.83074
2.81467
2.79917
2.78422
2.76981
2.75595
2.74262
3.51947
3.47938
3.44077
3.40359
3.36779
3.3333
3.30006
3.26801
3.23711
3.2073
3.17853
3.15076
3.12395
3.09805
3.07303
3.04885
3.02549
3.0029
2.98107
2.95995
2.93953
2.91979
2.9007
2.88224
2.86439
2.84714
2.83047
2.81437
2.79883
2.78383
2.76937
2.75545
2.74205
3.51947
3.47938
3.44077
3.40359
3.36779
3.3333
3.30005
3.26801
3.2371
3.20728
3.17851
3.15073
3.12391
3.098
3.07298
3.04879
3.02541
3.00281
2.98096
2.95983
2.9394
2.91964
2.90053
2.88204
2.86417
2.84689
2.83019
2.81406
2.79848
2.78343
2.76892
2.75494
2.74147
3.51947
3.47938
3.44077
3.40359
3.36779
3.33329
3.30005
3.268
3.23709
3.20727
3.17849
3.1507
3.12387
3.09796
3.07292
3.04873
3.02534
3.00273
2.98086
2.95972
2.93927
2.91949
2.90035
2.88185
2.86395
2.84664
2.82991
2.81374
2.79812
2.78303
2.76847
2.75442
2.74088
3.51947
3.47939
3.44077
3.40359
3.36779
3.33329
3.30004
3.26799
3.23708
3.20725
3.17847
3.15068
3.12384
3.09792
3.07287
3.04867
3.02527
3.00264
2.98076
2.9596
2.93914
2.91934
2.90018
2.88165
2.86373
2.8464
2.82963
2.81343
2.79776
2.78263
2.76802
2.75391
2.74031
3.51947
3.47939
3.44077
3.40359
3.36779
3.33329
3.30004
3.26798
3.23707
3.20724
3.17845
3.15065
3.12381
3.09788
3.07282
3.04861
3.02519
3.00256
2.98066
2.95949
2.939
2.91918
2.90001
2.88146
2.86351
2.84615
2.82935
2.81311
2.79741
2.78223
2.76757
2.75341
2.73974
3.51947
3.47939
3.44077
3.40359
3.36779
3.33329
3.30004
3.26798
3.23706
3.20722
3.17843
3.15063
3.12378
3.09784
3.07278
3.04855
3.02513
3.00248
2.98057
2.95938
2.93888
2.91904
2.89985
2.88127
2.8633
2.84591
2.82908
2.81281
2.79707
2.78185
2.76714
2.75293
2.7392
3.51947
3.47939
3.44077
3.40359
3.36779
3.33328
3.30003
3.26797
3.23705
3.20721
3.17841
3.1506
3.12375
3.0978
3.07273
3.04849
3.02506
3.0024
2.98048
2.95927
2.93875
2.9189
2.89968
2.88108
2.86309
2.84567
2.82881
2.8125
2.79673
2.78147
2.76672
2.75246
2.73868
3.51947
3.47939
3.44077
3.40359
3.36778
3.33328
3.30003
3.26797
3.23705
3.20721
3.1784
3.15059
3.12373
3.09778
3.0727
3.04845
3.02501
3.00234
2.9804
2.95918
2.93865
2.91877
2.89954
2.88092
2.8629
2.84546
2.82857
2.81224
2.79643
2.78113
2.76634
2.75203
2.7382
3.51947
3.47939
3.44078
3.4036
3.36779
3.33329
3.30003
3.26797
3.23704
3.20719
3.17839
3.15057
3.1237
3.09774
3.07266
3.0484
3.02495
3.00226
2.98032
2.95909
2.93854
2.91865
2.8994
2.88076
2.86272
2.84526
2.82835
2.81198
2.79615
2.78082
2.76599
2.75165
2.73778
3.51947
3.47939
3.44077
3.4036
3.36779
3.3333
3.30005
3.26799
3.23707
3.20723
3.17842
3.1506
3.12373
3.09777
3.07268
3.04842
3.02496
3.00226
2.98031
2.95907
2.93851
2.91861
2.89934
2.8807
2.86264
2.84516
2.82824
2.81186
2.796
2.78065
2.7658
2.75143
2.73754
3.51948
3.4794
3.4408
3.40364
3.36784
3.33334
3.30009
3.26802
3.23709
3.20725
3.17844
3.15062
3.12375
3.09779
3.0727
3.04845
3.025
3.00231
2.98037
2.95914
2.9386
2.91871
2.89947
2.88084
2.8628
2.84534
2.82845
2.81209
2.79626
2.78094
2.76611
2.75177
2.7379
3.51947
3.47939
3.44079
3.40364
3.36788
3.33342
3.30021
3.26819
3.23729
3.20749
3.17872
3.15094
3.12412
3.09821
3.07319
3.049
3.02563
3.00305
2.98121
2.9601
2.93968
2.91994
2.90084
2.88237
2.86451
2.84723
2.83052
2.81436
2.79873
2.78362
2.76901
2.75488
2.74123
3.51949
3.47948
3.44097
3.40388
3.36815
3.33373
3.30058
3.26865
3.2379
3.20828
3.17976
3.15228
3.12581
3.10031
3.07574
3.05206
3.02925
3.00726
2.98606
2.96563
2.94593
2.92693
2.90861
2.89093
2.87389
2.85744
2.84157
2.82625
2.81148
2.79722
2.78346
2.77018
2.75737
3.5195
3.47952
3.44116
3.40445
3.3693
3.33567
3.30351
3.27277
3.24342
3.21543
3.18873
3.16328
3.13903
3.11591
3.09387
3.07284
3.05278
3.03363
3.01533
2.99783
2.98109
2.96506
2.94969
2.93495
2.92079
2.90718
2.89409
2.88149
2.86935
2.85763
2.84632
2.83539
2.82482
3.51969
3.48126
3.44565
3.41284
3.38284
3.35562
3.33105
3.30894
3.2891
3.2713
3.25532
3.24096
3.22802
3.21633
3.20572
3.19606
3.18721
3.17906
3.17149
3.16442
3.15777
3.15146
3.14543
3.13961
3.13397
3.12845
3.12302
3.11764
3.11228
3.10691
3.10152
3.09608
3.09059
3.52528
3.51352
3.51567
3.52856
3.54933
3.57596
3.60682
3.64064
3.67648
3.71361
3.75145
3.78955
3.82757
3.86524
3.90235
3.93876
3.97434
4.00902
4.04276
4.07553
4.10733
4.13816
4.16804
4.19703
4.22516
4.25249
4.27909
4.30502
4.33037
4.35522
4.37966
4.40378
4.42767
3.83319
4.36549
4.84996
5.31724
5.78101
6.23667
6.68004
7.10945
7.52473
7.92649
8.31572
8.69356
9.06117
9.41962
9.76994
10.113
10.4498
10.7809
11.1072
11.4293
11.7478
12.0632
12.3762
12.6872
12.9966
13.3049
13.6125
13.9197
14.227
14.5345
14.8425
15.1514
15.461
30.2663
32.7713
35.3128
37.8653
40.415
42.953
45.4709
47.9611
50.4166
52.8309
55.1984
57.514
59.7735
61.973
64.1097
66.181
68.1849
70.12
71.9853
73.7801
75.5041
77.1574
78.7402
80.2531
81.6967
83.072
84.38
85.6219
86.7989
87.9123
88.9636
89.954
90.8865
86.1795
259.438
497.308
731.757
886.951
931.331
889.203
805.439
715.029
635.278
570.716
519.806
478.314
442.066
407.46
371.366
331.124
284.817
231.967
174.561
117.758
69.001
34.6633
16.1433
9.09624
7.44061
7.52805
8.04768
8.61673
9.11136
9.48068
9.70825
9.80191
9.78457
9.68553
9.53417
9.3561
9.1708
8.99083
8.82251
8.6682
8.5291
8.40717
8.30471
8.22181
8.153
8.08519
7.99833
7.86868
7.67365
7.39663
7.03082
6.58122
6.0646
5.5072
4.94065
4.39659
3.90137
3.47224
3.11601
2.83026
2.60643
2.4332
2.29935
2.19532
2.11378
2.04936
1.99823
1.95763
1.92546
1.90008
1.88018
1.86467
1.85268
1.84347
1.83647
1.8312
1.82726
1.82437
1.82226
1.82076
1.8197
1.81898
1.81849
1.81818
1.81798
1.81786
1.81779
1.81775
1.81772
1.81769
1.81765
1.81761
1.81755
1.81748
1.81739
1.81729
1.81717
1.81707
1.81682
17.9914
27.7806
53.9674
107.873
191.216
289.614
380.724
447.137
482.455
489.713
476.892
449.25
412.34
370.395
325.474
278.156
228.676
177.978
128.433
83.8787
48.572
25.1746
12.9772
8.23001
6.93735
6.86946
7.19675
7.64194
8.09106
8.47956
8.76979
8.94779
9.01872
8.99982
8.91384
8.7842
8.63181
8.47298
8.31831
8.17301
8.03865
7.91591
7.80666
7.71398
7.63983
7.58152
7.5291
7.46524
7.36795
7.21503
6.98896
6.68077
6.29236
5.83681
5.33664
4.82024
4.3171
3.85282
3.44525
3.10286
2.82534
2.60609
2.43538
2.30298
2.19986
2.11891
2.05485
2.00389
1.96326
1.93091
1.90523
1.88495
1.86903
1.8566
1.84696
1.83953
1.83386
1.82956
1.82633
1.82393
1.82215
1.82085
1.81992
1.81924
1.81876
1.81842
1.81818
1.818
1.81786
1.81774
1.81764
1.81754
1.81744
1.81734
1.81722
1.8171
1.81697
1.81682
1.8167
1.81643
9.20697
9.42944
9.49806
10.9379
17.2514
32.0174
56.4283
87.5699
119.514
146.253
163.372
171.125
169.272
158.304
139.793
116.071
89.8973
64.2326
41.9251
25.1278
14.5687
9.22293
7.0571
6.36431
6.28089
6.47461
6.80387
7.18431
7.55423
7.86918
8.10262
8.24519
8.30132
8.28439
8.21211
8.10313
7.97455
7.84008
7.70879
7.58493
7.46941
7.36226
7.26493
7.1808
7.11325
7.0621
7.02054
6.97424
6.90337
6.78656
6.60571
6.34995
6.0182
5.61995
5.17399
4.70546
4.24158
3.80706
3.42025
3.09111
2.82133
2.60629
2.43778
2.30656
2.20417
2.12371
2.05997
2.00917
1.96854
1.93605
1.91012
1.8895
1.87319
1.86033
1.85027
1.84242
1.83635
1.83167
1.82808
1.82536
1.82329
1.82173
1.82056
1.81968
1.81902
1.81852
1.81813
1.81783
1.81758
1.81737
1.81718
1.81701
1.81685
1.81669
1.81652
1.81636
1.81619
1.81602
1.81586
1.81556
5.91104
6.0249
6.03292
5.69633
5.04596
4.88304
6.19459
9.3815
14.2872
20.0889
25.6123
29.7502
31.8146
31.4691
28.8316
24.4951
19.3991
14.5628
10.75
8.2244
6.78423
6.05234
5.74003
5.69476
5.83007
6.08178
6.39626
6.7273
7.03637
7.29471
7.48502
7.60156
7.6482
7.63528
7.57654
7.48677
7.37995
7.26766
7.1577
7.05364
6.95581
6.86356
6.77771
6.70154
6.63933
6.593
6.55867
6.52511
6.47492
6.38801
6.24613
6.03686
5.75653
5.4112
5.01606
4.593
4.16689
3.76134
3.39496
3.07897
2.81692
2.60606
2.43968
2.30959
2.20787
2.12786
2.06445
2.01383
1.97327
1.94071
1.9146
1.89372
1.87707
1.86385
1.85339
1.84515
1.83869
1.83364
1.82971
1.82666
1.8243
1.82248
1.82106
1.81997
1.81911
1.81844
1.8179
1.81746
1.81709
1.81678
1.8165
1.81625
1.81602
1.81579
1.81558
1.81537
1.81516
1.81495
1.81477
1.81443
4.37011
4.42565
4.49604
4.54347
4.47521
4.24994
3.99792
3.94639
4.29942
5.15541
6.33606
7.36437
8.04519
8.29996
8.14385
7.67594
7.0464
6.40468
5.85591
5.44994
5.19844
5.09387
5.11815
5.24754
5.45631
5.7178
6.0044
6.28897
6.54734
6.76082
6.91808
7.01561
7.05659
7.04888
7.00306
6.93081
6.84358
6.75119
6.66046
6.57443
6.49298
6.41486
6.34015
6.2717
6.21422
6.17122
6.14144
6.11662
6.082
6.01912
5.91001
5.74119
5.50673
5.20963
4.86166
4.48151
4.09163
3.71435
3.36822
3.06551
2.81141
2.60488
2.44072
2.31176
2.2107
2.13115
2.06807
2.0177
1.97726
1.94472
1.91853
1.89747
1.88057
1.86705
1.85626
1.84768
1.84087
1.83548
1.83122
1.82787
1.82522
1.82313
1.82148
1.82016
1.81911
1.81826
1.81757
1.81699
1.8165
1.81608
1.81571
1.81538
1.81507
1.81479
1.81452
1.81426
1.81401
1.81377
1.81356
1.81318
3.60867
3.63118
3.66402
3.70795
3.75342
3.77757
3.76332
3.72806
3.72692
3.8372
4.03749
4.26624
4.46977
4.61211
4.67926
4.67829
4.63146
4.56771
4.51477
4.49444
4.52098
4.60109
4.7348
4.91668
5.13667
5.38083
5.63259
5.87462
6.09094
6.26899
6.40111
6.48499
6.52304
6.52113
6.48732
6.43081
6.36098
6.28624
6.21261
6.14278
6.07633
6.01146
5.94752
5.88672
5.83377
5.79331
5.76621
5.74702
5.72361
5.67942
5.59719
5.46285
5.26864
5.01489
4.71024
4.37028
4.015
3.66525
3.33929
3.05011
2.80429
2.60239
2.44063
2.3129
2.21252
2.13343
2.07072
2.02063
1.98039
1.94794
1.92175
1.90061
1.88355
1.86982
1.85877
1.84991
1.84281
1.83713
1.83258
1.82895
1.82604
1.82371
1.82183
1.82031
1.81907
1.81806
1.81721
1.8165
1.81589
1.81536
1.8149
1.81449
1.81411
1.81376
1.81344
1.81313
1.81284
1.81256
1.81232
1.8119
3.20512
3.21145
3.22372
3.24389
3.27235
3.30662
3.34102
3.37074
3.39774
3.43451
3.4878
3.55551
3.62987
3.70212
3.76627
3.82109
3.87018
3.92062
3.98101
4.05958
4.16271
4.29418
4.45454
4.64098
4.84736
5.06465
5.2818
5.48699
5.66915
5.8195
5.93262
6.00682
6.04377
6.04774
6.02481
5.9822
5.92765
5.86838
5.8098
5.75435
5.70144
5.64887
5.59527
5.54207
5.49372
5.45547
5.42991
5.41403
5.39827
5.36813
5.30739
5.20183
5.04236
4.82706
4.56174
4.2591
3.93665
3.61363
3.30773
3.03236
2.79523
2.59835
2.43926
2.31289
2.21325
2.13465
2.07232
2.02254
1.98254
1.95027
1.92416
1.90302
1.8859
1.87204
1.86082
1.85176
1.84443
1.83852
1.83374
1.82987
1.82674
1.82419
1.82212
1.82041
1.81901
1.81784
1.81685
1.81602
1.8153
1.81467
1.81412
1.81363
1.81318
1.81278
1.8124
1.81205
1.81172
1.8114
1.81114
1.81068
2.98311
2.98073
2.98211
2.98873
3.00158
3.02103
3.04647
3.07638
3.10945
3.14605
3.18722
3.2336
3.285
3.34069
3.40011
3.46359
3.53261
3.60979
3.69841
3.80178
3.92252
4.062
4.21977
4.39335
4.57812
4.76758
4.95378
5.12825
5.28307
5.41187
5.51063
5.57793
5.61483
5.62434
5.61099
5.58046
5.53913
5.49327
5.44778
5.40496
5.36415
5.32285
5.27906
5.2334
5.18979
5.15376
5.12914
5.11499
5.10413
5.08416
5.04014
4.95812
4.82815
4.64648
4.41646
4.14814
3.85662
3.5594
3.27336
3.01207
2.78407
2.59262
2.43651
2.3117
2.2129
2.13482
2.07287
2.02342
1.9837
1.95164
1.92568
1.90462
1.88751
1.87361
1.86231
1.85312
1.84565
1.83956
1.83461
1.83056
1.82725
1.82453
1.82229
1.82043
1.81888
1.81758
1.81648
1.81553
1.81472
1.814
1.81338
1.81281
1.81231
1.81185
1.81143
1.81103
1.81067
1.81032
1.81003
1.80954
2.86044
2.85298
2.84821
2.8473
2.8512
2.86058
2.8758
2.89683
2.92329
2.95491
2.99159
3.03338
3.08044
3.13304
3.19161
3.25691
3.33006
3.41251
3.50588
3.61163
3.73077
3.8635
4.00885
4.16454
4.32688
4.49089
4.65069
4.80003
4.93305
5.04498
5.13269
5.19492
5.23221
5.2466
5.24145
5.2212
5.19115
5.15676
5.12253
5.09067
5.06055
5.02947
4.99486
4.95657
4.91788
4.88424
4.86036
4.84696
4.83899
4.82607
4.79474
4.73158
4.62624
4.4736
4.27493
4.03788
3.77525
3.50274
3.23625
2.9892
2.77075
2.58516
2.43238
2.30936
2.21151
2.13399
2.07244
2.02333
1.9839
1.95208
1.92631
1.90538
1.88836
1.87449
1.86317
1.85393
1.84637
1.84019
1.83512
1.83095
1.82751
1.82466
1.8223
1.82032
1.81866
1.81725
1.81605
1.81502
1.81412
1.81334
1.81264
1.81203
1.81147
1.81097
1.8105
1.81008
1.80968
1.80931
1.809
1.80848
2.79433
2.78372
2.77519
2.76965
2.76796
2.77085
2.77888
2.79239
2.81154
2.83643
2.86711
2.90365
2.94623
2.99511
3.05072
3.11365
3.18464
3.26453
3.35416
3.45417
3.56482
3.68579
3.81595
3.95328
4.09477
4.23659
4.37425
4.50304
4.61852
4.71701
4.79597
4.85422
4.89188
4.91032
4.91195
4.90026
4.87966
4.85495
4.83029
4.80786
4.78706
4.76513
4.73902
4.70785
4.67416
4.64316
4.62005
4.60687
4.60041
4.59217
4.5702
4.5219
4.43682
4.30891
4.13776
3.92893
3.69304
3.44402
3.19661
2.96387
2.7553
2.576
2.42691
2.30591
2.20915
2.13225
2.07112
2.02234
1.9832
1.95163
1.92608
1.90532
1.88842
1.87463
1.86336
1.85413
1.84656
1.84033
1.8352
1.83096
1.82744
1.82451
1.82206
1.82
1.81826
1.81678
1.81551
1.81441
1.81346
1.81262
1.81188
1.81121
1.81062
1.81008
1.80959
1.80913
1.80872
1.80832
1.80799
1.80745
2.76037
2.74778
2.73688
2.7284
2.72307
2.72157
2.7245
2.73234
2.74546
2.76416
2.78866
2.8192
2.85599
2.89931
2.94951
3.00699
3.07221
3.14564
3.22766
3.31849
3.41802
3.5257
3.64042
3.76043
3.88331
4.00603
4.12512
4.23696
4.33809
4.42557
4.49729
4.55211
4.58988
4.61141
4.61845
4.61372
4.6009
4.58426
4.56764
4.5532
4.54047
4.52662
4.50829
4.48388
4.4552
4.42705
4.40488
4.39172
4.38588
4.38057
4.36535
4.32853
4.25991
4.15282
4.00559
3.82197
3.61063
3.38374
3.15478
2.93628
2.73785
2.56521
2.42016
2.30146
2.20594
2.12974
2.06905
2.02059
1.98173
1.95041
1.92507
1.9045
1.88776
1.87409
1.8629
1.85373
1.84618
1.83996
1.83482
1.83056
1.82701
1.82404
1.82154
1.81944
1.81765
1.81612
1.8148
1.81366
1.81267
1.81179
1.81102
1.81032
1.8097
1.80914
1.80862
1.80815
1.80772
1.8073
1.80696
1.80641
2.74399
2.73018
2.71778
2.70737
2.69957
2.69498
2.69419
2.6977
2.70596
2.71934
2.73819
2.7628
2.79344
2.83041
2.87398
2.92446
2.98215
3.04729
3.12003
3.20036
3.28802
3.38238
3.48244
3.5867
3.69318
3.79949
3.90289
4.00052
4.08962
4.1678
4.23325
4.28487
4.32232
4.34602
4.35719
4.35797
4.35145
4.3414
4.33145
4.32372
4.31788
4.31113
4.29981
4.28174
4.25798
4.23283
4.2118
4.19862
4.19289
4.18931
4.17882
4.15077
4.09534
4.00563
3.87898
3.71769
3.52869
3.32245
3.1112
2.90673
2.71859
2.55291
2.41224
2.29608
2.20199
2.12657
2.06636
2.01823
1.97963
1.94854
1.92341
1.90303
1.88644
1.87291
1.86184
1.85275
1.84527
1.8391
1.83398
1.82973
1.82618
1.82321
1.8207
1.81858
1.81677
1.81522
1.81388
1.81272
1.8117
1.81081
1.81001
1.8093
1.80867
1.80809
1.80756
1.80708
1.80663
1.80621
1.80586
1.8053
2.73662
2.72207
2.70871
2.69702
2.68751
2.6807
2.67712
2.67726
2.68157
2.69047
2.70431
2.72343
2.74814
2.77871
2.81541
2.85848
2.90813
2.96448
3.02758
3.09732
3.17337
3.25515
3.34175
3.43193
3.52407
3.61622
3.7062
3.79171
3.8705
3.94059
4.00039
4.04886
4.08552
4.11052
4.1247
4.1297
4.12815
4.12343
4.11892
4.11676
4.11674
4.11614
4.1111
4.09889
4.07988
4.05781
4.03809
4.02498
4.01908
4.01641
4.00917
3.98772
3.9428
3.86745
3.75839
3.61671
3.44786
3.26075
3.06631
2.87554
2.69772
2.53924
2.40323
2.28989
2.1974
2.12288
2.06319
2.01539
1.97705
1.94618
1.92125
1.90104
1.88461
1.87122
1.86026
1.85128
1.84389
1.83778
1.83272
1.82851
1.82499
1.82204
1.81954
1.81743
1.81562
1.81407
1.81273
1.81156
1.81054
1.80964
1.80884
1.80813
1.80748
1.8069
1.80637
1.80588
1.80543
1.805
1.80465
1.80408
2.73347
2.71846
2.70449
2.69192
2.68117
2.67271
2.66699
2.66445
2.66554
2.67065
2.68014
2.69437
2.71363
2.73821
2.76834
2.80424
2.84607
2.89391
2.94775
3.00746
3.07272
3.143
3.21752
3.29525
3.37484
3.45471
3.5331
3.6081
3.67788
3.74074
3.79531
3.84058
3.87602
3.90157
3.91777
3.9259
3.92819
3.92768
3.92755
3.92995
3.93479
3.93948
3.94001
3.93317
3.91867
3.89967
3.8814
3.86846
3.86228
3.85999
3.85493
3.83841
3.8018
3.73826
3.64412
3.51956
3.36875
3.19921
3.0206
2.84305
2.67548
2.52436
2.39326
2.28297
2.19227
2.11877
2.05966
2.01223
1.97414
1.94348
1.91872
1.89867
1.88239
1.86913
1.8583
1.84942
1.84212
1.8361
1.8311
1.82695
1.82348
1.82057
1.8181
1.81601
1.81423
1.81269
1.81136
1.81021
1.80919
1.8083
1.8075
1.80679
1.80615
1.80556
1.80503
1.80454
1.80409
1.80367
1.80332
1.80274
2.73208
2.71678
2.70237
2.68915
2.67748
2.66774
2.66032
2.65563
2.65405
2.65597
2.66174
2.67168
2.6861
2.70526
2.72939
2.7587
2.7933
2.83329
2.87863
2.92919
2.98469
3.04467
3.10848
3.17524
3.24386
3.31303
3.38128
3.44707
3.50884
3.56516
3.61479
3.65682
3.69067
3.71613
3.73352
3.74386
3.74903
3.75178
3.75511
3.76119
3.77007
3.77926
3.78468
3.78272
3.77245
3.75647
3.73973
3.72706
3.72057
3.71831
3.71466
3.70181
3.67174
3.61788
3.53634
3.42663
3.29187
3.13834
2.97452
2.80964
2.65213
2.50844
2.38243
2.27541
2.18669
2.11433
2.05588
2.00885
1.97102
1.94056
1.91596
1.89606
1.87991
1.86677
1.85606
1.84728
1.84008
1.83414
1.82923
1.82514
1.82173
1.81886
1.81644
1.81439
1.81263
1.81113
1.80982
1.80868
1.80768
1.8068
1.80601
1.80531
1.80468
1.8041
1.80357
1.80309
1.80264
1.80222
1.80187
1.8013
2.73133
2.71581
2.70106
2.68734
2.67493
2.66416
2.65536
2.64889
2.6451
2.64433
2.64691
2.65315
2.66333
2.67771
2.69651
2.71991
2.74804
2.78097
2.81869
2.86108
2.9079
2.95876
3.01313
3.07027
3.12926
3.18904
3.24839
3.30601
3.3606
3.41092
3.45589
3.49464
3.5266
3.55146
3.5694
3.58117
3.58842
3.59362
3.59964
3.60864
3.62081
3.63381
3.64349
3.64593
3.63961
3.62654
3.61138
3.59906
3.59224
3.58981
3.58703
3.57689
3.55197
3.50602
3.43509
3.33822
3.21766
3.07863
2.92852
2.77565
2.62792
2.49164
2.37086
2.26729
2.18071
2.10964
2.05193
2.00534
1.9678
1.93754
1.9131
1.89333
1.8773
1.86428
1.85366
1.84499
1.83788
1.83202
1.82718
1.82317
1.81982
1.81701
1.81464
1.81263
1.81091
1.80943
1.80815
1.80704
1.80606
1.8052
1.80443
1.80374
1.80311
1.80255
1.80203
1.80155
1.80111
1.8007
1.80035
1.79978
2.73077
2.71505
2.70002
2.68587
2.67284
2.66121
2.65127
2.64331
2.63765
2.63461
2.63447
2.63752
2.64403
2.65424
2.66836
2.68657
2.70899
2.73569
2.76667
2.80184
2.84101
2.88385
2.92992
2.9786
3.02915
3.08066
3.13213
3.18247
3.23057
3.27538
3.31592
3.35142
3.38127
3.40516
3.4231
3.43569
3.44435
3.45134
3.45939
3.47066
3.48548
3.50167
3.51506
3.52144
3.51877
3.50848
3.49489
3.48299
3.47587
3.47313
3.47081
3.46266
3.4418
3.40232
3.34031
3.25448
3.14643
3.02046
2.88296
2.74141
2.60311
2.47415
2.35866
2.25869
2.17441
2.10474
2.04787
2.00178
1.96455
1.93449
1.91022
1.89058
1.87466
1.86174
1.85122
1.84264
1.83561
1.82983
1.82507
1.82112
1.81783
1.81508
1.81276
1.8108
1.80912
1.80768
1.80643
1.80534
1.80439
1.80355
1.8028
1.80212
1.80151
1.80096
1.80045
1.79998
1.79955
1.79914
1.7988
1.79823
2.73022
2.71433
2.69904
2.68451
2.67095
2.65859
2.64767
2.63845
2.63121
2.62623
2.62376
2.62408
2.62742
2.63402
2.64407
2.65775
2.67517
2.6964
2.72147
2.75031
2.78276
2.81856
2.85734
2.8986
2.94171
2.98592
3.0304
3.07423
3.11646
3.15618
3.19254
3.22483
3.25246
3.27507
3.29261
3.30553
3.31506
3.32329
3.33282
3.34581
3.36273
3.38155
3.39815
3.40804
3.40873
3.40108
3.38905
3.3776
3.3702
3.36706
3.36493
3.3582
3.34054
3.30635
3.25184
3.17551
3.07844
2.96417
2.83822
2.70723
2.57794
2.45614
2.34596
2.24968
2.16783
2.09967
2.04373
1.9982
1.96132
1.93149
1.90738
1.88787
1.87206
1.85923
1.84881
1.84031
1.83336
1.82766
1.82296
1.81908
1.81585
1.81315
1.81088
1.80896
1.80733
1.80592
1.80471
1.80365
1.80272
1.8019
1.80117
1.80051
1.79992
1.79938
1.79888
1.79842
1.79799
1.79759
1.79726
1.7967
2.72964
2.71359
2.69805
2.68319
2.66916
2.65616
2.6444
2.6341
2.62551
2.61887
2.61441
2.61238
2.613
2.61647
2.623
2.63273
2.64579
2.66226
2.68216
2.70545
2.73201
2.76164
2.79402
2.82875
2.8653
2.90306
2.94132
2.9793
3.01621
3.05126
3.08369
3.11284
3.13818
3.15932
3.17615
3.18901
3.19898
3.208
3.21855
3.2328
3.25136
3.27234
3.29167
3.3047
3.30846
3.30331
3.29279
3.28183
3.27417
3.27057
3.26842
3.26269
3.24752
3.21768
3.16947
3.1013
3.01384
2.91002
2.79457
2.6734
2.55265
2.43777
2.33286
2.24033
2.16101
2.09448
2.03954
1.99464
1.95814
1.92857
1.90463
1.88525
1.86955
1.85682
1.84647
1.83805
1.83118
1.82555
1.82092
1.8171
1.81393
1.81128
1.80906
1.80719
1.80559
1.80422
1.80304
1.80201
1.80111
1.80031
1.7996
1.79896
1.79838
1.79785
1.79736
1.79691
1.7965
1.7961
1.79577
1.79522
2.72903
2.71282
2.69706
2.68188
2.66743
2.65387
2.64138
2.63016
2.62041
2.61234
2.60617
2.60212
2.60039
2.60117
2.60463
2.61094
2.62021
2.63252
2.64791
2.66635
2.68776
2.71197
2.73873
2.76771
2.79848
2.83052
2.86323
2.89598
2.92807
2.95881
2.98756
3.0137
3.03673
3.05627
3.07216
3.08467
3.09474
3.10418
3.11537
3.13051
3.15029
3.17302
3.19468
3.21048
3.21706
3.21426
3.20523
3.19477
3.18687
3.18277
3.18043
3.17536
3.16215
3.13586
3.09295
3.03178
2.95273
2.85819
2.75226
2.64015
2.52744
2.41922
2.31948
2.23072
2.154
2.08918
2.03533
1.99111
1.95504
1.92574
1.90199
1.88275
1.86716
1.85452
1.84426
1.83591
1.82911
1.82354
1.81898
1.81522
1.8121
1.80951
1.80733
1.8055
1.80395
1.80261
1.80146
1.80046
1.79958
1.79881
1.79811
1.79749
1.79692
1.79641
1.79593
1.79549
1.79508
1.79469
1.79437
1.79383
2.72839
2.71202
2.69605
2.68059
2.66577
2.65171
2.63859
2.62656
2.6158
2.6065
2.59886
2.59307
2.58931
2.58776
2.58858
2.59192
2.59789
2.60658
2.61803
2.63224
2.64913
2.66859
2.69041
2.71433
2.73998
2.76695
2.79472
2.82276
2.85048
2.87728
2.90259
2.92586
2.94661
2.96448
2.97928
2.9912
3.00111
3.01068
3.02222
3.03791
3.05858
3.08269
3.10633
3.12459
3.13374
3.13315
3.12556
3.11563
3.10752
3.1029
3.10024
3.09557
3.08386
3.06047
3.02202
2.96685
2.89513
2.80884
2.7115
2.60771
2.50252
2.40065
2.30593
2.22092
2.14684
2.0838
2.03111
1.98761
1.95201
1.92302
1.89947
1.88038
1.8649
1.85236
1.84217
1.8339
1.82717
1.82167
1.81716
1.81345
1.81039
1.80785
1.80572
1.80393
1.80241
1.80111
1.79999
1.79902
1.79816
1.79741
1.79673
1.79612
1.79557
1.79507
1.7946
1.79417
1.79377
1.79339
1.79307
1.79254
2.72773
2.71121
2.69505
2.67933
2.66416
2.64967
2.63598
2.62325
2.61162
2.60126
2.59235
2.58506
2.57954
2.57598
2.57451
2.57527
2.57838
2.58391
2.59192
2.60242
2.61536
2.63065
2.64814
2.66759
2.68873
2.71118
2.73455
2.75837
2.78213
2.80532
2.82743
2.84798
2.86652
2.88269
2.89629
2.90747
2.91702
2.92649
2.93813
2.95412
2.97539
3.00057
3.02586
3.04627
3.05778
3.05928
3.0531
3.04372
3.03544
3.03029
3.02722
3.02272
3.01214
2.99111
2.9564
2.90638
2.84106
2.76207
2.67246
2.57627
2.47807
2.38221
2.29234
2.21101
2.13959
2.07837
2.02688
1.98417
1.94907
1.9204
1.89708
1.87814
1.86278
1.85033
1.84023
1.83203
1.82536
1.81992
1.81547
1.81182
1.80881
1.80631
1.80422
1.80247
1.80099
1.79972
1.79863
1.79768
1.79685
1.79612
1.79546
1.79487
1.79433
1.79384
1.79339
1.79296
1.79257
1.79219
1.79188
1.79135
2.72706
2.7104
2.69404
2.67809
2.66262
2.64773
2.63355
2.6202
2.60782
2.59654
2.58653
2.57794
2.57091
2.5656
2.56214
2.56067
2.56128
2.56407
2.56908
2.57634
2.58582
2.59745
2.61112
2.62663
2.64377
2.66223
2.68166
2.70169
2.72187
2.74176
2.76092
2.77891
2.79531
2.80979
2.82213
2.83247
2.84149
2.8507
2.86224
2.87831
2.89994
2.92592
2.95259
2.97489
2.98855
2.99202
2.98723
2.97844
2.97003
2.96435
2.96081
2.95631
2.94656
2.92743
2.89586
2.85025
2.79049
2.71796
2.63527
2.54601
2.45426
2.36405
2.27882
2.20108
2.13229
2.07292
2.02268
1.98078
1.94621
1.91789
1.8948
1.87603
1.8608
1.84844
1.83842
1.83029
1.82369
1.81831
1.81391
1.81031
1.80735
1.80489
1.80285
1.80114
1.79969
1.79845
1.79739
1.79647
1.79566
1.79494
1.7943
1.79373
1.7932
1.79272
1.79228
1.79186
1.79148
1.79111
1.7908
1.79028
2.72638
2.70958
2.69306
2.67688
2.66114
2.6459
2.63129
2.61739
2.60435
2.59228
2.58131
2.57159
2.56325
2.55643
2.55125
2.54783
2.54628
2.54667
2.54906
2.55349
2.55994
2.56836
2.57866
2.59071
2.60431
2.61922
2.63515
2.65176
2.66871
2.6856
2.70203
2.71762
2.73199
2.74481
2.75588
2.76529
2.77369
2.78249
2.79379
2.80977
2.83155
2.8581
2.88589
2.90985
2.92547
2.93082
2.9274
2.91925
2.91077
2.9046
2.90054
2.8959
2.88672
2.86911
2.84017
2.79833
2.74342
2.67657
2.60007
2.51708
2.43127
2.34632
2.26549
2.19122
2.12502
2.06749
2.01851
1.97745
1.94344
1.91549
1.89264
1.87405
1.85894
1.84668
1.83674
1.82869
1.82214
1.81682
1.81248
1.80893
1.80601
1.8036
1.80159
1.79991
1.7985
1.79729
1.79625
1.79536
1.79457
1.79387
1.79325
1.79269
1.79217
1.79171