/*--------------------------------*- C++ -*----------------------------------*\
  =========                 |
  \\      /  F ield         | OpenFOAM: The Open Source CFD Toolbox
   \\    /   O peration     | Website:  https://openfoam.org
    \\  /    A nd           | Version:  10
     \\/     M anipulation  |
\*---------------------------------------------------------------------------*/
FoamFile
{
    format      ascii;
    class       surfaceScalarField;
    location    "0.035";
    object      phi;
}
// * * * * * * * * * * * * * * * * * * * * * * * * * * * * * * * * * * * * * //

dimensions      [0 3 -1 0 0 0 0];

internalField   nonuniform List<scalar> 
13452
(
6.05776e-05
-3.09096e-07
6.03729e-05
2.04704e-07
5.99038e-05
4.69081e-07
5.92939e-05
6.09881e-07
5.86934e-05
6.00472e-07
5.81626e-05
5.30836e-07
5.77041e-05
4.58517e-07
5.73078e-05
3.96287e-07
5.69624e-05
3.45363e-07
5.6658e-05
3.04374e-07
5.63869e-05
2.7114e-07
5.61432e-05
2.43704e-07
5.59226e-05
2.2059e-07
5.57219e-05
2.00738e-07
5.55385e-05
1.83396e-07
5.53704e-05
1.68041e-07
5.52161e-05
1.54314e-07
5.50742e-05
1.41968e-07
5.49433e-05
1.30844e-07
5.48225e-05
1.20852e-07
5.47105e-05
1.11963e-07
5.46063e-05
1.04211e-07
5.45086e-05
9.77032e-08
5.44159e-05
9.26468e-08
5.43266e-05
8.93735e-08
5.4238e-05
8.85363e-08
5.41471e-05
9.0937e-08
5.40481e-05
9.89961e-08
5.39328e-05
1.15305e-07
5.37864e-05
1.46369e-07
5.3562e-05
2.24416e-07
5.32407e-05
3.21285e-07
5.59839e-07
5.26809e-05
6.18028e-05
-1.21561e-07
6.17632e-05
2.44299e-07
6.18807e-05
3.51617e-07
6.20435e-05
4.4705e-07
6.21521e-05
4.91863e-07
6.2184e-05
4.98907e-07
6.21538e-05
4.88727e-07
6.20823e-05
4.67817e-07
6.19859e-05
4.41742e-07
6.18759e-05
4.14346e-07
6.17596e-05
3.87455e-07
6.16415e-05
3.6183e-07
6.15243e-05
3.37751e-07
6.14098e-05
3.1526e-07
6.12989e-05
2.94296e-07
6.11922e-05
2.74763e-07
6.10899e-05
2.5657e-07
6.09923e-05
2.39646e-07
6.08992e-05
2.23951e-07
6.08105e-05
2.09481e-07
6.07262e-05
1.96278e-07
6.0646e-05
1.84441e-07
6.05695e-05
1.74144e-07
6.04965e-05
1.65664e-07
6.04265e-05
1.59423e-07
6.03589e-05
1.5608e-07
6.02932e-05
1.56643e-07
6.02296e-05
1.62613e-07
6.01677e-05
1.77261e-07
6.01127e-05
2.01325e-07
6.00833e-05
2.53845e-07
6.01009e-05
3.03625e-07
4.50749e-07
6.021e-05
6.36615e-05
-2.1676e-08
6.37539e-05
1.51926e-07
6.38178e-05
2.87697e-07
6.38727e-05
3.92124e-07
6.39186e-05
4.45996e-07
6.39538e-05
4.63761e-07
6.39784e-05
4.64047e-07
6.39911e-05
4.55102e-07
6.39923e-05
4.40546e-07
6.39837e-05
4.22939e-07
6.39674e-05
4.03804e-07
6.39452e-05
3.84018e-07
6.39188e-05
3.64135e-07
6.38896e-05
3.44497e-07
6.38586e-05
3.25316e-07
6.38266e-05
3.06732e-07
6.37943e-05
2.88848e-07
6.37622e-05
2.71757e-07
6.37306e-05
2.55557e-07
6.36997e-05
2.40367e-07
6.36697e-05
2.26344e-07
6.36404e-05
2.13703e-07
6.36118e-05
2.02739e-07
6.35836e-05
1.93862e-07
6.35554e-05
1.87661e-07
6.35265e-05
1.84949e-07
6.34961e-05
1.87022e-07
6.34634e-05
1.95352e-07
6.3427e-05
2.13675e-07
6.3386e-05
2.42272e-07
6.33432e-05
2.96635e-07
6.3289e-05
3.5788e-07
4.89291e-07
6.32504e-05
6.55764e-05
-1.49848e-08
6.55554e-05
1.72914e-07
6.55677e-05
2.75414e-07
6.5611e-05
3.48769e-07
6.56634e-05
3.93637e-07
6.57126e-05
4.14589e-07
6.57549e-05
4.2168e-07
6.57902e-05
4.19825e-07
6.5819e-05
4.11773e-07
6.58421e-05
3.99842e-07
6.58604e-05
3.85532e-07
6.58746e-05
3.69746e-07
6.58857e-05
3.53085e-07
6.58942e-05
3.3597e-07
6.59008e-05
3.18703e-07
6.5906e-05
3.01513e-07
6.59103e-05
2.84595e-07
6.59139e-05
2.68127e-07
6.59172e-05
2.5229e-07
6.59203e-05
2.37287e-07
6.59232e-05
2.23358e-07
6.59261e-05
2.10806e-07
6.59289e-05
2.0002e-07
6.59312e-05
1.91515e-07
6.59329e-05
1.85997e-07
6.59334e-05
1.84394e-07
6.59323e-05
1.88102e-07
6.5929e-05
1.98695e-07
6.59233e-05
2.19416e-07
6.5914e-05
2.51508e-07
6.59062e-05
3.04512e-07
6.58935e-05
3.70517e-07
4.79318e-07
6.59035e-05
6.74268e-05
1.50015e-08
6.7453e-05
1.46738e-07
6.74835e-05
2.4493e-07
6.75172e-05
3.15015e-07
6.75515e-05
3.59315e-07
6.75857e-05
3.80418e-07
6.76197e-05
3.87718e-07
6.76527e-05
3.8675e-07
6.76843e-05
3.8022e-07
6.77141e-05
3.70065e-07
6.77421e-05
3.57537e-07
6.77684e-05
3.43399e-07
6.77933e-05
3.28179e-07
6.7817e-05
3.12264e-07
6.78398e-05
2.95952e-07
6.78618e-05
2.79486e-07
6.78833e-05
2.63083e-07
6.79045e-05
2.46954e-07
6.79255e-05
2.3132e-07
6.79463e-05
2.16428e-07
6.79671e-05
2.02569e-07
6.79878e-05
1.90098e-07
6.80084e-05
1.79468e-07
6.80286e-05
1.71256e-07
6.80484e-05
1.66226e-07
6.80674e-05
1.65355e-07
6.80855e-05
1.70031e-07
6.81024e-05
1.81815e-07
6.81184e-05
2.03439e-07
6.81334e-05
2.36507e-07
6.81507e-05
2.87183e-07
6.81684e-05
3.52856e-07
4.48585e-07
6.81991e-05
6.93773e-05
2.1739e-08
6.93881e-05
1.3596e-07
6.94085e-05
2.24517e-07
6.94376e-05
2.85918e-07
6.94712e-05
3.25735e-07
6.95054e-05
3.46174e-07
6.95391e-05
3.54013e-07
6.9572e-05
3.53846e-07
6.96041e-05
3.4812e-07
6.96355e-05
3.38652e-07
6.96664e-05
3.26687e-07
6.96968e-05
3.13002e-07
6.97268e-05
2.98128e-07
6.97566e-05
2.82452e-07
6.97863e-05
2.66271e-07
6.9816e-05
2.49833e-07
6.98457e-05
2.33366e-07
6.98755e-05
2.17093e-07
6.99056e-05
2.01254e-07
6.99359e-05
1.86119e-07
6.99665e-05
1.72007e-07
6.99973e-05
1.59301e-07
7.00283e-05
1.48483e-07
7.00594e-05
1.40153e-07
7.00905e-05
1.35085e-07
7.01216e-05
1.34243e-07
7.01527e-05
1.38914e-07
7.0184e-05
1.50553e-07
7.02161e-05
1.71356e-07
7.02497e-05
2.02931e-07
7.02877e-05
2.4919e-07
7.03308e-05
3.09757e-07
3.91801e-07
7.03875e-05
7.13598e-05
2.83124e-08
7.13727e-05
1.2304e-07
7.13959e-05
2.01291e-07
7.14248e-05
2.56985e-07
7.14564e-05
2.94226e-07
7.14882e-05
3.14371e-07
7.15198e-05
3.22385e-07
7.15512e-05
3.22379e-07
7.15826e-05
3.16773e-07
7.16139e-05
3.07324e-07
7.16453e-05
2.95264e-07
7.1677e-05
2.81383e-07
7.17089e-05
2.66223e-07
7.17411e-05
2.50184e-07
7.17738e-05
2.33572e-07
7.1807e-05
2.16643e-07
7.18408e-05
1.99633e-07
7.18751e-05
1.82776e-07
7.191e-05
1.66322e-07
7.19456e-05
1.50552e-07
7.19818e-05
1.35794e-07
7.20186e-05
1.22443e-07
7.20562e-05
1.10982e-07
7.20943e-05
1.02003e-07
7.21331e-05
9.62463e-08
7.21728e-05
9.46094e-08
7.22135e-05
9.8229e-08
7.22556e-05
1.08371e-07
7.23003e-05
1.26732e-07
7.23485e-05
1.54683e-07
7.24031e-05
1.94641e-07
7.24659e-05
2.46878e-07
3.1445e-07
7.25433e-05
7.34038e-05
2.98016e-08
7.34157e-05
1.11076e-07
7.34366e-05
1.80455e-07
7.3463e-05
2.30573e-07
7.34928e-05
2.64436e-07
7.35238e-05
2.83379e-07
7.35551e-05
2.91101e-07
7.35864e-05
2.91054e-07
7.36177e-05
2.85433e-07
7.36492e-05
2.75855e-07
7.3681e-05
2.63504e-07
7.37132e-05
2.49186e-07
7.37459e-05
2.33465e-07
7.37793e-05
2.16762e-07
7.38135e-05
1.99404e-07
7.38485e-05
1.81663e-07
7.38843e-05
1.63785e-07
7.39211e-05
1.46015e-07
7.39588e-05
1.28608e-07
7.39975e-05
1.11852e-07
7.40372e-05
9.60736e-08
7.4078e-05
8.16623e-08
7.41199e-05
6.90828e-08
7.4163e-05
5.88928e-08
7.42075e-05
5.17663e-08
7.42536e-05
4.84969e-08
7.43018e-05
5.00366e-08
7.43528e-05
5.74172e-08
7.44076e-05
7.18797e-08
7.44678e-05
9.44448e-08
7.4536e-05
1.26489e-07
7.46146e-05
1.68232e-07
2.20533e-07
7.47086e-05
7.55027e-05
2.95669e-08
7.5514e-05
9.97558e-08
7.55339e-05
1.60605e-07
7.55591e-05
2.05301e-07
7.55878e-05
2.35792e-07
7.56179e-05
2.53253e-07
7.56486e-05
2.60389e-07
7.56796e-05
2.60035e-07
7.57109e-05
2.54167e-07
7.57425e-05
2.44273e-07
7.57745e-05
2.31478e-07
7.58071e-05
2.16578e-07
7.58404e-05
2.00148e-07
7.58746e-05
1.82623e-07
7.59096e-05
1.64343e-07
7.59457e-05
1.45596e-07
7.59829e-05
1.26638e-07
7.60212e-05
1.07721e-07
7.60607e-05
8.91043e-08
7.61014e-05
7.1072e-08
7.61436e-05
5.39441e-08
7.61871e-05
3.80899e-08
7.62323e-05
2.39405e-08
7.62792e-05
1.19986e-08
7.63281e-05
2.84965e-09
7.63794e-05
-2.84048e-09
7.64338e-05
-4.31933e-09
7.6492e-05
-8.07178e-10
7.65554e-05
8.53419e-09
7.66255e-05
2.43491e-08
7.67047e-05
4.72767e-08
7.67957e-05
7.72392e-08
1.13919e-07
7.69023e-05
7.76612e-05
2.79797e-08
7.76721e-05
8.88574e-08
7.76907e-05
1.41936e-07
7.77146e-05
1.81468e-07
7.77418e-05
2.0851e-07
7.7771e-05
2.24084e-07
7.78012e-05
2.30225e-07
7.7832e-05
2.29248e-07
7.78632e-05
2.229e-07
7.7895e-05
2.12523e-07
7.79273e-05
1.99159e-07
7.79603e-05
1.83576e-07
7.79941e-05
1.66342e-07
7.80288e-05
1.47896e-07
7.80646e-05
1.28587e-07
7.81015e-05
1.0871e-07
7.81396e-05
8.8528e-08
7.8179e-05
6.82955e-08
7.82199e-05
4.82696e-08
7.82622e-05
2.87253e-08
7.83062e-05
9.9653e-09
7.83519e-05
-7.67074e-09
7.83997e-05
-2.37982e-08
7.84497e-05
-3.79838e-08
7.85023e-05
-4.97432e-08
7.8558e-05
-5.85519e-08
7.86175e-05
-6.38548e-08
7.86818e-05
-6.51194e-08
7.87522e-05
-6.18526e-08
7.88303e-05
-5.37588e-08
7.89183e-05
-4.07206e-08
7.90187e-05
-2.31354e-08
-1.92761e-09
7.91345e-05
7.98806e-05
2.56662e-08
7.98911e-05
7.84347e-08
7.99086e-05
1.24363e-07
7.99312e-05
1.58869e-07
7.99573e-05
1.824e-07
7.99856e-05
1.95813e-07
8.00152e-05
2.00656e-07
8.00456e-05
1.98794e-07
8.00768e-05
1.91744e-07
8.01086e-05
1.80707e-07
8.01411e-05
1.66635e-07
8.01744e-05
1.50257e-07
8.02087e-05
1.32125e-07
8.02439e-05
1.12671e-07
8.02802e-05
9.22444e-08
8.03178e-05
7.114e-08
8.03567e-05
4.96214e-08
8.03971e-05
2.79382e-08
8.0439e-05
6.33922e-09
8.04826e-05
-1.49165e-08
8.05281e-05
-3.55519e-08
8.05757e-05
-5.52655e-08
8.06257e-05
-7.37286e-08
8.06783e-05
-9.05856e-08
8.0734e-05
-1.0546e-07
8.07934e-05
-1.17968e-07
8.08573e-05
-1.27741e-07
8.09266e-05
-1.34472e-07
8.10027e-05
-1.37952e-07
8.10872e-05
-1.38176e-07
8.11818e-05
-1.35386e-07
8.12889e-05
-1.3023e-07
-1.23907e-07
8.14109e-05
8.21631e-05
2.29614e-08
8.21731e-05
6.8439e-08
8.21897e-05
1.07772e-07
8.22112e-05
1.37414e-07
8.22362e-05
1.57419e-07
8.22635e-05
1.68466e-07
8.22924e-05
1.71744e-07
8.23225e-05
1.68749e-07
8.23534e-05
1.60784e-07
8.23852e-05
1.48912e-07
8.24179e-05
1.33996e-07
8.24514e-05
1.16713e-07
8.2486e-05
9.75897e-08
8.25216e-05
7.70441e-08
8.25584e-05
5.54173e-08
8.25965e-05
3.29982e-08
8.26361e-05
1.00434e-08
8.26773e-05
-1.32078e-08
8.27201e-05
-3.65214e-08
8.27649e-05
-5.96611e-08
8.28117e-05
-8.23817e-08
8.28609e-05
-1.04427e-07
8.29127e-05
-1.25528e-07
8.29675e-05
-1.45413e-07
8.30258e-05
-1.63809e-07
8.30883e-05
-1.80469e-07
8.31558e-05
-1.95188e-07
8.32292e-05
-2.07853e-07
8.33097e-05
-2.18478e-07
8.33988e-05
-2.27278e-07
8.34981e-05
-2.34731e-07
8.36096e-05
-2.41639e-07
-2.49277e-07
8.37349e-05
8.45107e-05
2.00828e-08
8.45202e-05
5.88658e-08
8.45359e-05
9.2082e-08
8.45563e-05
1.17013e-07
8.45802e-05
1.33485e-07
8.46067e-05
1.42011e-07
8.46349e-05
1.43507e-07
8.46645e-05
1.39169e-07
8.46952e-05
1.30102e-07
8.47269e-05
1.17237e-07
8.47595e-05
1.01346e-07
8.47932e-05
8.30519e-08
8.48279e-05
6.28469e-08
8.48638e-05
4.11285e-08
8.4901e-05
1.82234e-08
8.49396e-05
-5.59155e-09
8.49797e-05
-3.00724e-08
8.50215e-05
-5.49953e-08
8.50652e-05
-8.01469e-08
8.51108e-05
-1.05318e-07
8.51587e-05
-1.30301e-07
8.52092e-05
-1.54887e-07
8.52625e-05
-1.78872e-07
8.53192e-05
-2.02062e-07
8.53797e-05
-2.24286e-07
8.54446e-05
-2.45413e-07
8.55148e-05
-2.65383e-07
8.55912e-05
-2.84234e-07
8.56749e-05
-3.02147e-07
8.57671e-05
-3.19491e-07
8.58692e-05
-3.36874e-07
8.59827e-05
-3.55171e-07
-3.75606e-07
8.61091e-05
8.69251e-05
1.71609e-08
8.69342e-05
4.9703e-08
8.69491e-05
7.72064e-08
8.69686e-05
9.758e-08
8.69915e-05
1.10532e-07
8.70171e-05
1.16425e-07
8.70446e-05
1.15966e-07
8.70737e-05
1.10107e-07
8.7104e-05
9.97744e-08
8.71355e-05
8.57735e-08
8.7168e-05
6.8789e-08
8.72017e-05
4.93837e-08
8.72366e-05
2.80129e-08
8.72726e-05
5.04722e-09
8.73101e-05
-1.92066e-08
8.7349e-05
-4.44889e-08
8.73895e-05
-7.05732e-08
8.74317e-05
-9.72556e-08
8.74759e-05
-1.24347e-07
8.75223e-05
-1.5167e-07
8.7571e-05
-1.79056e-07
8.76225e-05
-2.06345e-07
8.7677e-05
-2.33394e-07
8.7735e-05
-2.60083e-07
8.77971e-05
-2.86331e-07
8.78638e-05
-3.12109e-07
8.79359e-05
-3.37466e-07
8.80142e-05
-3.62558e-07
8.80997e-05
-3.87678e-07
8.81935e-05
-4.13285e-07
8.82967e-05
-4.40046e-07
8.84103e-05
-4.68834e-07
-5.00751e-07
8.85355e-05
8.94084e-05
1.42717e-08
8.94172e-05
4.09399e-08
8.94313e-05
6.30745e-08
8.94499e-05
7.90417e-08
8.94719e-05
8.8499e-08
8.94966e-05
9.16834e-08
8.95235e-05
8.91358e-08
8.9552e-05
8.1608e-08
8.95819e-05
6.98685e-08
8.9613e-05
5.46079e-08
8.96454e-05
3.64247e-08
8.9679e-05
1.58215e-08
8.97138e-05
-6.78855e-09
8.97499e-05
-3.10655e-08
8.97874e-05
-5.67271e-08
8.98264e-05
-8.35348e-08
8.98672e-05
-1.11284e-07
8.99097e-05
-1.39793e-07
8.99542e-05
-1.68901e-07
9.0001e-05
-1.98462e-07
9.00503e-05
-2.28348e-07
9.01024e-05
-2.58446e-07
9.01577e-05
-2.88671e-07
9.02166e-05
-3.18967e-07
9.02796e-05
-3.49328e-07
9.03473e-05
-3.79805e-07
9.04203e-05
-4.10531e-07
9.04995e-05
-4.41741e-07
9.05856e-05
-4.73794e-07
9.06795e-05
-5.07188e-07
9.07821e-05
-5.4259e-07
9.08941e-05
-5.80822e-07
-6.22828e-07
9.10162e-05
9.19627e-05
1.14575e-08
9.1971e-05
3.25632e-08
9.19845e-05
4.96249e-08
9.20022e-05
6.13344e-08
9.20234e-05
6.73362e-08
9.20473e-05
6.77655e-08
9.20734e-05
6.30278e-08
9.21013e-05
5.37134e-08
9.21307e-05
4.04518e-08
9.21615e-05
2.38274e-08
9.21936e-05
4.35719e-09
9.22269e-05
-1.75169e-08
9.22615e-05
-4.14261e-08
9.22975e-05
-6.70644e-08
9.2335e-05
-9.41772e-08
9.2374e-05
-1.22551e-07
9.24147e-05
-1.52004e-07
9.24573e-05
-1.82382e-07
9.2502e-05
-2.13551e-07
9.25489e-05
-2.45399e-07
9.25984e-05
-2.77835e-07
9.26507e-05
-3.10789e-07
9.27063e-05
-3.44226e-07
9.27655e-05
-3.78147e-07
9.28287e-05
-4.12601e-07
9.28966e-05
-4.47702e-07
9.29697e-05
-4.83637e-07
9.30487e-05
-5.20688e-07
9.31341e-05
-5.59239e-07
9.32267e-05
-5.9979e-07
9.33271e-05
-6.42967e-07
9.34358e-05
-6.89506e-07
-7.40181e-07
9.35531e-05
9.45899e-05
8.7403e-09
9.45979e-05
2.4559e-08
9.46107e-05
3.68063e-08
9.46276e-05
4.44042e-08
9.4648e-05
4.70019e-08
9.46711e-05
4.46544e-08
9.46964e-05
3.76564e-08
9.47237e-05
2.64657e-08
9.47526e-05
1.15912e-08
9.47829e-05
-6.47939e-09
9.48145e-05
-2.73062e-08
9.48475e-05
-5.05068e-08
9.48818e-05
-7.57581e-08
9.49176e-05
-1.0279e-07
9.49548e-05
-1.31379e-07
9.49936e-05
-1.61337e-07
9.50341e-05
-1.9251e-07
9.50765e-05
-2.24768e-07
9.51209e-05
-2.58008e-07
9.51677e-05
-2.92146e-07
9.52169e-05
-3.27128e-07
9.52691e-05
-3.62922e-07
9.53244e-05
-3.99534e-07
9.53832e-05
-4.37006e-07
9.54461e-05
-4.75433e-07
9.55133e-05
-5.14966e-07
9.55855e-05
-5.55825e-07
9.56632e-05
-5.98307e-07
9.57467e-05
-6.42796e-07
9.58367e-05
-6.8976e-07
9.59335e-05
-7.39759e-07
9.60374e-05
-7.93425e-07
-8.51362e-07
9.61486e-05
9.72921e-05
6.12976e-09
9.72998e-05
1.69127e-08
9.7312e-05
2.45767e-08
9.73282e-05
2.82064e-08
9.73477e-05
2.7463e-08
9.73701e-05
2.2339e-08
9.73947e-05
1.30382e-08
9.74212e-05
-9.0929e-11
9.74495e-05
-1.66436e-08
9.74792e-05
-3.622e-08
9.75104e-05
-5.84521e-08
9.75429e-05
-8.3015e-08
9.75767e-05
-1.09632e-07
9.7612e-05
-1.3807e-07
9.76488e-05
-1.68136e-07
9.76871e-05
-1.99672e-07
9.77271e-05
-2.3255e-07
9.7769e-05
-2.66666e-07
9.7813e-05
-3.01944e-07
9.78592e-05
-3.38331e-07
9.79078e-05
-3.75799e-07
9.79593e-05
-4.14352e-07
9.80138e-05
-4.54024e-07
9.80716e-05
-4.94891e-07
9.81333e-05
-5.37073e-07
9.81991e-05
-5.80744e-07
9.82694e-05
-6.26132e-07
9.83446e-05
-6.73532e-07
9.84251e-05
-7.233e-07
9.85112e-05
-7.75855e-07
9.86031e-05
-8.31674e-07
9.8701e-05
-8.91279e-07
-9.55112e-07
9.88047e-05
0.000100072
3.62911e-09
0.000100079
9.61004e-09
0.000100091
1.29018e-08
0.000100106
1.27052e-08
0.000100125
8.69459e-09
0.000100146
8.14434e-10
0.00010017
-1.08062e-08
0.000100196
-2.59094e-08
0.000100224
-4.41804e-08
0.000100253
-6.52981e-08
0.000100283
-8.89611e-08
0.000100315
-1.149e-07
0.000100348
-1.42883e-07
0.000100383
-1.72714e-07
0.000100419
-2.04235e-07
0.000100457
-2.37313e-07
0.000100496
-2.71848e-07
0.000100537
-3.07763e-07
0.00010058
-3.45005e-07
0.000100625
-3.83546e-07
0.000100673
-4.23385e-07
0.000100723
-4.64549e-07
0.000100776
-5.07095e-07
0.000100832
-5.51118e-07
0.000100892
-5.96753e-07
0.000100956
-6.44176e-07
0.000101023
-6.93612e-07
0.000101095
-7.45331e-07
0.000101171
-7.99651e-07
0.000101252
-8.56926e-07
0.000101338
-9.17545e-07
0.000101429
-9.81919e-07
-1.05034e-06
0.000101524
0.00010293
1.23802e-09
0.000102937
2.63828e-09
0.000102949
1.75497e-09
0.000102963
-2.1268e-09
0.000102981
-9.32039e-09
0.000103002
-1.9918e-08
0.000103025
-3.38516e-08
0.00010305
-5.0939e-08
0.000103077
-7.09428e-08
0.000103105
-9.36123e-08
0.000103135
-1.18707e-07
0.000103166
-1.46011e-07
0.000103199
-1.75335e-07
0.000103232
-2.06522e-07
0.000103268
-2.39443e-07
0.000103304
-2.73997e-07
0.000103343
-3.10106e-07
0.000103383
-3.47719e-07
0.000103424
-3.86805e-07
0.000103468
-4.27357e-07
0.000103514
-4.69394e-07
0.000103563
-5.12958e-07
0.000103614
-5.58123e-07
0.000103667
-6.04991e-07
0.000103724
-6.53698e-07
0.000103785
-7.04414e-07
0.000103848
-7.57345e-07
0.000103916
-8.12725e-07
0.000103987
-8.70823e-07
0.000104062
-9.31923e-07
0.000104141
-9.96325e-07
0.000104223
-1.06434e-06
-1.13612e-06
0.000104309
0.000105871
-1.04535e-09
0.000105878
-4.01368e-09
0.000105888
-8.88457e-09
0.000105902
-1.63097e-08
0.00010592
-2.65921e-08
0.00010594
-3.98514e-08
0.000105962
-5.60692e-08
0.000105986
-7.51263e-08
0.000106012
-9.68516e-08
0.000106039
-1.21057e-07
0.000106068
-1.47559e-07
0.000106098
-1.7619e-07
0.00010613
-2.06803e-07
0.000106163
-2.39277e-07
0.000106197
-2.73515e-07
0.000106232
-3.09442e-07
0.000106269
-3.47006e-07
0.000106308
-3.86175e-07
0.000106348
-4.26938e-07
0.00010639
-4.69307e-07
0.000106434
-5.13312e-07
0.00010648
-5.59008e-07
0.000106528
-6.06473e-07
0.000106579
-6.55809e-07
0.000106632
-7.07146e-07
0.000106688
-7.60635e-07
0.000106748
-8.16453e-07
0.00010681
-8.74794e-07
0.000106875
-9.35871e-07
0.000106943
-9.99899e-07
0.000107013
-1.06709e-06
0.000107087
-1.13766e-06
-1.21167e-06
0.000107162
0.000108896
-3.223e-09
0.000108902
-1.03541e-08
0.000108912
-1.90308e-08
0.000108926
-2.98564e-08
0.000108942
-4.3124e-08
0.000108961
-5.89733e-08
0.000108983
-7.74255e-08
0.000109006
-9.84139e-08
0.000109031
-1.21824e-07
0.000109057
-1.47524e-07
0.000109085
-1.75381e-07
0.000109114
-2.05273e-07
0.000109145
-2.37093e-07
0.000109176
-2.70755e-07
0.000109209
-3.06192e-07
0.000109243
-3.43354e-07
0.000109278
-3.82212e-07
0.000109314
-4.22754e-07
0.000109352
-4.64983e-07
0.000109392
-5.08924e-07
0.000109433
-5.54617e-07
0.000109476
-6.0212e-07
0.000109522
-6.5151e-07
0.000109569
-7.02884e-07
0.000109618
-7.56354e-07
0.000109669
-8.12049e-07
0.000109723
-8.7011e-07
0.000109779
-9.30689e-07
0.000109837
-9.93939e-07
0.000109897
-1.06001e-06
0.000109959
-1.12904e-06
0.000110022
-1.20115e-06
-1.27632e-06
0.000110087
0.000112007
-5.29659e-09
0.000112013
-1.63892e-08
0.000112022
-2.86939e-08
0.000112035
-4.27753e-08
0.000112051
-5.89166e-08
0.000112069
-7.72698e-08
0.00011209
-9.78871e-08
0.000112112
-1.20745e-07
0.000112136
-1.45778e-07
0.000112161
-1.72902e-07
0.000112188
-2.02033e-07
0.000112216
-2.33089e-07
0.000112245
-2.66004e-07
0.000112275
-3.00722e-07
0.000112306
-3.37205e-07
0.000112338
-3.75428e-07
0.000112371
-4.15381e-07
0.000112405
-4.57069e-07
0.000112441
-5.00508e-07
0.000112478
-5.4573e-07
0.000112516
-5.92781e-07
0.000112555
-6.41718e-07
0.000112597
-6.92612e-07
0.000112639
-7.45546e-07
0.000112683
-8.00613e-07
0.000112729
-8.57913e-07
0.000112777
-9.17552e-07
0.000112826
-9.79634e-07
0.000112876
-1.04426e-06
0.000112928
-1.11152e-06
0.00011298
-1.18148e-06
0.000113033
-1.25419e-06
-1.32955e-06
0.000113086
0.000115206
-7.26642e-09
0.000115212
-2.21201e-08
0.000115221
-3.7875e-08
0.000115234
-5.50646e-08
0.000115249
-7.39596e-08
0.000115266
-9.47178e-08
0.000115286
-1.17414e-07
0.000115307
-1.42059e-07
0.00011533
-1.68628e-07
0.000115354
-1.97082e-07
0.000115379
-2.27377e-07
0.000115406
-2.59473e-07
0.000115433
-2.93337e-07
0.000115461
-3.28946e-07
0.00011549
-3.66287e-07
0.00011552
-4.05358e-07
0.000115551
-4.46168e-07
0.000115583
-4.88733e-07
0.000115615
-5.33083e-07
0.000115649
-5.79252e-07
0.000115683
-6.27287e-07
0.000115719
-6.77242e-07
0.000115755
-7.29177e-07
0.000115793
-7.83158e-07
0.000115832
-8.39256e-07
0.000115871
-8.9754e-07
0.000115912
-9.58081e-07
0.000115953
-1.02094e-06
0.000115995
-1.08616e-06
0.000116037
-1.15379e-06
0.00011608
-1.22382e-06
0.000116122
-1.29626e-06
-1.37095e-06
0.000116163
0.000118498
-9.13413e-09
0.000118503
-2.75502e-08
0.000118512
-4.65812e-08
0.000118524
-6.67328e-08
0.000118538
-8.82573e-08
0.000118554
-1.1131e-07
0.000118573
-1.35979e-07
0.000118593
-1.62304e-07
0.000118615
-1.90296e-07
0.000118638
-2.19954e-07
0.000118662
-2.51272e-07
0.000118686
-2.84249e-07
0.000118712
-3.18883e-07
0.000118738
-3.55183e-07
0.000118765
-3.93159e-07
0.000118793
-4.3283e-07
0.000118821
-4.74219e-07
0.000118849
-5.17358e-07
0.000118878
-5.62279e-07
0.000118908
-6.09023e-07
0.000118939
-6.57633e-07
0.000118969
-7.08154e-07
0.000119001
-7.60635e-07
0.000119033
-8.15125e-07
0.000119065
-8.71668e-07
0.000119098
-9.30307e-07
0.000119131
-9.91075e-07
0.000119164
-1.05399e-06
0.000119197
-1.11907e-06
0.00011923
-1.18628e-06
0.000119261
-1.2556e-06
0.000119292
-1.32697e-06
-1.40019e-06
0.000119321
0.000121883
-1.08897e-08
0.000121888
-3.26571e-08
0.000121896
-5.47807e-08
0.000121907
-7.7744e-08
0.000121921
-1.01773e-07
0.000121937
-1.27008e-07
0.000121954
-1.53543e-07
0.000121973
-1.81433e-07
0.000121994
-2.1072e-07
0.000122015
-2.41435e-07
0.000122038
-2.73611e-07
0.000122061
-3.0728e-07
0.000122084
-3.42474e-07
0.000122108
-3.79228e-07
0.000122133
-4.17577e-07
0.000122157
-4.5756e-07
0.000122182
-4.99215e-07
0.000122208
-5.42581e-07
0.000122233
-5.87699e-07
0.000122259
-6.34607e-07
0.000122284
-6.83346e-07
0.00012231
-7.33953e-07
0.000122336
-7.86462e-07
0.000122362
-8.40902e-07
0.000122387
-8.97297e-07
0.000122413
-9.55658e-07
0.000122438
-1.01599e-06
0.000122462
-1.07828e-06
0.000122485
-1.14249e-06
0.000122508
-1.20857e-06
0.000122528
-1.27644e-06
0.000122547
-1.34602e-06
-1.41707e-06
0.000122564
0.000125365
-1.25553e-08
0.00012537
-3.74767e-08
0.000125378
-6.25276e-08
0.000125388
-8.81602e-08
0.000125401
-1.14556e-07
0.000125416
-1.41835e-07
0.000125432
-1.70088e-07
0.00012545
-1.99388e-07
0.000125469
-2.29801e-07
0.000125489
-2.61392e-07
0.00012551
-2.94226e-07
0.000125531
-3.28368e-07
0.000125552
-3.6388e-07
0.000125574
-4.00824e-07
0.000125596
-4.39258e-07
0.000125617
-4.79238e-07
0.000125639
-5.20814e-07
0.00012566
-5.64035e-07
0.000125682
-6.08946e-07
0.000125703
-6.55585e-07
0.000125723
-7.03986e-07
0.000125743
-7.54177e-07
0.000125763
-8.0618e-07
0.000125782
-8.60006e-07
0.000125801
-9.15656e-07
0.000125818
-9.73118e-07
0.000125834
-1.03237e-06
0.00012585
-1.09336e-06
0.000125863
-1.15603e-06
0.000125875
-1.22031e-06
0.000125884
-1.28607e-06
0.000125892
-1.3532e-06
-1.42147e-06
0.000125896
0.000128947
-1.40278e-08
0.000128951
-4.18305e-08
0.000128958
-6.96144e-08
0.000128968
-9.78059e-08
0.00012898
-1.26503e-07
0.000128994
-1.55762e-07
0.000129009
-1.85649e-07
0.000129026
-2.16239e-07
0.000129044
-2.47619e-07
0.000129062
-2.79889e-07
0.000129081
-3.1315e-07
0.0001291
-3.47504e-07
0.000129119
-3.83047e-07
0.000129139
-4.19867e-07
0.000129157
-4.58046e-07
0.000129176
-4.97658e-07
0.000129194
-5.38767e-07
0.000129211
-5.81429e-07
0.000129228
-6.25691e-07
0.000129244
-6.71592e-07
0.000129259
-7.19161e-07
0.000129273
-7.68417e-07
0.000129286
-8.19367e-07
0.000129298
-8.72007e-07
0.000129309
-9.2632e-07
0.000129318
-9.82274e-07
0.000129326
-1.03982e-06
0.000129331
-1.09889e-06
0.000129335
-1.1594e-06
0.000129336
-1.22124e-06
0.000129334
-1.28429e-06
0.000129329
-1.34841e-06
-1.41334e-06
0.000129321
0.000132631
-1.5595e-08
0.000132635
-4.60993e-08
0.000132642
-7.64324e-08
0.000132651
-1.06971e-07
0.000132662
-1.37736e-07
0.000132675
-1.68746e-07
0.00013269
-2.00051e-07
0.000132705
-2.31721e-07
0.000132721
-2.6386e-07
0.000132738
-2.9659e-07
0.000132755
-3.30045e-07
0.000132772
-3.64356e-07
0.000132788
-3.99648e-07
0.000132804
-4.36038e-07
0.00013282
-4.73629e-07
0.000132835
-5.12512e-07
0.000132849
-5.52763e-07
0.000132862
-5.94447e-07
0.000132874
-6.37615e-07
0.000132885
-6.82305e-07
0.000132894
-7.28543e-07
0.000132902
-7.7634e-07
0.000132908
-8.25692e-07
0.000132913
-8.76585e-07
0.000132915
-9.28983e-07
0.000132916
-9.82839e-07
0.000132914
-1.03809e-06
0.00013291
-1.09464e-06
0.000132903
-1.1524e-06
0.000132893
-1.21124e-06
0.00013288
-1.27103e-06
0.000132863
-1.33161e-06
-1.39273e-06
0.000132842
0.000136419
-1.62706e-08
0.000136422
-4.90605e-08
0.000136427
-8.19604e-08
0.000136436
-1.15147e-07
0.000136446
-1.48288e-07
0.000136459
-1.81225e-07
0.000136473
-2.13959e-07
0.000136487
-2.46582e-07
0.000136503
-2.79245e-07
0.000136518
-3.12129e-07
0.000136534
-3.45422e-07
0.000136549
-3.79302e-07
0.000136563
-4.13935e-07
0.000136576
-4.49468e-07
0.000136589
-4.8603e-07
0.0001366
-5.23729e-07
0.00013661
-5.62655e-07
0.000136618
-6.0288e-07
0.000136625
-6.44457e-07
0.00013663
-6.87426e-07
0.000136634
-7.31807e-07
0.000136635
-7.77605e-07
0.000136634
-8.2481e-07
0.000136631
-8.73395e-07
0.000136625
-9.23314e-07
0.000136617
-9.74507e-07
0.000136606
-1.02689e-06
0.000136591
-1.08038e-06
0.000136574
-1.13486e-06
0.000136553
-1.19019e-06
0.000136528
-1.24623e-06
0.000136499
-1.30282e-06
-1.35973e-06
0.000136466
0.000140318
-1.8748e-08
0.000140322
-5.32602e-08
0.000140328
-8.78481e-08
0.000140336
-1.22707e-07
0.000140345
-1.57496e-07
0.000140356
-1.91929e-07
0.000140368
-2.25866e-07
0.00014038
-2.59313e-07
0.000140394
-2.92403e-07
0.000140407
-3.25332e-07
0.00014042
-3.58318e-07
0.000140432
-3.91578e-07
0.000140443
-4.25315e-07
0.000140454
-4.59708e-07
0.000140462
-4.94913e-07
0.00014047
-5.31061e-07
0.000140475
-5.68257e-07
0.000140479
-6.06586e-07
0.000140481
-6.46109e-07
0.00014048
-6.86866e-07
0.000140477
-7.28881e-07
0.000140472
-7.72157e-07
0.000140464
-8.16676e-07
0.000140453
-8.62408e-07
0.000140439
-9.09299e-07
0.000140421
-9.57284e-07
0.000140401
-1.00628e-06
0.000140377
-1.05617e-06
0.000140349
-1.10686e-06
0.000140317
-1.15819e-06
0.00014028
-1.21004e-06
0.00014024
-1.26224e-06
-1.31456e-06
0.000140195
0.000144322
-1.57143e-08
0.000144321
-5.25195e-08
0.000144324
-9.11013e-08
0.000144331
-1.30127e-07
0.000144342
-1.68073e-07
0.000144355
-2.04536e-07
0.000144368
-2.3955e-07
0.000144382
-2.73338e-07
0.000144396
-3.06201e-07
0.000144409
-3.38457e-07
0.000144421
-3.70413e-07
0.000144432
-4.02354e-07
0.000144441
-4.34529e-07
0.000144449
-4.67152e-07
0.000144454
-5.004e-07
0.000144458
-5.34421e-07
0.000144459
-5.6933e-07
0.000144457
-6.05217e-07
0.000144453
-6.42146e-07
0.000144447
-6.80158e-07
0.000144437
-7.19276e-07
0.000144424
-7.59498e-07
0.000144409
-8.00806e-07
0.000144389
-8.43163e-07
0.000144367
-8.86514e-07
0.00014434
-9.30788e-07
0.00014431
-9.75897e-07
0.000144275
-1.02174e-06
0.000144237
-1.0682e-06
0.000144194
-1.11514e-06
0.000144146
-1.16242e-06
0.000144094
-1.2099e-06
-1.25737e-06
0.000144036
0.000148456
-2.3432e-08
0.00014846
-5.71849e-08
0.000148463
-9.4226e-08
0.000148467
-1.33375e-07
0.000148472
-1.72932e-07
0.000148478
-2.11449e-07
0.000148487
-2.48151e-07
0.000148497
-2.82994e-07
0.000148507
-3.16258e-07
0.000148517
-3.48307e-07
0.000148526
-3.79522e-07
0.000148534
-4.10264e-07
0.00014854
-4.4085e-07
0.000148544
-4.7155e-07
0.000148547
-5.02591e-07
0.000148546
-5.34153e-07
0.000148543
-5.66381e-07
0.000148538
-5.99385e-07
0.000148529
-6.33242e-07
0.000148516
-6.68006e-07
0.000148501
-7.03704e-07
0.000148482
-7.40341e-07
0.000148459
-7.77901e-07
0.000148432
-8.16349e-07
0.000148401
-8.55633e-07
0.000148366
-8.95684e-07
0.000148327
-9.36416e-07
0.000148283
-9.7773e-07
0.000148234
-1.01951e-06
0.00014818
-1.06164e-06
0.000148122
-1.10399e-06
0.000148058
-1.1464e-06
-1.1887e-06
0.00014799
0.000152672
-6.4666e-09
0.000152664
-4.88994e-08
0.000152667
-9.72438e-08
0.000152678
-1.44765e-07
0.000152694
-1.88305e-07
0.00015271
-2.27985e-07
0.000152726
-2.64317e-07
0.000152741
-2.97966e-07
0.000152755
-3.29519e-07
0.000152766
-3.59504e-07
0.000152775
-3.88405e-07
0.000152781
-4.1664e-07
0.000152785
-4.44556e-07
0.000152786
-4.72433e-07
0.000152784
-5.00502e-07
0.000152778
-5.28947e-07
0.00015277
-5.57909e-07
0.000152758
-5.87498e-07
0.000152743
-6.17791e-07
0.000152723
-6.48839e-07
0.0001527
-6.8067e-07
0.000152673
-7.13289e-07
0.000152642
-7.46682e-07
0.000152607
-7.80817e-07
0.000152567
-8.15643e-07
0.000152522
-8.51098e-07
0.000152473
-8.871e-07
0.000152418
-9.23561e-07
0.000152359
-9.60376e-07
0.000152295
-9.97434e-07
0.000152226
-1.03461e-06
0.000152151
-1.07179e-06
-1.1088e-06
0.000152071
0.000157073
-2.81262e-08
0.000157069
-4.42926e-08
0.000157055
-8.41817e-08
0.000157043
-1.32744e-07
0.000157038
-1.83188e-07
0.00015704
-2.29544e-07
0.000157046
-2.70263e-07
0.000157054
-3.06337e-07
0.000157063
-3.38791e-07
0.000157072
-3.68482e-07
0.00015708
-3.96168e-07
0.000157086
-4.2248e-07
0.000157089
-4.47926e-07
0.00015709
-4.72909e-07
0.000157087
-4.97745e-07
0.000157081
-5.22678e-07
0.000157071
-5.47896e-07
0.000157057
-5.73536e-07
0.000157039
-5.997e-07
0.000157016
-6.26454e-07
0.00015699
-6.53836e-07
0.000156958
-6.81863e-07
0.000156922
-7.10528e-07
0.000156881
-7.39805e-07
0.000156835
-7.69655e-07
0.000156784
-8.0002e-07
0.000156728
-8.30831e-07
0.000156666
-8.62007e-07
0.000156599
-8.93458e-07
0.000156527
-9.25082e-07
0.000156449
-9.56772e-07
0.000156366
-9.88418e-07
-1.01987e-06
0.000156277
0.000161472
3.87921e-08
0.000161459
-3.20345e-08
0.000161485
-1.09724e-07
0.000161518
-1.66024e-07
0.000161549
-2.1452e-07
0.000161575
-2.54739e-07
0.000161594
-2.8997e-07
0.000161609
-3.21346e-07
0.00016162
-3.49548e-07
0.000161627
-3.75361e-07
0.00016163
-3.99452e-07
0.00016163
-4.22333e-07
0.000161627
-4.4441e-07
0.00016162
-4.6601e-07
0.000161609
-4.87394e-07
0.000161595
-5.08766e-07
0.000161578
-5.30284e-07
0.000161556
-5.52072e-07
0.000161531
-5.74217e-07
0.000161501
-5.96785e-07
0.000161467
-6.19815e-07
0.000161429
-6.43325e-07
0.000161385
-6.67317e-07
0.000161337
-6.91776e-07
0.000161284
-7.16672e-07
0.000161226
-7.41962e-07
0.000161163
-7.67594e-07
0.000161095
-7.93502e-07
0.000161021
-8.19613e-07
0.000160942
-8.45849e-07
0.000160857
-8.72122e-07
0.000160767
-8.98347e-07
-9.2439e-07
0.000160671
0.000166187
4.94301e-09
0.000166117
3.80974e-08
0.000166033
-2.51107e-08
0.000165974
-1.07118e-07
0.000165954
-1.94874e-07
0.000165957
-2.57513e-07
0.000165972
-3.0486e-07
0.000165992
-3.41855e-07
0.000166015
-3.7214e-07
0.000166037
-3.97813e-07
0.000166058
-4.20268e-07
0.000166076
-4.40518e-07