/*--------------------------------*- C++ -*----------------------------------*\
  =========                 |
  \\      /  F ield         | OpenFOAM: The Open Source CFD Toolbox
   \\    /   O peration     | Website:  https://openfoam.org
    \\  /    A nd           | Version:  10
     \\/     M anipulation  |
\*---------------------------------------------------------------------------*/
FoamFile
{
    format      ascii;
    class       volScalarField;
    location    "600";
    object      epsilon;
}
// * * * * * * * * * * * * * * * * * * * * * * * * * * * * * * * * * * * * * //

dimensions      [0 2 -3 0 0 0 0];

internalField   nonuniform List<scalar> 
6820
(
23.3479
22.8004
22.2986
21.7955
21.2906
20.7982
20.3323
19.9018
19.5114
19.1623
18.8535
18.583
18.3479
18.1454
17.9723
17.8259
17.7033
17.6021
17.52
17.4549
17.4049
17.3682
17.3434
17.3291
17.324
17.3273
17.3369
17.3559
17.3721
17.4189
17.3065
18.7208
9.68423
5.2475
7.40629
8.54765
9.16309
9.54906
9.84002
10.0939
10.3363
10.5779
10.8226
11.0714
11.3244
11.5809
11.8402
12.1014
12.3639
12.6269
12.8898
13.1519
13.4129
13.6722
13.9294
14.1843
14.4365
14.6863
14.9335
15.1788
15.425
15.6682
15.9332
16.1745
16.7533
15.8865
3.71892
4.27986
4.80504
5.21571
5.52672
5.76825
5.96425
6.1311
6.27962
6.41688
6.54754
6.67465
6.8002
6.92546
7.05118
7.1778
7.30553
7.43442
7.56443
7.69544
7.8273
7.95986
8.09296
8.22643
8.36018
8.49417
8.62838
8.76338
8.89867
9.03841
9.17584
9.34249
9.46211
3.53759
3.62335
3.77159
3.9376
4.09551
4.23606
4.35824
4.46424
4.5571
4.6397
4.71449
4.78349
4.84826
4.91004
4.96976
5.02813
5.08567
5.14279
5.19975
5.25675
5.31392
5.37135
5.42909
5.48718
5.54563
5.60449
5.66379
5.72369
5.78424
5.84611
5.90888
5.97487
6.0444
3.52015
3.50151
3.51115
3.54398
3.59068
3.64316
3.69614
3.74676
3.79383
3.83703
3.87655
3.91281
3.94627
3.97741
4.00667
4.03445
4.06107
4.08682
4.11192
4.13656
4.1609
4.18506
4.20913
4.23319
4.25731
4.28155
4.30598
4.33066
4.35569
4.38121
4.40731
4.43418
4.46227
3.51931
3.48209
3.45345
3.43537
3.42736
3.42745
3.43325
3.44263
3.45395
3.46611
3.47839
3.49037
3.50183
3.5127
3.52296
3.53266
3.54186
3.55063
3.55907
3.56724
3.57522
3.58306
3.59083
3.59857
3.60633
3.61414
3.62206
3.63012
3.63838
3.64689
3.6557
3.66486
3.67444
3.51943
3.47964
3.44271
3.40975
3.38152
3.35816
3.33935
3.32445
3.31274
3.30352
3.29619
3.29025
3.28535
3.28119
3.27758
3.27438
3.27149
3.26885
3.26641
3.26414
3.26205
3.26011
3.25833
3.25671
3.25527
3.25399
3.25291
3.25202
3.25135
3.25092
3.25075
3.25085
3.25122
3.51947
3.47942
3.44105
3.40466
3.37058
3.33905
3.31022
3.28406
3.26044
3.23914
3.2199
3.20245
3.18656
3.172
3.15858
3.14614
3.13454
3.12368
3.11346
3.10381
3.09467
3.08599
3.07774
3.06989
3.0624
3.05527
3.04847
3.04199
3.03583
3.02999
3.02446
3.01924
3.01432
3.51948
3.47941
3.44084
3.40381
3.36835
3.33454
3.30245
3.27211
3.24354
3.2167
3.19152
3.16792
3.14579
3.12501
3.10547
3.08706
3.06969
3.05326
3.03768
3.02289
3.00882
2.99541
2.98262
2.97039
2.95868
2.94748
2.93674
2.92645
2.91657
2.90711
2.89803
2.88933
2.881
3.51948
3.4794
3.44081
3.40368
3.36795
3.33361
3.30064
3.26904
3.23878
3.20986
3.18226
3.15593
3.13083
3.10692
3.08414
3.06242
3.04171
3.02195
3.00308
2.98505
2.9678
2.95129
2.93547
2.9203
2.90574
2.89176
2.87833
2.86541
2.85299
2.84104
2.82955
2.81848
2.80784
3.51948
3.4794
3.4408
3.40365
3.36788
3.33343
3.30026
3.26833
3.2376
3.20803
3.17959
3.15225
3.12598
3.10074
3.0765
3.05323
3.03087
3.0094
2.98877
2.96895
2.94989
2.93157
2.91395
2.89698
2.88065
2.86493
2.84977
2.83517
2.82109
2.80752
2.79442
2.7818
2.76961
3.51948
3.4794
3.4408
3.40364
3.36786
3.33339
3.30018
3.26817
3.23732
3.20757
3.17889
3.15123
3.12457
3.09885
3.07406
3.05015
3.0271
3.00487
2.98343
2.96276
2.94281
2.92356
2.90499
2.88707
2.86977
2.85306
2.83692
2.82133
2.80627
2.79172
2.77766
2.76407
2.75093
3.51948
3.4794
3.44079
3.40363
3.36784
3.33337
3.30015
3.26812
3.23724
3.20745
3.1787
3.15096
3.12417
3.09831
3.07333
3.04921
3.0259
3.00339
2.98162
2.96059
2.94026
2.92061
2.90161
2.88323
2.86545
2.84826
2.83162
2.81552
2.79995
2.78487
2.77028
2.75615
2.74247
3.51947
3.47939
3.44079
3.40362
3.36783
3.33335
3.30013
3.2681
3.2372
3.2074
3.17864
3.15087
3.12405
3.09815
3.07311
3.04892
3.02553
3.00292
2.98104
2.95988
2.93941
2.9196
2.90042
2.88185
2.86388
2.84647
2.82961
2.81328
2.79746
2.78213
2.76728
2.75288
2.73893
3.51947
3.47939
3.44079
3.40362
3.36782
3.33334
3.30011
3.26807
3.23718
3.20737
3.1786
3.15082
3.12399
3.09808
3.07303
3.04881
3.0254
3.00275
2.98084
2.95964
2.93912
2.91925
2.90001
2.88138
2.86332
2.84583
2.82888
2.81245
2.79653
2.78109
2.76613
2.75161
2.73753
3.51947
3.47939
3.44078
3.40361
3.36781
3.33333
3.3001
3.26806
3.23715
3.20734
3.17857
3.15078
3.12395
3.09803
3.07297
3.04875
3.02533
3.00267
2.98075
2.95954
2.939
2.91911
2.89985
2.88119
2.86311
2.84559
2.8286
2.81214
2.79618
2.78069
2.76568
2.75111
2.73698
3.51947
3.47939
3.44078
3.40361
3.36781
3.33332
3.30008
3.26804
3.23713
3.20732
3.17854
3.15075
3.12392
3.09799
3.07293
3.04871
3.02528
3.00262
2.98069
2.95947
2.93892
2.91903
2.89976
2.88109
2.863
2.84547
2.82847
2.81199
2.79601
2.78051
2.76548
2.75089
2.73673
3.51947
3.47939
3.44078
3.4036
3.3678
3.33331
3.30007
3.26803
3.23712
3.2073
3.17851
3.15073
3.12389
3.09795
3.07289
3.04866
3.02523
3.00257
2.98064
2.95941
2.93886
2.91896
2.89969
2.88101
2.86292
2.84538
2.82838
2.81189
2.7959
2.7804
2.76535
2.75075
2.73658
3.51947
3.47939
3.44078
3.4036
3.3678
3.3333
3.30006
3.26801
3.2371
3.20728
3.17849
3.1507
3.12386
3.09792
3.07286
3.04863
3.02519
3.00252
2.98059
2.95936
2.93881
2.9189
2.89963
2.88095
2.86285
2.84531
2.8283
2.81181
2.79582
2.7803
2.76525
2.75064
2.73646
3.51947
3.47939
3.44077
3.4036
3.36779
3.3333
3.30005
3.268
3.23709
3.20726
3.17847
3.15068
3.12383
3.0979
3.07283
3.04859
3.02516
3.00248
2.98055
2.95931
2.93876
2.91885
2.89957
2.88089
2.86279
2.84524
2.82823
2.81173
2.79573
2.78021
2.76515
2.75054
2.73635
3.51947
3.47939
3.44077
3.40359
3.36779
3.33329
3.30005
3.26799
3.23708
3.20725
3.17846
3.15066
3.12381
3.09787
3.0728
3.04856
3.02512
3.00245
2.98051
2.95927
2.93871
2.9188
2.89952
2.88083
2.86273
2.84518
2.82816
2.81166
2.79566
2.78013
2.76507
2.75045
2.73625
3.51947
3.47938
3.44077
3.40359
3.36779
3.33329
3.30004
3.26799
3.23707
3.20724
3.17844
3.15064
3.12379
3.09785
3.07278
3.04853
3.02509
3.00241
2.98047
2.95923
2.93867
2.91876
2.89947
2.88078
2.86267
2.84512
2.8281
2.81159
2.79559
2.78005
2.76498
2.75036
2.73616
3.51947
3.47938
3.44077
3.40359
3.36778
3.33328
3.30004
3.26798
3.23706
3.20723
3.17843
3.15063
3.12377
3.09783
3.07275
3.04851
3.02507
3.00239
2.98044
2.9592
2.93863
2.91872
2.89943
2.88074
2.86262
2.84506
2.82804
2.81153
2.79552
2.77998
2.76491
2.75028
2.73607
3.51947
3.47938
3.44077
3.40359
3.36778
3.33328
3.30003
3.26797
3.23705
3.20722
3.17842
3.15062
3.12376
3.09781
3.07273
3.04849
3.02504
3.00236
2.98041
2.95917
2.9386
2.91868
2.89939
2.88069
2.86257
2.84501
2.82798
2.81147
2.79545
2.77991
2.76483
2.7502
2.73599
3.51947
3.47938
3.44077
3.40359
3.36778
3.33328
3.30003
3.26797
3.23705
3.20721
3.17841
3.1506
3.12375
3.0978
3.07272
3.04847
3.02502
3.00234
2.98038
2.95914
2.93857
2.91865
2.89935
2.88065
2.86253
2.84497
2.82793
2.81142
2.7954
2.77985
2.76477
2.75012
2.73591
3.51947
3.47938
3.44077
3.40359
3.36778
3.33328
3.30003
3.26796
3.23704
3.2072
3.1784
3.1506
3.12374
3.09779
3.0727
3.04845
3.025
3.00232
2.98036
2.95911
2.93854
2.91862
2.89932
2.88062
2.86249
2.84492
2.82789
2.81137
2.79534
2.77979
2.7647
2.75006
2.73584
3.51947
3.47938
3.44077
3.40359
3.36778
3.33328
3.30002
3.26796
3.23704
3.2072
3.1784
3.15059
3.12373
3.09778
3.07269
3.04844
3.02499
3.0023
2.98034
2.95909
2.93852
2.91859
2.89929
2.88058
2.86246
2.84489
2.82785
2.81132
2.79529
2.77974
2.76465
2.75
2.73577
3.51947
3.47938
3.44077
3.40359
3.36778
3.33327
3.30002
3.26796
3.23703
3.20719
3.17839
3.15058
3.12372
3.09777
3.07268
3.04843
3.02498
3.00228
2.98033
2.95907
2.9385
2.91857
2.89926
2.88056
2.86243
2.84485
2.82781
2.81128
2.79525
2.77969
2.7646
2.74994
2.73571
3.51947
3.47938
3.44077
3.40359
3.36778
3.33327
3.30002
3.26796
3.23703
3.20719
3.17839
3.15058
3.12372
3.09776
3.07268
3.04842
3.02497
3.00227
2.98032
2.95906
2.93848
2.91855
2.89924
2.88053
2.8624
2.84483
2.82778
2.81125
2.79521
2.77965
2.76455
2.7499
2.73566
3.51947
3.47938
3.44077
3.40359
3.36778
3.33327
3.30002
3.26796
3.23703
3.20719
3.17839
3.15058
3.12371
3.09776
3.07267
3.04842
3.02496
3.00227
2.98031
2.95905
2.93847
2.91854
2.89923
2.88052
2.86238
2.84481
2.82776
2.81123
2.79519
2.77962
2.76452
2.74986
2.73562
3.51947
3.47938
3.44077
3.40359
3.36778
3.33327
3.30002
3.26796
3.23703
3.20719
3.17839
3.15058
3.12371
3.09776
3.07267
3.04841
3.02496
3.00226
2.9803
2.95905
2.93846
2.91853
2.89922
2.88051
2.86238
2.8448
2.82775
2.81122
2.79518
2.77961
2.76451
2.74985
2.73561
3.51947
3.47938
3.44077
3.40359
3.36778
3.33327
3.30002
3.26796
3.23703
3.20719
3.17839
3.15058
3.12372
3.09776
3.07268
3.04843
3.02497
3.00228
2.98032
2.95907
2.93849
2.91856
2.89926
2.88055
2.86243
2.84485
2.82781
2.81129
2.79526
2.77971
2.76461
2.74997
2.73574
3.51947
3.47938
3.44077
3.40359
3.36778
3.33327
3.30002
3.26796
3.23704
3.2072
3.1784
3.15059
3.12374
3.09779
3.07272
3.04848
3.02504
3.00237
2.98043
2.9592
2.93866
2.91876
2.89949
2.88082
2.86274
2.84521
2.82822
2.81175
2.79578
2.78028
2.76525
2.75067
2.73651
3.51947
3.47938
3.44077
3.40359
3.36778
3.33329
3.30004
3.268
3.2371
3.2073
3.17854
3.15079
3.124
3.09812
3.07313
3.04899
3.02566
3.00311
2.98131
2.96023
2.93984
2.92012
2.90104
2.88257
2.86469
2.84739
2.83063
2.8144
2.79867
2.78343
2.76867
2.75435
2.74047
3.51947
3.47938
3.44078
3.40362
3.36785
3.33342
3.30028
3.26838
3.23767
3.20809
3.17962
3.15221
3.12581
3.10039
3.0759
3.05232
3.0296
3.00771
2.98662
2.96629
2.94669
2.92779
2.90956
2.89197
2.875
2.85862
2.8428
2.82752
2.81276
2.7985
2.78471
2.77138
2.75848
3.51947
3.47942
3.44096
3.40413
3.36893
3.33532
3.30325
3.27265
3.24349
3.2157
3.18922
3.16401
3.13999
3.11713
3.09534
3.07459
3.05482
3.03596
3.01798
3.00081
2.98441
2.96874
2.95375
2.93941
2.92567
2.9125
2.89987
2.88774
2.87609
2.86489
2.85411
2.84373
2.83373
3.5195
3.48076
3.44539
3.41321
3.38396
3.35745
3.33349
3.31192
3.29255
3.27519
3.25966
3.24577
3.23335
3.22224
3.21229
3.20337
3.19534
3.18811
3.18158
3.17565
3.17025
3.16532
3.16078
3.1566
3.15272
3.14911
3.14572
3.14253
3.13951
3.13663
3.13388
3.13123
3.12868
3.52507
3.51486
3.52101
3.53643
3.55824
3.58493
3.61543
3.64886
3.68439
3.72134
3.75916
3.79741
3.83573
3.87383
3.91149
3.94855
3.98485
4.02032
4.05487
4.08846
4.12105
4.15262
4.18317
4.21269
4.2412
4.2687
4.29521
4.32076
4.34537
4.36906
4.39186
4.4138
4.43492
3.84201
4.38784
4.87759
5.34307
5.79571
6.23693
6.66469
7.07765
7.47579
7.85972
8.23018
8.58792
8.93372
9.26827
9.5922
9.90608
10.2104
10.5055
10.7919
11.0698
11.3396
11.6016
11.8559
12.1029
12.3428
12.5757
12.8019
13.0217
13.2351
13.4424
13.6439
13.8395
14.0298
30.2673
32.7691
35.3054
37.8488
40.3863
42.91
45.413
47.8882
50.3292
52.7298
55.0848
57.3895
59.6401
61.8331
63.9659
66.0363
68.0427
69.9841
71.8597
73.6692
75.4128
77.0908
78.7039
80.2529
81.7391
83.1636
84.528
85.8336
87.0821
88.2752
89.4147
90.502
91.5403
126.126
366.775
552.729
636.674
673.735
708.089
738.719
751.768
744.12
721.441
690.656
656.579
621.872
587.908
555.422
524.819
496.307
469.966
445.78
423.666
403.491
385.081
368.243
352.785
338.527
325.318
313.032
301.568
290.839
280.769
271.286
262.322
253.808
245.676
237.858
230.284
222.887
215.602
208.38
201.186
194.015
186.889
179.855
172.975
166.307
159.889
153.722
147.766
141.949
136.186
130.402
124.55
118.626
112.661
106.712
100.84
95.0901
89.4818
84.0083
78.6471
73.3778
68.1991
63.1416
58.274
53.7046
49.5843
46.1166
43.5687
42.2512
42.4112
44.0588
46.871
50.2867
53.7148
56.6964
58.9567
60.3808
60.9635
60.7638
59.8714
58.3874
56.413
54.0441
51.369
48.4687
45.4169
42.2813
39.1244
36.0053
32.982
30.1152
27.4749
25.1474
23.2305
21.8042
20.881
20.3896
20.1896
20.1705
20.2106
19.3634
38.388
66.6926
92.894
114.779
137.931
167.36
203.144
241.38
277.286
307.349
329.854
344.546
352.132
353.852
351.148
345.41
337.805
329.208
320.196
311.104
302.089
293.198
284.423
275.746
267.16
258.678
250.325
242.135
234.136
226.347
218.773
211.408
204.232
197.219
190.334
183.537
176.791
170.065
163.343
156.634
149.973
143.417
137.038
130.907
125.07
119.542
114.29
109.247
104.327
99.4471
94.5539
89.6311
84.7018
79.8159
75.0308
70.392
65.9202
61.6093
57.4356
53.3742
49.4151
45.5754
41.9052
38.4872
35.4386
32.9199
31.1537
30.423
30.9892
32.9222
35.9745
39.6431
43.3649
46.6838
49.3152
51.1297
52.1088
52.301
51.7893
50.6718
49.049
47.0185
44.6715
42.0925
39.3588
36.5412
33.7047
30.9102
28.2163
25.6834
23.379
21.3829
19.7822
18.6455
17.9786
17.7095
17.7059
17.8469
18.1098
9.42275
10.0982
12.2795
15.5352
19.0547
22.7548
27.3045
33.4768
41.7531
52.1548
64.2644
77.397
90.8178
103.907
116.235
127.555
137.749
146.768
154.582
161.16
166.466
170.476
173.19
174.647
174.926
174.144
172.443
169.979
166.901
163.349
159.437
155.256
150.873
146.335
141.671
136.898
132.022
127.043
121.963
116.795
111.566
106.323
101.134
96.0751
91.2238
86.6389
82.347
78.3347
74.5508
70.921
67.3682
63.8338
60.2922
56.7533
53.2546
49.8451
46.5676
43.4448
40.4756
37.6403
34.9137
32.2796
29.7417
27.3287
25.0936
23.1132
21.4946
20.3953
20.0458
20.7132
22.5585
25.4722
29.0663
32.8333
36.3225
39.2272
41.3884
42.76
43.3685
43.282
42.5885
41.3833
39.7616
37.8145
35.6272
33.2784
30.8398
28.3773
25.9512
23.6191
21.4389
19.4736
17.795
16.4794
15.5868
15.1232
15.0244
15.173
15.4401
15.8967
6.09622
6.15866
6.34845
6.71677
7.21254
7.78137
8.4419
9.29492
10.4499
11.9822
13.9235
16.2656
18.9751
22.0153
25.365
29.0271
33.0237
37.3801
42.1025
47.1572
52.4556
57.8528
63.16
68.1703
72.6891
76.5622
79.6928
82.0447
83.634
84.513
84.7539
84.4344
83.6287
82.4024
80.8107
78.8983
76.7013
74.2497
71.5715
68.6985
65.6708
62.5405
59.3716
56.2355
53.2032
50.3338
47.6642
45.2009
42.9197
40.7729
38.7033
36.6611
34.6169
32.5682
30.5353
28.5522
26.6526
24.8591
23.1767
21.5949
20.0952
18.6612
17.2875
15.9849
14.7797
13.7128
12.8414
12.2546
12.1036
12.6154
14.0181
16.3746
19.4791
22.9343
26.3171
29.298
31.6765
33.3647
34.3543
34.6875
34.4338
33.6765
32.5031
31
29.2499
27.3296
25.3098
23.2548
21.223
19.2688
17.4458
15.8107
14.4268
13.3616
12.6695
12.3613
12.3852
12.6434
13.0016
13.6161
4.49314
4.52477
4.56415
4.62496
4.71006
4.81435
4.93637
5.08785
5.28929
5.5587
5.90652
6.33495
6.84013
7.41667
8.06247
8.78236
9.58952
10.5045
11.5523
12.7575
14.1388
15.7023
17.4361
19.3081
21.267
23.2482
25.1825
27.0047
28.6602
30.1085
31.3225
32.2868
32.9942
33.4441
33.6398
33.5883
33.2993
32.785
32.0615
31.1491
30.0748
28.8726
27.5833
26.2526
24.9267
23.6474
22.4459
21.3385
20.3241
19.3859
18.4969
17.6284
16.7589
15.8799
14.9963
14.1237
13.2811
12.4845
11.7422
11.0527
10.4082
9.79881
9.21809
8.66686
8.15432
7.69742
7.32094
7.06398
7.00028
7.26942
8.07592
9.59555
11.8322
14.5736
17.4866
20.2477
22.6189
24.4625
25.7242
26.4084
26.5564
26.231
25.5052
24.4554
23.1571
21.6823
20.0975
18.4634
16.8348
15.2616
13.791
12.4716
11.3572
10.5067
9.972
9.77191
9.87124
10.1941
10.6047
11.3312
3.68578
3.6983
3.71104
3.72596
3.74456
3.767
3.79302
3.8243
3.86502
3.92022
3.99395
4.08819
4.20277
4.33629
4.48737
4.65579
4.84318
5.0531
5.29061
5.56152
5.87136
6.22426
6.62191
7.06264
7.54106
8.04824
8.57246
9.10053
9.61904
10.1154
10.5783
10.998
11.3657
11.6737
11.915
12.0838
12.1753
12.1866
12.1167
11.9677
11.7448
11.457
11.1167
10.7392
10.3414
9.93977
9.54903
9.17976
8.83718
8.52053
8.22377
7.93777
7.65336
7.36435
7.06922
6.77119
6.47663
6.19271
5.92504
5.67613
5.44521
5.22939
5.02561
4.83267
4.6525
4.49054
4.35569
4.26199
4.23653
4.33909
4.6853
5.43392
6.70499
8.48286
10.6006
12.8136
14.8877
16.6505
18.0009
18.8991
19.3497
19.3864
19.0604
18.4322
17.565
16.5216
15.3616
14.1395
12.9049
11.7017
10.5701
9.54922
8.68115
8.01429
7.59738
7.45921
7.58457
7.92293
8.34222
9.12345
3.25194
3.25288
3.25381
3.25487
3.25637
3.25849
3.26125
3.26489
3.2702
3.27852
3.29125
3.30951
3.33379
3.3641
3.40015
3.44181
3.48927
3.54323
3.60479
3.67525
3.75588
3.84762
3.9508
4.065
4.18897
4.32063
4.45725
4.59574
4.73288
4.86563
4.99121
5.10714
5.21121
5.30136
5.37563
5.43211
5.46906
5.485
5.4789
5.45035
5.39979
5.32859
5.23914
5.13474
5.01938
4.89741
4.77316
4.65043
4.53211
4.41974
4.31329
4.21136
4.1117
4.01204
3.91088
3.808
3.70445
3.60221
3.50355
3.41031
3.32346
3.24305
3.16851
3.09935
3.0358
2.97924
2.93238
2.8996
2.88905
2.92011
3.03818
3.32689
3.89126
4.80298
6.0463
7.5122
9.04074
10.4741
11.6907
12.6154
13.2162
13.494
13.4729
13.1915
12.6963
12.0367
11.2617
10.4175
9.54614
8.68476
7.86604
7.11966
6.47577
5.96955
5.64192
5.52808
5.63374
5.93696
6.31838
7.08636
3.00892
3.00296
2.99705
2.99112
2.9852
2.97934
2.97357
2.96791
2.9625
2.95761
2.95364
2.95099
2.94997
2.95076
2.95341
2.95798
2.96458
2.97344
2.98492
2.99944
3.01739
3.03905
3.0645
3.09357
3.12581
3.16053
3.1968
3.2336
3.26987
3.30459
3.33684
3.36582
3.39084
3.41131
3.42667
3.4364
3.44001
3.43709
3.42731
3.4105
3.38669
3.35613
3.31934
3.27706
3.23025
3.18001
3.12751
3.07393
3.02036
2.96765
2.91636
2.86663
2.81824
2.77073
2.72357
2.67643
2.62928
2.58247
2.53664
2.49254
2.4509
2.41219
2.37665
2.34436
2.31543
2.29022
2.26946
2.25436
2.24704
2.25272
2.28549
2.3774
2.58199
2.95979
3.54795
4.33448
5.25617
6.21892
7.12552
7.89645
8.47936
8.84941
9.0049
8.96128
8.7453
8.39011
7.93135
7.40427
6.84179
6.2732
5.72373
5.21502
4.76716
4.40261
4.15015
4.0426
4.09997
4.32775
4.63
5.31416
2.8717
2.86132
2.85101
2.84073
2.83045
2.82017
2.8099
2.79965
2.78942
2.77927
2.76926
2.75951
2.7501
2.74114
2.73267
2.72477
2.71751
2.711
2.70542
2.70094
2.69773
2.69593
2.6956
2.69669
2.69905
2.70243
2.70648
2.71081
2.71501
2.71865
2.72138
2.72287
2.72283
2.72104
2.71729
2.7114
2.70323
2.69262
2.67947
2.66373
2.64538
2.62448
2.60117
2.57564
2.54816
2.51902
2.48859
2.45722
2.42533
2.39329
2.36144
2.33005
2.29927
2.26911
2.23952
2.21038
2.18162
2.15327
2.12545
2.09841
2.07249
2.048
2.02523
2.00439
1.98561
1.96903
1.95484
1.94327
1.93477
1.93046
1.93401
1.95553
2.0159
2.14617
2.37776
2.72732
3.18593
3.71881
4.27463
4.79865
5.24393
5.5778
5.78357
5.85907
5.81353
5.66403
5.43216
5.14122
4.81406
4.47166
4.13217
3.81079
3.52053
3.27464
3.09021
2.99079
2.99859
3.13631
3.33743
3.88092
2.7959
2.78254
2.76926
2.75605
2.74286
2.7297
2.71656
2.70345
2.69036
2.67729
2.66425
2.65124
2.63828
2.6254
2.6126
2.59991
2.58738
2.57506
2.56302
2.55136
2.54016
2.52949
2.51941
2.50991
2.50097
2.49249
2.48435
2.47639
2.46844
2.46034
2.45191
2.44303
2.43355
2.42338
2.41244
2.40065
2.38794
2.37428
2.3596
2.34389
2.32712
2.30932
2.2905
2.2707
2.25001
2.22849
2.20627
2.18348
2.16027
2.13681
2.1133
2.08991
2.06679
2.04404
2.02171
1.99981
1.97833
1.95723
1.93656
1.91638
1.89682
1.87804
1.8602
1.84346
1.82793
1.81365
1.80064
1.78887
1.7783
1.76904
1.76184
1.75938
1.76853
1.80186
1.87609
2.0064
2.1993
2.44837
2.73477
3.03161
3.31008
3.5449
3.71798
3.81979
3.84899
3.81091
3.71558
3.57575
3.40508
3.21686
3.02302
2.83367
2.65718
2.50126
2.37507
2.29234
2.2692
2.3312
2.43767
2.81614
2.75592
2.74056
2.72528
2.71007
2.69491
2.67979
2.66471
2.64967
2.63466
2.61969
2.60474
2.58982
2.5749
2.55999
2.54507
2.53017
2.51528
2.50044
2.48567
2.47101
2.45652
2.44223
2.42817
2.41437
2.40081
2.38747
2.3743
2.36126
2.34826
2.33525
2.32215
2.3089
2.29544
2.28174
2.26776
2.25346
2.23882
2.22381
2.20843
2.19265
2.17645
2.15983
2.14278
2.12529
2.10737
2.08904
2.07032
2.05127
2.03197
2.01249
1.99295
1.97346
1.95412
1.93502
1.91622
1.89775
1.8796
1.8618
1.84433
1.82722
1.81051
1.79428
1.7786
1.76355
1.74917
1.73546
1.72235
1.70974
1.69747
1.6854
1.67355
1.66253
1.65428
1.65311
1.66611
1.70183
1.76728
1.86474
1.99007
2.13319
2.28035
2.41699
2.53031
2.61117
2.65476
2.66052
2.63144
2.57299
2.49206
2.39599
2.29183
2.18582
2.0832
1.98851
1.90653
1.84431
1.81075
1.82541
1.8647
2.0923
2.73613
2.71951
2.70295
2.68644
2.66998
2.65356
2.63719
2.62086
2.60457
2.58831
2.5721
2.55591
2.53974
2.52357
2.50741
2.49124
2.47508
2.45892
2.4428
2.42671
2.41069
2.39476
2.37895
2.36325
2.34768
2.33223
2.31689
2.30163
2.28644
2.27127
2.25611
2.24093
2.22571
2.21043
2.19507
2.17964
2.16412
2.14849
2.13277
2.11692
2.10094
2.0848
2.0685
2.05202
2.03533
2.01843
2.00132
1.98403
1.9666
1.94907
1.93151
1.914
1.89662
1.87941
1.86242
1.84568
1.82921
1.81299
1.79705
1.78138
1.766
1.75094
1.73623
1.72189
1.70792
1.69426
1.68083
1.66749
1.65405
1.64033
1.62621
1.61176
1.59747
1.58466
1.5759
1.57496
1.58607
1.61242
1.65477
1.71073
1.77514
1.84113
1.90151
1.95005
1.9823
1.99598
1.99092
1.96868
1.93207
1.8846
1.82997
1.77171
1.7129
1.65619
1.60408
1.56
1.52805
1.52023
1.52296
1.63829
2.72705
2.70968
2.69236
2.67507
2.65782
2.6406
2.62342
2.60627
2.58915
2.57207
2.55502
2.53801
2.52101
2.50404
2.48707
2.47011
2.45316
2.43623
2.41931
2.40243
2.38559
2.36882
2.35211
2.33549
2.31896
2.30252
2.28617
2.26989
2.25367
2.23752
2.22141
2.20533
2.18929
2.17327
2.15728
2.14131
2.12536
2.10943
2.09352
2.07761
2.06169
2.04576
2.02978
2.01373
1.9976
1.98136
1.96502
1.94858
1.93207
1.91551
1.89896
1.88247
1.86609
1.84985
1.8338
1.81795
1.80231
1.78688
1.77166
1.75665
1.74187
1.72731
1.71299
1.6989
1.68499
1.67122
1.65746
1.64357
1.62937
1.61468
1.59936
1.58337
1.56682
1.55012
1.53412
1.52027
1.51052
1.50691
1.51092
1.52281
1.54138
1.56411
1.58769
1.60866
1.62404
1.6317
1.63055
1.62053
1.60239
1.57751
1.54757
1.51437
1.47955
1.44461
1.41083
1.37987
1.35338
1.33774
1.32559
1.3706
2.72318
2.70542
2.68769
2.66997
2.65228
2.6346
2.61695
2.59932
2.58171
2.56413
2.54657
2.52904
2.51154
2.49405
2.47657
2.45911
2.44167
2.42424
2.40684
2.38947
2.37214
2.35487
2.33767
2.32054
2.30349
2.28652
2.26963
2.25282
2.23609
2.21943
2.20284
2.18632
2.16986
2.15347
2.13715
2.1209
2.10472
2.08861
2.07257
2.0566
2.04068
2.0248
2.00893
1.99306
1.97717
1.96124
1.94525
1.92923
1.91316
1.89709
1.88105
1.86508
1.8492
1.83346
1.81787
1.80245
1.78721
1.77213
1.75723
1.7425
1.72794
1.71356
1.69933
1.68524
1.67125
1.65728
1.64321
1.6289
1.6142
1.59892
1.58295
1.56621
1.54875
1.53071
1.5124
1.49436
1.47739
1.46249
1.45064
1.44256
1.43836
1.43751
1.43885
1.44086
1.44193
1.44066
1.43602
1.4275
1.41504
1.39896
1.37989
1.35859
1.33585
1.31242
1.28894
1.26618
1.24479
1.22772
1.21178
1.21873
2.72162
2.70368
2.68574
2.66781
2.64989
2.63197
2.61407
2.59618
2.5783
2.56044
2.5426
2.52477
2.50696
2.48917
2.47139
2.45362
2.43587
2.41815
2.40045
2.38278
2.36515
2.34758
2.33007
2.31263
2.29526
2.27798
2.26078
2.24366
2.22663
2.20968
2.19281
2.17603
2.15933
2.14272
2.12619
2.10976
2.09343
2.07719
2.06105
2.045
2.02902
2.01312
1.99726
1.98144
1.96563
1.94981
1.93398
1.91814
1.9023
1.88647
1.87067
1.85495
1.83932
1.82381
1.80844
1.79321
1.77812
1.76319
1.74839
1.73374
1.71922
1.70483
1.69056
1.67636
1.6622
1.648
1.63364
1.619
1.60393
1.58828
1.57193
1.55483
1.53699
1.51849
1.49948
1.48019
1.46098
1.44229
1.42464
1.40853
1.3943
1.38204
1.37155
1.36233
1.35371
1.34498
1.33549
1.32477
1.31254
1.29874
1.2835
1.26705
1.2497
1.23175
1.21349
1.19525
1.17728
1.16072
1.14507
1.1339
2.721
2.70297
2.68494
2.66691
2.64887
2.63084
2.61281
2.59479
2.57677
2.55876
2.54077
2.52278
2.5048
2.48684
2.46889
2.45095
2.43303
2.41512
2.39725
2.3794
2.36159
2.34384
2.32614
2.3085
2.29094
2.27346
2.25606
2.23874
2.22151
2.20437
2.18731
2.17035
2.15348
2.13671
2.12004
2.10347
2.08701
2.07066
2.05441
2.03827
2.02222
2.00625
1.99035
1.9745
1.95869
1.94289
1.92711
1.91134
1.89559
1.87986
1.86418
1.84857
1.83305
1.81764
1.80234
1.78718
1.77214
1.75723
1.74243
1.72776
1.71319
1.69872
1.68432
1.66997
1.65561
1.64117
1.62655
1.61163
1.59627
1.58036
1.56379
1.54652
1.52854
1.50991
1.49074
1.47117
1.45138
1.43161
1.41211
1.39318
1.37507
1.35798
1.34197
1.32698
1.31283
1.29922
1.28586
1.27245
1.25878
1.24468
1.23011
1.21508
1.19965
1.1839
1.16792
1.15181
1.1357
1.11981
1.1052
1.08634
2.72072
2.70265
2.68458
2.66649
2.64841
2.63032
2.61223
2.59414
2.57605
2.55797
2.53989
2.52182
2.50375
2.4857
2.46765
2.44962
2.4316
2.4136
2.39562
2.37767
2.35976
2.34189
2.32407
2.30632
2.28863
2.27101
2.25348
2.23602
2.21865
2.20137
2.18418
2.16709
2.15009
2.13319
2.1164
2.09971
2.08314
2.06668
2.05032
2.03408
2.01793
2.00188
1.98591
1.97
1.95414
1.93832
1.92253
1.90676
1.89103
1.87534
1.8597
1.84413
1.82864
1.81325
1.79797
1.78281
1.76775
1.7528
1.73796
1.72322
1.70856
1.69397
1.67943
1.66491
1.65035
1.63568
1.62082
1.60566
1.59008
1.57397
1.55726
1.5399
1.52189
1.50327
1.48413
1.46459
1.44477
1.42481
1.40488
1.38515
1.36577
1.34692
1.32868
1.31114
1.29426
1.278
1.26223
1.24683
1.23167
1.21663
1.20163
1.1866
1.17151
1.15635
1.14112
1.12579
1.11048
1.09493
1.08107
1.05923
2.72055
2.70246
2.68436
2.66626
2.64814
2.63002
2.6119
2.59377
2.57565
2.55752
2.5394
2.52128
2.50317
2.48506
2.46697
2.44888
2.43081
2.41275
2.39471
2.3767
2.35873
2.34079
2.3229
2.30507
2.28729
2.26959
2.25196
2.2344
2.21693
2.19955
2.18225
2.16505
2.14795
2.13095
2.11405
2.09726
2.08058
2.06401
2.04755
2.0312
2.01496
1.99881
1.98275
1.96676
1.95084
1.93496
1.91913
1.90335
1.8876
1.8719
1.85626
1.84069
1.8252
1.8098
1.7945
1.7793
1.7642
1.74919
1.73427
1.71944
1.70467
1.68995
1.67527
1.66057
1.64582
1.63095
1.61588
1.60051
1.58474
1.56849
1.55169
1.53428
1.51629
1.49775
1.47872
1.45931
1.43962
1.41976
1.39986
1.38003
1.36038
1.34102
1.32205
1.30355
1.28554
1.26804
1.25103
1.23447
1.21829
1.20243
1.18682
1.17139
1.1561
1.14088
1.1257
1.11052
1.09541
1.07993
1.0664
1.04344
2.72042
2.70232
2.68421
2.66608
2.64795
2.62981
2.61166
2.59351
2.57536
2.55721
2.53906
2.52092
2.50277
2.48464
2.46651
2.44839
2.43028
2.41219
2.39412
2.37607
2.35805
2.34007
2.32213
2.30424
2.28641
2.26864
2.25094
2.23331
2.21576
2.1983
2.18092
2.16363
2.14643
2.12934
2.11235
2.09546
2.07868
2.06202
2.04546
2.02901
2.01267
1.99643
1.98027
1.9642
1.9482
1.93226
1.91638
1.90054
1.88476
1.86904
1.85338
1.83778
1.82227
1.80684
1.7915
1.77625
1.76109
1.74601
1.73101
1.71608
1.7012
1.68636
1.67153
1.65667
1.64175
1.62669
1.61143
1.59588
1.57997
1.5636
1.54673
1.52931
1.51137
1.49292
1.47403
1.45478
1.43528
1.41561
1.39587
1.37616
1.35658
1.33719
1.31808
1.29932
1.28094
1.26297
1.24542
1.2283
1.21156
1.19518
1.17911
1.16329
1.14769
1.13224
1.1169
1.1016
1.08644
1.07089
1.05743
1.034
2.72031
2.70219
2.68407
2.66593
2.64778
2.62962
2.61146
2.59329
2.57513
2.55696
2.53879
2.52062
2.50245
2.48429
2.46614
2.448
2.42986
2.41175
2.39365
2.37557
2.35752
2.33951
2.32153
2.3036
2.28573
2.26791
2.25015
2.23246
2.21485
2.19731
2.17986
2.1625
2.14522
2.12805
2.11097
2.094
2.07713
2.06037
2.04373
2.02718
2.01075
1.99441
1.97817
1.96201
1.94593
1.92992
1.91397
1.89809
1.88226
1.8665
1.8508
1.83517
1.81962
1.80415
1.78876
1.77345
1.75823
1.74308
1.728
1.71297
1.69798
1.68302
1.66806
1.65305
1.63797
1.62275
1.60733
1.59163
1.57559
1.55913
1.54221
1.5248
1.50691
1.48856
1.46982
1.45075
1.43144
1.41198
1.39245
1.37293
1.35351
1.33425
1.31522
1.29646
1.27803
1.25995
1.24223
1.22487
1.20788
1.19123
1.17489
1.15881
1.14297
1.1273
1.11177
1.09631
1.08103
1.06535
1.05186
1.02819
2.7202
2.70208
2.68394
2.66578
2.64762
2.62945
2.61128
2.5931
2.57491
2.55673
2.53854
2.52035
2.50217
2.48399
2.46581
2.44765
2.4295
2.41136
2.39324
2.37514
2.35706
2.33902
2.32101
2.30305
2.28513
2.26727
2.24946
2.23173
2.21406
2.19646
2.17895
2.16151
2.14417
2.12692
2.10977
2.09272
2.07577
2.05892
2.04219
2.02556
2.00903
1.99261
1.97628
1.96004
1.94388
1.9278
1.91179
1.89584
1.87997
1.86416
1.84842
1.83275
1.81715
1.80163
1.78619
1.77083
1.75554
1.74032
1.72515
1.71003
1.69494
1.67987
1.66478
1.64964
1.63442
1.61905
1.60349
1.58766
1.57152
1.55499
1.53804
1.52065
1.50282
1.48458
1.46598
1.44708
1.42797
1.40871
1.38938
1.37007
1.35084
1.33176
1.31287
1.29422
1.27586
1.2578
1.24006
1.22266
1.20558
1.18881
1.17233
1.15611
1.1401
1.12428
1.10861
1.09302
1.07762
1.06184
1.04828
1.02446
2.7201
2.70196
2.68381
2.66565
2.64748
2.6293
2.61111
2.59291
2.57471
2.55651
2.53831
2.5201
2.5019
2.4837
2.46551
2.44733
2.42916
2.411
2.39285
2.37473
2.35663
2.33856
2.32053
2.30253
2.28458
2.26668
2.24883
2.23105
2.21333
2.19568
2.17811
2.16062
2.14321
2.12589
2.10867
2.09154
2.07452
2.05759
2.04078
2.02406
2.00745
1.99094
1.97453
1.95821
1.94198
1.92583
1.90975
1.89375
1.87782
1.86196
1.84617
1.83045
1.81481
1.79924
1.78375
1.76833
1.75298
1.73768
1.72244
1.70723
1.69205
1.67687
1.66166
1.6464
1.63105
1.61556
1.59988
1.58395
1.56771
1.55113
1.53416
1.5168
1.49903
1.4809
1.46244
1.44371
1.42478
1.40572
1.3866
1.36749
1.34845
1.32955
1.31082
1.29231
1.27406
1.25608
1.23839
1.22101
1.20392
1.18711
1.17057
1.15427
1.13818
1.12227
1.1065
1.09083
1.07534
1.05948
1.04587
1.02194
2.72
2.70186
2.6837
2.66553
2.64734
2.62915
2.61095
2.59274
2.57453
2.55631
2.53809
2.51987
2.50165
2.48344
2.46523
2.44703
2.42883
2.41066
2.39249
2.37435
2.35623
2.33813
2.32007
2.30205
2.28406
2.26613
2.24824
2.23041
2.21265
2.19495
2.17732
2.15977
2.14231
2.12493
2.10764
2.09044
2.07335
2.05635
2.03946
2.02267
2.00598
1.98939
1.9729
1.9565
1.9402
1.92398
1.90784
1.89178
1.87579
1.85988
1.84404
1.82828
1.81258
1.79697
1.78142
1.76594
1.75052
1.73516
1.71984
1.70455
1.68928
1.674
1.65869
1.64333
1.62787
1.61227
1.59648
1.58046
1.56416
1.54754
1.53056
1.51323
1.49553
1.4775
1.45918
1.44061
1.42186
1.40299
1.38407
1.36515
1.3463
1.32757
1.309
1.29064
1.2725
1.25462
1.23701
1.21967
1.20261
1.1858
1.16925
1.15292
1.13678
1.12081
1.10499
1.08926
1.07372
1.05781
1.04416
1.02017
2.71991
2.70176
2.68359
2.66541
2.64722
2.62901
2.6108
2.59258
2.57435
2.55612
2.53789
2.51965
2.50142
2.48319
2.46496
2.44674
2.42853
2.41033
2.39215
2.37399
2.35584
2.33773
2.31964
2.30158
2.28357
2.2656
2.24768
2.22981
2.212
2.19426
2.17658
2.15898
2.14146
2.12402
2.10667
2.08941
2.07225
2.05518
2.03822
2.02135
2.00459
1.98793
1.97137
1.9549
1.93852
1.92224
1.90603
1.88991
1.87387
1.85791
1.84202
1.82621
1.81047
1.7948
1.7792
1.76366
1.74818
1.73275
1.71736
1.702
1.68664
1.67128
1.65588
1.64042
1.62486
1.60917
1.5933
1.57721
1.56086
1.54421
1.52724
1.50995
1.49233
1.4744
1.45621
1.4378
1.41922
1.40054
1.3818
1.36307
1.3444
1.32584
1.30743
1.28921
1.27119
1.25342
1.23588
1.2186
1.20158
1.18479
1.16824
1.15189
1.13574
1.11974
1.10388
1.08811
1.07255