/*--------------------------------*- C++ -*----------------------------------*\
  =========                 |
  \\      /  F ield         | OpenFOAM: The Open Source CFD Toolbox
   \\    /   O peration     | Website:  https://openfoam.org
    \\  /    A nd           | Version:  10
     \\/     M anipulation  |
\*---------------------------------------------------------------------------*/
FoamFile
{
    format      ascii;
    class       volScalarField;
    location    "600";
    object      k;
}
// * * * * * * * * * * * * * * * * * * * * * * * * * * * * * * * * * * * * * //

dimensions      [0 2 -2 0 0 0 0];

internalField   nonuniform List<scalar> 
6820
(
0.19714
0.192517
0.18828
0.184032
0.179769
0.175612
0.171677
0.168043
0.164747
0.161799
0.159191
0.156907
0.154922
0.153212
0.151751
0.150514
0.149479
0.148625
0.147932
0.147382
0.146959
0.14665
0.14644
0.14632
0.146277
0.146304
0.146387
0.146541
0.146693
0.147147
0.145296
0.161185
0.0879638
0.207249
0.212376
0.210055
0.205415
0.200992
0.197546
0.195134
0.193603
0.192764
0.192452
0.192541
0.19293
0.193549
0.194341
0.195265
0.196289
0.197388
0.198543
0.199739
0.200962
0.202203
0.203454
0.204708
0.205962
0.207212
0.208458
0.209702
0.210962
0.212207
0.213648
0.214792
0.218303
0.215917
0.200993
0.203848
0.204552
0.203319
0.201178
0.198804
0.196517
0.19445
0.192646
0.19111
0.189829
0.188783
0.187951
0.18731
0.18684
0.186519
0.186331
0.186258
0.186287
0.186404
0.186598
0.186859
0.187179
0.187549
0.187963
0.188417
0.188906
0.189432
0.189983
0.190612
0.191206
0.192041
0.192752
0.199593
0.199508
0.199518
0.199121
0.198258
0.197061
0.195675
0.194213
0.192747
0.191324
0.189971
0.188706
0.187534
0.18646
0.185482
0.184598
0.183805
0.183096
0.182468
0.181914
0.181429
0.181009
0.180647
0.180341
0.180086
0.179878
0.179714
0.179593
0.179512
0.179481
0.179484
0.17954
0.179665
0.199411
0.198475
0.197748
0.197076
0.196333
0.195471
0.194494
0.193432
0.192315
0.191174
0.190031
0.188903
0.187803
0.18674
0.18572
0.184745
0.18382
0.182943
0.182116
0.181337
0.180605
0.179919
0.179277
0.178678
0.178118
0.177598
0.177115
0.176668
0.176256
0.17588
0.175539
0.17523
0.174959
0.199394
0.198255
0.197227
0.19629
0.195404
0.194526
0.193632
0.192711
0.191766
0.190801
0.189826
0.188849
0.187877
0.186918
0.185977
0.185057
0.184162
0.183294
0.182454
0.181645
0.180865
0.180116
0.179397
0.178708
0.178048
0.177417
0.176815
0.17624
0.175693
0.175173
0.174679
0.174211
0.173769
0.199394
0.198216
0.197096
0.196039
0.195039
0.194083
0.193156
0.192245
0.191344
0.190447
0.189554
0.188666
0.187784
0.186912
0.18605
0.185202
0.18437
0.183554
0.182757
0.18198
0.181223
0.180488
0.179773
0.17908
0.178408
0.177758
0.177129
0.176522
0.175935
0.17537
0.174825
0.174301
0.173797
0.199395
0.19821
0.197068
0.19597
0.194919
0.193911
0.192942
0.192005
0.191095
0.190207
0.189337
0.188484
0.187645
0.18682
0.186009
0.185212
0.184429
0.183662
0.18291
0.182174
0.181454
0.180751
0.180065
0.179396
0.178744
0.178109
0.177491
0.17689
0.176306
0.17574
0.17519
0.174657
0.174141
0.199395
0.198209
0.197062
0.195954
0.194886
0.193855
0.192862
0.191903
0.190976
0.190078
0.189205
0.188357
0.18753
0.186723
0.185934
0.185164
0.18441
0.183673
0.182952
0.182247
0.181558
0.180884
0.180226
0.179583
0.178956
0.178343
0.177746
0.177164
0.176596
0.176044
0.175506
0.174983
0.174475
0.199395
0.198209
0.197061
0.195951
0.194877
0.193839
0.192835
0.191865
0.190927
0.190019
0.189139
0.188287
0.187459
0.186654
0.185872
0.185111
0.184369
0.183646
0.182941
0.182253
0.181583
0.180928
0.18029
0.179666
0.179058
0.178465
0.177886
0.177322
0.176772
0.176235
0.175713
0.175204
0.174708
0.199395
0.198209
0.197061
0.19595
0.194875
0.193834
0.192827
0.191853
0.190909
0.189996
0.189111
0.188254
0.187422
0.186616
0.185833
0.185073
0.184334
0.183616
0.182917
0.182237
0.181575
0.18093
0.180302
0.17969
0.179094
0.178513
0.177947
0.177395
0.176857
0.176333
0.175823
0.175326
0.174842
0.199395
0.198209
0.19706
0.195949
0.194874
0.193833
0.192825
0.191849
0.190903
0.189987
0.1891
0.18824
0.187406
0.186597
0.185813
0.185051
0.184312
0.183594
0.182897
0.182219
0.18156
0.180919
0.180295
0.179689
0.179098
0.178524
0.177964
0.177419
0.176889
0.176373
0.17587
0.175381
0.174904
0.199395
0.198209
0.19706
0.195949
0.194873
0.193832
0.192823
0.191847
0.190901
0.189984
0.189095
0.188234
0.187399
0.186589
0.185803
0.18504
0.1843
0.183581
0.182884
0.182206
0.181547
0.180907
0.180285
0.17968
0.179092
0.17852
0.177964
0.177422
0.176895
0.176383
0.175884
0.175399
0.174927
0.199395
0.198209
0.19706
0.195948
0.194873
0.193831
0.192823
0.191846
0.190899
0.189982
0.189093
0.188231
0.187395
0.186585
0.185798
0.185035
0.184294
0.183575
0.182876
0.182198
0.181539
0.180899
0.180277
0.179672
0.179085
0.178513
0.177958
0.177418
0.176892
0.176381
0.175884
0.1754
0.17493
0.199395
0.198208
0.19706
0.195948
0.194872
0.193831
0.192822
0.191845
0.190898
0.189981
0.189092
0.188229
0.187393
0.186582
0.185795
0.185032
0.18429
0.183571
0.182872
0.182193
0.181534
0.180894
0.180271
0.179667
0.179079
0.178508
0.177952
0.177412
0.176887
0.176376
0.17588
0.175397
0.174927
0.199395
0.198208
0.19706
0.195948
0.194872
0.19383
0.192821
0.191844
0.190898
0.18998
0.189091
0.188228
0.187392
0.18658
0.185793
0.185029
0.184288
0.183568
0.182869
0.18219
0.181531
0.18089
0.180268
0.179663
0.179075
0.178503
0.177948
0.177407
0.176882
0.176371
0.175875
0.175391
0.174921
0.199395
0.198208
0.19706
0.195948
0.194872
0.19383
0.192821
0.191844
0.190897
0.189979
0.18909
0.188227
0.18739
0.186579
0.185792
0.185028
0.184286
0.183566
0.182867
0.182188
0.181528
0.180887
0.180265
0.17966
0.179071
0.1785
0.177944
0.177404
0.176878
0.176367
0.17587
0.175387
0.174916
0.199395
0.198208
0.19706
0.195948
0.194872
0.19383
0.192821
0.191843
0.190896
0.189978
0.189089
0.188226
0.187389
0.186578
0.18579
0.185026
0.184284
0.183564
0.182865
0.182186
0.181526
0.180885
0.180262
0.179657
0.179069
0.178497
0.177941
0.1774
0.176874
0.176363
0.175866
0.175382
0.174912
0.199395
0.198208
0.197059
0.195948
0.194871
0.193829
0.19282
0.191843
0.190896
0.189978
0.189088
0.188225
0.187388
0.186577
0.185789
0.185025
0.184283
0.183563
0.182863
0.182184
0.181524
0.180883
0.18026
0.179654
0.179066
0.178494
0.177938
0.177397
0.176871
0.17636
0.175862
0.175378
0.174907
0.199395
0.198208
0.197059
0.195948
0.194871
0.193829
0.19282
0.191842
0.190895
0.189977
0.189087
0.188224
0.187387
0.186576
0.185788
0.185023
0.184281
0.183561
0.182861
0.182182
0.181522
0.180881
0.180258
0.179652
0.179064
0.178492
0.177935
0.177394
0.176868
0.176356
0.175859
0.175374
0.174903
0.199395
0.198208
0.197059
0.195947
0.194871
0.193829
0.19282
0.191842
0.190895
0.189977
0.189087
0.188224
0.187387
0.186575
0.185787
0.185022
0.18428
0.18356
0.18286
0.182181
0.18152
0.180879
0.180256
0.17965
0.179062
0.178489
0.177933
0.177392
0.176865
0.176353
0.175855
0.175371
0.174899
0.199395
0.198208
0.197059
0.195947
0.194871
0.193829
0.192819
0.191842
0.190894
0.189976
0.189086
0.188223
0.187386
0.186574
0.185786
0.185021
0.184279
0.183559
0.182859
0.182179
0.181519
0.180877
0.180254
0.179648
0.179059
0.178487
0.17793
0.177389
0.176862
0.17635
0.175852
0.175367
0.174896
0.199395
0.198208
0.197059
0.195947
0.194871
0.193829
0.192819
0.191842
0.190894
0.189976
0.189086
0.188223
0.187385
0.186573
0.185785
0.185021
0.184278
0.183557
0.182858
0.182178
0.181518
0.180876
0.180253
0.179647
0.179058
0.178485
0.177928
0.177387
0.17686
0.176348
0.175849
0.175364
0.174892
0.199395
0.198208
0.197059
0.195947
0.194871
0.193829
0.192819
0.191841
0.190894
0.189976
0.189085
0.188222
0.187385
0.186573
0.185785
0.18502
0.184277
0.183557
0.182857
0.182177
0.181516
0.180875
0.180251
0.179645
0.179056
0.178483
0.177926
0.177384
0.176858
0.176345
0.175846
0.175361
0.174889
0.199395
0.198208
0.197059
0.195947
0.194871
0.193828
0.192819
0.191841
0.190894
0.189975
0.189085
0.188222
0.187384
0.186572
0.185784
0.185019
0.184277
0.183556
0.182856
0.182176
0.181515
0.180873
0.18025
0.179644
0.179054
0.178481
0.177924
0.177382
0.176855
0.176343
0.175844
0.175358
0.174886
0.199395
0.198208
0.197059
0.195947
0.194871
0.193828
0.192819
0.191841
0.190893
0.189975
0.189085
0.188221
0.187384
0.186572
0.185783
0.185019
0.184276
0.183555
0.182855
0.182175
0.181514
0.180872
0.180248
0.179642
0.179053
0.17848
0.177922
0.17738
0.176853
0.17634
0.175841
0.175356
0.174883
0.199395
0.198208
0.197059
0.195947
0.194871
0.193828
0.192819
0.191841
0.190893
0.189975
0.189084
0.188221
0.187384
0.186571
0.185783
0.185018
0.184275
0.183554
0.182854
0.182174
0.181513
0.180871
0.180247
0.179641
0.179051
0.178478
0.177921
0.177379
0.176851
0.176338
0.175839
0.175353
0.174881
0.199395
0.198208
0.197059
0.195947
0.194871
0.193828
0.192819
0.191841
0.190893
0.189975
0.189084
0.188221
0.187383
0.186571
0.185783
0.185018
0.184275
0.183554
0.182854
0.182173
0.181513
0.180871
0.180247
0.17964
0.17905
0.178477
0.17792
0.177377
0.17685
0.176337
0.175837
0.175351
0.174878
0.199395
0.198208
0.197059
0.195947
0.194871
0.193828
0.192819
0.191841
0.190893
0.189975
0.189084
0.188221
0.187383
0.186571
0.185783
0.185017
0.184275
0.183553
0.182853
0.182173
0.181512
0.18087
0.180246
0.179639
0.179049
0.178476
0.177918
0.177376
0.176848
0.176335
0.175836
0.17535
0.174876
0.199395
0.198208
0.197059
0.195947
0.194871
0.193828
0.192819
0.191841
0.190893
0.189975
0.189084
0.188221
0.187383
0.186571
0.185782
0.185017
0.184274
0.183553
0.182853
0.182173
0.181512
0.180869
0.180245
0.179639
0.179049
0.178475
0.177918
0.177375
0.176847
0.176334
0.175834
0.175348
0.174875
0.199395
0.198208
0.197059
0.195947
0.194871
0.193828
0.192819
0.191841
0.190893
0.189975
0.189084
0.188221
0.187383
0.186571
0.185782
0.185017
0.184274
0.183553
0.182853
0.182172
0.181511
0.180869
0.180245
0.179638
0.179048
0.178475
0.177917
0.177374
0.176847
0.176333
0.175833
0.175347
0.174874
0.199395
0.198208
0.197059
0.195947
0.194871
0.193828
0.192819
0.191841
0.190893
0.189975
0.189084
0.188221
0.187383
0.186571
0.185783
0.185018
0.184275
0.183554
0.182853
0.182173
0.181512
0.18087
0.180245
0.179639
0.179049
0.178475
0.177917
0.177374
0.176847
0.176333
0.175833
0.175346
0.174873
0.199395
0.198208
0.197059
0.195947
0.194871
0.193828
0.192819
0.191841
0.190893
0.189975
0.189085
0.188221
0.187384
0.186572
0.185783
0.185018
0.184276
0.183554
0.182854
0.182174
0.181513
0.180871
0.180246
0.179639
0.179049
0.178476
0.177917
0.177374
0.176846
0.176332
0.175832
0.175345
0.174871
0.199395
0.198208
0.197059
0.195947
0.194871
0.193829
0.19282
0.191842
0.190895
0.189977
0.189088
0.188225
0.187388
0.186576
0.185788
0.185024
0.184281
0.18356
0.18286
0.182179
0.181518
0.180875
0.18025
0.179642
0.179051
0.178476
0.177917
0.177372
0.176842
0.176326
0.175824
0.175335
0.174859
0.199395
0.198208
0.197059
0.195948
0.194872
0.193831
0.192824
0.191848
0.190902
0.189985
0.189097
0.188235
0.187399
0.186587
0.185799
0.185034
0.184291
0.183568
0.182866
0.182183
0.181519
0.180873
0.180244
0.179632
0.179037
0.178457
0.177892
0.177342
0.176806
0.176284
0.175775
0.175279
0.174795
0.199395
0.198209
0.197062
0.195955
0.194886
0.193853
0.192853
0.191884
0.190944
0.190032
0.189145
0.188283
0.187445
0.186629
0.185836
0.185063
0.184311
0.183579
0.182865
0.18217
0.181493
0.180833
0.18019
0.179563
0.178952
0.178356
0.177774
0.177207
0.176654
0.176114
0.175588
0.175074
0.174572
0.199395
0.198223
0.197107
0.196032
0.194988
0.193971
0.192978
0.192008
0.191061
0.190136
0.189233
0.188352
0.187492
0.186652
0.185832
0.185032
0.184252
0.18349
0.182746
0.182021
0.181312
0.18062
0.179945
0.179286
0.178642
0.178013
0.177398
0.176798
0.176212
0.17564
0.17508
0.174533
0.173999
0.19941
0.198318
0.197296
0.1963
0.195309
0.194317
0.193327
0.192343
0.191371
0.190414
0.189475
0.188557
0.18766
0.186785
0.18593
0.185097
0.184285
0.183493
0.18272
0.181965
0.18123
0.180511
0.17981
0.179125
0.178456
0.177803
0.177165
0.176542
0.175932
0.175337
0.174756
0.174187
0.173632
0.199716
0.19914
0.198471
0.197766
0.197074
0.196421
0.195815
0.195255
0.19474
0.194268
0.193839
0.19345
0.1931
0.192786
0.192508
0.192262
0.192047
0.19186
0.191701
0.191566
0.191454
0.191364
0.191293
0.19124
0.191205
0.191185
0.191179
0.191186
0.191206
0.191237
0.191279
0.19133
0.19139
0.205424
0.216593
0.22763
0.238435
0.248976
0.259243
0.269229
0.278925
0.288324
0.297421
0.306212
0.314695
0.322869
0.330736
0.338298
0.345559
0.352524
0.359198
0.365587
0.371699
0.377541
0.383121
0.388447
0.393528
0.398371
0.402986
0.407382
0.411566
0.415548
0.419335
0.422936
0.426358
0.429613
0.343923
0.905722
1.32162
1.47902
1.52585
1.58247
1.66191
1.73624
1.7892
1.82095
1.83728
1.84319
1.84176
1.83497
1.82436
1.81129
1.797
1.7825
1.76855
1.75564
1.74396
1.73346
1.72397
1.71522
1.70701
1.6992
1.69172
1.6846
1.67787
1.67155
1.66564
1.66006
1.65468
1.6493
1.64364
1.63736
1.63006
1.62135
1.6109
1.59852
1.58428
1.56848
1.55168
1.53455
1.51771
1.50152
1.4859
1.47032
1.45386
1.43549
1.41433
1.38991
1.36228
1.33192
1.29955
1.26587
1.23127
1.19573
1.15881
1.11995
1.07869
1.03499
0.989428
0.943273
0.898573
0.858323
0.826901
0.810598
0.817059
0.851997
0.914298
0.994433
1.0786
1.1546
1.21497
1.2568
1.28027
1.28714
1.27969
1.2603
1.23114
1.19412
1.15092
1.10302
1.05172
0.998216
0.943615
0.889003
0.835518
0.784494
0.737712
0.697707
0.667765
0.650989
0.648418
0.657655
0.673843
0.691847
0.708255
0.726218
0.222733
0.276389
0.360536
0.4381
0.499018
0.557021
0.628023
0.717191
0.818502
0.921459
1.01704
1.09989
1.16802
1.22182
1.26312
1.29444
1.31843
1.33738
1.35298
1.3663
1.37786
1.38778
1.39597
1.40225
1.40655
1.40888
1.4094
1.40835
1.40603
1.4027
1.39857
1.39377
1.38835
1.38228
1.3754
1.36754
1.35841
1.34773
1.33526
1.32086
1.30462
1.28687
1.26815
1.24919
1.2307
1.21316
1.19667
1.18087
1.16497
1.14798
1.12899
1.10742
1.08316
1.05661
1.02843
0.999368
0.969915
0.940181
0.909876
0.878479
0.84551
0.810809
0.774735
0.738266
0.703039
0.671462
0.647101
0.635346
0.643427
0.677813
0.73917
0.819645
0.906136
0.986249
1.05191
1.09963
1.12913
1.14188
1.14004
1.1259
1.10164
1.06921
1.03035
0.986607
0.939358
0.889855
0.83926
0.788696
0.739311
0.692423
0.649757
0.613771
0.587697
0.574668
0.575793
0.588698
0.608447
0.629894
0.649281
0.671657
0.192721
0.19529
0.203787
0.216657
0.230521
0.244309
0.259731
0.279552
0.306027
0.340026
0.380918
0.427046
0.476433
0.52734
0.578499
0.629094
0.678589
0.726553
0.772539
0.816036
0.856495
0.893386
0.92627
0.954856
0.979043
0.998926
1.01477
1.02698
1.036
1.04228
1.04623
1.04817
1.04831
1.0468
1.04368
1.03891
1.03241
1.02402
1.01365
1.00123
0.986896
0.970952
0.953933
0.93653
0.919473
0.903359
0.888477
0.874697
0.861466
0.847954
0.833288
0.816818
0.79829
0.777898
0.756187
0.733836
0.711412
0.689178
0.667022
0.644558
0.621336
0.597095
0.571964
0.54656
0.522014
0.500014
0.48306
0.475149
0.482404
0.511751
0.566382
0.641602
0.726179
0.807871
0.877774
0.931379
0.967579
0.98727
0.99228
0.984733
0.966738
0.940252
0.907045
0.868707
0.826667
0.782222
0.736567
0.690838
0.646163
0.603789
0.5653
0.532938
0.509767
0.498981
0.502057
0.517059
0.539246
0.563499
0.585559
0.612269
0.179661
0.179591
0.180127
0.181638
0.183894
0.186494
0.189311
0.192615
0.19685
0.202429
0.209635
0.21861
0.229416
0.242122
0.25687
0.273896
0.293495
0.315932
0.341334
0.369587
0.400265
0.432627
0.465682
0.498327
0.529504
0.558344
0.584254
0.606936
0.626342
0.642598
0.655924
0.66656
0.674725
0.680592
0.684281
0.68586
0.685349
0.682736
0.678013
0.671218
0.66249
0.652107
0.640512
0.628279
0.616049
0.604405
0.593746
0.584165
0.575406
0.566924
0.558039
0.548147
0.536896
0.524283
0.510628
0.496443
0.482243
0.468371
0.454891
0.441603
0.428175
0.414327
0.400004
0.385483
0.371397
0.35873
0.348936
0.344434
0.349514
0.370433
0.412548
0.475457
0.551537
0.629792
0.700702
0.758444
0.800671
0.827357
0.839735
0.83958
0.828811
0.809302
0.782798
0.750895
0.715042
0.676556
0.636644
0.596432
0.55701
0.519523
0.485351
0.45642
0.435472
0.425694
0.429092
0.444546
0.467847
0.494017
0.518201
0.548893
0.174651
0.174262
0.17391
0.173712
0.173715
0.173881
0.174156
0.174533
0.175066
0.175828
0.176878
0.178257
0.179992
0.182117
0.184693
0.187822
0.191653
0.196365
0.202162
0.209236
0.217741
0.227752
0.239231
0.252012
0.265805
0.280229
0.294868
0.309323
0.323248
0.336373
0.348496
0.359469
0.369181
0.377543
0.384481
0.38993
0.393835
0.396154
0.396865
0.395988
0.393606
0.389885
0.385093
0.379583
0.373765
0.368051
0.362776
0.358128
0.354095
0.350455
0.346843
0.342858
0.338193
0.332726
0.32655
0.319926
0.313187
0.306617
0.300365
0.294402
0.288569
0.282669
0.276584
0.270364
0.264265
0.258746
0.254496
0.252675
0.255605
0.267594
0.294209
0.338733
0.398611
0.466096
0.532212
0.590056
0.635782
0.668071
0.687224
0.694405
0.69116
0.679144
0.659984
0.635215
0.606259
0.574416
0.540879
0.506747
0.473056
0.440838
0.411251
0.385834
0.366856
0.357286
0.359619
0.373827
0.39664
0.423475
0.448904
0.48284
0.173277
0.172718
0.172158
0.17162
0.171125
0.170682
0.170284
0.169929
0.16962
0.169373
0.169199
0.169108
0.169103
0.169191
0.169382
0.169699
0.170176
0.17086
0.171802
0.173057
0.174678
0.176706
0.179169
0.182071
0.185392
0.189088
0.193095
0.197335
0.201728
0.206194
0.210655
0.215036
0.219263
0.223256
0.226933
0.230212
0.233011
0.235257
0.236888
0.237867
0.238185
0.237871
0.237002
0.235696
0.234108
0.232409
0.230766
0.229305
0.228088
0.22709
0.226202
0.225262
0.224107
0.222624
0.220789
0.218666
0.216388
0.214104
0.211934
0.209928
0.208058
0.206248
0.204418
0.202544
0.200688
0.199017
0.197803
0.197497
0.19907
0.204702
0.2182
0.243727
0.282831
0.332541
0.386602
0.438394
0.48299
0.517667
0.541509
0.554779
0.558407
0.553646
0.541868
0.524448
0.502707
0.477878
0.451102
0.423427
0.395821
0.369205
0.344526
0.322937
0.306126
0.296569
0.296941
0.308338
0.328839
0.354676
0.380057
0.415986
0.173232
0.172596
0.171959
0.171324
0.170697
0.170082
0.169482
0.168899
0.168333
0.167788
0.16727
0.16678
0.166321
0.165892
0.165496
0.165139
0.16483
0.16458
0.164406
0.164322
0.164343
0.16448
0.16474
0.165125
0.165633
0.166254
0.166977
0.167786
0.168665
0.1696
0.170575
0.171575
0.172584
0.173584
0.174552
0.175464
0.176292
0.177007
0.177582
0.177996
0.178232
0.178285
0.178161
0.177881
0.177477
0.176994
0.176483
0.175992
0.17556
0.175206
0.174918
0.174659
0.174373
0.174007
0.173526
0.172925
0.172232
0.171498
0.170782
0.17013
0.169562
0.169071
0.168631
0.168223
0.167852
0.167563
0.167445
0.167648
0.168498
0.170856
0.176602
0.188598
0.209445
0.23962
0.276703
0.316354
0.354059
0.38637
0.411276
0.428012
0.436693
0.437976
0.432816
0.422299
0.407547
0.389655
0.369657
0.348513
0.327101
0.306229
0.286662
0.269225
0.255045
0.245902
0.244184
0.251751
0.268207
0.291101
0.314748
0.350816
0.173558
0.172902
0.172244
0.171583
0.170922
0.170262
0.169604
0.168951
0.168304
0.167663
0.167032
0.166411
0.165802
0.165204
0.164619
0.164049
0.163495
0.162963
0.162458
0.161986
0.161551
0.161157
0.160807
0.160501
0.160238
0.160015
0.159829
0.159675
0.159548
0.159446
0.159364
0.1593
0.159251
0.159213
0.159182
0.159153
0.159117
0.159067
0.158995
0.158892
0.158752
0.15857
0.158342
0.158069
0.157754
0.157405
0.157034
0.156655
0.156284
0.155935
0.155617
0.155326
0.155052
0.154778
0.154486
0.154164
0.153812
0.15344
0.153069
0.152724
0.152425
0.152185
0.152006
0.151883
0.151814
0.151809
0.151891
0.152097
0.152516
0.153428
0.155581
0.160414
0.169783
0.185063
0.20621
0.231545
0.258349
0.283772
0.305527
0.322171
0.333069
0.338214
0.338028
0.333196
0.324536
0.312919
0.299205
0.284214
0.268701
0.253347
0.238762
0.225528
0.214338
0.206292
0.203133
0.206835
0.218202
0.236385
0.256475
0.290311
0.173899
0.173248
0.172594
0.171937
0.171277
0.170614
0.169948
0.169283
0.168617
0.167953
0.16729
0.16663
0.165973
0.16532
0.16467
0.164024
0.163385
0.162753
0.162132
0.161524
0.160932
0.160357
0.159801
0.159265
0.158747
0.158248
0.157766
0.157298
0.156844
0.156403
0.155973
0.155555
0.155148
0.154752
0.154367
0.153992
0.153626
0.153266
0.152909
0.152555
0.152198
0.151837
0.151468
0.151088
0.150696
0.15029
0.149872
0.149446
0.149017
0.148593
0.148182
0.147789
0.147416
0.14706
0.146716
0.146376
0.146035
0.145695
0.145358
0.145036
0.14474
0.144483
0.144272
0.144111
0.144001
0.143941
0.143934
0.143983
0.144098
0.144351
0.144992
0.146622
0.150222
0.156859
0.167157
0.180885
0.196957
0.21376
0.229607
0.243088
0.253256
0.259647
0.262213
0.261217
0.257124
0.250516
0.242025
0.232278
0.221871
0.211342
0.201162
0.191743
0.183501
0.177042
0.173426
0.174201
0.180644
0.193242
0.208386
0.237531
0.174146
0.173509
0.17287
0.172226
0.171578
0.170926
0.170271
0.169613
0.168952
0.168291
0.167628
0.166964
0.166299
0.165634
0.164968
0.164301
0.163636
0.162972
0.162311
0.161656
0.161007
0.160367
0.159736
0.159115
0.158504
0.157903
0.157312
0.156729
0.156154
0.155588
0.155029
0.154478
0.153936
0.153403
0.15288
0.152367
0.151864
0.151371
0.150888
0.150414
0.149946
0.149484
0.149024
0.148564
0.148101
0.147633
0.147158
0.146678
0.146194
0.145711
0.145234
0.144769
0.144319
0.143887
0.143472
0.143072
0.142683
0.142303
0.141931
0.141571
0.141229
0.140911
0.140624
0.140372
0.140158
0.139979
0.139831
0.139706
0.139595
0.139504
0.139499
0.139795
0.140825
0.143196
0.147472
0.153895
0.162221
0.171768
0.1816
0.190754
0.198417
0.204025
0.207292
0.208187
0.206875
0.203664
0.198941
0.193128
0.186645
0.17988
0.173178
0.166829
0.161091
0.156284
0.15297
0.152122
0.154861
0.162292
0.172152
0.194827
0.174292
0.17367
0.173044
0.172414
0.17178
0.171142
0.170501
0.169856
0.169208
0.168557
0.167904
0.167249
0.166591
0.165931
0.165268
0.164602
0.163935
0.163267
0.162599
0.161932
0.161268
0.160608
0.159952
0.159302
0.158658
0.15802
0.157388
0.156762
0.156142
0.155527
0.154918
0.154316
0.15372
0.153131
0.15255
0.151978
0.151416
0.150864
0.150321
0.149788
0.149263
0.148745
0.148232
0.147722
0.147211
0.146699
0.146182
0.145662
0.14514
0.144617
0.144098
0.143588
0.14309
0.142607
0.14214
0.141688
0.14125
0.140825
0.14041
0.140006
0.139615
0.139242
0.138888
0.138557
0.13825
0.137964
0.137692
0.137425
0.137149
0.136853
0.136545
0.136289
0.13625
0.136714
0.138029
0.140479
0.144142
0.148826
0.154118
0.159482
0.164378
0.168354
0.171099
0.17246
0.172429
0.171118
0.16872
0.165479
0.161656
0.157507
0.153267
0.149134
0.145276
0.141864
0.139175
0.137735
0.138274
0.141882
0.147262
0.163013
0.174364
0.173751
0.173136
0.172517
0.171894
0.171268
0.170639
0.170006
0.16937
0.168731
0.168089
0.167444
0.166797
0.166146
0.165492
0.164835
0.164176
0.163514
0.162851
0.162187
0.161524
0.160862
0.160203
0.159547
0.158894
0.158246
0.157602
0.156961
0.156326
0.155694
0.155067
0.154445
0.153828
0.153217
0.152613
0.152016
0.151427
0.150847
0.150276
0.149713
0.149157
0.148609
0.148065
0.147524
0.146983
0.146442
0.145898
0.145352
0.144804
0.144256
0.143712
0.143174
0.142645
0.142129
0.141626
0.141137
0.140662
0.140198
0.139746
0.139304
0.138873
0.138455
0.13805
0.137659
0.137282
0.136915
0.13655
0.136178
0.135785
0.135358
0.13489
0.134394
0.133924
0.133597
0.133588
0.134089
0.135237
0.137051
0.139407
0.142063
0.144718
0.147075
0.148887
0.14999
0.150305
0.149841
0.148667
0.146902
0.144692
0.142189
0.13954
0.136876
0.134306
0.131926
0.12987
0.128395
0.127896
0.129167
0.131461
0.141139
0.174391
0.173784
0.173175
0.172563
0.171948
0.171329
0.170708
0.170084
0.169456
0.168826
0.168194
0.167558
0.16692
0.166278
0.165633
0.164986
0.164335
0.163682
0.163027
0.16237
0.161713
0.161057
0.160402
0.159748
0.159097
0.158449
0.157803
0.157161
0.156522
0.155886
0.155254
0.154626
0.154002
0.153383
0.15277
0.152163
0.151563
0.15097
0.150385
0.149806
0.149234
0.148668
0.148106
0.147546
0.146987
0.146428
0.145867
0.145304
0.14474
0.144177
0.143616
0.143061
0.142513
0.141975
0.141449
0.140934
0.14043
0.139938
0.139456
0.138983
0.13852
0.138067
0.137623
0.137188
0.13676
0.136334
0.135903
0.135457
0.134985
0.134472
0.133911
0.1333
0.132654
0.132016
0.131462
0.131096
0.131018
0.131298
0.131938
0.132864
0.133944
0.135013
0.135912
0.136508
0.136714
0.136493
0.135851
0.134833
0.133507
0.131956
0.130264
0.128512
0.126767
0.125088
0.123537
0.122236
0.121368
0.121425
0.121956
0.1271
0.174397
0.173793
0.173186
0.172577
0.171966
0.171352
0.170735
0.170116
0.169494
0.168869
0.168242
0.167613
0.166981
0.166346
0.165708
0.165067
0.164424
0.163778
0.16313
0.162481
0.161831
0.161181
0.160531
0.159883
0.159235
0.15859
0.157947
0.157307
0.156669
0.156034
0.155402
0.154773
0.154148
0.153527
0.152911
0.1523
0.151695
0.151096
0.150502
0.149915
0.149334
0.148757
0.148184
0.147613
0.147043
0.146472
0.145901
0.145328
0.144754
0.144181
0.143611
0.143044
0.142484
0.141932
0.141389
0.140856
0.140333
0.139819
0.139314
0.138818
0.138329
0.137848
0.137374
0.136906
0.136439
0.13597
0.135492
0.134995
0.134468
0.1339
0.133283
0.132611
0.131888
0.13113
0.130369
0.129651
0.129036
0.128579
0.128314
0.128241
0.128323
0.12849
0.128655
0.128736
0.128663
0.12839
0.127899
0.127193
0.126297
0.125249
0.124092
0.122872
0.121627
0.120391
0.119195
0.118094
0.117165
0.116676
0.116369
0.11855
0.174394
0.173791
0.173185
0.172577
0.171967
0.171355
0.17074
0.170123
0.169504
0.168882
0.168258
0.167632
0.167003
0.166372
0.165739
0.165102
0.164464
0.163823
0.163181
0.162537
0.161892
0.161246
0.160601
0.159957
0.159313
0.158671
0.158031
0.157393
0.156757
0.156123
0.155492
0.154864
0.154239
0.153618
0.153001
0.152388
0.15178
0.151177
0.15058
0.149988
0.1494
0.148816
0.148236
0.147658
0.14708
0.146503
0.145924
0.145345
0.144766
0.144187
0.14361
0.143037
0.142469
0.141907
0.141353
0.140807
0.14027
0.13974
0.139218
0.138703
0.138194
0.137691
0.137193
0.136698
0.136202
0.135701
0.135188
0.134654
0.13409
0.133486
0.132833
0.132128
0.131371
0.130567
0.129731
0.128884
0.128057
0.127284
0.126594
0.126007
0.125524
0.125127
0.124783
0.124449
0.124082
0.123647
0.12312
0.122492
0.121763
0.120946
0.12006
0.119124
0.11816
0.117185
0.116215
0.115271
0.114385
0.113687
0.113059
0.113514
0.174388
0.173785
0.17318
0.172572
0.171962
0.17135
0.170736
0.170119
0.169501
0.16888
0.168257
0.167632
0.167005
0.166376
0.165744
0.16511
0.164474
0.163836
0.163197
0.162556
0.161914
0.161272
0.160629
0.159988
0.159346
0.158706
0.158068
0.157431
0.156796
0.156163
0.155532
0.154904
0.154279
0.153658
0.15304
0.152425
0.151815
0.15121
0.150609
0.150013
0.149421
0.148832
0.148246
0.147663
0.14708
0.146498
0.145915
0.145332
0.144749
0.144166
0.143585
0.143008
0.142434
0.141866
0.141304
0.140749
0.140201
0.139659
0.139123
0.138593
0.138069
0.137548
0.137031
0.136515
0.135996
0.135469
0.13493
0.134369
0.133778
0.133149
0.132475
0.131751
0.130978
0.130158
0.129298
0.12841
0.12751
0.126616
0.12575
0.124929
0.124164
0.123458
0.122804
0.122187
0.121587
0.120983
0.120358
0.119699
0.119
0.118261
0.117487
0.116685
0.115861
0.115025
0.114182
0.11334
0.11251
0.111746
0.111031
0.110578
0.174383
0.173779
0.173173
0.172565
0.171955
0.171343
0.170728
0.170111
0.169493
0.168872
0.168249
0.167624
0.166997
0.166368
0.165737
0.165104
0.164469
0.163832
0.163194
0.162555
0.161914
0.161273
0.160632
0.159991
0.159351
0.158711
0.158073
0.157436
0.156801
0.156168
0.155537
0.154908
0.154282
0.153659
0.153039
0.152423
0.151811
0.151203
0.150599
0.149999
0.149402
0.148809
0.148219
0.147631
0.147044
0.146458
0.145872
0.145286
0.1447
0.144115
0.143531
0.14295
0.142373
0.1418
0.141233
0.14067
0.140114
0.139563
0.139016
0.138475
0.137937
0.137402
0.136869
0.136335
0.135797
0.135251
0.13469
0.134108
0.133498
0.132852
0.132163
0.13143
0.130649
0.129825
0.128961
0.128065
0.127146
0.126216
0.125288
0.124374
0.123487
0.122632
0.121815
0.121032
0.120278
0.119545
0.118821
0.1181
0.117373
0.116638
0.115892
0.115135
0.114368
0.113593
0.112811
0.112022
0.111232
0.110452
0.109732
0.108841
0.174378
0.173774
0.173167
0.172558
0.171948
0.171335
0.17072
0.170102
0.169483
0.168862
0.168238
0.167613
0.166986
0.166356
0.165725
0.165092
0.164457
0.16382
0.163182
0.162543
0.161903
0.161262
0.160621
0.15998
0.159339
0.158699
0.15806
0.157422
0.156786
0.156152
0.155519
0.154889
0.154261
0.153636
0.153014
0.152395
0.15178
0.151169
0.150561
0.149957
0.149357
0.148759
0.148165
0.147572
0.146982
0.146392
0.145802
0.145214
0.144625
0.144038
0.143452
0.142869
0.142289
0.141712
0.14114
0.140572
0.140009
0.13945
0.138895
0.138344
0.137795
0.137248
0.136702
0.136153
0.135599
0.135036
0.134458
0.13386
0.133235
0.132576
0.131878
0.131138
0.130356
0.129532
0.128672
0.12778
0.126862
0.125928
0.124986
0.124045
0.123113
0.122198
0.121306
0.120439
0.119599
0.118784
0.117988
0.117209
0.116442
0.115682
0.114926
0.114172
0.113417
0.112659
0.111897
0.111128
0.110356
0.109571
0.108862
0.107774
0.174373
0.173768
0.173161
0.172552
0.171941
0.171327
0.170711
0.170093
0.169473
0.168851
0.168227
0.167601
0.166973
0.166343
0.165712
0.165078
0.164442
0.163805
0.163167
0.162527
0.161887
0.161245
0.160603
0.159961
0.15932
0.158678
0.158038
0.157399
0.156761
0.156124
0.155489
0.154857
0.154226
0.153599
0.152974
0.152352
0.151733
0.151118
0.150507
0.149899
0.149294
0.148693
0.148094
0.147497
0.146902
0.146309
0.145717
0.145125
0.144534
0.143945
0.143357
0.142771
0.142188
0.141608
0.141032
0.140459
0.139891
0.139325
0.138763
0.138203
0.137645
0.137088
0.13653
0.135968
0.135401
0.134824
0.134232
0.13362
0.132982
0.132313
0.131609
0.130866
0.130084
0.129264
0.12841
0.127526
0.126617
0.12569
0.124752
0.123809
0.122867
0.121934
0.121015
0.120113
0.119232
0.118372
0.117533
0.116714
0.115912
0.115124
0.114347
0.113578
0.112814
0.112052
0.111288
0.11052
0.109751
0.108959
0.108257
0.107081
0.174369
0.173763
0.173156
0.172546
0.171934
0.17132
0.170704
0.170085
0.169464
0.168842
0.168217
0.16759
0.166961
0.166331
0.165698
0.165063
0.164427
0.16379
0.16315
0.16251
0.161868
0.161226
0.160583
0.15994
0.159297
0.158654
0.158012
0.157371
0.15673
0.156092
0.155454
0.154819
0.154186
0.153555
0.152927
0.152302
0.151679
0.15106
0.150445
0.149833
0.149224
0.148618
0.148015
0.147414
0.146815
0.146218
0.145622
0.145028
0.144434
0.143842
0.143252
0.142664
0.142078
0.141495
0.140915
0.140338
0.139764
0.139193
0.138624
0.138057
0.137491
0.136924
0.136356
0.135783
0.135204
0.134615
0.134011
0.133387
0.132739
0.132063
0.131353
0.130608
0.129828
0.129012
0.128165
0.12729
0.126392
0.125476
0.124547
0.123612
0.122675
0.121742
0.120817
0.119905
0.119008
0.118128
0.117267
0.116424
0.115598
0.114788
0.113991