/*--------------------------------*- C++ -*----------------------------------*\
  =========                 |
  \\      /  F ield         | OpenFOAM: The Open Source CFD Toolbox
   \\    /   O peration     | Website:  https://openfoam.org
    \\  /    A nd           | Version:  10
     \\/     M anipulation  |
\*---------------------------------------------------------------------------*/
FoamFile
{
    format      ascii;
    class       volScalarField;
    location    "600";
    object      nut;
}
// * * * * * * * * * * * * * * * * * * * * * * * * * * * * * * * * * * * * * //

dimensions      [0 2 -1 0 0 0 0];

internalField   nonuniform List<scalar> 
6820
(
0.000149811
0.000146298
0.000143078
0.00013985
0.000136611
0.000133451
0.000130461
0.0001277
0.000125195
0.000122954
0.000120973
0.000119237
0.000117729
0.000116429
0.000115319
0.000114379
0.000113593
0.000112943
0.000112417
0.000111999
0.000111678
0.000111442
0.000111283
0.000111192
0.000111159
0.00011118
0.000111244
0.000111357
0.000111483
0.000111872
0.000109785
0.000124902
7.19093e-05
0.000736674
0.00054809
0.000464584
0.000414445
0.000380748
0.00035693
0.000339508
0.000326363
0.000316151
0.000308006
0.000301358
0.000295819
0.000291125
0.000287086
0.000283566
0.000280465
0.000277709
0.000275238
0.000273009
0.000270986
0.000269141
0.000267449
0.000265892
0.000264455
0.000263124
0.000261889
0.00026074
0.000259672
0.000258667
0.000257832
0.000256715
0.000256013
0.000264111
0.000977663
0.000873824
0.000783704
0.000713321
0.000659076
0.000616662
0.000582757
0.000555035
0.0005319
0.000512253
0.000495321
0.000480551
0.00046753
0.00045595
0.000445573
0.000436212
0.00042772
0.000419978
0.000412887
0.000406369
0.000400355
0.000394791
0.000389627
0.000384822
0.000380341
0.000376151
0.000372224
0.000368534
0.000365047
0.000361784
0.000358592
0.000355277
0.000353387
0.0010135
0.000988678
0.000949906
0.000906247
0.000863769
0.000825051
0.000790684
0.000760412
0.000733715
0.000710053
0.000688945
0.000669989
0.000652856
0.000637277
0.000623034
0.000609948
0.000597871
0.000586681
0.000576277
0.000566573
0.000557494
0.000548981
0.000540977
0.000533437
0.000526321
0.000519591
0.000513214
0.000507162
0.000501402
0.000495923
0.000490668
0.000485551
0.000480638
0.00101667
0.00101251
0.00100235
0.000986319
0.000966168
0.000943906
0.000921104
0.000898754
0.000877388
0.000857244
0.000838387
0.00082079
0.000804382
0.000789074
0.000774772
0.000761387
0.000748834
0.000737037
0.000725926
0.000715442
0.000705529
0.000696139
0.000687228
0.000678758
0.000670694
0.000663005
0.000655662
0.000648639
0.000641909
0.000635453
0.000629238
0.000623227
0.000617391
0.00101674
0.0010159
0.00101373
0.00100941
0.00100265
0.000993632
0.000982855
0.000970882
0.000958224
0.000945281
0.000932341
0.000919601
0.000907185
0.000895169
0.000883592
0.000872471
0.000861807
0.000851592
0.00084181
0.000832443
0.000823473
0.000814877
0.000806637
0.000798731
0.000791139
0.000783844
0.000776828
0.000770071
0.000763558
0.000757273
0.000751197
0.00074531
0.000739595
0.00101671
0.00101621
0.00101554
0.00101439
0.00101245
0.00100952
0.00100553
0.00100054
0.000994679
0.000988128
0.000981063
0.000973643
0.000966006
0.00095826
0.000950492
0.000942768
0.000935137
0.000927634
0.000920285
0.000913107
0.00090611
0.0008993
0.00089268
0.00088625
0.000880006
0.000873946
0.000868064
0.000862354
0.00085681
0.000851424
0.00084619
0.000841098
0.000836142
0.0010167
0.00101622
0.00101574
0.0010152
0.00101449
0.00101351
0.00101214
0.00101032
0.00100801
0.00100523
0.00100201
0.000998407
0.000994472
0.000990271
0.000985862
0.000981297
0.000976625
0.000971884
0.000967107
0.000962324
0.000957555
0.000952821
0.000948135
0.000943509
0.000938952
0.000934469
0.000930067
0.000925747
0.000921511
0.000917362
0.000913298
0.00090932
0.000905428
0.0010167
0.00101621
0.00101574
0.00101528
0.00101481
0.00101429
0.00101367
0.00101292
0.001012
0.00101087
0.00100951
0.00100793
0.00100613
0.00100412
0.00100193
0.00099956
0.00099705
0.000994417
0.000991684
0.00098887
0.000985994
0.000983073
0.00098012
0.000977149
0.00097417
0.000971193
0.000968227
0.000965278
0.000962351
0.000959453
0.000956586
0.000953755
0.000950964
0.0010167
0.00101621
0.00101574
0.00101528
0.00101484
0.0010144
0.00101395
0.00101348
0.00101297
0.00101239
0.00101175
0.00101101
0.00101017
0.00100923
0.00100818
0.00100702
0.00100577
0.00100442
0.00100299
0.00100148
0.000999899
0.000998258
0.000996566
0.00099483
0.000993059
0.000991259
0.000989437
0.000987599
0.000985751
0.000983898
0.000982045
0.000980197
0.000978357
0.0010167
0.00101621
0.00101574
0.00101528
0.00101484
0.00101441
0.00101398
0.00101357
0.00101315
0.00101273
0.00101229
0.00101183
0.00101134
0.00101082
0.00101025
0.00100964
0.00100899
0.00100828
0.00100753
0.00100673
0.00100588
0.00100499
0.00100407
0.0010031
0.00100211
0.00100108
0.00100003
0.000998955
0.000997863
0.000996755
0.000995636
0.000994508
0.000993375
0.0010167
0.00101621
0.00101574
0.00101528
0.00101483
0.0010144
0.00101398
0.00101357
0.00101317
0.00101278
0.00101239
0.00101201
0.00101162
0.00101123
0.00101084
0.00101043
0.00101
0.00100956
0.00100911
0.00100863
0.00100814
0.00100762
0.00100708
0.00100653
0.00100596
0.00100536
0.00100476
0.00100413
0.00100349
0.00100284
0.00100218
0.00100152
0.00100084
0.0010167
0.00101621
0.00101574
0.00101528
0.00101483
0.0010144
0.00101398
0.00101357
0.00101317
0.00101278
0.00101241
0.00101204
0.00101167
0.00101132
0.00101097
0.00101062
0.00101027
0.00100992
0.00100958
0.00100923
0.00100887
0.00100851
0.00100815
0.00100778
0.0010074
0.00100702
0.00100663
0.00100623
0.00100583
0.00100543
0.00100501
0.0010046
0.00100418
0.0010167
0.00101621
0.00101574
0.00101528
0.00101483
0.0010144
0.00101398
0.00101357
0.00101317
0.00101278
0.0010124
0.00101204
0.00101168
0.00101133
0.00101099
0.00101065
0.00101033
0.00101001
0.00100969
0.00100938
0.00100907
0.00100877
0.00100847
0.00100817
0.00100787
0.00100758
0.00100728
0.00100699
0.00100669
0.0010064
0.0010061
0.00100581
0.00100552
0.0010167
0.00101621
0.00101574
0.00101528
0.00101483
0.0010144
0.00101398
0.00101357
0.00101317
0.00101278
0.0010124
0.00101203
0.00101167
0.00101133
0.00101099
0.00101066
0.00101033
0.00101002
0.00100971
0.00100941
0.00100912
0.00100883
0.00100855
0.00100827
0.001008
0.00100774
0.00100748
0.00100722
0.00100697
0.00100672
0.00100647
0.00100623
0.00100599
0.0010167
0.00101621
0.00101574
0.00101528
0.00101483
0.0010144
0.00101397
0.00101356
0.00101316
0.00101278
0.0010124
0.00101203
0.00101167
0.00101132
0.00101098
0.00101065
0.00101033
0.00101002
0.00100971
0.00100941
0.00100912
0.00100884
0.00100856
0.00100829
0.00100803
0.00100777
0.00100752
0.00100728
0.00100704
0.0010068
0.00100658
0.00100635
0.00100614
0.0010167
0.00101621
0.00101574
0.00101528
0.00101483
0.0010144
0.00101397
0.00101356
0.00101316
0.00101277
0.0010124
0.00101203
0.00101167
0.00101132
0.00101098
0.00101065
0.00101033
0.00101001
0.00100971
0.00100941
0.00100912
0.00100884
0.00100856
0.00100829
0.00100803
0.00100778
0.00100753
0.00100729
0.00100705
0.00100682
0.0010066
0.00100638
0.00100617
0.0010167
0.00101621
0.00101574
0.00101528
0.00101483
0.00101439
0.00101397
0.00101356
0.00101316
0.00101277
0.00101239
0.00101202
0.00101167
0.00101132
0.00101098
0.00101065
0.00101032
0.00101001
0.0010097
0.00100941
0.00100911
0.00100883
0.00100856
0.00100829
0.00100803
0.00100777
0.00100752
0.00100728
0.00100705
0.00100682
0.0010066
0.00100638
0.00100617
0.0010167
0.00101621
0.00101574
0.00101528
0.00101483
0.00101439
0.00101397
0.00101356
0.00101316
0.00101277
0.00101239
0.00101202
0.00101166
0.00101131
0.00101097
0.00101064
0.00101032
0.00101001
0.0010097
0.0010094
0.00100911
0.00100883
0.00100855
0.00100828
0.00100802
0.00100777
0.00100752
0.00100728
0.00100704
0.00100681
0.00100659
0.00100637
0.00100616
0.0010167
0.00101621
0.00101574
0.00101528
0.00101483
0.00101439
0.00101397
0.00101356
0.00101316
0.00101277
0.00101239
0.00101202
0.00101166
0.00101131
0.00101097
0.00101064
0.00101032
0.00101
0.0010097
0.0010094
0.00100911
0.00100883
0.00100855
0.00100828
0.00100802
0.00100776
0.00100752
0.00100727
0.00100704
0.00100681
0.00100658
0.00100637
0.00100616
0.0010167
0.00101621
0.00101574
0.00101528
0.00101483
0.00101439
0.00101397
0.00101356
0.00101316
0.00101277
0.00101239
0.00101202
0.00101166
0.00101131
0.00101097
0.00101064
0.00101032
0.00101
0.00100969
0.0010094
0.00100911
0.00100882
0.00100855
0.00100828
0.00100801
0.00100776
0.00100751
0.00100727
0.00100703
0.0010068
0.00100658
0.00100636
0.00100615
0.0010167
0.00101621
0.00101574
0.00101528
0.00101483
0.00101439
0.00101397
0.00101356
0.00101316
0.00101277
0.00101239
0.00101202
0.00101166
0.00101131
0.00101097
0.00101064
0.00101031
0.00101
0.00100969
0.00100939
0.0010091
0.00100882
0.00100854
0.00100827
0.00100801
0.00100776
0.00100751
0.00100726
0.00100703
0.0010068
0.00100657
0.00100635
0.00100614
0.0010167
0.00101621
0.00101574
0.00101528
0.00101483
0.00101439
0.00101397
0.00101356
0.00101316
0.00101277
0.00101239
0.00101202
0.00101166
0.00101131
0.00101097
0.00101064
0.00101031
0.00101
0.00100969
0.00100939
0.0010091
0.00100882
0.00100854
0.00100827
0.00100801
0.00100775
0.0010075
0.00100726
0.00100702
0.00100679
0.00100657
0.00100635
0.00100613
0.0010167
0.00101621
0.00101574
0.00101528
0.00101483
0.00101439
0.00101397
0.00101356
0.00101316
0.00101277
0.00101239
0.00101202
0.00101166
0.00101131
0.00101097
0.00101063
0.00101031
0.00101
0.00100969
0.00100939
0.0010091
0.00100881
0.00100854
0.00100827
0.001008
0.00100775
0.0010075
0.00100726
0.00100702
0.00100679
0.00100656
0.00100634
0.00100613
0.0010167
0.00101621
0.00101574
0.00101528
0.00101483
0.00101439
0.00101397
0.00101356
0.00101316
0.00101277
0.00101239
0.00101202
0.00101166
0.00101131
0.00101097
0.00101063
0.00101031
0.00100999
0.00100969
0.00100939
0.0010091
0.00100881
0.00100854
0.00100827
0.001008
0.00100775
0.0010075
0.00100725
0.00100701
0.00100678
0.00100656
0.00100634
0.00100612
0.0010167
0.00101621
0.00101574
0.00101528
0.00101483
0.00101439
0.00101397
0.00101356
0.00101316
0.00101277
0.00101239
0.00101202
0.00101166
0.00101131
0.00101096
0.00101063
0.00101031
0.00100999
0.00100969
0.00100939
0.00100909
0.00100881
0.00100853
0.00100826
0.001008
0.00100774
0.00100749
0.00100725
0.00100701
0.00100678
0.00100655
0.00100633
0.00100612
0.0010167
0.00101621
0.00101574
0.00101528
0.00101483
0.00101439
0.00101397
0.00101356
0.00101316
0.00101277
0.00101239
0.00101202
0.00101166
0.00101131
0.00101096
0.00101063
0.00101031
0.00100999
0.00100968
0.00100939
0.00100909
0.00100881
0.00100853
0.00100826
0.001008
0.00100774
0.00100749
0.00100725
0.00100701
0.00100677
0.00100655
0.00100633
0.00100611
0.0010167
0.00101621
0.00101574
0.00101528
0.00101483
0.00101439
0.00101397
0.00101356
0.00101316
0.00101277
0.00101239
0.00101202
0.00101166
0.00101131
0.00101096
0.00101063
0.00101031
0.00100999
0.00100968
0.00100938
0.00100909
0.00100881
0.00100853
0.00100826
0.001008
0.00100774
0.00100749
0.00100724
0.001007
0.00100677
0.00100654
0.00100632
0.00100611
0.0010167
0.00101621
0.00101574
0.00101528
0.00101483
0.00101439
0.00101397
0.00101356
0.00101316
0.00101277
0.00101239
0.00101202
0.00101166
0.00101131
0.00101096
0.00101063
0.00101031
0.00100999
0.00100968
0.00100938
0.00100909
0.00100881
0.00100853
0.00100826
0.00100799
0.00100774
0.00100748
0.00100724
0.001007
0.00100677
0.00100654
0.00100632
0.0010061
0.0010167
0.00101621
0.00101574
0.00101528
0.00101483
0.00101439
0.00101397
0.00101356
0.00101316
0.00101277
0.00101239
0.00101202
0.00101166
0.00101131
0.00101096
0.00101063
0.00101031
0.00100999
0.00100968
0.00100938
0.00100909
0.00100881
0.00100853
0.00100826
0.00100799
0.00100773
0.00100748
0.00100724
0.001007
0.00100677
0.00100654
0.00100631
0.0010061
0.0010167
0.00101621
0.00101574
0.00101528
0.00101483
0.00101439
0.00101397
0.00101356
0.00101316
0.00101277
0.00101239
0.00101202
0.00101166
0.00101131
0.00101096
0.00101063
0.00101031
0.00100999
0.00100968
0.00100938
0.00100909
0.0010088
0.00100853
0.00100825
0.00100799
0.00100773
0.00100748
0.00100723
0.00100699
0.00100676
0.00100653
0.00100631
0.00100609
0.0010167
0.00101621
0.00101574
0.00101528
0.00101483
0.00101439
0.00101397
0.00101356
0.00101316
0.00101277
0.00101239
0.00101202
0.00101166
0.00101131
0.00101096
0.00101063
0.00101031
0.00100999
0.00100968
0.00100938
0.00100909
0.0010088
0.00100852
0.00100824
0.00100798
0.00100771
0.00100746
0.00100721
0.00100696
0.00100672
0.00100649
0.00100626
0.00100603
0.0010167
0.00101621
0.00101574
0.00101528
0.00101483
0.00101439
0.00101397
0.00101356
0.00101316
0.00101277
0.00101239
0.00101202
0.00101165
0.0010113
0.00101096
0.00101062
0.00101029
0.00100997
0.00100965
0.00100934
0.00100904
0.00100874
0.00100845
0.00100816
0.00100787
0.00100759
0.00100732
0.00100704
0.00100677
0.00100651
0.00100624
0.00100598
0.00100572
0.0010167
0.00101621
0.00101574
0.00101528
0.00101483
0.00101439
0.00101397
0.00101356
0.00101315
0.00101276
0.00101237
0.00101199
0.00101162
0.00101125
0.00101088
0.00101051
0.00101015
0.00100978
0.00100942
0.00100905
0.00100869
0.00100832
0.00100795
0.00100758
0.00100721
0.00100683
0.00100645
0.00100607
0.00100569
0.0010053
0.00100491
0.00100452
0.00100413
0.0010167
0.00101621
0.00101574
0.00101527
0.00101482
0.00101438
0.00101394
0.0010135
0.00101305
0.0010126
0.00101213
0.00101165
0.00101115
0.00101063
0.00101009
0.00100952
0.00100894
0.00100833
0.00100769
0.00100704
0.00100636
0.00100566
0.00100494
0.00100419
0.00100343
0.00100266
0.00100186
0.00100106
0.00100024
0.000999406
0.000998564
0.000997713
0.000996855
0.0010167
0.00101621
0.00101571
0.00101519
0.00101464
0.00101403
0.00101334
0.00101256
0.00101168
0.00101069
0.00100959
0.00100839
0.00100707
0.00100565
0.00100413
0.00100252
0.00100083
0.000999057
0.000997217
0.000995314
0.000993356
0.000991352
0.000989307
0.000987228
0.000985122
0.000982994
0.000980851
0.000978696
0.000976534
0.000974371
0.000972209
0.000970053
0.000967905
0.00101669
0.00101596
0.00101486
0.00101329
0.00101119
0.00100857
0.00100545
0.00100185
0.000997828
0.000993429
0.000988704
0.000983706
0.000978483
0.000973081
0.000967542
0.000961904
0.0009562
0.00095046
0.000944709
0.000938969
0.000933259
0.000927596
0.000921993
0.00091646
0.000911007
0.000905643
0.000900372
0.0008952
0.00089013
0.000885165
0.000880307
0.000875557
0.000870915
0.00101524
0.00100707
0.000994972
0.000980655
0.000964829
0.000947947
0.000930392
0.000912511
0.000894597
0.00087688
0.000859522
0.000842638
0.000826302
0.000810557
0.000795428
0.000780919
0.000767025
0.000753735
0.000741029
0.000728888
0.000717286
0.000706201
0.000695607
0.000685481
0.0006758
0.000666539
0.000657678
0.000649196
0.000641073
0.00063329
0.00062583
0.000618675
0.00061181
0.000934352
0.000813407
0.000726827
0.0006588
0.000603107
0.000556737
0.000517793
0.000484795
0.000456557
0.000432154
0.000410879
0.000392185
0.000375641
0.000360908
0.000347712
0.000335836
0.000325098
0.000315352
0.000306473
0.000298358
0.000290919
0.000284082
0.000277782
0.000271964
0.00026658
0.000261587
0.000256949
0.000252633
0.00024861
0.000244855
0.000241345
0.00023806
0.000234979
0.000125479
0.000128845
0.000132087
0.000135185
0.000138141
0.000140961
0.00014365
0.000146214
0.000148657
0.000150984
0.000153199
0.000155306
0.00015731
0.000159215
0.000161025
0.000162744
0.000164376
0.000165925
0.000167394
0.000168787
0.000170109
0.000171361
0.000172548
0.000173673
0.000174738
0.000175748
0.000176704
0.000177609
0.000178466
0.000179277
0.000180046
0.000180773
0.000181461
8.44035e-05
0.000201295
0.000284408
0.000309224
0.000311011
0.000318294
0.000336496
0.000360892
0.000387185
0.000413655
0.000439879
0.00046569
0.000490919
0.000515456
0.000539311
0.000562614
0.000585581
0.000608462
0.000631476
0.000654771
0.000678391
0.000702295
0.000726382
0.00075054
0.000774682
0.000798772
0.000822834
0.000846937
0.000871174
0.000895637
0.000920397
0.000945485
0.00097088
0.000996505
0.00102221
0.00104777
0.00107292
0.00109734
0.00112079
0.0011431
0.00116432
0.00118472
0.00120482
0.00122524
0.00124655
0.00126907
0.00129267
0.00131672
0.00134015
0.00136178
0.00138057
0.00139596
0.00140798
0.00141717
0.00142434
0.00143017
0.00143489
0.00143804
0.00143862
0.00143535
0.00142715
0.00141364
0.00139539
0.00137418
0.00135313
0.00133721
0.00133442
0.00135731
0.00142203
0.00154042
0.00170759
0.00189884
0.00208214
0.00223365
0.00234324
0.00241124
0.00244315
0.0024458
0.00242555
0.00238766
0.00233634
0.00227487
0.0022059
0.00213161
0.00205392
0.00197458
0.00189533
0.00181803
0.00174497
0.00167937
0.00162641
0.0015946
0.00159587
0.00164184
0.00173545
0.00186418
0.00200425
0.00213371
0.00223823
0.00234854
0.000230585
0.000179097
0.000175413
0.000185952
0.000195261
0.000202453
0.000212101
0.000227881
0.000249794
0.000275593
0.000302891
0.00033008
0.000356367
0.00038155
0.000405796
0.000429456
0.000452923
0.000476522
0.000500441
0.00052471
0.000549222
0.000573786
0.000598179
0.000622202
0.000645721
0.000668683
0.000691119
0.000713119
0.000734808
0.000756312
0.000777739
0.000799156
0.000820584
0.000841991
0.000863285
0.00088431
0.000904854
0.000924671
0.000943533
0.000961294
0.000977971
0.000993794
0.00100922
0.00102485
0.00104132
0.00105906
0.00107813
0.00109809
0.00111806
0.00113689
0.00115354
0.00116731
0.00117807
0.00118625
0.00119263
0.00119799
0.00120278
0.00120683
0.00120938
0.00120927
0.00120545
0.00119735
0.00118527
0.00117058
0.00115581
0.00114501
0.0011448
0.00116615
0.00122473
0.0013343
0.00149363
0.00168074
0.00186407
0.00201873
0.0021332
0.00220674
0.00224418
0.00225204
0.00223653
0.00220295
0.00215552
0.00209766
0.00203209
0.0019611
0.00188669
0.00181067
0.00173482
0.001661
0.00159146
0.00152927
0.00147942
0.0014502
0.00145373
0.00150245
0.0016003
0.00173489
0.00188141
0.00201679
0.00212591
0.00224195
0.000354749
0.000339907
0.000304378
0.000271939
0.000250993
0.000236074
0.00022236
0.000210099
0.00020187
0.000199514
0.000203206
0.000212064
0.000224945
0.000240867
0.000259125
0.000279239
0.000300862
0.000323703
0.000347476
0.000371881
0.000396612
0.000421364
0.000445855
0.000469846
0.000493163
0.000515703
0.000537445
0.000558434
0.000578763
0.000598545
0.000617888
0.000636876
0.000655558
0.000673938
0.000691977
0.000709579
0.000726604
0.000742873
0.000758207
0.000772483
0.000785694
0.000798011
0.000809808
0.000821629
0.000834089
0.000847715
0.000862754
0.00087903
0.000895915
0.000912455
0.000927637
0.00094068
0.000951267
0.000959616
0.000966371
0.000972338
0.00097814
0.000983936
0.000989305
0.000993376
0.000995175
0.000994035
0.000989952
0.000983784
0.000977338
0.000973522
0.000977047
0.000996257
0.00104482
0.00113792
0.00127983
0.00145448
0.00163282
0.001789
0.00190911
0.00199025
0.0020358
0.00205153
0.00204332
0.00201638
0.001975
0.00192267
0.00186224
0.0017961
0.00172632
0.00165478
0.00158327
0.00151364
0.001448
0.00138915
0.00134152
0.00131265
0.00131428
0.00135978
0.00145543
0.00159103
0.00174189
0.00188347
0.00199863
0.00212236
0.00047653
0.000471329
0.000459972
0.000442074
0.000421978
0.000402269
0.000382081
0.000359234
0.000333735
0.00030779
0.000284069
0.000264432
0.000249636
0.000239656
0.000234118
0.000232601
0.000234757
0.000240319
0.000249053
0.000260691
0.000274882
0.000291169
0.000309015
0.000327851
0.000347146
0.000366465
0.000385503
0.00040409
0.000422165
0.000439742
0.000456868
0.000473589
0.000489937
0.000505913
0.000521486
0.000536594
0.000551141
0.000565006
0.000578067
0.000590232
0.00060149
0.000611954
0.000621896
0.000631738
0.000642
0.000653189
0.000665659
0.000679464
0.000694279
0.000709448
0.000724143
0.000737618
0.000749436
0.000759594
0.000768511
0.000776858
0.000785298
0.000794215
0.000803536
0.000812746
0.000821093
0.000827923
0.000832987
0.00083665
0.000839948
0.000844603
0.00085334
0.000871273
0.000908357
0.000978956
0.0010927
0.0012425
0.00140548
0.00155651
0.00167908
0.00176706
0.00182143
0.00184647
0.00184733
0.00182892
0.00179543
0.0017504
0.00169675
0.00163696
0.00157319
0.00150736
0.00144127
0.00137674
0.00131572
0.00126066
0.00121524
0.00118582
0.00118302
0.00122061
0.00130793
0.00143884
0.00159054
0.00173725
0.00185884
0.00199144
0.000610993
0.000604022
0.000596389
0.000587212
0.000576621
0.000565211
0.00055298
0.000538844
0.000521494
0.000500545
0.000476715
0.000451433
0.000426269
0.000402469
0.000380779
0.000361515
0.000344727
0.000330367
0.000318401
0.000308851
0.000301793
0.000297306
0.000295413
0.000296038
0.000298994
0.000304003
0.000310741
0.000318879
0.000328121
0.000338216
0.000348963
0.000360197
0.000371777
0.00038358
0.000395492
0.000407406
0.000419215
0.000430819
0.000442125
0.000453066
0.00046362
0.000473839
0.000483869
0.000493951
0.0005044
0.000515553
0.000527693
0.000540949
0.000555226
0.000570192
0.000585342
0.000600148
0.00061422
0.000627435
0.000639966
0.000652221
0.000664685
0.00067774
0.0006915
0.000705758
0.000720055
0.00073388
0.000746888
0.000759063
0.000770783
0.000782787
0.000796229
0.000813423
0.000839972
0.000886536
0.000964637
0.00107619
0.00120857
0.00134161
0.00145783
0.00154759
0.00160838
0.00164205
0.00165233
0.00164334
0.00161894
0.00158252
0.00153702
0.00148494
0.00142848
0.00136959
0.00131009
0.00125174
0.00119635
0.00114604
0.00110372
0.00107429
0.0010665
0.00109347
0.0011672
0.00128707
0.00143438
0.00158325
0.00171022
0.0018517
0.000733153
0.000725963
0.000718788
0.000711441
0.00070383
0.000696018
0.000688028
0.000679553
0.000669956
0.000658595
0.000645111
0.000629561
0.000612365
0.000594124
0.000575419
0.000556681
0.000538159
0.000519955
0.000502104
0.000484652
0.000467715
0.000451502
0.0004363
0.000422431
0.000410196
0.000399825
0.000391451
0.00038511
0.000380754
0.000378278
0.000377544
0.000378402
0.000380695
0.000384274
0.000388995
0.000394725
0.000401342
0.000408738
0.000416817
0.000425502
0.000434734
0.000444482
0.000454747
0.000465558
0.000476976
0.000489073
0.00050191
0.000515512
0.000529828
0.00054472
0.00055997
0.000575335
0.00059061
0.000605694
0.000620619
0.000635538
0.000650669
0.000666213
0.000682267
0.000698763
0.000715478
0.000732097
0.000748329
0.000763999
0.00077911
0.000793827
0.000808448
0.000823667
0.000841863
0.000869139
0.000914569
0.000983867
0.00107374
0.00117325
0.00126894
0.0013499
0.00141023
0.00144849
0.00146609
0.00146569
0.00145034
0.00142302
0.00138642
0.00134298
0.00129486
0.00124401
0.00119222
0.00114121
0.00109266
0.0010484
0.00101066
0.0009829
0.000971552
0.000987709
0.00104452
0.0011471
0.00128316
0.00142896
0.00155833
0.00170703
0.000830529
0.000824204
0.0008179
0.000811605
0.0008053
0.000798991
0.000792697
0.00078637
0.000779838
0.000772838
0.000765097
0.000756429
0.000746787
0.00073625
0.000724972
0.000713109
0.000700774
0.000688016
0.000674837
0.000661225
0.000647194
0.000632815
0.000618237
0.000603681
0.000589422
0.000575757
0.000562973
0.000551312
0.000540964
0.000532052
0.000524645
0.000518765
0.000514404
0.000511533
0.000510111
0.000510095
0.000511439
0.000514097
0.000518023
0.000523165
0.000529466
0.000536858
0.000545265
0.000554602
0.000564777
0.000575698
0.000587275
0.000599425
0.000612061
0.000625092
0.000638415
0.000651929
0.000665549
0.000679223
0.000692943
0.000706743
0.000720685
0.000734836
0.000749232
0.00076385
0.000778588
0.000793279
0.000807727
0.000821758
0.000835259
0.000848187
0.000860531
0.000872366
0.000884455
0.000899718
0.000923891
0.000962234
0.00101459
0.00107592
0.00113967
0.00119901
0.00124793
0.00128272
0.00130217
0.00130693
0.00129864
0.00127939
0.00125137
0.00121671
0.00117739
0.00113525
0.00109203
0.00104934
0.00100874
0.000971798
0.000940211
0.000916248
0.000904035
0.000911643
0.000951154
0.00103184
0.00114918
0.00128459
0.00141111
0.00156307
0.000900995
0.000895964
0.000890912
0.000885848
0.000880775
0.000875701
0.000870639
0.000865594
0.000860541
0.000855417
0.000850129
0.00084458
0.000838695
0.00083244
0.000825812
0.000818829
0.000811502
0.000803827
0.00079578
0.000787328
0.000778446
0.000769135
0.000759437
0.000749441
0.000739283
0.000729133
0.000719183
0.000709626
0.000700644
0.000692391
0.000684995
0.00067855
0.000673127
0.000668772
0.000665518
0.000663386
0.000662391
0.000662539
0.000663826
0.000666237
0.000669741
0.000674287
0.000679803
0.0006862
0.000693374
0.000701218
0.000709628
0.000718515
0.000727803
0.000737429
0.000747332
0.000757457
0.000767747
0.000778154
0.000788644
0.000799198
0.000809816
0.000820513
0.000831306
0.000842199
0.000853163
0.000864126
0.000874978
0.000885592
0.000895849
0.000905651
0.000914914
0.000923546
0.000931669
0.000940465
0.000953178
0.000974141
0.0010048
0.00104141
0.00107866
0.0011132
0.00114284
0.00116538
0.00117903
0.001183
0.00117746
0.00116335
0.00114201
0.00111499
0.00108391
0.00105036
0.00101586
0.000981865
0.000949757
0.000920842
0.000896386
0.000877787
0.000867327
0.000869954
0.000894833
0.00095242
0.00104515
0.00116204
0.00127865
0.00142737
0.000947759
0.000944088
0.000940367
0.000936599
0.000932793
0.000928955
0.000925094
0.000921222
0.000917343
0.000913453
0.000909535
0.000905563
0.000901508
0.000897348
0.000893064
0.000888648
0.000884088
0.00087937
0.000874471
0.000869365
0.000864026
0.000858438
0.000852603
0.000846546
0.000840319
0.000833999
0.000827679
0.000821466
0.000815471
0.0008098
0.000804549
0.000799804
0.000795637
0.000792105
0.000789256
0.00078713
0.000785756
0.000785157
0.000785347
0.000786328
0.000788087
0.000790596
0.000793807
0.000797659
0.00080208
0.000806993
0.000812326
0.000818019
0.000824028
0.000830319
0.000836869
0.000843652
0.000850636
0.000857782
0.000865048
0.000872394
0.00087979
0.000887221
0.000894688
0.000902202
0.000909767
0.000917372
0.000924976
0.000932511
0.00093989
0.000947021
0.000953807
0.000960128
0.000965901
0.000971456
0.000978305
0.000989413
0.00100749
0.00103181
0.0010576
0.00107972
0.00109584
0.00110584
0.00110998
0.00110829
0.00110079
0.00108779
0.00106993
0.00104814
0.0010235
0.000997215
0.000970484
0.000944479
0.000920304
0.00089897
0.000881366
0.000868293
0.000860816
0.000861451
0.00087596
0.00091318
0.000979433
0.00107158
0.00117102
0.00130843
0.000976221
0.00097375
0.000971215
0.000968619
0.000965965
0.00096326
0.000960511
0.000957724
0.000954907
0.000952067
0.000949206
0.000946322
0.000943412
0.000940471
0.000937492
0.000934471
0.000931403
0.000928282
0.000925098
0.000921838
0.000918489
0.000915041
0.000911488
0.000907835
0.0009041
0.00090031
0.000896505
0.000892735
0.000889055
0.000885522
0.000882193
0.000879123
0.000876361
0.000873954
0.000871938
0.000870348
0.000869213
0.000868555
0.000868388
0.000868721
0.000869549
0.000870859
0.000872623
0.000874803
0.000877356
0.000880232
0.000883389
0.000886791
0.000890415
0.000894249
0.00089829
0.000902534
0.000906972
0.000911585
0.000916346
0.000921218
0.000926166
0.000931164
0.000936197
0.000941264
0.000946376
0.000951539
0.000956752
0.000961989
0.000967204
0.00097233
0.000977284
0.000981958
0.00098623
0.000990097
0.000994078
0.000999689
0.00100923
0.00102419
0.0010433
0.00106237
0.0010769
0.00108455
0.00108531
0.00108023
0.00107044
0.00105683
0.00104017
0.00102119
0.00100072
0.000979582
0.000958656
0.000938786
0.000920757
0.000905264
0.000892866
0.000883967
0.000878953
0.000878852
0.000886711
0.000908552
0.000951164
0.00101685
0.00109419
0.00121307
0.000992046
0.00099049
0.000988876
0.000987203
0.000985472
0.000983687
0.000981851
0.000979968
0.000978046
0.000976087
0.000974096
0.000972077
0.000970032
0.000967962
0.000965868
0.000963751
0.000961613
0.000959453
0.000957272
0.000955067
0.000952838
0.00095058
0.000948294
0.000945982
0.00094365
0.000941307
0.000938972
0.000936663
0.000934406
0.000932229
0.000930162
0.000928234
0.000926475
0.000924913
0.000923574
0.000922481
0.000921657
0.000921116
0.000920872
0.000920931
0.000921293
0.000921951
0.00092289
0.000924087
0.000925515
0.000927146
0.000928954
0.00093092
0.000933034
0.000935292
0.000937701
0.000940267
0.000942995
0.000945882
0.000948916
0.000952074
0.000955332
0.000958664
0.000962052
0.000965486
0.000968967
0.000972502
0.000976097
0.000979746
0.000983427
0.000987097
0.000990692
0.000994128
0.000997296
0.00100011
0.00100266
0.00100552
0.00100997
0.00101757
0.00102915
0.00104364
0.00105807
0.00106901
0.0010742
0.00107309
0.00106642
0.00105539
0.00104127
0.00102514
0.00100795
0.000990529
0.000973604
0.00095783
0.000943769
0.000931875
0.00092248
0.000915764
0.0009118
0.000910879
0.000914374
0.00092576
0.000950306
0.000992509
0.00104668
0.00114304
0.00100004
0.000999096
0.000998109
0.000997076
0.000995996
0.00099487
0.000993701
0.00099249
0.000991239
0.000989952
0.00098863
0.000987277
0.000985894
0.000984482
0.000983045
0.000981584
0.000980103
0.000978603
0.00097709
0.000975565
0.000974032
0.000972493
0.000970952
0.000969412
0.000967877
0.000966352
0.000964846
0.000963368
0.000961929
0.000960542
0.000959223
0.000957986
0.000956848
0.000955827
0.000954937
0.000954193
0.00095361
0.000953199
0.000952967
0.00095292
0.000953058
0.000953378
0.000953869
0.000954518
0.000955308
0.000956224
0.00095725
0.000958375
0.000959597
0.000960916
0.000962343
0.000963886
0.000965556
0.000967357
0.000969286
0.000971336
0.000973491
0.000975733
0.000978047
0.000980423
0.000982854
0.000985341
0.000987887
0.000990487
0.000993129
0.000995782
0.000998397
0.00100091
0.00100323
0.00100527
0.00100699
0.00100856
0.00101048
0.00101368
0.00101918
0.00102744
0.00103779
0.0010484
0.001057
0.00106176
0.00106183
0.00105739
0.0010492
0.00103829
0.0010257
0.00101238
0.000999119
0.000986564
0.000975231
0.0009655
0.000957623
0.000951714
0.000947763
0.000945789
0.000946309
0.000951078
0.00096342
0.000987735
0.00102129
0.00109432
0.00100369
0.0010031
0.00100249
0.00100185
0.00100117
0.00100047
0.00099973
0.000998961
0.000998162
0.000997333
0.000996475
0.00099559
0.000994677
0.000993737
0.000992773
0.000991785
0.000990776
0.000989748
0.000988706
0.000987653
0.000986593
0.00098553
0.000984468
0.000983412
0.000982365
0.000981332
0.000980318
0.000979327
0.000978366
0.000977441
0.000976562
0.000975736
0.000974973
0.000974283
0.000973675
0.000973159
0.000972743
0.000972435
0.00097224
0.000972161
0.000972198
0.000972348
0.000972605
0.000972961
0.000973405
0.000973926
0.000974516
0.000975171
0.000975889
0.000976675
0.000977537
0.000978487
0.000979534
0.000980685
0.000981945