/*--------------------------------*- C++ -*----------------------------------*\
  =========                 |
  \\      /  F ield         | OpenFOAM: The Open Source CFD Toolbox
   \\    /   O peration     | Website:  https://openfoam.org
    \\  /    A nd           | Version:  10
     \\/     M anipulation  |
\*---------------------------------------------------------------------------*/
FoamFile
{
    format      ascii;
    class       volScalarField;
    location    "600";
    object      p;
}
// * * * * * * * * * * * * * * * * * * * * * * * * * * * * * * * * * * * * * //

dimensions      [0 2 -2 0 0 0 0];

internalField   nonuniform List<scalar> 
6820
(
-8.05918
-8.83075
-9.27836
-9.42568
-9.50463
-9.57019
-9.61628
-9.6472
-9.67132
-9.69238
-9.71123
-9.72839
-9.74444
-9.75978
-9.77458
-9.78897
-9.80302
-9.81681
-9.83035
-9.84367
-9.85676
-9.8696
-9.88213
-9.89424
-9.90577
-9.91643
-9.92575
-9.9328
-9.93608
-9.93244
-9.91461
-9.87726
-9.74118
-9.61359
-9.75884
-9.73497
-9.66648
-9.6392
-9.64497
-9.65844
-9.67199
-9.6865
-9.70198
-9.71746
-9.73251
-9.74713
-9.76141
-9.77539
-9.78909
-9.80254
-9.81579
-9.82885
-9.84173
-9.85443
-9.86693
-9.87918
-9.8911
-9.90256
-9.91338
-9.92319
-9.93184
-9.93762
-9.94352
-9.9381
-9.96082
-9.95917
-9.61724
-9.48193
-9.48246
-9.51701
-9.55308
-9.59086
-9.62361
-9.64943
-9.67126
-9.69105
-9.70921
-9.72599
-9.74178
-9.75689
-9.77149
-9.78569
-9.79957
-9.8132
-9.8266
-9.83981
-9.85283
-9.86565
-9.87823
-9.89051
-9.90241
-9.91379
-9.92443
-9.93429
-9.94274
-9.95159
-9.95798
-9.98022
-9.99738
-9.54759
-9.47012
-9.51471
-9.56223
-9.58843
-9.6134
-9.63796
-9.65896
-9.67756
-9.69513
-9.71185
-9.72771
-9.74291
-9.75762
-9.77195
-9.78595
-9.79969
-9.81321
-9.82653
-9.83968
-9.85266
-9.86547
-9.87808
-9.89047
-9.90259
-9.91438
-9.92578
-9.9369
-9.94773
-9.9598
-9.97309
-9.99612
-10.0257
-9.54104
-9.51166
-9.54158
-9.5734
-9.59304
-9.61475
-9.63802
-9.65879
-9.67735
-9.69485
-9.71152
-9.72736
-9.74253
-9.75721
-9.77151
-9.78548
-9.79919
-9.81269
-9.82601
-9.83918
-9.8522
-9.86508
-9.87782
-9.89042
-9.90286
-9.91518
-9.9274
-9.93978
-9.9526
-9.96711
-9.98419
-10.0083
-10.04
-9.54892
-9.53493
-9.55125
-9.577
-9.5974
-9.61848
-9.64045
-9.6605
-9.67862
-9.69574
-9.7121
-9.72772
-9.74273
-9.75728
-9.77147
-9.78537
-9.79902
-9.81248
-9.82578
-9.83894
-9.85198
-9.86492
-9.87777
-9.89056
-9.90331
-9.91609
-9.92903
-9.94243
-9.95669
-9.97281
-9.99176
-10.0159
-10.046
-9.55665
-9.54922
-9.56081
-9.58345
-9.60345
-9.62295
-9.64316
-9.66225
-9.67985
-9.69655
-9.71259
-9.72799
-9.74284
-9.75727
-9.77136
-9.78518
-9.79877
-9.81219
-9.82545
-9.83861
-9.85167
-9.86467
-9.87763
-9.89059
-9.90361
-9.91681
-9.93034
-9.9445
-9.95973
-9.97675
-9.99636
-10.0198
-10.0476
-9.56455
-9.56153
-9.57124
-9.59056
-9.60911
-9.62715
-9.6459
-9.66409
-9.68115
-9.69742
-9.71312
-9.72827
-9.74294
-9.75722
-9.7712
-9.78492
-9.79844
-9.8118
-9.82504
-9.83817
-9.85125
-9.86429
-9.87734
-9.89045
-9.9037
-9.91722
-9.93117
-9.94585
-9.96161
-9.979
-9.99856
-10.0209
-10.0463
-9.57285
-9.5725
-9.58101
-9.5974
-9.61447
-9.63134
-9.64883
-9.6661
-9.68256
-9.69837
-9.7137
-9.72857
-9.74303
-9.75714
-9.77098
-9.7846
-9.79803
-9.81132
-9.8245
-9.83761
-9.85068
-9.86374
-9.87685
-9.89007
-9.90349
-9.91722
-9.93145
-9.9464
-9.96237
-9.97973
-9.99883
-10.0199
-10.043
-9.58119
-9.58227
-9.58996
-9.60409
-9.61973
-9.63552
-9.65186
-9.66821
-9.68405
-9.69939
-9.71433
-9.7289
-9.74312
-9.75704
-9.77073
-9.78422
-9.79755
-9.81075
-9.82386
-9.83692
-9.84996
-9.86303
-9.87616
-9.88944
-9.90294
-9.91679
-9.93113
-9.94616
-9.96209
-9.97916
-9.99756
-10.0174
-10.0385
-9.58934
-9.59111
-9.59821
-9.61059
-9.62488
-9.63962
-9.65492
-9.6704
-9.68561
-9.70045
-9.71499
-9.72924
-9.74321
-9.75693
-9.77044
-9.78378
-9.79698
-9.81008
-9.82311
-9.8361
-9.84909
-9.86212
-9.87524
-9.88852
-9.90204
-9.9159
-9.93023
-9.94516
-9.96086
-9.97746
-9.99505
-10.0136
-10.033
-9.59714
-9.59922
-9.60583
-9.61683
-9.62986
-9.64362
-9.65797
-9.67263
-9.6872
-9.70155
-9.71568
-9.72959
-9.74329
-9.75678
-9.7701
-9.78328
-9.79634
-9.80932
-9.82224
-9.83514
-9.84805
-9.86101
-9.87408
-9.8873
-9.90077
-9.91455
-9.92875
-9.94346
-9.9588
-9.97482
-9.99156
-10.0089
-10.0268
-9.60453
-9.60669
-9.61285
-9.62274
-9.63465
-9.64748
-9.66097
-9.67485
-9.6888
-9.70265
-9.71637
-9.72993
-9.74334
-9.75659
-9.7697
-9.7827
-9.7956
-9.80844
-9.82124
-9.83402
-9.84682
-9.85968
-9.87265
-9.88577
-9.89911
-9.91273
-9.92671
-9.94111
-9.95599
-9.97138
-9.98726
-10.0035
-10.02
-9.61145
-9.61358
-9.61931
-9.6283
-9.63922
-9.65118
-9.66387
-9.67703
-9.69038
-9.70373
-9.71703
-9.73024
-9.74335
-9.75634
-9.76923
-9.78204
-9.79477
-9.80744
-9.82009
-9.83273
-9.8454
-9.85813
-9.87095
-9.88391
-9.89707
-9.91046
-9.92415
-9.93816
-9.95253
-9.96725
-9.98228
-9.99753
-10.0128
-9.61788
-9.61992
-9.62525
-9.63347
-9.64353
-9.6547
-9.66665
-9.67913
-9.69189
-9.70476
-9.71764
-9.73049
-9.7433
-9.75602
-9.76868
-9.78127
-9.79381
-9.80631
-9.81879
-9.83126
-9.84377
-9.85632
-9.86897
-9.88173
-9.89464
-9.90775
-9.92108
-9.93466
-9.94848
-9.96252
-9.97675
-9.99105
-10.0053
-9.6238
-9.62572
-9.63068
-9.63825
-9.64755
-9.65799
-9.66926
-9.68112
-9.69332
-9.70571
-9.71818
-9.73068
-9.74316
-9.75562
-9.76803
-9.7804
-9.79273
-9.80503
-9.81732
-9.8296
-9.84191
-9.85427
-9.86669
-9.87921
-9.89184
-9.90462
-9.91755
-9.93065
-9.9439
-9.95728
-9.97072
-9.98415
-9.99747
-9.62919
-9.631
-9.63562
-9.64262
-9.65125
-9.66103
-9.67168
-9.68295
-9.69463
-9.70655
-9.71862
-9.73076
-9.74293
-9.7551
-9.76726
-9.77939
-9.7915
-9.80359
-9.81566
-9.82774
-9.83983
-9.85195
-9.86412
-9.87635
-9.88867
-9.90108
-9.91359
-9.92619
-9.93886
-9.95158
-9.96428
-9.9769
-9.98936
-9.63407
-9.63576
-9.64006
-9.64657
-9.65461
-9.66379
-9.67387
-9.6846
-9.69578
-9.70726
-9.71893
-9.73072
-9.74258
-9.75447
-9.76636
-9.77824
-9.79011
-9.80197
-9.81382
-9.82566
-9.83751
-9.84937
-9.86126
-9.87318
-9.88515
-9.89716
-9.90922
-9.92131
-9.93341
-9.94548
-9.95747
-9.96933
-9.98099
-9.6384
-9.63999
-9.644
-9.65007
-9.6576
-9.66625
-9.6758
-9.68603
-9.69675
-9.7078
-9.7191
-9.73054
-9.74208
-9.75368
-9.7653
-9.77693
-9.78856
-9.80017
-9.81177
-9.82336
-9.83494
-9.84652
-9.8581
-9.86969
-9.88129
-9.89289
-9.90448
-9.91605
-9.92757
-9.93902
-9.95034
-9.96149
-9.97241
-9.6422
-9.64369
-9.64744
-9.65313
-9.6602
-9.66837
-9.67744
-9.68721
-9.6975
-9.70816
-9.71908
-9.73019
-9.74143
-9.75273
-9.76408
-9.77545
-9.78681
-9.79817
-9.80951
-9.82083
-9.83213
-9.84341
-9.85467
-9.8659
-9.87711
-9.88828
-9.8994
-9.91045
-9.92141
-9.93225
-9.94292
-9.9534
-9.96363
-9.64544
-9.64684
-9.65037
-9.65571
-9.66239
-9.67013
-9.67876
-9.68811
-9.698
-9.70828
-9.71886
-9.72965
-9.74058
-9.7516
-9.76268
-9.77378
-9.78488
-9.79597
-9.80704
-9.81808
-9.82908
-9.84005
-9.85096
-9.86182
-9.87263
-9.88336
-9.894
-9.90454
-9.91495
-9.9252
-9.93526
-9.94509
-9.95467
-9.64812
-9.64944
-9.65277
-9.65781
-9.66413
-9.67149
-9.67974
-9.6887
-9.69822
-9.70816
-9.71841
-9.72889
-9.73953
-9.75027
-9.76108
-9.77191
-9.78274
-9.79356
-9.80435
-9.8151
-9.8258
-9.83643
-9.84699
-9.85748
-9.86787
-9.87816
-9.88833
-9.89836
-9.90823
-9.91791
-9.92738
-9.9366
-9.94556
-9.65023
-9.65148
-9.65462
-9.6594
-9.66541
-9.67243
-9.68033
-9.68895
-9.69814
-9.70776
-9.7177
-9.72789
-9.73825
-9.74872
-9.75926
-9.76983
-9.78039
-9.79094
-9.80145
-9.81189
-9.82227
-9.83257
-9.84278
-9.85288
-9.86286
-9.87271
-9.88241
-9.89194
-9.90129
-9.91042
-9.91932
-9.92796
-9.93632
-9.65174
-9.65293
-9.65591
-9.66046
-9.66619
-9.67291
-9.68051
-9.68883
-9.69771
-9.70704
-9.71671
-9.72663
-9.73673
-9.74694
-9.75722
-9.76752
-9.77783
-9.7881
-9.79832
-9.80847
-9.81853
-9.82849
-9.83833
-9.84805
-9.85762
-9.86704
-9.87628
-9.88532
-9.89415
-9.90276
-9.91111
-9.91919
-9.92699
-9.65264
-9.65377
-9.65661
-9.66095
-9.66644
-9.67291
-9.68024
-9.6883
-9.69692
-9.70599
-9.71541
-9.72508
-9.73494
-9.7449
-9.75494
-9.76499
-9.77504
-9.78504
-9.79498
-9.80483
-9.81457
-9.82419
-9.83368
-9.84302
-9.85218
-9.86117
-9.86996
-9.87853
-9.88687
-9.89496
-9.90279
-9.91033
-9.91759
-9.65291
-9.65399
-9.6567
-9.66085
-9.66614
-9.67239
-9.6795
-9.68732
-9.69573
-9.70458
-9.71378
-9.72323
-9.73286
-9.74261
-9.75241
-9.76223
-9.77202
-9.78176
-9.79142
-9.80098
-9.81041
-9.8197
-9.82884
-9.8378
-9.84657
-9.85514
-9.86348
-9.8716
-9.87946
-9.88706
-9.89439
-9.90142
-9.90815
-9.65251
-9.65355
-9.65614
-9.66013
-9.66523
-9.6713
-9.67823
-9.68588
-9.6941
-9.70277
-9.71178
-9.72105
-9.73049
-9.74004
-9.74963
-9.75923
-9.76879
-9.77828
-9.78767
-9.79694
-9.80607
-9.81504
-9.82383
-9.83243
-9.84082
-9.84898
-9.85691
-9.86458
-9.87199
-9.87912
-9.88597
-9.89251
-9.89875
-9.65143
-9.65242
-9.65489
-9.65873
-9.66368
-9.66961
-9.67641
-9.68392
-9.692
-9.70054
-9.70941
-9.71853
-9.72781
-9.73718
-9.74659
-9.75598
-9.76532
-9.77458
-9.78372
-9.79272
-9.80156
-9.81021
-9.81867
-9.82692
-9.83494
-9.84271
-9.85023
-9.85748
-9.86445
-9.87113
-9.87752
-9.8836
-9.88937
-9.64964
-9.65058
-9.65293
-9.65661
-9.66144
-9.66727
-9.67398
-9.6814
-9.68941
-9.69786
-9.70664
-9.71565
-9.7248
-9.73404
-9.7433
-9.75252
-9.76167
-9.77072
-9.77963
-9.78838
-9.79695
-9.80532
-9.81346
-9.82138
-9.82905
-9.83646
-9.84359
-9.85045
-9.85701
-9.86327
-9.86922
-9.87485
-9.88017
-9.64712
-9.64799
-9.65018
-9.6537
-9.65842
-9.66421
-9.67089
-9.6783
-9.68628
-9.6947
-9.70344
-9.71238
-9.72145
-9.73057
-9.73969
-9.74876
-9.75774
-9.76658
-9.77527
-9.78378
-9.79209
-9.80018
-9.80803
-9.81563
-9.82296
-9.83002
-9.83679
-9.84326
-9.84943
-9.85529
-9.86084
-9.86606
-9.87096
-9.64386
-9.64463
-9.64659
-9.64991
-9.65456
-9.66036
-9.66708
-9.67453
-9.68258
-9.69106
-9.69984
-9.70881
-9.71788
-9.72697
-9.73604
-9.74502
-9.75388
-9.76259
-9.77111
-9.77943
-9.78752
-9.79536
-9.80295
-9.81026
-9.81729
-9.82403
-9.83046
-9.83659
-9.84239
-9.84788
-9.85303
-9.85785
-9.86234
-9.63988
-9.64047
-9.64207
-9.6451
-9.64973
-9.65565
-9.66251
-9.67008
-9.67821
-9.68674
-9.69554
-9.70449
-9.71352
-9.72254
-9.73151
-9.74038
-9.7491
-9.75765
-9.766
-9.77412
-9.782
-9.78962
-9.79696
-9.80402
-9.81077
-9.81722
-9.82336
-9.82917
-9.83466
-9.83982
-9.84464
-9.84914
-9.85331
-9.63526
-9.63552
-9.63647
-9.63909
-9.64373
-9.64989
-9.65708
-9.66509
-9.6737
-9.68269
-9.69186
-9.70112
-9.71037
-9.71955
-9.72861
-9.73749
-9.74619
-9.75466
-9.76288
-9.77084
-9.77853
-9.78593
-9.79303
-9.79981
-9.80628
-9.81243
-9.81824
-9.82372
-9.82886
-9.83365
-9.8381
-9.8422
-9.84593
-9.63025
-9.62974
-9.62952
-9.63179
-9.63667
-9.64288
-9.64984
-9.65759
-9.66604
-9.67492
-9.68404
-9.69326
-9.70252
-9.71172
-9.7208
-9.72972
-9.73843
-9.74692
-9.75514
-9.76309
-9.77075
-9.77809
-9.78513
-9.79183
-9.7982
-9.80423
-9.80991
-9.81524
-9.82023
-9.82486
-9.82915
-9.8331
-9.83674
-9.62552
-9.62318
-9.62005
-9.62192
-9.62881
-9.63766
-9.64701
-9.65674
-9.6667
-9.67667
-9.68651
-9.69617
-9.70563
-9.71486
-9.72384
-9.73255
-9.74098
-9.74912
-9.75696
-9.7645
-9.77172
-9.77862
-9.78519
-9.79143
-9.79732
-9.80288
-9.80808
-9.81294
-9.81744
-9.82158
-9.82537
-9.82878
-9.83179
-9.62228
-9.61705
-9.60924
-9.60652
-9.60858
-9.61349
-9.62084
-9.6301
-9.64034
-9.65095
-9.6617
-9.67245
-9.68308
-9.69347
-9.70357
-9.71335
-9.72279
-9.73187
-9.74057
-9.7489
-9.75683
-9.76438
-9.77154
-9.77829
-9.78466
-9.79063
-9.7962
-9.80139
-9.80618
-9.81059
-9.81464
-9.81833
-9.82169
-9.62216
-9.60214
-9.60467
-9.62402
-9.64021
-9.65045
-9.65952
-9.66909
-9.67847
-9.68731
-9.6958
-9.7041
-9.71222
-9.72014
-9.72785
-9.73535
-9.74264
-9.74969
-9.75651
-9.76306
-9.76934
-9.77534
-9.78105
-9.78645
-9.79154
-9.79632
-9.80077
-9.80489
-9.80867
-9.81211
-9.81521
-9.81793
-9.82027
-9.65919
-9.53583
-9.47246
-9.47567
-9.49745
-9.51849
-9.53904
-9.55994
-9.58018
-9.5991
-9.61672
-9.63317
-9.64852
-9.66285
-9.67624
-9.68879
-9.70055
-9.71159
-9.72194
-9.73166
-9.74077
-9.74929
-9.75726
-9.7647
-9.77161
-9.77803
-9.78395
-9.7894
-9.79439
-9.79892
-9.80303
-9.80671
-9.80999
-9.8188
-9.83185
-9.79032
-9.74778
-9.72324
-9.71204
-9.70677
-9.70399
-9.70322
-9.70448
-9.70733
-9.71124
-9.71585
-9.72097
-9.72644
-9.73214
-9.73796
-9.7438
-9.74961
-9.75532
-9.7609
-9.7663
-9.77149
-9.77645
-9.78115
-9.78559
-9.78973
-9.79358
-9.79712
-9.80034
-9.80324
-9.80582
-9.80807
-8.65438
-8.95456
-9.21922
-9.34464
-9.40908
-9.46457
-9.51338
-9.55093
-9.57976
-9.60376
-9.62466
-9.64299
-9.65917
-9.6737
-9.68692
-9.69906
-9.71025
-9.72061
-9.73024
-9.73921
-9.74756
-9.75533
-9.76256
-9.76927
-9.77547
-9.7812
-9.78645
-9.79125
-9.7956
-9.79952
-9.80302
-9.8061
-9.80878
-10.0222
-10.3193
-10.2922
-10.2707
-10.2835
-10.3048
-10.3229
-10.336
-10.3478
-10.3634
-10.3861
-10.4152
-10.4494
-10.488
-10.5298
-10.5734
-10.6168
-10.6589
-10.6996
-10.7391
-10.7776
-10.8151
-10.8506
-10.8835
-10.9128
-10.9375
-10.9566
-10.969
-10.9734
-10.9689
-10.9544
-10.9293
-10.8928
-10.8444
-10.7833
-10.7089
-10.6203
-10.5168
-10.3975
-10.262
-10.1101
-9.94209
-9.75874
-9.56138
-9.35169
-9.13148
-8.90248
-8.66605
-8.42309
-8.174
-7.91883
-7.65749
-7.38994
-7.11641
-6.83742
-6.5537
-6.26605
-5.97513
-5.68135
-5.3848
-5.08531
-4.78262
-4.47658
-4.16743
-3.85612
-3.54474
-3.23712
-2.93926
-2.65916
-2.40529
-2.18399
-1.99741
-1.8433
-1.71665
-1.61181
-1.52369
-1.44826
-1.38235
-1.32348
-1.26957
-1.21883
-1.16971
-1.12081
-1.07091
-1.01895
-0.963988
-0.905264
-0.842126
-0.774097
-0.7009
-0.622616
-0.539998
-0.454752
-0.370032
-0.288964
-0.216337
-0.149557
-0.100886
-0.0353363
-0.0491797
-10.0846
-10.364
-10.3602
-10.3217
-10.3109
-10.3047
-10.2995
-10.2989
-10.3052
-10.3208
-10.3462
-10.3787
-10.4153
-10.455
-10.4973
-10.541
-10.5844
-10.6263
-10.6663
-10.7051
-10.743
-10.7798
-10.8148
-10.8469
-10.8752
-10.8987
-10.9166
-10.9277
-10.931
-10.9253
-10.9098
-10.8837
-10.8463
-10.7972
-10.7355
-10.6608
-10.572
-10.4686
-10.3497
-10.2148
-10.0638
-9.89688
-9.7149
-9.51915
-9.31128
-9.09312
-8.86638
-8.63243
-8.39212
-8.14583
-7.89355
-7.63511
-7.37044
-7.09975
-6.82352
-6.54251
-6.25753
-5.96926
-5.67811
-5.38414
-5.08715
-4.78683
-4.483
-4.17586
-3.86629
-3.55628
-3.24945
-2.95163
-2.67079
-2.41566
-2.1931
-2.00574
-1.85164
-1.72579
-1.62234
-1.53601
-1.46255
-1.39864
-1.34166
-1.28941
-1.24005
-1.19194
-1.14368
-1.094
-1.04185
-0.986299
-0.926589
-0.862089
-0.792326
-0.717025
-0.636276
-0.550879
-0.462641
-0.374894
-0.290958
-0.215887
-0.147018
-0.0972807
-0.0298513
-0.047211
-10.0843
-10.262
-10.2918
-10.2744
-10.2743
-10.2807
-10.2867
-10.2937
-10.3036
-10.3189
-10.3409
-10.3683
-10.399
-10.4327
-10.4697
-10.5095
-10.5503
-10.5905
-10.6295
-10.6675
-10.7049
-10.7413
-10.7758
-10.8072
-10.8344
-10.8567
-10.8732
-10.8829
-10.8849
-10.878
-10.8615
-10.8344
-10.7962
-10.7463
-10.6841
-10.609
-10.5202
-10.4169
-10.2985
-10.1645
-10.0146
-9.84923
-9.66905
-9.47534
-9.26972
-9.05395
-8.82972
-8.59837
-8.36074
-8.1172
-7.86772
-7.61213
-7.35033
-7.08248
-6.80908
-6.53084
-6.24857
-5.96297
-5.67443
-5.38304
-5.08859
-4.7908
-4.48948
-4.18485
-3.87779
-3.57018
-3.26546
-2.96915
-2.68892
-2.43345
-2.20988
-2.02136
-1.86639
-1.74024
-1.63706
-1.55146
-1.47901
-1.41625
-1.3604
-1.30917
-1.26062
-1.21306
-1.16504
-1.11528
-1.06271
-1.00642
-0.945671
-0.879842
-0.808482
-0.731334
-0.648506
-0.560836
-0.470192
-0.379998
-0.293686
-0.216466
-0.145713
-0.0947289
-0.0258064
-0.0453437
-10.0918
-10.2105
-10.26
-10.2616
-10.2669
-10.277
-10.2851
-10.2927
-10.3027
-10.3174
-10.338
-10.3632
-10.3916
-10.4227
-10.4568
-10.4933
-10.5306
-10.5673
-10.6028
-10.6373
-10.6713
-10.7046
-10.7363
-10.7653
-10.7904
-10.8107
-10.8253
-10.8334
-10.834
-10.826
-10.8084
-10.7805
-10.7415
-10.691
-10.6284
-10.553
-10.4643
-10.3614
-10.2437
-10.1107
-9.96238
-9.79888
-9.62094
-9.42974
-9.22679
-9.01379
-8.79233
-8.56371
-8.32877
-8.08789
-7.8411
-7.58823
-7.3292
-7.06416
-6.79357
-6.5181
-6.23854
-5.95558
-5.66962
-5.38079
-5.08892
-4.79379
-4.49528
-4.19367
-3.88987
-3.58572
-3.28446
-2.99123
-2.7132
-2.45864
-2.2347
-2.04493
-1.88844
-1.76097
-1.6569
-1.57085
-1.4983
-1.43563
-1.37996
-1.32888
-1.28039
-1.23274
-1.18442
-1.13416
-1.08086
-1.02364
-0.961757
-0.894635
-0.821843
-0.743155
-0.658706
-0.569359
-0.477
-0.385062
-0.297007
-0.218095
-0.145798
-0.0935628
-0.0234942
-0.0440953
-10.0926
-10.1763
-10.2266
-10.2392
-10.2478
-10.2592
-10.2693
-10.2793
-10.2917
-10.3078
-10.3279
-10.3518
-10.3787
-10.4082
-10.4404
-10.4748
-10.51
-10.5447
-10.5783
-10.6108
-10.6425
-10.6732
-10.702
-10.7279
-10.7498
-10.767
-10.7786
-10.7839
-10.782
-10.7719
-10.7526
-10.7233
-10.6832
-10.6319
-10.5687
-10.4931
-10.4043
-10.3018
-10.1849
-10.0533
-9.90663
-9.74531
-9.56994
-9.3816
-9.18169
-8.97176
-8.7533
-8.52754
-8.29533
-8.05707
-7.81286
-7.5626
-7.30625
-7.04397
-6.77617
-6.50349
-6.22668
-5.94638
-5.66302
-5.37677
-5.08755
-4.79524
-4.49981
-4.20164
-3.90168
-3.6018
-3.30508
-3.01627
-2.74189
-2.48956
-2.26612
-2.07535
-1.91699
-1.78745
-1.68153
-1.59401
-1.52035
-1.45683
-1.40047
-1.34877
-1.29964
-1.25129
-1.20218
-1.151
-1.09669
-1.03833
-0.975235
-0.90684
-0.832754
-0.752792
-0.667124
-0.576624
-0.483153
-0.390082
-0.300828
-0.220618
-0.147075
-0.0935881
-0.0226978
-0.0432627
-10.0898
-10.1525
-10.1987
-10.2188
-10.2314
-10.2443
-10.2565
-10.2688
-10.2827
-10.2988
-10.3178
-10.3402
-10.3656
-10.3936
-10.4239
-10.4558
-10.4884
-10.5207
-10.552
-10.5823
-10.6115
-10.6395
-10.6654
-10.6885
-10.7076
-10.7219
-10.7309
-10.7337
-10.7294
-10.7171
-10.6959
-10.665
-10.6235
-10.5711
-10.507
-10.4308
-10.3418
-10.2395
-10.1233
-9.99276
-9.84782
-9.68868
-9.51595
-9.33058
-9.13384
-8.92712
-8.71179
-8.489
-8.25956
-8.02394
-7.78228
-7.5346
-7.28089
-7.02136
-6.75638
-6.48656
-6.21258
-5.93505
-5.65441
-5.37088
-5.08447
-4.79515
-4.50304
-4.2086
-3.91289
-3.61776
-3.32622
-3.04266
-2.773
-2.52407
-2.30213
-2.11094
-1.95076
-1.8187
-1.71021
-1.62037
-1.54472
-1.47953
-1.42171
-1.3687
-1.31834
-1.26878
-1.21845
-1.16605
-1.11047
-1.05084
-0.986482
-0.91686
-0.841627
-0.760647
-0.674128
-0.582947
-0.488903
-0.395233
-0.305245
-0.224055
-0.149496
-0.0947169
-0.0232844
-0.0426628
-10.085
-10.1345
-10.1756
-10.1992
-10.2146
-10.2291
-10.2429
-10.2566
-10.2711
-10.2872
-10.3057
-10.3274
-10.3518
-10.3783
-10.4066
-10.4361
-10.4662
-10.4961
-10.5251
-10.5532
-10.5799
-10.6052
-10.6282
-10.6482
-10.6644
-10.6758
-10.682
-10.6821
-10.6753
-10.6607
-10.6375
-10.6047
-10.5619
-10.5082
-10.4433
-10.3665
-10.2773
-10.1751
-10.0595
-9.93004
-9.78671
-9.62969
-9.45953
-9.2771
-9.08351
-8.88002
-8.66787
-8.44811
-8.22154
-7.98863
-7.74961
-7.50455
-7.25355
-6.99681
-6.73473
-6.46786
-6.19682
-5.92221
-5.64445
-5.3638
-5.08036
-4.79423
-4.50562
-4.2151
-3.9238
-3.63362
-3.34747
-3.06948
-2.80501
-2.56017
-2.34055
-2.14968
-1.98808
-1.85352
-1.74208
-1.6493
-1.57097
-1.50339
-1.44346
-1.38854
-1.33642
-1.28522
-1.23333
-1.17943
-1.12242
-1.06143
-0.995795
-0.92502
-0.848797
-0.767038
-0.679998
-0.588552
-0.494411
-0.400626
-0.310324
-0.228444
-0.153052
-0.0969227
-0.0251757
-0.0421848
-10.0789
-10.1197
-10.1558
-10.1806
-10.1983
-10.2141
-10.2291
-10.2436
-10.2585
-10.2748
-10.2932
-10.3142
-10.3374
-10.3623
-10.3885
-10.4157
-10.4433
-10.4709
-10.4977
-10.5234
-10.5477
-10.5702
-10.5904
-10.6075
-10.6208
-10.6295
-10.6329
-10.6303
-10.621
-10.6041
-10.5788
-10.5442
-10.4998
-10.4449
-10.379
-10.3015
-10.212
-10.1099
-9.99482
-9.86642
-9.72463
-9.56965
-9.40198
-9.2224
-9.0319
-8.83161
-8.62265
-8.40598
-8.18235
-7.95226
-7.71598
-7.47366
-7.22545
-6.97161
-6.7125
-6.44866
-6.18067
-5.90908
-5.63432
-5.35669
-5.07637
-4.79354
-4.50853
-4.222
-3.93516
-3.64991
-3.36908
-3.09657
-2.8373
-2.59673
-2.37982
-2.18978
-2.02727
-1.89049
-1.77611
-1.68014
-1.59868
-1.5282
-1.4656
-1.40828
-1.35396
-1.30074
-1.247
-1.19139
-1.13281
-1.0704
-1.00351
-0.931657
-0.854584
-0.77225
-0.684951
-0.593564
-0.499709
-0.40622
-0.315992
-0.233708
-0.157667
-0.100147
-0.0282736
-0.0417508
-10.0718
-10.1066
-10.1387
-10.1634
-10.1824
-10.1992
-10.2148
-10.2299
-10.2453
-10.2618
-10.28
-10.3002
-10.3221
-10.3453
-10.3695
-10.3945
-10.42
-10.4453
-10.4698
-10.4931
-10.5148
-10.5347
-10.5521
-10.5665
-10.577
-10.583
-10.5838
-10.5787
-10.5669
-10.5477
-10.5203
-10.484
-10.4381
-10.382
-10.3151
-10.237
-10.1472
-10.0452
-9.93067
-9.80326
-9.66297
-9.50997
-9.34471
-9.16789
-8.9804
-8.78325
-8.57744
-8.36386
-8.14321
-7.916
-7.68255
-7.44305
-7.19772
-6.94682
-6.69074
-6.42997
-6.16507
-5.89656
-5.62487
-5.35034
-5.07321
-4.79375
-4.51239
-4.22988
-3.94746
-3.66704
-3.39137
-3.12413
-2.86983
-2.63339
-2.41923
-2.23023
-2.06711
-1.92842
-1.81129
-1.71215
-1.62741
-1.55373
-1.48813
-1.42802
-1.37116
-1.31563
-1.2598
-1.20231
-1.14205
-1.07818
-1.01003
-0.937175
-0.859363
-0.7766
-0.689222
-0.598106
-0.504792
-0.411895
-0.322058
-0.239645
-0.163156
-0.104254
-0.0324214
-0.0413038
-10.0642
-10.0946
-10.1234
-10.1474
-10.167
-10.1842
-10.2003
-10.2159
-10.2316
-10.2482
-10.266
-10.2852
-10.3058
-10.3275
-10.3499
-10.3729
-10.3962
-10.4192
-10.4413
-10.4622
-10.4814
-10.4986
-10.5134
-10.5251
-10.533
-10.5365
-10.5347
-10.5271
-10.513
-10.4916
-10.4623
-10.4242
-10.3769
-10.3196
-10.2519
-10.1732
-10.0832
-9.98137
-9.86737
-9.74098
-9.60217
-9.45111
-9.28819
-9.11406
-8.92949
-8.7354
-8.53269
-8.32217
-8.10452
-7.88022
-7.64964
-7.41301
-7.17059
-6.92267
-6.66963
-6.41196
-6.15016
-5.88476
-5.61619
-5.3448
-5.07092
-4.79489
-4.51722
-4.23873
-3.9607
-3.68503
-3.41437
-3.15218
-2.9026
-2.67009
-2.45857
-2.27067
-2.10709
-1.96669
-1.84697
-1.74476
-1.65674
-1.57977
-1.51099
-1.4479
-1.38828
-1.33023
-1.27213
-1.21263
-1.15061
-1.08524
-1.01585
-0.942023
-0.863543
-0.780443
-0.693088
-0.602351
-0.509703
-0.417559
-0.328317
-0.245993
-0.16925
-0.109029
-0.0373854
-0.0408069
-10.0562
-10.0832
-10.1093
-10.1323
-10.1519
-10.1694
-10.1858
-10.2016
-10.2175
-10.2338
-10.2511
-10.2694
-10.2887
-10.3089
-10.3296
-10.3507
-10.3718
-10.3926
-10.4124
-10.4308
-10.4476
-10.4623
-10.4745
-10.4836
-10.489
-10.4899
-10.4856
-10.4757
-10.4593
-10.4358
-10.4045
-10.3649
-10.3161
-10.2578
-10.1893
-10.1101
-10.0199
-9.9183
-9.8049
-9.67954
-9.5422
-9.39303
-9.2324
-9.06087
-8.87914
-8.68803
-8.48835
-8.28086
-8.06618
-7.84481
-7.61712
-7.38339
-7.14391
-6.89898
-6.649
-6.39442
-6.13575
-5.87348
-5.60805
-5.33987
-5.06929
-4.79674
-4.52279
-4.24833
-3.97467
-3.70367
-3.43788
-3.18055
-2.93549
-2.7067
-2.49772
-2.31091
-2.14699
-2.00502
-1.88285
-1.77767
-1.68642
-1.60615
-1.53415
-1.46799
-1.4055
-1.34482
-1.28435
-1.22275
-1.15892
-1.09201
-1.02138
-0.946609
-0.867501
-0.78411
-0.69682
-0.606497
-0.514543
-0.423198
-0.334636
-0.25253
-0.175679
-0.114221
-0.0428712
-0.040255
-10.0479
-10.0724
-10.0962
-10.118
-10.1372
-10.1547
-10.1711
-10.187
-10.2028
-10.2188
-10.2354
-10.2528
-10.271
-10.2897
-10.3087
-10.3279
-10.347
-10.3655
-10.383
-10.3992
-10.4135
-10.4258
-10.4355
-10.4421
-10.4449
-10.4433
-10.4367
-10.4244
-10.4058
-10.3803
-10.3472
-10.306
-10.2559
-10.1965
-10.1273
-10.0477
-9.95736
-9.85595
-9.74317
-9.61885
-9.48296
-9.33564
-9.17723
-9.00822
-8.82925
-8.64104
-8.44434
-8.23982
-8.02809
-7.80965
-7.58486
-7.35405
-7.11751
-6.87559
-6.62867
-6.3772
-6.12166
-5.86254
-5.6003
-5.33536
-5.06813
-4.7991
-4.52892
-4.2585
-3.98917
-3.72277
-3.46173
-3.20909
-2.96833
-2.7431
-2.53655
-2.35083
-2.18664
-2.04324
-1.91876
-1.81071
-1.7163
-1.63277
-1.55756
-1.4883
-1.42291
-1.35956
-1.29668
-1.23294
-1.16727
-1.09881
-1.02693
-0.951225
-0.871505
-0.787839
-0.700623
-0.610704
-0.519419
-0.428844
-0.340962
-0.259116
-0.182236
-0.119613
-0.0485746
-0.0396898
-10.0394
-10.0617
-10.0837
-10.1042
-10.1229
-10.1402
-10.1564
-10.1721
-10.1876
-10.2032
-10.2191
-10.2356
-10.2525
-10.2698
-10.2872
-10.3046
-10.3216
-10.338
-10.3533
-10.3672
-10.3792
-10.3891
-10.3963
-10.4004
-10.4008
-10.3968
-10.3878
-10.3733
-10.3526
-10.3252
-10.2904
-10.2476
-10.1963
-10.1359
-10.0659
-9.98586
-9.89545
-9.7943
-9.68216
-9.55886
-9.42439
-9.27888
-9.12262
-8.95606
-8.77977
-8.59438
-8.40058
-8.199
-7.9902
-7.77466
-7.55278
-7.32489
-7.09132
-6.85241
-6.60855
-6.36019
-6.1078
-5.85186
-5.59284
-5.33118
-5.06735
-4.80188
-4.53548
-4.2691
-4.00408
-3.7422
-3.48578
-3.23765
-3.00103
-2.77917
-2.57495
-2.3903
-2.22591
-2.08119
-1.95455
-1.84375
-1.74626
-1.65953
-1.58112
-1.50878
-1.44049
-1.37447
-1.30917
-1.24329
-1.17577
-1.10576
-1.03264
-0.956013
-0.875689
-0.791753
-0.7046
-0.615057
-0.524391
-0.434525
-0.347274
-0.265673
-0.188784
-0.125046
-0.0542356
-0.0391971
-10.0307
-10.0513
-10.0716
-10.0909
-10.1089
-10.1257
-10.1416
-10.157
-10.172
-10.1871
-10.2023
-10.2178
-10.2335
-10.2494
-10.2652
-10.2808
-10.2959
-10.3102
-10.3233
-10.335
-10.3448
-10.3523
-10.3571
-10.3588
-10.3568
-10.3505
-10.3392
-10.3225
-10.2998
-10.2705
-10.234
-10.1897
-10.1372
-10.0758
-10.0051
-9.92471
-9.83423
-9.73336
-9.62185
-9.49957
-9.36649
-9.22273
-9.06856
-8.90437
-8.73067
-8.54803
-8.35707
-8.15838
-7.95248
-7.73984
-7.52086
-7.2959
-7.06529
-6.8294
-6.58861
-6.34337
-6.09414
-5.84139
-5.58562
-5.32728
-5.06688
-4.80501
-4.54241
-4.28006
-4.01929
-3.76185
-3.50992
-3.26615
-3.03347
-2.81485
-2.61286
-2.42926
-2.26473
-2.1188
-1.99011
-1.87667
-1.7762
-1.68633
-1.60476
-1.52936
-1.45819
-1.38949
-1.32178
-1.25378
-1.18442
-1.11287
-1.03853
-0.960985
-0.880069
-0.795865
-0.708764
-0.619565
-0.529463
-0.440238
-0.35355
-0.272152
-0.195233
-0.13041
-0.0596651
-0.0388687
-10.0219
-10.0409
-10.0598
-10.0779
-10.0951
-10.1113
-10.1267
-10.1416
-10.1561
-10.1706
-10.185
-10.1994
-10.2139
-10.2284
-10.2427
-10.2565
-10.2697
-10.282
-10.2931
-10.3026
-10.3102
-10.3154
-10.3179
-10.3173
-10.3129
-10.3043
-10.2909
-10.2721
-10.2474
-10.2162
-10.1781
-10.1324
-10.0787
-10.0163
-9.94502
-9.86427
-9.77374
-9.67315
-9.56227
-9.44099
-9.30926
-9.16721
-9.01506
-8.85317
-8.68198
-8.50202
-8.31383
-8.11797
-7.91494
-7.70518
-7.4891
-7.26706
-7.03942
-6.80655
-6.56883
-6.32671
-6.08065
-5.83112
-5.57862
-5.32363
-5.0667
-4.80845
-4.54965
-4.29131
-4.03475
-3.78164
-3.53407
-3.2945
-3.0656
-2.85007
-2.65021
-2.46764
-2.30301
-2.15597
-2.02536
-1.9094
-1.80604
-1.7131
-1.62843
-1.55
-1.47594
-1.40459
-1.33447
-1.26434
-1.19315
-1.12009
-1.04453
-0.966091
-0.884595
-0.800127
-0.713071
-0.624187
-0.5346
-0.445951
-0.359758
-0.278515
-0.201522
-0.135637
-0.0647469
-0.038765
-10.0129
-10.0305
-10.0481
-10.0651
-10.0814
-10.0969
-10.1117
-10.126
-10.14
-10.1536
-10.1672
-10.1806
-10.1939
-10.207
-10.2197
-10.2318
-10.2432
-10.2536
-10.2627
-10.2701
-10.2755
-10.2785
-10.2788
-10.2758
-10.2692
-10.2584
-10.2429
-10.222
-10.1954
-10.1625
-10.1228
-10.0757
-10.0208
-9.95763
-9.88567
-9.80458
-9.71402
-9.61372
-9.50347
-9.38316
-9.25276
-9.11235
-8.96216
-8.80248
-8.63373
-8.45637
-8.2709
-8.07782
-7.87762
-7.67072
-7.45752
-7.2384
-7.01373
-6.78387
-6.54922
-6.31022
-6.06734
-5.82104
-5.57183
-5.32022
-5.06677
-4.81215
-4.55715
-4.3028
-4.05037
-3.80151
-3.55817
-3.32263
-3.09735
-2.88476
-2.68695
-2.50539
-2.34071
-2.19265
-2.06023
-1.94187
-1.83573
-1.7398
-1.65208
-1.57065
-1.49373
-1.41973
-1.34721
-1.27496
-1.20194
-1.12736
-1.0506
-0.971278
-0.88921
-0.804483
-0.717462
-0.628868
-0.539753
-0.451621
-0.365862
-0.284726
-0.207609
-0.140683
-0.0694265
-0.0389018
-10.0037
-10.0202
-10.0365
-10.0525
-10.0679
-10.0826
-10.0967
-10.1103
-10.1235
-10.1364
-10.149
-10.1614
-10.1735
-10.1852
-10.1964
-10.2069
-10.2165
-10.225
-10.2321
-10.2375
-10.2408
-10.2416
-10.2397
-10.2346
-10.2258
-10.2129
-10.1952
-10.1725
-10.144
-10.1094
-10.0682
-10.0198
-9.96376
-9.89968
-9.82713
-9.74572
-9.65514
-9.55513
-9.4455
-9.32613
-9.19701
-9.05821
-8.9099
-8.75237
-8.58597
-8.41114
-8.22832
-8.03797
-7.84055
-7.63648
-7.42616
-7.20995
-6.98823
-6.76137
-6.5298
-6.29392
-6.05422
-5.81116
-5.56525
-5.31703
-5.06708
-4.81609
-4.56488
-4.31447
-4.06612
-3.82139
-3.58214
-3.35048
-3.12866
-2.91888
-2.72303
-2.54246
-2.37776
-2.22878
-2.09465
-1.97402
-1.86521
-1.76638
-1.67567
-1.5913
-1.51156
-1.43491
-1.36
-1.28562
-1.21078
-1.13468
-1.05673
-0.976515
-0.893879
-0.808889
-0.721891
-0.633561
-0.544876
-0.45721
-0.371827
-0.290756
-0.213467
-0.145525
-0.0736965
-0.0392624
-9.9944
-10.0097
-10.025
-10.0399
-10.0544
-10.0683
-10.0816
-10.0945
-10.1069
-10.1189
-10.1305
-10.1418
-10.1527
-10.163
-10.1727
-10.1816
-10.1896
-10.1962
-10.2014
-10.2048
-10.2061
-10.2049
-10.2008
-10.1936
-10.1827
-10.1677
-10.1481
-10.1234
-10.0932
-10.057
-10.0142
-9.96457
-9.90749
-9.84258
-9.76945
-9.68774
-9.59715
-9.49743
-9.38841
-9.26997
-9.14208
-9.00482
-8.85834
-8.70288
-8.53877
-8.36639
-8.18615
-7.99848
-7.80381
-7.60253
-7.39505
-7.18173
-6.96295
-6.7391
-6.51058
-6.27783
-6.0413
-5.80148
-5.55888
-5.31405
-5.06761
-4.82024
-4.57279
-4.32627
-4.08191
-3.84122
-3.60592
-3.37799
-3.15948
-2.95238
-2.75841
-2.5788
-2.41413
-2.2643
-2.12858
-2.00579
-1.89442
-1.79279
-1.69918
-1.61191
-1.52939
-1.45014
-1.37284
-1.29634
-1.21968
-1.14206
-1.0629
-0.981799
-0.898589
-0.813326
-0.726333
-0.638237
-0.549937
-0.462685
-0.377625
-0.296582
-0.219074
-0.150148
-0.077577
-0.0398091
-9.98493
-9.99921
-10.0134
-10.0274
-10.0409
-10.0539
-10.0665
-10.0785
-10.0901
-10.1012
-10.1118
-10.122
-10.1316
-10.1406
-10.1489
-10.1562
-10.1625
-10.1674
-10.1707
-10.1722
-10.1714
-10.1682
-10.1622
-10.1529
-10.14
-10.123
-10.1015
-10.075
-10.0431
-10.0053
-9.96111
-9.9102
-9.85209
-9.78638
-9.7127
-9.63071
-9.54013
-9.4407
-9.33227
-9.21472
-9.08804
-8.95226
-8.80754
-8.65409
-8.49219
-8.32219
-8.14446
-7.95941
-7.76743
-7.56892
-7.36425
-7.1538
-6.93795
-6.71708
-6.49161
-6.26196
-6.0286
-5.79201
-5.55272
-5.31129
-5.06834
-4.82458
-4.58085
-4.33816
-4.09772
-3.86093
-3.62946
-3.4051
-3.18974
-2.9852
-2.79303
-2.61436
-2.44975
-2.29915
-2.16195
-2.03711
-1.92329
-1.81897
-1.72255
-1.63247
-1.54721
-1.46538
-1.38572
-1.30712
-1.22864
-1.1495
-1.06913
-0.987138
-0.903343
-0.817792
-0.730779
-0.642879
-0.554918
-0.468027
-0.383238
-0.302186
-0.224418
-0.154543
-0.0811009
-0.040495
-9.97533
-9.98863
-10.0018
-10.0148
-10.0274
-10.0396
-10.0513
-10.0625
-10.0731
-10.0833
-10.0929
-10.102
-10.1104
-10.1181
-10.1249
-10.1307
-10.1353
-10.1385
-10.14
-10.1396
-10.137
-10.1319
-10.1238
-10.1126
-10.0977
-10.0788
-10.0554
-10.0272
-9.99365
-9.95433
-9.90883
-9.85673
-9.79765
-9.73118
-9.65698
-9.57472
-9.48414
-9.385
-9.27715
-9.16047
-9.03494
-8.9006
-8.75758
-8.60605
-8.44629
-8.2786
-8.10332
-7.92083