/*--------------------------------*- C++ -*----------------------------------*\
  =========                 |
  \\      /  F ield         | OpenFOAM: The Open Source CFD Toolbox
   \\    /   O peration     | Website:  https://openfoam.org
    \\  /    A nd           | Version:  10
     \\/     M anipulation  |
\*---------------------------------------------------------------------------*/
FoamFile
{
    format      ascii;
    class       surfaceScalarField;
    location    "600";
    object      phi;
}
// * * * * * * * * * * * * * * * * * * * * * * * * * * * * * * * * * * * * * //

dimensions      [0 3 -1 0 0 0 0];

internalField   nonuniform List<scalar> 
13452
(
6.02921e-05
-2.36391e-08
5.99943e-05
2.97784e-07
5.95909e-05
4.03419e-07
5.91177e-05
4.73187e-07
5.86145e-05
5.03203e-07
5.81347e-05
4.79816e-07
5.77003e-05
4.34386e-07
5.73117e-05
3.88625e-07
5.69634e-05
3.48312e-07
5.66496e-05
3.13777e-07
5.63651e-05
2.84504e-07
5.61053e-05
2.59763e-07
5.58666e-05
2.38724e-07
5.5646e-05
2.20636e-07
5.54411e-05
2.04901e-07
5.525e-05
1.91069e-07
5.50712e-05
1.78799e-07
5.49034e-05
1.67832e-07
5.47454e-05
1.57976e-07
5.45963e-05
1.4909e-07
5.44552e-05
1.41077e-07
5.43213e-05
1.33882e-07
5.41938e-05
1.27495e-07
5.40719e-05
1.21971e-07
5.39544e-05
1.17447e-07
5.38402e-05
1.14231e-07
5.37272e-05
1.12976e-07
5.36125e-05
1.14734e-07
5.34891e-05
1.23337e-07
5.33531e-05
1.36048e-07
5.31291e-05
2.24019e-07
5.29127e-05
2.16416e-07
3.22371e-07
5.25903e-05
6.21472e-05
-1.8052e-07
6.21734e-05
2.7165e-07
6.21955e-05
3.81222e-07
6.22124e-05
4.56328e-07
6.22131e-05
5.02535e-07
6.21837e-05
5.092e-07
6.21229e-05
4.95207e-07
6.20368e-05
4.7469e-07
6.19332e-05
4.51966e-07
6.18185e-05
4.28468e-07
6.16976e-05
4.05334e-07
6.15741e-05
3.83307e-07
6.14501e-05
3.62674e-07
6.13273e-05
3.43475e-07
6.12065e-05
3.25658e-07
6.10885e-05
3.09142e-07
6.09734e-05
2.93829e-07
6.08616e-05
2.79626e-07
6.07532e-05
2.66448e-07
6.0648e-05
2.54228e-07
6.05462e-05
2.4292e-07
6.04476e-05
2.32503e-07
6.03521e-05
2.22995e-07
6.02596e-05
2.14461e-07
6.017e-05
2.07056e-07
6.00832e-05
2.01031e-07
5.99991e-05
1.97033e-07
5.99184e-05
1.95491e-07
5.98414e-05
2.00259e-07
5.97712e-05
2.0633e-07
5.97468e-05
2.48375e-07
5.97181e-05
2.45098e-07
3.30858e-07
5.97096e-05
6.36688e-05
-8.78765e-08
6.37279e-05
2.12535e-07
6.37885e-05
3.20639e-07
6.38526e-05
3.92191e-07
6.39082e-05
4.46927e-07
6.39459e-05
4.71542e-07
6.39655e-05
4.75604e-07
6.39698e-05
4.7037e-07
6.39615e-05
4.60278e-07
6.39429e-05
4.47045e-07
6.39162e-05
4.32055e-07
6.38831e-05
4.16363e-07
6.38452e-05
4.00574e-07
6.38037e-05
3.85013e-07
6.37595e-05
3.69869e-07
6.37134e-05
3.55258e-07
6.36659e-05
3.41246e-07
6.36177e-05
3.27868e-07
6.3569e-05
3.15146e-07
6.35201e-05
3.03098e-07
6.34713e-05
2.9175e-07
6.34227e-05
2.81148e-07
6.33743e-05
2.71364e-07
6.33262e-05
2.62522e-07
6.32784e-05
2.54836e-07
6.32309e-05
2.48605e-07
6.31834e-05
2.44489e-07
6.31359e-05
2.42995e-07
6.30893e-05
2.46857e-07
6.3042e-05
2.53642e-07
6.30131e-05
2.773e-07
6.29665e-05
2.91722e-07
3.40871e-07
6.29564e-05
6.55169e-05
-2.17496e-08
6.55583e-05
1.71222e-07
6.55958e-05
2.83141e-07
6.56375e-05
3.50492e-07
6.56807e-05
4.03656e-07
6.57187e-05
4.33535e-07
6.57498e-05
4.44495e-07
6.57743e-05
4.45875e-07
6.57925e-05
4.42099e-07
6.58048e-05
4.34766e-07
6.58118e-05
4.2507e-07
6.58141e-05
4.13993e-07
6.58126e-05
4.02167e-07
6.58076e-05
3.89968e-07
6.57998e-05
3.77651e-07
6.57897e-05
3.65396e-07
6.57776e-05
3.53337e-07
6.57639e-05
3.41567e-07
6.57489e-05
3.30163e-07
6.57328e-05
3.19195e-07
6.57158e-05
3.08734e-07
6.56981e-05
2.98868e-07
6.56797e-05
2.89712e-07
6.56608e-05
2.81426e-07
6.56414e-05
2.74252e-07
6.56215e-05
2.68516e-07
6.56012e-05
2.648e-07
6.55805e-05
2.63648e-07
6.55607e-05
2.66725e-07
6.55411e-05
2.73203e-07
6.55296e-05
2.88769e-07
6.55162e-05
3.05111e-07
3.35024e-07
6.55221e-05
6.74276e-05
7.43801e-09
6.74483e-05
1.5055e-07
6.74723e-05
2.59101e-07
6.75011e-05
3.21655e-07
6.75353e-05
3.69534e-07
6.7569e-05
3.99796e-07
6.75998e-05
4.1372e-07
6.76272e-05
4.1841e-07
6.76514e-05
4.17959e-07
6.76723e-05
4.13896e-07
6.769e-05
4.0729e-07
6.7705e-05
3.99056e-07
6.77173e-05
3.89809e-07
6.77274e-05
3.79928e-07
6.77353e-05
3.69676e-07
6.77415e-05
3.59251e-07
6.7746e-05
3.48803e-07
6.77491e-05
3.38449e-07
6.7751e-05
3.28287e-07
6.77518e-05
3.18409e-07
6.77516e-05
3.0891e-07
6.77506e-05
2.99897e-07
6.77488e-05
2.91503e-07
6.77463e-05
2.83902e-07
6.77433e-05
2.77335e-07
6.77397e-05
2.7211e-07
6.77358e-05
2.68699e-07
6.77318e-05
2.67572e-07
6.77289e-05
2.69674e-07
6.77273e-05
2.74814e-07
6.77309e-05
2.85147e-07
6.77383e-05
2.97725e-07
3.15098e-07
6.77582e-05
6.937e-05
2.14662e-08
6.9383e-05
1.37575e-07
6.9405e-05
2.37033e-07
6.943e-05
2.96723e-07
6.94588e-05
3.40698e-07
6.94883e-05
3.70353e-07
6.95162e-05
3.85787e-07
6.95423e-05
3.92279e-07
6.95667e-05
3.9361e-07
6.95892e-05
3.91349e-07
6.961e-05
3.86509e-07
6.96291e-05
3.79953e-07
6.96466e-05
3.72278e-07
6.96627e-05
3.63862e-07
6.96774e-05
3.54965e-07
6.96909e-05
3.45786e-07
6.97032e-05
3.3648e-07
6.97145e-05
3.27167e-07
6.97248e-05
3.17954e-07
6.97343e-05
3.08939e-07
6.9743e-05
3.00224e-07
6.97509e-05
2.91922e-07
6.97583e-05
2.84168e-07
6.9765e-05
2.7713e-07
6.97714e-05
2.71023e-07
6.97774e-05
2.66113e-07
6.97833e-05
2.62751e-07
6.97896e-05
2.61281e-07
6.97971e-05
2.62196e-07
6.98065e-05
2.65432e-07
6.982e-05
2.71603e-07
6.98385e-05
2.79232e-07
2.87582e-07
6.9866e-05
7.13589e-05
2.89009e-08
7.13698e-05
1.26651e-07
7.13912e-05
2.15677e-07
7.14146e-05
2.73311e-07
7.14406e-05
3.14738e-07
7.14673e-05
3.43572e-07
7.14932e-05
3.59893e-07
7.15179e-05
3.67587e-07
7.15415e-05
3.70063e-07
7.15639e-05
3.68939e-07
7.15852e-05
3.6521e-07
7.16054e-05
3.59702e-07
7.16247e-05
3.53006e-07
7.16431e-05
3.45508e-07
7.16605e-05
3.37472e-07
7.16772e-05
3.291e-07
7.16932e-05
3.20548e-07
7.17084e-05
3.11938e-07
7.1723e-05
3.03379e-07
7.17369e-05
2.94969e-07
7.17504e-05
2.86809e-07
7.17633e-05
2.7901e-07
7.17757e-05
2.71697e-07
7.17878e-05
2.65019e-07
7.17997e-05
2.59155e-07
7.18115e-05
2.54312e-07
7.18235e-05
2.5073e-07
7.18362e-05
2.48618e-07
7.18502e-05
2.48184e-07
7.18663e-05
2.49309e-07
7.1886e-05
2.51915e-07
7.19104e-05
2.54889e-07
2.5674e-07
7.19412e-05
7.3402e-05
3.21573e-08
7.34119e-05
1.16728e-07
7.34317e-05
1.95923e-07
7.3454e-05
2.51029e-07
7.34783e-05
2.90377e-07
7.35037e-05
3.18251e-07
7.35284e-05
3.35102e-07
7.35523e-05
3.43745e-07
7.35752e-05
3.47131e-07
7.35973e-05
3.46878e-07
7.36185e-05
3.43973e-07
7.3639e-05
3.39216e-07
7.36588e-05
3.332e-07
7.3678e-05
3.26321e-07
7.36966e-05
3.18857e-07
7.37147e-05
3.11016e-07
7.37323e-05
3.02955e-07
7.37494e-05
2.94804e-07
7.37661e-05
2.8667e-07
7.37825e-05
2.7865e-07
7.37984e-05
2.70843e-07
7.38141e-05
2.63349e-07
7.38295e-05
2.56279e-07
7.38448e-05
2.49758e-07
7.386e-05
2.43923e-07
7.38754e-05
2.38919e-07
7.38912e-05
2.3489e-07
7.39079e-05
2.3193e-07
7.3926e-05
2.30064e-07
7.39463e-05
2.29088e-07
7.39695e-05
2.28625e-07
7.39967e-05
2.27702e-07
2.24934e-07
7.40285e-05
7.55019e-05
3.27523e-08
7.55111e-05
1.07516e-07
7.55291e-05
1.77911e-07
7.55503e-05
2.2983e-07
7.55735e-05
2.67192e-07
7.55978e-05
2.93981e-07
7.56218e-05
3.11025e-07
7.56452e-05
3.20381e-07
7.56678e-05
3.24517e-07
7.56897e-05
3.24991e-07
7.57109e-05
3.22775e-07
7.57315e-05
3.18637e-07
7.57515e-05
3.13164e-07
7.57711e-05
3.06764e-07
7.57902e-05
2.99725e-07
7.58089e-05
2.92263e-07
7.58274e-05
2.84545e-07
7.58455e-05
2.76701e-07
7.58633e-05
2.6884e-07
7.58809e-05
2.6106e-07
7.58983e-05
2.53452e-07
7.59155e-05
2.46107e-07
7.59327e-05
2.39119e-07
7.59499e-05
2.32585e-07
7.59672e-05
2.26604e-07
7.59848e-05
2.21263e-07
7.60031e-05
2.16629e-07
7.60223e-05
2.12707e-07
7.6043e-05
2.09409e-07
7.60656e-05
2.06471e-07
7.60908e-05
2.0342e-07
7.61191e-05
1.99421e-07
1.93404e-07
7.61506e-05
7.76605e-05
3.18092e-08
7.76693e-05
9.8773e-08
7.76857e-05
1.61434e-07
7.77058e-05
2.0975e-07
7.77279e-05
2.45084e-07
7.77512e-05
2.70667e-07
7.77747e-05
2.87573e-07
7.77977e-05
2.97371e-07
7.78201e-05
3.0208e-07
7.7842e-05
3.03149e-07
7.78632e-05
3.01517e-07
7.7884e-05
2.97916e-07
7.79042e-05
2.92914e-07
7.79241e-05
2.86923e-07
7.79435e-05
2.80239e-07
7.79627e-05
2.73083e-07
7.79816e-05
2.65627e-07
7.80003e-05
2.58006e-07
7.80188e-05
2.5033e-07
7.80372e-05
2.42694e-07
7.80555e-05
2.35184e-07
7.80737e-05
2.2788e-07
7.8092e-05
2.20858e-07
7.81104e-05
2.1419e-07
7.8129e-05
2.07939e-07
7.81481e-05
2.02146e-07
7.8168e-05
1.96819e-07
7.81888e-05
1.91902e-07
7.82109e-05
1.87246e-07
7.82348e-05
1.82563e-07
7.82609e-05
1.77388e-07
7.82892e-05
1.71042e-07
1.62763e-07
7.83199e-05
7.98801e-05
3.00301e-08
7.98885e-05
9.03695e-08
7.99037e-05
1.46269e-07
7.99226e-05
1.90801e-07
7.99437e-05
2.24002e-07
7.99661e-05
2.48262e-07
7.99889e-05
2.64745e-07
8.00116e-05
2.74714e-07
8.00339e-05
2.79806e-07
8.00557e-05
2.81326e-07
8.0077e-05
2.80169e-07
8.00979e-05
2.77022e-07
8.01184e-05
2.7243e-07
8.01385e-05
2.66798e-07
8.01583e-05
2.60424e-07
8.01779e-05
2.53532e-07
8.01972e-05
2.46296e-07
8.02164e-05
2.38852e-07
8.02354e-05
2.3131e-07
8.02543e-05
2.23762e-07
8.02732e-05
2.16287e-07
8.02922e-05
2.08954e-07
8.03112e-05
2.01824e-07
8.03304e-05
1.94946e-07
8.035e-05
1.88352e-07
8.03701e-05
1.8205e-07
8.03909e-05
1.76006e-07
8.04127e-05
1.70128e-07
8.04357e-05
1.64242e-07
8.04602e-05
1.58068e-07
8.04864e-05
1.51197e-07
8.05143e-05
1.43105e-07
1.33278e-07
8.05438e-05
8.21626e-05
2.78272e-08
8.21707e-05
8.22677e-08
8.21848e-05
1.32217e-07
8.22027e-05
1.72938e-07
8.22228e-05
2.03888e-07
8.22443e-05
2.26719e-07
8.22665e-05
2.42552e-07
8.22888e-05
2.52445e-07
8.23109e-05
2.57727e-07
8.23326e-05
2.59549e-07
8.23541e-05
2.58748e-07
8.23751e-05
2.55965e-07
8.23958e-05
2.51716e-07
8.24162e-05
2.46393e-07
8.24364e-05
2.40288e-07
8.24563e-05
2.33626e-07
8.2476e-05
2.26578e-07
8.24956e-05
2.19281e-07
8.2515e-05
2.11841e-07
8.25344e-05
2.04347e-07
8.25539e-05
1.96869e-07
8.25734e-05
1.89468e-07
8.2593e-05
1.82188e-07
8.26129e-05
1.7506e-07
8.26331e-05
1.68094e-07
8.26539e-05
1.61272e-07
8.26754e-05
1.54537e-07
8.26977e-05
1.47779e-07
8.27211e-05
1.40824e-07
8.27458e-05
1.33421e-07
8.27718e-05
1.25234e-07
8.2799e-05
1.15876e-07
1.05016e-07
8.28272e-05
8.45102e-05
2.54411e-08
8.4518e-05
7.44677e-08
8.45311e-05
1.19109e-07
8.45479e-05
1.56084e-07
8.45671e-05
1.84684e-07
8.45879e-05
2.05988e-07
8.46094e-05
2.20985e-07
8.46313e-05
2.30587e-07
8.46531e-05
2.35877e-07
8.46748e-05
2.37856e-07
8.46963e-05
2.37291e-07
8.47175e-05
2.34779e-07
8.47384e-05
2.30801e-07
8.4759e-05
2.25731e-07
8.47795e-05
2.19853e-07
8.47997e-05
2.13386e-07
8.48198e-05
2.06498e-07
8.48398e-05
1.99322e-07
8.48596e-05
1.9196e-07
8.48795e-05
1.84496e-07
8.48994e-05
1.76992e-07
8.49193e-05
1.695e-07
8.49395e-05
1.6205e-07
8.49599e-05
1.54661e-07
8.49806e-05
1.47324e-07
8.50019e-05
1.40007e-07
8.50238e-05
1.32641e-07
8.50465e-05
1.25115e-07
8.507e-05
1.17267e-07
8.50946e-05
1.08885e-07
8.51201e-05
9.97095e-08
8.51465e-05
8.94646e-08
7.79453e-08
8.51736e-05
8.69246e-05
2.30086e-08
8.69321e-05
6.69755e-08
8.69444e-05
1.06803e-07
8.69603e-05
1.40148e-07
8.69787e-05
1.66329e-07
8.69987e-05
1.86012e-07
8.70196e-05
2.00024e-07
8.70411e-05
2.09149e-07
8.70627e-05
2.14281e-07
8.70842e-05
2.16277e-07
8.71057e-05
2.15833e-07
8.7127e-05
2.13499e-07
8.71481e-05
2.09718e-07
8.71689e-05
2.04843e-07
8.71896e-05
1.99147e-07
8.72102e-05
1.9284e-07
8.72306e-05
1.86083e-07
8.72509e-05
1.79004e-07
8.72712e-05
1.717e-07
8.72914e-05
1.64249e-07
8.73117e-05
1.56706e-07
8.73321e-05
1.49113e-07
8.73527e-05
1.41492e-07
8.73735e-05
1.33848e-07
8.73946e-05
1.26164e-07
8.74162e-05
1.18401e-07
8.74384e-05
1.10486e-07
8.74612e-05
1.02315e-07
8.74847e-05
9.37494e-08
8.7509e-05
8.4619e-08
8.7534e-05
7.47303e-08
8.75595e-05
6.38945e-08
5.19922e-08
8.75855e-05
8.94079e-05
2.06042e-08
8.94151e-05
5.97934e-08
8.94267e-05
9.51869e-08
8.94419e-05
1.25037e-07
8.94594e-05
1.48756e-07
8.94787e-05
1.66738e-07
8.94991e-05
1.79639e-07
8.95201e-05
1.88129e-07
8.95414e-05
1.92951e-07
8.95629e-05
1.94836e-07
8.95843e-05
1.94403e-07
8.96056e-05
1.92155e-07
8.96269e-05
1.88498e-07
8.96479e-05
1.83762e-07
8.96689e-05
1.78202e-07
8.96897e-05
1.72018e-07
8.97104e-05
1.65365e-07
8.97311e-05
1.58361e-07
8.97517e-05
1.511e-07
8.97723e-05
1.43651e-07
8.97929e-05
1.36062e-07
8.98137e-05
1.28369e-07
8.98346e-05
1.20585e-07
8.98557e-05
1.12709e-07
8.98772e-05
1.04719e-07
8.9899e-05
9.65722e-08
8.99213e-05
8.82009e-08
8.99441e-05
7.95142e-08
8.99674e-05
7.03985e-08
8.99913e-05
6.07229e-08
9.00157e-05
5.03491e-08
9.00404e-05
3.91538e-08
2.70742e-08
9.00654e-05
9.19622e-05
1.82651e-08
9.19691e-05
5.29152e-08
9.19801e-05
8.4171e-08
9.19945e-05
1.10658e-07
9.20113e-05
1.31899e-07
9.203e-05
1.4811e-07
9.20498e-05
1.59793e-07
9.20704e-05
1.67513e-07
9.20915e-05
1.71889e-07
9.21128e-05
1.73543e-07
9.21342e-05
1.7302e-07
9.21555e-05
1.70772e-07
9.21769e-05
1.67169e-07
9.21981e-05
1.62515e-07
9.22193e-05
1.57048e-07
9.22403e-05
1.50954e-07
9.22613e-05
1.44377e-07
9.22823e-05
1.37431e-07
9.23032e-05
1.302e-07
9.23241e-05
1.22746e-07
9.2345e-05
1.15113e-07
9.2366e-05
1.07329e-07
9.23872e-05
9.94027e-08
9.24086e-05
9.13284e-08
9.24302e-05
8.30827e-08
9.24522e-05
7.46245e-08
9.24745e-05
6.58948e-08
9.24972e-05
5.68183e-08
9.25203e-05
4.73059e-08
9.25437e-05
3.72617e-08
9.25675e-05
2.65911e-08
9.25914e-05
1.52188e-08
3.1176e-09
9.26154e-05
9.45894e-05
1.60075e-08
9.4596e-05
4.63285e-08
9.46065e-05
7.36806e-08
9.46202e-05
9.69285e-08
9.46364e-05
1.1569e-07
9.46545e-05
1.30072e-07
9.46738e-05
1.40446e-07
9.4694e-05
1.4728e-07
9.47148e-05
1.51092e-07
9.4736e-05
1.52405e-07
9.47573e-05
1.51696e-07
9.47787e-05
1.49367e-07
9.48001e-05
1.45752e-07
9.48215e-05
1.41127e-07
9.48429e-05
1.35711e-07
9.48641e-05
1.29674e-07
9.48854e-05
1.23153e-07
9.49065e-05
1.16249e-07
9.49277e-05
1.0904e-07
9.49489e-05
1.01582e-07
9.49701e-05
9.39128e-08
9.49913e-05
8.60548e-08
9.50127e-05
7.80145e-08
9.50343e-05
6.97838e-08
9.5056e-05
6.13406e-08
9.5078e-05
5.26486e-08
9.51002e-05
4.36589e-08
9.51227e-05
3.43121e-08
9.51455e-05
2.45419e-08
9.51685e-05
1.42813e-08
9.51916e-05
3.46954e-09
9.52148e-05
-7.93475e-09
-1.99362e-08
9.52378e-05
9.72917e-05
1.38353e-08
9.7298e-05
4.00141e-08
9.7308e-05
6.36516e-08
9.73212e-05
8.37697e-08
9.73368e-05
1.00063e-07
9.73543e-05
1.12568e-07
9.73732e-05
1.21556e-07
9.73931e-05
1.27406e-07
9.74136e-05
1.30546e-07
9.74346e-05
1.31421e-07
9.74559e-05
1.30438e-07
9.74773e-05
1.27953e-07
9.74988e-05
1.24264e-07
9.75203e-05
1.19619e-07
9.75418e-05
1.14215e-07
9.75632e-05
1.08209e-07
9.75847e-05
1.01723e-07
9.76061e-05
9.48502e-08
9.76275e-05
8.76608e-08
9.76488e-05
8.02041e-08
9.76702e-05
7.25132e-08
9.76917e-05
6.4606e-08
9.77132e-05
5.6487e-08
9.77348e-05
4.81485e-08
9.77566e-05
3.95709e-08
9.77785e-05
3.07245e-08
9.78006e-05
2.15708e-08
9.78229e-05
1.20653e-08
9.78453e-05
2.16174e-09
9.78677e-05
-8.18413e-09
9.78902e-05
-1.90074e-08
9.79126e-05
-3.03261e-08
-4.21307e-08
9.79348e-05
0.000100071
1.1746e-08
0.000100077
3.39503e-08
0.000100087
5.40289e-08
0.0001001
7.11119e-08
0.000100115
8.49523e-08
0.000100132
9.55453e-08
0.00010015
1.0308e-07
0.00010017
1.07858e-07
0.00010019
1.10236e-07
0.000100211
1.10582e-07
0.000100232
1.09246e-07
0.000100253
1.06537e-07
0.000100275
1.02717e-07
0.000100297
9.80066e-08
0.000100318
9.25811e-08
0.00010034
8.65812e-08
0.000100361
8.01163e-08
0.000100383
7.32694e-08
0.000100405
6.61022e-08
0.000100426
5.86581e-08
0.000100448
5.09655e-08
0.000100469
4.30392e-08
0.000100491
3.48829e-08
0.000100513
2.64896e-08
0.000100534
1.78438e-08
0.000100556
8.92224e-09
0.000100578
-3.03404e-10
0.0001006
-9.864e-09
0.000100622
-1.97903e-08
0.000100644
-3.01075e-08
0.000100666
-4.08332e-08
0.000100687
-5.19682e-08
-6.34962e-08
0.000100709
0.00010293
9.73371e-09
0.000102936
2.81123e-08
0.000102945
4.47617e-08
0.000102957
5.88906e-08
0.000102972
7.02959e-08
0.000102989
7.8947e-08
0.000103007
8.4971e-08
0.000103026
8.86046e-08
0.000103046
9.01374e-08
0.000103067
8.9876e-08
0.000103088
8.81155e-08
0.000103109
8.5121e-08
0.000103131
8.11204e-08
0.000103153
7.63044e-08
0.000103174
7.08282e-08
0.000103196
6.48152e-08
0.000103218
5.83612e-08
0.00010324
5.15389e-08
0.000103261
4.44015e-08
0.000103283
3.69866e-08
0.000103305
2.93179e-08
0.000103326
2.1408e-08
0.000103348
1.32599e-08
0.00010337
4.86824e-09
0.000103391
-3.77873e-09
0.000103413
-1.26972e-08
0.000103434
-2.19072e-08
0.000103456
-3.14279e-08
0.000103477
-4.12771e-08
0.000103499
-5.14666e-08
0.00010352
-6.20004e-08
0.000103541
-7.28692e-08
-8.40521e-08
0.000103561
0.000105871
7.79088e-09
0.000105876
2.24754e-08
0.000105885
3.58045e-08
0.000105897
4.70467e-08
0.000105911
5.60335e-08
0.000105928
6.27183e-08
0.000105945
6.71819e-08
0.000105964
6.96057e-08
0.000105984
7.02228e-08
0.000106005
6.92846e-08
0.000106026
6.70366e-08
0.000106047
6.37023e-08
0.000106069
5.94761e-08
0.000106091
5.45211e-08
0.000106113
4.89705e-08
0.000106135
4.29302e-08
0.000106156
3.64822e-08
0.000106178
2.96885e-08
0.0001062
2.25939e-08
0.000106222
1.52297e-08
0.000106244
7.61548e-09
0.000106265
-2.38425e-10
0.000106287
-8.32941e-09
0.000106308
-1.66612e-08
0.00010633
-2.52414e-08
0.000106351
-3.40814e-08
0.000106372
-4.31923e-08
0.000106394
-5.25855e-08
0.000106415
-6.22676e-08
0.000106435
-7.22417e-08
0.000106456
-8.25016e-08
0.000106476
-9.3032e-08
-1.0381e-07
0.000106496
0.000108895
5.9095e-09
0.000108901
1.70144e-08
0.000108909
2.71141e-08
0.000108921
3.55249e-08
0.000108935
4.21061e-08
0.000108951
4.68029e-08
0.000108968
4.96619e-08
0.000108987
5.08189e-08
0.000109007
5.04583e-08
0.000109027
4.87825e-08
0.000109048
4.5992e-08
0.00010907
4.22713e-08
0.000109092
3.77821e-08
0.000109113
3.26605e-08
0.000109135
2.70176e-08
0.000109157
2.09416e-08
0.000109179
1.45004e-08
0.000109201
7.74456e-09
0.000109223
7.10718e-10
0.000109245
-6.57635e-09
0.000109267
-1.41011e-08
0.000109288
-2.18558e-08
0.00010931
-2.98382e-08
0.000109331
-3.80502e-08
0.000109352
-4.6497e-08
0.000109374
-5.51843e-08
0.000109394
-6.41182e-08
0.000109415
-7.33019e-08
0.000109436
-8.27361e-08
0.000109456
-9.24153e-08
0.000109476
-1.02329e-07
0.000109495
-1.12456e-07
-1.22775e-07
0.000109514
0.000112006
4.08148e-09
0.000112012
1.17059e-08
0.00011202
1.86511e-08
0.000112031
2.42734e-08
0.000112045
2.84564e-08
0.000112061
3.11435e-08
0.000112078
3.23573e-08
0.000112097
3.21968e-08
0.000112116
3.08038e-08
0.000112137
2.83377e-08
0.000112158
2.49577e-08
0.000112179
2.08117e-08
0.000112201
1.60295e-08
0.000112223
1.07206e-08
0.000112245
4.97409e-09
0.000112267
-1.13995e-09
0.000112289
-7.56805e-09
0.000112311
-1.42709e-08
0.000112333
-2.1221e-08
0.000112355
-2.83998e-08
0.000112377
-3.57964e-08
0.000112398
-4.34054e-08
0.000112419
-5.12254e-08
0.000112441
-5.92574e-08
0.000112462
-6.75042e-08
0.000112482
-7.59679e-08
0.000112503
-8.46499e-08
0.000112523
-9.35488e-08
0.000112543
-1.0266e-07
0.000112563
-1.11973e-07
0.000112582
-1.21474e-07
0.000112601
-1.3114e-07
-1.40949e-07
0.000112619
0.000115206
2.2994e-09
0.000115211
6.52743e-09
0.00011522
1.03785e-08
0.000115231
1.32426e-08
0.000115244
1.50271e-08
0.00011526
1.56802e-08
0.000115277
1.52097e-08
0.000115295
1.36851e-08
0.000115315
1.12118e-08
0.000115335
7.91008e-09
0.000115356
3.90155e-09
0.000115378
-7.0098e-10
0.0001154
-5.79847e-09
0.000115422
-1.13079e-08
0.000115444
-1.71625e-08
0.000115466
-2.33102e-08
0.000115488
-2.97125e-08
0.00011551
-3.6342e-08
0.000115532
-4.31799e-08
0.000115554
-5.0215e-08
0.000115576
-5.74407e-08
0.000115597
-6.48549e-08
0.000115618
-7.24568e-08
0.000115639
-8.0248e-08
0.00011566
-8.82289e-08
0.00011568
-9.64002e-08
0.000115701
-1.04759e-07
0.00011572
-1.13302e-07
0.00011574
-1.2202e-07
0.000115759
-1.30901e-07
0.000115777
-1.39928e-07
0.000115795
-1.49079e-07
-1.58331e-07
0.000115812
0.000118498
5.56597e-10
0.000118503
1.45999e-09
0.000118511
2.26323e-09
0.000118522
2.38555e-09
0.000118535
1.76061e-09
0.00011855
3.49933e-10
0.000118567
-1.84498e-09
0.000118586
-4.77763e-09
0.000118605
-8.37443e-09
0.000118626
-1.25501e-08
0.000118647
-1.72184e-08
0.000118669
-2.23005e-08
0.00011869
-2.77275e-08
0.000118713
-3.34429e-08
0.000118735
-3.94023e-08
0.000118757
-4.55724e-08
0.000118779
-5.19297e-08
0.000118801
-5.84591e-08
0.000118823
-6.51517e-08
0.000118845
-7.20026e-08
0.000118867
-7.90115e-08
0.000118888
-8.61784e-08
0.000118909
-9.35057e-08
0.00011893
-1.00994e-07
0.00011895
-1.08645e-07
0.00011897
-1.16456e-07
0.00011899
-1.24425e-07
0.000119009
-1.32544e-07
0.000119028
-1.40804e-07
0.000119046
-1.4919e-07
0.000119064
-1.57687e-07
0.000119081
-1.6627e-07
-1.7492e-07
0.000119098
0.000121883
-1.15171e-09
0.000121888
-3.51152e-09
0.000121896
-5.72339e-09
0.000121907
-8.34248e-09
0.00012192
-1.14023e-08
0.000121935
-1.49158e-08
0.000121952
-1.88789e-08
0.000121971
-2.3263e-08
0.00012199
-2.80224e-08
0.000122011
-3.3104e-08
0.000122032
-3.84559e-08
0.000122054
-4.40318e-08
0.000122076
-4.97938e-08
0.000122098
-5.57121e-08
0.000122121
-6.17649e-08
0.000122143
-6.79383e-08
0.000122165
-7.42245e-08
0.000122187
-8.06212e-08
0.000122209
-8.7129e-08
0.000122231
-9.37516e-08
0.000122253
-1.00493e-07
0.000122274
-1.07359e-07
0.000122295
-1.14352e-07
0.000122315
-1.21476e-07
0.000122335
-1.28732e-07
0.000122355
-1.36118e-07
0.000122374
-1.4363e-07
0.000122393
-1.51261e-07
0.000122411
-1.59e-07
0.000122429
-1.66834e-07
0.000122446
-1.74744e-07
0.000122462
-1.82711e-07
-1.90716e-07
0.000122478
0.000125365
-2.82767e-09
0.00012537
-8.3943e-09
0.000125378
-1.36019e-08
0.000125389
-1.8983e-08
0.000125402
-2.45233e-08
0.000125417
-3.01926e-08
0.000125434
-3.59748e-08
0.000125453
-4.18552e-08
0.000125472
-4.78136e-08
0.000125493
-5.38275e-08
0.000125515
-5.98781e-08
0.000125536
-6.59534e-08
0.000125559
-7.20466e-08
0.000125581
-7.81552e-08
0.000125604
-8.42813e-08
0.000125626
-9.04307e-08
0.000125649
-9.66123e-08
0.000125671
-1.02837e-07
0.000125693
-1.09115e-07
0.000125714
-1.15459e-07
0.000125736
-1.2188e-07
0.000125757
-1.28386e-07
0.000125778
-1.34985e-07
0.000125798
-1.41682e-07
0.000125817
-1.48479e-07
0.000125837
-1.55375e-07
0.000125855
-1.62367e-07
0.000125874
-1.69447e-07
0.000125891
-1.76605e-07
0.000125908
-1.83828e-07
0.000125925
-1.911e-07
0.00012594
-1.98401e-07
-2.05715e-07
0.000125955
0.000128947
-4.46803e-09
0.000128952
-1.31823e-08
0.000128959
-2.13804e-08
0.00012897
-2.95731e-08
0.000128983
-3.76691e-08
0.000128998
-4.5567e-08
0.000129016
-5.32297e-08
0.000129034
-6.06554e-08
0.000129055
-6.78478e-08
0.000129075
-7.48138e-08
0.000129097
-8.15697e-08
0.000129119
-8.81391e-08
0.000129142
-9.45483e-08
0.000129165
-1.00824e-07
0.000129187
-1.06993e-07
0.00012921
-1.13082e-07
0.000129232
-1.19117e-07
0.000129255
-1.25122e-07
0.000129277
-1.3112e-07
0.000129298
-1.37131e-07
0.00012932
-1.43173e-07
0.000129341
-1.49259e-07
0.000129361
-1.55402e-07
0.000129381
-1.61608e-07
0.0001294
-1.67882e-07
0.000129419
-1.74224e-07
0.000129437
-1.80632e-07
0.000129455
-1.871e-07
0.000129472
-1.93618e-07
0.000129488
-2.00176e-07
0.000129504
-2.06759e-07
0.000129519
-2.1335e-07
-2.19935e-07
0.000129533
0.000132631
-6.06003e-09
0.000132635
-1.78441e-08
0.000132643
-2.90444e-08
0.000132654
-4.01433e-08
0.000132667
-5.09136e-08
0.000132682
-6.11404e-08
0.0001327
-7.07598e-08
0.000132719
-7.97859e-08
0.000132739
-8.82462e-08
0.000132761
-9.61783e-08
0.000132783
-1.03637e-07
0.000132805
-1.10685e-07
0.000132828
-1.17384e-07
0.000132851
-1.23791e-07
0.000132874
-1.29961e-07
0.000132897
-1.35942e-07
0.00013292
-1.41779e-07
0.000132942
-1.4751e-07
0.000132964
-1.53169e-07
0.000132986
-1.58787e-07
0.000133007
-1.64386e-07
0.000133028
-1.69989e-07
0.000133048
-1.75609e-07
0.000133068
-1.81259e-07
0.000133087
-1.86943e-07
0.000133105
-1.92667e-07
0.000133123
-1.98429e-07
0.00013314
-2.04224e-07
0.000133156
-2.10045e-07
0.000133172
-2.15882e-07
0.000133187
-2.21722e-07
0.000133201
-2.27551e-07
-2.33354e-07
0.000133215
0.00013642
-7.57139e-09
0.000136424
-2.2301e-08
0.000136432
-3.6541e-08
0.000136442
-5.07143e-08
0.000136456
-6.43415e-08
0.000136472
-7.70364e-08
0.00013649
-8.87111e-08
0.000136509
-9.94016e-08
0.00013653
-1.09159e-07
0.000136552
-1.18056e-07
0.000136575
-1.26197e-07
0.000136598
-1.3369e-07
0.000136621
-1.40637e-07
0.000136644
-1.47128e-07
0.000136667
-1.53246e-07
0.000136691
-1.59062e-07
0.000136713
-1.64641e-07
0.000136736
-1.70035e-07
0.000136758
-1.75292e-07
0.00013678
-1.80451e-07
0.000136801
-1.85543e-07
0.000136821
-1.90594e-07
0.000136842
-1.95626e-07
0.000136861
-2.00651e-07
0.00013688
-2.05682e-07
0.000136898
-2.10722e-07
0.000136915
-2.15775e-07
0.000136932
-2.20836e-07
0.000136948
-2.25903e-07
0.000136963
-2.30967e-07
0.000136977
-2.36019e-07
0.00013699
-2.41048e-07
-2.46046e-07
0.000137003
0.000140317
-8.92974e-09
0.000140321
-2.63794e-08
0.000140328
-4.37532e-08
0.000140339
-6.13002e-08
0.000140353
-7.8054e-08
0.000140369
-9.33985e-08
0.000140388
-1.0726e-07
0.000140408
-1.19704e-07
0.00014043
-1.30799e-07
0.000140452
-1.40659e-07
0.000140475
-1.49449e-07
0.000140499
-1.57335e-07
0.000140523
-1.64463e-07
0.000140547
-1.70963e-07
0.00014057
-1.7695e-07
0.000140594
-1.82523e-07
0.000140617
-1.87764e-07
0.00014064
-1.92744e-07
0.000140662
-1.97521e-07
0.000140684
-2.02145e-07
0.000140705
-2.06655e-07
0.000140725
-2.11083e-07
0.000140745
-2.15454e-07
0.000140764
-2.19787e-07
0.000140783
-2.24095e-07
0.0001408
-2.28387e-07
0.000140817
-2.32668e-07
0.000140833
-2.36936e-07
0.000140849
-2.4119e-07
0.000140863
-2.45423e-07
0.000140877
-2.49628e-07
0.000140889
-2.53791e-07
-2.57904e-07
0.000140901
0.000144326
-9.97663e-09
0.000144329
-2.97107e-08
0.000144336
-5.04473e-08
0.000144346
-7.19218e-08
0.00014436
-9.22162e-08
0.000144377
-1.10432e-07
0.000144397
-1.26598e-07
0.000144418
-1.40846e-07
0.00014444
-1.53275e-07
0.000144464
-1.6407e-07
0.000144488
-1.73467e-07
0.000144512
-1.81692e-07
0.000144537
-1.8894e-07
0.000144561
-1.95383e-07
0.000144585
-2.01168e-07
0.000144609
-2.06421e-07
0.000144633
-2.11247e-07
0.000144656
-2.15733e-07
0.000144678
-2.19952e-07
0.0001447
-2.23961e-07
0.000144721
-2.2781e-07
0.000144742
-2.31537e-07
0.000144761
-2.35171e-07
0.00014478
-2.38738e-07
0.000144798
-2.42252e-07
0.000144816
-2.45727e-07
0.000144832
-2.49169e-07
0.000144848
-2.52583e-07
0.000144863
-2.55968e-07
0.000144877
-2.59323e-07
0.00014489
-2.62645e-07
0.000144902
-2.65933e-07
-2.69182e-07
0.000144913
0.000148448
-1.03521e-08
0.00014845
-3.1569e-08
0.000148456
-5.61935e-08
0.000148467
-8.25013e-08
0.000148481
-1.06989e-07
0.000148499
-1.28556e-07
0.00014852
-1.4736e-07
0.000148543
-1.63531e-07
0.000148567
-1.77235e-07
0.000148592
-1.88809e-07
0.000148617
-1.98629e-07
0.000148642
-2.07007e-07
0.000148667
-2.14199e-07
0.000148692
-2.20423e-07
0.000148717
-2.25865e-07
0.000148741
-2.30676e-07
0.000148765
-2.34979e-07
0.000148788
-2.38875e-07
0.000148811
-2.42448e-07
0.000148832
-2.45765e-07
0.000148854
-2.48881e-07
0.000148874
-2.51838e-07
0.000148893
-2.54673e-07
0.000148912
-2.57412e-07
0.00014893
-2.60075e-07
0.000148947
-2.62677e-07
0.000148963
-2.65228e-07
0.000148978
-2.67734e-07
0.000148992
-2.70197e-07
0.000149006
-2.72615e-07
0.000149018
-2.74983e-07
0.000149029
-2.77288e-07
-2.79527e-07
0.00014904
0.000152688
-9.04303e-09
0.000152687
-3.05129e-08
0.000152691
-6.07646e-08
0.000152702
-9.31093e-08
0.000152717
-1.2194e-07
0.000152735
-1.46987e-07
0.000152757
-1.68758e-07
0.00015278
-1.87179e-07
0.000152806
-2.02393e-07
0.000152832
-2.14893e-07
0.000152858
-2.25193e-07
0.000152885
-2.33706e-07
0.000152911
-2.40768e-07
0.000152938
-2.46668e-07
0.000152963
-2.5164e-07
0.000152989
-2.55873e-07
0.000153013
-2.59516e-07
0.000153037
-2.6269e-07
0.00015306
-2.65491e-07
0.000153082
-2.67997e-07
0.000153104
-2.70269e-07
0.000153124
-2.72356e-07
0.000153144
-2.74298e-07
0.000153163
-2.76124e-07
0.00015318
-2.77858e-07
0.000153197
-2.79518e-07
0.000153213
-2.81115e-07
0.000153228
-2.8266e-07
0.000153242
-2.84158e-07
0.000153255
-2.85615e-07
0.000153267
-2.87036e-07
0.000153278
-2.8843e-07
-2.89796e-07
0.000153288
0.000157046
-3.57582e-09
0.000157038
-2.2248e-08
0.000157041
-6.37281e-08
0.000157054
-1.06356e-07
0.000157073
-1.41077e-07
0.000157096
-1.69672e-07
0.000157121
-1.93614e-07
0.000157147
-2.13175e-07
0.000157173
-2.28922e-07
0.0001572
-2.41643e-07
0.000157227
-2.51957e-07
0.000157253
-2.60319e-07
0.00015728
-2.67101e-07
0.000157306
-2.72621e-07
0.000157331
-2.77131e-07
0.000157356
-2.80831e-07
0.00015738
-2.83878e-07
0.000157404
-2.864e-07
0.000157427
-2.885e-07
0.000157449
-2.90261e-07
0.000157471
-2.91748e-07
0.000157491
-2.93016e-07
0.000157511
-2.94106e-07
0.00015753
-2.95053e-07
0.000157548
-2.95882e-07
0.000157565
-2.96615e-07
0.000157581
-2.97266e-07
0.000157597
-2.97846e-07
0.000157611
-2.98362e-07
0.000157624
-2.98815e-07
0.000157636
-2.99201e-07
0.000157647
-2.99508e-07
-2.99738e-07
0.000157657
0.000161526
9.13866e-09
0.000161505
-1.08326e-09
0.000161496
-5.51825e-08
0.000161499
-1.09357e-07
0.000161513
-1.54586e-07
0.000161535
-1.92172e-07
0.000161563
-2.21995e-07
0.000161595
-2.44571e-07
0.000161627
-2.61589e-07
0.00016166
-2.74628e-07
0.000161693
-2.84696e-07
0.000161725
-2.92473e-07
0.000161757
-2.98494e-07
0.000161787
-3.0317e-07
0.000161817
-3.06804e-07
0.000161846
-3.09614e-07
0.000161874
-3.11769e-07
0.000161901
-3.13398e-07
0.000161927
-3.14601e-07
0.000161952
-3.15459e-07
0.000161976
-3.16033e-07
0.000162
-3.16375e-07
0.000162022
-3.16524e-07
0.000162043
-3.16513e-07
0.000162064
-3.16369e-07
0.000162083
-3.16113e-07
0.000162102
-3.15763e-07
0.000162119
-3.15331e-07
0.000162136
-3.14833e-07
0.000162151
-3.14278e-07
0.000162166
-3.13683e-07
0.000162179
-3.13068e-07
-3.12432e-07
0.000162192
0.0001661
6.32244e-08
0.000166095
3.08784e-09
0.000166111
-7.12131e-08
0.000166126
-1.24108e-07
0.00016614
-1.68875e-07
0.000166157
-2.09006e-07
0.000166177
-2.4203e-07
0.0001662
-2.6776e-07
0.000166227
-2.87795e-07
0.000166256
-3.03511e-07
0.000166287
-3.15772e-07
0.000166319
-3.25253e-07
0.000166353
-3.32534e-07
0.000166388
-3.38073e-07
0.000166424
-3.42215e-07
0.000166459
-3.45226e-07
0.000166495
-3.47318e-07
0.00016653
-3.48659e-07
0.000166565
-3.49385e-07
0.000166599
-3.49604e-07
0.000166632
-3.49404e-07
0.000166665
-3.48858e-07
0.000166696
-3.48024e-07
0.000166727
-3.46951e-07
0.000166756
-3.4568e-07