/*--------------------------------*- C++ -*----------------------------------*\
  =========                 |
  \\      /  F ield         | OpenFOAM: The Open Source CFD Toolbox
   \\    /   O peration     | Website:  https://openfoam.org
    \\  /    A nd           | Version:  10
     \\/     M anipulation  |
\*---------------------------------------------------------------------------*/
FoamFile
{
    format      ascii;
    class       volVectorField;
    location    "600";
    object      U;
}
// * * * * * * * * * * * * * * * * * * * * * * * * * * * * * * * * * * * * * //

dimensions      [0 1 -1 0 0 0 0];

internalField   nonuniform List<vector> 
6820
(
(7.31669 -0.387304 0)
(7.31543 -0.335173 0)
(7.2843 -0.203534 0)
(7.22649 -0.111136 0)
(7.16234 -0.0568194 0)
(7.1015 -0.027067 0)
(7.04596 -0.0113459 0)
(6.99592 -0.00316289 0)
(6.95113 0.00104548 0)
(6.91098 0.00316047 0)
(6.87471 0.00418195 0)
(6.8417 0.00464345 0)
(6.81144 0.00482599 0)
(6.78355 0.00487517 0)
(6.75771 0.00486537 0)
(6.73365 0.00483372 0)
(6.71116 0.00479795 0)
(6.69009 0.00476589 0)
(6.67027 0.00474055 0)
(6.65159 0.00472302 0)
(6.63392 0.00471396 0)
(6.61718 0.00471472 0)
(6.60125 0.00472813 0)
(6.58604 0.00475949 0)
(6.57143 0.00482186 0)
(6.55728 0.00492424 0)
(6.54339 0.00512074 0)
(6.52937 0.00548994 0)
(6.51506 0.00617286 0)
(6.49866 0.00613151 0)
(6.47786 0.0196275 0)
(6.44732 -0.00522565 0)
(6.43436 -0.0128749 0)
(7.33961 0.100772 0)
(7.3543 0.149902 0)
(7.35851 0.123207 0)
(7.3588 0.0897949 0)
(7.35952 0.0659646 0)
(7.35834 0.0500242 0)
(7.35317 0.0394234 0)
(7.34427 0.0324427 0)
(7.33279 0.0277775 0)
(7.31972 0.0245358 0)
(7.30568 0.0221826 0)
(7.29114 0.0204027 0)
(7.27644 0.0190015 0)
(7.2618 0.0178559 0)
(7.24736 0.0168884 0)
(7.2332 0.0160501 0)
(7.21939 0.0153095 0)
(7.20596 0.0146462 0)
(7.19291 0.0140469 0)
(7.18025 0.0135032 0)
(7.16798 0.0130105 0)
(7.1561 0.0125674 0)
(7.14458 0.0121761 0)
(7.13341 0.011844 0)
(7.12259 0.0115851 0)
(7.11207 0.011431 0)
(7.10188 0.0114284 0)
(7.09187 0.0116853 0)
(7.08261 0.0124899 0)
(7.0726 0.013924 0)
(7.06773 0.0180469 0)
(7.05958 0.0250807 0)
(7.06734 0.0463637 0)
(7.32714 0.00611204 0)
(7.32432 -0.00162904 0)
(7.33138 -0.0062426 0)
(7.33987 -0.000872561 0)
(7.34701 0.00692553 0)
(7.35246 0.0126207 0)
(7.35582 0.0160941 0)
(7.35714 0.0181484 0)
(7.3568 0.0192838 0)
(7.35518 0.0198014 0)
(7.35253 0.0199272 0)
(7.34904 0.0198207 0)
(7.34492 0.0195813 0)
(7.34031 0.019269 0)
(7.33535 0.0189205 0)
(7.33012 0.0185592 0)
(7.32472 0.0181991 0)
(7.31919 0.0178489 0)
(7.31359 0.0175142 0)
(7.30796 0.0171991 0)
(7.30231 0.0169076 0)
(7.29668 0.0166447 0)
(7.29107 0.0164174 0)
(7.28548 0.0162366 0)
(7.27992 0.0161211 0)
(7.27438 0.0160975 0)
(7.26884 0.0162288 0)
(7.26326 0.0165647 0)
(7.25779 0.017401 0)
(7.25205 0.018522 0)
(7.24742 0.0217481 0)
(7.24324 0.0244593 0)
(7.24111 0.031232 0)
(7.32977 -0.00402556 0)
(7.32633 0.00240284 0)
(7.33119 0.0105909 0)
(7.33693 0.0166886 0)
(7.34167 0.0202018 0)
(7.34611 0.0216663 0)
(7.35006 0.0221001 0)
(7.35319 0.0221688 0)
(7.35555 0.0220894 0)
(7.35722 0.0219149 0)
(7.35828 0.0216803 0)
(7.35879 0.0214136 0)
(7.35881 0.0211297 0)
(7.35842 0.0208358 0)
(7.35769 0.0205367 0)
(7.35667 0.0202365 0)
(7.3554 0.0199387 0)
(7.35394 0.0196465 0)
(7.35232 0.0193629 0)
(7.35055 0.0190917 0)
(7.34868 0.0188379 0)
(7.34672 0.018608 0)
(7.34467 0.0184114 0)
(7.34255 0.0182623 0)
(7.34037 0.0181827 0)
(7.33812 0.0182044 0)
(7.33582 0.0183861 0)
(7.33346 0.0187936 0)
(7.33113 0.019617 0)
(7.32882 0.0208319 0)
(7.32704 0.0231917 0)
(7.32611 0.0256799 0)
(7.32657 0.029878 0)
(7.33182 -0.0010187 0)
(7.33004 0.00665223 0)
(7.33269 0.0122082 0)
(7.33627 0.014943 0)
(7.33968 0.0169095 0)
(7.34331 0.0183443 0)
(7.34691 0.0192588 0)
(7.35011 0.0198468 0)
(7.3529 0.0202258 0)
(7.35533 0.0204397 0)
(7.35743 0.0205274 0)
(7.3592 0.0205263 0)
(7.36067 0.0204631 0)
(7.36188 0.0203547 0)
(7.36284 0.0202138 0)
(7.3636 0.0200502 0)
(7.36416 0.0198719 0)
(7.36456 0.0196853 0)
(7.36482 0.0194965 0)
(7.36495 0.0193116 0)
(7.36496 0.0191374 0)
(7.36487 0.0189822 0)
(7.3647 0.0188572 0)
(7.36444 0.018778 0)
(7.3641 0.0187669 0)
(7.36371 0.0188554 0)
(7.36326 0.0190937 0)
(7.36279 0.0195396 0)
(7.36239 0.0203097 0)
(7.36214 0.0214218 0)
(7.36233 0.0231569 0)
(7.36332 0.0251215 0)
(7.36543 0.0275491 0)
(7.33248 0.000658467 0)
(7.33168 0.00624919 0)
(7.33356 0.0104325 0)
(7.33646 0.0130005 0)
(7.33935 0.0152151 0)
(7.3424 0.0169319 0)
(7.34549 0.0180278 0)
(7.34838 0.0187155 0)
(7.35103 0.019166 0)
(7.3535 0.0194483 0)
(7.35579 0.0196049 0)
(7.35789 0.0196734 0)
(7.35982 0.0196796 0)
(7.36159 0.0196398 0)
(7.3632 0.0195655 0)
(7.36468 0.0194657 0)
(7.36604 0.0193479 0)
(7.36727 0.0192182 0)
(7.3684 0.0190826 0)
(7.36943 0.0189473 0)
(7.37038 0.0188193 0)
(7.37124 0.0187073 0)
(7.37203 0.0186227 0)
(7.37276 0.0185805 0)
(7.37342 0.0186016 0)
(7.37405 0.0187137 0)
(7.37466 0.0189562 0)
(7.37529 0.0193727 0)
(7.37602 0.020029 0)
(7.37695 0.0209376 0)
(7.37828 0.0221802 0)
(7.38027 0.0235412 0)
(7.38311 0.0248914 0)
(7.33271 0.00107861 0)
(7.33244 0.0054011 0)
(7.33406 0.00929021 0)
(7.33665 0.0120052 0)
(7.33927 0.014167 0)
(7.34196 0.0157928 0)
(7.34469 0.0168613 0)
(7.34731 0.0175586 0)
(7.34979 0.0180352 0)
(7.35214 0.0183532 0)
(7.35438 0.01855 0)
(7.35651 0.0186591 0)
(7.35853 0.0187053 0)
(7.36046 0.0187042 0)
(7.3623 0.018667 0)
(7.36404 0.0186026 0)
(7.36571 0.0185181 0)
(7.3673 0.0184198 0)
(7.36882 0.0183136 0)
(7.37028 0.0182057 0)
(7.37167 0.0181031 0)
(7.37301 0.0180144 0)
(7.3743 0.0179501 0)
(7.37555 0.0179239 0)
(7.37677 0.0179538 0)
(7.37797 0.0180619 0)
(7.37918 0.0182766 0)
(7.38045 0.0186261 0)
(7.38185 0.0191418 0)
(7.38345 0.0198209 0)
(7.38541 0.0206579 0)
(7.38788 0.0215038 0)
(7.39098 0.0221821 0)
(7.33286 0.00123772 0)
(7.33291 0.00493695 0)
(7.33433 0.00850608 0)
(7.33664 0.0111094 0)
(7.33906 0.0131082 0)
(7.34153 0.0146419 0)
(7.34404 0.0157115 0)
(7.34649 0.0164368 0)
(7.34883 0.0169396 0)
(7.35106 0.0172817 0)
(7.35322 0.017501 0)
(7.3553 0.0176304 0)
(7.35731 0.0176944 0)
(7.35925 0.0177094 0)
(7.36113 0.0176868 0)
(7.36296 0.0176359 0)
(7.36473 0.0175638 0)
(7.36646 0.0174768 0)
(7.36814 0.0173808 0)
(7.36978 0.0172818 0)
(7.37139 0.0171865 0)
(7.37296 0.0171026 0)
(7.3745 0.0170396 0)
(7.37602 0.0170091 0)
(7.37753 0.0170253 0)
(7.37906 0.0171044 0)
(7.38062 0.0172645 0)
(7.38226 0.0175205 0)
(7.38403 0.0178817 0)
(7.386 0.0183318 0)
(7.38828 0.0188318 0)
(7.39095 0.0192673 0)
(7.39406 0.0194882 0)
(7.33295 0.00130163 0)
(7.33318 0.00456331 0)
(7.33445 0.00774645 0)
(7.33649 0.0101843 0)
(7.33873 0.0120672 0)
(7.34104 0.0135399 0)
(7.3434 0.014608 0)
(7.34572 0.0153501 0)
(7.34795 0.0158684 0)
(7.3501 0.0162249 0)
(7.35219 0.0164576 0)
(7.35422 0.0165976 0)
(7.35618 0.0166693 0)
(7.3581 0.0166895 0)
(7.35997 0.0166703 0)
(7.36181 0.016621 0)
(7.3636 0.0165491 0)
(7.36537 0.016461 0)
(7.36711 0.0163625 0)
(7.36882 0.0162593 0)
(7.37051 0.0161576 0)
(7.37219 0.0160644 0)
(7.37385 0.0159876 0)
(7.37551 0.0159364 0)
(7.37718 0.0159211 0)
(7.37888 0.0159523 0)
(7.38063 0.0160397 0)
(7.38247 0.0161878 0)
(7.38445 0.0163924 0)
(7.38661 0.0166292 0)
(7.38901 0.0168497 0)
(7.39171 0.0169636 0)
(7.39473 0.0168592 0)
(7.333 0.0012915 0)
(7.33333 0.00419953 0)
(7.33448 0.007032 0)
(7.3363 0.00930584 0)
(7.33836 0.0110865 0)
(7.34052 0.0124907 0)
(7.34273 0.0135364 0)
(7.34494 0.0142806 0)
(7.34709 0.0148064 0)
(7.34917 0.0151717 0)
(7.3512 0.0154128 0)
(7.35318 0.015559 0)
(7.35511 0.015634 0)
(7.357 0.0156546 0)
(7.35885 0.0156334 0)
(7.36067 0.0155797 0)
(7.36246 0.0155015 0)
(7.36423 0.0154051 0)
(7.36598 0.0152962 0)
(7.36772 0.0151805 0)
(7.36944 0.0150633 0)
(7.37116 0.0149507 0)
(7.37288 0.0148491 0)
(7.37461 0.0147651 0)
(7.37636 0.0147056 0)
(7.37815 0.0146763 0)
(7.38 0.0146804 0)
(7.38194 0.0147152 0)
(7.384 0.014769 0)
(7.38623 0.0148141 0)
(7.38865 0.0148037 0)
(7.39129 0.0146671 0)
(7.39416 0.0143258 0)
(7.33302 0.00123513 0)
(7.3334 0.00384916 0)
(7.33445 0.00637811 0)
(7.33608 0.00848152 0)
(7.33798 0.010154 0)
(7.33999 0.0114815 0)
(7.34207 0.0124911 0)
(7.34417 0.0132259 0)
(7.34624 0.0137514 0)
(7.34826 0.0141191 0)
(7.35024 0.0143635 0)
(7.35217 0.014512 0)
(7.35407 0.0145868 0)
(7.35593 0.0146049 0)
(7.35776 0.0145785 0)
(7.35956 0.0145173 0)
(7.36134 0.0144292 0)
(7.3631 0.0143205 0)
(7.36485 0.0141968 0)
(7.36659 0.0140632 0)
(7.36832 0.0139246 0)
(7.37005 0.013786 0)
(7.37179 0.0136521 0)
(7.37355 0.0135274 0)
(7.37534 0.0134157 0)
(7.37717 0.0133188 0)
(7.37906 0.0132353 0)
(7.38104 0.0131581 0)
(7.38313 0.0130717 0)
(7.38535 0.0129489 0)
(7.38773 0.0127487 0)
(7.39026 0.0124169 0)
(7.39296 0.0119001 0)
(7.33303 0.00115466 0)
(7.33343 0.00351324 0)
(7.33439 0.00577533 0)
(7.33586 0.00770445 0)
(7.3376 0.00926376 0)
(7.33948 0.0105105 0)
(7.34144 0.0114743 0)
(7.34343 0.0121887 0)
(7.34542 0.0127049 0)
(7.34737 0.0130678 0)
(7.3493 0.0133097 0)
(7.35119 0.0134559 0)
(7.35305 0.0135272 0)
(7.35488 0.0135398 0)
(7.35669 0.0135058 0)
(7.35847 0.0134347 0)
(7.36024 0.0133343 0)
(7.36199 0.0132106 0)
(7.36372 0.0130692 0)
(7.36546 0.0129145 0)
(7.36719 0.0127507 0)
(7.36892 0.0125818 0)
(7.37067 0.012411 0)
(7.37243 0.0122409 0)
(7.37423 0.0120728 0)
(7.37607 0.0119056 0)
(7.37798 0.011735 0)
(7.37995 0.0115514 0)
(7.38203 0.0113384 0)
(7.38421 0.0110712 0)
(7.38651 0.0107158 0)
(7.38892 0.0102315 0)
(7.39144 0.00958274 0)
(7.33304 0.00106293 0)
(7.33343 0.00319045 0)
(7.33432 0.00521457 0)
(7.33565 0.00697134 0)
(7.33725 0.00841416 0)
(7.339 0.0095768 0)
(7.34085 0.0104863 0)
(7.34274 0.0111701 0)
(7.34464 0.0116684 0)
(7.34653 0.0120196 0)
(7.3484 0.0122532 0)
(7.35025 0.0123923 0)
(7.35207 0.0124562 0)
(7.35387 0.0124601 0)
(7.35565 0.0124159 0)
(7.35742 0.0123327 0)
(7.35916 0.0122177 0)
(7.3609 0.0120771 0)
(7.36262 0.0119156 0)
(7.36434 0.0117374 0)
(7.36607 0.011546 0)
(7.3678 0.011344 0)
(7.36954 0.0111337 0)
(7.3713 0.0109159 0)
(7.3731 0.0106901 0)
(7.37493 0.0104532 0)
(7.37682 0.0101992 0)
(7.37877 0.00991764 0)
(7.38081 0.00959273 0)
(7.38292 0.00920298 0)
(7.38513 0.00872122 0)
(7.38741 0.00811752 0)
(7.38977 0.00736833 0)
(7.33304 0.000967082 0)
(7.33342 0.00288046 0)
(7.33424 0.00468956 0)
(7.33546 0.00627893 0)
(7.33693 0.00760277 0)
(7.33856 0.00867779 0)
(7.3403 0.00952614 0)
(7.34209 0.0101708 0)
(7.34391 0.0106434 0)
(7.34574 0.0109762 0)
(7.34755 0.0111957 0)
(7.34935 0.0113229 0)
(7.35114 0.0113754 0)
(7.35291 0.0113675 0)
(7.35466 0.0113103 0)
(7.3564 0.0112125 0)
(7.35812 0.011081 0)
(7.35984 0.0109214 0)
(7.36155 0.010738 0)
(7.36326 0.0105345 0)
(7.36497 0.0103136 0)
(7.36668 0.010077 0)
(7.36842 0.00982591 0)
(7.37017 0.00955988 0)
(7.37195 0.00927704 0)
(7.37376 0.00897324 0)
(7.37562 0.00864158 0)
(7.37754 0.00827169 0)
(7.37952 0.00784942 0)
(7.38156 0.00735679 0)
(7.38366 0.00677264 0)
(7.38581 0.00607523 0)
(7.38802 0.00524916 0)
(7.33304 0.000871108 0)
(7.3334 0.00258332 0)
(7.33416 0.00419525 0)
(7.33527 0.00562325 0)
(7.33664 0.00682669 0)
(7.33816 0.00781097 0)
(7.3398 0.0085927 0)
(7.3415 0.00919086 0)
(7.34324 0.00963066 0)
(7.345 0.00993894 0)
(7.34676 0.0101389 0)
(7.34851 0.0102495 0)
(7.35026 0.0102867 0)
(7.35199 0.0102636 0)
(7.35371 0.0101906 0)
(7.35542 0.0100759 0)
(7.35712 0.00992574 0)
(7.35882 0.00974534 0)
(7.36051 0.00953855 0)
(7.3622 0.00930833 0)
(7.36389 0.0090567 0)
(7.36559 0.00878478 0)
(7.36731 0.00849266 0)
(7.36904 0.00817912 0)
(7.37079 0.0078414 0)
(7.37258 0.00747478 0)
(7.3744 0.00707224 0)
(7.37627 0.00662417 0)
(7.37818 0.0061183 0)
(7.38014 0.00554005 0)
(7.38214 0.00487324 0)
(7.38418 0.00410229 0)
(7.38624 0.00321725 0)
(7.33304 0.000777104 0)
(7.33337 0.00229882 0)
(7.33408 0.00372753 0)
(7.33511 0.00500035 0)
(7.33637 0.00608298 0)
(7.3378 0.00697387 0)
(7.33934 0.0076844 0)
(7.34096 0.00822993 0)
(7.34263 0.00863058 0)
(7.34432 0.0089085 0)
(7.34602 0.00908375 0)
(7.34772 0.00917328 0)
(7.34943 0.00919141 0)
(7.35112 0.00914999 0)
(7.35281 0.00905854 0)
(7.3545 0.00892456 0)
(7.35617 0.00875391 0)
(7.35784 0.00855112 0)
(7.35951 0.00831957 0)
(7.36118 0.00806163 0)
(7.36285 0.00777874 0)
(7.36453 0.00747135 0)
(7.36622 0.00713888 0)
(7.36792 0.00677952 0)
(7.36965 0.00639004 0)
(7.3714 0.00596558 0)
(7.37318 0.00549946 0)
(7.37499 0.00498312 0)
(7.37683 0.00440629 0)
(7.3787 0.00375736 0)
(7.3806 0.00302418 0)
(7.38252 0.00219571 0)
(7.38446 0.00126559 0)
(7.33303 0.000686063 0)
(7.33335 0.00202651 0)
(7.334 0.003283 0)
(7.33496 0.00440652 0)
(7.33613 0.00536869 0)
(7.33747 0.00616404 0)
(7.33893 0.00679951 0)
(7.34047 0.00728714 0)
(7.34206 0.00764304 0)
(7.34369 0.00788532 0)
(7.34534 0.00803115 0)
(7.347 0.00809541 0)
(7.34866 0.00809083 0)
(7.35032 0.00802802 0)
(7.35197 0.00791557 0)
(7.35362 0.00776027 0)
(7.35527 0.00756737 0)
(7.35692 0.00734085 0)
(7.35856 0.00708356 0)
(7.3602 0.00679735 0)
(7.36185 0.00648311 0)
(7.3635 0.00614081 0)
(7.36516 0.00576937 0)
(7.36683 0.00536663 0)
(7.36852 0.00492921 0)
(7.37022 0.00445238 0)
(7.37195 0.00393008 0)
(7.3737 0.00335495 0)
(7.37547 0.00271855 0)
(7.37726 0.00201186 0)
(7.37906 0.00122582 0)
(7.38086 0.000352748 0)
(7.38268 -0.000611373 0)
(7.33303 0.000598344 0)
(7.33333 0.00176566 0)
(7.33393 0.00285881 0)
(7.33482 0.00383835 0)
(7.33592 0.00468089 0)
(7.33718 0.00537901 0)
(7.33856 0.00593614 0)
(7.34002 0.00636141 0)
(7.34155 0.0066676 0)
(7.34312 0.00686947 0)
(7.34471 0.0069815 0)
(7.34632 0.0070166 0)
(7.34794 0.00698593 0)
(7.34956 0.00689888 0)
(7.35118 0.00676308 0)
(7.3528 0.00658457 0)
(7.35442 0.00636796 0)
(7.35604 0.00611666 0)
(7.35765 0.00583301 0)
(7.35926 0.00551839 0)
(7.36088 0.00517325 0)
(7.3625 0.00479715 0)
(7.36413 0.00438872 0)
(7.36576 0.00394562 0)
(7.36741 0.00346453 0)
(7.36906 0.00294107 0)
(7.37073 0.0023699 0)
(7.37242 0.00174483 0)
(7.37411 0.00105911 0)
(7.37581 0.000305804 0)
(7.37752 -0.000521719 0)
(7.37922 -0.00142876 0)
(7.38092 -0.00241776 0)
(7.33303 0.000513953 0)
(7.3333 0.00151539 0)
(7.33387 0.00245249 0)
(7.3347 0.00329271 0)
(7.33573 0.00401672 0)
(7.33692 0.00461631 0)
(7.33822 0.00509235 0)
(7.33962 0.00545141 0)
(7.34109 0.00570356 0)
(7.3426 0.00586073 0)
(7.34414 0.00593497 0)
(7.3457 0.00593733 0)
(7.34728 0.00587748 0)
(7.34886 0.00576358 0)
(7.35045 0.00560232 0)
(7.35203 0.00539894 0)
(7.35362 0.00515742 0)
(7.3552 0.00488061 0)
(7.35679 0.00457037 0)
(7.35837 0.00422762 0)
(7.35995 0.00385247 0)
(7.36154 0.00344418 0)
(7.36313 0.00300121 0)
(7.36472 0.00252121 0)
(7.36632 0.00200103 0)
(7.36792 0.00143674 0)
(7.36953 0.000823772 0)
(7.37115 0.000157037 0)
(7.37277 -0.000568804 0)
(7.37439 -0.00135899 0)
(7.376 -0.00221832 0)
(7.3776 -0.00315035 0)
(7.3792 -0.0041565 0)
(7.33303 0.00043271 0)
(7.33329 0.00127472 0)
(7.33382 0.00206185 0)
(7.33459 0.00276676 0)
(7.33556 0.00337342 0)
(7.33668 0.00387351 0)
(7.33792 0.00426609 0)
(7.33926 0.00455564 0)
(7.34067 0.00474996 0)
(7.34212 0.00485859 0)
(7.34362 0.00489145 0)
(7.34513 0.00485784 0)
(7.34667 0.00476601 0)
(7.34821 0.00462294 0)
(7.34976 0.00443437 0)
(7.35131 0.00420475 0)
(7.35287 0.00393743 0)
(7.35442 0.0036347 0)
(7.35597 0.00329797 0)
(7.35752 0.00292778 0)
(7.35907 0.00252393 0)
(7.36061 0.00208549 0)
(7.36216 0.00161084 0)
(7.36371 0.00109769 0)
(7.36526 0.000543172 0)
(7.3668 -5.61535e-05 0)
(7.36835 -0.000704141 0)
(7.3699 -0.00140489 0)
(7.37145 -0.00216256 0)
(7.37298 -0.00298105 0)
(7.37451 -0.00386376 0)
(7.37601 -0.00481299 0)
(7.37751 -0.0058295 0)
(7.33303 0.00035434 0)
(7.33327 0.00104262 0)
(7.33377 0.00168487 0)
(7.3345 0.00225789 0)
(7.33541 0.00274832 0)
(7.33647 0.00314814 0)
(7.33766 0.00345523 0)
(7.33894 0.00367241 0)
(7.34029 0.00380559 0)
(7.3417 0.00386229 0)
(7.34314 0.00385057 0)
(7.34462 0.00377812 0)
(7.34611 0.00365183 0)
(7.34762 0.00347757 0)
(7.34913 0.00326013 0)
(7.35065 0.00300321 0)
(7.35216 0.00270951 0)
(7.35368 0.00238081 0)
(7.3552 0.00201805 0)
(7.35671 0.00162148 0)
(7.35822 0.00119062 0)
(7.35973 0.000724413 0)
(7.36123 0.000221229 0)
(7.36273 -0.000321081 0)
(7.36423 -0.000905105 0)
(7.36572 -0.00153379 0)
(7.36721 -0.00221033 0)
(7.36868 -0.00293799 0)
(7.37015 -0.00371994 0)
(7.37161 -0.00455905 0)
(7.37305 -0.00545766 0)
(7.37446 -0.0064172 0)
(7.37586 -0.00743797 0)
(7.33303 0.000278529 0)
(7.33325 0.000818053 0)
(7.33372 0.0013197 0)
(7.33441 0.00176368 0)
(7.33528 0.00213884 0)
(7.33629 0.00243774 0)
(7.33742 0.00265756 0)
(7.33865 0.00279986 0)
(7.33995 0.00286898 0)
(7.34131 0.00287078 0)
(7.34271 0.00281166 0)
(7.34414 0.00269785 0)
(7.3456 0.00253497 0)
(7.34707 0.00232784 0)
(7.34855 0.00208031 0)
(7.35003 0.00179535 0)
(7.35151 0.00147502 0)
(7.35299 0.00112061 0)
(7.35447 0.000732659 0)
(7.35595 0.00031109 0)
(7.35742 -0.000144752 0)
(7.35888 -0.000636031 0)
(7.36034 -0.00116435 0)
(7.36179 -0.00173171 0)
(7.36324 -0.00234038 0)
(7.36467 -0.00299288 0)
(7.36609 -0.0036918 0)
(7.3675 -0.00443972 0)
(7.3689 -0.00523902 0)
(7.37027 -0.00609177 0)
(7.37163 -0.00699954 0)
(7.37295 -0.00796312 0)
(7.37426 -0.00898253 0)
(7.33302 0.000204952 0)
(7.33324 0.000600017 0)
(7.33368 0.000964636 0)
(7.33434 0.00128184 0)
(7.33516 0.00154245 0)
(7.33613 0.00173978 0)
(7.33721 0.0018707 0)
(7.33839 0.00193588 0)
(7.33965 0.0019384 0)
(7.34097 0.00188269 0)
(7.34233 0.00177373 0)
(7.34372 0.00161641 0)
(7.34514 0.00141519 0)
(7.34657 0.00117383 0)
(7.34801 0.000895333 0)
(7.34946 0.000581927 0)
(7.35091 0.00023508 0)
(7.35236 -0.000144425 0)
(7.3538 -0.000556413 0)
(7.35524 -0.00100125 0)
(7.35667 -0.00147976 0)
(7.35809 -0.00199317 0)
(7.3595 -0.00254306 0)
(7.3609 -0.00313124 0)
(7.36229 -0.00375972 0)
(7.36366 -0.00443062 0)
(7.36502 -0.00514604 0)
(7.36636 -0.00590798 0)
(7.36768 -0.00671822 0)
(7.36898 -0.00757821 0)
(7.37026 -0.00848895 0)
(7.3715 -0.00945079 0)
(7.37272 -0.0104636 0)
(7.33302 0.000133299 0)
(7.33323 0.000387563 0)
(7.33365 0.000618061 0)
(7.33427 0.000810222 0)
(7.33506 0.000956684 0)
(7.33598 0.00105167 0)
(7.33702 0.00109214 0)
(7.33816 0.00107815 0)
(7.33938 0.00101178 0)
(7.34066 0.000896298 0)
(7.34198 0.000735406 0)
(7.34334 0.000532805 0)
(7.34472 0.000291832 0)
(7.34612 1.52781e-05 0)
(7.34753 -0.000294696 0)
(7.34895 -0.000636582 0)
(7.35036 -0.0010095 0)
(7.35177 -0.00141313 0)
(7.35318 -0.00184767 0)
(7.35457 -0.00231374 0)
(7.35596 -0.00281232 0)
(7.35734 -0.00334471 0)
(7.3587 -0.00391242 0)
(7.36005 -0.00451712 0)
(7.36138 -0.00516058 0)
(7.3627 -0.00584458 0)
(7.364 -0.00657082 0)
(7.36527 -0.00734085 0)
(7.36652 -0.00815598 0)
(7.36775 -0.0090172 0)
(7.36894 -0.00992511 0)
(7.37011 -0.0108797 0)
(7.37124 -0.0118808 0)
(7.33302 6.32887e-05 0)
(7.33322 0.00017983 0)
(7.33362 0.000278504 0)
(7.33421 0.000346775 0)
(7.33497 0.000379042 0)
(7.33586 0.000370711 0)
(7.33686 0.00031912 0)
(7.33797 0.000224 0)
(7.33915 8.66961e-05 0)
(7.34039 -9.05445e-05 0)
(7.34168 -0.000305104 0)
(7.34301 -0.000554398 0)
(7.34436 -0.000836138 0)
(7.34573 -0.00114847 0)
(7.3471 -0.00149006 0)
(7.34848 -0.00186009 0)
(7.34986 -0.00225826 0)
(7.35124 -0.00268473 0)
(7.35261 -0.00314002 0)
(7.35396 -0.00362503 0)
(7.35531 -0.00414088 0)
(7.35664 -0.00468892 0)
(7.35796 -0.00527062 0)
(7.35926 -0.00588754 0)
(7.36054 -0.00654125 0)
(7.36179 -0.00723323 0)
(7.36303 -0.0079649 0)
(7.36424 -0.00873745 0)
(7.36542 -0.00955183 0)
(7.36657 -0.0104087 0)
(7.36769 -0.0113083 0)
(7.36878 -0.0122506 0)
(7.36983 -0.0132351 0)
(7.33302 -5.30939e-06 0)
(7.33321 -2.38999e-05 0)
(7.33359 -5.53445e-05 0)
(7.33416 -0.000110466 0)
(7.33489 -0.000193001 0)
(7.33575 -0.000306007 0)
(7.33672 -0.000451429 0)
(7.3378 -0.00062961 0)
(7.33895 -0.000839765 0)
(7.34016 -0.00108048 0)
(7.34142 -0.00135012 0)
(7.34272 -0.00164715 0)
(7.34404 -0.00197029 0)
(7.34538 -0.00231859 0)
(7.34672 -0.00269152 0)
(7.34807 -0.00308895 0)
(7.34942 -0.00351116 0)
(7.35076 -0.00395875 0)
(7.35209 -0.0044326 0)
(7.35341 -0.00493386 0)
(7.35472 -0.0054638 0)
(7.35601 -0.00602385 0)
(7.35728 -0.00661545 0)
(7.35852 -0.00724006 0)
(7.35975 -0.00789911 0)
(7.36095 -0.0085939 0)
(7.36212 -0.00932556 0)
(7.36327 -0.0100951 0)
(7.36438 -0.0109031 0)
(7.36547 -0.01175 0)
(7.36652 -0.012636 0)
(7.36753 -0.0135607 0)
(7.36851 -0.0145238 0)
(7.33302 -7.26345e-05 0)
(7.3332 -0.000224118 0)
(7.33357 -0.000384555 0)
(7.33411 -0.000563361 0)
(7.33481 -0.000762068 0)
(7.33565 -0.000981653 0)
(7.3366 -0.00122298 0)
(7.33765 -0.00148625 0)
(7.33878 -0.00177109 0)
(7.33997 -0.00207678 0)
(7.3412 -0.00240259 0)
(7.34248 -0.002748 0)
(7.34377 -0.00311274 0)
(7.34508 -0.00349679 0)
(7.3464 -0.00390044 0)
(7.34772 -0.00432425 0)
(7.34904 -0.00476907 0)
(7.35035 -0.00523597 0)
(7.35164 -0.00572618 0)
(7.35293 -0.00624109 0)
(7.35419 -0.00678212 0)
(7.35543 -0.00735078 0)
(7.35666 -0.00794851 0)
(7.35786 -0.00857673 0)
(7.35903 -0.00923671 0)
(7.36017 -0.00992964 0)
(7.36129 -0.0106565 0)
(7.36237 -0.0114179 0)
(7.36343 -0.0122146 0)
(7.36444 -0.0130467 0)
(7.36542 -0.0139141 0)
(7.36636 -0.0148166 0)
(7.36727 -0.0157536 0)
(7.33302 -0.000138667 0)
(7.33319 -0.000420915 0)
(7.33354 -0.00070981 0)
(7.33407 -0.00101363 0)
(7.33475 -0.00133094 0)
(7.33556 -0.00165979 0)
(7.3365 -0.00199954 0)
(7.33753 -0.00235014 0)
(7.33864 -0.0027115 0)
(7.33981 -0.0030835 0)
(7.34103 -0.00346628 0)
(7.34228 -0.00386032 0)
(7.34355 -0.00426632 0)
(7.34484 -0.00468519 0)
(7.34614 -0.00511803 0)
(7.34743 -0.00556615 0)
(7.34872 -0.00603098 0)
(7.34999 -0.00651409 0)
(7.35126 -0.0070171 0)
(7.3525 -0.00754167 0)
(7.35373 -0.00808944 0)
(7.35493 -0.008662 0)
(7.35611 -0.00926086 0)
(7.35726 -0.00988739 0)
(7.35838 -0.0105429 0)
(7.35948 -0.0112283 0)
(7.36054 -0.0119446 0)
(7.36156 -0.0126923 0)
(7.36255 -0.0134719 0)
(7.3635 -0.0142835 0)
(7.36442 -0.0151271 0)
(7.36529 -0.0160022 0)
(7.36612 -0.0169084 0)
(7.33302 -0.000203093 0)
(7.33318 -0.000613664 0)
(7.33351 -0.00103113 0)
(7.33402 -0.00146276 0)
(7.33468 -0.00190264 0)
(7.33549 -0.00234456 0)
(7.33641 -0.00278595 0)
(7.33743 -0.00322639 0)
(7.33852 -0.00366599 0)
(7.33968 -0.00410531 0)
(7.34089 -0.00454558 0)
(7.34213 -0.00498848 0)
(7.34339 -0.00543583 0)
(7.34466 -0.00588952 0)
(7.34593 -0.00635145 0)
(7.3472 -0.00682361 0)
(7.34846 -0.00730799 0)
(7.34971 -0.00780659 0)
(7.35094 -0.00832134 0)
(7.35216 -0.00885415 0)
(7.35335 -0.00940681 0)
(7.35451 -0.00998104 0)
(7.35564 -0.0105784 0)
(7.35675 -0.0112002 0)
(7.35782 -0.0118477 0)
(7.35886 -0.012522 0)
(7.35987 -0.0132238 0)
(7.36084 -0.0139536 0)
(7.36177 -0.0147119 0)
(7.36266 -0.0154987 0)
(7.36351 -0.0163138 0)
(7.36432 -0.0171569 0)
(7.36509 -0.0180276 0)
(7.33302 -0.000265025 0)
(7.33316 -0.000800393 0)
(7.33348 -0.00134745 0)
(7.33397 -0.00191198 0)
(7.33462 -0.00248047 0)
(7.33541 -0.00304063 0)
(7.33633 -0.00358802 0)
(7.33734 -0.00412183 0)
(7.33844 -0.00464185 0)
(7.33959 -0.00514884 0)
(7.34079 -0.00564496 0)
(7.34202 -0.00613321 0)
(7.34327 -0.0066168 0)
(7.34453 -0.00709891 0)
(7.34578 -0.00758265 0)
(7.34703 -0.00807098 0)
(7.34827 -0.00856672 0)
(7.3495 -0.00907248 0)
(7.3507 -0.00959069 0)
(7.35188 -0.0101236 0)
(7.35304 -0.0106732 0)
(7.35416 -0.0112414 0)
(7.35526 -0.0118298 0)
(7.35632 -0.0124398 0)
(7.35735 -0.0130725 0)
(7.35834 -0.0137291 0)
(7.35929 -0.0144101 0)
(7.36021 -0.0151161 0)
(7.36109 -0.0158474 0)
(7.36192 -0.016604 0)
(7.36271 -0.017386 0)
(7.36346 -0.0181929 0)
(7.36417 -0.0190246 0)
(7.33301 -0.000322425 0)
(7.33315 -0.000976478 0)
(7.33343 -0.00165569 0)
(7.33389 -0.00236246 0)
(7.33453 -0.00306901 0)
(7.33533 -0.00375377 0)
(7.33625 -0.0044111 0)
(7.33727 -0.00504159 0)
(7.33837 -0.00564633 0)
(7.33953 -0.00622729 0)
(7.34074 -0.00678776 0)
(7.34197 -0.00733159 0)
(7.34321 -0.00786258 0)
(7.34446 -0.00838443 0)
(7.34571 -0.00890077 0)
(7.34694 -0.00941509 0)
(7.34816 -0.00993064 0)
(7.34937 -0.0104505 0)
(7.35054 -0.0109774 0)
(7.35169 -0.011514 0)
(7.35282 -0.0120626 0)
(7.35391 -0.0126253 0)
(7.35496 -0.0132039 0)
(7.35599 -0.0137999 0)
(7.35697 -0.0144147 0)
(7.35792 -0.0150494 0)
(7.35882 -0.0157048 0)
(7.35969 -0.0163814 0)
(7.36051 -0.0170796 0)
(7.36129 -0.0177995 0)
(7.36202 -0.0185411 0)
(7.36271 -0.0193039 0)
(7.36336 -0.0200875 0)
(7.33301 -0.000370866 0)
(7.33311 -0.00113239 0)
(7.33335 -0.00194882 0)
(7.33378 -0.00281328 0)
(7.33442 -0.0036745 0)
(7.33522 -0.00449763 0)
(7.33615 -0.00527187 0)
(7.33719 -0.00599431 0)
(7.33831 -0.00666568 0)
(7.33948 -0.00729162 0)
(7.34069 -0.00788064 0)
(7.34192 -0.00844113 0)
(7.34317 -0.00898039 0)
(7.34441 -0.00950471 0)
(7.34565 -0.0100196 0)
(7.34688 -0.0105299 0)
(7.34809 -0.0110394 0)
(7.34927 -0.0115517 0)
(7.35043 -0.0120697 0)
(7.35156 -0.012596 0)
(7.35265 -0.0131327 0)
(7.35371 -0.0136818 0)
(7.35473 -0.0142448 0)
(7.35572 -0.0148232 0)
(7.35666 -0.0154181 0)
(7.35757 -0.0160304 0)
(7.35843 -0.0166607 0)
(7.35925 -0.0173094 0)
(7.36003 -0.017977 0)
(7.36076 -0.0186635 0)
(7.36144 -0.0193689 0)
(7.36208 -0.0200932 0)
(7.36268 -0.0208363 0)
(7.33301 -0.000399917 0)
(7.33305 -0.00125026 0)
(7.33321 -0.00221941 0)
(7.3336 -0.00326055 0)
(7.33423 -0.00428438 0)
(7.33506 -0.00526252 0)
(7.33603 -0.00619771 0)
(7.33711 -0.00708421 0)
(7.33827 -0.00791247 0)
(7.33948 -0.00868058 0)
(7.34072 -0.00939326 0)
(7.34197 -0.0100573 0)
(7.34323 -0.0106798 0)
(7.34447 -0.0112682 0)
(7.3457 -0.0118294 0)
(7.34692 -0.0123703 0)
(7.34811 -0.0128967 0)
(7.34927 -0.0134138 0)
(7.3504 -0.0139262 0)
(7.35149 -0.014438 0)
(7.35256 -0.0149526 0)
(7.35358 -0.0154728 0)
(7.35457 -0.016001 0)
(7.35551 -0.0165395 0)
(7.35642 -0.0170897 0)
(7.35728 -0.0176531 0)
(7.3581 -0.0182306 0)
(7.35887 -0.018823 0)
(7.3596 -0.0194308 0)
(7.36028 -0.0200542 0)
(7.36091 -0.0206932 0)
(7.3615 -0.0213474 0)
(7.36204 -0.0220164 0)
(7.33299 -0.000383395 0)
(7.33292 -0.00128116 0)
(7.33295 -0.0024634 0)
(7.33328 -0.00376208 0)
(7.33391 -0.00495307 0)
(7.33474 -0.00597761 0)
(7.33571 -0.00686796 0)
(7.33679 -0.00765808 0)
(7.33798 -0.00837186 0)
(7.33922 -0.00902983 0)
(7.34049 -0.00964843 0)
(7.34177 -0.010239 0)
(7.34306 -0.0108092 0)
(7.34433 -0.011365 0)
(7.34558 -0.0119106 0)
(7.34681 -0.0124495 0)
(7.34801 -0.0129843 0)
(7.34917 -0.0135173 0)
(7.3503 -0.0140505 0)
(7.35139 -0.0145857 0)
(7.35244 -0.0151246 0)
(7.35345 -0.0156685 0)
(7.35441 -0.0162189 0)
(7.35534 -0.0167767 0)
(7.35622 -0.0173431 0)
(7.35705 -0.0179189 0)
(7.35784 -0.0185047 0)
(7.35858 -0.0191011 0)
(7.35927 -0.0197085 0)
(7.35992 -0.0203271 0)
(7.36053 -0.0209574 0)
(7.36108 -0.0215994 0)
(7.3616 -0.0222538 0)
(7.33295 -0.000277122 0)
(7.3326 -0.00111564 0)
(7.33235 -0.0024972 0)
(7.33266 -0.00422573 0)
(7.33347 -0.00605845 0)
(7.33451 -0.00784581 0)
(7.33564 -0.00947676 0)
(7.33683 -0.0108898 0)
(7.33806 -0.0120837 0)
(7.33931 -0.0130882 0)
(7.34057 -0.0139362 0)
(7.34182 -0.0146572 0)
(7.34306 -0.0152777 0)
(7.34428 -0.0158215 0)
(7.34549 -0.016308 0)
(7.34667 -0.0167531 0)
(7.34782 -0.0171692 0)
(7.34895 -0.0175662 0)
(7.35004 -0.0179518 0)
(7.3511 -0.0183324 0)
(7.35212 -0.0187126 0)
(7.35311 -0.0190962 0)
(7.35406 -0.0194861 0)
(7.35496 -0.0198845 0)
(7.35583 -0.0202932 0)
(7.35665 -0.0207133 0)
(7.35743 -0.0211457 0)
(7.35816 -0.0215911 0)
(7.35885 -0.0220498 0)
(7.35949 -0.0225218 0)
(7.36008 -0.0230069 0)
(7.36063 -0.0235047 0)
(7.36112 -0.0240145 0)
(7.33289 6.54031e-05 0)
(7.33205 -0.00105121 0)
(7.33119 -0.00245858 0)
(7.33097 -0.00321794 0)
(7.33139 -0.00358021 0)
(7.33225 -0.00400593 0)
(7.33343 -0.00460737 0)
(7.33482 -0.00532325 0)
(7.33629 -0.00610736 0)
(7.3378 -0.00694079 0)
(7.3393 -0.00780485 0)
(7.34077 -0.00867933 0)
(7.34222 -0.00954894 0)
(7.34363 -0.0104041 0)
(7.345 -0.0112392 0)
(7.34633 -0.0120508 0)
(7.34762 -0.0128377 0)
(7.34887 -0.0136001 0)
(7.35007 -0.014339 0)
(7.35124 -0.0150561 0)
(7.35237 -0.0157534 0)
(7.35345 -0.0164332 0)
(7.35449 -0.0170976 0)
(7.35549 -0.0177488 0)
(7.35644 -0.0183888 0)
(7.35735 -0.0190194 0)
(7.35822 -0.0196425 0)
(7.35903 -0.0202594 0)
(7.35981 -0.0208716 0)
(7.36053 -0.0214803 0)
(7.36121 -0.0220865 0)
(7.36185 -0.0226912 0)
(7.36245 -0.0232954 0)
(7.33241 0.00202883 0)
(7.33044 -0.000709462 0)
(7.33024 -0.00749348 0)
(7.33128 -0.0139934 0)
(7.33219 -0.0187518 0)
(7.33284 -0.0219706 0)
(7.33357 -0.0240672 0)
(7.33452 -0.0253469 0)
(7.33563 -0.0260484 0)
(7.33685 -0.0263616 0)
(7.33818 -0.0264261 0)
(7.33959 -0.0263397 0)
(7.34107 -0.0261699 0)
(7.3426 -0.0259622 0)
(7.34416 -0.0257467 0)
(7.34573 -0.0255426 0)
(7.34731 -0.0253618 0)
(7.34887 -0.0252114 0)
(7.35042 -0.0250952 0)
(7.35195 -0.0250148 0)
(7.35344 -0.0249704 0)
(7.3549 -0.0249613 0)
(7.35631 -0.0249864 0)
(7.35768 -0.0250441 0)
(7.359 -0.0251328 0)
(7.36027 -0.0252508 0)
(7.36149 -0.0253965 0)
(7.36265 -0.0255681 0)
(7.36375 -0.025764 0)
(7.3648 -0.0259829 0)
(7.36579 -0.0262235 0)
(7.36671 -0.0264847 0)
(7.36757 -0.026766 0)
(7.32877 0.0062515 0)
(7.31723 0.0178657 0)
(7.31235 0.0250169 0)
(7.31383 0.027017 0)
(7.31759 0.0256571 0)
(7.32168 0.0227932 0)
(7.3258 0.0193824 0)
(7.32992 0.0157819 0)
(7.33396 0.0121745 0)
(7.33785 0.00869855 0)
(7.34159 0.00543888 0)
(7.34519 0.00242757 0)
(7.34866 -0.000332697 0)
(7.35199 -0.00285125 0)
(7.3552 -0.00514304 0)
(7.35829 -0.00722634 0)
(7.36125 -0.00912076 0)
(7.3641 -0.0108457 0)
(7.36684 -0.0124193 0)
(7.36946 -0.0138584 0)
(7.37197 -0.0151783 0)
(7.37438 -0.0163926 0)
(7.37667 -0.0175137 0)
(7.37886 -0.0185523 0)
(7.38095 -0.0195182 0)
(7.38294 -0.0204198 0)
(7.38483 -0.0212645 0)
(7.38662 -0.0220591 0)
(7.38832 -0.0228091 0)
(7.38992 -0.0235194 0)
(7.39143 -0.0241943 0)
(7.39285 -0.0248365 0)
(7.39419 -0.0254502 0)
(7.33378 -0.0333143 0)
(7.33299 -0.072357 0)
(7.32807 -0.0857691 0)
(7.32649 -0.0872468 0)
(7.33004 -0.0848953 0)
(7.33725 -0.0809659 0)
(7.34618 -0.0761622 0)
(7.35565 -0.0711414 0)
(7.3651 -0.0663603 0)
(7.37429 -0.0619912 0)
(7.38306 -0.0580628 0)
(7.39131 -0.0545659 0)
(7.39899 -0.0514784 0)
(7.40612 -0.0487672 0)
(7.41269 -0.0463935 0)
(7.41875 -0.0443187 0)
(7.42431 -0.0425078 0)
(7.4294 -0.0409291 0)
(7.43405 -0.0395543 0)
(7.43829 -0.0383586 0)
(7.44215 -0.0373202 0)
(7.44565 -0.0364203 0)
(7.44882 -0.0356425 0)
(7.45168 -0.0349725 0)
(7.45425 -0.0343977 0)
(7.45654 -0.0339076 0)
(7.45858 -0.0334925 0)
(7.46039 -0.0331444 0)
(7.46196 -0.0328561 0)
(7.46333 -0.0326213 0)
(7.4645 -0.0324345 0)
(7.46549 -0.0322915 0)