/*--------------------------------*- C++ -*----------------------------------*\
  =========                 |
  \\      /  F ield         | OpenFOAM: The Open Source CFD Toolbox
   \\    /   O peration     | Website:  https://openfoam.org
    \\  /    A nd           | Version:  10
     \\/     M anipulation  |
\*---------------------------------------------------------------------------*/
FoamFile
{
    format      ascii;
    class       volScalarField;
    location    "0.09";
    object      nut;
}
// * * * * * * * * * * * * * * * * * * * * * * * * * * * * * * * * * * * * * //

dimensions      [0 2 -1 0 0 0 0];

internalField   nonuniform List<scalar> 
6820
(
0
0
0
0
0
0
0
0
0
0
0
0
0
0
0
0
0
0
0
0
0
0
0
0
0
0
0
0
0
0
0
0
6.88231e-08
0
0
0
0
0
0
0
0
0
0
0
0
0
0
0
0
0
0
0
0
0
0
0
0
0
0
0
0
0
0
0
4.72139e-08
2.37206e-07
0
0
0
0
0
0
0
0
0
0
0
0
0
0
0
0
0
0
0
0
0
0
0
0
0
0
0
0
0
0
0
0
8.51182e-08
0
0
0
0
0
0
0
0
0
0
0
0
0
0
0
0
0
0
0
0
0
0
0
0
0
0
0
0
0
0
0
0
0
1.68881e-05
0
0
0
0
0
0
0
0
0
0
0
0
0
0
7.65131e-08
5.01084e-07
8.23418e-07
1.06692e-06
1.25571e-06
1.41364e-06
1.56561e-06
1.74037e-06
1.97152e-06
2.28179e-06
2.57908e-06
2.11718e-06
0
0
0
0
0
0
6.24436e-06
5.29059e-05
3.98669e-05
1.63167e-05
3.14657e-06
0
0
0
0
0
0
0
0
0
0
0
0
1.09906e-08
5.01718e-08
8.91256e-08
1.30188e-07
1.73402e-07
2.17176e-07
2.53471e-07
2.91851e-07
2.16068e-07
2.01925e-07
3.94629e-07
3.57113e-07
5.75787e-08
0
0
0
0
1.52356e-05
3.75738e-05
5.40107e-05
5.17288e-05
3.90703e-05
2.01708e-05
0
0
0
0
0
0
0
0
0
0
8.07869e-07
1.31087e-06
1.55588e-06
1.63494e-06
1.60927e-06
1.51893e-06
1.38981e-06
1.23872e-06
1.07517e-06
9.06288e-07
7.36592e-07
5.63832e-07
3.91667e-07
2.38991e-07
1.33362e-07
1.1205e-07
0
9.27732e-06
2.31363e-05
4.47923e-05
5.78593e-05
6.23809e-05
4.9804e-05
0
0
0
0
0
0
0
0
0
7.18433e-07
1.23079e-06
1.47212e-06
1.5352e-06
1.48491e-06
1.3657e-06
1.20737e-06
1.02986e-06
8.46558e-07
6.6726e-07
4.99062e-07
3.47902e-07
2.17744e-07
1.10955e-07
2.51115e-08
0
0
0
6.54676e-06
1.44707e-05
3.13777e-05
4.7642e-05
6.14262e-05
5.79373e-05
0
0
0
0
0
0
0
0
6.70868e-07
1.36371e-06
1.69541e-06
1.7897e-06
1.73203e-06
1.58237e-06
1.38323e-06
1.1641e-06
9.44248e-07
7.35109e-07
5.43029e-07
3.7125e-07
2.21912e-07
9.55986e-08
0
0
0
0
0
4.49853e-06
8.92766e-06
1.9983e-05
3.12196e-05
3.57009e-05
1.99398e-05
0
0
0
0
0
0
0
3.35218e-07
1.50421e-06
2.12225e-06
2.36465e-06
2.35771e-06
2.19127e-06
1.93028e-06
1.62252e-06
1.30277e-06
9.94947e-07
7.13685e-07
4.66771e-07
2.57024e-07
8.50045e-08
0
0
0
0
0
0
3.06321e-06
5.42975e-06
1.20602e-05
1.84423e-05
1.90176e-05
9.92724e-06
0
0
0
0
0
0
1.24896e-06
2.60436e-06
3.32533e-06
3.58958e-06
3.54034e-06
3.28543e-06
2.90421e-06
2.45517e-06
1.98149e-06
1.51478e-06
1.07742e-06
6.84086e-07
3.43815e-07
6.06092e-08
0
0
0
0
0
0
0
2.07015e-06
3.1845e-06
6.95834e-06
1.04022e-05
1.00434e-05
5.36606e-06
0
0
0
0
0
7.68588e-07
2.10509e-06
2.92283e-06
3.31339e-06
3.38045e-06
3.21591e-06
2.89463e-06
2.47564e-06
2.00489e-06
1.51766e-06
1.0409e-06
5.94841e-07
1.94203e-07
0
0
0
0
0
0
0
0
0
1.40908e-06
1.83759e-06
3.97663e-06
5.98544e-06
5.72451e-06
3.5097e-06
7.52112e-07
0
0
1.73433e-07
1.44202e-06
2.49251e-06
3.17952e-06
3.50838e-06
3.5418e-06
3.35359e-06
3.01048e-06
2.56763e-06
2.06889e-06
1.54865e-06
1.03373e-06
5.45251e-07
9.96498e-08
0
0
0
0
0
0
0
0
0
0
9.7009e-07
1.02472e-06
2.19019e-06
3.3689e-06
3.16647e-06
1.98079e-06
6.37034e-07
0
0
4.74658e-07
1.21282e-06
1.8246e-06
2.20413e-06
2.34376e-06
2.27903e-06
2.05814e-06
1.72811e-06
1.32956e-06
8.95787e-07
4.53982e-07
2.63036e-08
0
0
0
0
0
0
0
0
0
0
0
0
6.80148e-07
5.38847e-07
1.13965e-06
1.85443e-06
1.73751e-06
1.11769e-06
4.90248e-07
1.71697e-07
2.80876e-07
6.88264e-07
1.16216e-06
1.53271e-06
1.72693e-06
1.73797e-06
1.59225e-06
1.32803e-06
9.84184e-07
5.95177e-07
1.89691e-07
0
0
0
0
0
0
0
0
0
0
0
0
0
0
4.86507e-07
2.39002e-07
4.91703e-07
8.91827e-07
7.63585e-07
3.48964e-07
0
0
0
0
1.93295e-07
3.70944e-07
4.38638e-07
3.87501e-07
2.32916e-07
8.05099e-10
0
0
0
0
0
0
0
0
0
0
0
0
0
0
0
0
0
3.55558e-07
4.64047e-08
7.63393e-08
2.56005e-07
8.74082e-08
0
0
0
0
0
0
0
0
0
0
0
0
0
0
0
0
0
0
0
0
0
0
0
0
0
0
0
0
2.64745e-07
0
0
0
0
0
0
0
0
0
0
0
0
0
0
0
0
0
0
0
0
0
0
0
0
0
0
0
0
1.01284e-07
0
0
0
1.99747e-07
0
0
0
0
0
0
0
0
0
0
0
0
0
0
0
0
0
0
0
0
0
0
0
0
0
0
0
3.77946e-07
8.95072e-07
7.52142e-07
0
0
1.50713e-07
0
0
0
0
0
0
0
0
0
0
0
0
0
0
0
0
0
0
0
0
0
0
0
0
0
0
5.6138e-07
1.18611e-06
1.76908e-06
1.65404e-06
0
0
1.11016e-07
0
0
0
0
0
0
0
0
0
0
0
0
0
0
0
0
0
0
0
0
0
0
0
0
1.76279e-07
7.91061e-07
1.44163e-06
2.12417e-06
2.75266e-06
2.65235e-06
3.33949e-07
0
7.62053e-08
0
0
0
0
0
0
0
0
0
0
0
0
0
0
0
0
0
0
0
0
0
0
0
3.91649e-07
1.03904e-06
1.72011e-06
2.42623e-06
3.15224e-06
3.81151e-06
3.71748e-06
1.35785e-06
0
4.24884e-08
0
0
0
0
0
0
0
0
0
0
0
0
0
0
0
0
0
0
0
0
0
0
5.87159e-07
1.26745e-06
1.97705e-06
2.70952e-06
3.45572e-06
4.20929e-06
4.88352e-06
4.78634e-06
2.39524e-06
0
7.82169e-09
0
0
0
0
0
0
0
0
0
0
0
0
0
0
0
0
0
0
0
0
2.2537e-07
9.01409e-07
1.60844e-06
2.34113e-06
3.09287e-06
3.85646e-06
4.62212e-06
5.38237e-06
6.05103e-06
5.93714e-06
3.51652e-06
0
0
0
0
0
0
0
0
0
0
0
0
0
0
0
0
0
0
0
0
0
3.51341e-07
1.06467e-06
1.80491e-06
2.56692e-06
3.34462e-06
4.13068e-06
4.917e-06
5.69345e-06
6.45194e-06
7.10768e-06
6.9741e-06
4.53969e-06
0
0
0
0
0
0
0
0
0
0
0
0
0
0
0
0
0
0
0
8.68516e-08
7.97022e-07
1.53293e-06
2.29095e-06
3.0666e-06
3.85442e-06
4.64785e-06
5.43904e-06
6.21943e-06
6.97873e-06
7.70821e-06
8.32464e-06
8.15259e-06
5.6969e-06
0
0
0
0
0
0
0
0
0
0
0
0
0
0
0
0
0
0
8.56711e-08
8.38451e-07
1.61336e-06
2.40636e-06
3.21313e-06
4.02848e-06
4.84614e-06
5.65886e-06
6.45838e-06
7.23583e-06
7.98098e-06
8.68498e-06
9.26722e-06
9.06387e-06
6.61155e-06
0
0
0
0
0
0
0
0
0
0
0
0
0
0
0
0
5.93687e-08
8.04624e-07
1.5686e-06
2.34851e-06
3.1414e-06
3.94374e-06
4.75136e-06
5.55894e-06
6.36013e-06
7.14759e-06
7.91295e-06
8.64709e-06
9.33965e-06
9.98126e-06
1.04936e-05
1.02334e-05
7.76652e-06
0
0
0
0
0
0
0
0
0
0
0
0
0
0
0
0
6.49927e-07
1.46145e-06
2.28485e-06
3.11686e-06
3.95395e-06
4.79194e-06
5.62594e-06
6.45017e-06
7.25795e-06
8.04173e-06
8.79301e-06
9.50277e-06
1.01611e-05
1.0759e-05
1.12219e-05
1.09246e-05
8.48207e-06
0
0
0
0
0
0
0
0
0
0
0
0
0
4.22922e-07
1.18353e-06
1.95335e-06
2.73066e-06
3.51398e-06
4.3016e-06
5.09165e-06
5.88136e-06
6.66708e-06
7.44414e-06
8.20687e-06
8.94846e-06
9.66116e-06
1.03362e-05
1.09642e-05
1.15349e-05
1.20384e-05
1.2403e-05
1.20348e-05
9.59262e-06
0
0
0
0
0
0
0
0
0
0
0
0
0
8.17593e-07
1.64067e-06
2.46608e-06
3.29212e-06
4.11703e-06
4.93855e-06
5.7541e-06
6.56033e-06
7.35316e-06
8.12762e-06
8.87785e-06
9.59704e-06
1.02776e-05
1.09111e-05
1.14886e-05
1.20008e-05
1.24391e-05
1.27369e-05
1.23286e-05
9.95062e-06
0
0
0
0
0
0
0
1.07046e-07
7.95568e-07
1.47151e-06
2.13542e-06
2.78999e-06
3.4387e-06
4.08598e-06
4.73539e-06
5.38913e-06
6.04823e-06
6.71214e-06
7.37908e-06
8.04622e-06
8.70964e-06
9.36442e-06
1.00047e-05
1.06235e-05
1.12133e-05
1.17653e-05
1.22704e-05
1.27185e-05
1.30994e-05
1.3403e-05
1.35674e-05
1.308e-05
1.07628e-05
0
0
0
0
0
0
0
6.31261e-07
1.3085e-06
1.94803e-06
2.56716e-06
3.17783e-06
3.7865e-06
4.39754e-06
5.01281e-06
5.63182e-06
6.25252e-06
6.87167e-06
7.48536e-06
8.08914e-06
8.67822e-06
9.24741e-06
9.79115e-06
1.03034e-05
1.07778e-05
1.12072e-05
1.15842e-05
1.1901e-05
1.21499e-05
1.23236e-05
1.23715e-05
1.18569e-05
9.79848e-06
3.30161e-06
7.23695e-06
6.6702e-06
7.25765e-06
7.8239e-06
7.91044e-06
7.80333e-06
7.66484e-06
7.52082e-06
7.39288e-06
7.30664e-06
7.27552e-06
7.30353e-06
7.38997e-06
7.53022e-06
7.71686e-06
7.94124e-06
8.19435e-06
8.46744e-06
8.75221e-06
9.04095e-06
9.32643e-06
9.60183e-06
9.86056e-06
1.00962e-05
1.03021e-05
1.04717e-05
1.05978e-05
1.06733e-05
1.0691e-05
1.06128e-05
1.01299e-05
8.51789e-06
5.5729e-07
1.02854e-05
1.06059e-05
1.07722e-05
1.0373e-05
9.34288e-06
8.37883e-06
7.64051e-06
7.05453e-06
6.60265e-06
6.28503e-06
6.08843e-06
5.99448e-06
5.98557e-06
6.04455e-06
6.15531e-06
6.30357e-06
6.47701e-06
6.66507e-06
6.8587e-06
7.05015e-06
7.23278e-06
7.40102e-06
7.55025e-06
7.67674e-06
7.77759e-06
7.85057e-06
7.89398e-06
7.90655e-06
7.8873e-06
7.81391e-06
7.47422e-06
6.3731e-06
6.44971e-05
4.15631e-05
2.64886e-05
1.95217e-05
1.41611e-05
9.30385e-06
5.48005e-06
2.63863e-06
5.3223e-07
0
0
0
0
0
0
0
0
0
0
0
0
0
0
0
0
4.06698e-08
1.36128e-07
1.86706e-07
1.93348e-07
1.58028e-07
7.63127e-08
0
0
0
0
0
0
0
0
0
0
0
0
0
0
0
0
0
0
0
0
0
0
0
0
0
0
0
0
0
0
0
0
0
0
0
3.86627e-08
0
0
0
0
0
0
0
0
0
0
0
0
0
0
0
0
0
0
0
0
0
0
0
0
0
0
0
0
0
0
0
0
2.04323e-08
0
0
0
0
0
0
0
0
0
0
0
0
0
0
0
0
0
0
0
0
0
0
0
0
0
0
0
0
0
0
0
0
9.16185e-09
0
0
0
0
0
0
0
0
0
0
0
0
0
0
0
0
0
0
0
0
0
0
0
0
0
0
0
0
0
0
0
0
2.97158e-07
0
0
0
0
0
0
0
0
0
0
3.81775e-06
1.73538e-05
4.08074e-05
7.83411e-05
0
0
0
0
0
5.48427e-06
9.06169e-06
6.18353e-06
3.06548e-06
1.69783e-06
1.00052e-06
0
0
0
0
0
0
0
7.47978e-06
3.65455e-05
6.93645e-05
0.000108402
0.000166792
0.000274983
0
0
0
2.69917e-06
2.02734e-05
1.853e-05
1.387e-05
1.29026e-05
1.44675e-05
1.50856e-05
1.43037e-05
1.26672e-05
1.03837e-05
7.61782e-06
4.69342e-06
2.02276e-06
0
0
0
0
0
0
0
0
0
0
0
0
0
0
0
0
0
0
0
0
0
0
0
0
0
0
0
0
0
0
0
0
0
0
6.71728e-06
1.22218e-05
0
0
0
0
0
5.21337e-05
2.92281e-05
0
0
7.50506e-07
0
0
0
0
0
0
0
0
0
0
0
1.10152e-05
2.8081e-05
2.92805e-05
0
0
0
0
0
9.32163e-06
9.32481e-06
5.25285e-06
2.66899e-06
2.04271e-06
1.23194e-06
0
0
0
0
0
0
0
0
2.44412e-05
6.01567e-05
0.000104608
0.000166058
0.000202853
0
0
0
1.55536e-05
2.08251e-05
1.67844e-05
1.3799e-05
1.51558e-05
1.73534e-05
1.79227e-05
1.70567e-05
1.51802e-05
1.25266e-05
9.38175e-06
6.14253e-06
3.23864e-06
9.59278e-07
0
0
0
0
0
0
0
0
0
0
0
0
0
0
0
0
0
0
0
0
0
0
0
0
1.16327e-08
0
0
0
0
0
0
0
0
6.67649e-06
1.255e-05
0
0
0
0
0
4.71919e-05
3.30502e-05
0
0
6.84433e-07
2.53716e-07
0
0
0
0
0
0
0
0
0
0
4.92318e-06
1.58018e-05
1.40658e-05
0
0
0
0
5.91513e-06
1.1094e-05
7.53418e-06
3.69803e-06
2.60651e-06
2.43042e-06
1.36545e-06
0
0
0
0
0
0
0
0
6.69705e-06
3.46712e-05
6.64313e-05
8.82293e-05
3.97108e-05
0
0
7.67339e-06
1.92573e-05
1.8325e-05
1.45574e-05
1.44491e-05
1.75359e-05
1.98182e-05
2.02369e-05
1.91868e-05
1.70329e-05
1.4093e-05
1.07251e-05
7.33585e-06
4.33468e-06
2.00237e-06
3.11333e-07
0
0
0
0
0
0
0
0
0
0
0
0
0
0
0
0
0
0
0
0
0
0
2.24446e-07
3.68214e-07
5.1761e-08
0
0
0
0
0
0
0
6.43121e-06
1.26725e-05
0
0
0
0
0
2.79143e-05
3.54509e-05
0
0
6.32442e-08
3.06451e-07
0
0
0
0
0
0
0
0
0
0
1.31023e-06
1.23855e-05
2.25886e-05
3.33988e-06
0
0
2.52148e-06
1.12873e-05
9.3032e-06
4.87145e-06
2.80538e-06
3.13405e-06
2.7865e-06
1.44339e-06
0
0
0
0
0
0
0
0
0
7.91206e-06
2.31354e-05
2.4351e-05
3.30519e-06
0
3.68348e-06
1.53282e-05
1.77422e-05
1.49646e-05
1.3457e-05
1.62938e-05
2.00569e-05
2.21046e-05
2.22688e-05
2.09346e-05
1.84962e-05
1.5343e-05
1.18487e-05
8.39179e-06
5.35154e-06
3.00731e-06
1.36102e-06
9.30874e-08
0
0
0
0
0
0
0
0
0
0
0
0
0
0
0
0
0
0
0
0
2.46081e-07
6.57865e-07
7.67338e-07
4.22688e-07
0
0
0
0
0
0
0
6.12041e-06
1.27123e-05
0
0
0
0
0
0
3.64685e-05
0
0
0
0
0
0
0
0
0
0
0
0
0
0
0
5.7529e-06
2.27202e-05
3.49846e-05
8.71218e-06
4.76848e-06
1.12976e-05
1.00335e-05
5.66273e-06
2.89312e-06
3.36539e-06
3.81792e-06
3.10866e-06
1.52706e-06
0
0
0
0
0
0
0
0
0
0
0
1.00319e-06
0
3.5431e-06
1.11337e-05
1.50732e-05
1.41847e-05
1.24388e-05
1.44312e-05
1.89911e-05
2.26542e-05
2.43131e-05
2.41042e-05
2.24235e-05
1.97272e-05
1.64266e-05
1.28649e-05
9.37564e-06
6.31521e-06
3.97619e-06
2.39792e-06
1.28044e-06
2.91837e-07
0
0
0
0
0
0
0
0
0
0
0
0
0
0
0
0
0
0
2.88195e-07
7.46313e-07
1.09993e-06
1.15756e-06
7.69608e-07
0
0
0
0
0
0
0
5.88794e-06
1.27897e-05
0
0
0
0
0
0
3.48751e-05
0
0
0
0
0
0
0
0
0
0
0
0
0
0
0
3.01287e-06
1.53e-05
2.3754e-05
1.27688e-05
1.16301e-05
9.28895e-06
5.4262e-06
2.7497e-06
3.33242e-06
4.42173e-06
4.47525e-06
3.49513e-06
1.6764e-06
0
0
0
0
0
0
0
0
0
0
0
0
1.12022e-06
6.76638e-06
1.09072e-05
1.17626e-05
1.09008e-05
1.23812e-05
1.7085e-05
2.19681e-05
2.51572e-05
2.63042e-05
2.56429e-05
2.36294e-05
2.07445e-05
1.73665e-05
1.37814e-05
1.02808e-05
7.21266e-06
4.89707e-06
3.41526e-06
2.47632e-06
1.71185e-06
1.02302e-06
5.03945e-07
2.34174e-07
1.94372e-07
3.03256e-07
4.83438e-07
6.87425e-07
8.82559e-07
1.02892e-06
1.07836e-06
9.97562e-07
7.95552e-07
5.3114e-07
2.91655e-07
1.5347e-07
1.50707e-07
2.78252e-07
5.25825e-07
8.84129e-07
1.29223e-06
1.60049e-06
1.61897e-06
1.20007e-06
2.79398e-07
0
0
0
0
0
0
5.61941e-06
1.27829e-05
0
0
0
0
0
0
2.8158e-05
0
0
5.91974e-08
0
0
0
0
0
0
0
0
0
0
0
0
0
2.22107e-06
8.34052e-06
8.46902e-06
6.51057e-06
3.81966e-06
2.19199e-06
3.27257e-06
4.71349e-06
5.43136e-06
5.23066e-06
4.03577e-06
1.90939e-06
0
0
0
0
0
0
0
0
0
0
0
0
1.84565e-06
5.93825e-06
7.99782e-06
8.49533e-06
1.0228e-05
1.48211e-05
2.0355e-05
2.48111e-05
2.73551e-05
2.79127e-05
2.68133e-05
2.45479e-05
2.1563e-05
1.81683e-05
1.45901e-05
1.10927e-05
8.0313e-06
5.76387e-06
4.41289e-06
3.68292e-06
3.16018e-06
2.69374e-06
2.33778e-06
2.1569e-06
2.14148e-06
2.23231e-06
2.37197e-06
2.52402e-06
2.65941e-06
2.73876e-06
2.71373e-06
2.54931e-06
2.25023e-06
1.86948e-06
1.49135e-06
1.19758e-06
1.03987e-06
1.03836e-06
1.19837e-06
1.50082e-06
1.86197e-06
2.12187e-06
2.09537e-06
1.64061e-06
6.92751e-07
0
0
0
0
0
0
5.40182e-06
1.27964e-05
0
0
0
0
0
0
1.24613e-05
0
0
0
0
0
0
0
0
0
0
0
0
0
0
0
0
9.74341e-07
2.67391e-06
2.39792e-06
1.38442e-06
1.81072e-06
3.36122e-06
4.85744e-06
6.01375e-06
6.57611e-06
6.21634e-06
4.72629e-06
2.19111e-06
0
0
0
0
0
0
0
0
0
0
0
0
1.44181e-06
3.93174e-06
5.60073e-06
8.04738e-06
1.25479e-05
1.82239e-05
2.34818e-05
2.72301e-05
2.90526e-05
2.9048e-05
2.76106e-05
2.52042e-05
2.21997e-05
1.88311e-05
1.5279e-05
1.17973e-05
8.76178e-06
6.5748e-06
5.39368e-06
4.9015e-06
4.63432e-06
4.39401e-06
4.19982e-06
4.10394e-06
4.10796e-06
4.17615e-06
4.27218e-06
4.37111e-06
4.44717e-06
4.4606e-06
4.3618e-06
4.11297e-06
3.71352e-06
3.21081e-06
2.688e-06
2.23551e-06
1.92569e-06
1.80535e-06
1.8927e-06
2.15216e-06
2.47284e-06
2.68553e-06
2.61406e-06
2.12613e-06
1.15668e-06
0
0
0
0
0
0
5.17618e-06
1.2761e-05
0
0
0
0
0
0
0
0
0
0
0
0
0
0
0
0
0
0
0
0
0
0
0
6.73257e-08
2.71865e-07
1.11448e-06
2.262e-06
3.54381e-06
4.91825e-06
6.34057e-06
7.53975e-06
8.03111e-06
7.38869e-06
5.47072e-06
2.46141e-06
0
0
0
0
0
0
0
0
0
0
0
0
9.21029e-07
3.12978e-06
6.07562e-06
1.0417e-05
1.58838e-05
2.14522e-05
2.60446e-05
2.89961e-05
3.01468e-05
2.97103e-05
2.80745e-05
2.56311e-05
2.26655e-05
1.93491e-05
1.5836e-05
1.23842e-05
9.39913e-06
7.33187e-06
6.3625e-06
6.13366e-06
6.13028e-06
6.11495e-06
6.07786e-06
6.06201e-06
6.0818e-06
6.12525e-06
6.17687e-06
6.2226e-06
6.23924e-06
6.18611e-06
6.01207e-06
5.67663e-06
5.17435e-06
4.54726e-06
3.878e-06
3.26722e-06
2.81091e-06
2.58475e-06
2.61702e-06
2.84813e-06
3.1333e-06
3.29066e-06
3.15421e-06
2.60828e-06
1.59761e-06
1.30417e-07
0
0
0
0
0
4.98673e-06
1.2719e-05
0
0
0
0
0
0
0
0
0
0
0
0
0
0
0
0
0
0
0
0
0
0
0
4.5493e-07
1.29236e-06
2.28387e-06
3.43999e-06
4.84209e-06
6.5201e-06
8.22708e-06
9.45269e-06
9.67175e-06
8.57502e-06
6.15754e-06
2.6795e-06
0
0
0
0
0
0
0
0
0
0
0
0
9.55582e-07
4.10139e-06
8.24772e-06
1.33801e-05
1.89111e-05
2.39587e-05
2.77789e-05
3.00093e-05
3.06575e-05
2.99642e-05
2.82612e-05
2.5857e-05
2.29655e-05
1.97164e-05
1.62529e-05
1.28473e-05
9.94258e-06
8.04007e-06
7.3247e-06
7.38003e-06
7.6433e-06
7.84713e-06
7.95944e-06
8.01783e-06
8.05066e-06
8.06913e-06
8.07715e-06
8.07029e-06
8.02709e-06
7.90571e-06
7.65361e-06
7.22821e-06
6.62005e-06
5.86671e-06
5.05098e-06
4.28519e-06
3.6916e-06
3.37646e-06
3.37503e-06
3.59795e-06
3.86302e-06
3.97272e-06
3.76759e-06
3.14799e-06
2.07353e-06
5.6166e-07
0
0
0
0
0
4.81101e-06
1.2644e-05
1.0648e-06
0
0
0
0
0
0
0
0
0
0
0
0
0
0
0
0
0
0
0
0
0
0
6.67302e-07
1.76607e-06
3.06861e-06
4.68428e-06
6.64132e-06
8.73261e-06
1.05163e-05
1.14787e-05
1.12265e-05
9.60608e-06
6.71228e-06
2.83176e-06
0
0
0
0
0
0
0
0
0
0
0
0
1.18006e-06
5.44787e-06
1.04181e-05
1.58184e-05
2.10526e-05
2.54692e-05
2.86176e-05
3.03342e-05
3.06907e-05
2.98985e-05
2.82223e-05
2.59025e-05
2.31033e-05
1.99297e-05
1.65251e-05
1.31842e-05
1.03948e-05
8.70662e-06
8.28515e-06
8.63929e-06
9.16668e-06
9.58007e-06
9.83182e-06
9.95795e-06
1.00017e-05
9.99619e-06
9.96248e-06
9.90403e-06
9.80044e-06
9.60884e-06
9.27576e-06
8.75716e-06
8.04029e-06
7.15916e-06
6.19799e-06
5.28259e-06
4.56371e-06
4.17813e-06
4.16297e-06
4.39363e-06
4.64984e-06
4.71888e-06
4.44503e-06
3.73928e-06
2.57457e-06
9.85023e-07
0
0
0
0
0
4.66411e-06
1.25652e-05
2.87085e-06
0
0
0
0
0
0
0
0
0
0
0
0
0
0
0
0
0
0
0
0
0
0
1.02199e-06
2.57326e-06
4.45111e-06
6.65425e-06
9.01623e-06
1.11893e-05
1.27294e-05
1.32338e-05
1.24581e-05
1.03626e-05
7.08713e-06
2.91064e-06
0
0
0
0
0
0
0
0
0
0
0
0
1.44058e-06
6.53518e-06
1.19277e-05
1.72743e-05
2.2107e-05
2.60032e-05
2.87043e-05
3.01375e-05
3.03772e-05
2.9593e-05
2.79967e-05
2.57826e-05
2.30826e-05
1.9988e-05
1.66506e-05
1.33952e-05
1.07615e-05
9.34046e-06
9.24772e-06
9.90791e-06
1.06914e-05
1.13013e-05
1.16808e-05
1.18679e-05
1.19213e-05
1.18938e-05
1.1821e-05
1.17122e-05
1.15475e-05
1.12835e-05
1.08666e-05
1.0252e-05
9.42436e-06
8.41527e-06
7.3118e-06
6.25531e-06
5.42683e-06
4.99208e-06
4.98332e-06
5.23544e-06
5.49128e-06
5.52654e-06
5.19094e-06
4.40382e-06
3.14626e-06
1.46615e-06
0
0
0
0
0
4.56176e-06
1.25229e-05
4.67262e-06
0
0
0
0
0
0
0
0
0
0
0
0
0
0
0
0
0
0
0
0
0
0
1.66179e-06
3.83206e-06
6.26602e-06
8.83855e-06
1.12905e-05
1.32668e-05
1.44059e-05
1.44344e-05
1.32207e-05
1.07827e-05
7.26353e-06
2.91627e-06
0
0
0
0
0
0
0
0
0
0
0
0
1.60839e-06
7.09095e-06
1.25744e-05
1.77391e-05
2.22453e-05
2.58143e-05
2.82802e-05
2.95982e-05
2.98275e-05
2.91056e-05
2.7611e-05
2.55081e-05
2.29062e-05
1.98906e-05
1.66284e-05
1.34831e-05
1.10521e-05
9.95184e-06
1.02147e-05
1.118e-05
1.22063e-05
1.29965e-05
1.34909e-05
1.37325e-05
1.37951e-05
1.37485e-05
1.36396e-05
1.34816e-05
1.32549e-05
1.29162e-05
1.24127e-05
1.16996e-05
1.07601e-05
9.62447e-06
8.38433e-06
7.19876e-06
6.28019e-06
5.81994e-06
5.83712e-06
6.12146e-06
6.38014e-06
6.37973e-06
5.97758e-06
5.10305e-06
3.74526e-06
1.9642e-06
0
0
0
0
0
4.45896e-06
1.24667e-05
6.46144e-06
0
0
0
0
0
0
0
0
0
0
0
0
0
0
0
0
0
0
0
0
0
0
2.38582e-06
5.06031e-06
7.83725e-06
1.05245e-05
1.28544e-05
1.45321e-05
1.52992e-05
1.49802e-05
1.35014e-05
1.08913e-05
7.2718e-06
2.86613e-06
0
0
0
0
0
0
0
0
0
0
0
0
1.64838e-06
7.17473e-06
1.2563e-05
1.7532e-05
2.18157e-05
2.52024e-05
2.75607e-05
2.88492e-05
2.91132e-05
2.84712e-05
2.70814e-05
2.50855e-05
2.25755e-05
1.96367e-05
1.64597e-05
1.34547e-05
1.12797e-05
1.05515e-05
1.11864e-05
1.24474e-05
1.3698e-05
1.465e-05
1.52457e-05
1.55357e-05
1.56078e-05
1.55456e-05
1.54036e-05
1.51974e-05
1.49075e-05
1.44917e-05
1.38989e-05
1.30856e-05
1.20342e-05
1.07754e-05
9.40732e-06
8.1089e-06
7.12426e-06
6.66484e-06
6.72762e-06
7.05458e-06
7.32061e-06
7.28583e-06
6.81635e-06
5.85286e-06
4.39408e-06
2.51201e-06
3.78902e-07
0
0
0
0
4.40485e-06
1.24468e-05
8.38672e-06
0
0
0
0
0
0
0
0
0
0
0
0
0
0
0
0
0
0
0
0
0
1.73936e-07
2.95987e-06
5.8653e-06
8.73211e-06
1.13533e-05
1.3495e-05
1.49302e-05
1.54714e-05
1.49898e-05
1.34238e-05
1.07867e-05
7.17385e-06
2.78584e-06
0
0
0
0
0
0
0
0
0
0
0
0
1.63914e-06
7.01756e-06
1.2222e-05
1.69975e-05
2.11123e-05
2.43798e-05
2.66783e-05
2.7963e-05
2.82705e-05
2.77079e-05
2.64166e-05
2.45177e-05
2.20902e-05
1.92264e-05
1.61482e-05
1.3321e-05
1.14608e-05
1.11494e-05
1.21598e-05
1.36989e-05
1.51515e-05
1.6245e-05
1.69284e-05
1.72613e-05
1.73438e-05
1.72694e-05
1.7097e-05
1.68429e-05
1.64883e-05
1.59929e-05
1.53085e-05
1.43937e-05
1.32318e-05
1.18554e-05
1.03716e-05
8.98109e-06
7.9586e-06
7.52758e-06
7.65321e-06
8.0291e-06
8.30246e-06
8.22916e-06
7.68363e-06
6.61826e-06
5.04323e-06
3.04524e-06
8.16642e-07
0
0
0
0
4.31089e-06
1.23385e-05
1.01635e-05
0
0
0
0
0
0
0
0
0
0
0
0
0
0
0
0
0
0
0
0
0
4.72897e-07
3.3064e-06
6.1986e-06
8.98083e-06
1.14614e-05
1.34424e-05
1.47385e-05
1.51924e-05
1.4685e-05
1.31454e-05
1.05663e-05
7.02114e-06
2.69473e-06
0
0
0
0
0
0
0
0
0
0
0
0
1.63841e-06
6.78474e-06
1.17613e-05
1.6333e-05
2.0286e-05
2.34444e-05
2.56881e-05
2.69687e-05
2.73156e-05
2.68251e-05
2.56213e-05
2.38062e-05
2.14507e-05
1.86619e-05
1.57018e-05
1.3098e-05
1.16146e-05
1.17527e-05
1.31288e-05
1.4921e-05
1.65497e-05
1.77635e-05
1.85214e-05
1.88926e-05
1.89866e-05
1.89028e-05
1.87018e-05
1.83995e-05
1.79781e-05
1.74005e-05
1.66226e-05
1.56062e-05
1.43369e-05
1.28515e-05
1.12685e-05
9.81218e-06
8.78469e-06
8.4111e-06
8.61581e-06
9.04657e-06
9.32936e-06
9.2188e-06
8.59637e-06
7.42806e-06
5.73406e-06
3.61796e-06
1.29455e-06
0
0
0
0
4.31566e-06
1.23122e-05
1.20095e-05
0
0
0
0
0
0
0
0
0
0
0
0
0
0
0
0
0
0
0
0
0
7.57368e-07
3.47227e-06
6.22023e-06
8.84405e-06
1.11723e-05
1.30306e-05
1.42525e-05
1.46892e-05
1.42189e-05
1.2758e-05
1.02799e-05
6.83844e-06
2.60355e-06
0
0
0
0
0
0
0
0
0
0
0
0
1.65997e-06
6.53192e-06
1.12514e-05
1.56018e-05
1.93829e-05
2.24254e-05
2.46088e-05
2.58794e-05
2.62585e-05
2.58298e-05
2.4699e-05
2.29518e-05
2.06579e-05
1.79478e-05
1.51325e-05
1.28064e-05
1.17601e-05
1.23639e-05
1.40828e-05
1.60974e-05
1.78743e-05
1.91872e-05
2.00071e-05
2.04122e-05
2.05183e-05
2.04271e-05
2.01979e-05
1.98458e-05
1.93549e-05
1.86925e-05
1.78197e-05
1.67027e-05
1.53314e-05
1.37488e-05
1.20879e-05
1.0597e-05
9.60078e-06
9.31262e-06
9.60838e-06
1.00946e-05
1.0383e-05
1.02287e-05
9.51867e-06
8.23301e-06
6.40168e-06
4.14692e-06
1.70928e-06
0
0
0
0
4.26322e-06
1.21898e-05
1.35393e-05
0
0
0
0
0
0
0
0
0
0
0
0
0
0
0
0
0
0
0
0
0
1.00715e-06
3.5373e-06
6.09424e-06
8.53641e-06
1.07098e-05
1.24564e-05
1.36212e-05
1.40608e-05
1.36504e-05
1.22949e-05
9.94813e-06
6.64034e-06
2.52284e-06
0
0
0
0
0
0
0
0
0
0
0
0
1.70192e-06
6.26915e-06
1.07077e-05
1.48199e-05
1.84177e-05
2.13363e-05
2.34528e-05
2.47066e-05
2.51084e-05
2.47273e-05
2.36513e-05
2.19542e-05
1.9713e-05
1.70912e-05
1.44564e-05
1.24702e-05
1.19138e-05
1.29798e-05
1.5007e-05
1.72091e-05
1.91056e-05
2.0497e-05
2.13672e-05
2.18018e-05
2.19198e-05
2.18211e-05
2.15621e-05
2.11574e-05
2.05939e-05
1.98443e-05
1.88762e-05
1.76614e-05
1.6196e-05
1.45323e-05
1.28201e-05
1.13318e-05
1.04062e-05
1.02312e-05
1.06291e-05
1.11733e-05
1.14689e-05
1.12751e-05
1.04845e-05
9.08184e-06
7.11258e-06
4.72021e-06
2.17205e-06
0
0
0
0
4.37955e-06
1.22554e-05
1.5211e-05
0
0
0
0
0
0
0
0
0
0
0
0
0
0
0
0
0
0
0
0
0
1.2136e-06
3.53313e-06
5.87941e-06
8.12644e-06
1.01369e-05
1.17679e-05
1.28771e-05
1.33275e-05
1.29932e-05
1.17677e-05
9.58245e-06
6.4388e-06
2.46266e-06
0
0
0
0
0
0
0
0
0
0
0
0
1.75976e-06
5.99941e-06
1.01385e-05
1.39983e-05
1.74025e-05
2.01892e-05
2.22315e-05
2.3459e-05
2.387e-05
2.35177e-05
2.24748e-05
2.08099e-05
1.86172e-05
1.6102e-05
1.36945e-05
1.21157e-05
1.20866e-05
1.35904e-05
1.58828e-05
1.82354e-05
2.0223e-05
2.16732e-05
2.25826e-05
2.30418e-05
2.31691e-05
2.30601e-05
2.27674e-05
2.23053e-05
2.16649e-05
2.08256e-05
1.97624e-05
1.84548e-05
1.69067e-05
1.51825e-05
1.34507e-05
1.20061e-05
1.11909e-05
1.11527e-05
1.16587e-05
1.22578e-05
1.25552e-05
1.23161e-05
1.14384e-05
9.90143e-06
7.77073e-06
5.21532e-06
2.53195e-06
1.29511e-07
0
0
0
4.40763e-06
1.22157e-05
1.65177e-05
0
0
0
0
0
0
0
0
0
0
0
0
0
0
0
0
0
0
0
0
0
1.37532e-06
3.47262e-06
5.59821e-06
7.64168e-06
9.48247e-06
1.0994e-05
1.20472e-05
1.25139e-05
1.22691e-05
1.11959e-05
9.20202e-06
6.25293e-06
2.43987e-06
0
0
0
0
0
0
0
0
0
0
0
0
1.82696e-06
5.72191e-06
9.54702e-06
1.31427e-05
1.63436e-05
1.89899e-05
2.0948e-05
2.2136e-05
2.25376e-05
2.21909e-05
2.11577e-05
1.9511e-05
1.73715e-05
1.49933e-05
1.28725e-05
1.17686e-05
1.22811e-05
1.41789e-05
1.66875e-05
1.91532e-05
2.12046e-05
2.26951e-05
2.36321e-05
2.41089e-05
2.42398e-05
2.41144e-05
2.37812e-05
2.32552e-05
2.25329e-05
2.16017e-05
2.04455e-05
1.90524e-05
1.7437e-05
1.56778e-05
1.39632e-05
1.26062e-05
1.19401e-05
1.20601e-05
1.26812e-05
1.33387e-05
1.36446e-05
1.33701e-05
1.24148e-05
1.07567e-05
8.4756e-06
5.76596e-06
2.95886e-06
4.95813e-07
0
0
1.71645e-07
4.68825e-06
1.24775e-05
1.81465e-05
0
0
0
0
0
0
0
4.59834e-06
0
0
0
0
0
0
0
0
0
0
0
0
0
1.48142e-06
3.35131e-06
5.25151e-06
7.08723e-06
8.75466e-06
1.01437e-05
1.11403e-05
1.16272e-05
1.14834e-05
1.05847e-05
8.81438e-06
6.09525e-06
2.46959e-06
0
0
0
0
0
0
0
0
0
0
0
0
1.89384e-06
5.43046e-06
8.92913e-06
1.22493e-05
1.52362e-05
1.77303e-05
1.95896e-05
2.07187e-05
2.10867e-05
2.07197e-05
1.96765e-05
1.80439e-05
1.59771e-05
1.37832e-05
1.20203e-05
1.14501e-05
1.24887e-05
1.47212e-05
1.73949e-05
1.99371e-05
2.20261e-05
2.35383e-05
2.44899e-05
2.49737e-05
2.50978e-05
2.4945e-05
2.45604e-05
2.39613e-05
2.3151e-05
2.21262e-05
2.08808e-05
1.94136e-05
1.77513e-05
1.59881e-05
1.43311e-05
1.3105e-05
1.26201e-05
1.29116e-05
1.36489e-05
1.43625e-05
1.46749e-05
1.43619e-05
1.33199e-05
1.15312e-05
9.08273e-06
6.19484e-06
3.23999e-06
6.99631e-07
0
0
4.37907e-07
4.85714e-06
1.26177e-05
1.94003e-05
0
0
0
0
0
0
0
9.40051e-06
0
0
0
0
0
0
0
0
0
0
0
0
1.93791e-09
1.54228e-06
3.18405e-06
4.859e-06
6.48709e-06
7.98047e-06
9.24548e-06
1.01838e-05
1.06918e-05
1.06566e-05
9.95182e-06
8.43907e-06
5.99197e-06
2.58345e-06
0
0
0
0
0
0
0
0
0
0
0
0
1.94788e-06
5.11305e-06
8.27176e-06
1.13016e-05
1.4057e-05
1.6378e-05
1.81136e-05
1.91559e-05
1.94625e-05
1.90536e-05
1.79933e-05
1.63901e-05
1.44374e-05
1.24947e-05
1.11695e-05
1.11701e-05
1.26882e-05
1.51857e-05
1.7973e-05
2.05565e-05
2.26575e-05
2.41718e-05
2.51216e-05
2.5597e-05
2.56993e-05
2.55043e-05
2.50552e-05
2.43731e-05
2.34691e-05
2.23503e-05
2.1022e-05
1.94953e-05
1.78104e-05
1.60773e-05
1.45186e-05
1.34605e-05
1.31783e-05
1.36463e-05
1.45002e-05
1.52753e-05
1.56072e-05
1.52758e-05
1.41725e-05
1.22804e-05
9.69234e-06
6.65674e-06
3.59012e-06
1.0181e-06
0
0
9.98832e-07
5.37098e-06
1.31417e-05
2.10832e-05
0
0
0
0
0
0
0
1.37436e-05
0
0
0
0
0
0
0
0
0
0
0
0
2.13794e-07
1.5396e-06
2.95856e-06
4.4134e-06
5.83756e-06
7.15824e-06
8.29788e-06
9.17481e-06
9.70142e-06
9.77841e-06
9.2848e-06
8.06871e-06
5.95258e-06
2.81192e-06
0
0
0
0
0
0
0
0
0
0
0
0
1.97125e-06
4.74834e-06
7.54525e-06
1.02561e-05
1.27454e-05
1.48549e-05
1.6429e-05
1.73519e-05
1.75753e-05
1.71195e-05
1.60601e-05
1.45302e-05
1.27602e-05
1.11554e-05
1.0346e-05
1.09197e-05
1.28425e-05
1.55313e-05
1.83826e-05
2.09733e-05
2.30599e-05
2.45532e-05
2.5479e-05
2.59238e-05
2.59822e-05
2.57252e-05
2.51962e-05
2.44212e-05
2.34206e-05
2.22124e-05
2.08144e-05
1.92509e-05
1.75759e-05
1.59123e-05
1.44905e-05
1.3626e-05
1.35498e-05
1.41813e-05
1.51363e-05
1.59606e-05
1.63018e-05
1.59424e-05
1.47703e-05
1.27698e-05
1.00468e-05
6.87899e-06
3.72565e-06
1.15374e-06
0
0
1.45029e-06
5.7581e-06
1.34375e-05
2.21138e-05
0
0
0
0
0
0
4.16263e-06
1.7632e-05
1.91807e-07
0
0
0
0
0
0
0
0
0
0
0
3.88232e-07
1.50357e-06
2.70548e-06
3.94634e-06
5.17164e-06
6.32214e-06
7.33534e-06
8.14608e-06
8.68455e-06
8.86988e-06
8.59679e-06
7.71527e-06
6.00723e-06
3.22146e-06
0
0
0
0
0
0
0
0
0
0
0
0
1.93848e-06
4.29559e-06
6.68736e-06
9.02552e-06
1.11898e-05
1.30328e-05
1.44031e-05
1.51838e-05
1.53241e-05
1.48473e-05
1.38406e-05
1.24593e-05
1.09645e-05
9.79493e-06
9.55982e-06
1.06651e-05
1.28992e-05
1.57059e-05
1.85739e-05
2.11379e-05
2.3182e-05
2.46281e-05
2.55043e-05
2.58936e-05
2.58857e-05
2.5549e-05
2.49286e-05
2.40564e-05
2.29617e-05
2.16739e-05
2.0224e-05
1.86505e-05
1.70202e-05
1.54637e-05
1.42083e-05
1.35441e-05
1.36535e-05
1.44157e-05
1.54432e-05
1.62974e-05
1.66359e-05
1.62424e-05
1.50067e-05
1.29246e-05
1.01281e-05
6.92729e-06
3.81143e-06
1.36424e-06
9.18092e-08
2.83327e-07
2.16683e-06
6.35806e-06
1.37705e-05
2.28455e-05
3.44375e-06
0
0
0
0
0
1.1698e-05
2.10493e-05
1.31638e-06
0
0
0
0
0
0
0
0
0
0
0
4.76181e-07
1.39329e-06
2.39067e-06
3.42935e-06
4.46521e-06
5.45097e-06
6.33778e-06
7.07622e-06
7.61511e-06
7.89622e-06
7.8415e-06
7.32775e-06
6.13495e-06
3.88521e-06
1.79855e-07
0
0
0
0
0
0
0
0
0
0
2.17333e-10
1.80393e-06
3.68744e-06
5.60847e-06
7.50209e-06
9.27389e-06
1.07996e-05
1.19421e-05
1.25863e-05
1.26772e-05
1.22365e-05
1.13589e-05
1.02164e-05
9.09393e-06
8.44464e-06
8.79744e-06
1.03486e-05
1.27928e-05
1.56492e-05
1.84896e-05
2.09929e-05
2.29625e-05
2.43287e-05
2.51219e-05
2.54246e-05
2.53255e-05
2.48944e-05
2.418e-05
2.32208e-05
2.20537e-05
2.07182e-05
1.92577e-05
1.77231e-05
1.61893e-05
1.47862e-05
1.37237e-05
1.32545e-05
1.35156e-05
1.43648e-05
1.5425e-05
1.62723e-05
1.6567e-05
1.60919e-05
1.47477e-05
1.25607e-05
9.70654e-06
6.5321e-06
3.53828e-06
1.28909e-06
2.45285e-07
6.17327e-07
2.51343e-06
6.40436e-06
1.31607e-05
2.17518e-05
1.03485e-05
0
0
0
0
0
1.88742e-05
2.433e-05
2.56201e-06
3.51101e-07
0
0
0
0
0
0
0
0
0
0
5.50274e-07
1.27575e-06
2.07739e-06
2.9234e-06
3.77819e-06
4.6043e-06
5.36433e-06
6.02247e-06
6.5446e-06
6.89583e-06
7.03283e-06
6.88404e-06
6.29984e-06
4.88365e-06
1.65468e-06
0
0
0
0
0
0
0
0
0
0
2.26271e-07
1.52653e-06
2.88848e-06
4.2912e-06
5.69879e-06
7.05072e-06
8.25381e-06
9.18757e-06
9.73399e-06
9.82439e-06
9.47284e-06
8.78042e-06
7.93574e-06
7.24419e-06
7.1454e-06
8.02755e-06
9.90235e-06
1.24577e-05
1.53032e-05
1.80765e-05
2.0488e-05
2.23553e-05
2.36148e-05
2.43003e-05
2.44965e-05
2.42948e-05
2.37693e-05
2.29736e-05
2.19521e-05
2.07481e-05
1.94098e-05
1.79911e-05
1.65528e-05
1.51729e-05
1.39706e-05
1.31257e-05
1.28465e-05
1.3235e-05
1.41501e-05
1.52387e-05
1.60896e-05
1.63631e-05
1.58391e-05
1.4434e-05
1.22106e-05
9.38421e-06
6.3204e-06
3.50457e-06
1.45773e-06
5.87777e-07
1.04408e-06
2.84449e-06
6.32366e-06
1.2287e-05
2.01966e-05
1.51035e-05
0
0
0
0
0
2.55091e-05
2.70122e-05
3.61196e-06
1.35994e-06
5.83931e-07
1.89984e-07
0
0
0
0
0
0
0
4.67203e-08
5.06338e-07
1.05899e-06
1.68385e-06
2.35499e-06
3.04367e-06
3.72026e-06
4.35642e-06
4.92711e-06
5.41208e-06
5.79636e-06
6.07096e-06
6.22554e-06
6.25629e-06
6.05197e-06
4.36727e-06
0
0
0
0
0
0
0
0
0
0
3.1948e-07
1.15667e-06
2.05437e-06
3.01166e-06
4.01839e-06
5.04218e-06
6.0112e-06
6.80621e-06
7.28861e-06
7.36921e-06
7.06587e-06
6.5056e-06
5.90827e-06
5.59888e-06
5.96599e-06
7.226e-06
9.27704e-06
1.18517e-05
1.46334e-05
1.73011e-05
1.95844e-05
2.13108e-05
2.2425e-05
2.29701e-05
2.30402e-05
2.27357e-05
2.21391e-05
2.13099e-05
2.02965e-05
1.91435e-05
1.79012e-05
1.66269e-05
1.53841e-05
1.42473e-05
1.33185e-05
1.27427e-05
1.26876e-05
1.32339e-05
1.42495e-05
1.53911e-05
1.62288e-05
1.64015e-05
1.56958e-05
1.40737e-05
1.16671e-05
8.74631e-06
5.68437e-06
2.9226e-06
9.12229e-07
1.04165e-09
3.02083e-07
1.79028e-06
4.72382e-06
9.89522e-06