/*--------------------------------*- C++ -*----------------------------------*\
  =========                 |
  \\      /  F ield         | OpenFOAM: The Open Source CFD Toolbox
   \\    /   O peration     | Website:  https://openfoam.org
    \\  /    A nd           | Version:  10
     \\/     M anipulation  |
\*---------------------------------------------------------------------------*/
FoamFile
{
    format      ascii;
    class       volScalarField;
    location    "0.09";
    object      p;
}
// * * * * * * * * * * * * * * * * * * * * * * * * * * * * * * * * * * * * * //

dimensions      [0 2 -2 0 0 0 0];

internalField   nonuniform List<scalar> 
6820
(
-9.37899
-9.68002
-9.72169
-9.73109
-9.7549
-9.76937
-9.77471
-9.77528
-9.77129
-9.76243
-9.74874
-9.73007
-9.70612
-9.67643
-9.6405
-9.5977
-9.5473
-9.48852
-9.42049
-9.34234
-9.25326
-9.1526
-9.04011
-8.91615
-8.78211
-8.64088
-8.49744
-8.35938
-8.23757
-8.14448
-8.09958
-8.1034
-8.20888
-9.58129
-9.70481
-9.7372
-9.74668
-9.76483
-9.77641
-9.78039
-9.78011
-9.77572
-9.7668
-9.75328
-9.73502
-9.71168
-9.68285
-9.64802
-9.60662
-9.55799
-9.50138
-9.43602
-9.3611
-9.27586
-9.17971
-9.07234
-8.95398
-8.82571
-8.68991
-8.55079
-8.41493
-8.29194
-8.19374
-8.13596
-8.12455
-8.16745
-9.58162
-9.66549
-9.71988
-9.74053
-9.761
-9.7755
-9.78211
-9.78371
-9.78089
-9.7734
-9.76129
-9.74448
-9.72274
-9.69576
-9.66315
-9.62448
-9.57926
-9.52699
-9.46717
-9.39934
-9.32318
-9.23859
-9.14581
-9.04562
-8.93949
-8.82987
-8.7204
-8.61592
-8.52268
-8.44696
-8.39466
-8.36377
-8.33736
-9.63944
-9.70787
-9.75192
-9.76635
-9.78048
-9.79114
-9.7953
-9.79501
-9.79083
-9.78249
-9.7699
-9.75297
-9.73144
-9.70502
-9.67335
-9.63605
-9.59272
-9.54294
-9.48635
-9.42266
-9.35174
-9.27372
-9.1891
-9.09891
-9.00486
-8.90953
-8.81645
-8.72997
-8.65504
-8.59596
-8.55511
-8.52881
-8.50259
-9.67068
-9.70814
-9.74335
-9.76068
-9.77618
-9.78834
-9.79441
-9.79588
-9.79337
-9.78666
-9.77572
-9.76049
-9.74079
-9.71641
-9.68708
-9.65252
-9.61243
-9.56655
-9.51467
-9.4567
-9.39273
-9.32308
-9.24846
-9.17004
-9.08956
-9.00939
-8.93258
-8.86264
-8.80319
-8.75692
-8.72453
-8.70264
-8.68097
-9.70218
-9.73162
-9.76528
-9.7832
-9.79642
-9.80635
-9.811
-9.81128
-9.80787
-9.80067
-9.78959
-9.77457
-9.75547
-9.73208
-9.7042
-9.67161
-9.6341
-9.59152
-9.54377
-9.4909
-9.43314
-9.37097
-9.3052
-9.23707
-9.16829
-9.10105
-9.038
-8.98204
-8.93587
-8.90133
-8.87847
-8.8647
-8.85288
-9.7292
-9.7479
-9.77297
-9.78779
-9.79901
-9.8081
-9.81308
-9.81424
-9.81193
-9.80604
-9.79647
-9.78318
-9.76606
-9.74496
-9.71974
-9.69026
-9.65642
-9.61817
-9.57555
-9.52876
-9.47816
-9.42435
-9.36827
-9.31116
-9.25469
-9.20085
-9.15193
-9.11028
-9.078
-9.05643
-9.04555
-9.04377
-9.04715
-9.75385
-9.76725
-9.78885
-9.80397
-9.8152
-9.82394
-9.82881
-9.8299
-9.82764
-9.822
-9.81295
-9.80046
-9.78448
-9.76491
-9.74168
-9.71472
-9.68402
-9.64962
-9.61168
-9.57049
-9.52652
-9.48048
-9.43333
-9.38634
-9.34107
-9.29937
-9.26325
-9.23471
-9.21554
-9.2069
-9.20915
-9.22171
-9.24336
-9.7767
-9.78606
-9.80291
-9.81558
-9.82487
-9.83217
-9.83644
-9.83751
-9.83567
-9.83089
-9.82307
-9.81217
-9.79815
-9.78094
-9.76051
-9.73687
-9.71008
-9.68027
-9.64769
-9.61272
-9.57592
-9.53806
-9.50014
-9.4634
-9.42935
-9.39966
-9.37613
-9.36054
-9.35447
-9.35911
-9.37524
-9.40308
-9.44333
-9.79823
-9.80501
-9.8187
-9.83029
-9.83922
-9.84635
-9.85087
-9.85253
-9.85142
-9.84754
-9.84083
-9.8313
-9.81896
-9.80381
-9.78588
-9.76525
-9.74205
-9.7165
-9.68893
-9.6598
-9.62972
-9.59952
-9.57019
-9.54297
-9.51927
-9.50064
-9.48873
-9.48516
-9.49144
-9.50883
-9.53852
-9.58131
-9.63915
-9.81884
-9.82385
-9.83479
-9.84474
-9.85253
-9.85874
-9.86282
-9.86441
-9.86362
-9.86045
-9.85486
-9.84687
-9.83647
-9.82371
-9.80867
-9.79145
-9.77226
-9.75138
-9.72918
-9.70619
-9.68306
-9.66064
-9.63993
-9.62212
-9.60853
-9.60062
-9.59992
-9.60793
-9.62613
-9.65587
-9.6986
-9.75551
-9.82917
-9.83879
-9.84259
-9.85146
-9.8602
-9.86742
-9.87339
-9.87764
-9.87982
-9.8799
-9.87789
-9.87374
-9.86747
-9.85914
-9.84881
-9.83663
-9.82276
-9.80746
-9.79105
-9.77399
-9.75683
-9.74026
-9.72513
-9.71244
-9.70332
-9.69904
-9.70096
-9.7105
-9.72909
-9.75819
-9.79919
-9.85368
-9.92306
-10.0101
-9.85829
-9.86126
-9.86851
-9.87613
-9.88267
-9.8882
-9.89233
-9.89473
-9.89536
-9.89422
-9.8913
-9.88665
-9.88034
-9.87248
-9.86323
-9.85281
-9.84151
-9.82969
-9.81784
-9.80654
-9.79649
-9.78854
-9.78364
-9.78289
-9.78748
-9.79867
-9.81781
-9.84626
-9.88541
-9.93665
-10.0016
-10.0817
-10.1797
-9.87749
-9.87987
-9.88591
-9.89263
-9.89872
-9.90408
-9.90841
-9.91137
-9.9129
-9.91298
-9.91162
-9.90885
-9.90478
-9.89954
-9.89333
-9.88639
-9.87906
-9.87173
-9.8649
-9.85918
-9.85529
-9.85403
-9.85635
-9.86327
-9.87592
-9.89548
-9.9232
-9.96036
-10.0083
-10.0683
-10.142
-10.2307
-10.337
-9.8965
-9.89848
-9.9036
-9.90962
-9.91533
-9.92057
-9.92504
-9.92848
-9.93078
-9.93194
-9.93198
-9.93098
-9.92904
-9.92633
-9.92308
-9.91955
-9.9161
-9.91316
-9.91123
-9.91092
-9.91292
-9.91803
-9.92715
-9.94123
-9.96132
-9.98853
-10.024
-10.0689
-10.1245
-10.1919
-10.2727
-10.368
-10.4801
-9.9154
-9.91709
-9.92156
-9.92704
-9.93252
-9.93777
-9.94255
-9.94662
-9.94987
-9.95229
-9.95393
-9.95486
-9.9552
-9.95515
-9.95492
-9.95483
-9.95523
-9.95656
-9.95933
-9.96414
-9.97167
-9.98268
-9.998
-10.0185
-10.0453
-10.0792
-10.1213
-10.1727
-10.2346
-10.3079
-10.394
-10.4938
-10.6093
-9.93424
-9.93574
-9.93976
-9.94487
-9.95021
-9.95557
-9.96071
-9.96541
-9.9696
-9.97325
-9.97642
-9.9792
-9.98174
-9.98422
-9.9869
-9.99009
-9.99416
-9.99955
-10.0068
-10.0164
-10.029
-10.0455
-10.0665
-10.0928
-10.1254
-10.1652
-10.213
-10.2699
-10.3368
-10.4146
-10.5044
-10.6069
-10.7237
-9.95306
-9.95444
-9.95815
-9.96303
-9.96836
-9.97391
-9.9795
-9.98494
-9.99013
-9.9951
-9.99988
-10.0046
-10.0094
-10.0144
-10.02
-10.0264
-10.034
-10.0433
-10.0547
-10.0688
-10.0862
-10.1076
-10.1336
-10.1651
-10.2027
-10.2474
-10.2999
-10.361
-10.4316
-10.5124
-10.6043
-10.7078
-10.8242
-9.97187
-9.97317
-9.97671
-9.98149
-9.98689
-9.99273
-9.99884
-10.005
-10.0113
-10.0175
-10.0239
-10.0305
-10.0374
-10.0449
-10.0532
-10.0627
-10.0737
-10.0866
-10.1019
-10.12
-10.1417
-10.1674
-10.1979
-10.2338
-10.2757
-10.3244
-10.3806
-10.4449
-10.518
-10.6006
-10.6932
-10.7963
-10.9106
-9.99066
-9.99193
-9.9954
-10.0002
-10.0057
-10.0119
-10.0186
-10.0256
-10.0329
-10.0405
-10.0485
-10.0569
-10.066
-10.0759
-10.0869
-10.0993
-10.1134
-10.1297
-10.1485
-10.1704
-10.1959
-10.2255
-10.2597
-10.2993
-10.3447
-10.3966
-10.4555
-10.5219
-10.5965
-10.6795
-10.7716
-10.8729
-10.9841
-10.0094
-10.0107
-10.0142
-10.019
-10.0249
-10.0315
-10.0388
-10.0466
-10.055
-10.0639
-10.0735
-10.0837
-10.0948
-10.107
-10.1205
-10.1356
-10.1526
-10.1719
-10.194
-10.2192
-10.248
-10.2809
-10.3183
-10.3609
-10.409
-10.4632
-10.5239
-10.5916
-10.6666
-10.7492
-10.8397
-10.9382
-11.0451
-10.0281
-10.0294
-10.033
-10.038
-10.0441
-10.0512
-10.0592
-10.0679
-10.0774
-10.0876
-10.0987
-10.1106
-10.1237
-10.138
-10.1538
-10.1715
-10.1912
-10.2133
-10.2382
-10.2663
-10.2979
-10.3336
-10.3736
-10.4185
-10.4686
-10.5244
-10.5861
-10.6541
-10.7286
-10.8098
-10.8979
-10.9928
-11.0947
-10.0467
-10.048
-10.0517
-10.057
-10.0635
-10.0711
-10.0797
-10.0894
-10.0999
-10.1114
-10.124
-10.1376
-10.1525
-10.1689
-10.1869
-10.2068
-10.2289
-10.2535
-10.2809
-10.3115
-10.3455
-10.3834
-10.4255
-10.4721
-10.5235
-10.5801
-10.6421
-10.7096
-10.7829
-10.862
-10.947
-11.0377
-11.1341
-10.0651
-10.0665
-10.0703
-10.0759
-10.0828
-10.0909
-10.1003
-10.1108
-10.1224
-10.1352
-10.1491
-10.1643
-10.1809
-10.1992
-10.2191
-10.2411
-10.2654
-10.2921
-10.3216
-10.3542
-10.3902
-10.4298
-10.4733
-10.521
-10.5732
-10.63
-10.6915
-10.758
-10.8295
-10.9058
-10.9871
-11.0731
-11.1638
-10.0833
-10.0847
-10.0888
-10.0946
-10.1019
-10.1107
-10.1208
-10.1322
-10.1449
-10.1588
-10.1741
-10.1908
-10.2091
-10.229
-10.2508
-10.2746
-10.3007
-10.3293
-10.3606
-10.3949
-10.4324
-10.4733
-10.5178
-10.5661
-10.6184
-10.6749
-10.7355
-10.8004
-10.8695
-10.9427
-11.02
-11.1011
-11.1858
-10.1011
-10.1026
-10.1069
-10.1131
-10.1208
-10.1302
-10.141
-10.1533
-10.1669
-10.182
-10.1985
-10.2166
-10.2363
-10.2577
-10.2811
-10.3065
-10.3342
-10.3643
-10.397
-10.4325
-10.4711
-10.5128
-10.5578
-10.6063
-10.6583
-10.7139
-10.7731
-10.8359
-10.9023
-10.972
-11.045
-11.121
-11.1997
-10.1184
-10.12
-10.1245
-10.1311
-10.1394
-10.1493
-10.1609
-10.1741
-10.1887
-10.2049
-10.2227
-10.242
-10.263
-10.2859
-10.3106
-10.3375
-10.3665
-10.3979
-10.4317
-10.4683
-10.5075
-10.5497
-10.5948
-10.643
-10.6943
-10.7487
-10.8062
-10.8667
-10.9301
-10.9962
-11.0648
-11.1356
-11.2085
-10.1352
-10.1369
-10.1416
-10.1486
-10.1573
-10.1679
-10.1801
-10.1941
-10.2096
-10.2267
-10.2455
-10.2659
-10.2881
-10.3121
-10.338
-10.366
-10.3961
-10.4284
-10.4631
-10.5002
-10.5398
-10.5821
-10.627
-10.6745
-10.7248
-10.7776
-10.8331
-10.8909
-10.9511
-11.0134
-11.0776
-11.1434
-11.2106
-10.1512
-10.153
-10.1581
-10.1654
-10.1747
-10.186
-10.199
-10.2138
-10.2303
-10.2484
-10.2682
-10.2898
-10.313
-10.3381
-10.3651
-10.394
-10.4249
-10.458
-10.4932
-10.5307
-10.5705
-10.6125
-10.6569
-10.7036
-10.7526
-10.8037
-10.8569
-10.9121
-10.969
-11.0276
-11.0874
-11.1484
-11.2102
-10.1663
-10.1682
-10.1735
-10.1813
-10.191
-10.2027
-10.2164
-10.2318
-10.249
-10.268
-10.2886
-10.311
-10.3351
-10.361
-10.3888
-10.4184
-10.45
-10.4835
-10.5191
-10.5566
-10.5962
-10.6379
-10.6815
-10.7271
-10.7745
-10.8237
-10.8746
-10.9269
-10.9806
-11.0354
-11.0911
-11.1473
-11.204
-10.1803
-10.1824
-10.1881
-10.1965
-10.2069
-10.2194
-10.2339
-10.2502
-10.2683
-10.2881
-10.3096
-10.3328
-10.3578
-10.3845
-10.4129
-10.4431
-10.4752
-10.509
-10.5446
-10.5821
-10.6214
-10.6624
-10.7051
-10.7494
-10.7952
-10.8425
-10.891
-10.9406
-10.9911
-11.0423
-11.0941
-11.146
-11.198
-10.1929
-10.195
-10.201
-10.2096
-10.2204
-10.2333
-10.2483
-10.2652
-10.2839
-10.3043
-10.3265
-10.3504
-10.376
-10.4033
-10.4323
-10.4629
-10.4952
-10.5292
-10.5648
-10.602
-10.6408
-10.681
-10.7227
-10.7657
-10.8098
-10.855
-10.9012
-10.948
-10.9954
-11.0432
-11.0911
-11.139
-11.1866
-10.2042
-10.2067
-10.2135
-10.2231
-10.2348
-10.2486
-10.2644
-10.2821
-10.3015
-10.3227
-10.3455
-10.37
-10.3961
-10.4239
-10.4532
-10.484
-10.5165
-10.5504
-10.5858
-10.6226
-10.6607
-10.7001
-10.7407
-10.7823
-10.8248
-10.868
-10.912
-10.9563
-11.0009
-11.0456
-11.0902
-11.1344
-11.1781
-10.213
-10.2152
-10.222
-10.2317
-10.2437
-10.258
-10.2744
-10.2927
-10.3128
-10.3346
-10.3581
-10.3832
-10.4099
-10.4381
-10.4678
-10.499
-10.5315
-10.5654
-10.6006
-10.6369
-10.6744
-10.7129
-10.7523
-10.7925
-10.8333
-10.8747
-10.9163
-10.9582
-11
-11.0417
-11.083
-11.1238
-11.164
-10.2208
-10.2246
-10.2331
-10.2442
-10.2572
-10.2723
-10.2893
-10.3082
-10.3287
-10.3509
-10.3747
-10.4
-10.4269
-10.4552
-10.4849
-10.516
-10.5484
-10.582
-10.6167
-10.6526
-10.6894
-10.727
-10.7653
-10.8043
-10.8437
-10.8834
-10.9233
-10.9631
-11.0028
-11.0421
-11.0808
-11.1189
-11.1561
-10.2224
-10.2249
-10.2337
-10.2454
-10.2593
-10.2754
-10.2936
-10.3135
-10.335
-10.3581
-10.3827
-10.4088
-10.4362
-10.465
-10.4951
-10.5264
-10.5589
-10.5924
-10.6268
-10.6622
-10.6982
-10.735
-10.7722
-10.8098
-10.8476
-10.8855
-10.9234
-10.961
-10.9983
-11.035
-11.071
-11.1063
-11.1406
-10.2287
-10.2353
-10.2462
-10.2587
-10.2729
-10.2886
-10.3068
-10.3266
-10.3479
-10.3708
-10.3953
-10.4211
-10.4484
-10.4771
-10.507
-10.5381
-10.5703
-10.6035
-10.6376
-10.6725
-10.7081
-10.7442
-10.7808
-10.8177
-10.8546
-10.8916
-10.9284
-10.9648
-11.0008
-11.0361
-11.0707
-11.1043
-11.1368
-10.212
-10.2179
-10.2331
-10.2491
-10.2664
-10.286
-10.3063
-10.3277
-10.3506
-10.3748
-10.4003
-10.427
-10.4549
-10.484
-10.5142
-10.5454
-10.5776
-10.6105
-10.6442
-10.6785
-10.7133
-10.7485
-10.7839
-10.8194
-10.8548
-10.8901
-10.925
-10.9594
-10.9933
-11.0263
-11.0586
-11.0898
-11.12
-10.2266
-10.2376
-10.251
-10.2638
-10.2791
-10.2963
-10.3148
-10.3351
-10.357
-10.3804
-10.4053
-10.4317
-10.4593
-10.4883
-10.5184
-10.5495
-10.5817
-10.6148
-10.6486
-10.683
-10.718
-10.7533
-10.7889
-10.8246
-10.8602
-10.8956
-10.9307
-10.9652
-10.9992
-11.0323
-11.0644
-11.0955
-11.1254
-10.1327
-10.2008
-10.2297
-10.2477
-10.2701
-10.2927
-10.3146
-10.3372
-10.3609
-10.3855
-10.4113
-10.4381
-10.466
-10.495
-10.5249
-10.5558
-10.5874
-10.6198
-10.6527
-10.6862
-10.72
-10.754
-10.788
-10.8221
-10.8559
-10.8894
-10.9225
-10.9549
-10.9866
-11.0175
-11.0475
-11.0764
-11.1041
-8.27334
-7.73835
-7.19787
-6.95899
-6.34914
-6.76931
-8.63053
-11.8824
-16.4306
-21.968
-28.0198
-34.0025
-39.2754
-43.1257
-44.8418
-44.0445
-40.908
-36.1969
-30.6936
-24.7764
-18.5718
-12.4361
-7.02541
-2.80993
0.146125
1.97182
2.73499
2.41279
0.74285
-2.66002
-8.03252
-15.1129
-23.1219
-31.1394
-38.4512
-44.5984
-49.2687
-52.1791
-53.1236
-51.95
-48.7865
-43.9696
-38.0348
-31.6279
-25.4
-19.8135
-15.0779
-11.2111
-8.13457
-5.73781
-3.90687
-2.53488
-1.52726
-0.804258
-0.300422
0.0374691
0.252719
0.380378
0.447942
0.475992
0.479078
0.466881
0.445569
0.419034
0.3898
0.359556
0.329455
0.300258
0.272444
0.246285
0.221925
0.199416
0.178762
0.159924
0.142833
0.127393
0.113493
0.100998
0.0897703
0.0796699
0.0705872
0.0624326
0.055168
0.04875
0.0431213
0.0381823
0.0338064
0.0298682
0.0262294
0.0228421
0.0195894
0.0166772
0.0137837
0.0116628
0.00889507
0.00828621
0.00406501
0.00743691
-0.00408791
0.0139321
-8.16876
-7.8678
-7.32856
-6.27844
-5.70375
-6.59931
-8.69053
-11.8094
-16.0322
-21.1442
-26.7128
-32.1836
-36.9608
-40.4108
-41.9291
-41.2396
-38.5206
-34.352
-29.2807
-23.6382
-17.711
-11.9875
-7.02862
-3.15581
-0.40239
1.3155
2.02364
1.6917
0.114197
-3.01107
-7.89284
-14.3464
-21.7299
-29.2216
-36.1346
-41.9831
-46.4267
-49.1866
-50.0746
-48.9721
-46.0083
-41.5139
-36.0085
-30.1157
-24.4087
-19.266
-14.8556
-11.2027
-8.25654
-5.93324
-4.13789
-2.77675
-1.76452
-1.02786
-0.505506
-0.146906
0.0894477
0.237355
0.323592
0.368346
0.386059
0.386527
0.376144
0.359052
0.337991
0.314831
0.290865
0.266979
0.243757
0.221569
0.200641
0.181101
0.163016
0.146401
0.131237
0.117471
0.105027
0.0938051
0.0836943
0.0745731
0.0663429
0.0589193
0.0522489
0.0463125
0.041067
0.0364367
0.0323173
0.0286028
0.0251693
0.0219736
0.018894
0.0161262
0.0133606
0.0113276
0.00866536
0.00807253
0.00401654
0.00721186
-0.00380975
0.0133677
-8.27037
-7.94563
-7.36811
-6.76019
-6.47408
-6.98858
-8.79236
-11.9051
-15.9228
-20.5622
-25.5513
-30.4445
-34.7039
-37.7516
-39.0964
-38.5498
-36.2358
-32.5127
-27.7737
-22.4014
-16.8422
-11.6057
-7.10965
-3.56677
-1.01008
0.597747
1.25313
0.915512
-0.574984
-3.44362
-7.85945
-13.6922
-20.4256
-27.3449
-33.8009
-39.3045
-43.4978
-46.0987
-46.9377
-45.9222
-43.1812
-39.0406
-34.0055
-28.6503
-23.4588
-18.7378
-14.6334
-11.1849
-8.36739
-6.11938
-4.3624
-3.01481
-2.00025
-1.25166
-0.712017
-0.333543
-0.076571
0.0913884
0.196253
0.257796
0.290316
0.303682
0.304482
0.297083
0.284431
0.268567
0.25093
0.232524
0.214045
0.195958
0.178577
0.162105
0.146674
0.132354
0.119173
0.107119
0.0961526
0.0862024
0.077188
0.0690174
0.0616171
0.0549265
0.0489177
0.043564
0.0388234
0.0346216
0.0308588
0.027437
0.024243
0.0212414
0.0183274
0.0156953
0.0130427
0.0110743
0.00849321
0.00788937
0.00399181
0.00699187
-0.00350867
0.0127775
-8.44599
-8.23946
-7.90617
-7.52407
-7.31937
-7.86549
-9.54644
-12.2915
-15.9463
-20.2038
-24.6707
-28.9661
-32.6699
-35.3328
-36.5673
-36.1568
-34.1023
-30.6323
-26.1375
-21.1028
-16.0243
-11.315
-7.26369
-4.02938
-1.66438
-0.170191
0.431416
0.0944041
-1.31142
-3.94409
-7.92552
-13.1574
-19.2315
-25.5453
-31.5014
-36.6206
-40.5391
-42.9741
-43.7742
-42.8592
-40.3632
-36.6114
-32.0782
-27.2607
-22.5579
-18.2272
-14.408
-11.1558
-8.46632
-6.29569
-4.5798
-3.2484
-2.23381
-1.47512
-0.919512
-0.522084
-0.245096
-0.0573838
0.066036
0.144419
0.191899
0.21838
0.230607
0.233145
0.229133
0.220777
0.209655
0.196899
0.183311
0.169457
0.155739
0.142438
0.129751
0.117808
0.106687
0.0964203
0.0870064
0.0784096
0.0705785
0.063444
0.056948
0.0510406
0.0456897
0.04088
0.0365823
0.032742
0.0292791
0.0261132
0.0231464
0.0203505
0.0176186
0.0151361
0.012616
0.0107377
0.00826738
0.00767291
0.00395931
0.00676229
-0.00319452
0.0121539
-8.64023
-8.52108
-8.34541
-8.19542
-8.26178
-8.90293
-10.4108
-12.8508
-16.1096
-19.9184
-23.9297
-27.7568
-31.0107
-33.3532
-34.4227
-33.9458
-31.9085
-28.579
-24.3923
-19.8322
-15.3079
-11.117
-7.47632
-4.53171
-2.35651
-0.978986
-0.432763
-0.76264
-2.0803
-4.49455
-8.07958
-12.7485
-18.177
-23.8687
-29.2953
-33.999
-37.6206
-39.8848
-40.6469
-39.845
-37.622
-34.2889
-30.2627
-25.9575
-21.7043
-17.7313
-14.1792
-11.1164
-8.55383
-6.46202
-4.78961
-3.477
-2.46469
-1.69775
-1.12758
-0.712158
-0.415797
-0.208724
-0.0668952
0.0283584
0.0909256
0.130709
0.154581
0.167284
0.172129
0.171482
0.16706
0.160116
0.151564
0.142071
0.132128
0.122094
0.112237
0.102744
0.0937447
0.0853147
0.0774902
0.0702689
0.0636278
0.0575251
0.0519262
0.0468028
0.0421438
0.0379379
0.0341608
0.0307639
0.0276739
0.0248191
0.0221114
0.0195297
0.0169808
0.0146483
0.0122558
0.0104534
0.00807817
0.00747359
0.00393708
0.0065332
-0.00285776
0.0114967
-8.83421
-8.78189
-8.72206
-8.74187
-8.99497
-9.71265
-11.1012
-13.2468
-16.1004
-19.465
-23.0295
-26.4276
-29.2954
-31.2723
-32.013
-31.3853
-29.4218
-26.3888
-22.6825
-18.6909
-14.719
-11.002
-7.73425
-5.06257
-3.07411
-1.81333
-1.32196
-1.64214
-2.86778
-5.07662
-8.30409
-12.4622
-17.2832
-22.3602
-27.241
-31.5072
-34.8151
-36.9015
-37.6306
-36.9626
-35.0363
-32.1268
-28.5817
-24.7427
-20.8939
-17.248
-13.9469
-11.0671
-8.6301
-6.61823
-4.9915
-3.70012
-2.69237
-1.91907
-1.33576
-0.903397
-0.588358
-0.362362
-0.202352
-0.0902633
-0.0125139
0.0407435
0.0764694
0.0995516
0.113463
0.120719
0.123171
0.122196
0.11882
0.113811
0.107752
0.101084
0.0941424
0.0871774
0.0803704
0.073843
0.067672
0.0618902
0.0565044
0.0514988
0.0468576
0.0425663
0.038618
0.0350095
0.0317266
0.0287381
0.0259882
0.0234212
0.020964
0.0186034
0.0162485
0.0140748
0.011823
0.0101144
0.00785621
0.00725626
0.00391366
0.00629587
-0.00250098
0.0108005
-9.05419
-9.06058
-9.09265
-9.22399
-9.57598
-10.3216
-11.6103
-13.494
-15.9312
-18.785
-21.8177
-24.7143
-27.1274
-28.6987
-29.2469
-28.641
-26.9371
-24.3489
-21.1821
-17.732
-14.2495
-10.951
-8.02314
-5.60969
-3.80279
-2.65634
-2.21744
-2.52652
-3.65938
-5.6729
-8.57702
-12.28
-16.5509
-21.0498
-25.3943
-29.217
-32.2037
-34.1132
-34.8217
-34.3007
-32.6685
-30.1522
-27.0359
-23.6075
-20.1206
-16.7756
-13.7118
-11.0089
-8.69569
-6.76438
-5.18521
-3.91738
-2.91639
-2.1386
-1.54364
-1.09542
-0.762462
-0.518016
-0.340081
-0.211247
-0.118267
-0.0513965
-0.00363524
0.0300232
0.0531944
0.0685345
0.0780276
0.0831702
0.085102
0.0846951
0.0826246
0.0794138
0.07547
0.0711046
0.0665523
0.0619809
0.0575063
0.0531963
0.0490875
0.0451912
0.041514
0.0380608
0.0348435
0.0318687
0.02913
0.0266051
0.0242475
0.0220109
0.0198317
0.0177039
0.0155478
0.0135367
0.0114252
0.00980262
0.0076531
0.00704603
0.00389673
0.00604992
-0.00212099
0.010062
-9.2786
-9.33667
-9.44265
-9.65771
-10.0775
-10.8272
-12.0118
-13.6653
-15.7463
-18.1366
-20.6453
-23.0231
-24.9927
-26.2936
-26.7508
-26.2472
-24.8241
-22.642
-19.9308
-16.9317
-13.8695
-10.945
-8.3305
-6.16066
-4.52774
-3.49132
-3.10153
-3.39789
-4.44016
-6.26827
-8.87714
-12.1751
-15.9592
-19.9386
-23.7869
-27.1872
-29.8643
-31.6071
-32.2996
-31.9124
-30.5378
-28.3584
-25.6096
-22.5407
-19.3805
-16.3146
-13.4755
-10.943
-8.75111
-6.90059
-5.3706
-4.12843
-3.13632
-2.35591
-1.75079
-1.28785
-0.937782
-0.675419
-0.479857
-0.334392
-0.226163
-0.145579
-0.0856302
-0.0412209
-0.00861214
0.0149823
0.0316726
0.0430753
0.0504425
0.0547505
0.0567685
0.0571034
0.0562358
0.0545406
0.0523072
0.0497509
0.0470288
0.0442449
0.0414666
0.0387316
0.0360675
0.033495
0.0310353
0.0287044
0.0265057
0.0244311
0.0224505
0.0205324
0.0186273
0.0167374
0.0147884
0.0129472
0.0109863
0.00946251
0.00743729
0.00683079
0.00388652
0.005798
-0.00171208
0.00927947
-9.50518
-9.60663
-9.77014
-10.0454
-10.5059
-11.2423
-12.3289
-13.7875
-15.578
-17.5987
-19.6913
-21.6554
-23.2766
-24.3506
-24.7165
-24.2789
-23.0661
-21.1984
-18.8564
-16.2429
-13.5548
-10.9707
-8.64575
-6.7043
-5.23666
-4.30537
-3.96155
-4.24318
-5.19764
-6.85087
-9.18811
-12.1222
-15.475
-18.9963
-22.4042
-25.4245
-27.8193
-29.4044
-30.0693
-29.783
-28.616
-26.7165
-24.2837
-21.5344
-18.6724
-15.8662
-13.2395
-10.8703
-8.79697
-7.02709
-5.5476
-4.33302
-3.35181
-2.57057
-1.95681
-1.48032
-1.11399
-0.834284
-0.621434
-0.459493
-0.336034
-0.241658
-0.16939
-0.114074
-0.0718661
-0.0398621
-0.0158309
0.00196212
0.0148815
0.0240084
0.0302076
0.0341712
0.0364538
0.0374946
0.0376385
0.0371489
0.0362236
0.0350024
0.033583
0.0320299
0.0303932
0.0287128
0.0270263
0.0253632
0.0237373
0.02215
0.0205832
0.0190151
0.0174063
0.0157663
0.0140309
0.012364
0.0105551
0.00912615
0.00722279
0.0066102
0.0038762
0.00552922
-0.00128164
0.00844535
-9.72504
-9.86183
-10.0681
-10.3835
-10.8636
-11.574
-12.5664
-13.8534
-15.3985
-17.1158
-18.8742
-20.5096
-21.8455
-22.7136
-22.9872
-22.5942
-21.5492
-19.9425
-17.9187
-15.6465
-13.2944
-11.0196
-8.96077
-7.23209
-5.92042
-5.08883
-4.78782
-5.05329
-5.92286
-7.41194
-9.499
-12.1029
-15.069
-18.1823
-21.1995
-23.8819
-26.0205
-27.4522
-28.0758
-27.8613
-26.8626
-25.2016
-23.0469
-20.5858
-17.997
-15.4319
-13.0049
-10.7919
-8.83392
-7.1442
-5.71623
-4.53098
-3.56255
-2.78226
-2.16134
-1.67248
-1.29078
-0.994328
-0.764561
-0.586328
-0.447683
-0.339466
-0.254773
-0.188415
-0.136466
-0.0959129
-0.0644107
-0.0401087
-0.0215304
-0.00748902
0.00297663
0.0106451
0.0161465
0.0199859
0.0225645
0.0241946
0.0251158
0.0255043
0.0254888
0.0251608
0.0245924
0.0238407
0.0229557
0.0219785
0.0209334
0.0198342
0.0186781
0.0174572
0.0161455
0.0147607
0.0132461
0.011761
0.0101135
0.00878861
0.00701763
0.00640044
0.00388689
0.00526262
-0.000816993
0.00756338
-9.93555
-10.0999
-10.3362
-10.6753
-11.1592
-11.8344
-12.7357
-13.8682
-15.199
-16.6559
-18.1307
-19.489
-20.5858
-21.2863
-21.4887
-21.1342
-20.2304
-18.8476
-17.1015
-15.131
-13.0796
-11.0844
-9.26891
-7.73733
-6.57176
-5.83388
-5.57241
-5.82092
-6.60904
-7.94475
-9.80213
-12.1063
-14.7228
-17.4678
-20.132
-22.5078
-24.4097
-25.695
-26.272
-26.1117
-25.255
-23.8023
-21.8952
-19.6941
-17.3548
-15.0126
-12.773
-10.7088
-8.86271
-7.25234
-5.87665
-4.72223
-3.76834
-2.99069
-2.36408
-1.86403
-1.46784
-1.15526
-0.908973
-0.714657
-0.560897
-0.438815
-0.341613
-0.2641
-0.202287
-0.153064
-0.113977
-0.0830624
-0.0587318
-0.0396919
-0.0248842
-0.0134426
-0.00466029
0.0020341
0.00709872
0.010895
0.0137041
0.0157382
0.0171565
0.0180774
0.0185953
0.0187864
0.0187171
0.0184428
0.0179999
0.0174135
0.0166931
0.0158418
0.014844
0.0137248
0.0124372
0.0111374
0.00965253
0.00843004
0.00679366
0.00616986
0.0038888
0.00497226
-0.000335269
0.00661889
-10.133
-10.3176
-10.5733
-10.9236
-11.3993
-12.0333
-12.8478
-13.8425
-14.9873
-16.2214
-17.4557
-18.5808
-19.4795
-20.0429
-20.1875
-19.8665
-19.0844
-17.8952
-16.391
-14.6861
-12.9023
-11.1588
-9.56482
-8.21469
-7.18484
-6.53421
-6.30888
-6.53998
-7.25072
-8.4438
-10.0912
-12.1239
-14.4252
-16.8375
-19.1811
-21.2763
-22.9605
-24.1089
-24.638
-24.5195
-23.784
-22.5132
-20.8258
-18.858
-16.7456
-14.6089
-12.5446
-10.6219
-8.88419
-7.35208
-6.02913
-4.90683
-3.96908
-3.19566
-2.56477
-2.05468
-1.64487
-1.3168
-1.0544
-0.844227
-0.675443
-0.539494
-0.429722
-0.340965
-0.269185
-0.211191
-0.164425
-0.12681
-0.0966483
-0.0725388
-0.0533244
-0.0380505
-0.0259327
-0.0163323
-0.00873356
-0.00272575
0.00201428
0.00573467
0.00862563
0.0108322
0.0124712
0.0136373
0.0144112
0.0148606
0.0150346
0.0149702
0.0146909
0.0142131
0.0135341
0.0126869
0.0116338
0.0105269
0.0092144
0.00810167
0.00660632
0.00597158
0.00392879
0.00469454
0.000193914
0.00562485
-10.3154
-10.5139
-10.7801
-11.1316
-11.5906
-12.1799
-12.9126
-13.7846
-14.7685
-15.8131
-16.8451
-17.7754
-18.5095
-18.9598
-19.0584
-18.768
-18.0905
-17.0677
-15.7732
-14.3014
-12.7552
-11.2374
-9.84417
-8.66002
-7.75524
-7.18512
-6.99253
-7.20607
-7.84386
-8.90496
-10.3609
-12.1487
-14.1668
-16.2801
-18.3345
-20.175
-21.6605
-22.681
-23.1611
-23.0735
-22.4403
-21.3276
-19.8339
-18.0751
-16.1687
-14.2213
-12.3208
-10.5325
-8.89929
-7.44406
-6.17406
-5.08495
-4.16476
-3.39704
-2.76321
-2.24419
-1.82162
-1.47868
-1.20056
-0.974767
-0.791067
-0.641266
-0.518887
-0.418818
-0.336994
-0.27015
-0.215629
-0.171248
-0.135193
-0.105958
-0.0822853
-0.0631312
-0.0476326
-0.0350834
-0.0249101
-0.0166527
-0.0099468
-0.00450862
-0.000117729
0.00339715
0.00617505
0.00832999
0.00995915
0.0111446
0.0119494
0.0124227
0.0126002
0.0125103
0.0121613
0.0115937
0.0107801
0.00986739
0.00872705
0.00772271
0.00637438
0.00573072
0.00394397
0.00437798
0.000733646
0.00455361
-10.4814
-10.6881
-10.9576
-11.3028
-11.7393
-12.282
-12.9383
-13.7011
-14.5458
-15.4292
-16.2911
-17.0592
-17.657
-18.0147
-18.0773
-17.8144
-17.227
-16.3476
-15.2355
-13.9682
-12.6323
-11.3161
-10.1037
-9.0704
-8.27996
-7.78345
-7.62025
-7.81634
-8.38581
-9.3254
-10.6072
-12.1745
-13.9387
-15.7841
-17.5788
-19.1895
-20.494
-21.3952
-21.8262
-21.7606
-21.2134
-20.2377
-18.9149
-17.3431
-15.6235
-13.8503
-12.1027
-10.4417
-8.90902
-7.52908
-6.31195
-5.25686
-4.3555
-3.59482
-2.95927
-2.43236
-1.99785
-1.64061
-1.34717
-1.10599
-0.90749
-0.74387
-0.608867
-0.497442
-0.40552
-0.329773
-0.267448
-0.216252
-0.174263
-0.139864
-0.111696
-0.0886262
-0.0697114
-0.0541779
-0.0413943
-0.0308519
-0.0221451
-0.014955
-0.00903106
-0.00417614
-0.000228969
0.00294337
0.00545339
0.0073964
0.00884986
0.00987508
0.01052
0.0108269
0.010816
0.0105359
0.00996998
0.00925986
0.00830248
0.00741657
0.00621552
0.00555289
0.00402372
0.00409249
0.00133998
0.00343367
-10.6301
-10.8401
-11.1074
-11.4407
-11.8507
-12.347
-12.9322
-13.598
-14.3224
-15.0688
-15.7879
-16.421
-16.9067
-17.1887
-17.2233
-16.9858
-16.4766
-15.7212
-14.7673
-13.6788
-12.5284
-11.3915
-10.3411
-9.44395
-8.75723
-8.32747
-8.19035
-8.36928
-8.8752
-9.70341
-10.8274
-12.1963
-13.7334
-15.3393
-16.9015
-18.3051
-19.4453
-20.2363
-20.6192
-20.5684
-20.0934
-19.2363
-18.0643
-16.6598
-15.1097
-13.4965
-11.8914
-10.3506
-8.91447
-7.60801
-6.44346
-5.42301
-4.54152
-3.78907
-3.15293
-2.61906
-2.17334
-1.80235
-1.49396
-1.23761
-1.02441
-0.847019
-0.699391
-0.576591
-0.474546
-0.389868
-0.319714
-0.261685
-0.213743
-0.174161
-0.141479
-0.114472
-0.0921179
-0.0735755
-0.058156
-0.0453027
-0.0345696
-0.0256039
-0.0181259
-0.0119132
-0.00678299
-0.00258236
0.000817201
0.00352536
0.00563472
0.00721952
0.00834002
0.00905082
0.00938385
0.00939505
0.00907922
0.0085706
0.00779311
0.00701858
0.0059769
0.00530084
0.00405301
0.00374453
0.00194338
0.00221628
-10.7616
-10.971
-11.2314
-11.549
-11.9302
-12.3808
-12.9007
-13.4806
-14.1009
-14.731
-15.3302
-15.8512
-16.2446
-16.4655
-16.4788
-16.2648
-15.8235
-15.1754
-14.3589
-13.4264
-12.439
-11.4608
-10.5549
-9.77979
-9.1864
-8.81658
-8.70233
-8.86451
-9.31164
-10.0382
-11.0196
-12.2107
-13.5449
-14.9372
-16.2916
-17.5099
-18.5011
-19.191
-19.5273
-19.4856
-19.0712
-18.317
-17.278
-16.023
-14.6265
-13.1602
-11.6877
-10.2605
-8.91682
-7.68184
-6.56937
-5.58394
-4.72319
-3.97999
-3.34422
-2.80423
-2.34795
-1.96367
-1.64062
-1.3693
-1.14152
-0.950392
-0.790158
-0.655987
-0.543819
-0.450214
-0.372239
-0.307383
-0.253494
-0.208733
-0.171537
-0.140588
-0.114785
-0.0932187
-0.0751438
-0.0599564
-0.0471718
-0.0364039
-0.0273446
-0.0197469
-0.0134072
-0.00815273
-0.00384019
-0.000345462
0.00243862
0.00459945
0.00620981
0.00733662
0.00802429
0.00833616
0.00827928
0.00798146
0.00739635
0.00674168
0.00586008
0.00515618
0.00418654
0.00345784
0.00264267
0.000956694
-10.8759
-11.0814
-11.3318
-11.6308
-11.9823
-12.3892
-12.8492
-13.3532
-13.8837
-14.4151
-14.914
-15.3421
-15.6598
-15.8315
-15.829
-15.6368
-15.2548
-14.6994
-14.0019
-13.2053
-12.3606
-11.5221
-10.7443
-10.0778
-9.56777
-9.25128
-9.15679
-9.30268
-9.69571
-10.3299
-11.183
-12.2149
-13.3683
-14.5705
-15.7397
-16.7919
-17.6493
-18.247
-18.5389
-18.5021
-18.1385
-17.4735
-16.5518
-15.4308
-14.1734
-12.842
-11.4927
-10.1726
-8.91727
-7.75169
-6.69059
-5.74038
-4.90103
-4.1679
-3.5333
-2.98787
-2.52155
-2.12435
-1.78689
-1.50073
-1.25844
-1.05364
-0.880828
-0.735316
-0.61306
-0.510566
-0.42481
-0.353168
-0.293369
-0.243459
-0.201771
-0.166894
-0.137648
-0.113056
-0.0923196
-0.0747882
-0.0599402
-0.0473576
-0.0367054
-0.0277131
-0.0201584
-0.0138444
-0.00861579
-0.00433315
-0.000873894
0.0018632
0.00396398
0.00550693
0.00654906
0.00716089
0.00736211
0.00727103
0.00687162
0.00633161
0.00561679
0.00489151
0.00422955
0.00307156
0.00331415
-0.000429055
-10.9739
-11.1728
-11.4108
-11.6897
-12.0114
-12.3768
-12.7825
-13.2195
-13.6727
-14.1203
-14.5352
-14.8865
-15.1425
-15.2747
-15.2609
-15.0889
-14.7588
-14.2836
-13.6889
-13.0103
-12.29
-11.5741
-10.909
-10.3386
-9.90231
-9.63279
-9.55508
-9.68519
-10.0286
-10.5792
-11.317
-12.2069
-13.1996
-14.2331
-15.2376
-16.1419
-16.8792
-17.3932
-17.6434
-17.6084
-17.2875
-16.7002
-15.8822
-14.8809
-13.7497
-12.542
-11.3074
-10.088
-8.91715
-7.81878
-6.80819
-5.89319
-5.07571
-4.35327
-3.72047
-3.1701
-2.69409
-2.28421
-1.93248
-1.63156
-1.37481
-1.15636
-0.971022
-0.814224
-0.681945
-0.570638
-0.477179
-0.398827
-0.333187
-0.278189
-0.232056
-0.193286
-0.160619
-0.133013
-0.109615
-0.0897322
-0.0728067
-0.0583912
-0.046125
-0.0357152
-0.0269192
-0.0195261
-0.0133612
-0.00827031
-0.00411704
-0.00078607
0.00182108
0.00379421
0.00520328
0.00612559
0.00659452
0.00672027
0.00652161
0.00610888
0.00556156
0.00479673
0.00443493
0.0027947
0.0041259
-0.00184193
-11.0562
-11.2467
-11.4706
-11.7287
-12.0212
-12.3478
-12.7044
-13.0827
-13.4693
-13.8461
-14.1908
-14.4786
-14.6843
-14.7852
-14.7638
-14.6105
-14.3255
-13.9197
-13.4139
-12.8372
-12.225
-11.6159
-11.0495
-10.5634
-10.1918
-9.96315
-9.89938
-10.0143
-10.3122
-10.7874
-11.422
-12.1856
-13.0357
-13.9197
-14.7785
-15.5514
-16.1813
-16.6198
-16.8313
-16.7959
-16.5112
-15.9915
-15.2653
-14.3715
-13.3547
-12.2607
-11.1326
-10.0081
-8.91782
-7.88446
-6.9234
-6.04345
-5.24809
-4.53677
-3.90615
-3.35111
-2.8656
-2.44309
-2.0771
-1.76141
-1.49021
-1.25814
-1.06032
-0.892317
-0.750122
-0.630121
-0.529083
-0.444139
-0.372766
-0.31277
-0.262268
-0.219661