/*--------------------------------*- C++ -*----------------------------------*\
  =========                 |
  \\      /  F ield         | OpenFOAM: The Open Source CFD Toolbox
   \\    /   O peration     | Website:  https://openfoam.org
    \\  /    A nd           | Version:  10
     \\/     M anipulation  |
\*---------------------------------------------------------------------------*/
FoamFile
{
    format      ascii;
    class       surfaceScalarField;
    location    "0.09";
    object      phi;
}
// * * * * * * * * * * * * * * * * * * * * * * * * * * * * * * * * * * * * * //

dimensions      [0 3 -1 0 0 0 0];

internalField   nonuniform List<scalar> 
13452
(
5.94495e-05
8.18974e-07
5.846e-05
9.8949e-07
5.74237e-05
1.03627e-06
5.63527e-05
1.07099e-06
5.52749e-05
1.07788e-06
5.4201e-05
1.07381e-06
5.31343e-05
1.06678e-06
5.20758e-05
1.05842e-06
5.10259e-05
1.0499e-06
4.99838e-05
1.04213e-06
4.89481e-05
1.03571e-06
4.79169e-05
1.03122e-06
4.68877e-05
1.02921e-06
4.58573e-05
1.03034e-06
4.4822e-05
1.03535e-06
4.37769e-05
1.04514e-06
4.27161e-05
1.06078e-06
4.16325e-05
1.08357e-06
4.05175e-05
1.11505e-06
3.93604e-05
1.15701e-06
3.81489e-05
1.21152e-06
3.68681e-05
1.28083e-06
3.55008e-05
1.36729e-06
3.40277e-05
1.47309e-06
3.24279e-05
1.59984e-06
3.06799e-05
1.74802e-06
2.87639e-05
1.91594e-06
2.66646e-05
2.09934e-06
2.43772e-05
2.28738e-06
2.19064e-05
2.47078e-06
1.92979e-05
2.60852e-06
1.65832e-05
2.71475e-06
2.58823e-06
1.39949e-05
6.24908e-05
3.18545e-07
6.29664e-05
5.13817e-07
6.34134e-05
5.8934e-07
6.38219e-05
6.62451e-07
6.41842e-05
7.15568e-07
6.44996e-05
7.58456e-07
6.47689e-05
7.97453e-07
6.49939e-05
8.33408e-07
6.51766e-05
8.67228e-07
6.53187e-05
8.99971e-07
6.5422e-05
9.32503e-07
6.54875e-05
9.65666e-07
6.55163e-05
1.00039e-06
6.55089e-05
1.03773e-06
6.54654e-05
1.07891e-06
6.53851e-05
1.12539e-06
6.5267e-05
1.17892e-06
6.51089e-05
1.24163e-06
6.49079e-05
1.31607e-06
6.46596e-05
1.40535e-06
6.4358e-05
1.51312e-06
6.39951e-05
1.64365e-06
6.35607e-05
1.80178e-06
6.30411e-05
1.99269e-06
6.24193e-05
2.22155e-06
6.16746e-05
2.49279e-06
6.07817e-05
2.80879e-06
5.97125e-05
3.1685e-06
5.84363e-05
3.56365e-06
5.69267e-05
3.98039e-06
5.51538e-05
4.38137e-06
5.31288e-05
4.7398e-06
4.96231e-06
5.07547e-05
6.38333e-05
2.46606e-07
6.39058e-05
4.41323e-07
6.39699e-05
5.25259e-07
6.40351e-05
5.97309e-07
6.41006e-05
6.50027e-07
6.41687e-05
6.90347e-07
6.42404e-05
7.25737e-07
6.43158e-05
7.58053e-07
6.43945e-05
7.88516e-07
6.44761e-05
8.18411e-07
6.45598e-05
8.48751e-07
6.4645e-05
8.80448e-07
6.4731e-05
9.14451e-07
6.48169e-05
9.51798e-07
6.49021e-05
9.93662e-07
6.49861e-05
1.04141e-06
6.50684e-05
1.09669e-06
6.51485e-05
1.16143e-06
6.52266e-05
1.23801e-06
6.53027e-05
1.32924e-06
6.53774e-05
1.43847e-06
6.54514e-05
1.56964e-06
6.55259e-05
1.7273e-06
6.56021e-05
1.91648e-06
6.56811e-05
2.14255e-06
6.57631e-05
2.41075e-06
6.58465e-05
2.72543e-06
6.5926e-05
3.08898e-06
6.59901e-05
3.4995e-06
6.60202e-05
3.95035e-06
6.59784e-05
4.42316e-06
6.58224e-05
4.89575e-06
5.33952e-06
6.54452e-05
6.56394e-05
1.90271e-07
6.56881e-05
3.92666e-07
6.57186e-05
4.94732e-07
6.57394e-05
5.76451e-07
6.57514e-05
6.38041e-07
6.57564e-05
6.85404e-07
6.57556e-05
7.26472e-07
6.57499e-05
7.63818e-07
6.57395e-05
7.98844e-07
6.5725e-05
8.32989e-07
6.57063e-05
8.67419e-07
6.56836e-05
9.0315e-07
6.56568e-05
9.41213e-07
6.56259e-05
9.82701e-07
6.55908e-05
1.02882e-06
6.55513e-05
1.08093e-06
6.55073e-05
1.14062e-06
6.54591e-05
1.20971e-06
6.54067e-05
1.29033e-06
6.5351e-05
1.38495e-06
6.52931e-05
1.49638e-06
6.5235e-05
1.62779e-06
6.51796e-05
1.78264e-06
6.51316e-05
1.96455e-06
6.5097e-05
2.17711e-06
6.50843e-05
2.42349e-06
6.51038e-05
2.70591e-06
6.51676e-05
3.02515e-06
6.52876e-05
3.37949e-06
6.54733e-05
3.76465e-06
6.57242e-05
4.17227e-06
6.60273e-05
4.59263e-06
5.02335e-06
6.63435e-05
6.74893e-05
1.57754e-07
6.75268e-05
3.55148e-07
6.75554e-05
4.66191e-07
6.75788e-05
5.53045e-07
6.75954e-05
6.21369e-07
6.76052e-05
6.75673e-07
6.76086e-05
7.2305e-07
6.7606e-05
7.6644e-07
6.75974e-05
8.074e-07
6.75829e-05
8.4747e-07
6.75624e-05
8.87934e-07
6.75357e-05
9.2991e-07
6.75024e-05
9.74506e-07
6.74622e-05
1.02288e-06
6.74147e-05
1.0763e-06
6.73595e-05
1.13616e-06
6.7296e-05
1.20404e-06
6.7224e-05
1.28173e-06
6.71431e-05
1.37129e-06
6.7053e-05
1.47499e-06
6.6954e-05
1.59539e-06
6.68466e-05
1.73523e-06
6.67318e-05
1.89737e-06
6.66117e-05
2.08464e-06
6.64893e-05
2.29956e-06
6.63688e-05
2.54401e-06
6.62558e-05
2.81888e-06
6.61575e-05
3.12347e-06
6.6082e-05
3.45499e-06
6.60377e-05
3.80897e-06
6.60307e-05
4.17926e-06
6.60624e-05
4.56087e-06
4.95484e-06
6.6131e-05
6.94105e-05
1.31306e-07
6.94456e-05
3.19999e-07
6.9473e-05
4.38779e-07
6.94943e-05
5.31747e-07
6.9509e-05
6.06727e-07
6.95171e-05
6.67587e-07
6.95194e-05
7.2074e-07
6.95163e-05
7.69494e-07
6.9508e-05
8.15713e-07
6.94944e-05
8.61029e-07
6.94755e-05
9.06848e-07
6.94511e-05
9.54383e-07
6.94208e-05
1.00481e-06
6.93843e-05
1.05935e-06
6.93413e-05
1.1193e-06
6.92914e-05
1.18607e-06
6.92342e-05
1.26124e-06
6.91694e-05
1.34656e-06
6.90967e-05
1.44398e-06
6.9016e-05
1.55564e-06
6.89275e-05
1.68386e-06
6.88317e-05
1.83107e-06
6.87293e-05
1.99973e-06
6.86218e-05
2.19214e-06
6.85111e-05
2.41027e-06
6.83997e-05
2.65546e-06
6.82905e-05
2.92809e-06
6.81866e-05
3.22734e-06
6.80906e-05
3.55094e-06
6.80041e-05
3.89549e-06
6.79263e-05
4.25713e-06
6.78536e-05
4.63355e-06
5.0267e-06
6.77817e-05
7.13838e-05
1.13865e-07
7.14102e-05
2.93605e-07
7.14323e-05
4.16641e-07
7.14506e-05
5.13459e-07
7.14642e-05
5.93072e-07
7.14726e-05
6.59212e-07
7.14759e-05
7.17466e-07
7.14741e-05
7.71287e-07
7.14673e-05
8.22567e-07
7.14553e-05
8.72998e-07
7.14381e-05
9.24028e-07
7.14156e-05
9.76927e-07
7.13875e-05
1.03292e-06
7.13536e-05
1.09325e-06
7.13136e-05
1.15923e-06
7.12674e-05
1.23226e-06
7.12148e-05
1.31388e-06
7.11556e-05
1.40575e-06
7.10899e-05
1.50971e-06
7.10178e-05
1.62771e-06
7.09399e-05
1.7618e-06
7.08568e-05
1.91411e-06
7.07699e-05
2.08667e-06
7.06807e-05
2.28135e-06
7.05913e-05
2.49965e-06
7.05043e-05
2.74251e-06
7.04223e-05
3.0101e-06
7.03479e-05
3.30173e-06
7.0283e-05
3.61581e-06
7.02283e-05
3.95025e-06
7.01821e-05
4.30323e-06
7.01411e-05
4.67459e-06
5.06687e-06
7.01009e-05
7.34183e-05
1.00866e-07
7.34411e-05
2.70825e-07
7.3462e-05
3.95714e-07
7.34796e-05
4.9584e-07
7.34928e-05
5.79878e-07
7.35008e-05
6.51231e-07
7.35037e-05
7.14577e-07
7.35016e-05
7.73336e-07
7.34946e-05
8.29552e-07
7.34827e-05
8.84906e-07
7.34659e-05
9.40899e-07
7.34439e-05
9.98854e-07
7.34168e-05
1.06003e-06
7.33844e-05
1.12569e-06
7.33465e-05
1.19714e-06
7.33029e-05
1.27577e-06
7.32538e-05
1.36303e-06
7.3199e-05
1.4605e-06
7.31389e-05
1.56985e-06
7.30738e-05
1.69284e-06
7.30043e-05
1.83127e-06
7.29315e-05
1.98692e-06
7.28567e-05
2.16145e-06
7.27817e-05
2.35631e-06
7.27088e-05
2.5726e-06
7.26404e-05
2.8109e-06
7.25792e-05
3.07123e-06
7.2528e-05
3.35296e-06
7.24888e-05
3.65496e-06
7.24631e-05
3.97595e-06
7.24512e-05
4.31515e-06
7.24525e-05
4.67334e-06
5.0524e-06
7.2467e-05
7.55119e-05
9.14672e-08
7.55299e-05
2.52762e-07
7.55473e-05
3.78313e-07
7.55622e-05
4.80951e-07
7.55737e-05
5.684e-07
7.55809e-05
6.44002e-07
7.55837e-05
7.11837e-07
7.5582e-05
7.75036e-07
7.55758e-05
8.35697e-07
7.55652e-05
8.95555e-07
7.55499e-05
9.56132e-07
7.553e-05
1.01877e-06
7.55053e-05
1.08473e-06
7.54757e-05
1.15527e-06
7.54412e-05
1.23166e-06
7.54018e-05
1.31522e-06
7.53575e-05
1.40735e-06
7.53085e-05
1.50949e-06
7.52552e-05
1.62316e-06
7.51981e-05
1.7499e-06
7.51381e-05
1.89126e-06
7.50763e-05
2.04869e-06
7.50143e-05
2.22352e-06
7.49537e-05
2.41685e-06
7.48969e-05
2.62941e-06
7.48463e-05
2.86153e-06
7.48045e-05
3.11307e-06
7.4774e-05
3.38344e-06
7.47572e-05
3.67175e-06
7.4756e-05
3.9771e-06
7.47722e-05
4.29905e-06
7.48071e-05
4.63843e-06
4.99588e-06
7.48636e-05
7.76666e-05
8.44325e-08
7.76815e-05
2.37828e-07
7.76971e-05
3.62746e-07
7.7711e-05
4.67065e-07
7.77221e-05
5.57346e-07
7.77293e-05
6.36724e-07
7.77326e-05
7.08614e-07
7.77316e-05
7.75993e-07
7.77264e-05
8.40935e-07
7.77168e-05
9.05119e-07
7.77029e-05
9.70045e-07
7.76846e-05
1.03705e-06
7.76619e-05
1.10739e-06
7.76349e-05
1.1823e-06
7.76035e-05
1.26302e-06
7.7568e-05
1.35081e-06
7.75284e-05
1.44694e-06
7.74851e-05
1.55276e-06
7.74387e-05
1.66959e-06
7.73898e-05
1.79878e-06
7.73394e-05
1.9416e-06
7.72889e-05
2.09925e-06
7.72397e-05
2.27273e-06
7.71937e-05
2.46281e-06
7.71532e-05
2.66996e-06
7.71204e-05
2.89426e-06
7.70981e-05
3.13543e-06
7.70886e-05
3.39287e-06
7.70946e-05
3.66576e-06
7.71184e-05
3.95333e-06
7.71624e-05
4.25507e-06
7.72294e-05
4.5714e-06
4.90177e-06
7.73235e-05
7.98837e-05
7.90707e-08
7.98959e-05
2.25632e-07
7.99092e-05
3.49374e-07
7.99214e-05
4.54903e-07
7.99312e-05
5.47511e-07
7.99379e-05
6.30084e-07
7.99409e-05
7.05571e-07
7.99402e-05
7.76671e-07
7.99358e-05
8.45403e-07
7.99275e-05
9.13419e-07
7.99153e-05
9.82195e-07
7.98993e-05
1.05306e-06
7.98795e-05
1.12723e-06
7.98559e-05
1.20591e-06
7.98286e-05
1.29028e-06
7.97979e-05
1.3815e-06
7.97641e-05
1.48077e-06
7.97276e-05
1.58925e-06
7.96891e-05
1.70812e-06
7.96494e-05
1.8385e-06
7.96095e-05
1.98143e-06
7.9571e-05
2.13783e-06
7.95353e-05
2.30842e-06
7.95044e-05
2.4937e-06
7.94805e-05
2.69387e-06
7.94659e-05
2.90882e-06
7.94632e-05
3.13812e-06
7.9475e-05
3.38108e-06
7.95039e-05
3.63687e-06
7.95526e-05
3.90463e-06
7.96241e-05
4.18359e-06
7.97219e-05
4.47359e-06
4.77313e-06
7.98505e-05
8.21646e-05
7.48822e-08
8.21748e-05
2.15514e-07
8.21865e-05
3.37606e-07
8.21977e-05
4.43739e-07
8.22071e-05
5.3809e-07
8.22139e-05
6.23279e-07
8.22176e-05
7.01862e-07
8.2218e-05
7.76277e-07
8.2215e-05
8.48447e-07
8.22084e-05
9.19959e-07
8.21984e-05
9.92231e-07
8.21849e-05
1.06654e-06
8.21681e-05
1.14409e-06
8.2148e-05
1.22599e-06
8.21249e-05
1.31335e-06
8.20991e-05
1.40726e-06
8.20711e-05
1.50878e-06
8.20414e-05
1.61894e-06
8.20108e-05
1.73873e-06
8.19802e-05
1.86908e-06
8.19509e-05
2.01079e-06
8.19242e-05
2.16453e-06
8.19018e-05
2.33078e-06
8.18858e-05
2.50977e-06
8.18781e-05
2.7015e-06
8.18813e-05
2.90564e-06
8.18978e-05
3.12164e-06
8.19302e-05
3.34868e-06
8.19812e-05
3.58581e-06
8.20539e-05
3.83201e-06
8.21513e-05
4.08616e-06
8.22774e-05
4.3475e-06
4.61386e-06
8.24367e-05
8.45111e-05
7.15211e-08
8.45196e-05
2.07028e-07
8.453e-05
3.27258e-07
8.45401e-05
4.33599e-07
8.45489e-05
5.29282e-07
8.45556e-05
6.1663e-07
8.45596e-05
6.97867e-07
8.45607e-05
7.75164e-07
8.45588e-05
8.5032e-07
8.45539e-05
9.24847e-07
8.4546e-05
1.0001e-06
8.45353e-05
1.07731e-06
8.45218e-05
1.1576e-06
8.45057e-05
1.24204e-06
8.44874e-05
1.33166e-06
8.44672e-05
1.42743e-06
8.44457e-05
1.53028e-06
8.44236e-05
1.64111e-06
8.44016e-05
1.76073e-06
8.43808e-05
1.88985e-06
8.43625e-05
2.02909e-06
8.43482e-05
2.17888e-06
8.43395e-05
2.33945e-06
8.43384e-05
2.51085e-06
8.43471e-05
2.69283e-06
8.43678e-05
2.88492e-06
8.4403e-05
3.0864e-06
8.44554e-05
3.29633e-06
8.45276e-05
3.51359e-06
8.46227e-05
3.73694e-06
8.47439e-05
3.96496e-06
8.4895e-05
4.19637e-06
4.42859e-06
8.50803e-05
8.69249e-05
6.87466e-08
8.69322e-05
1.99779e-07
8.69414e-05
3.18006e-07
8.69509e-05
4.24155e-07
8.69595e-05
5.20707e-07
8.69664e-05
6.09699e-07
8.69712e-05
6.93079e-07
8.69736e-05
7.72773e-07
8.69734e-05
8.50446e-07
8.69708e-05
9.27523e-07
8.69656e-05
1.00528e-06
8.6958e-05
1.08487e-06
8.69483e-05
1.16736e-06
8.69366e-05
1.25373e-06
8.69233e-05
1.34491e-06
8.6909e-05
1.44175e-06
8.68942e-05
1.54508e-06
8.68797e-05
1.65563e-06
8.68664e-05
1.77403e-06
8.68554e-05
1.90084e-06
8.6848e-05
2.03645e-06
8.68458e-05
2.18109e-06
8.68505e-05
2.3348e-06
8.68639e-05
2.49742e-06
8.68882e-05
2.66854e-06
8.69256e-05
2.84751e-06
8.69785e-05
3.03347e-06
8.70495e-05
3.22535e-06
8.71412e-05
3.42186e-06
8.72566e-05
3.62159e-06
8.73987e-05
3.82285e-06
8.75711e-05
4.02398e-06
4.22222e-06
8.77775e-05
8.94079e-05
6.63842e-08
8.94142e-05
1.9345e-07
8.94226e-05
3.09598e-07
8.94316e-05
4.15234e-07
8.944e-05
5.12267e-07
8.94472e-05
6.02464e-07
8.94528e-05
6.87529e-07
8.94564e-05
7.69164e-07
8.9458e-05
8.48886e-07
8.94575e-05
9.28018e-07
8.9455e-05
1.00775e-06
8.94507e-05
1.08915e-06
8.94449e-05
1.1732e-06
8.94378e-05
1.26081e-06
8.94299e-05
1.35279e-06
8.94218e-05
1.44989e-06
8.94141e-05
1.55281e-06
8.94076e-05
1.66212e-06
8.94033e-05
1.77831e-06
8.94024e-05
1.90175e-06
8.94062e-05
2.03266e-06
8.94162e-05
2.17109e-06
8.94341e-05
2.3169e-06
8.94617e-05
2.46975e-06
8.95012e-05
2.62908e-06
8.95546e-05
2.7941e-06
8.96243e-05
2.96382e-06
8.97126e-05
3.13705e-06
8.9822e-05
3.31238e-06
8.99554e-05
3.48824e-06
9.01154e-05
3.66279e-06
9.03053e-05
3.83411e-06
3.99947e-06
9.05281e-05
9.19619e-05
6.43059e-08
9.19676e-05
1.87774e-07
9.19754e-05
3.01781e-07
9.19841e-05
4.066e-07
9.19926e-05
5.03719e-07
9.20004e-05
5.94659e-07
9.2007e-05
6.80914e-07
9.20122e-05
7.63985e-07
9.20159e-05
8.45244e-07
9.2018e-05
9.25905e-07
9.20187e-05
1.00706e-06
9.20181e-05
1.0897e-06
9.20166e-05
1.17471e-06
9.20145e-05
1.26289e-06
9.20123e-05
1.35496e-06
9.20107e-05
1.45156e-06
9.20102e-05
1.55324e-06
9.20119e-05
1.66046e-06
9.20167e-05
1.77354e-06
9.20257e-05
1.89269e-06
9.20404e-05
2.01798e-06
9.20622e-05
2.14928e-06
9.20928e-05
2.28632e-06
9.2134e-05
2.4286e-06
9.21876e-05
2.57542e-06
9.22558e-05
2.72591e-06
9.23407e-05
2.87896e-06
9.24445e-05
3.03328e-06
9.25694e-05
3.1874e-06
9.2718e-05
3.33964e-06
9.28927e-05
3.4881e-06
9.30961e-05
3.63074e-06
3.76501e-06
9.33306e-05
9.4589e-05
6.24139e-08
9.45943e-05
1.82532e-07
9.46017e-05
2.94326e-07
9.46103e-05
3.98046e-07
9.46191e-05
4.94879e-07
9.46277e-05
5.86128e-07
9.46355e-05
6.73105e-07
9.46423e-05
7.57127e-07
9.46482e-05
8.39423e-07
9.4653e-05
9.21091e-07
9.46569e-05
1.00312e-06
9.46602e-05
1.08641e-06
9.46632e-05
1.17174e-06
9.46662e-05
1.25982e-06
9.46699e-05
1.35127e-06
9.46749e-05
1.44661e-06
9.46818e-05
1.54627e-06
9.46917e-05
1.65056e-06
9.47056e-05
1.75969e-06
9.47246e-05
1.87372e-06
9.475e-05
1.99256e-06
9.47833e-05
2.11597e-06
9.48261e-05
2.24352e-06
9.48801e-05
2.37462e-06
9.4947e-05
2.50847e-06
9.50288e-05
2.64409e-06
9.51275e-05
2.78033e-06
9.52449e-05
2.91584e-06
9.53832e-05
3.0491e-06
9.55444e-05
3.17843e-06
9.57306e-05
3.30193e-06
9.59438e-05
3.41756e-06
3.52305e-06
9.61857e-05
9.72913e-05
6.06319e-08
9.72963e-05
1.77538e-07
9.73036e-05
2.87022e-07
9.73123e-05
3.89366e-07
9.73216e-05
4.85538e-07
9.73311e-05
5.76659e-07
9.73403e-05
6.63876e-07
9.73491e-05
7.48345e-07
9.73574e-05
8.31152e-07
9.73652e-05
9.13283e-07
9.73727e-05
9.95625e-07
9.73801e-05
1.07897e-06
9.73879e-05
1.16401e-06
9.73963e-05
1.25135e-06
9.74061e-05
1.3415e-06
9.74178e-05
1.43488e-06
9.74323e-05
1.53179e-06
9.74505e-05
1.63243e-06
9.74733e-05
1.73688e-06
9.75019e-05
1.84507e-06
9.75377e-05
1.9568e-06
9.75819e-05
2.07171e-06
9.76362e-05
2.18928e-06
9.7702e-05
2.30881e-06
9.7781e-05
2.42943e-06
9.7875e-05
2.55013e-06
9.79856e-05
2.66971e-06
9.81146e-05
2.78682e-06
9.82638e-05
2.89995e-06
9.84347e-05
3.00745e-06
9.86292e-05
3.10751e-06
9.88485e-05
3.19819e-06
3.27754e-06
9.90941e-05
0.000100071
5.88981e-08
0.000100076
1.72633e-07
0.000100083
2.79677e-07
0.000100092
3.80364e-07
0.000100102
4.75504e-07
0.000100113
5.66066e-07
0.000100124
6.53053e-07
0.000100134
7.37471e-07
0.000100145
8.20275e-07
0.000100156
9.02336e-07
0.000100167
9.84433e-07
0.000100179
1.06726e-06
0.000100192
1.1514e-06
0.000100206
1.23738e-06
0.000100222
1.32559e-06
0.00010024
1.41635e-06
0.000100262
1.50985e-06
0.000100288
1.60618e-06
0.00010032
1.70531e-06
0.000100358
1.80708e-06
0.000100404
1.91117e-06
0.000100458
2.01714e-06
0.000100523
2.12438e-06
0.0001006
2.23214e-06
0.00010069
2.33952e-06
0.000100794
2.44548e-06
0.000100915
2.54882e-06
0.000101054
2.64822e-06
0.000101211
2.74223e-06
0.00010139
2.8293e-06
0.000101589
2.90775e-06
0.000101812
2.9758e-06
3.03186e-06
0.000102057
0.00010293
5.71615e-08
0.000102935
1.67682e-07
0.000102942
2.72117e-07
0.000102952
3.70852e-07
0.000102963
4.64587e-07
0.000102975
5.54159e-07
0.000102987
6.40443e-07
0.000103
7.2431e-07
0.000103014
8.06592e-07
0.000103028
8.88045e-07
0.000103043
9.69345e-07
0.00010306
1.05108e-06
0.000103077
1.13376e-06
0.000103097
1.21778e-06
0.000103119
1.30346e-06
0.000103144
1.391e-06
0.000103174
1.48051e-06
0.000103208
1.57198e-06
0.000103248
1.66528e-06
0.000103295
1.76016e-06
0.00010335
1.85624e-06
0.000103414
1.95299e-06
0.000103489
2.04976e-06
0.000103575
2.14577e-06
0.000103674
2.24012e-06
0.000103788
2.33175e-06
0.000103917
2.41951e-06
0.000104063
2.50215e-06
0.000104227
2.57831e-06
0.00010441
2.64658e-06
0.000104612
2.70546e-06
0.000104835
2.75337e-06
2.78903e-06
0.000105078
0.000105871
5.53786e-08
0.000105876
1.62568e-07
0.000105884
2.64183e-07
0.000105894
3.60657e-07
0.000105906
4.52606e-07
0.000105919
5.40757e-07
0.000105934
6.25869e-07
0.000105949
7.08694e-07
0.000105966
7.89944e-07
0.000105984
8.70268e-07
0.000106003
9.5024e-07
0.000106024
1.03035e-06
0.000106046
1.11101e-06
0.000106072
1.19253e-06
0.0001061
1.27513e-06
0.000106132
1.35894e-06
0.000106169
1.44396e-06
0.00010621
1.5301e-06
0.000106258
1.61717e-06
0.000106314
1.70484e-06
0.000106377
1.79266e-06
0.00010645
1.88008e-06
0.000106534
1.96642e-06
0.000106629
2.05089e-06
0.000106736
2.13258e-06
0.000106857
2.21049e-06
0.000106993
2.28355e-06
0.000107145
2.35057e-06
0.000107313
2.41035e-06
0.000107498
2.46162e-06
0.0001077
2.50308e-06
0.00010792
2.53338e-06
2.55154e-06
0.000108158
0.000108895
5.35123e-08
0.000108901
1.57186e-07
0.000108909
2.5573e-07
0.00010892
3.49614e-07
0.000108933
4.3939e-07
0.000108948
5.2569e-07
0.000108965
6.09169e-07
0.000108983
6.90466e-07
0.000109003
7.70187e-07
0.000109025
8.48876e-07
0.000109048
9.27009e-07
0.000109073
1.00498e-06
0.000109101
1.08312e-06
0.000109132
1.16164e-06
0.000109166
1.24069e-06
0.000109205
1.3203e-06
0.000109248
1.40043e-06
0.000109298
1.48089e-06
0.000109353
1.56144e-06
0.000109417
1.6417e-06
0.000109488
1.72119e-06
0.000109569
1.79932e-06
0.00010966
1.87543e-06
0.000109762
1.94872e-06
0.000109876
2.01833e-06
0.000110003
2.08332e-06
0.000110144
2.14271e-06
0.000110299
2.19543e-06
0.000110469
2.24041e-06
0.000110654
2.27656e-06
0.000110855
2.3028e-06
0.00011107
2.31798e-06
2.32145e-06
0.0001113
0.000112006
5.15295e-08
0.000112012
1.51444e-07
0.000112021
2.46628e-07
0.000112033
3.37574e-07
0.000112048
4.2478e-07
0.000112065
5.08796e-07
0.000112084
5.90181e-07
0.000112105
6.69477e-07
0.000112128
7.47185e-07
0.000112153
8.23752e-07
0.00011218
8.99563e-07
0.00011221
9.74926e-07
0.000112244
1.05008e-06
0.00011228
1.12516e-06
0.00011232
1.20025e-06
0.000112365
1.2753e-06
0.000112416
1.3502e-06
0.000112472
1.42474e-06
0.000112535
1.4986e-06
0.000112605
1.57138e-06
0.000112684
1.64259e-06
0.000112771
1.71163e-06
0.000112869
1.77784e-06
0.000112977
1.84048e-06
0.000113097
1.89873e-06
0.000113228
1.95175e-06
0.000113372
1.99863e-06
0.000113529
2.03846e-06
0.000113699
2.07031e-06
0.000113883
2.09326e-06
0.000114079
2.10645e-06
0.000114288
2.10895e-06
2.10037e-06
0.000114509
0.000115207
4.94015e-08
0.000115213
1.45261e-07
0.000115223
2.36758e-07
0.000115236
3.24398e-07
0.000115252
4.08633e-07
0.000115271
4.89937e-07
0.000115292
5.68785e-07
0.000115316
6.45623e-07
0.000115342
7.20859e-07
0.000115371
7.9485e-07
0.000115403
8.6789e-07
0.000115438
9.4021e-07
0.000115476
1.01196e-06
0.000115518
1.08323e-06
0.000115564
1.15401e-06
0.000115615
1.22421e-06
0.000115672
1.29367e-06
0.000115734
1.36213e-06
0.000115804
1.42925e-06
0.00011588
1.49461e-06
0.000115965
1.55771e-06
0.000116059
1.61797e-06
0.000116162
1.67477e-06
0.000116275
1.7274e-06
0.000116399
1.77514e-06
0.000116533
1.81723e-06
0.000116679
1.85286e-06
0.000116836
1.88127e-06
0.000117005
1.90168e-06
0.000117185
1.91334e-06
0.000117375
1.91558e-06
0.000117577
1.90769e-06
1.88949e-06
0.000117788
0.000118498
4.71012e-08
0.000118505
1.38561e-07
0.000118516
2.26008e-07
0.00011853
3.09952e-07
0.000118548
3.90801e-07
0.000118569
4.68962e-07
0.000118593
5.44829e-07
0.00011862
6.18765e-07
0.000118649
6.91088e-07
0.000118682
7.6207e-07
0.000118718
8.31928e-07
0.000118758
9.00814e-07
0.000118801
9.68816e-07
0.000118848
1.03595e-06
0.0001189
1.10216e-06
0.000118957
1.16731e-06
0.000119019
1.23119e-06
0.000119088
1.29353e-06
0.000119163
1.35396e-06
0.000119246
1.41206e-06
0.000119336
1.46735e-06
0.000119435
1.51927e-06
0.000119542
1.56724e-06
0.000119659
1.61064e-06
0.000119785
1.6488e-06
0.000119922
1.68107e-06
0.000120068
1.70677e-06
0.000120224
1.72525e-06
0.000120389
1.73589e-06
0.000120565
1.73811e-06
0.000120749
1.7314e-06
0.000120941
1.71527e-06
1.68969e-06
0.000121141
0.000121884
4.46061e-08
0.000121891
1.31279e-07
0.000121903
2.14286e-07
0.000121919
2.94135e-07
0.000121938
3.71188e-07
0.000121961
4.45791e-07
0.000121988
5.18261e-07
0.000122018
5.88881e-07
0.000122051
6.57887e-07
0.000122088
7.25473e-07
0.000122128
7.91782e-07
0.000122172
8.56899e-07
0.00012222
9.20849e-07
0.000122272
9.83597e-07
0.000122329
1.04504e-06
0.000122391
1.10501e-06
0.000122459
1.16327e-06
0.000122533
1.21952e-06
0.000122614
1.27341e-06
0.000122701
1.32451e-06
0.000122796
1.37237e-06
0.000122899
1.41649e-06
0.00012301
1.45632e-06
0.000123129
1.49131e-06
0.000123257
1.5209e-06
0.000123394
1.54451e-06
0.000123539
1.56159e-06
0.000123693
1.57162e-06
0.000123855
1.57412e-06
0.000124024
1.56864e-06
0.000124201
1.55486e-06
0.000124383
1.53241e-06
1.50143e-06
0.000124572
0.000125366
4.18893e-08
0.000125374
1.2334e-07
0.000125387
2.01476e-07
0.000125404
2.76797e-07
0.000125426
3.49625e-07
0.000125451
4.20241e-07
0.000125481
4.88896e-07
0.000125514
5.55796e-07
0.000125551
6.21102e-07
0.000125591
6.84936e-07
0.000125636
7.47371e-07
0.000125684
8.08434e-07
0.000125737
8.68097e-07
0.000125794
9.26279e-07
0.000125856
9.82838e-07
0.000125924
1.03758e-06
0.000125997
1.09026e-06
0.000126076
1.14057e-06
0.000126161
1.18815e-06
0.000126253
1.23261e-06
0.000126352
1.27354e-06
0.000126458
1.31046e-06
0.000126571
1.3429e-06
0.000126692
1.37039e-06
0.000126821
1.39243e-06
0.000126956
1.40856e-06
0.0001271
1.41834e-06
0.00012725
1.42135e-06
0.000127407
1.41725e-06
0.00012757
1.40574e-06
0.000127738
1.38659e-06
0.000127911
1.35961e-06
1.32502e-06
0.000128087
0.000128948
3.89367e-08
0.000128957
1.14703e-07
0.000128971
1.8753e-07
0.00012899
2.57908e-07
0.000129013
3.26108e-07
0.000129041
3.9235e-07
0.000129073
4.56815e-07
0.000129109
5.19635e-07
0.000129149
5.80902e-07
0.000129194
6.40669e-07
0.000129242
6.98951e-07
0.000129295
7.55721e-07
0.000129352
8.10908e-07
0.000129414
8.64393e-07
0.000129481
9.16009e-07
0.000129553
9.65544e-07
0.00012963
1.01274e-06
0.000129714
1.0573e-06
0.000129803
1.09889e-06
0.000129898
1.13714e-06
0.00013
1.17166e-06
0.000130109
1.20205e-06
0.000130224
1.2279e-06
0.000130345
1.2488e-06
0.000130473
1.26434e-06
0.000130608
1.27415e-06
0.000130748
1.27789e-06
0.000130894
1.27526e-06
0.000131045
1.26602e-06
0.000131201
1.24997e-06
0.000131361
1.22701e-06
0.000131523
1.19703e-06
1.16034e-06
0.000131688
0.000132632
3.57014e-08
0.000132642
1.05242e-07
0.000132657
1.7225e-07
0.000132678
2.37205e-07
0.000132704
3.00332e-07
0.000132734
3.61789e-07
0.000132769
4.21687e-07
0.000132809
4.80088e-07
0.000132853
5.37014e-07
0.000132901
5.92454e-07
0.000132953
6.46368e-07
0.00013301
6.9868e-07
0.000133072
7.49282e-07
0.000133138
7.98025e-07
0.00013321
8.44721e-07
0.000133286
8.89148e-07
0.000133368
9.31053e-07
0.000133455
9.70151e-07
0.000133548
1.00613e-06
0.000133646
1.03865e-06
0.000133751
1.06738e-06
0.000133861
1.09195e-06
0.000133977
1.11202e-06
0.000134098
1.12725e-06
0.000134225
1.13732e-06
0.000134357
1.14195e-06
0.000134494
1.14087e-06
0.000134636
1.13389e-06
0.000134781
1.12084e-06
0.000134929
1.10164e-06
0.00013508
1.07627e-06
0.000135232
1.04471e-06
1.00731e-06
0.000135385
0.000136422
3.2209e-08
0.000136432
9.50033e-08
0.000136449
1.55735e-07
0.000136471
2.14861e-07
0.000136499
2.72539e-07
0.000136532
3.28853e-07
0.000136569
3.83846e-07
0.000136612
4.37515e-07
0.000136659
4.89815e-07
0.000136711
5.4068e-07
0.000136767
5.9002e-07
0.000136828
6.37721e-07
0.000136894
6.83642e-07
0.000136964
7.27614e-07
0.00013704
7.69441e-07
0.00013712
8.08898e-07
0.000137205
8.45739e-07
0.000137296
8.79696e-07
0.000137391
9.10482e-07
0.000137492
9.378e-07
0.000137598
9.61349e-07
0.000137709
9.80829e-07
0.000137825
9.9595e-07
0.000137946
1.00644e-06
0.000138071
1.01205e-06
0.000138201
1.01257e-06
0.000138334
1.00783e-06
0.00013847
9.97682e-07
0.000138609
9.82062e-07
0.00013875
9.60939e-07
0.000138891
9.3436e-07
0.000139034
9.02371e-07
8.65343e-07
0.000139176
0.00014032
2.82892e-08
0.000140331
8.36072e-08
0.000140349
1.37429e-07
0.000140374
1.90206e-07
0.000140405
2.4201e-07
0.000140441
2.92838e-07
0.000140482
3.42652e-07
0.000140528
3.91365e-07
0.000140579
4.38863e-07
0.000140635
4.85018e-07
0.000140695
5.29696e-07
0.00014076
5.72744e-07
0.000140829
6.13998e-07
0.000140904
6.53275e-07
0.000140983
6.90374e-07
0.000141067
7.25077e-07
0.000141155
7.57148e-07
0.000141249
7.8634e-07
0.000141347
8.12396e-07
0.000141449
8.35058e-07
0.000141557
8.54067e-07
0.000141668
8.69177e-07
0.000141784
8.80153e-07
0.000141904
8.86783e-07
0.000142027
8.88885e-07
0.000142153
8.86309e-07
0.000142282
8.78944e-07
0.000142413
8.66724e-07
0.000142546
8.49632e-07
0.000142679
8.27697e-07
0.000142812
8.01014e-07
0.000142945
7.69682e-07
7.34076e-07
0.000143076
0.000144329
2.42039e-08
0.000144341
7.14994e-08
0.00014436
1.17964e-07
0.000144386
1.63981e-07
0.000144419
2.09515e-07
0.000144457
2.54478e-07
0.000144501
2.98763e-07
0.00014455
3.42213e-07
0.000144605
3.84649e-07
0.000144664
4.25892e-07
0.000144728
4.65764e-07
0.000144796
5.04084e-07
0.00014487
5.40666e-07
0.000144948
5.75318e-07
0.00014503
6.07838e-07
0.000145117
6.38015e-07
0.000145209
6.65628e-07
0.000145305
6.90453e-07
0.000145405
7.12265e-07
0.000145509
7.30841e-07
0.000145617
7.45965e-07
0.000145729
7.57436e-07
0.000145844
7.65071e-07
0.000145962
7.68709e-07
0.000146083
7.68221e-07
0.000146205
7.6351e-07
0.00014633
7.54515e-07
0.000146455
7.41217e-07
0.000146581
7.23639e-07
0.000146707
7.01848e-07
0.000146832
6.75963e-07
0.000146956
6.461e-07
6.12621e-07
0.000147077
0.000148453
1.91223e-08
0.000148467
5.72569e-08
0.00014849
9.56415e-08
0.000148519
1.34506e-07
0.000148555
1.73562e-07
0.000148597
2.12553e-07
0.000148644
2.5126e-07
0.000148697
2.89426e-07
0.000148755
3.26794e-07
0.000148818
3.63133e-07
0.000148885
3.98232e-07
0.000148958
4.31886e-07
0.000149034
4.63897e-07
0.000149116
4.94072e-07
0.000149201
5.22213e-07
0.000149291
5.48123e-07
0.000149385
5.71602e-07
0.000149483
5.92453e-07
0.000149585
6.10483e-07
0.00014969
6.25503e-07
0.000149799
6.37338e-07
0.000149911
6.4583e-07
0.000150025
6.50839e-07
0.000150141
6.5225e-07
0.000150259
6.49977e-07
0.000150379
6.43965e-07
0.000150499
6.34195e-07
0.00015062
6.20682e-07
0.00015074
6.03484e-07
0.000150859
5.8269e-07
0.000150977
5.58441e-07
0.000151092
5.30877e-07
5.00334e-07
0.000151204
0.000152694
1.45375e-08
0.000152708
4.27763e-08
0.000152731
7.24476e-08
0.000152762
1.03491e-07
0.000152801
1.35456e-07
0.000152845
1.67941e-07
0.000152896
2.00666e-07
0.000152952
2.33267e-07
0.000153013
2.65375e-07
0.00015308
2.96695e-07
0.000153151
3.26976e-07
0.000153227
3.55988e-07
0.000153307
3.83524e-07
0.000153392
4.09388e-07
0.000153481
4.3339e-07
0.000153574
4.55346e-07
0.00015367
4.75077e-07
0.00015377
4.9241e-07
0.000153873
5.0718e-07
0.00015398
5.19233e-07
0.000154089
5.28428e-07
0.0001542
5.34641e-07
0.000154313
5.3777e-07
0.000154427
5.37736e-07
0.000154543
5.34484e-07
0.000154659
5.27991e-07
0.000154775
5.18262e-07
0.00015489
5.05335e-07
0.000155004
4.89277e-07
0.000155117
4.70188e-07
0.000155227
4.48203e-07
0.000155334
4.23451e-07
3.96234e-07
0.000155439
0.000157059
6.68216e-09
0.000157078
2.36476e-08
0.000157106
4.45195e-08
0.000157142
6.81307e-08
0.000157184
9.35134e-08
0.000157232
1.19864e-07
0.000157286
1.4686e-07
0.000157345
1.7404e-07
0.000157409
2.00974e-07
0.000157479
2.27338e-07
0.000157553
2.52856e-07
0.000157631
2.7729e-07
0.000157714
3.00433e-07
0.000157802
3.221e-07
0.000157893
3.42118e-07
0.000157988
3.60323e-07
0.000158087
3.7656e-07
0.000158188
3.90685e-07
0.000158293
4.02562e-07
0.0001584
4.12068e-07
0.000158509
4.19093e-07
0.00015862
4.23547e-07
0.000158733
4.25355e-07
0.000158846
4.24466e-07
0.00015896
4.20853e-07
0.000159073
4.14513e-07
0.000159186
4.05469e-07
0.000159298
3.93773e-07
0.000159407
3.79502e-07
0.000159515
3.62761e-07
0.000159619
3.43684e-07
0.00015972
3.22407e-07
2.99194e-07
0.000159817
0.000161544
1.02789e-09
0.000161564
4.01929e-09
0.000161593
1.48841e-08
0.000161632
2.97897e-08
0.000161678
4.75905e-08
0.00016173
6.71873e-08
0.000161789
8.83545e-08
0.000161853
1.10142e-07
0.000161922
1.31975e-07
0.000161996
1.53496e-07
0.000162074
1.74414e-07
0.000162157
1.94482e-07
0.000162244
2.13496e-07
0.000162335
2.31279e-07
0.000162429
2.47674e-07
0.000162527
2.62538e-07
0.000162628
2.75741e-07
0.000162731
2.87164e-07
0.000162837
2.96698e-07
0.000162945
3.04249e-07
0.000163054
3.09731e-07
0.000163165
3.13078e-07
0.000163276
3.14239e-07
0.000163387
3.13181e-07
0.000163498
3.09892e-07
0.000163608
3.04379e-07
0.000163717
2.96673e-07
0.000163824
2.86823e-07
0.000163928
2.74901e-07
0.00016403
2.60993e-07
0.000164129
2.45212e-07
0.000164223
2.27659e-07
2.08552e-07
0.000164314
0.000166168
-1.31809e-08
0.000166194
-2.25227e-08
0.000166229
-2.01447e-08
0.000166271
-1.1969e-08
0.000166318
3.04418e-10
0.000166373
1.29907e-08
0.000166433
2.83404e-08
0.000166498
4.46123e-08
0.000166569
6.12646e-08
0.000166645
7.78511e-08
0.000166725
9.4044e-08
0.00016681
1.09613e-07
0.000166899
1.24387e-07
0.000166992
1.38211e-07
0.000167089
1.50953e-07
0.000167189
1.62495e-07
0.000167292
1.72731e-07
0.000167397
1.81568e-07
0.000167505
1.88923e-07
0.000167615
1.94724e-07
0.000167725
1.98912e-07
0.000167837
2.0144e-07
0.000167949
2.02277e-07
0.000168061
2.01405e-07
0.000168172
1.98825e-07
0.000168282
1.9455e-07
0.00016839
1.88615e-07
0.000168496
1.81068e-07
0.000168598
1.71973e-07
0.000168698
1.61412e-07
0.000168794
1.49484e-07
0.000168885
1.36286e-07
1.21995e-07
0.000168972
0.000170914
-2.70135e-08
0.000170951
-5.87316e-08
0.000170996
-6.57682e-08
0.00017105
-6.55961e-08
0.00017111
-6.01977e-08
0.000171175
-5.12664e-08
0.000171243
-4.02358e-08
0.000171316
-2.82926e-08
0.000171393
-1.59832e-08
0.000171475
-3.67191e-09
0.000171561
8.40375e-09
0.00017165