/*--------------------------------*- C++ -*----------------------------------*\
  =========                 |
  \\      /  F ield         | OpenFOAM: The Open Source CFD Toolbox
   \\    /   O peration     | Website:  https://openfoam.org
    \\  /    A nd           | Version:  10
     \\/     M anipulation  |
\*---------------------------------------------------------------------------*/
FoamFile
{
    format      ascii;
    class       volScalarField;
    location    "0.115";
    object      p;
}
// * * * * * * * * * * * * * * * * * * * * * * * * * * * * * * * * * * * * * //

dimensions      [0 2 -2 0 0 0 0];

internalField   nonuniform List<scalar> 
6820
(
6.3418
-7.99018
-9.99161
-10.1752
-10.3335
-10.2767
-10.2479
-10.2708
-10.3188
-10.3821
-10.4543
-10.5316
-10.6126
-10.6965
-10.7831
-10.8721
-10.9635
-11.0573
-11.1534
-11.2517
-11.3524
-11.4553
-11.5606
-11.668
-11.7776
-11.8891
-12.0025
-12.117
-12.2334
-12.3482
-12.4691
-12.5697
-12.7238
0.964918
-7.78663
-9.79584
-10.053
-10.2635
-10.2704
-10.2631
-10.2924
-10.3407
-10.4012
-10.4701
-10.5445
-10.6231
-10.7052
-10.7904
-10.8783
-10.969
-11.0622
-11.1578
-11.2559
-11.3562
-11.4589
-11.564
-11.6714
-11.7811
-11.8926
-12.006
-12.1208
-12.2373
-12.3535
-12.4746
-12.5881
-12.75
-1.11371
-6.57296
-9.0008
-9.59634
-9.98188
-10.1318
-10.1866
-10.2431
-10.3071
-10.3774
-10.4532
-10.5328
-10.6153
-10.7001
-10.7871
-10.8763
-10.9676
-11.0612
-11.1569
-11.2548
-11.355
-11.4576
-11.5624
-11.6694
-11.7785
-11.89
-12.0036
-12.1188
-12.2359
-12.3533
-12.4742
-12.588
-12.7078
-2.67959
-6.38807
-8.70161
-9.35521
-9.74194
-9.95504
-10.0601
-10.1485
-10.2355
-10.3208
-10.4061
-10.4922
-10.5793
-10.6678
-10.7578
-10.8494
-10.9426
-11.0377
-11.1346
-11.2334
-11.3341
-11.437
-11.5419
-11.649
-11.7582
-11.8696
-11.9831
-12.0987
-12.217
-12.3374
-12.4616
-12.5865
-12.718
-3.96258
-6.42986
-8.39151
-9.07828
-9.49326
-9.77211
-9.93102
-10.0499
-10.1563
-10.2546
-10.349
-10.4419
-10.5342
-10.6264
-10.719
-10.8126
-10.9073
-11.0032
-11.1006
-11.1995
-11.3
-11.4024
-11.5066
-11.6129
-11.7212
-11.8318
-11.9446
-12.0602
-12.1791
-12.3019
-12.4305
-12.5655
-12.713
-4.91758
-6.55012
-8.20437
-8.92208
-9.34648
-9.64741
-9.83226
-9.96749
-10.0857
-10.1932
-10.2944
-10.3923
-10.4885
-10.5838
-10.6788
-10.7739
-10.8696
-10.966
-11.0634
-11.162
-11.262
-11.3635
-11.4666
-11.5716
-11.6786
-11.7879
-11.9003
-12.016
-12.1357
-12.2604
-12.3929
-12.5357
-12.6968
-5.6601
-6.75899
-8.11324
-8.80112
-9.21177
-9.5212
-9.72996
-9.88442
-10.0165
-10.1343
-10.2428
-10.3461
-10.4462
-10.5443
-10.6413
-10.7378
-10.8344
-10.9313
-11.0289
-11.1272
-11.2267
-11.3273
-11.4294
-11.5333
-11.6392
-11.7475
-11.8587
-11.9733
-12.0923
-12.2174
-12.3512
-12.4968
-12.6612
-6.24064
-6.98527
-8.07155
-8.71269
-9.11192
-9.4235
-9.64681
-9.81364
-9.95437
-10.0791
-10.1929
-10.3002
-10.4035
-10.504
-10.6029
-10.7007
-10.7981
-10.8954
-10.993
-11.091
-11.1897
-11.2894
-11.3903
-11.4927
-11.597
-11.7035
-11.8128
-11.9258
-12.0436
-12.1677
-12.3005
-12.4452
-12.6072
-6.70017
-7.21307
-8.0772
-8.65875
-9.03749
-9.33979
-9.56825
-9.74348
-9.89157
-10.0228
-10.1421
-10.2537
-10.3602
-10.4633
-10.5639
-10.6631
-10.7612
-10.8588
-10.9562
-11.0538
-11.1518
-11.2504
-11.3499
-11.4508
-11.5532
-11.6578
-11.7651
-11.8759
-11.9912
-12.1126
-12.2421
-12.3822
-12.5369
-7.06846
-7.42828
-8.1109
-8.62642
-8.98104
-9.27105
-9.50063
-9.68156
-9.83494
-9.97083
-10.0941
-10.2089
-10.3179
-10.4228
-10.5249
-10.6249
-10.7235
-10.8212
-10.9183
-11.0152
-11.1122
-11.2095
-11.3075
-11.4064
-11.5067
-11.6089
-11.7134
-11.821
-11.9328
-12.0499
-12.1741
-12.3071
-12.4516
-7.36677
-7.62455
-8.16303
-8.61347
-8.94177
-9.21623
-9.44166
-9.62426
-9.78042
-9.91945
-10.0459
-10.1634
-10.2747
-10.3814
-10.4848
-10.5856
-10.6847
-10.7824
-10.8791
-10.9753
-11.0712
-11.1671
-11.2632
-11.3601
-11.4579
-11.5571
-11.6584
-11.7622
-11.8695
-11.9812
-12.0985
-12.2225
-12.3547
-7.61058
-7.7995
-8.22504
-8.61414
-8.91466
-9.17192
-9.39036
-9.57239
-9.72997
-9.8711
-9.99983
-10.1194
-10.2325
-10.3405
-10.4448
-10.5462
-10.6454
-10.7429
-10.839
-10.9342
-11.0288
-11.123
-11.2171
-11.3115
-11.4064
-11.5024
-11.5997
-11.6991
-11.8009
-11.9061
-12.0152
-12.1289
-12.2478
-7.81118
-7.95286
-8.29078
-8.62459
-8.89751
-9.13708
-9.34647
-9.52561
-9.68281
-9.82463
-9.95464
-10.0756
-10.1899
-10.299
-10.404
-10.5058
-10.605
-10.7021
-10.7975
-10.8916
-10.9847
-11.077
-11.1689
-11.2606
-11.3524
-11.4446
-11.5377
-11.6319
-11.7277
-11.8256
-11.9258
-12.0285
-12.1338
-7.97687
-8.08556
-8.3559
-8.64127
-8.88751
-9.10939
-9.30847
-9.48315
-9.63877
-9.78042
-9.91103
-10.0329
-10.1481
-10.2579
-10.3633
-10.4652
-10.5642
-10.6608
-10.7553
-10.8481
-10.9395
-11.0297
-11.1191
-11.2078
-11.2961
-11.3842
-11.4725
-11.5612
-11.6504
-11.7404
-11.8312
-11.9228
-12.0146
-8.11377
-8.19898
-8.41735
-8.66121
-8.88249
-9.08732
-9.27558
-9.44471
-9.59771
-9.73828
-9.86873
-9.99091
-10.1064
-10.2166
-10.3222
-10.424
-10.5226
-10.6184
-10.7119
-10.8032
-10.8928
-10.9807
-11.0674
-11.1529
-11.2375
-11.3213
-11.4045
-11.4873
-11.5696
-11.6516
-11.733
-11.8135
-11.8924
-8.22648
-8.29466
-8.47307
-8.68199
-8.88047
-9.06919
-9.24658
-9.40946
-9.55911
-9.69797
-9.82773
-9.94977
-10.0654
-10.1756
-10.2811
-10.3826
-10.4807
-10.5756
-10.6678
-10.7576
-10.8451
-10.9306
-11.0144
-11.0965
-11.1771
-11.2563
-11.3343
-11.4109
-11.4863
-11.5601
-11.6322
-11.702
-11.7687
-8.31841
-8.37404
-8.5217
-8.70159
-8.87972
-9.05357
-9.22047
-9.37683
-9.52266
-9.65935
-9.78796
-9.90947
-10.0248
-10.1348
-10.24
-10.3411
-10.4384
-10.5323
-10.6231
-10.7111
-10.7964
-10.8794
-10.9601
-11.0387
-11.1152
-11.1897
-11.2623
-11.3328
-11.4012
-11.4671
-11.5302
-11.59
-11.6456
-8.39216
-8.4384
-8.56238
-8.71844
-8.87874
-9.03914
-9.1962
-9.34607
-9.48785
-9.62207
-9.74924
-9.86992
-9.98475
-10.0943
-10.1991
-10.2995
-10.3959
-10.4886
-10.5779
-10.664
-10.7471
-10.8274
-10.9049
-10.9798
-11.0521
-11.1219
-11.1891
-11.2535
-11.315
-11.3733
-11.4279
-11.4784
-11.5239
-8.44964
-8.48879
-8.59451
-8.73123
-8.87621
-9.02472
-9.1728
-9.31648
-9.45424
-9.58589
-9.71147
-9.83117
-9.94533
-10.0543
-10.1585
-10.2582
-10.3536
-10.445
-10.5327
-10.6169
-10.6976
-10.7751
-10.8494
-10.9206
-10.9887
-11.0538
-11.1156
-11.1741
-11.2291
-11.2802
-11.327
-11.369
-11.4055
-8.49225
-8.52603
-8.6177
-8.7389
-8.87101
-9.00922
-9.14934
-9.28736
-9.42131
-9.55044
-9.67438
-9.79301
-9.9064
-10.0147
-10.1182
-10.217
-10.3113
-10.4014
-10.4874
-10.5695
-10.6478
-10.7224
-10.7935
-10.8609
-10.9249
-10.9852
-11.0419
-11.0947
-11.1434
-11.1878
-11.2274
-11.2618
-11.2903
-8.52098
-8.5507
-8.63164
-8.74058
-8.86212
-8.99167
-9.125
-9.25808
-9.38863
-9.5155
-9.63795
-9.7556
-9.86828
-9.97597
-10.0787
-10.1767
-10.2699
-10.3587
-10.443
-10.523
-10.5989
-10.6707
-10.7385
-10.8023
-10.8622
-10.918
-10.9697
-11.0171
-11.0601
-11.0983
-11.1314
-11.1591
-11.1807
-8.53647
-8.56314
-8.63601
-8.73549
-8.84862
-8.97117
-9.09893
-9.22791
-9.35561
-9.48055
-9.60173
-9.7185
-9.8305
-9.93755
-10.0396
-10.1366
-10.2288
-10.3161
-10.3986
-10.4766
-10.55
-10.6189
-10.6835
-10.7437
-10.7996
-10.851
-10.898
-10.9403
-10.9779
-11.0104
-11.0377
-11.0595
-11.0752
-8.53903
-8.56349
-8.63046
-8.72293
-8.82971
-8.94695
-9.07051
-9.19644
-9.32209
-9.44572
-9.56611
-9.68238
-9.79401
-9.90068
-10.0022
-10.0985
-10.1897
-10.2757
-10.3566
-10.4325
-10.5036
-10.5698
-10.6313
-10.6881
-10.7401
-10.7875
-10.83
-10.8677
-10.9004
-10.9279
-10.95
-10.9666
-10.9772
-8.52868
-8.55162
-8.61455
-8.70217
-8.80454
-8.91811
-9.03883
-9.16275
-9.28712
-9.41
-9.52997
-9.64601
-9.75743
-9.86379
-9.96485
-10.0605
-10.1506
-10.2352
-10.3145
-10.3884
-10.4571
-10.5206
-10.5791
-10.6325
-10.6809
-10.7243
-10.7627
-10.796
-10.8241
-10.8471
-10.8646
-10.8767
-10.883
-8.50514
-8.52718
-8.58773
-8.67254
-8.77248
-8.8842
-9.00374
-9.1271
-9.25142
-9.3746
-9.49505
-9.61161
-9.72345
-9.83004
-9.93107
-10.0263
-10.1158
-10.1993
-10.2772
-10.3493
-10.4158
-10.4768
-10.5324
-10.5827
-10.6277
-10.6674
-10.702
-10.7314
-10.7555
-10.7744
-10.7879
-10.7961
-10.7987
-8.46783
-8.48953
-8.5492
-8.63306
-8.73237
-8.84389
-8.96362
-9.08754
-9.21268
-9.33681
-9.45822
-9.57562
-9.68811
-9.79509
-9.89618
-9.99115
-10.0799
-10.1624
-10.2388
-10.3091
-10.3735
-10.432
-10.4848
-10.5321
-10.5738
-10.6101
-10.641
-10.6667
-10.6871
-10.7023
-10.7123
-10.7171
-10.7167
-8.41579
-8.43775
-8.49817
-8.58322
-8.68418
-8.79782
-8.92002
-9.04662
-9.17448
-9.30122
-9.42501
-9.54446
-9.6586
-9.76677
-9.86856
-9.96376
-10.0523
-10.1341
-10.2093
-10.2781
-10.3405
-10.3968
-10.447
-10.4914
-10.5301
-10.5632
-10.5909
-10.6132
-10.6302
-10.6421
-10.6489
-10.6507
-10.6476
-8.34764
-8.37038
-8.43298
-8.52096
-8.62522
-8.74242
-8.86831
-8.99856
-9.12991
-9.25989
-9.38657
-9.50848
-9.62461
-9.73426
-9.83701
-9.93262
-10.021
-10.1023
-10.1765
-10.2437
-10.3043
-10.3584
-10.4061
-10.4478
-10.4835
-10.5135
-10.538
-10.5572
-10.5711
-10.5799
-10.5839
-10.5831
-10.5777
-8.26158
-8.286
-8.3531
-8.4472
-8.55834
-8.68283
-8.81604
-8.95326
-9.09099
-9.22662
-9.35814
-9.48405
-9.60335
-9.71537
-9.81972
-9.91625
-10.0049
-10.0858
-10.1592
-10.2251
-10.284
-10.3359
-10.3813
-10.4204
-10.4533
-10.4805
-10.502
-10.5181
-10.5291
-10.5351
-10.5363
-10.533
-10.5252
-8.15478
-8.18121
-8.25404
-8.35546
-8.47429
-8.60671
-8.74787
-8.89273
-9.0376
-9.17973
-9.31697
-9.44776
-9.57106
-9.6862
-9.79282
-9.8908
-9.98018
-10.0611
-10.1339
-10.1987
-10.256
-10.306
-10.3491
-10.3856
-10.4158
-10.4401
-10.4588
-10.472
-10.4802
-10.4835
-10.4822
-10.4767
-10.4671
-8.02444
-8.05526
-8.13917
-8.25482
-8.3886
-8.53582
-8.69086
-8.84811
-9.00371
-9.15491
-9.29965
-9.43648
-9.56448
-9.68313
-9.79221
-9.8917
-9.98176
-10.0627
-10.1347
-10.1984
-10.254
-10.3019
-10.3427
-10.3766
-10.4041
-10.4255
-10.4412
-10.4515
-10.4567
-10.4572
-10.4532
-10.445
-10.4329
-7.86406
-7.89775
-7.99155
-8.11959
-8.26649
-8.42783
-8.5974
-8.76871
-8.93735
-9.10028
-9.25521
-9.4006
-9.53554
-9.65959
-9.77265
-9.87485
-9.9665
-10.048
-10.1199
-10.1826
-10.2368
-10.2828
-10.3213
-10.3527
-10.3775
-10.3961
-10.4089
-10.4163
-10.4188
-10.4166
-10.4102
-10.3999
-10.386
-7.67158
-7.71805
-7.8387
-7.99671
-8.17111
-8.35694
-8.54761
-8.73652
-8.9197
-9.09456
-9.25914
-9.4122
-9.5531
-9.6816
-9.79779
-9.90197
-9.99457
-10.0762
-10.1473
-10.2087
-10.261
-10.3047
-10.3405
-10.3689
-10.3905
-10.4057
-10.4151
-10.4191
-10.4181
-10.4126
-10.4028
-10.3893
-10.3721
-7.42552
-7.4711
-7.60539
-7.78358
-7.9825
-8.1966
-8.41595
-8.63151
-8.83842
-9.03367
-9.21512
-9.38168
-9.53304
-9.66932
-9.79101
-9.89877
-9.9934
-10.0757
-10.1466
-10.207
-10.2575
-10.2991
-10.3324
-10.3581
-10.3767
-10.389
-10.3953
-10.3963
-10.3923
-10.3839
-10.3715
-10.3556
-10.3365
-7.14392
-7.23712
-7.43917
-7.67045
-7.90661
-8.15025
-8.39345
-8.62821
-8.85118
-9.06005
-9.25294
-9.42895
-9.58786
-9.7299
-9.85564
-9.96587
-10.0616
-10.1437
-10.2134
-10.2715
-10.3192
-10.3574
-10.3867
-10.4082
-10.4224
-10.4301
-10.4317
-10.4279
-10.4192
-10.406
-10.3888
-10.3681
-10.3444
-6.71721
-6.78443
-7.01701
-7.30524
-7.6085
-7.91972
-8.22223
-8.50616
-8.7688
-9.0085
-9.22452
-9.41739
-9.58822
-9.73835
-9.86924
-9.98243
-10.0794
-10.1616
-10.2304
-10.287
-10.3326
-10.3682
-10.3949
-10.4135
-10.4247
-10.4292
-10.4277
-10.4206
-10.4085
-10.3919
-10.3713
-10.3475
-10.3209
-6.34944
-6.60122
-6.95492
-7.26985
-7.58466
-7.91385
-8.23404
-8.53642
-8.81919
-9.07877
-9.31281
-9.52099
-9.7039
-9.8627
-9.99902
-10.1147
-10.2116
-10.2917
-10.3568
-10.4084
-10.4481
-10.4772
-10.497
-10.5085
-10.5125
-10.5099
-10.5012
-10.4871
-10.4679
-10.4441
-10.4158
-10.384
-10.3486
-5.29313
-5.55792
-6.16568
-6.70732
-7.20324
-7.67221
-8.08979
-8.45847
-8.78578
-9.07445
-9.32749
-9.54831
-9.73983
-9.90468
-10.0453
-10.1639
-10.2627
-10.3437
-10.4088
-10.4596
-10.4979
-10.525
-10.5423
-10.5509
-10.5518
-10.5457
-10.5334
-10.5152
-10.4915
-10.4623
-10.4272
-10.3873
-10.339
-5.34168
-5.90039
-6.33855
-6.69803
-7.16811
-7.65614
-8.11196
-8.53826
-8.92643
-9.2681
-9.56305
-9.81389
-10.0239
-10.197
-10.3375
-10.4495
-10.5371
-10.6037
-10.6524
-10.686
-10.7068
-10.7167
-10.7174
-10.7105
-10.6969
-10.6778
-10.6536
-10.6249
-10.5916
-10.553
-10.5069
-10.4513
-10.3746
-0.397018
-4.08804
-5.40967
-6.07439
-6.86655
-7.53567
-8.07024
-8.53629
-8.94115
-9.28612
-9.57883
-9.82526
-10.0303
-10.1987
-10.3353
-10.4441
-10.529
-10.5934
-10.6403
-10.6724
-10.6918
-10.7007
-10.7005
-10.6927
-10.6785
-10.659
-10.635
-10.607
-10.5762
-10.5419
-10.5066
-10.4661
-10.4298
-12.642
-12.8177
-13.6744
-14.8819
-16.4449
-18.2753
-20.2238
-22.1341
-23.6735
-24.4465
-23.8795
-21.4169
-17.0549
-11.6313
-6.30871
-1.86326
1.45779
3.55593
4.33137
3.9538
2.41224
-0.544245
-5.20759
-11.7281
-19.6018
-27.8692
-35.607
-42.1222
-46.9081
-49.6178
-50.1533
-48.6621
-45.5555
-41.4984
-37.1938
-32.8158
-27.9096
-22.2059
-16.3885
-11.5242
-7.95233
-5.40247
-3.5412
-2.15095
-1.10096
-0.306089
0.293804
0.740008
1.05881
1.26461
1.32849
1.19199
0.714638
-0.677336
-3.92722
-9.61769
-17.1114
-24.9002
-31.4177
-35.4887
-36.4506
-34.0946
-28.7495
-21.7919
-15.14
-10.0054
-6.45391
-4.06362
-2.45252
-1.36963
-0.649791
-0.179323
0.121317
0.308139
0.420418
0.485209
0.52055
0.537913
0.544201
0.543261
0.537049
0.526459
0.511884
0.493546
0.471667
0.446576
0.418717
0.388632
0.356896
0.324079
0.290672
0.257151
0.223794
0.191101
0.158878
0.128241
0.0971177
0.0701113
0.036661
0.0193763
-12.8122
-12.9517
-13.7406
-14.9254
-16.4501
-18.2101
-20.0453
-21.705
-22.9446
-23.3571
-22.4559
-19.875
-15.7666
-10.9002
-6.19343
-2.22544
0.817824
2.87118
3.76714
3.44979
2.01893
-0.741461
-5.05331
-11.0273
-18.2875
-26.016
-33.3489
-39.5851
-44.2059
-46.8703
-47.5008
-46.2476
-43.502
-39.8798
-35.9674
-31.8175
-27.0223
-21.4664
-15.9225
-11.3462
-7.96169
-5.50153
-3.67514
-2.29419
-1.24154
-0.438151
0.172881
0.630943
0.960029
1.17351
1.24652
1.11747
0.666067
-0.584786
-3.50463
-8.6731
-15.5879
-22.8757
-29.0336
-32.9023
-33.8265
-31.6289
-26.6953
-20.373
-14.3791
-9.71742
-6.42337
-4.15017
-2.5845
-1.5126
-0.787108
-0.303195
0.0140261
0.218051
0.346793
0.426584
0.475118
0.503748
0.519395
0.526022
0.525759
0.519701
0.508456
0.492463
0.472152
0.448033
0.420703
0.390833
0.359102
0.326168
0.29258
0.258869
0.225319
0.192476
0.160057
0.129322
0.097881
0.0709111
0.0367336
0.0201308
-12.7963
-13.0815
-13.8701
-15.0077
-16.4174
-17.9968
-19.5822
-20.9478
-21.829
-21.8714
-20.7173
-18.1808
-14.4857
-10.257
-6.17606
-2.68127
0.0556215
1.98707
2.94425
2.74277
1.40319
-1.13822
-5.09766
-10.5259
-17.1403
-24.2641
-31.1123
-37.0038
-41.4234
-44.0385
-44.778
-43.7822
-41.4167
-38.237
-34.6928
-30.7365
-26.0401
-20.6606
-15.4319
-11.161
-7.96665
-5.59801
-3.80967
-2.44152
-1.38927
-0.579854
0.0401091
0.507935
0.845495
1.06424
1.14329
1.02049
0.586132
-0.546641
-3.15327
-7.79067
-14.0846
-20.8173
-26.5716
-30.2146
-31.1043
-29.0972
-24.6273
-18.9777
-13.6426
-9.43832
-6.39201
-4.23406
-2.71518
-1.65597
-0.925993
-0.429253
-0.0956474
0.125669
0.271136
0.366281
0.428383
0.468628
0.493929
0.508348
0.514189
0.51277
0.504934
0.491344
0.472637
0.449508
0.422711
0.393054
0.36132
0.328259
0.294479
0.260569
0.226816
0.193815
0.1612
0.13037
0.0986206
0.0716994
0.0368098
0.0209058
-12.8888
-13.2339
-13.9312
-14.9406
-16.169
-17.5114
-18.8061
-19.8369
-20.365
-20.1224
-18.8788
-16.5559
-13.3569
-9.74389
-6.22312
-3.15149
-0.712112
1.03437
1.96848
1.87073
0.638485
-1.70971
-5.31802
-10.2189
-16.1785
-22.6575
-28.9666
-34.4651
-38.6546
-41.2128
-42.0631
-41.3297
-39.3486
-36.5963
-33.3697
-29.5654
-24.9664
-19.8091
-14.9341
-10.9745
-7.96714
-5.69064
-3.944
-2.59259
-1.54398
-0.731129
-0.104473
0.370922
0.715058
0.936855
1.01883
0.900445
0.47711
-0.55766
-2.87018
-6.98026
-12.6271
-18.762
-24.0761
-27.4753
-28.3393
-26.5602
-22.6015
-17.6419
-12.9444
-9.17041
-6.35874
-4.314
-2.84373
-1.79925
-1.06619
-0.557355
-0.207623
0.0310477
0.193498
0.304355
0.380413
0.432646
0.467933
0.490427
0.502604
0.505994
0.50167
0.49053
0.473435
0.451276
0.424979
0.39549
0.363709
0.330478
0.29647
0.26233
0.228351
0.195175
0.162352
0.131415
0.0993524
0.0724743
0.0368721
0.0216704
-12.915
-13.2703
-13.8874
-14.7453
-15.7567
-16.8241
-17.8086
-18.5321
-18.8031
-18.4239
-17.2341
-15.19
-12.4495
-9.35722
-6.30688
-3.60321
-1.43282
0.107758
0.953445
0.903709
-0.206922
-2.39409
-5.68352
-10.0959
-15.4267
-21.2499
-26.9887
-32.0603
-35.9931
-38.4779
-39.4263
-38.9467
-37.3368
-34.9667
-31.9891
-28.2966
-23.8098
-18.932
-14.4404
-10.7895
-7.96365
-5.77985
-4.07851
-2.74766
-1.70592
-0.892322
-0.261317
0.219369
0.568069
0.791023
0.873025
0.757414
0.342671
-0.613134
-2.65919
-6.26458
-11.2595
-16.7676
-21.6099
-24.7487
-25.5982
-24.0823
-20.6661
-16.3886
-12.2907
-8.91514
-6.32454
-4.39076
-2.97054
-1.94261
-1.20775
-0.68756
-0.321956
-0.0658498
0.113875
0.240836
0.331266
0.395873
0.441469
0.472286
0.490966
0.49927
0.49852
0.48986
0.474382
0.45318
0.427358
0.39801
0.366153
0.332726
0.298468
0.264079
0.229862
0.196501
0.163466
0.132425
0.100056
0.0732302
0.0369287
0.0224456
-12.9177
-13.2688
-13.8018
-14.5055
-15.3137
-16.144
-16.882
-17.3827
-17.4878
-17.0401
-15.9228
-14.1159
-11.7465
-9.07938
-6.42674
-4.04859
-2.12036
-0.765876
-0.0373155
-0.0841191
-1.08713
-3.11447
-6.13994
-10.1236
-14.8864
-20.0783
-25.2367
-29.8589
-33.5123
-35.9003
-36.9243
-36.6798
-35.4067
-33.3413
-30.5359
-26.9234
-22.5912
-18.0561
-13.9626
-10.6084
-7.95622
-5.86545
-4.21304
-2.90656
-1.87493
-1.06333
-0.43036
0.0533763
0.404581
0.627117
0.706716
0.591957
0.185228
-0.708317
-2.5234
-5.66465
-10.0266
-14.8965
-19.244
-22.1116
-22.9606
-21.735
-18.868
-15.237
-11.686
-8.67296
-6.28943
-4.46431
-3.09553
-2.08597
-1.35069
-0.819892
-0.438671
-0.165025
0.0322969
0.175786
0.281028
0.358413
0.414663
0.454074
0.479462
0.49282
0.495719
0.489566
0.475693
0.455414
0.430018
0.400755
0.368769
0.335097
0.300548
0.265878
0.231397
0.197834
0.164576
0.133422
0.100745
0.0739714
0.0369741
0.0232126
-12.8824
-13.2116
-13.6704
-14.2512
-14.9012
-15.5474
-16.0924
-16.4161
-16.3906
-15.8969
-14.8524
-13.2498
-11.1923
-8.88648
-6.58136
-4.49725
-2.79391
-1.59841
-0.981787
-1.0486
-1.96153
-3.81902
-6.61006
-10.2369
-14.5162
-19.1442
-23.7443
-27.9082
-31.2614
-33.5262
-34.6043
-34.5646
-33.5595
-31.697
-28.9862
-25.4501
-21.3466
-17.2078
-13.5083
-10.4319
-7.94491
-5.94769
-4.34765
-3.06917
-2.05084
-1.24403
-0.611514
-0.126926
0.224731
0.445434
0.520913
0.405247
0.00686933
-0.835892
-2.45717
-5.18769
-8.96096
-13.2071
-17.0544
-19.6501
-20.5102
-19.5828
-17.2401
-14.195
-11.1298
-8.44358
-6.25393
-4.53521
-3.21906
-2.22956
-1.49516
-0.954487
-0.557866
-0.266527
-0.0512343
0.109254
0.229788
0.320381
0.387632
0.435896
0.468158
0.486666
0.493254
0.489604
0.477307
0.457904
0.43288
0.403649
0.371482
0.337522
0.302647
0.26767
0.232908
0.199132
0.165647
0.134382
0.101404
0.0746906
0.0370108
0.0239848
-12.8208
-13.1239
-13.5185
-13.995
-14.5099
-15.0011
-15.3878
-15.5731
-15.455
-14.9414
-13.9727
-12.5502
-10.7597
-8.76477
-6.76479
-4.94536
-3.45127
-2.40063
-1.87871
-1.97275
-2.80555
-4.48575
-7.03334
-10.3503
-14.2313
-18.393
-22.507
-26.2389
-29.2829
-31.4063
-32.516
-32.622
-31.7703
-29.9888
-27.3153
-23.907
-20.1234
-16.4088
-13.081
-10.2599
-7.92993
-6.02677
-4.48226
-3.23518
-2.23327
-1.43401
-0.804394
-0.321055
0.0291401
0.246756
0.317154
0.199261
-0.190281
-0.988534
-2.44949
-4.82876
-8.07869
-11.7449
-15.1104
-17.4437
-18.3177
-17.6708
-15.7974
-13.2616
-10.6196
-8.22654
-6.21857
-4.60398
-3.34148
-2.37364
-1.64137
-1.09152
-0.679662
-0.370411
-0.136708
0.041308
0.177655
0.281912
0.36053
0.417916
0.457236
0.480991
0.491305
0.490149
0.479385
0.460794
0.436069
0.406793
0.374377
0.34007
0.304819
0.269497
0.234426
0.200419
0.166698
0.135316
0.102038
0.0753886
0.0370343
0.0247455
-12.7366
-13.0085
-13.3429
-13.7291
-14.1313
-14.4972
-14.7597
-14.8395
-14.6555
-14.1376
-13.2442
-11.9827
-10.4242
-8.69876
-6.9671
-5.38519
-4.08312
-3.16913
-2.7279
-2.84468
-3.608
-5.11141
-7.39493
-10.3968
-13.9275
-17.7083
-21.4331
-24.8076
-27.575
-29.5549
-30.6464
-30.7809
-29.9314
-28.1392
-25.5314
-22.3606
-18.9689
-15.6712
-12.6803
-10.0918
-7.91172
-6.10304
-4.61676
-3.40423
-2.42175
-1.63277
-1.00844
-0.528361
-0.181342
0.0320549
0.097018
-0.0235532
-0.403788
-1.16037
-2.48732
-4.57308
-7.3756
-10.5293
-13.4545
-15.5426
-16.4215
-16.0132
-14.5346
-12.4281
-10.1512
-8.02144
-6.18413
-4.6714
-3.46336
-2.51864
-1.78969
-1.23126
-0.804244
-0.476775
-0.224135
-0.0279892
0.124748
0.243162
0.333528
0.400297
0.446833
0.475903
0.489946
0.491241
0.481937
0.464072
0.439556
0.410152
0.377411
0.342694
0.307019
0.271319
0.235918
0.201667
0.167705
0.136209
0.10264
0.0760637
0.0370499
0.0255096
-12.6342
-12.8739
-13.1544
-13.4641
-13.7728
-14.0364
-14.1994
-14.1985
-13.97
-13.461
-12.6429
-11.5259
-10.1693
-8.6778
-7.18175
-5.81227
-4.68449
-3.89732
-3.5288
-3.65934
-4.36054
-5.69894
-7.71379
-10.3727
-13.5365
-16.9609
-20.3549
-23.4387
-25.9765
-27.7953
-28.7685
-28.8058
-27.8971
-26.1404
-23.7229
-20.8955
-17.9141
-14.9961
-12.3035
-9.92736
-7.89099
-6.17682
-4.75097
-3.57582
-2.61565
-1.83959
-1.22284
-0.747926
-0.405553
-0.197262
-0.137724
-0.260469
-0.630683
-1.34672
-2.55806
-4.39949
-6.82826
-9.54678
-12.0875
-13.9509
-14.8163
-14.5923
-13.432
-11.682
-9.72035
-7.82823
-6.15157
-4.73836
-3.58539
-2.66513
-1.94056
-1.37407
-0.931863
-0.585749
-0.313537
-0.0985654
0.0712088
0.204315
0.306829
0.383248
0.43715
0.471591
0.48935
0.493034
0.485099
0.467854
0.443437
0.413801
0.380643
0.345439
0.309281
0.273156
0.237394
0.202882
0.168672
0.13706
0.103206
0.0767074
0.0370464
0.0262548
-12.5183
-12.7258
-12.9575
-13.2015
-13.4322
-13.6131
-13.6988
-13.6386
-13.3829
-12.892
-12.1468
-11.1593
-9.97921
-8.69145
-7.40246
-6.22227
-5.25167
-4.57967
-4.27799
-4.41732
-5.05909
-6.24959
-8.0133
-10.3264
-13.0888
-16.1131
-19.1493
-21.932
-24.2276
-25.8382
-26.6424
-26.5934
-25.7194
-24.138
-22.0236
-19.5704
-16.9648
-14.3767
-11.9476
-9.76694
-7.86856
-6.24836
-4.88464
-3.7494
-2.81423
-2.05359
-1.44662
-0.978625
-0.642143
-0.439545
-0.385146
-0.508839
-0.86773
-1.54355
-2.6515
-4.28636
-6.40333
-8.75777
-10.9702
-12.6296
-13.4622
-13.3718
-12.4644
-11.0115
-9.32387
-7.64718
-6.122
-4.80592
-3.70848
-2.81385
-2.09462
-1.52044
-1.06285
-0.69752
-0.404957
-0.170349
0.0171931
0.165579
0.280662
0.366999
0.428393
0.468231
0.489655
0.495629
0.488936
0.472175
0.447724
0.417735
0.384057
0.348282
0.311577
0.274985
0.238837
0.20405
0.16959
0.137866
0.103737
0.0773285
0.0370384
0.0270052
-12.392
-12.5685
-12.7569
-12.9454
-13.1123
-13.2272
-13.2533
-13.1504
-12.8803
-12.4136
-11.7383
-10.8671
-9.84189
-8.73193
-7.62458
-6.61219
-5.78229
-5.21364
-4.97162
-5.11726
-5.70216
-6.7607
-8.30283
-10.3015
-12.6734
-15.2719
-17.8973
-20.3219
-22.3273
-23.7264
-24.4217
-24.3859
-23.6535
-22.3179
-20.5148
-18.3942
-16.1081
-13.8045
-11.6106
-9.61134
-7.8452
-6.31787
-5.01747
-3.92434
-3.01663
-2.27378
-1.67862
-1.21912
-0.889545
-0.692909
-0.642989
-0.766113
-1.11183
-1.74721
-2.76021
-4.21612
-6.069
-8.11615
-10.0472
-11.5223
-12.3093
-12.3145
-11.6099
-10.4069
-8.95934
-7.47876
-6.09661
-4.87527
-3.83367
-2.96574
-2.25265
-1.67099
-1.19766
-0.812334
-0.498465
-0.243262
-0.037117
0.127199
0.255299
0.351818
0.420815
0.466048
0.491055
0.499187
0.49358
0.477137
0.452494
0.422008
0.387687
0.351242
0.313916
0.276804
0.240237
0.205157
0.170443
0.138609
0.104215
0.0779043
0.0370021
0.027726
-12.2587
-12.4064
-12.5566
-12.6981
-12.8128
-12.8755
-12.8566
-12.7245
-12.45
-12.0118
-11.403
-10.6361
-9.74674
-8.79197
-7.84369
-6.97937
-6.27444
-5.79774
-5.60787
-5.75749
-6.28904
-7.22874
-8.5783
-10.3066
-12.3388
-14.5519
-16.7832
-18.848
-20.5665
-21.7919
-22.4316
-22.443
-21.8522
-20.7322
-19.188
-17.3425
-15.3278
-13.2738
-11.2924
-9.46144
-7.82157
-6.38546
-5.14912
-4.09996
-3.22191
-2.499
-1.91752
-1.4679
-1.14603
-0.955365
-0.908943
-1.0298
-1.36022
-1.95459
-2.87896
-4.17655
-5.8016
-7.58503
-9.27211
-10.5814
-11.3176
-11.3919
-10.8519
-9.86101
-8.62494
-7.32356
-6.07665
-4.94777
-3.96227
-3.12197
-2.41566
-1.82653
-1.33685
-0.930516
-0.594162
-0.317227
-0.0915153
0.0894525
0.231054
0.338011
0.414697
0.465283
0.493747
0.50386
0.499139
0.482815
0.457791
0.426642
0.39154
0.354317
0.316291
0.278606
0.241589
0.206205
0.171236
0.139301
0.104656
0.0784588
0.0369667
0.0284569
-12.121
-12.2424
-12.3592
-12.4617
-12.5342
-12.5564
-12.5045
-12.3538
-12.0823
-11.675
-11.1285
-10.4551
-9.68513
-8.86574
-8.05639
-7.32199
-6.72712
-6.33138
-6.18638
-6.33728
-6.8189
-7.65092
-8.83103
-10.3277
-12.0739
-13.9648
-15.8657
-17.6257
-19.1007
-20.1675
-20.7409
-20.7769
-20.2923
-19.341
-18.0066
-16.3931
-14.6143
-12.7819
-10.9929
-9.31789
-7.79814
-6.45121
-5.27925
-4.27553
-3.42909
-2.72806
-2.1619
-1.72336
-1.40975
-1.22483
-1.18072
-1.29746
-1.61043
-2.16307
-3.00395
-4.15964
-5.58554
-7.14016
-8.61413
-9.77465
-10.4584
-10.5827
-10.1775
-9.36794
-8.31922
-7.18216
-6.06345
-5.02495
-4.0958
-3.28397
-2.58492
-1.98808
-1.48114
-1.05248
-0.692188
-0.392158
-0.145763
0.0526713
0.208286
0.325934
0.410366
0.46622
0.497963
0.509831
0.505753
0.489305
0.463678
0.43167
0.395624
0.357496
0.318679
0.28036
0.24286
0.207155
0.171933
0.139903
0.105025
0.0789508
0.0368913
0.0291453
-11.9816
-12.0792
-12.1674
-12.2375
-12.2765
-12.2677
-12.1923
-12.0312
-11.7683
-11.393
-10.9046
-10.3149
-9.64969
-8.94824
-8.25985
-7.63884
-7.14014
-6.81491
-6.70798
-6.85775
-7.29264
-8.02709
-9.05636
-10.3509
-11.852
-13.4708
-15.0949
-16.5995
-17.8639
-18.7826
-19.284
-19.3282
-18.9215
-18.1048
-16.9466
-15.5337
-13.962
-12.3267
-10.7117
-9.18109
-7.77532
-6.51518
-5.40749
-4.45034
-3.63713
-2.95966
-2.41027
-1.98378
-1.67877
-1.49921
-1.45609
-1.56676
-1.86019
-2.37045
-3.13225
-4.15971
-5.41013
-6.76493
-8.05194
-9.07945
-9.71022
-9.87036
-9.57626
-8.92281
-8.04091
-7.05516
-6.05844
-5.10852
-4.23608
-3.45351
-2.76201
-2.15692
-1.63146
-1.17878
-0.792731
-0.46797
-0.199589
0.0172378
0.18741
0.315998
0.408194
0.469175
0.503963
0.517304
0.513571
0.496716
0.470227
0.437139
0.399971
0.360801
0.321094
0.282079
0.244062
0.208025
0.172556
0.140445
0.105354
0.0794228
0.0368228
0.0298513
-11.8422
-11.9189
-11.9828
-12.0264
-12.0391
-12.0072
-11.916
-11.751
-11.5004
-11.1572
-10.7226
-10.2075
-9.6341
-9.03517
-8.45166
-7.92898
-7.51357
-7.249
-7.17374
-7.32012
-7.71123
-8.35747
-9.25251
-10.3693
-11.6567
-13.04
-14.4252
-15.7085
-16.7881
-17.5753
-18.0084
-18.0517
-17.7058
-17.0019
-15.9947
-14.7559
-13.366
-11.9059
-10.4485
-9.05135
-7.75345
-6.57742
-5.53351
-4.62367
-3.84501
-3.1925
-2.66109
-2.24742
-1.95117
-1.77639
-1.73289
-1.83553
-2.10749
-2.57488
-3.26151
-4.17242
-5.26725
-6.44661
-7.56895
-8.47695
-9.05639
-9.24158
-9.03967
-8.5213
-7.78876
-6.94311
-6.06311
-5.20046
-4.38527
-3.63275
-2.94889
-2.33467
-1.78897
-1.31007
-0.896035
-0.544572
-0.252666
-0.0164106
0.16891
0.308673
0.408604
0.474508
0.512034
0.526494
0.522747
0.505142
0.477486
0.443057
0.404554
0.364182
0.323474
0.283694
0.245126
0.208749
0.173042
0.140866
0.105588
0.0798132
0.0367018
0.0305011
-11.7049
-11.7633
-11.8068
-11.8291
-11.8215
-11.773
-11.6721
-11.508
-11.2722
-10.9605
-10.5752
-10.1264
-9.63336
-9.12332
-8.6304
-8.19249
-7.84865
-7.63569
-7.58627
-7.72738
-8.0776
-8.64424
-9.42012
-10.3807
-11.4818
-12.6604
-13.8381
-14.9285
-15.8462
-16.5175
-16.8877
-16.9256
-16.6281
-16.0184
-15.14
-14.0519
-12.8215
-11.5174
-10.2028
-8.92891
-7.73283
-6.63797
-5.65698
-4.79483
-4.0517
-3.4253
-2.91283
-2.51254
-2.22504
-2.05435
-2.00908
-2.10183
-2.35055
-2.77481
-3.3899
-4.19436
-5.15057
-6.17525
-7.15217
-7.95321
-8.48319
-8.68525
-8.56012
-8.15936
-7.56148
-6.84655
-6.07905
-5.30303
-4.54597
-3.82434
-3.14803
-2.52336
-1.95512
-1.44722
-1.00242
-0.621869
-0.304627
-0.0477655
0.153352
0.304507
0.412084
0.48263
0.522507
0.53766
0.533475
0.514726
0.485556
0.449496
0.40943
0.367683
0.325856
0.285239
0.246087
0.209362
0.17343
0.14121
0.105775
0.0801829
0.0365931
0.0311771
-11.5706
-11.6134
-11.6401
-11.6455
-11.6225
-11.5625
-11.4567
-11.2969
-11.0774
-10.796
-10.4556
-10.0657
-9.64265
-9.20938
-8.79427
-8.42889
-8.1459
-7.97624
-7.94729
-8.08141
-8.39343
-8.8883
-9.55854
-10.3821
-11.3211
-12.3223
-13.3202
-14.2432
-15.0199
-15.5882
-15.901
-15.9302
-15.671
-15.14
-14.3718
-13.4146
-12.3244
-11.1594
-9.97397
-8.81391
-7.71373
-6.6969
-5.77763
-4.96321
-4.25627
-3.65683
-3.16401
-2.77747
-2.49854
-2.33118
-2.28278
-2.36387
-2.58786
-2.96897
-3.51593
-4.22282
-5.05499
-5.9428
-6.79085
-7.49593
-7.97886
-8.19152
-8.13066
-7.83311
-7.35773
-6.76596
-6.10804
-5.41883
-4.7213
-4.03156
-3.36248
-2.72553
-2.13174
-1.5913
-1.11229
-0.699729
-0.355038
-0.076215
0.141394
0.304126
0.419184
0.493993
0.535734
0.551054
0.545917
0.525554
0.494457
0.456423
0.414523
0.371206
0.328129
0.286602
0.246838
0.209768
0.173636
0.1414
0.105844
0.0804527
0.036421
0.031784
-11.4412
-11.4707
-11.4837
-11.4759
-11.4418
-11.3745
-11.2672
-11.1143
-10.9118
-10.659
-10.3593
-10.0213
-9.65903
-9.29182
-8.94324
-8.63954
-8.40789
-8.27409
-8.26091
-8.38669
-8.66316
-9.09344
-9.67013
-10.3737
-11.1716
-12.0191
-12.8616
-13.6395
-14.293
-14.7704
-15.0308
-15.0497
-14.8206
-14.3555
-13.6815
-12.8378
-11.8709
-10.8299
-9.76161
-8.70647
-7.69637
-6.75426
-5.89524
-5.12824
-4.45783
-3.88593
-3.41326
-3.04064
-2.76999
-2.60512
-2.5523
-2.62003
-2.81815
-3.15634
-3.63842
-4.25558
-4.97632
-5.74251
-6.47608
-7.09473
-7.53315
-7.75158
-7.74486
-7.53873
-7.17608
-6.70178
-6.15197
-5.55091
-4.91506
-4.25851
-3.59613
-2.94442
-2.32118
-1.74368
-1.22616
-0.778052
-0.403387
-0.101038
0.13381
0.308261
0.430545
0.509128
0.552134
0.567001
0.56032
0.537808
0.504328
0.463945
0.419919
0.374816
0.33035
0.287831
0.247423
0.210009
0.173703
0.141485
0.105854
0.0806959
0.0362639
0.0324245
-11.3166
-11.335
-11.337
-11.3192
-11.2773
-11.2058
-11.0998
-10.9553
-10.7699
-10.5438
-10.2806
-9.98811
-9.67841
-9.3677
-9.0756
-8.82385
-8.63496
-8.53036
-8.52866
-8.64491
-8.88824
-9.26043
-9.75437
-10.3529
-11.0282
-11.7426
-12.4508
-13.103
-13.6499
-14.0475
-14.261
-14.2686
-14.0635
-13.6538
-13.0607
-12.3159
-11.4576
-10.5273
-9.56511
-8.60661
-7.68096
-6.81017
-6.00965
-5.28947
-4.65564
-4.11158
-3.65931
-3.30061
-3.03783
-2.87459
-2.81612
-2.86904
-3.04043
-3.33611
-3.75642
-4.29083
-4.91102
-5.56859
-6.20019