/*--------------------------------*- C++ -*----------------------------------*\
  =========                 |
  \\      /  F ield         | OpenFOAM: The Open Source CFD Toolbox
   \\    /   O peration     | Website:  https://openfoam.org
    \\  /    A nd           | Version:  10
     \\/     M anipulation  |
\*---------------------------------------------------------------------------*/
FoamFile
{
    format      ascii;
    class       surfaceScalarField;
    location    "0.115";
    object      phi;
}
// * * * * * * * * * * * * * * * * * * * * * * * * * * * * * * * * * * * * * //

dimensions      [0 3 -1 0 0 0 0];

internalField   nonuniform List<scalar> 
13452
(
4.01949e-05
2.00736e-05
2.59425e-05
1.42524e-05
1.85462e-05
7.39634e-06
1.51824e-05
3.3638e-06
1.37778e-05
1.40459e-06
1.30809e-05
6.96886e-07
1.26392e-05
4.41712e-07
1.23007e-05
3.38446e-07
1.2016e-05
2.84778e-07
1.1773e-05
2.42971e-07
1.15678e-05
2.05194e-07
1.13967e-05
1.71084e-07
1.12558e-05
1.40888e-07
1.11413e-05
1.14518e-07
1.10498e-05
9.15027e-08
1.09786e-05
7.1217e-08
1.09255e-05
5.3053e-08
1.0889e-05
3.64997e-08
1.0868e-05
2.10673e-08
1.08616e-05
6.32542e-09
1.08692e-05
-7.60188e-09
1.08903e-05
-2.10912e-08
1.09248e-05
-3.44268e-08
1.09723e-05
-4.75392e-08
1.10327e-05
-6.04265e-08
1.11059e-05
-7.31667e-08
1.11916e-05
-8.57256e-08
1.12887e-05
-9.70508e-08
1.13977e-05
-1.09021e-07
1.151e-05
-1.12342e-07
1.16374e-05
-1.27385e-07
1.17039e-05
-6.64746e-08
-2.06215e-07
1.19101e-05
6.5905e-05
1.61588e-05
6.19069e-05
1.82505e-05
5.56595e-05
1.36437e-05
4.98086e-05
9.21469e-06
4.53331e-05
5.88016e-06
4.21427e-05
3.88725e-06
3.98605e-05
2.72392e-06
3.81873e-05
2.01165e-06
3.69177e-05
1.55441e-06
3.59206e-05
1.24005e-06
3.51158e-05
1.01e-06
3.44529e-05
8.33961e-07
3.38992e-05
6.94626e-07
3.34324e-05
5.81317e-07
3.30369e-05
4.86973e-07
3.27014e-05
4.06665e-07
3.24176e-05
3.36853e-07
3.21792e-05
2.7494e-07
3.19813e-05
2.18966e-07
3.18201e-05
1.67502e-07
3.1693e-05
1.19548e-07
3.15977e-05
7.41615e-08
3.15327e-05
3.05461e-08
3.1497e-05
-1.17478e-08
3.14891e-05
-5.25612e-08
3.15083e-05
-9.23498e-08
3.15534e-05
-1.30882e-07
3.16238e-05
-1.67419e-07
3.17177e-05
-2.02897e-07
3.18357e-05
-2.30397e-07
3.19729e-05
-2.64561e-07
3.21734e-05
-2.66959e-07
-3.33017e-07
3.23002e-05
6.91818e-05
1.07384e-05
7.25116e-05
1.49208e-05
7.30731e-05
1.30822e-05
7.17123e-05
1.05755e-05
6.94856e-05
8.10688e-06
6.71286e-05
6.24426e-06
6.49237e-05
4.92881e-06
6.2961e-05
3.97429e-06
6.12508e-05
3.26466e-06
5.97707e-05
2.72011e-06
5.84917e-05
2.28904e-06
5.73857e-05
1.93999e-06
5.64279e-05
1.65244e-06
5.55972e-05
1.412e-06
5.4876e-05
1.20815e-06
5.42497e-05
1.03295e-06
5.37063e-05
8.80321e-07
5.32357e-05
7.45527e-07
5.28298e-05
6.24843e-07
5.2482e-05
5.15328e-07
5.21868e-05
4.14718e-07
5.19398e-05
3.21127e-07
5.17373e-05
2.33043e-07
5.15762e-05
1.49401e-07
5.14541e-05
6.94801e-08
5.13695e-05
-7.705e-09
5.1321e-05
-8.24002e-08
5.13072e-05
-1.53632e-07
5.13254e-05
-2.2112e-07
5.13755e-05
-2.80439e-07
5.14471e-05
-3.36215e-07
5.15483e-05
-3.68144e-07
-3.92922e-07
5.16082e-05
6.88462e-05
7.47533e-06
7.21623e-05
1.16047e-05
7.45392e-05
1.07053e-05
7.59533e-05
9.16135e-06
7.65383e-05
7.52187e-06
7.66116e-05
6.17095e-06
7.63811e-05
5.15928e-06
7.59722e-05
4.3832e-06
7.54652e-05
3.77171e-06
7.49084e-05
3.27684e-06
7.43324e-05
2.86508e-06
7.3757e-05
2.51538e-06
7.3196e-05
2.21342e-06
7.2659e-05
1.94908e-06
7.21517e-05
1.71545e-06
7.16776e-05
1.50702e-06
7.12386e-05
1.31931e-06
7.08355e-05
1.1486e-06
7.04685e-05
9.9187e-07
7.01372e-05
8.46594e-07
6.98412e-05
7.10727e-07
6.95798e-05
5.82528e-07
6.93523e-05
4.60557e-07
6.9158e-05
3.43743e-07
6.89961e-05
2.31343e-07
6.88656e-05
1.22836e-07
6.87652e-05
1.80022e-08
6.86947e-05
-8.31868e-08
6.86531e-05
-1.79542e-07
6.86409e-05
-2.6823e-07
6.86536e-05
-3.48899e-07
6.8697e-05
-4.11505e-07
-4.5142e-07
6.87555e-05
6.95594e-05
5.37268e-06
7.18378e-05
9.32632e-06
7.35415e-05
9.00156e-06
7.48145e-05
7.88835e-06
7.57101e-05
6.62627e-06
7.63661e-05
5.51501e-06
7.68689e-05
4.65648e-06
7.72606e-05
3.99148e-06
7.75695e-05
3.46285e-06
7.7814e-05
3.03228e-06
7.80071e-05
2.67199e-06
7.81589e-05
2.36362e-06
7.82767e-05
2.09561e-06
7.83661e-05
1.85962e-06
7.84328e-05
1.64883e-06
7.84816e-05
1.45817e-06
7.85171e-05
1.28377e-06
7.85432e-05
1.12257e-06
7.8563e-05
9.72044e-07
7.85795e-05
8.30145e-07
7.8595e-05
6.95189e-07
7.86118e-05
5.65772e-07
7.86316e-05
4.40746e-07
7.8656e-05
3.19272e-07
7.86866e-05
2.00782e-07
7.87244e-05
8.50757e-08
7.87696e-05
-2.7243e-08
7.88224e-05
-1.35944e-07
7.88835e-05
-2.40704e-07
7.89552e-05
-3.39875e-07
7.90382e-05
-4.31976e-07
7.91386e-05
-5.11843e-07
-5.74479e-07
7.92616e-05
7.08409e-05
3.91582e-06
7.26303e-05
7.53689e-06
7.39409e-05
7.69098e-06
7.48764e-05
6.95282e-06
7.55133e-05
5.9894e-06
7.59708e-05
5.05756e-06
7.63359e-05
4.29129e-06
7.66493e-05
3.67808e-06
7.69314e-05
3.18077e-06
7.71922e-05
2.77154e-06
7.74359e-05
2.42823e-06
7.76651e-05
2.13448e-06
7.78817e-05
1.87896e-06
7.80877e-05
1.65363e-06
7.82841e-05
1.45241e-06
7.84718e-05
1.27051e-06
7.86514e-05
1.10414e-06
7.88237e-05
9.50251e-07
7.89894e-05
8.06359e-07
7.91491e-05
6.70428e-07
7.93035e-05
5.40789e-07
7.94532e-05
4.16064e-07
7.95988e-05
2.95135e-07
7.9741e-05
1.77154e-07
7.98802e-05
6.15779e-08
8.00171e-05
-5.188e-08
8.01534e-05
-1.63545e-07
8.02909e-05
-2.73465e-07
8.04313e-05
-3.81082e-07
8.05769e-05
-4.85427e-07
8.07307e-05
-5.85776e-07
8.08991e-05
-6.80311e-07
-7.68758e-07
8.10934e-05
7.23896e-05
2.8926e-06
7.38443e-05
6.08219e-06
7.49764e-05
6.55888e-06
7.58009e-05
6.12828e-06
7.63674e-05
5.42294e-06
7.67595e-05
4.6654e-06
7.70537e-05
3.99707e-06
7.72922e-05
3.43964e-06
7.74983e-05
2.97465e-06
7.76855e-05
2.58432e-06
7.7861e-05
2.25277e-06
7.80285e-05
1.96694e-06
7.81904e-05
1.7171e-06
7.8348e-05
1.49604e-06
7.85023e-05
1.29814e-06
7.86538e-05
1.11895e-06
7.88031e-05
9.54883e-07
7.89503e-05
8.02999e-07
7.90958e-05
6.60891e-07
7.92397e-05
5.26559e-07
7.93821e-05
3.98343e-07
7.95233e-05
2.74856e-07
7.96635e-05
1.5496e-07
7.98029e-05
3.76964e-08
7.99422e-05
-7.77151e-08
8.00822e-05
-1.91811e-07
8.02236e-05
-3.04962e-07
8.03675e-05
-4.17377e-07
8.05155e-05
-5.2906e-07
8.06699e-05
-6.39884e-07
8.08343e-05
-7.50161e-07
8.10144e-05
-8.60382e-07
-9.72774e-07
8.12184e-05
7.4126e-05
2.17187e-06
7.52958e-05
4.91242e-06
7.62815e-05
5.57312e-06
7.70396e-05
5.37024e-06
7.75929e-05
4.86959e-06
7.7991e-05
4.2673e-06
7.82916e-05
3.69648e-06
7.85322e-05
3.19907e-06
7.87353e-05
2.77157e-06
7.8915e-05
2.40463e-06
7.90796e-05
2.08813e-06
7.92342e-05
1.81238e-06
7.93817e-05
1.56953e-06
7.95244e-05
1.3534e-06
7.96635e-05
1.15904e-06
7.98e-05
9.82408e-07
7.99347e-05
8.20179e-07
8.00681e-05
6.69598e-07
8.02006e-05
5.28365e-07
8.03327e-05
3.94552e-07
8.04645e-05
2.66537e-07
8.05964e-05
1.42951e-07
8.07287e-05
2.26147e-08
8.08618e-05
-9.54408e-08
8.09961e-05
-2.12006e-07
8.11321e-05
-3.27777e-07
8.12705e-05
-4.43366e-07
8.14124e-05
-5.59281e-07
8.15594e-05
-6.76008e-07
8.17136e-05
-7.94145e-07
8.18783e-05
-9.14873e-07
8.20581e-05
-1.04016e-06
-1.17331e-06
8.22586e-05
7.60175e-05
1.65687e-06
7.69563e-05
3.97362e-06
7.7809e-05
4.7204e-06
7.84959e-05
4.68326e-06
7.90237e-05
4.34184e-06
7.94208e-05
3.8702e-06
7.97294e-05
3.38785e-06
7.99809e-05
2.94761e-06
8.01948e-05
2.55764e-06
8.0384e-05
2.21541e-06
8.05566e-05
1.91554e-06
8.07176e-05
1.65138e-06
8.08703e-05
1.41682e-06
8.1017e-05
1.20674e-06
8.11592e-05
1.01686e-06
8.1298e-05
8.43573e-07
8.14343e-05
6.83839e-07
8.15688e-05
5.35104e-07
8.1702e-05
3.952e-07
8.18343e-05
2.62285e-07
8.1966e-05
1.34789e-07
8.20976e-05
1.13579e-08
8.22294e-05
-1.09169e-07
8.23617e-05
-2.27789e-07
8.24951e-05
-3.45393e-07
8.26301e-05
-4.62793e-07
8.27675e-05
-5.80759e-07
8.29083e-05
-7.00057e-07
8.30539e-05
-8.21572e-07
8.32062e-05
-9.4644e-07
8.33677e-05
-1.0764e-06
8.35417e-05
-1.21417e-06
-1.36311e-06
8.37315e-05
7.80337e-05
1.28275e-06
7.87871e-05
3.22023e-06
7.95225e-05
3.98501e-06
8.01427e-05
4.06302e-06
8.06415e-05
3.84311e-06
8.10324e-05
3.47921e-06
8.13445e-05
3.07578e-06
8.16028e-05
2.68934e-06
8.18242e-05
2.33619e-06
8.20205e-05
2.01916e-06
8.21994e-05
1.73667e-06
8.23659e-05
1.48482e-06
8.25235e-05
1.25919e-06
8.26746e-05
1.05572e-06
8.28206e-05
8.70829e-07
8.29628e-05
7.01352e-07
8.31021e-05
5.44563e-07
8.32391e-05
3.98108e-07
8.33743e-05
2.59957e-07
8.35083e-05
1.28356e-07
8.36413e-05
1.78392e-09
8.37737e-05
-1.21089e-07
8.3906e-05
-2.41421e-07
8.40384e-05
-3.60248e-07
8.41715e-05
-4.78518e-07
8.43059e-05
-5.97138e-07
8.44422e-05
-7.17019e-07
8.45812e-05
-8.39132e-07
8.47243e-05
-9.64624e-07
8.48728e-05
-1.09494e-06
8.50284e-05
-1.23207e-06
8.51932e-05
-1.37894e-06
-1.53851e-06
8.53686e-05
8.01553e-05
1.00575e-06
8.07618e-05
2.61377e-06
8.13955e-05
3.3513e-06
8.19547e-05
3.5038e-06
8.24231e-05
3.37476e-06
8.28041e-05
3.09818e-06
8.31162e-05
2.76364e-06
8.33789e-05
2.42663e-06
8.36065e-05
2.10861e-06
8.38092e-05
1.81644e-06
8.39943e-05
1.55164e-06
8.41665e-05
1.31261e-06
8.43292e-05
1.09648e-06
8.44847e-05
9.00202e-07
8.46347e-05
7.20845e-07
8.47803e-05
5.55706e-07
8.49225e-05
4.0236e-07
8.5062e-05
2.58661e-07
8.51992e-05
1.22721e-07
8.53347e-05
-7.12221e-09
8.54688e-05
-1.32328e-07
8.56019e-05
-2.54191e-07
8.57344e-05
-3.73868e-07
8.58665e-05
-4.92415e-07
8.59988e-05
-6.10826e-07
8.61318e-05
-7.30073e-07
8.62659e-05
-8.51157e-07
8.64019e-05
-9.75168e-07
8.65407e-05
-1.10338e-06
8.66831e-05
-1.23736e-06
8.68301e-05
-1.3791e-06
8.69826e-05
-1.53139e-06
-1.69654e-06
8.71406e-05
8.23698e-05
7.96358e-07
8.28604e-05
2.12319e-06
8.3406e-05
2.80569e-06
8.39092e-05
3.00059e-06
8.4347e-05
2.93703e-06
8.47159e-05
2.72921e-06
8.50264e-05
2.45315e-06
8.52925e-05
2.16051e-06
8.55258e-05
1.87536e-06
8.57348e-05
1.60741e-06
8.59261e-05
1.3604e-06
8.6104e-05
1.13462e-06
8.6272e-05
9.28544e-07
8.64322e-05
7.40028e-07
8.65862e-05
5.66776e-07
8.67354e-05
4.06524e-07
8.68806e-05
2.57153e-07
8.70226e-05
1.16729e-07
8.71618e-05
-1.64867e-08
8.72987e-05
-1.44057e-07
8.74337e-05
-2.67371e-07
8.75672e-05
-3.87686e-07
8.76995e-05
-5.06143e-07
8.78309e-05
-6.23801e-07
8.79617e-05
-7.4167e-07
8.80924e-05
-8.60752e-07
8.82233e-05
-9.82087e-07
8.8355e-05
-1.1068e-06
8.84878e-05
-1.2362e-06
8.86222e-05
-1.37179e-06
8.87586e-05
-1.51542e-06
8.88967e-05
-1.66953e-06
-1.8357e-06
8.90359e-05
8.46695e-05
6.34641e-07
8.50691e-05
1.72356e-06
8.55393e-05
2.33554e-06
8.59918e-05
2.54808e-06
8.63996e-05
2.52919e-06
8.67548e-05
2.37401e-06
8.70615e-05
2.14644e-06
8.73292e-05
1.89281e-06
8.75668e-05
1.63781e-06
8.77813e-05
1.39287e-06
8.79784e-05
1.16335e-06
8.8162e-05
9.50945e-07
8.83353e-05
7.55272e-07
8.85004e-05
5.7499e-07
8.86588e-05
4.08374e-07
8.88117e-05
2.53569e-07
8.89601e-05
1.08748e-07
8.91047e-05
-2.78181e-08
8.92459e-05
-1.57722e-07
8.93843e-05
-2.82419e-07
8.95201e-05
-4.03228e-07
8.96538e-05
-5.21356e-07
8.97856e-05
-6.37914e-07
8.99157e-05
-7.53944e-07
9.00445e-05
-8.70446e-07
9.01721e-05
-9.88415e-07
9.02989e-05
-1.10888e-06
9.04251e-05
-1.23293e-06
9.05507e-05
-1.36179e-06
9.06757e-05
-1.49685e-06
9.07999e-05
-1.63965e-06
9.09226e-05
-1.79219e-06
-1.95539e-06
9.10423e-05
8.70498e-05
5.07043e-07
8.73782e-05
1.39514e-06
8.77842e-05
1.92951e-06
8.81912e-05
2.14114e-06
8.85703e-05
2.15004e-06
8.89107e-05
2.03362e-06
8.92121e-05
1.84508e-06
8.948e-05
1.62488e-06
8.97209e-05
1.3969e-06
8.99403e-05
1.17343e-06
9.01429e-05
9.60796e-07
9.03321e-05
7.61735e-07
9.05106e-05
5.76735e-07
9.06805e-05
4.05125e-07
9.08432e-05
2.45675e-07
9.09999e-05
9.6897e-08
9.11514e-05
-4.27688e-08
9.12984e-05
-1.74854e-07
9.14415e-05
-3.00804e-07
9.15811e-05
-4.2197e-07
9.17174e-05
-5.39593e-07
9.18509e-05
-6.54822e-07
9.19817e-05
-7.6872e-07
9.21101e-05
-8.82291e-07
9.22361e-05
-9.965e-07
9.236e-05
-1.1123e-06
9.24818e-05
-1.23065e-06
9.26014e-05
-1.35257e-06
9.27187e-05
-1.47913e-06
9.28334e-05
-1.61152e-06
9.29447e-05
-1.75094e-06
9.30514e-05
-1.89893e-06
-2.05581e-06
9.31519e-05
8.95083e-05
4.04249e-07
8.97811e-05
1.12241e-06
9.01331e-05
1.57745e-06
9.04996e-05
1.77468e-06
9.08518e-05
1.79778e-06
9.11771e-05
1.70832e-06
9.14721e-05
1.55017e-06
9.1739e-05
1.35792e-06
9.19822e-05
1.15372e-06
9.22057e-05
9.49925e-07
9.24131e-05
7.53365e-07
9.26075e-05
5.67413e-07
9.2791e-05
3.93208e-07
9.29655e-05
2.30607e-07
9.31324e-05
7.87912e-08
9.32927e-05
-6.34092e-08
9.34472e-05
-1.97315e-07
9.35967e-05
-3.24274e-07
9.37414e-05
-4.45598e-07
9.3882e-05
-5.62531e-07
9.40186e-05
-6.76233e-07
9.41516e-05
-7.87783e-07
9.42811e-05
-8.98187e-07
9.44072e-05
-1.00839e-06
9.453e-05
-1.1193e-06
9.46495e-05
-1.2318e-06
9.47656e-05
-1.34675e-06
9.4878e-05
-1.46504e-06
9.49865e-05
-1.58757e-06
9.50902e-05
-1.71528e-06
9.51883e-05
-1.84902e-06
9.52793e-05
-1.98991e-06
-2.13778e-06
9.53613e-05
9.20443e-05
3.19764e-07
9.22735e-05
8.93221e-07
9.25806e-05
1.27043e-06
9.29115e-05
1.44376e-06
9.3239e-05
1.47027e-06
9.35494e-05
1.3979e-06
9.38372e-05
1.2624e-06
9.41023e-05
1.09283e-06
9.43469e-05
9.0908e-07
9.45738e-05
7.23003e-07
9.47857e-05
5.41496e-07
9.49848e-05
3.68269e-07
9.51732e-05
2.04877e-07
9.53522e-05
5.15642e-08
9.55232e-05
-9.21691e-08
9.5687e-05
-2.27235e-07
9.58444e-05
-3.54751e-07
9.59961e-05
-4.75906e-07
9.61423e-05
-5.91887e-07
9.62836e-05
-7.03836e-07
9.64202e-05
-8.12828e-07
9.65523e-05
-9.19869e-07
9.668e-05
-1.02589e-06
9.68034e-05
-1.13178e-06
9.69225e-05
-1.23834e-06
9.7037e-05
-1.34638e-06
9.71469e-05
-1.45664e-06
9.72517e-05
-1.56985e-06
9.73509e-05
-1.68673e-06
9.74436e-05
-1.80794e-06
9.75286e-05
-1.93406e-06
9.76044e-05
-2.06577e-06
-2.20256e-06
9.76692e-05
9.46579e-05
2.48979e-07
9.48531e-05
6.98072e-07
9.51229e-05
1.00067e-06
9.5423e-05
1.14365e-06
9.57281e-05
1.1651e-06
9.60244e-05
1.10161e-06
9.63049e-05
9.81947e-07
9.65676e-05
8.30158e-07
9.6813e-05
6.63601e-07
9.70428e-05
4.93219e-07
9.72587e-05
3.25651e-07
9.74623e-05
1.64662e-07
9.76551e-05
1.20216e-08
9.78385e-05
-1.31782e-07
9.80133e-05
-2.67021e-07
9.81805e-05
-3.94415e-07
9.83407e-05
-5.14916e-07
9.84943e-05
-6.29581e-07
9.86419e-05
-7.39484e-07
9.87838e-05
-8.45672e-07
9.89201e-05
-9.49136e-07
9.9051e-05
-1.0508e-06
9.91767e-05
-1.15153e-06
9.9297e-05
-1.25211e-06
9.94119e-05
-1.35328e-06
9.95213e-05
-1.45571e-06
9.96246e-05
-1.56003e-06
9.97216e-05
-1.66681e-06
9.98114e-05
-1.77656e-06
9.98932e-05
-1.88972e-06
9.99658e-05
-2.00659e-06
0.000100027
-2.12751e-06
-2.25172e-06
0.000100077
9.73499e-05
1.88549e-07
9.75185e-05
5.29506e-07
9.77578e-05
7.61429e-07
9.80316e-05
8.69847e-07
9.8317e-05
8.79668e-07
9.86003e-05
8.1831e-07
9.88736e-05
7.08591e-07
9.91337e-05
5.7011e-07
9.93796e-05
4.17641e-07
9.96119e-05
2.60944e-07
9.98314e-05
1.06142e-07
0.000100039
-4.31653e-08
0.000100236
-1.85176e-07
0.000100424
-3.19287e-07
0.000100603
-4.4564e-07
0.000100773
-5.64823e-07
0.000100936
-6.77671e-07
0.000101091
-7.85134e-07
0.00010124
-8.88194e-07
0.000101382
-9.87811e-07
0.000101518
-1.0849e-06
0.000101647
-1.1803e-06
0.000101771
-1.2748e-06
0.000101888
-1.3691e-06
0.000101998
-1.46383e-06
0.000102102
-1.55956e-06
0.000102199
-1.65677e-06
0.000102288
-1.7559e-06
0.000102369
-1.85725e-06
0.00010244
-1.96107e-06
0.000102501
-2.06742e-06
0.00010255
-2.1764e-06
-2.28706e-06
0.000102585
0.000100122
1.3599e-07
0.00010027
3.81625e-07
0.000100484
5.46887e-07
0.000100736
6.18111e-07
0.000101004
6.11256e-07
0.000101276
5.46507e-07
0.000101543
4.41688e-07
0.000101801
3.12511e-07
0.000102047
1.71244e-07
0.000102282
2.63038e-08
0.000102505
-1.16893e-07
0.000102717
-2.55091e-07
0.000102918
-3.86612e-07
0.00010311
-5.10863e-07
0.000103292
-6.27942e-07
0.000103465
-7.38373e-07
0.000103631
-8.42917e-07
0.000103788
-9.42452e-07
0.000103938
-1.03789e-06
0.00010408
-1.13011e-06
0.000104215
-1.21996e-06
0.000104343
-1.3082e-06
0.000104464
-1.39554e-06
0.000104577
-1.4826e-06
0.000104683
-1.56989e-06
0.000104782
-1.65789e-06
0.000104872
-1.74695e-06
0.000104953
-1.83734e-06
0.000105025
-1.92924e-06
0.000105087
-2.0227e-06
0.000105137
-2.11761e-06
0.000105174
-2.21387e-06
-2.31044e-06
0.000105198
0.000102975
8.94084e-08
0.000103107
2.49704e-07
0.000103301
3.51998e-07
0.000103535
3.84437e-07
0.000103789
3.57042e-07
0.000104051
2.84416e-07
0.000104313
1.80237e-07
0.000104569
5.68569e-08
0.000104816
-7.58136e-08
0.000105053
-2.10778e-07
0.000105279
-3.43459e-07
0.000105495
-4.7109e-07
0.000105701
-5.92249e-07
0.000105896
-7.06461e-07
0.000106082
-8.13866e-07
0.000106259
-9.14987e-07
0.000106427
-1.01056e-06
0.000106586
-1.10142e-06
0.000106736
-1.18842e-06
0.000106878
-1.27241e-06
0.000107013
-1.35415e-06
0.000107139
-1.43434e-06
0.000107257
-1.51362e-06
0.000107367
-1.5925e-06
0.000107468
-1.67143e-06
0.000107561
-1.75076e-06
0.000107645
-1.83073e-06
0.000107719
-1.9115e-06
0.000107783
-1.9931e-06
0.000107836
-2.07546e-06
0.000107876
-2.15831e-06
0.000107904
-2.24145e-06
-2.3238e-06
0.000107917
0.000105911
4.73109e-08
0.000106031
1.29884e-07
0.00010621
1.72345e-07
0.00010643
1.65028e-07
0.000106673
1.14107e-07
0.000106927
2.99575e-08
0.000107184
-7.7157e-08
0.000107439
-1.97774e-07
0.000107687
-3.24154e-07
0.000107927
-4.50742e-07
0.000108158
-5.73889e-07
0.000108378
-6.91428e-07
0.000108588
-8.02306e-07
0.000108788
-9.0626e-07
0.000108978
-1.00356e-06
0.000109158
-1.09477e-06
0.000109328
-1.18067e-06
0.000109488
-1.26207e-06
0.00010964
-1.33982e-06
0.000109782
-1.41471e-06
0.000109915
-1.48746e-06
0.00011004
-1.55872e-06
0.000110155
-1.62904e-06
0.000110261
-1.69887e-06
0.000110359
-1.76857e-06
0.000110446
-1.83839e-06
0.000110524
-1.90849e-06
0.000110591
-1.9789e-06
0.000110648
-2.04957e-06
0.000110693
-2.1203e-06
0.000110725
-2.19077e-06
0.000110744
-2.26065e-06
-2.32889e-06
0.000110749
0.000108932
8.48225e-09
0.000109043
1.89344e-08
0.000109212
3.99573e-09
0.00010942
-4.37482e-08
0.000109655
-1.20543e-07
0.000109904
-2.19179e-07
0.000110159
-3.32188e-07
0.000110414
-4.5259e-07
0.000110664
-5.74637e-07
0.000110908
-6.94197e-07
0.000111143
-8.08617e-07
0.000111368
-9.16415e-07
0.000111582
-1.017e-06
0.000111786
-1.1104e-06
0.00011198
-1.19709e-06
0.000112163
-1.27777e-06
0.000112336
-1.35325e-06
0.000112498
-1.42439e-06
0.00011265
-1.49203e-06
0.000112792
-1.55696e-06
0.000112925
-1.61985e-06
0.000113047
-1.6813e-06
0.00011316
-1.74182e-06
0.000113263
-1.80178e-06
0.000113356
-1.86147e-06
0.000113439
-1.92106e-06
0.000113511
-1.98063e-06
0.000113572
-2.04013e-06
0.000113622
-2.09942e-06
0.00011366
-2.15825e-06
0.000113685
-2.21624e-06
0.000113698
-2.27302e-06
-2.32759e-06
0.000113696
0.000112041
-2.81233e-08
0.000112146
-8.59574e-08
0.000112307
-1.56667e-07
0.000112508
-2.45471e-07
0.000112738
-3.50093e-07
0.000112984
-4.65675e-07
0.000113239
-5.87042e-07
0.000113496
-7.09361e-07
0.00011375
-8.28704e-07
0.000113998
-9.42338e-07
0.000114238
-1.04864e-06
0.000114469
-1.14689e-06
0.000114689
-1.23703e-06
0.000114898
-1.31949e-06
0.000115096
-1.39498e-06
0.000115282
-1.46438e-06
0.000115458
-1.52862e-06
0.000115622
-1.58863e-06
0.000115775
-1.64528e-06
0.000115918
-1.69934e-06
0.000116049
-1.75148e-06
0.00011617
-1.80227e-06
0.000116281
-1.85216e-06
0.00011638
-1.90148e-06
0.000116469
-1.95045e-06
0.000116547
-1.99918e-06
0.000116614
-2.04768e-06
0.00011667
-2.09585e-06
0.000116714
-2.14349e-06
0.000116746
-2.19031e-06
0.000116766
-2.23589e-06
0.000116773
-2.27985e-06
-2.32125e-06
0.000116766
0.00011524
-6.34166e-08
0.000115341
-1.87326e-07
0.000115498
-3.13038e-07
0.000115696
-4.43681e-07
0.000115923
-5.77826e-07
0.00011617
-7.12384e-07
0.000116427
-8.44085e-07
0.000116688
-9.6999e-07
0.000116947
-1.08786e-06
0.000117201
-1.19634e-06
0.000117447
-1.29488e-06
0.000117684
-1.38356e-06
0.00011791
-1.46295e-06
0.000118124
-1.53393e-06
0.000118327
-1.59752e-06
0.000118517
-1.65484e-06
0.000118696
-1.70697e-06
0.000118862
-1.75493e-06
0.000119016
-1.79966e-06
0.000119159
-1.84193e-06
0.00011929
-1.88245e-06
0.000119409
-1.92173e-06
0.000119517
-1.96021e-06
0.000119614
-1.99818e-06
0.000119699
-2.0358e-06
0.000119773
-2.07314e-06
0.000119836
-2.11016e-06
0.000119887
-2.14672e-06
0.000119926
-2.18259e-06
0.000119953
-2.21745e-06
0.000119968
-2.25089e-06
0.000119971
-2.28253e-06
-2.31154e-06
0.000119961
0.000118531
-9.82803e-08
0.000118631
-2.87636e-07
0.000118787
-4.68572e-07
0.000118985
-6.42205e-07
0.000119215
-8.07562e-07
0.000119465
-9.62911e-07
0.000119728
-1.1066e-06
0.000119995
-1.23741e-06
0.000120262
-1.35469e-06
0.000120524
-1.45845e-06
0.000120779
-1.54925e-06
0.000121023
-1.62807e-06
0.000121256
-1.69614e-06
0.000121477
-1.75486e-06
0.000121685
-1.80566e-06
0.00012188
-1.84991e-06
0.000122062
-1.8889e-06
0.000122231
-1.92378e-06
0.000122387
-1.95556e-06
0.00012253
-1.98508e-06
0.000122661
-2.01304e-06
0.000122779
-2.03997e-06
0.000122885
-2.06627e-06
0.000122979
-2.0922e-06
0.000123061
-2.1179e-06
0.000123132
-2.1434e-06
0.00012319
-2.16861e-06
0.000123237
-2.19339e-06
0.000123272
-2.21746e-06
0.000123295
-2.24051e-06
0.000123306
-2.26212e-06
0.000123305
-2.28194e-06
-2.29917e-06
0.000123293
0.000121917
-1.33579e-07
0.000122018
-3.89312e-07
0.000122176
-6.2669e-07
0.000122379
-8.4485e-07
0.000122615
-1.04306e-06
0.000122872
-1.2207e-06
0.000123143
-1.37761e-06
0.00012342
-1.51417e-06
0.000123697
-1.63132e-06
0.000123969
-1.73043e-06
0.000124233
-1.81322e-06
0.000124486
-1.88161e-06
0.000124728
-1.93759e-06
0.000124956
-1.98312e-06
0.00012517
-2.02007e-06
0.000125371
-2.05016e-06
0.000125557
-2.07488e-06
0.000125728
-2.09557e-06
0.000125886
-2.11334e-06
0.00012603
-2.12909e-06
0.000126161
-2.14355e-06
0.000126278
-2.15727e-06
0.000126382
-2.17063e-06
0.000126474
-2.18388e-06
0.000126553
-2.19713e-06
0.00012662
-2.21039e-06
0.000126675
-2.22356e-06
0.000126718
-2.23645e-06
0.00012675
-2.2488e-06
0.000126769
-2.2603e-06
0.000126778
-2.27055e-06
0.000126775
-2.27924e-06
-2.28565e-06
0.000126762
0.0001254
-1.70316e-07
0.000125506
-4.95186e-07
0.000125671
-7.91589e-07
0.000125883
-1.05663e-06
0.000126129
-1.28969e-06
0.0001264
-1.49117e-06
0.000126685
-1.66229e-06
0.000126975
-1.80506e-06
0.000127266
-1.922e-06
0.000127552
-2.01597e-06
0.000127828
-2.08991e-06
0.000128093
-2.14678e-06
0.000128345
-2.1894e-06
0.000128583
-2.22038e-06
0.000128805
-2.24209e-06
0.000129011
-2.2566e-06
0.000129202
-2.2657e-06
0.000129377
-2.2709e-06
0.000129537
-2.27344e-06
0.000129682
-2.2743e-06
0.000129813
-2.27425e-06
0.00012993
-2.27387e-06
0.000130033
-2.27353e-06
0.000130122
-2.27346e-06
0.000130199
-2.27377e-06
0.000130263
-2.27445e-06
0.000130315
-2.27536e-06
0.000130355
-2.27633e-06
0.000130383
-2.27707e-06
0.0001304
-2.27728e-06
0.000130406
-2.27658e-06
0.000130401
-2.27463e-06
-2.27079e-06
0.000130386
0.000128984
-2.09451e-07
0.000129097
-6.08014e-07
0.000129273
-9.67133e-07
0.000129498
-1.28181e-06
0.00012976
-1.55168e-06
0.000130047
-1.77824e-06
0.000130349
-1.9642e-06
0.000130657
-2.11324e-06
0.000130965
-2.22961e-06
0.000131266
-2.31765e-06
0.000131558
-2.38165e-06
0.000131837
-2.42568e-06
0.000132101
-2.45346e-06
0.000132349
-2.46832e-06
0.00013258
-2.47317e-06
0.000132794
-2.47051e-06
0.000132991
-2.46244e-06
0.00013317
-2.45069e-06
0.000133334
-2.43664e-06
0.000133481
-2.42138e-06
0.000133612
-2.40573e-06
0.000133729
-2.39028e-06
0.00013383
-2.37542e-06
0.000133918
-2.36138e-06
0.000133993
-2.34825e-06
0.000134054
-2.33599e-06
0.000134104
-2.32448e-06
0.000134141
-2.3135e-06
0.000134166
-2.3028e-06
0.000134181
-2.29206e-06
0.000134186
-2.28094e-06
0.00013418
-2.26913e-06
-2.25605e-06
0.000134165
0.000132672
-2.52677e-07
0.000132797
-7.32427e-07
0.00013299
-1.1603e-06
0.000133237
-1.52889e-06
0.000133524
-1.83823e-06
0.000133836
-2.09109e-06
0.000134164
-2.29187e-06
0.000134497
-2.44628e-06
0.000134828
-2.5605e-06
0.000135151
-2.64067e-06
0.000135462
-2.69256e-06
0.000135758
-2.72147e-06
0.000136036
-2.73212e-06
0.000136297
-2.72863e-06
0.000136538
-2.71451e-06
0.00013676
-2.6927e-06
0.000136963
-2.66564e-06
0.000137148
-2.63526e-06
0.000137314
-2.60312e-06
0.000137463
-2.5704e-06
0.000137596
-2.53798e-06
0.000137712
-2.50647e-06
0.000137813
-2.47627e-06
0.000137899
-2.4476e-06
0.000137971
-2.42054e-06
0.00013803
-2.39502e-06
0.000138077
-2.3709e-06
0.000138111
-2.34797e-06
0.000138134
-2.32595e-06
0.000138147
-2.30451e-06
0.000138149
-2.2833e-06
0.000138142
-2.26202e-06
-2.24006e-06
0.000138126
0.000136466
-3.00841e-07
0.000136605
-8.71326e-07
0.00013682
-1.37485e-06
0.000137093
-1.8018e-06
0.000137408
-2.1533e-06
0.000137751
-2.43384e-06
0.000138108
-2.64972e-06
0.000138471
-2.80885e-06
0.00013883
-2.91958e-06
0.000139179
-2.98994e-06
0.000139514
-3.02738e-06
0.000139831
-3.03861e-06
0.000140129
-3.02947e-06
0.000140405
-3.00496e-06
0.00014066
-2.96928e-06
0.000140893
-2.92587e-06
0.000141105
-2.87753e-06
0.000141296
-2.82646e-06
0.000141467
-2.77438e-06
0.000141619
-2.72257e-06
0.000141753
-2.67197e-06
0.00014187
-2.62322e-06
0.000141971
-2.5767e-06
0.000142056
-2.53263e-06
0.000142126
-2.49104e-06
0.000142183
-2.45188e-06
0.000142227
-2.41496e-06
0.000142259
-2.38005e-06
0.00014228
-2.34685e-06
0.000142291
-2.31506e-06
0.000142292
-2.28431e-06
0.000142284
-2.25433e-06
-2.22454e-06
0.000142268
0.000140374
-3.58587e-07
0.000140538
-1.03592e-06
0.00014079
-1.62666e-06
0.000141107
-2.11844e-06
0.000141468
-2.51452e-06
0.000141856
-2.8221e-06
0.000142257
-3.05049e-06
0.000142659
-3.21073e-06
0.000143053
-3.3139e-06
0.000143433
-3.37032e-06
0.000143795
-3.3893e-06
0.000144136
-3.37903e-06
0.000144453
-3.34655e-06
0.000144746
-3.29775e-06
0.000145014
-3.23753e-06
0.000145258
-3.16982e-06
0.000145478
-3.09779e-06
0.000145676
-3.02388e-06
0.000145851
-2.94997e-06
0.000146006
-2.87743e-06
0.000146141
-2.80724e-06
0.000146258
-2.74005e-06
0.000146358
-2.67623e-06
0.000146441
-2.61598e-06
0.000146509
-2.55929e-06
0.000146563
-2.50606e-06
0.000146605
-2.45609e-06
0.000146634
-2.4091e-06
0.000146651
-2.36478e-06
0.000146659
-2.32276e-06
0.000146658
-2.28266e-06
0.000146647
-2.24414e-06
-2.2066e-06
0.000146629
0.00014439
-4.23782e-07
0.000144579
-1.22517e-06
0.000144867
-1.91473e-06
0.000145228
-2.47922e-06
0.000145639
-2.92533e-06
0.000146079
-3.26282e-06
0.000146533
-3.50402e-06
0.000146986
-3.66357e-06
0.000147428
-3.75587e-06
0.000147851
-3.79401e-06
0.000148252
-3.78965e-06
0.000148626
-3.75286e-06
0.000148971
-3.69209e-06
0.000149288
-3.61435e-06
0.000149576
-3.52529e-06
0.000149835
-3.42943e-06
0.000150068
-3.33028e-06
0.000150274
-3.23056e-06
0.000150457
-3.13225e-06
0.000150616
-3.0368e-06
0.000150754
-2.94519e-06
0.000150872
-2.85806e-06
0.000150971
-2.77573e-06
0.000151054
-2.69834e-06
0.00015112
-2.62583e-06
0.000151172
-2.55804e-06
0.000151211
-2.49471e-06
0.000151237
-2.43553e-06
0.000151253
-2.38014e-06
0.000151258
-2.32817e-06
0.000151255
-2.27921e-06
0.000151243
-2.23294e-06
-2.18871e-06
0.000151226
0.00014854
-5.1578e-07
0.00014879
-1.47569e-06
0.000149157
-2.28165e-06
0.000149601
-2.92246e-06
0.00015009
-3.41481e-06
0.000150602
-3.77497e-06
0.000151119
-4.02085e-06
0.000151627
-4.17198e-06
0.000152118
-4.24638e-06
0.000152584
-4.25993e-06
0.000153021
-4.22651e-06
0.000153426
-4.15799e-06
0.000153798
-4.06418e-06
0.000154137
-3.9531e-06
0.000154443
-3.8312e-06
0.000154717
-3.70352e-06
0.00015496
-3.57396e-06
0.000155175
-3.44546e-06
0.000155363
-3.32013e-06
0.000155526
-3.19948e-06
0.000155665
-3.08449e-06
0.000155783
-2.97574e-06
0.000155881
-2.8735e-06
0.00015596
-2.77782e-06
0.000156023
-2.68857e-06
0.00015607
-2.6055e-06
0.000156104
-2.52829e-06
0.000156125
-2.45656e-06
0.000156135
-2.38988e-06
0.000156134
-2.32783e-06
0.000156125
-2.26994e-06
0.000156108
-2.21579e-06
-2.16465e-06
0.000156084
0.000152783
-6.10156e-07
0.00015307
-1.76209e-06
0.000153498
-2.70953e-06
0.000154023
-3.44813e-06
0.00015461
-4.00115e-06
0.000155224
-4.38886e-06
0.000155839
-4.63667e-06
0.000156439
-4.77187e-06
0.000157011
-4.81821e-06
0.000157547
-4.79586e-06
0.000158043
-4.72207e-06
0.000158496
-4.6111e-06
0.000158906
-4.47451e-06
0.000159275
-4.32149e-06
0.000159603
-4.15928e-06
0.000159893
-3.99343e-06
0.000160147
-3.82811e-06
0.000160368
-3.66637e-06
0.000160558
-3.51037e-06
0.00016072
-3.36154e-06
0.000160856
-3.22077e-06
0.000160969
-3.08851e-06
0.00016106
-2.96488e-06
0.000161132
-2.84979e-06
0.000161187
-2.74297e-06
0.000161225
-2.64405e-06
0.00016125
-2.55261e-06
0.000161261
-2.46816e-06
0.000161262
-2.39026e-06
0.000161252
-2.31842e-06
0.000161234
-2.25217e-06
0.00016121
-2.19111e-06
-2.1344e-06
0.000161179
0.000157245
-8.03424e-07
0.000157692
-2.2089e-06
0.000158278
-3.29567e-06
0.000158936
-4.10684e-06
0.000159632
-4.69678e-06
0.000160336
-5.09304e-06
0.000161028
-5.3284e-06
0.000161692
-5.43634e-06
0.000162319
-5.44474e-06
0.000162901
-5.37748e-06
0.000163433
-5.25498e-06
0.000163916
-5.09392e-06
0.000164349
-4.90765e-06
0.000164735
-4.70666e-06
0.000165074
-4.499e-06
0.000165372
-4.29073e-06
0.00016563
-4.08624e-06
0.000165852
-3.88866e-06
0.000166042
-3.70005e-06
0.000166202
-3.52171e-06
0.000166335
-3.35431e-06
0.000166445
-3.19808e-06
0.000166533
-3.05292e-06
0.000166602
-2.91851e-06
0.000166653
-2.79438e-06
0.000166689
-2.67998e-06
0.000166711
-2.57472e-06
0.000166721
-2.47801e-06
0.00016672
-2.38932e-06
0.00016671
-2.30811e-06
0.000166692
-2.23392e-06
0.000166667
-2.16634e-06
-2.10447e-06
0.000166637
0.000161691
-9.55926e-07
0.00016221
-2.72795e-06
0.000162944
-4.02956e-06
0.000163799
-4.96244e-06
0.0001647
-5.5977e-06
0.00016559
-5.98312e-06
0.000166441
-6.17883e-06
0.000167239
-6.23436e-06
0.00016798
-6.18536e-06
0.000168662
-6.06035e-06
0.00016929
-5.88215e-06
0.000169864
-5.66838e-06
0.000170389
-5.43267e-06
0.000170868
-5.18543e-06
0.000171303
-4.93457e-06
0.000171699
-4.68592e-06
0.000172056
-4.44374e-06
0.000172378
-4.21102e-06
0.000172668
-3.98972e-06
0.000172927
-3.78104e-06
0.000173159
-3.58554e-06
0.000173364
-3.40336e-06
0.000173545
-3.23428e-06
0.000173705
-3.07785e-06
0.000173844
-2.93349e-06
0.000173964
-2.80052e-06
0.000174068
-2.67827e-06
0.000174156
-2.56609e-06
0.00017423
-2.46347e-06
0.000174292
-2.36991e-06
0.000174343
-2.28532e-06
0.000174386
-2.20934e-06
-2.14216e-06
0.000174424
0.000166688
-1.4907e-06
0.000167543
-3.58215e-06
0.00016848
-4.96679e-06
0.000169492
-5.97481e-06
0.000170581
-6.68691e-06
0.000171728
-7.12928e-06
0.000172911
-7.36278e-06
0.000174111
-7.43347e-06
0.000175301
-7.37533e-06
0.00017646
-7.21942e-06
0.00017757
-6.99258e-06
0.000178619