/*--------------------------------*- C++ -*----------------------------------*\
  =========                 |
  \\      /  F ield         | OpenFOAM: The Open Source CFD Toolbox
   \\    /   O peration     | Website:  https://openfoam.org
    \\  /    A nd           | Version:  10
     \\/     M anipulation  |
\*---------------------------------------------------------------------------*/
FoamFile
{
    format      ascii;
    class       volVectorField;
    location    "0.115";
    object      U;
}
// * * * * * * * * * * * * * * * * * * * * * * * * * * * * * * * * * * * * * //

dimensions      [0 1 -1 0 0 0 0];

internalField   nonuniform List<vector> 
6820
(
(5.57363 0.459123 0)
(3.88338 0.245881 0)
(2.59017 0.00875113 0)
(1.95893 -0.064255 0)
(1.73437 -0.0595868 0)
(1.62416 -0.0341391 0)
(1.56023 -0.0154861 0)
(1.51543 -0.00542297 0)
(1.47811 -0.000842135 0)
(1.44613 0.000643044 0)
(1.41898 0.000671518 0)
(1.3962 0.000128261 0)
(1.37733 -0.000577966 0)
(1.36188 -0.00126649 0)
(1.34943 -0.00186757 0)
(1.33959 -0.00236552 0)
(1.33207 -0.00276841 0)
(1.32666 -0.00309101 0)
(1.32317 -0.00334934 0)
(1.32152 -0.00353815 0)
(1.32161 -0.00374867 0)
(1.32335 -0.00397724 0)
(1.32672 -0.00417556 0)
(1.33171 -0.00436235 0)
(1.33827 -0.00450091 0)
(1.3464 -0.00463173 0)
(1.35604 -0.0047807 0)
(1.36729 -0.0048952 0)
(1.37951 -0.00506031 0)
(1.39417 -0.00472864 0)
(1.40568 -0.00518488 0)
(1.42861 0.00124437 0)
(1.4096 -0.0193973 0)
(7.66982 0.863798 0)
(7.71762 0.890558 0)
(7.00129 0.59808 0)
(6.19995 0.347088 0)
(5.58802 0.179083 0)
(5.14495 0.0924961 0)
(4.82971 0.0520439 0)
(4.60286 0.0334675 0)
(4.43342 0.0248974 0)
(4.30212 0.0204726 0)
(4.19725 0.0177181 0)
(4.11153 0.0156894 0)
(4.04028 0.0140076 0)
(3.98041 0.0125033 0)
(3.92975 0.0110869 0)
(3.88676 0.00970777 0)
(3.85031 0.00833627 0)
(3.81956 0.00695418 0)
(3.79385 0.00554582 0)
(3.77269 0.00410978 0)
(3.75568 0.00261114 0)
(3.74256 0.00105159 0)
(3.7331 -0.000559485 0)
(3.72715 -0.00222552 0)
(3.72459 -0.00400581 0)
(3.72527 -0.00582401 0)
(3.72908 -0.00766967 0)
(3.73594 -0.00946363 0)
(3.74563 -0.0113556 0)
(3.75831 -0.0126334 0)
(3.77304 -0.0148783 0)
(3.79272 -0.0132805 0)
(3.81415 -0.0171304 0)
(7.56352 0.520167 0)
(8.22528 0.663124 0)
(8.46541 0.575444 0)
(8.36552 0.457659 0)
(8.13124 0.343413 0)
(7.85634 0.258404 0)
(7.58852 0.198633 0)
(7.34754 0.155687 0)
(7.13664 0.124391 0)
(6.95386 0.101045 0)
(6.79592 0.0831512 0)
(6.65944 0.0691178 0)
(6.54133 0.0578914 0)
(6.43896 0.0487486 0)
(6.35012 0.0411629 0)
(6.27296 0.0347367 0)
(6.20595 0.0291687 0)
(6.14786 0.02423 0)
(6.09763 0.0197448 0)
(6.05442 0.0155744 0)
(6.01756 0.0116285 0)
(5.98647 0.00782427 0)
(5.96069 0.00408694 0)
(5.93984 0.000363264 0)
(5.92359 -0.0034037 0)
(5.9117 -0.00721567 0)
(5.90407 -0.0110687 0)
(5.90052 -0.0149142 0)
(5.90081 -0.0187382 0)
(5.90478 -0.0221594 0)
(5.91196 -0.0257329 0)
(5.92182 -0.0276945 0)
(5.9336 -0.0316055 0)
(7.43338 0.34094 0)
(7.88474 0.514029 0)
(8.24358 0.488789 0)
(8.44244 0.428639 0)
(8.54268 0.357113 0)
(8.5737 0.296272 0)
(8.56004 0.249954 0)
(8.52132 0.214271 0)
(8.46852 0.186195 0)
(8.40805 0.163447 0)
(8.34405 0.144421 0)
(8.27923 0.128139 0)
(8.21537 0.113961 0)
(8.15376 0.101429 0)
(8.09523 0.0902287 0)
(8.04027 0.0801224 0)
(7.98917 0.0709094 0)
(7.94206 0.0624184 0)
(7.89899 0.0545009 0)
(7.85994 0.0470304 0)
(7.82487 0.039898 0)
(7.7937 0.0330042 0)
(7.76637 0.0262657 0)
(7.74279 0.0196193 0)
(7.72287 0.0130325 0)
(7.70655 0.00644821 0)
(7.69364 -0.000184511 0)
(7.68408 -0.00680477 0)
(7.67782 -0.0133789 0)
(7.6748 -0.0196165 0)
(7.67495 -0.0255769 0)
(7.67781 -0.0301547 0)
(7.68466 -0.0331335 0)
(7.39683 0.250864 0)
(7.68009 0.420555 0)
(7.92366 0.403151 0)
(8.07782 0.352837 0)
(8.18852 0.297789 0)
(8.2711 0.251802 0)
(8.3324 0.21756 0)
(8.37981 0.191388 0)
(8.41733 0.170527 0)
(8.44704 0.153315 0)
(8.47054 0.13864 0)
(8.48905 0.12582 0)
(8.50358 0.114421 0)
(8.5147 0.104131 0)
(8.52305 0.0947069 0)
(8.52921 0.0859547 0)
(8.53369 0.0777192 0)
(8.53695 0.0698714 0)
(8.53936 0.0623023 0)
(8.54126 0.0549184 0)
(8.54294 0.0476403 0)
(8.54464 0.0403985 0)
(8.54658 0.0331323 0)
(8.54894 0.0257961 0)
(8.5519 0.018352 0)
(8.55558 0.0107826 0)
(8.56011 0.00310851 0)
(8.56541 -0.00459406 0)
(8.57156 -0.0123046 0)
(8.57873 -0.0198544 0)
(8.5871 -0.0271106 0)
(8.5969 -0.0334951 0)
(8.60906 -0.0384946 0)
(7.37403 0.180498 0)
(7.57423 0.335569 0)
(7.76117 0.34141 0)
(7.87597 0.311882 0)
(7.95257 0.272374 0)
(8.0084 0.233882 0)
(8.05038 0.202201 0)
(8.08519 0.176786 0)
(8.11627 0.156153 0)
(8.14481 0.139147 0)
(8.17139 0.124798 0)
(8.19633 0.112387 0)
(8.21983 0.101438 0)
(8.24213 0.0916213 0)
(8.26338 0.0826654 0)
(8.28366 0.0743566 0)
(8.30305 0.0665276 0)
(8.32164 0.0590434 0)
(8.33948 0.051791 0)
(8.35667 0.0446744 0)
(8.37325 0.0376116 0)
(8.38931 0.0305301 0)
(8.4049 0.0233674 0)
(8.42009 0.016074 0)
(8.43495 0.00861903 0)
(8.44953 0.000989437 0)
(8.4639 -0.00679433 0)
(8.47834 -0.0147086 0)
(8.49298 -0.0227326 0)
(8.50804 -0.0307645 0)
(8.52375 -0.0386987 0)
(8.54065 -0.046256 0)
(8.5594 -0.0531844 0)
(7.35906 0.132556 0)
(7.50341 0.272551 0)
(7.656 0.294007 0)
(7.75632 0.276879 0)
(7.82283 0.246948 0)
(7.87029 0.214683 0)
(7.90432 0.186633 0)
(7.93065 0.163534 0)
(7.953 0.144391 0)
(7.97299 0.12832 0)
(7.99149 0.114571 0)
(8.00903 0.102563 0)
(8.02591 0.09188 0)
(8.04229 0.0822159 0)
(8.0583 0.0733411 0)
(8.074 0.0650756 0)
(8.08944 0.0572708 0)
(8.10467 0.0498005 0)
(8.11971 0.0425557 0)
(8.13457 0.0354418 0)
(8.14927 0.0283762 0)
(8.16384 0.0212862 0)
(8.17829 0.0141091 0)
(8.19265 0.00679186 0)
(8.20695 -0.000707404 0)
(8.22128 -0.00841676 0)
(8.23571 -0.0163743 0)
(8.25035 -0.0246079 0)
(8.2653 -0.0331024 0)
(8.28078 -0.0418142 0)
(8.29705 -0.0507259 0)
(8.31463 -0.0597947 0)
(8.33403 -0.0691295 0)
(7.34965 0.0988348 0)
(7.45352 0.21988 0)
(7.57677 0.249287 0)
(7.66576 0.24216 0)
(7.72794 0.222089 0)
(7.77414 0.197526 0)
(7.80815 0.174253 0)
(7.83429 0.153897 0)
(7.85595 0.136241 0)
(7.87482 0.120909 0)
(7.89186 0.107495 0)
(7.90771 0.0956073 0)
(7.92273 0.0849262 0)
(7.93719 0.0752042 0)
(7.95123 0.06624 0)
(7.96498 0.0578625 0)
(7.97852 0.049926 0)
(7.9919 0.0423061 0)
(8.00517 0.0348955 0)
(8.01838 0.0276001 0)
(8.03154 0.0203373 0)
(8.04471 0.0130332 0)
(8.0579 0.00562097 0)
(8.07115 -0.0019601 0)
(8.0845 -0.00976509 0)
(8.09799 -0.0178445 0)
(8.11167 -0.0262392 0)
(8.12564 -0.0349757 0)
(8.14003 -0.0440771 0)
(8.15502 -0.0535758 0)
(8.17085 -0.0635484 0)
(8.18798 -0.0741232 0)
(8.20672 -0.085565 0)
(7.34382 0.0748537 0)
(7.41929 0.177854 0)
(7.51828 0.211735 0)
(7.59593 0.212159 0)
(7.65279 0.19914 0)
(7.69669 0.180018 0)
(7.73034 0.160178 0)
(7.75683 0.141954 0)
(7.77899 0.125694 0)
(7.79834 0.111296 0)
(7.81576 0.098523 0)
(7.83186 0.0870835 0)
(7.84702 0.076715 0)
(7.86152 0.0672017 0)
(7.87551 0.0583624 0)
(7.88914 0.050043 0)
(7.90248 0.0421121 0)
(7.91562 0.0344561 0)
(7.92861 0.0269749 0)
(7.94149 0.0195792 0)
(7.9543 0.0121883 0)
(7.96708 0.00472872 0)
(7.97986 -0.00286794 0)
(7.99268 -0.0106641 0)
(8.00557 -0.0187167 0)
(8.01859 -0.0270806 0)
(8.0318 -0.0358121 0)
(8.04529 -0.0449716 0)
(8.05915 -0.0546303 0)
(8.07357 -0.064879 0)
(8.08874 -0.0758599 0)
(8.10498 -0.0877989 0)
(8.12248 -0.10102 0)
(7.34018 0.0575842 0)
(7.39561 0.144102 0)
(7.47493 0.179018 0)
(7.5421 0.18436 0)
(7.59371 0.176626 0)
(7.63498 0.162296 0)
(7.66777 0.146021 0)
(7.69416 0.130254 0)
(7.71642 0.115653 0)
(7.73593 0.102333 0)
(7.7535 0.0902376 0)
(7.76971 0.0792143 0)
(7.78495 0.0690886 0)
(7.79947 0.0597012 0)
(7.81347 0.0509087 0)
(7.82705 0.0425817 0)
(7.84033 0.0346035 0)
(7.85336 0.0268692 0)
(7.8662 0.0192838 0)
(7.8789 0.0117604 0)
(7.89149 0.00421945 0)
(7.90402 -0.00341353 0)
(7.91651 -0.0112081 0)
(7.929 -0.0192299 0)
(7.94152 -0.0275446 0)
(7.95414 -0.0362202 0)
(7.9669 -0.0453292 0)
(7.97988 -0.0549513 0)
(7.99317 -0.0651825 0)
(8.0069 -0.0761473 0)
(8.02121 -0.0880255 0)
(8.03631 -0.101089 0)
(8.05228 -0.115656 0)
(7.33789 0.0449061 0)
(7.37913 0.11694 0)
(7.44273 0.15086 0)
(7.50057 0.159508 0)
(7.54717 0.155821 0)
(7.58567 0.145343 0)
(7.61723 0.131997 0)
(7.64322 0.118228 0)
(7.6654 0.104971 0)
(7.68496 0.0925479 0)
(7.70263 0.0810524 0)
(7.71894 0.0704348 0)
(7.73425 0.0605851 0)
(7.74881 0.0513823 0)
(7.7628 0.0427067 0)
(7.77635 0.0344441 0)
(7.78955 0.0264882 0)
(7.80246 0.0187413 0)
(7.81515 0.0111136 0)
(7.82766 0.00352157 0)
(7.84003 -0.00411301 0)
(7.85229 -0.0118637 0)
(7.86447 -0.0198015 0)
(7.87661 -0.0279962 0)
(7.88874 -0.036519 0)
(7.9009 -0.0454441 0)
(7.91315 -0.0548531 0)
(7.92553 -0.0648393 0)
(7.93813 -0.0755178 0)
(7.95101 -0.087036 0)
(7.96427 -0.0995901 0)
(7.97801 -0.113461 0)
(7.99222 -0.128928 0)
(7.33643 0.0354144 0)
(7.36755 0.0950159 0)
(7.41867 0.12661 0)
(7.46826 0.137069 0)
(7.51012 0.136178 0)
(7.54583 0.128653 0)
(7.57601 0.117806 0)
(7.60147 0.105923 0)
(7.6235 0.0940561 0)
(7.64307 0.0826395 0)
(7.66082 0.0718554 0)
(7.67722 0.0617329 0)
(7.69259 0.0522214 0)
(7.70719 0.0432414 0)
(7.72119 0.0347034 0)
(7.7347 0.0265149 0)
(7.74782 0.0185854 0)
(7.76062 0.0108279 0)
(7.77316 0.00315972 0)
(7.78547 -0.00449807 0)
(7.7976 -0.0122212 0)
(7.80958 -0.0200824 0)
(7.82143 -0.0281534 0)
(7.83319 -0.0365058 0)
(7.84489 -0.0452142 0)
(7.85655 -0.0543579 0)
(7.86822 -0.0640257 0)
(7.87993 -0.0743198 0)
(7.89172 -0.0853634 0)
(7.90364 -0.0973092 0)
(7.91571 -0.110349 0)
(7.92797 -0.124744 0)
(7.94034 -0.14072 0)
(7.33549 0.028156 0)
(7.35932 0.0772061 0)
(7.40059 0.10572 0)
(7.44303 0.116899 0)
(7.48051 0.117905 0)
(7.51348 0.11265 0)
(7.54215 0.103873 0)
(7.56689 0.0936127 0)
(7.58862 0.0829533 0)
(7.6081 0.0724112 0)
(7.62586 0.0622464 0)
(7.6423 0.0525587 0)
(7.65774 0.0433513 0)
(7.67238 0.034582 0)
(7.68638 0.0261865 0)
(7.69987 0.0180901 0)
(7.71293 0.0102139 0)
(7.72563 0.00247895 0)
(7.73802 -0.00519222 0)
(7.75014 -0.0128746 0)
(7.76203 -0.0206412 0)
(7.77372 -0.028564 0)
(7.78523 -0.0367147 0)
(7.79659 -0.0451662 0)
(7.80782 -0.0539946 0)
(7.81894 -0.0632816 0)
(7.82998 -0.0731179 0)
(7.84095 -0.0836072 0)
(7.85187 -0.0948715 0)
(7.86275 -0.107058 0)
(7.87357 -0.12034 0)
(7.8843 -0.134949 0)
(7.89484 -0.151052 0)
(7.33487 0.0224852 0)
(7.35341 0.0626264 0)
(7.38694 0.0877018 0)
(7.42325 0.0987662 0)
(7.45671 0.100891 0)
(7.48705 0.0972469 0)
(7.51413 0.0900867 0)
(7.53804 0.0811888 0)
(7.55937 0.0716104 0)
(7.57868 0.0619062 0)
(7.5964 0.0523781 0)
(7.61287 0.0431688 0)
(7.62833 0.0343188 0)
(7.64299 0.0258141 0)
(7.657 0.0176117 0)
(7.67045 0.00965297 0)
(7.68343 0.00187132 0)
(7.69602 -0.00580315 0)
(7.70825 -0.0134409 0)
(7.72016 -0.0211123 0)
(7.73179 -0.028887 0)
(7.74317 -0.0368345 0)
(7.75432 -0.0450247 0)
(7.76525 -0.0535294 0)
(7.77597 -0.0624238 0)
(7.78652 -0.0717885 0)
(7.79688 -0.0817123 0)
(7.80706 -0.0922949 0)
(7.81707 -0.103651 0)
(7.82686 -0.115913 0)
(7.83641 -0.12923 0)
(7.84564 -0.143793 0)
(7.85442 -0.159712 0)
(7.33444 0.0179606 0)
(7.34911 0.0505751 0)
(7.37657 0.0721087 0)
(7.40768 0.0824506 0)
(7.43754 0.0850871 0)
(7.46539 0.0825257 0)
(7.49089 0.0766027 0)
(7.51389 0.0688279 0)
(7.53472 0.0601815 0)
(7.55378 0.0512203 0)
(7.57139 0.0422675 0)
(7.58782 0.0334961 0)
(7.60327 0.0249775 0)
(7.61793 0.0167229 0)
(7.6319 0.00870917 0)
(7.64531 0.000892506 0)
(7.65821 -0.00678249 0)
(7.67066 -0.0143773 0)
(7.68272 -0.0219562 0)
(7.69442 -0.0295851 0)
(7.70578 -0.03733 0)
(7.71683 -0.0452578 0)
(7.72759 -0.0534362 0)
(7.73807 -0.0619346 0)
(7.74828 -0.0708255 0)
(7.75822 -0.080186 0)
(7.76789 -0.0900996 0)
(7.77727 -0.100658 0)
(7.78634 -0.111962 0)
(7.79506 -0.124126 0)
(7.80336 -0.13727 0)
(7.81114 -0.151543 0)
(7.81829 -0.167007 0)
(7.33415 0.0142766 0)
(7.34594 0.0405023 0)
(7.36864 0.0585491 0)
(7.39541 0.0677414 0)
(7.42207 0.0704028 0)
(7.44762 0.0684693 0)
(7.47156 0.0634204 0)
(7.49361 0.0565173 0)
(7.51388 0.0486411 0)
(7.53263 0.0403291 0)
(7.55008 0.0319082 0)
(7.56643 0.0235668 0)
(7.58185 0.015395 0)
(7.59647 0.00742094 0)
(7.61041 -0.000364629 0)
(7.62374 -0.00799422 0)
(7.63654 -0.0155143 0)
(7.64885 -0.0229793 0)
(7.66073 -0.030448 0)
(7.67219 -0.0379815 0)
(7.68326 -0.0456419 0)
(7.69398 -0.0534923 0)
(7.70433 -0.0615968 0)
(7.71435 -0.0700207 0)
(7.72401 -0.0788321 0)
(7.73333 -0.0881018 0)
(7.74229 -0.0979051 0)
(7.75086 -0.108322 0)
(7.75901 -0.119439 0)
(7.76668 -0.131347 0)
(7.77379 -0.144137 0)
(7.78023 -0.15792 0)
(7.7859 -0.172715 0)
(7.33393 0.0112178 0)
(7.34358 0.0319776 0)
(7.36256 0.0466786 0)
(7.38572 0.0544323 0)
(7.40957 0.0567389 0)
(7.43304 0.0550599 0)
(7.45551 0.0505742 0)
(7.47659 0.0443189 0)
(7.49627 0.0370633 0)
(7.51467 0.0293046 0)
(7.53191 0.0213579 0)
(7.54815 0.0134139 0)
(7.56349 0.00557273 0)
(7.57806 -0.00212582 0)
(7.59193 -0.00968018 0)
(7.60517 -0.0171133 0)
(7.61785 -0.0244636 0)
(7.63001 -0.0317788 0)
(7.64168 -0.0391121 0)
(7.6529 -0.0465197 0)
(7.66368 -0.0540595 0)
(7.67404 -0.0617901 0)
(7.68399 -0.0697713 0)
(7.69352 -0.0780636 0)
(7.70265 -0.0867286 0)
(7.71135 -0.0958297 0)
(7.7196 -0.105432 0)
(7.72738 -0.115603 0)
(7.73464 -0.126412 0)
(7.74131 -0.137927 0)
(7.74733 -0.150212 0)
(7.75256 -0.163343 0)
(7.75692 -0.177306 0)
(7.33377 0.00862993 0)
(7.3418 0.0246635 0)
(7.35787 0.0361988 0)
(7.37807 0.0423281 0)
(7.3995 0.0439866 0)
(7.4211 0.042254 0)
(7.4422 0.0380576 0)
(7.46236 0.0322384 0)
(7.48144 0.0254525 0)
(7.49945 0.0181465 0)
(7.51646 0.0106139 0)
(7.53255 0.00303902 0)
(7.5478 -0.00447567 0)
(7.56229 -0.0118845 0)
(7.57607 -0.0191796 0)
(7.58922 -0.0263777 0)
(7.60177 -0.0335118 0)
(7.61376 -0.0406247 0)
(7.62522 -0.0477652 0)
(7.63618 -0.0549852 0)
(7.64665 -0.0623384 0)
(7.65665 -0.0698792 0)
(7.66618 -0.0776621 0)
(7.67524 -0.085742 0)
(7.68382 -0.0941736 0)
(7.69191 -0.103011 0)
(7.69948 -0.11231 0)
(7.70649 -0.122123 0)
(7.71291 -0.132502 0)
(7.71866 -0.143495 0)
(7.72367 -0.155142 0)
(7.72783 -0.167488 0)
(7.73106 -0.180493 0)
(7.33365 0.00639937 0)
(7.34046 0.0182941 0)
(7.35425 0.0268519 0)
(7.37203 0.0312437 0)
(7.39141 0.0320298 0)
(7.41137 0.0299924 0)
(7.43124 0.0258513 0)
(7.45053 0.0202793 0)
(7.46902 0.0138238 0)
(7.48665 0.00687415 0)
(7.50342 -0.000306464 0)
(7.51935 -0.00754855 0)
(7.53449 -0.0147543 0)
(7.54888 -0.0218779 0)
(7.56257 -0.0289088 0)
(7.57561 -0.0358604 0)
(7.58802 -0.0427615 0)
(7.59983 -0.0496509 0)
(7.61108 -0.0565732 0)
(7.62178 -0.0635762 0)
(7.63194 -0.070709 0)
(7.64158 -0.0780211 0)
(7.65069 -0.0855618 0)
(7.65928 -0.0933792 0)
(7.66733 -0.101521 0)
(7.67483 -0.110031 0)
(7.68174 -0.118955 0)
(7.68805 -0.128331 0)
(7.69369 -0.138195 0)
(7.6986 -0.148578 0)
(7.70273 -0.159498 0)
(7.70596 -0.170974 0)
(7.70824 -0.182951 0)
(7.33356 0.00444064 0)
(7.33943 0.0126575 0)
(7.35147 0.0184147 0)
(7.36729 0.0210048 0)
(7.38495 0.0207485 0)
(7.40351 0.0182029 0)
(7.42229 0.0139193 0)
(7.44079 0.00842859 0)
(7.45874 0.00217794 0)
(7.47601 -0.00450293 0)
(7.49254 -0.0113857 0)
(7.50831 -0.0183208 0)
(7.52332 -0.0252205 0)
(7.53761 -0.0320432 0)
(7.5512 -0.0387795 0)
(7.56411 -0.045442 0)
(7.57637 -0.052058 0)
(7.58801 -0.0586641 0)
(7.59903 -0.0653021 0)
(7.60946 -0.0720166 0)
(7.61931 -0.0788531 0)
(7.62859 -0.0858566 0)
(7.63729 -0.0930711 0)
(7.64542 -0.100539 0)
(7.65296 -0.108299 0)
(7.65989 -0.116388 0)
(7.66619 -0.12484 0)
(7.67183 -0.133681 0)
(7.67677 -0.142933 0)
(7.68094 -0.152611 0)
(7.68429 -0.162717 0)
(7.68674 -0.173251 0)
(7.68825 -0.184144 0)
(7.3335 0.00268758 0)
(7.33866 0.00758274 0)
(7.34933 0.0106935 0)
(7.36361 0.0114471 0)
(7.37987 0.0100179 0)
(7.39725 0.00679764 0)
(7.41511 0.00220209 0)
(7.43293 -0.00335669 0)
(7.4504 -0.00952228 0)
(7.46735 -0.0160246 0)
(7.48366 -0.0226737 0)
(7.49928 -0.0293444 0)
(7.51419 -0.035964 0)
(7.52839 -0.042499 0)
(7.54188 -0.0489443 0)
(7.55467 -0.0553143 0)
(7.56679 -0.0616363 0)
(7.57825 -0.0679457 0)
(7.58905 -0.0742822 0)
(7.59923 -0.0806874 0)
(7.60877 -0.0872032 0)
(7.6177 -0.0938703 0)
(7.62601 -0.100727 0)
(7.6337 -0.10781 0)
(7.64075 -0.11515 0)
(7.64716 -0.122777 0)
(7.6529 -0.130712 0)
(7.65794 -0.138974 0)
(7.66224 -0.147571 0)
(7.66576 -0.156505 0)
(7.66846 -0.165765 0)
(7.67026 -0.175338 0)
(7.67115 -0.185148 0)
(7.33345 0.00108647 0)
(7.33808 0.00292739 0)
(7.34772 0.00351647 0)
(7.3608 0.0024141 0)
(7.37594 -0.00028757 0)
(7.39238 -0.00431497 0)
(7.40949 -0.00935809 0)
(7.42675 -0.015103 0)
(7.44383 -0.0212732 0)
(7.4605 -0.0276558 0)
(7.47663 -0.0341006 0)
(7.49212 -0.0405104 0)
(7.50694 -0.0468308 0)
(7.52105 -0.0530406 0)
(7.53444 -0.0591426 0)
(7.54712 -0.065156 0)
(7.5591 -0.0711109 0)
(7.57037 -0.0770435 0)
(7.58097 -0.0829931 0)
(7.59088 -0.0889999 0)
(7.60013 -0.0951033 0)
(7.60872 -0.10134 0)
(7.61665 -0.107745 0)
(7.62391 -0.114349 0)
(7.63051 -0.121176 0)
(7.63643 -0.128248 0)
(7.64165 -0.13558 0)
(7.64616 -0.143179 0)
(7.64991 -0.151046 0)
(7.65288 -0.159172 0)
(7.65503 -0.167537 0)
(7.65631 -0.176118 0)
(7.65672 -0.184837 0)
(7.33341 -0.000405995 0)
(7.33765 -0.00142852 0)
(7.34654 -0.00327086 0)
(7.35873 -0.00624748 0)
(7.37304 -0.010307 0)
(7.38877 -0.0152587 0)
(7.40531 -0.0208761 0)
(7.42215 -0.0269276 0)
(7.43894 -0.0332081 0)
(7.45543 -0.0395597 0)
(7.47144 -0.0458724 0)
(7.48687 -0.0520785 0)
(7.50163 -0.0581444 0)
(7.51569 -0.0640634 0)
(7.52902 -0.0698479 0)
(7.54161 -0.0755235 0)
(7.55347 -0.0811238 0)
(7.56458 -0.086687 0)
(7.57498 -0.0922528 0)
(7.58466 -0.0978603 0)
(7.59363 -0.103547 0)
(7.6019 -0.109346 0)
(7.60948 -0.115289 0)
(7.61636 -0.121401 0)
(7.62254 -0.127702 0)
(7.62801 -0.134206 0)
(7.63277 -0.140922 0)
(7.6368 -0.147851 0)
(7.64008 -0.154984 0)
(7.64258 -0.162307 0)
(7.64428 -0.169793 0)
(7.64515 -0.177413 0)
(7.6452 -0.18509 0)
(7.33338 -0.00182834 0)
(7.33736 -0.00559175 0)
(7.34573 -0.00981064 0)
(7.35731 -0.0146819 0)
(7.37104 -0.0201654 0)
(7.38627 -0.0261244 0)
(7.40243 -0.0323953 0)
(7.41901 -0.038814 0)
(7.43562 -0.0452382 0)
(7.45201 -0.0515618 0)
(7.46797 -0.0577168 0)
(7.48336 -0.063668 0)
(7.49811 -0.0694073 0)
(7.51213 -0.0749465 0)
(7.52541 -0.0803123 0)
(7.53793 -0.0855402 0)
(7.54967 -0.0906707 0)
(7.56064 -0.0957464 0)
(7.57085 -0.100809 0)
(7.5803 -0.105899 0)
(7.58901 -0.111052 0)
(7.59698 -0.1163 0)
(7.60423 -0.121672 0)
(7.61075 -0.127187 0)
(7.61654 -0.132863 0)
(7.62162 -0.138709 0)
(7.62597 -0.144727 0)
(7.62958 -0.150913 0)
(7.63245 -0.157254 0)
(7.63456 -0.16373 0)
(7.63591 -0.170311 0)
(7.63648 -0.176966 0)
(7.63628 -0.183621 0)
(7.33337 -0.00321699 0)
(7.33719 -0.00966424 0)
(7.34525 -0.0162484 0)
(7.35648 -0.0230576 0)
(7.36989 -0.0300488 0)
(7.38488 -0.0371229 0)
(7.40088 -0.0441682 0)
(7.41738 -0.0510788 0)
(7.43399 -0.0577689 0)
(7.45041 -0.0641809 0)
(7.46644 -0.0702862 0)
(7.48191 -0.0760811 0)
(7.49671 -0.0815818 0)
(7.51078 -0.0868194 0)
(7.52407 -0.0918342 0)
(7.53655 -0.0966726 0)
(7.54822 -0.101382 0)
(7.55908 -0.106012 0)
(7.56913 -0.110605 0)
(7.57838 -0.115205 0)
(7.58685 -0.119847 0)
(7.59455 -0.124563 0)
(7.6015 -0.129378 0)
(7.60769 -0.134311 0)
(7.61314 -0.139376 0)
(7.61786 -0.144578 0)
(7.62184 -0.149916 0)
(7.6251 -0.155382 0)
(7.62763 -0.160961 0)
(7.62942 -0.16663 0)
(7.63049 -0.172356 0)
(7.63081 -0.178109 0)
(7.63044 -0.183818 0)
(7.33336 -0.00460559 0)
(7.33713 -0.0137405 0)
(7.34508 -0.022713 0)
(7.35619 -0.0315016 0)
(7.36952 -0.0400435 0)
(7.38449 -0.0482591 0)
(7.40053 -0.0560755 0)
(7.41711 -0.0634382 0)
(7.43384 -0.0703166 0)
(7.4504 -0.076705 0)
(7.46657 -0.0826205 0)
(7.48218 -0.0880981 0)
(7.49709 -0.0931854 0)
(7.51124 -0.0979386 0)
(7.52457 -0.102418 0)
(7.53705 -0.106683 0)
(7.54868 -0.110793 0)
(7.55944 -0.114803 0)
(7.56936 -0.118762 0)
(7.57844 -0.122715 0)
(7.5867 -0.126699 0)
(7.59415 -0.130745 0)
(7.60082 -0.134877 0)
(7.60672 -0.139113 0)
(7.61186 -0.143461 0)
(7.61626 -0.147927 0)
(7.61993 -0.152506 0)
(7.62288 -0.157188 0)
(7.62512 -0.161955 0)
(7.62666 -0.166784 0)
(7.62751 -0.171643 0)
(7.62767 -0.176502 0)
(7.62721 -0.181298 0)
(7.33337 -0.00603111 0)
(7.33718 -0.0179325 0)
(7.34523 -0.0293879 0)
(7.3565 -0.0402754 0)
(7.37006 -0.0505158 0)
(7.38532 -0.0600482 0)
(7.40169 -0.068834 0)
(7.41863 -0.0768625 0)
(7.43572 -0.0841487 0)
(7.45264 -0.0907297 0)
(7.46914 -0.0966607 0)
(7.48503 -0.10201 0)
(7.50017 -0.106853 0)
(7.5145 -0.11127 0)
(7.52794 -0.11534 0)
(7.54048 -0.11914 0)
(7.5521 -0.122741 0)
(7.56282 -0.126206 0)
(7.57263 -0.129593 0)
(7.58155 -0.132951 0)
(7.58962 -0.136321 0)
(7.59685 -0.139735 0)
(7.60327 -0.143218 0)
(7.6089 -0.146788 0)
(7.61376 -0.150453 0)
(7.61787 -0.154217 0)
(7.62126 -0.158074 0)
(7.62394 -0.162014 0)
(7.62594 -0.16602 0)
(7.62726 -0.170067 0)
(7.62793 -0.174126 0)
(7.62796 -0.178167 0)
(7.62741 -0.182132 0)
(7.33338 -0.00753158 0)
(7.33733 -0.0223351 0)
(7.34567 -0.0363708 0)
(7.35733 -0.0493944 0)
(7.37134 -0.0612936 0)
(7.38709 -0.0720185 0)
(7.40397 -0.0815695 0)
(7.42144 -0.0899944 0)
(7.43904 -0.0973736 0)
(7.45643 -0.103806 0)
(7.47336 -0.109403 0)
(7.48963 -0.114278 0)
(7.50509 -0.118544 0)
(7.51967 -0.122311 0)
(7.53331 -0.125681 0)
(7.54597 -0.128747 0)
(7.55765 -0.131591 0)
(7.56836 -0.134287 0)
(7.57811 -0.136898 0)
(7.58693 -0.139475 0)
(7.59485 -0.142063 0)
(7.6019 -0.144693 0)
(7.6081 -0.147392 0)
(7.61349 -0.150175 0)
(7.61811 -0.153052 0)
(7.62197 -0.156025 0)
(7.62512 -0.159087 0)
(7.62757 -0.162229 0)
(7.62935 -0.165432 0)
(7.6305 -0.168674 0)
(7.63104 -0.171929 0)
(7.631 -0.17517 0)
(7.63044 -0.178343 0)
(7.33341 -0.00916054 0)
(7.33764 -0.0271374 0)
(7.34658 -0.0440438 0)
(7.35904 -0.0595357 0)
(7.37397 -0.0734867 0)
(7.39069 -0.0858548 0)
(7.40855 -0.0966569 0)
(7.42693 -0.105971 0)
(7.44538 -0.113914 0)
(7.46353 -0.120629 0)
(7.48112 -0.126267 0)
(7.49793 -0.130985 0)
(7.51384 -0.134936 0)
(7.52876 -0.138261 0)
(7.54264 -0.141093 0)
(7.55546 -0.143549 0)
(7.56722 -0.145731 0)
(7.57794 -0.147728 0)
(7.58764 -0.149615 0)
(7.59636 -0.151452 0)
(7.60413 -0.15329 0)
(7.611 -0.155164 0)
(7.61699 -0.157104 0)
(7.62216 -0.159127 0)
(7.62653 -0.161243 0)
(7.63016 -0.163454 0)
(7.63307 -0.165757 0)
(7.6353 -0.16814 0)
(7.63689 -0.170587 0)
(7.63786 -0.173078 0)
(7.63827 -0.175587 0)
(7.63813 -0.17809 0)
(7.6375 -0.180538 0)
(7.33344 -0.010963 0)
(7.33804 -0.0323818 0)
(7.34772 -0.052236 0)
(7.36115 -0.0700233 0)
(7.37715 -0.0856101 0)
(7.39498 -0.0990129 0)
(7.41397 -0.11034 0)
(7.43347 -0.119772 0)
(7.45296 -0.127523 0)
(7.47208 -0.133815 0)
(7.49053 -0.138861 0)
(7.50809 -0.142867 0)
(7.52464 -0.146021 0)
(7.54008 -0.148493 0)
(7.55436 -0.150436 0)
(7.56748 -0.151982 0)
(7.57945 -0.153243 0)
(7.59028 -0.154318 0)
(7.60001 -0.155285 0)
(7.6087 -0.156211 0)
(7.61638 -0.157147 0)
(7.62312 -0.158133 0)
(7.62895 -0.159197 0)
(7.63392 -0.160359 0)
(7.63809 -0.16163 0)
(7.64151 -0.163012 0)
(7.64422 -0.164502 0)
(7.64625 -0.16609 0)
(7.64767 -0.167763 0)
(7.64851 -0.169501 0)
(7.64881 -0.171282 0)
(7.64862 -0.173085 0)
(7.648 -0.174866 0)
(7.33352 -0.0130589 0)
(7.33885 -0.0386178 0)
(7.34997 -0.0622747 0)
(7.36523 -0.0834064 0)
(7.38317 -0.101839 0)
(7.40294 -0.117538 0)
(7.42374 -0.130586 0)
(7.44485 -0.141188 0)
(7.46576 -0.149614 0)
(7.48608 -0.156154 0)
(7.50554 -0.161099 0)
(7.52393 -0.164729 0)
(7.54114 -0.167299 0)
(7.55709 -0.169036 0)
(7.57176 -0.170138 0)
(7.58514 -0.170775 0)
(7.59727 -0.171089 0)
(7.60818 -0.171198 0)
(7.61792 -0.171196 0)
(7.62655 -0.171159 0)
(7.63412 -0.171146 0)
(7.6407 -0.1712 0)
(7.64634 -0.171354 0)
(7.65111 -0.171627 0)
(7.65506 -0.172031 0)
(7.65825 -0.172569 0)
(7.66073 -0.173238 0)
(7.66256 -0.17403 0)
(7.66378 -0.174931 0)
(7.66444 -0.175923 0)
(7.66459 -0.176987 0)
(7.66427 -0.178101 0)
(7.66354 -0.179224 0)
(7.33355 -0.0154571 0)
(7.33947 -0.0453525 0)
(7.35189 -0.0722507 0)
(7.36884 -0.0954364 0)
(7.38869 -0.114974 0)
(7.41053 -0.13109 0)
(7.43345 -0.144082 0)
(7.45664 -0.154313 0)
(7.47949 -0.162158 0)
(7.50157 -0.167972 0)
(7.52256 -0.172085 0)
(7.54227 -0.174804 0)
(7.56057 -0.176404 0)
(7.57741 -0.177128 0)
(7.59277 -0.177187 0)
(7.60667 -0.176763 0)
(7.61916 -0.176009 0)
(7.63031 -0.175051 0)
(7.64018 -0.173994 0)
(7.64885 -0.17292 0)
(7.65639 -0.171893 0)
(7.66288 -0.170961 0)
(7.66839 -0.170159 0)
(7.673 -0.169509 0)
(7.67677 -0.169025 0)
(7.67977 -0.168713 0)
(7.68206 -0.16857 0)
(7.6837 -0.168591 0)
(7.68475 -0.168763 0)
(7.68527 -0.169071 0)
(7.68531 -0.169496 0)
(7.68492 -0.170023 0)
(7.68418 -0.170609 0)
(7.33381 -0.0186064 0)
(7.34169 -0.0550503 0)
(7.35745 -0.0881949 0)
(7.37811 -0.116931 0)
(7.40145 -0.141025 0)
(7.42641 -0.160499 0)
(7.45204 -0.175659 0)
(7.47751 -0.187026 0)
(7.50229 -0.195173 0)
(7.52599 -0.200649 0)
(7.54835 -0.203967 0)
(7.56918 -0.20558 0)
(7.5884 -0.205879 0)
(7.60596 -0.205194 0)
(7.62189 -0.203799 0)
(7.63621 -0.201917 0)
(7.64898 -0.199728 0)
(7.6603 -0.197377 0)
(7.67023 -0.194976 0)
(7.67887 -0.192611 0)
(7.68632 -0.190348 0)
(7.69265 -0.188235 0)
(7.69795 -0.186302 0)
(7.70232 -0.184573 0)
(7.70582 -0.183057 0)
(7.70852 -0.181758 0)
(7.71051 -0.180676 0)
(7.71185 -0.179802 0)
(7.7126 -0.179125 0)
(7.71282 -0.178633 0)
(7.71257 -0.178305 0)
(7.7119 -0.178128 0)
(7.71089 -0.178059 0)
(7.33369 -0.022016 0)
(7.34202 -0.0633489 0)
(7.35972 -0.0985388 0)
(7.38336 -0.127547 0)
(7.41044 -0.151278 0)
(7.43958 -0.170236 0)
(7.4694 -0.184882 0)
(7.49879 -0.195762 0)
(7.52706 -0.203403 0)
(7.55375 -0.208298 0)
(7.57857 -0.210919 0)
(7.60138 -0.211705 0)
(7.62212 -0.21105 0)
(7.64082 -0.209302 0)
(7.65753 -0.206759 0)
(7.67236 -0.203673 0)
(7.6854 -0.200253 0)
(7.69679 -0.196665 0)
(7.70664 -0.193044 0)
(7.71507 -0.189492 0)
(7.72222 -0.186085 0)
(7.72818 -0.182879 0)
(7.73306 -0.179911 0)
(7.73697 -0.177206 0)
(7.73998 -0.174777 0)
(7.7422 -0.172628 0)
(7.74369 -0.170757 0)
(7.74454 -0.169159 0)
(7.74481 -0.167824 0)
(7.74458 -0.16674 0)
(7.74392 -0.16589 0)
(7.74288 -0.165261 0)
(7.74156 -0.164808 0)
(7.33481 -0.0283437 0)
(7.34942 -0.0839335 0)
(7.37488 -0.132254 0)
(7.40493 -0.171441 0)
(7.4368 -0.201825 0)
(7.4697 -0.224196 0)
(7.50255 -0.239791 0)
(7.53438 -0.249934 0)
(7.56463 -0.255758 0)
(7.59291 -0.258218 0)
(7.61898 -0.258112 0)
(7.64272 -0.256091 0)
(7.6641 -0.252675 0)
(7.68319 -0.24828 0)
(7.7001 -0.243238 0)
(7.71494 -0.237811 0)
(7.72788 -0.232203 0)
(7.73907 -0.226573 0)
(7.74866 -0.221043 0)
(7.7568 -0.215702 0)
(7.76363 -0.210616 0)
(7.76928 -0.205829 0)
(7.77387 -0.201371 0)
(7.77751 -0.197257 0)
(7.7803 -0.193496 0)
(7.78232 -0.190087 0)
(7.78366 -0.187027 0)
(7.78439 -0.184309 0)
(7.78459 -0.181926 0)
(7.78431 -0.179867 0)
(7.78363 -0.178122 0)
(7.78261 -0.176683 0)
(7.78132 -0.175502 0)
(7.33379 -0.0320956 0)
(7.34756 -0.0873532 0)
(7.37747 -0.130949 0)
(7.41512 -0.166993 0)
(7.45563 -0.19674 0)
(7.49673 -0.219849 0)
(7.53655 -0.236749 0)
(7.57408 -0.248195 0)
(7.60904 -0.254927 0)
(7.64136 -0.257735 0)
(7.67109 -0.257423 0)
(7.69834 -0.254723 0)
(7.72327 -0.250274 0)
(7.74603 -0.244615 0)
(7.76676 -0.238185 0)
(7.7856 -0.23133 0)
(7.80266 -0.224321 0)
(7.81807 -0.217357 0)
(7.83195 -0.210588 0)
(7.84439 -0.204115 0)
(7.8555 -0.198011 0)
(7.86539 -0.192316 0)
(7.87415 -0.187054 0)
(7.88187 -0.182234 0)
(7.88863 -0.177853 0)
(7.89451 -0.173902 0)
(7.89958 -0.170371 0)
(7.90392 -0.167248 0)
(7.90759 -0.164525 0)
(7.91066 -0.162195 0)
(7.91321 -0.160262 0)
(7.91533 -0.15873 0)
(7.91713 -0.157567 0)
(7.33891 -0.0545734 0)
(7.37177 -0.152124 0)
(7.41419 -0.221661 0)
(7.45727 -0.268854 0)
(7.50316 -0.299882 0)
(7.55276 -0.318719 0)
(7.60453 -0.329066 0)
(7.65736 -0.333611 0)
(7.71034 -0.334052 0)
(7.76242 -0.331543 0)
(7.8127 -0.326897 0)
(7.86048 -0.320687 0)
(7.90529 -0.313346 0)
(7.94682 -0.305213 0)
(7.98491 -0.296566 0)
(8.01954 -0.287634 0)
(8.05079 -0.278612 0)
(8.07878 -0.269657 0)
(8.1037 -0.260899 0)
(8.12577 -0.252438 0)
(8.14521 -0.244348 0)
(8.16224 -0.23668 0)
(8.17709 -0.22947 0)
(8.18995 -0.222735 0)
(8.20102 -0.216483 0)
(8.21047 -0.210712 0)
(8.21846 -0.20542 0)
(8.22512 -0.200602 0)
(8.23059 -0.196263 0)
(8.23497 -0.192411 0)
(8.23838 -0.189101 0)
(8.24091 -0.186339 0)
(8.24277 -0.184297 0)
(7.33753 -0.040539 0)
(7.38831 -0.106154 0)
(7.47722 -0.164185 0)
(7.57838 -0.220215 0)
(7.68569 -0.267955 0)
(7.79397 -0.30504 0)
(7.89722 -0.332095 0)
(7.99192 -0.349804 0)
(8.0761 -0.35924 0)
(8.14867 -0.361871 0)
(8.20946 -0.359163 0)
(8.25887 -0.35244 0)
(8.2977 -0.342847 0)
(8.32698 -0.331333 0)
(8.3478 -0.318654 0)
(8.36131 -0.305403 0)
(8.36856 -0.292026 0)
(8.37054 -0.278855 0)
(8.36812 -0.266123 0)
(8.36209 -0.253989 0)
(8.3531 -0.24255 0)
(8.34171 -0.231861 0)
(8.32841 -0.22194 0)
(8.31359 -0.21278 0)
(8.29757 -0.204358 0)
(8.28062 -0.196636 0)
(8.26294 -0.189572 0)
(8.24469 -0.183123 0)
(8.22599 -0.177261 0)
(8.20686 -0.171967 0)
(8.18744 -0.167337 0)
(8.16745 -0.163343 0)
(8.14755 -0.160919 0)
(7.39946 -0.196985 0)
(7.59548 -0.376665 0)
(7.7678 -0.459912 0)
(7.89425 -0.51407 0)
(7.97686 -0.54297 0)
(8.01372 -0.552445 0)
(8.0091 -0.54912 0)
(7.97143 -0.536353 0)
(7.90841 -0.516659 0)
(7.8267 -0.492317 0)
(7.7321 -0.465139 0)
(7.62942 -0.436536 0)
(7.5224 -0.407605 0)
(7.4139 -0.379167 0)
(7.30605 -0.351806 0)
(7.20036 -0.32591 0)
(7.09788 -0.301714 0)
(6.99927 -0.279334 0)
(6.90492 -0.2588 0)
(6.81502 -0.240079 0)
(6.7296 -0.223099 0)
(6.64859 -0.207758 0)
(6.57184 -0.193938 0)
(6.49918 -0.181511 0)
(6.43037 -0.170346 0)
(6.36519 -0.160309 0)
(6.30339 -0.151261 0)
(6.24471 -0.143071 0)
(6.18887 -0.135579 0)
(6.13548 -0.128647 0)
(6.0842 -0.122175 0)
(6.03397 -0.115401 0)
(5.98523 -0.111592 0)
(7.16007 -0.186018 0)
(6.91057 -0.345525 0)
(6.49881 -0.393002 0)
(6.03433 -0.394576 0)
(5.59327 -0.366518 0)
(5.17595 -0.322667 0)
(4.78648 -0.273953 0)
(4.43168 -0.226013 0)
(4.11213 -0.181844 0)
(3.82619 -0.142936 0)
(3.57184 -0.109694 0)
(3.34651 -0.0819294 0)
(3.14736 -0.059162 0)
(2.97156 -0.0407679 0)
(2.81645 -0.0260921 0)
(2.67951 -0.0145145 0)
(2.55848 -0.00548075 0)
(2.4513 0.00148725 0)
(2.35617 0.00679193 0)
(2.2715 0.0107664 0)
(2.19589 0.0136835 0)
(2.12812 0.0157652 0)
(2.06715 0.0171926 0)
(2.01208 0.0181136 0)
(1.96212 0.0186546 0)
(1.91663 0.0189249 0)
(1.87503 0.0190445 0)
(1.83695 0.019135 0)
(1.80189 0.0194166 0)
(1.77003 0.0201949 0)
(1.74049 0.0217897 0)
(1.71523 0.0267486 0)
(1.69238 0.0222425 0)
(1.51915 -0.0156945 0)
(1.75622 0.093083 0)
(2.14672 0.20867 0)
(2.58824 0.297387 0)
(3.04301 0.321713 0)
(3.4907 0.26606 0)
(3.92859 0.122216 0)