/*--------------------------------*- C++ -*----------------------------------*\
  =========                 |
  \\      /  F ield         | OpenFOAM: The Open Source CFD Toolbox
   \\    /   O peration     | Website:  https://openfoam.org
    \\  /    A nd           | Version:  10
     \\/     M anipulation  |
\*---------------------------------------------------------------------------*/
FoamFile
{
    format      ascii;
    class       volScalarField;
    location    "0.155";
    object      epsilon;
}
// * * * * * * * * * * * * * * * * * * * * * * * * * * * * * * * * * * * * * //

dimensions      [0 2 -3 0 0 0 0];

internalField   nonuniform List<scalar> 
6820
(
23.2969
22.5752
21.9094
21.2853
20.7019
20.1632
19.6735
19.2344
18.8457
18.505
18.2093
17.9547
17.7374
17.5537
17.4
17.273
17.1698
17.0877
17.0241
16.9771
16.9445
16.9247
16.9161
16.9173
16.9271
16.9446
16.9681
16.9997
17.0253
17.1072
16.9505
17.9322
13.5974
5.03386
6.8183
7.8393
8.46754
8.89795
9.23129
9.5214
9.7947
10.0632
10.3319
10.6027
10.876
11.1513
11.4283
11.7064
11.9849
12.2633
12.541
12.8173
13.092
13.3644
13.6343
13.9014
14.1655
14.4269
14.6858
14.9432
15.201
15.4618
15.7442
16.0139
16.5395
16.5479
3.7036
4.14719
4.56525
4.91421
5.19792
5.43117
5.628
5.79964
5.95451
6.09873
6.23658
6.37098
6.50384
6.63638
6.76934
6.90312
7.03792
7.17376
7.31059
7.44829
7.58673
7.72573
7.86514
8.00484
8.14474
8.28488
8.42533
8.56673
8.70903
8.85629
9.00347
9.1709
9.33137
3.54009
3.61093
3.72473
3.85372
3.98117
4.09941
4.20619
4.30195
4.38816
4.4666
4.53899
4.60682
4.67136
4.73358
4.79426
4.85399
4.91321
4.97223
5.03128
5.09052
5.15004
5.2099
5.27013
5.33077
5.39183
5.45335
5.51541
5.57819
5.64183
5.70707
5.77399
5.84385
5.9185
3.52064
3.50151
3.50498
3.52611
3.55867
3.59721
3.63779
3.67802
3.71662
3.75305
3.7872
3.81924
3.84941
3.87802
3.90538
3.93177
3.95742
3.98254
4.00731
4.03187
4.05634
4.08079
4.10531
4.12994
4.15476
4.1798
4.20512
4.23082
4.25699
4.2838
4.31141
4.33993
4.36963
3.5194
3.48247
3.45303
3.43232
3.41995
3.4145
3.41422
3.4175
3.42306
3.42996
3.43755
3.44542
3.45332
3.46111
3.46874
3.4762
3.4835
3.49069
3.4978
3.50487
3.51195
3.51908
3.52629
3.53361
3.54108
3.54872
3.55657
3.56467
3.57307
3.58183
3.59102
3.60066
3.61078
3.51943
3.47974
3.44283
3.40949
3.38025
3.35523
3.3342
3.31668
3.30212
3.28998
3.27976
3.27105
3.26353
3.25696
3.25113
3.24591
3.24119
3.2369
3.23299
3.22941
3.22615
3.22318
3.22049
3.21807
3.21593
3.21406
3.21247
3.21117
3.21017
3.20949
3.20914
3.20915
3.2095
3.51947
3.47943
3.44109
3.40466
3.37041
3.33852
3.30907
3.28205
3.25735
3.23479
3.21417
3.19529
3.17793
3.1619
3.14705
3.13322
3.1203
3.10819
3.09679
3.08604
3.07588
3.06626
3.05714
3.04848
3.04026
3.03246
3.02505
3.01802
3.01138
3.00511
2.9992
2.99367
2.98848
3.51948
3.47941
3.44085
3.40382
3.36835
3.33448
3.30225
3.27169
3.24279
3.21552
3.18982
3.16562
3.14282
3.12132
3.10104
3.08187
3.06373
3.04653
3.03021
3.01469
2.99991
2.98582
2.97237
2.95952
2.94723
2.93547
2.92421
2.91342
2.9031
2.89322
2.88376
2.87472
2.86607
3.51948
3.4794
3.44082
3.40368
3.36796
3.33361
3.30062
3.26897
3.23864
3.2096
3.18184
3.1553
3.12996
3.10577
3.08267
3.0606
3.03953
3.01938
3.00012
2.98168
2.96403
2.94711
2.93089
2.91532
2.90038
2.88602
2.87223
2.85896
2.84621
2.83395
2.82216
2.81082
2.79991
3.51948
3.4794
3.44081
3.40365
3.36788
3.33344
3.30027
3.26833
3.23759
3.20799
3.17951
3.15212
3.12578
3.10045
3.0761
3.05269
3.03019
3.00856
2.98775
2.96774
2.9485
2.92997
2.91214
2.89497
2.87843
2.86249
2.84713
2.83232
2.81804
2.80427
2.79099
2.77819
2.76583
3.51948
3.4794
3.4408
3.40364
3.36786
3.33339
3.30019
3.26818
3.23733
3.20758
3.17889
3.15123
3.12454
3.09881
3.07398
3.05004
3.02694
3.00466
2.98315
2.96241
2.94238
2.92306
2.9044
2.88638
2.86898
2.85217
2.83594
2.82025
2.80509
2.79044
2.77628
2.7626
2.74937
3.51948
3.4794
3.44079
3.40363
3.36784
3.33337
3.30015
3.26813
3.23725
3.20746
3.17872
3.15098
3.12419
3.09833
3.07335
3.04921
3.0259
3.00337
2.98159
2.96054
2.94019
2.92051
2.90148
2.88307
2.86526
2.84803
2.83135
2.81522
2.79961
2.78449
2.76987
2.75571
2.742
3.51948
3.47939
3.44079
3.40362
3.36783
3.33336
3.30013
3.2681
3.23721
3.20741
3.17865
3.15089
3.12407
3.09817
3.07314
3.04895
3.02557
3.00295
2.98108
2.95992
2.93944
2.91963
2.90045
2.88188
2.8639
2.84648
2.82962
2.81328
2.79745
2.78212
2.76727
2.75287
2.73892
3.51947
3.47939
3.44079
3.40362
3.36782
3.33334
3.30011
3.26808
3.23719
3.20738
3.17861
3.15084
3.12402
3.0981
3.07306
3.04885
3.02544
3.0028
2.98089
2.9597
2.93918
2.91932
2.90008
2.88145
2.86341
2.84592
2.82898
2.81256
2.79665
2.78122
2.76626
2.75177
2.7377
3.51947
3.47939
3.44078
3.40361
3.36782
3.33333
3.3001
3.26806
3.23716
3.20735
3.17858
3.1508
3.12397
3.09805
3.073
3.04879
3.02537
3.00272
2.9808
2.95959
2.93906
2.91918
2.89993
2.88128
2.86321
2.8457
2.82873
2.81227
2.79633
2.78086
2.76586
2.75132
2.73721
3.51947
3.47939
3.44078
3.40361
3.36781
3.33332
3.30009
3.26804
3.23714
3.20733
3.17855
3.15077
3.12394
3.09801
3.07296
3.04874
3.02531
3.00266
2.98074
2.95952
2.93898
2.9191
2.89984
2.88118
2.8631
2.84558
2.82859
2.81213
2.79617
2.78068
2.76567
2.7511
2.73697
3.51947
3.47939
3.44078
3.4036
3.3678
3.33331
3.30007
3.26803
3.23712
3.20731
3.17853
3.15074
3.1239
3.09797
3.07292
3.04869
3.02527
3.00261
2.98068
2.95946
2.93892
2.91903
2.89976
2.8811
2.86301
2.84549
2.8285
2.81203
2.79605
2.78056
2.76554
2.75096
2.73681
3.51947
3.47939
3.44078
3.4036
3.3678
3.33331
3.30006
3.26802
3.23711
3.20729
3.1785
3.15071
3.12387
3.09794
3.07288
3.04865
3.02522
3.00256
2.98063
2.95941
2.93886
2.91897
2.8997
2.88103
2.86294
2.84541
2.82841
2.81194
2.79596
2.78046
2.76542
2.75084
2.73668
3.51947
3.47939
3.44077
3.4036
3.36779
3.3333
3.30006
3.26801
3.23709
3.20727
3.17848
3.15069
3.12385
3.09791
3.07285
3.04862
3.02518
3.00252
2.98058
2.95936
2.93881
2.91891
2.89963
2.88096
2.86287
2.84533
2.82833
2.81185
2.79587
2.78036
2.76532
2.75073
2.73656
3.51947
3.47939
3.44077
3.40359
3.36779
3.33329
3.30005
3.268
3.23708
3.20725
3.17847
3.15067
3.12382
3.09788
3.07282
3.04858
3.02515
3.00248
2.98054
2.95931
2.93876
2.91885
2.89958
2.8809
2.8628
2.84526
2.82826
2.81177
2.79578
2.78027
2.76522
2.75062
2.73644
3.51947
3.47938
3.44077
3.40359
3.36779
3.33329
3.30004
3.26799
3.23707
3.20724
3.17845
3.15065
3.1238
3.09786
3.07279
3.04855
3.02511
3.00244
2.9805
2.95927
2.93871
2.9188
2.89952
2.88084
2.86274
2.84519
2.82818
2.81169
2.79569
2.78018
2.76512
2.75051
2.73633
3.51947
3.47938
3.44077
3.40359
3.36778
3.33329
3.30004
3.26798
3.23706
3.20723
3.17844
3.15064
3.12378
3.09784
3.07277
3.04853
3.02508
3.00241
2.98046
2.95923
2.93867
2.91876
2.89947
2.88079
2.86268
2.84513
2.82811
2.81162
2.79561
2.78009
2.76503
2.75041
2.73622
3.51947
3.47938
3.44077
3.40359
3.36778
3.33328
3.30003
3.26797
3.23705
3.20722
3.17842
3.15062
3.12377
3.09782
3.07274
3.0485
3.02506
3.00238
2.98043
2.95919
2.93863
2.91871
2.89942
2.88073
2.86262
2.84507
2.82805
2.81154
2.79554
2.78001
2.76494
2.75031
2.73612
3.51947
3.47938
3.44077
3.40359
3.36778
3.33328
3.30003
3.26797
3.23705
3.20721
3.17841
3.15061
3.12375
3.0978
3.07273
3.04848
3.02503
3.00235
2.9804
2.95916
2.93859
2.91867
2.89938
2.88069
2.86257
2.84501
2.82799
2.81148
2.79546
2.77993
2.76485
2.75022
2.73602
3.51947
3.47938
3.44077
3.40359
3.36778
3.33328
3.30003
3.26797
3.23704
3.20721
3.17841
3.1506
3.12374
3.09779
3.07271
3.04846
3.02501
3.00233
2.98038
2.95913
2.93856
2.91864
2.89934
2.88064
2.86252
2.84496
2.82793
2.81141
2.79539
2.77985
2.76477
2.75013
2.73592
3.51947
3.47938
3.44077
3.40359
3.36778
3.33328
3.30002
3.26796
3.23704
3.2072
3.1784
3.15059
3.12373
3.09778
3.07269
3.04844
3.02499
3.0023
2.98035
2.9591
2.93853
2.9186
2.8993
2.8806
2.86248
2.84491
2.82787
2.81135
2.79533
2.77978
2.7647
2.75005
2.73583
3.51947
3.47938
3.44077
3.40359
3.36778
3.33328
3.30002
3.26796
3.23704
3.2072
3.1784
3.15059
3.12373
3.09777
3.07269
3.04843
3.02498
3.00229
2.98033
2.95908
2.9385
2.91858
2.89927
2.88057
2.86244
2.84487
2.82783
2.8113
2.79527
2.77972
2.76463
2.74998
2.73576
3.51947
3.47938
3.44077
3.40359
3.36778
3.33327
3.30002
3.26796
3.23703
3.20719
3.17839
3.15058
3.12371
3.09776
3.07267
3.04842
3.02496
3.00227
2.98031
2.95906
2.93848
2.91855
2.89924
2.88053
2.8624
2.84483
2.82778
2.81126
2.79522
2.77966
2.76457
2.74991
2.73568
3.51947
3.47938
3.44077
3.40359
3.36778
3.33328
3.30003
3.26796
3.23704
3.2072
3.1784
3.15059
3.12373
3.09777
3.07268
3.04843
3.02497
3.00228
2.98032
2.95906
2.93848
2.91854
2.89923
2.88052
2.86239
2.84481
2.82776
2.81123
2.79519
2.77963
2.76453
2.74987
2.73563
3.51947
3.47939
3.44077
3.40359
3.36778
3.33328
3.30002
3.26796
3.23703
3.20719
3.17839
3.15057
3.12371
3.09776
3.07267
3.04841
3.02496
3.00226
2.9803
2.95904
2.93846
2.91853
2.89922
2.88051
2.86237
2.84479
2.82775
2.81121
2.79517
2.77961
2.76451
2.74985
2.73561
3.51947
3.47938
3.44077
3.40359
3.36779
3.3333
3.30005
3.268
3.23708
3.20725
3.17845
3.15064
3.12378
3.09782
3.07274
3.04848
3.02502
3.00233
2.98037
2.95911
2.93853
2.9186
2.89929
2.88058
2.86245
2.84488
2.82783
2.81131
2.79527
2.77972
2.76462
2.74997
2.73575
3.51948
3.4794
3.44079
3.40362
3.36782
3.33332
3.30007
3.26801
3.23708
3.20725
3.17845
3.15065
3.1238
3.09785
3.07278
3.04854
3.0251
3.00243
2.98049
2.95926
2.93871
2.91881
2.89954
2.88087
2.86278
2.84525
2.82825
2.81178
2.7958
2.7803
2.76526
2.75067
2.73651
3.51947
3.47939
3.44079
3.40365
3.36789
3.33343
3.30023
3.26821
3.23733
3.20754
3.17878
3.15102
3.12422
3.09834
3.07333
3.04918
3.02583
3.00327
2.98145
2.96036
2.93995
2.92021
2.90112
2.88263
2.86474
2.84742
2.83065
2.8144
2.79866
2.78341
2.76863
2.75431
2.74041
3.51949
3.47947
3.44095
3.40384
3.36811
3.33369
3.30054
3.26862
3.23789
3.2083
3.1798
3.15237
3.12594
3.10049
3.07598
3.05238
3.02963
3.00772
2.9866
2.96624
2.94661
2.92769
2.90943
2.89182
2.87482
2.85842
2.84257
2.82727
2.81249
2.79821
2.7844
2.77104
2.75813
3.5195
3.47953
3.44117
3.40446
3.36933
3.33572
3.30359
3.27291
3.24363
3.21571
3.18911
3.16379
3.13967
3.11671
3.09485
3.07403
3.05419
3.03528
3.01724
3.00003
2.98359
2.96788
2.95286
2.93847
2.9247
2.91149
2.89882
2.88665
2.87496
2.86372
2.8529
2.84248
2.83244
3.51969
3.48122
3.44561
3.41286
3.38296
3.35587
3.3315
3.30965
3.29011
3.27268
3.25714
3.24328
3.23091
3.21986
3.20997
3.20109
3.19311
3.18591
3.17939
3.17346
3.16804
3.16307
3.15849
3.15424
3.15028
3.14657
3.14307
3.13975
3.13659
3.13356
3.13064
3.12782
3.12507
3.52527
3.51369
3.51621
3.52948
3.55072
3.57789
3.60938
3.64392
3.68053
3.71847
3.75717
3.79617
3.83511
3.87371
3.91177
3.94911
3.98562
4.02121
4.05581
4.08938
4.1219
4.15335
4.18373
4.21305
4.24131
4.26854
4.29477
4.32
4.34428
4.36763
4.39007
4.41166
4.43242
3.83318
4.36507
4.84915
5.3141
5.77446
6.22565
6.66335
7.08572
7.4924
7.88378
8.26063
8.62385
8.97433
9.3129
9.64032
9.95725
10.2643
10.5619
10.8506
11.1307
11.4027
11.6668
11.9233
12.1726
12.4149
12.6504
12.8794
13.1022
13.3188
13.5296
13.7348
13.9345
14.129
30.2663
32.7713
35.3126
37.865
40.4147
42.9529
45.4713
47.9623
50.4191
52.8354
55.2056
57.5251
59.7896
61.9958
64.1409
66.2227
68.2396
70.1905
72.0746
73.8918
75.6421
77.3258
78.9437
80.4968
81.986
83.4128
84.7785
86.0847
87.333
88.5251
89.6628
90.7477
91.7829
83.4802
235.109
415.445
582.173
708.726
785.584
816.627
812.75
786.27
747.6
704.129
660.415
618.888
580.585
545.749
514.229
485.723
459.908
436.487
415.205
395.837
378.176
362.025
347.197
333.509
320.785
308.862
297.589
286.83
276.461
266.373
256.467
246.66
236.879
227.066
217.176
207.179
197.06
186.816
176.46
166.019
155.533
145.054
134.648
124.389
114.357
104.638
95.3146
86.4667
78.1647
70.4675
63.4193
57.0476
51.3627
46.3578
42.0106
38.2857
35.1377
32.5147
30.3612
28.6204
27.2362
26.1532
25.3177
24.6763
24.1765
23.7663
23.3943
23.0112
22.5709
22.0322
21.3611
20.5321
19.53
18.3516
17.0058
15.5146
13.9126
12.2462
10.5707
8.94717
7.43597
6.0895
4.9444
4.01599
3.29747
2.76468
2.38403
2.12051
1.94293
1.82619
1.7514
1.70503
1.67763
1.66292
1.65664
1.65632
1.66014
1.66634
1.68277
19.6444
28.7454
45.6072
70.8957
103.704
141.946
182.856
223.579
261.384
294.101
320.306
339.357
351.338
356.911
357.114
353.14
346.157
337.182
327.025
316.276
305.337
294.459
283.785
273.381
263.272
253.449
243.888
234.556
225.412
216.415
207.52
198.686
189.871
181.043
172.176
163.253
154.269
145.231
136.159
127.081
118.039
109.082
100.269
91.6641
83.3371
75.3575
67.7922
60.7016
54.1358
48.1323
42.7143
37.8891
33.6496
29.9748
26.8325
24.1823
21.9784
20.1728
18.7182
17.5694
16.6846
16.0258
15.5576
15.2469
15.0612
14.9678
14.9328
14.9208
14.8956
14.8213
14.6639
14.3937
13.9875
13.4309
12.7195
11.8609
10.8743
9.79045
8.64995
7.5002
6.39092
5.36834
4.46895
3.71458
3.11042
2.64699
2.30502
2.06114
1.89246
1.7791
1.70515
1.65855
1.63055
1.61497
1.60769
1.60586
1.60793
1.61268
1.61893
1.63374
9.49223
9.84613
10.8048
12.7638
16.0114
20.71
26.9405
34.6286
43.7773
54.3655
66.2133
78.9901
92.2399
105.43
118.011
129.481
139.439
147.613
153.878
158.24
160.814
161.788
161.382
159.828
157.337
154.094
150.249
145.922
141.203
136.159
130.843
125.292
119.534
113.596
107.502
101.278
94.9563
88.5729
82.1703
75.7958
69.501
63.3402
57.3692
51.6432
46.215
41.1316
36.4323
32.1456
28.2884
24.865
21.8675
19.2776
17.0687
15.2082
13.6601
12.388
11.3564
10.5329
9.88833
9.39775
9.0399
8.79673
8.65262
8.59321
8.60436
8.67089
8.77568
8.89903
9.01859
9.10995
9.14805
9.10909
8.97286
8.72514
8.35975
7.88001
7.29934
6.64069
5.93476
5.21695
4.52316
3.88514
3.32632
2.85932
2.48593
2.19928
1.98723
1.83567
1.73086
1.66082
1.6158
1.58825
1.57261
1.56488
1.56238
1.56324
1.56653
1.5714
1.57717
1.58979
5.9992
6.08148
6.18687
6.3685
6.68867
7.20472
7.96254
8.99202
10.3248
11.9543
13.9029
16.1981
18.861
21.8988
25.2977
29.0172
32.9874
37.1107
41.267
45.3238
49.147
52.6129
55.6178
58.0841
59.9631
61.234
61.9002
61.9852
61.5266
60.5716
59.1717
57.3799
55.248
52.8263
50.1633
47.3068
44.3047
41.2051
38.0566
34.9066
31.8013
28.7839
25.8941
23.1661
20.6285
18.3025
16.2012
14.3299
12.6859
11.2599
10.0373
9.00024
8.12902
7.40372
6.80529
6.31634
5.92156
5.60787
5.36441
5.18234
5.05462
4.97564
4.94079
4.94596
4.98691
5.05863
5.15464
5.26634
5.38264
5.48998
5.57287
5.61511
5.60145
5.51964
5.36241
5.12902
4.82607
4.46725
4.07199
3.66301
3.26328
2.89279
2.56614
2.29132
2.06997
1.8988
1.77143
1.68017
1.61727
1.57577
1.54983
1.53481
1.5272
1.52445
1.52485
1.52714
1.53082
1.53527
1.54025
1.55034
4.40427
4.44198
4.4796
4.52216
4.57826
4.65952
4.77868
4.94692
5.17567
5.46629
5.8209
6.2423
6.73345
7.29697
7.93465
8.64694
9.43226
10.2863
11.2012
12.165
13.1611
14.1684
15.1619
16.1133
16.9935
17.7736
18.427
18.9316
19.2708
19.4345
19.4193
19.2281
18.8695
18.3565
17.7063
16.9389
16.0768
15.144
14.165
13.164
12.1635
11.1838
10.2422
9.35278
8.52596
7.76866
7.08443
6.47377
5.93467
5.46327
5.05447
4.70255
4.4016
4.14594
3.93027
3.74986
3.60058
3.47895
3.3821
3.30777
3.25422
3.22017
3.20467
3.20696
3.2262
3.26119
3.31001
3.36963
3.43554
3.50158
3.55991
3.60152
3.61704
3.598
3.53819
3.435
3.2902
3.11014
2.905
2.68742
2.47057
2.26625
2.08345
1.92758
1.80056
1.70141
1.62727
1.5742
1.53803
1.51477
1.501
1.49388
1.49123
1.49142
1.49336
1.49621
1.49972
1.50341
1.50739
1.51482
3.62295
3.63669
3.65034
3.66429
3.67945
3.69761
3.72149
3.75425
3.79937
3.85905
3.93494
4.02808
4.13899
4.26777
4.41416
4.57752
4.75686
4.95079
5.15744
5.37441
5.59871
5.82668
6.05398
6.27567
6.48623
6.6798
6.85039
6.99219
7.09993
7.16924
7.1969
7.18107
7.1214
7.01897
6.87628
6.69712
6.4864
6.24987
5.99387
5.72489
5.44929
5.17295
4.90109
4.6381
4.38747
4.15184
3.93297
3.73186
3.54881
3.3836
3.23556
3.10376
2.9871
2.88438
2.79445
2.71618
2.64856
2.59071
2.54189
2.50155
2.46929
2.44487
2.42818
2.4192
2.4179
2.42414
2.43749
2.45704
2.48122
2.50755
2.53265
2.55223
2.56148
2.55558
2.53049
2.48375
2.4151
2.32678
2.22335
2.11104
1.99678
1.88712
1.78737
1.7011
1.63
1.57414
1.53234
1.50268
1.48295
1.47091
1.46454
1.46212
1.4623
1.464
1.46655
1.46935
1.47232
1.47503
1.47793
1.4827
3.21028
3.21133
3.21244
3.21362
3.21494
3.21659
3.21901
3.2229
3.2291
3.23849
3.2519
3.27
3.29327
3.32198
3.35615
3.39562
3.44004
3.48885
3.54136
3.5967
3.65385
3.71167
3.76886
3.82402
3.87565
3.92221
3.96212
3.99387
4.01604
4.02743
4.02706
4.01431
3.98886
3.9508
3.90055
3.83891
3.76699
3.68621
3.59818
3.50465
3.40742
3.30826
3.20879
3.11051
3.01468
2.92236
2.83437
2.75129
2.67351
2.60122
2.53442
2.47299
2.41673
2.36534
2.31851
2.27589
2.23716
2.20206
2.17032
2.14179
2.11635
2.09398
2.0747
2.05861
2.04581
2.0364
2.03036
2.02751
2.02739
2.02912
2.03139
2.03239
2.02991
2.0216
2.00526
1.97929
1.94302
1.89705
1.84319
1.78426
1.72366
1.66481
1.61067
1.56341
1.52422
1.4934
1.47052
1.45465
1.44458
1.43907
1.4369
1.43702
1.43857
1.44082
1.44334
1.4457
1.4479
1.44952
1.4513
1.4535
2.98284
2.97663
2.9705
2.96441
2.95837
2.9524
2.94655
2.94093
2.9357
2.93108
2.92733
2.92472
2.92348
2.92381
2.92581
2.92955
2.93498
2.94198
2.95034
2.95978
2.96993
2.98037
2.99064
3.00022
3.00857
3.01513
3.01934
3.02068
3.01864
3.0128
3.00279
2.98837
2.9694
2.94587
2.91787
2.88563
2.84949
2.80989
2.76735
2.72246
2.67586
2.62816
2.58
2.53195
2.48452
2.43815
2.39321
2.34996
2.30861
2.26927
2.23196
2.19666
2.1633
2.13176
2.10189
2.07355
2.04657
2.02083
1.99622
1.97265
1.95007
1.92851
1.90799
1.88859
1.87042
1.8536
1.83823
1.82434
1.81188
1.80061
1.79011
1.7797
1.76853
1.75554
1.73973
1.72024
1.69661
1.66892
1.63783
1.60457
1.57072
1.53796
1.50784
1.48154
1.45979
1.44283
1.43049
1.42228
1.41753
1.4155
1.41545
1.41669
1.41865
1.42083
1.42292
1.42458
1.42589
1.42638
1.42706
1.42683
2.85645
2.84574
2.83512
2.82457
2.81408
2.80364
2.79324
2.7829
2.77263
2.76248
2.7525
2.74275
2.73332
2.72427
2.71567
2.70756
2.69996
2.69286
2.68622
2.67998
2.67402
2.6682
2.66236
2.6563
2.64982
2.64271
2.63473
2.62567
2.61532
2.60351
2.59008
2.57492
2.55796
2.53918
2.5186
2.4963
2.47241
2.44708
2.42051
2.39294
2.36462
2.3358
2.30675
2.2777
2.24888
2.22046
2.19262
2.16544
2.13902
2.11338
2.08853
2.06442
2.041
2.01819
1.9959
1.97401
1.95245
1.93111
1.90992
1.88885
1.86786
1.84696
1.82618
1.8056
1.78528
1.76534
1.74589
1.72704
1.70885
1.69134
1.67444
1.658
1.64173
1.62528
1.60826
1.59032
1.57124
1.55103
1.52993
1.50848
1.48738
1.46741
1.44934
1.43376
1.42103
1.41128
1.4044
1.4001
1.39797
1.39753
1.39829
1.39976
1.40154
1.40326
1.40467
1.40549
1.40584
1.40521
1.40482
1.40234
2.78771
2.77406
2.76051
2.74703
2.73363
2.72029
2.707
2.69377
2.68058
2.66745
2.65438
2.64138
2.62846
2.61563
2.60291
2.5903
2.57783
2.56549
2.55327
2.54117
2.52915
2.51718
2.5052
2.49314
2.48095
2.46852
2.45579
2.44267
2.42906
2.4149
2.40013
2.38468
2.36853
2.35167
2.33411
2.31587
2.297
2.27758
2.25767
2.23739
2.21682
2.19608
2.17528
2.15452
2.13389
2.11345
2.09326
2.07336
2.05375
2.03442
2.01535
1.99648
1.97777
1.95913
1.94049
1.92178
1.90291
1.88382
1.86447
1.84481
1.82483
1.80455
1.78398
1.76318
1.74222
1.7212
1.70022
1.67939
1.65883
1.63863
1.61888
1.5996
1.58078
1.56238
1.54433
1.52653
1.50896
1.49164
1.47471
1.45841
1.44306
1.42901
1.41662
1.40613
1.3977
1.39136
1.38701
1.38441
1.38329
1.3833
1.38407
1.38524
1.38649
1.38751
1.38812
1.38804
1.38741
1.38569
1.38429
1.37974
2.75196
2.73641
2.72094
2.70556
2.69024
2.67499
2.65981
2.64469
2.62962
2.61461
2.59966
2.58477
2.56994
2.55516
2.54043
2.52576
2.51113
2.49655
2.48201
2.46751
2.45304
2.43859
2.42413
2.40967
2.39516
2.38059
2.36593
2.35115
2.33622
2.32112
2.30582
2.2903
2.27455
2.25857
2.24238
2.22597
2.20938
2.19262
2.17575
2.15879
2.14178
2.12477
2.10781
2.09091
2.07412
2.05744
2.04088
2.02444
2.00809
1.99179
1.97552
1.95921
1.9428
1.92623
1.90942
1.89232
1.87486
1.85699
1.83867
1.81986
1.80057
1.7808
1.76058
1.73995
1.71899
1.69778
1.6764
1.65499
1.63364
1.6125
1.59168
1.57128
1.55141
1.53214
1.51353
1.49564
1.47854
1.46229
1.44699
1.43279
1.41984
1.4083
1.39832
1.38998
1.38334
1.37834
1.37487
1.37274
1.37172
1.37153
1.37187
1.37244
1.37297
1.37318
1.37292
1.37193
1.37034
1.36758
1.36524
1.3588
2.73449
2.71777
2.70111
2.68452
2.66799
2.65152
2.63511
2.61876
2.60247
2.58624
2.57008
2.55398
2.53795
2.52199
2.50608
2.49024
2.47445
2.45871
2.44302
2.42737
2.41176
2.39618
2.38064
2.36512
2.34963
2.33415
2.31868
2.30321
2.28773
2.27225
2.25675
2.24123
2.2257
2.21015
2.1946
2.17906
2.16353
2.14802
2.13256
2.11716
2.10182
2.08656
2.0714
2.05633
2.04136
2.02646
2.01163
1.99684
1.98205
1.96721
1.95229
1.93721
1.92193
1.90638
1.8905
1.87423
1.85752
1.84032
1.82259
1.80432
1.7855
1.76615
1.74628
1.72595
1.70522
1.68416
1.66287
1.64145
1.62003
1.59872
1.57766
1.55698
1.53682
1.51729
1.49852
1.48061
1.46367
1.4478
1.4331
1.41966
1.40758
1.39694
1.38779
1.38015
1.374
1.36927
1.36583
1.36352
1.36211
1.36137
1.36105
1.36087
1.36059
1.35995
1.35882
1.35693
1.35442
1.3507
1.34748
1.33933
2.72654
2.70915
2.69181
2.67451
2.65725
2.64005
2.62289
2.60578
2.58872
2.57173
2.5548
2.53793
2.52113
2.50441
2.48775
2.47117
2.45466
2.43821
2.42184
2.40553
2.38928
2.3731
2.35698
2.34092
2.32493
2.309
2.29313
2.27733
2.26159
2.24593
2.23033
2.21481
2.19937
2.18402
2.16876
2.1536
2.13854
2.1236
2.10878
2.09408
2.0795
2.06504
2.05069
2.03645
2.0223
2.00821
1.99417
1.98012
1.96604
1.95187
1.93756
1.92306
1.90831
1.89325
1.87782
1.86197
1.84565
1.82882
1.81146
1.79354
1.77506
1.75603
1.73649
1.71647
1.69603
1.67525
1.65421
1.63303
1.61179
1.59064
1.56971
1.54912
1.52901
1.50953
1.49081
1.47297
1.45613
1.4404
1.42588
1.41265
1.40079
1.39032
1.38129
1.37366
1.3674
1.36242
1.3586
1.35577
1.35374
1.35229
1.3512
1.35021
1.3491
1.34762
1.34563
1.34288
1.33952
1.33488
1.33086
1.32117
2.72318
2.70544
2.68773
2.67004
2.65239
2.63477
2.61718
2.59964
2.58213
2.56468
2.54728
2.52994
2.51267
2.49546
2.47833
2.46127
2.44429
2.42739
2.41057
2.39383
2.37717
2.3606
2.34411
2.32772
2.31141
2.29519
2.27908
2.26306
2.24715
2.23134
2.21566
2.20009
2.18465
2.16934
2.15416
2.13914
2.12426
2.10953
2.09495
2.08052
2.06624
2.05209
2.03806
2.02415
2.01032
1.99655
1.98281
1.96906
1.95525
1.94134
1.92728
1.91301
1.89848
1.88363
1.86841
1.85276
1.83666
1.82005
1.80291
1.78523
1.767
1.74824
1.72898
1.70925
1.68912
1.66865
1.64792
1.62703
1.60609
1.58522
1.56454
1.54418
1.52428
1.50497
1.48639
1.46867
1.45192
1.43626
1.42177
1.40854
1.39662
1.38604
1.3768
1.36889
1.36225
1.35679
1.35239
1.3489
1.34616
1.34394
1.34205
1.34024
1.3383
1.336
1.33321
1.32966
1.32549
1.32003
1.31527
1.3042
2.72182
2.70391
2.68602
2.66814
2.65028
2.63245
2.61463
2.59685
2.5791
2.56139
2.54373
2.52611
2.50855
2.49105
2.47363
2.45627
2.43899
2.42179
2.40467
2.38764
2.3707
2.35385
2.3371
2.32046
2.30392
2.28748
2.27117
2.25497
2.2389
2.22296
2.20716
2.1915
2.17598
2.16062
2.14542
2.13039
2.11551
2.10081
2.08627
2.07189
2.05767
2.04358
2.02963
2.01579
2.00203
1.98833
1.97465
1.96096
1.94722
1.93336
1.91936
1.90515
1.89068
1.8759
1.86076
1.84521
1.82922
1.81274
1.79576
1.77826
1.76023
1.7417
1.72269
1.70323
1.68339
1.66322
1.6428
1.62223
1.60161
1.58105
1.56066
1.54058
1.52093
1.50184
1.48345
1.46586
1.4492
1.43357
1.41907
1.40574
1.39366
1.38284
1.37329
1.36497
1.35784
1.35181
1.34677
1.34259
1.33909
1.3361
1.33341
1.33081
1.32809
1.32501
1.32145
1.31715
1.31225
1.30604
1.30061
1.28831
2.72126
2.70328
2.6853
2.66733
2.64937
2.63142
2.61349
2.59558
2.5777
2.55985
2.54204
2.52426
2.50654
2.48887
2.47126
2.45372
2.43624
2.41885
2.40153
2.3843
2.36716
2.35012
2.33317
2.31634
2.29961
2.283
2.26652
2.25016
2.23393
2.21785
2.20191
2.18613
2.1705
2.15504
2.13974
2.12462
2.10967
2.09489
2.08028
2.06584
2.05155
2.03741
2.0234
2.0095
1.99568
1.98193
1.9682
1.95445
1.94066
1.92676
1.91272
1.89848
1.884
1.86922
1.8541
1.8386
1.82267
1.80628
1.78941
1.77205
1.7542
1.73587
1.71709
1.69788
1.6783
1.65842
1.63831
1.61805
1.59774
1.57749
1.55741
1.53761
1.51822
1.49935
1.48114
1.46369
1.44712
1.43151
1.41696
1.40352
1.39124
1.38015
1.37023
1.36148
1.35382
1.3472
1.34151
1.33662
1.33239
1.32864
1.32519
1.32182
1.31835
1.31455
1.31028
1.3053
1.29973
1.29283
1.28681
1.27341
2.72099
2.70297
2.68495
2.66693
2.64891
2.63091
2.61292
2.59494
2.57699
2.55906
2.54116
2.5233
2.50548
2.4877
2.46998
2.45232
2.43472
2.41719
2.39973
2.38236
2.36508
2.34789
2.3308
2.31381
2.29693
2.28017
2.26354
2.24703
2.23066
2.21444
2.19836
2.18244
2.16668
2.15108
2.13566
2.12041
2.10533
2.09043
2.0757
2.06113
2.04673
2.03247
2.01834
2.00432
1.99039
1.97652
1.96267
1.94883
1.93493
1.92094
1.90682
1.89252
1.87799
1.86318
1.84805
1.83255
1.81666
1.80034
1.78357
1.76633
1.74863
1.73049
1.71191
1.69293
1.67361
1.654
1.63418
1.61422
1.59421
1.57426
1.55446
1.53494
1.51579
1.49715
1.47912
1.4618
1.4453
1.42971
1.4151
1.40153
1.38905
1.37767
1.36738
1.35818
1.35001
1.3428
1.33647
1.3309
1.32596
1.32148
1.31729
1.31321
1.30903
1.30455
1.29964
1.29403
1.28785
1.28034
1.27379
1.25943
2.72082
2.70277
2.68472
2.66668
2.64863
2.63059
2.61256
2.59455
2.57655
2.55857
2.54061
2.52269
2.5048
2.48696
2.46916
2.45141
2.43373
2.4161
2.39855
2.38107
2.36368
2.34637
2.32916
2.31205
2.29505
2.27816
2.26139
2.24476
2.22825
2.21189
2.19567
2.17961
2.16371
2.14798
2.13241
2.11702
2.1018
2.08675
2.07188
2.05717
2.04261
2.0282
2.01393
1.99976
1.98569
1.97168
1.9577
1.94372
1.92971
1.91561
1.90139
1.887
1.8724
1.85755
1.84239
1.8269
1.81103
1.79476
1.77807
1.76095
1.74339
1.72541
1.70702
1.68827
1.66919
1.64984
1.63029
1.61061
1.59089
1.57121
1.55169
1.53243
1.51352
1.49508
1.47722
1.46002
1.44359
1.42801
1.41334
1.39964
1.38694
1.37527
1.36463
1.35499
1.34631
1.33854
1.33159
1.32536
1.31973
1.31456
1.30968
1.30492
1.30009
1.29498
1.28947
1.28329
1.27657
1.26852
1.26151
1.2463
2.72067
2.70261
2.68455
2.66648
2.64841
2.63034
2.61228
2.59424
2.5762
2.55819
2.54019
2.52223
2.50429
2.48639
2.46854
2.45073
2.43297
2.41527
2.39764
2.38008
2.36259
2.34519
2.32788
2.31066
2.29355
2.27655
2.25966
2.2429
2.22627
2.20978
2.19344
2.17724
2.16121
2.14533
2.12962
2.11408
2.09871
2.08352
2.06849
2.05362
2.03891
2.02435
2.00991
1.9956
1.98137
1.96721
1.95309
1.93897
1.92482
1.91061
1.89629
1.88181
1.86714
1.85223
1.83704
1.82154
1.80569
1.78947
1.77285
1.75583
1.7384
1.72058
1.70238
1.68383
1.66497
1.64587
1.62657
1.60716
1.58771
1.5683
1.54904
1.53002
1.51134
1.49309
1.47538
1.4583
1.44192
1.42634
1.4116
1.39777
1.38487
1.37292
1.36192
1.35186
1.34269
1.33437
1.32682
1.31996
1.31368
1.30785
1.30232
1.29692
1.29148
1.28579
1.27973
1.27304
1.26584
1.25731
1.2499
1.23398
2.72054
2.70247
2.68438
2.66629
2.6482
2.63012
2.61204
2.59396
2.5759
2.55785
2.53983
2.52182
2.50384
2.4859
2.46799
2.45013
2.43231
2.41455
2.39685
2.37921
2.36165
2.34416
2.32676
2.30945
2.29224
2.27514
2.25815
2.24128
2.22453
2.20792
2.19145
2.17513
2.15896
2.14294
2.1271
2.11141
2.0959
2.08055
2.06537
2.05035
2.03549
2.02076
2.00617
1.9917
1.97732
1.96301
1.94874
1.93449
1.92021
1.90588
1.89145
1.87688
1.86214
1.84718
1.83196
1.81645
1.80061
1.78443
1.76788
1.75095
1.73364
1.71597
1.69793
1.67958
1.66094
1.64206
1.62301
1.60385
1.58465
1.5655
1.54648
1.52769
1.50921
1.49115
1.47358
1.45659
1.44027
1.42468
1.40987
1.3959
1.3828
1.37058
1.35923
1.34876
1.33912
1.33027
1.32215
1.31469
1.30778
1.30132
1.29517
1.28916
1.28315
1.27693
1.27038
1.26323
1.25561
1.24668
1.23893
1.22241
2.72041
2.70232
2.68423
2.66612
2.64801
2.62991
2.6118
2.59371
2.57562
2.55754
2.53948
2.52144
2.50343
2.48544
2.46749
2.44958
2.43171
2.41389
2.39612
2.37842
2.36079
2.34322
2.32574
2.30835
2.29105
2.27385
2.25676
2.23978
2.22293
2.2062
2.18961
2.17317
2.15687
2.14073
2.12475
2.10893
2.09327
2.07778
2.06245
2.04728
2.03227
2.01739
2.00265
1.98802
1.97349
1.95904
1.94463
1.93024
1.91584
1.90139
1.88686
1.8722
1.85739
1.84237
1.82712
1.8116
1.79577
1.77963
1.76314
1.7463
1.7291
1.71156
1.69369
1.67551
1.65707
1.63842
1.61959
1.60067
1.58171
1.56279
1.54401
1.52543
1.50714
1.48924
1.4718
1.45491
1.43863
1.42302
1.40815
1.39404
1.38074
1.36825
1.35657
1.34569
1.33559
1.32623
1.31756
1.30951
1.302
1.29493
1.28818
1.28161
1.27506
1.26835
1.26135
1.2538
1.24583
1.23656
1.22855
1.21155
2.72029
2.70219
2.68408
2.66596
2.64783
2.62971
2.61158
2.59346
2.57535
2.55724
2.53915
2.52108
2.50303
2.48501
2.46701
2.44906
2.43114
2.41326
2.39544
2.37768
2.35998
2.34235
2.32479
2.30731
2.28993
2.27264
2.25546
2.23838
2.22143
2.2046
2.1879
2.17134
2.15492
2.13866
2.12255
2.10659
2.0908
2.07517
2.0597
2.04439
2.02923
2.01421
1.99932
1.98455
1.96987
1.95528
1.94073
1.92621
1.91169
1.89713
1.8825
1.86776
1.85287
1.8378
1.82251
1.80698
1.79117
1.77505
1.75862
1.74186
1.72477
1.70736
1.68963
1.67163
1.65338
1.63492
1.61632
1.59761
1.57888
1.56019
1.54162
1.52324
1.50514
1.48739
1.47007
1.45326
1.43701
1.42139
1.40644
1.3922
1.37869
1.36593
1.35392
1.34265
1.3321
1.32224
1.31302
1.30439
1.29629
1.28863
1.2813
1.27418
1.26713
1.25997
1.25258
1.24469
1.23643
1.2269
1.21869
1.20136
2.72017
2.70206
2.68393
2.6658
2.64766
2.62951
2.61137
2.59323
2.57509
2.55696
2.53884
2.52074
2.50266
2.4846
2.46656
2.44856
2.4306
2.41268
2.3948
2.37698
2.35921
2.34152
2.32389
2.30634
2.28888
2.27151
2.25424
2.23707
2.22002
2.20309
2.18628
2.16961
2.15308
2.1367
2.12047
2.10439
2.08847
2.07271
2.05711
2.04166
2.02636
2.0112
1.99617
1.98126
1.96645
1.95171
1.93704
1.9224
1.90776
1.89309
1.87837
1.86354
1.84859
1.83347
1.81815
1.8026
1.78679
1.77071
1.75433
1.73764
1.72065
1.70336
1.68578
1.66794
1.64986
1.6316
1.61319
1.5947
1.57618
1.5577
1.53933
1.52114
1.50321
1.48561
1.4684
1.45166
1.43544
1.41979
1.40477
1.39039
1.37668
1.36365
1.35131
1.33964
1.32864
1.31826
1.30849
1.29928
1.29058
1.28233
1.27443
1.26678
1.25925
1.25168
1.24395
1.23579
1.22733
1.21764
1.20933
1.19182
2.72006
2.70193
2.68379
2.66564
2.64749
2.62933
2.61116
2.593
2.57484
2.55669
2.53855
2.52041
2.5023
2.48421
2.46614
2.44809
2.43009
2.41212
2.39419
2.37632
2.3585
2.34074
2.32304
2.30543
2.28789
2.27044
2.25309
2.23583
2.21869
2.20167
2.18476
2.16799
2.15136
2.13486
2.11852
2.10232
2.08628
2.07039
2.05466
2.03908
2.02365
2.00836
1.9932
1.97815
1.96321
1.94835
1.93356
1.9188
1.90405
1.88928
1.87446
1.85956
1.84454
1.82937
1.81402
1.79845
1.78266
1.7666
1.75027
1.73366
1.71676
1.69958
1.68213
1.66444
1.64654
1.62846
1.61025
1.59195
1.57364
1.55536
1.53718
1.51918
1.50141
1.48394
1.46684
1.45016
1.43396
1.41829
1.40317
1.38865
1.37472
1.36142
1.34873
1.33664
1.32515
1.31424
1.30389
1.29406
1.28474
1.27587
1.26739
1.25922
1.25125
1.24333
1.23534
1.22701