/*--------------------------------*- C++ -*----------------------------------*\
  =========                 |
  \\      /  F ield         | OpenFOAM: The Open Source CFD Toolbox
   \\    /   O peration     | Website:  https://openfoam.org
    \\  /    A nd           | Version:  10
     \\/     M anipulation  |
\*---------------------------------------------------------------------------*/
FoamFile
{
    format      ascii;
    class       volScalarField;
    location    "0.155";
    object      k;
}
// * * * * * * * * * * * * * * * * * * * * * * * * * * * * * * * * * * * * * //

dimensions      [0 2 -2 0 0 0 0];

internalField   nonuniform List<scalar> 
6820
(
0.196709
0.190616
0.184994
0.179724
0.174798
0.17025
0.166114
0.162407
0.159125
0.156249
0.153751
0.151602
0.149767
0.148216
0.146918
0.145846
0.144975
0.144281
0.143745
0.143347
0.143072
0.142905
0.142832
0.142843
0.142926
0.143073
0.143272
0.143539
0.143755
0.144447
0.143123
0.151412
0.114828
0.201954
0.200831
0.197543
0.193922
0.19084
0.188584
0.187154
0.186428
0.186258
0.186512
0.187082
0.187888
0.188871
0.189986
0.191198
0.192482
0.193816
0.195186
0.196578
0.197983
0.19939
0.200795
0.202193
0.20358
0.204956
0.206322
0.207683
0.209053
0.210449
0.211999
0.213476
0.216605
0.217275
0.200488
0.200475
0.199118
0.19707
0.194841
0.19269
0.190724
0.188985
0.187488
0.18623
0.185204
0.184391
0.183774
0.183333
0.183048
0.182901
0.182874
0.182953
0.183124
0.183375
0.183696
0.184076
0.184507
0.184983
0.185499
0.186049
0.18663
0.187247
0.18789
0.188601
0.189301
0.190197
0.190884
0.199662
0.199121
0.198219
0.196983
0.195545
0.194012
0.192458
0.190931
0.189463
0.188074
0.186776
0.185577
0.184479
0.183481
0.182583
0.181778
0.181063
0.180431
0.179879
0.179398
0.178985
0.178635
0.178341
0.1781
0.177908
0.177762
0.177658
0.177597
0.177576
0.177604
0.177673
0.177805
0.177985
0.199429
0.198466
0.197531
0.196513
0.195399
0.194214
0.192986
0.19174
0.190495
0.189267
0.188069
0.186909
0.185793
0.184727
0.183713
0.182753
0.181846
0.180992
0.180191
0.17944
0.178739
0.178084
0.177474
0.176906
0.176379
0.175892
0.175441
0.175028
0.174649
0.174308
0.174001
0.173731
0.173494
0.199398
0.198267
0.197202
0.196166
0.195133
0.194088
0.193029
0.191959
0.190884
0.189812
0.18875
0.187704
0.186678
0.185677
0.184704
0.183761
0.18285
0.181971
0.181126
0.180315
0.179537
0.178792
0.17808
0.177399
0.17675
0.17613
0.17554
0.174979
0.174446
0.173942
0.173465
0.173015
0.172591
0.199395
0.19822
0.197098
0.196021
0.194978
0.193957
0.192952
0.191958
0.190973
0.189998
0.189032
0.188079
0.187141
0.186218
0.185315
0.18443
0.183568
0.182727
0.181909
0.181114
0.180344
0.179597
0.178874
0.178174
0.177499
0.176846
0.176216
0.175609
0.175025
0.174462
0.173922
0.173404
0.172906
0.199395
0.198211
0.197069
0.195969
0.194908
0.193881
0.192884
0.191912
0.190961
0.190029
0.189115
0.188218
0.187337
0.186473
0.185625
0.184795
0.183983
0.183188
0.182412
0.181654
0.180916
0.180196
0.179495
0.178813
0.17815
0.177505
0.176879
0.176272
0.175682
0.175112
0.174559
0.174024
0.173507
0.199395
0.198209
0.197063
0.195955
0.194884
0.19385
0.192848
0.191877
0.190934
0.190017
0.189123
0.188251
0.1874
0.186569
0.185756
0.184962
0.184186
0.183427
0.182686
0.181962
0.181255
0.180566
0.179893
0.179236
0.178596
0.177973
0.177365
0.176774
0.176198
0.175639
0.175095
0.174566
0.174054
0.199395
0.198209
0.197061
0.195951
0.194877
0.193838
0.192833
0.19186
0.190916
0.190001
0.189113
0.18825
0.187411
0.186594
0.185799
0.185024
0.184268
0.183532
0.182813
0.182113
0.181429
0.180762
0.180112
0.179478
0.178859
0.178256
0.177668
0.177095
0.176537
0.175993
0.175464
0.17495
0.174449
0.199395
0.198209
0.197061
0.19595
0.194875
0.193834
0.192827
0.191852
0.190907
0.189992
0.189104
0.188243
0.187407
0.186596
0.185807
0.18504
0.184294
0.183569
0.182862
0.182175
0.181505
0.180853
0.180217
0.179598
0.178994
0.178406
0.177833
0.177275
0.176731
0.176202
0.175686
0.175184
0.174696
0.199395
0.198209
0.19706
0.195949
0.194874
0.193833
0.192825
0.191849
0.190903
0.189987
0.189099
0.188238
0.187402
0.186592
0.185805
0.185041
0.184299
0.183578
0.182877
0.182195
0.181532
0.180887
0.18026
0.179649
0.179054
0.178475
0.177912
0.177363
0.176829
0.176309
0.175803
0.175311
0.174831
0.199395
0.198209
0.19706
0.195949
0.194873
0.193832
0.192824
0.191847
0.190901
0.189984
0.189096
0.188234
0.187399
0.186588
0.185801
0.185038
0.184297
0.183577
0.182878
0.182199
0.181539
0.180897
0.180273
0.179666
0.179076
0.178502
0.177943
0.1774
0.176871
0.176357
0.175857
0.17537
0.174896
0.199395
0.198209
0.19706
0.195949
0.194873
0.193831
0.192823
0.191846
0.1909
0.189983
0.189094
0.188232
0.187396
0.186585
0.185799
0.185035
0.184294
0.183575
0.182876
0.182197
0.181538
0.180897
0.180275
0.17967
0.179081
0.178509
0.177953
0.177412
0.176886
0.176374
0.175877
0.175393
0.174922
0.199395
0.198208
0.19706
0.195948
0.194872
0.193831
0.192822
0.191845
0.190899
0.189981
0.189092
0.18823
0.187394
0.186583
0.185796
0.185033
0.184291
0.183572
0.182873
0.182195
0.181536
0.180895
0.180273
0.179668
0.179081
0.178509
0.177954
0.177414
0.176889
0.176378
0.175882
0.175399
0.17493
0.199395
0.198208
0.19706
0.195948
0.194872
0.19383
0.192822
0.191845
0.190898
0.18998
0.189091
0.188229
0.187393
0.186581
0.185794
0.185031
0.184289
0.18357
0.182871
0.182192
0.181533
0.180893
0.18027
0.179666
0.179078
0.178507
0.177952
0.177412
0.176887
0.176377
0.175881
0.175398
0.174929
0.199395
0.198208
0.19706
0.195948
0.194872
0.19383
0.192821
0.191844
0.190897
0.189979
0.18909
0.188228
0.187391
0.18658
0.185793
0.185029
0.184287
0.183567
0.182869
0.18219
0.18153
0.18089
0.180268
0.179663
0.179075
0.178504
0.177948
0.177409
0.176884
0.176373
0.175877
0.175395
0.174925
0.199395
0.198208
0.19706
0.195948
0.194872
0.19383
0.192821
0.191843
0.190896
0.189979
0.189089
0.188227
0.18739
0.186579
0.185791
0.185027
0.184286
0.183566
0.182866
0.182188
0.181528
0.180887
0.180265
0.17966
0.179072
0.178501
0.177945
0.177405
0.17688
0.17637
0.175873
0.17539
0.174921
0.199395
0.198208
0.197059
0.195948
0.194871
0.193829
0.19282
0.191843
0.190896
0.189978
0.189088
0.188226
0.187389
0.186577
0.18579
0.185026
0.184284
0.183564
0.182865
0.182186
0.181526
0.180885
0.180263
0.179658
0.179069
0.178498
0.177942
0.177402
0.176877
0.176366
0.175869
0.175386
0.174916
0.199395
0.198208
0.197059
0.195948
0.194871
0.193829
0.19282
0.191842
0.190895
0.189977
0.189088
0.188225
0.187388
0.186576
0.185789
0.185024
0.184282
0.183562
0.182863
0.182184
0.181524
0.180883
0.18026
0.179655
0.179067
0.178495
0.177939
0.177399
0.176873
0.176362
0.175865
0.175382
0.174911
0.199395
0.198208
0.197059
0.195947
0.194871
0.193829
0.19282
0.191842
0.190895
0.189977
0.189087
0.188224
0.187387
0.186575
0.185788
0.185023
0.184281
0.183561
0.182861
0.182182
0.181522
0.180881
0.180258
0.179653
0.179064
0.178492
0.177936
0.177396
0.17687
0.176359
0.175861
0.175378
0.174907
0.199395
0.198208
0.197059
0.195947
0.194871
0.193829
0.19282
0.191842
0.190895
0.189976
0.189086
0.188223
0.187386
0.186574
0.185787
0.185022
0.18428
0.183559
0.18286
0.18218
0.18152
0.180879
0.180256
0.179651
0.179062
0.17849
0.177934
0.177393
0.176867
0.176355
0.175858
0.175374
0.174903
0.199395
0.198208
0.197059
0.195947
0.194871
0.193829
0.192819
0.191842
0.190894
0.189976
0.189086
0.188223
0.187386
0.186574
0.185786
0.185021
0.184279
0.183558
0.182859
0.182179
0.181519
0.180877
0.180254
0.179649
0.17906
0.178488
0.177931
0.17739
0.176864
0.176352
0.175854
0.17537
0.174898
0.199395
0.198208
0.197059
0.195947
0.194871
0.193829
0.192819
0.191841
0.190894
0.189976
0.189085
0.188222
0.187385
0.186573
0.185785
0.18502
0.184278
0.183557
0.182857
0.182178
0.181517
0.180876
0.180253
0.179647
0.179058
0.178485
0.177929
0.177387
0.176861
0.176349
0.175851
0.175366
0.174894
0.199395
0.198208
0.197059
0.195947
0.194871
0.193829
0.192819
0.191841
0.190894
0.189975
0.189085
0.188222
0.187385
0.186572
0.185784
0.185019
0.184277
0.183556
0.182856
0.182176
0.181516
0.180874
0.180251
0.179645
0.179056
0.178483
0.177926
0.177385
0.176858
0.176346
0.175847
0.175362
0.17489
0.199395
0.198208
0.197059
0.195947
0.194871
0.193828
0.192819
0.191841
0.190894
0.189975
0.189085
0.188221
0.187384
0.186572
0.185784
0.185019
0.184276
0.183555
0.182855
0.182175
0.181515
0.180873
0.180249
0.179643
0.179054
0.178481
0.177924
0.177382
0.176856
0.176343
0.175844
0.175359
0.174887
0.199395
0.198208
0.197059
0.195947
0.194871
0.193828
0.192819
0.191841
0.190893
0.189975
0.189085
0.188221
0.187384
0.186571
0.185783
0.185018
0.184276
0.183555
0.182854
0.182174
0.181514
0.180872
0.180248
0.179642
0.179052
0.178479
0.177922
0.17738
0.176853
0.17634
0.175841
0.175356
0.174883
0.199395
0.198208
0.197059
0.195947
0.194871
0.193828
0.192819
0.191841
0.190893
0.189975
0.189084
0.188221
0.187384
0.186571
0.185783
0.185018
0.184275
0.183554
0.182854
0.182174
0.181513
0.180871
0.180247
0.179641
0.179051
0.178478
0.17792
0.177378
0.176851
0.176338
0.175839
0.175353
0.17488
0.199395
0.198208
0.197059
0.195947
0.194871
0.193828
0.192819
0.191841
0.190893
0.189975
0.189084
0.188221
0.187383
0.186571
0.185782
0.185017
0.184275
0.183553
0.182853
0.182173
0.181512
0.18087
0.180246
0.179639
0.17905
0.178476
0.177919
0.177377
0.176849
0.176336
0.175837
0.175351
0.174878
0.199395
0.198208
0.197059
0.195947
0.194871
0.193828
0.192819
0.191841
0.190894
0.189975
0.189085
0.188221
0.187384
0.186571
0.185783
0.185018
0.184275
0.183554
0.182853
0.182173
0.181512
0.18087
0.180246
0.179639
0.179049
0.178476
0.177918
0.177376
0.176848
0.176334
0.175835
0.175349
0.174876
0.199395
0.198208
0.197059
0.195947
0.194871
0.193828
0.192819
0.191841
0.190893
0.189975
0.189084
0.188221
0.187383
0.186571
0.185783
0.185017
0.184275
0.183553
0.182853
0.182173
0.181512
0.180869
0.180245
0.179639
0.179049
0.178475
0.177917
0.177375
0.176847
0.176333
0.175834
0.175347
0.174874
0.199395
0.198208
0.197059
0.195948
0.194871
0.193829
0.19282
0.191843
0.190895
0.189977
0.189087
0.188223
0.187386
0.186574
0.185785
0.18502
0.184277
0.183556
0.182855
0.182175
0.181514
0.180871
0.180247
0.17964
0.17905
0.178476
0.177918
0.177376
0.176848
0.176334
0.175834
0.175347
0.174874
0.199395
0.198209
0.19706
0.195949
0.194872
0.19383
0.192821
0.191843
0.190896
0.189977
0.189087
0.188224
0.187387
0.186575
0.185786
0.185021
0.184279
0.183558
0.182857
0.182177
0.181516
0.180873
0.180249
0.179642
0.179051
0.178477
0.177919
0.177376
0.176847
0.176333
0.175832
0.175345
0.17487
0.199395
0.198208
0.19706
0.19595
0.194875
0.193835
0.192827
0.191851
0.190904
0.189987
0.189097
0.188234
0.187397
0.186585
0.185796
0.185031
0.184288
0.183566
0.182865
0.182183
0.181521
0.180878
0.180252
0.179643
0.179051
0.178476
0.177915
0.17737
0.176839
0.176323
0.17582
0.17533
0.174853
0.199396
0.198212
0.197066
0.195957
0.194883
0.193842
0.192834
0.191857
0.190911
0.189993
0.189104
0.188241
0.187403
0.186591
0.185801
0.185035
0.18429
0.183566
0.182862
0.182177
0.181512
0.180864
0.180234
0.17962
0.179023
0.178442
0.177875
0.177324
0.176786
0.176263
0.175752
0.175255
0.17477
0.199396
0.198213
0.197071
0.195969
0.194902
0.193869
0.192866
0.191893
0.190947
0.190029
0.189137
0.18827
0.187426
0.186606
0.185808
0.185032
0.184276
0.18354
0.182823
0.182125
0.181445
0.180782
0.180136
0.179506
0.178892
0.178294
0.17771
0.17714
0.176584
0.176042
0.175513
0.174997
0.174493
0.199402
0.19824
0.197114
0.196018
0.194953
0.193916
0.192909
0.191928
0.190972
0.19004
0.189131
0.188245
0.18738
0.186535
0.185711
0.184907
0.184122
0.183356
0.182608
0.181878
0.181166
0.18047
0.17979
0.179127
0.178479
0.177846
0.177228
0.176624
0.176034
0.175457
0.174894
0.174344
0.173806
0.199421
0.198284
0.197214
0.196182
0.195158
0.194136
0.193118
0.19211
0.191116
0.190141
0.189186
0.188254
0.187346
0.18646
0.185598
0.184758
0.183939
0.183141
0.182364
0.181606
0.180867
0.180145
0.179442
0.178754
0.178084
0.177429
0.176789
0.176164
0.175553
0.174957
0.174374
0.173805
0.173248
0.199655
0.198885
0.198077
0.197302
0.196604
0.195976
0.195405
0.194881
0.194398
0.193953
0.193544
0.193169
0.192829
0.192523
0.192248
0.192003
0.191788
0.191601
0.19144
0.191303
0.191189
0.191097
0.191026
0.190973
0.190938
0.19092
0.190917
0.190929
0.190954
0.190992
0.191042
0.191103
0.191174
0.205419
0.216602
0.227661
0.238503
0.249093
0.259416
0.269459
0.279212
0.288667
0.297818
0.30666
0.31519
0.323409
0.331316
0.338915
0.34621
0.353204
0.359904
0.366316
0.372448
0.378306
0.383899
0.389236
0.394324
0.399173
0.403791
0.408186
0.412368
0.416345
0.420125
0.423717
0.427128
0.43037
0.317449
0.634082
0.956368
1.24519
1.48019
1.65305
1.76667
1.83165
1.86151
1.86877
1.86303
1.85067
1.83544
1.81928
1.80315
1.78749
1.77256
1.7586
1.74582
1.73439
1.72441
1.71589
1.70876
1.70283
1.69786
1.69351
1.68944
1.68524
1.6805
1.6748
1.66768
1.65872
1.64747
1.63354
1.61656
1.5962
1.57221
1.54439
1.51262
1.47686
1.43718
1.39373
1.34676
1.29665
1.24389
1.18906
1.13282
1.07593
1.01918
0.96336
0.909284
0.857705
0.809307
0.764672
0.724259
0.688389
0.657239
0.630851
0.609142
0.591925
0.578926
0.569791
0.564097
0.561348
0.560977
0.56234
0.564718
0.567332
0.569361
0.569967
0.568338
0.56372
0.555468
0.543082
0.526249
0.504876
0.479127
0.449441
0.416555
0.381495
0.345545
0.310164
0.276839
0.246891
0.221263
0.200384
0.184159
0.1721
0.163513
0.157665
0.153896
0.151661
0.150538
0.150213
0.150468
0.151141
0.152138
0.153398
0.154714
0.157269
0.231501
0.261261
0.306403
0.367681
0.444662
0.5354
0.636213
0.74214
0.847571
0.947309
1.03724
1.11471
1.17864
1.22933
1.2681
1.29686
1.31764
1.33231
1.34244
1.34921
1.35351
1.35592
1.35684
1.35651
1.35506
1.35255
1.34894
1.34414
1.33799
1.33031
1.32087
1.3094
1.29564
1.27932
1.26019
1.23806
1.21277
1.18425
1.15248
1.11754
1.07957
1.03884
0.995672
0.95052
0.903908
0.85644
0.808775
0.761602
0.71561
0.671457
0.629745
0.590993
0.555615
0.523908
0.496049
0.472097
0.452011
0.435668
0.422884
0.413436
0.407078
0.40354
0.40253
0.403724
0.406746
0.411159
0.416448
0.422023
0.427227
0.431355
0.433695
0.433563
0.430355
0.423599
0.412993
0.398456
0.380152
0.358518
0.334259
0.308331
0.281878
0.256124
0.232221
0.211094
0.193304
0.179014
0.168041
0.159977
0.154318
0.150556
0.148243
0.147004
0.146551
0.146663
0.147188
0.148012
0.149073
0.150333
0.151613
0.154047
0.191838
0.194122
0.198894
0.206782
0.218079
0.23309
0.252264
0.276089
0.30519
0.340052
0.38066
0.426424
0.476194
0.528381
0.581157
0.632689
0.681355
0.725902
0.765523
0.79985
0.828892
0.85292
0.87236
0.887688
0.899361
0.907766
0.913207
0.915906
0.916005
0.913586
0.908674
0.901254
0.891285
0.878711
0.863482
0.845576
0.82501
0.801851
0.77623
0.748341
0.718443
0.686862
0.653992
0.620284
0.586239
0.552385
0.519253
0.487354
0.457148
0.429023
0.403279
0.380124
0.359667
0.341929
0.326859
0.31435
0.304257
0.296419
0.290676
0.286874
0.284872
0.284543
0.285757
0.288378
0.292234
0.297108
0.302714
0.308686
0.314576
0.319865
0.323987
0.32637
0.326482
0.323884
0.318282
0.309575
0.297882
0.283565
0.267213
0.24961
0.231658
0.214274
0.198268
0.184241
0.172519
0.163167
0.156039
0.150859
0.147298
0.145029
0.143754
0.143223
0.143238
0.143647
0.144345
0.145252
0.146328
0.147552
0.148767
0.151042
0.178139
0.178314
0.178707
0.179507
0.180859
0.182881
0.185669
0.189331
0.194023
0.199877
0.207122
0.216018
0.226819
0.239733
0.254878
0.272247
0.291676
0.31284
0.335265
0.358364
0.381497
0.404023
0.425356
0.444998
0.462566
0.477785
0.490487
0.500589
0.508075
0.512976
0.515347
0.515259
0.512785
0.508006
0.501008
0.491899
0.480814
0.467921
0.453429
0.43758
0.420652
0.402949
0.384799
0.366539
0.348507
0.331024
0.314378
0.298808
0.284494
0.271553
0.260043
0.249968
0.24129
0.233944
0.227847
0.222909
0.219044
0.216173
0.214232
0.21317
0.212951
0.213549
0.214943
0.217111
0.220014
0.223581
0.227697
0.232189
0.236808
0.241237
0.245096
0.247967
0.249434
0.249128
0.246776
0.242249
0.235591
0.227039
0.217003
0.206039
0.194774
0.183832
0.173748
0.164911
0.157533
0.151665
0.147228
0.144062
0.141969
0.140742
0.14019
0.140146
0.140477
0.141078
0.141875
0.142813
0.143868
0.145028
0.146161
0.14825
0.17322
0.172894
0.172598
0.172375
0.17226
0.172286
0.17248
0.172863
0.173463
0.174291
0.175374
0.176751
0.178472
0.180596
0.183182
0.186289
0.18997
0.194261
0.19918
0.204713
0.210812
0.21739
0.224324
0.231453
0.238595
0.245548
0.252112
0.258095
0.263325
0.26766
0.270991
0.273243
0.274375
0.274374
0.273257
0.271072
0.267893
0.263822
0.258983
0.253517
0.247578
0.241323
0.23491
0.228486
0.222189
0.216136
0.210424
0.205123
0.200281
0.19592
0.192047
0.188653
0.18572
0.183224
0.181142
0.179449
0.178125
0.177155
0.176529
0.176245
0.176307
0.176724
0.177511
0.17868
0.180239
0.182182
0.184477
0.18706
0.189821
0.192601
0.195186
0.197323
0.198737
0.199163
0.198384
0.196268
0.192797
0.188086
0.182373
0.175996
0.169348
0.162825
0.156769
0.151437
0.146983
0.143461
0.140842
0.139041
0.137945
0.137425
0.137358
0.137636
0.138166
0.138876
0.139717
0.140647
0.141655
0.142735
0.143774
0.14566
0.172118
0.171581
0.171048
0.170531
0.170039
0.169582
0.169171
0.168818
0.16853
0.16831
0.168161
0.168089
0.168097
0.168195
0.168391
0.168699
0.169128
0.169691
0.170396
0.17125
0.172254
0.173404
0.174685
0.17608
0.177558
0.179083
0.180611
0.182094
0.183481
0.184721
0.185768
0.186581
0.187127
0.187382
0.187332
0.186974
0.186319
0.185385
0.184202
0.182808
0.181245
0.179556
0.177787
0.17598
0.174174
0.172406
0.170703
0.169088
0.16758
0.166187
0.164916
0.163768
0.162742
0.161834
0.161041
0.160359
0.159787
0.159323
0.15897
0.158735
0.158626
0.158657
0.158844
0.159202
0.159748
0.160491
0.161432
0.162554
0.163816
0.165148
0.16645
0.167588
0.168406
0.168744
0.168456
0.167437
0.165646
0.163121
0.159978
0.156403
0.152621
0.148868
0.14536
0.142266
0.139693
0.137693
0.136263
0.13536
0.134917
0.134857
0.135101
0.135575
0.136218
0.136977
0.13782
0.138715
0.139658
0.140645
0.141584
0.143259
0.172349
0.171722
0.171096
0.170474
0.16986
0.169255
0.168663
0.168089
0.167536
0.167008
0.166507
0.166035
0.165591
0.165179
0.164798
0.164452
0.164141
0.163868
0.163636
0.163446
0.1633
0.163198
0.163137
0.163116
0.163129
0.163169
0.163228
0.163295
0.163359
0.163406
0.163424
0.163403
0.163331
0.163199
0.163002
0.162734
0.162396
0.161989
0.161518
0.160991
0.160416
0.159805
0.159168
0.158516
0.15786
0.157209
0.156571
0.155952
0.155357
0.154789
0.154248
0.153733
0.153245
0.152779
0.152334
0.151908
0.1515
0.15111
0.15074
0.150394
0.150079
0.149804
0.14958
0.14942
0.149337
0.149344
0.149448
0.149651
0.149942
0.150297
0.150673
0.151007
0.151223
0.151233
0.150953
0.150316
0.149283
0.14786
0.146099
0.144092
0.141962
0.139846
0.13787
0.136143
0.134737
0.133691
0.133009
0.132672
0.132639
0.132861
0.133287
0.133868
0.134559
0.135324
0.136139
0.136979
0.137846
0.138733
0.13957
0.141035
0.172925
0.172269
0.171612
0.170955
0.170299
0.169645
0.168995
0.168351
0.167714
0.167085
0.166468
0.165862
0.165269
0.16469
0.164125
0.163575
0.163041
0.162522
0.16202
0.161536
0.161069
0.160621
0.160191
0.159779
0.159385
0.159007
0.158643
0.158292
0.15795
0.157615
0.157283
0.156952
0.156618
0.15628
0.155935
0.155581
0.155218
0.154846
0.154466
0.15408
0.153688
0.153294
0.1529
0.152509
0.152122
0.151741
0.151367
0.151
0.150639
0.150283
0.149929
0.149575
0.149217
0.148851
0.148476
0.148086
0.147681
0.147258
0.146818
0.146363
0.145895
0.145421
0.144948
0.144483
0.144039
0.143623
0.143247
0.142917
0.142634
0.142395
0.142185
0.14198
0.141747
0.141444
0.14103
0.140465
0.139727
0.138813
0.137743
0.136564
0.135339
0.134145
0.133053
0.132128
0.131416
0.130941
0.13071
0.130709
0.130914
0.131294
0.131813
0.132435
0.13313
0.133869
0.134636
0.135409
0.136192
0.136978
0.137714
0.138972
0.173475
0.17282
0.172163
0.171505
0.170845
0.170184
0.169523
0.168862
0.168203
0.167547
0.166894
0.166247
0.165604
0.164969
0.164341
0.16372
0.163108
0.162505
0.161911
0.161326
0.160752
0.160188
0.159635
0.159094
0.158563
0.158045
0.157538
0.157043
0.156559
0.156086
0.155623
0.15517
0.154727
0.154293
0.153868
0.153451
0.153044
0.152644
0.152254
0.151873
0.151501
0.151138
0.150785
0.150441
0.150106
0.149778
0.149457
0.149139
0.148823
0.148505
0.148181
0.147848
0.147501
0.147137
0.146751
0.146339
0.145899
0.145428
0.144924
0.144389
0.143823
0.143229
0.142613
0.141978
0.141334
0.140688
0.140049
0.139423
0.138819
0.13824
0.137686
0.13715
0.136624
0.136091
0.135534
0.134937
0.134288
0.133586
0.132841
0.132075
0.131322
0.130622
0.130016
0.129538
0.129216
0.129063
0.129082
0.129264
0.129593
0.130044
0.130593
0.131214
0.131882
0.132575
0.133279
0.133978
0.134674
0.13536
0.135998
0.137058
0.173882
0.173241
0.172597
0.171949
0.1713
0.170648
0.169994
0.169339
0.168683
0.168027
0.167372
0.166718
0.166067
0.165419
0.164775
0.164134
0.163499
0.162869
0.162244
0.161626
0.161015
0.160411
0.159814
0.159226
0.158647
0.158077
0.157517
0.156967
0.156427
0.155899
0.155382
0.154877
0.154385
0.153904
0.153437
0.152983
0.152542
0.152115
0.151702
0.151301
0.150914
0.15054
0.150178
0.149827
0.149485
0.149151
0.148822
0.148496
0.148169
0.147837
0.147497
0.147145
0.146776
0.146386
0.14597
0.145525
0.145048
0.144535
0.143984
0.143396
0.14277
0.142108
0.141412
0.140687
0.139939
0.139172
0.138396
0.137617
0.136843
0.136081
0.135336
0.134612
0.133911
0.133229
0.132565
0.131914
0.131274
0.130647
0.130041
0.129466
0.128943
0.128491
0.128132
0.127885
0.127764
0.127775
0.127917
0.128182
0.128557
0.129024
0.129563
0.130152
0.130774
0.131408
0.132043
0.132663
0.133273
0.13386
0.134405
0.135278
0.174142
0.173515
0.172886
0.172253
0.171617
0.170979
0.170338
0.169696
0.169051
0.168406
0.167759
0.167114
0.166468
0.165824
0.165182
0.164542
0.163905
0.163272
0.162642
0.162016
0.161396
0.160781
0.160171
0.159568
0.158973
0.158385
0.157805
0.157234
0.156673
0.156122
0.155582
0.155053
0.154536
0.154032
0.153541
0.153064
0.152601
0.152151
0.151716
0.151295
0.150887
0.150492
0.150109
0.149737
0.149373
0.149017
0.148665
0.148314
0.147961
0.147603
0.147235
0.146855
0.146456
0.146036
0.14559
0.145114
0.144605
0.144061
0.143478
0.142856
0.142195
0.141495
0.140758
0.139988
0.139188
0.138364
0.137522
0.136668
0.135811
0.134958
0.134117
0.133295
0.132498
0.13173
0.130997
0.130301
0.129646
0.129037
0.128481
0.127985
0.127561
0.12722
0.126973
0.126831
0.126797
0.126875
0.127061
0.127347
0.12772
0.128167
0.128671
0.129212
0.129775
0.130342
0.130904
0.131445
0.131971
0.132464
0.13292
0.133619
0.174288
0.173673
0.173055
0.172434
0.171811
0.171185
0.170557
0.169926
0.169294
0.16866
0.168025
0.16739
0.166755
0.16612
0.165486
0.164854
0.164223
0.163595
0.162969
0.162346
0.161727
0.161112
0.160502
0.159897
0.159298
0.158705
0.15812
0.157542
0.156973
0.156413
0.155862
0.155322
0.154793
0.154276
0.15377
0.153278
0.152798
0.152332
0.151879
0.151439
0.151012
0.150596
0.150191
0.149796
0.149409
0.149028
0.14865
0.148273
0.147893
0.147508
0.147112
0.146704
0.146278
0.145831
0.145359
0.144859
0.144326
0.143759
0.143155
0.142513
0.141831
0.141112
0.140356
0.139565
0.138743
0.137895
0.137025
0.136141
0.135249
0.134357
0.133473
0.132605
0.131762
0.130951
0.13018
0.129455
0.128783
0.128171
0.127626
0.127154
0.126764
0.126462
0.126253
0.126144
0.126134
0.126223
0.126406
0.126676
0.12702
0.127426
0.127879
0.128362
0.12886
0.129358
0.129846
0.13031
0.130753
0.131158
0.131532
0.13207
0.174359
0.173752
0.173142
0.17253
0.171915
0.171298
0.170679
0.170058
0.169435
0.16881
0.168185
0.167559
0.166933
0.166307
0.165681
0.165056
0.164433
0.163811
0.163191
0.162574
0.16196
0.161349
0.160742
0.160139
0.159541
0.158949
0.158363
0.157784
0.157212
0.156648
0.156093
0.155547
0.15501
0.154485
0.15397
0.153467
0.152975
0.152496
0.152028
0.151573
0.151128
0.150694
0.15027
0.149854
0.149446
0.149042
0.148641
0.14824
0.147837
0.147427
0.147008
0.146576
0.146128
0.145659
0.145167
0.144647
0.144097
0.143514
0.142897
0.142243
0.141551
0.140823
0.14006
0.139263
0.138435
0.13758
0.136704
0.135812
0.134911
0.134007
0.133109
0.132226
0.131365
0.130536
0.129748
0.129007
0.128324
0.127704
0.127155
0.126684
0.126296
0.125996
0.125789
0.125675
0.125654
0.125724
0.12588
0.126112
0.126411
0.126764
0.127158
0.127578
0.12801
0.128438
0.128854
0.129242
0.129608
0.12993
0.130227
0.130618
0.174389
0.173785
0.17318
0.172572
0.171962
0.17135
0.170737
0.170122
0.169505
0.168887
0.168268
0.167648
0.167028
0.166408
0.165788
0.165169
0.164552
0.163935
0.16332
0.162708
0.162097
0.16149
0.160886
0.160286
0.15969
0.159099
0.158514
0.157934
0.157361
0.156795
0.156237
0.155687
0.155146
0.154614
0.154092
0.153581
0.15308
0.15259
0.15211
0.151641
0.151183
0.150733
0.150293
0.14986
0.149433
0.14901
0.14859
0.148169
0.147745
0.147316
0.146877
0.146426
0.14596
0.145474
0.144967
0.144433
0.143871
0.143278
0.142652
0.141992
0.141297
0.140567
0.139803
0.139007
0.138182
0.137331
0.136459
0.13557
0.134672
0.133771
0.132875
0.131991
0.131129
0.130297
0.129503
0.128757
0.128066
0.127439
0.126882
0.126402
0.126004
0.125691
0.125466
0.12533
0.125282
0.125317
0.125431
0.125616
0.125861
0.126157
0.126489
0.126844
0.127209
0.127568
0.127915
0.128232
0.128526
0.12877
0.128998
0.129255
0.174397
0.173795
0.173192
0.172586
0.171978
0.171369
0.170758
0.170146
0.169532
0.168917
0.168302
0.167685
0.167069
0.166452
0.165836
0.16522
0.164605
0.163992
0.163379
0.162769
0.162161
0.161556
0.160954
0.160355
0.15976
0.159169
0.158583
0.158003
0.157429
0.156861
0.1563
0.155746
0.155201
0.154664
0.154136
0.153617
0.153108
0.152609
0.152119
0.151639
0.151168
0.150706
0.150251
0.149804
0.149362
0.148923
0.148486
0.148049
0.147609
0.147164
0.146709
0.146244
0.145763
0.145265
0.144745
0.144202
0.143632
0.143033
0.142403
0.14174
0.141045
0.140317
0.139557
0.138766
0.137948
0.137105
0.136242
0.135363
0.134475
0.133584
0.132696
0.13182
0.130964
0.130136
0.129345
0.128599
0.127905
0.127273
0.126707
0.126215
0.125801
0.125468
0.125218
0.125052
0.124968
0.124961
0.125028
0.125161
0.12535
0.125585
0.125855
0.126146
0.126445
0.126739
0.12702
0.127271
0.127497
0.127671
0.127834
0.127971
0.174397
0.173795
0.173192
0.172587
0.17198
0.171371
0.170761
0.17015
0.169537
0.168923
0.168309
0.167694
0.167078
0.166463
0.165847
0.165232
0.164618
0.164005
0.163394
0.162784
0.162176
0.161571
0.160968
0.160369
0.159773
0.159181
0.158594
0.158012
0.157435
0.156864
0.1563
0.155742
0.155192
0.15465
0.154116
0.15359
0.153074
0.152566
0.152068
0.151578
0.151096
0.150623
0.150156
0.149696
0.149241
0.148789
0.148339
0.147888
0.147435
0.146976
0.146509
0.146032
0.14554
0.145032
0.144504
0.143954
0.143378
0.142775
0.142143
0.141481
0.140788
0.140064
0.13931
0.138527
0.137719
0.136886
0.136035
0.135169
0.134293
0.133414
0.132539
0.131675
0.130828
0.130009
0.129223
0.128479
0.127786
0.127149
0.126576
0.126071
0.12564
0.125285
0.125007
0.124807
0.124684
0.124633
0.12465
0.124729
0.124861
0.125037
0.125245
0.125473
0.12571
0.125941
0.12616
0.126349
0.126513
0.126623
0.126729
0.126759
0.174393
0.173791
0.173188
0.172582
0.171975
0.171366
0.170756
0.170144
0.169531
0.168917
0.168303
0.167687
0.167071
0.166455
0.165839
0.165224
0.164609
0.163995
0.163383
0.162771
0.162162
0.161555
0.160951
0.16035
0.159752
0.159157
0.158567
0.157982
0.157402
0.156827
0.156258
0.155696
0.155141
0.154593
0.154053
0.15352
0.152996
0.152481
0.151974
0.151475
0.150984
0.1505
0.150023
0.149552
0.149085
0.148622
0.14816
0.147698
0.147233
0.146764
0.146286
0.145799
0.145299
0.144783
0.144248
0.143693
0.143114
0.142509
0.141877
0.141217
0.140527
0.139809
0.139062
0.138288
0.137489
0.136669
0.13583
0.134977
0.134116
0.133251
0.132389
0.131537
0.130702
0.129892
0.129113
0.128374
0.127681
0.127042
0.126461
0.125944
0.125495
0.125116
0.12481
0.124576
0.124413
0.124317
0.124284
0.124309
0.124385
0.124501
0.124649
0.124817
0.124994
0.125167
0.125328
0.12546
0.125569
0.125621
0.125676
0.125611
0.174388
0.173786
0.173182
0.172575
0.171968
0.171358
0.170747
0.170135
0.169521
0.168906
0.168291
0.167674
0.167057
0.16644
0.165823
0.165206
0.164589
0.163973
0.163359
0.162745
0.162134
0.161524
0.160917
0.160312
0.159711
0.159113
0.15852
0.15793
0.157345
0.156766
0.156192
0.155625
0.155064
0.15451
0.153963
0.153424
0.152893
0.152369
0.151854
0.151346
0.150846
0.150353
0.149866
0.149385
0.148908
0.148435
0.147963
0.14749
0.147016
0.146536
0.14605
0.145555
0.145047
0.144525
0.143985
0.143426
0.142844
0.142239
0.141608
0.14095
0.140265
0.139552
0.138813
0.138048
0.13726
0.136452
0.135626
0.134787
0.133939
0.133088
0.13224
0.131401
0.130578
0.129777
0.129006
0.128271
0.12758
0.126937
0.126348
0.125819
0.125352
0.124951
0.124616
0.124347
0.124143
0.124002
0.12392
0.123892
0.123912
0.123971
0.124061
0.124171
0.124292
0.12441
0.124518
0.124599
0.124658
0.124659
0.124669
0.124522
0.174383
0.17378
0.173175
0.172568
0.17196
0.17135
0.170738
0.170124
0.16951
0.168894
0.168277
0.167659
0.16704
0.166421
0.165802
0.165183
0.164565
0.163946
0.163329
0.162713
0.162099
0.161486
0.160875
0.160267
0.159662
0.15906
0.158462
0.157868
0.157279
0.156694
0.156115
0.155542
0.154975
0.154414
0.153861
0.153315
0.152776
0.152245
0.151721
0.151205
0.150696
0.150194
0.149698
0.149208
0.148721
0.148238
0.147757
0.147275
0.146791
0.146304
0.14581
0.145307
0.144793
0.144265
0.143721
0.143159
0.142575
0.14197
0.14134
0.140685
0.140005
0.139298
0.138567
0.137811
0.137034
0.136237
0.135423
0.134597
0.133763
0.132926
0.132091
0.131265
0.130452
0.129661
0.128897
0.128166
0.127474
0.126828
0.126232
0.12569
0.125205
0.124779
0.124415
0.124111
0.123868
0.123682
0.12355
0.12347
0.123435
0.123438
0.123472
0.123528
0.123596
0.123664
0.123724
0.123759
0.123775
0.123732
0.123704
0.123487
0.174378
0.173775
0.173169
0.172561
0.171952
0.171341
0.170728
0.170114
0.169498
0.168881
0.168262
0.167643
0.167023
0.166402
0.165781
0.16516
0.164539
0.163918
0.163298
0.162679
0.162062
0.161446
0.160831
0.16022
0.15961
0.159004
0.158401
0.157803
0.157208
0.156618
0.156034
0.155454
0.154881
0.154314
0.153754
0.153201
0.152655
0.152116
0.151584
0.15106
0.150543
0.150032
0.149527
0.149028
0.148532
0.14804
0.14755
0.147059
0.146567
0.146072
0.14557
0.145061
0.144541
0.144008
0.14346
0.142895
0.142311
0.141705
0.141077
0.140425
0.139749
0.139049
0.138324
0.137578
0.13681
0.136024
0.135223
0.134409
0.133588
0.132764
0.131941
0.131126
0.130324
0.129541
0.128782
0.128054
0.127362
0.126712
0.126106
0.12555
0.125046
0.124596
0.124202