/*--------------------------------*- C++ -*----------------------------------*\
  =========                 |
  \\      /  F ield         | OpenFOAM: The Open Source CFD Toolbox
   \\    /   O peration     | Website:  https://openfoam.org
    \\  /    A nd           | Version:  10
     \\/     M anipulation  |
\*---------------------------------------------------------------------------*/
FoamFile
{
    format      ascii;
    class       volScalarField;
    location    "0.155";
    object      nut;
}
// * * * * * * * * * * * * * * * * * * * * * * * * * * * * * * * * * * * * * //

dimensions      [0 2 -1 0 0 0 0];

internalField   nonuniform List<scalar> 
6820
(
0.000149484
0.000144853
0.000140581
0.000136577
0.000132833
0.000129377
0.000126234
0.000123417
0.000120923
0.000118737
0.000116839
0.000115206
0.000113811
0.000112633
0.000111646
0.000110832
0.00011017
0.000109642
0.000109235
0.000108933
0.000108724
0.000108597
0.000108541
0.000108549
0.000108612
0.000108724
0.000108875
0.000109079
0.000109243
0.000109768
0.000108763
0.000115061
8.72734e-05
0.000729198
0.00053239
0.00044801
0.000399705
0.000368378
0.000346728
0.000331085
0.000319356
0.000310269
0.00030302
0.000297089
0.000292129
0.000287905
0.000284251
0.000281051
0.000278218
0.000275687
0.000273407
0.000271342
0.000269458
0.000267733
0.000266145
0.000264678
0.000263318
0.000262055
0.000260877
0.000259778
0.000258751
0.000257795
0.000256914
0.000256121
0.000255304
0.000256754
0.000976777
0.000872181
0.000781622
0.000711263
0.000657316
0.000615275
0.000581702
0.000554241
0.000531303
0.000511805
0.000494988
0.000480305
0.00046735
0.000455819
0.000445477
0.000436141
0.000427664
0.000419929
0.000412841
0.00040632
0.0004003
0.000394726
0.000389549
0.000384729
0.00038023
0.00037602
0.000372067
0.000368347
0.00036482
0.000361477
0.000358209
0.000355008
0.000351427
0.00101349
0.00098823
0.000949374
0.000906193
0.000864424
0.000826381
0.000792548
0.000762659
0.000736221
0.000712724
0.000691712
0.000672802
0.00065568
0.000640085
0.000625806
0.000612669
0.000600531
0.000589272
0.000578792
0.000569007
0.000559845
0.000551246
0.000543155
0.000535528
0.000528322
0.000521502
0.000515033
0.000508887
0.000503027
0.000497436
0.000492048
0.000486888
0.000481723
0.00101671
0.00101241
0.00100191
0.000985661
0.000965603
0.000943711
0.00092142
0.000899608
0.000878742
0.000859033
0.000840539
0.000823238
0.000807066
0.000791944
0.000777786
0.000764509
0.000752035
0.000740292
0.000729215
0.000718747
0.000708836
0.000699434
0.000690501
0.000682
0.000673896
0.00066616
0.000658761
0.000651675
0.000644871
0.000638331
0.000632014
0.000625911
0.000619961
0.00101676
0.00101592
0.0010136
0.00100903
0.00100204
0.000992919
0.00098219
0.000970396
0.000958003
0.000945371
0.000932758
0.000920338
0.000908226
0.000896488
0.000885163
0.000874268
0.000863803
0.000853762
0.000844133
0.000834899
0.000826042
0.000817544
0.000809384
0.000801545
0.000794007
0.000786754
0.000779766
0.000773028
0.00076652
0.000760228
0.000754131
0.000748217
0.000742468
0.00101671
0.00101623
0.00101553
0.00101428
0.00101219
0.0010091
0.00100497
0.000999891
0.000994019
0.000987519
0.000980556
0.000973278
0.000965807
0.000958243
0.000950664
0.00094313
0.000935684
0.000928361
0.000921182
0.000914165
0.000907318
0.000900648
0.000894157
0.000887845
0.00088171
0.000875747
0.000869953
0.00086432
0.000858843
0.000853514
0.000848326
0.000843273
0.000838351
0.0010167
0.00101622
0.00101574
0.00101518
0.00101442
0.00101335
0.00101188
0.00100995
0.00100755
0.0010047
0.00100144
0.000997825
0.000993908
0.000989749
0.000985402
0.000980917
0.000976336
0.000971694
0.000967024
0.000962349
0.00095769
0.000953066
0.000948488
0.000943967
0.000939511
0.000935126
0.000930816
0.000926584
0.000922431
0.000918358
0.000914366
0.000910455
0.000906626
0.0010167
0.00101621
0.00101575
0.00101528
0.0010148
0.00101425
0.00101359
0.00101279
0.00101179
0.00101059
0.00100917
0.00100754
0.00100569
0.00100365
0.00100143
0.000999062
0.00099656
0.000993947
0.000991243
0.000988467
0.000985636
0.000982764
0.000979866
0.000976952
0.000974034
0.000971118
0.000968214
0.000965327
0.000962462
0.000959624
0.000956817
0.000954045
0.000951312
0.0010167
0.00101621
0.00101574
0.00101529
0.00101484
0.00101439
0.00101393
0.00101344
0.0010129
0.00101229
0.0010116
0.00101082
0.00100994
0.00100895
0.00100786
0.00100668
0.0010054
0.00100403
0.00100258
0.00100106
0.00099948
0.000997844
0.00099616
0.000994438
0.000992684
0.000990906
0.000989108
0.000987297
0.000985478
0.000983657
0.000981836
0.000980022
0.000978218
0.0010167
0.00101621
0.00101574
0.00101528
0.00101484
0.00101441
0.00101398
0.00101356
0.00101313
0.0010127
0.00101224
0.00101176
0.00101125
0.0010107
0.0010101
0.00100947
0.00100878
0.00100805
0.00100727
0.00100645
0.00100559
0.00100468
0.00100374
0.00100277
0.00100177
0.00100074
0.000999683
0.000998611
0.000997523
0.000996422
0.000995312
0.000994195
0.000993076
0.0010167
0.00101621
0.00101574
0.00101528
0.00101484
0.0010144
0.00101398
0.00101357
0.00101317
0.00101277
0.00101238
0.00101199
0.00101159
0.00101119
0.00101078
0.00101035
0.00100991
0.00100946
0.00100898
0.00100849
0.00100798
0.00100744
0.00100689
0.00100632
0.00100574
0.00100513
0.00100451
0.00100388
0.00100324
0.00100258
0.00100192
0.00100125
0.00100057
0.0010167
0.00101621
0.00101574
0.00101528
0.00101483
0.0010144
0.00101398
0.00101357
0.00101317
0.00101278
0.0010124
0.00101203
0.00101167
0.00101131
0.00101095
0.00101059
0.00101024
0.00100988
0.00100953
0.00100917
0.0010088
0.00100843
0.00100806
0.00100767
0.00100729
0.00100689
0.0010065
0.00100609
0.00100568
0.00100527
0.00100485
0.00100443
0.00100401
0.0010167
0.00101621
0.00101574
0.00101528
0.00101483
0.0010144
0.00101398
0.00101357
0.00101317
0.00101278
0.0010124
0.00101204
0.00101168
0.00101133
0.00101098
0.00101065
0.00101032
0.00101
0.00100968
0.00100936
0.00100905
0.00100874
0.00100843
0.00100813
0.00100783
0.00100752
0.00100722
0.00100692
0.00100662
0.00100632
0.00100603
0.00100573
0.00100543
0.0010167
0.00101621
0.00101574
0.00101528
0.00101483
0.0010144
0.00101398
0.00101357
0.00101317
0.00101278
0.0010124
0.00101203
0.00101168
0.00101133
0.00101099
0.00101066
0.00101033
0.00101002
0.00100971
0.00100941
0.00100911
0.00100882
0.00100854
0.00100826
0.00100799
0.00100772
0.00100746
0.0010072
0.00100694
0.00100669
0.00100645
0.0010062
0.00100596
0.0010167
0.00101621
0.00101574
0.00101528
0.00101483
0.0010144
0.00101397
0.00101356
0.00101316
0.00101278
0.0010124
0.00101203
0.00101167
0.00101132
0.00101098
0.00101065
0.00101033
0.00101002
0.00100971
0.00100941
0.00100912
0.00100884
0.00100856
0.00100829
0.00100803
0.00100777
0.00100752
0.00100728
0.00100704
0.00100681
0.00100658
0.00100635
0.00100614
0.0010167
0.00101621
0.00101574
0.00101528
0.00101483
0.0010144
0.00101397
0.00101356
0.00101316
0.00101277
0.0010124
0.00101203
0.00101167
0.00101132
0.00101098
0.00101065
0.00101033
0.00101002
0.00100971
0.00100941
0.00100912
0.00100884
0.00100857
0.0010083
0.00100804
0.00100778
0.00100754
0.0010073
0.00100706
0.00100683
0.00100661
0.00100639
0.00100618
0.0010167
0.00101621
0.00101574
0.00101528
0.00101483
0.0010144
0.00101397
0.00101356
0.00101316
0.00101277
0.00101239
0.00101203
0.00101167
0.00101132
0.00101098
0.00101065
0.00101033
0.00101001
0.00100971
0.00100941
0.00100912
0.00100884
0.00100856
0.0010083
0.00100803
0.00100778
0.00100753
0.00100729
0.00100706
0.00100683
0.00100661
0.0010064
0.00100619
0.0010167
0.00101621
0.00101574
0.00101528
0.00101483
0.00101439
0.00101397
0.00101356
0.00101316
0.00101277
0.00101239
0.00101202
0.00101167
0.00101132
0.00101098
0.00101065
0.00101032
0.00101001
0.0010097
0.00100941
0.00100912
0.00100883
0.00100856
0.00100829
0.00100803
0.00100778
0.00100753
0.00100729
0.00100706
0.00100683
0.00100661
0.00100639
0.00100618
0.0010167
0.00101621
0.00101574
0.00101528
0.00101483
0.00101439
0.00101397
0.00101356
0.00101316
0.00101277
0.00101239
0.00101202
0.00101166
0.00101131
0.00101097
0.00101064
0.00101032
0.00101001
0.0010097
0.0010094
0.00100911
0.00100883
0.00100855
0.00100829
0.00100803
0.00100777
0.00100752
0.00100728
0.00100705
0.00100682
0.0010066
0.00100639
0.00100618
0.0010167
0.00101621
0.00101574
0.00101528
0.00101483
0.00101439
0.00101397
0.00101356
0.00101316
0.00101277
0.00101239
0.00101202
0.00101166
0.00101131
0.00101097
0.00101064
0.00101032
0.00101
0.0010097
0.0010094
0.00100911
0.00100883
0.00100855
0.00100828
0.00100802
0.00100777
0.00100752
0.00100728
0.00100704
0.00100682
0.00100659
0.00100638
0.00100617
0.0010167
0.00101621
0.00101574
0.00101528
0.00101483
0.00101439
0.00101397
0.00101356
0.00101316
0.00101277
0.00101239
0.00101202
0.00101166
0.00101131
0.00101097
0.00101064
0.00101032
0.00101
0.0010097
0.0010094
0.00100911
0.00100882
0.00100855
0.00100828
0.00100802
0.00100776
0.00100751
0.00100727
0.00100704
0.00100681
0.00100659
0.00100637
0.00100616
0.0010167
0.00101621
0.00101574
0.00101528
0.00101483
0.00101439
0.00101397
0.00101356
0.00101316
0.00101277
0.00101239
0.00101202
0.00101166
0.00101131
0.00101097
0.00101064
0.00101031
0.00101
0.00100969
0.00100939
0.0010091
0.00100882
0.00100854
0.00100828
0.00100801
0.00100776
0.00100751
0.00100727
0.00100703
0.0010068
0.00100658
0.00100636
0.00100615
0.0010167
0.00101621
0.00101574
0.00101528
0.00101483
0.00101439
0.00101397
0.00101356
0.00101316
0.00101277
0.00101239
0.00101202
0.00101166
0.00101131
0.00101097
0.00101064
0.00101031
0.00101
0.00100969
0.00100939
0.0010091
0.00100882
0.00100854
0.00100827
0.00100801
0.00100775
0.00100751
0.00100726
0.00100703
0.0010068
0.00100657
0.00100635
0.00100614
0.0010167
0.00101621
0.00101574
0.00101528
0.00101483
0.00101439
0.00101397
0.00101356
0.00101316
0.00101277
0.00101239
0.00101202
0.00101166
0.00101131
0.00101097
0.00101063
0.00101031
0.00101
0.00100969
0.00100939
0.0010091
0.00100881
0.00100854
0.00100827
0.00100801
0.00100775
0.0010075
0.00100726
0.00100702
0.00100679
0.00100657
0.00100635
0.00100613
0.0010167
0.00101621
0.00101574
0.00101528
0.00101483
0.00101439
0.00101397
0.00101356
0.00101316
0.00101277
0.00101239
0.00101202
0.00101166
0.00101131
0.00101097
0.00101063
0.00101031
0.00100999
0.00100969
0.00100939
0.0010091
0.00100881
0.00100854
0.00100827
0.001008
0.00100775
0.0010075
0.00100725
0.00100702
0.00100679
0.00100656
0.00100634
0.00100613
0.0010167
0.00101621
0.00101574
0.00101528
0.00101483
0.00101439
0.00101397
0.00101356
0.00101316
0.00101277
0.00101239
0.00101202
0.00101166
0.00101131
0.00101096
0.00101063
0.00101031
0.00100999
0.00100969
0.00100939
0.00100909
0.00100881
0.00100853
0.00100826
0.001008
0.00100774
0.00100749
0.00100725
0.00100701
0.00100678
0.00100655
0.00100633
0.00100612
0.0010167
0.00101621
0.00101574
0.00101528
0.00101483
0.00101439
0.00101397
0.00101356
0.00101316
0.00101277
0.00101239
0.00101202
0.00101166
0.00101131
0.00101096
0.00101063
0.00101031
0.00100999
0.00100968
0.00100939
0.00100909
0.00100881
0.00100853
0.00100826
0.001008
0.00100774
0.00100749
0.00100725
0.00100701
0.00100678
0.00100655
0.00100633
0.00100611
0.0010167
0.00101621
0.00101574
0.00101528
0.00101483
0.00101439
0.00101397
0.00101356
0.00101316
0.00101277
0.00101239
0.00101202
0.00101166
0.00101131
0.00101096
0.00101063
0.00101031
0.00100999
0.00100968
0.00100938
0.00100909
0.00100881
0.00100853
0.00100826
0.001008
0.00100774
0.00100749
0.00100724
0.00100701
0.00100677
0.00100655
0.00100633
0.00100611
0.0010167
0.00101621
0.00101574
0.00101528
0.00101483
0.00101439
0.00101397
0.00101356
0.00101316
0.00101277
0.00101239
0.00101202
0.00101166
0.00101131
0.00101097
0.00101063
0.00101031
0.00100999
0.00100968
0.00100939
0.00100909
0.00100881
0.00100853
0.00100826
0.001008
0.00100774
0.00100749
0.00100724
0.001007
0.00100677
0.00100654
0.00100632
0.00100611
0.0010167
0.00101621
0.00101574
0.00101528
0.00101483
0.00101439
0.00101397
0.00101356
0.00101316
0.00101277
0.00101239
0.00101202
0.00101166
0.00101131
0.00101097
0.00101063
0.00101031
0.00100999
0.00100969
0.00100939
0.00100909
0.00100881
0.00100853
0.00100826
0.001008
0.00100774
0.00100748
0.00100724
0.001007
0.00100676
0.00100654
0.00100631
0.0010061
0.0010167
0.00101621
0.00101574
0.00101528
0.00101483
0.0010144
0.00101397
0.00101356
0.00101316
0.00101277
0.00101239
0.00101202
0.00101166
0.00101131
0.00101097
0.00101064
0.00101031
0.00101
0.00100969
0.00100939
0.00100909
0.00100881
0.00100853
0.00100825
0.00100798
0.00100772
0.00100747
0.00100722
0.00100697
0.00100673
0.00100649
0.00100626
0.00100604
0.0010167
0.00101621
0.00101574
0.00101528
0.00101483
0.0010144
0.00101398
0.00101357
0.00101317
0.00101278
0.0010124
0.00101203
0.00101167
0.00101132
0.00101097
0.00101064
0.00101031
0.00100998
0.00100967
0.00100936
0.00100905
0.00100875
0.00100846
0.00100817
0.00100788
0.0010076
0.00100732
0.00100705
0.00100677
0.00100651
0.00100624
0.00100598
0.00100572
0.0010167
0.00101621
0.00101574
0.00101529
0.00101484
0.00101441
0.00101399
0.00101358
0.00101318
0.00101279
0.0010124
0.00101202
0.00101164
0.00101127
0.0010109
0.00101053
0.00101016
0.00100979
0.00100942
0.00100906
0.00100869
0.00100832
0.00100794
0.00100757
0.00100719
0.00100681
0.00100643
0.00100605
0.00100566
0.00100527
0.00100488
0.00100448
0.00100409
0.0010167
0.00101622
0.00101575
0.0010153
0.00101485
0.00101441
0.00101397
0.00101352
0.00101308
0.00101262
0.00101215
0.00101166
0.00101115
0.00101063
0.00101008
0.00100951
0.00100891
0.0010083
0.00100766
0.00100699
0.0010063
0.00100559
0.00100486
0.00100411
0.00100334
0.00100256
0.00100176
0.00100094
0.00100011
0.00099927
0.000998419
0.000997559
0.000996692
0.00101671
0.00101622
0.00101574
0.00101524
0.00101469
0.00101407
0.00101337
0.00101257
0.00101167
0.00101066
0.00100954
0.00100831
0.00100698
0.00100554
0.001004
0.00100237
0.00100065
0.000998861
0.000997
0.000995077
0.0009931
0.000991077
0.000989013
0.000986917
0.000984794
0.00098265
0.000980491
0.000978321
0.000976146
0.000973969
0.000971795
0.000969627
0.000967469
0.00101671
0.001016
0.00101488
0.00101325
0.00101112
0.00100848
0.00100532
0.00100169
0.000997631
0.000993182
0.0009884
0.000983341
0.000978054
0.000972587
0.000966985
0.000961285
0.000955524
0.00094973
0.000943931
0.000938148
0.0009324
0.000926704
0.000921074
0.000915519
0.00091005
0.000904674
0.000899397
0.000894222
0.000889155
0.000884196
0.000879349
0.000874613
0.000869989
0.0010153
0.00100706
0.000995509
0.000981408
0.00096538
0.000948039
0.00092994
0.000911535
0.000893155
0.00087504
0.000857355
0.000840209
0.000823669
0.00080777
0.000792529
0.000777943
0.000764002
0.000750687
0.000737978
0.000725847
0.00071427
0.000703219
0.000692667
0.00068259
0.000672962
0.000663758
0.000654957
0.000646535
0.000638474
0.000630753
0.000623354
0.00061626
0.000609453
0.000935928
0.000815556
0.000728193
0.000659291
0.00060244
0.000555219
0.000515731
0.000482391
0.000453948
0.000429437
0.000408119
0.00038942
0.000372896
0.000358196
0.000345043
0.000333212
0.000322521
0.000312821
0.000303986
0.000295912
0.000288512
0.000281709
0.000275441
0.000269652
0.000264293
0.000259322
0.000254704
0.000250405
0.000246396
0.000242654
0.000239154
0.000235876
0.000232802
0.000125477
0.000128847
0.000132096
0.000135204
0.000138173
0.000141007
0.000143711
0.000146289
0.000148745
0.000151084
0.000153311
0.000155428
0.000157442
0.000159355
0.000161172
0.000162897
0.000164534
0.000166088
0.000167561
0.000168957
0.000170281
0.000171535
0.000172723
0.000173849
0.000174914
0.000175923
0.000176878
0.000177782
0.000178637
0.000179446
0.000180212
0.000180935
0.000181621
0.000108644
0.000153909
0.000198143
0.000239698
0.000278228
0.000313056
0.000343978
0.000371511
0.000396645
0.000420422
0.000443641
0.000466751
0.000489902
0.00051307
0.000536182
0.000559205
0.00058218
0.000605213
0.000628449
0.000652035
0.000676091
0.000700695
0.000725882
0.000751641
0.000777923
0.000804645
0.000831691
0.000858912
0.000886129
0.000913131
0.000939679
0.000965506
0.00099033
0.00101386
0.00103579
0.00105586
0.00107378
0.00108932
0.00110227
0.00111244
0.00111972
0.00112403
0.00112536
0.00112381
0.00111951
0.00111272
0.00110377
0.00109308
0.00108116
0.00106859
0.00105597
0.00104399
0.00103331
0.00102458
0.00101837
0.0010152
0.00101544
0.00101935
0.00102707
0.00103862
0.00105393
0.00107282
0.00109502
0.00112017
0.00114777
0.00117719
0.00120766
0.00123825
0.00126788
0.00129537
0.00131946
0.00133889
0.00135247
0.00135916
0.00135816
0.00134901
0.00133169
0.00130671
0.00127522
0.00123913
0.00120106
0.00116436
0.0011327
0.00110953
0.00109716
0.00109594
0.00110404
0.00111813
0.00113476
0.00115148
0.00116722
0.00118196
0.0011962
0.0012105
0.00122535
0.00124102
0.00125769
0.00127566
0.00129282
0.00132283
0.000245532
0.000213709
0.000185265
0.000171618
0.000171596
0.000181751
0.000199223
0.000221709
0.000247353
0.000274618
0.000302298
0.000329541
0.000355859
0.00038108
0.00040527
0.00042863
0.000451399
0.000473791
0.000495963
0.000518011
0.000539991
0.000561935
0.000583861
0.000605785
0.000627709
0.000649622
0.000671487
0.000693238
0.000714778
0.000735973
0.00075666
0.000776642
0.000795703
0.000813609
0.000830124
0.000845017
0.000858072
0.0008691
0.00087794
0.000884473
0.000888629
0.000890397
0.000889836
0.000887086
0.000882373
0.000876011
0.000868397
0.000860002
0.000851355
0.000843028
0.000835602
0.000829646
0.000825678
0.000824132
0.000825334
0.000829483
0.000836654
0.000846813
0.000859847
0.000875597
0.000893883
0.000914525
0.00093734
0.000962124
0.000988623
0.00101649
0.00104526
0.00107429
0.00110281
0.00112987
0.00115442
0.00117537
0.00119167
0.0012024
0.00120686
0.00120471
0.00119607
0.00118157
0.0011625
0.00114079
0.00111893
0.00109977
0.00108603
0.00107965
0.00108119
0.00108959
0.00110255
0.00111751
0.00113253
0.00114668
0.00115991
0.00117266
0.00118545
0.00119872
0.00121278
0.0012278
0.00124386
0.00126126
0.00127786
0.00130727
0.000348933
0.000344452
0.000329509
0.0003015
0.000267326
0.000236108
0.000212592
0.00019811
0.000191484
0.00019143
0.000196958
0.000207183
0.000221254
0.000238327
0.000257577
0.000278238
0.000299644
0.000321273
0.000342755
0.000363868
0.000384515
0.000404682
0.000424402
0.000443721
0.000462678
0.000481287
0.000499538
0.000517396
0.000534805
0.000551687
0.000567946
0.000583466
0.000598113
0.000611745
0.000624214
0.000635378
0.000645114
0.000653325
0.000659947
0.000664961
0.000668399
0.000670351
0.000670979
0.000670518
0.000669282
0.000667651
0.000666062
0.000664983
0.000664886
0.000666216
0.000669354
0.000674589
0.00068209
0.000691891
0.000703899
0.000717907
0.000733636
0.000750773
0.000769021
0.000788134
0.000807941
0.000828354
0.000849357
0.000870983
0.000893275
0.000916237
0.00093978
0.000963679
0.000987539
0.00101079
0.00103269
0.00105242
0.00106913
0.00108205
0.00109062
0.00109458
0.00109408
0.00108977
0.00108281
0.00107485
0.00106781
0.00106359
0.00106362
0.00106844
0.00107753
0.0010895
0.0011027
0.00111581
0.00112818
0.0011398
0.00115105
0.00116238
0.00117419
0.00118674
0.00120022
0.00121468
0.00123016
0.00124694
0.00126292
0.00129151
0.000476066
0.000470547
0.000464573
0.000455372
0.000440134
0.000417793
0.000389644
0.00035878
0.000328145
0.000300777
0.000277707
0.000259274
0.000245493
0.000236199
0.000231114
0.000229886
0.000232111
0.00023735
0.00024514
0.000255015
0.000266519
0.000279231
0.000292775
0.000306833
0.000321148
0.000335517
0.000349788
0.000363846
0.000377603
0.000390991
0.00040395
0.000416421
0.000428348
0.000439672
0.000450345
0.000460332
0.00046962
0.000478229
0.000486218
0.000493685
0.000500776
0.000507683
0.000514647
0.00052195
0.000529904
0.000538831
0.000549035
0.000560769
0.000574205
0.000589412
0.000606339
0.000624821
0.000644589
0.0006653
0.000686566
0.000707999
0.000729237
0.000749979
0.000770001
0.00078917
0.000807445
0.000824873
0.000841577
0.000857744
0.000873595
0.00088936
0.000905233
0.00092133
0.000937648
0.000954025
0.000970141
0.000985534
0.000999662
0.00101199
0.00102209
0.00102975
0.00103507
0.00103849
0.00104081
0.00104305
0.00104629
0.0010514
0.00105877
0.0010682
0.001079
0.00109027
0.00110128
0.00111171
0.00112162
0.00113135
0.00114127
0.00115173
0.00116294
0.00117502
0.00118803
0.00120198
0.00121687
0.001233
0.00124829
0.00127586
0.000613144
0.00060566
0.000598511
0.000591348
0.000583327
0.000573326
0.00056029
0.000543643
0.000523227
0.000500151
0.000475535
0.000450423
0.000425743
0.000402268
0.000380609
0.000361206
0.000344346
0.000330184
0.000318764
0.000310042
0.000303906
0.000300193
0.000298704
0.000299215
0.000301495
0.000305311
0.000310439
0.000316675
0.000323837
0.000331769
0.000340345
0.000349466
0.000359064
0.000369094
0.000379541
0.000390416
0.000401761
0.000413643
0.000426154
0.000439409
0.000453532
0.000468654
0.000484898
0.000502367
0.000521128
0.000541192
0.000562506
0.000584945
0.000608309
0.000632337
0.000656724
0.000681141
0.000705257
0.000728761
0.000751377
0.000772876
0.000793088
0.0008119
0.000829258
0.000845166
0.000859675
0.000872884
0.000884931
0.000895987
0.000906255
0.000915959
0.00092533
0.00093459
0.000943923
0.000953441
0.000963164
0.000972999
0.000982759
0.000992203
0.0010011
0.00100929
0.00101677
0.00102371
0.00103043
0.00103732
0.00104474
0.00105287
0.00106164
0.00107076
0.00107987
0.00108867
0.0010971
0.00110527
0.0011135
0.00112208
0.00113129
0.00114127
0.00115213
0.00116385
0.00117646
0.00118991
0.0012042
0.00121962
0.00123418
0.00126055
0.000735924
0.000728572
0.000721349
0.000714267
0.000707223
0.000699969
0.000692118
0.000683215
0.000672799
0.000660665
0.000646781
0.00063128
0.000614426
0.000596577
0.000578143
0.000559545
0.000541194
0.000523461
0.000506674
0.000491105
0.000476974
0.000464448
0.000453643
0.000444632
0.00043745
0.000432101
0.000428563
0.000426795
0.000426745
0.000428354
0.00043156
0.000436305
0.000442539
0.00045022
0.000459316
0.000469806
0.000481673
0.000494903
0.000509478
0.000525372
0.000542542
0.000560924
0.000580429
0.000600937
0.000622296
0.000644324
0.000666809
0.000689516
0.000712199
0.000734611
0.000756517
0.000777702
0.000797981
0.000817204
0.000835258
0.000852067
0.000867589
0.000881819
0.000894779
0.000906519
0.000917107
0.000926631
0.000935193
0.000942906
0.000949893
0.000956289
0.000962236
0.000967886
0.000973394
0.000978906
0.000984545
0.000990393
0.000996482
0.0010028
0.00100928
0.00101586
0.00102251
0.00102921
0.00103599
0.00104288
0.00104988
0.00105694
0.00106395
0.00107081
0.00107747
0.00108399
0.00109055
0.00109737
0.00110471
0.00111276
0.00112165
0.0011314
0.00114202
0.00115344
0.00116565
0.0011786
0.00119226
0.00120694
0.00122072
0.00124576
0.000832754
0.000826432
0.000820136
0.00081389
0.000807701
0.000801544
0.00079535
0.000788991
0.000782309
0.000775133
0.000767312
0.000758738
0.00074936
0.000739188
0.000728294
0.000716801
0.000704875
0.000692706
0.000680504
0.000668481
0.000656847
0.000645803
0.000635533
0.000626203
0.000617959
0.000610927
0.00060521
0.000600892
0.000598037
0.000596691
0.000596881
0.00059862
0.000601907
0.000606727
0.000613056
0.000620857
0.000630082
0.000640667
0.000652531
0.000665578
0.000679693
0.000694742
0.000710579
0.000727041
0.000743956
0.000761141
0.000778414
0.000795592
0.000812502
0.000828983
0.000844894
0.000860114
0.000874548
0.000888125
0.000900798
0.000912543
0.000923356
0.000933253
0.000942268
0.000950446
0.000957846
0.000964535
0.000970587
0.000976082
0.000981101
0.000985725
0.000990038
0.00099412
0.000998056
0.00100193
0.00100581
0.00100979
0.00101391
0.00101822
0.00102272
0.00102741
0.00103225
0.00103721
0.00104224
0.00104728
0.00105229
0.00105725
0.00106213
0.00106699
0.00107193
0.00107713
0.00108277
0.00108903
0.00109607
0.00110397
0.00111274
0.00112235
0.00113276
0.00114388
0.00115567
0.00116809
0.00118111
0.00119503
0.00120801
0.00123163
0.000902257
0.00089729
0.000892298
0.000887295
0.000882294
0.000877305
0.000872325
0.000867339
0.000862319
0.000857219
0.000851982
0.000846549
0.000840864
0.000834889
0.000828603
0.000822008
0.000815133
0.00080803
0.000800773
0.000793455
0.000786183
0.000779073
0.000772247
0.000765828
0.000759937
0.000754689
0.000750191
0.00074654
0.000743821
0.000742105
0.000741448
0.000741892
0.000743461
0.000746166
0.00075
0.000754943
0.000760957
0.00076799
0.000775972
0.00078482
0.000794437
0.000804712
0.000815528
0.000826758
0.000838273
0.000849943
0.000861642
0.000873246
0.000884642
0.000895728
0.000906417
0.000916632
0.000926317
0.000935427
0.000943935
0.000951825
0.000959097
0.00096576
0.000971837
0.000977359
0.000982366
0.000986907
0.000991036
0.000994813
0.000998298
0.00100156
0.00100465
0.00100763
0.00101056
0.00101347
0.00101641
0.00101941
0.00102249
0.00102566
0.00102892
0.00103226
0.00103567
0.00103912
0.00104259
0.00104605
0.00104953
0.00105304
0.00105667
0.00106052
0.00106475
0.0010695
0.00107491
0.00108111
0.00108814
0.00109603
0.00110475
0.00111422
0.00112439
0.00113517
0.00114652
0.00115838
0.00117074
0.00118389
0.00119608
0.00121823
0.000948171
0.000944572
0.00094092
0.000937224
0.000933493
0.000929735
0.000925958
0.00092217
0.000918374
0.000914569
0.000910749
0.000906904
0.000903018
0.000899077
0.000895069
0.000890985
0.000886825
0.000882597
0.000878318
0.00087402
0.000869743
0.000865536
0.000861457
0.000857572
0.000853949
0.000850658
0.000847771
0.000845355
0.000843475
0.000842188
0.000841542
0.000841578
0.000842325
0.000843802
0.000846015
0.000848958
0.000852614
0.000856953
0.000861932
0.000867501
0.000873594
0.000880143
0.000887068
0.000894289
0.00090172
0.000909277
0.000916878
0.000924441
0.000931894
0.00093917
0.000946207
0.000952957
0.000959376
0.000965432
0.0009711
0.000976366
0.000981221
0.000985668
0.000989714
0.000993377
0.00099668
0.000999654
0.00100234
0.00100477
0.001007
0.00100909
0.00101107
0.00101301
0.00101494
0.00101691
0.00101894
0.00102106
0.00102328
0.00102559
0.00102798
0.00103043
0.00103294
0.00103549
0.00103808
0.00104074
0.00104351
0.00104646
0.00104969
0.00105332
0.00105747
0.00106226
0.00106778
0.00107409
0.00108119
0.00108909
0.00109771
0.001107
0.00111687
0.00112727
0.00113813
0.00114942
0.00116112
0.0011735
0.00118492
0.00120559
0.000976125
0.000973703
0.00097122
0.00096868
0.000966088
0.00096345
0.000960772
0.000958064
0.000955332
0.000952584
0.000949825
0.000947063
0.000944299
0.000941539
0.000938782
0.000936033
0.000933293
0.000930567
0.000927863
0.000925191
0.000922568
0.000920014
0.000917553
0.000915216
0.000913036
0.000911048
0.000909293
0.000907807
0.00090663
0.000905797
0.000905342
0.000905293
0.000905674
0.000906501
0.000907784
0.000909525
0.00091172
0.000914354
0.000917406
0.000920847
0.000924641
0.000928749
0.000933122
0.000937713
0.000942467
0.000947333
0.000952257
0.000957187
0.000962075
0.000966874
0.000971542
0.000976042
0.000980341
0.000984411
0.00098823
0.000991781
0.000995051
0.000998035
0.00100073
0.00100315
0.00100529
0.00100719
0.00100885
0.00101032
0.00101161
0.00101279
0.00101388
0.00101493
0.00101598
0.00101708
0.00101825
0.00101954
0.00102094
0.00102248
0.00102414
0.00102593
0.00102783
0.00102986
0.00103203
0.00103437
0.00103694
0.0010398
0.00104305
0.00104679
0.0010511
0.00105607
0.00106174
0.00106815
0.00107527
0.00108309
0.00109155
0.00110058
0.00111011
0.00112007
0.00113043
0.00114114
0.00115219
0.00116381
0.00117448
0.00119372
0.000991765
0.000990233
0.000988647
0.000987006
0.000985313
0.000983572
0.000981786
0.000979962
0.000978105
0.00097622
0.000974315
0.000972396
0.000970472
0.000968548
0.000966632
0.000964731
0.000962852
0.000961002
0.000959187
0.000957417
0.000955701
0.00095405
0.000952477
0.000950997
0.000949626
0.000948382
0.000947287
0.000946359
0.000945621
0.000945092
0.000944792
0.00094474
0.00094495
0.000945436
0.000946204
0.000947261
0.000948606
0.000950233
0.000952134
0.000954293
0.000956692
0.000959308
0.000962114
0.000965082
0.00096818
0.000971374
0.000974631
0.000977916
0.000981196
0.000984438
0.000987612
0.000990689
0.000993642
0.000996448
0.000999086
0.00100154
0.00100379
0.00100583
0.00100765
0.00100926
0.00101065
0.00101183
0.00101283
0.00101364
0.00101431
0.00101486
0.00101533
0.00101574
0.00101614
0.00101658
0.00101708
0.00101769
0.00101844
0.00101934
0.00102041
0.00102167
0.00102313
0.00102481
0.00102672
0.00102891
0.00103143
0.00103433
0.00103768
0.00104155
0.001046
0.00105109
0.00105683
0.00106323
0.00107028
0.00107794
0.00108615
0.00109485
0.00110399
0.00111349
0.00112333
0.00113345
0.00114385
0.00115474
0.00116471
0.00118257
0.000999773
0.000998836
0.000997858
0.000996837
0.000995776
0.000994674
0.000993535
0.00099236
0.000991153
0.000989918
0.000988659
0.000987381
0.00098609
0.000984792
0.000983493
0.000982199
0.000980917
0.000979654
0.000978418
0.000977215
0.000976054
0.000974942
0.000973888
0.000972903
0.000971995
0.000971176
0.000970457
0.00096985
0.000969367
0.000969019
0.000968818
0.000968776
0.000968902
0.000969204
0.000969689
0.000970361
0.000971222
0.000972271
0.000973504
0.000974914
0.000976491
0.000978223
0.000980095
0.000982089
0.000984187
0.000986367
0.000988606
0.000990883
0.000993172
0.00099545
0.000997695
0.000999882
0.00100199
0.001004
0.00100589
0.00100765
0.00100925
0.00101069
0.00101196
0.00101306
0.00101397
0.00101471
0.00101529
0.0010157
0.00101598
0.00101614
0.00101622
0.00101623
0.00101622
0.00101623
0.00101629
0.00101644
0.00101672
0.00101717
0.00101781
0.00101868
0.00101981
0.00102121
0.00102293
0.001025
0.00102745
0.00103035
0.00103373
0.00103764
0.00104212
0.0010472
0.00105289
0.00105918
0.00106605
0.00107345
0.00108134
0.00108967
0.00109838
0.0011074
0.00111671
0.00112626
0.00113604
0.00114623
0.00115553
0.0011721
0.00100351
0.00100292
0.00100231
0.00100167
0.00100101
0.00100031
0.00099959
0.000998843
0.000998071
0.000997278
0.000996464
0.000995633
0.000994788
0.000993934
0.000993074
0.000992213
0.000991356
0.000990508
0.000989675
0.000988862
0.000988075
0.000987321
0.000986607
0.000985939
0.000985325
0.000984772
0.000984287
0.000983879
0.000983555
0.000983323
0.000983191
0.000983165
0.000983253
0.00098346
0.000983792
0.000984252
0.000984843
0.000985564
0.000986416
0.000987394
0.000988494
0.00098971
0.000991031
0.000992449
0.00099395
0.000995521
0.000997146
0.00099881
0.00100049
0.00100218
0.00100385
0.00100549
0.00100707
0.00100858
0.00101
0.00101132
0.00101252
0.00101359
0.00101452
0.00101529
0.00101592
0.00101639
0.00101671
0.0010169