/*--------------------------------*- C++ -*----------------------------------*\
  =========                 |
  \\      /  F ield         | OpenFOAM: The Open Source CFD Toolbox
   \\    /   O peration     | Website:  https://openfoam.org
    \\  /    A nd           | Version:  10
     \\/     M anipulation  |
\*---------------------------------------------------------------------------*/
FoamFile
{
    format      ascii;
    class       volScalarField;
    location    "0.155";
    object      p;
}
// * * * * * * * * * * * * * * * * * * * * * * * * * * * * * * * * * * * * * //

dimensions      [0 2 -2 0 0 0 0];

internalField   nonuniform List<scalar> 
6820
(
-8.70835
-10.0724
-10.4859
-10.5813
-10.6622
-10.7136
-10.7445
-10.7689
-10.7898
-10.8083
-10.8254
-10.8415
-10.857
-10.872
-10.8865
-10.9007
-10.9146
-10.9282
-10.9414
-10.9543
-10.9669
-10.979
-10.9905
-11.0013
-11.0109
-11.0191
-11.0249
-11.0269
-11.023
-11.0063
-10.9714
-10.8903
-10.6825
-11.5085
-11.1041
-10.8102
-10.7148
-10.7162
-10.733
-10.7511
-10.7707
-10.7902
-10.8084
-10.8254
-10.8414
-10.8567
-10.8714
-10.8856
-10.8993
-10.9127
-10.9259
-10.9387
-10.9512
-10.9634
-10.9753
-10.9866
-10.9973
-11.0071
-11.0158
-11.0226
-11.0278
-11.0285
-11.031
-11.0175
-11.0566
-11.0528
-10.3655
-10.2373
-10.4622
-10.5999
-10.6615
-10.7059
-10.7379
-10.7633
-10.7849
-10.804
-10.8213
-10.8376
-10.8531
-10.8681
-10.8826
-10.8967
-10.9105
-10.924
-10.9373
-10.9502
-10.9628
-10.975
-10.9868
-10.9979
-11.0083
-11.0177
-11.0256
-11.032
-11.0357
-11.0389
-11.0364
-11.0479
-11.0424
-10.7321
-10.7488
-10.7244
-10.7016
-10.7098
-10.7302
-10.7503
-10.7695
-10.7882
-10.8058
-10.8225
-10.8384
-10.8538
-10.8685
-10.8829
-10.8969
-10.9106
-10.924
-10.9371
-10.9499
-10.9625
-10.9747
-10.9865
-10.9979
-11.0087
-11.0187
-11.0279
-11.0364
-11.0438
-11.053
-11.0617
-11.0866
-11.1177
-10.6221
-10.5682
-10.612
-10.6568
-10.6919
-10.722
-10.7466
-10.768
-10.7875
-10.8055
-10.8222
-10.8381
-10.8533
-10.868
-10.8824
-10.8963
-10.91
-10.9235
-10.9367
-10.9496
-10.9623
-10.9748
-10.9869
-10.9987
-11.01
-11.021
-11.0316
-11.042
-11.0525
-11.0651
-11.0799
-11.1051
-11.1381
-10.6628
-10.656
-10.6744
-10.6914
-10.7097
-10.7311
-10.7518
-10.7711
-10.7893
-10.8066
-10.8229
-10.8385
-10.8536
-10.8682
-10.8825
-10.8964
-10.91
-10.9235
-10.9367
-10.9497
-10.9625
-10.975
-10.9874
-10.9996
-11.0115
-11.0233
-11.0351
-11.0472
-11.0602
-11.0757
-11.0944
-11.1211
-11.1558
-10.6621
-10.6513
-10.6661
-10.6877
-10.7096
-10.732
-10.7529
-10.772
-10.79
-10.8071
-10.8232
-10.8387
-10.8536
-10.8682
-10.8823
-10.8962
-10.9098
-10.9233
-10.9365
-10.9496
-10.9625
-10.9753
-10.9879
-11.0005
-11.013
-11.0256
-11.0385
-11.0521
-11.067
-11.0844
-11.1051
-11.1318
-11.1648
-10.6717
-10.6686
-10.6817
-10.6997
-10.7179
-10.7372
-10.7562
-10.7742
-10.7914
-10.8079
-10.8237
-10.839
-10.8538
-10.8681
-10.8822
-10.896
-10.9096
-10.923
-10.9363
-10.9494
-10.9625
-10.9754
-10.9883
-11.0013
-11.0143
-11.0276
-11.0415
-11.0562
-11.0724
-11.091
-11.1126
-11.1387
-11.1697
-10.6802
-10.6791
-10.6895
-10.7053
-10.7224
-10.7405
-10.7586
-10.7759
-10.7926
-10.8087
-10.8242
-10.8392
-10.8538
-10.8681
-10.882
-10.8958
-10.9093
-10.9227
-10.936
-10.9492
-10.9623
-10.9754
-10.9886
-11.0019
-11.0154
-11.0293
-11.0438
-11.0594
-11.0765
-11.0956
-11.1175
-11.1426
-11.1713
-10.6887
-10.6892
-10.6986
-10.7127
-10.7282
-10.7448
-10.7616
-10.7781
-10.7941
-10.8097
-10.8248
-10.8395
-10.8539
-10.868
-10.8818
-10.8955
-10.9089
-10.9223
-10.9356
-10.9488
-10.962
-10.9753
-10.9886
-11.0022
-11.0161
-11.0304
-11.0455
-11.0616
-11.0791
-11.0984
-11.12
-11.1441
-11.1707
-10.697
-10.6983
-10.7066
-10.7192
-10.7333
-10.7487
-10.7645
-10.7801
-10.7955
-10.8106
-10.8254
-10.8398
-10.8539
-10.8678
-10.8815
-10.8951
-10.9085
-10.9218
-10.9351
-10.9483
-10.9616
-10.9749
-10.9885
-11.0022
-11.0163
-11.031
-11.0464
-11.0628
-11.0804
-11.0996
-11.1206
-11.1435
-11.1683
-10.7049
-10.7067
-10.7142
-10.7255
-10.7385
-10.7527
-10.7674
-10.7823
-10.7971
-10.8117
-10.826
-10.8401
-10.854
-10.8677
-10.8812
-10.8946
-10.9079
-10.9212
-10.9344
-10.9477
-10.9609
-10.9744
-10.988
-11.0019
-11.0162
-11.031
-11.0465
-11.063
-11.0805
-11.0994
-11.1197
-11.1414
-11.1644
-10.7124
-10.7143
-10.7211
-10.7314
-10.7433
-10.7564
-10.7703
-10.7844
-10.7986
-10.8127
-10.8266
-10.8404
-10.854
-10.8675
-10.8808
-10.8941
-10.9073
-10.9205
-10.9336
-10.9468
-10.9601
-10.9735
-10.9872
-11.0011
-11.0155
-11.0303
-11.0459
-11.0622
-11.0795
-11.0978
-11.1173
-11.1379
-11.1594
-10.7194
-10.7213
-10.7276
-10.7369
-10.7479
-10.7601
-10.7731
-10.7865
-10.8001
-10.8137
-10.8272
-10.8406
-10.854
-10.8672
-10.8804
-10.8935
-10.9065
-10.9196
-10.9326
-10.9458
-10.959
-10.9724
-10.986
-10.9999
-11.0142
-11.029
-11.0444
-11.0605
-11.0774
-11.0952
-11.1138
-11.1332
-11.1532
-10.7258
-10.7277
-10.7335
-10.742
-10.7522
-10.7636
-10.7758
-10.7885
-10.8015
-10.8146
-10.8277
-10.8408
-10.8538
-10.8668
-10.8798
-10.8927
-10.9056
-10.9185
-10.9315
-10.9445
-10.9576
-10.9709
-10.9845
-10.9983
-11.0125
-11.0271
-11.0422
-11.058
-11.0744
-11.0914
-11.1091
-11.1274
-11.1462
-10.7318
-10.7336
-10.739
-10.7468
-10.7562
-10.7668
-10.7783
-10.7904
-10.8028
-10.8154
-10.8281
-10.8409
-10.8536
-10.8664
-10.8791
-10.8918
-10.9045
-10.9173
-10.9301
-10.943
-10.956
-10.9691
-10.9825
-10.9962
-11.0101
-11.0245
-11.0393
-11.0546
-11.0704
-11.0867
-11.1035
-11.1208
-11.1383
-10.7372
-10.7389
-10.7439
-10.7511
-10.7598
-10.7698
-10.7807
-10.7922
-10.804
-10.8162
-10.8285
-10.8409
-10.8533
-10.8658
-10.8782
-10.8907
-10.9033
-10.9158
-10.9284
-10.9412
-10.954
-10.967
-10.9801
-10.9936
-11.0073
-11.0213
-11.0357
-11.0505
-11.0656
-11.0812
-11.0971
-11.1133
-11.1297
-10.7421
-10.7437
-10.7483
-10.755
-10.7631
-10.7725
-10.7828
-10.7937
-10.8051
-10.8168
-10.8287
-10.8407
-10.8528
-10.865
-10.8772
-10.8895
-10.9018
-10.9141
-10.9266
-10.9391
-10.9517
-10.9644
-10.9774
-10.9905
-11.0038
-11.0175
-11.0314
-11.0456
-11.0601
-11.0749
-11.0899
-11.1051
-11.1204
-10.7464
-10.7479
-10.7522
-10.7584
-10.766
-10.7749
-10.7846
-10.795
-10.8059
-10.8172
-10.8287
-10.8404
-10.8522
-10.8641
-10.876
-10.8881
-10.9001
-10.9122
-10.9244
-10.9367
-10.949
-10.9615
-10.9741
-10.9869
-10.9999
-11.0131
-11.0264
-11.04
-11.0539
-11.0678
-11.082
-11.0962
-11.1104
-10.7502
-10.7516
-10.7556
-10.7614
-10.7686
-10.7769
-10.7861
-10.7961
-10.8065
-10.8174
-10.8285
-10.8399
-10.8514
-10.863
-10.8746
-10.8864
-10.8982
-10.9101
-10.922
-10.934
-10.946
-10.9582
-10.9705
-10.9829
-10.9954
-11.0081
-11.0209
-11.0339
-11.047
-11.0601
-11.0734
-11.0867
-11.0999
-10.7534
-10.7547
-10.7585
-10.7639
-10.7707
-10.7785
-10.7873
-10.7968
-10.8069
-10.8174
-10.8281
-10.8391
-10.8503
-10.8616
-10.873
-10.8845
-10.896
-10.9076
-10.9193
-10.9309
-10.9427
-10.9545
-10.9664
-10.9784
-10.9904
-11.0026
-11.0148
-11.0271
-11.0395
-11.0519
-11.0643
-11.0766
-11.0888
-10.756
-10.7573
-10.7608
-10.7659
-10.7723
-10.7798
-10.7882
-10.7973
-10.8069
-10.817
-10.8275
-10.8382
-10.849
-10.8601
-10.8712
-10.8824
-10.8936
-10.9049
-10.9162
-10.9276
-10.939
-10.9504
-10.9619
-10.9734
-10.985
-10.9966
-11.0082
-11.0199
-11.0315
-11.0431
-11.0546
-11.066
-11.0773
-10.7581
-10.7592
-10.7626
-10.7674
-10.7735
-10.7806
-10.7886
-10.7974
-10.8067
-10.8165
-10.8266
-10.837
-10.8475
-10.8583
-10.8691
-10.88
-10.8909
-10.9019
-10.9129
-10.9239
-10.935
-10.946
-10.9571
-10.9681
-10.9792
-10.9902
-11.0012
-11.0121
-11.023
-11.0338
-11.0445
-11.055
-11.0654
-10.7595
-10.7606
-10.7638
-10.7684
-10.7741
-10.7809
-10.7886
-10.797
-10.806
-10.8155
-10.8253
-10.8354
-10.8457
-10.8561
-10.8666
-10.8773
-10.8879
-10.8986
-10.9092
-10.9199
-10.9306
-10.9412
-10.9518
-10.9623
-10.9729
-10.9833
-10.9937
-11.004
-11.0141
-11.0241
-11.034
-11.0437
-11.0531
-10.7603
-10.7613
-10.7644
-10.7688
-10.7743
-10.7808
-10.7882
-10.7964
-10.8051
-10.8143
-10.8238
-10.8337
-10.8437
-10.8538
-10.8641
-10.8744
-10.8847
-10.8951
-10.9054
-10.9157
-10.926
-10.9362
-10.9463
-10.9563
-10.9663
-10.9762
-10.9859
-10.9955
-11.0049
-11.0142
-11.0232
-11.0321
-11.0406
-10.7605
-10.7614
-10.7643
-10.7685
-10.7737
-10.78
-10.7872
-10.795
-10.8035
-10.8124
-10.8217
-10.8313
-10.841
-10.8509
-10.8609
-10.871
-10.881
-10.891
-10.901
-10.911
-10.9208
-10.9306
-10.9403
-10.9498
-10.9593
-10.9685
-10.9777
-10.9866
-10.9953
-11.0039
-11.0121
-11.0202
-11.0279
-10.76
-10.7609
-10.7637
-10.7678
-10.7729
-10.7791
-10.7861
-10.7938
-10.802
-10.8108
-10.8198
-10.8292
-10.8387
-10.8483
-10.8581
-10.8678
-10.8775
-10.8872
-10.8969
-10.9064
-10.9158
-10.9252
-10.9343
-10.9434
-10.9523
-10.9609
-10.9694
-10.9777
-10.9857
-10.9935
-11.001
-11.0082
-11.0152
-10.7587
-10.7596
-10.7621
-10.7658
-10.7706
-10.7765
-10.7832
-10.7907
-10.7988
-10.8074
-10.8163
-10.8255
-10.8348
-10.8443
-10.8538
-10.8634
-10.8729
-10.8823
-10.8916
-10.9009
-10.9099
-10.9189
-10.9276
-10.9362
-10.9446
-10.9527
-10.9606
-10.9683
-10.9757
-10.9828
-10.9896
-10.9961
-11.0022
-10.7569
-10.758
-10.7607
-10.7646
-10.7696
-10.7755
-10.7823
-10.7897
-10.7977
-10.8061
-10.8148
-10.8237
-10.8328
-10.842
-10.8512
-10.8604
-10.8695
-10.8786
-10.8875
-10.8963
-10.9049
-10.9134
-10.9216
-10.9297
-10.9375
-10.945
-10.9523
-10.9593
-10.966
-10.9724
-10.9785
-10.9842
-10.9896
-10.7539
-10.7541
-10.7559
-10.7589
-10.7633
-10.7689
-10.7755
-10.7829
-10.791
-10.7995
-10.8083
-10.8174
-10.8266
-10.8358
-10.845
-10.8542
-10.8633
-10.8722
-10.881
-10.8896
-10.898
-10.9062
-10.9141
-10.9217
-10.9291
-10.9362
-10.943
-10.9495
-10.9557
-10.9615
-10.9669
-10.972
-10.9768
-10.7517
-10.7537
-10.7569
-10.7609
-10.7658
-10.7715
-10.778
-10.7852
-10.7929
-10.8009
-10.8093
-10.8179
-10.8265
-10.8353
-10.844
-10.8526
-10.8612
-10.8696
-10.8778
-10.8859
-10.8937
-10.9013
-10.9087
-10.9158
-10.9226
-10.929
-10.9352
-10.941
-10.9465
-10.9516
-10.9564
-10.9608
-10.9648
-10.7437
-10.7417
-10.7414
-10.7436
-10.748
-10.7541
-10.7614
-10.7695
-10.7782
-10.7873
-10.7966
-10.806
-10.8155
-10.8249
-10.8341
-10.8432
-10.8521
-10.8608
-10.8692
-10.8774
-10.8852
-10.8928
-10.9
-10.9069
-10.9135
-10.9197
-10.9255
-10.931
-10.936
-10.9407
-10.945
-10.9489
-10.9524
-10.7493
-10.7547
-10.7589
-10.762
-10.7657
-10.7704
-10.7761
-10.7825
-10.7895
-10.7969
-10.8047
-10.8127
-10.8208
-10.829
-10.8371
-10.8452
-10.8531
-10.8609
-10.8684
-10.8757
-10.8828
-10.8896
-10.8961
-10.9022
-10.9081
-10.9136
-10.9187
-10.9235
-10.9279
-10.9318
-10.9354
-10.9386
-10.9414
-10.7199
-10.7087
-10.7055
-10.7093
-10.7167
-10.7258
-10.7359
-10.7466
-10.7576
-10.7686
-10.7795
-10.7903
-10.8007
-10.8109
-10.8207
-10.8302
-10.8394
-10.8481
-10.8565
-10.8645
-10.872
-10.8792
-10.886
-10.8923
-10.8983
-10.9038
-10.9089
-10.9135
-10.9177
-10.9215
-10.9249
-10.9278
-10.9302
-10.7674
-10.7836
-10.7848
-10.7791
-10.7768
-10.7777
-10.7806
-10.7847
-10.7899
-10.796
-10.8025
-10.8095
-10.8167
-10.824
-10.8313
-10.8386
-10.8458
-10.8528
-10.8596
-10.8662
-10.8725
-10.8785
-10.8842
-10.8895
-10.8945
-10.8991
-10.9033
-10.9072
-10.9106
-10.9136
-10.9163
-10.9185
-10.9202
-10.6576
-10.6194
-10.6138
-10.6375
-10.6577
-10.6758
-10.6937
-10.7109
-10.7271
-10.7423
-10.7565
-10.7699
-10.7825
-10.7943
-10.8054
-10.8159
-10.8258
-10.8351
-10.8438
-10.8519
-10.8595
-10.8666
-10.8732
-10.8793
-10.8849
-10.8899
-10.8945
-10.8986
-10.9022
-10.9053
-10.9079
-10.91
-10.9117
-10.8698
-10.8943
-10.8651
-10.8283
-10.8049
-10.7969
-10.7936
-10.7928
-10.7944
-10.7978
-10.8023
-10.8076
-10.8134
-10.8195
-10.8258
-10.8321
-10.8385
-10.8447
-10.8507
-10.8566
-10.8622
-10.8675
-10.8725
-10.8771
-10.8814
-10.8853
-10.8889
-10.892
-10.8947
-10.897
-10.8989
-10.9004
-10.9015
-10.4542
-10.3724
-10.4294
-10.5102
-10.5665
-10.6048
-10.6381
-10.6671
-10.692
-10.7137
-10.7329
-10.7501
-10.7656
-10.7796
-10.7925
-10.8043
-10.8151
-10.8251
-10.8343
-10.8427
-10.8505
-10.8577
-10.8642
-10.8702
-10.8755
-10.8803
-10.8845
-10.8882
-10.8914
-10.894
-10.8961
-10.8976
-10.8987
-11.4306
-11.1525
-10.9468
-10.8555
-10.8184
-10.7976
-10.7848
-10.7791
-10.7782
-10.7801
-10.784
-10.7891
-10.795
-10.8014
-10.8081
-10.8148
-10.8215
-10.8281
-10.8344
-10.8406
-10.8464
-10.8519
-10.857
-10.8618
-10.8662
-10.8701
-10.8736
-10.8767
-10.8793
-10.8815
-10.8833
-10.8846
-10.8855
-9.47258
-10.0341
-10.3387
-10.4547
-10.5362
-10.5995
-10.6445
-10.6783
-10.7056
-10.7279
-10.7465
-10.7626
-10.7768
-10.7894
-10.8009
-10.8113
-10.8208
-10.8296
-10.8376
-10.8451
-10.8519
-10.8581
-10.8638
-10.8689
-10.8735
-10.8775
-10.8811
-10.8841
-10.8866
-10.8886
-10.8901
-10.8911
-10.8916
-10.6166
-11.2239
-11.274
-11.3317
-11.4351
-11.5118
-11.5715
-11.6271
-11.6848
-11.7454
-11.8108
-11.8805
-11.9529
-12.0258
-12.0973
-12.1653
-12.2283
-12.2851
-12.335
-12.3772
-12.4115
-12.4375
-12.4548
-12.4633
-12.4626
-12.4521
-12.4315
-12.4001
-12.3572
-12.3022
-12.2344
-12.1531
-12.0575
-11.9468
-11.8206
-11.678
-11.5186
-11.3419
-11.1475
-10.9355
-10.7056
-10.4582
-10.1937
-9.91267
-9.61612
-9.3052
-8.98136
-8.64628
-8.3019
-7.95032
-7.59384
-7.23487
-6.87588
-6.51941
-6.1679
-5.82373
-5.48911
-5.16603
-4.85622
-4.56112
-4.28182
-4.01911
-3.77341
-3.54479
-3.33303
-3.13756
-2.95756
-2.79194
-2.63942
-2.49854
-2.3677
-2.24524
-2.12943
-2.01858
-1.91103
-1.80525
-1.69984
-1.59364
-1.48572
-1.37547
-1.26266
-1.14743
-1.03037
-0.912502
-0.795245
-0.680383
-0.569925
-0.465949
-0.370353
-0.284741
-0.210131
-0.147232
-0.0957628
-0.0560038
-0.0256689
-0.00699177
0.00849631
0.00617288
0.0230331
-0.0190352
-11.4412
-11.7113
-11.6113
-11.5473
-11.5355
-11.5379
-11.5521
-11.5812
-11.627
-11.685
-11.7525
-11.8265
-11.9034
-11.98
-12.0537
-12.1225
-12.1853
-12.2411
-12.2894
-12.33
-12.3626
-12.387
-12.403
-12.4102
-12.4082
-12.3967
-12.3749
-12.3425
-12.2987
-12.2428
-12.1743
-12.0924
-11.9964
-11.8856
-11.7594
-11.6171
-11.4583
-11.2826
-11.0895
-10.8791
-10.6513
-10.4063
-10.1446
-9.86686
-9.57394
-9.26703
-8.94753
-8.61707
-8.27754
-7.93096
-7.57957
-7.22569
-6.87172
-6.52009
-6.1732
-5.83334
-5.50265
-5.18309
-4.87633
-4.58377
-4.30652
-4.04532
-3.80062
-3.57253
-3.36083
-3.16502
-2.98434
-2.81776
-2.66405
-2.52181
-2.38951
-2.26554
-2.14822
-2.03589
-1.92693
-1.81983
-1.71323
-1.60597
-1.49715
-1.38619
-1.27285
-1.15731
-1.04014
-0.922388
-0.805464
-0.691123
-0.581302
-0.477971
-0.382895
-0.297574
-0.222929
-0.159682
-0.107468
-0.0667863
-0.0350074
-0.0151963
0.00265174
0.000715279
0.0221154
-0.023194
-11.1144
-11.2384
-11.2812
-11.3307
-11.4017
-11.4655
-11.5191
-11.5717
-11.6228
-11.6789
-11.7389
-11.8025
-11.869
-11.9366
-12.0035
-12.0678
-12.1281
-12.1828
-12.231
-12.2718
-12.3046
-12.329
-12.3447
-12.3513
-12.3486
-12.3361
-12.3134
-12.2799
-12.2352
-12.1785
-12.1092
-12.0268
-11.9304
-11.8195
-11.6935
-11.5517
-11.3936
-11.219
-11.0274
-10.8189
-10.5933
-10.3511
-10.0925
-9.81822
-9.52918
-9.22649
-8.91152
-8.58586
-8.25132
-7.90989
-7.56372
-7.21506
-6.86625
-6.51965
-6.17756
-5.84223
-5.51572
-5.19992
-4.89646
-4.60669
-4.3317
-4.07222
-3.82869
-3.60124
-3.38969
-3.19359
-3.01221
-2.8446
-2.6896
-2.54588
-2.41197
-2.28631
-2.16729
-2.05329
-1.94275
-1.83417
-1.72624
-1.61781
-1.50803
-1.39632
-1.28247
-1.16667
-1.04952
-0.932042
-0.815634
-0.701984
-0.592926
-0.490309
-0.395772
-0.310727
-0.236022
-0.172402
-0.119423
-0.0777968
-0.0445595
-0.0235853
-0.00337747
-0.00485352
0.0210005
-0.0273028
-11.2238
-11.3941
-11.4572
-11.4739
-11.4987
-11.5244
-11.5499
-11.5816
-11.6218
-11.6669
-11.7223
-11.7826
-11.8459
-11.9098
-11.9725
-12.032
-12.087
-12.1366
-12.1798
-12.2163
-12.2455
-12.2671
-12.2805
-12.2854
-12.2814
-12.2679
-12.2443
-12.2101
-12.1648
-12.1075
-12.0379
-11.9551
-11.8586
-11.7478
-11.6221
-11.4809
-11.3238
-11.1504
-10.9604
-10.7539
-10.5307
-10.2912
-10.0358
-9.76519
-9.48012
-9.18177
-8.87146
-8.55074
-8.22137
-7.8853
-7.54458
-7.20142
-6.85807
-6.51679
-6.17984
-5.84934
-5.52731
-5.21556
-4.91567
-4.62896
-4.35646
-4.09892
-3.85676
-3.63013
-3.41888
-3.22259
-3.04059
-2.87198
-2.71568
-2.57042
-2.43481
-2.30735
-2.1865
-2.0707
-1.95843
-1.84826
-1.73889
-1.62924
-1.51846
-1.40602
-1.29172
-1.17577
-1.05877
-0.941729
-0.825976
-0.713118
-0.604876
-0.502981
-0.408962
-0.324166
-0.249374
-0.185358
-0.131598
-0.0890126
-0.0543073
-0.0321447
-0.00958002
-0.0105275
0.0197053
-0.0313669
-11.2033
-11.294
-11.3358
-11.3652
-11.4084
-11.4544
-11.4983
-11.5436
-11.5914
-11.6454
-11.6999
-11.7571
-11.816
-11.8751
-11.933
-11.9882
-12.0397
-12.0862
-12.127
-12.1612
-12.1882
-12.2076
-12.2189
-12.2216
-12.2154
-12.1998
-12.1743
-12.1384
-12.0915
-12.0331
-11.9624
-11.8789
-11.782
-11.671
-11.5454
-11.4047
-11.2485
-11.0763
-10.888
-10.6835
-10.4628
-10.2262
-9.97418
-9.70729
-9.42642
-9.13264
-8.82725
-8.51176
-8.18786
-7.85744
-7.52248
-7.18512
-6.84752
-6.51186
-6.18031
-5.85491
-5.53761
-5.23013
-4.93401
-4.65053
-4.38069
-4.12521
-3.88455
-3.65884
-3.44799
-3.25159
-3.06904
-2.8995
-2.74193
-2.59514
-2.4578
-2.32851
-2.20576
-2.08809
-1.97402
-1.86219
-1.75135
-1.64045
-1.52869
-1.41556
-1.3009
-1.18491
-1.06817
-0.95166
-0.836632
-0.724598
-0.617168
-0.515969
-0.422435
-0.337856
-0.262951
-0.198522
-0.143969
-0.10041
-0.06423
-0.0408539
-0.0159386
-0.0162876
0.0182487
-0.0353747
-11.2117
-11.2934
-11.3521
-11.3929
-11.4328
-11.4714
-11.5081
-11.5469
-11.5872
-11.6324
-11.6815
-11.7338
-11.788
-11.8426
-11.896
-11.947
-11.9942
-12.0367
-12.0736
-12.1042
-12.128
-12.1444
-12.1531
-12.1536
-12.1454
-12.128
-12.1009
-12.0635
-12.0153
-11.9557
-11.8841
-11.7998
-11.7024
-11.5912
-11.4657
-11.3254
-11.17
-10.999
-10.8123
-10.6099
-10.3917
-10.1582
-9.90956
-9.64656
-9.37002
-9.08098
-8.78069
-8.47063
-8.15242
-7.82788
-7.49894
-7.16761
-6.83599
-6.50616
-6.18019
-5.86004
-5.54758
-5.24447
-4.9522
-4.67199
-4.40485
-4.15147
-3.91232
-3.68757
-3.47713
-3.28065
-3.09757
-2.9271
-2.76828
-2.61997
-2.48091
-2.34976
-2.22511
-2.10555
-1.98966
-1.87616
-1.76384
-1.65171
-1.539
-1.42524
-1.31028
-1.19431
-1.0779
-0.961956
-0.847661
-0.736434
-0.629783
-0.529241
-0.436156
-0.351765
-0.27673
-0.211873
-0.15652
-0.111976
-0.0743172
-0.0497031
-0.0224458
-0.0221262
0.0166404
-0.0393254
-11.2117
-11.275
-11.3248
-11.3623
-11.4002
-11.4395
-11.4784
-11.5184
-11.5624
-11.608
-11.656
-11.7059
-11.7568
-11.8074
-11.8568
-11.9037
-11.947
-11.9858
-12.0194
-12.0469
-12.0678
-12.0816
-12.0878
-12.0859
-12.0754
-12.0559
-12.0268
-11.9876
-11.9378
-11.8768
-11.8041
-11.719
-11.621
-11.5095
-11.3841
-11.2443
-11.0897
-10.92
-10.735
-10.5348
-10.3193
-10.0888
-9.84377
-9.58485
-9.31282
-9.0287
-8.73372
-8.42927
-8.11694
-7.79844
-7.47562
-7.15042
-6.82483
-6.50085
-6.18046
-5.86555
-5.55789
-5.25912
-4.97065
-4.69369
-4.42921
-4.17792
-3.94028
-3.71647
-3.50643
-3.30988
-3.12627
-2.95489
-2.79481
-2.64498
-2.50421
-2.37122
-2.24467
-2.12322
-2.00553
-1.89035
-1.77657
-1.66324
-1.54962
-1.43526
-1.32003
-1.20411
-1.08804
-0.972644
-0.859056
-0.748596
-0.642683
-0.54276
-0.450096
-0.365871
-0.29069
-0.225396
-0.169236
-0.123699
-0.0845584
-0.0586823
-0.0290935
-0.0280352
0.0148913
-0.0432187
-11.2107
-11.2642
-11.3119
-11.3519
-11.3908
-11.4297
-11.468
-11.5062
-11.5466
-11.5888
-11.6332
-11.6791
-11.7259
-11.7724
-11.8177
-11.8606
-11.9001
-11.9353
-11.9654
-11.9897
-12.0076
-12.0185
-12.0221
-12.0177
-12.005
-11.9834
-11.9524
-11.9116
-11.8602
-11.798
-11.7241
-11.6382
-11.5397
-11.428
-11.3027
-11.1634
-11.0097
-10.8413
-10.6582
-10.4601
-10.2473
-10.0201
-9.77876
-9.52397
-9.25652
-8.97738
-8.68772
-8.38889
-8.08239
-7.76987
-7.45311
-7.13395
-6.81431
-6.49608
-6.18118
-5.87141
-5.56849
-5.27398
-4.98926
-4.7155
-4.45366
-4.20443
-3.96827
-3.74541
-3.5358
-3.33918
-3.15507
-2.98279
-2.8215
-2.67019
-2.52773
-2.39293
-2.2645
-2.14118
-2.02171
-1.90489
-1.78967
-1.67515
-1.56064
-1.4457
-1.33021
-1.21433
-1.09856
-0.983695
-0.870776
-0.761047
-0.655834
-0.5565
-0.46423
-0.380154
-0.304817
-0.239078
-0.182107
-0.135567
-0.0949446
-0.0677824
-0.0358737
-0.0340073
0.0130122
-0.0470546
-11.2079
-11.254
-11.2976
-11.3362
-11.3734
-11.4105
-11.4473
-11.4852
-11.5242
-11.5648
-11.6068
-11.6498
-11.6933
-11.7362
-11.7777
-11.8168
-11.8526
-11.8843
-11.911
-11.9322
-11.9472
-11.9555
-11.9565
-11.9498
-11.9349
-11.9113
-11.8784
-11.8359
-11.7831
-11.7195
-11.6447
-11.558
-11.459
-11.3472
-11.2221
-11.0834
-10.9306
-10.7637
-10.5823
-10.3866
-10.1766
-9.95254
-9.7149
-9.46424
-9.20134
-8.92712
-8.64272
-8.34942
-8.04867
-7.74204
-7.43123
-7.118
-6.80418
-6.49161
-6.18209
-5.87738
-5.57911
-5.2888
-5.00777
-4.73718
-4.47795
-4.23077
-3.99612
-3.77421
-3.56505
-3.36839
-3.18382
-3.01069
-2.84823
-2.69547
-2.55138
-2.4148
-2.28455
-2.1594
-2.03818
-1.91976
-1.80313
-1.68744
-1.57204
-1.45653
-1.34077
-1.22492
-1.10944
-0.995068
-0.882786
-0.773753
-0.669211
-0.57044
-0.478545
-0.394603
-0.319101
-0.252909
-0.195124
-0.147573
-0.105467
-0.0769951
-0.0427786
-0.0400358
0.0110135
-0.0508339
-11.2038
-11.2445
-11.2846
-11.3219
-11.3581
-11.3941
-11.4301
-11.4664
-11.5034
-11.5416
-11.5807
-11.6206
-11.6605
-11.6997
-11.7375
-11.7729
-11.8051
-11.8333
-11.8568
-11.8749
-11.887
-11.8926
-11.8911
-11.8821
-11.865
-11.8394
-11.8047
-11.7606
-11.7064
-11.6416
-11.5658
-11.4785
-11.3791
-11.2672
-11.1423
-11.0042
-10.8525
-10.687
-10.5075
-10.3141
-10.1069
-9.88604
-9.65206
-9.40549
-9.14708
-8.87772
-8.59849
-8.31064
-8.01553
-7.71469
-7.40971
-7.10231
-6.79422
-6.4872
-6.18297
-5.88323
-5.58955
-5.30338
-5.02601
-4.75856
-4.50192
-4.2568
-4.02366
-3.80273
-3.59404
-3.39739
-3.2124
-3.03847
-2.87488
-2.72074
-2.57505
-2.43676
-2.30472
-2.1778
-2.05487
-1.93488
-1.81687
-1.70004
-1.58378
-1.4677
-1.35166
-1.23583
-1.12062
-1.00673
-0.895058
-0.786695
-0.6828
-0.584568
-0.493031
-0.40921
-0.333532
-0.26688
-0.208278
-0.159707
-0.116119
-0.0863127
-0.0498006
-0.0461144
0.00890549
-0.0545578
-11.1985
-11.2351
-11.272
-11.3074
-11.342
-11.3765
-11.4108
-11.4455
-11.4807
-11.5166
-11.5532
-11.5901
-11.6268
-11.6626
-11.6968
-11.7287
-11.7575
-11.7823
-11.8026
-11.8177
-11.827
-11.8299
-11.8259
-11.8146
-11.7953
-11.7678
-11.7314
-11.6856
-11.6301
-11.5642
-11.4875
-11.3995
-11.2998
-11.1879
-11.0633
-10.9259
-10.7752
-10.6112
-10.4336
-10.2425
-10.038
-9.82042
-9.59007
-9.34755
-9.09357
-8.829
-8.55487
-8.27236
-7.98281
-7.68764
-7.38841
-7.08672
-6.78426
-6.48269
-6.18368
-5.88884
-5.59968
-5.3176
-5.04386
-4.77952
-4.52548
-4.28242
-4.0508
-3.83088
-3.6227
-3.4261
-3.24073
-3.06605
-2.90138
-2.74591
-2.59869
-2.45873
-2.32497
-2.19632
-2.07173
-1.95021
-1.83086
-1.71292
-1.59581
-1.47917
-1.36287
-1.24705
-1.1321
-1.01866
-0.90758
-0.799865
-0.696591
-0.59888
-0.507682
-0.423967
-0.348105
-0.280985
-0.221564
-0.171963
-0.126892
-0.0957283
-0.0569327
-0.0522379
0.00669788
-0.0582281
-11.1922
-11.2256
-11.2596
-11.293
-11.3259
-11.3587
-11.3915
-11.4244
-11.4577
-11.4913
-11.5253
-11.5592
-11.5927
-11.6252
-11.656
-11.6845
-11.7099
-11.7314
-11.7486
-11.7607
-11.7672
-11.7674
-11.761
-11.7474
-11.7261
-11.6966
-11.6584
-11.6112
-11.5543
-11.4873
-11.4098
-11.3212
-11.2212
-11.1092
-10.9851
-10.8483
-10.6988
-10.5362
-10.3605
-10.1718
-9.97003
-9.75559
-9.52884
-9.29032
-9.0407
-8.78085
-8.51173
-8.23449
-7.95039
-7.6608
-7.36721
-7.07115
-6.77421
-6.47802
-6.18414
-5.89412
-5.60943
-5.3314
-5.06124
-4.80001
-4.54855
-4.30755
-4.07747
-3.85859
-3.65096
-3.45445
-3.26875
-3.09337
-2.92769
-2.77094
-2.62226
-2.48069
-2.34525
-2.21492
-2.08873
-1.96572
-1.84506
-1.72604
-1.60811
-1.49092
-1.37437
-1.25856
-1.14386
-1.03086
-0.920347
-0.813256
-0.710583
-0.613369
-0.522494
-0.438871
-0.362816
-0.295219
-0.234974
-0.184334
-0.137781
-0.105236
-0.0641679
-0.0584011
0.00440006
-0.0618464
-11.1851
-11.2157
-11.2472
-11.2785
-11.3096
-11.3406
-11.3716
-11.4026
-11.4338
-11.4652
-11.4965
-11.5277
-11.5581
-11.5875
-11.615
-11.6402
-11.6623
-11.6807
-11.6948
-11.704
-11.7076
-11.7053
-11.6965
-11.6806
-11.6572
-11.6258
-11.586
-11.5372
-11.479
-11.411
-11.3326
-11.2435
-11.1432
-11.0314
-10.9076
-10.7716
-10.6231
-10.462
-10.2883
-10.1018
-9.90281
-9.69152
-9.46832
-9.23374
-8.98844
-8.73323
-8.46904
-8.19698
-7.91823
-7.63413
-7.34607
-7.05553
-6.76403
-6.47311
-6.18429
-5.89903
-5.61874
-5.34472
-5.07812
-4.81996
-4.57109
-4.33216
-4.10364
-3.88582
-3.67877
-3.4824
-3.29642
-3.12041
-2.95377
-2.7958
-2.64571
-2.50259
-2.36554
-2.23359
-2.10584
-1.98139
-1.85947
-1.7394
-1.62067
-1.50296
-1.38615
-1.27035
-1.15589
-1.04332
-0.933355
-0.826866
-0.724771
-0.628035
-0.537462
-0.453918
-0.377658
-0.309577
-0.248503
-0.196815
-0.14878
-0.114829
-0.0715004
-0.0646
0.00202038
-0.0654149
-11.1771
-11.2054
-11.2345
-11.2637
-11.2929
-11.3221
-11.3512
-11.3804
-11.4095
-11.4385
-11.4674
-11.4957
-11.5233
-11.5495
-11.5739
-11.5958
-11.6148
-11.6301
-11.6412
-11.6475
-11.6485
-11.6436
-11.6324
-11.6143
-11.5888
-11.5556
-11.5141
-11.4638
-11.4044
-11.3353
-11.2562
-11.1665
-11.066
-10.9542
-10.8309
-10.6956
-10.5483
-10.3887
-10.2168
-10.0327
-9.83639
-9.62821
-9.40852
-9.17783
-8.93677
-8.68612
-8.42678
-8.15979
-7.88631
-7.60758
-7.32496
-7.03984
-6.75369
-6.46795
-6.1841
-5.90353
-5.62759
-5.35752
-5.09444
-4.83934
-4.59304
-4.35619
-4.12925
-3.91252
-3.7061
-3.50991
-3.32371
-3.14711
-2.97958
-2.82046
-2.66902
-2.52442
-2.38581
-2.25231
-2.12305
-1.99721
-1.87407
-1.75298
-1.63348
-1.51526
-1.39821
-1.28242
-1.16819
-1.05603
-0.9466
-0.840692
-0.739151
-0.642871
-0.552585
-0.469103
-0.392628
-0.324053
-0.262148
-0.209402
-0.159884
-0.124504
-0.0789244
-0.0708308
-0.000433167
-0.0689355
-11.1684
-11.1945
-11.2215
-11.2487
-11.276
-11.3033
-11.3305
-11.3576
-11.3846
-11.4114
-11.4377
-11.4634
-11.4881
-11.5113
-11.5327
-11.5515
-11.5674
-11.5797
-11.5879
-11.5915
-11.5898
-11.5824
-11.5688
-11.5485
-11.521
-11.4859
-11.4428
-11.3911
-11.3304
-11.2604
-11.1805
-11.0904
-10.9896
-10.878
-10.755
-10.6205
-10.4743
-10.3162
-10.1463
-9.96439
-9.77079
-9.56568
-9.34946
-9.12259
-8.8857
-8.63952
-8.38494
-8.12294
-7.85461
-7.58116
-7.30387
-7.02407
-6.74316
-6.46252
-6.18355
-5.90759
-5.63593
-5.36977
-5.11018
-4.85812
-4.61438
-4.37961
-4.15428
-3.93866
-3.7329
-3.53694
-3.35057
-3.17345
-3.00509
-2.84488
-2.69216
-2.54614
-2.40605
-2.27105
-2.14034
-2.01316
-1.88884
-1.76677
-1.64653
-1.52782
-1.41053
-1.29476
-1.18076
-1.069
-0.960076
-0.854727
-0.753719
-0.657874
-0.567856
-0.484422
-0.407723
-0.338646
-0.275904
-0.22209
-0.17109
-0.134257
-0.0864354
-0.0770903
-0.00295396
-0.0724101
-11.159
-11.1832
-11.2082
-11.2334
-11.2588
-11.2842
-11.3094
-11.3345
-11.3594
-11.3838
-11.4077
-11.4308
-11.4527
-11.473
-11.4914
-11.5074
-11.5203
-11.5297
-11.535
-11.5358
-11.5315
-11.5217
-11.5058
-11.4833
-11.4539
-11.417
-11.3722
-11.3191
-11.2572
-11.1862
-11.1056
-11.015
-10.9141
-10.8026
-10.6801
-10.5464
-10.4013
-10.2447
-10.0766
-9.89701
-9.70605
-9.50398
-9.29116
-9.06805
-8.83525
-8.59347
-8.34355
-8.08643
-7.82315
-7.55487
-7.28279
-7.00821
-6.73243
-6.45679
-6.18262
-5.91119
-5.64375
-5.38144
-5.1253
-4.87626
-4.63508
-4.40239
-4.17867
-3.9642
-3.75914
-3.56345
-3.37697
-3.19939
-3.03026
-2.86904
-2.71509
-2.56773
-2.42621
-2.28978
-2.15768
-2.02922
-1.90376
-1.78076
-1.65981
-1.54063
-1.42312
-1.30735
-1.19357
-1.0822
-0.973774
-0.868964
-0.768468
-0.673038
-0.58327
-0.499871
-0.422938
-0.35335
-0.28977
-0.234878
-0.182395
-0.144085
-0.0940298
-0.0833759
-0.0055359
-0.0758398
-11.1489
-11.1713
-11.1944
-11.2178
-11.2413
-11.2647
-11.288
-11.3111
-11.3338
-11.3559
-11.3774
-11.3979
-11.4171
-11.4347
-11.4503
-11.4633
-11.4734
-11.48
-11.4826
-11.4807
-11.4739
-11.4616
-11.4434
-11.4188
-11.3874
-11.3488
-11.3024
-11.248
-11.1849
-11.113
-11.0317
-10.9407
-10.8396
-10.7282
-10.6061
-10.4732
-10.3293
-10.1742
-10.008
-9.83059
-9.64224
-9.44315
-9.23367
-9.01425
-8.78546
-8.54799
-8.30263
-8.05028
-7.79195
-7.52872
-7.26175
-6.99226
-6.72151
-6.45077
-6.1813
-5.91432
-5.65103
-5.39252
-5.13979
-4.89373
-4.65509
-4.42449
-4.2024
-3.98911
-3.78478
-3.58942
-3.40288
-3.22488
-3.05505
-2.89288
-2.73779
-2.58915
-2.44628
-2.30847
-2.17504
-2.04535
-1.91881
-1.79491
-1.67328
-1.55365
-1.43594
-1.32019
-1.20663
-1.09563
-0.987681
-0.883391
-0.783388
-0.688356
-0.598824
-0.515446
-0.438271
-0.368165
-0.303742
-0.247763
-0.193798
-0.153987
-0.101705
-0.089686
-0.00817451
-0.0792258
-11.1382
-11.159
-11.1802
-11.2018
-11.2234
-11.2449
-11.2663
-11.2873
-11.3079
-11.3278
-11.3469
-11.3649
-11.3815
-11.3964
-11.4092
-11.4195
-11.4268
-11.4306
-11.4306
-11.4261
-11.4168
-11.4022
-11.3818
-11.3551
-11.3218
-11.2815
-11.2336
-11.1777
-11.1136
-11.0407
-10.9587
-10.8673
-10.7661
-10.6549
-10.5333
-10.4012
-10.2584
-10.1048
-9.94036
-9.76519
-9.57941
-9.38324
-9.17704
-8.96123
-8.73637
-8.50311
-8.2622
-8.01452
-7.76102
-7.50272
-7.24074
-6.97624
-6.7104
-6.44445
-6.17958
-5.91697
-5.65776
-5.40298
-5.15361
-4.9105
-4.67439
-4.44588
-4.22543
-4.01334
-3.80978
-3.61479
-3.42824
-3.24991
-3.07944
-2.91638
-2.76022
-2.61037
-2.4662
-2.32709
-2.1924
-2.06154
-1.93396
-1.8092
-1.68692
-1.56687
-1.44897
-1.33324
-1.2199
-1.10926
-1.00178
-0.897998
-0.798471
-0.70382
-0.61451
-0.531144
-0.45372
-0.383089
-0.317822
-0.260745
-0.205299
-0.163961
-0.109461
-0.0960189
-0.010866
-0.0825683
-11.127
-11.1461
-11.1657
-11.1854
-11.2052
-11.2249
-11.2443
-11.2633
-11.2817
-11.2994
-11.3162
-11.3318
-11.3459
-11.3582
-11.3684
-11.376
-11.3806
-11.3818
-11.3791
-11.3722
-11.3604
-11.3435
-11.3209
-11.2923
-11.2571
-11.2151
-11.1657
-11.1085
-11.0433
-10.9695
-10.8869
-10.7951
-10.6938
-10.5827
-10.4616
-10.3303
-10.1886
-10.0365
-9.87389
-9.70088
-9.51762
-9.32433
-9.12133
-8.90905
-8.68803
-8.45887
-8.22232
-7.97919
-7.73038
-7.4769
-7.21978
-6.96014
-6.6991
-6.43783
-6.17747
-5.91914
-5.66391
-5.41281
-5.16675
-4.92656
-4.69296
-4.46653
-4.24773
-4.03686
-3.83411
-3.63953
-3.45303
-3.27442
-3.10337
-2.9395
-2.78234
-2.63134
-2.48596
-2.34561
-2.20971
-2.07773
-1.94917
-1.8236
-1.70071
-1.58027
-1.46218
-1.34649
-1.23336
-1.12309
-1.01606
-0.91277
-0.813705
-0.719422
-0.630325
-0.546961
-0.469283
-0.398122
-0.33201
-0.273827
-0.216901
-0.174011
-0.117299
-0.102374
-0.0136086
-0.0858672
-11.1152
-11.1328
-11.1507
-11.1688
-11.1868
-11.2046
-11.2221
-11.2391
-11.2555
-11.271
-11.2855
-11.2987
-11.3104
-11.3202
-11.3278
-11.3328
-11.3348
-11.3335
-11.3283
-11.3189
-11.3048
-11.2857
-11.261
-11.2304
-11.1935
-11.1497
-11.0989
-11.0405
-10.9741
-10.8995
-10.8163