/*--------------------------------*- C++ -*----------------------------------*\
  =========                 |
  \\      /  F ield         | OpenFOAM: The Open Source CFD Toolbox
   \\    /   O peration     | Website:  https://openfoam.org
    \\  /    A nd           | Version:  10
     \\/     M anipulation  |
\*---------------------------------------------------------------------------*/
FoamFile
{
    format      ascii;
    class       surfaceScalarField;
    location    "0.155";
    object      phi;
}
// * * * * * * * * * * * * * * * * * * * * * * * * * * * * * * * * * * * * * //

dimensions      [0 3 -1 0 0 0 0];

internalField   nonuniform List<scalar> 
13452
(
6.0577e-05
-3.0857e-07
6.03705e-05
2.06559e-07
5.98982e-05
4.72283e-07
5.9284e-05
6.14241e-07
5.86779e-05
6.06088e-07
5.81401e-05
5.37723e-07
5.76734e-05
4.66714e-07
5.72676e-05
4.05821e-07
5.69113e-05
3.56262e-07
5.65947e-05
3.16669e-07
5.63098e-05
2.84863e-07
5.60509e-05
2.58887e-07
5.58137e-05
2.37262e-07
5.55947e-05
2.18918e-07
5.53916e-05
2.03096e-07
5.52024e-05
1.89259e-07
5.50254e-05
1.77025e-07
5.48592e-05
1.66125e-07
5.47029e-05
1.56367e-07
5.45553e-05
1.47621e-07
5.44154e-05
1.39807e-07
5.42825e-05
1.32899e-07
5.41556e-05
1.26929e-07
5.40336e-05
1.22019e-07
5.39152e-05
1.18419e-07
5.37985e-05
1.16706e-07
5.36807e-05
1.17761e-07
5.35566e-05
1.24133e-07
5.34165e-05
1.40037e-07
5.32436e-05
1.72945e-07
5.2975e-05
2.68572e-07
5.25791e-05
3.95937e-07
8.02507e-07
5.17766e-05
6.18026e-05
-1.20836e-07
6.17624e-05
2.46797e-07
6.1879e-05
3.55653e-07
6.20401e-05
4.53089e-07
6.21464e-05
4.99885e-07
6.21751e-05
5.08983e-07
6.21409e-05
5.00907e-07
6.20645e-05
4.82173e-07
6.19625e-05
4.58348e-07
6.18459e-05
4.33277e-07
6.17219e-05
4.08785e-07
6.15952e-05
3.85626e-07
6.14684e-05
3.64072e-07
6.13431e-05
3.44154e-07
6.12204e-05
3.25794e-07
6.11008e-05
3.08873e-07
6.09846e-05
2.93272e-07
6.08718e-05
2.78884e-07
6.07626e-05
2.65619e-07
6.06568e-05
2.53417e-07
6.05543e-05
2.42245e-07
6.04551e-05
2.32113e-07
6.0359e-05
2.23084e-07
6.02657e-05
2.15298e-07
6.01751e-05
2.09036e-07
6.0087e-05
2.04761e-07
6.00013e-05
2.03438e-07
5.99192e-05
2.06235e-07
5.98418e-05
2.17526e-07
5.97783e-05
2.36375e-07
5.97557e-05
2.91194e-07
5.98144e-05
3.37188e-07
5.26262e-07
6.00907e-05
6.36612e-05
-2.06239e-08
6.37526e-05
1.55369e-07
6.38144e-05
2.93843e-07
6.38669e-05
4.00615e-07
6.39096e-05
4.57185e-07
6.39409e-05
4.77733e-07
6.39608e-05
4.8094e-07
6.3968e-05
4.7503e-07
6.39627e-05
4.63621e-07
6.39467e-05
4.49273e-07
6.3922e-05
4.33507e-07
6.38904e-05
4.17194e-07
6.38536e-05
4.00873e-07
6.38129e-05
3.8487e-07
6.37693e-05
3.69374e-07
6.37237e-05
3.54492e-07
6.36767e-05
3.40287e-07
6.36288e-05
3.26799e-07
6.35803e-05
3.1406e-07
6.35316e-05
3.02107e-07
6.34829e-05
2.90995e-07
6.34342e-05
2.80809e-07
6.33856e-05
2.71689e-07
6.3337e-05
2.63848e-07
6.32884e-05
2.57653e-07
6.32396e-05
2.53621e-07
6.31902e-05
2.52822e-07
6.31402e-05
2.56213e-07
6.30899e-05
2.67806e-07
6.304e-05
2.86309e-07
6.30009e-05
3.30263e-07
6.29651e-05
3.73039e-07
4.82697e-07
6.30086e-05
6.55759e-05
-1.34434e-08
6.55535e-05
1.77778e-07
6.55641e-05
2.83227e-07
6.56046e-05
3.60074e-07
6.56534e-05
4.08443e-07
6.56981e-05
4.3302e-07
6.57352e-05
4.43862e-07
6.57643e-05
4.45905e-07
6.5786e-05
4.41907e-07
6.58011e-05
4.34182e-07
6.58104e-05
4.24226e-07
6.58146e-05
4.1293e-07
6.58146e-05
4.00881e-07
6.5811e-05
3.88476e-07
6.58044e-05
3.75986e-07
6.57953e-05
3.63599e-07
6.57841e-05
3.51457e-07
6.57713e-05
3.39673e-07
6.5757e-05
3.28344e-07
6.57415e-05
3.17566e-07
6.57251e-05
3.07451e-07
6.57077e-05
2.98135e-07
6.56896e-05
2.89809e-07
6.56707e-05
2.82733e-07
6.56511e-05
2.7731e-07
6.56306e-05
2.74069e-07
6.56095e-05
2.73983e-07
6.55878e-05
2.77917e-07
6.5567e-05
2.88611e-07
6.55477e-05
3.05529e-07
6.55407e-05
3.3729e-07
6.55436e-05
3.70172e-07
4.23635e-07
6.56026e-05
6.74265e-05
1.68692e-08
6.74513e-05
1.5293e-07
6.74795e-05
2.55047e-07
6.75103e-05
3.29313e-07
6.75408e-05
3.77923e-07
6.75703e-05
4.03507e-07
6.75987e-05
4.15456e-07
6.76253e-05
4.19313e-07
6.76494e-05
4.17789e-07
6.76708e-05
4.12825e-07
6.76893e-05
4.05666e-07
6.77052e-05
3.97067e-07
6.77185e-05
3.87535e-07
6.77296e-05
3.77431e-07
6.77386e-05
3.67015e-07
6.77457e-05
3.56483e-07
6.77511e-05
3.45988e-07
6.77551e-05
3.35662e-07
6.77579e-05
3.25626e-07
6.77594e-05
3.16003e-07
6.776e-05
3.06926e-07
6.77595e-05
2.98559e-07
6.77582e-05
2.91113e-07
6.77561e-05
2.8486e-07
6.77532e-05
2.80194e-07
6.77497e-05
2.77602e-07
6.77458e-05
2.77882e-07
6.7742e-05
2.81716e-07
6.77398e-05
2.90811e-07
6.77405e-05
3.04803e-07
6.77505e-05
3.27268e-07
6.77701e-05
3.5064e-07
3.79005e-07
6.78147e-05
6.93768e-05
2.41058e-08
6.93863e-05
1.4339e-07
6.94046e-05
2.36823e-07
6.94306e-05
3.03298e-07
6.94602e-05
3.48329e-07
6.94895e-05
3.74146e-07
6.95174e-05
3.87551e-07
6.95436e-05
3.93155e-07
6.9568e-05
3.93414e-07
6.95906e-05
3.90149e-07
6.96117e-05
3.846e-07
6.96312e-05
3.77532e-07
6.96493e-05
3.69455e-07
6.9666e-05
3.60726e-07
6.96814e-05
3.51598e-07
6.96957e-05
3.42266e-07
6.97088e-05
3.32883e-07
6.97208e-05
3.23586e-07
6.9732e-05
3.14501e-07
6.97422e-05
3.05755e-07
6.97516e-05
2.97492e-07
6.97603e-05
2.89878e-07
6.97683e-05
2.83121e-07
6.97757e-05
2.77482e-07
6.97826e-05
2.73309e-07
6.97892e-05
2.71011e-07
6.97959e-05
2.71177e-07
6.98033e-05
2.74278e-07
6.98129e-05
2.81222e-07
6.98261e-05
2.91613e-07
6.9847e-05
3.06396e-07
6.98766e-05
3.21032e-07
3.34312e-07
6.99213e-05
7.13593e-05
3.11553e-08
7.13709e-05
1.31804e-07
7.13918e-05
2.15864e-07
7.14176e-05
2.77513e-07
7.14451e-05
3.20872e-07
7.14719e-05
3.47322e-07
7.14976e-05
3.61857e-07
7.15221e-05
3.68605e-07
7.15456e-05
3.69999e-07
7.15679e-05
3.678e-07
7.15893e-05
3.63235e-07
7.16097e-05
3.57084e-07
7.16293e-05
3.49866e-07
7.16481e-05
3.41947e-07
7.16661e-05
3.33587e-07
7.16834e-05
3.24982e-07
7.17e-05
3.16291e-07
7.17159e-05
3.07647e-07
7.17312e-05
2.99179e-07
7.1746e-05
2.91013e-07
7.17602e-05
2.83289e-07
7.17739e-05
2.76166e-07
7.17872e-05
2.69836e-07
7.18001e-05
2.64527e-07
7.18129e-05
2.60523e-07
7.18258e-05
2.58138e-07
7.18392e-05
2.57764e-07
7.18538e-05
2.59664e-07
7.18708e-05
2.64206e-07
7.18915e-05
2.7091e-07
7.19184e-05
2.79532e-07
7.19523e-05
2.87129e-07
2.91382e-07
7.19952e-05
7.34033e-05
3.31372e-08
7.34139e-05
1.21188e-07
7.34325e-05
1.97298e-07
7.34557e-05
2.54285e-07
7.34814e-05
2.95199e-07
7.35073e-05
3.21401e-07
7.35325e-05
3.36621e-07
7.35568e-05
3.44334e-07
7.358e-05
3.46752e-07
7.36024e-05
3.45497e-07
7.36238e-05
3.41752e-07
7.36446e-05
3.36308e-07
7.36648e-05
3.29709e-07
7.36844e-05
3.2234e-07
7.37035e-05
3.14478e-07
7.37221e-05
3.06331e-07
7.37404e-05
2.98064e-07
7.37582e-05
2.89817e-07
7.37757e-05
2.81718e-07
7.37928e-05
2.7389e-07
7.38096e-05
2.66467e-07
7.38262e-05
2.59594e-07
7.38426e-05
2.53436e-07
7.38589e-05
2.48181e-07
7.38754e-05
2.44045e-07
7.38923e-05
2.41243e-07
7.39101e-05
2.39997e-07
7.39293e-05
2.40401e-07
7.3951e-05
2.42484e-07
7.39762e-05
2.4571e-07
7.40064e-05
2.49388e-07
7.4042e-05
2.51496e-07
2.49946e-07
7.40835e-05
7.55022e-05
3.33717e-08
7.55122e-05
1.11238e-07
7.55297e-05
1.79748e-07
7.55518e-05
2.32238e-07
7.55763e-05
2.70718e-07
7.56013e-05
2.96399e-07
7.56259e-05
3.12025e-07
7.56497e-05
3.20457e-07
7.56728e-05
3.23688e-07
7.56951e-05
3.23216e-07
7.57167e-05
3.20162e-07
7.57377e-05
3.15313e-07
7.57582e-05
3.09219e-07
7.57782e-05
3.02279e-07
7.57979e-05
2.94785e-07
7.58173e-05
2.86957e-07
7.58364e-05
2.78968e-07
7.58552e-05
2.70963e-07
7.58739e-05
2.6307e-07
7.58924e-05
2.55412e-07
7.59107e-05
2.4811e-07
7.5929e-05
2.41293e-07
7.59474e-05
2.35099e-07
7.59659e-05
2.29672e-07
7.59848e-05
2.25161e-07
7.60043e-05
2.21692e-07
7.60249e-05
2.19359e-07
7.60472e-05
2.18126e-07
7.60719e-05
2.17833e-07
7.60996e-05
2.17938e-07
7.61314e-05
2.17661e-07
7.61673e-05
2.15574e-07
2.10113e-07
7.62071e-05
7.76607e-05
3.22559e-08
7.76702e-05
1.0172e-07
7.76866e-05
1.63385e-07
7.77072e-05
2.11644e-07
7.77303e-05
2.47622e-07
7.77543e-05
2.72389e-07
7.77783e-05
2.88023e-07
7.78019e-05
2.96869e-07
7.78249e-05
3.00696e-07
7.78472e-05
3.00855e-07
7.7869e-05
2.9839e-07
7.78902e-05
2.94057e-07
7.79111e-05
2.88404e-07
7.79315e-05
2.81832e-07
7.79516e-05
2.74643e-07
7.79715e-05
2.67064e-07
7.79912e-05
2.59275e-07
7.80108e-05
2.51424e-07
7.80302e-05
2.4364e-07
7.80496e-05
2.36039e-07
7.8069e-05
2.28734e-07
7.80884e-05
2.21835e-07
7.81081e-05
2.15451e-07
7.8128e-05
2.09684e-07
7.81486e-05
2.04626e-07
7.81699e-05
2.0033e-07
7.81925e-05
1.96797e-07
7.82167e-05
1.9391e-07
7.82431e-05
1.91416e-07
7.82723e-05
1.88808e-07
7.83046e-05
1.85373e-07
7.834e-05
1.80091e-07
1.7189e-07
7.83783e-05
7.98802e-05
3.04103e-08
7.98892e-05
9.26813e-08
7.99045e-05
1.48122e-07
7.99238e-05
1.92289e-07
7.99457e-05
2.25707e-07
7.99688e-05
2.4929e-07
7.99922e-05
2.64633e-07
8.00155e-05
2.73638e-07
8.00383e-05
2.77847e-07
8.00607e-05
2.78473e-07
8.00826e-05
2.76473e-07
8.01041e-05
2.72567e-07
8.01252e-05
2.67285e-07
8.0146e-05
2.61026e-07
8.01666e-05
2.54093e-07
8.01869e-05
2.46715e-07
8.02071e-05
2.39076e-07
8.02272e-05
2.31324e-07
8.02473e-05
2.23585e-07
8.02673e-05
2.1597e-07
8.02875e-05
2.08577e-07
8.03078e-05
2.015e-07
8.03285e-05
1.94819e-07
8.03495e-05
1.88602e-07
8.03713e-05
1.82892e-07
8.03939e-05
1.77689e-07
8.04178e-05
1.72931e-07
8.04432e-05
1.68458e-07
8.04707e-05
1.63989e-07
8.05004e-05
1.59076e-07
8.05326e-05
1.53129e-07
8.05673e-05
1.45419e-07
1.35245e-07
8.0604e-05
8.21627e-05
2.81702e-08
8.21713e-05
8.40669e-08
8.21856e-05
1.33835e-07
8.22038e-05
1.74069e-07
8.22246e-05
2.0491e-07
8.22468e-05
2.27103e-07
8.22695e-05
2.41889e-07
8.22924e-05
2.50807e-07
8.2315e-05
2.55189e-07
8.23374e-05
2.56114e-07
8.23594e-05
2.54452e-07
8.23811e-05
2.50875e-07
8.24025e-05
2.45891e-07
8.24236e-05
2.39889e-07
8.24446e-05
2.33163e-07
8.24653e-05
2.25945e-07
8.2486e-05
2.18415e-07
8.25066e-05
2.10719e-07
8.25272e-05
2.02979e-07
8.25479e-05
1.95295e-07
8.25687e-05
1.87757e-07
8.25898e-05
1.80436e-07
8.26112e-05
1.73392e-07
8.26331e-05
1.6666e-07
8.26558e-05
1.60248e-07
8.26793e-05
1.54119e-07
8.27041e-05
1.48176e-07
8.27303e-05
1.42243e-07
8.27583e-05
1.36048e-07
8.27881e-05
1.29215e-07
8.282e-05
1.21277e-07
8.28537e-05
1.11722e-07
1.00109e-07
8.28888e-05
8.45102e-05
2.57518e-08
8.45184e-05
7.58649e-08
8.45318e-05
1.20429e-07
8.4549e-05
1.56877e-07
8.45688e-05
1.85129e-07
8.45901e-05
2.05769e-07
8.46122e-05
2.19778e-07
8.46346e-05
2.28396e-07
8.46571e-05
2.32762e-07
8.46793e-05
2.33829e-07
8.47014e-05
2.32379e-07
8.47233e-05
2.29032e-07
8.47449e-05
2.24269e-07
8.47663e-05
2.1846e-07
8.47876e-05
2.11892e-07
8.48087e-05
2.0479e-07
8.48298e-05
1.9733e-07
8.48509e-05
1.89652e-07
8.4872e-05
1.81871e-07
8.48932e-05
1.7408e-07
8.49146e-05
1.66353e-07
8.49363e-05
1.58747e-07
8.49584e-05
1.513e-07
8.4981e-05
1.44025e-07
8.50044e-05
1.36903e-07
8.50286e-05
1.29876e-07
8.5054e-05
1.22831e-07
8.50806e-05
1.15595e-07
8.51087e-05
1.07925e-07
8.51384e-05
9.95157e-08
8.51697e-05
9.00148e-08
8.52024e-05
7.90637e-08
6.63966e-08
8.52361e-05
8.69246e-05
2.32831e-08
8.69324e-05
6.80553e-08
8.69451e-05
1.07807e-07
8.69613e-05
1.40609e-07
8.69802e-05
1.66272e-07
8.70007e-05
1.85239e-07
8.70222e-05
1.98287e-07
8.70442e-05
2.06417e-07
8.70664e-05
2.10595e-07
8.70885e-05
2.11654e-07
8.71106e-05
2.10294e-07
8.71326e-05
2.0708e-07
8.71544e-05
2.02458e-07
8.71761e-05
1.9678e-07
8.71976e-05
1.90319e-07
8.72191e-05
1.83289e-07
8.72406e-05
1.75861e-07
8.72621e-05
1.68167e-07
8.72836e-05
1.60313e-07
8.73053e-05
1.52382e-07
8.73273e-05
1.44438e-07
8.73495e-05
1.36523e-07
8.73721e-05
1.28657e-07
8.73953e-05
1.20838e-07
8.74192e-05
1.1303e-07
8.74439e-05
1.05164e-07
8.74696e-05
9.71264e-08
8.74964e-05
8.87575e-08
8.75245e-05
7.98531e-08
8.75539e-05
7.01721e-08
8.75844e-05
5.94561e-08
8.7616e-05
4.74592e-08
3.40306e-08
8.76484e-05
8.9408e-05
2.08377e-08
8.94154e-05
6.0618e-08
8.94273e-05
9.58824e-08
8.94428e-05
1.25172e-07
8.94608e-05
1.48254e-07
8.94806e-05
1.65454e-07
8.95015e-05
1.77388e-07
8.9523e-05
1.84866e-07
8.95449e-05
1.88701e-07
8.9567e-05
1.89616e-07
8.9589e-05
1.8823e-07
8.96111e-05
1.85054e-07
8.9633e-05
1.80498e-07
8.96549e-05
1.74888e-07
8.96767e-05
1.68482e-07
8.96986e-05
1.61484e-07
8.97204e-05
1.54051e-07
8.97422e-05
1.4631e-07
8.97642e-05
1.38358e-07
8.97863e-05
1.30266e-07
8.98086e-05
1.22088e-07
8.98313e-05
1.13854e-07
8.98544e-05
1.05574e-07
8.9878e-05
9.72309e-08
8.99022e-05
8.87838e-08
8.99272e-05
8.01594e-08
8.99531e-05
7.1252e-08
8.998e-05
6.19234e-08
9.00078e-05
5.20071e-08
9.00367e-05
4.13195e-08
9.00664e-05
2.96757e-08
9.0097e-05
1.6911e-08
2.95017e-09
9.01281e-05
9.19622e-05
1.84548e-08
9.19693e-05
5.353e-08
9.19806e-05
8.45777e-08
9.19953e-05
1.10478e-07
9.20126e-05
1.30992e-07
9.20317e-05
1.46354e-07
9.2052e-05
1.57049e-07
9.20732e-05
1.63734e-07
9.20948e-05
1.67087e-07
9.21167e-05
1.67733e-07
9.21387e-05
1.66212e-07
9.21607e-05
1.62984e-07
9.21828e-05
1.58419e-07
9.22049e-05
1.52818e-07
9.2227e-05
1.4642e-07
9.2249e-05
1.39413e-07
9.22711e-05
1.31946e-07
9.22933e-05
1.24133e-07
9.23156e-05
1.16063e-07
9.23381e-05
1.07798e-07
9.23608e-05
9.93812e-08
9.23838e-05
9.08343e-08
9.24072e-05
8.21578e-08
9.24311e-05
7.33303e-08
9.24556e-05
6.43069e-08
9.24807e-05
5.50183e-08
9.25066e-05
4.53712e-08
9.25333e-05
3.52507e-08
9.25608e-05
2.45263e-08
9.2589e-05
1.30619e-08
9.2618e-05
7.30228e-10
9.26475e-05
-1.25769e-08
-2.68842e-08
9.26773e-05
9.45895e-05
1.61526e-08
9.45962e-05
4.67659e-08
9.4607e-05
7.38228e-08
9.4621e-05
9.6447e-08
9.46376e-05
1.14413e-07
9.46561e-05
1.2788e-07
9.46759e-05
1.37234e-07
9.46966e-05
1.43002e-07
9.47179e-05
1.45751e-07
9.47397e-05
1.46013e-07
9.47616e-05
1.44259e-07
9.47837e-05
1.40893e-07
9.48059e-05
1.36251e-07
9.48281e-05
1.30603e-07
9.48503e-05
1.24167e-07
9.48726e-05
1.17118e-07
9.4895e-05
1.09589e-07
9.49174e-05
1.01686e-07
9.494e-05
9.34866e-08
9.49628e-05
8.50453e-08
9.49858e-05
7.63966e-08
9.5009e-05
6.75552e-08
9.50327e-05
5.85166e-08
9.50567e-05
4.92567e-08
9.50813e-05
3.97325e-08
9.51065e-05
2.98819e-08
9.51322e-05
1.96264e-08
9.51586e-05
8.87429e-09
9.51856e-05
-2.47335e-09
9.52132e-05
-1.45138e-08
9.52412e-05
-2.7332e-08
9.52696e-05
-4.09931e-08
-5.54916e-08
9.52982e-05
9.72917e-05
1.39368e-08
9.72982e-05
4.02986e-08
9.73085e-05
6.35549e-08
9.73219e-05
8.3005e-08
9.73379e-05
9.84433e-08
9.73558e-05
1.09976e-07
9.73751e-05
1.17902e-07
9.73955e-05
1.2265e-07
9.74165e-05
1.24686e-07
9.74381e-05
1.24462e-07
9.746e-05
1.22383e-07
9.7482e-05
1.18804e-07
9.75043e-05
1.14019e-07
9.75266e-05
1.08273e-07
9.7549e-05
1.0176e-07
9.75715e-05
9.46379e-08
9.75941e-05
8.70276e-08
9.76167e-05
7.90223e-08
9.76395e-05
7.06905e-08
9.76625e-05
6.2079e-08
9.76857e-05
5.32156e-08
9.77091e-05
4.41097e-08
9.77329e-05
3.47541e-08
9.7757e-05
2.51252e-08
9.77816e-05
1.5184e-08
9.78066e-05
4.87811e-09
9.7832e-05
-5.85596e-09
9.7858e-05
-1.70887e-08
9.78844e-05
-2.8892e-08
9.79112e-05
-4.13322e-08
9.79384e-05
-5.44625e-08
9.79657e-05
-6.83184e-08
-8.28742e-08
9.79931e-05
0.000100071
1.18061e-08
0.000100077
3.41002e-08
0.000100087
5.37169e-08
0.0001001
7.00842e-08
0.000100116
8.30177e-08
0.000100133
9.25831e-08
0.000100152
9.90133e-08
0.000100172
1.02651e-07
0.000100193
1.0388e-07
0.000100214
1.03079e-07
0.000100236
1.00594e-07
0.000100258
9.67302e-08
0.00010028
9.17462e-08
0.000100303
8.58556e-08
0.000100325
7.92318e-08
0.000100348
7.2013e-08
0.00010037
6.43068e-08
0.000100393
5.61947e-08
0.000100416
4.7736e-08
0.000100439
3.897e-08
0.000100463
2.99188e-08
0.000100486
2.05885e-08
0.00010051
1.09709e-08
0.000100534
1.04446e-09
0.000100558
-9.22402e-09
0.000100583
-1.98769e-08
0.000100608
-3.09631e-08
0.000100634
-4.25345e-08
0.00010066
-5.46407e-08
0.000100686
-6.73242e-08
0.000100712
-8.06144e-08
0.000100738
-9.45261e-08
-1.09021e-07
0.000100764
0.00010293
9.75503e-09
0.000102936
2.81431e-08
0.000102946
4.42571e-08
0.000102958
5.7622e-08
0.000102973
6.80733e-08
0.00010299
7.56475e-08
0.000103008
8.05236e-08
0.000103028
8.29749e-08
0.000103049
8.33149e-08
0.00010307
8.18573e-08
0.000103092
7.88942e-08
0.000103114
7.46848e-08
0.000103136
6.9451e-08
0.000103158
6.33774e-08
0.000103181
5.66144e-08
0.000103204
4.92819e-08
0.000103227
4.14729e-08
0.000103249
3.32572e-08
0.000103273
2.4685e-08
0.000103296
1.57887e-08
0.000103319
6.58574e-09
0.000103343
-2.92016e-09
0.000103366
-1.27371e-08
0.00010339
-2.28834e-08
0.000103414
-3.33859e-08
0.000103439
-4.42772e-08
0.000103463
-5.55933e-08
0.000103488
-6.73701e-08
0.000103513
-7.96395e-08
0.000103538
-9.24254e-08
0.000103563
-1.0574e-07
0.000103588
-1.19584e-07
-1.3391e-07
0.000103613
0.000105871
7.77655e-09
0.000105876
2.23997e-08
0.000105886
3.51278e-08
0.000105898
4.556e-08
0.000105912
5.35499e-08
0.000105929
5.91139e-08
0.000105947
6.23881e-08
0.000105966
6.35888e-08
0.000105987
6.29693e-08
0.000106008
6.07867e-08
0.000106029
5.72831e-08
0.000106051
5.2675e-08
0.000106074
4.7149e-08
0.000106096
4.0861e-08
0.000106119
3.39384e-08
0.000106142
2.64823e-08
0.000106164
1.8571e-08
0.000106187
1.02627e-08
0.000106211
1.59855e-09
0.000106234
-7.39559e-09
0.000106257
-1.67064e-08
0.00010628
-2.63317e-08
0.000106304
-3.62789e-08
0.000106328
-4.65628e-08
0.000106351
-5.7204e-08
0.000106375
-6.82263e-08
0.000106399
-7.96544e-08
0.000106424
-9.15113e-08
0.000106448
-1.03815e-07
0.000106472
-1.16575e-07
0.000106496
-1.29791e-07
0.00010652
-1.43455e-07
-1.57514e-07
0.000106543
0.000108895
5.86273e-09
0.000108901
1.68443e-08
0.00010891
2.62854e-08
0.000108921
3.38447e-08
0.000108936
3.93913e-08
0.000108952
4.29291e-08
0.00010897
4.45607e-08
0.000108989
4.4456e-08
0.000109009
4.28168e-08
0.00010903
3.98503e-08
0.000109051
3.57535e-08
0.000109073
3.07025e-08
0.000109096
2.48503e-08
0.000109118
1.83246e-08
0.000109141
1.12297e-08
0.000109164
3.64807e-09
0.000109187
-4.35698e-09
0.00010921
-1.27389e-08
0.000109233
-2.14657e-08
0.000109256
-3.05174e-08
0.000109279
-3.98846e-08
0.000109302
-4.95667e-08
0.000109326
-5.95699e-08
0.000109349
-6.99058e-08
0.000109372
-8.05893e-08
0.000109396
-9.16366e-08
0.000109419
-1.03063e-07
0.000109442
-1.14882e-07
0.000109466
-1.27099e-07
0.000109489
-1.39715e-07
0.000109512
-1.52721e-07
0.000109534
-1.66101e-07
-1.79801e-07
0.000109557
0.000112006
4.0053e-09
0.000112012
1.14513e-08
0.00011202
1.76882e-08
0.000112032
2.24229e-08
0.000112046
2.55395e-08
0.000112062
2.70362e-08
0.000112079
2.699e-08
0.000112098
2.55333e-08
0.000112118
2.28242e-08
0.000112139
1.90256e-08
0.00011216
1.42932e-08
0.000112182
8.76497e-09
0.000112205
2.56206e-09
0.000112227
-4.21603e-09
0.00011225
-1.14874e-08
0.000112273
-1.91884e-08
0.000112296
-2.72707e-08
0.000112318
-3.56996e-08
0.000112341
-4.44518e-08
0.000112364
-5.35137e-08
0.000112387
-6.28796e-08
0.00011241
-7.25503e-08
0.000112433
-8.25313e-08
0.000112456
-9.28313e-08
0.000112479
-1.0346e-07
0.000112502
-1.14429e-07
0.000112525
-1.25744e-07
0.000112547
-1.37412e-07
0.00011257
-1.49431e-07
0.000112592
-1.61793e-07
0.000112613
-1.74484e-07
0.000112635
-1.87483e-07
-2.00737e-07
0.000112656
0.000115206
2.19792e-09
0.000115212
6.20091e-09
0.00011522
9.30432e-09
0.000115231
1.12525e-08
0.000115245
1.19453e-08
0.00011526
1.13841e-08
0.000115278
9.62682e-09
0.000115296
6.77586e-09
0.000115316
2.95187e-09
0.000115337
-1.72087e-09
0.000115358
-7.12224e-09
0.00011538
-1.31532e-08
0.000115403
-1.97229e-08
0.000115425
-2.67584e-08
0.000115448
-3.42011e-08
0.000115471
-4.2006e-08
0.000115494
-5.01401e-08
0.000115517
-5.85806e-08
0.000115539
-6.73132e-08
0.000115562
-7.63307e-08
0.000115585
-8.56312e-08
0.000115608
-9.52171e-08
0.00011563
-1.05094e-07
0.000115653
-1.15268e-07
0.000115675
-1.25746e-07
0.000115697
-1.36533e-07
0.000115719
-1.47631e-07
0.000115741
-1.5904e-07
0.000115762
-1.70753e-07
0.000115783
-1.82758e-07
0.000115803
-1.95036e-07
0.000115823
-2.07564e-07
-2.20289e-07
0.000115843
0.000118498
4.2973e-10
0.000118503
1.06398e-09
0.000118511
1.08447e-09
0.000118522
2.74918e-10
0.000118535
-1.45864e-09
0.000118551
-4.09652e-09
0.000118568
-7.59423e-09
0.000118587
-1.18727e-08
0.000118607
-1.68431e-08
0.000118627
-2.24168e-08
0.000118649
-2.85125e-08
0.000118671
-3.50608e-08
0.000118693
-4.20029e-08
0.000118715
-4.9292e-08
0.000118738
-5.68924e-08
0.000118761
-6.4778e-08
0.000118784
-7.29312e-08
0.000118806
-8.13412e-08
0.000118829
-9.00029e-08
0.000118852
-9.89156e-08
0.000118874
-1.08082e-07
0.000118896
-1.17506e-07
0.000118918
-1.27194e-07
0.00011894
-1.37151e-07
0.000118962
-1.47381e-07
0.000118983
-1.57886e-07
0.000119004
-1.68665e-07
0.000119025
-1.79713e-07
0.000119045
-1.91018e-07
0.000119065
-2.02567e-07
0.000119084
-2.14337e-07
0.000119103
-2.26307e-07
-2.38422e-07
0.000119121
0.000121883
-1.28963e-09
0.000121888
-3.9441e-09
0.000121896
-6.95617e-09
0.000121907
-1.05247e-08
0.00012192
-1.46983e-08
0.000121935
-1.94506e-08
0.000121953
-2.47334e-08
0.000121971
-3.04838e-08
0.000121991
-3.66387e-08
0.000122012
-4.31421e-08
0.000122033
-4.99472e-08
0.000122055
-5.70176e-08
0.000122077
-6.43254e-08
0.0001221
-7.18512e-08
0.000122123
-7.95825e-08
0.000122145
-8.75127e-08
0.000122168
-9.56399e-08
0.000122191
-1.03966e-07
0.000122213
-1.12495e-07
0.000122236
-1.21234e-07
0.000122258
-1.3019e-07
0.00012228
-1.3937e-07
0.000122301
-1.48781e-07
0.000122322
-1.58428e-07
0.000122343
-1.68313e-07
0.000122364
-1.78437e-07
0.000122384
-1.88795e-07
0.000122404
-1.99381e-07
0.000122423
-2.10182e-07
0.000122441
-2.2118e-07
0.000122459
-2.32355e-07
0.000122477
-2.43682e-07
-2.55114e-07
0.000122494
0.000125365
-3.01208e-09
0.00012537
-8.9164e-09
0.000125378
-1.49435e-08
0.000125389
-2.12632e-08
0.000125402
-2.78859e-08
0.000125417
-3.47655e-08
0.000125434
-4.18502e-08
0.000125453
-4.90904e-08
0.000125473
-5.64464e-08
0.000125494
-6.38918e-08
0.000125515
-7.14124e-08
0.000125537
-7.90032e-08
0.000125559
-8.66665e-08
0.000125582
-9.44095e-08
0.000125605
-1.02243e-07
0.000125627
-1.1018e-07
0.00012565
-1.18234e-07
0.000125672
-1.26421e-07
0.000125695
-1.34754e-07
0.000125717
-1.43249e-07
0.000125738
-1.51917e-07
0.00012576
-1.60769e-07
0.000125781
-1.69814e-07
0.000125801
-1.79057e-07
0.000125822
-1.88502e-07
0.000125841
-1.98146e-07
0.000125861
-2.07987e-07
0.000125879
-2.18014e-07
0.000125897
-2.28214e-07
0.000125915
-2.38571e-07
0.000125931
-2.49062e-07
0.000125947
-2.59666e-07
-2.70335e-07
0.000125963
0.000128947
-4.5757e-09
0.000128951
-1.36182e-08
0.000128959
-2.2644e-08
0.00012897
-3.18003e-08
0.000128983
-4.10044e-08
0.000128998
-5.01409e-08
0.000129015
-5.91301e-08
0.000129034
-6.79272e-08
0.000129054
-7.65181e-08
0.000129075
-8.4912e-08
0.000129097
-9.31328e-08
0.000129119
-1.01213e-07
0.000129142
-1.09188e-07
0.000129164
-1.17095e-07
0.000129187
-1.24969e-07
0.00012921
-1.32846e-07
0.000129232
-1.40755e-07
0.000129255
-1.48726e-07
0.000129277
-1.56782e-07
0.000129298
-1.64947e-07
0.00012932
-1.73238e-07
0.000129341
-1.8167e-07
0.000129361
-1.90253e-07
0.000129381
-1.98997e-07
0.0001294
-2.07902e-07
0.000129419
-2.1697e-07
0.000129437
-2.26195e-07
0.000129455
-2.35569e-07
0.000129472
-2.45078e-07
0.000129488
-2.54705e-07
0.000129503
-2.64431e-07
0.000129518
-2.74235e-07
-2.84074e-07
0.000129532
0.000132631
-6.47067e-09
0.000132636
-1.86324e-08
0.000132644
-3.0578e-08
0.000132655
-4.24562e-08
0.000132668
-5.41446e-08
0.000132683
-6.54826e-08
0.0001327
-7.63626e-08
0.000132719
-8.67308e-08
0.000132739
-9.65827e-08
0.00013276
-1.05951e-07
0.000132782
-1.14891e-07
0.000132804
-1.23468e-07
0.000132827
-1.3175e-07
0.000132849
-1.39802e-07
0.000132872
-1.47688e-07
0.000132895
-1.55461e-07
0.000132917
-1.63172e-07
0.000132939
-1.70864e-07
0.000132961
-1.78572e-07
0.000132983
-1.86329e-07
0.000133003
-1.94158e-07
0.000133024
-2.02081e-07
0.000133044
-2.10111e-07
0.000133063
-2.18259e-07
0.000133082
-2.26529e-07
0.0001331
-2.34923e-07
0.000133117
-2.43437e-07
0.000133133
-2.52062e-07
0.000133149
-2.60788e-07
0.000133164
-2.69598e-07
0.000133178
-2.78474e-07
0.000133191
-2.87396e-07
-2.96326e-07
0.000133203
0.000136419
-7.23776e-09
0.000136423
-2.24165e-08
0.00013643
-3.76582e-08
0.00013644
-5.29062e-08
0.000136454
-6.76583e-08
0.00013647
-8.15814e-08
0.000136488
-9.45443e-08
0.000136508
-1.06533e-07
0.000136529
-1.17604e-07
0.000136551
-1.27851e-07
0.000136573
-1.37387e-07
0.000136596
-1.46326e-07
0.000136619
-1.54778e-07
0.000136642
-1.62844e-07
0.000136665
-1.70612e-07
0.000136688
-1.78161e-07
0.00013671
-1.85557e-07
0.000136732
-1.92858e-07
0.000136754
-2.00109e-07
0.000136775
-2.07352e-07
0.000136795
-2.14616e-07
0.000136815
-2.21926e-07
0.000136834
-2.29302e-07
0.000136853
-2.36755e-07
0.000136871
-2.44292e-07
0.000136888
-2.51917e-07
0.000136904
-2.59627e-07
0.000136919
-2.67415e-07
0.000136934
-2.75272e-07
0.000136947
-2.83184e-07
0.00013696
-2.91135e-07
0.000136972
-2.99108e-07
-3.07068e-07
0.000136982
0.000140319
-1.05931e-08
0.000140325
-2.80971e-08
0.000140333
-4.55393e-08
0.000140343
-6.3113e-08
0.000140356
-8.0358e-08
0.000140371
-9.67117e-08
0.000140388
-1.11846e-07
0.000140407
-1.25647e-07
0.000140428
-1.3815e-07
0.000140449
-1.49472e-07
0.000140472
-1.59762e-07
0.000140495
-1.69178e-07
0.000140518
-1.77874e-07
0.000140541
-1.85988e-07
0.000140564
-1.93642e-07
0.000140587
-2.00943e-07
0.000140609
-2.07979e-07
0.000140631
-2.14826e-07
0.000140652
-2.21546e-07
0.000140673
-2.28188e-07
0.000140693
-2.34794e-07
0.000140713
-2.41395e-07
0.000140732
-2.48014e-07
0.00014075
-2.54669e-07
0.000140767
-2.6137e-07
0.000140783
-2.68123e-07
0.000140798
-2.74927e-07
0.000140812
-2.8178e-07
0.000140826
-2.88673e-07
0.000140838
-2.95596e-07
0.00014085
-3.02534e-07
0.00014086
-3.09472e-07
-3.16382e-07
0.000140869
0.000144322
-7.62702e-09
0.000144322
-2.8894e-08
0.000144329
-5.1646e-08
0.00014434
-7.45574e-08
0.000144356
-9.60066e-08
0.000144374
-1.15379e-07
0.000144395
-1.32618e-07
0.000144417
-1.47855e-07
0.00014444
-1.61298e-07
0.000144464
-1.73181e-07
0.000144488
-1.83745e-07
0.000144512
-1.93214e-07
0.000144536
-2.0179e-07
0.00014456
-2.09646e-07
0.000144583
-2.1693e-07
0.000144606
-2.23768e-07
0.000144628
-2.30263e-07
0.00014465
-2.36501e-07
0.000144671
-2.42553e-07
0.000144691
-2.48475e-07
0.000144711
-2.54313e-07
0.000144729
-2.60103e-07
0.000144747
-2.65872e-07
0.000144764
-2.71639e-07
0.00014478
-2.77418e-07
0.000144795
-2.83217e-07
0.000144809
-2.89039e-07
0.000144823
-2.94881e-07
0.000144835
-3.0074e-07
0.000144846
-3.06607e-07
0.000144856
-3.12471e-07
0.000144864
-3.1832e-07
-3.24127e-07
0.000144872
0.000148457
-1.64601e-08
0.000148463
-3.56016e-08
0.000148469
-5.7072e-08
0.000148476
-8.13498e-08
0.000148486
-1.06024e-07
0.000148499
-1.29087e-07
0.000148516
-1.49594e-07
0.000148536
-1.67428e-07
0.000148558
-1.82814e-07
0.00014858
-1.96063e-07
0.000148604
-2.07503e-07
0.000148628
-2.1745e-07
0.000148653
-2.26183e-07
0.000148677
-2.33941e-07
0.000148701
-2.40927e-07
0.000148725
-2.47305e-07
0.000148748
-2.53214e-07
0.00014877
-2.58764e-07
0.000148791
-2.64044e-07
0.000148812
-2.69126e-07
0.000148832
-2.74068e-07
0.000148851
-2.78913e-07
0.000148868
-2.83695e-07
0.000148885
-2.8844e-07
0.000148901
-2.93165e-07
0.000148916
-2.97883e-07
0.000148929
-3.02598e-07
0.000148942
-3.07314e-07
0.000148953
-3.12028e-07
0.000148963
-3.16735e-07
0.000148972
-3.21426e-07
0.00014898
-3.26092e-07
-3.30714e-07
0.000148986
0.000152671
1.76289e-09
0.000152666
-3.06741e-08
0.000152674
-6.52026e-08
0.000152692
-9.93489e-08
0.000152715
-1.2897e-07
0.00015274
-1.54298e-07
0.000152766
-1.75773e-07
0.000152793
-1.93922e-07
0.000152819
-2.09251e-07
0.000152846
-2.22211e-07
0.000152871
-2.33224e-07
0.000152896
-2.42657e-07
0.000152921
-2.50812e-07
0.000152945
-2.57939e-07
0.000152968
-2.64245e-07
0.000152991
-2.69899e-07
0.000153013
-2.7504e-07
0.000153034
-2.7978e-07
0.000153054
-2.84208e-07
0.000153073
-2.88399e-07
0.000153092
-2.9241e-07
0.000153109
-2.96287e-07
0.000153125
-3.00068e-07
0.000153141
-3.03778e-07
0.000153155
-3.07438e-07
0.000153168
-3.11063e-07
0.00015318
-3.14661e-07
0.000153191
-3.18237e-07
0.000153201
-3.2179e-07
0.000153209
-3.25319e-07
0.000153217
-3.28819e-07
0.000153223
-3.32284e-07
-3.35694e-07
0.000153228
0.000157077
-2.39606e-08
0.000157076
-2.98244e-08
0.000157064
-5.25055e-08
0.000157055
-9.08538e-08
0.000157056
-1.30115e-07
0.000157067
-1.64882e-07
0.000157084
-1.93087e-07
0.000157106
-2.15812e-07
0.000157131
-2.34166e-07
0.000157158
-2.48977e-07
0.000157186
-2.60969e-07
0.000157214
-2.70744e-07
0.000157242
-2.78786e-07
0.000157269
-2.85475e-07
0.000157296
-2.91113e-07
0.000157322
-2.95933e-07
0.000157347
-3.00122e-07
0.000157371
-3.03824e-07
0.000157394
-3.07152e-07
0.000157416
-3.10195e-07
0.000157436
-3.13022e-07
0.000157456
-3.15687e-07
0.000157474
-3.18231e-07
0.000157491
-3.20686e-07
0.000157507
-3.23076e-07
0.000157521
-3.25417e-07
0.000157534
-3.27721e-07
0.000157546
-3.29994e-07
0.000157556
-3.32241e-07
0.000157565
-3.34462e-07
0.000157573
-3.36655e-07
0.00015758
-3.38819e-07
-3.40938e-07
0.000157585
0.00016147
4.487e-08
0.000161456
-1.60298e-08
0.000161492
-8.87247e-08
0.000161535
-1.33994e-07
0.000161577
-1.72316e-07
0.000161614
-2.01867e-07
0.000161647
-2.25972e-07
0.000161677
-2.45843e-07
0.000161705
-2.62025e-07
0.000161731
-2.75217e-07
0.000161756
-2.86032e-07
0.000161781
-2.94933e-07
0.000161804
-3.02288e-07
0.000161827
-3.08396e-07
0.000161849
-3.13498e-07
0.000161871
-3.17788e-07
0.000161893
-3.21421e-07
0.000161913
-3.24525e-07
0.000161933
-3.272e-07
0.000161953
-3.29529e-07
0.000161971
-3.31579e-07
0.000161989
-3.33404e-07
0.000162006
-3.35048e-07
0.000162022
-3.36544e-07
0.000162036
-3.3792e-07
0.00016205
-3.39198e-07
0.000162063
-3.40394e-07
0.000162074
-3.41519e-07
0.000162085
-3.42581e-07
0.000162094
-3.43585e-07
0.000162102
-3.44531e-07
0.000162108
-3.45418e-07
-3.46244e-07
0.000162114
0.000166191
7.88953e-09
0.000166127
4.77796e-08
0.000166046
-8.30032e-09
0.00016599
-7.78341e-08
0.000165977
-1.59453e-07
0.000165991
-2.15109e-07
0.000166019
-2.54515e-07
0.000166056
-2.82778e-07
0.000166098
-3.03626e-07
0.000166142
-3.19244e-07
0.000166187
-3.31022e-07
0.000166232
-3.39953e-07
0.000166276
-3.46748e-07
0.00016632
-3.5192e-07
0.000166362
-3.55843e-07
0.000166403
-3.58793e-07
0.000166443
-3.60981e-07
0.000166481
-3.62565e-07
0.000166517
-3.6367e-07
0.000166552
-3.64391e-07
0.000166585
-3.64805e-07
0.000166617
-3.6497e-07
0.000166647
-3.64937e-07