/*--------------------------------*- C++ -*----------------------------------*\
  =========                 |
  \\      /  F ield         | OpenFOAM: The Open Source CFD Toolbox
   \\    /   O peration     | Website:  https://openfoam.org
    \\  /    A nd           | Version:  10
     \\/     M anipulation  |
\*---------------------------------------------------------------------------*/
FoamFile
{
    format      ascii;
    class       volScalarField;
    location    "0.07";
    object      k;
}
// * * * * * * * * * * * * * * * * * * * * * * * * * * * * * * * * * * * * * //

dimensions      [0 2 -2 0 0 0 0];

internalField   nonuniform List<scalar> 
6820
(
0.196709
0.190616
0.184994
0.179724
0.174797
0.170249
0.166114
0.162407
0.159125
0.15625
0.153754
0.151606
0.149775
0.148227
0.146934
0.145868
0.145004
0.144319
0.143793
0.143407
0.143146
0.142995
0.142941
0.142972
0.14308
0.143255
0.143486
0.14379
0.144048
0.144795
0.143491
0.152026
0.114621
0.201954
0.200832
0.197543
0.193922
0.190841
0.188586
0.18716
0.186439
0.186276
0.186538
0.18712
0.187941
0.188941
0.190075
0.191311
0.192623
0.19399
0.195397
0.196832
0.198286
0.199752
0.201224
0.202699
0.204175
0.205654
0.207138
0.208636
0.210157
0.21173
0.21344
0.215131
0.218168
0.219113
0.200488
0.200474
0.199117
0.197069
0.194841
0.19269
0.190725
0.188986
0.18749
0.186235
0.185211
0.184402
0.183789
0.183353
0.183075
0.182935
0.182918
0.183009
0.183193
0.18346
0.183799
0.184201
0.184658
0.185164
0.185714
0.186305
0.186935
0.187605
0.188312
0.189087
0.189873
0.190821
0.191601
0.199662
0.199121
0.198219
0.196983
0.195545
0.194012
0.192458
0.19093
0.189462
0.188073
0.186776
0.185577
0.18448
0.183484
0.182586
0.181783
0.181071
0.180443
0.179894
0.179419
0.179012
0.178669
0.178385
0.178155
0.177977
0.177847
0.177764
0.177727
0.177735
0.177796
0.177902
0.178078
0.178302
0.199429
0.198466
0.197531
0.196512
0.195399
0.194214
0.192986
0.191739
0.190494
0.189266
0.188067
0.186907
0.185791
0.184725
0.183711
0.18275
0.181843
0.18099
0.18019
0.17944
0.17874
0.178088
0.177481
0.176917
0.176396
0.175916
0.175475
0.175072
0.174709
0.174386
0.174102
0.173863
0.173662
0.199398
0.198268
0.197202
0.196166
0.195133
0.194088
0.193028
0.191958
0.190883
0.189811
0.188748
0.187701
0.186675
0.185673
0.1847
0.183756
0.182844
0.181965
0.181119
0.180307
0.179529
0.178784
0.178072
0.177393
0.176744
0.176127
0.175541
0.174985
0.174459
0.173964
0.1735
0.173068
0.172668
0.199395
0.19822
0.197098
0.196021
0.194978
0.193957
0.192952
0.191958
0.190972
0.189996
0.18903
0.188077
0.187137
0.186215
0.18531
0.184425
0.183561
0.182719
0.1819
0.181104
0.180332
0.179584
0.17886
0.17816
0.177484
0.176831
0.176202
0.175596
0.175014
0.174455
0.173921
0.173412
0.172927
0.199395
0.198211
0.197069
0.195969
0.194908
0.193881
0.192884
0.191911
0.19096
0.190028
0.189114
0.188216
0.187334
0.186469
0.185621
0.18479
0.183976
0.18318
0.182403
0.181644
0.180904
0.180182
0.17948
0.178796
0.178131
0.177485
0.176858
0.17625
0.175661
0.175091
0.17454
0.174009
0.173498
0.199395
0.198209
0.197063
0.195955
0.194884
0.193849
0.192848
0.191877
0.190933
0.190016
0.189122
0.188249
0.187398
0.186565
0.185752
0.184957
0.18418
0.18342
0.182678
0.181952
0.181244
0.180553
0.179878
0.17922
0.178578
0.177952
0.177343
0.17675
0.176173
0.175613
0.175069
0.174542
0.174032
0.199395
0.198209
0.197061
0.195951
0.194877
0.193838
0.192833
0.191859
0.190915
0.19
0.189112
0.188248
0.187409
0.186591
0.185795
0.185019
0.184263
0.183525
0.182806
0.182104
0.181419
0.180751
0.180099
0.179463
0.178842
0.178237
0.177647
0.177072
0.176513
0.175968
0.175438
0.174924
0.174426
0.199395
0.198209
0.197061
0.19595
0.194875
0.193834
0.192827
0.191851
0.190907
0.189991
0.189103
0.188241
0.187405
0.186593
0.185803
0.185036
0.184289
0.183563
0.182855
0.182167
0.181496
0.180842
0.180205
0.179584
0.178979
0.178389
0.177815
0.177255
0.17671
0.176179
0.175663
0.175162
0.174675
0.199395
0.198209
0.19706
0.195949
0.194874
0.193833
0.192825
0.191848
0.190903
0.189986
0.189097
0.188236
0.1874
0.186589
0.185802
0.185037
0.184294
0.183572
0.18287
0.182188
0.181524
0.180877
0.180249
0.179636
0.17904
0.17846
0.177895
0.177346
0.17681
0.17629
0.175784
0.175293
0.174816
0.199395
0.198209
0.19706
0.195949
0.194873
0.193832
0.192823
0.191847
0.190901
0.189983
0.189095
0.188233
0.187397
0.186586
0.185799
0.185035
0.184293
0.183572
0.182872
0.182192
0.181531
0.180888
0.180263
0.179655
0.179064
0.178489
0.177929
0.177385
0.176856
0.176342
0.175842
0.175357
0.174886
0.199395
0.198209
0.19706
0.195949
0.194873
0.193831
0.192823
0.191846
0.190899
0.189982
0.189093
0.188231
0.187394
0.186583
0.185796
0.185032
0.18429
0.18357
0.182871
0.182192
0.181531
0.18089
0.180266
0.17966
0.179071
0.178498
0.177941
0.1774
0.176874
0.176363
0.175866
0.175385
0.174917
0.199395
0.198208
0.19706
0.195948
0.194872
0.193831
0.192822
0.191845
0.190898
0.189981
0.189091
0.188229
0.187393
0.186581
0.185794
0.18503
0.184288
0.183568
0.182869
0.18219
0.18153
0.180889
0.180266
0.179661
0.179072
0.1785
0.177945
0.177405
0.17688
0.17637
0.175875
0.175395
0.174929
0.199395
0.198208
0.19706
0.195948
0.194872
0.19383
0.192822
0.191844
0.190897
0.18998
0.18909
0.188228
0.187391
0.18658
0.185792
0.185028
0.184287
0.183566
0.182867
0.182188
0.181528
0.180887
0.180265
0.17966
0.179072
0.1785
0.177945
0.177406
0.176881
0.176372
0.175878
0.175399
0.174933
0.199395
0.198208
0.19706
0.195948
0.194872
0.19383
0.192821
0.191844
0.190897
0.189979
0.189089
0.188227
0.18739
0.186579
0.185791
0.185027
0.184285
0.183565
0.182866
0.182187
0.181527
0.180886
0.180263
0.179658
0.179071
0.178499
0.177944
0.177405
0.176881
0.176373
0.175879
0.175399
0.174934
0.199395
0.198208
0.19706
0.195948
0.194872
0.19383
0.192821
0.191843
0.190896
0.189978
0.189089
0.188226
0.187389
0.186578
0.18579
0.185026
0.184284
0.183564
0.182864
0.182185
0.181526
0.180885
0.180262
0.179657
0.17907
0.178499
0.177944
0.177405
0.176881
0.176372
0.175878
0.175399
0.174933
0.199395
0.198208
0.19706
0.195948
0.194871
0.193829
0.19282
0.191843
0.190896
0.189978
0.189088
0.188225
0.187388
0.186577
0.185789
0.185025
0.184283
0.183563
0.182863
0.182184
0.181524
0.180884
0.180261
0.179656
0.179069
0.178498
0.177943
0.177404
0.17688
0.176371
0.175877
0.175398
0.174932
0.199395
0.198208
0.197059
0.195948
0.194871
0.193829
0.19282
0.191842
0.190895
0.189977
0.189087
0.188224
0.187388
0.186576
0.185788
0.185024
0.184282
0.183562
0.182862
0.182183
0.181523
0.180883
0.18026
0.179655
0.179068
0.178497
0.177942
0.177403
0.176879
0.17637
0.175876
0.175396
0.17493
0.199395
0.198208
0.197059
0.195947
0.194871
0.193829
0.19282
0.191842
0.190895
0.189977
0.189087
0.188224
0.187387
0.186575
0.185787
0.185023
0.184281
0.183561
0.182861
0.182182
0.181522
0.180882
0.180259
0.179654
0.179067
0.178496
0.177941
0.177402
0.176878
0.176369
0.175874
0.175394
0.174928
0.199395
0.198208
0.197059
0.195947
0.194871
0.193829
0.19282
0.191842
0.190895
0.189976
0.189086
0.188223
0.187386
0.186574
0.185787
0.185022
0.18428
0.18356
0.18286
0.182181
0.181521
0.180881
0.180258
0.179653
0.179066
0.178494
0.17794
0.1774
0.176876
0.176367
0.175873
0.175392
0.174925
0.199395
0.198208
0.197059
0.195947
0.194871
0.193829
0.192819
0.191842
0.190894
0.189976
0.189086
0.188223
0.187386
0.186574
0.185786
0.185021
0.184279
0.183559
0.182859
0.18218
0.18152
0.18088
0.180257
0.179652
0.179064
0.178493
0.177938
0.177399
0.176875
0.176365
0.17587
0.175389
0.174922
0.199395
0.198208
0.197059
0.195947
0.194871
0.193829
0.192819
0.191841
0.190894
0.189976
0.189086
0.188222
0.187385
0.186573
0.185785
0.185021
0.184279
0.183558
0.182859
0.182179
0.18152
0.180879
0.180256
0.179651
0.179063
0.178492
0.177937
0.177397
0.176873
0.176363
0.175868
0.175387
0.174919
0.199395
0.198208
0.197059
0.195947
0.194871
0.193829
0.192819
0.191841
0.190894
0.189975
0.189085
0.188222
0.187385
0.186573
0.185785
0.18502
0.184278
0.183558
0.182858
0.182179
0.181519
0.180878
0.180255
0.17965
0.179062
0.17849
0.177935
0.177395
0.176871
0.176361
0.175865
0.175383
0.174915
0.199395
0.198208
0.197059
0.195947
0.194871
0.193828
0.192819
0.191841
0.190894
0.189975
0.189085
0.188222
0.187385
0.186573
0.185785
0.18502
0.184278
0.183557
0.182857
0.182178
0.181518
0.180877
0.180254
0.179649
0.179061
0.178489
0.177933
0.177393
0.176868
0.176358
0.175862
0.17538
0.174911
0.199395
0.198208
0.197059
0.195947
0.194871
0.193828
0.192819
0.191841
0.190893
0.189975
0.189085
0.188222
0.187384
0.186572
0.185784
0.185019
0.184277
0.183556
0.182857
0.182177
0.181517
0.180876
0.180253
0.179648
0.179059
0.178487
0.177932
0.177391
0.176866
0.176355
0.175859
0.175376
0.174907
0.199395
0.198208
0.197059
0.195947
0.194871
0.193828
0.192819
0.191841
0.190894
0.189975
0.189085
0.188222
0.187384
0.186572
0.185784
0.185019
0.184277
0.183556
0.182856
0.182177
0.181517
0.180875
0.180252
0.179647
0.179058
0.178486
0.17793
0.177389
0.176864
0.176353
0.175856
0.175373
0.174903
0.199395
0.198208
0.197059
0.195947
0.194871
0.193828
0.192819
0.191841
0.190893
0.189975
0.189085
0.188221
0.187384
0.186572
0.185784
0.185019
0.184276
0.183556
0.182856
0.182176
0.181516
0.180874
0.180251
0.179645
0.179057
0.178484
0.177928
0.177387
0.176861
0.17635
0.175853
0.175369
0.174898
0.199395
0.198208
0.197059
0.195947
0.194871
0.193829
0.192819
0.191841
0.190894
0.189975
0.189085
0.188222
0.187385
0.186572
0.185784
0.185019
0.184277
0.183556
0.182856
0.182176
0.181516
0.180874
0.180251
0.179645
0.179056
0.178483
0.177927
0.177386
0.176859
0.176348
0.17585
0.175366
0.174895
0.199395
0.198208
0.197059
0.195947
0.194871
0.193828
0.192819
0.191841
0.190893
0.189975
0.189085
0.188221
0.187384
0.186572
0.185784
0.185019
0.184277
0.183556
0.182856
0.182176
0.181515
0.180874
0.18025
0.179644
0.179055
0.178482
0.177926
0.177384
0.176858
0.176345
0.175847
0.175363
0.174891
0.199395
0.198208
0.197059
0.195948
0.194871
0.19383
0.19282
0.191843
0.190896
0.189977
0.189087
0.188224
0.187387
0.186575
0.185787
0.185022
0.184279
0.183558
0.182858
0.182178
0.181517
0.180876
0.180252
0.179646
0.179056
0.178483
0.177926
0.177384
0.176857
0.176345
0.175846
0.175361
0.174889
0.199395
0.198209
0.19706
0.195949
0.194872
0.19383
0.192821
0.191843
0.190896
0.189978
0.189088
0.188225
0.187388
0.186576
0.185788
0.185023
0.18428
0.18356
0.18286
0.18218
0.181519
0.180877
0.180253
0.179646
0.179057
0.178483
0.177926
0.177383
0.176855
0.176342
0.175843
0.175356
0.174883
0.199395
0.198208
0.197061
0.19595
0.194876
0.193835
0.192828
0.191851
0.190905
0.189987
0.189098
0.188235
0.187398
0.186586
0.185798
0.185032
0.184289
0.183568
0.182867
0.182186
0.181524
0.180881
0.180256
0.179648
0.179056
0.178481
0.177922
0.177377
0.176847
0.176331
0.175829
0.17534
0.174863
0.199395
0.198212
0.197066
0.195957
0.194882
0.193842
0.192834
0.191857
0.190911
0.189994
0.189104
0.188241
0.187404
0.186591
0.185802
0.185036
0.184291
0.183567
0.182864
0.18218
0.181514
0.180867
0.180237
0.179624
0.179027
0.178446
0.17788
0.177329
0.176792
0.176269
0.175759
0.175262
0.174777
0.199396
0.198213
0.197071
0.195969
0.194902
0.193869
0.192866
0.191893
0.190948
0.19003
0.189137
0.18827
0.187427
0.186607
0.185809
0.185033
0.184278
0.183542
0.182826
0.182128
0.181448
0.180785
0.180139
0.17951
0.178896
0.178297
0.177713
0.177144
0.176588
0.176046
0.175516
0.175
0.174495
0.199402
0.19824
0.197114
0.196018
0.194952
0.193916
0.192908
0.191927
0.190972
0.19004
0.189132
0.188245
0.187381
0.186537
0.185713
0.184909
0.184124
0.183358
0.182611
0.18188
0.181168
0.180472
0.179792
0.179128
0.17848
0.177846
0.177227
0.176622
0.176031
0.175453
0.174888
0.174336
0.173796
0.199421
0.198284
0.197214
0.196182
0.195158
0.194136
0.193119
0.192111
0.191118
0.190143
0.189189
0.188257
0.187349
0.186463
0.185601
0.184761
0.183942
0.183144
0.182367
0.181608
0.180869
0.180147
0.179442
0.178754
0.178082
0.177426
0.176785
0.176159
0.175547
0.17495
0.174365
0.173794
0.173236
0.199655
0.198884
0.198077
0.197302
0.196603
0.195975
0.195404
0.194879
0.194396
0.193949
0.193539
0.193164
0.192823
0.192515
0.192239
0.191994
0.191779
0.191592
0.191433
0.191299
0.191189
0.191104
0.19104
0.190998
0.190977
0.190975
0.190993
0.191029
0.191083
0.191155
0.191243
0.191349
0.191471
0.205419
0.216602
0.22766
0.238502
0.249093
0.259416
0.269459
0.279213
0.288668
0.29782
0.306663
0.315194
0.323414
0.331324
0.338925
0.346222
0.35322
0.359924
0.36634
0.372475
0.378338
0.383936
0.389277
0.39437
0.399224
0.403845
0.408245
0.41243
0.416409
0.42019
0.423782
0.427192
0.43043
0.323075
0.642728
0.99897
1.35564
1.67415
1.92308
2.0878
2.1736
2.20199
2.19845
2.18232
2.16421
2.14848
2.13666
2.12961
2.12805
2.1324
2.14272
2.15813
2.17721
2.19797
2.21797
2.2343
2.24365
2.24236
2.22651
2.19197
2.13452
2.04997
1.93444
1.78482
1.59966
1.38064
1.13497
0.878454
0.637212
0.44305
0.318393
0.260275
0.244987
0.24967
0.261889
0.276124
0.289852
0.301834
0.311501
0.318703
0.323568
0.326382
0.3275
0.327284
0.326065
0.324128
0.321708
0.318996
0.316143
0.31327
0.310471
0.307824
0.305387
0.303206
0.301315
0.299734
0.298473
0.297527
0.296881
0.296506
0.296363
0.296396
0.296537
0.296698
0.296775
0.296648
0.296182
0.29523
0.293645
0.29128
0.287987
0.283626
0.278056
0.271146
0.262788
0.252919
0.24156
0.228845
0.215051
0.2006
0.186034
0.171958
0.158954
0.147494
0.137871
0.130159
0.12424
0.119855
0.116685
0.114421
0.112793
0.111669
0.110517
0.231357
0.261861
0.313546
0.393597
0.510471
0.668432
0.862674
1.07767
1.29014
1.47729
1.6248
1.72993
1.79891
1.84193
1.86874
1.88658
1.89998
1.91106
1.92085
1.92939
1.93594
1.93903
1.93648
1.92551
1.90288
1.86507
1.8084
1.7293
1.62463
1.49217
1.33153
1.14537
0.941237
0.733261
0.54228
0.391174
0.294193
0.247515
0.233858
0.236713
0.246648
0.259179
0.272055
0.284002
0.294283
0.302535
0.308674
0.312814
0.31519
0.316094
0.315821
0.31465
0.31282
0.310536
0.307962
0.305234
0.30246
0.299728
0.297108
0.294657
0.292421
0.290435
0.288724
0.287304
0.286178
0.285343
0.284781
0.284464
0.284354
0.284394
0.284513
0.28462
0.284603
0.284335
0.283675
0.282472
0.280577
0.277839
0.274109
0.269243
0.263102
0.25557
0.246574
0.236114
0.224305
0.211395
0.197777
0.183963
0.170532
0.158051
0.14699
0.137645
0.130113
0.124296
0.119961
0.11681
0.114549
0.112918
0.111789
0.110629
0.192566
0.195148
0.200629
0.210718
0.227868
0.255526
0.298711
0.363842
0.456185
0.576059
0.717075
0.867683
1.01472
1.14703
1.25781
1.34497
1.41025
1.45618
1.4865
1.50489
1.51351
1.51291
1.50239
1.48044
1.44504
1.39399
1.32511
1.23666
1.12787
0.999727
0.855917
0.703832
0.555041
0.424095
0.324446
0.2621
0.23212
0.223269
0.22575
0.233849
0.244557
0.256132
0.267444
0.277729
0.28651
0.293545
0.298783
0.302322
0.304349
0.305096
0.304806
0.303708
0.302005
0.29987
0.297449
0.294861
0.292202
0.289554
0.286981
0.284537
0.282267
0.280207
0.278384
0.276817
0.275519
0.274492
0.273731
0.273221
0.272935
0.272833
0.272858
0.272936
0.272967
0.272834
0.272402
0.271525
0.270049
0.267821
0.264688
0.260501
0.255113
0.248401
0.240277
0.230726
0.219835
0.207823
0.195049
0.181994
0.169211
0.157249
0.146574
0.137495
0.130124
0.124393
0.120094
0.116951
0.114685
0.113045
0.111908
0.110734
0.178599
0.179117
0.179961
0.181358
0.18369
0.187593
0.194127
0.204645
0.220753
0.244782
0.279785
0.328409
0.391292
0.466272
0.54881
0.633192
0.713632
0.786219
0.847141
0.893707
0.924832
0.940521
0.941184
0.92716
0.898571
0.855447
0.798053
0.727344
0.645499
0.556431
0.466051
0.381919
0.311816
0.261194
0.230758
0.216595
0.213199
0.216255
0.223125
0.232178
0.242278
0.252555
0.262339
0.271135
0.278617
0.284617
0.289102
0.292146
0.293895
0.294532
0.294254
0.293247
0.291682
0.289706
0.287446
0.285008
0.282478
0.279929
0.277421
0.275006
0.272725
0.270613
0.2687
0.267007
0.265552
0.264343
0.263383
0.262669
0.262187
0.261911
0.261801
0.261797
0.261817
0.261757
0.26149
0.260875
0.259761
0.257994
0.255415
0.251871
0.247211
0.241301
0.234042
0.225396
0.215426
0.204319
0.192397
0.180106
0.167971
0.156524
0.146229
0.137402
0.130181
0.124523
0.120249
0.117105
0.114827
0.113173
0.112024
0.110833
0.17346
0.173301
0.173279
0.173446
0.173847
0.174579
0.175839
0.177867
0.180908
0.18533
0.19162
0.200356
0.212263
0.228107
0.248359
0.272854
0.30051
0.330061
0.36024
0.388896
0.413577
0.431995
0.442356
0.44355
0.435219
0.417772
0.392379
0.360994
0.326331
0.291681
0.26046
0.235455
0.21805
0.207985
0.203923
0.204342
0.20803
0.214081
0.221758
0.230417
0.239476
0.248418
0.25681
0.264313
0.270694
0.275829
0.279691
0.282333
0.283865
0.28443
0.284183
0.283278
0.281855
0.280043
0.277948
0.275665
0.273271
0.270834
0.268407
0.266038
0.263768
0.261629
0.25965
0.257856
0.256265
0.254891
0.253744
0.252828
0.252142
0.251672
0.251394
0.251267
0.251224
0.251177
0.251012
0.250596
0.249783
0.248419
0.246344
0.2434
0.239432
0.234296
0.227881
0.220129
0.211074
0.200869
0.1898
0.178274
0.166788
0.155855
0.145932
0.137351
0.130271
0.124678
0.12042
0.117268
0.114973
0.1133
0.112137
0.110927
0.172237
0.171794
0.171418
0.171123
0.170923
0.170843
0.170935
0.171278
0.171966
0.173101
0.174742
0.176904
0.179631
0.183038
0.187264
0.192416
0.19852
0.205299
0.212253
0.219056
0.225291
0.230429
0.23391
0.235259
0.234209
0.230797
0.225401
0.218705
0.211595
0.204992
0.199664
0.196107
0.194527
0.194923
0.197179
0.201112
0.20648
0.212996
0.220334
0.228144
0.236069
0.243771
0.250947
0.257355
0.262821
0.267245
0.2706
0.27292
0.274286
0.274808
0.274607
0.273808
0.27253
0.270878
0.268948
0.266822
0.26457
0.262251
0.259917
0.257611
0.25537
0.253226
0.251208
0.249338
0.247637
0.246122
0.244807
0.243702
0.242814
0.242143
0.241678
0.241395
0.241245
0.241158
0.241036
0.240757
0.240182
0.239159
0.23753
0.235135
0.231814
0.227415
0.221813
0.214931
0.206776
0.197464
0.187241
0.176479
0.16564
0.155218
0.145667
0.137327
0.130382
0.124847
0.1206
0.117435
0.115119
0.113425
0.112246
0.111015
0.172392
0.171812
0.171269
0.170779
0.170349
0.169987
0.169708
0.169529
0.169482
0.169615
0.169976
0.170598
0.171481
0.172606
0.173951
0.175505
0.177292
0.179191
0.181074
0.182856
0.184462
0.185809
0.186818
0.187428
0.187614
0.187413
0.186928
0.186325
0.185811
0.185614
0.185945
0.186988
0.188876
0.19169
0.195454
0.20013
0.205619
0.211772
0.218391
0.225249
0.232103
0.238713
0.24486
0.25036
0.255075
0.258921
0.261868
0.263934
0.265177
0.265678
0.265533
0.264842
0.263704
0.26221
0.260441
0.258469
0.256359
0.254163
0.25193
0.249698
0.247503
0.245375
0.24334
0.241421
0.239638
0.238008
0.23655
0.235276
0.234201
0.233332
0.232674
0.232214
0.231926
0.231755
0.231621
0.231419
0.231018
0.230274
0.229031
0.227126
0.224398
0.220688
0.215859
0.209814
0.202533
0.194095
0.184708
0.174702
0.164507
0.154595
0.145413
0.137314
0.130502
0.125022
0.120783
0.117602
0.115262
0.113545
0.112348
0.111095
0.172928
0.172298
0.17169
0.171114
0.170578
0.170092
0.169663
0.169299
0.16901
0.16881
0.168717
0.168755
0.168942
0.169282
0.169767
0.170376
0.171095
0.171876
0.172676
0.173464
0.174218
0.174924
0.175577
0.176178
0.176746
0.177314
0.177935
0.178681
0.179639
0.180906
0.182579
0.184747
0.18748
0.190826
0.194796
0.199365
0.204468
0.21
0.215824
0.221778
0.227686
0.233371
0.238664
0.24342
0.247525
0.250905
0.253526
0.255394
0.256546
0.257043
0.256959
0.256375
0.255373
0.254029
0.252415
0.250594
0.248624
0.246553
0.244424
0.242276
0.24014
0.238044
0.236013
0.234068
0.23223
0.230515
0.228941
0.227525
0.226284
0.225233
0.224384
0.223742
0.223293
0.223005
0.222815
0.222636
0.22235
0.221821
0.220898
0.219421
0.217226
0.214149
0.210043
0.204792
0.198349
0.190759
0.182188
0.172927
0.16337
0.153966
0.145155
0.137297
0.130619
0.125195
0.120963
0.117764
0.115399
0.113658
0.112443
0.111167
0.17346
0.172821
0.172196
0.171593
0.17102
0.170484
0.169994
0.169556
0.169176
0.16886
0.168615
0.16845
0.168373
0.168396
0.168521
0.168748
0.16907
0.16947
0.169931
0.17044
0.170988
0.171571
0.172194
0.172868
0.173611
0.174451
0.175425
0.176578
0.177964
0.179638
0.181657
0.184069
0.186915
0.190217
0.193976
0.198167
0.20274
0.207616
0.212694
0.217853
0.22296
0.227878
0.232471
0.236623
0.240234
0.243238
0.245598
0.24731
0.248396
0.248901
0.24888
0.2484
0.247526
0.246325
0.244858
0.243182
0.241348
0.2394
0.23738
0.23532
0.233252
0.231202
0.229192
0.227243
0.225374
0.223601
0.221941
0.220412
0.219031
0.217819
0.216796
0.215974
0.215357
0.21493
0.21465
0.214447
0.214221
0.213846
0.21318
0.212065
0.210338
0.207832
0.204389
0.199881
0.194232
0.187455
0.179675
0.171142
0.162214
0.153316
0.144878
0.137265
0.130724
0.125358
0.121134
0.117918
0.115527
0.113762
0.112527
0.111229
0.173864
0.173234
0.172614
0.17201
0.171427
0.170875
0.17036
0.169889
0.169468
0.169104
0.1688
0.16856
0.168389
0.168292
0.168274
0.168338
0.168486
0.168715
0.169023
0.169407
0.169864
0.170397
0.17101
0.171714
0.172523
0.173457
0.174544
0.175815
0.177306
0.179053
0.181093
0.183455
0.186164
0.18923
0.192649
0.1964
0.200442
0.204715
0.209142
0.213629
0.218072
0.222359
0.226383
0.230042
0.233252
0.235951
0.2381
0.239688
0.240726
0.241245
0.241287
0.240904
0.240151
0.239083
0.237755
0.236217
0.234513
0.232687
0.230774
0.228806
0.226813
0.224818
0.222844
0.220908
0.21903
0.217223
0.215505
0.213891
0.212401
0.211056
0.209879
0.208892
0.20811
0.207534
0.207141
0.206879
0.206666
0.20639
0.205918
0.205099
0.203772
0.201769
0.198926
0.1951
0.190193
0.184185
0.177164
0.169337
0.161027
0.152631
0.144567
0.137204
0.130806
0.125504
0.121291
0.118058
0.115643
0.113853
0.112599
0.111279
0.174126
0.173511
0.172902
0.172305
0.171726
0.17117
0.170646
0.17016
0.169718
0.169325
0.168988
0.168708
0.168491
0.168338
0.168254
0.168242
0.168305
0.168446
0.168668
0.168973
0.169365
0.169847
0.170427
0.171112
0.171915
0.17285
0.173937
0.175198
0.176659
0.178344
0.180279
0.182483
0.184971
0.187749
0.190811
0.19414
0.197704
0.201454
0.205331
0.209259
0.213154
0.216925
0.220482
0.223738
0.226619
0.229066
0.231041
0.232528
0.233529
0.234064
0.234165
0.233872
0.23323
0.232287
0.231088
0.22968
0.228101
0.226392
0.224585
0.222711
0.220796
0.218864
0.216935
0.215028
0.213157
0.211339
0.209587
0.207916
0.206346
0.204896
0.203592
0.202461
0.201527
0.200804
0.200286
0.19994
0.199703
0.199478
0.199143
0.198556
0.197561
0.195991
0.193679
0.190469
0.186245
0.180957
0.174656
0.167509
0.159801
0.151902
0.144213
0.137105
0.130858
0.125625
0.121428
0.118183
0.115744
0.11393
0.112658
0.111317
0.174278
0.173673
0.173075
0.172486
0.171912
0.171358
0.17083
0.170334
0.169876
0.169463
0.169098
0.168787
0.168534
0.16834
0.168211
0.168148
0.168155
0.168236
0.168395
0.168637
0.168966
0.169389
0.169913
0.170546
0.171297
0.172179
0.173206
0.174394
0.175762
0.177328
0.179109
0.18112
0.18337
0.185862
0.188591
0.191543
0.194691
0.197997
0.201413
0.204876
0.208318
0.211663
0.214833
0.217754
0.220359
0.222594
0.224423
0.225824
0.226794
0.227344
0.227498
0.227286
0.226746
0.225917
0.224839
0.223552
0.222092
0.220495
0.218791
0.21701
0.215176
0.213312
0.211436
0.209567
0.207719
0.205906
0.204141
0.202438
0.200814
0.199288
0.197885
0.196636
0.195569
0.194709
0.194066
0.193623
0.193334
0.193121
0.192874
0.192461
0.191732
0.190525
0.188672
0.186009
0.182403
0.17778
0.172154
0.165656
0.158531
0.15112
0.143808
0.136961
0.130873
0.125717
0.121542
0.118289
0.115829
0.113992
0.112701
0.11134
0.174355
0.173758
0.173167
0.172583
0.172012
0.171458
0.170926
0.170422
0.16995
0.169517
0.169128
0.168787
0.168498
0.168266
0.168093
0.167983
0.16794
0.167966
0.168067
0.168247
0.168512
0.168868
0.169322
0.169882
0.170556
0.171356
0.172291
0.173375
0.174622
0.176045
0.177658
0.17947
0.181489
0.183715
0.186146
0.188767
0.191558
0.194487
0.197514
0.200588
0.20365
0.206636
0.20948
0.212117
0.214486
0.216539
0.21824
0.219565
0.220506
0.221069
0.221268
0.221129
0.22068
0.219954
0.218987
0.217813
0.216464
0.214974
0.21337
0.21168
0.209928
0.208134
0.206317
0.204494
0.202679
0.200885
0.199124
0.197409
0.195755
0.194179
0.192706
0.191364
0.190188
0.189209
0.188448
0.187904
0.187549
0.187318
0.187118
0.186827
0.186304
0.185393
0.183927
0.181739
0.178684
0.174665
0.169666
0.16378
0.157216
0.150283
0.143345
0.136766
0.130845
0.125775
0.121631
0.118374
0.115895
0.114037
0.112728
0.111348
0.17439
0.173797
0.173209
0.172628
0.172058
0.171502
0.170964
0.17045
0.169965
0.169513
0.169099
0.168729
0.168405
0.168133
0.167916
0.167758
0.167662
0.167632
0.167674
0.16779
0.167987
0.168271
0.168648
0.169125
0.169711
0.170414
0.171243
0.172211
0.173326
0.1746
0.176044
0.177664
0.179467
0.181452
0.183616
0.185947
0.188429
0.191034
0.193729
0.196469
0.199207
0.201887
0.20445
0.20684
0.209004
0.210896
0.212481
0.213736
0.214648
0.215219
0.215456
0.21538
0.215011
0.21438
0.213513
0.212443
0.211199
0.209809
0.208301
0.2067
0.205028
0.203306
0.201551
0.199779
0.198005
0.19624
0.194497
0.192786
0.191121
0.189518
0.187998
0.186591
0.18533
0.184253
0.183388
0.182748
0.182319
0.182052
0.181868
0.181656
0.181286
0.180608
0.179461
0.177678
0.175105
0.171628
0.167202
0.161888
0.155859
0.14939
0.142824
0.136517
0.130771
0.125798
0.121691
0.118436
0.115943
0.114064
0.112739
0.111341
0.174404
0.173813
0.173226
0.172645
0.172073
0.171513
0.170969
0.170445
0.169945
0.169474
0.169037
0.168637
0.16828
0.167969
0.167708
0.167501
0.167352
0.167266
0.167246
0.167296
0.167423
0.167632
0.167928
0.168319
0.168812
0.169414
0.170135
0.170982
0.171964
0.173092
0.174373
0.175812
0.177415
0.179181
0.181106
0.183181
0.185392
0.187714
0.190119
0.192571
0.195026
0.197437
0.199754
0.201927
0.203907
0.205653
0.207132
0.208319
0.209201
0.209774
0.210042
0.210018
0.209721
0.209172
0.208397
0.207423
0.206275
0.20498
0.203563
0.202047
0.200454
0.198803
0.197112
0.195395
0.193667
0.191939
0.190223
0.188529
0.186869
0.185256
0.183711
0.182261
0.18094
0.179785
0.178834
0.178109
0.177607
0.177295
0.177106
0.17694
0.176678
0.176179
0.175287
0.17384
0.171681
0.168681
0.164774
0.159989
0.154463
0.148442
0.142245
0.136212
0.13065
0.125782
0.121721
0.118475
0.115971
0.114076
0.112735
0.111319
0.174408
0.173817
0.17323
0.172647
0.172073
0.171508
0.170957
0.170423
0.169909
0.169421
0.168961
0.168534
0.168145
0.167796
0.167493
0.16724
0.16704
0.166897
0.166816
0.166801
0.166858
0.166992
0.167208
0.167512
0.167912
0.168414
0.169025
0.169754
0.170609
0.171596
0.172722
0.173993
0.175411
0.176978
0.178688
0.180534
0.182502
0.184574
0.186723
0.188919
0.191124
0.193297
0.195394
0.19737
0.199183
0.200795
0.202174
0.203295
0.204144
0.204713
0.205004
0.205024
0.204788
0.204313
0.20362
0.202732
0.201673
0.200467
0.199136
0.197701
0.196185
0.194604
0.192976
0.191317
0.189638
0.187952
0.18627
0.184602
0.182958
0.18135
0.179798
0.178324
0.176963
0.175753
0.174734
0.173937
0.173369
0.17301
0.172802
0.172659
0.17247
0.172102
0.17141
0.170237
0.168426
0.16584
0.162396
0.158094
0.15304
0.147447
0.141609
0.135852
0.130481
0.125728
0.121723
0.118492
0.115981
0.114071
0.112715
0.111283
0.174409
0.173817
0.173229
0.172644
0.172066
0.171497
0.170939
0.170395
0.169868
0.169363
0.168883
0.168432
0.168013
0.16763
0.167288
0.166991
0.166742
0.166546
0.166407
0.16633
0.166319
0.16638
0.166517
0.166738
0.167047
0.167452
0.167959
0.168575
0.169307
0.170161
0.171143
0.172257
0.173505
0.174889
0.176403
0.178042
0.179793
0.181639
0.183559
0.185525
0.187504
0.189462
0.19136
0.193157
0.194816
0.196303
0.197586
0.198642
0.199455
0.200016
0.200322
0.200377
0.200193
0.199782
0.199162
0.198353
0.197376
0.196251
0.195
0.193644
0.1922
0.190688
0.189124
0.187521
0.185894
0.184253
0.18261
0.180974
0.179354
0.177763
0.176215
0.174734
0.17335
0.172103
0.171034
0.17018
0.169556
0.169152
0.168921
0.168786
0.168643
0.16837
0.167831
0.166876
0.165351
0.163119
0.160081
0.156215
0.151598
0.146412
0.140923
0.135442
0.130267
0.125636
0.121694
0.118486
0.115974
0.114051
0.112682
0.111235
0.174407
0.173815
0.173225
0.172639
0.172057
0.171483
0.170918
0.170366
0.169828
0.169308
0.168809
0.168336
0.16789
0.167477
0.1671
0.166763
0.16647
0.166225
0.166032
0.165896
0.165821
0.165813
0.165877
0.166017
0.166241
0.166554
0.166961
0.16747
0.168086
0.168815
0.169662
0.170631
0.171723
0.172938
0.174274
0.175724
0.177276
0.178918
0.18063
0.182387
0.184162
0.185924
0.187639
0.189271
0.190787
0.192155
0.193346
0.194338
0.195112
0.195659
0.195974
0.196057
0.195916
0.195561
0.195006
0.194267
0.193364
0.192315
0.191139
0.189855
0.188482
0.187036
0.185533
0.183987
0.182412
0.180818
0.179217
0.177616
0.176027
0.174459
0.172927
0.17145
0.170058
0.168788
0.167685
0.166788
0.16612
0.165678
0.165423
0.165287
0.165173
0.164967
0.164541
0.163756
0.162465
0.16053
0.157844
0.154367
0.150151
0.145346
0.140194
0.134985
0.13001
0.125509
0.121639
0.118459
0.115951
0.114019
0.112637
0.111175
0.174406
0.173813
0.173221
0.172632
0.172048
0.171469
0.170898
0.170338
0.169789
0.169256
0.168742
0.168248
0.16778
0.16734
0.166931
0.166559
0.166225
0.165935
0.165693
0.165503
0.16537
0.165298
0.165292
0.165359
0.165502
0.165728
0.166043
0.166452
0.16696
0.167573
0.168294
0.169128
0.170075
0.171136
0.172307
0.173583
0.174955
0.17641
0.177931
0.179498
0.181086
0.182668
0.184214
0.185694
0.187076
0.188331
0.189434
0.190361
0.191095
0.191624
0.191941
0.192045
0.191939
0.191631
0.191133
0.190457
0.189621
0.188641
0.187534
0.186319
0.185011
0.183629
0.182185
0.180695
0.179172
0.177626
0.176068
0.174506
0.172951
0.171412
0.169901
0.168437
0.167048
0.165769
0.164644
0.163717
0.163015
0.162541
0.162267
0.162127
0.162031
0.161872
0.161531
0.160876
0.159771
0.158081
0.155697
0.152564
0.14871
0.144261
0.13943
0.134488
0.129714
0.125348
0.121557
0.118413
0.115913
0.113975
0.112583
0.111107
0.174403
0.173809
0.173216
0.172626
0.172038
0.171455
0.170879
0.170311
0.169754
0.169209
0.16868
0.16817
0.167681
0.167217
0.166781
0.166376
0.166007
0.165677
0.165391
0.165152
0.164965
0.164835
0.164766
0.164763
0.164833
0.164979
0.165207
0.165523
0.165931
0.166435
0.167041
0.167749
0.168563
0.169481
0.1705
0.171617
0.172823
0.174106
0.175453
0.176845
0.178261
0.179677
0.181067
0.182404
0.183661
0.184809
0.185826
0.186689
0.187381
0.187888
0.188202
0.18832
0.188243
0.187975
0.187526
0.186906
0.18613
0.185212
0.18417
0.183018
0.181772
0.180449
0.179063
0.177628
0.176155
0.174657
0.173143
0.171622
0.170103
0.168596
0.167112
0.165668
0.164288
0.163009
0.161873
0.160925
0.160199
0.159702
0.159411
0.159267
0.159185
0.159061
0.158782
0.158227
0.157269
0.15578
0.153651
0.150818