/*--------------------------------*- C++ -*----------------------------------*\
  =========                 |
  \\      /  F ield         | OpenFOAM: The Open Source CFD Toolbox
   \\    /   O peration     | Website:  https://openfoam.org
    \\  /    A nd           | Version:  10
     \\/     M anipulation  |
\*---------------------------------------------------------------------------*/
FoamFile
{
    format      ascii;
    class       volScalarField;
    location    "0.07";
    object      nut;
}
// * * * * * * * * * * * * * * * * * * * * * * * * * * * * * * * * * * * * * //

dimensions      [0 2 -1 0 0 0 0];

internalField   nonuniform List<scalar> 
6820
(
0.000149484
0.000144853
0.000140581
0.000136576
0.000132833
0.000129376
0.000126234
0.000123417
0.000120923
0.000118738
0.000116841
0.000115209
0.000113817
0.000112641
0.000111659
0.000110849
0.000110192
0.000109671
0.000109271
0.000108978
0.00010878
0.000108665
0.000108624
0.000108648
0.000108729
0.000108863
0.000109038
0.00010927
0.000109465
0.000110033
0.000109042
0.000115526
8.7099e-05
0.000729198
0.000532386
0.000448001
0.00039969
0.000368358
0.000346705
0.000331058
0.000319326
0.000310236
0.000302985
0.000297052
0.00029209
0.000287863
0.000284207
0.000281005
0.000278169
0.000275635
0.000273354
0.000271285
0.000269399
0.00026767
0.000266079
0.000264609
0.000263247
0.000261981
0.000260801
0.000259702
0.000258672
0.000257722
0.000256831
0.000256056
0.000255171
0.000256483
0.000976776
0.00087218
0.000781617
0.000711253
0.000657299
0.000615249
0.000581666
0.000554193
0.000531241
0.000511727
0.000494892
0.000480188
0.00046721
0.000455653
0.000445281
0.000435912
0.000427398
0.000419622
0.000412488
0.000405915
0.000399838
0.000394199
0.00038895
0.00038405
0.00037946
0.000375148
0.000371083
0.000367236
0.000363572
0.000360072
0.000356657
0.00035328
0.000349608
0.00101349
0.000988231
0.000949374
0.000906189
0.000864414
0.000826363
0.00079252
0.000762619
0.000736166
0.00071265
0.000691618
0.000672685
0.000655536
0.00063991
0.000625596
0.00061242
0.000600236
0.000588927
0.000578389
0.00056854
0.000559306
0.000550625
0.000542443
0.000534713
0.000527391
0.000520441
0.000513826
0.000507516
0.000501474
0.000495677
0.000490065
0.000484658
0.000479229
0.00101671
0.00101241
0.00100191
0.000985659
0.000965598
0.000943701
0.000921402
0.00089958
0.000878702
0.000858977
0.000840465
0.000823141
0.000806945
0.000791793
0.000777602
0.000764286
0.000751768
0.000739975
0.000728841
0.000718309
0.000708324
0.000698839
0.000689812
0.000681204
0.000672979
0.000665106
0.000657553
0.000650292
0.000643292
0.00063653
0.000629964
0.000623582
0.000617312
0.00101676
0.00101592
0.0010136
0.00100903
0.00100204
0.000992915
0.000982181
0.00097038
0.000957979
0.000945335
0.000932708
0.000920271
0.000908138
0.000896376
0.000885022
0.000874093
0.00086359
0.000853505
0.000843825
0.000834533
0.00082561
0.000817035
0.000808788
0.00080085
0.0007932
0.000785818
0.000778684
0.000771779
0.000765082
0.000758575
0.000752232
0.000746036
0.00073996
0.00101671
0.00101623
0.00101553
0.00101428
0.00101219
0.00100909
0.00100496
0.000999884
0.000994006
0.0009875
0.000980528
0.000973238
0.000965753
0.000958171
0.000950571
0.000943011
0.000935536
0.000928177
0.000920958
0.000913893
0.000906992
0.00090026
0.000893697
0.000887302
0.000881071
0.000875
0.000869081
0.000863305
0.000857665
0.000852149
0.000846745
0.000841442
0.000836229
0.0010167
0.00101622
0.00101574
0.00101518
0.00101442
0.00101335
0.00101188
0.00100995
0.00100755
0.0010047
0.00100143
0.000997804
0.000993878
0.000989708
0.000985348
0.000980846
0.000976244
0.000971578
0.000966878
0.000962169
0.000957471
0.0009528
0.000948168
0.000943585
0.000939056
0.000934588
0.000930182
0.00092584
0.00092156
0.000917341
0.00091318
0.000909073
0.000905017
0.0010167
0.00101621
0.00101575
0.00101528
0.0010148
0.00101425
0.00101359
0.00101278
0.00101179
0.00101059
0.00100917
0.00100752
0.00100567
0.00100363
0.0010014
0.000999022
0.000996508
0.00099388
0.000991157
0.000988359
0.000985502
0.000982599
0.000979665
0.000976709
0.00097374
0.000970768
0.000967797
0.000964832
0.000961879
0.000958938
0.000956013
0.000953104
0.000950214
0.0010167
0.00101621
0.00101574
0.00101529
0.00101484
0.00101439
0.00101393
0.00101344
0.0010129
0.00101229
0.0010116
0.00101081
0.00100993
0.00100894
0.00100785
0.00100666
0.00100537
0.00100399
0.00100253
0.001001
0.000999404
0.000997748
0.000996043
0.000994295
0.00099251
0.000990695
0.000988856
0.000986997
0.000985122
0.000983236
0.000981342
0.000979443
0.000977543
0.0010167
0.00101621
0.00101574
0.00101528
0.00101484
0.0010144
0.00101398
0.00101356
0.00101313
0.00101269
0.00101224
0.00101176
0.00101124
0.00101069
0.00101009
0.00100945
0.00100876
0.00100803
0.00100724
0.00100642
0.00100554
0.00100463
0.00100368
0.00100269
0.00100167
0.00100062
0.00099954
0.00099844
0.000997321
0.000996184
0.000995034
0.000993872
0.000992703
0.0010167
0.00101621
0.00101574
0.00101528
0.00101484
0.0010144
0.00101398
0.00101357
0.00101317
0.00101277
0.00101238
0.00101199
0.00101159
0.00101118
0.00101077
0.00101034
0.0010099
0.00100944
0.00100896
0.00100847
0.00100795
0.00100741
0.00100685
0.00100627
0.00100568
0.00100506
0.00100443
0.00100379
0.00100313
0.00100245
0.00100177
0.00100108
0.00100039
0.0010167
0.00101621
0.00101574
0.00101528
0.00101483
0.0010144
0.00101398
0.00101357
0.00101317
0.00101278
0.0010124
0.00101203
0.00101166
0.0010113
0.00101094
0.00101059
0.00101023
0.00100987
0.00100951
0.00100915
0.00100878
0.00100841
0.00100803
0.00100764
0.00100725
0.00100685
0.00100645
0.00100604
0.00100562
0.0010052
0.00100478
0.00100435
0.00100393
0.0010167
0.00101621
0.00101574
0.00101528
0.00101483
0.0010144
0.00101398
0.00101357
0.00101317
0.00101278
0.0010124
0.00101203
0.00101167
0.00101132
0.00101098
0.00101064
0.00101031
0.00100999
0.00100966
0.00100935
0.00100903
0.00100872
0.00100841
0.00100811
0.0010078
0.00100749
0.00100719
0.00100689
0.00100659
0.00100629
0.00100599
0.0010057
0.00100541
0.0010167
0.00101621
0.00101574
0.00101528
0.00101483
0.0010144
0.00101398
0.00101357
0.00101317
0.00101278
0.0010124
0.00101203
0.00101167
0.00101132
0.00101098
0.00101065
0.00101033
0.00101001
0.0010097
0.0010094
0.0010091
0.00100881
0.00100852
0.00100824
0.00100797
0.0010077
0.00100744
0.00100718
0.00100692
0.00100667
0.00100643
0.00100619
0.00100597
0.0010167
0.00101621
0.00101574
0.00101528
0.00101483
0.0010144
0.00101397
0.00101356
0.00101316
0.00101278
0.0010124
0.00101203
0.00101167
0.00101132
0.00101098
0.00101065
0.00101033
0.00101001
0.0010097
0.00100941
0.00100911
0.00100883
0.00100855
0.00100828
0.00100802
0.00100776
0.00100751
0.00100726
0.00100703
0.0010068
0.00100657
0.00100636
0.00100616
0.0010167
0.00101621
0.00101574
0.00101528
0.00101483
0.0010144
0.00101397
0.00101356
0.00101316
0.00101277
0.00101239
0.00101203
0.00101167
0.00101132
0.00101098
0.00101065
0.00101032
0.00101001
0.0010097
0.00100941
0.00100911
0.00100883
0.00100856
0.00100829
0.00100803
0.00100777
0.00100753
0.00100729
0.00100706
0.00100683
0.00100662
0.00100641
0.00100621
0.0010167
0.00101621
0.00101574
0.00101528
0.00101483
0.0010144
0.00101397
0.00101356
0.00101316
0.00101277
0.00101239
0.00101202
0.00101167
0.00101132
0.00101098
0.00101064
0.00101032
0.00101001
0.0010097
0.0010094
0.00100911
0.00100883
0.00100856
0.00100829
0.00100803
0.00100778
0.00100753
0.00100729
0.00100706
0.00100684
0.00100663
0.00100642
0.00100623
0.0010167
0.00101621
0.00101574
0.00101528
0.00101483
0.00101439
0.00101397
0.00101356
0.00101316
0.00101277
0.00101239
0.00101202
0.00101166
0.00101131
0.00101097
0.00101064
0.00101032
0.00101001
0.0010097
0.0010094
0.00100911
0.00100883
0.00100855
0.00100829
0.00100803
0.00100778
0.00100753
0.00100729
0.00100706
0.00100684
0.00100663
0.00100643
0.00100623
0.0010167
0.00101621
0.00101574
0.00101528
0.00101483
0.00101439
0.00101397
0.00101356
0.00101316
0.00101277
0.00101239
0.00101202
0.00101166
0.00101131
0.00101097
0.00101064
0.00101032
0.00101
0.0010097
0.0010094
0.00100911
0.00100883
0.00100855
0.00100829
0.00100803
0.00100778
0.00100753
0.00100729
0.00100706
0.00100684
0.00100663
0.00100642
0.00100623
0.0010167
0.00101621
0.00101574
0.00101528
0.00101483
0.00101439
0.00101397
0.00101356
0.00101316
0.00101277
0.00101239
0.00101202
0.00101166
0.00101131
0.00101097
0.00101064
0.00101032
0.00101
0.0010097
0.0010094
0.00100911
0.00100883
0.00100855
0.00100829
0.00100803
0.00100777
0.00100753
0.00100729
0.00100706
0.00100684
0.00100663
0.00100642
0.00100622
0.0010167
0.00101621
0.00101574
0.00101528
0.00101483
0.00101439
0.00101397
0.00101356
0.00101316
0.00101277
0.00101239
0.00101202
0.00101166
0.00101131
0.00101097
0.00101064
0.00101032
0.00101
0.0010097
0.0010094
0.00100911
0.00100883
0.00100855
0.00100828
0.00100802
0.00100777
0.00100753
0.00100729
0.00100706
0.00100684
0.00100662
0.00100642
0.00100622
0.0010167
0.00101621
0.00101574
0.00101528
0.00101483
0.00101439
0.00101397
0.00101356
0.00101316
0.00101277
0.00101239
0.00101202
0.00101166
0.00101131
0.00101097
0.00101064
0.00101031
0.00101
0.00100969
0.0010094
0.00100911
0.00100882
0.00100855
0.00100828
0.00100802
0.00100777
0.00100753
0.00100729
0.00100706
0.00100683
0.00100662
0.00100641
0.00100621
0.0010167
0.00101621
0.00101574
0.00101528
0.00101483
0.00101439
0.00101397
0.00101356
0.00101316
0.00101277
0.00101239
0.00101202
0.00101166
0.00101131
0.00101097
0.00101064
0.00101031
0.00101
0.00100969
0.0010094
0.00100911
0.00100882
0.00100855
0.00100828
0.00100802
0.00100777
0.00100752
0.00100729
0.00100705
0.00100683
0.00100661
0.0010064
0.0010062
0.0010167
0.00101621
0.00101574
0.00101528
0.00101483
0.00101439
0.00101397
0.00101356
0.00101316
0.00101277
0.00101239
0.00101202
0.00101166
0.00101131
0.00101097
0.00101064
0.00101031
0.00101
0.00100969
0.00100939
0.0010091
0.00100882
0.00100855
0.00100828
0.00100802
0.00100777
0.00100752
0.00100728
0.00100705
0.00100683
0.00100661
0.0010064
0.00100619
0.0010167
0.00101621
0.00101574
0.00101528
0.00101483
0.00101439
0.00101397
0.00101356
0.00101316
0.00101277
0.00101239
0.00101202
0.00101166
0.00101131
0.00101097
0.00101064
0.00101031
0.00101
0.00100969
0.00100939
0.0010091
0.00100882
0.00100854
0.00100828
0.00100802
0.00100776
0.00100752
0.00100728
0.00100705
0.00100682
0.0010066
0.00100639
0.00100619
0.0010167
0.00101621
0.00101574
0.00101528
0.00101483
0.00101439
0.00101397
0.00101356
0.00101316
0.00101277
0.00101239
0.00101202
0.00101166
0.00101131
0.00101097
0.00101063
0.00101031
0.00101
0.00100969
0.00100939
0.0010091
0.00100882
0.00100854
0.00100828
0.00100801
0.00100776
0.00100751
0.00100727
0.00100704
0.00100681
0.00100659
0.00100638
0.00100618
0.0010167
0.00101621
0.00101574
0.00101528
0.00101483
0.00101439
0.00101397
0.00101356
0.00101316
0.00101277
0.00101239
0.00101202
0.00101166
0.00101131
0.00101097
0.00101063
0.00101031
0.00101
0.00100969
0.00100939
0.0010091
0.00100882
0.00100854
0.00100827
0.00100801
0.00100776
0.00100751
0.00100727
0.00100704
0.00100681
0.00100659
0.00100637
0.00100617
0.0010167
0.00101621
0.00101574
0.00101528
0.00101483
0.00101439
0.00101397
0.00101356
0.00101316
0.00101277
0.00101239
0.00101202
0.00101166
0.00101131
0.00101097
0.00101063
0.00101031
0.00101
0.00100969
0.00100939
0.0010091
0.00100882
0.00100854
0.00100827
0.00100801
0.00100776
0.00100751
0.00100727
0.00100703
0.0010068
0.00100658
0.00100637
0.00100616
0.0010167
0.00101621
0.00101574
0.00101528
0.00101483
0.00101439
0.00101397
0.00101356
0.00101316
0.00101277
0.00101239
0.00101202
0.00101166
0.00101131
0.00101097
0.00101064
0.00101031
0.00101
0.00100969
0.00100939
0.0010091
0.00100882
0.00100854
0.00100827
0.00100801
0.00100775
0.0010075
0.00100726
0.00100703
0.0010068
0.00100658
0.00100636
0.00100615
0.0010167
0.00101621
0.00101574
0.00101528
0.00101483
0.00101439
0.00101397
0.00101356
0.00101316
0.00101277
0.00101239
0.00101202
0.00101166
0.00101131
0.00101097
0.00101064
0.00101031
0.00101
0.00100969
0.00100939
0.0010091
0.00100882
0.00100854
0.00100827
0.00100801
0.00100775
0.0010075
0.00100726
0.00100702
0.00100679
0.00100656
0.00100635
0.00100613
0.0010167
0.00101621
0.00101574
0.00101528
0.00101483
0.0010144
0.00101397
0.00101356
0.00101316
0.00101277
0.0010124
0.00101203
0.00101167
0.00101132
0.00101097
0.00101064
0.00101032
0.00101
0.00100969
0.00100939
0.0010091
0.00100881
0.00100853
0.00100826
0.001008
0.00100773
0.00100748
0.00100723
0.00100699
0.00100675
0.00100652
0.00100629
0.00100607
0.0010167
0.00101621
0.00101574
0.00101528
0.00101483
0.0010144
0.00101398
0.00101357
0.00101317
0.00101278
0.0010124
0.00101203
0.00101167
0.00101132
0.00101097
0.00101064
0.00101031
0.00100999
0.00100967
0.00100936
0.00100906
0.00100876
0.00100846
0.00100818
0.00100789
0.00100761
0.00100733
0.00100706
0.00100679
0.00100653
0.00100626
0.001006
0.00100575
0.0010167
0.00101621
0.00101574
0.00101529
0.00101484
0.00101441
0.001014
0.00101358
0.00101318
0.00101279
0.0010124
0.00101202
0.00101164
0.00101127
0.0010109
0.00101053
0.00101016
0.00100979
0.00100943
0.00100906
0.00100869
0.00100832
0.00100795
0.00100758
0.0010072
0.00100682
0.00100644
0.00100606
0.00100567
0.00100528
0.00100489
0.0010045
0.00100411
0.0010167
0.00101622
0.00101575
0.0010153
0.00101485
0.00101441
0.00101397
0.00101352
0.00101307
0.00101262
0.00101214
0.00101166
0.00101115
0.00101062
0.00101008
0.00100951
0.00100891
0.00100829
0.00100765
0.00100699
0.0010063
0.00100559
0.00100486
0.00100411
0.00100334
0.00100256
0.00100176
0.00100094
0.00100011
0.000999275
0.000998426
0.000997567
0.000996702
0.00101671
0.00101622
0.00101574
0.00101524
0.00101469
0.00101407
0.00101337
0.00101257
0.00101167
0.00101066
0.00100953
0.0010083
0.00100696
0.00100552
0.00100398
0.00100235
0.00100063
0.000998839
0.000996976
0.000995053
0.000993076
0.000991052
0.000988989
0.000986894
0.000984773
0.000982631
0.000980475
0.00097831
0.000976139
0.000973969
0.000971801
0.000969641
0.000967492
0.00101671
0.001016
0.00101487
0.00101325
0.00101112
0.00100846
0.00100531
0.00100167
0.000997601
0.000993145
0.000988356
0.000983289
0.000977994
0.00097252
0.000966911
0.000961205
0.000955439
0.000949642
0.00094384
0.000938057
0.000932311
0.000926621
0.000920998
0.000915455
0.000910002
0.000904646
0.000899394
0.00089425
0.00088922
0.000884305
0.000879508
0.000874831
0.000870274
0.0010153
0.00100705
0.000995493
0.000981382
0.000965344
0.000947991
0.000929882
0.000911466
0.000893077
0.000874953
0.000857261
0.00084011
0.000823565
0.000807664
0.000792422
0.000777837
0.0007639
0.000750591
0.000737889
0.00072577
0.000714206
0.000703172
0.000692641
0.000682587
0.000672985
0.000663812
0.000655045
0.000646661
0.000638641
0.000630964
0.000623613
0.000616569
0.000609816
0.000935927
0.000815562
0.000728206
0.000659329
0.000602504
0.000555308
0.000515842
0.000482521
0.000454095
0.0004296
0.000408293
0.000389604
0.000373086
0.00035839
0.000345237
0.000333402
0.000322704
0.000312991
0.000304139
0.000296044
0.000288618
0.000281784
0.000275479
0.000269647
0.000264239
0.000259214
0.000254536
0.00025017
0.000246089
0.000242268
0.000238684
0.000235317
0.000232147
0.000125477
0.000128847
0.000132095
0.000135204
0.000138173
0.000141007
0.000143711
0.000146289
0.000148745
0.000151085
0.000153311
0.000155429
0.000157443
0.000159357
0.000161174
0.0001629
0.000164538
0.000166092
0.000167566
0.000168964
0.000170288
0.000171543
0.000172732
0.000173859
0.000174925
0.000175935
0.000176891
0.000177795
0.000178651
0.00017946
0.000180226
0.000180949
0.000181634
0.000107326
0.000152818
0.000203946
0.000259336
0.000315712
0.00036937
0.000418349
0.000463465
0.00050778
0.000554692
0.000606191
0.000662408
0.000722338
0.000784829
0.000849118
0.000914795
0.000981561
0.00104887
0.0011161
0.0011823
0.00124622
0.0013063
0.00136072
0.00140737
0.00144401
0.00146834
0.00147805
0.0014709
0.00144478
0.00139778
0.00132833
0.00123548
0.00111958
0.0009838
0.000837033
0.000698826
0.000604485
0.000603783
0.000730116
0.000925149
0.00108999
0.00120913
0.00130152
0.0013774
0.00144006
0.00149093
0.00153129
0.0015626
0.0015864
0.00160418
0.00161729
0.0016269
0.00163399
0.00163935
0.00164365
0.00164741
0.00165109
0.00165503
0.00165954
0.00166485
0.00167114
0.00167852
0.00168707
0.00169677
0.00170758
0.00171939
0.00173207
0.00174547
0.00175937
0.00177354
0.00178764
0.00180122
0.00181366
0.00182418
0.0018318
0.00183543
0.00183391
0.00182609
0.00181097
0.00178774
0.00175594
0.00171547
0.0016667
0.0016105
0.00154825
0.00148187
0.00141366
0.00134619
0.00128196
0.0012231
0.00117108
0.00112657
0.00108962
0.00105985
0.00103663
0.00101911
0.00100631
0.000997112
0.000990799
0.000984612
0.000245965
0.000212677
0.000181419
0.000167941
0.000173733
0.000196581
0.000233518
0.000280764
0.000333795
0.000388424
0.000442031
0.00049398
0.000545047
0.0005964
0.000648805
0.000702369
0.000756711
0.000811261
0.000865403
0.000918469
0.000969633
0.00101775
0.00106129
0.00109841
0.00112703
0.00114493
0.00114988
0.00113966
0.00111225
0.00106602
0.0010001
0.000915173
0.000814769
0.000707701
0.000611419
0.000555045
0.00057661
0.00069657
0.000868999
0.00102275
0.00114123
0.00123554
0.00131372
0.00137907
0.00143313
0.00147706
0.00151205
0.00153936
0.00156027
0.001576
0.00158767
0.00159627
0.00160261
0.00160738
0.00161116
0.00161441
0.00161752
0.00162083
0.00162461
0.0016291
0.00163449
0.00164092
0.00164849
0.00165723
0.00166715
0.0016782
0.00169029
0.00170328
0.001717
0.00173123
0.00174565
0.00175979
0.00177305
0.00178462
0.00179353
0.00179868
0.0017989
0.00179304
0.00178008
0.00175924
0.00173
0.00169224
0.00164627
0.00159289
0.0015334
0.00146963
0.00140382
0.00133847
0.00127607
0.00121875
0.001168
0.00112457
0.00108851
0.00105945
0.00103673
0.00101953
0.00100688
0.000997754
0.000991464
0.000985306
0.000346893
0.00034514
0.000341208
0.000326649
0.000293578
0.000249603
0.000213512
0.000196716
0.000200393
0.00022146
0.000255887
0.000299492
0.000348277
0.000398895
0.000449044
0.000497552
0.00054413
0.000588829
0.000631976
0.000673628
0.000713276
0.000749927
0.000782279
0.000808832
0.000827931
0.000837803
0.000836641
0.000822779
0.00079498
0.00075292
0.000697957
0.000634346
0.000570983
0.000523449
0.00051498
0.000570498
0.000692537
0.000841798
0.00097697
0.00108818
0.00118006
0.00125733
0.00132273
0.00137785
0.00142375
0.00146132
0.00149152
0.00151531
0.00153371
0.00154769
0.00155817
0.00156593
0.00157168
0.00157599
0.00157936
0.0015822
0.00158486
0.00158764
0.00159079
0.00159453
0.00159907
0.00160455
0.0016111
0.00161879
0.00162768
0.00163776
0.00164898
0.00166128
0.00167451
0.00168848
0.00170289
0.00171732
0.00173116
0.00174361
0.0017537
0.00176031
0.00176227
0.00175843
0.00174776
0.00172945
0.00170295
0.00166811
0.00162516
0.00157481
0.00151829
0.00145733
0.00139407
0.00133096
0.00127047
0.00121472
0.00116527
0.00112289
0.00108768
0.00105926
0.00103698
0.00102003
0.0010075
0.000998405
0.00099211
0.000985947
0.000473308
0.000467982
0.000465843
0.000470218
0.000484094
0.000503175
0.000503746
0.000456796
0.000375213
0.000299472
0.000250836
0.000229505
0.000229232
0.000244044
0.000269299
0.000301324
0.000337144
0.000374266
0.000410589
0.000444681
0.000475666
0.000502941
0.000525902
0.00054379
0.000555685
0.000560616
0.000557777
0.000546854
0.000528499
0.00050501
0.000481254
0.000465754
0.00047135
0.000513112
0.000598965
0.000716846
0.000841211
0.000954877
0.00105343
0.00113794
0.00121058
0.00127319
0.00132704
0.00137299
0.0014117
0.00144375
0.00146981
0.0014906
0.00150688
0.0015194
0.00152888
0.00153599
0.00154128
0.00154526
0.00154833
0.00155087
0.00155318
0.00155552
0.00155814
0.00156123
0.00156498
0.00156956
0.00157511
0.00158172
0.00158949
0.00159845
0.00160861
0.00161995
0.00163238
0.00164577
0.00165987
0.00167427
0.00168842
0.00170152
0.00171261
0.00172059
0.00172426
0.00172246
0.00171416
0.00169851
0.00167493
0.0016432
0.00160348
0.00155639
0.00150305
0.00144508
0.00138454
0.00132381
0.0012653
0.00121117
0.00116299
0.00112161
0.00108716
0.00105931
0.0010374
0.00102065
0.00100818
0.000999074
0.000992745
0.000986541
0.000610088
0.00060197
0.000594312
0.000588268
0.000586399
0.000593109
0.000612982
0.000645967
0.000679777
0.000682579
0.000626012
0.000527513
0.000429287
0.000355251
0.000308371
0.000283387
0.00027435
0.00027618
0.000285136
0.000298562
0.000314298
0.000330562
0.000345963
0.000359519
0.000370692
0.000379461
0.000386474
0.000393325
0.00040293
0.000419889
0.00045037
0.000500604
0.000573276
0.000664079
0.000763362
0.000861838
0.000953717
0.00103649
0.00110986
0.00117463
0.0012318
0.00128218
0.00132631
0.00136455
0.00139721
0.00142462
0.00144721
0.00146548
0.00147999
0.0014913
0.00149999
0.00150658
0.00151154
0.00151528
0.00151816
0.00152049
0.00152253
0.00152454
0.00152672
0.00152925
0.00153232
0.00153609
0.00154068
0.00154624
0.00155286
0.00156062
0.00156958
0.00157976
0.00159115
0.00160366
0.00161712
0.00163117
0.00164531
0.0016588
0.00167068
0.00167986
0.00168515
0.00168537
0.00167946
0.00166655
0.00164602
0.00161755
0.00158124
0.0015376
0.00148763
0.00143284
0.00137518
0.00131695
0.00126051
0.00120802
0.00116111
0.00112069
0.00108695
0.00105958
0.00103797
0.00102136
0.00100892
0.000999767
0.000993378
0.0009871
0.000732972
0.000724952
0.000716781
0.000708513
0.000700522
0.000693934
0.000691084
0.000695387
0.000710112
0.000735068
0.00076253
0.000777262
0.000762763
0.000713034
0.000639279
0.000560986
0.000492072
0.000440261
0.0004061
0.000385128
0.000373933
0.000370223
0.00037249
0.000379833
0.000391921
0.000409002
0.000431912
0.000461979
0.000500727
0.000549322
0.000607872
0.000674978
0.000747883
0.000823131
0.000897377
0.000968065
0.00103375
0.00109397
0.00114885
0.00119873
0.00124392
0.00128464
0.00132096
0.00135294
0.00138066
0.00140427
0.00142401
0.0014402
0.00145326
0.0014636
0.00147166
0.00147786
0.00148258
0.00148616
0.00148892
0.00149111
0.00149298
0.00149474
0.00149657
0.00149865
0.00150114
0.00150418
0.00150792
0.00151249
0.001518
0.00152456
0.00153225
0.00154115
0.00155131
0.00156269
0.00157521
0.00158859
0.0016024
0.00161596
0.00162836
0.00163853
0.00164528
0.00164743
0.00164389
0.00163374
0.00161632
0.00159123
0.00155847
0.00151843
0.001472
0.00142055
0.00136592
0.00131031
0.00125603
0.00120524
0.0011596
0.00112009
0.001087
0.00106005
0.00103868
0.00102216
0.0010097
0.00100048
0.000994015
0.000987634
0.000830225
0.000823309
0.000816215
0.000808902
0.00080135
0.000793652
0.00078619
0.000779898
0.0007764
0.00077764
0.000784728
0.000796545
0.000808845
0.000814778
0.000807455
0.000783821
0.000744583
0.000700764
0.000660901
0.000628363
0.000604204
0.000588502
0.000581001
0.000581396
0.000589441
0.000604967
0.00062782
0.000657763
0.000694345
0.000736791
0.000783959
0.00083441
0.000886569
0.000938942
0.000990297
0.00103977
0.00108684
0.0011313
0.00117305
0.00121207
0.00124827
0.00128153
0.00131174
0.00133876
0.00136253
0.00138307
0.00140049
0.00141501
0.0014269
0.00143646
0.00144403
0.00144993
0.00145449
0.00145799
0.00146069
0.00146281
0.00146457
0.00146615
0.00146772
0.00146944
0.00147144
0.00147388
0.00147687
0.00148055
0.00148503
0.00149044
0.00149688
0.00150445
0.00151326
0.00152334
0.00153468
0.0015471
0.00156026
0.00157356
0.00158618
0.00159707
0.00160507
0.00160899
0.00160772
0.00160029
0.00158598
0.00156433
0.00153521
0.00149889
0.00145613
0.00140816
0.00135669
0.00130381
0.00125178
0.00120273
0.00115837
0.00111976
0.00108726
0.00106069
0.00103951
0.00102304
0.00101054
0.00100122
0.000994655
0.000988149
0.000900329
0.000894911
0.000889343
0.000883602
0.000877665
0.000871521
0.000865195
0.000858815
0.000852727
0.000847592
0.000844316
0.000843684
0.000845817
0.000849721
0.000853222
0.000853648
0.000848252
0.000837658
0.00082376
0.000808963
0.000795481
0.000785025
0.000778776
0.000777468
0.000781483
0.000790935
0.00080571
0.000825494
0.000849789
0.000877941
0.000909183
0.00094269
0.000977651
0.00101333
0.00104914
0.00108459
0.00111934
0.00115313
0.00118573
0.00121691
0.00124642
0.00127404
0.00129951
0.00132263
0.00134327
0.00136137
0.00137696
0.00139013
0.00140108
0.00141003
0.00141723
0.00142293
0.00142739
0.00143085
0.00143353
0.00143563
0.00143733
0.0014388
0.00144018
0.00144162
0.00144325
0.00144518
0.00144754
0.00145045
0.00145402
0.00145837
0.00146362
0.0014699
0.00147732
0.00148601
0.001496
0.00150723
0.00151946
0.00153219
0.0015447
0.00155601
0.00156499
0.00157045
0.00157128
0.00156646
0.00155521
0.00153698
0.00151153
0.00147901
0.00144001
0.00139563
0.00134743
0.00129739
0.00124769
0.00120043
0.00115737
0.00111964
0.0010877
0.00106145
0.00104042
0.00102396
0.0010114
0.00100198
0.000995296
0.000988646
0.000946856
0.000942955
0.000938935
0.000934791
0.000930519
0.000926118
0.000921592
0.000916962
0.000912283
0.000907694
0.000903464
0.000899983
0.000897663
0.00089675
0.000897123
0.000898232
0.000899168
0.000899288
0.000898344
0.000896558
0.000894515
0.000892982
0.000892747
0.000894499
0.000898772
0.000905914
0.000916092
0.000929301
0.00094539
0.000964093
0.000985061
0.0010079
0.00103222
0.00105763
0.00108378
0.00111036
0.00113707
0.00116366
0.00118985
0.00121537
0.00123994
0.00126327
0.0012851
0.00130519
0.00132337
0.00133954
0.00135366
0.00136577
0.00137598
0.00138445
0.00139137
0.00139693
0.00140135
0.00140481
0.00140751
0.00140962
0.00141131
0.00141271
0.00141397
0.0014152
0.00141653
0.00141806
0.0014199
0.00142217
0.00142495
0.00142837
0.00143255
0.00143761
0.00144371
0.00145099
0.00145956
0.00146944
0.00148051
0.00149239
0.00150448
0.00151588
0.00152552
0.00153226
0.00153494
0.00153255
0.00152423
0.00150934
0.00148754
0.00145882
0.00142364
0.00138291
0.00133807
0.00129095
0.00124365
0.00119825
0.00115651
0.00111966
0.00108826
0.00106229
0.00104138
0.00102492
0.00101227
0.00100273
0.00099593
0.000989123
0.000975321
0.000972726
0.000970041
0.000967271
0.000964424
0.000961506
0.000958532
0.000955517
0.000952485
0.000949472
0.000946549
0.000943835
0.000941503
0.000939756
0.000938762
0.000938584
0.000939135
0.00094025
0.000941758
0.000943557
0.000945663
0.000948209
0.000951422
0.000955579
0.000960958
0.000967802
0.000976291
0.000986533
0.000998553
0.00101231
0.0010277
0.00104457
0.00106276
0.00108205
0.00110226
0.00112318
0.00114457
0.00116621
0.00118787
0.00120927
0.00123015
0.00125023
0.00126926
0.00128699
0.00130325
0.00131788
0.00133083
0.0013421
0.00135173
0.00135983
0.00136654
0.00137201
0.00137641
0.00137991
0.00138266
0.00138481
0.00138651
0.00138789
0.00138907
0.00139015
0.00139126
0.00139248
0.00139391
0.00139564
0.00139777
0.0014004
0.00140365
0.00140763
0.00141251
0.00141845
0.0014256
0.00143407
0.00144383
0.00145464
0.00146603
0.0014772
0.00148719
0.00149488
0.00149914
0.00149892
0.00149332
0.00148162
0.00146336
0.0014384
0.00140702
0.00136999
0.00132855
0.00128442
0.00123959
0.00119609
0.00115571
0.00111975
0.00108887
0.00106318
0.00104236
0.00102588
0.00101314
0.00100347
0.000996547
0.000989574
0.000991328
0.000989715
0.000988043
0.00098632
0.000984556
0.000982764
0.000980959
0.000979161
0.000977389
0.000975668
0.000974029
0.000972515
0.000971189
0.000970136
0.000969458
0.000969254
0.000969597
0.000970527
0.000972054
0.000974173
0.000976882
0.000980203
0.000984183
0.000988902
0.000994458
0.00100096
0.0010085
0.00101717
0.00102703
0.00103809
0.00105036
0.00106379
0.00107831
0.00109383
0.00111024
0.0011274
0.00114516
0.00116332
0.0011817
0.00120006
0.00121817
0.00123578
0.00125264
0.00126853
0.00128325
0.00129667
0.00130869
0.00131927
0.00132843
0.00133625
0.0013428
0.00134822
0.00135263
0.00135617
0.00135899
0.0013612
0.00136294
0.00136433
0.00136546
0.00136646
0.0013674
0.00136838
0.00136949
0.0013708
0.00137241
0.00137439
0.00137685
0.00137991
0.00138371
0.00138843
0.00139424
0.00140132
0.00140971
0.00141932
0.00142978
0.00144046
0.00145047
0.00145877
0.00146428
0.00146593
0.00146278
0.00145405
0.00143917
0.00141785
0.00139021
0.00135684
0.00131883
0.00127773
0.00123542
0.00119387
0.00115489
0.00111984
0.00108949
0.00106406
0.00104332
0.00102681
0.00101398
0.00100418
0.000997134
0.000989993
0.000999566
0.000998606
0.000997615
0.0009966
0.000995573
0.000994546
0.000993537
0.000992561
0.000991641
0.000990795
0.000990048
0.000989426
0.000988959
0.000988686
0.000988653
0.000988921
0.00098955
0.000990598
0.000992116
0.000994146
0.000996725
0.000999884
0.00100366
0.00100808
0.00101321
0.00101907
0.00102574
0.00103325
0.00104166
0.00105099
0.00106127
0.00107249
0.00108463
0.00109765
0.00111149
0.00112605
0.00114123
0.00115688
0.00117284
0.00118892
0.00120492
0.00122061
0.00123577
0.00125019
0.00126369
0.00127612
0.00128737
0.0012974
0.00130618
0.00131376
0.0013202
0.00132558
0.00133002
0.00133362
0.00133651
0.0013388
0.0013406
0.00134201
0.00134314
0.00134408
0.00134491
0.00134572
0.00134658
0.00134757
0.00134876
0.00135022
0.00135205
0.00135434
0.00135723
0.00136088
0.00136549
0.00137126
0.00137831
0.00138666
0.00139606
0.00140602
0.00141578
0.00142438
0.00143078
0.00143395
0.00143294
0.00142689
0.00141514
0.00139729
0.00137327
0.0013435
0.00130889
0.00127082
0.00123106
0.00119151
0.00115397
0.00111986
0.00109006
0.00106489
0.00104423
0.00102769
0.00101476
0.00100484
0.000997677
0.00099037
0.00100343
0.00100285
0.00100227
0.00100168
0.0010011
0.00100054
0.00100001
0.000999536
0.000999129
0.000998811
0.0009986
0.000998518
0.000998585
0.000998826
0.000999269
0.000999947
0.0010009
0.00100216
0.00100378
0.0010058
0.00100825
0.00101118
0.00101463
0.00101863
0.00102321
0.00102842
0.0010343
0.00104087
0.00104818
0.00105626
0.00106513
0.0010748
0.00108527
0.00109652
0.00110852
0.0011212
0.00113449
0.00114826
0.0011624
0.00117673
0.00119108
0.00120526
0.00121906
0.0012323
0.0012448
0.00125641
0.00126702
0.00127657
0.00128503
0.00129241
0.00129875
0.00130411
0.00130858
0.00131225
0.00131522
0.00131758
0.00131945
0.00132091
0.00132206
0.00132297
0.00132374
0.00132442
0.0013251
0.00132585
0.00132671
0.00132777
0.00132909
0.00133076
0.00133291
0.00133567
0.00133924
0.00134384
0.00134965
0.00135676
0.00136505
0.00137415
0.00138343
0.00139203
0.001399
0.00140334
0.0014041
0.0014004
0.0013915
0.00137686
0.00135628
0.00132999
0.0012987
0.00126365
0.00122646
0.00118894
0.00115289
0.00111976
0.00109053
0.00106564
0.00104506
0.0010285
0.00101548
0.00100544
0.000998162
0.000990693
0.00100507
0.0010047
0.00100433