/*--------------------------------*- C++ -*----------------------------------*\
  =========                 |
  \\      /  F ield         | OpenFOAM: The Open Source CFD Toolbox
   \\    /   O peration     | Website:  https://openfoam.org
    \\  /    A nd           | Version:  10
     \\/     M anipulation  |
\*---------------------------------------------------------------------------*/
FoamFile
{
    format      ascii;
    class       surfaceScalarField;
    location    "0.07";
    object      phi;
}
// * * * * * * * * * * * * * * * * * * * * * * * * * * * * * * * * * * * * * //

dimensions      [0 3 -1 0 0 0 0];

internalField   nonuniform List<scalar> 
13452
(
6.05769e-05
-3.08456e-07
6.037e-05
2.06961e-07
5.9897e-05
4.7297e-07
5.92818e-05
6.15174e-07
5.86745e-05
6.0729e-07
5.81353e-05
5.39204e-07
5.76668e-05
4.68495e-07
5.72589e-05
4.07925e-07
5.69002e-05
3.58718e-07
5.65807e-05
3.19512e-07
5.62925e-05
2.88138e-07
5.60299e-05
2.62646e-07
5.57883e-05
2.41567e-07
5.55645e-05
2.23844e-07
5.53557e-05
2.08729e-07
5.516e-05
1.95697e-07
5.49757e-05
1.84387e-07
5.48011e-05
1.74546e-07
5.46351e-05
1.66005e-07
5.44765e-05
1.58658e-07
5.4324e-05
1.52454e-07
5.41766e-05
1.47395e-07
5.40331e-05
1.43544e-07
5.3892e-05
1.41049e-07
5.37519e-05
1.40158e-07
5.36104e-05
1.41414e-07
5.34649e-05
1.45497e-07
5.33103e-05
1.54617e-07
5.31388e-05
1.7148e-07
5.29364e-05
2.0248e-07
5.26556e-05
2.80765e-07
5.22691e-05
3.86506e-07
6.24175e-07
5.16449e-05
6.18026e-05
-1.20679e-07
6.17622e-05
2.47342e-07
6.18786e-05
3.56533e-07
6.20394e-05
4.54404e-07
6.2145e-05
5.01633e-07
6.21731e-05
5.11191e-07
6.2138e-05
5.03602e-07
6.20605e-05
4.85393e-07
6.19571e-05
4.62142e-07
6.18389e-05
4.37703e-07
6.17131e-05
4.13912e-07
6.15842e-05
3.91534e-07
6.14549e-05
3.70856e-07
6.13268e-05
3.51924e-07
6.12009e-05
3.34678e-07
6.10776e-05
3.19021e-07
6.09571e-05
3.04856e-07
6.08395e-05
2.92103e-07
6.07248e-05
2.80706e-07
6.06129e-05
2.70638e-07
6.05034e-05
2.61907e-07
6.03962e-05
2.54568e-07
6.0291e-05
2.48729e-07
6.01875e-05
2.4458e-07
6.00853e-05
2.42422e-07
5.99839e-05
2.42753e-07
5.9883e-05
2.46363e-07
5.97832e-05
2.54459e-07
5.96847e-05
2.69967e-07
5.9594e-05
2.93149e-07
5.95329e-05
3.41959e-07
5.95321e-05
3.87272e-07
5.09291e-07
5.9647e-05
6.36611e-05
-2.03961e-08
6.37523e-05
1.5612e-07
6.38137e-05
2.95183e-07
6.38656e-05
4.02469e-07
6.39076e-05
4.59634e-07
6.3938e-05
4.80812e-07
6.39569e-05
4.84703e-07
6.39628e-05
4.79533e-07
6.3956e-05
4.68934e-07
6.39382e-05
4.55479e-07
6.39114e-05
4.40702e-07
6.38774e-05
4.25493e-07
6.38379e-05
4.10409e-07
6.3794e-05
3.95798e-07
6.37468e-05
3.81872e-07
6.36971e-05
3.68769e-07
6.36454e-05
3.56582e-07
6.35921e-05
3.4539e-07
6.35375e-05
3.35267e-07
6.34818e-05
3.263e-07
6.34252e-05
3.186e-07
6.33674e-05
3.12313e-07
6.33085e-05
3.07644e-07
6.32482e-05
3.04879e-07
6.31862e-05
3.04435e-07
6.3122e-05
3.06893e-07
6.30552e-05
3.13217e-07
6.29852e-05
3.24445e-07
6.29116e-05
3.4361e-07
6.28344e-05
3.70259e-07
6.27589e-05
4.17462e-07
6.26792e-05
4.67033e-07
5.64996e-07
6.26235e-05
6.55758e-05
-1.31107e-08
6.55531e-05
1.78836e-07
6.55633e-05
2.8493e-07
6.56033e-05
3.62538e-07
6.56512e-05
4.1168e-07
6.56949e-05
4.37078e-07
6.57308e-05
4.48801e-07
6.57586e-05
4.518e-07
6.57787e-05
4.4885e-07
6.57919e-05
4.42281e-07
6.5799e-05
4.33608e-07
6.58007e-05
4.23744e-07
6.57978e-05
4.13299e-07
6.57909e-05
4.02697e-07
6.57805e-05
3.9224e-07
6.57672e-05
3.82154e-07
6.57511e-05
3.72622e-07
6.57327e-05
3.63803e-07
6.57121e-05
3.55849e-07
6.56895e-05
3.48921e-07
6.56649e-05
3.43199e-07
6.56383e-05
3.38903e-07
6.56096e-05
3.36309e-07
6.55787e-05
3.35777e-07
6.55454e-05
3.37798e-07
6.55093e-05
3.4301e-07
6.54701e-05
3.52395e-07
6.54276e-05
3.66977e-07
6.53821e-05
3.89103e-07
6.53333e-05
4.18981e-07
6.52873e-05
4.63507e-07
6.52406e-05
5.13765e-07
5.86847e-07
6.52187e-05
6.74264e-05
1.7272e-08
6.7451e-05
1.54273e-07
6.74787e-05
2.57244e-07
6.75088e-05
3.32418e-07
6.75385e-05
3.81979e-07
6.7567e-05
4.08576e-07
6.75942e-05
4.21614e-07
6.76193e-05
4.26652e-07
6.76417e-05
4.2642e-07
6.76611e-05
4.22879e-07
6.76774e-05
4.173e-07
6.76907e-05
4.10461e-07
6.77011e-05
4.02898e-07
6.77088e-05
3.95008e-07
6.7714e-05
3.87087e-07
6.77168e-05
3.79373e-07
6.77173e-05
3.72072e-07
6.77157e-05
3.65372e-07
6.77121e-05
3.59459e-07
6.77065e-05
3.54531e-07
6.76989e-05
3.50811e-07
6.76892e-05
3.48558e-07
6.76775e-05
3.48094e-07
6.76634e-05
3.49819e-07
6.7647e-05
3.54257e-07
6.76279e-05
3.62058e-07
6.76062e-05
3.74146e-07
6.75817e-05
3.91471e-07
6.7555e-05
4.15806e-07
6.75263e-05
4.47605e-07
6.74992e-05
4.90611e-07
6.74724e-05
5.40619e-07
6.04568e-07
6.74547e-05
6.93767e-05
2.46141e-08
6.9386e-05
1.44995e-07
6.94037e-05
2.39484e-07
6.94291e-05
3.07057e-07
6.94578e-05
3.53232e-07
6.94861e-05
3.8026e-07
6.95128e-05
3.94962e-07
6.95375e-05
4.01972e-07
6.95601e-05
4.03767e-07
6.95808e-05
4.02194e-07
6.95996e-05
3.98518e-07
6.96165e-05
3.93538e-07
6.96316e-05
3.87794e-07
6.9645e-05
3.81683e-07
6.96565e-05
3.75503e-07
6.96664e-05
3.69497e-07
6.96746e-05
3.63879e-07
6.96811e-05
3.58849e-07
6.9686e-05
3.5461e-07
6.96891e-05
3.51378e-07
6.96905e-05
3.49395e-07
6.96902e-05
3.48944e-07
6.96879e-05
3.50366e-07
6.96836e-05
3.54073e-07
6.96773e-05
3.60586e-07
6.96688e-05
3.7053e-07
6.96583e-05
3.84724e-07
6.96457e-05
4.04009e-07
6.96318e-05
4.29674e-07
6.96172e-05
4.62231e-07
6.96042e-05
5.03648e-07
6.95928e-05
5.52013e-07
6.09767e-07
6.95876e-05
7.13592e-05
3.17624e-08
7.13705e-05
1.33689e-07
7.1391e-05
2.19e-07
7.14161e-05
2.81931e-07
7.14427e-05
3.26625e-07
7.14685e-05
3.54485e-07
7.14929e-05
3.70529e-07
7.1516e-05
3.7891e-07
7.15377e-05
3.82085e-07
7.1558e-05
3.81845e-07
7.15771e-05
3.79447e-07
7.15949e-05
3.75705e-07
7.16115e-05
3.71177e-07
7.16269e-05
3.66272e-07
7.16411e-05
3.61301e-07
7.16541e-05
3.56515e-07
7.16659e-05
3.52137e-07
7.16763e-05
3.48377e-07
7.16855e-05
3.45445e-07
7.16933e-05
3.43569e-07
7.16997e-05
3.42998e-07
7.17046e-05
3.44025e-07
7.1708e-05
3.46989e-07
7.17098e-05
3.52297e-07
7.17099e-05
3.60441e-07
7.17085e-05
3.71991e-07
7.17055e-05
3.87648e-07
7.17014e-05
4.08118e-07
7.16968e-05
4.3432e-07
7.16923e-05
4.66713e-07
7.16896e-05
5.06312e-07
7.16894e-05
5.52258e-07
6.05203e-07
7.1694e-05
7.34032e-05
3.38452e-08
7.34135e-05
1.23351e-07
7.34316e-05
2.00902e-07
7.34542e-05
2.59359e-07
7.3479e-05
3.018e-07
7.35039e-05
3.29613e-07
7.35279e-05
3.46553e-07
7.35507e-05
3.56124e-07
7.35722e-05
3.60566e-07
7.35925e-05
3.61532e-07
7.36117e-05
3.6024e-07
7.36299e-05
3.5752e-07
7.36471e-05
3.53957e-07
7.36634e-05
3.49985e-07
7.36788e-05
3.45935e-07
7.36932e-05
3.42077e-07
7.37067e-05
3.38646e-07
7.37192e-05
3.35863e-07
7.37307e-05
3.33947e-07
7.37411e-05
3.3313e-07
7.37505e-05
3.33667e-07
7.37586e-05
3.35844e-07
7.37656e-05
3.39993e-07
7.37714e-05
3.46497e-07
7.37761e-05
3.55802e-07
7.37797e-05
3.6841e-07
7.37824e-05
3.84898e-07
7.37847e-05
4.05832e-07
7.37872e-05
4.31856e-07
7.37906e-05
4.63321e-07
7.37961e-05
5.00728e-07
7.38047e-05
5.43659e-07
5.92072e-07
7.38179e-05
7.55021e-05
3.41741e-08
7.55118e-05
1.13679e-07
7.55289e-05
1.83817e-07
7.55503e-05
2.37962e-07
7.55739e-05
2.78158e-07
7.55979e-05
3.05648e-07
7.56213e-05
3.23201e-07
7.56437e-05
3.33711e-07
7.5665e-05
3.39203e-07
7.56854e-05
3.41208e-07
7.57047e-05
3.40885e-07
7.57232e-05
3.39062e-07
7.57408e-05
3.36336e-07
7.57576e-05
3.33157e-07
7.57737e-05
3.29875e-07
7.5789e-05
3.26776e-07
7.58035e-05
3.24108e-07
7.58173e-05
3.22103e-07
7.58302e-05
3.20986e-07
7.58424e-05
3.20992e-07
7.58537e-05
3.22372e-07
7.58641e-05
3.25404e-07
7.58737e-05
3.304e-07
7.58825e-05
3.37709e-07
7.58906e-05
3.47723e-07
7.58981e-05
3.60869e-07
7.59054e-05
3.77604e-07
7.59129e-05
3.98363e-07
7.59212e-05
4.23578e-07
7.5931e-05
4.53486e-07
7.59434e-05
4.88294e-07
7.59593e-05
5.27744e-07
5.71524e-07
7.59799e-05
7.76606e-05
3.3151e-08
7.76698e-05
1.04434e-07
7.76858e-05
1.67911e-07
7.77057e-05
2.18006e-07
7.7728e-05
2.55885e-07
7.7751e-05
2.82653e-07
7.77738e-05
3.00417e-07
7.77959e-05
3.11555e-07
7.78172e-05
3.1787e-07
7.78377e-05
3.20751e-07
7.78573e-05
3.21282e-07
7.78761e-05
3.20262e-07
7.78942e-05
3.18288e-07
7.79115e-05
3.15816e-07
7.79282e-05
3.13208e-07
7.79442e-05
3.10762e-07
7.79596e-05
3.08735e-07
7.79743e-05
3.07365e-07
7.79884e-05
3.06881e-07
7.80019e-05
3.07516e-07
7.80147e-05
3.09513e-07
7.8027e-05
3.13137e-07
7.80387e-05
3.18671e-07
7.805e-05
3.26426e-07
7.8061e-05
3.36735e-07
7.80719e-05
3.49946e-07
7.80831e-05
3.66409e-07
7.8095e-05
3.86438e-07
7.81083e-05
4.10305e-07
7.81237e-05
4.38137e-07
7.8142e-05
4.69968e-07
7.81642e-05
5.0557e-07
5.44529e-07
7.81912e-05
7.98801e-05
3.13949e-08
7.98888e-05
9.5662e-08
7.99037e-05
1.53092e-07
7.99224e-05
1.99272e-07
7.99435e-05
2.34771e-07
7.99656e-05
2.6054e-07
7.99878e-05
2.78207e-07
8.00097e-05
2.89707e-07
8.00309e-05
2.96621e-07
8.00515e-05
3.00199e-07
8.00713e-05
3.01443e-07
8.00905e-05
3.01115e-07
8.0109e-05
2.99799e-07
8.01268e-05
2.97949e-07
8.01441e-05
2.9593e-07
8.01608e-05
2.94044e-07
8.0177e-05
2.92554e-07
8.01927e-05
2.91698e-07
8.02078e-05
2.91704e-07
8.02226e-05
2.92799e-07
8.02369e-05
2.95213e-07
8.02508e-05
2.99189e-07
8.02645e-05
3.04981e-07
8.02781e-05
3.12855e-07
8.02917e-05
3.23086e-07
8.03057e-05
3.35944e-07
8.03204e-05
3.51684e-07
8.03364e-05
3.70515e-07
8.03541e-05
3.92586e-07
8.03743e-05
4.17927e-07
8.03978e-05
4.46462e-07
8.04254e-05
4.77948e-07
5.11932e-07
8.0458e-05
8.21626e-05
2.92411e-08
8.2171e-05
8.73056e-08
8.21848e-05
1.39233e-07
8.22024e-05
1.81651e-07
8.22225e-05
2.14745e-07
8.22437e-05
2.393e-07
8.22653e-05
2.56593e-07
8.22868e-05
2.68198e-07
8.2308e-05
2.75486e-07
8.23286e-05
2.79577e-07
8.23486e-05
2.81385e-07
8.23681e-05
2.81628e-07
8.23871e-05
2.80866e-07
8.24055e-05
2.79544e-07
8.24234e-05
2.78023e-07
8.24408e-05
2.76604e-07
8.24578e-05
2.75547e-07
8.24744e-05
2.75088e-07
8.24907e-05
2.75447e-07
8.25066e-05
2.7684e-07
8.25224e-05
2.79481e-07
8.2538e-05
2.83587e-07
8.25536e-05
2.89379e-07
8.25694e-05
2.97075e-07
8.25856e-05
3.06894e-07
8.26025e-05
3.19035e-07
8.26205e-05
3.33668e-07
8.26401e-05
3.50916e-07
8.26618e-05
3.70828e-07
8.26864e-05
3.9336e-07
8.27145e-05
4.1836e-07
8.27469e-05
4.45558e-07
4.74493e-07
8.27843e-05
8.45101e-05
2.69048e-08
8.45181e-05
7.93502e-08
8.45311e-05
1.26237e-07
8.45477e-05
1.6503e-07
8.45667e-05
1.95697e-07
8.45872e-05
2.18866e-07
8.46082e-05
2.35552e-07
8.46294e-05
2.47034e-07
8.46504e-05
2.5449e-07
8.4671e-05
2.58916e-07
8.46913e-05
2.61137e-07
8.47111e-05
2.61822e-07
8.47304e-05
2.61502e-07
8.47494e-05
2.60605e-07
8.47679e-05
2.59482e-07
8.47861e-05
2.58427e-07
8.4804e-05
2.57693e-07
8.48215e-05
2.57509e-07
8.48389e-05
2.58084e-07
8.48561e-05
2.59617e-07
8.48733e-05
2.62302e-07
8.48906e-05
2.66328e-07
8.49081e-05
2.71878e-07
8.4926e-05
2.79129e-07
8.49447e-05
2.88242e-07
8.49643e-05
2.99352e-07
8.49855e-05
3.12561e-07
8.50085e-05
3.27913e-07
8.50339e-05
3.45389e-07
8.50624e-05
3.64881e-07
8.50945e-05
3.86189e-07
8.51311e-05
4.0902e-07
4.32922e-07
8.51727e-05
8.69246e-05
2.45135e-08
8.69321e-05
7.17734e-08
8.69444e-05
1.14e-07
8.69601e-05
1.49299e-07
8.69783e-05
1.77529e-07
8.6998e-05
1.99177e-07
8.70185e-05
2.15057e-07
8.70393e-05
2.26211e-07
8.70601e-05
2.33644e-07
8.70808e-05
2.38231e-07
8.71012e-05
2.40716e-07
8.71213e-05
2.41711e-07
8.71411e-05
2.41715e-07
8.71606e-05
2.41134e-07
8.71798e-05
2.40303e-07
8.71987e-05
2.39504e-07
8.72174e-05
2.3898e-07
8.7236e-05
2.38946e-07
8.72545e-05
2.39598e-07
8.7273e-05
2.41115e-07
8.72916e-05
2.43667e-07
8.73105e-05
2.47414e-07
8.73299e-05
2.52504e-07
8.73499e-05
2.59069e-07
8.7371e-05
2.6722e-07
8.73933e-05
2.77038e-07
8.74173e-05
2.88562e-07
8.74434e-05
3.01781e-07
8.74722e-05
3.16618e-07
8.75041e-05
3.32922e-07
8.75399e-05
3.50461e-07
8.758e-05
3.68931e-07
3.87899e-07
8.7625e-05
8.94079e-05
2.21401e-08
8.94151e-05
6.45525e-08
8.94267e-05
1.02434e-07
8.94416e-05
1.34359e-07
8.9459e-05
1.60145e-07
8.9478e-05
1.80165e-07
8.9498e-05
1.95071e-07
8.95185e-05
2.05713e-07
8.95392e-05
2.12944e-07
8.95599e-05
2.17529e-07
8.95805e-05
2.20131e-07
8.96009e-05
2.21306e-07
8.96211e-05
2.21515e-07
8.96411e-05
2.21137e-07
8.96609e-05
2.20488e-07
8.96806e-05
2.19834e-07
8.97002e-05
2.19403e-07
8.97197e-05
2.19395e-07
8.97393e-05
2.19986e-07
8.97591e-05
2.21335e-07
8.97792e-05
2.23589e-07
8.97997e-05
2.26875e-07
8.98209e-05
2.31306e-07
8.9843e-05
2.36976e-07
8.98663e-05
2.4395e-07
8.98911e-05
2.52262e-07
8.99177e-05
2.61903e-07
8.99467e-05
2.72816e-07
8.99784e-05
2.84883e-07
9.00134e-05
2.97925e-07
9.00522e-05
3.11693e-07
9.00952e-05
3.25883e-07
3.4009e-07
9.0143e-05
9.19622e-05
1.98227e-08
9.19691e-05
5.76618e-08
9.198e-05
9.14551e-08
9.19943e-05
1.20116e-07
9.2011e-05
1.43458e-07
9.20294e-05
1.6176e-07
9.20489e-05
1.75547e-07
9.20691e-05
1.85514e-07
9.20897e-05
1.9238e-07
9.21104e-05
1.96809e-07
9.21311e-05
1.99385e-07
9.21518e-05
2.0061e-07
9.21724e-05
2.00904e-07
9.2193e-05
2.00616e-07
9.22134e-05
2.00039e-07
9.22338e-05
1.99419e-07
9.22543e-05
1.98965e-07
9.22748e-05
1.9886e-07
9.22955e-05
1.99259e-07
9.23166e-05
2.00299e-07
9.2338e-05
2.021e-07
9.23602e-05
2.04762e-07
9.23831e-05
2.08364e-07
9.24071e-05
2.12963e-07
9.24325e-05
2.18587e-07
9.24595e-05
2.25229e-07
9.24886e-05
2.32844e-07
9.252e-05
2.41341e-07
9.25544e-05
2.50574e-07
9.25919e-05
2.60349e-07
9.26332e-05
2.70412e-07
9.26786e-05
2.80466e-07
2.90146e-07
9.27286e-05
9.45894e-05
1.75788e-08
9.4596e-05
5.10732e-08
9.46065e-05
8.09894e-08
9.46201e-05
1.06484e-07
9.46362e-05
1.27383e-07
9.4654e-05
1.43894e-07
9.46731e-05
1.56439e-07
9.46931e-05
1.65584e-07
9.47135e-05
1.71934e-07
9.47343e-05
1.76061e-07
9.47552e-05
1.78476e-07
9.47762e-05
1.79625e-07
9.47972e-05
1.79886e-07
9.48182e-05
1.79576e-07
9.48393e-05
1.78961e-07
9.48604e-05
1.78266e-07
9.48817e-05
1.77679e-07
9.49032e-05
1.7736e-07
9.4925e-05
1.77444e-07
9.49473e-05
1.78047e-07
9.49701e-05
1.7926e-07
9.49937e-05
1.81156e-07
9.50183e-05
1.83786e-07
9.50441e-05
1.87174e-07
9.50714e-05
1.91316e-07
9.51004e-05
1.96175e-07
9.51316e-05
2.01676e-07
9.51652e-05
2.07706e-07
9.52017e-05
2.14104e-07
9.52414e-05
2.20668e-07
9.52847e-05
2.2715e-07
9.53319e-05
2.3327e-07
2.38704e-07
9.53833e-05
9.72917e-05
1.54133e-08
9.7298e-05
4.47571e-08
9.7308e-05
7.09697e-08
9.73211e-05
9.33819e-08
9.73367e-05
1.11841e-07
9.73541e-05
1.26499e-07
9.73728e-05
1.37694e-07
9.73925e-05
1.45887e-07
9.74128e-05
1.51584e-07
9.74336e-05
1.55273e-07
9.74547e-05
1.57399e-07
9.7476e-05
1.58351e-07
9.74974e-05
1.58465e-07
9.7519e-05
1.58024e-07
9.75407e-05
1.57266e-07
9.75625e-05
1.56391e-07
9.75846e-05
1.55565e-07
9.76071e-05
1.54926e-07
9.76299e-05
1.54586e-07
9.76533e-05
1.54637e-07
9.76775e-05
1.55147e-07
9.77025e-05
1.56163e-07
9.77285e-05
1.57709e-07
9.77559e-05
1.59783e-07
9.77849e-05
1.62354e-07
9.78157e-05
1.65364e-07
9.78487e-05
1.68717e-07
9.78841e-05
1.72284e-07
9.79223e-05
1.75899e-07
9.79636e-05
1.79363e-07
9.80083e-05
1.82441e-07
9.80567e-05
1.84872e-07
1.8638e-07
9.8109e-05
0.000100071
1.3324e-08
0.000100077
3.86832e-08
0.000100087
6.13349e-08
0.0001001
8.07373e-08
0.000100115
9.6759e-08
0.000100132
1.09511e-07
0.00010015
1.1926e-07
0.00010017
1.26385e-07
0.00010019
1.31304e-07
0.000100211
1.34431e-07
0.000100232
1.36145e-07
0.000100253
1.36785e-07
0.000100275
1.36644e-07
0.000100297
1.3597e-07
0.00010032
1.34971e-07
0.000100342
1.3382e-07
0.000100365
1.32659e-07
0.000100388
1.31604e-07
0.000100412
1.30744e-07
0.000100437
1.30149e-07
0.000100462
1.29864e-07
0.000100488
1.29913e-07
0.000100516
1.30296e-07
0.000100545
1.30991e-07
0.000100575
1.31946e-07
0.000100607
1.33086e-07
0.000100642
1.34304e-07
0.000100678
1.35463e-07
0.000100718
1.36399e-07
0.00010076
1.36922e-07
0.000100806
1.36814e-07
0.000100855
1.35841e-07
1.33771e-07
0.000100908
0.00010293
1.13047e-08
0.000102936
3.28212e-08
0.000102945
5.20294e-08
0.000102958
6.84819e-08
0.000102972
8.20671e-08
0.000102989
9.28645e-08
0.000103007
1.01086e-07
0.000103026
1.07038e-07
0.000103047
1.11066e-07
0.000103068
1.13514e-07
0.000103089
1.14706e-07
0.000103111
1.14928e-07
0.000103133
1.14432e-07
0.000103156
1.13429e-07
0.000103178
1.12098e-07
0.000103202
1.10584e-07
0.000103225
1.09006e-07
0.000103249
1.07454e-07
0.000103274
1.05997e-07
0.0001033
1.04683e-07
0.000103326
1.03536e-07
0.000103353
1.02559e-07
0.000103382
1.01735e-07
0.000103412
1.01022e-07
0.000103443
1.00357e-07
0.000103477
9.96509e-08
0.000103512
9.8792e-08
0.00010355
9.76442e-08
0.000103591
9.60492e-08
0.000103634
9.38296e-08
0.00010368
9.07903e-08
0.000103729
8.67256e-08
8.14467e-08
0.000103781
0.000105871
9.34764e-09
0.000105876
2.71418e-08
0.000105885
4.30019e-08
0.000105897
5.65523e-08
0.000105912
6.76992e-08
0.000105928
7.64992e-08
0.000105946
8.31187e-08
0.000105965
8.78042e-08
0.000105985
9.0838e-08
0.000106006
9.25047e-08
0.000106028
9.30716e-08
0.00010605
9.27795e-08
0.000106073
9.18368e-08
0.000106096
9.04209e-08
0.000106119
8.86785e-08
0.000106143
8.67282e-08
0.000106167
8.46625e-08
0.000106192
8.25505e-08
0.000106218
8.0439e-08
0.000106244
7.83559e-08
0.000106272
7.63063e-08
0.0001063
7.42762e-08
0.000106329
7.22324e-08
0.00010636
7.01215e-08
0.000106393
6.78695e-08
0.000106427
6.53828e-08
0.000106463
6.25481e-08
0.000106502
5.92341e-08
0.000106542
5.52931e-08
0.000106586
5.05649e-08
0.000106632
4.48781e-08
0.00010668
3.80556e-08
2.99504e-08
0.000106732
0.000108895
7.4443e-09
0.000108901
2.16172e-08
0.00010891
3.42063e-08
0.000108921
4.48908e-08
0.000108935
5.35943e-08
0.000108952
6.03559e-08
0.000108969
6.53055e-08
0.000108989
6.86404e-08
0.000109009
7.05881e-08
0.00010903
7.13792e-08
0.000109052
7.12308e-08
0.000109074
7.03382e-08
0.000109097
6.88695e-08
0.000109121
6.69672e-08
0.000109145
6.47475e-08
0.000109169
6.23013e-08
0.000109194
5.96964e-08
0.000109219
5.69797e-08
0.000109246
5.41769e-08
0.000109273
5.12998e-08
0.000109301
4.8335e-08
0.00010933
4.52544e-08
0.00010936
4.20131e-08
0.000109392
3.85486e-08
0.000109425
3.47814e-08
0.000109459
3.06163e-08
0.000109496
2.59434e-08
0.000109535
2.06396e-08
0.000109575
1.45706e-08
0.000109618
7.59524e-09
0.000109664
-4.32389e-10
0.000109711
-9.66345e-09
-2.02047e-08
0.000109762
0.000112006
5.58587e-09
0.000112012
1.62205e-08
0.00011202
2.55978e-08
0.000112032
3.34403e-08
0.000112046
3.96905e-08
0.000112062
4.43736e-08
0.000112079
4.75912e-08
0.000112099
4.95001e-08
0.000112119
5.02804e-08
0.00011214
5.0114e-08
0.000112162
4.91714e-08
0.000112185
4.76057e-08
0.000112208
4.55446e-08
0.000112232
4.3097e-08
0.000112257
4.03489e-08
0.000112281
3.7364e-08
0.000112307
3.41861e-08
0.000112333
3.08405e-08
0.00011236
2.73324e-08
0.000112388
2.36638e-08
0.000112416
1.9798e-08
0.000112446
1.56996e-08
0.000112476
1.13145e-08
0.000112508
6.57427e-09
0.000112542
1.39787e-09
0.000112577
-4.30915e-09
0.000112613
-1.06497e-08
0.000112652
-1.77365e-08
0.000112692
-2.56882e-08
0.000112734
-3.46265e-08
0.000112778
-4.46739e-08
0.000112825
-5.5952e-08
-6.85357e-08
0.000112873
0.000115206
3.76598e-09
0.000115212
1.09317e-08
0.00011522
1.71442e-08
0.000115231
2.21567e-08
0.000115245
2.59369e-08
0.000115261
2.84984e-08
0.000115279
2.99237e-08
0.000115298
3.03364e-08
0.000115318
2.98753e-08
0.00011534
2.86789e-08
0.000115362
2.6875e-08
0.000115385
2.45759e-08
0.000115409
2.18687e-08
0.000115433
1.88325e-08
0.000115458
1.5523e-08
0.000115483
1.19763e-08
0.000115509
8.21364e-09
0.000115536
4.24005e-09
0.000115563
2.63496e-11
0.000115591
-4.39758e-09
0.00011562
-9.12194e-09
0.00011565
-1.41748e-08
0.000115681
-1.96188e-08
0.000115713
-2.55249e-08
0.000115746
-3.19741e-08
0.000115781
-3.90553e-08
0.000115817
-4.68643e-08
0.000115855
-5.55012e-08
0.000115894
-6.50688e-08
0.000115935
-7.5669e-08
0.000115978
-8.74013e-08
0.000116023
-1.00362e-07
-1.14596e-07
0.000116069
0.000118498
1.9725e-09
0.000118503
5.7197e-09
0.000118511
8.79207e-09
0.000118522
1.09751e-08
0.000118536
1.2268e-08
0.000118552
1.26633e-08
0.00011857
1.22417e-08
0.000118589
1.10978e-08
0.000118609
9.33434e-09
0.000118631
7.04947e-09
0.000118654
4.33133e-09
0.000118677
1.26059e-09
0.000118701
-2.13053e-09
0.000118725
-5.78441e-09
0.000118751
-9.67289e-09
0.000118776
-1.37875e-08
0.000118803
-1.813e-08
0.00011883
-2.27151e-08
0.000118857
-2.75708e-08
0.000118886
-3.27239e-08
0.000118915
-3.82329e-08
0.000118945
-4.41498e-08
0.000118976
-5.05389e-08
0.000119008
-5.74724e-08
0.000119041
-6.50286e-08
0.000119075
-7.32906e-08
0.00011911
-8.23444e-08
0.000119147
-9.22775e-08
0.000119185
-1.03177e-07
0.000119225
-1.15125e-07
0.000119266
-1.282e-07
0.000119308
-1.42476e-07
-1.57971e-07
0.000119351
0.000121883
2.19952e-10
0.000121888
6.08756e-10
0.000121896
5.69867e-10
0.000121907
-1.24837e-10
0.000121921
-1.34884e-09
0.000121937
-3.18113e-09
0.000121955
-5.51677e-09
0.000121974
-8.28537e-09
0.000121995
-1.14125e-08
0.000122017
-1.48361e-08
0.00012204
-1.85085e-08
0.000122063
-2.23952e-08
0.000122088
-2.64807e-08
0.000122113
-3.07516e-08
0.000122138
-3.52107e-08
0.000122164
-3.98729e-08
0.000122191
-4.47616e-08
0.000122218
-4.99089e-08
0.000122246
-5.53565e-08
0.000122274
-6.11494e-08
0.000122303
-6.73456e-08
0.000122333
-7.40068e-08
0.000122364
-8.11996e-08
0.000122395
-8.8995e-08
0.000122428
-9.74675e-08
0.000122461
-1.06693e-07
0.000122496
-1.16747e-07
0.000122531
-1.27706e-07
0.000122567
-1.39639e-07
0.000122605
-1.52613e-07
0.000122643
-1.66686e-07
0.000122683
-1.81913e-07
-1.98291e-07
0.000122723
0.000125365
-1.56016e-09
0.00012537
-4.52773e-09
0.000125379
-7.6829e-09
0.00012539
-1.11954e-08
0.000125403
-1.50133e-08
0.000125419
-1.91067e-08
0.000125437
-2.34e-08
0.000125457
-2.7834e-08
0.000125478
-3.23635e-08
0.0001255
-3.69608e-08
0.000125523
-4.16147e-08
0.000125547
-4.6327e-08
0.000125571
-5.11141e-08
0.000125597
-5.59982e-08
0.000125623
-6.10096e-08
0.000125649
-6.61863e-08
0.000125676
-7.15724e-08
0.000125703
-7.72173e-08
0.000125731
-8.31755e-08
0.000125759
-8.95047e-08
0.000125788
-9.62685e-08
0.000125818
-1.03533e-07
0.000125848
-1.11365e-07
0.000125879
-1.19835e-07
0.00012591
-1.29013e-07
0.000125942
-1.38965e-07
0.000125975
-1.4976e-07
0.000126009
-1.61459e-07
0.000126044
-1.7412e-07
0.000126079
-1.87792e-07
0.000126115
-2.02517e-07
0.000126151
-2.18331e-07
-2.35216e-07
0.000126188
0.000128947
-3.1726e-09
0.000128952
-9.40268e-09
0.00012896
-1.56865e-08
0.000128971
-2.21725e-08
0.000128984
-2.87268e-08
0.000129
-3.52315e-08
0.000129019
-4.16001e-08
0.000129039
-4.77822e-08
0.00012906
-5.37627e-08
0.000129083
-5.95532e-08
0.000129106
-6.51848e-08
0.00012913
-7.07012e-08
0.000129156
-7.61547e-08
0.000129181
-8.16019e-08
0.000129207
-8.71022e-08
0.000129234
-9.2718e-08
0.000129261
-9.85135e-08
0.000129288
-1.04554e-07
0.000129316
-1.10907e-07
0.000129344
-1.1764e-07
0.000129372
-1.2482e-07
0.000129401
-1.32518e-07
0.000129431
-1.40801e-07
0.000129461
-1.49735e-07
0.000129491
-1.59386e-07
0.000129522
-1.69813e-07
0.000129553
-1.81074e-07
0.000129585
-1.9322e-07
0.000129617
-2.06296e-07
0.00012965
-2.20338e-07
0.000129683
-2.35374e-07
0.000129716
-2.51425e-07
-2.6846e-07
0.000129749
0.000132631
-5.17258e-09
0.000132636
-1.46548e-08
0.000132645
-2.39913e-08
0.000132656
-3.33324e-08
0.00013267
-4.25274e-08
0.000132686
-5.14087e-08
0.000132704
-5.98617e-08
0.000132724
-6.78281e-08
0.000132746
-7.53047e-08
0.000132768
-8.23301e-08
0.000132792
-8.89696e-08
0.000132817
-9.53036e-08
0.000132842
-1.01419e-07
0.000132868
-1.07406e-07
0.000132894
-1.13353e-07
0.000132921
-1.19345e-07
0.000132948
-1.25468e-07
0.000132975
-1.31803e-07
0.000133002
-1.38428e-07
0.00013303
-1.45422e-07
0.000133058
-1.52857e-07
0.000133087
-1.60804e-07
0.000133115
-1.69333e-07
0.000133144
-1.78507e-07
0.000133173
-1.88385e-07
0.000133202
-1.99022e-07
0.000133231
-2.10465e-07
0.000133261
-2.22758e-07
0.000133291
-2.35932e-07
0.00013332
-2.50014e-07
0.00013335
-2.65018e-07
0.000133379
-2.80955e-07
-2.97782e-07
0.000133409
0.000136419
-5.97855e-09
0.000136423
-1.86659e-08
0.000136431
-3.14982e-08
0.000136442
-4.43959e-08
0.000136456
-5.68378e-08
0.000136473
-6.84914e-08
0.000136492
-7.92244e-08
0.000136514
-8.90249e-08
0.000136536
-9.79548e-08
0.00013656
-1.06118e-07
0.000136585
-1.13638e-07
0.00013661
-1.20649e-07
0.000136636
-1.2728e-07
0.000136662
-1.33657e-07
0.000136689
-1.39899e-07
0.000136716
-1.46115e-07
0.000136742
-1.52407e-07
0.00013677
-1.58871e-07
0.000136797
-1.65597e-07
0.000136824
-1.72667e-07
0.000136851
-1.8016e-07
0.000136879
-1.88147e-07
0.000136906
-1.96696e-07
0.000136933
-2.05867e-07
0.000136961
-2.15715e-07
0.000136988
-2.26289e-07
0.000137015
-2.37628e-07
0.000137042
-2.49766e-07
0.000137069
-2.62728e-07
0.000137095
-2.76529e-07
0.000137122
-2.91176e-07
0.000137147
-3.06671e-07
-3.22964e-07
0.000137172
0.000140319
-9.5059e-09
0.000140325
-2.4641e-08
0.000140334
-3.98271e-08
0.000140344
-5.52127e-08
0.000140358
-7.03404e-08
0.000140374
-8.46409e-08
0.000140393
-9.77723e-08
0.000140413
-1.09624e-07
0.000140435
-1.20238e-07
0.000140459
-1.29743e-07
0.000140484
-1.38304e-07
0.000140509
-1.46099e-07
0.000140535
-1.53303e-07
0.000140562
-1.60083e-07
0.000140588
-1.6659e-07
0.000140615
-1.72963e-07
0.000140642
-1.79327e-07
0.000140669
-1.85794e-07
0.000140696
-1.92466e-07
0.000140723
-1.99436e-07
0.000140749
-2.06788e-07
0.000140776
-2.14596e-07
0.000140802
-2.22927e-07
0.000140828
-2.3184e-07
0.000140854
-2.41387e-07
0.000140879
-2.5161e-07
0.000140904
-2.62545e-07
0.000140928
-2.74218e-07
0.000140952
-2.86646e-07
0.000140976
-2.99839e-07
0.000140998
-3.13795e-07
0.00014102
-3.28509e-07
-3.4393e-07
0.000141041
0.000144322
-6.60909e-09
0.000144323
-2.57351e-08
0.000144329
-4.65125e-08
0.000144342
-6.74387e-08
0.000144358
-8.69631e-08
0.000144378
-1.04478e-07
0.0001444
-1.19918e-07
0.000144424
-1.33424e-07
0.000144449
-1.45213e-07
0.000144475
-1.55532e-07
0.000144501
-1.64636e-07
0.000144528
-1.72771e-07
0.000144555
-1.80161e-07
0.000144582
-1.87006e-07
0.000144609
-1.93483e-07
0.000144635
-1.99749e-07
0.000144662
-2.05942e-07
0.000144688
-2.12184e-07
0.000144714
-2.18582e-07
0.00014474
-2.25233e-07
0.000144766
-2.32221e-07
0.000144791
-2.3962e-07
0.000144815
-2.47495e-07
0.000144839
-2.55903e-07
0.000144863
-2.64891e-07
0.000144886
-2.74496e-07
0.000144908
-2.84749e-07
0.000144929
-2.95672e-07
0.00014495
-3.07276e-07
0.00014497
-3.19565e-07
0.000144988
-3.32535e-07
0.000145006
-3.46177e-07
-3.60437e-07
0.000145023
0.000148457
-1.55635e-08
0.000148464
-3.27197e-08
0.00014847
-5.24313e-08
0.000148477
-7.48805e-08
0.000148488
-9.78808e-08
0.000148503
-1.19355e-07
0.000148521
-1.38323e-07
0.000148543
-1.54677e-07
0.000148566
-1.68661e-07
0.000148591
-1.80599e-07
0.000148617
-1.90839e-07
0.000148644
-1.99717e-07
0.000148672
-2.07537e-07
0.000148699
-2.14565e-07
0.000148727
-2.2103e-07
0.000148754
-2.27131e-07
0.000148781
-2.33034e-07
0.000148808
-2.38886e-07
0.000148834
-2.4481e-07
0.00014886
-2.50912e-07
0.000148885
-2.57284e-07
0.000148909
-2.64004e-07
0.000148933
-2.71139e-07
0.000148956
-2.78745e-07
0.000148978
-2.86866e-07
0.000148999
-2.95539e-07
0.000149019
-3.04791e-07
0.000149038
-3.14638e-07
0.000149056
-3.25091e-07
0.000149072
-3.36149e-07
0.000149088
-3.47806e-07
0.000149101
-3.60048e-07
-3.72827e-07
0.000149114
0.000152671
2.73838e-09
0.000152666
-2.80242e-08
0.000152675
-6.14476e-08
0.000152694
-9.38925e-08
0.000152718
-1.22032e-07
0.000152745
-1.45918e-07
0.000152773
-1.66025e-07
0.000152801
-1.82894e-07
0.000152829
-1.97032e-07
0.000152857
-2.08905e-07
0.000152886
-2.18951e-07
0.000152913
-2.27553e-07
0.000152941
-2.35036e-07
0.000152968
-2.41673e-07
0.000152995
-2.47699e-07
0.000153021
-2.5331e-07
0.000153047
-2.58673e-07
0.000153072
-2.6393e-07
0.000153096
-2.69204e-07
0.00015312
-2.74597e-07
0.000153143
-2.80198e-07
0.000153165
-2.86083e-07
0.000153186
-2.92314e-07
0.000153206
-2.98945e-07
0.000153225
-3.06018e-07
0.000153243
-3.13565e-07
0.00015326
-3.21611e-07
0.000153276
-3.30172e-07
0.00015329
-3.39255e-07
0.000153302
-3.48859e-07
0.000153314
-3.58977e-07
0.000153323
-3.69596e-07
-3.8067e-07
0.000153331
0.000157078
-2.33732e-08
0.000157077
-2.79027e-08
0.000157065
-4.93755e-08
0.000157057
-8.57395e-08
0.000157059
-1.23984e-07
0.000157071
-1.57655e-07
0.00015709
-1.84828e-07
0.000157113
-2.0655e-07
0.00015714
-2.23961e-07
0.000157169
-2.37918e-07
0.0001572
-2.49162e-07
0.00015723
-2.58317e-07
0.000157261
-2.65886e-07
0.000157292
-2.72275e-07
0.000157322
-2.77809e-07
0.000157351
-2.82747e-07
0.00015738
-2.87302e-07
0.000157408
-2.91645e-07
0.000157434
-2.95915e-07
0.00015746
-3.00229e-07
0.000157484
-3.0468e-07
0.000157508
-3.09348e-07
0.00015753
-3.14295e-07
0.00015755
-3.19575e-07
0.00015757
-3.25228e-07
0.000157587
-3.31284e-07
0.000157603
-3.37767e-07
0.000157618
-3.44691e-07
0.000157631
-3.52061e-07
0.000157642
-3.59878e-07
0.000157651
-3.68133e-07
0.000157658
-3.76817e-07
-3.85887e-07
0.000157663
0.00016147
4.55509e-08
0.000161456
-1.4125e-08
0.000161492
-8.61114e-08
0.000161537
-1.3042e-07
0.000161581
-1.67633e-07
0.000161619
-1.96219e-07
0.000161654
-2.19389e-07
0.000161686
-2.384e-07
0.000161716
-2.53812e-07
0.000161744
-2.66328e-07
0.000161771
-2.76573e-07
0.000161798
-2.85024e-07
0.000161824
-2.92067e-07
0.00016185
-2.98018e-07
0.000161875
-3.03139e-07
0.0001619
-3.07646e-07
0.000161925
-3.11717e-07
0.000161949
-3.155e-07
0.000161972
-3.1912e-07
0.000161994
-3.22682e-07
0.000162016
-3.26274e-07
0.000162036
-3.29971e-07
0.000162056
-3.33833e-07
0.000162074
-3.37912e-07
0.000162091
-3.42249e-07
0.000162107
-3.46877e-07
0.000162121
-3.51819e-07
0.000162133
-3.57094e-07
0.000162144
-3.62709e-07
0.000162153
-3.68669e-07
0.00016216
-3.74969e-07
0.000162164
-3.81602e-07
-3.88537e-07
0.000162167
0.000166191
8.25021e-09
0.000166128
4.89897e-08
0.000166048
-6.36978e-09
0.000165993
-7.5064e-08
0.00016598
-1.55444e-07
0.000165995
-2.10621e-07
0.000166025
-2.49429e-07
0.000166064
-2.77123e-07
0.000166107
-2.97435e-07
0.000166154
-3.12572e-07
0.000166201
-3.23949e-07
0.000166248
-3.32573e-07
0.000166296
-3.39175e-07
0.000166342
-3.44283e-07
0.000166387
-3.4829e-07
0.000166431
-3.51491e-07
0.000166473
-3.54115e-07
0.000166514
-3.56341e-07
0.000166553
-3.5831e-07
0.000166591
-3.60138e-07
0.000166626
-3.61917e-07
0.00016666
-3.63724e-07
0.000166692
-3.65622e-07
0.000166722
-3.67662e-07
0.000166749
-3.69886e-07
0.000166775
-3.72327e-07
0.000166798
-3.75011e-07
0.000166819
-3.77956e-07