/*--------------------------------*- C++ -*----------------------------------*\
  =========                 |
  \\      /  F ield         | OpenFOAM: The Open Source CFD Toolbox
   \\    /   O peration     | Website:  https://openfoam.org
    \\  /    A nd           | Version:  10
     \\/     M anipulation  |
\*---------------------------------------------------------------------------*/
FoamFile
{
    format      ascii;
    class       volVectorField;
    location    "0.07";
    object      U;
}
// * * * * * * * * * * * * * * * * * * * * * * * * * * * * * * * * * * * * * //

dimensions      [0 1 -1 0 0 0 0];

internalField   nonuniform List<vector> 
6820
(
(7.33663 -0.254708 0)
(7.37109 -0.15273 0)
(7.32893 -0.0594634 0)
(7.25199 -0.0117063 0)
(7.1745 0.00799301 0)
(7.1045 0.0140085 0)
(7.04328 0.0145078 0)
(6.99024 0.0131421 0)
(6.94391 0.0114034 0)
(6.90289 0.00983957 0)
(6.86611 0.00859154 0)
(6.83274 0.00764703 0)
(6.80216 0.00695027 0)
(6.77393 0.00644259 0)
(6.74767 0.00607513 0)
(6.72311 0.00581106 0)
(6.70003 0.00562399 0)
(6.67823 0.00549591 0)
(6.65754 0.00541527 0)
(6.63782 0.0053755 0)
(6.61892 0.0053741 0)
(6.60071 0.00541228 0)
(6.58305 0.00549518 0)
(6.56578 0.00563309 0)
(6.54872 0.00584322 0)
(6.53166 0.00615669 0)
(6.51429 0.00663062 0)
(6.49627 0.00733113 0)
(6.47654 0.00872855 0)
(6.45479 0.0100029 0)
(6.42628 0.0176744 0)
(6.38759 0.0186499 0)
(6.3321 0.0318562 0)
(7.32387 0.121392 0)
(7.30439 0.123292 0)
(7.30893 0.0780087 0)
(7.32913 0.0528408 0)
(7.34716 0.0392506 0)
(7.35515 0.0314566 0)
(7.35409 0.0270179 0)
(7.34688 0.0242878 0)
(7.33581 0.0224089 0)
(7.32246 0.0209901 0)
(7.30787 0.0198366 0)
(7.29271 0.0188487 0)
(7.27738 0.0179769 0)
(7.26212 0.017196 0)
(7.24707 0.0164925 0)
(7.23232 0.0158586 0)
(7.21789 0.0152902 0)
(7.20381 0.0147851 0)
(7.19007 0.014343 0)
(7.17667 0.0139655 0)
(7.16358 0.0136562 0)
(7.15077 0.0134218 0)
(7.13822 0.0132725 0)
(7.12588 0.0132252 0)
(7.11372 0.0133046 0)
(7.10168 0.0135584 0)
(7.08975 0.0140405 0)
(7.07778 0.0149419 0)
(7.06626 0.0163346 0)
(7.0541 0.0191935 0)
(7.04616 0.0235488 0)
(7.03723 0.0335242 0)
(7.05244 0.0518573 0)
(7.32565 -0.0437858 0)
(7.32323 -0.0517101 0)
(7.33512 -0.0261666 0)
(7.3429 -0.00266668 0)
(7.34777 0.010504 0)
(7.35188 0.0169781 0)
(7.35478 0.0200751 0)
(7.35621 0.0213898 0)
(7.35612 0.0217647 0)
(7.35466 0.0216739 0)
(7.35204 0.0213655 0)
(7.3485 0.0209671 0)
(7.34424 0.020546 0)
(7.33941 0.0201366 0)
(7.33415 0.019756 0)
(7.32856 0.0194129 0)
(7.32271 0.019112 0)
(7.31666 0.0188571 0)
(7.31045 0.018652 0)
(7.30411 0.018502 0)
(7.29765 0.0184143 0)
(7.29107 0.0183992 0)
(7.28437 0.0184714 0)
(7.27752 0.0186518 0)
(7.2705 0.0189711 0)
(7.26326 0.0194723 0)
(7.25575 0.0202329 0)
(7.24787 0.0213185 0)
(7.23969 0.0230341 0)
(7.23084 0.0251378 0)
(7.22226 0.0292826 0)
(7.21278 0.0321117 0)
(7.20515 0.0394871 0)
(7.33338 0.0117987 0)
(7.33032 0.0329525 0)
(7.32949 0.0334008 0)
(7.33244 0.0277212 0)
(7.33779 0.0243642 0)
(7.34323 0.0229217 0)
(7.34773 0.0223968 0)
(7.35128 0.0222105 0)
(7.35394 0.0221075 0)
(7.35578 0.0220068 0)
(7.3569 0.0218842 0)
(7.35737 0.0217353 0)
(7.35729 0.0215659 0)
(7.35673 0.0213852 0)
(7.35576 0.0212032 0)
(7.35442 0.0210297 0)
(7.35277 0.0208745 0)
(7.35083 0.0207472 0)
(7.34865 0.0206581 0)
(7.34623 0.0206187 0)
(7.34359 0.0206425 0)
(7.34073 0.0207465 0)
(7.33765 0.0209522 0)
(7.33432 0.0212886 0)
(7.33074 0.0217953 0)
(7.32686 0.022527 0)
(7.32267 0.0235666 0)
(7.3181 0.0250154 0)
(7.31321 0.0270831 0)
(7.30785 0.0298607 0)
(7.30257 0.0340224 0)
(7.29715 0.0389983 0)
(7.29303 0.0468592 0)
(7.33122 -0.0035092 0)
(7.33002 -0.00428876 0)
(7.33353 0.0013562 0)
(7.33705 0.00883876 0)
(7.34027 0.0142393 0)
(7.34345 0.0172853 0)
(7.3465 0.0189693 0)
(7.34935 0.0199346 0)
(7.35195 0.0204868 0)
(7.35424 0.0207976 0)
(7.35618 0.0209645 0)
(7.35778 0.0210424 0)
(7.35907 0.0210668 0)
(7.36005 0.0210618 0)
(7.36074 0.0210451 0)
(7.36117 0.0210307 0)
(7.36135 0.0210308 0)
(7.36129 0.0210571 0)
(7.36101 0.0211218 0)
(7.36051 0.0212386 0)
(7.35979 0.0214235 0)
(7.35886 0.0216964 0)
(7.35769 0.0220824 0)
(7.3563 0.0226139 0)
(7.35464 0.0233345 0)
(7.35272 0.0243005 0)
(7.35051 0.0255945 0)
(7.34799 0.0273071 0)
(7.34521 0.0296143 0)
(7.34215 0.0325737 0)
(7.3391 0.0366072 0)
(7.33607 0.0412762 0)
(7.33357 0.0474163 0)
(7.33264 0.00210169 0)
(7.33221 0.00995914 0)
(7.33386 0.0141938 0)
(7.3363 0.0161127 0)
(7.33921 0.0172707 0)
(7.3423 0.0180985 0)
(7.34524 0.0187648 0)
(7.34795 0.0192906 0)
(7.35045 0.0196764 0)
(7.35275 0.0199529 0)
(7.35483 0.0201519 0)
(7.35672 0.0202962 0)
(7.35841 0.0204039 0)
(7.35991 0.0204902 0)
(7.36123 0.0205679 0)
(7.36236 0.0206491 0)
(7.36332 0.0207453 0)
(7.36409 0.0208689 0)
(7.3647 0.0210333 0)
(7.36512 0.0212537 0)
(7.36536 0.0215483 0)
(7.36542 0.0219393 0)
(7.36528 0.0224542 0)
(7.36494 0.023128 0)
(7.36439 0.0240059 0)
(7.36361 0.0251448 0)
(7.3626 0.0266221 0)
(7.36137 0.0285235 0)
(7.35997 0.0309845 0)
(7.35843 0.0340794 0)
(7.35694 0.038046 0)
(7.35559 0.0427289 0)
(7.35465 0.0484898 0)
(7.33258 0.000855755 0)
(7.3324 0.00459418 0)
(7.33421 0.00819554 0)
(7.33675 0.0114481 0)
(7.33945 0.0140872 0)
(7.34218 0.0159198 0)
(7.34478 0.0171371 0)
(7.34721 0.0179543 0)
(7.34951 0.018508 0)
(7.35167 0.0188927 0)
(7.3537 0.0191706 0)
(7.35559 0.0193802 0)
(7.35736 0.0195476 0)
(7.35901 0.0196923 0)
(7.36053 0.0198296 0)
(7.36193 0.019973 0)
(7.3632 0.0201352 0)
(7.36434 0.0203294 0)
(7.36535 0.0205699 0)
(7.36623 0.0208728 0)
(7.36696 0.0212576 0)
(7.36754 0.0217473 0)
(7.36797 0.0223705 0)
(7.36824 0.0231627 0)
(7.36834 0.0241682 0)
(7.36827 0.0254414 0)
(7.36804 0.0270517 0)
(7.36767 0.0290752 0)
(7.36721 0.0316155 0)
(7.36671 0.0347411 0)
(7.36631 0.0385907 0)
(7.36613 0.0431105 0)
(7.3663 0.0484366 0)
(7.33283 0.00136006 0)
(7.33299 0.00543799 0)
(7.33451 0.00904976 0)
(7.33668 0.011798 0)
(7.33908 0.0138374 0)
(7.3416 0.01527 0)
(7.34407 0.0162828 0)
(7.3464 0.0170177 0)
(7.34862 0.0175527 0)
(7.35071 0.0179467 0)
(7.35268 0.0182456 0)
(7.35454 0.0184817 0)
(7.35631 0.018679 0)
(7.35799 0.0188563 0)
(7.35957 0.0190292 0)
(7.36106 0.0192113 0)
(7.36245 0.019416 0)
(7.36375 0.019657 0)
(7.36495 0.0199491 0)
(7.36605 0.0203094 0)
(7.36704 0.0207576 0)
(7.36792 0.0213174 0)
(7.36868 0.0220175 0)
(7.36932 0.0228923 0)
(7.36984 0.0239841 0)
(7.37025 0.025343 0)
(7.37056 0.0270296 0)
(7.3708 0.0291093 0)
(7.37102 0.0316612 0)
(7.37129 0.034744 0)
(7.37171 0.038442 0)
(7.37239 0.0427471 0)
(7.37343 0.0477096 0)
(7.33291 0.00136383 0)
(7.33318 0.0047731 0)
(7.33454 0.00787834 0)
(7.33652 0.0104136 0)
(7.33875 0.012447 0)
(7.34109 0.013978 0)
(7.34341 0.0150964 0)
(7.34564 0.015913 0)
(7.34777 0.0165093 0)
(7.34979 0.0169502 0)
(7.35171 0.0172862 0)
(7.35355 0.0175532 0)
(7.3553 0.0177778 0)
(7.35697 0.0179808 0)
(7.35857 0.0181792 0)
(7.36009 0.0183881 0)
(7.36154 0.0186218 0)
(7.36292 0.0188946 0)
(7.36422 0.0192224 0)
(7.36544 0.0196224 0)
(7.36658 0.0201147 0)
(7.36763 0.0207228 0)
(7.3686 0.0214744 0)
(7.3695 0.0224024 0)
(7.37031 0.0235456 0)
(7.37107 0.0249488 0)
(7.37178 0.0266636 0)
(7.37249 0.0287441 0)
(7.37324 0.0312504 0)
(7.37409 0.0342293 0)
(7.37515 0.037733 0)
(7.3765 0.0417678 0)
(7.37823 0.0463464 0)
(7.33297 0.00134409 0)
(7.33333 0.00442844 0)
(7.33455 0.0072974 0)
(7.33633 0.00967371 0)
(7.33836 0.0115778 0)
(7.34052 0.0130287 0)
(7.3427 0.0141079 0)
(7.34483 0.0149136 0)
(7.34689 0.0155173 0)
(7.34886 0.0159749 0)
(7.35076 0.0163303 0)
(7.35257 0.0166171 0)
(7.35431 0.0168609 0)
(7.35598 0.0170825 0)
(7.35758 0.0172993 0)
(7.35912 0.0175272 0)
(7.36061 0.0177808 0)
(7.36203 0.0180752 0)
(7.36339 0.0184264 0)
(7.36469 0.0188519 0)
(7.36594 0.0193715 0)
(7.36712 0.0200079 0)
(7.36825 0.0207875 0)
(7.36934 0.0217407 0)
(7.37039 0.0229021 0)
(7.37141 0.0243106 0)
(7.37245 0.0260091 0)
(7.37353 0.0280412 0)
(7.3747 0.0304516 0)
(7.37604 0.0332755 0)
(7.3776 0.0365447 0)
(7.3795 0.0402668 0)
(7.38178 0.0444369 0)
(7.333 0.00128608 0)
(7.33339 0.00405673 0)
(7.3345 0.00664085 0)
(7.3361 0.00881937 0)
(7.33797 0.0105989 0)
(7.33997 0.0119962 0)
(7.34203 0.0130657 0)
(7.34406 0.0138809 0)
(7.34604 0.0145023 0)
(7.34796 0.0149797 0)
(7.34981 0.0153543 0)
(7.3516 0.0156588 0)
(7.35333 0.0159188 0)
(7.355 0.0161551 0)
(7.35661 0.0163859 0)
(7.35817 0.0166271 0)
(7.35968 0.016894 0)
(7.36114 0.0172019 0)
(7.36256 0.0175667 0)
(7.36393 0.0180057 0)
(7.36526 0.0185382 0)
(7.36656 0.0191856 0)
(7.36782 0.0199722 0)
(7.36907 0.0209254 0)
(7.37032 0.0220754 0)
(7.37158 0.023455 0)
(7.37289 0.0250987 0)
(7.37428 0.0270405 0)
(7.37581 0.0293126 0)
(7.37753 0.0319396 0)
(7.37952 0.0349394 0)
(7.38185 0.0383148 0)
(7.38458 0.0420515 0)
(7.33302 0.00120616 0)
(7.33342 0.00370917 0)
(7.33443 0.00605125 0)
(7.33588 0.00805923 0)
(7.33759 0.00972163 0)
(7.33945 0.0110501 0)
(7.34138 0.0120851 0)
(7.34331 0.0128859 0)
(7.34522 0.0135054 0)
(7.34709 0.0139881 0)
(7.3489 0.0143714 0)
(7.35067 0.0146855 0)
(7.35238 0.0149551 0)
(7.35405 0.0152005 0)
(7.35567 0.0154396 0)
(7.35725 0.0156883 0)
(7.35878 0.0159619 0)
(7.36028 0.0162755 0)
(7.36175 0.0166447 0)
(7.36319 0.0170861 0)
(7.3646 0.0176179 0)
(7.36599 0.01826 0)
(7.36738 0.0190342 0)
(7.36878 0.0199644 0)
(7.3702 0.0210762 0)
(7.37167 0.0223964 0)
(7.37322 0.0239518 0)
(7.37489 0.0257678 0)
(7.37672 0.0278663 0)
(7.37877 0.0302625 0)
(7.3811 0.0329639 0)
(7.38379 0.0359675 0)
(7.38687 0.0392528 0)
(7.33303 0.00111571 0)
(7.33342 0.00337782 0)
(7.33434 0.0054948 0)
(7.33567 0.00733296 0)
(7.33724 0.00887331 0)
(7.33897 0.0101246 0)
(7.34078 0.0111169 0)
(7.34262 0.0118965 0)
(7.34446 0.012508 0)
(7.34627 0.0129899 0)
(7.34804 0.013376 0)
(7.34978 0.0136942 0)
(7.35148 0.013968 0)
(7.35314 0.0142171 0)
(7.35477 0.0144589 0)
(7.35636 0.014709 0)
(7.35792 0.0149825 0)
(7.35946 0.015294 0)
(7.36098 0.0156583 0)
(7.36247 0.0160913 0)
(7.36397 0.0166095 0)
(7.36546 0.0172308 0)
(7.36696 0.0179743 0)
(7.36849 0.0188604 0)
(7.37008 0.0199099 0)
(7.37173 0.021144 0)
(7.37349 0.0225825 0)
(7.37539 0.0242432 0)
(7.37748 0.0261393 0)
(7.37981 0.0282783 0)
(7.38242 0.0306597 0)
(7.38539 0.0332746 0)
(7.38875 0.0360988 0)
(7.33303 0.00102106 0)
(7.3334 0.00306255 0)
(7.33425 0.00497266 0)
(7.33546 0.00664908 0)
(7.33692 0.00806949 0)
(7.33853 0.00923886 0)
(7.34024 0.0101795 0)
(7.34199 0.0109277 0)
(7.34375 0.0115208 0)
(7.34551 0.0119926 0)
(7.34724 0.0123731 0)
(7.34895 0.0126882 0)
(7.35064 0.0129595 0)
(7.35229 0.0132059 0)
(7.35392 0.0134441 0)
(7.35553 0.0136891 0)
(7.35711 0.0139552 0)
(7.35868 0.0142564 0)
(7.36025 0.0146065 0)
(7.3618 0.01502 0)
(7.36337 0.0155119 0)
(7.36495 0.0160976 0)
(7.36656 0.0167935 0)
(7.36822 0.0176162 0)
(7.36994 0.0185821 0)
(7.37176 0.0197068 0)
(7.37371 0.0210043 0)
(7.37581 0.0224855 0)
(7.37812 0.0241568 0)
(7.38067 0.026019 0)
(7.38351 0.0280656 0)
(7.38669 0.0302829 0)
(7.39026 0.0326441 0)
(7.33303 0.000926027 0)
(7.33338 0.00276232 0)
(7.33417 0.00447993 0)
(7.33528 0.00600018 0)
(7.33662 0.00730049 0)
(7.33813 0.00838291 0)
(7.33974 0.00926409 0)
(7.34141 0.0099725 0)
(7.3431 0.0105392 0)
(7.34481 0.0109933 0)
(7.3465 0.0113614 0)
(7.34818 0.0116666 0)
(7.34985 0.0119292 0)
(7.3515 0.0121668 0)
(7.35313 0.0123949 0)
(7.35475 0.012628 0)
(7.35636 0.0128794 0)
(7.35796 0.0131619 0)
(7.35956 0.0134885 0)
(7.36118 0.0138719 0)
(7.36281 0.0143251 0)
(7.36447 0.0148614 0)
(7.36618 0.015494 0)
(7.36795 0.016236 0)
(7.3698 0.0170994 0)
(7.37176 0.0180953 0)
(7.37386 0.019232 0)
(7.37614 0.0205149 0)
(7.37861 0.0219447 0)
(7.38134 0.023517 0)
(7.38435 0.0252207 0)
(7.3877 0.0270384 0)
(7.3914 0.0289422 0)
(7.33303 0.000832665 0)
(7.33336 0.00247612 0)
(7.33409 0.00401321 0)
(7.33511 0.00538281 0)
(7.33636 0.00656377 0)
(7.33777 0.00755585 0)
(7.33929 0.00837134 0)
(7.34089 0.00903251 0)
(7.34252 0.00956498 0)
(7.34417 0.00999375 0)
(7.34582 0.010342 0)
(7.34748 0.0106306 0)
(7.34912 0.0108779 0)
(7.35076 0.0111001 0)
(7.3524 0.0113117 0)
(7.35402 0.0115259 0)
(7.35565 0.011755 0)
(7.35728 0.0120108 0)
(7.35893 0.0123046 0)
(7.36059 0.0126476 0)
(7.36228 0.0130507 0)
(7.36402 0.0135247 0)
(7.36581 0.01408 0)
(7.36768 0.0147261 0)
(7.36964 0.0154713 0)
(7.37172 0.0163222 0)
(7.37395 0.0172828 0)
(7.37635 0.0183535 0)
(7.37897 0.0195307 0)
(7.38182 0.0208059 0)
(7.38496 0.0221646 0)
(7.38841 0.0235872 0)
(7.39219 0.0250455 0)
(7.33303 0.000742001 0)
(7.33334 0.00220281 0)
(7.33401 0.00356922 0)
(7.33496 0.00479303 0)
(7.33613 0.00585522 0)
(7.33745 0.00675398 0)
(7.3389 0.00749824 0)
(7.34042 0.00810543 0)
(7.34199 0.00859657 0)
(7.34359 0.0089929 0)
(7.3452 0.00931453 0)
(7.34683 0.00957988 0)
(7.34846 0.00980543 0)
(7.35009 0.0100058 0)
(7.35172 0.0101943 0)
(7.35336 0.0103828 0)
(7.355 0.0105824 0)
(7.35666 0.0108035 0)
(7.35833 0.0110558 0)
(7.36004 0.0113488 0)
(7.36178 0.0116913 0)
(7.36358 0.0120916 0)
(7.36544 0.0125573 0)
(7.36739 0.0130949 0)
(7.36944 0.013709 0)
(7.37162 0.0144026 0)
(7.37395 0.0151758 0)
(7.37645 0.0160253 0)
(7.37916 0.0169439 0)
(7.3821 0.0179203 0)
(7.38531 0.0189377 0)
(7.38881 0.019975 0)
(7.39262 0.0210049 0)
(7.33303 0.000654423 0)
(7.33332 0.00194119 0)
(7.33394 0.00314506 0)
(7.33483 0.00422735 0)
(7.33592 0.00517143 0)
(7.33717 0.00597446 0)
(7.33854 0.00664282 0)
(7.34 0.00719008 0)
(7.34151 0.0076334 0)
(7.34306 0.00799062 0)
(7.34464 0.00827904 0)
(7.34624 0.00851472 0)
(7.34785 0.00871221 0)
(7.34947 0.00888457 0)
(7.3511 0.00904354 0)
(7.35274 0.00919973 0)
(7.3544 0.0093628 0)
(7.35607 0.00954163 0)
(7.35778 0.00974442 0)
(7.35952 0.00997871 0)
(7.36131 0.0102513 0)
(7.36316 0.0105682 0)
(7.36508 0.0109342 0)
(7.36709 0.011353 0)
(7.3692 0.0118264 0)
(7.37145 0.0123539 0)
(7.37385 0.0129326 0)
(7.37642 0.0135563 0)
(7.37918 0.0142154 0)
(7.38217 0.0148961 0)
(7.38541 0.0155807 0)
(7.38891 0.0162475 0)
(7.39269 0.0168707 0)
(7.33302 0.000569951 0)
(7.3333 0.00169003 0)
(7.33388 0.00273806 0)
(7.33471 0.00368252 0)
(7.33574 0.00450906 0)
(7.33692 0.00521428 0)
(7.33823 0.00580259 0)
(7.33962 0.00628455 0)
(7.34108 0.00667402 0)
(7.34259 0.0069859 0)
(7.34414 0.00723484 0)
(7.34571 0.00743467 0)
(7.3473 0.00759802 0)
(7.34891 0.00773625 0)
(7.35053 0.00785959 0)
(7.35217 0.00797716 0)
(7.35384 0.00809716 0)
(7.35553 0.00822692 0)
(7.35726 0.00837297 0)
(7.35902 0.00854101 0)
(7.36085 0.00873585 0)
(7.36273 0.00896124 0)
(7.36469 0.00921972 0)
(7.36675 0.00951232 0)
(7.36891 0.00983824 0)
(7.3712 0.0101945 0)
(7.37364 0.0105757 0)
(7.37624 0.0109734 0)
(7.37903 0.0113761 0)
(7.38203 0.0117691 0)
(7.38525 0.0121339 0)
(7.38872 0.012449 0)
(7.39243 0.0126906 0)
(7.33302 0.000488403 0)
(7.33328 0.00144808 0)
(7.33383 0.00234583 0)
(7.33461 0.00315556 0)
(7.33558 0.00386505 0)
(7.3367 0.0044707 0)
(7.33795 0.00497542 0)
(7.33929 0.00538734 0)
(7.3407 0.00571762 0)
(7.34217 0.00597851 0)
(7.34368 0.00618226 0)
(7.34523 0.00634056 0)
(7.3468 0.00646413 0)
(7.34839 0.00656264 0)
(7.35001 0.00664471 0)
(7.35165 0.00671796 0)
(7.35332 0.00678904 0)
(7.35502 0.00686373 0)
(7.35676 0.00694686 0)
(7.35855 0.0070424 0)
(7.36039 0.00715322 0)
(7.3623 0.00728107 0)
(7.36429 0.00742637 0)
(7.36637 0.00758798 0)
(7.36855 0.00776294 0)
(7.37087 0.00794623 0)
(7.37332 0.0081305 0)
(7.37592 0.00830585 0)
(7.3787 0.00845964 0)
(7.38167 0.00857651 0)
(7.38484 0.00863818 0)
(7.38823 0.00862383 0)
(7.39183 0.00851183 0)
(7.33302 0.00040949 0)
(7.33326 0.00121413 0)
(7.33378 0.00196612 0)
(7.33452 0.00264363 0)
(7.33543 0.00323632 0)
(7.3365 0.00374061 0)
(7.3377 0.00415832 0)
(7.33899 0.00449569 0)
(7.34036 0.0047616 0)
(7.34179 0.00496601 0)
(7.34327 0.005119 0)
(7.34479 0.00523023 0)
(7.34634 0.00530857 0)
(7.34792 0.00536201 0)
(7.34953 0.00539757 0)
(7.35117 0.00542132 0)
(7.35283 0.00543836 0)
(7.35454 0.00545288 0)
(7.35628 0.00546812 0)
(7.35808 0.00548634 0)
(7.35993 0.00550868 0)
(7.36185 0.00553504 0)
(7.36385 0.00556403 0)
(7.36594 0.00559266 0)
(7.36813 0.00561624 0)
(7.37044 0.00562818 0)
(7.37287 0.00561978 0)
(7.37545 0.00558016 0)
(7.37819 0.00549611 0)
(7.3811 0.00535222 0)
(7.38418 0.0051308 0)
(7.38746 0.00481211 0)
(7.39092 0.0043769 0)
(7.33302 0.000332879 0)
(7.33325 0.000987014 0)
(7.33374 0.00159699 0)
(7.33444 0.00214442 0)
(7.33531 0.00262071 0)
(7.33633 0.00302244 0)
(7.33748 0.00335065 0)
(7.33873 0.00361006 0)
(7.34006 0.00380763 0)
(7.34146 0.00395129 0)
(7.34291 0.00404912 0)
(7.3444 0.00410887 0)
(7.34593 0.0041376 0)
(7.34749 0.00414163 0)
(7.34909 0.00412639 0)
(7.35072 0.0040964 0)
(7.35238 0.00405527 0)
(7.35408 0.00400568 0)
(7.35582 0.00394931 0)
(7.35761 0.00388693 0)
(7.35947 0.00381797 0)
(7.36138 0.00374081 0)
(7.36337 0.0036525 0)
(7.36545 0.0035486 0)
(7.36762 0.00342308 0)
(7.36991 0.00326818 0)
(7.37231 0.00307434 0)
(7.37483 0.00283014 0)
(7.3775 0.00252229 0)
(7.38032 0.00213574 0)
(7.38329 0.00165369 0)
(7.38642 0.00105784 0)
(7.38971 0.000331326 0)
(7.33302 0.000258222 0)
(7.33324 0.000765555 0)
(7.3337 0.00123627 0)
(7.33437 0.00165462 0)
(7.3352 0.00201362 0)
(7.33618 0.00231024 0)
(7.33729 0.00254511 0)
(7.3385 0.00272185 0)
(7.3398 0.00284589 0)
(7.34116 0.00292345 0)
(7.34258 0.00296085 0)
(7.34405 0.00296407 0)
(7.34556 0.00293848 0)
(7.3471 0.00288881 0)
(7.34868 0.00281894 0)
(7.3503 0.00273182 0)
(7.35195 0.00262953 0)
(7.35364 0.00251329 0)
(7.35537 0.00238312 0)
(7.35715 0.0022389 0)
(7.35899 0.0020783 0)
(7.36089 0.0018983 0)
(7.36286 0.00169469 0)
(7.36491 0.00146188 0)
(7.36704 0.00119285 0)
(7.36928 0.000879084 0)
(7.37162 0.000510545 0)
(7.37407 7.56633e-05 0)
(7.37664 -0.000438608 0)
(7.37934 -0.00104664 0)
(7.38217 -0.00176409 0)
(7.38513 -0.00260767 0)
(7.38822 -0.00359191 0)
(7.33302 0.000185223 0)
(7.33323 0.00054907 0)
(7.33367 0.000883425 0)
(7.3343 0.00117511 0)
(7.3351 0.00141861 0)
(7.33605 0.0016109 0)
(7.33712 0.00175238 0)
(7.3383 0.00184576 0)
(7.33956 0.00189506 0)
(7.3409 0.00190486 0)
(7.34229 0.00187982 0)
(7.34374 0.00182437 0)
(7.34522 0.00174195 0)
(7.34675 0.00163578 0)
(7.34831 0.00150843 0)
(7.34991 0.00136148 0)
(7.35154 0.00119569 0)
(7.35322 0.00101091 0)
(7.35493 0.000806294 0)
(7.35669 0.00057907 0)
(7.3585 0.000326785 0)
(7.36037 4.53414e-05 0)
(7.36231 -0.000270613 0)
(7.36431 -0.00062755 0)
(7.36639 -0.00103317 0)
(7.36856 -0.0014964 0)
(7.37081 -0.00202745 0)
(7.37317 -0.00263772 0)
(7.37562 -0.00333974 0)
(7.37818 -0.00414698 0)
(7.38084 -0.00507379 0)
(7.38362 -0.00613533 0)
(7.38649 -0.00734383 0)
(7.33302 0.000113467 0)
(7.33322 0.000335469 0)
(7.33364 0.000532963 0)
(7.33425 0.000693652 0)
(7.33502 0.000815649 0)
(7.33594 0.000896356 0)
(7.33698 0.000936253 0)
(7.33813 0.000937827 0)
(7.33936 0.000904352 0)
(7.34067 0.000839218 0)
(7.34204 0.000745614 0)
(7.34346 0.000626171 0)
(7.34493 0.000483544 0)
(7.34643 0.000319092 0)
(7.34797 0.000133416 0)
(7.34955 -7.33578e-05 0)
(7.35116 -0.000301827 0)
(7.35281 -0.000553455 0)
(7.3545 -0.000830294 0)
(7.35622 -0.00113631 0)
(7.358 -0.00147499 0)
(7.35983 -0.00185138 0)
(7.36171 -0.00227161 0)
(7.36365 -0.00274276 0)
(7.36566 -0.00327294 0)
(7.36774 -0.00387128 0)
(7.3699 -0.00454787 0)
(7.37213 -0.0053137 0)
(7.37445 -0.00618059 0)
(7.37685 -0.00716098 0)
(7.37933 -0.00826783 0)
(7.3819 -0.00951463 0)
(7.38454 -0.0109115 0)
(7.33302 4.32106e-05 0)
(7.33321 0.000128276 0)
(7.33361 0.000196588 0)
(7.3342 0.000239463 0)
(7.33494 0.000250023 0)
(7.33583 0.000228946 0)
(7.33685 0.000176594 0)
(7.33797 9.40549e-05 0)
(7.33918 -1.66516e-05 0)
(7.34047 -0.000153371 0)
(7.34181 -0.000314173 0)
(7.34321 -0.000497681 0)
(7.34466 -0.000702443 0)
(7.34614 -0.000928282 0)
(7.34766 -0.00117575 0)
(7.34922 -0.00144584 0)
(7.3508 -0.00174025 0)
(7.35242 -0.00206146 0)
(7.35407 -0.00241291 0)
(7.35576 -0.00279806 0)
(7.35749 -0.00322223 0)
(7.35927 -0.00369118 0)
(7.36109 -0.00421143 0)
(7.36296 -0.00479042 0)
(7.36488 -0.0054364 0)
(7.36686 -0.00615844 0)
(7.3689 -0.00696632 0)
(7.371 -0.00787048 0)
(7.37316 -0.0088819 0)
(7.37538 -0.0100119 0)
(7.37767 -0.0112721 0)
(7.38002 -0.0126744 0)
(7.38241 -0.014227 0)
(7.33302 -2.74884e-05 0)
(7.3332 -8.61767e-05 0)
(7.3336 -0.000163651 0)
(7.33417 -0.000266335 0)
(7.33489 -0.000396551 0)
(7.33576 -0.000549226 0)
(7.33676 -0.000721162 0)
(7.33785 -0.000910198 0)
(7.33904 -0.00111467 0)
(7.3403 -0.0013337 0)
(7.34163 -0.00156713 0)
(7.34301 -0.00181535 0)
(7.34443 -0.00207978 0)
(7.34589 -0.0023619 0)
(7.34738 -0.00266363 0)
(7.34891 -0.00298757 0)
(7.35046 -0.00333692 0)
(7.35204 -0.0037154 0)
(7.35366 -0.00412737 0)
(7.3553 -0.00457773 0)
(7.35697 -0.00507223 0)
(7.35868 -0.00561717 0)
(7.36043 -0.00621948 0)
(7.36221 -0.0068868 0)
(7.36403 -0.00762738 0)
(7.3659 -0.00845004 0)
(7.36781 -0.0093641 0)
(7.36976 -0.0103793 0)
(7.37176 -0.0115057 0)
(7.37379 -0.0127534 0)
(7.37587 -0.0141327 0)
(7.37799 -0.0156539 0)
(7.38013 -0.0173236 0)
(7.33301 -9.27449e-05 0)
(7.33318 -0.000269152 0)
(7.33355 -0.000448637 0)
(7.33409 -0.000643237 0)
(7.3348 -0.000854449 0)
(7.33565 -0.00108456 0)
(7.33663 -0.00133324 0)
(7.33772 -0.00159874 0)
(7.3389 -0.00187925 0)
(7.34015 -0.00217355 0)
(7.34147 -0.0024812 0)
(7.34283 -0.00280258 0)
(7.34424 -0.00313882 0)
(7.34568 -0.00349171 0)
(7.34715 -0.00386371 0)
(7.34865 -0.00425797 0)
(7.35017 -0.00467825 0)
(7.35171 -0.00512885 0)
(7.35328 -0.0056147 0)
(7.35487 -0.00614124 0)
(7.35648 -0.00671455 0)
(7.35811 -0.00734129 0)
(7.35977 -0.0080286 0)
(7.36146 -0.00878415 0)
(7.36317 -0.00961606 0)
(7.36491 -0.0105328 0)
(7.36668 -0.0115433 0)
(7.36848 -0.0126564 0)
(7.37029 -0.0138814 0)
(7.37214 -0.0152273 0)
(7.374 -0.0167032 0)
(7.37587 -0.0183179 0)
(7.37776 -0.0200767 0)
(7.33302 -0.000173264 0)
(7.33321 -0.000537687 0)
(7.33358 -0.000931543 0)
(7.33413 -0.00134791 0)
(7.33482 -0.00176994 0)
(7.33565 -0.00218586 0)
(7.33661 -0.00258991 0)
(7.33767 -0.00298077 0)
(7.33882 -0.00336004 0)
(7.34005 -0.003731 0)
(7.34134 -0.00409789 0)
(7.34268 -0.00446539 0)
(7.34406 -0.00483846 0)
(7.34547 -0.00522211 0)
(7.34691 -0.00562145 0)
(7.34838 -0.00604168 0)
(7.34986 -0.00648816 0)
(7.35136 -0.00696646 0)
(7.35287 -0.00748244 0)
(7.3544 -0.00804225 0)
(7.35594 -0.00865237 0)
(7.3575 -0.00931967 0)
(7.35907 -0.0100513 0)
(7.36066 -0.0108547 0)
(7.36225 -0.0117377 0)
(7.36386 -0.0127081 0)
(7.36548 -0.0137742 0)
(7.36711 -0.014944 0)
(7.36875 -0.0162256 0)
(7.37039 -0.0176269 0)
(7.37203 -0.0191557 0)
(7.37367 -0.0208195 0)
(7.37529 -0.0226221 0)
(7.333 -0.000197063 0)
(7.33311 -0.000547862 0)
(7.33341 -0.000889963 0)
(7.33391 -0.00125903 0)
(7.3346 -0.00166427 0)
(7.33545 -0.00210098 0)
(7.33643 -0.00255972 0)
(7.33753 -0.00303129 0)
(7.33871 -0.003509 0)
(7.33996 -0.00398908 0)
(7.34127 -0.00447021 0)
(7.34261 -0.00495307 0)
(7.34399 -0.00543988 0)
(7.34539 -0.005934 0)
(7.34681 -0.00643961 0)
(7.34825 -0.00696161 0)
(7.34969 -0.00750538 0)
(7.35114 -0.00807675 0)
(7.3526 -0.00868195 0)
(7.35406 -0.0093275 0)
(7.35553 -0.0100202 0)
(7.357 -0.0107673 0)
(7.35847 -0.011576 0)
(7.35994 -0.0124538 0)
(7.36141 -0.0134084 0)
(7.36288 -0.0144474 0)
(7.36434 -0.0155785 0)
(7.3658 -0.0168092 0)
(7.36725 -0.018147 0)
(7.36868 -0.0195989 0)
(7.3701 -0.0211718 0)
(7.37149 -0.0228722 0)
(7.37286 -0.0247028 0)
(7.33305 -0.000384066 0)
(7.3333 -0.00121707 0)
(7.33368 -0.00210055 0)
(7.33418 -0.00296648 0)
(7.33481 -0.00376469 0)
(7.33559 -0.00448011 0)
(7.3365 -0.00511719 0)
(7.33752 -0.00568735 0)
(7.33865 -0.00620412 0)
(7.33985 -0.0066811 0)
(7.34112 -0.00713108 0)
(7.34243 -0.0075656 0)
(7.34378 -0.00799488 0)
(7.34515 -0.008428 0)
(7.34654 -0.00887313 0)
(7.34794 -0.00933775 0)
(7.34935 -0.00982888 0)
(7.35075 -0.0103532 0)
(7.35216 -0.0109174 0)
(7.35356 -0.0115279 0)
(7.35496 -0.0121913 0)
(7.35634 -0.0129141 0)
(7.35772 -0.013703 0)
(7.35909 -0.0145647 0)
(7.36044 -0.015506 0)
(7.36177 -0.0165333 0)
(7.36308 -0.0176534 0)
(7.36437 -0.0188727 0)
(7.36564 -0.0201972 0)
(7.36687 -0.021633 0)
(7.36808 -0.0231854 0)
(7.36924 -0.0248597 0)
(7.37036 -0.0266577 0)
(7.33293 -0.000115139 0)
(7.33283 -0.000262006 0)
(7.333 -0.00047435 0)
(7.33349 -0.000875756 0)
(7.33424 -0.00145441 0)
(7.33518 -0.00214839 0)
(7.33625 -0.00290189 0)
(7.33743 -0.00367678 0)
(7.33867 -0.00444946 0)
(7.33996 -0.00520661 0)
(7.34129 -0.0059424 0)
(7.34264 -0.00665625 0)
(7.344 -0.00735103 0)
(7.34537 -0.00803176 0)
(7.34674 -0.00870479 0)
(7.3481 -0.00937724 0)
(7.34946 -0.0100566 0)
(7.35081 -0.0107507 0)
(7.35214 -0.0114672 0)
(7.35346 -0.0122141 0)
(7.35476 -0.012999 0)
(7.35605 -0.0138296 0)
(7.35731 -0.0147135 0)
(7.35854 -0.015658 0)
(7.35975 -0.0166704 0)
(7.36093 -0.0177577 0)
(7.36208 -0.0189266 0)
(7.36319 -0.0201834 0)
(7.36426 -0.0215342 0)
(7.36528 -0.0229847 0)
(7.36626 -0.0245397 0)
(7.36719 -0.0262043 0)
(7.36806 -0.0279798 0)
(7.33316 -0.000835187 0)
(7.33363 -0.00279238 0)
(7.33395 -0.00471235 0)
(7.33423 -0.00632087 0)
(7.33466 -0.00757919 0)
(7.3353 -0.00855223 0)
(7.33613 -0.0093108 0)
(7.33712 -0.00991348 0)
(7.33823 -0.0104075 0)
(7.33943 -0.0108301 0)
(7.34071 -0.0112097 0)
(7.34202 -0.011568 0)
(7.34337 -0.0119216 0)
(7.34473 -0.0122829 0)
(7.34609 -0.0126621 0)
(7.34745 -0.0130672 0)
(7.3488 -0.0135053 0)
(7.35013 -0.0139823 0)
(7.35143 -0.014504 0)
(7.35272 -0.0150759 0)
(7.35397 -0.0157031 0)
(7.35519 -0.0163909 0)
(7.35638 -0.0171444 0)
(7.35753 -0.0179686 0)
(7.35864 -0.0188685 0)
(7.3597 -0.0198492 0)
(7.36072 -0.0209152 0)
(7.36168 -0.0220711 0)
(7.36259 -0.0233213 0)
(7.36344 -0.0246696 0)
(7.36423 -0.0261196 0)
(7.36495 -0.0276748 0)
(7.3656 -0.0293354 0)
(7.33266 0.00055414 0)
(7.33187 0.0018588 0)
(7.33192 0.00256146 0)
(7.33268 0.00231967 0)
(7.33377 0.00141895 0)
(7.33501 0.000190432 0)
(7.33632 -0.00116489 0)
(7.33767 -0.00254173 0)
(7.33904 -0.00388159 0)
(7.3404 -0.00515338 0)
(7.34175 -0.00634532 0)
(7.3431 -0.00745757 0)
(7.34443 -0.00849682 0)
(7.34574 -0.00947317 0)
(7.34703 -0.0103983 0)
(7.3483 -0.0112846 0)
(7.34955 -0.0121439 0)
(7.35077 -0.0129881 0)
(7.35195 -0.0138281 0)
(7.35311 -0.0146742 0)
(7.35423 -0.0155364 0)
(7.35531 -0.0164236 0)
(7.35635 -0.0173444 0)
(7.35734 -0.0183068 0)
(7.35829 -0.0193181 0)
(7.35918 -0.0203852 0)
(7.36002 -0.0215145 0)
(7.3608 -0.0227118 0)
(7.36152 -0.0239822 0)
(7.36216 -0.0253307 0)
(7.36274 -0.0267612 0)
(7.36324 -0.0282775 0)
(7.36366 -0.0298806 0)
(7.33353 -0.00199062 0)
(7.33445 -0.00675003 0)
(7.33408 -0.0111864 0)
(7.33338 -0.0139648 0)
(7.33317 -0.0155387 0)
(7.33353 -0.0164196 0)
(7.33427 -0.0168693 0)
(7.33529 -0.0170594 0)
(7.33648 -0.017109 0)
(7.3378 -0.0170952 0)
(7.33919 -0.0170668 0)
(7.34062 -0.0170542 0)
(7.34206 -0.0170756 0)
(7.3435 -0.0171419 0)
(7.34492 -0.0172596 0)
(7.34631 -0.0174324 0)
(7.34767 -0.0176628 0)
(7.34899 -0.0179524 0)
(7.35026 -0.0183027 0)
(7.35148 -0.018715 0)
(7.35265 -0.019191 0)
(7.35377 -0.0197324 0)
(7.35483 -0.0203413 0)
(7.35582 -0.0210199 0)
(7.35675 -0.0217704 0)
(7.35762 -0.0225952 0)
(7.35841 -0.0234966 0)
(7.35913 -0.0244771 0)
(7.35977 -0.0255386 0)
(7.36032 -0.0266834 0)
(7.3608 -0.0279132 0)
(7.36118 -0.0292297 0)
(7.36147 -0.0306322 0)
(7.33179 0.00341541 0)
(7.329 0.00927221 0)
(7.32947 0.0119445 0)
(7.33185 0.0116994 0)
(7.33402 0.00966132 0)
(7.33584 0.00701588 0)
(7.33748 0.00426502 0)
(7.33898 0.00159893 0)
(7.34038 -0.000881933 0)
(7.34169 -0.00313638 0)
(7.34296 -0.00516259 0)
(7.34418 -0.00697691 0)
(7.34538 -0.00860303 0)
(7.34656 -0.0100671 0)
(7.34772 -0.0113952 0)
(7.34886 -0.0126117 0)
(7.34998 -0.0137388 0)
(7.35108 -0.0147962 0)
(7.35215 -0.0158018 0)
(7.35318 -0.0167711 0)
(7.35419 -0.0177179 0)
(7.35515 -0.0186547 0)
(7.35606 -0.0195921 0)
(7.35692 -0.02054 0)
(7.35772 -0.021507 0)
(7.35847 -0.0225007 0)
(7.35914 -0.0235279 0)
(7.35974 -0.0245947 0)
(7.36027 -0.0257064 0)
(7.36071 -0.0268676 0)
(7.36107 -0.0280824 0)
(7.36133 -0.0293542 0)
(7.3615 -0.0306842 0)
(7.33408 -0.00610616 0)
(7.33407 -0.0188934 0)
(7.33034 -0.0268887 0)
(7.3267 -0.030351 0)
(7.32515 -0.0310905 0)
(7.32541 -0.0306248 0)
(7.32653 -0.0296261 0)
(7.32809 -0.0284218 0)
(7.32994 -0.0272093 0)
(7.33194 -0.0260923 0)
(7.33402 -0.0251159 0)
(7.33613 -0.0242954 0)
(7.33822 -0.0236308 0)
(7.34029 -0.0231144 0)
(7.34231 -0.0227352 0)
(7.34427 -0.0224811 0)
(7.34618 -0.022341 0)
(7.34801 -0.0223047 0)
(7.34978 -0.0223635 0)
(7.35147 -0.0225102 0)
(7.35309 -0.0227391 0)
(7.35462 -0.0230455 0)
(7.35607 -0.0234261 0)
(7.35743 -0.0238783 0)
(7.3587 -0.0244002 0)
(7.35987 -0.0249907 0)
(7.36094 -0.0256489 0)
(7.36192 -0.0263745 0)
(7.36279 -0.0271672 0)
(7.36355 -0.0280269 0)
(7.3642 -0.0289537 0)
(7.36474 -0.0299478 0)
(7.36517 -0.0310073 0)
(7.32967 0.0198683 0)
(7.32498 0.0370307 0)
(7.32933 0.0377291 0)
(7.33516 0.0323398 0)
(7.33887 0.0259369 0)
(7.34113 0.0196491 0)
(7.34302 0.0137791 0)
(7.34483 0.00852437 0)
(7.34666 0.00392952 0)
(7.34857 -5.27731e-05 0)
(7.35058 -0.00349272 0)
(7.35268 -0.00646283 0)
(7.35485 -0.009033 0)
(7.35708 -0.0112668 0)
(7.35934 -0.0132197 0)
(7.36161 -0.0149396 0)
(7.36388 -0.0164672 0)
(7.36612 -0.0178369 0)
(7.36832 -0.0190782 0)
(7.37047 -0.020216 0)
(7.37256 -0.0212715 0)
(7.37458 -0.0222627 0)
(7.37652 -0.0232053 0)
(7.37836 -0.0241127 0)
(7.38011 -0.0249962 0)
(7.38176 -0.0258661 0)
(7.38331 -0.026731 0)
(7.38475 -0.0275986 0)
(7.38607 -0.0284754 0)
(7.38727 -0.0293674 0)
(7.38836 -0.0302796 0)
(7.38932 -0.0312164 0)
(7.39016 -0.0321812 0)
(7.32507 -0.0330694 0)
(7.29739 -0.0587324 0)
(7.27812 -0.0616351 0)
(7.27381 -0.0592316 0)
(7.28042 -0.0556964 0)
(7.29187 -0.05163 0)
(7.30514 -0.0476727 0)
(7.3189 -0.0441528 0)
(7.33238 -0.0411191 0)
(7.34518 -0.0385538 0)
(7.35713 -0.0364199 0)
(7.36817 -0.0346664 0)
(7.37832 -0.0332403 0)
(7.38761 -0.0320931 0)
(7.3961 -0.0311828 0)
(7.40385 -0.0304733 0)
(7.41092 -0.0299347 0)
(7.41736 -0.0295422 0)
(7.42322 -0.0292757 0)
(7.42856 -0.0291188 0)
(7.43341 -0.0290586 0)
(7.43782 -0.0290846 0)
(7.44181 -0.0291885 0)
(7.44543 -0.0293637 0)
(7.44869 -0.0296051 0)
(7.45162 -0.0299086 0)
(7.45426 -0.0302711 0)
(7.4566 -0.03069 0)
(7.45869 -0.0311635 0)
(7.46052 -0.0316901 0)
(7.46212 -0.0322683 0)
(7.4635 -0.0328972 0)
(7.46468 -0.0335744 0)
(7.33915 0.134728 0)
(7.37622 0.12708 0)
(7.39345 0.0872247 0)
(7.38986 0.0533489 0)
(7.37508 0.0283704 0)
(7.35434 0.0106564 0)
(7.33014 -0.00185765 0)
(7.30426 -0.0108052 0)
(7.27772 -0.0172778 0)