/*--------------------------------*- C++ -*----------------------------------*\
  =========                 |
  \\      /  F ield         | OpenFOAM: The Open Source CFD Toolbox
   \\    /   O peration     | Website:  https://openfoam.org
    \\  /    A nd           | Version:  10
     \\/     M anipulation  |
\*---------------------------------------------------------------------------*/
FoamFile
{
    format      ascii;
    class       volScalarField;
    location    "0.125";
    object      k;
}
// * * * * * * * * * * * * * * * * * * * * * * * * * * * * * * * * * * * * * //

dimensions      [0 2 -2 0 0 0 0];

internalField   nonuniform List<scalar> 
6820
(
0.198344
0.194807
0.191209
0.187585
0.183983
0.180429
0.176933
0.173499
0.170127
0.166816
0.163564
0.160367
0.157222
0.154122
0.151063
0.148038
0.14504
0.14206
0.139088
0.136113
0.133121
0.130096
0.127017
0.123862
0.1206
0.117196
0.113607
0.109778
0.105648
0.101129
0.0961441
0.0905952
0.0839311
0.200926
0.200908
0.200489
0.200043
0.199596
0.199142
0.198672
0.198186
0.197681
0.197159
0.196623
0.196073
0.195513
0.194945
0.194372
0.193797
0.193221
0.192646
0.192074
0.191507
0.190944
0.190385
0.18983
0.189274
0.188713
0.188137
0.18753
0.186873
0.186132
0.185256
0.184205
0.182778
0.181287
0.236727
0.0165322
0.0146868
0.0110661
0.00688974
0.00791027
0.00962898
0.0116171
0.0137903
0.0160587
0.0183942
0.0207808
0.0232085
0.0256718
0.0281684
0.0306989
0.0332664
0.0358768
0.0385383
0.0412623
0.0440631
0.0469588
0.0499715
0.0531279
0.0564596
0.0600041
0.063804
0.0679073
0.0723656
0.0772323
0.0825536
0.088383
0.0946771
0.210782
0.14793
0.104881
0.0795251
0.0638915
0.0533145
0.0455188
0.0394025
0.0343931
0.030169
0.0265365
0.0233716
0.0205915
0.0181394
0.0159762
0.0140746
0.0124158
0.0109868
0.00977762
0.00877958
0.00798373
0.00738048
0.00696033
0.00671566
0.00664303
0.00674557
0.00703545
0.00753664
0.0082869
0.00934478
0.0107802
0.0127218
0.0151915
0.223457
0.0826633
0.0209666
0.00406184
0.000645375
0.000413698
0.00074211
0.00107035
0.00133983
0.00156928
0.0017724
0.00195342
0.00211204
0.00224672
0.00235603
0.00243904
0.00249543
0.00252535
0.00252931
0.002508
0.00246213
0.00239233
0.00229893
0.00218196
0.00204116
0.00187613
0.00168633
0.00147183
0.00123385
0.000975947
0.000706314
0.00044216
0.000206183
0.217225
0.114209
0.0531875
0.0295327
0.020442
0.01607
0.0129756
0.0101523
0.00743377
0.0049854
0.00303403
0.00168032
0.000858096
0.000412643
0.000194334
9.51134e-05
5.28606e-05
3.67881e-05
3.29999e-05
3.54454e-05
4.138e-05
4.93296e-05
5.82451e-05
6.69612e-05
7.47342e-05
7.71431e-05
7.85231e-05
4.73371e-05
0.000611192
0.000481031
0.000188634
0.000396111
0.000394379
0.213439
0.1333
0.0664185
0.0342258
0.0207363
0.0149224
0.0120733
0.0104682
0.00944503
0.00872531
0.00818305
0.00775969
0.00742569
0.00719062
0.00697841
0.00676116
0.00652457
0.00625529
0.00594771
0.0056107
0.00526387
0.00492699
0.00461321
0.00432756
0.00406984
0.00383621
0.00362249
0.00342333
0.00323466
0.00305582
0.00288326
0.00272105
0.00256279
0.204044
0.180177
0.128679
0.0732605
0.0393352
0.0229059
0.015289
0.0115533
0.00952696
0.00830427
0.00749615
0.00692404
0.00650728
0.00629321
0.00617342
0.00607904
0.00600124
0.00593717
0.00588063
0.00582387
0.00576069
0.00568817
0.00560865
0.00552591
0.00544301
0.00536099
0.00527902
0.00519554
0.00510881
0.00501717
0.00492085
0.00481804
0.00470995
0.202639
0.187016
0.162029
0.123486
0.0830751
0.053205
0.0346984
0.0239491
0.0176629
0.0137945
0.0112358
0.00940472
0.00803816
0.00725266
0.00688381
0.00668102
0.00654052
0.00642505
0.006323
0.00623232
0.00615097
0.00607532
0.006003
0.00593273
0.0058639
0.00579592
0.00572791
0.00565893
0.00558838
0.00551588
0.00544158
0.00536631
0.00529088
0.201946
0.19047
0.175921
0.156748
0.128202
0.0954436
0.0668716
0.0461659
0.0325457
0.0238327
0.0181718
0.0144032
0.0119469
0.0106743
0.0101332
0.00983527
0.00962267
0.00944537
0.00928639
0.00914088
0.00900564
0.00887615
0.00874758
0.00861525
0.00847572
0.00832703
0.00816819
0.00799897
0.00781975
0.00763142
0.00743564
0.00723473
0.00703089
0.201462
0.192873
0.182168
0.170672
0.155995
0.136703
0.113752
0.0902132
0.0693274
0.0527275
0.0405173
0.0321059
0.0268425
0.0240201
0.0225132
0.0215228
0.0207577
0.0201284
0.0195947
0.019129
0.0187106
0.0183232
0.0179531
0.0175884
0.0172198
0.0168407
0.0164469
0.0160364
0.0156087
0.0151646
0.0147066
0.014238
0.0137624
0.201133
0.194505
0.186438
0.178552
0.169917
0.159261
0.145565
0.128793
0.110448
0.0927871
0.077709
0.0662205
0.0583816
0.0533731
0.0500917
0.0477348
0.0458392
0.0442452
0.0428757
0.041675
0.0405991
0.0396139
0.0386914
0.0378093
0.03695
0.0361002
0.0352506
0.0343954
0.0335324
0.0326616
0.0317862
0.0309111
0.0300397
0.200898
0.195667
0.189372
0.183515
0.177811
0.171875
0.165203
0.157083
0.147122
0.135709
0.123982
0.113309
0.104551
0.097761
0.0924963
0.088279
0.0847058
0.0816244
0.0789574
0.0766355
0.074591
0.0727616
0.0710934
0.0695421
0.0680729
0.0666595
0.0652827
0.0639289
0.0625907
0.0612631
0.0599479
0.0586488
0.0573643
0.200734
0.196474
0.191411
0.186935
0.182958
0.179264
0.175563
0.171416
0.166444
0.16056
0.154059
0.147505
0.141442
0.136074
0.131275
0.126908
0.122905
0.119271
0.116003
0.113074
0.110442
0.108059
0.10588
0.103864
0.101977
0.100189
0.0984775
0.0968223
0.0952103
0.09363
0.0920784
0.0905546
0.089045
0.200619
0.19704
0.192827
0.189257
0.186323
0.183882
0.181754
0.179657
0.177289
0.174449
0.171096
0.167358
0.163449
0.159375
0.155192
0.151024
0.147017
0.143279
0.139867
0.136795
0.134047
0.131588
0.129378
0.127373
0.125534
0.123824
0.122213
0.120676
0.119193
0.117746
0.116326
0.114925
0.113517
0.200539
0.19743
0.193795
0.190818
0.18853
0.186798
0.185437
0.184207
0.182881
0.181303
0.179357
0.176992
0.17426
0.171187
0.167881
0.164483
0.161122
0.1579
0.154886
0.152112
0.149586
0.147295
0.145218
0.143325
0.141586
0.139973
0.13846
0.13702
0.135635
0.134284
0.132956
0.131639
0.130296
0.200487
0.197688
0.194429
0.191809
0.189882
0.188509
0.187499
0.186641
0.185733
0.184617
0.183171
0.181323
0.179068
0.176464
0.173613
0.170637
0.167659
0.16478
0.162069
0.159566
0.157286
0.155221
0.153356
0.151665
0.150122
0.148699
0.147369
0.146107
0.144891
0.143698
0.142512
0.141322
0.140083
0.200455
0.197843
0.194794
0.192322
0.190513
0.189235
0.18831
0.187541
0.186746
0.18578
0.184544
0.182989
0.181116
0.178969
0.176626
0.174178
0.171714
0.169312
0.167025
0.164889
0.162917
0.161109
0.159454
0.157935
0.156531
0.15522
0.153981
0.152789
0.151628
0.150469
0.149282
0.148071
0.14681
0.200442
0.197911
0.194921
0.192453
0.19062
0.1893
0.188329
0.187524
0.186718
0.185779
0.184621
0.183204
0.181529
0.179634
0.177582
0.175449
0.173308
0.171222
0.169237
0.167383
0.165672
0.164103
0.162667
0.161347
0.160125
0.158979
0.157888
0.156832
0.155777
0.15466
0.15344
0.152161
0.150891
0.200444
0.197902
0.19485
0.192283
0.190328
0.188877
0.187775
0.186853
0.185957
0.184973
0.183831
0.182501
0.18099
0.179328
0.177567
0.175761
0.173966
0.172225
0.170572
0.169026
0.167594
0.166275
0.165058
0.16393
0.162872
0.161868
0.160895
0.159921
0.158877
0.157708
0.15639
0.154984
0.153651
0.200463
0.197815
0.194591
0.191825
0.189661
0.188002
0.186701
0.185602
0.184563
0.183485
0.182308
0.181009
0.179591
0.178082
0.176519
0.174945
0.173402
0.171922
0.170529
0.169237
0.168047
0.166957
0.165955
0.165026
0.164156
0.163318
0.162466
0.161541
0.160493
0.159293
0.157927
0.156447
0.155043
0.200499
0.197644
0.194129
0.19106
0.188602
0.186664
0.18511
0.183791
0.182577
0.181379
0.180145
0.178856
0.177514
0.17614
0.174761
0.173407
0.172107
0.170882
0.169745
0.168703
0.167754
0.16689
0.166098
0.165366
0.164666
0.163942
0.163142
0.162226
0.161167
0.159943
0.158542
0.157005
0.155514
0.200555
0.197375
0.193429
0.189943
0.187105
0.18483
0.182983
0.18142
0.180018
0.178694
0.177397
0.176107
0.174822
0.173555
0.172324
0.171148
0.170047
0.169033
0.168113
0.167287
0.166549
0.16589
0.165294
0.164736
0.164157
0.163509
0.162761
0.161888
0.16087
0.159684
0.158315
0.156797
0.155293
0.200638
0.196982
0.192433
0.188394
0.185081
0.182406
0.180228
0.178401
0.176801
0.175344
0.173978
0.172679
0.17144
0.170264
0.169161
0.168144
0.167221
0.166398
0.165676
0.165051
0.164513
0.164047
0.163611
0.163161
0.162657
0.162073
0.16139
0.160587
0.159641
0.158531
0.157238
0.155789
0.15432
0.200757
0.19642
0.191046
0.186294
0.182412
0.179291
0.176773
0.174692
0.172914
0.171347
0.169931
0.168635
0.167443
0.166354
0.165368
0.16449
0.163723
0.163068
0.162521
0.162071
0.161702
0.161378
0.161055
0.1607
0.160291
0.159809
0.159234
0.158546
0.157725
0.156748
0.155594
0.154283
0.152925
0.20093
0.1956
0.189084
0.183406
0.17883
0.175197
0.172304
0.169953
0.167989
0.166305
0.164832
0.163528
0.162371
0.16135
0.160462
0.159703
0.159074
0.158569
0.158181
0.157879
0.157626
0.157393
0.157159
0.156903
0.156607
0.156254
0.155824
0.155297
0.154653
0.153867
0.152919
0.151821
0.150659
0.201184
0.1944
0.186338
0.179519
0.174175
0.17004
0.16682
0.164259
0.162165
0.16041
0.158911
0.157618
0.156503
0.155548
0.154746
0.154091
0.153574
0.153185
0.152909
0.152709
0.152554
0.152427
0.152308
0.15218
0.152027
0.151828
0.151568
0.151225
0.150779
0.15021
0.149494
0.148638
0.147712
0.201564
0.192601
0.182376
0.17406
0.167765
0.163028
0.159419
0.156604
0.154347
0.152493
0.150946
0.149643
0.148548
0.147641
0.146909
0.14634
0.145904
0.145581
0.145361
0.145226
0.145161
0.14515
0.145174
0.145216
0.145256
0.145275
0.145256
0.145177
0.14502
0.144761
0.14438
0.143877
0.143303
0.202138
0.189885
0.176777
0.166759
0.15956
0.15434
0.150457
0.147471
0.1451
0.143169
0.141573
0.14024
0.139129
0.138219
0.137497
0.136945
0.136539
0.136263
0.136108
0.136063
0.13611
0.136233
0.136412
0.136628
0.136861
0.137092
0.137302
0.137473
0.137585
0.137617
0.13755
0.137382
0.137151
0.203069
0.185478
0.168169
0.155843
0.147456
0.141608
0.137372
0.134175
0.131677
0.129676
0.128042
0.126674
0.125518
0.124556
0.123782
0.123194
0.122785
0.12255
0.122481
0.122563
0.122778
0.123107
0.123528
0.124019
0.124559
0.125125
0.125698
0.126256
0.126779
0.127247
0.127639
0.12795
0.128207
0.204593
0.178231
0.155701
0.141226
0.131879
0.125467
0.120805
0.117253
0.114457
0.11221
0.110366
0.108826
0.107544
0.1065
0.105685
0.105092
0.104716
0.104551
0.104584
0.104802
0.105187
0.105716
0.106368
0.107119
0.107945
0.108826
0.109739
0.110662
0.111576
0.112459
0.113294
0.114071
0.114809
0.20726
0.165416
0.135525
0.118445
0.108042
0.10106
0.0960203
0.0921986
0.0892134
0.0868386
0.0849271
0.0833836
0.0821503
0.0811923
0.0804888
0.0800275
0.0797998
0.0797985
0.080015
0.0804381
0.0810535
0.0818437
0.0827884
0.0838658
0.0850529
0.0863259
0.0876616
0.0890368
0.0904293
0.0918175
0.0931814
0.0945077
0.0958062
0.213406
0.135711
0.0950528
0.0759842
0.0658425
0.0596404
0.0554799
0.0525323
0.0503654
0.048721
0.0474426
0.0464396
0.0456616
0.0450807
0.0446816
0.0444565
0.0444022
0.0445186
0.0448076
0.0452715
0.0459115
0.046726
0.0477098
0.0488531
0.0501418
0.0515582
0.053082
0.0546914
0.0563641
0.0580778
0.0598118
0.0615466
0.0632817
0.221397
0.0950713
0.048846
0.0332992
0.027236
0.0242683
0.0225155
0.0213531
0.0205222
0.0198941
0.0194027
0.0190156
0.0187175
0.0185014
0.0183648
0.018308
0.0183337
0.0184466
0.0186526
0.018958
0.0193689
0.0198899
0.0205234
0.0212696
0.0221253
0.0230846
0.0241386
0.0252757
0.0264826
0.0277443
0.0290459
0.0303717
0.0317164
0.225356
0.0740362
0.0287361
0.0160631
0.0121489
0.0106354
0.0098408
0.00930494
0.00889683
0.00857307
0.00831215
0.00809838
0.00792086
0.00777376
0.00765547
0.00756727
0.00751221
0.00749403
0.00751635
0.00758229
0.00769456
0.0078558
0.00806877
0.0083363
0.00866076
0.00904345
0.00948396
0.00997991
0.0105269
0.011119
0.0117494
0.01241
0.0130971
0.223551
0.0807867
0.0355743
0.0221446
0.0174668
0.0152032
0.0136506
0.0123467
0.011169
0.0100886
0.00909969
0.00819977
0.00738637
0.00665662
0.00600705
0.00543299
0.00492895
0.00448891
0.00410664
0.00377582
0.00349037
0.00324465
0.00303363
0.00285292
0.00269878
0.00256805
0.00245802
0.00236639
0.00229116
0.0022305
0.00218308
0.00214609
0.0021268
0.213291
0.134356
0.0886283
0.0646961
0.0514111
0.043258
0.0377589
0.0337722
0.0307298
0.0283162
0.026345
0.0246948
0.0232834
0.0220548
0.0209691
0.0199969
0.0191166
0.018312
0.0175708
0.016883
0.016241
0.0156384
0.0150702
0.0145324
0.0140216
0.0135351
0.0130707
0.0126266
0.0122011
0.0117929
0.0113999
0.0110248
0.010651
0.24025
0.000465296
0.0365146
0.0330709
0.000606977
0.000182082
0.00257501
0.0013308
0.000382526
0.000265398
0.000738983
0.00120957
0.000969554
0.000458755
0.000316521
0.000389816
0.000432498
0.000444959
0.000466351
0.000494179
0.000519237
0.000541048
0.000561417
0.000580557
0.000598047
0.000613799
0.000627942
0.000640574
0.000651731
0.000661408
0.000669515
0.000676165
0.000681077
0.200085
0.199945
0.199755
0.199569
0.199392
0.199222
0.199054
0.198888
0.19872
0.198551
0.198379
0.198204
0.198026
0.197843
0.197658
0.197468
0.197275
0.197077
0.196876
0.196671
0.196462
0.196249
0.196032
0.195812
0.195589
0.195363
0.195134
0.194901
0.194667
0.194429
0.194189
0.193951
0.193696
0.199875
0.199567
0.199234
0.19889
0.198542
0.198197
0.197857
0.197524
0.1972
0.196884
0.196578
0.196282
0.195996
0.195719
0.195453
0.195197
0.19495
0.194714
0.194488
0.194271
0.194064
0.193866
0.193678
0.193498
0.193327
0.193165
0.19301
0.192863
0.192723
0.19259
0.192464
0.192344
0.19223
0.0777177
0.0738299
0.0711489
0.0683666
0.0666416
0.0715013
0.0833639
0.0995843
0.122368
0.146155
0.147626
0.135848
0.126608
0.105702
0.0712142
0.0373316
0.0152954
0.00341858
0.0150208
0.0510941
0.0794859
0.088321
0.0852936
0.0795369
0.0772968
0.0819765
0.093225
0.108252
0.123048
0.132904
0.135667
0.131477
0.121594
0.108137
0.0936505
0.0826751
0.0771333
0.0705186
0.0558646
0.0363801
0.0232281
0.0222952
0.0309069
0.029409
0.0231545
0.074595
0.155041
0.218712
0.262245
0.294471
0.318055
0.329273
0.323486
0.301035
0.261647
0.193094
0.113173
0.071595
0.0807855
0.110222
0.132641
0.14193
0.142951
0.140875
0.138185
0.135523
0.132831
0.129898
0.126519
0.122542
0.117879
0.112553
0.106716
0.100654
0.0947032
0.0891665
0.0845208
0.081399
0.0802671
0.0813145
0.0839079
0.0860735
0.0854834
0.0811689
0.073703
0.064271
0.0549994
0.0477071
0.0414508
0.0334098
0.0226969
0.0124513
0.00769008
0.0117779
0.0236867
0.0367986
0.0433629
0.0410774
0.0335122
0.0246931
0.177091
0.17148
0.165236
0.157574
0.146351
0.126437
0.103353
0.0928686
0.0982235
0.108234
0.11246
0.121255
0.116497
0.0876894
0.0502125
0.0212557
0.00656855
0.000399049
0.00388224
0.0322826
0.0670119
0.0850394
0.0868673
0.0820429
0.0781084
0.0795542
0.0871492
0.0988162
0.110978
0.119531
0.122073
0.118622
0.110424
0.0992312
0.0875363
0.0797409
0.0757119
0.0677925
0.0509826
0.0314425
0.020753
0.023082
0.0332683
0.0380461
0.0251362
0.049872
0.122396
0.192558
0.241228
0.273386
0.294147
0.302795
0.295716
0.274819
0.230822
0.155846
0.0871524
0.0677772
0.0898996
0.11941
0.137083
0.142713
0.142219
0.139843
0.137224
0.13466
0.13203
0.129143
0.125808
0.121865
0.117216
0.111859
0.10592
0.0996498
0.0933517
0.0874469
0.0825653
0.0793097
0.0780785
0.0789795
0.0813595
0.0833858
0.0829047
0.0789749
0.0720596
0.0631703
0.0542732
0.0472537
0.041313
0.0335986
0.0229921
0.0124117
0.00682148
0.00982601
0.0210785
0.0346351
0.0423727
0.0410761
0.0337764
0.0246766
0.102896
0.112186
0.121361
0.130776
0.140217
0.146037
0.141933
0.129443
0.118563
0.114691
0.122058
0.12157
0.0970665
0.0591777
0.026452
0.00799216
0.00170348
0.000535151
0.0019764
0.0160168
0.04966
0.0766566
0.0862147
0.0844489
0.0800064
0.0786761
0.0826211
0.0906487
0.0998125
0.106759
0.10892
0.106294
0.0999504
0.0910582
0.082321
0.0775273
0.0739923
0.0636588
0.044623
0.0259851
0.0188231
0.0249648
0.0368653
0.045989
0.0349464
0.0347796
0.0867329
0.157666
0.213372
0.249002
0.269283
0.275654
0.268522
0.245176
0.190644
0.115381
0.0677669
0.0712352
0.101293
0.127524
0.139991
0.142636
0.141193
0.138738
0.136221
0.133731
0.131143
0.128291
0.124992
0.121074
0.116419
0.111004
0.104927
0.0984109
0.0918106
0.0856598
0.0806051
0.0772089
0.0758359
0.0765515
0.0787042
0.0805861
0.0801886
0.0765958
0.0702026
0.0619003
0.0535061
0.04695
0.0415363
0.0342906
0.0237957
0.0128143
0.00637932
0.00837137
0.0191382
0.0334018
0.0426214
0.0426517
0.0359339
0.0267307
0.0192327
0.0253112
0.0332937
0.0441071
0.0591544
0.0789504
0.0994129
0.113596
0.11904
0.121157
0.114227
0.090439
0.0564145
0.0259784
0.00791153
0.00165803
0.00164521
0.00260783
0.000269796
0.00535028
0.0307576
0.0623299
0.0811643
0.0853489
0.0824153
0.0793886
0.080086
0.0845425
0.0906199
0.0956353
0.0972727
0.0955342
0.0908828
0.0841277
0.0784535
0.0759775
0.0713243
0.0575177
0.0368176
0.0205985
0.0181613
0.0284198
0.0423553
0.0534543
0.0487602
0.0336122
0.0561127
0.115504
0.175096
0.216663
0.239505
0.24583
0.23687
0.203997
0.140769
0.0788242
0.0597894
0.0817721
0.113373
0.133801
0.141387
0.141923
0.140015
0.137605
0.135174
0.132726
0.130162
0.127336
0.12407
0.120173
0.115501
0.110007
0.103772
0.0970304
0.090192
0.0838327
0.0785959
0.0750321
0.0734923
0.0740081
0.0759274
0.0776515
0.0773151
0.0740406
0.0681652
0.0604729
0.0526168
0.0465559
0.0417052
0.0349778
0.0246572
0.0133661
0.00618593
0.00701611
0.0164483
0.0299329
0.0395615
0.0411682
0.0362339
0.0286209
3.70061e-05
0.000145857
0.000839116
0.00264215
0.00663251
0.0147665
0.0282572
0.0441179
0.0562668
0.0587775
0.0491376
0.0317477
0.0148233
0.00435378
0.00112033
0.00207013
0.00372083
0.00513697
0.00357024
0.00164652
0.0147435
0.0434665
0.0697663
0.0824346
0.0839222
0.0812172
0.0796008
0.0809302
0.0841199
0.0871284
0.0881975
0.087083
0.0835776
0.0788835
0.0761663
0.0744345
0.066605
0.048886
0.0280453
0.0162151
0.0195397
0.0338753
0.0498706
0.0614656
0.0627973
0.0452928
0.040307
0.0742469
0.126764
0.171409
0.197776
0.205053
0.190629
0.147786
0.0897164
0.0558541
0.0650041
0.0966338
0.124006
0.137798
0.141566
0.140852
0.138784
0.136442
0.134056
0.131622
0.129068
0.126263
0.123024
0.119147
0.11446
0.108889
0.102506
0.0955619
0.0884981
0.0819178
0.0764743
0.0727188
0.0709918
0.071295
0.0729778
0.0745368
0.0742348
0.0712394
0.0658561
0.0587964
0.0515433
0.0460621
0.0418776
0.035773
0.0256758
0.0140578
0.00609127
0.00562568
0.0133126
0.0252807
0.034524
0.037269
0.0341533
0.0287644
0.000191243
0.000302881
0.000113468
0.000796039
0.00104328
0.000145112
0.00135203
0.00462758
0.00799091
0.00800159
0.00477759
0.00127806
0.000107299
0.00101872
0.00266538
0.00419467
0.00510715
0.00575547
0.00552231
0.00232669
0.00501798
0.0242166
0.0520231
0.073109
0.0820147
0.0826097
0.0806551
0.0797218
0.0804238
0.0815771
0.0819637
0.0809141
0.0782222
0.0757982
0.0750083
0.0713693
0.0585613
0.0378297
0.0194378
0.0140807
0.0237103
0.0416774
0.059237
0.0709495
0.0753625
0.0636484
0.0441727
0.0477217
0.0784439
0.115439
0.140882
0.146863
0.12723
0.0870504
0.0534558
0.0530545
0.0806058
0.111894
0.131744
0.139693
0.140956
0.139626
0.137526
0.135218
0.132838
0.130396
0.12784
0.125047
0.12183
0.117969
0.11327
0.107632
0.101115
0.0939786
0.0866905
0.0798788
0.0742111
0.0702437
0.0683097
0.0683898
0.0698408
0.0712445
0.0709767
0.0682503
0.0633528
0.0569419
0.0503231
0.0454395
0.0419292
0.036473
0.0266379
0.0147215
0.00601751
0.00440516
0.010648
0.0214811
0.0305512
0.0342225
0.0322924
0.0282049
0.00237506
0.00215363
0.00192306
0.0016581
0.00134126
0.000763763
0.000411044
0.000438325
0.000171229
2.5239e-05
0.000154374
0.000763067
0.00182869
0.00309806
0.00421903
0.00507543
0.00563275
0.00591444
0.00621792
0.00446337
0.00210068
0.00983562
0.0314332
0.05638
0.0735589
0.0806607
0.0814166
0.0801514
0.0791683
0.0787389
0.0782009
0.0769187
0.0753336
0.0747907
0.0731454
0.0644825
0.0464596
0.0254906
0.0128429
0.0155387
0.031215
0.0519112
0.0701577
0.0819339
0.0870121
0.0819505
0.0627369
0.045936
0.0485977
0.0654835
0.0809455
0.0820258
0.0655487
0.0459055
0.0451688
0.0684494
0.100108
0.124129
0.136257
0.140076
0.13995
0.138343
0.136219
0.133896
0.131485
0.129013
0.126438
0.123644
0.12044
0.116592
0.111881
0.106184
0.0995458
0.0922294
0.0847231
0.0776763
0.0717716
0.0675746
0.0654173
0.0652679
0.0664968
0.0677626
0.0675359
0.0650642
0.0606275
0.0548642
0.0489177
0.0446713
0.0418704
0.0371096
0.0275738
0.0153561
0.00593284
0.00339548
0.0088963
0.019869
0.0299528
0.0348796
0.0334183
0.0287244
0.00457784
0.00441238
0.00422471
0.00400889
0.00375223
0.00345355
0.00307493
0.00271795
0.00248842
0.00256022
0.00289499
0.00344197
0.00405353
0.00464453
0.0053154
0.00613728
0.00688777
0.00710031
0.00700245
0.00631498
0.00345739
0.00321554
0.0140716
0.035176
0.0569165
0.0716424
0.0783197
0.0798144
0.0791841
0.0780589
0.0767866
0.0755395
0.0748039
0.0734182
0.0669248
0.0518242
0.0312201
0.0143876
0.0105075
0.0216353
0.0421837
0.0643025
0.0822412
0.093694
0.0986802
0.0972879
0.0852362
0.0648831
0.0492174
0.0445627
0.0450987
0.0420508
0.0374084
0.0423013
0.0629867
0.0920161
0.116976
0.131913
0.138225
0.139617
0.13878
0.137004
0.134815
0.13243
0.12995
0.12741
0.124785
0.121967
0.118765
0.114929
0.110214
0.104472
0.0977283
0.0902491
0.0825362
0.0752572
0.0691099
0.0646723
0.0622808
0.0618994
0.0629154
0.0640598
0.0638913
0.0616871
0.0577157
0.0526079
0.0473591
0.0437495
0.0416329
0.0375745
0.0284042
0.0159752
0.00593525
0.00259498
0.00746001
0.0187113
0.0300752
0.036517
0.0355875
0.0299736
0.00520709
0.00511363
0.00502155
0.00493159
0.00484219
0.00475118
0.00465727
0.00456485
0.00453645
0.00457458
0.00466768
0.00482267
0.0051457
0.00588351
0.00720929
0.00889924
0.0103222
0.0106965
0.0098501
0.00859075
0.00627815
0.00308228
0.00462292
0.0161342
0.0349803
0.0536792
0.0669306
0.0739433
0.0765346
0.0767427
0.0758774
0.0746234
0.0723449
0.0660948
0.052897
0.0340481
0.0161845
0.00800069
0.0143301
0.0327101
0.0562084
0.0782176
0.094884
0.105355
0.11016
0.110113
0.104164
0.0902495
0.0725037
0.058166
0.0496657
0.0468304
0.0521216
0.0681109
0.0910826
0.112959
0.128063
0.13587
0.138676
0.138769
0.137508
0.135564
0.133261
0.130759
0.128145
0.125471
0.122739
0.119865
0.116655
0.11284
0.108143
0.102382
0.0955635
0.0879502
0.0800543
0.0725588
0.066176
0.0614976
0.0588697
0.0582594
0.0590753
0.0601166
0.0600246
0.0581013
0.0545982
0.0501498
0.045631
0.0426826
0.0412755
0.0380054
0.0293292
0.0167687
0.00614476
0.00199017
0.00598498
0.0170346
0.0293174
0.037265
0.0371926
0.0312021
0.00679766
0.00653536
0.00628208
0.00604849
0.00584552
0.00568313
0.00557038
0.00551537
0.00553395
0.00563096
0.00590607
0.00656646
0.00791878
0.0101789
0.0131739
0.0162293
0.0184007
0.0188303
0.0171458
0.0141113
0.0106874
0.0066053
0.00327113
0.00525948
0.0152789
0.0306519
0.0460743
0.0577882
0.064842
0.0680384
0.0685251
0.0662731
0.0600319
0.0483543
0.032142
0.0158739
0.00644164
0.00944057
0.0250342
0.04819
0.0723516
0.0927233
0.107246
0.116138
0.120461
0.121014
0.11819
0.111055
0.0997751
0.0878764
0.0798322
0.0789449
0.0859473
0.0992626
0.114243
0.126382
0.133911
0.137462
0.138373
0.1377
0.136101
0.133962
0.131487
0.128777
0.125914
0.122993
0.120074
0.117103
0.113886
0.11012
0.105485
0.0997569
0.0929176
0.085221
0.077187
0.0695112
0.0629185
0.0580146
0.0551588
0.0543297
0.0549609
0.0559166
0.0559209
0.0543053
0.051294
0.0475187
0.0437594
0.0414872
0.0407881
0.0383678
0.0303264
0.0177401
0.00656777
0.00161507
0.00455987
0.0147877
0.0272068
0.0360905
0.0368974
0.0312716
0.0132124
0.0125825
0.0119567
0.0113572
0.0108127
0.0103594
0.010042
0.00992243
0.0100607
0.010633
0.0118945
0.0141073
0.0174104
0.0216144
0.0261026
0.0299698
0.0323044
0.0324307
0.0299912
0.0252545
0.0194235
0.0134967
0.00777371
0.003891
0.00480379
0.0116685
0.0223956
0.0334376
0.0420258
0.0469822
0.0479499
0.044385
0.0361455
0.024361
0.0121322
0.00446147
0.00646336
0.0198929
0.0418294
0.0666849
0.089263
0.106679
0.118384
0.125318
0.128772
0.129591
0.12827
0.12494
0.11959
0.113427
0.109268
0.109259
0.113479
0.120489
0.127717
0.133245
0.13652
0.137825
0.137642
0.136415
0.134503
0.132127
0.129371
0.126285
0.12299
0.119667
0.11646
0.113357
0.110152
0.106494
0.102002
0.0963962
0.0896251
0.0819298
0.0738337
0.0660427
0.0592922
0.0541994
0.0511399
0.0501115
0.0505786
0.051467
0.0515824
0.0502937
0.0477946
0.0447032
0.0417344
0.0401699
0.0401954
0.038705
0.0314673
0.0189622
0.0072175
0.00144748
0.00330473
0.0125212
0.0247743
0.0342926
0.0358634
0.0306608
0.029058
0.0279574
0.0268866
0.0258851
0.0250081
0.0243286
0.0239443
0.0239807
0.0245952
0.0260342
0.0284907
0.0320147
0.0363963
0.0411162
0.0454414
0.0486169
0.0500451
0.0493547
0.0462779
0.0407811
0.0333739
0.0252435
0.017345
0.0103068
0.00540158
0.00418566
0.00694685
0.0121834
0.0175619
0.0210295
0.021286
0.0181675
0.0123922
0.00588714
0.00207924
0.00517475
0.0176041
0.0381882
0.0627141
0.0862451
0.10535
0.118903
0.12747
0.132348
0.134761
0.135487
0.134938
0.133384
0.131061
0.128506
0.126782
0.126739
0.128411
0.131214
0.134105
0.136293
0.137438
0.137484
0.136553
0.134875
0.132648
0.129926
0.126678
0.122954
0.118977
0.115069
0.111478
0.10823
0.105092
0.101643
0.0974196
0.0920729
0.0855052
0.0779386
0.0698967
0.0620927
0.0552692
0.0500516
0.0468315
0.0456335
0.0459602
0.0467976
0.0470314
0.0460817
0.0441176
0.0417255
0.0395738
0.0387445
0.0394842
0.0389444
0.0326549
0.0203791
0.00807033
0.00147518
0.00226609
0.0103824
0.0222818
0.032173
0.0343735
0.0295721
0.0559486
0.0543826
0.052876
0.0514838
0.0502832
0.0493752
0.0488851
0.0489572
0.0497547
0.0513836
0.0538391
0.0569457
0.0603305
0.0634823
0.0658715
0.0670553
0.0667362
0.0647284
0.0608989
0.055236
0.0478271
0.0391752
0.0301788
0.0216134
0.014094
0.00839
0.00514732
0.00425143
0.00472523
0.00518867
0.00469384
0.00316326
0.00135122
0.00135407
0.00629045
0.0185512
0.0379779
0.0615578
0.0849563
0.104636
0.119046
0.128455
0.13404
0.137086
0.138549
0.138994
0.138739
0.137974
0.136891
0.135762
0.134907
0.134669
0.135039
0.135886
0.13682
0.137427
0.137401
0.136606
0.135104
0.13303
0.130404
0.127096
0.123011
0.118297
0.113364
0.108711
0.104688
0.101337
0.0983687
0.0952735
0.0914883
0.0865816
0.0803985
0.0731337
0.0653055
0.0576311
0.0508562
0.0456085
0.0422921
0.0409636
0.0411745
0.0419723
0.042319
0.041698
0.0402718
0.0385847
0.0372705
0.0372146
0.0386738
0.0390985
0.0339041
0.022038
0.00917105
0.00169466
0.00142389
0.0084007
0.0198976
0.0301053
0.0329186
0.0284332
0.0874139
0.0856113
0.0838593
0.082205
0.0807178
0.0794884
0.078619
0.0782214
0.0783626
0.0789464
0.0798558
0.0808974
0.0818008
0.082267
0.0820212
0.0808384
0.0785551
0.0750197
0.0701264
0.063946
0.0566689
0.0485638
0.0400669
0.0317232
0.0239858
0.0172145
0.0117532
0.00780115
0.00522868
0.00367269
0.00278496
0.0027287
0.00474549
0.0109766
0.0232896
0.0417359
0.063983
0.0863258
0.105471
0.119767
0.129258
0.134976
0.138177
0.139858
0.140623
0.140805
0.140602
0.140134
0.13951
0.138841
0.138256
0.13789
0.137735
0.137767
0.13778
0.137488
0.136662
0.135237
0.133274
0.13076
0.12748
0.123163
0.117781
0.11171
0.105618
0.100174
0.0957799
0.0924437
0.0897971
0.0872287
0.0840744
0.0798136
0.0742263
0.0674706
0.0600513
0.0526843
0.0461131
0.0409595
0.0376315
0.0362184
0.0363324
0.0370914
0.0375306
0.0372053
0.0362966
0.0353067
0.0348371
0.0355907
0.0377749
0.0391361
0.0351365
0.0238978
0.0105345
0.00211483
0.000818908
0.00661346
0.0175811
0.0279194
0.0312626
0.0270869
0.112012
0.110322
0.108624
0.10694
0.10531
0.103788
0.10243
0.101301
0.100357
0.0994325
0.0984276
0.0972416
0.095756
0.0938406
0.0913567
0.0881522
0.0840655
0.0789253
0.0726292
0.0653021
0.0573288
0.0491999
0.0413386
0.0340465
0.0275036
0.0217925
0.0169792
0.0131728
0.0105256
0.00923506
0.00961948
0.0126549
0.0198377
0.0323216
0.0498573
0.0703917
0.0908172
0.108354
0.121559
0.130425
0.135818
0.138834
0.14044
0.141265
0.141597
0.141598
0.141374
0.141001
0.140535
0.140024
0.139532
0.1391
0.1387
0.138283
0.137693
0.136734
0.135297
0.133386
0.130962
0.127753
0.123324
0.11742
0.110279
0.102634
0.0954049
0.0893428
0.084801
0.0816868
0.0795351
0.0776508
0.0752911
0.0718593
0.0670693
0.0610327
0.0542293
0.0473646
0.0411722
0.0362575
0.0330184
0.0315689
0.0315914
0.0322908
0.032779
0.0326859
0.0322367
0.0319071
0.0322666
0.0338652
0.0368054
0.0390802
0.0363458
0.0259778
0.0122294
0.00276001
0.000435348
0.00499161
0.0152997
0.0256367
0.0294704
0.0256106
0.128876
0.127255
0.125572
0.123823
0.12202
0.120181
0.118333
0.116512
0.114555
0.112282
0.109645
0.106641
0.103263
0.0994743
0.0951829
0.0902272
0.0843901
0.0774468
0.0693276
0.0603113
0.0510219
0.0422314
0.0345818
0.0284013
0.0237093
0.0203525
0.0181743
0.0171614
0.0175323
0.0197186
0.0245579
0.0331001
0.0458747
0.0622948
0.0805471
0.0981977
0.113174
0.124454
0.132102
0.13683
0.139505
0.140873
0.141543
0.141865
0.141917
0.14177
0.141488
0.14112
0.140695
0.140231
0.139737
0.139208
0.138594
0.137808
0.136722
0.13524
0.133341
0.13097
0.12783
0.123359
0.117075
0.109022
0.0999162
0.0908663
0.082918
0.0767191
0.0724297
0.0697968
0.0682734
0.0671377
0.0656285
0.0631115
0.0592459
0.054088
0.048077
0.041893
0.0362489
0.0317207
0.0286772
0.0272386
0.0271584
0.0277498
0.0282174
0.0282664
0.0281828
0.0284402
0.0295801
0.0320392
0.0357728
0.038934
0.0374782
0.0282341
0.0143143
0.00368722
0.000301495
0.00362808
0.013148
0.023256
0.0274373
0.0238603
0.13877
0.137235
0.135581
0.133788
0.131846
0.129748
0.12751
0.125125
0.122315
0.118928
0.114973
0.110521
0.105636
0.100325
0.0944887
0.087926
0.0803649
0.0715749
0.0616159
0.0510423
0.0408078
0.0319623
0.0253117
0.0212093
0.0195707
0.0200636
0.0223469
0.0262613
0.0319055
0.0396064
0.0498705
0.0627761
0.0776268
0.0930134
0.107277
0.119125
0.128019
0.134131
0.138022
0.140302
0.14147
0.141906
0.141991
0.141953
0.141758
0.141433
0.141033
0.140595
0.140129
0.139623
0.139052
0.138379
0.13754
0.136417
0.134927
0.133045
0.130708
0.127607
0.123102
0.116526
0.107722
0.0973505
0.0866768
0.0770168
0.0692569
0.0636954
0.0601645
0.0582328
0.0573364
0.0568282
0.0560265
0.0543261
0.0513586
0.0471208
0.0419913
0.0366039
0.0316346
0.0276159
0.0248654
0.0234808
0.0232699
0.0236709
0.0240108
0.0240811
0.0242351
0.024966
0.0268011
0.0301068
0.0346769
0.0387217
0.0385055
0.0305751
0.0167929
0.00495592
0.000386353
0.00244167
0.0110259
0.0207315
0.0251818
0.0218945
0.145472
0.143882
0.142129
0.140175
0.137994
0.135557
0.132871
0.129853
0.126144
0.121628
0.11637
0.110511
0.104175
0.0973797
0.0899953
0.0817669
0.0724189
0.0618812
0.0505664
0.0394653
0.0298791
0.0229981