/*--------------------------------*- C++ -*----------------------------------*\
  =========                 |
  \\      /  F ield         | OpenFOAM: The Open Source CFD Toolbox
   \\    /   O peration     | Website:  https://openfoam.org
    \\  /    A nd           | Version:  10
     \\/     M anipulation  |
\*---------------------------------------------------------------------------*/
FoamFile
{
    format      ascii;
    class       volScalarField;
    location    "0.125";
    object      nut;
}
// * * * * * * * * * * * * * * * * * * * * * * * * * * * * * * * * * * * * * //

dimensions      [0 2 -1 0 0 0 0];

internalField   nonuniform List<scalar> 
6820
(
0
0
0
0
0
0
0
0
0
0
0
0
0
0
0
0
0
0
0
0
0
0
0
0
0
0
0
0
0
0
0
0
0
0
0
0
0
0
0
0
0
0
0
0
0
0
0
0
0
0
0
0
0
0
0
0
0
0
0
0
0
0
0
0
0
0
0
0
0
0
0
0
0
0
0
0
0
0
0
0
0
0
0
0
0
0
0
0
0
0
0
0
0
0
0
0
0
0
0
0
0
0
0
0
0
0
0
0
0
0
0
0
0
0
0
0
0
0
0
0
0
0
0
0
0
0
0
0
0
0
0
0
1.63543e-05
0
0
0
0
0
0
0
0
0
0
0
0
0
0
0
0
0
0
0
0
0
4.25181e-08
1.54853e-07
2.34804e-07
2.69235e-07
2.08268e-07
0
0
0
0
0
0
6.31978e-06
4.90891e-05
3.73409e-05
1.81714e-05
5.95964e-06
0
0
0
0
0
0
0
0
0
0
0
0
0
0
0
0
7.82749e-09
1.8947e-08
3.0814e-08
4.24878e-08
5.11392e-08
5.57082e-08
4.05685e-08
9.7419e-08
0
0
0
0
0
1.40787e-05
2.9578e-05
3.8112e-05
3.60173e-05
3.18704e-05
2.82753e-05
2.48498e-05
2.14813e-05
1.81562e-05
1.46551e-05
1.05721e-05
5.32193e-06
0
0
0
0
0
0
0
0
0
1.35591e-07
4.52182e-07
5.54439e-07
5.18589e-07
3.99977e-07
2.37328e-07
5.29063e-08
0
0
0
0
0
8.55066e-06
1.74036e-05
3.01737e-05
3.39515e-05
3.26963e-05
3.09288e-05
2.9292e-05
2.78568e-05
2.66832e-05
2.5584e-05
2.37898e-05
1.76199e-05
0
0
0
0
0
0
0
0
3.81451e-07
4.94459e-07
4.561e-07
3.42723e-07
1.97627e-07
4.44805e-08
0
0
0
0
0
0
0
6.5671e-06
1.08504e-05
2.07701e-05
2.78095e-05
3.12595e-05
3.31785e-05
3.40657e-05
3.4701e-05
3.59842e-05
3.87296e-05
4.40981e-05
5.15469e-05
1.9936e-05
0
0
0
0
0
0
1.46136e-07
3.24326e-07
3.38972e-07
2.63983e-07
1.44422e-07
7.79023e-09
0
0
0
0
0
0
0
0
5.03687e-06
7.48521e-06
1.46739e-05
2.13298e-05
2.60241e-05
3.01396e-05
3.33847e-05
3.60795e-05
3.92208e-05
4.34963e-05
4.74165e-05
3.91021e-05
1.25679e-05
0
0
0
0
0
0
8.3821e-09
7.48586e-08
4.49501e-08
0
0
0
0
0
0
0
0
0
0
0
3.83921e-06
5.31908e-06
1.05398e-05
1.59509e-05
2.00629e-05
2.43565e-05
2.84942e-05
3.18234e-05
3.40744e-05
3.42442e-05
2.97857e-05
1.9254e-05
8.1186e-06
1.88848e-06
0
0
0
0
0
3.23092e-08
0
0
0
0
0
0
0
0
0
0
0
0
0
2.90454e-06
3.6933e-06
7.36714e-06
1.16085e-05
1.47415e-05
1.78748e-05
2.09598e-05
2.32694e-05
2.41378e-05
2.26275e-05
1.80513e-05
1.14841e-05
5.56218e-06
1.84454e-06
8.13373e-08
0
0
0
0
0
0
0
0
0
0
0
0
0
0
0
0
0
0
2.20376e-06
2.5184e-06
4.9752e-06
8.13054e-06
1.03563e-05
1.23548e-05
1.41756e-05
1.52714e-05
1.51903e-05
1.35758e-05
1.04949e-05
6.77454e-06
3.52265e-06
1.32002e-06
9.57826e-08
0
0
0
0
0
0
0
0
0
0
0
0
0
0
0
0
0
0
1.68315e-06
1.66454e-06
3.16116e-06
5.32379e-06
6.72293e-06
7.78029e-06
8.57526e-06
8.76215e-06
8.15224e-06
6.72592e-06
4.68034e-06
2.46845e-06
5.6613e-07
0
0
0
0
0
0
0
0
0
0
0
0
0
0
0
0
0
0
0
0
1.29923e-06
1.04838e-06
1.83133e-06
3.18734e-06
3.93156e-06
4.34748e-06
4.54906e-06
4.33555e-06
3.64701e-06
2.56555e-06
1.25908e-06
0
0
0
0
0
0
0
0
0
0
0
0
0
0
0
0
0
0
0
0
0
0
1.01425e-06
5.94506e-07
8.45791e-07
1.55262e-06
1.76057e-06
1.68812e-06
1.47084e-06
1.00025e-06
2.69039e-07
0
0
0
0
0
0
0
0
0
0
0
0
0
0
0
0
0
0
0
0
0
0
0
0
8.01055e-07
2.52765e-07
1.10208e-07
3.18061e-07
1.23871e-07
0
0
0
0
0
0
0
0
0
0
0
0
0
0
0
0
0
0
0
0
0
0
0
0
0
0
0
0
6.38724e-07
0
0
0
0
0
0
0
0
0
0
0
0
0
0
0
0
0
0
0
0
0
0
0
0
0
0
0
0
1.73926e-07
7.90194e-08
0
0
5.12876e-07
0
0
0
0
0
0
0
0
0
0
0
0
0
0
0
0
0
0
0
0
0
0
0
0
0
0
0
5.61797e-07
1.18618e-06
1.11421e-06
0
0
4.12416e-07
0
0
0
0
0
0
0
0
0
0
0
0
0
0
0
0
0
0
0
0
0
0
0
0
0
0
7.05483e-07
1.42609e-06
2.07624e-06
2.02403e-06
0
0
3.28651e-07
0
0
0
0
0
0
0
0
0
0
0
0
0
0
0
0
0
0
0
0
0
0
0
0
2.76508e-07
1.00231e-06
1.7374e-06
2.47073e-06
3.12047e-06
3.07013e-06
8.76862e-07
0
2.5502e-07
0
0
0
0
0
0
0
0
0
0
0
0
0
0
0
0
0
0
0
0
0
0
0
5.04492e-07
1.24439e-06
1.99329e-06
2.73819e-06
3.46625e-06
4.09857e-06
4.03582e-06
1.85954e-06
0
1.85212e-07
0
0
0
0
0
0
0
0
0
0
0
0
0
0
0
0
0
0
0
0
0
0
7.05465e-07
1.46729e-06
2.23613e-06
3.0017e-06
3.75029e-06
4.46786e-06
5.07893e-06
5.00405e-06
2.8498e-06
0
1.15596e-07
0
0
0
0
0
0
0
0
0
0
0
0
0
0
0
0
0
0
0
0
3.47067e-07
1.09941e-06
1.86351e-06
2.63279e-06
3.39843e-06
4.1496e-06
4.87234e-06
5.55214e-06
6.11688e-06
6.00673e-06
3.85396e-06
0
3.49906e-08
0
0
0
0
0
0
0
0
0
0
0
0
0
0
0
0
0
0
0
3.9416e-07
1.17367e-06
1.96285e-06
2.75592e-06
3.54543e-06
4.32196e-06
5.07416e-06
5.78825e-06
6.4499e-06
6.99085e-06
6.86846e-06
4.74093e-06
0
0
0
0
0
0
0
0
0
0
0
0
0
0
0
0
0
0
0
3.11139e-07
1.0743e-06
1.84465e-06
2.61962e-06
3.39529e-06
4.16622e-06
4.92522e-06
5.66324e-06
6.36941e-06
7.03078e-06
7.63364e-06
8.11299e-06
7.9431e-06
5.79985e-06
0
0
0
0
0
0
0
0
0
0
0
0
0
0
0
0
0
0
1.5136e-07
9.46791e-07
1.74804e-06
2.5524e-06
3.35662e-06
4.1561e-06
4.94484e-06
5.71536e-06
6.45874e-06
7.16457e-06
7.8209e-06
8.41526e-06
8.88658e-06
8.72133e-06
6.61443e-06
0
0
0
0
0
0
0
0
0
0
0
0
0
0
0
0
6.5614e-07
1.42197e-06
2.18296e-06
2.93988e-06
3.6928e-06
4.44089e-06
5.18233e-06
5.91376e-06
6.63035e-06
7.3258e-06
7.9923e-06
8.62066e-06
9.20024e-06
9.7199e-06
1.01214e-05
9.90432e-06
7.77234e-06
0
0
0
0
0
0
0
0
0
0
0
0
0
0
0
3.18417e-07
1.11819e-06
1.91079e-06
2.6969e-06
3.47741e-06
4.25223e-06
5.02025e-06
5.77929e-06
6.52588e-06
7.25524e-06
7.96137e-06
8.63711e-06
9.2743e-06
9.86385e-06
1.03966e-05
1.08179e-05
1.06367e-05
8.57037e-06
0
0
0
0
0
0
0
0
0
0
0
5.84573e-07
1.38316e-06
2.14087e-06
2.86115e-06
3.54975e-06
4.21319e-06
4.85768e-06
5.48874e-06
6.11086e-06
6.72681e-06
7.33781e-06
7.94343e-06
8.54166e-06
9.12892e-06
9.70036e-06
1.02499e-05
1.07706e-05
1.12546e-05
1.16941e-05
1.20371e-05
1.18044e-05
9.72917e-06
0
0
0
0
0
0
0
0
0
0
4.37341e-07
1.26066e-06
2.02585e-06
2.74049e-06
3.41388e-06
4.05594e-06
4.6761e-06
5.28231e-06
5.88083e-06
6.47629e-06
7.07136e-06
7.667e-06
8.26243e-06
8.85542e-06
9.44239e-06
1.00187e-05
1.05789e-05
1.11167e-05
1.16256e-05
1.20992e-05
1.24891e-05
1.23324e-05
1.03938e-05
0
8.99357e-07
0
0
1.17595e-06
2.34468e-06
3.44851e-06
4.44555e-06
5.27653e-06
5.94088e-06
6.46572e-06
6.88598e-06
7.23133e-06
7.52394e-06
7.7818e-06
8.02102e-06
8.25528e-06
8.49513e-06
8.74834e-06
9.02005e-06
9.31309e-06
9.62817e-06
9.96424e-06
1.03188e-05
1.06879e-05
1.1067e-05
1.14505e-05
1.18325e-05
1.22069e-05
1.25681e-05
1.28708e-05
1.26793e-05
1.08317e-05
0
0
3.57158e-07
1.96961e-06
3.53173e-06
4.69264e-06
5.57604e-06
6.20524e-06
6.60659e-06
6.85415e-06
7.00012e-06
7.0828e-06
7.13141e-06
7.16655e-06
7.2026e-06
7.25224e-06
7.32534e-06
7.42824e-06
7.56497e-06
7.73794e-06
7.94805e-06
8.19473e-06
8.47614e-06
8.78924e-06
9.13e-06
9.49352e-06
9.87429e-06
1.02664e-05
1.06638e-05
1.10607e-05
1.14188e-05
1.13748e-05
9.93986e-06
2.28796e-05
1.82311e-05
1.35573e-05
1.22773e-05
1.1996e-05
1.18538e-05
1.16647e-05
1.13438e-05
1.08895e-05
1.03672e-05
9.83723e-06
9.33258e-06
8.86376e-06
8.43474e-06
8.05174e-06
7.72127e-06
7.44699e-06
7.22971e-06
7.06881e-06
6.96301e-06
6.91047e-06
6.90868e-06
6.95451e-06
7.04428e-06
7.17384e-06
7.33861e-06
7.53376e-06
7.75432e-06
7.99537e-06
8.25249e-06
8.49729e-06
8.46173e-06
7.42766e-06
2.56227e-05
2.50199e-05
1.79959e-05
1.4712e-05
1.32392e-05
1.22724e-05
1.1424e-05
1.06016e-05
9.78134e-06
8.97002e-06
8.2064e-06
7.52511e-06
6.9266e-06
6.39872e-06
5.94428e-06
5.56454e-06
5.25436e-06
5.00769e-06
4.81958e-06
4.68546e-06
4.60077e-06
4.56121e-06
4.56287e-06
4.6022e-06
4.67584e-06
4.78043e-06
4.91249e-06
5.0684e-06
5.2444e-06
5.43692e-06
5.62701e-06
5.64504e-06
5.02817e-06
7.46964e-05
5.36055e-05
3.21383e-05
2.21664e-05
1.56849e-05
1.04131e-05
5.99142e-06
2.30108e-06
0
0
0
0
0
0
0
0
0
0
0
0
0
0
0
0
0
0
0
0
0
0
0
0
0
0
0
0
0
0
0
0
0
0
0
0
0
0
0
0
0
0
0
0
0
0
0
0
0
0
0
0
0
0
0
0
0
0
3.94813e-08
0
0
0
0
0
0
0
0
0
0
0
0
0
0
0
0
0
0
0
0
0
0
0
0
0
0
0
0
0
0
0
0
2.09774e-08
0
0
0
0
0
0
0
0
0
0
0
0
0
0
0
0
0
0
0
0
0
0
0
0
0
0
0
0
0
0
0
0
9.50559e-09
0
0
0
0
0
0
0
0
0
0
0
0
0
0
0
0
0
0
0
0
0
0
0
0
0
0
0
0
0
0
0
0
0
0
0
0
0
0
0
0
1.75176e-06
1.46106e-05
2.50408e-05
9.73425e-06
0
2.15774e-06
8.13498e-06
6.48461e-06
2.96277e-06
5.91703e-07
0
0
0
0
0
0
0
6.23394e-06
1.69306e-05
3.50553e-05
6.92002e-05
0.000146125
2.05521e-05
0
0
0
0
0
5.16396e-06
6.65605e-06
8.03624e-06
7.91835e-06
6.0816e-06
4.64682e-06
3.39969e-06
0
0
0
0
0
0
0
4.07934e-05
8.05847e-05
0
0
2.0886e-05
3.94487e-05
3.46537e-05
2.77031e-05
2.77325e-05
2.83527e-05
2.60113e-05
2.22211e-05
1.80947e-05
1.41134e-05
1.05422e-05
7.48228e-06
4.88917e-06
2.64224e-06
6.27093e-07
0
0
0
0
0
0
2.22672e-06
6.79941e-06
1.13296e-05
1.51648e-05
1.8137e-05
2.00126e-05
2.01587e-05
1.7931e-05
1.3135e-05
6.182e-06
0
0
0
0
0
0
0
0
0
0
0
0
0
6.35785e-06
3.36546e-06
0
0
0
0
0
0
0
0
0
9.9257e-06
2.62755e-05
2.2506e-05
1.4193e-06
7.40603e-06
1.01938e-05
6.2705e-06
2.53367e-06
2.79387e-07
0
0
0
0
0
0
0
5.23894e-06
1.77013e-05
3.68822e-05
7.17649e-05
0.000147314
0
0
0
0
0
1.76561e-06
6.03717e-06
7.61263e-06
9.36712e-06
8.68135e-06
6.56251e-06
5.303e-06
3.66406e-06
2.64024e-07
0
0
0
0
0
0
0
8.86762e-06
0
1.00151e-05
3.31376e-05
3.83882e-05
3.18118e-05
2.85958e-05
3.12367e-05
3.18695e-05
2.92759e-05
2.51822e-05
2.06871e-05
1.63927e-05
1.26057e-05
9.40937e-06
6.73616e-06
4.45739e-06
2.46498e-06
7.20657e-07
0
0
0
0
1.25139e-06
4.79359e-06
9.11204e-06
1.33828e-05
1.70282e-05
1.98316e-05
2.15099e-05
2.14332e-05
1.89585e-05
1.38976e-05
6.69782e-06
0
0
0
0
0
0
0
0
0
0
0
0
0
8.25788e-06
4.39679e-06
0
0
0
0
0
0
0
0
0
3.43322e-06
1.72248e-05
2.1603e-05
7.99196e-06
1.16525e-05
8.72948e-06
4.21568e-06
1.41419e-06
3.75987e-07
0
0
0
0
0
0
0
1.63827e-06
1.56855e-05
3.49317e-05
6.68258e-05
0.000122098
0
0
0
0
0
3.33664e-06
6.31633e-06
8.34182e-06
1.02029e-05
8.77032e-06
6.73471e-06
5.83113e-06
3.82644e-06
9.52542e-08
0
0
0
0
0
0
0
0
3.95863e-06
2.0997e-05
3.35214e-05
3.31671e-05
2.8259e-05
2.98543e-05
3.391e-05
3.42205e-05
3.13759e-05
2.70772e-05
2.24279e-05
1.80526e-05
1.42374e-05
1.10404e-05
8.38945e-06
6.16549e-06
4.26925e-06
2.66771e-06
1.41633e-06
6.67692e-07
6.5963e-07
1.66341e-06
3.86649e-06
7.1807e-06
1.11257e-05
1.50235e-05
1.83749e-05
2.09399e-05
2.24039e-05
2.21467e-05
1.9531e-05
1.43653e-05
7.11323e-06
0
0
0
0
0
0
0
0
0
0
0
0
0
1.01287e-05
5.41494e-06
0
0
0
0
0
0
0
0
0
0
1.08647e-05
1.6073e-05
1.22763e-05
9.22337e-06
4.94836e-06
1.941e-06
1.37492e-06
8.64209e-07
0
0
0
0
0
0
0
0
1.01227e-05
2.8866e-05
5.53623e-05
8.44277e-05
0
0
0
0
0
4.27512e-06
6.3574e-06
9.27319e-06
1.06451e-05
8.45681e-06
6.95331e-06
6.39238e-06
3.97219e-06
0
0
0
0
0
0
0
0
0
6.15803e-06
2.15983e-05
2.86109e-05
2.68225e-05
2.63184e-05
3.19203e-05
3.60969e-05
3.59257e-05
3.28346e-05
2.84308e-05
2.37721e-05
1.94382e-05
1.56772e-05
1.25333e-05
9.94499e-06
7.81204e-06
6.04644e-06
4.61393e-06
3.55979e-06
3.0151e-06
3.1794e-06
4.26442e-06
6.38821e-06
9.4337e-06
1.29873e-05
1.64937e-05
1.95252e-05
2.18334e-05
2.30828e-05
2.26639e-05
1.99492e-05
1.47441e-05
7.51818e-06
0
0
0
0
0
0
0
0
0
0
0
0
2.2153e-07
1.16461e-05
6.39517e-06
0
0
0
0
0
0
0
0
0
0
2.31036e-06
7.78377e-06
6.40987e-06
3.66039e-06
1.80239e-06
2.07807e-06
1.95108e-06
1.20785e-06
4.69646e-08
0
0
0
0
0
0
0
1.05244e-06
1.74514e-05
3.62793e-05
4.41564e-05
0
0
0
0
1.41159e-06
4.37281e-06
6.71395e-06
1.04959e-05
1.05242e-05
7.98939e-06
7.47644e-06
7.04979e-06
4.10227e-06
0
0
0
0
0
0
0
0
0
5.6348e-06
1.77012e-05
2.17759e-05
2.19118e-05
2.7039e-05
3.44167e-05
3.7958e-05
3.72629e-05
3.39656e-05
2.95514e-05
2.49704e-05
2.07303e-05
1.70485e-05
1.39731e-05
1.1462e-05
9.43486e-06
7.81432e-06
6.56317e-06
5.71141e-06
5.36342e-06
5.6774e-06
6.81034e-06
8.82771e-06
1.16012e-05
1.47778e-05
1.79032e-05
2.06153e-05
2.26679e-05
2.37131e-05
2.31505e-05
2.03612e-05
1.51461e-05
7.97315e-06
0
0
0
0
0
0
0
0
9.41734e-08
0
0
0
1.18073e-06
1.2676e-05
7.04136e-06
0
0
0
0
0
0
0
0
0
0
7.50603e-07
1.21103e-06
4.73491e-07
1.63472e-06
2.62263e-06
2.79203e-06
2.19184e-06
1.27279e-06
1.55193e-07
0
0
0
0
0
0
0
0
3.57391e-06
1.48878e-05
1.60054e-05
0
0
0
0
2.72378e-06
4.00283e-06
8.06043e-06
1.14323e-05
9.64077e-06
7.78036e-06
8.41557e-06
7.76958e-06
4.1806e-06
0
0
0
0
0
0
0
0
0
3.72683e-06
1.23045e-05
1.58035e-05
2.06682e-05
2.95361e-05
3.67165e-05
3.93749e-05
3.82152e-05
3.4826e-05
3.05039e-05
2.60599e-05
2.19381e-05
1.8346e-05
1.53492e-05
1.29289e-05
1.10212e-05
9.55577e-06
8.49149e-06
7.84174e-06
7.68126e-06
8.12646e-06
9.28552e-06
1.11832e-05
1.36876e-05
1.65e-05
1.92547e-05
2.16528e-05
2.34607e-05
2.43251e-05
2.36497e-05
2.08143e-05
1.56089e-05
8.49624e-06
4.68783e-07
0
0
0
0
0
0
0
1.07998e-07
0
0
8.77209e-07
2.32002e-06
1.38985e-05
7.78223e-06
0
0
0
0
0
0
0
0
0
0
1.4869e-07
8.08762e-07
1.78213e-06
2.6998e-06
3.14772e-06
2.97388e-06
2.28216e-06
1.29034e-06
1.82212e-07
0
0
0
0
0
0
0
0
0
9.88046e-07
3.374e-06
0
0
1.01977e-07
2.16955e-06
2.16023e-06
4.66043e-06
1.02528e-05
1.10848e-05
8.31731e-06
8.38352e-06
9.7173e-06
8.48911e-06
4.20786e-06
0
0
0
0
0
0
0
0
0
1.65052e-06
7.86599e-06
1.36253e-05
2.26862e-05
3.22589e-05
3.84166e-05
4.02532e-05
3.88053e-05
3.54705e-05
3.13195e-05
2.70422e-05
2.30472e-05
1.95519e-05
1.66459e-05
1.43311e-05
1.25566e-05
1.12557e-05
1.03814e-05
9.92979e-06
9.94611e-06
1.05064e-05
1.16744e-05
1.34416e-05
1.56773e-05
1.81337e-05
2.05244e-05
2.26122e-05
2.41845e-05
2.48881e-05
2.41275e-05
2.12743e-05
1.61025e-05
9.0681e-06
1.15255e-06
0
0
0
0
0
0
0
0
0
0
2.61189e-06
3.59687e-06
1.5729e-05
8.5939e-06
0
0
0
0
0
0
0
0
0
0
6.83606e-07
1.66771e-06
2.58757e-06
3.20993e-06
3.43575e-06
3.21121e-06
2.50171e-06
1.396e-06
1.67435e-07
0
0
0
0
0
0
0
0
0
0
0
9.32398e-07
2.09711e-06
2.67433e-06
1.593e-06
1.96423e-06
7.67613e-06
1.12771e-05
9.14389e-06
7.73527e-06
9.98005e-06
1.12072e-05
9.17342e-06
4.23948e-06
0
0
0
0
0
0
0
0
0
3.02346e-07
6.57143e-06
1.51687e-05
2.54971e-05
3.42933e-05
3.93669e-05
4.06344e-05
3.91209e-05
3.59544e-05
3.20122e-05
2.79074e-05
2.40406e-05
2.06494e-05
1.78468e-05
1.56519e-05
1.4023e-05
1.28949e-05
1.22127e-05
1.19544e-05
1.21357e-05
1.27945e-05
1.39543e-05
1.55798e-05
1.75458e-05
1.9652e-05
2.16847e-05
2.34673e-05
2.48151e-05
2.53807e-05
2.45664e-05
2.17285e-05
1.66169e-05
9.67878e-06
1.88854e-06
0
0
0
0
0
0
0
0
0
0
4.2985e-06
4.89606e-06
1.77869e-05
9.51412e-06
0
0
0
0
0
0
0
0
0
0
9.77905e-07
2.01658e-06
2.88566e-06
3.53355e-06
3.8976e-06
3.76491e-06
2.98403e-06
1.6581e-06
1.51751e-07
0
0
0
0
0
0
0
0
0
0
0
7.26261e-07
2.1771e-06
1.55036e-06
1.05207e-06
5.42289e-06
1.01899e-05
9.4233e-06
7.04838e-06
9.08361e-06
1.22098e-05
1.27103e-05
9.84952e-06
4.34991e-06
0
0
0
0
0
0
0
0
0
0
7.43563e-06
1.74825e-05
2.75951e-05
3.53596e-05
3.96395e-05
4.06597e-05
3.92523e-05
3.63073e-05
3.25777e-05
2.86398e-05
2.49011e-05
2.16206e-05
1.8932e-05
1.68686e-05
1.53958e-05
1.44474e-05
1.39587e-05
1.38882e-05
1.42224e-05
1.49627e-05
1.60972e-05
1.75693e-05
1.92628e-05
2.10225e-05
2.27012e-05
2.4183e-05
2.53167e-05
2.57658e-05
2.49293e-05
2.21418e-05
1.71223e-05
1.03054e-05
2.66375e-06
0
0
0
0
0
0
0
0
0
0
5.60868e-06
5.94636e-06
1.94883e-05
1.02108e-05
0
0
0
0
0
0
0
0
0
1.21218e-07
1.23323e-06
2.39335e-06
3.53042e-06
4.52157e-06
5.09133e-06
4.89826e-06
3.82815e-06
2.08821e-06
1.2161e-07
0
0
0
0
0
0
0
0
0
0
0
0
7.0287e-07
1.42671e-06
4.55546e-06
8.47252e-06
8.54751e-06
6.18386e-06
7.64574e-06
1.19035e-05
1.46018e-05
1.41547e-05
1.05781e-05
4.57753e-06
0
0
0
0
0
0
0
0
0
0
8.47984e-06
1.90581e-05
2.85816e-05
3.55673e-05
3.94541e-05
4.04708e-05
3.92499e-05
3.65323e-05
3.3003e-05
2.92228e-05
2.56093e-05
2.24415e-05
1.98725e-05
1.79487e-05
1.66402e-05
1.58771e-05
1.55827e-05
1.56945e-05
1.61695e-05
1.69749e-05
1.80675e-05
1.93747e-05
2.07921e-05
2.22075e-05
2.35362e-05
2.47218e-05
2.56527e-05
2.60086e-05
2.5185e-05
2.2489e-05
1.75981e-05
1.09287e-05
3.45745e-06
0
0
0
0
0
0
0
0
0
0
6.5024e-06
6.69253e-06
2.05245e-05
1.0557e-05
0
0
0
0
0
0
0
0
0
4.39545e-07
1.92073e-06
3.54572e-06
5.14033e-06
6.38491e-06
6.8919e-06
6.36779e-06
4.81976e-06
2.54806e-06
2.88747e-08
0
0
0
0
0
0
0
0
0
0
0
0
7.43252e-07
3.53677e-06
6.13814e-06
6.41614e-06
4.69345e-06
6.1194e-06
1.09127e-05
1.51267e-05
1.68807e-05
1.55581e-05
1.13723e-05
4.89232e-06
0
0
0
0
0
0
0
0
0
0
9.0404e-06
1.95986e-05
2.86412e-05
3.52385e-05
3.90218e-05
4.01459e-05
3.91253e-05
3.66199e-05
3.32738e-05
2.96367e-05
2.61373e-05
2.30761e-05
2.06264e-05
1.88464e-05
1.77083e-05
1.71353e-05
1.70358e-05
1.73244e-05
1.7929e-05
1.87843e-05
1.98201e-05
2.09524e-05
2.20912e-05
2.31653e-05
2.41485e-05
2.50433e-05
2.57825e-05
2.60679e-05
2.52928e-05
2.27323e-05
1.80127e-05
1.15233e-05
4.25024e-06
0
0
0
0
0
0
0
0
0
0
7.1803e-06
7.28047e-06
2.11931e-05
1.05868e-05
0
0
0
0
0
0
0
0
0
1.07767e-06
3.20166e-06
5.37682e-06
7.27895e-06
8.50041e-06
8.69495e-06
7.69696e-06
5.63219e-06
2.85349e-06
0
0
0
0
0
0
0
0
0
0
0
0
0
1.11825e-06
3.00368e-06
3.43632e-06
2.67899e-06
4.91378e-06
9.81649e-06
1.47797e-05
1.81675e-05
1.8968e-05
1.69011e-05
1.21548e-05
5.22141e-06
0
0
0
0
0
0
0
0
0
0
9.02901e-06
1.94196e-05
2.82049e-05
3.46576e-05
3.84531e-05
3.97067e-05
3.88737e-05
3.65594e-05
3.33711e-05
2.98498e-05
2.64408e-05
2.34713e-05
2.11355e-05
1.95009e-05
1.85377e-05
1.81587e-05
1.82545e-05
1.87155e-05
1.94402e-05
2.03331e-05
2.13005e-05
2.22517e-05
2.3113e-05
2.38525e-05
2.44983e-05
2.51102e-05
2.56693e-05
2.59063e-05
2.52155e-05
2.28373e-05
1.83361e-05
1.20627e-05
5.01538e-06
0
0
0
0
0
0
0
0
6.38771e-07
0
7.76588e-06
7.80999e-06
2.16506e-05
1.0447e-05
0
0
0
0
0
0
0
0
0
2.00619e-06
4.67075e-06
7.18334e-06
9.14144e-06
1.0148e-05
9.95094e-06
8.50693e-06
6.02557e-06
2.88145e-06
0
0
0
0
0
0
0
0
0
0
0
0
0
6.02432e-07
1.03072e-06
1.59999e-06
4.44615e-06
8.93669e-06
1.39942e-05
1.83378e-05
2.08205e-05
2.07859e-05
1.80597e-05
1.28146e-05
5.51195e-06
0
0
0
0
0
0
0
0
0
0
8.74074e-06
1.89542e-05
2.75806e-05
3.39563e-05
3.77806e-05
3.9155e-05
3.84898e-05
3.63345e-05
3.32602e-05
2.98088e-05
2.64541e-05
2.35555e-05
2.13264e-05
1.98382e-05
1.9054e-05
1.88721e-05
1.91638e-05
1.9794e-05
2.0632e-05
2.15544e-05
2.24478e-05
2.32182e-05
2.38099e-05
2.42289e-05
2.45523e-05
2.48936e-05
2.52847e-05
2.54922e-05
2.49174e-05
2.27673e-05
1.85359e-05
1.25213e-05
5.73319e-06
0
0
0
0
0
0
0
0
7.5786e-07
0
8.29528e-06
8.32594e-06
2.2022e-05
1.01878e-05
0
0
0
0
0
0
0
0
8.556e-08
3.01912e-06
5.94686e-06
8.51885e-06
1.03283e-05
1.10347e-05
1.04764e-05
8.69914e-06
5.95897e-06
2.63303e-06
0
0
0
0
0
0
0
0
0
0
0
0
0
5.67536e-07
1.8332e-06
4.29731e-06
8.15711e-06
1.29384e-05
1.76768e-05
2.12831e-05
2.29274e-05
2.21679e-05
1.8906e-05
1.33038e-05
5.76867e-06
0
0
0
0
0
0
0
0
0
0
8.41117e-06
1.84165e-05
2.68785e-05
3.31704e-05
3.70135e-05
3.84927e-05
3.79617e-05
3.59077e-05
3.28767e-05
2.9432e-05
2.60902e-05
2.32441e-05
2.11192e-05
1.97819e-05
1.91815e-05
1.91998e-05
1.96872e-05
2.0484e-05
2.14317e-05
2.2381e-05
2.3202e-05
2.3801e-05
2.41418e-05
2.42654e-05
2.42925e-05
2.43835e-05
2.46194e-05
2.48102e-05
2.4374e-05
2.24907e-05
1.85788e-05
1.28671e-05
6.37181e-06
7.08448e-09
0
0
0
0
0
0
0
2.65024e-07
0
8.74154e-06
8.80093e-06
2.22385e-05
9.8361e-06
0
0
0
0
0
0
0
0
8.53286e-07
3.8939e-06
6.80557e-06
9.22431e-06
1.07756e-05
1.11803e-05
1.03422e-05
8.35985e-06
5.51016e-06
2.17138e-06
0
0
0
0
0
0
0
0
0
0
0
0
0
1.15355e-06
3.53565e-06
7.02895e-06
1.14911e-05
1.62841e-05
2.05186e-05
2.33778e-05
2.43046e-05
2.30128e-05
1.94318e-05
1.36654e-05
6.03346e-06
0
0
0
0
0
0
0
0
0
0
8.10887e-06
1.78594e-05
2.61249e-05
3.23139e-05
3.61603e-05
3.77124e-05
3.72496e-05
3.52025e-05
3.21194e-05
2.86133e-05
2.52535e-05
2.24582e-05
2.04498e-05
1.92768e-05
1.88684e-05
1.90883e-05
1.97686e-05
2.07279e-05
2.17826e-05
2.27607e-05
2.35191e-05
2.39665e-05
2.40874e-05
2.39554e-05
2.3727e-05
2.35988e-05
2.36948e-05
2.38725e-05
2.35821e-05
2.19904e-05
1.84426e-05
1.30819e-05
6.9187e-06
8.82738e-07
0
0
0
0
0
0
0
0
7.05402e-07
9.10726e-06
9.2568e-06
2.23103e-05
9.39646e-06
0
0
0
0
0
0
0
0
1.58947e-06
4.54917e-06
7.28704e-06
9.44939e-06
1.07035e-05
1.08261e-05
9.76929e-06
7.66759e-06
4.81063e-06
1.58229e-06
0
0
0
0
0
0
0
0
0
0
0
0
0
1.77563e-06
5.14645e-06
9.38245e-06
1.40845e-05
1.86038e-05
2.22559e-05
2.44916e-05
2.49454e-05
2.33977e-05
1.97388e-05
1.39789e-05
6.34446e-06
0
0
0
0
0
0
0
0
0
0
7.84396e-06
1.72947e-05
2.53322e-05
3.13976e-05
3.52166e-05
3.67723e-05
3.6263e-05
3.40929e-05
3.08573e-05
2.72445e-05
2.38726e-05
2.11633e-05
1.93117e-05
1.83322e-05
1.81282e-05
1.85472e-05
1.94097e-05
2.05193e-05
2.16739e-05
2.2683e-05
2.33933e-05
2.37182e-05
2.36626e-05
2.33295e-05
2.2903e-05
2.2601e-05
2.25754e-05
2.27312e-05
2.25678e-05
2.12634e-05
1.81041e-05
1.31352e-05
7.34102e-06
1.66763e-06
0
0
0
0
0
0
0
0
1.43605e-06
9.39355e-06
9.67929e-06
2.22037e-05
8.90812e-06
0
0
0
0
0
0
0
0
2.22694e-06
4.99127e-06
7.46718e-06
9.32142e-06
1.02644e-05
1.01237e-05
8.89347e-06
6.73772e-06
3.95678e-06
9.41023e-07
0
0
0
0
0
0
0
0
0
0
0
0
0
2.37677e-06
6.43335e-06
1.09964e-05
1.5605e-05
1.9735e-05
2.2915e-05
2.47779e-05
2.50466e-05
2.34946e-05
1.99417e-05
1.43024e-05
6.72198e-06
0
0
0
0
0
0
0
0
0
0
7.61528e-06
1.67265e-05
2.4507e-05
3.04161e-05
3.4137e-05
3.5566e-05
3.48463e-05
3.24159e-05
2.89659e-05
2.52679e-05
2.19623e-05
1.9435e-05
1.78215e-05
1.70853e-05
1.71007e-05
1.7706e-05
1.87217e-05
1.99503e-05
2.11814e-05
2.22134e-05
2.28864e-05
2.31196e-05
2.2937e-05
2.24676e-05
2.19139e-05
2.14977e-05
2.13761e-05
2.14913e-05
2.14085e-05
2.03513e-05
1.75767e-05
1.30323e-05
7.64971e-06
2.37369e-06
0
0
0
0
0
0
0
0
2.09157e-06
9.61261e-06
1.01129e-05
2.19487e-05
8.411e-06
0
0
0
0
0
0
0
1.24237e-07
2.67776e-06
5.19802e-06
7.37771e-06
8.90814e-06
9.54325e-06
9.1602e-06
7.79496e-06
5.64147e-06
3.01432e-06
3.08042e-07
0
0
0
0
0
0
0
0
0
0
0
0
0
2.82381e-06
7.18031e-06
1.17419e-05
1.61129e-05
1.99133e-05
2.28163e-05
2.45439e-05
2.4839e-05
2.34424e-05
2.01071e-05
1.4664e-05
7.17975e-06
0
0
0
0
0
0
0
0
0
0
7.41825e-06
1.61549e-05
2.36401e-05
2.93187e-05
3.27983e-05
3.39049e-05
3.27988e-05
3.00281e-05
2.64098e-05
2.2772e-05
1.97196e-05
1.75465e-05
1.62952e-05
1.58671e-05
1.61115e-05
1.68696e-05
1.79787e-05
1.92592e-05
2.05098e-05
2.15293e-05
2.21568e-05
2.23171e-05
2.20506e-05
2.15073e-05
2.08992e-05
2.04343e-05
2.02474e-05
2.02956e-05
2.02168e-05
1.93166e-05
1.68699e-05
1.27527e-05
7.81789e-06
2.9682e-06
0
0
0
0
0
0
0
0
2.45666e-06
9.74358e-06
1.05283e-05
2.16297e-05
7.98787e-06
0
0
0
0
0
0
0
6.54782e-07
2.97879e-06
5.22499e-06
7.09125e-06
8.29351e-06
8.62954e-06
8.02674e-06
6.5655e-06
4.47048e-06
2.07146e-06
0
0
0
0
0
0
0
0
0
0
0
0
0
0
3.07768e-06
7.44032e-06
1.18344e-05
1.59571e-05
1.95315e-05
2.23056e-05
2.40354e-05
2.44632e-05
2.33037e-05
2.02587e-05
1.50785e-05
7.73586e-06
0
0
0
0
0
0
0
0
0
0
7.24708e-06
1.55643e-05
2.26728e-05
2.79642e-05
3.09783e-05
3.15496e-05
2.99613e-05
2.69324e-05
2.33858e-05
2.01255e-05
1.76251e-05
1.60244e-05
1.52595e-05
1.51866e-05
1.56485e-05
1.65008e-05
1.76107e-05
1.88343e-05
2.00011e-05
2.09278e-05
2.14615e-05
2.15343e-05
2.11989e-05
2.06192e-05
2.00089e-05
1.95493e-05
1.93307e-05
1.92967e-05
1.91458e-05
1.82876e-05
1.60655e-05
1.2342e-05
7.88673e-06
3.49953e-06
0
0
0
0
0
0
0
0
2.22175e-06
9.65533e-06
1.08903e-05
2.12966e-05
7.60672e-06
0
0
0
0
0
0
0
9.70778e-07
3.04923e-06
5.01433e-06
6.57137e-06
7.45988e-06
7.52141e-06
6.73705e-06
5.23548e-06
3.27219e-06
1.18664e-06
0
0
0
0
0
0
0
0
0
0
0
0
0
0
3.19446e-06
7.3996e-06
1.15676e-05
1.54669e-05
1.88785e-05
2.15869e-05
2.33672e-05
2.39672e-05
2.30912e-05
2.04007e-05
1.55599e-05
8.41662e-06
0
0
0
0
0
0
0
0
0
0
7.0825e-06
1.48899e-05
2.14507e-05
2.61057e-05
2.84108e-05
2.83432e-05
2.64068e-05
2.34879e-05
2.05029e-05
1.80649e-05
1.63971e-05
1.54793e-05
1.52117e-05
1.54701e-05
1.61134e-05
1.70056e-05
1.80319e-05
1.9085e-05
2.00406e-05
2.07557e-05
2.11025e-05
2.10265e-05
2.05894e-05
1.99619e-05
1.93524e-05
1.89121e-05
1.86776e-05
1.85561e-05
1.82765e-05
1.73419e-05
1.51997e-05
1.17897e-05
7.83561e-06
3.95562e-06
3.15752e-08
0
0
0
0
0
0
0
1.01064e-06
8.87085e-06
1.08072e-05
2.07842e-05
7.06335e-06
0
0
0
0
0
0
0
1.15989e-06
2.98202e-06
4.65688e-06
5.90497e-06
6.49285e-06
6.30642e-06
5.38395e-06
3.9034e-06
2.14797e-06
4.49888e-07
0
0
0
0
0
0
0
0
0
0
0
0
0
0
3.23919e-06
7.21345e-06
1.11372e-05
1.48226e-05
1.80845e-05
2.07345e-05
2.257e-05
2.33561e-05
2.27997e-05
2.05315e-05
1.61235e-05
9.25848e-06
1.53163e-07
0
0
0
0
0
0
0
0
0
6.86748e-06
1.39809e-05
1.97255e-05
2.34826e-05
2.4984e-05
2.44886e-05
2.27397e-05
2.06312e-05
1.8785e-05
1.74079e-05
1.65032e-05
1.60774e-05
1.61451e-05
1.66502e-05
1.74538e-05
1.83914e-05
1.93286e-05
2.01689e-05
2.08297e-05
2.12239e-05
2.12717e-05
2.09478e-05
2.03273e-05
1.9584e-05
1.89202e-05
1.84625e-05
1.82038e-05
1.80093e-05
1.76053e-05
1.65433e-05
1.43606e-05
1.11632e-05
7.72274e-06
4.41307e-06
9.12065e-07
0
0
0
0
0
0
0
0
5.97244e-06
8.98079e-06
1.82451e-05
5.22945e-06
0
0
0
0
0
0
0
1.10465e-06
2.66451e-06
4.0597e-06
5.02114e-06
5.34296e-06
4.96197e-06
3.97719e-06
2.61132e-06
1.16041e-06
0
0
0
0
0
0
0
0
0
0
0
0
0
0
0
3.2605e-06
6.97094e-06
1.06356e-05
1.4096e-05
1.71952e-05
1.97726e-05
2.16534e-05
2.26284e-05
2.24196e-05
2.06431e-05
1.67832e-05
1.03126e-05
1.18882e-06
0
0
0
0
0
0
0
0
0
6.48948e-06
1.26301e-05
1.72987e-05
2.01021e-05
2.11265e-05
2.0947e-05
2.0307e-05
1.96391e-05
1.89553e-05
1.82058e-05
1.75461e-05
1.724e-05
1.7453e-05
1.81515e-05
1.91463e-05
2.02043e-05
2.11367e-05
2.18248e-05
2.22051e-05
2.22425e-05
2.19192e-05
2.1256e-05
2.03535e-05
1.93943e-05
1.85788e-05
1.80226e-05
1.76918e-05
1.74156e-05
1.68963e-05
1.56908e-05
1.34016e-05
1.03601e-05
7.46514e-06
4.81829e-06
1.83575e-06
0
0
0
0
0
0
0
0
1.34832e-06
4.5424e-06
1.12776e-05
6.61467e-07
0
0
0
0
0
0
0
9.23772e-07
2.2104e-06
3.33884e-06
4.03913e-06
4.13258e-06
3.61352e-06
2.6434e-06
1.48496e-06
4.13993e-07
0
0
0
0
0
0
0
0
0
0
0
0
0
0
0
3.27443e-06
6.70175e-06
1.00911e-05
1.33099e-05
1.62279e-05
1.87134e-05
2.0622e-05
2.17771e-05
2.19314e-05
2.07116e-05
1.75405e-05
1.1646e-05
2.5532e-06
0
0
0
0
0
0
0
0
0
5.82465e-06
1.07618e-05
1.43844e-05
1.67296e-05
1.82513e-05
1.9456e-05
2.04221e-05
2.08155e-05
2.04147e-05
1.94623e-05
1.85203e-05
1.80906e-05
1.83825e-05
1.92985e-05
2.0554e-05
2.18289e-05
2.28687e-05
2.35139e-05
2.36969e-05
2.34193e-05
2.27181e-05
2.16716e-05
2.04193e-05
1.91617e-05
1.81056e-05
1.73681e-05
1.69088e-05
1.65336e-05
1.59039e-05
1.45376e-05
1.21161e-05
9.30333e-06
7.02349e-06
5.12022e-06
2.82851e-06
0
0
0
0
0
0
0
0
0
5.94535e-07
2.37288e-06
0
7.69299e-07
0
0
0
0
0
0
4.89007e-07
1.47667e-06
2.34649e-06
2.83401e-06
2.78642e-06
2.24863e-06
1.43044e-06
5.99575e-07
0
0
0
0
0
0
0
0
0
0
0
0
0
0
0
2.48995e-07
3.29684e-06
6.4271e-06
9.52743e-06
1.2489e-05
1.52071e-05
1.75775e-05
1.94875e-05
2.07987e-05
2.13104e-05
2.06946e-05
1.83729e-05
1.33417e-05
4.44495e-06
0
0
0
0
0
0
0
0
2.97343e-07
4.91481e-06
8.82627e-06
1.21187e-05
1.51537e-05
1.81555e-05
2.0842e-05
2.25604e-05
2.28109e-05
2.17075e-05
1.99868e-05
1.85561e-05
1.80005e-05
1.8441e-05
1.96494e-05
2.12301e-05
2.27869e-05
2.40142e-05
2.47134e-05
2.47988e-05
2.42844e-05
2.32547e-05
2.1843e-05
2.02318e-05
1.8644e-05
1.72953e-05
1.63108e-05
1.56552e-05
1.5123e-05
1.43173e-05
1.2655e-05
1.00451e-05
7.80001e-06
6.24744e-06
5.08113e-06
3.58556e-06
1.01168e-06
0
0
0
0
0
0
0
0
0
0
0
1.75794e-06
0
0
0
0
0
0
0
6.64496e-07
1.28012e-06
1.60884e-06
1.51415e-06
1.07406e-06
5.22227e-07
4.95371e-08
0
0
0
0
0
0
0
0
0
0
0
0
0
0
0
5.5712e-07
3.31273e-06
6.1384e-06
8.94163e-06
1.16349e-05
1.41364e-05
1.63669e-05
1.82447e-05
1.96719e-05
2.0508e-05
2.05039e-05
1.91819e-05
1.54442e-05
7.21791e-06
0
0
0
0
0
0
0
0
5.18482e-07
4.27454e-06
8.0783e-06
1.21437e-05
1.64329e-05
2.04809e-05
2.35121e-05
2.4775e-05
2.39875e-05
2.16974e-05
1.90934e-05
1.72915e-05
1.67924e-05
1.75186e-05
1.9083e-05
2.09979e-05
2.2827e-05
2.42464e-05
2.50333e-05
2.50817e-05
2.44121e-05
2.31384e-05
2.14356e-05
1.9523e-05
1.76428e-05
1.60168e-05
1.47783e-05
1.39139e-05
1.32442e-05
1.23435e-05
1.03791e-05
7.29245e-06
6.12854e-06
5.42114e-06
4.97425e-06
4.32692e-06
2.70991e-06
0
0
0
0
0
0
0
0
0
0
0
2.8697e-06
5.95907e-07
0
0
0
0
0
0
0
0
1.24872e-07
2.60096e-07
1.48568e-07
0
0
0
0
0
0
0
0
0
0
0
0
0
0
0
0
0
8.88793e-07
3.34819e-06
5.86624e-06
8.36796e-06
1.07843e-05
1.3053e-05
1.51167e-05
1.69212e-05
1.84067e-05
1.94972e-05
2.00435e-05
1.97767e-05
1.78409e-05
1.14096e-05
0
0
0
0
0
0
0
0
7.70959e-07
4.66262e-06
9.15728e-06
1.40459e-05
1.88637e-05
2.29145e-05
2.53897e-05
2.56153e-05
2.3504e-05
2.00103e-05
1.67357e-05
1.48671e-05
1.46604e-05
1.57668e-05
1.76649e-05
1.98342e-05
2.18521e-05
2.3404e-05
2.42606e-05
2.43021e-05
2.35468e-05
2.21232e-05
2.02329e-05
1.81193e-05
1.6032e-05
1.41858e-05
1.27107e-05
1.16218e-05
1.083e-05
1.01012e-05
8.98259e-06
6.19359e-06
4.37995e-06
4.12198e-06
4.2734e-06
4.34395e-06
3.57792e-06
1.51867e-06
0
0
0
0
0
0
0
0
0
0
3.81662e-06
1.46708e-06
6.22118e-07
1.76167e-07
0
0
0
0
0
0
0
0
0
0
0
0
0
0
0
0
0
0
0
0
0
0
0
0
0
0
1.18531e-06
3.35013e-06
5.56325e-06
7.76468e-06
9.90074e-06
1.19248e-05
1.37973e-05
1.54854e-05
1.69597e-05
1.81984e-05
1.91458e-05
1.9767e-05
1.98038e-05
1.67521e-05
0
0
0
0
0
0
0
0
1.22947e-06
5.72044e-06
1.06948e-05
1.57366e-05
2.03392e-05
2.38576e-05
2.55509e-05
2.47651e-05
2.14602e-05
1.69503e-05
1.33022e-05
1.1682e-05
1.19167e-05
1.33367e-05
1.53951e-05
1.76424e-05
1.97043e-05
2.12937e-05
2.21819e-05
2.2235e-05
2.14617e-05
1.99935e-05
1.80435e-05
1.58616e-05
1.3685e-05
1.16978e-05
9.9987e-06
8.58566e-06
7.36477e-06
6.12952e-06
4.57074e-06
2.63054e-06
1.64542e-06
1.99299e-06
2.57444e-06
3.175e-06
3.14967e-06
2.07927e-06
1.27667e-07
0
0
0
0
0
2.38925e-07
1.37894e-06
1.76881e-06
1.2467e-06
5.03463e-06
2.57637e-06
1.60532e-06
1.01398e-06
4.3451e-07
0
0
0
0
0
0
0
0
0
0
0
0
0
0
0
0
0
0
0
0
0
0
0
0
0
1.52223e-06
3.39674e-06
5.30995e-06
7.21447e-06
9.06901e-06
1.08391e-05
1.24976e-05
1.40262e-05
1.54147e-05
1.66702e-05
1.77967e-05
1.88718e-05
1.99919e-05
1.89246e-05
0
0
0
0
0
0
0
0
1.72256e-06
6.4758e-06
1.13774e-05
1.60466e-05
2.01097e-05
2.3054e-05
2.42351e-05
2.29008e-05
1.86612e-05
1.31867e-05
9.52981e-06
8.49678e-06
9.03745e-06
1.03771e-05
1.22603e-05
1.4367e-05
1.63483e-05
1.79236e-05
1.88377e-05
1.89273e-05
1.81912e-05
1.67667e-05
1.48733e-05
1.27529e-05
1.0612e-05
8.58953e-06
6.75022e-06
5.08876e-06
3.56094e-06
2.20154e-06
1.26601e-06