/*--------------------------------*- C++ -*----------------------------------*\
  =========                 |
  \\      /  F ield         | OpenFOAM: The Open Source CFD Toolbox
   \\    /   O peration     | Website:  https://openfoam.org
    \\  /    A nd           | Version:  10
     \\/     M anipulation  |
\*---------------------------------------------------------------------------*/
FoamFile
{
    format      ascii;
    class       volScalarField;
    location    "0.125";
    object      p;
}
// * * * * * * * * * * * * * * * * * * * * * * * * * * * * * * * * * * * * * //

dimensions      [0 2 -2 0 0 0 0];

internalField   nonuniform List<scalar> 
6820
(
-10.4521
-10.7541
-10.799
-10.813
-10.8427
-10.8645
-10.8785
-10.8893
-10.8972
-10.9019
-10.9036
-10.9025
-10.8983
-10.891
-10.8803
-10.8659
-10.8474
-10.8245
-10.7967
-10.7632
-10.7236
-10.677
-10.6227
-10.56
-10.488
-10.4063
-10.3146
-10.213
-10.1028
-9.98591
-9.86782
-9.7461
-9.66511
-10.6537
-10.7783
-10.8137
-10.8277
-10.8516
-10.8704
-10.883
-10.8928
-10.9001
-10.9045
-10.9063
-10.9052
-10.9014
-10.8945
-10.8843
-10.8707
-10.8531
-10.8313
-10.8048
-10.773
-10.7354
-10.6913
-10.6399
-10.5806
-10.5128
-10.4358
-10.3495
-10.254
-10.15
-10.0398
-9.92569
-9.81715
-9.71039
-10.6538
-10.7388
-10.7962
-10.8213
-10.8474
-10.8689
-10.884
-10.8954
-10.904
-10.9095
-10.9122
-10.9121
-10.9092
-10.9033
-10.8944
-10.8821
-10.8663
-10.8466
-10.8228
-10.7943
-10.7609
-10.7222
-10.6777
-10.6271
-10.5704
-10.5074
-10.4386
-10.3648
-10.2875
-10.2089
-10.1338
-10.0651
-10.0207
-10.711
-10.7804
-10.8274
-10.8461
-10.8658
-10.8834
-10.8958
-10.9052
-10.9123
-10.9168
-10.9187
-10.9182
-10.9151
-10.9093
-10.9006
-10.8889
-10.8739
-10.8553
-10.833
-10.8065
-10.7757
-10.7401
-10.6998
-10.6544
-10.6042
-10.5495
-10.491
-10.43
-10.3686
-10.3094
-10.2573
-10.2159
-10.1988
-10.7414
-10.7799
-10.818
-10.8395
-10.8605
-10.8794
-10.8936
-10.9045
-10.9129
-10.9186
-10.9218
-10.9224
-10.9205
-10.9159
-10.9086
-10.8985
-10.8852
-10.8688
-10.849
-10.8255
-10.7984
-10.7673
-10.7324
-10.6938
-10.6517
-10.6069
-10.5603
-10.5134
-10.4685
-10.4282
-10.3972
-10.3786
-10.3825
-10.7719
-10.8023
-10.8388
-10.8608
-10.8793
-10.8957
-10.9083
-10.9178
-10.925
-10.9299
-10.9325
-10.9329
-10.9309
-10.9265
-10.9197
-10.9103
-10.8982
-10.8833
-10.8654
-10.8446
-10.8206
-10.7935
-10.7635
-10.7309
-10.6962
-10.6601
-10.624
-10.5894
-10.5587
-10.5346
-10.5213
-10.5218
-10.5438
-10.7977
-10.8173
-10.845
-10.8639
-10.8802
-10.8957
-10.9083
-10.9183
-10.9262
-10.9319
-10.9355
-10.9369
-10.9361
-10.9331
-10.9278
-10.9202
-10.9102
-10.8977
-10.8827
-10.8651
-10.8451
-10.8228
-10.7985
-10.7726
-10.7458
-10.7192
-10.6939
-10.6718
-10.6553
-10.6469
-10.6505
-10.6689
-10.7081
-10.8208
-10.8351
-10.8593
-10.8783
-10.8945
-10.9094
-10.9215
-10.9312
-10.9387
-10.9443
-10.9478
-10.9493
-10.9488
-10.9464
-10.9419
-10.9354
-10.9268
-10.9162
-10.9035
-10.8888
-10.8724
-10.8544
-10.8353
-10.8155
-10.7961
-10.7779
-10.7624
-10.7515
-10.7473
-10.7525
-10.7704
-10.8038
-10.858
-10.8419
-10.8521
-10.8715
-10.8878
-10.9018
-10.915
-10.9263
-10.9356
-10.9431
-10.949
-10.953
-10.9553
-10.9559
-10.9547
-10.9517
-10.947
-10.9406
-10.9324
-10.9227
-10.9115
-10.8992
-10.8859
-10.8724
-10.8591
-10.847
-10.8373
-10.8314
-10.831
-10.8383
-10.8558
-10.8865
-10.9331
-11
-10.8614
-10.869
-10.8851
-10.9002
-10.9137
-10.9264
-10.9376
-10.947
-10.9547
-10.9608
-10.9652
-10.9681
-10.9694
-10.9691
-10.9674
-10.9641
-10.9594
-10.9535
-10.9464
-10.9383
-10.9296
-10.9208
-10.9123
-10.9049
-10.8995
-10.8973
-10.8998
-10.9086
-10.9258
-10.9536
-10.9947
-11.0517
-11.1283
-10.8797
-10.8855
-10.8987
-10.912
-10.924
-10.9355
-10.9459
-10.9548
-10.9623
-10.9685
-10.9734
-10.9769
-10.9791
-10.98
-10.9797
-10.9782
-10.9756
-10.9721
-10.9679
-10.9632
-10.9585
-10.9541
-10.9508
-10.9492
-10.9503
-10.9554
-10.9656
-10.9828
-11.0087
-11.0453
-11.0951
-11.1601
-11.2439
-10.8971
-10.9016
-10.9126
-10.9245
-10.9357
-10.9466
-10.9567
-10.9657
-10.9735
-10.9802
-10.9856
-10.9899
-10.993
-10.9951
-10.9962
-10.9964
-10.9958
-10.9947
-10.9932
-10.9917
-10.9906
-10.9903
-10.9917
-10.9953
-11.0022
-11.0135
-11.0305
-11.0546
-11.0875
-11.1311
-11.1873
-11.258
-11.3459
-10.9137
-10.9174
-10.9266
-10.9371
-10.9474
-10.9575
-10.967
-10.9757
-10.9835
-10.9903
-10.9961
-11.0011
-11.0051
-11.0083
-11.0108
-11.0127
-11.0142
-11.0154
-11.0166
-11.0183
-11.0208
-11.0246
-11.0304
-11.039
-11.0513
-11.0682
-11.091
-11.1211
-11.1599
-11.2089
-11.2698
-11.3441
-11.434
-10.9297
-10.9328
-10.9406
-10.95
-10.9595
-10.9691
-10.9784
-10.987
-10.995
-11.0023
-11.0088
-11.0145
-11.0196
-11.0241
-11.0281
-11.0318
-11.0352
-11.0388
-11.0427
-11.0473
-11.0532
-11.0607
-11.0705
-11.0835
-11.1003
-11.122
-11.1497
-11.1844
-11.2275
-11.2803
-11.344
-11.4198
-11.5095
-10.9453
-10.9478
-10.9546
-10.963
-10.9718
-10.9809
-10.9898
-10.9984
-11.0065
-11.014
-11.021
-11.0275
-11.0335
-11.0391
-11.0445
-11.0498
-11.0552
-11.061
-11.0674
-11.0749
-11.0838
-11.0947
-11.1082
-11.125
-11.1459
-11.1717
-11.2033
-11.2417
-11.2881
-11.3432
-11.4084
-11.4842
-11.5719
-10.9604
-10.9626
-10.9685
-10.9762
-10.9844
-10.9931
-11.0018
-11.0104
-11.0187
-11.0267
-11.0343
-11.0416
-11.0487
-11.0556
-11.0624
-11.0694
-11.0767
-11.0846
-11.0935
-11.1036
-11.1154
-11.1294
-11.1461
-11.1662
-11.1904
-11.2194
-11.2541
-11.2951
-11.3434
-11.3997
-11.4648
-11.5392
-11.6236
-10.9752
-10.9771
-10.9824
-10.9894
-10.9972
-11.0055
-11.0141
-11.0227
-11.0311
-11.0395
-11.0477
-11.0558
-11.0637
-11.0718
-11.08
-11.0885
-11.0976
-11.1075
-11.1185
-11.131
-11.1453
-11.162
-11.1815
-11.2045
-11.2314
-11.2629
-11.2998
-11.3425
-11.3918
-11.4482
-11.5123
-11.5842
-11.6645
-10.9896
-10.9914
-10.9962
-11.0027
-11.0101
-11.0181
-11.0266
-11.0353
-11.044
-11.0528
-11.0616
-11.0705
-11.0795
-11.0887
-11.0982
-11.1083
-11.1191
-11.1309
-11.144
-11.1586
-11.1752
-11.1943
-11.2161
-11.2413
-11.2703
-11.3037
-11.342
-11.3856
-11.4351
-11.4907
-11.5528
-11.6214
-11.6968
-11.0037
-11.0054
-11.0098
-11.0159
-11.023
-11.0309
-11.0393
-11.0481
-11.0572
-11.0664
-11.0758
-11.0854
-11.0953
-11.1056
-11.1163
-11.1278
-11.1402
-11.1536
-11.1685
-11.185
-11.2036
-11.2245
-11.2483
-11.2753
-11.3058
-11.3405
-11.3795
-11.4233
-11.4721
-11.5263
-11.5858
-11.6507
-11.7209
-11.0176
-11.0191
-11.0233
-11.0292
-11.036
-11.0438
-11.0522
-11.0612
-11.0705
-11.0802
-11.0902
-11.1005
-11.1113
-11.1227
-11.1346
-11.1474
-11.1612
-11.1762
-11.1927
-11.2109
-11.2311
-11.2537
-11.2789
-11.3072
-11.3388
-11.3741
-11.4133
-11.4567
-11.5044
-11.5566
-11.6131
-11.6739
-11.7388
-11.0312
-11.0326
-11.0366
-11.0423
-11.049
-11.0567
-11.0652
-11.0743
-11.084
-11.0941
-11.1047
-11.1158
-11.1274
-11.1397
-11.1527
-11.1667
-11.1818
-11.1981
-11.2159
-11.2355
-11.2571
-11.2809
-11.3073
-11.3364
-11.3686
-11.4041
-11.443
-11.4855
-11.5316
-11.5814
-11.6347
-11.6913
-11.7509
-11.0445
-11.0459
-11.0497
-11.0552
-11.0619
-11.0696
-11.0782
-11.0875
-11.0975
-11.108
-11.1192
-11.131
-11.1434
-11.1566
-11.1706
-11.1857
-11.2018
-11.2193
-11.2383
-11.2591
-11.2817
-11.3065
-11.3336
-11.3632
-11.3956
-11.4309
-11.4691
-11.5104
-11.5546
-11.6018
-11.6517
-11.7041
-11.7587
-11.0574
-11.0588
-11.0626
-11.068
-11.0746
-11.0824
-11.0911
-11.1007
-11.111
-11.122
-11.1337
-11.1461
-11.1593
-11.1733
-11.1883
-11.2042
-11.2214
-11.2399
-11.2598
-11.2814
-11.3049
-11.3303
-11.3578
-11.3877
-11.4199
-11.4547
-11.4919
-11.5317
-11.5738
-11.6183
-11.6648
-11.7132
-11.763
-11.07
-11.0713
-11.0751
-11.0805
-11.0871
-11.095
-11.1039
-11.1137
-11.1243
-11.1358
-11.148
-11.161
-11.1748
-11.1896
-11.2053
-11.2221
-11.24
-11.2593
-11.28
-11.3023
-11.3263
-11.3521
-11.3798
-11.4096
-11.4414
-11.4753
-11.5113
-11.5494
-11.5894
-11.6312
-11.6744
-11.7189
-11.7643
-11.0821
-11.0835
-11.0873
-11.0927
-11.0994
-11.1074
-11.1165
-11.1266
-11.1376
-11.1494
-11.1622
-11.1757
-11.1902
-11.2056
-11.222
-11.2395
-11.2582
-11.2781
-11.2994
-11.3222
-11.3465
-11.3724
-11.4001
-11.4295
-11.4607
-11.4937
-11.5284
-11.5647
-11.6024
-11.6415
-11.6816
-11.7226
-11.764
-11.0938
-11.0952
-11.099
-11.1045
-11.1113
-11.1194
-11.1287
-11.1391
-11.1504
-11.1626
-11.1758
-11.1898
-11.2048
-11.2208
-11.2377
-11.2558
-11.275
-11.2954
-11.317
-11.3401
-11.3645
-11.3905
-11.4179
-11.4468
-11.4772
-11.5091
-11.5423
-11.5768
-11.6124
-11.6489
-11.6861
-11.7237
-11.7616
-11.105
-11.1064
-11.1103
-11.1159
-11.1228
-11.1311
-11.1407
-11.1514
-11.163
-11.1757
-11.1893
-11.2039
-11.2194
-11.2359
-11.2533
-11.2719
-11.2915
-11.3122
-11.3342
-11.3574
-11.3818
-11.4076
-11.4346
-11.4629
-11.4924
-11.523
-11.5548
-11.5875
-11.621
-11.655
-11.6895
-11.7242
-11.7587
-11.1156
-11.117
-11.1209
-11.1266
-11.1337
-11.1422
-11.152
-11.1629
-11.1748
-11.1878
-11.2018
-11.2167
-11.2326
-11.2494
-11.2673
-11.2861
-11.306
-11.327
-11.349
-11.3722
-11.3965
-11.4219
-11.4484
-11.476
-11.5045
-11.534
-11.5643
-11.5953
-11.6268
-11.6586
-11.6907
-11.7227
-11.7544
-11.1255
-11.1269
-11.131
-11.1369
-11.1443
-11.153
-11.1631
-11.1744
-11.1868
-11.2002
-11.2145
-11.2299
-11.2462
-11.2634
-11.2816
-11.3007
-11.3209
-11.342
-11.364
-11.3871
-11.4111
-11.4361
-11.462
-11.4888
-11.5163
-11.5446
-11.5734
-11.6027
-11.6323
-11.662
-11.6918
-11.7214
-11.7506
-11.1345
-11.136
-11.1401
-11.1462
-11.1537
-11.1626
-11.1729
-11.1843
-11.1969
-11.2106
-11.2252
-11.2408
-11.2574
-11.2748
-11.2932
-11.3126
-11.3328
-11.3539
-11.3759
-11.3988
-11.4226
-11.4471
-11.4724
-11.4984
-11.5249
-11.552
-11.5795
-11.6073
-11.6353
-11.6632
-11.691
-11.7186
-11.7457
-11.1426
-11.1443
-11.1487
-11.1551
-11.1631
-11.1725
-11.1832
-11.1951
-11.2082
-11.2222
-11.2372
-11.2531
-11.27
-11.2877
-11.3063
-11.3257
-11.346
-11.3671
-11.3889
-11.4115
-11.4348
-11.4588
-11.4834
-11.5085
-11.534
-11.5599
-11.5861
-11.6123
-11.6387
-11.6649
-11.6909
-11.7165
-11.7416
-11.1496
-11.1511
-11.1556
-11.1621
-11.1701
-11.1796
-11.1905
-11.2026
-11.2158
-11.2301
-11.2453
-11.2615
-11.2786
-11.2965
-11.3153
-11.3348
-11.3551
-11.3761
-11.3979
-11.4203
-11.4432
-11.4668
-11.4908
-11.5151
-11.5399
-11.5648
-11.5899
-11.6149
-11.6399
-11.6647
-11.6892
-11.7133
-11.7369
-11.1555
-11.1575
-11.1628
-11.17
-11.1787
-11.1889
-11.2004
-11.213
-11.2266
-11.2412
-11.2567
-11.2731
-11.2903
-11.3083
-11.327
-11.3465
-11.3666
-11.3874
-11.4088
-11.4308
-11.4532
-11.4761
-11.4993
-11.5229
-11.5466
-11.5704
-11.5943
-11.6181
-11.6417
-11.6651
-11.6882
-11.7107
-11.7328
-11.1592
-11.1607
-11.1657
-11.173
-11.1818
-11.1922
-11.2039
-11.2169
-11.2309
-11.2458
-11.2617
-11.2784
-11.2959
-11.3142
-11.3331
-11.3528
-11.373
-11.3939
-11.4152
-11.437
-11.4592
-11.4817
-11.5045
-11.5275
-11.5506
-11.5737
-11.5968
-11.6197
-11.6424
-11.6648
-11.6867
-11.7082
-11.7292
-11.1629
-11.1661
-11.1727
-11.181
-11.1907
-11.2018
-11.2141
-11.2274
-11.2415
-11.2564
-11.2723
-11.289
-11.3064
-11.3245
-11.3432
-11.3626
-11.3825
-11.4029
-11.4238
-11.4451
-11.4667
-11.4885
-11.5106
-11.5327
-11.5549
-11.5771
-11.5992
-11.621
-11.6426
-11.6639
-11.6847
-11.7051
-11.7249
-11.1598
-11.1615
-11.1682
-11.1774
-11.1877
-11.1995
-11.2125
-11.2269
-11.242
-11.2577
-11.2741
-11.2914
-11.3093
-11.3278
-11.347
-11.3667
-11.3868
-11.4074
-11.4284
-11.4497
-11.4712
-11.4929
-11.5147
-11.5366
-11.5584
-11.5801
-11.6017
-11.6229
-11.6439
-11.6645
-11.6846
-11.7042
-11.7233
-11.1628
-11.169
-11.1786
-11.1884
-11.1991
-11.211
-11.2238
-11.2371
-11.2514
-11.2668
-11.283
-11.2998
-11.3174
-11.3354
-11.3541
-11.3734
-11.3931
-11.4132
-11.4336
-11.4543
-11.4753
-11.4963
-11.5175
-11.5386
-11.5597
-11.5807
-11.6015
-11.622
-11.6422
-11.6619
-11.6813
-11.7002
-11.7186
-11.1434
-11.1483
-11.1613
-11.1743
-11.1877
-11.2022
-11.2172
-11.2327
-11.2488
-11.2656
-11.2828
-11.3006
-11.3189
-11.3378
-11.3571
-11.3768
-11.3969
-11.4173
-11.438
-11.4589
-11.4799
-11.501
-11.5221
-11.5432
-11.5641
-11.5848
-11.6053
-11.6255
-11.6453
-11.6646
-11.6835
-11.7019
-11.7196
-11.1571
-11.1675
-11.1793
-11.1894
-11.201
-11.2136
-11.2268
-11.2407
-11.2556
-11.2711
-11.2875
-11.3045
-11.3221
-11.3403
-11.3591
-11.3783
-11.3979
-11.4178
-11.438
-11.4585
-11.4791
-11.4997
-11.5204
-11.541
-11.5616
-11.5819
-11.602
-11.6218
-11.6412
-11.6602
-11.6788
-11.697
-11.7146
-11.0595
-11.1269
-11.1537
-11.1685
-11.1871
-11.205
-11.2215
-11.2379
-11.2547
-11.2718
-11.2893
-11.3073
-11.3257
-11.3446
-11.3638
-11.3835
-11.4035
-11.4237
-11.4442
-11.4649
-11.4856
-11.5063
-11.527
-11.5476
-11.5681
-11.5883
-11.6082
-11.6278
-11.647
-11.6657
-11.684
-11.7017
-11.7189
-9.48577
-9.92243
-9.55462
-8.93804
-8.53705
-9.16393
-12.103
-18.4637
-27.5635
-36.4909
-41.174
-40.0888
-33.824
-23.7694
-13.0093
-5.18302
-0.991027
0.718196
0.774059
-0.518927
-3.11218
-6.9817
-11.9117
-17.553
-23.5757
-29.7603
-35.9177
-41.7356
-46.6782
-50.1048
-51.4219
-50.4253
-47.2133
-42.2939
-36.2953
-29.9162
-23.7691
-18.0867
-12.8236
-8.06345
-4.10328
-1.19116
0.674009
1.4818
1.18726
-0.538021
-5.21195
-13.433
-23.8345
-34.063
-42.2129
-47.1322
-48.3649
-45.9317
-40.4458
-33.1853
-25.7318
-19.2222
-14.0337
-10.0697
-7.10585
-4.93038
-3.36164
-2.24851
-1.4712
-0.937965
-0.579918
-0.346082
-0.198967
-0.110967
-0.0616402
-0.035978
-0.0233187
-0.0166254
-0.0118663
-0.00729562
-0.00266188
0.00154647
0.00476147
0.00658336
0.00683187
0.0056542
0.00337385
0.000530809
-0.00186171
-0.00269861
-0.00143158
0.00160448
0.00532081
0.00852625
0.010737
0.0118428
0.0122535
0.0116263
0.0110556
0.00874491
0.00851333
0.00341036
0.00731903
-0.00623021
-9.70925
-10.0205
-9.68544
-9.0087
-8.50432
-9.03519
-12.0451
-18.146
-26.1644
-33.7445
-37.819
-36.8418
-30.965
-21.7652
-12.3588
-5.57897
-1.80102
-0.166212
-0.034291
-1.18305
-3.52449
-7.03983
-11.5941
-16.9
-22.6365
-28.5438
-34.3905
-39.8594
-44.4648
-47.6434
-48.8691
-47.9688
-45.0108
-40.439
-34.8418
-28.8771
-23.085
-17.6605
-12.6032
-8.05063
-4.29204
-1.53402
0.226821
0.991811
0.672601
-0.971926
-5.05706
-12.1877
-21.3601
-30.6275
-38.1955
-42.8622
-44.1478
-42.0772
-37.2833
-30.9533
-24.4099
-18.5805
-13.8129
-10.0839
-7.24411
-5.1276
-3.57927
-2.46462
-1.67428
-1.12268
-0.74448
-0.490537
-0.324246
-0.218384
-0.152731
-0.112393
-0.0867646
-0.0688223
-0.054485
-0.0419043
-0.0306613
-0.0210196
-0.0133455
-0.00786563
-0.00460681
-0.00331002
-0.00355506
-0.00473169
-0.00583087
-0.00578059
-0.00400496
-0.000734583
0.00310725
0.00647251
0.0089188
0.0103102
0.0110194
0.010695
0.0103955
0.00835481
0.00831269
0.0034273
0.00739565
-0.00603377
-9.98819
-10.089
-9.87575
-9.50519
-9.39168
-10.2274
-12.9486
-18.1375
-25.028
-31.4635
-34.696
-33.3139
-27.6774
-19.6209
-11.7617
-6.0197
-2.63262
-1.06817
-0.882515
-1.8906
-4.01103
-7.20061
-11.37
-16.2948
-21.6874
-27.2725
-32.7873
-37.9054
-42.1813
-45.1158
-46.2543
-45.4454
-42.7345
-38.5146
-33.338
-27.8066
-22.3778
-17.2207
-12.3904
-8.0707
-4.53049
-1.93373
-0.277892
0.438135
0.113437
-1.45888
-5.06857
-11.2436
-19.2336
-27.4716
-34.3567
-38.7186
-40.0567
-38.3882
-34.3222
-28.8935
-23.1854
-17.9699
-13.5897
-10.0866
-7.37169
-5.31762
-3.79325
-2.67998
-1.87869
-1.31009
-0.912456
-0.638656
-0.453131
-0.329168
-0.246814
-0.191365
-0.152334
-0.12274
-0.0984824
-0.0776095
-0.0595207
-0.0442677
-0.0320208
-0.0228291
-0.0165552
-0.0127998
-0.0110087
-0.0104674
-0.0101546
-0.00905213
-0.00661588
-0.00301038
0.00100116
0.00452115
0.00716039
0.00876746
0.00968297
0.00955556
0.00942198
0.00756411
0.00765272
0.00296306
0.00701055
-0.00620482
-10.1955
-10.2907
-10.2713
-10.2029
-10.3949
-11.342
-13.7516
-18.031
-23.5462
-28.4344
-30.5338
-28.9383
-24.1561
-17.6703
-11.3376
-6.50609
-3.47628
-1.98811
-1.76331
-2.64396
-4.55985
-7.44699
-11.2329
-15.7482
-20.7494
-25.9683
-31.1256
-35.8895
-39.8448
-42.5451
-43.6026
-42.8796
-40.4099
-36.5499
-31.8112
-26.7201
-21.6517
-16.7699
-12.1899
-8.12602
-4.81443
-2.38138
-0.828783
-0.164976
-0.48918
-1.99219
-5.22176
-10.5756
-17.4815
-24.6902
-30.8455
-34.8629
-36.2482
-34.9961
-31.6376
-27.03
-22.057
-17.3852
-13.3616
-10.0771
-7.48844
-5.50009
-4.00307
-2.89409
-2.08403
-1.49987
-1.08361
-0.79028
-0.585502
-0.443211
-0.34382
-0.272854
-0.219991
-0.17835
-0.143823
-0.114347
-0.0891462
-0.0680645
-0.0510667
-0.0380145
-0.0286006
-0.0222896
-0.0184106
-0.0161658
-0.0145211
-0.0124743
-0.00945178
-0.00552363
-0.00130943
0.00241546
0.00530365
0.0071919
0.00839272
0.00855246
0.00867497
0.0070778
0.00734974
0.00288489
0.00698883
-0.00606123
-10.4052
-10.4998
-10.5706
-10.6735
-11.054
-12.0581
-14.1117
-17.414
-21.4452
-24.8732
-26.362
-25.0597
-21.3299
-16.2316
-11.1079
-7.01694
-4.3241
-2.93488
-2.68106
-3.44239
-5.15891
-7.76262
-11.18
-15.278
-19.8554
-24.6677
-29.4367
-33.836
-37.4755
-39.9529
-40.9336
-40.2924
-38.0653
-34.5779
-30.2857
-25.6269
-20.909
-16.3122
-12.0072
-8.21699
-5.13826
-2.86839
-1.41715
-0.806532
-1.12753
-2.55422
-5.47377
-10.1438
-16.1071
-22.3603
-27.7875
-31.4409
-32.8566
-31.9876
-29.258
-25.3573
-21.0151
-16.8239
-13.1303
-10.0571
-7.5949
-5.67494
-4.20848
-3.10667
-2.29005
-1.69181
-1.2578
-0.945317
-0.721309
-0.560472
-0.443686
-0.356795
-0.289693
-0.235615
-0.19046
-0.152077
-0.11952
-0.0924229
-0.0705458
-0.0535574
-0.0409715
-0.0321002
-0.0261358
-0.0221745
-0.0191472
-0.0160636
-0.0123521
-0.00802197
-0.00356149
0.000377099
0.00349622
0.00562857
0.00706172
0.00744367
0.00775221
0.00635173
0.00675717
0.00248946
0.00665326
-0.00617239
-10.5906
-10.7009
-10.8428
-11.0652
-11.5467
-12.5293
-14.263
-16.8167
-19.7927
-22.3536
-23.3561
-22.2625
-19.2787
-15.189
-10.9951
-7.5327
-5.16487
-3.89276
-3.62344
-4.27684
-5.80043
-8.1343
-11.2049
-14.896
-19.0379
-23.4152
-27.7672
-31.7841
-35.1048
-37.3661
-38.2728
-37.7165
-35.7425
-32.6382
-28.7846
-24.5335
-20.1534
-15.8557
-11.849
-8.34267
-5.49495
-3.38508
-2.0335
-1.47469
-1.79224
-3.13486
-5.78615
-9.8933
-15.0678
-20.4883
-25.2418
-28.5335
-29.9473
-29.3878
-27.1734
-23.8551
-20.0478
-16.2831
-12.8965
-10.0276
-7.69147
-5.84215
-4.40927
-3.31743
-2.49647
-1.8857
-1.43485
-1.10365
-0.860469
-0.680893
-0.546375
-0.443151
-0.361384
-0.294465
-0.238325
-0.190726
-0.150557
-0.117245
-0.0903374
-0.0692997
-0.0534585
-0.0419682
-0.0338877
-0.0282155
-0.0238484
-0.0197885
-0.0154309
-0.0107036
-0.00597121
-0.00178233
0.00160602
0.0040247
0.00573969
0.00640128
0.00695537
0.00580702
0.00638673
0.00234334
0.00655177
-0.00605991
-10.7767
-10.9091
-11.1013
-11.3963
-11.9226
-12.8468
-14.3164
-16.332
-18.5795
-20.4072
-21.0412
-20.0889
-17.683
-14.3876
-10.9531
-8.03687
-5.97429
-4.82741
-4.55821
-5.11934
-6.46655
-8.54684
-11.2926
-14.5987
-18.3156
-22.2518
-26.1719
-29.7922
-32.7875
-34.8338
-35.6707
-35.2093
-33.4979
-30.7687
-27.321
-23.4418
-19.3918
-15.4122
-11.7209
-8.49982
-5.87658
-3.92225
-2.66891
-2.15991
-2.47256
-3.72695
-6.13306
-9.76617
-14.2854
-19.0067
-23.1742
-26.1242
-27.4951
-27.1551
-25.3388
-22.4933
-19.1435
-15.7621
-12.6623
-9.99012
-7.77877
-6.00185
-4.6053
-3.52616
-2.70308
-2.08135
-1.61466
-1.2652
-1.00292
-0.804425
-0.651831
-0.531857
-0.434997
-0.35483
-0.287339
-0.230217
-0.182191
-0.142484
-0.110422
-0.0852627
-0.0661338
-0.0520198
-0.0418324
-0.0344563
-0.0287346
-0.0236511
-0.0185818
-0.013397
-0.00835287
-0.00389808
-0.000244783
0.00244207
0.00440937
0.00531199
0.00606694
0.00512706
0.00584329
0.00200079
0.00624733
-0.00611292
-10.9456
-11.0981
-11.3234
-11.6586
-12.1931
-13.0373
-14.2703
-15.8552
-17.535
-18.8337
-19.2219
-18.3966
-16.4413
-13.7738
-10.9612
-8.51614
-6.73621
-5.71764
-5.46131
-5.94478
-7.13471
-8.98252
-11.4267
-14.3735
-17.6896
-21.202
-24.6984
-27.9252
-30.5968
-32.4317
-33.2082
-32.8491
-31.3861
-28.9899
-25.8941
-22.3547
-18.6388
-14.9957
-11.6263
-8.68328
-6.27492
-4.47104
-3.31412
-2.85234
-3.15681
-4.32108
-6.49735
-9.71634
-13.6796
-17.813
-21.4811
-24.1249
-25.4078
-25.2097
-23.6997
-21.246
-18.2958
-15.2617
-12.4296
-9.94581
-7.85744
-6.15426
-4.79656
-3.73271
-2.90971
-2.27864
-1.79711
-1.4299
-1.14862
-0.931018
-0.76
-0.622848
-0.510448
-0.416612
-0.3374
-0.270445
-0.21432
-0.168037
-0.130697
-0.101334
-0.0788693
-0.0621067
-0.0498069
-0.0407411
-0.0336965
-0.0276289
-0.0218747
-0.0162326
-0.0108568
-0.00610865
-0.00216277
0.000820984
0.00307247
0.00425264
0.00524629
0.00455195
0.00543076
0.00181182
0.00608596
-0.00601235
-11.1024
-11.2704
-11.5145
-11.8646
-12.381
-13.1325
-14.1551
-15.3946
-16.6476
-17.5667
-17.775
-17.0522
-15.4591
-13.3018
-11.0039
-8.96471
-7.4436
-6.55268
-6.31882
-6.73819
-7.78789
-9.4249
-11.5919
-14.2056
-17.1484
-20.2658
-23.3662
-26.2242
-28.5915
-30.2285
-30.9508
-30.6787
-29.4157
-27.2883
-24.4961
-21.2848
-17.9161
-14.6184
-11.5649
-8.88643
-6.68191
-5.02312
-3.9599
-3.54219
-3.83418
-4.90715
-6.8671
-9.71476
-13.1914
-16.8149
-20.0458
-22.4003
-23.5835
-23.4795
-22.2169
-20.0987
-17.5021
-14.7833
-12.2
-9.89599
-7.92824
-6.29971
-4.9831
-3.93703
-3.11626
-2.47748
-1.98216
-1.5977
-1.29753
-1.06063
-0.870821
-0.716039
-0.587635
-0.479697
-0.388387
-0.311292
-0.246834
-0.19381
-0.15109
-0.117471
-0.0916559
-0.0722555
-0.0578673
-0.0471363
-0.0387778
-0.0317091
-0.0252321
-0.0190889
-0.0133474
-0.00828784
-0.0040459
-0.000772239
0.00174797
0.00318357
0.00438812
0.00391079
0.00492447
0.00151209
0.00580013
-0.00601227
-11.2414
-11.4192
-11.6702
-12.0173
-12.4996
-13.1568
-13.9982
-14.9649
-15.8955
-16.5358
-16.6201
-15.9926
-14.6939
-12.9471
-11.0711
-9.379
-8.09192
-7.32489
-7.12031
-7.48775
-8.41297
-9.85976
-11.7746
-14.0821
-16.6786
-19.4287
-22.1636
-24.6843
-26.7745
-28.229
-28.8851
-28.6601
-27.5431
-25.6405
-23.1367
-20.2612
-17.2466
-14.2873
-11.5328
-9.10195
-7.08999
-5.57044
-4.59704
-4.2194
-4.49422
-5.47581
-7.2331
-9.74527
-12.7881
-15.9572
-18.794
-20.8825
-21.9627
-21.9273
-20.8723
-19.0451
-16.7616
-14.3278
-11.975
-9.84189
-7.99199
-6.43863
-5.1651
-4.13915
-3.32273
-2.67785
-2.16978
-1.76861
-1.44964
-1.19324
-0.984233
-0.811338
-0.666438
-0.543946
-0.440152
-0.352611
-0.279593
-0.219676
-0.171483
-0.133566
-0.10439
-0.082364
-0.0659122
-0.0535493
-0.0439141
-0.0358791
-0.0287005
-0.0220562
-0.0159342
-0.0105423
-0.00598358
-0.00239942
0.000410816
0.00212533
0.0035643
0.00332764
0.00449092
0.00130238
0.0055942
-0.00591073
-11.3638
-11.5457
-11.7946
-12.1268
-12.5659
-13.1321
-13.8193
-14.5702
-15.2577
-15.6969
-15.6996
-15.1552
-14.0936
-12.6791
-11.1524
-9.75762
-8.68025
-8.03076
-7.85941
-8.18505
-9.00037
-10.2759
-11.963
-13.992
-16.2703
-18.6792
-21.0724
-23.2775
-25.1069
-26.3809
-26.951
-26.7427
-25.7498
-24.0667
-21.8571
-19.3186
-16.645
-14.0016
-11.5233
-9.32255
-7.49215
-6.1053
-5.21693
-4.87502
-5.129
-6.01982
-7.58808
-9.79791
-12.4539
-15.2165
-17.6977
-19.5434
-20.5229
-20.5373
-19.6563
-18.0801
-16.0725
-13.8956
-11.7558
-9.78481
-8.04961
-6.57156
-5.34282
-4.33918
-3.52917
-2.87981
-2.36006
-1.94268
-1.60498
-1.32882
-1.10018
-0.908641
-0.746718
-0.609196
-0.492523
-0.394231
-0.312438
-0.245495
-0.191762
-0.149529
-0.117013
-0.0924012
-0.0739343
-0.0599853
-0.0491036
-0.0401081
-0.0322109
-0.0250369
-0.0185075
-0.0127654
-0.00788231
-0.00398809
-0.000894955
0.00108625
0.00274213
0.0027275
0.00401996
0.00104255
0.00532033
-0.00585991
-11.4689
-11.6497
-11.8895
-12.199
-12.5911
-13.0731
-13.6306
-14.2115
-14.7168
-15.0115
-14.9625
-14.493
-13.6257
-12.4822
-11.2439
-10.1014
-9.20905
-8.66839
-8.53206
-8.82435
-9.54334
-10.6654
-12.1473
-13.9257
-15.9163
-18.0135
-20.0897
-21.9968
-23.5747
-24.6679
-25.1495
-24.9578
-24.0907
-22.6266
-20.7012
-18.4758
-16.1117
-13.7544
-11.5288
-9.54168
-7.88203
-6.62071
-5.81204
-5.50168
-5.73223
-6.5341
-7.92662
-9.86467
-12.1772
-14.5788
-16.742
-18.3664
-19.2476
-19.2953
-18.5583
-17.1977
-15.4327
-13.4871
-11.5438
-9.72602
-8.10208
-6.69914
-5.51665
-4.53739
-3.73578
-3.08353
-2.55313
-2.12004
-1.76362
-1.46738
-1.21859
-1.00783
-0.82831
-0.675252
-0.545294
-0.435949
-0.345179
-0.271095
-0.211779
-0.165238
-0.129421
-0.10228
-0.0818613
-0.0663875
-0.0543132
-0.0443993
-0.0358073
-0.0281072
-0.0211603
-0.0150522
-0.0098283
-0.00560824
-0.00221708
4.65195e-05
0.00193395
0.00215624
0.00358549
0.000831693
0.00508455
-0.00574526
-11.5569
-11.7327
-11.9589
-12.2416
-12.5863
-12.9926
-13.4423
-13.8901
-14.2593
-14.4516
-14.3729
-13.9704
-13.2624
-12.3394
-11.3392
-10.4105
-9.68026
-9.23852
-9.1371
-9.40264
-10.0373
-11.0224
-12.3202
-13.874
-15.6078
-17.4268
-19.2188
-20.8561
-22.2032
-23.1313
-23.5376
-23.3679
-22.6188
-21.3527
-19.678
-17.7265
-15.636
-13.5364
-11.5425
-9.75392
-8.25415
-7.11073
-6.37629
-6.09368
-6.29924
-7.01496
-8.24473
-9.93857
-11.9466
-14.0289
-15.9087
-17.3313
-18.1176
-18.1855
-17.5674
-16.3917
-14.84
-13.1023
-11.34
-9.66679
-8.15043
-6.82212
-5.68711
-4.73413
-3.94287
-3.28928
-2.74924
-2.30087
-1.92569
-1.60897
-1.33943
-1.10878
-0.911024
-0.74189
-0.598223
-0.477528
-0.377598
-0.296285
-0.231372
-0.18056
-0.141511
-0.111926
-0.08964
-0.0727151
-0.0595008
-0.048694
-0.039408
-0.0311666
-0.0237831
-0.0172932
-0.0117195
-0.00717063
-0.00348405
-0.00094494
0.00116191
0.00160796
0.00315676
0.00061648
0.00482342
-0.0056427
-11.6296
-11.7972
-12.0066
-12.2607
-12.56
-12.8996
-13.2606
-13.6047
-13.8729
-13.9936
-13.9005
-13.5581
-12.9816
-12.2394
-11.4358
-10.6871
-10.0968
-9.74316
-9.67495
-9.9189
-10.4799
-11.3433
-12.4766
-13.8295
-15.3348
-16.9083
-18.4513
-19.8539
-21.0018
-21.7888
-22.1298
-21.9773
-21.3271
-20.2281
-18.767
-17.0538
-15.2069
-13.3409
-11.5598
-9.95494
-8.60404
-7.57068
-6.90498
-6.64667
-6.82648
-7.45953
-8.53943
-10.014
-11.7523
-13.5518
-15.1796
-16.4198
-17.1162
-17.1943
-16.6739
-15.6567
-14.2923
-12.7415
-11.1455
-9.60836
-8.19574
-6.94131
-5.85481
-4.92992
-4.15086
-3.49747
-2.94876
-2.48547
-2.09137
-1.75365
-1.46265
-1.21133
-0.994638
-0.80884
-0.651024
-0.518685
-0.409433
-0.320835
-0.250348
-0.195342
-0.15317
-0.121259
-0.0972184
-0.0789423
-0.0646683
-0.053027
-0.0430793
-0.0343059
-0.0264803
-0.0195959
-0.0136585
-0.00876726
-0.00477331
-0.0019472
0.00038846
0.00106812
0.00273932
0.000421302
0.00457045
-0.00550677
-11.6875
-11.8447
-12.036
-12.2615
-12.519
-12.8011
-13.0899
-13.3538
-13.5476
-13.6193
-13.5226
-13.2339
-12.7664
-12.1719
-11.5304
-10.9324
-10.462
-10.1857
-10.1479
-10.374
-10.8706
-11.6261
-12.6128
-13.7868
-15.0888
-16.4453
-17.7703
-18.9694
-19.946
-20.6108
-20.8927
-20.7514
-20.1831
-19.2256
-17.9495
-16.4464
-14.8175
-13.1633
-11.5769
-10.1413
-8.92822
-7.99696
-7.39458
-7.15744
-7.31138
-7.86599
-8.80854
-10.0867
-11.5863
-13.1362
-14.5405
-15.6164
-16.2284
-16.3091
-15.8689
-14.9876
-13.7876
-12.4046
-10.9613
-9.55191
-8.23911
-7.05765
-6.02053
-5.1254
-4.36038
-3.70867
-3.1522
-2.67426
-2.26096
-1.90156
-1.58821
-1.31533
-1.0789
-0.875795
-0.703372
-0.559104
-0.440394
-0.34449
-0.268491
-0.209406
-0.16425
-0.130157
-0.104495
-0.0849765
-0.0697214
-0.057291
-0.0466991
-0.0373915
-0.0291126
-0.0218217
-0.015512
-0.0102743
-0.00597378
-0.00286529
-0.00031092
0.000590886
0.00236739
0.000262265
0.00432892
-0.00535034
-11.733
-11.8785
-12.0511
-12.2492
-12.469
-12.7022
-12.9328
-13.1349
-13.2744
-13.3136
-13.2202
-12.9793
-12.6024
-12.1291
-11.6209
-11.1485
-10.7797
-10.57
-10.559
-10.7699
-11.2099
-11.8701
-12.7268
-13.7419
-14.8637
-16.0283
-17.1615
-18.1824
-19.0094
-19.5673
-19.797
-19.6641
-19.1651
-18.3294
-17.2146
-15.8972
-14.4632
-13.0001
-11.5907
-10.3102
-9.22401
-8.38692
-7.84254
-7.62381
-7.75233
-8.23346
-9.0507
-10.1534
-11.442
-12.772
-13.9788
-14.9074
-15.4411
-15.519
-15.1444
-14.3794
-13.3238
-12.0913
-10.7881
-9.4986
-8.28168
-7.17213
-6.18513
-5.32139
-4.57219
-3.92364
-3.36026
-2.86781
-2.43483
-2.05286
-1.7161
-1.4206
-1.1635
-0.942375
-0.75486
-0.598388
-0.470118
-0.366941
-0.285553
-0.222566
-0.174628
-0.138552
-0.111451
-0.0908417
-0.0747214
-0.0615816
-0.0503892
-0.0405638
-0.0318284
-0.0241193
-0.0174235
-0.0118262
-0.00720807
-0.00380754
-0.00102803
0.000102897
0.00198455
9.80526e-05
0.00406993
-0.00518961
-11.7668
-11.9001
-12.0544
-12.2272
-12.4138
-12.6061
-12.7901
-12.9452
-13.0457
-13.0643
-12.9788
-12.7802
-12.4785
-12.1047
-11.7058
-11.3373
-11.0535
-10.9005
-10.9123
-11.1097
-11.4998
-12.0758
-12.8176
-13.6922
-14.6549
-15.6505
-16.6153
-17.4803
-18.1766
-18.6412
-18.825
-18.6986
-18.2584
-17.5278
-16.5537
-15.3997
-14.1391
-12.8477
-11.5987
-10.4595
-9.48952
-8.7388
-8.2473
-8.04455
-8.14858
-8.56161
-9.26521
-10.2117
-11.3143
-12.4511
-13.4837
-14.281
-14.7426
-14.8138
-14.4931
-13.8278
-12.899
-11.8015
-10.6266
-9.4495
-8.32459
-7.28581
-6.3496
-5.51886
-4.78729
-4.14335
-3.57384
-3.06687
-2.6135
-2.20782
-1.84632
-1.52692
-1.24809
-1.00817
-0.805059
-0.636124
-0.498229
-0.387854
-0.301246
-0.234576
-0.184091
-0.146259
-0.117912
-0.096366
-0.0794894
-0.0657068
-0.0539509
-0.0436194
-0.0344247
-0.0262901
-0.0192016
-0.0132408
-0.00830583
-0.00461771
-0.00162338
-0.000275261
0.00169233
1.40783e-05
0.00386141
-0.00497587
-11.7915
-11.9126
-12.0495
-12.1993
-12.3572
-12.5156
-12.6626
-12.7822
-12.8549
-12.8613
-12.7863
-12.6248
-12.3857
-12.0932
-11.7838
-11.5007
-11.2874
-11.1816
-11.2121
-11.397
-11.7431
-12.2447
-12.8851
-13.6359
-14.4587
-15.3061
-16.1234
-16.8525
-17.4351
-17.8184
-17.9618
-17.8402
-17.45
-16.81
-15.9582
-14.9479
-13.841
-12.7032
-11.5988
-10.5878
-9.72359
-9.05164
-8.6081
-8.41928
-8.50015
-8.8507
-9.45192
-10.2597
-11.1989
-12.1665
-13.046
-13.7268
-14.1227
-14.1849
-13.9081
-13.3285
-12.511
-11.5347
-10.4774
-9.4056
-8.36895
-7.39983
-6.51506
-5.71893
-5.00686
-4.36904
-3.7941
-3.2724
-2.79764
-2.36676
-1.97886
-1.63404
-1.33224
-1.07262
-0.853375
-0.671743
-0.524225
-0.406817
-0.315257
-0.245227
-0.192528
-0.153254
-0.123933
-0.101669
-0.0841953
-0.0698704
-0.0576051
-0.0467875
-0.0371296
-0.028556
-0.0210588
-0.0147198
-0.00945665
-0.00547184
-0.00225839
-0.000688051
0.00136263
-0.000104032
0.00360722
-0.00479076
-11.8079
-11.9171
-12.0379
-12.1674
-12.3009
-12.4315
-12.5496
-12.6426
-12.696
-12.6962
-12.633
-12.5039
-12.3168
-12.0907
-11.8541
-11.6408
-11.4852
-11.418
-11.4632
-11.6362
-11.943
-12.379
-12.9301
-13.5722
-14.2723
-14.9899
-15.6788
-16.2896
-16.7734
-17.0863
-17.1941
-17.0758
-16.7282
-16.166
-15.4206
-14.5361
-13.5651
-12.5642
-11.5895
-10.694
-9.92568
-9.32516
-8.92496
-8.74832
-8.80766
-9.10147
-9.61107
-10.2964
-11.0925
-11.9121
-12.6576
-13.2355
-13.5721
-13.6239
-13.3834
-12.8773
-12.1579
-11.2903
-10.3409
-9.36779
-8.41583
-7.51529
-6.68269
-5.92292
-5.23237
-4.60226