/*--------------------------------*- C++ -*----------------------------------*\
  =========                 |
  \\      /  F ield         | OpenFOAM: The Open Source CFD Toolbox
   \\    /   O peration     | Website:  https://openfoam.org
    \\  /    A nd           | Version:  10
     \\/     M anipulation  |
\*---------------------------------------------------------------------------*/
FoamFile
{
    format      ascii;
    class       surfaceScalarField;
    location    "0.125";
    object      phi;
}
// * * * * * * * * * * * * * * * * * * * * * * * * * * * * * * * * * * * * * //

dimensions      [0 3 -1 0 0 0 0];

internalField   nonuniform List<scalar> 
13452
(
5.94522e-05
8.1628e-07
5.84693e-05
9.82867e-07
5.74441e-05
1.02524e-06
5.63889e-05
1.05516e-06
5.5332e-05
1.05692e-06
5.42846e-05
1.04741e-06
5.32499e-05
1.03464e-06
5.22297e-05
1.02025e-06
5.12243e-05
1.00537e-06
5.02335e-05
9.90834e-07
4.92563e-05
9.77168e-07
4.82916e-05
9.64765e-07
4.73376e-05
9.53986e-07
4.63924e-05
9.45175e-07
4.54537e-05
9.3869e-07
4.45188e-05
9.34925e-07
4.35844e-05
9.34335e-07
4.2647e-05
9.37456e-07
4.17021e-05
9.44933e-07
4.07445e-05
9.57546e-07
3.97683e-05
9.76235e-07
3.87661e-05
1.00213e-06
3.77296e-05
1.03657e-06
3.66485e-05
1.08111e-06
3.55109e-05
1.13753e-06
3.43032e-05
1.20777e-06
3.30093e-05
1.29384e-06
3.16114e-05
1.39789e-06
3.00908e-05
1.52065e-06
2.84238e-05
1.66701e-06
2.66009e-05
1.82289e-06
2.45694e-05
2.03146e-06
2.17664e-06
2.23928e-05
6.249e-05
3.1658e-07
6.29654e-05
5.07459e-07
6.34126e-05
5.78103e-07
6.38221e-05
6.45655e-07
6.41865e-05
6.92502e-07
6.45055e-05
7.28364e-07
6.47807e-05
7.59539e-07
6.50141e-05
7.86841e-07
6.52083e-05
8.11126e-07
6.53658e-05
8.33356e-07
6.54887e-05
8.54252e-07
6.5579e-05
8.74452e-07
6.56384e-05
8.94594e-07
6.56683e-05
9.15329e-07
6.56696e-05
9.37342e-07
6.56431e-05
9.61386e-07
6.55892e-05
9.88307e-07
6.55075e-05
1.01908e-06
6.53976e-05
1.05485e-06
6.52582e-05
1.09699e-06
6.50873e-05
1.14714e-06
6.48821e-05
1.20727e-06
6.46389e-05
1.27977e-06
6.43526e-05
1.36747e-06
6.40164e-05
1.47373e-06
6.36217e-05
1.60244e-06
6.31575e-05
1.7581e-06
6.26099e-05
1.94548e-06
6.19607e-05
2.16987e-06
6.11914e-05
2.4363e-06
6.0266e-05
2.74829e-06
5.91828e-05
3.11458e-06
3.51925e-06
5.78402e-05
6.38343e-05
2.43688e-07
6.39094e-05
4.32306e-07
6.39778e-05
5.098e-07
6.40485e-05
5.74895e-07
6.41209e-05
6.20085e-07
6.41971e-05
6.52229e-07
6.42779e-05
6.78722e-07
6.43634e-05
7.01347e-07
6.44533e-05
7.2123e-07
6.45471e-05
7.39512e-07
6.46443e-05
7.57022e-07
6.47444e-05
7.74428e-07
6.48466e-05
7.92363e-07
6.49505e-05
8.11451e-07
6.50555e-05
8.32335e-07
6.51612e-05
8.55717e-07
6.52671e-05
8.82381e-07
6.53729e-05
9.13234e-07
6.54784e-05
9.49345e-07
6.55834e-05
9.91984e-07
6.56879e-05
1.04268e-06
6.57919e-05
1.10328e-06
6.58957e-05
1.17599e-06
6.59996e-05
1.26349e-06
6.61044e-05
1.36894e-06
6.62108e-05
1.49609e-06
6.63196e-05
1.64931e-06
6.64315e-05
1.8335e-06
6.65471e-05
2.05432e-06
6.66661e-05
2.31733e-06
6.67856e-05
2.62881e-06
6.69062e-05
2.99389e-06
3.40789e-06
6.70176e-05
6.56403e-05
1.86416e-07
6.56919e-05
3.80789e-07
6.57272e-05
4.74425e-07
6.5755e-05
5.47152e-07
6.57759e-05
5.99127e-07
6.5792e-05
6.36165e-07
6.58046e-05
6.66108e-07
6.58145e-05
6.91463e-07
6.58222e-05
7.13532e-07
6.58281e-05
7.33592e-07
6.58325e-05
7.52601e-07
6.58356e-05
7.71318e-07
6.58376e-05
7.90438e-07
6.58384e-05
8.10636e-07
6.58381e-05
8.32593e-07
6.58368e-05
8.57037e-07
6.58344e-05
8.84762e-07
6.5831e-05
9.16664e-07
6.58266e-05
9.53773e-07
6.58213e-05
9.97289e-07
6.58153e-05
1.04861e-06
6.58092e-05
1.1094e-06
6.58036e-05
1.18157e-06
6.57998e-05
1.26736e-06
6.57993e-05
1.36937e-06
6.58049e-05
1.49053e-06
6.58201e-05
1.63411e-06
6.58499e-05
1.80367e-06
6.59013e-05
2.00292e-06
6.59829e-05
2.23575e-06
6.61072e-05
2.50454e-06
6.6286e-05
2.81502e-06
3.15406e-06
6.65399e-05
6.74902e-05
1.52956e-07
6.75306e-05
3.40402e-07
6.7564e-05
4.41045e-07
6.75943e-05
5.16894e-07
6.76199e-05
5.73528e-07
6.76407e-05
6.15361e-07
6.76574e-05
6.49363e-07
6.76705e-05
6.78373e-07
6.76802e-05
7.03828e-07
6.76867e-05
7.27081e-07
6.76901e-05
7.49188e-07
6.76905e-05
7.70976e-07
6.76877e-05
7.93194e-07
6.76818e-05
8.16563e-07
6.76726e-05
8.41802e-07
6.766e-05
8.69671e-07
6.76437e-05
9.00988e-07
6.76237e-05
9.36663e-07
6.75998e-05
9.77724e-07
6.75717e-05
1.02535e-06
6.75395e-05
1.08088e-06
6.7503e-05
1.14587e-06
6.74625e-05
1.22208e-06
6.74183e-05
1.31151e-06
6.73713e-05
1.41639e-06
6.73227e-05
1.53915e-06
6.72745e-05
1.68236e-06
6.72295e-05
1.84866e-06
6.71919e-05
2.04045e-06
6.71675e-05
2.26017e-06
6.71639e-05
2.50815e-06
6.71913e-05
2.78764e-06
3.08678e-06
6.72585e-05
6.94114e-05
1.25549e-07
6.94495e-05
3.02366e-07
6.94817e-05
4.08798e-07
6.95099e-05
4.8876e-07
6.95334e-05
5.49982e-07
6.95525e-05
5.96222e-07
6.95681e-05
6.33757e-07
6.95807e-05
6.65815e-07
6.95905e-05
6.94061e-07
6.95976e-05
7.19937e-07
6.96022e-05
7.44588e-07
6.96043e-05
7.68918e-07
6.96037e-05
7.93729e-07
6.96005e-05
8.19765e-07
6.95945e-05
8.4779e-07
6.95856e-05
8.78578e-07
6.95737e-05
9.12958e-07
6.95585e-05
9.51836e-07
6.954e-05
9.96226e-07
6.95181e-05
1.04726e-06
6.94927e-05
1.10623e-06
6.9464e-05
1.17456e-06
6.94323e-05
1.25385e-06
6.93979e-05
1.34589e-06
6.93617e-05
1.45257e-06
6.93249e-05
1.57591e-06
6.92894e-05
1.71795e-06
6.92574e-05
1.88066e-06
6.92322e-05
2.06565e-06
6.9218e-05
2.27438e-06
6.92196e-05
2.50654e-06
6.92437e-05
2.76351e-06
3.03714e-06
6.92933e-05
7.13847e-05
1.07169e-07
7.1414e-05
2.73119e-07
7.14409e-05
3.81864e-07
7.1466e-05
4.63664e-07
7.14885e-05
5.27438e-07
7.15079e-05
5.7682e-07
7.15244e-05
6.17268e-07
7.15382e-05
6.52059e-07
7.15493e-05
6.82941e-07
7.15579e-05
7.11359e-07
7.1564e-05
7.38494e-07
7.15676e-05
7.65282e-07
7.15688e-05
7.92545e-07
7.15675e-05
8.2108e-07
7.15636e-05
8.51656e-07
7.15571e-05
8.85055e-07
7.1548e-05
9.22096e-07
7.15362e-05
9.63666e-07
7.15217e-05
1.01074e-06
7.15045e-05
1.06437e-06
7.1485e-05
1.12576e-06
7.14634e-05
1.1962e-06
7.14401e-05
1.27708e-06
7.14161e-05
1.36992e-06
7.13924e-05
1.47629e-06
7.13705e-05
1.59776e-06
7.13526e-05
1.73585e-06
7.13414e-05
1.89189e-06
7.13402e-05
2.06683e-06
7.13533e-05
2.26132e-06
7.13852e-05
2.47465e-06
7.14417e-05
2.70698e-06
2.95255e-06
7.15263e-05
7.34192e-05
9.32362e-08
7.34448e-05
2.47484e-07
7.34706e-05
3.5611e-07
7.34951e-05
4.39203e-07
7.35172e-05
5.05342e-07
7.35361e-05
5.57835e-07
7.35522e-05
6.01235e-07
7.35655e-05
6.38721e-07
7.35763e-05
6.72136e-07
7.35847e-05
7.02953e-07
7.35908e-05
7.32394e-07
7.35947e-05
7.61442e-07
7.35962e-05
7.90957e-07
7.35956e-05
8.21745e-07
7.35927e-05
8.54564e-07
7.35875e-05
8.90208e-07
7.35801e-05
9.29475e-07
7.35706e-05
9.73222e-07
7.3559e-05
1.02236e-06
7.35455e-05
1.07787e-06
7.35304e-05
1.14082e-06
7.35143e-05
1.21232e-06
7.34978e-05
1.29358e-06
7.34819e-05
1.38581e-06
7.3468e-05
1.49024e-06
7.34577e-05
1.60802e-06
7.34534e-05
1.74015e-06
7.34579e-05
1.88739e-06
7.34747e-05
2.05007e-06
7.35078e-05
2.22814e-06
7.3562e-05
2.42049e-06
7.36426e-05
2.62633e-06
2.84097e-06
7.37542e-05
7.55128e-05
8.29163e-08
7.55337e-05
2.26613e-07
7.55558e-05
3.33981e-07
7.55774e-05
4.17632e-07
7.55975e-05
4.85175e-07
7.56156e-05
5.39809e-07
7.56313e-05
5.85437e-07
7.5645e-05
6.25092e-07
7.56565e-05
6.60652e-07
7.56658e-05
6.93582e-07
7.56731e-05
7.25096e-07
7.56784e-05
7.56194e-07
7.56816e-05
7.87761e-07
7.56827e-05
8.20576e-07
7.56819e-05
8.55389e-07
7.56792e-05
8.92967e-07
7.56746e-05
9.34086e-07
7.56682e-05
9.79548e-07
7.56604e-05
1.03019e-06
7.56514e-05
1.0869e-06
7.56416e-05
1.1506e-06
7.56317e-05
1.22224e-06
7.56224e-05
1.30279e-06
7.56151e-05
1.39318e-06
7.5611e-05
1.4943e-06
7.56121e-05
1.6069e-06
7.56208e-05
1.73153e-06
7.56397e-05
1.86842e-06
7.56724e-05
2.0174e-06
7.57227e-05
2.17784e-06
7.57949e-05
2.34826e-06
7.58941e-05
2.52716e-06
2.71033e-06
7.60247e-05
7.76675e-05
7.49761e-08
7.76852e-05
2.08912e-07
7.77055e-05
3.13738e-07
7.7726e-05
3.97109e-07
7.77457e-05
4.6547e-07
7.77637e-05
5.21839e-07
7.77796e-05
5.69504e-07
7.77935e-05
6.11222e-07
7.78053e-05
6.48832e-07
7.78151e-05
6.83766e-07
7.7823e-05
7.17225e-07
7.7829e-05
7.50208e-07
7.78331e-05
7.83575e-07
7.78356e-05
8.1812e-07
7.78364e-05
8.54602e-07
7.78356e-05
8.93748e-07
7.78334e-05
9.36286e-07
7.783e-05
9.82952e-07
7.78257e-05
1.0345e-06
7.78209e-05
1.0917e-06
7.78162e-05
1.15534e-06
7.78122e-05
1.22618e-06
7.78101e-05
1.30496e-06
7.78109e-05
1.39235e-06
7.78163e-05
1.48892e-06
7.78281e-05
1.59505e-06
7.78488e-05
1.71088e-06
7.7881e-05
1.83622e-06
7.79279e-05
1.97046e-06
7.79933e-05
2.11251e-06
7.8081e-05
2.26057e-06
7.81955e-05
2.41262e-06
2.56468e-06
7.83411e-05
7.98846e-05
6.87317e-08
7.98995e-05
1.94019e-07
7.99174e-05
2.95817e-07
7.9936e-05
3.78505e-07
7.99542e-05
4.4726e-07
7.99712e-05
5.04844e-07
7.99866e-05
5.54058e-07
8.00004e-05
5.97405e-07
8.00126e-05
6.36675e-07
8.00231e-05
6.73266e-07
8.0032e-05
7.08356e-07
8.00392e-05
7.42932e-07
8.0045e-05
7.7784e-07
8.00493e-05
8.13836e-07
8.00522e-05
8.51644e-07
8.0054e-05
8.91959e-07
8.00548e-05
9.35457e-07
8.0055e-05
9.82804e-07
8.00548e-05
1.03466e-06
8.00548e-05
1.09168e-06
8.00557e-05
1.15449e-06
8.00582e-05
1.22368e-06
8.00634e-05
1.29977e-06
8.00726e-05
1.38317e-06
8.00873e-05
1.47416e-06
8.01096e-05
1.5728e-06
8.01415e-05
1.67888e-06
8.01859e-05
1.79187e-06
8.02456e-05
1.91079e-06
8.03238e-05
2.03422e-06
8.04243e-05
2.16013e-06
8.05508e-05
2.28615e-06
2.40847e-06
8.0707e-05
8.21655e-05
6.36903e-08
8.21782e-05
1.81292e-07
8.21944e-05
2.79647e-07
8.22118e-05
3.61106e-07
8.22293e-05
4.29738e-07
8.22461e-05
4.88046e-07
8.22617e-05
5.38441e-07
8.2276e-05
5.83156e-07
8.22888e-05
6.23878e-07
8.23001e-05
6.61941e-07
8.231e-05
6.98469e-07
8.23185e-05
7.34414e-07
8.23257e-05
7.70593e-07
8.23318e-05
8.07743e-07
8.23369e-05
8.46553e-07
8.23412e-05
8.8767e-07
8.2345e-05
9.31708e-07
8.23485e-05
9.79252e-07
8.23523e-05
1.03086e-06
8.23569e-05
1.08707e-06
8.23631e-05
1.14835e-06
8.23716e-05
1.21513e-06
8.23837e-05
1.28771e-06
8.24006e-05
1.36628e-06
8.24239e-05
1.45086e-06
8.24555e-05
1.54124e-06
8.24974e-05
1.63692e-06
8.25522e-05
1.73709e-06
8.26224e-05
1.84053e-06
8.27111e-05
1.94559e-06
8.28211e-05
2.05008e-06
8.29558e-05
2.15146e-06
2.24616e-06
8.31181e-05
8.4512e-05
5.95122e-08
8.45229e-05
1.70307e-07
8.45375e-05
2.65085e-07
8.45536e-05
3.45007e-07
8.45701e-05
4.13202e-07
8.45863e-05
4.71877e-07
8.46016e-05
5.23104e-07
8.46159e-05
5.68857e-07
8.46291e-05
6.10709e-07
8.46411e-05
6.49926e-07
8.4652e-05
6.87581e-07
8.46618e-05
7.24583e-07
8.46707e-05
7.6172e-07
8.46788e-05
7.9969e-07
8.46862e-05
8.39135e-07
8.46932e-05
8.80644e-07
8.47002e-05
9.24763e-07
8.47074e-05
9.71997e-07
8.47155e-05
1.02281e-06
8.47249e-05
1.0776e-06
8.47366e-05
1.13671e-06
8.47513e-05
1.2004e-06
8.47702e-05
1.26878e-06
8.47947e-05
1.34186e-06
8.48261e-05
1.41942e-06
8.48663e-05
1.50103e-06
8.49172e-05
1.58599e-06
8.49811e-05
1.67328e-06
8.50601e-05
1.76149e-06
8.51568e-05
1.84888e-06
8.52737e-05
1.9332e-06
8.54133e-05
2.01188e-06
2.08167e-06
8.55778e-05
8.69257e-05
5.59636e-08
8.69353e-05
1.60689e-07
8.69486e-05
2.5184e-07
8.69637e-05
3.29921e-07
8.69795e-05
3.97317e-07
8.69955e-05
4.55954e-07
8.70109e-05
5.07633e-07
8.70257e-05
5.54093e-07
8.70396e-05
5.96783e-07
8.70527e-05
6.36885e-07
8.70648e-05
6.75407e-07
8.70762e-05
7.13205e-07
8.70869e-05
7.51022e-07
8.70971e-05
7.8951e-07
8.7107e-05
8.29257e-07
8.71168e-05
8.70793e-07
8.7127e-05
9.14593e-07
8.71379e-05
9.61076e-07
8.71501e-05
1.0106e-06
8.71643e-05
1.06347e-06
8.71811e-05
1.11987e-06
8.72016e-05
1.17992e-06
8.72268e-05
1.24359e-06
8.72579e-05
1.31069e-06
8.72965e-05
1.38084e-06
8.73441e-05
1.45344e-06
8.74025e-05
1.52763e-06
8.74735e-05
1.60227e-06
8.75591e-05
1.67588e-06
8.76613e-05
1.74667e-06
8.77821e-05
1.81245e-06
8.79232e-05
1.87074e-06
1.9187e-06
8.80862e-05
8.94086e-05
5.28766e-08
8.94172e-05
1.52141e-07
8.94293e-05
2.39695e-07
8.94435e-05
3.15727e-07
8.94588e-05
3.8206e-07
8.94744e-05
4.40354e-07
8.94898e-05
4.92174e-07
8.95049e-05
5.39046e-07
8.95194e-05
5.82283e-07
8.95333e-05
6.22981e-07
8.95466e-05
6.62075e-07
8.95594e-05
7.00366e-07
8.95719e-05
7.38544e-07
8.95842e-05
7.77214e-07
8.95966e-05
8.16906e-07
8.96093e-05
8.58086e-07
8.96227e-05
9.01156e-07
8.96373e-05
9.46452e-07
8.96537e-05
9.9424e-07
8.96725e-05
1.0447e-06
8.96944e-05
1.09794e-06
8.97204e-05
1.1539e-06
8.97516e-05
1.21245e-06
8.9789e-05
1.27325e-06
8.9834e-05
1.33581e-06
8.98881e-05
1.39939e-06
8.99527e-05
1.46304e-06
9.00294e-05
1.52557e-06
9.01198e-05
1.58549e-06
9.02254e-05
1.64105e-06
9.03476e-05
1.6902e-06
9.04877e-05
1.73065e-06
1.76001e-06
9.06464e-05
9.19626e-05
5.01304e-08
9.19703e-05
1.4442e-07
9.19816e-05
2.28436e-07
9.19951e-05
3.02242e-07
9.20099e-05
3.67252e-07
9.20253e-05
4.24889e-07
9.2041e-05
4.76518e-07
9.20566e-05
5.23478e-07
9.20719e-05
5.66954e-07
9.20869e-05
6.07949e-07
9.21017e-05
6.47325e-07
9.21162e-05
6.85821e-07
9.21307e-05
7.24069e-07
9.21453e-05
7.62618e-07
9.21603e-05
8.01936e-07
9.21759e-05
8.42424e-07
9.21927e-05
8.84411e-07
9.2211e-05
9.28153e-07
9.22314e-05
9.73829e-07
9.22546e-05
1.02153e-06
9.22813e-05
1.07124e-06
9.23123e-05
1.12282e-06
9.23488e-05
1.17601e-06
9.23916e-05
1.23039e-06
9.24421e-05
1.28536e-06
9.25013e-05
1.34013e-06
9.25707e-05
1.39372e-06
9.26513e-05
1.44491e-06
9.27445e-05
1.49227e-06
9.28514e-05
1.53418e-06
9.29728e-05
1.56879e-06
9.31094e-05
1.59407e-06
1.60807e-06
9.32613e-05
9.45897e-05
4.76346e-08
9.45967e-05
1.37329e-07
9.46073e-05
2.17872e-07
9.46202e-05
2.89315e-07
9.46347e-05
3.52782e-07
9.46501e-05
4.09494e-07
9.4666e-05
4.60645e-07
9.4682e-05
5.07408e-07
9.46982e-05
5.50843e-07
9.47142e-05
5.91858e-07
9.47303e-05
6.31237e-07
9.47465e-05
6.69652e-07
9.47629e-05
7.07676e-07
9.47797e-05
7.45797e-07
9.47972e-05
7.84422e-07
9.48158e-05
8.23889e-07
9.48357e-05
8.64456e-07
9.48576e-05
9.06309e-07
9.48818e-05
9.49547e-07
9.49092e-05
9.94175e-07
9.49403e-05
1.0401e-06
9.49761e-05
1.08709e-06
9.50173e-05
1.13482e-06
9.50649e-05
1.1828e-06
9.51199e-05
1.23036e-06
9.51833e-05
1.27671e-06
9.52561e-05
1.32086e-06
9.53394e-05
1.36166e-06
9.54339e-05
1.39778e-06
9.55403e-05
1.42775e-06
9.56591e-05
1.44996e-06
9.57905e-05
1.46267e-06
1.46439e-06
9.59342e-05
9.72918e-05
4.53199e-08
9.72985e-05
1.30703e-07
9.73085e-05
2.07828e-07
9.7321e-05
2.76791e-07
9.73353e-05
3.38511e-07
9.73507e-05
3.94042e-07
9.7367e-05
4.44431e-07
9.73837e-05
4.90707e-07
9.74007e-05
5.3381e-07
9.7418e-05
5.74558e-07
9.74356e-05
6.13655e-07
9.74535e-05
6.51707e-07
9.7472e-05
6.89223e-07
9.74911e-05
7.2663e-07
9.75113e-05
7.64276e-07
9.75327e-05
8.02437e-07
9.75559e-05
8.41307e-07
9.75812e-05
8.81004e-07
9.76092e-05
9.2156e-07
9.76404e-05
9.62912e-07
9.76756e-05
1.0049e-06
9.77155e-05
1.04724e-06
9.77608e-05
1.08954e-06
9.78123e-05
1.13127e-06
9.78709e-05
1.17178e-06
9.79374e-05
1.21026e-06
9.80124e-05
1.24577e-06
9.80969e-05
1.27726e-06
9.81911e-05
1.30353e-06
9.82955e-05
1.32331e-06
9.84103e-05
1.33523e-06
9.85351e-05
1.33787e-06
1.33018e-06
9.86693e-05
0.000100071
4.3132e-08
0.000100078
1.24408e-07
0.000100087
1.98152e-07
0.0001001
2.64528e-07
0.000100114
3.24317e-07
0.000100129
3.78437e-07
0.000100146
4.27807e-07
0.000100163
4.73328e-07
0.000100181
5.15833e-07
0.0001002
5.56047e-07
0.000100219
5.94598e-07
0.000100239
6.32022e-07
0.000100259
6.68765e-07
0.00010028
7.05196e-07
0.000100303
7.41604e-07
0.000100327
7.78205e-07
0.000100354
8.15138e-07
0.000100382
8.52462e-07
0.000100413
8.90153e-07
0.000100448
9.28096e-07
0.000100487
9.66079e-07
0.000100531
1.00379e-06
0.000100579
1.0408e-06
0.000100634
1.07657e-06
0.000100695
1.11047e-06
0.000100764
1.14173e-06
0.00010084
1.1695e-06
0.000100925
1.19282e-06
0.000101017
1.21066e-06
0.000101119
1.22196e-06
0.000101228
1.22561e-06
0.000101346
1.2205e-06
1.2059e-06
0.00010147
0.00010293
4.10269e-08
0.000102936
1.18329e-07
0.000102946
1.88706e-07
0.000102958
2.52394e-07
0.000102972
3.10079e-07
0.000102988
3.62568e-07
0.000103005
4.10672e-07
0.000103023
4.55181e-07
0.000103042
4.96823e-07
0.000103062
5.36242e-07
0.000103083
5.73988e-07
0.000103104
6.10529e-07
0.000103127
6.46252e-07
0.00010315
6.81467e-07
0.000103176
7.16408e-07
0.000103203
7.5124e-07
0.000103232
7.86049e-07
0.000103263
8.20848e-07
0.000103298
8.55568e-07
0.000103336
8.90054e-07
0.000103378
9.24065e-07
0.000103424
9.57266e-07
0.000103476
9.8923e-07
0.000103533
1.01944e-06
0.000103596
1.04728e-06
0.000103666
1.07206e-06
0.000103742
1.09303e-06
0.000103826
1.10935e-06
0.000103916
1.12017e-06
0.000104014
1.12462e-06
0.000104117
1.12187e-06
0.000104227
1.11105e-06
1.09175e-06
0.000104341
0.000105871
3.89683e-08
0.000105877
1.1237e-07
0.000105886
1.79368e-07
0.000105898
2.40263e-07
0.000105913
2.95679e-07
0.000105929
3.46333e-07
0.000105947
3.9294e-07
0.000105966
4.36194e-07
0.000105986
4.76732e-07
0.000106007
5.15113e-07
0.000106029
5.51817e-07
0.000106052
5.87247e-07
0.000106077
6.21729e-07
0.000106103
6.5552e-07
0.00010613
6.88804e-07
0.00010616
7.21698e-07
0.000106192
7.54247e-07
0.000106226
7.86424e-07
0.000106264
8.18128e-07
0.000106304
8.49179e-07
0.000106349
8.79322e-07
0.000106398
9.08219e-07
0.000106452
9.35459e-07
0.000106511
9.60554e-07
0.000106575
9.8295e-07
0.000106645
1.00203e-06
0.000106721
1.01715e-06
0.000106803
1.02762e-06
0.00010689
1.03275e-06
0.000106983
1.03186e-06
0.000107081
1.02435e-06
0.000107182
1.0096e-06
9.87432e-07
0.000107286
0.000108895
3.69254e-08
0.000108901
1.06448e-07
0.000108911
1.70026e-07
0.000108923
2.2802e-07
0.000108938
2.81007e-07
0.000108954
3.29632e-07
0.000108973
3.74528e-07
0.000108993
4.16302e-07
0.000109014
4.55506e-07
0.000109036
4.92624e-07
0.00010906
5.28066e-07
0.000109085
5.62174e-07
0.000109112
5.9522e-07
0.00010914
6.27409e-07
0.00010917
6.58882e-07
0.000109202
6.89713e-07
0.000109236
7.19913e-07
0.000109273
7.49426e-07
0.000109313
7.78131e-07
0.000109356
8.05835e-07
0.000109403
8.32281e-07
0.000109454
8.57146e-07
0.00010951
8.80044e-07
0.00010957
9.00535e-07
0.000109635
9.18129e-07
0.000109704
9.32304e-07
0.000109779
9.42518e-07
0.000109858
9.48225e-07
0.000109942
9.48892e-07
0.00011003
9.44023e-07
0.000110121
9.33193e-07
0.000110215
9.15998e-07
8.92451e-07
0.00011031
0.000112007
3.48713e-08
0.000112013
1.00488e-07
0.000112022
1.60581e-07
0.000112034
2.15554e-07
0.000112049
2.65955e-07
0.000112067
3.12364e-07
0.000112086
3.55346e-07
0.000112107
3.95427e-07
0.000112129
4.33085e-07
0.000112153
4.68732e-07
0.000112178
5.02715e-07
0.000112205
5.35319e-07
0.000112234
5.66762e-07
0.000112264
5.97205e-07
0.000112296
6.26749e-07
0.00011233
6.55436e-07
0.000112367
6.83248e-07
0.000112406
7.1011e-07
0.000112449
7.35888e-07
0.000112494
7.60389e-07
0.000112543
7.83366e-07
0.000112596
8.04519e-07
0.000112652
8.23499e-07
0.000112713
8.3992e-07
0.000112778
8.53368e-07
0.000112846
8.63414e-07
0.000112919
8.69624e-07
0.000112996
8.71578e-07
0.000113076
8.68885e-07
0.000113159
8.61202e-07
0.000113244
8.48268e-07
0.00011333
8.29849e-07
8.06093e-07
0.000113416
0.000115207
3.27826e-08
0.000115213
9.44274e-08
0.000115222
1.50942e-07
0.000115235
2.0277e-07
0.000115251
2.5043e-07
0.000115268
2.9445e-07
0.000115288
3.35331e-07
0.00011531
3.73529e-07
0.000115334
4.09452e-07
0.000115359
4.43446e-07
0.000115386
4.758e-07
0.000115415
5.06741e-07
0.000115445
5.36446e-07
0.000115477
5.65033e-07
0.000115511
5.92568e-07
0.000115548
6.19067e-07
0.000115587
6.44492e-07
0.000115628
6.68756e-07
0.000115672
6.91723e-07
0.000115719
7.13206e-07
0.00011577
7.32978e-07
0.000115823
7.50766e-07
0.000115881
7.66271e-07
0.000115941
7.79165e-07
0.000116006
7.89111e-07
0.000116073
7.95766e-07
0.000116144
7.98798e-07
0.000116218
7.97902e-07
0.000116294
7.92809e-07
0.000116372
7.83305e-07
0.000116451
7.69259e-07
0.00011653
7.50567e-07
7.27471e-07
0.000116609
0.000118498
3.06373e-08
0.000118504
8.82025e-08
0.000118514
1.4102e-07
0.000118527
1.8956e-07
0.000118543
2.34319e-07
0.000118562
2.75777e-07
0.000118583
3.14376e-07
0.000118606
3.5051e-07
0.000118631
3.84522e-07
0.000118658
4.16698e-07
0.000118686
4.47271e-07
0.000118717
4.76422e-07
0.000118749
5.04282e-07
0.000118783
5.30935e-07
0.000118819
5.5642e-07
0.000118857
5.8073e-07
0.000118898
6.03814e-07
0.000118941
6.2558e-07
0.000118987
6.45895e-07
0.000119036
6.64586e-07
0.000119087
6.81449e-07
0.000119142
6.96249e-07
0.000119199
7.08736e-07
0.00011926
7.18643e-07
0.000119323
7.25702e-07
0.000119389
7.29654e-07
0.000119458
7.30258e-07
0.000119528
7.27306e-07
0.000119601
7.20634e-07
0.000119674
7.10131e-07
0.000119747
6.95766e-07
0.00011982
6.77535e-07
6.55733e-07
0.000119892
0.000121884
2.84166e-08
0.00012189
8.17623e-08
0.0001219
1.30745e-07
0.000121914
1.75854e-07
0.000121931
2.17562e-07
0.00012195
2.56304e-07
0.000121972
2.92467e-07
0.000121996
3.26385e-07
0.000122022
3.5834e-07
0.000122051
3.88563e-07
0.000122081
4.17235e-07
0.000122112
4.44492e-07
0.000122146
4.7043e-07
0.000122182
4.95101e-07
0.00012222
5.18521e-07
0.00012226
5.40667e-07
0.000122302
5.6148e-07
0.000122347
5.80868e-07
0.000122394
5.98707e-07
0.000122444
6.14844e-07
0.000122496
6.29102e-07
0.000122551
6.41289e-07
0.000122609
6.51199e-07
0.000122669
6.58624e-07
0.000122731
6.63361e-07
0.000122796
6.65224e-07
0.000122862
6.64052e-07
0.00012293
6.59718e-07
0.000122998
6.5214e-07
0.000123067
6.41289e-07
0.000123135
6.27203e-07
0.000123203
6.09946e-07
5.89839e-07
0.000123269
0.000125366
2.6096e-08
0.000125373
7.50381e-08
0.000125383
1.20009e-07
0.000125398
1.61514e-07
0.000125415
1.99999e-07
0.000125436
2.35858e-07
0.000125459
2.69425e-07
0.000125484
3.00979e-07
0.000125512
3.30744e-07
0.000125541
3.58897e-07
0.000125573
3.85574e-07
0.000125607
4.10869e-07
0.000125642
4.34843e-07
0.00012568
4.57523e-07
0.000125719
4.78905e-07
0.000125761
4.98955e-07
0.000125805
5.17611e-07
0.000125851
5.34783e-07
0.000125899
5.50359e-07
0.00012595
5.64211e-07
0.000126003
5.76191e-07
0.000126058
5.86144e-07
0.000126115
5.9391e-07
0.000126175
5.99333e-07
0.000126236
6.02269e-07
0.000126298
6.02594e-07
0.000126362
6.00213e-07
0.000126427
5.95065e-07
0.000126492
5.87132e-07
0.000126557
5.76442e-07
0.000126621
5.63085e-07
0.000126684
5.47169e-07
5.29019e-07
0.000126744
0.000128948
2.36664e-08
0.000128955
6.80014e-08
0.000128966
1.08787e-07
0.000128981
1.46534e-07
0.000128999
1.81658e-07
0.00012902
2.14505e-07
0.000129045
2.45355e-07
0.000129071
2.74429e-07
0.0001291
3.01897e-07
0.000129131
3.27888e-07
0.000129164
3.52492e-07
0.000129199
3.75768e-07
0.000129236
3.97746e-07
0.000129275
4.18433e-07
0.000129316
4.37808e-07
0.00012936
4.55831e-07
0.000129405
4.7244e-07
0.000129452
4.87553e-07
0.000129501
5.01074e-07
0.000129553
5.12896e-07
0.000129606
5.22901e-07
0.000129661
5.30968e-07
0.000129718
5.36979e-07
0.000129776
5.40823e-07
0.000129836
5.42408e-07
0.000129897
5.41661e-07
0.000129959
5.38538e-07
0.000130021
5.3303e-07
0.000130083
5.25163e-07
0.000130144
5.15006e-07
0.000130205
5.02676e-07
0.000130264
4.88306e-07
4.72208e-07
0.00013032
0.000132632
2.10752e-08
0.000132639
6.05167e-08
0.000132651
9.68593e-08
0.000132667
1.30627e-07
0.000132686
1.62202e-07
0.000132709
1.9188e-07
0.000132735
2.19886e-07
0.000132763
2.4638e-07
0.000132793
2.71478e-07
0.000132826
2.95256e-07
0.00013286
3.17761e-07
0.000132897
3.39018e-07
0.000132936
3.59028e-07
0.000132976
3.77778e-07
0.000133019
3.95237e-07
0.000133064
4.11357e-07
0.00013311
4.26081e-07
0.000133158
4.39336e-07
0.000133208
4.51042e-07
0.00013326
4.61111e-07
0.000133313
4.69453e-07
0.000133368
4.75978e-07
0.000133425
4.80605e-07
0.000133482
4.83263e-07
0.000133541
4.839e-07
0.0001336
4.82484e-07
0.000133659
4.79012e-07
0.000133719
4.73509e-07
0.000133778
4.66033e-07
0.000133836
4.56678e-07
0.000133894
4.45578e-07
0.000133949
4.32874e-07
4.18858e-07
0.000134002
0.000136421
1.83665e-08
0.000136429
5.26641e-08
0.000136441
8.43754e-08
0.000136458
1.14015e-07
0.000136478
1.41911e-07
0.000136502
1.68304e-07
0.000136528
1.9336e-07
0.000136558
2.17178e-07
0.000136589
2.39819e-07
0.000136623
2.61311e-07
0.000136659
2.81662e-07
0.000136697
3.00865e-07
0.000136738
3.18902e-07
0.00013678
3.35741e-07
0.000136823
3.51343e-07
0.000136869
3.65657e-07
0.000136917
3.78629e-07
0.000136966
3.90196e-07
0.000137016
4.0029e-07
0.000137069
4.08844e-07
0.000137122
4.15792e-07
0.000137177
4.21071e-07
0.000137233
4.24631e-07
0.00013729
4.26431e-07
0.000137348
4.26452e-07
0.000137405
4.24692e-07
0.000137463
4.21176e-07
0.000137521
4.15953e-07
0.000137578
4.09101e-07
0.000137634
4.00724e-07
0.000137688
3.90958e-07
0.000137741
3.79944e-07
3.67943e-07
0.000137792
0.000140319
1.53269e-08
0.000140327
4.39912e-08
0.000140341
7.0683e-08
0.000140359
9.59267e-08
0.000140381
1.19978e-07
0.000140407
1.42994e-07
0.000140435
1.65058e-07
0.000140466
1.86197e-07
0.000140499
2.06407e-07
0.000140535
2.2566e-07
0.000140573
2.4392e-07
0.000140612
2.6115e-07
0.000140654
2.77312e-07
0.000140697
2.92359e-07
0.000140742
3.06244e-07
0.000140789
3.18916e-07
0.000140837
3.30323e-07
0.000140887
3.40411e-07
0.000140938
3.49128e-07
0.000140991
3.56423e-07
0.000141044
3.62249e-07
0.000141099
3.66569e-07
0.000141154
3.69353e-07
0.00014121
3.70589e-07
0.000141266
3.70279e-07
0.000141322
3.68443e-07
0.000141378
3.65125e-07
0.000141434
3.60387e-07
0.000141489
3.54317e-07
0.000141542
3.4702e-07
0.000141595
3.38631e-07
0.000141645
3.29279e-07
3.19195e-07
0.000141694
0.000144328
1.23198e-08
0.000144337
3.509e-08
0.000144351
5.65578e-08
0.000144369
7.7197e-08
0.000144392
9.72079e-08
0.000144418
1.16677e-07
0.000144448
1.35606e-07
0.00014448
1.53945e-07
0.000144515
1.71626e-07
0.000144552
1.88566e-07
0.000144591
2.0469e-07
0.000144632
2.19934e-07
0.000144676
2.34235e-07
0.00014472
2.47535e-07
0.000144767
2.59777e-07
0.000144815
2.7091e-07
0.000144864
2.80887e-07
0.000144915
2.8966e-07
0.000144967
2.97188e-07
0.00014502
3.03433e-07
0.000145074
3.08365e-07
0.000145128
3.11964e-07
0.000145184
3.14219e-07
0.000145239
3.15133e-07
0.000145295
3.14725e-07
0.00014535
3.13029e-07
0.000145405
3.10098e-07
0.000145459
3.06002e-07
0.000145513
3.00828e-07
0.000145565
2.94679e-07
0.000145616
2.87677e-07
0.000145666
2.79938e-07
2.71663e-07
0.000145713
0.000148452
8.29448e-09
0.000148463
2.42844e-08
0.000148479
4.00806e-08
0.0001485
5.60018e-08
0.000148526
7.20187e-08
0.000148554
8.80626e-08
0.000148586
1.04015e-07
0.00014862
1.19744e-07
0.000148657
1.35096e-07
0.000148695
1.49896e-07
0.000148736
1.64034e-07
0.000148778
1.77432e-07
0.000148823
1.90015e-07
0.000148868
2.01715e-07
0.000148916
2.12471e-07
0.000148964
2.22236e-07
0.000149014
2.30962e-07
0.000149065
2.3861e-07
0.000149117
2.45149e-07
0.00014917
2.50552e-07
0.000149224
2.54802e-07
0.000149278
2.57892e-07
0.000149332
2.59823e-07
0.000149387
2.6061e-07
0.000149441
2.60282e-07
0.000149495
2.58879e-07
0.000149549
2.56458e-07
0.000149602
2.53089e-07
0.000149654
2.48853e-07
0.000149705
2.43845e-07
0.000149754
2.38173e-07
0.000149802
2.31936e-07
2.25303e-07
0.000149849
0.000152692
5.15603e-09
0.000152703
1.3871e-08
0.000152719
2.34367e-08
0.000152741
3.4064e-08
0.000152768
4.56896e-08
0.000152798
5.80234e-08
0.000152831
7.07639e-08
0.000152867
8.36959e-08
0.000152905
9.66017e-08
0.000152946
1.09212e-07
0.000152989
1.21367e-07
0.000153033
1.32953e-07
0.000153079
1.43874e-07
0.000153127
1.54046e-07
0.000153176
1.63414e-07
0.000153226
1.71929e-07
0.000153278
1.79549e-07
0.00015333
1.86235e-07
0.000153383
1.91963e-07
0.000153437
1.96713e-07
0.000153492
2.00478e-07
0.000153546
2.03256e-07
0.000153601
2.05058e-07
0.000153656
2.05905e-07
0.00015371
2.05828e-07
0.000153764
2.04871e-07
0.000153817
2.03088e-07
0.00015387
2.00544e-07
0.000153922
1.97314e-07
0.000153972
1.93482e-07
0.000154021
1.8914e-07
0.000154069
1.84374e-07
1.79321e-07
0.000154115
0.000157058
-1.38518e-09
0.000157073
-9.0368e-10
0.000157093
2.80552e-09
0.000157119
8.59035e-09
0.000157148
1.63556e-08
0.000157181
2.54731e-08
0.000157216
3.55016e-08
0.000157254
4.6193e-08
0.000157293
5.69989e-08
0.000157335
6.75769e-08
0.000157378
7.78699e-08
0.000157423
8.77648e-08
0.00015747
9.71514e-08
0.000157518
1.05922e-07
0.000157568
1.14028e-07
0.000157618
1.21424e-07
0.00015767
1.28068e-07
0.000157722
1.33927e-07
0.000157775
1.38981e-07
0.000157828
1.43217e-07
0.000157882
1.4663e-07
0.000157936
1.49225e-07
0.00015799
1.51016e-07
0.000158044
1.52024e-07
0.000158098
1.52281e-07
0.000158151
1.51827e-07
0.000158203
1.50711e-07
0.000158255
1.48989e-07
0.000158305
1.46725e-07
0.000158355
1.43988e-07
0.000158403
1.40852e-07
0.00015845
1.37384e-07
1.33693e-07
0.000158496
0.000161542
-5.14715e-09
0.000161557
-1.53293e-08
0.000161579
-1.9401e-08
0.000161607
-1.91084e-08
0.000161639
-1.57247e-08
0.000161674
-1.01055e-08
0.000161713
-3.44836e-09
0.000161754
4.95266e-09
0.000161797
1.39556e-08
0.000161842
2.27175e-08
0.000161889
3.13549e-08
0.000161937
3.97002e-08
0.000161986
4.76777e-08
0.000162037
5.51515e-08
0.000162089
6.21406e-08
0.000162142
6.85792e-08
0.000162195
7.44141e-08
0.00016225
7.96169e-08
0.000162305
8.41719e-08
0.00016236
8.80703e-08
0.000162415
9.13113e-08
0.00016247
9.39007e-08
0.000162526
9.58519e-08
0.00016258
9.7185e-08
0.000162635
9.7928e-08
0.000162688
9.81155e-08
0.000162741
9.77889e-08
0.000162793
9.69949e-08
0.000162844
9.57859e-08
0.000162894
9.42167e-08
0.000162943
9.23484e-08
0.00016299
9.02361e-08
8.79678e-08
0.000163035
0.000166167
-1.85782e-08
0.00016619
-3.85457e-08
0.000166218
-4.7053e-08
0.000166249
-5.00959e-08
0.000166283
-4.9692e-08
0.000166319
-4.64705e-08
0.000166357
-4.15187e-08
0.000166398
-3.5402e-08
0.00016644
-2.87496e-08
0.000166485
-2.19327e-08
0.000166531
-1.50588e-08
0.000166579
-8.25071e-09
0.000166629
-1.50229e-09
0.000166679
4.59773e-09
0.000166731
1.04838e-08
0.000166783
1.60005e-08
0.000166837
2.10757e-08
0.000166891
2.56773e-08
0.000166945
2.9788e-08
0.000167
3.34008e-08
0.000167054
3.65158e-08
0.000167109
3.91385e-08
0.000167164
4.12794e-08
0.000167218
4.29543e-08
0.000167272
4.41846e-08
0.000167325
4.49959e-08
0.000167377
4.54186e-08
0.000167429
4.54862e-08
0.000167479
4.52359e-08
0.000167529
4.47059e-08
0.000167577
4.39388e-08
0.000167624
4.29695e-08
4.18639e-08
0.000167671
0.000170912
-3.00158e-08
0.000170943
-6.90778e-08
0.000170979
-8.37004e-08
0.00017102
-9.12822e-08
0.000171064
-9.36095e-08
0.00017111
-9.20629e-08
0.000171157
-8.8593e-08
0.000171206
-8.40191e-08
0.000171256
-7.87282e-08
0.000171307
-7.31132e-08