/*--------------------------------*- C++ -*----------------------------------*\
  =========                 |
  \\      /  F ield         | OpenFOAM: The Open Source CFD Toolbox
   \\    /   O peration     | Website:  https://openfoam.org
    \\  /    A nd           | Version:  10
     \\/     M anipulation  |
\*---------------------------------------------------------------------------*/
FoamFile
{
    format      ascii;
    class       volVectorField;
    location    "0.125";
    object      U;
}
// * * * * * * * * * * * * * * * * * * * * * * * * * * * * * * * * * * * * * //

dimensions      [0 1 -1 0 0 0 0];

internalField   nonuniform List<vector> 
6820
(
(7.28175 0.0248444 0)
(7.178 0.0400979 0)
(7.05498 0.0450829 0)
(6.92587 0.0477885 0)
(6.79707 0.0489319 0)
(6.66905 0.0491725 0)
(6.54225 0.0489539 0)
(6.41718 0.0484692 0)
(6.29395 0.0478368 0)
(6.17252 0.0471384 0)
(6.05282 0.0464274 0)
(5.93471 0.0457422 0)
(5.81803 0.0451131 0)
(5.70255 0.0445658 0)
(5.58801 0.0441237 0)
(5.47412 0.0438099 0)
(5.3605 0.0436493 0)
(5.24675 0.04367 0)
(5.13238 0.0439052 0)
(5.01681 0.0443949 0)
(4.89938 0.0451877 0)
(4.77928 0.0463419 0)
(4.65556 0.0479272 0)
(4.52709 0.0500246 0)
(4.39254 0.0527257 0)
(4.25036 0.0561299 0)
(4.09875 0.0603316 0)
(3.93566 0.0654379 0)
(3.75877 0.0714091 0)
(3.56589 0.0785857 0)
(3.3531 0.085675 0)
(3.12399 0.0958167 0)
(2.85405 0.102236 0)
(7.35923 0.0259322 0)
(7.42101 0.0359063 0)
(7.4761 0.0378155 0)
(7.52634 0.0399725 0)
(7.57229 0.0415516 0)
(7.61283 0.0428791 0)
(7.64791 0.0442326 0)
(7.67792 0.0456203 0)
(7.70317 0.0470436 0)
(7.72393 0.0485156 0)
(7.74047 0.0500468 0)
(7.75305 0.05165 0)
(7.76188 0.0533439 0)
(7.76714 0.0551529 0)
(7.76897 0.0571077 0)
(7.76749 0.0592466 0)
(7.76275 0.0616174 0)
(7.75476 0.0642792 0)
(7.74347 0.0673055 0)
(7.72879 0.0707878 0)
(7.71052 0.0748392 0)
(7.68839 0.0796001 0)
(7.66203 0.0852431 0)
(7.63091 0.0919789 0)
(7.59434 0.100062 0)
(7.55144 0.109792 0)
(7.50106 0.121519 0)
(7.44171 0.135637 0)
(7.37166 0.152535 0)
(7.28826 0.172787 0)
(7.19 0.196167 0)
(7.06927 0.225163 0)
(6.93647 0.253351 0)
(7.33541 0.00699372 0)
(7.34552 0.0103352 0)
(7.35433 0.0130489 0)
(7.36187 0.0166075 0)
(7.36999 0.0196312 0)
(7.37858 0.0222882 0)
(7.38758 0.0248063 0)
(7.39712 0.0271954 0)
(7.40722 0.0294782 0)
(7.4178 0.031697 0)
(7.4288 0.0338894 0)
(7.44016 0.0360914 0)
(7.4518 0.0383413 0)
(7.46367 0.0406805 0)
(7.4757 0.0431551 0)
(7.48782 0.0458182 0)
(7.5 0.0487317 0)
(7.51218 0.05197 0)
(7.52434 0.0556236 0)
(7.53645 0.0598035 0)
(7.5485 0.0646471 0)
(7.56048 0.0703246 0)
(7.57242 0.0770472 0)
(7.58435 0.0850756 0)
(7.59634 0.094731 0)
(7.60846 0.106402 0)
(7.62081 0.120561 0)
(7.63349 0.137747 0)
(7.64658 0.158628 0)
(7.66012 0.183813 0)
(7.67391 0.214276 0)
(7.68794 0.250227 0)
(7.70113 0.293133 0)
(7.33493 0.00936878 0)
(7.34239 0.02033 0)
(7.34777 0.0259555 0)
(7.35089 0.0298044 0)
(7.35347 0.0323858 0)
(7.35558 0.034223 0)
(7.35716 0.035733 0)
(7.35838 0.0370623 0)
(7.35935 0.0382949 0)
(7.36011 0.0395018 0)
(7.36068 0.0407335 0)
(7.3611 0.0420289 0)
(7.36138 0.0434246 0)
(7.36153 0.0449572 0)
(7.36156 0.0466661 0)
(7.36147 0.0485957 0)
(7.36126 0.050798 0)
(7.36094 0.0533349 0)
(7.3605 0.0562814 0)
(7.35995 0.059729 0)
(7.35931 0.0637903 0)
(7.35862 0.0686033 0)
(7.35795 0.0743371 0)
(7.35738 0.0811981 0)
(7.35708 0.0894367 0)
(7.35729 0.0993533 0)
(7.35833 0.111306 0)
(7.36069 0.125716 0)
(7.365 0.143063 0)
(7.37221 0.16391 0)
(7.38318 0.188763 0)
(7.40016 0.218483 0)
(7.4226 0.252337 0)
(7.33399 0.00648324 0)
(7.33865 0.0129879 0)
(7.3431 0.0159933 0)
(7.34643 0.0187489 0)
(7.34941 0.0212531 0)
(7.35197 0.0234823 0)
(7.35401 0.0256198 0)
(7.35561 0.0277087 0)
(7.35684 0.0297598 0)
(7.35772 0.0318011 0)
(7.35826 0.0338608 0)
(7.35847 0.0359669 0)
(7.35834 0.0381513 0)
(7.35787 0.0404497 0)
(7.35705 0.0429045 0)
(7.35587 0.0455649 0)
(7.35431 0.0484883 0)
(7.35235 0.0517426 0)
(7.34997 0.0554087 0)
(7.34715 0.0595834 0)
(7.34387 0.0643821 0)
(7.34014 0.0699428 0)
(7.33595 0.0764292 0)
(7.33134 0.0840346 0)
(7.32636 0.0929847 0)
(7.32113 0.103539 0)
(7.31581 0.11599 0)
(7.31066 0.130661 0)
(7.30603 0.147886 0)
(7.30253 0.168026 0)
(7.30068 0.19131 0)
(7.30188 0.21823 0)
(7.30621 0.247901 0)
(7.33374 0.00546933 0)
(7.33765 0.0134489 0)
(7.34181 0.018902 0)
(7.34497 0.023358 0)
(7.34762 0.0268901 0)
(7.34989 0.0296633 0)
(7.35172 0.0319964 0)
(7.35319 0.0340607 0)
(7.35437 0.0359527 0)
(7.35526 0.0377564 0)
(7.35588 0.0395394 0)
(7.35623 0.0413561 0)
(7.35632 0.0432563 0)
(7.35612 0.0452912 0)
(7.35564 0.0475075 0)
(7.35486 0.049959 0)
(7.35376 0.0527055 0)
(7.35233 0.0558158 0)
(7.35056 0.05937 0)
(7.34843 0.063462 0)
(7.34593 0.0682025 0)
(7.34308 0.0737217 0)
(7.33987 0.0801717 0)
(7.33637 0.087729 0)
(7.33262 0.0965954 0)
(7.32873 0.106998 0)
(7.32486 0.119186 0)
(7.32122 0.133427 0)
(7.3181 0.149982 0)
(7.31592 0.169127 0)
(7.31507 0.191005 0)
(7.31635 0.215939 0)
(7.3199 0.243324 0)
(7.33345 0.00459116 0)
(7.33613 0.0114841 0)
(7.33935 0.0158439 0)
(7.34204 0.0191522 0)
(7.34444 0.0218715 0)
(7.34662 0.0241828 0)
(7.34847 0.0263103 0)
(7.35001 0.0283605 0)
(7.35129 0.0303791 0)
(7.3523 0.0324084 0)
(7.35305 0.0344866 0)
(7.35355 0.0366473 0)
(7.3538 0.0389253 0)
(7.3538 0.0413501 0)
(7.35354 0.0439735 0)
(7.35301 0.0468465 0)
(7.35221 0.0500267 0)
(7.35113 0.0535806 0)
(7.34978 0.0575861 0)
(7.34815 0.0621346 0)
(7.34627 0.0673318 0)
(7.34415 0.0733007 0)
(7.34183 0.0801818 0)
(7.33938 0.0881345 0)
(7.3369 0.0973368 0)
(7.33451 0.107983 0)
(7.33241 0.12028 0)
(7.33084 0.13444 0)
(7.33011 0.150658 0)
(7.33062 0.169127 0)
(7.33276 0.189933 0)
(7.33722 0.213252 0)
(7.34419 0.238693 0)
(7.33331 0.00394529 0)
(7.3354 0.0105318 0)
(7.33824 0.0154382 0)
(7.34082 0.0195424 0)
(7.34312 0.0230812 0)
(7.34519 0.0261035 0)
(7.34694 0.0287686 0)
(7.3484 0.0311999 0)
(7.3496 0.0334752 0)
(7.35056 0.0356643 0)
(7.35128 0.0378297 0)
(7.35178 0.0400259 0)
(7.35205 0.0423035 0)
(7.3521 0.0447294 0)
(7.35192 0.0473462 0)
(7.35152 0.0502037 0)
(7.3509 0.0533629 0)
(7.35005 0.0568927 0)
(7.34899 0.0608709 0)
(7.34773 0.0653857 0)
(7.3463 0.0705368 0)
(7.34473 0.0764369 0)
(7.34308 0.0832123 0)
(7.34144 0.0910025 0)
(7.33991 0.0999585 0)
(7.33866 0.11024 0)
(7.33787 0.122008 0)
(7.3378 0.135422 0)
(7.33877 0.150617 0)
(7.34116 0.167713 0)
(7.34537 0.186746 0)
(7.35201 0.207791 0)
(7.36134 0.230554 0)
(7.33321 0.00348059 0)
(7.33477 0.00957559 0)
(7.33707 0.0142256 0)
(7.33927 0.0179642 0)
(7.34128 0.0210943 0)
(7.34315 0.0237567 0)
(7.3448 0.0261363 0)
(7.34622 0.0283682 0)
(7.34744 0.0305303 0)
(7.34846 0.0326828 0)
(7.34927 0.0348774 0)
(7.34988 0.0371583 0)
(7.35029 0.0395678 0)
(7.3505 0.042133 0)
(7.35052 0.0449036 0)
(7.35034 0.0479415 0)
(7.34998 0.0513031 0)
(7.34945 0.0550505 0)
(7.34876 0.0592541 0)
(7.34793 0.0639932 0)
(7.34701 0.0693567 0)
(7.34603 0.0754438 0)
(7.34508 0.0823628 0)
(7.34425 0.0902305 0)
(7.34366 0.0991689 0)
(7.34347 0.109302 0)
(7.34388 0.120749 0)
(7.34514 0.133616 0)
(7.34756 0.147986 0)
(7.35149 0.16391 0)
(7.3573 0.181371 0)
(7.36554 0.200356 0)
(7.37645 0.220592 0)
(7.33315 0.00312177 0)
(7.33436 0.00880317 0)
(7.33631 0.0134156 0)
(7.33832 0.0173042 0)
(7.34022 0.0207164 0)
(7.34201 0.0237407 0)
(7.34362 0.0264887 0)
(7.34503 0.0290573 0)
(7.34624 0.0315118 0)
(7.34726 0.0339091 0)
(7.3481 0.0363027 0)
(7.34875 0.0387422 0)
(7.34923 0.0412765 0)
(7.34954 0.0439634 0)
(7.3497 0.0468515 0)
(7.34969 0.0499843 0)
(7.34955 0.0534169 0)
(7.34928 0.0572112 0)
(7.34891 0.0614356 0)
(7.34847 0.0661647 0)
(7.34801 0.0714797 0)
(7.34758 0.0774682 0)
(7.34727 0.0842229 0)
(7.34717 0.0918396 0)
(7.34743 0.100414 0)
(7.34819 0.110039 0)
(7.34967 0.120794 0)
(7.35209 0.132742 0)
(7.35574 0.145917 0)
(7.36096 0.160317 0)
(7.36806 0.17588 0)
(7.37753 0.192523 0)
(7.38959 0.209973 0)
(7.33311 0.00284467 0)
(7.33406 0.00815097 0)
(7.33569 0.0126128 0)
(7.33744 0.0163974 0)
(7.33914 0.0196938 0)
(7.34076 0.0225951 0)
(7.34226 0.0252164 0)
(7.34361 0.0276662 0)
(7.3448 0.0300236 0)
(7.34584 0.0323522 0)
(7.34673 0.0347077 0)
(7.34747 0.037139 0)
(7.34807 0.0396901 0)
(7.34853 0.0424009 0)
(7.34886 0.0453172 0)
(7.34907 0.0484911 0)
(7.34919 0.051976 0)
(7.34923 0.055828 0)
(7.34922 0.060107 0)
(7.3492 0.0648774 0)
(7.34922 0.0702079 0)
(7.34936 0.0761706 0)
(7.34968 0.0828389 0)
(7.35031 0.090286 0)
(7.35137 0.0985804 0)
(7.35302 0.107782 0)
(7.35545 0.117935 0)
(7.35889 0.129063 0)
(7.36359 0.141155 0)
(7.36984 0.154164 0)
(7.37794 0.167987 0)
(7.38829 0.182485 0)
(7.40107 0.197374 0)
(7.33308 0.00262326 0)
(7.33385 0.00759538 0)
(7.33523 0.0119126 0)
(7.33679 0.015662 0)
(7.33836 0.0190004 0)
(7.3399 0.0220146 0)
(7.34136 0.0247937 0)
(7.3427 0.0274224 0)
(7.34391 0.0299643 0)
(7.34498 0.032472 0)
(7.34593 0.0349944 0)
(7.34675 0.037577 0)
(7.34745 0.0402638 0)
(7.34805 0.0430991 0)
(7.34854 0.0461282 0)
(7.34896 0.049397 0)
(7.34931 0.0529526 0)
(7.34963 0.056846 0)
(7.34995 0.061131 0)
(7.35031 0.0658644 0)
(7.35077 0.0711046 0)
(7.35141 0.0769108 0)
(7.3523 0.0833404 0)
(7.35356 0.0904467 0)
(7.35532 0.0982752 0)
(7.35772 0.106859 0)
(7.36095 0.116211 0)
(7.36521 0.126323 0)
(7.37072 0.13715 0)
(7.37774 0.148611 0)
(7.38651 0.16057 0)
(7.39739 0.172851 0)
(7.41047 0.185167 0)
(7.33306 0.00244202 0)
(7.33369 0.00711909 0)
(7.33487 0.0112785 0)
(7.33625 0.0149471 0)
(7.33769 0.0182357 0)
(7.33912 0.0212158 0)
(7.34049 0.0239629 0)
(7.34178 0.026556 0)
(7.34298 0.0290608 0)
(7.34407 0.0315337 0)
(7.34506 0.0340259 0)
(7.34596 0.0365839 0)
(7.34677 0.0392509 0)
(7.3475 0.0420686 0)
(7.34817 0.0450793 0)
(7.34879 0.0483261 0)
(7.34939 0.0518535 0)
(7.35 0.0557071 0)
(7.35065 0.0599336 0)
(7.3514 0.0645802 0)
(7.3523 0.0696936 0)
(7.35342 0.0753184 0)
(7.35485 0.081495 0)
(7.3567 0.0882568 0)
(7.35909 0.0956266 0)
(7.36216 0.103612 0)
(7.36606 0.112201 0)
(7.37099 0.121355 0)
(7.37713 0.131003 0)
(7.3847 0.141036 0)
(7.39389 0.151295 0)
(7.40498 0.161581 0)
(7.41804 0.171611 0)
(7.33305 0.00228988 0)
(7.33357 0.00670445 0)
(7.33459 0.0107048 0)
(7.33583 0.0142902 0)
(7.33715 0.0175449 0)
(7.33851 0.0205346 0)
(7.33984 0.0233256 0)
(7.34112 0.0259861 0)
(7.34233 0.0285742 0)
(7.34347 0.0311393 0)
(7.34454 0.0337262 0)
(7.34553 0.0363765 0)
(7.34646 0.0391292 0)
(7.34733 0.0420229 0)
(7.34818 0.0450959 0)
(7.349 0.0483869 0)
(7.34984 0.0519349 0)
(7.35072 0.0557787 0)
(7.35168 0.0599573 0)
(7.35278 0.0645085 0)
(7.35407 0.069468 0)
(7.35562 0.0748676 0)
(7.35752 0.0807329 0)
(7.35987 0.0870807 0)
(7.36278 0.0939153 0)
(7.36638 0.101224 0)
(7.3708 0.108975 0)
(7.37622 0.117108 0)
(7.38277 0.125534 0)
(7.39065 0.134126 0)
(7.4 0.142716 0)
(7.41103 0.151094 0)
(7.42374 0.158993 0)
(7.33304 0.002159 0)
(7.33349 0.00633863 0)
(7.33437 0.0101811 0)
(7.3355 0.0136714 0)
(7.33672 0.0168689 0)
(7.33799 0.0198275 0)
(7.33928 0.0226019 0)
(7.34053 0.0252505 0)
(7.34175 0.0278264 0)
(7.34291 0.0303769 0)
(7.34403 0.0329455 0)
(7.3451 0.0355729 0)
(7.34614 0.0382973 0)
(7.34715 0.0411552 0)
(7.34815 0.0441827 0)
(7.34918 0.0474147 0)
(7.35024 0.0508857 0)
(7.35138 0.0546289 0)
(7.35264 0.0586762 0)
(7.35407 0.0630567 0)
(7.35572 0.067796 0)
(7.35766 0.0729138 0)
(7.35998 0.0784222 0)
(7.36277 0.0843229 0)
(7.36612 0.0906039 0)
(7.37015 0.0972365 0)
(7.37498 0.104171 0)
(7.38074 0.111334 0)
(7.38755 0.118621 0)
(7.39556 0.125899 0)
(7.40486 0.132995 0)
(7.41561 0.139701 0)
(7.42778 0.145773 0)
(7.33304 0.00204381 0)
(7.33342 0.00601071 0)
(7.33421 0.00969817 0)
(7.33523 0.0130868 0)
(7.33637 0.0162203 0)
(7.33759 0.0191451 0)
(7.33884 0.0219093 0)
(7.34009 0.0245649 0)
(7.34132 0.0271598 0)
(7.34253 0.0297372 0)
(7.34372 0.0323365 0)
(7.34489 0.0349939 0)
(7.34604 0.0377436 0)
(7.3472 0.0406179 0)
(7.34837 0.043648 0)
(7.34958 0.0468637 0)
(7.35087 0.0502937 0)
(7.35225 0.0539645 0)
(7.35379 0.0579003 0)
(7.35551 0.0621217 0)
(7.35748 0.0666441 0)
(7.35977 0.0714767 0)
(7.36244 0.0766197 0)
(7.36557 0.0820624 0)
(7.36927 0.0877805 0)
(7.37361 0.093733 0)
(7.37871 0.0998593 0)
(7.38466 0.106076 0)
(7.39157 0.112276 0)
(7.39952 0.118321 0)
(7.40859 0.124047 0)
(7.41888 0.129255 0)
(7.43032 0.133733 0)
(7.33303 0.00194019 0)
(7.33338 0.0057119 0)
(7.33408 0.00924768 0)
(7.33502 0.0125289 0)
(7.3361 0.0155875 0)
(7.33726 0.018462 0)
(7.33848 0.0211932 0)
(7.33972 0.0238251 0)
(7.34097 0.0264003 0)
(7.34222 0.0289573 0)
(7.34347 0.0315321 0)
(7.34472 0.0341582 0)
(7.34598 0.0368671 0)
(7.34726 0.0396883 0)
(7.34859 0.0426494 0)
(7.34998 0.0457764 0)
(7.35146 0.0490933 0)
(7.35307 0.052621 0)
(7.35485 0.0563773 0)
(7.35683 0.0603754 0)
(7.35909 0.0646227 0)
(7.36166 0.0691193 0)
(7.36462 0.0738559 0)
(7.36805 0.0788122 0)
(7.372 0.0839543 0)
(7.37657 0.0892328 0)
(7.38183 0.0945805 0)
(7.38786 0.0999101 0)
(7.39472 0.105113 0)
(7.4025 0.110057 0)
(7.41121 0.114587 0)
(7.42092 0.118523 0)
(7.43154 0.121685 0)
(7.33303 0.00184502 0)
(7.33334 0.00543495 0)
(7.33398 0.00882209 0)
(7.33486 0.0119912 0)
(7.33588 0.0149666 0)
(7.33701 0.0177809 0)
(7.33821 0.0204699 0)
(7.33945 0.0230723 0)
(7.34073 0.0256259 0)
(7.34202 0.0281658 0)
(7.34333 0.0307245 0)
(7.34467 0.0333317 0)
(7.34604 0.0360152 0)
(7.34745 0.0388004 0)
(7.34893 0.0417106 0)
(7.35049 0.0447669 0)
(7.35216 0.0479877 0)
(7.35398 0.0513881 0)
(7.35598 0.0549794 0)
(7.3582 0.0587675 0)
(7.36069 0.0627525 0)
(7.3635 0.0669266 0)
(7.36669 0.0712728 0)
(7.37032 0.0757633 0)
(7.37446 0.0803579 0)
(7.37915 0.0850023 0)
(7.38447 0.0896264 0)
(7.39046 0.0941433 0)
(7.39718 0.0984486 0)
(7.40466 0.10242 0)
(7.41291 0.105917 0)
(7.42195 0.108781 0)
(7.43169 0.110867 0)
(7.33303 0.00175588 0)
(7.33331 0.00517389 0)
(7.33391 0.00841467 0)
(7.33473 0.0114674 0)
(7.33571 0.0143514 0)
(7.33681 0.0170945 0)
(7.338 0.0197275 0)
(7.33925 0.0222837 0)
(7.34055 0.0247959 0)
(7.34188 0.0272949 0)
(7.34326 0.0298092 0)
(7.34468 0.0323651 0)
(7.34614 0.0349866 0)
(7.34768 0.0376957 0)
(7.34929 0.0405119 0)
(7.351 0.0434522 0)
(7.35284 0.0465306 0)
(7.35483 0.0497573 0)
(7.35702 0.0531383 0)
(7.35943 0.0566742 0)
(7.36212 0.060359 0)
(7.36512 0.0641792 0)
(7.36849 0.0681126 0)
(7.37226 0.0721267 0)
(7.3765 0.0761776 0)
(7.38124 0.0802094 0)
(7.38653 0.0841526 0)
(7.39241 0.0879242 0)
(7.3989 0.0914271 0)
(7.40602 0.0945511 0)
(7.41374 0.0971745 0)
(7.42208 0.0991615 0)
(7.43092 0.100399 0)
(7.33303 0.00167085 0)
(7.33329 0.00492372 0)
(7.33385 0.00801945 0)
(7.33464 0.0109518 0)
(7.33559 0.013737 0)
(7.33667 0.0163991 0)
(7.33785 0.0189652 0)
(7.33911 0.021464 0)
(7.34043 0.0239246 0)
(7.34182 0.0263739 0)
(7.34326 0.0288372 0)
(7.34475 0.0313371 0)
(7.34632 0.0338945 0)
(7.34796 0.0365274 0)
(7.3497 0.0392515 0)
(7.35155 0.0420797 0)
(7.35354 0.0450214 0)
(7.3557 0.0480822 0)
(7.35804 0.0512632 0)
(7.36062 0.0545598 0)
(7.36346 0.0579615 0)
(7.36661 0.0614501 0)
(7.37009 0.0649995 0)
(7.37395 0.0685746 0)
(7.37823 0.07213 0)
(7.38295 0.0756106 0)
(7.38815 0.0789499 0)
(7.39384 0.082071 0)
(7.40003 0.0848869 0)
(7.40673 0.0873017 0)
(7.41389 0.0892131 0)
(7.42151 0.0905086 0)
(7.42947 0.091103 0)
(7.33302 0.00158835 0)
(7.33328 0.00468022 0)
(7.33382 0.00763104 0)
(7.33457 0.0104387 0)
(7.3355 0.0131179 0)
(7.33657 0.0156895 0)
(7.33775 0.0181771 0)
(7.33902 0.0206056 0)
(7.34038 0.0229999 0)
(7.34181 0.0253833 0)
(7.3433 0.0277771 0)
(7.34488 0.0302006 0)
(7.34653 0.0326709 0)
(7.34827 0.0352027 0)
(7.35012 0.0378081 0)
(7.3521 0.0404962 0)
(7.35422 0.0432728 0)
(7.3565 0.0461396 0)
(7.35898 0.049094 0)
(7.36169 0.052128 0)
(7.36464 0.0552275 0)
(7.36788 0.0583718 0)
(7.37143 0.0615331 0)
(7.37533 0.0646752 0)
(7.37959 0.0677541 0)
(7.38423 0.070717 0)
(7.38928 0.073503 0)
(7.39474 0.0760431 0)
(7.4006 0.0782619 0)
(7.40685 0.0800786 0)
(7.41344 0.0814092 0)
(7.42035 0.0821637 0)
(7.42748 0.0822808 0)
(7.33302 0.00150704 0)
(7.33327 0.00443978 0)
(7.33379 0.00724465 0)
(7.33453 0.0099233 0)
(7.33544 0.0124894 0)
(7.3365 0.0149617 0)
(7.33769 0.0173609 0)
(7.33898 0.0197087 0)
(7.34037 0.0220264 0)
(7.34184 0.0243339 0)
(7.3434 0.0266494 0)
(7.34504 0.028989 0)
(7.34677 0.0313667 0)
(7.34861 0.0337938 0)
(7.35056 0.0362792 0)
(7.35264 0.0388286 0)
(7.35487 0.0414445 0)
(7.35726 0.0441253 0)
(7.35985 0.0468652 0)
(7.36265 0.0496533 0)
(7.36568 0.0524732 0)
(7.36898 0.0553027 0)
(7.37256 0.0581131 0)
(7.37644 0.0608691 0)
(7.38064 0.0635286 0)
(7.38516 0.0660431 0)
(7.39002 0.0683579 0)
(7.39521 0.0704135 0)
(7.40071 0.072146 0)
(7.4065 0.0734888 0)
(7.41254 0.0743754 0)
(7.41878 0.0747363 0)
(7.42513 0.0745308 0)
(7.33302 0.00142581 0)
(7.33326 0.00419921 0)
(7.33377 0.00685587 0)
(7.3345 0.00940053 0)
(7.33541 0.0118464 0)
(7.33647 0.0142102 0)
(7.33767 0.0165101 0)
(7.33898 0.0187647 0)
(7.3404 0.020992 0)
(7.34192 0.0232086 0)
(7.34353 0.0254295 0)
(7.34524 0.0276677 0)
(7.34704 0.0299338 0)
(7.34896 0.0322364 0)
(7.351 0.0345814 0)
(7.35317 0.0369717 0)
(7.35548 0.0394069 0)
(7.35797 0.0418832 0)
(7.36063 0.0443925 0)
(7.3635 0.0469223 0)
(7.36658 0.0494551 0)
(7.3699 0.0519685 0)
(7.37347 0.0544344 0)
(7.3773 0.0568195 0)
(7.3814 0.0590854 0)
(7.38578 0.0611888 0)
(7.39042 0.0630827 0)
(7.39532 0.0647166 0)
(7.40045 0.0660381 0)
(7.40579 0.0669941 0)
(7.41129 0.0675341 0)
(7.41691 0.067606 0)
(7.42256 0.0671862 0)
(7.33302 0.00134364 0)
(7.33326 0.00395577 0)
(7.33376 0.00646093 0)
(7.33449 0.00886654 0)
(7.33539 0.0111856 0)
(7.33646 0.0134337 0)
(7.33767 0.0156268 0)
(7.33901 0.0177809 0)
(7.34046 0.0199113 0)
(7.34202 0.0220318 0)
(7.34368 0.0241543 0)
(7.34544 0.0262889 0)
(7.34732 0.0284438 0)
(7.3493 0.0306245 0)
(7.35141 0.0328344 0)
(7.35365 0.0350738 0)
(7.35604 0.0373402 0)
(7.35858 0.0396276 0)
(7.3613 0.0419264 0)
(7.36421 0.0442229 0)
(7.36731 0.0464994 0)
(7.37062 0.0487336 0)
(7.37415 0.0508991 0)
(7.3779 0.0529652 0)
(7.38188 0.0548978 0)
(7.38608 0.0566594 0)
(7.39049 0.0582101 0)
(7.39509 0.0595083 0)
(7.39986 0.0605123 0)
(7.40477 0.0611814 0)
(7.40978 0.0614783 0)
(7.41483 0.0613659 0)
(7.41986 0.0608339 0)
(7.33302 0.00125965 0)
(7.33326 0.00370683 0)
(7.33376 0.00605576 0)
(7.33449 0.00831586 0)
(7.3354 0.0104998 0)
(7.33648 0.0126217 0)
(7.33771 0.0146954 0)
(7.33907 0.0167344 0)
(7.34056 0.0187512 0)
(7.34216 0.0207568 0)
(7.34387 0.0227606 0)
(7.34569 0.0247702 0)
(7.34762 0.0267913 0)
(7.34967 0.0288272 0)
(7.35184 0.0308792 0)
(7.35414 0.0329459 0)
(7.35658 0.0350231 0)
(7.35917 0.0371039 0)
(7.36192 0.0391777 0)
(7.36484 0.0412309 0)
(7.36794 0.0432461 0)
(7.37122 0.0452024 0)
(7.37469 0.0470759 0)
(7.37834 0.0488395 0)
(7.38217 0.0504635 0)
(7.38618 0.0519164 0)
(7.39035 0.0531654 0)
(7.39466 0.0541773 0)
(7.39909 0.0549201 0)
(7.40359 0.0553636 0)
(7.40814 0.0554817 0)
(7.41269 0.0552498 0)
(7.41718 0.0546669 0)
(7.33302 0.00117303 0)
(7.33326 0.00345032 0)
(7.33377 0.00563802 0)
(7.3345 0.00774759 0)
(7.33542 0.00979195 0)
(7.33651 0.0117843 0)
(7.33776 0.0137371 0)
(7.33915 0.0156619 0)
(7.34066 0.0175685 0)
(7.3423 0.0194656 0)
(7.34405 0.0213598 0)
(7.34591 0.0232563 0)
(7.34789 0.0251581 0)
(7.34998 0.0270666 0)
(7.3522 0.0289809 0)
(7.35454 0.0308978 0)
(7.35702 0.0328119 0)
(7.35964 0.034715 0)
(7.3624 0.0365963 0)
(7.36531 0.0384422 0)
(7.36838 0.0402362 0)
(7.37161 0.0419592 0)
(7.37499 0.04359 0)
(7.37853 0.0451048 0)
(7.38221 0.0464788 0)
(7.38603 0.0476859 0)
(7.38996 0.0486999 0)
(7.39399 0.0494953 0)
(7.39809 0.0500482 0)
(7.40223 0.0503375 0)
(7.40638 0.0503462 0)
(7.41048 0.0500591 0)
(7.41451 0.0494823 0)
(7.33302 0.00108292 0)
(7.33326 0.00318327 0)
(7.33378 0.00520174 0)
(7.33452 0.00715075 0)
(7.33546 0.00904248 0)
(7.33657 0.0108886 0)
(7.33785 0.0126999 0)
(7.33927 0.0144856 0)
(7.34082 0.0162537 0)
(7.3425 0.0180109 0)
(7.34429 0.0197619 0)
(7.3462 0.02151 0)
(7.34822 0.0232571 0)
(7.35036 0.0250029 0)
(7.35262 0.0267455 0)
(7.355 0.0284811 0)
(7.3575 0.0302034 0)
(7.36013 0.0319042 0)
(7.36289 0.033573 0)
(7.36578 0.0351971 0)
(7.36881 0.0367617 0)
(7.37197 0.0382498 0)
(7.37526 0.039643 0)
(7.37867 0.0409213 0)
(7.38219 0.0420642 0)
(7.38581 0.0430508 0)
(7.38952 0.0438609 0)
(7.39328 0.0444754 0)
(7.39708 0.0448775 0)
(7.40089 0.0450529 0)
(7.40467 0.0449919 0)
(7.40839 0.0446863 0)
(7.41201 0.0441465 0)
(7.33302 0.000988702 0)
(7.33327 0.00290513 0)
(7.33379 0.00474978 0)
(7.33455 0.00653731 0)
(7.3355 0.00828041 0)
(7.33663 0.00999007 0)
(7.33793 0.0116754 0)
(7.33937 0.0133434 0)
(7.34094 0.0149996 0)
(7.34265 0.0166476 0)
(7.34447 0.0182899 0)
(7.34641 0.0199273 0)
(7.34846 0.0215591 0)
(7.35063 0.0231835 0)
(7.35291 0.024797 0)
(7.3553 0.0263944 0)
(7.35781 0.0279691 0)
(7.36044 0.0295124 0)
(7.36318 0.0310144 0)
(7.36604 0.0324633 0)
(7.36902 0.0338458 0)
(7.3721 0.0351473 0)
(7.37529 0.036352 0)
(7.37857 0.0374437 0)
(7.38194 0.0384059 0)
(7.38538 0.0392226 0)
(7.38887 0.0398786 0)
(7.3924 0.0403606 0)
(7.39593 0.0406573 0)
(7.39944 0.0407603 0)
(7.40292 0.0406652 0)
(7.40631 0.0403691 0)
(7.40961 0.0398852 0)
(7.33302 0.000889032 0)
(7.33328 0.00260916 0)
(7.33382 0.00426396 0)
(7.3346 0.00586781 0)
(7.33558 0.00743215 0)
(7.33675 0.0089668 0)
(7.33808 0.0104798 0)
(7.33956 0.0119774 0)
(7.34118 0.0134637 0)
(7.34293 0.0149419 0)
(7.34479 0.0164132 0)
(7.34677 0.0178778 0)
(7.34885 0.0193344 0)
(7.35105 0.0207805 0)
(7.35335 0.0222122 0)
(7.35575 0.0236243 0)
(7.35826 0.0250102 0)
(7.36088 0.026362 0)
(7.36359 0.0276704 0)
(7.36641 0.0289248 0)
(7.36932 0.0301137 0)
(7.37232 0.0312245 0)
(7.3754 0.0322441 0)
(7.37855 0.0331596 0)
(7.38176 0.0339578 0)
(7.38502 0.0346267 0)
(7.38831 0.0351554 0)
(7.3916 0.0355346 0)
(7.39489 0.0357574 0)
(7.39814 0.0358194 0)
(7.40134 0.0357198 0)
(7.40445 0.035459 0)
(7.40747 0.035051 0)
(7.33303 0.000784122 0)
(7.33328 0.00230292 0)
(7.33384 0.00377366 0)
(7.33463 0.00521378 0)
(7.33562 0.00663413 0)
(7.33681 0.00804196 0)
(7.33816 0.0094419 0)
(7.33966 0.0108363 0)
(7.3413 0.0122258 0)
(7.34306 0.01361 0)
(7.34494 0.0149871 0)
(7.34694 0.0163548 0)
(7.34904 0.0177098 0)
(7.35125 0.0190484 0)
(7.35356 0.0203656 0)
(7.35597 0.0216559 0)
(7.35847 0.0229127 0)
(7.36107 0.0241285 0)
(7.36376 0.025295 0)
(7.36653 0.0264031 0)
(7.36937 0.0274429 0)
(7.37229 0.0284043 0)
(7.37528 0.029277 0)
(7.37831 0.0300509 0)
(7.38139 0.0307164 0)
(7.38449 0.0312651 0)
(7.3876 0.0316895 0)
(7.3907 0.0319843 0)
(7.39379 0.032146 0)
(7.39682 0.0321734 0)
(7.3998 0.0320686 0)
(7.4027 0.0318344 0)
(7.40549 0.0314851 0)
(7.33303 0.000669513 0)
(7.33331 0.00195742 0)
(7.3339 0.0031977 0)
(7.33474 0.00440789 0)
(7.33579 0.0055998 0)
(7.33703 0.00678235 0)
(7.33844 0.00796129 0)
(7.33999 0.00913946 0)
(7.34167 0.0103179 0)
(7.34348 0.011496 0)
(7.3454 0.0126721 0)
(7.34742 0.0138438 0)
(7.34955 0.0150074 0)
(7.35177 0.0161587 0)
(7.35408 0.0172926 0)
(7.35648 0.0184034 0)
(7.35897 0.0194847 0)
(7.36153 0.0205293 0)
(7.36417 0.0215297 0)
(7.36688 0.0224777 0)
(7.36965 0.023365 0)
(7.37247 0.0241829 0)
(7.37534 0.0249232 0)
(7.37825 0.0255778 0)
(7.38118 0.0261394 0)
(7.38412 0.026602 0)
(7.38706 0.0269607 0)
(7.38998 0.0272121 0)
(7.39287 0.027355 0)
(7.39571 0.0273898 0)
(7.39848 0.0273199 0)
(7.40118 0.0271487 0)
(7.40378 0.0268897 0)
(7.33303 0.000552065 0)
(7.3333 0.00162973 0)
(7.33389 0.00269976 0)
(7.33474 0.00377682 0)
(7.3358 0.00486372 0)
(7.33705 0.00596097 0)
(7.33847 0.00706738 0)
(7.34004 0.00817993 0)
(7.34175 0.00929435 0)
(7.34357 0.0104056 0)
(7.34552 0.011509 0)
(7.34756 0.0126006 0)
(7.3497 0.0136762 0)
(7.35194 0.0147311 0)
(7.35426 0.0157603 0)
(7.35666 0.0167585 0)
(7.35913 0.0177203 0)
(7.36168 0.0186397 0)
(7.36429 0.0195104 0)
(7.36696 0.0203262 0)
(7.36967 0.0210806 0)
(7.37243 0.0217672 0)
(7.37522 0.0223802 0)
(7.37803 0.0229139 0)
(7.38086 0.0233637 0)
(7.38368 0.023726 0)
(7.38649 0.0239982 0)
(7.38927 0.0241795 0)
(7.39202 0.0242703 0)
(7.39471 0.0242729 0)
(7.39733 0.0241916 0)
(7.39989 0.0240311 0)
(7.40235 0.0238038 0)
(7.33304 0.000404952 0)
(7.33338 0.00116355 0)
(7.33406 0.00189969 0)
(7.33501 0.00264293 0)
(7.33616 0.00340712 0)
(7.3375 0.00419684 0)
(7.33899 0.00501238 0)
(7.34062 0.00585179 0)
(7.34237 0.00671215 0)
(7.34423 0.00758822 0)
(7.34619 0.00847382 0)
(7.34824 0.00936285 0)
(7.35038 0.0102494 0)
(7.35261 0.0111275 0)
(7.35491 0.0119915 0)
(7.35728 0.0128356 0)
(7.35972 0.0136538 0)
(7.36221 0.01444 0)
(7.36476 0.0151883 0)
(7.36735 0.0158926 0)
(7.36998 0.0165472 0)
(7.37265 0.0171464 0)
(7.37533 0.0176854 0)
(7.37802 0.0181595 0)
(7.38071 0.0185653 0)
(7.3834 0.0189001 0)
(7.38606 0.0191624 0)
(7.3887 0.019352 0)
(7.39129 0.0194699 0)
(7.39383 0.0195184 0)
(7.39631 0.0195017 0)
(7.39872 0.0194237 0)
(7.40106 0.019295 0)
(7.33302 0.000292251 0)
(7.33331 0.000899846 0)
(7.33397 0.0015667 0)
(7.33491 0.00227752 0)
(7.33608 0.00302695 0)
(7.33744 0.00381041 0)
(7.33896 0.00461881 0)
(7.34063 0.00544285 0)
(7.34243 0.00627096 0)
(7.34433 0.00709463 0)
(7.34633 0.00791064 0)
(7.34843 0.00871565 0)
(7.3506 0.00950503 0)
(7.35286 0.0102741 0)
(7.35518 0.0110185 0)
(7.35757 0.0117343 0)
(7.36001 0.0124171 0)
(7.36251 0.0130628 0)
(7.36504 0.0136674 0)
(7.36761 0.0142266 0)
(7.37021 0.0147369 0)
(7.37283 0.0151946 0)
(7.37546 0.0155968 0)
(7.37809 0.015941 0)
(7.38072 0.0162255 0)
(7.38332 0.0164493 0)
(7.3859 0.0166124 0)
(7.38845 0.0167159 0)
(7.39095 0.0167617 0)
(7.3934 0.016753 0)
(7.39579 0.0166942 0)
(7.39811 0.0165895 0)
(7.40036 0.0164485 0)
(7.33306 2.39563e-05 0)
(7.33355 4.04851e-05 0)
(7.33441 0.000123805 0)
(7.3355 0.000322123 0)
(7.33678 0.000615723 0)
(7.33823 0.000991643 0)
(7.33982 0.00143913 0)
(7.34153 0.00195619 0)
(7.34333 0.00253108 0)
(7.34522 0.00313934 0)
(7.34721 0.00376737 0)
(7.34928 0.00440749 0)
(7.35143 0.00505255 0)
(7.35365 0.00569551 0)
(7.35592 0.0063309 0)
(7.35826 0.00695313 0)
(7.36064 0.0075566 0)
(7.36306 0.0081362 0)
(7.36552 0.00868735 0)
(7.36801 0.00920582 0)
(7.37052 0.00968772 0)
(7.37304 0.0101296 0)
(7.37556 0.0105286 0)
(7.37809 0.0108824 0)
(7.3806 0.0111893 0)
(7.38309 0.0114484 0)
(7.38555 0.0116598 0)
(7.38798 0.0118241 0)
(7.39036 0.0119431 0)
(7.3927 0.012019 0)
(7.39499 0.0120553 0)
(7.39721 0.0120551 0)
(7.39938 0.0120259 0)
(7.33302 -3.62503e-05 0)
(7.33338 3.91918e-05 0)
(7.33423 0.000308562 0)
(7.3354 0.000696019 0)
(7.33677 0.00114268 0)
(7.33831 0.00163162 0)
(7.34 0.00214576 0)
(7.34183 0.00265809 0)
(7.34375 0.0031621 0)
(7.34575 0.00366827 0)
(7.34782 0.00417443 0)
(7.34997 0.0046741 0)
(7.35218 0.0051636 0)
(7.35446 0.0056358 0)
(7.35679 0.00609006 0)
(7.35917 0.0065245 0)
(7.36159 0.006936 0)
(7.36404 0.00732148 0)
(7.36652 0.00767827 0)
(7.36902 0.00800409 0)
(7.37152 0.00829688 0)
(7.37404 0.00855494 0)
(7.37655 0.00877696 0)
(7.37905 0.00896206 0)
(7.38153 0.00910987 0)
(7.38398 0.0092206 0)
(7.3864 0.00929502 0)
(7.38879 0.00933454 0)
(7.39112 0.00934116 0)
(7.39341 0.00931748 0)
(7.39564 0.00926675 0)
(7.39782 0.00919212 0)
(7.39992 0.00909972 0)
(7.33314 -0.000630203 0)
(7.33399 -0.00175312 0)
(7.33518 -0.00245075 0)
(7.33649 -0.00283453 0)
(7.33791 -0.00298881 0)
(7.33947 -0.00295099 0)
(7.34112 -0.00277113 0)
(7.34285 -0.00250552 0)
(7.34468 -0.00218193 0)
(7.34661 -0.00180601 0)
(7.34862 -0.00139246 0)
(7.35071 -0.000956524 0)
(7.35285 -0.000509012 0)
(7.35505 -5.34449e-05 0)
(7.35731 0.000400641 0)
(7.35961 0.000846532 0)
(7.36195 0.00128026 0)
(7.36432 0.00169855 0)
(7.36671 0.0020983 0)
(7.36912 0.00247667 0)
(7.37154 0.0028312 0)
(7.37395 0.00315986 0)
(7.37637 0.00346102 0)
(7.37877 0.00373349 0)
(7.38116 0.00397656 0)
(7.38352 0.00418998 0)
(7.38584 0.00437399 0)
(7.38814 0.00452932 0)
(7.39039 0.00465715 0)
(7.3926 0.00475901 0)
(7.39476 0.00483716 0)
(7.39687 0.00489355 0)
(7.39894 0.00493342 0)
(7.33308 -0.000260668 0)
(7.33395 -0.000543131 0)
(7.33551 -0.000626646 0)
(7.33723 -0.000664025 0)
(7.33905 -0.000644089 0)
(7.34097 -0.000574536 0)
(7.34297 -0.000481054 0)
(7.34502 -0.000359582 0)
(7.34713 -0.000210137 0)
(7.34931 -4.9245e-05 0)
(7.35153 0.000115703 0)
(7.3538 0.0002829 0)
(7.35612 0.000449644 0)
(7.35848 0.000617587 0)
(7.36088 0.000780848 0)
(7.36332 0.00093584 0)
(7.36577 0.00108111 0)
(7.36825 0.00121551 0)
(7.37074 0.00133771 0)
(7.37323 0.00144652 0)
(7.37572 0.00154094 0)
(7.3782 0.0016202 0)
(7.38067 0.00168373 0)
(7.38311 0.00173121 0)
(7.38553 0.0017626 0)
(7.38791 0.00177814 0)
(7.39025 0.00177836 0)
(7.39255 0.00176406 0)
(7.3948 0.00173633 0)
(7.39699 0.00169649 0)
(7.39913 0.00164614 0)
(7.40121 0.00158658 0)
(7.40323 0.00152068 0)
(7.33437 -0.00344294 0)
(7.33918 -0.00636616 0)
(7.34495 -0.00745659 0)
(7.35124 -0.00807268 0)
(7.35789 -0.00830536 0)
(7.36468 -0.00826567 0)
(7.37146 -0.00809707 0)
(7.37818 -0.0078599 0)
(7.3848 -0.00758299 0)
(7.39129 -0.00728676 0)
(7.39762 -0.00698076 0)
(7.40379 -0.00666977 0)
(7.40977 -0.00635712 0)
(7.41556 -0.00604926 0)
(7.42115 -0.0057458 0)
(7.42654 -0.00544723 0)
(7.43171 -0.00515512 0)
(7.43667 -0.00487111 0)
(7.44141 -0.00459658 0)
(7.44593 -0.0043328 0)
(7.45023 -0.00408087 0)
(7.45431 -0.0038418 0)
(7.45818 -0.0036164 0)
(7.46182 -0.00340528 0)
(7.46526 -0.00320884 0)
(7.46848 -0.00302725 0)
(7.47151 -0.00286044 0)
(7.47433 -0.00270814 0)
(7.47696 -0.00256987 0)
(7.47941 -0.00244499 0)
(7.48168 -0.00233278 0)
(7.48378 -0.00223296 0)
(7.48572 -0.00214368 0)
(7.32978 -0.00388741 0)
(7.32463 -0.0080593 0)
(7.31613 -0.0104045 0)
(7.30604 -0.0120787 0)
(7.29577 -0.0132071 0)
(7.28543 -0.0139122 0)
(7.27515 -0.0143413 0)
(7.2651 -0.014577 0)
(7.25536 -0.0146663 0)
(7.24597 -0.0146448 0)
(7.23696 -0.0145385 0)
(7.22834 -0.0143651 0)
(7.22013 -0.0141372 0)
(7.21233 -0.0138639 0)
(7.20494 -0.0135515 0)
(7.19795 -0.0132057 0)
(7.19135 -0.0128317 0)
(7.18514 -0.0124341 0)
(7.17931 -0.0120169 0)
(7.17384 -0.0115841 0)
(7.16872 -0.0111394 0)
(7.16395 -0.0106862 0)
(7.1595 -0.0102279 0)
(7.15535 -0.0097672 0)
(7.1515 -0.00930692 0)
(7.14793 -0.00884943 0)
(7.14462 -0.00839688 0)
(7.14155 -0.00795125 0)
(7.13871 -0.00751436 0)
(7.13608 -0.00708803 0)
(7.13365 -0.00667382 0)
(7.13141 -0.00627423 0)
(7.12933 -0.00588885 0)
(2.57529 0.0844327 0)
(2.36145 0.0284931 0)
(2.0027 -0.00964452 0)
(1.52263 0.00409062 0)
(1.04733 0.123971 0)
(1.28362 0.611784 0)
(2.29958 1.42995 0)
(3.61829 2.04307 0)
(4.87353 1.98322 0)
(5.89435 1.09668 0)
(6.40717 -0.236218 0)
(6.43432 -1.65568 0)
(6.46189 -3.04956 0)