/*--------------------------------*- C++ -*----------------------------------*\
  =========                 |
  \\      /  F ield         | OpenFOAM: The Open Source CFD Toolbox
   \\    /   O peration     | Website:  https://openfoam.org
    \\  /    A nd           | Version:  10
     \\/     M anipulation  |
\*---------------------------------------------------------------------------*/
FoamFile
{
    format      ascii;
    class       volScalarField;
    location    "0.075";
    object      epsilon;
}
// * * * * * * * * * * * * * * * * * * * * * * * * * * * * * * * * * * * * * //

dimensions      [0 2 -3 0 0 0 0];

internalField   nonuniform List<scalar> 
6820
(
23.2969
22.5752
21.9094
21.2853
20.7018
20.1631
19.6734
19.2344
18.8457
18.5051
18.2095
17.9552
17.7382
17.5549
17.4018
17.2755
17.1731
17.0919
17.0295
16.9837
16.9527
16.9346
16.9281
16.9316
16.9441
16.9646
16.9916
17.0272
17.0571
17.1446
16.9902
17.9968
13.5861
5.03386
6.81836
7.83944
8.46779
8.89838
9.23202
9.52257
9.79649
10.0658
10.3356
10.6078
10.8827
11.1601
11.4395
11.7205
12.0025
12.285
12.5674
12.8493
13.1304
13.4103
13.6889
13.966
14.2417
14.5162
14.7902
15.0647
15.3413
15.6232
15.9239
16.2164
16.7224
16.7663
3.7036
4.14718
4.56526
4.91425
5.19801
5.43135
5.62831
5.80013
5.95525
6.09979
6.23806
6.37298
6.5065
6.63983
6.77375
6.90869
7.04486
7.18233
7.32108
7.46105
7.60212
7.7442
7.88719
8.03103
8.17573
8.32137
8.46813
8.61662
8.76699
8.92245
9.07911
9.25272
9.41831
3.54009
3.61094
3.72474
3.85374
3.9812
4.09947
4.2063
4.30212
4.38842
4.46697
4.53951
4.60754
4.67231
4.73482
4.79585
4.85601
4.91574
4.97537
5.03515
5.09524
5.15577
5.21682
5.27845
5.34072
5.40368
5.46742
5.53204
5.59775
5.66474
5.73366
5.80462
5.87884
5.9573
3.52064
3.50151
3.50497
3.52611
3.55868
3.59722
3.63783
3.67809
3.71673
3.7532
3.78743
3.81955
3.84983
3.87858
3.9061
3.93268
3.95856
3.98397
4.00908
4.03404
4.05897
4.08398
4.10916
4.13457
4.1603
4.1864
4.21298
4.24013
4.26799
4.29674
4.32656
4.35768
4.39023
3.5194
3.48247
3.45303
3.43232
3.41995
3.4145
3.41423
3.41752
3.4231
3.43002
3.43765
3.44556
3.45351
3.46137
3.46908
3.47664
3.48406
3.49139
3.49868
3.50596
3.51329
3.52071
3.52827
3.53601
3.54397
3.55219
3.56072
3.56963
3.57898
3.58885
3.59935
3.61055
3.62253
3.51943
3.47974
3.44283
3.40949
3.38025
3.35523
3.3342
3.31668
3.30213
3.28999
3.27978
3.27109
3.2636
3.25705
3.25127
3.2461
3.24144
3.23723
3.2334
3.22994
3.22681
3.224
3.2215
3.21931
3.21745
3.21591
3.2147
3.21386
3.21341
3.21339
3.21383
3.21478
3.21626
3.51947
3.47943
3.44109
3.40466
3.37041
3.33851
3.30906
3.28204
3.25733
3.23478
3.21416
3.19528
3.17792
3.16191
3.14707
3.13326
3.12037
3.10829
3.09693
3.08624
3.07614
3.0666
3.05758
3.04904
3.04097
3.03334
3.02615
3.01938
3.01305
3.00715
3.00171
2.99672
2.99221
3.51948
3.47941
3.44085
3.40382
3.36835
3.33447
3.30224
3.27167
3.24277
3.2155
3.18979
3.16559
3.14278
3.12128
3.101
3.08183
3.06369
3.0465
3.03019
3.01469
2.99993
2.98587
2.97246
2.95966
2.94744
2.93577
2.92461
2.91396
2.9038
2.89412
2.88492
2.87618
2.86791
3.51948
3.47941
3.44082
3.40368
3.36795
3.33361
3.30061
3.26896
3.23862
3.20958
3.1818
3.15526
3.12991
3.10571
3.0826
3.06053
3.03944
3.01929
3.00002
2.98158
2.96392
2.94701
2.93079
2.91524
2.90031
2.88598
2.87223
2.85902
2.84634
2.83417
2.8225
2.81132
2.80062
3.51948
3.4794
3.44081
3.40365
3.36788
3.33343
3.30026
3.26832
3.23757
3.20796
3.17948
3.15208
3.12572
3.10038
3.07602
3.0526
3.03009
3.00844
2.98762
2.9676
2.94833
2.92979
2.91195
2.89477
2.87822
2.86227
2.84691
2.83211
2.81785
2.80412
2.79089
2.77816
2.7659
3.51948
3.4794
3.4408
3.40364
3.36786
3.33339
3.30018
3.26817
3.23731
3.20756
3.17886
3.15119
3.12449
3.09874
3.07391
3.04995
3.02683
3.00453
2.98301
2.96225
2.9422
2.92286
2.90418
2.88614
2.86872
2.85189
2.83563
2.81993
2.80477
2.79012
2.77598
2.76233
2.74915
3.51948
3.4794
3.44079
3.40363
3.36784
3.33337
3.30015
3.26812
3.23724
3.20744
3.17869
3.15094
3.12415
3.09827
3.07328
3.04913
3.0258
3.00325
2.98146
2.96039
2.94001
2.92031
2.90126
2.88282
2.86499
2.84773
2.83104
2.81488
2.79925
2.78413
2.76951
2.75536
2.74169
3.51948
3.47939
3.44079
3.40362
3.36783
3.33335
3.30013
3.2681
3.2372
3.2074
3.17863
3.15086
3.12403
3.09812
3.07308
3.04888
3.02548
3.00285
2.98096
2.95978
2.93928
2.91945
2.90024
2.88165
2.86365
2.84621
2.82933
2.81297
2.79713
2.78179
2.76694
2.75256
2.73864
3.51947
3.47939
3.44079
3.40362
3.36782
3.33334
3.30011
3.26807
3.23718
3.20736
3.17859
3.15081
3.12398
3.09806
3.073
3.04878
3.02536
3.00271
2.98079
2.95958
2.93904
2.91916
2.89991
2.88126
2.86319
2.84569
2.82873
2.8123
2.79638
2.78095
2.766
2.75152
2.73749
3.51947
3.47939
3.44078
3.40361
3.36781
3.33333
3.3001
3.26806
3.23715
3.20734
3.17856
3.15078
3.12394
3.09802
3.07296
3.04873
3.0253
3.00264
2.98071
2.95949
2.93894
2.91905
2.89978
2.88112
2.86303
2.84551
2.82853
2.81207
2.79612
2.78066
2.76568
2.75116
2.73709
3.51947
3.47939
3.44078
3.40361
3.36781
3.33332
3.30008
3.26804
3.23713
3.20732
3.17854
3.15075
3.12391
3.09798
3.07292
3.04869
3.02526
3.00259
2.98066
2.95944
2.93889
2.91899
2.89972
2.88105
2.86296
2.84544
2.82845
2.81199
2.79603
2.78056
2.76557
2.75104
2.73695
3.51947
3.47939
3.44078
3.4036
3.3678
3.33331
3.30007
3.26803
3.23712
3.2073
3.17851
3.15072
3.12388
3.09795
3.07289
3.04866
3.02522
3.00256
2.98062
2.9594
2.93885
2.91895
2.89968
2.88101
2.86292
2.84539
2.82841
2.81194
2.79598
2.78051
2.76551
2.75098
2.73689
3.51947
3.47939
3.44078
3.4036
3.3678
3.33331
3.30006
3.26801
3.2371
3.20728
3.17849
3.1507
3.12386
3.09792
3.07286
3.04862
3.02519
3.00252
2.98059
2.95936
2.93881
2.91891
2.89964
2.88097
2.86288
2.84536
2.82837
2.8119
2.79595
2.78047
2.76548
2.75094
2.73684
3.51947
3.47939
3.44077
3.4036
3.36779
3.3333
3.30006
3.268
3.23709
3.20726
3.17848
3.15068
3.12384
3.0979
3.07283
3.0486
3.02516
3.00249
2.98056
2.95933
2.93878
2.91888
2.89961
2.88094
2.86285
2.84532
2.82834
2.81187
2.79591
2.78044
2.76544
2.75089
2.73679
3.51947
3.47939
3.44077
3.40359
3.36779
3.33329
3.30005
3.268
3.23708
3.20725
3.17846
3.15066
3.12382
3.09788
3.07281
3.04857
3.02513
3.00246
2.98053
2.9593
2.93875
2.91885
2.89957
2.8809
2.86282
2.84529
2.8283
2.81183
2.79587
2.7804
2.76539
2.75084
2.73674
3.51947
3.47938
3.44077
3.40359
3.36779
3.33329
3.30004
3.26799
3.23707
3.20724
3.17845
3.15065
3.1238
3.09786
3.07279
3.04855
3.02511
3.00244
2.9805
2.95927
2.93872
2.91882
2.89954
2.88087
2.86278
2.84525
2.82826
2.8118
2.79583
2.78035
2.76534
2.75079
2.73668
3.51947
3.47938
3.44077
3.40359
3.36778
3.33329
3.30004
3.26798
3.23706
3.20723
3.17844
3.15064
3.12378
3.09784
3.07277
3.04853
3.02509
3.00242
2.98048
2.95924
2.93869
2.91879
2.89951
2.88084
2.86275
2.84522
2.82823
2.81176
2.79579
2.7803
2.76529
2.75073
2.73661
3.51947
3.47938
3.44077
3.40359
3.36778
3.33328
3.30003
3.26798
3.23706
3.20722
3.17843
3.15062
3.12377
3.09783
3.07275
3.04851
3.02507
3.00239
2.98045
2.95922
2.93867
2.91876
2.89948
2.88081
2.86272
2.84518
2.82819
2.81171
2.79574
2.78025
2.76523
2.75066
2.73653
3.51947
3.47938
3.44077
3.40359
3.36778
3.33328
3.30003
3.26797
3.23705
3.20721
3.17842
3.15061
3.12376
3.09781
3.07274
3.0485
3.02505
3.00238
2.98043
2.9592
2.93864
2.91873
2.89945
2.88078
2.86268
2.84515
2.82815
2.81167
2.79569
2.78019
2.76517
2.75059
2.73645
3.51947
3.47938
3.44077
3.40359
3.36778
3.33328
3.30003
3.26797
3.23705
3.20721
3.17841
3.15061
3.12375
3.0978
3.07273
3.04848
3.02504
3.00236
2.98042
2.95918
2.93862
2.91871
2.89943
2.88075
2.86265
2.84511
2.82811
2.81162
2.79564
2.78014
2.7651
2.75052
2.73637
3.51947
3.47938
3.44077
3.40359
3.36778
3.33328
3.30002
3.26796
3.23704
3.2072
3.1784
3.1506
3.12374
3.09779
3.07271
3.04847
3.02502
3.00234
2.9804
2.95916
2.9386
2.91869
2.8994
2.88072
2.86261
2.84507
2.82806
2.81157
2.79558
2.78007
2.76503
2.75044
2.73628
3.51947
3.47938
3.44077
3.40359
3.36778
3.33328
3.30002
3.26796
3.23704
3.2072
3.1784
3.1506
3.12374
3.09779
3.07271
3.04846
3.02502
3.00234
2.98039
2.95915
2.93858
2.91867
2.89938
2.88069
2.86259
2.84504
2.82802
2.81153
2.79553
2.78001
2.76496
2.75036
2.73619
3.51947
3.47938
3.44077
3.40359
3.36778
3.33327
3.30002
3.26796
3.23703
3.2072
3.1784
3.15059
3.12373
3.09778
3.0727
3.04845
3.025
3.00232
2.98037
2.95913
2.93856
2.91864
2.89935
2.88066
2.86255
2.845
2.82798
2.81148
2.79547
2.77995
2.76489
2.75028
2.7361
3.51947
3.47938
3.44077
3.40359
3.36778
3.33328
3.30003
3.26797
3.23705
3.20721
3.17841
3.1506
3.12374
3.09779
3.07271
3.04846
3.02501
3.00233
2.98038
2.95913
2.93856
2.91864
2.89935
2.88065
2.86254
2.84498
2.82796
2.81145
2.79544
2.77991
2.76484
2.75022
2.73602
3.51947
3.47939
3.44077
3.40359
3.36778
3.33328
3.30002
3.26796
3.23704
3.2072
3.1784
3.15059
3.12373
3.09778
3.0727
3.04845
3.025
3.00231
2.98036
2.95912
2.93855
2.91863
2.89933
2.88064
2.86252
2.84496
2.82793
2.81142
2.79541
2.77987
2.7648
2.75017
2.73597
3.51947
3.47938
3.44077
3.40359
3.36779
3.3333
3.30006
3.26801
3.23709
3.20726
3.17846
3.15066
3.1238
3.09785
3.07277
3.04852
3.02507
3.00239
2.98044
2.95919
2.93862
2.9187
2.89941
2.88071
2.8626
2.84504
2.82801
2.81151
2.7955
2.77997
2.7649
2.75027
2.73608
3.51948
3.4794
3.44079
3.40362
3.36782
3.33332
3.30007
3.26801
3.23709
3.20725
3.17846
3.15066
3.12381
3.09787
3.07281
3.04858
3.02514
3.00248
2.98055
2.95933
2.93879
2.91891
2.89965
2.88099
2.86291
2.8454
2.82842
2.81196
2.796
2.78052
2.76551
2.75094
2.73681
3.51947
3.47939
3.4408
3.40365
3.36789
3.33344
3.30023
3.26822
3.23734
3.20755
3.1788
3.15104
3.12425
3.09837
3.07337
3.04922
3.02588
3.00333
2.98152
2.96043
2.94004
2.92031
2.90123
2.88276
2.86488
2.84757
2.83081
2.81458
2.79886
2.78362
2.76886
2.75456
2.74069
3.51949
3.47947
3.44095
3.40384
3.3681
3.33368
3.30054
3.26862
3.23789
3.20831
3.17982
3.15238
3.12597
3.10052
3.07602
3.05242
3.02969
3.00778
2.98667
2.96633
2.94671
2.9278
2.90956
2.89196
2.87497
2.85858
2.84275
2.82746
2.81269
2.79842
2.78462
2.77128
2.75837
3.5195
3.47953
3.44117
3.40447
3.36934
3.33573
3.3036
3.27292
3.24365
3.21574
3.18916
3.16384
3.13974
3.11679
3.09495
3.07414
3.05432
3.03543
3.01741
3.00021
2.98379
2.96809
2.95308
2.93871
2.92494
2.91174
2.89908
2.88691
2.87522
2.86397
2.85315
2.84272
2.83265
3.51968
3.48122
3.44561
3.41286
3.38297
3.3559
3.33154
3.30971
3.29021
3.27281
3.2573
3.24347
3.23114
3.22013
3.21028
3.20145
3.19351
3.18634
3.17985
3.17395
3.16855
3.1636
3.15902
3.15476
3.15077
3.14702
3.14347
3.14008
3.13682
3.13367
3.1306
3.1276
3.12465
3.52526
3.51371
3.51626
3.52957
3.55085
3.57808
3.60963
3.64422
3.6809
3.71891
3.75767
3.79672
3.83572
3.87436
3.91246
3.94983
3.98635
4.02194
4.05652
4.09006
4.12252
4.15389
4.18416
4.21334
4.24144
4.26848
4.29447
4.31944
4.34341
4.36642
4.38849
4.40966
4.42997
3.83318
4.36503
4.84906
5.3138
5.77386
6.22465
6.66187
7.08369
7.48973
7.88039
8.25646
8.61883
8.96841
9.30607
9.63258
9.94862
10.2548
10.5518
10.8399
11.1197
11.3916
11.656
11.9132
12.1637
12.4078
12.6457
12.8779
13.1046
13.3261
13.5428
13.755
13.9629
14.1668
30.2663
32.7713
35.3126
37.865
40.4147
42.9529
45.4713
47.9624
50.4193
52.8358
55.2063
57.5261
59.7911
61.9979
64.1437
66.2264
68.2443
70.1963
72.0818
73.9005
75.6524
77.338
78.9579
80.5131
82.0045
83.4335
84.8016
86.11
87.3606
88.5549
89.6947
90.7813
91.818
87.1266
240.716
432.034
621.952
777.736
879.172
921.678
912.78
867.469
802.87
732.858
665.943
605.988
554.013
509.742
472.483
441.452
415.937
395.088
378.125
364.299
352.901
343.258
334.731
326.701
318.562
309.71
299.547
287.481
272.943
255.403
234.424
209.74
181.392
149.924
116.629
83.7436
54.3272
31.4421
16.6652
9.05746
5.96892
4.98615
4.80763
4.90661
5.08722
5.27266
5.42986
5.54509
5.61503
5.64245
5.63328
5.59465
5.53362
5.45655
5.36879
5.27472
5.17776
5.08061
4.98533
4.8935
4.80633
4.72473
4.64937
4.58073
4.51908
4.46447
4.41673
4.37546
4.33996
4.30923
4.282
4.2567
4.23154
4.20456
4.17374
4.13713
4.09297
4.03979
3.97644
3.90202
3.81564
3.71626
3.60243
3.47229
3.32381
3.15535
2.96648
2.75881
2.53664
2.30706
2.07943
1.86405
1.67041
1.50553
1.37265
1.27118
1.19685
1.14671
1.09815
19.4417
28.5294
47.0634
78.3726
124.715
186.032
259.03
336.749
409.731
468.735
507.714
525.356
524.601
510.745
489.358
464.918
440.391
417.214
396.11
377.216
360.347
345.172
331.287
318.23
305.491
292.531
278.805
263.778
246.952
227.895
206.291
182.018
155.26
126.658
97.4518
69.5449
45.2798
26.7542
14.8149
8.51022
5.78215
4.80194
4.54773
4.57891
4.71829
4.88862
5.05145
5.18663
5.28488
5.34403
5.3664
5.35684
5.3212
5.26536
5.19469
5.11383
5.02658
4.93603
4.84461
4.75421
4.66633
4.58211
4.50244
4.42801
4.35932
4.29672
4.24037
4.19026
4.14617
4.10764
4.07395
4.04412
4.01694
3.99092
3.96441
3.93566
3.90289
3.86443
3.8188
3.76475
3.70118
3.62706
3.54113
3.44181
3.32714
3.19498
3.04351
2.87201
2.68169
2.47628
2.26224
2.04828
1.8442
1.65925
1.50045
1.37138
1.27198
1.19853
1.14862
1.09991
9.57918
9.90772
10.6691
12.3225
15.7162
22.2087
33.6736
52.0946
78.6963
113.068
152.879
194.391
233.457
266.55
291.459
307.506
315.357
316.316
311.898
303.913
293.839
282.614
270.694
258.187
244.995
230.915
215.7
199.103
180.925
161.073
139.624
116.919
93.6484
70.8969
50.0898
32.7302
19.9086
11.7724
7.40423
5.39059
4.57432
4.30697
4.29016
4.3889
4.53552
4.69179
4.83492
4.9518
5.03617
5.08671
5.10541
5.09619
5.06384
5.01321
4.94884
4.8747
4.79414
4.7099
4.62418
4.53873
4.45494
4.37391
4.29649
4.22336
4.15504
4.09192
4.03424
3.98209
3.93542
3.89395
3.85722
3.82452
3.79493
3.76732
3.74033
3.7125
3.68227
3.64812
3.6086
3.56243
3.50839
3.44527
3.37169
3.28595
3.18597
3.06951
2.93457
2.78016
2.60699
2.41822
2.21961
2.01919
1.82624
1.64973
1.49673
1.37118
1.27355
1.20072
1.15085
1.10181
6.04675
6.14753
6.24591
6.33424
6.42181
6.58111
7.03899
8.24271
10.8175
15.5051
23.0567
33.9832
48.2611
65.2072
83.6122
102.043
119.102
133.884
145.767
154.146
158.8
159.883
157.788
152.978
145.876
136.816
126.046
113.778
100.239
85.7414
70.7378
55.8529
41.8696
29.6331
19.8587
12.8836
8.50291
6.0711
4.84647
4.2796
4.05923
4.0262
4.09572
4.21774
4.36004
4.50101
4.62641
4.72759
4.80033
4.84387
4.85983
4.85136
4.82233
4.77674
4.7184
4.65071
4.57659
4.49847
4.41836
4.33786
4.25827
4.18062
4.10574
4.03427
3.96675
3.90358
3.84504
3.79132
3.74246
3.69834
3.65869
3.62307
3.59081
3.56108
3.53286
3.50496
3.4761
3.44493
3.41013
3.37039
3.32446
3.27102
3.20857
3.1353
3.04906
2.94749
2.82845
2.6906
2.53423
2.36183
2.17845
1.99142
1.80946
1.64124
1.49389
1.37167
1.27563
1.20327
1.15331
1.10378
4.42938
4.47693
4.52889
4.5826
4.6296
4.65518
4.6461
4.61243
4.61191
4.77298
5.29553
6.40463
8.30065
11.1293
14.9429
19.657
25.0288
30.6859
36.4019
41.8424
46.6205
50.3625
52.7682
53.6504
52.9476
50.7169
47.1154
42.384
36.8344
30.8401
24.8194
19.2006
14.3607
10.5456
7.8079
6.01011
4.91203
4.28001
3.9448
3.7994
3.77665
3.83207
3.93432
4.06024
4.19238
4.31778
4.42724
4.51493
4.57794
4.61576
4.62968
4.62219
4.59638
4.55554
4.50286
4.44124
4.37322
4.30097
4.2263
4.15068
4.07531
4.00117
3.92904
3.85956
3.79324
3.73048
3.6716
3.61682
3.56625
3.5199
3.47765
3.43925
3.40427
3.37215
3.34217
3.31344
3.28494
3.25558
3.22416
3.18947
3.15025
3.10511
3.05249
2.9905
2.91691
2.82929
2.72532
2.60338
2.46327
2.30684
2.13842
1.96458
1.79345
1.6334
1.49158
1.37259
1.27804
1.20604
1.1559
1.1058
3.63751
3.65667
3.67901
3.7049
3.73387
3.76382
3.78947
3.80244
3.79501
3.76907
3.74701
3.7733
3.90646
4.20896
4.73473
5.51594
6.55235
7.81927
9.14983
10.4648
11.6935
12.7583
13.5773
14.0751
14.1961
13.9159
13.2491
12.2518
11.0161
9.65863
8.30281
7.057
5.99589
5.15183
4.52036
4.07544
3.78436
3.61591
3.54285
3.54211
3.59423
3.68259
3.79287
3.91281
4.03213
4.14258
4.23796
4.31418
4.36908
4.40227
4.41471
4.40831
4.38556
4.34913
4.30168
4.2457
4.1834
4.11669
4.04721
3.97632
3.90513
3.83456
3.76535
3.69811
3.63333
3.5714
3.51266
3.45734
3.40561
3.35754
3.31313
3.27226
3.23471
3.20016
3.16812
3.13801
3.1091
3.08052
3.0513
3.02035
2.98647
2.94826
2.90413
2.85214
2.79003
2.71527
2.62542
2.51857
2.39404
2.25307
2.0992
1.93829
1.77783
1.62586
1.48951
1.37371
1.2806
1.20891
1.15855
1.1078
3.21873
3.2227
3.22841
3.23636
3.24695
3.26038
3.27623
3.293
3.30775
3.31668
3.3174
3.31225
3.3108
3.3298
3.39003
3.51094
3.70752
3.97989
4.2905
4.61227
4.92145
5.196
5.41567
5.56323
5.62619
5.59873
5.4831
5.28993
5.03726
4.74814
4.44728
4.15765
3.8978
3.68048
3.51264
3.39637
3.33006
3.30961
3.32922
3.38201
3.46046
3.55681
3.66339
3.77293
3.87889
3.97566
4.05885
4.12538
4.17358
4.20304
4.21442
4.20919
4.18929
4.15691
4.11427
4.06348
4.00647
3.94495
3.88038
3.81402
3.74691
3.67989
3.61368
3.54886
3.48589
3.42516
3.36699
3.31163
3.25927
3.21002
3.16395
3.12106
3.08126
3.04441
3.01026
2.97846
2.94856
2.91996
2.89192
2.86354
2.83371
2.8011
2.76412
2.72082
2.66892
2.60585
2.52903
2.4363
2.32653
2.20035
2.06056
1.91225
1.76228
1.61831
1.48741
1.37481
1.28314
1.21177
1.16116
1.10973
2.98757
2.98302
2.97945
2.97716
2.97644
2.97758
2.98082
2.98617
2.99324
3.00111
3.00837
3.01362
3.0165
3.01869
3.02441
3.03983
3.07241
3.12527
3.19525
3.2765
3.36166
3.44301
3.5133
3.56633
3.5975
3.60425
3.58632
3.54582
3.487
3.41581
3.3392
3.26439
3.19812
3.14613
3.11274
3.10066
3.11103
3.14345
3.19619
3.26638
3.35027
3.44351
3.54143
3.6393
3.73259
3.81728
3.89004
3.94846
3.99112
4.01757
4.02822
4.02415
4.00689
3.9782
3.93993
3.89389
3.84176
3.78505
3.7251
3.66304
3.59985
3.53632
3.47313
3.41083
3.34987
3.29063
3.2334
3.17844
3.12594
3.07605
3.02887
2.98445
2.94283
2.90398
2.86782
2.83424
2.80302
2.77381
2.74614
2.71931
2.69238
2.66412
2.63298
2.59706
2.55407
2.50143
2.43645
2.35675
2.2608
2.14864
2.02234
1.88622
1.74652
1.61046
1.48503
1.37567
1.28552
1.2145
1.16367
1.11155
2.85887
2.84911
2.83994
2.83158
2.82421
2.81805
2.8133
2.81011
2.80854
2.8085
2.8097
2.81162
2.81363
2.8153
2.81673
2.81878
2.82323
2.83156
2.84459
2.86215
2.88303
2.90533
2.92682
2.94527
2.95884
2.96626
2.9671
2.96176
2.95151
2.93837
2.92488
2.91392
2.90838
2.91096
2.92385
2.94865
2.98619
3.03645
3.0986
3.17105
3.25152
3.33724
3.42503
3.51155
3.59346
3.6677
3.73162
3.78324
3.8213
3.84529
3.85542
3.85247
3.8376
3.81225
3.77795
3.73624
3.68858
3.63632
3.58067
3.52267
3.46321
3.40307
3.34287
3.28314
3.22432
3.16677
3.11078
3.05658
3.00438
2.95433
2.90655
2.86114
2.81817
2.77772
2.73984
2.70456
2.67189
2.64172
2.61381
2.58771
2.56267
2.53762
2.51111
2.48128
2.4459
2.40238
2.34798
2.28013
2.19695
2.09792
1.98442
1.86004
1.73033
1.60209
1.48215
1.37614
1.2876
1.217
1.166
1.11322
2.78873
2.77563
2.76293
2.75077
2.73928
2.72862
2.71895
2.71041
2.7031
2.6971
2.6924
2.68889
2.68637
2.68457
2.68324
2.68227
2.68177
2.68198
2.68324
2.68576
2.68961
2.69459
2.70031
2.70629
2.71203
2.71718
2.72165
2.72565
2.72971
2.73475
2.7419
2.7525
2.76794
2.78954
2.81842
2.8554
2.90089
2.9548
3.01658
3.08513
3.15887
3.23583
3.31367
3.38987
3.46185
3.52713
3.58357
3.62945
3.66363
3.68558
3.69532
3.69338
3.68066
3.65831
3.62758
3.5898
3.54623
3.49807
3.4464
3.3922
3.33629
3.2794
3.22212
3.16497
3.10836
3.05264
2.9981
2.94496
2.89342
2.84363
2.79571
2.7498
2.70598
2.66438
2.62514
2.58841
2.55434
2.52304
2.49451
2.46852
2.44457
2.42174
2.39873
2.37379
2.34474
2.30904
2.26392
2.20667
2.13512
2.04824
1.94678
1.83359
1.71358
1.59304
1.47862
1.37605
1.28926
1.2192
1.16809
1.11469
2.75221
2.73698
2.72204
2.70748
2.69342
2.67995
2.66722
2.65534
2.64442
2.63455
2.62578
2.61814
2.6116
2.60608
2.60148
2.59768
2.59459
2.59215
2.5904
2.58936
2.58912
2.58974
2.59123
2.59362
2.59694
2.60123
2.60667
2.61349
2.62212
2.63308
2.64704
2.66473
2.68689
2.71424
2.74737
2.78668
2.83234
2.8842
2.94179
3.00428
3.07047
3.13884
3.20758
3.27468
3.33807
3.3957
3.44575
3.48674
3.5176
3.53778
3.54718
3.54614
3.53531
3.51562
3.48809
3.45385
3.414
3.3696
3.32163
3.27098
3.21841
3.16462
3.11017
3.05556
3.00118
2.94738
2.89443
2.84256
2.79195
2.74276
2.69512
2.64914
2.60493
2.56265
2.52246
2.4846
2.44933
2.41692
2.38757
2.36129
2.33779
2.31638
2.2959
2.27474
2.25082
2.22167
2.18453
2.13661
2.07548
1.99971
1.90944
1.80685
1.69617
1.58319
1.4743
1.3753
1.2904
1.22101
1.16989
1.11593
2.73437
2.71785
2.70155
2.68553
2.66988
2.65468
2.64005
2.62607
2.61287
2.60052
2.5891
2.57868
2.56927
2.56089
2.55353
2.54715
2.54171
2.53717
2.53353
2.53077
2.52892
2.52805
2.52822
2.52954
2.53213
2.53616
2.54186
2.54948
2.55938
2.57195
2.58765
2.60694
2.63031
2.65816
2.69084
2.72855
2.77134
2.81904
2.87123
2.92723
2.98608
3.04656
3.1072
3.16636
3.22232
3.27336
3.31791
3.35466
3.38262
3.40123
3.41029
3.40999
3.4008
3.38344
3.35877
3.32771
3.29124
3.25027
3.20571
3.15836
3.10894
3.05809
3.00635
2.95421
2.90205
2.8502
2.79894
2.74848
2.69902
2.6507
2.60364
2.55796
2.51377
2.47123
2.43051
2.39189
2.3557
2.32233
2.29213
2.26533
2.24186
2.22123
2.20248
2.18414
2.16426
2.14046
2.11003
2.07015
2.01823
1.95247
1.87249
1.77983
1.67807
1.57247
1.46913
1.3738
1.29094
1.22239
1.17136
1.11692
2.72631
2.70907
2.69199
2.67513
2.65854
2.64232
2.62653
2.61127
2.59664
2.58272
2.56958
2.55729
2.54592
2.5355
2.52607
2.51764
2.51022
2.50382
2.49845
2.49413
2.49089
2.48879
2.4879
2.48832
2.49019
2.49366
2.49895
2.5063
2.51598
2.52831
2.54362
2.56227
2.58456
2.61079
2.64116
2.67578
2.71465
2.75758
2.8042
2.85396
2.90604
2.95943
3.01293
3.06515
3.11464
3.15994
3.19968
3.23269
3.25807
3.27523
3.28392
3.2842
3.2764
3.26108
3.23892
3.21072
3.17729
3.13946
3.09803
3.05374
3.00726
2.95919
2.91005
2.86029
2.8103
2.76041
2.71088
2.66193
2.61375
2.56648
2.52025
2.47516
2.43132
2.38889
2.34803
2.30902
2.27224
2.23814
2.20719
2.1798
2.1561
2.1358
2.11815
2.10182
2.08501
2.06546
2.04056
2.00749
1.96356
1.9067
1.83607
1.75263
1.65932
1.56088
1.46305
1.3715
1.29085
1.22328
1.17247
1.11765
2.72296
2.70535
2.68787
2.67055
2.65345
2.63664
2.62018
2.60415
2.58863
2.5737
2.55944
2.54591
2.53319
2.52134
2.51039
2.5004
2.49139
2.48342
2.47651
2.47071
2.46606
2.46264
2.46052
2.45979
2.46059
2.46305
2.46735
2.47369
2.4823
2.49344
2.50737
2.52433
2.54458
2.5683
2.59565
2.62669
2.66137
2.69952
2.74082
2.78478
2.83073
2.8778
2.92498
2.97109
3.0149
3.05514
3.09062
3.12028
3.1433
3.15909
3.16735
3.16806
3.16143
3.14785
3.12791
3.10223
3.07155
3.03657
2.99802
2.95656
2.91282
2.86736
2.82068
2.77322
2.72534
2.67738
2.62959
2.58219
2.53538
2.48929
2.44405
2.39977
2.35655
2.31451
2.27384
2.23479
2.19773
2.16317
2.13166
2.10373
2.07968
2.05943
2.04241
2.02745
2.01291
1.99666
1.97619
1.94876
1.91164
1.86257
1.80033
1.72536
1.64001
1.54846
1.45608
1.36838
1.2901
1.22367
1.17321
1.11812
2.72168
2.7039
2.68622
2.66867
2.6513
2.63416
2.61731
2.60081
2.58474
2.56917
2.55416
2.53979
2.52612
2.51323
2.50115
2.48996
2.4797
2.47042
2.46219
2.45504
2.44906
2.4443
2.44086
2.43882
2.4383
2.43944
2.44238
2.4473
2.45438
2.46384
2.47587
2.49069
2.50847
2.52936
2.55348
2.58084
2.61139
2.64498
2.68132
2.71999
2.7604
2.80182
2.84338
2.88407
2.92283
2.95856
2.99021
3.01684
3.03767
3.05213
3.05991
3.0609
3.0552
3.04313
3.0251
3.00168
2.97345
2.94106
2.90513
2.86628
2.82509
2.78208
2.73773
2.69246
2.64662
2.60054
2.55447
2.50864
2.46324
2.41841
2.37427
2.33095
2.28852
2.24712
2.20689
2.16808
2.13104
2.09629
2.06443
2.03608
2.01169
1.99135
1.97464
1.96058
1.94766
1.93389
1.9169
1.89405
1.86263
1.82027
1.76547
1.69819
1.62025
1.53529
1.44826
1.36447
1.28868
1.22355
1.17358
1.11832
2.72122
2.70337
2.6856
2.66793
2.65041
2.63309
2.616
2.59921
2.58278
2.56677
2.55125
2.53627
2.52192
2.50824
2.4953
2.48316
2.47189
2.46153
2.45215
2.44382
2.4366
2.43057
2.42581
2.42243
2.42052
2.4202
2.42162
2.42492
2.43027
2.43783
2.44777
2.46027
2.47546
2.49346
2.51435
2.53814
2.56478
2.5941
2.62587
2.65971
2.69512
2.73146
2.76798
2.80382
2.83806
2.86973
2.8979
2.92174
2.94052
2.95371
2.96094
2.96206
2.95711
2.9463
2.92994
2.9085
2.88247
2.8524
2.81888
2.78243
2.7436
2.70289
2.66073
2.61753
2.57364
2.52937
2.48499
2.44072
2.39674
2.35321
2.31025
2.26797
2.22647
2.18585
2.14626
2.10791
2.07115
2.03645
2.00446
1.97586
1.9512
1.93071
1.91414
1.90065
1.88885
1.87691
1.86258
1.84337
1.81665
1.77998
1.73168
1.67131
1.60021
1.52149
1.43966
1.3598
1.28661
1.22294
1.17358
1.11828
2.72106
2.70317
2.68535
2.66762
2.65002
2.63257
2.61533
2.59834
2.58166
2.56534
2.54943
2.534
2.51911
2.50482
2.49119
2.47829
2.46616
2.45489
2.44452
2.43514
2.4268
2.41959
2.41359
2.4089
2.40561
2.40384
2.40371
2.40536
2.40892
2.41454
2.42237
2.43253
2.44516
2.46035
2.47814
2.49856
2.52152
2.54691
2.57448
2.60393
2.6348
2.66656
2.69854
2.73001
2.76015
2.78814
2.81314
2.8344
2.85125
2.86318
2.86981
2.87095
2.86657
2.8568
2.84188
2.82218
2.7981
2.77014
2.73879
2.70456
2.66791
2.62933
2.58923
2.54799
2.50596
2.46344
2.4207
2.37795
2.33538
2.29315
2.25139
2.21022
2.16972
2.12999
2.09117
2.05345
2.01714
1.98271
1.95079
1.9221
1.89728
1.87667
1.86016
1.84703
1.83601
1.82539
1.81307
1.7967
1.77376
1.74185
1.69915
1.64493
1.58007
1.5072
1.4304
1.35444
1.28394
1.22184
1.17322
1.11802
2.72098
2.70308
2.68522
2.66745
2.64979
2.63226
2.61491
2.59777
2.58089
2.56432
2.54811
2.53232
2.517
2.50221
2.488
2.47445
2.46161
2.44954
2.43831
2.42798
2.41864
2.41035
2.4032
2.39727
2.39267
2.3895
2.38787
2.38791
2.38973
2.39346
2.39923
2.40716
2.41734
2.42985
2.44474
2.46199
2.48156
2.50331
2.52706
2.5525
2.57926
2.60686
2.63473
2.66224
2.68867
2.71329
2.73537
2.75423
2.76925
2.77994
2.78593
2.78698
2.78303
2.77412
2.76043
2.74224
2.71991
2.69384
2.66446
2.63224
2.59762
2.56102
2.52284
2.48345
2.44319
2.40234
2.36117
2.3199
2.27871
2.23777
2.19722
2.15717
2.11771
2.07893
2.04097
2.00398
1.96826
1.93425
1.90257
1.87394
1.84908
1.82843
1.81195
1.79907
1.7886
1.77894
1.76811
1.75392
1.73399
1.706
1.66806
1.61924
1.56003
1.49261
1.42061
1.34848
1.28073
1.22031
1.17254
1.11755
2.72092
2.703
2.68513
2.66732
2.64961
2.63201
2.61456
2.5973
2.58026
2.56349
2.54703
2.53093
2.51524
2.50003
2.48534
2.47123
2.45776
2.445
2.433
2.42184
2.41158
2.40231
2.39409
2.38703
2.38121
2.37672
2.37367
2.37218
2.37235
2.37429
2.37812
2.38393
2.39181
2.40182
2.414
2.42833
2.44476
2.46319
2.48342
2.50521
2.52822
2.55205
2.57619
2.60009
2.62313
2.64467
2.66406
2.68068
2.69397
2.70345
2.70876
2.70963
2.70597
2.69775
2.68511
2.66825
2.64745
2.62307
2.5955
2.56512
2.53235
2.49759
2.46121
2.42356
2.38496
2.34571
2.30604
2.26619
2.22635
2.18668
2.14732
2.10838
2.06997
2.03218
1.99511
1.95893
1.92389
1.89041
1.85909
1.83066
1.80587
1.78523
1.76882
1.75614
1.74609
1.73714
1.72743
1.7149
1.69732
1.67251
1.63858
1.59444
1.54029
1.47788
1.41043
1.34204
1.27704
1.21839
1.17157
1.11691
2.72087
2.70293
2.68504
2.6672
2.64944
2.63178
2.61425
2.59688
2.5797
2.56275
2.54607
2.52971
2.51371
2.49813
2.48301
2.46842
2.4544
2.44102
2.42834
2.41643
2.40535
2.39518
2.386
2.37789
2.37093
2.36522
2.36085
2.35793
2.35656
2.35682
2.35883
2.36267
2.36841
2.3761
2.38577
2.39741
2.41097
2.42634
2.44336
2.46182
2.48142
2.5018
2.52254
2.54315
2.56309
2.5818
2.5987
2.61323
2.62487
2.63318
2.63778
2.63841
2.63492
2.62726
2.6155
2.59978
2.58035
2.55749
2.53153
2.50284
2.47178
2.43872
2.40402
2.368
2.33097
2.29322
2.255
2.21652
2.17797
2.13953
2.10133
2.0635
2.02613
1.98932
1.95317
1.91782
1.88352
1.85064
1.81976
1.79162
1.76699
1.74645
1.73015
1.71766
1.70797
1.69958
1.69072
1.67945
1.66372
1.64146
1.61086
1.57075
1.52107
1.46323
1.40003
1.33524
1.27297
1.21614
1.17035
1.11613
2.7208
2.70285
2.68493
2.66707
2.64926
2.63155
2.61394
2.59647
2.57917
2.56207
2.5452
2.52861
2.51234
2.49643
2.48094
2.46591
2.45141
2.43748
2.42419
2.4116
2.39978
2.3888
2.37874
2.36966
2.36167
2.35483
2.34924
2.345
2.34219
2.34091
2.34123
2.34324
2.347
2.35255
2.35991
2.36907
2.37998
2.39256
2.40665
2.42206
2.43854
2.45579
2.47342
2.49102
2.50812
2.52422
2.53882
2.55139
2.56148
2.56864
2.57252
2.57284
2.56943
2.56221
2.55119
2.53648
2.51825
2.49674
2.47225
2.44509
2.41561
2.38412
2.35097
2.31648
2.28094
2.24462
2.20776
2.17059
2.13329
2.09604
2.05897
2.02221
1.98586
1.95002
1.91479
1.88029
1.84674
1.81451
1.78413
1.75634
1.73194
1.71155
1.6954
1.68313
1.67376
1.66586
1.65769
1.6474
1.6331
1.61287
1.58501
1.54832
1.50258
1.44885
1.3896
1.32823
1.26862
1.21364
1.16894
1.11525
2.72073
2.70276
2.68482
2.66692
2.64908
2.63131
2.61364
2.59608
2.57867
2.56143
2.54439
2.5276
2.51109
2.49489
2.47907
2.46366
2.44872
2.4343
2.42047
2.40727
2.39478
2.38307
2.3722
2.36225
2.3533
2.34543
2.33872
2.33326
2.32913
2.32641
2.32518
2.3255
2.32744
2.33101
2.33625
2.34314
2.35163
2.36163
2.37304
2.38567
2.39931
2.41368
2.42848
2.44332
2.45782
2.47152
2.48397
2.49472
2.50332
2.50938
2.51254
2.51251
2.50912
2.50223
2.49183
2.47798
2.46081
2.44052
2.41735
2.39159
2.36355
2.33352
2.30182
2.26876
2.23461
2.19965
2.16409
2.12817
2.09208
2.05597
2.02
1.98428
1.94893
1.91404
1.87971
1.84605
1.81327
1.78169
1.75185
1.72445
1.70031
1.68011
1.66415
1.65211
1.64308
1.63562
1.62804
1.61856
1.60538
1.58678
1.56115
1.52734
1.485
1.43496
1.37931
1.32115
1.26411
1.21095
1.16737
1.11429
2.72065
2.70267
2.6847
2.66677
2.64889
2.63108
2.61334
2.5957
2.57819
2.56082
2.54364
2.52666
2.50993
2.49349
2.47737
2.46162
2.44629
2.43144
2.41711
2.40337
2.39028
2.3779
2.3663
2.35555
2.34573
2.33692
2.32918
2.3226
2.31725
2.31322
2.31055
2.30933
2.30958
2.31135
2.31464
2.31944
2.3257
2.33337
2.34232
2.3524
2.36344
2.37519
2.38738
2.39971
2.4118
2.42328
2.43375
2.44279
2.45
2.45499
2.45743
2.45704
2.45359
2.44695
2.43707
2.42397
2.40773
2.38853
2.36656
2.34208
2.31536
2.28668
2.25634
2.22462
2.19179
2.15811
2.1238
2.08909
2.05415
2.01915
1.98424
1.94954
1.91516
1.8812
1.84775
1.81492
1.7829
1.75199
1.72268
1.6957
1.67184
1.65185
1.63608
1.6243
1.61561
1.6086
1.60156
1.59276
1.5805
1.56318
1.53937
1.50796
1.46855
1.42175
1.36936
1.31418
1.25958
1.20819
1.16573
1.11331
2.72056
2.70256
2.68457
2.66662
2.6487
2.63083
2.61304
2.59533
2.57772
2.56024
2.54292
2.52579
2.50886
2.49219
2.47581
2.45976
2.44409
2.42885
2.41408
2.39985
2.38621
2.37323
2.36097
2.3495
2.33889
2.32921
2.32053
2.31293
2.30647
2.30122
2.29725
2.2946
2.29331
2.29342
2.29492
2.29781
2.30204
2.30756
2.31426
2.32202
2.33067
2.34002
2.34983
2.35983
2.36972
2.37915
2.38778
2.39523
2.40112
2.4051
2.40684
2.40605
2.40251
2.39606
2.38661
2.37416
2.35875
2.34052
2.31963
2.29632
2.27082
2.24339
2.21432
2.18387
2.1523
2.11984
2.08674
2.05319
2.01937
1.98546
1.95159
1.91789
1.88446
1.85141
1.81882
1.78681
1.75553
1.72527
1.69651
1.66993
1.64637
1.62658
1.61101
1.59947
1.59113
1.58457
1.57806
1.56988
1.55839
1.54212
1.51978
1.49036
1.45342
1.40945
1.35998
1.3075
1.25517