/*--------------------------------*- C++ -*----------------------------------*\
  =========                 |
  \\      /  F ield         | OpenFOAM: The Open Source CFD Toolbox
   \\    /   O peration     | Website:  https://openfoam.org
    \\  /    A nd           | Version:  10
     \\/     M anipulation  |
\*---------------------------------------------------------------------------*/
FoamFile
{
    format      ascii;
    class       volScalarField;
    location    "0.075";
    object      k;
}
// * * * * * * * * * * * * * * * * * * * * * * * * * * * * * * * * * * * * * //

dimensions      [0 2 -2 0 0 0 0];

internalField   nonuniform List<scalar> 
6820
(
0.196709
0.190616
0.184994
0.179724
0.174797
0.170249
0.166114
0.162407
0.159125
0.15625
0.153754
0.151606
0.149774
0.148227
0.146933
0.145867
0.145002
0.144317
0.14379
0.143404
0.143141
0.142989
0.142934
0.142964
0.143069
0.143242
0.14347
0.14377
0.144023
0.144762
0.143457
0.151954
0.114727
0.201954
0.200832
0.197543
0.193922
0.190841
0.188586
0.187159
0.186438
0.186274
0.186535
0.187116
0.187935
0.188934
0.190066
0.1913
0.192608
0.193972
0.195376
0.196807
0.198255
0.199714
0.201177
0.202641
0.204104
0.205567
0.20703
0.208502
0.20999
0.211521
0.213177
0.214798
0.217753
0.218558
0.200488
0.200474
0.199117
0.19707
0.194841
0.19269
0.190725
0.188986
0.18749
0.186234
0.18521
0.184401
0.183788
0.183351
0.183072
0.182932
0.182914
0.183003
0.183187
0.183452
0.183788
0.184187
0.184641
0.185143
0.185688
0.186272
0.186892
0.18755
0.188242
0.188997
0.189756
0.190667
0.191385
0.199662
0.199121
0.198219
0.196983
0.195545
0.194012
0.192458
0.190931
0.189462
0.188073
0.186776
0.185577
0.18448
0.183483
0.182586
0.181783
0.18107
0.180442
0.179892
0.179417
0.179009
0.178665
0.178379
0.178148
0.177967
0.177834
0.177746
0.177702
0.177702
0.177752
0.177843
0.177998
0.178191
0.199429
0.198466
0.197531
0.196512
0.195399
0.194214
0.192986
0.191739
0.190494
0.189266
0.188067
0.186907
0.185791
0.184725
0.183711
0.18275
0.181844
0.180991
0.18019
0.17944
0.17874
0.178087
0.177479
0.176915
0.176393
0.17591
0.175467
0.175061
0.174693
0.174363
0.17407
0.173817
0.173597
0.199398
0.198268
0.197202
0.196166
0.195133
0.194088
0.193028
0.191958
0.190883
0.189811
0.188749
0.187702
0.186676
0.185674
0.1847
0.183756
0.182845
0.181966
0.18112
0.180308
0.17953
0.178785
0.178073
0.177393
0.176744
0.176126
0.175538
0.17498
0.174452
0.173953
0.173483
0.173043
0.172631
0.199395
0.19822
0.197098
0.196021
0.194978
0.193957
0.192952
0.191958
0.190972
0.189996
0.18903
0.188077
0.187138
0.186215
0.18531
0.184426
0.183562
0.18272
0.181901
0.181105
0.180334
0.179586
0.178862
0.178161
0.177485
0.176832
0.176202
0.175595
0.175011
0.174451
0.173913
0.173399
0.172907
0.199395
0.198211
0.197069
0.195969
0.194908
0.193881
0.192884
0.191911
0.19096
0.190028
0.189114
0.188216
0.187334
0.186469
0.185621
0.18479
0.183977
0.183181
0.182404
0.181645
0.180905
0.180184
0.179481
0.178798
0.178133
0.177487
0.17686
0.176251
0.17566
0.175089
0.174536
0.174002
0.173486
0.199395
0.198209
0.197063
0.195955
0.194884
0.193849
0.192848
0.191877
0.190933
0.190016
0.189122
0.18825
0.187398
0.186566
0.185752
0.184957
0.18418
0.183421
0.182678
0.181953
0.181245
0.180554
0.179879
0.179221
0.178579
0.177954
0.177344
0.176751
0.176174
0.175612
0.175067
0.174537
0.174024
0.199395
0.198209
0.197061
0.195951
0.194877
0.193838
0.192833
0.191859
0.190916
0.19
0.189112
0.188249
0.187409
0.186591
0.185795
0.18502
0.184263
0.183526
0.182806
0.182105
0.18142
0.180752
0.1801
0.179464
0.178843
0.178238
0.177648
0.177073
0.176513
0.175967
0.175436
0.17492
0.174418
0.199395
0.198209
0.197061
0.19595
0.194875
0.193834
0.192827
0.191852
0.190907
0.189991
0.189103
0.188241
0.187405
0.186593
0.185804
0.185036
0.18429
0.183563
0.182856
0.182167
0.181496
0.180843
0.180206
0.179585
0.17898
0.17839
0.177815
0.177255
0.176709
0.176178
0.175661
0.175157
0.174668
0.199395
0.198209
0.19706
0.195949
0.194874
0.193833
0.192825
0.191848
0.190903
0.189986
0.189098
0.188236
0.1874
0.186589
0.185802
0.185037
0.184295
0.183573
0.182871
0.182188
0.181524
0.180878
0.180249
0.179637
0.179041
0.178461
0.177896
0.177345
0.17681
0.176288
0.175781
0.175288
0.174808
0.199395
0.198209
0.19706
0.195949
0.194873
0.193832
0.192824
0.191847
0.190901
0.189984
0.189095
0.188233
0.187397
0.186586
0.185799
0.185035
0.184293
0.183573
0.182873
0.182193
0.181532
0.180889
0.180264
0.179656
0.179064
0.178489
0.177929
0.177385
0.176855
0.176339
0.175838
0.175351
0.174878
0.199395
0.198209
0.19706
0.195949
0.194873
0.193831
0.192823
0.191846
0.190899
0.189982
0.189093
0.188231
0.187394
0.186583
0.185796
0.185032
0.184291
0.183571
0.182871
0.182192
0.181532
0.18089
0.180267
0.179661
0.179071
0.178498
0.177941
0.177399
0.176872
0.17636
0.175862
0.175379
0.174909
0.199395
0.198208
0.19706
0.195948
0.194872
0.193831
0.192822
0.191845
0.190898
0.189981
0.189091
0.188229
0.187393
0.186581
0.185794
0.18503
0.184289
0.183568
0.182869
0.18219
0.18153
0.180889
0.180266
0.179661
0.179072
0.1785
0.177944
0.177403
0.176878
0.176367
0.175871
0.175389
0.174921
0.199395
0.198208
0.19706
0.195948
0.194872
0.19383
0.192822
0.191844
0.190898
0.18998
0.18909
0.188228
0.187391
0.18658
0.185793
0.185028
0.184287
0.183567
0.182867
0.182188
0.181528
0.180887
0.180265
0.179659
0.179071
0.178499
0.177944
0.177404
0.176879
0.176369
0.175873
0.175392
0.174924
0.199395
0.198208
0.19706
0.195948
0.194872
0.19383
0.192821
0.191844
0.190897
0.189979
0.189089
0.188227
0.18739
0.186579
0.185791
0.185027
0.184285
0.183565
0.182866
0.182186
0.181527
0.180886
0.180263
0.179658
0.17907
0.178498
0.177943
0.177403
0.176878
0.176368
0.175873
0.175392
0.174925
0.199395
0.198208
0.19706
0.195948
0.194872
0.19383
0.192821
0.191843
0.190896
0.189978
0.189089
0.188226
0.187389
0.186578
0.18579
0.185026
0.184284
0.183564
0.182864
0.182185
0.181525
0.180884
0.180262
0.179656
0.179068
0.178497
0.177942
0.177402
0.176877
0.176368
0.175872
0.175391
0.174924
0.199395
0.198208
0.197059
0.195948
0.194871
0.193829
0.19282
0.191843
0.190896
0.189978
0.189088
0.188225
0.187388
0.186577
0.185789
0.185025
0.184283
0.183562
0.182863
0.182184
0.181524
0.180883
0.18026
0.179655
0.179067
0.178496
0.177941
0.177401
0.176876
0.176367
0.175871
0.17539
0.174923
0.199395
0.198208
0.197059
0.195948
0.194871
0.193829
0.19282
0.191842
0.190895
0.189977
0.189087
0.188224
0.187388
0.186576
0.185788
0.185024
0.184282
0.183561
0.182862
0.182183
0.181523
0.180882
0.180259
0.179654
0.179066
0.178495
0.177939
0.1774
0.176875
0.176365
0.17587
0.175389
0.174921
0.199395
0.198208
0.197059
0.195947
0.194871
0.193829
0.19282
0.191842
0.190895
0.189977
0.189087
0.188224
0.187387
0.186575
0.185787
0.185023
0.184281
0.18356
0.182861
0.182181
0.181522
0.180881
0.180258
0.179653
0.179065
0.178493
0.177938
0.177398
0.176874
0.176364
0.175868
0.175387
0.174919
0.199395
0.198208
0.197059
0.195947
0.194871
0.193829
0.19282
0.191842
0.190894
0.189976
0.189086
0.188223
0.187386
0.186574
0.185786
0.185022
0.18428
0.183559
0.18286
0.182181
0.181521
0.18088
0.180257
0.179652
0.179064
0.178492
0.177937
0.177397
0.176872
0.176362
0.175867
0.175385
0.174917
0.199395
0.198208
0.197059
0.195947
0.194871
0.193829
0.192819
0.191842
0.190894
0.189976
0.189086
0.188223
0.187386
0.186574
0.185786
0.185021
0.184279
0.183559
0.182859
0.18218
0.18152
0.180879
0.180256
0.179651
0.179063
0.178491
0.177935
0.177396
0.176871
0.17636
0.175865
0.175383
0.174914
0.199395
0.198208
0.197059
0.195947
0.194871
0.193829
0.192819
0.191841
0.190894
0.189976
0.189086
0.188222
0.187385
0.186573
0.185785
0.185021
0.184278
0.183558
0.182858
0.182179
0.181519
0.180878
0.180255
0.17965
0.179061
0.17849
0.177934
0.177394
0.176869
0.176359
0.175862
0.17538
0.174911
0.199395
0.198208
0.197059
0.195947
0.194871
0.193829
0.192819
0.191841
0.190894
0.189975
0.189085
0.188222
0.187385
0.186573
0.185785
0.18502
0.184278
0.183557
0.182857
0.182178
0.181518
0.180877
0.180254
0.179648
0.17906
0.178488
0.177932
0.177392
0.176867
0.176356
0.17586
0.175377
0.174908
0.199395
0.198208
0.197059
0.195947
0.194871
0.193828
0.192819
0.191841
0.190894
0.189975
0.189085
0.188222
0.187385
0.186572
0.185784
0.18502
0.184277
0.183557
0.182857
0.182177
0.181517
0.180876
0.180253
0.179647
0.179059
0.178487
0.177931
0.17739
0.176865
0.176354
0.175857
0.175374
0.174905
0.199395
0.198208
0.197059
0.195947
0.194871
0.193828
0.192819
0.191841
0.190893
0.189975
0.189085
0.188221
0.187384
0.186572
0.185784
0.185019
0.184277
0.183556
0.182856
0.182177
0.181516
0.180875
0.180252
0.179646
0.179058
0.178485
0.177929
0.177389
0.176863
0.176352
0.175855
0.175371
0.174901
0.199395
0.198208
0.197059
0.195947
0.194871
0.193828
0.192819
0.191841
0.190893
0.189975
0.189085
0.188221
0.187384
0.186572
0.185784
0.185019
0.184277
0.183556
0.182856
0.182176
0.181516
0.180874
0.180251
0.179645
0.179056
0.178484
0.177928
0.177387
0.176861
0.176349
0.175852
0.175368
0.174898
0.199395
0.198208
0.197059
0.195947
0.194871
0.193828
0.192819
0.191841
0.190893
0.189975
0.189084
0.188221
0.187384
0.186572
0.185783
0.185019
0.184276
0.183555
0.182855
0.182175
0.181515
0.180873
0.18025
0.179644
0.179055
0.178483
0.177926
0.177385
0.176859
0.176347
0.175849
0.175365
0.174894
0.199395
0.198208
0.197059
0.195947
0.194871
0.193829
0.192819
0.191841
0.190894
0.189975
0.189085
0.188222
0.187384
0.186572
0.185784
0.185019
0.184277
0.183556
0.182856
0.182176
0.181515
0.180873
0.18025
0.179644
0.179055
0.178482
0.177925
0.177384
0.176857
0.176345
0.175847
0.175362
0.174891
0.199395
0.198208
0.197059
0.195947
0.194871
0.193828
0.192819
0.191841
0.190893
0.189975
0.189085
0.188221
0.187384
0.186572
0.185784
0.185019
0.184276
0.183555
0.182855
0.182175
0.181515
0.180873
0.180249
0.179643
0.179054
0.178481
0.177924
0.177383
0.176856
0.176343
0.175845
0.17536
0.174888
0.199395
0.198208
0.197059
0.195948
0.194871
0.19383
0.19282
0.191843
0.190896
0.189977
0.189087
0.188224
0.187387
0.186575
0.185786
0.185021
0.184279
0.183558
0.182858
0.182178
0.181517
0.180875
0.180251
0.179645
0.179056
0.178482
0.177925
0.177383
0.176856
0.176343
0.175844
0.175359
0.174886
0.199395
0.198209
0.19706
0.195949
0.194872
0.19383
0.192821
0.191843
0.190896
0.189978
0.189088
0.188225
0.187387
0.186575
0.185787
0.185023
0.18428
0.183559
0.182859
0.182179
0.181519
0.180877
0.180253
0.179646
0.179056
0.178483
0.177925
0.177382
0.176855
0.176341
0.175841
0.175355
0.174882
0.199395
0.198208
0.19706
0.19595
0.194876
0.193835
0.192828
0.191851
0.190905
0.189987
0.189098
0.188235
0.187398
0.186586
0.185797
0.185032
0.184289
0.183568
0.182867
0.182186
0.181524
0.180881
0.180256
0.179648
0.179056
0.178481
0.177921
0.177376
0.176846
0.17633
0.175828
0.175339
0.174863
0.199395
0.198212
0.197066
0.195957
0.194882
0.193842
0.192834
0.191857
0.190911
0.189994
0.189104
0.188241
0.187404
0.186591
0.185802
0.185036
0.184291
0.183567
0.182864
0.18218
0.181514
0.180867
0.180237
0.179624
0.179027
0.178446
0.17788
0.177329
0.176792
0.176269
0.175759
0.175262
0.174778
0.199396
0.198213
0.197071
0.195969
0.194902
0.193869
0.192866
0.191893
0.190948
0.190029
0.189137
0.18827
0.187427
0.186607
0.185809
0.185033
0.184278
0.183542
0.182826
0.182128
0.181448
0.180785
0.18014
0.17951
0.178896
0.178298
0.177714
0.177145
0.176589
0.176047
0.175518
0.175001
0.174497
0.199402
0.19824
0.197114
0.196018
0.194952
0.193916
0.192908
0.191927
0.190972
0.19004
0.189132
0.188245
0.187381
0.186537
0.185713
0.184909
0.184124
0.183358
0.182611
0.181881
0.181168
0.180472
0.179793
0.179129
0.178481
0.177848
0.177229
0.176624
0.176034
0.175456
0.174892
0.17434
0.173801
0.199421
0.198284
0.197214
0.196182
0.195158
0.194136
0.193119
0.192111
0.191118
0.190143
0.189189
0.188257
0.187349
0.186463
0.185601
0.184761
0.183942
0.183144
0.182367
0.181608
0.180868
0.180146
0.179442
0.178754
0.178082
0.177426
0.176785
0.176158
0.175546
0.174948
0.174364
0.173793
0.173234
0.199655
0.198884
0.198077
0.197302
0.196603
0.195975
0.195404
0.194879
0.194395
0.193949
0.193538
0.193163
0.192821
0.192512
0.192235
0.191989
0.191772
0.191583
0.19142
0.191283
0.191169
0.191078
0.191009
0.19096
0.190931
0.190921
0.190928
0.190953
0.190994
0.191051
0.191124
0.191213
0.191315
0.205419
0.216602
0.227661
0.238502
0.249093
0.259416
0.269459
0.279213
0.288668
0.29782
0.306662
0.315194
0.323414
0.331324
0.338925
0.346222
0.35322
0.359924
0.366341
0.372477
0.378341
0.38394
0.389283
0.394377
0.399233
0.403858
0.40826
0.412449
0.416433
0.42022
0.423818
0.427234
0.43048
0.321371
0.63748
0.984288
1.32774
1.63468
1.87761
2.0446
2.14014
2.18065
2.18731
2.17798
2.16373
2.14988
2.13869
2.1314
2.12903
2.13242
2.14208
2.15772
2.17855
2.20325
2.23004
2.25667
2.28054
2.29867
2.30785
2.30462
2.28541
2.24656
2.18443
2.09551
1.97664
1.82543
1.64091
1.42479
1.18331
0.92985
0.686812
0.48321
0.343129
0.269776
0.244049
0.242763
0.251558
0.263706
0.276144
0.287397
0.296765
0.303997
0.30913
0.312369
0.314006
0.314352
0.313705
0.312328
0.310444
0.308234
0.305847
0.3034
0.300987
0.298682
0.296543
0.294616
0.292932
0.291514
0.290374
0.289512
0.288917
0.288568
0.288432
0.288466
0.288617
0.28882
0.289
0.289071
0.288933
0.288476
0.287582
0.286126
0.283983
0.281027
0.27714
0.272204
0.266107
0.258747
0.250044
0.239967
0.228559
0.215973
0.202494
0.188541
0.174638
0.161359
0.149243
0.13871
0.129993
0.123126
0.117924
0.114291
0.110706
0.230509
0.259835
0.308587
0.382832
0.489077
0.630934
0.805727
1.00226
1.20239
1.38645
1.53975
1.6563
1.73843
1.79352
1.83022
1.85587
1.87568
1.89253
1.90821
1.92349
1.93837
1.95221
1.96371
1.97096
1.9715
1.96248
1.94077
1.9031
1.84617
1.76687
1.66252
1.53133
1.37307
1.19011
0.988906
0.781604
0.58661
0.425635
0.315036
0.255673
0.233292
0.230976
0.237798
0.24831
0.259831
0.270905
0.280705
0.288799
0.295036
0.299463
0.302252
0.303641
0.303888
0.303243
0.301929
0.300137
0.298027
0.295732
0.293357
0.290989
0.288697
0.286537
0.284554
0.282783
0.28125
0.27997
0.27895
0.278189
0.277672
0.277378
0.277271
0.27731
0.27744
0.277596
0.2777
0.277662
0.277377
0.276731
0.2756
0.273857
0.271373
0.268025
0.263691
0.258254
0.251606
0.243662
0.234379
0.223787
0.212017
0.199332
0.186121
0.172885
0.160174
0.148514
0.138322
0.129841
0.123121
0.118
0.114405
0.110831
0.192255
0.194651
0.199794
0.209065
0.224323
0.248327
0.285097
0.339738
0.416979
0.518634
0.641653
0.778235
0.917887
1.05025
1.16751
1.26551
1.34378
1.40386
1.44838
1.481
1.50461
1.5207
1.52956
1.53047
1.5221
1.50261
1.46987
1.42161
1.35568
1.27035
1.16482
1.03982
0.898483
0.747205
0.596289
0.459306
0.350019
0.276677
0.237322
0.222079
0.220573
0.226087
0.234995
0.245271
0.255663
0.265354
0.273829
0.280805
0.286185
0.290015
0.292432
0.293629
0.293816
0.293198
0.291965
0.290281
0.288286
0.286096
0.283809
0.281502
0.27924
0.277077
0.275057
0.273215
0.271577
0.270166
0.268992
0.26806
0.267364
0.266891
0.266617
0.266509
0.266523
0.266607
0.266692
0.266699
0.266532
0.26608
0.265225
0.263839
0.261792
0.258955
0.255203
0.250414
0.244475
0.237294
0.228815
0.219052
0.208116
0.196241
0.183787
0.171226
0.159085
0.147876
0.138015
0.129755
0.123166
0.11811
0.11454
0.110965
0.178432
0.178869
0.179611
0.180831
0.18284
0.186129
0.191471
0.199958
0.212968
0.232324
0.260381
0.299554
0.351304
0.415242
0.488903
0.568272
0.648555
0.725719
0.796069
0.856179
0.904052
0.939039
0.961286
0.971128
0.968697
0.953771
0.925848
0.884374
0.829075
0.760377
0.679896
0.590919
0.498735
0.410476
0.334037
0.275819
0.238092
0.218187
0.21081
0.211159
0.216082
0.223656
0.232605
0.242001
0.251151
0.259548
0.266848
0.272857
0.277507
0.280835
0.282948
0.283996
0.28415
0.283578
0.282439
0.280873
0.279002
0.276929
0.27474
0.272509
0.270294
0.268147
0.266108
0.264212
0.262489
0.260961
0.259643
0.258545
0.257669
0.257008
0.256548
0.256267
0.256133
0.256103
0.256122
0.256122
0.256016
0.255705
0.255073
0.253995
0.252341
0.24998
0.246782
0.242622
0.23738
0.230955
0.223282
0.214355
0.204262
0.193208
0.181521
0.169641
0.158071
0.14731
0.137772
0.129722
0.123251
0.118248
0.114693
0.111104
0.173364
0.173155
0.17306
0.173119
0.173376
0.173907
0.174836
0.176339
0.17863
0.182007
0.1869
0.193833
0.203413
0.216316
0.233145
0.254185
0.279174
0.307236
0.337797
0.369398
0.400032
0.427505
0.449766
0.465147
0.47247
0.471062
0.460735
0.441803
0.415146
0.382328
0.345682
0.30825
0.273446
0.244359
0.222903
0.209315
0.202471
0.200764
0.20279
0.207488
0.214035
0.221744
0.230022
0.238353
0.246308
0.253547
0.259832
0.26502
0.269057
0.271968
0.273833
0.274769
0.274911
0.274396
0.273357
0.271913
0.270171
0.26822
0.26614
0.263995
0.261841
0.259725
0.257686
0.255758
0.253969
0.252343
0.250898
0.249647
0.248597
0.24775
0.247098
0.246629
0.246321
0.246144
0.246056
0.246001
0.245905
0.245678
0.245214
0.244391
0.243082
0.241155
0.238476
0.234915
0.230348
0.224666
0.217789
0.209696
0.200448
0.190219
0.179303
0.168109
0.157112
0.146796
0.137575
0.129727
0.123366
0.118407
0.114859
0.111248
0.172182
0.171709
0.171286
0.170924
0.170636
0.170445
0.170387
0.170508
0.170872
0.171559
0.172646
0.174195
0.176272
0.178977
0.182444
0.186808
0.192153
0.198503
0.205421
0.212726
0.220171
0.227371
0.233812
0.238917
0.24213
0.24302
0.241365
0.237223
0.230959
0.223231
0.214916
0.206963
0.200218
0.195268
0.192387
0.1916
0.192783
0.195736
0.200207
0.205902
0.212499
0.219658
0.227036
0.234308
0.241184
0.247423
0.252849
0.25735
0.260879
0.263448
0.265114
0.265966
0.266111
0.26566
0.264723
0.263403
0.261789
0.259964
0.257996
0.255946
0.253864
0.251793
0.24977
0.247829
0.245995
0.244293
0.242741
0.241357
0.240149
0.239124
0.238283
0.23762
0.237125
0.236779
0.236551
0.236399
0.236265
0.23607
0.235718
0.235096
0.234079
0.232537
0.230333
0.227335
0.223413
0.218449
0.212352
0.205081
0.196671
0.187264
0.17712
0.166611
0.156188
0.146317
0.13741
0.129759
0.123501
0.118581
0.115033
0.111393
0.17236
0.171759
0.171186
0.17065
0.170157
0.169718
0.16934
0.169037
0.168826
0.168736
0.168805
0.169066
0.169543
0.170248
0.171187
0.172365
0.173793
0.175461
0.177239
0.179055
0.180845
0.18254
0.184054
0.185295
0.186173
0.186622
0.186616
0.186184
0.185425
0.184497
0.183604
0.182972
0.18282
0.183339
0.184671
0.186907
0.19008
0.194162
0.199068
0.204661
0.210759
0.217151
0.223613
0.229917
0.235857
0.241252
0.245962
0.249895
0.253006
0.255297
0.256806
0.257598
0.257758
0.257374
0.256539
0.255338
0.253852
0.252151
0.250298
0.248346
0.246343
0.244329
0.242338
0.2404
0.238541
0.236785
0.23515
0.233654
0.232309
0.231124
0.230105
0.229255
0.228569
0.22804
0.22765
0.22737
0.227156
0.226944
0.226651
0.226174
0.225394
0.224183
0.222406
0.219927
0.216611
0.212332
0.206987
0.200516
0.192929
0.184334
0.174955
0.165131
0.15528
0.145853
0.137261
0.129805
0.123648
0.118761
0.115211
0.111538
0.172908
0.172263
0.171633
0.171024
0.170442
0.169894
0.169388
0.168929
0.168524
0.168181
0.167913
0.167734
0.167662
0.167708
0.16788
0.168176
0.168593
0.169112
0.169698
0.170319
0.170947
0.171562
0.172145
0.172682
0.173165
0.173597
0.173991
0.174378
0.174806
0.175341
0.176065
0.17707
0.178448
0.180288
0.182663
0.185621
0.189183
0.193332
0.198013
0.203136
0.208576
0.214187
0.219807
0.225271
0.230419
0.235111
0.23923
0.242697
0.245468
0.247534
0.248918
0.24967
0.249851
0.249536
0.2488
0.247715
0.246352
0.244772
0.243032
0.241181
0.239262
0.237312
0.235364
0.233445
0.23158
0.229791
0.228096
0.226512
0.225053
0.223731
0.222554
0.221529
0.22066
0.219946
0.219382
0.218951
0.218624
0.218353
0.21807
0.217684
0.217085
0.216151
0.214746
0.212735
0.209978
0.206343
0.201714
0.196013
0.189225
0.181424
0.1728
0.163652
0.154372
0.14539
0.137112
0.129852
0.123795
0.118942
0.115388
0.111678
0.173445
0.172795
0.172153
0.171524
0.170914
0.170328
0.169774
0.169255
0.168777
0.168345
0.167964
0.167637
0.167374
0.167181
0.167066
0.167032
0.167082
0.16721
0.167406
0.167659
0.167957
0.168292
0.168659
0.169058
0.169495
0.16998
0.170534
0.171183
0.171962
0.172913
0.174087
0.175534
0.177309
0.179459
0.182022
0.185024
0.188468
0.192336
0.196586
0.201149
0.205934
0.210832
0.215722
0.220475
0.224964
0.229075
0.232709
0.235793
0.238285
0.240168
0.241455
0.242178
0.242388
0.24214
0.241498
0.240524
0.239277
0.237815
0.236185
0.234435
0.232603
0.230723
0.228827
0.226939
0.225083
0.223279
0.221546
0.219898
0.218351
0.216916
0.215604
0.214425
0.213388
0.212497
0.211758
0.211165
0.210703
0.21034
0.210025
0.20968
0.209207
0.208492
0.207403
0.205804
0.203554
0.200513
0.196556
0.191586
0.185563
0.178533
0.170645
0.162164
0.153449
0.144911
0.136949
0.129889
0.123935
0.119116
0.115558
0.111811
0.173851
0.173212
0.172578
0.171952
0.171339
0.170745
0.170175
0.169635
0.16913
0.168663
0.168239
0.167861
0.167533
0.167257
0.167038
0.166881
0.166788
0.166761
0.1668
0.166904
0.16707
0.167297
0.167586
0.167942
0.16837
0.168884
0.1695
0.170239
0.171129
0.1722
0.173486
0.175023
0.176844
0.178978
0.181447
0.184264
0.187426
0.190916
0.1947
0.198724
0.202919
0.2072
0.211473
0.215633
0.219577
0.223209
0.226442
0.229211
0.231472
0.233206
0.234414
0.235119
0.235357
0.235174
0.234621
0.233751
0.232616
0.231265
0.229743
0.228091
0.226347
0.224541
0.222702
0.220855
0.219021
0.217219
0.215466
0.213777
0.212166
0.210644
0.209223
0.207915
0.20673
0.20568
0.204774
0.204017
0.203409
0.202931
0.202549
0.202202
0.201805
0.201254
0.200423
0.199178
0.197376
0.194873
0.191535
0.187249
0.181953
0.17566
0.168485
0.160656
0.152499
0.144404
0.136762
0.129905
0.124059
0.119277
0.115718
0.111934
0.174114
0.17349
0.172869
0.172254
0.171649
0.171058
0.170488
0.169942
0.169426
0.168944
0.1685
0.168098
0.16774
0.167429
0.167167
0.166959
0.166806
0.166713
0.166681
0.166713
0.166812
0.16698
0.167223
0.167544
0.167953
0.168459
0.169076
0.169823
0.170719
0.171789
0.173055
0.174544
0.176279
0.178278
0.180557
0.18312
0.185965
0.189075
0.192424
0.195968
0.199655
0.203415
0.207171
0.210839
0.214332
0.217566
0.220466
0.222971
0.22504
0.226648
0.227791
0.228483
0.22875
0.228627
0.228157
0.227383
0.226352
0.225107
0.223688
0.222132
0.220475
0.218744
0.216968
0.215168
0.213366
0.211579
0.209823
0.208112
0.206459
0.204875
0.203372
0.201961
0.200654
0.199465
0.198409
0.197498
0.196741
0.196136
0.195663
0.195278
0.194914
0.194474
0.193845
0.192893
0.191479
0.189454
0.186677
0.183022
0.178405
0.17281
0.166319
0.159122
0.151513
0.143858
0.136539
0.129892
0.124159
0.119421
0.115864
0.112044
0.174265
0.173654
0.173044
0.17244
0.171843
0.171259
0.170691
0.170144
0.169623
0.169132
0.168675
0.168255
0.167876
0.167541
0.167253
0.167013
0.166825
0.166692
0.166617
0.166604
0.166657
0.166781
0.16698
0.167262
0.167633
0.168104
0.168686
0.169394
0.170244
0.171253
0.172441
0.173825
0.175423
0.177249
0.179312
0.181615
0.184155
0.186918
0.189882
0.193014
0.196268
0.19959
0.202915
0.206172
0.209287
0.212186
0.214805
0.217087
0.21899
0.22049
0.221577
0.222258
0.222551
0.222483
0.222088
0.221404
0.22047
0.219324
0.218002
0.21654
0.214967
0.213313
0.211601
0.209855
0.208092
0.206331
0.204585
0.202868
0.201192
0.199569
0.198007
0.196519
0.195117
0.193815
0.19263
0.191581
0.190684
0.189949
0.189371
0.188924
0.188554
0.188181
0.187699
0.186984
0.185895
0.184286
0.182007
0.178923
0.174932
0.169991
0.164149
0.15756
0.150486
0.143267
0.136272
0.129841
0.12423
0.119541
0.115991
0.11214
0.174343
0.173739
0.173138
0.172541
0.171951
0.171371
0.170805
0.170257
0.169731
0.169231
0.168761
0.168325
0.167927
0.167568
0.167253
0.166985
0.166765
0.166598
0.166485
0.166433
0.166443
0.166522
0.166675
0.166908
0.167229
0.167647
0.168172
0.168816
0.169591
0.170513
0.171596
0.172854
0.1743
0.175945
0.177796
0.179854
0.182117
0.184573
0.187204
0.189981
0.192869
0.19582
0.19878
0.201689
0.204482
0.207097
0.209473
0.211561
0.21332
0.214724
0.215761
0.21643
0.216745
0.216726
0.216399
0.215796
0.214951
0.213898
0.212669
0.211295
0.209805
0.208226
0.206581
0.20489
0.203173
0.201445
0.19972
0.198011
0.196329
0.194684
0.193086
0.191545
0.190073
0.188684
0.187395
0.186229
0.185207
0.184348
0.183661
0.183135
0.182732
0.182387
0.182007
0.181472
0.18065
0.179392
0.177547
0.174972
0.171549
0.167212
0.161978
0.15597
0.149414
0.142624
0.135956
0.129747
0.124266
0.119635
0.116097
0.11222
0.174378
0.173779
0.173182
0.172589
0.172002
0.171424
0.170857
0.170306
0.169774
0.169265
0.168782
0.168329
0.167909
0.167527
0.167185
0.166885
0.166632
0.166428
0.166277
0.166182
0.166148
0.166179
0.166281
0.16646
0.166723
0.167077
0.167532
0.168098
0.168787
0.16961
0.170578
0.171704
0.172998
0.174469
0.17612
0.177955
0.17997
0.182156
0.184496
0.186968
0.18954
0.192173
0.19482
0.197429
0.199945
0.202312
0.204477
0.206393
0.208022
0.209339
0.210327
0.210984
0.211316
0.211338
0.211072
0.210543
0.209779
0.208812
0.207669
0.206379
0.20497
0.203464
0.201885
0.200253
0.198584
0.196895
0.195199
0.193508
0.191832
0.190182
0.188566
0.186993
0.185474
0.184022
0.182655
0.181395
0.180268
0.179298
0.178507
0.177895
0.177442
0.177096
0.176776
0.176374
0.175761
0.174793
0.173319
0.171188
0.168272
0.164484
0.159816
0.154355
0.148298
0.141929
0.135587
0.129606
0.124263
0.119698
0.116179
0.112281
0.174391
0.173795
0.1732
0.172608
0.172022
0.171443
0.170874
0.170318
0.169779
0.169259
0.168762
0.168292
0.167851
0.167444
0.167073
0.166742
0.166454
0.166212
0.166019
0.16588
0.165799
0.165779
0.165826
0.165946
0.166146
0.166432
0.166812
0.167296
0.167893
0.168613
0.169466
0.170463
0.17161
0.172916
0.174385
0.176017
0.17781
0.179756
0.181841
0.184046
0.186342
0.188697
0.191071
0.193418
0.19569
0.197837
0.199813
0.201574
0.203085
0.204319
0.205261
0.205902
0.206246
0.206303
0.206089
0.205626
0.204936
0.204048
0.202985
0.201775
0.200442
0.199008
0.197494
0.195921
0.194303
0.192657
0.190996
0.18933
0.187671
0.186028
0.184408
0.18282
0.181275
0.179783
0.17836
0.17703
0.175818
0.174756
0.17387
0.173175
0.172662
0.172294
0.172004
0.171693
0.171239
0.170504
0.169337
0.167588
0.165116
0.161822
0.157672
0.152723
0.14714
0.141181
0.135164
0.129416
0.124219
0.119729
0.116237
0.112325
0.174396
0.1738
0.173205
0.172614
0.172026
0.171445
0.170872
0.170311
0.169763
0.169233
0.168722
0.168235
0.167773
0.167342
0.166943
0.166581
0.166257
0.165977
0.165743
0.165558
0.165428
0.165356
0.165347
0.165407
0.165542
0.165758
0.166062
0.166463
0.166968
0.167587
0.168328
0.1692
0.170209
0.171362
0.172662
0.17411
0.175703
0.177434
0.179292
0.181259
0.183312
0.185421
0.187552
0.189666
0.19172
0.19367
0.195474
0.197092
0.198493
0.199649
0.200543
0.201166
0.201517
0.201602
0.201433
0.201027
0.200405
0.199588
0.198601
0.197465
0.196204
0.194839
0.193389
0.191874
0.190309
0.188708
0.187085
0.185451
0.183816
0.182189
0.180577
0.178989
0.177432
0.175918
0.174461
0.173082
0.171809
0.170673
0.169707
0.168934
0.168359
0.167959
0.167675
0.167422
0.167085
0.166531
0.165615
0.164184
0.162097
0.159239
0.155557
0.151082
0.145948
0.140384
0.134688
0.129176
0.124133
0.119728
0.11627
0.11235
0.174396
0.1738
0.173206
0.172613
0.172024
0.17144
0.170863
0.170296
0.16974
0.169199
0.168675
0.168171
0.167691
0.167236
0.166811
0.166419
0.166062
0.165744
0.165469
0.165241
0.165063
0.164939
0.164875
0.164875
0.164946
0.165092
0.165322
0.165641
0.166057
0.166578
0.167212
0.167966
0.168845
0.169856
0.171001
0.17228
0.173691
0.175229
0.176882
0.178635
0.180469
0.182357
0.18427
0.186173
0.18803
0.1898
0.191446
0.192933
0.19423
0.195311
0.196157
0.196759
0.197111
0.197218
0.197087
0.196731
0.196169
0.195417
0.194498
0.193431
0.192238
0.190939
0.189552
0.188094
0.186581
0.185027
0.183446
0.181847
0.180241
0.178637
0.177042
0.175463
0.173908
0.172387
0.170913
0.169504
0.168188
0.166997
0.165967
0.165128
0.164496
0.164057
0.163766
0.163545
0.16329
0.162874
0.162156
0.160988
0.159226
0.156748
0.153485
0.149443
0.144729
0.139543
0.134162
0.128888
0.124006
0.119693
0.116276
0.112358
0.174395
0.173799
0.173203
0.17261
0.172018
0.171432
0.170851
0.170278
0.169715
0.169164
0.168628
0.168109
0.167611
0.167135
0.166686
0.166266
0.165878
0.165525
0.165212
0.164942
0.164718
0.164545
0.164428
0.164371
0.164379
0.164459
0.164616
0.164857
0.165188
0.165616
0.166149
0.166792
0.16755
0.168429
0.16943
0.170554
0.171799
0.173159
0.174626
0.176186
0.177821
0.179509
0.181224
0.182935
0.184611
0.186216
0.187716
0.18908
0.190278
0.191285
0.192083
0.19266
0.19301
0.193132
0.193032
0.19272
0.19221
0.191518
0.190661
0.189658
0.188529
0.187292
0.185964
0.184562
0.183101
0.181595
0.180056
0.178496
0.176923
0.175346
0.173774
0.172212
0.170669
0.169152
0.167674
0.166251
0.164909
0.16368
0.162602
0.16171
0.161027
0.16055
0.160243
0.160038
0.159839
0.159525
0.158961
0.158005
0.156514
0.154362
0.151468
0.147818
0.143493
0.138666
0.133591
0.128555
0.12384
0.119626
0.116259
0.112348
0.174394
0.173797
0.1732
0.172605
0.172012
0.171422
0.170838
0.170259
0.16969
0.16913
0.168583
0.168051
0.167536
0.167042
0.166571
0.166125
0.165709
0.165325
0.164977
0.164667
0.164401
0.164183
0.164015
0.163904
0.163854
0.16387
0.163959
0.164126
0.164376
0.164717
0.165154
0.165693
0.166339
0.167095
0.167963
0.168944
0.170037
0.171235
0.172531
0.173913
0.175367
0.176871
0.178405
0.179941
0.18145
0.182902
0.184267
0.185515
0.186618
0.187554
0.188304
0.188854
0.189196
0.189328
0.189253
0.188978
0.188514
0.187874
0.187074
0.18613
0.18506
0.183881
0.18261
0.181262
0.179852
0.178393
0.176898
0.175376
0.173839
0.172294
0.170749
0.16921
0.167686
0.166182
0.16471
0.163285
0.16193
0.160677
0.159566
0.158633
0.157909
0.157397
0.157071
0.156872
0.156709
0.156469
0.156024
0.155237
0.153968
0.152092
0.149519
0.146219
0.142251
0.137762
0.132982
0.128182
0.123635
0.119528
0.116217
0.112323
0.174392
0.173794
0.173197
0.1726
0.172005
0.171413
0.170825
0.170242
0.169665
0.169098
0.168541
0.167997
0.167468
0.166957
0.166466
0.165999
0.165557
0.165144
0.164764
0.164419
0.164114
0.163853
0.163639
0.163478
0.163373
0.163331
0.163355
0.163452
0.163627
0.163886
0.164235
0.164677
0.165217
0.16586
0.166605
0.167455
0.168406
0.169455
0.170594
0.171814
0.1731
0.174437
0.175803
0.177177
0.178533
0.179843
0.181081
0.18222
0.183233
0.184099
0.1848
0.18532
0.185651
0.185789
0.185733
0.185489
0.185064
0.18447
0.183721
0.182831
0.181816
0.180692
0.179474
0.178178
0.176817
0.175404
0.173952
0.172472
0.170971
0.16946
0.167945
0.166434
0.164933
0.163448
0.16199
0.160572
0.159215
0.157951
0.156817
0.155855
0.155097
0.154556
0.154212
0.154013
0.153874
0.153689