/*--------------------------------*- C++ -*----------------------------------*\
  =========                 |
  \\      /  F ield         | OpenFOAM: The Open Source CFD Toolbox
   \\    /   O peration     | Website:  https://openfoam.org
    \\  /    A nd           | Version:  10
     \\/     M anipulation  |
\*---------------------------------------------------------------------------*/
FoamFile
{
    format      ascii;
    class       volScalarField;
    location    "0.075";
    object      nut;
}
// * * * * * * * * * * * * * * * * * * * * * * * * * * * * * * * * * * * * * //

dimensions      [0 2 -1 0 0 0 0];

internalField   nonuniform List<scalar> 
6820
(
0.000149484
0.000144853
0.000140581
0.000136576
0.000132833
0.000129376
0.000126234
0.000123417
0.000120923
0.000118738
0.000116841
0.000115209
0.000113817
0.000112641
0.000111658
0.000110848
0.000110191
0.00010967
0.000109269
0.000108976
0.000108776
0.000108661
0.000108618
0.000108641
0.000108721
0.000108853
0.000109026
0.000109254
0.000109446
0.000110008
0.000109016
0.00011547
8.71927e-05
0.000729198
0.000532386
0.000448002
0.000399693
0.000368361
0.000346708
0.000331062
0.00031933
0.00031024
0.00030299
0.000297057
0.000292095
0.000287869
0.000284214
0.000281012
0.000278177
0.000275643
0.000273362
0.000271294
0.000269409
0.000267681
0.000266091
0.000264622
0.000263261
0.000261996
0.000260817
0.000259718
0.000258689
0.000257738
0.000256846
0.000256064
0.000255195
0.000256412
0.000976776
0.00087218
0.000781618
0.000711254
0.000657302
0.000615253
0.000581672
0.000554199
0.000531249
0.000511737
0.000494904
0.000480202
0.000467226
0.000455672
0.000445304
0.000435938
0.000427429
0.000419658
0.000412529
0.000405962
0.000399893
0.000394263
0.000389025
0.000384137
0.000379562
0.000375267
0.000371223
0.000367402
0.000363768
0.000360304
0.000356934
0.000353611
0.000350012
0.00101349
0.000988231
0.000949374
0.00090619
0.000864415
0.000826366
0.000792524
0.000762624
0.000736173
0.00071266
0.00069163
0.0006727
0.000655553
0.000639931
0.000625621
0.000612448
0.00060027
0.000588966
0.000578436
0.000568594
0.000559369
0.000550699
0.000542529
0.000534814
0.00052751
0.00052058
0.000513991
0.00050771
0.000501704
0.000495949
0.000490389
0.000485043
0.000479694
0.00101671
0.00101241
0.00100191
0.000985659
0.000965599
0.000943702
0.000921405
0.000899584
0.000878707
0.000858985
0.000840474
0.000823154
0.00080696
0.000791812
0.000777624
0.000764313
0.0007518
0.000740013
0.000728886
0.000718361
0.000708386
0.000698912
0.000689898
0.000681306
0.0006731
0.000665248
0.000657722
0.000650492
0.00064353
0.000636813
0.000630301
0.000623984
0.000617791
0.00101676
0.00101592
0.0010136
0.00100903
0.00100204
0.000992915
0.000982183
0.000970383
0.000957982
0.00094534
0.000932714
0.00092028
0.000908149
0.00089639
0.00088504
0.000874114
0.000863616
0.000853537
0.000843863
0.000834578
0.000825663
0.000817099
0.000808865
0.000800941
0.000793309
0.000785947
0.000778838
0.000771963
0.000765302
0.000758837
0.000752545
0.000746411
0.000740407
0.00101671
0.00101623
0.00101553
0.00101428
0.00101219
0.00100909
0.00100496
0.000999885
0.000994008
0.000987502
0.000980532
0.000973243
0.00096576
0.00095818
0.000950582
0.000943025
0.000935554
0.0009282
0.000920986
0.000913927
0.000907033
0.000900309
0.000893756
0.000887374
0.000881158
0.000875104
0.000869205
0.000863455
0.000857844
0.000852363
0.000847001
0.000841748
0.000836593
0.0010167
0.00101622
0.00101574
0.00101518
0.00101442
0.00101335
0.00101188
0.00100995
0.00100755
0.0010047
0.00100143
0.000997807
0.000993881
0.000989713
0.000985354
0.000980854
0.000976255
0.000971592
0.000966896
0.000962191
0.000957498
0.000952833
0.000948209
0.000943635
0.000939117
0.000934662
0.000930271
0.000925947
0.000921689
0.000917495
0.000913364
0.000909291
0.000905276
0.0010167
0.00101621
0.00101575
0.00101528
0.0010148
0.00101425
0.00101359
0.00101278
0.00101179
0.00101059
0.00100917
0.00100753
0.00100568
0.00100363
0.00100141
0.000999027
0.000996514
0.000993888
0.000991168
0.000988372
0.000985518
0.00098262
0.00097969
0.00097674
0.000973778
0.000970814
0.000967853
0.0009649
0.00096196
0.000959035
0.000956128
0.00095324
0.000950373
0.0010167
0.00101621
0.00101574
0.00101529
0.00101484
0.00101439
0.00101393
0.00101344
0.0010129
0.00101229
0.0010116
0.00101081
0.00100993
0.00100894
0.00100785
0.00100666
0.00100537
0.001004
0.00100254
0.00100101
0.000999412
0.000997759
0.000996057
0.000994312
0.000992531
0.000990721
0.000988887
0.000987034
0.000985167
0.000983289
0.000981404
0.000979514
0.000977624
0.0010167
0.00101621
0.00101574
0.00101528
0.00101484
0.0010144
0.00101398
0.00101356
0.00101313
0.00101269
0.00101224
0.00101176
0.00101124
0.00101069
0.00101009
0.00100945
0.00100877
0.00100803
0.00100725
0.00100642
0.00100555
0.00100463
0.00100368
0.0010027
0.00100168
0.00100063
0.000999555
0.000998458
0.000997341
0.000996207
0.000995059
0.0009939
0.000992732
0.0010167
0.00101621
0.00101574
0.00101528
0.00101484
0.0010144
0.00101398
0.00101357
0.00101317
0.00101277
0.00101238
0.00101199
0.00101159
0.00101118
0.00101077
0.00101034
0.0010099
0.00100944
0.00100896
0.00100847
0.00100795
0.00100741
0.00100686
0.00100628
0.00100568
0.00100507
0.00100444
0.00100379
0.00100313
0.00100246
0.00100178
0.00100108
0.00100038
0.0010167
0.00101621
0.00101574
0.00101528
0.00101483
0.0010144
0.00101398
0.00101357
0.00101317
0.00101278
0.0010124
0.00101203
0.00101166
0.0010113
0.00101094
0.00101059
0.00101023
0.00100987
0.00100951
0.00100915
0.00100878
0.00100841
0.00100803
0.00100764
0.00100725
0.00100685
0.00100645
0.00100604
0.00100562
0.0010052
0.00100477
0.00100434
0.00100391
0.0010167
0.00101621
0.00101574
0.00101528
0.00101483
0.0010144
0.00101398
0.00101357
0.00101317
0.00101278
0.0010124
0.00101203
0.00101167
0.00101132
0.00101098
0.00101064
0.00101031
0.00100999
0.00100967
0.00100935
0.00100903
0.00100872
0.00100841
0.00100811
0.0010078
0.00100749
0.00100719
0.00100689
0.00100658
0.00100628
0.00100598
0.00100568
0.00100538
0.0010167
0.00101621
0.00101574
0.00101528
0.00101483
0.0010144
0.00101398
0.00101357
0.00101317
0.00101278
0.0010124
0.00101203
0.00101167
0.00101132
0.00101098
0.00101065
0.00101033
0.00101001
0.0010097
0.0010094
0.0010091
0.00100881
0.00100852
0.00100824
0.00100797
0.0010077
0.00100743
0.00100717
0.00100692
0.00100666
0.00100642
0.00100618
0.00100594
0.0010167
0.00101621
0.00101574
0.00101528
0.00101483
0.0010144
0.00101397
0.00101356
0.00101316
0.00101278
0.0010124
0.00101203
0.00101167
0.00101132
0.00101098
0.00101065
0.00101033
0.00101001
0.0010097
0.00100941
0.00100911
0.00100883
0.00100855
0.00100828
0.00100801
0.00100776
0.0010075
0.00100726
0.00100702
0.00100679
0.00100656
0.00100634
0.00100613
0.0010167
0.00101621
0.00101574
0.00101528
0.00101483
0.0010144
0.00101397
0.00101356
0.00101316
0.00101277
0.00101239
0.00101203
0.00101167
0.00101132
0.00101098
0.00101065
0.00101032
0.00101001
0.0010097
0.0010094
0.00100911
0.00100883
0.00100856
0.00100829
0.00100802
0.00100777
0.00100752
0.00100728
0.00100705
0.00100682
0.0010066
0.00100639
0.00100619
0.0010167
0.00101621
0.00101574
0.00101528
0.00101483
0.0010144
0.00101397
0.00101356
0.00101316
0.00101277
0.00101239
0.00101202
0.00101167
0.00101132
0.00101098
0.00101064
0.00101032
0.00101001
0.0010097
0.0010094
0.00100911
0.00100883
0.00100855
0.00100829
0.00100803
0.00100777
0.00100753
0.00100729
0.00100705
0.00100683
0.00100661
0.0010064
0.0010062
0.0010167
0.00101621
0.00101574
0.00101528
0.00101483
0.00101439
0.00101397
0.00101356
0.00101316
0.00101277
0.00101239
0.00101202
0.00101166
0.00101131
0.00101097
0.00101064
0.00101032
0.00101001
0.0010097
0.0010094
0.00100911
0.00100883
0.00100855
0.00100829
0.00100802
0.00100777
0.00100753
0.00100729
0.00100705
0.00100683
0.00100661
0.0010064
0.0010062
0.0010167
0.00101621
0.00101574
0.00101528
0.00101483
0.00101439
0.00101397
0.00101356
0.00101316
0.00101277
0.00101239
0.00101202
0.00101166
0.00101131
0.00101097
0.00101064
0.00101032
0.00101
0.0010097
0.0010094
0.00100911
0.00100883
0.00100855
0.00100828
0.00100802
0.00100777
0.00100752
0.00100729
0.00100705
0.00100683
0.00100661
0.0010064
0.0010062
0.0010167
0.00101621
0.00101574
0.00101528
0.00101483
0.00101439
0.00101397
0.00101356
0.00101316
0.00101277
0.00101239
0.00101202
0.00101166
0.00101131
0.00101097
0.00101064
0.00101032
0.00101
0.0010097
0.0010094
0.00100911
0.00100883
0.00100855
0.00100828
0.00100802
0.00100777
0.00100752
0.00100728
0.00100705
0.00100683
0.00100661
0.0010064
0.0010062
0.0010167
0.00101621
0.00101574
0.00101528
0.00101483
0.00101439
0.00101397
0.00101356
0.00101316
0.00101277
0.00101239
0.00101202
0.00101166
0.00101131
0.00101097
0.00101064
0.00101032
0.00101
0.00100969
0.0010094
0.00100911
0.00100882
0.00100855
0.00100828
0.00100802
0.00100777
0.00100752
0.00100728
0.00100705
0.00100683
0.00100661
0.0010064
0.00100619
0.0010167
0.00101621
0.00101574
0.00101528
0.00101483
0.00101439
0.00101397
0.00101356
0.00101316
0.00101277
0.00101239
0.00101202
0.00101166
0.00101131
0.00101097
0.00101064
0.00101031
0.00101
0.00100969
0.0010094
0.0010091
0.00100882
0.00100855
0.00100828
0.00100802
0.00100777
0.00100752
0.00100728
0.00100705
0.00100682
0.0010066
0.00100639
0.00100619
0.0010167
0.00101621
0.00101574
0.00101528
0.00101483
0.00101439
0.00101397
0.00101356
0.00101316
0.00101277
0.00101239
0.00101202
0.00101166
0.00101131
0.00101097
0.00101064
0.00101031
0.00101
0.00100969
0.00100939
0.0010091
0.00100882
0.00100855
0.00100828
0.00100802
0.00100776
0.00100752
0.00100728
0.00100704
0.00100682
0.0010066
0.00100639
0.00100618
0.0010167
0.00101621
0.00101574
0.00101528
0.00101483
0.00101439
0.00101397
0.00101356
0.00101316
0.00101277
0.00101239
0.00101202
0.00101166
0.00101131
0.00101097
0.00101064
0.00101031
0.00101
0.00100969
0.00100939
0.0010091
0.00100882
0.00100854
0.00100828
0.00100801
0.00100776
0.00100751
0.00100727
0.00100704
0.00100681
0.00100659
0.00100638
0.00100618
0.0010167
0.00101621
0.00101574
0.00101528
0.00101483
0.00101439
0.00101397
0.00101356
0.00101316
0.00101277
0.00101239
0.00101202
0.00101166
0.00101131
0.00101097
0.00101063
0.00101031
0.00101
0.00100969
0.00100939
0.0010091
0.00100882
0.00100854
0.00100827
0.00100801
0.00100776
0.00100751
0.00100727
0.00100704
0.00100681
0.00100659
0.00100638
0.00100617
0.0010167
0.00101621
0.00101574
0.00101528
0.00101483
0.00101439
0.00101397
0.00101356
0.00101316
0.00101277
0.00101239
0.00101202
0.00101166
0.00101131
0.00101097
0.00101063
0.00101031
0.00101
0.00100969
0.00100939
0.0010091
0.00100882
0.00100854
0.00100827
0.00100801
0.00100776
0.00100751
0.00100727
0.00100703
0.00100681
0.00100658
0.00100637
0.00100616
0.0010167
0.00101621
0.00101574
0.00101528
0.00101483
0.00101439
0.00101397
0.00101356
0.00101316
0.00101277
0.00101239
0.00101202
0.00101166
0.00101131
0.00101097
0.00101063
0.00101031
0.00101
0.00100969
0.00100939
0.0010091
0.00100882
0.00100854
0.00100827
0.00100801
0.00100775
0.00100751
0.00100726
0.00100703
0.0010068
0.00100658
0.00100636
0.00100615
0.0010167
0.00101621
0.00101574
0.00101528
0.00101483
0.00101439
0.00101397
0.00101356
0.00101316
0.00101277
0.00101239
0.00101202
0.00101166
0.00101131
0.00101097
0.00101063
0.00101031
0.00100999
0.00100969
0.00100939
0.0010091
0.00100881
0.00100854
0.00100827
0.00100801
0.00100775
0.0010075
0.00100726
0.00100703
0.0010068
0.00100657
0.00100636
0.00100615
0.0010167
0.00101621
0.00101574
0.00101528
0.00101483
0.00101439
0.00101397
0.00101356
0.00101316
0.00101277
0.00101239
0.00101202
0.00101166
0.00101131
0.00101097
0.00101063
0.00101031
0.00101
0.00100969
0.00100939
0.0010091
0.00100881
0.00100854
0.00100827
0.00100801
0.00100775
0.0010075
0.00100726
0.00100702
0.00100679
0.00100657
0.00100635
0.00100614
0.0010167
0.00101621
0.00101574
0.00101528
0.00101483
0.00101439
0.00101397
0.00101356
0.00101316
0.00101277
0.00101239
0.00101202
0.00101166
0.00101131
0.00101097
0.00101064
0.00101031
0.00101
0.00100969
0.00100939
0.0010091
0.00100882
0.00100854
0.00100827
0.00100801
0.00100775
0.0010075
0.00100725
0.00100702
0.00100678
0.00100656
0.00100634
0.00100612
0.0010167
0.00101621
0.00101574
0.00101528
0.00101483
0.0010144
0.00101397
0.00101356
0.00101316
0.00101277
0.00101239
0.00101203
0.00101167
0.00101132
0.00101097
0.00101064
0.00101032
0.00101
0.00100969
0.00100939
0.0010091
0.00100881
0.00100853
0.00100826
0.00100799
0.00100773
0.00100748
0.00100723
0.00100699
0.00100675
0.00100651
0.00100629
0.00100606
0.0010167
0.00101621
0.00101574
0.00101528
0.00101483
0.0010144
0.00101398
0.00101357
0.00101317
0.00101278
0.0010124
0.00101203
0.00101167
0.00101132
0.00101097
0.00101064
0.00101031
0.00100999
0.00100967
0.00100936
0.00100906
0.00100876
0.00100846
0.00100817
0.00100789
0.00100761
0.00100733
0.00100706
0.00100679
0.00100652
0.00100626
0.001006
0.00100574
0.0010167
0.00101621
0.00101574
0.00101529
0.00101484
0.00101441
0.00101399
0.00101358
0.00101318
0.00101279
0.0010124
0.00101202
0.00101164
0.00101127
0.0010109
0.00101053
0.00101016
0.00100979
0.00100943
0.00100906
0.00100869
0.00100832
0.00100795
0.00100757
0.0010072
0.00100682
0.00100644
0.00100605
0.00100567
0.00100528
0.00100489
0.00100449
0.0010041
0.0010167
0.00101622
0.00101575
0.0010153
0.00101485
0.00101441
0.00101397
0.00101352
0.00101307
0.00101262
0.00101214
0.00101166
0.00101115
0.00101062
0.00101008
0.00100951
0.00100891
0.00100829
0.00100765
0.00100699
0.0010063
0.00100559
0.00100486
0.00100411
0.00100334
0.00100255
0.00100175
0.00100094
0.00100011
0.000999267
0.000998417
0.000997557
0.000996691
0.00101671
0.00101622
0.00101574
0.00101524
0.00101469
0.00101407
0.00101337
0.00101257
0.00101167
0.00101066
0.00100953
0.0010083
0.00100696
0.00100552
0.00100398
0.00100235
0.00100063
0.000998835
0.000996971
0.000995046
0.000993067
0.000991042
0.000988977
0.000986879
0.000984756
0.000982611
0.000980452
0.000978283
0.000976109
0.000973934
0.000971763
0.000969598
0.000967444
0.00101671
0.001016
0.00101487
0.00101325
0.00101112
0.00100846
0.00100531
0.00100167
0.000997602
0.000993145
0.000988356
0.000983288
0.000977992
0.000972516
0.000966905
0.000961197
0.000955427
0.000949626
0.000943819
0.00093803
0.000932278
0.00092658
0.000920948
0.000915396
0.000909931
0.000904563
0.000899296
0.000894137
0.000889089
0.000884155
0.000879336
0.000874636
0.000870053
0.0010153
0.00100705
0.000995495
0.000981384
0.000965347
0.000947995
0.000929886
0.00091147
0.000893081
0.000874957
0.000857263
0.00084011
0.000823564
0.000807661
0.000792416
0.000777829
0.000763888
0.000750575
0.000737869
0.000725745
0.000714176
0.000703136
0.000692598
0.000682537
0.000672928
0.000663748
0.000654972
0.00064658
0.00063855
0.000630865
0.000623504
0.000616452
0.00060969
0.000935927
0.000815562
0.000728204
0.000659326
0.0006025
0.000555303
0.000515839
0.00048252
0.000454097
0.000429605
0.000408303
0.000389619
0.000373108
0.00035842
0.000345275
0.000333451
0.000322763
0.000313062
0.000304223
0.000296143
0.000288731
0.000281914
0.000275626
0.000269813
0.000264425
0.000259421
0.000254764
0.000250421
0.000246364
0.000242568
0.000239009
0.000235667
0.000232525
0.000125477
0.000128847
0.000132096
0.000135204
0.000138173
0.000141007
0.000143711
0.000146289
0.000148745
0.000151085
0.000153311
0.000155429
0.000157443
0.000159357
0.000161174
0.0001629
0.000164538
0.000166092
0.000167566
0.000168964
0.000170289
0.000171544
0.000172734
0.00017386
0.000174927
0.000175937
0.000176894
0.000177799
0.000178656
0.000179466
0.000180233
0.000180958
0.000181644
0.000106685
0.000151939
0.000201822
0.000255101
0.000309227
0.000360894
0.000408208
0.000451606
0.000493356
0.000536314
0.000582546
0.000632717
0.000686446
0.000743051
0.000802085
0.000863416
0.000927054
0.000992851
0.00106057
0.00112965
0.00119926
0.00126827
0.00133523
0.00139836
0.00145561
0.00150475
0.00154343
0.0015693
0.00158005
0.00157343
0.00154737
0.00150002
0.00142985
0.00133596
0.00121863
0.00108053
0.000929217
0.00078145
0.000668349
0.000635839
0.000723174
0.000898048
0.00106376
0.00118464
0.00127556
0.00134906
0.00140987
0.00145975
0.00149993
0.00153169
0.00155636
0.00157528
0.00158965
0.00160058
0.00160897
0.00161559
0.00162108
0.00162596
0.00163064
0.00163548
0.00164075
0.00164667
0.0016534
0.00166105
0.00166966
0.00167922
0.00168968
0.00170093
0.00171283
0.00172521
0.00173793
0.00175081
0.00176369
0.0017764
0.00178867
0.00180016
0.00181035
0.00181856
0.0018239
0.00182529
0.00182159
0.00181164
0.00179442
0.00176912
0.00173531
0.00169294
0.00164247
0.00158489
0.00152167
0.00145482
0.00138674
0.00132001
0.00125711
0.00120007
0.00115018
0.00110796
0.00107333
0.0010457
0.00102522
0.00100443
0.00024597
0.000212982
0.000182101
0.000168304
0.000172615
0.000192585
0.000225563
0.000268471
0.000317565
0.000369081
0.000420266
0.000469967
0.000518476
0.000566829
0.000616057
0.000666746
0.000718989
0.000772626
0.000827331
0.00088274
0.00093842
0.000993714
0.0010476
0.00109864
0.00114508
0.00118489
0.00121588
0.00123574
0.00124215
0.00123286
0.00120586
0.00115949
0.00109286
0.00100643
0.000903156
0.000790588
0.00068397
0.000609433
0.000602925
0.000691307
0.000847138
0.00099991
0.00111909
0.00121191
0.00128777
0.00135111
0.00140387
0.00144727
0.00148237
0.00151029
0.00153213
0.00154901
0.00156193
0.0015718
0.0015794
0.00158538
0.00159031
0.00159463
0.00159874
0.00160294
0.0016075
0.00161265
0.00161855
0.00162533
0.00163308
0.00164183
0.00165155
0.00166219
0.00167363
0.00168575
0.00169839
0.00171139
0.00172459
0.00173778
0.00175071
0.00176302
0.00177418
0.0017835
0.00179009
0.00179289
0.00179076
0.00178254
0.00176722
0.00174401
0.00171243
0.00167244
0.00162445
0.00156936
0.00150861
0.00144409
0.00137815
0.00131331
0.00125204
0.00119637
0.00114764
0.00110639
0.00107258
0.00104558
0.00102555
0.0010051
0.000347273
0.000344179
0.000336728
0.000319231
0.000288166
0.000249901
0.000217239
0.000199406
0.000198846
0.000214105
0.00024238
0.000280407
0.000324799
0.000372437
0.000420903
0.000468725
0.000515345
0.000560752
0.000605334
0.000649538
0.000693392
0.00073644
0.000777847
0.000816507
0.000851081
0.000879996
0.000901464
0.000913536
0.000914229
0.000901712
0.000874582
0.000832292
0.000775822
0.000708754
0.000638862
0.000580093
0.000553841
0.000585227
0.000684605
0.000823418
0.000957243
0.00106813
0.00115847
0.00123361
0.00129703
0.00135069
0.00139576
0.00143314
0.00146365
0.00148815
0.00150752
0.00152263
0.00153431
0.0015433
0.00155025
0.00155572
0.00156019
0.00156407
0.00156769
0.00157134
0.00157527
0.0015797
0.0015848
0.00159071
0.00159755
0.00160537
0.00161421
0.00162403
0.00163477
0.00164634
0.00165861
0.00167143
0.00168465
0.00169806
0.00171141
0.00172433
0.0017363
0.00174663
0.00175442
0.00175863
0.00175811
0.00175173
0.00173846
0.00171751
0.00168838
0.001651
0.00160571
0.00155335
0.00149526
0.00143326
0.00136961
0.00130679
0.00124722
0.00119296
0.00114538
0.00110509
0.00107203
0.00104562
0.00102597
0.00100579
0.000473878
0.000468395
0.000464849
0.000464618
0.00046852
0.000473776
0.000468747
0.000436565
0.000377349
0.000313296
0.000264646
0.000237645
0.000230151
0.000237985
0.000257287
0.00028482
0.000317847
0.00035404
0.000391278
0.000427996
0.000463212
0.000496372
0.000527077
0.000554839
0.000578941
0.000598404
0.000612057
0.000618668
0.000617156
0.000606891
0.000588133
0.000562668
0.000534668
0.000511731
0.000505685
0.00053144
0.000600019
0.000705722
0.000825277
0.000937684
0.00103523
0.00111817
0.00118891
0.00124967
0.00130204
0.001347
0.00138524
0.00141733
0.00144384
0.00146539
0.00148264
0.00149625
0.00150689
0.00151516
0.00152159
0.00152666
0.00153078
0.00153431
0.00153754
0.00154074
0.00154413
0.00154791
0.00155227
0.00155734
0.00156326
0.00157011
0.00157795
0.00158681
0.00159664
0.00160741
0.00161903
0.00163137
0.0016443
0.00165764
0.00167113
0.00168443
0.00169702
0.00170821
0.00171712
0.00172271
0.00172383
0.00171937
0.00170827
0.00168975
0.00166327
0.00162871
0.00158635
0.00153695
0.00148174
0.00142247
0.00136128
0.00130059
0.00124279
0.00118996
0.00114352
0.00110412
0.00107176
0.00104585
0.00102652
0.00100651
0.000610688
0.000602745
0.000595171
0.0005886
0.000584357
0.000584706
0.000592128
0.000606752
0.000622684
0.000624638
0.000593682
0.000527965
0.000448628
0.000378399
0.000327385
0.000295818
0.000280254
0.000276852
0.000282118
0.000293504
0.000308927
0.000326601
0.000345019
0.000362953
0.000379441
0.000393773
0.000405492
0.000414475
0.000421106
0.000426579
0.000433315
0.000445382
0.000468609
0.000509597
0.000572718
0.000656085
0.000751114
0.00084756
0.000938232
0.0010198
0.0010917
0.00115482
0.00121035
0.00125931
0.00130238
0.00133999
0.00137245
0.00140006
0.00142319
0.00144223
0.00145768
0.00147004
0.00147982
0.0014875
0.00149353
0.0014983
0.00150216
0.00150543
0.00150835
0.00151118
0.00151411
0.00151734
0.00152103
0.00152532
0.00153036
0.00153624
0.00154305
0.00155085
0.00155964
0.00156942
0.00158013
0.00159172
0.00160406
0.00161701
0.00163036
0.00164375
0.00165672
0.00166858
0.00167848
0.00168537
0.00168813
0.00168561
0.00167678
0.00166081
0.00163715
0.00160561
0.00156639
0.00152015
0.00146803
0.00141166
0.00135309
0.00129465
0.00123872
0.00118735
0.00114203
0.00110348
0.00107174
0.00104626
0.00102718
0.00100728
0.000733526
0.000725673
0.00071772
0.000709696
0.000701814
0.000694675
0.000689502
0.000688128
0.000692427
0.000702805
0.000715928
0.000723756
0.000715854
0.000684953
0.000632716
0.000569396
0.000507153
0.000453533
0.000415068
0.000389183
0.000373094
0.000364686
0.00036238
0.000364991
0.00037168
0.000381958
0.000395735
0.000413387
0.000435798
0.00046434
0.000500672
0.00054627
0.00060172
0.000666103
0.00073692
0.000810696
0.000883868
0.0009536
0.00101823
0.00107721
0.00113071
0.00117919
0.00122311
0.00126278
0.00129838
0.00133
0.00135772
0.00138163
0.00140194
0.00141891
0.00143286
0.00144418
0.00145326
0.00146047
0.00146618
0.00147073
0.00147441
0.00147748
0.00148018
0.00148271
0.00148528
0.00148803
0.00149114
0.00149474
0.00149896
0.00150392
0.00150971
0.00151642
0.00152408
0.00153274
0.00154237
0.00155297
0.00156445
0.00157673
0.00158961
0.0016028
0.00161587
0.00162817
0.00163886
0.00164693
0.00165124
0.00165066
0.00164414
0.00163082
0.0016101
0.00158172
0.00154582
0.00150293
0.00145409
0.0014008
0.001345
0.00128894
0.00123494
0.00118508
0.00114087
0.00110312
0.00107195
0.00104683
0.00102795
0.0010081
0.000830673
0.00082388
0.000816944
0.000809835
0.000802541
0.000795113
0.00078775
0.000780931
0.00077551
0.000772604
0.000773062
0.000776658
0.00078139
0.000783411
0.000778007
0.000761582
0.000733204
0.000696198
0.000658951
0.000625603
0.000598086
0.00057715
0.000562964
0.000555447
0.000554452
0.000559861
0.000571626
0.000589764
0.000614306
0.000645204
0.0006822
0.000724709
0.000771741
0.000821951
0.000873786
0.000925722
0.000976482
0.00102517
0.00107128
0.00111465
0.00115526
0.00119318
0.00122844
0.00126098
0.00129072
0.00131757
0.00134145
0.00136237
0.00138037
0.00139563
0.00140836
0.00141883
0.00142733
0.00143417
0.00143965
0.00144403
0.00144758
0.00145052
0.00145305
0.00145537
0.00145764
0.00146001
0.00146263
0.00146562
0.00146912
0.00147323
0.00147806
0.0014837
0.00149023
0.0014977
0.00150614
0.00151557
0.00152598
0.00153731
0.00154944
0.00156213
0.001575
0.00158746
0.00159871
0.00160777
0.00161351
0.0016148
0.00161057
0.00159992
0.00158222
0.00155713
0.00152467
0.00148529
0.00143989
0.00138983
0.00133694
0.00128338
0.0012314
0.00118308
0.00114
0.00110302
0.00107236
0.00104754
0.00102882
0.00100895
0.000900644
0.000895304
0.000889832
0.000884207
0.000878413
0.000872441
0.000866305
0.000860075
0.000853934
0.000848234
0.00084349
0.000840228
0.000838698
0.000838555
0.000838682
0.000837375
0.00083261
0.000823577
0.000811129
0.000796813
0.000782373
0.00076939
0.000759127
0.000752512
0.000750175
0.000752507
0.000759706
0.000771804
0.000788681
0.000810059
0.000835504
0.000864432
0.000896132
0.000929822
0.000964716
0.0010001
0.00103539
0.00107014
0.00110407
0.00113697
0.00116867
0.00119902
0.00122786
0.00125498
0.00128018
0.00130327
0.0013241
0.0013426
0.00135874
0.00137261
0.00138434
0.00139412
0.00140216
0.00140872
0.00141402
0.00141829
0.00142175
0.0014246
0.00142702
0.00142918
0.00143122
0.00143328
0.00143549
0.00143798
0.00144084
0.0014442
0.00144816
0.00145282
0.00145825
0.00146454
0.00147174
0.00147992
0.0014891
0.00149928
0.0015104
0.0015223
0.00153466
0.00154698
0.00155852
0.00156833
0.00157532
0.00157834
0.00157633
0.00156833
0.00155367
0.00153191
0.001503
0.00146724
0.0014254
0.0013787
0.00132885
0.00127789
0.00122802
0.0011813
0.00113935
0.00110313
0.00107293
0.00104837
0.00102975
0.00100982
0.000947046
0.000943186
0.000939211
0.000935116
0.000930896
0.000926549
0.000922077
0.000917493
0.000912833
0.000908177
0.000903675
0.000899557
0.000896091
0.000893496
0.000891808
0.000890802
0.000889931
0.000888672
0.000886675
0.000883899
0.000880621
0.00087735
0.000874714
0.000873352
0.000873845
0.000876659
0.000882131
0.000890458
0.000901698
0.000915784
0.000932536
0.000951678
0.000972867
0.000995721
0.00101985
0.0010449
0.00107053
0.00109647
0.00112249
0.00114835
0.00117385
0.00119875
0.00122283
0.00124584
0.00126752
0.00128767
0.00130608
0.00132264
0.00133729
0.00135003
0.00136095
0.00137017
0.00137785
0.00138418
0.00138935
0.00139355
0.00139697
0.00139977
0.00140212
0.00140416
0.00140603
0.00140785
0.00140973
0.00141179
0.00141413
0.00141684
0.00142004
0.0014238
0.00142822
0.00143339
0.00143939
0.00144629
0.00145416
0.00146306
0.00147298
0.00148384
0.00149543
0.00150731
0.00151883
0.00152911
0.0015371
0.00154168
0.00154173
0.0015363
0.00152463
0.00150621
0.00148087
0.0014488
0.00141061
0.00136738
0.00132067
0.00127242
0.00122473
0.00117966
0.00113886
0.00110338
0.00107362
0.00104928
0.00103073
0.00101072
0.000975414
0.000972832
0.000970157
0.000967392
0.000964539
0.000961604
0.000958594
0.00095552
0.0009524
0.000949261
0.000946146
0.000943131
0.000940322
0.000937856
0.000935867
0.000934442
0.000933578
0.000933203
0.000933204
0.000933482
0.000934001
0.000934814
0.000936064
0.000937964
0.000940763
0.000944717
0.000950054
0.000956956
0.000965542
0.000975867
0.000987918
0.00100163
0.00101687
0.00103349
0.00105132
0.00107017
0.00108986
0.00111019
0.00113099
0.00115204
0.00117315
0.00119409
0.00121462
0.00123449
0.00125346
0.00127128
0.00128778
0.00130278
0.00131622
0.00132805
0.00133832
0.00134709
0.00135448
0.00136064
0.00136572
0.00136987
0.00137327
0.00137605
0.00137835
0.00138032
0.00138206
0.00138369
0.00138532
0.00138703
0.00138894
0.00139111
0.00139365
0.00139664
0.00140017
0.00140433
0.00140919
0.00141486
0.00142143
0.00142899
0.0014376
0.00144725
0.00145782
0.00146898
0.00148019
0.00149065
0.00149936
0.00150523
0.00150715
0.00150412
0.00149532
0.00148018
0.0014584
0.00143003
0.00139553
0.00135584
0.00131235
0.00126687
0.00122144
0.00117807
0.00113846
0.00110372
0.00107438
0.00105023
0.00103174
0.00101161
0.000991356
0.000989739
0.000988056
0.000986312
0.000984511
0.000982663
0.000980777
0.000978868
0.000976949
0.000975039
0.00097316
0.000971345
0.000969634
0.000968088
0.000966777
0.000965777
0.000965161
0.000964981
0.000965264
0.000966022
0.000967258
0.000968987
0.000971242
0.00097408
0.000977586
0.000981861
0.000987014
0.00099315
0.00100036
0.00100871
0.00101824
0.00102897
0.00104086
0.00105388
0.00106796
0.001083
0.0010989
0.00111554
0.00113278
0.00115047
0.00116841
0.00118642
0.00120427
0.00122174
0.00123858
0.00125457
0.00126952
0.00128328
0.00129573
0.00130681
0.00131654
0.00132494
0.0013321
0.00133812
0.00134314
0.00134728
0.00135067
0.00135345
0.00135573
0.00135765
0.00135931
0.0013608
0.00136222
0.00136367
0.00136522
0.00136695
0.00136895
0.00137129
0.00137405
0.00137731
0.00138117
0.00138571
0.00139105
0.0013973
0.00140456
0.0014129
0.00142228
0.0014325
0.00144312
0.00145346
0.00146259
0.00146946
0.00147298
0.00147212
0.00146603
0.00145402
0.00143571
0.00141099
0.00138018
0.00134405
0.00130383
0.0012612
0.00121808
0.00117647
0.00113807
0.0011041
0.00107517
0.0010512
0.00103274
0.00101248
0.000999557
0.000998584
0.000997571
0.000996522
0.000995445
0.000994347
0.00099324
0.000992136
0.000991049
0.000989994
0.00098899
0.000988056
0.000987215
0.000986497
0.000985934
0.000985572
0.00098546
0.000985647
0.000986182
0.000987104
0.000988453
0.000990261
0.000992561
0.00099539
0.00099879
0.00100281
0.00100751
0.00101295
0.00101918
0.00102626
0.00103423
0.00104313
0.00105296
0.00106373
0.00107541
0.00108796
0.00110133
0.00111543
0.00113017
0.00114541
0.00116102
0.00117682
0.00119262
0.0012082
0.00122337
0.00123789
0.0012516
0.00126433
0.00127596
0.00128642
0.00129569
0.00130378
0.00131075
0.00131667
0.00132164
0.00132577
0.00132917
0.00133197
0.00133426
0.00133615
0.00133775
0.00133914
0.00134041
0.00134165
0.00134292
0.00134429
0.00134585
0.00134765
0.00134977
0.00135228
0.00135527
0.00135881
0.00136304
0.00136806
0.00137402
0.00138104
0.00138916
0.00139828
0.00140809
0.00141802
0.00142726
0.00143482
0.00143964
0.00144068
0.00143704
0.00142797
0.00141296
0.00139179
0.00136461
0.00133202
0.00129508
0.00125532
0.00121458
0.00117477
0.00113762
0.00110444
0.00107594
0.00105213
0.00103371
0.00101331
0.0010034
0.00100281
0.0010022
0.00100157
0.00100094
0.0010003
0.000999679
0.000999077
0.000998508
0.000997987
0.000997529
0.000997149
0.000996865
0.000996695
0.00099666
0.000996786
0.000997104
0.000997646
0.000998446
0.000999541
0.00100097
0.00100277
0.00100497
0.00100761
0.00101073
0.00101437
0.00101857
0.00102337
0.00102883
0.00103497
0.00104184
0.00104948
0.00105792
0.00106715
0.00107719
0.00108801
0.00109959
0.00111186
0.00112477
0.0011382
0.00115203
0.00116613
0.00118031
0.00119441
0.00120822
0.00122155
0.00123422
0.00124609
0.00125703
0.00126696
0.00127584
0.00128366
0.00129046
0.00129629
0.00130122
0.00130536
0.00130878
0.0013116
0.0013139
0.00131579
0.00131736
0.00131868
0.00131984
0.00132091
0.00132197
0.00132306
0.00132426
0.00132563
0.00132723
0.00132912
0.00133137
0.00133408
0.00133733
0.00134127
0.00134603
0.00135178
0.00135863
0.00136657
0.00137542
0.00138473
0.00139381
0.00140175
0.00140754
0.00141016
0.00140866
0.00140226
0.00139034
0.00137255
0.00134888
0.00131976
0.00128608
0.00124921
0.00121086
0.0011729
0.00113706
0.00110469
0.00107663
0.00105301
0.00103462
0.00101408