/*--------------------------------*- C++ -*----------------------------------*\
  =========                 |
  \\      /  F ield         | OpenFOAM: The Open Source CFD Toolbox
   \\    /   O peration     | Website:  https://openfoam.org
    \\  /    A nd           | Version:  10
     \\/     M anipulation  |
\*---------------------------------------------------------------------------*/
FoamFile
{
    format      ascii;
    class       surfaceScalarField;
    location    "0.075";
    object      phi;
}
// * * * * * * * * * * * * * * * * * * * * * * * * * * * * * * * * * * * * * //

dimensions      [0 3 -1 0 0 0 0];

internalField   nonuniform List<scalar> 
13452
(
6.05769e-05
-3.08476e-07
6.037e-05
2.06892e-07
5.98972e-05
4.72857e-07
5.92822e-05
6.15026e-07
5.86751e-05
6.07106e-07
5.81361e-05
5.38984e-07
5.76678e-05
4.68237e-07
5.72602e-05
4.07625e-07
5.69018e-05
3.58372e-07
5.65827e-05
3.19113e-07
5.6295e-05
2.87678e-07
5.60329e-05
2.62114e-07
5.5792e-05
2.4095e-07
5.55689e-05
2.23125e-07
5.5361e-05
2.07888e-07
5.51663e-05
1.9471e-07
5.4983e-05
1.83225e-07
5.48099e-05
1.73173e-07
5.46455e-05
1.64378e-07
5.44888e-05
1.56724e-07
5.43386e-05
1.50148e-07
5.4194e-05
1.44636e-07
5.40537e-05
1.40231e-07
5.39167e-05
1.37054e-07
5.37814e-05
1.35321e-07
5.36458e-05
1.35526e-07
5.35076e-05
1.38291e-07
5.33618e-05
1.45749e-07
5.32013e-05
1.60536e-07
5.30124e-05
1.88891e-07
5.27477e-05
2.6469e-07
5.2382e-05
3.65658e-07
6.08507e-07
5.17735e-05
6.18026e-05
-1.20708e-07
6.17622e-05
2.47246e-07
6.18787e-05
3.56381e-07
6.20395e-05
4.54184e-07
6.21453e-05
5.01349e-07
6.21734e-05
5.10841e-07
6.21385e-05
5.03185e-07
6.20612e-05
4.84903e-07
6.1958e-05
4.61572e-07
6.18401e-05
4.37044e-07
6.17146e-05
4.13149e-07
6.15861e-05
3.90653e-07
6.14572e-05
3.69837e-07
6.13296e-05
3.50743e-07
6.12041e-05
3.33307e-07
6.10814e-05
3.17423e-07
6.09617e-05
3.0299e-07
6.08449e-05
2.89917e-07
6.07312e-05
2.78138e-07
6.06203e-05
2.67612e-07
6.05121e-05
2.58332e-07
6.04064e-05
2.50329e-07
6.03029e-05
2.43687e-07
6.02014e-05
2.38561e-07
6.01015e-05
2.35208e-07
6.0003e-05
2.34067e-07
5.99054e-05
2.35848e-07
5.98095e-05
2.41669e-07
5.97158e-05
2.54275e-07
5.9631e-05
2.73718e-07
5.95777e-05
3.17972e-07
5.95882e-05
3.55107e-07
4.71986e-07
5.97248e-05
6.36611e-05
-2.04383e-08
6.37524e-05
1.55987e-07
6.38138e-05
2.94951e-07
6.38659e-05
4.02155e-07
6.3908e-05
4.59231e-07
6.39385e-05
4.80317e-07
6.39576e-05
4.84109e-07
6.39636e-05
4.78833e-07
6.39571e-05
4.68118e-07
6.39396e-05
4.54532e-07
6.39131e-05
4.39607e-07
6.38796e-05
4.24227e-07
6.38405e-05
4.08945e-07
6.37971e-05
3.94102e-07
6.37505e-05
3.79905e-07
6.37015e-05
3.6648e-07
6.36505e-05
3.53914e-07
6.35982e-05
3.42271e-07
6.35447e-05
3.31612e-07
6.34903e-05
3.22004e-07
6.34351e-05
3.13536e-07
6.33791e-05
3.06328e-07
6.33222e-05
3.00547e-07
6.32644e-05
2.96436e-07
6.32052e-05
2.9435e-07
6.31445e-05
2.94799e-07
6.30817e-05
2.98639e-07
6.30166e-05
3.06794e-07
6.29488e-05
3.22064e-07
6.28787e-05
3.43806e-07
6.28118e-05
3.8484e-07
6.27414e-05
4.25507e-07
5.14439e-07
6.2699e-05
6.55758e-05
-1.31718e-08
6.55531e-05
1.78649e-07
6.55635e-05
2.84635e-07
6.56035e-05
3.62121e-07
6.56516e-05
4.11147e-07
6.56955e-05
4.36424e-07
6.57316e-05
4.48018e-07
6.57595e-05
4.50879e-07
6.57799e-05
4.47776e-07
6.57934e-05
4.41037e-07
6.58008e-05
4.3217e-07
6.58029e-05
4.22082e-07
6.58005e-05
4.11377e-07
6.57941e-05
4.00474e-07
6.57844e-05
3.89663e-07
6.57717e-05
3.7916e-07
6.57565e-05
3.69136e-07
6.5739e-05
3.59734e-07
6.57195e-05
3.51089e-07
6.56982e-05
3.43337e-07
6.56751e-05
3.36631e-07
6.56503e-05
3.31157e-07
6.56237e-05
3.27147e-07
6.55952e-05
3.24905e-07
6.55647e-05
3.24853e-07
6.5532e-05
3.27539e-07
6.54968e-05
3.33821e-07
6.5459e-05
3.44581e-07
6.54191e-05
3.61916e-07
6.53771e-05
3.85799e-07
6.53393e-05
4.22725e-07
6.53021e-05
4.62717e-07
5.23392e-07
6.52931e-05
6.74264e-05
1.71979e-08
6.7451e-05
1.54036e-07
6.74788e-05
2.56864e-07
6.7509e-05
3.31894e-07
6.75389e-05
3.81311e-07
6.75675e-05
4.07759e-07
6.75949e-05
4.20639e-07
6.76203e-05
4.25506e-07
6.7643e-05
4.25085e-07
6.76627e-05
4.21333e-07
6.76793e-05
4.15514e-07
6.7693e-05
4.08399e-07
6.77039e-05
4.00519e-07
6.77121e-05
3.92257e-07
6.77178e-05
3.83902e-07
6.77213e-05
3.75678e-07
6.77227e-05
3.67776e-07
6.77221e-05
3.60366e-07
6.77195e-05
3.53612e-07
6.77152e-05
3.47685e-07
6.7709e-05
3.42776e-07
6.77011e-05
3.39103e-07
6.76913e-05
3.3694e-07
6.76796e-05
3.36623e-07
6.76658e-05
3.38596e-07
6.765e-05
3.43411e-07
6.76319e-05
3.51858e-07
6.76118e-05
3.6473e-07
6.75901e-05
3.83551e-07
6.75674e-05
4.08523e-07
6.75472e-05
4.42978e-07
6.75279e-05
4.81974e-07
5.32432e-07
6.75189e-05
6.93767e-05
2.4521e-08
6.9386e-05
1.44712e-07
6.94039e-05
2.39024e-07
6.94293e-05
3.06424e-07
6.94582e-05
3.52427e-07
6.94867e-05
3.79276e-07
6.95136e-05
3.93791e-07
6.95385e-05
4.00597e-07
6.95614e-05
4.02169e-07
6.95824e-05
4.00345e-07
6.96015e-05
3.96386e-07
6.96188e-05
3.9108e-07
6.96344e-05
3.8496e-07
6.96482e-05
3.78411e-07
6.96604e-05
3.7172e-07
6.9671e-05
3.65116e-07
6.96799e-05
3.58793e-07
6.96874e-05
3.52933e-07
6.96933e-05
3.47713e-07
6.96976e-05
3.43319e-07
6.97005e-05
3.39958e-07
6.97017e-05
3.37869e-07
6.97013e-05
3.37336e-07
6.96992e-05
3.38707e-07
6.96954e-05
3.42418e-07
6.96898e-05
3.48988e-07
6.96826e-05
3.59103e-07
6.96739e-05
3.73443e-07
6.96643e-05
3.93065e-07
6.96546e-05
4.18239e-07
6.9647e-05
4.50562e-07
6.96414e-05
4.87609e-07
5.31631e-07
6.96422e-05
7.13592e-05
3.16514e-08
7.13706e-05
1.33358e-07
7.13911e-05
2.1846e-07
7.14164e-05
2.81189e-07
7.14431e-05
3.25682e-07
7.1469e-05
3.53336e-07
7.14937e-05
3.69163e-07
7.1517e-05
3.77309e-07
7.15389e-05
3.80226e-07
7.15595e-05
3.79697e-07
7.1579e-05
3.76973e-07
7.15972e-05
3.72857e-07
7.16142e-05
3.67898e-07
7.16302e-05
3.62492e-07
7.16449e-05
3.56937e-07
7.16586e-05
3.51469e-07
7.16711e-05
3.46291e-07
7.16824e-05
3.4159e-07
7.16926e-05
3.3755e-07
7.17016e-05
3.34365e-07
7.17093e-05
3.32249e-07
7.17157e-05
3.31444e-07
7.17208e-05
3.32235e-07
7.17245e-05
3.3496e-07
7.17269e-05
3.40023e-07
7.1728e-05
3.47895e-07
7.1728e-05
3.59143e-07
7.17271e-05
3.74323e-07
7.1726e-05
3.94151e-07
7.17254e-05
4.18868e-07
7.17268e-05
4.49195e-07
7.17304e-05
4.83923e-07
5.23543e-07
7.17385e-05
7.34032e-05
3.37161e-08
7.34136e-05
1.22972e-07
7.34318e-05
2.00283e-07
7.34545e-05
2.58509e-07
7.34794e-05
3.00722e-07
7.35044e-05
3.283e-07
7.35286e-05
3.44993e-07
7.35516e-05
3.54299e-07
7.35734e-05
3.58449e-07
7.3594e-05
3.59091e-07
7.36136e-05
3.57432e-07
7.36321e-05
3.54293e-07
7.36498e-05
3.50247e-07
7.36665e-05
3.45716e-07
7.36825e-05
3.41016e-07
7.36975e-05
3.364e-07
7.37117e-05
3.32082e-07
7.37251e-05
3.28259e-07
7.37375e-05
3.25122e-07
7.3749e-05
3.2287e-07
7.37595e-05
3.21717e-07
7.37691e-05
3.21902e-07
7.37776e-05
3.237e-07
7.37851e-05
3.27424e-07
7.37917e-05
3.33441e-07
7.37975e-05
3.42152e-07
7.38026e-05
3.54016e-07
7.38075e-05
3.69465e-07
7.38126e-05
3.88971e-07
7.38188e-05
4.12708e-07
7.3827e-05
4.40963e-07
7.38379e-05
4.73092e-07
5.0897e-07
7.38524e-05
7.55022e-05
3.40282e-08
7.55119e-05
1.13252e-07
7.5529e-05
1.8312e-07
7.55505e-05
2.37006e-07
7.55743e-05
2.76947e-07
7.55984e-05
3.04175e-07
7.5622e-05
3.21454e-07
7.56446e-05
3.31669e-07
7.56662e-05
3.36838e-07
7.56868e-05
3.38484e-07
7.57065e-05
3.37757e-07
7.57253e-05
3.35472e-07
7.57434e-05
3.32217e-07
7.57606e-05
3.28426e-07
7.57772e-05
3.24434e-07
7.57931e-05
3.2051e-07
7.58083e-05
3.1688e-07
7.58228e-05
3.13751e-07
7.58366e-05
3.11318e-07
7.58497e-05
3.09783e-07
7.58621e-05
3.09357e-07
7.58737e-05
3.10272e-07
7.58846e-05
3.12783e-07
7.58949e-05
3.17175e-07
7.59046e-05
3.23765e-07
7.59138e-05
3.32887e-07
7.59229e-05
3.44899e-07
7.59323e-05
3.60118e-07
7.59424e-05
3.78846e-07
7.59539e-05
4.01184e-07
7.59677e-05
4.27199e-07
7.59843e-05
4.56501e-07
4.88772e-07
7.60045e-05
7.76606e-05
3.29887e-08
7.76699e-05
1.03962e-07
7.76859e-05
1.67138e-07
7.77059e-05
2.16946e-07
7.77284e-05
2.54545e-07
7.77515e-05
2.81025e-07
7.77745e-05
2.98488e-07
7.77968e-05
3.09303e-07
7.78184e-05
3.15267e-07
7.78391e-05
3.17758e-07
7.7859e-05
3.1785e-07
7.78782e-05
3.16332e-07
7.78966e-05
3.13787e-07
7.79144e-05
3.10658e-07
7.79315e-05
3.0729e-07
7.79481e-05
3.03961e-07
7.7964e-05
3.0091e-07
7.79794e-05
2.98346e-07
7.79943e-05
2.96472e-07
7.80086e-05
2.95487e-07
7.80223e-05
2.95595e-07
7.80356e-05
2.97014e-07
7.80484e-05
2.99979e-07
7.80608e-05
3.04739e-07
7.8073e-05
3.11561e-07
7.80852e-05
3.20714e-07
7.80977e-05
3.32464e-07
7.81107e-05
3.47033e-07
7.8125e-05
3.64597e-07
7.8141e-05
3.85192e-07
7.81594e-05
4.08769e-07
7.81809e-05
4.35045e-07
4.63655e-07
7.8206e-05
7.98801e-05
3.12169e-08
7.98889e-05
9.51444e-08
7.99038e-05
1.52246e-07
7.99226e-05
1.98114e-07
7.99439e-05
2.33307e-07
7.99661e-05
2.58764e-07
7.99885e-05
2.76105e-07
8.00106e-05
2.87258e-07
8.0032e-05
2.93794e-07
8.00528e-05
2.96955e-07
8.0073e-05
2.9773e-07
8.00924e-05
2.96872e-07
8.01112e-05
2.9495e-07
8.01295e-05
2.92405e-07
8.01472e-05
2.89585e-07
8.01644e-05
2.86773e-07
8.01811e-05
2.8421e-07
8.01973e-05
2.82111e-07
8.02131e-05
2.80675e-07
8.02285e-05
2.80097e-07
8.02435e-05
2.80571e-07
8.02583e-05
2.82299e-07
8.02727e-05
2.85487e-07
8.02871e-05
2.9035e-07
8.03016e-05
2.97104e-07
8.03164e-05
3.05957e-07
8.03317e-05
3.17097e-07
8.03481e-05
3.30667e-07
8.03659e-05
3.4675e-07
8.03858e-05
3.65325e-07
8.04083e-05
3.86281e-07
8.0434e-05
4.09373e-07
4.34233e-07
8.04634e-05
8.21626e-05
2.90481e-08
8.2171e-05
8.67453e-08
8.21849e-05
1.38318e-07
8.22027e-05
1.80399e-07
8.22228e-05
2.13164e-07
8.22442e-05
2.37385e-07
8.2266e-05
2.5433e-07
8.22876e-05
2.65566e-07
8.2309e-05
2.72453e-07
8.23298e-05
2.76103e-07
8.23502e-05
2.77418e-07
8.23699e-05
2.77104e-07
8.23892e-05
2.75709e-07
8.24079e-05
2.73663e-07
8.24262e-05
2.71311e-07
8.2444e-05
2.68935e-07
8.24614e-05
2.66775e-07
8.24785e-05
2.65042e-07
8.24953e-05
2.63932e-07
8.25117e-05
2.63629e-07
8.2528e-05
2.64316e-07
8.25441e-05
2.66171e-07
8.25602e-05
2.69375e-07
8.25765e-05
2.74104e-07
8.2593e-05
2.80528e-07
8.26102e-05
2.88798e-07
8.26283e-05
2.99038e-07
8.26476e-05
3.11323e-07
8.26687e-05
3.25671e-07
8.2692e-05
3.42013e-07
8.27181e-05
3.60202e-07
8.27475e-05
3.79999e-07
4.01052e-07
8.27806e-05
8.45101e-05
2.66978e-08
8.45181e-05
7.87498e-08
8.45312e-05
1.25257e-07
8.45479e-05
1.6369e-07
8.4567e-05
1.94008e-07
8.45876e-05
2.16823e-07
8.46088e-05
2.33141e-07
8.46301e-05
2.44234e-07
8.46513e-05
2.51272e-07
8.46722e-05
2.55237e-07
8.46926e-05
2.56946e-07
8.47127e-05
2.57055e-07
8.47323e-05
2.56083e-07
8.47515e-05
2.54443e-07
8.47704e-05
2.52471e-07
8.47889e-05
2.50443e-07
8.48071e-05
2.48593e-07
8.4825e-05
2.47126e-07
8.48427e-05
2.46229e-07
8.48602e-05
2.46074e-07
8.48777e-05
2.46825e-07
8.48953e-05
2.4864e-07
8.4913e-05
2.51669e-07
8.4931e-05
2.56054e-07
8.49496e-05
2.61919e-07
8.49691e-05
2.69367e-07
8.49896e-05
2.78467e-07
8.50117e-05
2.89241e-07
8.50357e-05
3.01657e-07
8.50621e-05
3.15611e-07
8.50914e-05
3.30932e-07
8.5124e-05
3.47382e-07
3.64623e-07
8.51604e-05
8.69246e-05
2.42936e-08
8.69322e-05
7.11358e-08
8.69445e-05
1.1296e-07
8.69603e-05
1.47879e-07
8.69786e-05
1.7574e-07
8.69984e-05
1.97017e-07
8.7019e-05
2.12514e-07
8.704e-05
2.23264e-07
8.7061e-05
2.30263e-07
8.70818e-05
2.34376e-07
8.71024e-05
2.36336e-07
8.71228e-05
2.36744e-07
8.71427e-05
2.36086e-07
8.71624e-05
2.34754e-07
8.71818e-05
2.33069e-07
8.7201e-05
2.31296e-07
8.72199e-05
2.29661e-07
8.72387e-05
2.28357e-07
8.72574e-05
2.2756e-07
8.7276e-05
2.27426e-07
8.72947e-05
2.28101e-07
8.73136e-05
2.29718e-07
8.73329e-05
2.324e-07
8.73527e-05
2.36252e-07
8.73733e-05
2.41362e-07
8.73949e-05
2.47788e-07
8.74178e-05
2.55555e-07
8.74424e-05
2.64645e-07
8.7469e-05
2.74986e-07
8.74982e-05
2.86452e-07
8.75303e-05
2.98854e-07
8.75657e-05
3.11957e-07
3.25443e-07
8.76049e-05
8.94079e-05
2.19084e-08
8.94152e-05
6.38813e-08
8.94268e-05
1.0134e-07
8.94418e-05
1.32867e-07
8.94593e-05
1.58269e-07
8.94784e-05
1.77903e-07
8.94985e-05
1.92412e-07
8.95191e-05
2.02639e-07
8.954e-05
2.09427e-07
8.95608e-05
2.1353e-07
8.95815e-05
2.15601e-07
8.96021e-05
2.16185e-07
8.96225e-05
2.15731e-07
8.96426e-05
2.14606e-07
8.96626e-05
2.13111e-07
8.96824e-05
2.11499e-07
8.9702e-05
2.0998e-07
8.97217e-05
2.08736e-07
8.97413e-05
2.07927e-07
8.9761e-05
2.07693e-07
8.9781e-05
2.08159e-07
8.98012e-05
2.09435e-07
8.9822e-05
2.11614e-07
8.98435e-05
2.14772e-07
8.98659e-05
2.1896e-07
8.98895e-05
2.24203e-07
8.99146e-05
2.3049e-07
8.99414e-05
2.37769e-07
8.99705e-05
2.45945e-07
9.00021e-05
2.54872e-07
9.00366e-05
2.64357e-07
9.00744e-05
2.74167e-07
2.84009e-07
9.01158e-05
9.19622e-05
1.95806e-08
9.19691e-05
5.69609e-08
9.19801e-05
9.03137e-08
9.19944e-05
1.18561e-07
9.20112e-05
1.41506e-07
9.20297e-05
1.59411e-07
9.20493e-05
1.72793e-07
9.20696e-05
1.82338e-07
9.20903e-05
1.88756e-07
9.21111e-05
1.927e-07
9.2132e-05
1.94747e-07
9.21528e-05
1.95386e-07
9.21735e-05
1.95026e-07
9.21941e-05
1.94006e-07
9.22146e-05
1.92605e-07
9.2235e-05
1.91057e-07
9.22554e-05
1.89558e-07
9.22759e-05
1.88273e-07
9.22965e-05
1.87346e-07
9.23173e-05
1.86897e-07
9.23384e-05
1.87032e-07
9.236e-05
1.87837e-07
9.23822e-05
1.8938e-07
9.24053e-05
1.91707e-07
9.24294e-05
1.94842e-07
9.24548e-05
1.98779e-07
9.24819e-05
2.0348e-07
9.25108e-05
2.0887e-07
9.25419e-05
2.14835e-07
9.25755e-05
2.21223e-07
9.2612e-05
2.27838e-07
9.26517e-05
2.34457e-07
2.40815e-07
9.26949e-05
9.45894e-05
1.73279e-08
9.4596e-05
5.03472e-08
9.46065e-05
7.98081e-08
9.46202e-05
1.04877e-07
9.46364e-05
1.25369e-07
9.46543e-05
1.41476e-07
9.46735e-05
1.5361e-07
9.46935e-05
1.62331e-07
9.4714e-05
1.68234e-07
9.47348e-05
1.71881e-07
9.47558e-05
1.73774e-07
9.47768e-05
1.74351e-07
9.47979e-05
1.73977e-07
9.48189e-05
1.72961e-07
9.484e-05
1.71559e-07
9.4861e-05
1.69982e-07
9.48822e-05
1.68409e-07
9.49035e-05
1.66987e-07
9.4925e-05
1.65842e-07
9.49468e-05
1.65075e-07
9.49691e-05
1.64772e-07
9.49919e-05
1.64995e-07
9.50155e-05
1.6579e-07
9.504e-05
1.67179e-07
9.50657e-05
1.69161e-07
9.50928e-05
1.71706e-07
9.51215e-05
1.74757e-07
9.51521e-05
1.78222e-07
9.5185e-05
1.81978e-07
9.52204e-05
1.85869e-07
9.52585e-05
1.89706e-07
9.52997e-05
1.93279e-07
1.96352e-07
9.53441e-05
9.72917e-05
1.51552e-08
9.7298e-05
4.40108e-08
9.73081e-05
6.97567e-08
9.73212e-05
9.17344e-08
9.73368e-05
1.09781e-07
9.73543e-05
1.24031e-07
9.73731e-05
1.34814e-07
9.73928e-05
1.42585e-07
9.74132e-05
1.47841e-07
9.7434e-05
1.51061e-07
9.74551e-05
1.52681e-07
9.74764e-05
1.53082e-07
9.74978e-05
1.5259e-07
9.75192e-05
1.51482e-07
9.75408e-05
1.49985e-07
9.75625e-05
1.4829e-07
9.75844e-05
1.46555e-07
9.76064e-05
1.44907e-07
9.76288e-05
1.43454e-07
9.76516e-05
1.42279e-07
9.76749e-05
1.41445e-07
9.76989e-05
1.40997e-07
9.77238e-05
1.40958e-07
9.77496e-05
1.4133e-07
9.77767e-05
1.42092e-07
9.78052e-05
1.43197e-07
9.78354e-05
1.44573e-07
9.78675e-05
1.46119e-07
9.79018e-05
1.47708e-07
9.79384e-05
1.49187e-07
9.79778e-05
1.50378e-07
9.802e-05
1.51086e-07
1.51107e-07
9.80652e-05
0.000100071
1.30604e-08
0.000100077
3.7922e-08
0.000100087
6.00991e-08
0.0001001
7.90617e-08
0.000100115
9.46681e-08
0.000100132
1.07012e-07
0.00010015
1.16354e-07
0.00010017
1.23064e-07
0.00010019
1.27554e-07
0.000100211
1.30228e-07
0.000100232
1.31459e-07
0.000100254
1.31578e-07
0.000100275
1.30871e-07
0.000100297
1.29578e-07
0.000100319
1.279e-07
0.000100342
1.26004e-07
0.000100364
1.24026e-07
0.000100387
1.22074e-07
0.00010041
1.20236e-07
0.000100434
1.18576e-07
0.000100458
1.17139e-07
0.000100483
1.15952e-07
0.000100509
1.15018e-07
0.000100536
1.14324e-07
0.000100564
1.13832e-07
0.000100594
1.13484e-07
0.000100625
1.13198e-07
0.000100659
1.12869e-07
0.000100694
1.12372e-07
0.000100732
1.1156e-07
0.000100772
1.1027e-07
0.000100815
1.08324e-07
1.05554e-07
0.00010086
0.00010293
1.10377e-08
0.000102936
3.20507e-08
0.000102945
5.078e-08
0.000102958
6.67913e-08
0.000102972
7.99623e-08
0.000102989
9.03565e-08
0.000103007
9.81783e-08
0.000103026
1.03728e-07
0.000103047
1.07343e-07
0.000103067
1.09363e-07
0.000103089
1.10101e-07
0.000103111
1.09841e-07
0.000103133
1.08825e-07
0.000103155
1.07262e-07
0.000103178
1.05324e-07
0.0001032
1.03152e-07
0.000103224
1.00861e-07
0.000103247
9.85381e-08
0.000103271
9.62519e-08
0.000103296
9.40489e-08
0.000103321
9.19568e-08
0.000103347
8.99846e-08
0.000103374
8.81226e-08
0.000103402
8.6342e-08
0.000103431
8.45951e-08
0.000103462
8.28148e-08
0.000103494
8.0915e-08
0.000103528
7.87915e-08
0.000103564
7.6323e-08
0.000103602
7.33744e-08
0.000103643
6.97976e-08
0.000103685
6.54365e-08
6.01531e-08
0.000103731
0.000105871
9.07918e-09
0.000105876
2.63678e-08
0.000105885
4.17487e-08
0.000105897
5.48605e-08
0.000105912
6.55982e-08
0.000105928
7.40032e-08
0.000105946
8.02351e-08
0.000105965
8.45351e-08
0.000105985
8.71794e-08
0.000106006
8.84459e-08
0.000106028
8.85966e-08
0.00010605
8.78662e-08
0.000106072
8.64598e-08
0.000106095
8.4551e-08
0.000106118
8.2283e-08
0.000106141
7.97716e-08
0.000106165
7.71082e-08
0.000106189
7.43616e-08
0.000106214
7.15806e-08
0.000106239
6.87948e-08
0.000106265
6.60159e-08
0.000106292
6.32387e-08
0.000106319
6.04409e-08
0.000106348
5.75836e-08
0.000106378
5.46111e-08
0.00010641
5.1452e-08
0.000106442
4.80193e-08
0.000106477
4.42125e-08
0.000106513
3.99184e-08
0.000106552
3.50145e-08
0.000106592
2.93704e-08
0.000106635
2.28512e-08
1.53494e-08
0.00010668
0.000108895
7.17643e-09
0.000108901
2.08458e-08
0.00010891
3.29591e-08
0.000108921
4.32121e-08
0.000108935
5.15148e-08
0.000108951
5.78935e-08
0.000108969
6.24721e-08
0.000108988
6.54432e-08
0.000109008
6.70289e-08
0.000109029
6.74542e-08
0.000109051
6.6932e-08
0.000109073
6.56521e-08
0.000109096
6.37817e-08
0.000109119
6.14613e-08
0.000109143
5.88047e-08
0.000109166
5.59024e-08
0.000109191
5.2823e-08
0.000109215
4.96153e-08
0.000109241
4.63106e-08
0.000109267
4.29221e-08
0.000109293
3.94476e-08
0.000109321
3.58696e-08
0.000109349
3.21557e-08
0.000109378
2.82593e-08
0.000109409
2.412e-08
0.00010944
1.96654e-08
0.000109474
1.48105e-08
0.000109508
9.4608e-09
0.000109545
3.5132e-09
0.000109583
-3.14057e-09
0.000109623
-1.06129e-08
0.000109665
-1.90175e-08
-2.84338e-08
0.000109709
0.000112006
5.32059e-09
0.000112012
1.54576e-08
0.00011202
2.43671e-08
0.000112032
3.17898e-08
0.000112046
3.76503e-08
0.000112062
4.19661e-08
0.000112079
4.48334e-08
0.000112098
4.64043e-08
0.000112118
4.68545e-08
0.000112139
4.63612e-08
0.000112161
4.5093e-08
0.000112184
4.31954e-08
0.000112207
4.08001e-08
0.00011223
3.80147e-08
0.000112254
3.4924e-08
0.000112278
3.15931e-08
0.000112303
2.80687e-08
0.000112328
2.43802e-08
0.000112354
2.05421e-08
0.000112381
1.65518e-08
0.000112408
1.23953e-08
0.000112435
8.0446e-09
0.000112464
3.4599e-09
0.000112494
-1.41036e-09
0.000112525
-6.6298e-09
0.000112556
-1.22691e-08
0.00011259
-1.84091e-08
0.000112624
-2.51364e-08
0.00011266
-3.25425e-08
0.000112698
-4.07213e-08
0.000112737
-4.97669e-08
0.000112778
-5.9773e-08
-7.07932e-08
0.00011282
0.000115206
3.50543e-09
0.000115212
1.01828e-08
0.00011522
1.59386e-08
0.000115231
2.05491e-08
0.000115245
2.3954e-08
0.000115261
2.61677e-08
0.000115278
2.72666e-08
0.000115297
2.73703e-08
0.000115318
2.66145e-08
0.000115339
2.51345e-08
0.000115361
2.30572e-08
0.000115384
2.04829e-08
0.000115407
1.75146e-08
0.000115431
1.42252e-08
0.000115455
1.06703e-08
0.00011548
6.89021e-09
0.000115505
2.90926e-09
0.00011553
-1.26236e-09
0.000115557
-5.62276e-09
0.000115583
-1.01915e-08
0.000115611
-1.49926e-08
0.000115639
-2.00625e-08
0.000115668
-2.54473e-08
0.000115697
-3.12017e-08
0.000115728
-3.73884e-08
0.00011576
-4.40764e-08
0.000115793
-5.13401e-08
0.000115827
-5.92576e-08
0.000115862
-6.79084e-08
0.000115899
-7.73717e-08
0.000115937
-8.77242e-08
0.000115976
-9.90411e-08
-1.11353e-07
0.000116017
0.000118498
1.71769e-09
0.000118503
4.99085e-09
0.000118511
7.62544e-09
0.000118522
9.42685e-09
0.000118536
1.03547e-08
0.000118552
1.04272e-08
0.000118569
9.70716e-09
0.000118588
8.2869e-09
0.000118609
6.26657e-09
0.00011863
3.74371e-09
0.000118652
8.17662e-10
0.000118675
-2.4806e-09
0.000118699
-6.05782e-09
0.000118723
-9.87756e-09
0.000118747
-1.39128e-08
0.000118773
-1.81477e-08
0.000118798
-2.2579e-08
0.000118824
-2.72137e-08
0.00011885
-3.20688e-08
0.000118877
-3.71724e-08
0.000118905
-4.25594e-08
0.000118933
-4.82731e-08
0.000118962
-5.43637e-08
0.000118992
-6.08875e-08
0.000119022
-6.79062e-08
0.000119054
-7.54848e-08
0.000119086
-8.36909e-08
0.000119119
-9.2593e-08
0.000119154
-1.02259e-07
0.000119189
-1.12754e-07
0.000119226
-1.24138e-07
0.000119263
-1.36469e-07
-1.4976e-07
0.000119301
0.000121883
-2.63333e-11
0.000121888
-1.03159e-10
0.000121896
-5.62463e-10
0.000121907
-1.58083e-09
0.000121921
-3.17169e-09
0.000121937
-5.30101e-09
0.000121954
-7.90785e-09
0.000121973
-1.0918e-08
0.000121994
-1.42603e-08
0.000122016
-1.78749e-08
0.000122038
-2.17126e-08
0.000122061
-2.57473e-08
0.000122085
-2.99469e-08
0.00012211
-3.43015e-08
0.000122135
-3.88114e-08
0.00012216
-4.34848e-08
0.000122186
-4.83387e-08
0.000122212
-5.33978e-08
0.000122238
-5.86935e-08
0.000122266
-6.4264e-08
0.000122293
-7.01535e-08
0.000122321
-7.64109e-08
0.00012235
-8.30895e-08
0.000122379
-9.02459e-08
0.000122409
-9.79393e-08
0.00012244
-1.0623e-07
0.000122472
-1.15179e-07
0.000122504
-1.24845e-07
0.000122537
-1.35284e-07
0.000122571
-1.46549e-07
0.000122605
-1.58685e-07
0.000122641
-1.71736e-07
-1.85696e-07
0.000122676
0.000125365
-1.79393e-09
0.00012537
-5.19526e-09
0.000125378
-8.74747e-09
0.00012539
-1.26005e-08
0.000125403
-1.67351e-08
0.000125419
-2.10975e-08
0.000125437
-2.56276e-08
0.000125456
-3.0267e-08
0.000125477
-3.49708e-08
0.000125498
-3.97121e-08
0.000125521
-4.44777e-08
0.000125545
-4.92719e-08
0.000125569
-5.41035e-08
0.000125594
-5.89909e-08
0.000125619
-6.39608e-08
0.000125644
-6.90452e-08
0.00012567
-7.42811e-08
0.000125697
-7.97097e-08
0.000125723
-8.53763e-08
0.00012575
-9.13294e-08
0.000125778
-9.76206e-08
0.000125806
-1.04304e-07
0.000125834
-1.11434e-07
0.000125863
-1.19067e-07
0.000125892
-1.2726e-07
0.000125922
-1.36069e-07
0.000125952
-1.45546e-07
0.000125983
-1.55743e-07
0.000126015
-1.66704e-07
0.000126047
-1.7847e-07
0.000126079
-1.91074e-07
0.000126112
-2.04546e-07
-2.18868e-07
0.000126145
0.000128947
-3.39374e-09
0.000128952
-1.00327e-08
0.000128959
-1.66911e-08
0.00012897
-2.34927e-08
0.000128984
-3.03272e-08
0.000129
-3.70741e-08
0.000129018
-4.36485e-08
0.000129038
-5.00006e-08
0.000129059
-5.61149e-08
0.000129081
-6.20032e-08
0.000129104
-6.76947e-08
0.000129128
-7.32321e-08
0.000129153
-7.86622e-08
0.000129178
-8.40368e-08
0.000129203
-8.94106e-08
0.000129229
-9.48396e-08
0.000129255
-1.0038e-07
0.000129282
-1.06091e-07
0.000129308
-1.12028e-07
0.000129335
-1.1825e-07
0.000129362
-1.24815e-07
0.00012939
-1.31781e-07
0.000129418
-1.39203e-07
0.000129446
-1.47138e-07
0.000129474
-1.55639e-07
0.000129503
-1.64755e-07
0.000129532
-1.74535e-07
0.000129561
-1.85019e-07
0.000129591
-1.96244e-07
0.00012962
-2.08241e-07
0.00012965
-2.21032e-07
0.00012968
-2.34636e-07
-2.49024e-07
0.000129711
0.000132631
-5.3746e-09
0.000132636
-1.52392e-08
0.000132644
-2.49242e-08
0.000132656
-3.45597e-08
0.000132669
-4.40056e-08
0.000132685
-5.30979e-08
0.000132703
-6.17229e-08
0.000132723
-6.98224e-08
0.000132744
-7.73925e-08
0.000132767
-8.4471e-08
0.00013279
-9.11211e-08
0.000132815
-9.742e-08
0.000132839
-1.03451e-07
0.000132865
-1.09297e-07
0.00013289
-1.15041e-07
0.000132916
-1.20764e-07
0.000132942
-1.26541e-07
0.000132969
-1.32448e-07
0.000132995
-1.38553e-07
0.000133022
-1.44924e-07
0.000133049
-1.51626e-07
0.000133076
-1.5872e-07
0.000133103
-1.66264e-07
0.00013313
-1.74312e-07
0.000133157
-1.82915e-07
0.000133184
-1.92118e-07
0.000133212
-2.01963e-07
0.000133239
-2.12485e-07
0.000133267
-2.23711e-07
0.000133294
-2.35664e-07
0.000133322
-2.48357e-07
0.000133349
-2.61798e-07
-2.75953e-07
0.000133376
0.000136419
-6.16986e-09
0.000136423
-1.92053e-08
0.00013643
-3.23522e-08
0.000136441
-4.55154e-08
0.000136456
-5.8178e-08
0.000136473
-7.00128e-08
0.000136492
-8.08872e-08
0.000136513
-9.07877e-08
0.000136535
-9.97749e-08
0.000136559
-1.07951e-07
0.000136583
-1.15438e-07
0.000136608
-1.22364e-07
0.000136633
-1.28856e-07
0.000136659
-1.35033e-07
0.000136685
-1.41009e-07
0.000136711
-1.46885e-07
0.000136737
-1.52758e-07
0.000136763
-1.58715e-07
0.00013679
-1.64837e-07
0.000136816
-1.71198e-07
0.000136842
-1.77868e-07
0.000136868
-1.84911e-07
0.000136895
-1.92385e-07
0.000136921
-2.00343e-07
0.000136947
-2.08832e-07
0.000136972
-2.17894e-07
0.000136998
-2.27564e-07
0.000137023
-2.37872e-07
0.000137048
-2.48839e-07
0.000137073
-2.6048e-07
0.000137098
-2.72801e-07
0.000137122
-2.85807e-07
-2.99454e-07
0.000137145
0.000140319
-9.6705e-09
0.000140325
-2.51314e-08
0.000140333
-4.06055e-08
0.000140344
-5.62291e-08
0.000140358
-7.15465e-08
0.000140374
-8.59958e-08
0.000140392
-9.92362e-08
0.000140412
-1.11154e-07
0.000140434
-1.21792e-07
0.000140458
-1.31274e-07
0.000140482
-1.39762e-07
0.000140507
-1.47431e-07
0.000140533
-1.54453e-07
0.000140559
-1.60985e-07
0.000140585
-1.67176e-07
0.000140611
-1.73157e-07
0.000140637
-1.79045e-07
0.000140663
-1.84946e-07
0.00014069
-1.90955e-07
0.000140716
-1.97157e-07
0.000140741
-2.03627e-07
0.000140767
-2.10433e-07
0.000140792
-2.17634e-07
0.000140817
-2.25285e-07
0.000140842
-2.3343e-07
0.000140866
-2.42107e-07
0.00014089
-2.51349e-07
0.000140913
-2.6118e-07
0.000140936
-2.71617e-07
0.000140958
-2.82668e-07
0.000140979
-2.94335e-07
0.000141
-3.06615e-07
-3.19467e-07
0.00014102
0.000144322
-6.75771e-09
0.000144323
-2.61725e-08
0.000144329
-4.71956e-08
0.000144341
-6.83317e-08
0.000144358
-8.80207e-08
0.000144378
-1.05659e-07
0.0001444
-1.21183e-07
0.000144423
-1.34729e-07
0.000144448
-1.46513e-07
0.000144473
-1.56779e-07
0.000144499
-1.65781e-07
0.000144526
-1.73758e-07
0.000144552
-1.80931e-07
0.000144579
-1.87494e-07
0.000144605
-1.93619e-07
0.000144631
-1.99457e-07
0.000144657
-2.05138e-07
0.000144683
-2.10779e-07
0.000144709
-2.1648e-07
0.000144734
-2.2233e-07
0.000144759
-2.28407e-07
0.000144783
-2.3478e-07
0.000144807
-2.41508e-07
0.00014483
-2.48643e-07
0.000144853
-2.56226e-07
0.000144875
-2.64295e-07
0.000144897
-2.72876e-07
0.000144918
-2.8199e-07
0.000144938
-2.91651e-07
0.000144957
-3.01864e-07
0.000144975
-3.12628e-07
0.000144993
-3.23937e-07
-3.35748e-07
0.000145009
0.000148457
-1.56957e-08
0.000148464
-3.31148e-08
0.00014847
-5.3038e-08
0.000148477
-7.56706e-08
0.000148488
-9.88011e-08
0.000148503
-1.20366e-07
0.000148521
-1.39388e-07
0.000148542
-1.55758e-07
0.000148565
-1.69713e-07
0.00014859
-1.81576e-07
0.000148616
-1.91691e-07
0.000148642
-2.00391e-07
0.000148669
-2.07973e-07
0.000148697
-2.147e-07
0.000148724
-2.20795e-07
0.000148751
-2.2645e-07
0.000148777
-2.31828e-07
0.000148804
-2.37067e-07
0.000148829
-2.42286e-07
0.000148855
-2.47584e-07
0.000148879
-2.53049e-07
0.000148903
-2.58754e-07
0.000148927
-2.64759e-07
0.000148949
-2.71119e-07
0.000148971
-2.77874e-07
0.000148991
-2.85061e-07
0.000149011
-2.92703e-07
0.00014903
-3.00821e-07
0.000149048
-3.09423e-07
0.000149065
-3.18515e-07
0.00014908
-3.28091e-07
0.000149094
-3.38146e-07
-3.48638e-07
0.000149107
0.000152671
2.60303e-09
0.000152666
-2.83791e-08
0.000152675
-6.19256e-08
0.000152694
-9.45415e-08
0.000152718
-1.22792e-07
0.000152744
-1.46758e-07
0.000152772
-1.66906e-07
0.0001528
-1.83773e-07
0.000152828
-1.97868e-07
0.000152856
-2.09652e-07
0.000152884
-2.1956e-07
0.000152911
-2.27972e-07
0.000152939
-2.35209e-07
0.000152966
-2.4154e-07
0.000152992
-2.47194e-07
0.000153018
-2.52361e-07
0.000153043
-2.57205e-07
0.000153068
-2.61862e-07
0.000153092
-2.66449e-07
0.000153116
-2.71064e-07
0.000153138
-2.75792e-07
0.00015316
-2.80703e-07
0.000153181
-2.85859e-07
0.000153202
-2.91308e-07
0.000153221
-2.97091e-07
0.000153239
-3.03242e-07
0.000153256
-3.09783e-07
0.000153272
-3.16731e-07
0.000153287
-3.24097e-07
0.0001533
-3.31883e-07
0.000153312
-3.40085e-07
0.000153323
-3.48696e-07
-3.57678e-07
0.000153332
0.000157078
-2.34593e-08
0.000157077
-2.81596e-08
0.000157065
-4.97734e-08
0.000157057
-8.63356e-08
0.000157059
-1.24635e-07
0.00015707
-1.58348e-07
0.000157089
-1.85532e-07
0.000157112
-2.07234e-07
0.000157139
-2.24589e-07
0.000157168
-2.38449e-07
0.000157198
-2.49553e-07
0.000157229
-2.58521e-07
0.000157259
-2.65851e-07
0.00015729
-2.71945e-07
0.00015732
-2.77123e-07
0.000157349
-2.81641e-07
0.000157377
-2.85706e-07
0.000157405
-2.89484e-07
0.000157432
-2.93113e-07
0.000157457
-2.96702e-07
0.000157482
-3.00344e-07
0.000157505
-3.04113e-07
0.000157527
-3.0807e-07
0.000157548
-3.12267e-07
0.000157568
-3.16742e-07
0.000157586
-3.21527e-07
0.000157603
-3.26646e-07
0.000157619
-3.32113e-07
0.000157632
-3.37937e-07
0.000157645
-3.44122e-07
0.000157655
-3.50664e-07
0.000157664
-3.57558e-07
-3.6477e-07
0.000157671
0.00016147
4.54642e-08
0.000161456
-1.43583e-08
0.000161492
-8.64648e-08
0.000161537
-1.30814e-07
0.00016158
-1.68112e-07
0.000161619
-1.9674e-07
0.000161653
-2.19924e-07
0.000161685
-2.38917e-07
0.000161715
-2.54273e-07
0.000161743
-2.66697e-07
0.00016177
-2.76809e-07
0.000161797
-2.85085e-07
0.000161823
-2.91906e-07
0.000161848
-2.97587e-07
0.000161874
-3.02385e-07
0.000161898
-3.06511e-07
0.000161923
-3.1014e-07
0.000161947
-3.13416e-07
0.00016197
-3.16462e-07
0.000161993
-3.19379e-07
0.000162015
-3.22251e-07
0.000162036
-3.25151e-07
0.000162056
-3.28138e-07
0.000162075
-3.31263e-07
0.000162093
-3.34565e-07
0.000162109
-3.38078e-07
0.000162124
-3.41826e-07
0.000162138
-3.45829e-07
0.00016215
-3.50097e-07
0.000162161
-3.54637e-07
0.00016217
-3.59449e-07
0.000162177
-3.64529e-07
-3.69852e-07
0.000162182
0.000166191
8.19923e-09
0.000166128
4.88359e-08
0.000166048
-6.60489e-09
0.000165992
-7.53679e-08
0.00016598
-1.55844e-07
0.000165994
-2.11017e-07
0.000166024
-2.49816e-07
0.000166063
-2.77478e-07
0.000166106
-2.97733e-07
0.000166152
-3.12784e-07
0.0001662
-3.24042e-07
0.000166247
-3.32513e-07
0.000166294
-3.38922e-07
0.00016634
-3.43796e-07
0.000166385
-3.47522e-07
0.000166429
-3.50395e-07
0.000166472
-3.5264e-07
0.000166513
-3.54431e-07
0.000166552
-3.55909e-07
0.00016659
-3.57185e-07
0.000166626
-3.58351e-07
0.00016666
-3.5948e-07
0.000166693
-3.60635e-07
0.000166724
-3.61866e-07
0.000166752
-3.63214e-07
0.000166779
-3.64714e-07
0.000166803
-3.66392e-07
0.000166826