/*--------------------------------*- C++ -*----------------------------------*\
  =========                 |
  \\      /  F ield         | OpenFOAM: The Open Source CFD Toolbox
   \\    /   O peration     | Website:  https://openfoam.org
    \\  /    A nd           | Version:  10
     \\/     M anipulation  |
\*---------------------------------------------------------------------------*/
FoamFile
{
    format      ascii;
    class       volScalarField;
    location    "0.03";
    object      epsilon;
}
// * * * * * * * * * * * * * * * * * * * * * * * * * * * * * * * * * * * * * //

dimensions      [0 2 -3 0 0 0 0];

internalField   nonuniform List<scalar> 
6820
(
23.2969
22.5752
21.9095
21.2856
20.7023
20.1639
19.6742
19.235
18.8457
18.5041
18.2069
17.9501
17.73
17.5426
17.3843
17.2518
17.1419
17.052
16.9794
16.9221
16.8779
16.845
16.8219
16.8071
16.7993
16.7975
16.8001
16.8091
16.8095
16.8678
16.6692
17.6797
13.0538
5.0338
6.81778
7.8381
8.46534
8.89415
9.22498
9.51136
9.77945
10.041
10.3009
10.5607
10.8204
11.0798
11.338
11.5942
11.8476
12.0973
12.3427
12.5829
12.8173
13.0453
13.2662
13.4797
13.6854
13.8833
14.0732
14.2559
14.4321
14.6036
14.7809
14.9376
15.2555
15.1707
3.7036
4.14727
4.56524
4.91394
5.19718
5.42967
5.62538
5.79545
5.94824
6.08976
6.22421
6.35441
6.48216
6.60859
6.73433
6.85968
6.98473
7.1094
7.23356
7.35698
7.47943
7.60066
7.72042
7.83851
7.95475
8.06907
8.18141
8.29215
8.40094
8.51077
8.61598
8.73277
8.82578
3.54007
3.61089
3.72463
3.85355
3.98087
4.09887
4.20528
4.30049
4.38596
4.46344
4.53461
4.60094
4.66363
4.72365
4.78171
4.83837
4.89401
4.94892
5.00327
5.05716
5.11066
5.16377
5.2165
5.26883
5.32072
5.3722
5.42326
5.47404
5.52461
5.57553
5.62668
5.67974
5.7347
3.52064
3.50152
3.50499
3.5261
3.55861
3.59704
3.63747
3.67747
3.71574
3.75174
3.78536
3.81672
3.84608
3.87371
3.89991
3.92493
3.949
3.9723
3.99499
4.01719
4.03899
4.06046
4.08165
4.1026
4.12335
4.14393
4.16438
4.18478
4.20521
4.22585
4.24683
4.26851
4.29117
3.5194
3.48245
3.45301
3.4323
3.41994
3.41447
3.41414
3.41734
3.42278
3.42949
3.43684
3.4444
3.45191
3.45924
3.46631
3.4731
3.47964
3.48594
3.49204
3.49796
3.50375
3.50943
3.51502
3.52056
3.52607
3.53157
3.5371
3.54269
3.54838
3.55425
3.56042
3.56704
3.57436
3.51943
3.47973
3.44283
3.40951
3.38028
3.35528
3.33425
3.31673
3.30215
3.28995
3.27965
3.27083
3.26316
3.25639
3.25032
3.24481
3.23975
3.23505
3.23067
3.22656
3.22269
3.21904
3.2156
3.21236
3.2093
3.20643
3.20375
3.20128
3.19904
3.19707
3.19544
3.19424
3.19364
3.51947
3.47943
3.44108
3.40467
3.37044
3.33858
3.30917
3.28218
3.25751
3.23498
3.21438
3.1955
3.17813
3.16207
3.14717
3.13327
3.12026
3.10803
3.09649
3.08557
3.07521
3.06537
3.05599
3.04705
3.03851
3.03036
3.02258
3.01518
3.00814
3.0015
2.9953
2.98959
2.98448
3.51948
3.4794
3.44085
3.40383
3.36838
3.33454
3.30236
3.27184
3.243
3.2158
3.19017
3.16604
3.14331
3.12188
3.10167
3.08256
3.06449
3.04735
3.03109
3.01563
3.00091
2.98688
2.97348
2.96069
2.94847
2.93679
2.92562
2.91495
2.90479
2.89514
2.88602
2.87747
2.86958
3.51948
3.4794
3.44081
3.40369
3.36798
3.33367
3.30073
3.26913
3.23886
3.2099
3.18223
3.15579
3.13057
3.10649
3.08352
3.06161
3.04069
3.02072
3.00164
2.9834
2.96596
2.94928
2.93332
2.91804
2.90341
2.8894
2.876
2.86319
2.85097
2.83933
2.82831
2.81793
2.80825
3.51948
3.4794
3.4408
3.40366
3.36791
3.33349
3.30037
3.26848
3.2378
3.20828
3.1799
3.15262
3.1264
3.10122
3.07703
3.05381
3.03151
3.0101
2.98955
2.96982
2.95088
2.9327
2.91525
2.8985
2.88242
2.86701
2.85223
2.83809
2.82458
2.8117
2.79948
2.78794
2.77713
3.51947
3.47939
3.4408
3.40365
3.36788
3.33344
3.30027
3.26832
3.23753
3.20786
3.17927
3.15171
3.12516
3.09957
3.07492
3.05117
3.02829
3.00626
2.98504
2.96461
2.94494
2.926
2.90779
2.89026
2.87342
2.85723
2.8417
2.8268
2.81256
2.79896
2.78603
2.7738
2.76231
3.51947
3.47939
3.44079
3.40364
3.36787
3.33342
3.30024
3.26826
3.23744
3.20773
3.17907
3.15144
3.12478
3.09906
3.07425
3.05032
3.02722
3.00495
2.98346
2.96274
2.94275
2.92349
2.90492
2.88704
2.86982
2.85326
2.83735
2.82207
2.80745
2.79347
2.78016
2.76756
2.75568
3.51947
3.47939
3.44079
3.40363
3.36785
3.3334
3.30021
3.26822
3.23739
3.20766
3.17899
3.15132
3.12463
3.09887
3.07401
3.05001
3.02684
3.00448
2.98289
2.96206
2.94195
2.92255
2.90384
2.8858
2.86843
2.8517
2.83561
2.82016
2.80535
2.79118
2.77769
2.76487
2.75278
3.51947
3.47939
3.44078
3.40362
3.36784
3.33338
3.30018
3.26819
3.23735
3.20761
3.17892
3.15125
3.12454
3.09876
3.07388
3.04985
3.02666
3.00426
2.98263
2.96175
2.94159
2.92214
2.90337
2.88527
2.86782
2.85101
2.83485
2.81931
2.80441
2.79016
2.77655
2.76362
2.75138
3.51947
3.47939
3.44078
3.40362
3.36783
3.33337
3.30016
3.26816
3.23731
3.20757
3.17887
3.15118
3.12447
3.09867
3.07378
3.04974
3.02652
3.0041
2.98245
2.96155
2.94137
2.92188
2.90308
2.88494
2.86746
2.85061
2.8344
2.81882
2.80387
2.78955
2.77587
2.76286
2.75052
3.51947
3.47939
3.44078
3.40361
3.36782
3.33335
3.30015
3.26814
3.23728
3.20753
3.17882
3.15112
3.1244
3.09859
3.07368
3.04963
3.0264
3.00396
2.9823
2.96137
2.94117
2.92166
2.90284
2.88468
2.86716
2.85029
2.83404
2.81842
2.80342
2.78905
2.77531
2.76222
2.74978
3.51947
3.47939
3.44078
3.40361
3.36782
3.33334
3.30013
3.26812
3.23725
3.20749
3.17878
3.15107
3.12433
3.09851
3.07359
3.04952
3.02628
3.00383
2.98215
2.9612
2.94098
2.92145
2.9026
2.88442
2.86688
2.84997
2.83369
2.81803
2.80299
2.78856
2.77476
2.76158
2.74904
3.51947
3.47939
3.44078
3.4036
3.36781
3.33333
3.30012
3.2681
3.23723
3.20745
3.17873
3.15102
3.12427
3.09844
3.0735
3.04942
3.02616
3.0037
2.982
2.96104
2.94079
2.92124
2.90237
2.88415
2.86658
2.84964
2.83333
2.81762
2.80253
2.78805
2.77418
2.76092
2.74828
3.51947
3.47939
3.44078
3.4036
3.36781
3.33333
3.3001
3.26808
3.2372
3.20742
3.17869
3.15097
3.12421
3.09837
3.07342
3.04932
3.02605
3.00357
2.98185
2.96087
2.9406
2.92103
2.90213
2.88388
2.86628
2.84931
2.83295
2.8172
2.80206
2.78751
2.77357
2.76023
2.74748
3.51947
3.47939
3.44077
3.4036
3.3678
3.33332
3.30009
3.26806
3.23718
3.20739
3.17866
3.15092
3.12415
3.0983
3.07334
3.04923
3.02594
3.00344
2.9817
2.9607
2.94041
2.92081
2.90189
2.88361
2.86598
2.84896
2.83257
2.81677
2.80157
2.78696
2.77294
2.75951
2.74666
3.51947
3.47939
3.44077
3.4036
3.3678
3.33332
3.30008
3.26805
3.23716
3.20737
3.17862
3.15088
3.1241
3.09824
3.07326
3.04914
3.02583
3.00331
2.98156
2.96053
2.94022
2.9206
2.90164
2.88334
2.86567
2.84862
2.83217
2.81633
2.80107
2.7864
2.7723
2.75878
2.74583
3.51947
3.47939
3.44077
3.4036
3.3678
3.33331
3.30008
3.26804
3.23714
3.20734
3.17859
3.15084
3.12404
3.09817
3.07318
3.04905
3.02572
3.00319
2.98141
2.96037
2.94003
2.92038
2.9014
2.88306
2.86535
2.84826
2.83178
2.81588
2.80056
2.78583
2.77165
2.75805
2.745
3.51947
3.47939
3.44077
3.4036
3.3678
3.33331
3.30007
3.26803
3.23713
3.20732
3.17856
3.1508
3.124
3.09811
3.07311
3.04896
3.02562
3.00307
2.98127
2.96021
2.93985
2.92017
2.90116
2.88279
2.86504
2.84791
2.83138
2.81543
2.80006
2.78525
2.77101
2.75732
2.74417
3.51947
3.47939
3.44078
3.4036
3.36779
3.3333
3.30006
3.26802
3.23711
3.2073
3.17853
3.15076
3.12395
3.09805
3.07304
3.04887
3.02552
3.00295
2.98113
2.96004
2.93966
2.91996
2.90091
2.88251
2.86473
2.84756
2.83098
2.81499
2.79956
2.78469
2.77037
2.7566
2.74336
3.51947
3.47939
3.44078
3.4036
3.36779
3.3333
3.30006
3.26801
3.2371
3.20728
3.17851
3.15073
3.12391
3.098
3.07297
3.04879
3.02542
3.00283
2.981
2.95989
2.93948
2.91975
2.90068
2.88225
2.86443
2.84722
2.8306
2.81455
2.79907
2.78413
2.76975
2.75589
2.74257
3.51947
3.47939
3.44078
3.4036
3.36779
3.3333
3.30005
3.268
3.23709
3.20726
3.17848
3.15069
3.12386
3.09795
3.07291
3.04871
3.02533
3.00272
2.98087
2.95974
2.9393
2.91955
2.90045
2.88198
2.86413
2.84688
2.83022
2.81412
2.79859
2.7836
2.76914
2.75522
2.7418
3.51947
3.47939
3.44078
3.4036
3.36779
3.3333
3.30005
3.26799
3.23707
3.20725
3.17846
3.15066
3.12382
3.0979
3.07285
3.04864
3.02524
3.00262
2.98074
2.95959
2.93914
2.91936
2.90023
2.88173
2.86385
2.84656
2.82986
2.81372
2.79813
2.78308
2.76857
2.75457
2.74108
3.51947
3.47939
3.44078
3.4036
3.36779
3.33329
3.30004
3.26798
3.23706
3.20723
3.17843
3.15063
3.12378
3.09785
3.07279
3.04856
3.02515
3.00251
2.98062
2.95945
2.93897
2.91917
2.90001
2.88149
2.86357
2.84625
2.82951
2.81332
2.79769
2.78259
2.76802
2.75396
2.7404
3.51947
3.47939
3.44078
3.4036
3.36779
3.33329
3.30004
3.26798
3.23706
3.20722
3.17842
3.15061
3.12376
3.09781
3.07274
3.04851
3.02508
3.00243
2.98052
2.95933
2.93883
2.919
2.89982
2.88127
2.86333
2.84597
2.82919
2.81297
2.79729
2.78215
2.76752
2.7534
2.73978
3.51947
3.47939
3.44078
3.40361
3.3678
3.3333
3.30004
3.26798
3.23705
3.20721
3.1784
3.15059
3.12372
3.09777
3.07269
3.04844
3.025
3.00233
2.98041
2.95921
2.93869
2.91884
2.89964
2.88107
2.8631
2.84571
2.8289
2.81265
2.79693
2.78174
2.76707
2.75291
2.73923
3.51947
3.47939
3.44078
3.4036
3.36779
3.3333
3.30005
3.26799
3.23707
3.20723
3.17842
3.1506
3.12374
3.09778
3.07269
3.04844
3.02499
3.00231
2.98037
2.95916
2.93863
2.91877
2.89955
2.88096
2.86297
2.84556
2.82873
2.81245
2.79671
2.78149
2.76679
2.75259
2.73887
3.51948
3.4794
3.44081
3.40364
3.36785
3.33335
3.3001
3.26803
3.2371
3.20726
3.17845
3.15063
3.12376
3.0978
3.07272
3.04847
3.02502
3.00235
2.98042
2.95921
2.93869
2.91884
2.89964
2.88106
2.86309
2.8457
2.82888
2.81262
2.7969
2.7817
2.76701
2.75282
2.73912
3.51947
3.47939
3.44079
3.40364
3.36788
3.33342
3.30021
3.26818
3.23728
3.20747
3.1787
3.15092
3.1241
3.09819
3.07316
3.04898
3.02562
3.00304
2.98121
2.96011
2.93972
2.92
2.90094
2.88252
2.86471
2.84749
2.83085
2.81477
2.79924
2.78424
2.76975
2.75577
2.74227
3.51949
3.47949
3.44098
3.40389
3.36817
3.33375
3.3006
3.26867
3.23792
3.20829
3.17975
3.15227
3.12578
3.10027
3.07569
3.052
3.02917
3.00718
2.98597
2.96554
2.94583
2.92684
2.90853
2.89087
2.87385
2.85743
2.8416
2.82633
2.81162
2.79743
2.78375
2.77056
2.75785
3.5195
3.47952
3.44116
3.40444
3.36929
3.33565
3.30347
3.27271
3.24334
3.21531
3.18858
3.16309
3.13878
3.11561
3.09351
3.07242
3.05229
3.03307
3.01469
2.99711
2.98029
2.96417
2.94871
2.93388
2.91963
2.90593
2.89274
2.88005
2.8678
2.85599
2.84457
2.83354
2.82286
3.5197
3.48128
3.44566
3.41284
3.3828
3.35551
3.33085
3.30865
3.28868
3.27073
3.25458
3.24002
3.22687
3.21494
3.20408
3.19414
3.18499
3.17651
3.1686
3.16117
3.15413
3.14741
3.14094
3.13468
3.12857
3.12256
3.11662
3.11072
3.10483
3.09892
3.09299
3.087
3.08097
3.52529
3.51344
3.51542
3.52814
3.54871
3.57511
3.6057
3.63924
3.67477
3.71158
3.7491
3.78689
3.8246
3.86198
3.89882
3.93498
3.97035
4.00488
4.03852
4.07125
4.1031
4.13407
4.16422
4.1936
4.22227
4.25031
4.27781
4.30485
4.33155
4.35799
4.3843
4.41059
4.43694
3.8332
4.36568
4.85033
5.31864
5.78387
6.2414
6.68707
7.11927
7.53789
7.94358
8.33741
8.72056
9.09425
9.45961
9.81771
10.1695
10.516
10.8578
11.1958
11.5307
11.8631
12.1935
12.5225
12.8507
13.1783
13.5059
13.8337
14.1622
14.4915
14.822
15.1537
15.4869
15.8213
30.2663
32.7713
35.3129
37.8654
40.4151
42.953
45.4707
47.9605
50.4154
52.8289
55.1952
57.5092
59.7665
61.9633
64.0965
66.1635
68.1622
70.0912
71.9491
73.7354
75.4495
77.0915
78.6614
80.1597
81.587
82.9441
84.2319
85.4516
86.6043
87.6913
88.7139
89.6733
90.5727
84.0867
251.929
482.544
712.106
870.336
924.823
895.394
822.601
739.275
662.583
596.524
539.416
487.94
437.943
385.584
328.074
264.473
196.766
130.692
74.7553
36.2074
16.297
9.36502
8.11175
8.52388
9.27871
10.0085
10.5958
11.0009
11.2276
11.3056
11.2731
11.1647
11.0058
10.8152
10.6093
10.4055
10.2207
10.0665
9.94334
9.83775
9.72426
9.57071
9.3452
9.02273
8.59028
8.0499
7.41937
6.73003
6.02168
5.33546
4.70647
4.15823
3.70066
3.33159
3.04073
2.8142
2.63807
2.50042
2.39192
2.30568
2.23672
2.1814
2.13702
2.1015
2.0732
2.05076
2.03307
2.01923
2.00847
2.00018
1.99385
1.98905
1.98547
1.98282
1.9809
1.97953
1.97857
1.97792
1.97749
1.97723
1.97707
1.97699
1.97696
1.97695
1.97695
1.97696
1.97695
1.97694
1.97691
1.97687
1.97681
1.97673
1.97664
1.97654
1.97643
1.9763
1.97616
1.97604
1.97578
16.9108
25.4986
48.2551
95.5055
169.05
256.397
337.938
398.227
431.166
437.981
422.742
391.152
348.635
299.176
245.471
189.927
135.745
87.3273
49.4006
24.8512
12.6534
8.32085
7.39061
7.58036
8.10657
8.70962
9.2731
9.7294
10.0472
10.2273
10.2917
10.2695
10.1865
10.0614
9.90705
9.73562
9.56144
9.40057
9.26595
9.1614
9.07795
8.99438
8.88171
8.70956
8.45262
8.09569
7.63708
7.08972
6.47963
5.8418
5.21394
4.62967
4.11308
3.67621
3.31975
3.03621
2.81389
2.64033
2.50436
2.39704
2.31163
2.24318
2.18811
2.14375
2.10806
2.07944
2.05658
2.03841
2.02406
2.01279
2.00399
1.99717
1.99193
1.98794
1.98492
1.98266
1.98098
1.97975
1.97886
1.97822
1.97777
1.97745
1.97723
1.97707
1.97695
1.97686
1.97678
1.9767
1.97662
1.97654
1.97644
1.97634
1.97623
1.97611
1.97598
1.97584
1.97569
1.97554
1.9754
1.97512
8.93256
9.27397
9.54507
10.675
15.4409
26.5484
44.5212
66.6355
87.822
103.897
113.643
115.418
108.8
94.9029
76.1152
55.6124
36.7386
22.1922
13.1267
8.72683
7.08931
6.6782
6.77886
7.12725
7.59523
8.09232
8.54799
8.91452
9.17053
9.31831
9.37548
9.36467
9.30544
9.21104
9.08996
8.95036
8.80369
8.66462
8.54681
8.45688
8.38997
8.32922
8.24918
8.12154
7.92118
7.63126
7.24675
6.77599
6.23991
5.66869
5.0965
4.55525
4.06932
3.65257
3.30834
3.03181
2.81345
2.6422
2.50774
2.4015
2.31687
2.24896
2.19419
2.14993
2.11415
2.0853
2.0621
2.04352
2.0287
2.01694
2.00766
2.00037
1.99468
1.99026
1.98685
1.98423
1.98224
1.98072
1.97956
1.97869
1.97803
1.97753
1.97715
1.97684
1.9766
1.97639
1.97622
1.97605
1.9759
1.97575
1.9756
1.97545
1.9753
1.97514
1.97498
1.97481
1.97464
1.97446
1.97431
1.974
5.79864
5.90065
5.96891
5.8252
5.46319
5.37687
6.29128
8.49213
11.7764
15.3211
18.0307
19.3629
19.0887
17.3488
14.6585
11.7497
9.28138
7.57609
6.58621
6.09795
5.94204
6.02589
6.28248
6.65007
7.07054
7.49042
7.86495
8.16367
8.37363
8.49832
8.5521
8.55273
8.51503
8.44815
8.35701
8.24648
8.12521
8.00623
7.90331
7.82516
7.77052
7.72667
7.67189
7.58032
7.42762
7.19588
6.8773
6.47608
6.00832
5.49958
4.98038
4.48068
4.02478
3.62801
3.29606
3.0266
2.81217
2.64319
2.51017
2.40494
2.32108
2.25374
2.19936
2.15529
2.11954
2.09057
2.06713
2.04823
2.03303
2.02085
2.01113
2.00341
1.99729
1.99247
1.98867
1.9857
1.98337
1.98156
1.98014
1.97902
1.97814
1.97745
1.97689
1.97643
1.97605
1.97573
1.97545
1.97519
1.97496
1.97474
1.97453
1.97432
1.97412
1.97392
1.97372
1.97352
1.97332
1.97312
1.97295
1.97262
4.31854
4.35965
4.41789
4.4739
4.47665
4.40513
4.35005
4.47176
4.94482
5.52946
6.06166
6.4219
6.54816
6.44662
6.1831
5.85287
5.54402
5.31621
5.20043
5.20653
5.329
5.55182
5.85244
6.20289
6.57103
6.92404
7.23341
7.47958
7.65489
7.76318
7.81611
7.82764
7.80901
7.76631
7.70168
7.61731
7.5193
7.41888
7.32945
7.26112
7.21559
7.18393
7.14806
7.08488
6.9713
6.789
6.52799
6.18893
5.78353
5.33289
4.8639
4.40433
3.97802
3.60135
3.282
3.01989
2.80959
2.64294
2.51136
2.40714
2.32406
2.25732
2.20339
2.15961
2.12401
2.09504
2.07149
2.05238
2.03689
2.02439
2.01431
2.00621
1.99972
1.99453
1.99038
1.98707
1.98444
1.98233
1.98065
1.97929
1.9782
1.97731
1.97657
1.97596
1.97544
1.975
1.9746
1.97425
1.97394
1.97364
1.97337
1.9731
1.97285
1.97261
1.97237
1.97214
1.97192
1.97169
1.97149
1.97114
3.58392
3.59882
3.62217
3.65575
3.6953
3.73077
3.7578
3.79436
3.87128
3.98437
4.1128
4.23146
4.32144
4.37615
4.40225
4.41621
4.43865
4.48926
4.58343
4.73022
4.9317
5.18337
5.47427
5.78768
6.103
6.39866
6.65571
6.86124
7.01061
7.10744
7.16113
7.18268
7.18064
7.15883
7.11735
7.0562
6.97928
6.89597
6.81894
6.75912
6.7205
6.69741
6.67524
6.63373
6.55147
6.41026
6.19862
5.9143
5.5651
5.168
4.74629
4.32537
3.92822
3.57185
3.26555
3.01126
2.80539
2.64125
2.51118
2.40799
2.32569
2.25959
2.20615
2.16275
2.12739
2.09854
2.07499
2.05579
2.04014
2.02741
2.01706
2.00867
2.00187
1.99637
1.99192
1.98832
1.98541
1.98304
1.98111
1.97954
1.97824
1.97716
1.97626
1.9755
1.97485
1.97428
1.97379
1.97334
1.97294
1.97258
1.97224
1.97192
1.97162
1.97133
1.97106
1.9708
1.97054
1.97029
1.97008
1.96969
3.19387
3.19652
3.20428
3.21935
3.24237
3.27218
3.30654
3.345
3.3902
3.44405
3.50598
3.57338
3.64333
3.71465
3.7891
3.87144
3.96847
4.08745
4.23462
4.41389
4.62578
4.86676
5.12903
5.401
5.66845
5.91649
6.13204
6.30629
6.43628
6.52515
6.58043
6.61085
6.62294
6.6189
6.59734
6.55656
6.49853
6.43089
6.36536
6.31316
6.27999
6.2629
6.25036
6.22491
6.16709
6.05932
5.88928
5.65243
5.35328
5.00502
4.62748
4.24355
3.87504
3.53916
3.24641
3.00046
2.79944
2.63805
2.5096
2.40748
2.32597
2.26051
2.20761
2.16463
2.12959
2.10095
2.07751
2.05833
2.04262
2.02977
2.01926
2.01067
2.00364
1.99791
1.99322
1.98938
1.98623
1.98364
1.98151
1.97974
1.97826
1.97702
1.97598
1.97508
1.97431
1.97363
1.97304
1.97251
1.97203
1.9716
1.9712
1.97083
1.97048
1.97016
1.96985
1.96956
1.96928
1.969
1.96877
1.96836
2.97947
2.97549
2.97486
2.97938
2.99032
3.00832
3.03332
3.06502
3.10336
3.14852
3.20071
3.26012
3.3271
3.40251
3.488
3.5861
3.69993
3.83268
3.98697
4.16397
4.3628
4.58003
4.80953
5.04272
5.26932
5.4787
5.66157
5.81168
5.92703
6.01022
6.06726
6.10518
6.12901
6.13981
6.13513
6.11197
6.07068
6.01728
5.96239
5.9172
5.88857
5.8757
5.86976
5.85592
5.81674
5.73565
5.60006
5.40382
5.14868
4.84452
4.50789
4.1591
3.81854
3.50322
3.22448
2.9874
2.79168
2.63334
2.50668
2.40568
2.32498
2.26017
2.2078
2.16527
2.13059
2.10223
2.07898
2.05991
2.04424
2.03137
2.02078
2.01208
2.00492
1.99902
1.99416
1.99015
1.98683
1.98407
1.98177
1.97984
1.97822
1.97685
1.97567
1.97466
1.97379
1.97302
1.97234
1.97174
1.9712
1.97071
1.97026
1.96984
1.96946
1.9691
1.96876
1.96844
1.96813
1.96784
1.96759
1.96716
2.86138
2.85352
2.84825
2.847
2.85097
2.86107
2.8779
2.90183
2.93311
2.97199
3.01878
3.07397
3.13822
3.2125
3.29806
3.39648
3.50943
3.63844
3.78445
3.94745
4.12598
4.3169
4.51529
4.71462
4.90728
5.08552
5.24255
5.37377
5.47773
5.55654
5.61504
5.65896
5.69223
5.71516
5.72454
5.71642
5.68978
5.64916
5.60406
5.56537
5.5407
5.53094
5.52947
5.52383
5.49859
5.43842
5.33095
5.16895
4.95207
4.68732
4.38822
4.07254
3.75903
3.46418
3.19981
2.97212
2.78215
2.6272
2.50251
2.40273
2.32285
2.25867
2.20684
2.16476
2.13046
2.10241
2.0794
2.0605
2.04495
2.03213
2.02156
2.01283
2.0056
1.99962
1.99466
1.99054
1.9871
1.98422
1.9818
1.97976
1.97803
1.97656
1.97529
1.97419
1.97324
1.9724
1.97166
1.97099
1.9704
1.96986
1.96937
1.96892
1.9685
1.96811
1.96775
1.9674
1.96708
1.96677
1.96651
1.96606
2.798
2.78769
2.77952
2.7746
2.77399
2.77867
2.78942
2.8069
2.83164
2.86411
2.90478
2.95419
3.01297
3.08189
3.16185
3.2538
3.35865
3.47706
3.60921
3.75453
3.91143
4.07718
4.24781
4.41832
4.58298
4.736
4.87229
4.98834
5.08306
5.15809
5.21743
5.26581
5.3064
5.33897
5.35986
5.36438
5.3504
5.32111
5.28491
5.25225
5.23116
5.2238
5.22538
5.22545
5.21047
5.16649
5.08165
4.94821
4.76423
4.53433
4.26935
3.98458
3.69702
3.42238
3.1726
2.95473
2.77096
2.61972
2.49722
2.39876
2.31976
2.25621
2.20488
2.16324
2.12932
2.10158
2.07885
2.06016
2.04477
2.03206
2.02156
2.01287
2.00565
1.99965
1.99465
1.99047
1.98697
1.98403
1.98154
1.97943
1.97763
1.97608
1.97475
1.97359
1.97258
1.97169
1.9709
1.9702
1.96956
1.96899
1.96847
1.96799
1.96755
1.96714
1.96676
1.9664
1.96606
1.96574
1.96547
1.965
2.76558
2.75369
2.74365
2.73633
2.73264
2.73346
2.73963
2.75185
2.77079
2.79703
2.83114
2.87367
2.92523
2.98642
3.05787
3.14019
3.23383
3.339
3.45551
3.58259
3.71874
3.86163
4.00809
4.15424
4.29568
4.42801
4.54729
4.65077
4.73756
4.80899
4.86839
4.91976
4.96574
5.00576
5.03588
5.05086
5.04767
5.02832
5.00012
4.97298
4.95517
4.94976
4.95344
4.95748
4.94999
4.91841
4.85161
4.74175
4.58578
4.38644
4.15219
3.89601
3.63312
3.3782
3.1431
2.93539
2.75821
2.61104
2.49096
2.39396
2.31587
2.25297
2.20214
2.16091
2.12734
2.09991
2.07744
2.05898
2.04377
2.03122
2.02083
2.01222
2.00505
1.99909
1.9941
1.98992
1.9864
1.98343
1.98091
1.97877
1.97693
1.97535
1.97398
1.97279
1.97175
1.97083
1.97001
1.96928
1.96862
1.96803
1.96748
1.96699
1.96653
1.96611
1.96571
1.96534
1.965
1.96466
1.96439
1.96392
2.74995
2.73706
2.72579
2.71681
2.71091
2.70886
2.71143
2.71933
2.73324
2.75378
2.78152
2.81703
2.86084
2.91346
2.97537
3.04696
3.12845
3.21984
3.32079
3.43051
3.54767
3.67032
3.79593
3.92144
4.04344
4.15848
4.26346
4.35617
4.43584
4.50359
4.56225
4.6153
4.66498
4.71055
4.74791
4.77143
4.77733
4.76656
4.74546
4.72332
4.70848
4.70473
4.7099
4.71668
4.71465
4.69252
4.64002
4.54948
4.41719
4.24441
4.0376
3.80765
3.56797
3.33214
3.11162
2.9143
2.74406
2.60127
2.48386
2.38846
2.31137
2.24913
2.19879
2.15795
2.12471
2.09757
2.07535
2.05711
2.0421
2.02971
2.01946
2.01095
2.00388
1.99797
1.99303
1.98889
1.98539
1.98243
1.97992
1.97777
1.97593
1.97434
1.97296
1.97175
1.9707
1.96976
1.96893
1.96819
1.96752
1.96691
1.96636
1.96586
1.96539
1.96496
1.96456
1.96419
1.96384
1.9635
1.96322
1.96274
2.74284
2.7293
2.71719
2.70705
2.69951
2.69526
2.69496
2.69929
2.70889
2.72434
2.74622
2.77505
2.81133
2.85551
2.90794
2.96892
3.03856
3.11677
3.20319
3.29708
3.3973
3.50227
3.60994
3.71788
3.8234
3.92375
4.01643
4.09964
4.17271
4.23661
4.29381
4.3474
4.39937
4.44887
4.49176
4.52214
4.53561
4.5322
4.5173
4.49962
4.48744
4.48509
4.49134
4.50004
4.50199
4.48707
4.44587
4.3711
4.25869
4.10884
3.92636
3.72026
3.50225
3.28468
3.0785
2.89168
2.72865
2.59054
2.47603
2.3824
2.3064
2.24487
2.19502
2.15455
2.12162
2.09475
2.07277
2.05474
2.03991
2.02768
2.01757
2.00918
2.00221
1.99639
1.99152
1.98743
1.98398
1.98106
1.97858
1.97645
1.97462
1.97304
1.97167
1.97047
1.96941
1.96848
1.96765
1.96691
1.96624
1.96563
1.96508
1.96457
1.9641
1.96367
1.96327
1.96289
1.96254
1.9622
1.96192
1.96144
2.73964
2.72568
2.71297
2.70196
2.69317
2.68717
2.68454
2.6859
2.69181
2.70283
2.71948
2.74227
2.77164
2.80797
2.85159
2.90272
2.96143
3.0276
3.10092
3.18073
3.26611
3.35573
3.44797
3.54086
3.63226
3.71993
3.80184
3.87649
3.94333
4.00321
4.05834
4.11155
4.16464
4.21675
4.26372
4.29953
4.31923
4.32207
4.31254
4.29878
4.28893
4.28775
4.29477
4.30479
4.30967
4.30026
4.268
4.20607
4.11031
3.98015
3.8191
3.63453
3.43657
3.23634
3.04411
2.86778
2.71215
2.57896
2.46758
2.37589
2.30109
2.24032
2.19098
2.15089
2.11826
2.09163
2.06986
2.05202
2.03736
2.02528
2.01531
2.00705
2.00018
1.99446
1.98967
1.98565
1.98226
1.97939
1.97695
1.97486
1.97306
1.97151
1.97016
1.96897
1.96793
1.96701
1.96619
1.96545
1.96479
1.96419
1.96364
1.96314
1.96267
1.96224
1.96184
1.96147
1.96112
1.96078
1.9605
1.96002
2.73805
2.72378
2.7106
2.6989
2.6891
2.68167
2.67713
2.67599
2.67876
2.68596
2.69806
2.71551
2.73872
2.76804
2.80376
2.84605
2.89499
2.95048
3.01223
3.07972
3.15218
3.22854
3.30747
3.38739
3.46656
3.54317
3.61553
3.68238
3.74328
3.79902
3.85164
3.90373
3.95702
4.01065
4.06053
4.10054
4.12534
4.13343
4.12852
4.11814
4.1103
4.11006
4.11759
4.12852
4.13554
4.13037
4.10522
4.05375
3.97189
3.85859
3.71632
3.55107
3.37151
3.18758
3.0088
2.84284
2.6947
2.56663
2.45859
2.36901
2.29552
2.23558
2.1868
2.1471
2.11475
2.08836
2.06678
2.04911
2.03461
2.02267
2.01283
2.00468
1.99793
1.9923
1.9876
1.98366
1.98033
1.97752
1.97513
1.97308
1.97132
1.9698
1.96848
1.96732
1.9663
1.9654
1.96459
1.96387
1.96322
1.96263
1.96209
1.96159
1.96113
1.96071
1.96031
1.95994
1.95959
1.95926
1.95898
1.9585
2.73702
2.72248
2.70892
2.69663
2.68598
2.67735
2.67119
2.66794
2.66805
2.67198
2.68014
2.69295
2.71079
2.73396
2.76273
2.79726
2.83764
2.88377
2.93545
2.99223
3.05349
3.11838
3.18581
3.25449
3.32302
3.38988
3.4537
3.5134
3.56866
3.62021
3.66998
3.72042
3.77318
3.82748
3.87932
3.92253
3.95143
3.96392
3.96295
3.95546
3.94931
3.94978
3.95761
3.9691
3.97768
3.9758
3.95631
3.91339
3.84315
3.74424
3.61836
3.47034
3.30758
3.13886
2.97293
2.8171
2.67648
2.55367
2.44914
2.36182
2.28977
2.23074
2.18255
2.14326
2.11121
2.08505
2.06366
2.04615
2.03179
2.01998
2.01025
2.00222
1.99556
1.99003
1.98541
1.98154
1.97829
1.97554
1.9732
1.9712
1.96949
1.96801
1.96672
1.96559
1.96459
1.96371
1.96293
1.96222
1.96158
1.961
1.96047
1.95999
1.95954
1.95912
1.95873
1.95836
1.95802
1.95768
1.95741
1.95693
2.73613
2.72135
2.70744
2.69463
2.68324
2.67359
2.66604
2.66099
2.65883
2.65995
2.66473
2.67355
2.68673
2.70457
2.7273
2.7551
2.78803
2.82605
2.86898
2.91649
2.96807
3.02303
3.08048
3.13939
3.19859
3.25684
3.31298
3.36612
3.41603
3.46342
3.51014
3.55854
3.61025
3.66454
3.71756
3.76313
3.79533
3.81148
3.81384
3.80882
3.80405
3.80502
3.81294
3.82472
3.83441
3.83506
3.82011
3.78421
3.72369
3.63706
3.52545
3.39275
3.24521
3.09059
2.93682
2.79081
2.65764
2.54018
2.4393
2.35438
2.28387
2.22584
2.1783
2.13945
2.10771
2.08178
2.06057
2.04322
2.02899
2.0173
2.00769
1.99975
1.99319
1.98774
1.98321
1.97941
1.97623
1.97354
1.97125
1.96931
1.96763
1.96619
1.96494
1.96384
1.96287
1.96201
1.96125
1.96056
1.95994
1.95937
1.95886
1.95838
1.95794
1.95753
1.95714
1.95678
1.95644
1.95611
1.95584
1.95537
2.73525
2.72024
2.70599
2.69272
2.68066
2.67011
2.66138
2.65478
2.65066
2.64938
2.65126
2.65664
2.66581
2.67905
2.69658
2.71855
2.74504
2.77604
2.81141
2.8509
2.8941
2.94044
2.98923
3.0396
3.0906
3.14121
3.19044
3.23757
3.28242
3.32575
3.36932
3.41543
3.46568
3.51947
3.57306
3.62032
3.65512
3.67429
3.67947
3.67653
3.67289
3.67416
3.68199
3.69382
3.70426
3.70686
3.69556
3.66542
3.61306
3.53691
3.4377
3.31855
3.18477
3.04312
2.90078
2.76421
2.63835
2.52625
2.42912
2.34672
2.27787
2.22091
2.17408
2.1357
2.10429
2.0786
2.05758
2.04038
2.02628
2.01471
2.0052
1.99736
1.99088
1.98552
1.98106
1.97733
1.97421
1.97158
1.96935
1.96745
1.96582
1.96442
1.9632
1.96213
1.96119
1.96036
1.95962
1.95895
1.95834
1.95779
1.95729
1.95682
1.95639
1.95599
1.95561
1.95525
1.95492
1.95459
1.95432
1.95385
2.73433
2.7191
2.70454
2.69083
2.67819
2.66684
2.65706
2.64913
2.64333
2.63998
2.63937
2.64179
2.64752
2.6568
2.66984
2.68678
2.70771
2.73264
2.76148
2.79403
2.82996
2.86883
2.91006
2.95296
2.99674
3.04055
3.08356
3.12517
3.1653
3.2047
3.24511
3.28877
3.33731
3.3902
3.44388
3.49229
3.52912
3.55079
3.55835
3.55717
3.5544
3.5558
3.56338
3.57506
3.58594
3.59002
3.58165
3.55629
3.51077
3.44358
3.35513
3.24795
3.12653
2.99677
2.8651
2.73751
2.61877
2.51201
2.41868
2.3389
2.27179
2.21598
2.1699
2.13203
2.10098
2.07554
2.05472
2.03767
2.0237
2.01224
2.00283
1.99508
1.98869
1.9834
1.97901
1.97535
1.97229
1.96972
1.96754
1.96569
1.9641
1.96274
1.96155
1.96051
1.9596
1.95879
1.95807
1.95742
1.95683
1.9563
1.9558
1.95535
1.95492
1.95453
1.95416
1.95381
1.95348
1.95315
1.95289
1.95242
2.73339
2.71793
2.70307
2.68897
2.67579
2.66374
2.65305
2.64395
2.63671
2.63157
2.62882
2.6287
2.63146
2.63733
2.6465
2.6591
2.67523
2.69492
2.7181
2.74463
2.77426
2.80662
2.84127
2.87762
2.91502
2.95277
2.99018
3.02676
3.06248
3.09814
3.13542
3.17657
3.22321
3.27494
3.32835
3.37746
3.41586
3.43958
3.44915
3.44944
3.44736
3.44874
3.45593
3.46729
3.47836
3.48353
3.47751
3.45608
3.41633
3.35679
3.27769
3.18106
3.07071
2.95178
2.83002
2.71093
2.59906
2.49754
2.40804
2.33093
2.26564
2.21105
2.16579
2.12846
2.09778
2.07262
2.052
2.0351
2.02126
2.00991
2.0006
1.99294
1.98662
1.98141
1.97709
1.9735
1.97049
1.96797
1.96584
1.96404
1.96249
1.96116
1.96001
1.959
1.95812
1.95733
1.95663
1.956
1.95543
1.9549
1.95442
1.95398
1.95356
1.95318
1.95281
1.95247
1.95214
1.95182
1.95156
1.9511
2.73242
2.71675
2.70161
2.68714
2.67348
2.6608
2.64931
2.63919
2.63069
2.62401
2.61941
2.6171
2.61731
2.62024
2.62606
2.63492
2.64691
2.66206
2.68035
2.70166
2.72581
2.75251
2.78139
2.81198
2.84376
2.87611
2.90848
2.94046
2.97211
3.00421
3.03847
3.07709
3.12174
3.17212
3.22498
3.27444
3.31402
3.33943
3.3507
3.35223
3.35068
3.35193
3.35861
3.36951
3.38055
3.38649
3.38234
3.36416
3.32926
3.27627
3.20527
3.11793
3.01747
2.90838
2.79576
2.68466
2.57936
2.48297
2.39727
2.32287
2.25945
2.20613
2.16173
2.12498
2.09471
2.06983
2.04942
2.03269
2.01897
2.00773
1.99851
1.99094
1.98471
1.97956
1.97531
1.97177
1.96883
1.96636
1.96428
1.96251
1.96101
1.95971
1.95859
1.95761
1.95675
1.95599
1.95531
1.95469
1.95414
1.95363
1.95316
1.95272
1.95232
1.95194
1.95158
1.95124
1.95092
1.9506
1.95034
1.94989
2.73144
2.71557
2.70017
2.68536
2.67126
2.65802
2.64582
2.63481
2.62521
2.6172
2.61099
2.6068
2.6048
2.60519
2.60814
2.61376
2.62216
2.63339
2.64743
2.66421
2.68359
2.70535
2.72918
2.75472
2.78151
2.80907
2.8369
2.86471
2.89258
2.92136
2.95272
2.98885
3.03146
3.08036
3.13246
3.182
3.22245
3.24924
3.26196
3.26454
3.26341
3.26443
3.27053
3.28084
3.29168
3.2981
3.29541
3.27991
3.2491
3.20171
3.13774
3.05857
2.96693
2.86673
2.76252
2.65888
2.55983
2.46839
2.38644
2.31476
2.25325
2.20125
2.15773
2.1216
2.09175
2.06717
2.04698
2.03041
2.01683
2.0057
1.99658
1.98909
1.98293
1.97785
1.97366
1.97019
1.96729
1.96487
1.96284
1.96111
1.95964
1.95838
1.95729
1.95634
1.95551
1.95476
1.9541
1.9535
1.95296
1.95246
1.95201
1.95158
1.95118
1.95081
1.95046
1.95012
1.94981
1.9495
1.94924
1.94878
2.73047
2.71441
2.69876
2.68363
2.66914
2.6554
2.64256
2.63078
2.62021
2.61105
2.60346
2.59762
2.59372
2.59192
2.59237
2.5952
2.6005
2.60832
2.61868
2.63153
2.64676
2.6642
2.68361
2.7047
2.72708
2.75036
2.77412
2.79813
2.82255
2.84822
2.87681
2.91053
2.9511
2.99845
3.04964
3.09904
3.14011
3.16804
3.182
3.18549
3.18468
3.18543
3.19088
3.20052
3.211
3.21768
3.2161
3.20279
3.17542
3.13282
3.07495
3.00294
2.91916
2.82698
2.73046
2.63375
2.54059
2.45391
2.37562
2.30664
2.24706
2.1964
2.15381
2.11831
2.0889
2.06463
2.04467
2.02828
2.01483
2.00381
1.99478
1.98737
1.98128
1.97628
1.97214
1.96872
1.96588
1.96351
1.96151
1.95983
1.9584
1.95717
1.95611
1.95518
1.95437
1.95365
1.953
1.95242
1.95189
1.95141
1.95096
1.95054
1.95015
1.94979
1.94944
1.94911
1.9488
1.94849
1.94824
1.94779
2.72951
2.71326
2.69739
2.68197
2.66712
2.65293
2.63953
2.62706
2.61566
2.60548
2.59669
2.58944
2.58389
2.5802
2.57849
2.5789
2.58151
2.58638
2.59354
2.60296
2.61457
2.62824
2.64378
2.66094
2.67943
2.69889
2.71901
2.73958
2.76083
2.78361
2.80961
2.84101
2.87958
2.92534
2.97551
3.02461
3.06609
3.09495
3.10998
3.11429
3.11375
3.1142
3.11897
3.12788
3.13788
3.14461
3.14385
3.1323
3.10782
3.06932
3.01674
2.95102
2.8742
2.78924
2.69972
2.60941
2.52178
2.43964
2.36489
2.29856
2.24091
2.19161
2.14996
2.11512
2.08616
2.06222
2.04249
2.02627
2.01296
2.00205
1.99311
1.98578
1.97977
1.97482
1.97075
1.96738
1.96459
1.96226
1.9603
1.95866
1.95726
1.95606
1.95503
1.95413
1.95334
1.95263
1.95201
1.95144
1.95092
1.95045
1.95001
1.9496
1.94922
1.94886
1.94852
1.9482
1.94789
1.94758
1.94733
1.94689