/*--------------------------------*- C++ -*----------------------------------*\
  =========                 |
  \\      /  F ield         | OpenFOAM: The Open Source CFD Toolbox
   \\    /   O peration     | Website:  https://openfoam.org
    \\  /    A nd           | Version:  10
     \\/     M anipulation  |
\*---------------------------------------------------------------------------*/
FoamFile
{
    format      ascii;
    class       volScalarField;
    location    "0.03";
    object      nut;
}
// * * * * * * * * * * * * * * * * * * * * * * * * * * * * * * * * * * * * * //

dimensions      [0 2 -1 0 0 0 0];

internalField   nonuniform List<scalar> 
6820
(
0.000149484
0.000144853
0.000140581
0.000136578
0.000132836
0.000129381
0.000126239
0.000123421
0.000120923
0.000118731
0.000116824
0.000115177
0.000113764
0.000112562
0.000111547
0.000110696
0.000109992
0.000109415
0.00010895
0.000108582
0.000108299
0.000108089
0.000107942
0.000107847
0.000107798
0.000107788
0.000107805
0.000107864
0.000107868
0.000108243
0.00010697
0.000113456
8.37712e-05
0.000729195
0.000532425
0.000448083
0.000399815
0.000368522
0.000346903
0.000331286
0.000319579
0.00031051
0.000303277
0.000297358
0.000292409
0.000288194
0.000284548
0.000281356
0.00027853
0.000276006
0.000273734
0.000271676
0.000269801
0.000268085
0.000266507
0.00026505
0.000263701
0.000262449
0.000261282
0.000260194
0.000259173
0.000258221
0.000257331
0.000256463
0.000255744
0.000255692
0.000976779
0.000872189
0.000781655
0.000711336
0.000657443
0.000615466
0.000581971
0.000554599
0.000531765
0.000512385
0.000495701
0.000481165
0.000468374
0.000457023
0.000446877
0.000437753
0.000429506
0.000422019
0.000415195
0.000408957
0.000403238
0.000397983
0.000393145
0.000388682
0.000384558
0.000380742
0.000377204
0.000373918
0.000370849
0.00036799
0.000365242
0.000362621
0.000359826
0.00101348
0.000988227
0.000949377
0.00090622
0.000864495
0.000826512
0.000792756
0.000762962
0.000736635
0.000713267
0.000692404
0.000673665
0.000656734
0.000641353
0.000627312
0.000614439
0.000602589
0.000591646
0.000581509
0.000572096
0.000563335
0.000555166
0.000547536
0.0005404
0.000533716
0.000527449
0.000521565
0.000516035
0.000510825
0.000505916
0.000501254
0.000496862
0.000492571
0.00101671
0.00101241
0.00100191
0.000985672
0.000965638
0.000943786
0.000921552
0.000899816
0.000879046
0.000859451
0.000841092
0.000823947
0.000807955
0.000793036
0.000779106
0.000766084
0.000753893
0.000742462
0.000731728
0.000721634
0.000712129
0.000703169
0.000694713
0.000686724
0.00067917
0.00067202
0.000665246
0.000658822
0.00065272
0.00064692
0.000641386
0.000636117
0.00063103
0.00101676
0.00101592
0.0010136
0.00100903
0.00100205
0.000992953
0.000982258
0.000970513
0.000958187
0.00094564
0.000933132
0.000920837
0.000908872
0.000897305
0.000886175
0.0008755
0.000865284
0.00085552
0.000846197
0.000837302
0.000828816
0.000820722
0.000813004
0.000805642
0.000798618
0.000791915
0.000785517
0.000779408
0.000773574
0.000767999
0.000762662
0.000757556
0.000752652
0.00101671
0.00101623
0.00101553
0.00101429
0.0010122
0.00100911
0.001005
0.000999948
0.000994114
0.000987667
0.000980774
0.000973582
0.000966217
0.000958779
0.000951348
0.000943985
0.000936736
0.000929635
0.000922706
0.000915968
0.000909431
0.000903103
0.000896986
0.000891081
0.000885389
0.000879909
0.000874637
0.000869566
0.000864693
0.00086001
0.000855512
0.000851194
0.000847051
0.0010167
0.00101622
0.00101574
0.00101518
0.00101442
0.00101336
0.0010119
0.00100998
0.0010076
0.00100478
0.00100156
0.000997994
0.000994142
0.000990066
0.000985819
0.000981453
0.000977012
0.000972532
0.000968047
0.000963583
0.000959161
0.0009548
0.000950516
0.000946322
0.000942226
0.000938235
0.000934356
0.000930593
0.000926948
0.000923425
0.000920027
0.000916758
0.000913625
0.0010167
0.00101621
0.00101575
0.00101528
0.0010148
0.00101425
0.0010136
0.0010128
0.00101182
0.00101064
0.00100924
0.00100763
0.00100582
0.00100383
0.00100168
0.000999382
0.000996971
0.000994466
0.000991888
0.000989258
0.000986595
0.000983915
0.000981234
0.000978565
0.000975919
0.000973307
0.000970738
0.000968221
0.000965762
0.00096337
0.000961054
0.000958822
0.000956689
0.0010167
0.00101621
0.00101574
0.00101529
0.00101484
0.0010144
0.00101394
0.00101345
0.00101292
0.00101232
0.00101165
0.00101088
0.00101002
0.00100907
0.00100802
0.00100688
0.00100565
0.00100436
0.00100299
0.00100157
0.0010001
0.000998598
0.000997067
0.00099552
0.000993964
0.000992409
0.000990862
0.000989333
0.000987828
0.000986357
0.000984931
0.00098356
0.000982259
0.0010167
0.00101621
0.00101574
0.00101528
0.00101484
0.00101441
0.00101399
0.00101357
0.00101315
0.00101272
0.00101228
0.00101181
0.00101132
0.00101079
0.00101022
0.00100961
0.00100896
0.00100828
0.00100756
0.0010068
0.00100602
0.00100521
0.00100437
0.00100352
0.00100266
0.0010018
0.00100093
0.00100007
0.000999227
0.000998402
0.000997607
0.000996853
0.000996153
0.0010167
0.00101621
0.00101574
0.00101528
0.00101484
0.00101441
0.00101399
0.00101358
0.00101319
0.0010128
0.00101242
0.00101204
0.00101165
0.00101127
0.00101087
0.00101047
0.00101006
0.00100964
0.00100921
0.00100877
0.00100831
0.00100785
0.00100738
0.0010069
0.00100642
0.00100595
0.00100547
0.00100501
0.00100456
0.00100412
0.00100372
0.00100335
0.00100303
0.0010167
0.00101621
0.00101574
0.00101528
0.00101484
0.0010144
0.00101399
0.00101358
0.00101319
0.00101281
0.00101244
0.00101208
0.00101172
0.00101138
0.00101104
0.00101071
0.00101038
0.00101005
0.00100973
0.00100941
0.00100909
0.00100878
0.00100847
0.00100817
0.00100787
0.00100758
0.00100731
0.00100704
0.0010068
0.00100657
0.00100638
0.00100622
0.00100611
0.0010167
0.00101621
0.00101574
0.00101528
0.00101483
0.0010144
0.00101398
0.00101358
0.00101318
0.0010128
0.00101243
0.00101208
0.00101173
0.00101139
0.00101107
0.00101075
0.00101045
0.00101015
0.00100987
0.00100959
0.00100932
0.00100907
0.00100882
0.00100858
0.00100836
0.00100815
0.00100796
0.00100779
0.00100763
0.00100751
0.00100741
0.00100735
0.00100734
0.0010167
0.00101621
0.00101574
0.00101528
0.00101483
0.0010144
0.00101398
0.00101358
0.00101318
0.0010128
0.00101243
0.00101207
0.00101173
0.00101139
0.00101107
0.00101076
0.00101046
0.00101017
0.00100989
0.00100963
0.00100937
0.00100913
0.00100891
0.00100869
0.0010085
0.00100832
0.00100816
0.00100802
0.0010079
0.00100781
0.00100776
0.00100774
0.00100776
0.0010167
0.00101621
0.00101574
0.00101528
0.00101483
0.0010144
0.00101398
0.00101357
0.00101318
0.0010128
0.00101243
0.00101207
0.00101172
0.00101138
0.00101106
0.00101075
0.00101045
0.00101016
0.00100989
0.00100962
0.00100937
0.00100914
0.00100891
0.00100871
0.00100852
0.00100835
0.0010082
0.00100807
0.00100796
0.00100788
0.00100784
0.00100783
0.00100786
0.0010167
0.00101621
0.00101574
0.00101528
0.00101483
0.0010144
0.00101398
0.00101357
0.00101318
0.00101279
0.00101242
0.00101206
0.00101171
0.00101138
0.00101105
0.00101074
0.00101044
0.00101015
0.00100987
0.00100961
0.00100936
0.00100912
0.0010089
0.0010087
0.00100851
0.00100834
0.00100818
0.00100805
0.00100795
0.00100787
0.00100783
0.00100782
0.00100785
0.0010167
0.00101621
0.00101574
0.00101528
0.00101483
0.0010144
0.00101398
0.00101357
0.00101317
0.00101279
0.00101242
0.00101206
0.00101171
0.00101137
0.00101105
0.00101073
0.00101043
0.00101014
0.00100986
0.0010096
0.00100935
0.00100911
0.00100888
0.00100868
0.00100848
0.00100831
0.00100816
0.00100803
0.00100792
0.00100784
0.00100778
0.00100777
0.00100779
0.0010167
0.00101621
0.00101574
0.00101528
0.00101483
0.0010144
0.00101398
0.00101357
0.00101317
0.00101279
0.00101241
0.00101205
0.0010117
0.00101137
0.00101104
0.00101072
0.00101042
0.00101013
0.00100985
0.00100958
0.00100933
0.00100909
0.00100886
0.00100865
0.00100846
0.00100828
0.00100813
0.00100799
0.00100788
0.00100779
0.00100773
0.0010077
0.00100771
0.0010167
0.00101621
0.00101574
0.00101528
0.00101483
0.0010144
0.00101398
0.00101357
0.00101317
0.00101278
0.00101241
0.00101205
0.0010117
0.00101136
0.00101103
0.00101072
0.00101041
0.00101012
0.00100984
0.00100957
0.00100931
0.00100907
0.00100884
0.00100863
0.00100843
0.00100825
0.00100809
0.00100795
0.00100783
0.00100774
0.00100767
0.00100763
0.00100763
0.0010167
0.00101621
0.00101574
0.00101528
0.00101483
0.0010144
0.00101397
0.00101357
0.00101317
0.00101278
0.00101241
0.00101205
0.0010117
0.00101136
0.00101103
0.00101071
0.0010104
0.00101011
0.00100983
0.00100956
0.0010093
0.00100905
0.00100882
0.00100861
0.00100841
0.00100822
0.00100806
0.00100791
0.00100779
0.00100769
0.00100761
0.00100756
0.00100755
0.0010167
0.00101621
0.00101574
0.00101528
0.00101483
0.0010144
0.00101397
0.00101356
0.00101317
0.00101278
0.00101241
0.00101204
0.00101169
0.00101135
0.00101102
0.0010107
0.0010104
0.0010101
0.00100982
0.00100954
0.00100928
0.00100904
0.0010088
0.00100859
0.00100838
0.00100819
0.00100802
0.00100787
0.00100774
0.00100763
0.00100755
0.00100749
0.00100746
0.0010167
0.00101621
0.00101574
0.00101528
0.00101483
0.0010144
0.00101397
0.00101356
0.00101317
0.00101278
0.0010124
0.00101204
0.00101169
0.00101135
0.00101102
0.0010107
0.00101039
0.00101009
0.0010098
0.00100953
0.00100927
0.00100902
0.00100878
0.00100856
0.00100836
0.00100816
0.00100799
0.00100783
0.0010077
0.00100758
0.00100749
0.00100742
0.00100738
0.0010167
0.00101621
0.00101574
0.00101528
0.00101483
0.0010144
0.00101397
0.00101356
0.00101316
0.00101278
0.0010124
0.00101204
0.00101168
0.00101134
0.00101101
0.00101069
0.00101038
0.00101008
0.00100979
0.00100952
0.00100925
0.001009
0.00100877
0.00100854
0.00100833
0.00100813
0.00100796
0.00100779
0.00100765
0.00100753
0.00100743
0.00100735
0.00100729
0.0010167
0.00101621
0.00101574
0.00101528
0.00101483
0.0010144
0.00101397
0.00101356
0.00101316
0.00101278
0.0010124
0.00101204
0.00101168
0.00101134
0.00101101
0.00101068
0.00101037
0.00101007
0.00100978
0.00100951
0.00100924
0.00100899
0.00100875
0.00100852
0.0010083
0.00100811
0.00100792
0.00100776
0.00100761
0.00100748
0.00100737
0.00100728
0.00100721
0.0010167
0.00101621
0.00101574
0.00101528
0.00101483
0.0010144
0.00101397
0.00101356
0.00101316
0.00101278
0.0010124
0.00101203
0.00101168
0.00101133
0.001011
0.00101068
0.00101037
0.00101006
0.00100977
0.00100949
0.00100923
0.00100897
0.00100873
0.0010085
0.00100828
0.00100808
0.00100789
0.00100772
0.00100756
0.00100743
0.00100731
0.00100721
0.00100714
0.0010167
0.00101621
0.00101574
0.00101528
0.00101483
0.0010144
0.00101397
0.00101356
0.00101316
0.00101277
0.0010124
0.00101203
0.00101168
0.00101133
0.001011
0.00101067
0.00101036
0.00101006
0.00100976
0.00100948
0.00100921
0.00100896
0.00100871
0.00100848
0.00100826
0.00100805
0.00100786
0.00100768
0.00100752
0.00100738
0.00100725
0.00100715
0.00100706
0.0010167
0.00101621
0.00101574
0.00101528
0.00101483
0.0010144
0.00101397
0.00101356
0.00101316
0.00101277
0.0010124
0.00101203
0.00101167
0.00101133
0.00101099
0.00101067
0.00101035
0.00101005
0.00100976
0.00100947
0.0010092
0.00100894
0.00100869
0.00100846
0.00100823
0.00100802
0.00100783
0.00100765
0.00100748
0.00100733
0.0010072
0.00100709
0.001007
0.0010167
0.00101621
0.00101574
0.00101528
0.00101483
0.0010144
0.00101397
0.00101356
0.00101316
0.00101277
0.0010124
0.00101203
0.00101167
0.00101133
0.00101099
0.00101066
0.00101035
0.00101004
0.00100975
0.00100946
0.00100919
0.00100893
0.00100868
0.00100844
0.00100821
0.001008
0.0010078
0.00100762
0.00100745
0.00100729
0.00100716
0.00100704
0.00100693
0.0010167
0.00101621
0.00101574
0.00101528
0.00101483
0.0010144
0.00101397
0.00101356
0.00101316
0.00101277
0.0010124
0.00101203
0.00101167
0.00101132
0.00101099
0.00101066
0.00101034
0.00101004
0.00100974
0.00100946
0.00100918
0.00100892
0.00100867
0.00100843
0.0010082
0.00100798
0.00100778
0.00100759
0.00100742
0.00100726
0.00100711
0.00100699
0.00100688
0.0010167
0.00101621
0.00101574
0.00101528
0.00101483
0.0010144
0.00101397
0.00101356
0.00101316
0.00101277
0.0010124
0.00101203
0.00101167
0.00101132
0.00101099
0.00101066
0.00101034
0.00101003
0.00100974
0.00100945
0.00100918
0.00100891
0.00100866
0.00100841
0.00100818
0.00100796
0.00100776
0.00100756
0.00100739
0.00100722
0.00100707
0.00100694
0.00100683
0.0010167
0.00101621
0.00101574
0.00101528
0.00101483
0.0010144
0.00101398
0.00101357
0.00101317
0.00101278
0.0010124
0.00101203
0.00101168
0.00101133
0.00101099
0.00101066
0.00101034
0.00101004
0.00100974
0.00100945
0.00100917
0.0010089
0.00100864
0.0010084
0.00100816
0.00100794
0.00100773
0.00100753
0.00100734
0.00100717
0.00100701
0.00100687
0.00100674
0.0010167
0.00101621
0.00101574
0.00101528
0.00101484
0.0010144
0.00101398
0.00101357
0.00101317
0.00101278
0.00101241
0.00101204
0.00101168
0.00101133
0.00101099
0.00101066
0.00101034
0.00101002
0.00100972
0.00100942
0.00100913
0.00100885
0.00100858
0.00100832
0.00100806
0.00100782
0.00100759
0.00100736
0.00100715
0.00100695
0.00100676
0.00100658
0.00100642
0.0010167
0.00101621
0.00101574
0.00101529
0.00101485
0.00101442
0.001014
0.00101359
0.00101319
0.00101279
0.00101241
0.00101203
0.00101166
0.00101129
0.00101092
0.00101056
0.00101021
0.00100985
0.0010095
0.00100915
0.0010088
0.00100846
0.00100811
0.00100777
0.00100743
0.00100709
0.00100676
0.00100643
0.0010061
0.00100578
0.00100546
0.00100515
0.00100484
0.0010167
0.00101622
0.00101576
0.00101531
0.00101486
0.00101442
0.00101398
0.00101354
0.0010131
0.00101264
0.00101218
0.0010117
0.00101121
0.0010107
0.00101017
0.00100962
0.00100905
0.00100846
0.00100785
0.00100722
0.00100657
0.0010059
0.00100522
0.00100452
0.00100381
0.00100308
0.00100235
0.00100161
0.00100086
0.0010001
0.000999342
0.000998581
0.000997822
0.0010167
0.00101622
0.00101574
0.00101524
0.0010147
0.00101409
0.0010134
0.00101263
0.00101175
0.00101078
0.0010097
0.00100851
0.00100723
0.00100584
0.00100437
0.00100282
0.00100119
0.000999488
0.000997729
0.000995917
0.000994061
0.000992169
0.000990249
0.000988308
0.000986352
0.00098439
0.000982428
0.000980471
0.000978526
0.000976597
0.000974691
0.000972812
0.000970966
0.00101671
0.00101601
0.0010149
0.00101331
0.00101123
0.00100864
0.00100557
0.00100204
0.000998092
0.000993778
0.000989152
0.000984268
0.000979178
0.000973931
0.000968572
0.00096314
0.000957672
0.0009522
0.000946751
0.00094135
0.000936016
0.000930769
0.000925623
0.00092059
0.000915683
0.000910909
0.000906276
0.00090179
0.000897455
0.000893274
0.000889251
0.000885385
0.000881675
0.00101529
0.00100712
0.000995711
0.000981745
0.00096587
0.000948694
0.00093077
0.000912543
0.000894342
0.000876404
0.000858894
0.00084192
0.000825548
0.000809816
0.000794737
0.000780308
0.000766519
0.000753349
0.000740773
0.000728765
0.000717294
0.000706331
0.000695845
0.000685806
0.000676184
0.00066695
0.000658076
0.000649535
0.000641299
0.000633345
0.000625647
0.000618182
0.000610931
0.000935934
0.000815469
0.000728039
0.000658759
0.000601509
0.000553893
0.000514016
0.000480287
0.000451452
0.000426544
0.00040482
0.000385709
0.000368765
0.000353637
0.000340049
0.000327777
0.000316639
0.000306487
0.000297198
0.00028867
0.000280814
0.000273559
0.000266842
0.000260609
0.000254815
0.000249419
0.000244387
0.000239689
0.000235297
0.000231189
0.000227345
0.000223745
0.000220374
0.000125477
0.000128848
0.000132096
0.000135205
0.000138174
0.000141008
0.000143711
0.000146287
0.000148742
0.000151078
0.000153301
0.000155414
0.000157422
0.000159327
0.000161135
0.000162849
0.000164473
0.00016601
0.000167465
0.000168839
0.000170138
0.000171364
0.00017252
0.000173608
0.000174633
0.000175597
0.000176501
0.00017735
0.000178144
0.000178887
0.000179581
0.000180227
0.000180828
0.000112173
0.000161726
0.000223557
0.000295536
0.000368346
0.000434178
0.00049257
0.000547493
0.000601933
0.000655216
0.000703363
0.000741769
0.000765505
0.000770615
0.000754239
0.000714424
0.000650563
0.000565237
0.000468275
0.00038335
0.000357384
0.000475866
0.00078143
0.00107612
0.00127632
0.00143393
0.00156746
0.00167812
0.00176661
0.00183551
0.00188809
0.00192718
0.001955
0.00197377
0.00198618
0.00199528
0.0020037
0.00201263
0.00202132
0.00202733
0.00202735
0.00201815
0.00199724
0.00196323
0.00191592
0.00185629
0.00178639
0.00170913
0.00162797
0.00154648
0.00146789
0.00139474
0.00132864
0.00127036
0.00122009
0.00117759
0.00114233
0.00111355
0.0010903
0.00107161
0.00105658
0.0010445
0.0010348
0.00102702
0.00102081
0.00101587
0.00101196
0.00100888
0.00100647
0.00100459
0.00100314
0.00100203
0.00100119
0.00100056
0.00100009
0.000999751
0.000999511
0.000999347
0.000999239
0.000999173
0.000999138
0.000999125
0.000999127
0.00099914
0.00099916
0.000999183
0.000999208
0.000999233
0.000999257
0.00099928
0.000999301
0.00099932
0.000999337
0.000999351
0.000999364
0.000999374
0.000999383
0.000999391
0.000999396
0.000999399
0.000249252
0.000214385
0.000176074
0.000161927
0.000177529
0.000215102
0.000265168
0.000319413
0.000371741
0.000418041
0.000455207
0.000481483
0.000495255
0.000494612
0.000477875
0.000444881
0.000398973
0.000349952
0.000318802
0.00034612
0.000492537
0.000746825
0.00098087
0.00116244
0.00131615
0.00145032
0.00156445
0.00165811
0.00173276
0.00179116
0.00183623
0.00187018
0.00189457
0.0019109
0.0019213
0.00192846
0.00193498
0.00194239
0.00195044
0.00195714
0.00195944
0.0019541
0.00193841
0.00191061
0.00187008
0.00181737
0.00175418
0.00168311
0.00160741
0.00153057
0.00145583
0.00138582
0.00132229
0.00126612
0.00121755
0.00117634
0.00114198
0.00111376
0.00109082
0.00107227
0.00105732
0.00104526
0.00103555
0.00102775
0.00102151
0.00101653
0.00101257
0.00100944
0.00100698
0.00100505
0.00100356
0.00100241
0.00100152
0.00100086
0.00100036
0.000999986
0.000999719
0.000999528
0.000999398
0.000999311
0.000999258
0.000999228
0.000999216
0.000999216
0.000999224
0.000999237
0.000999253
0.00099927
0.000999287
0.000999304
0.00099932
0.000999334
0.000999346
0.000999357
0.000999367
0.000999375
0.000999381
0.000999386
0.00099939
0.000999391
0.000356843
0.000353245
0.000365098
0.000367467
0.000309521
0.000238572
0.000201438
0.000194105
0.000204347
0.000223187
0.000244253
0.000262924
0.000275797
0.000281241
0.000280146
0.000277175
0.000283143
0.000318815
0.000414386
0.000578801
0.000764315
0.000932932
0.0010861
0.00122683
0.00135345
0.00146404
0.00155766
0.00163458
0.00169634
0.0017453
0.00178375
0.00181331
0.00183489
0.00184939
0.00185835
0.00186406
0.00186905
0.00187503
0.00188224
0.00188919
0.0018932
0.00189115
0.0018802
0.00185828
0.00182437
0.00177858
0.00172221
0.00165751
0.00158748
0.00151547
0.00144468
0.00137783
0.00131681
0.00126263
0.00121559
0.00117553
0.00114196
0.00111423
0.00109155
0.00107314
0.00105823
0.00104617
0.00103644
0.0010286
0.00102231
0.00101727
0.00101325
0.00101006
0.00100753
0.00100555
0.001004
0.0010028
0.00100187
0.00100116
0.00100062
0.00100021
0.000999912
0.000999693
0.000999536
0.000999426
0.000999352
0.000999304
0.000999275
0.00099926
0.000999255
0.000999257
0.000999263
0.000999271
0.00099928
0.00099929
0.0009993
0.000999308
0.000999316
0.000999323
0.000999329
0.000999334
0.000999338
0.000999341
0.000999343
0.000999341
0.000488081
0.000483084
0.000483696
0.000505527
0.000556338
0.000594978
0.000548245
0.000446972
0.000359373
0.000307194
0.000283597
0.000277091
0.00028257
0.000299244
0.00032996
0.00038055
0.000456644
0.000557369
0.000673855
0.000797772
0.000924662
0.00105005
0.00116965
0.00128059
0.00138088
0.00146905
0.00154425
0.00160663
0.00165736
0.00169829
0.00173117
0.00175709
0.00177648
0.00178968
0.00179771
0.00180248
0.00180629
0.00181103
0.00181731
0.00182415
0.0018293
0.00182988
0.00182305
0.00180651
0.00177888
0.00173986
0.00169028
0.00163203
0.00156781
0.00150077
0.00143406
0.00137043
0.00131189
0.0012596
0.001214
0.00117498
0.00114212
0.00111483
0.0010924
0.0010741
0.00105923
0.00104717
0.00103741
0.00102952
0.00102317
0.00101806
0.00101397
0.00101071
0.00100812
0.00100607
0.00100446
0.0010032
0.00100221
0.00100146
0.00100087
0.00100043
0.00100009
0.00099984
0.000999654
0.000999519
0.000999421
0.000999353
0.000999306
0.000999275
0.000999256
0.000999245
0.000999239
0.000999238
0.000999239
0.000999241
0.000999244
0.000999247
0.00099925
0.000999253
0.000999255
0.000999256
0.000999257
0.000999258
0.000999257
0.000999253
0.000625391
0.000619206
0.000613442
0.000610774
0.000617881
0.000638772
0.000661982
0.000662747
0.000620567
0.000573894
0.000539081
0.000521155
0.000520996
0.000538482
0.000573287
0.000624621
0.000690822
0.000769292
0.000856729
0.000949575
0.00104453
0.00113875
0.00122981
0.00131553
0.00139402
0.00146377
0.00152391
0.00157443
0.00161619
0.00165061
0.001679
0.00170204
0.00171978
0.00173215
0.00173971
0.00174395
0.00174699
0.00175073
0.00175608
0.00176254
0.00176832
0.00177087
0.00176745
0.00175567
0.00173383
0.00170123
0.00165828
0.00160645
0.0015481
0.00148613
0.0014236
0.00136326
0.00130722
0.0012568
0.00121256
0.00117451
0.00114231
0.00111544
0.00109324
0.00107506
0.00106023
0.00104818
0.00103839
0.00103046
0.00102405
0.00101887
0.00101471
0.00101138
0.00100872
0.0010066
0.00100492
0.0010036
0.00100256
0.00100175
0.00100112
0.00100063
0.00100026
0.000999971
0.000999754
0.00099959
0.000999468
0.000999377
0.000999311
0.000999263
0.000999228
0.000999204
0.000999186
0.000999174
0.000999166
0.00099916
0.000999156
0.000999153
0.000999151
0.000999148
0.000999146
0.000999144
0.000999142
0.00099914
0.000999137
0.00099913
0.000747175
0.000741152
0.000735311
0.000729834
0.000725833
0.000725533
0.000729994
0.000735827
0.000736763
0.000733049
0.000728451
0.000727623
0.000734348
0.000750972
0.000778489
0.000816821
0.0008651
0.000921901
0.000985418
0.00105361
0.00112438
0.00119566
0.00126552
0.00133211
0.00139378
0.00144919
0.00149756
0.00153879
0.00157352
0.00160284
0.00162774
0.00164861
0.0016652
0.00167713
0.00168458
0.00168868
0.00169131
0.00169432
0.00169885
0.00170478
0.00171077
0.00171467
0.00171393
0.00170617
0.0016895
0.00166285
0.00162622
0.00158065
0.00152813
0.00147129
0.00141302
0.00135604
0.00130254
0.00125398
0.00121108
0.00117398
0.00114242
0.00111594
0.00109399
0.00107593
0.00106116
0.00104912
0.00103932
0.00103136
0.0010249
0.00101966
0.00101544
0.00101203
0.0010093
0.00100712
0.00100537
0.00100399
0.00100289
0.00100203
0.00100135
0.00100082
0.00100041
0.00100008
0.000999834
0.000999641
0.000999493
0.00099938
0.000999293
0.000999226
0.000999175
0.000999137
0.000999107
0.000999084
0.000999066
0.000999051
0.00099904
0.00099903
0.000999022
0.000999015
0.000999009
0.000999003
0.000998998
0.000998992
0.000998988
0.000998977
0.000842433
0.000837389
0.000832654
0.000828376
0.000824798
0.000822466
0.000822207
0.000824356
0.000828328
0.000833639
0.000840503
0.000849884
0.00086314
0.000881574
0.000906105
0.000937133
0.000974538
0.00101775
0.00106585
0.00111765
0.0011718
0.00122683
0.00128127
0.00133366
0.00138268
0.00142724
0.00146664
0.00150079
0.00153018
0.00155564
0.00157793
0.00159723
0.00161308
0.00162487
0.0016325
0.00163677
0.0016393
0.00164188
0.00164574
0.00165108
0.001657
0.0016617
0.00166296
0.00165847
0.00164624
0.00162495
0.0015942
0.00155461
0.00150778
0.00145604
0.00140207
0.00134853
0.00129764
0.00125098
0.00120943
0.00117326
0.00114233
0.00111627
0.00109456
0.00107665
0.00106196
0.00104995
0.00104015
0.00103217
0.00102567
0.00102039
0.00101611
0.00101265
0.00100985
0.00100761
0.0010058
0.00100436
0.00100321
0.00100229
0.00100157
0.00100099
0.00100054
0.00100018
0.000999895
0.000999673
0.000999498
0.000999361
0.000999253
0.000999168
0.000999101
0.000999047
0.000999005
0.00099897
0.000998942
0.000998919
0.0009989
0.000998884
0.00099887
0.000998858
0.000998847
0.000998837
0.000998829
0.00099882
0.000998813
0.0009988
0.000910147
0.00090638
0.00090294
0.000900027
0.000897849
0.000896665
0.00089685
0.000898797
0.000902782
0.000908974
0.000917556
0.000928822
0.000943197
0.000961156
0.000983109
0.00100929
0.00103971
0.00107412
0.00111201
0.00115269
0.00119526
0.00123872
0.00128198
0.00132396
0.00136361
0.00140007
0.00143279
0.00146166
0.00148706
0.00150968
0.00153006
0.00154826
0.00156369
0.00157559
0.0015836
0.00158826
0.00159095
0.00159334
0.00159673
0.00160153
0.00160718
0.00161229
0.00161492
0.00161297
0.00160444
0.00158782
0.0015624
0.0015284
0.00148703
0.00144029
0.00139062
0.00134056
0.00129234
0.00124764
0.00120748
0.00117227
0.00114199
0.00111635
0.00109491
0.00107716
0.00106256
0.0010506
0.00104083
0.00103284
0.00102633
0.00102102
0.0010167
0.00101319
0.00101034
0.00100804
0.00100618
0.00100469
0.00100349
0.00100252
0.00100175
0.00100114
0.00100064
0.00100025
0.000999935
0.000999684
0.000999483
0.000999323
0.000999194
0.000999091
0.000999007
0.000998939
0.000998884
0.000998838
0.0009988
0.000998768
0.000998742
0.000998719
0.000998699
0.000998682
0.000998666
0.000998653
0.000998641
0.00099863
0.00099862
0.000998603
0.000954339
0.000951843
0.000949655
0.000947973
0.000947005
0.000946965
0.00094809
0.000950641
0.000954881
0.000961055
0.00096939
0.000980102
0.00099341
0.00100952
0.00102861
0.00105077
0.00107597
0.00110407
0.00113475
0.00116754
0.00120186
0.00123699
0.00127215
0.00130651
0.00133929
0.00136979
0.00139757
0.00142255
0.00144502
0.00146555
0.00148457
0.00150202
0.00151726
0.0015294
0.00153791
0.00154312
0.00154616
0.00154858
0.00155168
0.00155604
0.00156135
0.00156656
0.00157007
0.00156999
0.00156443
0.00155177
0.00153105
0.00150217
0.00146595
0.00142402
0.00137859
0.00133203
0.00128655
0.00124388
0.00120516
0.00117094
0.00114134
0.00111616
0.00109501
0.00107744
0.00106295
0.00105105
0.00104131
0.00103335
0.00102683
0.00102151
0.00101716
0.00101362
0.00101074
0.0010084
0.0010065
0.00100496
0.00100372
0.00100271
0.0010019
0.00100125
0.00100072
0.00100029
0.000999949
0.000999671
0.000999447
0.000999265
0.000999116
0.000998995
0.000998896
0.000998814
0.000998746
0.00099869
0.000998642
0.000998602
0.000998568
0.000998539
0.000998513
0.000998491
0.000998472
0.000998454
0.000998439
0.000998425
0.000998413
0.000998393
0.00098085
0.000979407
0.00097824
0.000977522
0.000977437
0.000978176
0.000979931
0.0009829
0.000987279
0.000993262
0.00100103
0.00101077
0.00102261
0.0010367
0.00105313
0.00107193
0.00109308
0.00111645
0.00114183
0.0011689
0.00119723
0.00122631
0.00125556
0.00128436
0.00131209
0.00133821
0.00136235
0.00138446
0.00140477
0.00142377
0.00144179
0.00145874
0.00147391
0.00148636
0.00149544
0.00150126
0.00150479
0.0015074
0.00151038
0.0015144
0.00151938
0.00152451
0.00152852
0.00152976
0.00152649
0.00151709
0.00150044
0.00147613
0.00144465
0.0014073
0.00136599
0.00132292
0.00128021
0.00123963
0.00120242
0.00116926
0.00114038
0.00111567
0.00109484
0.00107747
0.0010631
0.00105129
0.0010416
0.00103366
0.00102716
0.00102184
0.00101749
0.00101393
0.00101103
0.00100866
0.00100673
0.00100516
0.00100388
0.00100284
0.001002
0.00100131
0.00100075
0.0010003
0.000999931
0.00099963
0.000999384
0.000999183
0.000999017
0.00099888
0.000998767
0.000998672
0.000998593
0.000998527
0.000998471
0.000998423
0.000998382
0.000998346
0.000998316
0.000998289
0.000998265
0.000998245
0.000998226
0.00099821
0.000998195
0.000998173
0.000995426
0.000994745
0.000994309
0.000994259
0.000994752
0.000995948
0.000998012
0.00100111
0.00100539
0.00101101
0.00101812
0.00102684
0.00103729
0.00104958
0.00106375
0.00107984
0.00109782
0.00111759
0.00113901
0.00116184
0.00118576
0.00121039
0.00123529
0.00125997
0.00128396
0.00130681
0.00132823
0.00134817
0.00136686
0.00138469
0.00140197
0.00141854
0.00143371
0.00144649
0.00145613
0.00146259
0.00146665
0.00146956
0.00147256
0.00147637
0.00148104
0.00148602
0.00149026
0.00149239
0.00149083
0.00148404
0.0014708
0.0014505
0.00142332
0.00139025
0.00135289
0.00131324
0.00127331
0.00123488
0.00119925
0.0011672
0.00113909
0.0011149
0.0010944
0.00107725
0.00106303
0.00105131
0.00104168
0.00103378
0.00102731
0.001022
0.00101766
0.0010141
0.00101118
0.0010088
0.00100685
0.00100526
0.00100396
0.0010029
0.00100203
0.00100132
0.00100074
0.00100026
0.000999874
0.000999554
0.00099929
0.000999073
0.000998892
0.000998742
0.000998617
0.000998512
0.000998423
0.000998348
0.000998284
0.00099823
0.000998183
0.000998142
0.000998107
0.000998076
0.000998049
0.000998025
0.000998004
0.000997985
0.000997969
0.000997944
0.00100274
0.00100254
0.00100256
0.00100291
0.00100372
0.00100513
0.00100727
0.00101028
0.00101429
0.00101944
0.00102583
0.00103358
0.00104278
0.0010535
0.0010658
0.0010797
0.00109518
0.00111217
0.00113055
0.00115015
0.00117074
0.001192
0.00121361
0.00123518
0.00125631
0.00127666
0.00129598
0.00131424
0.00133164
0.00134854
0.0013652
0.00138146
0.00139663
0.0014097
0.00141986
0.00142694
0.00143156
0.00143484
0.00143794
0.00144162
0.00144606
0.00145085
0.00145516
0.00145785
0.00145754
0.0014528
0.00144237
0.00142552
0.00140217
0.00137301
0.00133938
0.00130305
0.0012659
0.00122965
0.00119565
0.00116478
0.00113749
0.00111385
0.00109372
0.00107682
0.00106275
0.00105113
0.00104157
0.00103372
0.00102728
0.001022
0.00101767
0.00101411
0.0010112
0.00100882
0.00100686
0.00100526
0.00100395
0.00100287
0.00100199
0.00100126
0.00100066
0.00100017
0.00099977
0.000999436
0.000999159
0.000998929
0.000998737
0.000998577
0.000998442
0.000998329
0.000998232
0.000998151
0.000998081
0.000998021
0.000997969
0.000997924
0.000997886
0.000997852
0.000997822
0.000997795
0.000997772
0.000997751
0.000997734
0.000997707
0.00100605
0.00100612
0.00100638
0.00100694
0.00100788
0.00100932
0.00101139
0.00101419
0.00101784
0.00102246
0.00102814
0.00103497
0.00104305
0.00105242
0.00106315
0.00107524
0.00108869
0.00110345
0.00111943
0.0011365
0.00115447
0.0011731
0.00119213
0.00121123
0.00123011
0.00124846
0.00126608
0.00128296
0.00129929
0.00131539
0.0013315
0.00134746
0.00136259
0.0013759
0.00138652
0.00139417
0.00139932
0.00140298
0.00140624
0.00140988
0.00141414
0.00141874
0.00142303
0.00142606
0.00142664
0.00142346
0.00141532
0.00140137
0.00138137
0.00135576
0.00132561
0.00129246
0.00125803
0.00122398
0.00119166
0.00116202
0.00113559
0.00111255
0.00109283
0.00107618
0.00106229
0.00105077
0.00104129
0.00103349
0.00102709
0.00102184
0.00101753
0.00101399
0.00101109
0.00100871
0.00100676
0.00100515
0.00100384
0.00100276
0.00100186
0.00100113
0.00100053
0.00100003
0.000999614
0.000999271
0.000998986
0.000998747
0.000998548
0.000998381
0.000998239
0.00099812
0.000998018
0.000997932
0.000997858
0.000997794
0.000997739
0.000997691
0.000997649
0.000997613