/*--------------------------------*- C++ -*----------------------------------*\
  =========                 |
  \\      /  F ield         | OpenFOAM: The Open Source CFD Toolbox
   \\    /   O peration     | Website:  https://openfoam.org
    \\  /    A nd           | Version:  10
     \\/     M anipulation  |
\*---------------------------------------------------------------------------*/
FoamFile
{
    format      ascii;
    class       volScalarField;
    location    "0.03";
    object      p;
}
// * * * * * * * * * * * * * * * * * * * * * * * * * * * * * * * * * * * * * //

dimensions      [0 2 -2 0 0 0 0];

internalField   nonuniform List<scalar> 
6820
(
-8.21079
-9.57558
-9.99101
-10.0897
-10.1745
-10.2308
-10.2675
-10.2987
-10.3275
-10.3548
-10.3816
-10.4086
-10.436
-10.4639
-10.4926
-10.522
-10.5522
-10.5834
-10.6153
-10.6482
-10.6817
-10.716
-10.7507
-10.7857
-10.8206
-10.8547
-10.8873
-10.9169
-10.9423
-10.9561
-10.9622
-10.9185
-10.8291
-11.0107
-10.6071
-10.3158
-10.2229
-10.2283
-10.25
-10.2739
-10.3005
-10.3277
-10.3548
-10.3816
-10.4085
-10.4358
-10.4635
-10.4918
-10.5209
-10.5507
-10.5815
-10.6131
-10.6457
-10.679
-10.7131
-10.7478
-10.7829
-10.818
-10.8527
-10.8864
-10.9186
-10.9468
-10.976
-10.9893
-11.0462
-11.0572
-9.86754
-9.73994
-9.96613
-10.1078
-10.1735
-10.2228
-10.2607
-10.2929
-10.3224
-10.3502
-10.3774
-10.4045
-10.4319
-10.4598
-10.4884
-10.5178
-10.548
-10.5791
-10.6111
-10.644
-10.6777
-10.7122
-10.7473
-10.7828
-10.8184
-10.8538
-10.8884
-10.9217
-10.9522
-10.9807
-11.0011
-11.0241
-11.011
-10.2338
-10.2514
-10.2301
-10.2094
-10.2214
-10.2467
-10.2727
-10.2987
-10.3252
-10.3516
-10.378
-10.4048
-10.4319
-10.4597
-10.4881
-10.5173
-10.5473
-10.5783
-10.6101
-10.6429
-10.6765
-10.711
-10.7462
-10.7819
-10.818
-10.8542
-10.8901
-10.9254
-10.9592
-10.9929
-11.0223
-11.0594
-11.0844
-10.1232
-10.0696
-10.1154
-10.1637
-10.2029
-10.2379
-10.2683
-10.2965
-10.3238
-10.3505
-10.3769
-10.4036
-10.4306
-10.4582
-10.4865
-10.5156
-10.5456
-10.5765
-10.6083
-10.6411
-10.6749
-10.7095
-10.745
-10.7812
-10.818
-10.8552
-10.8926
-10.9301
-10.9673
-11.005
-11.0413
-11.0821
-11.1176
-10.1635
-10.1577
-10.1779
-10.1978
-10.22
-10.2462
-10.2726
-10.2986
-10.3246
-10.3505
-10.3764
-10.4027
-10.4295
-10.4569
-10.485
-10.5139
-10.5437
-10.5745
-10.6063
-10.639
-10.6728
-10.7075
-10.7433
-10.7799
-10.8174
-10.8556
-10.8946
-10.9344
-10.9749
-11.017
-11.0601
-11.1082
-11.158
-10.1616
-10.1515
-10.1683
-10.1929
-10.2188
-10.246
-10.2726
-10.2984
-10.324
-10.3495
-10.3752
-10.4012
-10.4277
-10.4548
-10.4827
-10.5115
-10.5411
-10.5717
-10.6034
-10.636
-10.6698
-10.7047
-10.7406
-10.7777
-10.8159
-10.8552
-10.8958
-10.9378
-10.9815
-11.0277
-11.0767
-11.1312
-11.1909
-10.1703
-10.168
-10.183
-10.2039
-10.2259
-10.2499
-10.2745
-10.299
-10.3237
-10.3486
-10.3738
-10.3994
-10.4255
-10.4524
-10.48
-10.5084
-10.5378
-10.5682
-10.5997
-10.6322
-10.6659
-10.7009
-10.737
-10.7744
-10.8133
-10.8536
-10.8956
-10.9397
-10.9862
-11.0361
-11.09
-11.1501
-11.2176
-10.1775
-10.1771
-10.1894
-10.2081
-10.2289
-10.2517
-10.2752
-10.299
-10.323
-10.3473
-10.3719
-10.3971
-10.4229
-10.4493
-10.4766
-10.5047
-10.5338
-10.5639
-10.5951
-10.6275
-10.6611
-10.696
-10.7322
-10.77
-10.8093
-10.8505
-10.8938
-10.9396
-10.9885
-11.0413
-11.0991
-11.1635
-11.2362
-10.1846
-10.1858
-10.197
-10.2139
-10.2331
-10.2542
-10.2763
-10.299
-10.3222
-10.3458
-10.3698
-10.3945
-10.4198
-10.4458
-10.4726
-10.5004
-10.5291
-10.5588
-10.5897
-10.6218
-10.6552
-10.69
-10.7262
-10.7641
-10.8039
-10.8457
-10.8899
-10.9371
-10.9877
-11.0428
-11.1032
-11.1705
-11.2464
-10.1912
-10.1932
-10.2033
-10.2186
-10.2363
-10.256
-10.277
-10.2987
-10.321
-10.3439
-10.3673
-10.3914
-10.4162
-10.4417
-10.468
-10.4953
-10.5236
-10.5529
-10.5834
-10.6152
-10.6482
-10.6828
-10.7189
-10.7568
-10.7967
-10.8389
-10.8837
-10.9317
-10.9835
-11.0399
-11.1018
-11.1706
-11.2477
-10.1972
-10.1996
-10.2089
-10.2228
-10.2392
-10.2576
-10.2774
-10.2981
-10.3196
-10.3417
-10.3645
-10.3879
-10.4121
-10.437
-10.4628
-10.4896
-10.5173
-10.5461
-10.5761
-10.6074
-10.6401
-10.6742
-10.7101
-10.7478
-10.7876
-10.8298
-10.8749
-10.9232
-10.9754
-11.0323
-11.0946
-11.1635
-11.2402
-10.2026
-10.2051
-10.2136
-10.2263
-10.2415
-10.2587
-10.2774
-10.2972
-10.3178
-10.3391
-10.3611
-10.3839
-10.4074
-10.4317
-10.4569
-10.483
-10.5102
-10.5384
-10.5678
-10.5985
-10.6306
-10.6642
-10.6996
-10.7369
-10.7763
-10.8183
-10.8631
-10.9112
-10.9632
-11.0196
-11.0814
-11.1492
-11.224
-10.2072
-10.2097
-10.2176
-10.2292
-10.2433
-10.2594
-10.2771
-10.2958
-10.3155
-10.336
-10.3573
-10.3793
-10.4021
-10.4258
-10.4503
-10.4757
-10.5021
-10.5296
-10.5583
-10.5883
-10.6197
-10.6527
-10.6873
-10.724
-10.7627
-10.804
-10.8481
-10.8955
-10.9465
-11.0018
-11.062
-11.1277
-11.1995
-10.211
-10.2134
-10.2207
-10.2315
-10.2446
-10.2596
-10.2763
-10.2941
-10.3128
-10.3325
-10.353
-10.3742
-10.3962
-10.4191
-10.4428
-10.4675
-10.4931
-10.5198
-10.5477
-10.5768
-10.6074
-10.6394
-10.6732
-10.7089
-10.7467
-10.7869
-10.8299
-10.8759
-10.9254
-10.9788
-11.0366
-11.0992
-11.1671
-10.214
-10.2163
-10.2231
-10.233
-10.2452
-10.2593
-10.2749
-10.2918
-10.3096
-10.3284
-10.348
-10.3684
-10.3896
-10.4117
-10.4345
-10.4583
-10.483
-10.5088
-10.5358
-10.5639
-10.5934
-10.6244
-10.657
-10.6915
-10.728
-10.7668
-10.8082
-10.8524
-10.8997
-10.9506
-11.0053
-11.0641
-11.1274
-10.2163
-10.2184
-10.2247
-10.2339
-10.2452
-10.2583
-10.273
-10.2889
-10.3059
-10.3238
-10.3425
-10.362
-10.3823
-10.4034
-10.4254
-10.4482
-10.4719
-10.4967
-10.5225
-10.5495
-10.5778
-10.6075
-10.6388
-10.6717
-10.7066
-10.7436
-10.783
-10.8249
-10.8696
-10.9173
-10.9683
-11.0227
-11.0808
-10.2177
-10.2196
-10.2255
-10.234
-10.2445
-10.2567
-10.2705
-10.2855
-10.3015
-10.3185
-10.3363
-10.3549
-10.3742
-10.3944
-10.4153
-10.437
-10.4597
-10.4833
-10.5079
-10.5336
-10.5605
-10.5887
-10.6183
-10.6496
-10.6825
-10.7174
-10.7543
-10.7935
-10.8351
-10.8792
-10.926
-10.9756
-11.028
-10.2182
-10.2201
-10.2255
-10.2333
-10.2431
-10.2545
-10.2674
-10.2815
-10.2966
-10.3126
-10.3294
-10.347
-10.3653
-10.3844
-10.4043
-10.4249
-10.4463
-10.4686
-10.4918
-10.5161
-10.5414
-10.5679
-10.5957
-10.625
-10.6557
-10.6881
-10.7223
-10.7583
-10.7964
-10.8366
-10.8788
-10.9232
-10.9697
-10.218
-10.2197
-10.2247
-10.2319
-10.2409
-10.2516
-10.2636
-10.2767
-10.2909
-10.306
-10.3218
-10.3384
-10.3556
-10.3736
-10.3923
-10.4116
-10.4317
-10.4526
-10.4744
-10.497
-10.5206
-10.5452
-10.571
-10.5979
-10.6262
-10.6559
-10.687
-10.7196
-10.7539
-10.7897
-10.8272
-10.8662
-10.9066
-10.2168
-10.2184
-10.223
-10.2297
-10.238
-10.2479
-10.2591
-10.2713
-10.2846
-10.2986
-10.3135
-10.329
-10.3451
-10.3619
-10.3793
-10.3973
-10.416
-10.4354
-10.4555
-10.4763
-10.498
-10.5206
-10.5441
-10.5686
-10.5941
-10.6208
-10.6486
-10.6776
-10.7078
-10.7391
-10.7715
-10.805
-10.8393
-10.2149
-10.2163
-10.2206
-10.2267
-10.2344
-10.2435
-10.2538
-10.2652
-10.2775
-10.2906
-10.3043
-10.3187
-10.3337
-10.3492
-10.3653
-10.3819
-10.3991
-10.4168
-10.4352
-10.4541
-10.4738
-10.4941
-10.5152
-10.537
-10.5596
-10.5831
-10.6074
-10.6325
-10.6585
-10.6851
-10.7124
-10.7403
-10.7685
-10.2121
-10.2134
-10.2173
-10.2229
-10.23
-10.2384
-10.2479
-10.2584
-10.2697
-10.2818
-10.2945
-10.3077
-10.3215
-10.3357
-10.3504
-10.3655
-10.3811
-10.3971
-10.4136
-10.4305
-10.4479
-10.4659
-10.4843
-10.5034
-10.5229
-10.543
-10.5637
-10.5848
-10.6064
-10.6283
-10.6505
-10.6728
-10.695
-10.2084
-10.2097
-10.2132
-10.2183
-10.2248
-10.2324
-10.2412
-10.2508
-10.2612
-10.2722
-10.2838
-10.2959
-10.3084
-10.3212
-10.3345
-10.348
-10.3619
-10.3761
-10.3906
-10.4054
-10.4205
-10.436
-10.4518
-10.4678
-10.4842
-10.5008
-10.5177
-10.5348
-10.5519
-10.5691
-10.5861
-10.603
-10.6193
-10.2039
-10.205
-10.2082
-10.2129
-10.2188
-10.2258
-10.2337
-10.2425
-10.252
-10.262
-10.2725
-10.2834
-10.2946
-10.3061
-10.3178
-10.3297
-10.3418
-10.3541
-10.3666
-10.3792
-10.3919
-10.4047
-10.4177
-10.4307
-10.4438
-10.4569
-10.47
-10.4829
-10.4956
-10.5081
-10.5201
-10.5316
-10.5423
-10.1986
-10.1996
-10.2025
-10.2067
-10.2119
-10.2182
-10.2254
-10.2333
-10.2418
-10.2508
-10.2602
-10.2699
-10.2798
-10.2898
-10.3
-10.3103
-10.3206
-10.331
-10.3413
-10.3516
-10.3619
-10.3721
-10.3822
-10.3921
-10.4019
-10.4114
-10.4206
-10.4295
-10.4379
-10.4457
-10.4528
-10.4591
-10.4645
-10.1925
-10.1933
-10.1959
-10.1997
-10.2045
-10.2102
-10.2167
-10.2238
-10.2314
-10.2395
-10.2477
-10.2562
-10.2648
-10.2734
-10.282
-10.2906
-10.299
-10.3074
-10.3155
-10.3235
-10.3313
-10.3387
-10.3459
-10.3527
-10.3591
-10.3651
-10.3705
-10.3753
-10.3794
-10.3827
-10.3851
-10.3865
-10.3866
-10.1855
-10.1862
-10.1884
-10.1916
-10.1957
-10.2007
-10.2064
-10.2127
-10.2194
-10.2264
-10.2336
-10.2409
-10.2482
-10.2554
-10.2624
-10.2693
-10.276
-10.2824
-10.2884
-10.2941
-10.2993
-10.3041
-10.3084
-10.3122
-10.3153
-10.3177
-10.3195
-10.3203
-10.3203
-10.3193
-10.3172
-10.3138
-10.3092
-10.1778
-10.1785
-10.1806
-10.1837
-10.1875
-10.1921
-10.1973
-10.2029
-10.2088
-10.2148
-10.2209
-10.227
-10.2329
-10.2386
-10.2441
-10.2492
-10.2539
-10.2582
-10.262
-10.2652
-10.2679
-10.27
-10.2714
-10.272
-10.2718
-10.2708
-10.2689
-10.2659
-10.2619
-10.2567
-10.2503
-10.2425
-10.2332
-10.1691
-10.1693
-10.1704
-10.1724
-10.1753
-10.179
-10.1834
-10.1883
-10.1934
-10.1987
-10.2039
-10.209
-10.2138
-10.2183
-10.2224
-10.226
-10.229
-10.2315
-10.2333
-10.2344
-10.2347
-10.2342
-10.2329
-10.2306
-10.2274
-10.2231
-10.2178
-10.2112
-10.2035
-10.1944
-10.1839
-10.172
-10.1586
-10.1605
-10.1618
-10.1638
-10.1665
-10.1697
-10.1733
-10.1772
-10.1813
-10.1855
-10.1896
-10.1936
-10.1972
-10.2005
-10.2033
-10.2056
-10.2072
-10.2082
-10.2085
-10.208
-10.2066
-10.2044
-10.2012
-10.197
-10.1917
-10.1854
-10.1778
-10.1691
-10.159
-10.1476
-10.1347
-10.1204
-10.1046
-10.0872
-10.1486
-10.1465
-10.1452
-10.1456
-10.1475
-10.1506
-10.1544
-10.1586
-10.1628
-10.167
-10.1708
-10.1742
-10.177
-10.1792
-10.1807
-10.1813
-10.1811
-10.1799
-10.1778
-10.1746
-10.1704
-10.165
-10.1585
-10.1507
-10.1416
-10.1313
-10.1195
-10.1064
-10.0917
-10.0756
-10.0579
-10.0386
-10.0177
-10.145
-10.1496
-10.1522
-10.154
-10.1558
-10.1578
-10.16
-10.1622
-10.1644
-10.1664
-10.1681
-10.1692
-10.1698
-10.1697
-10.1688
-10.1671
-10.1645
-10.1609
-10.1563
-10.1506
-10.1437
-10.1356
-10.1262
-10.1156
-10.1036
-10.0901
-10.0753
-10.0589
-10.041
-10.0216
-10.0005
-9.97787
-9.95352
-10.1158
-10.106
-10.1004
-10.1011
-10.1047
-10.1096
-10.115
-10.1204
-10.1254
-10.1299
-10.1336
-10.1363
-10.1381
-10.1388
-10.1383
-10.1367
-10.1338
-10.1297
-10.1242
-10.1174
-10.1092
-10.0995
-10.0885
-10.0759
-10.0618
-10.0461
-10.0289
-10.0101
-9.98965
-9.96756
-9.94381
-9.91841
-9.89132
-10.1527
-10.1659
-10.1641
-10.159
-10.1549
-10.1525
-10.1511
-10.1502
-10.1494
-10.1486
-10.1474
-10.1458
-10.1435
-10.1404
-10.1365
-10.1316
-10.1255
-10.1184
-10.1099
-10.1002
-10.0892
-10.0768
-10.0629
-10.0475
-10.0306
-10.0121
-9.99205
-9.97038
-9.94707
-9.92211
-9.89549
-9.86723
-9.83727
-10.0442
-10.007
-10.004
-10.0202
-10.035
-10.0482
-10.0603
-10.0709
-10.0799
-10.0872
-10.0927
-10.0964
-10.0984
-10.0988
-10.0975
-10.0945
-10.0899
-10.0836
-10.0756
-10.066
-10.0547
-10.0417
-10.0269
-10.0105
-9.99232
-9.97241
-9.95077
-9.92739
-9.90228
-9.87545
-9.84691
-9.81669
-9.78479
-10.2482
-10.2707
-10.237
-10.1976
-10.1742
-10.1629
-10.1545
-10.1477
-10.1423
-10.1376
-10.1331
-10.1283
-10.1231
-10.1171
-10.1103
-10.1024
-10.0934
-10.0832
-10.0716
-10.0586
-10.0442
-10.0282
-10.0107
-9.99156
-9.97079
-9.94836
-9.92424
-9.89843
-9.87091
-9.84171
-9.81081
-9.77825
-9.74401
-9.83283
-9.75113
-9.80723
-9.8872
-9.93514
-9.96688
-9.99399
-10.0159
-10.0326
-10.0454
-10.0547
-10.061
-10.0646
-10.0657
-10.0644
-10.061
-10.0554
-10.0478
-10.0381
-10.0265
-10.013
-9.99753
-9.98014
-9.96086
-9.93969
-9.91666
-9.89178
-9.86508
-9.83658
-9.80632
-9.77434
-9.7407
-9.7054
-10.8058
-10.5266
-10.3194
-10.2233
-10.1845
-10.1595
-10.1409
-10.1285
-10.1199
-10.113
-10.107
-10.1012
-10.0951
-10.0883
-10.0807
-10.072
-10.062
-10.0506
-10.0378
-10.0234
-10.0074
-9.98978
-9.97041
-9.94929
-9.92639
-9.90169
-9.87519
-9.84687
-9.81676
-9.78485
-9.75117
-9.71575
-9.67856
-8.84647
-9.40722
-9.70847
-9.82206
-9.8979
-9.95566
-9.99428
-10.0206
-10.0393
-10.0519
-10.0599
-10.0641
-10.0653
-10.0638
-10.0598
-10.0536
-10.0452
-10.0348
-10.0223
-10.0078
-9.99136
-9.97293
-9.95255
-9.93023
-9.90599
-9.87984
-9.85182
-9.82195
-9.79026
-9.75682
-9.72164
-9.68485
-9.64636
-10.673
-10.0692
-10.0608
-10.6303
-11.5677
-12.6659
-13.8384
-15.0084
-16.1365
-17.2032
-18.1872
-19.0651
-19.8164
-20.418
-20.8454
-21.0734
-21.076
-20.8268
-20.3018
-19.4867
-18.3862
-17.027
-15.4459
-13.7116
-11.922
-10.1619
-8.49604
-6.97956
-5.64408
-4.49471
-3.51956
-2.69969
-2.01464
-1.44496
-0.973432
-0.58528
-0.267912
-0.0105724
0.19597
0.359662
0.48733
0.584823
0.657135
0.708517
0.742582
0.762401
0.770588
0.769372
0.760668
0.746122
0.72715
0.704972
0.680626
0.65497
0.628684
0.602283
0.57614
0.550526
0.525632
0.501596
0.478507
0.456417
0.435346
0.41529
0.396227
0.378121
0.360927
0.344593
0.329063
0.314281
0.300188
0.286726
0.273838
0.26147
0.249569
0.238085
0.226972
0.216186
0.205685
0.195433
0.185394
0.175535
0.165827
0.156244
0.146759
0.137352
0.128
0.118687
0.109393
0.100105
0.0908078
0.0814903
0.0721354
0.0627442
0.0532826
0.0437905
0.0341596
0.024584
0.0146474
0.00516943
-11.3492
-11.0452
-10.856
-11.1907
-11.8415
-12.6992
-13.7048
-14.7731
-15.8404
-16.8629
-17.8053
-18.6392
-19.3419
-19.8908
-20.2632
-20.4359
-20.385
-20.0881
-19.5301
-18.7112
-17.6439
-16.3462
-14.8601
-13.2539
-11.5954
-9.95065
-8.38577
-6.95205
-5.67803
-4.57075
-3.62249
-2.81839
-2.14123
-1.57399
-1.10119
-0.709251
-0.386447
-0.122655
0.0908944
0.261814
0.396703
0.501261
0.580391
0.638292
0.678546
0.704206
0.717872
0.721767
0.717801
0.707619
0.692645
0.674107
0.653055
0.630365
0.60674
0.582722
0.558715
0.535016
0.51184
0.489344
0.467635
0.446779
0.42681
0.407738
0.38955
0.372224
0.355722
0.340003
0.325021
0.310724
0.29706
0.283979
0.271428
0.259358
0.24772
0.236469
0.225561
0.214955
0.204614
0.194501
0.184584
0.174834
0.16522
0.155719
0.146307
0.136963
0.127667
0.118402
0.10915
0.0998992
0.0906338
0.0813443
0.0720145
0.0626448
0.0532037
0.0437273
0.0341168
0.024547
0.0146448
0.00513627
-11.0116
-10.8379
-10.8444
-11.2334
-11.8891
-12.7067
-13.6288
-14.5969
-15.5627
-16.4878
-17.3434
-18.1044
-18.7443
-19.2365
-19.5563
-19.681
-19.5914
-19.2747
-18.7242
-17.9377
-16.9215
-15.7004
-14.3191
-12.8269
-11.2806
-9.74408
-8.27617
-6.92166
-5.70726
-4.64181
-3.72105
-2.93367
-2.26541
-1.70155
-1.22827
-0.833202
-0.505479
-0.235622
-0.015341
0.162624
0.304621
0.416181
0.502101
0.566515
0.61297
0.644496
0.663681
0.672739
0.673574
0.66783
0.656935
0.642122
0.62445
0.604812
0.583932
0.562378
0.540581
0.518865
0.49747
0.476572
0.456295
0.436721
0.417899
0.39985
0.382575
0.366061
0.350282
0.335206
0.320794
0.307004
0.293789
0.281106
0.268907
0.257149
0.245786
0.234779
0.224085
0.213668
0.203493
0.193527
0.183739
0.1741
0.164586
0.155171
0.145835
0.136557
0.127319
0.118103
0.108896
0.0996836
0.0904518
0.0811917
0.0718881
0.0625408
0.0531213
0.0436611
0.034072
0.0245082
0.014642
0.00510171
-11.1617
-11.1594
-11.2259
-11.5542
-12.105
-12.7996
-13.5915
-14.4356
-15.289
-16.1164
-16.886
-17.568
-18.1357
-18.565
-18.8338
-18.9226
-18.815
-18.4975
-17.961
-17.2042
-16.2409
-15.0985
-13.8105
-12.4196
-10.979
-9.54474
-8.16787
-6.88848
-5.73171
-4.70766
-3.81486
-3.04506
-2.38669
-1.82715
-1.35423
-0.956734
-0.624663
-0.349185
-0.122501
0.0622787
0.211232
0.329702
0.422361
0.493267
0.545922
0.58333
0.608064
0.622328
0.628019
0.62678
0.620036
0.609026
0.594818
0.578314
0.560259
0.541245
0.521731
0.502067
0.482515
0.463273
0.444481
0.426238
0.408606
0.39162
0.375295
0.359626
0.344601
0.330196
0.316379
0.303117
0.290372
0.278104
0.266274
0.254841
0.243766
0.233012
0.222542
0.212323
0.202322
0.192508
0.182854
0.173334
0.163923
0.154599
0.145341
0.136132
0.126954
0.117792
0.108631
0.0994582
0.0902616
0.0810323
0.0717559
0.0624322
0.053035
0.0435919
0.0340252
0.0244675
0.0146386
0.00506602
-11.1755
-11.2105
-11.3231
-11.639
-12.1411
-12.7717
-13.489
-14.2509
-15.0188
-15.7603
-16.4465
-17.0515
-17.5516
-17.9243
-18.1483
-18.2044
-18.0764
-17.7524
-17.2281
-16.5074
-15.6017
-14.5319
-13.3293
-12.0338
-10.6921
-9.35277
-8.061
-6.8527
-5.75146
-4.76817
-3.90363
-3.15218
-2.50461
-1.95032
-1.47861
-1.07942
-0.743617
-0.463011
-0.230302
-0.0389838
0.116735
0.241989
0.341311
0.418669
0.477508
0.520801
0.551102
0.570603
0.581194
0.584513
0.581984
0.574846
0.564172
0.550878
0.535723
0.519324
0.502164
0.484617
0.466971
0.449441
0.432186
0.415322
0.398925
0.383043
0.367703
0.352915
0.338674
0.324966
0.31177
0.299059
0.286803
0.274969
0.263523
0.25243
0.241655
0.231167
0.220931
0.210918
0.201098
0.191445
0.181931
0.172533
0.16323
0.154
0.144826
0.135689
0.126574
0.117466
0.108353
0.0992228
0.090063
0.0808657
0.0716179
0.0623187
0.0529449
0.0435196
0.0339761
0.024425
0.0146346
0.00502949
-11.2314
-11.3218
-11.4773
-11.7772
-12.221
-12.7724
-13.4013
-14.0738
-14.7545
-15.4125
-16.0208
-16.5548
-16.9915
-17.3095
-17.489
-17.5131
-17.3681
-17.0447
-16.5391
-15.854
-15.0003
-13.9982
-12.8761
-11.6694
-10.419
-9.16778
-7.9555
-6.81441
-5.76653
-4.82326
-3.98715
-3.2547
-2.61881
-2.07067
-1.60101
-1.20088
-0.861988
-0.576785
-0.338473
-0.140936
0.021316
0.153197
0.259079
0.342826
0.407817
0.456985
0.49286
0.517619
0.533143
0.541064
0.542801
0.539596
0.532524
0.522509
0.510326
0.496612
0.481874
0.46651
0.450829
0.435068
0.419403
0.403965
0.388847
0.37411
0.359794
0.34592
0.332493
0.319512
0.306962
0.294825
0.283079
0.271697
0.260651
0.249912
0.239451
0.22924
0.219248
0.209451
0.199821
0.190333
0.180966
0.171697
0.162507
0.153376
0.144287
0.135226
0.126176
0.117127
0.108064
0.0989769
0.0898555
0.0806917
0.0714737
0.0622001
0.0528507
0.043444
0.0339246
0.0243807
0.0146297
0.00499237
-11.2738
-11.3877
-11.5601
-11.8433
-12.2426
-12.7334
-13.2898
-13.8841
-14.4866
-15.069
-15.6059
-16.0739
-16.4518
-16.7198
-16.86
-16.8572
-16.6991
-16.3774
-15.8893
-15.2382
-14.4345
-13.4964
-12.4493
-11.3247
-10.1588
-8.9893
-7.85126
-6.77364
-5.777
-4.87291
-4.06527
-3.35237
-2.72895
-2.18783
-1.72106
-1.32075
-0.979433
-0.690192
-0.446734
-0.243338
-0.0748217
0.0634918
0.175803
0.265854
0.336946
0.391964
0.433407
0.463434
0.483914
0.49647
0.502519
0.503299
0.499888
0.493216
0.484073
0.473112
0.460861
0.447743
0.434087
0.42015
0.406126
0.392163
0.378367
0.364816
0.35156
0.338634
0.326054
0.313827
0.301948
0.290409
0.279194
0.268282
0.257654
0.247285
0.237151
0.227228
0.217492
0.207919
0.198487
0.189173
0.179959
0.170824
0.161751
0.152723
0.143725
0.134742
0.125761
0.116772
0.107761
0.0987201
0.0896388
0.0805099
0.0713231
0.0620762
0.0527523
0.043365
0.0338707
0.0243345
0.0146236
0.00495497
-11.3091
-11.4391
-11.6223
-11.891
-12.2511
-12.6865
-13.1767
-13.6989
-14.2277
-14.7382
-15.2072
-15.6133
-15.9365
-16.1584
-16.2629
-16.2359
-16.0665
-15.7478
-15.2777
-14.6595
-13.9029
-13.0244
-12.0468
-10.9983
-9.91057
-8.81685
-7.74815
-6.73049
-5.78296
-4.91714
-4.13789
-3.445
-2.83478
-2.30148
-1.83842
-1.4387
-1.09562
-0.802926
-0.554806
-0.345942
-0.171465
-0.0269457
0.0916323
0.187878
0.265001
0.325827
0.372818
0.408111
0.433559
0.450776
0.461172
0.465982
0.466284
0.463014
0.456972
0.448827
0.439128
0.428316
0.416743
0.404684
0.392352
0.37991
0.367481
0.355155
0.342998
0.331053
0.319351
0.307907
0.296726
0.285808
0.275144
0.264723
0.254529
0.244545
0.234751
0.225129
0.215659
0.20632
0.197094
0.187963
0.178908
0.169913
0.160962
0.152042
0.143137
0.134237
0.125328
0.116401
0.107445
0.0984519
0.0894124
0.0803201
0.0711657
0.0619467
0.0526494
0.0432824
0.033814
0.0242864
0.0146161
0.00491755
-11.3335
-11.4711
-11.6558
-11.9078
-12.2321
-12.6182
-13.0497
-13.5076
-13.9701
-14.4153
-14.8224
-15.1716
-15.4445
-15.6245
-15.6965
-15.648
-15.4695
-15.1547
-14.7022
-14.1153
-13.4029
-12.5801
-11.6671
-10.6888
-9.67343
-8.65003
-7.64611
-6.68506
-5.78458
-4.95603
-4.20501
-3.53247
-2.93608
-2.41137
-1.95279
-1.55439
-1.21024
-0.914686
-0.662412
-0.448497
-0.268395
-0.117926
0.00672888
0.109033
0.192095
0.25867
0.311176
0.35172
0.382138
0.404031
0.418801
0.427677
0.431737
0.431922
0.429037
0.423768
0.416679
0.408233
0.398798
0.38867
0.378079
0.367205
0.356185
0.345125
0.334103
0.323175
0.312381
0.301748
0.291291
0.281017
0.270926
0.261014
0.251272
0.241689
0.23225
0.222941
0.213747
0.204653
0.195642
0.186699
0.177811
0.168962
0.160139
0.151331
0.142524
0.13371
0.124876
0.116014
0.107115
0.0981719
0.0891761
0.0801219
0.0710014
0.0618115
0.0525418
0.0431962
0.0337545
0.0242363
0.014607
0.00488039
-11.3466
-11.4866
-11.6679
-11.9028
-12.1948
-12.5368
-12.9156
-13.3152
-13.7173
-14.1026
-14.4526
-14.7493
-14.976
-15.1175
-15.1601
-15.0926
-14.9064
-14.5962
-14.1608
-13.6036
-12.9328
-12.1617
-11.3084
-10.3952
-9.44666
-8.48853
-7.54513
-6.63752
-5.78203
-4.98972
-4.26665
-3.61471
-3.03269
-2.51727
-2.06392
-1.66757
-1.32301
-1.02519
-0.76928
-0.550754
-0.365385
-0.209251
-0.0787372
0.0294661
0.118353
0.190599
0.24857
0.294338
0.329716
0.35629
0.375451
0.388422
0.396279
0.399963
0.400288
0.397949
0.393527
0.3875
0.380257
0.372111
0.363309
0.354048
0.34448
0.334725
0.324874
0.314995
0.305141
0.295348
0.28564
0.276034
0.266538
0.257155
0.247882
0.238715
0.229644
0.220662
0.211756
0.202915
0.194128
0.185383
0.176667
0.16797
0.159281
0.150589
0.141885
0.13316
0.124404
0.11561
0.106771
0.0978798
0.0889295
0.079915
0.0708298
0.0616704
0.0524294
0.0431061
0.0336921
0.0241842
0.0145961
0.00484373
-11.3484
-11.4868
-11.6608
-11.8779
-12.14
-12.442
-12.7733
-13.1204
-13.4678
-13.7988
-14.0967
-14.3455
-14.5301
-14.6366
-14.6527
-14.5683
-14.3757
-14.0706
-13.6518
-13.1226
-12.4905
-11.7674
-10.9695
-10.1163
-9.22966
-8.33211
-7.44527
-6.58808
-5.77558
-5.01842
-4.32293
-3.69172
-3.12452
-2.61901
-2.17158
-1.77796
-1.43366
-1.13417
-0.875152
-0.652467
-0.462209
-0.300718
-0.164587
-0.0506689
0.0439071
0.121729
0.185099
0.23605
0.276367
0.307616
0.331177
0.348263
0.359947
0.36717
0.370749
0.37139
0.369685
0.36613
0.36113
0.355014
0.348048
0.340443
0.332368
0.323956
0.315312
0.306516
0.297631
0.288706
0.279773
0.270859
0.261979
0.253143
0.244357
0.235621
0.226933
0.218289
0.209682
0.201106
0.192552
0.184011
0.175476
0.166937
0.158387
0.149817
0.141219
0.132587
0.123912
0.11519
0.106412
0.0975752
0.0886724
0.0796993
0.0706509
0.0615231
0.052312
0.0430121
0.0336265
0.0241301
0.0145831
0.00480777
-11.3393
-11.4732
-11.6375
-11.8364
-12.0708
-12.3364
-12.6249
-12.9248
-13.2227
-13.5043
-13.7548
-13.9599
-14.1061
-14.1808
-14.173
-14.0737
-13.876
-13.5761
-13.1733
-12.6704
-12.0744
-11.3959
-10.6491
-9.85141
-9.02194
-8.18063
-7.34664
-6.53699
-5.76551
-5.04236
-4.37397
-3.76353
-3.21151
-2.71646
-2.27558
-1.88536
-1.54194
-1.24137
-0.979775
-0.753393
-0.558641
-0.39212
-0.250635
-0.131208
-0.0310993
0.0521824
0.120871
0.17695
0.222172
0.25808
0.286039
0.307252
0.322786
0.333578
0.340451
0.344114
0.345173
0.344137
0.341427
0.337389
0.332303
0.326396
0.319854
0.312822
0.305419
0.297738
0.289853
0.281822
0.27369
0.26549
0.257247
0.248978
0.240696
0.232407
0.224116
0.215823
0.207527
0.199225
0.190912
0.182584
0.174236
0.165862
0.157456
0.149013
0.140526
0.13199
0.1234
0.114751
0.106039
0.0972579
0.0884045
0.0794745
0.0704643
0.0613696
0.0521896
0.0429141
0.0335578
0.024074
0.014568
0.00477266
-11.3198
-11.4471
-11.6001
-11.7807
-11.9891
-12.2216
-12.4713
-12.7285
-12.9818
-13.2187
-13.4263
-13.5918
-13.7031
-13.7491
-13.7199
-13.6074
-13.4056
-13.1112
-12.7235
-12.2454
-11.683
-11.0457
-10.3462
-9.59969
-8.82311
-8.03402
-7.2494
-6.48455
-5.75215
-5.06181
-4.41999
-3.83024
-3.29367
-2.80953
-2.37578
-1.98956
-1.64763
-1.34656
-1.08291
-0.8533
-0.654457
-0.483248
-0.33669
-0.21198
-0.106514
-0.0179062
0.0560021
0.11714
0.16722
0.207761
0.240106
0.265449
0.284846
0.299232
0.309429
0.316153
0.320018
0.321544
0.321168
0.319249
0.316084
0.311917
0.306945
0.301329
0.2952
0.288665
0.281809
0.2747
0.267392
0.259929
0.252343
0.24466
0.236899
0.229074
0.221193
0.213264
0.205289
0.197271
0.189209
0.181102
0.172948
0.164745
0.156489
0.148176
0.139804
0.131369
0.122868
0.114296
0.10565
0.0969278
0.0881257
0.0792405
0.0702702
0.0612098
0.0520619
0.042812
0.0334858
0.0240158
0.0145506
0.00473849
-11.2906
-11.4098
-11.5503
-11.7129
-11.8969
-12.0992
-12.3138
-12.5325
-12.7455
-12.942
-13.1107
-13.2404
-13.3203
-13.3405
-13.2921
-13.1681
-12.9631
-12.6742
-12.3011
-11.8461
-11.3148
-10.7156
-10.0598
-9.36055
-8.63289
-7.89226
-7.15374
-6.43106
-5.73583
-5.0771
-4.46121
-3.89198
-3.37102
-2.89818
-2.47205
-2.09041
-1.75055
-1.44953
-1.18434
-0.951959
-0.749436
-0.573891
-0.422556
-0.292807
-0.182178
-0.0883942
-0.0093806
0.0567311
0.111611
0.156745
0.193456
0.222921
0.246186
0.264182
0.277728
0.287544
0.29425
0.298377
0.300373
0.300613
0.299409
0.297018
0.293651
0.289485
0.284664
0.279304
0.273504
0.267343
0.260884
0.254179
0.247271
0.240192
0.232969
0.225621
0.218165
0.210611
0.202969
0.195245
0.187443
0.179565
0.171612
0.163586
0.155485
0.147309
0.139056
0.130725
0.122314
0.113822
0.105246
0.0965849
0.0878361
0.0789974
0.0700683
0.0610437
0.0519291
0.0427059
0.0334105
0.0239557
0.014531
0.00470529
-11.2524
-11.3625
-11.49
-11.6349
-11.796
-11.9704
-12.1532
-12.3371
-12.5138
-12.674
-12.8077
-12.9052
-12.9568
-12.9538
-12.8885
-12.7544
-12.5471
-12.2638
-11.9043
-11.471
-10.9686
-10.4047
-9.78905
-9.13347
-8.45102
-7.75536
-7.05986
-6.37685
-5.71692
-5.08853
-4.49788
-3.94892
-3.44364
-2.98239
-2.56433
-2.18777
-1.8505
-1.55006
-1.28383
-1.04915
-0.843361
-0.663839
-0.508037
-0.373504
-0.257923
-0.15913
-0.0751415
-0.00415443
0.0554518
0.105129
0.146173
0.179743
0.206874
0.228486
0.245399
0.25833
0.267906
0.274666
0.27907
0.281505
0.282296
0.281715
0.279988
0.277304
0.273819
0.269664
0.264947
0.259758
0.25417
0.248245
0.242034
0.235577
0.228907
0.222052
0.215033
0.207867
0.200569
0.193149
0.185614
0.177973
0.170228
0.162385
0.154444
0.146409
0.13828
0.130057
0.121741
0.113331
0.104828
0.0962293
0.0875357
0.0787452
0.0698589
0.0608712
0.0517912
0.0425957
0.0333319
0.0238935
0.0145091
0.00467304
-11.206
-11.3063
-11.4206
-11.5482
-11.6878
-11.8367
-11.9905
-12.1431
-12.2871
-12.4146
-12.5169
-12.5854
-12.6117
-12.5881
-12.5078
-12.3651
-12.1561
-11.8784
-11.532
-11.1188
-10.6432
-10.1118
-9.53331
-8.91797
-8.2773
-7.62335
-6.96799
-6.32224
-5.69576
-5.09646
-4.53027
-4.00124
-3.51162
-3.06218
-2.65255
-2.28152
-1.94734
-1.64798
-1.3812
-1.14467
-0.936019
-0.752886
-0.592932
-0.453885
-0.333574
-0.229955
-0.141136
-0.065386
-0.00113857
0.0530182
0.0983521
0.136001
0.166983
0.192212
0.212498
0.228561
0.24103
0.25045
0.257291
0.261952
0.26477
0.266031
0.265974
0.264801
0.262681
0.259756
0.256147
0.251953
0.247258
0.242134
0.236637
0.230819
0.224718
0.21837
0.211801
0.205035
0.19809
0.190983
0.183725
0.176327
0.168798
0.161143
0.153369
0.145479
0.137478
0.129366
0.121148
0.112824
0.104394
0.0958612
0.0872247
0.0784841
0.069642
0.0606927
0.0516482
0.0424816
0.03325
0.0238294
0.014485
0.00464166
-11.1523
-11.2424
-11.3433
-11.4543
-11.5738
-11.6992
-11.8267
-11.9509
-12.0656
-12.1637
-12.2379
-12.2805
-12.2843
-12.2424
-12.1489
-11.9989
-11.7888
-11.5168
-11.1827
-10.7883
-10.3375
-9.8362
-9.29188
-8.71364
-8.11157
-7.49629
-6.87831
-6.26753
-5.67272
-5.10121
-4.55867
-4.04915
-3.57509
-3.1376
-2.73669
-2.37157
-2.04094
-1.74313
-1.47625
-1.2383
-1.0272
-0.840825
-0.67704
-0.533757
-0.408951
-0.3007
-0.207209
-0.126824
-0.0580334
0.000528551
0.0500976
0.091787
0.126599
0.155432
0.179093
0.198296
0.213673
0.225773
0.235075
0.241987
0.246859
0.249989
0.25163
0.251994
0.251264
0.249595
0.247116
0.243939
0.240158
0.235852
0.231088
0.225924
0.220408
0.214579
0.208473
0.202117
0.195536
0.188751
0.181778
0.174631
0.167322
0.159862
0.152259
0.14452
0.136649
0.128653
0.120536
0.112299
0.103947
0.0954811
0.0869035
0.0782144
0.0694179
0.0605082
0.0515003
0.0423637
0.0331651
0.0237635
0.0144589
0.00461104
-11.0921
-11.1717
-11.2595
-11.3545
-11.4551
-11.559
-11.6626
-11.7612
-11.8495
-11.9214
-11.9704
-11.99
-11.9738
-11.9158
-11.8108
-11.6546
-11.4441
-11.1776
-10.8552
-10.4783
-10.0506
-9.57694
-9.06413
-8.52008
-7.95366
-7.37421
-6.79105
-6.21304
-5.64814
-5.10312
-4.58338
-4.09288
-3.6342
-3.20871
-2.81674
-2.45788
-2.13119
-1.83535
-1.56881
-1.32987
-1.11672
-0.927453
-0.760162
-0.612926
-0.483869
-0.371193
-0.273201
-0.188318
-0.115096
-0.0522155
0.0015226
0.0472046
0.0858123
0.118231
0.145257
0.167601
0.185893
0.200687
0.212467
0.221651
0.228599
0.233622
0.236982
0.238907
0.239591
0.239198
0.237871
0.235731
0.232881
0.229411
0.225396
0.220901
0.215982
0.210686
0.205053
0.199118
0.192911
0.186456
0.179775
0.172886
0.165804
0.158544
0.151117
0.143532
0.135797
0.127919
0.119905
0.111759
0.103486
0.0950894
0.0865725
0.0779364
0.0691869
0.0603179
0.0513477
0.0422422
0.0330771
0.0236958
0.0144309
0.00458104
-11.0261
-11.0952
-11.1702
-11.25
-11.3331
-11.4171
-11.4989
-11.5746
-11.6392
-11.6876
-11.7143
-11.7134
-11.6795
-11.6073
-11.4925
-11.3311
-11.1207
-10.8598
-10.5484
-10.1879
-9.78136
-9.33329
-8.8495
-8.33695
-7.80342
-7.25714
-6.70638
-6.15904
-5.62235
-5.10253
-4.60468
-4.13266
-3.68912
-3.2756
-2.89273
-2.5404
-2.218
-1.92452
-1.65873
-1.4192
-1.20436
-1.01257
-0.842097
-0.691195
-0.558139
-0.441252
-0.338941
-0.249711
-0.17218
-0.10508
-0.0472497
0.00236583
0.0447263
0.0807007
0.111074
0.136549
0.157756
0.175249
0.189518
0.200988
0.21003
0.216962
0.222063
0.225568
0.227684
0.228587
0.22843
0.227343
0.225442
0.222823
0.219571
0.21576
0.21145
0.206698
0.201549
0.196045
0.190219
0.184102
0.17772
0.171095
0.164246
0.157191
0.149944
0.142517
0.134921
0.127165
0.119257
0.111204
0.103013
0.094687
0.0862324
0.0776507
0.0689494
0.0601224
0.0511907
0.0421172
0.0329864
0.0236264
0.0144013
0.00455152
-10.9551
-11.0138
-11.0765
-11.1419
-11.2086
-11.2744
-11.3366
-11.3914
-11.4349
-11.4624
-11.4692
-11.4502
-11.4007
-11.3163
-11.1929
-11.0274
-10.8176
-10.5621
-10.2611
-9.91588
-9.52903
-9.10452
-8.64744
-8.1639
-7.66072
-7.14514
-6.62448
-6.10582
-5.59567
-5.09977
-4.62289
-4.16875
-3.74003
-3.3384
-2.96471