/*--------------------------------*- C++ -*----------------------------------*\
  =========                 |
  \\      /  F ield         | OpenFOAM: The Open Source CFD Toolbox
   \\    /   O peration     | Website:  https://openfoam.org
    \\  /    A nd           | Version:  10
     \\/     M anipulation  |
\*---------------------------------------------------------------------------*/
FoamFile
{
    format      ascii;
    class       volVectorField;
    location    "0.03";
    object      U;
}
// * * * * * * * * * * * * * * * * * * * * * * * * * * * * * * * * * * * * * //

dimensions      [0 1 -1 0 0 0 0];

internalField   nonuniform List<vector> 
6820
(
(7.33662 -0.254729 0)
(7.37133 -0.152841 0)
(7.32973 -0.0595281 0)
(7.25361 -0.0118418 0)
(7.17719 0.0077474 0)
(7.10854 0.0136531 0)
(7.04894 0.0140478 0)
(6.99781 0.0125792 0)
(6.95369 0.0107352 0)
(6.91519 0.00906067 0)
(6.88125 0.00769385 0)
(6.85107 0.00662059 0)
(6.82405 0.00578347 0)
(6.79975 0.00512231 0)
(6.77784 0.00458678 0)
(6.75806 0.00413861 0)
(6.74022 0.00375005 0)
(6.72414 0.00340147 0)
(6.7097 0.00307955 0)
(6.69678 0.00277583 0)
(6.68526 0.0024857 0)
(6.67505 0.00220802 0)
(6.66605 0.00194521 0)
(6.65814 0.00170431 0)
(6.65119 0.00149821 0)
(6.64504 0.00135209 0)
(6.63944 0.00131226 0)
(6.63412 0.00142743 0)
(6.62816 0.00213263 0)
(6.62152 0.00250641 0)
(6.60976 0.00917931 0)
(6.59025 0.00716015 0)
(6.561 0.0220631 0)
(7.32388 0.121343 0)
(7.30448 0.123135 0)
(7.30917 0.0776345 0)
(7.32963 0.0523528 0)
(7.3481 0.0386616 0)
(7.3567 0.0307496 0)
(7.3564 0.0261734 0)
(7.35014 0.0232881 0)
(7.3402 0.0212374 0)
(7.32817 0.0196304 0)
(7.31512 0.0182712 0)
(7.30172 0.017059 0)
(7.28838 0.0159427 0)
(7.27537 0.0148952 0)
(7.26283 0.013901 0)
(7.25085 0.0129504 0)
(7.2395 0.0120369 0)
(7.2288 0.0111561 0)
(7.21876 0.010305 0)
(7.20938 0.0094826 0)
(7.20067 0.00868964 0)
(7.19262 0.00792957 0)
(7.1852 0.0072094 0)
(7.1784 0.00654191 0)
(7.17219 0.0059468 0)
(7.16652 0.00546469 0)
(7.16141 0.00513694 0)
(7.15668 0.00513715 0)
(7.15289 0.00547603 0)
(7.14866 0.0070827 0)
(7.14952 0.00967105 0)
(7.14794 0.01668 0)
(7.17241 0.0318622 0)
(7.32566 -0.0438445 0)
(7.32335 -0.0519138 0)
(7.33555 -0.0264813 0)
(7.34383 -0.00316549 0)
(7.34927 0.00980052 0)
(7.3541 0.0160582 0)
(7.3579 0.018924 0)
(7.36039 0.0199903 0)
(7.36155 0.0200967 0)
(7.36154 0.0197145 0)
(7.36059 0.0190887 0)
(7.35893 0.0183444 0)
(7.35678 0.0175461 0)
(7.35433 0.0167253 0)
(7.3517 0.0158962 0)
(7.34903 0.0150644 0)
(7.34639 0.0142314 0)
(7.34388 0.0133977 0)
(7.34153 0.0125635 0)
(7.3394 0.0117304 0)
(7.33753 0.0109019 0)
(7.33592 0.0100841 0)
(7.33459 0.00928769 0)
(7.33355 0.00852874 0)
(7.33277 0.00783318 0)
(7.33223 0.00723708 0)
(7.33191 0.0068113 0)
(7.33168 0.00660214 0)
(7.33165 0.00690959 0)
(7.33129 0.00737447 0)
(7.33159 0.00978282 0)
(7.33028 0.00988344 0)
(7.33075 0.0155902 0)
(7.33339 0.0117032 0)
(7.33053 0.0326281 0)
(7.33001 0.0329163 0)
(7.3334 0.0269859 0)
(7.33939 0.0233621 0)
(7.34563 0.0216391 0)
(7.35112 0.0208128 0)
(7.3558 0.0202999 0)
(7.35979 0.019841 0)
(7.36316 0.019352 0)
(7.36601 0.0188054 0)
(7.36843 0.0181934 0)
(7.37054 0.0175183 0)
(7.3724 0.0167857 0)
(7.37412 0.0160017 0)
(7.37575 0.0151722 0)
(7.37735 0.0143024 0)
(7.37899 0.0133978 0)
(7.3807 0.0124639 0)
(7.38253 0.0115074 0)
(7.38449 0.0105368 0)
(7.38662 0.00956377 0)
(7.38892 0.00860462 0)
(7.39141 0.00768266 0)
(7.39407 0.00683217 0)
(7.3969 0.00610125 0)
(7.39988 0.00556722 0)
(7.40294 0.0053211 0)
(7.40617 0.00557027 0)
(7.40931 0.00638411 0)
(7.413 0.00852175 0)
(7.41635 0.0113356 0)
(7.42176 0.0180695 0)
(7.33122 -0.00362569 0)
(7.33016 -0.0046335 0)
(7.33403 0.000626269 0)
(7.33808 0.00782358 0)
(7.34194 0.0129267 0)
(7.34594 0.0156357 0)
(7.34998 0.0169458 0)
(7.354 0.0175011 0)
(7.35796 0.017605 0)
(7.36179 0.0174261 0)
(7.36549 0.0170579 0)
(7.36907 0.0165516 0)
(7.37256 0.0159379 0)
(7.37599 0.0152367 0)
(7.37939 0.0144606 0)
(7.38279 0.0136187 0)
(7.38623 0.0127178 0)
(7.38975 0.0117642 0)
(7.39335 0.0107642 0)
(7.39708 0.00972554 0)
(7.40094 0.00865816 0)
(7.40496 0.00757549 0)
(7.40915 0.00649633 0)
(7.41351 0.00544675 0)
(7.41804 0.00446446 0)
(7.42275 0.00359991 0)
(7.42762 0.00293276 0)
(7.43265 0.00254849 0)
(7.43789 0.00263657 0)
(7.44325 0.0032485 0)
(7.44906 0.00493129 0)
(7.45498 0.00715573 0)
(7.46186 0.0116459 0)
(7.33266 0.00193246 0)
(7.33238 0.00950329 0)
(7.33435 0.0134209 0)
(7.33729 0.0149527 0)
(7.34086 0.0156946 0)
(7.34479 0.0160855 0)
(7.34872 0.0162864 0)
(7.35261 0.01631 0)
(7.35648 0.0161502 0)
(7.36033 0.0158322 0)
(7.36417 0.0153825 0)
(7.36804 0.0148189 0)
(7.37193 0.0141541 0)
(7.37588 0.0133976 0)
(7.37989 0.0125565 0)
(7.38399 0.0116368 0)
(7.38819 0.0106437 0)
(7.39251 0.00958288 0)
(7.39697 0.00846082 0)
(7.40159 0.0072857 0)
(7.40637 0.00606833 0)
(7.41133 0.00482336 0)
(7.41647 0.00357099 0)
(7.42182 0.00233889 0)
(7.42736 0.00116587 0)
(7.43312 0.000103188 0)
(7.4391 -0.00077362 0)
(7.44532 -0.00137862 0)
(7.45184 -0.00155877 0)
(7.45866 -0.00122114 0)
(7.46601 -1.7748e-05 0)
(7.47388 0.00194387 0)
(7.48278 0.00558511 0)
(7.33259 0.000649614 0)
(7.33257 0.00396288 0)
(7.3347 0.00715544 0)
(7.33774 0.00998364 0)
(7.3411 0.0121677 0)
(7.34465 0.0135044 0)
(7.34823 0.0141806 0)
(7.35184 0.0144082 0)
(7.35549 0.0143193 0)
(7.35919 0.0140036 0)
(7.36297 0.0135174 0)
(7.36682 0.0128933 0)
(7.37078 0.0121514 0)
(7.37485 0.0113045 0)
(7.37904 0.0103613 0)
(7.38337 0.00932822 0)
(7.38786 0.00821053 0)
(7.3925 0.00701365 0)
(7.39732 0.00574385 0)
(7.40232 0.0044091 0)
(7.40753 0.0030201 0)
(7.41294 0.00159143 0)
(7.41857 0.000143045 0)
(7.42443 -0.00129798 0)
(7.43053 -0.00269451 0)
(7.43689 -0.00399828 0)
(7.44353 -0.00514178 0)
(7.45049 -0.00604736 0)
(7.45784 -0.00659381 0)
(7.46563 -0.00668959 0)
(7.47406 -0.00610936 0)
(7.48325 -0.00485295 0)
(7.49352 -0.00246554 0)
(7.33285 0.00114685 0)
(7.33315 0.00476737 0)
(7.33499 0.00790187 0)
(7.33764 0.0101368 0)
(7.34069 0.0116268 0)
(7.34402 0.0124713 0)
(7.34746 0.0128509 0)
(7.35095 0.0129008 0)
(7.35449 0.0126919 0)
(7.35811 0.0122764 0)
(7.3618 0.0116932 0)
(7.3656 0.0109679 0)
(7.36952 0.0101172 0)
(7.37358 0.00915249 0)
(7.37779 0.00808149 0)
(7.38217 0.00690994 0)
(7.38672 0.00564264 0)
(7.39146 0.00428449 0)
(7.3964 0.00284125 0)
(7.40156 0.00132037 0)
(7.40693 -0.000268055 0)
(7.41254 -0.00191032 0)
(7.41839 -0.00358775 0)
(7.42451 -0.00527536 0)
(7.4309 -0.00693965 0)
(7.4376 -0.00853776 0)
(7.44464 -0.0100127 0)
(7.45207 -0.0112989 0)
(7.45997 -0.0123051 0)
(7.46843 -0.012954 0)
(7.47761 -0.0131055 0)
(7.48771 -0.0127264 0)
(7.49897 -0.0116065 0)
(7.33292 0.00110806 0)
(7.33334 0.00398302 0)
(7.33501 0.00653788 0)
(7.33746 0.0084932 0)
(7.34032 0.0099085 0)
(7.34345 0.0107758 0)
(7.34672 0.0111772 0)
(7.35008 0.0112165 0)
(7.35351 0.0109683 0)
(7.35702 0.0104903 0)
(7.36064 0.0098255 0)
(7.36436 0.00900225 0)
(7.36822 0.00803908 0)
(7.37223 0.00694843 0)
(7.3764 0.0057387 0)
(7.38074 0.00441585 0)
(7.38528 0.0029847 0)
(7.39001 0.00144989 0)
(7.39496 -0.000183292 0)
(7.40014 -0.00190811 0)
(7.40555 -0.00371553 0)
(7.41122 -0.00559335 0)
(7.41716 -0.00752515 0)
(7.42338 -0.00948926 0)
(7.42992 -0.0114574 0)
(7.4368 -0.0133941 0)
(7.44407 -0.0152546 0)
(7.45179 -0.0169884 0)
(7.46003 -0.018532 0)
(7.46892 -0.0198309 0)
(7.47859 -0.0208077 0)
(7.48926 -0.0214433 0)
(7.50112 -0.0216714 0)
(7.33298 0.0010562 0)
(7.33348 0.00354523 0)
(7.33501 0.00579696 0)
(7.33724 0.0075208 0)
(7.33989 0.00872851 0)
(7.34282 0.00943191 0)
(7.34593 0.00970514 0)
(7.34915 0.00963831 0)
(7.35247 0.00929529 0)
(7.3559 0.00872348 0)
(7.35943 0.00795876 0)
(7.36308 0.00702594 0)
(7.36687 0.00594182 0)
(7.37081 0.00471798 0)
(7.37491 0.00336233 0)
(7.3792 0.00188051 0)
(7.38367 0.000276909 0)
(7.38836 -0.00144437 0)
(7.39326 -0.0032788 0)
(7.3984 -0.00522071 0)
(7.40379 -0.00726254 0)
(7.40944 -0.0093942 0)
(7.41537 -0.0116023 0)
(7.42162 -0.0138694 0)
(7.4282 -0.0161736 0)
(7.43515 -0.0184882 0)
(7.44253 -0.020781 0)
(7.4504 -0.0230179 0)
(7.45883 -0.0251604 0)
(7.46796 -0.0271791 0)
(7.4779 -0.0290434 0)
(7.48885 -0.030761 0)
(7.50098 -0.0323479 0)
(7.33301 0.000965415 0)
(7.33354 0.00307417 0)
(7.33494 0.00497079 0)
(7.33699 0.00642418 0)
(7.33944 0.00743141 0)
(7.34219 0.00800063 0)
(7.34514 0.00817754 0)
(7.34823 0.0080268 0)
(7.35144 0.00760022 0)
(7.35476 0.0069387 0)
(7.3582 0.00607449 0)
(7.36177 0.00503075 0)
(7.36547 0.00382345 0)
(7.36933 0.00246357 0)
(7.37336 0.000958594 0)
(7.37756 -0.000686338 0)
(7.38196 -0.00246739 0)
(7.38657 -0.00438121 0)
(7.39139 -0.0064243 0)
(7.39646 -0.00859235 0)
(7.40177 -0.0108797 0)
(7.40736 -0.013279 0)
(7.41325 -0.0157803 0)
(7.41945 -0.0183713 0)
(7.426 -0.0210368 0)
(7.43295 -0.0237595 0)
(7.44034 -0.0265201 0)
(7.44825 -0.0293002 0)
(7.45674 -0.0320834 0)
(7.46594 -0.0348639 0)
(7.47595 -0.0376461 0)
(7.48696 -0.0404649 0)
(7.49907 -0.0433827 0)
(7.33303 0.000853136 0)
(7.33356 0.00262897 0)
(7.33485 0.00421555 0)
(7.33673 0.00542716 0)
(7.33901 0.00624177 0)
(7.34158 0.00666146 0)
(7.34438 0.00671717 0)
(7.34733 0.00645879 0)
(7.35041 0.0059298 0)
(7.35363 0.00516495 0)
(7.35697 0.00419183 0)
(7.36044 0.00303061 0)
(7.36405 0.00169537 0)
(7.36782 0.000195768 0)
(7.37175 -0.00146175 0)
(7.37586 -0.00327291 0)
(7.38016 -0.00523481 0)
(7.38467 -0.0073452 0)
(7.3894 -0.0096019 0)
(7.39436 -0.0120024 0)
(7.39958 -0.0145432 0)
(7.40507 -0.01722 0)
(7.41086 -0.0200271 0)
(7.41697 -0.0229573 0)
(7.42345 -0.0260027 0)
(7.43032 -0.0291551 0)
(7.43765 -0.0324072 0)
(7.44549 -0.0357552 0)
(7.45393 -0.0392014 0)
(7.46305 -0.0427598 0)
(7.47296 -0.0464603 0)
(7.48381 -0.0503588 0)
(7.49567 -0.054542 0)
(7.33304 0.000730863 0)
(7.33355 0.00220104 0)
(7.33475 0.00349508 0)
(7.33648 0.00446617 0)
(7.33859 0.00508412 0)
(7.34101 0.00534713 0)
(7.34365 0.0052751 0)
(7.34646 0.00490413 0)
(7.34942 0.00426842 0)
(7.35251 0.00339629 0)
(7.35574 0.00231075 0)
(7.35911 0.00102906 0)
(7.36262 -0.000436633 0)
(7.36628 -0.00207808 0)
(7.3701 -0.00389 0)
(7.37411 -0.0058692 0)
(7.3783 -0.00801392 0)
(7.38269 -0.0103232 0)
(7.3873 -0.0127965 0)
(7.39214 -0.0154332 0)
(7.39723 -0.0182325 0)
(7.40259 -0.0211933 0)
(7.40825 -0.0243141 0)
(7.41423 -0.0275932 0)
(7.42057 -0.0310295 0)
(7.42731 -0.0346236 0)
(7.4345 -0.0383789 0)
(7.44219 -0.0423041 0)
(7.45046 -0.0464163 0)
(7.45938 -0.0507454 0)
(7.46903 -0.0553381 0)
(7.47954 -0.0602643 0)
(7.49096 -0.06562 0)
(7.33304 0.00060508 0)
(7.33353 0.00179105 0)
(7.33464 0.00281228 0)
(7.33624 0.00355256 0)
(7.3382 0.00397762 0)
(7.34046 0.00408106 0)
(7.34295 0.00387415 0)
(7.34563 0.00338229 0)
(7.34846 0.00263189 0)
(7.35143 0.00164571 0)
(7.35454 0.000442496 0)
(7.35779 -0.000963528 0)
(7.36118 -0.0025624 0)
(7.36473 -0.00434756 0)
(7.36843 -0.00631514 0)
(7.37231 -0.00846328 0)
(7.37637 -0.0107916 0)
(7.38063 -0.0133006 0)
(7.3851 -0.0159915 0)
(7.38979 -0.018866 0)
(7.39473 -0.0219259 0)
(7.39993 -0.0251734 0)
(7.40543 -0.0286111 0)
(7.41124 -0.0322428 0)
(7.41739 -0.0360738 0)
(7.42394 -0.0401121 0)
(7.43091 -0.0443702 0)
(7.43837 -0.0488673 0)
(7.44637 -0.0536315 0)
(7.45497 -0.0587035 0)
(7.46424 -0.0641405 0)
(7.47427 -0.0700194 0)
(7.48507 -0.0764364 0)
(7.33304 0.000479773 0)
(7.3335 0.00139864 0)
(7.33453 0.00216325 0)
(7.33601 0.00268019 0)
(7.33784 0.00291424 0)
(7.33995 0.00285529 0)
(7.3423 0.00250827 0)
(7.34483 0.00189007 0)
(7.34753 0.00102014 0)
(7.35037 -8.40742e-05 0)
(7.35336 -0.00140797 0)
(7.35648 -0.00294039 0)
(7.35975 -0.00467366 0)
(7.36317 -0.00660306 0)
(7.36674 -0.00872625 0)
(7.37048 -0.0110428 0)
(7.37439 -0.0135539 0)
(7.3785 -0.0162617 0)
(7.3828 -0.0191692 0)
(7.38733 -0.0222803 0)
(7.39209 -0.0255996 0)
(7.39711 -0.0291326 0)
(7.4024 -0.0328858 0)
(7.40799 -0.0368677 0)
(7.41392 -0.0410893 0)
(7.42021 -0.0455649 0)
(7.42691 -0.0503145 0)
(7.43405 -0.0553646 0)
(7.44169 -0.0607512 0)
(7.44987 -0.0665216 0)
(7.45864 -0.072738 0)
(7.46806 -0.0794788 0)
(7.47814 -0.086834 0)
(7.33304 0.000357234 0)
(7.33347 0.00102353 0)
(7.33442 0.00154585 0)
(7.33579 0.00184749 0)
(7.33749 0.00189398 0)
(7.33947 0.00167221 0)
(7.34168 0.00118207 0)
(7.34407 0.000433637 0)
(7.34664 -0.000559677 0)
(7.34935 -0.00178518 0)
(7.3522 -0.00323209 0)
(7.35519 -0.00489226 0)
(7.35832 -0.00676032 0)
(7.3616 -0.00883346 0)
(7.36502 -0.011111 0)
(7.36861 -0.0135942 0)
(7.37236 -0.0162856 0)
(7.3763 -0.0191891 0)
(7.38042 -0.0223097 0)
(7.38475 -0.0256536 0)
(7.38931 -0.0292277 0)
(7.3941 -0.0330407 0)
(7.39916 -0.0371027 0)
(7.4045 -0.0414262 0)
(7.41014 -0.0460268 0)
(7.41613 -0.050924 0)
(7.42249 -0.056143 0)
(7.42924 -0.0617155 0)
(7.43644 -0.067682 0)
(7.44411 -0.074093 0)
(7.45229 -0.0810111 0)
(7.461 -0.0885122 0)
(7.47025 -0.0966768 0)
(7.33304 0.000238739 0)
(7.33344 0.000665396 0)
(7.33432 0.000958191 0)
(7.33559 0.00105247 0)
(7.33717 0.000915286 0)
(7.33902 0.000531303 0)
(7.34109 -0.000103546 0)
(7.34335 -0.000984602 0)
(7.34578 -0.00210359 0)
(7.34835 -0.00345209 0)
(7.35106 -0.0050229 0)
(7.35391 -0.00681073 0)
(7.3569 -0.00881256 0)
(7.36002 -0.0110275 0)
(7.36329 -0.0134566 0)
(7.36671 -0.0161027 0)
(7.37028 -0.01897 0)
(7.37402 -0.0220641 0)
(7.37795 -0.0253918 0)
(7.38206 -0.0289613 0)
(7.38638 -0.032782 0)
(7.39093 -0.0368652 0)
(7.39571 -0.041224 0)
(7.40075 -0.0458742 0)
(7.40607 -0.050835 0)
(7.4117 -0.0561296 0)
(7.41766 -0.0617865 0)
(7.42396 -0.0678405 0)
(7.43065 -0.0743338 0)
(7.43773 -0.0813171 0)
(7.44524 -0.0888505 0)
(7.45317 -0.0970043 0)
(7.46153 -0.105848 0)
(7.33303 0.000124948 0)
(7.33341 0.000323908 0)
(7.33423 0.000398794 0)
(7.3354 0.000293721 0)
(7.33687 -2.24801e-05 0)
(7.33859 -0.000566739 0)
(7.34053 -0.00134624 0)
(7.34265 -0.00236066 0)
(7.34494 -0.00360608 0)
(7.34738 -0.00507789 0)
(7.34994 -0.00677213 0)
(7.35265 -0.00868623 0)
(7.35548 -0.0108194 0)
(7.35844 -0.0131728 0)
(7.36153 -0.015749 0)
(7.36476 -0.0185525 0)
(7.36815 -0.0215892 0)
(7.37168 -0.0248662 0)
(7.37538 -0.028392 0)
(7.37925 -0.0321767 0)
(7.38332 -0.0362319 0)
(7.38758 -0.0405709 0)
(7.39205 -0.0452092 0)
(7.39676 -0.0501653 0)
(7.40171 -0.0554607 0)
(7.40693 -0.0611208 0)
(7.41243 -0.0671761 0)
(7.41823 -0.073662 0)
(7.42435 -0.0806207 0)
(7.43079 -0.0881006 0)
(7.43755 -0.0961572 0)
(7.44466 -0.104853 0)
(7.45206 -0.114247 0)
(7.33303 1.61805e-05 0)
(7.33338 -1.24454e-06 0)
(7.33413 -0.000133401 0)
(7.33522 -0.000429734 0)
(7.33658 -0.000919662 0)
(7.33818 -0.00162117 0)
(7.33999 -0.00254389 0)
(7.34199 -0.00369096 0)
(7.34413 -0.00506212 0)
(7.34642 -0.00665608 0)
(7.34884 -0.00847181 0)
(7.35139 -0.0105093 0)
(7.35405 -0.0127699 0)
(7.35684 -0.0152565 0)
(7.35975 -0.0179736 0)
(7.36278 -0.0209271 0)
(7.36595 -0.0241242 0)
(7.36926 -0.0275738 0)
(7.37272 -0.0312859 0)
(7.37633 -0.0352721 0)
(7.3801 -0.0395456 0)
(7.38405 -0.0441215 0)
(7.38819 -0.0490172 0)
(7.39253 -0.0542525 0)
(7.39707 -0.0598505 0)
(7.40184 -0.0658376 0)
(7.40684 -0.0722445 0)
(7.41209 -0.0791062 0)
(7.41758 -0.0864626 0)
(7.42332 -0.0943584 0)
(7.42931 -0.102843 0)
(7.43553 -0.111972 0)
(7.44197 -0.12179 0)
(7.33303 -8.74103e-05 0)
(7.33335 -0.000310305 0)
(7.33405 -0.000639126 0)
(7.33505 -0.00111848 0)
(7.33631 -0.00177618 0)
(7.3378 -0.00263082 0)
(7.33948 -0.00369392 0)
(7.34134 -0.00497138 0)
(7.34335 -0.00646596 0)
(7.34549 -0.00817928 0)
(7.34775 -0.0101129 0)
(7.35013 -0.0122692 0)
(7.35262 -0.0146514 0)
(7.35523 -0.0172644 0)
(7.35794 -0.020114 0)
(7.36077 -0.0232076 0)
(7.36371 -0.026554 0)
(7.36677 -0.0301632 0)
(7.36996 -0.0340465 0)
(7.37329 -0.0382169 0)
(7.37675 -0.0426887 0)
(7.38036 -0.0474783 0)
(7.38413 -0.0526042 0)
(7.38806 -0.0580869 0)
(7.39216 -0.06395 0)
(7.39644 -0.0702199 0)
(7.40091 -0.0769262 0)
(7.40556 -0.0841022 0)
(7.41039 -0.0917844 0)
(7.4154 -0.100013 0)
(7.42057 -0.10883 0)
(7.4259 -0.118283 0)
(7.43135 -0.128406 0)
(7.33303 -0.000185779 0)
(7.33333 -0.000603459 0)
(7.33396 -0.00111886 0)
(7.33489 -0.00177284 0)
(7.33605 -0.00259173 0)
(7.33743 -0.00359445 0)
(7.33899 -0.00479392 0)
(7.34071 -0.0061982 0)
(7.34258 -0.00781257 0)
(7.34457 -0.00964109 0)
(7.34667 -0.0116877 0)
(7.34888 -0.0139566 0)
(7.35119 -0.0164532 0)
(7.3536 -0.0191837 0)
(7.35611 -0.0221555 0)
(7.35871 -0.0253775 0)
(7.36141 -0.0288593 0)
(7.36421 -0.0326122 0)
(7.36712 -0.0366487 0)
(7.37013 -0.0409824 0)
(7.37326 -0.0456288 0)
(7.37651 -0.0506047 0)
(7.37988 -0.0559291 0)
(7.38338 -0.0616227 0)
(7.38701 -0.0677086 0)
(7.39077 -0.0742122 0)
(7.39466 -0.0811613 0)
(7.39868 -0.0885864 0)
(7.40283 -0.0965199 0)
(7.40708 -0.104997 0)
(7.41143 -0.114052 0)
(7.41585 -0.123724 0)
(7.4203 -0.134038 0)
(7.33302 -0.000278913 0)
(7.3333 -0.000880782 0)
(7.33389 -0.00157273 0)
(7.33473 -0.00239259 0)
(7.3358 -0.00336536 0)
(7.33707 -0.00450994 0)
(7.33851 -0.00584023 0)
(7.3401 -0.00736597 0)
(7.34183 -0.00909448 0)
(7.34366 -0.0110319 0)
(7.3456 -0.0131842 0)
(7.34764 -0.0155576 0)
(7.34976 -0.0181588 0)
(7.35196 -0.0209958 0)
(7.35425 -0.0240772 0)
(7.35661 -0.0274129 0)
(7.35906 -0.0310137 0)
(7.36158 -0.0348917 0)
(7.36419 -0.0390601 0)
(7.36688 -0.0435333 0)
(7.36965 -0.0483269 0)
(7.37252 -0.0534581 0)
(7.37547 -0.0589456 0)
(7.37851 -0.0648096 0)
(7.38164 -0.0710722 0)
(7.38486 -0.077757 0)
(7.38815 -0.0848894 0)
(7.39153 -0.0924963 0)
(7.39496 -0.100606 0)
(7.39844 -0.109247 0)
(7.40195 -0.118448 0)
(7.40546 -0.12824 0)
(7.40895 -0.138639 0)
(7.33302 -0.000366776 0)
(7.33327 -0.00114227 0)
(7.33381 -0.00200081 0)
(7.33459 -0.00297777 0)
(7.33557 -0.00409689 0)
(7.33673 -0.00537684 0)
(7.33805 -0.00683213 0)
(7.33951 -0.00847368 0)
(7.34109 -0.0103104 0)
(7.34277 -0.01235 0)
(7.34454 -0.0146002 0)
(7.3464 -0.0170687 0)
(7.34832 -0.0197639 0)
(7.35031 -0.0226947 0)
(7.35237 -0.0258712 0)
(7.35449 -0.029304 0)
(7.35666 -0.0330049 0)
(7.3589 -0.0369865 0)
(7.36119 -0.0412626 0)
(7.36353 -0.0458476 0)
(7.36594 -0.0507576 0)
(7.3684 -0.0560092 0)
(7.37091 -0.0616205 0)
(7.37347 -0.0676108 0)
(7.37609 -0.0740004 0)
(7.37874 -0.0808109 0)
(7.38142 -0.0880645 0)
(7.38413 -0.0957845 0)
(7.38685 -0.103994 0)
(7.38956 -0.112717 0)
(7.39223 -0.121976 0)
(7.39485 -0.131793 0)
(7.39738 -0.142178 0)
(7.33302 -0.000449302 0)
(7.33325 -0.00138767 0)
(7.33374 -0.00240242 0)
(7.33444 -0.00352668 0)
(7.33534 -0.00478283 0)
(7.3364 -0.00618903 0)
(7.3376 -0.00776008 0)
(7.33893 -0.00950788 0)
(7.34036 -0.0114426 0)
(7.34189 -0.0135736 0)
(7.34349 -0.0159099 0)
(7.34516 -0.0184607 0)
(7.34688 -0.0212356 0)
(7.34866 -0.0242447 0)
(7.35048 -0.0274989 0)
(7.35234 -0.0310097 0)
(7.35423 -0.0347893 0)
(7.35616 -0.0388508 0)
(7.35813 -0.043208 0)
(7.36012 -0.0478755 0)
(7.36213 -0.0528687 0)
(7.36417 -0.0582038 0)
(7.36623 -0.0638978 0)
(7.3683 -0.0699686 0)
(7.37038 -0.0764344 0)
(7.37246 -0.0833141 0)
(7.37453 -0.090627 0)
(7.37657 -0.0983924 0)
(7.37856 -0.106629 0)
(7.3805 -0.115355 0)
(7.38236 -0.124587 0)
(7.3841 -0.134341 0)
(7.38571 -0.144621 0)
(7.33302 -0.000526437 0)
(7.33323 -0.00161708 0)
(7.33367 -0.0027785 0)
(7.33431 -0.00404216 0)
(7.33512 -0.00542906 0)
(7.33608 -0.00695646 0)
(7.33717 -0.00863878 0)
(7.33837 -0.0104881 0)
(7.33966 -0.0125152 0)
(7.34102 -0.0147302 0)
(7.34245 -0.0171434 0)
(7.34393 -0.019765 0)
(7.34545 -0.0226056 0)
(7.347 -0.0256765 0)
(7.34858 -0.0289893 0)
(7.35017 -0.0325561 0)
(7.35178 -0.0363896 0)
(7.3534 -0.0405033 0)
(7.35502 -0.0449108 0)
(7.35664 -0.0496265 0)
(7.35826 -0.0546652 0)
(7.35987 -0.0600423 0)
(7.36147 -0.0657734 0)
(7.36304 -0.0718746 0)
(7.36458 -0.078362 0)
(7.36607 -0.0852518 0)
(7.36752 -0.09256 0)
(7.36889 -0.100302 0)
(7.37018 -0.108492 0)
(7.37136 -0.117144 0)
(7.37241 -0.126269 0)
(7.37331 -0.135877 0)
(7.37403 -0.145967 0)
(7.33302 -0.000597872 0)
(7.3332 -0.00182865 0)
(7.3336 -0.00312366 0)
(7.33417 -0.00451215 0)
(7.3349 -0.00601348 0)
(7.33576 -0.00764423 0)
(7.33673 -0.00941908 0)
(7.33781 -0.0113509 0)
(7.33896 -0.0134514 0)
(7.34017 -0.015732 0)
(7.34143 -0.0182037 0)
(7.34271 -0.0208778 0)
(7.34403 -0.0237657 0)
(7.34535 -0.0268791 0)
(7.34668 -0.0302301 0)
(7.348 -0.0338311 0)
(7.34932 -0.0376949 0)
(7.35062 -0.0418346 0)
(7.35189 -0.0462637 0)
(7.35314 -0.0509959 0)
(7.35436 -0.0560451 0)
(7.35553 -0.0614254 0)
(7.35665 -0.067151 0)
(7.35772 -0.0732359 0)
(7.35872 -0.079694 0)
(7.35963 -0.0865387 0)
(7.36046 -0.0937828 0)
(7.36117 -0.101438 0)
(7.36176 -0.109515 0)
(7.3622 -0.118023 0)
(7.36248 -0.126968 0)
(7.36257 -0.136356 0)
(7.36245 -0.146181 0)
(7.33302 -0.000663943 0)
(7.33318 -0.00202653 0)
(7.33353 -0.0034522 0)
(7.33405 -0.00496902 0)
(7.3347 -0.00659322 0)
(7.33546 -0.00833793 0)
(7.33633 -0.0102151 0)
(7.33728 -0.012236 0)
(7.33829 -0.014412 0)
(7.33934 -0.0167546 0)
(7.34043 -0.019276 0)
(7.34152 -0.0219885 0)
(7.34262 -0.0249045 0)
(7.34372 -0.0280368 0)
(7.34479 -0.0313985 0)
(7.34584 -0.0350024 0)
(7.34686 -0.0388617 0)
(7.34783 -0.0429896 0)
(7.34876 -0.0473992 0)
(7.34963 -0.0521038 0)
(7.35043 -0.0571162 0)
(7.35117 -0.0624494 0)
(7.35182 -0.068116 0)
(7.35238 -0.0741281 0)
(7.35284 -0.0804971 0)
(7.35319 -0.087234 0)
(7.3534 -0.0943484 0)
(7.35347 -0.101849 0)
(7.35338 -0.109742 0)
(7.35312 -0.118034 0)
(7.35265 -0.126727 0)
(7.35197 -0.135822 0)
(7.35104 -0.145311 0)
(7.33301 -0.000722179 0)
(7.33315 -0.00219339 0)
(7.33345 -0.00371553 0)
(7.3339 -0.00531548 0)
(7.33446 -0.00701021 0)
(7.33514 -0.00881511 0)
(7.3359 -0.0107444 0)
(7.33673 -0.0128105 0)
(7.33761 -0.0150254 0)
(7.33852 -0.0174008 0)
(7.33944 -0.0199485 0)
(7.34035 -0.0226806 0)
(7.34125 -0.0256092 0)
(7.34211 -0.0287468 0)
(7.34294 -0.0321057 0)
(7.34372 -0.0356985 0)
(7.34444 -0.0395378 0)
(7.34509 -0.0436361 0)
(7.34566 -0.0480057 0)
(7.34616 -0.0526587 0)
(7.34655 -0.057607 0)
(7.34685 -0.0628619 0)
(7.34704 -0.0684344 0)
(7.3471 -0.0743347 0)
(7.34703 -0.080572 0)
(7.34681 -0.0871546 0)
(7.34644 -0.0940897 0)
(7.34588 -0.101383 0)
(7.34514 -0.109038 0)
(7.34419 -0.117057 0)
(7.34302 -0.12544 0)
(7.3416 -0.134185 0)
(7.33993 -0.14328 0)
(7.33301 -0.000779603 0)
(7.33315 -0.00238081 0)
(7.33342 -0.00405371 0)
(7.33381 -0.00581587 0)
(7.33431 -0.00766788 0)
(7.3349 -0.00961178 0)
(7.33556 -0.011654 0)
(7.33627 -0.0138045 0)
(7.33701 -0.0160754 0)
(7.33775 -0.0184808 0)
(7.3385 -0.0210356 0)
(7.33922 -0.0237547 0)
(7.3399 -0.0266529 0)
(7.34053 -0.0297448 0)
(7.34111 -0.0330444 0)
(7.34161 -0.0365655 0)
(7.34203 -0.0403212 0)
(7.34236 -0.0443241 0)
(7.34259 -0.0485863 0)
(7.3427 -0.0531194 0)
(7.3427 -0.057934 0)
(7.34257 -0.0630405 0)
(7.3423 -0.0684479 0)
(7.34187 -0.0741647 0)
(7.34129 -0.080198 0)
(7.34053 -0.0865539 0)
(7.33958 -0.093237 0)
(7.33843 -0.10025 0)
(7.33707 -0.107595 0)
(7.33548 -0.11527 0)
(7.33364 -0.123273 0)
(7.33153 -0.1316 0)
(7.32916 -0.140238 0)
(7.333 -0.000807424 0)
(7.33307 -0.00241678 0)
(7.33325 -0.00405683 0)
(7.33355 -0.00576856 0)
(7.33397 -0.00757342 0)
(7.33449 -0.00948564 0)
(7.33508 -0.0115143 0)
(7.3357 -0.0136658 0)
(7.33634 -0.0159476 0)
(7.33698 -0.018368 0)
(7.33758 -0.0209368 0)
(7.33814 -0.0236649 0)
(7.33864 -0.0265638 0)
(7.33906 -0.0296455 0)
(7.3394 -0.0329222 0)
(7.33964 -0.0364058 0)
(7.33977 -0.0401083 0)
(7.33979 -0.0440413 0)
(7.33967 -0.0482156 0)
(7.33942 -0.0526418 0)
(7.33902 -0.0573295 0)
(7.33847 -0.0622877 0)
(7.33775 -0.0675241 0)
(7.33685 -0.0730456 0)
(7.33577 -0.0788578 0)
(7.33448 -0.0849649 0)
(7.33299 -0.0913697 0)
(7.33127 -0.0980732 0)
(7.32931 -0.105075 0)
(7.32711 -0.112372 0)
(7.32464 -0.119961 0)
(7.3219 -0.127835 0)
(7.31888 -0.13598 0)
(7.33303 -0.000903152 0)
(7.33318 -0.00280958 0)
(7.33339 -0.00483125 0)
(7.33367 -0.00692368 0)
(7.33401 -0.00904369 0)
(7.33441 -0.0111807 0)
(7.33486 -0.0133437 0)
(7.33533 -0.0155499 0)
(7.33581 -0.017821 0)
(7.33626 -0.0201793 0)
(7.33668 -0.0226465 0)
(7.33704 -0.0252429 0)
(7.33733 -0.0279874 0)
(7.33753 -0.0308969 0)
(7.33762 -0.033987 0)
(7.3376 -0.037272 0)
(7.33744 -0.0407647 0)
(7.33715 -0.0444769 0)
(7.33671 -0.0484192 0)
(7.33611 -0.052601 0)
(7.33534 -0.0570309 0)
(7.33438 -0.0617163 0)
(7.33324 -0.0666632 0)
(7.3319 -0.0718767 0)
(7.33034 -0.0773603 0)
(7.32857 -0.0831163 0)
(7.32656 -0.0891453 0)
(7.32431 -0.0954465 0)
(7.3218 -0.102017 0)
(7.31903 -0.108853 0)
(7.31599 -0.115949 0)
(7.31266 -0.123296 0)
(7.30904 -0.13088 0)
(7.33294 -0.000727297 0)
(7.33278 -0.00208852 0)
(7.33276 -0.00352484 0)
(7.33294 -0.00514633 0)
(7.33329 -0.00696327 0)
(7.33374 -0.00895253 0)
(7.33424 -0.0110848 0)
(7.33475 -0.0133389 0)
(7.33523 -0.015704 0)
(7.33565 -0.0181777 0)
(7.33599 -0.0207632 0)
(7.33624 -0.023468 0)
(7.33637 -0.0263019 0)
(7.33638 -0.0292765 0)
(7.33626 -0.0324037 0)
(7.33599 -0.0356956 0)
(7.33556 -0.0391641 0)
(7.33497 -0.0428203 0)
(7.3342 -0.0466746 0)
(7.33325 -0.0507364 0)
(7.3321 -0.0550142 0)
(7.33075 -0.0595152 0)
(7.32918 -0.0642453 0)
(7.3274 -0.0692093 0)
(7.32538 -0.0744102 0)
(7.32313 -0.07985 0)
(7.32062 -0.0855287 0)
(7.31786 -0.091445 0)
(7.31483 -0.0975957 0)
(7.31153 -0.103976 0)
(7.30795 -0.11058 0)
(7.30407 -0.1174 0)
(7.29991 -0.124422 0)
(7.33314 -0.00127419 0)
(7.33348 -0.00405071 0)
(7.3336 -0.00689579 0)
(7.33364 -0.00956237 0)
(7.33371 -0.0119909 0)
(7.33384 -0.0142301 0)
(7.33404 -0.0163451 0)
(7.33427 -0.0183968 0)
(7.3345 -0.0204382 0)
(7.3347 -0.0225134 0)
(7.33483 -0.0246588 0)
(7.33488 -0.0269038 0)
(7.33482 -0.029272 0)
(7.33463 -0.0317829 0)
(7.3343 -0.0344526 0)
(7.33381 -0.0372943 0)
(7.33314 -0.0403194 0)
(7.33229 -0.0435374 0)
(7.33124 -0.0469565 0)
(7.32999 -0.0505833 0)
(7.32853 -0.0544235 0)
(7.32684 -0.0584813 0)
(7.32491 -0.0627599 0)
(7.32275 -0.0672612 0)
(7.32034 -0.0719859 0)
(7.31767 -0.0769332 0)
(7.31473 -0.0821011 0)
(7.31152 -0.0874862 0)
(7.30804 -0.0930838 0)
(7.30427 -0.0988875 0)
(7.30021 -0.10489 0)
(7.29586 -0.111082 0)
(7.29121 -0.11745 0)
(7.33271 0.000108061 0)
(7.33189 0.000385339 0)
(7.3316 -6.72105e-05 0)
(7.33188 -0.00136231 0)
(7.33241 -0.00328079 0)
(7.33302 -0.00557092 0)
(7.3336 -0.00806153 0)
(7.33411 -0.010661 0)
(7.3345 -0.0133212 0)
(7.33477 -0.0160199 0)
(7.33489 -0.018752 0)
(7.33486 -0.0215232 0)
(7.33466 -0.0243454 0)
(7.33428 -0.027233 0)
(7.33372 -0.0302015 0)
(7.33296 -0.0332665 0)
(7.33201 -0.0364427 0)
(7.33085 -0.0397435 0)
(7.32947 -0.0431811 0)
(7.32787 -0.0467664 0)
(7.32603 -0.0505083 0)
(7.32396 -0.0544145 0)
(7.32164 -0.0584911 0)
(7.31907 -0.0627423 0)
(7.31623 -0.0671711 0)
(7.31313 -0.0717788 0)
(7.30976 -0.076565 0)
(7.30611 -0.0815279 0)
(7.30218 -0.0866643 0)
(7.29796 -0.0919693 0)
(7.29346 -0.0974368 0)
(7.28866 -0.10306 0)
(7.28357 -0.108826 0)
(7.33345 -0.00239885 0)
(7.33402 -0.00806963 0)
(7.33344 -0.0130821 0)
(7.33263 -0.0166387 0)
(7.33207 -0.019154 0)
(7.33183 -0.021049 0)
(7.3318 -0.022585 0)
(7.33188 -0.0239372 0)
(7.33199 -0.0252263 0)
(7.33207 -0.0265354 0)
(7.33207 -0.0279201 0)
(7.33195 -0.0294169 0)
(7.33169 -0.0310501 0)
(7.33125 -0.0328357 0)
(7.33062 -0.034785 0)
(7.32979 -0.0369053 0)
(7.32875 -0.0392022 0)
(7.32748 -0.0416793 0)
(7.32597 -0.0443393 0)
(7.32421 -0.047184 0)
(7.32221 -0.0502144 0)
(7.31994 -0.0534306 0)
(7.31741 -0.0568321 0)
(7.31461 -0.0604176 0)
(7.31153 -0.0641847 0)
(7.30817 -0.0681305 0)
(7.30453 -0.0722508 0)
(7.3006 -0.0765406 0)
(7.29638 -0.080994 0)
(7.29187 -0.0856039 0)
(7.28707 -0.0903624 0)
(7.28197 -0.0952609 0)
(7.27659 -0.100287 0)
(7.33181 0.00311423 0)
(7.32922 0.00841239 0)
(7.32946 0.0104634 0)
(7.33101 0.00935695 0)
(7.33238 0.00649415 0)
(7.33342 0.00303123 0)
(7.33417 -0.000593091 0)
(7.33466 -0.00420109 0)
(7.33492 -0.00769681 0)
(7.33494 -0.0110448 0)
(7.33476 -0.0142483 0)
(7.33438 -0.0173277 0)
(7.33379 -0.0203105 0)
(7.33301 -0.0232262 0)
(7.33202 -0.0261038 0)
(7.33083 -0.0289701 0)
(7.32943 -0.0318495 0)
(7.32781 -0.0347632 0)
(7.32596 -0.0377297 0)
(7.32388 -0.0407648 0)
(7.32156 -0.0438818 0)
(7.31899 -0.0470916 0)
(7.31617 -0.0504031 0)
(7.31309 -0.0538231 0)
(7.30975 -0.0573564 0)
(7.30613 -0.0610064 0)
(7.30225 -0.0647745 0)
(7.29809 -0.0686608 0)
(7.29365 -0.072664 0)
(7.28894 -0.0767812 0)
(7.28396 -0.0810084 0)
(7.27869 -0.0853409 0)
(7.27317 -0.0897698 0)
(7.33404 -0.0064327 0)
(7.33369 -0.0198771 0)
(7.3295 -0.0287951 0)
(7.32563 -0.0327722 0)
(7.32382 -0.0340886 0)
(7.32347 -0.0343154 0)
(7.32373 -0.0340487 0)
(7.32424 -0.0336177 0)
(7.32487 -0.0332353 0)
(7.32549 -0.0330118 0)
(7.32602 -0.0329976 0)
(7.32641 -0.0332137 0)
(7.32662 -0.0336647 0)
(7.32664 -0.0343465 0)
(7.32643 -0.0352511 0)
(7.32599 -0.0363688 0)
(7.32531 -0.0376901 0)
(7.32438 -0.0392057 0)
(7.32319 -0.0409073 0)
(7.32173 -0.0427876 0)
(7.32001 -0.0448397 0)
(7.31801 -0.0470574 0)
(7.31573 -0.049435 0)
(7.31317 -0.0519669 0)
(7.31033 -0.0546475 0)
(7.30721 -0.0574712 0)
(7.3038 -0.0604322 0)
(7.30011 -0.0635243 0)
(7.29614 -0.066741 0)
(7.29189 -0.0700754 0)
(7.28737 -0.07352 0)
(7.28257 -0.0770673 0)
(7.27752 -0.0807067 0)
(7.32968 0.0197338 0)
(7.32493 0.036625 0)
(7.32916 0.0372167 0)
(7.33446 0.0315959 0)
(7.3372 0.0248113 0)
(7.33855 0.0180338 0)
(7.33954 0.0116075 0)
(7.34037 0.00574032 0)
(7.34109 0.000479584 0)
(7.34178 -0.00422086 0)
(7.34244 -0.00843209 0)
(7.34306 -0.0122287 0)
(7.34361 -0.0156831 0)
(7.34409 -0.0188616 0)
(7.34445 -0.0218225 0)
(7.34468 -0.0246163 0)
(7.34476 -0.0272862 0)
(7.34467 -0.0298688 0)
(7.3444 -0.0323951 0)
(7.34393 -0.0348914 0)
(7.34325 -0.0373796 0)
(7.34235 -0.0398782 0)
(7.34124 -0.0424024 0)
(7.33989 -0.0449651 0)
(7.33832 -0.0475763 0)
(7.33651 -0.0502443 0)
(7.33448 -0.0529755 0)
(7.33222 -0.0557744 0)
(7.32973 -0.0586443 0)
(7.32701 -0.0615869 0)
(7.32408 -0.0646032 0)
(7.32094 -0.0676927 0)
(7.3176 -0.0708531 0)
(7.32504 -0.0332493 0)
(7.29726 -0.0593059 0)
(7.27753 -0.0627356 0)
(7.27321 -0.0610007 0)
(7.28003 -0.0580034 0)
(7.29157 -0.0543743 0)
(7.30484 -0.050847 0)
(7.31854 -0.0477827 0)
(7.33191 -0.0452422 0)
(7.34456 -0.0432177 0)
(7.35631 -0.0416792 0)
(7.36712 -0.0405804 0)
(7.37698 -0.0398713 0)
(7.38593 -0.0395063 0)
(7.39403 -0.0394451 0)
(7.40133 -0.0396533 0)
(7.40788 -0.040102 0)
(7.41373 -0.0407671 0)
(7.41893 -0.0416291 0)
(7.42352 -0.0426716 0)
(7.42753 -0.0438812 0)
(7.431 -0.0452467 0)
(7.43395 -0.0467584 0)
(7.43641 -0.0484082 0)
(7.43839 -0.0501888 0)
(7.43991 -0.0520932 0)
(7.44099 -0.0541154 0)
(7.44164 -0.0562489 0)
(7.44186 -0.0584878 0)
(7.44167 -0.0608253 0)
(7.44106 -0.0632557 0)