# y+ ()       
# Time        	patch         	min           	max           	average       
1800          	lowerWall	3.983166e-01	6.501301e+01	3.725895e+01
1800          	upperWall	3.125910e+01	5.508446e+01	4.627212e+01
