/*--------------------------------*- C++ -*----------------------------------*\
  =========                 |
  \\      /  F ield         | OpenFOAM: The Open Source CFD Toolbox
   \\    /   O peration     | Website:  https://openfoam.org
    \\  /    A nd           | Version:  10
     \\/     M anipulation  |
\*---------------------------------------------------------------------------*/
FoamFile
{
    format      ascii;
    class       volScalarField;
    location    "0.085";
    object      k;
}
// * * * * * * * * * * * * * * * * * * * * * * * * * * * * * * * * * * * * * //

dimensions      [0 2 -2 0 0 0 0];

internalField   nonuniform List<scalar> 
6820
(
0.196709
0.190616
0.184994
0.179724
0.174798
0.17025
0.166114
0.162407
0.159125
0.156249
0.153753
0.151604
0.149772
0.148223
0.146928
0.145859
0.144992
0.144304
0.143774
0.143384
0.143117
0.14296
0.142899
0.142922
0.14302
0.143183
0.143401
0.143689
0.143928
0.144647
0.143336
0.151744
0.114708
0.201954
0.200832
0.197543
0.193922
0.190841
0.188585
0.187157
0.186433
0.186267
0.186525
0.187101
0.187915
0.188908
0.190033
0.191258
0.192557
0.19391
0.1953
0.196716
0.198147
0.199585
0.201024
0.202461
0.203891
0.205314
0.206731
0.208147
0.209568
0.211016
0.212572
0.214074
0.216837
0.217473
0.200488
0.200474
0.199117
0.19707
0.194841
0.19269
0.190725
0.188986
0.187489
0.186233
0.185207
0.184397
0.183782
0.183344
0.183062
0.182919
0.182898
0.182983
0.183162
0.183422
0.183752
0.184143
0.184587
0.185078
0.185609
0.186177
0.186777
0.187412
0.188073
0.188791
0.1895
0.190345
0.190964
0.199662
0.199121
0.198219
0.196983
0.195545
0.194012
0.192458
0.190931
0.189463
0.188073
0.186776
0.185577
0.184479
0.183483
0.182585
0.181781
0.181067
0.180438
0.179887
0.179409
0.179
0.178652
0.178363
0.178127
0.177941
0.1778
0.177703
0.177649
0.177633
0.177663
0.17773
0.17785
0.178
0.199429
0.198466
0.197531
0.196513
0.195399
0.194214
0.192986
0.19174
0.190495
0.189267
0.188068
0.186908
0.185792
0.184726
0.183712
0.182752
0.181845
0.180992
0.180191
0.179441
0.178739
0.178085
0.177477
0.176911
0.176386
0.1759
0.175452
0.175041
0.174664
0.174324
0.174017
0.173744
0.173499
0.199398
0.198268
0.197202
0.196166
0.195133
0.194088
0.193029
0.191958
0.190884
0.189812
0.188749
0.187703
0.186677
0.185676
0.184702
0.183758
0.182847
0.181968
0.181123
0.180311
0.179533
0.178788
0.178076
0.177395
0.176745
0.176126
0.175536
0.174976
0.174443
0.173939
0.173461
0.173011
0.172585
0.199395
0.19822
0.197098
0.196021
0.194978
0.193957
0.192952
0.191958
0.190973
0.189997
0.189031
0.188078
0.187139
0.186217
0.185312
0.184428
0.183564
0.182723
0.181904
0.181109
0.180338
0.17959
0.178866
0.178166
0.17749
0.176837
0.176206
0.175598
0.175013
0.17445
0.173908
0.173388
0.172888
0.199395
0.198211
0.197069
0.195969
0.194908
0.193881
0.192884
0.191912
0.190961
0.190029
0.189114
0.188217
0.187336
0.186471
0.185623
0.184792
0.183979
0.183184
0.182407
0.181649
0.180909
0.180189
0.179487
0.178804
0.178139
0.177494
0.176866
0.176257
0.175667
0.175094
0.174539
0.174002
0.173481
0.199395
0.198209
0.197063
0.195955
0.194884
0.19385
0.192848
0.191877
0.190934
0.190016
0.189122
0.18825
0.187399
0.186567
0.185754
0.184959
0.184183
0.183423
0.182682
0.181957
0.181249
0.180559
0.179885
0.179227
0.178586
0.177961
0.177352
0.176759
0.176181
0.175619
0.175073
0.174541
0.174025
0.199395
0.198209
0.197061
0.195951
0.194877
0.193838
0.192833
0.191859
0.190916
0.190001
0.189113
0.188249
0.18741
0.186593
0.185797
0.185021
0.184265
0.183528
0.182809
0.182108
0.181423
0.180756
0.180105
0.179469
0.178849
0.178245
0.177655
0.17708
0.17652
0.175974
0.175442
0.174925
0.17442
0.199395
0.198209
0.197061
0.19595
0.194875
0.193834
0.192827
0.191852
0.190907
0.189991
0.189104
0.188242
0.187406
0.186594
0.185805
0.185038
0.184292
0.183566
0.182859
0.18217
0.1815
0.180847
0.18021
0.17959
0.178985
0.178396
0.177821
0.177261
0.176716
0.176184
0.175666
0.175161
0.174669
0.199395
0.198209
0.19706
0.195949
0.194874
0.193833
0.192825
0.191849
0.190903
0.189986
0.189098
0.188237
0.187401
0.18659
0.185803
0.185039
0.184296
0.183575
0.182873
0.182191
0.181527
0.180882
0.180253
0.179641
0.179046
0.178466
0.177901
0.177351
0.176815
0.176293
0.175785
0.17529
0.174808
0.199395
0.198209
0.19706
0.195949
0.194873
0.193832
0.192824
0.191847
0.190901
0.189984
0.189095
0.188233
0.187398
0.186587
0.1858
0.185036
0.184295
0.183575
0.182875
0.182195
0.181534
0.180892
0.180267
0.179659
0.179068
0.178493
0.177933
0.177389
0.176859
0.176343
0.17584
0.175352
0.174876
0.199395
0.198209
0.19706
0.195949
0.194873
0.193831
0.192823
0.191846
0.1909
0.189982
0.189093
0.188231
0.187395
0.186584
0.185797
0.185033
0.184292
0.183572
0.182873
0.182194
0.181534
0.180893
0.180269
0.179664
0.179074
0.178501
0.177944
0.177402
0.176875
0.176362
0.175863
0.175378
0.174906
0.199395
0.198208
0.19706
0.195948
0.194872
0.193831
0.192822
0.191845
0.190899
0.189981
0.189092
0.18823
0.187393
0.186582
0.185795
0.185031
0.18429
0.18357
0.182871
0.182192
0.181532
0.180891
0.180268
0.179663
0.179074
0.178502
0.177946
0.177405
0.176879
0.176368
0.17587
0.175387
0.174916
0.199395
0.198208
0.19706
0.195948
0.194872
0.19383
0.192822
0.191844
0.190898
0.18998
0.189091
0.188228
0.187392
0.186581
0.185793
0.185029
0.184288
0.183568
0.182869
0.182189
0.18153
0.180889
0.180266
0.179661
0.179073
0.178501
0.177945
0.177405
0.176879
0.176368
0.175871
0.175388
0.174919
0.199395
0.198208
0.19706
0.195948
0.194872
0.19383
0.192821
0.191844
0.190897
0.189979
0.18909
0.188227
0.187391
0.186579
0.185792
0.185028
0.184286
0.183566
0.182867
0.182188
0.181528
0.180887
0.180264
0.179659
0.179071
0.178499
0.177943
0.177403
0.176878
0.176367
0.17587
0.175387
0.174918
0.199395
0.198208
0.19706
0.195948
0.194872
0.19383
0.192821
0.191843
0.190896
0.189979
0.189089
0.188226
0.18739
0.186578
0.18579
0.185026
0.184284
0.183564
0.182865
0.182186
0.181526
0.180885
0.180262
0.179657
0.179069
0.178497
0.177941
0.177401
0.176876
0.176365
0.175868
0.175386
0.174916
0.199395
0.198208
0.197059
0.195948
0.194871
0.193829
0.19282
0.191843
0.190896
0.189978
0.189088
0.188225
0.187389
0.186577
0.185789
0.185025
0.184283
0.183563
0.182863
0.182184
0.181524
0.180883
0.180261
0.179655
0.179067
0.178495
0.17794
0.177399
0.176874
0.176363
0.175866
0.175384
0.174914
0.199395
0.198208
0.197059
0.195948
0.194871
0.193829
0.19282
0.191842
0.190895
0.189977
0.189087
0.188225
0.187388
0.186576
0.185788
0.185024
0.184282
0.183562
0.182862
0.182183
0.181523
0.180882
0.180259
0.179654
0.179065
0.178494
0.177938
0.177397
0.176872
0.176361
0.175864
0.175381
0.174912
0.199395
0.198208
0.197059
0.195947
0.194871
0.193829
0.19282
0.191842
0.190895
0.189977
0.189087
0.188224
0.187387
0.186575
0.185787
0.185023
0.184281
0.18356
0.182861
0.182181
0.181521
0.18088
0.180257
0.179652
0.179064
0.178492
0.177936
0.177395
0.17687
0.176359
0.175862
0.175379
0.174909
0.199395
0.198208
0.197059
0.195947
0.194871
0.193829
0.19282
0.191842
0.190894
0.189976
0.189086
0.188223
0.187386
0.186574
0.185786
0.185022
0.18428
0.183559
0.18286
0.18218
0.18152
0.180879
0.180256
0.179651
0.179062
0.17849
0.177934
0.177394
0.176868
0.176357
0.17586
0.175377
0.174907
0.199395
0.198208
0.197059
0.195947
0.194871
0.193829
0.192819
0.191842
0.190894
0.189976
0.189086
0.188223
0.187386
0.186574
0.185786
0.185021
0.184279
0.183558
0.182859
0.182179
0.181519
0.180878
0.180255
0.179649
0.179061
0.178489
0.177932
0.177392
0.176866
0.176355
0.175858
0.175374
0.174904
0.199395
0.198208
0.197059
0.195947
0.194871
0.193829
0.192819
0.191841
0.190894
0.189976
0.189085
0.188222
0.187385
0.186573
0.185785
0.18502
0.184278
0.183557
0.182858
0.182178
0.181518
0.180877
0.180253
0.179648
0.179059
0.178487
0.177931
0.17739
0.176864
0.176353
0.175855
0.175372
0.174901
0.199395
0.198208
0.197059
0.195947
0.194871
0.193829
0.192819
0.191841
0.190894
0.189975
0.189085
0.188222
0.187385
0.186573
0.185784
0.18502
0.184277
0.183557
0.182857
0.182177
0.181517
0.180875
0.180252
0.179646
0.179058
0.178485
0.177929
0.177388
0.176862
0.17635
0.175853
0.175369
0.174898
0.199395
0.198208
0.197059
0.195947
0.194871
0.193828
0.192819
0.191841
0.190894
0.189975
0.189085
0.188222
0.187384
0.186572
0.185784
0.185019
0.184277
0.183556
0.182856
0.182176
0.181516
0.180874
0.180251
0.179645
0.179056
0.178484
0.177927
0.177386
0.17686
0.176348
0.17585
0.175366
0.174895
0.199395
0.198208
0.197059
0.195947
0.194871
0.193828
0.192819
0.191841
0.190893
0.189975
0.189085
0.188221
0.187384
0.186572
0.185784
0.185019
0.184276
0.183555
0.182855
0.182175
0.181515
0.180873
0.18025
0.179644
0.179055
0.178482
0.177926
0.177384
0.176858
0.176346
0.175848
0.175363
0.174892
0.199395
0.198208
0.197059
0.195947
0.194871
0.193828
0.192819
0.191841
0.190893
0.189975
0.189085
0.188221
0.187384
0.186572
0.185783
0.185018
0.184276
0.183555
0.182855
0.182175
0.181514
0.180873
0.180249
0.179643
0.179054
0.178481
0.177924
0.177383
0.176856
0.176344
0.175846
0.175361
0.174889
0.199395
0.198208
0.197059
0.195947
0.194871
0.193828
0.192819
0.191841
0.190893
0.189975
0.189084
0.188221
0.187384
0.186571
0.185783
0.185018
0.184275
0.183554
0.182854
0.182174
0.181514
0.180872
0.180248
0.179642
0.179053
0.17848
0.177923
0.177381
0.176854
0.176342
0.175843
0.175358
0.174886
0.199395
0.198208
0.197059
0.195947
0.194871
0.193829
0.192819
0.191841
0.190894
0.189975
0.189085
0.188221
0.187384
0.186572
0.185783
0.185018
0.184276
0.183555
0.182855
0.182174
0.181514
0.180872
0.180248
0.179642
0.179052
0.178479
0.177922
0.17738
0.176853
0.17634
0.175842
0.175356
0.174884
0.199395
0.198208
0.197059
0.195947
0.194871
0.193828
0.192819
0.191841
0.190893
0.189975
0.189084
0.188221
0.187384
0.186571
0.185783
0.185018
0.184276
0.183554
0.182854
0.182174
0.181513
0.180872
0.180248
0.179641
0.179052
0.178479
0.177921
0.177379
0.176852
0.176339
0.17584
0.175355
0.174882
0.199395
0.198208
0.197059
0.195948
0.194871
0.193829
0.19282
0.191843
0.190895
0.189977
0.189087
0.188224
0.187386
0.186574
0.185786
0.185021
0.184278
0.183557
0.182857
0.182176
0.181516
0.180874
0.180249
0.179643
0.179053
0.17848
0.177922
0.17738
0.176853
0.176339
0.17584
0.175354
0.174881
0.199395
0.198209
0.19706
0.195949
0.194872
0.19383
0.192821
0.191843
0.190896
0.189978
0.189087
0.188224
0.187387
0.186575
0.185787
0.185022
0.18428
0.183559
0.182858
0.182178
0.181517
0.180875
0.180251
0.179644
0.179054
0.17848
0.177922
0.17738
0.176852
0.176338
0.175838
0.175351
0.174877
0.199395
0.198208
0.19706
0.19595
0.194876
0.193835
0.192827
0.191851
0.190905
0.189987
0.189097
0.188234
0.187397
0.186585
0.185797
0.185032
0.184288
0.183567
0.182866
0.182185
0.181523
0.18088
0.180254
0.179646
0.179054
0.178479
0.177919
0.177374
0.176844
0.176327
0.175825
0.175335
0.174859
0.199395
0.198212
0.197066
0.195957
0.194882
0.193842
0.192834
0.191857
0.190911
0.189993
0.189104
0.188241
0.187404
0.186591
0.185802
0.185035
0.18429
0.183567
0.182863
0.182179
0.181513
0.180866
0.180236
0.179623
0.179026
0.178445
0.177879
0.177327
0.17679
0.176267
0.175757
0.17526
0.174775
0.199396
0.198213
0.197071
0.195969
0.194902
0.193869
0.192866
0.191893
0.190947
0.190029
0.189137
0.18827
0.187427
0.186607
0.185809
0.185032
0.184277
0.183541
0.182825
0.182127
0.181447
0.180784
0.180138
0.179509
0.178895
0.178296
0.177713
0.177143
0.176588
0.176046
0.175517
0.175
0.174496
0.199402
0.19824
0.197114
0.196018
0.194952
0.193916
0.192908
0.191927
0.190972
0.19004
0.189131
0.188245
0.18738
0.186536
0.185712
0.184908
0.184124
0.183358
0.18261
0.18188
0.181167
0.180471
0.179792
0.179128
0.17848
0.177847
0.177229
0.176624
0.176034
0.175457
0.174893
0.174342
0.173804
0.199421
0.198284
0.197214
0.196182
0.195158
0.194136
0.193119
0.192111
0.191117
0.190142
0.189188
0.188256
0.187347
0.186462
0.185599
0.184759
0.18394
0.183143
0.182365
0.181606
0.180866
0.180144
0.17944
0.178752
0.17808
0.177424
0.176783
0.176156
0.175544
0.174946
0.174362
0.17379
0.173232
0.199655
0.198884
0.198077
0.197302
0.196603
0.195976
0.195405
0.19488
0.194396
0.19395
0.19354
0.193165
0.192823
0.192515
0.192238
0.191991
0.191774
0.191584
0.19142
0.19128
0.191164
0.19107
0.190996
0.190942
0.190906
0.190888
0.190886
0.1909
0.190928
0.190971
0.191027
0.191097
0.191179
0.205419
0.216602
0.227661
0.238503
0.249093
0.259415
0.269459
0.279212
0.288668
0.297819
0.306661
0.315192
0.323411
0.33132
0.338921
0.346217
0.353213
0.359916
0.366331
0.372466
0.378329
0.383926
0.389268
0.394362
0.399216
0.40384
0.408242
0.412431
0.416416
0.420204
0.423804
0.427222
0.430472
0.319475
0.62971
0.962634
1.28614
1.57142
1.79792
1.95847
2.05804
2.10962
2.12882
2.1296
2.12196
2.11173
2.10181
2.09373
2.08871
2.08777
2.09189
2.1017
2.11743
2.13882
2.16517
2.19537
2.22797
2.26119
2.29296
2.321
2.34285
2.35598
2.35774
2.34552
2.31668
2.26862
2.19884
2.10503
1.98524
1.83814
1.66347
1.46281
1.24068
1.00613
0.774342
0.566572
0.405155
0.302298
0.251461
0.233964
0.233151
0.239491
0.248356
0.25751
0.265849
0.272855
0.278352
0.282364
0.285034
0.286559
0.287152
0.287017
0.28634
0.285279
0.283969
0.282521
0.281025
0.279554
0.278166
0.276902
0.275793
0.274861
0.274114
0.273556
0.273182
0.272981
0.272935
0.273022
0.273212
0.273469
0.273751
0.274007
0.27418
0.274205
0.27401
0.273516
0.272634
0.271274
0.269339
0.266731
0.263354
0.259119
0.25394
0.247737
0.240443
0.232005
0.222407
0.211689
0.19997
0.187508
0.174474
0.162502
0.144652
0.228917
0.256499
0.301714
0.367785
0.458588
0.576456
0.719919
0.882214
1.05215
1.21644
1.36321
1.48484
1.57921
1.64882
1.69884
1.73515
1.76249
1.78499
1.80542
1.8254
1.84585
1.86719
1.88939
1.91193
1.93379
1.9535
1.96917
1.97864
1.97957
1.96949
1.94588
1.90628
1.84832
1.76988
1.66925
1.54539
1.3984
1.23014
1.04516
0.851811
0.663057
0.495755
0.366328
0.282888
0.240063
0.224067
0.222358
0.227391
0.235272
0.243967
0.252351
0.259799
0.266002
0.270859
0.274405
0.276765
0.278102
0.278597
0.278423
0.277742
0.276692
0.275394
0.273948
0.272438
0.270933
0.269488
0.268146
0.266941
0.265896
0.265027
0.26434
0.263836
0.263509
0.263347
0.263331
0.263436
0.26363
0.263875
0.264124
0.264324
0.264414
0.264327
0.263985
0.263306
0.262199
0.260567
0.258313
0.255341
0.251556
0.246871
0.241204
0.234485
0.226659
0.217702
0.207645
0.196594
0.184789
0.172381
0.16095
0.143777
0.191699
0.193885
0.198571
0.206709
0.219456
0.238498
0.266307
0.30603
0.360876
0.432948
0.522087
0.625306
0.737179
0.850991
0.960199
1.05965
1.14674
1.21962
1.27905
1.32735
1.36722
1.40093
1.42999
1.45511
1.47628
1.49288
1.50385
1.50774
1.5028
1.4871
1.45862
1.41541
1.35575
1.27835
1.18266
1.06926
0.940383
0.80056
0.657182
0.520546
0.402528
0.313116
0.255772
0.225714
0.213936
0.212584
0.216735
0.223607
0.231576
0.239635
0.247152
0.253745
0.259217
0.263506
0.266648
0.268744
0.269928
0.270351
0.27016
0.269493
0.26847
0.2672
0.265773
0.264266
0.262743
0.261257
0.259852
0.258562
0.257412
0.256421
0.255602
0.254958
0.25449
0.254189
0.254042
0.25403
0.254125
0.254294
0.254495
0.25468
0.254793
0.254771
0.254543
0.254028
0.25314
0.251784
0.249862
0.247277
0.243933
0.239739
0.234612
0.228477
0.221276
0.212978
0.203605
0.193244
0.182116
0.170352
0.159475
0.142981
0.178178
0.178496
0.179048
0.180013
0.181623
0.184158
0.188023
0.193838
0.202471
0.215042
0.23291
0.257555
0.290278
0.331784
0.381836
0.439178
0.501592
0.567193
0.633232
0.696672
0.755041
0.806768
0.851144
0.888062
0.917661
0.940018
0.954944
0.9619
0.960026
0.948242
0.925406
0.890508
0.842907
0.782603
0.710565
0.629071
0.541999
0.454891
0.37449
0.307408
0.258015
0.226672
0.210079
0.203652
0.203595
0.207383
0.213393
0.220525
0.228
0.23526
0.241918
0.247724
0.252544
0.256335
0.259126
0.260997
0.262056
0.262427
0.262233
0.261592
0.26061
0.259381
0.257986
0.256497
0.254972
0.253462
0.252009
0.250647
0.249404
0.2483
0.247351
0.246566
0.245948
0.245495
0.245198
0.245044
0.245011
0.24507
0.245185
0.245316
0.245411
0.245412
0.245256
0.244866
0.244159
0.243045
0.241427
0.239206
0.236286
0.232574
0.227983
0.222436
0.215868
0.208242
0.199566
0.189913
0.179479
0.168373
0.158059
0.142248
0.173229
0.172951
0.172747
0.172658
0.172723
0.172989
0.173515
0.174389
0.175735
0.177728
0.180619
0.184737
0.190475
0.198257
0.208495
0.221539
0.237572
0.25663
0.27869
0.303476
0.330343
0.358316
0.386206
0.412755
0.436752
0.457113
0.472895
0.483282
0.48756
0.485128
0.475549
0.458649
0.434674
0.40445
0.369524
0.3322
0.295383
0.262137
0.234979
0.215187
0.202593
0.196027
0.194056
0.195433
0.199181
0.204527
0.210839
0.217594
0.224363
0.230805
0.236667
0.241772
0.246021
0.249379
0.251868
0.253548
0.254504
0.254838
0.254651
0.254045
0.25311
0.25193
0.250579
0.249119
0.247606
0.246087
0.244602
0.243185
0.241863
0.240659
0.239589
0.238667
0.237899
0.237289
0.236832
0.236519
0.236334
0.236256
0.236256
0.236296
0.236334
0.236319
0.236192
0.235885
0.235319
0.23441
0.233061
0.231177
0.22866
0.225413
0.221349
0.216384
0.21045
0.203501
0.195531
0.186595
0.176866
0.166428
0.156687
0.141563
0.172114
0.171599
0.171114
0.170666
0.170266
0.169931
0.169681
0.169539
0.169533
0.169701
0.17009
0.170759
0.171778
0.173226
0.175198
0.177791
0.181105
0.185166
0.189862
0.195197
0.201166
0.20771
0.21469
0.221881
0.228973
0.235588
0.241303
0.245684
0.248323
0.248885
0.247152
0.243082
0.236858
0.228913
0.219921
0.21072
0.202178
0.195025
0.18974
0.186518
0.185337
0.186038
0.188388
0.192111
0.196902
0.202448
0.208438
0.214577
0.220598
0.226275
0.231427
0.235921
0.239678
0.242667
0.244898
0.246416
0.247288
0.247594
0.247421
0.246854
0.245971
0.244845
0.243543
0.242122
0.240633
0.239118
0.237616
0.236159
0.234774
0.233485
0.232308
0.23126
0.23035
0.229584
0.228963
0.228483
0.228134
0.2279
0.227757
0.227677
0.227624
0.227555
0.227418
0.227151
0.226686
0.22594
0.224824
0.223243
0.221099
0.218295
0.21474
0.210346
0.20504
0.198765
0.191503
0.183289
0.174271
0.164507
0.155344
0.14091
0.172328
0.171705
0.171094
0.170503
0.169936
0.1694
0.168901
0.168444
0.168039
0.167697
0.167433
0.167266
0.167219
0.167313
0.167571
0.168013
0.168666
0.169518
0.170537
0.171701
0.172993
0.174394
0.175876
0.177401
0.178914
0.180349
0.181627
0.182662
0.183374
0.183692
0.183578
0.18303
0.182098
0.18089
0.179565
0.17832
0.177367
0.176907
0.177111
0.178103
0.179951
0.182663
0.186191
0.190436
0.195257
0.200482
0.205924
0.211393
0.216705
0.221698
0.226233
0.230203
0.233542
0.236216
0.238228
0.23961
0.240413
0.240701
0.240546
0.240019
0.23919
0.238121
0.236873
0.235497
0.234039
0.232539
0.231033
0.229552
0.22812
0.226762
0.225495
0.224335
0.223295
0.222383
0.221603
0.220956
0.220436
0.220034
0.219733
0.21951
0.219338
0.219181
0.218996
0.218731
0.218323
0.217699
0.216774
0.215458
0.213654
0.211264
0.208194
0.204353
0.199659
0.194049
0.187489
0.179994
0.171686
0.162599
0.154017
0.140275
0.172895
0.172236
0.171582
0.170936
0.170302
0.169684
0.169087
0.168515
0.16797
0.167459
0.166986
0.166556
0.166179
0.165862
0.165616
0.165449
0.16537
0.165375
0.165458
0.165609
0.165816
0.166069
0.166356
0.166667
0.16699
0.167313
0.167622
0.167906
0.168154
0.168365
0.16854
0.168696
0.168862
0.169083
0.169421
0.169948
0.170748
0.171904
0.173495
0.175582
0.178201
0.181359
0.185029
0.18915
0.193632
0.198361
0.203209
0.20804
0.212718
0.217116
0.221123
0.224649
0.227632
0.23004
0.231868
0.233136
0.233883
0.234159
0.234024
0.233539
0.232763
0.231752
0.230559
0.229231
0.227811
0.226335
0.224836
0.223343
0.221881
0.22047
0.21913
0.217876
0.216722
0.215677
0.21475
0.213942
0.213255
0.212682
0.212213
0.211833
0.211521
0.211249
0.210984
0.210683
0.210292
0.209747
0.208971
0.207879
0.206375
0.204365
0.201749
0.198435
0.194333
0.189369
0.183497
0.176712
0.169109
0.160694
0.152691
0.139644
0.17344
0.17278
0.172121
0.171465
0.170815
0.170175
0.169548
0.168936
0.168344
0.167775
0.16723
0.166713
0.166227
0.165775
0.165362
0.164993
0.16467
0.164397
0.164173
0.163996
0.163864
0.163772
0.163718
0.163698
0.163711
0.163755
0.163831
0.163942
0.164095
0.164297
0.164562
0.16491
0.165365
0.165958
0.166728
0.167718
0.168972
0.170537
0.172453
0.17475
0.177444
0.180532
0.183989
0.187769
0.191805
0.196015
0.200302
0.204562
0.208688
0.212577
0.216135
0.219284
0.221967
0.224149
0.225821
0.226993
0.227694
0.227964
0.227851
0.227407
0.226682
0.225729
0.224592
0.223315
0.221937
0.220491
0.219008
0.217515
0.216034
0.214587
0.213191
0.211861
0.210611
0.209452
0.208392
0.207438
0.206592
0.205853
0.205216
0.204672
0.204207
0.203802
0.203431
0.203061
0.20265
0.202143
0.201473
0.20056
0.199316
0.197645
0.195447
0.192627
0.189088
0.184746
0.179541
0.173448
0.166536
0.158786
0.151358
0.139006
0.173848
0.173201
0.172553
0.171906
0.171261
0.170622
0.169992
0.169374
0.16877
0.168184
0.167618
0.167075
0.166555
0.166061
0.165596
0.165161
0.164758
0.16439
0.164058
0.163763
0.163508
0.163292
0.163115
0.162981
0.162889
0.162843
0.162848
0.162911
0.16304
0.163246
0.163545
0.163954
0.164494
0.16519
0.166071
0.167164
0.168502
0.170112
0.172018
0.174236
0.176772
0.17962
0.182757
0.186147
0.189738
0.193465
0.197252
0.201017
0.204671
0.208128
0.211305
0.214133
0.21656
0.218549
0.220087
0.221178
0.221841
0.222108
0.222017
0.221613
0.22094
0.220042
0.218961
0.217735
0.216401
0.21499
0.21353
0.212046
0.21056
0.20909
0.207654
0.206266
0.204939
0.203684
0.202511
0.201428
0.200438
0.199545
0.198748
0.198041
0.197419
0.196868
0.196373
0.19591
0.195447
0.19494
0.194334
0.193557
0.192527
0.191151
0.189331
0.186965
0.183953
0.180201
0.175635
0.17021
0.16397
0.156871
0.150009
0.138348
0.174112
0.17348
0.172847
0.172213
0.171581
0.170953
0.170331
0.169718
0.169117
0.168531
0.167962
0.167412
0.166883
0.166377
0.165895
0.165439
0.16501
0.164611
0.164242
0.163906
0.163605
0.163341
0.163117
0.162936
0.162802
0.162719
0.162694
0.162734
0.162849
0.163049
0.163348
0.163762
0.164308
0.165008
0.165882
0.166952
0.16824
0.169767
0.171546
0.17359
0.175898
0.178465
0.181271
0.184287
0.187472
0.190773
0.194128
0.197468
0.20072
0.203808
0.20666
0.209215
0.21142
0.213243
0.214666
0.215686
0.216317
0.216582
0.216513
0.216147
0.215523
0.214678
0.213652
0.212478
0.21119
0.209817
0.208385
0.206918
0.205435
0.203955
0.202493
0.201063
0.199677
0.198346
0.197081
0.195888
0.194774
0.193744
0.192799
0.19194
0.191164
0.190465
0.189835
0.18926
0.18872
0.188182
0.187601
0.186917
0.186056
0.18493
0.183441
0.181486
0.178959
0.175758
0.171794
0.167007
0.161414
0.154947
0.148639
0.137664
0.174261
0.173643
0.173023
0.172402
0.171782
0.171165
0.170553
0.169949
0.169354
0.168772
0.168204
0.167654
0.167122
0.166612
0.166124
0.165659
0.16522
0.164808
0.164424
0.164071
0.16375
0.163465
0.163219
0.163015
0.162858
0.162753
0.162707
0.162727
0.162822
0.163002
0.16328
0.163669
0.164184
0.164842
0.16566
0.166655
0.167845
0.169243
0.170861
0.172706
0.174779
0.177073
0.179572
0.182252
0.185079
0.18801
0.190994
0.193971
0.196879
0.199651
0.202224
0.204541
0.206555
0.208232
0.209552
0.210509
0.211111
0.211376
0.211328
0.210998
0.210419
0.209626
0.208652
0.20753
0.206289
0.204956
0.203556
0.202111
0.200639
0.199158
0.197683
0.196225
0.194798
0.19341
0.192071
0.19079
0.189573
0.188425
0.187352
0.186354
0.185435
0.184594
0.183828
0.183132
0.182496
0.1819
0.181311
0.180682
0.179945
0.179022
0.177816
0.176225
0.174136
0.171441
0.168039
0.163852
0.158875
0.153016
0.147244
0.136945
0.174337
0.173727
0.173116
0.172505
0.171894
0.171285
0.170681
0.170083
0.169494
0.168915
0.168349
0.167798
0.167265
0.16675
0.166257
0.165785
0.165338
0.164915
0.164521
0.164155
0.16382
0.16352
0.163257
0.163036
0.162859
0.162734
0.162666
0.162661
0.16273
0.16288
0.163123
0.16347
0.163935
0.164531
0.165272
0.166173
0.167248
0.168507
0.16996
0.171611
0.173462
0.175506
0.177731
0.180116
0.182632
0.185245
0.187908
0.190573
0.193183
0.195681
0.19801
0.200119
0.201963
0.20351
0.204738
0.205638
0.206214
0.206477
0.206447
0.206151
0.205615
0.204871
0.203948
0.202876
0.201681
0.20039
0.199025
0.197606
0.196152
0.194679
0.1932
0.191727
0.190272
0.188844
0.187451
0.186101
0.184802
0.183559
0.182377
0.181261
0.180215
0.179243
0.178347
0.177529
0.176789
0.176116
0.175493
0.174882
0.17423
0.173464
0.172493
0.171214
0.169514
0.167275
0.164388
0.160759
0.156361
0.15108
0.145824
0.136188
0.174371
0.173766
0.17316
0.172554
0.171949
0.171346
0.170746
0.170152
0.169565
0.168987
0.168421
0.167868
0.16733
0.16681
0.166309
0.165828
0.16537
0.164937
0.164529
0.164149
0.163799
0.163483
0.163202
0.162961
0.162763
0.162614
0.16252
0.162487
0.162523
0.162635
0.162835
0.163132
0.163537
0.164063
0.164721
0.165523
0.166481
0.167604
0.168899
0.170372
0.172021
0.173841
0.175823
0.177949
0.180195
0.182529
0.184915
0.187306
0.189656
0.191914
0.194028
0.195952
0.197644
0.199073
0.200216
0.201063
0.201613
0.201873
0.20186
0.201593
0.201097
0.200399
0.199525
0.198501
0.197352
0.196103
0.194774
0.193386
0.191954
0.190495
0.18902
0.187543
0.186073
0.184618
0.183188
0.181789
0.180427
0.17911
0.177842
0.176628
0.175475
0.174388
0.173374
0.172441
0.171594
0.170836
0.170158
0.169538
0.168934
0.168282
0.167499
0.166482
0.165118
0.163285
0.160862
0.157743
0.153882
0.149146
0.144381
0.135391
0.174383
0.173781
0.173178
0.172574
0.171972
0.171371
0.170773
0.17018
0.169593
0.169014
0.168445
0.167888
0.167345
0.166817
0.166306
0.165815
0.165344
0.164896
0.164473
0.164077
0.163709
0.163373
0.163071
0.162807
0.162585
0.162409
0.162285
0.162219
0.162218
0.162289
0.162442
0.162684
0.163027
0.16348
0.164053
0.164758
0.165604
0.166598
0.167748
0.169056
0.170523
0.172144
0.173911
0.175808
0.177815
0.179905
0.182045
0.184196
0.186316
0.188359
0.19028
0.192037
0.193591
0.194911
0.195976
0.196772
0.197296
0.197552
0.197552
0.197312
0.196852
0.196196
0.195368
0.19439
0.193287
0.19208
0.190789
0.189432
0.188026
0.186585
0.185123
0.183649
0.182173
0.180705
0.179251
0.177818
0.176413
0.175041
0.173707
0.172418
0.171178
0.169997
0.168882
0.167845
0.166898
0.166051
0.165307
0.164657
0.16407
0.163495
0.162855
0.162052
0.160972
0.15949
0.157478
0.154819
0.151451
0.147221
0.142919
0.134554
0.174387
0.173785
0.173183
0.172581
0.171979
0.171379
0.170781
0.170187
0.169598
0.169017
0.168444
0.167881
0.16733
0.166794
0.166272
0.165769
0.165284
0.164821
0.16438
0.163965
0.163577
0.163219
0.162894
0.162605
0.162355
0.16215
0.161994
0.161893
0.161852
0.16188
0.161983
0.16217
0.162449
0.16283
0.163322
0.163933
0.164673
0.165547
0.166562
0.167721
0.169023
0.170465
0.172039
0.173732
0.175527
0.177399
0.179319
0.181255
0.183168
0.185018
0.186765
0.188369
0.189796
0.191015
0.192006
0.192753
0.19325
0.1935
0.193509
0.193292
0.192866
0.192249
0.191463
0.19053
0.18947
0.188304
0.187051
0.185728
0.18435
0.182933
0.181486
0.180022
0.17855
0.177077
0.175611
0.174159
0.172725
0.171315
0.169935
0.16859
0.167285
0.166029
0.164832
0.163707
0.162671
0.16174
0.160927
0.160233
0.159641
0.15911
0.158574
0.157939
0.157092
0.155908
0.154254
0.152003
0.149079
0.145317
0.141445
0.13368
0.174386
0.173785
0.173183
0.172581
0.171979
0.171378
0.17078
0.170184
0.169593
0.169008
0.16843
0.167861
0.167303
0.166757
0.166224
0.165708
0.165209
0.164729
0.164271
0.163836
0.163427
0.163046
0.162696
0.162381
0.162103
0.161867
0.161678
0.16154
0.161459
0.161442
0.161495
0.161627
0.161844
0.162155
0.162568
0.163091
0.163731
0.164494
0.165385
0.166407
0.167559
0.168839
0.170239
0.171748
0.17335
0.175025
0.176748
0.178489
0.180215
0.181889
0.183477
0.184941
0.186249
0.187374
0.188293
0.188992
0.189462
0.189703
0.18972
0.189522
0.189124
0.188543
0.187797
0.186905
0.185887
0.184762
0.183546
0.182257
0.18091
0.179518
0.178092
0.176643
0.17518
0.173711
0.172243
0.170781
0.169332
0.167899
0.166489
0.165106
0.163755
0.162445
0.161185
0.15999
0.158878
0.157872
0.156991
0.156247
0.155634
0.155123
0.154656
0.154148
0.153489
0.152552
0.151203
0.149308
0.146781
0.143442
0.139968
0.132773
0.174384
0.173783
0.173181
0.172579
0.171976
0.171374
0.170774
0.170177
0.169583
0.168994
0.168411
0.167836
0.16727
0.166715
0.166172
0.165643
0.16513
0.164634
0.164159
0.163705
0.163275
0.162871
0.162497
0.162154
0.161848
0.161581
0.161358
0.161183
0.161063
0.161002
0.161007
0.161084
0.161241
0.161486
0.161824
0.162263
0.16281
0.163469
0.164246
0.165141
0.166155
0.167286
0.168527
0.169868
0.171296
0.172793
0.174336
0.175899
0.177453
0.178967
0.180407
0.181741
0.182939
0.183974
0.184825
0.185477
0.185919
0.186149
0.18617
0.185988
0.185615
0.185066
0.184356
0.183503
0.182524
0.181438
0.180259
0.179005
0.177689
0.176324
0.174922
0.173492
0.172044
0.170585
0.169121
0.16766
0.166205
0.164762
0.163335
0.161929
0.160548
0.159201
0.157896
0.156649
0.155478
0.154409
0.153467
0.152672
0.152029
0.151519
0.151095
0.150679
0.150165
0.149428
0.148335
0.146746
0.144566
0.141608
0.138497
0.131839
0.174382
0.173781
0.173178
0.172575
0.171972
0.171369
0.170767
0.170168
0.169571
0.168978
0.168391
0.16781
0.167237
0.166673
0.16612
0.165579
0.165053
0.164543
0.16405
0.163578
0.163128
0.162702
0.162304
0.161936
0.161602
0.161304
0.161049
0.160838
0.160679
0.160575
0.160533
0.160559
0.160659
0.160839
0.161107
0.161467
0.161927
0.162489
0.163159
0.163938
0.164825
0.165819
0.166914
0.168102
0.16937
0.170702
0.17208
0.173481
0.174877
0.176242
0.177546
0.178759
0.179853
0.180804
0.181589
0.182194
0.182607
0.182824
0.182845
0.182676
0.182324
0.181803
0.181127
0.180309
0.179368
0.178319
0.177176
0.175956
0.174672
0.173336
0.171959
0.170552
0.169122
0.167677
0.166225
0.164771
0.163319
0.161874
0.160442
0.159025
0.157629
0.156259
0.154926
0.153642
0.152428
0.151309
0.150316
0.149473
0.148796
0.148276
0.147874
0.14752
0.147116
0.146539
0.145655
0.144325
0.142446
0.139825
0.13704
0.130885
0.17438
0.173778
0.173175
0.172571
0.171967
0.171363
0.17076
0.170158
0.169559
0.168962
0.168371
0.167784
0.167204
0.166633
0.16607
0.165519
0.164981
0.164456
0.163949
0.163459
0.16299
0.162544
0.162123
0.161731
0.16137
0.161044
0.160757
0.160513
0.160316
0.160171
0.160085
0.160061
0.160106
0.160227
0.160427
0.160714
0.161091
0.161564
0.162135
0.162805
0.163575
0.164443
0.165403
0.166449
0.16757
0.168752
0.169978
0.171228
0.172479
0.173707
0.174884
0.175983
0.17698
0.177849
0.178571
0.179129
0.179512
0.179714
0.179733
0.179573
0.179239
0.178742
0.178095
0.177311
0.176404
0.17539
0.174283
0.173097
0.171844
0.170538
0.169189
0.167806
0.166398
0.164973
0.163536
0.162094
0.160652
0.159214
0.157784
0.156366
0.154964
0.153585
0.152236
0.15093
0.149686
0.148531