/*--------------------------------*- C++ -*----------------------------------*\
  =========                 |
  \\      /  F ield         | OpenFOAM: The Open Source CFD Toolbox
   \\    /   O peration     | Website:  https://openfoam.org
    \\  /    A nd           | Version:  10
     \\/     M anipulation  |
\*---------------------------------------------------------------------------*/
FoamFile
{
    format      ascii;
    class       volScalarField;
    location    "0.085";
    object      nut;
}
// * * * * * * * * * * * * * * * * * * * * * * * * * * * * * * * * * * * * * //

dimensions      [0 2 -1 0 0 0 0];

internalField   nonuniform List<scalar> 
6820
(
0.000149484
0.000144853
0.000140581
0.000136577
0.000132833
0.000129376
0.000126234
0.000123417
0.000120923
0.000118737
0.00011684
0.000115208
0.000113815
0.000112638
0.000111654
0.000110842
0.000110183
0.00010966
0.000109257
0.000108961
0.000108758
0.000108638
0.000108592
0.00010861
0.000108684
0.000108808
0.000108973
0.000109192
0.000109373
0.00010992
0.000108924
0.000115314
8.7186e-05
0.000729198
0.000532389
0.000448007
0.000399699
0.00036837
0.000346719
0.000331074
0.000319343
0.000310254
0.000303005
0.000297072
0.000292111
0.000287886
0.000284232
0.000281031
0.000278197
0.000275664
0.000273385
0.000271318
0.000269434
0.000267708
0.000266119
0.000264652
0.000263292
0.000262028
0.00026085
0.000259753
0.000258724
0.000257771
0.000256878
0.000256091
0.000255203
0.000256354
0.000976776
0.000872181
0.00078162
0.000711259
0.00065731
0.000615264
0.000581687
0.00055422
0.000531275
0.000511769
0.000494943
0.000480249
0.000467282
0.000455737
0.00044538
0.000436026
0.000427529
0.000419773
0.00041266
0.000406113
0.000400064
0.000394457
0.000389246
0.000384388
0.000379847
0.000375593
0.000371593
0.000367824
0.000364251
0.000360859
0.000357573
0.000354338
0.000350892
0.00101349
0.000988231
0.000949374
0.000906191
0.00086442
0.000826373
0.000792536
0.000762642
0.000736197
0.00071269
0.000691668
0.000672747
0.00065561
0.000639999
0.000625702
0.000612544
0.000600382
0.000589096
0.000578586
0.000568768
0.000559569
0.000550928
0.000542792
0.000535114
0.000527854
0.000520974
0.000514441
0.000508225
0.000502294
0.000496626
0.00049117
0.000485937
0.000480747
0.00101671
0.00101241
0.00100191
0.00098566
0.000965601
0.000943707
0.000921413
0.000899596
0.000878725
0.000859008
0.000840505
0.000823193
0.000807008
0.000791871
0.000777696
0.000764399
0.000751902
0.000740133
0.000729027
0.000718526
0.000708577
0.000699134
0.000690155
0.000681603
0.000673442
0.000665643
0.000658177
0.000651016
0.000644135
0.00063751
0.000631108
0.000624918
0.000618877
0.00101676
0.00101592
0.0010136
0.00100903
0.00100204
0.000992917
0.000982186
0.000970389
0.000957992
0.000945355
0.000932735
0.000920307
0.000908184
0.000896434
0.000885095
0.000874182
0.000863698
0.000853635
0.00084398
0.000834717
0.000825827
0.00081729
0.000809089
0.000801202
0.000793612
0.000786301
0.000779249
0.00077244
0.000765855
0.000759479
0.000753292
0.000747279
0.000741419
0.00101671
0.00101623
0.00101553
0.00101428
0.00101219
0.00100909
0.00100496
0.000999888
0.000994013
0.00098751
0.000980543
0.000973259
0.000965782
0.000958209
0.000950619
0.000943072
0.000935611
0.00092827
0.000921071
0.00091403
0.000907156
0.000900456
0.00089393
0.000887578
0.000881399
0.000875386
0.000869536
0.000863842
0.000858295
0.00085289
0.000847616
0.000842466
0.00083743
0.0010167
0.00101622
0.00101574
0.00101518
0.00101442
0.00101335
0.00101188
0.00100995
0.00100755
0.0010047
0.00100144
0.000997815
0.000993893
0.000989729
0.000985376
0.000980882
0.00097629
0.000971637
0.000966951
0.000962259
0.000957581
0.000952933
0.000948329
0.000943778
0.000939288
0.000934864
0.00093051
0.000926228
0.000922019
0.000917883
0.000913817
0.000909821
0.000905894
0.0010167
0.00101621
0.00101575
0.00101528
0.0010148
0.00101425
0.00101359
0.00101278
0.00101179
0.00101059
0.00100917
0.00100753
0.00100568
0.00100364
0.00100142
0.000999042
0.000996534
0.000993913
0.0009912
0.000988413
0.000985568
0.000982681
0.000979765
0.00097683
0.000973888
0.000970945
0.000968008
0.000965084
0.000962177
0.000959291
0.000956428
0.00095359
0.000950781
0.0010167
0.00101621
0.00101574
0.00101529
0.00101484
0.00101439
0.00101393
0.00101344
0.0010129
0.00101229
0.0010116
0.00101081
0.00100993
0.00100894
0.00100786
0.00100667
0.00100538
0.00100401
0.00100256
0.00100103
0.000999441
0.000997795
0.0009961
0.000994364
0.000992595
0.000990798
0.000988979
0.000987143
0.000985296
0.000983441
0.000981581
0.000979721
0.000977863
0.0010167
0.00101621
0.00101574
0.00101528
0.00101484
0.00101441
0.00101398
0.00101356
0.00101313
0.0010127
0.00101224
0.00101176
0.00101125
0.00101069
0.0010101
0.00100946
0.00100877
0.00100804
0.00100726
0.00100643
0.00100556
0.00100465
0.00100371
0.00100272
0.00100171
0.00100067
0.000999605
0.000998517
0.000997411
0.000996289
0.000995154
0.000994007
0.000992854
0.0010167
0.00101621
0.00101574
0.00101528
0.00101484
0.0010144
0.00101398
0.00101357
0.00101317
0.00101277
0.00101238
0.00101199
0.00101159
0.00101119
0.00101077
0.00101035
0.00100991
0.00100945
0.00100897
0.00100848
0.00100796
0.00100742
0.00100687
0.00100629
0.0010057
0.00100509
0.00100446
0.00100382
0.00100317
0.0010025
0.00100182
0.00100113
0.00100043
0.0010167
0.00101621
0.00101574
0.00101528
0.00101483
0.0010144
0.00101398
0.00101357
0.00101317
0.00101278
0.0010124
0.00101203
0.00101166
0.0010113
0.00101095
0.00101059
0.00101023
0.00100988
0.00100952
0.00100916
0.00100879
0.00100842
0.00100804
0.00100765
0.00100726
0.00100687
0.00100646
0.00100605
0.00100564
0.00100521
0.00100479
0.00100436
0.00100392
0.0010167
0.00101621
0.00101574
0.00101528
0.00101483
0.0010144
0.00101398
0.00101357
0.00101317
0.00101278
0.0010124
0.00101203
0.00101167
0.00101132
0.00101098
0.00101064
0.00101031
0.00100999
0.00100967
0.00100935
0.00100904
0.00100873
0.00100842
0.00100811
0.00100781
0.0010075
0.0010072
0.00100689
0.00100659
0.00100629
0.00100598
0.00100568
0.00100538
0.0010167
0.00101621
0.00101574
0.00101528
0.00101483
0.0010144
0.00101398
0.00101357
0.00101317
0.00101278
0.0010124
0.00101203
0.00101167
0.00101132
0.00101098
0.00101065
0.00101033
0.00101001
0.0010097
0.0010094
0.0010091
0.00100881
0.00100853
0.00100825
0.00100797
0.0010077
0.00100744
0.00100718
0.00100692
0.00100666
0.00100641
0.00100617
0.00100592
0.0010167
0.00101621
0.00101574
0.00101528
0.00101483
0.0010144
0.00101397
0.00101356
0.00101316
0.00101278
0.0010124
0.00101203
0.00101167
0.00101132
0.00101098
0.00101065
0.00101033
0.00101001
0.00100971
0.00100941
0.00100912
0.00100883
0.00100855
0.00100828
0.00100802
0.00100776
0.00100751
0.00100726
0.00100702
0.00100678
0.00100655
0.00100633
0.00100611
0.0010167
0.00101621
0.00101574
0.00101528
0.00101483
0.0010144
0.00101397
0.00101356
0.00101316
0.00101277
0.0010124
0.00101203
0.00101167
0.00101132
0.00101098
0.00101065
0.00101033
0.00101001
0.00100971
0.00100941
0.00100912
0.00100883
0.00100856
0.00100829
0.00100803
0.00100777
0.00100752
0.00100728
0.00100704
0.00100681
0.00100659
0.00100637
0.00100616
0.0010167
0.00101621
0.00101574
0.00101528
0.00101483
0.0010144
0.00101397
0.00101356
0.00101316
0.00101277
0.00101239
0.00101203
0.00101167
0.00101132
0.00101098
0.00101065
0.00101032
0.00101001
0.0010097
0.0010094
0.00100911
0.00100883
0.00100856
0.00100829
0.00100803
0.00100777
0.00100752
0.00100728
0.00100705
0.00100682
0.0010066
0.00100639
0.00100618
0.0010167
0.00101621
0.00101574
0.00101528
0.00101483
0.00101439
0.00101397
0.00101356
0.00101316
0.00101277
0.00101239
0.00101202
0.00101166
0.00101132
0.00101097
0.00101064
0.00101032
0.00101001
0.0010097
0.0010094
0.00100911
0.00100883
0.00100855
0.00100829
0.00100802
0.00100777
0.00100752
0.00100728
0.00100705
0.00100682
0.0010066
0.00100639
0.00100618
0.0010167
0.00101621
0.00101574
0.00101528
0.00101483
0.00101439
0.00101397
0.00101356
0.00101316
0.00101277
0.00101239
0.00101202
0.00101166
0.00101131
0.00101097
0.00101064
0.00101032
0.00101
0.0010097
0.0010094
0.00100911
0.00100883
0.00100855
0.00100828
0.00100802
0.00100777
0.00100752
0.00100728
0.00100705
0.00100682
0.0010066
0.00100638
0.00100618
0.0010167
0.00101621
0.00101574
0.00101528
0.00101483
0.00101439
0.00101397
0.00101356
0.00101316
0.00101277
0.00101239
0.00101202
0.00101166
0.00101131
0.00101097
0.00101064
0.00101032
0.00101
0.0010097
0.0010094
0.00100911
0.00100882
0.00100855
0.00100828
0.00100802
0.00100776
0.00100752
0.00100728
0.00100704
0.00100682
0.00100659
0.00100638
0.00100617
0.0010167
0.00101621
0.00101574
0.00101528
0.00101483
0.00101439
0.00101397
0.00101356
0.00101316
0.00101277
0.00101239
0.00101202
0.00101166
0.00101131
0.00101097
0.00101064
0.00101032
0.00101
0.00100969
0.0010094
0.00100911
0.00100882
0.00100855
0.00100828
0.00100802
0.00100776
0.00100751
0.00100727
0.00100704
0.00100681
0.00100659
0.00100638
0.00100617
0.0010167
0.00101621
0.00101574
0.00101528
0.00101483
0.00101439
0.00101397
0.00101356
0.00101316
0.00101277
0.00101239
0.00101202
0.00101166
0.00101131
0.00101097
0.00101064
0.00101031
0.00101
0.00100969
0.00100939
0.0010091
0.00100882
0.00100854
0.00100828
0.00100801
0.00100776
0.00100751
0.00100727
0.00100704
0.00100681
0.00100659
0.00100637
0.00100616
0.0010167
0.00101621
0.00101574
0.00101528
0.00101483
0.00101439
0.00101397
0.00101356
0.00101316
0.00101277
0.00101239
0.00101202
0.00101166
0.00101131
0.00101097
0.00101064
0.00101031
0.00101
0.00100969
0.00100939
0.0010091
0.00100882
0.00100854
0.00100827
0.00100801
0.00100776
0.00100751
0.00100727
0.00100703
0.0010068
0.00100658
0.00100637
0.00100616
0.0010167
0.00101621
0.00101574
0.00101528
0.00101483
0.00101439
0.00101397
0.00101356
0.00101316
0.00101277
0.00101239
0.00101202
0.00101166
0.00101131
0.00101097
0.00101063
0.00101031
0.00101
0.00100969
0.00100939
0.0010091
0.00100882
0.00100854
0.00100827
0.00100801
0.00100775
0.00100751
0.00100726
0.00100703
0.0010068
0.00100658
0.00100636
0.00100615
0.0010167
0.00101621
0.00101574
0.00101528
0.00101483
0.00101439
0.00101397
0.00101356
0.00101316
0.00101277
0.00101239
0.00101202
0.00101166
0.00101131
0.00101097
0.00101063
0.00101031
0.00101
0.00100969
0.00100939
0.0010091
0.00100881
0.00100854
0.00100827
0.00100801
0.00100775
0.0010075
0.00100726
0.00100703
0.0010068
0.00100657
0.00100636
0.00100614
0.0010167
0.00101621
0.00101574
0.00101528
0.00101483
0.00101439
0.00101397
0.00101356
0.00101316
0.00101277
0.00101239
0.00101202
0.00101166
0.00101131
0.00101097
0.00101063
0.00101031
0.00100999
0.00100969
0.00100939
0.0010091
0.00100881
0.00100854
0.00100827
0.001008
0.00100775
0.0010075
0.00100726
0.00100702
0.00100679
0.00100657
0.00100635
0.00100614
0.0010167
0.00101621
0.00101574
0.00101528
0.00101483
0.00101439
0.00101397
0.00101356
0.00101316
0.00101277
0.00101239
0.00101202
0.00101166
0.00101131
0.00101097
0.00101063
0.00101031
0.00100999
0.00100969
0.00100939
0.0010091
0.00100881
0.00100854
0.00100827
0.001008
0.00100775
0.0010075
0.00100725
0.00100702
0.00100679
0.00100656
0.00100635
0.00100613
0.0010167
0.00101621
0.00101574
0.00101528
0.00101483
0.00101439
0.00101397
0.00101356
0.00101316
0.00101277
0.00101239
0.00101202
0.00101166
0.00101131
0.00101096
0.00101063
0.00101031
0.00100999
0.00100969
0.00100939
0.0010091
0.00100881
0.00100853
0.00100826
0.001008
0.00100775
0.0010075
0.00100725
0.00100702
0.00100678
0.00100656
0.00100634
0.00100613
0.0010167
0.00101621
0.00101574
0.00101528
0.00101483
0.00101439
0.00101397
0.00101356
0.00101316
0.00101277
0.00101239
0.00101202
0.00101166
0.00101131
0.00101097
0.00101063
0.00101031
0.00100999
0.00100969
0.00100939
0.0010091
0.00100881
0.00100853
0.00100826
0.001008
0.00100774
0.00100749
0.00100725
0.00100701
0.00100678
0.00100656
0.00100634
0.00100612
0.0010167
0.00101621
0.00101574
0.00101528
0.00101483
0.00101439
0.00101397
0.00101356
0.00101316
0.00101277
0.00101239
0.00101202
0.00101166
0.00101131
0.00101097
0.00101064
0.00101031
0.00101
0.00100969
0.00100939
0.0010091
0.00100881
0.00100854
0.00100826
0.001008
0.00100774
0.00100749
0.00100725
0.00100701
0.00100678
0.00100655
0.00100633
0.00100611
0.0010167
0.00101621
0.00101574
0.00101528
0.00101483
0.0010144
0.00101397
0.00101356
0.00101316
0.00101277
0.00101239
0.00101203
0.00101167
0.00101132
0.00101097
0.00101064
0.00101032
0.00101
0.00100969
0.00100939
0.0010091
0.00100881
0.00100853
0.00100826
0.00100799
0.00100773
0.00100747
0.00100722
0.00100698
0.00100674
0.00100651
0.00100628
0.00100605
0.0010167
0.00101621
0.00101574
0.00101528
0.00101483
0.0010144
0.00101398
0.00101357
0.00101317
0.00101278
0.0010124
0.00101203
0.00101167
0.00101132
0.00101097
0.00101064
0.00101031
0.00100999
0.00100967
0.00100936
0.00100905
0.00100876
0.00100846
0.00100817
0.00100789
0.0010076
0.00100733
0.00100705
0.00100678
0.00100651
0.00100625
0.00100599
0.00100573
0.0010167
0.00101621
0.00101574
0.00101529
0.00101484
0.00101441
0.00101399
0.00101358
0.00101318
0.00101279
0.0010124
0.00101202
0.00101164
0.00101127
0.0010109
0.00101053
0.00101016
0.00100979
0.00100943
0.00100906
0.00100869
0.00100832
0.00100795
0.00100757
0.00100719
0.00100681
0.00100643
0.00100605
0.00100566
0.00100527
0.00100488
0.00100449
0.00100409
0.0010167
0.00101622
0.00101575
0.0010153
0.00101485
0.00101441
0.00101397
0.00101352
0.00101307
0.00101262
0.00101214
0.00101166
0.00101115
0.00101063
0.00101008
0.00100951
0.00100891
0.00100829
0.00100765
0.00100699
0.0010063
0.00100559
0.00100486
0.00100411
0.00100334
0.00100255
0.00100175
0.00100093
0.0010001
0.000999262
0.00099841
0.00099755
0.000996683
0.00101671
0.00101622
0.00101574
0.00101524
0.00101469
0.00101407
0.00101337
0.00101257
0.00101167
0.00101066
0.00100954
0.00100831
0.00100697
0.00100553
0.00100398
0.00100235
0.00100064
0.000998842
0.000996978
0.000995053
0.000993074
0.000991048
0.000988982
0.000986883
0.000984758
0.000982612
0.00098045
0.000978279
0.000976102
0.000973924
0.000971748
0.000969579
0.000967421
0.00101671
0.001016
0.00101488
0.00101325
0.00101112
0.00100847
0.00100532
0.00100168
0.000997615
0.000993161
0.000988375
0.00098331
0.000978016
0.000972543
0.000966934
0.000961228
0.000955459
0.000949658
0.000943851
0.000938061
0.000932307
0.000926606
0.00092097
0.000915411
0.000909939
0.000904561
0.000899283
0.000894111
0.000889047
0.000884095
0.000879256
0.000874532
0.000869924
0.0010153
0.00100706
0.000995503
0.000981397
0.000965365
0.000948018
0.000929914
0.000911503
0.000893117
0.000874997
0.000857306
0.000840156
0.000823611
0.000807709
0.000792465
0.000777877
0.000763935
0.000750621
0.000737912
0.000725784
0.00071421
0.000703165
0.00069262
0.000682552
0.000672934
0.000663744
0.000654957
0.000646553
0.000638511
0.000630811
0.000623436
0.000616369
0.00060959
0.000935928
0.000815558
0.000728198
0.000659308
0.00060247
0.000555263
0.000515789
0.000482463
0.000454035
0.000429538
0.000408234
0.000389549
0.000373037
0.00035835
0.000345209
0.000333389
0.000322707
0.000313014
0.000304185
0.000296116
0.000288718
0.000281916
0.000275645
0.000269851
0.000264485
0.000259504
0.000254872
0.000250557
0.000246529
0.000242764
0.000239238
0.000235931
0.000232825
0.000125477
0.000128847
0.000132096
0.000135204
0.000138173
0.000141007
0.000143711
0.000146289
0.000148745
0.000151085
0.000153311
0.000155429
0.000157442
0.000159356
0.000161173
0.000162899
0.000164537
0.00016609
0.000167564
0.000168961
0.000170286
0.000171541
0.00017273
0.000173857
0.000174923
0.000175934
0.00017689
0.000177795
0.000178652
0.000179463
0.00018023
0.000180955
0.000181642
0.000106077
0.000150826
0.000198535
0.00024845
0.000298484
0.000346065
0.000389721
0.000429531
0.000466872
0.000503702
0.000541734
0.000581898
0.000624371
0.000668961
0.000715523
0.000764155
0.000815211
0.00086912
0.000926245
0.000986782
0.00105071
0.0011178
0.00118754
0.00125916
0.00133153
0.00140321
0.00147248
0.00153742
0.00159597
0.00164599
0.00168533
0.00171185
0.00172341
0.00171801
0.00169373
0.00164888
0.00158206
0.00149242
0.00138003
0.0012467
0.00109759
0.000944072
0.000807864
0.000723698
0.000731378
0.000840225
0.000991248
0.00111823
0.00121096
0.00128182
0.00133933
0.00138708
0.00142671
0.0014593
0.00148584
0.0015073
0.00152462
0.00153869
0.00155027
0.00156003
0.00156856
0.00157632
0.00158373
0.00159109
0.00159867
0.00160666
0.00161518
0.0016243
0.00163404
0.00164435
0.00165517
0.00166639
0.00167789
0.00168951
0.00170113
0.0017126
0.0017238
0.00173464
0.00174506
0.001755
0.00176443
0.00177327
0.00178138
0.00178846
0.00179406
0.00179748
0.0017978
0.00179389
0.00178455
0.00176858
0.00174497
0.00171306
0.00167263
0.00162399
0.00156799
0.00150605
0.00144021
0.00137214
0.00130967
0.00121986
0.000246046
0.000213233
0.000182801
0.000168846
0.000171166
0.000186986
0.00021387
0.0002494
0.000290843
0.000335353
0.000380489
0.000424697
0.000467491
0.00050925
0.000550791
0.000592975
0.000636474
0.000681708
0.000728839
0.000777956
0.000829177
0.000882599
0.000938165
0.000995529
0.00105398
0.00111246
0.00116956
0.0012236
0.00127271
0.00131482
0.00134781
0.00136948
0.00137769
0.00137038
0.00134572
0.00130221
0.00123894
0.00115604
0.00105545
0.000942346
0.000827379
0.000729492
0.000677013
0.000699948
0.000802486
0.000939482
0.0010604
0.00115351
0.00122642
0.00128606
0.00133599
0.00137797
0.00141304
0.00144208
0.0014659
0.0014853
0.00150107
0.00151395
0.00152458
0.00153355
0.00154136
0.00154844
0.00155514
0.00156176
0.00156857
0.00157575
0.00158345
0.00159177
0.00160075
0.0016104
0.00162068
0.0016315
0.00164277
0.00165436
0.00166613
0.00167793
0.00168963
0.00170111
0.00171227
0.00172304
0.00173335
0.00174311
0.00175215
0.00176019
0.00176677
0.00177119
0.00177257
0.00176979
0.00176166
0.00174702
0.00172488
0.00169458
0.0016559
0.00160912
0.00155507
0.00149509
0.00143116
0.00136489
0.00130395
0.00121612
0.000348044
0.00034339
0.000331499
0.000308593
0.000277633
0.000245473
0.000218743
0.00020203
0.000197333
0.000204605
0.000222659
0.000249716
0.000283652
0.000322215
0.000363309
0.000405296
0.000447128
0.000488246
0.000528886
0.000569656
0.000611155
0.000653757
0.000697545
0.00074233
0.000787673
0.000832892
0.00087704
0.000918879
0.000956895
0.000989334
0.00101427
0.0010297
0.00103368
0.00102441
0.00100052
0.000961289
0.000907162
0.000840515
0.000766823
0.000696254
0.000645109
0.000634947
0.000683748
0.000786135
0.000907807
0.00101731
0.0011062
0.00117807
0.00123765
0.00128805
0.00133102
0.00136758
0.00139845
0.00142425
0.00144562
0.00146319
0.0014776
0.00148944
0.00149925
0.00150755
0.00151475
0.00152123
0.00152731
0.00153329
0.00153938
0.0015458
0.00155269
0.00156018
0.00156834
0.0015772
0.00158676
0.00159698
0.00160779
0.00161907
0.00163071
0.00164257
0.00165449
0.00166636
0.00167805
0.00168946
0.00170049
0.00171104
0.00172092
0.00172985
0.00173737
0.0017428
0.00174526
0.00174368
0.00173688
0.00172372
0.00170323
0.00167475
0.00163805
0.00159337
0.00154149
0.00148369
0.00142187
0.00135758
0.00129829
0.00121254
0.000475122
0.000469502
0.000464209
0.000458271
0.000450642
0.000439918
0.000423368
0.000397318
0.000360918
0.000319308
0.000281078
0.000252878
0.000237243
0.000233755
0.000240767
0.000256359
0.000278698
0.000306046
0.000336758
0.000369441
0.000403058
0.000436974
0.000470882
0.000504656
0.000538175
0.000571178
0.000603162
0.00063334
0.000660653
0.000683817
0.000701408
0.000711984
0.000714253
0.000707311
0.000690975
0.000666261
0.000636043
0.000605886
0.000584841
0.00058535
0.000620069
0.000693309
0.00079297
0.000897526
0.000991955
0.00107199
0.00113908
0.00119595
0.00124485
0.00128726
0.00132404
0.00135578
0.00138291
0.00140585
0.00142507
0.00144104
0.00145425
0.0014652
0.00147432
0.00148204
0.00148873
0.00149471
0.00150028
0.00150568
0.00151115
0.00151686
0.00152299
0.00152965
0.00153695
0.00154495
0.00155368
0.00156313
0.00157326
0.001584
0.00159525
0.00160687
0.00161875
0.00163073
0.0016427
0.00165452
0.00166608
0.00167726
0.00168786
0.00169759
0.00170599
0.00171241
0.00171598
0.00171566
0.0017103
0.00169877
0.00168011
0.00165366
0.00161916
0.00157683
0.00152736
0.00147198
0.00141247
0.00135032
0.00129282
0.00120924
0.000612
0.000604357
0.000596962
0.000589865
0.000583113
0.00057688
0.000571392
0.000566369
0.000560165
0.000549138
0.000528315
0.000494466
0.000449803
0.000401641
0.000357887
0.000323398
0.000299685
0.000286182
0.000281466
0.000283845
0.00029188
0.000304321
0.000320062
0.000338127
0.000357664
0.00037794
0.000398292
0.000418092
0.000436705
0.000453486
0.000467832
0.000479291
0.000487765
0.000493785
0.000498876
0.000505939
0.000519512
0.000545445
0.000589306
0.00065322
0.000733146
0.000820182
0.00090534
0.000982992
0.0010512
0.00111044
0.00116211
0.00120757
0.00124784
0.00128355
0.00131507
0.00134267
0.00136657
0.00138705
0.00140439
0.00141897
0.00143116
0.00144134
0.00144987
0.00145711
0.00146338
0.00146894
0.00147407
0.00147899
0.0014839
0.00148899
0.00149441
0.00150029
0.00150674
0.00151386
0.00152168
0.00153025
0.00153955
0.00154954
0.00156015
0.00157129
0.00158283
0.00159465
0.00160661
0.00161859
0.00163046
0.00164207
0.00165322
0.00166361
0.00167282
0.00168018
0.00168487
0.00168585
0.00168201
0.00167223
0.00165556
0.00163133
0.00159925
0.00155949
0.00151267
0.00145992
0.00140293
0.00134309
0.00128751
0.00120621
0.000734745
0.000727188
0.000719619
0.000712045
0.000704481
0.000697003
0.000689797
0.000683173
0.000677439
0.000672568
0.000667697
0.000660737
0.00064861
0.000628335
0.000598593
0.00056081
0.000518596
0.000477394
0.000442516
0.000414714
0.000393648
0.000378709
0.000369231
0.000364562
0.000364081
0.000367221
0.000373479
0.000382437
0.000393786
0.00040736
0.000423196
0.000441602
0.000463239
0.000489176
0.00052084
0.000559769
0.000607098
0.000662901
0.000725734
0.000792764
0.000860508
0.000925785
0.000986447
0.00104159
0.00109127
0.00113605
0.00117659
0.00121342
0.00124688
0.00127716
0.00130433
0.00132846
0.00134965
0.00136801
0.00138377
0.00139715
0.00140845
0.00141797
0.001426
0.00143284
0.00143875
0.00144397
0.00144873
0.00145324
0.00145768
0.00146222
0.001467
0.00147216
0.00147781
0.00148405
0.00149096
0.00149858
0.00150693
0.00151602
0.00152581
0.00153622
0.00154717
0.00155855
0.00157024
0.0015821
0.00159401
0.00160582
0.00161732
0.00162822
0.0016381
0.00164633
0.00165209
0.00165438
0.00165211
0.00164418
0.00162964
0.00160781
0.00157834
0.00154136
0.0014974
0.00144748
0.0013932
0.00133586
0.00128232
0.00120341
0.00083168
0.000825126
0.000818499
0.000811788
0.000804982
0.00079808
0.000791109
0.000784153
0.000777372
0.00077098
0.000765142
0.000759786
0.000754376
0.000747807
0.000738523
0.00072498
0.000705893
0.000682365
0.000656782
0.000631155
0.000607044
0.000585543
0.000567365
0.000552937
0.000542499
0.000536172
0.000534021
0.000536094
0.000542454
0.000553204
0.00056849
0.000588494
0.0006134
0.000643331
0.000678249
0.000717842
0.000761436
0.000807977
0.000856125
0.000904454
0.000951687
0.000996882
0.00103951
0.00107942
0.00111669
0.00115151
0.00118405
0.0012144
0.00124257
0.0012685
0.00129214
0.00131342
0.00133233
0.00134893
0.00136333
0.0013757
0.00138624
0.0013952
0.0014028
0.0014093
0.00141491
0.00141984
0.0014243
0.00142847
0.00143251
0.00143657
0.00144079
0.0014453
0.00145022
0.00145563
0.00146164
0.0014683
0.00147567
0.00148376
0.00149258
0.00150209
0.00151223
0.00152291
0.00153405
0.00154552
0.0015572
0.00156894
0.00158056
0.00159177
0.00160215
0.00161112
0.00161788
0.00162146
0.00162078
0.00161477
0.00160246
0.00158315
0.00155647
0.00152244
0.00148153
0.00143465
0.00138326
0.00132856
0.00127722
0.00120081
0.000901385
0.000896215
0.000890952
0.000885591
0.00088012
0.000874534
0.000868832
0.000863031
0.000857173
0.000851337
0.00084564
0.000840207
0.000835107
0.000830263
0.000825367
0.000819894
0.000813056
0.000804539
0.000794337
0.0007828
0.000770524
0.000758227
0.000746639
0.000736432
0.000728193
0.000722409
0.000719479
0.000719718
0.000723371
0.000730619
0.000741574
0.000756273
0.000774661
0.000796569
0.000821696
0.000849606
0.000879734
0.000911427
0.000944007
0.000976841
0.00100941
0.00104133
0.00107237
0.00110242
0.00113142
0.00115932
0.00118605
0.00121152
0.00123558
0.00125807
0.00127885
0.0012978
0.00131484
0.00132997
0.00134323
0.00135474
0.00136464
0.00137311
0.00138035
0.00138655
0.00139191
0.00139661
0.00140081
0.00140469
0.00140839
0.00141205
0.00141579
0.00141973
0.00142398
0.00142864
0.0014338
0.00143954
0.00144591
0.00145298
0.00146075
0.00146923
0.00147839
0.00148818
0.00149852
0.00150934
0.00152052
0.00153193
0.0015434
0.00155468
0.00156536
0.0015749
0.00158254
0.00158733
0.00158822
0.00158415
0.00157414
0.00155746
0.00153369
0.00150277
0.00146508
0.0014214
0.00137307
0.00132117
0.00127215
0.00119837
0.000947531
0.000943777
0.000939927
0.00093598
0.000931933
0.000927785
0.000923537
0.000919194
0.00091477
0.000910294
0.000905811
0.000901388
0.000897103
0.000893028
0.000889193
0.000885554
0.000881967
0.000878275
0.000874334
0.00087007
0.000865519
0.00086083
0.000856248
0.000852086
0.000848689
0.000846409
0.000845581
0.000846504
0.00084943
0.000854555
0.000862012
0.000871862
0.000884093
0.000898614
0.000915259
0.000933792
0.000953924
0.000975339
0.000997716
0.00102076
0.00104421
0.00106786
0.00109155
0.00111514
0.0011385
0.00116149
0.00118396
0.00120572
0.00122659
0.00124635
0.00126484
0.00128188
0.00129738
0.00131127
0.00132358
0.00133436
0.00134371
0.00135178
0.0013587
0.00136466
0.0013698
0.0013743
0.00137829
0.00138193
0.00138534
0.00138866
0.00139198
0.00139543
0.0013991
0.00140309
0.00140748
0.00141235
0.00141779
0.00142383
0.00143054
0.00143793
0.001446
0.00145474
0.00146411
0.00147405
0.00148447
0.00149529
0.00150635
0.00151743
0.00152819
0.00153809
0.00154644
0.00155232
0.00155471
0.00155255
0.00154486
0.00153087
0.00151009
0.00148241
0.00144806
0.00140772
0.00136259
0.00131363
0.00126705
0.00119601
0.000975695
0.000973167
0.000970554
0.000967854
0.00096507
0.000962203
0.000959259
0.000956243
0.000953165
0.000950039
0.000946888
0.00094374
0.000940638
0.000937629
0.000934767
0.000932091
0.000929632
0.000927393
0.000925356
0.0009235
0.000921814
0.000920311
0.000919044
0.000918102
0.000917613
0.000917731
0.000918627
0.000920476
0.000923441
0.000927671
0.000933281
0.000940353
0.000948926
0.000958999
0.000970528
0.000983431
0.000997598
0.0010129
0.00102919
0.00104633
0.00106419
0.00108264
0.00110155
0.00112078
0.00114019
0.00115962
0.0011789
0.00119783
0.0012162
0.00123379
0.00125042
0.0012659
0.00128012
0.00129299
0.00130449
0.00131465
0.00132354
0.00133125
0.00133791
0.00134365
0.00134862
0.00135294
0.00135676
0.00136019
0.00136337
0.00136639
0.00136937
0.00137239
0.00137556
0.00137896
0.00138267
0.00138677
0.00139133
0.00139641
0.00140209
0.00140838
0.00141533
0.00142294
0.0014312
0.00144009
0.00144956
0.00145955
0.00146994
0.00148057
0.00149113
0.00150116
0.00151
0.00151681
0.00152057
0.00152024
0.00151483
0.00150354
0.00148581
0.00146142
0.00143051
0.00139362
0.00135181
0.0013059
0.00126187
0.00119368
0.000991495
0.000989898
0.000988233
0.000986501
0.000984704
0.000982846
0.000980932
0.000978969
0.000976966
0.000974933
0.000972884
0.000970837
0.000968811
0.000966835
0.000964938
0.000963158
0.000961533
0.000960098
0.000958881
0.000957905
0.000957192
0.000956761
0.000956638
0.00095686
0.000957475
0.000958547
0.000960152
0.000962376
0.000965307
0.000969035
0.000973642
0.000979198
0.000985756
0.000993353
0.001002
0.0010117
0.00102243
0.00103414
0.00104679
0.00106032
0.00107465
0.00108971
0.00110539
0.00112158
0.00113815
0.00115495
0.00117181
0.00118853
0.00120492
0.00122077
0.00123588
0.00125007
0.00126322
0.00127523
0.00128605
0.00129568
0.00130416
0.00131157
0.001318
0.00132356
0.00132837
0.00133255
0.00133622
0.00133948
0.00134245
0.00134523
0.00134791
0.00135058
0.00135332
0.00135622
0.00135933
0.00136275
0.00136653
0.00137074
0.00137545
0.00138071
0.00138655
0.00139301
0.00140011
0.00140785
0.00141621
0.00142518
0.00143469
0.00144462
0.00145473
0.00146463
0.00147373
0.00148124
0.00148619
0.00148756
0.00148435
0.00147569
0.00146098
0.00143991
0.00141249
0.00137912
0.0013407
0.00129794
0.00125654
0.00119132
0.00099961
0.000998636
0.000997616
0.00099655
0.000995441
0.000994292
0.000993108
0.000991896
0.000990663
0.000989418
0.000988172
0.000986935
0.000985721
0.000984547
0.000983429
0.000982391
0.000981459
0.000980659
0.00098002
0.00097957
0.000979339
0.000979353
0.000979642
0.000980235
0.000981167
0.000982476
0.000984205
0.000986403
0.000989123
0.000992419
0.00099635
0.00100097
0.00100632
0.00101246
0.00101942
0.00102722
0.00103588
0.0010454
0.00105577
0.00106697
0.00107897
0.00109172
0.00110513
0.00111913
0.0011336
0.00114841
0.00116339
0.00117837
0.00119318
0.0012076
0.00122145
0.00123457
0.00124682
0.00125809
0.00126831
0.00127748
0.00128561
0.00129276
0.00129898
0.00130439
0.00130907
0.00131312
0.00131667
0.00131979
0.00132259
0.00132517
0.0013276
0.00132997
0.00133235
0.00133481
0.00133742
0.00134024
0.00134335
0.00134679
0.00135063
0.00135494
0.00135974
0.0013651
0.00137104
0.00137759
0.00138478
0.00139261
0.00140107
0.00141009
0.00141952
0.00142903
0.00143813
0.0014461
0.00145202
0.00145489
0.00145371
0.00144758
0.00143582
0.00141802
0.00139408
0.00136424
0.00132927
0.00128971
0.00125102
0.00118886
0.00100341
0.00100281
0.00100217
0.00100152
0.00100083
0.00100013
0.000999414
0.000998684
0.000997949
0.000997218
0.000996496
0.000995795
0.000995123
0.000994491
0.000993911
0.000993399
0.000992969
0.00099264
0.000992432
0.000992366
0.000992465
0.000992756
0.000993263
0.000994015
0.00099504
0.000996372
0.000998043
0.00100009
0.00100255
0.00100548
0.0010089
0.00101287
0.00101743
0.00102263
0.00102851
0.00103509
0.00104242
0.0010505
0.00105936
0.00106898
0.00107936
0.00109046
0.00110223
0.00111459
0.00112746
0.00114071
0.00115421
0.0011678
0.0011813
0.00119454
0.00120734
0.00121955
0.00123101
0.00124164
0.00125134
0.0012601
0.00126792
0.00127483
0.00128088
0.00128614
0.0012907
0.00129466
0.00129809
0.0013011
0.00130376
0.00130616
0.00130839
0.0013105
0.00131258
0.00131468
0.00131686
0.00131919
0.00132171
0.00132449
0.00132758
0.00133103
0.0013349
0.00133924
0.00134409
0.00134949
0.0013555
0.00136214
0.00136945
0.00137743
0.00138597
0.00139488
0.00140372
0.00141187
0.0014185
0.00142264
0.00142328
0.0014195
0.00141055
0.00139592
0.00137538