/*--------------------------------*- C++ -*----------------------------------*\
  =========                 |
  \\      /  F ield         | OpenFOAM: The Open Source CFD Toolbox
   \\    /   O peration     | Website:  https://openfoam.org
    \\  /    A nd           | Version:  10
     \\/     M anipulation  |
\*---------------------------------------------------------------------------*/
FoamFile
{
    format      ascii;
    class       volScalarField;
    location    "0.085";
    object      p;
}
// * * * * * * * * * * * * * * * * * * * * * * * * * * * * * * * * * * * * * //

dimensions      [0 2 -2 0 0 0 0];

internalField   nonuniform List<scalar> 
6820
(
-8.83539
-10.1994
-10.6128
-10.7081
-10.7888
-10.84
-10.8706
-10.8947
-10.9153
-10.9334
-10.95
-10.9656
-10.9805
-10.9948
-11.0085
-11.0219
-11.0347
-11.0472
-11.0592
-11.0708
-11.0818
-11.0922
-11.1019
-11.1107
-11.1184
-11.1246
-11.1287
-11.1296
-11.1264
-11.1122
-11.0901
-11.0243
-10.8824
-11.6356
-11.2312
-10.9371
-10.8416
-10.8429
-10.8594
-10.8773
-10.8966
-10.9157
-10.9335
-10.95
-10.9656
-10.9802
-10.9942
-11.0076
-11.0205
-11.0329
-11.0449
-11.0565
-11.0677
-11.0783
-11.0885
-11.0979
-11.1066
-11.1143
-11.1208
-11.1257
-11.1288
-11.1285
-11.1296
-11.1199
-11.1541
-11.1623
-10.4926
-10.3643
-10.5892
-10.7267
-10.7881
-10.8323
-10.8641
-10.8892
-10.9105
-10.9291
-10.946
-10.9617
-10.9767
-10.9909
-11.0046
-11.0179
-11.0307
-11.0431
-11.0551
-11.0667
-11.0778
-11.0883
-11.0982
-11.1073
-11.1156
-11.1227
-11.1283
-11.1324
-11.1343
-11.1351
-11.132
-11.136
-11.1184
-10.8591
-10.8758
-10.8513
-10.8284
-10.8365
-10.8567
-10.8765
-10.8954
-10.9137
-10.931
-10.9472
-10.9626
-10.9773
-10.9914
-11.005
-11.0181
-11.0309
-11.0432
-11.0551
-11.0665
-11.0776
-11.0881
-11.0981
-11.1074
-11.1159
-11.1236
-11.1302
-11.1358
-11.14
-11.1447
-11.1481
-11.1606
-11.171
-10.7492
-10.6952
-10.739
-10.7836
-10.8186
-10.8484
-10.8728
-10.8939
-10.9131
-10.9307
-10.947
-10.9623
-10.977
-10.991
-11.0046
-11.0177
-11.0304
-11.0428
-11.0548
-11.0664
-11.0776
-11.0884
-11.0987
-11.1084
-11.1175
-11.1259
-11.1335
-11.1405
-11.1469
-11.1539
-11.1608
-11.1726
-11.1843
-10.7899
-10.7831
-10.8014
-10.8183
-10.8364
-10.8576
-10.878
-10.8971
-10.915
-10.9318
-10.9477
-10.9629
-10.9774
-10.9913
-11.0048
-11.0179
-11.0306
-11.043
-11.055
-11.0667
-11.0781
-11.089
-11.0995
-11.1096
-11.1192
-11.1283
-11.137
-11.1453
-11.1536
-11.1626
-11.1724
-11.1856
-11.2008
-10.7892
-10.7784
-10.7931
-10.8146
-10.8364
-10.8586
-10.8792
-10.8981
-10.9158
-10.9324
-10.9481
-10.9631
-10.9775
-10.9914
-11.0049
-11.0179
-11.0307
-11.0431
-11.0552
-11.067
-11.0785
-11.0896
-11.1005
-11.111
-11.1212
-11.131
-11.1407
-11.1504
-11.1602
-11.1709
-11.1827
-11.197
-11.2134
-10.7989
-10.7958
-10.8088
-10.8266
-10.8447
-10.8638
-10.8826
-10.9003
-10.9172
-10.9334
-10.9488
-10.9635
-10.9778
-10.9916
-11.005
-11.018
-11.0307
-11.0432
-11.0554
-11.0673
-11.079
-11.0904
-11.1015
-11.1125
-11.1232
-11.1338
-11.1444
-11.1552
-11.1664
-11.1785
-11.1919
-11.2072
-11.2246
-10.8074
-10.8063
-10.8167
-10.8324
-10.8493
-10.8672
-10.8851
-10.9022
-10.9186
-10.9343
-10.9494
-10.9639
-10.978
-10.9917
-11.005
-11.018
-11.0308
-11.0433
-11.0555
-11.0676
-11.0794
-11.091
-11.1025
-11.1139
-11.1252
-11.1365
-11.148
-11.1598
-11.1721
-11.1854
-11.2
-11.2162
-11.2344
-10.816
-10.8165
-10.8258
-10.8398
-10.8552
-10.8716
-10.8882
-10.9044
-10.9201
-10.9354
-10.9501
-10.9644
-10.9783
-10.9919
-11.0051
-11.0181
-11.0308
-11.0433
-11.0556
-11.0678
-11.0798
-11.0917
-11.1035
-11.1153
-11.1271
-11.139
-11.1513
-11.1639
-11.1773
-11.1916
-11.2071
-11.2241
-11.2428
-10.8243
-10.8257
-10.8339
-10.8463
-10.8604
-10.8756
-10.8912
-10.9066
-10.9217
-10.9365
-10.9509
-10.9649
-10.9786
-10.992
-11.0052
-11.0181
-11.0308
-11.0433
-11.0557
-11.068
-11.0802
-11.0923
-11.1044
-11.1165
-11.1288
-11.1413
-11.1542
-11.1676
-11.1818
-11.1969
-11.2131
-11.2308
-11.25
-10.8323
-10.8341
-10.8415
-10.8527
-10.8656
-10.8796
-10.8942
-10.9089
-10.9234
-10.9377
-10.9517
-10.9655
-10.9789
-10.9922
-11.0052
-11.018
-11.0307
-11.0433
-11.0557
-11.0681
-11.0804
-11.0927
-11.1051
-11.1176
-11.1303
-11.1433
-11.1568
-11.1708
-11.1856
-11.2013
-11.2182
-11.2363
-11.2559
-10.8399
-10.8418
-10.8486
-10.8587
-10.8705
-10.8835
-10.8973
-10.9112
-10.9251
-10.9389
-10.9525
-10.966
-10.9792
-10.9923
-11.0052
-11.018
-11.0306
-11.0432
-11.0557
-11.0681
-11.0806
-11.0931
-11.1057
-11.1185
-11.1315
-11.1449
-11.1588
-11.1733
-11.1886
-11.2048
-11.2221
-11.2406
-11.2604
-10.847
-10.8489
-10.8551
-10.8643
-10.8752
-10.8873
-10.9002
-10.9134
-10.9268
-10.9401
-10.9534
-10.9665
-10.9795
-10.9924
-11.0052
-11.0178
-11.0304
-11.043
-11.0555
-11.068
-11.0805
-11.0932
-11.106
-11.119
-11.1324
-11.1461
-11.1603
-11.1752
-11.1909
-11.2074
-11.2249
-11.2436
-11.2635
-10.8536
-10.8554
-10.8612
-10.8696
-10.8797
-10.8909
-10.903
-10.9156
-10.9284
-10.9413
-10.9542
-10.967
-10.9798
-10.9924
-11.0051
-11.0176
-11.0301
-11.0426
-11.0551
-11.0677
-11.0803
-11.0931
-11.106
-11.1192
-11.1328
-11.1468
-11.1612
-11.1764
-11.1922
-11.2089
-11.2266
-11.2453
-11.2651
-10.8596
-10.8614
-10.8667
-10.8745
-10.8838
-10.8943
-10.9057
-10.9177
-10.9299
-10.9424
-10.9549
-10.9674
-10.9799
-10.9924
-11.0049
-11.0173
-11.0297
-11.0422
-11.0547
-11.0672
-11.0799
-11.0927
-11.1057
-11.1191
-11.1327
-11.1468
-11.1615
-11.1767
-11.1927
-11.2094
-11.227
-11.2456
-11.2653
-10.8652
-10.8668
-10.8718
-10.8789
-10.8876
-10.8975
-10.9082
-10.9196
-10.9314
-10.9434
-10.9555
-10.9677
-10.98
-10.9923
-11.0045
-11.0168
-11.0292
-11.0415
-11.054
-11.0665
-11.0791
-11.092
-11.1051
-11.1184
-11.1322
-11.1463
-11.161
-11.1762
-11.1921
-11.2088
-11.2263
-11.2446
-11.2639
-10.8702
-10.8717
-10.8763
-10.883
-10.891
-10.9003
-10.9105
-10.9214
-10.9327
-10.9442
-10.956
-10.9679
-10.9799
-10.992
-11.0041
-11.0162
-11.0284
-11.0407
-11.053
-11.0655
-11.0781
-11.0909
-11.104
-11.1173
-11.131
-11.1451
-11.1597
-11.1749
-11.1907
-11.2071
-11.2243
-11.2422
-11.261
-10.8746
-10.8761
-10.8804
-10.8866
-10.8941
-10.9029
-10.9126
-10.9229
-10.9337
-10.9449
-10.9564
-10.968
-10.9797
-10.9915
-11.0034
-11.0154
-11.0275
-11.0396
-11.0518
-11.0642
-11.0767
-11.0895
-11.1024
-11.1157
-11.1293
-11.1433
-11.1577
-11.1727
-11.1882
-11.2043
-11.221
-11.2385
-11.2566
-10.8785
-10.8799
-10.8839
-10.8897
-10.8968
-10.9051
-10.9143
-10.9242
-10.9346
-10.9454
-10.9565
-10.9678
-10.9793
-10.9909
-11.0026
-11.0144
-11.0263
-11.0383
-11.0504
-11.0626
-11.075
-11.0876
-11.1004
-11.1135
-11.1269
-11.1407
-11.1549
-11.1695
-11.1846
-11.2003
-11.2165
-11.2333
-11.2508
-10.8819
-10.8832
-10.8869
-10.8924
-10.8991
-10.907
-10.9157
-10.9252
-10.9352
-10.9457
-10.9565
-10.9675
-10.9787
-10.9901
-11.0016
-11.0131
-11.0248
-11.0366
-11.0486
-11.0606
-11.0728
-11.0852
-11.0979
-11.1107
-11.1239
-11.1374
-11.1512
-11.1655
-11.1801
-11.1952
-11.2108
-11.2269
-11.2435
-10.8847
-10.8859
-10.8894
-10.8946
-10.9009
-10.9084
-10.9168
-10.9259
-10.9356
-10.9457
-10.9562
-10.9669
-10.9779
-10.989
-11.0002
-11.0116
-11.0231
-11.0347
-11.0464
-11.0583
-11.0703
-11.0824
-11.0948
-11.1074
-11.1202
-11.1333
-11.1467
-11.1605
-11.1746
-11.1891
-11.2039
-11.2192
-11.2349
-10.8869
-10.888
-10.8914
-10.8962
-10.9023
-10.9094
-10.9175
-10.9262
-10.9356
-10.9454
-10.9556
-10.9661
-10.9768
-10.9877
-10.9987
-11.0098
-11.0211
-11.0325
-11.044
-11.0556
-11.0673
-11.0792
-11.0912
-11.1035
-11.1159
-11.1286
-11.1415
-11.1547
-11.1681
-11.1819
-11.196
-11.2103
-11.225
-10.8885
-10.8896
-10.8927
-10.8974
-10.9031
-10.91
-10.9177
-10.9262
-10.9352
-10.9447
-10.9547
-10.9649
-10.9753
-10.986
-10.9968
-11.0077
-11.0187
-11.0298
-11.0411
-11.0524
-11.0638
-11.0754
-11.0871
-11.0989
-11.1109
-11.123
-11.1354
-11.148
-11.1607
-11.1737
-11.1869
-11.2003
-11.2139
-10.8894
-10.8905
-10.8935
-10.8979
-10.9035
-10.9101
-10.9176
-10.9258
-10.9346
-10.9439
-10.9535
-10.9635
-10.9737
-10.9841
-10.9947
-11.0054
-11.0161
-11.027
-11.0379
-11.0489
-11.06
-11.0712
-11.0825
-11.0938
-11.1053
-11.1169
-11.1287
-11.1405
-11.1525
-11.1647
-11.1769
-11.1893
-11.2018
-10.8898
-10.8908
-10.8936
-10.8978
-10.9031
-10.9095
-10.9167
-10.9246
-10.9332
-10.9423
-10.9517
-10.9615
-10.9715
-10.9816
-10.992
-11.0024
-11.0129
-11.0235
-11.0341
-11.0448
-11.0556
-11.0663
-11.0772
-11.0881
-11.099
-11.11
-11.1211
-11.1322
-11.1434
-11.1547
-11.166
-11.1773
-11.1887
-10.8894
-10.8904
-10.8932
-10.8973
-10.9025
-10.9087
-10.9158
-10.9236
-10.932
-10.9409
-10.9502
-10.9597
-10.9695
-10.9794
-10.9895
-10.9997
-11.0099
-11.0202
-11.0304
-11.0408
-11.0511
-11.0614
-11.0718
-11.0821
-11.0924
-11.1028
-11.1132
-11.1235
-11.1338
-11.1442
-11.1544
-11.1647
-11.1749
-10.8884
-10.8892
-10.8917
-10.8955
-10.9004
-10.9063
-10.9132
-10.9208
-10.929
-10.9377
-10.9469
-10.9563
-10.9659
-10.9757
-10.9856
-10.9956
-11.0056
-11.0156
-11.0256
-11.0356
-11.0455
-11.0555
-11.0653
-11.0752
-11.0849
-11.0946
-11.1043
-11.1138
-11.1233
-11.1327
-11.142
-11.1512
-11.1602
-10.8867
-10.8878
-10.8906
-10.8946
-10.8996
-10.9056
-10.9125
-10.92
-10.9281
-10.9367
-10.9456
-10.9548
-10.9642
-10.9737
-10.9833
-10.9929
-11.0026
-11.0122
-11.0218
-11.0313
-11.0408
-11.0502
-11.0594
-11.0686
-11.0777
-11.0867
-11.0956
-11.1043
-11.1129
-11.1213
-11.1295
-11.1376
-11.1454
-10.8838
-10.8841
-10.8859
-10.889
-10.8934
-10.8991
-10.9059
-10.9134
-10.9216
-10.9303
-10.9394
-10.9487
-10.9582
-10.9677
-10.9773
-10.987
-10.9965
-11.006
-11.0154
-11.0247
-11.0339
-11.0429
-11.0518
-11.0605
-11.069
-11.0774
-11.0856
-11.0935
-11.1013
-11.1088
-11.1161
-11.1231
-11.1298
-10.8819
-10.8839
-10.8872
-10.8912
-10.8962
-10.902
-10.9086
-10.9159
-10.9237
-10.932
-10.9406
-10.9494
-10.9584
-10.9674
-10.9765
-10.9855
-10.9946
-11.0035
-11.0123
-11.021
-11.0296
-11.0379
-11.0461
-11.0541
-11.0619
-11.0695
-11.0768
-11.0838
-11.0906
-11.0971
-11.1033
-11.1092
-11.1148
-10.8739
-10.8719
-10.8716
-10.8739
-10.8785
-10.8846
-10.892
-10.9003
-10.9092
-10.9185
-10.928
-10.9377
-10.9474
-10.9571
-10.9667
-10.9762
-10.9856
-10.9947
-11.0037
-11.0124
-11.0208
-11.0291
-11.037
-11.0447
-11.0521
-11.0591
-11.0659
-11.0723
-11.0784
-11.0841
-11.0895
-11.0945
-11.0991
-10.8798
-10.8853
-10.8895
-10.8927
-10.8964
-10.9012
-10.907
-10.9135
-10.9207
-10.9283
-10.9363
-10.9446
-10.9529
-10.9614
-10.9699
-10.9783
-10.9866
-10.9947
-11.0027
-11.0105
-11.0181
-11.0255
-11.0325
-11.0393
-11.0458
-11.0519
-11.0577
-11.0632
-11.0683
-11.073
-11.0773
-11.0812
-11.0846
-10.8503
-10.8391
-10.8359
-10.8399
-10.8474
-10.8566
-10.8668
-10.8777
-10.8888
-10.9001
-10.9112
-10.9222
-10.9329
-10.9434
-10.9535
-10.9633
-10.9728
-10.9819
-10.9906
-10.999
-11.007
-11.0146
-11.0218
-11.0286
-11.035
-11.0409
-11.0465
-11.0515
-11.0561
-11.0603
-11.064
-11.0671
-11.0698
-10.8981
-10.9144
-10.9157
-10.9101
-10.9077
-10.9087
-10.9117
-10.916
-10.9214
-10.9276
-10.9343
-10.9415
-10.9489
-10.9565
-10.9641
-10.9716
-10.9791
-10.9864
-10.9935
-11.0004
-11.007
-11.0133
-11.0193
-11.0249
-11.0302
-11.035
-11.0395
-11.0435
-11.047
-11.0501
-11.0527
-11.0549
-11.0565
-10.7883
-10.7501
-10.7444
-10.7682
-10.7885
-10.8068
-10.8249
-10.8422
-10.8586
-10.874
-10.8884
-10.902
-10.9148
-10.9269
-10.9382
-10.9489
-10.959
-10.9685
-10.9775
-10.9858
-10.9936
-11.0009
-11.0076
-11.0138
-11.0195
-11.0246
-11.0291
-11.0331
-11.0365
-11.0394
-11.0417
-11.0434
-11.0444
-11.0007
-11.0253
-10.9962
-10.9594
-10.9361
-10.9281
-10.9249
-10.9242
-10.926
-10.9295
-10.9342
-10.9396
-10.9456
-10.9519
-10.9584
-10.965
-10.9715
-10.9779
-10.9841
-10.9901
-10.9958
-11.0012
-11.0063
-11.0109
-11.0152
-11.019
-11.0223
-11.0251
-11.0275
-11.0293
-11.0306
-11.0314
-11.0316
-10.5851
-10.5033
-10.5603
-10.6411
-10.6975
-10.7361
-10.7695
-10.7987
-10.8237
-10.8455
-10.8649
-10.8823
-10.898
-10.9122
-10.9252
-10.9371
-10.9481
-10.9582
-10.9675
-10.976
-10.9838
-10.9909
-10.9974
-11.0032
-11.0083
-11.0127
-11.0165
-11.0197
-11.0222
-11.0241
-11.0253
-11.0258
-11.0257
-11.5616
-11.2835
-11.0778
-10.9866
-10.9495
-10.9288
-10.9161
-10.9105
-10.9097
-10.9119
-10.9159
-10.9212
-10.9272
-10.9338
-10.9406
-10.9475
-10.9543
-10.961
-10.9674
-10.9736
-10.9794
-10.9849
-10.9899
-10.9945
-10.9985
-11.0021
-11.0052
-11.0077
-11.0096
-11.011
-11.0118
-11.012
-11.0116
-9.60356
-10.1651
-10.4698
-10.5859
-10.6675
-10.7309
-10.776
-10.81
-10.8374
-10.8598
-10.8786
-10.8949
-10.9092
-10.922
-10.9335
-10.944
-10.9536
-10.9624
-10.9705
-10.9779
-10.9846
-10.9906
-10.996
-11.0007
-11.0049
-11.0083
-11.0112
-11.0133
-11.0148
-11.0157
-11.0159
-11.0154
-11.0142
-10.7005
-10.8699
-10.9457
-11.0134
-11.0864
-11.1693
-11.2837
-11.4333
-11.6288
-11.862
-12.1239
-12.405
-12.6933
-12.9786
-13.2518
-13.507
-13.7385
-13.9445
-14.1237
-14.2769
-14.4054
-14.5108
-14.5949
-14.6593
-14.7053
-14.7338
-14.7453
-14.7399
-14.7168
-14.6748
-14.6121
-14.526
-14.4132
-14.2697
-14.0904
-13.8699
-13.6018
-13.2793
-12.8954
-12.4431
-11.916
-11.3091
-10.6196
-9.84883
-9.00315
-8.09557
-7.14881
-6.19248
-5.25425
-4.35732
-3.52236
-2.76617
-2.09957
-1.52683
-1.04642
-0.652397
-0.336143
-0.0877852
0.102717
0.24489
0.34738
0.417797
0.462683
0.487566
0.497048
0.49491
0.484218
0.467429
0.446484
0.422897
0.39783
0.372157
0.346525
0.321397
0.297096
0.273833
0.251741
0.23089
0.211312
0.193004
0.175949
0.160116
0.145469
0.131967
0.119563
0.108207
0.0978306
0.0883663
0.0797012
0.0717626
0.0643306
0.0574444
0.0505721
0.0443755
0.0371438
0.032044
0.0225144
0.0215099
0.00351724
0.0183893
-11.4602
-11.5104
-11.3982
-11.3088
-11.2532
-11.242
-11.289
-11.4058
-11.5787
-11.8016
-12.0611
-12.3417
-12.6286
-12.9101
-13.1776
-13.4254
-13.6487
-13.8479
-14.0219
-14.1713
-14.2972
-14.4008
-14.4834
-14.5464
-14.591
-14.6182
-14.6283
-14.6213
-14.5964
-14.5523
-14.4871
-14.3981
-14.2818
-14.1342
-13.9503
-13.7247
-13.451
-13.1229
-12.7335
-12.2761
-11.7449
-11.1355
-10.4468
-9.68205
-8.84973
-7.9658
-7.05259
-6.13337
-5.23026
-4.36503
-3.55757
-2.82368
-2.17366
-1.61188
-1.13743
-0.745259
-0.42772
-0.175845
0.0196448
0.167675
0.27644
0.353224
0.404345
0.435183
0.45025
0.453276
0.447309
0.434805
0.417721
0.397593
0.375613
0.352686
0.32949
0.306517
0.28412
0.262536
0.241923
0.222373
0.203935
0.186625
0.170438
0.155357
0.141356
0.128406
0.116468
0.105502
0.0954519
0.0862612
0.0778308
0.0700987
0.062861
0.0561573
0.0494826
0.0434542
0.0364574
0.0314417
0.0223006
0.0209934
0.00412557
0.0169988
-11.1312
-11.093
-11.0857
-11.1183
-11.1668
-11.2325
-11.3269
-11.4571
-11.621
-11.819
-12.0465
-12.2955
-12.5564
-12.8196
-13.0759
-13.3169
-13.5399
-13.7384
-13.9118
-14.0599
-14.1836
-14.2845
-14.3644
-14.4248
-14.467
-14.4918
-14.4995
-14.4899
-14.4622
-14.415
-14.3463
-14.2533
-14.1326
-13.98
-13.7907
-13.5592
-13.2794
-12.945
-12.5493
-12.0863
-11.5511
-10.9415
-10.2583
-9.5063
-8.69553
-7.84164
-6.96278
-6.07815
-5.20827
-4.37372
-3.59303
-2.88095
-2.24727
-1.69647
-1.22816
-0.838125
-0.519613
-0.264514
-0.0642868
0.0894064
0.20431
0.287378
0.344696
0.381488
0.402166
0.410404
0.409225
0.401081
0.387938
0.371353
0.352544
0.332444
0.311762
0.291019
0.270597
0.250758
0.231685
0.21349
0.196243
0.179976
0.1647
0.150409
0.137089
0.124721
0.113276
0.102725
0.0930215
0.0841218
0.0759398
0.0684242
0.0613875
0.0548684
0.0483924
0.0425276
0.0357667
0.0308225
0.0220827
0.0204422
0.00474492
0.0155554
-11.232
-11.2951
-11.3074
-11.3069
-11.3178
-11.3509
-11.4166
-11.5223
-11.6668
-11.8476
-12.0576
-12.2875
-12.5274
-12.7684
-13.003
-13.2253
-13.4311
-13.6168
-13.7818
-13.9256
-14.0476
-14.1482
-14.228
-14.2881
-14.3292
-14.3522
-14.3574
-14.3447
-14.3134
-14.2621
-14.1889
-14.0909
-13.9647
-13.8061
-13.6103
-13.3719
-13.0849
-12.7434
-12.3416
-11.8749
-11.3405
-10.7369
-10.0657
-9.33251
-8.54755
-7.72415
-6.87773
-6.02601
-5.1882
-4.38336
-3.62866
-2.93785
-2.32027
-1.78044
-1.31845
-0.930826
-0.611661
-0.353648
-0.148949
0.0101961
0.131084
0.220334
0.283794
0.326522
0.352826
0.366315
0.369979
0.36626
0.357133
0.344171
0.328613
0.311421
0.29333
0.274892
0.256514
0.238487
0.221014
0.204232
0.188228
0.173052
0.158729
0.145267
0.132665
0.120911
0.109989
0.099878
0.0905444
0.0819545
0.0740356
0.0667467
0.0599174
0.0535848
0.0473073
0.0416008
0.0350747
0.0301908
0.0218596
0.0198632
0.00536607
0.0140735
-11.2131
-11.2324
-11.233
-11.2475
-11.2836
-11.341
-11.4249
-11.5397
-11.6848
-11.8578
-12.0537
-12.266
-12.4874
-12.7109
-12.93
-13.1389
-13.3334
-13.5099
-13.6665
-13.8022
-13.9168
-14.0109
-14.0853
-14.1409
-14.1782
-14.1977
-14.1995
-14.1831
-14.1477
-14.0917
-14.0131
-13.9091
-13.7764
-13.6107
-13.4077
-13.1621
-12.8688
-12.5228
-12.1193
-11.6546
-11.1257
-10.5322
-9.8767
-9.16515
-8.40647
-7.61229
-6.79693
-5.97692
-5.17005
-4.3939
-3.66436
-2.99428
-2.39253
-1.86364
-1.40814
-1.0232
-0.703703
-0.443086
-0.234193
-0.0698222
0.0568788
0.152194
0.221725
0.27036
0.30229
0.321055
0.329607
0.330373
0.325329
0.316061
0.30383
0.289621
0.274197
0.258136
0.241871
0.225719
0.209908
0.194594
0.179885
0.165846
0.15252
0.139927
0.128077
0.11697
0.106599
0.0969548
0.0880131
0.0797517
0.0721111
0.06506
0.0584458
0.0523029
0.0462252
0.0406735
0.034382
0.0295491
0.021633
0.0192619
0.00598755
0.0125643
-11.2275
-11.2591
-11.2828
-11.31
-11.3482
-11.4025
-11.4793
-11.5834
-11.715
-11.8725
-12.0517
-12.2466
-12.4505
-12.6567
-12.859
-13.0523
-13.2327
-13.3974
-13.5443
-13.6723
-13.781
-13.8704
-13.9407
-13.9921
-14.0252
-14.0401
-14.0368
-14.0149
-13.9735
-13.9112
-13.8259
-13.715
-13.5753
-13.403
-13.1939
-12.9433
-12.6465
-12.2989
-11.8962
-11.435
-10.9137
-10.3328
-9.69483
-9.00515
-8.27181
-7.50572
-6.72027
-5.9308
-5.15371
-4.40523
-3.70005
-3.05015
-2.46394
-1.94597
-1.4971
-1.11512
-0.795596
-0.532693
-0.31989
-0.150532
-0.0182029
0.0830443
0.158561
0.213058
0.250604
0.274662
0.288137
0.293438
0.292539
0.287033
0.2782
0.267047
0.254361
0.240747
0.226663
0.212451
0.198361
0.184571
0.171208
0.158355
0.146068
0.134384
0.123322
0.112895
0.103105
0.0939531
0.0854263
0.0775127
0.0701661
0.0633646
0.0569734
0.051024
0.0451479
0.0397481
0.0336909
0.0289005
0.0214038
0.0186426
0.00660576
0.0110377
-11.2373
-11.2659
-11.2905
-11.3195
-11.3612
-11.4195
-11.4984
-11.6007
-11.7265
-11.8742
-12.0404
-12.2203
-12.4083
-12.5986
-12.7859
-12.9655
-13.1337
-13.2875
-13.4249
-13.5445
-13.6458
-13.7285
-13.7927
-13.8387
-13.8667
-13.8766
-13.8684
-13.8413
-13.7944
-13.7263
-13.6349
-13.5178
-13.372
-13.1938
-12.9793
-12.7244
-12.4247
-12.0763
-11.6755
-11.2199
-10.7082
-10.1409
-9.52043
-8.85194
-8.14311
-7.40416
-6.64755
-5.88748
-5.13906
-4.41726
-3.73564
-3.10536
-2.53441
-2.02731
-1.58521
-1.20644
-0.887201
-0.622328
-0.405908
-0.231813
-0.0940533
0.0129794
0.0943836
0.154684
0.197823
0.227178
0.245604
0.255483
0.258782
0.257102
0.251733
0.243705
0.233826
0.222727
0.21089
0.19868
0.18637
0.174159
0.162193
0.150573
0.13937
0.128634
0.118397
0.108683
0.0995043
0.0908714
0.0827828
0.075237
0.0682007
0.0616608
0.0555013
0.0497498
0.0440773
0.0388269
0.0330033
0.0282481
0.021173
0.0180101
0.00721726
0.00950356
-11.2479
-11.2772
-11.3071
-11.3423
-11.388
-11.4479
-11.525
-11.622
-11.7392
-11.8755
-12.0281
-12.1929
-12.3653
-12.5401
-12.7126
-12.8786
-13.0344
-13.1772
-13.3049
-13.4162
-13.5102
-13.5865
-13.645
-13.6856
-13.7084
-13.7131
-13.6995
-13.6669
-13.6143
-13.5402
-13.4428
-13.3196
-13.1679
-12.9843
-12.7653
-12.5071
-12.206
-11.8582
-11.4609
-11.0119
-10.51
-9.95618
-9.35291
-8.70513
-8.02009
-7.30738
-6.57856
-5.84678
-5.12595
-4.42985
-3.77101
-3.15982
-2.60385
-2.10756
-1.67235
-1.29702
-0.97838
-0.711853
-0.492114
-0.313539
-0.17056
-0.0579017
0.0292766
0.0953108
0.144007
0.178653
0.202046
0.216539
0.224084
0.226284
0.224442
0.219603
0.212599
0.204079
0.194552
0.184406
0.173934
0.163357
0.152839
0.142499
0.132423
0.122675
0.1133
0.104332
0.0957946
0.0877081
0.0800816
0.0729239
0.0662145
0.059949
0.0540303
0.0484815
0.0430148
0.0379122
0.0323212
0.027595
0.0209414
0.0173691
0.00781889
0.007971
-11.2577
-11.2875
-11.3199
-11.3577
-11.405
-11.4651
-11.5405
-11.6331
-11.7433
-11.8699
-12.0106
-12.162
-12.3201
-12.4805
-12.639
-12.7918
-12.9355
-13.0676
-13.1857
-13.2886
-13.3751
-13.4448
-13.4972
-13.5321
-13.5495
-13.5489
-13.53
-13.492
-13.4339
-13.3542
-13.2512
-13.1225
-12.9656
-12.7775
-12.5548
-12.2943
-11.9924
-11.646
-11.2526
-10.8103
-10.3186
-9.77823
-9.19191
-8.56436
-7.90244
-7.21509
-6.51308
-5.80853
-5.11425
-4.44291
-3.80609
-3.21345
-2.67218
-2.18662
-1.75841
-1.38676
-1.069
-0.801134
-0.578375
-0.395585
-0.247606
-0.129496
-0.0366692
0.0350146
0.0892215
0.129141
0.15751
0.176641
0.188472
0.194604
0.196345
0.194757
0.190688
0.184811
0.177655
0.169631
0.161053
0.152164
0.143144
0.13413
0.125225
0.116505
0.108029
0.0998401
0.0919747
0.0844619
0.0773217
0.0705727
0.0642074
0.0582295
0.052561
0.0472204
0.0419622
0.0370061
0.0316465
0.0269442
0.0207101
0.016724
0.00840782
0.00644864
-11.2665
-11.2969
-11.3311
-11.3711
-11.4197
-11.4796
-11.5528
-11.6408
-11.7438
-11.861
-11.9903
-12.129
-12.2736
-12.4204
-12.5655
-12.7056
-12.8376
-12.9589
-13.0675
-13.1618
-13.2407
-13.3036
-13.3498
-13.3791
-13.3909
-13.3851
-13.3609
-13.3176
-13.2542
-13.1692
-13.061
-12.9273
-12.7657
-12.5736
-12.3479
-12.0856
-11.7836
-11.4392
-11.0502
-10.6151
-10.1336
-9.60675
-9.03714
-8.42937
-7.7899
-7.1271
-6.45093
-5.77258
-5.10384
-4.45635
-3.8408
-3.2662
-2.73931
-2.26442
-1.8433
-1.47553
-1.15894
-0.890037
-0.664557
-0.477823
-0.325075
-0.201695
-0.103358
-0.0261211
0.0335371
0.0787032
0.112044
0.135832
0.151982
0.162088
0.167464
0.169182
0.168108
0.164933
0.160207
0.154362
0.147734
0.140583
0.13311
0.125469
0.117777
0.110124
0.102582
0.0952067
0.0880435
0.081132
0.0745025
0.0681832
0.0621793
0.0565026
0.0510941
0.0459675
0.0409208
0.0361109
0.0309812
0.0262988
0.0204803
0.0160792
0.00898154
0.00494419
-11.2741
-11.305
-11.3403
-11.3813
-11.4303
-11.4892
-11.5598
-11.643
-11.7392
-11.8476
-11.9665
-12.0934
-12.2255
-12.3594
-12.4919
-12.6199
-12.7405
-12.8514
-12.9505
-13.0362
-13.1075
-13.1634
-13.2033
-13.2267
-13.2331
-13.2219
-13.1924
-13.144
-13.0755
-12.9855
-12.8723
-12.734
-12.5684
-12.3728
-12.1446
-11.8811
-11.5796
-11.2377
-10.8536
-10.426
-9.95493
-9.44149
-8.88837
-8.29992
-7.68227
-7.0432
-6.39194
-5.73879
-5.0946
-4.47008
-3.87509
-3.318
-2.8052
-2.34087
-1.92691
-1.56323
-1.24807
-0.978434
-0.750531
-0.560127
-0.402845
-0.274389
-0.170692
-0.0880084
-0.0229695
0.0274039
0.0657043
0.0941577
0.114652
0.12877
0.137827
0.142902
0.144876
0.144459
0.142219
0.138608
0.133982
0.12862
0.122742
0.116517
0.11008
0.103533
0.0969612
0.0904318
0.084001
0.0777181
0.0716236
0.0657552
0.0601304
0.0547686
0.0496304
0.0447242
0.0398921
0.0352285
0.0303271
0.0256616
0.020253
0.0154386
0.00953806
0.00346454
-11.2803
-11.3115
-11.3474
-11.3888
-11.4374
-11.4949
-11.5626
-11.6411
-11.7308
-11.8308
-11.9398
-12.0557
-12.176
-12.2978
-12.4183
-12.5347
-12.6443
-12.745
-12.8347
-12.912
-12.9756
-13.0245
-13.058
-13.0754
-13.0761
-13.0596
-13.025
-12.9715
-12.898
-12.8032
-12.6855
-12.543
-12.3737
-12.1752
-11.9451
-11.681
-11.3805
-11.0416
-10.6627
-10.2429
-9.78234
-9.2823
-8.74541
-8.17585
-7.57937
-6.96322
-6.33595
-5.70704
-5.08646
-4.48404
-3.9089
-3.36881
-2.8698
-2.41591
-2.00917
-1.64975
-1.33628
-1.0662
-0.836168
-0.642368
-0.480794
-0.347464
-0.238564
-0.150554
-0.0802166
-0.0246855
0.0185524
0.0516705
0.0765255
0.0946857
0.107463
0.115942
0.121015
0.123408
0.123706
0.122381
0.119807
0.116283
0.112045
0.10728
0.102137
0.0967342
0.0911676
0.0855165
0.0798478
0.0742205
0.0686853
0.0632888
0.0580608
0.0530281
0.0481705
0.0434915
0.0388775
0.0343608
0.0296859
0.0250353
0.0200295
0.014806
0.0100758
0.00201543
-11.285
-11.3163
-11.3522
-11.3935
-11.4413
-11.4969
-11.5613
-11.6352
-11.7184
-11.8105
-11.9103
-12.0159
-12.1251
-12.2356
-12.3447
-12.45
-12.5491
-12.6398
-12.7203
-12.7892
-12.8451
-12.8869
-12.9139
-12.9253
-12.9204
-12.8985
-12.8588
-12.8003
-12.7221
-12.6227
-12.5008
-12.3545
-12.1819
-11.981
-11.7495
-11.4853
-11.1863
-10.8508
-10.4774
-10.0657
-9.61576
-9.12903
-8.6081
-8.05697
-7.48102
-6.88701
-6.28284
-5.67722
-5.07933
-4.49819
-3.9422
-3.41859
-2.93306
-2.4895
-2.09002
-1.73501
-1.42346
-1.15321
-0.921341
-0.724419
-0.558798
-0.420801
-0.306869
-0.213661
-0.138117
-0.0774881
-0.0293453
0.00842801
0.0376527
0.0598779
0.0764083
0.0883323
0.0965504
0.101801
0.104688
0.105697
0.105224
0.103583
0.101029
0.0977655
0.0939557
0.0897325
0.0852048
0.0804633
0.0755857
0.0706404
0.0656882
0.0607846
0.0559711
0.0512817
0.0467153
0.0422705
0.0378784
0.0335098
0.0290594
0.0244225
0.0198111
0.0141847
0.0105939
0.000601507
-11.2881
-11.3193
-11.3549
-11.3955
-11.442
-11.4954
-11.5564
-11.6255
-11.7027
-11.7873
-11.8783
-11.9742
-12.0731
-12.1728
-12.2712
-12.3659
-12.4547
-12.5358
-12.6074
-12.6679
-12.7161
-12.7509
-12.7714
-12.7767
-12.7661
-12.7389
-12.6941
-12.6308
-12.548
-12.4443
-12.3184
-12.1687
-11.9933
-11.7904
-11.5579
-11.2941
-10.9971
-10.6653
-10.2979
-9.89434
-9.45509
-8.98157
-8.47631
-7.94313
-7.38709
-6.81444
-6.23249
-5.64926
-5.07315
-4.51247
-3.97496
-3.46734
-2.99496
-2.56159
-2.16937
-1.81892
-1.50951
-1.23936
-1.00593
-0.806153
-0.636732
-0.494283
-0.375493
-0.277225
-0.196578
-0.130922
-0.0779162
-0.0355065
-0.00191173
0.0243939
0.0447047
0.0601084
0.0715119
0.0796652
0.0851851
0.0885756
0.0902476
0.0905342
0.0897061
0.0879829
0.0855436
0.0825348
0.0790783
0.0752764
0.0712176
0.06698
0.062634
0.0582436
0.0538621
0.0495302
0.0452657
0.0410625
0.036896
0.0326772
0.0284494
0.0238258
0.0195993
0.0135778
0.0110922
-0.000774016
-11.2896
-11.3203
-11.3553
-11.3949
-11.4397
-11.4907
-11.5482
-11.6125
-11.6837
-11.7611
-11.8439
-11.9307
-12.0199
-12.1095
-12.1976
-12.2822
-12.3613
-12.4331
-12.4959
-12.5482
-12.5888
-12.6166
-12.6305
-12.6298
-12.6136
-12.581
-12.5312
-12.4632
-12.3759
-12.2682
-12.1387
-11.9858
-11.808
-11.6035
-11.3706
-11.1075
-10.8128
-10.4853
-10.124
-9.72881
-9.30026
-8.8398
-8.34991
-7.8342
-7.29742
-6.74538
-6.1848
-5.62306
-5.06787
-4.52686
-4.00717
-3.51503
-3.05547
-2.63213
-2.24719
-1.9014
-1.59434
-1.32453
-1.0898
-0.887445
-0.714471
-0.567785
-0.444322
-0.341141
-0.255502
-0.184898
-0.127082
-0.0800637
-0.0421071
-0.0117134
0.0123978
0.0313103
0.0459346
0.0570296
0.0652248
0.0710388
0.0748985
0.0771534
0.0780906
0.0779454
0.0769116
0.0751501
0.0727954
0.0699618
0.0667483
0.0632427
0.059525
0.0556678
0.0517353
0.047775
0.0438231
0.0398689
0.0359321
0.0318651
0.0278578
0.0232476
0.0193958
0.0129878
0.0115711
-0.00210926
-11.2893
-11.3195
-11.3535
-11.3918
-11.4347
-11.4829
-11.5368
-11.5965
-11.6619
-11.7325
-11.8075
-11.8857
-11.9656
-12.0457
-12.1241
-12.1991
-12.2688
-12.3316
-12.3858
-12.4301
-12.4632
-12.484
-12.4915
-12.4848
-12.4629
-12.425
-12.3703
-12.2977
-12.2062
-12.0947
-11.9618
-11.8062
-11.6263
-11.4206
-11.1876
-10.9257
-10.6337
-10.3106
-9.95574
-9.56904
-9.15118
-8.70362
-8.22877
-7.73006
-7.21192
-6.67973
-6.13969
-5.59858
-5.06346
-4.54135
-4.03882
-3.56166
-3.1146
-2.70112
-2.32341
-1.98239
-1.67785
-1.40862
-1.17286
-0.96817
-0.791887
-0.641186
-0.513235
-0.405296
-0.314785
-0.239324
-0.176758
-0.125168
-0.0828665
-0.048385
-0.0204607
0.00198319
0.019858
0.0339294
0.0448371
0.0531134
0.0591997
0.0634612
0.0662004
0.0676681
0.068073
0.0675897
0.0663657
0.064527
0.0621837
0.0594332
0.0563651
0.0530599
0.0495928
0.0460176
0.0423888
0.0386913
0.0349882
0.0310753
0.0272864
0.0226903
0.0192025
0.012417
0.0120323
-0.00340409
-11.2874
-11.3167
-11.3496
-11.3862
-11.427
-11.4723
-11.5225
-11.5776
-11.6374
-11.7014
-11.769
-11.8391
-11.9104
-11.9815
-12.0507
-12.1165
-12.1772
-12.2313
-12.2772
-12.3137
-12.3395
-12.3534
-12.3545
-12.3417
-12.3143
-12.2713
-12.2117
-12.1347
-12.0392
-11.924
-11.788
-11.6299
-11.4483
-11.2418
-11.009
-10.7488
-10.4598
-10.1414
-9.79313
-9.415
-9.00778
-8.57293
-8.11279
-7.63059
-7.13046
-6.61738
-6.09707
-5.57575
-5.05989
-4.55593
-4.06992
-3.60724
-3.17232
-2.76852
-2.39801
-2.06183
-1.75996
-1.49153
-1.25497
-1.04821
-0.868856
-0.714357
-0.582112
-0.469573
-0.37432
-0.294099
-0.226854
-0.170739
-0.124117
-0.085556
-0.0538132
-0.027822
-0.00667297
0.0104039
0.024057
0.0348302
0.0431783
0.0494813
0.0540565
0.0571697
0.0590439
0.0598674
0.0598009
0.0589822
0.0575321
0.055558
0.0531591
0.0504236
0.0474376
0.0442606
0.0409651
0.0375317
0.0340664
0.0303102
0.0267376
0.0221563
0.0190217
0.0118674
0.0124784
-0.00465996
-11.2838
-11.3121
-11.3436
-11.3784
-11.4168
-11.4591
-11.5056
-11.5561
-11.6104
-11.6683
-11.7288
-11.7913
-11.8544
-11.9169
-11.9775
-12.0345
-12.0866
-12.1323
-12.1702
-12.1991
-12.2176
-12.2248
-12.2195
-12.2009
-12.168
-12.1199
-12.0556
-11.9743
-11.8749
-11.7564
-11.6176
-11.4573
-11.2742
-11.0673
-10.8352
-10.5768
-10.2912
-9.97773
-9.63616
-9.26665
-8.86998
-8.44764
-8.00186
-7.53567
-7.05294
-6.55826
-6.0569
-5.55454
-5.05714
-4.57059
-4.10048
-3.65178
-3.22866
-2.83434
-2.47096
-2.13965
-1.8406
-1.57316
-1.33603
-1.12743
-0.945251
-0.787173
-0.650826
-0.533854
-0.433992
-0.349117
-0.277272
-0.216687
-0.165779
-0.123155
-0.087596
-0.0580486
-0.0336079
-0.0135021
0.00292402
0.0162241
0.0268654
0.0352412
0.0416832
0.0464713
0.0498428
0.0519996
0.0531151
0.0533391
0.0528034
0.0516252
0.0499135
0.0477642
0.0452735
0.0425071
0.0395546
0.0363927
0.0331692
0.0295722
0.0262139
0.0216483
0.0188561
0.0113407
0.0129128
-0.00588035
-11.2786
-11.3057
-11.3355
-11.3684
-11.4043
-11.4436
-11.4862
-11.5322
-11.5814
-11.6332
-11.6871
-11.7422
-11.7976
-11.8521
-11.9044
-11.9531
-11.997
-12.0347
-12.0648
-12.0862
-12.0978
-12.0983
-12.0869
-12.0625
-12.0242
-11.9711
-11.9023
-11.8168
-11.7137
-11.592
-11.4506
-11.2885
-11.1044
-10.8972
-10.666
-10.4098
-10.1278
-9.81953
-9.4848
-9.12393
-8.73773
-8.32767
-7.89587
-7.44521
-6.97927
-6.50229
-6.0191
-5.53492
-5.05521
-4.58536
-4.13051
-3.6953
-3.28363
-2.89856
-2.54223
-2.21583
-1.9197
-1.65342
-1.41594
-1.20574
-1.02095
-0.859505
-0.71925
-0.598012
-0.493684
-0.404268
-0.32791
-0.262917
-0.207767
-0.161104
-0.121739
-0.0886336
-0.0608905
-0.0377382
-0.018517
-0.00266481
0.0102964
0.0207724
0.0291084
0.0355978
0.0404918
0.0440055
0.0463251
0.0476122
0.0480098
0.0476451
0.0466366
0.0450882
0.0431061
0.0407616
0.0381611
0.0352776
0.0322996
0.0288646
0.0257182
0.0211691
0.0187087
0.0108386
0.0133408
-0.00707056
-11.2718
-11.2974
-11.3256
-11.3563
-11.3897
-11.4258
-11.4647