/*--------------------------------*- C++ -*----------------------------------*\
  =========                 |
  \\      /  F ield         | OpenFOAM: The Open Source CFD Toolbox
   \\    /   O peration     | Website:  https://openfoam.org
    \\  /    A nd           | Version:  10
     \\/     M anipulation  |
\*---------------------------------------------------------------------------*/
FoamFile
{
    format      ascii;
    class       volScalarField;
    location    "0.195";
    object      k;
}
// * * * * * * * * * * * * * * * * * * * * * * * * * * * * * * * * * * * * * //

dimensions      [0 2 -2 0 0 0 0];

internalField   nonuniform List<scalar> 
6820
(
0.198344
0.194808
0.191212
0.187592
0.183996
0.18045
0.176965
0.173544
0.170189
0.166899
0.163674
0.16051
0.157408
0.154364
0.151375
0.148441
0.145556
0.142718
0.139922
0.137163
0.134433
0.131723
0.129022
0.126313
0.123575
0.120781
0.117889
0.114845
0.111572
0.107955
0.103807
0.099037
0.0919256
0.200926
0.200907
0.200485
0.200035
0.199583
0.199121
0.198642
0.198144
0.197626
0.197089
0.196535
0.195965
0.195381
0.194785
0.194179
0.193565
0.192945
0.19232
0.191693
0.191065
0.190439
0.189815
0.189196
0.188584
0.187978
0.187381
0.186789
0.186197
0.185597
0.184953
0.184259
0.183232
0.182506
0.23673
0.016521
0.0146669
0.0110453
0.00686417
0.00787457
0.00957786
0.0115445
0.0136896
0.015922
0.0182123
0.0205424
0.0228998
0.0252757
0.0276641
0.0300611
0.0324649
0.0348757
0.0372959
0.0397303
0.0421869
0.0446771
0.0472172
0.0498294
0.0525441
0.055402
0.0584587
0.0617882
0.0654931
0.0697073
0.0746136
0.0804759
0.0874598
0.210785
0.147914
0.104846
0.0794772
0.0638369
0.0532582
0.0454652
0.039355
0.0343545
0.0301414
0.0265212
0.0233693
0.0206025
0.0181633
0.0160115
0.0141187
0.0124644
0.0110332
0.00981235
0.00879007
0.00795413
0.0072917
0.00678977
0.00643671
0.00622397
0.00614816
0.00621356
0.00643553
0.00684523
0.00750364
0.00849778
0.0100381
0.0122093
0.223458
0.0826356
0.0209724
0.00407545
0.000657333
0.000420781
0.000742642
0.00106395
0.00132614
0.00154786
0.00174289
0.00191561
0.00206602
0.00219289
0.00229516
0.00237235
0.00242457
0.0024525
0.00245715
0.00243976
0.00240156
0.00234364
0.0022667
0.00217101
0.00205624
0.00192133
0.0017643
0.0015825
0.00137139
0.00113086
0.000851205
0.000395227
0.000948034
0.217226
0.114139
0.0532571
0.029687
0.0206515
0.0163216
0.0132579
0.0104454
0.00771399
0.00522964
0.00322594
0.00181571
0.000944702
0.000464426
0.000222325
0.000108477
5.84797e-05
3.83689e-05
3.21273e-05
3.27031e-05
3.70027e-05
4.35382e-05
5.13827e-05
5.98961e-05
6.82829e-05
7.54728e-05
8.04712e-05
7.89412e-05
7.99922e-05
4.98309e-06
0.000268215
0.00015398
0.0001056
0.213514
0.132932
0.0662592
0.0343882
0.0211293
0.015461
0.0127053
0.0111614
0.0101789
0.00948392
0.00895193
0.00852318
0.0081672
0.00786664
0.0076119
0.00738184
0.00713204
0.00683365
0.00647444
0.00606226
0.00562539
0.00519785
0.00480218
0.00444586
0.00412672
0.00383851
0.00357451
0.00332869
0.0030976
0.00287474
0.00266827
0.0024637
0.00226841
0.204177
0.179598
0.128075
0.073456
0.0401466
0.0239884
0.0164662
0.0127649
0.010757
0.00954875
0.00875197
0.00818475
0.00775379
0.0074122
0.00714927
0.00701127
0.00689669
0.00678544
0.00667384
0.00655934
0.00644105
0.00632104
0.0062023
0.00608775
0.00597764
0.00587024
0.00576344
0.00565573
0.00554615
0.00543404
0.00531677
0.00519597
0.00506891
0.202782
0.186437
0.160782
0.122637
0.0834832
0.0547651
0.0369235
0.0264665
0.0202847
0.0164448
0.0138906
0.0120606
0.0106453
0.00946762
0.00853194
0.00809091
0.00779166
0.00755731
0.00735904
0.00716977
0.00698777
0.00681932
0.00666531
0.00652405
0.00639431
0.00627603
0.00616976
0.0060761
0.00599552
0.00592764
0.00587145
0.00582517
0.00578573
0.20209
0.189903
0.174453
0.154913
0.12725
0.0962805
0.0693327
0.0495925
0.0363837
0.0277643
0.0220339
0.0180555
0.0151506
0.012991
0.0115156
0.0108494
0.0104308
0.0101037
0.00980751
0.00951579
0.00922776
0.00894759
0.00867551
0.00841032
0.00815259
0.0079044
0.00766824
0.00744638
0.00724091
0.00705336
0.0068849
0.00673628
0.00660581
0.201606
0.192327
0.180583
0.168222
0.153366
0.135039
0.114036
0.0926811
0.0734921
0.0577806
0.0456377
0.0365532
0.0299247
0.0252993
0.0224141
0.020758
0.0196486
0.0187418
0.0179244
0.0171661
0.0164531
0.0157768
0.0151317
0.0145144
0.0139232
0.0133579
0.0128192
0.0123081
0.0118263
0.0113752
0.0109565
0.010572
0.0102195
0.20127
0.193998
0.184851
0.175881
0.166491
0.155786
0.142962
0.127775
0.111122
0.0945733
0.0795701
0.0670073
0.0572264
0.0501616
0.0453629
0.0420524
0.0395534
0.0374677
0.0356033
0.0338976
0.0323183
0.0308436
0.0294594
0.0281558
0.0269264
0.0257671
0.0246755
0.02365
0.0226895
0.0217929
0.0209594
0.0201885
0.0194715
0.201026
0.195202
0.187835
0.180795
0.174051
0.167472
0.160733
0.153158
0.144181
0.133739
0.12236
0.110998
0.10067
0.0920377
0.085172
0.079706
0.0751796
0.0712582
0.0677293
0.0645182
0.0615778
0.0588663
0.0563495
0.0540017
0.0518036
0.0497414
0.047805
0.0459868
0.0442808
0.0426804
0.0411794
0.0397709
0.0384297
0.200853
0.19605
0.189954
0.184289
0.179178
0.174596
0.170377
0.166116
0.161372
0.155861
0.149569
0.14278
0.135977
0.129612
0.123877
0.118722
0.113943
0.109473
0.105285
0.101369
0.0977065
0.0942751
0.0910514
0.0880135
0.0851434
0.0824267
0.079852
0.0774085
0.0750853
0.0728693
0.0707463
0.0686968
0.0666646
0.20073
0.196651
0.191456
0.18673
0.182664
0.179273
0.176481
0.174045
0.171657
0.169033
0.165992
0.162502
0.158676
0.15467
0.150497
0.146254
0.142008
0.137858
0.13388
0.130113
0.126565
0.123227
0.120081
0.117106
0.11428
0.111584
0.109002
0.106518
0.104117
0.101779
0.0994828
0.0971883
0.0948104
0.200644
0.197071
0.192505
0.188425
0.185053
0.182388
0.180332
0.178685
0.177217
0.175713
0.174001
0.171989
0.169658
0.167046
0.164171
0.161114
0.157967
0.15481
0.151707
0.148699
0.145807
0.143036
0.140384
0.137841
0.135395
0.133034
0.130744
0.128511
0.126321
0.12415
0.121976
0.119741
0.117345
0.200586
0.197352
0.193212
0.189533
0.186547
0.184222
0.182457
0.18109
0.17994
0.178834
0.177624
0.176204
0.174514
0.172545
0.170328
0.167924
0.165409
0.162854
0.160317
0.157839
0.155443
0.15314
0.15093
0.148806
0.14676
0.144781
0.142858
0.140979
0.139129
0.13729
0.135437
0.133519
0.131435
0.20055
0.197525
0.193637
0.190124
0.187255
0.185023
0.183339
0.18206
0.181016
0.180058
0.179062
0.177943
0.176649
0.175167
0.17351
0.171712
0.169814
0.167862
0.16589
0.163928
0.161994
0.160099
0.158248
0.156442
0.154681
0.152962
0.151281
0.149636
0.148021
0.146417
0.144792
0.143122
0.141373
0.200534
0.197606
0.1938
0.190302
0.187416
0.185159
0.183456
0.182171
0.181147
0.180246
0.179356
0.178397
0.17732
0.176107
0.174759
0.173298
0.171752
0.170151
0.168522
0.166886
0.16526
0.163655
0.162076
0.160529
0.159015
0.157537
0.156094
0.154689
0.153313
0.151928
0.150522
0.149118
0.147786
0.200535
0.197603
0.193742
0.190149
0.187149
0.184776
0.182965
0.181589
0.180502
0.179578
0.178718
0.17785
0.176931
0.17594
0.17487
0.173728
0.172524
0.171272
0.169985
0.168674
0.167349
0.166019
0.16469
0.163369
0.162061
0.160772
0.159508
0.158261
0.157011
0.155748
0.154497
0.153303
0.152275
0.200555
0.197515
0.193474
0.189673
0.186461
0.183883
0.181886
0.180349
0.179137
0.178134
0.177246
0.176408
0.175574
0.174717
0.173821
0.172883
0.1719
0.170877
0.16982
0.168733
0.167622
0.166495
0.165357
0.164215
0.163077
0.161943
0.160801
0.15964
0.158464
0.157298
0.156178
0.155153
0.154317
0.200595
0.197336
0.192977
0.188847
0.18532
0.182455
0.180204
0.178451
0.177071
0.175951
0.175004
0.174166
0.173388
0.172636
0.171889
0.171129
0.170345
0.169532
0.168685
0.167804
0.16689
0.165945
0.164975
0.163987
0.162979
0.16193
0.160834
0.159701
0.15856
0.157441
0.156379
0.155419
0.154627
0.200658
0.197048
0.192212
0.187616
0.18367
0.180442
0.177883
0.17588
0.174306
0.173052
0.172031
0.171173
0.170425
0.169746
0.169104
0.168473
0.167834
0.167173
0.16648
0.165749
0.164979
0.16417
0.163323
0.162436
0.161483
0.160457
0.159373
0.158254
0.157128
0.156022
0.154964
0.153986
0.153131
0.200751
0.196625
0.191112
0.185888
0.181407
0.177734
0.174812
0.172518
0.17072
0.169308
0.168188
0.167288
0.166549
0.165919
0.165359
0.164836
0.164321
0.163794
0.163238
0.162644
0.162007
0.161319
0.160557
0.159705
0.15876
0.157735
0.15665
0.155527
0.154389
0.153254
0.152143
0.151079
0.150087
0.200884
0.19602
0.189576
0.183534
0.178395
0.174207
0.170889
0.168297
0.166285
0.16473
0.16353
0.162601
0.161875
0.161292
0.160805
0.160371
0.159958
0.159539
0.159094
0.158605
0.158059
0.157435
0.156709
0.155875
0.154944
0.153931
0.152852
0.151724
0.150566
0.14939
0.14821
0.147039
0.145899
0.201078
0.195151
0.187418
0.180294
0.17433
0.169529
0.165756
0.162828
0.160573
0.15885
0.157545
0.156563
0.155827
0.155269
0.154834
0.154474
0.154148
0.153827
0.153483
0.153075
0.152572
0.151962
0.151241
0.150414
0.14949
0.14848
0.147396
0.146252
0.145057
0.143819
0.142545
0.141248
0.139947
0.201365
0.193868
0.184366
0.175894
0.169009
0.163595
0.159411
0.156203
0.153757
0.151909
0.150531
0.149518
0.148785
0.148258
0.147874
0.147581
0.147327
0.147077
0.146794
0.146434
0.145973
0.145403
0.144723
0.143936
0.143048
0.142068
0.141003
0.139862
0.138654
0.137381
0.13605
0.134671
0.133269
0.201799
0.191923
0.179952
0.169728
0.1617
0.155532
0.150826
0.147243
0.144525
0.142486
0.140982
0.1399
0.139144
0.138633
0.138298
0.138068
0.137867
0.137649
0.137381
0.137038
0.136604
0.136071
0.135434
0.134693
0.133849
0.132906
0.131867
0.130736
0.129517
0.128213
0.126827
0.125371
0.123872
0.202459
0.188964
0.173701
0.161482
0.152351
0.145546
0.140431
0.136554
0.133614
0.13141
0.129789
0.128623
0.127812
0.127274
0.126935
0.126714
0.12654
0.126365
0.126153
0.12588
0.125527
0.125081
0.124535
0.123885
0.12313
0.122268
0.121303
0.120235
0.119067
0.117799
0.116435
0.114989
0.113487
0.203523
0.184192
0.164232
0.149375
0.138803
0.131141
0.125458
0.12118
0.117958
0.115566
0.113813
0.112544
0.111648
0.11104
0.110646
0.110396
0.110231
0.110101
0.109965
0.109791
0.109556
0.109242
0.108836
0.108329
0.107716
0.106991
0.106152
0.105198
0.104129
0.102943
0.101645
0.100248
0.0987776
0.205274
0.176224
0.150509
0.133218
0.121467
0.113043
0.106755
0.101965
0.0983139
0.095562
0.0935084
0.0920119
0.0909654
0.0902746
0.0898546
0.0896292
0.0895316
0.0895046
0.0895007
0.0894824
0.0894207
0.0892935
0.0890844
0.0887811
0.0883744
0.0878574
0.0872248
0.0864731
0.0856003
0.0846055
0.0834908
0.0822682
0.080956
0.208229
0.162384
0.128944
0.108986
0.0962304
0.0873628
0.0808495
0.0759328
0.0722017
0.0694013
0.0673433
0.0658816
0.0648933
0.0642741
0.0639356
0.0638024
0.06381
0.0639038
0.0640385
0.064178
0.0642935
0.0643627
0.0643681
0.0642959
0.064135
0.0638765
0.0635133
0.0630397
0.0624519
0.0617476
0.0609264
0.0599959
0.0589658
0.214653
0.131312
0.0875121
0.0666975
0.0555493
0.0486929
0.0440466
0.0407304
0.0383183
0.0365697
0.0353254
0.0344719
0.0339226
0.0336099
0.0334793
0.0334856
0.0335896
0.0337569
0.0339584
0.0341699
0.034372
0.0345494
0.03469
0.0347843
0.0348247
0.0348055
0.0347225
0.0345732
0.0343567
0.0340731
0.0337236
0.0333126
0.0328433
0.222288
0.0918578
0.0443673
0.0282401
0.0218468
0.018634
0.0166688
0.015332
0.0143875
0.0137216
0.0132664
0.0129763
0.0128178
0.0127644
0.0127945
0.0128888
0.0130295
0.0132005
0.0133868
0.0135759
0.0137573
0.0139226
0.0140654
0.0141809
0.0142654
0.0143167
0.0143334
0.0143154
0.0142637
0.0141802
0.0140673
0.0139281
0.0137647
0.225532
0.0739759
0.028061
0.0147135
0.0101618
0.00811255
0.00692262
0.00613208
0.0055845
0.00520801
0.00496097
0.00481546
0.00475119
0.0047522
0.00480502
0.00489764
0.0050189
0.00515841
0.00530667
0.00545527
0.00559705
0.00572616
0.00583803
0.00592921
0.0059973
0.00604084
0.00605929
0.00605309
0.00602374
0.00597368
0.00590611
0.00582529
0.00573483
0.223567
0.0810498
0.0354902
0.0215741
0.0164548
0.0138749
0.0121376
0.0107569
0.00957473
0.00853147
0.0076042
0.00678127
0.00605397
0.00541368
0.00485154
0.00435892
0.00392769
0.00355019
0.00321941
0.00292897
0.00267328
0.00244748
0.00224738
0.0020694
0.00191051
0.00176812
0.00163999
0.00152408
0.00141858
0.00132212
0.00123389
0.0011527
0.00108221
0.213216
0.134721
0.089062
0.0650784
0.0517434
0.0435689
0.0380724
0.0341023
0.0310829
0.0286949
0.026753
0.0251372
0.0237671
0.0225886
0.0215627
0.02066
0.0198589
0.0191424
0.0184978
0.0179148
0.0173853
0.0169028
0.016462
0.0160585
0.0156885
0.0153489
0.0150369
0.0147499
0.0144838
0.0142368
0.0140064
0.0137942
0.0135844
0.240249
0.000469766
0.0365713
0.0331216
0.000618102
0.000188954
0.00265057
0.00148315
0.000570705
0.0002846
0.000785918
0.00132909
0.00107619
0.000530458
0.00038084
0.000459605
0.000507097
0.000525697
0.000556913
0.000597516
0.000637521
0.000676647
0.000717056
0.000759122
0.000802571
0.000847591
0.000894449
0.000943736
0.000997244
0.00105554
0.00111902
0.00118828
0.00126329
0.200085
0.199945
0.199757
0.199573
0.1994
0.199235
0.199074
0.198915
0.198757
0.198597
0.198437
0.198275
0.198111
0.197945
0.197778
0.19761
0.197441
0.197272
0.197104
0.196936
0.196769
0.196604
0.196442
0.196283
0.196127
0.195975
0.195829
0.195687
0.195552
0.195423
0.1953
0.195188
0.195069
0.199875
0.199566
0.199233
0.198887
0.198536
0.198187
0.197843
0.197505
0.197174
0.196851
0.196536
0.19623
0.195932
0.195642
0.19536
0.195085
0.194816
0.194554
0.194298
0.194047
0.193801
0.193558
0.193319
0.193082
0.192848
0.192614
0.192382
0.192151
0.191919
0.191686
0.191452
0.191216
0.190978
0.0883661
0.0968475
0.113454
0.131602
0.151222
0.168482
0.186616
0.18961
0.166859
0.133987
0.107078
0.109318
0.114427
0.0944823
0.0825298
0.0850506
0.0903373
0.0929447
0.093979
0.0951523
0.0969144
0.0989913
0.10069
0.101408
0.101163
0.0986491
0.0933571
0.0898932
0.0874772
0.0750869
0.0495337
0.0239814
0.0142735
0.0244244
0.046074
0.0683106
0.0845074
0.0929962
0.0949553
0.0922643
0.0863551
0.0781128
0.0683933
0.0585514
0.0505008
0.0462038
0.0468994
0.0525615
0.0618801
0.0726425
0.0822038
0.0879884
0.0883886
0.0842146
0.0796038
0.0804237
0.0898488
0.104278
0.114356
0.111774
0.0964315
0.0758957
0.0595288
0.053875
0.0586083
0.0648861
0.0660633
0.0756588
0.106753
0.136349
0.145743
0.154116
0.184515
0.242393
0.314099
0.373105
0.401598
0.397922
0.370333
0.328997
0.280652
0.230418
0.183908
0.146618
0.122104
0.110664
0.105789
0.0993952
0.102517
0.110525
0.118999
0.121709
0.120918
0.133627
0.157857
0.162831
0.137771
0.101534
0.0724826
0.0597462
0.176918
0.16818
0.160046
0.155968
0.157495
0.164871
0.168812
0.153115
0.119816
0.0863993
0.0642344
0.0621473
0.08802
0.101697
0.0925651
0.085009
0.0862062
0.0900712
0.0927967
0.0946508
0.0962384
0.0977448
0.0988273
0.0992125
0.0982582
0.0942519
0.0898347
0.0887938
0.0839777
0.065044
0.0370023
0.0162991
0.0146851
0.0303979
0.0532679
0.0738829
0.087569
0.0938206
0.0942164
0.0906043
0.084227
0.0757883
0.0660393
0.0563061
0.0485173
0.0446521
0.0459391
0.0523048
0.0623759
0.073916
0.0843209
0.0910252
0.0921806
0.0879908
0.0819834
0.0801854
0.0870793
0.100795
0.112665
0.113111
0.0998052
0.0793511
0.0618083
0.0549069
0.0594111
0.0668778
0.0687603
0.0749699
0.101395
0.131977
0.145653
0.15497
0.182793
0.236397
0.302911
0.357982
0.385335
0.383502
0.359412
0.321925
0.277336
0.230426
0.186163
0.149434
0.124053
0.111873
0.104614
0.0927258
0.0968419
0.106952
0.117593
0.12219
0.122065
0.132887
0.15498
0.160914
0.138483
0.103503
0.0737173
0.0589675
0.0981006
0.110698
0.121574
0.129383
0.133752
0.134179
0.121413
0.0940549
0.0630714
0.0390642
0.0256075
0.021278
0.0409178
0.0768571
0.0952532
0.0928395
0.0874284
0.0868462
0.0891225
0.0917871
0.0940722
0.0956805
0.0965167
0.0962625
0.0936007
0.0893313
0.0880385
0.0875999
0.0764119
0.0510853
0.0242539
0.0114505
0.0181186
0.0379124
0.0606701
0.0790113
0.0900109
0.0940704
0.0930196
0.0885986
0.0818321
0.0732477
0.0635119
0.0539402
0.0464806
0.043121
0.0450622
0.0521658
0.0629849
0.0752544
0.0864258
0.0940033
0.0960016
0.0920822
0.0850435
0.0807685
0.0848326
0.0972227
0.110376
0.113886
0.103144
0.0832407
0.0645734
0.0561305
0.0600279
0.0686283
0.0717791
0.0753401
0.0965504
0.126806
0.144605
0.155532
0.180856
0.229455
0.290083
0.340817
0.366855
0.366801
0.346336
0.31278
0.271928
0.228585
0.187075
0.151536
0.125753
0.112897
0.10336
0.0889905
0.0937266
0.105419
0.117542
0.123226
0.123434
0.132548
0.152465
0.158935
0.138839
0.105282
0.0753706
0.0585889
0.0165595
0.024132
0.0338662
0.0436174
0.0499379
0.048324
0.0388683
0.0258487
0.0141949
0.00662984
0.00330367
0.00137295
0.00609286
0.0334844
0.070088
0.0908387
0.0934091
0.0897804
0.0876332
0.0878999
0.0893462
0.0907587
0.0914169
0.0902785
0.0875185
0.0866687
0.0882504
0.0829135
0.062579
0.0343406
0.0136577
0.0108017
0.024603
0.0465443
0.0679337
0.0834899
0.091721
0.0936962
0.0913548
0.0862536
0.079179
0.0704983
0.0608201
0.0514676
0.0444096
0.0416298
0.0442837
0.0521525
0.0637058
0.0766481
0.0884965
0.096874
0.0997598
0.0963692
0.0887092
0.0822201
0.0832528
0.0936931
0.107519
0.113992
0.106296
0.0875075
0.0678912
0.0576526
0.0605089
0.0700463
0.0749455
0.0768003
0.0925743
0.12103
0.142349
0.155556
0.178831
0.222079
0.276361
0.3225
0.347107
0.348647
0.331633
0.301826
0.264625
0.225046
0.186729
0.152932
0.127218
0.113498
0.102699
0.0899199
0.094306
0.106518
0.119036
0.124879
0.125021
0.132619
0.150442
0.157027
0.138923
0.106861
0.077218
0.0584885
0.00138879
0.00128635
0.00156353
0.0029233
0.0042723
0.00411856
0.00240839
0.000531764
0.00251606
9.68509e-05
0.000331687
4.86944e-05
0.000342349
0.0068765
0.0320295
0.06443
0.0859448
0.0928728
0.0919092
0.0893829
0.0877191
0.0869827
0.0861783
0.0853159
0.085955
0.0884066
0.0858262
0.0696884
0.04279
0.0182869
0.00797777
0.0148438
0.0334473
0.0556144
0.0746769
0.0871371
0.0926268
0.0926875
0.0892371
0.0835841
0.0762728
0.0675386
0.0579632
0.0488931
0.0423157
0.040194
0.0436174
0.0522726
0.0645405
0.078092
0.0905174
0.0995952
0.103363
0.100708
0.0928492
0.0845302
0.0824843
0.090385
0.104148
0.113306
0.109066
0.0920528
0.0718113
0.0596053
0.0609572
0.0710581
0.0780458
0.0793013
0.0898406
0.114985
0.138716
0.15469
0.176689
0.214749
0.262533
0.303954
0.327062
0.329959
0.315921
0.289421
0.255681
0.220004
0.185269
0.153652
0.12843
0.113665
0.102816
0.0934611
0.0977411
0.109802
0.121718
0.126965
0.126758
0.133018
0.148851
0.155172
0.13866
0.108081
0.0789997
0.0585614
0.000352459
8.74537e-05
8.64348e-05
0.000291909
0.000656815
0.000321998
0.000174591
0.000315931
0.000499761
0.000705636
0.000844785
0.000724492
0.000254084
0.00186416
0.007218
0.0286439
0.056303
0.0779353
0.0890034
0.0921771
0.0917132
0.0903899
0.0892666
0.0893645
0.0900496
0.0862654
0.0714528
0.0466143
0.0217905
0.00760628
0.00879112
0.0228985
0.0436725
0.0645283
0.0805912
0.0897943
0.0926695
0.0910461
0.0866864
0.0806028
0.0731153
0.0643675
0.0549448
0.0462285
0.0402174
0.0388345
0.043081
0.0525357
0.0654881
0.0795795
0.0924768
0.102138
0.106739
0.104965
0.0973101
0.0876354
0.0826405
0.0875176
0.100395
0.111738
0.111221
0.096713
0.0763498
0.0621274
0.0614949
0.0716285
0.0808379
0.0826749
0.0886824
0.10918
0.133719
0.152522
0.174173
0.207758
0.249324
0.286082
0.307621
0.311452
0.299623
0.275834
0.245354
0.213662
0.182834
0.153765
0.129348
0.113595
0.103005
0.097057
0.102175
0.114036
0.12484
0.129135
0.128523
0.133675
0.147637
0.153358
0.138029
0.108884
0.0806097
0.0587568
0.00206028
0.00182295
0.00161064
0.00142887
0.00130911
0.00130667
0.00147488
0.00180871
0.00223491
0.00261247
0.00275652
0.00255326
0.00198428
0.000501874
0.000735033
0.00630628
0.0222743
0.0443509
0.0642149
0.077568
0.0846917
0.0876983
0.088649
0.0870108
0.080285
0.0652777
0.0432059
0.0211843
0.00715758
0.00544777
0.0155168
0.0335455
0.0543554
0.0727934
0.0853922
0.0913256
0.0918279
0.0888021
0.0837321
0.0773207
0.0697058
0.0609845
0.0517721
0.0434905
0.038138
0.0375752
0.0426935
0.0529511
0.0665484
0.0811044
0.0943666
0.104486
0.109834
0.109023
0.101926
0.0914236
0.0837836
0.085319
0.0964655
0.109269
0.112518
0.10125
0.0814633
0.0653528
0.0622835
0.0717787
0.0830765
0.0866173
0.0893127
0.104275
0.12764
0.148704
0.17078
0.20104
0.237179
0.269585
0.289402
0.293434
0.282901
0.261247
0.233914
0.206379
0.179579
0.153327
0.129926
0.113425
0.103091
0.0997468
0.106162
0.117997
0.127663
0.131041
0.130176
0.134505
0.14673
0.151564
0.137024
0.109236
0.0819806
0.0590385
0.00491441
0.00473607
0.0045601
0.00441015
0.00432606
0.00434694
0.00446066
0.00464638
0.00485433
0.00502474
0.00509891
0.0049342
0.00443171
0.00344536
0.00159275
0.00114014
0.0039687
0.013748
0.0285052
0.0431995
0.054336
0.0607888
0.0622321
0.0576419
0.0464377
0.0306
0.0150517
0.00501601
0.00357514
0.01112
0.0261017
0.0454531
0.064795
0.0799566
0.0888096
0.091648
0.0901319
0.0860074
0.0804026
0.0737426
0.0660418
0.0573925
0.0484593
0.0407031
0.0361065
0.0364442
0.0424752
0.0535281
0.0677198
0.0826593
0.0961804
0.106629
0.112614
0.112785
0.106533
0.0957427
0.0859139
0.0839958
0.0926258
0.105977
0.112749
0.105358
0.0870208
0.0693847
0.063527
0.0716076
0.0845517
0.0906981
0.0917367
0.100989
0.121108
0.143124
0.165865
0.194074
0.225998
0.254601
0.272317
0.275654
0.265676
0.245788
0.221694
0.198577
0.17588
0.152386
0.130081
0.113162
0.103257
0.101628
0.10916
0.121018
0.129747
0.132471
0.131617
0.13542
0.146051
0.149766
0.13565
0.109121
0.0830672
0.05938
0.00575026
0.00571754
0.0056908
0.00567163
0.00566432
0.00567624
0.00570135
0.00573641
0.00577669
0.00580889
0.00580096
0.00572266
0.00553092
0.00519284
0.00426659
0.00261105
0.000608644
0.000980795
0.00525742
0.012159
0.0190413
0.0234263
0.0236553
0.019655
0.0128026
0.00592678
0.0019481
0.0027752
0.00925098
0.0215883
0.0387726
0.0577348
0.0743315
0.0855327
0.0906363
0.0907712
0.0876632
0.0827208
0.0767172
0.0698674
0.0621221
0.0536012
0.0450281
0.0378978
0.0341582
0.0354729
0.0424479
0.0542755
0.0689992
0.0842355
0.0979127
0.108568
0.115065
0.11618
0.110981
0.100413
0.0889667
0.0837073
0.0891751
0.102041
0.111773
0.108695
0.0927867
0.0742621
0.0654518
0.0713041
0.0851372
0.0944022
0.0956764
0.0999564
0.115087
0.136097
0.15894
0.18593
0.214998
0.240398
0.255376
0.257518
0.247801
0.229612
0.209162
0.190754
0.172074
0.151093
0.129739
0.112688
0.103221
0.102772
0.111131
0.122977
0.131015
0.1334
0.132815
0.13634
0.145504
0.147914
0.133911
0.108541
0.0838402
0.0597581
0.00648316
0.00637241
0.00628968
0.00623325
0.00619895
0.00618331
0.00618921
0.00621283
0.00623739
0.00621626
0.00610236
0.00588592
0.00561386
0.00535143
0.0050834
0.00442864
0.00303226
0.00127786
0.000242014
0.000531586
0.00170595
0.00257207
0.00239544
0.00144778
0.000652623
0.00111449
0.00376689
0.00961687
0.0198694
0.0348312
0.0525997
0.0695053
0.0821594
0.0890978
0.0908243
0.0888104
0.0845279
0.0789891
0.0726823
0.0656921
0.057952
0.0496293
0.0415106
0.035115
0.0323347
0.0346963
0.0426338
0.0552005
0.0703816
0.0858227
0.0995572
0.110307
0.117187
0.119167
0.11514
0.105244
0.0928178
0.0845512
0.0864198
0.0977375
0.109563
0.110917
0.0984191
0.0799219
0.0682725
0.0711442
0.0848377
0.097208
0.10054
0.101519
0.110762
0.128492
0.150236
0.17578
0.202861
0.225634
0.237695
0.238732
0.229199
0.213029
0.196993
0.183465
0.168426
0.149509
0.128879
0.111842
0.102764
0.103211
0.112175
0.123988
0.131592
0.133925
0.133803
0.137203
0.144977
0.145935
0.1318
0.107497
0.0842674
0.0601381
0.00986344
0.0095105
0.00921223
0.0089739
0.00879695
0.00867585
0.00860595
0.00855852
0.00845705
0.00819661
0.00769659
0.00696929
0.00615339
0.00542785
0.00493869
0.00467013
0.0043605
0.00369571
0.00272201
0.00180695
0.00124499
0.00114586
0.0015041
0.00235239
0.00395155
0.00680492
0.0119323
0.0207321
0.0338886
0.0501408
0.0664219
0.0794851
0.0875143
0.0904957
0.0895259
0.0859411
0.0808179
0.0748357
0.068297
0.061219
0.0535469
0.0455071
0.0379494
0.0324047
0.0306849
0.0341531
0.0430554
0.0563087
0.0718598
0.0874088
0.101107
0.111851
0.118993
0.12173
0.118913
0.110045
0.0972934
0.0865488
0.0846404
0.0934201
0.10622
0.111738
0.103489
0.0861658
0.0721455
0.071469
0.0838218
0.0986945
0.105471
0.105521
0.109253
0.121753
0.140534
0.163294
0.188241
0.208915
0.219289
0.219209
0.209882
0.19677
0.186107
0.177202
0.165073
0.147598
0.127425
0.110477
0.101814
0.103002
0.112398
0.124188
0.131621
0.134156
0.134637
0.137972
0.144368
0.143748
0.129302
0.105986
0.0843066
0.0604678
0.0187327
0.01797
0.0172779
0.0166594
0.0161013
0.0155798
0.0150688
0.0144846
0.0136659
0.0124403
0.0107939
0.0089825
0.00739293
0.00628819
0.00570238
0.00552799
0.00559827
0.00571139
0.00572344
0.00565659
0.00568705
0.00609357
0.00696268
0.00850447
0.0112607
0.0161764
0.0243675
0.0363009
0.0509442
0.0658397
0.0782518
0.0864377
0.0900913
0.0899277
0.0870132
0.0823226
0.0765862
0.0702673
0.0635635
0.0564618
0.0489356
0.0412782
0.0344005
0.029828
0.0292651
0.0338847
0.0437341
0.0576031
0.0734241
0.0889799
0.102555
0.113209
0.120504
0.123874
0.122236
0.114647
0.102176
0.0896219
0.0840476
0.0894838
0.10199
0.110982
0.107525
0.0926432
0.0771127
0.0726399
0.0824289
0.0986531
0.109496
0.111186
0.111205
0.117633
0.131454
0.15014
0.171183
0.189424
0.199077
0.198208
0.19049
0.182345
0.177425
0.172238
0.161971
0.145247
0.125274
0.108509
0.100367
0.102213
0.111881
0.123656
0.131176
0.134155
0.135351
0.138622
0.143595
0.141288
0.126398
0.103995
0.0839042
0.0606784
0.037012
0.0354621
0.0339102
0.0323178
0.0305437
0.0284921
0.0261982
0.0235868
0.0204714
0.0168764
0.0132918
0.0104949
0.00903274
0.00887394
0.00951675
0.0103747
0.0110846
0.0115594
0.0118795
0.0122022
0.0127309
0.0136882
0.0154858
0.018652
0.0239141
0.0319188
0.042743
0.0554499
0.0681921
0.0789406
0.0863155
0.0899324
0.0901832
0.0878
0.0835385
0.0780514
0.0718542
0.0652903
0.0584968
0.0514495
0.0441622
0.0370024
0.0309354
0.0274591
0.0281391
0.0339347
0.0446897
0.0590827
0.0750616
0.0905204
0.103892
0.114386
0.121745
0.125623
0.12508
0.118906
0.107236
0.0936156
0.0847612
0.086323
0.0972425
0.108629
0.110077
0.0988595
0.0830481
0.0749729
0.0811395
0.0971692
0.111757
0.117189
0.116365
0.117597
0.125278
0.138538
0.154381
0.168612
0.176472
0.17672
0.173531
0.171796
0.171544
0.168471
0.158922
0.142298
0.122325
0.105898
0.0984625
0.100924
0.11069
0.12242
0.130272
0.13393
0.135942
0.139123
0.142594
0.138504
0.12307
0.101506
0.0830008
0.060691
0.0644288
0.0617629
0.0587452
0.0550933
0.0500504
0.0436332
0.0367866
0.0299018
0.0230449
0.0168682
0.0126439
0.0113921
0.0130614
0.0165481
0.0203984
0.023525
0.0255068
0.0264895
0.0269154
0.0273008
0.0280973
0.0297848
0.0328768
0.0377964
0.0447894
0.053651
0.0635869
0.0733309
0.0815525
0.0873049
0.0902287
0.0904548
0.0883774
0.0844791
0.0792531
0.0731712
0.0666385
0.0599262
0.05313
0.0462287
0.03929
0.0327595
0.0276446
0.025386
0.027378
0.0343471
0.0459374
0.0607415
0.0767553
0.0920129
0.105107
0.115388
0.12274
0.127012
0.127442
0.122719
0.11225
0.0983104
0.0867932
0.0842856
0.0924467
0.104848
0.110792
0.104217
0.0896187
0.0786581
0.0805081
0.0946431
0.111751
0.121968
0.123402
0.122025
0.124084
0.131274
0.141616
0.151579
0.157844
0.16054
0.162752
0.166049
0.168126
0.165483
0.15565
0.138553
0.118473
0.102637
0.0961505
0.0991978
0.108859
0.120482
0.128897
0.133468
0.136381
0.139431
0.141315
0.135364
0.119303
0.0984944
0.0815336
0.0604229
0.0920551
0.0884203
0.0838293
0.076949
0.0654047
0.0510218
0.0378591
0.0268071
0.0180578
0.0128267
0.012392
0.0167074
0.0241489
0.0323985
0.0395439
0.0446441
0.047673
0.0491604
0.0498401
0.0504251
0.0515219
0.0536253
0.0569933
0.0616876
0.0675043
0.0739118
0.0801516
0.0854369
0.0891568
0.0909795
0.0908308
0.0888166
0.0851609
0.0801744
0.0742296
0.0677162
0.060973
0.0542168
0.0475156
0.0408677
0.0344072
0.028656
0.0246414
0.0237119
0.0270585
0.0351635
0.0474863
0.0625666
0.078484
0.0934378
0.10619
0.116217
0.123513
0.128077
0.129342
0.126021
0.117019
0.103444
0.0900418
0.0836277
0.088118
0.0999998
0.109496
0.108093
0.096277
0.0836762
0.0810649
0.0917388
0.109484
0.124191
0.13019
0.129679
0.128539
0.130575
0.135877
0.142291
0.147868
0.15305
0.158978
0.164347
0.166381
0.162794
0.151808
0.133749
0.113622
0.0987644
0.0934993
0.097071
0.106391
0.117823
0.127032
0.132768
0.136624
0.139487
0.139707
0.131839
0.11508
0.0949297
0.0794373
0.0597889
0.114461
0.110261
0.104673
0.093585
0.0716105
0.0470206
0.0290757
0.0175392
0.0122545
0.0138989
0.0216961
0.0330574
0.0448892
0.0549447
0.0622914
0.0670185
0.0697232
0.0711302
0.0719079
0.0726097
0.0736739
0.0753166
0.077605
0.080461
0.083651
0.0868037
0.0894938
0.0913259
0.0919916
0.0912928
0.0891482
0.0855952
0.0807897
0.0749913
0.068528
0.0617402
0.0549144
0.0482254
0.0417308
0.0354652
0.0296366
0.0248314
0.0220648
0.0225538
0.027259
0.0364189
0.0493356
0.0645361
0.0802201
0.0947729
0.107128
0.116875
0.124079
0.128855
0.130815
0.128785
0.121381
0.108736
0.0943012
0.0844766
0.0847556
0.0946137
0.106251
0.109939
0.102299
0.0897316
0.0831959
0.0892709
0.105496
0.123173
0.13452
0.137912
0.137084
0.136522
0.138313
0.142163
0.147296
0.153589
0.160438
0.165172
0.165406
0.15982
0.146874
0.127554
0.107734
0.0943984
0.0905967
0.0945548
0.103266
0.114423
0.124658
0.131828
0.13663
0.139222
0.137717
0.127904
0.110379
0.0907758
0.0766458
0.0587006
0.128937
0.124859
0.119751
0.10555
0.0692043
0.0346241
0.017077
0.0117907
0.0162372
0.0277238
0.0423032
0.0562434
0.0673747
0.0752035
0.0802304
0.0832493
0.0849754
0.0859496
0.0865612
0.0870924
0.0877241
0.0885577
0.0896012
0.0907816
0.091948
0.09288
0.093321
0.0930143
0.091739
0.0893425
0.0857679
0.0810683
0.0754046
0.0690254
0.0622307
0.0553212
0.0485424
0.0420431
0.0358887
0.0301634
0.0251462
0.0214639
0.020079
0.0220377
0.0280535
0.0381362
0.0514706
0.0666169
0.0819291
0.0959922
0.107907
0.117356
0.124451
0.129376
0.131898
0.13101
0.125219
0.113921
0.0992842
0.0868079
0.0827729
0.0893278
0.101392
0.109404
0.106871
0.0962227
0.0870172
0.0880489
0.100746
0.119071
0.13488
0.143672
0.146294
0.146377
0.147018
0.149504
0.153949
0.159537
0.164772
0.166942
0.16419
0.155685
0.140104
0.119677
0.10094
0.0897603
0.0875311
0.0916199
0.0994414
0.110266
0.121764
0.130632
0.13635
0.138565
0.135286
0.123524
0.105175
0.0859967
0.0730982
0.057069
0.139376
0.136089
0.131895
0.11916
0.0707866
0.027715
0.017351
0.0239958
0.0384254
0.0544041
0.0682036
0.0784629
0.0853578
0.0896795
0.0922559
0.0937278
0.09453
0.0949435
0.0951516
0.0952705
0.0953717
0.0954894
0.0955997
0.0956307
0.0954617
0.0949284
0.0938428
0.0920209
0.0893127
0.085631
0.0809707
0.0754178
0.0691451
0.0623938
0.0554417
0.0485598