/*--------------------------------*- C++ -*----------------------------------*\
  =========                 |
  \\      /  F ield         | OpenFOAM: The Open Source CFD Toolbox
   \\    /   O peration     | Website:  https://openfoam.org
    \\  /    A nd           | Version:  10
     \\/     M anipulation  |
\*---------------------------------------------------------------------------*/
FoamFile
{
    format      ascii;
    class       volScalarField;
    location    "0.195";
    object      p;
}
// * * * * * * * * * * * * * * * * * * * * * * * * * * * * * * * * * * * * * //

dimensions      [0 2 -2 0 0 0 0];

internalField   nonuniform List<scalar> 
6820
(
-9.69596
-9.99804
-10.0429
-10.057
-10.0868
-10.1086
-10.1227
-10.1336
-10.1415
-10.1463
-10.1482
-10.1472
-10.1431
-10.1358
-10.125
-10.1103
-10.0911
-10.0669
-10.0368
-9.99983
-9.9548
-9.90016
-9.83401
-9.754
-9.65714
-9.53978
-9.39734
-9.22444
-9.01425
-8.76037
-8.45479
-8.09052
-7.69705
-9.89753
-10.0221
-10.0576
-10.0716
-10.0955
-10.1143
-10.1269
-10.1368
-10.1441
-10.1486
-10.1503
-10.1493
-10.1453
-10.1383
-10.1278
-10.1135
-10.095
-10.0715
-10.0424
-10.0068
-9.96354
-9.91122
-9.84816
-9.77224
-9.68091
-9.571
-9.43865
-9.27944
-9.08777
-8.85939
-8.58628
-8.28126
-7.93336
-9.89761
-9.98263
-10.0401
-10.0652
-10.0913
-10.1129
-10.1279
-10.1393
-10.1478
-10.1533
-10.1559
-10.1557
-10.1525
-10.1462
-10.1366
-10.1233
-10.106
-10.084
-10.0569
-10.0238
-9.98385
-9.936
-9.87901
-9.81147
-9.73176
-9.63816
-9.52896
-9.4028
-9.25929
-9.10024
-8.93399
-8.77648
-8.69077
-9.95482
-10.0243
-10.0712
-10.09
-10.1096
-10.1272
-10.1396
-10.149
-10.156
-10.1604
-10.1622
-10.1614
-10.158
-10.1517
-10.1422
-10.1293
-10.1127
-10.0917
-10.066
-10.0348
-9.99753
-9.95324
-9.90106
-9.84005
-9.76926
-9.68795
-9.5958
-9.49344
-9.38349
-9.27174
-9.17223
-9.10563
-9.13285
-9.98525
-10.0237
-10.0618
-10.0834
-10.1043
-10.1232
-10.1373
-10.1482
-10.1564
-10.162
-10.165
-10.1653
-10.1629
-10.1577
-10.1495
-10.1379
-10.1228
-10.1038
-10.0803
-10.0521
-10.0184
-9.97875
-9.93264
-9.8796
-9.81935
-9.75204
-9.67859
-9.60116
-9.52442
-9.45617
-9.41232
-9.41273
-9.50694
-10.0157
-10.0462
-10.0826
-10.1046
-10.123
-10.1394
-10.1519
-10.1613
-10.1684
-10.1731
-10.1755
-10.1754
-10.1729
-10.1678
-10.1599
-10.1491
-10.135
-10.1174
-10.096
-10.0704
-10.0403
-10.0053
-9.96527
-9.92019
-9.87035
-9.81663
-9.76083
-9.70621
-9.65849
-9.62631
-9.62496
-9.67216
-9.80518
-10.0415
-10.0611
-10.0888
-10.1076
-10.124
-10.1394
-10.1519
-10.1618
-10.1695
-10.175
-10.1782
-10.1791
-10.1777
-10.1739
-10.1675
-10.1584
-10.1463
-10.1311
-10.1125
-10.0904
-10.0646
-10.0351
-10.0019
-9.96549
-9.92658
-9.88663
-9.8481
-9.81482
-9.79289
-9.7908
-9.82196
-9.90086
-10.0538
-10.0646
-10.0789
-10.1031
-10.1221
-10.1382
-10.153
-10.165
-10.1745
-10.1819
-10.1871
-10.1902
-10.1913
-10.1902
-10.1868
-10.1812
-10.1731
-10.1625
-10.1492
-10.1331
-10.1142
-10.0925
-10.0682
-10.0416
-10.0135
-9.98482
-9.95755
-9.93443
-9.91949
-9.91863
-9.93953
-9.99323
-10.0908
-10.2502
-10.0857
-10.0959
-10.1152
-10.1315
-10.1455
-10.1585
-10.1697
-10.1788
-10.1862
-10.1917
-10.1953
-10.1971
-10.197
-10.1948
-10.1907
-10.1844
-10.1759
-10.1652
-10.1523
-10.1373
-10.1203
-10.1016
-10.0819
-10.0621
-10.0435
-10.0282
-10.019
-10.0199
-10.0362
-10.0744
-10.1431
-10.2504
-10.4077
-10.1052
-10.1128
-10.1289
-10.1439
-10.1573
-10.1699
-10.181
-10.1902
-10.1977
-10.2034
-10.2074
-10.2097
-10.2103
-10.2091
-10.206
-10.2013
-10.1947
-10.1863
-10.1763
-10.1648
-10.1522
-10.1388
-10.1255
-10.1134
-10.1038
-10.0989
-10.1014
-10.115
-10.1442
-10.1943
-10.2717
-10.3817
-10.5313
-10.1235
-10.1293
-10.1425
-10.1557
-10.1677
-10.179
-10.1892
-10.1979
-10.2052
-10.211
-10.2155
-10.2184
-10.2198
-10.2198
-10.2183
-10.2153
-10.2109
-10.2052
-10.1984
-10.1908
-10.1827
-10.1747
-10.1677
-10.1629
-10.1616
-10.166
-10.1786
-10.2024
-10.2413
-10.2993
-10.3808
-10.4892
-10.6283
-10.1409
-10.1454
-10.1564
-10.1682
-10.1793
-10.1901
-10.2001
-10.2088
-10.2164
-10.2226
-10.2276
-10.2313
-10.2337
-10.2349
-10.2348
-10.2336
-10.2314
-10.2282
-10.2245
-10.2204
-10.2166
-10.2136
-10.2123
-10.2139
-10.2198
-10.2319
-10.2524
-10.2839
-10.3294
-10.3917
-10.4739
-10.5777
-10.7048
-10.1575
-10.1612
-10.1703
-10.1808
-10.191
-10.2009
-10.2103
-10.2188
-10.2262
-10.2327
-10.2381
-10.2424
-10.2458
-10.2481
-10.2495
-10.2502
-10.2501
-10.2496
-10.2489
-10.2484
-10.2487
-10.2505
-10.2545
-10.2619
-10.2742
-10.2928
-10.3196
-10.3568
-10.4065
-10.4709
-10.5515
-10.6493
-10.7644
-10.1736
-10.1766
-10.1844
-10.1937
-10.2031
-10.2125
-10.2217
-10.2301
-10.2378
-10.2447
-10.2508
-10.256
-10.2604
-10.264
-10.267
-10.2695
-10.2717
-10.2737
-10.276
-10.2789
-10.2831
-10.2891
-10.2978
-10.3102
-10.3277
-10.3514
-10.383
-10.424
-10.476
-10.5404
-10.618
-10.7089
-10.8126
-10.1891
-10.1917
-10.1984
-10.2068
-10.2155
-10.2244
-10.2331
-10.2415
-10.2493
-10.2565
-10.263
-10.269
-10.2743
-10.2792
-10.2837
-10.288
-10.2922
-10.2967
-10.3018
-10.3079
-10.3156
-10.3254
-10.3383
-10.3551
-10.3768
-10.4046
-10.4397
-10.4832
-10.5362
-10.5995
-10.6733
-10.7573
-10.8506
-10.2043
-10.2065
-10.2124
-10.2199
-10.2281
-10.2366
-10.2451
-10.2535
-10.2616
-10.2692
-10.2764
-10.2832
-10.2897
-10.2959
-10.302
-10.3081
-10.3144
-10.3213
-10.329
-10.3381
-10.349
-10.3623
-10.3787
-10.3991
-10.4242
-10.4551
-10.4925
-10.5373
-10.5902
-10.6515
-10.7211
-10.7985
-10.8826
-10.2191
-10.221
-10.2263
-10.2332
-10.2409
-10.249
-10.2574
-10.2658
-10.2741
-10.2821
-10.2899
-10.2975
-10.305
-10.3124
-10.3199
-10.3277
-10.336
-10.3451
-10.3552
-10.3669
-10.3807
-10.3969
-10.4164
-10.4396
-10.4675
-10.5005
-10.5394
-10.5847
-10.6368
-10.6957
-10.7612
-10.8326
-10.9087
-10.2335
-10.2353
-10.2401
-10.2465
-10.2538
-10.2617
-10.27
-10.2785
-10.2871
-10.2956
-10.3041
-10.3125
-10.321
-10.3297
-10.3387
-10.3482
-10.3583
-10.3694
-10.3819
-10.396
-10.4122
-10.431
-10.4529
-10.4785
-10.5083
-10.5429
-10.5826
-10.6277
-10.6785
-10.7349
-10.7963
-10.8622
-10.9316
-10.2477
-10.2494
-10.2538
-10.2598
-10.2668
-10.2746
-10.2829
-10.2915
-10.3003
-10.3093
-10.3184
-10.3277
-10.3372
-10.347
-10.3573
-10.3683
-10.3801
-10.3931
-10.4075
-10.4237
-10.4421
-10.463
-10.4869
-10.5143
-10.5455
-10.5809
-10.6208
-10.6654
-10.7147
-10.7684
-10.8262
-10.8873
-10.9509
-10.2617
-10.2632
-10.2673
-10.2731
-10.2799
-10.2875
-10.2959
-10.3046
-10.3138
-10.3232
-10.333
-10.3431
-10.3536
-10.3646
-10.3762
-10.3886
-10.402
-10.4167
-10.4329
-10.4509
-10.471
-10.4937
-10.5192
-10.5479
-10.58
-10.6159
-10.6557
-10.6994
-10.7469
-10.7981
-10.8524
-10.9093
-10.9681
-10.2753
-10.2767
-10.2807
-10.2863
-10.2929
-10.3006
-10.3089
-10.3179
-10.3274
-10.3374
-10.3478
-10.3586
-10.37
-10.382
-10.3948
-10.4086
-10.4234
-10.4395
-10.4572
-10.4768
-10.4984
-10.5224
-10.5491
-10.5787
-10.6113
-10.6473
-10.6866
-10.7292
-10.775
-10.8237
-10.875
-10.9282
-10.983
-10.2886
-10.29
-10.2939
-10.2993
-10.3059
-10.3135
-10.322
-10.3313
-10.3411
-10.3516
-10.3626
-10.3742
-10.3864
-10.3994
-10.4133
-10.4282
-10.4443
-10.4617
-10.4807
-10.5015
-10.5243
-10.5494
-10.5769
-10.607
-10.6399
-10.6757
-10.7143
-10.7556
-10.7997
-10.8461
-10.8945
-10.9446
-10.9959
-10.3016
-10.303
-10.3068
-10.3122
-10.3188
-10.3265
-10.3351
-10.3446
-10.3548
-10.3657
-10.3774
-10.3897
-10.4027
-10.4167
-10.4315
-10.4475
-10.4646
-10.4832
-10.5032
-10.5251
-10.5488
-10.5746
-10.6027
-10.6331
-10.6659
-10.7012
-10.7389
-10.779
-10.8213
-10.8655
-10.9114
-10.9587
-11.0069
-10.3143
-10.3157
-10.3194
-10.3248
-10.3314
-10.3392
-10.348
-10.3578
-10.3684
-10.3798
-10.3919
-10.4049
-10.4187
-10.4334
-10.4491
-10.466
-10.484
-10.5035
-10.5244
-10.547
-10.5714
-10.5977
-10.6261
-10.6565
-10.689
-10.7237
-10.7604
-10.7992
-10.8397
-10.8819
-10.9254
-10.97
-11.0155
-10.3266
-10.3279
-10.3317
-10.3371
-10.3438
-10.3517
-10.3608
-10.3709
-10.3818
-10.3937
-10.4064
-10.42
-10.4345
-10.45
-10.4665
-10.4841
-10.5029
-10.5231
-10.5448
-10.568
-10.5928
-10.6194
-10.6478
-10.6781
-10.7102
-10.7441
-10.7798
-10.8171
-10.856
-10.8962
-10.9375
-10.9798
-11.0227
-10.3384
-10.3397
-10.3435
-10.349
-10.3558
-10.3639
-10.3732
-10.3835
-10.3949
-10.4071
-10.4203
-10.4344
-10.4495
-10.4656
-10.4827
-10.5009
-10.5204
-10.5412
-10.5633
-10.5868
-10.6119
-10.6386
-10.6668
-10.6967
-10.7282
-10.7612
-10.7958
-10.8317
-10.8688
-10.9071
-10.9463
-10.9863
-11.0269
-10.3496
-10.351
-10.3549
-10.3605
-10.3675
-10.3758
-10.3854
-10.396
-10.4078
-10.4205
-10.4342
-10.4488
-10.4645
-10.4811
-10.4988
-10.5176
-10.5376
-10.5588
-10.5813
-10.6051
-10.6303
-10.6569
-10.6849
-10.7143
-10.7451
-10.7772
-10.8105
-10.845
-10.8805
-10.9169
-10.9541
-10.9919
-11.0303
-10.3603
-10.3617
-10.3657
-10.3714
-10.3785
-10.387
-10.3968
-10.4077
-10.4198
-10.4328
-10.4469
-10.4619
-10.478
-10.4951
-10.5132
-10.5324
-10.5527
-10.5741
-10.5968
-10.6206
-10.6457
-10.6721
-10.6996
-10.7284
-10.7584
-10.7894
-10.8215
-10.8545
-10.8884
-10.9229
-10.9581
-10.9938
-11.0299
-10.3703
-10.3718
-10.3758
-10.3818
-10.3891
-10.398
-10.4081
-10.4195
-10.4319
-10.4454
-10.46
-10.4755
-10.492
-10.5095
-10.528
-10.5475
-10.5681
-10.5898
-10.6125
-10.6364
-10.6613
-10.6873
-10.7144
-10.7425
-10.7715
-10.8015
-10.8323
-10.8639
-10.8961
-10.9289
-10.9621
-10.9957
-11.0295
-10.3794
-10.3809
-10.3851
-10.3911
-10.3987
-10.4077
-10.418
-10.4295
-10.4422
-10.456
-10.4708
-10.4866
-10.5034
-10.5212
-10.5399
-10.5596
-10.5803
-10.602
-10.6247
-10.6484
-10.673
-10.6986
-10.725
-10.7523
-10.7804
-10.8093
-10.8387
-10.8688
-10.8994
-10.9303
-10.9616
-10.9931
-11.0247
-10.3877
-10.3893
-10.3938
-10.4002
-10.4082
-10.4177
-10.4285
-10.4405
-10.4537
-10.4679
-10.4831
-10.4993
-10.5164
-10.5344
-10.5534
-10.5733
-10.5941
-10.6158
-10.6383
-10.6617
-10.686
-10.711
-10.7368
-10.7633
-10.7904
-10.8181
-10.8463
-10.875
-10.9039
-10.9331
-10.9625
-10.9919
-11.0214
-10.3947
-10.3963
-10.4008
-10.4073
-10.4153
-10.4249
-10.4359
-10.4481
-10.4615
-10.4759
-10.4913
-10.5077
-10.5251
-10.5433
-10.5624
-10.5824
-10.6032
-10.6247
-10.6471
-10.6702
-10.6941
-10.7185
-10.7436
-10.7692
-10.7954
-10.8219
-10.8487
-10.8759
-10.9032
-10.9306
-10.958
-10.9855
-11.0128
-10.4007
-10.4028
-10.408
-10.4153
-10.4241
-10.4343
-10.4459
-10.4586
-10.4724
-10.4872
-10.503
-10.5196
-10.5371
-10.5554
-10.5746
-10.5945
-10.6152
-10.6366
-10.6587
-10.6814
-10.7047
-10.7286
-10.7529
-10.7777
-10.8028
-10.8282
-10.8539
-10.8796
-10.9054
-10.9312
-10.9569
-10.9824
-11.0077
-10.4045
-10.406
-10.411
-10.4183
-10.4272
-10.4377
-10.4495
-10.4625
-10.4766
-10.4918
-10.5079
-10.5248
-10.5426
-10.5611
-10.5804
-10.6004
-10.6211
-10.6423
-10.6642
-10.6866
-10.7095
-10.7327
-10.7564
-10.7803
-10.8044
-10.8286
-10.8529
-10.8772
-10.9015
-10.9255
-10.9494
-10.973
-10.9962
-10.4083
-10.4116
-10.4183
-10.4265
-10.4362
-10.4474
-10.4598
-10.4732
-10.4876
-10.5028
-10.5189
-10.5357
-10.5534
-10.5719
-10.591
-10.6108
-10.6312
-10.6522
-10.6736
-10.6956
-10.7179
-10.7406
-10.7635
-10.7866
-10.8098
-10.8331
-10.8564
-10.8795
-10.9025
-10.9252
-10.9476
-10.9695
-10.991
-10.4051
-10.4068
-10.4134
-10.4228
-10.4333
-10.4452
-10.4582
-10.4722
-10.4874
-10.5037
-10.5204
-10.5378
-10.5559
-10.5746
-10.594
-10.6139
-10.6343
-10.6552
-10.6765
-10.6981
-10.72
-10.7421
-10.7643
-10.7866
-10.8088
-10.831
-10.853
-10.8748
-10.8962
-10.9173
-10.938
-10.9581
-10.9777
-10.4083
-10.4146
-10.4242
-10.4341
-10.4449
-10.4569
-10.4699
-10.4837
-10.4982
-10.5133
-10.5296
-10.5467
-10.5645
-10.583
-10.6021
-10.6217
-10.6419
-10.6623
-10.6832
-10.7044
-10.7259
-10.7476
-10.7693
-10.7911
-10.8128
-10.8344
-10.8558
-10.8769
-10.8974
-10.9176
-10.9374
-10.9565
-10.9749
-10.3888
-10.3937
-10.4067
-10.4197
-10.4332
-10.4477
-10.4628
-10.4784
-10.4945
-10.5112
-10.5287
-10.5466
-10.565
-10.5839
-10.6033
-10.623
-10.6431
-10.6638
-10.6845
-10.7054
-10.7264
-10.7475
-10.7685
-10.7894
-10.8101
-10.8306
-10.8507
-10.8704
-10.8898
-10.9085
-10.9265
-10.944
-10.9607
-10.4027
-10.4132
-10.425
-10.4352
-10.4469
-10.4597
-10.473
-10.4872
-10.5022
-10.5179
-10.5344
-10.5516
-10.5695
-10.5881
-10.6071
-10.6267
-10.6467
-10.6671
-10.6877
-10.7086
-10.7296
-10.7507
-10.7717
-10.7927
-10.8135
-10.834
-10.8543
-10.8741
-10.8934
-10.9121
-10.9302
-10.9475
-10.964
-10.3048
-10.3722
-10.399
-10.4138
-10.4324
-10.4503
-10.4668
-10.4833
-10.5001
-10.5172
-10.5347
-10.5526
-10.571
-10.5898
-10.609
-10.6285
-10.6483
-10.6683
-10.6886
-10.7088
-10.7292
-10.7494
-10.7695
-10.7894
-10.809
-10.8282
-10.847
-10.8653
-10.8829
-10.8998
-10.916
-10.9314
-10.9458
-7.12707
-8.5026
-10.4012
-13.6101
-18.3191
-23.381
-26.0346
-23.5139
-15.6405
-6.357
0.00613705
2.4578
1.66159
-1.60411
-6.51516
-12.3047
-18.5244
-24.7689
-30.733
-36.2291
-41.08
-45.046
-47.8327
-49.1861
-48.9382
-47.1066
-43.9564
-39.9094
-35.3415
-30.4931
-25.5712
-20.861
-16.6425
-13.0482
-10.0727
-7.64652
-5.6891
-4.12595
-2.89012
-1.9226
-1.1729
-0.598737
-0.165215
0.156252
0.388922
0.551622
0.659551
0.724942
0.757585
0.765305
0.75438
0.729858
0.695818
0.655628
0.611825
0.566221
0.519895
0.472874
0.422195
0.361859
0.279135
0.155921
-0.0176163
-0.240293
-0.530043
-0.947156
-1.63614
-2.79189
-4.87116
-8.63711
-14.3061
-21.9159
-31.6028
-42.5529
-52.9801
-60.713
-64.1028
-62.4052
-55.5968
-45.3047
-34.2352
-24.9939
-18.8774
-16.1258
-16.0588
-17.2368
-18.1463
-17.8636
-16.2425
-13.7523
-11.0288
-8.44688
-5.98287
-3.64373
-1.80651
-0.719962
-0.217384
-0.0237576
0.0770164
0.018185
-7.80702
-8.92994
-10.6179
-13.5787
-17.8632
-22.1962
-24.0121
-21.2667
-14.4214
-6.84999
-1.67798
0.577048
0.0171546
-2.69605
-6.91503
-12.1084
-17.7874
-23.5928
-29.2218
-34.4376
-39.0274
-42.7528
-45.3529
-46.6054
-46.3665
-44.6818
-41.811
-38.1078
-33.8589
-29.28
-24.621
-20.199
-16.2558
-12.8808
-10.058
-7.72981
-5.83183
-4.30179
-3.08106
-2.1166
-1.3622
-0.778617
-0.332998
0.0018367
0.248221
0.424402
0.54521
0.622662
0.666467
0.684439
0.682872
0.666842
0.640479
0.607157
0.569417
0.529087
0.487118
0.443511
0.395467
0.337245
0.256593
0.134913
-0.039851
-0.268563
-0.567679
-0.99357
-1.6855
-2.83506
-4.86487
-8.52289
-14.104
-21.6698
-31.2879
-42.1382
-52.4644
-60.1402
-63.5563
-61.9973
-55.3991
-45.3464
-34.5249
-25.4966
-19.4979
-16.6722
-16.3312
-17.1625
-17.8014
-17.3956
-15.7946
-13.4187
-10.8501
-8.42994
-6.1115
-3.86169
-2.03448
-0.904252
-0.349367
-0.11314
0.0301055
-0.00332652
-8.74812
-9.64097
-11.203
-13.6873
-16.983
-19.965
-20.8309
-18.362
-13.0922
-7.33221
-3.26687
-1.475
-1.75498
-3.9351
-7.54517
-12.1379
-17.2578
-22.5483
-27.7452
-32.6091
-36.903
-40.3806
-42.7942
-43.9453
-43.7346
-42.2305
-39.6588
-36.2828
-32.324
-28.0096
-23.6421
-19.5334
-15.8704
-12.7096
-10.0345
-7.80285
-5.96551
-4.47066
-3.2672
-2.30775
-1.55027
-0.958528
-0.50177
-0.154259
0.105365
0.294715
0.428231
0.51769
0.572663
0.60092
0.608758
0.601267
0.582609
0.556151
0.524437
0.489301
0.451604
0.411289
0.365739
0.30935
0.230293
0.109849
-0.0660434
-0.300401
-0.609113
-1.04483
-1.74042
-2.88352
-4.86336
-8.40185
-13.8603
-21.331
-30.827
-41.5231
-51.6995
-59.2883
-62.7225
-61.3117
-54.9603
-45.2076
-34.6999
-25.9337
-20.0782
-17.1951
-16.6007
-17.1057
-17.4853
-16.9558
-15.3665
-13.0917
-10.6659
-8.39939
-6.22378
-4.06563
-2.25249
-1.0831
-0.477813
-0.201093
-0.0162538
-0.0253662
-9.31206
-10.0928
-11.4234
-13.3165
-15.6118
-17.5794
-18.0908
-16.1891
-12.247
-7.84622
-4.58965
-3.11112
-3.32367
-5.13115
-8.24508
-12.2917
-16.8778
-21.6606
-26.3821
-30.8267
-34.7701
-37.9726
-40.1902
-41.2577
-41.1156
-39.8256
-37.5399
-34.4416
-30.7386
-26.7038
-22.664
-18.8814
-15.4913
-12.5335
-10.0003
-7.8647
-6.08956
-4.63202
-3.44796
-2.49545
-1.73656
-1.13799
-0.67113
-0.311707
-0.0393823
0.162776
0.308771
0.410118
0.476233
0.514801
0.53209
0.533204
0.522311
0.502752
0.477074
0.447103
0.413607
0.376405
0.333069
0.278194
0.200519
0.0815262
-0.094923
-0.334393
-0.65268
-1.0988
-1.79838
-2.93399
-4.86166
-8.26652
-13.5649
-20.8857
-30.2027
-40.6893
-50.6702
-58.1459
-61.5925
-60.3396
-54.2715
-44.8807
-34.7539
-26.2995
-20.6131
-17.6903
-16.8639
-17.0632
-17.1951
-16.543
-14.9574
-12.7712
-10.4755
-8.35327
-6.31677
-4.25293
-2.45868
-1.25569
-0.602571
-0.287267
-0.061793
-0.0474588
-9.75043
-10.4326
-11.5427
-13.0257
-14.7198
-16.0947
-16.3078
-14.7505
-11.7074
-8.29411
-5.68594
-4.46155
-4.66112
-6.20957
-8.90897
-12.4702
-16.5692
-20.8893
-25.167
-29.189
-32.7544
-35.6535
-37.68
-38.7005
-38.6441
-37.5328
-35.4549
-32.5697
-29.1158
-25.3983
-21.7103
-18.25
-15.1183
-12.3522
-9.95612
-7.91587
-6.20404
-4.7856
-3.62292
-2.67926
-1.92061
-1.3166
-0.84072
-0.470208
-0.185783
0.0287692
0.186974
0.300041
0.377213
0.426069
0.45282
0.462554
0.459421
0.446738
0.427046
0.402146
0.372762
0.338569
0.297279
0.243661
0.167083
0.0495686
-0.126855
-0.370699
-0.69806
-1.1546
-1.85792
-2.98417
-4.85696
-8.11518
-13.2165
-20.3312
-29.4096
-39.6318
-49.3735
-56.71
-60.1606
-59.073
-53.3241
-44.3578
-34.6794
-26.5868
-21.0964
-18.1526
-17.1164
-17.0317
-16.9286
-16.1555
-14.5664
-12.4567
-10.2792
-8.29188
-6.39016
-4.42247
-2.65204
-1.42069
-0.722962
-0.371146
-0.106369
-0.0696993
-10.0758
-10.6744
-11.5995
-12.7701
-14.0121
-14.9162
-14.9342
-13.6846
-11.3613
-8.73922
-6.687
-5.69503
-5.88154
-7.20562
-9.52995
-12.6393
-16.2743
-20.1612
-24.0416
-27.6941
-30.9237
-33.5465
-35.4002
-36.3675
-36.3355
-35.3014
-33.3497
-30.662
-27.4971
-24.1341
-20.7997
-17.6434
-14.7509
-12.1653
-9.90212
-7.95647
-6.3088
-4.93106
-3.79165
-2.85869
-2.10196
-1.49391
-1.01014
-0.629427
-0.33356
-0.107087
0.0630057
0.187591
0.275697
0.334777
0.370973
0.389327
0.393953
0.38814
0.374405
0.354514
0.329143
0.297818
0.258346
0.205692
0.129873
0.013701
-0.162201
-0.40952
-0.745209
-1.21191
-1.91859
-3.03364
-4.8499
-7.95255
-12.8236
-19.6754
-28.4518
-38.3523
-47.8102
-54.9796
-58.4244
-57.51
-52.1172
-43.6386
-34.4751
-26.7925
-21.5248
-18.5796
-17.356
-17.0092
-16.6838
-15.7921
-14.193
-12.1482
-10.0766
-8.21453
-6.44239
-4.57221
-2.83115
-1.57726
-0.838642
-0.452359
-0.149785
-0.0918424
-10.3269
-10.8473
-11.605
-12.5152
-13.4202
-14.0251
-13.9532
-12.9514
-11.1664
-9.15375
-7.55805
-6.78396
-6.97259
-8.11934
-10.1198
-12.8127
-15.9939
-19.4415
-22.9294
-26.2408
-29.1778
-31.565
-33.2471
-34.089
-34.0112
-33.0154
-31.2068
-28.7731
-25.9457
-22.9434
-19.9396
-17.0599
-14.3879
-11.9733
-9.83913
-7.98695
-6.40389
-5.0682
-3.9538
-3.03333
-2.28015
-1.66949
-1.17902
-0.789027
-0.482433
-0.244566
-0.0629585
0.0728913
0.171768
0.240974
0.286553
0.313483
0.325832
0.326844
0.319
0.304014
0.282548
0.25399
0.216176
0.164249
0.088869
-0.0261642
-0.201128
-0.450874
-0.793793
-1.26996
-1.97938
-3.08144
-4.8401
-7.78205
-12.3949
-18.9293
-27.3375
-36.8564
-45.9844
-52.9582
-56.3859
-55.6542
-50.6566
-42.7289
-34.1438
-26.9163
-21.8963
-18.9693
-17.5814
-16.9941
-16.4596
-15.4523
-13.8367
-11.8458
-9.86776
-8.12109
-6.47262
-4.70069
-2.99448
-1.72425
-0.948912
-0.530456
-0.191873
-0.113848
-10.5114
-10.9595
-11.5743
-12.2787
-12.9379
-13.3337
-13.2104
-12.4125
-11.0561
-9.5346
-8.3206
-7.74245
-7.94233
-8.94225
-10.671
-12.9974
-15.7571
-18.7672
-21.839
-24.7822
-27.4088
-29.5425
-31.0193
-31.7338
-31.633
-30.733
-29.1348
-26.9995
-24.5098
-21.8368
-19.1271
-16.4967
-14.0292
-11.7774
-9.76796
-8.00769
-6.48937
-5.19685
-4.10903
-3.20275
-2.45475
-1.84292
-1.34694
-0.948656
-0.632101
-0.383419
-0.190722
-0.0439071
0.0655363
0.144731
0.199601
0.235044
0.255065
0.262853
0.260836
0.250669
0.232991
0.207075
0.170754
0.119335
0.0440703
-0.0701165
-0.243846
-0.494895
-0.843569
-1.32796
-2.03916
-3.12629
-4.82646
-7.60585
-11.9393
-18.1082
-26.0821
-35.1566
-43.9072
-50.656
-54.0556
-53.5187
-48.9577
-41.6422
-33.6941
-26.9617
-22.2118
-19.3217
-17.7921
-16.986
-16.2562
-15.1362
-13.4978
-11.5499
-9.65291
-8.01141
-6.47986
-4.80625
-3.14045
-1.86059
-1.0533
-0.605148
-0.232452
-0.13553
-10.6492
-11.0319
-11.5281
-12.0712
-12.5509
-12.8091
-12.6742
-12.0506
-11.0275
-9.88688
-8.97892
-8.5677
-8.78687
-9.66887
-11.1686
-13.182
-15.5711
-18.1806
-20.8482
-23.4093
-25.6994
-27.5586
-28.8467
-29.4745
-29.3963
-28.628
-27.2511
-25.3917
-23.1949
-20.8056
-18.3555
-15.9523
-13.676
-11.5787
-9.68945
-8.01914
-6.56538
-5.31692
-4.2571
-3.36661
-2.62536
-2.01377
-1.51352
-1.10796
-0.782254
-0.523386
-0.320071
-0.162639
-0.0428777
0.0461294
0.110166
0.154026
0.181638
0.196123
0.199844
0.194387
0.180375
0.156993
0.122045
0.0709604
-0.00447971
-0.118169
-0.290512
-0.541746
-0.89441
-1.38527
-2.09688
-3.16709
-4.80804
-7.42618
-11.4676
-17.2319
-24.7121
-33.2769
-41.5999
-48.0945
-51.4583
-51.1291
-47.0466
-40.4003
-33.1398
-26.935
-22.4745
-19.6387
-17.9896
-16.9864
-16.0748
-14.8443
-13.1767
-11.2609
-9.4328
-7.88561
-6.46352
-4.88758
-3.26765
-1.98505
-1.15121
-0.67611
-0.271346
-0.156768
-10.7495
-11.0741
-11.4733
-11.8917
-12.2422
-12.4109
-12.2824
-11.8011
-11.0386
-10.1994
-9.54158
-9.27356
-9.51362
-10.2996
-11.6043
-13.3486
-15.4179
-17.6788
-19.9892
-22.2052
-24.1845
-25.7944
-26.9199
-27.4759
-27.4185
-26.7607
-25.5649
-23.931
-21.9803
-19.8384
-17.6217
-15.4275
-13.3294
-11.3783
-9.60436
-8.02175
-6.63212
-5.42836
-4.39779
-3.52457
-2.79158
-2.18165
-1.67836
-1.26657
-0.932567
-0.664186
-0.450774
-0.283117
-0.153328
-0.0547218
0.0183222
0.0704786
0.10558
0.126671
0.136036
0.135181
0.124705
0.103758
0.0700735
0.0191605
-0.0566995
-0.170257
-0.341214
-0.591595
-0.946268
-1.44134
-2.15153
-3.20275
-4.78393
-7.24475
-10.9903
-16.3231
-23.2632
-31.2548
-39.0969
-45.3063
-48.638
-48.5311
-44.9632
-39.0331
-32.4985
-26.8458
-22.6893
-19.9238
-18.1768
-16.9974
-15.9171
-14.578
-12.8745
-10.9796
-9.20814
-7.744
-6.42326
-4.94364
-3.37494
-2.09677
-1.2421
-0.743
-0.308377
-0.177365
-10.8227
-11.0969
-11.4184
-11.7421
-12.001
-12.1139
-12.0046
-11.643
-11.0859
-10.4825
-10.0234
-9.87218
-10.1304
-10.8368
-11.9757
-13.4869
-15.2775
-17.2347
-19.2355
-21.154
-22.8666
-24.2597
-25.2331
-25.7121
-25.6598
-25.0844
-24.0337
-22.5892
-20.8526
-18.9312
-16.9258
-14.9231
-12.9907
-11.1771
-9.51346
-8.01608
-6.68985
-5.53122
-4.53095
-3.67637
-2.95308
-2.34617
-1.84109
-1.42413
-1.08271
-0.805528
-0.582582
-0.405135
-0.265651
-0.157696
-0.0758364
-0.0155357
0.0269288
0.0545117
0.0694053
0.0730383
0.0659838
0.0473632
0.0148372
-0.0360152
-0.112475
-0.226251
-0.395957
-0.644604
-0.999202
-1.49581
-2.20221
-3.23224
-4.75318
-7.0625
-10.517
-15.4059
-21.7749
-29.144
-36.4517
-42.3394
-45.6363
-45.7727
-42.7535
-37.5766
-31.7919
-26.7058
-22.8627
-20.1821
-18.358
-17.0229
-15.7859
-14.3393
-12.5926
-10.7072
-8.97983
-7.58715
-6.35913
-4.97384
-3.46143
-2.19527
-1.32541
-0.805442
-0.343377
-0.197141
-10.8762
-11.1075
-11.3673
-11.6198
-11.8146
-11.8945
-11.81
-11.5463
-11.1498
-10.7303
-10.4291
-10.3732
-10.6468
-11.2862
-12.2835
-13.5929
-15.1394
-16.8288
-18.5562
-20.2122
-21.6895
-22.8878
-23.7217
-24.1283
-24.0749
-23.5649
-22.6364
-21.3558
-19.8075
-18.0822
-16.2674
-14.4394
-12.6603
-10.9761
-9.41755
-8.0027
-6.73891
-5.62559
-4.65649
-3.82177
-3.10953
-2.50698
-2.00132
-1.58026
-1.23234
-0.947107
-0.715229
-0.528467
-0.379658
-0.262641
-0.172189
-0.103921
-0.0542408
-0.0202952
6.03217e-06
0.00802373
0.00427953
-0.0121512
-0.0436213
-0.0944771
-0.171659
-0.285952
-0.454647
-0.700898
-1.05337
-1.54849
-2.24823
-3.25463
-4.71487
-6.87961
-10.0547
-14.5035
-20.2879
-27.0091
-33.7396
-39.2686
-42.4946
-42.9039
-40.4708
-36.0719
-31.0456
-26.528
-23.0022
-20.4197
-18.5388
-17.0675
-15.6849
-14.1311
-12.3332
-10.4453
-8.74904
-7.41596
-6.27157
-4.978
-3.52658
-2.28003
-1.40068
-0.863097
-0.376213
-0.215878
-10.915
-11.1107
-11.3224
-11.5225
-11.6736
-11.736
-11.6785
-11.4958
-11.2253
-10.9486
-10.7708
-10.7894
-11.0732
-11.6546
-12.5303
-13.6652
-14.9988
-16.4528
-17.9379
-19.3605
-20.6276
-21.6525
-22.3626
-22.7027
-22.6438
-22.187
-21.3624
-20.2234
-18.8401
-17.2889
-15.6451
-13.9765
-12.3392
-10.776
-9.31746
-7.98225
-6.7797
-5.71163
-4.77438
-3.9606
-3.26065
-2.66373
-2.1587
-1.73461
-1.38111
-1.0886
-0.848431
-0.652867
-0.495137
-0.36938
-0.270589
-0.194559
-0.137831
-0.0976708
-0.0720907
-0.0598072
-0.0603635
-0.0747153
-0.105205
-0.156105
-0.234074
-0.349108
-0.517082
-0.760524
-1.10899
-1.59944
-2.28916
-3.2692
-4.6682
-6.69572
-9.60805
-13.6345
-18.8424
-24.9111
-31.0465
-36.1877
-39.339
-40.0238
-38.1891
-34.5642
-30.2852
-26.3245
-23.1156
-20.6436
-18.7259
-17.1372
-15.6191
-13.9572
-12.099
-10.1957
-8.51722
-7.23166
-6.16147
-4.95646
-3.57017
-2.35057
-1.46748
-0.915644
-0.406786
-0.233355
-10.9447
-11.111
-11.2856
-11.4474
-11.5692
-11.6241
-11.5929
-11.4758
-11.3034
-11.1367
-11.0539
-11.1296
-11.4188
-11.949
-12.7197
-13.7037
-14.8522
-16.1001
-17.3724
-18.5888
-19.6699
-20.5412
-21.1399
-21.4184
-21.3514
-20.938
-20.2012
-19.1843
-17.945
-16.548
-15.058
-13.5344
-12.0277
-10.5779
-9.21401
-7.95539
-6.81265
-5.78956
-4.88464
-4.09273
-3.40621
-2.81613
-2.31288
-1.88683
-1.52868
-1.22969
-0.981889
-0.778065
-0.611854
-0.477707
-0.370859
-0.287295
-0.223709
-0.177496
-0.146772
-0.130345
-0.127833
-0.140211
-0.169793
-0.220755
-0.299519
-0.415423
-0.582958
-0.823416
-1.16631
-1.64895
-2.32493
-3.2755
-4.6125
-6.51
-9.17892
-12.8113
-17.4713
-22.9049
-28.452
-33.2022
-36.2795
-37.2305
-35.9743
-33.0945
-29.5315
-26.1061
-23.2112
-20.8619
-18.9274
-17.2394
-15.5946
-13.8224
-11.8936
-9.96092
-8.28615
-7.03549
-6.03018
-4.9101
-3.59241
-2.40658
-1.52547
-0.9628
-0.434982
-0.249344
-10.967
-11.1098
-11.2562
-11.3905
-11.4935
-11.5471
-11.5402
-11.4762
-11.3799
-11.2972
-11.2862
-11.4039
-11.6934
-12.1775
-12.8566
-13.7097
-14.6973
-15.7656
-16.8513
-17.8867
-18.8039
-19.539
-20.0381
-20.2605
-20.1836
-19.805
-19.1423
-18.2306
-17.1174
-15.857
-14.5049
-13.113
-11.7265
-10.3823
-9.10801
-7.9228
-6.83826
-5.85966
-4.98736
-4.21807
-3.54602
-2.96389
-2.46354
-2.03656
-1.67469
-1.37004
-1.11529
-0.903775
-0.729549
-0.58739
-0.472792
-0.381945
-0.311707
-0.259618
-0.223897
-0.203455
-0.197991
-0.20849
-0.237224
-0.288251
-0.367767
-0.484571
-0.651884
-0.889369
-1.22554
-1.69747
-2.35584
-3.27347
-4.54735
-6.32138
-8.76683
-12.0395
-16.1948
-21.0335
-26.02
-30.3922
-33.3903
-34.5886
-33.8756
-31.6934
-28.7995
-25.8822
-23.2973
-21.0836
-19.1526
-17.3827
-15.6185
-13.7322
-11.7209
-9.74366
-8.05782
-6.82873
-5.8796
-4.84036
-3.5939
-2.44799
-1.57439
-1.00431
-0.460677
-0.263624
-10.9856
-11.1095
-11.2347
-11.3496
-11.4408
-11.4966
-11.511
-11.4893
-11.4512
-11.4314
-11.4735
-11.6205
-11.9056
-12.3472
-12.946
-13.6854
-14.5331
-15.4449
-16.3678
-17.2446
-18.0176
-18.6327
-19.0434
-19.2148
-19.1268
-18.7762
-18.1764
-17.3554
-16.3525
-15.213
-13.9845
-12.7121
-11.4361
-10.1902
-9.00026
-7.88518
-6.85704
-5.92227
-5.08268
-4.33663
-3.67993
-3.10678
-2.61037
-2.18348
-1.81881
-1.5093
-1.2483
-1.02969
-0.847935
-0.698166
-0.576146
-0.478284
-0.401618
-0.343838
-0.303275
-0.278952
-0.270648
-0.279355
-0.307296
-0.358381
-0.438572
-0.556211
-0.723407
-0.958028
-1.28676
-1.74558
-2.38257
-3.26353
-4.47273
-6.12881
-8.36962
-11.3187
-15.0203
-19.3194
-23.7891
-27.8054
-30.7223
-32.1428
-31.9243
-30.378
-28.0992
-25.6607
-23.3825
-21.3189
-19.4125
-17.5774
-15.6994
-13.6932
-11.5858
-9.54715
-7.83451
-6.61361
-5.71214
-4.74926
-3.57571
-2.47498
-1.61411
-1.03998
-0.483763
-0.275991
-11.0007
-11.1098
-11.2192
-11.3205
-11.4047
-11.4644
-11.4971
-11.5083
-11.5142
-11.5409
-11.6211
-11.7868
-12.0637
-12.4657
-12.9936
-13.6337
-14.3599
-15.1356
-15.9167
-16.655
-17.3019
-17.8113
-18.1437
-18.269
-18.1696
-17.8416
-17.295
-16.5524
-15.6459
-14.6135
-13.4956
-12.3315
-11.1569
-10.0021
-8.89154
-7.84324
-6.86957
-5.97775
-5.1708
-4.44842
-3.80784
-3.24459
-2.75312
-2.32727
-1.9607
-1.64714
-1.38059
-1.15548
-0.966701
-0.809741
-0.680644
-0.576052
-0.493191
-0.429914
-0.384674
-0.356609
-0.345573
-0.352569
-0.379763
-0.430896
-0.511664
-0.629994
-0.797043
-1.02891
-1.34986
-1.79381
-2.4061
-3.24664
-4.38913
-5.93156
-7.98436
-10.644
-13.9445
-17.7654
-21.7722
-25.4634
-28.2984
-29.9104
-30.1308
-29.1549
-27.4367
-25.4483
-23.4759
-21.5794
-19.7195
-17.8349
-15.8471
-13.7131
-11.4937
-9.37505
-7.61872
-6.39295
-5.53058
-4.63906
-3.53925
-2.48799
-1.64459
-1.06963
-0.504152
-0.286251
-11.0145
-11.112
-11.2095
-11.3014
-11.3814
-11.4455
-11.493
-11.5295
-11.5678
-11.6278
-11.7338
-11.9098
-12.1749
-12.5397
-13.0043
-13.5576
-14.1782
-14.8357
-15.4935
-16.1111
-16.648
-17.0649
-17.3282
-17.4123
-17.3016
-16.9919
-16.4906
-15.8158
-14.9936
-14.056
-13.0372
-11.9711
-10.8892
-9.81885
-8.78261
-7.79771
-6.87642
-6.02653
-5.25195
-4.55352
-3.92969
-3.37716
-2.89152
-2.46762
-2.10001
-1.78319
-1.5118
-1.28079
-1.08551
-0.921787
-0.785972
-0.674944
-0.586132
-0.517557
-0.467807
-0.436137
-0.422477
-0.427839
-0.454328
-0.5055
-0.586749
-0.705577
-0.872317
-1.10143
-1.41453
-1.84257
-2.42758
-3.22425
-4.2977
-5.72947
-7.6081
-10.0086
-12.9565
-16.3594
-19.9593
-23.3598
-26.1141
-27.8874
-28.4915
-28.0232
-26.8144
-25.2512
-23.5878
-21.8787
-20.088
-18.1683
-16.0723
-13.8003
-11.4508
-9.23135
-7.41307
-6.1694
-5.33798
-4.51233
-3.48632
-2.48765
-1.66591
-1.09317
-0.521778
-0.294228
-11.0265
-11.1149
-11.2036
-11.2888
-11.3666
-11.4347
-11.4938
-11.549
-11.6105
-11.6934
-11.8157
-11.9952
-12.2459
-12.5756
-12.9837
-13.4609
-13.9895
-14.5445
-15.0954
-15.6087
-16.0494
-16.3854
-16.588
-16.6354
-16.5139
-16.219
-15.7563
-15.1401
-14.3919
-13.5381
-12.6078
-11.6303
-10.6332
-9.64091
-8.6742
-7.74929
-6.87823
-6.06907
-5.32644
-4.65208
-4.04547
-3.50437
-3.02536
-2.60426
-2.23644
-1.91712
-1.64157
-1.40527
-1.20399
-1.03395
-0.891775
-0.774613
-0.680098
-0.606429
-0.552339
-0.517204
-0.501029
-0.504834
-0.530657
-0.581863
-0.663503
-0.782618
-0.948779
-1.17501
-1.48026
-1.89196
-2.44809
-3.19819
-4.20031
-5.52324
-7.23865
-9.40517
-12.0424
-15.081
-18.3261
-21.4683
-24.1459
-26.0548
-26.9932
-26.9769
-26.2332
-25.076
-23.73
-22.232
-20.5334
-18.5921
-16.3877
-13.9647
-11.4643
-9.12053
-7.22027
-5.94565
-5.13726
-4.37213
-3.41899
-2.47484
-1.67828
-1.11054
-0.536588
-0.299752
-11.0377
-11.1188
-11.2009
-11.2813
-11.3576
-11.4289
-11.4966
-11.565
-11.6422
-11.7397
-11.8708
-12.0483
-12.2826
-12.5788
-12.9361
-13.3463
-13.7948
-14.2608
-14.719
-15.1415
-15.4992
-15.765
-15.9147
-15.9297
-15.798
-15.5154
-15.0858
-14.5205
-13.8371
-13.0576
-12.2065
-11.3089
-10.3891
-9.46887
-8.56699
-7.6987
-6.8756
-6.10587
-5.39461
-4.74428
-4.15522