/*--------------------------------*- C++ -*----------------------------------*\
  =========                 |
  \\      /  F ield         | OpenFOAM: The Open Source CFD Toolbox
   \\    /   O peration     | Website:  https://openfoam.org
    \\  /    A nd           | Version:  10
     \\/     M anipulation  |
\*---------------------------------------------------------------------------*/
FoamFile
{
    format      ascii;
    class       surfaceScalarField;
    location    "0.195";
    object      phi;
}
// * * * * * * * * * * * * * * * * * * * * * * * * * * * * * * * * * * * * * //

dimensions      [0 3 -1 0 0 0 0];

internalField   nonuniform List<scalar> 
13452
(
5.94524e-05
8.16078e-07
5.84701e-05
9.82247e-07
5.74461e-05
1.02399e-06
5.63931e-05
1.05309e-06
5.53392e-05
1.05389e-06
5.42959e-05
1.0433e-06
5.32666e-05
1.02928e-06
5.22531e-05
1.01345e-06
5.12563e-05
9.96839e-07
5.02761e-05
9.80188e-07
4.93122e-05
9.63878e-07
4.83641e-05
9.48158e-07
4.74308e-05
9.33233e-07
4.65115e-05
9.19296e-07
4.5605e-05
9.06557e-07
4.47097e-05
8.95271e-07
4.38239e-05
8.8576e-07
4.29455e-05
8.78444e-07
4.20716e-05
8.73872e-07
4.11989e-05
8.72768e-07
4.03228e-05
8.76092e-07
3.94376e-05
8.85124e-07
3.85361e-05
9.01585e-07
3.76083e-05
9.27799e-07
3.66413e-05
9.66937e-07
3.5618e-05
1.02332e-06
3.45151e-05
1.10295e-06
3.33009e-05
1.21414e-06
3.19331e-05
1.3678e-06
3.03497e-05
1.58341e-06
2.84788e-05
1.87088e-06
2.61582e-05
2.3206e-06
2.84857e-06
2.33097e-05
6.24899e-05
3.16526e-07
6.2965e-05
5.07111e-07
6.34118e-05
5.77243e-07
6.38208e-05
6.44047e-07
6.41848e-05
6.89912e-07
6.45035e-05
7.24556e-07
6.47786e-05
7.54262e-07
6.50122e-05
7.79809e-07
6.52071e-05
8.01982e-07
6.53656e-05
8.21645e-07
6.54901e-05
8.39384e-07
6.55826e-05
8.55669e-07
6.56449e-05
8.70948e-07
6.56785e-05
8.85661e-07
6.56848e-05
9.0027e-07
6.56648e-05
9.15292e-07
6.56192e-05
9.31334e-07
6.55485e-05
9.49137e-07
6.54527e-05
9.6963e-07
6.53315e-05
9.93997e-07
6.51838e-05
1.02378e-06
6.50079e-05
1.06103e-06
6.48011e-05
1.10844e-06
6.45592e-05
1.16971e-06
6.42762e-05
1.24986e-06
6.39437e-05
1.35581e-06
6.35493e-05
1.49735e-06
6.30757e-05
1.68782e-06
6.24959e-05
1.94754e-06
6.17766e-05
2.30268e-06
6.08497e-05
2.79786e-06
5.96778e-05
3.49247e-06
4.45461e-06
5.80718e-05
6.38343e-05
2.43614e-07
6.39096e-05
4.31854e-07
6.39781e-05
5.08714e-07
6.40492e-05
5.72927e-07
6.41221e-05
6.16998e-07
6.41989e-05
6.47795e-07
6.42805e-05
6.727e-07
6.43668e-05
6.93469e-07
6.44576e-05
7.11175e-07
6.45524e-05
7.26882e-07
6.46504e-05
7.41313e-07
6.47511e-05
7.55011e-07
6.48536e-05
7.68463e-07
6.49571e-05
7.82135e-07
6.50609e-05
7.96498e-07
6.51641e-05
8.12073e-07
6.5266e-05
8.29467e-07
6.53657e-05
8.49418e-07
6.54625e-05
8.72848e-07
6.55555e-05
9.00931e-07
6.56441e-05
9.35192e-07
6.57275e-05
9.77631e-07
6.58051e-05
1.03091e-06
6.58762e-05
1.09857e-06
6.59406e-05
1.18545e-06
6.59984e-05
1.29807e-06
6.60502e-05
1.44553e-06
6.60979e-05
1.64006e-06
6.61459e-05
1.89962e-06
6.62016e-05
2.24694e-06
6.62819e-05
2.71758e-06
6.64204e-05
3.35396e-06
4.18422e-06
6.66908e-05
6.56404e-05
1.86329e-07
6.5692e-05
3.80225e-07
6.57276e-05
4.73056e-07
6.57559e-05
5.44669e-07
6.57777e-05
5.95246e-07
6.57948e-05
6.3062e-07
6.58089e-05
6.58631e-07
6.58206e-05
6.81764e-07
6.58305e-05
7.0128e-07
6.5839e-05
7.18389e-07
6.58463e-05
7.33961e-07
6.58527e-05
7.48646e-07
6.58582e-05
7.63017e-07
6.58627e-05
7.7762e-07
6.58662e-05
7.93003e-07
6.58685e-05
8.09759e-07
6.58694e-05
8.28562e-07
6.58686e-05
8.50218e-07
6.58657e-05
8.75706e-07
6.58604e-05
9.06253e-07
6.58522e-05
9.43411e-07
6.58406e-05
9.89171e-07
6.58254e-05
1.04611e-06
6.58064e-05
1.11759e-06
6.57838e-05
1.20802e-06
6.57588e-05
1.32314e-06
6.57337e-05
1.47059e-06
6.57136e-05
1.6602e-06
6.57084e-05
1.90482e-06
6.57347e-05
2.22065e-06
6.58272e-05
2.62508e-06
6.60366e-05
3.14448e-06
3.75785e-06
6.6463e-05
6.74903e-05
1.52857e-07
6.75308e-05
3.39729e-07
6.75644e-05
4.39402e-07
6.75952e-05
5.13915e-07
6.76215e-05
5.68883e-07
6.76434e-05
6.08743e-07
6.76616e-05
6.40471e-07
6.76764e-05
6.66891e-07
6.76883e-05
6.89405e-07
6.76974e-05
7.09309e-07
6.77038e-05
7.2758e-07
6.77075e-05
7.44949e-07
6.77084e-05
7.6206e-07
6.77065e-05
7.7952e-07
6.77016e-05
7.97934e-07
6.76934e-05
8.17954e-07
6.76817e-05
8.40308e-07
6.7666e-05
8.65855e-07
6.76461e-05
8.95628e-07
6.76215e-05
9.30893e-07
6.75916e-05
9.73225e-07
6.75562e-05
1.0246e-06
6.75148e-05
1.08753e-06
6.74672e-05
1.16517e-06
6.74137e-05
1.26153e-06
6.73552e-05
1.38165e-06
6.7294e-05
1.5318e-06
6.72345e-05
1.71966e-06
6.71853e-05
1.95402e-06
6.71609e-05
2.24506e-06
6.71867e-05
2.59933e-06
6.73042e-05
3.02694e-06
3.49619e-06
6.75659e-05
6.94114e-05
1.2544e-07
6.94496e-05
3.01591e-07
6.94821e-05
4.06891e-07
6.95107e-05
4.853e-07
6.9535e-05
5.44594e-07
6.95552e-05
5.88562e-07
6.95722e-05
6.23496e-07
6.95864e-05
6.52619e-07
6.95983e-05
6.77568e-07
6.96078e-05
6.99736e-07
6.96152e-05
7.20205e-07
6.96204e-05
7.39789e-07
6.96232e-05
7.59196e-07
6.96237e-05
7.79088e-07
6.96215e-05
8.00119e-07
6.96165e-05
8.22983e-07
6.96083e-05
8.48444e-07
6.95968e-05
8.77393e-07
6.95815e-05
9.10879e-07
6.95623e-05
9.50165e-07
6.95387e-05
9.96797e-07
6.95106e-05
1.05267e-06
6.94781e-05
1.1201e-06
6.94413e-05
1.20195e-06
6.94011e-05
1.30167e-06
6.93593e-05
1.42344e-06
6.93191e-05
1.57206e-06
6.92858e-05
1.75297e-06
6.92684e-05
1.97145e-06
6.92809e-05
2.23253e-06
6.93441e-05
2.5361e-06
6.94898e-05
2.88127e-06
3.23755e-06
6.97484e-05
7.13847e-05
1.07052e-07
7.14141e-05
2.7225e-07
7.14412e-05
3.79708e-07
7.14668e-05
4.59742e-07
7.14901e-05
5.2133e-07
7.15105e-05
5.68148e-07
7.15283e-05
6.05678e-07
7.15437e-05
6.37201e-07
7.15568e-05
6.64448e-07
7.15677e-05
6.88826e-07
7.15765e-05
7.1146e-07
7.15831e-05
7.33221e-07
7.15874e-05
7.54858e-07
7.15894e-05
7.77068e-07
7.1589e-05
8.00534e-07
7.1586e-05
8.26002e-07
7.15802e-05
8.54237e-07
7.15714e-05
8.86138e-07
7.15596e-05
9.22735e-07
7.15445e-05
9.65246e-07
7.15262e-05
1.01512e-06
7.15048e-05
1.07409e-06
7.14806e-05
1.14422e-06
7.14546e-05
1.22793e-06
7.14283e-05
1.32802e-06
7.14041e-05
1.44763e-06
7.13861e-05
1.5901e-06
7.13803e-05
1.75869e-06
7.13961e-05
1.95569e-06
7.14466e-05
2.18205e-06
7.15492e-05
2.43347e-06
7.17277e-05
2.70279e-06
2.96323e-06
7.2002e-05
7.34192e-05
9.31146e-08
7.34449e-05
2.46527e-07
7.34709e-05
3.53713e-07
7.34958e-05
4.34829e-07
7.35186e-05
4.98529e-07
7.35386e-05
5.48175e-07
7.35559e-05
5.88354e-07
7.35709e-05
6.22258e-07
7.35836e-05
6.51722e-07
7.35942e-05
6.78195e-07
7.36028e-05
7.02853e-07
7.36094e-05
7.26624e-07
7.3614e-05
7.50298e-07
7.36165e-05
7.74612e-07
7.36167e-05
8.00282e-07
7.36147e-05
8.28025e-07
7.36103e-05
8.58646e-07
7.36034e-05
8.93002e-07
7.35941e-05
9.32082e-07
7.35823e-05
9.77025e-07
7.35683e-05
1.02914e-06
7.35524e-05
1.08994e-06
7.35355e-05
1.16116e-06
7.35187e-05
1.24474e-06
7.35039e-05
1.34275e-06
7.34942e-05
1.45734e-06
7.34939e-05
1.59044e-06
7.35091e-05
1.74345e-06
7.35485e-05
1.91632e-06
7.36234e-05
2.10715e-06
7.37476e-05
2.30931e-06
7.39376e-05
2.51276e-06
2.6951e-06
7.42057e-05
7.55128e-05
8.27923e-08
7.55337e-05
2.25577e-07
7.55561e-05
3.31362e-07
7.55781e-05
4.1284e-07
7.55989e-05
4.77705e-07
7.56179e-05
5.29222e-07
7.56349e-05
5.71341e-07
7.565e-05
6.07117e-07
7.56633e-05
6.38434e-07
7.56748e-05
6.6674e-07
7.56844e-05
6.93223e-07
7.56922e-05
7.1883e-07
7.56981e-05
7.44372e-07
7.57021e-05
7.70601e-07
7.57041e-05
7.98252e-07
7.57042e-05
8.28012e-07
7.57021e-05
8.60663e-07
7.56981e-05
8.97026e-07
7.56922e-05
9.38016e-07
7.56846e-05
9.84657e-07
7.56756e-05
1.03809e-06
7.5666e-05
1.09957e-06
7.56567e-05
1.17047e-06
7.56492e-05
1.25222e-06
7.56457e-05
1.34621e-06
7.56494e-05
1.45366e-06
7.56646e-05
1.5753e-06
7.5697e-05
1.71105e-06
7.5754e-05
1.85925e-06
7.58449e-05
2.01625e-06
7.59797e-05
2.17451e-06
7.61691e-05
2.32338e-06
2.44491e-06
7.64193e-05
7.76675e-05
7.48518e-08
7.76853e-05
2.07805e-07
7.77057e-05
3.1091e-07
7.77267e-05
3.91915e-07
7.7747e-05
4.57366e-07
7.77659e-05
5.1036e-07
7.7783e-05
5.5424e-07
7.77983e-05
5.91802e-07
7.78118e-05
6.24899e-07
7.78236e-05
6.54956e-07
7.78337e-05
6.83157e-07
7.7842e-05
7.10466e-07
7.78487e-05
7.3771e-07
7.78537e-05
7.65637e-07
7.7857e-05
7.94955e-07
7.78586e-05
8.26386e-07
7.78586e-05
8.60647e-07
7.78571e-05
8.98505e-07
7.78544e-05
9.40778e-07
7.78507e-05
9.88351e-07
7.78466e-05
1.04217e-06
7.78429e-05
1.10323e-06
7.78409e-05
1.17252e-06
7.78421e-05
1.251e-06
7.78489e-05
1.33942e-06
7.78643e-05
1.43822e-06
7.78924e-05
1.54718e-06
7.79383e-05
1.66518e-06
7.8008e-05
1.78956e-06
7.81084e-05
1.9158e-06
7.82465e-05
2.03645e-06
7.84283e-05
2.14156e-06
2.21726e-06
7.8656e-05
7.98846e-05
6.86096e-08
7.98995e-05
1.9285e-07
7.99176e-05
2.92798e-07
7.99366e-05
3.72942e-07
7.99554e-05
4.38573e-07
7.99732e-05
4.92542e-07
7.99897e-05
5.37719e-07
8.00049e-05
5.76656e-07
8.00186e-05
6.11168e-07
8.00309e-05
6.42657e-07
8.00418e-05
6.72293e-07
8.00512e-05
7.01039e-07
8.00592e-05
7.29721e-07
8.00657e-05
7.59079e-07
8.00709e-05
7.89795e-07
8.00748e-05
8.22539e-07
8.00774e-05
8.57986e-07
8.00791e-05
8.96827e-07
8.00801e-05
9.39774e-07
8.00809e-05
9.87561e-07
8.00821e-05
1.04093e-06
8.00847e-05
1.10061e-06
8.009e-05
1.16724e-06
8.00997e-05
1.24134e-06
8.0116e-05
1.32313e-06
8.01418e-05
1.41241e-06
8.01806e-05
1.50831e-06
8.02368e-05
1.60902e-06
8.0315e-05
1.71139e-06
8.042e-05
1.81074e-06
8.05562e-05
1.90027e-06
8.07264e-05
1.97139e-06
2.01379e-06
8.09299e-05
8.21655e-05
6.35724e-08
8.21783e-05
1.80069e-07
8.21946e-05
2.76453e-07
8.22123e-05
3.55201e-07
8.22304e-05
4.20505e-07
8.2248e-05
4.74973e-07
8.22646e-05
5.21096e-07
8.22801e-05
5.61166e-07
8.22944e-05
5.96909e-07
8.23073e-05
6.29677e-07
8.2319e-05
6.60598e-07
8.23295e-05
6.90614e-07
8.23386e-05
7.20531e-07
8.23467e-05
7.51062e-07
8.23536e-05
7.82866e-07
8.23596e-05
8.16571e-07
8.23648e-05
8.52792e-07
8.23695e-05
8.92132e-07
8.2374e-05
9.35186e-07
8.23791e-05
9.8253e-07
8.23853e-05
1.03471e-06
8.23937e-05
1.09219e-06
8.24056e-05
1.15532e-06
8.24227e-05
1.22423e-06
8.24471e-05
1.29872e-06
8.24814e-05
1.37815e-06
8.25285e-05
1.4612e-06
8.25918e-05
1.54572e-06
8.26747e-05
1.62848e-06
8.27804e-05
1.70504e-06
8.29111e-05
1.76958e-06
8.30674e-05
1.81513e-06
1.83431e-06
8.32469e-05
8.45119e-05
5.94008e-08
8.4523e-05
1.69039e-07
8.45377e-05
2.61736e-07
8.45541e-05
3.38792e-07
8.45711e-05
4.03474e-07
8.4588e-05
4.58105e-07
8.46042e-05
5.04851e-07
8.46197e-05
5.45753e-07
8.46341e-05
5.82437e-07
8.46476e-05
6.16197e-07
8.46601e-05
6.48121e-07
8.46716e-05
6.79122e-07
8.46821e-05
7.0998e-07
8.46918e-05
7.41378e-07
8.47007e-05
7.73935e-07
8.47091e-05
8.08225e-07
8.47171e-05
8.44791e-07
8.47251e-05
8.84143e-07
8.47335e-05
9.26756e-07
8.4743e-05
9.73057e-07
8.47543e-05
1.0234e-06
8.47684e-05
1.07804e-06
8.47867e-05
1.13704e-06
8.48107e-05
1.20025e-06
8.48423e-05
1.26716e-06
8.48836e-05
1.33683e-06
8.49371e-05
1.40772e-06
8.50052e-05
1.47759e-06
8.50903e-05
1.54339e-06
8.51941e-05
1.60121e-06
8.53174e-05
1.64627e-06
8.54594e-05
1.6732e-06
1.67698e-06
8.56167e-05
8.69257e-05
5.58605e-08
8.69354e-05
1.59386e-07
8.69487e-05
2.48357e-07
8.69641e-05
3.23431e-07
8.69804e-05
3.87146e-07
8.6997e-05
4.41555e-07
8.70133e-05
4.88563e-07
8.7029e-05
5.29994e-07
8.70441e-05
5.67355e-07
8.70584e-05
6.01873e-07
8.7072e-05
6.34577e-07
8.70848e-05
6.66339e-07
8.70968e-05
6.97897e-07
8.71083e-05
7.29897e-07
8.71194e-05
7.62906e-07
8.71301e-05
7.97442e-07
8.7141e-05
8.3397e-07
8.71522e-05
8.72908e-07
8.71643e-05
9.14613e-07
8.7178e-05
9.59373e-07
8.7194e-05
1.00738e-06
8.72134e-05
1.05868e-06
8.72373e-05
1.11315e-06
8.72671e-05
1.17041e-06
8.73045e-05
1.22977e-06
8.73512e-05
1.2901e-06
8.74091e-05
1.34983e-06
8.74799e-05
1.40681e-06
8.7565e-05
1.45832e-06
8.76651e-05
1.50108e-06
8.778e-05
1.53139e-06
8.79079e-05
1.54527e-06
1.53952e-06
8.80454e-05
8.94086e-05
5.27838e-08
8.94172e-05
1.50812e-07
8.94294e-05
2.36101e-07
8.94439e-05
3.09001e-07
8.94595e-05
3.71503e-07
8.94757e-05
4.25408e-07
8.94918e-05
4.72397e-07
8.95077e-05
5.14088e-07
8.95232e-05
5.51869e-07
8.95382e-05
5.86887e-07
8.95527e-05
6.20109e-07
8.95667e-05
6.52359e-07
8.95802e-05
6.84331e-07
8.95935e-05
7.16624e-07
8.96066e-05
7.49757e-07
8.96199e-05
7.84181e-07
8.96336e-05
8.20287e-07
8.96481e-05
8.584e-07
8.96639e-05
8.98769e-07
8.96818e-05
9.41558e-07
8.97023e-05
9.86815e-07
8.97266e-05
1.03444e-06
8.97556e-05
1.08416e-06
8.97905e-05
1.13544e-06
8.98328e-05
1.18748e-06
8.98838e-05
1.23913e-06
8.99447e-05
1.28887e-06
9.00168e-05
1.33476e-06
9.01006e-05
1.37449e-06
9.01963e-05
1.40545e-06
9.03028e-05
1.42487e-06
9.04181e-05
1.42998e-06
1.41888e-06
9.05387e-05
9.19626e-05
5.00493e-08
9.19703e-05
1.43076e-07
9.19817e-05
2.24752e-07
9.19954e-05
2.95319e-07
9.20105e-05
3.56368e-07
9.20264e-05
4.09478e-07
9.20427e-05
4.5614e-07
9.2059e-05
4.97799e-07
9.20751e-05
5.3572e-07
9.2091e-05
5.70971e-07
9.21067e-05
6.04455e-07
9.21221e-05
6.36938e-07
9.21374e-05
6.69064e-07
9.21526e-05
7.01379e-07
9.2168e-05
7.34345e-07
9.21839e-05
7.6835e-07
9.22004e-05
8.03706e-07
9.22182e-05
8.40654e-07
9.22376e-05
8.79349e-07
9.22593e-05
9.19845e-07
9.22841e-05
9.62081e-07
9.23127e-05
1.00585e-06
9.23461e-05
1.05076e-06
9.23853e-05
1.09621e-06
9.24314e-05
1.14137e-06
9.24854e-05
1.18513e-06
9.25482e-05
1.2261e-06
9.26203e-05
1.26262e-06
9.2702e-05
1.29283e-06
9.27927e-05
1.31473e-06
9.28912e-05
1.32635e-06
9.29953e-05
1.32584e-06
1.31229e-06
9.31019e-05
9.45896e-05
4.75663e-08
9.45967e-05
1.35977e-07
9.46074e-05
2.14119e-07
9.46205e-05
2.82234e-07
9.46352e-05
3.41633e-07
9.4651e-05
3.93706e-07
9.46673e-05
4.39783e-07
9.4684e-05
4.81154e-07
9.47007e-05
5.18969e-07
9.47175e-05
5.54208e-07
9.47342e-05
5.87705e-07
9.4751e-05
6.20166e-07
9.47679e-05
6.5218e-07
9.4785e-05
6.84239e-07
9.48026e-05
7.16747e-07
9.48209e-05
7.50027e-07
9.48403e-05
7.84325e-07
9.48612e-05
8.19803e-07
9.4884e-05
8.56532e-07
9.49094e-05
8.94485e-07
9.49379e-05
9.33514e-07
9.49704e-05
9.73335e-07
9.50077e-05
1.0135e-06
9.50505e-05
1.0534e-06
9.50997e-05
1.09221e-06
9.51559e-05
1.12891e-06
9.52197e-05
1.16232e-06
9.52912e-05
1.19106e-06
9.53704e-05
1.21368e-06
9.54564e-05
1.22873e-06
9.55479e-05
1.23487e-06
9.56427e-05
1.23098e-06
1.21677e-06
9.57382e-05
9.72918e-05
4.52655e-08
9.72984e-05
1.29353e-07
9.73085e-05
2.0403e-07
9.73212e-05
2.69593e-07
9.73356e-05
3.27162e-07
9.73514e-05
3.77968e-07
9.7368e-05
4.23206e-07
9.73851e-05
4.64028e-07
9.74026e-05
5.01475e-07
9.74203e-05
5.36445e-07
9.74383e-05
5.69701e-07
9.74566e-05
6.01885e-07
9.74753e-05
6.33532e-07
9.74944e-05
6.65076e-07
9.75143e-05
6.96865e-07
9.75352e-05
7.29161e-07
9.75574e-05
7.62146e-07
9.75813e-05
7.95914e-07
9.76073e-05
8.30473e-07
9.76361e-05
8.65726e-07
9.76681e-05
9.01469e-07
9.77041e-05
9.37375e-07
9.77446e-05
9.72981e-07
9.77903e-05
1.00768e-06
9.78418e-05
1.04073e-06
9.78995e-05
1.07123e-06
9.79636e-05
1.09819e-06
9.80341e-05
1.12054e-06
9.81106e-05
1.13718e-06
9.81923e-05
1.1471e-06
9.82777e-05
1.14947e-06
9.83649e-05
1.1437e-06
1.12989e-06
9.84518e-05
0.000100071
4.30919e-08
0.000100078
1.23068e-07
0.000100087
1.94332e-07
0.0001001
2.57257e-07
0.000100114
3.12835e-07
0.00010013
3.62169e-07
0.000100147
4.06338e-07
0.000100164
4.46374e-07
0.000100182
4.83219e-07
0.000100201
5.17684e-07
0.00010022
5.50463e-07
0.00010024
5.82136e-07
0.000100261
6.13178e-07
0.000100282
6.43969e-07
0.000100304
6.748e-07
0.000100327
7.05879e-07
0.000100352
7.3733e-07
0.000100379
7.69196e-07
0.000100408
8.01428e-07
0.000100439
8.33886e-07
0.000100475
8.66332e-07
0.000100514
8.98421e-07
0.000100557
9.29701e-07
0.000100605
9.5961e-07
0.000100658
9.87486e-07
0.000100717
1.01258e-06
0.000100781
1.0341e-06
0.00010085
1.05121e-06
0.000100924
1.06315e-06
0.000101002
1.06925e-06
0.000101083
1.06905e-06
0.000101164
1.0623e-06
1.04934e-06
0.000101244
0.00010293
4.10014e-08
0.000102936
1.17007e-07
0.000102946
1.84886e-07
0.000102958
2.45091e-07
0.000102972
2.98529e-07
0.000102988
3.46201e-07
0.000103005
3.89082e-07
0.000103024
4.28105e-07
0.000103043
4.64113e-07
0.000103063
4.97841e-07
0.000103083
5.29913e-07
0.000103104
5.60845e-07
0.000103127
5.91057e-07
0.00010315
6.20874e-07
0.000103174
6.50537e-07
0.0001032
6.80204e-07
0.000103227
7.09951e-07
0.000103256
7.39774e-07
0.000103288
7.6959e-07
0.000103323
7.99228e-07
0.000103361
8.28435e-07
0.000103402
8.5687e-07
0.000103448
8.84111e-07
0.000103498
9.09657e-07
0.000103552
9.32944e-07
0.000103612
9.53364e-07
0.000103675
9.70294e-07
0.000103743
9.83135e-07
0.000103815
9.91365e-07
0.00010389
9.94588e-07
0.000103966
9.92596e-07
0.000104043
9.85376e-07
9.73365e-07
0.000104119
0.000105871
3.89571e-08
0.000105877
1.11073e-07
0.000105886
1.75569e-07
0.000105898
2.3297e-07
0.000105913
2.84128e-07
0.000105929
3.2996e-07
0.000105947
3.71354e-07
0.000105965
4.0915e-07
0.000105985
4.44108e-07
0.000106006
4.76885e-07
0.000106028
5.08038e-07
0.000106051
5.38023e-07
0.000106075
5.67205e-07
0.0001061
5.95858e-07
0.000106126
6.24175e-07
0.000106154
6.52269e-07
0.000106184
6.8018e-07
0.000106216
7.07868e-07
0.00010625
7.35223e-07
0.000106287
7.62063e-07
0.000106328
7.88132e-07
0.000106372
8.1311e-07
0.000106419
8.36616e-07
0.00010647
8.58219e-07
0.000106526
8.77451e-07
0.000106586
8.93832e-07
0.000106649
9.06897e-07
0.000106716
9.1623e-07
0.000106786
9.21501e-07
0.000106858
9.22501e-07
0.000106931
9.19191e-07
0.000107005
9.11692e-07
9.00474e-07
0.000107078
0.000108895
3.69278e-08
0.000108901
1.05183e-07
0.000108911
1.6627e-07
0.000108923
2.20779e-07
0.000108937
2.69522e-07
0.000108954
3.13347e-07
0.000108972
3.53068e-07
0.000108992
3.89442e-07
0.000109013
4.2315e-07
0.000109035
4.54777e-07
0.000109058
4.84815e-07
0.000109083
5.13665e-07
0.000109108
5.41636e-07
0.000109135
5.68957e-07
0.000109164
5.95779e-07
0.000109194
6.22177e-07
0.000109226
6.48158e-07
0.00010926
6.7366e-07
0.000109297
6.98558e-07
0.000109336
7.22663e-07
0.000109378
7.45734e-07
0.000109424
7.67478e-07
0.000109473
7.87562e-07
0.000109526
8.05622e-07
0.000109582
8.21284e-07
0.000109641
8.34182e-07
0.000109704
8.4398e-07
0.00010977
8.50404e-07
0.000109838
8.53262e-07
0.000109908
8.52476e-07
0.00010998
8.48107e-07
0.000110051
8.40343e-07
8.2964e-07
0.000110122
0.000112007
3.48865e-08
0.000112012
9.92604e-08
0.000112022
1.56887e-07
0.000112034
2.08407e-07
0.000112049
2.54601e-07
0.000112066
2.96261e-07
0.000112085
3.34134e-07
0.000112106
3.68902e-07
0.000112128
4.01174e-07
0.000112151
4.31468e-07
0.000112176
4.60216e-07
0.000112201
4.87761e-07
0.000112229
5.14367e-07
0.000112257
5.40219e-07
0.000112288
5.65429e-07
0.00011232
5.90042e-07
0.000112354
6.14039e-07
0.00011239
6.37343e-07
0.000112429
6.5982e-07
0.000112471
6.81289e-07
0.000112515
7.01524e-07
0.000112562
7.20268e-07
0.000112612
7.37233e-07
0.000112666
7.52123e-07
0.000112722
7.64647e-07
0.000112782
7.74532e-07
0.000112844
7.81548e-07
0.000112909
7.85522e-07
0.000112976
7.86361e-07
0.000113045
7.84068e-07
0.000113114
7.78759e-07
0.000113184
7.70646e-07
7.60147e-07
0.000113253
0.000115207
3.28093e-08
0.000115213
9.32413e-08
0.000115222
1.4733e-07
0.000115235
1.95755e-07
0.00011525
2.39272e-07
0.000115268
2.78621e-07
0.000115287
3.14487e-07
0.000115309
3.47487e-07
0.000115332
3.7816e-07
0.000115356
4.06963e-07
0.000115382
4.34268e-07
0.00011541
4.60368e-07
0.000115439
4.85481e-07
0.000115469
5.09752e-07
0.000115501
5.33263e-07
0.000115535
5.56033e-07
0.000115571
5.78023e-07
0.000115609
5.99146e-07
0.00011565
6.1927e-07
0.000115693
6.38222e-07
0.000115739
6.55799e-07
0.000115787
6.71776e-07
0.000115839
6.85914e-07
0.000115893
6.97977e-07
0.00011595
7.07743e-07
0.000116009
7.15015e-07
0.000116071
7.19639e-07
0.000116135
7.21517e-07
0.000116201
7.20619e-07
0.000116268
7.16996e-07
0.000116336
7.10784e-07
0.000116404
7.02186e-07
6.91571e-07
0.000116473
0.000118498
3.06737e-08
0.000118504
8.70625e-08
0.000118514
1.37508e-07
0.000118527
1.82716e-07
0.000118543
2.23419e-07
0.000118561
2.6031e-07
0.000118582
2.94016e-07
0.000118604
3.25093e-07
0.000118628
3.54016e-07
0.000118654
3.81181e-07
0.000118681
4.06908e-07
0.00011871
4.31442e-07
0.000118741
4.54959e-07
0.000118773
4.77569e-07
0.000118807
4.99325e-07
0.000118843
5.20225e-07
0.000118881
5.40218e-07
0.00011892
5.59211e-07
0.000118963
5.77076e-07
0.000119007
5.93653e-07
0.000119054
6.0876e-07
0.000119104
6.22206e-07
0.000119156
6.33799e-07
0.000119211
6.43351e-07
0.000119268
6.50695e-07
0.000119327
6.55692e-07
0.000119388
6.58246e-07
0.000119452
6.58307e-07
0.000119516
6.55886e-07
0.000119582
6.51056e-07
0.000119649
6.43956e-07
0.000119716
6.34767e-07
6.23811e-07
0.000119784
0.000121884
2.8461e-08
0.00012189
8.0672e-08
0.0001219
1.2735e-07
0.000121914
1.69218e-07
0.00012193
2.06982e-07
0.000121949
2.41288e-07
0.00012197
2.72708e-07
0.000121994
3.01736e-07
0.000122019
3.28786e-07
0.000122046
3.54199e-07
0.000122075
3.78242e-07
0.000122105
4.01117e-07
0.000122137
4.2296e-07
0.000122171
4.43852e-07
0.000122206
4.63822e-07
0.000122243
4.8285e-07
0.000122283
5.00877e-07
0.000122324
5.17808e-07
0.000122368
5.33519e-07
0.000122414
5.47867e-07
0.000122462
5.60696e-07
0.000122512
5.71844e-07
0.000122565
5.81154e-07
0.00012262
5.88481e-07
0.000122677
5.93699e-07
0.000122735
5.96715e-07
0.000122796
5.97468e-07
0.000122859
5.95943e-07
0.000122922
5.92171e-07
0.000122987
5.86229e-07
0.000123053
5.78244e-07
0.000123119
5.68365e-07
5.56865e-07
0.000123186
0.000125366
2.61464e-08
0.000125372
7.40004e-08
0.000125383
1.16748e-07
0.000125397
1.55121e-07
0.000125414
1.89797e-07
0.000125434
2.21376e-07
0.000125457
2.50375e-07
0.000125481
2.77228e-07
0.000125508
3.02292e-07
0.000125536
3.25852e-07
0.000125566
3.48127e-07
0.000125598
3.69276e-07
0.000125631
3.89399e-07
0.000125667
4.0855e-07
0.000125704
4.26736e-07
0.000125743
4.43925e-07
0.000125784
4.60049e-07
0.000125826
4.75014e-07
0.000125871
4.88705e-07
0.000125918
5.00994e-07
0.000125967
5.11747e-07
0.000126018
5.20828e-07
0.000126071
5.2811e-07
0.000126126
5.33479e-07
0.000126183
5.36844e-07
0.000126242
5.3814e-07
0.000126302
5.37335e-07
0.000126363
5.34432e-07
0.000126426
5.29469e-07
0.00012649
5.22523e-07
0.000126554
5.13705e-07
0.000126619
5.03137e-07
4.91056e-07
0.000126685
0.000128948
2.37209e-08
0.000128955
6.70191e-08
0.000128966
1.05675e-07
0.00012898
1.40421e-07
0.000128998
1.71896e-07
0.000129019
2.00645e-07
0.000129042
2.27126e-07
0.000129068
2.51715e-07
0.000129095
2.74708e-07
0.000129125
2.96339e-07
0.000129156
3.16781e-07
0.000129189
3.36152e-07
0.000129224
3.54522e-07
0.000129261
3.71919e-07
0.000129299
3.88332e-07
0.000129339
4.03719e-07
0.000129381
4.18009e-07
0.000129425
4.31112e-07
0.000129471
4.4292e-07
0.000129519
4.5332e-07
0.000129568
4.62195e-07
0.00012962
4.69431e-07
0.000129673
4.74924e-07
0.000129728
4.78587e-07
0.000129784
4.80352e-07
0.000129842
4.80176e-07
0.000129902
4.78041e-07
0.000129962
4.73958e-07
0.000130024
4.67968e-07
0.000130086
4.60135e-07
0.000130149
4.50552e-07
0.000130213
4.39307e-07
4.26601e-07
0.000130277
0.000132632
2.11317e-08
0.000132639
5.9592e-08
0.000132651
9.39102e-08
0.000132666
1.24824e-07
0.000132685
1.52928e-07
0.000132707
1.78711e-07
0.000132732
2.02572e-07
0.000132759
2.24816e-07
0.000132788
2.45681e-07
0.000132819
2.65345e-07
0.000132852
2.83934e-07
0.000132886
3.01526e-07
0.000132923
3.18159e-07
0.000132961
3.33839e-07
0.000133001
3.48539e-07
0.000133042
3.62208e-07
0.000133085
3.74776e-07
0.00013313
3.86152e-07
0.000133177
3.96239e-07
0.000133225
4.04935e-07
0.000133275
4.12138e-07
0.000133327
4.17752e-07
0.00013338
4.21695e-07
0.000133435
4.23895e-07
0.000133491
4.24304e-07
0.000133548
4.2289e-07
0.000133607
4.19647e-07
0.000133666
4.14589e-07
0.000133726
4.07754e-07
0.000133787
3.99198e-07
0.000133849
3.88998e-07
0.000133911
3.77225e-07
3.64056e-07
0.000133973
0.000136421
1.84226e-08
0.000136429
5.17989e-08
0.000136441
8.16057e-08
0.000136457
1.08562e-07
0.000136477
1.33194e-07
0.0001365
1.55924e-07
0.000136525
1.77081e-07
0.000136553
1.96907e-07
0.000136583
2.15578e-07
0.000136616
2.3322e-07
0.00013665
2.49913e-07
0.000136685
2.657e-07
0.000136723
2.80593e-07
0.000136762
2.94577e-07
0.000136803
3.07613e-07
0.000136846
3.19642e-07
0.00013689
3.30591e-07
0.000136936
3.40373e-07
0.000136983
3.48897e-07
0.000137032
3.56073e-07
0.000137082
3.6181e-07
0.000137134
3.66029e-07
0.000137187
3.6866e-07
0.000137241
3.69646e-07
0.000137297
3.68948e-07
0.000137353
3.66545e-07
0.00013741
3.62433e-07
0.000137468
3.56625e-07
0.000137527
3.49153e-07
0.000137586
3.4006e-07
0.000137645
3.29405e-07
0.000137705
3.17233e-07
3.03698e-07
0.000137766
0.000140319
1.53817e-08
0.000140327
4.31872e-08
0.000140341
6.81001e-08
0.000140359
9.0841e-08
0.00014038
1.11848e-07
0.000140404
1.31451e-07
0.000140432
1.49889e-07
0.000140461
1.67312e-07
0.000140493
1.83825e-07
0.000140527
1.99498e-07
0.000140562
2.14363e-07
0.0001406
2.28424e-07
0.000140638
2.41664e-07
0.000140679
2.5405e-07
0.000140721
2.65532e-07
0.000140765
2.76044e-07
0.00014081
2.85513e-07
0.000140856
2.93858e-07
0.000140904
3.00993e-07
0.000140953
3.06838e-07
0.000141004
3.11315e-07
0.000141056
3.14355e-07
0.000141108
3.15899e-07
0.000141162
3.15903e-07
0.000141217
3.14333e-07
0.000141272
3.11174e-07
0.000141328
3.06424e-07
0.000141385
3.00097e-07
0.000141442
2.92217e-07
0.000141499
2.82822e-07
0.000141556
2.71963e-07
0.000141614
2.59678e-07
2.46106e-07
0.000141671
0.000144328
1.23678e-08
0.000144336
3.4348e-08
0.00014435
5.41896e-08
0.000144369
7.2542e-08
0.000144391
8.97519e-08
0.000144416
1.0608e-07
0.000144444
1.21676e-07
0.000144475
1.36603e-07
0.000144508
1.50888e-07
0.000144543
1.6455e-07
0.00014458
1.77565e-07
0.000144618
1.89899e-07
0.000144658
2.01513e-07
0.0001447
2.12357e-07
0.000144743
2.22368e-07
0.000144788
2.31477e-07
0.000144834
2.39607e-07
0.000144881
2.46679e-07
0.000144929
2.52615e-07
0.000144979
2.5734e-07
0.000145029
2.60787e-07
0.000145081
2.62895e-07
0.000145133
2.63613e-07
0.000145186
2.62903e-07
0.00014524
2.60737e-07
0.000145294
2.57101e-07
0.000145348
2.51993e-07
0.000145403
2.45421e-07
0.000145458
2.37404e-07
0.000145513
2.27968e-07
0.000145567
2.17151e-07
0.000145622
2.04971e-07
1.9155e-07
0.000145677
0.000148452
8.33317e-09
0.000148463
2.35874e-08
0.000148479
3.78924e-08
0.0001485
5.17617e-08
0.000148524
6.52583e-08
0.000148552
7.84714e-08
0.000148582
9.14073e-08
0.000148615
1.04016e-07
0.000148649
1.16246e-07
0.000148686
1.28076e-07
0.000148724
1.39406e-07
0.000148764
1.50154e-07
0.000148805
1.60268e-07
0.000148848
1.69691e-07
0.000148892
1.78355e-07
0.000148937
1.86188e-07
0.000148984
1.93114e-07
0.000149031
1.9906e-07
0.00014908
2.03955e-07
0.000149129
2.07734e-07
0.00014918
2.10335e-07
0.000149231
2.11706e-07
0.000149283
2.11803e-07
0.000149335
2.10593e-07
0.000149388
2.08053e-07
0.000149441
2.04172e-07
0.000149494
1.98946e-07
0.000149547
1.92383e-07
0.0001496
1.84495e-07
0.000149652
1.75308e-07
0.000149705
1.64856e-07
0.000149757
1.53161e-07
1.40337e-07
0.000149808
0.000152692
5.18265e-09
0.000152703
1.32664e-08
0.000152719
2.15439e-08
0.00015274
3.03183e-08
0.000152766
3.96591e-08
0.000152795
4.94947e-08
0.000152827
5.96088e-08
0.000152861
6.97947e-08
0.000152897
7.98892e-08
0.000152936
8.98764e-08
0.000152975
9.95443e-08
0.000153017
1.08774e-07
0.00015306
1.17495e-07
0.000153104
1.25631e-07
0.000153149
1.33104e-07
0.000153195
1.39839e-07
0.000153243
1.45765e-07
0.000153291
1.50804e-07
0.00015334
1.54894e-07
0.00015339
1.57979e-07
0.00015344
1.60006e-07
0.000153491
1.60928e-07
0.000153542
1.60703e-07
0.000153593
1.59304e-07
0.000153644
1.56709e-07
0.000153696
1.52904e-07
0.000153747
1.47885e-07
0.000153798
1.41653e-07
0.000153848
1.34216e-07
0.000153898
1.25592e-07
0.000153947
1.15807e-07
0.000153995
1.04861e-07
9.28547e-08
0.000154042
0.000157058
-1.48292e-09
0.000157073
-1.6178e-09
0.000157094
1.03688e-09
0.000157118
5.4238e-09
0.000157147
1.12214e-08
0.000157178
1.81945e-08
0.000157212
2.59062e-08
0.000157248
3.40126e-08
0.000157285
4.23247e-08
0.000157324
5.07938e-08
0.000157365
5.89157e-08
0.000157407
6.66886e-08
0.00015745
7.40662e-08
0.000157495
8.09651e-08
0.000157541
8.73053e-08
0.000157588
9.30136e-08
0.000157635
9.8024e-08
0.000157684
1.02248e-07
0.000157733
1.05638e-07
0.000157783
1.08149e-07
0.000157833
1.09732e-07
0.000157884
1.10345e-07
0.000157935
1.09954e-07
0.000157985
1.08535e-07
0.000158036
1.06072e-07
0.000158086
1.02554e-07
0.000158136
9.79821e-08
0.000158186
9.2352e-08
0.000158234
8.56367e-08
0.000158282
7.78713e-08
0.000158329
6.90964e-08
0.000158374
5.93198e-08
4.86339e-08
0.000158418
0.000161542
-5.1115e-09
0.000161556
-1.57202e-08
0.000161578
-2.07034e-08
0.000161605
-2.17532e-08
0.000161636
-1.99916e-08
0.000161671
-1.60381e-08
0.000161707
-1.07316e-08
0.000161746
-4.88002e-09
0.000161787
1.23446e-09
0.000161829
8.7709e-09
0.000161872
1.56139e-08
0.000161917
2.22343e-08
0.000161962
2.85455e-08
0.000162009
3.44732e-08
0.000162056
3.99554e-08
0.000162104
4.49269e-08
0.000162153
4.93272e-08
0.000162202
5.29885e-08
0.000162252
5.59873e-08
0.000162302
5.82603e-08
0.000162352
5.97472e-08
0.000162402
6.04083e-08
0.000162452
6.02158e-08
0.000162501
5.91474e-08
0.00016255
5.71873e-08
0.000162598
5.43242e-08
0.000162645
5.0548e-08
0.000162692
4.58634e-08
0.000162737
4.02135e-08
0.000162782
3.37054e-08
0.000162824
2.63112e-08
0.000162866
1.80003e-08
8.78126e-09
0.000162906
0.000166167
-1.86119e-08
0.00016619
-3.89823e-08
0.000166218
-4.82365e-08
0.000166248
-5.22509e-08
0.000166281
-5.30563e-08
0.000166317
-5.12169e-08
0.000166354
-4.77734e-08
0.000166392
-4.34096e-08
0.000166432
-3.84165e-08
0.000166474
-3.29616e-08
0.000166517
-2.75793e-08
0.000166561
-2.22969e-08
0.000166607
-1.71809e-08
0.000166654
-1.23226e-08
0.000166702
-7.79685e-09
0.00016675
-3.63871e-09
0.000166799
3.47831e-10
0.000166849
3.25068e-09
0.000166899
5.83395e-09
0.000166949
7.84635e-09
0.000167
9.22962e-09
0.00016705
9.95388e-09
0.000167101
9.99252e-09
0.00016715
9.32865e-09
0.0001672
7.95329e-09
0.000167248
5.88591e-09
0.000167295
3.19582e-09
0.000167341
2.4237e-11
0.000167386
-4.64725e-09
0.00016743
-9.7125e-09
0.000167471
-1.54348e-08
0.000167511
-2.18253e-08
-2.88236e-08
0.000167549
0.000170912
-2.99845e-08
0.000170942
-6.9285e-08
0.000170978
-8.44012e-08
0.000171019
-9.26877e-08
0.000171062
-9.58949e-08
0.000171106
-9.53354e-08
0.000171151
-9.29052e-08
0.000171197
-8.94577e-08
0.000171244
-8.5394e-08
0.000171292