/*--------------------------------*- C++ -*----------------------------------*\
  =========                 |
  \\      /  F ield         | OpenFOAM: The Open Source CFD Toolbox
   \\    /   O peration     | Website:  https://openfoam.org
    \\  /    A nd           | Version:  10
     \\/     M anipulation  |
\*---------------------------------------------------------------------------*/
FoamFile
{
    format      ascii;
    class       volVectorField;
    location    "0.195";
    object      U;
}
// * * * * * * * * * * * * * * * * * * * * * * * * * * * * * * * * * * * * * //

dimensions      [0 1 -1 0 0 0 0];

internalField   nonuniform List<vector> 
6820
(
(7.28176 0.0248382 0)
(7.17805 0.0400755 0)
(7.05514 0.0450365 0)
(6.92621 0.0477107 0)
(6.79773 0.0488168 0)
(6.67013 0.0490153 0)
(6.54391 0.0487494 0)
(6.41957 0.0482102 0)
(6.29726 0.0475121 0)
(6.17698 0.0467311 0)
(6.05871 0.0459137 0)
(5.9424 0.0450905 0)
(5.82796 0.0442836 0)
(5.71528 0.0435106 0)
(5.60423 0.0427871 0)
(5.49466 0.0421289 0)
(5.38636 0.0415539 0)
(5.2791 0.0410839 0)
(5.17258 0.0407467 0)
(5.06643 0.0405787 0)
(4.96019 0.0406279 0)
(4.85324 0.0409596 0)
(4.7448 0.041662 0)
(4.63385 0.0428561 0)
(4.51904 0.0447093 0)
(4.39857 0.0474539 0)
(4.27007 0.0514111 0)
(4.13024 0.0570501 0)
(3.97478 0.0649266 0)
(3.79756 0.0762721 0)
(3.58979 0.0911759 0)
(3.34382 0.115805 0)
(3.02287 0.145522 0)
(7.35923 0.0259266 0)
(7.42098 0.0358845 0)
(7.47603 0.0377675 0)
(7.52621 0.0398876 0)
(7.57211 0.0414192 0)
(7.6126 0.042688 0)
(7.64766 0.0439698 0)
(7.67767 0.0452701 0)
(7.70297 0.0465852 0)
(7.72383 0.0479216 0)
(7.74053 0.0492806 0)
(7.75332 0.0506643 0)
(7.76245 0.0520783 0)
(7.76809 0.0535325 0)
(7.77044 0.0550415 0)
(7.76961 0.0566261 0)
(7.76573 0.058315 0)
(7.75886 0.0601477 0)
(7.74903 0.0621774 0)
(7.73623 0.0644764 0)
(7.72038 0.0671425 0)
(7.70132 0.0703089 0)
(7.67879 0.0741587 0)
(7.6524 0.0789437 0)
(7.62159 0.0850162 0)
(7.5855 0.0928667 0)
(7.54298 0.103199 0)
(7.49225 0.116996 0)
(7.43104 0.135703 0)
(7.35515 0.161468 0)
(7.26153 0.19697 0)
(7.13566 0.249358 0)
(6.99145 0.317538 0)
(7.33541 0.00699253 0)
(7.34553 0.010324 0)
(7.35436 0.0130182 0)
(7.36193 0.0165466 0)
(7.37009 0.0195285 0)
(7.37875 0.022131 0)
(7.38783 0.0245804 0)
(7.39747 0.0268845 0)
(7.40767 0.029062 0)
(7.41835 0.0311506 0)
(7.42946 0.0331803 0)
(7.4409 0.0351777 0)
(7.45261 0.0371697 0)
(7.46447 0.0391841 0)
(7.47642 0.0412512 0)
(7.48834 0.0434062 0)
(7.50016 0.0456917 0)
(7.51177 0.0481609 0)
(7.52309 0.0508825 0)
(7.53403 0.0539464 0)
(7.5445 0.0574724 0)
(7.55441 0.0616216 0)
(7.56368 0.0666138 0)
(7.57225 0.072751 0)
(7.58005 0.0804544 0)
(7.58707 0.0903101 0)
(7.59334 0.103164 0)
(7.59901 0.120179 0)
(7.60438 0.143168 0)
(7.61018 0.174403 0)
(7.61736 0.218148 0)
(7.62969 0.278589 0)
(7.64922 0.363964 0)
(7.33493 0.00936524 0)
(7.34239 0.0203073 0)
(7.34779 0.0259004 0)
(7.35096 0.0297038 0)
(7.35361 0.032227 0)
(7.35582 0.0339934 0)
(7.35754 0.0354193 0)
(7.35895 0.0366494 0)
(7.36015 0.0377641 0)
(7.36117 0.0388301 0)
(7.36205 0.0398916 0)
(7.36281 0.0409804 0)
(7.36347 0.0421243 0)
(7.36403 0.0433504 0)
(7.36448 0.0446876 0)
(7.36481 0.0461692 0)
(7.365 0.0478358 0)
(7.36501 0.0497383 0)
(7.36482 0.0519419 0)
(7.36437 0.0545318 0)
(7.36363 0.0576202 0)
(7.36254 0.0613564 0)
(7.36105 0.0659405 0)
(7.35914 0.0716425 0)
(7.3568 0.0788297 0)
(7.3541 0.0880018 0)
(7.35122 0.0998497 0)
(7.34854 0.115314 0)
(7.34678 0.135704 0)
(7.34755 0.162795 0)
(7.35278 0.198855 0)
(7.36907 0.247352 0)
(7.39891 0.308391 0)
(7.33399 0.00647956 0)
(7.33865 0.0129632 0)
(7.34312 0.0159318 0)
(7.34649 0.0186348 0)
(7.34954 0.0210708 0)
(7.3522 0.0232153 0)
(7.35437 0.0252508 0)
(7.35614 0.0272186 0)
(7.35759 0.0291268 0)
(7.35873 0.0309991 0)
(7.35957 0.0328583 0)
(7.36012 0.0347254 0)
(7.36037 0.0366241 0)
(7.36033 0.0385817 0)
(7.35996 0.0406296 0)
(7.35926 0.0428057 0)
(7.35818 0.0451567 0)
(7.35671 0.047741 0)
(7.35479 0.0506321 0)
(7.35238 0.0539244 0)
(7.34944 0.0577394 0)
(7.3459 0.0622348 0)
(7.34174 0.0676166 0)
(7.33691 0.0741546 0)
(7.33141 0.0822032 0)
(7.3253 0.0922266 0)
(7.31872 0.104833 0)
(7.31205 0.120804 0)
(7.30587 0.141127 0)
(7.30153 0.167029 0)
(7.30064 0.199675 0)
(7.30776 0.240768 0)
(7.32548 0.288359 0)
(7.33374 0.00546514 0)
(7.33765 0.0134193 0)
(7.34183 0.0188282 0)
(7.34503 0.0232213 0)
(7.34774 0.0266727 0)
(7.35011 0.0293476 0)
(7.35206 0.0315644 0)
(7.35369 0.0334928 0)
(7.35507 0.0352265 0)
(7.3562 0.0368456 0)
(7.3571 0.0384125 0)
(7.35776 0.0399751 0)
(7.35819 0.0415756 0)
(7.35837 0.0432547 0)
(7.35828 0.0450539 0)
(7.35791 0.0470194 0)
(7.35722 0.0492022 0)
(7.35619 0.0516647 0)
(7.35478 0.0544841 0)
(7.35297 0.0577566 0)
(7.35072 0.0616039 0)
(7.34799 0.0661811 0)
(7.34479 0.0716858 0)
(7.34112 0.0783701 0)
(7.33704 0.0865548 0)
(7.33266 0.0966445 0)
(7.32824 0.109141 0)
(7.32421 0.124655 0)
(7.32126 0.143874 0)
(7.32067 0.167574 0)
(7.32395 0.196225 0)
(7.33443 0.230388 0)
(7.35413 0.267861 0)
(7.33345 0.00458666 0)
(7.33613 0.0114506 0)
(7.33937 0.0157592 0)
(7.34209 0.0189946 0)
(7.34455 0.0216202 0)
(7.34682 0.0238175 0)
(7.34879 0.0258101 0)
(7.35048 0.0277037 0)
(7.35195 0.0295416 0)
(7.35318 0.031363 0)
(7.35419 0.0332012 0)
(7.35498 0.0350846 0)
(7.35554 0.0370414 0)
(7.35588 0.0391026 0)
(7.35596 0.0413021 0)
(7.35579 0.043679 0)
(7.35534 0.0462886 0)
(7.3546 0.0491937 0)
(7.35355 0.0524705 0)
(7.35217 0.0562144 0)
(7.35046 0.060544 0)
(7.34841 0.0656072 0)
(7.34606 0.071588 0)
(7.34347 0.0787141 0)
(7.34074 0.0872637 0)
(7.33808 0.0975716 0)
(7.3358 0.110026 0)
(7.33442 0.125063 0)
(7.33467 0.143101 0)
(7.33775 0.164521 0)
(7.34504 0.189317 0)
(7.35906 0.217293 0)
(7.38122 0.24632 0)
(7.33331 0.00394053 0)
(7.3354 0.0104947 0)
(7.33826 0.0153437 0)
(7.34087 0.019367 0)
(7.34323 0.0228029 0)
(7.34538 0.0257009 0)
(7.34724 0.0282203 0)
(7.34885 0.0304835 0)
(7.35022 0.0325663 0)
(7.35139 0.0345357 0)
(7.35235 0.0364501 0)
(7.35311 0.038359 0)
(7.35367 0.0403077 0)
(7.35402 0.0423411 0)
(7.35416 0.0445075 0)
(7.35408 0.0468678 0)
(7.35376 0.0494655 0)
(7.3532 0.052366 0)
(7.35239 0.0556475 0)
(7.35134 0.0594035 0)
(7.35004 0.0637473 0)
(7.34854 0.0688159 0)
(7.34689 0.0747735 0)
(7.34517 0.081815 0)
(7.34354 0.0901675 0)
(7.34225 0.100087 0)
(7.34163 0.111847 0)
(7.34221 0.125714 0)
(7.3447 0.141881 0)
(7.35013 0.160425 0)
(7.35964 0.181035 0)
(7.37505 0.203101 0)
(7.39721 0.224724 0)
(7.33321 0.0034757 0)
(7.33477 0.00953507 0)
(7.33709 0.0141213 0)
(7.33931 0.0177691 0)
(7.34138 0.0207829 0)
(7.34332 0.0233045 0)
(7.34507 0.0255194 0)
(7.34663 0.0275623 0)
(7.34801 0.0295097 0)
(7.34921 0.0314196 0)
(7.35024 0.0333402 0)
(7.35109 0.0353116 0)
(7.35175 0.0373707 0)
(7.35224 0.0395549 0)
(7.35253 0.0419024 0)
(7.35264 0.0444427 0)
(7.35254 0.0472445 0)
(7.35225 0.0503688 0)
(7.35176 0.0538879 0)
(7.3511 0.0578873 0)
(7.35028 0.0624677 0)
(7.34937 0.067748 0)
(7.34842 0.0738665 0)
(7.34757 0.0809805 0)
(7.34698 0.0892625 0)
(7.34691 0.0988921 0)
(7.34772 0.110036 0)
(7.34988 0.122819 0)
(7.35402 0.137264 0)
(7.36099 0.153235 0)
(7.37164 0.170253 0)
(7.38721 0.187527 0)
(7.40812 0.203447 0)
(7.33315 0.00311682 0)
(7.33436 0.00875959 0)
(7.33633 0.0133025 0)
(7.33836 0.0170924 0)
(7.34031 0.0203794 0)
(7.34217 0.0232536 0)
(7.34388 0.0258276 0)
(7.34541 0.0281982 0)
(7.34677 0.0304296 0)
(7.34797 0.0325769 0)
(7.349 0.0346907 0)
(7.34987 0.0368165 0)
(7.35058 0.0389975 0)
(7.35113 0.0412779 0)
(7.35152 0.0437061 0)
(7.35175 0.0463395 0)
(7.35183 0.0492224 0)
(7.35176 0.0524131 0)
(7.35155 0.0559803 0)
(7.35124 0.0600033 0)
(7.35086 0.0645731 0)
(7.35047 0.0697922 0)
(7.35018 0.0757742 0)
(7.3501 0.0826398 0)
(7.35042 0.0905108 0)
(7.35139 0.0994981 0)
(7.35334 0.10968 0)
(7.35671 0.121072 0)
(7.36201 0.133574 0)
(7.36988 0.146926 0)
(7.38093 0.160583 0)
(7.39595 0.173728 0)
(7.41503 0.185048 0)
(7.33311 0.00283977 0)
(7.33406 0.00810467 0)
(7.3357 0.0124913 0)
(7.33748 0.0161689 0)
(7.33922 0.019329 0)
(7.34091 0.0220666 0)
(7.34249 0.0244978 0)
(7.34395 0.0267316 0)
(7.34527 0.0288467 0)
(7.34647 0.0309055 0)
(7.34753 0.0329617 0)
(7.34847 0.0350617 0)
(7.34927 0.0372477 0)
(7.34993 0.0395599 0)
(7.35047 0.0420379 0)
(7.35088 0.0447232 0)
(7.35118 0.0476674 0)
(7.35137 0.050927 0)
(7.35149 0.0545636 0)
(7.35156 0.0586455 0)
(7.35164 0.0632479 0)
(7.3518 0.0684523 0)
(7.35213 0.0743437 0)
(7.35277 0.0810059 0)
(7.35391 0.0885128 0)
(7.35577 0.0969155 0)
(7.35865 0.10622 0)
(7.36291 0.116365 0)
(7.36896 0.127171 0)
(7.37725 0.138317 0)
(7.3882 0.149259 0)
(7.40224 0.15924 0)
(7.41926 0.167229 0)
(7.33308 0.00261848 0)
(7.33385 0.00754672 0)
(7.33524 0.0117835 0)
(7.33682 0.0154185 0)
(7.33843 0.0186118 0)
(7.34003 0.0214526 0)
(7.34157 0.024032 0)
(7.34301 0.0264357 0)
(7.34434 0.0287272 0)
(7.34555 0.0309585 0)
(7.34665 0.0331765 0)
(7.34764 0.0354241 0)
(7.34852 0.0377422 0)
(7.34928 0.0401715 0)
(7.34995 0.0427541 0)
(7.35052 0.045534 0)
(7.35102 0.0485577 0)
(7.35145 0.0518748 0)
(7.35186 0.0555391 0)
(7.35227 0.059609 0)
(7.35276 0.0641461 0)
(7.35339 0.0692136 0)
(7.35427 0.0748722 0)
(7.35552 0.0811744 0)
(7.35732 0.088155 0)
(7.35988 0.095819 0)
(7.36344 0.104122 0)
(7.36829 0.112952 0)
(7.37473 0.122093 0)
(7.38307 0.131209 0)
(7.39355 0.139803 0)
(7.40637 0.147221 0)
(7.42131 0.152683 0)
(7.33306 0.00243746 0)
(7.33369 0.00706843 0)
(7.33487 0.0111426 0)
(7.33628 0.0146897 0)
(7.33775 0.0178242 0)
(7.33923 0.0206203 0)
(7.34067 0.0231557 0)
(7.34205 0.0255104 0)
(7.34335 0.0277511 0)
(7.34456 0.0299341 0)
(7.34569 0.0321097 0)
(7.34673 0.0343233 0)
(7.34769 0.0366164 0)
(7.34856 0.0390288 0)
(7.34937 0.0415994 0)
(7.35011 0.0443686 0)
(7.35082 0.0473782 0)
(7.35151 0.0506723 0)
(7.35221 0.054297 0)
(7.35297 0.0582996 0)
(7.35385 0.062727 0)
(7.35494 0.0676234 0)
(7.35631 0.0730262 0)
(7.35811 0.0789594 0)
(7.36048 0.0854256 0)
(7.36359 0.0923944 0)
(7.36765 0.0997876 0)
(7.37286 0.107464 0)
(7.37945 0.115198 0)
(7.38761 0.12267 0)
(7.39744 0.129447 0)
(7.40898 0.134997 0)
(7.42197 0.138747 0)
(7.33305 0.00228561 0)
(7.33357 0.00665217 0)
(7.33459 0.0105629 0)
(7.33585 0.0140205 0)
(7.33721 0.0171132 0)
(7.3386 0.0199101 0)
(7.34 0.0224803 0)
(7.34136 0.024894 0)
(7.34266 0.0272105 0)
(7.3439 0.0294796 0)
(7.34508 0.0317459 0)
(7.34619 0.0340498 0)
(7.34724 0.036429 0)
(7.34823 0.0389199 0)
(7.34917 0.0415582 0)
(7.35009 0.0443805 0)
(7.35099 0.0474237 0)
(7.35192 0.0507254 0)
(7.35289 0.0543232 0)
(7.35397 0.0582535 0)
(7.3552 0.0625501 0)
(7.35667 0.0672409 0)
(7.35847 0.0723441 0)
(7.3607 0.077862 0)
(7.3635 0.0837737 0)
(7.36701 0.0900261 0)
(7.37138 0.096523 0)
(7.37677 0.103114 0)
(7.38331 0.109584 0)
(7.3911 0.115648 0)
(7.40017 0.12095 0)
(7.41046 0.125074 0)
(7.42168 0.127617 0)
(7.33304 0.0021551 0)
(7.33349 0.00628512 0)
(7.33438 0.0100341 0)
(7.33551 0.0133908 0)
(7.33676 0.0164192 0)
(7.33807 0.0191769 0)
(7.33941 0.0217217 0)
(7.34073 0.0241144 0)
(7.34202 0.0264099 0)
(7.34327 0.0286565 0)
(7.34448 0.0308981 0)
(7.34565 0.0331751 0)
(7.34677 0.0355248 0)
(7.34787 0.0379824 0)
(7.34895 0.040582 0)
(7.35003 0.0433564 0)
(7.35113 0.0463382 0)
(7.35228 0.0495588 0)
(7.35351 0.0530476 0)
(7.35488 0.0568314 0)
(7.35643 0.0609317 0)
(7.35825 0.0653625 0)
(7.36041 0.070126 0)
(7.36301 0.0752076 0)
(7.36614 0.0805701 0)
(7.36994 0.0861468 0)
(7.3745 0.0918339 0)
(7.37993 0.097485 0)
(7.3863 0.102906 0)
(7.39366 0.107855 0)
(7.40196 0.112049 0)
(7.41111 0.115176 0)
(7.42083 0.116965 0)
(7.33304 0.00204035 0)
(7.33342 0.00595635 0)
(7.33421 0.00954693 0)
(7.33524 0.0127971 0)
(7.33641 0.0157552 0)
(7.33765 0.0184721 0)
(7.33894 0.0209997 0)
(7.34025 0.0233927 0)
(7.34154 0.0257017 0)
(7.34282 0.0279713 0)
(7.34408 0.0302417 0)
(7.34532 0.0325495 0)
(7.34654 0.0349282 0)
(7.34776 0.037409 0)
(7.34898 0.0400217 0)
(7.35022 0.0427943 0)
(7.3515 0.0457534 0)
(7.35286 0.0489236 0)
(7.35433 0.0523265 0)
(7.35596 0.0559795 0)
(7.3578 0.0598938 0)
(7.3599 0.0640717 0)
(7.36236 0.0685035 0)
(7.36523 0.0731628 0)
(7.36861 0.0780031 0)
(7.37258 0.0829521 0)
(7.37721 0.0879082 0)
(7.38258 0.0927374 0)
(7.3887 0.0972729 0)
(7.39558 0.101319 0)
(7.40315 0.10466 0)
(7.41128 0.107071 0)
(7.41972 0.108382 0)
(7.33303 0.00193722 0)
(7.33337 0.00565707 0)
(7.33408 0.00909316 0)
(7.33503 0.0122316 0)
(7.33612 0.0151096 0)
(7.33731 0.0177703 0)
(7.33856 0.0202589 0)
(7.33985 0.0226228 0)
(7.34115 0.0249071 0)
(7.34245 0.0271528 0)
(7.34375 0.0293971 0)
(7.34504 0.0316742 0)
(7.34635 0.0340155 0)
(7.34766 0.0364499 0)
(7.34901 0.039004 0)
(7.35039 0.0417023 0)
(7.35185 0.044567 0)
(7.3534 0.047617 0)
(7.35508 0.0508675 0)
(7.35694 0.0543282 0)
(7.35901 0.0580021 0)
(7.36136 0.0618827 0)
(7.36405 0.0659516 0)
(7.36714 0.0701759 0)
(7.37069 0.0745042 0)
(7.37476 0.078865 0)
(7.3794 0.0831639 0)
(7.38464 0.0872838 0)
(7.39048 0.0910869 0)
(7.39689 0.0944201 0)
(7.4038 0.0971249 0)
(7.41107 0.0990459 0)
(7.41848 0.100084 0)
(7.33303 0.00184258 0)
(7.33334 0.00538002 0)
(7.33398 0.00866523 0)
(7.33486 0.0116881 0)
(7.3359 0.0144785 0)
(7.33704 0.0170745 0)
(7.33827 0.0195165 0)
(7.33954 0.0218469 0)
(7.34085 0.0241071 0)
(7.34218 0.0263346 0)
(7.34353 0.0285637 0)
(7.34489 0.0308255 0)
(7.34628 0.033148 0)
(7.34771 0.0355566 0)
(7.34917 0.0380737 0)
(7.3507 0.0407193 0)
(7.35232 0.0435101 0)
(7.35405 0.0464595 0)
(7.35592 0.0495761 0)
(7.35798 0.0528631 0)
(7.36025 0.0563163 0)
(7.3628 0.0599229 0)
(7.36567 0.063659 0)
(7.36891 0.0674878 0)
(7.37256 0.071358 0)
(7.37666 0.0752022 0)
(7.38125 0.0789369 0)
(7.38632 0.0824639 0)
(7.39187 0.0856734 0)
(7.39784 0.0884496 0)
(7.40416 0.0906809 0)
(7.41071 0.0922654 0)
(7.4173 0.0931551 0)
(7.33303 0.00175401 0)
(7.33331 0.00511921 0)
(7.33391 0.00825642 0)
(7.33473 0.0111603 0)
(7.33572 0.0138562 0)
(7.33683 0.0163776 0)
(7.33804 0.0187603 0)
(7.33931 0.0210421 0)
(7.34062 0.0232595 0)
(7.34198 0.0254462 0)
(7.34337 0.0276331 0)
(7.3448 0.0298481 0)
(7.34627 0.0321161 0)
(7.34778 0.0344592 0)
(7.34936 0.0368965 0)
(7.35102 0.0394443 0)
(7.35277 0.0421153 0)
(7.35466 0.0449181 0)
(7.35669 0.0478567 0)
(7.35891 0.0509292 0)
(7.36136 0.0541269 0)
(7.36406 0.0574327 0)
(7.36706 0.0608201 0)
(7.3704 0.0642518 0)
(7.3741 0.067679 0)
(7.3782 0.0710414 0)
(7.38269 0.0742676 0)
(7.38758 0.0772778 0)
(7.39284 0.0799871 0)
(7.39842 0.0823112 0)
(7.40424 0.0841747 0)
(7.41021 0.0855153 0)
(7.41616 0.0863169 0)
(7.33303 0.00166955 0)
(7.33329 0.00486962 0)
(7.33385 0.00786074 0)
(7.33464 0.0106424 0)
(7.33559 0.0132374 0)
(7.33667 0.0156757 0)
(7.33786 0.0179898 0)
(7.33913 0.0202134 0)
(7.34047 0.0223794 0)
(7.34186 0.0245186 0)
(7.3433 0.0266586 0)
(7.34478 0.0288243 0)
(7.34633 0.0310377 0)
(7.34794 0.0333175 0)
(7.34962 0.0356795 0)
(7.35139 0.0381359 0)
(7.35328 0.0406954 0)
(7.35529 0.0433623 0)
(7.35747 0.0461364 0)
(7.35983 0.0490117 0)
(7.36241 0.0519757 0)
(7.36523 0.055009 0)
(7.36832 0.058084 0)
(7.37172 0.0611647 0)
(7.37544 0.0642065 0)
(7.37949 0.067157 0)
(7.38387 0.069957 0)
(7.38857 0.0725432 0)
(7.39356 0.0748519 0)
(7.39879 0.0768242 0)
(7.40419 0.0784118 0)
(7.40968 0.0795796 0)
(7.41514 0.080331 0)
(7.33302 0.00158762 0)
(7.33328 0.00462701 0)
(7.33381 0.00747278 0)
(7.33457 0.0101289 0)
(7.33549 0.0126168 0)
(7.33656 0.0149637 0)
(7.33774 0.0171991 0)
(7.33902 0.0193529 0)
(7.34037 0.0214545 0)
(7.34179 0.0235311 0)
(7.34327 0.0256071 0)
(7.34482 0.0277042 0)
(7.34643 0.0298411 0)
(7.34812 0.0320334 0)
(7.3499 0.0342936 0)
(7.35177 0.0366308 0)
(7.35377 0.0390501 0)
(7.3559 0.0415528 0)
(7.35819 0.0441354 0)
(7.36066 0.0467893 0)
(7.36333 0.0495002 0)
(7.36624 0.0522477 0)
(7.36939 0.055005 0)
(7.37282 0.0577388 0)
(7.37652 0.0604099 0)
(7.3805 0.0629739 0)
(7.38476 0.0653829 0)
(7.38928 0.0675883 0)
(7.39402 0.069544 0)
(7.39895 0.0712098 0)
(7.404 0.0725566 0)
(7.40912 0.0735676 0)
(7.4142 0.0742566 0)
(7.33302 0.00150687 0)
(7.33327 0.00438772 0)
(7.33378 0.00708773 0)
(7.33452 0.00961484 0)
(7.33543 0.0119898 0)
(7.33649 0.0142379 0)
(7.33767 0.0163859 0)
(7.33895 0.0184611 0)
(7.34032 0.0204895 0)
(7.34177 0.0224954 0)
(7.3433 0.0245002 0)
(7.3449 0.0265229 0)
(7.34658 0.0285793 0)
(7.34834 0.0306822 0)
(7.3502 0.032841 0)
(7.35217 0.0350619 0)
(7.35425 0.0373471 0)
(7.35648 0.039695 0)
(7.35886 0.0420997 0)
(7.36141 0.0445507 0)
(7.36416 0.0470324 0)
(7.36712 0.0495246 0)
(7.37031 0.0520017 0)
(7.37373 0.0544338 0)
(7.37739 0.0567869 0)
(7.38129 0.059024 0)
(7.38542 0.0611073 0)
(7.38976 0.0630002 0)
(7.39428 0.0646697 0)
(7.39894 0.0660892 0)
(7.4037 0.0672425 0)
(7.40852 0.0681239 0)
(7.41331 0.0687521 0)
(7.33302 0.00142616 0)
(7.33326 0.00414855 0)
(7.33377 0.00670114 0)
(7.33449 0.00909516 0)
(7.33539 0.011351 0)
(7.33644 0.0134923 0)
(7.33763 0.0155436 0)
(7.33892 0.0175291 0)
(7.34032 0.0194719 0)
(7.3418 0.0213932 0)
(7.34337 0.0233117 0)
(7.34502 0.0252431 0)
(7.34676 0.0272007 0)
(7.34859 0.0291943 0)
(7.35052 0.0312309 0)
(7.35256 0.0333139 0)
(7.35473 0.0354435 0)
(7.35703 0.0376159 0)
(7.35948 0.0398236 0)
(7.3621 0.042055 0)
(7.3649 0.0442946 0)
(7.36789 0.0465229 0)
(7.37108 0.0487167 0)
(7.37447 0.0508494 0)
(7.37808 0.0528923 0)
(7.38189 0.0548156 0)
(7.38589 0.0565898 0)
(7.39006 0.0581875 0)
(7.39438 0.0595855 0)
(7.39882 0.0607668 0)
(7.40333 0.0617235 0)
(7.4079 0.0624559 0)
(7.41245 0.0629836 0)
(7.33302 0.00134448 0)
(7.33326 0.00390673 0)
(7.33376 0.00630922 0)
(7.33448 0.00856598 0)
(7.33537 0.0106974 0)
(7.33643 0.012726 0)
(7.33762 0.0146743 0)
(7.33893 0.0165644 0)
(7.34034 0.0184168 0)
(7.34185 0.0202499 0)
(7.34346 0.0220798 0)
(7.34516 0.0239196 0)
(7.34695 0.02578 0)
(7.34883 0.0276684 0)
(7.35083 0.0295893 0)
(7.35293 0.0315441 0)
(7.35515 0.0335307 0)
(7.35751 0.0355438 0)
(7.36002 0.0375748 0)
(7.36267 0.0396115 0)
(7.3655 0.0416386 0)
(7.36849 0.0436376 0)
(7.37167 0.0455876 0)
(7.37502 0.0474653 0)
(7.37856 0.049247 0)
(7.38226 0.0509082 0)
(7.38613 0.0524261 0)
(7.39014 0.0537801 0)
(7.39428 0.0549539 0)
(7.39851 0.0559369 0)
(7.40281 0.0567254 0)
(7.40716 0.0573224 0)
(7.41152 0.0577462 0)
(7.33302 0.00126091 0)
(7.33326 0.00365958 0)
(7.33376 0.00590783 0)
(7.33448 0.00802173 0)
(7.33537 0.0100214 0)
(7.33643 0.011928 0)
(7.33764 0.0137621 0)
(7.33897 0.0155433 0)
(7.34041 0.0172894 0)
(7.34196 0.0190164 0)
(7.3436 0.0207377 0)
(7.34534 0.0224643 0)
(7.34718 0.0242044 0)
(7.34912 0.0259634 0)
(7.35116 0.0277438 0)
(7.35332 0.0295455 0)
(7.35559 0.0313649 0)
(7.358 0.0331958 0)
(7.36053 0.0350289 0)
(7.36322 0.0368522 0)
(7.36605 0.038651 0)
(7.36904 0.0404084 0)
(7.37218 0.0421058 0)
(7.37548 0.0437236 0)
(7.37894 0.0452417 0)
(7.38254 0.0466403 0)
(7.38628 0.0479016 0)
(7.39014 0.0490101 0)
(7.3941 0.0499542 0)
(7.39815 0.0507268 0)
(7.40226 0.0513267 0)
(7.40642 0.0517571 0)
(7.4106 0.052034 0)
(7.33302 0.00117465 0)
(7.33326 0.00340502 0)
(7.33376 0.00549461 0)
(7.33448 0.00746154 0)
(7.33539 0.00932619 0)
(7.33646 0.0111089 0)
(7.33768 0.0128288 0)
(7.33902 0.0145036 0)
(7.34049 0.0161489 0)
(7.34206 0.017778 0)
(7.34373 0.0194019 0)
(7.34551 0.0210292 0)
(7.34738 0.0226656 0)
(7.34936 0.0243146 0)
(7.35144 0.0259766 0)
(7.35363 0.0276499 0)
(7.35593 0.0293296 0)
(7.35836 0.0310086 0)
(7.36091 0.0326773 0)
(7.3636 0.0343237 0)
(7.36642 0.0359337 0)
(7.36938 0.0374922 0)
(7.37248 0.0389828 0)
(7.37571 0.0403882 0)
(7.37908 0.0416918 0)
(7.38257 0.0428774 0)
(7.38617 0.0439308 0)
(7.38988 0.0448399 0)
(7.39368 0.0455962 0)
(7.39755 0.0461944 0)
(7.40148 0.046634 0)
(7.40546 0.046917 0)
(7.40946 0.0470567 0)
(7.33302 0.00108482 0)
(7.33326 0.00314006 0)
(7.33377 0.00506354 0)
(7.33451 0.00687428 0)
(7.33543 0.00859179 0)
(7.33651 0.0102348 0)
(7.33775 0.0118207 0)
(7.33913 0.013365 0)
(7.34062 0.0148811 0)
(7.34222 0.0163806 0)
(7.34393 0.0178725 0)
(7.34575 0.0193637 0)
(7.34766 0.0208584 0)
(7.34967 0.0223586 0)
(7.35179 0.0238638 0)
(7.35401 0.025371 0)
(7.35634 0.026875 0)
(7.35879 0.0283682 0)
(7.36135 0.029841 0)
(7.36403 0.0312821 0)
(7.36683 0.0326786 0)
(7.36975 0.0340168 0)
(7.37279 0.0352818 0)
(7.37596 0.036459 0)
(7.37923 0.0375341 0)
(7.3826 0.0384936 0)
(7.38608 0.0393258 0)
(7.38964 0.040021 0)
(7.39327 0.040572 0)
(7.39697 0.0409747 0)
(7.40072 0.041228 0)
(7.40452 0.0413325 0)
(7.40835 0.0412984 0)
(7.33302 0.000990795 0)
(7.33327 0.00286411 0)
(7.33379 0.00461744 0)
(7.33453 0.00627195 0)
(7.33546 0.00784756 0)
(7.33656 0.00936227 0)
(7.33782 0.0108318 0)
(7.33921 0.0122693 0)
(7.34072 0.0136857 0)
(7.34234 0.0150895 0)
(7.34407 0.0164874 0)
(7.34591 0.0178834 0)
(7.34784 0.0192798 0)
(7.34987 0.0206765 0)
(7.35201 0.0220715 0)
(7.35424 0.0234607 0)
(7.35658 0.0248378 0)
(7.35902 0.026195 0)
(7.36157 0.0275229 0)
(7.36423 0.0288106 0)
(7.36699 0.0300463 0)
(7.36986 0.0312174 0)
(7.37284 0.0323109 0)
(7.37591 0.0333141 0)
(7.37908 0.0342147 0)
(7.38233 0.0350014 0)
(7.38567 0.0356643 0)
(7.38908 0.0361951 0)
(7.39255 0.0365878 0)
(7.39607 0.0368382 0)
(7.39964 0.0369445 0)
(7.40326 0.0369055 0)
(7.4069 0.0367292 0)
(7.33303 0.000891244 0)
(7.33328 0.00257046 0)
(7.33381 0.00413817 0)
(7.33458 0.00561504 0)
(7.33554 0.00701931 0)
(7.33668 0.00836747 0)
(7.33797 0.009674 0)
(7.33939 0.010951 0)
(7.34094 0.0122081 0)
(7.3426 0.013453 0)
(7.34437 0.0146912 0)
(7.34623 0.0159259 0)
(7.34819 0.0171582 0)
(7.35025 0.0183875 0)
(7.3524 0.019611 0)
(7.35465 0.0208241 0)
(7.35699 0.0220205 0)
(7.35943 0.0231925 0)
(7.36196 0.0243307 0)
(7.36459 0.0254247 0)
(7.36731 0.0264636 0)
(7.37012 0.0274356 0)
(7.37303 0.028329 0)
(7.37601 0.0291325 0)
(7.37907 0.029835 0)
(7.38221 0.0304265 0)
(7.38541 0.0308983 0)
(7.38866 0.0312426 0)
(7.39197 0.0314537 0)
(7.39532 0.031527 0)
(7.39871 0.0314599 0)
(7.40213 0.0312495 0)
(7.40557 0.0309015 0)
(7.33303 0.000786365 0)
(7.33328 0.00226654 0)
(7.33383 0.00365482 0)
(7.33461 0.00497485 0)
(7.33558 0.00624423 0)
(7.33673 0.0074768 0)
(7.33803 0.00868328 0)
(7.33947 0.00987155 0)
(7.34103 0.0110474 0)
(7.3427 0.012215 0)
(7.34448 0.0133764 0)
(7.34636 0.0145325 0)
(7.34833 0.0156823 0)
(7.3504 0.0168236 0)
(7.35255 0.0179525 0)
(7.3548 0.0190639 0)
(7.35713 0.0201513 0)
(7.35955 0.0212071 0)
(7.36205 0.0222224 0)
(7.36463 0.0231879 0)
(7.3673 0.0240935 0)
(7.37004 0.0249288 0)
(7.37286 0.0256837 0)
(7.37574 0.026348 0)
(7.37869 0.0269124 0)
(7.38169 0.027368 0)
(7.38475 0.0277069 0)
(7.38784 0.0279224 0)
(7.39098 0.0280087 0)
(7.39414 0.0279611 0)
(7.39734 0.0277763 0)
(7.40055 0.0274498 0)
(7.40378 0.0269863 0)
(7.33303 0.000671728 0)
(7.33331 0.00192364 0)
(7.33389 0.00308687 0)
(7.33472 0.00418435 0)
(7.33575 0.00523365 0)
(7.33695 0.00625 0)
(7.3383 0.00724538 0)
(7.33979 0.00822807 0)
(7.3414 0.00920373 0)
(7.34311 0.010176 0)
(7.34492 0.0111468 0)
(7.34682 0.012116 0)
(7.34882 0.0130823 0)
(7.35089 0.0140425 0)
(7.35305 0.0149923 0)
(7.35529 0.0159258 0)
(7.35761 0.0168361 0)
(7.36 0.0177152 0)
(7.36247 0.0185544 0)
(7.36501 0.0193443 0)
(7.36761 0.0200753 0)
(7.37028 0.0207374 0)
(7.37301 0.021321 0)
(7.3758 0.0218167 0)
(7.37863 0.0222154 0)
(7.38151 0.0225088 0)
(7.38442 0.0226895 0)
(7.38736 0.0227505 0)
(7.39033 0.022686 0)
(7.39331 0.0224908 0)
(7.39631 0.0221608 0)
(7.39932 0.0216907 0)
(7.40232 0.0210834 0)
(7.33303 0.000554142 0)
(7.3333 0.00159819 0)
(7.33389 0.00259671 0)
(7.33472 0.00357084 0)
(7.33575 0.00452852 0)
(7.33696 0.00547532 0)
(7.33833 0.00641515 0)
(7.33983 0.00734993 0)
(7.34145 0.00828041 0)
(7.34317 0.00920666 0)
(7.345 0.0101272 0)
(7.34691 0.0110397 0)
(7.34891 0.0119413 0)
(7.35099 0.0128288 0)
(7.35315 0.0136977 0)
(7.35537 0.0145427 0)
(7.35767 0.0153578 0)
(7.36004 0.0161359 0)
(7.36247 0.0168696 0)
(7.36495 0.0175507 0)
(7.3675 0.0181711 0)
(7.37009 0.0187222 0)
(7.37273 0.0191959 0)
(7.3754 0.0195839 0)
(7.37811 0.0198785 0)
(7.38085 0.0200725 0)
(7.3836 0.0201591 0)
(7.38638 0.020132 0)
(7.38916 0.0199856 0)
(7.39195 0.0197146 0)
(7.39473 0.0193147 0)
(7.39752 0.0187799 0)
(7.40029 0.0181128 0)
(7.33304 0.000406629 0)
(7.33338 0.00113467 0)
(7.33406 0.00180496 0)
(7.33499 0.00245064 0)
(7.33612 0.00309167 0)
(7.33741 0.00374028 0)
(7.33884 0.00440117 0)
(7.3404 0.0050752 0)
(7.34206 0.00576207 0)
(7.34382 0.00646144 0)
(7.34567 0.00717038 0)
(7.34759 0.00788491 0)
(7.34959 0.0086004 0)
(7.35167 0.00931135 0)
(7.35381 0.0100116 0)
(7.35601 0.0106945 0)
(7.35828 0.0113527 0)
(7.36061 0.0119783 0)
(7.36298 0.0125633 0)
(7.36541 0.0130993 0)
(7.36788 0.013578 0)
(7.3704 0.0139909 0)
(7.37294 0.0143298 0)
(7.37551 0.0145866 0)
(7.37811 0.0147537 0)
(7.38072 0.014824 0)
(7.38334 0.0147906 0)
(7.38596 0.0146473 0)
(7.38858 0.0143882 0)
(7.39119 0.0140081 0)
(7.39378 0.0135021 0)
(7.39635 0.0128643 0)
(7.3989 0.012096 0)
(7.33302 0.000294126 0)
(7.33331 0.000874114 0)
(7.33396 0.00148455 0)
(7.33489 0.00211768 0)
(7.33602 0.00276289 0)
(7.33734 0.00342191 0)
(7.33881 0.00409285 0)
(7.3404 0.00477058 0)
(7.34209 0.00545084 0)
(7.34389 0.00613018 0)
(7.34576 0.00680157 0)
(7.34771 0.00746223 0)
(7.34974 0.00811065 0)
(7.35182 0.00874386 0)
(7.35397 0.00935772 0)
(7.35617 0.00994745 0)
(7.35842 0.0105078 0)
(7.36072 0.0110327 0)
(7.36305 0.0115162 0)
(7.36543 0.0119516 0)
(7.36783 0.0123324 0)
(7.37026 0.0126519 0)
(7.37271 0.0129035 0)
(7.37517 0.0130807 0)
(7.37763 0.0131771 0)
(7.3801 0.0131867 0)
(7.38256 0.0131036 0)
(7.385 0.0129219 0)
(7.38743 0.0126359 0)
(7.38983 0.0122405 0)
(7.39221 0.0117317 0)
(7.39455 0.0111035 0)
(7.39685 0.0103575 0)
(7.33307 2.197e-05 0)
(7.33356 1.18318e-05 0)
(7.33442 4.0822e-05 0)
(7.3355 0.000157843 0)
(7.33674 0.000358141 0)
(7.33814 0.00062878 0)
(7.33967 0.000958503 0)
(7.34129 0.00133671 0)
(7.34301 0.0017542 0)
(7.3448 0.00221874 0)
(7.34666 0.00270659 0)
(7.34859 0.00320522 0)
(7.35059 0.00370767 0)
(7.35265 0.00420734 0)
(7.35476 0.00469743 0)
(7.35692 0.00517096 0)
(7.35913 0.0056208 0)
(7.36138 0.00603932 0)
(7.36366 0.00642034 0)
(7.36598 0.00675708 0)
(7.36832 0.0070422 0)
(7.37067 0.00726845 0)
(7.37304 0.00742894 0)
(7.37541 0.00751705 0)
(7.37778 0.00752646 0)
(7.38014 0.00745111 0)
(7.38248 0.00728527 0)
(7.3848 0.00702364 0)
(7.38709 0.00666108 0)
(7.38934 0.0061932 0)
(7.39154 0.00561513 0)
(7.3937 0.00492068 0)
(7.3958 0.00411102 0)
(7.33302 -3.6391e-05 0)
(7.33337 1.71356e-05 0)
(7.3342 0.000240598 0)
(7.33535 0.000559112 0)
(7.33669 0.000927343 0)
(7.33818 0.0013282 0)
(7.33979 0.00174601 0)
(7.34151 0.00216889 0)
(7.34333 0.00259058 0)
(7.34522 0.00299037 0)
(7.34716 0.00338454 0)
(7.34915 0.00377637 0)
(7.35119 0.00416205 0)
(7.35328 0.00453788 0)
(7.35541 0.00490061 0)
(7.35758 0.00524685 0)
(7.35978 0.00557302 0)
(7.362 0.00586929 0)
(7.36425 0.00613392 0)
(7.36651 0.00636307 0)
(7.36878 0.00655198 0)
(7.37105 0.0066955 0)
(7.37331 0.0067886 0)
(7.37556 0.00682636 0)
(7.3778 0.00680416 0)
(7.38 0.00671701 0)
(7.38217 0.00656063 0)
(7.38431 0.00632932 0)
(7.3864 0.00601106 0)
(7.38843 0.00560745 0)
(7.39041 0.00511679 0)
(7.39232 0.00453304 0)
(7.39416 0.00385649 0)
(7.33314 -0.000630569 0)
(7.334 -0.00177516 0)
(7.33519 -0.00251259 0)
(7.33648 -0.00294859 0)
(7.33788 -0.00317453 0)
(7.33939 -0.0032229 0)
(7.34098 -0.00313756 0)
(7.34266 -0.00295985 0)
(7.34438 -0.00271843 0)
(7.34617 -0.00245105 0)
(7.34805 -0.00215451 0)
(7.34999 -0.00183626 0)
(7.35198 -0.00150828 0)
(7.35402 -0.00118044 0)
(7.35611 -0.000860709 0)
(7.35824 -0.000556197 0)
(7.36039 -0.000273681 0)
(7.36257 -1.35276e-05 0)
(7.36478 0.000214791 0)
(7.367 0.000404208 0)
(7.36923 0.000549169 0)
(7.37146 0.000644725 0)
(7.37368 0.000685936 0)
(7.37589 0.000667942 0)
(7.37808 0.000585886 0)
(7.38023 0.00043567 0)
(7.38235 0.000212801 0)
(7.38441 -8.55745e-05 0)
(7.38641 -0.000455787 0)
(7.38836 -0.00090781 0)
(7.39024 -0.00144696 0)
(7.39205 -0.00207651 0)
(7.39376 -0.00279503 0)
(7.33308 -0.000258009 0)
(7.33395 -0.000545576 0)
(7.33549 -0.000645116 0)
(7.33718 -0.000709492 0)
(7.33896 -0.000724893 0)
(7.34084 -0.000695737 0)
(7.34276 -0.000647506 0)
(7.34471 -0.000586811 0)
(7.34671 -0.000513107 0)
(7.34874 -0.000412585 0)
(7.35082 -0.000301878 0)
(7.35292 -0.000187406 0)
(7.35506 -7.06781e-05 0)
(7.35722 4.66445e-05 0)
(7.3594 0.000162364 0)
(7.3616 0.000273846 0)
(7.36382 0.000377955 0)
(7.36605 0.000477622 0)
(7.36828 0.000565756 0)
(7.3705 0.000637452 0)
(7.37272 0.000689093 0)
(7.37491 0.000717452 0)
(7.37708 0.000719097 0)
(7.37922 0.000690494 0)
(7.38133 0.000627937 0)
(7.38339 0.000528341 0)
(7.3854 0.000388109 0)
(7.38736 0.000205236 0)
(7.38927 -1.56825e-05 0)
(7.3911 -0.000284789 0)
(7.39284 -0.00060748 0)
(7.39451 -0.000987688 0)
(7.3961 -0.00142342 0)
(7.33438 -0.00344786 0)
(7.3392 -0.00639172 0)
(7.34502 -0.00751416 0)
(7.35136 -0.00817103 0)
(7.35808 -0.00845186 0)
(7.36496 -0.00846675 0)
(7.37184 -0.00835782 0)
(7.37868 -0.00818468 0)
(7.38542 -0.0079727 0)
(7.39205 -0.0077419 0)
(7.39855 -0.00750862 0)
(7.40492 -0.00728019 0)
(7.41114 -0.00706051 0)
(7.41723 -0.0068532 0)
(7.42319 -0.00666171 0)
(7.42903 -0.00648903 0)
(7.43476 -0.00633767 0)
(7.44039 -0.00621554 0)
(7.44592 -0.00612291 0)
(7.45138 -0.00606176 0)
(7.45678 -0.0060347 0)
(7.46211 -0.00604462 0)
(7.46741 -0.00609435 0)
(7.47267 -0.00618663 0)
(7.4779 -0.00632404 0)
(7.48311 -0.00650969 0)
(7.48832 -0.00674624 0)
(7.49352 -0.00703781 0)
(7.49873 -0.00739455 0)
(7.50394 -0.00781377 0)
(7.50917 -0.00829642 0)
(7.51442 -0.00884617 0)
(7.51968 -0.00946507 0)
(7.32978 -0.0038984 0)
(7.3246 -0.00809894 0)
(7.31605 -0.0104835 0)
(7.30586 -0.0122078 0)
(7.29545 -0.0133952 0)
(7.28492 -0.0141663 0)
(7.27439 -0.0146677 0)
(7.26403 -0.0149831 0)
(7.25392 -0.0151624 0)
(7.24409 -0.0152437 0)
(7.23458 -0.0152559 0)
(7.2254 -0.0152212 0)
(7.21653 -0.0151572 0)
(7.20797 -0.0150786 0)
(7.19971 -0.0149979 0)
(7.19172 -0.0149252 0)
(7.18399 -0.0148696 0)
(7.17649 -0.0148392 0)
(7.16919 -0.0148397 0)
(7.16206 -0.0148769 0)
(7.15508 -0.0149564 0)
(7.14821 -0.0150834 0)
(7.14142 -0.0152623 0)
(7.13468 -0.0154974 0)
(7.12797 -0.0157924 0)
(7.12124 -0.0161507 0)
(7.11447 -0.0165755 0)
(7.10763 -0.0170693 0)
(7.10068 -0.0176341 0)
(7.0936 -0.0182708 0)
(7.08636 -0.0189818 0)
(7.07893 -0.0197665 0)
(7.0713 -0.0206278 0)
(2.64747 0.197173 0)
(2.54782 0.326507 0)
(2.62583 0.569733 0)
(2.9552 0.797899 0)
(3.49876 0.809644 0)
(4.0885 0.421654 0)
(4.71082 -0.408546 0)
(5.31353 -1.44401 0)