/*--------------------------------*- C++ -*----------------------------------*\
  =========                 |
  \\      /  F ield         | OpenFOAM: The Open Source CFD Toolbox
   \\    /   O peration     | Website:  https://openfoam.org
    \\  /    A nd           | Version:  10
     \\/     M anipulation  |
\*---------------------------------------------------------------------------*/
FoamFile
{
    format      ascii;
    class       volScalarField;
    location    "0.115";
    object      epsilon;
}
// * * * * * * * * * * * * * * * * * * * * * * * * * * * * * * * * * * * * * //

dimensions      [0 2 -3 0 0 0 0];

internalField   nonuniform List<scalar> 
6820
(
23.2969
22.5752
21.9094
21.2853
20.7019
20.1633
19.6735
19.2345
18.8457
18.505
18.2092
17.9545
17.7371
17.5533
17.3995
17.2724
17.169
17.0866
17.0229
16.9755
16.9427
16.9225
16.9136
16.9144
16.9238
16.9408
16.9638
16.9948
17.0196
17.1006
16.9427
17.9233
13.5867
5.03385
6.81826
7.83923
8.46741
8.89774
9.23095
9.52089
9.79396
10.0622
10.3305
10.6009
10.8736
11.1484
11.4247
11.702
11.9797
12.2571
12.5336
12.8087
13.0819
13.3527
13.6207
13.8856
14.1473
14.4055
14.6605
14.913
15.1643
15.4163
15.6834
15.9356
16.4013
16.4011
3.7036
4.1472
4.56525
4.9142
5.19788
5.43109
5.62787
5.79943
5.95421
6.09831
6.23602
6.37025
6.50292
6.63523
6.76792
6.9014
7.03584
7.17128
7.30766
7.44484
7.58267
7.72098
7.85958
7.99832
8.13708
8.27579
8.41446
8.55349
8.69267
8.83518
8.97594
9.13173
9.27261
3.54009
3.61093
3.72473
3.85371
3.98115
4.09938
4.20615
4.30187
4.38805
4.46645
4.53878
4.60656
4.67102
4.73315
4.79373
4.85335
4.91243
4.9713
5.03018
5.0892
5.14848
5.20806
5.26797
5.32821
5.3888
5.44973
5.51105
5.57286
5.63521
5.69864
5.76303
5.82936
5.89846
3.52064
3.50151
3.50498
3.52611
3.55867
3.5972
3.63777
3.67799
3.71658
3.75298
3.78711
3.81912
3.84926
3.87783
3.90514
3.93147
3.95706
3.98211
4.0068
4.03126
4.05561
4.07993
4.10428
4.12873
4.15332
4.17807
4.20304
4.22829
4.25385
4.27986
4.30638
4.33346
4.36118
3.5194
3.48247
3.45303
3.43232
3.41995
3.4145
3.41421
3.41749
3.42305
3.42994
3.43752
3.44537
3.45325
3.46102
3.46863
3.47606
3.48333
3.49047
3.49754
3.50456
3.51158
3.51864
3.52576
3.53298
3.54033
3.54782
3.55548
3.56335
3.57145
3.57981
3.58849
3.59747
3.60676
3.51943
3.47974
3.44283
3.40949
3.38025
3.35524
3.3342
3.31668
3.30212
3.28997
3.27975
3.27103
3.26351
3.25693
3.25109
3.24585
3.24112
3.23681
3.23287
3.22926
3.22597
3.22296
3.22022
3.21775
3.21555
3.2136
3.21191
3.21048
3.20932
3.20844
3.20784
3.20752
3.20747
3.51947
3.47943
3.44109
3.40466
3.37041
3.33852
3.30907
3.28206
3.25735
3.2348
3.21418
3.19529
3.17793
3.1619
3.14704
3.13321
3.12028
3.10816
3.09675
3.08599
3.07582
3.06618
3.05703
3.04835
3.04009
3.03225
3.02479
3.0177
3.01097
3.00459
2.99856
2.99285
2.98746
3.51948
3.47941
3.44085
3.40382
3.36835
3.33448
3.30225
3.27169
3.2428
3.21553
3.18984
3.16563
3.14283
3.12134
3.10106
3.08189
3.06375
3.04655
3.03022
3.01469
2.99991
2.98581
2.97235
2.95949
2.94719
2.93541
2.92413
2.91331
2.90295
2.89301
2.88349
2.87436
2.86561
3.51948
3.4794
3.44082
3.40368
3.36796
3.33362
3.30063
3.26898
3.23865
3.20962
3.18185
3.15532
3.12999
3.10579
3.08269
3.06064
3.03956
3.01942
3.00016
2.98172
2.96407
2.94715
2.93093
2.91536
2.90042
2.88606
2.87225
2.85898
2.84621
2.83392
2.8221
2.81071
2.79975
3.51948
3.4794
3.44081
3.40365
3.36788
3.33344
3.30028
3.26834
3.23759
3.208
3.17953
3.15214
3.1258
3.10047
3.07613
3.05273
3.03023
3.0086
2.9878
2.9678
2.94856
2.93004
2.91221
2.89504
2.87851
2.86257
2.84721
2.8324
2.81811
2.80433
2.79104
2.77821
2.76583
3.51948
3.4794
3.4408
3.40364
3.36786
3.3334
3.30019
3.26819
3.23734
3.20759
3.17891
3.15124
3.12456
3.09883
3.07401
3.05007
3.02698
3.0047
2.98321
2.96247
2.94245
2.92313
2.90448
2.88647
2.86907
2.85227
2.83604
2.82036
2.8052
2.79055
2.77639
2.76269
2.74945
3.51948
3.4794
3.44079
3.40363
3.36785
3.33337
3.30016
3.26814
3.23726
3.20747
3.17873
3.15099
3.12421
3.09835
3.07338
3.04925
3.02594
3.00341
2.98164
2.9606
2.94025
2.92058
2.90156
2.88316
2.86535
2.84813
2.83146
2.81534
2.79973
2.78462
2.76999
2.75583
2.74211
3.51947
3.47939
3.44079
3.40362
3.36783
3.33336
3.30014
3.26811
3.23722
3.20742
3.17867
3.1509
3.12409
3.0982
3.07317
3.04899
3.0256
3.003
2.98113
2.95997
2.93951
2.9197
2.90052
2.88196
2.86399
2.84658
2.82972
2.81339
2.79757
2.78224
2.76739
2.753
2.73905
3.51947
3.47939
3.44079
3.40362
3.36782
3.33334
3.30012
3.26808
3.23719
3.20739
3.17862
3.15085
3.12403
3.09812
3.07308
3.04888
3.02548
3.00284
2.98094
2.95975
2.93924
2.91938
2.90015
2.88153
2.86349
2.84601
2.82908
2.81267
2.79676
2.78133
2.76638
2.75189
2.73783
3.51947
3.47939
3.44078
3.40361
3.36782
3.33333
3.3001
3.26806
3.23717
3.20736
3.17859
3.15081
3.12399
3.09807
3.07303
3.04881
3.0254
3.00276
2.98084
2.95964
2.93911
2.91924
2.89999
2.88135
2.86329
2.84578
2.82882
2.81237
2.79643
2.78097
2.76597
2.75143
2.73732
3.51947
3.47939
3.44078
3.40361
3.36781
3.33332
3.30009
3.26805
3.23715
3.20733
3.17856
3.15078
3.12395
3.09803
3.07298
3.04876
3.02534
3.00269
2.98078
2.95956
2.93903
2.91915
2.89989
2.88124
2.86317
2.84565
2.82867
2.81222
2.79626
2.78078
2.76577
2.75121
2.73708
3.51947
3.47939
3.44078
3.4036
3.3678
3.33331
3.30008
3.26803
3.23713
3.20731
3.17853
3.15075
3.12392
3.09799
3.07294
3.04871
3.02529
3.00264
2.98071
2.9595
2.93896
2.91907
2.89981
2.88116
2.86308
2.84555
2.82857
2.8121
2.79614
2.78065
2.76563
2.75106
2.73691
3.51947
3.47939
3.44078
3.4036
3.3678
3.33331
3.30007
3.26802
3.23711
3.20729
3.17851
3.15072
3.12388
3.09795
3.0729
3.04867
3.02524
3.00258
2.98066
2.95944
2.9389
2.91901
2.89974
2.88108
2.86299
2.84547
2.82848
2.812
2.79603
2.78054
2.76551
2.75092
2.73677
3.51947
3.47939
3.44077
3.4036
3.36779
3.3333
3.30006
3.26801
3.2371
3.20727
3.17849
3.1507
3.12386
3.09792
3.07286
3.04863
3.0252
3.00254
2.98061
2.95939
2.93884
2.91894
2.89967
2.88101
2.86292
2.84538
2.82839
2.81191
2.79593
2.78043
2.76539
2.7508
2.73664
3.51947
3.47938
3.44077
3.40359
3.36779
3.33329
3.30005
3.268
3.23708
3.20726
3.17847
3.15068
3.12383
3.09789
3.07283
3.0486
3.02516
3.00249
2.98056
2.95933
2.93878
2.91888
2.89961
2.88094
2.86284
2.8453
2.8283
2.81182
2.79583
2.78033
2.76528
2.75068
2.73651
3.51947
3.47938
3.44077
3.40359
3.36779
3.33329
3.30004
3.26799
3.23707
3.20724
3.17845
3.15066
3.12381
3.09787
3.0728
3.04856
3.02513
3.00245
2.98052
2.95929
2.93873
2.91883
2.89955
2.88087
2.86277
2.84523
2.82822
2.81173
2.79574
2.78023
2.76517
2.75057
2.73639
3.51947
3.47938
3.44077
3.40359
3.36778
3.33329
3.30004
3.26798
3.23706
3.20723
3.17844
3.15064
3.12379
3.09785
3.07277
3.04853
3.02509
3.00242
2.98048
2.95924
2.93868
2.91877
2.89949
2.88081
2.86271
2.84516
2.82814
2.81165
2.79565
2.78013
2.76507
2.75046
2.73627
3.51947
3.47938
3.44077
3.40359
3.36778
3.33328
3.30003
3.26798
3.23706
3.20722
3.17843
3.15062
3.12377
3.09783
3.07275
3.04851
3.02506
3.00238
2.98044
2.9592
2.93864
2.91873
2.89944
2.88075
2.86264
2.84509
2.82807
2.81157
2.79556
2.78004
2.76497
2.75035
2.73616
3.51947
3.47938
3.44077
3.40359
3.36778
3.33328
3.30003
3.26797
3.23705
3.20721
3.17842
3.15061
3.12375
3.09781
3.07273
3.04848
3.02504
3.00235
2.98041
2.95916
2.9386
2.91868
2.89939
2.8807
2.86258
2.84502
2.828
2.81149
2.79548
2.77995
2.76487
2.75025
2.73605
3.51947
3.47938
3.44077
3.40359
3.36778
3.33328
3.30003
3.26797
3.23704
3.20721
3.17841
3.1506
3.12374
3.09779
3.07271
3.04846
3.02501
3.00233
2.98038
2.95913
2.93856
2.91864
2.89934
2.88065
2.86253
2.84496
2.82794
2.81142
2.7954
2.77986
2.76478
2.75015
2.73594
3.51947
3.47938
3.44077
3.40359
3.36778
3.33328
3.30002
3.26796
3.23704
3.2072
3.1784
3.15059
3.12373
3.09778
3.07269
3.04844
3.02499
3.0023
2.98035
2.9591
2.93852
2.9186
2.8993
2.8806
2.86247
2.84491
2.82787
2.81135
2.79533
2.77978
2.7647
2.75006
2.73584
3.51947
3.47938
3.44077
3.40359
3.36778
3.33328
3.30002
3.26796
3.23704
3.2072
3.17839
3.15058
3.12372
3.09777
3.07268
3.04843
3.02498
3.00228
2.98033
2.95907
2.9385
2.91857
2.89926
2.88056
2.86243
2.84486
2.82782
2.81129
2.79527
2.77971
2.76462
2.74997
2.73575
3.51947
3.47938
3.44077
3.40359
3.36778
3.33327
3.30002
3.26796
3.23703
3.20719
3.17838
3.15057
3.12371
3.09775
3.07267
3.04841
3.02495
3.00226
2.9803
2.95905
2.93847
2.91854
2.89923
2.88052
2.86239
2.84481
2.82777
2.81124
2.7952
2.77965
2.76455
2.7499
2.73567
3.51947
3.47938
3.44077
3.40359
3.36778
3.33328
3.30003
3.26796
3.23704
3.2072
3.1784
3.15058
3.12372
3.09776
3.07268
3.04842
3.02496
3.00226
2.9803
2.95904
2.93846
2.91853
2.89921
2.8805
2.86237
2.84478
2.82774
2.8112
2.79516
2.7796
2.7645
2.74984
2.73561
3.51947
3.47939
3.44077
3.40359
3.36778
3.33328
3.30002
3.26796
3.23703
3.20719
3.17838
3.15057
3.12371
3.09775
3.07266
3.0484
3.02494
3.00225
2.98029
2.95903
2.93844
2.91851
2.8992
2.88048
2.86235
2.84476
2.82771
2.81118
2.79514
2.77957
2.76447
2.74981
2.73557
3.51947
3.47938
3.44077
3.40359
3.36779
3.3333
3.30005
3.268
3.23708
3.20724
3.17844
3.15063
3.12377
3.09781
3.07273
3.04847
3.02501
3.00231
2.98035
2.95909
2.93851
2.91857
2.89926
2.88055
2.86242
2.84484
2.8278
2.81127
2.79523
2.77967
2.76458
2.74993
2.7357
3.51948
3.4794
3.4408
3.40362
3.36782
3.33332
3.30007
3.26801
3.23708
3.20725
3.17845
3.15064
3.12379
3.09784
3.07277
3.04852
3.02508
3.00241
2.98047
2.95924
2.93868
2.91878
2.8995
2.88083
2.86274
2.8452
2.82821
2.81173
2.79575
2.78024
2.76521
2.75062
2.73645
3.51947
3.47939
3.44079
3.40365
3.36789
3.33343
3.30023
3.26821
3.23733
3.20753
3.17877
3.15101
3.12421
3.09832
3.07332
3.04916
3.02581
3.00324
2.98142
2.96032
2.93992
2.92018
2.90107
2.88259
2.86469
2.84737
2.83059
2.81434
2.7986
2.78334
2.76856
2.75423
2.74034
3.51949
3.47947
3.44095
3.40385
3.36811
3.33369
3.30054
3.26862
3.23789
3.2083
3.1798
3.15236
3.12593
3.10048
3.07596
3.05235
3.0296
3.00768
2.98656
2.96619
2.94656
2.92763
2.90937
2.89175
2.87475
2.85834
2.84249
2.82719
2.8124
2.79811
2.7843
2.77094
2.75802
3.5195
3.47952
3.44117
3.40446
3.36933
3.33572
3.30359
3.27289
3.24361
3.21569
3.18909
3.16375
3.13963
3.11666
3.09479
3.07396
3.05412
3.03519
3.01715
2.99992
2.98347
2.96775
2.95271
2.93832
2.92453
2.91131
2.89863
2.88645
2.87474
2.86349
2.85265
2.84222
2.83216
3.51969
3.48122
3.44561
3.41286
3.38295
3.35586
3.33147
3.3096
3.29005
3.2726
3.25703
3.24315
3.23075
3.21967
3.20975
3.20084
3.19283
3.18559
3.17903
3.17306
3.1676
3.16258
3.15795
3.15365
3.14963
3.14586
3.1423
3.13892
3.13569
3.13259
3.1296
3.1267
3.12388
3.52527
3.51368
3.51616
3.52941
3.55061
3.57775
3.60921
3.6437
3.68026
3.71816
3.75681
3.79576
3.83465
3.8732
3.9112
3.94849
3.98494
4.02047
4.05501
4.08851
4.12096
4.15234
4.18264
4.21188
4.24006
4.2672
4.29333
4.31848
4.34266
4.36591
4.38825
4.40973
4.43038
3.83318
4.3651
4.84921
5.31432
5.7749
6.22635
6.66436
7.0871
7.49419
7.88603
8.26339
8.62717
8.97828
9.31755
9.64573
9.96348
10.2714
10.57
10.8597
11.1409
11.4141
11.6794
11.9373
12.188
12.4318
12.6689
12.8996
13.1241
13.3426
13.5554
13.7626
13.9645
14.1613
30.2663
32.7713
35.3126
37.865
40.4148
42.9529
45.4712
47.9622
50.4189
52.835
55.2051
57.5243
59.7886
61.9944
64.139
66.2203
68.2366
70.1868
72.0701
73.8864
75.6356
77.3182
78.9349
80.4866
81.9743
83.3994
84.7634
86.0677
87.3139
88.5039
89.6394
90.7219
91.7544
85.1179
233.02
409.289
575.233
704.753
786.894
823.751
824.831
801.654
764.572
721.294
676.834
634.039
594.258
557.925
525
495.25
468.399
444.19
422.388
402.771
385.119
369.21
354.819
341.727
329.725
318.619
308.237
298.424
289.045
279.985
271.147
262.447
253.82
245.21
236.574
227.874
219.078
210.157
201.083
191.827
182.36
172.65
162.669
152.386
141.78
130.833
119.547
107.943
96.0707
84.0227
71.941
60.0289
48.5566
37.8579
28.3052
20.2534
13.9479
9.4252
6.47283
4.70641
3.72061
3.20027
2.94266
2.82941
2.79358
2.79733
2.81915
2.84691
2.87395
2.89686
2.91419
2.92569
2.93178
2.93327
2.93116
2.92651
2.92036
2.91366
2.90722
2.90168
2.89745
2.89475
2.89354
2.89362
2.89462
2.89606
2.89745
2.89828
2.89812
2.89664
2.89359
2.88883
2.88227
2.87382
2.86333
2.85074
2.83477
2.81941
2.781
19.0267
27.3808
43.2103
67.3617
99.4867
138.088
180.761
224.65
266.716
304.215
335.025
357.879
372.456
379.295
379.568
374.764
366.398
355.803
344.016
331.773
319.545
307.608
296.107
285.106
274.621
264.636
255.121
246.031
237.314
228.915
220.777
212.845
205.068
197.403
189.808
182.25
174.697
167.122
159.494
151.787
143.97
136.014
127.89
119.571
111.034
102.265
93.2647
84.0506
74.6672
65.1927
55.7463
46.4945
37.6525
29.4757
22.2355
16.1729
11.4342
8.01265
5.73672
4.33112
3.51338
3.0612
2.82634
2.71791
2.68148
2.68439
2.7069
2.7371
2.76797
2.79554
2.81782
2.83402
2.8442
2.84888
2.84887
2.84511
2.83861
2.83033
2.82119
2.812
2.80341
2.79592
2.78981
2.78519
2.78198
2.77993
2.77869
2.77783
2.77692
2.77555
2.77337
2.77012
2.76561
2.75969
2.75225
2.74309
2.7321
2.71807
2.70459
2.67018
9.41382
9.77671
10.7301
12.6266
15.7391
20.2709
26.4091
34.281
44.031
55.6884
69.0939
83.9072
99.5434
115.256
130.238
143.742
155.181
164.195
170.671
174.712
176.575
176.605
175.173
172.627
169.268
165.337
161.019
156.448
151.719
146.896
142.018
137.11
132.184
127.244
122.29
117.315
112.31
107.263
102.156
96.9713
91.6863
86.2791
80.7287
75.0179
69.1365
63.085
56.8796
50.5568
44.1788
37.8376
31.6571
25.7899
20.4078
15.6799
11.7419
8.65934
6.40398
4.86011
3.86398
3.2528
2.89583
2.70075
2.60654
2.57374
2.57687
2.59946
2.63085
2.66427
2.69555
2.72226
2.74318
2.75794
2.7667
2.77002
2.76865
2.76347
2.75541
2.74535
2.73417
2.72264
2.7114
2.701
2.69179
2.68396
2.67756
2.67245
2.66839
2.66505
2.66206
2.65906
2.65571
2.65175
2.64695
2.64116
2.63419
2.62582
2.61594
2.60337
2.59137
2.5604
5.9735
6.05719
6.16978
6.3593
6.68036
7.1834
7.91318
8.91107
10.2255
11.9148
14.0414
16.6273
19.7069
23.2973
27.381
31.8948
36.7257
41.7168
46.6827
51.4301
55.7797
59.5849
62.7442
65.2054
66.9629
68.0489
68.5227
68.4595
67.9403
67.0439
65.8424
64.3974
62.7595
60.9683
59.0534
57.0348
54.9247
52.7277
50.4425
48.0623
45.5772
42.9759
40.2478
37.3861
34.3904
31.2705
28.0492
24.7653
21.4754
18.2534
15.1871
12.3696
9.88682
7.80166
6.13981
4.88446
3.9835
3.36663
2.96302
2.71235
2.56797
2.49564
2.47074
2.47578
2.4984
2.53
2.56464
2.5983
2.62842
2.65344
2.67261
2.68573
2.69303
2.69504
2.69245
2.68605
2.67667
2.66515
2.65228
2.63878
2.6253
2.61237
2.60039
2.58964
2.58022
2.57214
2.56523
2.55928
2.55398
2.54903
2.54413
2.53902
2.53347
2.52729
2.52029
2.51222
2.50295
2.49137
2.48043
2.45228
4.39298
4.4284
4.46536
4.5089
4.56697
4.64973
4.76811
4.9326
5.15356
5.44249
5.81141
6.26391
6.80513
7.43969
8.17067
8.9985
9.91987
10.9267
12.0054
13.1365
14.2948
15.4509
16.5722
17.6263
18.5831
19.4175
20.1113
20.6537
21.0418
21.2794
21.3757
21.3434
21.1972
20.9517
20.6206
20.2156
19.7452
19.2149
18.6267
17.9794
17.2692
16.4911
15.6398
14.7121
13.7079
12.6327
11.499
10.3273
9.14582
7.98897
6.89394
5.89588
5.02259
4.29034
3.7022
3.24965
2.91635
2.68248
2.52809
2.43506
2.38785
2.37361
2.38201
2.40491
2.43605
2.47071
2.50541
2.53765
2.56573
2.58863
2.60582
2.61721
2.62306
2.62381
2.6201
2.61263
2.60216
2.58943
2.57517
2.56005
2.54469
2.52961
2.51523
2.50186
2.48969
2.4788
2.46912
2.46052
2.45279
2.44567
2.43893
2.4323
2.42559
2.41859
2.4111
2.40288
2.39375
2.38269
2.37239
2.34644
3.61774
3.63025
3.643
3.65643
3.67154
3.69007
3.71449
3.74765
3.79261
3.85248
3.92989
4.0269
4.14479
4.28413
4.44485
4.62618
4.82669
5.0442
5.2758
5.51782
5.7659
6.01511
6.26004
6.49511
6.71475
6.91378
7.08768
7.23284
7.34682
7.42839
7.47753
7.49531
7.48366
7.44504
7.38222
7.29787
7.19433
7.07328
6.93554
6.78097
6.60852
6.41637
6.20233
5.96433
5.70107
5.41269
5.10146
4.77217
4.43224
4.09127
3.76014
3.44972
3.16953
2.92659
2.72485
2.56519
2.44588
2.36324
2.31242
2.28799
2.28448
2.29668
2.31989
2.35007
2.38379
2.41828
2.45133
2.48127
2.5069
2.52748
2.54262
2.55228
2.55668
2.55623
2.55149
2.54308
2.53167
2.51795
2.50255
2.48612
2.46921
2.45233
2.4359
2.42025
2.40562
2.39215
2.37985
2.36867
2.35847
2.34908
2.34029
2.33189
2.3237
2.31551
2.30713
2.29832
2.28891
2.27793
2.26788
2.24349
3.20769
3.20809
3.20862
3.20935
3.21038
3.21198
3.21457
3.21881
3.22549
3.23545
3.24958
3.26872
3.29349
3.32431
3.36128
3.40424
3.45272
3.50599
3.56309
3.62282
3.68383
3.74463
3.80369
3.85944
3.91039
3.95516
3.99254
4.02156
4.04151
4.05196
4.05279
4.04415
4.02644
4.00024
3.96628
3.92533
3.87816
3.82546
3.76773
3.70527
3.63814
3.56614
3.48888
3.40587
3.31667
3.22109
3.11934
3.01232
2.90164
2.78972
2.6796
2.57473
2.47858
2.39425
2.32417
2.26982
2.23168
2.2093
2.2014
2.2061
2.22117
2.24421
2.27284
2.30478
2.33798
2.37062
2.40119
2.42845
2.45149
2.46972
2.48283
2.4908
2.4938
2.49222
2.48652
2.47726
2.46506
2.4505
2.43418
2.41668
2.39851
2.38014
2.362
2.34441
2.32764
2.31186
2.29715
2.28354
2.27094
2.25924
2.24831
2.23796
2.22805
2.21838
2.20879
2.19903
2.18896
2.17766
2.16748
2.14404
2.98154
2.97498
2.9685
2.96211
2.95584
2.94973
2.94386
2.93835
2.93338
2.92915
2.9259
2.92388
2.92333
2.92445
2.92736
2.93209
2.9386
2.94669
2.95611
2.96646
2.97731
2.98814
2.99839
3.00751
3.01495
3.02019
3.02277
3.02232
3.01854
3.01123
3.00028
2.98569
2.96753
2.94596
2.92121
2.89353
2.86321
2.83055
2.7958
2.75923
2.72101
2.6813
2.64018
2.59771
2.55395
2.50902
2.46312
2.41663
2.37015
2.32453
2.28086
2.24041
2.20456
2.17463
2.15175
2.13672
2.12996
2.13141
2.1406
2.1567
2.17858
2.20492
2.2343
2.26527
2.29643
2.32647
2.35421
2.37869
2.39915
2.4151
2.42627
2.43262
2.43431
2.43165
2.42507
2.41506
2.40215
2.3869
2.36983
2.35146
2.33227
2.31271
2.29315
2.27394
2.25534
2.23755
2.2207
2.20484
2.18998
2.17605
2.16295
2.15058
2.1388
2.12745
2.11639
2.1054
2.09435
2.08237
2.07174
2.04866
2.85584
2.84493
2.83411
2.82337
2.81271
2.80215
2.79171
2.78139
2.77124
2.7613
2.75163
2.74228
2.73332
2.72479
2.71674
2.70921
2.70218
2.69563
2.6895
2.68367
2.67801
2.67236
2.66651
2.66027
2.65341
2.64574
2.63706
2.62719
2.61601
2.60339
2.58927
2.57361
2.55641
2.53772
2.5176
2.49614
2.47347
2.4497
2.42499
2.39949
2.37335
2.34673
2.3198
2.29271
2.26567
2.23887
2.21257
2.18709
2.16282
2.14023
2.11988
2.10238
2.08839
2.07852
2.07331
2.07315
2.07823
2.08849
2.10368
2.12327
2.14656
2.17268
2.20064
2.2294
2.25787
2.28502
2.30988
2.33163
2.34963
2.36341
2.37275
2.37758
2.37804
2.37439
2.36701
2.35632
2.34282
2.32698
2.30929
2.29023
2.27023
2.2497
2.22901
2.20846
2.18833
2.16882
2.1501
2.13225
2.11531
2.09928
2.0841
2.0697
2.05599
2.04286
2.03016
2.01772
2.00543
1.99248
1.98112
1.95787
2.78746
2.7737
2.76003
2.74643
2.73292
2.71949
2.70616
2.69292
2.6798
2.6668
2.65394
2.64123
2.62866
2.61625
2.604
2.59189
2.57994
2.56811
2.55639
2.54475
2.53314
2.5215
2.50978
2.4979
2.48578
2.47334
2.4605
2.4472
2.43336
2.41893
2.40388
2.38818
2.37182
2.35481
2.33716
2.31893
2.30015
2.28091
2.26127
2.24135
2.22126
2.20111
2.18107
2.16129
2.14197
2.1233
2.10554
2.08896
2.07385
2.06057
2.04949
2.04097
2.03541
2.03316
2.0345
2.03964
2.04865
2.06148
2.0779
2.09754
2.11988
2.14426
2.1699
2.19597
2.22156
2.2458
2.26787
2.28703
2.3027
2.31447
2.3221
2.32553
2.32486
2.3203
2.31219
2.3009
2.28688
2.27055
2.25237
2.23275
2.21211
2.19082
2.16921
2.14759
2.1262
2.10527
2.08495
2.06537
2.04659
2.02865
2.01152
1.99518
1.97957
1.96461
1.9502
1.93617
1.92247
1.90833
1.89601
1.87213
2.75191
2.7363
2.72076
2.7053
2.68992
2.67461
2.6594
2.64427
2.62925
2.61434
2.59955
2.58489
2.57034
2.55592
2.54161
2.5274
2.51328
2.49923
2.48524
2.47128
2.45734
2.4434
2.42942
2.41538
2.40126
2.38701
2.37262
2.35804
2.34326
2.32825
2.313
2.29749
2.28171
2.26568
2.2494
2.2329
2.2162
2.19935
2.18241
2.16544
2.14854
2.13181
2.11536
2.09935
2.08393
2.0693
2.05565
2.04322
2.03226
2.02305
2.01585
2.01094
2.0086
2.00907
2.01252
2.01908
2.02879
2.04158
2.05727
2.07555
2.09599
2.11804
2.14107
2.16434
2.18709
2.20854
2.22796
2.2447
2.25821
2.26811
2.27417
2.27631
2.27459
2.26921
2.26044
2.24864
2.23417
2.21744
2.19886
2.17881
2.15767
2.13578
2.11346
2.09098
2.06859
2.04649
2.02486
2.00381
1.98344
1.9638
1.94492
1.92678
1.90937
1.89262
1.87648
1.86082
1.8456
1.83013
1.81669
1.79179
2.73454
2.71778
2.70109
2.68445
2.66788
2.65138
2.63495
2.61861
2.60236
2.58622
2.57019
2.55429
2.53851
2.52286
2.50733
2.49192
2.47661
2.4614
2.44627
2.4312
2.41619
2.40122
2.38627
2.37133
2.35639
2.34143
2.32643
2.31139
2.2963
2.28114
2.26591
2.2506
2.23522
2.21977
2.20425
2.1887
2.17312
2.15756
2.14206
2.12668
2.11148
2.09656
2.08202
2.06797
2.05457
2.04197
2.03034
2.01989
2.01082
2.00336
1.99772
1.99415
1.99283
1.99396
1.99767
2.00406
2.01314
2.02486
2.03904
2.05542
2.07365
2.09324
2.11363
2.1342
2.15424
2.17307
2.19003
2.20451
2.21602
2.2242
2.2288
2.22975
2.22709
2.22096
2.21162
2.19935
2.18451
2.16746
2.14857
2.12819
2.10667
2.08433
2.06146
2.03832
2.01514
1.99211
1.9694
1.94715
1.92544
1.90435
1.88392
1.86418
1.84511
1.82669
1.8089
1.79163
1.77487
1.75798
1.74334
1.71713
2.72664
2.70923
2.69186
2.67454
2.65726
2.64004
2.62288
2.60579
2.58878
2.57187
2.55506
2.53836
2.52179
2.50535
2.48903
2.47285
2.45679
2.44084
2.42501
2.40929
2.39365
2.3781
2.36262
2.34721
2.33184
2.31653
2.30125
2.286
2.27078
2.25557
2.24038
2.22521
2.21006
2.19493
2.17984
2.16479
2.14982
2.13495
2.12021
2.10567
2.09137
2.07739
2.06384
2.0508
2.03841
2.0268
2.01612
2.00656
1.99827
1.99146
1.98632
1.98302
1.98175
1.98265
1.98585
1.99141
1.99934
2.00958
2.022
2.03636
2.05233
2.06951
2.08738
2.10538
2.12289
2.13928
2.15395
2.16635
2.17602
2.1826
2.18587
2.18573
2.1822
2.1754
2.16554
2.15289
2.13774
2.12044
2.10131
2.08069
2.05889
2.03622
2.01294
1.9893
1.96551
1.94176
1.9182
1.89497
1.87217
1.84988
1.82814
1.807
1.78646
1.76654
1.74721
1.72842
1.71018
1.69187
1.676
1.64831
2.72329
2.70555
2.68782
2.67013
2.65246
2.63484
2.61727
2.59975
2.58229
2.56492
2.54763
2.53045
2.51338
2.49643
2.47961
2.46291
2.44635
2.42991
2.4136
2.39742
2.38135
2.3654
2.34955
2.33381
2.31815
2.30259
2.2871
2.2717
2.25636
2.2411
2.2259
2.21077
2.19572
2.18074
2.16585
2.15105
2.13638
2.12185
2.1075
2.09338
2.07954
2.06604
2.05297
2.04042
2.02849
2.01732
2.00704
1.99779
1.98973
1.98303
1.97785
1.97435
1.97268
1.97297
1.97531
1.97978
1.98638
1.99505
2.00567
2.01802
2.03183
2.04671
2.06221
2.07782
2.09298
2.10711
2.11967
2.13014
2.13809
2.1432
2.14524
2.1441
2.13978
2.13238
2.12207
2.10908
2.09369
2.07619
2.0569
2.03611
2.01413
1.99122
1.96765
1.94364
1.9194
1.8951
1.87089
1.8469
1.82323
1.79996
1.77714
1.75483
1.73305
1.71181
1.69112
1.67094
1.65132
1.63166
1.61461
1.58535
2.72194
2.70403
2.68613
2.66825
2.65039
2.63256
2.61477
2.59702
2.57932
2.56169
2.54413
2.52666
2.50928
2.49202
2.47487
2.45784
2.44093
2.42416
2.40752
2.391
2.37462
2.35836
2.34223
2.32621
2.31032
2.29453
2.27886
2.26329
2.24783
2.23246
2.2172
2.20203
2.18698
2.17203
2.15719
2.14249
2.12794
2.11356
2.09939
2.08545
2.07181
2.05853
2.04567
2.03332
2.02157
2.01054
2.00035
1.99113
1.98301
1.97614
1.97067
1.96673
1.96446
1.96398
1.96536
1.96866
1.97389
1.981
1.98986
2.00031
2.01206
2.02479
2.03809
2.05147
2.06445
2.0765
2.0871
2.09578
2.10216
2.1059
2.1068
2.10474
2.0997
2.09176
2.08105
2.06778
2.0522
2.03456
2.01516
1.99427
1.97218
1.94913
1.92536
1.9011
1.87654
1.85184
1.82715
1.80258
1.77824
1.7542
1.73052
1.70726
1.68445
1.66211
1.64025
1.61886
1.59802
1.57713
1.55899
1.52817
2.72138
2.7034
2.68542
2.66745
2.64949
2.63156
2.61365
2.59578
2.57795
2.56017
2.54246
2.52482
2.50727
2.48981
2.47245
2.4552
2.43807
2.42106
2.40417
2.38742
2.37079
2.3543
2.33793
2.3217
2.30559
2.28961
2.27375
2.25801
2.2424
2.22691
2.21154
2.19629
2.18116
2.16617
2.15132
2.13661
2.12207
2.10773
2.0936
2.07972
2.06615
2.05292
2.04012
2.02782
2.01609
2.00504
1.99479
1.98543
1.97711
1.96994
1.96406
1.95959
1.95664
1.95533
1.95571
1.95785
1.96174
1.96734
1.97454
1.98318
1.99302
2.00375
2.01499
2.02632
2.03728
2.04739
2.05617
2.06321
2.06812
2.0706
2.07045
2.06754
2.06184
2.0534
2.04235
2.02885
2.01311
1.99539
1.97594
1.95501
1.93286
1.90974
1.88587
1.86145
1.83668
1.8117
1.78666
1.76168
1.73683
1.71221
1.68787
1.66387
1.64024
1.61701
1.5942
1.5718
1.54991
1.52794
1.50884
1.47658
2.7211
2.70309
2.68507
2.66705
2.64905
2.63106
2.6131
2.59516
2.57726
2.5594
2.54159
2.52385
2.50618
2.48859
2.4711
2.4537
2.43641
2.41923
2.40217
2.38523
2.36842
2.35173
2.33518
2.31875
2.30246
2.2863
2.27027
2.25437
2.23861
2.22298
2.20748
2.19211
2.17689
2.16181
2.14688
2.13212
2.11754
2.10316
2.08901
2.07512
2.06152
2.04829
2.03546
2.02311
2.01131
2.00016
1.98976
1.9802
1.9716
1.96407
1.95772
1.95268
1.94903
1.94688
1.94629
1.94729
1.9499
1.95407
1.95971
1.96666
1.97471
1.98357
1.99291
2.00233
2.01142
2.01973
2.02684
2.03234
2.03589
2.03721
2.03608
2.03238
2.02608
2.0172
2.00584
1.99215
1.97631
1.95854
1.93907
1.91815
1.89601
1.87288
1.84898
1.82449
1.7996
1.77445
1.74918
1.7239
1.69871
1.67366
1.64884
1.62428
1.60002
1.57609
1.55253
1.52932
1.50659
1.48372
1.46382
1.43028
2.72092
2.70288
2.68484
2.6668
2.64877
2.63075
2.61275
2.59477
2.57682
2.55891
2.54104
2.52323
2.50548
2.4878
2.47021
2.4527
2.43529
2.41798
2.40078
2.3837
2.36673
2.34989
2.33318
2.31659
2.30014
2.28381
2.26763
2.25158
2.23566
2.21989
2.20426
2.18877
2.17343
2.15824
2.14322
2.12838
2.11372
2.09927
2.08505
2.0711
2.05745
2.04415
2.03125
2.01881
2.0069
1.9956
1.985
1.9752
1.96629
1.95837
1.95154
1.94592
1.94158
1.93861
1.93707
1.93699
1.93839
1.94121
1.94538
1.95075
1.95712
1.96425
1.97182
1.97947
1.98682
1.99347
1.99902
2.00311
2.0054
2.00562
2.00359
1.99917
1.99232
1.98304
1.97141
1.95756
1.94165
1.92387
1.90444
1.88357
1.86149
1.8384
1.81452
1.79003
1.7651
1.73987
1.71447
1.68901
1.66358
1.63825
1.61308
1.58813
1.56341
1.53898
1.51485
1.49103
1.46763
1.44406
1.42352
1.38893
2.72077
2.70272
2.68466
2.6666
2.64854
2.6305
2.61247
2.59446
2.57647
2.55852
2.54061
2.52274
2.50493
2.48719
2.46951
2.45192
2.43441
2.41699
2.39968
2.38247
2.36538
2.3484
2.33155
2.31482
2.29822
2.28175
2.26542
2.24922
2.23317
2.21726
2.20149
2.18588
2.17042
2.15512
2.13999
2.12505
2.1103
2.09576
2.08146
2.06743
2.0537
2.0403
2.0273
2.01474
2.0027
1.99123
1.98042
1.97035
1.96111
1.95279
1.94549
1.93929
1.93428
1.93052
1.92807
1.92697
1.92721
1.92877
1.93156
1.93545
1.94027
1.94579
1.95171
1.95772
1.96346
1.96856
1.97267
1.97543
1.97655
1.97577
1.9729
1.96781
1.96045
1.95081
1.93895
1.92497
1.90902
1.89127
1.8719
1.85113
1.82915
1.80616
1.78236
1.75793
1.73302
1.70779
1.68234
1.65679
1.63123
1.60572
1.58034
1.55511
1.53009
1.5053
1.48077
1.45651
1.43263
1.40854
1.38753
1.35211
2.72063
2.70256
2.68449
2.66641
2.64834
2.63027
2.61222
2.59418
2.57616
2.55818
2.54022
2.52231
2.50445
2.48664
2.4689
2.45122
2.43363
2.41613
2.39871
2.3814
2.36419
2.3471
2.33012
2.31326
2.29653
2.27992
2.26346
2.24713
2.23094
2.21489
2.199
2.18326
2.16768
2.15226
2.13703
2.12198
2.10713
2.0925
2.0781
2.06398
2.05015
2.03665
2.02353
2.01085
1.99864
1.98699
1.97596
1.96562
1.95605
1.94734
1.93957
1.93281
1.92714
1.92262
1.91931
1.91724
1.91639
1.91676
1.91825
1.92077
1.92414
1.92815
1.93255
1.93703
1.94128
1.94495
1.94771
1.94924
1.94927
1.94756
1.94391
1.93821
1.93038
1.92042
1.90835
1.89428
1.87832
1.86062
1.84136
1.82071
1.79887
1.77603
1.75237
1.72805
1.70323
1.67805
1.65262
1.62706
1.60145
1.57586
1.55036
1.52498
1.49977
1.47475
1.44997
1.42541
1.40122
1.37677
1.35543
1.31942
2.72049
2.70241
2.68432
2.66623
2.64814
2.63005
2.61198
2.59391
2.57587
2.55785
2.53986
2.5219
2.50399
2.48613
2.46832
2.45058
2.43291
2.41533
2.39782
2.38041
2.3631
2.3459
2.3288
2.31183
2.29497
2.27825
2.26165
2.24519
2.22888
2.21271
2.19669
2.18083
2.16513
2.1496
2.13425
2.1191
2.10414
2.08941
2.07492
2.06069
2.04676
2.03315
2.01991
2.00708
1.99472
1.98288
1.97162
1.96101
1.95111
1.94201
1.93378
1.92648
1.92018
1.91494
1.91081
1.90781
1.90594
1.90518
1.90547
1.9067
1.90871
1.91133
1.9143
1.91737
1.92023
1.92257
1.92408
1.92448
1.9235
1.92092
1.91655
1.91028
1.90203
1.89177
1.87953
1.86539
1.84945
1.83183
1.8127
1.79222
1.77057
1.74792
1.72443
1.70028
1.6756
1.65053
1.62519
1.59969
1.5741
1.54851
1.52297
1.49752
1.47222
1.44709
1.42216
1.39744
1.37305
1.34839
1.32686
1.29047
2.72036
2.70227
2.68416
2.66605
2.64795
2.62984
2.61174
2.59365
2.57558
2.55753
2.5395
2.52151
2.50355
2.48564
2.46778
2.44998
2.43224
2.41457
2.39699
2.37949
2.36209
2.34478
2.32758
2.3105
2.29353
2.27668
2.25997
2.24339
2.22696
2.21067
2.19453
2.17855
2.16274
2.1471
2.13164
2.11637
2.10132
2.08648
2.07189
2.05755
2.04351
2.02979
2.01642
2.00345
1.99093
1.97889
1.9674
1.95652
1.9463
1.93682
1.92814
1.92031
1.91341
1.90748
1.90257
1.89869
1.89586
1.89405
1.8932
1.89322
1.89398
1.89529
1.89695
1.8987
1.90027
1.90138
1.90174
1.90109
1.89917
1.89578
1.89075
1.88395
1.8753
1.86478
1.85239
1.83821
1.8223
1.8048
1.78584
1.76556
1.74414
1.72172
1.69847
1.67453
1.65005
1.62516
1.59996
1.57457
1.54908
1.52354
1.49804
1.47261
1.44729
1.42213
1.39715
1.37235
1.34789
1.32312
1.30151
1.26492
2.72023
2.70212
2.68401
2.66588
2.64776
2.62963
2.61151
2.5934
2.5753
2.55722
2.53916
2.52113
2.50313
2.48517
2.46726
2.4494
2.4316
2.41386
2.3962
2.37862
2.36113
2.34373
2.32644
2.30925
2.29218
2.27522
2.2584
2.24171
2.22516
2.20875
2.1925
2.17641
2.16048
2.14473
2.12917
2.1138
2.09864
2.0837
2.069
2.05456
2.04041
2.02657
2.01307
1.99996
1.98726
1.97504
1.96332
1.95217
1.94164
1.93178
1.92266
1.91433
1.90685
1.90026
1.8946
1.88989
1.88615
1.88334
1.88143
1.88033
1.87991
1.88002
1.88046
1.88099
1.88137
1.88134
1.88064
1.87901
1.87623
1.87208
1.86642
1.85912
1.8501
1.83933
1.82682
1.8126
1.79677
1.77941
1.76065
1.74063
1.71948
1.69735
1.67439
1.65073
1.62651
1.60185
1.57687
1.55166
1.52631
1.5009
1.47549
1.45014
1.42488
1.39975
1.37479
1.35001
1.32554
1.30076
1.27914
1.24251
2.72011
2.70199
2.68386
2.66572
2.64758
2.62944
2.61129
2.59316
2.57504
2.55693
2.53883
2.52077
2.50273
2.48473
2.46676
2.44885
2.43099
2.41319
2.39546
2.37781
2.36023
2.34275
2.32536
2.30808
2.29091
2.27385
2.25693
2.24013
2.22347
2.20696
2.19059
2.17439
2.15836
2.1425
2.12683
2.11136
2.0961
2.08106
2.06625
2.05171
2.03745
2.02349
2.00986
1.9966
1.98374
1.97132
1.95938
1.94796
1.93712
1.92691
1.91736
1.90855
1.9005
1.89328
1.88691
1.88141
1.87681
1.87308
1.87017
1.86802
1.86652
1.86551
1.86482
1.86424
1.86353
1.86245
1.86076
1.85822
1.85461
1.84975
1.84348
1.83569
1.82631
1.81529
1.80265
1.78843
1.77269
1.75552
1.73701
1.7173
1.69649
1.67473
1.65213
1.62882
1.60494
1.58059
1.55589
1.53093
1.50579
1.48057
1.45532
1.4301
1.40495
1.37993
1.35505
1.33034
1.30593
1.28119