/*--------------------------------*- C++ -*----------------------------------*\
  =========                 |
  \\      /  F ield         | OpenFOAM: The Open Source CFD Toolbox
   \\    /   O peration     | Website:  https://openfoam.org
    \\  /    A nd           | Version:  10
     \\/     M anipulation  |
\*---------------------------------------------------------------------------*/
FoamFile
{
    format      ascii;
    class       volScalarField;
    location    "0.115";
    object      k;
}
// * * * * * * * * * * * * * * * * * * * * * * * * * * * * * * * * * * * * * //

dimensions      [0 2 -2 0 0 0 0];

internalField   nonuniform List<scalar> 
6820
(
0.196709
0.190616
0.184994
0.179725
0.174798
0.17025
0.166115
0.162408
0.159125
0.156248
0.153751
0.1516
0.149765
0.148213
0.146914
0.145841
0.144968
0.144272
0.143734
0.143334
0.143057
0.142887
0.142811
0.142818
0.142898
0.143041
0.143235
0.143497
0.143706
0.14439
0.143057
0.151337
0.114722
0.201954
0.200831
0.197543
0.193922
0.19084
0.188583
0.187152
0.186425
0.186252
0.186503
0.18707
0.187872
0.188851
0.189961
0.191167
0.192445
0.193773
0.195135
0.196519
0.197913
0.19931
0.200703
0.202087
0.203458
0.204814
0.206154
0.207484
0.208811
0.21015
0.211597
0.212959
0.215687
0.216186
0.200488
0.200475
0.199118
0.19707
0.194842
0.192691
0.190724
0.188985
0.187487
0.186229
0.185202
0.184388
0.18377
0.183328
0.183041
0.182892
0.182863
0.18294
0.183108
0.183356
0.183673
0.184048
0.184475
0.184945
0.185453
0.185995
0.186565
0.187165
0.187787
0.188463
0.189118
0.18992
0.190472
0.199661
0.199121
0.198219
0.196983
0.195545
0.194012
0.192458
0.190931
0.189463
0.188074
0.186776
0.185577
0.184479
0.183481
0.182582
0.181777
0.181061
0.180429
0.179875
0.179394
0.17898
0.178628
0.178332
0.178089
0.177894
0.177743
0.177634
0.177565
0.177533
0.177544
0.177589
0.177684
0.177812
0.199429
0.198466
0.197531
0.196513
0.195399
0.194214
0.192987
0.19174
0.190496
0.189268
0.18807
0.18691
0.185794
0.184728
0.183714
0.182754
0.181847
0.180994
0.180192
0.179441
0.178739
0.178084
0.177473
0.176905
0.176377
0.175887
0.175435
0.175017
0.174633
0.174284
0.173966
0.17368
0.17342
0.199398
0.198267
0.197202
0.196166
0.195133
0.194088
0.193029
0.191959
0.190884
0.189813
0.188751
0.187705
0.18668
0.185679
0.184706
0.183763
0.182852
0.181973
0.181129
0.180318
0.17954
0.178795
0.178083
0.177402
0.176752
0.176132
0.175541
0.174979
0.174444
0.173936
0.173454
0.172998
0.172564
0.199395
0.19822
0.197098
0.196021
0.194978
0.193957
0.192953
0.191959
0.190974
0.189998
0.189033
0.18808
0.187142
0.18622
0.185316
0.184432
0.18357
0.182729
0.181912
0.181117
0.180347
0.1796
0.178878
0.178179
0.177503
0.176851
0.176221
0.175614
0.175029
0.174465
0.173923
0.173402
0.1729
0.199395
0.198211
0.197069
0.195969
0.194908
0.193881
0.192884
0.191912
0.190962
0.19003
0.189116
0.188219
0.187338
0.186474
0.185627
0.184797
0.183985
0.18319
0.182415
0.181658
0.180919
0.1802
0.179499
0.178818
0.178155
0.177511
0.176885
0.176278
0.175689
0.175118
0.174565
0.174029
0.17351
0.199395
0.198209
0.197063
0.195955
0.194884
0.19385
0.192848
0.191877
0.190935
0.190017
0.189124
0.188252
0.187401
0.18657
0.185758
0.184964
0.184188
0.183429
0.182689
0.181965
0.181259
0.180569
0.179897
0.179241
0.178602
0.177979
0.177372
0.176781
0.176206
0.175646
0.175102
0.174574
0.17406
0.199395
0.198209
0.197061
0.195951
0.194877
0.193838
0.192833
0.19186
0.190917
0.190002
0.189114
0.188251
0.187412
0.186595
0.1858
0.185025
0.18427
0.183534
0.182816
0.182115
0.181432
0.180766
0.180116
0.179482
0.178864
0.178262
0.177674
0.177102
0.176544
0.176001
0.175472
0.174957
0.174456
0.199395
0.198209
0.197061
0.19595
0.194875
0.193834
0.192827
0.191852
0.190908
0.189992
0.189105
0.188244
0.187408
0.186597
0.185808
0.185042
0.184296
0.183571
0.182865
0.182177
0.181508
0.180856
0.180221
0.179602
0.178999
0.178412
0.177839
0.177281
0.176738
0.176209
0.175693
0.175191
0.174703
0.199395
0.198209
0.19706
0.195949
0.194874
0.193833
0.192825
0.191849
0.190904
0.189987
0.189099
0.188238
0.187403
0.186593
0.185806
0.185042
0.1843
0.18358
0.182879
0.182198
0.181535
0.18089
0.180263
0.179653
0.179059
0.17848
0.177917
0.177369
0.176835
0.176315
0.175809
0.175317
0.174838
0.199395
0.198209
0.19706
0.195949
0.194873
0.193832
0.192824
0.191847
0.190901
0.189985
0.189096
0.188235
0.187399
0.186589
0.185803
0.185039
0.184299
0.183579
0.18288
0.182201
0.181541
0.1809
0.180276
0.17967
0.17908
0.178506
0.177948
0.177405
0.176877
0.176363
0.175862
0.175376
0.174902
0.199395
0.198209
0.19706
0.195949
0.194873
0.193831
0.192823
0.191846
0.1909
0.189983
0.189094
0.188232
0.187397
0.186586
0.1858
0.185036
0.184296
0.183576
0.182878
0.182199
0.18154
0.1809
0.180278
0.179673
0.179085
0.178513
0.177957
0.177417
0.176891
0.17638
0.175882
0.175398
0.174928
0.199395
0.198208
0.19706
0.195948
0.194872
0.193831
0.192822
0.191845
0.190899
0.189982
0.189093
0.188231
0.187395
0.186584
0.185797
0.185034
0.184293
0.183573
0.182875
0.182197
0.181538
0.180898
0.180276
0.179671
0.179084
0.178513
0.177958
0.177418
0.176893
0.176383
0.175887
0.175404
0.174935
0.199395
0.198208
0.19706
0.195948
0.194872
0.19383
0.192822
0.191845
0.190898
0.189981
0.189091
0.188229
0.187393
0.186582
0.185795
0.185032
0.18429
0.183571
0.182872
0.182194
0.181535
0.180895
0.180273
0.179668
0.179081
0.17851
0.177955
0.177416
0.176891
0.176381
0.175885
0.175403
0.174934
0.199395
0.198208
0.19706
0.195948
0.194872
0.19383
0.192821
0.191844
0.190897
0.18998
0.18909
0.188228
0.187392
0.18658
0.185793
0.18503
0.184288
0.183569
0.18287
0.182191
0.181532
0.180892
0.18027
0.179665
0.179078
0.178507
0.177952
0.177412
0.176887
0.176377
0.175881
0.175399
0.17493
0.199395
0.198208
0.19706
0.195948
0.194872
0.19383
0.192821
0.191843
0.190897
0.189979
0.189089
0.188227
0.18739
0.186579
0.185792
0.185028
0.184286
0.183567
0.182868
0.182189
0.18153
0.180889
0.180267
0.179662
0.179075
0.178503
0.177948
0.177408
0.176884
0.176373
0.175877
0.175394
0.174925
0.199395
0.198208
0.197059
0.195948
0.194871
0.193829
0.19282
0.191843
0.190896
0.189978
0.189089
0.188226
0.187389
0.186578
0.18579
0.185026
0.184285
0.183565
0.182866
0.182187
0.181527
0.180887
0.180264
0.17966
0.179072
0.1785
0.177945
0.177405
0.17688
0.176369
0.175873
0.17539
0.17492
0.199395
0.198208
0.197059
0.195948
0.194871
0.193829
0.19282
0.191843
0.190895
0.189978
0.189088
0.188225
0.187388
0.186577
0.185789
0.185025
0.184283
0.183563
0.182864
0.182185
0.181525
0.180884
0.180262
0.179657
0.179069
0.178497
0.177942
0.177401
0.176876
0.176365
0.175868
0.175385
0.174915
0.199395
0.198208
0.197059
0.195947
0.194871
0.193829
0.19282
0.191842
0.190895
0.189977
0.189087
0.188224
0.187387
0.186576
0.185788
0.185024
0.184282
0.183562
0.182862
0.182183
0.181523
0.180882
0.180259
0.179654
0.179066
0.178494
0.177938
0.177398
0.176872
0.176361
0.175864
0.17538
0.17491
0.199395
0.198208
0.197059
0.195947
0.194871
0.193829
0.19282
0.191842
0.190895
0.189976
0.189086
0.188224
0.187387
0.186575
0.185787
0.185022
0.18428
0.18356
0.182861
0.182181
0.181521
0.18088
0.180257
0.179652
0.179063
0.178491
0.177935
0.177395
0.176869
0.176357
0.17586
0.175376
0.174905
0.199395
0.198208
0.197059
0.195947
0.194871
0.193829
0.192819
0.191842
0.190894
0.189976
0.189086
0.188223
0.187386
0.186574
0.185786
0.185021
0.184279
0.183559
0.182859
0.18218
0.18152
0.180878
0.180255
0.17965
0.179061
0.178489
0.177932
0.177391
0.176865
0.176354
0.175856
0.175372
0.174901
0.199395
0.198208
0.197059
0.195947
0.194871
0.193829
0.192819
0.191841
0.190894
0.189976
0.189086
0.188222
0.187385
0.186573
0.185785
0.18502
0.184278
0.183558
0.182858
0.182178
0.181518
0.180876
0.180253
0.179647
0.179059
0.178486
0.17793
0.177388
0.176862
0.17635
0.175852
0.175368
0.174896
0.199395
0.198208
0.197059
0.195947
0.194871
0.193829
0.192819
0.191841
0.190894
0.189975
0.189085
0.188222
0.187385
0.186572
0.185784
0.18502
0.184277
0.183556
0.182856
0.182177
0.181516
0.180875
0.180251
0.179645
0.179056
0.178484
0.177927
0.177386
0.176859
0.176347
0.175848
0.175364
0.174892
0.199395
0.198208
0.197059
0.195947
0.194871
0.193828
0.192819
0.191841
0.190894
0.189975
0.189085
0.188222
0.187384
0.186572
0.185784
0.185019
0.184276
0.183555
0.182855
0.182175
0.181515
0.180873
0.18025
0.179643
0.179054
0.178481
0.177925
0.177383
0.176856
0.176344
0.175845
0.17536
0.174888
0.199395
0.198208
0.197059
0.195947
0.194871
0.193828
0.192819
0.191841
0.190893
0.189975
0.189084
0.188221
0.187384
0.186571
0.185783
0.185018
0.184276
0.183555
0.182854
0.182174
0.181514
0.180872
0.180248
0.179642
0.179052
0.178479
0.177922
0.17738
0.176853
0.176341
0.175842
0.175356
0.174884
0.199395
0.198208
0.197059
0.195947
0.194871
0.193828
0.192819
0.191841
0.190893
0.189975
0.189084
0.188221
0.187384
0.186571
0.185783
0.185018
0.184275
0.183554
0.182854
0.182173
0.181513
0.180871
0.180247
0.17964
0.179051
0.178478
0.17792
0.177378
0.176851
0.176338
0.175839
0.175353
0.174881
0.199395
0.198208
0.197059
0.195947
0.194871
0.193828
0.192819
0.191841
0.190893
0.189975
0.189084
0.188221
0.187383
0.186571
0.185782
0.185017
0.184274
0.183553
0.182853
0.182173
0.181512
0.18087
0.180245
0.179639
0.179049
0.178476
0.177918
0.177376
0.176849
0.176335
0.175836
0.17535
0.174877
0.199395
0.198208
0.197059
0.195947
0.194871
0.193828
0.192819
0.191841
0.190893
0.189975
0.189085
0.188221
0.187384
0.186571
0.185783
0.185017
0.184275
0.183553
0.182853
0.182172
0.181511
0.180869
0.180245
0.179638
0.179048
0.178475
0.177917
0.177375
0.176847
0.176334
0.175834
0.175348
0.174875
0.199395
0.198208
0.197059
0.195947
0.194871
0.193828
0.192819
0.191841
0.190893
0.189975
0.189084
0.188221
0.187383
0.186571
0.185782
0.185017
0.184274
0.183553
0.182852
0.182172
0.181511
0.180869
0.180244
0.179638
0.179048
0.178474
0.177916
0.177374
0.176846
0.176332
0.175833
0.175346
0.174873
0.199395
0.198208
0.197059
0.195948
0.194871
0.193829
0.19282
0.191843
0.190895
0.189977
0.189087
0.188223
0.187386
0.186573
0.185785
0.18502
0.184277
0.183555
0.182855
0.182174
0.181513
0.180871
0.180246
0.179639
0.179049
0.178475
0.177917
0.177374
0.176846
0.176332
0.175832
0.175346
0.174872
0.199395
0.198209
0.19706
0.195949
0.194872
0.19383
0.192821
0.191843
0.190896
0.189977
0.189087
0.188224
0.187387
0.186574
0.185786
0.185021
0.184278
0.183557
0.182856
0.182176
0.181515
0.180872
0.180247
0.17964
0.17905
0.178476
0.177917
0.177374
0.176845
0.176331
0.17583
0.175343
0.174868
0.199395
0.198208
0.19706
0.19595
0.194875
0.193835
0.192827
0.191851
0.190904
0.189987
0.189097
0.188234
0.187397
0.186584
0.185796
0.18503
0.184287
0.183565
0.182864
0.182182
0.18152
0.180876
0.18025
0.179642
0.17905
0.178474
0.177914
0.177368
0.176837
0.176321
0.175818
0.175328
0.17485
0.199396
0.198212
0.197066
0.195957
0.194883
0.193842
0.192834
0.191857
0.190911
0.189993
0.189104
0.188241
0.187403
0.18659
0.185801
0.185034
0.184289
0.183565
0.182861
0.182176
0.18151
0.180863
0.180232
0.179619
0.179021
0.17844
0.177873
0.177321
0.176784
0.17626
0.175749
0.175252
0.174767
0.199396
0.198213
0.197071
0.195969
0.194902
0.193869
0.192866
0.191892
0.190947
0.190029
0.189137
0.188269
0.187426
0.186606
0.185808
0.185031
0.184275
0.183539
0.182822
0.182124
0.181443
0.18078
0.180134
0.179504
0.17889
0.178291
0.177707
0.177137
0.176581
0.176038
0.175509
0.174992
0.174488
0.199402
0.198241
0.197115
0.196019
0.194953
0.193917
0.192909
0.191928
0.190972
0.19004
0.189131
0.188244
0.187379
0.186535
0.18571
0.184906
0.184121
0.183354
0.182606
0.181876
0.181163
0.180466
0.179786
0.179122
0.178474
0.177841
0.177222
0.176618
0.176027
0.17545
0.174887
0.174336
0.173797
0.199421
0.198284
0.197214
0.196182
0.195157
0.194135
0.193117
0.192109
0.191115
0.190139
0.189185
0.188253
0.187344
0.186458
0.185595
0.184755
0.183936
0.183138
0.18236
0.181602
0.180862
0.180141
0.179436
0.178749
0.178078
0.177422
0.176782
0.176156
0.175545
0.174948
0.174365
0.173795
0.173238
0.199655
0.198885
0.198078
0.197303
0.196604
0.195977
0.195406
0.194883
0.1944
0.193955
0.193547
0.193174
0.192836
0.19253
0.192257
0.192015
0.191803
0.191618
0.19146
0.191326
0.191216
0.191128
0.191061
0.191013
0.190983
0.19097
0.190972
0.19099
0.191021
0.191066
0.191122
0.191191
0.191269
0.205419
0.216602
0.227661
0.238503
0.249093
0.259416
0.269459
0.279212
0.288667
0.297817
0.306658
0.315187
0.323405
0.331311
0.338909
0.346201
0.353194
0.359891
0.366301
0.372429
0.378285
0.383874
0.389207
0.394291
0.399135
0.403747
0.408137
0.412314
0.416284
0.420058
0.423643
0.427047
0.430281
0.317813
0.624689
0.942414
1.23661
1.48485
1.67471
1.80562
1.88603
1.9284
1.94528
1.94674
1.93977
1.92865
1.91574
1.90228
1.88898
1.87638
1.86501
1.85534
1.84777
1.84256
1.83982
1.83948
1.84138
1.8452
1.8506
1.85713
1.86433
1.87171
1.8788
1.88509
1.89014
1.89351
1.8948
1.89364
1.88966
1.88251
1.87181
1.85716
1.83812
1.81419
1.78483
1.74944
1.70738
1.65798
1.60056
1.5345
1.45926
1.37448
1.28008
1.17635
1.06417
0.945127
0.821822
0.698013
0.578719
0.46992
0.377577
0.305902
0.25564
0.223877
0.205769
0.196657
0.193068
0.192712
0.194147
0.196477
0.199152
0.201841
0.20436
0.206616
0.208579
0.210258
0.211686
0.212912
0.21399
0.214975
0.215918
0.216865
0.217849
0.218891
0.22
0.221169
0.22238
0.223605
0.22481
0.225963
0.227029
0.227981
0.228796
0.22946
0.229967
0.230315
0.230508
0.230551
0.230445
0.230196
0.22977
0.229297
0.227968
0.227993
0.254966
0.297238
0.356202
0.432687
0.525933
0.632994
0.748993
0.867671
0.982528
1.08782
1.17935
1.25496
1.31451
1.35945
1.39222
1.41551
1.43187
1.44336
1.45153
1.45752
1.46209
1.46582
1.4691
1.47218
1.47522
1.47827
1.48127
1.48409
1.48653
1.48835
1.48927
1.48901
1.48725
1.48372
1.47809
1.47006
1.45929
1.44538
1.42793
1.40647
1.38047
1.34937
1.31259
1.26953
1.21963
1.16242
1.09756
1.02496
0.944901
0.858118
0.76601
0.670771
0.57551
0.484212
0.401391
0.331282
0.276644
0.237769
0.212554
0.19767
0.189882
0.186688
0.186353
0.187714
0.19
0.192702
0.19549
0.198161
0.200597
0.202742
0.204583
0.206136
0.207434
0.208524
0.209455
0.21028
0.211049
0.211808
0.212592
0.213429
0.214331
0.215301
0.216327
0.217391
0.218464
0.219516
0.220515
0.221434
0.222249
0.222943
0.223505
0.223931
0.22422
0.224373
0.224389
0.224268
0.223979
0.223636
0.222525
0.191164
0.193193
0.197566
0.20489
0.215571
0.230138
0.24937
0.274214
0.305715
0.344641
0.391181
0.444803
0.504026
0.566609
0.629878
0.691138
0.748082
0.799074
0.84326
0.880512
0.911254
0.936246
0.956388
0.972572
0.98559
0.9961
1.00461
1.01151
1.01705
1.0214
1.02463
1.02677
1.02777
1.02753
1.02592
1.02277
1.01788
1.01097
1.00176
0.989889
0.974943
0.95648
0.934021
0.90708
0.875195
0.837972
0.795144
0.746644
0.692701
0.633935
0.57147
0.50701
0.442862
0.381812
0.326799
0.280339
0.243879
0.217412
0.199673
0.188785
0.182886
0.180445
0.180315
0.181659
0.183878
0.186545
0.189361
0.192122
0.194697
0.19701
0.199025
0.200738
0.202165
0.20334
0.204303
0.205102
0.205784
0.206396
0.206984
0.207583
0.208224
0.208925
0.209695
0.210531
0.211419
0.212339
0.213266
0.21417
0.215025
0.215808
0.216498
0.217084
0.217557
0.217913
0.218148
0.218259
0.218245
0.218073
0.217841
0.216929
0.177928
0.178103
0.178477
0.179209
0.18045
0.182339
0.185013
0.188641
0.193451
0.199739
0.20785
0.218095
0.230832
0.246366
0.264862
0.286269
0.310282
0.336337
0.363671
0.391408
0.418668
0.444669
0.4688
0.490652
0.510022
0.526886
0.541349
0.553603
0.563885
0.572435
0.579473
0.585184
0.589702
0.593116
0.595459
0.596715
0.596812
0.595624
0.592965
0.588599
0.582237
0.573556
0.562211
0.547864
0.53022
0.509068
0.484335
0.456154
0.42492
0.391347
0.356491
0.32172
0.28859
0.258636
0.233084
0.21261
0.197251
0.186529
0.179683
0.175901
0.174437
0.174659
0.176051
0.178201
0.180787
0.18356
0.186337
0.188987
0.191421
0.193587
0.195461
0.197042
0.198347
0.199405
0.200252
0.200931
0.201485
0.201958
0.202392
0.202823
0.203283
0.203793
0.204368
0.205012
0.205717
0.20647
0.20725
0.208035
0.208798
0.209518
0.210174
0.210751
0.211239
0.211631
0.21192
0.2121
0.212167
0.212089
0.211949
0.211213
0.17312
0.172783
0.172487
0.172268
0.172153
0.172172
0.172352
0.172722
0.173318
0.174185
0.175382
0.176953
0.178965
0.181493
0.184617
0.188413
0.192944
0.198248
0.204327
0.211143
0.218608
0.22659
0.234917
0.243397
0.251831
0.260032
0.267842
0.275141
0.28185
0.287932
0.293382
0.298221
0.302483
0.306204
0.309414
0.312126
0.314331
0.315988
0.317021
0.317315
0.316723
0.315067
0.312153
0.307793
0.301823
0.294139
0.284725
0.273691
0.261295
0.24795
0.234205
0.220698
0.208068
0.196865
0.187476
0.180088
0.174704
0.171188
0.169319
0.168837
0.169469
0.170948
0.173032
0.175501
0.178172
0.180894
0.183546
0.186038
0.188307
0.190315
0.192044
0.193494
0.19468
0.195627
0.196367
0.196938
0.197378
0.197727
0.198024
0.198304
0.198599
0.198932
0.199322
0.199777
0.200297
0.200875
0.201496
0.20214
0.202788
0.203417
0.204009
0.204548
0.205021
0.205418
0.205731
0.205952
0.206074
0.206066
0.205998
0.205409
0.17208
0.171536
0.171003
0.170489
0.17
0.169545
0.169137
0.168787
0.168502
0.168293
0.168167
0.168133
0.168198
0.168376
0.168678
0.16912
0.169713
0.170471
0.171401
0.172507
0.173787
0.175231
0.176823
0.178537
0.180345
0.182212
0.184101
0.185978
0.187812
0.189577
0.191257
0.192839
0.19432
0.195698
0.196976
0.198155
0.199231
0.200194
0.201022
0.201679
0.202115
0.202265
0.202053
0.201398
0.200222
0.198467
0.196101
0.19314
0.189654
0.185768
0.181664
0.177557
0.173677
0.170236
0.167412
0.165327
0.164047
0.163576
0.163871
0.164851
0.166406
0.16841
0.170736
0.173259
0.175863
0.178448
0.18093
0.183244
0.18534
0.187187
0.188771
0.190093
0.191164
0.192006
0.192647
0.193119
0.193457
0.193696
0.193873
0.194019
0.194165
0.194337
0.194555
0.19483
0.195169
0.195569
0.196021
0.196512
0.197025
0.197541
0.198043
0.198515
0.198943
0.199317
0.199626
0.19986
0.20001
0.200046
0.200027
0.199556
0.172338
0.171705
0.171076
0.170455
0.169841
0.169239
0.168652
0.168083
0.167537
0.167017
0.166526
0.166068
0.165645
0.165259
0.164913
0.164609
0.164349
0.164137
0.163974
0.163862
0.163801
0.163791
0.163828
0.16391
0.164032
0.164188
0.164369
0.164569
0.164781
0.164997
0.165212
0.165423
0.165626
0.16582
0.166004
0.166179
0.166343
0.166495
0.166631
0.166743
0.166821
0.166846
0.1668
0.166658
0.166395
0.165988
0.165423
0.164695
0.16382
0.162833
0.161789
0.160766
0.159851
0.159137
0.158709
0.15864
0.158976
0.159737
0.160915
0.162478
0.164369
0.16652
0.168854
0.17129
0.173749
0.176158
0.178453
0.180582
0.182505
0.184195
0.185639
0.186837
0.187799
0.188542
0.18909
0.189472
0.189718
0.18986
0.18993
0.189958
0.189973
0.19
0.19006
0.190168
0.190334
0.190559
0.19084
0.19117
0.191535
0.19192
0.19231
0.19269
0.193047
0.193369
0.193646
0.193865
0.194017
0.194072
0.194079
0.193694
0.172925
0.172266
0.171606
0.170947
0.17029
0.169636
0.168988
0.168347
0.167715
0.167094
0.166486
0.165892
0.165314
0.164754
0.164211
0.163687
0.163183
0.162699
0.162237
0.161796
0.161377
0.16098
0.160606
0.160252
0.15992
0.159606
0.15931
0.15903
0.158764
0.158509
0.158265
0.158029
0.157801
0.15758
0.157364
0.157154
0.156951
0.156753
0.156561
0.156374
0.156192
0.156013
0.155833
0.15565
0.155461
0.155261
0.155052
0.154837
0.154625
0.154434
0.15429
0.154225
0.154281
0.154499
0.154923
0.155587
0.156517
0.157722
0.159198
0.160924
0.162865
0.164976
0.167202
0.169484
0.171764
0.173983
0.176089
0.178037
0.179793
0.181333
0.182644
0.183725
0.184583
0.185232
0.185694
0.185994
0.186157
0.186212
0.186188
0.186113
0.186013
0.185911
0.18583
0.185785
0.185788
0.185846
0.18596
0.186126
0.186335
0.186576
0.186837
0.187106
0.187369
0.187616
0.187834
0.188012
0.188139
0.188187
0.188198
0.187864
0.173479
0.172822
0.172163
0.171502
0.170841
0.170179
0.169519
0.16886
0.168205
0.167555
0.166911
0.166275
0.165647
0.165029
0.164421
0.163825
0.16324
0.162667
0.162106
0.161559
0.161024
0.160502
0.159994
0.1595
0.159019
0.158551
0.158095
0.157652
0.157221
0.156801
0.156392
0.155993
0.155604
0.155223
0.154852
0.15449
0.154138
0.153795
0.153464
0.153145
0.15284
0.152552
0.152283
0.152037
0.151818
0.15163
0.15148
0.151377
0.151332
0.151359
0.151475
0.151701
0.152059
0.152574
0.153266
0.154154
0.15525
0.156556
0.158067
0.159765
0.161623
0.163607
0.165675
0.167779
0.169869
0.171899
0.173822
0.175598
0.177197
0.178595
0.179782
0.180752
0.181513
0.182075
0.182458
0.182681
0.182769
0.182748
0.182641
0.182475
0.182273
0.182059
0.181853
0.18167
0.181526
0.181428
0.181381
0.181386
0.181437
0.181528
0.181649
0.181791
0.181942
0.182091
0.182229
0.182342
0.18242
0.182436
0.182427
0.182111
0.173888
0.173245
0.172599
0.17195
0.171298
0.170645
0.169991
0.169338
0.168685
0.168034
0.167387
0.166745
0.166108
0.165477
0.164852
0.164236
0.163627
0.163027
0.162435
0.161853
0.161279
0.160715
0.160161
0.159616
0.159082
0.158557
0.158043
0.157538
0.157043
0.156558
0.156082
0.155616
0.155159
0.154711
0.154272
0.153844
0.153425
0.153018
0.152623
0.152243
0.151881
0.151539
0.151223
0.150937
0.150687
0.150482
0.15033
0.15024
0.150225
0.150297
0.150471
0.150763
0.151188
0.151762
0.152497
0.153405
0.154491
0.155755
0.157188
0.158777
0.160499
0.162324
0.164218
0.166138
0.168044
0.169893
0.171642
0.173258
0.17471
0.175978
0.177047
0.177916
0.178586
0.179068
0.179376
0.17953
0.179551
0.17946
0.17928
0.179034
0.178745
0.178433
0.178116
0.177812
0.177535
0.177295
0.177099
0.17695
0.176847
0.176787
0.176762
0.176767
0.176792
0.176828
0.176865
0.176892
0.1769
0.176861
0.176812
0.176478
0.174148
0.17352
0.172889
0.172255
0.171618
0.170979
0.170338
0.169697
0.169055
0.168414
0.167775
0.167139
0.166507
0.165879
0.165257
0.16464
0.164029
0.163425
0.162827
0.162236
0.161652
0.161076
0.160508
0.159947
0.159394
0.158849
0.158312
0.157783
0.157262
0.15675
0.156246
0.15575
0.155262
0.154783
0.154313
0.153852
0.153402
0.152963
0.152537
0.152126
0.151733
0.151363
0.151019
0.150708
0.150435
0.15021
0.15004
0.149937
0.14991
0.149972
0.150136
0.150415
0.150821
0.151366
0.15206
0.15291
0.153919
0.155085
0.156401
0.157853
0.159423
0.161083
0.162803
0.164548
0.166279
0.167957
0.169546
0.171013
0.172329
0.173475
0.174437
0.17521
0.175797
0.176204
0.176445
0.176536
0.176495
0.176342
0.176098
0.175783
0.175417
0.175019
0.174608
0.174198
0.173804
0.173437
0.173105
0.172813
0.172563
0.172355
0.172185
0.172049
0.17194
0.171851
0.171773
0.171698
0.171616
0.171501
0.171393
0.171011
0.174294
0.173678
0.173059
0.172437
0.171813
0.171187
0.170559
0.169929
0.1693
0.16867
0.168042
0.167416
0.166793
0.166173
0.165557
0.164946
0.16434
0.163739
0.163144
0.162554
0.161971
0.161393
0.160822
0.160257
0.159699
0.159148
0.158603
0.158066
0.157535
0.157011
0.156494
0.155985
0.155483
0.154989
0.154503
0.154025
0.153558
0.153102
0.152659
0.15223
0.15182
0.151432
0.151071
0.150742
0.150451
0.150207
0.150017
0.149891
0.14984
0.149874
0.150005
0.150244
0.150602
0.151089
0.151713
0.15248
0.15339
0.154443
0.155632
0.156945
0.158364
0.159865
0.161422
0.163001
0.16457
0.166091
0.167531
0.16886
0.170051
0.171084
0.171946
0.172632
0.173141
0.17348
0.173659
0.173692
0.173596
0.173388
0.173087
0.172711
0.172279
0.171808
0.171314
0.170813
0.170317
0.169838
0.169384
0.168963
0.168578
0.16823
0.167919
0.167643
0.167398
0.167178
0.166977
0.166787
0.1666
0.166394
0.16621
0.165749
0.174365
0.173757
0.173146
0.172533
0.171918
0.171301
0.170682
0.170062
0.169442
0.168822
0.168203
0.167585
0.166969
0.166357
0.165748
0.165143
0.164542
0.163945
0.163354
0.162768
0.162187
0.161611
0.161041
0.160476
0.159918
0.159365
0.158818
0.158276
0.157741
0.157213
0.15669
0.156174
0.155665
0.155163
0.154668
0.154182
0.153705
0.153239
0.152785
0.152346
0.151925
0.151525
0.151151
0.150808
0.150502
0.15024
0.150031
0.149882
0.149803
0.149805
0.149897
0.15009
0.150393
0.150815
0.151363
0.152041
0.152852
0.153793
0.154858
0.156037
0.157314
0.158667
0.160072
0.161499
0.162917
0.164293
0.165596
0.166798
0.167872
0.168801
0.169571
0.170175
0.170613
0.170889
0.171011
0.170992
0.170846
0.170589
0.170238
0.16981
0.169321
0.168786
0.168222
0.167642
0.167059
0.166483
0.165923
0.165387
0.16488
0.164404
0.163961
0.163551
0.163172
0.16282
0.162491
0.16218
0.161879
0.161569
0.161296
0.160731
0.174394
0.17379
0.173184
0.172576
0.171966
0.171355
0.170742
0.170128
0.169514
0.1689
0.168286
0.167674
0.167064
0.166456
0.165851
0.16525
0.164652
0.164059
0.16347
0.162885
0.162306
0.161731
0.161162
0.160597
0.160038
0.159484
0.158936
0.158393
0.157856
0.157324
0.156798
0.156278
0.155764
0.155257
0.154758
0.154266
0.153783
0.153311
0.15285
0.152404
0.151975
0.151566
0.151183
0.150828
0.150509
0.150232
0.150004
0.149834
0.149728
0.149698
0.149752
0.149898
0.150147
0.150505
0.150979
0.151573
0.152289
0.153125
0.154075
0.155129
0.156274
0.157491
0.158756
0.160042
0.161322
0.162564
0.163741
0.164824
0.165791
0.166623
0.167307
0.167836
0.168208
0.168425
0.168496
0.16843
0.168239
0.167939
0.167544
0.16707
0.166531
0.165943
0.165319
0.164673
0.164014
0.163355
0.162704
0.162068
0.161453
0.160863
0.1603
0.159765
0.159259
0.15878
0.158325
0.15789
0.157471
0.157049
0.15668
0.155991
0.174402
0.1738
0.173196
0.172591
0.171983
0.171375
0.170765
0.170154
0.169542
0.168931
0.168321
0.167711
0.167103
0.166497
0.165894
0.165294
0.164698
0.164105
0.163516
0.162932
0.162352
0.161776
0.161206
0.16064
0.160079
0.159524
0.158973
0.158428
0.157888
0.157353
0.156824
0.156301
0.155784
0.155273
0.154769
0.154273
0.153786
0.153309
0.152844
0.152392
0.151957
0.151542
0.15115
0.150786
0.150456
0.150166
0.149921
0.14973
0.1496
0.14954
0.149557
0.14966
0.149858
0.150156
0.150562
0.151077
0.151705
0.152443
0.153287
0.154227
0.155251
0.156341
0.157477
0.158634
0.159786
0.160905
0.161964
0.162938
0.163805
0.164547
0.165151
0.16561
0.16592
0.166084
0.166107
0.165997
0.165767
0.165428
0.164995
0.164481
0.163901
0.163267
0.162592
0.161889
0.161168
0.16044
0.159711
0.158989
0.158281
0.157591
0.156921
0.156274
0.155651
0.155053
0.154477
0.153922
0.153386
0.152849
0.15238
0.151553
0.174402
0.1738
0.173197
0.172592
0.171985
0.171377
0.170768
0.170158
0.169548
0.168938
0.168328
0.167719
0.167111
0.166506
0.165902
0.165301
0.164704
0.164109
0.163519
0.162932
0.16235
0.161772
0.161199
0.16063
0.160066
0.159507
0.158953
0.158404
0.15786
0.157322
0.156789
0.156262
0.155741
0.155227
0.154719
0.15422
0.153728
0.153247
0.152778
0.152321
0.151881
0.15146
0.151062
0.15069
0.15035
0.150047
0.149787
0.149577
0.149425
0.149336
0.14932
0.149384
0.149534
0.149777
0.150118
0.150562
0.151108
0.151756
0.152502
0.153337
0.154249
0.155223
0.15624
0.157278
0.158311
0.159316
0.160266
0.161138
0.161911
0.162569
0.163098
0.163491
0.163744
0.163857
0.163836
0.163688
0.163422
0.163049
0.162583
0.162035
0.161418
0.160746
0.160029
0.159279
0.158506
0.157719
0.156926
0.156132
0.155345
0.154569
0.153807
0.153062
0.152336
0.151629
0.150942
0.150274
0.149626
0.148977
0.148408
0.147437
0.174398
0.173796
0.173192
0.172587
0.171981
0.171373
0.170763
0.170153
0.169543
0.168932
0.168322
0.167712
0.167103
0.166496
0.165891
0.165288
0.164687
0.16409
0.163497
0.162907
0.162321
0.161739
0.161161
0.160588
0.16002
0.159456
0.158897
0.158344
0.157796
0.157253
0.156715
0.156184
0.155658
0.15514
0.154628
0.154124
0.153629
0.153144
0.15267
0.152209
0.151764
0.151338
0.150933
0.150553
0.150204
0.14989
0.149616
0.149389
0.149215
0.149101
0.149053
0.14908
0.149186
0.149378
0.14966
0.150036
0.150507
0.151072
0.151727
0.152464
0.153274
0.154141
0.155047
0.155974
0.156898
0.157795
0.158643
0.15942
0.160106
0.160684
0.161143
0.161474
0.161673
0.16174
0.161679
0.161494
0.161196
0.160793
0.160298
0.159721
0.159074
0.15837
0.157618
0.15683
0.156014
0.155179
0.154332
0.15348
0.152627
0.151779
0.150939
0.15011
0.149294
0.148492
0.147707
0.146936
0.146184
0.14543
0.144766
0.143651
0.174393
0.17379
0.173186
0.172581
0.171974
0.171365
0.170755
0.170144
0.169533
0.168921
0.16831
0.167698
0.167088
0.166478
0.16587
0.165265
0.164661
0.16406
0.163463
0.162868
0.162278
0.161691
0.161108
0.16053
0.159956
0.159387
0.158823
0.158264
0.157711
0.157162
0.15662
0.156083
0.155553
0.155029
0.154513
0.154004
0.153504
0.153015
0.152537
0.152071
0.151622
0.15119
0.150778
0.150392
0.150034
0.149708
0.149421
0.149178
0.148984
0.148845
0.148768
0.148759
0.148824
0.148968
0.149196
0.149509
0.14991
0.150398
0.150969
0.151616
0.152329
0.153096
0.1539
0.154724
0.155545
0.156343
0.157095
0.157782
0.158385
0.158889
0.159281
0.159553
0.159701
0.159725
0.159625
0.159408
0.159081
0.158652
0.158132
0.15753
0.156859
0.156129
0.155349
0.15453
0.15368
0.152806
0.151916
0.151016
0.15011
0.149203
0.148298
0.147399
0.146507
0.145624
0.144753
0.143893
0.143048
0.142198
0.141448
0.140195
0.174387
0.173785
0.17318
0.172574
0.171966
0.171356
0.170746
0.170134
0.169521
0.168908
0.168295
0.167682
0.167069
0.166457
0.165847
0.165238
0.164631
0.164026
0.163424
0.162826
0.16223
0.161638
0.16105
0.160466
0.159887
0.159312
0.158742
0.158177
0.157617
0.157063
0.156515
0.155973
0.155437
0.154908
0.154386
0.153873
0.153368
0.152874
0.152391
0.151921
0.151466
0.151028
0.15061
0.150216
0.149849
0.149513
0.149213
0.148954
0.14874
0.148579
0.148474
0.148432
0.148458
0.148557
0.148732
0.148987
0.149323
0.149738
0.15023
0.150793
0.151417
0.152091
0.152799
0.153526
0.154251
0.154955
0.155618
0.15622
0.156744
0.157177
0.157505
0.157722
0.157821
0.157803
0.157668
0.157421
0.157068
0.156616
0.156075
0.155454
0.154764
0.154013
0.153212
0.152369
0.151492
0.150588
0.149665
0.148726
0.147778
0.146823
0.145866
0.144909
0.143955
0.143005
0.142062
0.141126
0.140201
0.139267
0.13844
0.137061
0.174382
0.173779
0.173173
0.172566
0.171958
0.171348
0.170736
0.170123
0.169509
0.168895
0.16828
0.167665
0.16705
0.166436
0.165823
0.165211
0.1646
0.163992
0.163386
0.162782
0.162182
0.161585
0.160991
0.160402
0.159817
0.159236
0.15866
0.158089
0.157523
0.156963
0.156408
0.15586
0.155318
0.154784
0.154257
0.153738
0.153228
0.152729
0.152241
0.151765
0.151305
0.150861
0.150437
0.150035
0.149659
0.149313
0.149
0.148725
0.148493
0.148308
0.148177
0.148103
0.148092
0.148149
0.148275
0.148475
0.148749
0.149097
0.149515
0.149998
0.150538
0.151125
0.151744
0.152379
0.153014
0.153629
0.154206
0.154728
0.155177
0.155541
0.155809
0.155971
0.156025
0.155967
0.155799
0.155524
0.155148
0.154677
0.154119
0.153484
0.152779
0.152014
0.151198
0.150338
0.149441
0.148515
0.147566
0.146598
0.145616
0.144625
0.143626
0.142623
0.141619