/*--------------------------------*- C++ -*----------------------------------*\
  =========                 |
  \\      /  F ield         | OpenFOAM: The Open Source CFD Toolbox
   \\    /   O peration     | Website:  https://openfoam.org
    \\  /    A nd           | Version:  10
     \\/     M anipulation  |
\*---------------------------------------------------------------------------*/
FoamFile
{
    format      ascii;
    class       volScalarField;
    location    "0.115";
    object      nut;
}
// * * * * * * * * * * * * * * * * * * * * * * * * * * * * * * * * * * * * * //

dimensions      [0 2 -1 0 0 0 0];

internalField   nonuniform List<scalar> 
6820
(
0.000149484
0.000144853
0.000140581
0.000136577
0.000132833
0.000129377
0.000126234
0.000123417
0.000120923
0.000118737
0.000116839
0.000115205
0.00011381
0.00011263
0.000111643
0.000110828
0.000110164
0.000109636
0.000109227
0.000108923
0.000108712
0.000108583
0.000108525
0.000108531
0.000108591
0.0001087
0.000108847
0.000109046
0.000109206
0.000109725
0.000108712
0.000115004
8.71819e-05
0.000729198
0.000532393
0.000448015
0.000399711
0.000368386
0.000346738
0.000331096
0.000319367
0.000310281
0.000303033
0.000297103
0.000292143
0.000287919
0.000284266
0.000281066
0.000278233
0.000275703
0.000273424
0.000271359
0.000269477
0.000267752
0.000266165
0.000264699
0.000263341
0.000262079
0.000260902
0.000259805
0.000258777
0.000257823
0.000256933
0.000256132
0.000255277
0.000256462
0.000976777
0.000872182
0.000781624
0.000711267
0.000657323
0.000615285
0.000581717
0.000554259
0.000531326
0.000511833
0.000495021
0.000480344
0.000467395
0.000455871
0.000445536
0.000436207
0.000427739
0.000420013
0.000412934
0.000406423
0.000400414
0.000394852
0.000389689
0.000384885
0.000380403
0.000376213
0.000372285
0.000368595
0.000365106
0.000361809
0.000358616
0.000355494
0.000352131
0.00101348
0.00098823
0.000949374
0.000906194
0.000864428
0.000826388
0.000792559
0.000762675
0.000736242
0.00071275
0.000691744
0.000672842
0.000655727
0.00064014
0.00062587
0.000612743
0.000600615
0.000589367
0.000578899
0.000569128
0.000559981
0.000551397
0.000543325
0.000535717
0.000528534
0.00052174
0.000515301
0.00050919
0.000503374
0.000497834
0.000492517
0.000487439
0.000482421
0.00101671
0.00101241
0.00100191
0.000985661
0.000965605
0.000943715
0.000921427
0.000899619
0.000878758
0.000859054
0.000840566
0.000823271
0.000807107
0.000791992
0.000777843
0.000764576
0.000752113
0.000740381
0.000729317
0.000718863
0.000708967
0.000699583
0.000690669
0.000682189
0.00067411
0.000666402
0.000659036
0.000651987
0.00064523
0.000638745
0.000632497
0.000626479
0.000620634
0.00101676
0.00101592
0.0010136
0.00100903
0.00100204
0.000992921
0.000982194
0.000970402
0.000958012
0.000945384
0.000932776
0.000920361
0.000908255
0.000896524
0.000885207
0.00087432
0.000863865
0.000853835
0.000844218
0.000834997
0.000826155
0.000817672
0.000809531
0.000801712
0.000794198
0.000786972
0.000780015
0.000773313
0.000766848
0.000760607
0.000754571
0.000748731
0.000743067
0.00101671
0.00101623
0.00101553
0.00101428
0.00101219
0.0010091
0.00100497
0.000999894
0.000994023
0.000987526
0.000980567
0.000973292
0.000965826
0.000958267
0.000950694
0.000943166
0.000935728
0.000928413
0.000921245
0.000914238
0.000907404
0.000900747
0.000894272
0.000887978
0.000881862
0.000875922
0.000870154
0.000864552
0.00085911
0.000853822
0.000848682
0.000843685
0.000838826
0.0010167
0.00101622
0.00101574
0.00101518
0.00101442
0.00101335
0.00101188
0.00100995
0.00100756
0.00100471
0.00100145
0.000997833
0.000993918
0.000989762
0.00098542
0.000980939
0.000976363
0.000971728
0.000967064
0.000962398
0.000957748
0.000953134
0.000948568
0.00094406
0.00093962
0.000935253
0.000930963
0.000926753
0.000922627
0.000918584
0.000914625
0.000910752
0.000906966
0.0010167
0.00101621
0.00101575
0.00101528
0.0010148
0.00101425
0.00101359
0.00101279
0.00101179
0.00101059
0.00100918
0.00100754
0.00100569
0.00100366
0.00100144
0.000999075
0.000996576
0.000993967
0.000991267
0.000988497
0.000985672
0.000982807
0.000979917
0.000977013
0.000974105
0.000971202
0.000968311
0.000965439
0.000962592
0.000959774
0.000956989
0.000954241
0.000951534
0.0010167
0.00101621
0.00101574
0.00101529
0.00101484
0.00101439
0.00101393
0.00101344
0.0010129
0.00101229
0.0010116
0.00101082
0.00100994
0.00100895
0.00100787
0.00100668
0.00100541
0.00100404
0.0010026
0.00100108
0.000999501
0.000997869
0.000996191
0.000994475
0.000992728
0.000990957
0.000989168
0.000987367
0.000985559
0.000983749
0.000981942
0.000980141
0.000978351
0.0010167
0.00101621
0.00101574
0.00101528
0.00101484
0.00101441
0.00101398
0.00101356
0.00101313
0.0010127
0.00101224
0.00101176
0.00101125
0.0010107
0.00101011
0.00100947
0.00100879
0.00100806
0.00100728
0.00100646
0.0010056
0.0010047
0.00100376
0.00100279
0.00100179
0.00100077
0.000999719
0.000998652
0.00099757
0.000996476
0.000995373
0.000994264
0.000993152
0.0010167
0.00101621
0.00101574
0.00101528
0.00101484
0.0010144
0.00101398
0.00101357
0.00101317
0.00101278
0.00101238
0.00101199
0.00101159
0.00101119
0.00101078
0.00101036
0.00100992
0.00100946
0.00100899
0.0010085
0.00100798
0.00100745
0.0010069
0.00100634
0.00100575
0.00100515
0.00100453
0.00100391
0.00100326
0.00100261
0.00100195
0.00100128
0.00100061
0.0010167
0.00101621
0.00101574
0.00101528
0.00101483
0.0010144
0.00101398
0.00101357
0.00101317
0.00101278
0.0010124
0.00101203
0.00101167
0.00101131
0.00101095
0.0010106
0.00101024
0.00100989
0.00100953
0.00100917
0.00100881
0.00100844
0.00100806
0.00100768
0.0010073
0.00100691
0.00100651
0.00100611
0.0010057
0.00100529
0.00100487
0.00100445
0.00100403
0.0010167
0.00101621
0.00101574
0.00101528
0.00101483
0.0010144
0.00101398
0.00101357
0.00101317
0.00101278
0.0010124
0.00101204
0.00101168
0.00101133
0.00101099
0.00101065
0.00101032
0.00101
0.00100968
0.00100937
0.00100906
0.00100875
0.00100844
0.00100814
0.00100784
0.00100753
0.00100723
0.00100693
0.00100664
0.00100634
0.00100604
0.00100574
0.00100545
0.0010167
0.00101621
0.00101574
0.00101528
0.00101483
0.0010144
0.00101398
0.00101357
0.00101317
0.00101278
0.0010124
0.00101203
0.00101168
0.00101133
0.00101099
0.00101066
0.00101034
0.00101002
0.00100971
0.00100941
0.00100912
0.00100883
0.00100855
0.00100827
0.001008
0.00100773
0.00100747
0.00100721
0.00100695
0.0010067
0.00100646
0.00100622
0.00100598
0.0010167
0.00101621
0.00101574
0.00101528
0.00101483
0.0010144
0.00101397
0.00101356
0.00101317
0.00101278
0.0010124
0.00101203
0.00101167
0.00101133
0.00101099
0.00101066
0.00101033
0.00101002
0.00100972
0.00100942
0.00100913
0.00100885
0.00100857
0.0010083
0.00100804
0.00100778
0.00100753
0.00100729
0.00100705
0.00100682
0.00100659
0.00100637
0.00100615
0.0010167
0.00101621
0.00101574
0.00101528
0.00101483
0.0010144
0.00101397
0.00101356
0.00101316
0.00101277
0.0010124
0.00101203
0.00101167
0.00101132
0.00101098
0.00101065
0.00101033
0.00101002
0.00100971
0.00100942
0.00100913
0.00100885
0.00100857
0.0010083
0.00100804
0.00100779
0.00100754
0.0010073
0.00100707
0.00100684
0.00100662
0.0010064
0.00100619
0.0010167
0.00101621
0.00101574
0.00101528
0.00101483
0.0010144
0.00101397
0.00101356
0.00101316
0.00101277
0.00101239
0.00101203
0.00101167
0.00101132
0.00101098
0.00101065
0.00101033
0.00101001
0.00100971
0.00100941
0.00100912
0.00100884
0.00100857
0.0010083
0.00100804
0.00100779
0.00100754
0.0010073
0.00100707
0.00100684
0.00100662
0.00100641
0.0010062
0.0010167
0.00101621
0.00101574
0.00101528
0.00101483
0.00101439
0.00101397
0.00101356
0.00101316
0.00101277
0.00101239
0.00101202
0.00101167
0.00101132
0.00101098
0.00101065
0.00101032
0.00101001
0.00100971
0.00100941
0.00100912
0.00100884
0.00100856
0.0010083
0.00100804
0.00100778
0.00100754
0.0010073
0.00100706
0.00100684
0.00100662
0.0010064
0.00100619
0.0010167
0.00101621
0.00101574
0.00101528
0.00101483
0.00101439
0.00101397
0.00101356
0.00101316
0.00101277
0.00101239
0.00101202
0.00101166
0.00101132
0.00101098
0.00101064
0.00101032
0.00101001
0.0010097
0.0010094
0.00100912
0.00100883
0.00100856
0.00100829
0.00100803
0.00100778
0.00100753
0.00100729
0.00100706
0.00100683
0.00100661
0.00100639
0.00100618
0.0010167
0.00101621
0.00101574
0.00101528
0.00101483
0.00101439
0.00101397
0.00101356
0.00101316
0.00101277
0.00101239
0.00101202
0.00101166
0.00101131
0.00101097
0.00101064
0.00101032
0.00101001
0.0010097
0.0010094
0.00100911
0.00100883
0.00100855
0.00100829
0.00100803
0.00100777
0.00100752
0.00100728
0.00100705
0.00100682
0.0010066
0.00100638
0.00100618
0.0010167
0.00101621
0.00101574
0.00101528
0.00101483
0.00101439
0.00101397
0.00101356
0.00101316
0.00101277
0.00101239
0.00101202
0.00101166
0.00101131
0.00101097
0.00101064
0.00101032
0.00101
0.0010097
0.0010094
0.00100911
0.00100883
0.00100855
0.00100828
0.00100802
0.00100777
0.00100752
0.00100728
0.00100704
0.00100681
0.00100659
0.00100638
0.00100617
0.0010167
0.00101621
0.00101574
0.00101528
0.00101483
0.00101439
0.00101397
0.00101356
0.00101316
0.00101277
0.00101239
0.00101202
0.00101166
0.00101131
0.00101097
0.00101064
0.00101031
0.00101
0.00100969
0.0010094
0.00100911
0.00100882
0.00100855
0.00100828
0.00100802
0.00100776
0.00100751
0.00100727
0.00100704
0.00100681
0.00100658
0.00100637
0.00100616
0.0010167
0.00101621
0.00101574
0.00101528
0.00101483
0.00101439
0.00101397
0.00101356
0.00101316
0.00101277
0.00101239
0.00101202
0.00101166
0.00101131
0.00101097
0.00101064
0.00101031
0.00101
0.00100969
0.00100939
0.0010091
0.00100882
0.00100854
0.00100827
0.00100801
0.00100776
0.00100751
0.00100727
0.00100703
0.0010068
0.00100658
0.00100636
0.00100615
0.0010167
0.00101621
0.00101574
0.00101528
0.00101483
0.00101439
0.00101397
0.00101356
0.00101316
0.00101277
0.00101239
0.00101202
0.00101166
0.00101131
0.00101097
0.00101063
0.00101031
0.00101
0.00100969
0.00100939
0.0010091
0.00100882
0.00100854
0.00100827
0.00100801
0.00100775
0.0010075
0.00100726
0.00100702
0.00100679
0.00100657
0.00100635
0.00100614
0.0010167
0.00101621
0.00101574
0.00101528
0.00101483
0.00101439
0.00101397
0.00101356
0.00101316
0.00101277
0.00101239
0.00101202
0.00101166
0.00101131
0.00101097
0.00101063
0.00101031
0.00100999
0.00100969
0.00100939
0.0010091
0.00100881
0.00100854
0.00100827
0.001008
0.00100775
0.0010075
0.00100726
0.00100702
0.00100679
0.00100656
0.00100634
0.00100613
0.0010167
0.00101621
0.00101574
0.00101528
0.00101483
0.00101439
0.00101397
0.00101356
0.00101316
0.00101277
0.00101239
0.00101202
0.00101166
0.00101131
0.00101096
0.00101063
0.00101031
0.00100999
0.00100969
0.00100939
0.00100909
0.00100881
0.00100853
0.00100826
0.001008
0.00100774
0.00100749
0.00100725
0.00100701
0.00100678
0.00100656
0.00100634
0.00100612
0.0010167
0.00101621
0.00101574
0.00101528
0.00101483
0.00101439
0.00101397
0.00101356
0.00101316
0.00101277
0.00101239
0.00101202
0.00101166
0.00101131
0.00101096
0.00101063
0.00101031
0.00100999
0.00100968
0.00100939
0.00100909
0.00100881
0.00100853
0.00100826
0.001008
0.00100774
0.00100749
0.00100725
0.00100701
0.00100678
0.00100655
0.00100633
0.00100612
0.0010167
0.00101621
0.00101574
0.00101528
0.00101483
0.00101439
0.00101397
0.00101356
0.00101316
0.00101277
0.00101239
0.00101202
0.00101166
0.00101131
0.00101096
0.00101063
0.00101031
0.00100999
0.00100968
0.00100938
0.00100909
0.00100881
0.00100853
0.00100826
0.001008
0.00100774
0.00100749
0.00100724
0.00100701
0.00100677
0.00100655
0.00100633
0.00100611
0.0010167
0.00101621
0.00101574
0.00101528
0.00101483
0.00101439
0.00101397
0.00101356
0.00101316
0.00101277
0.00101239
0.00101202
0.00101166
0.00101131
0.00101096
0.00101063
0.00101031
0.00100999
0.00100968
0.00100938
0.00100909
0.00100881
0.00100853
0.00100826
0.00100799
0.00100774
0.00100749
0.00100724
0.001007
0.00100677
0.00100654
0.00100632
0.00100611
0.0010167
0.00101621
0.00101574
0.00101528
0.00101483
0.00101439
0.00101397
0.00101356
0.00101316
0.00101277
0.00101239
0.00101202
0.00101166
0.00101131
0.00101097
0.00101063
0.00101031
0.00100999
0.00100969
0.00100939
0.00100909
0.00100881
0.00100853
0.00100826
0.00100799
0.00100774
0.00100748
0.00100724
0.001007
0.00100676
0.00100654
0.00100631
0.0010061
0.0010167
0.00101621
0.00101574
0.00101528
0.00101483
0.0010144
0.00101397
0.00101356
0.00101316
0.00101277
0.00101239
0.00101202
0.00101166
0.00101131
0.00101097
0.00101064
0.00101031
0.00101
0.00100969
0.00100939
0.00100909
0.00100881
0.00100852
0.00100825
0.00100798
0.00100772
0.00100746
0.00100721
0.00100697
0.00100673
0.00100649
0.00100626
0.00100604
0.0010167
0.00101621
0.00101574
0.00101528
0.00101483
0.0010144
0.00101398
0.00101357
0.00101317
0.00101278
0.0010124
0.00101203
0.00101167
0.00101132
0.00101097
0.00101064
0.00101031
0.00100998
0.00100967
0.00100936
0.00100905
0.00100875
0.00100846
0.00100817
0.00100788
0.0010076
0.00100732
0.00100705
0.00100677
0.00100651
0.00100624
0.00100598
0.00100572
0.0010167
0.00101621
0.00101574
0.00101529
0.00101484
0.00101441
0.00101399
0.00101358
0.00101318
0.00101279
0.0010124
0.00101202
0.00101164
0.00101127
0.00101089
0.00101053
0.00101016
0.00100979
0.00100942
0.00100906
0.00100869
0.00100832
0.00100794
0.00100757
0.00100719
0.00100681
0.00100643
0.00100605
0.00100566
0.00100527
0.00100488
0.00100448
0.00100409
0.0010167
0.00101622
0.00101575
0.0010153
0.00101485
0.00101441
0.00101397
0.00101352
0.00101308
0.00101262
0.00101215
0.00101166
0.00101115
0.00101063
0.00101008
0.00100951
0.00100892
0.0010083
0.00100766
0.00100699
0.00100631
0.0010056
0.00100487
0.00100412
0.00100335
0.00100256
0.00100176
0.00100094
0.00100012
0.000999274
0.000998423
0.000997563
0.000996696
0.00101671
0.00101622
0.00101574
0.00101524
0.00101469
0.00101407
0.00101337
0.00101257
0.00101167
0.00101067
0.00100955
0.00100832
0.00100698
0.00100555
0.00100401
0.00100238
0.00100067
0.000998877
0.000997018
0.000995097
0.000993123
0.000991101
0.000989039
0.000986945
0.000984824
0.000982681
0.000980524
0.000978356
0.000976182
0.000974007
0.000971835
0.000969668
0.000967511
0.00101671
0.001016
0.00101488
0.00101326
0.00101113
0.00100848
0.00100534
0.00100171
0.00099765
0.000993206
0.00098843
0.000983376
0.000978095
0.000972635
0.000967039
0.000961347
0.000955593
0.000949807
0.000944016
0.000938241
0.000932502
0.000926816
0.000921194
0.00091565
0.000910191
0.000904826
0.00089956
0.000894397
0.000889342
0.000884396
0.000879562
0.00087484
0.000870232
0.0010153
0.00100706
0.00099552
0.000981425
0.000965405
0.000948071
0.00092998
0.000911582
0.000893209
0.000875101
0.000857423
0.000840283
0.000823749
0.000807857
0.000792621
0.000778041
0.000764106
0.000750797
0.000738093
0.000725969
0.000714398
0.000703353
0.000692808
0.000682737
0.000673115
0.000663918
0.000655122
0.000646708
0.000638653
0.000630938
0.000623546
0.000616458
0.000609657
0.000935928
0.000815551
0.000728185
0.000659266
0.000602397
0.00055516
0.000515658
0.000482304
0.000453849
0.000429327
0.000407998
0.000389289
0.000372755
0.000358046
0.000344884
0.000333045
0.000322346
0.000312637
0.000303794
0.000295713
0.000288305
0.000281495
0.000275219
0.000269422
0.000264056
0.000259078
0.000254452
0.000250146
0.00024613
0.000242379
0.000238871
0.000235586
0.000232504
0.000125477
0.000128847
0.000132096
0.000135204
0.000138173
0.000141007
0.000143711
0.000146289
0.000148745
0.000151084
0.00015331
0.000155428
0.000157441
0.000159354
0.000161171
0.000162895
0.000164532
0.000166085
0.000167557
0.000168953
0.000170276
0.000171529
0.000172717
0.000173841
0.000174906
0.000175913
0.000176867
0.00017777
0.000178624
0.000179431
0.000180196
0.000180918
0.000181602
0.000106799
0.000150722
0.000195297
0.000239257
0.00028156
0.000320778
0.000356203
0.000388126
0.000417493
0.000445437
0.000472873
0.000500334
0.000527997
0.000555826
0.000583732
0.000611697
0.000639826
0.000668327
0.000697462
0.000727489
0.000758627
0.000791036
0.000824823
0.000860043
0.00089671
0.000934792
0.000974213
0.00101485
0.00105655
0.0010991
0.00114227
0.00118584
0.00122952
0.00127304
0.00131612
0.00135845
0.00139966
0.00143935
0.00147706
0.00151222
0.00154418
0.0015722
0.00159542
0.00161287
0.00162351
0.00162619
0.00161978
0.00160312
0.00157517
0.00153506
0.00148225
0.00141672
0.00133925
0.00125184
0.00115828
0.00106491
0.000981279
0.000919907
0.000893543
0.000908673
0.000958451
0.00102421
0.00108761
0.00114005
0.00118131
0.00121435
0.00124201
0.00126617
0.00128792
0.00130784
0.00132631
0.00134358
0.00135994
0.00137562
0.00139089
0.00140602
0.00142124
0.00143676
0.00145272
0.00146918
0.00148611
0.00150339
0.00152083
0.00153817
0.00155511
0.00157139
0.00158675
0.001601
0.00161398
0.00162563
0.00163592
0.00164488
0.00165259
0.00165913
0.00166462
0.00166919
0.00167294
0.00167614
0.00167835
0.00168185
0.000245879
0.000213679
0.000184019
0.00016952
0.000169365
0.00018028
0.000199498
0.000224746
0.000254041
0.000285596
0.000317889
0.000349776
0.000380563
0.000410006
0.000438208
0.000465477
0.000492173
0.000518611
0.000545019
0.000571551
0.000598325
0.000625454
0.000653066
0.000681298
0.000710284
0.000740131
0.000770909
0.000802638
0.000835291
0.000868793
0.000903026
0.00093784
0.000973055
0.00100846
0.00104383
0.0010789
0.00111334
0.00114681
0.00117886
0.00120899
0.0012366
0.00126098
0.00128135
0.0012968
0.00130639
0.0013091
0.00130392
0.0012899
0.00126628
0.00123258
0.00118883
0.00113582
0.00107547
0.00101131
0.000949
0.000896582
0.000863838
0.000859624
0.00088693
0.000938812
0.00100092
0.00106003
0.00110982
0.00114995
0.00118266
0.00121033
0.00123465
0.00125662
0.00127679
0.00129546
0.00131286
0.00132917
0.00134459
0.00135934
0.00137366
0.00138779
0.00140195
0.00141636
0.00143118
0.00144651
0.00146238
0.00147873
0.0014954
0.0015122
0.00152887
0.00154514
0.00156075
0.00157548
0.00158916
0.00160167
0.00161295
0.001623
0.00163186
0.00163958
0.00164625
0.00165198
0.00165684
0.00166111
0.00166427
0.00166902
0.000349372
0.000343584
0.000327386
0.000299225
0.000265733
0.00023515
0.000211923
0.000197409
0.000191037
0.00019196
0.000199323
0.000212216
0.000229687
0.000250696
0.000274169
0.000299081
0.000324567
0.000349991
0.000374977
0.000399384
0.000423246
0.000446703
0.00046994
0.000493146
0.000516488
0.000540106
0.000564111
0.000588588
0.000613598
0.000639177
0.000665328
0.000692025
0.000719207
0.000746777
0.000774601
0.000802503
0.000830256
0.000857577
0.000884113
0.000909435
0.000933032
0.000954308
0.000972585
0.000987117
0.000997115
0.00100179
0.00100041
0.00099241
0.000977507
0.00095589
0.000928449
0.000897068
0.000864934
0.000836755
0.000818588
0.00081682
0.000835878
0.000875311
0.000928638
0.000986099
0.00103951
0.00108505
0.00112264
0.00115396
0.00118089
0.00120484
0.00122668
0.00124687
0.00126566
0.00128319
0.00129958
0.00131497
0.00132952
0.0013434
0.00135683
0.00137001
0.00138318
0.00139652
0.00141023
0.00142442
0.00143916
0.00145446
0.00147021
0.00148627
0.00150243
0.00151843
0.00153404
0.00154901
0.00156316
0.00157633
0.00158844
0.00159944
0.00160932
0.00161813
0.00162591
0.00163276
0.00163871
0.00164403
0.00164813
0.00165414
0.000476981
0.000471318
0.000464661
0.000454518
0.000438691
0.000416555
0.00038931
0.000359405
0.000329383
0.000301357
0.000276907
0.000257461
0.000243341
0.000234477
0.000230585
0.000231245
0.000235931
0.000244052
0.000254979
0.000268092
0.000282817
0.000298663
0.000315242
0.000332281
0.000349612
0.000367159
0.000384912
0.000402908
0.000421208
0.000439881
0.000458991
0.000478585
0.000498688
0.000519299
0.000540383
0.000561871
0.000583647
0.000605546
0.000627343
0.00064875
0.000669414
0.00068892
0.000706803
0.000722568
0.000735729
0.000745862
0.000752687
0.000756175
0.000756686
0.00075513
0.000753124
0.000753085
0.00075814
0.000771672
0.000796362
0.000832898
0.000879057
0.000930117
0.000980672
0.00102668
0.00106642
0.00110013
0.001129
0.00115439
0.00117737
0.00119861
0.00121847
0.00123713
0.00125466
0.00127111
0.00128655
0.00130107
0.00131478
0.00132785
0.00134045
0.00135277
0.001365
0.00137735
0.00138998
0.00140305
0.00141665
0.00143083
0.00144554
0.0014607
0.00147613
0.00149163
0.00150698
0.00152194
0.00153631
0.00154992
0.00156264
0.0015744
0.00158517
0.00159495
0.00160375
0.00161163
0.00161862
0.00162495
0.00162997
0.00163724
0.00061401
0.000606733
0.00059965
0.000592351
0.000584043
0.000573772
0.000560697
0.00054433
0.000524591
0.000501727
0.000476354
0.000449898
0.000423586
0.000398479
0.000375428
0.000355054
0.000337754
0.00032372
0.000312982
0.000305435
0.000300883
0.000299068
0.000299703
0.00030249
0.000307143
0.000313402
0.000321041
0.00032988
0.000339779
0.000350641
0.000362401
0.000375021
0.000388478
0.000402759
0.000417849
0.000433728
0.000450357
0.000467678
0.000485604
0.000504024
0.000522793
0.000541749
0.00056072
0.000579544
0.000598107
0.000616385
0.000634503
0.000652796
0.000671865
0.000692593
0.000716092
0.000743518
0.000775754
0.000812995
0.000854427
0.000898209
0.000941909
0.000983221
0.00102061
0.00105358
0.00108247
0.00110806
0.00113123
0.00115267
0.00117283
0.00119197
0.00121018
0.00122748
0.00124384
0.00125927
0.0012738
0.00128748
0.00130041
0.00131271
0.00132454
0.00133605
0.00134743
0.00135885
0.00137048
0.00138248
0.00139496
0.00140799
0.0014216
0.00143573
0.00145027
0.00146505
0.0014799
0.00149459
0.00150892
0.00152272
0.00153583
0.00154815
0.00155962
0.00157021
0.00157989
0.00158871
0.00159666
0.00160394
0.00160984
0.00161835
0.000736659
0.000729486
0.000722425
0.000715447
0.00070842
0.0007011
0.000693144
0.000684163
0.000673776
0.000661662
0.000647657
0.000631794
0.000614305
0.00059558
0.000576109
0.000556427
0.000537061
0.0005185
0.000501162
0.000485386
0.00047142
0.000459432
0.000449511
0.000441687
0.000435935
0.000432194
0.000430378
0.000430383
0.000432103
0.000435432
0.000440268
0.000446522
0.000454111
0.000462965
0.000473024
0.000484235
0.000496554
0.000509947
0.000524385
0.00053985
0.000556335
0.000573845
0.000592403
0.000612053
0.000632865
0.000654945
0.000678436
0.000703514
0.000730367
0.00075915
0.00078991
0.000822501
0.000856507
0.000891218
0.000925705
0.000958986
0.000990243
0.00101899
0.00104516
0.00106898
0.00109092
0.00111143
0.00113091
0.00114961
0.00116767
0.00118511
0.00120189
0.00121794
0.00123322
0.00124769
0.00126134
0.00127423
0.00128641
0.001298
0.0013091
0.00131987
0.00133046
0.00134103
0.00135174
0.00136273
0.00137413
0.00138605
0.00139852
0.00141155
0.00142507
0.00143898
0.00145311
0.0014673
0.00148134
0.00149507
0.00150832
0.00152097
0.00153293
0.00154413
0.00155454
0.00156416
0.00157296
0.00158111
0.00158782
0.00159753
0.000833317
0.000827108
0.000820928
0.000814785
0.000808672
0.00080255
0.000796345
0.00078994
0.00078319
0.00077594
0.000768034
0.000759342
0.000749793
0.000739385
0.000728191
0.000716354
0.000704072
0.000691585
0.000679153
0.000667043
0.000655507
0.00064478
0.000635061
0.000626515
0.000619272
0.000613422
0.000609022
0.0006061
0.000604659
0.000604684
0.00060614
0.000608985
0.000613166
0.000618629
0.000625314
0.000633166
0.000642133
0.000652171
0.000663245
0.000675335
0.000688434
0.000702552
0.000717713
0.000733952
0.000751312
0.000769831
0.000789532
0.000810408
0.000832403
0.000855392
0.000879169
0.000903439
0.000927833
0.000951946
0.000975395
0.000997878
0.00101923
0.00103944
0.00105862
0.00107697
0.00109471
0.00111202
0.00112901
0.00114572
0.0011621
0.0011781
0.00119362
0.00120855
0.00122282
0.00123638
0.00124921
0.00126134
0.00127282
0.00128373
0.00129416
0.00130425
0.00131411
0.0013239
0.00133376
0.00134382
0.00135421
0.00136505
0.0013764
0.00138831
0.00140074
0.00141364
0.0014269
0.00144037
0.00145389
0.0014673
0.00148043
0.00149316
0.00150537
0.00151699
0.00152794
0.00153819
0.00154769
0.00155661
0.00156403
0.00157485
0.000902651
0.000897752
0.00089283
0.000887895
0.000882953
0.000878006
0.000873047
0.000868059
0.000863014
0.000857873
0.000852586
0.000847101
0.000841368
0.000835349
0.000829029
0.000822417
0.000815551
0.000808496
0.000801347
0.000794216
0.000787231
0.000780527
0.000774241
0.000768501
0.000763425
0.000759116
0.000755657
0.000753114
0.000751534
0.000750947
0.000751366
0.000752791
0.000755211
0.000758603
0.00076294
0.000768187
0.000774309
0.000781272
0.000789044
0.0007976
0.00080692
0.000816991
0.000827808
0.000839367
0.000851667
0.000864698
0.000878442
0.000892857
0.00090788
0.000923413
0.000939331
0.000955487
0.000971722
0.000987892
0.00100388
0.00101963
0.00103513
0.00105042
0.00106557
0.00108067
0.00109579
0.00111094
0.00112612
0.00114125
0.00115625
0.00117101
0.00118539
0.0011993
0.00121264
0.00122535
0.00123742
0.00124884
0.00125965
0.00126992
0.00127972
0.00128917
0.00129837
0.00130745
0.00131653
0.00132574
0.00133521
0.00134503
0.00135532
0.00136611
0.00137742
0.00138924
0.0014015
0.00141409
0.00142689
0.00143975
0.00145252
0.00146508
0.0014773
0.00148909
0.00150036
0.00151105
0.00152109
0.00153061
0.00153864
0.00155046
0.000948424
0.000944864
0.000941252
0.000937596
0.000933902
0.000930175
0.000926422
0.000922647
0.000918855
0.000915046
0.000911218
0.000907365
0.000903481
0.000899558
0.00089559
0.000891576
0.000887522
0.000883444
0.000879369
0.000875333
0.000871386
0.000867584
0.00086399
0.000860672
0.000857696
0.000855127
0.000853023
0.000851435
0.000850406
0.00084997
0.000850151
0.000850963
0.000852414
0.000854501
0.000857216
0.000860548
0.000864478
0.000868989
0.000874064
0.000879685
0.000885839
0.000892512
0.000899697
0.000907385
0.000915568
0.000924237
0.000933377
0.000942969
0.000952982
0.000963382
0.000974123
0.000985161
0.000996453
0.00100797
0.00101969
0.00103162
0.00104379
0.00105621
0.00106892
0.00108193
0.00109524
0.0011088
0.00112255
0.00113639
0.0011502
0.00116386
0.00117723
0.00119021
0.00120269
0.00121463
0.00122597
0.00123673
0.00124692
0.00125659
0.00126581
0.00127466
0.00128325
0.00129168
0.00130005
0.00130849
0.0013171
0.001326
0.00133527
0.001345
0.00135521
0.00136593
0.00137712
0.00138871
0.00140062
0.00141274
0.00142493
0.00143707
0.00144906
0.00146077
0.00147213
0.00148304
0.00149341
0.00150338
0.00151186
0.00152451
0.000976276
0.000973875
0.000971413
0.000968894
0.000966323
0.000963704
0.000961045
0.000958353
0.000955636
0.000952902
0.000950159
0.000947417
0.000944684
0.000941968
0.000939276
0.000936615
0.000933995
0.000931424
0.000928914
0.000926482
0.000924146
0.000921929
0.000919857
0.000917959
0.000916267
0.000914811
0.000913624
0.000912733
0.000912165
0.000911943
0.000912084
0.000912602
0.000913508
0.000914805
0.000916495
0.000918576
0.000921042
0.000923889
0.00092711
0.000930698
0.000934651
0.000938965
0.00094364
0.000948676
0.000954076
0.000959842
0.000965979
0.000972488
0.000979373
0.000986634
0.000994274
0.0010023
0.00101071
0.00101952
0.00102875
0.00103841
0.00104853
0.00105912
0.00107018
0.0010817
0.00109365
0.00110594
0.00111851
0.00113125
0.00114402
0.0011567
0.00116916
0.00118129
0.001193
0.00120422
0.0012149
0.00122503
0.00123464
0.00124375
0.00125242
0.00126072
0.00126874
0.00127657
0.0012843
0.00129204
0.00129988
0.00130793
0.00131628
0.001325
0.00133416
0.00134378
0.00135388
0.00136441
0.00137533
0.00138655
0.00139797
0.00140949
0.001421
0.00143241
0.00144361
0.00145451
0.001465
0.0014752
0.00148397
0.00149724
0.000991849
0.000990328
0.000988751
0.000987121
0.000985439
0.00098371
0.000981937
0.000980127
0.000978286
0.000976421
0.00097454
0.000972654
0.000970771
0.000968902
0.000967058
0.000965247
0.000963481
0.000961769
0.000960122
0.00095855
0.000957064
0.000955677
0.000954401
0.000953251
0.000952239
0.000951383
0.000950695
0.000950191
0.000949885
0.000949787
0.00094991
0.000950262
0.00095085
0.00095168
0.000952754
0.000954074
0.000955642
0.000957458
0.000959523
0.000961839
0.000964409
0.000967239
0.000970336
0.000973709
0.000977371
0.000981337
0.000985623
0.000990247
0.000995231
0.0010006
0.00100637
0.00101257
0.00101923
0.00102637
0.00103403
0.00104222
0.00105096
0.00106026
0.00107011
0.00108048
0.00109132
0.00110257
0.00111414
0.00112591
0.00113776
0.00114957
0.00116121
0.00117258
0.00118358
0.00119413
0.0012042
0.00121375
0.00122281
0.0012314
0.00123956
0.00124735
0.00125485
0.00126213
0.00126927
0.00127637
0.00128352
0.0012908
0.0012983
0.00130611
0.00131428
0.00132286
0.00133188
0.00134133
0.0013512
0.00136142
0.00137193
0.00138265
0.0013935
0.00140437
0.00141517
0.00142583
0.00143621
0.00144643
0.00145528
0.00146893
0.000999819
0.000998886
0.000997912
0.000996896
0.00099584
0.000994745
0.000993615
0.000992451
0.000991259
0.000990043
0.00098881
0.000987566
0.000986318
0.000985075
0.000983844
0.000982634
0.000981453
0.000980311
0.000979216
0.000978175
0.000977199
0.000976294
0.00097547
0.000974735
0.000974097
0.000973564
0.000973144
0.000972845
0.000972673
0.000972636
0.00097274
0.00097299
0.00097339
0.000973945
0.000974658
0.000975532
0.000976571
0.000977778
0.000979158
0.000980716
0.000982461
0.000984402
0.000986553
0.000988927
0.000991544
0.000994424
0.000997592
0.00100108
0.0010049
0.00100911
0.00101372
0.00101878
0.00102432
0.00103037
0.00103697
0.00104413
0.00105187
0.0010602
0.0010691
0.00107854
0.00108847
0.00109883
0.00110952
0.00112045
0.00113148
0.00114251
0.00115342
0.00116409
0.00117443
0.00118437
0.00119387
0.00120289
0.00121145
0.00121954
0.00122723
0.00123454
0.00124155
0.00124833
0.00125494
0.00126146
0.00126798
0.00127457
0.00128131
0.00128828
0.00129555
0.00130316
0.00131115
0.00131955
0.00132835
0.00133753
0.00134704
0.00135684
0.00136685
0.001377
0.00138721
0.00139739
0.00140743
0.00141744
0.00142618
0.00143993
0.00100353
0.00100295
0.00100234
0.0010017
0.00100104
0.00100035
0.000999633
0.000998895
0.000998135
0.000997359
0.000996568
0.000995768
0.000994964
0.000994159
0.000993361
0.000992575
0.000991806
0.000991062
0.000990348
0.00098967
0.000989034
0.000988448
0.000987916
0.000987445
0.00098704
0.000986707
0.000986451
0.000986277
0.000986188
0.000986191
0.000986287
0.000986482
0.000986778
0.000987179
0.000987689
0.00098831
0.000989048
0.000989906
0.000990892
0.000992013
0.000993279
0.000994703
0.000996299
0.000998086
0.00100008
0.00100232
0.00100481
0.0010076
0.00101072
0.0010142
0.00101808
0.00102239
0.00102718
0.00103248
0.00103833
0.00104473
0.00105171
0.00105928
0.00106741
0.00107608
0.00108524
0.00109483
0.00110476
0.00111494
0.00112524
0.00113557
0.0011458
0.00115583
0.00116557
0.00117495
0.00118392
0.00119245
0.00120053
0.00120817
0.00121541
0.00122229