/*--------------------------------*- C++ -*----------------------------------*\
  =========                 |
  \\      /  F ield         | OpenFOAM: The Open Source CFD Toolbox
   \\    /   O peration     | Website:  https://openfoam.org
    \\  /    A nd           | Version:  10
     \\/     M anipulation  |
\*---------------------------------------------------------------------------*/
FoamFile
{
    format      ascii;
    class       volScalarField;
    location    "0.115";
    object      p;
}
// * * * * * * * * * * * * * * * * * * * * * * * * * * * * * * * * * * * * * //

dimensions      [0 2 -2 0 0 0 0];

internalField   nonuniform List<scalar> 
6820
(
-8.82249
-10.1866
-10.6002
-10.696
-10.7771
-10.8289
-10.8603
-10.8853
-10.9069
-10.9261
-10.944
-10.9612
-10.9777
-10.9939
-11.0098
-11.0256
-11.0411
-11.0566
-11.0719
-11.0872
-11.1025
-11.1176
-11.1326
-11.1473
-11.1617
-11.1754
-11.188
-11.1986
-11.2061
-11.2047
-11.1949
-11.1458
-11.0313
-11.6226
-11.2183
-10.9246
-10.8294
-10.8312
-10.8483
-10.8669
-10.8871
-10.9072
-10.9262
-10.9441
-10.9611
-10.9775
-10.9933
-11.0089
-11.0241
-11.0392
-11.0542
-11.0692
-11.0841
-11.0989
-11.1137
-11.1284
-11.143
-11.1574
-11.1714
-11.1847
-11.1975
-11.2082
-11.2226
-11.227
-11.2826
-11.3151
-10.4796
-10.3514
-10.5765
-10.7145
-10.7764
-10.8212
-10.8537
-10.8797
-10.902
-10.9218
-10.94
-10.9572
-10.9738
-10.99
-11.0058
-11.0214
-11.0369
-11.0523
-11.0676
-11.0828
-11.0981
-11.1132
-11.1283
-11.1433
-11.158
-11.1725
-11.1865
-11.2
-11.2125
-11.2258
-11.2359
-11.2569
-11.2587
-10.8461
-10.8629
-10.8388
-10.8162
-10.8247
-10.8455
-10.8661
-10.8859
-10.9052
-10.9236
-10.9411
-10.958
-10.9744
-10.9903
-11.006
-11.0215
-11.0368
-11.052
-11.0672
-11.0823
-11.0974
-11.1125
-11.1275
-11.1425
-11.1574
-11.1722
-11.1868
-11.2015
-11.216
-11.2326
-11.2493
-11.2787
-11.3094
-10.7362
-10.6822
-10.7263
-10.7713
-10.8067
-10.8372
-10.8623
-10.8843
-10.9044
-10.9231
-10.9407
-10.9575
-10.9738
-10.9897
-11.0053
-11.0208
-11.0361
-11.0513
-11.0665
-11.0816
-11.0968
-11.112
-11.1271
-11.1423
-11.1575
-11.1728
-11.1881
-11.2038
-11.2199
-11.2379
-11.2573
-11.2838
-11.312
-10.7768
-10.7701
-10.7886
-10.8059
-10.8245
-10.8463
-10.8674
-10.8872
-10.9062
-10.9241
-10.9413
-10.9578
-10.974
-10.9897
-11.0052
-11.0206
-11.0358
-11.051
-11.0661
-11.0812
-11.0963
-11.1115
-11.1267
-11.142
-11.1575
-11.1731
-11.1889
-11.2054
-11.2226
-11.2418
-11.2628
-11.289
-11.3184
-10.776
-10.7653
-10.7802
-10.802
-10.8243
-10.8471
-10.8684
-10.8881
-10.9067
-10.9245
-10.9414
-10.9578
-10.9738
-10.9894
-11.0048
-11.0201
-11.0352
-11.0503
-11.0654
-11.0805
-11.0956
-11.1109
-11.1262
-11.1416
-11.1572
-11.1732
-11.1895
-11.2066
-11.2246
-11.2443
-11.266
-11.2912
-11.3192
-10.7855
-10.7825
-10.7958
-10.8139
-10.8325
-10.8522
-10.8716
-10.8901
-10.908
-10.9252
-10.9418
-10.9579
-10.9736
-10.9891
-11.0044
-11.0195
-11.0346
-11.0496
-11.0646
-11.0797
-11.0948
-11.11
-11.1253
-11.1409
-11.1567
-11.1728
-11.1895
-11.2069
-11.2254
-11.2453
-11.2671
-11.2914
-11.318
-10.7939
-10.7928
-10.8034
-10.8195
-10.8368
-10.8554
-10.8739
-10.8917
-10.909
-10.9258
-10.942
-10.9579
-10.9734
-10.9887
-11.0038
-11.0188
-11.0338
-11.0487
-11.0636
-11.0786
-11.0937
-11.1089
-11.1242
-11.1398
-11.1557
-11.172
-11.1889
-11.2065
-11.2251
-11.245
-11.2665
-11.2898
-11.3149
-10.8023
-10.8029
-10.8124
-10.8267
-10.8425
-10.8595
-10.8767
-10.8937
-10.9103
-10.9265
-10.9423
-10.9579
-10.9732
-10.9882
-11.0032
-11.018
-11.0328
-11.0476
-11.0625
-11.0773
-11.0923
-11.1075
-11.1228
-11.1384
-11.1543
-11.1706
-11.1876
-11.2052
-11.2238
-11.2435
-11.2644
-11.2868
-11.3104
-10.8105
-10.8119
-10.8203
-10.8331
-10.8475
-10.8632
-10.8794
-10.8955
-10.9115
-10.9272
-10.9426
-10.9578
-10.9728
-10.9877
-11.0024
-11.0171
-11.0317
-11.0464
-11.0611
-11.0758
-11.0907
-11.1058
-11.121
-11.1365
-11.1524
-11.1687
-11.1856
-11.2031
-11.2214
-11.2407
-11.2611
-11.2825
-11.3048
-10.8182
-10.82
-10.8277
-10.8392
-10.8524
-10.867
-10.8821
-10.8975
-10.9127
-10.9279
-10.9429
-10.9578
-10.9725
-10.9871
-11.0016
-11.016
-11.0305
-11.045
-11.0595
-11.0741
-11.0889
-11.1038
-11.1189
-11.1343
-11.15
-11.1662
-11.1829
-11.2002
-11.2182
-11.2369
-11.2566
-11.277
-11.2982
-10.8255
-10.8275
-10.8345
-10.8449
-10.8571
-10.8705
-10.8848
-10.8993
-10.914
-10.9286
-10.9432
-10.9576
-10.972
-10.9863
-11.0006
-11.0148
-11.0291
-11.0433
-11.0577
-11.0721
-11.0867
-11.1014
-11.1164
-11.1316
-11.1472
-11.1631
-11.1795
-11.1964
-11.214
-11.2322
-11.251
-11.2705
-11.2906
-10.8323
-10.8343
-10.8407
-10.8502
-10.8614
-10.8739
-10.8873
-10.9011
-10.9151
-10.9292
-10.9433
-10.9574
-10.9715
-10.9855
-10.9995
-11.0135
-11.0275
-11.0415
-11.0556
-11.0699
-11.0842
-11.0988
-11.1135
-11.1285
-11.1438
-11.1594
-11.1754
-11.192
-11.209
-11.2265
-11.2446
-11.2631
-11.2821
-10.8386
-10.8405
-10.8464
-10.8551
-10.8655
-10.8771
-10.8897
-10.9028
-10.9162
-10.9298
-10.9434
-10.9571
-10.9708
-10.9845
-10.9982
-11.0119
-11.0257
-11.0395
-11.0534
-11.0673
-11.0814
-11.0957
-11.1102
-11.1249
-11.1398
-11.1551
-11.1707
-11.1867
-11.2032
-11.22
-11.2372
-11.2548
-11.2727
-10.8443
-10.8462
-10.8516
-10.8596
-10.8692
-10.8801
-10.8919
-10.9043
-10.9171
-10.9302
-10.9434
-10.9567
-10.97
-10.9833
-10.9967
-11.0102
-11.0236
-11.0372
-11.0508
-11.0645
-11.0783
-11.0923
-11.1064
-11.1208
-11.1353
-11.1502
-11.1653
-11.1808
-11.1966
-11.2127
-11.2291
-11.2457
-11.2626
-10.8495
-10.8512
-10.8563
-10.8636
-10.8725
-10.8827
-10.8939
-10.9057
-10.9179
-10.9305
-10.9432
-10.9561
-10.969
-10.982
-10.9951
-11.0082
-11.0214
-11.0346
-11.0479
-11.0613
-11.0748
-11.0885
-11.1022
-11.1162
-11.1303
-11.1447
-11.1593
-11.1741
-11.1892
-11.2046
-11.2201
-11.2358
-11.2517
-10.8541
-10.8557
-10.8604
-10.8672
-10.8755
-10.8851
-10.8956
-10.9068
-10.9185
-10.9306
-10.9428
-10.9553
-10.9679
-10.9805
-10.9933
-11.006
-11.0189
-11.0318
-11.0448
-11.0578
-11.071
-11.0842
-11.0976
-11.1111
-11.1248
-11.1386
-11.1526
-11.1668
-11.1812
-11.1957
-11.2104
-11.2252
-11.24
-10.8581
-10.8596
-10.864
-10.8704
-10.8781
-10.8871
-10.897
-10.9077
-10.9189
-10.9304
-10.9423
-10.9543
-10.9665
-10.9788
-10.9912
-11.0036
-11.0161
-11.0287
-11.0413
-11.054
-11.0668
-11.0796
-11.0926
-11.1056
-11.1187
-11.132
-11.1454
-11.1589
-11.1725
-11.1862
-11.2
-11.2138
-11.2276
-10.8616
-10.863
-10.8671
-10.873
-10.8803
-10.8887
-10.8982
-10.9083
-10.919
-10.9301
-10.9415
-10.9531
-10.9649
-10.9769
-10.9889
-11.001
-11.0131
-11.0253
-11.0376
-11.0498
-11.0622
-11.0746
-11.0871
-11.0996
-11.1122
-11.1248
-11.1376
-11.1503
-11.1632
-11.1761
-11.1889
-11.2018
-11.2146
-10.8645
-10.8658
-10.8696
-10.8752
-10.882
-10.89
-10.8989
-10.9086
-10.9188
-10.9295
-10.9405
-10.9517
-10.9631
-10.9747
-10.9863
-10.998
-11.0098
-11.0216
-11.0335
-11.0453
-11.0572
-11.0692
-11.0811
-11.0931
-11.1051
-11.1172
-11.1292
-11.1412
-11.1533
-11.1653
-11.1773
-11.1892
-11.201
-10.8668
-10.868
-10.8716
-10.8768
-10.8832
-10.8908
-10.8993
-10.9085
-10.9183
-10.9285
-10.9391
-10.95
-10.961
-10.9722
-10.9835
-10.9948
-11.0062
-11.0176
-11.029
-11.0405
-11.0519
-11.0634
-11.0748
-11.0862
-11.0976
-11.109
-11.1203
-11.1316
-11.1429
-11.154
-11.1651
-11.176
-11.1868
-10.8684
-10.8696
-10.873
-10.8779
-10.884
-10.8911
-10.8992
-10.9081
-10.9175
-10.9273
-10.9375
-10.948
-10.9587
-10.9695
-10.9804
-10.9913
-11.0023
-11.0133
-11.0243
-11.0353
-11.0463
-11.0572
-11.0681
-11.0789
-11.0897
-11.1004
-11.111
-11.1215
-11.132
-11.1422
-11.1524
-11.1624
-11.1722
-10.8695
-10.8706
-10.8738
-10.8784
-10.8842
-10.891
-10.8987
-10.9072
-10.9162
-10.9257
-10.9355
-10.9457
-10.956
-10.9664
-10.9769
-10.9875
-10.9981
-11.0087
-11.0192
-11.0298
-11.0402
-11.0506
-11.061
-11.0712
-11.0813
-11.0913
-11.1012
-11.111
-11.1206
-11.13
-11.1393
-11.1483
-11.1571
-10.8699
-10.8709
-10.8739
-10.8783
-10.8839
-10.8904
-10.8978
-10.906
-10.9147
-10.9238
-10.9333
-10.9431
-10.9531
-10.9632
-10.9733
-10.9835
-10.9937
-11.0039
-11.014
-11.024
-11.034
-11.0439
-11.0536
-11.0632
-11.0727
-11.082
-11.0912
-11.1002
-11.1089
-11.1175
-11.1259
-11.1339
-11.1418
-10.8696
-10.8706
-10.8735
-10.8776
-10.8829
-10.8891
-10.8962
-10.904
-10.9124
-10.9213
-10.9305
-10.9399
-10.9496
-10.9593
-10.9691
-10.979
-10.9888
-10.9985
-11.0082
-11.0178
-11.0272
-11.0366
-11.0458
-11.0548
-11.0636
-11.0723
-11.0807
-11.0889
-11.0969
-11.1046
-11.1121
-11.1192
-11.1261
-10.8687
-10.8697
-10.8724
-10.8765
-10.8815
-10.8876
-10.8945
-10.9022
-10.9103
-10.9189
-10.9278
-10.937
-10.9463
-10.9557
-10.9652
-10.9746
-10.984
-10.9934
-11.0026
-11.0117
-11.0206
-11.0294
-11.038
-11.0464
-11.0546
-11.0625
-11.0702
-11.0777
-11.0848
-11.0917
-11.0983
-11.1045
-11.1105
-10.8671
-10.8679
-10.8704
-10.874
-10.8788
-10.8845
-10.8912
-10.8985
-10.9065
-10.9148
-10.9235
-10.9325
-10.9416
-10.9507
-10.9599
-10.9691
-10.9782
-10.9871
-10.996
-11.0046
-11.0131
-11.0214
-11.0295
-11.0373
-11.0449
-11.0522
-11.0592
-11.0659
-11.0723
-11.0784
-11.0841
-11.0895
-11.0946
-10.8648
-10.8659
-10.8685
-10.8724
-10.8772
-10.883
-10.8896
-10.8969
-10.9047
-10.9128
-10.9213
-10.9299
-10.9387
-10.9475
-10.9563
-10.965
-10.9736
-10.9821
-10.9905
-10.9986
-11.0066
-11.0143
-11.0217
-11.0289
-11.0358
-11.0424
-11.0487
-11.0546
-11.0603
-11.0655
-11.0704
-11.075
-11.0791
-10.8614
-10.8617
-10.8633
-10.8663
-10.8706
-10.876
-10.8824
-10.8896
-10.8974
-10.9056
-10.9141
-10.9228
-10.9316
-10.9403
-10.9491
-10.9577
-10.9662
-10.9745
-10.9826
-10.9905
-10.9981
-11.0054
-11.0124
-11.0191
-11.0255
-11.0316
-11.0373
-11.0426
-11.0475
-11.0521
-11.0563
-11.06
-11.0634
-10.8588
-10.8607
-10.8638
-10.8677
-10.8724
-10.878
-10.8843
-10.8912
-10.8986
-10.9063
-10.9143
-10.9224
-10.9307
-10.9389
-10.947
-10.9551
-10.963
-10.9707
-10.9781
-10.9854
-10.9923
-10.999
-11.0054
-11.0114
-11.0171
-11.0224
-11.0273
-11.0319
-11.0361
-11.0398
-11.0432
-11.0461
-11.0486
-10.8505
-10.8485
-10.8481
-10.8502
-10.8544
-10.8602
-10.8672
-10.875
-10.8833
-10.892
-10.9009
-10.9099
-10.9188
-10.9276
-10.9362
-10.9447
-10.9528
-10.9607
-10.9683
-10.9755
-10.9824
-10.9889
-10.9951
-11.0008
-11.0062
-11.0111
-11.0157
-11.0197
-11.0234
-11.0266
-11.0294
-11.0317
-11.0335
-10.8553
-10.8607
-10.8649
-10.8678
-10.8713
-10.8759
-10.8813
-10.8874
-10.894
-10.901
-10.9084
-10.9158
-10.9234
-10.9309
-10.9383
-10.9456
-10.9528
-10.9596
-10.9663
-10.9726
-10.9786
-10.9843
-10.9896
-10.9946
-10.9991
-11.0032
-11.007
-11.0103
-11.0131
-11.0155
-11.0175
-11.019
-11.02
-10.826
-10.815
-10.8116
-10.8152
-10.8223
-10.831
-10.8408
-10.8511
-10.8616
-10.8722
-10.8826
-10.8927
-10.9026
-10.912
-10.9211
-10.9298
-10.9381
-10.9459
-10.9532
-10.9602
-10.9666
-10.9726
-10.9781
-10.9832
-10.9877
-10.9918
-10.9954
-10.9984
-11.001
-11.0031
-11.0047
-11.0058
-11.0064
-10.8728
-10.8887
-10.8899
-10.884
-10.8816
-10.8823
-10.8848
-10.8887
-10.8934
-10.899
-10.905
-10.9113
-10.9178
-10.9244
-10.931
-10.9374
-10.9436
-10.9496
-10.9554
-10.9608
-10.9659
-10.9707
-10.975
-10.979
-10.9825
-10.9856
-10.9882
-10.9904
-10.9921
-10.9934
-10.9941
-10.9944
-10.9942
-10.763
-10.725
-10.7194
-10.7428
-10.7625
-10.7803
-10.7978
-10.8145
-10.8302
-10.8448
-10.8585
-10.8712
-10.8831
-10.8941
-10.9044
-10.9139
-10.9228
-10.931
-10.9386
-10.9456
-10.9519
-10.9577
-10.9629
-10.9675
-10.9715
-10.975
-10.9779
-10.9803
-10.9821
-10.9833
-10.984
-10.9841
-10.9837
-10.9748
-10.9991
-10.9697
-10.9328
-10.909
-10.9009
-10.8973
-10.896
-10.8972
-10.9
-10.9038
-10.9084
-10.9135
-10.9188
-10.9242
-10.9296
-10.9349
-10.94
-10.9449
-10.9495
-10.9538
-10.9577
-10.9613
-10.9644
-10.9671
-10.9694
-10.9712
-10.9725
-10.9733
-10.9737
-10.9736
-10.973
-10.9719
-10.5591
-10.4773
-10.5342
-10.6149
-10.6709
-10.7087
-10.7415
-10.7701
-10.7944
-10.8155
-10.834
-10.8505
-10.8652
-10.8784
-10.8903
-10.9011
-10.9109
-10.9197
-10.9277
-10.9349
-10.9414
-10.9471
-10.9522
-10.9565
-10.9602
-10.9633
-10.9657
-10.9676
-10.9688
-10.9694
-10.9694
-10.9689
-10.9677
-11.5353
-11.2572
-11.0513
-10.9597
-10.9224
-10.9013
-10.8881
-10.8819
-10.8805
-10.8818
-10.885
-10.8894
-10.8945
-10.9001
-10.9058
-10.9115
-10.9171
-10.9225
-10.9277
-10.9325
-10.9369
-10.941
-10.9446
-10.9478
-10.9505
-10.9527
-10.9544
-10.9556
-10.9563
-10.9564
-10.9561
-10.9552
-10.9538
-9.57719
-10.1387
-10.4431
-10.5589
-10.6401
-10.703
-10.7476
-10.7809
-10.8076
-10.8293
-10.8473
-10.8626
-10.876
-10.8877
-10.8982
-10.9075
-10.916
-10.9236
-10.9304
-10.9365
-10.9419
-10.9466
-10.9507
-10.9542
-10.9571
-10.9594
-10.961
-10.9621
-10.9626
-10.9625
-10.9618
-10.9606
-10.9588
-10.8655
-11.1539
-11.2898
-11.394
-11.4891
-11.5626
-11.6275
-11.6978
-11.7832
-11.8817
-11.9926
-12.1127
-12.2372
-12.3609
-12.479
-12.5874
-12.683
-12.7636
-12.8277
-12.8746
-12.9041
-12.9163
-12.9115
-12.8902
-12.8528
-12.7997
-12.7312
-12.6479
-12.5501
-12.4382
-12.3127
-12.1742
-12.0231
-11.8602
-11.6862
-11.5019
-11.308
-11.1053
-10.8945
-10.6762
-10.4509
-10.2189
-9.98036
-9.73503
-9.48254
-9.2222
-8.95306
-8.6739
-8.3833
-8.07964
-7.76123
-7.42637
-7.07349
-6.70125
-6.30877
-5.89571
-5.46256
-5.01089
-4.54365
-4.06553
-3.58313
-3.10486
-2.63998
-2.19733
-1.7845
-1.40763
-1.07116
-0.777656
-0.527714
-0.320087
-0.152031
-0.0197354
0.0812148
0.155431
0.207414
0.241332
0.260915
0.269383
0.269461
0.263392
0.252992
0.239693
0.224603
0.208555
0.192157
0.175834
0.159876
0.144449
0.129679
0.115556
0.10218
0.0893453
0.0773738
0.0654945
0.0550601
0.0432231
0.0352802
0.0207664
0.0194428
-0.00655985
-11.6555
-11.7692
-11.6988
-11.6343
-11.6085
-11.6016
-11.6164
-11.6572
-11.7265
-11.819
-11.9295
-12.0517
-12.1786
-12.3038
-12.4221
-12.5294
-12.6228
-12.7008
-12.7623
-12.8069
-12.8346
-12.8455
-12.8398
-12.8179
-12.7801
-12.7268
-12.6584
-12.5753
-12.4779
-12.3667
-12.242
-12.1045
-11.9547
-11.7933
-11.6209
-11.4383
-11.2462
-11.0455
-10.8367
-10.6205
-10.3973
-10.1673
-9.9307
-9.68727
-9.4366
-9.17799
-8.91047
-8.63286
-8.34372
-8.04149
-7.72448
-7.39105
-7.03965
-6.66899
-6.2782
-5.86708
-5.43634
-4.98794
-4.52533
-4.05368
-3.57981
-3.11161
-2.65722
-2.22435
-1.81994
-1.44981
-1.1183
-0.827946
-0.579439
-0.37173
-0.202333
-0.0677308
0.0362046
0.113826
0.16942
0.206986
0.230131
0.24199
0.245234
0.242078
0.234324
0.223408
0.210448
0.196291
0.181566
0.166719
0.152059
0.137773
0.124005
0.110762
0.0981579
0.0860002
0.0746189
0.0632616
0.053269
0.0418523
0.0342097
0.0201247
0.0188622
-0.00636128
-11.2879
-11.3073
-11.3419
-11.4036
-11.4741
-11.5376
-11.5971
-11.6611
-11.7343
-11.8199
-11.9168
-12.0225
-12.1334
-12.2449
-12.353
-12.4537
-12.5437
-12.6203
-12.6817
-12.7269
-12.7552
-12.7667
-12.7614
-12.7398
-12.7023
-12.6493
-12.5813
-12.4988
-12.4021
-12.2917
-12.1681
-12.0319
-11.8835
-11.7237
-11.5531
-11.3723
-11.1823
-10.9835
-10.7768
-10.5626
-10.3413
-10.1133
-9.87845
-9.63669
-9.38756
-9.13035
-8.86412
-8.58766
-8.29957
-7.9983
-7.68221
-7.34967
-6.99922
-6.62967
-6.24039
-5.8315
-5.4041
-4.96052
-4.50455
-4.04141
-3.57751
-3.11989
-2.67579
-2.25231
-1.85601
-1.49245
-1.16581
-0.878594
-0.631561
-0.423839
-0.253185
-0.116358
-0.009508
0.0714663
0.130638
0.17184
0.198553
0.213824
0.220269
0.220068
0.215011
0.206531
0.195755
0.183544
0.170545
0.157224
0.14391
0.130809
0.118082
0.105755
0.0939543
0.0825027
0.0717365
0.0609254
0.0513926
0.0404202
0.0330855
0.019463
0.0182449
-0.00613439
-11.3965
-11.5105
-11.5605
-11.5756
-11.5914
-11.6111
-11.6388
-11.6806
-11.7391
-11.814
-11.9023
-12.0004
-12.1037
-12.2073
-12.307
-12.399
-12.4806
-12.5498
-12.605
-12.6454
-12.6706
-12.6802
-12.6742
-12.6527
-12.6158
-12.5638
-12.4971
-12.4159
-12.3207
-12.2119
-12.09
-11.9555
-11.809
-11.6512
-11.4825
-11.3039
-11.1159
-10.9192
-10.7145
-10.5022
-10.2828
-10.0564
-9.82312
-9.58269
-9.33471
-9.07846
-8.81301
-8.53718
-8.24959
-7.94876
-7.63311
-7.30118
-6.95166
-6.58363
-6.19675
-5.79138
-5.3689
-4.93187
-4.48409
-4.03049
-3.57686
-3.12959
-2.6954
-2.28098
-1.89256
-1.53543
-1.2136
-0.929516
-0.684005
-0.476345
-0.304522
-0.16556
-0.0558734
0.0283928
0.0911019
0.13592
0.166199
0.184898
0.194571
0.197364
0.19505
0.189056
0.180517
0.170306
0.159086
0.14734
0.135419
0.123547
0.111902
0.100528
0.0895632
0.0788476
0.068722
0.058482
0.0494282
0.0389234
0.0319084
0.0187764
0.0175979
-0.0058858
-11.3594
-11.4063
-11.429
-11.4563
-11.4977
-11.5447
-11.5952
-11.6527
-11.7192
-11.7957
-11.8808
-11.9719
-12.0663
-12.1607
-12.2517
-12.3364
-12.4121
-12.4766
-12.5283
-12.566
-12.589
-12.5969
-12.5896
-12.5672
-12.5298
-12.4777
-12.4113
-12.3308
-12.2365
-12.129
-12.0087
-11.8759
-11.7313
-11.5754
-11.4089
-11.2324
-11.0465
-10.8518
-10.649
-10.4385
-10.2207
-9.99571
-9.7636
-9.52415
-9.27692
-9.02124
-8.7562
-8.48068
-8.19341
-7.89299
-7.578
-7.24714
-6.89931
-6.53379
-6.15043
-5.74985
-5.33358
-4.90419
-4.46526
-4.02132
-3.57773
-3.14046
-2.71585
-2.31023
-1.92949
-1.57867
-1.26159
-0.980651
-0.736706
-0.529183
-0.356281
-0.215274
-0.102833
-0.0153409
0.0508597
0.0992678
0.133106
0.155243
0.168167
0.173988
0.174457
0.170997
0.164744
0.156583
0.147193
0.137072
0.12659
0.11599
0.105467
0.0950815
0.0849854
0.0750353
0.0655761
0.0559318
0.0473767
0.0373623
0.0306787
0.0180645
0.016922
-0.00561882
-11.3618
-11.4178
-11.4633
-11.5008
-11.5375
-11.5746
-11.6151
-11.6632
-11.7202
-11.787
-11.8629
-11.9453
-12.0311
-12.1171
-12.2001
-12.2772
-12.3459
-12.4042
-12.4506
-12.4839
-12.5035
-12.509
-12.5002
-12.4769
-12.4393
-12.3874
-12.3216
-12.242
-12.149
-12.0428
-11.9241
-11.7931
-11.6503
-11.4965
-11.332
-11.1575
-10.9737
-10.781
-10.5801
-10.3713
-10.155
-9.93128
-9.70025
-9.46166
-9.2151
-8.95994
-8.69534
-8.42025
-8.13351
-7.83384
-7.51998
-7.19079
-6.84536
-6.48316
-6.10423
-5.70929
-5.29988
-4.87844
-4.44832
-4.01379
-3.5799
-3.1523
-2.737
-2.33995
-1.96673
-1.62211
-1.30975
-1.03194
-0.78961
-0.582298
-0.408409
-0.265451
-0.150341
-0.0596934
0.00994675
0.061913
0.0992988
0.124876
0.141071
0.14995
0.15324
0.152357
0.148438
0.142377
0.134864
0.126417
0.11742
0.108136
0.0987738
0.0894135
0.0802187
0.071064
0.0622973
0.0532736
0.045237
0.035736
0.0293963
0.0173262
0.0162186
-0.00533677
-11.3563
-11.4013
-11.4382
-11.4704
-11.506
-11.5458
-11.5901
-11.6411
-11.6996
-11.765
-11.8368
-11.9134
-11.9922
-12.0707
-12.1463
-12.2163
-12.2787
-12.3314
-12.3731
-12.4027
-12.4192
-12.4223
-12.4117
-12.3871
-12.3487
-12.2965
-12.2307
-12.1515
-12.0593
-11.9542
-11.8368
-11.7074
-11.5664
-11.4144
-11.252
-11.0795
-10.8977
-10.707
-10.508
-10.3009
-10.0862
-9.86387
-9.63403
-9.39645
-9.15074
-8.89631
-8.6324
-8.35804
-8.07219
-7.7737
-7.46148
-7.13452
-6.79208
-6.43378
-6.05974
-5.67071
-5.26821
-4.85457
-4.43303
-4.00763
-3.58316
-3.16499
-2.75875
-2.37008
-2.00423
-1.66572
-1.35801
-1.08334
-0.842662
-0.635636
-0.46085
-0.316036
-0.198347
-0.10462
-0.031597
0.02389
0.0648047
0.0938231
0.113302
0.125263
0.131409
0.133144
0.131604
0.127689
0.122102
0.115375
0.107908
0.0999818
0.0918209
0.0835223
0.0752617
0.0669326
0.0588845
0.0505065
0.0430088
0.0340437
0.0280617
0.0165601
0.0154896
-0.00504354
-11.3515
-11.3923
-11.4304
-11.4663
-11.5038
-11.5438
-11.5867
-11.6338
-11.6875
-11.7473
-11.8126
-11.882
-11.9535
-12.0246
-12.0929
-12.1562
-12.2124
-12.2597
-12.2966
-12.3221
-12.3354
-12.3359
-12.3233
-12.2974
-12.2582
-12.2056
-12.1399
-12.0611
-11.9696
-11.8656
-11.7494
-11.6215
-11.4822
-11.332
-11.1714
-11.001
-10.8211
-10.6323
-10.4351
-10.2298
-10.0166
-9.79571
-9.56713
-9.33066
-9.08593
-8.83242
-8.56941
-8.29605
-8.01138
-7.7144
-7.40413
-7.0797
-6.7405
-6.38625
-6.01715
-5.63399
-5.23829
-4.83231
-4.41914
-4.00265
-3.58739
-3.17841
-2.78104
-2.40057
-2.04194
-1.70942
-1.40632
-1.13479
-0.895807
-0.689138
-0.513546
-0.366975
-0.246799
-0.150072
-0.0737289
-0.0147641
0.0296557
0.0621085
0.0848799
0.0999449
0.108978
0.113368
0.114249
0.112526
0.10891
0.103948
0.0980561
0.0915291
0.0846083
0.0774075
0.0701139
0.0626404
0.0553376
0.0476303
0.0406922
0.0322851
0.0266752
0.0157651
0.0147371
-0.00474353
-11.3456
-11.3828
-11.4189
-11.4536
-11.4896
-11.5281
-11.57
-11.616
-11.6673
-11.7235
-11.7841
-11.8478
-11.9129
-11.9773
-12.039
-12.0959
-12.1462
-12.1882
-12.2206
-12.2423
-12.2524
-12.2504
-12.2359
-12.2086
-12.1685
-12.1155
-12.0498
-11.9714
-11.8805
-11.7774
-11.6624
-11.5359
-11.3982
-11.2498
-11.091
-10.9224
-10.7445
-10.5576
-10.3622
-10.1586
-9.94703
-9.72763
-9.50036
-9.26508
-9.02145
-8.76898
-8.50702
-8.23482
-7.95152
-7.65621
-7.34805
-7.02629
-6.69043
-6.34029
-5.97615
-5.59884
-5.20986
-4.81143
-4.4065
-3.99876
-3.59251
-3.19253
-2.80382
-2.43137
-2.07982
-1.75319
-1.45464
-1.18625
-0.948989
-0.742749
-0.566442
-0.41821
-0.295643
-0.195999
-0.116404
-0.0540098
-0.00611409
0.0297615
0.0558294
0.0740151
0.0859614
0.0930413
0.0963826
0.0968932
0.0952935
0.0921405
0.0878658
0.0827795
0.0771375
0.0710702
0.0647762
0.0581881
0.051657
0.0446453
0.0382874
0.0304603
0.0252376
0.0149401
0.0139634
-0.00444141
-11.339
-11.3734
-11.4079
-11.4422
-11.4778
-11.5155
-11.556
-11.5999
-11.6478
-11.6998
-11.7552
-11.8131
-11.8719
-11.9299
-11.9852
-12.036
-12.0807
-12.1176
-12.1455
-12.1633
-12.1703
-12.1658
-12.1493
-12.1206
-12.0796
-12.0261
-11.9603
-11.8821
-11.7919
-11.6897
-11.5758
-11.4507
-11.3145
-11.1677
-11.0108
-10.844
-10.6679
-10.4829
-10.2893
-10.0874
-9.87742
-9.65949
-9.43359
-9.19957
-8.95712
-8.7058
-8.44503
-8.17414
-7.89234
-7.59886
-7.29296
-6.974
-6.64159
-6.29565
-5.93652
-5.56508
-5.18279
-4.79183
-4.39502
-3.99587
-3.59847
-3.20729
-2.82705
-2.46244
-2.11782
-1.79698
-1.50292
-1.23765
-1.00216
-0.79641
-0.619478
-0.469685
-0.344824
-0.242351
-0.159575
-0.0938049
-0.0424681
-0.00318666
0.0261768
0.0474953
0.0623778
0.0721782
0.0780165
0.0808011
0.0812591
0.0799579
0.0773421
0.0737366
0.069411
0.0645125
0.0592502
0.0535771
0.0478439
0.0415524
0.0357957
0.0285696
0.0237501
0.0140842
0.0131711
-0.00414227
-11.3316
-11.3636
-11.3964
-11.4296
-11.4639
-11.5002
-11.5389
-11.5805
-11.6254
-11.6735
-11.7243
-11.7769
-11.8299
-11.8819
-11.9313
-11.9764
-12.0156
-12.0476
-12.0712
-12.0853
-12.0891
-12.082
-12.0636
-12.0334
-11.9914
-11.9374
-11.8714
-11.7935
-11.7037
-11.6023
-11.4896
-11.3657
-11.231
-11.0858
-10.9305
-10.7656
-10.5913
-10.4081
-10.2162
-10.016
-9.80761
-9.59119
-9.36669
-9.13398
-8.8928
-8.64274
-8.38329
-8.11384
-7.83371
-7.54222
-7.23872
-6.92271
-6.59389
-6.25224
-5.89819
-5.53263
-5.15702
-4.77346
-4.38466
-3.99396
-3.60522
-3.22265
-2.85069
-2.49374
-2.1559
-1.84074
-1.55111
-1.28895
-1.05525
-0.850067
-0.672596
-0.521341
-0.394284
-0.289073
-0.203192
-0.134105
-0.0793669
-0.0367018
-0.00404893
0.0204101
0.0382476
0.050796
0.0591648
0.0642611
0.0668167
0.0674081
0.0664915
0.0644056
0.0614334
0.057738
0.0535391
0.04881
0.0439007
0.0383534
0.0332186
0.0266139
0.022214
0.0131969
0.0123629
-0.0038513
-11.3234
-11.3534
-11.3845
-11.4163
-11.4493
-11.484
-11.5208
-11.56
-11.6018
-11.6461
-11.6924
-11.7399
-11.7874
-11.8338
-11.8775
-11.9171
-11.9512
-11.9785
-11.9978
-12.0083
-12.009
-11.9993
-11.9788
-11.9472
-11.9041
-11.8494
-11.7832
-11.7054
-11.6161
-11.5154
-11.4036
-11.2809
-11.1476
-11.0039
-10.8503
-10.6871
-10.5145
-10.333
-10.1429
-9.94434
-9.73757
-9.52266
-9.29961
-9.06829
-8.82846
-8.57977
-8.32176
-8.0539
-7.77559
-7.48624
-7.18531
-6.87239
-6.54727
-6.21003
-5.86112
-5.50147
-5.13252
-4.75629
-4.3754
-3.993
-3.61273
-3.23858
-2.87471
-2.52524
-2.19402
-1.88443
-1.59917
-1.3401
-1.10823
-0.903664
-0.72574
-0.573121
-0.443968
-0.336111
-0.247204
-0.174863
-0.116769
-0.0707473
-0.034816
-0.00721338
0.013594
0.028914
0.039844
0.0472871
0.051978
0.0545008
0.0553222
0.0547937
0.0532106
0.050752
0.0476472
0.0438907
0.0398306
0.0350512
0.0305586
0.0245949
0.0206314
0.0122777
0.0115416
-0.0035739
-11.3143
-11.3425
-11.372
-11.4023
-11.4337
-11.4666
-11.5013
-11.538
-11.5766
-11.6172
-11.6592
-11.7019
-11.7444
-11.7854
-11.8238
-11.8582
-11.8874
-11.9101
-11.9254
-11.9322
-11.9298
-11.9176
-11.8951
-11.8618
-11.8176
-11.7623
-11.6957
-11.6179
-11.529
-11.4289
-11.318
-11.1964
-11.0644
-10.9222
-10.7701
-10.6085
-10.4376
-10.2578
-10.0694
-9.87247
-9.66729
-9.45393
-9.23236
-9.00249
-8.76411
-8.5169
-8.26046
-7.99433
-7.71799
-7.43094
-7.13274
-6.82305
-6.50176
-6.16902
-5.82531
-5.47159
-5.10927
-4.74031
-4.3672
-3.99295
-3.62099
-3.25506
-2.89907
-2.55689
-2.23215
-1.92802
-1.64705
-1.39106
-1.16103
-0.957143
-0.778851
-0.624965
-0.493816
-0.383408
-0.291559
-0.21603
-0.15463
-0.105284
-0.0660897
-0.035345
-0.0115573
0.00655459
0.020073
0.0298953
0.036757
0.0412483
0.0438448
0.0449099
0.0447506
0.0435613
0.0415807
0.0388243
0.0356382
0.0316494
0.0278191
0.0225148
0.0190046
0.0113268
0.0107103
-0.0033153
-11.3045
-11.331
-11.3587
-11.3874
-11.4171
-11.4482
-11.4807
-11.5147
-11.5503
-11.5873
-11.6252
-11.6633
-11.701
-11.737
-11.7703
-11.7998
-11.8242
-11.8426
-11.8539
-11.8572
-11.8518
-11.837
-11.8124
-11.7775
-11.7321
-11.6759
-11.609
-11.5311
-11.4424
-11.343
-11.2329
-11.1123
-10.9814
-10.8406
-10.69
-10.5299
-10.3607
-10.1825
-9.9957
-9.80043
-9.59685
-9.38504
-9.16501
-8.93665
-8.6998
-8.45417
-8.19943
-7.93517
-7.66095
-7.37636
-7.08103
-6.77472
-6.45737
-6.12921
-5.79076
-5.44298
-5.08727
-4.7255
-4.36006
-3.99379
-3.62994
-3.27204
-2.92374
-2.58867
-2.27025
-1.97145
-1.69471
-1.44176
-1.2136
-1.01045
-0.831871
-0.676813
-0.543769
-0.430906
-0.3362
-0.257556
-0.192902
-0.140269
-0.0978331
-0.0639523
-0.0371778
-0.0162576
-0.000126671
0.0121044
0.02117
0.0276647
0.0320717
0.0347653
0.0360632
0.0361746
0.0353471
0.0336176
0.0313293
0.0281531
0.0250043
0.0203768
0.0173367
0.0103449
0.00987226
-0.00308061
-11.2938
-11.3187
-11.3448
-11.3718
-11.3997
-11.4287
-11.4589
-11.4903
-11.5228
-11.5563
-11.5902
-11.6241
-11.6572
-11.6885
-11.717
-11.7418
-11.7618
-11.7759
-11.7834
-11.7832
-11.7748
-11.7575
-11.7307
-11.6942
-11.6476
-11.5906
-11.5231
-11.4452
-11.3566
-11.2576
-11.1482
-11.0285
-10.8988
-10.7592
-10.61
-10.4514
-10.2837
-10.1071
-9.92194
-9.72828
-9.5263
-9.31607
-9.09761
-8.87083
-8.63559
-8.39166
-8.13873
-7.87648
-7.60453
-7.32253
-7.03022
-6.72741
-6.41412
-6.09062
-5.75748
-5.41565
-5.0665
-4.71183
-4.35393
-3.9955
-3.63958
-3.28949
-2.94868
-2.62054
-2.30827
-2.01469
-1.74211
-1.49218
-1.26589
-1.06353
-0.884741
-0.728606
-0.593767
-0.478547
-0.381072
-0.299386
-0.231538
-0.175659
-0.130006
-0.0929994
-0.063236
-0.0394948
-0.0207306
-0.00606417
0.00523594
0.0137667
0.0200177
0.024373
0.02716
0.0286023
0.0289558
0.0282787
0.0269112
0.0245684
0.0221195
0.0181849
0.0156313
0.00933332
0.00903087
-0.0028744
-11.2824
-11.3057
-11.3301
-11.3553
-11.3814
-11.4083
-11.4362
-11.4649
-11.4944
-11.5244
-11.5546
-11.5844
-11.6131
-11.6399
-11.664
-11.6843
-11.7
-11.7101
-11.7138
-11.7104
-11.699
-11.6791
-11.6503
-11.6121
-11.5641
-11.5062
-11.4382
-11.36
-11.2716
-11.1729
-11.0641
-10.9452
-10.8165
-10.6781
-10.5302
-10.373
-10.2068
-10.0318
-9.84818
-9.65611
-9.45572
-9.24709
-9.03024
-8.8051
-8.57156
-8.32942
-8.07843
-7.81831
-7.54876
-7.26951
-6.98034
-6.68115
-6.37203
-6.05327
-5.72547
-5.38959
-5.04695
-4.6993
-4.34882
-3.99804
-3.64986
-3.30739
-2.97386
-2.65246
-2.34619
-2.05771
-1.7892
-1.54226
-1.31786
-1.11633
-0.937404
-0.780284
-0.643749
-0.52627
-0.426116
-0.341466
-0.270486
-0.211406
-0.162566
-0.122448
-0.0896974
-0.0631265
-0.0417117
-0.0245863
-0.0110238
-0.00042645
0.00770005
0.0137483
0.0180548
0.0208568
0.0224177
0.0228174
0.0223925
0.0209027
0.019171
0.0159441
0.0138928
0.00829409
0.0081896
-0.00270071
-11.2702
-11.292
-11.3147
-11.3381
-11.3622
-11.387
-11.4125
-11.4386
-11.4651
-11.4919
-11.5184
-11.5443
-11.5689
-11.5915
-11.6112
-11.6273
-11.6389
-11.6452
-11.6453
-11.6386
-11.6244
-11.602
-11.5711
-11.5311
-11.4818
-11.423
-11.3543
-11.2758
-11.1874
-11.089
-10.9807
-10.8626
-10.7348
-10.5974
-10.4508
-10.2949
-10.1301
-9.95662
-9.77452
-9.58402
-9.38522
-9.1782
-8.963
-8.73956
-8.50779
-8.26753
-8.01859
-7.76073
-7.49372
-7.21734
-6.93144
-6.63599
-6.33112
-6.01716
-5.69474
-5.36479
-5.02861
-4.68789
-4.34468
-4.0014
-3.66077
-3.32571
-2.99926
-2.6844
-2.38397
-2.10046
-1.83594
-1.59195
-1.36944
-1.16879
-0.989801
-0.831785
-0.693653
-0.574012
-0.471272
-0.383737
-0.309691
-0.24746
-0.195466
-0.152257
-0.116525
-0.087119
-0.0630398
-0.0434349
-0.0275849
-0.014893
-0.00486162
0.00290916
0.0087637
0.0129525
0.015746
0.0172454
0.0177834
0.017165
0.0161665
0.0136607
0.0121262
0.00723019
0.00735215
-0.00256257
-11.2573
-11.2775
-11.2985
-11.3201
-11.3423
-11.365
-11.3881
-11.4115
-11.4352
-11.4587
-11.4818
-11.5039
-11.5246
-11.5432
-11.5589
-11.5709
-11.5787
-11.5812
-11.5779
-11.568
-11.551
-11.5262
-11.4931
-11.4514
-11.4008
-11.3409
-11.2716
-11.1927
-11.1041
-11.0059
-10.898
-10.7806
-10.6536
-10.5173
-10.3717
-10.2172
-10.0538
-9.88166
-9.70106
-9.51209
-9.31488
-9.1095
-8.89597
-8.67428
-8.44436
-8.20608
-7.95929
-7.70381
-7.43945
-7.16607
-6.88356
-6.59195
-6.29141
-5.98231
-5.66529
-5.34126
-5.01149
-4.67758
-4.34151
-4.00555
-3.67227
-3.34441
-3.02483
-2.71634
-2.42157
-2.1429
-1.88229
-1.64121
-1.4206
-1.22086
-1.04187
-0.883049
-0.743416
-0.621713
-0.516479
-0.426142
-0.349098
-0.283769
-0.228659
-0.182381
-0.143678
-0.111436
-0.0846815
-0.0625798
-0.0444201
-0.0296082
-0.017645
-0.00812432
-0.000695006
0.00490589
0.00895538
0.0115758
0.0130956
0.0133655
0.0131147
0.0113418
0.0103372
0.00614542
0.00652205
-0.00246203
-11.2437
-11.2624
-11.2817
-11.3015
-11.3217
-11.3422
-11.363
-11.3838
-11.4046
-11.425
-11.4448
-11.4634
-11.4803
-11.4951
-11.5069
-11.5152
-11.5192
-11.5182
-11.5116
-11.4987
-11.4789
-11.4516
-11.4165
-11.3731
-11.321
-11.2601
-11.19
-11.1107
-11.0219
-10.9238
-10.8163
-10.6994
-10.5731
-10.4377
-10.2933
-10.1399
-9.97777
-9.80705
-9.6279
-9.44045
-9.24482
-9.04107
-8.82925
-8.60936
-8.38135
-8.14513
-7.9006
-7.6476
-7.38602
-7.11574
-6.83674
-6.54907
-6.25293
-5.94874
-5.63712
-5.31899
-4.99555
-4.66836
-4.33928
-4.01047
-3.68434
-3.36348
-3.05056
-2.74823
-2.45897
-2.18501
-1.92821
-1.68999
-1.47128
-1.27249
-1.09357
-0.934015
-0.792977
-0.669309
-0.561674
-0.46862
-0.388648
-0.320278
-0.262093
-0.212773
-0.171112
-0.136036
-0.1066
-0.0819877
-0.0614989
-0.0445443
-0.0306246
-0.019329
-0.0103004
-0.00326394
0.00206311
0.00582419
0.00834287
0.00951624
0.0100257
0.00899605
0.00853246
0.00504481
0.0057029
-0.00239958
-11.2294
-11.2466
-11.2643
-11.2822
-11.3004
-11.3188
-11.3372
-11.3556
-11.3736
-11.391
-11.4075
-11.4227