/*--------------------------------*- C++ -*----------------------------------*\
  =========                 |
  \\      /  F ield         | OpenFOAM: The Open Source CFD Toolbox
   \\    /   O peration     | Website:  https://openfoam.org
    \\  /    A nd           | Version:  10
     \\/     M anipulation  |
\*---------------------------------------------------------------------------*/
FoamFile
{
    format      ascii;
    class       surfaceScalarField;
    location    "0.115";
    object      phi;
}
// * * * * * * * * * * * * * * * * * * * * * * * * * * * * * * * * * * * * * //

dimensions      [0 3 -1 0 0 0 0];

internalField   nonuniform List<scalar> 
13452
(
6.05771e-05
-3.08627e-07
6.03707e-05
2.06373e-07
5.98987e-05
4.71977e-07
5.92849e-05
6.13842e-07
5.86793e-05
6.05593e-07
5.81422e-05
5.37136e-07
5.76761e-05
4.66034e-07
5.72711e-05
4.05048e-07
5.69157e-05
3.55395e-07
5.66e-05
3.15702e-07
5.63162e-05
2.83791e-07
5.60585e-05
2.57702e-07
5.58225e-05
2.35953e-07
5.56051e-05
2.17475e-07
5.54036e-05
2.01502e-07
5.52161e-05
1.87494e-07
5.5041e-05
1.75067e-07
5.48771e-05
1.63945e-07
5.47231e-05
1.53927e-07
5.45783e-05
1.44872e-07
5.44416e-05
1.36684e-07
5.43123e-05
1.29313e-07
5.41895e-05
1.22754e-07
5.40724e-05
1.17077e-07
5.396e-05
1.12438e-07
5.38507e-05
1.09267e-07
5.37426e-05
1.08161e-07
5.36313e-05
1.11221e-07
5.35098e-05
1.21509e-07
5.33645e-05
1.45383e-07
5.31434e-05
2.21038e-07
5.28215e-05
3.21902e-07
6.16623e-07
5.22049e-05
6.18026e-05
-1.20919e-07
6.17625e-05
2.46535e-07
6.18792e-05
3.55247e-07
6.20405e-05
4.52504e-07
6.2147e-05
4.99133e-07
6.21761e-05
5.08065e-07
6.21423e-05
4.99825e-07
6.20664e-05
4.80924e-07
6.19649e-05
4.56927e-07
6.18489e-05
4.31678e-07
6.17257e-05
4.06997e-07
6.15998e-05
3.83637e-07
6.14738e-05
3.61867e-07
6.13496e-05
3.41715e-07
6.1228e-05
3.23097e-07
6.11096e-05
3.05891e-07
6.09947e-05
2.8997e-07
6.08834e-05
2.75219e-07
6.07758e-05
2.61539e-07
6.06718e-05
2.48853e-07
6.05714e-05
2.37107e-07
6.04744e-05
2.26282e-07
6.03808e-05
2.16397e-07
6.02903e-05
2.07531e-07
6.02029e-05
1.99856e-07
6.01185e-05
1.93694e-07
6.0037e-05
1.89693e-07
5.99595e-05
1.88717e-07
5.98871e-05
1.93853e-07
5.98285e-05
2.03989e-07
5.98094e-05
2.40167e-07
5.98676e-05
2.6373e-07
3.8258e-07
6.01016e-05
6.36612e-05
-2.07445e-08
6.37528e-05
1.55004e-07
6.38148e-05
2.9322e-07
6.38675e-05
3.99783e-07
6.39105e-05
4.5612e-07
6.39421e-05
4.76437e-07
6.39626e-05
4.79408e-07
6.39702e-05
4.73256e-07
6.39656e-05
4.61598e-07
6.39502e-05
4.4699e-07
6.39263e-05
4.30949e-07
6.38956e-05
4.14343e-07
6.38598e-05
3.97707e-07
6.38201e-05
3.81364e-07
6.37777e-05
3.65494e-07
6.37334e-05
3.502e-07
6.36878e-05
3.35534e-07
6.36415e-05
3.21527e-07
6.35949e-05
3.08194e-07
6.35482e-05
2.95554e-07
6.35016e-05
2.83634e-07
6.34554e-05
2.7248e-07
6.34097e-05
2.62176e-07
6.33643e-05
2.52858e-07
6.33194e-05
2.44766e-07
6.32749e-05
2.38248e-07
6.32305e-05
2.34035e-07
6.31865e-05
2.32746e-07
6.31431e-05
2.37275e-07
6.3101e-05
2.46067e-07
6.30678e-05
2.73336e-07
6.30355e-05
2.96085e-07
3.69132e-07
6.30489e-05
6.55759e-05
-1.36175e-08
6.55537e-05
1.77266e-07
6.55645e-05
2.82435e-07
6.56053e-05
3.58965e-07
6.56544e-05
4.0703e-07
6.56995e-05
4.31304e-07
6.57371e-05
4.4184e-07
6.57668e-05
4.4357e-07
6.57891e-05
4.39246e-07
6.58049e-05
4.3118e-07
6.5815e-05
4.20863e-07
6.58202e-05
4.09184e-07
6.58212e-05
3.96722e-07
6.58187e-05
3.83869e-07
6.58133e-05
3.70889e-07
6.58055e-05
3.57962e-07
6.57958e-05
3.4522e-07
6.57846e-05
3.3276e-07
6.57721e-05
3.20661e-07
6.57587e-05
3.08997e-07
6.57445e-05
2.97845e-07
6.57296e-05
2.87298e-07
6.57143e-05
2.77482e-07
6.56986e-05
2.68569e-07
6.56826e-05
2.60828e-07
6.56662e-05
2.54609e-07
6.56497e-05
2.5057e-07
6.56332e-05
2.49241e-07
6.56179e-05
2.5254e-07
6.56044e-05
2.59588e-07
6.56009e-05
2.76835e-07
6.5605e-05
2.91953e-07
3.21292e-07
6.56529e-05
6.74265e-05
1.66573e-08
6.74515e-05
1.52279e-07
6.74799e-05
2.54025e-07
6.7511e-05
3.27913e-07
6.75418e-05
3.7615e-07
6.75718e-05
4.01359e-07
6.76007e-05
4.12928e-07
6.76279e-05
4.16396e-07
6.76526e-05
4.14468e-07
6.76747e-05
4.09081e-07
6.76941e-05
4.01477e-07
6.77109e-05
3.92401e-07
6.77253e-05
3.82358e-07
6.77374e-05
3.71702e-07
6.77477e-05
3.60682e-07
6.77561e-05
3.49485e-07
6.77631e-05
3.38251e-07
6.77688e-05
3.27098e-07
6.77733e-05
3.16125e-07
6.77769e-05
3.05426e-07
6.77796e-05
2.95101e-07
6.77816e-05
2.85264e-07
6.77831e-05
2.76058e-07
6.7784e-05
2.67666e-07
6.77844e-05
2.6035e-07
6.77846e-05
2.54428e-07
6.77848e-05
2.5043e-07
6.77853e-05
2.48757e-07
6.77872e-05
2.50569e-07
6.77916e-05
2.5526e-07
6.78029e-05
2.65533e-07
6.78201e-05
2.74675e-07
2.87541e-07
6.78539e-05
6.93768e-05
2.38392e-08
6.93865e-05
1.4261e-07
6.9405e-05
2.35582e-07
6.94313e-05
3.016e-07
6.94612e-05
3.46181e-07
6.94911e-05
3.71549e-07
6.95195e-05
3.845e-07
6.95462e-05
3.89639e-07
6.95713e-05
3.89417e-07
6.95947e-05
3.85647e-07
6.96166e-05
3.79566e-07
6.96371e-05
3.71932e-07
6.96562e-05
3.63247e-07
6.96741e-05
3.5386e-07
6.96907e-05
3.44017e-07
6.97063e-05
3.33897e-07
6.97209e-05
3.23644e-07
6.97346e-05
3.13375e-07
6.97476e-05
3.03192e-07
6.97598e-05
2.93197e-07
6.97714e-05
2.83494e-07
6.97825e-05
2.74199e-07
6.97931e-05
2.65457e-07
6.98033e-05
2.5744e-07
6.98133e-05
2.50378e-07
6.98232e-05
2.44534e-07
6.98333e-05
2.40292e-07
6.98441e-05
2.37911e-07
6.98567e-05
2.37985e-07
6.9872e-05
2.4001e-07
6.98928e-05
2.4473e-07
6.99192e-05
2.48264e-07
2.50824e-07
6.99559e-05
7.13593e-05
3.08364e-08
7.13711e-05
1.30887e-07
7.13922e-05
2.14398e-07
7.14183e-05
2.75513e-07
7.14462e-05
3.18346e-07
7.14734e-05
3.44271e-07
7.14997e-05
3.58276e-07
7.15248e-05
3.64482e-07
7.15489e-05
3.65315e-07
7.1572e-05
3.6253e-07
7.15943e-05
3.57348e-07
7.16157e-05
3.50539e-07
7.16363e-05
3.42618e-07
7.16562e-05
3.33938e-07
7.16755e-05
3.24752e-07
7.16941e-05
3.15243e-07
7.17122e-05
3.05554e-07
7.17298e-05
2.95801e-07
7.17469e-05
2.86088e-07
7.17636e-05
2.76513e-07
7.17799e-05
2.6718e-07
7.17959e-05
2.58199e-07
7.18116e-05
2.49701e-07
7.18272e-05
2.41838e-07
7.18428e-05
2.34794e-07
7.18586e-05
2.28768e-07
7.18749e-05
2.24006e-07
7.18922e-05
2.20639e-07
7.19113e-05
2.18887e-07
7.1933e-05
2.18281e-07
7.1959e-05
2.18697e-07
7.19895e-05
2.17763e-07
2.14475e-07
7.20259e-05
7.34033e-05
3.27647e-08
7.34141e-05
1.20133e-07
7.34329e-05
1.95609e-07
7.34564e-05
2.51982e-07
7.34825e-05
2.92291e-07
7.35089e-05
3.17892e-07
7.35346e-05
3.32505e-07
7.35595e-05
3.39599e-07
7.35834e-05
3.41376e-07
7.36065e-05
3.39453e-07
7.36289e-05
3.35005e-07
7.36506e-05
3.28814e-07
7.36718e-05
3.21417e-07
7.36925e-05
3.13187e-07
7.37129e-05
3.04393e-07
7.37329e-05
2.95229e-07
7.37526e-05
2.85844e-07
7.37721e-05
2.7636e-07
7.37913e-05
2.66881e-07
7.38103e-05
2.57504e-07
7.38291e-05
2.48326e-07
7.38479e-05
2.39449e-07
7.38666e-05
2.30987e-07
7.38854e-05
2.23061e-07
7.39044e-05
2.15812e-07
7.39238e-05
2.0937e-07
7.39439e-05
2.0387e-07
7.39652e-05
1.99338e-07
7.39883e-05
1.9577e-07
7.40139e-05
1.92722e-07
7.40428e-05
1.89748e-07
7.40753e-05
1.85323e-07
1.78358e-07
7.41114e-05
7.55023e-05
3.29482e-08
7.55124e-05
1.10044e-07
7.55301e-05
1.77834e-07
7.55525e-05
2.29629e-07
7.55774e-05
2.67427e-07
7.56028e-05
2.92431e-07
7.5628e-05
3.07373e-07
7.56524e-05
3.15108e-07
7.56762e-05
3.1762e-07
7.56993e-05
3.16398e-07
7.57217e-05
3.12556e-07
7.57437e-05
3.06872e-07
7.57652e-05
2.99887e-07
7.57864e-05
2.9199e-07
7.58073e-05
2.83462e-07
7.5828e-05
2.7451e-07
7.58486e-05
2.65291e-07
7.5869e-05
2.55931e-07
7.58894e-05
2.46539e-07
7.59097e-05
2.37208e-07
7.59299e-05
2.28031e-07
7.59503e-05
2.19099e-07
7.59708e-05
2.10505e-07
7.59915e-05
2.02343e-07
7.60126e-05
1.9471e-07
7.60343e-05
1.87678e-07
7.60569e-05
1.81297e-07
7.60807e-05
1.7552e-07
7.61062e-05
1.70221e-07
7.6134e-05
1.64995e-07
7.61644e-05
1.59332e-07
7.61975e-05
1.52222e-07
1.42808e-07
7.6233e-05
7.76607e-05
3.17817e-08
7.76704e-05
1.00387e-07
7.7687e-05
1.61248e-07
7.77079e-05
2.08731e-07
7.77314e-05
2.4395e-07
7.77558e-05
2.67963e-07
7.77804e-05
2.82837e-07
7.78046e-05
2.90909e-07
7.78282e-05
2.93938e-07
7.78514e-05
2.93268e-07
7.7874e-05
2.89932e-07
7.78962e-05
2.84679e-07
7.7918e-05
2.78045e-07
7.79396e-05
2.70424e-07
7.7961e-05
2.62103e-07
7.79822e-05
2.53299e-07
7.80033e-05
2.44176e-07
7.80244e-05
2.34866e-07
7.80454e-05
2.25476e-07
7.80665e-05
2.16101e-07
7.80877e-05
2.06825e-07
7.81091e-05
1.97729e-07
7.81307e-05
1.88887e-07
7.81527e-05
1.80369e-07
7.81752e-05
1.7223e-07
7.81983e-05
1.645e-07
7.82225e-05
1.57169e-07
7.82478e-05
1.50145e-07
7.82748e-05
1.4325e-07
7.83037e-05
1.36127e-07
7.83347e-05
1.28316e-07
7.83678e-05
1.19133e-07
1.07987e-07
7.84026e-05
7.98802e-05
2.98863e-08
7.98894e-05
9.12097e-08
7.99049e-05
1.45764e-07
7.99245e-05
1.89075e-07
7.99468e-05
2.21657e-07
7.99704e-05
2.4441e-07
7.99943e-05
2.58919e-07
8.00181e-05
2.67074e-07
8.00417e-05
2.70409e-07
8.00648e-05
2.70126e-07
8.00876e-05
2.67176e-07
8.011e-05
2.62265e-07
8.01321e-05
2.55918e-07
8.0154e-05
2.48522e-07
8.01757e-05
2.40366e-07
8.01974e-05
2.31671e-07
8.02189e-05
2.22605e-07
8.02405e-05
2.133e-07
8.02621e-05
2.03865e-07
8.02838e-05
1.94391e-07
8.03057e-05
1.84956e-07
8.03278e-05
1.75628e-07
8.03502e-05
1.66466e-07
8.03731e-05
1.57516e-07
8.03965e-05
1.48805e-07
8.04207e-05
1.40328e-07
8.04458e-05
1.32039e-07
8.04721e-05
1.23826e-07
8.04999e-05
1.15497e-07
8.05292e-05
1.06753e-07
8.05603e-05
9.72181e-08
8.0593e-05
8.64256e-08
7.39981e-08
8.0627e-05
8.21627e-05
2.75973e-08
8.21715e-05
8.24592e-08
8.2186e-05
1.31258e-07
8.22045e-05
1.70559e-07
8.22257e-05
2.00488e-07
8.22483e-05
2.21777e-07
8.22716e-05
2.35655e-07
8.2295e-05
2.43649e-07
8.23183e-05
2.47082e-07
8.23414e-05
2.47024e-07
8.23643e-05
2.44333e-07
8.23869e-05
2.39674e-07
8.24092e-05
2.33544e-07
8.24314e-05
2.2632e-07
8.24535e-05
2.1829e-07
8.24755e-05
2.0967e-07
8.24975e-05
2.00629e-07
8.25195e-05
1.913e-07
8.25416e-05
1.81789e-07
8.25638e-05
1.72182e-07
8.25862e-05
1.6255e-07
8.26089e-05
1.52951e-07
8.26319e-05
1.43428e-07
8.26554e-05
1.3401e-07
8.26795e-05
1.247e-07
8.27044e-05
1.15474e-07
8.27301e-05
1.06266e-07
8.2757e-05
9.69577e-08
8.27851e-05
8.73715e-08
8.28146e-05
7.72623e-08
8.28455e-05
6.63414e-08
8.28776e-05
5.42914e-08
4.0886e-08
8.29107e-05
8.45102e-05
2.51312e-08
8.45186e-05
7.41238e-08
8.45322e-05
1.17639e-07
8.45497e-05
1.53077e-07
8.45698e-05
1.80343e-07
8.45916e-05
2.00007e-07
8.46142e-05
2.13036e-07
8.46372e-05
2.2066e-07
8.46603e-05
2.24005e-07
8.46833e-05
2.24015e-07
8.47062e-05
2.21463e-07
8.47289e-05
2.1696e-07
8.47514e-05
2.10974e-07
8.47739e-05
2.03868e-07
8.47963e-05
1.95919e-07
8.48186e-05
1.87341e-07
8.48409e-05
1.78297e-07
8.48633e-05
1.68919e-07
8.48858e-05
1.59308e-07
8.49084e-05
1.49545e-07
8.49313e-05
1.39693e-07
8.49544e-05
1.29801e-07
8.4978e-05
1.19901e-07
8.5002e-05
1.10004e-07
8.50266e-05
1.00102e-07
8.50519e-05
9.01578e-08
8.5078e-05
8.00983e-08
8.51052e-05
6.9811e-08
8.51334e-05
5.91423e-08
8.51628e-05
4.78987e-08
8.51933e-05
3.58667e-08
8.52247e-05
2.28324e-08
8.67036e-09
8.52569e-05
8.69247e-05
2.26163e-08
8.69326e-05
6.61847e-08
8.69454e-05
1.04809e-07
8.6962e-05
1.36528e-07
8.69812e-05
1.61133e-07
8.70022e-05
1.79055e-07
8.70241e-05
1.91054e-07
8.70467e-05
1.98121e-07
8.70695e-05
2.0121e-07
8.70923e-05
2.01144e-07
8.71152e-05
1.98613e-07
8.7138e-05
1.94172e-07
8.71607e-05
1.88259e-07
8.71834e-05
1.81214e-07
8.7206e-05
1.73304e-07
8.72286e-05
1.64732e-07
8.72512e-05
1.55659e-07
8.72739e-05
1.46209e-07
8.72968e-05
1.3648e-07
8.73198e-05
1.26545e-07
8.7343e-05
1.16462e-07
8.73665e-05
1.0627e-07
8.73904e-05
9.59909e-08
8.74148e-05
8.56276e-08
8.74397e-05
7.51623e-08
8.74653e-05
6.45521e-08
8.74917e-05
5.37265e-08
8.75189e-05
4.25857e-08
8.75471e-05
3.10026e-08
8.75762e-05
1.88295e-08
8.76061e-05
5.91326e-09
8.76368e-05
-7.88787e-09
-2.26338e-08
8.76681e-05
8.9408e-05
2.01265e-08
8.94156e-05
5.86229e-08
8.94277e-05
9.26857e-08
8.94434e-05
1.20821e-07
8.94618e-05
1.42776e-07
8.9482e-05
1.58864e-07
8.95033e-05
1.69684e-07
8.95254e-05
1.76034e-07
8.95479e-05
1.78716e-07
8.95706e-05
1.78442e-07
8.95934e-05
1.7582e-07
8.96162e-05
1.71353e-07
8.9639e-05
1.65442e-07
8.96619e-05
1.58405e-07
8.96847e-05
1.5049e-07
8.97075e-05
1.41893e-07
8.97304e-05
1.32766e-07
8.97534e-05
1.23227e-07
8.97765e-05
1.13366e-07
8.97998e-05
1.03252e-07
8.98233e-05
9.29348e-08
8.98471e-05
8.24467e-08
8.98713e-05
7.18025e-08
8.9896e-05
6.09993e-08
8.99211e-05
5.00149e-08
8.99469e-05
3.88068e-08
8.99733e-05
2.73111e-08
9.00004e-05
1.54436e-08
9.00283e-05
3.10389e-09
9.0057e-05
-9.81759e-09
9.00863e-05
-2.34271e-08
9.01162e-05
-3.78162e-08
-5.30024e-08
9.01466e-05
9.19623e-05
1.77014e-08
9.19695e-05
5.14163e-08
9.1981e-05
8.11914e-08
9.19959e-05
1.05869e-07
9.20135e-05
1.25193e-07
9.2033e-05
1.39379e-07
9.20538e-05
1.48899e-07
9.20754e-05
1.54395e-07
9.20976e-05
1.56535e-07
9.21201e-05
1.55932e-07
9.21428e-05
1.53118e-07
9.21656e-05
1.48541e-07
9.21885e-05
1.42565e-07
9.22114e-05
1.35482e-07
9.22344e-05
1.27524e-07
9.22574e-05
1.18873e-07
9.22805e-05
1.09671e-07
9.23037e-05
1.00028e-07
9.23271e-05
9.00284e-08
9.23506e-05
7.97345e-08
9.23743e-05
6.91899e-08
9.23983e-05
5.84209e-08
9.24227e-05
4.74377e-08
9.24475e-05
3.62341e-08
9.24727e-05
2.47875e-08
9.24984e-05
1.30589e-08
9.25248e-05
9.94053e-10
9.25517e-05
-1.1475e-08
9.25792e-05
-2.44247e-08
9.26073e-05
-3.79332e-08
9.2636e-05
-5.20716e-08
9.2665e-05
-6.68961e-08
-8.23973e-08
9.26944e-05
9.45895e-05
1.53596e-08
9.45964e-05
4.45408e-08
9.46073e-05
7.02586e-08
9.46216e-05
9.15971e-08
9.46385e-05
1.08311e-07
9.46573e-05
1.20545e-07
9.46775e-05
1.28666e-07
9.46987e-05
1.33191e-07
9.47206e-05
1.34672e-07
9.47429e-05
1.33631e-07
9.47655e-05
1.3053e-07
9.47883e-05
1.25766e-07
9.48112e-05
1.19663e-07
9.48342e-05
1.12487e-07
9.48572e-05
1.0445e-07
9.48804e-05
9.57191e-08
9.49036e-05
8.64258e-08
9.4927e-05
7.66713e-08
9.49505e-05
6.65327e-08
9.49741e-05
5.60658e-08
9.4998e-05
4.53089e-08
9.50222e-05
3.42839e-08
9.50466e-05
2.2998e-08
9.50714e-05
1.14441e-08
9.50966e-05
-3.98491e-10
9.51222e-05
-1.25634e-08
9.51483e-05
-2.50942e-08
9.51749e-05
-3.80432e-08
9.52019e-05
-5.14661e-08
9.52294e-05
-6.54163e-08
9.52573e-05
-7.99382e-08
9.52854e-05
-9.50636e-08
-1.10766e-07
9.53138e-05
9.72918e-05
1.31073e-08
9.72983e-05
3.79707e-08
9.73088e-05
5.98263e-08
9.73224e-05
7.79324e-08
9.73387e-05
9.20635e-08
9.73569e-05
1.02308e-07
9.73766e-05
1.08951e-07
9.73974e-05
1.12404e-07
9.7419e-05
1.13124e-07
9.74411e-05
1.11549e-07
9.74635e-05
1.08079e-07
9.74862e-05
1.03056e-07
9.75091e-05
9.67703e-08
9.75321e-05
8.94583e-08
9.75553e-05
8.13108e-08
9.75785e-05
7.24797e-08
9.76019e-05
6.30841e-08
9.76253e-05
5.32159e-08
9.76489e-05
4.29444e-08
9.76726e-05
3.23193e-08
9.76966e-05
2.1374e-08
9.77207e-05
1.01272e-08
9.77452e-05
-1.4157e-09
9.77699e-05
-1.32613e-08
9.77949e-05
-2.54269e-08
9.78203e-05
-3.79393e-08
9.7846e-05
-5.0832e-08
9.78721e-05
-6.41432e-08
9.78985e-05
-7.79109e-08
9.79253e-05
-9.21694e-08
9.79523e-05
-1.06943e-07
9.79795e-05
-1.22247e-07
-1.38043e-07
9.80068e-05
0.000100071
1.09435e-08
0.000100078
3.16793e-08
0.000100088
4.98397e-08
0.000100101
6.48104e-08
0.000100116
7.63868e-08
0.000100134
8.4617e-08
0.000100153
8.97174e-08
0.000100174
9.20162e-08
0.000100195
9.18859e-08
0.000100217
8.96938e-08
0.000100239
8.5778e-08
0.000100262
8.04351e-08
0.000100285
7.39168e-08
0.000100308
6.64315e-08
0.000100331
5.81482e-08
0.000100354
4.9202e-08
0.000100377
3.96993e-08
0.000100401
2.97217e-08
0.000100424
1.93305e-08
0.000100448
8.56971e-09
0.000100472
-2.53183e-09
0.000100496
-1.39581e-08
0.00010052
-2.57043e-08
0.000100545
-3.77757e-08
0.00010057
-5.01855e-08
0.000100595
-6.29537e-08
0.00010062
-7.61044e-08
0.000100646
-8.96633e-08
0.000100671
-1.03655e-07
0.000100697
-1.18097e-07
0.000100723
-1.33001e-07
0.000100749
-1.48369e-07
-1.64155e-07
0.000100776
0.00010293
8.86344e-09
0.000102936
2.56403e-08
0.000102946
4.02492e-08
0.000102958
5.21714e-08
0.000102974
6.12221e-08
0.000102991
6.74198e-08
0.00010301
7.09266e-08
0.00010303
7.20017e-08
0.000103051
7.09466e-08
0.000103072
6.80647e-08
0.000103094
6.36394e-08
0.000103117
5.79224e-08
0.00010314
5.11294e-08
0.000103163
4.34403e-08
0.000103186
3.50021e-08
0.000103209
2.59325e-08
0.000103232
1.63242e-08
0.000103256
6.24844e-09
0.000103279
-4.24162e-09
0.000103303
-1.51081e-08
0.000103327
-2.63261e-08
0.000103351
-3.78818e-08
0.000103375
-4.97707e-08
0.000103399
-6.1996e-08
0.000103423
-7.45669e-08
0.000103448
-8.74971e-08
0.000103473
-1.00802e-07
0.000103498
-1.14497e-07
0.000103522
-1.28596e-07
0.000103548
-1.43105e-07
0.000103573
-1.58024e-07
0.000103598
-1.73347e-07
-1.89024e-07
0.000103622
0.000105871
6.86046e-09
0.000105877
1.98278e-08
0.000105886
3.10094e-08
0.000105898
3.99601e-08
0.000105913
4.65131e-08
0.000105929
5.06664e-08
0.000105948
5.25388e-08
0.000105968
5.23332e-08
0.000105988
5.02905e-08
0.00010601
4.66578e-08
0.000106032
4.16687e-08
0.000106054
3.55328e-08
0.000106077
2.84312e-08
0.0001061
2.05156e-08
0.000106123
1.19107e-08
0.000106146
2.7164e-09
0.000106169
-6.98873e-09
0.000106193
-1.71442e-08
0.000106216
-2.77052e-08
0.00010624
-3.86399e-08
0.000106263
-4.99273e-08
0.000106287
-6.15556e-08
0.000106311
-7.35202e-08
0.000106334
-8.58226e-08
0.000106358
-9.84681e-08
0.000106382
-1.11465e-07
0.000106406
-1.24821e-07
0.00010643
-1.38544e-07
0.000106454
-1.52637e-07
0.000106478
-1.671e-07
0.000106502
-1.81924e-07
0.000106526
-1.97097e-07
-2.12566e-07
0.00010655
0.000108895
4.92714e-09
0.000108901
1.42171e-08
0.00010891
2.2079e-08
0.000108922
2.81258e-08
0.000108936
3.22074e-08
0.000108952
3.43081e-08
0.00010897
3.45132e-08
0.00010899
3.298e-08
0.00010901
2.98976e-08
0.000109031
2.54635e-08
0.000109053
1.98662e-08
0.000109075
1.32758e-08
0.000109098
5.84013e-09
0.000109121
-2.3166e-09
0.000109144
-1.10922e-08
0.000109167
-2.0405e-08
0.00010919
-3.01905e-08
0.000109213
-4.03998e-08
0.000109237
-5.09962e-08
0.00010926
-6.19543e-08
0.000109283
-7.32569e-08
0.000109307
-8.48944e-08
0.00010933
-9.68624e-08
0.000109353
-1.0916e-07
0.000109377
-1.21791e-07
0.0001094
-1.34757e-07
0.000109423
-1.48062e-07
0.000109446
-1.61705e-07
0.000109469
-1.75684e-07
0.000109492
-1.89992e-07
0.000109515
-2.04614e-07
0.000109537
-2.19535e-07
-2.34699e-07
0.00010956
0.000112006
3.05582e-09
0.000112012
8.78467e-09
0.00011202
1.34189e-08
0.000112032
1.66188e-08
0.000112046
1.82507e-08
0.000112062
1.82922e-08
0.00011208
1.68034e-08
0.000112099
1.3905e-08
0.000112119
9.74092e-09
0.00011214
4.46574e-09
0.000112162
-1.7731e-09
0.000112184
-8.84383e-09
0.000112206
-1.66293e-08
0.000112229
-2.50329e-08
0.000112252
-3.39748e-08
0.000112275
-4.33915e-08
0.000112298
-5.32334e-08
0.000112321
-6.34627e-08
0.000112344
-7.40518e-08
0.000112367
-8.49814e-08
0.00011239
-9.62388e-08
0.000112413
-1.07816e-07
0.000112436
-1.1971e-07
0.000112458
-1.31919e-07
0.000112481
-1.44443e-07
0.000112504
-1.57281e-07
0.000112526
-1.70431e-07
0.000112548
-1.83889e-07
0.00011257
-1.97647e-07
0.000112592
-2.11693e-07
0.000112613
-2.2601e-07
0.000112634
-2.40578e-07
-2.55341e-07
0.000112655
0.000115206
1.24047e-09
0.000115212
3.5116e-09
0.00011522
4.99846e-09
0.000115231
5.39962e-09
0.000115245
4.5991e-09
0.000115261
2.57375e-09
0.000115278
-6.35891e-10
0.000115297
-4.9316e-09
0.000115317
-1.02126e-08
0.000115338
-1.63608e-08
0.000115359
-2.32673e-08
0.000115381
-3.08341e-08
0.000115403
-3.8976e-08
0.000115426
-4.76229e-08
0.000115449
-5.67174e-08
0.000115472
-6.62146e-08
0.000115494
-7.60797e-08
0.000115517
-8.6287e-08
0.00011554
-9.68179e-08
0.000115563
-1.0766e-07
0.000115585
-1.18805e-07
0.000115608
-1.30247e-07
0.00011563
-1.41985e-07
0.000115652
-1.54016e-07
0.000115674
-1.66338e-07
0.000115696
-1.78948e-07
0.000115717
-1.91841e-07
0.000115738
-2.05009e-07
0.000115759
-2.18441e-07
0.000115779
-2.32122e-07
0.000115799
-2.46031e-07
0.000115819
-2.60147e-07
-2.74417e-07
0.000115838
0.000118498
-5.28571e-10
0.000118503
-1.62778e-09
0.000118511
-3.22565e-09
0.000118522
-5.58995e-09
0.000118535
-8.81463e-09
0.000118551
-1.29153e-08
0.000118568
-1.78593e-08
0.000118587
-2.35797e-08
0.000118607
-3.00007e-08
0.000118627
-3.70416e-08
0.000118649
-4.46285e-08
0.00011867
-5.26966e-08
0.000118693
-6.11914e-08
0.000118715
-7.00686e-08
0.000118738
-7.92934e-08
0.00011876
-8.88395e-08
0.000118783
-9.86875e-08
0.000118805
-1.08824e-07
0.000118828
-1.19239e-07
0.00011885
-1.29928e-07
0.000118872
-1.40888e-07
0.000118894
-1.52116e-07
0.000118916
-1.63611e-07
0.000118937
-1.75373e-07
0.000118958
-1.87397e-07
0.000118979
-1.99679e-07
0.000118999
-2.12212e-07
0.000119019
-2.24987e-07
0.000119039
-2.37989e-07
0.000119058
-2.51201e-07
0.000119076
-2.64602e-07
0.000119094
-2.7817e-07
-2.9185e-07
0.000119112
0.000121883
-2.24297e-09
0.000121888
-6.62242e-09
0.000121896
-1.1244e-08
0.000121907
-1.6351e-08
0.00012192
-2.2008e-08
0.000121935
-2.82114e-08
0.000121952
-3.4928e-08
0.000121971
-4.21062e-08
0.000121991
-4.96946e-08
0.000122011
-5.76456e-08
0.000122032
-6.59193e-08
0.000122054
-7.44841e-08
0.000122076
-8.33158e-08
0.000122099
-9.23972e-08
0.000122121
-1.01717e-07
0.000122144
-1.11267e-07
0.000122166
-1.21045e-07
0.000122188
-1.3105e-07
0.00012221
-1.41282e-07
0.000122232
-1.51744e-07
0.000122254
-1.62437e-07
0.000122275
-1.73365e-07
0.000122296
-1.84526e-07
0.000122316
-1.95922e-07
0.000122336
-2.07549e-07
0.000122356
-2.19402e-07
0.000122375
-2.31472e-07
0.000122394
-2.43749e-07
0.000122412
-2.56218e-07
0.00012243
-2.68861e-07
0.000122447
-2.81655e-07
0.000122464
-2.9458e-07
-3.07582e-07
0.000122479
0.000125365
-3.94965e-09
0.00012537
-1.1555e-08
0.000125378
-1.917e-08
0.000125389
-2.70083e-08
0.000125402
-3.50954e-08
0.000125417
-4.34038e-08
0.000125434
-5.18978e-08
0.000125452
-6.05399e-08
0.000125472
-6.93015e-08
0.000125492
-7.81644e-08
0.000125514
-8.71207e-08
0.000125535
-9.61703e-08
0.000125557
-1.05319e-07
0.00012558
-1.14575e-07
0.000125602
-1.23951e-07
0.000125624
-1.33459e-07
0.000125646
-1.43112e-07
0.000125668
-1.52922e-07
0.00012569
-1.62901e-07
0.000125711
-1.73059e-07
0.000125732
-1.83403e-07
0.000125752
-1.93941e-07
0.000125773
-2.04676e-07
0.000125792
-2.15609e-07
0.000125811
-2.26738e-07
0.00012583
-2.38059e-07
0.000125848
-2.49564e-07
0.000125866
-2.6124e-07
0.000125883
-2.73074e-07
0.000125899
-2.85046e-07
0.000125914
-2.97135e-07
0.000125929
-3.0932e-07
-3.21552e-07
0.000125943
0.000128947
-5.49704e-09
0.000128951
-1.62019e-08
0.000128959
-2.67778e-08
0.000128969
-3.74148e-08
0.000128982
-4.80475e-08
0.000128997
-5.8578e-08
0.000129014
-6.89416e-08
0.000129033
-7.91053e-08
0.000129053
-8.90644e-08
0.000129073
-9.88361e-08
0.000129095
-1.0845e-07
0.000129117
-1.17943e-07
0.000129139
-1.27355e-07
0.000129161
-1.36724e-07
0.000129183
-1.46086e-07
0.000129205
-1.55476e-07
0.000129227
-1.64924e-07
0.000129248
-1.74454e-07
0.000129269
-1.84091e-07
0.00012929
-1.93851e-07
0.000129311
-2.03751e-07
0.00012933
-2.13801e-07
0.00012935
-2.24008e-07
0.000129369
-2.34375e-07
0.000129387
-2.44903e-07
0.000129404
-2.55588e-07
0.000129421
-2.66423e-07
0.000129437
-2.77395e-07
0.000129453
-2.88492e-07
0.000129467
-2.99695e-07
0.000129481
-3.10985e-07
0.000129494
-3.22341e-07
-3.33716e-07
0.000129506
0.000132631
-7.34607e-09
0.000132636
-2.11222e-08
0.000132644
-3.45773e-08
0.000132654
-4.78965e-08
0.000132667
-6.09707e-08
0.000132682
-7.36559e-08
0.000132699
-8.58613e-08
0.000132717
-9.75459e-08
0.000132737
-1.08715e-07
0.000132758
-1.19408e-07
0.000132779
-1.29686e-07
0.000132801
-1.3962e-07
0.000132823
-1.49278e-07
0.000132845
-1.58731e-07
0.000132866
-1.6804e-07
0.000132888
-1.7726e-07
0.00013291
-1.86439e-07
0.000132931
-1.95619e-07
0.000132952
-2.04834e-07
0.000132972
-2.14112e-07
0.000132992
-2.23475e-07
0.000133011
-2.3294e-07
0.000133029
-2.42519e-07
0.000133047
-2.52219e-07
0.000133064
-2.62041e-07
0.000133081
-2.71985e-07
0.000133096
-2.82044e-07
0.000133111
-2.92209e-07
0.000133125
-3.02466e-07
0.000133138
-3.128e-07
0.00013315
-3.23191e-07
0.000133162
-3.33621e-07
-3.44046e-07
0.000133172
0.000136419
-8.09987e-09
0.000136423
-2.48086e-08
0.00013643
-4.14803e-08
0.00013644
-5.80997e-08
0.000136453
-7.41768e-08
0.000136469
-8.93907e-08
0.000136487
-1.03624e-07
0.000136506
-1.16873e-07
0.000136526
-1.29202e-07
0.000136548
-1.40714e-07
0.000136569
-1.51525e-07
0.000136592
-1.61754e-07
0.000136614
-1.71514e-07
0.000136636
-1.80908e-07
0.000136658
-1.90025e-07
0.00013668
-1.98943e-07
0.000136701
-2.07728e-07
0.000136722
-2.16436e-07
0.000136742
-2.25111e-07
0.000136762
-2.33792e-07
0.000136781
-2.42506e-07
0.000136799
-2.51275e-07
0.000136817
-2.60117e-07
0.000136834
-2.6904e-07
0.00013685
-2.7805e-07
0.000136865
-2.87147e-07
0.000136879
-2.96328e-07
0.000136892
-3.05584e-07
0.000136905
-3.14904e-07
0.000136916
-3.24274e-07
0.000136927
-3.33678e-07
0.000136936
-3.43099e-07
-3.52497e-07
0.000136945
0.000140319
-1.13575e-08
0.000140325
-3.03398e-08
0.000140332
-4.91633e-08
0.000140342
-6.80499e-08
0.000140355
-8.65449e-08
0.000140369
-1.04109e-07
0.000140386
-1.20433e-07
0.000140405
-1.35416e-07
0.000140425
-1.49102e-07
0.000140445
-1.61611e-07
0.000140467
-1.73098e-07
0.000140489
-1.83726e-07
0.000140511
-1.93649e-07
0.000140533
-2.03008e-07
0.000140555
-2.11927e-07
0.000140577
-2.2051e-07
0.000140598
-2.28847e-07
0.000140618
-2.37011e-07
0.000140638
-2.45063e-07
0.000140658
-2.53051e-07
0.000140676
-2.61014e-07
0.000140694
-2.68981e-07
0.000140711
-2.76974e-07
0.000140727
-2.85008e-07
0.000140742
-2.93092e-07
0.000140756
-3.0123e-07
0.000140769
-3.0942e-07
0.000140781
-3.17657e-07
0.000140792
-3.25932e-07
0.000140802
-3.34234e-07
0.000140811
-3.42548e-07
0.000140819
-3.50859e-07
-3.59132e-07
0.000140825
0.000144322
-8.36576e-09
0.000144322
-3.09644e-08
0.000144328
-5.49727e-08
0.000144339
-7.91122e-08
0.000144354
-1.01736e-07
0.000144372
-1.22246e-07
0.000144393
-1.40603e-07
0.000144414
-1.56945e-07
0.000144437
-1.71488e-07
0.000144459
-1.84475e-07
0.000144482
-1.9615e-07
0.000144505
-2.06741e-07
0.000144528
-2.16453e-07
0.000144551
-2.2546e-07
0.000144573
-2.33912e-07
0.000144594
-2.41934e-07
0.000144615
-2.4963e-07
0.000144635
-2.57083e-07
0.000144654
-2.64365e-07
0.000144673
-2.71529e-07
0.00014469
-2.78621e-07
0.000144707
-2.85673e-07
0.000144723
-2.92713e-07
0.000144738
-2.99757e-07
0.000144751
-3.06818e-07
0.000144764
-3.13902e-07
0.000144776
-3.2101e-07
0.000144786
-3.2814e-07
0.000144795
-3.35287e-07
0.000144804
-3.4244e-07
0.000144811
-3.49588e-07
0.000144816
-3.56719e-07
-3.63801e-07
0.000144821
0.000148457
-1.7104e-08
0.000148463
-3.75049e-08
0.000148468
-6.01728e-08
0.000148475
-8.55821e-08
0.000148484
-1.11301e-07
0.000148498
-1.35374e-07
0.000148514
-1.56883e-07
0.000148533
-1.75714e-07
0.000148553
-1.921e-07
0.000148575
-2.06353e-07
0.000148598
-2.18806e-07
0.000148621
-2.29776e-07
0.000148644
-2.39543e-07
0.000148667
-2.48351e-07
0.000148689
-2.56399e-07
0.000148711
-2.63856e-07
0.000148732
-2.70857e-07
0.000148753
-2.77512e-07
0.000148772
-2.83911e-07
0.000148791
-2.90123e-07
0.000148809
-2.96205e-07
0.000148825
-3.022e-07
0.000148841
-3.08139e-07
0.000148855
-3.14048e-07
0.000148868
-3.19943e-07
0.00014888
-3.25834e-07
0.000148891
-3.31726e-07
0.0001489
-3.3762e-07
0.000148908
-3.43513e-07
0.000148915
-3.49399e-07
0.000148921
-3.55268e-07
0.000148925
-3.61111e-07
-3.66902e-07
0.000148928
0.000152671
9.92671e-10
0.000152666
-3.22084e-08
0.000152673
-6.78202e-08
0.000152691
-1.03017e-07
0.000152713
-1.33614e-07
0.000152738
-1.59883e-07
0.000152763
-1.82274e-07
0.000152789
-2.01327e-07
0.000152814
-2.17554e-07
0.000152839
-2.31412e-07
0.000152864
-2.43327e-07
0.000152888
-2.53669e-07
0.000152911
-2.62743e-07
0.000152933
-2.70801e-07
0.000152955
-2.78051e-07
0.000152976
-2.84662e-07
0.000152996
-2.90772e-07
0.000153015
-2.96494e-07
0.000153033
-3.01916e-07
0.00015305
-3.07111e-07
0.000153065
-3.12136e-07
0.00015308
-3.17037e-07
0.000153094
-3.21849e-07
0.000153107
-3.26597e-07
0.000153118
-3.31301e-07
0.000153128
-3.35975e-07
0.000153137
-3.40625e-07
0.000153145
-3.45255e-07
0.000153151
-3.49866e-07
0.000153156
-3.54453e-07
0.00015316
-3.5901e-07
0.000153162
-3.63532e-07
-3.67994e-07
0.000153163
0.000157077
-2.43788e-08
0.000157076
-3.11215e-08
0.000157063
-5.48361e-08
0.000157054
-9.42914e-08
0.000157055
-1.3426e-07
0.000157065
-1.69771e-07
0.000157081
-1.98717e-07
0.000157102
-2.222e-07
0.000157126
-2.4132e-07
0.000157151
-2.56904e-07
0.000157177
-2.69675e-07
0.000157204
-2.80239e-07
0.00015723
-2.89079e-07
0.000157256
-2.96576e-07
0.000157281
-3.03033e-07
0.000157305
-3.08683e-07
0.000157328
-3.13713e-07
0.00015735
-3.18267e-07
0.00015737
-3.22457e-07
0.00015739
-3.26371e-07
0.000157408
-3.30078e-07
0.000157424
-3.33632e-07
0.000157439
-3.37072e-07
0.000157453
-3.4043e-07
0.000157466
-3.43727e-07
0.000157477
-3.46981e-07
0.000157486
-3.50201e-07
0.000157494
-3.53395e-07
0.000157501
-3.56564e-07
0.000157506
-3.59708e-07
0.00015751
-3.62825e-07
0.000157513
-3.65911e-07
-3.6895e-07
0.000157514
0.00016147
4.43279e-08
0.000161456
-1.73843e-08
0.000161492
-9.04035e-08
0.000161534
-1.36515e-07
0.000161575
-1.75585e-07
0.000161611
-2.05817e-07
0.000161643
-2.30597e-07
0.000161672
-2.51132e-07
0.000161699
-2.67966e-07
0.000161724
-2.81807e-07
0.000161747
-2.93273e-07
0.00016177
-3.02829e-07
0.000161791
-3.10846e-07
0.000161813
-3.17624e-07
0.000161833
-3.23405e-07
0.000161853
-3.28383e-07
0.000161872
-3.32715e-07
0.00016189
-3.36525e-07
0.000161907
-3.39917e-07
0.000161924
-3.42971e-07
0.00016194
-3.45755e-07
0.000161954
-3.48321e-07
0.000161968
-3.50712e-07
0.00016198
-3.52962e-07
0.000161992
-3.55097e-07
0.000162002
-3.5714e-07
0.000162011
-3.59104e-07
0.000162018
-3.61002e-07
0.000162025
-3.62839e-07
0.00016203
-3.64619e-07
0.000162033
-3.66343e-07
0.000162035
-3.6801e-07
-3.69611e-07
0.000162036
0.00016619
7.60871e-09
0.000166126
4.69076e-08
0.000166045
-9.69467e-09
0.000165989
-7.98102e-08
0.000165975
-1.62268e-07
0.000165988
-2.18279e-07
0.000166015
-2.58145e-07
0.000166051
-2.86882e-07
0.000166091
-3.08222e-07
0.000166134
-3.24345e-07
0.000166177
-3.36633e-07
0.00016622
-3.46082e-07
0.000166263
-3.53402e-07
0.000166304
-3.59107e-07
0.000166345
-3.63569e-07
0.000166383
-3.67066e-07
0.00016642
-3.69809e-07
0.000166456
-3.71955e-07
0.00016649
-3.73629e-07
0.000166522
-3.74926e-07
0.000166552
-3.75922e-07
0.00016658