/*--------------------------------*- C++ -*----------------------------------*\
  =========                 |
  \\      /  F ield         | OpenFOAM: The Open Source CFD Toolbox
   \\    /   O peration     | Website:  https://openfoam.org
    \\  /    A nd           | Version:  10
     \\/     M anipulation  |
\*---------------------------------------------------------------------------*/
FoamFile
{
    format      ascii;
    class       volVectorField;
    location    "0.115";
    object      U;
}
// * * * * * * * * * * * * * * * * * * * * * * * * * * * * * * * * * * * * * //

dimensions      [0 1 -1 0 0 0 0];

internalField   nonuniform List<vector> 
6820
(
(7.33663 -0.254711 0)
(7.37114 -0.15275 0)
(7.32907 -0.0594746 0)
(7.25228 -0.0117292 0)
(7.17496 0.00795183 0)
(7.1052 0.0139493 0)
(7.04425 0.0144315 0)
(6.99153 0.0130488 0)
(6.94558 0.0112921 0)
(6.905 0.00970876 0)
(6.8687 0.00843878 0)
(6.83589 0.00746927 0)
(6.80596 0.00674378 0)
(6.77845 0.00620286 0)
(6.75302 0.00579676 0)
(6.72939 0.0054876 0)
(6.70737 0.00524774 0)
(6.68678 0.00505761 0)
(6.66746 0.00490381 0)
(6.64931 0.00477745 0)
(6.6322 0.00467319 0)
(6.61604 0.00458872 0)
(6.60072 0.00452483 0)
(6.58615 0.00448643 0)
(6.57222 0.00448422 0)
(6.55878 0.0045417 0)
(6.54562 0.00470832 0)
(6.53246 0.00504413 0)
(6.51844 0.00602772 0)
(6.50304 0.00686716 0)
(6.48233 0.0143173 0)
(6.44937 0.0151479 0)
(6.40685 0.0334318 0)
(7.32387 0.121383 0)
(7.3044 0.123264 0)
(7.30898 0.0779433 0)
(7.32922 0.0527562 0)
(7.34734 0.0391492 0)
(7.35544 0.0313354 0)
(7.35452 0.0268731 0)
(7.34748 0.0241158 0)
(7.33662 0.022206 0)
(7.3235 0.0207523 0)
(7.30919 0.0195591 0)
(7.29436 0.0185259 0)
(7.2794 0.0176024 0)
(7.26457 0.0167619 0)
(7.25 0.0159896 0)
(7.23579 0.0152761 0)
(7.22199 0.014615 0)
(7.20861 0.0140017 0)
(7.19566 0.0134328 0)
(7.18314 0.0129063 0)
(7.17105 0.0124214 0)
(7.15938 0.0119788 0)
(7.14811 0.0115822 0)
(7.13722 0.0112396 0)
(7.1267 0.0109657 0)
(7.11653 0.0107947 0)
(7.10673 0.0107693 0)
(7.09719 0.0110584 0)
(7.08855 0.011754 0)
(7.07965 0.0137638 0)
(7.07625 0.0174922 0)
(7.07225 0.0263425 0)
(7.09785 0.0466132 0)
(7.32565 -0.0437966 0)
(7.32325 -0.0517468 0)
(7.3352 -0.0262232 0)
(7.34307 -0.00275522 0)
(7.34803 0.0103802 0)
(7.35227 0.016817 0)
(7.35534 0.0198738 0)
(7.35695 0.0211447 0)
(7.35709 0.0214712 0)
(7.35589 0.0213264 0)
(7.35358 0.0209571 0)
(7.35039 0.0204898 0)
(7.34652 0.0199903 0)
(7.34215 0.0194911 0)
(7.33741 0.0190076 0)
(7.3324 0.0185457 0)
(7.32722 0.0181076 0)
(7.32192 0.0176934 0)
(7.31656 0.017303 0)
(7.31119 0.0169364 0)
(7.30582 0.0165949 0)
(7.30049 0.0162812 0)
(7.2952 0.0160008 0)
(7.28996 0.015763 0)
(7.28477 0.0155848 0)
(7.27962 0.0154905 0)
(7.27452 0.0155394 0)
(7.26941 0.0157615 0)
(7.26445 0.0164544 0)
(7.2593 0.0172632 0)
(7.25513 0.0199702 0)
(7.25079 0.0205197 0)
(7.24924 0.025907 0)
(7.33338 0.0117813 0)
(7.33036 0.0328945 0)
(7.32958 0.0333148 0)
(7.33261 0.0275916 0)
(7.33807 0.0241885 0)
(7.34365 0.0226973 0)
(7.34833 0.0221196 0)
(7.35207 0.0218751 0)
(7.35497 0.0217072 0)
(7.35709 0.0215337 0)
(7.35851 0.0213289 0)
(7.35935 0.0210867 0)
(7.35967 0.020811 0)
(7.35957 0.0205086 0)
(7.35912 0.0201868 0)
(7.35837 0.0198523 0)
(7.35738 0.0195109 0)
(7.3562 0.0191676 0)
(7.35487 0.0188271 0)
(7.35342 0.0184943 0)
(7.35187 0.0181743 0)
(7.35024 0.0178741 0)
(7.34855 0.0176029 0)
(7.34682 0.0173742 0)
(7.34504 0.0172092 0)
(7.34322 0.017138 0)
(7.34139 0.0172163 0)
(7.33952 0.0175037 0)
(7.33775 0.0181755 0)
(7.33602 0.0192344 0)
(7.33503 0.021344 0)
(7.33476 0.0236903 0)
(7.33704 0.0284864 0)
(7.33122 -0.00353058 0)
(7.33004 -0.00435109 0)
(7.33362 0.00122672 0)
(7.33723 0.00866001 0)
(7.34056 0.0140092 0)
(7.34389 0.0169968 0)
(7.34711 0.0186152 0)
(7.35017 0.0195074 0)
(7.353 0.0199777 0)
(7.35556 0.0201967 0)
(7.35781 0.0202598 0)
(7.35977 0.0202201 0)
(7.36146 0.0201104 0)
(7.3629 0.0199522 0)
(7.36411 0.0197597 0)
(7.36512 0.019543 0)
(7.36595 0.0193095 0)
(7.36664 0.0190653 0)
(7.36719 0.0188158 0)
(7.36762 0.0185664 0)
(7.36796 0.0183233 0)
(7.36822 0.0180941 0)
(7.36841 0.017889 0)
(7.36853 0.0177221 0)
(7.3686 0.0176144 0)
(7.36863 0.0175932 0)
(7.36865 0.0177067 0)
(7.36866 0.0179961 0)
(7.36878 0.0185839 0)
(7.36905 0.0194288 0)
(7.36985 0.0208635 0)
(7.37129 0.0221734 0)
(7.3739 0.0239785 0)
(7.33264 0.00207122 0)
(7.33224 0.00987749 0)
(7.33395 0.0140565 0)
(7.33648 0.0159085 0)
(7.3395 0.0169949 0)
(7.34274 0.0177472 0)
(7.34584 0.018332 0)
(7.34876 0.0187685 0)
(7.3515 0.019055 0)
(7.35406 0.0192202 0)
(7.35645 0.0192936 0)
(7.35869 0.0192957 0)
(7.36078 0.0192416 0)
(7.36273 0.0191431 0)
(7.36455 0.0190091 0)
(7.36626 0.0188468 0)
(7.36785 0.0186624 0)
(7.36934 0.0184614 0)
(7.37075 0.0182494 0)
(7.37208 0.018032 0)
(7.37334 0.0178158 0)
(7.37453 0.0176089 0)
(7.37568 0.0174219 0)
(7.37677 0.0172685 0)
(7.37784 0.017168 0)
(7.37888 0.0171447 0)
(7.37993 0.0172357 0)
(7.38102 0.0174729 0)
(7.38224 0.0179263 0)
(7.38366 0.0185718 0)
(7.38552 0.0195298 0)
(7.38797 0.0204418 0)
(7.39121 0.0214453 0)
(7.33258 0.000818687 0)
(7.33243 0.00448202 0)
(7.3343 0.00801224 0)
(7.33692 0.0111917 0)
(7.33974 0.0137526 0)
(7.34261 0.0154996 0)
(7.34537 0.0166225 0)
(7.34801 0.0173351 0)
(7.35054 0.0177722 0)
(7.35296 0.0180264 0)
(7.35529 0.0181571 0)
(7.35753 0.0182002 0)
(7.35969 0.0181783 0)
(7.36177 0.0181071 0)
(7.36378 0.0179974 0)
(7.36573 0.0178572 0)
(7.36761 0.0176931 0)
(7.36945 0.0175106 0)
(7.37123 0.0173151 0)
(7.37296 0.0171121 0)
(7.37466 0.016908 0)
(7.37631 0.0167104 0)
(7.37794 0.0165291 0)
(7.37955 0.0163763 0)
(7.38115 0.0162684 0)
(7.38276 0.0162244 0)
(7.38439 0.0162705 0)
(7.3861 0.0164264 0)
(7.38795 0.0167265 0)
(7.39002 0.0171435 0)
(7.39244 0.0176962 0)
(7.39532 0.0181596 0)
(7.39873 0.0184661 0)
(7.33284 0.00132135 0)
(7.33302 0.00531844 0)
(7.33459 0.00884733 0)
(7.33684 0.0115075 0)
(7.33936 0.013453 0)
(7.34202 0.0147847 0)
(7.34464 0.0156876 0)
(7.34718 0.0163016 0)
(7.34961 0.0167025 0)
(7.35196 0.0169465 0)
(7.35423 0.0170767 0)
(7.35642 0.0171223 0)
(7.35857 0.0171033 0)
(7.36066 0.0170343 0)
(7.36271 0.0169258 0)
(7.36473 0.0167856 0)
(7.36671 0.01662 0)
(7.36867 0.0164344 0)
(7.3706 0.0162341 0)
(7.3725 0.0160242 0)
(7.37439 0.0158107 0)
(7.37627 0.0156007 0)
(7.37814 0.0154026 0)
(7.38001 0.0152267 0)
(7.38189 0.0150857 0)
(7.3838 0.0149936 0)
(7.38577 0.0149667 0)
(7.38783 0.0150147 0)
(7.39003 0.0151486 0)
(7.39244 0.0153397 0)
(7.39514 0.015564 0)
(7.3982 0.015678 0)
(7.40162 0.0155847 0)
(7.33291 0.00131784 0)
(7.33321 0.00463316 0)
(7.33462 0.00764321 0)
(7.33668 0.0100794 0)
(7.33901 0.0120075 0)
(7.34149 0.013425 0)
(7.34397 0.0144196 0)
(7.34638 0.0151 0)
(7.34873 0.0155451 0)
(7.351 0.015817 0)
(7.35321 0.0159633 0)
(7.35536 0.0160162 0)
(7.35747 0.0159983 0)
(7.35954 0.0159257 0)
(7.36159 0.0158098 0)
(7.36361 0.0156594 0)
(7.36561 0.0154811 0)
(7.3676 0.0152807 0)
(7.36958 0.0150634 0)
(7.37155 0.0148342 0)
(7.37352 0.0145987 0)
(7.37549 0.014363 0)
(7.37747 0.0141341 0)
(7.37947 0.0139201 0)
(7.3815 0.0137301 0)
(7.38357 0.0135732 0)
(7.38571 0.0134577 0)
(7.38796 0.0133855 0)
(7.39034 0.0133535 0)
(7.39292 0.0133327 0)
(7.39573 0.0132847 0)
(7.39881 0.0131123 0)
(7.40215 0.0127296 0)
(7.33297 0.00129249 0)
(7.33335 0.00427247 0)
(7.33463 0.00703509 0)
(7.33648 0.00930041 0)
(7.33862 0.0110866 0)
(7.34091 0.0124104 0)
(7.34324 0.0133515 0)
(7.34555 0.0140053 0)
(7.34781 0.0144409 0)
(7.35002 0.014711 0)
(7.35218 0.0148563 0)
(7.35429 0.0149064 0)
(7.35637 0.0148825 0)
(7.35842 0.0148005 0)
(7.36044 0.014672 0)
(7.36245 0.0145058 0)
(7.36445 0.0143089 0)
(7.36644 0.0140871 0)
(7.36843 0.0138455 0)
(7.37042 0.013589 0)
(7.37241 0.0133224 0)
(7.37442 0.013051 0)
(7.37645 0.0127804 0)
(7.3785 0.0125164 0)
(7.3806 0.012265 0)
(7.38275 0.0120307 0)
(7.38498 0.0118162 0)
(7.38731 0.0116179 0)
(7.38977 0.0114251 0)
(7.3924 0.01121 0)
(7.39522 0.0109336 0)
(7.39825 0.0105284 0)
(7.40146 0.00993016 0)
(7.333 0.00122887 0)
(7.33342 0.00388401 0)
(7.33457 0.00635027 0)
(7.33625 0.00840608 0)
(7.33821 0.0100555 0)
(7.34034 0.0113131 0)
(7.34253 0.0122307 0)
(7.34473 0.0128792 0)
(7.34691 0.0133163 0)
(7.34906 0.0135884 0)
(7.35116 0.0137335 0)
(7.35323 0.0137798 0)
(7.35528 0.0137485 0)
(7.3573 0.0136552 0)
(7.3593 0.0135118 0)
(7.36129 0.0133272 0)
(7.36327 0.0131086 0)
(7.36525 0.0128619 0)
(7.36723 0.0125919 0)
(7.36922 0.0123031 0)
(7.37122 0.0120001 0)
(7.37323 0.0116868 0)
(7.37527 0.0113676 0)
(7.37735 0.0110462 0)
(7.37947 0.0107258 0)
(7.38165 0.0104076 0)
(7.38391 0.0100901 0)
(7.38626 0.00976628 0)
(7.38874 0.00942223 0)
(7.39136 0.00903257 0)
(7.39413 0.00856297 0)
(7.39706 0.00796533 0)
(7.40013 0.00719508 0)
(7.33302 0.00114349 0)
(7.33344 0.00352023 0)
(7.3345 0.00573347 0)
(7.33602 0.00760747 0)
(7.33782 0.00912806 0)
(7.3398 0.0103043 0)
(7.34186 0.0111741 0)
(7.34395 0.0117939 0)
(7.34604 0.0122136 0)
(7.34812 0.0124743 0)
(7.35017 0.0126096 0)
(7.35219 0.0126456 0)
(7.3542 0.012602 0)
(7.35619 0.0124939 0)
(7.35816 0.0123327 0)
(7.36013 0.0121273 0)
(7.36209 0.0118847 0)
(7.36405 0.0116105 0)
(7.36602 0.0113094 0)
(7.36799 0.0109854 0)
(7.36998 0.0106423 0)
(7.37199 0.0102832 0)
(7.37403 0.00991104 0)
(7.37611 0.00952781 0)
(7.37823 0.00913441 0)
(7.38041 0.00872964 0)
(7.38266 0.0083093 0)
(7.38501 0.00786445 0)
(7.38746 0.00738058 0)
(7.39003 0.00683546 0)
(7.39272 0.00620076 0)
(7.39553 0.00544188 0)
(7.39845 0.00452891 0)
(7.33303 0.00104777 0)
(7.33344 0.00317314 0)
(7.33441 0.00515062 0)
(7.3358 0.00684389 0)
(7.33745 0.00823109 0)
(7.33929 0.0093182 0)
(7.34123 0.0101326 0)
(7.34322 0.0107178 0)
(7.34522 0.011115 0)
(7.34722 0.0113593 0)
(7.34921 0.0114806 0)
(7.35119 0.0115024 0)
(7.35316 0.0114433 0)
(7.35511 0.0113176 0)
(7.35705 0.0111363 0)
(7.35899 0.010908 0)
(7.36093 0.0106393 0)
(7.36287 0.0103356 0)
(7.36481 0.0100013 0)
(7.36677 0.00963996 0)
(7.36874 0.00925444 0)
(7.37074 0.0088471 0)
(7.37276 0.00841954 0)
(7.37482 0.00797235 0)
(7.37692 0.00750472 0)
(7.37909 0.00701372 0)
(7.38132 0.00649362 0)
(7.38363 0.00593486 0)
(7.38603 0.00532356 0)
(7.38852 0.00464087 0)
(7.39112 0.0038642 0)
(7.39381 0.00296842 0)
(7.39658 0.0019338 0)
(7.33303 0.000948089 0)
(7.33342 0.00284277 0)
(7.33431 0.00460322 0)
(7.33559 0.00612436 0)
(7.33711 0.00738089 0)
(7.33882 0.00837488 0)
(7.34065 0.00912581 0)
(7.34253 0.00966696 0)
(7.34445 0.0100324 0)
(7.34638 0.0102523 0)
(7.34831 0.0103528 0)
(7.35024 0.0103552 0)
(7.35216 0.0102765 0)
(7.35407 0.0101298 0)
(7.35598 0.00992563 0)
(7.35789 0.00967204 0)
(7.35979 0.00937534 0)
(7.36171 0.00904047 0)
(7.36363 0.00867133 0)
(7.36556 0.00827091 0)
(7.36751 0.00784145 0)
(7.36948 0.00738442 0)
(7.37148 0.00690038 0)
(7.37351 0.00638878 0)
(7.37559 0.00584756 0)
(7.37772 0.00527273 0)
(7.37991 0.00465786 0)
(7.38217 0.00399352 0)
(7.3845 0.00326715 0)
(7.38691 0.00246311 0)
(7.3894 0.00156368 0)
(7.39197 0.000550462 0)
(7.39458 -0.000589452 0)
(7.33303 0.000848281 0)
(7.3334 0.00252825 0)
(7.33422 0.00408659 0)
(7.33539 0.00544178 0)
(7.3368 0.00656815 0)
(7.3384 0.00746475 0)
(7.34012 0.00814531 0)
(7.34191 0.00863522 0)
(7.34374 0.00896218 0)
(7.3456 0.00915173 0)
(7.34746 0.00922638 0)
(7.34934 0.00920503 0)
(7.35121 0.00910298 0)
(7.35308 0.00893242 0)
(7.35495 0.00870294 0)
(7.35682 0.00842206 0)
(7.3587 0.00809559 0)
(7.36058 0.00772802 0)
(7.36247 0.00732272 0)
(7.36437 0.00688216 0)
(7.36629 0.00640789 0)
(7.36823 0.00590064 0)
(7.37019 0.00536014 0)
(7.37219 0.00478495 0)
(7.37423 0.00417224 0)
(7.37632 0.00351741 0)
(7.37846 0.0028139 0)
(7.38065 0.00205289 0)
(7.38291 0.00122339 0)
(7.38523 0.000312588 0)
(7.38761 -0.000693288 0)
(7.39004 -0.00180786 0)
(7.39251 -0.0030395 0)
(7.33303 0.000750463 0)
(7.33338 0.00222869 0)
(7.33414 0.00359757 0)
(7.33521 0.00479306 0)
(7.33652 0.00579084 0)
(7.33801 0.00658758 0)
(7.33963 0.0071926 0)
(7.34133 0.00762507 0)
(7.34308 0.00790723 0)
(7.34487 0.00806047 0)
(7.34667 0.00810407 0)
(7.34849 0.00805456 0)
(7.35031 0.0079256 0)
(7.35214 0.00772815 0)
(7.35397 0.00747097 0)
(7.3558 0.00716085 0)
(7.35764 0.00680307 0)
(7.35948 0.00640158 0)
(7.36134 0.00595923 0)
(7.3632 0.00547792 0)
(7.36509 0.00495863 0)
(7.36699 0.00440144 0)
(7.36892 0.00380543 0)
(7.37088 0.00316856 0)
(7.37287 0.00248752 0)
(7.3749 0.00175751 0)
(7.37697 0.000972195 0)
(7.3791 0.000123594 0)
(7.38127 -0.000797698 0)
(7.38349 -0.00180209 0)
(7.38575 -0.00290026 0)
(7.38805 -0.00410243 0)
(7.39039 -0.00541392 0)
(7.33303 0.000655708 0)
(7.33335 0.00194312 0)
(7.33405 0.00313316 0)
(7.33505 0.00417464 0)
(7.33627 0.00504533 0)
(7.33767 0.00574026 0)
(7.33919 0.00626541 0)
(7.3408 0.00663508 0)
(7.34248 0.00686697 0)
(7.34419 0.00697873 0)
(7.34594 0.00698669 0)
(7.3477 0.00690511 0)
(7.34947 0.00674595 0)
(7.35125 0.00651897 0)
(7.35303 0.00623193 0)
(7.35482 0.00589094 0)
(7.35662 0.00550061 0)
(7.35843 0.00506434 0)
(7.36024 0.00458447 0)
(7.36207 0.00406237 0)
(7.36391 0.00349848 0)
(7.36577 0.00289238 0)
(7.36766 0.00224265 0)
(7.36956 0.00154689 0)
(7.3715 0.000801546 0)
(7.37347 1.91141e-06 0)
(7.37547 -0.000857945 0)
(7.37751 -0.00178507 0)
(7.37959 -0.00278739 0)
(7.3817 -0.00387333 0)
(7.38385 -0.00505118 0)
(7.38603 -0.0063287 0)
(7.38822 -0.00770916 0)
(7.33303 0.000564455 0)
(7.33333 0.00167049 0)
(7.33398 0.0026907 0)
(7.33491 0.0035834 0)
(7.33604 0.00432869 0)
(7.33735 0.00492058 0)
(7.33879 0.0053625 0)
(7.34032 0.00566496 0)
(7.34192 0.00584185 0)
(7.34357 0.00590755 0)
(7.34525 0.0058757 0)
(7.34696 0.00575845 0)
(7.34868 0.00556611 0)
(7.35041 0.00530716 0)
(7.35215 0.00498842 0)
(7.3539 0.00461517 0)
(7.35565 0.00419139 0)
(7.35741 0.00371991 0)
(7.35919 0.00320252 0)
(7.36097 0.00264012 0)
(7.36277 0.0020327 0)
(7.36458 0.00137942 0)
(7.36641 0.000678546 0)
(7.36826 -7.25603e-05 0)
(7.37013 -0.000877467 0)
(7.37203 -0.00174066 0)
(7.37396 -0.00266752 0)
(7.37591 -0.00366419 0)
(7.37789 -0.00473728 0)
(7.3799 -0.00589358 0)
(7.38192 -0.00713957 0)
(7.38397 -0.00848119 0)
(7.38602 -0.00992029 0)
(7.33303 0.000476776 0)
(7.33331 0.00140974 0)
(7.33391 0.00226781 0)
(7.33477 0.00301646 0)
(7.33584 0.00363807 0)
(7.33707 0.00412612 0)
(7.33843 0.00448213 0)
(7.33989 0.00471366 0)
(7.34142 0.00483143 0)
(7.343 0.00484702 0)
(7.34462 0.00477166 0)
(7.34627 0.0046155 0)
(7.34794 0.00438729 0)
(7.34962 0.00409427 0)
(7.35131 0.00374225 0)
(7.35301 0.00333569 0)
(7.35472 0.00287792 0)
(7.35644 0.00237117 0)
(7.35817 0.00181674 0)
(7.3599 0.00121508 0)
(7.36165 0.000565805 0)
(7.3634 -0.000132258 0)
(7.36518 -0.000881051 0)
(7.36696 -0.00168329 0)
(7.36877 -0.00254244 0)
(7.37059 -0.00346269 0)
(7.37243 -0.00444884 0)
(7.3743 -0.00550614 0)
(7.37617 -0.0066401 0)
(7.37807 -0.00785617 0)
(7.37997 -0.00915944 0)
(7.38189 -0.0105545 0)
(7.3838 -0.0120422 0)
(7.33302 0.000392538 0)
(7.33329 0.00115977 0)
(7.33385 0.00186233 0)
(7.33466 0.0024712 0)
(7.33566 0.00297087 0)
(7.33681 0.00335469 0)
(7.3381 0.00362278 0)
(7.33949 0.0037804 0)
(7.34096 0.0038357 0)
(7.34248 0.00379782 0)
(7.34404 0.00367585 0)
(7.34563 0.00347812 0)
(7.34724 0.00321187 0)
(7.34888 0.00288312 0)
(7.35052 0.00249668 0)
(7.35217 0.00205622 0)
(7.35384 0.00156437 0)
(7.35551 0.0010228 0)
(7.35718 0.000432338 0)
(7.35886 -0.000206984 0)
(7.36055 -0.00089587 0)
(7.36225 -0.00163572 0)
(7.36396 -0.00242861 0)
(7.36568 -0.00327724 0)
(7.36741 -0.0041849 0)
(7.36916 -0.00515541 0)
(7.37091 -0.00619298 0)
(7.37268 -0.0073021 0)
(7.37445 -0.00848733 0)
(7.37623 -0.00975304 0)
(7.37801 -0.0111032 0)
(7.3798 -0.0125415 0)
(7.38157 -0.0140679 0)
(7.33302 0.000311501 0)
(7.33327 0.000919496 0)
(7.3338 0.00147227 0)
(7.33455 0.00194513 0)
(7.33549 0.00232448 0)
(7.33659 0.00260381 0)
(7.33781 0.00278223 0)
(7.33913 0.00286329 0)
(7.34053 0.00285304 0)
(7.34199 0.00275858 0)
(7.3435 0.0025871 0)
(7.34504 0.00234529 0)
(7.3466 0.00203899 0)
(7.34818 0.00167305 0)
(7.34978 0.00125131 0)
(7.35138 0.000776629 0)
(7.35299 0.000250972 0)
(7.35461 -0.000324545 0)
(7.35623 -0.000949557 0)
(7.35786 -0.0016244 0)
(7.35949 -0.00235005 0)
(7.36113 -0.00312809 0)
(7.36277 -0.00396065 0)
(7.36442 -0.00485035 0)
(7.36607 -0.00580028 0)
(7.36773 -0.00681387 0)
(7.36939 -0.0078948 0)
(7.37106 -0.00904688 0)
(7.37272 -0.0102738 0)
(7.37439 -0.0115792 0)
(7.37605 -0.0129662 0)
(7.3777 -0.0144374 0)
(7.37934 -0.0159926 0)
(7.33302 0.00023338 0)
(7.33325 0.000687915 0)
(7.33375 0.00109591 0)
(7.33446 0.0014362 0)
(7.33534 0.00169697 0)
(7.33638 0.00187206 0)
(7.33755 0.00195998 0)
(7.33881 0.00196295 0)
(7.34015 0.00188529 0)
(7.34156 0.00173233 0)
(7.34301 0.00150962 0)
(7.34449 0.00122228 0)
(7.346 0.000874874 0)
(7.34753 0.000471123 0)
(7.34908 1.39241e-05 0)
(7.35063 -0.00049464 0)
(7.35219 -0.00105326 0)
(7.35376 -0.00166134 0)
(7.35532 -0.00231895 0)
(7.35689 -0.00302674 0)
(7.35846 -0.00378592 0)
(7.36004 -0.00459818 0)
(7.36161 -0.00546567 0)
(7.36318 -0.00639091 0)
(7.36475 -0.00737674 0)
(7.36632 -0.00842622 0)
(7.36789 -0.00954255 0)
(7.36945 -0.0107289 0)
(7.37101 -0.0119885 0)
(7.37256 -0.0133239 0)
(7.37409 -0.0147378 0)
(7.37561 -0.0162322 0)
(7.37711 -0.0178064 0)
(7.33302 0.000157869 0)
(7.33324 0.000463989 0)
(7.3337 0.000731361 0)
(7.33437 0.000941697 0)
(7.33521 0.00108472 0)
(7.3362 0.00115483 0)
(7.33731 0.00115023 0)
(7.33852 0.00107239 0)
(7.33981 0.000924314 0)
(7.34116 0.000709912 0)
(7.34255 0.000433296 0)
(7.34399 9.83424e-05 0)
(7.34545 -0.000291656 0)
(7.34693 -0.00073403 0)
(7.34843 -0.0012268 0)
(7.34993 -0.00176865 0)
(7.35144 -0.00235893 0)
(7.35295 -0.00299757 0)
(7.35446 -0.00368506 0)
(7.35596 -0.00442237 0)
(7.35747 -0.00521092 0)
(7.35897 -0.0060525 0)
(7.36047 -0.00694925 0)
(7.36197 -0.00790358 0)
(7.36345 -0.0089181 0)
(7.36493 -0.00999553 0)
(7.3664 -0.0111387 0)
(7.36786 -0.0123502 0)
(7.36931 -0.0136326 0)
(7.37074 -0.0149881 0)
(7.37215 -0.0164188 0)
(7.37354 -0.0179261 0)
(7.3749 -0.019509 0)
(7.33302 8.47016e-05 0)
(7.33323 0.000247033 0)
(7.33367 0.000377922 0)
(7.3343 0.000461687 0)
(7.33509 0.000489665 0)
(7.33603 0.000456937 0)
(7.33709 0.00036167 0)
(7.33825 0.000204137 0)
(7.33949 -1.35604e-05 0)
(7.34079 -0.000288792 0)
(7.34214 -0.000618804 0)
(7.34353 -0.00100096 0)
(7.34494 -0.0014331 0)
(7.34637 -0.00191351 0)
(7.34782 -0.00244104 0)
(7.34927 -0.00301509 0)
(7.35072 -0.00363558 0)
(7.35218 -0.0043029 0)
(7.35363 -0.00501788 0)
(7.35508 -0.00578177 0)
(7.35652 -0.00659613 0)
(7.35795 -0.00746281 0)
(7.35937 -0.00838393 0)
(7.36078 -0.00936174 0)
(7.36218 -0.0103986 0)
(7.36357 -0.011497 0)
(7.36494 -0.0126593 0)
(7.3663 -0.0138878 0)
(7.36763 -0.0151845 0)
(7.36894 -0.0165512 0)
(7.37023 -0.0179894 0)
(7.37149 -0.0195004 0)
(7.37272 -0.0210826 0)
(7.33302 1.35264e-05 0)
(7.33321 3.54551e-05 0)
(7.33363 3.15134e-05 0)
(7.33423 -1.21344e-05 0)
(7.33499 -0.00010257 0)
(7.33589 -0.000243447 0)
(7.33691 -0.000435893 0)
(7.33802 -0.000679568 0)
(7.33921 -0.000972827 0)
(7.34047 -0.00131388 0)
(7.34177 -0.001701 0)
(7.34311 -0.00213277 0)
(7.34448 -0.00260807 0)
(7.34586 -0.00312625 0)
(7.34726 -0.0036871 0)
(7.34866 -0.00429083 0)
(7.35006 -0.00493802 0)
(7.35146 -0.00562964 0)
(7.35285 -0.00636694 0)
(7.35423 -0.00715147 0)
(7.3556 -0.007985 0)
(7.35696 -0.00886947 0)
(7.35831 -0.009807 0)
(7.35964 -0.0107997 0)
(7.36095 -0.0118499 0)
(7.36225 -0.0129596 0)
(7.36352 -0.014131 0)
(7.36477 -0.015366 0)
(7.36599 -0.0166663 0)
(7.36719 -0.0180332 0)
(7.36835 -0.0194678 0)
(7.36949 -0.0209712 0)
(7.37059 -0.0225416 0)
(7.33302 -5.55506e-05 0)
(7.3332 -0.000168664 0)
(7.3336 -0.000300282 0)
(7.33417 -0.000462088 0)
(7.33489 -0.000659944 0)
(7.33575 -0.000897246 0)
(7.33673 -0.00117575 0)
(7.33781 -0.00149559 0)
(7.33896 -0.00185636 0)
(7.34017 -0.00225725 0)
(7.34144 -0.00269747 0)
(7.34274 -0.00317638 0)
(7.34406 -0.00369367 0)
(7.3454 -0.00424936 0)
(7.34675 -0.00484384 0)
(7.3481 -0.00547779 0)
(7.34945 -0.00615225 0)
(7.35079 -0.0068685 0)
(7.35212 -0.00762805 0)
(7.35344 -0.00843263 0)
(7.35474 -0.00928411 0)
(7.35603 -0.0101845 0)
(7.3573 -0.0111357 0)
(7.35855 -0.01214 0)
(7.35977 -0.0131992 0)
(7.36098 -0.0143155 0)
(7.36215 -0.0154904 0)
(7.36329 -0.0167258 0)
(7.36441 -0.0180229 0)
(7.36549 -0.0193829 0)
(7.36653 -0.0208066 0)
(7.36754 -0.0222947 0)
(7.36851 -0.0238454 0)
(7.33302 -0.000123829 0)
(7.33319 -0.000375062 0)
(7.33357 -0.000645836 0)
(7.33412 -0.000945983 0)
(7.33482 -0.00127716 0)
(7.33565 -0.00163835 0)
(7.3366 -0.00202815 0)
(7.33764 -0.00244536 0)
(7.33875 -0.00288942 0)
(7.33993 -0.00336032 0)
(7.34115 -0.00385856 0)
(7.34241 -0.00438507 0)
(7.34369 -0.00494107 0)
(7.34498 -0.00552801 0)
(7.34628 -0.00614752 0)
(7.34758 -0.00680138 0)
(7.34888 -0.00749148 0)
(7.35017 -0.00821979 0)
(7.35144 -0.00898836 0)
(7.3527 -0.00979929 0)
(7.35393 -0.0106547 0)
(7.35515 -0.0115566 0)
(7.35634 -0.0125072 0)
(7.35751 -0.0135084 0)
(7.35864 -0.0145622 0)
(7.35975 -0.0156703 0)
(7.36083 -0.0168342 0)
(7.36187 -0.0180554 0)
(7.36287 -0.0193349 0)
(7.36384 -0.0206737 0)
(7.36477 -0.0220722 0)
(7.36565 -0.023531 0)
(7.36649 -0.0250481 0)
(7.33301 -0.00018699 0)
(7.33317 -0.000553108 0)
(7.33352 -0.00092333 0)
(7.33404 -0.00130968 0)
(7.33471 -0.00171771 0)
(7.33551 -0.00215003 0)
(7.33643 -0.00260752 0)
(7.33745 -0.00308981 0)
(7.33854 -0.00359621 0)
(7.33969 -0.00412633 0)
(7.34089 -0.00468023 0)
(7.34212 -0.00525843 0)
(7.34337 -0.00586188 0)
(7.34463 -0.00649192 0)
(7.34589 -0.00715014 0)
(7.34714 -0.00783839 0)
(7.34839 -0.00855863 0)
(7.34963 -0.00931297 0)
(7.35084 -0.0101036 0)
(7.35204 -0.0109326 0)
(7.35321 -0.0118023 0)
(7.35435 -0.0127148 0)
(7.35547 -0.013672 0)
(7.35655 -0.0146761 0)
(7.3576 -0.0157288 0)
(7.35862 -0.0168318 0)
(7.35959 -0.0179865 0)
(7.36053 -0.0191941 0)
(7.36143 -0.0204556 0)
(7.36229 -0.0217717 0)
(7.3631 -0.023143 0)
(7.36386 -0.0245696 0)
(7.36458 -0.0260498 0)
(7.33302 -0.000260913 0)
(7.33319 -0.000799918 0)
(7.33355 -0.00136922 0)
(7.33406 -0.00196493 0)
(7.33471 -0.00257228 0)
(7.33548 -0.00317985 0)
(7.33637 -0.00378251 0)
(7.33735 -0.00437948 0)
(7.33841 -0.00497271 0)
(7.33953 -0.00556566 0)
(7.34068 -0.00616256 0)
(7.34187 -0.00676784 0)
(7.34308 -0.00738587 0)
(7.3443 -0.00802079 0)
(7.34552 -0.00867647 0)
(7.34673 -0.00935647 0)
(7.34792 -0.0100641 0)
(7.34911 -0.0108024 0)
(7.35026 -0.0115741 0)
(7.3514 -0.012382 0)
(7.35251 -0.0132284 0)
(7.35358 -0.0141155 0)
(7.35462 -0.0150454 0)
(7.35563 -0.01602 0)
(7.3566 -0.0170409 0)
(7.35752 -0.0181095 0)
(7.35841 -0.0192272 0)
(7.35925 -0.0203948 0)
(7.36005 -0.0216132 0)
(7.3608 -0.0228827 0)
(7.3615 -0.0242037 0)
(7.36215 -0.0255762 0)
(7.36275 -0.0269984 0)
(7.333 -0.000287728 0)
(7.3331 -0.000820319 0)
(7.33338 -0.00134157 0)
(7.33384 -0.00188736 0)
(7.33447 -0.00246914 0)
(7.33525 -0.00308445 0)
(7.33616 -0.00372578 0)
(7.33716 -0.00438519 0)
(7.33824 -0.00505677 0)
(7.33937 -0.00573703 0)
(7.34053 -0.00642458 0)
(7.34171 -0.00711962 0)
(7.34291 -0.00782354 0)
(7.3441 -0.00853849 0)
(7.34529 -0.00926711 0)
(7.34647 -0.0100123 0)
(7.34762 -0.0107771 0)
(7.34876 -0.0115645 0)
(7.34986 -0.0123774 0)
(7.35094 -0.0132188 0)
(7.35198 -0.0140912 0)
(7.35298 -0.0149971 0)
(7.35395 -0.0159389 0)
(7.35488 -0.0169186 0)
(7.35576 -0.017938 0)
(7.3566 -0.0189988 0)
(7.35739 -0.0201024 0)
(7.35813 -0.0212497 0)
(7.35883 -0.0224416 0)
(7.35947 -0.0236787 0)
(7.36006 -0.0249614 0)
(7.3606 -0.0262896 0)
(7.36108 -0.0276619 0)
(7.33305 -0.000453467 0)
(7.33328 -0.00143053 0)
(7.33363 -0.00246369 0)
(7.33409 -0.00348761 0)
(7.33467 -0.00445092 0)
(7.33538 -0.00533706 0)
(7.3362 -0.00614984 0)
(7.33713 -0.00690025 0)
(7.33814 -0.00760151 0)
(7.33921 -0.00826689 0)
(7.34033 -0.00890871 0)
(7.34147 -0.00953777 0)
(7.34262 -0.0101633 0)
(7.34378 -0.010793 0)
(7.34493 -0.0114334 0)
(7.34607 -0.01209 0)
(7.34719 -0.0127672 0)
(7.34828 -0.0134689 0)
(7.34934 -0.0141985 0)
(7.35036 -0.0149587 0)
(7.35135 -0.0157521 0)
(7.3523 -0.0165807 0)
(7.3532 -0.0174465 0)
(7.35406 -0.018351 0)
(7.35487 -0.0192954 0)
(7.35563 -0.0202811 0)
(7.35634 -0.0213087 0)
(7.357 -0.0223789 0)
(7.35761 -0.0234922 0)
(7.35816 -0.0246487 0)
(7.35865 -0.0258484 0)
(7.35908 -0.0270913 0)
(7.35946 -0.0283754 0)
(7.33293 -0.000204317 0)
(7.33282 -0.000520811 0)
(7.33295 -0.000892962 0)
(7.33339 -0.00144865 0)
(7.33407 -0.00217685 0)
(7.33493 -0.00301918 0)
(7.33591 -0.00392299 0)
(7.33698 -0.00485139 0)
(7.3381 -0.00578117 0)
(7.33926 -0.00669892 0)
(7.34043 -0.00759826 0)
(7.3416 -0.00847767 0)
(7.34276 -0.00933872 0)
(7.34392 -0.0101848 0)
(7.34505 -0.0110204 0)
(7.34615 -0.0118502 0)
(7.34722 -0.0126791 0)
(7.34826 -0.013512 0)
(7.34926 -0.0143532 0)
(7.35023 -0.015207 0)
(7.35114 -0.0160771 0)
(7.35201 -0.0169669 0)
(7.35284 -0.0178795 0)
(7.35361 -0.0188174 0)
(7.35434 -0.0197829 0)
(7.35501 -0.0207781 0)
(7.35563 -0.0218044 0)
(7.35619 -0.0228633 0)
(7.35669 -0.0239557 0)
(7.35714 -0.0250822 0)
(7.35753 -0.0262434 0)
(7.35786 -0.0274394 0)
(7.35812 -0.0286691 0)
(7.33316 -0.00089823 0)
(7.33361 -0.00297019 0)
(7.3339 -0.00500469 0)
(7.33415 -0.00674319 0)
(7.33452 -0.00813946 0)
(7.33508 -0.00925556 0)
(7.33581 -0.0101607 0)
(7.33669 -0.0109122 0)
(7.33767 -0.0115563 0)
(7.33872 -0.0121297 0)
(7.33983 -0.0126602 0)
(7.34096 -0.0131683 0)
(7.3421 -0.0136695 0)
(7.34324 -0.0141748 0)
(7.34437 -0.0146923 0)
(7.34546 -0.015228 0)
(7.34653 -0.0157865 0)
(7.34756 -0.0163709 0)
(7.34855 -0.016984 0)
(7.34949 -0.0176276 0)
(7.35039 -0.0183034 0)
(7.35123 -0.0190125 0)
(7.35202 -0.0197559 0)
(7.35276 -0.0205345 0)
(7.35343 -0.0213487 0)
(7.35405 -0.0221991 0)
(7.35461 -0.0230859 0)
(7.35511 -0.0240091 0)
(7.35555 -0.0249689 0)
(7.35593 -0.0259649 0)
(7.35624 -0.0269968 0)
(7.35649 -0.0280644 0)
(7.35667 -0.029166 0)
(7.33266 0.000501769 0)
(7.33187 0.00168551 0)
(7.33188 0.00225224 0)
(7.33256 0.00186692 0)
(7.33357 0.000841024 0)
(7.33472 -0.000506371 0)
(7.33592 -0.00198073 0)
(7.33716 -0.00347775 0)
(7.33839 -0.00493911 0)
(7.3396 -0.00633343 0)
(7.34079 -0.00764822 0)
(7.34196 -0.00888252 0)
(7.34309 -0.0100416 0)
(7.34419 -0.0111339 0)
(7.34525 -0.0121691 0)
(7.34627 -0.0131572 0)
(7.34725 -0.0141079 0)
(7.34818 -0.01503 0)
(7.34907 -0.0159316 0)
(7.34991 -0.0168199 0)
(7.3507 -0.017701 0)
(7.35144 -0.0185807 0)
(7.35213 -0.0194636 0)
(7.35276 -0.0203538 0)
(7.35333 -0.0212548 0)
(7.35385 -0.0221697 0)
(7.35431 -0.0231007 0)
(7.35471 -0.02405 0)
(7.35504 -0.0250191 0)
(7.35532 -0.0260093 0)
(7.35553 -0.0270213 0)
(7.35568 -0.0280559 0)
(7.35576 -0.0291122 0)
(7.33352 -0.00205108 0)
(7.3344 -0.00693442 0)
(7.33398 -0.0114714 0)
(7.33324 -0.0143259 0)
(7.333 -0.0159988 0)
(7.33328 -0.0169864 0)
(7.33393 -0.0175439 0)
(7.33482 -0.0178431 0)
(7.33588 -0.0180019 0)
(7.33704 -0.0180965 0)
(7.33826 -0.0181749 0)
(7.3395 -0.0182662 0)
(7.34074 -0.0183877 0)
(7.34196 -0.0185487 0)
(7.34315 -0.018754 0)
(7.34429 -0.0190052 0)
(7.34539 -0.0193027 0)
(7.34643 -0.0196455 0)
(7.34742 -0.0200323 0)
(7.34835 -0.0204618 0)
(7.34922 -0.0209325 0)
(7.35003 -0.0214428 0)
(7.35077 -0.0219916 0)
(7.35145 -0.0225777 0)
(7.35206 -0.0231998 0)
(7.35261 -0.023857 0)
(7.35309 -0.0245484 0)
(7.35351 -0.025273 0)
(7.35385 -0.02603 0)
(7.35413 -0.0268185 0)
(7.35435 -0.0276377 0)
(7.35449 -0.0284871 0)
(7.35457 -0.0293647 0)
(7.33179 0.00337584 0)
(7.32901 0.00916213 0)
(7.32948 0.0117545 0)
(7.33177 0.0114374 0)
(7.33381 0.00929954 0)
(7.33552 0.00656044 0)
(7.33705 0.00372056 0)
(7.33843 0.00096508 0)
(7.33968 -0.00160535 0)
(7.34085 -0.00394863 0)
(7.34194 -0.00606216 0)
(7.34299 -0.00796132 0)
(7.344 -0.00966856 0)
(7.34497 -0.0112086 0)
(7.34591 -0.0126059 0)
(7.34682 -0.013883 0)
(7.3477 -0.0150601 0)
(7.34854 -0.0161548 0)
(7.34935 -0.0171826 0)
(7.35013 -0.0181565 0)
(7.35086 -0.0190877 0)
(7.35155 -0.0199859 0)
(7.3522 -0.0208591 0)
(7.35279 -0.0217142 0)
(7.35333 -0.0225569 0)
(7.35382 -0.0233921 0)
(7.35426 -0.0242239 0)
(7.35463 -0.0250556 0)
(7.35495 -0.0258899 0)
(7.3552 -0.0267292 0)
(7.35539 -0.0275751 0)
(7.35552 -0.0284289 0)
(7.35559 -0.029291 0)
(7.33408 -0.00614843 0)
(7.33402 -0.0190226 0)
(7.33024 -0.0271185 0)
(7.32655 -0.0306725 0)
(7.32495 -0.0314681 0)
(7.32515 -0.0310663 0)
(7.32617 -0.0301353 0)
(7.32761 -0.0289966 0)
(7.32931 -0.0278484 0)
(7.33116 -0.0267947 0)
(7.33307 -0.0258798 0)
(7.33499 -0.0251182 0)
(7.33689 -0.024509 0)
(7.33875 -0.0240432 0)
(7.34055 -0.0237083 0)
(7.34229 -0.0234907 0)
(7.34397 -0.0233772 0)
(7.34557 -0.0233559 0)
(7.3471 -0.023416 0)
(7.34854 -0.023548 0)
(7.34992 -0.0237438 0)
(7.35121 -0.0239965 0)
(7.35242 -0.0243001 0)
(7.35355 -0.0246498 0)
(7.3546 -0.0250413 0)
(7.35557 -0.025471 0)
(7.35645 -0.0259359 0)
(7.35725 -0.0264333 0)
(7.35797 -0.026961 0)
(7.35861 -0.0275171 0)
(7.35917 -0.0280999 0)
(7.35965 -0.0287081 0)
(7.36005 -0.0293395 0)
(7.32967 0.0198499 0)
(7.32497 0.0369754 0)
(7.3293 0.0376579 0)
(7.33508 0.0322313 0)
(7.33869 0.0258022 0)
(7.34083 0.0194701 0)
(7.3426 0.0135449 0)
(7.3443 0.00823264 0)
(7.346 0.00357944 0)
(7.34777 -0.000461135 0)
(7.34963 -0.00395807 0)
(7.35158 -0.00698284 0)
(7.35358 -0.00960439 0)
(7.35564 -0.0118853 0)
(7.35771 -0.0138799 0)
(7.3598 -0.0156349 0)
(7.36187 -0.0171897 0)
(7.36391 -0.0185774 0)
(7.36591 -0.0198258 0)
(7.36786 -0.0209582 0)
(7.36974 -0.0219941 0)
(7.37156 -0.02295 0)
(7.3733 -0.0238394 0)
(7.37496 -0.0246738 0)
(7.37653 -0.0254631 0)
(7.37801 -0.0262152 0)
(7.3794 -0.0269372 0)
(7.38069 -0.0276349 0)
(7.38189 -0.0283132 0)
(7.383 -0.0289763 0)
(7.384 -0.0296279 0)
(7.38491 -0.0302707 0)
(7.38572 -0.0309082 0)
(7.32507 -0.0330913 0)
(7.29737 -0.0588007 0)
(7.27804 -0.0617627 0)
(7.27372 -0.0594228 0)
(7.28034 -0.0559563 0)
(7.29178 -0.0519363 0)
(7.30503 -0.0480141 0)
(7.31875 -0.0445258 0)
(7.33218 -0.0415214 0)
(7.34491 -0.0389832 0)
(7.35677 -0.0368744 0)
(7.36772 -0.0351434 0)
(7.37776 -0.0337364 0)
(7.38692 -0.0326042 0)
(7.39527 -0.0317034 0)
(7.40286 -0.0309967 0)
(7.40975 -0.0304527 0)
(7.416 -0.0300454 0)
(7.42165 -0.029753 0)
(7.42676 -0.0295575 0)
(7.43137 -0.0294444 0)
(7.43551 -0.0294015 0)
(7.43922 -0.0294188 0)
(7.44254 -0.0294881 0)
(7.44549 -0.0296024 0)
(7.44809 -0.0297562 0)
(7.45038 -0.0299448 0)
(7.45238 -0.030164 0)
(7.4541 -0.0304106 0)
(7.45556 -0.0306815 0)
(7.45678 -0.0309743 0)
(7.45778 -0.0312865 0)