/*--------------------------------*- C++ -*----------------------------------*\
  =========                 |
  \\      /  F ield         | OpenFOAM: The Open Source CFD Toolbox
   \\    /   O peration     | Website:  https://openfoam.org
    \\  /    A nd           | Version:  10
     \\/     M anipulation  |
\*---------------------------------------------------------------------------*/
FoamFile
{
    format      ascii;
    class       surfaceScalarField;
    location    "0.025";
    object      phi;
}
// * * * * * * * * * * * * * * * * * * * * * * * * * * * * * * * * * * * * * //

dimensions      [0 3 -1 0 0 0 0];

internalField   nonuniform List<scalar> 
13452
(
4.01958e-05
2.00727e-05
2.59453e-05
1.42505e-05
1.85519e-05
7.39335e-06
1.51923e-05
3.35961e-06
1.37934e-05
1.3989e-06
1.3104e-05
6.89419e-07
1.26717e-05
4.32332e-07
1.23447e-05
3.26988e-07
1.20736e-05
2.71074e-07
1.18468e-05
2.26851e-07
1.16603e-05
1.86479e-07
1.15107e-05
1.496e-07
1.13942e-05
1.16453e-07
1.13073e-05
8.69541e-08
1.12466e-05
6.06923e-08
1.12096e-05
3.69579e-08
1.11945e-05
1.51165e-08
1.11998e-05
-5.34096e-09
1.1224e-05
-2.4119e-08
1.12664e-05
-4.24776e-08
1.13265e-05
-6.00848e-08
1.14044e-05
-7.79209e-08
1.15005e-05
-9.60893e-08
1.16152e-05
-1.14664e-07
1.17491e-05
-1.33861e-07
1.1903e-05
-1.53907e-07
1.20784e-05
-1.754e-07
1.22764e-05
-1.98033e-07
1.25016e-05
-2.25155e-07
1.27517e-05
-2.50186e-07
1.30526e-05
-3.00837e-07
1.33511e-05
-2.98523e-07
-5.91693e-07
1.39428e-05
6.59056e-05
1.61574e-05
6.191e-05
1.82461e-05
5.56678e-05
1.36356e-05
4.9825e-05
9.20243e-06
4.53607e-05
5.86319e-06
4.21853e-05
3.86481e-06
3.99223e-05
2.6953e-06
3.82733e-05
1.97604e-06
3.70333e-05
1.51099e-06
3.60722e-05
1.188e-06
3.53101e-05
9.48546e-07
3.46974e-05
7.62362e-07
3.42017e-05
6.12153e-07
3.38013e-05
4.87269e-07
3.34813e-05
3.8073e-07
3.32307e-05
2.87581e-07
3.30415e-05
2.04346e-07
3.29075e-05
1.286e-07
3.2825e-05
5.84107e-08
3.27912e-05
-8.72181e-09
3.28031e-05
-7.19426e-08
3.28589e-05
-1.33754e-07
3.29576e-05
-1.94751e-07
3.30985e-05
-2.55553e-07
3.32813e-05
-3.16735e-07
3.35064e-05
-3.78957e-07
3.37742e-05
-4.43203e-07
3.40861e-05
-5.09982e-07
3.44439e-05
-5.82915e-07
3.48532e-05
-6.59512e-07
3.53158e-05
-7.6342e-07
3.58854e-05
-8.68071e-07
-1.11315e-06
3.64068e-05
6.91818e-05
1.07371e-05
7.25122e-05
1.49156e-05
7.30764e-05
1.30714e-05
7.17216e-05
1.05573e-05
6.95049e-05
8.07982e-06
6.71629e-05
6.20683e-06
6.49786e-05
4.8796e-06
6.30428e-05
3.91185e-06
6.13663e-05
3.18752e-06
5.99275e-05
2.6268e-06
5.86979e-05
2.17813e-06
5.76502e-05
1.81008e-06
5.67602e-05
1.50212e-06
5.60075e-05
1.23996e-06
5.53751e-05
1.01318e-06
5.48488e-05
8.13878e-07
5.4417e-05
6.36068e-07
5.40705e-05
4.7517e-07
5.38014e-05
3.27493e-07
5.36027e-05
1.89964e-07
5.34704e-05
6.0365e-08
5.34015e-05
-6.48536e-08
5.33937e-05
-1.86991e-07
5.34442e-05
-3.06019e-07
5.35505e-05
-4.22999e-07
5.37106e-05
-5.39139e-07
5.39233e-05
-6.5585e-07
5.41877e-05
-7.74363e-07
5.45025e-05
-8.97792e-07
5.48696e-05
-1.02654e-06
5.52794e-05
-1.1733e-06
5.57389e-05
-1.3275e-06
-1.53247e-06
5.61582e-05
6.88462e-05
7.47398e-06
7.2162e-05
1.15998e-05
7.45384e-05
1.0695e-05
7.59525e-05
9.14326e-06
7.65387e-05
7.49357e-06
7.66157e-05
6.12986e-06
7.63924e-05
5.10286e-06
7.59953e-05
4.30893e-06
7.55058e-05
3.67707e-06
7.49732e-05
3.15935e-06
7.4429e-05
2.72239e-06
7.38938e-05
2.34525e-06
7.3382e-05
2.01396e-06
7.29035e-05
1.71848e-06
7.24648e-05
1.45189e-06
7.20698e-05
1.20888e-06
7.17207e-05
9.85157e-07
7.14186e-05
7.77246e-07
7.11638e-05
5.82239e-07
7.09562e-05
3.97588e-07
7.0795e-05
2.21621e-07
7.06776e-05
5.24983e-08
7.06026e-05
-1.11985e-07
7.05687e-05
-2.72119e-07
7.05752e-05
-4.29518e-07
7.06213e-05
-5.85259e-07
7.0706e-05
-7.40538e-07
7.08281e-05
-8.96463e-07
7.09855e-05
-1.05515e-06
7.11762e-05
-1.21724e-06
7.13909e-05
-1.38802e-06
7.16252e-05
-1.56182e-06
-1.74548e-06
7.18382e-05
6.95594e-05
5.37133e-06
7.18377e-05
9.32152e-06
7.35409e-05
8.99173e-06
7.48127e-05
7.87153e-06
7.5706e-05
6.60021e-06
7.63587e-05
5.4772e-06
7.68573e-05
4.60424e-06
7.72442e-05
3.92204e-06
7.75479e-05
3.37335e-06
7.77874e-05
2.91984e-06
7.79761e-05
2.53377e-06
7.81245e-05
2.19685e-06
7.82409e-05
1.89747e-06
7.83319e-05
1.62757e-06
7.8403e-05
1.38073e-06
7.84598e-05
1.15204e-06
7.85071e-05
9.37873e-07
7.8549e-05
7.35413e-07
7.85888e-05
5.42426e-07
7.86293e-05
3.5704e-07
7.8673e-05
1.77926e-07
7.872e-05
5.55699e-09
7.87704e-05
-1.62458e-07
7.88247e-05
-3.26406e-07
7.88834e-05
-4.88154e-07
7.89466e-05
-6.48476e-07
7.90143e-05
-8.08248e-07
7.9086e-05
-9.68191e-07
7.91603e-05
-1.12941e-06
7.9235e-05
-1.29192e-06
7.9304e-05
-1.45703e-06
7.93617e-05
-1.6196e-06
-1.77773e-06
7.9394e-05
7.08409e-05
3.9145e-06
7.26302e-05
7.53215e-06
7.39406e-05
7.68134e-06
7.48757e-05
6.93647e-06
7.55115e-05
5.96436e-06
7.59671e-05
5.02159e-06
7.63293e-05
4.24203e-06
7.66383e-05
3.61306e-06
7.69142e-05
3.09742e-06
7.71668e-05
2.66728e-06
7.74001e-05
2.30047e-06
7.76162e-05
1.98073e-06
7.78169e-05
1.69682e-06
7.80037e-05
1.44078e-06
7.81777e-05
1.20673e-06
7.83396e-05
9.90108e-07
7.84901e-05
7.87376e-07
7.86298e-05
5.95749e-07
7.87592e-05
4.13028e-07
7.88788e-05
2.37374e-07
7.89892e-05
6.75105e-08
7.90926e-05
-9.77932e-08
7.91905e-05
-2.6033e-07
7.92841e-05
-4.20012e-07
7.93736e-05
-5.77712e-07
7.94592e-05
-7.34054e-07
7.95406e-05
-8.89607e-07
7.96171e-05
-1.04475e-06
7.96876e-05
-1.1999e-06
7.97502e-05
-1.35455e-06
7.98014e-05
-1.50823e-06
7.98383e-05
-1.65643e-06
-1.79593e-06
7.98565e-05
7.23895e-05
2.89136e-06
7.3844e-05
6.07763e-06
7.49758e-05
6.54955e-06
7.57999e-05
6.1124e-06
7.63657e-05
5.39855e-06
7.67569e-05
4.63039e-06
7.70497e-05
3.94917e-06
7.72863e-05
3.37652e-06
7.74898e-05
2.89393e-06
7.76734e-05
2.4836e-06
7.78442e-05
2.12968e-06
7.80058e-05
1.81916e-06
7.81602e-05
1.54243e-06
7.83086e-05
1.29239e-06
7.84517e-05
1.06358e-06
7.85901e-05
8.5175e-07
7.87239e-05
6.53523e-07
7.88535e-05
4.66203e-07
7.89789e-05
2.8761e-07
7.91004e-05
1.15919e-07
7.92182e-05
-5.0364e-08
7.9333e-05
-2.12573e-07
7.94446e-05
-3.71952e-07
7.95535e-05
-5.28833e-07
7.96595e-05
-6.83759e-07
7.97627e-05
-8.37236e-07
7.98627e-05
-9.89637e-07
7.99591e-05
-1.14109e-06
8.00507e-05
-1.29156e-06
8.01364e-05
-1.44023e-06
8.0214e-05
-1.58587e-06
8.02823e-05
-1.72474e-06
-1.85368e-06
8.03401e-05
7.41259e-05
2.17073e-06
7.52954e-05
4.90813e-06
7.62807e-05
5.56426e-06
7.7038e-05
5.35504e-06
7.75905e-05
4.84611e-06
7.79874e-05
4.23344e-06
7.82866e-05
3.65002e-06
7.85254e-05
3.13774e-06
7.87263e-05
2.69304e-06
7.89033e-05
2.30656e-06
7.90647e-05
1.96822e-06
7.92155e-05
1.66842e-06
7.93585e-05
1.3994e-06
7.94958e-05
1.15509e-06
7.96287e-05
9.30723e-07
7.9758e-05
7.22444e-07
7.98844e-05
5.27139e-07
8.00083e-05
3.42285e-07
8.01301e-05
1.65814e-07
8.025e-05
-4.0015e-09
8.03682e-05
-1.68552e-07
8.04847e-05
-3.29072e-07
8.05994e-05
-4.86621e-07
8.07122e-05
-6.41711e-07
8.08233e-05
-7.94797e-07
8.09323e-05
-9.46278e-07
8.10391e-05
-1.09638e-06
8.11431e-05
-1.24509e-06
8.12436e-05
-1.39208e-06
8.13398e-05
-1.53646e-06
8.14307e-05
-1.6768e-06
8.15162e-05
-1.81017e-06
-1.93402e-06
8.15965e-05
7.60173e-05
1.65588e-06
7.69557e-05
3.96971e-06
7.78078e-05
4.71216e-06
7.84939e-05
4.66894e-06
7.90205e-05
4.31952e-06
7.94161e-05
3.83782e-06
7.97229e-05
3.34323e-06
7.99722e-05
2.88849e-06
8.01835e-05
2.48175e-06
8.03696e-05
2.12047e-06
8.05385e-05
1.7993e-06
8.06952e-05
1.51168e-06
8.08431e-05
1.25158e-06
8.09841e-05
1.01402e-06
8.112e-05
7.94894e-07
8.12516e-05
5.9078e-07
8.13799e-05
3.98859e-07
8.15054e-05
2.1681e-07
8.16285e-05
4.27073e-08
8.17495e-05
-1.25046e-07
8.18687e-05
-2.87754e-07
8.19862e-05
-4.46535e-07
8.21019e-05
-6.02317e-07
8.22158e-05
-7.55677e-07
8.23281e-05
-9.07041e-07
8.24385e-05
-1.05672e-06
8.2547e-05
-1.20483e-06
8.26531e-05
-1.35125e-06
8.27566e-05
-1.49556e-06
8.2857e-05
-1.63688e-06
8.29542e-05
-1.77391e-06
8.30485e-05
-1.90448e-06
-2.0268e-06
8.31413e-05
7.80335e-05
1.28192e-06
7.87865e-05
3.21679e-06
7.95211e-05
3.97754e-06
8.01402e-05
4.04978e-06
8.06376e-05
3.82219e-06
8.10268e-05
3.44858e-06
8.13368e-05
3.03327e-06
8.15925e-05
2.63276e-06
8.18109e-05
2.26331e-06
8.20037e-05
1.92772e-06
8.21785e-05
1.62448e-06
8.23404e-05
1.34976e-06
8.24928e-05
1.09924e-06
8.26378e-05
8.68993e-07
8.27771e-05
6.55594e-07
8.29118e-05
4.56082e-07
8.30427e-05
2.67947e-07
8.31704e-05
8.90709e-08
8.32955e-05
-8.23245e-08
8.34181e-05
-2.4772e-07
8.35387e-05
-4.08342e-07
8.36574e-05
-5.65224e-07
8.37743e-05
-7.192e-07
8.38895e-05
-8.70836e-07
8.40029e-05
-1.02051e-06
8.41147e-05
-1.16848e-06
8.42247e-05
-1.31479e-06
8.43327e-05
-1.45928e-06
8.44387e-05
-1.60155e-06
8.45426e-05
-1.74084e-06
8.46448e-05
-1.87611e-06
8.47462e-05
-2.00585e-06
-2.12897e-06
8.48484e-05
8.01551e-05
1.00513e-06
8.0761e-05
2.6109e-06
8.13938e-05
3.34474e-06
8.19518e-05
3.49182e-06
8.24185e-05
3.35548e-06
8.27975e-05
3.06957e-06
8.31071e-05
2.72358e-06
8.3367e-05
2.37295e-06
8.35912e-05
2.03909e-06
8.379e-05
1.72889e-06
8.39706e-05
1.44389e-06
8.41378e-05
1.18257e-06
8.42948e-05
9.42174e-07
8.44441e-05
7.1977e-07
8.45871e-05
5.12594e-07
8.4725e-05
3.18138e-07
8.48588e-05
1.34196e-07
8.4989e-05
-4.1145e-08
8.51162e-05
-2.09503e-07
8.52407e-05
-3.72247e-07
8.53629e-05
-5.30522e-07
8.54829e-05
-6.85274e-07
8.5601e-05
-8.37254e-07
8.57171e-05
-9.87001e-07
8.58315e-05
-1.13488e-06
8.59441e-05
-1.28109e-06
8.6055e-05
-1.42569e-06
8.61642e-05
-1.56852e-06
8.62719e-05
-1.70924e-06
8.63784e-05
-1.84728e-06
8.64841e-05
-1.98188e-06
8.65904e-05
-2.11209e-06
-2.23734e-06
8.66987e-05
8.23696e-05
7.95963e-07
8.28595e-05
2.12097e-06
8.34041e-05
2.80019e-06
8.39058e-05
2.9901e-06
8.43416e-05
2.91965e-06
8.47083e-05
2.70294e-06
8.5016e-05
2.41588e-06
8.52788e-05
2.1101e-06
8.55083e-05
1.80962e-06
8.5713e-05
1.52416e-06
8.58994e-05
1.25752e-06
8.60719e-05
1.01003e-06
8.62338e-05
7.80294e-07
8.63873e-05
5.6628e-07
8.65341e-05
3.65857e-07
8.66752e-05
1.76953e-07
8.68118e-05
-2.33302e-09
8.69443e-05
-1.73704e-07
8.70734e-05
-3.38615e-07
8.71995e-05
-4.98325e-07
8.73229e-05
-6.53892e-07
8.74438e-05
-8.06188e-07
8.75625e-05
-9.55907e-07
8.7679e-05
-1.10356e-06
8.77936e-05
-1.24949e-06
8.79064e-05
-1.39389e-06
8.80176e-05
-1.53682e-06
8.81272e-05
-1.67817e-06
8.82357e-05
-1.81769e-06
8.83434e-05
-1.95499e-06
8.84511e-05
-2.08961e-06
8.856e-05
-2.22101e-06
-2.34902e-06
8.86717e-05
8.46692e-05
6.34505e-07
8.50681e-05
1.72209e-06
8.5537e-05
2.33126e-06
8.59879e-05
2.53926e-06
8.63936e-05
2.51396e-06
8.67461e-05
2.35037e-06
8.70497e-05
2.11232e-06
8.73137e-05
1.84607e-06
8.75471e-05
1.57628e-06
8.77568e-05
1.3144e-06
8.79485e-05
1.06582e-06
8.81262e-05
8.32318e-07
8.8293e-05
6.13592e-07
8.84508e-05
4.08431e-07
8.86014e-05
2.15266e-07
8.87459e-05
3.2427e-08
8.88853e-05
-1.417e-07
8.90202e-05
-3.08603e-07
8.91512e-05
-4.69597e-07
8.92787e-05
-6.2583e-07
8.94031e-05
-7.78275e-07
8.95246e-05
-9.27738e-07
8.96436e-05
-1.07486e-06
8.97601e-05
-1.22013e-06
8.98745e-05
-1.36388e-06
8.99869e-05
-1.5063e-06
9.00976e-05
-1.64747e-06
9.02068e-05
-1.78736e-06
9.03149e-05
-1.92581e-06
9.04225e-05
-2.06261e-06
9.05304e-05
-2.19751e-06
9.06397e-05
-2.33032e-06
-2.46109e-06
9.07518e-05
8.70495e-05
5.07194e-07
8.73771e-05
1.3945e-06
8.77817e-05
1.92658e-06
8.81868e-05
2.13421e-06
8.85635e-05
2.13722e-06
8.8901e-05
2.01293e-06
8.91988e-05
1.81446e-06
8.94627e-05
1.5822e-06
8.9699e-05
1.34003e-06
8.99131e-05
1.10022e-06
9.01098e-05
8.69144e-07
9.02925e-05
6.49599e-07
9.0464e-05
4.42166e-07
9.06261e-05
2.46292e-07
9.07805e-05
6.08968e-08
9.09282e-05
-1.1533e-07
9.10703e-05
-2.83741e-07
9.12073e-05
-4.45631e-07
9.13399e-05
-6.02178e-07
9.14685e-05
-7.54423e-07
9.15935e-05
-9.03261e-07
9.17152e-05
-1.04944e-06
9.18339e-05
-1.19356e-06
9.19498e-05
-1.33608e-06
9.20633e-05
-1.47734e-06
9.21745e-05
-1.61753e-06
9.22838e-05
-1.75678e-06
9.23915e-05
-1.89509e-06
9.24982e-05
-2.03243e-06
9.26043e-05
-2.16871e-06
9.27106e-05
-2.30387e-06
9.28182e-05
-2.43793e-06
-2.57107e-06
9.29282e-05
8.9508e-05
4.04715e-07
8.97798e-05
1.12269e-06
9.01304e-05
1.57602e-06
9.04948e-05
1.76982e-06
9.08444e-05
1.78762e-06
9.11664e-05
1.69089e-06
9.14575e-05
1.52342e-06
9.17199e-05
1.31973e-06
9.1958e-05
1.10197e-06
9.21757e-05
8.82487e-07
9.23767e-05
6.68135e-07
9.2564e-05
4.6235e-07
9.27398e-05
2.66352e-07
9.2906e-05
8.01117e-08
9.30639e-05
-9.70532e-08
9.32147e-05
-2.66145e-07
9.33593e-05
-4.28285e-07
9.34982e-05
-5.84596e-07
9.36322e-05
-7.36133e-07
9.37616e-05
-8.8384e-07
9.38869e-05
-1.02854e-06
9.40084e-05
-1.17094e-06
9.41264e-05
-1.31159e-06
9.42413e-05
-1.45094e-06
9.43533e-05
-1.58931e-06
9.44627e-05
-1.72694e-06
9.45698e-05
-1.86395e-06
9.46752e-05
-2.00043e-06
9.47791e-05
-2.13641e-06
9.48823e-05
-2.27191e-06
9.49855e-05
-2.40699e-06
9.50893e-05
-2.54181e-06
-2.67657e-06
9.51948e-05
9.2044e-05
3.20571e-07
9.22722e-05
8.94494e-07
9.25776e-05
1.27064e-06
9.29062e-05
1.44117e-06
9.32308e-05
1.46303e-06
9.35377e-05
1.38404e-06
9.38212e-05
1.23988e-06
9.40814e-05
1.05956e-06
9.43204e-05
8.62932e-07
9.45411e-05
6.61858e-07
9.47459e-05
4.63255e-07
9.49374e-05
2.70879e-07
9.51174e-05
8.63623e-08
9.52875e-05
-8.99523e-08
9.54488e-05
-2.58438e-07
9.56026e-05
-4.19852e-07
9.57494e-05
-5.75131e-07
9.58901e-05
-7.25252e-07
9.60251e-05
-8.71161e-07
9.6155e-05
-1.01372e-06
9.62801e-05
-1.1537e-06
9.64009e-05
-1.29174e-06
9.65177e-05
-1.42838e-06
9.66308e-05
-1.56405e-06
9.67406e-05
-1.69907e-06
9.68473e-05
-1.83367e-06
9.69514e-05
-1.96804e-06
9.70532e-05
-2.10228e-06
9.71533e-05
-2.23649e-06
9.72522e-05
-2.37075e-06
9.73504e-05
-2.5052e-06
9.74486e-05
-2.64006e-06
-2.77552e-06
9.75476e-05
9.46576e-05
2.5015e-07
9.48517e-05
7.00418e-07
9.51196e-05
1.00264e-06
9.54173e-05
1.14352e-06
9.57193e-05
1.16101e-06
9.60117e-05
1.09162e-06
9.62876e-05
9.64022e-07
9.65449e-05
8.02217e-07
9.67843e-05
6.23532e-07
9.70073e-05
4.38904e-07
9.72156e-05
2.54986e-07
9.74108e-05
7.55819e-08
9.75947e-05
-9.74777e-08
9.77684e-05
-2.63617e-07
9.79329e-05
-4.22998e-07
9.80893e-05
-5.76202e-07
9.82382e-05
-7.24019e-07
9.83802e-05
-8.67316e-07
9.8516e-05
-1.00695e-06
9.8646e-05
-1.14371e-06
9.87706e-05
-1.27832e-06
9.88902e-05
-1.41138e-06
9.90053e-05
-1.54341e-06
9.9116e-05
-1.67481e-06
9.92229e-05
-1.80592e-06
9.93262e-05
-1.93697e-06
9.94263e-05
-2.06816e-06
9.95237e-05
-2.19963e-06
9.96187e-05
-2.33149e-06
9.97118e-05
-2.46389e-06
9.98036e-05
-2.59696e-06
9.98944e-05
-2.73096e-06
-2.866e-06
9.99849e-05
9.73496e-05
1.90109e-07
9.7517e-05
5.32999e-07
9.77543e-05
7.65296e-07
9.80255e-05
8.72361e-07
9.83075e-05
8.78984e-07
9.85867e-05
8.12489e-07
9.88551e-05
6.95622e-07
9.91093e-05
5.47925e-07
9.93487e-05
3.84139e-07
9.95736e-05
2.14008e-07
9.9785e-05
4.36618e-08
9.99838e-05
-1.23275e-07
0.000100171
-2.84951e-07
0.000100348
-4.40694e-07
0.000100516
-5.90552e-07
0.000100675
-7.34996e-07
0.000100825
-8.74721e-07
0.000100969
-1.01051e-06
0.000101105
-1.14316e-06
0.000101235
-1.27342e-06
0.000101358
-1.40195e-06
0.000101476
-1.52934e-06
0.000101589
-1.65607e-06
0.000101697
-1.78256e-06
0.0001018
-1.90911e-06
0.000101899
-2.03597e-06
0.000101994
-2.16334e-06
0.000102086
-2.29137e-06
0.000102174
-2.42019e-06
0.00010226
-2.54995e-06
0.000102344
-2.68078e-06
0.000102426
-2.81292e-06
-2.9464e-06
0.000102507
0.000100121
1.3796e-07
0.000100268
3.86332e-07
0.00010048
5.52764e-07
0.000100729
6.23436e-07
0.000100994
6.14198e-07
0.000101261
5.45145e-07
0.000101523
4.3403e-07
0.000101774
2.96505e-07
0.000102014
1.44801e-07
0.000102241
-1.26911e-08
0.000102455
-1.70557e-07
0.000102657
-3.25531e-07
0.000102848
-4.75901e-07
0.000103028
-6.21023e-07
0.000103199
-7.60923e-07
0.00010336
-8.96032e-07
0.000103512
-1.027e-06
0.000103656
-1.15456e-06
0.000103792
-1.27948e-06
0.000103921
-1.40245e-06
0.000104044
-1.52414e-06
0.000104159
-1.64509e-06
0.000104269
-1.76579e-06
0.000104373
-1.88661e-06
0.000104472
-2.00787e-06
0.000104566
-2.12981e-06
0.000104655
-2.25262e-06
0.00010474
-2.37645e-06
0.000104821
-2.50143e-06
0.000104899
-2.62767e-06
0.000104974
-2.7553e-06
0.000105045
-2.8845e-06
-3.0152e-06
0.000105114
0.000102974
9.18071e-08
0.000103105
2.55688e-07
0.000103298
3.59995e-07
0.000103528
3.92736e-07
0.000103779
3.63829e-07
0.000104036
2.87795e-07
0.000104292
1.78239e-07
0.000104541
4.7451e-08
0.00010478
-9.47021e-08
0.000105009
-2.41257e-07
0.000105226
-3.87654e-07
0.000105432
-5.31128e-07
0.000105626
-6.70243e-07
0.000105809
-8.04492e-07
0.000105983
-9.33968e-07
0.000106146
-1.05913e-06
0.000106299
-1.18062e-06
0.000106444
-1.29918e-06
0.00010658
-1.41554e-06
0.000106708
-1.53041e-06
0.000106828
-1.64441e-06
0.000106941
-1.7581e-06
0.000107047
-1.87193e-06
0.000107147
-1.98627e-06
0.000107241
-2.10143e-06
0.000107328
-2.21763e-06
0.000107411
-2.33506e-06
0.000107488
-2.45384e-06
0.000107561
-2.57409e-06
0.000107629
-2.69588e-06
0.000107693
-2.8193e-06
0.000107753
-2.94446e-06
-3.07121e-06
0.000107809
0.00010591
5.01549e-08
0.000106029
1.372e-07
0.000106206
1.82561e-07
0.000106423
1.7645e-07
0.000106661
1.24948e-07
0.000106911
3.83482e-08
0.000107162
-7.31551e-08
0.00010741
-2.00162e-07
0.00010765
-3.34987e-07
0.000107881
-4.72116e-07
0.000108101
-6.07932e-07
0.00010831
-7.40285e-07
0.000108508
-8.68126e-07
0.000108695
-9.91186e-07
0.000108871
-1.1097e-06
0.000109036
-1.22423e-06
0.000109191
-1.33545e-06
0.000109336
-1.44415e-06
0.000109471
-1.55107e-06
0.000109598
-1.65691e-06
0.000109716
-1.76232e-06
0.000109825
-1.86782e-06
0.000109927
-1.97387e-06
0.000110022
-2.08083e-06
0.000110109
-2.18899e-06
0.00011019
-2.29856e-06
0.000110265
-2.40969e-06
0.000110334
-2.52251e-06
0.000110397
-2.63707e-06
0.000110454
-2.75343e-06
0.000110506
-2.87158e-06
0.000110554
-2.9916e-06
-3.11322e-06
0.000110596
0.000108932
1.1785e-08
0.000109041
2.76302e-08
0.000109207
1.65177e-08
0.000109413
-2.90669e-08
0.000109643
-1.05458e-07
0.000109887
-2.0552e-07
0.000110136
-3.21855e-07
0.000110383
-4.47548e-07
0.000110625
-5.76911e-07
0.000110859
-7.05864e-07
0.000111083
-8.31798e-07
0.000111296
-9.53267e-07
0.000111497
-1.0697e-06
0.000111687
-1.18116e-06
0.000111866
-1.2881e-06
0.000112033
-1.39122e-06
0.000112189
-1.49132e-06
0.000112334
-1.58922e-06
0.000112468
-1.68573e-06
0.000112593
-1.78157e-06
0.000112708
-1.87738e-06
0.000112814
-1.9737e-06
0.000112911
-2.07099e-06
0.000113
-2.1696e-06
0.000113081
-2.26979e-06
0.000113154
-2.37177e-06
0.00011322
-2.47566e-06
0.000113279
-2.58154e-06
0.000113331
-2.68943e-06
0.000113377
-2.79934e-06
0.000113417
-2.91121e-06
0.00011345
-3.02504e-06
-3.14049e-06
0.000113477
0.000112041
-2.4349e-08
0.000112144
-7.58447e-08
0.000112302
-1.41765e-07
0.000112501
-2.27415e-07
0.000112726
-3.30594e-07
0.000112967
-4.46514e-07
0.000113215
-5.70067e-07
0.000113464
-6.96489e-07
0.000113709
-8.21918e-07
0.000113947
-9.43684e-07
0.000114175
-1.06022e-06
0.000114393
-1.17086e-06
0.000114599
-1.2756e-06
0.000114793
-1.3749e-06
0.000114974
-1.46951e-06
0.000115143
-1.56032e-06
0.0001153
-1.64829e-06
0.000115445
-1.73434e-06
0.000115579
-1.81933e-06
0.000115701
-1.90406e-06
0.000115813
-1.98916e-06
0.000115914
-2.07522e-06
0.000116006
-2.16267e-06
0.000116088
-2.25186e-06
0.000116162
-2.34304e-06
0.000116226
-2.43639e-06
0.000116283
-2.532e-06
0.000116331
-2.62992e-06
0.000116372
-2.73013e-06
0.000116405
-2.83256e-06
0.000116431
-2.93712e-06
0.000116449
-3.04371e-06
-3.15191e-06
0.000116461
0.000115239
-5.91648e-08
0.000115339
-1.7577e-07
0.000115493
-2.95701e-07
0.000115688
-4.22154e-07
0.000115911
-5.53764e-07
0.000116152
-6.87505e-07
0.000116402
-8.20172e-07
0.000116655
-9.48898e-07
0.000116904
-1.07152e-06
0.000117147
-1.18674e-06
0.000117381
-1.29409e-06
0.000117604
-1.39373e-06
0.000117815
-1.4863e-06
0.000118012
-1.57271e-06
0.000118197
-1.65409e-06
0.000118368
-1.73157e-06
0.000118526
-1.8063e-06
0.000118671
-1.87934e-06
0.000118804
-1.95164e-06
0.000118924
-2.02406e-06
0.000119032
-2.09728e-06
0.000119128
-2.17189e-06
0.000119214
-2.24834e-06
0.000119289
-2.32698e-06
0.000119354
-2.40805e-06
0.00011941
-2.49169e-06
0.000119455
-2.57797e-06
0.000119492
-2.66689e-06
0.000119521
-2.75839e-06
0.000119541
-2.85236e-06
0.000119552
-2.94863e-06
0.000119555
-3.04707e-06
-3.14718e-06
0.000119551
0.00011853
-9.35494e-08
0.000118629
-2.74623e-07
0.000118782
-4.48763e-07
0.000118977
-6.17137e-07
0.000119202
-7.78819e-07
0.000119447
-9.32131e-07
0.000119702
-1.07549e-06
0.000119961
-1.20773e-06
0.000120218
-1.3283e-06
0.000120468
-1.43728e-06
0.00012071
-1.53531e-06
0.000120939
-1.62346e-06
0.000121156
-1.70307e-06
0.000121359
-1.77561e-06
0.000121547
-1.8426e-06
0.000121721
-1.90549e-06
0.000121881
-1.96565e-06
0.000122026
-2.02432e-06
0.000122157
-2.08257e-06
0.000122274
-2.14132e-06
0.000122378
-2.20132e-06
0.000122469
-2.26319e-06
0.000122548
-2.32738e-06
0.000122616
-2.39424e-06
0.000122671
-2.464e-06
0.000122717
-2.53678e-06
0.000122751
-2.61261e-06
0.000122776
-2.69145e-06
0.000122791
-2.77321e-06
0.000122796
-2.8577e-06
0.000122792
-2.94471e-06
0.000122779
-3.03402e-06
-3.12508e-06
0.000122757
0.000121916
-1.28372e-07
0.000122016
-3.74844e-07
0.000122172
-6.04401e-07
0.000122371
-8.16203e-07
0.000122602
-1.00955e-06
0.000122854
-1.18387e-06
0.000123117
-1.33906e-06
0.000123385
-1.47557e-06
0.000123651
-1.59441e-06
0.000123911
-1.69705e-06
0.000124161
-1.78532e-06
0.000124399
-1.86122e-06
0.000124622
-1.92686e-06
0.000124831
-1.98433e-06
0.000125024
-2.03559e-06
0.000125201
-2.08248e-06
0.000125362
-2.12661e-06
0.000125507
-2.16941e-06
0.000125637
-2.21211e-06
0.000125751
-2.25572e-06
0.000125851
-2.30106e-06
0.000125936
-2.34877e-06
0.000126008
-2.39935e-06
0.000126067
-2.45313e-06
0.000126114
-2.51032e-06
0.000126148
-2.57104e-06
0.000126171
-2.63528e-06
0.000126182
-2.70297e-06
0.000126183
-2.77396e-06
0.000126173
-2.84803e-06
0.000126153
-2.92492e-06
0.000126124
-3.00436e-06
-3.08577e-06
0.000126084
0.0001254
-1.64644e-07
0.000125504
-4.79288e-07
0.000125667
-7.66843e-07
0.000125875
-1.02441e-06
0.000126117
-1.25138e-06
0.000126381
-1.44821e-06
0.000126658
-1.61614e-06
0.00012694
-1.75725e-06
0.000127219
-1.87416e-06
0.000127492
-1.9698e-06
0.000127754
-2.04725e-06
0.000128003
-2.10957e-06
0.000128235
-2.15971e-06
0.000128451
-2.20043e-06
0.00012865
-2.23422e-06
0.000128831
-2.2633e-06
0.000128994
-2.28961e-06
0.000129139
-2.31479e-06
0.000129267
-2.34021e-06
0.000129379
-2.36701e-06
0.000129474
-2.39607e-06
0.000129553
-2.42809e-06
0.000129617
-2.46357e-06
0.000129667
-2.50285e-06
0.000129703
-2.54614e-06
0.000129725
-2.59353e-06
0.000129735
-2.64499e-06
0.000129732
-2.7004e-06
0.000129718
-2.75956e-06
0.000129692
-2.82223e-06
0.000129655
-2.88806e-06
0.000129608
-2.95673e-06
-3.02759e-06
0.00012955
0.000128984
-2.03332e-07
0.000129095
-5.90731e-07
0.000129268
-9.39988e-07
0.00012949
-1.24607e-06
0.000129747
-1.5086e-06
0.000130028
-1.72911e-06
0.000130322
-1.91032e-06
0.000130621
-2.056e-06
0.000130917
-2.17045e-06
0.000131206
-2.25813e-06
0.000131482
-2.32346e-06
0.000131743
-2.37062e-06
0.000131987
-2.40348e-06
0.000132212
-2.42553e-06
0.000132417
-2.43985e-06
0.000132603
-2.44911e-06
0.000132769
-2.45557e-06
0.000132916
-2.46112e-06
0.000133043
-2.46732e-06
0.000133151
-2.47543e-06
0.000133241
-2.48642e-06
0.000133314
-2.50103e-06
0.000133371
-2.51978e-06
0.000133411
-2.54304e-06
0.000133436
-2.571e-06
0.000133446
-2.60371e-06
0.000133442
-2.64114e-06
0.000133425
-2.68314e-06
0.000133395
-2.72947e-06
0.000133352
-2.77984e-06
0.000133298
-2.83387e-06
0.000133233
-2.89124e-06
-2.95123e-06
0.000133156
0.000132672
-2.46143e-07
0.000132795
-7.13842e-07
0.000132986
-1.13087e-06
0.00013323
-1.48976e-06
0.000133511
-1.7905e-06
0.000133818
-2.03587e-06
0.000134138
-2.23028e-06
0.000134462
-2.37949e-06
0.000134781
-2.48978e-06
0.00013509
-2.56737e-06
0.000135385
-2.61815e-06
0.000135662
-2.64759e-06
0.000135919
-2.66055e-06
0.000136155
-2.66133e-06
0.000136369
-2.65362e-06
0.00013656
-2.64057e-06
0.000136729
-2.6248e-06
0.000136877
-2.60845e-06
0.000137003
-2.59327e-06
0.000137108
-2.58063e-06
0.000137193
-2.5716e-06
0.000137259
-2.56696e-06
0.000137306
-2.56726e-06
0.000137336
-2.57287e-06
0.000137349
-2.58397e-06
0.000137346
-2.6006e-06
0.000137328
-2.6227e-06
0.000137294
-2.65008e-06
0.000137247
-2.68247e-06
0.000137187
-2.71952e-06
0.000137114
-2.76082e-06
0.000137029
-2.80595e-06
-2.85413e-06
0.000136932
0.000136466
-2.93928e-07
0.000136604
-8.51544e-07
0.000136816
-1.34329e-06
0.000137086
-1.75946e-06
0.000137396
-2.1011e-06
0.000137733
-2.37267e-06
0.000138083
-2.58049e-06
0.000138437
-2.7325e-06
0.000138784
-2.83711e-06
0.000139119
-2.90247e-06
0.000139437
-2.93615e-06
0.000139734
-2.94499e-06
0.000140009
-2.93502e-06
0.000140259
-2.91144e-06
0.000140484
-2.87863e-06
0.000140684
-2.84026e-06
0.000140858
-2.79936e-06
0.000141008
-2.75836e-06
0.000141134
-2.71919e-06
0.000141237
-2.68335e-06
0.000141317
-2.65201e-06
0.000141376
-2.62598e-06
0.000141415
-2.60585e-06
0.000141434
-2.59196e-06
0.000141434
-2.58452e-06
0.000141417
-2.58353e-06
0.000141384
-2.5889e-06
0.000141334
-2.60044e-06
0.000141269
-2.61783e-06
0.00014119
-2.64071e-06
0.000141098
-2.66864e-06
0.000140994
-2.70121e-06
-2.7376e-06
0.000140877
0.000140373
-3.51365e-07
0.000140537
-1.01513e-06
0.000140787
-1.59327e-06
0.000141101
-2.07325e-06
0.000141458
-2.45825e-06
0.00014184
-2.75539e-06
0.000142234
-2.97398e-06
0.000142626
-3.12507e-06
0.000143009
-3.21982e-06
0.000143375
-3.26861e-06
0.00014372
-3.2809e-06
0.00014404
-3.26503e-06
0.000144333
-3.22821e-06
0.000144598
-3.17655e-06
0.000144835
-3.11515e-06
0.000145043
-3.04821e-06
0.000145223
-2.97911e-06
0.000145375
-2.91058e-06
0.0001455
-2.84472e-06
0.0001456
-2.78318e-06
0.000145675
-2.72717e-06
0.000145727
-2.67755e-06
0.000145756
-2.63493e-06
0.000145764
-2.59965e-06
0.000145751
-2.57189e-06
0.000145719
-2.55165e-06
0.000145669
-2.53881e-06
0.000145602
-2.53313e-06
0.000145518
-2.53428e-06
0.000145419
-2.54186e-06
0.000145306
-2.55535e-06
0.000145179
-2.57428e-06
-2.59773e-06
0.000145039
0.00014439
-4.16305e-07
0.000144578
-1.20355e-06
0.000144864
-1.87978e-06
0.000145223
-2.43154e-06
0.00014563
-2.86538e-06
0.000146065
-3.19098e-06
0.000146512
-3.42062e-06
0.000146956
-3.56893e-06
0.000147387
-3.65036e-06
0.000147796
-3.67809e-06
0.000148179
-3.66387e-06
0.000148532
-3.61792e-06
0.000148853
-3.54891e-06
0.00014914
-3.46402e-06
0.000149394
-3.36917e-06
0.000149615
-3.26911e-06
0.000149803
-3.16765e-06
0.000149961
-3.06777e-06
0.000150088
-2.97175e-06
0.000150186
-2.88131e-06
0.000150256
-2.79773e-06
0.000150301
-2.72187e-06
0.00015032
-2.65433e-06
0.000150316
-2.59544e-06
0.000150289
-2.54534e-06
0.000150242
-2.504e-06
0.000150174
-2.47129e-06
0.000150088
-2.44696e-06
0.000149984
-2.43066e-06
0.000149865
-2.42199e-06
0.00014973
-2.42045e-06
0.000149581
-2.42559e-06
-2.43643e-06
0.00014942
0.00014854
-5.08197e-07
0.00014879
-1.45361e-06
0.000149156
-2.24572e-06
0.000149597
-2.87303e-06
0.000150084
-3.35204e-06
0.000150592
-3.69892e-06
0.000151103
-3.93149e-06
0.000151603
-4.06926e-06
0.000152083
-4.13025e-06
0.000152535
-4.13041e-06
0.000152955
-4.08374e-06
0.00015334
-4.00223e-06
0.000153687
-3.89589e-06
0.000153995
-3.77295e-06
0.000154266
-3.64011e-06
0.0001545
-3.50268e-06
0.000154697
-3.36485e-06
0.000154859
-3.22987e-06
0.000154988
-3.10018e-06
0.000155084
-2.9776e-06
0.00015515
-2.86341e-06
0.000155186
-2.75851e-06
0.000155195
-2.66344e-06
0.000155178
-2.57852e-06
0.000155137
-2.50384e-06
0.000155072
-2.43935e-06
0.000154986
-2.38487e-06
0.000154879
-2.34012e-06
0.000154753
-2.30474e-06
0.000154609
-2.27831e-06
0.000154449
-2.26028e-06
0.000154274
-2.25014e-06
-2.24682e-06
0.000154084
0.000152783
-6.02522e-07
0.00015307
-1.73981e-06
0.000153497
-2.67306e-06
0.000154022
-3.39755e-06
0.000154606
-3.93632e-06
0.000155216
-4.30947e-06
0.000155827
-4.5423e-06
0.00015642
-4.66203e-06
0.000156982
-4.69239e-06
0.000157505
-4.65361e-06
0.000157985
-4.56301e-06
0.000158417
-4.43498e-06
0.000158803
-4.28124e-06
0.000159141
-4.11122e-06
0.000159433
-3.93239e-06
0.000159681
-3.7506e-06
0.000159887
-3.57032e-06
0.000160052
-3.39494e-06
0.000160178
-3.22697e-06
0.000160269
-3.06818e-06
0.000160325
-2.91982e-06
0.00016035
-2.78268e-06
0.000160343
-2.65722e-06
0.000160309
-2.54365e-06
0.000160247
-2.442e-06
0.000160159
-2.35215e-06
0.000160048
-2.27388e-06
0.000159915
-2.20691e-06
0.000159761
-2.15092e-06
0.000159589
-2.10553e-06
0.000159399
-2.07027e-06
0.000159193
-2.04479e-06
-2.02792e-06
0.000158974
0.000157245
-7.96034e-07
0.000157692
-2.18711e-06
0.000158279
-3.25969e-06
0.000158938
-4.05645e-06
0.000159633
-4.63147e-06
0.000160336
-5.01212e-06
0.000161024
-5.23102e-06
0.000161684
-5.32156e-06
0.000162303
-5.31157e-06
0.000162874
-5.22492e-06
0.000163393
-5.08207e-06
0.000163858
-4.8998e-06
0.000164269
-4.69157e-06
0.000164625
-4.46808e-06
0.000164931
-4.23762e-06
0.000165187
-4.00652e-06
0.000165396
-3.77951e-06
0.000165561
-3.56005e-06
0.000165685
-3.35061e-06
0.000165769
-3.15287e-06
0.000165817
-2.9679e-06
0.000165831
-2.79636e-06
0.000165812
-2.63853e-06
0.000165763
-2.49449e-06
0.000165685
-2.36412e-06
0.00016558
-2.24721e-06
0.00016545
-2.14346e-06
0.000165296
-2.05256e-06
0.000165119
-1.9742e-06
0.000164921
-1.90805e-06
0.000164705
-1.85376e-06
0.000164471
-1.81108e-06
-1.77887e-06
0.000164222
0.000161691
-9.48903e-07
0.000162211
-2.70714e-06
0.000162947
-3.99494e-06
0.000163804
-4.91349e-06
0.000164706
-5.53358e-06
0.000165596
-5.90268e-06
0.000166446
-6.08063e-06
0.000167241
-6.11676e-06
0.000167976
-6.04657e-06
0.00016865
-5.89848e-06
0.000169263
-5.69528e-06
0.000169818
-5.45465e-06
0.000170316
-5.1903e-06
0.000170761
-4.91287e-06
0.000171154
-4.63049e-06
0.000171497
-4.34933e-06
0.000171791
-4.07399e-06
0.000172039
-3.80788e-06
0.000172242
-3.5534e-06
0.000172401
-3.31222e-06
0.000172519
-3.08539e-06
0.000172596
-2.87355e-06
0.000172634
-2.67698e-06
0.000172636
-2.49573e-06
0.000172601
-2.32967e-06
0.000172533
-2.17859e-06
0.000172431
-2.04223e-06
0.000172299
-1.92036e-06
0.000172138
-1.81287e-06
0.00017195
-1.71974e-06
0.000171737
-1.64123e-06
0.000171504
-1.57755e-06
-1.52855e-06
0.000171253
0.000166689
-1.48433e-06
0.000167545
-3.56332e-06
0.000168485
-4.93504e-06
0.000169501
-5.92883e-06
0.000170592
-6.62487e-06
0.000171738
-7.04894e-06
0.000172919
-7.26162e-06
0.000174111
-7.30877e-06
0.000175289