/*--------------------------------*- C++ -*----------------------------------*\
  =========                 |
  \\      /  F ield         | OpenFOAM: The Open Source CFD Toolbox
   \\    /   O peration     | Website:  https://openfoam.org
    \\  /    A nd           | Version:  10
     \\/     M anipulation  |
\*---------------------------------------------------------------------------*/
FoamFile
{
    format      ascii;
    class       volVectorField;
    location    "0.025";
    object      U;
}
// * * * * * * * * * * * * * * * * * * * * * * * * * * * * * * * * * * * * * //

dimensions      [0 1 -1 0 0 0 0];

internalField   nonuniform List<vector> 
6820
(
(5.57367 0.459108 0)
(3.88356 0.24586 0)
(2.59065 0.00872067 0)
(1.95984 -0.0643023 0)
(1.73587 -0.059653 0)
(1.62646 -0.0342129 0)
(1.56354 -0.0155515 0)
(1.52001 -0.00547139 0)
(1.48421 -0.000869548 0)
(1.45404 0.000639755 0)
(1.429 0.000695442 0)
(1.40865 0.000182967 0)
(1.39257 -0.000489929 0)
(1.38028 -0.00114407 0)
(1.37138 -0.00170718 0)
(1.36548 -0.002164 0)
(1.36235 -0.00249442 0)
(1.36179 -0.00278764 0)
(1.3636 -0.00313064 0)
(1.36766 -0.00335696 0)
(1.37389 -0.00346907 0)
(1.38227 -0.00359835 0)
(1.39283 -0.00377024 0)
(1.40563 -0.00396828 0)
(1.42071 -0.00418191 0)
(1.43818 -0.00440858 0)
(1.45812 -0.00467126 0)
(1.48087 -0.00495442 0)
(1.50616 -0.00541701 0)
(1.53602 -0.00566447 0)
(1.56579 -0.00742834 0)
(1.61292 -0.00358918 0)
(1.6246 -0.0349785 0)
(7.66981 0.863748 0)
(7.71776 0.890424 0)
(7.00187 0.597859 0)
(6.20131 0.346769 0)
(5.59051 0.17864 0)
(5.14898 0.091891 0)
(4.83574 0.051244 0)
(4.61143 0.0324405 0)
(4.44515 0.0236109 0)
(4.31771 0.0188942 0)
(4.21748 0.0158148 0)
(4.13722 0.0134275 0)
(4.07235 0.0113536 0)
(4.01982 0.00942584 0)
(3.97754 0.00755913 0)
(3.94401 0.00569817 0)
(3.91816 0.00381273 0)
(3.89916 0.00190052 0)
(3.88641 -9.00238e-05 0)
(3.87958 -0.00214686 0)
(3.87833 -0.00438186 0)
(3.88235 -0.00667275 0)
(3.89149 -0.00906211 0)
(3.90564 -0.0115903 0)
(3.92476 -0.0143097 0)
(3.94886 -0.0172647 0)
(3.97795 -0.0205221 0)
(4.01218 -0.024084 0)
(4.05164 -0.0282683 0)
(4.09695 -0.0326661 0)
(4.14786 -0.0395648 0)
(4.20824 -0.0453052 0)
(4.27483 -0.0629581 0)
(7.56352 0.520107 0)
(8.22528 0.662904 0)
(8.46556 0.574998 0)
(8.36613 0.456939 0)
(8.13274 0.342376 0)
(7.85926 0.257001 0)
(7.59347 0.196807 0)
(7.35519 0.153373 0)
(7.14775 0.121516 0)
(6.96926 0.0975304 0)
(6.81651 0.0789143 0)
(6.6862 0.0640752 0)
(6.57532 0.0519512 0)
(6.48132 0.0418112 0)
(6.40204 0.0331305 0)
(6.33571 0.02551 0)
(6.28086 0.018648 0)
(6.23629 0.0123212 0)
(6.20104 0.00636795 0)
(6.17429 0.000639361 0)
(6.15529 -0.00507813 0)
(6.14374 -0.0108171 0)
(6.13938 -0.0166914 0)
(6.14188 -0.0227262 0)
(6.15092 -0.028963 0)
(6.16626 -0.0354727 0)
(6.18769 -0.0423571 0)
(6.21512 -0.0497137 0)
(6.24839 -0.0578036 0)
(6.28756 -0.0666662 0)
(6.33235 -0.0776158 0)
(6.38219 -0.0898028 0)
(6.43577 -0.110039 0)
(7.43339 0.340887 0)
(7.88473 0.513829 0)
(8.24352 0.488343 0)
(8.44233 0.427836 0)
(8.54261 0.355837 0)
(8.57386 0.294403 0)
(8.56078 0.247372 0)
(8.52309 0.210853 0)
(8.4719 0.181813 0)
(8.41372 0.15797 0)
(8.35282 0.137713 0)
(8.29201 0.12006 0)
(8.23313 0.104378 0)
(8.17751 0.0902087 0)
(8.12607 0.0772289 0)
(8.07935 0.0651945 0)
(8.03768 0.0539061 0)
(8.00123 0.0431949 0)
(7.97008 0.0329036 0)
(7.9442 0.0228879 0)
(7.9236 0.0130716 0)
(7.90807 0.00325003 0)
(7.89733 -0.00670521 0)
(7.89123 -0.0168287 0)
(7.8897 -0.027193 0)
(7.89264 -0.037876 0)
(7.89996 -0.0489787 0)
(7.91153 -0.0606049 0)
(7.92718 -0.0729709 0)
(7.9467 -0.0861764 0)
(7.96958 -0.100883 0)
(7.99478 -0.116698 0)
(8.02144 -0.134952 0)
(7.39683 0.25081 0)
(7.68009 0.420359 0)
(7.92364 0.402737 0)
(8.07771 0.352103 0)
(8.18823 0.296612 0)
(8.27051 0.250038 0)
(8.3314 0.215055 0)
(8.37831 0.187972 0)
(8.41527 0.166019 0)
(8.44442 0.147524 0)
(8.46739 0.131368 0)
(8.48546 0.116864 0)
(8.49969 0.103576 0)
(8.51082 0.0911923 0)
(8.51948 0.0794739 0)
(8.5263 0.0682288 0)
(8.53185 0.0573052 0)
(8.53659 0.0465788 0)
(8.54095 0.0359473 0)
(8.54525 0.0253156 0)
(8.54977 0.0146119 0)
(8.55473 0.00379282 0)
(8.56 -0.00709048 0)
(8.56567 -0.0181781 0)
(8.5718 -0.0295778 0)
(8.57841 -0.0413675 0)
(8.58553 -0.0536291 0)
(8.59313 -0.0664415 0)
(8.60109 -0.0799341 0)
(8.60927 -0.094162 0)
(8.61722 -0.109365 0)
(8.62432 -0.125176 0)
(8.62964 -0.141657 0)
(7.37403 0.180445 0)
(7.57422 0.335374 0)
(7.76116 0.341007 0)
(7.87593 0.311185 0)
(7.95245 0.271284 0)
(8.00814 0.232283 0)
(8.04988 0.199959 0)
(8.0843 0.173755 0)
(8.11483 0.152172 0)
(8.14262 0.134042 0)
(8.16822 0.118389 0)
(8.19193 0.104483 0)
(8.21392 0.0918359 0)
(8.23436 0.0801113 0)
(8.25341 0.0690463 0)
(8.27115 0.058429 0)
(8.28765 0.0480961 0)
(8.30298 0.037919 0)
(8.31719 0.0277929 0)
(8.33034 0.0176272 0)
(8.3425 0.00735925 0)
(8.35369 -0.00304374 0)
(8.36431 -0.0135993 0)
(8.37442 -0.0244308 0)
(8.38409 -0.0355965 0)
(8.39335 -0.0471438 0)
(8.40218 -0.0591309 0)
(8.41055 -0.0716105 0)
(8.41835 -0.0846514 0)
(8.42545 -0.0982511 0)
(8.43155 -0.112439 0)
(8.43632 -0.126846 0)
(8.4393 -0.141196 0)
(7.35906 0.132505 0)
(7.5034 0.272362 0)
(7.65596 0.293612 0)
(7.75624 0.276194 0)
(7.8227 0.245873 0)
(7.87008 0.213106 0)
(7.90399 0.184428 0)
(7.93016 0.160565 0)
(7.95228 0.140511 0)
(7.97196 0.123373 0)
(7.99004 0.108392 0)
(8.00704 0.0949823 0)
(8.02323 0.0827256 0)
(8.03877 0.0713146 0)
(8.05373 0.060518 0)
(8.06819 0.0501563 0)
(8.08217 0.0400849 0)
(8.0957 0.0301838 0)
(8.1088 0.0203516 0)
(8.12148 0.0104972 0)
(8.13376 0.000554575 0)
(8.14571 -0.00957454 0)
(8.15734 -0.0200104 0)
(8.16866 -0.0307564 0)
(8.1797 -0.0418454 0)
(8.19045 -0.0533197 0)
(8.2009 -0.0652186 0)
(8.21101 -0.0775678 0)
(8.22069 -0.0903886 0)
(8.22985 -0.103642 0)
(8.23829 -0.117262 0)
(8.24584 -0.13093 0)
(8.25233 -0.144361 0)
(7.34965 0.0987876 0)
(7.4535 0.219699 0)
(7.57671 0.248909 0)
(7.66565 0.241498 0)
(7.72775 0.22105 0)
(7.77384 0.196 0)
(7.80773 0.172119 0)
(7.83371 0.151023 0)
(7.85517 0.132486 0)
(7.8738 0.116122 0)
(7.89055 0.101518 0)
(7.90605 0.0882775 0)
(7.92066 0.0760756 0)
(7.93463 0.0646604 0)
(7.9481 0.0538293 0)
(7.96117 0.0434137 0)
(7.97393 0.0332714 0)
(7.98643 0.0232825 0)
(7.99869 0.0133445 0)
(8.01076 0.00336772 0)
(8.02265 -0.00673444 0)
(8.03438 -0.0170315 0)
(8.04593 -0.0275808 0)
(8.05729 -0.0384053 0)
(8.06848 -0.0495453 0)
(8.07948 -0.0610404 0)
(8.09026 -0.0729219 0)
(8.1008 -0.0852047 0)
(8.11104 -0.0978853 0)
(8.12089 -0.110907 0)
(8.13026 -0.124166 0)
(8.13909 -0.137398 0)
(8.14735 -0.15035 0)
(7.34382 0.0748113 0)
(7.41927 0.177687 0)
(7.51821 0.211379 0)
(7.59578 0.211532 0)
(7.65255 0.198146 0)
(7.69632 0.178549 0)
(7.72981 0.158114 0)
(7.75611 0.139163 0)
(7.77803 0.122037 0)
(7.7971 0.106623 0)
(7.81419 0.0926803 0)
(7.8299 0.0799109 0)
(7.84463 0.0680494 0)
(7.85862 0.0568783 0)
(7.87203 0.0462174 0)
(7.885 0.0359151 0)
(7.89761 0.025844 0)
(7.90992 0.0158963 0)
(7.92199 0.00597919 0)
(7.93384 -0.00398942 0)
(7.9455 -0.0140778 0)
(7.95699 -0.0243495 0)
(7.96832 -0.0348711 0)
(7.97947 -0.0456873 0)
(7.99046 -0.056835 0)
(8.00127 -0.0683435 0)
(8.01191 -0.080231 0)
(8.02234 -0.0924976 0)
(8.03253 -0.105122 0)
(8.04244 -0.118041 0)
(8.05204 -0.131149 0)
(8.06133 -0.144243 0)
(8.07038 -0.157131 0)
(7.34017 0.057548 0)
(7.39558 0.143953 0)
(7.47484 0.17869 0)
(7.54193 0.183774 0)
(7.59341 0.175687 0)
(7.63454 0.160898 0)
(7.66715 0.144048 0)
(7.69332 0.127578 0)
(7.71532 0.112139 0)
(7.73452 0.0978358 0)
(7.75174 0.0846081 0)
(7.76753 0.0722966 0)
(7.78231 0.0607241 0)
(7.7963 0.0497294 0)
(7.8097 0.0391687 0)
(7.82261 0.0289147 0)
(7.83514 0.0188548 0)
(7.84734 0.00889022 0)
(7.85926 -0.00106723 0)
(7.87095 -0.011095 0)
(7.88243 -0.0212619 0)
(7.89373 -0.0316315 0)
(7.90485 -0.0422578 0)
(7.9158 -0.0531772 0)
(7.9266 -0.0644183 0)
(7.93723 -0.0760042 0)
(7.9477 -0.0879483 0)
(7.958 -0.100247 0)
(7.96811 -0.112878 0)
(7.97802 -0.125783 0)
(7.98775 -0.138874 0)
(7.99734 -0.152003 0)
(8.0069 -0.165043 0)
(7.33789 0.0448772 0)
(7.37909 0.116811 0)
(7.44263 0.150568 0)
(7.50037 0.158972 0)
(7.54683 0.154948 0)
(7.58516 0.144029 0)
(7.61652 0.130127 0)
(7.64227 0.115676 0)
(7.66416 0.101602 0)
(7.68339 0.0882215 0)
(7.70068 0.0756197 0)
(7.71655 0.0637431 0)
(7.73137 0.0524787 0)
(7.74539 0.0417038 0)
(7.75877 0.0312996 0)
(7.77165 0.0211546 0)
(7.7841 0.0111675 0)
(7.79621 0.00124694 0)
(7.80801 -0.00868784 0)
(7.81956 -0.0187087 0)
(7.83088 -0.0288797 0)
(7.84199 -0.0392575 0)
(7.85292 -0.0498917 0)
(7.86367 -0.0608216 0)
(7.87425 -0.0720783 0)
(7.88467 -0.0836844 0)
(7.89493 -0.0956511 0)
(7.90503 -0.107974 0)
(7.91499 -0.120632 0)
(7.92481 -0.13358 0)
(7.93454 -0.14675 0)
(7.94425 -0.160047 0)
(7.95404 -0.173398 0)
(7.33643 0.035394 0)
(7.36751 0.094912 0)
(7.41855 0.126359 0)
(7.46803 0.136591 0)
(7.50974 0.135381 0)
(7.54526 0.127436 0)
(7.57522 0.116054 0)
(7.60041 0.103513 0)
(7.62212 0.0908578 0)
(7.64133 0.0785138 0)
(7.65868 0.0666578 0)
(7.67461 0.0553142 0)
(7.68947 0.0444292 0)
(7.70351 0.0339221 0)
(7.71688 0.0237036 0)
(7.7297 0.0136837 0)
(7.74208 0.00377643 0)
(7.75408 -0.00609862 0)
(7.76575 -0.0160156 0)
(7.77713 -0.0260411 0)
(7.78825 -0.0362353 0)
(7.79915 -0.0466518 0)
(7.80984 -0.057337 0)
(7.82033 -0.0683277 0)
(7.83065 -0.0796518 0)
(7.84079 -0.0913288 0)
(7.85079 -0.103369 0)
(7.86064 -0.11577 0)
(7.87036 -0.128517 0)
(7.88 -0.14158 0)
(7.8896 -0.154917 0)
(7.89924 -0.168474 0)
(7.90904 -0.18222 0)
(7.33549 0.0281453 0)
(7.35928 0.0771307 0)
(7.40046 0.105516 0)
(7.44277 0.116488 0)
(7.48009 0.117197 0)
(7.51285 0.111543 0)
(7.54127 0.102256 0)
(7.56572 0.0913636 0)
(7.58711 0.0799432 0)
(7.6062 0.0685032 0)
(7.62352 0.0572978 0)
(7.63947 0.0464219 0)
(7.65436 0.0358758 0)
(7.6684 0.0256157 0)
(7.68176 0.0155779 0)
(7.69454 0.00569009 0)
(7.70684 -0.00412221 0)
(7.71873 -0.0139302 0)
(7.73026 -0.0238013 0)
(7.74147 -0.0337978 0)
(7.75239 -0.0439762 0)
(7.76306 -0.0543868 0)
(7.77349 -0.0650733 0)
(7.7837 -0.0760716 0)
(7.79372 -0.0874103 0)
(7.80356 -0.0991106 0)
(7.81323 -0.111185 0)
(7.82276 -0.123638 0)
(7.83218 -0.136464 0)
(7.84153 -0.149647 0)
(7.85086 -0.163169 0)
(7.86027 -0.177007 0)
(7.86983 -0.191162 0)
(7.33486 0.0224854 0)
(7.35337 0.062583 0)
(7.3868 0.0875513 0)
(7.42297 0.0984308 0)
(7.45626 0.100282 0)
(7.48636 0.0962634 0)
(7.51317 0.0886192 0)
(7.53677 0.0791183 0)
(7.55773 0.0688097 0)
(7.57662 0.0582408 0)
(7.59388 0.0477076 0)
(7.60982 0.0373481 0)
(7.62471 0.0271996 0)
(7.63874 0.0172464 0)
(7.65207 0.00744588 0)
(7.66479 -0.00225855 0)
(7.677 -0.0119295 0)
(7.68876 -0.0216302 0)
(7.70013 -0.0314215 0)
(7.71114 -0.0413607 0)
(7.72183 -0.0515008 0)
(7.73223 -0.0618893 0)
(7.74237 -0.0725681 0)
(7.75226 -0.0835724 0)
(7.76193 -0.0949308 0)
(7.77141 -0.106665 0)
(7.7807 -0.118791 0)
(7.78985 -0.131317 0)
(7.79889 -0.144245 0)
(7.80785 -0.157576 0)
(7.81679 -0.171307 0)
(7.8258 -0.185441 0)
(7.83494 -0.199999 0)
(7.33444 0.0179728 0)
(7.34906 0.0505672 0)
(7.37642 0.0720175 0)
(7.40739 0.0821992 0)
(7.43705 0.0845876 0)
(7.46466 0.0816798 0)
(7.48986 0.0753022 0)
(7.51252 0.0669557 0)
(7.53296 0.0576121 0)
(7.55157 0.0478212 0)
(7.56868 0.0378998 0)
(7.58456 0.0280161 0)
(7.59941 0.0182379 0)
(7.6134 0.00857427 0)
(7.62667 -0.000998165 0)
(7.63932 -0.0105216 0)
(7.65142 -0.0200472 0)
(7.66303 -0.0296302 0)
(7.67422 -0.0393259 0)
(7.68501 -0.0491876 0)
(7.69545 -0.059265 0)
(7.70556 -0.0696036 0)
(7.71538 -0.0802437 0)
(7.72493 -0.0912204 0)
(7.73423 -0.102563 0)
(7.7433 -0.114296 0)
(7.75218 -0.126437 0)
(7.76088 -0.139003 0)
(7.76946 -0.152005 0)
(7.77794 -0.165453 0)
(7.78639 -0.17936 0)
(7.79487 -0.193746 0)
(7.80342 -0.208643 0)
(7.33414 0.0143018 0)
(7.34589 0.0405333 0)
(7.36849 0.0585229 0)
(7.3951 0.0675823 0)
(7.42155 0.0700242 0)
(7.44684 0.0677745 0)
(7.47047 0.0623032 0)
(7.49216 0.0548623 0)
(7.51201 0.0463249 0)
(7.53028 0.037221 0)
(7.54721 0.0278712 0)
(7.56297 0.0184586 0)
(7.57775 0.00906944 0)
(7.59168 -0.000270638 0)
(7.60488 -0.00957183 0)
(7.61743 -0.0188656 0)
(7.6294 -0.0281956 0)
(7.64085 -0.0376109 0)
(7.65183 -0.0471623 0)
(7.66239 -0.0568996 0)
(7.67255 -0.0668701 0)
(7.68235 -0.0771177 0)
(7.69182 -0.0876819 0)
(7.70098 -0.0985978 0)
(7.70986 -0.109896 0)
(7.71849 -0.121602 0)
(7.72689 -0.133739 0)
(7.73509 -0.146326 0)
(7.74314 -0.159382 0)
(7.75106 -0.172925 0)
(7.7589 -0.186978 0)
(7.76673 -0.201571 0)
(7.77456 -0.21674 0)
(7.33393 0.0112571 0)
(7.34353 0.0320507 0)
(7.3624 0.0467231 0)
(7.38539 0.0543737 0)
(7.40903 0.056492 0)
(7.43222 0.0545299 0)
(7.45436 0.0496568 0)
(7.47506 0.0429008 0)
(7.4943 0.0350231 0)
(7.51219 0.0265134 0)
(7.52888 0.0176802 0)
(7.5445 0.0087084 0)
(7.55917 -0.000306278 0)
(7.57301 -0.0093273 0)
(7.58611 -0.0183548 0)
(7.59853 -0.0274117 0)
(7.61035 -0.0365345 0)
(7.62162 -0.045767 0)
(7.63239 -0.0551556 0)
(7.64268 -0.0647472 0)
(7.65255 -0.074587 0)
(7.66201 -0.0847172 0)
(7.6711 -0.0951769 0)
(7.67985 -0.106001 0)
(7.68828 -0.117221 0)
(7.69642 -0.128865 0)
(7.7043 -0.140959 0)
(7.71195 -0.153526 0)
(7.7194 -0.166589 0)
(7.72668 -0.180173 0)
(7.73384 -0.194306 0)
(7.74091 -0.209027 0)
(7.74793 -0.224368 0)
(7.33377 0.00868413 0)
(7.34175 0.0247817 0)
(7.3577 0.0363193 0)
(7.37772 0.0423777 0)
(7.39893 0.0438818 0)
(7.42024 0.0419021 0)
(7.441 0.0373563 0)
(7.46076 0.0310767 0)
(7.47937 0.023711 0)
(7.49686 0.0156982 0)
(7.51329 0.00732485 0)
(7.52873 -0.00123116 0)
(7.54327 -0.00987233 0)
(7.557 -0.0185571 0)
(7.56997 -0.0272801 0)
(7.58226 -0.0360596 0)
(7.59392 -0.0449279 0)
(7.60499 -0.0539255 0)
(7.61551 -0.0630967 0)
(7.62553 -0.0724865 0)
(7.63507 -0.0821388 0)
(7.64417 -0.0920953 0)
(7.65286 -0.102395 0)
(7.66116 -0.113074 0)
(7.6691 -0.124163 0)
(7.67672 -0.135694 0)
(7.68403 -0.147693 0)
(7.69107 -0.160187 0)
(7.69786 -0.173203 0)
(7.70444 -0.186768 0)
(7.71084 -0.200913 0)
(7.71708 -0.215677 0)
(7.72319 -0.231089 0)
(7.33365 0.00646944 0)
(7.3404 0.0184603 0)
(7.35408 0.0270534 0)
(7.37167 0.031409 0)
(7.39082 0.0320774 0)
(7.41048 0.0298316 0)
(7.43 0.0253824 0)
(7.44887 0.0193936 0)
(7.46687 0.0124043 0)
(7.48396 0.00479581 0)
(7.50011 -0.00317619 0)
(7.51537 -0.0113489 0)
(7.52976 -0.0196306 0)
(7.54336 -0.0279802 0)
(7.5562 -0.0363913 0)
(7.56834 -0.0448797 0)
(7.57981 -0.0534756 0)
(7.59066 -0.0622172 0)
(7.60093 -0.071147 0)
(7.61064 -0.0803085 0)
(7.61984 -0.0897448 0)
(7.62856 -0.099497 0)
(7.63682 -0.109604 0)
(7.64464 -0.120101 0)
(7.65207 -0.131021 0)
(7.65912 -0.142396 0)
(7.66583 -0.154253 0)
(7.67221 -0.166621 0)
(7.6783 -0.179528 0)
(7.68412 -0.193003 0)
(7.68969 -0.207076 0)
(7.69505 -0.221786 0)
(7.70018 -0.237155 0)
(7.33356 0.00452739 0)
(7.33937 0.0128743 0)
(7.35128 0.018702 0)
(7.36693 0.0212929 0)
(7.38435 0.0209581 0)
(7.4026 0.018246 0)
(7.42101 0.0136988 0)
(7.43908 0.0078385 0)
(7.45652 0.00110377 0)
(7.47322 -0.00618403 0)
(7.48911 -0.0138045 0)
(7.50417 -0.0216156 0)
(7.51841 -0.0295365 0)
(7.53187 -0.0375314 0)
(7.54456 -0.0455965 0)
(7.55653 -0.0537484 0)
(7.56781 -0.0620177 0)
(7.57843 -0.0704427 0)
(7.58842 -0.0790658 0)
(7.59782 -0.0879307 0)
(7.60666 -0.0970805 0)
(7.61497 -0.106557 0)
(7.62277 -0.116398 0)
(7.63009 -0.126641 0)
(7.63697 -0.137319 0)
(7.64343 -0.148465 0)
(7.64949 -0.160106 0)
(7.65518 -0.172272 0)
(7.66052 -0.18499 0)
(7.66554 -0.19829 0)
(7.67024 -0.212199 0)
(7.67466 -0.226753 0)
(7.67879 -0.241968 0)
(7.33349 0.00279167 0)
(7.3386 0.00785251 0)
(7.34915 0.0110709 0)
(7.36324 0.0118644 0)
(7.37925 0.0103988 0)
(7.39632 0.00705676 0)
(7.4138 0.00224548 0)
(7.43117 -0.00363188 0)
(7.44812 -0.0102277 0)
(7.46447 -0.0172804 0)
(7.48012 -0.0246086 0)
(7.495 -0.0320954 0)
(7.5091 -0.0396756 0)
(7.52242 -0.0473231 0)
(7.53497 -0.0550395 0)
(7.54678 -0.0628451 0)
(7.55785 -0.0707723 0)
(7.56823 -0.0788608 0)
(7.57794 -0.0871535 0)
(7.58702 -0.0956947 0)
(7.59548 -0.104528 0)
(7.60336 -0.113694 0)
(7.61068 -0.123233 0)
(7.61748 -0.133182 0)
(7.62379 -0.143573 0)
(7.62962 -0.154438 0)
(7.635 -0.165807 0)
(7.63996 -0.177708 0)
(7.64452 -0.190167 0)
(7.64869 -0.20321 0)
(7.65249 -0.216864 0)
(7.65594 -0.231158 0)
(7.65903 -0.246101 0)
(7.33344 0.0012087 0)
(7.33802 0.00325242 0)
(7.34753 0.00398805 0)
(7.36043 0.00296703 0)
(7.37532 0.000273275 0)
(7.39144 -0.00382803 0)
(7.40816 -0.00903548 0)
(7.42496 -0.015044 0)
(7.44149 -0.0215858 0)
(7.45755 -0.0284573 0)
(7.47299 -0.0355173 0)
(7.48772 -0.0426773 0)
(7.50168 -0.0498919 0)
(7.51487 -0.0571484 0)
(7.52728 -0.064458 0)
(7.53891 -0.0718476 0)
(7.54978 -0.0793545 0)
(7.55991 -0.087022 0)
(7.56933 -0.0948958 0)
(7.57806 -0.103022 0)
(7.58613 -0.111445 0)
(7.59356 -0.120209 0)
(7.60039 -0.129352 0)
(7.60665 -0.138912 0)
(7.61235 -0.148923 0)
(7.61754 -0.159416 0)
(7.62222 -0.170419 0)
(7.62643 -0.18196 0)
(7.63018 -0.194064 0)
(7.63348 -0.206753 0)
(7.63636 -0.220049 0)
(7.63882 -0.233978 0)
(7.64087 -0.248541 0)
(7.3334 -0.000265287 0)
(7.33759 -0.00104666 0)
(7.34636 -0.00270193 0)
(7.35836 -0.00555373 0)
(7.37242 -0.00955841 0)
(7.38782 -0.0145331 0)
(7.40396 -0.0202599 0)
(7.42033 -0.0265157 0)
(7.43657 -0.0331047 0)
(7.45243 -0.039878 0)
(7.46772 -0.0467354 0)
(7.48235 -0.0536187 0)
(7.49623 -0.0605042 0)
(7.50932 -0.0673947 0)
(7.52161 -0.0743127 0)
(7.53308 -0.0812932 0)
(7.54376 -0.0883794 0)
(7.55365 -0.0956187 0)
(7.56277 -0.10306 0)
(7.57115 -0.110752 0)
(7.57882 -0.118741 0)
(7.5858 -0.12707 0)
(7.59212 -0.135782 0)
(7.59781 -0.144912 0)
(7.60289 -0.154494 0)
(7.6074 -0.16456 0)
(7.61136 -0.175137 0)
(7.61479 -0.186249 0)
(7.6177 -0.19792 0)
(7.62012 -0.210169 0)
(7.62206 -0.223014 0)
(7.62352 -0.236474 0)
(7.62451 -0.250544 0)
(7.33338 -0.00166893 0)
(7.33731 -0.00515183 0)
(7.34555 -0.00914184 0)
(7.35694 -0.0138428 0)
(7.37041 -0.019222 0)
(7.38532 -0.02515 0)
(7.40108 -0.0314714 0)
(7.41717 -0.0380305 0)
(7.43322 -0.044694 0)
(7.44896 -0.0513658 0)
(7.46418 -0.0579878 0)
(7.47874 -0.0645352 0)
(7.49256 -0.0710106 0)
(7.50558 -0.0774372 0)
(7.51775 -0.0838528 0)
(7.52908 -0.0903046 0)
(7.53957 -0.0968447 0)
(7.54921 -0.103527 0)
(7.55803 -0.110407 0)
(7.56606 -0.117536 0)
(7.57332 -0.124963 0)
(7.57983 -0.132734 0)
(7.58563 -0.140892 0)
(7.59075 -0.149473 0)
(7.59521 -0.158511 0)
(7.59903 -0.168038 0)
(7.60225 -0.178078 0)
(7.60489 -0.188654 0)
(7.60697 -0.199787 0)
(7.60849 -0.211493 0)
(7.60949 -0.223785 0)
(7.60996 -0.236678 0)
(7.60993 -0.25016 0)
(7.33336 -0.0030385 0)
(7.33713 -0.00916523 0)
(7.34508 -0.0154775 0)
(7.35611 -0.0220695 0)
(7.36927 -0.0289049 0)
(7.38394 -0.0358912 0)
(7.39953 -0.0429245 0)
(7.41555 -0.0499073 0)
(7.43158 -0.0567627 0)
(7.44734 -0.0634429 0)
(7.4626 -0.0699298 0)
(7.4772 -0.0762306 0)
(7.49104 -0.0823732 0)
(7.50405 -0.0884008 0)
(7.51617 -0.0943666 0)
(7.52739 -0.10033 0)
(7.53771 -0.106353 0)
(7.54712 -0.112496 0)
(7.55566 -0.118821 0)
(7.56334 -0.125383 0)
(7.57018 -0.132236 0)
(7.57623 -0.139427 0)
(7.58149 -0.146999 0)
(7.58602 -0.154992 0)
(7.58982 -0.16344 0)
(7.59295 -0.172371 0)
(7.59541 -0.181811 0)
(7.59724 -0.19178 0)
(7.59846 -0.202297 0)
(7.59908 -0.213373 0)
(7.59913 -0.225018 0)
(7.5986 -0.237242 0)
(7.59752 -0.250026 0)
(7.33336 -0.0044081 0)
(7.33707 -0.0131823 0)
(7.34491 -0.0218392 0)
(7.35583 -0.0303622 0)
(7.36892 -0.0386941 0)
(7.38356 -0.0467617 0)
(7.39919 -0.0544989 0)
(7.41529 -0.0618593 0)
(7.43143 -0.0688212 0)
(7.44732 -0.0753888 0)
(7.4627 -0.08159 0)
(7.47741 -0.0874714 0)
(7.49133 -0.0930933 0)
(7.50436 -0.098525 0)
(7.51645 -0.103841 0)
(7.52759 -0.109116 0)
(7.53776 -0.114424 0)
(7.54697 -0.119837 0)
(7.55523 -0.125422 0)
(7.56257 -0.131241 0)
(7.56901 -0.137349 0)
(7.57458 -0.143797 0)
(7.57932 -0.150631 0)
(7.58325 -0.157889 0)
(7.58641 -0.165606 0)
(7.58883 -0.17381 0)
(7.59054 -0.182524 0)
(7.59157 -0.191769 0)
(7.59193 -0.201557 0)
(7.59166 -0.211901 0)
(7.59078 -0.222803 0)
(7.58929 -0.234272 0)
(7.58722 -0.246283 0)
(7.33336 -0.00581491 0)
(7.33712 -0.0173155 0)
(7.34507 -0.0284114 0)
(7.35616 -0.0389843 0)
(7.36948 -0.0489597 0)
(7.38442 -0.0582821 0)
(7.40039 -0.0669192 0)
(7.41684 -0.0748679 0)
(7.43335 -0.0821518 0)
(7.44958 -0.0888175 0)
(7.46527 -0.0949311 0)
(7.48023 -0.100573 0)
(7.49434 -0.105831 0)
(7.50749 -0.1108 0)
(7.51963 -0.115575 0)
(7.53074 -0.120247 0)
(7.5408 -0.124905 0)
(7.54982 -0.129632 0)
(7.55782 -0.134503 0)
(7.56482 -0.139588 0)
(7.57085 -0.144947 0)
(7.57594 -0.150637 0)
(7.58014 -0.156704 0)
(7.58347 -0.163189 0)
(7.58596 -0.170127 0)
(7.58767 -0.177547 0)
(7.5886 -0.185472 0)
(7.58881 -0.193919 0)
(7.58831 -0.202901 0)
(7.58713 -0.212424 0)
(7.5853 -0.222491 0)
(7.58283 -0.233104 0)
(7.57974 -0.244234 0)
(7.33338 -0.00729722 0)
(7.33728 -0.0216607 0)
(7.34551 -0.0352929 0)
(7.35701 -0.0479516 0)
(7.37078 -0.0595278 0)
(7.38623 -0.0699759 0)
(7.40272 -0.0793017 0)
(7.41969 -0.0875599 0)
(7.4367 -0.094839 0)
(7.4534 -0.101248 0)
(7.46951 -0.106907 0)
(7.48483 -0.111944 0)
(7.49922 -0.116486 0)
(7.51257 -0.120655 0)
(7.52484 -0.124572 0)
(7.53598 -0.128345 0)
(7.54598 -0.132077 0)
(7.55487 -0.13586 0)
(7.56264 -0.139778 0)
(7.56934 -0.143905 0)
(7.57498 -0.148308 0)
(7.57962 -0.153042 0)
(7.58329 -0.158159 0)
(7.58603 -0.163699 0)
(7.58787 -0.169698 0)
(7.58886 -0.176184 0)
(7.58904 -0.18318 0)
(7.58843 -0.190702 0)
(7.58708 -0.198761 0)
(7.58502 -0.207362 0)
(7.58227 -0.216504 0)
(7.57886 -0.226189 0)
(7.57483 -0.236385 0)
(7.3334 -0.008909 0)
(7.3376 -0.0264084 0)
(7.34644 -0.042869 0)
(7.35875 -0.0579474 0)
(7.37345 -0.0715194 0)
(7.38988 -0.0835461 0)
(7.40736 -0.0940488 0)
(7.42527 -0.103111 0)
(7.44314 -0.110857 0)
(7.4606 -0.117439 0)
(7.47735 -0.123018 0)
(7.4932 -0.127764 0)
(7.50799 -0.131841 0)
(7.52164 -0.135408 0)
(7.53408 -0.138612 0)
(7.5453 -0.14159 0)
(7.55527 -0.144464 0)
(7.56402 -0.147343 0)
(7.57158 -0.150324 0)
(7.57796 -0.153492 0)
(7.58322 -0.156919 0)
(7.5874 -0.160669 0)
(7.59053 -0.164794 0)
(7.59266 -0.16934 0)
(7.59383 -0.174344 0)
(7.5941 -0.179833 0)
(7.5935 -0.18583 0)
(7.59207 -0.192351 0)
(7.58985 -0.199405 0)
(7.58688 -0.206995 0)
(7.58319 -0.215118 0)
(7.57881 -0.223771 0)
(7.57377 -0.23292 0)
(7.33344 -0.0106956 0)
(7.338 -0.0316013 0)
(7.3476 -0.0509679 0)
(7.36088 -0.0682909 0)
(7.37667 -0.0834373 0)
(7.39423 -0.096425 0)
(7.41286 -0.107365 0)
(7.4319 -0.116444 0)
(7.45082 -0.123881 0)
(7.46925 -0.129906 0)
(7.48687 -0.134743 0)
(7.50345 -0.138609 0)
(7.51886 -0.141706 0)
(7.53298 -0.14422 0)
(7.54577 -0.14632 0)
(7.55719 -0.148155 0)
(7.56725 -0.149861 0)
(7.57597 -0.151556 0)
(7.58338 -0.153343 0)
(7.58952 -0.155313 0)
(7.59444 -0.157542 0)
(7.59818 -0.160097 0)
(7.6008 -0.163034 0)
(7.60234 -0.166399 0)
(7.60286 -0.17023 0)
(7.60241 -0.174558 0)
(7.60104 -0.179404 0)
(7.59879 -0.184786 0)
(7.59571 -0.190713 0)
(7.59185 -0.197188 0)
(7.58725 -0.204209 0)
(7.58194 -0.211772 0)
(7.576 -0.219841 0)
(7.33352 -0.0127778 0)
(7.33882 -0.037793 0)
(7.34987 -0.0609264 0)
(7.365 -0.0815511 0)
(7.38277 -0.0994918 0)
(7.40229 -0.114714 0)
(7.42276 -0.127302 0)
(7.44344 -0.137463 0)
(7.46381 -0.145471 0)
(7.48346 -0.151624 0)
(7.5021 -0.156222 0)
(7.51951 -0.159555 0)
(7.53557 -0.16189 0)
(7.55018 -0.16347 0)
(7.5633 -0.16451 0)
(7.57492 -0.165199 0)
(7.58505 -0.165699 0)
(7.59373 -0.166151 0)
(7.60098 -0.166673 0)
(7.60686 -0.167367 0)
(7.61143 -0.168318 0)
(7.61473 -0.169597 0)
(7.61683 -0.171262 0)
(7.61779 -0.173363 0)
(7.61765 -0.175939 0)
(7.61648 -0.179019 0)
(7.61433 -0.182628 0)
(7.61125 -0.18678 0)
(7.6073 -0.191486 0)
(7.60253 -0.196747 0)
(7.59698 -0.20256 0)
(7.59069 -0.208917 0)
(7.58372 -0.215781 0)
(7.33355 -0.0151645 0)
(7.33944 -0.044488 0)
(7.35181 -0.0708253 0)
(7.36865 -0.0934543 0)
(7.38835 -0.112436 0)
(7.40997 -0.127994 0)
(7.43259 -0.140425 0)
(7.45538 -0.150096 0)
(7.47772 -0.157384 0)
(7.49915 -0.162647 0)
(7.51935 -0.166227 0)
(7.53809 -0.168437 0)
(7.55524 -0.169566 0)
(7.5707 -0.169869 0)
(7.58447 -0.169574 0)
(7.59654 -0.168883 0)
(7.60694 -0.167967 0)
(7.61572 -0.166979 0)
(7.62293 -0.166044 0)
(7.62864 -0.165272 0)
(7.63292 -0.164754 0)
(7.63583 -0.164568 0)
(7.63744 -0.164776 0)
(7.63781 -0.165431 0)
(7.63702 -0.166574 0)
(7.63513 -0.168241 0)
(7.63219 -0.170456 0)
(7.62828 -0.173239 0)
(7.62344 -0.176601 0)
(7.61776 -0.180547 0)
(7.61127 -0.185076 0)
(7.60405 -0.190186 0)
(7.59618 -0.195837 0)
(7.33381 -0.0183069 0)
(7.34168 -0.0541627 0)
(7.35741 -0.0867259 0)
(7.378 -0.114878 0)
(7.40124 -0.138379 0)
(7.42603 -0.157247 0)
(7.45141 -0.171784 0)
(7.47654 -0.182511 0)
(7.50086 -0.189999 0)
(7.52397 -0.194803 0)
(7.54558 -0.197439 0)
(7.56548 -0.198368 0)
(7.58357 -0.197994 0)
(7.59979 -0.196657 0)
(7.61412 -0.194648 0)
(7.62658 -0.192207 0)
(7.63721 -0.189537 0)
(7.64608 -0.186803 0)
(7.65325 -0.184143 0)
(7.65879 -0.181669 0)
(7.66278 -0.179476 0)
(7.66529 -0.177638 0)
(7.66641 -0.176218 0)
(7.66621 -0.175268 0)
(7.66475 -0.174828 0)
(7.66212 -0.174933 0)
(7.65838 -0.175608 0)
(7.65359 -0.176873 0)
(7.64783 -0.178742 0)
(7.64116 -0.181222 0)
(7.63365 -0.184313 0)
(7.62535 -0.188013 0)
(7.61632 -0.192278 0)
(7.33369 -0.021712 0)
(7.34202 -0.0624404 0)
(7.3597 -0.0970195 0)
(7.3833 -0.125397 0)
(7.41031 -0.14847 0)
(7.43932 -0.166734 0)
(7.46895 -0.180644 0)
(7.49806 -0.190746 0)
(7.52593 -0.197563 0)
(7.55208 -0.20159 0)
(7.57622 -0.203302 0)
(7.59815 -0.203143 0)
(7.61782 -0.201515 0)
(7.6352 -0.198777 0)
(7.65034 -0.19524 0)
(7.6633 -0.191173 0)
(7.67417 -0.186804 0)
(7.68306 -0.182322 0)
(7.69005 -0.177885 0)
(7.69526 -0.173622 0)
(7.69877 -0.169639 0)
(7.70069 -0.166021 0)
(7.70111 -0.162837 0)
(7.70011 -0.160144 0)
(7.69777 -0.157987 0)
(7.69418 -0.156402 0)
(7.68941 -0.155419 0)
(7.68353 -0.155063 0)
(7.67663 -0.15535 0)
(7.66877 -0.156297 0)
(7.66004 -0.157908 0)
(7.65053 -0.160195 0)
(7.64033 -0.16311 0)
(7.33481 -0.0280456 0)
(7.34944 -0.0830412 0)
(7.37493 -0.130758 0)
(7.40499 -0.169315 0)
(7.43686 -0.199035 0)
(7.46973 -0.220693 0)
(7.50247 -0.235519 0)
(7.53412 -0.244828 0)
(7.56409 -0.249749 0)
(7.59197 -0.251235 0)
(7.61748 -0.250083 0)
(7.64048 -0.246948 0)
(7.66092 -0.242354 0)
(7.67883 -0.236729 0)
(7.69428 -0.230414 0)
(7.70736 -0.223687 0)
(7.7182 -0.216769 0)
(7.72692 -0.20984 0)
(7.73364 -0.203044 0)
(7.73849 -0.196498 0)
(7.74157 -0.190293 0)
(7.743 -0.184505 0)
(7.74287 -0.179195 0)
(7.74127 -0.174412 0)
(7.73829 -0.170197 0)
(7.73401 -0.166586 0)
(7.7285 -0.16361 0)
(7.72184 -0.161297 0)
(7.7141 -0.159672 0)
(7.70535 -0.15876 0)
(7.69567 -0.158578 0)
(7.68514 -0.159143 0)
(7.67385 -0.160411 0)
(7.33379 -0.0318039 0)
(7.34759 -0.0864744 0)
(7.37755 -0.129457 0)
(7.41527 -0.164836 0)
(7.45584 -0.193852 0)
(7.497 -0.216158 0)
(7.53681 -0.232171 0)
(7.57427 -0.24264 0)
(7.60905 -0.248295 0)
(7.64104 -0.24992 0)
(7.67025 -0.248312 0)
(7.69675 -0.244201 0)
(7.72066 -0.238224 0)
(7.74206 -0.230923 0)
(7.76107 -0.222743 0)
(7.77776 -0.214043 0)
(7.79222 -0.205107 0)
(7.80452 -0.196154 0)
(7.81474 -0.187354 0)
(7.82295 -0.178839 0)
(7.82923 -0.170706 0)
(7.83364 -0.163031 0)
(7.83625 -0.15587 0)
(7.83715 -0.149269 0)
(7.83638 -0.143262 0)
(7.83403 -0.137879 0)
(7.83017 -0.133147 0)
(7.82486 -0.129093 0)
(7.81818 -0.125751 0)
(7.81023 -0.123157 0)
(7.80111 -0.121355 0)
(7.79095 -0.120405 0)
(7.77992 -0.12029 0)
(7.33891 -0.0543044 0)
(7.37183 -0.151309 0)
(7.41436 -0.220284 0)
(7.45758 -0.266878 0)
(7.5036 -0.297246 0)
(7.55325 -0.315333 0)
(7.60497 -0.324815 0)
(7.65759 -0.328358 0)
(7.71016 -0.327641 0)
(7.76157 -0.323804 0)
(7.81088 -0.317646 0)
(7.85736 -0.309735 0)
(7.90048 -0.3005 0)
(7.9399 -0.290282 0)
(7.97543 -0.279363 0)
(8.00699 -0.267982 0)
(8.03463 -0.256345 0)
(8.05844 -0.24463 0)
(8.07858 -0.232986 0)
(8.09524 -0.22154 0)
(8.1086 -0.210397 0)
(8.11886 -0.199644 0)
(8.12624 -0.189351 0)
(8.1309 -0.179577 0)
(8.13304 -0.170375 0)
(8.13282 -0.161788 0)
(8.1304 -0.153863 0)
(8.12591 -0.146648 0)
(8.11947 -0.140206 0)
(8.1112 -0.134608 0)
(8.10122 -0.12997 0)
(8.08968 -0.126379 0)
(8.0768 -0.123992 0)
(7.33755 -0.0403226 0)
(7.38839 -0.105468 0)
(7.47736 -0.162936 0)
(7.57853 -0.218269 0)
(7.68577 -0.265161 0)
(7.79392 -0.301227 0)
(7.89696 -0.327079 0)
(7.9914 -0.343385 0)
(8.07528 -0.351208 0)
(8.14755 -0.352001 0)
(8.20804 -0.347221 0)
(8.25719 -0.338182 0)
(8.29581 -0.326023 0)
(8.32494 -0.311693 0)
(8.34571 -0.29595 0)
(8.35923 -0.279394 0)
(8.3666 -0.262482 0)
(8.36878 -0.245563 0)
(8.36666 -0.228889 0)
(8.36099 -0.212645 0)
(8.35244 -0.196959 0)
(8.34154 -0.181918 0)
(8.32875 -0.167579 0)
(8.31445 -0.153975 0)
(8.29892 -0.141125 0)
(8.2824 -0.129034 0)
(8.26505 -0.1177 0)
(8.24697 -0.107117 0)
(8.22823 -0.0973049 0)
(8.2088 -0.0883086 0)
(8.18877 -0.0803382 0)
(8.16791 -0.0735649 0)
(8.14679 -0.068993 0)
(7.39943 -0.196716 0)
(7.59541 -0.375886 0)
(7.76783 -0.458573 0)
(7.8946 -0.512087 0)
(7.97781 -0.540254 0)
(8.01562 -0.5489 0)
(8.01239 -0.544646 0)
(7.97658 -0.530847 0)
(7.91598 -0.51001 0)
(7.83729 -0.484405 0)
(7.74638 -0.455837 0)
(7.6481 -0.425707 0)
(7.54625 -0.395105 0)
(7.44375 -0.364845 0)
(7.34275 -0.335505 0)
(7.24482 -0.307475 0)
(7.15103 -0.280991 0)
(7.06208 -0.256178 0)
(6.97837 -0.233074 0)
(6.90011 -0.211661 0)
(6.82732 -0.191881 0)
(6.75992 -0.173651 0)
(6.69775 -0.156876 0)
(6.6406 -0.14145 0)
(6.58821 -0.127269 0)
(6.54032 -0.114224 0)
(6.49664 -0.102204 0)
(6.45684 -0.0911006 0)
(6.42056 -0.0807948 0)
(6.38718 -0.0711911 0)
(6.35614 -0.0622918 0)
(6.32586 -0.0535584 0)
(6.29669 -0.0479474 0)
(7.16014 -0.185846 0)
(6.91107 -0.345064 0)
(6.50016 -0.392289 0)
(6.03693 -0.393635 0)
(5.59751 -0.365367 0)
(5.18225 -0.32131 0)
(4.79528 -0.272384 0)
(4.44346 -0.224212 0)
(4.1274 -0.179782 0)
(3.84549 -0.140576 0)
(3.59577 -0.10699 0)
(3.3757 -0.0788349 0)
(3.18249 -0.0556288 0)
(3.01337 -0.0367517 0)
(2.86569 -0.0215531 0)
(2.73698 -0.00941893 0)
(2.62501 0.000198991 0)
(2.52775 0.007772 0)
(2.44342 0.0136956 0)
(2.37042 0.0182958 0)
(2.30736 0.0218375 0)
(2.25301 0.024533 0)
(2.20632 0.0265489 0)
(2.16633 0.0280139 0)
(2.13223 0.02903 0)
(2.1033 0.0296897 0)
(2.07891 0.0301238 0)
(2.05858 0.0305423 0)
(2.04185 0.031347 0)
(2.02879 0.0331538 0)
(2.01893 0.0364378 0)
(2.01361 0.043991 0)
(2.01253 0.0415735 0)
(1.80766 -0.0503232 0)
(2.06117 -0.0619411 0)
(2.20541 -0.0315866 0)
(2.34088 0.00364842 0)
(2.52079 0.0688685 0)
(2.78218 0.147142 0)
(3.12187 0.225557 0)
(3.53366 0.287266 0)