# y+ ()       
# Time        	patch         	min           	max           	average       
400           	lowerWall	8.392968e-01	9.405357e+01	4.347619e+01
400           	upperWall	3.125910e+01	5.504153e+01	4.570308e+01
