/*--------------------------------*- C++ -*----------------------------------*\
  =========                 |
  \\      /  F ield         | OpenFOAM: The Open Source CFD Toolbox
   \\    /   O peration     | Website:  https://openfoam.org
    \\  /    A nd           | Version:  10
     \\/     M anipulation  |
\*---------------------------------------------------------------------------*/
FoamFile
{
    format      ascii;
    class       volScalarField;
    location    "0.15";
    object      epsilon;
}
// * * * * * * * * * * * * * * * * * * * * * * * * * * * * * * * * * * * * * //

dimensions      [0 2 -3 0 0 0 0];

internalField   nonuniform List<scalar> 
6820
(
23.2969
22.5752
21.9094
21.2853
20.7019
20.1632
19.6735
19.2344
18.8457
18.505
18.2092
17.9546
17.7373
17.5536
17.3998
17.2728
17.1696
17.0874
17.0238
16.9766
16.944
16.924
16.9153
16.9164
16.9261
16.9434
16.9668
16.9982
17.0236
17.1052
16.9482
17.9302
13.5915
5.03385
6.81829
7.83929
8.46751
8.89791
9.23122
9.5213
9.79455
10.063
10.3316
10.6023
10.8754
11.1507
11.4275
11.7054
11.9837
12.2618
12.5392
12.8152
13.0895
13.3615
13.6309
13.8975
14.161
14.4216
14.6796
14.936
15.1926
15.4517
15.7316
15.9984
16.5159
16.5225
3.7036
4.14719
4.56525
4.91421
5.19792
5.43116
5.62798
5.7996
5.95445
6.09864
6.23646
6.37082
6.50364
6.63612
6.76902
6.90272
7.03743
7.17317
7.30988
7.44746
7.58574
7.72457
7.86378
8.00324
8.14288
8.28269
8.42275
8.56368
8.70538
8.8518
8.9979
9.16356
9.32123
3.54009
3.61093
3.72473
3.85371
3.98116
4.0994
4.20618
4.30193
4.38813
4.46657
4.53894
4.60677
4.67128
4.73348
4.79414
4.85384
4.91303
4.97201
5.03102
5.09021
5.14966
5.20945
5.26961
5.33015
5.3911
5.4525
5.5144
5.57698
5.64038
5.7053
5.77179
5.8411
5.91491
3.52064
3.50151
3.50498
3.52611
3.55867
3.5972
3.63779
3.67802
3.71661
3.75303
3.78718
3.81921
3.84938
3.87798
3.90533
3.9317
3.95733
3.98244
4.00719
4.03173
4.05617
4.08059
4.10506
4.12966
4.15442
4.1794
4.20465
4.23026
4.25631
4.28298
4.3104
4.33868
4.36807
3.5194
3.48247
3.45303
3.43232
3.41995
3.4145
3.41422
3.4175
3.42306
3.42996
3.43754
3.44541
3.4533
3.46109
3.46872
3.47617
3.48346
3.49064
3.49774
3.5048
3.51187
3.51898
3.52617
3.53346
3.5409
3.54851
3.55632
3.56438
3.57272
3.58141
3.5905
3.60003
3.61002
3.51943
3.47974
3.44283
3.40949
3.38025
3.35523
3.3342
3.31668
3.30212
3.28998
3.27975
3.27105
3.26353
3.25695
3.25112
3.2459
3.24118
3.23688
3.23296
3.22938
3.22611
3.22312
3.22043
3.218
3.21584
3.21396
3.21235
3.21102
3.20998
3.20926
3.20888
3.20882
3.2091
3.51947
3.47943
3.44109
3.40466
3.37041
3.33852
3.30907
3.28205
3.25735
3.23479
3.21418
3.19529
3.17793
3.1619
3.14704
3.13322
3.1203
3.10818
3.09678
3.08603
3.07587
3.06624
3.05711
3.04845
3.04022
3.03241
3.02499
3.01795
3.01129
3.005
2.99907
2.9935
2.98828
3.51948
3.47941
3.44085
3.40382
3.36835
3.33448
3.30225
3.27169
3.24279
3.21552
3.18983
3.16562
3.14282
3.12133
3.10104
3.08187
3.06373
3.04654
3.03021
3.01469
2.99991
2.98581
2.97236
2.95951
2.94722
2.93545
2.92419
2.9134
2.90307
2.89318
2.88371
2.87465
2.86599
3.51948
3.4794
3.44082
3.40368
3.36796
3.33361
3.30062
3.26897
3.23864
3.20961
3.18184
3.15531
3.12997
3.10577
3.08267
3.06061
3.03954
3.01939
3.00013
2.98169
2.96404
2.94712
2.9309
2.91533
2.90039
2.88603
2.87223
2.85897
2.84621
2.83395
2.82215
2.81081
2.79989
3.51948
3.4794
3.44081
3.40365
3.36788
3.33344
3.30027
3.26833
3.23759
3.20799
3.17952
3.15212
3.12578
3.10045
3.0761
3.0527
3.0302
3.00857
2.98776
2.96776
2.94851
2.92999
2.91216
2.89499
2.87845
2.86251
2.84715
2.83234
2.81806
2.80429
2.79101
2.7782
2.76585
3.51948
3.4794
3.4408
3.40364
3.36786
3.33339
3.30019
3.26818
3.23733
3.20758
3.17889
3.15123
3.12455
3.09881
3.07399
3.05005
3.02695
3.00467
2.98317
2.96242
2.9424
2.92307
2.90442
2.8864
2.869
2.8522
2.83596
2.82028
2.80512
2.79047
2.77631
2.76263
2.74941
3.51948
3.4794
3.44079
3.40363
3.36784
3.33337
3.30015
3.26813
3.23725
3.20747
3.17872
3.15098
3.1242
3.09833
3.07335
3.04922
3.02591
3.00338
2.9816
2.96055
2.9402
2.92053
2.90149
2.88309
2.86528
2.84805
2.83138
2.81525
2.79964
2.78453
2.7699
2.75574
2.74204
3.51948
3.47939
3.44079
3.40362
3.36783
3.33336
3.30013
3.2681
3.23722
3.20742
3.17866
3.15089
3.12408
3.09818
3.07315
3.04896
3.02558
3.00296
2.98109
2.95993
2.93946
2.91964
2.90046
2.8819
2.86392
2.84651
2.82964
2.81331
2.79749
2.78216
2.7673
2.75291
2.73896
3.51947
3.47939
3.44079
3.40362
3.36782
3.33334
3.30012
3.26808
3.23719
3.20738
3.17862
3.15084
3.12402
3.09811
3.07306
3.04886
3.02545
3.00281
2.9809
2.95971
2.93919
2.91933
2.9001
2.88147
2.86343
2.84594
2.829
2.81259
2.79668
2.78125
2.7663
2.7518
2.73774
3.51947
3.47939
3.44078
3.40361
3.36782
3.33333
3.3001
3.26806
3.23716
3.20735
3.17858
3.1508
3.12398
3.09806
3.07301
3.04879
3.02538
3.00273
2.98081
2.9596
2.93907
2.91919
2.89994
2.88129
2.86323
2.84572
2.82875
2.8123
2.79635
2.78089
2.7659
2.75135
2.73725
3.51947
3.47939
3.44078
3.40361
3.36781
3.33332
3.30009
3.26804
3.23714
3.20733
3.17855
3.15077
3.12394
3.09802
3.07296
3.04874
3.02532
3.00267
2.98075
2.95953
2.93899
2.91911
2.89985
2.88119
2.86311
2.8456
2.82861
2.81215
2.79619
2.78071
2.7657
2.75113
2.737
3.51947
3.47939
3.44078
3.4036
3.3678
3.33331
3.30007
3.26803
3.23712
3.20731
3.17853
3.15074
3.12391
3.09798
3.07292
3.0487
3.02527
3.00261
2.98069
2.95947
2.93893
2.91904
2.89977
2.88111
2.86303
2.8455
2.82852
2.81205
2.79608
2.78059
2.76556
2.75099
2.73684
3.51947
3.47939
3.44078
3.4036
3.3678
3.33331
3.30006
3.26802
3.23711
3.20729
3.1785
3.15071
3.12388
3.09794
3.07288
3.04866
3.02523
3.00256
2.98064
2.95941
2.93887
2.91898
2.89971
2.88104
2.86295
2.84542
2.82843
2.81195
2.79598
2.78048
2.76545
2.75086
2.73671
3.51947
3.47939
3.44077
3.4036
3.36779
3.3333
3.30006
3.26801
3.23709
3.20727
3.17848
3.15069
3.12385
3.09791
3.07285
3.04862
3.02519
3.00252
2.98059
2.95936
2.93881
2.91892
2.89964
2.88097
2.86288
2.84535
2.82835
2.81187
2.79588
2.78038
2.76534
2.75075
2.73658
3.51947
3.47939
3.44077
3.40359
3.36779
3.33329
3.30005
3.268
3.23708
3.20725
3.17847
3.15067
3.12382
3.09789
3.07282
3.04859
3.02515
3.00248
2.98055
2.95932
2.93876
2.91886
2.89958
2.88091
2.86281
2.84527
2.82827
2.81178
2.79579
2.78028
2.76523
2.75063
2.73646
3.51947
3.47938
3.44077
3.40359
3.36779
3.33329
3.30004
3.26799
3.23707
3.20724
3.17845
3.15065
3.1238
3.09786
3.07279
3.04855
3.02512
3.00244
2.9805
2.95927
2.93871
2.91881
2.89953
2.88085
2.86275
2.8452
2.82819
2.8117
2.7957
2.78019
2.76513
2.75053
2.73635
3.51947
3.47938
3.44077
3.40359
3.36778
3.33329
3.30004
3.26798
3.23706
3.20723
3.17844
3.15064
3.12378
3.09784
3.07277
3.04853
3.02509
3.00241
2.98047
2.95923
2.93867
2.91876
2.89948
2.88079
2.86269
2.84514
2.82812
2.81162
2.79562
2.7801
2.76504
2.75042
2.73623
3.51947
3.47938
3.44077
3.40359
3.36778
3.33328
3.30003
3.26797
3.23705
3.20722
3.17842
3.15062
3.12377
3.09782
3.07275
3.0485
3.02506
3.00238
2.98043
2.95919
2.93863
2.91872
2.89943
2.88074
2.86263
2.84507
2.82805
2.81155
2.79554
2.78001
2.76494
2.75032
2.73613
3.51947
3.47938
3.44077
3.40359
3.36778
3.33328
3.30003
3.26797
3.23705
3.20721
3.17841
3.15061
3.12375
3.0978
3.07273
3.04848
3.02503
3.00235
2.9804
2.95916
2.93859
2.91867
2.89938
2.88069
2.86257
2.84501
2.82799
2.81148
2.79547
2.77993
2.76486
2.75023
2.73602
3.51947
3.47938
3.44077
3.40359
3.36778
3.33328
3.30003
3.26797
3.23704
3.20721
3.17841
3.1506
3.12374
3.09779
3.07271
3.04846
3.02501
3.00233
2.98038
2.95913
2.93856
2.91864
2.89934
2.88064
2.86252
2.84496
2.82793
2.81141
2.7954
2.77985
2.76477
2.75014
2.73593
3.51947
3.47938
3.44077
3.40359
3.36778
3.33328
3.30002
3.26796
3.23704
3.2072
3.1784
3.15059
3.12373
3.09778
3.07269
3.04844
3.02499
3.0023
2.98035
2.9591
2.93853
2.9186
2.8993
2.8806
2.86248
2.84491
2.82787
2.81135
2.79533
2.77978
2.76469
2.75005
2.73583
3.51947
3.47938
3.44077
3.40359
3.36778
3.33328
3.30002
3.26796
3.23704
3.2072
3.1784
3.15059
3.12372
3.09777
3.07269
3.04843
3.02498
3.00229
2.98033
2.95908
2.9385
2.91857
2.89927
2.88057
2.86244
2.84486
2.82783
2.8113
2.79527
2.77972
2.76463
2.74998
2.73575
3.51947
3.47938
3.44077
3.40359
3.36778
3.33327
3.30002
3.26796
3.23703
3.20719
3.17839
3.15058
3.12371
3.09776
3.07267
3.04842
3.02496
3.00227
2.98031
2.95905
2.93848
2.91855
2.89924
2.88053
2.8624
2.84482
2.82778
2.81125
2.79522
2.77966
2.76456
2.74991
2.73568
3.51947
3.47938
3.44077
3.40359
3.36778
3.33328
3.30003
3.26796
3.23704
3.2072
3.1784
3.15059
3.12372
3.09777
3.07268
3.04843
3.02497
3.00227
2.98031
2.95905
2.93847
2.91854
2.89923
2.88052
2.86238
2.8448
2.82775
2.81122
2.79518
2.77962
2.76452
2.74986
2.73562
3.51947
3.47939
3.44077
3.40359
3.36778
3.33328
3.30002
3.26796
3.23703
3.20719
3.17839
3.15057
3.12371
3.09775
3.07267
3.04841
3.02495
3.00226
2.9803
2.95904
2.93846
2.91852
2.89921
2.8805
2.86237
2.84479
2.82774
2.8112
2.79516
2.7796
2.7645
2.74984
2.7356
3.51947
3.47938
3.44077
3.40359
3.36779
3.3333
3.30005
3.268
3.23708
3.20725
3.17845
3.15064
3.12378
3.09782
3.07273
3.04848
3.02502
3.00233
2.98037
2.95911
2.93853
2.91859
2.89929
2.88058
2.86244
2.84487
2.82782
2.8113
2.79526
2.77971
2.76461
2.74996
2.73573
3.51948
3.4794
3.44079
3.40362
3.36782
3.33332
3.30007
3.26801
3.23708
3.20725
3.17845
3.15065
3.12379
3.09785
3.07278
3.04854
3.0251
3.00242
2.98049
2.95926
2.9387
2.9188
2.89953
2.88086
2.86277
2.84524
2.82824
2.81176
2.79578
2.78028
2.76525
2.75066
2.7365
3.51947
3.47939
3.44079
3.40365
3.36789
3.33343
3.30023
3.26821
3.23733
3.20754
3.17878
3.15102
3.12422
3.09833
3.07333
3.04917
3.02583
3.00326
2.98144
2.96035
2.93994
2.9202
2.90111
2.88262
2.86473
2.84741
2.83063
2.81438
2.79864
2.78339
2.76861
2.75429
2.74039
3.51949
3.47947
3.44095
3.40385
3.36811
3.33369
3.30054
3.26862
3.23789
3.2083
3.1798
3.15236
3.12594
3.10049
3.07598
3.05237
3.02962
3.00771
2.98659
2.96623
2.9466
2.92767
2.90942
2.8918
2.87481
2.8584
2.84255
2.82725
2.81247
2.79818
2.78437
2.77102
2.7581
3.5195
3.47953
3.44117
3.40446
3.36933
3.33572
3.30359
3.2729
3.24362
3.21571
3.18911
3.16378
3.13966
3.1167
3.09484
3.07401
3.05417
3.03526
3.01722
3.00001
2.98356
2.96785
2.95282
2.93844
2.92466
2.91145
2.89877
2.8866
2.87491
2.86366
2.85284
2.84242
2.83237
3.51969
3.48122
3.44561
3.41286
3.38295
3.35587
3.33149
3.30964
3.2901
3.27267
3.25712
3.24325
3.23088
3.21982
3.20992
3.20104
3.19305
3.18584
3.17931
3.17337
3.16794
3.16296
3.15837
3.15411
3.15013
3.14641
3.14289
3.13956
3.13638
3.13334
3.1304
3.12756
3.1248
3.52527
3.51369
3.5162
3.52947
3.5507
3.57786
3.60935
3.64387
3.68047
3.71841
3.7571
3.79609
3.83502
3.87361
3.91166
3.94899
3.98549
4.02106
4.05565
4.08921
4.12172
4.15316
4.18352
4.21283
4.24108
4.2683
4.29451
4.31973
4.344
4.36734
4.38978
4.41135
4.4321
3.83318
4.36507
4.84916
5.31414
5.77455
6.22578
6.66355
7.08601
7.49278
7.88426
8.26123
8.62459
8.97522
9.31397
9.64158
9.95872
10.266
10.5639
10.8528
11.1333
11.4055
11.67
11.9269
12.1766
12.4193
12.6553
12.8848
13.108
13.3252
13.5365
13.7423
13.9426
14.1377
30.2663
32.7713
35.3126
37.865
40.4147
42.9529
45.4712
47.9623
50.419
52.8353
55.2055
57.5249
59.7894
61.9955
64.1405
66.2222
68.239
70.1897
72.0737
73.8906
75.6406
77.3241
78.9417
80.4944
81.9833
83.4096
84.7748
86.0805
87.3283
88.5198
89.6569
90.7411
91.7755
83.8214
234.885
414.491
580.767
707.355
784.582
816.135
812.787
786.717
748.291
704.918
661.202
619.614
581.226
546.297
514.683
486.084
460.175
436.662
415.293
395.843
378.109
361.893
347.006
333.258
320.471
308.476
297.118
286.257
275.769
265.544
255.485
245.51
235.548
225.545
215.462
205.275
194.976
184.572
174.087
163.556
153.029
142.568
132.244
122.135
112.324
102.896
93.93
85.4993
77.6643
70.4706
63.9463
58.1017
52.9297
48.4076
44.4994
41.1591
38.3329
35.9626
33.9867
32.3426
30.9673
29.7982
28.7737
27.8344
26.9238
25.9899
24.9871
23.8777
22.6342
21.2409
19.6951
18.0084
16.2069
14.3308
12.4327
10.5741
8.82041
7.23251
5.85834
4.72467
3.83334
3.16382
2.68103
2.3449
2.11787
1.96872
1.87346
1.81465
1.78004
1.76127
1.75281
1.7511
1.75393
1.76001
1.76857
1.7793
1.79213
1.80518
1.83069
19.5577
28.5631
45.265
70.3466
102.938
141.014
181.875
222.669
260.644
293.584
320.009
339.243
351.352
356.998
357.223
353.226
346.178
337.102
326.813
315.915
304.818
293.783
282.958
272.413
262.171
252.221
242.534
233.072
223.795
214.658
205.618
196.636
187.674
178.701
169.693
160.641
151.543
142.415
133.282
124.181
115.16
106.275
97.5884
89.1663
81.0767
73.3858
66.155
59.4368
53.2717
47.6864
42.6916
38.2827
34.441
31.1359
28.3282
25.9727
24.0217
22.4265
21.1394
20.1143
19.3064
18.6726
18.1705
17.7581
17.3937
17.0366
16.6477
16.1914
15.6375
14.9633
14.156
13.2138
12.1475
10.9808
9.74876
8.49608
7.27269
6.12817
5.10498
4.23223
3.52189
2.96908
2.55619
2.25897
2.05201
1.91241
1.82128
1.76403
1.72984
1.711
1.70216
1.69976
1.70149
1.70594
1.71236
1.72031
1.72974
1.74073
1.75183
1.77375
9.47912
9.83383
10.7924
12.7428
15.9692
20.6362
26.8003
34.4228
43.5297
54.096
65.9383
78.7209
91.9832
105.188
117.779
129.248
139.18
147.293
153.455
157.674
160.073
160.852
160.247
158.499
155.825
152.412
148.408
143.929
139.066
133.885
128.44
122.77
116.907
110.88
104.715
98.442
92.0963
85.718
79.3534
73.0535
66.8723
60.8651
55.0867
49.5889
44.419
39.6172
35.2146
31.2315
27.6765
24.5462
21.8263
19.4931
17.5165
15.8622
14.4944
13.378
12.48
11.7702
11.2212
10.8085
10.5095
10.3028
10.167
10.08
10.0189
9.9593
9.87615
9.74497
9.54355
9.25403
8.86514
8.37406
7.7876
7.12247
6.40428
5.6651
4.93979
4.26139
3.65649
3.14188
2.72335
2.39702
2.15234
1.97548
1.85215
1.76934
1.71608
1.68371
1.66562
1.65701
1.65448
1.65576
1.65938
1.66444
1.67055
1.67747
1.68533
1.69427
1.70327
1.72128
5.9947
6.07703
6.18337
6.36632
6.68769
7.20412
7.95905
8.98317
10.3014
11.9155
13.8493
16.1299
18.778
21.8002
25.1822
28.8818
32.8263
36.9131
41.0166
44.9991
48.7243
52.0696
54.9359
57.2521
58.9761
60.0925
60.6085
60.5502
59.9575
58.8799
57.3717
55.4888
53.2854
50.8138
48.1241
45.2651
42.2856
39.2341
36.1593
33.1084
30.126
27.2529
24.5249
21.9718
19.6163
17.4738
15.5524
13.8526
12.3684
11.0882
9.99654
9.07538
8.30577
7.6691
7.148
6.72691
6.39229
6.13253
5.93777
5.79949
5.70997
5.6618
5.64725
5.65769
5.6831
5.71181
5.73059
5.72521
5.68152
5.58695
5.43231
5.21341
4.93233
4.59778
4.22453
3.83173
3.44028
3.0699
2.73638
2.44991
2.21459
2.02932
1.88926
1.7876
1.7169
1.67008
1.64094
1.6244
1.61649
1.61422
1.61547
1.61877
1.62319
1.62819
1.63356
1.63922
1.64538
1.6522
1.65907
1.67305
4.40226
4.43958
4.477
4.51955
4.57585
4.65751
4.77694
4.9453
5.17247
5.46011
5.81102
6.22822
6.71462
7.27273
7.90418
8.60908
9.38524
10.2273
11.1262
12.0683
13.0356
14.0063
14.9549
15.8541
16.6757
17.3922
17.9789
18.4154
18.687
18.7858
18.711
18.4679
18.0674
17.5244
16.8572
16.0867
15.2354
14.327
13.3852
12.4328
11.4905
10.5766
9.70606
8.89031
8.13736
7.45193
6.83583
6.28839
5.80699
5.38762
5.02539
4.715
4.45109
4.22859
4.04281
3.88963
3.76549
3.6674
3.59282
3.53958
3.5057
3.48919
3.48782
3.4988
3.51851
3.54228
3.56427
3.57758
3.5747
3.54826
3.49207
3.40222
3.27805
3.12266
2.9428
2.74801
2.54932
2.3575
2.18163
2.02809
1.90014
1.79827
1.72078
1.6646
1.62605
1.60134
1.58704
1.58017
1.57835
1.57974
1.58299
1.58716
1.59165
1.59614
1.60052
1.6048
1.60923
1.61395
1.61876
1.62875
3.62199
3.63551
3.64896
3.66273
3.67774
3.69584
3.71969
3.75251
3.79742
3.85663
3.93175
4.02385
4.13343
4.26059
4.40505
4.56611
4.74267
4.93315
5.13541
5.34675
5.56386
5.78283
5.99922
6.20806
6.40397
6.58129
6.73429
6.85753
6.94616
6.99639
7.0057
6.97302
6.89877
6.78474
6.63401
6.45076
6.24008
6.00773
5.75984
5.50256
5.24175
4.98272
4.73001
4.48736
4.2576
4.04277
3.84414
3.66235
3.49746
3.34913
3.21668
3.09921
2.99571
2.90512
2.82639
2.75857
2.7008
2.65236
2.61263
2.5811
2.55731
2.54079
2.53095
2.52698
2.52772
2.53148
2.53599
2.53833
2.53507
2.52257
2.4974
2.45699
2.40013
2.32741
2.24138
2.1462
2.04712
1.94964
1.85871
1.77812
1.71019
1.65575
1.6144
1.58482
1.56521
1.55356
1.54794
1.54662
1.54815
1.55137
1.55543
1.55969
1.56377
1.56745
1.57071
1.57357
1.57632
1.57905
1.5819
1.58805
3.20979
3.21073
3.21173
3.21279
3.21398
3.21553
3.21786
3.22169
3.22781
3.23707
3.25027
3.26808
3.29096
3.31914
3.35267
3.39135
3.43479
3.48242
3.53347
3.58699
3.64191
3.697
3.75095
3.80236
3.84975
3.89163
3.92649
3.9529
3.96954
3.97533
3.96948
3.95153
3.92138
3.87932
3.82595
3.76221
3.68933
3.60875
3.52209
3.43106
3.33736
3.24264
3.14838
3.05588
2.96624
2.88032
2.79879
2.72207
2.65042
2.58395
2.5226
2.46623
2.41462
2.3675
2.32458
2.28558
2.25026
2.21839
2.1898
2.16435
2.14196
2.12252
2.10592
2.09197
2.08035
2.07053
2.0617
2.05277
2.04236
2.02886
2.01069
1.98645
1.9553
1.91717
1.87288
1.82412
1.77323
1.72285
1.67552
1.63333
1.59768
1.56923
1.54796
1.53328
1.52429
1.5199
1.519
1.52054
1.52362
1.52749
1.53156
1.53541
1.53877
1.54148
1.54356
1.54503
1.54617
1.54703
1.54807
1.55062
2.9826
2.97633
2.97013
2.96397
2.95787
2.95182
2.9459
2.94021
2.93492
2.93023
2.92641
2.92369
2.92231
2.92246
2.92423
2.92768
2.93275
2.93931
2.94712
2.95588
2.9652
2.97465
2.98375
2.99198
2.99881
3.00371
3.00614
3.0056
3.00162
2.9938
2.98184
2.96555
2.94485
2.91979
2.89053
2.85737
2.82066
2.78089
2.7386
2.69436
2.64878
2.60247
2.55599
2.50987
2.46455
2.42042
2.37775
2.33676
2.29757
2.26024
2.22477
2.1911
2.15914
2.12879
2.09991
2.07239
2.04612
2.021
1.99698
1.97401
1.95208
1.93121
1.9114
1.89267
1.87497
1.8582
1.84216
1.8265
1.81075
1.79433
1.7766
1.75697
1.73502
1.71063
1.68408
1.65604
1.62753
1.59976
1.57396
1.55117
1.53215
1.51729
1.50659
1.49977
1.49631
1.49559
1.49692
1.49964
1.50314
1.5069
1.5105
1.51363
1.51608
1.51774
1.51862
1.51875
1.5184
1.51753
1.51693
1.51614
2.85635
2.8456
2.83495
2.82436
2.81383
2.80335
2.79291
2.78253
2.77222
2.76203
2.752
2.74221
2.73272
2.72361
2.71492
2.70671
2.69898
2.69172
2.68488
2.67838
2.67211
2.66591
2.65962
2.65304
2.64597
2.63821
2.62953
2.61974
2.60864
2.59606
2.58188
2.56599
2.54834
2.52895
2.50787
2.48518
2.46104
2.43562
2.40912
2.38177
2.35382
2.32551
2.29707
2.26873
2.24067
2.21305
2.18598
2.15955
2.13379
2.1087
2.08425
2.0604
2.03707
2.0142
1.99169
1.96948
1.94751
1.92572
1.90408
1.88259
1.86127
1.84014
1.81926
1.7987
1.77851
1.75874
1.73941
1.72049
1.70189
1.68349
1.6651
1.64657
1.62776
1.60867
1.58942
1.57031
1.5518
1.53443
1.51876
1.50528
1.49434
1.48611
1.48055
1.47748
1.47656
1.47736
1.47944
1.48231
1.48554
1.48874
1.49158
1.49381
1.49527
1.49584
1.49555
1.49441
1.49268
1.49024
1.48816
1.48434
2.78768
2.77401
2.76044
2.74695
2.73353
2.72016
2.70686
2.6936
2.6804
2.66725
2.65416
2.64114
2.6282
2.61535
2.6026
2.58997
2.57747
2.56508
2.55281
2.54063
2.52851
2.51641
2.50427
2.49203
2.47962
2.46696
2.45397
2.44057
2.42669
2.41225
2.3972
2.38149
2.36509
2.34802
2.33028
2.31191
2.29297
2.27353
2.25368
2.2335
2.21309
2.19255
2.17199
2.15147
2.13108
2.11086
2.09085
2.07107
2.05149
2.0321
2.01284
1.99365
1.97448
1.95527
1.93594
1.91645
1.89675
1.87681
1.85661
1.83617
1.8155
1.79466
1.77369
1.7527
1.73176
1.71097
1.69044
1.67024
1.65045
1.63112
1.6123
1.594
1.57627
1.55917
1.54283
1.52742
1.51315
1.50028
1.48907
1.47971
1.47235
1.46701
1.46362
1.46201
1.46191
1.46302
1.46498
1.46742
1.47
1.47239
1.47432
1.47557
1.476
1.4755
1.47409
1.47176
1.46877
1.4649
1.46149
1.45495
2.75197
2.73641
2.72094
2.70555
2.69022
2.67497
2.65977
2.64464
2.62957
2.61456
2.59961
2.58471
2.56988
2.55511
2.54039
2.52572
2.5111
2.49653
2.482
2.4675
2.45302
2.43855
2.42407
2.40957
2.39502
2.38039
2.36567
2.35082
2.33582
2.32065
2.30529
2.28971
2.27391
2.2579
2.24168
2.22527
2.20869
2.19198
2.17516
2.15826
2.14134
2.12441
2.10751
2.09066
2.07389
2.05719
2.04055
2.02396
2.00737
1.99075
1.97403
1.95717
1.94009
1.92275
1.90508
1.88705
1.86863
1.84978
1.83051
1.81082
1.79075
1.77034
1.74967
1.72881
1.70787
1.68695
1.66618
1.64569
1.62559
1.60602
1.58709
1.56891
1.55161
1.53529
1.52007
1.5061
1.49349
1.4824
1.47292
1.46514
1.45908
1.45472
1.45193
1.45057
1.45039
1.45114
1.45252
1.45422
1.45595
1.45741
1.45837
1.45863
1.45804
1.4565
1.45403
1.4506
1.44644
1.44129
1.43669
1.42774
2.73452
2.7178
2.70114
2.68455
2.66801
2.65154
2.63513
2.61878
2.60249
2.58627
2.57011
2.55403
2.53801
2.52206
2.50618
2.49036
2.4746
2.45889
2.44323
2.42762
2.41205
2.39651
2.381
2.36552
2.35005
2.33459
2.31915
2.3037
2.28826
2.27281
2.25734
2.24186
2.22637
2.21087
2.19537
2.17988
2.1644
2.14896
2.13356
2.11821
2.10292
2.08769
2.07252
2.05741
2.04236
2.02733
2.01231
1.99725
1.98211
1.96684
1.95137
1.93566
1.91965
1.90328
1.8865
1.86928
1.85158
1.8334
1.81474
1.7956
1.77603
1.75606
1.73577
1.71524
1.69456
1.67386
1.65326
1.63288
1.61289
1.5934
1.57459
1.55657
1.53951
1.52351
1.50873
1.49526
1.48321
1.47267
1.46369
1.4563
1.45047
1.44614
1.4432
1.44147
1.44075
1.44081
1.44139
1.44221
1.443
1.4435
1.44348
1.44276
1.44119
1.43867
1.43521
1.43076
1.42555
1.41924
1.41359
1.40249
2.72658
2.7092
2.69185
2.67455
2.6573
2.6401
2.62294
2.60584
2.58879
2.5718
2.55488
2.53803
2.52125
2.50455
2.48792
2.47137
2.4549
2.4385
2.42217
2.40591
2.38972
2.3736
2.35754
2.34154
2.32561
2.30974
2.29394
2.27821
2.26255
2.24696
2.23144
2.216
2.20064
2.18537
2.17019
2.15511
2.14013
2.12526
2.11049
2.09584
2.08128
2.06682
2.05244
2.03813
2.02385
2.00959
1.9953
1.98095
1.96647
1.95183
1.93696
1.92181
1.90632
1.89045
1.87415
1.85738
1.84012
1.82237
1.80412
1.78538
1.7662
1.74662
1.72671
1.70654
1.68621
1.66584
1.64554
1.62544
1.60569
1.58644
1.56783
1.55001
1.53312
1.5173
1.50267
1.48933
1.47739
1.46689
1.45788
1.45035
1.44426
1.43955
1.43608
1.43372
1.43226
1.43149
1.43117
1.43106
1.43089
1.43043
1.42947
1.42781
1.42531
1.42188
1.4175
1.41212
1.40595
1.3986
1.39202
1.37904
2.72322
2.70549
2.68778
2.6701
2.65245
2.63483
2.61725
2.59971
2.58222
2.56477
2.54739
2.53007
2.51282
2.49564
2.47853
2.46151
2.44457
2.42772
2.41095
2.39427
2.37767
2.36117
2.34475
2.32842
2.31219
2.29606
2.28002
2.26409
2.24827
2.23256
2.21696
2.20149
2.18615
2.17093
2.15585
2.14091
2.12612
2.11146
2.09694
2.08255
2.06828
2.05412
2.04005
2.02604
2.01208
1.99812
1.98412
1.97005
1.95585
1.94147
1.92686
1.91195
1.89671
1.88109
1.86504
1.84853
1.83155
1.81408
1.79613
1.7777
1.75885
1.7396
1.72003
1.70021
1.68023
1.6602
1.64023
1.62045
1.601
1.58201
1.56363
1.54601
1.52927
1.51355
1.49897
1.48563
1.4736
1.46295
1.45368
1.4458
1.43926
1.43398
1.42986
1.42675
1.42447
1.42283
1.4216
1.42055
1.41945
1.41807
1.4162
1.41365
1.4103
1.40602
1.4008
1.39456
1.38754
1.37927
1.37186
1.35722
2.72186
2.70396
2.68607
2.6682
2.65034
2.63251
2.6147
2.59693
2.57919
2.56149
2.54384
2.52624
2.50871
2.49124
2.47384
2.45651
2.43927
2.42212
2.40505
2.38808
2.3712
2.35443
2.33775
2.32118
2.30472
2.28837
2.27214
2.25604
2.24006
2.22422
2.20851
2.19295
2.17754
2.16228
2.14717
2.13223
2.11744
2.1028
2.08832
2.07397
2.05976
2.04566
2.03166
2.01772
2.00382
1.98993
1.976
1.962
1.94787
1.93356
1.91903
1.90422
1.88909
1.87359
1.85768
1.84133
1.82453
1.80726
1.78953
1.77136
1.75278
1.73383
1.71456
1.69506
1.67541
1.65571
1.63606
1.6166
1.59743
1.57871
1.56057
1.54313
1.52653
1.51088
1.49631
1.4829
1.47072
1.45982
1.45023
1.44191
1.43485
1.42896
1.42414
1.42026
1.41715
1.41463
1.41251
1.41056
1.40857
1.40631
1.40359
1.40022
1.39606
1.391
1.38501
1.37801
1.37022
1.36112
1.35298
1.3369
2.7213
2.70332
2.68534
2.66738
2.64942
2.63148
2.61356
2.59566
2.57779
2.55995
2.54215
2.52439
2.50669
2.48905
2.47147
2.45396
2.43652
2.41917
2.4019
2.38473
2.36765
2.35067
2.3338
2.31703
2.30039
2.28386
2.26746
2.25119
2.23506
2.21907
2.20323
2.18755
2.17202
2.15665
2.14145
2.12641
2.11154
2.09683
2.08228
2.06787
2.05359
2.03943
2.02537
2.01138
1.99743
1.98349
1.96952
1.95548
1.94132
1.927
1.91246
1.89767
1.88256
1.86711
1.85128
1.83504
1.81837
1.80127
1.78373
1.76577
1.74742
1.72873
1.70974
1.69054
1.67119
1.6518
1.63246
1.61329
1.5944
1.57593
1.558
1.54073
1.52425
1.50866
1.49408
1.48058
1.46822
1.45706
1.4471
1.43834
1.43074
1.42423
1.41871
1.41406
1.41015
1.40679
1.40381
1.401
1.39816
1.39507
1.39155
1.38742
1.38253
1.37676
1.37008
1.36239
1.35391
1.34409
1.33531
1.31797
2.72103
2.70301
2.68499
2.66697
2.64896
2.63097
2.61298
2.59501
2.57707
2.55915
2.54127
2.52342
2.50562
2.48787
2.47017
2.45254
2.43498
2.41749
2.40008
2.38276
2.36553
2.3484
2.33138
2.31446
2.29766
2.28098
2.26442
2.248
2.23173
2.21559
2.19961
2.18378
2.16812
2.15262
2.13728
2.12212
2.10712
2.09228
2.0776
2.06307
2.04867
2.03439
2.02021
2.00611
1.99205
1.978
1.96394
1.94981
1.93558
1.92119
1.90661
1.89179
1.87669
1.86126
1.84548
1.82931
1.81274
1.79577
1.77839
1.76062
1.74249
1.72403
1.70531
1.68637
1.66731
1.6482
1.62915
1.61025
1.59163
1.57339
1.55565
1.53854
1.52216
1.50662
1.49201
1.4784
1.46587
1.45443
1.44412
1.43491
1.42678
1.41966
1.41346
1.40808
1.40339
1.39923
1.39543
1.39181
1.38817
1.38431
1.38005
1.37521
1.36964
1.36323
1.35593
1.34763
1.33854
1.32809
1.31875
1.30033
2.72085
2.70281
2.68476
2.66672
2.64868
2.63064
2.61262
2.59461
2.57662
2.55865
2.54071
2.52281
2.50494
2.48711
2.46934
2.45162
2.43397
2.41638
2.39887
2.38144
2.3641
2.34685
2.3297
2.31265
2.29572
2.2789
2.26221
2.24566
2.22924
2.21296
2.19684
2.18087
2.16506
2.14941
2.13393
2.11862
2.10347
2.08849
2.07366
2.05898
2.04444
2.03001
2.01569
2.00145
1.98726
1.97308
1.9589
1.94466
1.93033
1.91587
1.90122
1.88636
1.87123
1.85581
1.84006
1.82395
1.80747
1.79062
1.77338
1.75578
1.73785
1.71961
1.70112
1.68244
1.66364
1.6448
1.62601
1.60737
1.58898
1.57096
1.55341
1.53644
1.52015
1.50464
1.48999
1.47628
1.46356
1.45186
1.44119
1.43155
1.42291
1.4152
1.40835
1.40227
1.39684
1.39191
1.38734
1.38295
1.37856
1.37398
1.36903
1.36353
1.35736
1.35037
1.34251
1.33368
1.32407
1.31306
1.30325
1.28389
2.7207
2.70264
2.68458
2.66651
2.64845
2.63039
2.61234
2.5943
2.57627
2.55827
2.54028
2.52233
2.50441
2.48653
2.4687
2.45091
2.43319
2.41552
2.39793
2.38041
2.36297
2.34562
2.32836
2.31121
2.29416
2.27723
2.26042
2.24373
2.22718
2.21077
2.19451
2.1784
2.16245
2.14666
2.13103
2.11557
2.10027
2.08513
2.07015
2.05531
2.04062
2.02604
2.01157
1.99717
1.98284
1.96853
1.95422
1.93986
1.92543
1.91088
1.89616
1.88125
1.8661
1.85067
1.83494
1.81888
1.80248
1.78572
1.76862
1.75118
1.73343
1.71539
1.69712
1.67868
1.66012
1.64153
1.62298
1.60458
1.58642
1.5686
1.55122
1.53437
1.51816
1.50267
1.48799
1.47417
1.46126
1.4493
1.43829
1.42823
1.41909
1.41082
1.40335
1.3966
1.39046
1.38481
1.3795
1.37438
1.36929
1.36404
1.35845
1.35236
1.34563
1.33812
1.32978
1.32049
1.31042
1.29895
1.28873
1.26859
2.72057
2.70249
2.68441
2.66633
2.64824
2.63016
2.61208
2.59402
2.57596
2.55792
2.53991
2.52191
2.50395
2.48602
2.46814
2.4503
2.43251
2.41478
2.39711
2.37951
2.36199
2.34455
2.3272
2.30995
2.2928
2.27576
2.25883
2.24203
2.22536
2.20883
2.19243
2.17619
2.1601
2.14417
2.1284
2.11279
2.09734
2.08205
2.06692
2.05193
2.03707
2.02234
2.00772
1.99318
1.9787
1.96426
1.94982
1.93534
1.9208
1.90616
1.89137
1.87641
1.86122
1.84579
1.83007
1.81406
1.79772
1.78106
1.76408
1.74678
1.7292
1.71135
1.69329
1.67506
1.65673
1.63837
1.62006
1.60188
1.58392
1.56628
1.54905
1.53232
1.51618
1.50071
1.48598
1.47205
1.45896
1.44674
1.4354
1.42494
1.41533
1.40652
1.39845
1.39106
1.38425
1.3779
1.3719
1.36609
1.36033
1.35445
1.34828
1.34164
1.33442
1.32645
1.31769
1.308
1.29756
1.2857
1.27515
1.25437
2.72043
2.70235
2.68425
2.66615
2.64805
2.62994
2.61184
2.59375
2.57567
2.5576
2.53955
2.52152
2.50352
2.48555
2.46762
2.44973
2.43188
2.41409
2.39636
2.37869
2.36109
2.34357
2.32614
2.30879
2.29155
2.27441
2.25738
2.24047
2.22368
2.20703
2.19052
2.17415
2.15793
2.14186
2.12595
2.1102
2.09461
2.07917
2.06389
2.04875
2.03375
2.01887
2.00409
1.98941
1.97479
1.96022
1.94565
1.93106
1.91642
1.90169
1.88683
1.87181
1.85659
1.84114
1.82544
1.80946
1.79319
1.77661
1.75974
1.74258
1.72515
1.70747
1.6896
1.67158
1.65346
1.63532
1.61722
1.59924
1.58148
1.56401
1.54692
1.53029
1.51421
1.49875
1.48397
1.46992
1.45666
1.44419
1.43253
1.42168
1.41161
1.40228
1.39365
1.38564
1.37818
1.37117
1.3645
1.35804
1.35165
1.34517
1.33845
1.33133
1.32366
1.3153
1.30618
1.29617
1.28543
1.27326
1.26246
1.24117
2.72031
2.70221
2.6841
2.66598
2.64786
2.62974
2.61162
2.5935
2.57539
2.5573
2.53922
2.52116
2.50312
2.48511
2.46713
2.44919
2.43129
2.41344
2.39565
2.37792
2.36025
2.34266
2.32514
2.30772
2.29038
2.27315
2.25602
2.23901
2.22212
2.20535
2.18872
2.17223
2.15589
2.1397
2.12365
2.10777
2.09204
2.07646
2.06103
2.04575
2.03061
2.01558
2.00067
1.98585
1.9711
1.95639
1.9417
1.927
1.91226
1.89744
1.88251
1.86744
1.85219
1.83673
1.82104
1.80509
1.78887
1.77237
1.7556
1.73856
1.72127
1.70376
1.68607
1.66823
1.65031
1.63237
1.61447
1.59668
1.5791
1.56178
1.54482
1.52828
1.51225
1.49679
1.48196
1.46781
1.45437
1.44166
1.42969
1.41846
1.40794
1.39811
1.38893
1.38032
1.37223
1.36457
1.35726
1.35017
1.34317
1.33614
1.32891
1.32133
1.31327
1.30458
1.29519
1.28493
1.27397
1.26159
1.25062
1.22896
2.72019
2.70207
2.68395
2.66582
2.64768
2.62954
2.6114
2.59326
2.57513
2.55701
2.5389
2.5208
2.50273
2.48468
2.46666
2.44868
2.43073
2.41283
2.39498
2.37719
2.35946
2.3418
2.32421
2.3067
2.28928
2.27196
2.25474
2.23764
2.22064
2.20377
2.18704
2.17043
2.15397
2.13766
2.12149
2.10548
2.08962
2.07391
2.05834
2.04293
2.02764
2.01248
1.99743
1.98248
1.9676
1.95277
1.93797
1.92317
1.90833
1.89343
1.87843
1.8633
1.84802
1.83254
1.81686
1.80094
1.78477
1.76834
1.75167
1.73474
1.71758
1.70022
1.68269
1.66503
1.64729
1.62953
1.61182
1.59421
1.57679
1.55962
1.54277
1.52632
1.51034
1.49488
1.48
1.46573
1.45211
1.43917
1.4269
1.41529
1.40435
1.39402
1.38428
1.37508
1.36636
1.35806
1.3501
1.34238
1.3348
1.32722
1.31952
1.31154
1.30315
1.2942
1.28461
1.2742
1.26313
1.25064
1.23959
1.21772
2.72007
2.70194
2.68381
2.66566
2.6475
2.62935
2.61119
2.59303
2.57487
2.55673
2.53859
2.52047
2.50236
2.48428
2.46622
2.4482
2.4302
2.41226
2.39435
2.3765
2.35871
2.34098
2.32333
2.30575
2.28825
2.27085
2.25354
2.23635
2.21926
2.20229
2.18545
2.16874
2.15217
2.13574
2.11946
2.10332
2.08734
2.0715
2.05581
2.04026
2.02485
2.00956
1.99439
1.97931
1.9643
1.94936
1.93445
1.91954
1.90462
1.88964
1.87457
1.8594
1.84408
1.82859
1.81291
1.79701
1.78089
1.76453
1.74794
1.73112
1.71408
1.69686
1.67948
1.66199
1.64442
1.62684
1.6093
1.59186
1.57459
1.55755
1.54082
1.52445
1.50851
1.49304
1.47811
1.46373
1.44994
1.43676
1.42418
1.4122
1.40081
1.38998
1.37967
1.36986
1.36049
1.35152
1.34289
1.33453
1.32636
1.31826
1.31011
1.30179
1.29315
1.28403
1.27436
1.26391
1.25286
1.2404
1.2294