/*--------------------------------*- C++ -*----------------------------------*\
  =========                 |
  \\      /  F ield         | OpenFOAM: The Open Source CFD Toolbox
   \\    /   O peration     | Website:  https://openfoam.org
    \\  /    A nd           | Version:  10
     \\/     M anipulation  |
\*---------------------------------------------------------------------------*/
FoamFile
{
    format      ascii;
    class       volScalarField;
    location    "0.15";
    object      k;
}
// * * * * * * * * * * * * * * * * * * * * * * * * * * * * * * * * * * * * * //

dimensions      [0 2 -2 0 0 0 0];

internalField   nonuniform List<scalar> 
6820
(
0.196709
0.190616
0.184994
0.179724
0.174798
0.17025
0.166115
0.162408
0.159125
0.156249
0.153751
0.151601
0.149767
0.148215
0.146917
0.145845
0.144973
0.144279
0.143742
0.143344
0.143068
0.1429
0.142826
0.142835
0.142917
0.143063
0.143261
0.143526
0.14374
0.14443
0.143104
0.151396
0.114784
0.201954
0.200831
0.197543
0.193922
0.19084
0.188584
0.187154
0.186427
0.186257
0.18651
0.187079
0.187885
0.188867
0.18998
0.191191
0.192473
0.193806
0.195174
0.196564
0.197965
0.19937
0.200772
0.202166
0.20355
0.204921
0.20628
0.207635
0.208996
0.210382
0.211915
0.213374
0.21645
0.217095
0.200488
0.200475
0.199118
0.19707
0.194841
0.19269
0.190724
0.188985
0.187488
0.18623
0.185203
0.184391
0.183773
0.183332
0.183046
0.182898
0.182871
0.18295
0.18312
0.183371
0.18369
0.184069
0.184499
0.184974
0.185487
0.186036
0.186615
0.187228
0.187867
0.188573
0.189265
0.190147
0.190815
0.199662
0.199121
0.198219
0.196983
0.195545
0.194012
0.192458
0.190931
0.189463
0.188074
0.186776
0.185577
0.184479
0.183481
0.182582
0.181778
0.181062
0.180431
0.179878
0.179397
0.178984
0.178633
0.178339
0.178098
0.177905
0.177757
0.177653
0.17759
0.177567
0.177593
0.177657
0.177784
0.177957
0.199429
0.198466
0.197531
0.196513
0.195399
0.194214
0.192986
0.19174
0.190495
0.189267
0.188069
0.186909
0.185794
0.184728
0.183714
0.182753
0.181846
0.180993
0.180191
0.179441
0.178739
0.178084
0.177473
0.176906
0.176379
0.175891
0.17544
0.175026
0.174646
0.174304
0.173995
0.173723
0.173482
0.199398
0.198267
0.197202
0.196166
0.195133
0.194088
0.193029
0.191959
0.190884
0.189812
0.188751
0.187704
0.186679
0.185678
0.184704
0.183761
0.18285
0.181972
0.181127
0.180316
0.179538
0.178793
0.178081
0.1774
0.17675
0.176131
0.175541
0.174979
0.174446
0.173941
0.173463
0.173013
0.172587
0.199395
0.19822
0.197098
0.196021
0.194978
0.193957
0.192952
0.191958
0.190973
0.189998
0.189032
0.188079
0.187141
0.186219
0.185315
0.184431
0.183568
0.182727
0.181909
0.181115
0.180344
0.179598
0.178875
0.178175
0.1775
0.176847
0.176218
0.175611
0.175026
0.174463
0.173923
0.173404
0.172906
0.199395
0.198211
0.197069
0.195969
0.194908
0.193881
0.192884
0.191912
0.190961
0.19003
0.189115
0.188218
0.187337
0.186473
0.185626
0.184795
0.183983
0.183189
0.182412
0.181655
0.180916
0.180197
0.179496
0.178814
0.178151
0.177507
0.176881
0.176273
0.175684
0.175113
0.174561
0.174026
0.173509
0.199395
0.198209
0.197063
0.195955
0.194884
0.19385
0.192848
0.191877
0.190934
0.190017
0.189123
0.188252
0.1874
0.186569
0.185756
0.184962
0.184186
0.183427
0.182686
0.181963
0.181256
0.180566
0.179894
0.179237
0.178598
0.177974
0.177367
0.176775
0.1762
0.17564
0.175097
0.174569
0.174056
0.199395
0.198209
0.197061
0.195951
0.194877
0.193838
0.192833
0.19186
0.190916
0.190002
0.189113
0.18825
0.187411
0.186594
0.185799
0.185024
0.184269
0.183532
0.182814
0.182113
0.18143
0.180763
0.180113
0.179479
0.178861
0.178258
0.17767
0.177097
0.176539
0.175995
0.175466
0.174952
0.174451
0.199395
0.198209
0.197061
0.19595
0.194875
0.193834
0.192827
0.191852
0.190907
0.189992
0.189104
0.188243
0.187408
0.186596
0.185807
0.18504
0.184295
0.183569
0.182863
0.182175
0.181506
0.180853
0.180218
0.179599
0.178996
0.178408
0.177835
0.177277
0.176733
0.176204
0.175688
0.175186
0.174698
0.199395
0.198209
0.19706
0.195949
0.194874
0.193833
0.192825
0.191849
0.190903
0.189987
0.189099
0.188238
0.187402
0.186592
0.185805
0.185041
0.184299
0.183578
0.182877
0.182196
0.181533
0.180888
0.18026
0.17965
0.179055
0.178477
0.177913
0.177365
0.176831
0.176311
0.175805
0.175313
0.174833
0.199395
0.198209
0.19706
0.195949
0.194873
0.193832
0.192824
0.191847
0.190901
0.189984
0.189096
0.188234
0.187399
0.186588
0.185802
0.185038
0.184297
0.183578
0.182879
0.182199
0.181539
0.180898
0.180274
0.179667
0.179077
0.178503
0.177945
0.177401
0.176873
0.176359
0.175858
0.175372
0.174898
0.199395
0.198209
0.19706
0.195949
0.194873
0.193831
0.192823
0.191846
0.1909
0.189983
0.189094
0.188232
0.187396
0.186585
0.185799
0.185035
0.184294
0.183575
0.182876
0.182198
0.181539
0.180898
0.180276
0.17967
0.179082
0.17851
0.177954
0.177413
0.176887
0.176376
0.175878
0.175395
0.174924
0.199395
0.198208
0.19706
0.195948
0.194872
0.193831
0.192822
0.191845
0.190899
0.189982
0.189092
0.18823
0.187394
0.186583
0.185796
0.185033
0.184292
0.183572
0.182874
0.182195
0.181536
0.180896
0.180274
0.179669
0.179081
0.17851
0.177955
0.177415
0.17689
0.176379
0.175883
0.175401
0.174931
0.199395
0.198208
0.19706
0.195948
0.194872
0.19383
0.192822
0.191845
0.190898
0.18998
0.189091
0.188229
0.187393
0.186582
0.185795
0.185031
0.18429
0.18357
0.182871
0.182193
0.181533
0.180893
0.180271
0.179666
0.179079
0.178508
0.177952
0.177413
0.176888
0.176378
0.175882
0.175399
0.17493
0.199395
0.198208
0.19706
0.195948
0.194872
0.19383
0.192821
0.191844
0.190897
0.18998
0.18909
0.188228
0.187391
0.18658
0.185793
0.185029
0.184288
0.183568
0.182869
0.18219
0.181531
0.18089
0.180268
0.179663
0.179076
0.178505
0.177949
0.17741
0.176885
0.176374
0.175878
0.175396
0.174927
0.199395
0.198208
0.19706
0.195948
0.194872
0.19383
0.192821
0.191843
0.190896
0.189979
0.189089
0.188227
0.18739
0.186579
0.185791
0.185027
0.184286
0.183566
0.182867
0.182188
0.181528
0.180888
0.180265
0.179661
0.179073
0.178501
0.177946
0.177406
0.176881
0.176371
0.175874
0.175391
0.174922
0.199395
0.198208
0.197059
0.195948
0.194871
0.193829
0.19282
0.191843
0.190896
0.189978
0.189088
0.188226
0.187389
0.186577
0.18579
0.185026
0.184284
0.183564
0.182865
0.182186
0.181526
0.180886
0.180263
0.179658
0.17907
0.178499
0.177943
0.177403
0.176878
0.176367
0.17587
0.175387
0.174917
0.199395
0.198208
0.197059
0.195948
0.194871
0.193829
0.19282
0.191843
0.190895
0.189977
0.189088
0.188225
0.187388
0.186576
0.185789
0.185024
0.184283
0.183562
0.182863
0.182184
0.181524
0.180883
0.180261
0.179656
0.179067
0.178496
0.17794
0.177399
0.176874
0.176363
0.175866
0.175383
0.174912
0.199395
0.198208
0.197059
0.195947
0.194871
0.193829
0.19282
0.191842
0.190895
0.189977
0.189087
0.188224
0.187387
0.186575
0.185788
0.185023
0.184281
0.183561
0.182862
0.182182
0.181522
0.180881
0.180258
0.179653
0.179065
0.178493
0.177937
0.177396
0.176871
0.176359
0.175862
0.175378
0.174908
0.199395
0.198208
0.197059
0.195947
0.194871
0.193829
0.19282
0.191842
0.190895
0.189976
0.189086
0.188223
0.187386
0.186574
0.185787
0.185022
0.18428
0.18356
0.18286
0.182181
0.181521
0.180879
0.180256
0.179651
0.179062
0.17849
0.177934
0.177393
0.176867
0.176356
0.175858
0.175374
0.174903
0.199395
0.198208
0.197059
0.195947
0.194871
0.193829
0.192819
0.191842
0.190894
0.189976
0.189086
0.188223
0.187386
0.186574
0.185786
0.185021
0.184279
0.183558
0.182859
0.182179
0.181519
0.180878
0.180254
0.179649
0.17906
0.178488
0.177931
0.17739
0.176864
0.176352
0.175855
0.17537
0.174899
0.199395
0.198208
0.197059
0.195947
0.194871
0.193829
0.192819
0.191841
0.190894
0.189976
0.189085
0.188222
0.187385
0.186573
0.185785
0.18502
0.184278
0.183557
0.182857
0.182178
0.181517
0.180876
0.180253
0.179647
0.179058
0.178485
0.177929
0.177388
0.176861
0.176349
0.175851
0.175366
0.174895
0.199395
0.198208
0.197059
0.195947
0.194871
0.193829
0.192819
0.191841
0.190894
0.189975
0.189085
0.188222
0.187385
0.186572
0.185784
0.185019
0.184277
0.183556
0.182856
0.182176
0.181516
0.180874
0.180251
0.179645
0.179056
0.178483
0.177926
0.177385
0.176858
0.176346
0.175848
0.175363
0.174891
0.199395
0.198208
0.197059
0.195947
0.194871
0.193828
0.192819
0.191841
0.190894
0.189975
0.189085
0.188221
0.187384
0.186572
0.185784
0.185019
0.184276
0.183555
0.182855
0.182175
0.181515
0.180873
0.180249
0.179643
0.179054
0.178481
0.177924
0.177382
0.176856
0.176343
0.175844
0.175359
0.174887
0.199395
0.198208
0.197059
0.195947
0.194871
0.193828
0.192819
0.191841
0.190893
0.189975
0.189085
0.188221
0.187384
0.186571
0.185783
0.185018
0.184276
0.183555
0.182854
0.182174
0.181514
0.180872
0.180248
0.179642
0.179052
0.178479
0.177922
0.17738
0.176853
0.17634
0.175841
0.175356
0.174883
0.199395
0.198208
0.197059
0.195947
0.194871
0.193828
0.192819
0.191841
0.190893
0.189975
0.189084
0.188221
0.187384
0.186571
0.185783
0.185018
0.184275
0.183554
0.182854
0.182174
0.181513
0.180871
0.180247
0.17964
0.179051
0.178478
0.17792
0.177378
0.176851
0.176338
0.175839
0.175353
0.17488
0.199395
0.198208
0.197059
0.195947
0.194871
0.193828
0.192819
0.191841
0.190893
0.189975
0.189084
0.188221
0.187383
0.186571
0.185782
0.185017
0.184275
0.183553
0.182853
0.182173
0.181512
0.18087
0.180246
0.179639
0.17905
0.178476
0.177919
0.177376
0.176849
0.176336
0.175836
0.17535
0.174878
0.199395
0.198208
0.197059
0.195947
0.194871
0.193828
0.192819
0.191841
0.190894
0.189975
0.189085
0.188221
0.187384
0.186571
0.185783
0.185018
0.184275
0.183554
0.182853
0.182173
0.181512
0.18087
0.180245
0.179639
0.179049
0.178475
0.177918
0.177375
0.176848
0.176334
0.175835
0.175349
0.174875
0.199395
0.198208
0.197059
0.195947
0.194871
0.193828
0.192819
0.191841
0.190893
0.189975
0.189084
0.188221
0.187383
0.186571
0.185783
0.185017
0.184275
0.183553
0.182853
0.182173
0.181512
0.180869
0.180245
0.179638
0.179048
0.178475
0.177917
0.177374
0.176847
0.176333
0.175833
0.175347
0.174874
0.199395
0.198208
0.197059
0.195948
0.194871
0.193829
0.19282
0.191843
0.190895
0.189977
0.189087
0.188223
0.187386
0.186574
0.185785
0.18502
0.184277
0.183556
0.182855
0.182175
0.181514
0.180871
0.180247
0.17964
0.17905
0.178476
0.177918
0.177375
0.176847
0.176333
0.175833
0.175347
0.174873
0.199395
0.198209
0.19706
0.195949
0.194872
0.19383
0.192821
0.191843
0.190896
0.189977
0.189087
0.188224
0.187387
0.186575
0.185786
0.185021
0.184279
0.183557
0.182857
0.182177
0.181515
0.180873
0.180248
0.179641
0.179051
0.178477
0.177918
0.177375
0.176847
0.176332
0.175832
0.175344
0.17487
0.199395
0.198208
0.19706
0.19595
0.194875
0.193835
0.192827
0.191851
0.190904
0.189987
0.189097
0.188234
0.187397
0.186585
0.185796
0.185031
0.184287
0.183566
0.182864
0.182183
0.181521
0.180877
0.180251
0.179643
0.179051
0.178475
0.177915
0.17737
0.176839
0.176322
0.175819
0.175329
0.174852
0.199396
0.198212
0.197066
0.195957
0.194883
0.193842
0.192834
0.191857
0.190911
0.189993
0.189104
0.188241
0.187403
0.18659
0.185801
0.185034
0.184289
0.183565
0.182862
0.182177
0.181511
0.180864
0.180233
0.17962
0.179023
0.178441
0.177875
0.177323
0.176786
0.176262
0.175751
0.175254
0.174769
0.199396
0.198213
0.197071
0.195969
0.194902
0.193869
0.192866
0.191893
0.190947
0.190029
0.189137
0.188269
0.187426
0.186606
0.185808
0.185031
0.184276
0.18354
0.182823
0.182125
0.181445
0.180782
0.180136
0.179506
0.178892
0.178293
0.177709
0.177139
0.176584
0.176041
0.175512
0.174996
0.174492
0.199402
0.19824
0.197114
0.196019
0.194953
0.193916
0.192909
0.191928
0.190972
0.19004
0.189131
0.188245
0.18738
0.186535
0.185711
0.184907
0.184122
0.183356
0.182608
0.181878
0.181165
0.180469
0.179789
0.179126
0.178478
0.177845
0.177226
0.176622
0.176032
0.175456
0.174893
0.174342
0.173805
0.199421
0.198284
0.197214
0.196182
0.195158
0.194136
0.193118
0.19211
0.191116
0.19014
0.189186
0.188254
0.187345
0.18646
0.185597
0.184757
0.183939
0.183141
0.182363
0.181605
0.180866
0.180145
0.179441
0.178754
0.178083
0.177428
0.176788
0.176163
0.175553
0.174956
0.174373
0.173804
0.173248
0.199655
0.198885
0.198077
0.197302
0.196604
0.195976
0.195406
0.194882
0.194399
0.193953
0.193544
0.19317
0.192831
0.192524
0.19225
0.192006
0.191792
0.191605
0.191445
0.191309
0.191196
0.191105
0.191035
0.190984
0.19095
0.190933
0.190932
0.190946
0.190973
0.191012
0.191064
0.191127
0.191201
0.205419
0.216602
0.227661
0.238503
0.249093
0.259416
0.269459
0.279212
0.288667
0.297818
0.306659
0.31519
0.323408
0.331315
0.338914
0.346208
0.353202
0.359901
0.366313
0.372444
0.378301
0.383894
0.389229
0.394317
0.399164
0.40378
0.408174
0.412355
0.41633
0.420109
0.423699
0.427108
0.430348
0.317952
0.633115
0.954365
1.24294
1.47866
1.65281
1.76786
1.83421
1.86519
1.87327
1.86807
1.85604
1.841
1.82496
1.8089
1.79327
1.77834
1.76434
1.75147
1.73993
1.72983
1.72122
1.714
1.70799
1.70293
1.69846
1.6942
1.68973
1.6846
1.67838
1.67062
1.66086
1.64868
1.63368
1.6155
1.59385
1.56849
1.5393
1.50621
1.46926
1.42858
1.38442
1.33712
1.28713
1.23502
1.18143
1.12711
1.07283
1.0194
0.967611
0.918211
0.871857
0.829099
0.790357
0.755914
0.725909
0.700341
0.67908
0.661872
0.648353
0.638053
0.630408
0.624765
0.620395
0.616506
0.612265
0.606829
0.599377
0.589155
0.57552
0.557984
0.536259
0.5103
0.480338
0.446911
0.410876
0.373395
0.33588
0.299872
0.266853
0.238017
0.214069
0.195144
0.18088
0.170604
0.163533
0.158921
0.156131
0.154658
0.154121
0.154243
0.154831
0.155756
0.156931
0.158308
0.159852
0.161543
0.163387
0.165162
0.168244
0.230997
0.260422
0.305128
0.365958
0.442561
0.533113
0.634012
0.740311
0.846369
0.946877
1.0376
1.11577
1.18028
1.23141
1.27049
1.29941
1.32022
1.33479
1.34468
1.35112
1.35499
1.35693
1.35736
1.35654
1.35461
1.35159
1.34743
1.34202
1.3352
1.32677
1.31649
1.30411
1.28937
1.272
1.25179
1.22854
1.20215
1.17259
1.1399
1.10422
1.06577
1.02488
0.981948
0.937474
0.892029
0.846248
0.800806
0.756388
0.713658
0.673227
0.635618
0.601251
0.570422
0.543309
0.519973
0.500371
0.484376
0.471787
0.462345
0.455734
0.451588
0.449481
0.448931
0.449388
0.450241
0.450826
0.45045
0.448415
0.444067
0.436837
0.426295
0.412197
0.394528
0.373533
0.349742
0.323958
0.29722
0.270713
0.245639
0.22304
0.203649
0.187798
0.175436
0.166227
0.159683
0.15528
0.152528
0.151012
0.150394
0.150417
0.150894
0.151689
0.152715
0.153915
0.15526
0.156729
0.158317
0.160038
0.16169
0.164589
0.191733
0.19398
0.198695
0.206493
0.217664
0.232531
0.251536
0.275224
0.304261
0.339129
0.379806
0.425688
0.475614
0.527979
0.580932
0.632606
0.681332
0.725808
0.765193
0.799111
0.827589
0.850941
0.869639
0.884197
0.895089
0.902707
0.907349
0.909224
0.908469
0.905165
0.899348
0.891014
0.880135
0.866671
0.850591
0.831895
0.810629
0.786903
0.760889
0.73283
0.703034
0.67187
0.639763
0.60718
0.574624
0.542607
0.511635
0.482176
0.454639
0.42935
0.406546
0.386362
0.368845
0.353966
0.341633
0.331718
0.324067
0.31851
0.314873
0.312969
0.312596
0.313527
0.315491
0.318168
0.321177
0.324072
0.32636
0.327515
0.327017
0.324399
0.319291
0.311476
0.300929
0.287848
0.272663
0.256014
0.238702
0.221596
0.205522
0.191149
0.178906
0.168963
0.16126
0.15558
0.151623
0.149065
0.147601
0.146962
0.14693
0.14733
0.148033
0.148949
0.150017
0.151201
0.152483
0.153855
0.15532
0.156901
0.158413
0.161093
0.178105
0.178277
0.178666
0.179452
0.180781
0.182771
0.185522
0.189147
0.193789
0.199597
0.2068
0.21566
0.226429
0.239313
0.254427
0.271759
0.291131
0.312194
0.334445
0.357272
0.380016
0.402034
0.422753
0.441701
0.458516
0.472945
0.484833
0.494105
0.500756
0.504827
0.50639
0.505535
0.502355
0.496947
0.489416
0.479888
0.468516
0.455492
0.441046
0.42544
0.408969
0.391946
0.374693
0.357535
0.340781
0.324716
0.309589
0.295598
0.282886
0.271539
0.261589
0.253019
0.245784
0.239813
0.235026
0.231342
0.228686
0.226989
0.226188
0.226224
0.227032
0.228534
0.23063
0.233181
0.236003
0.238857
0.24145
0.243445
0.244486
0.244226
0.242374
0.238738
0.233261
0.226047
0.217372
0.207659
0.197435
0.187265
0.177672
0.169076
0.161747
0.155805
0.151234
0.147924
0.145707
0.144394
0.143798
0.143748
0.1441
0.144739
0.145576
0.146547
0.147614
0.148751
0.149951
0.151212
0.152544
0.153972
0.155334
0.157771
0.173204
0.172877
0.17258
0.172355
0.172236
0.172256
0.172443
0.172818
0.173404
0.174215
0.175279
0.176637
0.17834
0.180444
0.183008
0.18609
0.189738
0.193984
0.198837
0.204275
0.210241
0.21664
0.223343
0.230192
0.237003
0.243583
0.249735
0.255274
0.260039
0.263899
0.266763
0.268571
0.269299
0.268952
0.267561
0.265185
0.261908
0.25784
0.253109
0.247859
0.242241
0.236406
0.230499
0.224652
0.218982
0.213589
0.208549
0.203919
0.199734
0.196012
0.192754
0.189951
0.187587
0.185641
0.184095
0.18293
0.182133
0.181693
0.181605
0.181863
0.182462
0.18339
0.184622
0.186115
0.187797
0.189565
0.191273
0.192744
0.193768
0.19413
0.19363
0.192119
0.189522
0.185867
0.18129
0.176025
0.170376
0.164677
0.159247
0.154348
0.150163
0.146789
0.14424
0.142469
0.141388
0.140889
0.140856
0.141182
0.141772
0.142546
0.143446
0.144426
0.145459
0.146529
0.147635
0.148778
0.149971
0.151241
0.152448
0.154626
0.172113
0.171574
0.171041
0.170524
0.170031
0.169572
0.16916
0.168805
0.168513
0.168288
0.168133
0.168053
0.168054
0.168144
0.168332
0.16863
0.169048
0.169597
0.170284
0.171114
0.172085
0.173191
0.174417
0.175742
0.177137
0.178565
0.179981
0.18134
0.182591
0.183687
0.184588
0.185256
0.185666
0.1858
0.185651
0.185221
0.184524
0.183582
0.182428
0.181098
0.179633
0.178076
0.176466
0.174842
0.173237
0.17168
0.170195
0.168799
0.167507
0.166327
0.165263
0.164315
0.163484
0.162768
0.162164
0.161673
0.161296
0.161035
0.160897
0.160888
0.161014
0.161281
0.161689
0.16223
0.162882
0.163606
0.164343
0.165009
0.1655
0.165701
0.165496
0.164786
0.16351
0.161661
0.15929
0.156512
0.153487
0.1504
0.147438
0.144762
0.142492
0.140702
0.139413
0.138609
0.138244
0.138254
0.138568
0.139116
0.139835
0.140671
0.141582
0.142536
0.143514
0.144504
0.145508
0.14653
0.147584
0.148697
0.14975
0.15166
0.172348
0.171721
0.171094
0.170473
0.169858
0.169253
0.168661
0.168086
0.167533
0.167005
0.166502
0.166027
0.165581
0.165166
0.164782
0.164433
0.164119
0.163842
0.163605
0.16341
0.163256
0.163143
0.163069
0.163032
0.163026
0.163044
0.163077
0.163115
0.163146
0.163159
0.163142
0.163084
0.162978
0.162815
0.162591
0.162305
0.161955
0.161546
0.161083
0.160575
0.160029
0.159457
0.158867
0.15827
0.157675
0.157088
0.156516
0.155962
0.155431
0.154922
0.154436
0.153973
0.15353
0.153108
0.152703
0.152318
0.151954
0.151612
0.151299
0.15102
0.150782
0.150592
0.150456
0.150378
0.150355
0.150377
0.150423
0.15046
0.150444
0.150319
0.150027
0.149514
0.148742
0.147696
0.146396
0.144891
0.143263
0.141611
0.140039
0.138642
0.137494
0.136644
0.13611
0.135888
0.13595
0.136258
0.136767
0.137429
0.138203
0.139048
0.139934
0.140838
0.141745
0.142648
0.143548
0.144449
0.145367
0.146326
0.14723
0.148872
0.172927
0.172271
0.171613
0.170956
0.1703
0.169646
0.168997
0.168352
0.167716
0.167088
0.16647
0.165865
0.165272
0.164693
0.164128
0.163578
0.163043
0.162525
0.162024
0.161539
0.161072
0.160623
0.160192
0.159778
0.159381
0.159
0.158632
0.158276
0.15793
0.157589
0.157252
0.156916
0.156578
0.156236
0.155888
0.155534
0.155173
0.154806
0.154434
0.154057
0.153678
0.153299
0.152922
0.152549
0.15218
0.151817
0.151458
0.151104
0.150751
0.150399
0.150043
0.149681
0.149309
0.148925
0.148527
0.148113
0.147684
0.14724
0.146784
0.14632
0.145853
0.145389
0.144935
0.144497
0.14408
0.143684
0.143306
0.142939
0.142565
0.142165
0.141714
0.141188
0.140567
0.139845
0.139026
0.138137
0.137217
0.136318
0.135495
0.134802
0.134283
0.133964
0.133859
0.133963
0.134261
0.134725
0.135325
0.136029
0.136804
0.137622
0.13846
0.139298
0.140126
0.140937
0.141732
0.142517
0.143305
0.144117
0.144877
0.146258
0.173477
0.172822
0.172166
0.171507
0.170848
0.170187
0.169526
0.168866
0.168208
0.167552
0.1669
0.166253
0.165612
0.164978
0.164351
0.163732
0.163122
0.162521
0.161929
0.161347
0.160775
0.160214
0.159664
0.159125
0.158598
0.158082
0.157578
0.157086
0.156605
0.156136
0.155677
0.155229
0.15479
0.154361
0.153941
0.153531
0.15313
0.152738
0.152355
0.151982
0.151618
0.151263
0.150916
0.150578
0.150246
0.149918
0.149594
0.149269
0.14894
0.148603
0.148255
0.147891
0.147507
0.147099
0.146666
0.146203
0.145711
0.145189
0.144639
0.144062
0.143463
0.142845
0.142216
0.141581
0.140946
0.140318
0.139701
0.139095
0.138501
0.137915
0.137331
0.136742
0.136142
0.135531
0.134914
0.134305
0.133723
0.133198
0.132758
0.132431
0.13224
0.132201
0.132317
0.132586
0.132993
0.133521
0.134145
0.134841
0.135584
0.136352
0.137126
0.137889
0.138633
0.13935
0.140044
0.140716
0.141381
0.142055
0.142682
0.143811
0.173885
0.173243
0.172599
0.171952
0.171303
0.170651
0.169997
0.169343
0.168687
0.168032
0.167378
0.166726
0.166077
0.16543
0.164788
0.16415
0.163517
0.16289
0.162269
0.161654
0.161047
0.160447
0.159855
0.159271
0.158697
0.158132
0.157577
0.157033
0.1565
0.155978
0.155468
0.15497
0.154485
0.154012
0.153553
0.153107
0.152674
0.152255
0.151849
0.151455
0.151074
0.150704
0.150344
0.149993
0.149648
0.149307
0.148968
0.148626
0.148279
0.147921
0.147548
0.147156
0.146741
0.146299
0.145828
0.145323
0.144785
0.144211
0.143602
0.142961
0.142288
0.141589
0.140868
0.140131
0.139385
0.138636
0.137891
0.137157
0.136439
0.135742
0.135069
0.134422
0.133805
0.133221
0.132677
0.132182
0.13175
0.131394
0.131132
0.130977
0.13094
0.131029
0.131242
0.131574
0.132014
0.132546
0.133151
0.133809
0.1345
0.135204
0.135904
0.136588
0.137246
0.137872
0.138468
0.139034
0.139583
0.140128
0.140631
0.141524
0.174145
0.173518
0.172888
0.172256
0.171621
0.170983
0.170342
0.1697
0.169056
0.168411
0.167766
0.167122
0.166478
0.165836
0.165196
0.164559
0.163924
0.163294
0.162668
0.162047
0.16143
0.16082
0.160215
0.159618
0.159027
0.158445
0.157872
0.157308
0.156753
0.15621
0.155677
0.155157
0.154648
0.154152
0.153669
0.1532
0.152745
0.152303
0.151874
0.151459
0.151055
0.150663
0.15028
0.149905
0.149536
0.14917
0.148804
0.148435
0.148059
0.147672
0.14727
0.146847
0.146402
0.145929
0.145426
0.14489
0.144319
0.143712
0.14307
0.142392
0.141682
0.140942
0.140177
0.139391
0.138592
0.137785
0.136979
0.136182
0.135402
0.134646
0.133921
0.133236
0.132596
0.13201
0.131485
0.131029
0.130651
0.130361
0.130168
0.130078
0.130098
0.130227
0.130464
0.130801
0.131227
0.131728
0.132289
0.132891
0.133517
0.13415
0.134774
0.135377
0.13595
0.136487
0.136989
0.137456
0.137899
0.138324
0.138714
0.139388
0.17429
0.173675
0.173058
0.172437
0.171814
0.171189
0.170561
0.169931
0.169299
0.168666
0.168032
0.167398
0.166764
0.166131
0.1655
0.164869
0.164242
0.163616
0.162994
0.162376
0.161761
0.161151
0.160546
0.159946
0.159353
0.158766
0.158187
0.157616
0.157053
0.156501
0.155958
0.155425
0.154904
0.154395
0.153897
0.153413
0.152941
0.152481
0.152034
0.151599
0.151174
0.15076
0.150355
0.149956
0.149562
0.14917
0.148778
0.148382
0.147979
0.147564
0.147135
0.146686
0.146215
0.145717
0.14519
0.144632
0.14404
0.143413
0.142752
0.142056
0.141328
0.14057
0.139786
0.138981
0.138161
0.137331
0.136501
0.135678
0.13487
0.134087
0.133338
0.132631
0.131976
0.131381
0.130854
0.130403
0.130037
0.129761
0.129582
0.129504
0.129527
0.12965
0.12987
0.130179
0.130565
0.131017
0.13152
0.132057
0.132612
0.13317
0.133717
0.13424
0.134731
0.135184
0.135598
0.135972
0.136316
0.136632
0.13692
0.137392
0.174361
0.173754
0.173144
0.172532
0.171918
0.171301
0.170682
0.170062
0.169439
0.168816
0.168191
0.167567
0.166942
0.166317
0.165694
0.165071
0.16445
0.163832
0.163215
0.162602
0.161992
0.161385
0.160783
0.160186
0.159593
0.159007
0.158427
0.157854
0.157288
0.156732
0.156183
0.155645
0.155116
0.154598
0.15409
0.153594
0.15311
0.152636
0.152174
0.151722
0.15128
0.150847
0.150422
0.150002
0.149586
0.149172
0.148757
0.148337
0.147911
0.147473
0.147021
0.146551
0.14606
0.145544
0.145
0.144426
0.143821
0.143183
0.142512
0.141809
0.141074
0.140311
0.139523
0.138714
0.13789
0.137056
0.136221
0.135391
0.134576
0.133785
0.133027
0.132311
0.131647
0.131044
0.130509
0.130052
0.129679
0.129395
0.129204
0.12911
0.129111
0.129205
0.129387
0.129651
0.129985
0.130377
0.130815
0.131283
0.131766
0.13225
0.13272
0.133166
0.133579
0.133952
0.134283
0.134571
0.134825
0.135042
0.135237
0.135527
0.174391
0.173787
0.173182
0.172574
0.171965
0.171353
0.17074
0.170125
0.169509
0.168892
0.168274
0.167655
0.167036
0.166418
0.1658
0.165183
0.164568
0.163954
0.163342
0.162733
0.162127
0.161524
0.160924
0.160329
0.159738
0.159152
0.158573
0.157999
0.157432
0.156873
0.156321
0.155778
0.155244
0.154719
0.154204
0.153699
0.153204
0.15272
0.152245
0.151779
0.151323
0.150874
0.150432
0.149994
0.14956
0.149127
0.148693
0.148255
0.14781
0.147354
0.146885
0.146398
0.145892
0.145362
0.144807
0.144224
0.143611
0.142967
0.142293
0.141588
0.140853
0.140092
0.139307
0.138502
0.137683
0.136854
0.136023
0.135198
0.134387
0.133597
0.132839
0.132122
0.131455
0.130846
0.130304
0.129836
0.129448
0.129147
0.128934
0.128812
0.128779
0.128833
0.128969
0.12918
0.129455
0.129784
0.130155
0.130553
0.130964
0.131375
0.131773
0.132145
0.132484
0.132781
0.133037
0.133246
0.133418
0.133545
0.133657
0.133783
0.174399
0.173797
0.173194
0.172588
0.171981
0.171372
0.170762
0.17015
0.169536
0.168922
0.168307
0.167692
0.167076
0.166461
0.165846
0.165233
0.16462
0.164009
0.1634
0.162793
0.162188
0.161587
0.160988
0.160394
0.159804
0.159218
0.158637
0.158063
0.157494
0.156932
0.156377
0.15583
0.155291
0.15476
0.154239
0.153726
0.153223
0.152728
0.152243
0.151766
0.151297
0.150835
0.150378
0.149927
0.149478
0.14903
0.14858
0.148126
0.147666
0.147196
0.146713
0.146214
0.145697
0.145158
0.144595
0.144006
0.143389
0.142744
0.14207
0.141367
0.140637
0.139881
0.139103
0.138307
0.137497
0.136678
0.135857
0.135041
0.134238
0.133456
0.132703
0.131988
0.131321
0.130708
0.130159
0.129681
0.129278
0.128955
0.128716
0.128562
0.128491
0.128501
0.128587
0.128742
0.128957
0.129223
0.129526
0.129856
0.130197
0.130538
0.130865
0.131168
0.131437
0.131665
0.13185
0.131987
0.132085
0.132132
0.132169
0.132151
0.174399
0.173797
0.173194
0.172589
0.171982
0.171374
0.170764
0.170153
0.169541
0.168928
0.168314
0.1677
0.167085
0.166471
0.165857
0.165244
0.164632
0.164021
0.163412
0.162805
0.162201
0.161599
0.161
0.160404
0.159813
0.159226
0.158643
0.158066
0.157495
0.15693
0.156371
0.155819
0.155275
0.154739
0.154211
0.153691
0.153179
0.152676
0.152181
0.151694
0.151214
0.150741
0.150273
0.149809
0.149347
0.148886
0.148424
0.147958
0.147486
0.147004
0.146511
0.146003
0.145478
0.144932
0.144364
0.143772
0.143154
0.142509
0.141838
0.141139
0.140416
0.139668
0.138899
0.138113
0.137314
0.136507
0.135699
0.134894
0.134102
0.133329
0.132583
0.131874
0.131208
0.130594
0.130039
0.12955
0.129131
0.128787
0.128521
0.128334
0.128224
0.128189
0.128224
0.128324
0.128479
0.128681
0.128919
0.129182
0.129456
0.129729
0.12999
0.130227
0.130432
0.130596
0.130717
0.130789
0.13082
0.130795
0.130768
0.13062
0.174395
0.173793
0.173189
0.172584
0.171977
0.171369
0.170759
0.170147
0.169535
0.168921
0.168307
0.167693
0.167078
0.166463
0.165848
0.165234
0.164621
0.16401
0.163399
0.162791
0.162184
0.161581
0.16098
0.160382
0.159788
0.159198
0.158612
0.158032
0.157456
0.156887
0.156323
0.155767
0.155217
0.154674
0.15414
0.153613
0.153093
0.152582
0.152078
0.151582
0.151092
0.150609
0.15013
0.149656
0.149183
0.148711
0.148239
0.147762
0.14728
0.146789
0.146288
0.145772
0.145241
0.144691
0.14412
0.143526
0.142909
0.142266
0.141598
0.140906
0.140189
0.13945
0.138692
0.137917
0.13713
0.136336
0.13554
0.134748
0.133967
0.133204
0.132467
0.131763
0.1311
0.130485
0.129925
0.129425
0.128991
0.128627
0.128334
0.128113
0.127964
0.127885
0.12787
0.127914
0.128011
0.128152
0.128326
0.128524
0.128733
0.128943
0.129141
0.129317
0.129462
0.129568
0.129631
0.129645
0.129617
0.129529
0.129444
0.129185
0.17439
0.173787
0.173183
0.172577
0.17197
0.17136
0.17075
0.170138
0.169524
0.16891
0.168295
0.167679
0.167063
0.166447
0.165831
0.165215
0.1646
0.163986
0.163374
0.162763
0.162154
0.161547
0.160943
0.160342
0.159744
0.15915
0.158561
0.157976
0.157396
0.156821
0.156252
0.15569
0.155134
0.154585
0.154043
0.153509
0.152982
0.152463
0.151951
0.151446
0.150947
0.150454
0.149966
0.149481
0.148999
0.148518
0.148035
0.14755
0.147059
0.146561
0.146052
0.145531
0.144995
0.144441
0.143868
0.143274
0.142658
0.142018
0.141355
0.140668
0.13996
0.13923
0.138482
0.137719
0.136944
0.136163
0.135379
0.1346
0.13383
0.133078
0.132349
0.131651
0.13099
0.130374
0.129809
0.129299
0.12885
0.128465
0.128145
0.127892
0.127705
0.127581
0.127517
0.127508
0.127547
0.127627
0.12774
0.127875
0.128023
0.128172
0.128311
0.128431
0.128521
0.128575
0.128587
0.128549
0.12847
0.128327
0.128193
0.127837
0.174384
0.173782
0.173177
0.17257
0.171962
0.171352
0.17074
0.170127
0.169513
0.168897
0.168281
0.167663
0.167046
0.166428
0.16581
0.165192
0.164575
0.163958
0.163343
0.162729
0.162117
0.161507
0.160899
0.160294
0.159692
0.159094
0.1585
0.15791
0.157324
0.156744
0.15617
0.155601
0.155039
0.154484
0.153935
0.153393
0.152859
0.152331
0.151811
0.151297
0.15079
0.150288
0.149791
0.149297
0.148806
0.148316
0.147825
0.147331
0.146833
0.146327
0.145813
0.145286
0.144746
0.14419
0.143616
0.143022
0.142407
0.141771
0.141112
0.140432
0.139731
0.13901
0.138272
0.13752
0.136758
0.135988
0.135217
0.134449
0.133691
0.132948
0.132227
0.131534
0.130876
0.130258
0.129687
0.129168
0.128703
0.128297
0.127951
0.127665
0.12744
0.127273
0.12716
0.127098
0.127081
0.127102
0.127155
0.12723
0.127319
0.12741
0.127495
0.127563
0.127605
0.127612
0.127579
0.127498
0.127375
0.127185
0.127009
0.12657
0.174379
0.173776
0.17317
0.172563
0.171954
0.171343
0.17073
0.170116
0.169501
0.168884
0.168266
0.167647
0.167028
0.166408
0.165788
0.165168
0.164548
0.163929
0.163311
0.162694
0.162078
0.161464
0.160853
0.160244
0.159638
0.159035
0.158436
0.157841
0.15725
0.156664
0.156084
0.155509
0.154941
0.154378
0.153822
0.153273
0.152731
0.152196
0.151668
0.151146
0.15063
0.150119
0.149613
0.149111
0.148612
0.148113
0.147614
0.147113
0.146607
0.146096
0.145575
0.145044
0.144501
0.143942
0.143367
0.142773
0.14216
0.141527
0.140873
0.140199
0.139505
0.138793
0.138065
0.137323
0.136572
0.135814
0.135054
0.134297
0.133549
0.132814
0.1321
0.131412
0.130755
0.130136
0.129558
0.129028
0.128547
0.12812
0.127747
0.127428
0.127165
0.126953
0.126792
0.126678
0.126605
0.126569
0.126564