/*--------------------------------*- C++ -*----------------------------------*\
  =========                 |
  \\      /  F ield         | OpenFOAM: The Open Source CFD Toolbox
   \\    /   O peration     | Website:  https://openfoam.org
    \\  /    A nd           | Version:  10
     \\/     M anipulation  |
\*---------------------------------------------------------------------------*/
FoamFile
{
    format      ascii;
    class       volScalarField;
    location    "0.15";
    object      p;
}
// * * * * * * * * * * * * * * * * * * * * * * * * * * * * * * * * * * * * * //

dimensions      [0 2 -2 0 0 0 0];

internalField   nonuniform List<scalar> 
6820
(
-8.7638
-10.1279
-10.5414
-10.637
-10.7179
-10.7695
-10.8006
-10.8252
-10.8464
-10.8652
-10.8825
-10.8991
-10.915
-10.9305
-10.9456
-10.9604
-10.9749
-10.9893
-11.0035
-11.0174
-11.0312
-11.0446
-11.0578
-11.0704
-11.0823
-11.0932
-11.1024
-11.1089
-11.1109
-11.1027
-11.0813
-11.0241
-10.871
-11.564
-11.1596
-10.8657
-10.7705
-10.772
-10.7889
-10.8072
-10.827
-10.8467
-10.8652
-10.8826
-10.899
-10.9147
-10.9299
-10.9446
-10.959
-10.9731
-10.987
-11.0007
-11.0143
-11.0277
-11.0408
-11.0537
-11.0663
-11.0783
-11.0896
-11.0998
-11.1091
-11.1153
-11.1251
-11.1222
-11.1757
-11.1875
-10.4209
-10.2928
-10.5177
-10.6555
-10.7172
-10.7618
-10.794
-10.8196
-10.8415
-10.8608
-10.8785
-10.8952
-10.9111
-10.9265
-10.9416
-10.9563
-10.9708
-10.9851
-10.9992
-11.0132
-11.0269
-11.0405
-11.0538
-11.0667
-11.0792
-11.0911
-11.1021
-11.1122
-11.1207
-11.1297
-11.1344
-11.1528
-11.1474
-10.7875
-10.8042
-10.78
-10.7572
-10.7655
-10.7861
-10.8063
-10.8258
-10.8447
-10.8626
-10.8797
-10.896
-10.9117
-10.927
-10.9418
-10.9564
-10.9708
-10.9849
-10.9989
-11.0128
-11.0264
-11.0399
-11.0532
-11.0663
-11.079
-11.0914
-11.1033
-11.1151
-11.1262
-11.1396
-11.1526
-11.1797
-11.2067
-10.6776
-10.6236
-10.6675
-10.7124
-10.7476
-10.7778
-10.8026
-10.8243
-10.844
-10.8623
-10.8793
-10.8956
-10.9112
-10.9264
-10.9412
-10.9558
-10.9702
-10.9843
-10.9984
-11.0123
-11.026
-11.0397
-11.0532
-11.0666
-11.0797
-11.0928
-11.1057
-11.1188
-11.1321
-11.1475
-11.1643
-11.1894
-11.2173
-10.7182
-10.7114
-10.7298
-10.747
-10.7654
-10.7869
-10.8078
-10.8273
-10.8458
-10.8633
-10.88
-10.896
-10.9114
-10.9265
-10.9412
-10.9557
-10.97
-10.9842
-10.9982
-11.0121
-11.0259
-11.0396
-11.0532
-11.0668
-11.0804
-11.0939
-11.1077
-11.1219
-11.1369
-11.154
-11.1734
-11.1987
-11.2287
-10.7174
-10.7067
-10.7215
-10.7432
-10.7653
-10.7878
-10.8088
-10.8282
-10.8465
-10.8637
-10.8802
-10.896
-10.9114
-10.9263
-10.941
-10.9554
-10.9697
-10.9838
-10.9978
-11.0117
-11.0255
-11.0394
-11.0532
-11.067
-11.0809
-11.095
-11.1095
-11.1247
-11.1409
-11.159
-11.1796
-11.2044
-11.2333
-10.727
-10.724
-10.7371
-10.7552
-10.7735
-10.793
-10.8121
-10.8303
-10.8478
-10.8645
-10.8806
-10.8962
-10.9114
-10.9262
-10.9407
-10.9551
-10.9693
-10.9833
-10.9973
-11.0112
-11.0251
-11.039
-11.053
-11.067
-11.0812
-11.0958
-11.1108
-11.1266
-11.1436
-11.1624
-11.1834
-11.2075
-11.235
-10.7355
-10.7344
-10.7449
-10.7608
-10.7779
-10.7962
-10.8145
-10.832
-10.8489
-10.8653
-10.881
-10.8964
-10.9113
-10.926
-10.9404
-10.9546
-10.9687
-10.9827
-10.9967
-11.0106
-11.0245
-11.0385
-11.0525
-11.0667
-11.0812
-11.0961
-11.1115
-11.1278
-11.1452
-11.1642
-11.1851
-11.2084
-11.2342
-10.744
-10.7445
-10.7539
-10.7681
-10.7837
-10.8005
-10.8174
-10.8341
-10.8503
-10.8661
-10.8815
-10.8965
-10.9113
-10.9257
-10.94
-10.9541
-10.9681
-10.982
-10.9959
-11.0098
-11.0237
-11.0377
-11.0518
-11.0662
-11.0808
-11.0959
-11.1116
-11.1281
-11.1456
-11.1646
-11.1851
-11.2075
-11.2317
-10.7522
-10.7536
-10.7619
-10.7745
-10.7888
-10.8043
-10.8202
-10.8361
-10.8517
-10.867
-10.882
-10.8967
-10.9112
-10.9254
-10.9395
-10.9535
-10.9673
-10.9812
-10.995
-11.0088
-11.0227
-11.0367
-11.0508
-11.0652
-11.08
-11.0951
-11.1109
-11.1275
-11.145
-11.1636
-11.1836
-11.205
-11.2277
-10.76
-10.7618
-10.7694
-10.7808
-10.7938
-10.8082
-10.8231
-10.8381
-10.8531
-10.8679
-10.8825
-10.8968
-10.911
-10.9251
-10.939
-10.9528
-10.9665
-10.9802
-10.9939
-11.0076
-11.0215
-11.0354
-11.0495
-11.0639
-11.0787
-11.0938
-11.1096
-11.126
-11.1433
-11.1615
-11.1808
-11.2011
-11.2224
-10.7675
-10.7694
-10.7763
-10.7866
-10.7986
-10.8119
-10.8259
-10.8401
-10.8545
-10.8688
-10.8829
-10.8969
-10.9108
-10.9246
-10.9383
-10.9519
-10.9655
-10.9791
-10.9926
-11.0063
-11.02
-11.0339
-11.0479
-11.0622
-11.0769
-11.092
-11.1075
-11.1237
-11.1407
-11.1584
-11.1769
-11.1962
-11.2162
-10.7744
-10.7763
-10.7827
-10.792
-10.8031
-10.8154
-10.8286
-10.8421
-10.8558
-10.8696
-10.8833
-10.897
-10.9106
-10.9241
-10.9376
-10.951
-10.9644
-10.9778
-10.9912
-11.0047
-11.0183
-11.032
-11.0459
-11.0601
-11.0746
-11.0895
-11.1048
-11.1207
-11.1371
-11.1542
-11.1719
-11.1902
-11.209
-10.7808
-10.7827
-10.7885
-10.7971
-10.8073
-10.8188
-10.8312
-10.844
-10.8571
-10.8704
-10.8837
-10.897
-10.9103
-10.9235
-10.9367
-10.9499
-10.9631
-10.9763
-10.9895
-11.0028
-11.0163
-11.0298
-11.0436
-11.0576
-11.0718
-11.0864
-11.1014
-11.1169
-11.1328
-11.1492
-11.1661
-11.1834
-11.2011
-10.7867
-10.7885
-10.7939
-10.8017
-10.8112
-10.8219
-10.8336
-10.8458
-10.8583
-10.8711
-10.8839
-10.8969
-10.9098
-10.9227
-10.9357
-10.9486
-10.9616
-10.9746
-10.9876
-11.0007
-11.014
-11.0273
-11.0408
-11.0545
-11.0685
-11.0828
-11.0974
-11.1123
-11.1276
-11.1433
-11.1594
-11.1757
-11.1923
-10.792
-10.7937
-10.7987
-10.8059
-10.8147
-10.8248
-10.8358
-10.8474
-10.8594
-10.8716
-10.8841
-10.8966
-10.9092
-10.9219
-10.9345
-10.9472
-10.9599
-10.9727
-10.9855
-10.9984
-11.0113
-11.0244
-11.0377
-11.0511
-11.0647
-11.0786
-11.0927
-11.1071
-11.1218
-11.1367
-11.1519
-11.1673
-11.1828
-10.7968
-10.7984
-10.803
-10.8097
-10.8179
-10.8273
-10.8377
-10.8487
-10.8602
-10.872
-10.8841
-10.8962
-10.9085
-10.9208
-10.9332
-10.9456
-10.958
-10.9705
-10.9831
-10.9957
-11.0084
-11.0212
-11.0341
-11.0471
-11.0604
-11.0738
-11.0874
-11.1012
-11.1152
-11.1294
-11.1438
-11.1582
-11.1727
-10.801
-10.8025
-10.8068
-10.8131
-10.8207
-10.8296
-10.8394
-10.8499
-10.8609
-10.8722
-10.8839
-10.8956
-10.9076
-10.9196
-10.9316
-10.9438
-10.9559
-10.9681
-10.9804
-10.9927
-11.0051
-11.0175
-11.0301
-11.0428
-11.0556
-11.0685
-11.0815
-11.0947
-11.108
-11.1215
-11.135
-11.1485
-11.162
-10.8046
-10.806
-10.8101
-10.8159
-10.8231
-10.8315
-10.8408
-10.8508
-10.8613
-10.8722
-10.8835
-10.8949
-10.9065
-10.9181
-10.9299
-10.9417
-10.9536
-10.9655
-10.9774
-10.9894
-11.0015
-11.0136
-11.0257
-11.0379
-11.0503
-11.0627
-11.0751
-11.0877
-11.1003
-11.1129
-11.1256
-11.1382
-11.1507
-10.8077
-10.809
-10.8128
-10.8183
-10.8251
-10.833
-10.8418
-10.8514
-10.8615
-10.872
-10.8828
-10.8939
-10.9051
-10.9165
-10.9279
-10.9394
-10.951
-10.9626
-10.9742
-10.9858
-10.9975
-11.0092
-11.0209
-11.0327
-11.0445
-11.0564
-11.0682
-11.0801
-11.092
-11.1038
-11.1156
-11.1273
-11.1389
-10.8102
-10.8115
-10.815
-10.8202
-10.8266
-10.8341
-10.8425
-10.8516
-10.8613
-10.8714
-10.8819
-10.8926
-10.9035
-10.9146
-10.9257
-10.9369
-10.9481
-10.9593
-10.9706
-10.9819
-10.9932
-11.0045
-11.0158
-11.027
-11.0383
-11.0496
-11.0608
-11.072
-11.0832
-11.0943
-11.1052
-11.1161
-11.1267
-10.8121
-10.8133
-10.8166
-10.8215
-10.8276
-10.8347
-10.8427
-10.8515
-10.8608
-10.8706
-10.8808
-10.8911
-10.9017
-10.9124
-10.9232
-10.9341
-10.945
-10.9559
-10.9668
-10.9777
-10.9886
-10.9994
-11.0103
-11.021
-11.0318
-11.0424
-11.0531
-11.0636
-11.074
-11.0843
-11.0944
-11.1044
-11.1141
-10.8134
-10.8145
-10.8177
-10.8223
-10.8281
-10.8349
-10.8426
-10.851
-10.86
-10.8694
-10.8792
-10.8893
-10.8995
-10.9099
-10.9204
-10.931
-10.9415
-10.9521
-10.9626
-10.9731
-10.9836
-10.994
-11.0044
-11.0146
-11.0248
-11.0349
-11.0448
-11.0547
-11.0644
-11.0739
-11.0832
-11.0923
-11.1012
-10.8141
-10.8151
-10.8181
-10.8225
-10.828
-10.8346
-10.842
-10.8501
-10.8588
-10.868
-10.8775
-10.8873
-10.8972
-10.9073
-10.9175
-10.9277
-10.9379
-10.9481
-10.9583
-10.9684
-10.9784
-10.9884
-10.9982
-11.008
-11.0176
-11.0271
-11.0364
-11.0455
-11.0545
-11.0633
-11.0718
-11.0801
-11.0881
-10.8141
-10.8151
-10.8179
-10.8221
-10.8273
-10.8336
-10.8407
-10.8486
-10.857
-10.8659
-10.8751
-10.8846
-10.8943
-10.9041
-10.914
-10.9239
-10.9338
-10.9436
-10.9535
-10.9632
-10.9728
-10.9823
-10.9917
-11.0009
-11.0099
-11.0188
-11.0275
-11.036
-11.0443
-11.0523
-11.0601
-11.0675
-11.0747
-10.8135
-10.8144
-10.8172
-10.8212
-10.8264
-10.8325
-10.8394
-10.8471
-10.8553
-10.864
-10.873
-10.8822
-10.8916
-10.9012
-10.9107
-10.9203
-10.9299
-10.9394
-10.9488
-10.9581
-10.9673
-10.9763
-10.9852
-10.9938
-11.0023
-11.0106
-11.0187
-11.0265
-11.034
-11.0413
-11.0483
-11.055
-11.0614
-10.8121
-10.8129
-10.8154
-10.8191
-10.8239
-10.8297
-10.8364
-10.8438
-10.8518
-10.8603
-10.8691
-10.8782
-10.8875
-10.8968
-10.9062
-10.9155
-10.9248
-10.934
-10.9431
-10.9521
-10.9609
-10.9695
-10.9779
-10.9861
-10.9941
-11.0018
-11.0093
-11.0165
-11.0234
-11.03
-11.0363
-11.0422
-11.0479
-10.8101
-10.8112
-10.8139
-10.8178
-10.8227
-10.8286
-10.8353
-10.8426
-10.8505
-10.8588
-10.8674
-10.8762
-10.8851
-10.8942
-10.9032
-10.9122
-10.9211
-10.9299
-10.9386
-10.9471
-10.9554
-10.9635
-10.9714
-10.9791
-10.9865
-10.9936
-11.0004
-11.007
-11.0132
-11.0191
-11.0247
-11.0299
-11.0347
-10.8069
-10.8072
-10.8089
-10.8119
-10.8163
-10.8218
-10.8283
-10.8357
-10.8436
-10.852
-10.8607
-10.8696
-10.8786
-10.8877
-10.8967
-10.9056
-10.9145
-10.9232
-10.9317
-10.94
-10.948
-10.9558
-10.9634
-10.9706
-10.9776
-10.9843
-10.9906
-10.9966
-11.0023
-11.0076
-11.0126
-11.0171
-11.0213
-10.8046
-10.8066
-10.8098
-10.8137
-10.8185
-10.8242
-10.8306
-10.8377
-10.8452
-10.8532
-10.8614
-10.8698
-10.8783
-10.8868
-10.8953
-10.9037
-10.912
-10.9202
-10.9281
-10.9358
-10.9433
-10.9506
-10.9575
-10.9642
-10.9706
-10.9766
-10.9823
-10.9876
-10.9926
-10.9973
-11.0015
-11.0054
-11.0088
-10.7965
-10.7944
-10.7941
-10.7963
-10.8007
-10.8066
-10.8138
-10.8218
-10.8304
-10.8393
-10.8485
-10.8577
-10.867
-10.8761
-10.8852
-10.894
-10.9026
-10.911
-10.9191
-10.9269
-10.9344
-10.9416
-10.9484
-10.9549
-10.961
-10.9668
-10.9722
-10.9771
-10.9817
-10.9859
-10.9897
-10.993
-10.996
-10.8019
-10.8073
-10.8115
-10.8145
-10.8181
-10.8228
-10.8283
-10.8346
-10.8415
-10.8488
-10.8564
-10.8642
-10.8721
-10.88
-10.8879
-10.8957
-10.9033
-10.9108
-10.918
-10.9249
-10.9316
-10.938
-10.9441
-10.9499
-10.9552
-10.9603
-10.9649
-10.9692
-10.9731
-10.9766
-10.9796
-10.9823
-10.9845
-10.7724
-10.7613
-10.758
-10.7617
-10.769
-10.778
-10.788
-10.7986
-10.8094
-10.8202
-10.831
-10.8415
-10.8518
-10.8617
-10.8713
-10.8805
-10.8893
-10.8977
-10.9057
-10.9134
-10.9205
-10.9273
-10.9337
-10.9396
-10.9451
-10.9501
-10.9547
-10.9589
-10.9626
-10.9658
-10.9686
-10.971
-10.9729
-10.8197
-10.8359
-10.8371
-10.8313
-10.8289
-10.8297
-10.8325
-10.8365
-10.8416
-10.8474
-10.8538
-10.8606
-10.8675
-10.8746
-10.8816
-10.8886
-10.8955
-10.9022
-10.9086
-10.9148
-10.9207
-10.9263
-10.9316
-10.9364
-10.941
-10.9451
-10.9488
-10.9522
-10.9551
-10.9576
-10.9597
-10.9613
-10.9626
-10.7099
-10.6718
-10.6661
-10.6898
-10.7098
-10.7278
-10.7456
-10.7626
-10.7786
-10.7936
-10.8076
-10.8208
-10.8331
-10.8447
-10.8555
-10.8657
-10.8752
-10.8842
-10.8925
-10.9003
-10.9075
-10.9142
-10.9203
-10.9259
-10.931
-10.9356
-10.9397
-10.9433
-10.9463
-10.9489
-10.951
-10.9526
-10.9536
-10.922
-10.9465
-10.9172
-10.8804
-10.8568
-10.8487
-10.8453
-10.8444
-10.8458
-10.849
-10.8533
-10.8583
-10.8639
-10.8697
-10.8757
-10.8818
-10.8878
-10.8936
-10.8993
-10.9048
-10.9099
-10.9148
-10.9194
-10.9236
-10.9274
-10.9308
-10.9338
-10.9364
-10.9386
-10.9404
-10.9417
-10.9427
-10.9432
-10.5063
-10.4245
-10.4815
-10.5623
-10.6185
-10.6566
-10.6897
-10.7186
-10.7433
-10.7648
-10.7838
-10.8007
-10.8159
-10.8297
-10.8423
-10.8537
-10.8642
-10.8738
-10.8826
-10.8907
-10.8981
-10.9048
-10.9109
-10.9164
-10.9212
-10.9255
-10.9293
-10.9324
-10.935
-10.9371
-10.9387
-10.9397
-10.9401
-11.4827
-11.2046
-10.9988
-10.9074
-10.8702
-10.8494
-10.8363
-10.8305
-10.8294
-10.8312
-10.8348
-10.8397
-10.8453
-10.8515
-10.8578
-10.8642
-10.8706
-10.8768
-10.8827
-10.8885
-10.8939
-10.8989
-10.9036
-10.9079
-10.9118
-10.9153
-10.9183
-10.9208
-10.9229
-10.9246
-10.9258
-10.9265
-10.9268
-9.52463
-10.0862
-10.3907
-10.5066
-10.588
-10.6512
-10.696
-10.7297
-10.7568
-10.7788
-10.7973
-10.8131
-10.827
-10.8394
-10.8505
-10.8606
-10.8697
-10.8781
-10.8858
-10.8928
-10.8992
-10.905
-10.9102
-10.9149
-10.919
-10.9225
-10.9255
-10.928
-10.93
-10.9314
-10.9324
-10.9328
-10.9327
-10.687
-11.1715
-11.2783
-11.3561
-11.4641
-11.5434
-11.6052
-11.6636
-11.7243
-11.7888
-11.8585
-11.9325
-12.0091
-12.0861
-12.1612
-12.2325
-12.2982
-12.3571
-12.4083
-12.4509
-12.4846
-12.5091
-12.5242
-12.5297
-12.5252
-12.5105
-12.4848
-12.4478
-12.3987
-12.3368
-12.2615
-12.172
-12.0676
-11.9478
-11.8118
-11.6589
-11.4889
-11.3012
-11.0957
-10.8723
-10.6313
-10.373
-10.0981
-9.80746
-9.50225
-9.18394
-8.85422
-8.51506
-8.16865
-7.81734
-7.46359
-7.10992
-6.75884
-6.41281
-6.07412
-5.74489
-5.427
-5.12204
-4.83126
-4.5556
-4.29561
-4.05151
-3.82315
-3.61004
-3.41141
-3.22621
-3.05314
-2.89075
-2.73743
-2.59151
-2.45126
-2.31503
-2.18122
-2.0484
-1.91534
-1.78109
-1.64502
-1.50689
-1.3669
-1.2257
-1.08443
-0.944662
-0.808375
-0.677764
-0.55506
-0.442286
-0.341054
-0.252453
-0.176974
-0.114602
-0.0647398
-0.0266063
0.0012255
0.019525
0.0307296
0.0338346
0.0348923
0.0246931
0.0264739
-0.00726403
-11.5257
-11.7088
-11.6292
-11.5756
-11.5677
-11.5718
-11.5865
-11.6187
-11.6672
-11.7283
-11.7998
-11.8779
-11.9588
-12.0392
-12.1164
-12.1884
-12.2537
-12.3115
-12.361
-12.4019
-12.4339
-12.4568
-12.4705
-12.4747
-12.4691
-12.4532
-12.4265
-12.3885
-12.3385
-12.2758
-12.1999
-12.1099
-12.0053
-11.8855
-11.7497
-11.5974
-11.4282
-11.2417
-11.0378
-10.8164
-10.5778
-10.3223
-10.0505
-9.76351
-9.46229
-9.1483
-8.82321
-8.48891
-8.14751
-7.80129
-7.45262
-7.10393
-6.75767
-6.41618
-6.08171
-5.75631
-5.4418
-5.13973
-4.85135
-4.57756
-4.31895
-4.07573
-3.8478
-3.63472
-3.43576
-3.24993
-3.076
-2.91257
-2.75809
-2.61094
-2.46944
-2.33198
-2.19699
-2.06309
-1.92906
-1.794
-1.65729
-1.51872
-1.37852
-1.23736
-1.0964
-0.957222
-0.821744
-0.69207
-0.570285
-0.458263
-0.357495
-0.269003
-0.193257
-0.130267
-0.0794687
-0.0401645
-0.010928
0.0088319
0.0217604
0.0262928
0.0295213
0.020069
0.0254027
-0.0102843
-11.1879
-11.2599
-11.3028
-11.3593
-11.4338
-11.4998
-11.5566
-11.6096
-11.6642
-11.723
-11.7863
-11.8536
-11.9236
-11.9947
-12.0648
-12.132
-12.1947
-12.2512
-12.3004
-12.3415
-12.3737
-12.3966
-12.4101
-12.4138
-12.4074
-12.3906
-12.363
-12.3241
-12.2732
-12.2098
-12.1333
-12.0429
-11.9382
-11.8184
-11.6829
-11.5314
-11.3632
-11.1782
-10.976
-10.7569
-10.5209
-10.2684
-10.0002
-9.71705
-9.42008
-9.11066
-8.79041
-8.46117
-8.12497
-7.78401
-7.44059
-7.09707
-6.75579
-6.41905
-6.089
-5.76763
-5.45671
-5.15774
-4.87194
-4.6002
-4.34308
-4.10083
-3.87338
-3.66031
-3.46097
-3.27442
-3.0995
-2.93487
-2.77906
-2.63048
-2.48755
-2.34867
-2.21234
-2.07721
-1.94212
-1.80618
-1.66882
-1.52987
-1.38958
-1.24865
-1.10823
-0.969859
-0.835377
-0.706756
-0.585936
-0.474661
-0.374328
-0.285915
-0.209879
-0.146256
-0.09451
-0.0540243
-0.0233705
-0.00213257
0.0125403
0.0185309
0.0239522
0.0153027
0.0241763
-0.0133239
-11.2936
-11.4333
-11.4903
-11.5089
-11.5351
-11.5618
-11.5883
-11.621
-11.6623
-11.7117
-11.7699
-11.8333
-11.8997
-11.9668
-12.0323
-12.0944
-12.1516
-12.2027
-12.2469
-12.2835
-12.3121
-12.3322
-12.3435
-12.3455
-12.3379
-12.3202
-12.2918
-12.2523
-12.2009
-12.1371
-12.0603
-11.9698
-11.8651
-11.7456
-11.6107
-11.46
-11.2931
-11.1096
-10.9094
-10.6926
-10.4594
-10.2102
-9.94556
-9.6664
-9.37381
-9.0691
-8.75386
-8.42985
-8.09906
-7.7636
-7.42569
-7.08761
-6.75162
-6.41992
-6.09459
-5.77755
-5.4705
-5.1749
-4.89192
-4.62244
-4.36702
-4.12591
-3.89905
-3.6861
-3.48642
-3.29915
-3.1232
-2.9573
-2.80005
-2.64993
-2.50543
-2.36502
-2.22725
-2.09083
-1.95463
-1.81782
-1.67988
-1.54067
-1.40045
-1.25993
-1.12023
-0.982815
-0.849415
-0.721872
-0.602
-0.491437
-0.391506
-0.303146
-0.226804
-0.162539
-0.10984
-0.0681666
-0.0360871
-0.0133569
0.00307779
0.0105546
0.0181895
0.0103947
0.0228038
-0.0163888
-11.2689
-11.3389
-11.3725
-11.4011
-11.4449
-11.4917
-11.537
-11.5834
-11.6349
-11.6901
-11.7473
-11.8073
-11.8691
-11.9309
-11.9913
-12.0488
-12.1021
-12.15
-12.1915
-12.2258
-12.2521
-12.2701
-12.2792
-12.2791
-12.2694
-12.2497
-12.2195
-12.1784
-12.1256
-12.0607
-11.9831
-11.8921
-11.7871
-11.6677
-11.5333
-11.3833
-11.2175
-11.0356
-10.8375
-10.6231
-10.3928
-10.1469
-9.88604
-9.61109
-9.32309
-9.02334
-8.71336
-8.39487
-8.06976
-7.74009
-7.40798
-7.07561
-6.74518
-6.41878
-6.09842
-5.78594
-5.48298
-5.19095
-4.91098
-4.64392
-4.39034
-4.1505
-3.92436
-3.71162
-3.51169
-3.32375
-3.1468
-2.97963
-2.82092
-2.66924
-2.52313
-2.38114
-2.2419
-2.10417
-1.9669
-1.82929
-1.69086
-1.5515
-1.41149
-1.27151
-1.13262
-0.996213
-0.863898
-0.737407
-0.618441
-0.508549
-0.408988
-0.320661
-0.244
-0.179088
-0.125434
-0.0825695
-0.0490576
-0.024822
-0.00660993
0.0023808
0.0122474
0.00536014
0.0213004
-0.0194692
-11.2749
-11.3431
-11.3946
-11.4333
-11.4729
-11.5117
-11.5493
-11.5893
-11.6297
-11.6774
-11.7289
-11.7837
-11.8403
-11.8973
-11.9529
-12.0058
-12.0546
-12.0982
-12.1357
-12.1662
-12.1892
-12.2042
-12.2108
-12.2085
-12.1968
-12.1754
-12.1437
-12.1012
-12.0473
-11.9814
-11.903
-11.8114
-11.7062
-11.5868
-11.4527
-11.3035
-11.1388
-10.9585
-10.7624
-10.5505
-10.3231
-10.0806
-9.82363
-9.553
-9.26974
-8.9751
-8.67056
-8.35777
-8.03856
-7.71489
-7.38879
-7.06236
-6.73767
-6.41675
-6.10151
-5.79372
-5.49495
-5.20657
-4.92968
-4.66511
-4.41342
-4.17489
-3.94951
-3.737
-3.53684
-3.34827
-3.17035
-3.00193
-2.84177
-2.68852
-2.54081
-2.39727
-2.25658
-2.11758
-1.97928
-1.84093
-1.7021
-1.56268
-1.42295
-1.28355
-1.14549
-1.01007
-0.878804
-0.753317
-0.635212
-0.525955
-0.42674
-0.338432
-0.261449
-0.195889
-0.141279
-0.0972215
-0.0622721
-0.0365194
-0.0165158
-0.00598392
0.00613094
0.000204414
0.019673
-0.0225643
-11.2731
-11.3267
-11.3701
-11.4046
-11.4414
-11.4803
-11.5195
-11.5605
-11.606
-11.6534
-11.7033
-11.7553
-11.8083
-11.861
-11.9123
-11.9608
-12.0055
-12.0452
-12.0791
-12.1064
-12.1264
-12.1388
-12.1428
-12.1381
-12.1243
-12.1008
-12.0672
-12.023
-11.9677
-11.9006
-11.8212
-11.729
-11.6235
-11.5041
-11.3704
-11.2219
-11.0585
-10.8797
-10.6857
-10.4764
-10.2521
-10.0131
-9.76018
-9.49403
-9.21568
-8.92634
-8.62741
-8.32049
-8.00732
-7.68975
-7.36975
-7.0493
-6.7304
-6.41496
-6.10483
-5.80171
-5.50711
-5.22235
-4.94851
-4.6864
-4.43659
-4.19936
-3.97474
-3.76247
-3.5621
-3.37292
-3.19403
-3.02438
-2.8628
-2.70802
-2.55873
-2.41366
-2.27156
-2.13133
-1.99204
-1.853
-1.7138
-1.57435
-1.4349
-1.29608
-1.15882
-1.02435
-0.894084
-0.769555
-0.652275
-0.543626
-0.444739
-0.356442
-0.279134
-0.212926
-0.157363
-0.112111
-0.0757204
-0.0484395
-0.0266319
-0.014532
-0.000153679
-0.00506646
0.0179294
-0.0256732
-11.2706
-11.317
-11.3594
-11.3965
-11.434
-11.4723
-11.5107
-11.5495
-11.5909
-11.6344
-11.6803
-11.728
-11.7766
-11.8249
-11.8718
-11.9161
-11.9566
-11.9925
-12.0227
-12.0467
-12.0637
-12.0731
-12.0745
-12.0674
-12.0514
-12.026
-11.9906
-11.9448
-11.8881
-11.8199
-11.7396
-11.6468
-11.541
-11.4216
-11.2883
-11.1407
-10.9785
-10.8014
-10.6096
-10.4029
-10.1817
-9.94642
-9.69757
-9.43597
-9.16256
-8.87853
-8.5852
-8.28411
-7.97692
-7.66539
-7.3514
-7.03685
-6.72362
-6.41357
-6.10846
-5.80993
-5.51943
-5.23824
-4.96741
-4.70774
-4.45979
-4.22386
-4
-3.788
-3.58744
-3.39767
-3.21786
-3.04702
-2.88406
-2.72778
-2.57697
-2.4304
-2.28692
-2.14549
-2.00525
-1.86555
-1.72599
-1.5865
-1.44733
-1.30906
-1.17256
-1.039
-0.909691
-0.786085
-0.669599
-0.561537
-0.462966
-0.374674
-0.29704
-0.230187
-0.173673
-0.127227
-0.0893925
-0.0605731
-0.0369499
-0.0232556
-0.00659979
-0.0104463
0.0160777
-0.0287952
-11.2666
-11.3073
-11.3464
-11.3822
-11.4177
-11.454
-11.491
-11.5289
-11.5687
-11.6104
-11.6538
-11.6983
-11.7432
-11.7876
-11.8304
-11.8706
-11.9073
-11.9394
-11.9662
-11.9869
-12.0009
-12.0076
-12.0065
-11.9971
-11.9789
-11.9515
-11.9144
-11.8671
-11.809
-11.7397
-11.6586
-11.5653
-11.4592
-11.34
-11.2071
-11.0604
-10.8995
-10.7242
-10.5345
-10.3306
-10.1126
-9.88088
-9.63611
-9.37901
-9.1105
-8.8317
-8.5439
-8.24854
-7.94721
-7.64161
-7.33352
-7.02474
-6.71708
-6.41232
-6.11214
-5.81812
-5.53165
-5.25399
-4.98613
-4.72888
-4.4828
-4.24818
-4.02511
-3.81341
-3.6127
-3.42239
-3.24171
-3.06974
-2.90545
-2.74773
-2.59544
-2.44743
-2.30262
-2.16004
-2.01887
-1.87851
-1.73861
-1.59908
-1.46017
-1.32242
-1.18666
-1.05397
-0.925593
-0.802881
-0.687167
-0.579675
-0.481409
-0.393116
-0.315156
-0.247661
-0.190198
-0.142559
-0.103279
-0.0729109
-0.0474617
-0.0321469
-0.0132005
-0.0159289
0.0141257
-0.0319292
-11.2614
-11.298
-11.3344
-11.3691
-11.4036
-11.4389
-11.4743
-11.5106
-11.5483
-11.5873
-11.6275
-11.6685
-11.7096
-11.75
-11.7889
-11.8251
-11.858
-11.8864
-11.9098
-11.9273
-11.9383
-11.9423
-11.9387
-11.9269
-11.9067
-11.8774
-11.8386
-11.7897
-11.7304
-11.66
-11.5782
-11.4844
-11.3782
-11.2591
-11.1268
-10.981
-10.8215
-10.648
-10.4606
-10.2593
-10.0444
-9.81636
-9.57563
-9.32298
-9.05929
-8.78565
-8.50326
-8.21353
-7.91796
-7.61817
-7.31585
-7.01273
-6.71054
-6.41098
-6.11565
-5.82606
-5.54358
-5.2694
-5.0045
-4.74967
-4.50545
-4.27217
-4.04992
-3.83856
-3.63775
-3.44695
-3.26546
-3.09242
-2.92687
-2.76777
-2.61406
-2.46466
-2.31857
-2.17487
-2.03281
-1.89183
-1.75159
-1.61203
-1.47338
-1.33614
-1.20109
-1.06925
-0.941772
-0.81993
-0.704966
-0.598027
-0.500057
-0.411759
-0.333472
-0.265337
-0.206929
-0.158097
-0.117369
-0.0854439
-0.0581591
-0.0411982
-0.0199488
-0.0215081
0.0120813
-0.0350746
-11.2552
-11.2885
-11.3223
-11.3554
-11.3884
-11.4218
-11.4556
-11.4902
-11.5258
-11.5623
-11.5997
-11.6375
-11.6751
-11.7119
-11.7469
-11.7794
-11.8086
-11.8335
-11.8535
-11.8679
-11.876
-11.8772
-11.8711
-11.8571
-11.8348
-11.8036
-11.7631
-11.7129
-11.6523
-11.581
-11.4984
-11.4042
-11.2979
-11.1791
-11.0474
-10.9025
-10.7443
-10.5727
-10.3875
-10.1889
-9.97718
-9.75269
-9.51596
-9.26769
-9.00875
-8.74017
-8.46311
-8.1789
-7.88897
-7.59488
-7.29823
-7.00067
-6.70385
-6.40939
-6.11884
-5.83363
-5.55509
-5.28436
-5.0224
-4.76998
-4.52764
-4.29572
-4.07432
-3.86335
-3.6625
-3.47127
-3.28903
-3.11498
-2.94824
-2.78783
-2.63276
-2.48203
-2.33471
-2.18995
-2.04704
-1.90546
-1.7649
-1.62531
-1.48691
-1.35018
-1.21583
-1.08481
-0.958218
-0.837223
-0.722989
-0.616588
-0.518901
-0.430593
-0.35198
-0.283205
-0.223855
-0.173831
-0.131654
-0.0981631
-0.069034
-0.0504018
-0.0268376
-0.0271778
0.00995199
-0.0382303
-11.248
-11.2787
-11.3102
-11.3415
-11.3728
-11.4046
-11.4368
-11.4695
-11.5028
-11.5369
-11.5714
-11.606
-11.6402
-11.6734
-11.7048
-11.7337
-11.7593
-11.7808
-11.7975
-11.8088
-11.814
-11.8126
-11.804
-11.7877
-11.7633
-11.7303
-11.6882
-11.6365
-11.5747
-11.5025
-11.4193
-11.3247
-11.2183
-11.0997
-10.9687
-10.8248
-10.668
-10.4982
-10.3153
-10.1194
-9.91074
-9.68978
-9.45698
-9.21304
-8.95878
-8.69516
-8.42333
-8.14454
-7.86016
-7.57165
-7.28056
-6.98846
-6.69692
-6.40748
-6.12163
-5.84075
-5.5661
-5.29879
-5.03976
-4.78976
-4.54932
-4.31878
-4.09828
-3.88774
-3.68689
-3.49531
-3.31238
-3.1374
-2.96953
-2.80788
-2.65152
-2.49953
-2.35103
-2.20525
-2.06152
-1.91937
-1.77852
-1.63892
-1.50078
-1.36453
-1.23087
-1.10066
-0.974924
-0.854753
-0.741228
-0.635348
-0.537934
-0.44961
-0.370668
-0.301257
-0.240967
-0.189751
-0.146126
-0.11106
-0.0800784
-0.0597501
-0.0338598
-0.032932
0.00774496
-0.0413951
-11.2401
-11.2684
-11.2977
-11.3272
-11.3569
-11.3868
-11.4171
-11.4479
-11.479
-11.5106
-11.5423
-11.5739
-11.6048
-11.6346
-11.6625
-11.6879
-11.71
-11.7282
-11.7417
-11.75
-11.7524
-11.7483
-11.7373
-11.7188
-11.6924
-11.6575
-11.6138
-11.5607
-11.4978
-11.4247
-11.3408
-11.2459
-11.1395
-11.0212
-10.8908
-10.748
-10.5926
-10.4245
-10.2438
-10.0506
-9.84506
-9.62758
-9.39867
-9.15899
-8.90931
-8.65058
-8.38388
-8.1104
-7.83145
-7.54843
-7.2628
-6.97605
-6.6897
-6.4052
-6.12398
-5.84736
-5.57657
-5.31266
-5.05654
-4.80895
-4.57042
-4.3413
-4.12173
-3.91168
-3.7109
-3.51902
-3.33548
-3.15963
-2.99071
-2.82789
-2.6703
-2.51711
-2.3675
-2.22075
-2.07626
-1.93357
-1.79245
-1.65285
-1.51496
-1.3792
-1.2462
-1.11678
-0.991884
-0.872513
-0.759676
-0.654301
-0.557148
-0.468801
-0.389529
-0.319482
-0.258256
-0.20585
-0.160774
-0.124125
-0.0912844
-0.0692355
-0.0410084
-0.0387649
0.00546684
-0.0445677
-11.2313
-11.2577
-11.285
-11.3126
-11.3404
-11.3686
-11.397
-11.4257
-11.4546
-11.4837
-11.5127
-11.5413
-11.5691
-11.5956
-11.6202
-11.6422
-11.661
-11.6759
-11.6863
-11.6916
-11.6912
-11.6845
-11.6711
-11.6504
-11.622
-11.5853
-11.54
-11.4856
-11.4215
-11.3475
-11.2631
-11.1678
-11.0614
-10.9434
-10.8137
-10.6719
-10.518
-10.3517
-10.1732
-9.98264
-9.78014
-9.5661
-9.34102
-9.10551
-8.86034
-8.60641
-8.34473
-8.07646
-7.80284
-7.52519
-7.24491
-6.96342
-6.68215
-6.40251
-6.12585
-5.85344
-5.58645
-5.32591
-5.0727
-4.82753
-4.59093
-4.36325
-4.14466
-3.93514
-3.73449
-3.54237
-3.3583
-3.18166
-3.01176
-2.84783
-2.6891
-2.53477
-2.38411
-2.23644
-2.09122
-1.94804
-1.80667
-1.66708
-1.52945
-1.39417
-1.26183
-1.13318
-1.00909
-0.890495
-0.778326
-0.673438
-0.576534
-0.488158
-0.408554
-0.337872
-0.275712
-0.222117
-0.175592
-0.137352
-0.102645
-0.0788509
-0.0482769
-0.0446703
0.00312375
-0.0477462
-11.2219
-11.2464
-11.2718
-11.2975
-11.3236
-11.3499
-11.3763
-11.4029
-11.4296
-11.4562
-11.4826
-11.5083
-11.5331
-11.5564
-11.5777
-11.5965
-11.6121
-11.6238
-11.6312
-11.6336
-11.6305
-11.6213
-11.6055
-11.5826
-11.5522
-11.5138
-11.4669
-11.4111
-11.346
-11.2712
-11.1861
-11.0906
-10.9842
-10.8666
-10.7375
-10.5968
-10.4442
-10.2798
-10.1035
-9.91551
-9.71601
-9.50535
-9.28403
-9.05262
-8.81188
-8.56264
-8.30589
-8.04272
-7.7743
-7.50192
-7.22688
-6.95054
-6.67426
-6.39939
-6.12722
-5.85896
-5.59573
-5.33853
-5.08821
-4.84545
-4.6108
-4.38459
-4.16702
-3.95808
-3.75763
-3.56534
-3.3808
-3.20344
-3.03264
-2.86769
-2.70788
-2.55249
-2.40084
-2.25231
-2.10641
-1.96276
-1.82117
-1.6816
-1.54423
-1.40943
-1.27773
-1.14983
-1.02653
-0.908688
-0.797165
-0.692748
-0.596082
-0.507671
-0.427734
-0.356418
-0.293328
-0.238544
-0.190571
-0.150732
-0.114152
-0.0885894
-0.0556589
-0.0506427
0.000721076
-0.0509283
-11.2117
-11.2345
-11.2581
-11.2821
-11.3063
-11.3307
-11.3552
-11.3797
-11.4041
-11.4283
-11.452
-11.475
-11.4968
-11.5171
-11.5353
-11.5509
-11.5634
-11.5721
-11.5766
-11.5761
-11.5703
-11.5586
-11.5405
-11.5155
-11.4832
-11.443
-11.3946
-11.3375
-11.2713
-11.1957
-11.1101
-11.0143
-10.9079
-10.7906
-10.6623
-10.5226
-10.3714
-10.2088
-10.0347
-9.84926
-9.6527
-9.44538
-9.22774
-9.00036
-8.76394
-8.51929
-8.26736
-8.00917
-7.74586
-7.47862
-7.2087
-6.93741
-6.66603
-6.39584
-6.12807
-5.8639
-5.60439
-5.35049
-5.10304
-4.8627
-4.63
-4.4053
-4.18879
-3.98049
-3.78028
-3.5879
-3.40296
-3.22496
-3.05333
-2.88744
-2.72663
-2.57024
-2.41765
-2.26832
-2.12178
-1.97771
-1.83592
-1.69639
-1.55929
-1.42496
-1.29389
-1.16672
-1.04418
-0.927079
-0.816184
-0.712222
-0.615784
-0.527332
-0.447061
-0.375113
-0.311096
-0.255125
-0.205703
-0.164258
-0.125801
-0.0984445
-0.0631488
-0.0566762
-0.00173647
-0.0541109
-11.201
-11.2221
-11.244
-11.2662
-11.2886
-11.3111
-11.3336
-11.356
-11.3782
-11.4
-11.4212
-11.4414
-11.4604
-11.4778
-11.493
-11.5056
-11.515
-11.5208
-11.5224
-11.5192
-11.5108
-11.4967
-11.4763
-11.4492
-11.4149
-11.3731
-11.3232
-11.2648
-11.1976
-11.1211
-11.035
-10.939
-10.8326
-10.7157
-10.588
-10.4494
-10.2997
-10.1388
-9.96685
-9.78393
-9.59028
-9.38621
-9.17218
-8.94874
-8.71655
-8.4764
-8.22917
-7.97585
-7.71751
-7.45529
-7.19039
-6.92403
-6.65744
-6.39184
-6.1284
-5.86825
-5.6124
-5.36177
-5.11717
-4.87925
-4.64852
-4.42535
-4.20993
-4.00232
-3.80242
-3.61001
-3.42475
-3.24619
-3.07381
-2.90705
-2.74531
-2.58799
-2.43454
-2.28446
-2.13733
-1.99287
-1.85091
-1.71143
-1.57461
-1.44074
-1.31028
-1.18383
-1.06204
-0.945654
-0.835368
-0.731848
-0.635628
-0.547131
-0.466526
-0.393949
-0.329009
-0.271852
-0.220983
-0.177925
-0.137584
-0.10841
-0.0707415
-0.0627649
-0.00424514
-0.0572903
-11.1896
-11.2092
-11.2294
-11.2498
-11.2704
-11.2911
-11.3116
-11.332
-11.3519
-11.3714
-11.3901
-11.4077
-11.424
-11.4385
-11.4508
-11.4605
-11.467
-11.47
-11.4688
-11.463
-11.452
-11.4355
-11.4129
-11.3837
-11.3476
-11.3041
-11.2527
-11.1931
-11.1248
-11.0476
-10.961
-10.8647
-10.7585
-10.6419
-10.515
-10.3773
-10.229
-10.0699
-9.90004
-9.7196
-9.52878
-9.32791
-9.11741
-8.89781
-8.66976
-8.43398
-8.19134
-7.94277
-7.68928
-7.43197
-7.17195
-6.91041
-6.6485
-6.38739
-6.1282
-5.87199
-5.61975
-5.37235
-5.13058
-4.89507
-4.66632
-4.4447
-4.23042
-4.02355
-3.82402
-3.63165
-3.44613
-3.26709
-3.09404
-2.92648
-2.76389
-2.60571
-2.45146
-2.30068
-2.15302
-2.0082
-1.86609
-1.7267
-1.59015
-1.45674
-1.3269
-1.20114
-1.08009
-0.964396
-0.854705
-0.751614
-0.655605
-0.56706
-0.486122
-0.412918
-0.34706
-0.288721
-0.236406
-0.191726
-0.149498
-0.118481
-0.078433
-0.0689032
-0.00680202
-0.0604614
-11.1776
-11.1958
-11.2143
-11.2331
-11.2519
-11.2707
-11.2893
-11.3076
-11.3254
-11.3425
-11.3588
-11.3739
-11.3875
-11.3993
-11.4088
-11.4157
-11.4195
-11.4197
-11.4158
-11.4074
-11.394
-11.3751
-11.3503
-11.3192
-11.2812
-11.2361
-11.1833
-11.1224
-11.0532
-10.9752
-10.8882
-10.7917
-10.6855
-10.5693
-10.4431
-10.3065
-10.1595
-10.0021
-9.83433
-9.65632
-9.46828
-9.27053
-9.06348
-8.84763
-8.6236
-8.39209
-8.15392
-7.90996
-7.6612
-7.40865
-7.1534
-6.89655
-6.63922
-6.38249
-6.12746
-5.87512
-5.62643
-5.38222
-5.14326
-4.91015
-4.68339
-4.46334
-4.25023
-4.04415
-3.84505
-3.65278
-3.46709
-3.28763
-3.11399
-2.94571
-2.78233
-2.62337
-2.46838
-2.31697
-2.16881
-2.02368
-1.88145
-1.74214
-1.60589
-1.47294
-1.3437
-1.21863
-1.0983
-0.983288
-0.874178
-0.771507
-0.675705
-0.587111
-0.505842
-0.432017
-0.365245
-0.305725
-0.251967
-0.205658
-0.161539
-0.128653
-0.0862203
-0.0750851
-0.00940542
-0.0636183
-11.1652
-11.1819
-11.1989
-11.216
-11.233
-11.25
-11.2667
-11.283
-11.2986
-11.3135
-11.3274
-11.34
-11.3511
-11.3602
-11.3671
-11.3713
-11.3724
-11.3699
-11.3635
-11.3526
-11.3368
-11.3157
-11.2888
-11.2557
-11.216
-11.1692
-11.115
-11.053
-10.9828
-10.9041