/*--------------------------------*- C++ -*----------------------------------*\
  =========                 |
  \\      /  F ield         | OpenFOAM: The Open Source CFD Toolbox
   \\    /   O peration     | Website:  https://openfoam.org
    \\  /    A nd           | Version:  10
     \\/     M anipulation  |
\*---------------------------------------------------------------------------*/
FoamFile
{
    format      ascii;
    class       volScalarField;
    location    "0.195";
    object      nut;
}
// * * * * * * * * * * * * * * * * * * * * * * * * * * * * * * * * * * * * * //

dimensions      [0 2 -1 0 0 0 0];

internalField   nonuniform List<scalar> 
6820
(
0.000503206
0.000397147
0.00032474
0.000269806
0.000237173
0.000215044
0.000198702
0.000186277
0.000176309
0.000168004
0.000160915
0.000154749
0.000149313
0.000144469
0.000140119
0.00013619
0.000132621
0.000129383
0.000126435
0.000123752
0.000121314
0.000119106
0.00011712
0.000115352
0.000113798
0.000112462
0.000111347
0.000110477
0.000109847
0.000109572
0.0001095
0.00011014
0.000109523
8.18272e-05
0.000143662
0.000196321
0.000210758
0.000206396
0.000197624
0.000187471
0.000177688
0.000168859
0.000160966
0.000153906
0.000147561
0.000141821
0.000136597
0.000131817
0.000127422
0.000123361
0.000119586
0.000116071
0.000112787
0.000109709
0.000106818
0.000104098
0.00010153
9.90994e-05
9.67921e-05
9.45971e-05
9.2495e-05
9.04821e-05
8.84812e-05
8.6546e-05
8.42549e-05
8.19911e-05
3.85957e-05
2.74269e-05
4.29189e-05
7.41963e-05
9.54873e-05
0.000108757
0.000115939
0.000119196
0.000120101
0.000119553
0.000118109
0.000116115
0.000113789
0.000111272
0.000108655
0.000105997
0.00010334
0.000100705
9.811e-05
9.55617e-05
9.30661e-05
9.0621e-05
8.82219e-05
8.58741e-05
8.3571e-05
8.13048e-05
7.90664e-05
7.68415e-05
7.46083e-05
7.23248e-05
6.99392e-05
6.72945e-05
6.43626e-05
1.99661e-05
2.35589e-05
2.21406e-05
1.29474e-05
2.98397e-06
1.19957e-05
2.23197e-05
3.07771e-05
3.75508e-05
4.28961e-05
4.70557e-05
5.02441e-05
5.2636e-05
5.43699e-05
5.55608e-05
5.63052e-05
5.6681e-05
5.6752e-05
5.65696e-05
5.61744e-05
5.56013e-05
5.4876e-05
5.4004e-05
5.30017e-05
5.18857e-05
5.06624e-05
4.93335e-05
4.78946e-05
4.63347e-05
4.46306e-05
4.27504e-05
4.06746e-05
3.83788e-05
1.3237e-05
1.51232e-05
1.99675e-05
2.20548e-05
2.15154e-05
1.96151e-05
1.7065e-05
1.42316e-05
1.13286e-05
8.48154e-06
5.77159e-06
3.26541e-06
1.13972e-06
1.50119e-06
3.25651e-06
4.87384e-06
6.28841e-06
7.49925e-06
8.51414e-06
9.34546e-06
1.00022e-05
1.05026e-05
1.08675e-05
1.10954e-05
1.11931e-05
1.11651e-05
1.10117e-05
1.07301e-05
1.03147e-05
9.75662e-06
9.04842e-06
8.20899e-06
7.28352e-06
1.01781e-05
1.10677e-05
1.19083e-05
1.26958e-05
1.33057e-05
1.38196e-05
1.4189e-05
1.43834e-05
1.44178e-05
1.4316e-05
1.41014e-05
1.37979e-05
1.34287e-05
1.30111e-05
1.25613e-05
1.20952e-05
1.16261e-05
1.11652e-05
1.07216e-05
1.03019e-05
9.90935e-06
9.54448e-06
9.21579e-06
8.91992e-06
8.66002e-06
8.44005e-06
8.26273e-06
8.13131e-06
8.04678e-06
8.00821e-06
8.00548e-06
7.99825e-06
7.96983e-06
7.51567e-06
8.29823e-06
8.75373e-06
8.99798e-06
8.89379e-06
8.68221e-06
8.50848e-06
8.40494e-06
8.36576e-06
8.36698e-06
8.38227e-06
8.39361e-06
8.3914e-06
8.37339e-06
8.33887e-06
8.28733e-06
8.21952e-06
8.13709e-06
8.04167e-06
7.93558e-06
7.82167e-06
7.70818e-06
7.59762e-06
7.49219e-06
7.39483e-06
7.30746e-06
7.23122e-06
7.16667e-06
7.112e-06
7.06092e-06
7.00257e-06
6.9023e-06
6.75311e-06
5.72559e-06
6.65697e-06
7.09224e-06
7.21931e-06
6.97496e-06
6.61868e-06
6.29403e-06
6.02644e-06
5.81422e-06
5.64772e-06
5.51457e-06
5.40515e-06
5.31264e-06
5.23186e-06
5.15935e-06
5.09303e-06
5.03148e-06
4.97383e-06
4.91957e-06
4.86921e-06
4.82329e-06
4.78189e-06
4.74493e-06
4.71416e-06
4.69071e-06
4.67502e-06
4.66676e-06
4.66435e-06
4.66419e-06
4.65835e-06
4.63674e-06
4.57321e-06
4.46314e-06
4.44355e-06
5.28943e-06
5.63276e-06
5.8069e-06
5.73651e-06
5.53732e-06
5.30303e-06
5.06952e-06
4.85658e-06
4.6722e-06
4.51475e-06
4.37995e-06
4.26386e-06
4.16327e-06
4.07579e-06
3.99958e-06
3.93338e-06
3.87622e-06
3.82752e-06
3.78676e-06
3.75331e-06
3.72764e-06
3.70972e-06
3.69954e-06
3.69685e-06
3.70097e-06
3.7105e-06
3.72273e-06
3.73342e-06
3.73488e-06
3.71876e-06
3.66653e-06
3.57624e-06
3.50631e-06
4.2736e-06
4.60861e-06
4.7986e-06
4.78012e-06
4.63046e-06
4.44083e-06
4.25214e-06
4.08192e-06
3.93518e-06
3.80956e-06
3.70141e-06
3.60782e-06
3.5266e-06
3.45609e-06
3.39516e-06
3.34307e-06
3.29922e-06
3.26331e-06
3.23509e-06
3.21441e-06
3.20103e-06
3.19423e-06
3.19353e-06
3.1984e-06
3.20787e-06
3.2202e-06
3.23253e-06
3.24078e-06
3.2385e-06
3.21924e-06
3.17048e-06
3.09218e-06
2.80776e-06
3.48896e-06
3.81062e-06
3.99414e-06
4.01605e-06
3.92749e-06
3.796e-06
3.65397e-06
3.51693e-06
3.39258e-06
3.28276e-06
3.18697e-06
3.10415e-06
3.03304e-06
2.97247e-06
2.92149e-06
2.87924e-06
2.84522e-06
2.8189e-06
2.79985e-06
2.78761e-06
2.78177e-06
2.78181e-06
2.78717e-06
2.79707e-06
2.81019e-06
2.82458e-06
2.83739e-06
2.84501e-06
2.84238e-06
2.82494e-06
2.78472e-06
2.72348e-06
2.2732e-06
2.87356e-06
3.19681e-06
3.38992e-06
3.4484e-06
3.40233e-06
3.30444e-06
3.18752e-06
3.06996e-06
2.96159e-06
2.86575e-06
2.78268e-06
2.71163e-06
2.65156e-06
2.60142e-06
2.5603e-06
2.52747e-06
2.50236e-06
2.4844e-06
2.47313e-06
2.46814e-06
2.46891e-06
2.47477e-06
2.4849e-06
2.49824e-06
2.51338e-06
2.5285e-06
2.54117e-06
2.54856e-06
2.54702e-06
2.53368e-06
2.50376e-06
2.46036e-06
1.8541e-06
2.38565e-06
2.71262e-06
2.91297e-06
2.99522e-06
2.98264e-06
2.91784e-06
2.83058e-06
2.73779e-06
2.64878e-06
2.56764e-06
2.49577e-06
2.43351e-06
2.38063e-06
2.33665e-06
2.30103e-06
2.27322e-06
2.25266e-06
2.23888e-06
2.23139e-06
2.22964e-06
2.23301e-06
2.24077e-06
2.25207e-06
2.26592e-06
2.28102e-06
2.29578e-06
2.30824e-06
2.31624e-06
2.31727e-06
2.30973e-06
2.29094e-06
2.26487e-06
1.51773e-06
1.99357e-06
2.32461e-06
2.53522e-06
2.63937e-06
2.65621e-06
2.61909e-06
2.5545e-06
2.47914e-06
2.40315e-06
2.33197e-06
2.26811e-06
2.2126e-06
2.16564e-06
2.12697e-06
2.09615e-06
2.0727e-06
2.05611e-06
2.04584e-06
2.04136e-06
2.0421e-06
2.04743e-06
2.05664e-06
2.0689e-06
2.08324e-06
2.09848e-06
2.11331e-06
2.12618e-06
2.13561e-06
2.14001e-06
2.13872e-06
2.13031e-06
2.11926e-06
1.24174e-06
1.67531e-06
2.01008e-06
2.23122e-06
2.35268e-06
2.3923e-06
2.37769e-06
2.33299e-06
2.27442e-06
2.21209e-06
2.15174e-06
2.09637e-06
2.04745e-06
2.00555e-06
1.97076e-06
1.94289e-06
1.92165e-06
1.90664e-06
1.89744e-06
1.89356e-06
1.89449e-06
1.89962e-06
1.90829e-06
1.91973e-06
1.93309e-06
1.94742e-06
1.96168e-06
1.97476e-06
1.98568e-06
1.9935e-06
1.99816e-06
1.99888e-06
2.00036e-06
1.01066e-06
1.41472e-06
1.75276e-06
1.98412e-06
2.12062e-06
2.17972e-06
2.1848e-06
2.15738e-06
2.1128e-06
2.06112e-06
2.00857e-06
1.95878e-06
1.91381e-06
1.87471e-06
1.84188e-06
1.81539e-06
1.79505e-06
1.78058e-06
1.77159e-06
1.76765e-06
1.76825e-06
1.77284e-06
1.78082e-06
1.79152e-06
1.8042e-06
1.81809e-06
1.83238e-06
1.8463e-06
1.85922e-06
1.87063e-06
1.88082e-06
1.88927e-06
1.90075e-06
8.1367e-07
1.20025e-06
1.54152e-06
1.78218e-06
1.93139e-06
2.00633e-06
2.02748e-06
2.0143e-06
1.98144e-06
1.93895e-06
1.89333e-06
1.8486e-06
1.80715e-06
1.77033e-06
1.73878e-06
1.71276e-06
1.69226e-06
1.67712e-06
1.66708e-06
1.66178e-06
1.66082e-06
1.66375e-06
1.67004e-06
1.67915e-06
1.69047e-06
1.70341e-06
1.71736e-06
1.73179e-06
1.74634e-06
1.76074e-06
1.77546e-06
1.78997e-06
1.80905e-06
6.43362e-07
1.02391e-06
1.36855e-06
1.61713e-06
1.77702e-06
1.86505e-06
1.89973e-06
1.89865e-06
1.8757e-06
1.84071e-06
1.80034e-06
1.75892e-06
1.71922e-06
1.68293e-06
1.65102e-06
1.62397e-06
1.60197e-06
1.58502e-06
1.57297e-06
1.56558e-06
1.56252e-06
1.56342e-06
1.56786e-06
1.57536e-06
1.58547e-06
1.59768e-06
1.61156e-06
1.62673e-06
1.64296e-06
1.6601e-06
1.67867e-06
1.69799e-06
1.72281e-06
4.95315e-07
8.80699e-07
1.22861e-06
1.48337e-06
1.65191e-06
1.75047e-06
1.79602e-06
1.80463e-06
1.78942e-06
1.76006e-06
1.72333e-06
1.68386e-06
1.64473e-06
1.6079e-06
1.5746e-06
1.54552e-06
1.52104e-06
1.50132e-06
1.48634e-06
1.47599e-06
1.47004e-06
1.46824e-06
1.47025e-06
1.47572e-06
1.48426e-06
1.49549e-06
1.50907e-06
1.5247e-06
1.54223e-06
1.56153e-06
1.58309e-06
1.60604e-06
1.63505e-06
3.68905e-07
7.68365e-07
1.11837e-06
1.37722e-06
1.55235e-06
1.65916e-06
1.71336e-06
1.72971e-06
1.72059e-06
1.69546e-06
1.66115e-06
1.62247e-06
1.58276e-06
1.54424e-06
1.5084e-06
1.47617e-06
1.44814e-06
1.42465e-06
1.40584e-06
1.39174e-06
1.38227e-06
1.37727e-06
1.3765e-06
1.37968e-06
1.38653e-06
1.39671e-06
1.40993e-06
1.42593e-06
1.44457e-06
1.46565e-06
1.48962e-06
1.51533e-06
1.54746e-06
2.70791e-07
6.87014e-07
1.036e-06
1.29635e-06
1.47584e-06
1.58862e-06
1.64912e-06
1.67095e-06
1.66579e-06
1.64284e-06
1.60897e-06
1.56918e-06
1.52707e-06
1.48513e-06
1.44511e-06
1.4082e-06
1.3752e-06
1.34665e-06
1.32287e-06
1.30405e-06
1.29024e-06
1.28138e-06
1.27736e-06
1.27796e-06
1.28294e-06
1.292e-06
1.30486e-06
1.32122e-06
1.34092e-06
1.36364e-06
1.38975e-06
1.41787e-06
1.45257e-06
2.21861e-07
6.38375e-07
9.80758e-07
1.23964e-06
1.42131e-06
1.53809e-06
1.60313e-06
1.62896e-06
1.62658e-06
1.60491e-06
1.57076e-06
1.52926e-06
1.48417e-06
1.43819e-06
1.39331e-06
1.35092e-06
1.31206e-06
1.27748e-06
1.24772e-06
1.22315e-06
1.204e-06
1.19039e-06
1.1823e-06
1.17962e-06
1.18216e-06
1.18965e-06
1.20177e-06
1.21817e-06
1.23861e-06
1.26264e-06
1.2905e-06
1.32054e-06
1.35733e-06
2.44751e-07
6.24334e-07
9.52512e-07
1.20642e-06
1.38763e-06
1.50592e-06
1.57293e-06
1.60008e-06
1.59773e-06
1.57452e-06
1.5373e-06
1.49131e-06
1.44055e-06
1.38798e-06
1.33582e-06
1.28574e-06
1.23901e-06
1.19661e-06
1.15931e-06
1.12768e-06
1.10216e-06
1.08303e-06
1.07042e-06
1.06429e-06
1.06448e-06
1.07071e-06
1.08259e-06
1.09966e-06
1.12152e-06
1.14757e-06
1.17786e-06
1.21055e-06
1.24998e-06
3.24442e-07
6.45047e-07
9.51637e-07
1.1974e-06
1.37636e-06
1.49509e-06
1.56349e-06
1.59191e-06
1.58996e-06
1.56589e-06
1.52636e-06
1.47663e-06
1.42074e-06
1.36182e-06
1.30226e-06
1.24394e-06
1.18836e-06
1.13676e-06
1.09019e-06
1.04952e-06
1.01549e-06
9.88672e-07
9.69436e-07
9.57952e-07
9.54163e-07
9.57792e-07
9.68393e-07
9.85361e-07
1.00809e-06
1.03575e-06
1.0682e-06
1.10321e-06
1.14519e-06
4.34058e-07
6.98188e-07
9.77853e-07
1.21185e-06
1.38521e-06
1.50065e-06
1.5662e-06
1.59117e-06
1.58467e-06
1.55477e-06
1.50819e-06
1.4503e-06
1.38534e-06
1.3166e-06
1.24665e-06
1.17751e-06
1.11088e-06
1.04818e-06
9.90681e-07
9.39557e-07
8.95865e-07
8.6053e-07
8.34279e-07
8.17558e-07
8.10474e-07
8.1276e-07
8.23822e-07
8.42784e-07
8.68708e-07
9.00391e-07
9.37367e-07
9.77144e-07
1.02371e-06
5.61944e-07
7.80906e-07
1.03253e-06
1.25404e-06
1.42262e-06
1.53708e-06
1.60329e-06
1.62918e-06
1.62287e-06
1.59178e-06
1.54229e-06
1.47965e-06
1.40809e-06
1.331e-06
1.25111e-06
1.17063e-06
1.09141e-06
1.01511e-06
9.43257e-07
8.77348e-07
8.18888e-07
7.69379e-07
7.30229e-07
7.026e-07
6.87194e-07
6.84073e-07
6.92624e-07
7.11624e-07
7.3959e-07
7.74681e-07
8.15909e-07
8.60106e-07
9.11314e-07
7.05955e-07
8.90744e-07
1.11404e-06
1.31873e-06
1.47567e-06
1.58008e-06
1.6364e-06
1.6521e-06
1.63528e-06
1.59347e-06
1.53312e-06
1.45952e-06
1.37688e-06
1.28851e-06
1.197e-06
1.10445e-06
1.01259e-06
9.2296e-07
8.37053e-07
7.56435e-07
6.82879e-07
6.18459e-07
5.65554e-07
5.26655e-07
5.03866e-07
4.98189e-07
5.09015e-07
5.34207e-07
5.70912e-07
6.15984e-07
6.67464e-07
7.21656e-07
7.81881e-07
8.68055e-07
1.02855e-06
1.22936e-06
1.42441e-06
1.58084e-06
1.6897e-06
1.75222e-06
1.77358e-06
1.76036e-06
1.7193e-06
1.65663e-06
1.57776e-06
1.48724e-06
1.38872e-06
1.28514e-06
1.17884e-06
1.07167e-06
9.65183e-07
8.60713e-07
7.59577e-07
6.63233e-07
5.73542e-07
4.93133e-07
4.25857e-07
3.77019e-07
3.52312e-07
3.5461e-07
3.81181e-07
4.25535e-07
4.80822e-07
5.42888e-07
6.06526e-07
6.75417e-07
1.05296e-06
1.19541e-06
1.37006e-06
1.54047e-06
1.67248e-06
1.75701e-06
1.79663e-06
1.79791e-06
1.76807e-06
1.71376e-06
1.64068e-06
1.55353e-06
1.4561e-06
1.35143e-06
1.24187e-06
1.12933e-06
1.01528e-06
9.00904e-07
7.87157e-07
6.74835e-07
5.64657e-07
4.57378e-07
3.54022e-07
2.5652e-07
1.69931e-07
1.11037e-07
1.1547e-07
1.7517e-07
2.53201e-07
3.3518e-07
4.17674e-07
4.97428e-07
5.78422e-07
1.26739e-06
1.40091e-06
1.56917e-06
1.7512e-06
1.90753e-06
2.01916e-06
2.0816e-06
2.09804e-06
2.07495e-06
2.01983e-06
1.94e-06
1.84195e-06
1.73102e-06
1.61148e-06
1.48662e-06
1.35894e-06
1.23029e-06
1.10202e-06
9.75141e-07
8.50398e-07
7.28368e-07
6.09543e-07
4.94439e-07
3.83809e-07
2.79257e-07
1.85794e-07
1.25077e-07
1.45186e-07
2.17158e-07
2.99719e-07
3.83709e-07
4.64202e-07
5.45912e-07
1.5225e-06
1.64513e-06
1.77176e-06
1.89442e-06
1.98693e-06
2.04276e-06
2.06478e-06
2.05759e-06
2.02511e-06
1.97087e-06
1.89833e-06
1.81088e-06
1.71172e-06
1.60383e-06
1.4899e-06
1.3723e-06
1.25311e-06
1.1341e-06
1.01685e-06
9.02803e-07
7.93404e-07
6.90247e-07
5.95319e-07
5.11306e-07
4.4192e-07
3.91914e-07
3.66015e-07
3.66343e-07
3.90512e-07
4.32513e-07
4.86664e-07
5.46826e-07
6.12477e-07
1.83078e-06
1.96879e-06
2.14685e-06
2.3653e-06
2.55685e-06
2.68302e-06
2.73957e-06
2.73672e-06
2.68741e-06
2.60403e-06
2.49716e-06
2.37503e-06
2.24368e-06
2.10747e-06
1.9695e-06
1.83201e-06
1.69666e-06
1.56477e-06
1.43744e-06
1.31573e-06
1.20069e-06
1.09346e-06
9.95362e-07
9.07914e-07
8.32831e-07
7.71916e-07
7.26805e-07
6.98496e-07
6.87054e-07
6.91002e-07
7.08615e-07
7.35424e-07
7.72386e-07
2.222e-06
2.31982e-06
2.34193e-06
2.36643e-06
2.40572e-06
2.45365e-06
2.49946e-06
2.53121e-06
2.53959e-06
2.52043e-06
2.47415e-06
2.40398e-06
2.31451e-06
2.21065e-06
2.09703e-06
1.97776e-06
1.8563e-06
1.7355e-06
1.61772e-06
1.50492e-06
1.39874e-06
1.30062e-06
1.21183e-06
1.13354e-06
1.06673e-06
1.01223e-06
9.70529e-07
9.41736e-07
9.25558e-07
9.21073e-07
9.2746e-07
9.42545e-07
9.66009e-07
2.71617e-06
2.96768e-06
3.31079e-06
3.66822e-06
3.89569e-06
3.97554e-06
3.95206e-06
3.86481e-06
3.73941e-06
3.59255e-06
3.43414e-06
3.26957e-06
3.10197e-06
2.93355e-06
2.76621e-06
2.60174e-06
2.44196e-06
2.28863e-06
2.14341e-06
2.00778e-06
1.88305e-06
1.77031e-06
1.6704e-06
1.58391e-06
1.51113e-06
1.45198e-06
1.40606e-06
1.37259e-06
1.35052e-06
1.33835e-06
1.335e-06
1.33794e-06
1.34844e-06
3.4099e-06
3.27937e-06
2.94815e-06
2.83737e-06
2.95814e-06
3.17366e-06
3.37767e-06
3.51901e-06
3.58539e-06
3.58786e-06
3.54672e-06
3.48225e-06
3.41091e-06
3.34428e-06
3.28925e-06
3.24892e-06
3.2237e-06
3.21238e-06
3.21294e-06
3.22312e-06
3.24071e-06
3.26377e-06
3.29068e-06
3.32006e-06
3.35081e-06
3.38201e-06
3.41289e-06
3.44275e-06
3.47108e-06
3.49744e-06
3.52172e-06
3.54476e-06
3.56516e-06
4.42848e-06
5.56561e-06
6.24575e-06
6.43481e-06
6.27898e-06
6.01176e-06
5.83197e-06
5.83028e-06
6.01548e-06
6.34541e-06
6.76059e-06
7.2083e-06
7.65004e-06
8.06092e-06
8.42679e-06
8.7411e-06
9.00232e-06
9.21193e-06
9.37324e-06
9.49045e-06
9.56813e-06
9.61085e-06
9.62296e-06
9.60845e-06
9.57088e-06
9.51332e-06
9.43841e-06
9.34812e-06
9.24434e-06
9.12775e-06
9.00056e-06
8.86287e-06
8.7191e-06
5.74225e-06
3.62712e-06
2.67824e-06
4.46771e-06
7.19051e-06
9.78114e-06
1.19883e-05
1.37413e-05
1.50481e-05
1.59474e-05
1.64841e-05
1.67058e-05
1.66603e-05
1.63936e-05
1.59483e-05
1.53627e-05
1.46704e-05
1.39007e-05
1.30783e-05
1.22238e-05
1.1354e-05
1.04824e-05
9.61966e-06
8.77407e-06
7.95185e-06
7.15741e-06
6.39381e-06
5.66233e-06
4.9642e-06
4.29639e-06
3.66293e-06
3.0485e-06
2.47195e-06
1.14686e-05
1.64588e-05
1.8179e-05
1.96504e-05
2.00693e-05
1.92505e-05
1.74144e-05
1.48442e-05
1.1927e-05
9.29816e-06
8.04517e-06
9.07085e-06
1.1739e-05
1.50258e-05
1.84111e-05
2.16753e-05
2.47226e-05
2.75122e-05
3.00306e-05
3.22795e-05
3.42686e-05
3.6012e-05
3.75261e-05
3.8828e-05
3.99349e-05
4.08632e-05
4.16289e-05
4.22471e-05
4.27339e-05
4.31044e-05
4.33811e-05
4.35825e-05
4.37665e-05
2.49662e-05
2.87218e-05
3.91392e-05
5.37048e-05
6.81225e-05
8.22216e-05
9.52537e-05
0.000106604
0.000116219
0.000124172
0.000130564
0.00013555
0.000139298
0.000141972
0.000143725
0.000144697
0.000145012
0.000144778
0.00014409
0.000143026
0.000141657
0.00014004
0.000138223
0.000136247
0.000134147
0.000131949
0.000129676
0.000127344
0.000124973
0.000122562
0.00012013
0.00011769
0.00011546
0.0005434
0.000510602
0.000491536
0.000467681
0.000443434
0.000420822
0.000399004
0.000378054
0.000358248
0.000339611
0.000322136
0.000305815
0.00029061
0.000276461
0.000263304
0.000251067
0.000239681
0.000229073
0.000219178
0.000209931
0.000201275
0.000193156
0.000185526
0.00017834
0.000171561
0.000165152
0.00015908
0.000153319
0.00014782
0.000142594
0.000137458
0.000132996
0.00012884
9.45108e-05
9.41288e-05
9.36572e-05
9.42359e-05
9.16099e-05
8.33007e-05
7.10482e-05
5.99602e-05
5.15285e-05
4.39479e-05
3.57383e-05
2.82219e-05
2.55048e-05
2.71129e-05
1.9866e-05
5.32051e-06
2.77567e-05
3.93408e-05
3.84863e-05
3.29866e-05
2.79513e-05
2.42231e-05
2.13931e-05
1.91818e-05
1.73899e-05
1.58803e-05
1.49418e-05
1.47313e-05
1.45526e-05
1.87034e-05
2.84863e-05
3.51594e-05
3.75573e-05
4.2466e-05
4.96818e-05
4.38484e-05
1.80442e-05
1.03899e-05
1.702e-05
8.85078e-06
8.89751e-06
1.06794e-05
8.42437e-06
1.1618e-05
1.48275e-05
1.52125e-05
2.4347e-05
3.69223e-05
4.24336e-05
3.98998e-05
3.34828e-05
2.7099e-05
2.23152e-05
1.90044e-05
1.65829e-05
1.46376e-05
1.29867e-05
1.15613e-05
1.03227e-05
9.23602e-06
8.26966e-06
7.39817e-06
6.60278e-06
5.87096e-06
5.1959e-06
4.57623e-06
4.0157e-06
3.52328e-06
3.1137e-06
2.80388e-06
2.60838e-06
2.54132e-06
2.61884e-06
2.85425e-06
3.23826e-06
3.72646e-06
4.33796e-06
5.36846e-06
7.58099e-06
1.22315e-05
2.00174e-05
2.97477e-05
3.82018e-05
4.19359e-05
3.97056e-05
3.24194e-05
2.1743e-05
9.04285e-06
4.82339e-06
1.92821e-05
3.23522e-05
4.20981e-05
4.64363e-05
4.42224e-05
3.70087e-05
2.77241e-05
1.88351e-05
1.19083e-05
7.59059e-06
3.63459e-06
0.000101815
9.91989e-05
9.83093e-05
9.953e-05
0.00010108
0.000101122
9.59389e-05
8.46463e-05
7.07804e-05
5.82705e-05
4.91509e-05
4.46487e-05
4.14374e-05
2.99898e-05
6.0394e-06
2.13121e-05
3.74453e-05
4.00538e-05
3.57897e-05
3.07625e-05
2.67978e-05
2.37304e-05
2.12746e-05
1.93137e-05
1.7733e-05
1.63955e-05
1.55525e-05
1.55536e-05
1.54697e-05
1.81137e-05
2.76085e-05
3.56606e-05
3.90336e-05
4.36973e-05
5.02806e-05
4.48636e-05
2.09832e-05
1.03622e-05
1.65792e-05
1.00014e-05
9.94912e-06
1.23219e-05
1.02063e-05
1.19686e-05
1.52909e-05
1.58832e-05
2.45358e-05
3.73573e-05
4.32828e-05
4.08734e-05
3.43392e-05
2.77893e-05
2.28886e-05
1.95099e-05
1.70438e-05
1.50627e-05
1.33805e-05
1.19273e-05
1.0663e-05
9.55175e-06
8.56119e-06
7.66556e-06
6.84623e-06
6.09113e-06
5.3941e-06
4.75452e-06
4.1768e-06
3.67029e-06
3.24974e-06
2.93249e-06
2.73324e-06
2.66396e-06
2.73708e-06
2.96303e-06
3.33433e-06
3.80959e-06
4.39859e-06
5.38648e-06
7.52463e-06
1.20896e-05
1.99112e-05
2.98853e-05
3.87913e-05
4.30843e-05
4.12853e-05
3.41171e-05
2.3252e-05
1.03143e-05
5.6215e-06
1.98412e-05
3.32277e-05
4.32444e-05
4.76091e-05
4.51703e-05
3.76953e-05
2.83411e-05
1.95395e-05
1.26373e-05
8.31167e-06
4.19422e-06
8.19133e-05
8.07817e-05
8.03811e-05
8.12971e-05
8.30369e-05
8.47549e-05
8.54723e-05
8.34506e-05
7.76189e-05
6.90411e-05
5.94559e-05
4.79615e-05
3.09168e-05
6.624e-06
1.89519e-05
3.56844e-05
4.02308e-05
3.73012e-05
3.2696e-05
2.88304e-05
2.57657e-05
2.32275e-05
2.11074e-05
1.93885e-05
1.80195e-05
1.68707e-05
1.61384e-05
1.63261e-05
1.65661e-05
1.79177e-05
2.64479e-05
3.57009e-05
4.02405e-05
4.48512e-05
5.08479e-05
4.60201e-05
2.44982e-05
1.20195e-05
1.64902e-05
1.13481e-05
1.08518e-05
1.33852e-05
1.16456e-05
1.23639e-05
1.55724e-05
1.64442e-05
2.49321e-05
3.79894e-05
4.42154e-05
4.18508e-05
3.51781e-05
2.84726e-05
2.34694e-05
2.003e-05
1.75207e-05
1.55034e-05
1.37896e-05
1.23085e-05
1.10186e-05
9.88263e-06
8.86746e-06
7.9471e-06
7.10312e-06
6.3239e-06
5.60393e-06
4.94326e-06
4.3468e-06
3.82415e-06
3.38995e-06
3.06054e-06
2.84972e-06
2.76984e-06
2.83448e-06
3.05525e-06
3.42586e-06
3.90247e-06
4.47621e-06
5.40918e-06
7.44127e-06
1.18652e-05
1.96518e-05
2.983e-05
3.92157e-05
4.41764e-05
4.3009e-05
3.6249e-05
2.55896e-05
1.32648e-05
8.83157e-06
2.11675e-05
3.44815e-05
4.4589e-05
4.88277e-05
4.60337e-05
3.82283e-05
2.88129e-05
2.01787e-05
1.33607e-05
9.02826e-06
4.74684e-06
4.81991e-05
4.71276e-05
4.68872e-05
4.75798e-05
4.87584e-05
4.9824e-05
5.04029e-05
4.98779e-05
4.71642e-05
4.10806e-05
3.08994e-05
1.65342e-05
7.06527e-06
2.33694e-05
3.56316e-05
3.93528e-05
3.71626e-05
3.33206e-05
2.99829e-05
2.7249e-05
2.48411e-05
2.27127e-05
2.08976e-05
1.94217e-05
1.82724e-05
1.73335e-05
1.67352e-05
1.70835e-05
1.78202e-05
1.841e-05
2.52853e-05
3.54202e-05
4.13381e-05
4.61432e-05
5.16612e-05
4.75784e-05
2.86956e-05
1.54691e-05
1.70817e-05
1.28741e-05
1.1696e-05
1.39348e-05
1.25959e-05
1.27687e-05
1.57627e-05
1.68555e-05
2.53578e-05
3.86749e-05
4.51399e-05
4.27723e-05
3.59576e-05
2.91184e-05
2.40349e-05
2.05478e-05
1.80019e-05
1.59521e-05
1.42096e-05
1.27029e-05
1.1389e-05
1.02293e-05
9.18977e-06
8.24448e-06
7.37523e-06
6.57094e-06
5.82677e-06
5.14346e-06
4.52651e-06
3.98579e-06
3.53592e-06
3.19264e-06
2.96849e-06
2.87491e-06
2.9264e-06
3.13859e-06
3.51147e-06
4.00173e-06
4.57695e-06
5.45882e-06
7.36454e-06
1.16019e-05
1.93045e-05
2.9687e-05
3.96193e-05
4.53691e-05
4.49977e-05
3.88472e-05
2.86355e-05
1.71871e-05
1.30521e-05
2.31949e-05
3.6004e-05
4.60101e-05
4.99911e-05
4.67582e-05
3.86145e-05
2.91917e-05
2.08236e-05
1.4175e-05
9.82727e-06
5.31692e-06
8.68673e-06
8.50773e-06
8.99487e-06
9.83783e-06
1.08015e-05
1.18967e-05
1.29654e-05
1.36183e-05
1.35216e-05
1.33554e-05
1.57663e-05
2.22411e-05
3.01252e-05
3.56275e-05
3.69537e-05
3.51336e-05
3.24033e-05
3.0006e-05
2.79167e-05
2.58844e-05
2.39207e-05
2.21486e-05
2.06345e-05
1.94039e-05
1.84744e-05
1.77589e-05
1.7319e-05
1.77936e-05
1.90746e-05
1.95689e-05
2.43415e-05
3.47463e-05
4.22039e-05
4.75223e-05
5.27616e-05
4.95876e-05
3.34383e-05
2.01706e-05
1.86209e-05
1.46536e-05
1.26386e-05
1.41023e-05
1.31104e-05
1.31503e-05
1.5926e-05
1.71819e-05
2.58932e-05
3.94747e-05
4.60605e-05
4.36031e-05
3.66356e-05
2.96938e-05
2.4562e-05
2.10461e-05
1.84728e-05
1.63961e-05
1.46293e-05
1.31008e-05
1.17658e-05
1.05841e-05
9.52145e-06
8.55172e-06
7.65714e-06
6.82726e-06
6.05794e-06
5.35065e-06
4.71148e-06
4.15056e-06
3.68254e-06
3.32294e-06
3.08388e-06
2.9761e-06
3.01378e-06
3.21492e-06
3.58735e-06
4.0947e-06
4.68542e-06
5.5294e-06
7.30043e-06
1.13011e-05
1.88349e-05
2.93692e-05
3.98732e-05
4.65086e-05
4.70828e-05
4.1736e-05
3.22083e-05
2.17586e-05
1.78136e-05
2.58636e-05
3.78257e-05
4.75195e-05
5.10632e-05
4.72768e-05
3.87853e-05
2.94156e-05
2.14e-05
1.50053e-05
1.06873e-05
5.90021e-06
1.03438e-05
9.89209e-06
8.8792e-06
7.44314e-06
6.38459e-06
7.18322e-06
1.00921e-05
1.40628e-05
1.8313e-05
2.24669e-05
2.63131e-05
2.95257e-05
3.15405e-05
3.19855e-05
3.1215e-05
3.00386e-05
2.88775e-05
2.76299e-05
2.61644e-05
2.45587e-05
2.29801e-05
2.15528e-05
2.033e-05
1.93386e-05
1.86236e-05
1.81387e-05
1.78844e-05
1.8461e-05
2.02333e-05
2.12495e-05
2.40306e-05
3.37804e-05
4.2755e-05
4.89284e-05
5.41468e-05
5.20348e-05
3.85972e-05
2.57211e-05
2.13115e-05
1.68648e-05
1.38823e-05
1.41498e-05
1.32603e-05
1.34813e-05
1.61195e-05
1.74848e-05
2.65596e-05
4.04005e-05
4.6977e-05
4.43335e-05
3.72023e-05
3.01936e-05
2.5049e-05
2.15248e-05
1.89343e-05
1.6837e-05
1.50512e-05
1.35051e-05
1.2152e-05
1.09504e-05
9.86571e-06
8.87187e-06
7.95169e-06
7.09536e-06
6.29953e-06
5.56642e-06
4.90268e-06
4.31882e-06
3.82952e-06
3.45018e-06
3.19317e-06
3.06978e-06
3.09436e-06
3.28552e-06
3.65669e-06
4.18131e-06
4.79652e-06
5.61715e-06
7.25515e-06
1.09789e-05
1.82467e-05
2.88424e-05
3.99022e-05
4.74985e-05
4.9172e-05
4.48392e-05
3.62151e-05
2.67708e-05
2.28868e-05
2.90533e-05
3.99264e-05
4.90809e-05
5.19808e-05
4.75335e-05
3.87222e-05
2.94948e-05
2.19114e-05
1.5831e-05
1.15942e-05
6.49871e-06
8.59228e-06
8.0418e-06
7.09079e-06
5.95956e-06
5.40789e-06
6.44728e-06
8.9846e-06
1.22564e-05
1.57217e-05
1.90342e-05
2.19327e-05
2.41944e-05
2.56856e-05
2.65e-05
2.68543e-05
2.68381e-05
2.6412e-05
2.55857e-05
2.44807e-05
2.32568e-05
2.20449e-05
2.09354e-05
1.99831e-05
1.92221e-05
1.87139e-05
1.84592e-05
1.84163e-05
1.90857e-05
2.12262e-05
2.31705e-05
2.4682e-05
3.27767e-05
4.29754e-05
5.03414e-05
5.58556e-05
5.49298e-05
4.40881e-05
3.18805e-05
2.5169e-05
1.96792e-05
1.5581e-05
1.43531e-05
1.32808e-05
1.38579e-05
1.64056e-05
1.78335e-05
2.74173e-05
4.1483e-05
4.78843e-05
4.494e-05
3.76354e-05
3.06031e-05
2.54866e-05
2.19771e-05
1.93811e-05
1.7271e-05
1.54725e-05
1.39138e-05
1.25464e-05
1.13275e-05
1.02222e-05
9.20486e-06
8.25894e-06
7.3754e-06
6.55169e-06
5.79083e-06
5.10012e-06
4.49047e-06
3.97674e-06
3.57435e-06
3.29599e-06
3.1541e-06
3.16446e-06
3.34658e-06
3.7173e-06
4.2595e-06
4.90541e-06
5.71624e-06
7.22893e-06
1.0649e-05
1.75532e-05
2.80969e-05
3.96678e-05
4.82798e-05
5.11934e-05
4.8064e-05
4.0508e-05
3.2035e-05
2.81307e-05
3.26227e-05
4.22659e-05
5.06395e-05
5.26608e-05
4.74633e-05
3.84084e-05
2.94395e-05
2.23485e-05
1.66054e-05
1.24984e-05
7.09624e-06
5.64799e-06
5.23723e-06
4.57559e-06
3.89638e-06
3.8582e-06
5.0572e-06
7.23032e-06
9.91337e-06
1.27935e-05
1.56224e-05
1.8187e-05
2.03484e-05
2.20601e-05
2.33103e-05
2.40726e-05
2.43375e-05
2.41565e-05
2.36325e-05
2.28823e-05
2.20144e-05
2.11251e-05
2.02972e-05
1.95934e-05
1.9053e-05
1.87415e-05
1.87076e-05
1.88974e-05
1.96696e-05
2.20238e-05
2.50242e-05
2.63571e-05
3.21475e-05
4.28842e-05
5.16969e-05
5.78776e-05
5.82334e-05
4.97887e-05
3.84209e-05
3.00104e-05
2.3187e-05
1.78389e-05
1.4984e-05
1.34558e-05
1.44159e-05
1.68379e-05
1.82991e-05
2.85317e-05
4.27431e-05
4.87655e-05
4.53953e-05
3.79157e-05
3.09123e-05
2.58689e-05
2.23984e-05
1.98099e-05
1.76961e-05
1.58923e-05
1.43269e-05
1.29495e-05
1.17163e-05
1.05922e-05
9.55216e-06
8.58039e-06
7.66874e-06
6.81556e-06
6.02473e-06
5.30424e-06
4.66551e-06
4.12368e-06
3.69439e-06
3.39118e-06
3.22806e-06
3.22269e-06
3.39589e-06
3.76702e-06
4.32741e-06
5.00942e-06
5.82402e-06
7.22211e-06
1.03238e-05
1.67676e-05
2.71148e-05
3.91099e-05
4.87577e-05
5.30258e-05
5.1261e-05
4.49048e-05
3.73795e-05
3.33958e-05
3.64226e-05
4.4774e-05
5.2096e-05
5.29852e-05
4.69985e-05
3.78481e-05
2.9282e-05
2.27156e-05
1.72909e-05
1.33456e-05
7.66487e-06
4.54131e-06
4.27065e-06
3.86577e-06
3.54438e-06
3.77007e-06
4.86258e-06
6.65856e-06
8.86168e-06
1.12427e-05
1.36271e-05
1.58768e-05
1.78808e-05
1.95444e-05
2.07989e-05
2.1622e-05
2.20358e-05
2.20913e-05
2.18557e-05
2.14074e-05
2.08323e-05
2.02166e-05
1.96378e-05
1.91611e-05
1.88293e-05
1.8703e-05
1.88717e-05
1.93052e-05
2.02085e-05
2.26345e-05
2.6545e-05
2.87342e-05
3.23874e-05
4.25968e-05
5.28742e-05
6.00981e-05
6.18108e-05
5.55176e-05
4.50929e-05
3.55425e-05
2.73626e-05
2.07e-05
1.62517e-05
1.40959e-05
1.53171e-05
1.74585e-05
1.89546e-05
2.99793e-05
4.41952e-05
4.95894e-05
4.56638e-05
3.8023e-05
3.11119e-05
2.61895e-05
2.27834e-05
2.02164e-05
1.81093e-05
1.63088e-05
1.47436e-05
1.33612e-05
1.21171e-05
1.09764e-05
9.91468e-06
8.91706e-06
7.97638e-06
7.09203e-06
6.26881e-06
5.51548e-06
4.84409e-06
4.27024e-06
3.80995e-06
3.47799e-06
3.29051e-06
3.26764e-06
3.43168e-06
3.8036e-06
4.38236e-06
5.10528e-06
5.9391e-06
7.23761e-06
1.00185e-05
1.59151e-05
2.5891e-05
3.81678e-05
4.88223e-05
5.45259e-05
5.42601e-05
4.92163e-05
4.2622e-05
3.85316e-05
4.0312e-05
4.73373e-05
5.32882e-05
5.28006e-05
4.60821e-05
3.70755e-05
2.90701e-05
2.30176e-05
1.78459e-05
1.40665e-05
8.15893e-06
3.94759e-06
3.77912e-06
3.55477e-06
3.4556e-06
3.78463e-06
4.72633e-06
6.19947e-06
8.02295e-06
1.0033e-05
1.20886e-05
1.40631e-05
1.585e-05
1.73726e-05
1.85849e-05
1.94653e-05
2.00144e-05
2.02573e-05
2.02414e-05
2.00304e-05
1.96975e-05
1.93175e-05
1.89595e-05
1.86874e-05
1.85491e-05
1.85964e-05
1.89424e-05
1.96152e-05
2.06894e-05
2.30933e-05
2.7565e-05
3.12349e-05
3.38051e-05
4.23866e-05
5.37368e-05
6.22981e-05
6.54355e-05
6.10503e-05
5.16329e-05
4.14321e-05
3.20661e-05
2.4129e-05
1.8243e-05
1.54326e-05
1.66708e-05
1.82794e-05
1.98832e-05
3.18409e-05
4.58337e-05
5.03034e-05
4.57027e-05
3.79393e-05
3.11955e-05
2.64436e-05
2.31267e-05
2.05962e-05
1.85078e-05
1.67206e-05
1.51633e-05
1.37818e-05
1.25308e-05
1.1376e-05
1.02938e-05
9.27044e-06
8.29979e-06
7.38238e-06
6.52408e-06
5.73452e-06
5.02651e-06
4.41623e-06
3.92032e-06
3.55523e-06
3.34002e-06
3.29791e-06
3.45278e-06
3.82598e-06
4.42247e-06
5.18922e-06
6.05916e-06
7.27985e-06
9.75006e-06
1.5034e-05
2.44423e-05
3.67952e-05
4.83645e-05
5.55403e-05
5.68766e-05
5.32395e-05
4.75679e-05
4.33841e-05
4.41463e-05
4.97683e-05
5.39658e-05
5.19249e-05
4.46922e-05
3.61651e-05
2.88628e-05
2.32613e-05
1.82404e-05
1.46026e-05
8.5283e-06
3.50788e-06
3.43052e-06
3.34952e-06
3.40283e-06
3.7846e-06
4.60863e-06
5.83823e-06
7.35991e-06
9.05246e-06
1.0805e-05
1.25203e-05
1.41164e-05
1.55263e-05
1.66989e-05
1.76036e-05
1.82345e-05
1.86084e-05
1.87606e-05
1.8741e-05
1.86097e-05
1.84305e-05
1.82649e-05
1.81737e-05
1.82106e-05
1.84199e-05
1.89156e-05
1.98026e-05
2.10878e-05
2.34411e-05
2.80494e-05
3.32464e-05
3.62065e-05
4.26632e-05
5.41909e-05
6.41687e-05
6.87962e-05
6.6123e-05
5.77639e-05
4.73353e-05
3.70707e-05
2.80072e-05
2.09178e-05
1.75445e-05
1.84878e-05
1.92762e-05
2.11939e-05
3.41936e-05
4.76202e-05
5.08289e-05
4.54642e-05
3.76513e-05
3.11604e-05
2.6627e-05
2.3423e-05
2.0945e-05
1.88889e-05
1.71263e-05
1.55857e-05
1.42114e-05
1.29581e-05
1.17922e-05
1.06911e-05
9.64207e-06
8.64045e-06
7.68797e-06
6.79166e-06
5.96216e-06
5.21321e-06
4.5617e-06
4.02512e-06
3.622e-06
3.3751e-06
3.31169e-06
3.45765e-06
3.83323e-06
4.44666e-06
5.25763e-06
6.17986e-06
7.35276e-06
9.53601e-06
1.41733e-05
2.28133e-05
3.49674e-05
4.72768e-05
5.59014e-05
5.89063e-05
5.67564e-05
5.20085e-05
4.78003e-05
4.77446e-05
5.17501e-05
5.37721e-05
5.0181e-05
4.28799e-05
3.52344e-05
2.87161e-05
2.34507e-05
1.84572e-05
1.49123e-05
8.72846e-06
3.20322e-06
3.19923e-06
3.22041e-06
3.36597e-06
3.76079e-06
4.47987e-06
5.5111e-06
6.78667e-06
8.22242e-06
9.73386e-06
1.12406e-05
1.26701e-05
1.39619e-05
1.50716e-05
1.59716e-05
1.66519e-05
1.71199e-05
1.74004e-05
1.75328e-05
1.75663e-05
1.75556e-05
1.75555e-05
1.76222e-05
1.78133e-05
1.81715e-05
1.87925e-05
1.98486e-05
2.13671e-05
2.37011e-05
2.80918e-05
3.43275e-05
3.88528e-05
4.37709e-05
5.4273e-05
6.53564e-05
7.15075e-05
7.04307e-05
6.31928e-05
5.29064e-05
4.20915e-05
3.21401e-05
2.41357e-05
2.034e-05
2.0659e-05
2.0397e-05
2.30461e-05
3.70933e-05
4.94624e-05