/*--------------------------------*- C++ -*----------------------------------*\
  =========                 |
  \\      /  F ield         | OpenFOAM: The Open Source CFD Toolbox
   \\    /   O peration     | Website:  https://openfoam.org
    \\  /    A nd           | Version:  10
     \\/     M anipulation  |
\*---------------------------------------------------------------------------*/
FoamFile
{
    format      ascii;
    class       volScalarField;
    location    "0.195";
    object      p;
}
// * * * * * * * * * * * * * * * * * * * * * * * * * * * * * * * * * * * * * //

dimensions      [0 2 -2 0 0 0 0];

internalField   nonuniform List<scalar> 
6820
(
7.88257
-6.4514
-8.45838
-8.64838
-8.81461
-8.76726
-8.74967
-8.78568
-8.84869
-8.92888
-9.01987
-9.11811
-9.22212
-9.33136
-9.4457
-9.56521
-9.68998
-9.82061
-9.95704
-10.1001
-10.25
-10.4077
-10.5737
-10.7492
-10.9354
-11.1336
-11.346
-11.5743
-11.8227
-12.0912
-12.3972
-12.711
-13.1563
2.50667
-6.24681
-8.26151
-8.52534
-8.74382
-8.76046
-8.76448
-8.80705
-8.87033
-8.94775
-9.03554
-9.13088
-9.23248
-9.33982
-9.45268
-9.57109
-9.69499
-9.82439
-9.9603
-10.1029
-10.2524
-10.4095
-10.5749
-10.7497
-10.935
-11.1323
-11.3433
-11.57
-11.8156
-12.0812
-12.3778
-12.6882
-13.0783
0.429615
-5.03134
-7.46432
-8.0666
-8.46033
-8.62011
-8.68642
-8.75608
-8.83511
-8.92226
-9.01682
-9.11722
-9.22256
-9.33253
-9.4471
-9.56645
-9.69075
-9.8205
-9.95622
-10.0978
-10.2463
-10.4023
-10.5662
-10.7393
-10.9223
-11.1164
-11.3232
-11.5441
-11.7814
-12.0343
-12.3062
-12.5766
-12.8361
-1.13473
-4.8447
-7.16274
-7.8226
-8.21714
-8.43985
-8.5562
-8.65765
-8.75945
-8.86137
-8.96521
-9.07176
-9.18135
-9.29444
-9.41136
-9.53238
-9.6578
-9.78796
-9.92336
-10.0643
-10.2113
-10.3651
-10.5253
-10.6945
-10.8725
-11.0601
-11.2583
-11.4675
-11.6881
-11.9176
-12.1526
-12.3744
-12.5569
-2.4159
-4.8845
-6.85029
-7.54303
-7.96547
-8.25352
-8.42329
-8.55471
-8.67532
-8.78958
-8.90172
-9.01434
-9.12833
-9.24427
-9.36289
-9.48476
-9.61027
-9.73981
-9.87385
-10.0127
-10.1566
-10.3058
-10.4622
-10.6245
-10.794
-10.9711
-11.1559
-11.3477
-11.5455
-11.7454
-11.9407
-12.1162
-12.2464
-3.3688
-5.0026
-6.66075
-7.38421
-7.81587
-8.12572
-8.3211
-8.46845
-8.60043
-8.72338
-8.84168
-8.95856
-9.07555
-9.19356
-9.31332
-9.43541
-9.56033
-9.68853
-9.82044
-9.95638
-10.0969
-10.2427
-10.3937
-10.5493
-10.7104
-10.8769
-11.0484
-11.2236
-11.4005
-11.5748
-11.7391
-11.8822
-11.9851
-4.10892
-5.20902
-6.56691
-7.26026
-7.67786
-7.99585
-8.21478
-8.38096
-8.5263
-8.65903
-8.7841
-8.90561
-9.02574
-9.14572
-9.26648
-9.38881
-9.51328
-9.64034
-9.77043
-9.90391
-10.0411
-10.1821
-10.327
-10.4756
-10.6282
-10.7843
-10.9432
-11.1033
-11.2619
-11.415
-11.5561
-11.6767
-11.7636
-4.68675
-5.43253
-6.52225
-7.16862
-7.57453
-7.89437
-8.12749
-8.30562
-8.45915
-8.59818
-8.72793
-8.85273
-8.97511
-9.09648
-9.2179
-9.34017
-9.46385
-9.58942
-9.71724
-9.84758
-9.9807
-10.1168
-10.2558
-10.3976
-10.5419
-10.6881
-10.8352
-10.9814
-11.1242
-11.2599
-11.3831
-11.4878
-11.5656
-5.14323
-5.65725
-6.52463
-7.11115
-7.49628
-7.80647
-8.04432
-8.23037
-8.39072
-8.53565
-8.67014
-8.79841
-8.92318
-9.04604
-9.16811
-9.29026
-9.41309
-9.53709
-9.66261
-9.7899
-9.91919
-10.0505
-10.1837
-10.3185
-10.4546
-10.5911
-10.727
-10.8607
-10.9896
-11.1108
-11.2202
-11.3135
-11.3857
-5.50814
-5.86902
-6.55472
-7.07496
-7.43567
-7.73322
-7.97177
-8.16305
-8.32814
-8.47712
-8.61486
-8.74547
-8.87174
-8.99537
-9.11753
-9.23909
-9.3607
-9.48279
-9.60569
-9.72963
-9.85471
-9.98091
-10.1081
-10.2359
-10.3639
-10.4912
-10.6168
-10.7391
-10.8561
-10.9652
-11.0636
-11.1485
-11.2171
-5.80269
-6.06149
-6.6029
-7.0578
-7.39189
-7.6735
-7.90744
-8.09986
-8.26714
-8.41857
-8.55867
-8.69114
-8.81867
-8.94293
-9.06509
-9.18601
-9.30632
-9.42643
-9.54666
-9.66718
-9.78808
-9.90928
-10.0306
-10.1516
-10.2719
-10.3905
-10.5066
-10.6187
-10.7251
-10.8241
-10.9134
-10.9917
-11.0572
-6.04237
-6.23226
-6.66057
-7.05387
-7.35986
-7.62388
-7.85038
-8.04169
-8.20977
-8.36259
-8.50419
-8.63785
-8.76606
-8.89046
-9.0122
-9.1321
-9.25077
-9.36861
-9.48591
-9.60281
-9.71934
-9.83541
-9.95079
-10.0651
-10.1778
-10.2882
-10.3954
-10.4982
-10.5953
-10.6854
-10.7671
-10.8396
-10.9022
-6.23845
-6.38105
-6.72158
-7.05935
-7.3374
-7.58333
-7.80027
-7.98814
-8.15517
-8.30793
-8.44996
-8.58404
-8.7124
-8.83658
-8.95763
-9.07632
-9.19321
-9.30868
-9.42298
-9.53622
-9.6484
-9.75941
-9.86902
-9.97685
-10.0824
-10.1851
-10.284
-10.3784
-10.4672
-10.5494
-10.6243
-10.6914
-10.7507
-6.3992
-6.50876
-6.78155
-7.07062
-7.32166
-7.54948
-7.75561
-7.93842
-8.1032
-8.25501
-8.39677
-8.53075
-8.65888
-8.78249
-8.90256
-9.01979
-9.13468
-9.24759
-9.35872
-9.46816
-9.57591
-9.68184
-9.78572
-9.88721
-9.98586
-10.0811
-10.1724
-10.2589
-10.34
-10.415
-10.4835
-10.5454
-10.6008
-6.53076
-6.61677
-6.83742
-7.08473
-7.31046
-7.52079
-7.71558
-7.89223
-8.05369
-8.20363
-8.34431
-8.47755
-8.60491
-8.72756
-8.84634
-8.96187
-9.07458
-9.18479
-9.29267
-9.39829
-9.50163
-9.60255
-9.70086
-9.79624
-9.88832
-9.97663
-10.0607
-10.1399
-10.2139
-10.2821
-10.3445
-10.401
-10.452
-6.63768
-6.70661
-6.88713
-7.09922
-7.30181
-7.49558
-7.67897
-7.84874
-8.00611
-8.15352
-8.29258
-8.42464
-8.5509
-8.67233
-8.78961
-8.90325
-9.01365
-9.12105
-9.2256
-9.32734
-9.42626
-9.52223
-9.61507
-9.70451
-9.79023
-9.87188
-9.94907
-10.0214
-10.0886
-10.1503
-10.2066
-10.2576
-10.3035
-6.72341
-6.77972
-6.92932
-7.1121
-7.29396
-7.47241
-7.64476
-7.80736
-7.96018
-8.10456
-8.24153
-8.37199
-8.4968
-8.6167
-8.73223
-8.84381
-8.95174
-9.05622
-9.15738
-9.25524
-9.34977
-9.44088
-9.52839
-9.6121
-9.69174
-9.76704
-9.83771
-9.90348
-9.96415
-10.0196
-10.0698
-10.115
-10.1555
-6.7905
-6.83736
-6.96308
-7.12176
-7.28542
-7.44996
-7.61189
-7.76734
-7.91536
-8.05641
-8.19098
-8.31954
-8.44266
-8.56084
-8.67447
-8.78386
-8.88923
-8.99074
-9.08848
-9.18246
-9.27266
-9.35898
-9.4413
-9.51943
-9.5932
-9.66238
-9.72677
-9.78621
-9.84056
-9.8898
-9.93395
-9.97324
-10.0078
-6.84088
-6.88059
-6.98786
-7.1269
-7.27487
-7.42703
-7.57941
-7.72801
-7.87123
-8.00885
-8.14084
-8.26734
-8.38861
-8.50492
-8.61654
-8.72364
-8.82639
-8.9249
-9.01921
-9.10935
-9.19528
-9.27693
-9.35419
-9.42695
-9.49504
-9.55834
-9.6167
-9.67002
-9.71823
-9.76136
-9.79944
-9.8327
-9.8612
-6.87595
-6.91022
-7.00326
-7.12647
-7.26117
-7.40255
-7.54639
-7.68864
-7.82727
-7.96149
-8.09088
-8.21523
-8.33455
-8.44892
-8.55844
-8.6632
-8.7633
-8.85878
-8.94969
-9.03602
-9.11774
-9.19482
-9.26716
-9.33468
-9.39729
-9.4549
-9.50741
-9.55478
-9.59699
-9.63409
-9.66612
-9.69329
-9.71562
-6.89672
-6.92685
-7.00895
-7.1196
-7.24333
-7.37556
-7.51202
-7.64863
-7.78309
-7.91416
-8.04108
-8.16337
-8.2808
-8.39326
-8.50072
-8.60319
-8.70067
-8.7932
-8.88077
-8.96339
-9.04103
-9.11366
-9.18125
-9.24372
-9.30104
-9.35314
-9.4
-9.44161
-9.47797
-9.50915
-9.5352
-9.5563
-9.57244
-6.90381
-6.93082
-7.00464
-7.10552
-7.22044
-7.34516
-7.47546
-7.60728
-7.7381
-7.86637
-7.99104
-8.1114
-8.227
-8.33759
-8.44301
-8.54319
-8.63809
-8.72768
-8.81197
-8.89093
-8.96457
-9.03288
-9.09582
-9.1534
-9.20558
-9.25235
-9.29373
-9.32973
-9.36039
-9.38578
-9.40596
-9.42111
-9.43117
-6.89755
-6.92228
-6.98999
-7.08354
-7.19171
-7.31061
-7.4361
-7.56417
-7.69214
-7.81823
-7.94113
-8.05993
-8.17402
-8.283
-8.38661
-8.48471
-8.57719
-8.66402
-8.74518
-8.82066
-8.89047
-8.95462
-9.01311
-9.06597
-9.1132
-9.15485
-9.19093
-9.22151
-9.24663
-9.2664
-9.28086
-9.29019
-9.2943
-6.878
-6.90113
-6.96458
-7.05296
-7.1563
-7.27103
-7.39307
-7.51845
-7.64436
-7.76883
-7.89037
-8.00791
-8.12069
-8.2282
-8.33011
-8.4262
-8.51635
-8.60049
-8.6786
-8.75069
-8.81676
-8.87687
-8.93104
-8.97933
-9.02178
-9.05845
-9.08942
-9.11475
-9.13453
-9.14886
-9.15781
-9.16157
-9.16004
-6.84489
-6.86704
-6.92789
-7.01313
-7.11362
-7.22599
-7.34623
-7.47034
-7.59541
-7.7193
-7.84037
-7.95739
-8.06948
-8.17605
-8.2767
-8.37116
-8.45928
-8.54101
-8.61632
-8.68523
-8.74778
-8.80405
-8.85409
-8.898
-8.93586
-8.96776
-8.99379
-9.01408
-9.0287
-9.0378
-9.04144
-9.0398
-9.03282
-6.79766
-6.81939
-6.87914
-6.96311
-7.06255
-7.1742
-7.29405
-7.41804
-7.54317
-7.66718
-7.78829
-7.90519
-8.0169
-8.12276
-8.22233
-8.31532
-8.40157
-8.48101
-8.55364
-8.61951
-8.67867
-8.73124
-8.77731
-8.817
-8.85043
-8.87774
-8.89904
-8.91448
-8.92418
-8.92829
-8.92691
-8.92024
-8.90824
-6.73541
-6.75732
-6.81758
-6.90241
-7.00307
-7.1163
-7.238
-7.36396
-7.49101
-7.61676
-7.73931
-7.85724
-7.96953
-8.07547
-8.17459
-8.26661
-8.35138
-8.42887
-8.4991
-8.56215
-8.61813
-8.66718
-8.70944
-8.74509
-8.77427
-8.79715
-8.8139
-8.82467
-8.82964
-8.82895
-8.82273
-8.8112
-8.7943
-6.65679
-6.67939
-6.74162
-6.82905
-6.93259
-7.04889
-7.17369
-7.30264
-7.43246
-7.56065
-7.68524
-7.80472
-7.91803
-8.02444
-8.12346
-8.21483
-8.29841
-8.3742
-8.44225
-8.5027
-8.55569
-8.60142
-8.64007
-8.67186
-8.69698
-8.71564
-8.72805
-8.7344
-8.73488
-8.72969
-8.71899
-8.70304
-8.68182
-6.56005
-6.58425
-6.65074
-6.74392
-6.85388
-6.97692
-7.10839
-7.24358
-7.37897
-7.51194
-7.64044
-7.76295
-7.87841
-7.98613
-8.08568
-8.17684
-8.25955
-8.33387
-8.39992
-8.45789
-8.50801
-8.5505
-8.58563
-8.61365
-8.63481
-8.64935
-8.65753
-8.65956
-8.65569
-8.64612
-8.63104
-8.6107
-8.58511
-6.44244
-6.46856
-6.54056
-6.64075
-6.75801
-6.88849
-7.02735
-7.16956
-7.3114
-7.4501
-7.58351
-7.71003
-7.82859
-7.93849
-8.03935
-8.13099
-8.21342
-8.28676
-8.35123
-8.40709
-8.45462
-8.49416
-8.526
-8.55048
-8.56789
-8.57854
-8.58272
-8.58071
-8.57277
-8.55916
-8.54013
-8.51596
-8.48675
-6.3012
-6.33162
-6.41441
-6.52843
-6.66012
-6.80481
-6.95686
-7.1107
-7.26245
-7.40937
-7.54938
-7.681
-7.8033
-7.91573
-8.01803
-8.11016
-8.19224
-8.26452
-8.32729
-8.38092
-8.42577
-8.46224
-8.49071
-8.51157
-8.52517
-8.53188
-8.53201
-8.5259
-8.51384
-8.49612
-8.473
-8.44476
-8.4115
-6.12996
-6.16319
-6.25568
-6.38179
-6.52623
-6.68456
-6.85059
-7.01785
-7.18195
-7.33985
-7.48924
-7.62859
-7.75697
-7.87392
-7.97932
-8.07327
-8.15606
-8.22807
-8.28977
-8.34165
-8.3842
-8.41793
-8.44332
-8.46082
-8.47089
-8.47392
-8.47031
-8.46044
-8.44465
-8.42329
-8.39666
-8.36514
-8.32888
-5.92669
-5.97255
-6.09153
-6.24713
-6.41848
-6.60065
-6.78705
-6.97114
-7.14896
-7.31794
-7.47611
-7.62223
-7.75566
-7.87615
-7.98376
-8.07877
-8.1616
-8.23279
-8.29291
-8.34257
-8.38239
-8.41295
-8.43483
-8.44856
-8.45466
-8.4536
-8.44581
-8.43172
-8.41172
-8.38616
-8.35539
-8.31975
-8.27943
-5.67018
-5.71513
-5.84758
-6.02305
-6.2185
-6.4284
-6.64288
-6.85292
-7.05373
-7.2423
-7.41653
-7.57532
-7.71836
-7.8458
-7.95808
-8.05587
-8.13995
-8.21114
-8.27028
-8.3182
-8.35568
-8.38348
-8.40228
-8.41271
-8.41537
-8.41079
-8.39946
-8.38184
-8.35836
-8.32946
-8.29552
-8.25702
-8.21422
-5.37829
-5.47061
-5.67039
-5.89839
-6.13044
-6.36916
-6.60669
-6.83512
-7.05114
-7.25248
-7.43728
-7.60465
-7.75439
-7.88673
-8.00223
-8.10169
-8.18605
-8.2563
-8.31348
-8.35859
-8.39259
-8.41637
-8.43077
-8.43655
-8.43437
-8.42486
-8.40856
-8.38598
-8.35757
-8.32377
-8.28501
-8.24173
-8.19433
-4.94222
-5.00852
-5.23852
-5.52299
-5.82159
-6.12727
-6.42338
-6.70018
-6.95502
-7.18631
-7.39334
-7.57669
-7.7375
-7.8771
-7.99699
-8.09869
-8.18367
-8.25337
-8.30913
-8.35219
-8.3837
-8.4047
-8.41614
-8.41883
-8.41352
-8.40086
-8.3814
-8.35565
-8.32406
-8.28709
-8.24515
-8.1989
-8.14885
-4.56522
-4.81598
-5.16665
-5.47706
-5.78628
-6.10896
-6.4218
-6.71613
-6.99025
-7.2406
-7.46486
-7.66275
-7.83488
-7.98242
-8.10702
-8.21052
-8.29482
-8.36181
-8.41327
-8.45083
-8.476
-8.49012
-8.49437
-8.48977
-8.4772
-8.45741
-8.43102
-8.3985
-8.36023
-8.31657
-8.26767
-8.21425
-8.15624
-3.50136
-3.76453
-4.3689
-4.90575
-5.39566
-5.8574
-6.26668
-6.62617
-6.94353
-7.2216
-7.46348
-7.67265
-7.85212
-8.00454
-8.13235
-8.23783
-8.32309
-8.39016
-8.44093
-8.47715
-8.50043
-8.51223
-8.51385
-8.50643
-8.49093
-8.46817
-8.43874
-8.40307
-8.36131
-8.31355
-8.25905
-8.19883
-8.12864
-3.54417
-4.10094
-4.53375
-4.8859
-5.34748
-5.82595
-6.27138
-6.68665
-7.06327
-7.39293
-7.6755
-7.91362
-8.11056
-8.27032
-8.39721
-8.49545
-8.56894
-8.62122
-8.65541
-8.67422
-8.68001
-8.67476
-8.66017
-8.63768
-8.60846
-8.57347
-8.53343
-8.48873
-8.43939
-8.38474
-8.32276
-8.25083
-8.15845
1.41079
-2.2792
-3.59521
-4.25241
-5.03582
-5.69498
-6.21881
-6.67355
-7.06663
-7.39946
-7.67977
-7.91355
-8.10568
-8.26106
-8.38432
-8.47964
-8.55086
-8.60137
-8.63419
-8.65194
-8.65688
-8.65097
-8.63588
-8.61302
-8.5836
-8.54861
-8.50899
-8.46524
-8.4184
-8.36785
-8.31625
-8.25864
-8.20554
-13.3681
-13.1146
-12.417
-11.3199
-10.3234
-9.99846
-10.7963
-12.8024
-15.9191
-19.8157
-23.8821
-27.4464
-29.9434
-30.8883
-29.9328
-27.1156
-23.0015
-18.4805
-14.3048
-10.8416
-8.14127
-6.10784
-4.62148
-3.58298
-2.9192
-2.58061
-2.54336
-2.80886
-3.40455
-4.35582
-5.62033
-7.1856
-9.0806
-11.5455
-15.1325
-20.7161
-29.5402
-40.4971
-50.1001
-57.3181
-63.0717
-67.5252
-69.8045
-68.7056
-63.2491
-53.7489
-41.9313
-30.5728
-21.7076
-15.5746
-11.4418
-8.56488
-6.47317
-4.90961
-3.72792
-2.83234
-2.15341
-1.63918
-1.25067
-0.958529
-0.740387
-0.57904
-0.46115
-0.37632
-0.316406
-0.274991
-0.246978
-0.228293
-0.21568
-0.206643
-0.199506
-0.193428
-0.188765
-0.187232
-0.192149
-0.209084
-0.246299
-0.314797
-0.430952
-0.627937
-0.991013
-1.73584
-3.3436
-6.55404
-11.875
-18.877
-25.9104
-30.591
-31.1524
-27.2842
-20.3948
-12.9327
-6.89559
-3.0972
-1.17303
-0.407425
-0.117041
-0.0821925
0.00626265
-0.0324783
-13.2777
-12.9589
-12.2719
-11.3089
-10.4925
-10.2804
-11.0173
-12.8868
-15.8002
-19.381
-23.0652
-26.2128
-28.253
-28.7375
-27.4812
-24.699
-20.9938
-17.0694
-13.4368
-10.3563
-7.88928
-5.98739
-4.5705
-3.56406
-2.90992
-2.56755
-2.51792
-2.76634
-3.34489
-4.29138
-5.57193
-7.15865
-9.07187
-11.5202
-15.0245
-20.4301
-28.9777
-39.7483
-49.4331
-56.7666
-62.4185
-66.6338
-68.7411
-67.717
-62.5788
-53.4623
-41.8963
-30.6144
-21.7524
-15.6231
-11.502
-8.63606
-6.55132
-4.99122
-3.81056
-2.91432
-2.23348
-1.71637
-1.32425
-1.0279
-0.805059
-0.638597
-0.515242
-0.424673
-0.358845
-0.311464
-0.277593
-0.253345
-0.235677
-0.22232
-0.211787
-0.203457
-0.197828
-0.196693
-0.203405
-0.223536
-0.26542
-0.340237
-0.46415
-0.668544
-1.0321
-1.75258
-3.27242
-6.27963
-11.2628
-17.8391
-24.4692
-28.9086
-29.4949
-25.9142
-19.4579
-12.4229
-6.70237
-3.07776
-1.21554
-0.450652
-0.146168
-0.0926427
-0.00229362
-0.0179366
-12.9656
-12.7269
-12.1513
-11.3543
-10.6955
-10.5975
-11.386
-13.1574
-15.7894
-18.9462
-22.0901
-24.6493
-26.1303
-26.2082
-24.8496
-22.3341
-19.1553
-15.8044
-12.646
-9.8978
-7.64059
-5.8624
-4.51314
-3.53828
-2.89268
-2.54414
-2.4779
-2.70219
-3.2527
-4.18018
-5.46369
-7.06241
-8.98563
-11.4049
-14.8074
-20.0097
-28.2449
-38.7755
-48.4918
-55.9308
-61.5075
-65.5025
-67.4285
-66.4464
-61.6052
-52.8906
-41.6401
-30.5162
-21.7213
-15.633
-11.5421
-8.69616
-6.62346
-5.07003
-3.89253
-2.997
-2.31509
-1.7956
-1.40012
-1.09966
-0.8721
-0.700413
-0.571422
-0.474905
-0.402931
-0.349351
-0.3094
-0.279389
-0.256496
-0.238683
-0.224651
-0.213982
-0.207298
-0.20647
-0.214882
-0.2381
-0.284477
-0.365318
-0.496607
-0.708096
-1.07219
-1.76873
-3.20024
-5.99992
-10.6326
-16.7622
-22.9677
-27.1543
-27.7647
-24.4807
-18.4765
-11.89
-6.50351
-3.06183
-1.26391
-0.498831
-0.178503
-0.105055
-0.0107899
-0.00572228
-12.6514
-12.4735
-12.0219
-11.44
-11.0101
-11.0471
-11.7823
-13.3041
-15.5193
-18.1191
-20.6537
-22.6401
-23.6869
-23.5903
-22.3689
-20.2433
-17.5632
-14.6906
-11.9236
-9.46134
-7.39477
-5.73393
-4.45053
-3.50654
-2.86827
-2.51121
-2.42432
-2.61769
-3.12881
-4.01977
-5.28732
-6.8815
-8.80069
-11.1756
-14.4579
-19.4303
-27.3099
-37.544
-47.2453
-54.7848
-60.3183
-64.1229
-65.8744
-64.9138
-60.3485
-52.0449
-41.1623
-30.2716
-21.6074
-15.5992
-11.5587
-8.74319
-6.68835
-5.14525
-3.97328
-3.08002
-2.39802
-1.87675
-1.47826
-1.17383
-0.941555
-0.764554
-0.629767
-0.527094
-0.448744
-0.38873
-0.342471
-0.306488
-0.278183
-0.255744
-0.238059
-0.224909
-0.21704
-0.216389
-0.226361
-0.252489
-0.303116
-0.38964
-0.527852
-0.745851
-1.10981
-1.78173
-3.12397
-5.71287
-9.98626
-15.655
-21.4228
-25.3511
-25.9869
-23.0073
-17.4693
-11.3468
-6.30589
-3.05211
-1.31881
-0.552145
-0.21422
-0.119775
-0.0192867
0.00383313
-12.3137
-12.1979
-11.8959
-11.5259
-11.2885
-11.4126
-12.0757
-13.3393
-15.1159
-17.1636
-19.1322
-20.6514
-21.4291
-21.3009
-20.2616
-18.4683
-16.1833
-13.6961
-11.2587
-9.04798
-7.15523
-5.60452
-4.38427
-3.47007
-2.83789
-2.46994
-2.35848
-2.51436
-2.97501
-3.81084
-5.04022
-6.60717
-8.50109
-10.8109
-13.9499
-18.6681
-26.1606
-36.05
-45.6883
-53.3167
-58.8365
-62.4877
-64.0815
-63.1304
-58.8198
-50.9284
-40.4579
-29.8738
-21.4065
-15.5198
-11.5511
-8.77679
-6.74589
-5.21695
-4.05304
-3.16366
-2.4826
-1.96016
-1.55897
-1.25071
-1.01371
-0.831278
-0.690496
-0.581419
-0.496419
-0.429688
-0.376851
-0.334649
-0.300716
-0.273468
-0.251979
-0.236212
-0.227028
-0.226419
-0.237803
-0.266658
-0.321268
-0.413077
-0.557677
-0.781536
-1.14467
-1.79144
-3.0443
-5.42221
-9.33352
-14.5352
-19.8587
-23.5253
-24.186
-21.5143
-16.4512
-10.8029
-6.11478
-3.05113
-1.38156
-0.611623
-0.254224
-0.137608
-0.0281591
0.0101835
-12.0443
-11.9838
-11.7977
-11.5793
-11.4776
-11.6583
-12.2469
-13.2825
-14.6954
-16.3018
-17.8352
-19.0072
-19.5774
-19.4084
-18.4929
-16.9469
-14.973
-12.8035
-10.6474
-8.65825
-6.92332
-5.47553
-4.31559
-3.43002
-2.80279
-2.42182
-2.28225
-2.39472
-2.79467
-3.5563
-4.72187
-6.23583
-8.0799
-10.3039
-13.2785
-17.7239
-24.8073
-34.3074
-43.8253
-51.517
-57.0462
-60.5854
-62.0494
-61.1074
-57.0342
-49.5515
-39.5298
-29.3209
-21.1159
-15.3926
-11.5179
-8.79614
-6.79564
-5.28493
-4.13175
-3.24798
-2.56894
-2.04599
-1.64247
-1.33052
-1.08878
-0.900774
-0.753778
-0.638024
-0.546069
-0.472313
-0.412602
-0.363911
-0.324107
-0.291839
-0.26636
-0.247812
-0.237158
-0.23644
-0.249072
-0.280452
-0.338761
-0.435426
-0.585834
-0.814898
-1.17671
-1.79859
-2.96395
-5.13448
-8.68681
-13.4219
-18.2997
-21.7035
-22.3891
-20.0259
-15.4405
-10.2699
-5.93629
-3.06126
-1.45285
-0.677637
-0.298895
-0.158996
-0.037599
0.0129429
-11.8194
-11.7971
-11.6936
-11.5817
-11.5713
-11.781
-12.3005
-13.1557
-14.2875
-15.55
-16.7338
-17.6133
-18.0021
-17.7913
-16.9691
-15.6204
-13.9024
-12.0003
-10.0864
-8.29259
-6.70064
-5.34855
-4.2459
-3.3877
-2.76445
-2.3687
-2.19801
-2.26205
-2.59256
-3.26267
-4.33703
-5.76881
-7.53421
-9.65182
-12.4462
-16.6073
-23.2657
-32.3339
-41.6666
-49.3836
-54.936
-58.4047
-59.7749
-58.8517
-55.0045
-47.9257
-38.3838
-28.6145
-20.7357
-15.2174
-11.4586
-8.80089
-6.83744
-5.34921
-4.20955
-3.3332
-2.65733
-2.13456
-1.72908
-1.41358
-1.16706
-0.973316
-0.819849
-0.697098
-0.59784
-0.516703
-0.449777
-0.394282
-0.348333
-0.310807
-0.281141
-0.259635
-0.247346
-0.246354
-0.26005
-0.293735
-0.355435
-0.45649
-0.612071
-0.845623
-1.20565
-1.80331
-2.8845
-4.85467
-8.05679
-12.3327
-16.7697
-19.9137
-20.6236
-18.5655
-14.4546
-9.75909
-5.77593
-3.0845
-1.53332
-0.750637
-0.348776
-0.184559
-0.0479743
0.0117678
-11.6228
-11.6314
-11.5899
-11.5537
-11.6034
-11.8239
-12.2778
-12.9786
-13.8763
-14.8562
-15.7566
-16.4033
-16.6483
-16.4022
-15.6523
-14.4629
-12.9559
-11.2788
-9.57277
-7.9508
-6.48811
-5.22482
-4.17644
-3.34445
-2.7245
-2.31272
-2.10864
-2.12051
-2.37489
-2.93949
-3.89605
-5.21489
-6.86899
-8.85843
-11.461
-15.3331
-21.558
-30.1564
-39.2363
-46.9283
-52.5051
-55.94
-57.258
-56.3709
-52.7447
-46.0653
-37.0306
-27.761
-20.2686
-14.9948
-11.3731
-8.79082
-6.87122
-5.40986
-4.28659
-3.41955
-2.74804
-2.22618
-1.81912
-1.50021
-1.24886
-1.04918
-0.888948
-0.758838
-0.65188
-0.562959
-0.488432
-0.425783
-0.373378
-0.330326
-0.296243
-0.271579
-0.257473
-0.256025
-0.27059
-0.306346
-0.371115
-0.476071
-0.636145
-0.873425
-1.23122
-1.80563
-2.80723
-4.5871
-7.45341
-11.285
-15.2929
-18.1833
-18.9166
-17.157
-13.5114
-9.28139
-5.63886
-3.12244
-1.62323
-0.830748
-0.404118
-0.214639
-0.0595469
0.00649568
-11.4454
-11.4763
-11.478
-11.4921
-11.5776
-11.7944
-12.185
-12.7552
-13.4628
-14.2171
-14.8915
-15.3498
-15.4758
-15.1987
-14.5069
-13.4482
-12.1167
-10.6296
-9.1027
-7.63238
-6.28659
-5.10553
-4.10849
-3.30164
-2.68466
-2.25629
-2.01749
-1.97496
-2.14913
-2.59931
-3.41519
-4.59163
-6.10105
-7.93947
-10.3424
-13.9277
-19.7182
-27.8157
-36.5739
-44.1798
-49.7667
-53.1955
-54.5018
-53.6748
-50.27
-43.9878
-35.4858
-26.7711
-19.7205
-14.7271
-11.262
-8.76607
-6.89709
-5.46706
-4.36316
-3.50736
-2.84145
-2.32124
-1.91301
-1.59081
-1.33455
-1.12871
-0.961361
-0.823472
-0.708356
-0.61119
-0.528621
-0.458413
-0.399201
-0.35032
-0.311568
-0.283528
-0.267408
-0.265309
-0.280533
-0.318111
-0.385614
-0.493967
-0.657816
-0.898021
-1.25316
-1.80559
-2.73325
-4.33571
-6.88578
-10.2948
-13.8916
-16.538
-17.2939
-15.8227
-12.6274
-8.84671
-5.52928
-3.17609
-1.72259
-0.917986
-0.465131
-0.249565
-0.0726514
-0.00286221
-11.2792
-11.326
-11.3574
-11.4041
-11.5088
-11.713
-12.0445
-12.5037
-13.0543
-13.6243
-14.1153
-14.4216
-14.4525
-14.1516
-13.5078
-12.5566
-11.3714
-10.0454
-8.67335
-7.3369
-6.09673
-4.99173
-4.04323
-3.26067
-2.64672
-2.20195
-1.92822
-1.83076
-1.92362
-2.25658
-2.9161
-3.92504
-5.26015
-6.92537
-9.1248
-12.4309
-17.7923
-25.3646
-33.7345
-41.1841
-46.7514
-50.1889
-51.5191
-50.7787
-47.5991
-41.7142
-33.7701
-25.6608
-19.1001
-14.4177
-11.1263
-8.72704
-6.91535
-5.52113
-4.43959
-3.59701
-2.93798
-2.42021
-2.01121
-1.68583
-1.42456
-1.21227
-1.0374
-0.891249
-0.76745
-0.661509
-0.570394
-0.492172
-0.425753
-0.370702
-0.326996
-0.29534
-0.276991
-0.274036
-0.289698
-0.328837
-0.398733
-0.509968
-0.67685
-0.919133
-1.27117
-1.80308
-2.66325
-4.10345
-6.36135
-9.37589
-12.5854
-15.001
-15.7789
-14.5831
-11.8175
-8.46347
-5.45026
-3.24587
-1.83118
-1.01219
-0.531826
-0.289424
-0.0875264
-0.016057
-11.1206
-11.1777
-11.2275
-11.2927
-11.4035
-11.5882
-11.8644
-12.2284
-12.6497
-13.0709
-13.4152
-13.6004
-13.5556
-13.2359
-12.6318
-11.7703
-10.7081
-9.5195
-8.28169
-7.06364
-5.91896
-4.88431
-3.98178
-3.22288
-2.61246
-2.15233
-1.84469
-1.6935
-1.70717
-1.92573
-2.42355
-3.24792
-4.38773
-5.8611
-7.85624
-10.8946
-15.8365
-22.866
-30.7857
-38.0041
-43.5081
-46.9545
-48.3349
-47.7046
-44.755
-39.2706
-31.9098
-24.4505
-18.4188
-14.0714
-10.9679
-8.6745
-6.92651
-5.57253
-4.51635
-3.68899
-3.03816
-2.52363
-2.11426
-1.78581
-1.51938
-1.30031
-1.11744
-0.962456
-0.829365
-0.714038
-0.613799
-0.527039
-0.452961
-0.391357
-0.342383
-0.306847
-0.28604
-0.282012
-0.297882
-0.338314
-0.410255
-0.523863
-0.693021
-0.936492
-1.28495
-1.79782
-2.59741
-3.89207
-5.8854
-8.5387
-11.3903
-13.5913
-14.391
-13.4551
-11.0938
-8.13784
-5.40346
-3.33163
-1.94865
-1.11316
-0.604135
-0.334177
-0.104396
-0.0326225
-10.9655
-11.028
-11.0878
-11.1613
-11.2696
-11.4314
-11.6567
-11.9397
-12.2543
-12.5547
-12.7809
-12.8691
-12.7642
-12.431
-11.8614
-11.0754
-10.1173
-9.0462
-7.92507
-6.81189
-5.75359
-4.78404
-3.92515
-3.18956
-2.5836
-2.10993
-1.7707
-1.56871
-1.50852
-1.61977
-1.96179
-2.59644
-3.53244
-4.80335
-6.59597
-9.37941
-13.9136
-20.3894
-27.8045
-34.7162
-40.1021
-43.5428
-44.9872
-44.483
-41.7664
-36.6883
-29.9373
-23.1654
-17.6904
-13.694
-10.7891
-8.60954
-6.93129
-5.62185
-4.59399
-3.78388
-3.14258
-2.63212
-2.22281
-1.89136
-1.61957
-1.39331
-1.20189
-1.03741
-0.894322
-0.768905
-0.658877
-0.562984
-0.480733
-0.412145
-0.357554
-0.317851
-0.294341
-0.289015
-0.304859
-0.346311
-0.419951
-0.535432
-0.706111
-0.949845
-1.29417
-1.78941
-2.53541
-3.70206
-5.4608
-7.79019
-10.3174
-12.3232
-13.1453
-12.4519
-10.465
-7.87334
-5.38911
-3.43282
-2.07468
-1.22066
-0.681858
-0.383511
-0.123368
-0.0518772
-10.8125
-10.8764
-10.9396
-11.0139
-11.1135
-11.2501
-11.4288
-11.6423
-11.8687
-12.0712
-12.203
-12.2146
-12.0632
-11.721
-11.1814
-10.4596
-9.59024
-8.6202
-7.60088
-6.58082
-5.60078
-4.69155
-3.87423
-3.16188
-2.56172
-2.07706
-1.70975
-1.4616
-1.33553
-1.35039
-1.55184
-2.00542
-2.74295
-3.81335
-5.40858
-7.94987
-12.0889
-18.0059
-24.8718
-31.4053
-36.6115
-40.0182
-41.5258
-41.152
-38.6679
-34.0048
-27.8907
-21.8339
-16.9298
-13.292
-10.5925
-8.53362
-6.93066
-5.66984
-4.67321
-3.88237
-3.25198
-2.74643
-2.33758
-2.00319
-1.7258
-1.49187
-1.29122
-1.11648
-0.962568
-0.826245
-0.705664
-0.599954
-0.50895
-0.432894
-0.372298
-0.328119
-0.301651
-0.294797
-0.310378
-0.352578
-0.427574
-0.544448
-0.715918
-0.958964
-1.2985
-1.77729
-2.4764
-3.53257
-5.08775
-7.13315
-9.373
-11.2054
-12.0514
-11.5816
-9.93539
-7.67041
-5.40613
-3.54882
-2.20912
-1.33455
-0.764738
-0.436963
-0.144477
-0.0729888
-10.6595
-10.7217
-10.7835
-10.8533
-10.9401
-11.0511
-11.1876
-11.342
-11.4956
-11.619
-11.6755
-11.6267
-11.4394
-11.0921
-10.5794
-9.91285
-9.11958
-8.23694
-7.30676
-6.36957
-5.46056
-4.60734
-3.82976
-3.14082
-2.54817
-2.05563
-1.66478
-1.37659
-1.19418
-1.12698
-1.20926
-1.50301
-2.06016
-2.94616
-4.35468
-6.66592
-10.423
-15.7824
-22.0657
-28.1577
-33.1205
-36.4538
-38.0078
-37.7552
-35.4997
-31.2645
-25.8138
-20.4865
-16.1527
-12.8722
-10.3815
-8.44851
-6.92577
-5.71742
-4.75482
-3.98527
-3.36719
-2.86742
-2.45945
-2.12214
-1.83882
-1.59663
-1.38598
-1.20007
-1.03438
-0.886199
-0.754181
-0.637873
-0.537458
-0.45339
-0.386366
-0.337377
-0.307684
-0.299071
-0.31416
-0.356843
-0.432865
-0.550678
-0.722249
-0.963656
-1.29763
-1.76084
-2.41909
-3.38144
-4.76379
-6.56603
-8.55743
-10.2402
-11.1126
-10.8461
-9.50435
-7.52662
-5.45276
-3.67927
-2.35218
-1.45477
-0.852485
-0.493981
-0.167638
-0.0950351
-10.5063
-10.5642
-10.6212
-10.6827
-10.7545
-10.8401
-10.9388
-11.0427
-11.1362
-11.1957
-11.1923
-11.0964
-10.8823
-10.5333
-10.0449
-9.42644
-8.69893
-7.89225
-7.04043
-6.17724
-5.33284
-4.53176
-3.79234
-3.12717
-2.54403
-2.04715
-1.63803
-1.31711
-1.08833
-0.955359
-0.943113
-1.10662
-1.51122
-2.23972
-3.47989
-5.57355
-8.96328
-13.7733
-19.4536
-25.0524
-29.7111
-32.9241
-34.4923
-34.3392
-32.3075
-28.5187
-23.754
-19.1537
-15.3739
-12.4415
-10.1594
-8.35628
-6.91803
-5.76565
-4.83978
-4.09355
-3.48921
-2.99612
-2.58944
-2.24918
-1.95954
-1.70838
-1.4868
-1.28865
-1.11005
-0.948916
-0.804441
-0.676641
-0.566068
-0.473382
-0.399463
-0.34531
-0.312119
-0.301519
-0.315896
-0.358813
-0.435546
-0.553876
-0.724916
-0.963766
-1.2913
-1.73939
-2.36183
-3.24541
-4.48387
-6.08295
-7.86533
-9.42394
-10.3251
-10.2408
-9.16618
-7.43738
-5.52735
-3.8246
-2.50452
-1.58141
-0.944784
-0.553962
-0.192699
-0.117091
-10.3524
-10.4041
-10.4537
-10.5046
-10.5602
-10.6216
-10.6865
-10.7477
-10.7917
-10.7997
-10.7492
-10.6169
-10.3832
-10.0351
-9.56934
-8.99298
-8.32274
-7.58246
-6.79981
-6.00289
-5.21742
-4.46501
-3.76238
-3.12148
-2.55003
-2.05255
-1.63075
-1.28506
-1.01968
-0.837193
-0.755638
-0.821506
-1.10651
-1.7084
-2.80484
-4.69562
-7.73556
-12.0132
-17.0846
-22.1532
-26.4545
-29.4964
-31.0336
-30.9514
-29.1426
-25.8252
-21.7599
-17.8632
-14.6063
-12.0063
-9.93009
-8.25927
-6.909
-5.81574
-4.92919
-4.20832
-3.6192
-3.13373
-2.72875
-2.38547
-2.08901
-1.82804
-1.59441
-1.38275
-1.18993
-1.01455
-0.856432
-0.71611
-0.594525
-0.492555
-0.411233
-0.351544
-0.31458
-0.301779
-0.315246
-0.358171
-0.435331
-0.553795
-0.723743
-0.959191
-1.27935
-1.71234
-2.30283
-3.12035
-4.24078
-5.67393
-7.28554
-8.74586
-9.67734
-9.75394
-8.91125
-7.39766
-5.6295
-3.98633
-2.66731
-1.71467
-1.04119
-0.616251
-0.21945
-0.138281
-10.1981
-10.2423
-10.2828
-10.3218
-10.3608
-10.3994
-10.4346
-10.4596
-10.463
-10.4297
-10.3421
-10.1822
-9.93471
-9.58989
-9.14517
-8.60618
-7.98617
-7.30425
-6.58294
-5.84557
-5.11402
-4.40716
-3.7401
-3.12403
-2.56653
-2.07232
-1.64351
-1.2812
-0.98907
-0.771382
-0.643216
-0.642567
-0.840771
-1.34431
-2.32098
-4.02545
-6.73645
-10.5085
-14.9815
-19.5002
-23.4026
-26.222
-27.6768
-27.6386
-26.0626
-23.2473
-19.8764
-16.6372
-13.8607
-11.5726
-9.69728
-8.15996
-6.9004
-5.86905
-5.02433
-4.33088
-3.75853
-3.28167
-2.87881
-2.53238
-2.22848
-1.95667
-1.70968
-1.48301
-1.27439
-1.08326
-0.910129
-0.756108
-0.622534
-0.510542
-0.421267
-0.355652
-0.314645
-0.299445
-0.311832
-0.354576
-0.431912
-0.55017
-0.718539
-0.949843
-1.2617
-1.67921
-2.24031
-3.00174
-4.02578
-5.3256
-6.80137
-8.187
-9.15013
-9.36884
-8.7287
-7.40411
-5.76093
-4.16716
-2.84216
-1.85497
-1.1413
-0.680188
-0.247675
-0.157807
-10.0436
-10.0793
-10.1099
-10.1363
-10.159
-10.1767
-10.1858
-10.1802
-10.1504
-10.0843
-9.96785
-9.78728
-9.53086
-9.1911
-8.76617
-8.26061
-7.68498
-7.05465
-6.38798
-5.70433
-5.02223
-4.35811
-3.72552
-3.13482
-2.59341
-2.10617
-1.67573
-1.30429
-0.995158
-0.754492
-0.597675
-0.556791
-0.697062
-1.1248
-1.99736
-3.5281
-5.93075
-9.23153
-13.1341
-17.1043
-20.5807
-23.1271
-24.4541
-24.447
-23.1346
-20.8485
-18.1386
-15.4907
-13.1447
-11.1458
-9.46487
-8.06095
-6.89404
-5.9271
-5.12666
-4.46276
-3.90884
-3.44165
-3.04135
-2.69158
-2.37947
-2.09558
-1.83362
-1.59014
-1.36388
-1.15521
-0.96546
-0.796386
-0.649718
-0.526884
-0.429067
-0.357129
-0.311825
-0.294062
-0.305243
-0.347667
-0.424984
-0.542753
-0.709139
-0.935683
-1.23838
-1.63981
-2.17291
-2.8853
-3.82964
-5.02258
-6.39153
-7.7224
-8.71977
-9.06759
-8.61015
-7.45698
-5.92571
-4.37087
-3.0311
-2.00284
-1.24499
-0.745132
-0.277164
-0.174925
-9.88977
-9.91652
-9.93661
-9.95044
-9.95758
-9.95615
-9.9426
-9.91136
-9.85455
-9.76233
-9.62377
-9.42817
-9.16656
-8.83328
-8.42707
-7.95165
-7.4155
-6.83103
-6.21324
-5.57818
-4.94157
-4.31764
-3.71847
-3.15364
-2.63032
-2.15357
-1.72658
-1.35264
-1.03533
-0.782192
-0.609661
-0.547412
-0.652299
-1.02145
-1.79692
-3.15698
-5.26395
-8.12517
-11.4947
-14.9353
-17.9734
-20.2088
-21.3897
-21.4383
-20.4384
-18.6822
-16.5667
-14.4306
-12.4637
-10.7308
-9.23658
-7.96482
-6.89184
-5.99152
-5.23781
-4.60574
-4.07205
-3.61572
-3.21845
-2.86507
-2.54381
-2.24631
-1.96747
-1.70501
-1.4589
-1.2306
-1.02236
-0.836659
-0.675651
-0.541057
-0.434064
-0.355402
-0.305569
-0.28512
-0.295019
-0.337043
-0.414205
-0.531262
-0.695331
-0.916619
-1.20945
-1.59411
-2.0997
-2.76753
-3.64387
-4.74971
-6.03404
-7.32634
-8.36397
-8.8369
-8.5529
-7.56053
-6.12985
-4.60214
-3.23685
-2.15902
-1.35228
-0.810482
-0.307719
-0.188905
-9.73681
-9.75439
-9.76396
-9.76549
-9.7581
-9.73956
-9.70646
-9.65385
-9.57517
-9.4625
-9.30727
-9.10117
-8.8374
-8.51169
-8.12327
-7.67521
-7.17441
-6.63093
-6.05706
-5.46613
-4.87145
-4.28534
-3.71854
-3.17988
-2.67627
-2.21295
-1.79376
-1.42309