/*--------------------------------*- C++ -*----------------------------------*\
  =========                 |
  \\      /  F ield         | OpenFOAM: The Open Source CFD Toolbox
   \\    /   O peration     | Website:  https://openfoam.org
    \\  /    A nd           | Version:  10
     \\/     M anipulation  |
\*---------------------------------------------------------------------------*/
FoamFile
{
    format      ascii;
    class       surfaceScalarField;
    location    "0.195";
    object      phi;
}
// * * * * * * * * * * * * * * * * * * * * * * * * * * * * * * * * * * * * * //

dimensions      [0 3 -1 0 0 0 0];

internalField   nonuniform List<scalar> 
13452
(
4.01989e-05
2.00695e-05
2.59548e-05
1.42442e-05
1.85697e-05
7.38511e-06
1.52194e-05
3.35026e-06
1.38308e-05
1.38859e-06
1.31525e-05
6.78331e-07
1.27317e-05
4.20799e-07
1.24165e-05
3.1515e-07
1.21575e-05
2.58984e-07
1.1943e-05
2.14503e-07
1.17692e-05
1.73815e-07
1.16327e-05
1.3653e-07
1.15298e-05
1.02853e-07
1.14572e-05
7.26552e-08
1.14117e-05
4.55011e-08
1.13913e-05
2.03911e-08
1.13945e-05
-3.22134e-09
1.14195e-05
-2.49731e-08
1.14662e-05
-4.6727e-08
1.15345e-05
-6.83046e-08
1.16249e-05
-9.03676e-08
1.17383e-05
-1.13413e-07
1.18765e-05
-1.38241e-07
1.20416e-05
-1.65047e-07
1.22362e-05
-1.94606e-07
1.2464e-05
-2.27828e-07
1.27304e-05
-2.66415e-07
1.30418e-05
-3.11375e-07
1.34112e-05
-3.69355e-07
1.38477e-05
-4.3651e-07
1.44031e-05
-5.55387e-07
1.50621e-05
-6.59045e-07
-1.18386e-06
1.6246e-05
6.59082e-05
1.61517e-05
6.19209e-05
1.82315e-05
5.56918e-05
1.36142e-05
4.9865e-05
9.1771e-06
4.54179e-05
5.83569e-06
4.22601e-05
3.83611e-06
4.00147e-05
2.66617e-06
3.8383e-05
1.94693e-06
3.71597e-05
1.48222e-06
3.62144e-05
1.15982e-06
3.54671e-05
9.2112e-07
3.48678e-05
7.3579e-07
3.43843e-05
5.86434e-07
3.39946e-05
4.62288e-07
3.36839e-05
3.5624e-07
3.34412e-05
2.6311e-07
3.32585e-05
1.79479e-07
3.31308e-05
1.02678e-07
3.30544e-05
2.96642e-08
3.30267e-05
-4.05923e-08
3.3046e-05
-1.09668e-07
3.31116e-05
-1.78999e-07
3.32241e-05
-2.50688e-07
3.33845e-05
-3.25487e-07
3.35951e-05
-4.05237e-07
3.38594e-05
-4.92114e-07
3.41823e-05
-5.89318e-07
3.45712e-05
-7.0027e-07
3.5036e-05
-8.34115e-07
3.55941e-05
-9.94638e-07
3.62624e-05
-1.22368e-06
3.71192e-05
-1.51585e-06
-2.05669e-06
3.7992e-05
6.91825e-05
1.07306e-05
7.25172e-05
1.48968e-05
7.30906e-05
1.30408e-05
7.17502e-05
1.05174e-05
6.95521e-05
8.0338e-06
6.72311e-05
6.15719e-06
6.50688e-05
4.82843e-06
6.3155e-05
3.86068e-06
6.14998e-05
3.13745e-06
6.0081e-05
2.57866e-06
5.88696e-05
2.13251e-06
5.7838e-05
1.76738e-06
5.69619e-05
1.46255e-06
5.62206e-05
1.20353e-06
5.55972e-05
9.79687e-07
5.50774e-05
7.82861e-07
5.46501e-05
6.06835e-07
5.4306e-05
4.46767e-07
5.40374e-05
2.9823e-07
5.38387e-05
1.58177e-07
5.3706e-05
2.30116e-08
5.36377e-05
-1.10725e-07
5.36326e-05
-2.45553e-07
5.36892e-05
-3.82116e-07
5.38077e-05
-5.23767e-07
5.39895e-05
-6.73859e-07
5.4237e-05
-8.36826e-07
5.45547e-05
-1.01795e-06
5.49472e-05
-1.22671e-06
5.54243e-05
-1.47167e-06
5.59815e-05
-1.78087e-06
5.6629e-05
-2.16337e-06
-2.68175e-06
5.7254e-05
6.88469e-05
7.46673e-06
7.21648e-05
1.15789e-05
7.45447e-05
1.06609e-05
7.59649e-05
9.09724e-06
7.6561e-05
7.43771e-06
7.66517e-05
6.06645e-06
7.64458e-05
5.03437e-06
7.60688e-05
4.23761e-06
7.56014e-05
3.60487e-06
7.50921e-05
3.08797e-06
7.45714e-05
2.6532e-06
7.40594e-05
2.27936e-06
7.35698e-05
1.95218e-06
7.3112e-05
1.66129e-06
7.26924e-05
1.39934e-06
7.23146e-05
1.16065e-06
7.19809e-05
9.4054e-07
7.16926e-05
7.3508e-07
7.14502e-05
5.40591e-07
7.12543e-05
3.54085e-07
7.11046e-05
1.7275e-07
7.0999e-05
-5.11227e-09
7.09386e-05
-1.85198e-07
7.09235e-05
-3.67068e-07
7.09552e-05
-5.55383e-07
7.10348e-05
-7.53503e-07
7.1164e-05
-9.6603e-07
7.13445e-05
-1.1984e-06
7.15765e-05
-1.45873e-06
7.18601e-05
-1.75524e-06
7.21829e-05
-2.10373e-06
7.25313e-05
-2.51179e-06
-2.98628e-06
7.28359e-05
6.95605e-05
5.36298e-06
7.18416e-05
9.29786e-06
7.35486e-05
8.9539e-06
7.48249e-05
7.82094e-06
7.5724e-05
6.53859e-06
7.63841e-05
5.4063e-06
7.68926e-05
4.52591e-06
7.72921e-05
3.83812e-06
7.76114e-05
3.28558e-06
7.78695e-05
2.82982e-06
7.80798e-05
2.44293e-06
7.82528e-05
2.10638e-06
7.83967e-05
1.80828e-06
7.85177e-05
1.54028e-06
7.86214e-05
1.29563e-06
7.87131e-05
1.06896e-06
7.87975e-05
8.56137e-07
7.88788e-05
6.538e-07
7.89604e-05
4.58955e-07
7.90455e-05
2.69042e-07
7.91359e-05
8.23424e-08
7.92335e-05
-1.027e-07
7.93381e-05
-2.89807e-07
7.94518e-05
-4.80813e-07
7.95757e-05
-6.79316e-07
7.97108e-05
-8.88577e-07
7.98573e-05
-1.11252e-06
8.00146e-05
-1.35567e-06
8.01797e-05
-1.6239e-06
8.03474e-05
-1.92289e-06
8.05034e-05
-2.25972e-06
8.06278e-05
-2.63617e-06
-3.04159e-06
8.06831e-05
7.0842e-05
3.90503e-06
7.26347e-05
7.50518e-06
7.39501e-05
7.63845e-06
7.48917e-05
6.87934e-06
7.55355e-05
5.89485e-06
7.60003e-05
4.94147e-06
7.63732e-05
4.15299e-06
7.66946e-05
3.5167e-06
7.6985e-05
2.99519e-06
7.72544e-05
2.56046e-06
7.75071e-05
2.19018e-06
7.77456e-05
1.86787e-06
7.79719e-05
1.58203e-06
7.81878e-05
1.32438e-06
7.83947e-05
1.08869e-06
7.85937e-05
8.69989e-07
7.87856e-05
6.64243e-07
7.89713e-05
4.6812e-07
7.91515e-05
2.78694e-07
7.93271e-05
9.3493e-08
7.94993e-05
-8.98455e-08
7.96702e-05
-2.73641e-07
7.98411e-05
-4.60695e-07
8.00129e-05
-6.52611e-07
8.01856e-05
-8.51993e-07
8.03587e-05
-1.06172e-06
8.05311e-05
-1.28496e-06
8.07006e-05
-1.52512e-06
8.08626e-05
-1.78595e-06
8.10103e-05
-2.07054e-06
8.11312e-05
-2.38066e-06
8.12093e-05
-2.7142e-06
-3.05673e-06
8.12244e-05
7.23906e-05
2.88072e-06
7.38485e-05
6.04727e-06
7.49858e-05
6.50124e-06
7.58172e-05
6.04792e-06
7.63922e-05
5.31981e-06
7.67945e-05
4.53918e-06
7.71003e-05
3.84718e-06
7.73517e-05
3.26533e-06
7.7572e-05
2.77491e-06
7.77745e-05
2.35793e-06
7.79664e-05
1.99834e-06
7.81513e-05
1.68288e-06
7.83317e-05
1.40166e-06
7.85089e-05
1.14724e-06
7.86837e-05
9.13822e-07
7.8857e-05
6.96716e-07
7.90292e-05
4.92062e-07
7.92007e-05
2.96609e-07
7.93719e-05
1.07472e-07
7.95434e-05
-7.79504e-08
7.97155e-05
-2.6203e-07
7.98888e-05
-4.46928e-07
8.00631e-05
-6.35011e-07
8.02386e-05
-8.28051e-07
8.04148e-05
-1.02821e-06
8.05909e-05
-1.23787e-06
8.07654e-05
-1.45945e-06
8.09356e-05
-1.69529e-06
8.10971e-05
-1.94742e-06
8.12434e-05
-2.21688e-06
8.13652e-05
-2.50246e-06
8.14508e-05
-2.7998e-06
-3.09517e-06
8.14893e-05
7.41271e-05
2.15891e-06
7.53001e-05
4.8743e-06
7.62909e-05
5.51038e-06
7.70559e-05
5.28295e-06
7.7618e-05
4.75774e-06
7.80265e-05
4.13058e-06
7.83394e-05
3.53436e-06
7.85939e-05
3.01079e-06
7.88127e-05
2.55615e-06
7.90097e-05
2.16087e-06
7.91934e-05
1.81464e-06
7.93687e-05
1.50759e-06
7.95387e-05
1.23166e-06
7.97055e-05
9.80464e-07
7.98705e-05
7.48838e-07
8.00347e-05
5.325e-07
8.01989e-05
3.27851e-07
8.03637e-05
1.31799e-07
8.05296e-05
-5.83836e-08
8.06967e-05
-2.4511e-07
8.08653e-05
-4.30631e-07
8.10355e-05
-6.1706e-07
8.12069e-05
-8.06471e-07
8.13795e-05
-1.00059e-06
8.15525e-05
-1.20124e-06
8.17249e-05
-1.41029e-06
8.18949e-05
-1.62947e-06
8.20598e-05
-1.86017e-06
8.22156e-05
-2.10316e-06
8.23567e-05
-2.35804e-06
8.24764e-05
-2.62212e-06
8.25668e-05
-2.89024e-06
-3.15085e-06
8.26225e-05
7.60185e-05
1.64284e-06
7.69605e-05
3.9323e-06
7.78184e-05
4.65252e-06
7.85123e-05
4.58902e-06
7.90488e-05
4.22124e-06
7.94564e-05
3.723e-06
7.97772e-05
3.21353e-06
8.00426e-05
2.74541e-06
8.02722e-05
2.32659e-06
8.04788e-05
1.95432e-06
8.06704e-05
1.62301e-06
8.08521e-05
1.32583e-06
8.10274e-05
1.05645e-06
8.11983e-05
8.09549e-07
8.13665e-05
5.80627e-07
8.15331e-05
3.65839e-07
8.16991e-05
1.61881e-07
8.1865e-05
-3.41244e-08
8.20314e-05
-2.24705e-07
8.21984e-05
-4.12137e-07
8.23663e-05
-5.98523e-07
8.2535e-05
-7.85796e-07
8.27043e-05
-9.75781e-07
8.28738e-05
-1.17006e-06
8.30427e-05
-1.37013e-06
8.32098e-05
-1.5774e-06
8.33733e-05
-1.79299e-06
8.35307e-05
-2.01755e-06
8.36785e-05
-2.25097e-06
8.38124e-05
-2.49198e-06
8.39277e-05
-2.73736e-06
8.40195e-05
-2.98207e-06
-3.21691e-06
8.40856e-05
7.80348e-05
1.26764e-06
7.87913e-05
3.17573e-06
7.95319e-05
3.91198e-06
8.01591e-05
3.96178e-06
8.06667e-05
3.7137e-06
8.10682e-05
3.32145e-06
8.13926e-05
2.88916e-06
8.16648e-05
2.47315e-06
8.19019e-05
2.08948e-06
8.21155e-05
1.74073e-06
8.23134e-05
1.42515e-06
8.25006e-05
1.13862e-06
8.26806e-05
8.76507e-07
8.28555e-05
6.34559e-07
8.30272e-05
4.08959e-07
8.31967e-05
1.96327e-07
8.33649e-05
-6.31989e-09
8.35324e-05
-2.01642e-07
8.36997e-05
-3.91963e-07
8.3867e-05
-5.79406e-07
8.40343e-05
-7.65899e-07
8.42017e-05
-9.53199e-07
8.43689e-05
-1.14291e-06
8.45352e-05
-1.3364e-06
8.46999e-05
-1.53486e-06
8.48618e-05
-1.7393e-06
8.50192e-05
-1.95033e-06
8.51697e-05
-2.16808e-06
8.53106e-05
-2.3919e-06
8.54388e-05
-2.6201e-06
8.55509e-05
-2.84952e-06
8.56446e-05
-3.07572e-06
-3.2917e-06
8.57194e-05
8.01564e-05
9.89576e-07
8.0766e-05
2.56613e-06
8.14048e-05
3.27316e-06
8.1971e-05
3.39557e-06
8.24481e-05
3.23658e-06
8.28397e-05
2.92987e-06
8.31641e-05
2.56476e-06
8.34408e-05
2.19649e-06
8.3684e-05
1.84627e-06
8.3904e-05
1.52075e-06
8.41079e-05
1.22122e-06
8.43006e-05
9.45886e-07
8.44855e-05
6.91677e-07
8.46647e-05
4.55327e-07
8.48399e-05
2.337e-07
8.50124e-05
2.38669e-08
8.51829e-05
-1.76826e-07
8.5352e-05
-3.70776e-07
8.55202e-05
-5.60126e-07
8.56876e-05
-7.46824e-07
8.58544e-05
-9.32622e-07
8.60202e-05
-1.11909e-06
8.61849e-05
-1.3076e-06
8.63479e-05
-1.49933e-06
8.65082e-05
-1.69518e-06
8.66647e-05
-1.89583e-06
8.68159e-05
-2.10155e-06
8.69599e-05
-2.3121e-06
8.70946e-05
-2.52657e-06
8.72177e-05
-2.74319e-06
8.73273e-05
-2.95912e-06
8.74223e-05
-3.17076e-06
-3.37291e-06
8.75036e-05
8.23709e-05
7.7913e-07
8.28646e-05
2.07246e-06
8.34152e-05
2.7225e-06
8.39253e-05
2.88547e-06
8.43717e-05
2.79016e-06
8.47511e-05
2.55047e-06
8.50738e-05
2.24213e-06
8.53537e-05
1.91656e-06
8.56024e-05
1.59758e-06
8.58285e-05
1.29466e-06
8.60384e-05
1.01135e-06
8.62365e-05
7.47711e-07
8.64262e-05
5.02026e-07
8.66096e-05
2.71947e-07
8.67883e-05
5.49748e-08
8.69635e-05
-1.51359e-07
8.71361e-05
-3.4937e-07
8.73065e-05
-5.41206e-07
8.74752e-05
-7.28812e-07
8.76423e-05
-9.13947e-07
8.78079e-05
-1.09818e-06
8.79717e-05
-1.28291e-06
8.81334e-05
-1.46931e-06
8.82924e-05
-1.65833e-06
8.84479e-05
-1.85068e-06
8.85988e-05
-2.04676e-06
8.87439e-05
-2.24662e-06
8.88816e-05
-2.4498e-06
8.90103e-05
-2.65531e-06
8.91286e-05
-2.86151e-06
8.92355e-05
-3.06601e-06
8.93308e-05
-3.26606e-06
-3.45791e-06
8.94158e-05
8.46705e-05
6.16384e-07
8.50732e-05
1.6698e-06
8.55483e-05
2.24742e-06
8.60075e-05
2.42619e-06
8.64239e-05
2.37378e-06
8.67894e-05
2.18502e-06
8.7108e-05
1.92352e-06
8.73892e-05
1.63533e-06
8.76419e-05
1.34491e-06
8.78731e-05
1.06347e-06
8.80883e-05
7.96126e-07
8.82916e-05
5.44397e-07
8.84859e-05
3.07687e-07
8.86734e-05
8.44631e-08
8.88556e-05
-1.27189e-07
8.90335e-05
-3.29302e-07
8.9208e-05
-5.23875e-07
8.93796e-05
-7.12805e-07
8.95486e-05
-8.97833e-07
8.97152e-05
-1.08054e-06
8.98794e-05
-1.26231e-06
9.00408e-05
-1.44438e-06
9.01993e-05
-1.62774e-06
9.03541e-05
-1.81316e-06
9.05046e-05
-2.00117e-06
9.06498e-05
-2.192e-06
9.07887e-05
-2.38552e-06
9.09201e-05
-2.58122e-06
9.1043e-05
-2.77813e-06
9.11563e-05
-2.97484e-06
9.12598e-05
-3.16947e-06
9.13537e-05
-3.36001e-06
-3.54377e-06
9.14396e-05
8.70508e-05
4.87786e-07
8.73821e-05
1.33844e-06
8.7793e-05
1.83658e-06
8.82065e-05
2.01267e-06
8.85939e-05
1.98633e-06
8.89443e-05
1.83467e-06
8.92572e-05
1.61058e-06
8.95383e-05
1.35426e-06
8.97939e-05
1.08934e-06
9.00295e-05
8.27888e-07
9.02496e-05
5.76017e-07
9.04577e-05
3.36256e-07
9.06565e-05
1.08903e-07
9.08478e-05
-1.06897e-07
9.10332e-05
-3.12543e-07
9.12136e-05
-5.09681e-07
9.13897e-05
-7.00013e-07
9.15621e-05
-8.85194e-07
9.1731e-05
-1.06677e-06
9.18966e-05
-1.24614e-06
9.20589e-05
-1.42454e-06
9.22175e-05
-1.60302e-06
9.23722e-05
-1.78243e-06
9.25224e-05
-1.9634e-06
9.26676e-05
-2.1463e-06
9.28068e-05
-2.33124e-06
9.29393e-05
-2.51803e-06
9.30643e-05
-2.70616e-06
9.31809e-05
-2.89476e-06
9.32887e-05
-3.08268e-06
9.33877e-05
-3.26849e-06
9.34786e-05
-3.45082e-06
-3.62776e-06
9.35625e-05
8.95093e-05
3.84028e-07
8.97849e-05
1.06287e-06
9.01416e-05
1.47989e-06
9.05144e-05
1.63985e-06
9.08746e-05
1.62606e-06
9.12096e-05
1.49976e-06
9.15156e-05
1.30452e-06
9.17952e-05
1.07465e-06
9.20525e-05
8.32081e-07
9.22914e-05
5.88928e-07
9.25156e-05
3.51806e-07
9.2728e-05
1.23896e-07
9.29308e-05
-9.3851e-08
9.31256e-05
-3.01745e-07
9.33138e-05
-5.00759e-07
9.34963e-05
-6.92197e-07
9.36738e-05
-8.77492e-07
9.38467e-05
-1.05808e-06
9.40153e-05
-1.23532e-06
9.41796e-05
-1.41044e-06
9.43396e-05
-1.58454e-06
9.44951e-05
-1.75852e-06
9.46457e-05
-1.9331e-06
9.47911e-05
-2.10878e-06
9.49306e-05
-2.28583e-06
9.50637e-05
-2.46431e-06
9.51897e-05
-2.64398e-06
9.53079e-05
-2.82438e-06
9.54179e-05
-3.0048e-06
9.55196e-05
-3.18433e-06
9.5613e-05
-3.36191e-06
9.56989e-05
-3.53667e-06
-3.70724e-06
9.57783e-05
9.20453e-05
2.98622e-07
9.22772e-05
8.3097e-07
9.25886e-05
1.16844e-06
9.29256e-05
1.30286e-06
9.32608e-05
1.2909e-06
9.35803e-05
1.18017e-06
9.38788e-05
1.00612e-06
9.41559e-05
7.97536e-07
9.44139e-05
5.74071e-07
9.46555e-05
3.47355e-07
9.48832e-05
1.24078e-07
9.50993e-05
-9.22444e-08
9.53057e-05
-3.00228e-07
9.55037e-05
-4.99785e-07
9.56945e-05
-6.91551e-07
9.58789e-05
-8.76552e-07
9.60574e-05
-1.05599e-06
9.62304e-05
-1.23111e-06
9.63982e-05
-1.4031e-06
9.65608e-05
-1.57305e-06
9.67182e-05
-1.74192e-06
9.68701e-05
-1.91048e-06
9.70164e-05
-2.07934e-06
9.71565e-05
-2.24893e-06
9.72901e-05
-2.41943e-06
9.74167e-05
-2.59086e-06
9.75357e-05
-2.763e-06
9.76468e-05
-2.93545e-06
9.77496e-05
-3.10764e-06
9.78442e-05
-3.27889e-06
9.79307e-05
-3.44846e-06
9.80099e-05
-3.6158e-06
-3.77992e-06
9.80825e-05
9.46588e-05
2.26965e-07
9.48565e-05
6.33258e-07
9.51305e-05
8.94497e-07
9.54363e-05
9.97014e-07
9.57487e-05
9.78503e-07
9.60537e-05
8.75228e-07
9.63441e-05
7.1565e-07
9.66181e-05
5.23548e-07
9.68761e-05
3.16044e-07
9.71196e-05
1.03864e-07
9.73503e-05
-1.06558e-07
9.75697e-05
-3.11639e-07
9.77792e-05
-5.09771e-07
9.798e-05
-7.00608e-07
9.8173e-05
-8.84546e-07
9.83589e-05
-1.0624e-06
9.85381e-05
-1.23517e-06
9.87109e-05
-1.40395e-06
9.88776e-05
-1.56979e-06
9.90382e-05
-1.73364e-06
9.91926e-05
-1.89634e-06
9.93407e-05
-2.05858e-06
9.94822e-05
-2.22087e-06
9.96169e-05
-2.38356e-06
9.97442e-05
-2.5468e-06
9.9864e-05
-2.71059e-06
9.99757e-05
-2.87473e-06
0.000100079
-3.0389e-06
0.000100174
-3.20266e-06
0.000100261
-3.36551e-06
0.000100339
-3.52693e-06
0.00010041
-3.68661e-06
-3.84378e-06
0.000100474
9.73508e-05
1.65723e-07
9.75217e-05
4.623e-07
9.77649e-05
6.51353e-07
9.8044e-05
7.17861e-07
9.83362e-05
6.86341e-07
9.86275e-05
5.83876e-07
9.89102e-05
4.32988e-07
9.91807e-05
2.5301e-07
9.94383e-05
5.8483e-08
9.96832e-05
-1.41046e-07
9.99163e-05
-3.39648e-07
0.000100139
-5.33898e-07
0.000100351
-7.22145e-07
0.000100554
-9.03919e-07
0.000100749
-1.07946e-06
0.000100936
-1.24945e-06
0.000101116
-1.41474e-06
0.000101288
-1.5763e-06
0.000101453
-1.73506e-06
0.000101612
-1.89187e-06
0.000101763
-2.04748e-06
0.000101907
-2.20249e-06
0.000102043
-2.35734e-06
0.000102172
-2.51233e-06
0.000102293
-2.66759e-06
0.000102405
-2.82311e-06
0.000102509
-2.97873e-06
0.000102605
-3.13419e-06
0.000102691
-3.28916e-06
0.000102769
-3.44329e-06
0.000102838
-3.59618e-06
0.000102899
-3.7477e-06
-3.89718e-06
0.000102953
0.000100122
1.12418e-07
0.000100272
3.12221e-07
0.000100491
4.33225e-07
0.000100747
4.61212e-07
0.000101022
4.11755e-07
0.000101301
3.04702e-07
0.000101576
1.57584e-07
0.000101844
-1.41465e-08
0.0001021
-1.98448e-07
0.000102347
-3.87113e-07
0.000102582
-5.74908e-07
0.000102807
-7.58743e-07
0.000103022
-9.37084e-07
0.000103227
-1.10945e-06
0.000103424
-1.27605e-06
0.000103612
-1.43744e-06
0.000103791
-1.59443e-06
0.000103963
-1.74788e-06
0.000104127
-1.89863e-06
0.000104282
-2.04746e-06
0.00010443
-2.19503e-06
0.000104569
-2.3419e-06
0.0001047
-2.48845e-06
0.000104823
-2.63493e-06
0.000104937
-2.78147e-06
0.000105042
-2.92806e-06
0.000105137
-3.07457e-06
0.000105224
-3.22081e-06
0.000105301
-3.36651e-06
0.00010537
-3.51141e-06
0.000105429
-3.65523e-06
0.000105479
-3.7979e-06
-3.93882e-06
0.00010552
0.000102975
6.51651e-08
0.000103109
1.78321e-07
0.000103307
2.35108e-07
0.000103545
2.23121e-07
0.000103805
1.51995e-07
0.000104074
3.60018e-08
0.000104343
-1.11468e-07
0.000104607
-2.78319e-07
0.000104864
-4.54858e-07
0.000105111
-6.3429e-07
0.000105348
-8.12213e-07
0.000105575
-9.86017e-07
0.000105793
-1.15441e-06
0.000106
-1.31703e-06
0.000106198
-1.47409e-06
0.000106387
-1.62617e-06
0.000106567
-1.77401e-06
0.000106737
-1.91844e-06
0.000106899
-2.06024e-06
0.000107051
-2.20013e-06
0.000107195
-2.33873e-06
0.00010733
-2.47653e-06
0.000107455
-2.6139e-06
0.000107571
-2.75106e-06
0.000107678
-2.88813e-06
0.000107775
-3.02509e-06
0.000107862
-3.16185e-06
0.00010794
-3.29826e-06
0.000108007
-3.43411e-06
0.000108065
-3.56919e-06
0.000108113
-3.70328e-06
0.000108152
-3.83634e-06
-3.96781e-06
0.000108181
0.000105911
2.24789e-08
0.000106033
5.67659e-08
0.000106215
5.26258e-08
0.000106439
-1.55524e-10
0.000106687
-9.57861e-08
0.000106947
-2.24216e-07
0.000107211
-3.75465e-07
0.000107473
-5.40316e-07
0.000107729
-7.11243e-07
0.000107978
-8.82881e-07
0.000108217
-1.05175e-06
0.000108447
-1.21583e-06
0.000108667
-1.37418e-06
0.000108876
-1.52665e-06
0.000109076
-1.67357e-06
0.000109265
-1.81555e-06
0.000109445
-1.95338e-06
0.000109614
-2.08784e-06
0.000109774
-2.21971e-06
0.000109923
-2.34969e-06
0.000110063
-2.47835e-06
0.000110192
-2.60615e-06
0.000110312
-2.73345e-06
0.000110421
-2.86044e-06
0.00011052
-2.98724e-06
0.000110609
-3.11384e-06
0.000110687
-3.24017e-06
0.000110755
-3.3661e-06
0.000110813
-3.49146e-06
0.000110859
-3.61606e-06
0.000110896
-3.7397e-06
0.000110922
-3.86235e-06
-3.98343e-06
0.000110938
0.000108933
-1.68529e-08
0.000109045
-5.56529e-08
0.000109216
-1.18116e-07
0.000109428
-2.12194e-07
0.000109667
-3.34515e-07
0.000109921
-4.78184e-07
0.000110181
-6.3601e-07
0.000110442
-8.0125e-07
0.000110699
-9.68359e-07
0.00011095
-1.13339e-06
0.000111192
-1.29384e-06
0.000111424
-1.44837e-06
0.000111647
-1.59649e-06
0.000111858
-1.73835e-06
0.000112059
-1.87445e-06
0.000112249
-2.00553e-06
0.000112428
-2.13242e-06
0.000112596
-2.25595e-06
0.000112754
-2.3769e-06
0.0001129
-2.49597e-06
0.000113035
-2.61371e-06
0.00011316
-2.73057e-06
0.000113273
-2.84689e-06
0.000113375
-2.96286e-06
0.000113467
-3.07858e-06
0.000113547
-3.19407e-06
0.000113616
-3.30926e-06
0.000113674
-3.42402e-06
0.000113721
-3.5382e-06
0.000113756
-3.65163e-06
0.000113781
-3.76412e-06
0.000113794
-3.8756e-06
-3.98551e-06
0.000113796
0.000112041
-5.38561e-08
0.000112148
-1.61718e-07
0.00011231
-2.80686e-07
0.000112514
-4.16518e-07
0.000112747
-5.67303e-07
0.000112998
-7.28495e-07
0.000113257
-8.95186e-07
0.000113518
-1.06277e-06
0.000113777
-1.22752e-06
0.000114031
-1.38686e-06
0.000114276
-1.53932e-06
0.000114512
-1.68431e-06
0.000114738
-1.82188e-06
0.000114952
-1.95253e-06
0.000115154
-2.07703e-06
0.000115345
-2.19629e-06
0.000115524
-2.31125e-06
0.000115691
-2.42281e-06
0.000115846
-2.53179e-06
0.000115989
-2.63889e-06
0.00011612
-2.74469e-06
0.000116239
-2.84962e-06
0.000116346
-2.95402e-06
0.000116441
-3.05809e-06
0.000116524
-3.16191e-06
0.000116596
-3.2655e-06
0.000116655
-3.3688e-06
0.000116703
-3.47169e-06
0.000116739
-3.57402e-06
0.000116763
-3.6756e-06
0.000116775
-3.77624e-06
0.000116775
-3.87584e-06
-3.97381e-06
0.000116764
0.00011524
-8.94391e-08
0.000115342
-2.63943e-07
0.0001155
-4.38448e-07
0.0001157
-6.16613e-07
0.00011593
-7.9737e-07
0.00011618
-9.77931e-07
0.00011644
-1.15528e-06
0.000116704
-1.3267e-06
0.000116966
-1.49014e-06
0.000117224
-1.64439e-06
0.000117474
-1.78904e-06
0.000117714
-1.9243e-06
0.000117942
-2.05082e-06
0.000118159
-2.16955e-06
0.000118364
-2.28157e-06
0.000118556
-2.38802e-06
0.000118735
-2.49e-06
0.0001189
-2.5885e-06
0.000119053
-2.68441e-06
0.000119192
-2.77846e-06
0.000119319
-2.87127e-06
0.000119433
-2.96328e-06
0.000119533
-3.05482e-06
0.000119621
-3.14608e-06
0.000119697
-3.23716e-06
0.000119759
-3.32808e-06
0.000119809
-3.41876e-06
0.000119847
-3.50908e-06
0.000119871
-3.59888e-06
0.000119884
-3.68798e-06
0.000119884
-3.77615e-06
0.000119871
-3.86327e-06
-3.94875e-06
0.000119846
0.000118531
-1.24476e-07
0.000118632
-3.64763e-07
0.000118788
-5.94805e-07
0.000118988
-8.16243e-07
0.000119219
-1.02845e-06
0.000119471
-1.22999e-06
0.000119735
-1.41946e-06
0.000120004
-1.59584e-06
0.000120273
-1.75865e-06
0.000120536
-1.90806e-06
0.000120792
-2.04473e-06
0.000121037
-2.16976e-06
0.000121271
-2.28447e-06
0.000121492
-2.39032e-06
0.000121699
-2.48878e-06
0.000121892
-2.58124e-06
0.000122071
-2.66901e-06
0.000122236
-2.75323e-06
0.000122387
-2.83486e-06
0.000122523
-2.91471e-06
0.000122645
-2.99341e-06
0.000122753
-3.07144e-06
0.000122847
-3.14912e-06
0.000122928
-3.22666e-06
0.000122995
-3.30416e-06
0.000123048
-3.3816e-06
0.000123089
-3.45893e-06
0.000123116
-3.536e-06
0.000123129
-3.61265e-06
0.00012313
-3.68866e-06
0.000123118
-3.7638e-06
0.000123092
-3.83788e-06
-3.91032e-06
0.000123054
0.000121917
-1.59823e-07
0.000122018
-4.6658e-07
0.000122177
-7.53145e-07
0.00012238
-1.01917e-06
0.000122616
-1.26426e-06
0.000122874
-1.48808e-06
0.000123145
-1.6907e-06
0.000123422
-1.8727e-06
0.000123698
-2.03516e-06
0.00012397
-2.1796e-06
0.000124233
-2.30785e-06
0.000124485
-2.42191e-06
0.000124724
-2.52385e-06
0.00012495
-2.6157e-06
0.00012516
-2.69936e-06
0.000125356
-2.77655e-06
0.000125535
-2.84881e-06
0.0001257
-2.91743e-06
0.000125848
-2.98352e-06
0.000125982
-3.04794e-06
0.0001261
-3.11138e-06
0.000126202
-3.17434e-06
0.00012629
-3.23716e-06
0.000126364
-3.30004e-06
0.000126423
-3.36308e-06
0.000126467
-3.42627e-06
0.000126498
-3.48953e-06
0.000126515
-3.55271e-06
0.000126518
-3.61562e-06
0.000126507
-3.67803e-06
0.000126483
-3.73968e-06
0.000126445
-3.80038e-06
-3.85953e-06
0.000126395
0.0001254
-1.96472e-07
0.000125506
-5.72193e-07
0.00012567
-9.17606e-07
0.000125881
-1.23032e-06
0.000126127
-1.51005e-06
0.000126396
-1.75747e-06
0.00012668
-1.97401e-06
0.000126969
-2.16186e-06
0.000127257
-2.32369e-06
0.00012754
-2.46247e-06
0.000127814
-2.58125e-06
0.000128075
-2.68306e-06
0.000128322
-2.77078e-06
0.000128553
-2.84708e-06
0.000128768
-2.91435e-06
0.000128966
-2.97468e-06
0.000129147
-3.02986e-06
0.000129311
-3.08141e-06
0.000129458
-3.13052e-06
0.000129589
-3.17818e-06
0.000129702
-3.22512e-06
0.0001298
-3.27186e-06
0.000129881
-3.31876e-06
0.000129947
-3.36604e-06
0.000129998
-3.41377e-06
0.000130034
-3.46193e-06
0.000130055
-3.51044e-06
0.000130061
-3.55911e-06
0.000130053
-3.60774e-06
0.000130031
-3.65608e-06
0.000129995
-3.70383e-06
0.000129946
-3.75076e-06
-3.79628e-06
0.000129883
0.000128984
-2.35378e-07
0.000129096
-6.84342e-07
0.000129271
-1.09204e-06
0.000129494
-1.45396e-06
0.000129754
-1.77006e-06
0.000130039
-2.04211e-06
0.000130338
-2.27299e-06
0.000130643
-2.46658e-06
0.000130946
-2.62721e-06
0.000131243
-2.75937e-06
0.000131529
-2.86741e-06
0.000131802
-2.95546e-06
0.000132058
-3.0273e-06
0.000132297
-3.08629e-06
0.000132518
-3.13537e-06
0.000132721
-3.17705e-06
0.000132904
-3.21343e-06
0.000133069
-3.24623e-06
0.000133215
-3.27681e-06
0.000133343
-3.30625e-06
0.000133454
-3.33533e-06
0.000133546
-3.36463e-06
0.000133622
-3.39451e-06
0.000133681
-3.42518e-06
0.000133724
-3.45671e-06
0.000133751
-3.48907e-06
0.000133763
-3.52214e-06
0.00013376
-3.55574e-06
0.000133742
-3.58962e-06
0.000133709
-3.62353e-06
0.000133662
-3.65713e-06
0.000133602
-3.69021e-06
-3.72216e-06
0.000133528
0.000132672
-2.78212e-07
0.000132795
-8.07598e-07
0.000132986
-1.2833e-06
0.000133231
-1.69842e-06
0.000133514
-2.05327e-06
0.000133823
-2.35089e-06
0.000134146
-2.59587e-06
0.000134473
-2.79405e-06
0.000134798
-2.95174e-06
0.000135114
-3.07513e-06
0.000135416
-3.17008e-06
0.000135703
-3.24192e-06
0.000135971
-3.29542e-06
0.000136219
-3.33471e-06
0.000136447
-3.36332e-06
0.000136654
-3.3842e-06
0.000136841
-3.39976e-06
0.000137006
-3.41195e-06
0.000137152
-3.42229e-06
0.000137278
-3.43195e-06
0.000137384
-3.44178e-06
0.000137472
-3.45237e-06
0.000137541
-3.46411e-06
0.000137593
-3.47719e-06
0.000137628
-3.49166e-06
0.000137647
-3.50748e-06
0.000137649
-3.52448e-06
0.000137636
-3.54248e-06
0.000137607
-3.56118e-06
0.000137564
-3.58031e-06
0.000137506
-3.5995e-06
0.000137435
-3.61847e-06
-3.63661e-06
0.000137349
0.000136466
-3.25832e-07
0.000136603
-9.44885e-07
0.000136815
-1.49522e-06
0.000137084
-1.96772e-06
0.000137395
-2.36381e-06
0.000137732
-2.68817e-06
0.000138084
-2.94731e-06
0.000138439
-3.14925e-06
0.00013879
-3.30242e-06
0.000139129
-3.41492e-06
0.000139454
-3.49426e-06
0.000139759
-3.54716e-06
0.000140043
-3.57948e-06
0.000140304
-3.59623e-06
0.000140543
-3.60161e-06
0.000140757
-3.59905e-06
0.000140949
-3.59134e-06
0.000141118
-3.58067e-06
0.000141264
-3.56873e-06
0.000141389
-3.55678e-06
0.000141493
-3.54572e-06
0.000141577
-3.53618e-06
0.000141641
-3.52851e-06
0.000141687
-3.52291e-06
0.000141715
-3.51941e-06
0.000141725
-3.5179e-06
0.000141719
-3.51822e-06
0.000141696
-3.52013e-06
0.000141659
-3.52331e-06
0.000141606
-3.52746e-06
0.000141538
-3.53219e-06
0.000141457
-3.53724e-06
-3.54197e-06
0.000141363
0.000140373
-3.82821e-07
0.000140535
-1.10726e-06
0.000140783
-1.74343e-06
0.000141095
-2.27943e-06
0.00014145
-2.71883e-06
0.000141831
-3.06904e-06
0.000142223
-3.33952e-06
0.000142615
-3.5414e-06
0.000142999
-3.68583e-06
0.000143367
-3.78317e-06
0.000143715
-3.84275e-06
0.000144041
-3.87275e-06
0.000144342
-3.88022e-06
0.000144617
-3.87104e-06
0.000144865
-3.85008e-06
0.000145087
-3.82127e-06
0.000145284
-3.78774e-06
0.000145455
-3.75191e-06
0.000145602
-3.71563e-06
0.000145725
-3.68024e-06
0.000145826
-3.6467e-06
0.000145906
-3.61561e-06
0.000145965
-3.58733e-06
0.000146004
-3.56202e-06
0.000146024
-3.53966e-06
0.000146026
-3.52012e-06
0.000146011
-3.50317e-06
0.000145979
-3.48854e-06
0.000145932
-3.47586e-06
0.000145869
-3.46479e-06
0.000145792
-3.45491e-06
0.000145701
-3.44585e-06
-3.43699e-06
0.000145596
0.000144389
-4.47124e-07
0.000144575
-1.29385e-06
0.000144859
-2.02717e-06
0.000145214
-2.6343e-06
0.000145617
-3.12222e-06
0.000146049
-3.5009e-06
0.000146493
-3.78278e-06
0.000146934
-3.98258e-06
0.000147363
-4.11475e-06
0.000147772
-4.1924e-06
0.000148156
-4.22717e-06
0.000148513
-4.22911e-06
0.000148839
-4.20665e-06
0.000149135
-4.16676e-06
0.0001494
-4.11506e-06
0.000149635
-4.05603e-06
0.00014984
-3.99316e-06
0.000150017
-3.92908e-06
0.000150167
-3.86578e-06
0.000150292
-3.80465e-06
0.000150392
-3.74664e-06
0.000150468
-3.69233e-06
0.000150523
-3.64204e-06
0.000150557
-3.59584e-06
0.000150571
-3.55367e-06
0.000150566
-3.51531e-06
0.000150543
-3.4805e-06
0.000150504
-3.44889e-06
0.000150448
-3.42009e-06
0.000150377
-3.39372e-06
0.000150291
-3.36934e-06
0.000150192
-3.34658e-06
-3.32479e-06
0.00015008
0.000148539
-5.37892e-07
0.000148786
-1.54084e-06
0.000149147
-2.38842e-06
0.000149583
-3.0699e-06
0.000150063
-3.60225e-06
0.000150564
-4.00192e-06
0.000151068
-4.28692e-06
0.000151562
-4.47682e-06
0.000152037
-4.58964e-06
0.000152486
-4.64121e-06
0.000152904
-4.64541e-06
0.000153289
-4.61401e-06
0.000153639
-4.55681e-06
0.000153954
-4.48175e-06
0.000154234
-4.39521e-06
0.00015448
-4.30219e-06
0.000154694
-4.20654e-06
0.000154876
-4.11112e-06
0.000155028
-4.01802e-06
0.000155152
-3.92868e-06
0.000155249
-3.84404e-06
0.000155322
-3.76463e-06
0.00015537
-3.69069e-06
0.000155397
-3.62222e-06
0.000155402
-3.55905e-06
0.000155388
-3.5009e-06
0.000155355
-3.44741e-06
0.000155304
-3.39818e-06
0.000155237
-3.35275e-06
0.000155154
-3.31068e-06
0.000155056
-3.27147e-06
0.000154944
-3.23469e-06
-3.1996e-06
0.000154819
0.000152782
-6.3099e-07
0.000153065
-1.82334e-06
0.000153486
-2.80994e-06
0.000154003
-3.58691e-06
0.000154579
-4.17782e-06
0.00015518
-4.60306e-06
0.000155781
-4.88814e-06
0.000156365
-5.06034e-06
0.000156918
-5.14336e-06
0.000157435
-5.15733e-06
0.000157909
-5.11939e-06
0.000158338
-5.04373e-06
0.000158723
-4.9418e-06
0.000159064
-4.82272e-06
0.000159363
-4.69365e-06
0.00015962
-4.56005e-06
0.00015984
-4.42603e-06
0.000160023
-4.29458e-06
0.000160173
-4.1678e-06
0.000160292
-4.04706e-06
0.000160381
-3.9332e-06
0.000160443
-3.82662e-06
0.000160479
-3.72739e-06
0.000160493
-3.63537e-06
0.000160484
-3.55025e-06
0.000160455
-3.47161e-06
0.000160406
-3.399e-06
0.00016034
-3.33192e-06
0.000160257
-3.26987e-06
0.000160159
-3.21236e-06
0.000160046
-3.1589e-06
0.00015992
-3.10909e-06
-3.0621e-06
0.000159783
0.000157243
-8.22405e-07
0.000157685
-2.26504e-06
0.000158263
-3.38794e-06
0.00015891
-4.2348e-06
0.000159593
-4.86019e-06
0.000160282
-5.29176e-06
0.000160956
-5.5623e-06
0.000161601
-5.70522e-06
0.000162206
-5.74832e-06
0.000162764
-5.71541e-06
0.000163271
-5.6268e-06
0.000163726
-5.4991e-06
0.00016413
-5.34556e-06
0.000164484
-5.17657e-06
0.00016479
-5.00009e-06
0.000165052
-4.82208e-06
0.000165273
-4.64685e-06
0.000165456
-4.47742e-06
0.000165604
-4.3158e-06
0.00016572
-4.16318e-06
0.000165807
-4.02018e-06
0.000165868
-3.88694e-06
0.000165903
-3.7633e-06
0.000165917
-3.64888e-06
0.00016591
-3.54313e-06
0.000165884
-3.44546e-06
0.00016584
-3.35522e-06
0.00016578
-3.27178e-06
0.000165705
-3.19457e-06
0.000165615
-3.12305e-06
0.000165513
-3.05676e-06
0.000165399
-2.99527e-06
-2.93777e-06
0.000165275
0.000161689
-9.72945e-07
0.000162202
-2.77831e-06
0.000162927
-4.11251e-06
0.00016377
-5.07776e-06
0.000164655
-5.74541e-06
0.000165527
-6.16344e-06
0.000166356
-6.39211e-06
0.000167132
-6.481e-06
0.00016785
-6.46568e-06
0.000168509
-6.37456e-06
0.000169112
-6.23029e-06
0.000169663
-6.05032e-06
0.000170166
-5.84803e-06
0.000170623
-5.63364e-06
0.000171038
-5.41481e-06
0.000171413
-5.1972e-06
0.000171751
-4.98489e-06
0.000172054
-4.7807e-06
0.000172325
-4.58647e-06
0.000172565
-4.40326e-06
0.000172776
-4.23155e-06
0.000172961
-4.07136e-06
0.00017312
-3.92238e-06
0.000173255
-3.78409e-06
0.000173368
-3.65581e-06
0.000173459
-3.5368e-06
0.00017353
-3.42631e-06
0.000173582
-3.32364e-06
0.000173616
-3.22821e-06
0.000173632
-3.13953e-06
0.000173633
-3.05753e-06
0.000173619
-2.98183e-06
-2.91294e-06
0.000173595
0.000166686
-1.50537e-06
0.000167533
-3.62533e-06
0.000168459
-5.03845e-06
0.000169457
-6.07616e-06
0.000170532
-6.81964e-06
0.000171663
-7.29513e-06
0.000172835
-7.56335e-06
0.000174024