/*--------------------------------*- C++ -*----------------------------------*\
  =========                 |
  \\      /  F ield         | OpenFOAM: The Open Source CFD Toolbox
   \\    /   O peration     | Website:  https://openfoam.org
    \\  /    A nd           | Version:  10
     \\/     M anipulation  |
\*---------------------------------------------------------------------------*/
FoamFile
{
    format      ascii;
    class       volScalarField;
    location    "0.075";
    object      nut;
}
// * * * * * * * * * * * * * * * * * * * * * * * * * * * * * * * * * * * * * //

dimensions      [0 2 -1 0 0 0 0];

internalField   nonuniform List<scalar> 
6820
(
0.00050321
0.000397036
0.000324389
0.000269131
0.000236137
0.00021361
0.000196841
0.000183959
0.000173499
0.000164664
0.000157003
0.000150219
0.000144112
0.000138541
0.000133399
0.000128604
0.000124094
0.000119814
0.000115721
0.000111778
0.000107949
0.000104203
0.000100512
9.68453e-05
9.31749e-05
8.94717e-05
8.57048e-05
8.1845e-05
7.78505e-05
7.37085e-05
6.93165e-05
6.46873e-05
5.94837e-05
8.18625e-05
0.000143752
0.000196458
0.000210866
0.000206415
0.000197522
0.000187223
0.000177278
0.000168277
0.000160204
0.000152957
0.000146418
0.000140477
0.000135046
0.000130049
0.000125427
0.000121129
0.000117114
0.000113344
0.000109789
0.000106423
0.000103225
0.000100173
9.72519e-05
9.44456e-05
9.17403e-05
8.91234e-05
8.658e-05
8.41016e-05
8.16586e-05
7.92449e-05
7.683e-05
7.44087e-05
3.85868e-05
2.73763e-05
4.31006e-05
7.4577e-05
9.6032e-05
0.000109431
0.000116706
0.000120027
0.000120973
0.000120449
0.000119016
0.000117026
0.000114702
0.00011219
0.000109582
0.000106941
0.000104308
0.000101712
9.91705e-05
9.66972e-05
9.43001e-05
9.19851e-05
8.97561e-05
8.7616e-05
8.55675e-05
8.36129e-05
8.17551e-05
7.99967e-05
7.8344e-05
7.67947e-05
7.5375e-05
7.40614e-05
7.31134e-05
1.99675e-05
2.35132e-05
2.20382e-05
1.27197e-05
2.88646e-06
1.25879e-05
2.31881e-05
3.19221e-05
3.89757e-05
4.46019e-05
4.90426e-05
5.25128e-05
5.51864e-05
5.72042e-05
5.86884e-05
5.97393e-05
6.04394e-05
6.08577e-05
6.10512e-05
6.10682e-05
6.09493e-05
6.07292e-05
6.04383e-05
6.01034e-05
5.97486e-05
5.93966e-05
5.90692e-05
5.87877e-05
5.85765e-05
5.8459e-05
5.84783e-05
5.86712e-05
5.9226e-05
1.32476e-05
1.50646e-05
1.99173e-05
2.20141e-05
2.14548e-05
1.94896e-05
1.68267e-05
1.38334e-05
1.07266e-05
7.63526e-06
4.64289e-06
1.82538e-06
1.02198e-06
3.41892e-06
5.68384e-06
7.76159e-06
9.6575e-06
1.13847e-05
1.29595e-05
1.44001e-05
1.57257e-05
1.69562e-05
1.81122e-05
1.92146e-05
2.02853e-05
2.13472e-05
2.24246e-05
2.35442e-05
2.4736e-05
2.60352e-05
2.74856e-05
2.91482e-05
3.11159e-05
1.01963e-05
1.10032e-05
1.18258e-05
1.26338e-05
1.32804e-05
1.38342e-05
1.42376e-05
1.44548e-05
1.44972e-05
1.43857e-05
1.41412e-05
1.37858e-05
1.33386e-05
1.28138e-05
1.22291e-05
1.15986e-05
1.09339e-05
1.0244e-05
9.535e-06
8.81071e-06
8.07245e-06
7.3193e-06
6.54813e-06
5.75362e-06
4.92815e-06
4.06161e-06
3.14148e-06
2.15289e-06
1.08951e-06
3.32954e-07
1.48664e-06
3.0401e-06
4.85351e-06
7.54384e-06
8.23651e-06
8.65237e-06
8.88591e-06
8.78556e-06
8.58767e-06
8.43446e-06
8.35616e-06
8.34562e-06
8.37785e-06
8.42559e-06
8.46986e-06
8.50168e-06
8.51795e-06
8.51489e-06
8.49076e-06
8.44528e-06
8.37877e-06
8.29179e-06
8.18487e-06
8.05835e-06
7.91219e-06
7.74588e-06
7.55823e-06
7.34728e-06
7.11011e-06
6.84279e-06
6.53993e-06
6.19616e-06
5.80394e-06
5.36686e-06
4.89725e-06
4.47386e-06
5.76449e-06
6.60068e-06
6.98683e-06
7.09488e-06
6.84206e-06
6.48085e-06
6.15104e-06
5.87655e-06
5.6558e-06
5.47965e-06
5.33601e-06
5.21503e-06
5.1094e-06
5.01378e-06
4.92453e-06
4.83891e-06
4.75458e-06
4.66952e-06
4.58203e-06
4.49068e-06
4.39422e-06
4.29156e-06
4.18171e-06
4.06378e-06
3.93707e-06
3.80119e-06
3.65648e-06
3.50471e-06
3.35107e-06
3.20724e-06
3.09854e-06
3.07908e-06
3.21368e-06
4.49378e-06
5.24159e-06
5.52525e-06
5.67308e-06
5.58856e-06
5.37883e-06
5.13309e-06
4.885e-06
4.65369e-06
4.44697e-06
4.26304e-06
4.09739e-06
3.94585e-06
3.8049e-06
3.67155e-06
3.54327e-06
3.41791e-06
3.2937e-06
3.16905e-06
3.04252e-06
2.91276e-06
2.77854e-06
2.63878e-06
2.49271e-06
2.34015e-06
2.18209e-06
2.02184e-06
1.86719e-06
1.7341e-06
1.65262e-06
1.66763e-06
1.83442e-06
2.17345e-06
3.56818e-06
4.2358e-06
4.50121e-06
4.65674e-06
4.61872e-06
4.45527e-06
4.25257e-06
4.04845e-06
3.859e-06
3.68868e-06
3.5348e-06
3.39337e-06
3.26117e-06
3.13559e-06
3.01452e-06
2.89628e-06
2.7795e-06
2.66292e-06
2.54541e-06
2.42593e-06
2.30357e-06
2.17765e-06
2.04788e-06
1.91465e-06
1.77962e-06
1.64676e-06
1.52401e-06
1.42608e-06
1.37659e-06
1.40732e-06
1.5463e-06
1.80992e-06
2.1867e-06
2.88128e-06
3.46279e-06
3.70707e-06
3.84823e-06
3.84404e-06
3.73594e-06
3.58641e-06
3.42475e-06
3.26502e-06
3.11424e-06
2.97382e-06
2.84288e-06
2.72002e-06
2.60365e-06
2.49218e-06
2.38418e-06
2.27838e-06
2.17364e-06
2.06904e-06
1.96388e-06
1.85778e-06
1.75082e-06
1.64382e-06
1.5388e-06
1.43971e-06
1.35358e-06
1.29172e-06
1.27043e-06
1.30864e-06
1.42317e-06
1.62164e-06
1.90574e-06
2.26293e-06
2.35829e-06
2.85976e-06
3.09965e-06
3.24319e-06
3.26945e-06
3.19862e-06
3.07842e-06
2.93848e-06
2.79541e-06
2.65809e-06
2.52929e-06
2.40884e-06
2.2957e-06
2.18856e-06
2.0861e-06
1.98717e-06
1.89079e-06
1.79624e-06
1.70303e-06
1.61102e-06
1.52052e-06
1.43258e-06
1.34928e-06
1.27426e-06
1.21338e-06
1.17517e-06
1.17061e-06
1.21157e-06
1.30756e-06
1.46385e-06
1.68011e-06
1.95491e-06
2.27829e-06
1.95051e-06
2.38439e-06
2.62412e-06
2.76916e-06
2.81392e-06
2.77179e-06
2.68038e-06
2.56639e-06
2.44488e-06
2.32419e-06
2.20782e-06
2.09685e-06
1.99135e-06
1.89096e-06
1.79509e-06
1.70312e-06
1.61459e-06
1.52919e-06
1.44692e-06
1.3682e-06
1.29406e-06
1.22641e-06
1.16835e-06
1.12442e-06
1.10078e-06
1.10475e-06
1.1437e-06
1.22353e-06
1.34734e-06
1.51575e-06
1.72667e-06
1.97836e-06
2.26312e-06
1.62512e-06
2.00446e-06
2.24618e-06
2.39724e-06
2.4596e-06
2.44285e-06
2.37554e-06
2.28133e-06
2.1751e-06
2.06594e-06
1.95866e-06
1.85545e-06
1.75716e-06
1.66392e-06
1.57552e-06
1.49172e-06
1.41236e-06
1.33753e-06
1.26768e-06
1.20377e-06
1.14739e-06
1.101e-06
1.06798e-06
1.05264e-06
1.0598e-06
1.09419e-06
1.15949e-06
1.25789e-06
1.38979e-06
1.55448e-06
1.74978e-06
1.97401e-06
2.22134e-06
1.35965e-06
1.69739e-06
1.94236e-06
2.10153e-06
2.17828e-06
2.18142e-06
2.13396e-06
2.05745e-06
1.96641e-06
1.86993e-06
1.77321e-06
1.67898e-06
1.58865e-06
1.5029e-06
1.42204e-06
1.3463e-06
1.27597e-06
1.21159e-06
1.15402e-06
1.10457e-06
1.06508e-06
1.03801e-06
1.02627e-06
1.03305e-06
1.06138e-06
1.11365e-06
1.19133e-06
1.29488e-06
1.42378e-06
1.577e-06
1.75253e-06
1.94874e-06
2.16135e-06
1.1384e-06
1.4464e-06
1.69558e-06
1.86437e-06
1.95471e-06
1.97568e-06
1.94635e-06
1.88596e-06
1.80839e-06
1.72279e-06
1.63489e-06
1.54819e-06
1.46477e-06
1.38587e-06
1.31227e-06
1.24457e-06
1.18341e-06
1.12956e-06
1.08407e-06
1.04831e-06
1.02397e-06
1.01303e-06
1.01756e-06
1.0395e-06
1.0804e-06
1.14125e-06
1.22236e-06
1.3235e-06
1.44385e-06
1.58232e-06
1.73711e-06
1.90663e-06
2.08796e-06
9.5017e-07
1.23924e-06
1.49392e-06
1.67323e-06
1.77644e-06
1.81304e-06
1.79956e-06
1.75348e-06
1.68823e-06
1.61308e-06
1.53416e-06
1.45545e-06
1.37946e-06
1.30784e-06
1.24172e-06
1.182e-06
1.12954e-06
1.08526e-06
1.05022e-06
1.02563e-06
1.01284e-06
1.01318e-06
1.02792e-06
1.05803e-06
1.10416e-06
1.16652e-06
1.24493e-06
1.33885e-06
1.4474e-06
1.56951e-06
1.70363e-06
1.84818e-06
2.0014e-06
7.86858e-07
1.06697e-06
1.32881e-06
1.51908e-06
1.63476e-06
1.6857e-06
1.68687e-06
1.65423e-06
1.6007e-06
1.53554e-06
1.46515e-06
1.39392e-06
1.32483e-06
1.25991e-06
1.20062e-06
1.1481e-06
1.10331e-06
1.06719e-06
1.04066e-06
1.02465e-06
1.02004e-06
1.02762e-06
1.04797e-06
1.08147e-06
1.12821e-06
1.18802e-06
1.26047e-06
1.34492e-06
1.4405e-06
1.5462e-06
1.66059e-06
1.78227e-06
1.91043e-06
6.42602e-07
9.23386e-07
1.19427e-06
1.39563e-06
1.52335e-06
1.58754e-06
1.60209e-06
1.58177e-06
1.53901e-06
1.48308e-06
1.42063e-06
1.3564e-06
1.29369e-06
1.23482e-06
1.18147e-06
1.13486e-06
1.09604e-06
1.06584e-06
1.04499e-06
1.03412e-06
1.03374e-06
1.04422e-06
1.06575e-06
1.09833e-06
1.14179e-06
1.19576e-06
1.25972e-06
1.33303e-06
1.41488e-06
1.50427e-06
1.60002e-06
1.70089e-06
1.80682e-06
5.13428e-07
8.04651e-07
1.08635e-06
1.29862e-06
1.4379e-06
1.51445e-06
1.54149e-06
1.53284e-06
1.50043e-06
1.45349e-06
1.39884e-06
1.34145e-06
1.28487e-06
1.23165e-06
1.18358e-06
1.14197e-06
1.10786e-06
1.08194e-06
1.06475e-06
1.05666e-06
1.05791e-06
1.06858e-06
1.08861e-06
1.11779e-06
1.15581e-06
1.20222e-06
1.25649e-06
1.31799e-06
1.38594e-06
1.45956e-06
1.53799e-06
1.61989e-06
1.70583e-06
3.975e-07
7.09187e-07
1.00274e-06
1.22533e-06
1.37542e-06
1.46332e-06
1.5017e-06
1.5035e-06
1.48028e-06
1.44112e-06
1.39294e-06
1.34091e-06
1.2888e-06
1.23932e-06
1.19437e-06
1.15538e-06
1.12322e-06
1.09854e-06
1.08178e-06
1.07316e-06
1.07272e-06
1.08039e-06
1.09597e-06
1.11918e-06
1.14962e-06
1.18688e-06
1.23043e-06
1.27971e-06
1.33407e-06
1.39286e-06
1.45533e-06
1.52027e-06
1.58875e-06
2.96842e-07
6.37768e-07
9.42645e-07
1.17451e-06
1.33459e-06
1.43312e-06
1.48224e-06
1.49419e-06
1.48014e-06
1.44897e-06
1.40761e-06
1.36134e-06
1.31403e-06
1.26846e-06
1.22659e-06
1.18979e-06
1.15892e-06
1.13457e-06
1.11707e-06
1.1065e-06
1.10284e-06
1.10592e-06
1.11551e-06
1.13131e-06
1.15295e-06
1.18005e-06
1.21217e-06
1.24884e-06
1.28956e-06
1.33375e-06
1.38082e-06
1.42982e-06
1.48213e-06
2.22801e-07
5.93213e-07
9.0625e-07
1.14551e-06
1.31408e-06
1.42167e-06
1.4797e-06
1.49984e-06
1.49253e-06
1.46668e-06
1.42928e-06
1.38569e-06
1.33992e-06
1.29488e-06
1.25262e-06
1.21454e-06
1.18157e-06
1.15425e-06
1.13281e-06
1.11735e-06
1.10777e-06
1.10391e-06
1.10552e-06
1.11232e-06
1.12401e-06
1.14026e-06
1.16073e-06
1.18505e-06
1.21285e-06
1.24371e-06
1.27722e-06
1.31252e-06
1.35117e-06
2.03321e-07
5.79606e-07
8.95006e-07
1.13966e-06
1.31599e-06
1.43259e-06
1.50006e-06
1.52934e-06
1.53041e-06
1.51185e-06
1.4805e-06
1.44164e-06
1.39925e-06
1.35625e-06
1.31469e-06
1.27599e-06
1.24106e-06
1.21045e-06
1.18443e-06
1.16311e-06
1.14643e-06
1.13428e-06
1.12648e-06
1.12283e-06
1.12313e-06
1.12717e-06
1.13475e-06
1.14563e-06
1.15961e-06
1.17642e-06
1.19583e-06
1.21713e-06
1.24206e-06
2.5543e-07
6.00153e-07
9.09978e-07
1.15649e-06
1.33752e-06
1.45959e-06
1.53219e-06
1.56555e-06
1.56945e-06
1.55232e-06
1.52108e-06
1.48116e-06
1.4367e-06
1.39071e-06
1.34531e-06
1.30195e-06
1.26156e-06
1.22467e-06
1.19155e-06
1.16228e-06
1.13684e-06
1.11512e-06
1.09701e-06
1.08238e-06
1.07112e-06
1.06314e-06
1.05839e-06
1.05679e-06
1.05829e-06
1.06279e-06
1.07024e-06
1.0801e-06
1.09407e-06
3.56882e-07
6.56285e-07
9.54562e-07
1.20198e-06
1.38929e-06
1.52026e-06
1.60289e-06
1.6463e-06
1.65936e-06
1.64992e-06
1.62454e-06
1.58847e-06
1.5458e-06
1.49959e-06
1.45207e-06
1.40482e-06
1.3589e-06
1.31499e-06
1.27348e-06
1.23457e-06
1.19836e-06
1.16484e-06
1.13403e-06
1.1059e-06
1.08048e-06
1.05782e-06
1.03802e-06
1.02119e-06
1.00746e-06
9.96951e-07
9.89812e-07
9.85703e-07
9.86438e-07
4.88043e-07
7.46713e-07
1.02775e-06
1.27001e-06
1.45562e-06
1.5852e-06
1.66567e-06
1.70603e-06
1.71533e-06
1.70165e-06
1.67171e-06
1.63084e-06
1.58312e-06
1.53153e-06
1.4782e-06
1.42461e-06
1.3717e-06
1.32008e-06
1.27009e-06
1.22189e-06
1.17559e-06
1.13122e-06
1.08882e-06
1.04847e-06
1.0103e-06
9.74499e-07
9.41317e-07
9.11071e-07
8.84117e-07
8.60814e-07
8.41561e-07
8.26352e-07
8.16871e-07
6.4371e-07
8.7252e-07
1.13948e-06
1.38386e-06
1.58036e-06
1.72502e-06
1.82162e-06
1.87689e-06
1.89836e-06
1.89331e-06
1.86825e-06
1.82867e-06
1.779e-06
1.7227e-06
1.66234e-06
1.59982e-06
1.53643e-06
1.47306e-06
1.41026e-06
1.34839e-06
1.28763e-06
1.22811e-06
1.16992e-06
1.11319e-06
1.05809e-06
1.00483e-06
9.53757e-07
9.05267e-07
8.59864e-07
8.18113e-07
7.80675e-07
7.47919e-07
7.21704e-07
8.26138e-07
1.0327e-06
1.27813e-06
1.50585e-06
1.68567e-06
1.813e-06
1.89304e-06
1.93402e-06
1.94419e-06
1.93079e-06
1.89978e-06
1.85591e-06
1.80284e-06
1.74336e-06
1.67954e-06
1.61288e-06
1.54446e-06
1.47505e-06
1.40515e-06
1.33514e-06
1.26524e-06
1.19566e-06
1.12654e-06
1.05806e-06
9.90429e-07
9.2393e-07
8.58924e-07
7.95877e-07
7.3538e-07
6.78155e-07
6.25081e-07
5.77061e-07
5.35884e-07
1.04107e-06
1.23817e-06
1.48505e-06
1.73631e-06
1.95215e-06
2.11676e-06
2.22802e-06
2.29085e-06
2.31292e-06
2.30246e-06
2.2672e-06
2.21374e-06
2.14741e-06
2.07234e-06
1.99155e-06
1.90725e-06
1.82092e-06
1.73359e-06
1.64589e-06
1.55823e-06
1.47083e-06
1.38384e-06
1.29736e-06
1.21147e-06
1.1263e-06
1.042e-06
9.58772e-07
8.76913e-07
7.96794e-07
7.18888e-07
6.43792e-07
5.72284e-07
5.0549e-07
1.29958e-06
1.4843e-06
1.69002e-06
1.88485e-06
2.0414e-06
2.15568e-06
2.23204e-06
2.27611e-06
2.2926e-06
2.28554e-06
2.25867e-06
2.21542e-06
2.15894e-06
2.092e-06
2.01703e-06
1.93602e-06
1.85063e-06
1.76214e-06
1.67155e-06
1.57961e-06
1.48687e-06
1.39373e-06
1.30051e-06
1.20743e-06
1.11471e-06
1.02253e-06
9.31106e-07
8.40649e-07
7.51404e-07
6.63646e-07
5.77608e-07
4.93778e-07
4.11519e-07
1.61382e-06
1.82037e-06
2.09265e-06
2.39785e-06
2.66274e-06
2.85204e-06
2.96465e-06
3.01295e-06
3.0112e-06
2.97252e-06
2.90779e-06
2.82528e-06
2.73093e-06
2.62888e-06
2.52195e-06
2.412e-06
2.30031e-06
2.1877e-06
2.07474e-06
1.96185e-06
1.84932e-06
1.73737e-06
1.6262e-06
1.516e-06
1.40694e-06
1.29922e-06
1.19306e-06
1.0887e-06
9.86437e-07
8.86567e-07
7.89405e-07
6.95451e-07
6.04146e-07
2.01431e-06
2.1767e-06
2.28464e-06
2.39396e-06
2.51274e-06
2.63275e-06
2.74157e-06
2.82783e-06
2.88368e-06
2.90627e-06
2.89692e-06
2.85943e-06
2.79862e-06
2.71942e-06
2.62632e-06
2.52316e-06
2.41303e-06
2.29839e-06
2.18109e-06
2.06251e-06
1.9437e-06
1.8254e-06
1.70818e-06
1.59247e-06
1.47865e-06
1.36703e-06
1.25795e-06
1.15177e-06
1.04891e-06
9.4992e-07
8.55342e-07
7.66325e-07
6.8189e-07
2.52076e-06
2.86102e-06
3.31875e-06
3.76909e-06
4.07027e-06
4.21288e-06
4.24432e-06
4.20562e-06
4.12329e-06
4.01458e-06
3.88972e-06
3.75425e-06
3.61134e-06
3.46306e-06
3.311e-06
3.1566e-06
3.00119e-06
2.84601e-06
2.69218e-06
2.54066e-06
2.39226e-06
2.24762e-06
2.10725e-06
1.97156e-06
1.84084e-06
1.71537e-06
1.5954e-06
1.48116e-06
1.373e-06
1.27128e-06
1.17648e-06
1.08944e-06
1.00971e-06
3.23047e-06
3.16708e-06
2.93072e-06
2.92369e-06
3.13984e-06
3.43117e-06
3.6933e-06
3.88044e-06
3.98319e-06
4.01333e-06
3.99065e-06
3.93457e-06
3.86079e-06
3.78064e-06
3.70133e-06
3.62681e-06
3.55873e-06
3.49731e-06
3.44198e-06
3.39184e-06
3.34593e-06
3.30338e-06
3.26346e-06
3.22562e-06
3.18942e-06
3.15455e-06
3.12082e-06
3.08807e-06
3.05633e-06
3.02576e-06
2.99662e-06
2.97077e-06
2.94584e-06
4.27502e-06
5.5424e-06
6.3314e-06
6.60121e-06
6.51757e-06
6.31217e-06
6.17377e-06
6.18556e-06
6.35544e-06
6.64698e-06
7.00887e-06
7.39525e-06
7.77242e-06
8.1185e-06
8.42117e-06
8.675e-06
8.8791e-06
9.0354e-06
9.14737e-06
9.21929e-06
9.25569e-06
9.26101e-06
9.23944e-06
9.19476e-06
9.1303e-06
9.04891e-06
8.95301e-06
8.84439e-06
8.72478e-06
8.59489e-06
8.45676e-06
8.3113e-06
8.16162e-06
5.60686e-06
3.57617e-06
2.79815e-06
4.67571e-06
7.39058e-06
9.95184e-06
1.21265e-05
1.38505e-05
1.51361e-05
1.60248e-05
1.65635e-05
1.68005e-05
1.67833e-05
1.6557e-05
1.61625e-05
1.56362e-05
1.50097e-05
1.43102e-05
1.35602e-05
1.27783e-05
1.19796e-05
1.11759e-05
1.03766e-05
9.58847e-06
8.81678e-06
8.06494e-06
7.33511e-06
6.62783e-06
5.9435e-06
5.27862e-06
4.63623e-06
4.00191e-06
3.39747e-06
1.14341e-05
1.65341e-05
1.83082e-05
1.98208e-05
2.02895e-05
1.95384e-05
1.77903e-05
1.53205e-05
1.24876e-05
9.83917e-06
8.27375e-06
8.71248e-06
1.08743e-05
1.38008e-05
1.6909e-05
1.99428e-05
2.27915e-05
2.54081e-05
2.77768e-05
2.98981e-05
3.17809e-05
3.34392e-05
3.4889e-05
3.61468e-05
3.72292e-05
3.81522e-05
3.8931e-05
3.95801e-05
4.01145e-05
4.05489e-05
4.09036e-05
4.11971e-05
4.14812e-05
2.48711e-05
2.86563e-05
3.90058e-05
5.34422e-05
6.77029e-05
8.16272e-05
9.44815e-05
0.000105661
0.000115119
0.000122931
0.000129205
0.000134094
0.000137766
0.000140386
0.000142104
0.00014306
0.000143375
0.000143155
0.000142493
0.000141468
0.000140147
0.000138586
0.000136832
0.000134926
0.0001329
0.00013078
0.00012859
0.000126344
0.000124061
0.000121741
0.000119404
0.000117057
0.000114917
0.000543308
0.00051057
0.000491603
0.000467921
0.000443904
0.000421569
0.000400074
0.000379483
0.000360064
0.000341835
0.00032478
0.000308886
0.000294108
0.000280383
0.000267641
0.000255809
0.000244812
0.000234577
0.000225034
0.000216118
0.000207771
0.000199936
0.000192565
0.000185613
0.00017904
0.000172812
0.000166893
0.000161258
0.000155861
0.000150709
0.000145629
0.000141196
0.000137079
5.74243e-05
5.12519e-05
4.94745e-05
4.8453e-05
4.5883e-05
4.26281e-05
3.83441e-05
3.37456e-05
3.00044e-05
2.70181e-05
2.18829e-05
1.58242e-05
1.61669e-05
2.25309e-05
3.13747e-05
3.20285e-05
2.62345e-05
2.98886e-05
3.71835e-05
3.89097e-05
3.69269e-05
3.49986e-05
3.37917e-05
3.54866e-05
3.98659e-05
4.25484e-05
4.38886e-05
4.10346e-05
3.43511e-05
2.79268e-05
2.39046e-05
2.15735e-05
1.94886e-05
1.68153e-05
1.33171e-05
9.53725e-06
6.50218e-06
5.5616e-06
1.06689e-05
1.90374e-05
2.54971e-05
2.88716e-05
3.01668e-05
2.97688e-05
2.76744e-05
2.4518e-05
2.12959e-05
1.85519e-05
1.62937e-05
1.43795e-05
1.27178e-05
1.12629e-05
9.98168e-06
8.84282e-06
7.81879e-06
6.88882e-06
6.03895e-06
5.26069e-06
4.54941e-06
3.903e-06
3.32086e-06
2.80284e-06
2.34854e-06
1.95656e-06
1.62423e-06
1.3475e-06
1.12118e-06
9.39374e-07
7.95813e-07
6.85064e-07
6.00577e-07
5.38815e-07
4.95374e-07
4.66936e-07
4.50859e-07
4.45223e-07
4.48719e-07
4.60222e-07
4.78126e-07
5.00073e-07
5.23564e-07
5.4721e-07
5.71053e-07
5.94754e-07
6.15073e-07
6.26309e-07
6.24658e-07
6.12094e-07
5.95436e-07
5.80822e-07
5.69324e-07
5.57644e-07
5.4235e-07
5.21689e-07
4.95941e-07
4.65231e-07
4.3146e-07
3.91427e-07
3.65863e-07
2.97926e-07
9.60278e-05
8.80462e-05
6.92524e-05
5.70196e-05
5.09269e-05
4.52094e-05
3.8122e-05
3.05055e-05
2.356e-05
1.67492e-05
9.8081e-06
9.53377e-06
1.81792e-05
3.0124e-05
3.38043e-05
2.59291e-05
2.35056e-05
3.25165e-05
3.75518e-05
3.70169e-05
3.47602e-05
3.34371e-05
3.30023e-05
3.34814e-05
3.68861e-05
4.0196e-05
4.21469e-05
4.14336e-05
3.62513e-05
2.93377e-05
2.40142e-05
2.08118e-05
1.84179e-05
1.57037e-05
1.22597e-05
8.43401e-06
4.28852e-06
4.72092e-06
1.36669e-05
2.21912e-05
2.73886e-05
2.99402e-05
3.08431e-05
2.99975e-05
2.74694e-05
2.41593e-05
2.1028e-05
1.84196e-05
1.62543e-05
1.44006e-05
1.27842e-05
1.13623e-05
1.01008e-05
8.96916e-06
7.94337e-06
7.00643e-06
6.14724e-06
5.35904e-06
4.63809e-06
3.98269e-06
3.39232e-06
2.86685e-06
2.40582e-06
2.0078e-06
1.67014e-06
1.38885e-06
1.15881e-06
9.74123e-07
8.28507e-07
7.16251e-07
6.3063e-07
5.67565e-07
5.22733e-07
4.92635e-07
4.74613e-07
4.66839e-07
4.68147e-07
4.77547e-07
4.93538e-07
5.13825e-07
5.35978e-07
5.5876e-07
5.82568e-07
6.0755e-07
6.30708e-07
6.45925e-07
6.48216e-07
6.38413e-07
6.22488e-07
6.06371e-07
5.91702e-07
5.76152e-07
5.57127e-07
5.33347e-07
5.05242e-07
4.7288e-07
4.37924e-07
3.96925e-07
3.71227e-07
3.01749e-07
9.75267e-05
0.000101568
9.65865e-05
8.21401e-05
6.51262e-05
5.18082e-05
4.17429e-05
3.28064e-05
2.4473e-05
1.73256e-05
1.55968e-05
2.25313e-05
3.24251e-05
3.50682e-05
2.62517e-05
1.91701e-05
2.81299e-05
3.56941e-05
3.67237e-05
3.47172e-05
3.2824e-05
3.20195e-05
3.21752e-05
3.24174e-05
3.44331e-05
3.76532e-05
3.99578e-05
4.07554e-05
3.79534e-05
3.1815e-05
2.53481e-05
2.05801e-05
1.72499e-05
1.41482e-05
1.05422e-05
6.18217e-06
5.88812e-07
9.03798e-06
1.86438e-05
2.54606e-05
2.9089e-05
3.09947e-05
3.14635e-05
3.00302e-05
2.70642e-05
2.36911e-05
2.07128e-05
1.82643e-05
1.62077e-05
1.44264e-05
1.28603e-05
1.14712e-05
1.02272e-05
9.1014e-06
8.07372e-06
7.13045e-06
6.26271e-06
5.46502e-06
4.73442e-06
4.06963e-06
3.47042e-06
2.93681e-06
2.46836e-06
2.06361e-06
1.7198e-06
1.43283e-06
1.19743e-06
1.00762e-06
8.57096e-07
7.39772e-07
6.50469e-07
5.8422e-07
5.37089e-07
5.05681e-07
4.8721e-07
4.79511e-07
4.80962e-07
4.90133e-07
5.05249e-07
5.23992e-07
5.44166e-07
5.65013e-07
5.87652e-07
6.13024e-07
6.38576e-07
6.57953e-07
6.65376e-07
6.60251e-07
6.47287e-07
6.31813e-07
6.15702e-07
5.97415e-07
5.75258e-07
5.48637e-07
5.18329e-07
4.84518e-07
4.48595e-07
4.07087e-07
3.81336e-07
3.11179e-07
8.08889e-05
8.70757e-05
9.18043e-05
9.18819e-05
8.46573e-05
7.22004e-05
5.89975e-05
4.80066e-05
4.0291e-05
3.71582e-05
3.83019e-05
3.99408e-05
3.58738e-05
2.38906e-05
1.54891e-05
2.53437e-05
3.39909e-05
3.58826e-05
3.41039e-05
3.20584e-05
3.09487e-05
3.05822e-05
3.09573e-05
3.15245e-05
3.2653e-05
3.52324e-05
3.76384e-05
3.91604e-05
3.86382e-05
3.47307e-05
2.86116e-05
2.25294e-05
1.7571e-05
1.34012e-05
9.42407e-06
5.96636e-06
8.38629e-06
1.64999e-05
2.37991e-05
2.80673e-05
3.0485e-05
3.1965e-05
3.18446e-05
2.97171e-05
2.64264e-05
2.31429e-05
2.0383e-05
1.81051e-05
1.61582e-05
1.44514e-05
1.29372e-05
1.15816e-05
1.03555e-05
9.23629e-06
8.20778e-06
7.25926e-06
6.38375e-06
5.57699e-06
4.8368e-06
4.16248e-06
3.55414e-06
3.012e-06
2.5357e-06
2.12383e-06
1.7736e-06
1.48093e-06
1.24059e-06
1.04661e-06
8.92734e-07
7.72951e-07
6.81686e-07
6.13825e-07
5.65312e-07
5.32538e-07
5.12581e-07
5.03202e-07
5.0276e-07
5.09847e-07
5.22746e-07
5.39209e-07
5.57134e-07
5.75974e-07
5.97329e-07
6.22862e-07
6.50506e-07
6.73531e-07
6.85142e-07
6.83768e-07
6.73232e-07
6.58312e-07
6.40859e-07
6.19821e-07
5.94229e-07
5.64188e-07
5.30926e-07
4.94828e-07
4.57153e-07
4.14216e-07
3.88147e-07
3.1583e-07
4.53862e-05
5.20316e-05
5.87091e-05
6.48311e-05
6.85048e-05
6.80022e-05
6.3763e-05
5.7767e-05
5.21301e-05
4.70274e-05
4.01924e-05
2.92448e-05
1.50012e-05
1.32423e-05
2.57176e-05
3.34125e-05
3.48282e-05
3.29566e-05
3.08232e-05
2.95726e-05
2.90365e-05
2.887e-05
2.91677e-05
3.00112e-05
3.0992e-05
3.29883e-05
3.53612e-05
3.70858e-05
3.78149e-05
3.64191e-05
3.245e-05
2.70525e-05
2.16786e-05
1.71502e-05
1.40202e-05
1.38326e-05
1.79461e-05
2.36022e-05
2.7546e-05
2.98641e-05
3.17754e-05
3.27982e-05
3.18214e-05
2.90143e-05
2.56084e-05
2.25526e-05
2.00415e-05
1.79332e-05
1.60976e-05
1.44686e-05
1.30085e-05
1.16872e-05
1.04802e-05
9.36908e-06
8.3416e-06
7.38944e-06
6.50727e-06
5.69204e-06
4.94246e-06
4.25852e-06
3.64081e-06
3.08984e-06
2.60541e-06
2.18612e-06
1.82919e-06
1.53047e-06
1.28464e-06
1.0857e-06
9.27333e-07
8.03447e-07
7.086e-07
6.37781e-07
5.86979e-07
5.5262e-07
5.31667e-07
5.2165e-07
5.20603e-07
5.26796e-07
5.38277e-07
5.52708e-07
5.68061e-07
5.84089e-07
6.03046e-07
6.27555e-07
6.5632e-07
6.82737e-07
6.99285e-07
7.03041e-07
6.96566e-07
6.83825e-07
6.66432e-07
6.43662e-07
6.15254e-07
5.82122e-07
5.46097e-07
5.07916e-07
4.68738e-07
4.24813e-07
3.98627e-07
3.2509e-07
9.82613e-06
1.4716e-05
1.98907e-05
2.49466e-05
2.93693e-05
3.22738e-05
3.28688e-05
3.08935e-05
2.64315e-05
1.87865e-05
7.85136e-06
6.67987e-06
1.97701e-05
2.93995e-05
3.36736e-05
3.34384e-05
3.11812e-05
2.90888e-05
2.78836e-05
2.72779e-05
2.69592e-05
2.68644e-05
2.70842e-05
2.79239e-05
2.90869e-05
3.07428e-05
3.30654e-05
3.4981e-05
3.61169e-05
3.62186e-05
3.46673e-05
3.15161e-05
2.76816e-05
2.4296e-05
2.24745e-05
2.30966e-05
2.56359e-05
2.80455e-05
2.96382e-05
3.13661e-05
3.30558e-05
3.32149e-05
3.12062e-05
2.79495e-05
2.46908e-05
2.19588e-05
1.97001e-05
1.77544e-05
1.6029e-05
1.44791e-05
1.30742e-05
1.17886e-05
1.06025e-05
9.50183e-06
8.47736e-06
7.52292e-06
6.63484e-06
5.81138e-06
5.05234e-06
4.35854e-06
3.73114e-06
3.17098e-06
2.67805e-06
2.25102e-06
1.88711e-06
1.58216e-06
1.33088e-06
1.12725e-06
9.64986e-07
8.38019e-07
7.40765e-07
6.68257e-07
6.16096e-07
5.80556e-07
5.5842e-07
5.47055e-07
5.44386e-07
5.4863e-07
5.57842e-07
5.69721e-07
5.82303e-07
5.95532e-07
6.1219e-07
6.35778e-07
6.6566e-07
6.95053e-07
7.15685e-07
7.2374e-07
7.2087e-07
7.10278e-07
6.9313e-07
6.6874e-07
6.37357e-07
6.00673e-07
5.61216e-07
5.20172e-07
4.78752e-07
4.32989e-07
4.06426e-07
3.303e-07
5.77596e-06
7.0006e-06
9.40992e-06
1.21541e-05
1.43993e-05
1.55792e-05
1.56501e-05
1.52659e-05
1.58579e-05
1.88191e-05
2.38596e-05
2.89727e-05
3.2159e-05
3.26009e-05
3.09476e-05
2.86684e-05
2.69261e-05
2.59629e-05
2.54433e-05
2.50772e-05
2.48247e-05
2.47813e-05
2.50173e-05
2.57145e-05
2.69148e-05
2.84307e-05
3.05822e-05
3.28175e-05
3.43053e-05
3.49642e-05
3.47477e-05
3.35438e-05
3.16504e-05
2.97587e-05
2.87324e-05
2.88125e-05
2.93925e-05
3.00035e-05
3.12069e-05
3.30213e-05
3.39737e-05
3.28257e-05
2.9962e-05
2.66626e-05
2.37671e-05
2.13861e-05
1.93597e-05
1.75661e-05
1.595e-05
1.44806e-05
1.31327e-05
1.18852e-05
1.07228e-05
9.6351e-06
8.61551e-06
7.65997e-06
6.76654e-06
5.935e-06
5.1664e-06
4.46246e-06
3.82499e-06
3.25525e-06
2.75343e-06
2.31829e-06
1.9471e-06
1.63565e-06
1.37863e-06
1.16998e-06
1.00336e-06
8.72665e-07
7.72213e-07
6.97063e-07
6.42825e-07
6.05697e-07
5.82356e-07
5.69984e-07
5.66265e-07
5.69176e-07
5.76589e-07
5.86097e-07
5.95716e-07
6.05532e-07
6.18851e-07
6.4016e-07
6.69891e-07
7.01765e-07
7.26904e-07
7.40287e-07
7.42372e-07
7.35392e-07
7.19864e-07
6.94943e-07
6.61287e-07
6.21403e-07
5.78653e-07
5.34837e-07
4.913e-07
4.44002e-07
4.17225e-07
3.3934e-07
5.00692e-06
6.85707e-06
9.60141e-06
1.29473e-05
1.6476e-05
1.97531e-05
2.24993e-05
2.47329e-05
2.66799e-05
2.839e-05
2.9516e-05
2.9668e-05
2.87668e-05
2.7216e-05
2.56778e-05
2.45932e-05
2.39664e-05
2.35713e-05
2.3238e-05
2.29488e-05
2.27747e-05
2.28005e-05
2.30886e-05
2.36966e-05
2.47417e-05
2.61307e-05
2.7972e-05
3.03006e-05
3.23474e-05
3.35398e-05
3.39058e-05
3.36065e-05
3.28243e-05
3.18628e-05
3.1146e-05
3.08075e-05
3.08354e-05
3.1592e-05
3.31525e-05
3.43638e-05
3.383e-05
3.1449e-05
2.82884e-05
2.53425e-05
2.28994e-05
2.08376e-05
1.90154e-05
1.7366e-05
1.58596e-05
1.44728e-05
1.31845e-05
1.19781e-05
1.08424e-05
9.77009e-06
8.75702e-06
7.8013e-06
6.90293e-06
6.06337e-06
5.285e-06
4.57059e-06
3.92264e-06
3.34286e-06
2.83171e-06
2.38808e-06
2.00927e-06
1.69109e-06
1.4282e-06
1.21453e-06
1.04375e-06
9.09713e-07
8.06741e-07
7.29676e-07
6.74025e-07
6.3576e-07
6.1134e-07
5.97748e-07
5.92509e-07
5.93501e-07
5.98567e-07
6.05299e-07
6.1172e-07
6.18029e-07
6.28002e-07
6.47075e-07
6.76604e-07
7.105e-07
7.39442e-07
7.57541e-07
7.64325e-07
7.61107e-07
7.47576e-07
7.22449e-07
6.86568e-07
6.43183e-07
5.96565e-07
5.49242e-07
5.02862e-07
4.53191e-07
4.25922e-07
3.44957e-07
3.77211e-06
5.3665e-06
7.47683e-06
1.00216e-05
1.28678e-05
1.57941e-05
1.8513e-05
2.07697e-05
2.24385e-05
2.3473e-05
2.38464e-05
2.36773e-05
2.32121e-05
2.27051e-05
2.22908e-05
2.19687e-05
2.16836e-05
2.14036e-05
2.11417e-05
2.09432e-05
2.08639e-05
2.09528e-05
2.12658e-05
2.18438e-05
2.2732e-05
2.39465e-05
2.54736e-05
2.74946e-05
2.98178e-05
3.17439e-05
3.28553e-05
3.32056e-05
3.30343e-05
3.25998e-05
3.22103e-05
3.21316e-05
3.26139e-05
3.36934e-05
3.46176e-05
3.42495e-05
3.22544e-05
2.93707e-05
2.65319e-05
2.4129e-05
2.20993e-05
2.03004e-05
1.86601e-05
1.71521e-05
1.57573e-05
1.44558e-05
1.32303e-05
1.20685e-05
1.09624e-05
9.9077e-06
8.90256e-06
7.94745e-06
7.04448e-06
6.19688e-06
5.4085e-06
4.6832e-06
4.02427e-06
3.43393e-06
2.91293e-06
2.46035e-06
2.07354e-06
1.74832e-06
1.47934e-06
1.26048e-06
1.08538e-06
9.47813e-07
8.41989e-07
7.62678e-07
7.05261e-07
6.65599e-07
6.40007e-07
6.2529e-07
6.18767e-07
6.18126e-07
6.2106e-07
6.2505e-07
6.2803e-07
6.30211e-07
6.35753e-07
6.51117e-07
6.79086e-07
7.14413e-07
7.47335e-07
7.7088e-07
7.83457e-07
7.85313e-07
7.75122e-07
7.50934e-07
7.1361e-07
6.67121e-07
6.16752e-07
5.65923e-07
5.16716e-07
4.6485e-07
4.37203e-07
3.53857e-07
3.71488e-06
5.02875e-06
6.64418e-06
8.49381e-06
1.04998e-05
1.25622e-05
1.45517e-05
1.63087e-05
1.77125e-05
1.87212e-05
1.93902e-05
1.97956e-05
1.9994e-05
2.0027e-05
1.99364e-05
1.9768e-05
1.95645e-05
1.93606e-05
1.91855e-05
1.90711e-05
1.90576e-05
1.91849e-05
1.94986e-05
2.00502e-05
2.08507e-05
2.19122e-05
2.32131e-05
2.4813e-05
2.68504e-05
2.90809e-05
3.09764e-05
3.22295e-05
3.28799e-05
3.31464e-05
3.33337e-05
3.36697e-05
3.42006e-05
3.45329e-05
3.39753e-05
3.22265e-05
2.97243e-05
2.71761e-05
2.49556e-05
2.30495e-05
2.13383e-05
1.97579e-05
1.82905e-05
1.69248e-05
1.56439e-05
1.44307e-05
1.32717e-05
1.21578e-05
1.10842e-05
1.00489e-05
9.05301e-06
8.09922e-06
7.1919e-06
6.33618e-06
5.53743e-06
4.80071e-06
4.13017e-06
3.52863e-06
2.99719e-06
2.53513e-06
2.13988e-06
1.80731e-06
1.53203e-06
1.30791e-06
1.12854e-06
9.87615e-07
8.79271e-07
7.98138e-07
7.39404e-07
6.98712e-07
6.72148e-07
6.56303e-07
6.48315e-07
6.45747e-07
6.46229e-07
6.47199e-07
6.46528e-07
6.44424e-07
6.45391e-07
6.56872e-07
6.82952e-07
7.19166e-07
7.55472e-07
7.84046e-07
8.02364e-07
8.0964e-07
8.03373e-07
7.8067e-07
7.42159e-07
6.92417e-07
6.37802e-07
5.82752e-07
5.29977e-07
4.75063e-07
4.46735e-07
3.59738e-07
3.72129e-06
4.84196e-06
6.1824e-06
7.68919e-06
9.29083e-06
1.09106e-05
1.24694e-05
1.38923e-05
1.51201e-05
1.61246e-05
1.6888e-05
1.74048e-05
1.76983e-05
1.78141e-05
1.78048e-05
1.77193e-05
1.75979e-05
1.74712e-05
1.73645e-05
1.73064e-05
1.73336e-05
1.74835e-05
1.7793e-05
1.83082e-05
1.90475e-05
2.00005e-05
2.11571e-05
2.24825e-05
2.40574e-05
2.59565e-05
2.79881e-05
2.9809e-05
3.12021e-05
3.21687e-05
3.28381e-05
3.32488e-05
3.32702e-05
3.26256e-05
3.11898e-05
2.9218e-05
2.7156e-05
2.52786e-05
2.36011e-05
2.20488e-05
2.05834e-05
1.92032e-05
1.79078e-05
1.66858e-05
1.55211e-05
1.43994e-05
1.33102e-05
1.22475e-05
1.12088e-05
1.01949e-05
9.20941e-06
8.25758e-06
7.34606e-06
6.48197e-06
5.67235e-06
4.92352e-06
4.24061e-06
3.62708e-06
3.08448e-06
2.61232e-06
2.20815e-06
1.86787e-06
1.58608e-06
1.35662e-06
1.17299e-06
1.0288e-06
9.18024e-07
8.3513e-07
7.75106e-07
7.334e-07
7.05909e-07
6.89028e-07
6.79702e-07
6.75326e-07
6.73396e-07
6.71231e-07
6.66554e-07
6.5945e-07
6.54637e-07
6.60626e-07
6.83391e-07
7.19725e-07
7.59362e-07
7.93463e-07
8.18437e-07
8.32356e-07
8.31364e-07
8.11371e-07
7.72557e-07
7.20021e-07
6.61274e-07
6.01935e-07
5.45506e-07
4.87598e-07
4.5865e-07
3.68565e-07
3.64825e-06
4.60595e-06
5.73232e-06
6.9913e-06
8.32818e-06
9.68165e-06
1.09905e-05
1.2202e-05
1.32686e-05
1.41508e-05
1.48335e-05
1.53246e-05
1.56435e-05
1.58155e-05
1.5874e-05
1.5857e-05
1.5799e-05
1.57276e-05
1.56674e-05
1.56467e-05
1.56998e-05
1.58612e-05
1.61631e-05
1.66418e-05
1.73206e-05
1.81879e-05
1.92353e-05
2.04219e-05
2.17168e-05
2.31674e-05
2.4793e-05
2.64652e-05
2.79667e-05
2.91407e-05
2.99279e-05
3.02366e-05
2.99713e-05
2.91295e-05
2.78741e-05
2.6457e-05
2.50515e-05
2.36939e-05
2.23661e-05
2.1069e-05
1.98226e-05
1.86393e-05
1.75153e-05
1.64373e-05
1.53907e-05