/*--------------------------------*- C++ -*----------------------------------*\
  =========                 |
  \\      /  F ield         | OpenFOAM: The Open Source CFD Toolbox
   \\    /   O peration     | Website:  https://openfoam.org
    \\  /    A nd           | Version:  10
     \\/     M anipulation  |
\*---------------------------------------------------------------------------*/
FoamFile
{
    format      ascii;
    class       volScalarField;
    location    "0.075";
    object      p;
}
// * * * * * * * * * * * * * * * * * * * * * * * * * * * * * * * * * * * * * //

dimensions      [0 2 -2 0 0 0 0];

internalField   nonuniform List<scalar> 
6820
(
7.41798
-6.91085
-8.90354
-9.07653
-9.22146
-9.14801
-9.09913
-9.09796
-9.11772
-9.14837
-9.1832
-9.21821
-9.25144
-9.28176
-9.30834
-9.33048
-9.34751
-9.35878
-9.3636
-9.36127
-9.35108
-9.33229
-9.30417
-9.266
-9.21707
-9.15678
-9.08467
-9.00036
-8.90423
-8.79571
-8.67907
-8.54847
-8.42588
2.03965
-6.70883
-8.7094
-8.95576
-9.15256
-9.14259
-9.11495
-9.12014
-9.14008
-9.16799
-9.19969
-9.23196
-9.26299
-9.29165
-9.31706
-9.33841
-9.35497
-9.366
-9.37077
-9.36855
-9.35859
-9.34015
-9.31248
-9.27484
-9.22652
-9.16689
-9.09544
-9.01179
-8.91609
-8.80798
-8.69042
-8.55797
-8.42693
-0.0412992
-5.4978
-7.91742
-8.50194
-8.87371
-9.00658
-9.04106
-9.07343
-9.10937
-9.14733
-9.18621
-9.22402
-9.25931
-9.29121
-9.31905
-9.34228
-9.36037
-9.37273
-9.37877
-9.37785
-9.36931
-9.35248
-9.32668
-9.29125
-9.24555
-9.18902
-9.12123
-9.04188
-8.95101
-8.84854
-8.7353
-8.6093
-8.46685
-1.60949
-5.31552
-7.62171
-8.26489
-8.63832
-8.83475
-8.91979
-8.98456
-9.04399
-9.09759
-9.14684
-9.19215
-9.23347
-9.27064
-9.30328
-9.33104
-9.35352
-9.37028
-9.38085
-9.38473
-9.38139
-9.3703
-9.35096
-9.32286
-9.28561
-9.23886
-9.18247
-9.11646
-9.04118
-8.95733
-8.86554
-8.76882
-8.66176
-2.89528
-5.36035
-7.31515
-7.99191
-8.39409
-8.65689
-8.79647
-8.89262
-8.97255
-9.04047
-9.10031
-9.15422
-9.2026
-9.24576
-9.28397
-9.31712
-9.345
-9.36735
-9.38389
-9.39431
-9.39829
-9.39556
-9.38587
-9.36905
-9.34505
-9.31399
-9.27623
-9.23251
-9.18398
-9.13285
-9.08152
-9.03777
-9.00321
-3.85352
-5.48393
-7.13171
-7.83974
-8.25173
-8.53713
-8.70328
-8.81658
-8.90937
-8.98779
-9.05594
-9.11678
-9.17148
-9.22054
-9.26427
-9.30285
-9.33634
-9.3647
-9.38786
-9.40573
-9.41828
-9.42549
-9.42746
-9.42443
-9.41683
-9.40537
-9.39114
-9.37579
-9.36172
-9.35261
-9.35369
-9.37522
-9.43002
-4.59977
-5.69664
-7.04481
-7.72347
-8.12223
-8.41675
-8.60755
-8.74092
-8.84858
-8.93856
-9.0156
-9.08354
-9.14424
-9.19863
-9.24741
-9.29101
-9.32969
-9.36358
-9.39279
-9.41744
-9.43769
-9.45381
-9.46619
-9.47543
-9.48239
-9.4883
-9.49494
-9.50475
-9.52124
-9.54941
-9.59653
-9.67341
-9.79768
-5.18457
-5.92726
-7.00781
-7.64016
-8.02799
-8.3253
-8.53142
-8.67812
-8.79563
-8.89388
-8.97793
-9.05192
-9.11813
-9.17779
-9.23172
-9.28053
-9.32458
-9.36419
-9.39962
-9.4312
-9.45929
-9.48437
-9.5071
-9.52837
-9.54939
-9.57179
-9.59778
-9.63035
-9.67362
-9.73312
-9.81682
-9.935
-10.1048
-5.6489
-6.15995
-7.01867
-7.5919
-7.95982
-8.2486
-8.46076
-8.6169
-8.74303
-8.8493
-8.94055
-9.02089
-9.09287
-9.15793
-9.21709
-9.2711
-9.32053
-9.36584
-9.40748
-9.44592
-9.4817
-9.51553
-9.54826
-9.58104
-9.61534
-9.6531
-9.69686
-9.7499
-9.81663
-9.9027
-10.0159
-10.1655
-10.3662
-6.02257
-6.38063
-7.05816
-7.56585
-7.91025
-8.1875
-8.40169
-8.56465
-8.69741
-8.80996
-8.90709
-8.99283
-9.0699
-9.13991
-9.20402
-9.2631
-9.31785
-9.36884
-9.41666
-9.46193
-9.50534
-9.54775
-9.59022
-9.63407
-9.68097
-9.73305
-9.793
-9.86423
-9.95113
-10.0591
-10.1952
-10.3673
-10.5873
-6.32685
-6.58296
-7.11668
-7.55979
-7.87851
-8.14102
-8.35209
-8.51793
-8.65492
-8.77231
-8.87458
-8.96542
-9.04748
-9.12245
-9.19156
-9.25576
-9.31584
-9.3725
-9.42644
-9.4784
-9.52922
-9.57989
-9.63158
-9.68576
-9.74422
-9.80917
-9.88334
-9.97008
-10.0735
-10.1986
-10.3515
-10.5383
-10.7687
-6.57725
-6.7646
-7.1857
-7.56799
-7.85962
-8.1058
-8.31094
-8.47749
-8.6174
-8.73867
-8.84535
-8.94072
-9.02735
-9.10695
-9.18079
-9.24988
-9.31511
-9.37727
-9.43714
-9.49557
-9.55348
-9.61195
-9.67228
-9.73597
-9.80487
-9.88118
-9.96756
-10.0671
-10.1837
-10.3214
-10.4855
-10.6808
-10.9144
-6.78507
-6.9253
-7.25911
-7.58666
-7.8514
-8.0808
-8.27801
-8.44301
-8.58414
-8.70798
-8.81811
-8.91742
-9.00823
-9.09222
-9.17063
-9.24452
-9.3148
-9.38233
-9.44796
-9.51259
-9.57722
-9.64301
-9.71126
-9.78353
-9.86162
-9.94766
-10.0441
-10.1539
-10.2802
-10.4266
-10.5972
-10.7956
-11.027
-6.95862
-7.06597
-7.33257
-7.61224
-7.85105
-8.06371
-8.25177
-8.41372
-8.55492
-8.68053
-8.79352
-8.89633
-8.99101
-9.07912
-9.16189
-9.24036
-9.31547
-9.38812
-9.45919
-9.52965
-9.60053
-9.67299
-9.74837
-9.82817
-9.91413
-10.0082
-10.1127
-10.23
-10.363
-10.5145
-10.6877
-10.885
-11.11
-7.10404
-7.18804
-7.40302
-7.64177
-7.8564
-8.05299
-8.23145
-8.3893
-8.5296
-8.65613
-8.77128
-8.87703
-8.97515
-9.06706
-9.15392
-9.23673
-9.31644
-9.39394
-9.47015
-9.54604
-9.62265
-9.70114
-9.78279
-9.86906
-9.96155
-10.0621
-10.1725
-10.2951
-10.4321
-10.5856
-10.758
-10.951
-11.1668
-7.22591
-7.29302
-7.46843
-7.67283
-7.86546
-8.04696
-8.21582
-8.36891
-8.50761
-8.63448
-8.75129
-8.8596
-8.96086
-9.05631
-9.14702
-9.23393
-9.31796
-9.4
-9.48096
-9.5618
-9.64354
-9.72731
-9.81433
-9.90594
-10.0036
-10.1089
-10.2235
-10.3492
-10.4877
-10.6407
-10.8097
-10.9958
-11.2004
-7.32766
-7.38235
-7.52741
-7.70341
-7.87651
-8.04419
-8.20383
-8.35193
-8.48861
-8.61537
-8.73342
-8.8439
-8.94797
-9.04666
-9.14093
-9.23166
-9.31971
-9.40594
-9.49124
-9.57653
-9.6628
-9.75111
-9.84259
-9.93847
-10.04
-10.1487
-10.2657
-10.3926
-10.5306
-10.681
-10.8447
-11.0222
-11.2143
-7.41186
-7.45731
-7.57909
-7.73189
-7.888
-8.04331
-8.1944
-8.33757
-8.47201
-8.59839
-8.71738
-8.82975
-8.93635
-9.03803
-9.1356
-9.22986
-9.32161
-9.41165
-9.50083
-9.59003
-9.68017
-9.77223
-9.86725
-9.96632
-10.0705
-10.1811
-10.299
-10.4254
-10.5613
-10.7073
-10.8642
-11.032
-11.2108
-7.48039
-7.51892
-7.62286
-7.75696
-7.89862
-8.0431
-8.18653
-8.32507
-8.45731
-8.58321
-8.70299
-8.81704
-8.92597
-9.03041
-9.13105
-9.22858
-9.32371
-9.41719
-9.50982
-9.6024
-9.69578
-9.79087
-9.88858
-9.98985
-10.0956
-10.2068
-10.3244
-10.449
-10.5813
-10.7219
-10.8709
-11.0282
-11.1936
-7.53466
-7.56796
-7.65829
-7.77752
-7.90716
-8.04243
-8.17923
-8.31367
-8.4439
-8.56934
-8.68983
-8.80544
-8.9165
-9.02349
-9.12693
-9.22742
-9.32557
-9.42208
-9.51765
-9.61303
-9.709
-9.80634
-9.90586
-10.0084
-10.1146
-10.2254
-10.3414
-10.463
-10.5908
-10.7249
-10.8654
-11.0119
-11.164
-7.57559
-7.60498
-7.68502
-7.79265
-7.91258
-8.04028
-8.1716
-8.30264
-8.43127
-8.55649
-8.67778
-8.79496
-8.90812
-9.01756
-9.12366
-9.2269
-9.32782
-9.42703
-9.52515
-9.62286
-9.72084
-9.81979
-9.9204
-10.0233
-10.1293
-10.2387
-10.3522
-10.4701
-10.5925
-10.7196
-10.8512
-10.9868
-11.1259
-7.60378
-7.63028
-7.70268
-7.80151
-7.9139
-8.03566
-8.16271
-8.29117
-8.4187
-8.54397
-8.6662
-8.78495
-8.90013
-9.01185
-9.12037
-9.22606
-9.32938
-9.43085
-9.53101
-9.63047
-9.72983
-9.82968
-9.93062
-10.0332
-10.1379
-10.2452
-10.3555
-10.4688
-10.5854
-10.7051
-10.8276
-10.9526
-11.0793
-7.61949
-7.64393
-7.71087
-7.80334
-7.91023
-8.02774
-8.15186
-8.27876
-8.40593
-8.53182
-8.65539
-8.776
-8.89338
-9.00747
-9.11842
-9.22649
-9.33206
-9.43555
-9.53746
-9.63829
-9.73857
-9.83883
-9.93954
-10.0412
-10.1441
-10.2487
-10.3551
-10.4635
-10.5739
-10.686
-10.7996
-10.9142
-11.0292
-7.62266
-7.64574
-7.70908
-7.79733
-7.90063
-8.01551
-8.13802
-8.26434
-8.39186
-8.51882
-8.644
-8.76658
-8.88613
-9.00247
-9.11563
-9.2258
-9.33324
-9.43834
-9.54151
-9.64318
-9.74382
-9.84386
-9.94372
-10.0438
-10.1443
-10.2456
-10.3478
-10.4508
-10.5547
-10.6593
-10.7641
-10.8689
-10.9729
-7.61297
-7.6353
-7.69666
-7.78273
-7.88441
-7.99844
-8.12095
-8.2481
-8.37714
-8.50616
-8.63374
-8.75892
-8.88112
-9.00005
-9.11565
-9.228
-9.33732
-9.44393
-9.54817
-9.65043
-9.7511
-9.85057
-9.94919
-10.0473
-10.145
-10.2427
-10.3403
-10.4379
-10.5353
-10.6324
-10.7288
-10.8241
-10.9178
-7.58971
-7.61184
-7.67273
-7.75846
-7.86027
-7.97504
-8.09888
-8.22788
-8.3592
-8.49078
-8.62108
-8.74901
-8.87388
-8.99532
-9.11316
-9.22745
-9.33834
-9.44608
-9.55098
-9.65338
-9.75362
-9.85204
-9.94895
-10.0446
-10.1392
-10.2329
-10.3257
-10.4176
-10.5086
-10.5984
-10.6867
-10.7733
-10.8576
-7.55186
-7.57439
-7.63641
-7.7239
-7.82811
-7.94591
-8.07331
-8.20622
-8.34165
-8.47738
-8.61172
-8.74346
-8.87183
-8.99637
-9.11689
-9.23336
-9.34592
-9.45478
-9.56023
-9.66259
-9.76216
-9.85927
-9.95419
-10.0472
-10.1383
-10.2279
-10.3158
-10.4021
-10.4867
-10.5694
-10.65
-10.7282
-10.8036
-7.49791
-7.52135
-7.58591
-7.67687
-7.78505
-7.90724
-8.03929
-8.17697
-8.31714
-8.45747
-8.59617
-8.73194
-8.86393
-8.99162
-9.11476
-9.23331
-9.34737
-9.45714
-9.56288
-9.6649
-9.7635
-9.85898
-9.9516
-10.0416
-10.1291
-10.2143
-10.2973
-10.378
-10.4564
-10.5323
-10.6056
-10.6762
-10.7436
-7.42596
-7.45121
-7.52062
-7.61821
-7.73393
-7.86422
-8.00454
-8.15026
-8.29799
-8.44524
-8.59013
-8.73131
-8.86791
-8.99942
-9.12561
-9.24644
-9.36205
-9.47264
-9.57851
-9.67997
-9.77733
-9.87091
-9.96097
-10.0478
-10.1315
-10.2122
-10.2901
-10.3652
-10.4374
-10.5067
-10.573
-10.6361
-10.6958
-7.33305
-7.36041
-7.43585
-7.54119
-7.66515
-7.80405
-7.95312
-8.10739
-8.26327
-8.41811
-8.56989
-8.71716
-8.85899
-8.99485
-9.1245
-9.24793
-9.36527
-9.47678
-9.58277
-9.68359
-9.7796
-9.87112
-9.95847
-10.0419
-10.1217
-10.198
-10.2709
-10.3405
-10.4068
-10.4699
-10.5297
-10.5861
-10.6391
-7.21626
-7.24813
-7.33496
-7.45498
-7.59447
-7.74885
-7.91258
-8.08011
-8.24764
-8.41254
-8.57283
-8.72717
-8.87473
-9.01509
-9.14812
-9.27389
-9.39263
-9.50466
-9.61036
-9.71012
-9.80435
-9.89342
-9.97769
-10.0575
-10.133
-10.2045
-10.2722
-10.3362
-10.3966
-10.4533
-10.5065
-10.5561
-10.6021
-7.06892
-7.10373
-7.20065
-7.33337
-7.4864
-7.65543
-7.83431
-8.01659
-8.19795
-8.37541
-8.54676
-8.71053
-8.8659
-9.01249
-9.15026
-9.27939
-9.40025
-9.51327
-9.61894
-9.71778
-9.81027
-9.89689
-9.97805
-10.0541
-10.1255
-10.1924
-10.255
-10.3136
-10.3684
-10.4193
-10.4666
-10.5104
-10.5506
-6.8889
-6.93662
-7.06068
-7.22377
-7.40476
-7.59879
-7.79935
-7.99986
-8.1964
-8.38645
-8.5681
-8.74019
-8.90211
-9.05371
-9.19508
-9.32655
-9.44859
-9.56175
-9.66661
-9.76378
-9.85382
-9.93729
-10.0147
-10.0864
-10.153
-10.2146
-10.2716
-10.3242
-10.3727
-10.4173
-10.458
-10.495
-10.5283
-6.65443
-6.70124
-6.83904
-7.02253
-7.22836
-7.45107
-7.68079
-7.90848
-8.12933
-8.34036
-8.53948
-8.72563
-8.89853
-9.05834
-9.20556
-9.34085
-9.465
-9.57885
-9.68321
-9.77888
-9.8666
-9.94705
-10.0208
-10.0885
-10.1505
-10.2073
-10.2592
-10.3065
-10.3495
-10.3885
-10.4237
-10.4553
-10.4835
-6.38368
-6.47828
-6.68408
-6.92093
-7.16429
-7.41687
-7.67077
-7.91801
-8.15526
-8.38023
-8.5911
-8.78697
-8.96765
-9.13337
-9.28471
-9.42244
-9.54749
-9.66083
-9.76346
-9.85632
-9.94031
-10.0163
-10.0849
-10.1469
-10.2028
-10.2531
-10.2982
-10.3386
-10.3744
-10.4061
-10.4339
-10.458
-10.4789
-5.96634
-6.03494
-6.27142
-6.56545
-6.87619
-7.19667
-7.51025
-7.80703
-8.08433
-8.34049
-8.57479
-8.78777
-8.98053
-9.1544
-9.31083
-9.45134
-9.57736
-9.6903
-9.79143
-9.88196
-9.96295
-10.0354
-10.1
-10.1577
-10.209
-10.2545
-10.2946
-10.3297
-10.3602
-10.3863
-10.4084
-10.427
-10.4427
-5.60733
-5.86047
-6.21813
-6.53904
-6.86152
-7.20014
-7.53148
-7.84676
-8.14419
-8.42021
-8.67249
-8.90071
-9.10545
-9.28785
-9.44949
-9.59218
-9.71775
-9.82802
-9.9247
-10.0094
-10.0834
-10.1481
-10.2045
-10.2535
-10.2959
-10.3324
-10.3635
-10.3895
-10.4106
-10.4273
-10.4395
-10.4479
-10.4525
-4.55755
-4.8241
-5.43595
-5.98361
-6.48734
-6.96599
-7.39509
-7.77705
-8.11932
-8.42465
-8.69603
-8.93681
-9.14992
-9.33794
-9.50329
-9.64817
-9.77467
-9.88473
-9.98017
-10.0626
-10.1337
-10.1946
-10.2467
-10.2908
-10.328
-10.359
-10.3841
-10.4038
-10.4182
-10.4273
-10.4304
-10.4286
-10.4179
-4.61112
-5.17164
-5.61483
-5.98132
-6.45984
-6.9578
-7.42503
-7.86421
-8.26679
-8.62446
-8.93701
-9.20706
-9.43786
-9.63333
-9.79772
-9.93514
-10.0494
-10.144
-10.2219
-10.2857
-10.3378
-10.38
-10.4138
-10.4408
-10.4619
-10.4779
-10.4896
-10.4971
-10.5004
-10.4988
-10.4899
-10.4717
-10.4328
0.326438
-3.36558
-4.69192
-5.36325
-6.1635
-6.84231
-7.38809
-7.86683
-8.28594
-8.64673
-8.95688
-9.22237
-9.44804
-9.63872
-9.79899
-9.93299
-10.0445
-10.1367
-10.2127
-10.2749
-10.3256
-10.3666
-10.3994
-10.4255
-10.4459
-10.4614
-10.4731
-10.4813
-10.4869
-10.4893
-10.491
-10.4874
-10.4882
-8.23943
-7.93569
-8.73254
-10.5489
-13.6148
-17.805
-22.6651
-27.4717
-31.5248
-34.4155
-35.9923
-36.1599
-34.9311
-32.5639
-29.3338
-25.2759
-20.3388
-14.7802
-9.29366
-4.60392
-1.05875
1.31691
2.61031
2.83621
1.91147
-0.277172
-3.88373
-8.84526
-14.7699
-21.0893
-27.298
-33.0621
-38.1462
-42.2995
-45.2125
-46.5576
-46.0849
-43.7224
-39.6859
-34.4517
-28.6698
-22.9667
-17.7821
-13.3459
-9.71793
-6.83964
-4.59652
-2.86873
-1.55294
-0.564611
0.165244
0.692768
1.06324
1.31283
1.47022
1.55807
1.5942
1.59262
1.56427
1.51769
1.45946
1.39461
1.32691
1.25908
1.19298
1.12978
1.07008
1.01407
0.961628
0.912467
0.86617
0.822344
0.780674
0.740916
0.702924
0.66663
0.632008
0.599036
0.56766
0.537773
0.509212
0.48177
0.455228
0.42939
0.404098
0.379245
0.354731
0.330456
0.306282
0.282081
0.257626
0.232889
0.207457
0.181844
0.1547
0.128755
0.0981655
0.075293
0.0342059
0.0299317
-8.21165
-7.87775
-8.67489
-10.5472
-13.4903
-17.3953
-21.8862
-26.3431
-30.1405
-32.8593
-34.3509
-34.559
-33.4875
-31.2602
-28.0556
-23.9837
-19.1812
-14.0144
-9.06725
-4.85559
-1.6285
0.573135
1.77893
2.00156
1.16243
-0.836054
-4.09231
-8.58857
-14.035
-19.9519
-25.855
-31.3757
-36.2392
-40.1831
-42.9152
-44.145
-43.6475
-41.3782
-37.5682
-32.6883
-27.3346
-22.0541
-17.2343
-13.0854
-9.66383
-6.91947
-4.75466
-3.06742
-1.76813
-0.781296
-0.0437859
0.496684
0.882846
1.14923
1.32352
1.42776
1.47944
1.49238
1.47744
1.44309
1.39593
1.34099
1.28205
1.22187
1.16238
1.10481
1.04986
0.997824
0.948676
0.902239
0.858165
0.816173
0.776018
0.737508
0.700538
0.66507
0.631101
0.598627
0.567611
0.537966
0.509552
0.482184
0.455668
0.429827
0.404522
0.379653
0.355118
0.330825
0.306631
0.282411
0.257934
0.233175
0.207714
0.182072
0.154891
0.128913
0.0982912
0.0753644
0.0343383
0.0297935
-8.31204
-8.24052
-9.01347
-10.7592
-13.5632
-17.22
-21.3212
-25.3543
-28.8064
-31.3255
-32.7762
-33.0129
-31.9794
-29.7509
-26.5239
-22.5194
-17.9957
-13.3174
-8.91454
-5.147
-2.2148
-0.181327
0.941028
1.14894
0.387685
-1.4324
-4.37505
-8.43124
-13.3844
-18.8426
-24.371
-29.5933
-34.2044
-37.9268
-40.4765
-41.5929
-41.0809
-38.9313
-35.3893
-30.901
-25.9928
-21.1386
-16.6838
-12.8214
-9.60465
-6.99316
-4.90707
-3.26188
-1.9809
-0.997234
-0.253413
0.299007
0.700185
0.982965
1.17396
1.29456
1.36188
1.3895
1.38815
1.36626
1.33039
1.28557
1.2356
1.18327
1.13057
1.07879
1.02873
0.980774
0.935007
0.891347
0.84958
0.809496
0.770921
0.733723
0.697838
0.663253
0.629986
0.598048
0.567421
0.538037
0.509781
0.482495
0.456011
0.430175
0.404864
0.379987
0.355447
0.331151
0.306955
0.28273
0.258244
0.233472
0.207991
0.182326
0.155114
0.129105
0.0984606
0.0754711
0.034527
0.0296724
-8.59593
-8.6964
-9.5192
-11.2381
-13.847
-17.1949
-20.9343
-24.5901
-27.7249
-30.0435
-31.3053
-31.3721
-30.2045
-27.9184
-24.7547
-20.9901
-16.8917
-12.7414
-8.84348
-5.47296
-2.8118
-0.942607
0.0989796
0.291744
-0.400842
-2.0549
-4.71206
-8.3557
-12.8198
-17.7885
-22.8862
-27.7541
-32.0734
-35.5551
-37.9173
-38.9272
-38.4261
-36.4383
-33.2073
-29.1334
-24.6714
-20.2368
-16.1409
-12.5591
-9.54186
-7.06037
-5.05293
-3.45133
-2.19064
-1.21192
-0.463214
0.100092
0.515546
0.81426
1.02172
1.15862
1.24162
1.28405
1.29648
1.28725
1.26288
1.22839
1.1876
1.14332
1.09759
1.05179
1.00679
0.963065
0.920828
0.880087
0.840737
0.802642
0.765705
0.729854
0.69507
0.661374
0.62881
0.597411
0.567179
0.538068
0.509984
0.482794
0.456356
0.430534
0.405223
0.380341
0.355793
0.331489
0.307285
0.283053
0.258557
0.233771
0.208269
0.182578
0.155332
0.129283
0.0986163
0.0755457
0.0347005
0.0294892
-9.0456
-9.31006
-10.1507
-11.7551
-14.1319
-17.1435
-20.4829
-23.7378
-26.5083
-28.4701
-29.4249
-29.2771
-28.0294
-25.8288
-22.9222
-19.5561
-15.9404
-12.2873
-8.83708
-5.82298
-3.41566
-1.70786
-0.747344
-0.566922
-1.19655
-2.69396
-5.08742
-8.35103
-12.3494
-16.8257
-21.4597
-25.9247
-29.9093
-33.1241
-35.2938
-36.2132
-35.7578
-33.9712
-31.0749
-27.4154
-23.3875
-19.3601
-15.6126
-12.3014
-9.47625
-7.12138
-5.19241
-3.63578
-2.39716
-1.42507
-0.672904
-0.0998088
0.329143
0.643291
0.866951
1.02005
1.11876
1.1761
1.20248
1.20611
1.19345
1.1695
1.13808
1.10204
1.06346
1.02379
0.983989
0.944631
0.906023
0.868281
0.831411
0.795367
0.760123
0.725671
0.692035
0.659272
0.627448
0.596619
0.566807
0.537987
0.510088
0.483004
0.456616
0.430812
0.405504
0.380621
0.356076
0.331779
0.307584
0.28336
0.258867
0.234078
0.208563
0.182851
0.155579
0.129491
0.0988115
0.0756512
0.0349249
0.0293192
-9.57855
-9.95963
-10.7938
-12.2313
-14.2883
-16.8612
-19.7034
-22.4681
-24.7849
-26.3701
-27.0858
-26.8583
-25.7116
-23.78
-21.2542
-18.322
-15.1556
-11.9389
-8.8821
-6.19022
-4.02056
-2.46844
-1.58873
-1.41921
-1.98992
-3.34153
-5.4907
-8.40691
-11.9732
-15.9765
-20.1427
-24.1803
-27.8002
-30.7274
-32.7052
-33.5545
-33.1718
-31.6019
-29.036
-25.7722
-22.1579
-18.5205
-15.1051
-12.0506
-9.40836
-7.17623
-5.32536
-3.81495
-2.60011
-1.63635
-0.882157
-0.300403
0.141229
0.470276
0.709826
0.878993
0.993415
1.06577
1.10623
1.1229
1.12215
1.10895
1.0871
1.05949
1.02824
0.99486
0.960405
0.925548
0.890698
0.856075
0.821782
0.787868
0.754377
0.721362
0.688899
0.657082
0.626008
0.595756
0.566372
0.537853
0.510151
0.483186
0.456861
0.431087
0.405794
0.380912
0.356368
0.332075
0.307887
0.28367
0.259181
0.234389
0.208862
0.183127
0.155827
0.129691
0.0989989
0.0757307
0.0351389
0.0290923
-10.0244
-10.4765
-11.2923
-12.5718
-14.32
-16.4529
-18.7822
-21.0349
-22.9239
-24.2443
-24.8326
-24.6361
-23.6698
-22.0248
-19.8456
-17.288
-14.507
-11.6703
-8.96348
-6.56528
-4.6176
-3.21398
-2.41348
-2.256
-2.7707
-3.98801
-5.91262
-8.51144
-11.6815
-15.243
-18.9607
-22.5764
-25.828
-28.4647
-30.2568
-31.0475
-30.7402
-29.3744
-27.1144
-24.2201
-20.9962
-17.7265
-14.6221
-11.8076
-9.33842
-7.22513
-5.45191
-3.98879
-2.79932
-1.8455
-1.09071
-0.50144
-0.0479673
0.295411
0.550517
0.735596
0.865709
0.953148
1.00784
1.03772
1.04906
1.0468
1.03471
1.01571
0.991946
0.96502
0.936051
0.905815
0.874824
0.8434
0.811752
0.780021
0.748329
0.716792
0.685539
0.654701
0.624404
0.594754
0.565818
0.537616
0.510125
0.483286
0.457029
0.431287
0.406006
0.38113
0.356598
0.332323
0.308155
0.28396
0.259489
0.234705
0.209176
0.183423
0.156101
0.129919
0.0992229
0.0758379
0.0354
0.0288757
-10.3797
-10.8665
-11.6489
-12.7895
-14.2841
-16.0615
-17.9748
-19.8211
-21.3847
-22.4793
-22.9637
-22.786
-21.9539
-20.5348
-18.6413
-16.4039
-13.9609
-11.4626
-9.07072
-6.94028
-5.19852
-3.93522
-3.21091
-3.06681
-3.5293
-4.62276
-6.34299
-8.65362
-11.463
-14.6176
-17.9165
-21.1331
-24.0329
-26.3917
-28.0053
-28.7332
-28.4876
-27.3034
-25.3237
-22.7738
-19.914
-16.9838
-14.1648
-11.5724
-9.2667
-7.26843
-5.57224
-4.15729
-2.99464
-2.0523
-1.29832
-0.702672
-0.238218
0.118903
0.389202
0.590017
0.735781
0.838362
0.907402
0.950652
0.974277
0.983131
0.980991
0.970766
0.954664
0.934334
0.910987
0.885494
0.85847
0.830344
0.801425
0.771945
0.742103
0.712082
0.682063
0.65222
0.622712
0.593672
0.565192
0.537318
0.510048
0.483349
0.457172
0.431471
0.406211
0.381348
0.356828
0.332568
0.308423
0.284251
0.2598
0.235028
0.209497
0.183726
0.156381
0.130145
0.099444
0.0759239
0.0356547
0.0286059
-10.6705
-11.169
-11.9081
-12.926
-14.213
-15.709
-17.2975
-18.8193
-20.1005
-20.9889
-21.3729
-21.203
-20.4787
-19.2478
-17.5987
-15.6419
-13.4995
-11.3039
-9.1952
-7.3082
-5.75669
-4.62531
-3.97373
-3.84342
-4.25797
-5.23697
-6.7715
-8.82246
-11.3066
-14.0911
-17.0034
-19.8475
-22.417
-24.5126
-25.9523
-26.6118
-26.4171
-25.3986
-23.6786
-21.446
-18.917
-16.2928
-13.7324
-11.3449
-9.19363
-7.30664
-5.68667
-4.32054
-3.186
-2.2566
-1.50478
-0.903891
-0.429316
-0.0590569
0.226059
0.442414
0.603774
0.721544
0.805046
0.861821
0.897897
0.918052
0.926032
0.924753
0.91646
0.902867
0.885265
0.864622
0.841656
0.816902
0.790772
0.76359
0.735637
0.707164
0.678406
0.649581
0.620882
0.59247
0.564463
0.536929
0.50989
0.483336
0.457243
0.431586
0.406346
0.381498
0.356997
0.332765
0.308654
0.284521
0.260104
0.235355
0.209834
0.18405
0.156688
0.130397
0.0997006
0.0760364
0.0359544
0.0283443
-10.9062
-11.3997
-12.0886
-12.9941
-14.1029
-15.3641
-16.684
-17.9353
-18.9821
-19.7031
-20.0049
-19.8393
-19.2017
-18.1288
-16.6917
-14.9833
-13.1089
-11.184
-9.32983
-7.66382
-6.28741
-5.27922
-4.69654
-4.57977
-4.95056
-5.82411
-7.18936
-9.00678
-11.1999
-13.652
-16.2135
-18.7147
-20.9762
-22.8237
-24.0986
-24.6926
-24.5443
-23.6775
-22.1916
-20.2408
-18.0033
-15.6502
-13.3232
-11.125
-9.11987
-7.34041
-5.79561
-4.47872
-3.37342
-2.45831
-1.70995
-1.10491
-0.621074
-0.238285
0.0612596
0.292951
0.469845
0.60284
0.700911
0.771357
0.820051
0.851678
0.869945
0.87777
0.87743
0.870702
0.85896
0.843268
0.824448
0.803143
0.779865
0.755032
0.729008
0.702111
0.674635
0.646841
0.61896
0.591184
0.563658
0.536472
0.509674
0.483278
0.457279
0.431676
0.406464
0.381636
0.357155
0.332952
0.308878
0.284786
0.260409
0.235689
0.210181
0.184384
0.157005
0.130652
0.099958
0.0761311
0.0362508
0.0280319
-11.0913
-11.5688
-12.2042
-13.0071
-13.962
-15.0258
-16.1228
-17.1526
-18.0073
-18.5876
-18.8165
-18.6523
-18.0891
-17.1539
-15.9034
-14.4146
-12.7783
-11.0946
-9.46879
-8.00285
-6.78685
-5.89288
-5.37486
-5.27119
-5.60207
-6.379
-7.58989
-9.19671
-11.1298
-13.286
-15.5346
-17.7277
-19.71
-21.3313
-22.4567
-22.9908
-22.881
-22.1439
-20.8583
-19.1492
-17.1646
-15.0516
-12.936
-10.9132
-9.04627
-7.37048
-5.89954
-4.63208
-3.55699
-2.6574
-1.91372
-1.30561
-0.813341
-0.41862
-0.105031
0.141792
0.334153
0.482411
0.595153
0.679412
0.740884
0.784147
0.812861
0.829934
0.837681
0.837935
0.832155
0.821501
0.8069
0.789102
0.768723
0.746276
0.722208
0.696909
0.670732
0.643984
0.616934
0.589804
0.562768
0.53594
0.50939
0.483154
0.457251
0.4317
0.406517
0.38171
0.357256
0.33309
0.309065
0.28503
0.260708
0.236029
0.210544
0.184741
0.15735
0.130935
0.100252
0.0762526
0.0365923
0.0277269
-11.2325
-11.6866
-12.2673
-12.9768
-13.7986
-14.696
-15.6079
-16.4544
-17.1493
-17.6127
-17.7821
-17.6211
-17.1223
-16.306
-15.2179
-13.9225
-12.4973
-11.0286
-9.60725
-8.32193
-7.25218
-6.46339
-6.00551
-5.91438
-6.20884
-6.89748
-7.96796
-9.38454
-11.0846
-12.9773
-14.9484
-16.869
-18.6043
-20.025
-21.0157
-21.492
-21.4092
-20.7776
-19.6595
-18.1565
-16.3924
-14.4933
-12.5701
-10.7101
-8.97374
-7.39762
-5.99903
-4.78101
-3.7369
-2.85395
-2.11609
-1.5059
-1.006
-0.599926
-0.272661
-0.010902
0.196869
0.360428
0.487945
0.586158
0.660564
0.715623
0.754931
0.78139
0.797342
0.804682
0.804952
0.799409
0.789089
0.774848
0.757406
0.737375
0.715285
0.691601
0.666731
0.641035
0.61482
0.588341
0.561801
0.535338
0.509044
0.482978
0.457182
0.431692
0.406543
0.38176
0.357334
0.333208
0.309237
0.285264
0.261006
0.236375
0.210921
0.185112
0.157709
0.131222
0.100549
0.0763583
0.0369323
0.0273714
-11.3348
-11.7608
-12.2877
-12.9126
-13.6193
-14.3764
-15.1342
-15.8291
-16.3923
-16.7596
-16.8797
-16.7219
-16.2789
-15.5662
-14.6207
-13.496
-12.2577
-10.9802
-9.74147
-8.61858
-7.68146
-6.98885
-6.58642
-6.5071
-6.7684
-7.37663
-8.31973
-9.56463
-11.0555
-12.7126
-14.4366
-16.1154
-17.6321
-18.8737
-19.742
-20.163
-20.098
-19.5526
-18.5758
-17.2508
-15.6809
-13.9734
-12.2256
-10.5164
-8.90317
-7.42268
-6.09475
-4.92596
-3.91344
-3.0481
-2.3171
-1.70576
-1.19898
-0.782096
-0.441498
-0.164975
0.0581627
0.237076
0.37948
0.49179
0.579286
0.64629
0.696333
0.732301
0.756563
0.771077
0.777469
0.777096
0.771101
0.760452
0.745975
0.728379
0.70828
0.686217
0.662662
0.638023
0.612646
0.58682
0.560779
0.534683
0.508646
0.482751
0.457059
0.431627
0.40651
0.381752
0.357358
0.333278
0.309373
0.285477
0.261297
0.23673
0.211317
0.185509
0.158101
0.131542
0.100885
0.0764934
0.03732
0.027024
-11.4035
-11.7989
-12.2738
-12.8225
-13.4295
-14.0679
-14.6973
-15.2668
-15.7215
-16.0097
-16.0901
-15.937
-15.5434
-14.9213
-14.1005
-13.1257
-12.0526
-10.9444
-9.86835
-8.89099
-8.07353
-7.4683
-7.11655
-7.04817
-7.2793
-7.8145
-8.64235
-9.73265
-11.0358
-12.4821
-13.9853
-15.4482
-16.7695
-17.8511
-18.6087
-18.9779
-18.9243
-18.4503
-17.5944
-16.4243
-15.0259
-13.4903
-11.9023
-10.3329
-8.83547
-7.44655
-6.18746
-5.06751
-4.08703
-3.24013
-2.5169
-1.90527
-1.39229
-0.965068
-0.611433
-0.320283
-0.0817896
0.112551
0.269968
0.396527
0.497268
0.576366
0.637273
0.682859
0.71552
0.737277
0.749841
0.754674
0.75303
0.745989
0.734484
0.719325
0.701215
0.680769
0.658523
0.634934
0.610391
0.585216
0.559677
0.533953
0.508182
0.482466
0.456888
0.431522
0.406443
0.381712
0.35735
0.33332
0.309485
0.285676
0.261586
0.237093
0.211729
0.185924
0.158508
0.131869
0.101226
0.0766126
0.0377067
0.0266242
-11.4433
-11.8071
-12.2327
-12.7131
-13.2337
-13.7717
-14.2941
-14.7599
-15.1255
-15.3493
-15.3981
-15.2506
-14.9008
-14.3579
-13.6465
-12.8034
-11.8757
-10.9173
-9.98568
-9.13811
-8.42801
-7.90159
-7.59577
-7.53734
-7.74108
-8.21013
-8.93399
-9.88542
-11.0205
-12.2785
-13.5847
-14.855
-16.0019
-16.9406
-17.5983
-17.9189
-17.8721
-17.4576
-16.7055
-15.6704
-14.4237
-13.0424
-11.6
-10.1599
-8.77157
-7.4702
-6.27801
-5.20636
-4.2582
-3.4304
-2.71575
-2.10456
-1.58597
-1.14883
-0.782389
-0.476692
-0.222812
-0.0129361
0.159644
0.300617
0.414764
0.506097
0.577988
0.633285
0.674415
0.703463
0.722232
0.732291
0.735008
0.731577
0.723042
0.710314
0.694187
0.675349
0.654402
0.631855
0.608139
0.583605
0.558564
0.533205
0.507693
0.48215
0.456678
0.431371
0.406323
0.381617
0.357289
0.333314
0.309561
0.285853
0.261871
0.237468
0.212168
0.186372
0.158956
0.132235
0.101612
0.0767664
0.0381467
0.0262354
-11.4583
-11.7906
-12.1702
-12.5896
-13.0355
-13.4885
-13.9216
-14.3019
-14.5944
-14.7661
-14.7902
-14.6495
-14.3388
-13.8656
-13.2498
-12.5221
-11.7222
-10.8957
-10.0917
-9.35938
-8.74505
-8.28922
-8.02464
-7.97508
-8.15391
-8.56325
-9.19352
-10.0205
-11.0054
-12.0957
-13.2265
-14.3254
-15.3168
-16.1279
-16.6956
-16.9712
-16.9278
-16.5632
-15.9003
-14.9832
-13.8709
-12.6282
-11.3186
-9.99829
-8.71244
-7.49467
-6.36737
-5.34333
-4.4276
-3.61945
-2.91403
-2.3039
-1.78018
-1.33343
-0.954324
-0.634089
-0.364728
-0.139162
0.0487655
0.204337
0.332059
0.43577
0.518753
0.583837
0.633481
0.669841
0.694815
0.710085
0.717138
0.717286
0.711687
0.701355
0.687174
0.669915
0.650242
0.628716
0.605811
0.581909
0.557365
0.532376
0.507131
0.481772
0.456416
0.431176
0.406164
0.381483
0.357188
0.333271
0.309605
0.28601
0.262152
0.237853
0.212625
0.186842
0.159423
0.132608
0.102003
0.0769019
0.0385844
0.0257895
-11.4529
-11.7545
-12.0916
-12.4569
-12.8382
-13.2193
-13.5779
-13.8876
-14.1205
-14.2502
-14.2555
-14.1224
-13.8467
-13.4346
-12.9023
-12.2756
-11.5876
-10.877
-10.1853
-9.55481
-9.02539
-8.63235
-8.40444
-8.36261
-8.5187
-8.87433
-9.42067
-10.1364
-10.9876
-11.9286
-12.9037
-13.8504
-14.7036
-15.401
-15.8879
-16.1222
-16.0797
-15.7568
-15.1708
-14.3572
-13.3642
-12.2463
-11.058
-9.84854
-8.65907
-7.52106
-6.45661
-5.47938
-4.59607
-3.80793
-3.11226
-2.50366
-1.97515
-1.51898
-1.12725
-0.792382
-0.507365
-0.265888
-0.0623839
0.108001
0.249477
0.365704
0.459875
0.534803
0.592986
0.636655
0.667816
0.688266
0.699617
0.703306
0.700604
0.692631
0.680364
0.664652
0.646223
0.625693
0.603577
0.580279
0.556219
0.531579
0.506582
0.481389
0.456135
0.430948
0.405962
0.381298
0.357035
0.333178
0.309611
0.286146
0.262432
0.238257
0.213118
0.187355
0.159939
0.133029
0.102447
0.0770796
0.0390843
0.0253598
-11.4301
-11.7024
-12.0007
-12.318
-12.6437
-12.9639
-13.2604
-13.512
-13.6964
-13.7928
-13.784
-13.6592
-13.415
-13.0565
-12.5972
-12.0585
-11.4682
-10.8588
-10.2657
-9.72467
-9.27009
-8.93246
-8.73684
-8.70154
-8.83688
-9.14425
-9.61553
-10.2321
-10.9644
-11.773
-12.6101
-13.4218
-14.1527
-14.749
-15.1637
-15.3602
-15.317
-15.0294
-14.5102
-13.7875
-12.9007
-11.8954
-10.8179
-9.71131
-8.61248
-7.55057
-6.54692
-5.61563
-4.76459
-3.9967
-3.31112
-2.70437
-2.17126
-1.70569
-1.30122
-0.951506
-0.650551
-0.392858
-0.173485
0.0119661
0.167398
0.296282
0.401724
0.486526
0.553233
0.604166
0.641441
0.666986
0.682543
0.689678
0.689783
0.684086
0.673658
0.659429
0.642193
0.622618
0.601265
0.578548
0.554975
0.530688
0.505951
0.480938
0.455798
0.430674
0.405717
0.38107
0.356835
0.333039
0.309577
0.286256
0.262706
0.238673
0.213636
0.187895
0.160479
0.133459
0.102894
0.077234
0.0395784
0.0248656
-11.3939
-11.6385
-11.9016
-12.1767
-12.4544
-12.7232
-12.968
-13.1718
-13.3169
-13.3867
-13.3679
-13.2517
-13.0357
-12.7242
-12.3285
-11.8664
-11.361
-10.8398
-10.3326
-9.86977
-9.48071
-9.1916
-9.02413
-8.99415
-9.1106
-9.37465
-9.77901
-10.3074
-10.9343
-11.6259
-12.3409
-13.0335
-13.6561
-14.1629
-14.5132
-14.6756
-14.6307
-14.3731
-13.912
-13.2695
-12.4777
-11.5742
-10.5982
-9.5872
-8.57373
-7.58447
-6.63965
-5.75338
-4.93435
-4.1868
-3.5115
-2.90672
-2.369
-1.89387
-1.47637
-1.11143
-0.794119
-0.5198
-0.284194
-0.0833782
0.0862286
0.22791
0.344693
0.43938
0.514577
0.572706
0.616011
0.646556
0.666223
0.676712
0.679539
0.676039
0.667381
0.654574
0.638474
0.619807
0.599176
0.577115
0.553873
0.529899
0.505388
0.480525
0.455471
0.430387
0.40544
0.380797
0.356583
0.332848
0.309502
0.286346
0.262985
0.23912
0.214203
0.188492
0.161081
0.133947
0.103406
0.0774411
0.0401473
0.0243954
-11.3461
-11.565
-11.7964
-12.0344
-12.2709
-12.4962
-12.6981
-12.8627
-12.9761
-13.0251
-12.9993
-12.892
-12.7013
-12.431
-12.0906
-11.6948
-11.2631
-10.8183
-10.3857
-9.99085
-9.65875
-9.41178
-9.26855
-9.2427
-9.34191
-9.56712
-9.9119
-10.3621
-10.8959
-11.484
-12.0915
-12.6791
-13.2064
-13.6342
-13.9276
-14.0594
-14.0123
-13.7806
-13.3705
-12.7992
-12.0925
-11.2814
-10.3989
-9.47683
-8.54391
-7.62412
-6.73629
-5.89413
-5.10678
-4.3795
-3.71449
-3.11159
-2.56903
-2.08396
-1.65291
-1.27216
-0.937901
-0.646407
-0.394095
-0.177547
0.00648975
0.161114
0.289283
0.393818
0.477404
0.542585
0.591748
0.627108
0.650699
0.664363
0.669747
0.668298
0.661284
0.649793