/*--------------------------------*- C++ -*----------------------------------*\
  =========                 |
  \\      /  F ield         | OpenFOAM: The Open Source CFD Toolbox
   \\    /   O peration     | Website:  https://openfoam.org
    \\  /    A nd           | Version:  10
     \\/     M anipulation  |
\*---------------------------------------------------------------------------*/
FoamFile
{
    format      ascii;
    class       surfaceScalarField;
    location    "0.075";
    object      phi;
}
// * * * * * * * * * * * * * * * * * * * * * * * * * * * * * * * * * * * * * //

dimensions      [0 3 -1 0 0 0 0];

internalField   nonuniform List<scalar> 
13452
(
4.01891e-05
2.00794e-05
2.59249e-05
1.42641e-05
1.85129e-05
7.41206e-06
1.51305e-05
3.38241e-06
1.37042e-05
1.42623e-06
1.29825e-05
7.21713e-07
1.25129e-05
4.69576e-07
1.21433e-05
3.69591e-07
1.18237e-05
3.19644e-07
1.15415e-05
2.82149e-07
1.12921e-05
2.49424e-07
1.10709e-05
2.21231e-07
1.08729e-05
1.97957e-07
1.06933e-05
1.79657e-07
1.05273e-05
1.66019e-07
1.03706e-05
1.56613e-07
1.02196e-05
1.51061e-07
1.00705e-05
1.49097e-07
9.91991e-06
1.5058e-07
9.76441e-06
1.55496e-07
9.60047e-06
1.63943e-07
9.42434e-06
1.76127e-07
9.232e-06
1.92346e-07
9.019e-06
2.12995e-07
8.78046e-06
2.38538e-07
8.51089e-06
2.69569e-07
8.20433e-06
3.06565e-07
7.85375e-06
3.50577e-07
7.45279e-06
4.00964e-07
6.99173e-06
4.61061e-07
6.46982e-06
5.21909e-07
5.87431e-06
5.95507e-07
6.04762e-07
5.26955e-06
6.59004e-05
1.61694e-05
6.18868e-05
1.82777e-05
5.56142e-05
1.36846e-05
4.97314e-05
9.26523e-06
4.52193e-05
5.93828e-06
4.19885e-05
3.95251e-06
3.96618e-05
2.79633e-06
3.79395e-05
2.09191e-06
3.66155e-05
1.64365e-06
3.5558e-05
1.33961e-06
3.46859e-05
1.12152e-06
3.39477e-05
9.59385e-07
3.33094e-05
8.36252e-07
3.27473e-05
7.4184e-07
3.22438e-05
6.69503e-07
3.17856e-05
6.14807e-07
3.13619e-05
5.7477e-07
3.09635e-05
5.47427e-07
3.05826e-05
5.31555e-07
3.02116e-05
5.26494e-07
2.98435e-05
5.32028e-07
2.94713e-05
5.48313e-07
2.90878e-05
5.75839e-07
2.86854e-05
6.15401e-07
2.82559e-05
6.68084e-07
2.77901e-05
7.35312e-07
2.7278e-05
8.18674e-07
2.67081e-05
9.20527e-07
2.60669e-05
1.04208e-06
2.53396e-05
1.18844e-06
2.45063e-05
1.35516e-06
2.35522e-05
1.54963e-06
1.79851e-06
2.23584e-05
6.91806e-05
1.07502e-05
7.25029e-05
1.49555e-05
7.30472e-05
1.31403e-05
7.16583e-05
1.06541e-05
6.93938e-05
8.20279e-06
6.69911e-05
6.35523e-06
6.47338e-05
5.05361e-06
6.27128e-05
4.11289e-06
6.09385e-05
3.41799e-06
5.93883e-05
2.88984e-06
5.80323e-05
2.47749e-06
5.68416e-05
2.15012e-06
5.579e-05
1.88785e-06
5.48548e-05
1.67697e-06
5.40167e-05
1.50764e-06
5.32588e-05
1.37274e-06
5.25665e-05
1.26707e-06
5.1927e-05
1.18691e-06
5.13289e-05
1.12966e-06
5.07617e-05
1.09365e-06
5.02158e-05
1.07798e-06
4.96817e-05
1.08239e-06
4.91503e-05
1.10726e-06
4.86122e-05
1.1535e-06
4.80577e-05
1.22258e-06
4.74764e-05
1.3166e-06
4.68569e-05
1.43817e-06
4.61866e-05
1.59087e-06
4.54503e-05
1.77832e-06
4.46315e-05
2.00726e-06
4.37051e-05
2.2816e-06
4.26409e-05
2.61382e-06
3.0459e-06
4.13935e-05
6.88449e-05
7.48835e-06
7.21578e-05
1.16426e-05
7.45291e-05
1.07689e-05
7.59329e-05
9.25037e-06
7.65004e-05
7.63531e-06
7.65477e-05
6.30792e-06
7.62823e-05
5.31896e-06
7.58297e-05
4.56552e-06
7.52702e-05
3.97745e-06
7.46524e-05
3.50761e-06
7.40066e-05
3.12333e-06
7.33525e-05
2.80424e-06
7.27035e-05
2.53686e-06
7.20682e-05
2.31226e-06
7.14512e-05
2.1246e-06
7.08545e-05
1.96947e-06
7.0278e-05
1.84359e-06
6.97203e-05
1.74463e-06
6.91788e-05
1.67108e-06
6.86504e-05
1.62211e-06
6.81308e-05
1.59752e-06
6.76155e-05
1.59773e-06
6.7099e-05
1.62374e-06
6.65754e-05
1.67714e-06
6.60377e-05
1.7602e-06
6.54785e-05
1.87587e-06
6.48887e-05
2.02791e-06
6.42585e-05
2.22113e-06
6.35754e-05
2.46136e-06
6.2826e-05
2.75672e-06
6.19898e-05
3.11774e-06
6.10459e-05
3.5577e-06
4.12117e-06
5.99707e-05
6.95576e-05
5.38751e-06
7.18314e-05
9.3688e-06
7.35294e-05
9.07095e-06
7.47957e-05
7.98409e-06
7.56832e-05
6.74779e-06
7.63288e-05
5.66235e-06
7.68178e-05
4.82995e-06
7.71914e-05
4.19195e-06
7.7477e-05
3.69183e-06
7.76926e-05
3.292e-06
7.78505e-05
2.9654e-06
7.79601e-05
2.69466e-06
7.80278e-05
2.46916e-06
7.80587e-05
2.28133e-06
7.80579e-05
2.12541e-06
7.80297e-05
1.99765e-06
7.79777e-05
1.89562e-06
7.79045e-05
1.81779e-06
7.78122e-05
1.76339e-06
7.77021e-05
1.73227e-06
7.75747e-05
1.72491e-06
7.74301e-05
1.74234e-06
7.72676e-05
1.78617e-06
7.70861e-05
1.85864e-06
7.68837e-05
1.96265e-06
7.66577e-05
2.10184e-06
7.64048e-05
2.28079e-06
7.61209e-05
2.50511e-06
7.58003e-05
2.78193e-06
7.54372e-05
3.11976e-06
7.50234e-05
3.5316e-06
7.45515e-05
4.02962e-06
4.64793e-06
7.40247e-05
7.08391e-05
3.93247e-06
7.26232e-05
7.5847e-06
7.39257e-05
7.76843e-06
7.4851e-05
7.05881e-06
7.54757e-05
6.12302e-06
7.59195e-05
5.21861e-06
7.62692e-05
4.48018e-06
7.65653e-05
3.89586e-06
7.6828e-05
3.4292e-06
7.70669e-05
3.05311e-06
7.72861e-05
2.74617e-06
7.74879e-05
2.49282e-06
7.76744e-05
2.28269e-06
7.7847e-05
2.10873e-06
7.80065e-05
1.96592e-06
7.81535e-05
1.85064e-06
7.82887e-05
1.76046e-06
7.84126e-05
1.69382e-06
7.85261e-05
1.64991e-06
7.86298e-05
1.62856e-06
7.87245e-05
1.63017e-06
7.88112e-05
1.65573e-06
7.88906e-05
1.70677e-06
7.89638e-05
1.78541e-06
7.9032e-05
1.89441e-06
7.90966e-05
2.03723e-06
7.91592e-05
2.21819e-06
7.92218e-05
2.44252e-06
7.92869e-05
2.71685e-06
7.93578e-05
3.04884e-06
7.944e-05
3.44945e-06
7.95414e-05
3.92816e-06
4.50118e-06
7.96882e-05
7.23878e-05
2.91106e-06
7.38372e-05
6.13529e-06
7.49609e-05
6.64472e-06
7.5774e-05
6.24563e-06
7.63263e-05
5.57082e-06
7.67013e-05
4.84352e-06
7.69757e-05
4.20579e-06
7.71916e-05
3.68e-06
7.73724e-05
3.24842e-06
7.75314e-05
2.89404e-06
7.76759e-05
2.60176e-06
7.78094e-05
2.35932e-06
7.79341e-05
2.15793e-06
7.80515e-05
1.99134e-06
7.81624e-05
1.855e-06
7.82675e-05
1.74559e-06
7.83672e-05
1.6608e-06
7.84619e-05
1.59911e-06
7.85521e-05
1.55967e-06
7.86385e-05
1.5422e-06
7.87217e-05
1.54694e-06
7.88028e-05
1.57465e-06
7.8883e-05
1.62654e-06
7.89641e-05
1.70432e-06
7.90483e-05
1.81022e-06
7.91386e-05
1.94698e-06
7.92388e-05
2.11795e-06
7.93543e-05
2.32705e-06
7.94921e-05
2.57903e-06
7.96619e-05
2.87898e-06
7.98782e-05
3.23317e-06
8.01595e-05
3.6469e-06
4.12194e-06
8.05387e-05
7.41242e-05
2.19212e-06
7.52887e-05
4.97076e-06
7.62661e-05
5.66734e-06
7.70128e-05
5.49896e-06
7.75517e-05
5.03185e-06
7.79325e-05
4.4628e-06
7.82126e-05
3.92564e-06
7.84296e-05
3.46299e-06
7.8606e-05
3.07208e-06
7.87557e-05
2.74434e-06
7.8887e-05
2.47043e-06
7.90048e-05
2.24151e-06
7.91121e-05
2.05061e-06
7.92109e-05
1.89252e-06
7.93026e-05
1.76333e-06
7.93881e-05
1.66012e-06
7.94681e-05
1.58077e-06
7.95433e-05
1.52388e-06
7.96144e-05
1.48861e-06
7.96819e-05
1.47463e-06
7.97468e-05
1.48206e-06
7.981e-05
1.51147e-06
7.98728e-05
1.56377e-06
7.99368e-05
1.6403e-06
8.00043e-05
1.74272e-06
8.00782e-05
1.87305e-06
8.01625e-05
2.03364e-06
8.02625e-05
2.22705e-06
8.03855e-05
2.45606e-06
8.05413e-05
2.7232e-06
8.0744e-05
3.0305e-06
8.10121e-05
3.37877e-06
3.76187e-06
8.13722e-05
7.60157e-05
1.67892e-06
7.69492e-05
4.03719e-06
7.77936e-05
4.82299e-06
7.84692e-05
4.82332e-06
7.89827e-05
4.51835e-06
7.93627e-05
4.08287e-06
7.96512e-05
3.63712e-06
7.98796e-05
3.23463e-06
8.00673e-05
2.8843e-06
8.02273e-05
2.58439e-06
8.03674e-05
2.3303e-06
8.04927e-05
2.1162e-06
8.06065e-05
1.93687e-06
8.07109e-05
1.78814e-06
8.08075e-05
1.66672e-06
8.08975e-05
1.57008e-06
8.09819e-05
1.49635e-06
8.10616e-05
1.44423e-06
8.11373e-05
1.41291e-06
8.12099e-05
1.402e-06
8.12805e-05
1.41152e-06
8.13501e-05
1.44179e-06
8.14204e-05
1.49348e-06
8.14932e-05
1.56749e-06
8.1571e-05
1.66496e-06
8.16568e-05
1.78721e-06
8.17549e-05
1.93561e-06
8.18704e-05
2.1115e-06
8.20106e-05
2.31593e-06
8.21844e-05
2.54933e-06
8.24042e-05
2.81074e-06
8.26853e-05
3.09764e-06
3.40078e-06
8.30464e-05
7.80319e-05
1.30657e-06
7.87802e-05
3.28895e-06
7.95073e-05
4.09588e-06
8.01163e-05
4.21431e-06
8.06009e-05
4.03375e-06
8.09749e-05
3.70885e-06
8.12672e-05
3.34484e-06
8.15028e-05
2.99899e-06
8.16988e-05
2.68835e-06
8.18667e-05
2.41649e-06
8.20143e-05
2.18266e-06
8.21468e-05
1.98376e-06
8.22674e-05
1.81622e-06
8.23786e-05
1.67691e-06
8.24821e-05
1.56319e-06
8.25793e-05
1.47293e-06
8.26712e-05
1.40447e-06
8.27588e-05
1.35662e-06
8.28431e-05
1.32858e-06
8.29252e-05
1.31989e-06
8.30064e-05
1.3304e-06
8.30879e-05
1.36024e-06
8.31717e-05
1.40972e-06
8.32598e-05
1.47934e-06
8.33551e-05
1.56968e-06
8.3461e-05
1.68135e-06
8.35817e-05
1.81483e-06
8.37229e-05
1.97032e-06
8.38914e-05
2.14742e-06
8.40959e-05
2.34487e-06
8.43469e-05
2.5597e-06
8.46573e-05
2.78726e-06
3.01743e-06
8.50407e-05
8.01536e-05
1.0313e-06
8.0755e-05
2.68752e-06
8.13806e-05
3.47028e-06
8.19288e-05
3.6661e-06
8.23833e-05
3.57923e-06
8.27478e-05
3.34439e-06
8.30406e-05
3.05198e-06
8.32814e-05
2.75825e-06
8.34843e-05
2.48538e-06
8.36598e-05
2.24103e-06
8.3815e-05
2.02748e-06
8.39548e-05
1.84393e-06
8.40827e-05
1.68836e-06
8.4201e-05
1.55856e-06
8.43117e-05
1.45252e-06
8.44162e-05
1.36847e-06
8.45157e-05
1.30498e-06
8.46113e-05
1.26095e-06
8.47043e-05
1.23557e-06
8.47959e-05
1.22829e-06
8.48875e-05
1.23882e-06
8.49807e-05
1.26702e-06
8.50775e-05
1.31289e-06
8.51804e-05
1.37651e-06
8.52921e-05
1.45792e-06
8.54164e-05
1.55705e-06
8.55577e-05
1.67357e-06
8.57213e-05
1.80671e-06
8.59138e-05
1.95494e-06
8.61429e-05
2.11574e-06
8.64177e-05
2.28489e-06
8.67484e-05
2.45659e-06
2.621e-06
8.71448e-05
8.23682e-05
8.23586e-07
8.28539e-05
2.20181e-06
8.33916e-05
2.93253e-06
8.38842e-05
3.17357e-06
8.43085e-05
3.15488e-06
8.46615e-05
2.99142e-06
8.49534e-05
2.76004e-06
8.51985e-05
2.51317e-06
8.54083e-05
2.27561e-06
8.55915e-05
2.05783e-06
8.57546e-05
1.86435e-06
8.59023e-05
1.69621e-06
8.6038e-05
1.55268e-06
8.61641e-05
1.43244e-06
8.62826e-05
1.33403e-06
8.6395e-05
1.25604e-06
8.65028e-05
1.19724e-06
8.66071e-05
1.1566e-06
8.67094e-05
1.13331e-06
8.68109e-05
1.12675e-06
8.69133e-05
1.13642e-06
8.70184e-05
1.16197e-06
8.71282e-05
1.20307e-06
8.72453e-05
1.2594e-06
8.73727e-05
1.33051e-06
8.7514e-05
1.41576e-06
8.76735e-05
1.51413e-06
8.78561e-05
1.62407e-06
8.80678e-05
1.74323e-06
8.83153e-05
1.8683e-06
8.86057e-05
1.99443e-06
8.89469e-05
2.11538e-06
2.22226e-06
8.93457e-05
8.46679e-05
6.63479e-07
8.50628e-05
1.80685e-06
8.55255e-05
2.4699e-06
8.59678e-05
2.73127e-06
8.63628e-05
2.7598e-06
8.67028e-05
2.65144e-06
8.6992e-05
2.47091e-06
8.72398e-05
2.26532e-06
8.74554e-05
2.06007e-06
8.76458e-05
1.86736e-06
8.78169e-05
1.69327e-06
8.79729e-05
1.54025e-06
8.81169e-05
1.40865e-06
8.82514e-05
1.29789e-06
8.83785e-05
1.207e-06
8.84996e-05
1.13489e-06
8.86164e-05
1.08051e-06
8.87301e-05
1.0429e-06
8.88422e-05
1.02123e-06
8.89541e-05
1.01476e-06
8.90677e-05
1.02286e-06
8.91847e-05
1.04494e-06
8.93074e-05
1.08038e-06
8.94383e-05
1.12849e-06
8.95804e-05
1.18841e-06
8.97372e-05
1.25901e-06
8.99126e-05
1.33874e-06
9.01111e-05
1.42551e-06
9.03379e-05
1.51646e-06
9.05984e-05
1.60784e-06
9.08981e-05
1.69465e-06
9.12428e-05
1.77077e-06
1.82852e-06
9.16365e-05
8.70482e-05
5.37405e-07
8.73723e-05
1.48284e-06
8.77712e-05
2.07098e-06
8.81685e-05
2.33396e-06
8.85356e-05
2.39266e-06
8.88617e-05
2.32532e-06
8.91467e-05
2.18596e-06
8.93962e-05
2.01579e-06
8.96169e-05
1.83945e-06
8.98143e-05
1.66992e-06
8.99933e-05
1.51425e-06
9.01577e-05
1.37586e-06
9.03104e-05
1.25595e-06
9.04538e-05
1.15452e-06
9.05898e-05
1.07101e-06
9.072e-05
1.00462e-06
9.08461e-05
9.54432e-07
9.09695e-05
9.19537e-07
9.10916e-05
8.99075e-07
9.12141e-05
8.9223e-07
9.13388e-05
8.98208e-07
9.14675e-05
9.16208e-07
9.16026e-05
9.45362e-07
9.17464e-05
9.84678e-07
9.19018e-05
1.03295e-06
9.20721e-05
1.08869e-06
9.22609e-05
1.14997e-06
9.24721e-05
1.21437e-06
9.27097e-05
1.27876e-06
9.29783e-05
1.33929e-06
9.32818e-05
1.39116e-06
9.36239e-05
1.42867e-06
1.44549e-06
9.40069e-05
8.95069e-05
4.36032e-07
8.97755e-05
1.21421e-06
9.0121e-05
1.72553e-06
9.04785e-05
1.97643e-06
9.08197e-05
2.05151e-06
9.11318e-05
2.01316e-06
9.14117e-05
1.90606e-06
9.16619e-05
1.76557e-06
9.18868e-05
1.61455e-06
9.20907e-05
1.46606e-06
9.22774e-05
1.32757e-06
9.24501e-05
1.20313e-06
9.26116e-05
1.09449e-06
9.27639e-05
1.00213e-06
9.29091e-05
9.25828e-07
9.30488e-05
8.64965e-07
9.31845e-05
8.1875e-07
9.33177e-05
7.86314e-07
9.345e-05
7.66764e-07
9.3583e-05
7.59194e-07
9.37186e-05
7.62678e-07
9.38585e-05
7.76235e-07
9.40051e-05
7.98787e-07
9.41607e-05
8.29104e-07
9.43279e-05
8.65731e-07
9.45097e-05
9.06919e-07
9.47091e-05
9.50534e-07
9.49295e-05
9.93985e-07
9.51742e-05
1.03412e-06
9.54462e-05
1.06721e-06
9.57486e-05
1.08884e-06
9.60833e-05
1.09397e-06
1.07759e-06
9.64512e-05
9.2043e-05
3.52848e-07
9.22685e-05
9.88775e-07
9.25695e-05
1.42454e-06
9.28923e-05
1.65364e-06
9.32097e-05
1.73406e-06
9.35083e-05
1.71457e-06
9.37826e-05
1.63172e-06
9.40329e-05
1.51533e-06
9.42615e-05
1.38597e-06
9.44714e-05
1.25615e-06
9.46655e-05
1.1334e-06
9.48466e-05
1.02203e-06
9.5017e-05
9.24161e-07
9.51785e-05
8.40567e-07
9.53331e-05
7.71251e-07
9.54823e-05
7.15753e-07
9.56277e-05
6.73361e-07
9.57708e-05
6.43222e-07
9.59132e-05
6.24406e-07
9.60564e-05
6.15931e-07
9.62023e-05
6.16754e-07
9.63528e-05
6.25753e-07
9.65099e-05
6.41689e-07
9.66759e-05
6.63159e-07
9.68531e-05
6.88547e-07
9.7044e-05
7.15962e-07
9.72514e-05
7.43185e-07
9.74777e-05
7.6762e-07
9.77256e-05
7.86238e-07
9.79972e-05
7.95594e-07
9.82942e-05
7.91813e-07
9.86176e-05
7.70582e-07
7.28078e-07
9.89671e-05
9.46568e-05
2.83225e-07
9.48486e-05
7.96978e-07
9.5113e-05
1.16015e-06
9.54059e-05
1.36074e-06
9.57022e-05
1.43776e-06
9.59881e-05
1.42864e-06
9.62569e-05
1.36293e-06
9.65068e-05
1.26539e-06
9.67387e-05
1.15406e-06
9.69544e-05
1.04051e-06
9.71558e-05
9.31939e-07
9.73452e-05
8.32668e-07
9.75244e-05
7.44964e-07
9.76952e-05
6.6977e-07
9.78592e-05
6.07221e-07
9.8018e-05
5.56946e-07
9.81731e-05
5.18276e-07
9.8326e-05
4.90357e-07
9.84782e-05
4.72222e-07
9.86313e-05
4.62822e-07
9.8787e-05
4.61023e-07
9.89472e-05
4.65596e-07
9.91137e-05
4.75192e-07
9.92885e-05
4.88304e-07
9.94738e-05
5.03231e-07
9.96718e-05
5.18044e-07
9.98844e-05
5.30544e-07
0.000100114
5.38248e-07
0.000100362
5.38371e-07
0.000100629
5.2785e-07
0.000100918
5.03394e-07
0.000101227
4.6145e-07
3.99238e-07
0.000101556
9.73489e-05
2.23804e-07
9.75146e-05
6.31316e-07
9.77492e-05
9.25536e-07
9.80168e-05
1.09312e-06
9.82947e-05
1.15989e-06
9.85693e-05
1.15407e-06
9.88329e-05
1.09927e-06
9.90826e-05
1.01577e-06
9.93176e-05
9.1899e-07
9.95389e-05
8.19269e-07
9.97475e-05
7.23261e-07
9.99452e-05
6.3505e-07
0.000100133
5.56869e-07
0.000100313
4.89697e-07
0.000100487
4.33709e-07
0.000100655
3.88562e-07
0.00010082
3.53597e-07
0.000100982
3.27938e-07
0.000101144
3.10581e-07
0.000101306
3.00417e-07
0.000101471
2.96247e-07
0.00010164
2.96772e-07
0.000101815
3.0058e-07
0.000101997
3.06121e-07
0.000102188
3.11685e-07
0.000102391
3.1538e-07
0.000102606
3.15117e-07
0.000102836
3.0861e-07
0.000103081
2.93383e-07
0.000103342
2.66818e-07
0.000103619
2.26204e-07
0.000103912
1.68712e-07
9.24422e-08
0.000104219
0.000100121
1.72085e-07
0.000100266
4.85842e-07
0.000100477
7.14811e-07
0.000100724
8.46442e-07
0.000100986
8.97579e-07
0.000101251
8.89218e-07
0.00010151
8.39934e-07
0.00010176
7.66103e-07
0.000101998
6.80596e-07
0.000102225
5.92365e-07
0.000102441
5.0731e-07
0.000102647
4.2911e-07
0.000102844
3.59804e-07
0.000103034
3.00289e-07
0.000103217
2.50693e-07
0.000103394
2.1065e-07
0.000103569
1.79462e-07
0.00010374
1.56222e-07
0.000103911
1.39883e-07
0.000104082
1.29291e-07
0.000104255
1.23202e-07
0.000104432
1.20284e-07
0.000104613
1.19104e-07
0.000104801
1.18123e-07
0.000104997
1.15679e-07
0.000105203
1.09982e-07
0.000105419
9.9113e-08
0.000105646
8.10414e-08
0.000105886
5.36419e-08
0.000106138
1.47578e-08
0.000106402
-3.78214e-08
0.000106677
-1.06198e-07
-1.9157e-07
0.000106961
0.000102974
1.26157e-07
0.000103104
3.55787e-07
0.000103296
5.22854e-07
0.000103526
6.16598e-07
0.000103776
6.47904e-07
0.000104033
6.32164e-07
0.000104289
5.83777e-07
0.000104539
5.15727e-07
0.000104781
4.38491e-07
0.000105014
3.59554e-07
0.000105237
2.83925e-07
0.000105452
2.14735e-07
0.000105658
1.53704e-07
0.000105857
1.01535e-07
0.000106049
5.82348e-08
0.000106236
2.33478e-08
0.00010642
-3.87494e-09
0.0001066
-2.43999e-08
0.00010678
-3.93215e-08
0.000106959
-4.98289e-08
0.000107139
-5.71881e-08
0.000107322
-6.27377e-08
0.000107509
-6.78897e-08
0.000107701
-7.4132e-08
0.0001079
-8.30312e-08
0.000108106
-9.62293e-08
0.000108321
-1.15435e-07
0.000108544
-1.42401e-07
0.000108777
-1.78899e-07
0.000109018
-2.2666e-07
0.000109268
-2.87322e-07
0.000109524
-3.62493e-07
-4.52768e-07
0.000109785
0.00010591
8.45123e-08
0.000106029
2.37252e-07
0.000106207
3.45182e-07
0.000106423
3.99707e-07
0.000106664
4.07836e-07
0.000106915
3.80705e-07
0.00010717
3.29266e-07
0.000107422
2.6358e-07
0.000107668
1.91912e-07
0.000107908
1.20257e-07
0.000108139
5.26452e-08
0.000108362
-8.44533e-09
0.000108577
-6.17276e-08
0.000108786
-1.0678e-07
0.000108988
-1.43784e-07
0.000109184
-1.7333e-07
0.000109377
-1.96274e-07
0.000109566
-2.13647e-07
0.000109753
-2.26591e-07
0.00010994
-2.36321e-07
0.000110127
-2.44113e-07
0.000110315
-2.51287e-07
0.000110507
-2.59205e-07
0.000110702
-2.6927e-07
0.000110902
-2.82921e-07
0.000111107
-3.01624e-07
0.000111318
-3.26856e-07
0.000111536
-3.60082e-07
0.00011176
-4.0272e-07
0.000111989
-4.56112e-07
0.000112224
-5.21429e-07
0.000112461
-5.998e-07
-6.91362e-07
0.000112699
0.000108932
4.59223e-08
0.000109042
1.26965e-07
0.00010921
1.77803e-07
0.000109417
1.92058e-07
0.000109651
1.74286e-07
0.000109899
1.32428e-07
0.000110154
7.46016e-08
0.000110409
8.3377e-09
0.000110661
-6.01044e-08
0.000110908
-1.26224e-07
0.000111147
-1.87023e-07
0.00011138
-2.40766e-07
0.000111604
-2.86682e-07
0.000111822
-3.24712e-07
0.000112034
-3.55292e-07
0.00011224
-3.79197e-07
0.000112441
-3.97405e-07
0.000112638
-4.11034e-07
0.000112833
-4.21282e-07
0.000113026
-4.29387e-07
0.000113219
-4.36617e-07
0.000113412
-4.44255e-07
0.000113606
-4.53593e-07
0.000113803
-4.65926e-07
0.000114002
-4.82544e-07
0.000114205
-5.04722e-07
0.000114412
-5.33701e-07
0.000114623
-5.70665e-07
0.000114837
-6.16711e-07
0.000115053
-6.7282e-07
0.000115272
-7.39779e-07
0.00011549
-8.18324e-07
-9.0826e-07
0.000115707
0.000112041
9.34015e-09
0.000112146
2.20848e-08
0.000112307
1.705e-08
0.000112509
-9.99682e-09
0.000112739
-5.60114e-08
0.000112987
-1.15446e-07
0.000113244
-1.82509e-07
0.000113504
-2.5185e-07
0.000113763
-3.19096e-07
0.000114018
-3.81161e-07
0.000114267
-4.36137e-07
0.00011451
-4.83093e-07
0.000114745
-5.2185e-07
0.000114973
-5.52781e-07
0.000115194
-5.76637e-07
0.000115409
-5.94413e-07
0.000115619
-6.07248e-07
0.000115825
-6.16365e-07
0.000116026
-6.23018e-07
0.000116225
-6.28469e-07
0.000116423
-6.3397e-07
0.000116619
-6.40754e-07
0.000116816
-6.5003e-07
0.000117013
-6.62969e-07
0.000117211
-6.80706e-07
0.00011741
-7.0432e-07
0.000117612
-7.3482e-07
0.000117814
-7.73129e-07
0.000118017
-8.2005e-07
0.000118221
-8.76252e-07
0.000118423
-9.42202e-07
0.000118623
-1.0183e-06
-1.10411e-06
0.000118819
0.00011524
-2.617e-08
0.000115342
-7.99577e-08
0.0001155
-1.40521e-07
0.0001157
-2.10056e-07
0.00011593
-2.86405e-07
0.00011618
-3.65827e-07
0.000116442
-4.44477e-07
0.000116709
-5.18939e-07
0.000116977
-5.86574e-07
0.000117242
-6.45707e-07
0.000117501
-6.95548e-07
0.000117754
-7.36024e-07
0.000118
-7.67614e-07
0.000118238
-7.91179e-07
0.000118469
-8.07833e-07
0.000118694
-8.18833e-07
0.000118912
-8.25505e-07
0.000119125
-8.29188e-07
0.000119333
-8.31206e-07
0.000119537
-8.32842e-07
0.000119739
-8.35329e-07
0.000119938
-8.39845e-07
0.000120135
-8.47503e-07
0.000120332
-8.59352e-07
0.000120527
-8.76365e-07
0.000120722
-8.99432e-07
0.000120917
-9.29348e-07
0.000121111
-9.66794e-07
0.000121303
-1.01232e-06
0.000121493
-1.06634e-06
0.00012168
-1.12906e-06
0.000121862
-1.20063e-06
-1.28045e-06
0.000122038
0.000118531
-6.14933e-08
0.000118633
-1.81643e-07
0.000118791
-2.98393e-07
0.000118993
-4.11984e-07
0.000119227
-5.20759e-07
0.000119484
-6.22374e-07
0.000119754
-7.14649e-07
0.000120031
-7.95912e-07
0.000120309
-8.65167e-07
0.000120586
-9.2214e-07
0.000120857
-9.67189e-07
0.000121123
-1.00116e-06
0.00012138
-1.02526e-06
0.00012163
-1.04088e-06
0.000121872
-1.04957e-06
0.000122106
-1.05288e-06
0.000122333
-1.05234e-06
0.000122553
-1.04944e-06
0.000122767
-1.04557e-06
0.000122976
-1.04205e-06
0.000123181
-1.04007e-06
0.000123382
-1.04078e-06
0.00012358
-1.04517e-06
0.000123774
-1.05418e-06
0.000123967
-1.06862e-06
0.000124157
-1.08921e-06
0.000124344
-1.11654e-06
0.000124528
-1.15108e-06
0.000124709
-1.19317e-06
0.000124886
-1.24298e-06
0.000125057
-1.30053e-06
0.000125222
-1.36576e-06
-1.43794e-06
0.00012538
0.000121917
-9.74976e-08
0.000122021
-2.85411e-07
0.000122183
-4.60007e-07
0.00012239
-6.19606e-07
0.000122632
-7.62835e-07
0.000122899
-8.88523e-07
0.00012318
-9.96e-07
0.000123469
-1.08526e-06
0.000123761
-1.1569e-06
0.000124051
-1.21208e-06
0.000124336
-1.25233e-06
0.000124614
-1.27948e-06
0.000124885
-1.29549e-06
0.000125146
-1.30239e-06
0.000125399
-1.30214e-06
0.000125642
-1.29666e-06
0.000125878
-1.2877e-06
0.000126105
-1.27691e-06
0.000126325
-1.26577e-06
0.000126539
-1.25562e-06
0.000126747
-1.24766e-06
0.000126949
-1.24294e-06
0.000127146
-1.24239e-06
0.000127339
-1.24682e-06
0.000127527
-1.2569e-06
0.000127711
-1.27318e-06
0.00012789
-1.29607e-06
0.000128065
-1.32588e-06
0.000128235
-1.36273e-06
0.000128398
-1.40666e-06
0.000128555
-1.4575e-06
0.000128705
-1.51507e-06
-1.57858e-06
0.000128845
0.000125401
-1.35193e-07
0.00012551
-3.94108e-07
0.000125679
-6.29581e-07
0.000125898
-8.37962e-07
0.000126153
-1.01805e-06
0.000126434
-1.16973e-06
0.000126732
-1.29376e-06
0.000127038
-1.39179e-06
0.000127348
-1.46606e-06
0.000127655
-1.51921e-06
0.000127956
-1.55404e-06
0.00012825
-1.57345e-06
0.000128535
-1.58025e-06
0.00012881
-1.57711e-06
0.000129074
-1.56652e-06
0.000129328
-1.55075e-06
0.000129573
-1.53183e-06
0.000129807
-1.51156e-06
0.000130033
-1.49152e-06
0.00013025
-1.4731e-06
0.00013046
-1.45746e-06
0.000130663
-1.44561e-06
0.000130859
-1.4384e-06
0.000131049
-1.4365e-06
0.000131232
-1.44046e-06
0.00013141
-1.45068e-06
0.000131581
-1.46742e-06
0.000131746
-1.49081e-06
0.000131904
-1.52085e-06
0.000132055
-1.5574e-06
0.000132197
-1.60017e-06
0.000132331
-1.64886e-06
-1.70262e-06
0.000132455
0.000128985
-1.75534e-07
0.000129102
-5.10475e-07
0.000129283
-8.1095e-07
0.000129516
-1.07127e-06
0.000129789
-1.29055e-06
0.000130089
-1.46981e-06
0.000130407
-1.61133e-06
0.000130733
-1.71849e-06
0.000131063
-1.79527e-06
0.000131389
-1.84584e-06
0.00013171
-1.87437e-06
0.000132021
-1.88486e-06
0.000132322
-1.88105e-06
0.000132611
-1.86634e-06
0.000132888
-1.84375e-06
0.000133153
-1.81597e-06
0.000133407
-1.78531e-06
0.000133649
-1.75378e-06
0.000133881
-1.72305e-06
0.000134102
-1.69455e-06
0.000134314
-1.66944e-06
0.000134517
-1.64868e-06
0.000134712
-1.63303e-06
0.000134898
-1.62306e-06
0.000135077
-1.6192e-06
0.000135248
-1.62171e-06
0.000135411
-1.63072e-06
0.000135567
-1.64622e-06
0.000135714
-1.66808e-06
0.000135853
-1.69607e-06
0.000135982
-1.7298e-06
0.000136102
-1.76889e-06
-1.81251e-06
0.000136212
0.000132674
-2.20221e-07
0.000132802
-6.39162e-07
0.000133003
-1.01112e-06
0.000133259
-1.32809e-06
0.000133558
-1.5896e-06
0.000133887
-1.79799e-06
0.000134233
-1.9573e-06
0.000134587
-2.07295e-06
0.000134943
-2.15091e-06
0.000135294
-2.19712e-06
0.000135637
-2.21729e-06
0.000135969
-2.21666e-06
0.000136288
-2.19997e-06
0.000136593
-2.1714e-06
0.000136884
-2.13457e-06
0.00013716
-2.09258e-06
0.000137423
-2.04806e-06
0.000137672
-2.00318e-06
0.000137909
-1.95975e-06
0.000138134
-1.91923e-06
0.000138347
-1.88276e-06
0.00013855
-1.85126e-06
0.000138742
-1.82541e-06
0.000138925
-1.80567e-06
0.000139098
-1.79235e-06
0.000139262
-1.7856e-06
0.000139416
-1.78542e-06
0.000139562
-1.79169e-06
0.000139698
-1.80417e-06
0.000139824
-1.82251e-06
0.000139941
-1.84626e-06
0.000140047
-1.87494e-06
-1.90769e-06
0.000140142
0.000136468
-2.70076e-07
0.000136612
-7.83004e-07
0.000136835
-1.23374e-06
0.000137119
-1.61215e-06
0.000137448
-1.91891e-06
0.000137808
-2.15812e-06
0.000138187
-2.33578e-06
0.000138573
-2.45952e-06
0.00013896
-2.5375e-06
0.00013934
-2.57762e-06
0.00013971
-2.58723e-06
0.000140067
-2.57299e-06
0.000140407
-2.54076e-06
0.000140732
-2.4956e-06
0.000141039
-2.44179e-06
0.000141329
-2.38292e-06
0.000141603
-2.32194e-06
0.000141861
-2.26125e-06
0.000142104
-2.20277e-06
0.000142333
-2.14798e-06
0.000142548
-2.09806e-06
0.000142751
-2.05383e-06
0.000142941
-2.0159e-06
0.00014312
-1.98464e-06
0.000143288
-1.96025e-06
0.000143445
-1.94275e-06
0.000143592
-1.93205e-06
0.000143728
-1.92791e-06
0.000143854
-1.93001e-06
0.000143969
-1.93793e-06
0.000144074
-1.95115e-06
0.000144168
-1.96919e-06
-1.99117e-06
0.000144252
0.000140375
-3.29777e-07
0.000140546
-9.53285e-07
0.000140807
-1.49482e-06
0.000141136
-1.94152e-06
0.000141514
-2.29628e-06
0.000141921
-2.56596e-06
0.000142345
-2.75959e-06
0.000142774
-2.88798e-06
0.000143198
-2.96206e-06
0.000143613
-2.99201e-06
0.000144012
-2.98706e-06
0.000144395
-2.95537e-06
0.000144758
-2.90398e-06
0.000145101
-2.83882e-06
0.000145424
-2.76486e-06
0.000145728
-2.68613e-06
0.000146012
-2.60592e-06
0.000146277
-2.52683e-06
0.000146525
-2.45087e-06
0.000146757
-2.37958e-06
0.000146973
-2.31408e-06
0.000147174
-2.25517e-06
0.000147362
-2.20335e-06
0.000147536
-2.15891e-06
0.000147698
-2.12191e-06
0.000147847
-2.09228e-06
0.000147985
-2.06982e-06
0.000148111
-2.0542e-06
0.000148226
-2.04499e-06
0.00014833
-2.0417e-06
0.000148423
-2.04375e-06
0.000148504
-2.05056e-06
-2.06125e-06
0.000148574
0.000144392
-3.971e-07
0.000144587
-1.14876e-06
0.000144886
-1.793e-06
0.00014526
-2.31619e-06
0.000145689
-2.7247e-06
0.000146151
-3.02798e-06
0.000146629
-3.23814e-06
0.000147111
-3.36961e-06
0.000147585
-3.43663e-06
0.000148046
-3.45221e-06
0.000148486
-3.4279e-06
0.000148905
-3.37374e-06
0.000149299
-3.29817e-06
0.000149668
-3.20822e-06
0.000150013
-3.1096e-06
0.000150334
-3.00688e-06
0.000150632
-2.90367e-06
0.000150908
-2.80276e-06
0.000151163
-2.70626e-06
0.000151399
-2.61572e-06
0.000151617
-2.5322e-06
0.000151818
-2.4564e-06
0.000152004
-2.38874e-06
0.000152174
-2.32936e-06
0.000152331
-2.27822e-06
0.000152473
-2.23514e-06
0.000152603
-2.19978e-06
0.000152721
-2.17173e-06
0.000152826
-2.1505e-06
0.00015292
-2.13554e-06
0.000153003
-2.12621e-06
0.000153074
-2.12196e-06
-2.12185e-06
0.000153135
0.000148542
-4.91547e-07
0.0001488
-1.40629e-06
0.000149178
-2.17124e-06
0.000149637
-2.77483e-06
0.000150146
-3.23351e-06
0.000150681
-3.5633e-06
0.000151225
-3.78194e-06
0.000151764
-3.9088e-06
0.000152289
-3.96176e-06
0.000152793
-3.95662e-06
0.000153273
-3.90719e-06
0.000153724
-3.82527e-06
0.000154147
-3.72066e-06
0.00015454
-3.60137e-06
0.000154904
-3.47387e-06
0.000155241
-3.34322e-06
0.00015555
-3.21338e-06
0.000155835
-3.08731e-06
0.000156096
-2.9672e-06
0.000156335
-2.8546e-06
0.000156553
-2.75051e-06
0.000156752
-2.65554e-06
0.000156933
-2.56997e-06
0.000157098
-2.49382e-06
0.000157246
-2.42692e-06
0.00015738
-2.36894e-06
0.0001575
-2.31946e-06
0.000157606
-2.27794e-06
0.000157699
-2.24381e-06
0.00015778
-2.21645e-06
0.000157849
-2.19515e-06
0.000157907
-2.17926e-06
-2.16779e-06
0.000157953
0.000152786
-5.88404e-07
0.00015308
-1.70001e-06
0.000153519
-2.61102e-06
0.000154061
-3.31677e-06
0.000154668
-3.84033e-06
0.000155307
-4.20178e-06
0.000155951
-4.42637e-06
0.000156584
-4.54129e-06
0.000157192
-4.57017e-06
0.000157769
-4.53311e-06
0.000158309
-4.44727e-06
0.00015881
-4.32686e-06
0.000159273
-4.18338e-06
0.000159698
-4.02601e-06
0.000160086
-3.86195e-06
0.000160439
-3.69675e-06
0.00016076
-3.53457e-06
0.000161052
-3.37847e-06
0.000161315
-3.23061e-06
0.000161553
-3.09242e-06
0.000161767
-2.96477e-06
0.00016196
-2.84809e-06
0.000162132
-2.74246e-06
0.000162286
-2.64772e-06
0.000162423
-2.56352e-06
0.000162543
-2.48937e-06
0.000162648
-2.42471e-06
0.000162739
-2.36892e-06
0.000162817
-2.32134e-06
0.000162882
-2.2813e-06
0.000162935
-2.24811e-06
0.000162976
-2.22113e-06
-2.19928e-06
0.000163008
0.000157248
-7.84592e-07
0.000157703
-2.15498e-06
0.000158302
-3.21015e-06
0.000158978
-3.99301e-06
0.000159695
-4.55778e-06
0.000160426
-4.93193e-06
0.000161147
-5.14816e-06
0.000161846
-5.23986e-06
0.000162511
-5.23484e-06
0.000163134
-5.15687e-06
0.000163713
-5.02625e-06
0.000164246
-4.8596e-06
0.000164733
-4.67018e-06
0.000165175
-4.46841e-06
0.000165576
-4.26231e-06
0.000165937
-4.05788e-06
0.000166262
-3.85951e-06
0.000166554
-3.67029e-06
0.000166815
-3.49226e-06
0.000167049
-3.32667e-06
0.000167259
-3.17417e-06
0.000167446
-3.03492e-06
0.000167612
-2.90876e-06
0.000167759
-2.79526e-06
0.00016789
-2.69384e-06
0.000168004
-2.60382e-06
0.000168104
-2.52446e-06
0.00016819
-2.45498e-06
0.000168263
-2.39467e-06
0.000168325
-2.34279e-06
0.000168375
-2.29867e-06
0.000168416
-2.26166e-06
-2.23069e-06
0.000168447
0.000161694
-9.40014e-07
0.000162221
-2.68252e-06
0.000162969
-3.95773e-06
0.000163843
-4.8672e-06
0.000164767
-5.48192e-06
0.000165685
-5.84958e-06
0.000166567
-6.03018e-06
0.0001674
-6.0732e-06
0.00016818
-6.01425e-06
0.000168905
-5.88182e-06
0.000169577
-5.69871e-06
0.0001702
-5.48252e-06
0.000170777
-5.24684e-06
0.00017131
-5.00206e-06
0.000171804
-4.75603e-06
0.000172261
-4.51456e-06
0.000172683
-4.28183e-06
0.000173074
-4.06075e-06
0.000173435
-3.85324e-06
0.000173768
-3.66039e-06
0.000174077
-3.48268e-06
0.000174362
-3.32013e-06
0.000174626
-3.1724e-06
0.000174869
-3.0389e-06
0.000175094
-2.91888e-06
0.000175302
-2.8115e-06
0.000175493
-2.71588e-06
0.00017567
-2.63117e-06
0.000175832
-2.55662e-06
0.00017598
-2.49154e-06
0.000176117
-2.4356e-06
0.000176244
-2.38819e-06
-2.34939e-06
0.000176362
0.000166691
-1.47785e-06
0.000167555
-3.54573e-06
0.000168506
-4.90918e-06
0.000169537
-5.89794e-06
0.000170648
-6.59273e-06
0.000171818
-7.01995e-06
0.000173029
-7.24076e-06
0.000174257
-7.30152e-06
0.000175479
-7.23638e-06
0.000176674
-7.07654e-06
0.000177824
-6.84884e-06
0.000178917
-6.57528e-06
0.000179943
-6.27364e-06
0.000180899
-5.958e-06
0.000181783
-5.63922e-06
0.000182593
-5.32547e-06
0.000183334
-5.02268e-06
0.000184009
-4.73496e-06
0.00018462
-4.46491e-06
0.000185174
-4.214e-06
0.000185674
-3.9828e-06
0.000186125
-3.77119e-06