/*--------------------------------*- C++ -*----------------------------------*\
  =========                 |
  \\      /  F ield         | OpenFOAM: The Open Source CFD Toolbox
   \\    /   O peration     | Website:  https://openfoam.org
    \\  /    A nd           | Version:  10
     \\/     M anipulation  |
\*---------------------------------------------------------------------------*/
FoamFile
{
    format      ascii;
    class       volVectorField;
    location    "0.075";
    object      U;
}
// * * * * * * * * * * * * * * * * * * * * * * * * * * * * * * * * * * * * * //

dimensions      [0 1 -1 0 0 0 0];

internalField   nonuniform List<vector> 
6820
(
(5.57339 0.45922 0)
(3.88217 0.246024 0)
(2.58718 0.00893995 0)
(1.95382 -0.0639927 0)
(1.72685 -0.0592418 0)
(1.6138 -0.0337451 0)
(1.54667 -0.0150819 0)
(1.4983 -0.00500997 0)
(1.45697 -0.000402981 0)
(1.42052 0.00113133 0)
(1.38832 0.0012345 0)
(1.35982 0.000792958 0)
(1.33446 0.000218324 0)
(1.31163 -0.000306166 0)
(1.29073 -0.000709186 0)
(1.27121 -0.00097282 0)
(1.2526 -0.00110165 0)
(1.23445 -0.00110685 0)
(1.21632 -0.000998838 0)
(1.1978 -0.000784596 0)
(1.17848 -0.000466852 0)
(1.15792 -4.39976e-05 0)
(1.13564 0.000489791 0)
(1.11114 0.0011444 0)
(1.08384 0.00193215 0)
(1.05313 0.00287036 0)
(1.01829 0.00396768 0)
(0.978604 0.00525847 0)
(0.933004 0.00668039 0)
(0.881273 0.00839748 0)
(0.820534 0.0096543 0)
(0.755389 0.0121734 0)
(0.673138 0.000661787 0)
(7.66978 0.864143 0)
(7.71653 0.891354 0)
(6.99769 0.599192 0)
(6.19286 0.348414 0)
(5.57686 0.180634 0)
(5.12924 0.0943257 0)
(4.80899 0.0541863 0)
(4.57662 0.0359617 0)
(4.40108 0.0277899 0)
(4.26302 0.0238178 0)
(4.15064 0.0215843 0)
(4.05652 0.020161 0)
(3.97586 0.0191862 0)
(3.9054 0.018511 0)
(3.84278 0.0180714 0)
(3.78622 0.0178476 0)
(3.73432 0.0178445 0)
(3.68593 0.018082 0)
(3.64005 0.0185904 0)
(3.59578 0.0194096 0)
(3.55227 0.0205888 0)
(3.5087 0.0221876 0)
(3.46422 0.0242765 0)
(3.41799 0.0269392 0)
(3.36905 0.0302734 0)
(3.3164 0.0343967 0)
(3.25892 0.0394309 0)
(3.19532 0.0455582 0)
(3.12414 0.0528438 0)
(3.04384 0.0616851 0)
(2.95193 0.0716239 0)
(2.84752 0.0829225 0)
(2.72411 0.0986857 0)
(7.56353 0.520634 0)
(8.22498 0.664506 0)
(8.46376 0.577706 0)
(8.36125 0.460627 0)
(8.12313 0.346931 0)
(7.84338 0.2624 0)
(7.5699 0.2031 0)
(7.32254 0.160677 0)
(7.10461 0.129999 0)
(6.91413 0.107392 0)
(6.74776 0.0903834 0)
(6.60202 0.0774104 0)
(6.47369 0.0674563 0)
(6.35998 0.0598338 0)
(6.25847 0.0540544 0)
(6.16709 0.0497684 0)
(6.08404 0.0467338 0)
(6.00777 0.0447919 0)
(5.93689 0.0438492 0)
(5.87016 0.0438649 0)
(5.80641 0.0448424 0)
(5.74456 0.0468252 0)
(5.68355 0.0498942 0)
(5.62232 0.0541685 0)
(5.55979 0.0598066 0)
(5.49481 0.0670121 0)
(5.42613 0.0760309 0)
(5.35238 0.0871875 0)
(5.27201 0.100796 0)
(5.18315 0.11745 0)
(5.08372 0.137317 0)
(4.97017 0.161457 0)
(4.83994 0.19264 0)
(7.43333 0.341421 0)
(7.88447 0.515484 0)
(8.24287 0.491337 0)
(8.44091 0.432299 0)
(8.53966 0.361847 0)
(8.56826 0.302038 0)
(8.55121 0.256721 0)
(8.50809 0.222047 0)
(8.44992 0.195039 0)
(8.38311 0.173465 0)
(8.31181 0.155771 0)
(8.23869 0.141025 0)
(8.16553 0.128636 0)
(8.09354 0.118218 0)
(8.02344 0.109534 0)
(7.95555 0.102423 0)
(7.88997 0.0967723 0)
(7.8266 0.0925126 0)
(7.76522 0.0896128 0)
(7.70551 0.0880802 0)
(7.64703 0.0879608 0)
(7.58931 0.0893408 0)
(7.53179 0.0923495 0)
(7.47382 0.0971639 0)
(7.4147 0.104014 0)
(7.35362 0.113191 0)
(7.28967 0.125057 0)
(7.22179 0.140072 0)
(7.14879 0.158776 0)
(7.06911 0.181945 0)
(6.98134 0.210461 0)
(6.88207 0.245637 0)
(6.77196 0.291645 0)
(7.39679 0.251416 0)
(7.6797 0.422177 0)
(7.92269 0.405887 0)
(8.07616 0.356734 0)
(8.18608 0.30289 0)
(8.26769 0.258159 0)
(8.32771 0.225227 0)
(8.3734 0.20044 0)
(8.40869 0.181078 0)
(8.43559 0.165515 0)
(8.45562 0.152688 0)
(8.46996 0.141967 0)
(8.47949 0.13298 0)
(8.48473 0.125482 0)
(8.48625 0.119312 0)
(8.48458 0.114371 0)
(8.48015 0.110616 0)
(8.4733 0.108043 0)
(8.46427 0.106691 0)
(8.45325 0.106634 0)
(8.44034 0.107984 0)
(8.42557 0.110897 0)
(8.40892 0.11557 0)
(8.39028 0.122257 0)
(8.36949 0.131269 0)
(8.3463 0.142991 0)
(8.3204 0.157894 0)
(8.29136 0.17656 0)
(8.25872 0.199714 0)
(8.22172 0.228262 0)
(8.17996 0.263483 0)
(8.1317 0.306802 0)
(8.07873 0.361849 0)
(7.374 0.181124 0)
(7.57385 0.337404 0)
(7.76007 0.344449 0)
(7.87387 0.316128 0)
(7.94929 0.277837 0)
(8.00375 0.240613 0)
(8.0442 0.210277 0)
(8.07728 0.186319 0)
(8.10643 0.167291 0)
(8.1328 0.152079 0)
(8.15693 0.139757 0)
(8.17913 0.129665 0)
(8.1996 0.121395 0)
(8.21856 0.114681 0)
(8.2361 0.109331 0)
(8.25229 0.105229 0)
(8.26719 0.102321 0)
(8.28087 0.100603 0)
(8.2934 0.100113 0)
(8.30487 0.100928 0)
(8.31534 0.103168 0)
(8.3249 0.106994 0)
(8.33365 0.112615 0)
(8.3417 0.120296 0)
(8.34915 0.130362 0)
(8.35613 0.143218 0)
(8.36282 0.159358 0)
(8.36939 0.179387 0)
(8.37608 0.204072 0)
(8.38318 0.234321 0)
(8.39118 0.271445 0)
(8.4006 0.316745 0)
(8.41318 0.37268 0)
(7.35903 0.133254 0)
(7.50304 0.2746 0)
(7.65493 0.297396 0)
(7.75422 0.281617 0)
(7.81942 0.253053 0)
(7.86527 0.222202 0)
(7.8974 0.195639 0)
(7.92156 0.174132 0)
(7.94145 0.156727 0)
(7.95869 0.142584 0)
(7.97415 0.131 0)
(7.98835 0.121449 0)
(8.00158 0.113575 0)
(8.014 0.107146 0)
(8.02571 0.102017 0)
(8.03679 0.0981001 0)
(8.0473 0.0953549 0)
(8.05728 0.0937778 0)
(8.06677 0.0934017 0)
(8.07583 0.0942945 0)
(8.08452 0.096561 0)
(8.09294 0.100344 0)
(8.10119 0.10583 0)
(8.10944 0.113252 0)
(8.11786 0.122897 0)
(8.12674 0.135118 0)
(8.13642 0.150343 0)
(8.14736 0.169086 0)
(8.16017 0.191984 0)
(8.1757 0.219776 0)
(8.19512 0.253427 0)
(8.22026 0.293895 0)
(8.25297 0.342217 0)
(7.34962 0.0996042 0)
(7.45317 0.222144 0)
(7.57573 0.253027 0)
(7.66373 0.247381 0)
(7.72463 0.228812 0)
(7.76924 0.205799 0)
(7.80136 0.184156 0)
(7.82531 0.165548 0)
(7.84446 0.149799 0)
(7.8605 0.136576 0)
(7.87438 0.125526 0)
(7.88673 0.116309 0)
(7.89792 0.108673 0)
(7.90818 0.102441 0)
(7.91767 0.0974925 0)
(7.92649 0.0937475 0)
(7.93475 0.0911653 0)
(7.94249 0.0897417 0)
(7.94978 0.0895061 0)
(7.95669 0.0905202 0)
(7.96329 0.092878 0)
(7.96966 0.0967069 0)
(7.97592 0.102169 0)
(7.98221 0.109467 0)
(7.98872 0.118841 0)
(7.99571 0.130579 0)
(8.0035 0.145022 0)
(8.01256 0.162558 0)
(8.0235 0.183638 0)
(8.03717 0.208746 0)
(8.05464 0.238407 0)
(8.07777 0.273104 0)
(8.10809 0.312853 0)
(7.34379 0.0756944 0)
(7.41895 0.18033 0)
(7.51728 0.215819 0)
(7.59396 0.217857 0)
(7.64958 0.206481 0)
(7.69196 0.18906 0)
(7.7238 0.171012 0)
(7.7482 0.154708 0)
(7.76796 0.140536 0)
(7.78463 0.128437 0)
(7.79905 0.118225 0)
(7.81184 0.109665 0)
(7.82339 0.102558 0)
(7.83394 0.0967579 0)
(7.84367 0.0921649 0)
(7.85271 0.0887155 0)
(7.86116 0.0863812 0)
(7.86912 0.0851644 0)
(7.87664 0.0850957 0)
(7.88383 0.086233 0)
(7.89076 0.0886612 0)
(7.89754 0.0924929 0)
(7.9043 0.0978691 0)
(7.9112 0.10496 0)
(7.91845 0.113967 0)
(7.92631 0.125119 0)
(7.93513 0.138676 0)
(7.94537 0.154919 0)
(7.95759 0.174142 0)
(7.97261 0.196623 0)
(7.99136 0.222574 0)
(8.01538 0.252103 0)
(8.04579 0.284745 0)
(7.34015 0.0584957 0)
(7.39528 0.14679 0)
(7.47397 0.183449 0)
(7.54021 0.190541 0)
(7.59061 0.184586 0)
(7.63043 0.172095 0)
(7.66148 0.157755 0)
(7.68587 0.144055 0)
(7.70586 0.131697 0)
(7.72283 0.12084 0)
(7.73758 0.111482 0)
(7.75071 0.103523 0)
(7.76259 0.0968543 0)
(7.77349 0.0913856 0)
(7.7836 0.0870526 0)
(7.79305 0.0838132 0)
(7.80195 0.0816492 0)
(7.81041 0.0805659 0)
(7.8185 0.0805909 0)
(7.82634 0.0817746 0)
(7.83402 0.0841895 0)
(7.84166 0.08793 0)
(7.84942 0.0931116 0)
(7.85749 0.0998705 0)
(7.86608 0.108361 0)
(7.87549 0.118753 0)
(7.88607 0.131224 0)
(7.8983 0.145949 0)
(7.91274 0.163077 0)
(7.93014 0.182708 0)
(7.95133 0.204819 0)
(7.97761 0.229245 0)
(8.00975 0.255314 0)
(7.33786 0.0458872 0)
(7.37882 0.119834 0)
(7.44181 0.155632 0)
(7.49877 0.16616 0)
(7.54422 0.164385 0)
(7.58133 0.155884 0)
(7.61125 0.144617 0)
(7.63534 0.133066 0)
(7.65539 0.122209 0)
(7.67257 0.112414 0)
(7.68762 0.103824 0)
(7.70106 0.096445 0)
(7.71329 0.0902284 0)
(7.72454 0.0851213 0)
(7.73502 0.0810796 0)
(7.74487 0.0780727 0)
(7.75421 0.0760876 0)
(7.76314 0.0751297 0)
(7.77178 0.0752226 0)
(7.78022 0.0764077 0)
(7.7886 0.0787434 0)
(7.79704 0.0823037 0)
(7.80572 0.0871772 0)
(7.81482 0.0934638 0)
(7.8246 0.101271 0)
(7.83535 0.110707 0)
(7.84743 0.121873 0)
(7.86129 0.134846 0)
(7.87747 0.149654 0)
(7.89663 0.166252 0)
(7.9195 0.184451 0)
(7.94712 0.203913 0)
(7.98002 0.223887 0)
(7.33641 0.0364633 0)
(7.36725 0.0981114 0)
(7.4178 0.131714 0)
(7.46656 0.144183 0)
(7.50735 0.145334 0)
(7.54175 0.139919 0)
(7.57039 0.131285 0)
(7.59408 0.121758 0)
(7.61412 0.112431 0)
(7.6315 0.103785 0)
(7.64684 0.0960516 0)
(7.66062 0.0893145 0)
(7.67321 0.0835828 0)
(7.68485 0.0788429 0)
(7.69573 0.0750773 0)
(7.706 0.0722725 0)
(7.7158 0.0704246 0)
(7.72524 0.069541 0)
(7.73443 0.0696417 0)
(7.7435 0.0707587 0)
(7.75256 0.0729356 0)
(7.76178 0.0762254 0)
(7.77132 0.0806887 0)
(7.78139 0.0863892 0)
(7.79223 0.0933886 0)
(7.80413 0.101739 0)
(7.81745 0.11147 0)
(7.83259 0.122574 0)
(7.85004 0.134983 0)
(7.87038 0.148542 0)
(7.89417 0.162955 0)
(7.92224 0.17778 0)
(7.95489 0.19227 0)
(7.33547 0.0292703 0)
(7.35905 0.0804954 0)
(7.39979 0.111143 0)
(7.44145 0.124456 0)
(7.47793 0.127629 0)
(7.50969 0.124608 0)
(7.53693 0.11817 0)
(7.56005 0.110394 0)
(7.57996 0.102405 0)
(7.59744 0.0947658 0)
(7.61303 0.0877839 0)
(7.62714 0.0816119 0)
(7.6401 0.0763101 0)
(7.65214 0.0718982 0)
(7.66345 0.0683794 0)
(7.67419 0.0657519 0)
(7.68448 0.0640155 0)
(7.69445 0.0631764 0)
(7.70422 0.0632479 0)
(7.71391 0.0642507 0)
(7.72366 0.0662119 0)
(7.73362 0.069163 0)
(7.74397 0.0731367 0)
(7.75491 0.0781622 0)
(7.76669 0.0842587 0)
(7.77957 0.0914274 0)
(7.79389 0.0996385 0)
(7.81001 0.108818 0)
(7.82834 0.118823 0)
(7.84935 0.129428 0)
(7.8735 0.140275 0)
(7.90138 0.150878 0)
(7.93314 0.160546 0)
(7.33485 0.0236618 0)
(7.35316 0.0661002 0)
(7.3862 0.0934292 0)
(7.42179 0.106745 0)
(7.45435 0.111153 0)
(7.48357 0.109859 0)
(7.50936 0.105155 0)
(7.5318 0.0988574 0)
(7.55149 0.0920648 0)
(7.56902 0.0853756 0)
(7.58482 0.0791386 0)
(7.59924 0.0735468 0)
(7.61256 0.0686949 0)
(7.62501 0.0646267 0)
(7.63676 0.0613617 0)
(7.64796 0.0589076 0)
(7.65874 0.0572684 0)
(7.66923 0.0564489 0)
(7.67956 0.0564563 0)
(7.68985 0.0573007 0)
(7.70023 0.0589937 0)
(7.71088 0.0615464 0)
(7.72196 0.0649657 0)
(7.73366 0.0692494 0)
(7.74622 0.0743799 0)
(7.75989 0.0803152 0)
(7.77495 0.0869785 0)
(7.79173 0.0942449 0)
(7.81056 0.101924 0)
(7.83182 0.109744 0)
(7.85583 0.117327 0)
(7.88302 0.124182 0)
(7.91341 0.129696 0)
(7.33442 0.0191958 0)
(7.34889 0.054222 0)
(7.3759 0.0781212 0)
(7.40637 0.0908236 0)
(7.43541 0.0958508 0)
(7.46226 0.095746 0)
(7.4866 0.0923829 0)
(7.50829 0.0873104 0)
(7.52768 0.0815485 0)
(7.54519 0.0756967 0)
(7.56114 0.0701229 0)
(7.57582 0.0650476 0)
(7.58948 0.0605924 0)
(7.60231 0.056822 0)
(7.61448 0.0537692 0)
(7.62613 0.0514494 0)
(7.6374 0.0498686 0)
(7.64839 0.0490288 0)
(7.65925 0.04893 0)
(7.6701 0.0495708 0)
(7.68108 0.0509474 0)
(7.69234 0.0530514 0)
(7.70404 0.0558659 0)
(7.71638 0.0593615 0)
(7.72956 0.063489 0)
(7.74381 0.0681727 0)
(7.75937 0.0733002 0)
(7.77651 0.0787124 0)
(7.7955 0.0841898 0)
(7.81662 0.0894436 0)
(7.8401 0.0940983 0)
(7.86621 0.0976876 0)
(7.89488 0.0996868 0)
(7.33413 0.0155659 0)
(7.34574 0.0443091 0)
(7.36805 0.0648242 0)
(7.39425 0.0764769 0)
(7.42018 0.0816262 0)
(7.44485 0.0822437 0)
(7.46778 0.079846 0)
(7.4887 0.0757322 0)
(7.50774 0.070822 0)
(7.52516 0.0656932 0)
(7.54122 0.060715 0)
(7.55614 0.0561197 0)
(7.57011 0.0520437 0)
(7.58331 0.0485632 0)
(7.59589 0.0457189 0)
(7.60797 0.0435295 0)
(7.61969 0.0420009 0)
(7.63116 0.0411306 0)
(7.64251 0.0409114 0)
(7.65387 0.0413308 0)
(7.66536 0.0423709 0)
(7.67714 0.044006 0)
(7.68936 0.0461992 0)
(7.70219 0.0488981 0)
(7.71582 0.0520292 0)
(7.73045 0.0554917 0)
(7.74627 0.0591493 0)
(7.7635 0.0628232 0)
(7.78235 0.0662824 0)
(7.80302 0.0692383 0)
(7.82564 0.071337 0)
(7.85038 0.0721539 0)
(7.87712 0.0712537 0)
(7.33391 0.0125561 0)
(7.34341 0.035929 0)
(7.36204 0.0531906 0)
(7.38471 0.0634937 0)
(7.40794 0.0683735 0)
(7.43065 0.0693266 0)
(7.45227 0.0675685 0)
(7.47241 0.0641725 0)
(7.49106 0.0599453 0)
(7.50837 0.055422 0)
(7.52451 0.0509572 0)
(7.53962 0.046782 0)
(7.55388 0.0430382 0)
(7.56742 0.0398081 0)
(7.58037 0.0371364 0)
(7.59286 0.0350433 0)
(7.605 0.033533 0)
(7.61691 0.0325986 0)
(7.6287 0.0322253 0)
(7.64051 0.0323903 0)
(7.65244 0.0330632 0)
(7.66465 0.0342032 0)
(7.67728 0.0357568 0)
(7.69047 0.0376539 0)
(7.70438 0.0398031 0)
(7.71919 0.0420867 0)
(7.73506 0.044355 0)
(7.75215 0.0464215 0)
(7.77061 0.0480566 0)
(7.79057 0.0489861 0)
(7.81209 0.0488886 0)
(7.83528 0.0473903 0)
(7.85995 0.0441404 0)
(7.33376 0.0100115 0)
(7.34166 0.0287422 0)
(7.35744 0.0429188 0)
(7.37722 0.0516742 0)
(7.39813 0.055978 0)
(7.41911 0.0569445 0)
(7.43952 0.0555362 0)
(7.45892 0.052629 0)
(7.47718 0.0489141 0)
(7.49437 0.0448736 0)
(7.51055 0.0408372 0)
(7.52584 0.0370254 0)
(7.54035 0.0335778 0)
(7.5542 0.0305767 0)
(7.5675 0.0280662 0)
(7.58036 0.0260647 0)
(7.59289 0.0245724 0)
(7.60519 0.0235766 0)
(7.61737 0.0230546 0)
(7.62956 0.0229741 0)
(7.64186 0.0232933 0)
(7.6544 0.0239592 0)
(7.66731 0.024905 0)
(7.68072 0.0260477 0)
(7.69476 0.0272841 0)
(7.70958 0.0284872 0)
(7.72531 0.0295026 0)
(7.74205 0.0301454 0)
(7.75991 0.0301974 0)
(7.77896 0.0294069 0)
(7.79923 0.0274905 0)
(7.82074 0.0241291 0)
(7.8433 0.0190485 0)
(7.33364 0.00781767 0)
(7.34034 0.0224808 0)
(7.3539 0.0337475 0)
(7.37135 0.0408286 0)
(7.39031 0.0443177 0)
(7.40979 0.0450308 0)
(7.42913 0.0437213 0)
(7.44785 0.041095 0)
(7.46575 0.0377323 0)
(7.4828 0.0340549 0)
(7.49902 0.0303587 0)
(7.51446 0.0268456 0)
(7.52921 0.0236449 0)
(7.54335 0.0208335 0)
(7.55697 0.0184511 0)
(7.57018 0.0165114 0)
(7.58305 0.0150103 0)
(7.5957 0.0139287 0)
(7.60822 0.0132361 0)
(7.62072 0.0128921 0)
(7.63331 0.0128458 0)
(7.64608 0.0130346 0)
(7.65917 0.0133826 0)
(7.67268 0.0137986 0)
(7.68672 0.0141732 0)
(7.7014 0.0143768 0)
(7.71681 0.014257 0)
(7.73304 0.013638 0)
(7.75015 0.0123188 0)
(7.76817 0.0100769 0)
(7.78707 0.00667153 0)
(7.80685 0.00183415 0)
(7.82732 -0.00464281 0)
(7.33356 0.00588867 0)
(7.33934 0.0169312 0)
(7.3512 0.0254508 0)
(7.36678 0.0307788 0)
(7.38414 0.0332679 0)
(7.40235 0.0335077 0)
(7.42076 0.0320815 0)
(7.43889 0.029551 0)
(7.45647 0.0263939 0)
(7.4734 0.0229692 0)
(7.48965 0.0195345 0)
(7.50524 0.0162671 0)
(7.52021 0.0132816 0)
(7.53461 0.0106448 0)
(7.54853 0.00838856 0)
(7.56204 0.00652036 0)
(7.57523 0.00502766 0)
(7.58817 0.00388481 0)
(7.60097 0.00305442 0)
(7.61371 0.00248812 0)
(7.62649 0.00212718 0)
(7.63941 0.0019018 0)
(7.65257 0.00172988 0)
(7.66605 0.00151563 0)
(7.67996 0.00114804 0)
(7.69436 0.00049961 0)
(7.70933 -0.000574645 0)
(7.72492 -0.00223694 0)
(7.74116 -0.00466672 0)
(7.75804 -0.00805642 0)
(7.77554 -0.0126065 0)
(7.79359 -0.0185366 0)
(7.81203 -0.0259974 0)
(7.33349 0.00415756 0)
(7.3386 0.0119204 0)
(7.34915 0.0178316 0)
(7.36327 0.0213558 0)
(7.37934 0.0226981 0)
(7.39652 0.0222806 0)
(7.41417 0.0205494 0)
(7.4318 0.0179447 0)
(7.44912 0.0148514 0)
(7.46597 0.0115653 0)
(7.48228 0.00830153 0)
(7.49802 0.00520872 0)
(7.51321 0.00238169 0)
(7.52787 -0.000126841 0)
(7.54207 -0.00229552 0)
(7.55587 -0.00412577 0)
(7.56932 -0.00563783 0)
(7.58252 -0.00686447 0)
(7.59554 -0.00784982 0)
(7.60847 -0.00864851 0)
(7.62138 -0.00932485 0)
(7.63436 -0.00995316 0)
(7.6475 -0.0106184 0)
(7.66086 -0.0114171 0)
(7.67453 -0.0124579 0)
(7.68855 -0.0138619 0)
(7.70297 -0.0157629 0)
(7.71783 -0.0183063 0)
(7.73312 -0.0216471 0)
(7.74883 -0.0259484 0)
(7.7649 -0.0313745 0)
(7.78125 -0.0380971 0)
(7.79775 -0.0462205 0)
(7.33344 0.00257073 0)
(7.33804 0.00730518 0)
(7.34763 0.0107165 0)
(7.36064 0.0124006 0)
(7.37571 0.012479 0)
(7.39207 0.0112541 0)
(7.40914 0.00906362 0)
(7.42639 0.00624829 0)
(7.44353 0.00310809 0)
(7.46035 -0.000120174 0)
(7.47674 -0.00326476 0)
(7.49264 -0.00620903 0)
(7.50803 -0.00888165 0)
(7.52294 -0.0112475 0)
(7.53739 -0.0132987 0)
(7.55143 -0.0150489 0)
(7.56512 -0.0165263 0)
(7.57853 -0.0177723 0)
(7.59171 -0.0188388 0)
(7.60475 -0.0197861 0)
(7.61772 -0.0206831 0)
(7.63068 -0.0216072 0)
(7.64371 -0.0226441 0)
(7.65686 -0.0238888 0)
(7.67019 -0.0254449 0)
(7.68374 -0.027425 0)
(7.69754 -0.0299497 0)
(7.71159 -0.0331464 0)
(7.72589 -0.037147 0)
(7.74041 -0.0420852 0)
(7.75507 -0.0480906 0)
(7.76981 -0.0552974 0)
(7.78449 -0.0637721 0)
(7.33341 0.00108325 0)
(7.33765 0.00296288 0)
(7.34654 0.00394742 0)
(7.35874 0.00375596 0)
(7.37308 0.00246727 0)
(7.38887 0.000298718 0)
(7.40553 -0.00249788 0)
(7.42256 -0.00566691 0)
(7.43961 -0.00898274 0)
(7.45648 -0.0122666 0)
(7.473 -0.0153908 0)
(7.48911 -0.0182724 0)
(7.50474 -0.0208653 0)
(7.51991 -0.0231537 0)
(7.53462 -0.0251448 0)
(7.5489 -0.0268637 0)
(7.5628 -0.0283488 0)
(7.57638 -0.0296492 0)
(7.58969 -0.0308225 0)
(7.6028 -0.0319335 0)
(7.61576 -0.0330539 0)
(7.62864 -0.0342621 0)
(7.64149 -0.0356424 0)
(7.65436 -0.0372857 0)
(7.66729 -0.0392887 0)
(7.68031 -0.0417533 0)
(7.69342 -0.0447856 0)
(7.70664 -0.0484944 0)
(7.71993 -0.0529889 0)
(7.73326 -0.0583762 0)
(7.74656 -0.0647555 0)
(7.75976 -0.0722274 0)
(7.77274 -0.080828 0)
(7.33339 -0.000343449 0)
(7.33739 -0.00121408 0)
(7.34582 -0.00261931 0)
(7.35749 -0.00472452 0)
(7.37136 -0.00746457 0)
(7.38679 -0.010678 0)
(7.40322 -0.0141782 0)
(7.42015 -0.0177802 0)
(7.43723 -0.0213217 0)
(7.45421 -0.0246807 0)
(7.47092 -0.0277748 0)
(7.48724 -0.0305573 0)
(7.50313 -0.0330116 0)
(7.51854 -0.0351451 0)
(7.53348 -0.0369838 0)
(7.54798 -0.0385677 0)
(7.56206 -0.0399469 0)
(7.57577 -0.0411796 0)
(7.58916 -0.0423302 0)
(7.60228 -0.0434683 0)
(7.61518 -0.0446679 0)
(7.62791 -0.0460072 0)
(7.64052 -0.0475684 0)
(7.65305 -0.0494371 0)
(7.66552 -0.0517019 0)
(7.67796 -0.0544535 0)
(7.69036 -0.0577837 0)
(7.70272 -0.0617836 0)
(7.71501 -0.0665415 0)
(7.7272 -0.0721412 0)
(7.73921 -0.0786564 0)
(7.75098 -0.0861602 0)
(7.76242 -0.0946659 0)
(7.33337 -0.00174526 0)
(7.33725 -0.00532784 0)
(7.34542 -0.00913029 0)
(7.35682 -0.0132118 0)
(7.37048 -0.0175065 0)
(7.3858 -0.0218931 0)
(7.40222 -0.0262393 0)
(7.41924 -0.030421 0)
(7.43651 -0.0343364 0)
(7.45373 -0.0379145 0)
(7.47073 -0.0411155 0)
(7.48736 -0.0439277 0)
(7.50355 -0.0463625 0)
(7.51926 -0.0484499 0)
(7.53447 -0.0502337 0)
(7.54919 -0.0517681 0)
(7.56344 -0.0531144 0)
(7.57727 -0.0543394 0)
(7.59071 -0.0555134 0)
(7.6038 -0.0567098 0)
(7.6166 -0.0580039 0)
(7.62915 -0.0594732 0)
(7.64147 -0.0611963 0)
(7.65361 -0.0632528 0)
(7.66559 -0.0657229 0)
(7.67741 -0.068686 0)
(7.68908 -0.0722198 0)
(7.70058 -0.0763988 0)
(7.71188 -0.0812927 0)
(7.72296 -0.0869645 0)
(7.73375 -0.0934664 0)
(7.74418 -0.100848 0)
(7.75419 -0.109105 0)
(7.33337 -0.00315707 0)
(7.33721 -0.00947471 0)
(7.34533 -0.0157161 0)
(7.35669 -0.0218333 0)
(7.37037 -0.0277428 0)
(7.38579 -0.033345 0)
(7.40238 -0.0385487 0)
(7.41965 -0.0432837 0)
(7.4372 -0.0475059 0)
(7.45476 -0.0511989 0)
(7.4721 -0.054372 0)
(7.48908 -0.0570552 0)
(7.5056 -0.059295 0)
(7.52161 -0.0611498 0)
(7.53708 -0.0626863 0)
(7.55201 -0.063976 0)
(7.56642 -0.0650939 0)
(7.58034 -0.0661161 0)
(7.5938 -0.0671196 0)
(7.60684 -0.068181 0)
(7.6195 -0.0693767 0)
(7.63182 -0.0707822 0)
(7.64383 -0.0724723 0)
(7.65555 -0.07452 0)
(7.66701 -0.0769966 0)
(7.67821 -0.0799705 0)
(7.68915 -0.0835063 0)
(7.69981 -0.0876638 0)
(7.71018 -0.0924963 0)
(7.72022 -0.0980498 0)
(7.72988 -0.104359 0)
(7.73911 -0.111455 0)
(7.74785 -0.119323 0)
(7.33338 -0.00461567 0)
(7.33729 -0.0137666 0)
(7.34556 -0.022561 0)
(7.35716 -0.0308536 0)
(7.37116 -0.0385471 0)
(7.38698 -0.0455635 0)
(7.40404 -0.0518486 0)
(7.42182 -0.0573785 0)
(7.43991 -0.0621575 0)
(7.45799 -0.0662145 0)
(7.47585 -0.069599 0)
(7.4933 -0.0723769 0)
(7.51025 -0.0746252 0)
(7.52662 -0.0764282 0)
(7.5424 -0.0778741 0)
(7.55756 -0.0790522 0)
(7.57213 -0.0800511 0)
(7.58613 -0.0809577 0)
(7.59959 -0.0818561 0)
(7.61255 -0.0828276 0)
(7.62504 -0.0839501 0)
(7.63709 -0.0852982 0)
(7.64875 -0.0869431 0)
(7.66003 -0.088952 0)
(7.67094 -0.0913884 0)
(7.6815 -0.0943106 0)
(7.69171 -0.0977718 0)
(7.70155 -0.101819 0)
(7.71101 -0.106491 0)
(7.72005 -0.111819 0)
(7.72865 -0.117824 0)
(7.73674 -0.124522 0)
(7.7443 -0.131888 0)
(7.33339 -0.00615916 0)
(7.33746 -0.0182983 0)
(7.34607 -0.0297612 0)
(7.35813 -0.0402827 0)
(7.37267 -0.0497339 0)
(7.38908 -0.05805 0)
(7.40678 -0.065218 0)
(7.42521 -0.0712749 0)
(7.44394 -0.076293 0)
(7.46266 -0.0803662 0)
(7.4811 -0.0836018 0)
(7.4991 -0.0861145 0)
(7.51654 -0.0880215 0)
(7.53333 -0.0894387 0)
(7.54944 -0.0904787 0)
(7.56487 -0.0912491 0)
(7.57962 -0.0918516 0)
(7.59371 -0.0923819 0)
(7.60717 -0.0929296 0)
(7.62005 -0.0935781 0)
(7.63237 -0.094405 0)
(7.64417 -0.0954823 0)
(7.65547 -0.0968766 0)
(7.66631 -0.0986487 0)
(7.67669 -0.100854 0)
(7.68664 -0.103541 0)
(7.69615 -0.106753 0)
(7.70522 -0.110526 0)
(7.71383 -0.114886 0)
(7.72197 -0.119854 0)
(7.72961 -0.125439 0)
(7.73671 -0.131648 0)
(7.74327 -0.138448 0)
(7.33342 -0.00784116 0)
(7.3378 -0.0232599 0)
(7.34705 -0.0377026 0)
(7.35998 -0.050808 0)
(7.37552 -0.0624365 0)
(7.393 -0.0725335 0)
(7.41179 -0.0811051 0)
(7.43127 -0.0882199 0)
(7.45099 -0.09399 0)
(7.47061 -0.0985522 0)
(7.48985 -0.102058 0)
(7.50854 -0.104665 0)
(7.52655 -0.106531 0)
(7.54382 -0.107805 0)
(7.5603 -0.10863 0)
(7.57599 -0.109139 0)
(7.59089 -0.109453 0)
(7.60505 -0.109682 0)
(7.61848 -0.109927 0)
(7.63123 -0.110276 0)
(7.64333 -0.11081 0)
(7.65483 -0.111602 0)
(7.66574 -0.112714 0)
(7.6761 -0.114204 0)
(7.68594 -0.116119 0)
(7.69526 -0.118502 0)
(7.70406 -0.121384 0)
(7.71237 -0.124793 0)
(7.72016 -0.128746 0)
(7.72742 -0.133253 0)
(7.73414 -0.138314 0)
(7.7403 -0.143926 0)
(7.74588 -0.150053 0)
(7.33346 -0.0097062 0)
(7.33821 -0.0286908 0)
(7.34825 -0.0462048 0)
(7.3622 -0.0617303 0)
(7.37887 -0.075122 0)
(7.39756 -0.0863864 0)
(7.41757 -0.0956232 0)
(7.43826 -0.103008 0)
(7.45914 -0.10875 0)
(7.47983 -0.11307 0)
(7.50006 -0.116183 0)
(7.51962 -0.118298 0)
(7.53838 -0.119609 0)
(7.55627 -0.120295 0)
(7.57325 -0.120521 0)
(7.58931 -0.120433 0)
(7.60447 -0.120162 0)
(7.61877 -0.119826 0)
(7.63223 -0.119528 0)
(7.6449 -0.119359 0)
(7.65683 -0.1194 0)
(7.66805 -0.119719 0)
(7.67861 -0.120377 0)
(7.68854 -0.121423 0)
(7.69786 -0.122901 0)
(7.7066 -0.124844 0)
(7.71476 -0.127279 0)
(7.72236 -0.130223 0)
(7.72941 -0.133688 0)
(7.7359 -0.137674 0)
(7.74182 -0.142177 0)
(7.74718 -0.147189 0)
(7.75197 -0.152668 0)
(7.33354 -0.0118748 0)
(7.33905 -0.0351449 0)
(7.35056 -0.0566105 0)
(7.3664 -0.0756371 0)
(7.3851 -0.0920415 0)
(7.4058 -0.105781 0)
(7.42771 -0.116932 0)
(7.45011 -0.125693 0)
(7.4725 -0.132331 0)
(7.4945 -0.137135 0)
(7.51583 -0.140398 0)
(7.53631 -0.142404 0)
(7.55582 -0.143412 0)
(7.57429 -0.14366 0)
(7.59171 -0.143358 0)
(7.60807 -0.142688 0)
(7.62341 -0.14181 0)
(7.63776 -0.140859 0)
(7.65118 -0.139952 0)
(7.66371 -0.139186 0)
(7.6754 -0.138643 0)
(7.68629 -0.138393 0)
(7.69645 -0.138493 0)
(7.7059 -0.138987 0)
(7.71467 -0.139912 0)
(7.7228 -0.141294 0)
(7.7303 -0.143154 0)
(7.7372 -0.145501 0)
(7.74351 -0.14834 0)
(7.74923 -0.151665 0)
(7.75436 -0.155464 0)
(7.75891 -0.159724 0)
(7.76288 -0.164403 0)
(7.33357 -0.0143537 0)
(7.33968 -0.0421175 0)
(7.35252 -0.066976 0)
(7.37008 -0.0882041 0)
(7.39073 -0.10586 0)
(7.41355 -0.120164 0)
(7.43765 -0.131412 0)
(7.46221 -0.139965 0)
(7.48661 -0.146198 0)
(7.51045 -0.150467 0)
(7.5334 -0.153106 0)
(7.55527 -0.154426 0)
(7.57593 -0.154708 0)
(7.59534 -0.154205 0)
(7.61349 -0.153138 0)
(7.63039 -0.151701 0)
(7.6461 -0.150063 0)
(7.66066 -0.148365 0)
(7.67415 -0.14673 0)
(7.68662 -0.145259 0)
(7.69815 -0.144036 0)
(7.7088 -0.143129 0)
(7.71861 -0.142593 0)
(7.72764 -0.142471 0)
(7.73594 -0.142795 0)
(7.74354 -0.143587 0)
(7.75046 -0.144861 0)
(7.75675 -0.146623 0)
(7.76241 -0.148872 0)
(7.76747 -0.151599 0)
(7.77195 -0.154789 0)
(7.77586 -0.158423 0)
(7.77922 -0.162458 0)
(7.33383 -0.0175949 0)
(7.34192 -0.0520928 0)
(7.35814 -0.083389 0)
(7.37946 -0.110367 0)
(7.40367 -0.132789 0)
(7.42968 -0.15067 0)
(7.45654 -0.164314 0)
(7.48344 -0.17424 0)
(7.50983 -0.181018 0)
(7.53534 -0.185201 0)
(7.55969 -0.187303 0)
(7.58271 -0.187783 0)
(7.60432 -0.187038 0)
(7.62447 -0.185407 0)
(7.64318 -0.183173 0)
(7.66048 -0.18057 0)
(7.67643 -0.177793 0)
(7.69109 -0.174998 0)
(7.70455 -0.172313 0)
(7.71688 -0.16984 0)
(7.72816 -0.167659 0)
(7.73846 -0.165832 0)
(7.74785 -0.164408 0)
(7.75638 -0.163422 0)
(7.7641 -0.162897 0)
(7.77107 -0.162849 0)
(7.77733 -0.163284 0)
(7.7829 -0.164204 0)
(7.78783 -0.165601 0)
(7.79213 -0.167464 0)
(7.79583 -0.169772 0)
(7.79895 -0.172505 0)
(7.8015 -0.175616 0)
(7.33371 -0.0210997 0)
(7.34225 -0.0606671 0)
(7.36042 -0.0941768 0)
(7.38474 -0.121586 0)
(7.4127 -0.143799 0)
(7.44292 -0.161318 0)
(7.47402 -0.174607 0)
(7.50488 -0.184215 0)
(7.53481 -0.190672 0)
(7.56335 -0.194473 0)
(7.59022 -0.196095 0)
(7.61526 -0.195981 0)
(7.63842 -0.194529 0)
(7.65973 -0.192094 0)
(7.67923 -0.188983 0)
(7.69703 -0.185455 0)
(7.71321 -0.181729 0)
(7.72789 -0.177985 0)
(7.74119 -0.174365 0)
(7.75321 -0.170984 0)
(7.76405 -0.167932 0)
(7.7738 -0.165274 0)
(7.78255 -0.163058 0)
(7.79038 -0.161319 0)
(7.79734 -0.160077 0)
(7.80351 -0.159343 0)
(7.80892 -0.159119 0)
(7.81362 -0.159402 0)
(7.81766 -0.160182 0)
(7.82108 -0.161443 0)
(7.8239 -0.163164 0)
(7.82617 -0.165324 0)
(7.82793 -0.167868 0)
(7.33483 -0.0275404 0)
(7.34968 -0.0815926 0)
(7.37564 -0.128466 0)
(7.40641 -0.166293 0)
(7.4392 -0.195405 0)
(7.47322 -0.216587 0)
(7.50737 -0.231077 0)
(7.5407 -0.2402 0)
(7.57263 -0.245091 0)
(7.60279 -0.246709 0)
(7.63092 -0.245857 0)
(7.65689 -0.24319 0)
(7.6807 -0.239234 0)
(7.70238 -0.234411 0)
(7.72204 -0.229058 0)
(7.73979 -0.223444 0)
(7.75578 -0.217782 0)
(7.77015 -0.212236 0)
(7.78305 -0.206937 0)
(7.7946 -0.201981 0)
(7.80494 -0.197442 0)
(7.81417 -0.193371 0)
(7.82239 -0.189804 0)
(7.82971 -0.186761 0)
(7.83618 -0.184254 0)
(7.84188 -0.182285 0)
(7.84687 -0.180851 0)
(7.8512 -0.179942 0)
(7.85492 -0.179549 0)
(7.85806 -0.179656 0)
(7.86067 -0.180245 0)
(7.86279 -0.181299 0)
(7.86445 -0.18276 0)
(7.33381 -0.0313955 0)
(7.34781 -0.085314 0)
(7.37823 -0.127644 0)
(7.41662 -0.16249 0)
(7.45808 -0.191117 0)
(7.50034 -0.213195 0)
(7.5415 -0.229163 0)
(7.58056 -0.23978 0)
(7.6172 -0.245787 0)
(7.65136 -0.247978 0)
(7.68307 -0.247154 0)
(7.71245 -0.24405 0)
(7.73965 -0.239305 0)
(7.76483 -0.233462 0)
(7.78812 -0.226964 0)
(7.80967 -0.220166 0)
(7.8296 -0.21334 0)
(7.84803 -0.206697 0)
(7.86507 -0.200392 0)
(7.88082 -0.194533 0)
(7.89538 -0.189199 0)
(7.90884 -0.184436 0)
(7.92128 -0.180271 0)
(7.93278 -0.176715 0)
(7.94341 -0.173768 0)
(7.95322 -0.171419 0)
(7.96227 -0.169654 0)
(7.97061 -0.168457 0)
(7.97827 -0.167814 0)
(7.98532 -0.167708 0)
(7.99179 -0.168134 0)
(7.99775 -0.169081 0)
(8.00329 -0.170513 0)
(7.33893 -0.0540031 0)
(7.37203 -0.150469 0)
(7.41498 -0.219011 0)
(7.45879 -0.2653 0)
(7.50558 -0.295502 0)
(7.55618 -0.313578 0)
(7.60908 -0.323228 0)
(7.66314 -0.327145 0)
(7.71746 -0.327034 0)
(7.77104 -0.324066 0)
(7.82297 -0.319064 0)
(7.8726 -0.312616 0)
(7.91946 -0.305164 0)
(7.96327 -0.297059 0)
(8.00388 -0.288583 0)
(8.04127 -0.279972 0)
(8.07549 -0.271423 0)
(8.10669 -0.263097 0)
(8.13503 -0.255125 0)
(8.16071 -0.247607 0)
(8.18393 -0.240619 0)
(8.20488 -0.234212 0)
(8.22376 -0.228417 0)
(8.24075 -0.22325 0)
(8.25601 -0.218712 0)
(8.26968 -0.214796 0)
(8.28189 -0.21149 0)
(8.29274 -0.208779 0)
(8.30234 -0.206658 0)
(8.31074 -0.20512 0)
(8.31804 -0.204207 0)
(8.32431 -0.203909 0)
(8.3297 -0.20439 0)
(7.33757 -0.0401185 0)
(7.38858 -0.104896 0)
(7.47788 -0.162072 0)
(7.57954 -0.21724 0)
(7.68747 -0.26415 0)
(7.79652 -0.300476 0)
(7.90073 -0.32688 0)
(7.99663 -0.344075 0)
(8.08227 -0.353156 0)
(8.15658 -0.3556 0)
(8.21936 -0.352878 0)
(8.27101 -0.34631 0)
(8.3123 -0.337038 0)
(8.3442 -0.326003 0)
(8.36778 -0.313955 0)
(8.38411 -0.301477 0)
(8.39421 -0.289012 0)
(8.39901 -0.276883 0)
(8.39935 -0.265321 0)
(8.39596 -0.254478 0)
(8.38944 -0.24445 0)
(8.38035 -0.235284 0)
(8.3691 -0.226995 0)
(8.35608 -0.219569 0)
(8.34157 -0.212974 0)
(8.32581 -0.207164 0)
(8.309 -0.202086 0)
(8.29126 -0.197684 0)
(8.27271 -0.193913 0)
(8.25334 -0.190739 0)
(8.23329 -0.188237 0)
(8.21225 -0.186348 0)
(8.1909 -0.186019 0)
(7.39943 -0.196559 0)
(7.5955 -0.375503 0)
(7.76821 -0.458086 0)
(7.89545 -0.511654 0)
(7.97922 -0.54007 0)
(8.01764 -0.549187 0)
(8.01492 -0.545645 0)
(7.97942 -0.532805 0)
(7.91877 -0.513173 0)
(7.83953 -0.489016 0)
(7.74743 -0.462127 0)
(7.64718 -0.4339 0)
(7.54246 -0.405416 0)
(7.43605 -0.37748 0)
(7.33001 -0.350665 0)
(7.22582 -0.325351 0)
(7.12446 -0.30177 0)
(7.02658 -0.280035 0)
(6.93253 -0.260176 0)
(6.84248 -0.242162 0)
(6.75643 -0.22592 0)
(6.67432 -0.21135 0)
(6.59597 -0.198334 0)
(6.52121 -0.186745 0)
(6.44982 -0.17645 0)
(6.38156 -0.167313 0)
(6.3162 -0.159191 0)
(6.25349 -0.151947 0)
(6.19317 -0.145414 0)
(6.13487 -0.139444 0)
(6.07828 -0.133924 0)
(6.0224 -0.128067 0)
(5.96763 -0.125193 0)
(7.16018 -0.185777 0)
(6.9113 -0.34493 0)
(6.50071 -0.392177 0)
(6.03776 -0.393636 0)
(5.59847 -0.365561 0)
(5.18306 -0.321763 0)
(4.79555 -0.273149 0)
(4.44268 -0.225329 0)
(4.12497 -0.18128 0)
(3.84073 -0.142479 0)
(3.5879 -0.109319 0)
(3.3639 -0.0816098 0)
(3.16587 -0.0588713 0)
(2.99098 -0.0404834 0)
(2.83656 -0.0257966 0)
(2.70009 -0.0141971 0)
(2.5793 -0.00513717 0)
(2.47215 0.001855 0)
(2.37683 0.00717564 0)
(2.29173 0.0111522 0)
(2.21547 0.0140524 0)
(2.14681 0.0160942 0)
(2.0847 0.0174549 0)
(2.02824 0.0182799 0)
(1.97662 0.0186937 0)
(1.9292 0.0188042 0)
(1.8854 0.0187306 0)
(1.84484 0.0185926 0)
(1.80701 0.0186099 0)
(1.7721 0.0190823 0)
(1.73922 0.0203367 0)
(1.71038 0.024885 0)
(1.68361 0.0200248 0)
(0.599088 -0.00999782 0)
(0.887047 0.334303 0)
(1.68543 0.877587 0)
(2.56601 1.40554 0)
(3.39544 1.77426 0)
(4.15193 1.9197 0)
(4.82528 1.81033 0)
(5.394 1.46341 0)
(5.84887 0.944959 0)
(6.21061 0.319357 0)
(6.50083 -0.37118 0)
(6.63827 -1.04827 0)
(6.58153 -1.62751 0)
(6.52291 -2.14577 0)
(6.68991 -2.71625 0)
(7.00292 -3.32675 0)
(7.13392 -3.78992 0)
(6.86307 -3.90618 0)
(6.26435 -3.62452 0)
(5.57501 -3.04084 0)
(4.99314 -2.29005 0)