# y+ ()       
# Time        	patch         	min           	max           	average       
1100          	lowerWall	5.207954e+00	7.786672e+01	4.312802e+01
1100          	upperWall	3.060454e+01	4.714296e+01	4.147093e+01
