/*--------------------------------*- C++ -*----------------------------------*\
  =========                 |
  \\      /  F ield         | OpenFOAM: The Open Source CFD Toolbox
   \\    /   O peration     | Website:  https://openfoam.org
    \\  /    A nd           | Version:  10
     \\/     M anipulation  |
\*---------------------------------------------------------------------------*/
FoamFile
{
    format      ascii;
    class       volScalarField;
    location    "0.07";
    object      k;
}
// * * * * * * * * * * * * * * * * * * * * * * * * * * * * * * * * * * * * * //

dimensions      [0 2 -2 0 0 0 0];

internalField   nonuniform List<scalar> 
6820
(
0.198345
0.194814
0.191227
0.187618
0.184036
0.180506
0.17704
0.17364
0.170307
0.167039
0.163836
0.160693
0.157606
0.154572
0.151585
0.14864
0.145729
0.142845
0.13998
0.137121
0.134255
0.131366
0.128431
0.125421
0.122299
0.119015
0.115502
0.111674
0.107419
0.102571
0.0969462
0.0903237
0.0816722
0.200925
0.2009
0.200468
0.200004
0.199537
0.199058
0.198562
0.198047
0.197512
0.196959
0.19639
0.195807
0.195214
0.194613
0.194006
0.193397
0.192789
0.192182
0.19158
0.190985
0.190399
0.189824
0.18926
0.188708
0.188166
0.187628
0.187084
0.186511
0.185873
0.185096
0.184093
0.182603
0.180638
0.236736
0.0163505
0.0232498
0.0109574
0.00658983
0.00785085
0.00942386
0.011357
0.0134558
0.0156349
0.0178694
0.0201423
0.0224432
0.0247661
0.0271084
0.0294697
0.0318527
0.0342624
0.036707
0.0391983
0.0417521
0.0443899
0.0471399
0.0500388
0.0531338
0.0564853
0.0601692
0.0642797
0.0689283
0.074251
0.0803849
0.0874863
0.0956683
0.210794
0.147857
0.104736
0.0793468
0.0637157
0.0531521
0.0453796
0.0392923
0.0343148
0.0301239
0.0265241
0.0233903
0.0206381
0.0182093
0.0160631
0.0141701
0.0125098
0.011067
0.00983014
0.00878935
0.00793538
0.00725898
0.00675139
0.00640583
0.0062198
0.00619815
0.00635689
0.0067289
0.00737038
0.0083765
0.00988255
0.0121226
0.015303
0.223374
0.0830966
0.021432
0.00432072
0.000773865
0.000469685
0.000751088
0.00104689
0.00129051
0.00149713
0.00167947
0.00184182
0.00198436
0.0021061
0.00220608
0.00228375
0.00233906
0.00237229
0.00238399
0.00237476
0.0023451
0.00229524
0.00222493
0.00213332
0.00201877
0.00187876
0.00171007
0.00150793
0.00127316
0.000984619
0.000717495
0.000156324
0.00167746
0.216941
0.11567
0.0555792
0.0317405
0.0223647
0.0177945
0.0145776
0.0116323
0.00875849
0.00610619
0.00391031
0.00230565
0.00126631
0.00066098
0.000338114
0.000177543
0.000102
6.8083e-05
5.3595e-05
4.81501e-05
4.73808e-05
4.95967e-05
5.39569e-05
5.99048e-05
6.68797e-05
7.07808e-05
7.45572e-05
7.60983e-05
0.000804632
0.000377889
0.000602307
0.000464424
0.000298902
0.213481
0.133054
0.0690138
0.0381628
0.0249139
0.0189537
0.0158841
0.0140626
0.0128503
0.0119666
0.0112767
0.0107112
0.0102316
0.00981293
0.00943483
0.00907563
0.00870769
0.00829614
0.00780823
0.00723946
0.00663551
0.00606834
0.00558388
0.00518577
0.00485858
0.0045809
0.00433493
0.0041072
0.00388558
0.0036746
0.00346668
0.00326309
0.003055
0.204441
0.178127
0.132594
0.0835556
0.0509849
0.0334356
0.0243455
0.0194369
0.0165801
0.014777
0.0135529
0.0126689
0.0119959
0.0114585
0.0110095
0.0106178
0.0102607
0.00992307
0.0095974
0.00928314
0.00898128
0.00869188
0.00841177
0.00813773
0.007871
0.00761134
0.00735693
0.00710567
0.00685617
0.00660523
0.00635355
0.006102
0.0058504
0.203234
0.183992
0.161304
0.131332
0.0995078
0.0738259
0.0557589
0.0437622
0.0358729
0.0305685
0.0268656
0.0241701
0.0221257
0.0205149
0.019202
0.0181006
0.0171559
0.0163339
0.0156134
0.0149754
0.0143984
0.0138592
0.0133371
0.0128271
0.0123292
0.0118419
0.0113635
0.010892
0.0104267
0.00996748
0.00951545
0.00907292
0.00864038
0.202682
0.186751
0.172044
0.158318
0.141037
0.120588
0.0999986
0.0821049
0.0680466
0.0575516
0.0498378
0.044138
0.0398564
0.0365702
0.0339895
0.0319149
0.030206
0.0287599
0.027499
0.0263621
0.0252951
0.0242522
0.0232192
0.0222021
0.0212057
0.0202307
0.0192758
0.0183391
0.0174201
0.0165191
0.0156385
0.0147829
0.0139524
0.202321
0.188561
0.176057
0.166759
0.158338
0.149335
0.139003
0.127497
0.115723
0.104605
0.0946947
0.0861997
0.0790965
0.0732365
0.0684253
0.0644642
0.0611625
0.0583418
0.0558541
0.0535492
0.0513016
0.0490642
0.046852
0.0446848
0.042573
0.040518
0.0385166
0.0365641
0.0346582
0.032799
0.0309904
0.0292408
0.0275483
0.202071
0.18982
0.178594
0.170681
0.16474
0.159594
0.154475
0.148918
0.142863
0.136555
0.130238
0.124151
0.118533
0.113524
0.109148
0.105337
0.10192
0.0986523
0.0953898
0.0920526
0.0886017
0.0850865
0.0815733
0.0781154
0.0747439
0.0714695
0.0682904
0.0651989
0.0621891
0.0592575
0.0564068
0.0536463
0.0509689
0.201892
0.190722
0.180046
0.172358
0.166914
0.162889
0.159746
0.157031
0.154434
0.151821
0.149134
0.146378
0.143618
0.140912
0.138278
0.135695
0.133099
0.130385
0.127506
0.124462
0.121289
0.118039
0.11476
0.111482
0.10822
0.104974
0.101741
0.09852
0.095313
0.0921247
0.0889647
0.0858454
0.0827601
0.201779
0.191301
0.180862
0.173204
0.167856
0.164095
0.161419
0.159416
0.157785
0.156342
0.15499
0.153674
0.152361
0.151023
0.149621
0.148108
0.146432
0.144553
0.142458
0.140172
0.137745
0.13524
0.132713
0.130205
0.127732
0.125297
0.122891
0.120499
0.118109
0.115707
0.113291
0.110854
0.108382
0.201717
0.191625
0.181204
0.173402
0.16795
0.164214
0.161734
0.160128
0.159086
0.158386
0.157866
0.157404
0.156905
0.156299
0.155531
0.154557
0.153351
0.151906
0.150242
0.148402
0.146444
0.144432
0.14242
0.140449
0.138539
0.136696
0.134911
0.13317
0.131456
0.129751
0.128042
0.126312
0.124533
0.201701
0.191726
0.181122
0.173052
0.167399
0.163561
0.16106
0.159503
0.158584
0.158088
0.157855
0.157754
0.157678
0.157535
0.15725
0.156766
0.156045
0.155076
0.153874
0.152476
0.150937
0.149317
0.147667
0.146032
0.144436
0.142893
0.141403
0.139959
0.138549
0.137159
0.135779
0.134386
0.132947
0.201726
0.191622
0.180629
0.17215
0.166179
0.162132
0.159511
0.157906
0.157004
0.156582
0.156467
0.156518
0.156615
0.15666
0.15658
0.156324
0.155868
0.155207
0.15436
0.153361
0.15225
0.15107
0.149859
0.148645
0.147445
0.146264
0.145103
0.143954
0.142806
0.14165
0.140472
0.139252
0.137964
0.201794
0.191314
0.179711
0.170673
0.164286
0.159959
0.157158
0.155441
0.154478
0.154034
0.153936
0.154042
0.154234
0.154413
0.154509
0.154471
0.154272
0.153905
0.153381
0.152722
0.151958
0.15112
0.150235
0.149322
0.148391
0.147448
0.14649
0.145511
0.144502
0.143444
0.142302
0.141075
0.139782
0.201913
0.190774
0.178297
0.168525
0.161604
0.156919
0.153884
0.152017
0.150963
0.150476
0.150373
0.150507
0.150755
0.151021
0.151236
0.151354
0.151356
0.151236
0.151003
0.150675
0.15027
0.149805
0.149293
0.14874
0.148148
0.147512
0.146825
0.146078
0.145237
0.144251
0.143107
0.141836
0.140487
0.202103
0.18991
0.176232
0.165551
0.158026
0.15296
0.149688
0.147675
0.146537
0.146012
0.145909
0.146078
0.146395
0.146765
0.147118
0.147411
0.147623
0.147747
0.147785
0.147746
0.147638
0.14747
0.147244
0.146959
0.146609
0.146186
0.145675
0.145043
0.144234
0.143223
0.142033
0.140699
0.139252
0.202374
0.188647
0.173423
0.161673
0.153489
0.148035
0.144538
0.142399
0.141199
0.140658
0.140579
0.140804
0.141208
0.141694
0.142195
0.142669
0.143095
0.143465
0.143781
0.144044
0.144255
0.144412
0.14451
0.144537
0.144482
0.144318
0.143987
0.143444
0.142667
0.141669
0.140479
0.13913
0.137617
0.202741
0.186914
0.169735
0.156741
0.147855
0.142029
0.138345
0.136123
0.134905
0.134391
0.134374
0.134691
0.135213
0.135842
0.136509
0.137173
0.137811
0.138416
0.138983
0.139509
0.13999
0.140417
0.140776
0.141053
0.141211
0.141182
0.140913
0.140391
0.139623
0.138628
0.137439
0.136085
0.134528
0.203241
0.184559
0.164923
0.150513
0.140925
0.134789
0.130996
0.128767
0.127603
0.127184
0.127293
0.127763
0.128461
0.129286
0.130168
0.131065
0.131953
0.132823
0.133669
0.134484
0.135257
0.135977
0.136617
0.137144
0.137476
0.13756
0.137377
0.136928
0.13623
0.135302
0.134176
0.132871
0.131321
0.203924
0.181331
0.158645
0.142686
0.132454
0.126112
0.122307
0.120154
0.119108
0.118833
0.119107
0.11976
0.120657
0.121693
0.122798
0.123926
0.125056
0.126175
0.127277
0.128351
0.129385
0.130356
0.131194
0.131839
0.132239
0.132379
0.132254
0.131868
0.131235
0.130379
0.129328
0.128099
0.126596
0.20487
0.176862
0.150469
0.132929
0.12222
0.115861
0.112208
0.110266
0.109452
0.109422
0.109952
0.110872
0.112045
0.113365
0.114758
0.116177
0.117599
0.119011
0.120404
0.121762
0.123061
0.124253
0.125266
0.126055
0.126595
0.126871
0.126883
0.12664
0.126158
0.125454
0.124554
0.12347
0.122082
0.206188
0.170619
0.139854
0.120852
0.109926
0.103753
0.10038
0.0987186
0.0981678
0.0983883
0.0991641
0.100332
0.101759
0.103338
0.104991
0.106671
0.108353
0.110023
0.111672
0.113247
0.114695
0.115977
0.117058
0.11792
0.118548
0.118934
0.119072
0.118972
0.118651
0.118127
0.117424
0.116535
0.115321
0.208023
0.161903
0.126332
0.106321
0.0956468
0.089991
0.0871182
0.0858897
0.0857151
0.0862745
0.0873696
0.0888503
0.0905889
0.0924788
0.0944421
0.0964245
0.0983925
0.100328
0.102218
0.104002
0.105638
0.107097
0.108359
0.109409
0.110234
0.110833
0.111206
0.111358
0.111303
0.11106
0.110636
0.109954
0.108876
0.21053
0.14992
0.109552
0.0892183
0.0792255
0.0742528
0.0718882
0.0710154
0.0710926
0.0718434
0.0731054
0.0747547
0.076676
0.0787629
0.0809309
0.0830966
0.0852
0.087211
0.0891161
0.0908914
0.0925301
0.0940301
0.0953779
0.0965542
0.0975474
0.0983555
0.098984
0.09944
0.0997339
0.0998697
0.0998137
0.0994742
0.0987312
0.213742
0.134391
0.0903004
0.0708246
0.0621362
0.0581229
0.0563752
0.0558874
0.0562039
0.0571011
0.0584527
0.0601661
0.0621481
0.0643013
0.0665382
0.0687703
0.0709429
0.0730275
0.0750104
0.0768793
0.078631
0.0802723
0.0817997
0.0831991
0.0844658
0.0855984
0.0865948
0.0874542
0.0881816
0.088729
0.089024
0.0890106
0.0885973
0.217405
0.11633
0.0701471
0.0522808
0.0449998
0.0418057
0.0404471
0.0400771
0.0403373
0.0410645
0.042179
0.0436225
0.045316
0.0471542
0.0490383
0.050901
0.0527151
0.0544723
0.0561791
0.0578512
0.0594941
0.0611066
0.0626884
0.0642349
0.0657381
0.0671905
0.0685863
0.0699235
0.0711851
0.0722896
0.0731665
0.0737742
0.0740293
0.220566
0.100084
0.0541817
0.0385951
0.0327701
0.0302525
0.0290794
0.0286004
0.0285569
0.0288339
0.0293834
0.0301751
0.0311675
0.0323017
0.0335111
0.0347391
0.0359619
0.0371879
0.0384401
0.0397436
0.0411151
0.0425589
0.0440662
0.0456244
0.0472221
0.048848
0.0504927
0.0521346
0.0537129
0.0551653
0.056449
0.0575275
0.0583347
0.222014
0.0919016
0.0465776
0.0320729
0.0267644
0.0242998
0.0228768
0.0219582
0.0213633
0.021014
0.0208615
0.0208667
0.0209982
0.0212332
0.021557
0.021962
0.0224514
0.0230394
0.0237418
0.0245671
0.0255145
0.0265758
0.0277393
0.028995
0.0303354
0.031756
0.03325
0.0347911
0.0363348
0.0378469
0.0392956
0.0406496
0.0418605
0.222159
0.0899639
0.0437368
0.0286418
0.0228225
0.0198702
0.0179688
0.0165744
0.0154859
0.0145974
0.0138503
0.0132281
0.0127438
0.0124137
0.0122384
0.0122005
0.0122735
0.0124337
0.0126702
0.012985
0.0133865
0.0138817
0.0144734
0.0151593
0.0159342
0.0167918
0.0177266
0.0187238
0.0197669
0.0208439
0.0219445
0.023057
0.0241607
0.224059
0.0800761
0.0307126
0.0162488
0.0117059
0.00991898
0.00895738
0.00829281
0.00775993
0.00728901
0.00684943
0.00644114
0.00608447
0.00580183
0.00560119
0.00547159
0.00539023
0.00533527
0.00529693
0.00528169
0.00530857
0.0054008
0.00557728
0.00584735
0.00621029
0.00665863
0.00718166
0.00776507
0.00839874
0.00907542
0.00978965
0.0105356
0.0113053
0.225458
0.0730242
0.0240749
0.0106319
0.00683981
0.00558465
0.00502055
0.00466651
0.00438668
0.00413432
0.00389161
0.00365756
0.00343932
0.0032437
0.00307115
0.00291526
0.00276665
0.00261814
0.00246853
0.00232334
0.00219303
0.00209019
0.00202701
0.00201356
0.00205705
0.00216146
0.00232765
0.0025532
0.0028329
0.00315848
0.00352102
0.00391019
0.00432036
0.223409
0.0819378
0.0329582
0.0179817
0.0128265
0.0104604
0.00893248
0.00769434
0.00659024
0.00558033
0.004661
0.00384012
0.0031244
0.0025142
0.002004
0.0015847
0.00124547
0.000974959
0.000762177
0.000596917
0.00047004
0.00037361
0.000300952
0.000246605
0.000206209
0.000176347
0.000154366
0.000138233
0.000126402
0.000117694
0.000111219
0.000106291
0.00010281
0.212842
0.136544
0.0903961
0.0660154
0.052552
0.0443745
0.0389065
0.03496
0.0319485
0.0295516
0.0275822
0.0259227
0.0244935
0.0232416
0.0221306
0.0211323
0.020225
0.0193924
0.0186225
0.0179061
0.0172358
0.016606
0.0160121
0.0154508
0.0149195
0.0144161
0.0139391
0.0134871
0.0130588
0.012653
0.0122677
0.0119051
0.0115507
0.240244
0.000491114
0.0367699
0.000177067
1.02275e-05
0.00104894
0.000859465
0.000420996
0.000178796
0.000203179
0.000597607
0.00107012
0.00117541
0.000887709
0.000652421
0.000656094
0.0007402
0.00080359
0.000859372
0.000924357
0.000994295
0.00106389
0.00113264
0.00120094
0.00126847
0.0013349
0.00140012
0.00146403
0.00152644
0.00158714
0.00164592
0.00170289
0.00175702
0.200085
0.199952
0.199774
0.199604
0.199449
0.199303
0.199164
0.199029
0.198895
0.198763
0.198629
0.198496
0.19836
0.198222
0.198081
0.197939
0.197793
0.197644
0.197493
0.197338
0.197181
0.19702
0.196857
0.19669
0.19652
0.196348
0.196173
0.195996
0.195816
0.195634
0.19545
0.195267
0.195069
0.199876
0.199563
0.199223
0.198868
0.198506
0.198145
0.197786
0.197433
0.197086
0.196746
0.196415
0.196092
0.195778
0.195473
0.195178
0.194891
0.194614
0.194347
0.194089
0.19384
0.1936
0.193369
0.193147
0.192933
0.192727
0.19253
0.192339
0.192156
0.191979
0.191808
0.191643
0.191483
0.191328
0.0727387
0.0729531
0.0921166
0.109439
0.118431
0.123149
0.125953
0.129447
0.137117
0.131862
0.101451
0.0600747
0.0264383
0.00837553
0.00257985
0.000246328
0.00495407
0.0277392
0.0551791
0.0831707
0.115421
0.15008
0.183891
0.215023
0.243276
0.27008
0.296438
0.320477
0.336717
0.340321
0.332029
0.311557
0.277304
0.231623
0.187767
0.154108
0.119466
0.0761385
0.0378307
0.0243599
0.0392055
0.0689118
0.0976194
0.116797
0.125403
0.12607
0.121965
0.115414
0.107706
0.0993661
0.090495
0.0810615
0.071129
0.0610068
0.0513094
0.0429032
0.0367403
0.0336253
0.0339941
0.0377882
0.0444739
0.0531927
0.0629797
0.0729654
0.0825009
0.0911885
0.0988422
0.105418
0.110953
0.115525
0.119127
0.121177
0.119684
0.111707
0.0971485
0.0822949
0.0759575
0.0785403
0.08166
0.0787109
0.0746945
0.085638
0.110223
0.132714
0.14317
0.14254
0.136771
0.130447
0.125391
0.121915
0.119956
0.1195
0.120281
0.12143
0.121431
0.119292
0.114365
0.106867
0.0978061
0.0830832
0.175578
0.164197
0.149297
0.136823
0.130098
0.127634
0.128741
0.135981
0.134662
0.109221
0.0690295
0.0328312
0.011026
0.00285077
0.002416
0.00196013
0.00188706
0.0178383
0.0451744
0.0733008
0.103744
0.137081
0.170859
0.20304
0.232241
0.258942
0.283731
0.305217
0.319175
0.321414
0.312943
0.29251
0.257698
0.213648
0.175028
0.144873
0.109219
0.0653204
0.0311539
0.0246492
0.0447493
0.0760375
0.103669
0.120892
0.127801
0.127379
0.122696
0.115849
0.107927
0.0993353
0.0901401
0.0803278
0.0700123
0.0595702
0.0496853
0.0412795
0.0353322
0.0326362
0.033576
0.0380132
0.0453245
0.0545742
0.0647468
0.0749561
0.0845648
0.0932057
0.100729
0.107122
0.112444
0.116788
0.120185
0.122142
0.120709
0.112658
0.0975136
0.0821478
0.075882
0.0788241
0.0827618
0.080278
0.0739952
0.0808395
0.104398
0.128702
0.141336
0.141861
0.136411
0.130215
0.12544
0.122434
0.121042
0.121118
0.122269
0.123536
0.123366
0.120776
0.115165
0.107001
0.0971163
0.0834561
0.106692
0.120748
0.132589
0.139359
0.141576
0.142047
0.140346
0.129174
0.102084
0.0651295
0.0319013
0.0109479
0.00268705
0.00184832
0.00371454
0.00475215
0.0021156
0.00950299
0.0334177
0.0620248
0.0913022
0.122727
0.155461
0.187896
0.21798
0.244919
0.268676
0.288172
0.300085
0.301194
0.292346
0.270985
0.235423
0.1947
0.162496
0.134493
0.0968457
0.0534304
0.025285
0.0266578
0.0516791
0.0837524
0.109676
0.124641
0.129793
0.128339
0.123165
0.11609
0.107994
0.0991732
0.0896613
0.0794745
0.0687845
0.0580401
0.0479981
0.0396363
0.0339573
0.0317342
0.0332895
0.0383954
0.0463342
0.056093
0.0666124
0.0769978
0.0866336
0.09519
0.102558
0.108759
0.113877
0.118016
0.121239
0.123148
0.121915
0.114218
0.099238
0.0839008
0.0776052
0.0804726
0.0849792
0.0833986
0.0758467
0.0784696
0.0995739
0.124554
0.139063
0.140862
0.135832
0.129752
0.125234
0.122731
0.121998
0.122718
0.124347
0.125843
0.125648
0.122801
0.116705
0.107978
0.097302
0.0838009
0.0208446
0.0309475
0.0454201
0.0613464
0.0741058
0.0802167
0.0761463
0.0610128
0.0388563
0.0188879
0.00630737
0.00164818
0.00188686
0.0036038
0.00510789
0.00649629
0.00438081
0.00487858
0.0214831
0.0489646
0.0779192
0.107518
0.13834
0.169624
0.199916
0.227157
0.250351
0.268331
0.27834
0.279061
0.269322
0.246066
0.210834
0.176029
0.150219
0.122268
0.0821653
0.0411761
0.0211622
0.0309086
0.060048
0.0918867
0.115456
0.12793
0.13134
0.128958
0.123391
0.116154
0.107916
0.0988755
0.0890524
0.0784959
0.0674435
0.0564211
0.0462595
0.037992
0.0326386
0.0309428
0.0331545
0.0389472
0.0475051
0.0577411
0.0685599
0.0790692
0.0886842
0.0971199
0.104311
0.110314
0.115232
0.119182
0.122249
0.124121
0.123114
0.115906
0.101315
0.0859875
0.079362
0.0819517
0.0869882
0.0867435
0.0791909
0.0778569
0.0954054
0.120123
0.136272
0.139444
0.134898
0.128893
0.124579
0.122593
0.122598
0.124068
0.126279
0.128115
0.128039
0.125124
0.118753
0.109541
0.0981661
0.0840432
0.000700974
0.000814644
0.00278034
0.00667189
0.0112943
0.0130588
0.0110975
0.00665997
0.00113249
0.00281839
0.00123084
0.00229991
0.00378421
0.00495287
0.00564555
0.00660118
0.00606405
0.00370779
0.0116893
0.0346221
0.0631087
0.0916341
0.120284
0.149327
0.178182
0.20505
0.227781
0.24455
0.253402
0.25379
0.242139
0.217355
0.18553
0.159114
0.137619
0.107238
0.065394
0.0296937
0.0197458
0.0376763
0.0696723
0.100157
0.120812
0.130676
0.132436
0.12926
0.123401
0.116052
0.107688
0.0984292
0.0882941
0.0773759
0.0659784
0.0547079
0.0444718
0.0363555
0.0313898
0.0302775
0.0331837
0.0396747
0.0488344
0.0595068
0.0705704
0.081147
0.0906924
0.098972
0.105966
0.111764
0.116488
0.120262
0.123186
0.125018
0.124229
0.117559
0.103434
0.087954
0.0807076
0.0828862
0.088339
0.0895588
0.0831299
0.0787108
0.0920079
0.115574
0.133053
0.137654
0.133662
0.127711
0.123558
0.122096
0.122898
0.125193
0.128044
0.130259
0.130358
0.127483
0.12101
0.111444
0.0994751
0.0843814
0.000587614
4.43139e-05
0.000108156
4.45243e-05
7.98098e-05
0.000216462
0.000100009
1.77998e-05
0.000529751
0.00139848
0.00255218
0.00364983
0.00452459
0.00523472
0.00572389
0.00626753
0.00668106
0.00449569
0.00575086
0.0208253
0.0466952
0.0747129
0.101809
0.128287
0.154339
0.179108
0.200583
0.21612
0.224238
0.22313
0.209961
0.186668
0.162378
0.144001
0.123019
0.0886537
0.0475382
0.0205735
0.0219345
0.0470021
0.0802084
0.108226
0.125548
0.132815
0.13309
0.129278
0.123218
0.115789
0.1073
0.0978174
0.0873703
0.0761002
0.0643817
0.0529017
0.0426434
0.0347419
0.0302299
0.0297571
0.0333908
0.0405829
0.0503167
0.0613751
0.0726223
0.0832068
0.0926346
0.100726
0.107508
0.1131
0.117637
0.12125
0.124044
0.125837
0.125256
0.119142
0.105575
0.0899792
0.0820355
0.0836391
0.0891713
0.09152
0.086698
0.0805857
0.0894291
0.111026
0.129444
0.135475
0.132104
0.126195
0.122163
0.12123
0.122893
0.126095
0.129636
0.132241
0.132517
0.129727
0.123288
0.113544
0.101151
0.0849531
0.00281006
0.00252827
0.00224046
0.00195113
0.00172683
0.00170617
0.00186981
0.00225143
0.00280835
0.00342663
0.00396398
0.00439962
0.00487724
0.00552252
0.00616097
0.00651254
0.00694385
0.00589004
0.00390695
0.0102708
0.029838
0.0562364
0.0826931
0.107338
0.13043
0.151872
0.170449
0.184096
0.190768
0.188218
0.175979
0.158496
0.14336
0.128948
0.104391
0.066779
0.0306238
0.0156314
0.0283033
0.0585853
0.0911486
0.115729
0.1295
0.134321
0.133337
0.129047
0.122857
0.115361
0.106737
0.0970205
0.0862639
0.0746581
0.0626485
0.0510047
0.0407854
0.0331692
0.02918
0.0294005
0.0337882
0.0416734
0.051942
0.0633253
0.074688
0.0852191
0.0944833
0.102359
0.108916
0.114303
0.118665
0.122131
0.12481
0.126571
0.126188
0.120632
0.107694
0.0920911
0.0834574
0.0843496
0.0896232
0.0925339
0.0890531
0.0826136
0.0874095
0.106526
0.125514
0.132903
0.13017
0.124279
0.12033
0.11994
0.122542
0.126749
0.131048
0.13405
0.13448
0.131777
0.125475
0.115752
0.103202
0.0859238
0.00556442
0.00523739
0.00491886
0.00462972
0.00441799
0.0042938
0.00425417
0.00428978
0.00436131
0.0044327
0.00455516
0.00491729
0.00570266
0.00683101
0.00788086
0.00821395
0.00801066
0.00736105
0.00489363
0.00486267
0.0154301
0.0368136
0.0621498
0.0861866
0.107472
0.126002
0.141341
0.152273
0.157137
0.154711
0.146268
0.136399
0.126764
0.11046
0.0806303
0.0436439
0.0175403
0.0164369
0.0388601
0.0717708
0.10188
0.12232
0.132555
0.135209
0.133227
0.128604
0.122327
0.114754
0.105976
0.0960188
0.0849596
0.0730401
0.0607769
0.0490229
0.0389108
0.0316563
0.0282618
0.0292271
0.0343867
0.0429451
0.0536953
0.0653305
0.0767327
0.0871459
0.096202
0.103837
0.110164
0.115351
0.11955
0.122883
0.125463
0.127199
0.127008
0.121996
0.109698
0.094108
0.084736
0.0848242
0.0897019
0.0928115
0.0900642
0.083732
0.085326
0.101957
0.121269
0.129899
0.12777
0.121852
0.117945
0.118119
0.121756
0.127096
0.132249
0.135677
0.136228
0.133576
0.127458
0.117934
0.105561
0.0874704
0.00816535
0.00764688
0.00715661
0.00671205
0.00631781
0.00597492
0.00569391
0.0054879
0.00538218
0.00546658
0.00594283
0.00704793
0.00881197
0.0108454
0.0124364
0.0127877
0.0116828
0.0100223
0.00745962
0.00439931
0.00660505
0.0193412
0.0404025
0.0635936
0.0846089
0.102001
0.115451
0.124578
0.128581
0.127589
0.123591
0.118081
0.107549
0.0856396
0.0532699
0.0231721
0.0113085
0.0237314
0.0529167
0.0856208
0.111766
0.127723
0.134676
0.135538
0.132819
0.127975
0.121621
0.113948
0.104996
0.0947937
0.0834446
0.0712394
0.0587671
0.0469646
0.0370362
0.0302256
0.0274983
0.029255
0.0351954
0.0443949
0.0555612
0.0673647
0.0787219
0.0889454
0.0977417
0.105109
0.111202
0.1162
0.120251
0.123469
0.125963
0.127684
0.127673
0.123166
0.111466
0.0958595
0.0856854
0.0849087
0.0894071
0.0927252
0.0904044
0.0838166
0.0829042
0.0972616
0.116702
0.12641
0.12481
0.118804
0.114888
0.115646
0.120432
0.127063
0.133201
0.137108
0.137759
0.135091
0.129131
0.119913
0.108031
0.0896743
0.0130478
0.0120685
0.0111526
0.0103284
0.00961929
0.00905687
0.00867752
0.00853308
0.0087326
0.00947581
0.0110029
0.0134086
0.0164229
0.0193589
0.0213247
0.02153
0.0195532
0.0160758
0.0121143
0.00759968
0.00448446
0.00792338
0.0206233
0.0396712
0.0598807
0.0775682
0.0911851
0.100353
0.104922
0.105704
0.103595
0.0968034
0.0810688
0.0553631
0.0272396
0.0101712
0.0139198
0.0370291
0.0691673
0.099065
0.120243
0.131777
0.135908
0.135398
0.132171
0.127168
0.120722
0.112918
0.103775
0.0933289
0.081708
0.069251
0.056621
0.0448404
0.0351808
0.0289015
0.0269142
0.0295026
0.0362212
0.046018
0.0575278
0.0694159
0.0806467
0.0906071
0.0990824
0.106138
0.111969
0.116772
0.120689
0.123814
0.126242
0.127954
0.128094
0.124021
0.112863
0.0972693
0.0863547
0.0847555
0.0889154
0.0925095
0.0906719
0.0837934
0.0807588
0.0926504
0.111782
0.122327
0.121169
0.114998
0.111004
0.112368
0.118435
0.126546
0.133833
0.138311
0.139063
0.136305
0.130405
0.121485
0.110247
0.0923641
0.0257172
0.0237448
0.0219123
0.0202785
0.0189144
0.0178993
0.0173349
0.0173553
0.0181385
0.0198655
0.022599
0.0261242
0.0298806
0.0330647
0.0348516
0.0346102
0.0319287
0.0269481
0.0207728
0.0143558
0.00824473
0.00488152
0.00796193
0.018594
0.0341001
0.0503914
0.0643571
0.0744366
0.0801929
0.0815827
0.0778802
0.0670335
0.0483361
0.0260007
0.0094238
0.00826489
0.025361
0.0546615
0.0859566
0.11108
0.126907
0.134464
0.13637
0.134894
0.131322
0.126174
0.119601
0.111637
0.102293
0.0916104
0.0797404
0.0670711
0.0543428
0.0426641
0.033367
0.0277116
0.026535
0.0299862
0.0374673
0.0478046
0.0595775
0.0714661
0.0825003
0.0921498
0.100273
0.106982
0.112498
0.117044
0.120781
0.123796
0.126172
0.127882
0.128128
0.12439
0.113734
0.0982945
0.0868715
0.0846128
0.0884757
0.092308
0.0909727
0.0839748
0.0790567
0.0881751
0.106462
0.117553
0.116734
0.110313
0.10616
0.108145
0.11564
0.125441
0.13407
0.139236
0.140121
0.137221
0.131249
0.12251
0.111818
0.0950448
0.0480782
0.0449544
0.0420331
0.0394459
0.0373301
0.035831
0.0350971
0.0352733
0.0364642
0.0386648
0.0416739
0.0450533
0.0481864
0.0504142
0.0511845
0.0501039
0.046885
0.0413691
0.0339026
0.0255474
0.0172065
0.00985596
0.00562679
0.00679968
0.0136536
0.0240863
0.0350446
0.0439542
0.0492035
0.0495122
0.0440928
0.0329914
0.018657
0.00681901
0.00501496
0.0179612
0.0435952
0.0742596
0.101607
0.120853
0.131592
0.135922
0.136236
0.134114
0.130278
0.124963
0.118225
0.110078
0.100531
0.0896251
0.0775328
0.0646965
0.0519386
0.040453
0.0316216
0.0266862
0.0263864
0.0307201
0.0389323
0.0497391
0.061685
0.0734887
0.0842627
0.0935669
0.101328
0.107693
0.112895
0.117148
0.120613
0.123406
0.125648
0.127306
0.127597
0.124077
0.113887
0.0988059
0.0872014
0.0845248
0.0881725
0.0921813
0.0912787
0.0842711
0.077712
0.0838201
0.100664
0.111941
0.111347
0.104617
0.100247
0.102879
0.111954
0.123665
0.133835
0.139818
0.140881
0.137808
0.131632
0.122895
0.112436
0.0969552
0.0793939
0.0756771
0.0721264
0.068862
0.0660437
0.0638289
0.0623832
0.0618267
0.0621702
0.0632698
0.0648154
0.066375
0.0674823
0.067728
0.0668263
0.064571
0.0608193
0.0554359
0.0482729
0.0396216
0.0302677
0.0210277
0.0129274
0.00747923
0.00590906
0.00810557
0.0125324
0.01703
0.0194856
0.0187835
0.0148156
0.00861701
0.00313114
0.00344755
0.0144161
0.0366944
0.0654593
0.0933195
0.114692
0.127933
0.134413
0.136411
0.135677
0.133106
0.129017
0.123494
0.11656
0.108221
0.0984737
0.0873592
0.0750753
0.0621254
0.0494187
0.03823
0.0299768
0.0258586
0.0264943
0.0317147
0.0406092
0.0517997
0.0638212
0.0754547
0.0859102
0.0948413
0.102238
0.108277
0.113187
0.117166
0.120352
0.122856
0.124812
0.126254
0.126439
0.122976
0.113179
0.0987043
0.0873044
0.0844944
0.0880544
0.0922138
0.0916531
0.0846657
0.0766797
0.0796144
0.0943346
0.10533
0.104839
0.097793
0.0931826
0.0964923
0.107296
0.121142
0.133062
0.139999
0.141296
0.138036
0.13156
0.122648
0.112099
0.0974719
0.105668
0.10259
0.0995287
0.0965848
0.0938585
0.0914219
0.089389
0.0878323
0.0867306
0.0859542
0.0852821
0.0844492
0.0832004
0.081334
0.0787265
0.0752661
0.0708843
0.0655542
0.0591786
0.0516539
0.0431602
0.0341849
0.02534
0.0174058
0.011287
0.00755203
0.00599722
0.00566938
0.00539426
0.00455003
0.00302552
0.00194642
0.00443993
0.0145816
0.0342002
0.0605384
0.087533
0.109588
0.124297
0.132346
0.135737
0.136229
0.134809
0.13186
0.127488
0.121723
0.114578
0.106044
0.0961032
0.0847972
0.0723578
0.0593587
0.0467984
0.0360248
0.0284705
0.0252654
0.0268823
0.0329746
0.0424826
0.0539571
0.0659516
0.0773323
0.0874192
0.0959589
0.102997
0.108727
0.113368
0.117098
0.120035
0.122264
0.123912
0.12504
0.124953
0.121378
0.111865
0.098164
0.0872799
0.0845478
0.0881349
0.0924711
0.0921909
0.0851798
0.0758753
0.075495
0.0873263
0.0974612
0.0969533
0.0896611
0.0848534
0.0888964
0.101583
0.11779
0.131679
0.139714
0.141302
0.137846
0.131008
0.121784
0.11098
0.0964837
0.122615
0.120395
0.1181
0.115763
0.113342
0.110839
0.108325
0.105858
0.10345
0.10105
0.0985619
0.0958651
0.0928401
0.0893881
0.0854417
0.0809285
0.0758078
0.0701034
0.0638883
0.0572073
0.0500824
0.0426277
0.0350776
0.0277596
0.0211024
0.0155559
0.0113725
0.00850036
0.00669695
0.00554305
0.00557019
0.00885249
0.0184654
0.0361364
0.0600206
0.085179
0.106532
0.121489
0.130289
0.134599
0.136048
0.135602
0.133657
0.130324
0.125637
0.119614
0.112253
0.103526
0.0933983
0.0819208
0.0693711
0.056402
0.0441013
0.0338763
0.0271477
0.0249447
0.0275706
0.0344954
0.0445263
0.0561713
0.0680331
0.0790848
0.0887632
0.0969037
0.103597
0.10904
0.113436
0.11694
0.119648
0.121632
0.123005
0.123835
0.123477
0.119795
0.110546
0.0975893
0.08732
0.0847499
0.0884247
0.0929919
0.0930047
0.0859128
0.0752251
0.0712639
0.0793271
0.0879476
0.0873574
0.0799946
0.0750918
0.0799269
0.0946428
0.113456
0.129575
0.138904
0.140883
0.137253
0.130041
0.120428
0.109361
0.0945019
0.131439
0.129689
0.127843
0.125856
0.123597
0.121048
0.118249
0.115241
0.112051
0.108677
0.105091
0.101251
0.0971004
0.0925759
0.0876053
0.0820964
0.0759965
0.0693624
0.0623838
0.0553386
0.0484771
0.0419445
0.0357977
0.0300595
0.0247842
0.0201055
0.0162261
0.0134026
0.0118432
0.0121894
0.0161524
0.0259022
0.0424293
0.0640306
0.0866511
0.106083
0.120075
0.128719
0.133377
0.135435
0.135733
0.134613
0.13217
0.128431
0.123417
0.117135
0.109561
0.100641
0.0903328
0.0787098
0.0661085
0.0532684
0.0413616
0.0318334
0.0260595
0.0249344
0.0285715
0.0362602
0.046699
0.0583884
0.070012
0.0806674
0.08991
0.0976546
0.104022
0.109205
0.113381
0.116681
0.119182
0.120943
0.12207
0.122637
0.122061
0.118342
0.109397
0.0971176
0.0874739
0.0850948
0.0888667
0.0936944
0.0940781
0.0869721
0.0748281
0.0667832
0.0697694
0.0761586
0.0756254
0.068581
0.0638128
0.0695218
0.0863732
0.108
0.126612
0.137466
0.139991
0.136264
0.128719
0.118728
0.107459
0.0921715
0.136612
0.135018
0.13328
0.13126
0.128832
0.125987
0.122761
0.119196
0.115337
0.111216
0.106848
0.102219
0.0972848
0.0919673
0.0861563
0.0797014
0.0725147
0.0646772
0.0564695
0.0483402
0.0407849
0.0341843
0.0287102
0.0243476
0.0210008
0.018627
0.0173641
0.0175519
0.0199662
0.0259588
0.0368339
0.0527788
0.0720808
0.0915578
0.108112
0.120163
0.127876
0.132347
0.134659
0.135445
0.134946
0.133216
0.13027
0.126125
0.120793
0.114258
0.106469
0.0973536
0.0868751
0.0751439
0.0625693
0.0499819
0.0386258
0.029955
0.0252606
0.0252673
0.0298845
0.0382341
0.0489403
0.0605372
0.0718199
0.0820236
0.0908178
0.098182
0.104253
0.109206
0.113189
0.116308
0.118625
0.120188
0.121097
0.121436
0.120693
0.117013
0.108437
0.0968245
0.0878183
0.085645
0.0894879
0.0945349
0.0953113
0.0883596
0.0749937
0.0627066
0.0593743
0.0623014
0.0617113
0.0554474
0.0511341
0.0577563
0.0767253
0.101292
0.122673
0.135364
0.138675
0.134993
0.127197
0.116884
0.105489
0.0898574
0.138435
0.136825
0.13499
0.132745
0.130013
0.1268
0.123144
0.119102
0.114731
0.110073
0.105143
0.099914
0.0943143
0.0882288
0.0815081
0.0739958
0.0656531
0.0566694
0.0474837
0.0387208
0.0310449
0.0249906
0.0208546
0.0186974
0.0184458
0.0200491
0.0236099
0.0294523
0.038285
0.0505319
0.065793
0.0825245
0.0984755
0.111691
0.121327
0.127688
0.131628
0.133912
0.134947
0.134858
0.133652
0.131327
0.127895
0.123367
0.117731
0.110944