/*--------------------------------*- C++ -*----------------------------------*\
  =========                 |
  \\      /  F ield         | OpenFOAM: The Open Source CFD Toolbox
   \\    /   O peration     | Website:  https://openfoam.org
    \\  /    A nd           | Version:  10
     \\/     M anipulation  |
\*---------------------------------------------------------------------------*/
FoamFile
{
    format      ascii;
    class       volScalarField;
    location    "0.07";
    object      nut;
}
// * * * * * * * * * * * * * * * * * * * * * * * * * * * * * * * * * * * * * //

dimensions      [0 2 -1 0 0 0 0];

internalField   nonuniform List<scalar> 
6820
(
0
0
0
0
0
0
0
0
0
0
0
0
0
0
0
0
0
0
0
0
0
0
0
0
0
0
0
0
0
0
0
0
0
0
0
0
0
0
0
0
0
0
0
0
0
0
0
0
0
0
0
0
0
0
0
0
0
0
0
0
0
0
0
0
0
0
0
0
0
0
0
0
0
0
0
0
0
0
0
0
0
0
0
0
0
0
0
0
0
0
0
0
0
0
0
0
0
0
0
0
0
0
0
0
0
0
0
0
0
0
0
0
0
0
0
0
0
0
0
0
0
0
0
0
0
0
0
0
0
0
0
0
1.58446e-05
0
0
0
0
0
0
0
0
0
0
0
0
0
0
0
0
0
0
0
0
0
0
0
0
0
0
0
0
0
0
0
0
6.19481e-06
4.54915e-05
3.51953e-05
1.9e-05
7.60085e-06
1.40834e-06
0
0
0
0
0
0
0
0
0
0
0
0
0
0
0
0
0
0
0
0
0
0
0
0
0
0
0
0
1.20986e-05
2.3335e-05
2.96794e-05
2.84437e-05
2.59296e-05
2.38565e-05
2.18831e-05
2.00453e-05
1.84892e-05
1.72384e-05
1.62887e-05
1.56409e-05
1.52774e-05
1.51344e-05
1.50463e-05
1.4646e-05
1.33496e-05
1.07538e-05
7.26607e-06
3.88101e-06
1.38061e-06
0
0
0
0
0
0
0
0
0
0
0
0
6.50413e-06
1.08337e-05
1.99935e-05
2.30486e-05
2.26503e-05
2.16863e-05
2.04645e-05
1.91873e-05
1.80558e-05
1.71169e-05
1.63847e-05
1.58878e-05
1.56452e-05
1.56337e-05
1.57079e-05
1.54157e-05
1.38538e-05
1.03685e-05
6.03333e-06
2.65452e-06
6.90001e-07
0
0
0
0
0
0
0
0
0
0
0
0
4.96027e-06
4.46118e-06
9.43128e-06
1.35294e-05
1.60861e-05
1.79575e-05
1.87977e-05
1.88425e-05
1.85373e-05
1.80982e-05
1.76156e-05
1.71384e-05
1.66564e-05
1.60659e-05
1.51275e-05
1.34625e-05
1.07684e-05
7.30527e-06
3.96546e-06
1.48873e-06
0
0
0
0
0
0
0
0
0
0
0
0
0
3.88109e-06
1.90571e-06
3.64529e-06
5.62006e-06
7.37589e-06
9.75648e-06
1.18153e-05
1.3106e-05
1.38246e-05
1.41581e-05
1.42069e-05
1.40257e-05
1.35981e-05
1.28193e-05
1.15162e-05
9.53913e-06
6.95072e-06
4.14884e-06
1.67361e-06
0
0
0
0
0
0
0
0
0
0
0
0
0
0
3.02373e-06
6.51796e-07
8.2889e-07
1.16337e-06
1.22182e-06
2.41265e-06
4.28514e-06
6.12842e-06
7.70574e-06
8.90674e-06
9.6585e-06
9.93684e-06
9.71611e-06
8.94635e-06
7.58966e-06
5.69818e-06
3.48466e-06
1.2925e-06
0
0
0
0
0
0
0
0
0
0
0
0
0
0
0
2.31354e-06
0
0
0
0
0
0
0
0
6.1741e-07
1.40088e-06
1.87948e-06
1.96861e-06
1.61342e-06
8.11543e-07
0
0
0
0
0
0
0
0
0
0
0
0
0
0
0
0
0
0
1.75243e-06
0
0
0
0
0
0
0
0
0
0
0
0
0
0
0
0
0
0
0
0
0
0
0
0
0
0
0
0
0
0
0
0
1.31265e-06
0
0
0
0
0
0
0
0
0
0
0
0
0
0
0
0
0
0
0
0
0
0
0
0
0
0
0
0
0
0
0
0
9.68987e-07
0
0
0
0
0
0
0
0
0
0
0
0
0
0
0
0
0
0
0
0
0
0
0
0
0
0
0
0
0
0
0
0
6.9492e-07
0
0
0
0
0
0
0
0
0
0
0
0
0
0
0
0
0
0
0
0
0
0
0
0
0
0
0
0
0
0
0
0
4.71224e-07
0
0
0
0
0
0
0
0
0
0
0
0
0
0
0
0
0
0
0
0
0
0
0
0
0
0
0
0
0
0
0
0
2.81419e-07
0
0
0
0
0
0
0
0
0
0
0
0
0
0
0
0
0
0
0
0
0
0
0
0
0
0
0
0
3.09418e-07
4.37429e-07
0
0
1.12317e-07
0
0
0
0
0
0
0
0
0
0
0
0
0
0
0
0
0
0
0
0
0
0
0
0
0
0
6.95721e-08
5.94629e-07
9.89577e-07
1.04765e-06
4.05257e-07
0
0
0
0
0
0
0
0
0
0
0
0
0
0
0
0
0
0
0
0
0
0
0
0
0
0
0
9.33098e-08
6.18267e-07
1.03013e-06
1.30083e-06
1.28819e-06
7.68004e-07
0
0
0
0
0
0
0
0
0
0
0
0
0
0
0
0
0
0
0
0
0
0
0
0
0
0
3.32766e-07
8.43376e-07
1.24643e-06
1.5188e-06
1.64396e-06
1.54284e-06
1.11163e-06
0
0
0
0
0
0
0
0
0
0
0
0
0
0
0
0
0
0
0
0
0
0
0
0
0
4.63295e-07
9.60256e-07
1.34512e-06
1.60661e-06
1.72956e-06
1.70432e-06
1.50659e-06
1.15951e-06
0
0
0
0
0
0
0
0
0
0
0
0
0
0
0
0
0
0
0
0
0
0
0
4.65656e-09
5.7838e-07
1.07403e-06
1.46913e-06
1.73471e-06
1.86296e-06
1.84336e-06
1.67395e-06
1.38506e-06
1.11111e-06
0
0
0
0
0
0
0
0
0
0
0
0
0
0
0
0
0
0
0
0
0
0
3.45522e-07
8.88642e-07
1.34682e-06
1.69974e-06
1.94108e-06
2.06128e-06
2.03952e-06
1.85737e-06
1.52613e-06
1.12761e-06
8.98403e-07
0
0
0
0
0
0
0
0
0
0
0
0
0
0
0
0
0
0
0
0
0
2.64578e-07
8.0967e-07
1.27991e-06
1.65753e-06
1.91503e-06
2.04199e-06
2.04058e-06
1.89337e-06
1.58357e-06
1.13126e-06
6.58505e-07
4.93167e-07
0
0
0
0
0
0
0
0
0
0
0
0
0
0
0
0
0
0
0
3.79164e-07
9.43324e-07
1.43821e-06
1.84495e-06
2.15327e-06
2.36123e-06
2.45812e-06
2.42433e-06
2.24904e-06
1.92605e-06
1.44925e-06
8.43054e-07
2.60976e-07
1.01806e-07
0
0
0
0
0
0
0
0
0
0
0
0
0
0
0
0
0
0
3.73844e-08
5.82982e-07
1.07567e-06
1.53028e-06
1.88883e-06
2.12056e-06
2.23209e-06
2.22582e-06
2.08825e-06
1.80694e-06
1.38209e-06
8.12594e-07
1.26109e-07
0
0
0
0
0
0
0
0
0
0
0
0
0
0
0
0
0
3.44171e-07
9.3797e-07
1.47696e-06
1.93823e-06
2.28331e-06
2.54643e-06
2.78503e-06
2.94586e-06
2.98114e-06
2.89061e-06
2.67926e-06
2.3432e-06
1.87644e-06
1.28041e-06
5.55553e-07
0
0
0
0
0
0
0
0
0
0
0
0
0
0
0
0
0
3.38841e-08
5.88092e-07
1.09601e-06
1.57904e-06
2.00424e-06
2.33146e-06
2.54732e-06
2.64111e-06
2.63231e-06
2.53595e-06
2.33907e-06
2.0284e-06
1.6011e-06
1.05632e-06
3.96524e-07
0
0
0
0
0
0
0
0
0
0
0
0
0
3.62287e-07
1.13247e-06
1.85255e-06
2.52195e-06
3.11461e-06
3.55686e-06
3.82003e-06
3.98897e-06
4.12583e-06
4.20805e-06
4.22316e-06
4.15399e-06
3.95277e-06
3.64557e-06
3.26413e-06
2.80072e-06
2.24715e-06
1.60416e-06
8.72688e-07
5.43809e-08
0
0
0
0
0
0
0
0
0
0
0
0
5.41078e-07
1.49146e-06
2.33695e-06
3.07795e-06
3.72956e-06
4.29221e-06
4.70825e-06
4.92495e-06
4.97755e-06
4.90544e-06
4.72708e-06
4.47727e-06
4.16439e-06
3.77104e-06
3.29843e-06
2.75902e-06
2.15587e-06
1.48941e-06
7.6081e-07
0
0
0
0
0
0
0
0
0
0
1.11893e-06
2.6311e-06
4.02277e-06
5.29572e-06
6.40348e-06
7.32037e-06
8.03586e-06
8.53812e-06
8.8235e-06
8.93756e-06
8.95834e-06
8.87946e-06
8.62026e-06
8.15449e-06
7.52703e-06
6.79502e-06
5.98479e-06
5.11305e-06
4.19329e-06
3.2452e-06
2.28399e-06
1.31675e-06
3.45628e-07
0
0
0
0
0
0
0
0
0
2.78646e-06
5.34352e-06
7.34436e-06
8.96172e-06
1.02528e-05
1.12282e-05
1.19135e-05
1.23383e-05
1.25285e-05
1.25118e-05
1.2339e-05
1.20843e-05
1.17502e-05
1.1254e-05
1.05571e-05
9.68076e-06
8.66184e-06
7.53508e-06
6.33809e-06
5.10728e-06
3.87728e-06
2.67525e-06
1.51799e-06
4.12985e-07
0
0
0
0
0
0
0
9.98702e-06
1.17484e-05
1.29127e-05
1.41029e-05
1.52168e-05
1.61332e-05
1.67924e-05
1.71823e-05
1.73223e-05
1.72386e-05
1.69667e-05
1.65545e-05
1.60497e-05
1.54817e-05
1.48356e-05
1.40475e-05
1.30534e-05
1.18304e-05
1.04035e-05
8.83209e-06
7.19069e-06
5.55098e-06
3.97149e-06
2.49365e-06
1.1415e-06
0
0
0
0
0
0
0
0
2.4209e-05
2.66259e-05
2.36607e-05
2.21089e-05
2.17506e-05
2.17388e-05
2.16966e-05
2.15247e-05
2.12323e-05
2.08473e-05
2.04058e-05
1.9949e-05
1.95068e-05
1.90804e-05
1.86327e-05
1.80871e-05
1.73435e-05
1.63066e-05
1.49115e-05
1.31485e-05
1.10889e-05
8.88663e-06
6.73327e-06
4.78685e-06
3.12562e-06
1.75078e-06
6.1836e-07
0
0
0
0
0
3.49486e-05
6.56015e-05
4.92809e-05
3.40402e-05
2.31053e-05
1.49638e-05
8.95739e-06
4.6327e-06
1.68146e-06
0
0
0
0
0
0
0
0
0
0
0
0
0
0
0
5.48678e-08
1.25885e-07
1.86334e-07
2.38636e-07
2.84505e-07
3.24889e-07
3.60311e-07
3.90431e-07
4.16289e-07
0
0
0
0
0
0
0
0
0
0
0
0
0
0
0
0
0
0
0
0
0
0
0
0
0
0
0
0
0
4.87978e-08
1.19301e-07
1.87372e-07
2.66656e-07
4.05495e-08
0
0
0
0
0
0
0
0
0
0
0
0
0
0
0
0
0
0
0
0
0
0
0
0
0
0
0
0
0
0
0
0
2.18373e-08
0
0
0
0
0
0
0
0
0
0
0
0
0
0
0
0
0
0
0
0
0
0
0
0
0
0
0
0
0
0
0
0
1.02454e-08
0
0
0
0
0
0
0
0
0
0
0
0
0
0
0
0
0
0
0
0
0
0
0
0
0
0
0
0
0
0
0
0
0
0
0
0
0
0
5.306e-06
3.20948e-05
5.66322e-06
0
6.46532e-06
1.08769e-05
7.37722e-06
3.48393e-06
1.42637e-06
2.39674e-07
0
0
0
0
0
0
1.13692e-06
1.61518e-05
2.77269e-05
4.55482e-05
7.39139e-05
0.000120787
0.000204297
0.000283425
0
0
0
0
0
1.31916e-05
1.93825e-05
1.67561e-05
1.15539e-05
8.67431e-06
9.87269e-06
1.11904e-05
1.07751e-05
9.08759e-06
7.05266e-06
5.1297e-06
3.3655e-06
1.73498e-06
2.57836e-07
0
0
0
0
0
0
0
0
0
0
0
0
0
0
0
0
0
0
0
0
0
0
0
0
0
0
0
4.48387e-06
0
0
1.19306e-05
3.152e-05
1.50542e-05
0
0
0
0
0
0
0
0
0
0
0
0
0
0
0
0
0
0
0
0
0
0
0
0
0
9.62279e-06
2.3207e-05
1.15261e-05
1.29356e-05
9.98961e-06
5.34592e-06
2.2593e-06
1.49664e-06
7.84158e-07
0
0
0
0
0
0
0
1.69066e-05
3.22774e-05
5.15593e-05
8.27099e-05
0.000134589
0.000231254
0.000375487
0
0
0
0
0
1.94204e-05
2.2294e-05
1.77896e-05
1.18731e-05
9.86044e-06
1.19565e-05
1.34365e-05
1.29333e-05
1.11586e-05
9.03656e-06
6.96892e-06
5.01925e-06
3.20685e-06
1.57514e-06
1.61239e-07
0
0
0
0
0
0
0
0
0
0
0
0
0
0
0
0
0
0
0
0
0
0
0
0
0
0
2.98488e-06
0
0
0
2.80927e-05
1.79083e-05
0
0
0
0
0
0
0
0
0
0
0
0
0
0
0
0
0
0
0
0
0
0
0
0
0
4.98854e-06
2.24965e-05
1.52671e-05
1.05072e-05
5.91733e-06
2.6697e-06
1.81512e-06
1.80654e-06
1.2214e-06
5.41175e-08
0
0
0
0
0
0
9.64038e-06
3.36754e-05
5.48577e-05
8.64053e-05
0.000139142
0.000238687
0.000415274
0
0
0
0
1.09029e-05
2.36699e-05
2.31053e-05
1.71965e-05
1.13779e-05
1.09247e-05
1.37509e-05
1.52226e-05
1.46199e-05
1.28281e-05
1.06923e-05
8.55379e-06
6.50228e-06
4.5933e-06
2.88006e-06
1.39511e-06
1.4754e-07
0
0
0
0
0
0
0
0
0
0
0
0
0
0
0
0
0
0
0
0
0
0
0
0
0
1.47847e-06
0
0
0
2.02954e-05
1.90858e-05
0
0
0
0
0
0
0
0
0
0
0
0
0
0
0
0
0
0
0
0
0
0
0
0
0
7.01513e-06
1.13328e-05
7.76268e-06
4.43394e-06
2.20421e-06
2.14858e-06
2.40066e-06
2.01252e-06
1.36762e-06
3.01457e-07
0
0
0
0
0
0
0
2.69422e-05
5.58093e-05
8.91579e-05
0.000142351
0.000244885
0.000452052
0
0
0
0
2.00232e-05
2.57462e-05
2.2427e-05
1.56641e-05
1.0802e-05
1.2246e-05
1.55058e-05
1.68323e-05
1.61201e-05
1.43308e-05
1.21945e-05
1.00091e-05
7.89376e-06
5.9288e-06
4.16764e-06
2.63372e-06
1.33209e-06
2.62029e-07
0
0
0
0
0
0
0
0
0
0
0
0
0
0
0
0
0
0
0
0
0
0
0
0
8.28753e-08
0
0
0
8.61613e-06
1.85772e-05
0
0
0
0
0
0
0
0
0
0
0
0
0
0
0
0
0
0
0
0
0
0
0
0
0
1.72235e-06
1.31356e-06
2.49505e-06
1.7861e-06
2.45618e-06
2.8729e-06
2.68482e-06
2.06141e-06
1.31512e-06
4.09533e-07
0
0
0
0
0
0
0
4.92568e-06
4.40697e-05
8.56769e-05
0.000142339
0.00024396
0.000315827
0
0
0
1.27189e-05
2.51175e-05
2.57976e-05
2.05697e-05
1.36193e-05
1.07215e-05
1.39477e-05
1.7321e-05
1.84068e-05
1.75767e-05
1.57779e-05
1.36263e-05
1.13989e-05
9.23957e-06
7.23874e-06
5.44347e-06
3.86841e-06
2.51494e-06
1.38407e-06
4.77653e-07
0
0
0
0
0
0
0
0
0
0
0
0
0
0
0
0
0
0
0
0
0
0
0
0
0
0
0
0
1.60353e-05
0
0
0
0
0
0
0
0
0
0
0
0
0
0
0
0
0
0
0
0
0
0
0
0
0
7.58487e-08
7.43871e-07
1.58297e-06
2.43133e-06
2.9554e-06
3.02637e-06
2.70297e-06
2.05278e-06
1.22383e-06
3.3794e-07
0
0
0
0
0
0
0
0
9.21062e-06
4.86785e-05
9.38598e-05
0.000124804
2.36104e-05
0
0
6.41826e-06
2.20822e-05
2.64384e-05
2.40332e-05
1.77145e-05
1.14995e-05
1.15255e-05
1.59584e-05
1.9149e-05
1.99316e-05
1.89772e-05
1.71502e-05
1.49732e-05
1.27158e-05
1.05339e-05
8.51454e-06
6.69501e-06
5.08404e-06
3.68167e-06
2.48979e-06
1.51269e-06
7.50741e-07
1.91339e-07
0
0
0
0
0
0
0
0
0
0
0
0
0
0
0
0
0
0
0
0
0
0
0
0
0
0
1.08115e-05
0
0
0
0
0
0
0
0
0
0
0
0
0
0
0
0
0
0
0
0
0
0
0
0
1.37437e-07
8.46434e-07
1.64725e-06
2.41056e-06
2.94236e-06
3.15254e-06
3.06907e-06
2.7192e-06
2.08167e-06
1.18739e-06
2.14672e-07
0
0
0
0
0
0
0
0
0
5.57606e-07
1.68456e-05
1.70782e-05
0
0
6.17064e-06
1.85552e-05
2.45439e-05
2.49171e-05
2.07617e-05
1.41888e-05
1.00966e-05
1.32657e-05
1.81346e-05
2.09185e-05
2.13708e-05
2.02874e-05
1.84177e-05
1.62181e-05
1.39516e-05
1.17695e-05
9.74702e-06
7.9117e-06
6.26942e-06
4.82108e-06
3.56969e-06
2.52099e-06
1.67912e-06
1.03916e-06
5.79152e-07
2.54892e-07
3.54961e-09
0
0
0
0
0
0
0
0
0
0
0
0
0
0
0
0
0
0
0
0
0
0
0
2.35544e-06
3.67353e-07
0
0
0
0
0
0
0
0
0
0
0
0
0
0
0
0
0
0
0
0
0
0
0
3.63565e-07
1.26401e-06
2.08383e-06
2.70936e-06
3.08451e-06
3.24549e-06
3.22066e-06
2.92278e-06
2.25892e-06
1.25274e-06
1.18289e-07
0
0
0
0
0
0
0
0
0
0
0
0
1.32379e-06
7.30608e-06
1.49278e-05
2.0664e-05
2.29689e-05
2.13916e-05
1.64129e-05
1.06428e-05
1.03707e-05
1.56547e-05
2.03146e-05
2.25625e-05
2.26859e-05
2.14706e-05
1.9556e-05
1.73508e-05
1.51006e-05
1.2939e-05
1.09259e-05
9.08229e-06
7.41368e-06
5.92254e-06
4.61318e-06
3.49306e-06
2.57083e-06
1.85113e-06
1.3276e-06
9.7452e-07
7.40476e-07
5.57188e-07
3.66188e-07
1.35389e-07
0
0
0
0
0
0
0
0
0
0
0
0
0
0
0
0
0
0
0
0
0
3.72534e-08
0
0
0
0
0
0
0
0
0
0
0
0
0
0
0
0
0
0
0
0
0
0
0
6.14397e-07
1.53585e-06
2.3376e-06
2.96366e-06
3.42834e-06
3.75509e-06
3.85029e-06
3.52388e-06
2.68722e-06
1.43717e-06
3.17779e-08
0
0
0
0
0
0
0
0
0
0
0
0
2.90993e-06
9.3476e-06
1.48904e-05
1.84577e-05
1.91649e-05
1.65765e-05
1.16075e-05
8.44185e-06
1.24192e-05
1.82953e-05
2.23502e-05
2.4023e-05
2.38353e-05
2.24942e-05
2.05502e-05
1.8367e-05
1.61586e-05
1.40339e-05
1.204e-05
1.0195e-05
8.5057e-06
6.97571e-06
5.61028e-06
4.41928e-06
3.41748e-06
2.62164e-06
2.04431e-06
1.68002e-06
1.48528e-06
1.38105e-06
1.28998e-06
1.1643e-06
9.83615e-07
7.40472e-07
4.28562e-07
3.6391e-08
0
0
0
0
0
0
0
0
0
0
0
0
0
0
0
0
0
0
0
0
0
0
0
0
0
0
0
0
0
0
0
0
0
0
0
0
0
0
0
0
0
9.82124e-07
2.03294e-06
2.99225e-06
3.82989e-06
4.52451e-06
4.98609e-06
5.02921e-06
4.47335e-06
3.29728e-06
1.67094e-06
0
0
0
0
0
0
0
0
0
0
0
0
0
2.42668e-06
7.7604e-06
1.20739e-05
1.44679e-05
1.42088e-05
1.12228e-05
7.47023e-06
9.23084e-06
1.53844e-05
2.08451e-05
2.41278e-05
2.52489e-05
2.478e-05
2.33374e-05
2.13963e-05
1.92662e-05
1.71203e-05
1.50441e-05
1.30772e-05
1.1238e-05
9.5343e-06
7.97004e-06
6.55119e-06
5.29081e-06
4.2117e-06
3.34592e-06
2.72848e-06
2.37466e-06
2.24341e-06
2.23819e-06
2.26042e-06
2.2471e-06
2.16897e-06
2.01433e-06
1.77588e-06
1.44355e-06
1.00239e-06
4.36469e-07
0
0
0
0
0
0
0
0
0
0
0
0
0
0
0
0
0
0
0
0
0
0
0
0
0
0
0
0
0
0
0
0
0
0
0
0
0
0
2.76262e-07
1.67489e-06
3.04493e-06
4.3201e-06
5.42897e-06
6.26484e-06
6.66441e-06
6.44692e-06
5.50544e-06
3.89925e-06
1.84078e-06
0
0
0
0
0
0
0
0
0
0
0
0
0
1.22282e-06
5.30458e-06
8.46908e-06
9.87819e-06
8.97828e-06
6.30177e-06
6.56125e-06
1.22388e-05
1.84481e-05
2.30691e-05
2.55688e-05
2.61956e-05
2.54936e-05
2.39956e-05
2.20985e-05
2.00481e-05
1.79782e-05
1.59585e-05
1.4026e-05
1.21999e-05
1.04884e-05
8.89488e-06
7.42599e-06
6.09903e-06
4.94707e-06
4.02099e-06
3.38158e-06
3.06354e-06
3.02043e-06
3.13175e-06
3.27723e-06
3.38098e-06
3.40713e-06
3.34118e-06
3.17497e-06
2.89908e-06
2.50157e-06
1.97202e-06
1.30596e-06
5.06922e-07
0
0
0
0
0
0
0
0
0
0
0
0
0
0
0
0
0
0
0
0
0
0
0
0
0
0
0
0
0
0
0
0
0
0
0
0
9.32924e-07
2.75016e-06
4.51365e-06
6.10518e-06
7.38287e-06
8.18213e-06
8.33708e-06
7.7298e-06
6.34467e-06
4.31065e-06
1.85677e-06
0
0
0
0
0
0
0
0
0
0
0
0
0
4.65402e-08
2.91627e-06
4.98724e-06
5.5327e-06
4.33651e-06
4.43853e-06
9.41882e-06
1.5694e-05
2.11406e-05
2.48328e-05
2.66199e-05
2.68346e-05
2.5973e-05
2.44796e-05
2.26636e-05
2.07098e-05
1.87233e-05
1.6766e-05
1.4875e-05
1.30698e-05
1.13572e-05
9.73958e-06
8.22477e-06
6.83559e-06
5.61804e-06
4.64559e-06
4.00749e-06
3.7537e-06
3.82255e-06
4.06457e-06
4.33938e-06
4.5613e-06
4.69032e-06
4.71069e-06
4.61475e-06
4.39491e-06
4.04226e-06
3.5493e-06
2.91403e-06
2.14414e-06
1.25804e-06
2.84093e-07
0
0
0
0
0
0
0
0
0
0
0
0
0
0
0
0
0
0
0
0
0
0
0
0
0
0
0
0
0
0
0
0
0
0
1.90679e-06
4.09278e-06
6.14779e-06
7.89832e-06
9.15963e-06
9.75979e-06
9.5746e-06
8.56231e-06
6.78331e-06
4.40954e-06
1.67202e-06
0
0
0
0
0
0
0
0
0
0
0
0
0
0
1.26763e-06
2.27569e-06
2.13887e-06
2.96731e-06
7.27903e-06
1.30583e-05
1.87409e-05
2.32434e-05
2.6065e-05
2.72527e-05
2.71687e-05
2.62393e-05
2.48064e-05
2.30953e-05
2.12453e-05
1.93457e-05
1.74563e-05
1.56141e-05
1.3837e-05
1.21298e-05
1.04936e-05
8.93787e-06
7.49278e-06
6.22033e-06
5.22059e-06
4.61239e-06
4.45332e-06
4.65557e-06
5.03845e-06
5.44489e-06
5.78291e-06
6.01067e-06
6.11272e-06
6.08321e-06
5.91762e-06
5.61052e-06
5.15702e-06
4.55638e-06
3.81665e-06
2.95661e-06
2.00658e-06
1.01857e-06
1.104e-07
0
0
0
0
0
0
0
0
0
0
0
0
0
0
0
0
0
0
0
0
0
0
0
0
0
0
0
0
0
0
0
5.95823e-07
2.96191e-06
5.30671e-06
7.4453e-06
9.17105e-06
1.02861e-05
1.06361e-05
1.01426e-05
8.81963e-06
6.77401e-06
4.19602e-06
1.31389e-06
0
0
0
0
0
0
0
0
0
0
0
0
0
0
5.20684e-07
1.03911e-06
2.45831e-06
5.87595e-06
1.07966e-05
1.62164e-05
2.10792e-05
2.46612e-05
2.67385e-05
2.74836e-05
2.72372e-05
2.63257e-05
2.49898e-05
2.33921e-05
2.16464e-05
1.98362e-05
1.80202e-05
1.62337e-05
1.44916e-05
1.27959e-05
1.11466e-05
9.55606e-06
8.06391e-06
6.75162e-06
5.74962e-06
5.2049e-06
5.17105e-06
5.52406e-06
6.05316e-06
6.5896e-06
7.03878e-06
7.3593e-06
7.53749e-06
7.57026e-06
7.45647e-06
7.19415e-06
6.78122e-06
6.21844e-06
5.51331e-06
4.6828e-06
3.75573e-06
2.78026e-06
1.85679e-06
1.1879e-06
9.6885e-07
4.60049e-07
0
0
0
0
0
0
0
0
0
0
0
0
0
0
0
0
0
0
0
0
0
0
0
0
0
0
0
0
1.56053e-06
3.90514e-06
6.18809e-06
8.21203e-06
9.76778e-06
1.06679e-05
1.0781e-05
1.00593e-05
8.54604e-06
6.36904e-06
3.7214e-06
8.28966e-07
0
0
0
0
0
0
0
0
0
0
0
0
0
0
7.10987e-07
2.15023e-06
4.80956e-06
8.85533e-06
1.37381e-05
1.85775e-05
2.25897e-05
2.53668e-05
2.68937e-05
2.73834e-05
2.70988e-05
2.62605e-05
2.50342e-05
2.35481e-05
2.19056e-05
2.01876e-05
1.84502e-05
1.67252e-05
1.50238e-05
1.3345e-05
1.16885e-05
1.00709e-05
8.54392e-06
7.2123e-06
6.23971e-06
5.7958e-06
5.91517e-06
6.43046e-06
7.10576e-06
7.7666e-06
8.31938e-06
8.72528e-06
8.97368e-06
9.06486e-06
9.00104e-06
8.78316e-06
8.41118e-06
7.88678e-06
7.21699e-06
6.41717e-06
5.51315e-06
4.54731e-06
3.60221e-06
2.83512e-06
2.36826e-06
1.41261e-06
0
0
0
0
0
0
0
0
0
0
0
0
0
0
0
0
0
0
0
0
0
0
0
0
0
0
0
2.53682e-07
2.38516e-06
4.57827e-06
6.67308e-06
8.48058e-06
9.80648e-06
1.04823e-05
1.03975e-05
9.52276e-06
7.91429e-06
5.70662e-06
3.08858e-06
2.86353e-07
0
0
0
0
0
0
0
0
0
0
0
0
0
0
1.18938e-06
3.51879e-06
6.95085e-06
1.12685e-05
1.58509e-05
2.00029e-05
2.32503e-05
2.54396e-05
2.66495e-05
2.7048e-05
2.68024e-05
2.60563e-05
2.49365e-05
2.35573e-05
2.20174e-05
2.0394e-05
1.87393e-05
1.70802e-05
1.54241e-05
1.37673e-05
1.21101e-05
1.04755e-05
8.93017e-06
7.60637e-06
6.7016e-06
6.3973e-06
6.69233e-06
7.37414e-06
8.18991e-06
8.96574e-06
9.61238e-06
1.00954e-05
1.04082e-05
1.05548e-05
1.05404e-05
1.03681e-05
1.0039e-05
9.55484e-06
8.92164e-06
8.15304e-06
7.2723e-06
6.31624e-06
5.35009e-06
4.4903e-06
3.79791e-06
2.4537e-06
0
0
0
0
0
0
0
0
0
0
0
0
0
0
0
0
0
0
0
0
0
0
0
0
0
0
0
1.15198e-06
3.09127e-06
5.05691e-06
6.89614e-06
8.43557e-06
9.50236e-06
9.95103e-06
9.69119e-06
8.70745e-06
7.06183e-06
4.88902e-06
2.37146e-06
0
0
0
0
0
0
0
0
0
0
0
0
0
0
0
1.73183e-06
4.788e-06
8.63951e-06
1.28839e-05
1.69851e-05
2.0501e-05
2.3206e-05
2.50673e-05
2.61511e-05
2.65522e-05
2.63706e-05
2.57135e-05
2.46926e-05
2.34164e-05
2.19786e-05
2.04513e-05
1.88812e-05
1.72907e-05
1.56831e-05
1.40531e-05
1.24031e-05
1.07646e-05
9.22343e-06
7.94231e-06
7.14958e-06
7.02151e-06
7.50607e-06
8.35034e-06
9.29505e-06
1.0173e-05
1.0902e-05
1.14537e-05
1.18257e-05
1.20256e-05
1.20609e-05
1.19357e-05
1.16512e-05
1.12084e-05
1.06115e-05
9.87204e-06
9.01022e-06
8.05778e-06
7.06481e-06
6.11148e-06
5.20528e-06
3.50843e-06
0
0
0
0
0
0
0
0
2.50254e-06
1.77241e-06
0
0
0
0
0
0
0
0
0
0
0
0
0
0
0
0
1.78942e-07
1.80294e-06
3.52893e-06
5.24886e-06
6.82215e-06
8.09431e-06
8.91577e-06
9.16337e-06
8.76426e-06
7.71331e-06
6.07658e-06
3.98803e-06
1.62741e-06
0
0
0
0
0
0
0
0
0
0
0
0
0
0
0
2.24546e-06
5.72463e-06
9.63787e-06
1.35957e-05
1.7234e-05
2.03122e-05
2.27229e-05
2.44447e-05
2.54977e-05
2.59277e-05
2.58068e-05
2.52295e-05
2.43013e-05
2.31246e-05
2.17873e-05
2.03551e-05
1.88697e-05
1.73486e-05
1.5792e-05
1.41939e-05
1.2561e-05
1.09364e-05
9.4288e-06
8.23334e-06
7.60008e-06
7.67801e-06
8.35492e-06
9.34897e-06
1.04057e-05
1.13698e-05
1.21691e-05
1.27814e-05
1.32092e-05
1.34626e-05
1.35501e-05
1.34761e-05
1.32409e-05
1.2844e-05
1.22877e-05
1.15808e-05
1.07406e-05
9.79411e-06
8.77912e-06
7.74524e-06
6.65483e-06
4.66506e-06
0
0
0
0
0
0
0
0
4.76565e-06
5.03136e-06
1.54786e-06
0
0
0
0
0
0
0
0
0
0
0
0
0
0
0
9.13491e-07
2.33716e-06
3.8248e-06
5.28487e-06
6.58974e-06
7.60219e-06
8.19354e-06
8.26036e-06
7.74532e-06
6.65267e-06
5.05305e-06
3.08028e-06
9.14338e-07
0
0
0
0
0
0
0
0
0
0
0
0
0
0
0
2.61496e-06
6.20219e-06
9.96338e-06
1.36121e-05
1.69248e-05
1.97567e-05
2.20237e-05
2.36828e-05
2.47256e-05
2.51803e-05
2.51108e-05
2.46059e-05
2.37647e-05
2.26828e-05
2.14417e-05
2.01014e-05
1.86982e-05
1.72459e-05
1.57423e-05
1.41825e-05
1.25798e-05
1.09928e-05
9.55639e-06
8.49652e-06
8.06845e-06
8.37048e-06
9.23041e-06
1.03535e-05
1.15006e-05
1.2533e-05
1.33898e-05
1.40557e-05
1.4537e-05
1.48448e-05
1.49875e-05
1.4968e-05
1.4785e-05
1.44357e-05
1.39201e-05
1.32438e-05
1.24204e-05
1.14726e-05
1.04277e-05
9.30934e-06
8.04044e-06
5.77816e-06
0
0
0
0
0
0
0
0
6.82882e-06
7.70983e-06
4.39237e-06
3.36339e-08
0
0
0
0
0
0
0
0
0
0
0
0
1.62802e-07
3.17606e-07
1.34891e-06
2.5781e-06
3.83961e-06
5.05979e-06
6.12367e-06
6.90955e-06
7.30698e-06
7.22975e-06
6.63453e-06
5.535e-06
4.00802e-06
2.18907e-06
2.61381e-07
0
0
0
0
0
0
0
0
0
0
0
0
0
0
0
2.8286e-06
6.32337e-06
9.86728e-06
1.32646e-05
1.6361e-05
1.9038e-05
2.12075e-05
2.28143e-05
2.38415e-05
2.4313e-05
2.42874e-05
2.38475e-05
2.30857e-05
2.20912e-05
2.09392e-05
1.96849e-05
1.836e-05
1.69749e-05
1.55267e-05
1.40138e-05
1.24593e-05
1.09407e-05
9.62092e-06
8.74964e-06
8.56376e-06
9.09255e-06
1.01147e-05
1.13399e-05
1.25529e-05
1.36349e-05
1.45376e-05
1.52528e-05
1.57888e-05
1.61564e-05
1.63618e-05
1.64057e-05
1.62841e-05
1.5992e-05
1.55267e-05
1.48904e-05
1.40934e-05
1.3154e-05
1.20919e-05
1.09107e-05
9.50186e-06
7.03447e-06
0
0
0
0
0
0
0
0
8.88927e-06
9.92595e-06
6.57231e-06
2.54659e-06
0
0
0
0
0
0
0
0
0
0
0
0
6.73221e-07
7.93433e-07
1.66811e-06
2.69341e-06
3.72912e-06
4.71881e-06
5.55873e-06
6.14041e-06
6.36907e-06
6.17361e-06
5.52354e-06
4.4422e-06
3.01337e-06
1.37568e-06
0
0
0
0
0
0
0
0
0
0
0
0
0
0
0
0
2.94068e-06
6.255e-06
9.5781e-06
1.27638e-05
1.56832e-05
1.82242e-05
2.0298e-05
2.18471e-05
2.28525e-05
2.33336e-05
2.33437e-05
2.2959e-05
2.2266e-05
2.13482e-05
2.02759e-05
1.90996e-05
1.78475e-05
1.65283e-05
1.51398e-05
1.36865e-05
1.22041e-05
1.07919e-05
9.63949e-06
9.00543e-06
9.08217e-06
9.82352e-06
1.09781e-05
1.22751e-05
1.35285e-05
1.46417e-05
1.55797e-05
1.63401e-05
1.69319e-05
1.73631e-05
1.76363e-05
1.77481e-05
1.76914e-05
1.74584e-05
1.7043e-05
1.64438e-05
1.5667e-05
1.47261e-05
1.36341e-05
1.23789e-05
1.08246e-05
8.15074e-06
8.25665e-07
0
0
0
0
0
0
0
1.09908e-05
1.17849e-05
8.14021e-06
4.1732e-06
0
0
0
0
0
0
0
0
0
0
0
0
8.89068e-07
9.85222e-07
1.70939e-06
2.54429e-06
3.37594e-06
4.16389e-06
4.81491e-06
5.23203e-06
5.33364e-06
5.06144e-06
4.39618e-06
3.37099e-06
2.07717e-06
6.5716e-07
0
0
0
0
0
0
0
0
0
0
0
0
0
0
0
3.65415e-08
3.00673e-06
6.10558e-06
9.20646e-06
1.21872e-05
1.49313e-05
1.73329e-05
1.93057e-05
2.07919e-05
2.17689e-05
2.22509e-05
2.22851e-05
2.19424e-05
2.13044e-05
2.045e-05
1.94455e-05
1.8338e-05
1.71535e-05
1.59002e-05
1.45795e-05
1.32039e-05
1.18245e-05
1.05624e-05
9.62665e-06
9.26361e-06
9.60053e-06
1.0525e-05
1.17776e-05
1.31173e-05
1.43895e-05
1.55203e-05
1.64877e-05
1.72947e-05
1.79492e-05
1.8455e-05
1.88092e-05
1.90038e-05
1.90281e-05
1.8871e-05
1.85233e-05
1.79799e-05
1.72424e-05
1.63202e-05
1.5222e-05
1.39256e-05
1.22769e-05
9.47787e-06
2.24844e-06
0
0
0
0
0
0
2.99013e-06
1.31608e-05
1.3468e-05
9.3441e-06
5.03523e-06
1.91699e-07
0
0
0
0
0
0
0
0
0
0
0
9.67337e-07
1.04138e-06
1.61955e-06
2.27423e-06
2.91868e-06
3.52732e-06
4.01671e-06
4.29974e-06
4.30583e-06
3.98765e-06
3.33627e-06
2.39477e-06
1.26211e-06
8.34885e-08
0
0
0
0
0
0
0
0
0
0
0
0
0
0
0
2.90262e-07
3.04659e-06
5.91265e-06
8.78397e-06
1.1554e-05
1.41172e-05
1.63745e-05
1.82416e-05
1.96588e-05
2.05985e-05
2.1069e-05
2.11126e-05
2.07955e-05
2.01958e-05
1.93893e-05
1.84396e-05
1.73918e-05
1.62713e-05
1.5088e-05
1.38484e-05
1.25754e-05
1.13357e-05
1.02684e-05
9.58729e-06
9.5035e-06
1.00727e-05
1.11388e-05
1.24545e-05
1.3812e-05
1.50867e-05
1.6225e-05
1.72164e-05
1.80677e-05
1.87851e-05
1.93669e-05
1.98038e-05
2.00824e-05
2.01876e-05
2.01045e-05
1.98201e-05
1.93247e-05
1.86148e-05
1.76944e-05
1.65673e-05
1.52036e-05
1.34339e-05
1.04749e-05
3.29784e-06
0
0
0
0
0
0
6.5593e-06
1.53168e-05
1.50626e-05
1.03714e-05
5.34815e-06
3.48059e-07
0
0
0
0
0
0
0
0
0
0
0
8.45641e-07
8.93489e-07
1.32673e-06
1.8109e-06
2.2866e-06
2.74211e-06
3.10313e-06
3.29079e-06
3.24322e-06
2.92167e-06
2.32593e-06
1.50831e-06
5.72967e-07
0
0
0
0
0
0
0
0
0
0
0
0
0
0
0
0
5.55248e-07
3.07467e-06
5.69403e-06
8.32552e-06
1.08766e-05
1.32523e-05
1.53592e-05
1.71139e-05
1.8453e-05
1.93431e-05
1.97868e-05
1.98215e-05
1.95105e-05
1.89301e-05
1.81549e-05
1.72476e-05
1.62531e-05
1.51975e-05
1.40941e-05
1.2956e-05
1.18168e-05
1.0756e-05
9.92057e-06
9.50936e-06
9.68104e-06
1.04322e-05
1.15928e-05
1.29421e-05
1.43052e-05
1.55813e-05
1.67315e-05
1.77539e-05
1.86578e-05
1.94478e-05
2.01173e-05
2.06513e-05
2.10307e-05
2.12359e-05
2.1248e-05
2.10496e-05
2.06265e-05
1.99697e-05
1.90782e-05
1.79527e-05
1.65615e-05
1.47305e-05
1.17085e-05
4.74681e-06
0
0
0
0
0
0
9.86138e-06
1.74102e-05
1.66226e-05
1.13787e-05
5.60783e-06
2.68289e-07
0
0
0
0
0
0
0
0
0
0
0
5.2957e-07
5.73891e-07
8.88945e-07
1.23285e-06
1.57302e-06
1.9107e-06
2.18032e-06
2.31019e-06
2.24553e-06
1.95485e-06
1.44633e-06
7.80647e-07
6.29956e-08
0
0
0
0
0
0
0
0
0
0
0
0
0
0
0
0
8.02842e-07
3.07388e-06
5.43836e-06
7.82366e-06
1.01506e-05
1.23338e-05
1.42848e-05
1.59197e-05
1.71704e-05
1.79966e-05
1.83949e-05
1.83994e-05
1.80727e-05
1.74919e-05
1.6733e-05
1.58596e-05
1.49175e-05
1.39348e-05
1.29288e-05
1.19195e-05
1.09489e-05
1.01024e-05
9.51872e-06
9.36125e-06
9.73339e-06
1.05993e-05
1.18041e-05
1.31626e-05
1.45275e-05
1.58114e-05
1.69812e-05
1.80369e-05
1.8989e-05
1.98417e-05
2.05859e-05
2.12026e-05
2.16677e-05
2.19565e-05
2.20453e-05
2.19113e-05
2.15343e-05
2.08989e-05
1.99974e-05
1.88257e-05
1.73504e-05
1.5395e-05
1.22387e-05
5.42873e-06
0
0
0
0
0
0
1.29977e-05
1.9408e-05
1.80816e-05
1.23741e-05
5.83576e-06
1.00975e-07
0
0
0
0
0
0
0
0
0
0
0
1.49152e-07
1.6451e-07
3.48483e-07
5.4781e-07
7.57528e-07
9.91779e-07
1.19451e-06
1.30091e-06
1.26166e-06
1.04951e-06
6.75587e-07
1.99624e-07
0
0
0
0
0
0
0
0
0
0
0
0
0
0
0
0
0
1.04382e-06
3.05529e-06
5.15585e-06
7.28699e-06
9.38199e-06
1.13646e-05
1.31507e-05
1.46547e-05
1.58023e-05
1.65458e-05
1.6876e-05
1.68259e-05
1.64611e-05
1.5863e-05
1.5111e-05
1.42709e-05
1.33895e-05
1.24967e-05
1.16135e-05
1.07648e-05
9.99601e-06
9.38671e-06
9.04963e-06
9.10044e-06
9.59968e-06
1.05113e-05
1.17193e-05
1.30797e-05
1.44656e-05
1.57909e-05
1.7015e-05
1.8132e-05
1.91514e-05
2.00794e-05
2.09091e-05
2.16207e-05
2.2187e-05
2.25783e-05
2.27652e-05
2.27191e-05
2.24136e-05
2.18265e-05
2.09443e-05
1.97609e-05
1.82498e-05
1.62521e-05
1.31156e-05
6.72678e-06
0
0
0
0
0
4.86632e-06
1.63084e-05
2.11652e-05
1.90464e-05
1.30028e-05
6.05602e-06
6.55612e-07
0
0
0
0
0
0
0
0
0
0
0
0
0
0
0
0
7.28019e-08
2.60896e-07
3.95103e-07
4.28794e-07
3.34477e-07
1.2148e-07
0
0
0
0
0
0
0
0
0
0
0
0
0
0
0
0
0
0
1.22841e-06
2.97819e-06
4.8126e-06
6.68634e-06
8.54471e-06
1.03203e-05
1.19327e-05
1.3294e-05
1.43222e-05
1.49616e-05
1.51996e-05
1.50721e-05
1.46522e-05
1.40287e-05
1.32857e-05
1.24902e-05
1.16893e-05
1.09132e-05
1.0184e-05
9.52709e-06
8.98338e-06
8.61356e-06
8.49155e-06
8.68549e-06
9.23331e-06
1.01247e-05
1.1298e-05
1.26528e-05
1.40756e-05
1.54688e-05
1.67712e-05
1.79616e-05
1.90455e-05
2.00336e-05
2.09257e-05
2.17054e-05
2.23435e-05
2.28048e-05
2.30523e-05
2.30495e-05
2.2762e-05
2.21599e-05
2.12232e-05
1.99438e-05
1.83047e-05
1.61755e-05
1.29875e-05
6.97853e-06
0
0
0
0
0
1.09948e-05
1.96053e-05
2.18288e-05
1.84748e-05
1.23327e-05
5.41438e-06
5.65679e-07
0
0
0
0
0
0
0
0
0
0
0
0
0
0
0
0
0
0
0
0
0
0
0
0
0
0
0
0
0
0
0
0
0
0
0
0
0
0
0
2.28937e-08
1.39567e-06
2.87498e-06
4.43447e-06
6.04056e-06
7.64956e-06
9.20254e-06
1.06227e-05
1.18194e-05
1.27037e-05
1.32131e-05
1.33353e-05
1.31141e-05
1.26337e-05
1.19916e-05
1.12753e-05
1.05508e-05
9.86225e-06
9.2368e-06
8.69304e-06
8.25076e-06
7.93799e-06
7.78873e-06
7.83708e-06
8.11525e-06
8.65743e-06
9.49403e-06
1.06257e-05
1.19979e-05
1.35056e-05
1.50299e-05
1.64782e-05
1.78063e-05
1.90118e-05
2.01114e-05
2.1115e-05
2.20126e-05
2.27738e-05
2.33553e-05
2.37096e-05
2.37898e-05
2.35538e-05
2.29683e-05
2.20157e-05
2.0701e-05
1.90439e-05
1.69986e-05
1.41797e-05
9.27342e-06
3.26204e-07
0
0
0
9.12035e-06
1.75664e-05
2.11316e-05
1.96541e-05
1.49614e-05
9.17322e-06
3.60472e-06
1.99702e-07
0
0
0
0
0
0
0
0
0
0
0
0
0
0
0
0
0
0
0
0
0
0
0
0
0
0
0
0
0
0
0
0
0
0
0
0
0
0
0
3.2123e-07
1.44805e-06
2.66475e-06
3.95319e-06
5.28975e-06
6.64082e-06
7.95631e-06
9.16482e-06
1.01758e-05
1.08959e-05
1.12588e-05
1.12561e-05
1.09436e-05
1.04192e-05
9.78815e-06
9.13739e-06
8.52626e-06
7.99004e-06
7.54744e-06
7.20805e-06
6.98038e-06
6.87557e-06
6.90187e-06
7.06324e-06
7.37059e-06
7.86342e-06
8.61292e-06
9.68074e-06
1.10586e-05
1.26506e-05
1.43151e-05
1.59259e-05
1.74109e-05
1.87556e-05
1.99782e-05
2.10966e-05
2.21041e-05
2.29631e-05
2.36142e-05
2.39894e-05
2.40245e-05
2.36693e-05
2.2895e-05
2.17012e-05
2.01227e-05
1.82334e-05
1.61205e-05
1.37407e-05
1.06167e-05
6.17274e-06
3.18209e-06
6.02835e-06
1.22277e-05
1.74987e-05
1.97174e-05
1.84947e-05
1.48078e-05
1.01701e-05
5.79501e-06
2.37472e-06
2.57963e-07
0
0
0
0
0
0
0
0
0
0
0
0
0
0
0
0
0
0
0
0
0
0
0
0
0
0
0
0
0
0
0
0
0
0
0
0
0
0
0
6.22037e-07
1.49059e-06
2.43153e-06
3.43238e-06
4.47689e-06
5.54042e-06
6.58331e-06
7.54417e-06
8.33885e-06
8.87456e-06
9.08444e-06
8.96637e-06
8.59152e-06
8.07113e-06
7.5104e-06
6.98387e-06
6.53305e-06
6.17775e-06
5.92535e-06
5.77571e-06
5.72716e-06
5.77823e-06
5.92104e-06
6.14395e-06
6.44789e-06
6.87709e-06
7.53148e-06
8.52204e-06
9.8836e-06
1.15328e-05
1.33113e-05
1.50631e-05
1.66877e-05
1.81531e-05
1.94725e-05
2.06648e-05
2.17205e-05
2.25887e-05
2.31872e-05
2.34249e-05
2.32283e-05
2.25634e-05
2.14466e-05
1.99424e-05
1.81539e-05
1.6218e-05
1.43231e-05
1.27101e-05
1.17641e-05
1.16832e-05
1.24279e-05
1.41227e-05
1.61948e-05
1.75245e-05
1.72244e-05
1.51285e-05
1.17899e-05
8.07591e-06
4.72552e-06
2.06264e-06
1.06595e-07
0
0
0
0
0
0
0
0
0
0
0
0
0
0
0
0
0
0
0
0
0
0
8.31026e-08
1.50935e-07
4.34085e-08
0
0
0
0
0
0
0
0
0
0
0
0
0
9.26487e-08
6.82417e-07
1.32813e-06
2.02109e-06
2.75216e-06
3.51092e-06
4.28222e-06
5.04028e-06
5.74031e-06
6.31222e-06
6.6698e-06
6.7501e-06
6.56415e-06
6.19981e-06
5.76707e-06
5.34826e-06
4.98831e-06
4.70482e-06
4.50445e-06
4.38951e-06
4.35597e-06
4.3972e-06
4.50727e-06
4.67312e-06
4.88014e-06
5.12621e-06
5.45242e-06
5.96293e-06
6.78874e-06
7.99256e-06
9.50924e-06
1.1183e-05
1.28474e-05
1.43838e-05
1.57416e-05
1.69218e-05
1.79379e-05
1.87782e-05
1.9388e-05
1.96789e-05
1.95573e-05
1.89564e-05
1.78635e-05
1.63323e-05