/*--------------------------------*- C++ -*----------------------------------*\
  =========                 |
  \\      /  F ield         | OpenFOAM: The Open Source CFD Toolbox
   \\    /   O peration     | Website:  https://openfoam.org
    \\  /    A nd           | Version:  10
     \\/     M anipulation  |
\*---------------------------------------------------------------------------*/
FoamFile
{
    format      ascii;
    class       volScalarField;
    location    "0.07";
    object      p;
}
// * * * * * * * * * * * * * * * * * * * * * * * * * * * * * * * * * * * * * //

dimensions      [0 2 -2 0 0 0 0];

internalField   nonuniform List<scalar> 
6820
(
-11.0377
-11.3407
-11.3882
-11.4062
-11.4408
-11.4688
-11.4902
-11.5095
-11.5271
-11.5429
-11.5571
-11.5697
-11.5808
-11.5903
-11.598
-11.6035
-11.6067
-11.6069
-11.6037
-11.5962
-11.5836
-11.5647
-11.5383
-11.5026
-11.4561
-11.397
-11.3235
-11.2343
-11.1296
-11.0095
-10.8862
-10.7439
-10.6862
-11.2388
-11.3644
-11.4024
-11.4202
-11.4491
-11.474
-11.4939
-11.5122
-11.5292
-11.5447
-11.5587
-11.5714
-11.5827
-11.5925
-11.6006
-11.6067
-11.6107
-11.6119
-11.61
-11.6042
-11.5938
-11.5778
-11.5551
-11.5243
-11.4839
-11.4326
-11.3688
-11.2914
-11.2003
-11.0965
-10.9851
-10.8725
-10.77
-11.2386
-11.3246
-11.3846
-11.4135
-11.4446
-11.4721
-11.4943
-11.5142
-11.5323
-11.5487
-11.5635
-11.5769
-11.5889
-11.5994
-11.6084
-11.6156
-11.6209
-11.6239
-11.6243
-11.6216
-11.6153
-11.6048
-11.5897
-11.5692
-11.543
-11.5109
-11.4733
-11.4313
-11.3876
-11.3465
-11.3176
-11.3114
-11.3576
-11.2954
-11.3657
-11.4152
-11.4377
-11.4622
-11.4857
-11.5053
-11.523
-11.5395
-11.5547
-11.5687
-11.5815
-11.5932
-11.6036
-11.6127
-11.6203
-11.6262
-11.6301
-11.6318
-11.631
-11.6274
-11.6205
-11.6101
-11.5962
-11.5788
-11.5585
-11.5367
-11.516
-11.5008
-11.4984
-11.5211
-11.5867
-11.7266
-11.3251
-11.3645
-11.4051
-11.4304
-11.4561
-11.4809
-11.5021
-11.5211
-11.5388
-11.5551
-11.5701
-11.5838
-11.5964
-11.6078
-11.618
-11.6268
-11.6341
-11.6398
-11.6438
-11.6459
-11.6459
-11.6437
-11.6396
-11.6337
-11.6268
-11.6201
-11.6159
-11.6177
-11.631
-11.6641
-11.73
-11.8463
-12.0426
-11.3547
-11.3861
-11.425
-11.4506
-11.4737
-11.4959
-11.5153
-11.5329
-11.5493
-11.5645
-11.5787
-11.5919
-11.6042
-11.6155
-11.6259
-11.6351
-11.6433
-11.6502
-11.6559
-11.6603
-11.6635
-11.6656
-11.667
-11.6683
-11.6708
-11.676
-11.6869
-11.7076
-11.7441
-11.8051
-11.9033
-12.0551
-12.2861
-11.3794
-11.3999
-11.43
-11.4524
-11.4734
-11.4945
-11.5138
-11.5317
-11.5485
-11.5644
-11.5793
-11.5933
-11.6064
-11.6187
-11.6302
-11.6408
-11.6505
-11.6595
-11.6676
-11.6751
-11.6821
-11.689
-11.6965
-11.7055
-11.7174
-11.7345
-11.7598
-11.7978
-11.8546
-11.9385
-12.0612
-12.236
-12.4839
-11.4013
-11.4164
-11.443
-11.4654
-11.486
-11.5064
-11.5251
-11.5424
-11.5587
-11.5741
-11.5886
-11.6024
-11.6155
-11.6279
-11.6398
-11.651
-11.6618
-11.6721
-11.6821
-11.6921
-11.7024
-11.7135
-11.7263
-11.742
-11.7621
-11.7891
-11.8263
-11.878
-11.95
-12.0498
-12.1874
-12.3734
-12.6235
-11.4208
-11.4319
-11.4535
-11.4731
-11.4915
-11.5099
-11.5276
-11.5443
-11.5603
-11.5757
-11.5905
-11.6047
-11.6184
-11.6317
-11.6445
-11.6571
-11.6694
-11.6816
-11.694
-11.7069
-11.7208
-11.7363
-11.7544
-11.7765
-11.8042
-11.8401
-11.8873
-11.95
-12.0333
-12.1437
-12.2891
-12.4773
-12.7195
-11.4386
-11.447
-11.4652
-11.4836
-11.5012
-11.5191
-11.5364
-11.553
-11.5689
-11.5842
-11.599
-11.6133
-11.6273
-11.6409
-11.6543
-11.6677
-11.6811
-11.6948
-11.7091
-11.7244
-11.7413
-11.7606
-11.7832
-11.8105
-11.8444
-11.8872
-11.9418
-12.012
-12.1021
-12.2174
-12.3639
-12.547
-12.7739
-11.4549
-11.4614
-11.4767
-11.4931
-11.5091
-11.5255
-11.5418
-11.5575
-11.5729
-11.588
-11.6027
-11.6172
-11.6315
-11.6458
-11.66
-11.6744
-11.6892
-11.7046
-11.7209
-11.7387
-11.7586
-11.7813
-11.808
-11.84
-11.879
-11.9272
-11.9873
-12.0623
-12.1559
-12.272
-12.4149
-12.5879
-12.7953
-11.47
-11.4752
-11.4882
-11.503
-11.5181
-11.5337
-11.5495
-11.565
-11.5803
-11.5954
-11.6102
-11.625
-11.6397
-11.6544
-11.6693
-11.6846
-11.7005
-11.7173
-11.7353
-11.7552
-11.7775
-11.803
-11.8329
-11.8683
-11.911
-11.9627
-12.0258
-12.1028
-12.1965
-12.3096
-12.4449
-12.6043
-12.7896
-11.484
-11.4884
-11.4995
-11.5128
-11.5267
-11.5412
-11.5561
-11.571
-11.5858
-11.6006
-11.6153
-11.6301
-11.645
-11.6601
-11.6757
-11.6918
-11.7087
-11.7268
-11.7465
-11.7682
-11.7926
-11.8205
-11.8529
-11.891
-11.9362
-11.99
-12.0544
-12.1312
-12.2225
-12.3301
-12.4556
-12.5995
-12.7621
-11.4972
-11.5009
-11.5105
-11.5226
-11.5354
-11.5492
-11.5635
-11.578
-11.5926
-11.6073
-11.6222
-11.6372
-11.6524
-11.668
-11.6842
-11.701
-11.7189
-11.7381
-11.759
-11.7822
-11.8082
-11.8378
-11.872
-11.9116
-11.958
-12.0124
-12.0762
-12.1509
-12.2377
-12.3377
-12.4516
-12.579
-12.7192
-11.5096
-11.5128
-11.5212
-11.5321
-11.5441
-11.557
-11.5706
-11.5846
-11.5988
-11.6132
-11.6279
-11.6429
-11.6583
-11.6742
-11.6907
-11.7082
-11.7267
-11.7468
-11.7687
-11.793
-11.8202
-11.8509
-11.8861
-11.9264
-11.973
-12.0267
-12.0887
-12.1598
-12.2408
-12.3321
-12.4337
-12.5447
-12.6638
-11.5213
-11.5241
-11.5316
-11.5415
-11.5526
-11.5649
-11.5779
-11.5914
-11.6054
-11.6197
-11.6343
-11.6494
-11.665
-11.6812
-11.6982
-11.7161
-11.7353
-11.756
-11.7787
-11.8037
-11.8316
-11.8629
-11.8983
-11.9385
-11.9843
-12.0363
-12.0952
-12.1616
-12.2358
-12.3176
-12.4067
-12.5019
-12.6014
-11.5324
-11.5349
-11.5416
-11.5506
-11.561
-11.5726
-11.585
-11.5981
-11.6117
-11.6257
-11.6402
-11.6552
-11.6708
-11.6871
-11.7043
-11.7225
-11.7421
-11.7632
-11.7862
-11.8116
-11.8396
-11.871
-11.906
-11.9454
-11.9895
-12.039
-12.0941
-12.1551
-12.2219
-12.2942
-12.3712
-12.4516
-12.5336
-11.5428
-11.5451
-11.5511
-11.5595
-11.5692
-11.5801
-11.592
-11.6047
-11.6179
-11.6318
-11.6461
-11.6611
-11.6768
-11.6932
-11.7105
-11.7289
-11.7487
-11.77
-11.7931
-11.8185
-11.8464
-11.8773
-11.9114
-11.9493
-11.9912
-12.0375
-12.0882
-12.1433
-12.2026
-12.2655
-12.331
-12.3979
-12.4645
-11.5527
-11.5547
-11.5602
-11.568
-11.5771
-11.5875
-11.5989
-11.6111
-11.624
-11.6376
-11.6517
-11.6665
-11.6821
-11.6984
-11.7157
-11.7341
-11.7538
-11.775
-11.798
-11.823
-11.8503
-11.8802
-11.913
-11.9489
-11.9881
-12.0307
-12.0767
-12.1258
-12.1777
-12.2316
-12.2866
-12.3415
-12.3946
-11.562
-11.5638
-11.5689
-11.5761
-11.5847
-11.5946
-11.6055
-11.6173
-11.6299
-11.6431
-11.6571
-11.6717
-11.6871
-11.7033
-11.7205
-11.7388
-11.7582
-11.7792
-11.8017
-11.8261
-11.8525
-11.8811
-11.9122
-11.9458
-11.9819
-12.0207
-12.0618
-12.1049
-12.1497
-12.1952
-12.2407
-12.2851
-12.3267
-11.5707
-11.5724
-11.5771
-11.5838
-11.592
-11.6014
-11.6119
-11.6233
-11.6355
-11.6484
-11.6621
-11.6764
-11.6916
-11.7076
-11.7245
-11.7424
-11.7615
-11.7819
-11.8037
-11.8272
-11.8524
-11.8794
-11.9084
-11.9394
-11.9723
-12.007
-12.0433
-12.0807
-12.1188
-12.1568
-12.1939
-12.2291
-12.2611
-11.5788
-11.5804
-11.5848
-11.5911
-11.5988
-11.6078
-11.6179
-11.6289
-11.6407
-11.6533
-11.6667
-11.6807
-11.6955
-11.7112
-11.7277
-11.7451
-11.7637
-11.7834
-11.8044
-11.8267
-11.8505
-11.8757
-11.9025
-11.9307
-11.9603
-11.991
-12.0226
-12.0546
-12.0866
-12.1178
-12.1475
-12.1749
-12.199
-11.5863
-11.5879
-11.592
-11.598
-11.6053
-11.6139
-11.6236
-11.6342
-11.6457
-11.6579
-11.6709
-11.6845
-11.699
-11.7142
-11.7302
-11.7471
-11.7649
-11.7838
-11.8037
-11.8247
-11.8469
-11.8702
-11.8946
-11.92
-11.9462
-11.9731
-12.0002
-12.0273
-12.0537
-12.079
-12.1023
-12.1232
-12.1407
-11.5933
-11.5947
-11.5987
-11.6043
-11.6113
-11.6195
-11.6288
-11.6391
-11.6501
-11.662
-11.6745
-11.6878
-11.7017
-11.7164
-11.7318
-11.748
-11.7649
-11.7828
-11.8015
-11.8211
-11.8415
-11.8628
-11.8848
-11.9074
-11.9304
-11.9535
-11.9766
-11.9991
-12.0206
-12.0407
-12.0587
-12.0742
-12.0864
-11.5997
-11.601
-11.6048
-11.6102
-11.6168
-11.6247
-11.6337
-11.6436
-11.6542
-11.6657
-11.6778
-11.6906
-11.704
-11.7181
-11.7329
-11.7483
-11.7644
-11.7811
-11.7985
-11.8166
-11.8353
-11.8545
-11.8741
-11.894
-11.9139
-11.9336
-11.9529
-11.9713
-11.9885
-12.0041
-12.0176
-12.0286
-12.0366
-11.6054
-11.6067
-11.6103
-11.6154
-11.6218
-11.6294
-11.638
-11.6475
-11.6577
-11.6687
-11.6804
-11.6926
-11.7054
-11.7188
-11.7328
-11.7473
-11.7624
-11.7779
-11.794
-11.8105
-11.8273
-11.8444
-11.8617
-11.8789
-11.896
-11.9125
-11.9284
-11.9432
-11.9567
-11.9685
-11.9783
-11.9857
-11.9903
-11.6105
-11.6117
-11.6152
-11.6202
-11.6263
-11.6336
-11.6419
-11.6511
-11.661
-11.6716
-11.6828
-11.6945
-11.7068
-11.7195
-11.7327
-11.7464
-11.7604
-11.7748
-11.7894
-11.8044
-11.8195
-11.8346
-11.8496
-11.8643
-11.8787
-11.8924
-11.9052
-11.9169
-11.9271
-11.9357
-11.9424
-11.9468
-11.9488
-11.6149
-11.6161
-11.6194
-11.6242
-11.6301
-11.6371
-11.6451
-11.6538
-11.6633
-11.6734
-11.684
-11.6952
-11.7067
-11.7187
-11.731
-11.7437
-11.7566
-11.7697
-11.783
-11.7963
-11.8096
-11.8229
-11.8358
-11.8483
-11.8602
-11.8713
-11.8814
-11.8904
-11.8979
-11.9038
-11.9079
-11.91
-11.91
-11.6185
-11.6197
-11.623
-11.6277
-11.6335
-11.6404
-11.6482
-11.6567
-11.6659
-11.6756
-11.6858
-11.6964
-11.7074
-11.7187
-11.7302
-11.7419
-11.7538
-11.7657
-11.7776
-11.7894
-11.8011
-11.8124
-11.8234
-11.8338
-11.8435
-11.8523
-11.8601
-11.8666
-11.8718
-11.8755
-11.8775
-11.8777
-11.8759
-11.6214
-11.6225
-11.6257
-11.6303
-11.6359
-11.6424
-11.6498
-11.658
-11.6667
-11.6759
-11.6856
-11.6955
-11.7058
-11.7163
-11.7269
-11.7377
-11.7484
-11.7592
-11.7698
-11.7802
-11.7903
-11.8
-11.8092
-11.8177
-11.8254
-11.8322
-11.838
-11.8426
-11.8458
-11.8477
-11.848
-11.8467
-11.8437
-11.6235
-11.6247
-11.628
-11.6327
-11.6384
-11.645
-11.6524
-11.6605
-11.669
-11.6779
-11.6872
-11.6967
-11.7063
-11.7161
-11.7259
-11.7357
-11.7455
-11.755
-11.7644
-11.7734
-11.782
-11.7901
-11.7976
-11.8044
-11.8103
-11.8153
-11.8193
-11.8221
-11.8236
-11.8239
-11.8227
-11.8201
-11.8161
-11.6245
-11.6256
-11.6287
-11.6332
-11.6386
-11.6449
-11.6519
-11.6596
-11.6678
-11.6763
-11.6851
-11.694
-11.703
-11.7121
-11.7212
-11.7303
-11.7391
-11.7476
-11.7559
-11.7637
-11.771
-11.7778
-11.7839
-11.7892
-11.7936
-11.7972
-11.7996
-11.801
-11.8012
-11.8002
-11.798
-11.7944
-11.7896
-11.6249
-11.6264
-11.6302
-11.6353
-11.6413
-11.6479
-11.6551
-11.6627
-11.6706
-11.6788
-11.6871
-11.6955
-11.704
-11.7124
-11.7206
-11.7287
-11.7365
-11.744
-11.7511
-11.7577
-11.7637
-11.7691
-11.7738
-11.7777
-11.7807
-11.7828
-11.784
-11.784
-11.783
-11.7808
-11.7776
-11.7731
-11.7675
-11.6234
-11.6245
-11.6278
-11.6325
-11.6381
-11.6445
-11.6516
-11.659
-11.6668
-11.6748
-11.6829
-11.691
-11.6991
-11.707
-11.7148
-11.7223
-11.7294
-11.7362
-11.7424
-11.7482
-11.7533
-11.7577
-11.7614
-11.7643
-11.7663
-11.7674
-11.7675
-11.7666
-11.7646
-11.7616
-11.7576
-11.7525
-11.7464
-11.6219
-11.6243
-11.6294
-11.6354
-11.6419
-11.6488
-11.656
-11.6634
-11.671
-11.6786
-11.6861
-11.6936
-11.701
-11.7081
-11.7151
-11.7216
-11.7278
-11.7336
-11.7388
-11.7434
-11.7474
-11.7507
-11.7533
-11.755
-11.7559
-11.7559
-11.755
-11.7531
-11.7502
-11.7464
-11.7416
-11.7359
-11.7292
-11.6156
-11.6164
-11.6209
-11.6269
-11.6335
-11.6408
-11.6484
-11.6562
-11.6641
-11.672
-11.6798
-11.6874
-11.6948
-11.7019
-11.7087
-11.715
-11.7209
-11.7263
-11.7311
-11.7353
-11.7387
-11.7415
-11.7434
-11.7445
-11.7447
-11.7441
-11.7425
-11.7399
-11.7365
-11.7321
-11.7268
-11.7206
-11.7134
-11.6137
-11.6194
-11.6271
-11.6341
-11.6411
-11.6484
-11.6557
-11.6629
-11.6701
-11.6772
-11.6842
-11.6909
-11.6975
-11.7037
-11.7096
-11.7151
-11.7201
-11.7245
-11.7284
-11.7317
-11.7342
-11.7361
-11.7371
-11.7374
-11.7368
-11.7354
-11.7331
-11.7299
-11.7258
-11.7209
-11.7151
-11.7085
-11.7011
-11.592
-11.5959
-11.6066
-11.6164
-11.6257
-11.6352
-11.6443
-11.6531
-11.6615
-11.6696
-11.6774
-11.6848
-11.6918
-11.6984
-11.7046
-11.7102
-11.7152
-11.7197
-11.7234
-11.7265
-11.7289
-11.7305
-11.7312
-11.7311
-11.7302
-11.7284
-11.7257
-11.7221
-11.7176
-11.7122
-11.706
-11.699
-11.6911
-11.6041
-11.6139
-11.6236
-11.6306
-11.6382
-11.6458
-11.6531
-11.6603
-11.6674
-11.6743
-11.681
-11.6874
-11.6936
-11.6994
-11.7047
-11.7096
-11.714
-11.7178
-11.721
-11.7235
-11.7253
-11.7263
-11.7266
-11.7261
-11.7248
-11.7226
-11.7195
-11.7157
-11.711
-11.7054
-11.6991
-11.692
-11.6842
-11.5032
-11.57
-11.5945
-11.606
-11.6204
-11.6332
-11.6436
-11.6531
-11.6619
-11.6702
-11.6778
-11.6851
-11.6918
-11.698
-11.7037
-11.7088
-11.7134
-11.7173
-11.7205
-11.723
-11.7247
-11.7257
-11.7258
-11.7251
-11.7235
-11.7211
-11.7178
-11.7136
-11.7085
-11.7026
-11.6958
-11.6882
-11.6797
-10.4499
-10.5332
-12.9409
-17.2015
-22.9403
-28.8975
-33.2183
-34.8863
-33.1033
-28.3353
-21.4641
-13.7715
-7.00088
-2.24814
0.568179
1.93126
2.10515
1.29226
-0.996681
-5.37121
-11.8132
-19.6051
-27.7932
-35.7629
-43.3039
-50.3455
-56.6992
-61.9531
-65.5125
-66.8137
-65.5864
-61.9141
-56.1985
-48.9533
-40.9195
-33.0704
-26.1429
-20.33
-15.542
-11.6781
-8.6465
-6.32083
-4.55383
-3.21437
-2.20111
-1.43822
-0.868228
-0.446974
-0.140346
0.0781574
0.229296
0.329348
0.39101
0.424198
0.436616
0.434209
0.42152
0.401987
0.378175
0.351974
0.324752
0.297479
0.270825
0.245237
0.221
0.198279
0.177154
0.157642
0.139708
0.123294
0.108326
0.094731
0.0824309
0.0713625
0.0614769
0.0527359
0.0450898
0.0385374
0.0330482
0.0285073
0.0247839
0.021763
0.0192508
0.0170823
0.0151969
0.0135435
0.0120972
0.0108458
0.00975812
0.00882263
0.00796789
0.00722916
0.00641567
0.00580225
0.00471655
0.0044422
0.00229628
0.00369384
-0.00228819
0.00653058
-10.808
-11.0335
-12.8784
-16.7927
-22.145
-27.4614
-31.3657
-32.5284
-30.5528
-25.8271
-19.4501
-12.7157
-6.89522
-2.6951
-0.0892319
1.22972
1.41928
0.617757
-1.41166
-5.24854
-11.0353
-18.2828
-26.14
-33.9297
-41.3208
-48.163
-54.2569
-59.2308
-62.5653
-63.7781
-62.6071
-59.1167
-53.6473
-46.7248
-39.1287
-31.788
-25.3266
-19.8698
-15.338
-11.6542
-8.7406
-6.48266
-4.74778
-3.4185
-2.40297
-1.63097
-1.04829
-0.612729
-0.291317
-0.0582431
0.106777
0.219781
0.293398
0.337505
0.359814
0.36631
0.361598
0.349184
0.331708
0.311134
0.288899
0.266038
0.243285
0.221141
0.199943
0.179899
0.161132
0.143693
0.12758
0.112765
0.0991989
0.0868317
0.0756072
0.0654788
0.0564111
0.0483786
0.0413401
0.0353039
0.0302518
0.0260845
0.0226768
0.0199228
0.0176562
0.0157039
0.0140075
0.0125207
0.0112224
0.0101036
0.0091361
0.0083093
0.0075532
0.00690129
0.0061656
0.00561445
0.0045877
0.00434518
0.00225278
0.00363248
-0.00225371
0.0064239
-11.5255
-12.0112
-13.805
-17.1653
-21.549
-25.8768
-28.7942
-29.2776
-27.1717
-22.9332
-17.4942
-11.8588
-6.91745
-3.20996
-0.810403
0.446375
0.655859
-0.113408
-1.95519
-5.31749
-10.4409
-17.0425
-24.4369
-31.9426
-39.1302
-45.7568
-51.5941
-56.2985
-59.4159
-60.5409
-59.4115
-56.0864
-50.8736
-44.3242
-37.2334
-30.4545
-24.4795
-19.3858
-15.1151
-11.6157
-8.82353
-6.63611
-4.93596
-3.61932
-2.60358
-1.82403
-1.22976
-0.78059
-0.444839
-0.197455
-0.018612
0.107402
0.193068
0.248232
0.2806
0.296184
0.299637
0.294529
0.283569
0.268791
0.251701
0.2334
0.21468
0.196102
0.178048
0.160778
0.144452
0.12916
0.114937
0.101785
0.089685
0.0786077
0.0685159
0.0593772
0.0511675
0.0438726
0.0374642
0.0319615
0.0273576
0.0235771
0.0205004
0.0180217
0.0160063
0.014278
0.0127769
0.0114625
0.0103175
0.00933608
0.00849304
0.00777898
0.00712526
0.0065636
0.00590884
0.00542241
0.00445686
0.00424712
0.00220956
0.00357053
-0.00221925
0.00631626
-12.0344
-12.701
-14.2575
-16.871
-20.1855
-23.363
-25.4291
-25.6615
-23.8908
-20.4337
-15.9751
-11.2808
-7.0545
-3.77513
-1.58263
-0.404868
-0.182504
-0.901875
-2.59974
-5.55029
-10.0277
-15.916
-22.725
-29.8294
-36.7398
-43.1234
-48.7026
-53.1474
-56.0588
-57.0946
-55.9999
-52.8335
-47.9071
-41.7977
-35.2836
-29.1019
-23.6175
-18.8855
-14.8769
-11.564
-8.89511
-6.78023
-5.11741
-3.81605
-2.80231
-2.01687
-1.41218
-0.950195
-0.600605
-0.339217
-0.146715
-0.00769599
0.0901054
0.156443
0.199017
0.223857
0.235654
0.238031
0.233763
0.22495
0.213162
0.199567
0.185015
0.170123
0.155327
0.14093
0.127137
0.114076
0.101816
0.0903899
0.0798061
0.0700593
0.061134
0.0530147
0.0456917
0.0391625
0.0334135
0.0284709
0.024338
0.0209616
0.0182333
0.0160449
0.0142865
0.0127913
0.0114932
0.0103582
0.00937285
0.00853475
0.00782177
0.00722569
0.00667941
0.00621261
0.00564305
0.00522473
0.00432344
0.00414792
0.00216698
0.00350842
-0.00218403
0.00620736
-12.4057
-13.1053
-14.4358
-16.4955
-18.9939
-21.3543
-22.8893
-22.9821
-21.4656
-18.5844
-14.8585
-10.892
-7.25928
-4.3723
-2.39057
-1.30393
-1.08099
-1.73697
-3.30595
-5.91947
-9.80509
-14.9621
-21.0834
-27.6601
-34.1892
-40.2738
-45.5801
-49.7702
-52.4875
-53.4277
-52.3701
-49.3792
-44.7949
-39.2039
-33.3278
-27.7548
-22.7521
-18.375
-14.6268
-11.5005
-8.95551
-6.91478
-5.29172
-4.00819
-2.99864
-2.20902
-1.59514
-1.12122
-0.75837
-0.483321
-0.27735
-0.125406
-0.0154335
0.0621887
0.115107
0.149355
0.169662
0.179698
0.182292
0.179607
0.173277
0.16453
0.154279
0.143194
0.131763
0.120338
0.109166
0.0984124
0.0881847
0.0785486
0.0695402
0.0611788
0.0534696
0.0464137
0.040015
0.0342825
0.0292182
0.0248565
0.0212125
0.0182514
0.0158841
0.014003
0.0125071
0.0112526
0.0101642
0.00921487
0.00839498
0.00770549
0.00712754
0.00665412
0.0062197
0.00585178
0.00537113
0.00502381
0.00418936
0.00404912
0.00212621
0.00344703
-0.00214738
0.00609738
-12.6755
-13.3693
-14.5253
-16.1803
-18.1065
-19.8706
-20.9249
-20.8514
-19.5197
-17.0995
-13.9747
-10.6229
-7.50966
-4.983
-3.20765
-2.21732
-2.00774
-2.60196
-4.04254
-6.38728
-9.76826
-14.2325
-19.6106
-25.5395
-31.5645
-37.2597
-42.248
-46.175
-48.6993
-49.5444
-48.543
-45.7794
-41.6174
-36.6242
-31.4162
-26.4373
-21.8949
-17.8609
-14.3682
-11.4266
-9.00482
-7.03936
-5.45836
-4.19519
-3.19204
-2.39998
-1.77824
-1.29331
-0.917838
-0.629536
-0.410322
-0.245558
-0.123434
-0.0344653
0.0289166
0.0727234
0.101699
0.119555
0.129172
0.132774
0.132053
0.128297
0.122477
0.11532
0.107364
0.0990091
0.0905463
0.0821823
0.0740597
0.0662766
0.0588981
0.0519683
0.0455149
0.0395573
0.0341146
0.0292083
0.0248553
0.0210988
0.0179652
0.0154361
0.0134443
0.0118859
0.0106607
0.00965405
0.00878266
0.00802566
0.0073775
0.0068425
0.00640518
0.00605976
0.00574235
0.00547808
0.00509076
0.00481792
0.00405339
0.0039498
0.00208655
0.00338552
-0.00211008
0.00598477
-12.8743
-13.5258
-14.5107
-15.8281
-17.2946
-18.5784
-19.2929
-19.1266
-17.9618
-15.9158
-13.286
-10.4524
-7.78931
-5.58911
-4.01319
-3.12179
-2.9339
-3.47521
-4.78872
-6.90697
-9.87867
-13.7349
-18.3846
-23.5903
-28.9951
-34.1939
-38.7915
-42.4205
-44.7396
-45.508
-44.607
-42.1458
-38.4893
-34.1425
-29.59
-25.167
-21.0548
-17.3484
-14.1044
-11.3434
-9.04318
-7.15379
-5.61699
-4.3766
-3.38203
-2.58928
-1.96103
-1.46611
-1.07871
-0.777623
-0.545448
-0.368
-0.233759
-0.133416
-0.059486
-0.0059966
0.0317938
0.0576265
0.0744281
0.0844701
0.0895042
0.0908759
0.0896142
0.086501
0.0821274
0.0769405
0.071275
0.065378
0.05943
0.0535628
0.047871
0.0424243
0.0372727
0.0324541
0.0280031
0.0239541
0.0203387
0.0172096
0.0146058
0.0125251
0.0109192
0.00969455
0.00875316
0.00800047
0.00735298
0.00679479
0.00632439
0.00594963
0.00565843
0.0054463
0.005251
0.00509505
0.00480535
0.00461034
0.00391867
0.00385288
0.00205076
0.00332643
-0.00206979
0.00587174
-12.9982
-13.5887
-14.417
-15.4598
-16.5705
-17.5018
-17.9645
-17.7233
-16.6908
-14.9566
-12.7465
-10.3561
-8.08549
-6.18113
-4.79599
-4.0046
-3.84208
-4.33861
-5.53083
-7.44366
-10.0824
-13.4358
-17.4359
-21.9222
-26.6373
-31.2439
-35.3689
-38.6496
-40.7567
-41.4748
-40.726
-38.6376
-35.5355
-31.8262
-27.8766
-23.9551
-20.2386
-16.8425
-13.8379
-11.2518
-9.07082
-7.258
-5.76736
-4.55202
-3.56812
-2.77646
-2.14311
-1.63924
-1.24068
-0.927324
-0.682514
-0.492565
-0.346278
-0.234545
-0.150002
-0.08673
-0.0399971
-0.00604421
0.0180882
0.0347169
0.0456488
0.0522847
0.0557078
0.0567541
0.0560665
0.0541414
0.0513596
0.0480088
0.0443063
0.0404173
0.0364668
0.0325511
0.0287433
0.0251006
0.0216742
0.0185125
0.0156608
0.0131827
0.0111294
0.00951461
0.00830628
0.00742574
0.00678179
0.00628846
0.00587142
0.00551843
0.00523182
0.00502308
0.00488363
0.00481026
0.00474239
0.00469973
0.00451227
0.0043987
0.00378308
0.00375629
0.00201679
0.00326728
-0.00202909
0.00575506
-13.0675
-13.5892
-14.277
-15.096
-15.9285
-16.5875
-16.8601
-16.5748
-15.6657
-14.1959
-12.3365
-10.3203
-8.38951
-6.75101
-5.54533
-4.8533
-4.7189
-5.17697
-6.25687
-7.97844
-10.3327
-13.2776
-16.7371
-20.5831
-24.6232
-28.5984
-32.1949
-35.0862
-36.9727
-37.6638
-37.1075
-35.4182
-32.8519
-29.7133
-26.2865
-22.8059
-19.4511
-16.3473
-13.571
-11.1526
-9.08805
-7.35208
-5.90928
-4.72111
-3.74991
-2.96109
-2.32406
-1.81234
-1.40344
-1.07837
-0.821301
-0.619069
-0.460839
-0.337735
-0.242534
-0.169389
-0.113597
-0.0713964
-0.0397985
-0.0164457
0.000517705
0.012545
0.0207721
0.026089
0.0291919
0.0306245
0.0308103
0.0300794
0.0286893
0.0268399
0.0246858
0.0223496
0.0199286
0.0175001
0.0151324
0.0128878
0.0108259
0.00902122
0.00753796
0.00640559
0.00560776
0.0050816
0.00474568
0.00451932
0.00433963
0.00419833
0.00410176
0.00406515
0.00408351
0.00415488
0.00422027
0.00429632
0.00421607
0.00418779
0.00365153
0.00366495
0.00198962
0.00321292
-0.00198335
0.00563942
-13.0888
-13.5401
-14.1038
-14.7412
-15.3576
-15.8128
-15.9494
-15.641
-14.838
-13.5884
-12.024
-10.3272
-8.6926
-7.29275
-6.25414
-5.6584
-5.55354
-5.97734
-6.95464
-8.49921
-10.5988
-13.202
-16.2224
-19.5397
-22.9942
-26.382
-29.4564
-31.9511
-33.617
-34.2925
-33.9246
-32.5908
-30.4748
-27.8046
-24.8147
-21.7204
-18.6963
-15.8662
-13.3049
-11.0465
-9.09534
-7.43622
-6.04271
-4.8836
-3.92702
-3.14277
-2.50348
-1.98506
-1.56665
-1.2305
-0.961576
-0.747317
-0.577279
-0.442848
-0.336965
-0.253879
-0.18893
-0.13836
-0.0991677
-0.0689606
-0.0458404
-0.0283035
-0.0151602
-0.00546748
0.00152281
0.00640184
0.00963797
0.0116046
0.0125949
0.0128432
0.0125378
0.011829
0.0108369
0.00965972
0.00838344
0.0070856
0.00583938
0.00473091
0.00383745
0.00320368
0.00282957
0.0026675
0.00264643
0.00269407
0.00275772
0.00283383
0.00293286
0.0030739
0.0032556
0.00347721
0.00368138
0.00388132
0.00391317
0.00397395
0.00352035
0.00357493
0.00196514
0.00315844
-0.00193745
0.00551883
-13.0743
-13.458
-13.9143
-14.4049
-14.8541
-15.1561
-15.1948
-14.8781
-14.1707
-13.109
-11.7942
-10.3693
-8.9909
-7.80294
-6.91741
-6.41282
-6.33818
-6.73131
-7.61463
-8.99671
-10.864
-13.1677
-15.8219
-18.7105
-21.6899
-24.5891
-27.2115
-29.3486
-30.8078
-31.4532
-31.2198
-30.1492
-28.3737
-26.0735
-23.4505
-20.6987
-17.9774
-15.4008
-13.0406
-10.9342
-9.09335
-7.51078
-6.16765
-5.03929
-4.09914
-3.32113
-2.68102
-2.15703
-1.73002
-1.38342
-1.1031
-0.877102
-0.69542
-0.549731
-0.433165
-0.340087
-0.265895
-0.206853
-0.159951
-0.122771
-0.0933752
-0.0702131
-0.0520447
-0.0378762
-0.026909
-0.0185023
-0.0121398
-0.00740636
-0.00397069
-0.00156421
3.06073e-05
0.000992613
0.00146893
0.0015786
0.00142554
0.00110239
0.000696109
0.000305214
2.06023e-05
-9.81376e-05
-3.50848e-05
0.000177798
0.00048079
0.000810218
0.0011238
0.00142378
0.00172484
0.00205007
0.00240186
0.00278057
0.00313033
0.0034605
0.00361029
0.00376457
0.0033974
0.00349433
0.0019517
0.00311209
-0.00188319
0.00540084
-13.032
-13.3529
-13.7171
-14.0896
-14.41
-14.5985
-14.5697
-14.2569
-13.6351
-12.7328
-11.6286
-10.4352
-9.2785
-8.27802
-7.53141
-7.11142
-7.06634
-7.43222
-8.22955
-9.46346
-11.1191
-13.1526
-15.4868
-18.015
-20.6069
-23.1133
-25.3701
-27.2099
-28.4804
-29.0664
-28.9021
-28.0097
-26.4902
-24.492
-22.1871
-19.742
-17.2959
-14.9518
-12.7787
-10.8167
-9.08286
-7.57617
-6.28421
-5.18807
-4.26602
-3.49585
-2.85633
-2.32794
-1.89322
-1.53685
-1.24562
-1.0082
-0.815069
-0.658215
-0.530987
-0.427884
-0.34438
-0.276775
-0.222061
-0.1778
-0.14202
-0.113129
-0.0898373
-0.0710992
-0.0560666
-0.0440501
-0.0344889
-0.0269254
-0.0209862
-0.0163669
-0.0128195
-0.0101387
-0.00815386
-0.00672255
-0.0057209
-0.00504067
-0.00458175
-0.00423333
-0.00389079
-0.0034799
-0.00296865
-0.00237302
-0.00174021
-0.00112418
-0.000556438
-2.80883e-05
0.000479653
0.00099392
0.00152093
0.00206212
0.00256303
0.00302883
0.00330171
0.00355345
0.00327617
0.00341608
0.00194193
0.00306525
-0.00182869
0.00527487
-12.9694
-13.2339
-13.5207
-13.7989
-14.0208
-14.1262
-14.0525
-13.7516
-13.2066
-12.4407
-11.5153
-10.5192
-9.55366
-8.71756
-8.09522
-7.75236
-7.73489
-8.07621
-8.79489
-9.89398
-11.3578
-13.1468
-15.1934
-17.4039
-19.6632
-21.8402
-23.7939
-25.3839
-26.4814
-26.9913
-26.8582
-26.0966
-24.7857
-23.0469
-21.0216
-18.8495
-16.6509
-14.5191
-12.52
-10.6951
-9.06472
-7.63291
-6.3926
-5.32991
-4.42748
-3.66668
-3.02912
-2.49748
-2.05596
-1.69053
-1.38888
-1.14039
-0.936021
-0.768116
-0.630266
-0.517123
-0.424255
-0.348011
-0.285395
-0.233958
-0.191699
-0.156984
-0.128477
-0.105084
-0.0859077
-0.0702097
-0.0573824
-0.0469254
-0.0384276
-0.0315493
-0.0260072
-0.0215679
-0.0180375
-0.0152519
-0.0130677
-0.0113598
-0.0100147
-0.00890798
-0.00792056
-0.00696419
-0.00599115
-0.00500162
-0.00402985
-0.00311953
-0.00229106
-0.00152773
-0.000806497
-9.59553e-05
0.000614051
0.00132581
0.00198605
0.0025951
0.00299805
0.00335244
0.00316941
0.00335335
0.00194941
0.00303133
-0.00176038
0.00515217
-12.8935
-13.1081
-13.3303
-13.5337
-13.6809
-13.7265
-13.6247
-13.3414
-12.8657
-12.2168
-11.4429
-10.6143
-9.81287
-9.1199
-8.60754
-8.33389
-8.34144
-8.66047
-9.30755
-10.2843
-11.5753
-13.1442
-14.9319
-16.8572
-18.82
-20.7065
-22.395
-23.7656
-24.7082
-25.1453
-25.0324
-24.3786
-23.2457
-21.7308
-19.9492
-18.0178
-16.041
-14.1029
-12.2658
-10.5706
-9.03986
-7.6816
-6.49311
-5.46489
-4.58343
-3.83343
-3.19914
-2.66537
-2.21798
-1.84418
-1.53264
-1.27344
-1.05806
-0.879237
-0.73082
-0.607638
-0.505371
-0.420428
-0.349836
-0.29114
-0.242317
-0.201695
-0.167893
-0.13977
-0.116377
-0.0969299
-0.0807744
-0.0673679
-0.0562586
-0.0470704
-0.0394899
-0.0332544
-0.028142
-0.0239675
-0.0205701
-0.017807
-0.0155517
-0.0136668
-0.0120184
-0.0105047
-0.00906209
-0.00767419
-0.00636109
-0.00515516
-0.00406459
-0.00306388
-0.00212625
-0.00121599
-0.000318808
0.000568362
0.00139334
0.00215111
0.00268957
0.00315075
0.00306566
0.00329383
0.00196148
0.0029959
-0.00169137
0.00501564
-12.8083
-12.9799
-13.149
-13.2938
-13.3852
-13.3889
-13.2717
-13.0096
-12.5962
-12.0477
-11.4024
-10.7163
-10.0552
-9.48602
-9.06984
-8.85719
-8.88644
-9.18466
-9.76642
-10.6324
-11.7678
-13.1398
-14.6963
-16.3667
-18.0646
-19.692
-21.1447
-22.3208
-23.1282
-23.5016
-23.4031
-22.8389
-21.8562
-20.5324
-18.9618
-17.2425
-15.4648
-13.7038
-12.017
-10.4442
-9.00923
-7.72289
-6.58615
-5.59316
-4.73388
-3.99597
-3.36619
-2.83138
-2.37902
-1.99756
-1.67664
-1.4071
-1.18096
-0.991364
-0.83245
-0.699247
-0.587559
-0.493872
-0.415244
-0.349224
-0.293767
-0.247167
-0.208003
-0.175084
-0.147416
-0.124163
-0.104627
-0.0882228
-0.0744585
-0.0629227
-0.0532686
-0.0452044
-0.0384836
-0.0328977
-0.0282665
-0.0244292
-0.021246
-0.0185665
-0.0162415
-0.0141554
-0.0122294
-0.0104312
-0.00876676
-0.00725686
-0.0058972
-0.00465185
-0.00348999
-0.00237147
-0.00127767
-0.000205026
0.000794922
0.00171092
0.00239346
0.00296765
0.00298558
0.00325874
0.00199985
0.00298028
-0.00160053
0.00488255
-12.7193
-12.8542
-12.9802
-13.0795
-13.1295
-13.1047
-12.9811
-12.7421
-12.3846
-11.9223
-11.3861
-10.8206
-10.2789
-9.81577
-9.4827
-9.32292
-9.37041
-9.649
-10.1712
-10.9372
-11.9329
-13.1291
-14.48
-15.9244
-17.3878
-18.7862
-20.0309
-21.0358
-21.7237
-22.0388
-21.949
-21.4575
-20.6006
-19.4399
-18.0526
-16.5207
-14.9218
-13.3223
-11.7748
-10.3171
-8.97379
-7.75755
-6.6722
-5.71501
-4.87891
-4.15426
-3.53016
-2.99534
-2.53886
-2.15043
-1.82065
-1.54113
-1.30448
-1.10427
-0.93494
-0.791743
-0.670629
-0.568168
-0.481462
-0.408066
-0.34592
-0.293288
-0.248706
-0.210938
-0.178941
-0.151833
-0.12887
-0.109422
-0.0929604
-0.0790361
-0.0672707
-0.0573436
-0.0489822
-0.0419547
-0.0360626
-0.0311267
-0.0269934
-0.0235011
-0.0204866
-0.0178207
-0.0154088
-0.0132016
-0.0111894
-0.00938037
-0.00775516
-0.00626623
-0.00488052
-0.00355297
-0.00226027
-0.000998612
0.000181046
0.00126057
0.00209289
0.00278443
0.00290943
0.00322726
0.00204344
0.00296117
-0.00150888
0.00472773
-12.6283
-12.7326
-12.824
-12.8885
-12.9087
-12.8657
-12.7422
-12.5271
-12.2196
-11.8316
-11.3878
-10.9243
-10.4836
-10.1108
-9.84866
-9.73388
-9.79596
-10.0556
-10.5234
-11.1989
-12.0694
-13.1089
-14.2774
-15.5219
-16.7785
-17.9754
-19.0373
-19.8916
-20.4732
-20.7345
-20.6484
-20.2161
-19.4649
-18.4439
-17.216
-15.8497
-14.4111
-12.9587
-11.5399
-10.1905
-8.93459
-7.78639
-6.75186
-5.83079
-5.01871
-4.30837
-3.69098
-3.15712
-2.69734
-2.30258
-1.96444
-1.67531
-1.42839
-1.21771
-1.03805
-0.884902
-0.754369
-0.643122
-0.548311
-0.467506
-0.398634
-0.339931
-0.289894
-0.247241
-0.210881
-0.179885
-0.153463
-0.130944
-0.111758
-0.095422
-0.0815241
-0.069715
-0.0596963
-0.0512135
-0.0440483
-0.0380031
-0.0329091
-0.0285925
-0.0248759
-0.0216159
-0.0187034
-0.0160733
-0.0137009
-0.0115819
-0.00968143
-0.00794087
-0.00632106
-0.00477339
-0.00326953
-0.00180546
-0.000432549
0.000822865
0.00181585
0.00263237
0.00287043
0.00323316
0.00212638
0.00297182
-0.00138456
0.0045779
-12.5393
-12.6181
-12.6822
-12.7204
-12.7196
-12.6657
-12.5467
-12.3553
-12.0922
-11.7678
-11.4022
-11.0244
-10.6688
-10.372
-10.1696
-10.0923
-10.1654
-10.4065
-10.8245
-11.4186
-12.1771
-13.0771
-14.084
-15.152
-16.2265
-17.2464
-18.1478
-18.8694
-19.3568
-19.5691
-19.4835
-19.0993
-18.4371
-17.536
-16.4469
-15.2268
-13.932
-12.6133
-11.3134
-10.0653
-8.89269
-7.81033
-6.82582
-5.941
-5.15358
-4.45843
-3.8487
-3.31667
-2.85433
-2.45385
-2.10781
-1.80939
-1.55243
-1.33143
-1.14153
-0.978475
-0.838542
-0.71851
-0.615585
-0.527354
-0.451737
-0.386941
-0.331424
-0.28386
-0.243109
-0.208197
-0.178287
-0.152666
-0.130726
-0.111948
-0.0958888
-0.0821697
-0.0704673
-0.0605042
-0.0520426
-0.0448665
-0.0387924
-0.0336363
-0.0292098
-0.0253552
-0.021948
-0.0189055
-0.0161862
-0.0137698
-0.0116056
-0.00962522
-0.00777777
-0.00601224
-0.00429849
-0.00263124
-0.0010619
0.000374061
0.00153357
0.00247965
0.00283542
0.00324212
0.00221452
0.00297561
-0.00126009
0.00439652
-12.4527
-12.5109
-12.5536
-12.5725
-12.5574
-12.4983
-12.3867
-12.2182
-11.9945
-11.7245
-11.425
-11.119
-10.8345
-10.6013
-10.4485
-10.4019
-10.4826
-10.7054
-11.0776
-11.5982
-12.2566
-13.0328
-13.8967
-14.8093
-15.7238