/*--------------------------------*- C++ -*----------------------------------*\
  =========                 |
  \\      /  F ield         | OpenFOAM: The Open Source CFD Toolbox
   \\    /   O peration     | Website:  https://openfoam.org
    \\  /    A nd           | Version:  10
     \\/     M anipulation  |
\*---------------------------------------------------------------------------*/
FoamFile
{
    format      ascii;
    class       volVectorField;
    location    "0.07";
    object      U;
}
// * * * * * * * * * * * * * * * * * * * * * * * * * * * * * * * * * * * * * //

dimensions      [0 1 -1 0 0 0 0];

internalField   nonuniform List<vector> 
6820
(
(7.28181 0.0247907 0)
(7.17845 0.0399531 0)
(7.05618 0.0448436 0)
(6.92816 0.0474506 0)
(6.8008 0.0484947 0)
(6.67454 0.0486364 0)
(6.54986 0.0483193 0)
(6.42726 0.0477355 0)
(6.30685 0.0470023 0)
(6.18862 0.0461994 0)
(6.0725 0.0453783 0)
(5.95839 0.0445754 0)
(5.84613 0.0438191 0)
(5.73555 0.0431331 0)
(5.62641 0.042539 0)
(5.51845 0.042059 0)
(5.41134 0.0417181 0)
(5.30471 0.0415469 0)
(5.19808 0.0415853 0)
(5.09088 0.0418859 0)
(4.98238 0.0425193 0)
(4.87169 0.0435792 0)
(4.75762 0.0451888 0)
(4.63871 0.047508 0)
(4.51306 0.0507394 0)
(4.37827 0.0551363 0)
(4.23131 0.0609882 0)
(4.06846 0.0686725 0)
(3.88485 0.0783761 0)
(3.676 0.0909063 0)
(3.43163 0.104894 0)
(3.15814 0.122846 0)
(2.80695 0.147467 0)
(7.3592 0.0258537 0)
(7.42096 0.035693 0)
(7.4761 0.0374623 0)
(7.52648 0.0394683 0)
(7.57268 0.0408848 0)
(7.61358 0.042036 0)
(7.64918 0.0431977 0)
(7.67989 0.0443764 0)
(7.70603 0.0455711 0)
(7.72791 0.0467927 0)
(7.74581 0.0480486 0)
(7.76001 0.0493483 0)
(7.77075 0.050707 0)
(7.77824 0.0521453 0)
(7.78265 0.05369 0)
(7.78411 0.0553765 0)
(7.78272 0.0572507 0)
(7.77851 0.0593735 0)
(7.77148 0.0618258 0)
(7.76155 0.0647156 0)
(7.74855 0.0681874 0)
(7.73222 0.0724345 0)
(7.71216 0.0777142 0)
(7.6878 0.0843673 0)
(7.65829 0.0928424 0)
(7.6225 0.103725 0)
(7.57881 0.117761 0)
(7.52501 0.135927 0)
(7.45809 0.159281 0)
(7.37362 0.189633 0)
(7.26678 0.227283 0)
(7.1263 0.277706 0)
(6.95326 0.334496 0)
(7.33542 0.00692096 0)
(7.3457 0.0101164 0)
(7.35483 0.0126739 0)
(7.36281 0.0160622 0)
(7.37148 0.0188997 0)
(7.38072 0.0213522 0)
(7.39045 0.0236447 0)
(7.40081 0.025785 0)
(7.4118 0.027793 0)
(7.42334 0.0297082 0)
(7.43539 0.0315647 0)
(7.44788 0.0333942 0)
(7.46073 0.0352309 0)
(7.47389 0.0371114 0)
(7.4873 0.0390772 0)
(7.5009 0.0411772 0)
(7.51465 0.0434706 0)
(7.52849 0.0460322 0)
(7.54239 0.0489584 0)
(7.55633 0.0523753 0)
(7.57029 0.05645 0)
(7.5843 0.0614049 0)
(7.59838 0.0675371 0)
(7.61262 0.0752428 0)
(7.62717 0.0850497 0)
(7.64223 0.0976571 0)
(7.65811 0.113988 0)
(7.67523 0.135251 0)
(7.69408 0.163003 0)
(7.71523 0.199271 0)
(7.73926 0.246558 0)
(7.76574 0.307948 0)
(7.79712 0.388645 0)
(7.33494 0.00925629 0)
(7.34256 0.0199863 0)
(7.34829 0.0253766 0)
(7.35191 0.0289841 0)
(7.35515 0.0313153 0)
(7.35806 0.0328903 0)
(7.36059 0.0341234 0)
(7.36291 0.0351574 0)
(7.36513 0.0360721 0)
(7.36727 0.0369347 0)
(7.36937 0.0377913 0)
(7.37147 0.0386767 0)
(7.37357 0.0396229 0)
(7.3757 0.0406622 0)
(7.37785 0.0418301 0)
(7.38003 0.0431679 0)
(7.38224 0.0447268 0)
(7.38446 0.0465714 0)
(7.38669 0.0487849 0)
(7.38892 0.0514759 0)
(7.39116 0.0547862 0)
(7.39343 0.0589017 0)
(7.39577 0.0640658 0)
(7.39827 0.0705966 0)
(7.40111 0.0789084 0)
(7.4046 0.0895402 0)
(7.40921 0.103186 0)
(7.41572 0.120748 0)
(7.42531 0.143359 0)
(7.43982 0.172532 0)
(7.46195 0.210066 0)
(7.49571 0.258425 0)
(7.54704 0.320465 0)
(7.334 0.00633869 0)
(7.33882 0.012555 0)
(7.3436 0.0152702 0)
(7.34743 0.0177281 0)
(7.35104 0.0199207 0)
(7.35439 0.0218191 0)
(7.35736 0.0236017 0)
(7.36003 0.025309 0)
(7.3625 0.0269484 0)
(7.36476 0.028544 0)
(7.36684 0.0301197 0)
(7.36875 0.0316992 0)
(7.3705 0.03331 0)
(7.37208 0.0349845 0)
(7.3735 0.036761 0)
(7.37475 0.0386858 0)
(7.3758 0.0408157 0)
(7.37666 0.0432219 0)
(7.37731 0.0459942 0)
(7.37772 0.0492471 0)
(7.37788 0.0531274 0)
(7.3778 0.0578228 0)
(7.37749 0.0635723 0)
(7.37701 0.0706787 0)
(7.37645 0.079522 0)
(7.37602 0.0905749 0)
(7.37603 0.104416 0)
(7.37704 0.121743 0)
(7.37986 0.143371 0)
(7.38581 0.170226 0)
(7.3968 0.203293 0)
(7.41599 0.243463 0)
(7.44741 0.291404 0)
(7.33375 0.0052928 0)
(7.33782 0.012923 0)
(7.34231 0.018026 0)
(7.34595 0.0221216 0)
(7.34923 0.0252793 0)
(7.35226 0.0276598 0)
(7.355 0.0295789 0)
(7.35752 0.0312014 0)
(7.35989 0.0326188 0)
(7.36213 0.0339103 0)
(7.36424 0.035138 0)
(7.36625 0.0363511 0)
(7.36815 0.0375938 0)
(7.36994 0.0389094 0)
(7.37162 0.0403434 0)
(7.37318 0.0419465 0)
(7.37462 0.0437785 0)
(7.37593 0.0459117 0)
(7.3771 0.0484354 0)
(7.37814 0.0514607 0)
(7.37904 0.0551262 0)
(7.37985 0.0596049 0)
(7.3806 0.0651127 0)
(7.38139 0.0719165 0)
(7.38239 0.0803428 0)
(7.38382 0.090784 0)
(7.38607 0.103701 0)
(7.3897 0.11962 0)
(7.39553 0.13911 0)
(7.40477 0.162742 0)
(7.419 0.190994 0)
(7.44078 0.224054 0)
(7.47263 0.261533 0)
(7.33347 0.00438223 0)
(7.33629 0.0108589 0)
(7.33984 0.0147992 0)
(7.34299 0.0176776 0)
(7.346 0.0199511 0)
(7.34893 0.0217955 0)
(7.35167 0.0234285 0)
(7.35425 0.0249524 0)
(7.35669 0.0264075 0)
(7.35902 0.0278303 0)
(7.36123 0.0292533 0)
(7.36335 0.0307045 0)
(7.36537 0.0322132 0)
(7.3673 0.0338123 0)
(7.36914 0.0355401 0)
(7.3709 0.0374423 0)
(7.37257 0.0395742 0)
(7.37417 0.0420036 0)
(7.3757 0.0448147 0)
(7.37718 0.0481124 0)
(7.37865 0.0520267 0)
(7.38016 0.0567171 0)
(7.38181 0.0623769 0)
(7.38373 0.0692368 0)
(7.38614 0.077567 0)
(7.38933 0.0876772 0)
(7.39374 0.0999081 0)
(7.4 0.114614 0)
(7.40893 0.132124 0)
(7.42173 0.15268 0)
(7.43984 0.176322 0)
(7.46547 0.202698 0)
(7.50035 0.230807 0)
(7.33332 0.00370384 0)
(7.33555 0.00981134 0)
(7.33871 0.0142396 0)
(7.34175 0.0178592 0)
(7.34465 0.0208999 0)
(7.34746 0.0234024 0)
(7.35008 0.0255192 0)
(7.35255 0.0273673 0)
(7.35489 0.029018 0)
(7.35713 0.030535 0)
(7.35928 0.0319747 0)
(7.36135 0.0333851 0)
(7.36335 0.034811 0)
(7.36528 0.0362971 0)
(7.36716 0.0378904 0)
(7.36899 0.0396424 0)
(7.37078 0.0416123 0)
(7.37254 0.0438695 0)
(7.37431 0.0464963 0)
(7.3761 0.0495903 0)
(7.37799 0.0532666 0)
(7.38004 0.057662 0)
(7.38237 0.0629365 0)
(7.38516 0.0692746 0)
(7.38863 0.0768828 0)
(7.39312 0.0859811 0)
(7.39908 0.0967882 0)
(7.40713 0.109495 0)
(7.41806 0.124219 0)
(7.43293 0.140937 0)
(7.45297 0.15937 0)
(7.47998 0.178837 0)
(7.51509 0.198061 0)
(7.33322 0.0032069 0)
(7.33492 0.00875854 0)
(7.33753 0.0128641 0)
(7.34017 0.0160463 0)
(7.34276 0.0186005 0)
(7.34533 0.0206609 0)
(7.34782 0.0224059 0)
(7.35022 0.0239641 0)
(7.35254 0.0254069 0)
(7.3548 0.0267874 0)
(7.35698 0.0281501 0)
(7.35912 0.0295322 0)
(7.3612 0.0309682 0)
(7.36324 0.0324937 0)
(7.36525 0.0341474 0)
(7.36723 0.035973 0)
(7.36922 0.038021 0)
(7.37122 0.0403511 0)
(7.37328 0.0430336 0)
(7.37544 0.0461525 0)
(7.37777 0.0498066 0)
(7.38037 0.0541095 0)
(7.38338 0.0591892 0)
(7.38697 0.0651838 0)
(7.3914 0.0722358 0)
(7.39699 0.0804802 0)
(7.4042 0.0900248 0)
(7.41359 0.10092 0)
(7.42587 0.113112 0)
(7.44193 0.126377 0)
(7.46273 0.140225 0)
(7.48961 0.15379 0)
(7.52321 0.16574 0)
(7.33316 0.00281586 0)
(7.33451 0.00789036 0)
(7.33676 0.0118965 0)
(7.33919 0.0151698 0)
(7.34165 0.017951 0)
(7.34413 0.0203207 0)
(7.34656 0.0223822 0)
(7.34891 0.0242242 0)
(7.35119 0.0259039 0)
(7.35341 0.0274703 0)
(7.35558 0.0289692 0)
(7.35771 0.0304421 0)
(7.3598 0.0319286 0)
(7.36187 0.0334687 0)
(7.36394 0.0351044 0)
(7.36601 0.0368814 0)
(7.36812 0.0388503 0)
(7.3703 0.0410681 0)
(7.37259 0.0435994 0)
(7.37504 0.0465166 0)
(7.37774 0.0499 0)
(7.3808 0.0538378 0)
(7.38435 0.0584233 0)
(7.3886 0.0637493 0)
(7.39377 0.0698988 0)
(7.40021 0.0769313 0)
(7.40831 0.0848606 0)
(7.41857 0.0936258 0)
(7.43158 0.103045 0)
(7.44807 0.112769 0)
(7.46873 0.122194 0)
(7.4945 0.130396 0)
(7.52564 0.136137 0)
(7.33312 0.00250683 0)
(7.3342 0.00714316 0)
(7.33611 0.0109358 0)
(7.33828 0.0140402 0)
(7.34051 0.0166358 0)
(7.34279 0.0188067 0)
(7.34507 0.0206594 0)
(7.34731 0.0222947 0)
(7.34953 0.0237836 0)
(7.35171 0.0251815 0)
(7.35387 0.0265359 0)
(7.35602 0.0278877 0)
(7.35816 0.0292734 0)
(7.36031 0.030729 0)
(7.36247 0.0322908 0)
(7.36468 0.0339977 0)
(7.36695 0.0358919 0)
(7.36934 0.0380199 0)
(7.37188 0.0404332 0)
(7.37463 0.0431886 0)
(7.3777 0.0463468 0)
(7.38118 0.0499704 0)
(7.38523 0.0541187 0)
(7.39002 0.0588411 0)
(7.39581 0.0641667 0)
(7.40287 0.0700896 0)
(7.41156 0.0765476 0)
(7.42231 0.0833962 0)
(7.43558 0.0903693 0)
(7.4519 0.0970438 0)
(7.47177 0.102782 0)
(7.49575 0.106677 0)
(7.52386 0.107661 0)
(7.33309 0.00225392 0)
(7.33398 0.00649386 0)
(7.33563 0.0100803 0)
(7.33759 0.0130886 0)
(7.33967 0.0156665 0)
(7.34185 0.0178919 0)
(7.34405 0.0198451 0)
(7.34625 0.0216021 0)
(7.34843 0.0232173 0)
(7.35061 0.0247341 0)
(7.35277 0.0261916 0)
(7.35493 0.0276255 0)
(7.3571 0.0290693 0)
(7.35929 0.0305564 0)
(7.36152 0.0321206 0)
(7.36382 0.0337976 0)
(7.36622 0.0356247 0)
(7.36876 0.0376419 0)
(7.37149 0.0398909 0)
(7.37449 0.042415 0)
(7.37783 0.0452567 0)
(7.38164 0.0484545 0)
(7.38604 0.0520374 0)
(7.39122 0.0560177 0)
(7.3974 0.0603802 0)
(7.40482 0.0650685 0)
(7.41377 0.0699655 0)
(7.42461 0.0748725 0)
(7.43767 0.0794783 0)
(7.45333 0.083336 0)
(7.47187 0.0858274 0)
(7.4936 0.0861255 0)
(7.51836 0.0833546 0)
(7.33307 0.00204184 0)
(7.33382 0.00592575 0)
(7.33525 0.00929403 0)
(7.33701 0.0121606 0)
(7.33893 0.014626 0)
(7.34095 0.0167514 0)
(7.34304 0.0186021 0)
(7.34514 0.0202472 0)
(7.34725 0.021743 0)
(7.34938 0.0231365 0)
(7.35151 0.0244695 0)
(7.35367 0.0257791 0)
(7.35586 0.0270989 0)
(7.3581 0.0284602 0)
(7.3604 0.0298937 0)
(7.36279 0.0314293 0)
(7.36531 0.0330976 0)
(7.368 0.0349292 0)
(7.37091 0.0369542 0)
(7.37411 0.0392007 0)
(7.3777 0.0416925 0)
(7.38176 0.0444451 0)
(7.38645 0.0474604 0)
(7.3919 0.0507188 0)
(7.39832 0.0541695 0)
(7.4059 0.057718 0)
(7.41488 0.0612107 0)
(7.42551 0.064418 0)
(7.43804 0.0670138 0)
(7.4527 0.0685606 0)
(7.46961 0.0684942 0)
(7.48888 0.0660939 0)
(7.51025 0.0606761 0)
(7.33306 0.0018597 0)
(7.3337 0.00542182 0)
(7.33495 0.00857237 0)
(7.33655 0.0112971 0)
(7.33833 0.0136696 0)
(7.34024 0.0157451 0)
(7.34224 0.0175797 0)
(7.34428 0.0192319 0)
(7.34636 0.0207497 0)
(7.34847 0.0221722 0)
(7.3506 0.0235339 0)
(7.35277 0.0248654 0)
(7.35499 0.0261948 0)
(7.35726 0.0275481 0)
(7.35962 0.0289503 0)
(7.36209 0.0304255 0)
(7.36471 0.031997 0)
(7.36751 0.0336866 0)
(7.37055 0.0355137 0)
(7.37391 0.0374933 0)
(7.37765 0.0396333 0)
(7.38188 0.0419302 0)
(7.38672 0.0443639 0)
(7.39229 0.0468908 0)
(7.39876 0.0494349 0)
(7.40628 0.0518778 0)
(7.41504 0.0540471 0)
(7.4252 0.0557044 0)
(7.43692 0.0565328 0)
(7.4503 0.05613 0)
(7.46538 0.0540066 0)
(7.4821 0.0495621 0)
(7.50014 0.0422892 0)
(7.33305 0.00169993 0)
(7.3336 0.00496999 0)
(7.33471 0.00790615 0)
(7.33616 0.0104792 0)
(7.33781 0.0127371 0)
(7.33961 0.0147225 0)
(7.3415 0.0164791 0)
(7.34347 0.0180544 0)
(7.34548 0.0194908 0)
(7.34754 0.020825 0)
(7.34965 0.0220898 0)
(7.35181 0.0233149 0)
(7.35402 0.0245268 0)
(7.35632 0.0257496 0)
(7.35872 0.0270049 0)
(7.36124 0.0283122 0)
(7.36392 0.0296887 0)
(7.36681 0.0311483 0)
(7.36995 0.0327006 0)
(7.37341 0.0343487 0)
(7.37725 0.0360864 0)
(7.38158 0.0378943 0)
(7.38648 0.0397352 0)
(7.39206 0.0415477 0)
(7.39845 0.0432393 0)
(7.40577 0.044679 0)
(7.41413 0.0456889 0)
(7.42365 0.0460372 0)
(7.43439 0.0454316 0)
(7.44638 0.0435185 0)
(7.45956 0.0398901 0)
(7.47379 0.0340644 0)
(7.48875 0.0256848 0)
(7.33305 0.0015572 0)
(7.33353 0.00456009 0)
(7.33452 0.00728739 0)
(7.33584 0.00970508 0)
(7.33738 0.0118448 0)
(7.33907 0.0137413 0)
(7.34088 0.0154316 0)
(7.34278 0.0169565 0)
(7.34475 0.0183533 0)
(7.34678 0.0196539 0)
(7.34887 0.0208866 0)
(7.35102 0.0220762 0)
(7.35325 0.0232442 0)
(7.35557 0.0244094 0)
(7.358 0.0255877 0)
(7.36056 0.0267924 0)
(7.3633 0.0280332 0)
(7.36624 0.0293162 0)
(7.36944 0.0306413 0)
(7.37294 0.0320015 0)
(7.37683 0.033379 0)
(7.38116 0.0347424 0)
(7.38602 0.0360424 0)
(7.3915 0.0372068 0)
(7.39767 0.0381353 0)
(7.40464 0.0386944 0)
(7.41246 0.0387123 0)
(7.42118 0.0379753 0)
(7.43083 0.0362269 0)
(7.44135 0.0331695 0)
(7.45265 0.0284775 0)
(7.46452 0.0217795 0)
(7.47665 0.0128433 0)
(7.33304 0.00142766 0)
(7.33347 0.00418414 0)
(7.33436 0.00670918 0)
(7.33558 0.00896901 0)
(7.33701 0.010983 0)
(7.3386 0.0127776 0)
(7.34034 0.0143819 0)
(7.34216 0.0158285 0)
(7.34407 0.0171483 0)
(7.34606 0.0183686 0)
(7.34811 0.0195137 0)
(7.35024 0.0206052 0)
(7.35246 0.0216617 0)
(7.35477 0.0226986 0)
(7.3572 0.0237281 0)
(7.35978 0.0247591 0)
(7.36253 0.0257963 0)
(7.36549 0.0268391 0)
(7.36869 0.0278809 0)
(7.3722 0.0289065 0)
(7.37606 0.0298899 0)
(7.38033 0.0307918 0)
(7.38507 0.0315555 0)
(7.39035 0.0321039 0)
(7.39622 0.0323358 0)
(7.40273 0.0321228 0)
(7.40992 0.0313065 0)
(7.41778 0.0296988 0)
(7.42629 0.0270827 0)
(7.43537 0.0232176 0)
(7.44488 0.0178537 0)
(7.45459 0.010716 0)
(7.46423 0.00167007 0)
(7.33304 0.00130848 0)
(7.33342 0.00383576 0)
(7.33423 0.00616541 0)
(7.33535 0.00826658 0)
(7.33669 0.0101507 0)
(7.3382 0.011838 0)
(7.33986 0.0133522 0)
(7.34162 0.0147204 0)
(7.34348 0.0159687 0)
(7.34542 0.0171206 0)
(7.34744 0.0181968 0)
(7.34955 0.0192151 0)
(7.35175 0.0201901 0)
(7.35405 0.021133 0)
(7.35648 0.0220513 0)
(7.35906 0.0229487 0)
(7.3618 0.0238241 0)
(7.36475 0.0246712 0)
(7.36794 0.0254767 0)
(7.3714 0.0262192 0)
(7.37518 0.0268668 0)
(7.37932 0.0273749 0)
(7.38388 0.0276839 0)
(7.38888 0.0277165 0)
(7.39436 0.0273759 0)
(7.40035 0.0265442 0)
(7.40683 0.0250822 0)
(7.41379 0.0228306 0)
(7.42117 0.0196137 0)
(7.42885 0.0152446 0)
(7.4367 0.00954074 0)
(7.44447 0.00230975 0)
(7.45194 -0.00650858 0)
(7.33303 0.00119753 0)
(7.33339 0.00350985 0)
(7.33413 0.00565082 0)
(7.33517 0.00759359 0)
(7.33642 0.00934434 0)
(7.33785 0.0109181 0)
(7.33943 0.0123335 0)
(7.34113 0.0136119 0)
(7.34293 0.0147743 0)
(7.34482 0.0158396 0)
(7.3468 0.0168245 0)
(7.34887 0.0177431 0)
(7.35104 0.0186063 0)
(7.35332 0.0194219 0)
(7.35572 0.0201938 0)
(7.35826 0.0209217 0)
(7.36097 0.0216006 0)
(7.36387 0.0222201 0)
(7.36699 0.0227629 0)
(7.37036 0.0232038 0)
(7.37401 0.0235079 0)
(7.37797 0.0236292 0)
(7.38228 0.0235087 0)
(7.38695 0.0230733 0)
(7.39199 0.0222346 0)
(7.3974 0.020889 0)
(7.40316 0.0189188 0)
(7.40923 0.0161945 0)
(7.41551 0.0125794 0)
(7.42191 0.00793544 0)
(7.42825 0.00213708 0)
(7.43434 -0.00494183 0)
(7.43996 -0.0133081 0)
(7.33303 0.00109321 0)
(7.33335 0.00320235 0)
(7.33404 0.00516092 0)
(7.33501 0.00694635 0)
(7.33618 0.00856161 0)
(7.33754 0.0100178 0)
(7.33905 0.0113295 0)
(7.34069 0.0125137 0)
(7.34243 0.0135873 0)
(7.34427 0.0145658 0)
(7.3462 0.0154624 0)
(7.34823 0.016288 0)
(7.35036 0.0170504 0)
(7.3526 0.0177539 0)
(7.35496 0.0183991 0)
(7.35746 0.0189822 0)
(7.36011 0.0194947 0)
(7.36294 0.0199225 0)
(7.36596 0.0202455 0)
(7.36921 0.020436 0)
(7.37269 0.0204581 0)
(7.37643 0.0202664 0)
(7.38045 0.0198053 0)
(7.38474 0.019008 0)
(7.38931 0.0177971 0)
(7.39413 0.016085 0)
(7.39917 0.0137762 0)
(7.40437 0.0107694 0)
(7.40964 0.0069638 0)
(7.41485 0.00226301 0)
(7.41988 -0.00341161 0)
(7.42452 -0.0101352 0)
(7.4286 -0.0178782 0)
(7.33303 0.000994234 0)
(7.33333 0.00290996 0)
(7.33397 0.00469192 0)
(7.33487 0.00632154 0)
(7.33598 0.00779998 0)
(7.33727 0.00913523 0)
(7.33871 0.0103383 0)
(7.34028 0.0114223 0)
(7.34197 0.0124001 0)
(7.34375 0.0132835 0)
(7.34563 0.0140821 0)
(7.34761 0.0148037 0)
(7.34969 0.0154528 0)
(7.35187 0.0160308 0)
(7.35417 0.0165355 0)
(7.3566 0.0169603 0)
(7.35917 0.0172943 0)
(7.3619 0.0175217 0)
(7.36479 0.0176209 0)
(7.36788 0.0175641 0)
(7.37116 0.0173164 0)
(7.37464 0.0168355 0)
(7.37834 0.0160711 0)
(7.38223 0.0149653 0)
(7.38631 0.0134529 0)
(7.39055 0.011463 0)
(7.39489 0.00892119 0)
(7.39927 0.00575294 0)
(7.40361 0.001888 0)
(7.40778 -0.00273488 0)
(7.41166 -0.00815839 0)
(7.41509 -0.0144185 0)
(7.41793 -0.0214619 0)
(7.33303 0.000899614 0)
(7.33331 0.00263003 0)
(7.3339 0.0042406 0)
(7.33475 0.0057164 0)
(7.3358 0.00705765 0)
(7.33703 0.00827009 0)
(7.33841 0.00936201 0)
(7.33992 0.0103432 0)
(7.34154 0.0112235 0)
(7.34326 0.0120114 0)
(7.34509 0.012714 0)
(7.34701 0.0133361 0)
(7.34902 0.0138798 0)
(7.35114 0.0143443 0)
(7.35337 0.0147248 0)
(7.35571 0.015013 0)
(7.35818 0.0151963 0)
(7.36078 0.0152578 0)
(7.36353 0.0151755 0)
(7.36642 0.0149226 0)
(7.36948 0.0144664 0)
(7.37269 0.0137688 0)
(7.37604 0.012786 0)
(7.37953 0.0114694 0)
(7.38313 0.00976638 0)
(7.38679 0.00762175 0)
(7.39048 0.00498146 0)
(7.39411 0.00179183 0)
(7.39762 -0.00199046 0)
(7.40088 -0.00639927 0)
(7.4038 -0.0114511 0)
(7.40623 -0.0171535 0)
(7.40808 -0.0234396 0)
(7.33303 0.000808536 0)
(7.33329 0.00236037 0)
(7.33385 0.00380416 0)
(7.33465 0.00512818 0)
(7.33564 0.00633216 0)
(7.33681 0.00742006 0)
(7.33813 0.00839775 0)
(7.33958 0.00927215 0)
(7.34114 0.01005 0)
(7.34281 0.0107369 0)
(7.34457 0.0113372 0)
(7.34642 0.0118532 0)
(7.34837 0.0122848 0)
(7.35041 0.012629 0)
(7.35254 0.0128794 0)
(7.35479 0.0130265 0)
(7.35714 0.0130569 0)
(7.3596 0.0129537 0)
(7.36217 0.0126959 0)
(7.36487 0.0122586 0)
(7.36768 0.0116128 0)
(7.3706 0.0107256 0)
(7.37361 0.00956076 0)
(7.37669 0.00807899 0)
(7.37982 0.00623984 0)
(7.38295 0.00400326 0)
(7.38603 0.00133135 0)
(7.38899 -0.00180661 0)
(7.39176 -0.00543613 0)
(7.39426 -0.00957148 0)
(7.39638 -0.0142082 0)
(7.39801 -0.0193343 0)
(7.39908 -0.0248773 0)
(7.33302 0.000720334 0)
(7.33327 0.00209917 0)
(7.3338 0.00338042 0)
(7.33456 0.00455523 0)
(7.33551 0.00562336 0)
(7.33662 0.00658763 0)
(7.33788 0.0074522 0)
(7.33927 0.00822179 0)
(7.34076 0.00890075 0)
(7.34236 0.00949241 0)
(7.34405 0.00999878 0)
(7.34583 0.0104201 0)
(7.3477 0.0107545 0)
(7.34965 0.0109973 0)
(7.35168 0.0111411 0)
(7.35381 0.0111754 0)
(7.35602 0.0110868 0)
(7.35833 0.0108589 0)
(7.36072 0.0104723 0)
(7.3632 0.00990461 0)
(7.36576 0.00913091 0)
(7.36838 0.00812388 0)
(7.37105 0.00685433 0)
(7.37374 0.00529224 0)
(7.37643 0.00340861 0)
(7.37906 0.00117534 0)
(7.38159 -0.00143177 0)
(7.38397 -0.00442712 0)
(7.38612 -0.00782125 0)
(7.38796 -0.0116126 0)
(7.38943 -0.0157837 0)
(7.39044 -0.0203107 0)
(7.39092 -0.025121 0)
(7.33302 0.00063442 0)
(7.33326 0.00184473 0)
(7.33376 0.00296683 0)
(7.33448 0.00399414 0)
(7.33538 0.00492637 0)
(7.33645 0.00576514 0)
(7.33765 0.00651284 0)
(7.33898 0.00717202 0)
(7.34042 0.00774476 0)
(7.34195 0.00823225 0)
(7.34357 0.00863462 0)
(7.34528 0.00895052 0)
(7.34706 0.00917668 0)
(7.34892 0.00930758 0)
(7.35085 0.00933522 0)
(7.35285 0.00924916 0)
(7.35492 0.0090366 0)
(7.35706 0.0086825 0)
(7.35927 0.00816969 0)
(7.36152 0.00747908 0)
(7.36383 0.00658994 0)
(7.36616 0.00548095 0)
(7.3685 0.00413009 0)
(7.37082 0.002516 0)
(7.37309 0.000618963 0)
(7.37528 -0.00157669 0)
(7.37732 -0.00408294 0)
(7.37919 -0.00690736 0)
(7.38081 -0.0100456 0)
(7.38213 -0.0134855 0)
(7.38308 -0.017202 0)
(7.3836 -0.0211646 0)
(7.38365 -0.0253036 0)
(7.33302 0.000550297 0)
(7.33325 0.0015959 0)
(7.33372 0.00256256 0)
(7.33441 0.00344616 0)
(7.33527 0.00424703 0)
(7.33629 0.00496646 0)
(7.33744 0.00560586 0)
(7.33871 0.00616632 0)
(7.34008 0.00664817 0)
(7.34154 0.00705075 0)
(7.34308 0.00737235 0)
(7.3447 0.00761 0)
(7.34638 0.00775907 0)
(7.34814 0.00781308 0)
(7.34995 0.00776354 0)
(7.35181 0.00760009 0)
(7.35373 0.00731065 0)
(7.3557 0.00688171 0)
(7.35771 0.00629838 0)
(7.35974 0.00554468 0)
(7.36179 0.00460418 0)
(7.36384 0.00346113 0)
(7.36587 0.00209875 0)
(7.36785 0.000503406 0)
(7.36974 -0.00133674 0)
(7.37153 -0.00342872 0)
(7.37316 -0.00577545 0)
(7.37459 -0.0083744 0)
(7.37577 -0.0112147 0)
(7.37666 -0.0142778 0)
(7.37722 -0.0175343 0)
(7.37738 -0.0209511 0)
(7.37713 -0.024464 0)
(7.33302 0.000467383 0)
(7.33324 0.00135052 0)
(7.3337 0.00216293 0)
(7.33436 0.00290199 0)
(7.33518 0.00356773 0)
(7.33616 0.00416031 0)
(7.33727 0.00467975 0)
(7.33848 0.0051256 0)
(7.3398 0.00549674 0)
(7.34119 0.00579133 0)
(7.34267 0.00600677 0)
(7.3442 0.00613948 0)
(7.3458 0.00618456 0)
(7.34744 0.00613553 0)
(7.34914 0.00598429 0)
(7.35087 0.00572133 0)
(7.35264 0.0053361 0)
(7.35444 0.00481719 0)
(7.35626 0.00415219 0)
(7.35807 0.00332862 0)
(7.35988 0.00233266 0)
(7.36167 0.00115838 0)
(7.3634 -0.000207532 0)
(7.36506 -0.0017739 0)
(7.36662 -0.00354533 0)
(7.36805 -0.00552359 0)
(7.36932 -0.00770486 0)
(7.37038 -0.01008 0)
(7.37121 -0.0126335 0)
(7.37176 -0.0153434 0)
(7.37201 -0.0181795 0)
(7.37191 -0.0211084 0)
(7.37146 -0.0240727 0)
(7.33302 0.000385321 0)
(7.33323 0.00110885 0)
(7.33367 0.00177218 0)
(7.3343 0.00237561 0)
(7.3351 0.00292032 0)
(7.33603 0.00340659 0)
(7.33708 0.00383364 0)
(7.33824 0.00419953 0)
(7.33948 0.00450124 0)
(7.3408 0.00473493 0)
(7.34219 0.00489612 0)
(7.34363 0.00497967 0)
(7.34512 0.00497957 0)
(7.34666 0.00488872 0)
(7.34822 0.00469897 0)
(7.34982 0.00440103 0)
(7.35143 0.0039854 0)
(7.35306 0.00344276 0)
(7.35468 0.00276337 0)
(7.35628 0.0019362 0)
(7.35786 0.000955107 0)
(7.3594 -0.000192503 0)
(7.36087 -0.00150734 0)
(7.36225 -0.00299193 0)
(7.36352 -0.004647 0)
(7.36464 -0.0064691 0)
(7.36561 -0.00845014 0)
(7.36637 -0.0105775 0)
(7.36692 -0.0128333 0)
(7.36722 -0.0151943 0)
(7.36724 -0.0176309 0)
(7.36697 -0.0201118 0)
(7.36639 -0.0225868 0)
(7.33302 0.000302947 0)
(7.33322 0.000864575 0)
(7.33366 0.00137284 0)
(7.33428 0.00182846 0)
(7.33505 0.00223167 0)
(7.33596 0.00258183 0)
(7.33698 0.00287765 0)
(7.3381 0.0031169 0)
(7.3393 0.00329652 0)
(7.34056 0.00341274 0)
(7.34188 0.0034613 0)
(7.34325 0.00343737 0)
(7.34465 0.0033353 0)
(7.34608 0.00314859 0)
(7.34753 0.00286965 0)
(7.34899 0.00249122 0)
(7.35045 0.0020056 0)
(7.35191 0.00140676 0)
(7.35335 0.000685939 0)
(7.35476 -0.000163282 0)
(7.35612 -0.00114496 0)
(7.35742 -0.00226952 0)
(7.35865 -0.003535 0)
(7.35977 -0.00493988 0)
(7.36078 -0.00648128 0)
(7.36164 -0.00815258 0)
(7.36235 -0.00994331 0)
(7.36287 -0.011839 0)
(7.36319 -0.013821 0)
(7.36328 -0.015867 0)
(7.36314 -0.0179494 0)
(7.36274 -0.0200402 0)
(7.3621 -0.0220969 0)
(7.33302 0.000220915 0)
(7.33322 0.000626638 0)
(7.33364 0.0009961 0)
(7.33423 0.00133439 0)
(7.33497 0.00164257 0)
(7.33584 0.00191861 0)
(7.33681 0.00215852 0)
(7.33786 0.00235675 0)
(7.33899 0.00250687 0)
(7.34018 0.00260223 0)
(7.34141 0.00263646 0)
(7.34269 0.00260333 0)
(7.34399 0.00249668 0)
(7.3453 0.00231016 0)
(7.34663 0.00203471 0)
(7.34796 0.00166106 0)
(7.34928 0.00118624 0)
(7.35058 0.000602285 0)
(7.35186 -9.57542e-05 0)
(7.35309 -0.000909459 0)
(7.35426 -0.00184393 0)
(7.35536 -0.00289605 0)
(7.35637 -0.00406824 0)
(7.35728 -0.00535765 0)
(7.35807 -0.0067576 0)
(7.35872 -0.00825901 0)
(7.35922 -0.00984996 0)
(7.35955 -0.0115152 0)
(7.35969 -0.0132367 0)
(7.35964 -0.0149931 0)
(7.35939 -0.0167598 0)
(7.35893 -0.0185125 0)
(7.35826 -0.0202153 0)
(7.33302 0.000133469 0)
(7.33323 0.000363469 0)
(7.33366 0.000558756 0)
(7.33428 0.000723765 0)
(7.33503 0.000859867 0)
(7.33589 0.000967253 0)
(7.33686 0.00104469 0)
(7.33789 0.00108895 0)
(7.33899 0.00109519 0)
(7.34013 0.00105767 0)
(7.34131 0.000970247 0)
(7.34251 0.000826789 0)
(7.34372 0.000621048 0)
(7.34494 0.000346762 0)
(7.34615 3.22108e-07 0)
(7.34734 -0.000422348 0)
(7.34852 -0.00093047 0)
(7.34967 -0.00153242 0)
(7.35077 -0.00223013 0)
(7.35182 -0.00302585 0)
(7.35281 -0.00392035 0)
(7.35371 -0.00491239 0)
(7.35453 -0.00599985 0)
(7.35524 -0.0071779 0)
(7.35583 -0.00843933 0)
(7.3563 -0.00977483 0)
(7.35662 -0.0111725 0)
(7.35678 -0.0126182 0)
(7.35679 -0.0140952 0)
(7.35662 -0.0155849 0)
(7.35629 -0.0170664 0)
(7.35577 -0.0185196 0)
(7.3551 -0.0199152 0)
(7.33302 5.34977e-05 0)
(7.33321 0.000140947 0)
(7.33362 0.000230853 0)
(7.3342 0.000331564 0)
(7.33491 0.000437234 0)
(7.33574 0.000538812 0)
(7.33665 0.000626356 0)
(7.33763 0.00068948 0)
(7.33867 0.000718809 0)
(7.33975 0.000706415 0)
(7.34085 0.000645241 0)
(7.34197 0.000528703 0)
(7.3431 0.00035038 0)
(7.34422 0.000104069 0)
(7.34534 -0.000213316 0)
(7.34644 -0.000604678 0)
(7.3475 -0.00107886 0)
(7.34852 -0.00163763 0)
(7.34949 -0.00228304 0)
(7.3504 -0.00301657 0)
(7.35124 -0.00383742 0)
(7.35199 -0.00474262 0)
(7.35265 -0.00572796 0)
(7.35321 -0.00678749 0)
(7.35366 -0.00791313 0)
(7.35398 -0.00909485 0)
(7.35417 -0.0103209 0)
(7.35422 -0.0115777 0)
(7.35413 -0.0128501 0)
(7.35389 -0.0141218 0)
(7.35351 -0.0153749 0)
(7.35298 -0.0165927 0)
(7.35232 -0.0177511 0)
(7.33303 -5.13001e-05 0)
(7.33327 -0.000189957 0)
(7.33376 -0.000339233 0)
(7.33442 -0.000483232 0)
(7.33519 -0.000619032 0)
(7.33605 -0.000747291 0)
(7.33698 -0.000872393 0)
(7.33795 -0.00100162 0)
(7.33896 -0.00114263 0)
(7.34 -0.00130265 0)
(7.34104 -0.00148862 0)
(7.34209 -0.00170727 0)
(7.34312 -0.00196504 0)
(7.34415 -0.00226802 0)
(7.34515 -0.00262421 0)
(7.34612 -0.00304096 0)
(7.34704 -0.00351949 0)
(7.34792 -0.00406183 0)
(7.34874 -0.00467052 0)
(7.3495 -0.0053465 0)
(7.35018 -0.00608877 0)
(7.35077 -0.00689468 0)
(7.35128 -0.00776022 0)
(7.35168 -0.00867975 0)
(7.35198 -0.00964604 0)
(7.35216 -0.0106503 0)
(7.35223 -0.0116825 0)
(7.35217 -0.0127312 0)
(7.35199 -0.013784 0)
(7.35169 -0.0148276 0)
(7.35127 -0.0158481 0)
(7.35072 -0.0168329 0)
(7.35008 -0.0177632 0)
(7.33301 -0.000139368 0)
(7.33321 -0.000385717 0)
(7.33364 -0.000553123 0)
(7.33425 -0.000653042 0)
(7.33499 -0.000711513 0)
(7.33582 -0.000746041 0)
(7.33672 -0.000771676 0)
(7.33767 -0.000803016 0)
(7.33865 -0.000852307 0)
(7.33966 -0.000929566 0)
(7.34067 -0.00104309 0)
(7.34168 -0.00119963 0)
(7.34267 -0.00140467 0)
(7.34364 -0.00166275 0)
(7.34458 -0.00197776 0)
(7.34548 -0.00235218 0)
(7.34634 -0.00278736 0)
(7.34714 -0.00328466 0)
(7.34787 -0.00384438 0)
(7.34854 -0.00446524 0)
(7.34912 -0.00514455 0)
(7.34962 -0.00587844 0)
(7.35003 -0.00666174 0)
(7.35034 -0.00748816 0)
(7.35054 -0.00835023 0)
(7.35064 -0.00923945 0)
(7.35063 -0.0101464 0)
(7.35051 -0.0110611 0)
(7.35027 -0.0119725 0)
(7.34993 -0.0128697 0)
(7.34949 -0.0137409 0)
(7.34895 -0.0145763 0)
(7.34832 -0.0153607 0)
(7.33305 -0.000314573 0)
(7.33343 -0.000981512 0)
(7.33407 -0.00159125 0)
(7.33484 -0.00210971 0)
(7.33568 -0.00254204 0)
(7.33657 -0.00289795 0)
(7.3375 -0.00319295 0)
(7.33844 -0.00344527 0)
(7.33939 -0.00367127 0)
(7.34033 -0.00388511 0)
(7.34126 -0.00409891 0)
(7.34218 -0.0043227 0)
(7.34306 -0.00456475 0)
(7.34392 -0.004832 0)
(7.34474 -0.00513031 0)
(7.34551 -0.00546458 0)
(7.34623 -0.00583838 0)
(7.34689 -0.00625389 0)
(7.34749 -0.00671216 0)
(7.34801 -0.00721306 0)
(7.34846 -0.00775524 0)
(7.34882 -0.00833609 0)
(7.34909 -0.00895191 0)
(7.34928 -0.00959795 0)
(7.34937 -0.0102686 0)
(7.34937 -0.0109575 0)
(7.34927 -0.0116576 0)
(7.34907 -0.0123614 0)
(7.34878 -0.013061 0)
(7.34841 -0.0137483 0)
(7.34795 -0.0144152 0)
(7.3474 -0.0150548 0)
(7.3468 -0.0156559 0)
(7.333 -0.000346059 0)
(7.33323 -0.000867738 0)
(7.3338 -0.00118718 0)
(7.33456 -0.00140271 0)
(7.33543 -0.00156463 0)
(7.33637 -0.00168961 0)
(7.33735 -0.00179856 0)
(7.33835 -0.00190904 0)
(7.33934 -0.00203115 0)
(7.34033 -0.00217201 0)
(7.3413 -0.00233756 0)
(7.34224 -0.0025321 0)
(7.34314 -0.00275892 0)
(7.34401 -0.0030207 0)
(7.34482 -0.00331962 0)
(7.34559 -0.00365717 0)
(7.34629 -0.00403405 0)
(7.34692 -0.00445021 0)
(7.34749 -0.00490488 0)
(7.34797 -0.0053964 0)
(7.34838 -0.0059222 0)
(7.3487 -0.00647883 0)
(7.34893 -0.00706205 0)
(7.34906 -0.00766689 0)
(7.34911 -0.00828776 0)
(7.34906 -0.00891857 0)
(7.34892 -0.00955286 0)
(7.34869 -0.010184 0)
(7.34837 -0.0108053 0)
(7.34797 -0.0114101 0)
(7.34749 -0.011992 0)
(7.34694 -0.0125459 0)
(7.34633 -0.0130633 0)
(7.33314 -0.000900887 0)
(7.33387 -0.00256442 0)
(7.33481 -0.00379169 0)
(7.33574 -0.00468545 0)
(7.33667 -0.00534683 0)
(7.33761 -0.0058225 0)
(7.33853 -0.00616465 0)
(7.33944 -0.00641816 0)
(7.34033 -0.00661358 0)
(7.3412 -0.00677343 0)
(7.34204 -0.00691476 0)
(7.34285 -0.00705023 0)
(7.34362 -0.00718923 0)
(7.34434 -0.00733882 0)
(7.34502 -0.00750433 0)
(7.34564 -0.00768972 0)
(7.3462 -0.00789771 0)
(7.3467 -0.00813008 0)
(7.34712 -0.0083876 0)
(7.34748 -0.00867023 0)
(7.34776 -0.0089771 0)
(7.34795 -0.00930663 0)
(7.34807 -0.00965658 0)
(7.34811 -0.0100241 0)
(7.34806 -0.010406 0)
(7.34793 -0.0107984 0)
(7.34773 -0.0111974 0)
(7.34744 -0.0115988 0)
(7.34709 -0.0119985 0)
(7.34666 -0.0123924 0)
(7.34617 -0.0127763 0)
(7.34563 -0.0131477 0)
(7.34504 -0.0135002 0)
(7.33306 -0.000405222 0)
(7.33377 -0.000981 0)
(7.33503 -0.00135891 0)
(7.33632 -0.00169786 0)
(7.3376 -0.00199 0)
(7.33888 -0.00224233 0)
(7.34012 -0.00248067 0)
(7.34132 -0.00271292 0)
(7.34247 -0.00294129 0)
(7.34358 -0.00317006 0)
(7.34464 -0.00340314 0)
(7.34565 -0.00364328 0)
(7.34662 -0.00389288 0)
(7.34753 -0.00415407 0)
(7.34839 -0.00442861 0)
(7.34919 -0.00471785 0)
(7.34992 -0.00502261 0)
(7.35058 -0.00534315 0)
(7.35117 -0.00567913 0)
(7.35167 -0.00602963 0)
(7.3521 -0.00639315 0)
(7.35244 -0.0067677 0)
(7.35269 -0.00715084 0)
(7.35285 -0.0075398 0)
(7.35293 -0.00793156 0)
(7.35292 -0.00832292 0)
(7.35282 -0.00871064 0)
(7.35264 -0.00909148 0)
(7.35238 -0.00946222 0)
(7.35205 -0.00981989 0)
(7.35164 -0.0101612 0)
(7.35117 -0.0104843 0)
(7.35065 -0.0107838 0)
(7.3344 -0.00362028 0)
(7.33925 -0.00686635 0)
(7.34504 -0.00826105 0)
(7.35132 -0.00917004 0)
(7.35793 -0.00968635 0)
(7.36465 -0.00992496 0)
(7.37131 -0.0100327 0)
(7.37787 -0.0100725 0)
(7.38426 -0.010072 0)
(7.39046 -0.0100517 0)
(7.39643 -0.0100248 0)
(7.40216 -0.00999857 0)
(7.40763 -0.0099773 0)
(7.41283 -0.0099639 0)
(7.41775 -0.00996012 0)
(7.42239 -0.00996703 0)
(7.42674 -0.00998524 0)
(7.4308 -0.0100151 0)
(7.43456 -0.0100566 0)
(7.43804 -0.0101097 0)
(7.44122 -0.010174 0)
(7.44413 -0.0102492 0)
(7.44676 -0.0103345 0)
(7.44912 -0.0104291 0)
(7.45123 -0.010532 0)
(7.45311 -0.010642 0)
(7.45475 -0.0107581 0)
(7.45619 -0.010879 0)
(7.45743 -0.0110038 0)
(7.45849 -0.0111316 0)
(7.4594 -0.011262 0)
(7.46017 -0.0113949 0)
(7.46082 -0.0115298 0)
(7.32974 -0.00400545 0)
(7.32429 -0.00840017 0)
(7.3152 -0.0109699 0)
(7.30426 -0.0128715 0)
(7.29293 -0.0142259 0)
(7.28132 -0.0151536 0)
(7.26956 -0.0158012 0)
(7.25783 -0.0162512 0)
(7.24624 -0.0165516 0)
(7.23483 -0.0167384 0)
(7.22365 -0.0168372 0)
(7.2127 -0.0168659 0)
(7.20202 -0.0168373 0)
(7.1916 -0.0167611 0)
(7.18146 -0.016645 0)
(7.17159 -0.016495 0)
(7.16199 -0.0163163 0)
(7.15267 -0.0161138 0)
(7.1436 -0.015892 0)