/*--------------------------------*- C++ -*----------------------------------*\
  =========                 |
  \\      /  F ield         | OpenFOAM: The Open Source CFD Toolbox
   \\    /   O peration     | Website:  https://openfoam.org
    \\  /    A nd           | Version:  10
     \\/     M anipulation  |
\*---------------------------------------------------------------------------*/
FoamFile
{
    format      ascii;
    class       volScalarField;
    location    "500";
    object      nut;
}
// * * * * * * * * * * * * * * * * * * * * * * * * * * * * * * * * * * * * * //

dimensions      [0 2 -1 0 0 0 0];

internalField   nonuniform List<scalar> 
6820
(
5.21161e-05
7.23496e-05
8.49506e-05
9.15131e-05
9.44882e-05
9.54261e-05
9.52243e-05
9.44049e-05
9.32797e-05
9.20334e-05
9.07706e-05
8.95476e-05
8.83926e-05
8.73173e-05
8.63241e-05
8.54104e-05
8.45715e-05
8.38012e-05
8.30934e-05
8.24422e-05
8.1842e-05
8.12878e-05
8.07751e-05
8.02997e-05
7.98582e-05
7.94472e-05
7.90638e-05
7.87055e-05
7.83688e-05
7.80576e-05
7.77394e-05
7.75584e-05
7.68497e-05
0.00148779
0.000914493
0.000722323
0.000566087
0.000444968
0.000364557
0.000311033
0.000273881
0.000246831
0.000226549
0.000210753
0.000198396
0.000188237
0.000179935
0.000173059
0.000167286
0.000162396
0.000158225
0.000154644
0.000151558
0.00014888
0.000146557
0.000144523
0.000142754
0.000141188
0.00013983
0.000138612
0.000137562
0.000136608
0.000135765
0.000134979
0.000134319
0.000133567
0.00388235
0.00172611
0.00129522
0.00105715
0.000883658
0.000756986
0.000663663
0.000593364
0.000538675
0.000495244
0.000459812
0.000430523
0.000405814
0.000384708
0.000366474
0.000350582
0.000336601
0.000324232
0.000313201
0.000303339
0.000294448
0.00028644
0.000279159
0.000272557
0.000266524
0.000261018
0.000255963
0.000251319
0.000247042
0.000243101
0.00023943
0.000236074
0.000232752
0.00701486
0.0030933
0.00211865
0.00169399
0.00142842
0.00124177
0.00110357
0.000997719
0.000914055
0.000846537
0.000790871
0.000744279
0.000704671
0.000670591
0.000640919
0.000614871
0.000591775
0.000571193
0.000552678
0.000535991
0.000520802
0.000506997
0.000494305
0.000482699
0.000471931
0.000462049
0.000452795
0.000444287
0.000436238
0.00042884
0.00042175
0.000415262
0.000408892
0.00947863
0.00539463
0.00361893
0.00279676
0.00231359
0.00199146
0.00176051
0.00158678
0.00145108
0.00134228
0.00125311
0.00117876
0.00111581
0.00106185
0.00101505
0.000974096
0.00093791
0.000905752
0.000876912
0.000850971
0.000827425
0.000806047
0.000786441
0.000768515
0.000751923
0.000736672
0.000722439
0.0007093
0.000696943
0.000685491
0.000674641
0.000664543
0.000654889
0.0106282
0.0077634
0.00561756
0.00439956
0.00363524
0.00311498
0.00274001
0.00245794
0.00223827
0.00206265
0.00191918
0.00179992
0.00169928
0.0016133
0.00153898
0.00147417
0.00141712
0.00136658
0.00132144
0.00128095
0.00124435
0.0012112
0.00118095
0.00115332
0.00112789
0.00110451
0.00108284
0.0010628
0.0010441
0.00102673
0.00101042
0.000995184
0.000980806
0.0110845
0.00948062
0.00757881
0.00621462
0.00525002
0.00454846
0.00402212
0.00361587
0.00329423
0.00303414
0.00281999
0.00264096
0.00248929
0.00235932
0.0022468
0.00214856
0.00206205
0.00198539
0.00191697
0.00185561
0.00180024
0.0017501
0.00170444
0.00166275
0.00162449
0.00158932
0.00155682
0.00152678
0.00149886
0.00147291
0.00144867
0.00142602
0.00140478
0.0112619
0.0104723
0.00911496
0.00788286
0.00688559
0.00609517
0.0054665
0.00496072
0.00454804
0.00420667
0.00392064
0.00367821
0.00347054
0.00329101
0.00313446
0.00299694
0.00287529
0.00276702
0.0026701
0.00258291
0.0025041
0.00243257
0.00236736
0.00230774
0.002253
0.00220263
0.00215611
0.00211305
0.00207308
0.0020359
0.00200123
0.00196884
0.00193852
0.0113319
0.0109613
0.0101483
0.00919368
0.00831237
0.007546
0.00689421
0.00634297
0.00587576
0.00547759
0.00513595
0.00484072
0.00458378
0.00435865
0.00416013
0.00398405
0.00382701
0.00368624
0.00355946
0.0034448
0.00334066
0.00324575
0.00315893
0.00307928
0.00300597
0.00293833
0.00287573
0.00281769
0.00276372
0.00271346
0.00266654
0.00262269
0.00258161
0.0113604
0.011191
0.0107577
0.0101061
0.00941912
0.00876182
0.00816148
0.00762522
0.00715082
0.00673245
0.00636333
0.00603689
0.00574724
0.00548925
0.00525853
0.00505138
0.00486466
0.00469573
0.00454232
0.00440256
0.00427481
0.00415769
0.00405001
0.00395074
0.003859
0.00377401
0.00369511
0.00362171
0.00355328
0.00348939
0.00342962
0.00337364
0.00332112
0.0113724
0.0112961
0.0110835
0.0106835
0.0102001
0.00969076
0.00919019
0.00871662
0.00827802
0.00787653
0.00751122
0.00717973
0.0068791
0.00660628
0.00635832
0.00613253
0.00592647
0.00573797
0.00556514
0.00540629
0.00525995
0.00512483
0.00499981
0.00488388
0.00477617
0.00467592
0.00458242
0.00449509
0.00441338
0.00433683
0.00426499
0.00419751
0.00413404
0.0113776
0.0113432
0.0112429
0.0110224
0.0107092
0.010347
0.00996383
0.00957925
0.00920558
0.00884975
0.00851515
0.00820294
0.00791299
0.0076444
0.0073959
0.00716603
0.00695333
0.00675635
0.00657375
0.00640425
0.00624671
0.00610006
0.00596337
0.00583577
0.00571649
0.00560483
0.00550016
0.00540192
0.0053096
0.00522275
0.00514094
0.00506383
0.00499105
0.01138
0.0113641
0.0113177
0.0112065
0.0110186
0.0107798
0.0105077
0.0102177
0.00992171
0.009628
0.00934205
0.00906725
0.00880547
0.00855757
0.00832373
0.00810373
0.00789706
0.00770309
0.00752108
0.00735029
0.00718997
0.0070394
0.0068979
0.00676482
0.00663956
0.00652155
0.00641029
0.0063053
0.00620613
0.0061124
0.00602374
0.00593982
0.00586031
0.0113814
0.0113732
0.0113518
0.0112993
0.0111948
0.0110478
0.0108673
0.0106628
0.0104433
0.0102161
0.00998672
0.00975936
0.00953688
0.00932121
0.00911355
0.00891459
0.00872464
0.00854375
0.00837179
0.00820852
0.00805361
0.0079067
0.00776739
0.0076353
0.00751003
0.0073912
0.00727843
0.00717138
0.00706971
0.00697312
0.0068813
0.00679399
0.00671093
0.0113823
0.0113772
0.011367
0.0113426
0.0112898
0.0112045
0.0110919
0.0109563
0.0108032
0.0106375
0.0104641
0.0102865
0.0101078
0.00993019
0.00975547
0.00958481
0.00941904
0.00925872
0.00910418
0.00895557
0.00881294
0.00867625
0.00854539
0.0084202
0.0083005
0.00818609
0.00807676
0.00797229
0.00787248
0.00777711
0.00768597
0.00759888
0.00751562
0.0113826
0.0113796
0.0113738
0.0113622
0.0113373
0.0112909
0.0112247
0.0111398
0.0110388
0.0109247
0.0108006
0.0106692
0.010533
0.0103943
0.0102546
0.0101153
0.00997762
0.00984222
0.00970974
0.00958063
0.00945518
0.00933359
0.00921598
0.0091024
0.00899284
0.00888727
0.00878562
0.00868781
0.00859375
0.00850331
0.00841639
0.00833288
0.00825264
0.0113825
0.0113808
0.0113772
0.011371
0.0113592
0.0113362
0.0112992
0.0112488
0.0111857
0.0111111
0.0110268
0.0109344
0.0108359
0.0107327
0.0106263
0.0105181
0.0104089
0.0102997
0.0101912
0.0100839
0.00997827
0.00987469
0.00977338
0.00967455
0.00957832
0.00948478
0.00939398
0.00930595
0.00922069
0.00913818
0.00905838
0.00898126
0.00890675
0.0113825
0.0113812
0.0113791
0.0113752
0.0113691
0.0113581
0.0113388
0.0113103
0.0112727
0.0112264
0.0111719
0.0111101
0.0110421
0.010969
0.0108918
0.0108114
0.0107287
0.0106445
0.0105594
0.010474
0.0103888
0.0103041
0.0102204
0.0101378
0.0100566
0.00997686
0.00989882
0.00982255
0.00974812
0.00967557
0.00960493
0.00953623
0.00946946
0.0113825
0.0113813
0.0113798
0.0113776
0.0113737
0.011368
0.0113586
0.0113433
0.0113219
0.0112944
0.0112608
0.0112213
0.0111766
0.0111271
0.0110735
0.0110164
0.0109565
0.0108943
0.0108304
0.0107652
0.0106992
0.0106328
0.0105662
0.0104999
0.0104339
0.0103685
0.0103039
0.0102401
0.0101775
0.0101159
0.0100555
0.00999637
0.00993853
0.0113824
0.0113813
0.01138
0.0113785
0.0113762
0.0113727
0.0113676
0.0113599
0.0113483
0.0113326
0.0113127
0.0112886
0.0112604
0.0112284
0.0111927
0.0111539
0.0111123
0.0110683
0.0110222
0.0109744
0.0109253
0.0108751
0.0108242
0.0107728
0.0107212
0.0106694
0.0106177
0.0105663
0.0105153
0.0104647
0.0104148
0.0103655
0.0103169
0.0113824
0.0113813
0.0113801
0.0113788
0.0113773
0.0113751
0.0113721
0.0113676
0.0113616
0.0113531
0.0113418
0.0113275
0.0113104
0.0112905
0.0112677
0.0112424
0.0112146
0.0111846
0.0111526
0.0111188
0.0110836
0.0110471
0.0110095
0.010971
0.0109319
0.0108922
0.0108522
0.0108119
0.0107716
0.0107313
0.0106911
0.0106511
0.0106115
0.0113824
0.0113812
0.0113801
0.0113789
0.0113776
0.0113761
0.0113742
0.0113716
0.011368
0.0113633
0.0113572
0.0113489
0.0113389
0.0113268
0.0113128
0.0112967
0.0112788
0.011259
0.0112374
0.0112143
0.0111898
0.0111639
0.0111369
0.0111088
0.0110799
0.0110502
0.0110199
0.0109891
0.0109579
0.0109264
0.0108947
0.0108629
0.0108311
0.0113824
0.0113812
0.0113801
0.0113789
0.0113778
0.0113765
0.0113751
0.0113734
0.0113712
0.0113684
0.0113646
0.01136
0.0113543
0.011347
0.0113384
0.0113284
0.0113169
0.011304
0.0112897
0.011274
0.0112571
0.0112389
0.0112197
0.0111993
0.0111781
0.011156
0.0111332
0.0111097
0.0110856
0.0110611
0.0110362
0.0110109
0.0109854
0.0113824
0.0113812
0.0113801
0.0113789
0.0113778
0.0113766
0.0113754
0.0113741
0.0113726
0.0113707
0.0113683
0.0113653
0.0113616
0.0113572
0.0113518
0.0113453
0.0113376
0.0113289
0.011319
0.011308
0.0112958
0.0112826
0.0112684
0.0112531
0.011237
0.01122
0.0112022
0.0111836
0.0111645
0.0111447
0.0111244
0.0111037
0.0110826
0.0113824
0.0113812
0.0113801
0.0113789
0.0113778
0.0113767
0.0113755
0.0113743
0.011373
0.0113715
0.0113696
0.0113674
0.0113645
0.011361
0.011357
0.0113521
0.0113462
0.0113393
0.0113315
0.0113226
0.0113127
0.0113019
0.01129
0.0112773
0.0112636
0.0112491
0.0112338
0.0112178
0.011201
0.0111837
0.0111658
0.0111474
0.0111285
0.0113824
0.0113812
0.0113801
0.0113789
0.0113778
0.0113766
0.0113755
0.0113742
0.0113729
0.0113712
0.0113693
0.0113669
0.0113638
0.0113602
0.011356
0.0113508
0.0113447
0.0113376
0.0113295
0.0113205
0.0113104
0.0112994
0.0112874
0.0112745
0.0112606
0.011246
0.0112306
0.0112144
0.0111976
0.0111801
0.0111621
0.0111436
0.0111246
0.0113824
0.0113812
0.0113801
0.0113789
0.0113778
0.0113766
0.0113753
0.0113738
0.0113719
0.0113697
0.0113669
0.0113633
0.0113591
0.0113539
0.0113476
0.0113402
0.0113318
0.0113222
0.0113115
0.0112997
0.0112868
0.0112728
0.0112578
0.0112419
0.0112251
0.0112075
0.0111891
0.01117
0.0111503
0.01113
0.0111092
0.011088
0.0110663
0.0113824
0.0113812
0.0113801
0.0113789
0.0113777
0.0113763
0.0113745
0.0113723
0.0113693
0.0113655
0.0113608
0.0113545
0.0113469
0.0113378
0.0113272
0.0113151
0.0113015
0.0112865
0.0112701
0.0112524
0.0112334
0.0112133
0.0111921
0.0111699
0.0111469
0.0111231
0.0110986
0.0110735
0.0110479
0.0110218
0.0109954
0.0109687
0.0109417
0.0113824
0.0113813
0.0113801
0.0113789
0.0113773
0.0113753
0.0113724
0.0113683
0.0113631
0.0113555
0.0113458
0.0113339
0.0113197
0.0113032
0.0112845
0.0112637
0.0112409
0.0112163
0.01119
0.0111622
0.0111331
0.0111028
0.0110714
0.0110392
0.0110063
0.0109727
0.0109386
0.0109042
0.0108695
0.0108346
0.0107996
0.0107646
0.0107296
0.0113825
0.0113813
0.0113801
0.0113784
0.011376
0.0113722
0.0113668
0.0113583
0.0113462
0.0113305
0.0113111
0.0112881
0.0112616
0.0112319
0.0111991
0.0111636
0.0111257
0.0110857
0.011044
0.0110008
0.0109564
0.010911
0.0108649
0.0108183
0.0107713
0.0107242
0.0106769
0.0106298
0.0105829
0.0105362
0.0104899
0.010444
0.0103986
0.0113825
0.0113814
0.0113798
0.0113765
0.011372
0.011364
0.0113499
0.0113299
0.0113037
0.0112714
0.0112334
0.01119
0.0111419
0.0110896
0.0110339
0.0109753
0.0109144
0.0108517
0.0107877
0.0107228
0.0106573
0.0105916
0.010526
0.0104606
0.0103957
0.0103314
0.0102679
0.0102052
0.0101434
0.0100827
0.010023
0.00996446
0.00990704
0.0113826
0.011381
0.0113775
0.0113717
0.0113594
0.0113357
0.0113014
0.0112563
0.0112012
0.0111371
0.0110652
0.010987
0.0109036
0.0108164
0.0107263
0.0106344
0.0105414
0.010448
0.0103548
0.0102622
0.0101706
0.0100802
0.00999136
0.00990419
0.00981883
0.00973537
0.00965388
0.00957439
0.00949693
0.00942149
0.00934808
0.00927667
0.00920722
0.0113825
0.0113788
0.0113715
0.0113527
0.0113123
0.0112513
0.0111714
0.0110751
0.0109656
0.0108458
0.0107188
0.0105868
0.0104521
0.0103162
0.0101806
0.0100463
0.00991396
0.00978431
0.00965771
0.00953446
0.00941476
0.0092987
0.00918633
0.00907767
0.00897268
0.00887129
0.00877342
0.00867899
0.00858789
0.0085
0.00841523
0.00833345
0.00825455
0.0113813
0.0113725
0.0113446
0.0112755
0.0111624
0.0110161
0.0108447
0.0106562
0.0104574
0.0102538
0.0100496
0.00984752
0.00964976
0.00945767
0.00927211
0.00909359
0.00892234
0.00875842
0.00860174
0.00845212
0.00830934
0.00817312
0.00804318
0.00791922
0.00780094
0.00768805
0.00758025
0.00747729
0.00737888
0.00728479
0.00719477
0.00710859
0.00702606
0.0113782
0.0113392
0.0112229
0.0110038
0.0107266
0.0104168
0.0100938
0.00977089
0.00945629
0.00915468
0.00886839
0.00859831
0.00834454
0.00810665
0.00788391
0.00767544
0.00748032
0.00729759
0.00712635
0.00696574
0.00681493
0.00667318
0.00653978
0.00641411
0.00629558
0.00618364
0.00607782
0.00597766
0.00588276
0.00579275
0.00570727
0.00562603
0.00554874
0.0113586
0.011167
0.0107276
0.0101788
0.00961593
0.00907914
0.00858444
0.0081353
0.00773009
0.00736498
0.00703557
0.00673787
0.00646821
0.00622329
0.00600023
0.00579648
0.00560985
0.00543844
0.00528058
0.00513482
0.00499992
0.00487477
0.0047584
0.00464997
0.00454874
0.00445404
0.00436529
0.00428196
0.00420361
0.00412981
0.00406019
0.00399443
0.00393222
0.0112033
0.010286
0.00914599
0.00815387
0.0073426
0.00668179
0.00613781
0.00568274
0.00529717
0.00496607
0.00467928
0.00442891
0.00420877
0.00401395
0.00384051
0.00368527
0.00354562
0.00341941
0.00330485
0.00320047
0.00310501
0.0030174
0.00293675
0.00286228
0.00279332
0.00272931
0.00266974
0.00261418
0.00256224
0.00251358
0.00246792
0.00242499
0.00238456
0.00988212
0.0070346
0.00556295
0.00467244
0.0040805
0.00363705
0.00328466
0.00299503
0.00275416
0.00255217
0.00238128
0.00223544
0.00210992
0.002001
0.00190576
0.00182188
0.0017475
0.00168116
0.00162163
0.00156795
0.00151929
0.00147501
0.00143453
0.00139739
0.0013632
0.00133162
0.00130236
0.00127518
0.00124985
0.00122621
0.00120408
0.00118333
0.00116383
0.00388336
0.00236714
0.00190983
0.0016245
0.00144089
0.00128368
0.00115037
0.00104213
0.00095442
0.000882791
0.000823654
0.000774261
0.000732524
0.000696883
0.000666151
0.000639426
0.000616
0.000595327
0.000576961
0.000560558
0.000545825
0.000532536
0.000520489
0.000509534
0.000499524
0.000490359
0.000481926
0.000474161
0.000466973
0.000460322
0.000454131
0.000448379
0.000442997
0.000128162
0.00013943
0.0001503
0.000159954
0.000168408
0.000175845
0.000182401
0.000188179
0.000193264
0.000197735
0.000201661
0.000205104
0.000208118
0.000210752
0.000213051
0.000215052
0.000216791
0.000218297
0.000219599
0.000220719
0.00022168
0.0002225
0.000223195
0.00022378
0.000224268
0.000224671
0.000224998
0.000225259
0.000225462
0.000225612
0.000225717
0.000225782
0.000225813
8.37229e-05
0.000100006
0.00012555
0.000159812
0.000199816
0.000242881
0.000287543
0.000332721
0.000377479
0.000420928
0.000462034
0.000500527
0.000536529
0.000570338
0.000602544
0.000633553
0.000663889
0.000693766
0.000723467
0.000752988
0.000782251
0.000811128
0.000839637
0.000867731
0.000895389
0.000922609
0.000949397
0.000975806
0.00100187
0.00102762
0.0010533
0.00107893
0.00110444
0.00112986
0.00115519
0.00118054
0.00120585
0.00123135
0.00125714
0.00128328
0.00130986
0.00133695
0.00136468
0.00139325
0.00142289
0.00145394
0.00148685
0.00152217
0.00156061
0.00160291
0.00164989
0.00170238
0.00176125
0.0018274
0.00190184
0.00198575
0.00208056
0.00218793
0.00230978
0.00244825
0.00260568
0.00278463
0.00298798
0.00321897
0.0034812
0.00377834
0.00411385
0.00449137
0.00491572
0.00539536
0.00594574
0.00659363
0.0073739
0.00831272
0.00935369
0.0104
0.0113747
0.0122194
0.0129138
0.0134635
0.0138879
0.014209
0.0144474
0.0146206
0.0147429
0.0148253
0.0148765
0.0149033
0.0149112
0.0149047
0.0148872
0.0148615
0.0148299
0.0147943
0.014756
0.0147161
0.0146751
0.0146331
0.0145902
0.0145346
0.000133119
0.000134346
0.000137563
0.000144798
0.000156009
0.000170288
0.000187925
0.000208219
0.000232286
0.000259846
0.000289907
0.000322984
0.000358027
0.00039413
0.000430795
0.00046727
0.000503499
0.000539044
0.00057423
0.00060868
0.00064224
0.000675032
0.000707178
0.000738561
0.000769211
0.000799099
0.000828267
0.000856785
0.000884748
0.000912237
0.000939389
0.000966339
0.000993181
0.00102001
0.0010469
0.00107397
0.0011013
0.00112902
0.00115729
0.00118624
0.00121603
0.00124681
0.00127876
0.00131211
0.00134717
0.00138434
0.00142415
0.00146723
0.00151433
0.00156629
0.00162397
0.00168831
0.00176025
0.00184081
0.00193108
0.00203236
0.00214608
0.00227388
0.00241756
0.00257906
0.00276048
0.00296416
0.00319275
0.00344925
0.00373698
0.00405922
0.00441905
0.00481995
0.00526689
0.00576899
0.00634279
0.00701653
0.00783272
0.00880959
0.00987152
0.0109378
0.0119207
0.0127633
0.013448
0.0139834
0.0143911
0.0146946
0.0149155
0.015072
0.0151785
0.0152461
0.0152838
0.0152982
0.0152949
0.0152782
0.0152516
0.0152177
0.0151788
0.0151367
0.0150927
0.0150475
0.0150018
0.0149555
0.0149082
0.0148497
0.000229368
0.000225432
0.000221321
0.000218031
0.000216534
0.00021711
0.000219411
0.000223453
0.000229888
0.000239095
0.000251752
0.000267786
0.000287821
0.000310609
0.000336229
0.000363546
0.000392758
0.00042308
0.000455701
0.000487692
0.000519858
0.000553226
0.000587074
0.000620557
0.000653685
0.000686054
0.000717693
0.000748608
0.000778858
0.000808571
0.000837896
0.000866995
0.000896032
0.000925159
0.000954528
0.000984308
0.00101466
0.00104577
0.00107782
0.00111101
0.00114556
0.00118168
0.00121963
0.0012597
0.00130227
0.00134782
0.00139693
0.00145029
0.00150872
0.0015731
0.00164436
0.00172347
0.00181143
0.0019093
0.00201819
0.00213931
0.00227396
0.00242356
0.00258959
0.00277366
0.00297754
0.00320326
0.00345323
0.00373023
0.00403728
0.00437738
0.00475344
0.00516901
0.00562926
0.00614389
0.0067299
0.00741782
0.00825781
0.00924574
0.0103211
0.0113996
0.0123892
0.0132327
0.0139133
0.0144409
0.0148383
0.0151302
0.015339
0.0154832
0.0155778
0.0156341
0.015661
0.0156655
0.015653
0.0156279
0.0155936
0.0155528
0.0155076
0.0154599
0.0154107
0.015361
0.015311
0.0152608
0.0152097
0.0151486
0.000402112
0.000394442
0.000386482
0.000379016
0.000372555
0.000367071
0.000362628
0.000358913
0.000355964
0.000353782
0.000352963
0.000353445
0.000356035
0.000360595
0.000367817
0.000377473
0.000390128
0.000405555
0.000424414
0.000446356
0.000471258
0.000497777
0.000527259
0.000556689
0.000587788
0.000618434
0.000649652
0.000680787
0.00071175
0.000742655
0.000773546
0.000804543
0.000835784
0.000867435
0.000899719
0.000932854
0.000967058
0.00100256
0.00103959
0.00107839
0.00111922
0.00116236
0.00120812
0.00125685
0.00130899
0.00136506
0.0014257
0.00149163
0.00156368
0.00164275
0.00172977
0.00182569
0.00193147
0.00204809
0.00217654
0.00231782
0.00247297
0.00264306
0.00282924
0.00303278
0.00325515
0.00349816
0.00376402
0.00405531
0.00437486
0.00472545
0.00510998
0.0055322
0.00599746
0.00651588
0.00710444
0.00780015
0.00864226
0.0096267
0.0107059
0.0117893
0.0127837
0.0136305
0.0143118
0.0148375
0.0152305
0.0155163
0.0157179
0.0158543
0.0159407
0.0159889
0.0160079
0.0160047
0.015985
0.0159531
0.0159125
0.015866
0.0158156
0.015763
0.0157095
0.0156557
0.0156021
0.0155484
0.0154939
0.0154305
0.000644361
0.000632752
0.000621247
0.000610321
0.000600388
0.000591335
0.000583173
0.000575717
0.000568981
0.00056281
0.000557126
0.00055201
0.000547605
0.000543553
0.000540387
0.0005379
0.000536866
0.00053715
0.000539795
0.000544733
0.000553043
0.000564304
0.000579215
0.000597567
0.000618509
0.000643185
0.0006685
0.000696383
0.000725033
0.000755073
0.000785716
0.000817024
0.00084907
0.000882204
0.000916779
0.000952976
0.000991002
0.00103108
0.00107346
0.00111841
0.00116619
0.00121713
0.00127157
0.00132989
0.00139257
0.00146014
0.00153326
0.00161263
0.00169905
0.00179335
0.0018964
0.00200903
0.00213209
0.00226635
0.00241261
0.00257162
0.00274411
0.00293087
0.00313274
0.00335075
0.00358618
0.00384071
0.00411637
0.0044156
0.00474103
0.00509531
0.00548144
0.00590329
0.00636637
0.00688112
0.00746705
0.00815808
0.00898577
0.00995832
0.0110297
0.0121107
0.0131076
0.0139593
0.0146453
0.0151742
0.0155684
0.0158534
0.0160525
0.0161852
0.0162671
0.0163102
0.0163239
0.0163154
0.0162904
0.0162534
0.016208
0.0161568
0.0161021
0.0160455
0.0159883
0.0159311
0.0158742
0.0158175
0.01576
0.0156946
0.000965064
0.00094792
0.000931312
0.000915525
0.000900922
0.000887395
0.000874968
0.000863421
0.000852853
0.000843017
0.000833983
0.000825448
0.000817617
0.000810101
0.00080316
0.000796576
0.000790809
0.000785657
0.000781988
0.000779268
0.000778429
0.000779528
0.000782818
0.000789267
0.000797605
0.000810439
0.000823954
0.000841942
0.00086257
0.000886296
0.000912554
0.000941228
0.000972425
0.00100593
0.00104158
0.0010796
0.00112023
0.00116374
0.00121039
0.00126045
0.00131424
0.00137205
0.00143425
0.00150124
0.00157347
0.00165147
0.00173584
0.00182724
0.00192639
0.00203399
0.00215079
0.00227746
0.00241466
0.002563
0.00272303
0.00289526
0.00308019
0.00327838
0.00349048
0.00371735
0.00396016
0.00422044
0.00450011
0.00480147
0.00512692
0.005479
0.00586099
0.00627636
0.00673139
0.0072384
0.00781368
0.00848689
0.00929363
0.0102434
0.0112963
0.0123676
0.0133638
0.014221
0.0149151
0.0154518
0.0158522
0.0161412
0.0163423
0.0164753
0.0165562
0.0165973
0.0166084
0.0165968
0.0165684
0.016528
0.016479
0.0164244
0.0163663
0.0163065
0.0162462
0.0161861
0.0161265
0.0160672
0.0160072
0.01594
0.00138155
0.00135641
0.00133231
0.00130942
0.00128803
0.00126804
0.00124948
0.00123213
0.00121608
0.00120107
0.00118721
0.00117415
0.00116202
0.00115061
0.0011399
0.00113005
0.00112093
0.00111289
0.0011063
0.00110027
0.00109621
0.00109394
0.00109356
0.0010956
0.0010994
0.00110619
0.00111505
0.00112676
0.00114127
0.0011588
0.00117937
0.00120303
0.00122989
0.00126005
0.00129356
0.00133053
0.00137114
0.00141559
0.0014641
0.00151693
0.00157433
0.00163661
0.00170409
0.00177715
0.00185621
0.00194174
0.00203429
0.00213444
0.00224278
0.00235992
0.00248644
0.00262288
0.00276972
0.00292738
0.00309622
0.00327655
0.0034687
0.00367304
0.00389009
0.00412057
0.00436559
0.00462654
0.0049052
0.00520373
0.00552422
0.00586927
0.00624249
0.00664588
0.00709125
0.00758194
0.00813879
0.00878957
0.00956721
0.0104846
0.0115094
0.0125633
0.0135549
0.0144173
0.0151217
0.0156701
0.0160811
0.0163787
0.0165862
0.0167234
0.0168068
0.016849
0.01686
0.0168476
0.0168178
0.0167755
0.0167244
0.0166675
0.0166071
0.0165449
0.0164822
0.0164197
0.0163578
0.0162963
0.0162342
0.0161654
0.0019054
0.00186965
0.00183551
0.00180306
0.0017725
0.00174376
0.00171685
0.00169156
0.00166796
0.00164578
0.00162512
0.00160567
0.00158751
0.00157044
0.00155455
0.00153977
0.00152649
0.00151411
0.00150437
0.00149486
0.0014879
0.00148276
0.00147986
0.00147951
0.00148123
0.00148547
0.00149209
0.00150131
0.00151324
0.00152806
0.00154591
0.00156697
0.00159141
0.0016194
0.00165116
0.00168687
0.00172675
0.00177104
0.00181997
0.00187381
0.00193283
0.00199731
0.00206756
0.00214394
0.00222685
0.00231672
0.00241402
0.00251927
0.00263298
0.00275563
0.00288769
0.00302957
0.00318161
0.00334405
0.00351711
0.00370092
0.00389567
0.00410157
0.00431906
0.00454874
0.00479166
0.00504901
0.00532253
0.00561409
0.00592551
0.00625977
0.00662023
0.00701114
0.00743674
0.00790854
0.00844298
0.00906572
0.00980768
0.0106847
0.0116724
0.0127012
0.0136833
0.0145493
0.0152653
0.0158285
0.0162541
0.0165646
0.0167825
0.0169278
0.0170171
0.0170634
0.017077
0.017066
0.0170368
0.0169943
0.0169425
0.0168845
0.0168228
0.016759
0.0166946
0.0166304
0.0165667
0.0165035
0.0164397
0.0163696
0.00253675
0.0024883
0.00244203
0.00239797
0.00235622
0.00231674
0.0022795
0.00224433
0.00221124
0.00218002
0.0021507
0.00212303
0.00209705
0.00207258
0.00204977
0.00202844
0.00200916
0.00199121
0.00197613
0.00196222
0.00195159
0.00194162
0.00193567
0.00193165
0.00193065
0.00193237
0.00193678
0.00194398
0.00195407
0.00196718
0.00198346
0.00200307
0.00202619
0.00205301
0.00208376
0.00211867
0.00215798
0.00220194
0.00225082
0.00230488
0.0023644
0.00242967
0.00250102
0.00257877
0.0026633
0.00275503
0.00285438
0.00296181
0.00307776
0.00320264
0.0033368
0.00348056
0.00363416
0.00379765
0.00397118
0.0041547
0.00434827
0.00455203
0.00476628
0.00499158
0.00522885
0.00547911
0.00574419
0.00602517
0.00632431
0.00664602
0.00699055
0.00736147
0.00776686
0.00821618
0.00872441
0.00931473
0.0100159
0.010846
0.0117888
0.0127846
0.0137513
0.0146181
0.0153458
0.0159258
0.0163694
0.0166966
0.0169289
0.017086
0.0171846
0.0172381
0.017257
0.0172499
0.0172233
0.0171824
0.0171314
0.0170737
0.0170116
0.0169472
0.0168819
0.0168165
0.0167515
0.016687
0.016622
0.016551
0.00326368
0.00320152
0.00314203
0.0030852
0.00303108
0.00297961
0.00293077
0.00288441
0.00284051
0.00279889
0.00275954
0.00272226
0.00268708
0.00265383
0.00262268
0.00259345
0.00256664
0.00254176
0.00251985
0.00249994
0.00248344
0.00246875
0.00245799
0.00244846
0.00244356
0.00244094
0.00244196
0.00244607
0.00245339
0.00246405
0.00247812
0.00249578
0.00251717
0.00254247
0.00257189
0.00260564
0.00264396
0.00268708
0.00273527
0.00278877
0.00284786
0.00291283
0.00298397
0.00306161
0.00314611
0.00323784
0.0033372
0.00344458
0.00356036
0.00368492
0.0038185
0.00396136
0.00411363
0.00427519
0.00444617
0.00462636
0.0048157
0.00501433
0.00522232
0.00544035
0.00566901
0.00590934
0.00616336
0.00643021
0.00671756
0.00702096
0.00734554
0.00769578
0.0080783
0.00850224
0.00898118
0.00953578
0.0101923
0.0109704
0.0118614
0.0128168
0.0137615
0.0146249
0.0153629
0.0159608
0.0164249
0.0167721
0.0170225
0.0171951
0.0173064
0.0173702
0.0173973
0.0173964
0.0173745
0.0173372
0.0172886
0.0172324
0.0171713
0.0171072
0.0170418
0.016976
0.0169104
0.0168451
0.0167793
0.0167076
0.00406447
0.00398893
0.0039164
0.00384684
0.00378027
0.00371664
0.00365592
0.00359799
0.0035428
0.00349024
0.00344026
0.00339271
0.00334759
0.0033048
0.00326446
0.00322647
0.00319118
0.00315835
0.00312861
0.00310152
0.00307789
0.00305689
0.00303975
0.00302497
0.00301457
0.00300586
0.00300231
0.00300137
0.00300454
0.00301144
0.003022
0.00303649
0.00305495
0.00307759
0.00310458
0.00313609
0.00317236
0.00321357
0.00325997
0.00331178
0.00336926
0.00343266
0.00350227
0.00357837
0.00366129
0.00375137
0.00384896
0.0039544
0.00406802
0.00419014
0.00432091
0.00446057
0.0046091
0.00476623
0.00493218
0.0051065
0.00528902
0.00548007
0.00567919
0.0058876
0.00610498
0.00633327
0.00657338
0.00682771
0.00709524
0.00737941
0.00768302
0.00801037
0.00836782
0.00876403
0.00921128
0.00972772
0.010337
0.0110594
0.0118931
0.0128007
0.0137162
0.0145708
0.0153164
0.015932
0.0164183
0.0167883
0.01706
0.0172515
0.017379
0.0174562
0.0174943
0.0175023
0.0174875
0.0174556
0.0174112
0.0173581
0.0172991
0.0172365
0.0171719
0.0171065
0.0170409
0.0169753
0.0169095
0.0168375
0.00491103
0.00482381
0.00473972
0.00465872
0.00458081
0.00450597
0.00443416
0.00436531
0.00429937
0.00423626
0.00417592
0.00411827
0.00406329
0.00401093
0.00396128
0.00391431
0.00387024
0.00382904
0.00379105
0.00375612
0.00372474
0.00369651
0.00367214
0.00365084
0.00363377
0.00361944
0.00360992
0.00360235
0.0036005
0.0036018
0.0036075
0.00361755
0.00363169
0.00365035
0.00367358
0.00370152
0.00373439
0.00377233
0.00381558
0.00386433
0.00391881
0.00397923
0.00404583
0.00411887
0.00419865
0.00428546
0.00437959
0.0044813
0.00459089
0.00470865
0.00483461
0.00496903
0.00511167
0.00526216
0.0054209
0.00558715
0.00576055
0.00594194
0.00612984
0.00632672
0.00653029
0.00674603
0.00697049
0.00720606
0.00745457
0.00771789
0.00799882
0.00830155
0.00863217
0.0089988
0.0094125
0.00988908
0.0104495
0.0111139
0.011886
0.0127393
0.013618
0.0144573
0.0152063
0.0158379
0.0163469
0.0167418
0.0170378
0.0172514
0.0173983
0.0174921
0.0175441
0.0175637
0.0175583
0.017534
0.0174958
0.0174474
0.017392
0.0173321
0.0172694
0.0172052
0.0171404
0.0170753
0.0170099
0.0169381
0.00577258
0.00567651
0.00558345
0.00549338
0.00540632
0.00532226
0.00524118
0.00516303
0.00508781
0.00501544
0.00494591
0.00487917
0.00481522
0.00475403
0.00469569
0.00464022
0.00458778
0.0045384
0.00449234
0.00444957
0.00441039
0.00437466
0.00434279
0.00431441
0.00429016
0.0042693
0.00425297
0.00423973
0.00423134
0.00422662
0.00422622
0.0042302
0.00423861
0.00425225
0.00427045
0.00429352
0.00432169
0.00435501
0.00439376
0.00443804
0.00448812
0.00454408
0.00460618
0.00467462
0.00474969
0.00483162
0.00492059
0.00501684
0.00512065
0.00523224
0.00535154
0.00547883
0.00561355
0.00575538
0.00590497
0.00606113
0.00622328
0.00639326
0.0065678
0.00675147
0.00694193
0.00713969
0.00734637
0.00756298
0.0077909
0.00803195
0.00828883
0.00856557
0.00886796
0.0092036
0.0095824
0.0100181
0.0105289
0.0111341
0.0118418
0.0126352
0.0134696
0.014286
0.0150327
0.0156773
0.0162083
0.0166292
0.0169516
0.0171902
0.0173596
0.0174732
0.0175422
0.0175761
0.0175828
0.0175684
0.0175383
0.0174965
0.0174463
0.0173904
0.0173308
0.0172689
0.0172058
0.0171419
0.0170777
0.0170068
0.00661888
0.00651758
0.00641895
0.006323
0.00622977
0.00613927
0.00605152
0.0059665
0.00588423
0.0058047
0.00572789
0.00565381
0.00558248
0.00551391
0.00544817
0.00538534
0.00532554
0.00526887
0.00521548
0.00516546
0.005119
0.0050761
0.00503701
0.0050016
0.00497023
0.00494258
0.00491925
0.00489961
0.0048845
0.00487339
0.00486661
0.00486459
0.00486613
0.0048736
0.00488554
0.00490273
0.00492513
0.00495263
0.0049857
0.00502427
0.00506867
0.00511876
0.00517493
0.00523733
0.00530622
0.00538172
0.0054639
0.00555303
0.0056494
0.00575315
0.00586404
0.00598244
0.00610728
0.00623861
0.00637735
0.00652155
0.00667041
0.00682754
0.00698896
0.00715601
0.0073295
0.00750961
0.00769723
0.00789344
0.00809948
0.00831709
0.00854883
0.00879855
0.0090717
0.00937531
0.00971831
0.0101125
0.0105738
0.0111197
0.0117614
0.0124906
0.0132735
0.0140591
0.0147964
0.0154493
0.0160001
0.0164469
0.0167972
0.0170632
0.017258
0.0173944
0.0174834
0.0175346
0.0175559
0.017554
0.0175342
0.0175009
0.0174577
0.0174075
0.0173524
0.017294
0.0172336
0.0171718
0.0171096
0.0170404
0.00742294
0.00732039
0.00721997
0.00712175
0.00702578
0.00693211
0.00684078
0.00675184
0.00666531
0.00658121
0.00649959
0.00642047
0.00634389
0.00626992
0.00619864
0.00613013
0.00606452
0.00600193
0.0059425
0.00588634
0.00583361
0.00578439
0.00573884
0.00569698