/*--------------------------------*- C++ -*----------------------------------*\
  =========                 |
  \\      /  F ield         | OpenFOAM: The Open Source CFD Toolbox
   \\    /   O peration     | Website:  https://openfoam.org
    \\  /    A nd           | Version:  10
     \\/     M anipulation  |
\*---------------------------------------------------------------------------*/
FoamFile
{
    format      ascii;
    class       volScalarField;
    location    "500";
    object      omega;
}
// * * * * * * * * * * * * * * * * * * * * * * * * * * * * * * * * * * * * * //

dimensions      [0 0 -1 0 0 0 0];

internalField   nonuniform List<scalar> 
6820
(
6119.65
8495.53
9975.17
10745.8
11095.1
11205.2
11181.5
11085.3
10953.2
10806.9
10658.6
10515
10379.4
10253.1
10136.5
10029.2
9930.68
9840.24
9757.13
9680.67
9610.21
9545.14
9484.94
9429.14
9377.31
9329.06
9284.06
9242
9202.49
9165.91
9128.05
9107.8
9008.94
563.863
1593.66
2118.99
2485.28
2810.02
3047.18
3202.59
3297.92
3354.07
3382.54
3395.19
3394.31
3390.33
3382.01
3371.53
3360.61
3349.99
3340.06
3331.1
3323.11
3316.26
3310.29
3305.46
3301.25
3298.17
3295.39
3293.82
3292.28
3291.94
3292.29
3293.73
3296.73
3300.89
97.8512
383.671
612.512
783.21
925.906
1044.14
1139.7
1215.39
1275.14
1321.41
1357.31
1384.45
1405.05
1420.48
1431.9
1440.18
1446.13
1450.24
1453.06
1454.82
1455.96
1456.49
1456.79
1456.78
1456.74
1456.61
1456.56
1456.59
1456.74
1457.02
1457.62
1458.24
1460.25
35.0872
109.689
194.406
270.889
340.026
401.746
456.051
503.301
544.31
579.652
610.059
636.086
658.349
677.354
693.593
707.431
719.267
729.344
737.993
745.348
751.703
757.093
761.805
765.78
769.323
772.278
775.001
777.231
779.406
781.135
782.989
784.394
786.185
22.8645
46.9744
78.9733
111.645
143.696
174.306
202.952
229.4
253.667
275.792
295.89
314.078
330.508
345.317
358.666
370.676
381.5
391.232
400.014
407.911
415.057
421.482
427.322
432.569
437.368
441.675
445.647
449.206
452.524
455.498
458.307
460.836
463.278
19.4482
28.8211
42.7197
57.8274
73.3605
88.8405
103.93
118.419
132.209
145.241
157.493
168.964
179.673
189.645
198.92
207.529
215.521
222.928
229.8
236.163
242.07
247.538
252.619
257.324
261.705
265.763
269.551
273.061
276.349
279.403
282.273
284.948
287.477
18.2937
22.3026
29.0893
36.8341
45.0406
53.427
61.8026
70.0404
78.0623
85.8152
93.2659
100.393
107.19
113.651
119.783
125.591
131.086
136.277
141.181
145.808
150.175
154.291
158.176
161.837
165.293
168.55
171.627
174.528
177.272
179.862
182.315
184.634
186.835
17.8628
19.6406
23.1435
27.4252
32.1052
36.9866
41.9454
46.9
51.7966
56.5975
61.2764
65.815
70.2019
74.4295
78.4946
82.3955
86.1337
89.7107
93.1309
96.3975
99.5165
102.492
105.33
108.036
110.616
113.075
115.42
117.654
119.785
121.816
123.755
125.604
127.369
17.6921
18.5022
20.2904
22.759
25.5622
28.5573
31.6527
34.7884
37.9241
41.0314
44.0904
47.0865
50.0097
52.8528
55.6112
58.2819
60.8634
63.3551
65.7575
68.0715
70.2986
72.4406
74.4997
76.4781
78.3786
80.2033
81.9553
83.6369
85.2511
86.8002
88.2871
89.714
91.0835
17.6213
17.9912
18.8824
20.3078
22.0194
23.9105
25.909
27.9662
30.0493
32.135
34.2066
36.2522
38.263
40.2327
42.1567
44.0318
45.8558
47.6275
49.3461
51.0114
52.6235
54.1831
55.6907
57.1474
58.5541
59.9121
61.2227
62.487
63.7066
64.8827
66.0167
67.1097
68.1632
17.591
17.7573
18.1874
18.989
20.029
21.231
22.5398
23.9157
25.3307
26.7649
28.2036
29.6362
31.0549
32.4537
33.8284
35.1758
36.4935
37.7798
39.0338
40.2546
41.4418
42.5955
43.7156
44.8024
45.8563
46.8778
47.8675
48.826
49.754
50.6522
51.5213
52.3619
53.1748
17.5777
17.6499
17.8528
18.2782
18.8973
19.653
20.5076
21.4308
22.3998
23.3973
24.4103
25.4291
26.4467
27.4573
28.4568
29.4421
30.4107
31.3608
32.2912
33.2008
34.089
34.9553
35.7996
36.6217
37.4216
38.1996
38.9557
39.6903
40.4037
41.0962
41.7682
42.42
43.052
17.5717
17.6008
17.6934
17.905
18.2597
18.7222
19.2705
19.8835
20.5436
21.2368
21.9518
22.6802
23.4151
24.1516
24.8854
25.6135
26.3334
27.0433
27.7417
28.4275
29.0999
29.7581
30.4019
31.0308
31.6448
32.2436
32.8274
33.3962
33.95
34.4889
35.0133
35.5231
36.0187
17.5685
17.5785
17.618
17.7166
17.9085
18.1807
18.522
18.9199
19.3621
19.8381
20.3388
20.857
21.3867
21.9234
22.463
23.0028
23.5402
24.0733
24.6006
25.121
25.6334
26.1371
26.6316
27.1164
27.5912
28.0558
28.5099
28.9536
29.3868
29.8094
30.2216
30.6232
31.0146
17.5667
17.5684
17.5829
17.6262
17.7204
17.8733
18.0774
18.3272
18.6155
18.9352
19.2796
19.6432
20.0208
20.4086
20.8031
21.2014
21.6014
22.0012
22.3993
22.7943
23.1854
23.5716
23.9524
24.3272
24.6956
25.0573
25.4121
25.7596
26.0999
26.4328
26.7582
27.0762
27.3867
17.5661
17.5629
17.5666
17.5832
17.6249
17.7047
17.8204
17.9705
18.1517
18.3598
18.5905
18.8398
19.1039
19.3796
19.6639
19.9546
20.2495
20.5468
20.8453
21.1436
21.4407
21.7359
22.0284
22.3176
22.6032
22.8846
23.1616
23.4339
23.7014
23.9638
24.2211
24.4732
24.7199
17.5661
17.5601
17.5585
17.563
17.5791
17.6155
17.6768
17.7622
17.8708
18.0009
18.15
18.3157
18.4955
18.6868
18.8874
19.0956
19.3094
19.5273
19.7482
19.9709
20.1945
20.418
20.641
20.8626
21.0826
21.3004
21.5157
21.7283
21.9378
22.1442
22.3471
22.5465
22.7423
17.5661
17.5591
17.5541
17.5532
17.5574
17.5711
17.5997
17.6447
17.706
17.7832
17.8754
17.9812
18.0992
18.2278
18.3654
18.5107
18.6621
18.8186
18.979
19.1424
19.3079
19.4748
19.6425
19.8104
19.978
20.145
20.3109
20.4754
20.6384
20.7995
20.9586
21.1156
21.2702
17.5662
17.5588
17.5523
17.5479
17.5469
17.5501
17.5603
17.5811
17.6128
17.6555
17.7092
17.7735
17.8476
17.9306
18.0216
18.1196
18.2237
18.3329
18.4465
18.5636
18.6836
18.8058
18.9297
19.0547
19.1805
19.3067
19.4329
19.5588
19.6841
19.8087
19.9323
20.0547
20.1759
17.5662
17.5587
17.5517
17.5456
17.5413
17.5397
17.5415
17.5482
17.5621
17.5834
17.6122
17.6487
17.6925
17.7434
17.8009
17.8644
17.9333
18.007
18.0849
18.1664
18.2511
18.3384
18.4279
18.5191
18.6117
18.7054
18.7998
18.8947
18.9898
19.0849
19.1798
19.2743
19.3683
17.5662
17.5587
17.5515
17.5447
17.5388
17.5344
17.5319
17.5324
17.5359
17.5442
17.5576
17.5763
17.6003
17.6294
17.6636
17.7027
17.7462
17.7939
17.8454
17.9003
17.9583
18.0189
18.0819
18.1469
18.2137
18.2819
18.3513
18.4217
18.4928
18.5645
18.6365
18.7088
18.7811
17.5662
17.5587
17.5514
17.5444
17.5378
17.532
17.5272
17.5241
17.523
17.5243
17.5283
17.5362
17.5475
17.5626
17.5814
17.6039
17.63
17.6594
17.6921
17.7278
17.7662
17.8072
17.8505
17.8959
17.9432
17.9921
18.0424
18.094
18.1467
18.2003
18.2546
18.3095
18.3649
17.5662
17.5587
17.5514
17.5442
17.5374
17.531
17.5251
17.5202
17.5164
17.514
17.5138
17.5151
17.5189
17.5255
17.5347
17.5466
17.5613
17.5787
17.5988
17.6214
17.6464
17.6737
17.7032
17.7347
17.7681
17.8031
17.8397
17.8777
17.917
17.9573
17.9987
18.0409
18.0838
17.5662
17.5587
17.5514
17.5442
17.5372
17.5306
17.5243
17.5185
17.5135
17.5094
17.5065
17.505
17.5052
17.5069
17.5106
17.5165
17.5246
17.5349
17.5474
17.562
17.5788
17.5977
17.6185
17.6413
17.6658
17.692
17.7197
17.7489
17.7794
17.8111
17.8439
17.8778
17.9124
17.5662
17.5587
17.5513
17.5442
17.5372
17.5304
17.524
17.518
17.5126
17.5079
17.5041
17.5014
17.5003
17.5005
17.5019
17.5052
17.5105
17.5178
17.527
17.5382
17.5513
17.5664
17.5833
17.6019
17.6223
17.6444
17.6679
17.6929
17.7192
17.7468
17.7755
17.8053
17.836
17.5662
17.5587
17.5513
17.5442
17.5372
17.5305
17.5242
17.5183
17.5132
17.5088
17.5055
17.5034
17.5028
17.5035
17.5057
17.5098
17.5159
17.524
17.5339
17.5458
17.5596
17.5753
17.5929
17.6121
17.6331
17.6557
17.6797
17.7052
17.732
17.7599
17.789
17.8192
17.8502
17.5662
17.5587
17.5513
17.5442
17.5374
17.5309
17.5251
17.52
17.5159
17.5131
17.5118
17.5122
17.5142
17.5184
17.5247
17.5332
17.5439
17.5568
17.5719
17.5891
17.6084
17.6296
17.6527
17.6776
17.7042
17.7323
17.7619
17.7929
17.8251
17.8584
17.8927
17.9279
17.964
17.5662
17.5587
17.5514
17.5444
17.5379
17.5322
17.5276
17.5244
17.5231
17.5239
17.5268
17.5328
17.5417
17.5535
17.5682
17.5859
17.6063
17.6295
17.6553
17.6835
17.714
17.7466
17.7813
17.8177
17.8558
17.8954
17.9364
17.9785
18.0218
18.066
18.111
18.1567
18.2031
17.5662
17.5587
17.5516
17.5451
17.5396
17.5357
17.5342
17.5354
17.5396
17.5483
17.5613
17.5787
17.6004
17.6265
17.6567
17.6908
17.7285
17.7696
17.8138
17.8608
17.9103
17.9621
18.0158
18.0713
18.1283
18.1866
18.246
18.3064
18.3675
18.4293
18.4915
18.5541
18.617
17.5662
17.5589
17.5522
17.5473
17.5446
17.5455
17.5504
17.5615
17.5799
17.6051
17.6372
17.6762
17.7217
17.7732
17.8302
17.8921
17.9586
18.0289
18.1027
18.1794
18.2585
18.3398
18.4229
18.5073
18.5929
18.6793
18.7663
18.8537
18.9414
19.0291
19.1167
19.204
19.2911
17.5662
17.5594
17.5546
17.5542
17.558
17.5697
17.5932
17.6283
17.675
17.7331
17.8018
17.8804
17.9677
18.0627
18.1645
18.2719
18.3842
18.5004
18.6198
18.7417
18.8657
18.991
19.1174
19.2443
19.3715
19.4987
19.6255
19.7518
19.8775
20.0022
20.1259
20.2485
20.3698
17.5663
17.5617
17.563
17.5719
17.595
17.6401
17.7056
17.7912
17.8955
18.0167
18.1525
18.3009
18.4597
18.6271
18.8013
18.9809
19.1646
19.3512
19.5399
19.7297
19.92
20.1103
20.3
20.4887
20.6761
20.862
21.0459
21.2279
21.4076
21.585
21.76
21.9325
22.1024
17.5672
17.57
17.5859
17.6277
17.711
17.8336
17.992
18.1817
18.3978
18.6354
18.89
19.1579
19.4356
19.7205
20.0102
20.303
20.5972
20.8916
21.1852
21.4772
21.7668
22.0536
22.3371
22.617
22.893
23.1648
23.4324
23.6956
23.9543
24.2085
24.4582
24.7032
24.9438
17.5716
17.5953
17.6662
17.8177
18.0531
18.3545
18.7089
19.1039
19.5288
19.9749
20.4354
20.905
21.3795
21.8557
22.3312
22.8041
23.2729
23.7366
24.1941
24.645
25.0886
25.5248
25.9531
26.3734
26.7857
27.1898
27.5859
27.9738
28.3537
28.7256
29.0896
29.4459
29.7945
17.5854
17.6974
17.97
18.442
19.0445
19.7383
20.4919
21.2825
22.0938
22.9147
23.7374
24.5566
25.3685
26.1703
26.9601
27.7366
28.4989
29.2462
29.9783
30.6948
31.3958
32.0812
32.7511
33.4057
34.045
34.6695
35.2792
35.8746
36.4558
37.0232
37.5771
38.1178
38.6456
17.6522
18.1438
19.1452
20.4575
21.9288
23.4778
25.0552
26.6336
28.1973
29.738
31.2512
32.7338
34.184
35.6008
36.9838
38.3329
39.6483
40.9302
42.1792
43.3957
44.5804
45.7338
46.8567
47.9498
49.0137
50.0493
51.0572
52.0383
52.9931
53.9226
54.8274
55.7083
56.5658
18.0423
20.3419
23.6955
27.3245
30.9673
34.5347
37.9958
41.3519
44.6044
47.7636
50.8307
53.8078
56.6968
59.4997
62.2184
64.8547
67.4106
69.888
72.2888
74.615
76.8688
79.052
81.1668
83.2153
85.1997
87.1218
88.984
90.7881
92.5361
94.2302
95.872
97.4638
99.0069
21.0783
32.2378
43.8848
55.0829
65.2657
74.7234
83.662
92.2536
100.532
108.504
116.177
123.555
130.647
137.457
143.994
150.266
156.282
162.049
167.578
172.878
177.957
182.826
187.493
191.968
196.26
200.376
204.325
208.116
211.756
215.253
218.613
221.844
224.951
63.2893
131.147
179.994
220.95
253.72
286.909
320.76
353.568
384.671
413.8
440.882
465.957
489.136
510.547
530.335
548.63
565.566
581.259
595.825
609.357
621.956
633.694
644.659
654.904
664.507
673.505
681.97
689.923
697.433
704.507
711.213
717.544
723.573
1672.14
1819.15
1960.96
2086.92
2197.23
2294.25
2379.79
2455.17
2521.52
2579.86
2631.08
2676
2715.32
2749.69
2779.68
2805.79
2828.47
2848.13
2865.11
2879.73
2892.26
2902.95
2912.02
2919.66
2926.03
2931.28
2935.55
2938.95
2941.59
2943.55
2944.92
2945.77
2946.17
8961.9
8428.61
7906.02
7379.81
6874.85
6404.28
5971.61
5578.29
5220.3
4893.64
4598.23
4330.16
4086.74
3865.92
3664.52
3480.59
3311.37
3155.45
3010.89
2876.77
2752.3
2636.73
2528.97
2428.26
2333.81
2244.88
2160.78
2080.82
2004.41
1931.07
1859.94
1790.65
1722.99
1656.62
1591.23
1526.48
1462.21
1398.01
1333.69
1269.14
1204.31
1139.21
1073.89
1008.42
942.971
877.721
812.917
748.871
685.978
624.72
565.649
509.347
456.375
407.207
362.18
321.466
285.074
252.869
224.612
200.006
178.727
160.457
144.893
131.753
120.769
111.682
104.231
98.1642
93.2647
89.3984
86.5461
84.781
84.1744
84.6151
86.2108
88.8529
92.1608
95.8815
99.8017
103.764
107.65
111.378
114.897
118.172
121.185
123.927
126.399
128.607
130.559
132.266
133.742
134.999
136.053
136.917
137.605
138.132
138.515
138.768
138.904
138.919
3300.01
3333.93
3405.92
3477.97
3546.11
3616.69
3672.76
3718.73
3733.99
3723.34
3693.16
3631.57
3547.54
3447.31
3334.75
3216.37
3094.06
2972.16
2850.51
2732.41
2618.98
2509.83
2404.76
2304.22
2208.02
2116.08
2028.08
1943.7
1862.54
1784.28
1708.49
1634.79
1562.86
1492.44
1423.28
1355.15
1287.88
1221.3
1155.3
1089.82
1024.89
960.576
897.004
834.334
772.763
712.514
653.843
597.046
542.459
490.45
441.401
395.669
353.545
315.221
280.766
250.119
223.111
199.49
178.955
161.195
145.911
132.831
121.716
112.352
104.546
98.1113
92.8622
88.6161
85.2261
82.6147
80.8039
79.8922
79.8982
80.8112
82.858
85.757
89.2435
93.0838
97.0842
101.1
105.026
108.786
112.334
115.638
118.68
121.454
123.959
126.202
128.191
129.937
131.451
132.747
133.84
134.741
135.468
136.033
136.453
136.745
136.923
136.971
1461.49
1466.68
1477.04
1489.13
1500.86
1514.17
1532.57
1558.94
1592.51
1633.94
1680.25
1731.16
1780.05
1829.38
1872.9
1910.91
1937.86
1954.08
1952.85
1944.94
1925.57
1891.95
1848.22
1798.38
1743.53
1685.93
1626.45
1565.95
1505.05
1444.07
1383.24
1322.69
1262.5
1202.72
1143.38
1084.5
1026.1
968.229
910.953
854.375
798.633
743.894
690.348
638.194
587.641
538.899
492.178
447.695
405.667
366.304
329.797
296.291
265.872
238.546
214.238
192.796
174.013
157.643
143.433
131.139
120.545
111.462
103.734
97.2238
91.809
87.3688
83.7789
80.9142
78.6817
77.0422
76.0417
75.7706
76.1981
77.534
79.8431
82.898
86.4809
90.3777
94.4107
98.4457
102.384
106.157
109.719
113.042
116.107
118.908
121.445
123.723
125.75
127.536
129.092
130.43
131.566
132.511
133.28
133.889
134.353
134.689
134.913
135.001
787.807
790.153
793.491
796.368
798.067
799.085
799.806
801.105
803.539
808.083
814.623
824.621
837.58
854.838
875.454
899.953
926.565
954.769
981.802
1006.6
1027.37
1044.8
1054.36
1060.25
1058.07
1051.06
1037.44
1018.71
995.595
968.678
938.667
906.147
871.623
835.51
798.125
759.773
720.741
681.303
641.727
602.275
563.205
524.764
487.191
450.704
415.504
381.771
349.665
319.329
290.889
264.45
240.093
217.862
197.761
179.746
163.728
149.579
137.144
126.255
116.748
108.473
101.3
95.1229
89.8548
85.4217
81.7545
78.7816
76.4238
74.5987
73.2518
72.3673
72.0009
72.1793
72.9876
74.6257
77.0817
80.2154
83.8326
87.7377
91.7658
95.7911
99.7209
103.49
107.055
110.387
113.469
116.294
118.861
121.173
123.239
125.066
126.666
128.051
129.233
130.226
131.044
131.701
132.214
132.598
132.872
133.006
465.876
468.766
471.73
474.372
476.351
477.762
478.647
479.202
479.474
479.695
480.079
480.755
481.852
483.974
486.987
491.419
496.925
503.939
511.785
520.688
529.658
538.856
547.26
554.402
560.327
563.247
565.152
563.821
560.359
554.091
545.583
534.876
522.112
507.347
490.725
472.527
453.029
432.504
411.22
389.438
367.407
345.364
323.527
302.091
281.229
261.092
241.809
223.488
206.223
190.087
175.138
161.409
148.908
137.615
127.486
118.453
110.433
103.337
97.0801
91.5852
86.7899
82.6445
79.1104
76.1539
73.7416
71.8345
70.383
69.3365
68.6659
68.368
68.4714
69.0222
70.154
71.9733
74.5105
77.6649
81.2684
85.1432
89.1361
93.1281
97.0312
100.783
104.339
107.673
110.766
113.611
116.205
118.552
120.656
122.527
124.174
125.608
126.841
127.886
128.757
129.468
130.034
130.471
130.798
130.985
290.241
293.252
296.177
298.901
301.271
303.301
304.974
306.369
307.454
308.327
308.979
309.544
309.981
310.481
310.999
311.686
312.44
313.426
314.399
315.674
316.985
318.398
319.883
321.074
322.444
322.876
323.717
323.312
322.206
320.075
317.001
312.938
307.816
301.716
294.734
286.885
278.215
268.805
258.754
248.18
237.21
225.975
214.604
203.219
191.936
180.855
170.071
159.666
149.714
140.278
131.412
123.156
115.535
108.557
102.214
96.4824
91.329
86.7166
82.6086
78.9743
75.7898
73.0388
70.7099
68.7924
67.2745
66.1369
65.3479
64.8842
64.7268
64.8641
65.3452
66.2248
67.5772
69.5162
72.0853
75.2165
78.7686
82.5819
86.5144
90.4531
94.3136
98.0346
101.573
104.901
108
110.861
113.481
115.86
118.004
119.92
121.615
123.101
124.389
125.49
126.418
127.186
127.81
128.305
128.69
128.935
189.268
191.93
194.509
196.966
199.234
201.308
203.171
204.852
206.327
207.64
208.766
209.768
210.622
211.375
212.032
212.576
213.044
213.385
213.547
213.723
213.672
213.456
213.092
212.511
211.871
210.957
209.955
208.716
207.238
205.469
203.382
200.95
198.143
194.94
191.34
187.342
182.953
178.191
173.083
167.665
161.983
156.091
150.044
143.899
137.714
131.544
125.444
119.465
113.656
108.065
102.734
97.6978
92.9846
88.6118
84.5858
80.9048
77.5599
74.5399
71.8334
69.4329
67.3342
65.5378
64.0459
62.8594
61.9792
61.3961
61.0895
61.0648
61.2664
61.7663
62.5566
63.6771
65.1955
67.2103
69.7751
72.8503
76.3216
80.0483
83.8992
87.7672
91.5707
95.2498
98.7615
102.077
105.176
108.049
110.691
113.102
115.285
117.246
118.992
120.532
121.877
123.038
124.027
124.857
125.543
126.1
126.546
126.855
129.334
131.5
133.612
135.652
137.592
139.423
141.133
142.732
144.207
145.573
146.818
147.966
149.005
149.951
150.793
151.538
152.148
152.682
152.967
153.25
153.299
153.198
152.911
152.419
151.784
150.977
150.025
148.921
147.664
146.249
144.671
142.923
141.001
138.898
136.609
134.135
131.476
128.637
125.627
122.459
119.149
115.718
112.188
108.585
104.935
101.265
97.6041
93.9805
90.4246
86.9663
83.6351
80.4567
77.4527
74.6401
72.028
69.6221
67.4231
65.4313
63.6466
62.0723
60.7126
59.5761
58.6697
58.0015
57.5784
57.3939
57.4398
57.7114
58.2288
58.9912
60.0145
61.3223
62.9645
65.0235
67.5584
70.5537
73.9219
77.5415
81.2928
85.0748
88.8085
92.4347
95.9104
99.2054
102.299
105.18
107.842
110.283
112.504
114.51
116.307
117.903
119.308
120.531
121.584
122.48
123.232
123.854
124.365
124.743
92.6166
94.3176
95.9869
97.616
99.1915
100.707
102.154
103.534
104.841
106.08
107.244
108.342
109.365
110.322
111.201
112.008
112.71
113.346
113.823
114.24
114.473
114.673
114.646
114.518
114.226
113.797
113.237
112.549
111.738
110.803
109.749
108.576
107.286
105.881
104.363
102.734
100.998
99.1591
97.223
95.1973
93.091
90.9145
88.6794
86.3982
84.0845
81.7528
79.4187
77.0995
74.8134
72.5794
70.417
68.3435
66.3745
64.5237
62.7988
61.2074
59.7538
58.4424
57.2785
56.2689
55.4219
54.749
54.2572
53.9621
53.8676
53.9599
54.2626
54.782
55.5132
56.4715
57.6699
59.1199
60.8527
62.9331
65.4207
68.3198
71.5682
75.0645
78.7011
82.3835
86.0354
89.5984
93.0292
96.2967
99.3792
102.263
104.94
107.408
109.665
111.716
113.564
115.217
116.683
117.971
119.091
120.055
120.877
121.568
122.147
122.599
69.3475
70.6684
71.9724
73.2546
74.5081
75.7282
76.9104
78.0534
79.1533
80.2109
81.2226
82.1908
83.1114
83.9861
84.8073
85.5779
86.2788
86.9238
87.4752
87.9629
88.3361
88.649
88.8244
88.9588
88.9298
88.824
88.5942
88.2636
87.833
87.3035
86.6786
85.9599
85.1509
84.2544
83.2736
82.2124
81.0747
79.8653
78.5894
77.253
75.8628
74.4258
72.9497
71.4427
69.9133
68.3708
66.8252
65.288
63.7713
62.2875
60.8503
59.4711
58.1611
56.9317
55.7879
54.7379
53.7874
52.9412
52.2083
51.5947
51.112
50.7707
50.5761
50.5574
50.6771
50.9927
51.4912
52.1778
53.063
54.1629
55.4885
57.0421
58.8383
60.9233
63.3527
66.1455
69.2626
72.623
76.1324
79.7031
83.2621
86.7519
90.129
93.3611
96.4255
99.3067
101.995
104.486
106.777
108.871
110.77
112.48
114.008
115.361
116.551
117.586
118.479
119.243
119.893
120.423
54.0915
55.1186
56.1372
57.1447
58.1371
59.1113
60.0644
60.9946
61.8997
62.7789
63.6301
64.4533
65.2462
66.0083
66.7352
67.4267
68.0735
68.6782
69.2253
69.7221
70.1477
70.519
70.8056
71.041
71.1767
71.2758
71.2562
71.1801
71.0131
70.7677
70.4489
70.0549
69.5902
69.056
68.4551
67.7911
67.0673
66.288
65.4576
64.581
63.6634
62.7103
61.7277
60.7219
59.699
58.6661
57.6307
56.6012
55.5862
54.5946
53.6365
52.7195
51.8525
51.0449
50.2995
49.6248
49.0273
48.5101
48.0862
47.7572
47.5408
47.4394
47.4654
47.6219
47.9363
48.4061
49.0389
49.8444
50.837
52.0345
53.4469
55.0709
56.9072
58.9842
61.3492
64.0307
67.0096
70.2252
73.597
77.0455
80.5013
83.9082
87.2225
90.4113
93.4503
96.3227
99.017
101.527
103.849
105.983
107.931
109.697
111.287
112.707
113.967
115.074
116.042
116.881
117.604
118.216
43.7667
44.5702
45.3704
46.1653
46.9527
47.7307
48.4971
49.2505
49.9893
50.7125
51.4187
52.1072
52.7764
53.4253
54.0514
54.6533
55.2263
55.7696
56.2762
56.7464
57.1712
57.5546
57.8839
58.1698
58.3926
58.5752
58.6839
58.765
58.7579
58.7056
58.5896
58.4133
58.1842
57.899
57.5615
57.1741
56.7391
56.2602
55.7403
55.1836
54.5938
53.9758
53.3341
52.6738
51.9998
51.3178
50.6338
49.9546
49.2866
48.6363
48.0118
47.4181
46.8633
46.3552
45.8941
45.4897
45.149
44.8714
44.6761
44.5558
44.5398
44.6059
44.794
45.1056
45.5471
46.1273
46.8551
47.7424
48.806
50.0652
51.5304
53.1957
55.0517
57.1104
59.4082
61.9774
64.8154
67.8804
71.1068
74.4239
77.767
81.0816
84.3244
87.4614
90.4675
93.3241
96.0184
98.542
100.89
103.061
105.056
106.876
108.527
110.014
111.344
112.526
113.569
114.484
115.283
115.98
36.5803
37.2138
37.8467
38.4779
39.1059
39.7294
40.347
40.9575
41.5598
42.153
42.736
43.308
43.8679
44.4147
44.9468
45.4627
45.9599
46.4368
46.8898
47.3176
47.7157
48.0842
48.4172
48.7174
48.9765
49.2019
49.38
49.5268
49.6223
49.6806
49.6949
49.666
49.5951
49.4752
49.317
49.1199
48.8852
48.6163
48.3145
47.9836
47.6259
47.246
46.8472
46.4335
46.0088
45.5778
45.146
44.7187
44.3005
43.8964
43.5135
43.1546
42.8283
42.5404
42.2888
42.0852
41.9373
41.838
41.8163
41.8521
41.972
42.1856
42.4971
42.9161
43.4507
44.1097
44.9028
45.8433
46.9493
48.2412
49.7309
51.4122
53.2693
55.3008
57.5304
59.9894
62.6872
65.5991
68.6746
71.8529
75.0748
78.2882
81.4505
84.5273
87.4924
90.3258
93.0134
95.545
97.9144
100.118
102.156
104.028
105.738
107.29
108.69
109.945
111.065
112.058
112.934
113.718
31.459
31.9618
32.4657
32.9699
33.4735
33.9754
34.4749
34.9709
35.4626
35.9494
36.4303
36.9046
37.3716
37.8304
38.2798
38.7188
39.1456
39.5589
39.9566
40.3373
40.6984
41.039
41.356
41.6496
41.9157
42.1563
42.3657
42.549
42.6988
42.8197
42.9096
42.9652
42.9984
42.9896
42.9536
42.8856
42.7884
42.6659
42.517
42.3458
42.1535
41.9451
41.7217
41.487
41.2439
40.9968
40.7506
40.509
40.2751
40.0534
39.85
39.6663
39.5123
39.3902
39.2965
39.2459
39.2466
39.2822
39.3824
39.5477
39.7832
40.0993
40.5031
41.0022
41.6047
42.3191
43.1553
44.1271
45.2533
46.555
48.0457
49.7209
51.5623
53.558
55.7192
58.0721
60.6333
63.3927
66.3143
69.348
72.4412
75.5451
78.6181
81.626
84.5417
87.3441
90.0175
92.5504
94.935
97.1665
99.2424
101.163
102.929
104.544
106.012
107.341
108.536
109.608
110.561
111.434
27.7401
28.141
28.5441
28.9487
29.3541
29.7598
30.165
30.5691
30.9715
31.3714
31.7684
32.1618
32.551
32.9354
33.3141
33.6862
34.0507
34.4066
34.7523
35.0868
35.4085
35.7164
36.0086
36.2846
36.5423
36.7816
37.0002
37.1991
37.3754
37.5303
37.6632
37.772
37.8608
37.9252
37.9656
37.9913
37.9879
37.967
37.9241
37.8661
37.7919
37.7082
37.6122
37.5084
37.399
37.2881
37.1809
37.0781
36.9822
36.8976
36.8301
36.7798
36.7588
36.7635
36.7903
36.8551
36.9659
37.115
37.3169
37.5766
37.9002
38.2954
38.7689
39.3277
39.9792
40.7312
41.5938
42.5805
43.7099
45.0033
46.476
48.1265
49.9366
51.888
53.9804
56.2324
58.6629
61.2729
64.04
66.9255
69.8838
72.8706
75.8461
78.7763
81.6339
84.3968
87.0481
89.5749
91.9679
94.2209
96.33
98.2937
100.112
101.787
103.322
104.721
105.992
107.141
108.172
109.136
25.0014
25.3219
25.645
25.9704
26.2977
26.6263
26.9557
27.2855
27.6152
27.9443
28.2723
28.5987
28.9232
29.2451
29.5639
29.8789
30.1895
30.4947
30.7937
31.0855
31.3693
31.644
31.9086
32.1623
32.4039
32.6331
32.8484
33.0498
33.2361
33.4072
33.5631
33.7025
33.8266
33.9349
34.0263
34.1048
34.1668
34.2151
34.2492
34.2721
34.2828
34.2911
34.2865
34.2789
34.2688
34.2597
34.2583
34.2599
34.2669
34.2873
34.324
34.3774
34.4545
34.5567
34.6831
34.8412
35.038
35.2735
35.5556
35.8896
36.2816
36.7377
37.2642
37.8672
38.5532
39.3298
40.2062
41.1955
42.3154
43.587
45.0268
46.6369
48.4018
50.3002
52.3226
54.4787
56.7858
59.2521
61.8668
64.6021
67.4211
70.2841
73.1541
75.9982
78.7889
81.5037
84.1244
86.637
89.0309
91.2985
93.4346
95.4361
97.3019
99.0327
100.63
102.099
103.442
104.668
105.775
106.831
22.9663
23.2222
23.4811
23.7428
24.007
24.2732
24.5411
24.8104
25.0806
25.3515
25.6226
25.8936
26.1641
26.4337
26.702
26.9685
27.2328
27.4942
27.752
28.0058
28.2546
28.498
28.7352
28.9654
29.1881
29.4026
29.6082
29.8047
29.9914
30.1679
30.3342
30.4897
30.6348
30.7695
30.8932
31.0076
31.112
31.2075
31.2941
31.3738
31.4463
31.5162
31.5816
31.6457
31.71
31.7773
31.8513
31.9324
32.0222
32.124
32.2412
32.3753
32.5304
32.7092
32.9125
33.1447
33.4111
33.7143
34.0598
34.4527
34.8981
35.4015
35.9682
36.6037
37.3137
38.1049
38.9859
39.9689
41.0702
42.31
43.7057
45.2631
46.9707
48.8073
50.7574
52.8218
55.0133
57.3432
59.8097
62.3955
65.0721
67.806
70.5634
73.3133
76.0284
78.6861
81.2674
83.7573
86.144
88.4185
90.5744
92.6073
94.5149
96.2964
97.9526
99.4857
100.899
102.2
103.381
104.529
21.4476
21.6512
21.8581
22.068
22.2807
22.4961
22.7136
22.9332
23.1546
23.3773
23.6013
23.8262
24.0517
24.2775
24.5033
24.7289
24.9537
25.1775
25.3997
25.62
25.8378
26.0527
26.2641
26.4717
26.6749
26.8733
27.0664
27.2541
27.4358
27.6113
27.7806
27.9435
28.0998
28.2499
28.3936
28.5316
28.6641
28.7916
28.9146
29.0342
29.1508
29.2667
29.3825
29.4997
29.6197
29.7449
29.8775
30.0192
30.1716
30.3366
30.517
30.7145
30.9318
31.1716
31.4356
31.7269
32.0496
32.4069
32.8032
33.2429
33.7306
34.2708
34.8681
35.5273
36.2533
37.052
37.9312
38.9016
39.9782
41.1795
42.5236
44.019
45.6592
47.4256
49.2997
51.2751
53.3584
55.5604
57.8851
60.324
62.8573
65.4581
68.0968
70.7447
73.3758
75.9674
78.5003
80.9584
83.3292
85.6023
87.7702
89.8273
91.7701
93.5963
95.3057
96.8993
98.3787
99.7513
101.003
102.242
20.3155
20.4764
20.6408
20.8084
20.9791
21.1526
21.3288
21.5075
21.6885
21.8715
22.0564
22.2429
22.4309
22.6201
22.8103
23.0014
23.1929
23.3846
23.5763
23.7677
23.9584
24.148
24.3364
24.5231
24.7078
24.8903
25.0703
25.2476
25.4219
25.5931
25.7612
25.926
26.0877
26.2464
26.4022
26.5555
26.7066
26.8561
27.0044
27.1525
27.3009
27.4511
27.604
27.761
27.9232
28.0925
28.2707
28.4595
28.6603
28.8749
29.1053
29.3531
29.6204
29.9095
30.2224
30.5614
30.9299
31.3311
31.7686
32.2461
32.7675
33.3367
33.9576
34.6341
35.3706
36.1719
37.0448
37.9988
39.0469
40.206
41.4937
42.921
44.4861
46.1748
47.9685
49.8559
51.837
53.9196
56.1102
58.407
60.7982
63.2636
65.7786
68.3179
70.8569
73.3736
75.8487
78.2659
80.6114
82.8743
85.0457
87.119
89.0893
90.9535
92.7098
94.3583
95.899
97.3394
98.6586
99.9874
19.4772
19.6035
19.7332
19.8663
20.0026
20.1419
20.2842
20.4293
20.577
20.7273
20.8799
21.0347
21.1916
21.3504
21.511
21.6732
21.8368
22.0017
22.1676
22.3344
22.5019
22.6699
22.8381
23.0064
23.1745
23.3424
23.5099
23.6768
23.843
24.0085
24.1734
24.3376
24.5012
24.6644
24.8275
24.9908
25.1546
25.3195
25.486
25.6549
25.8268
26.0028
26.1839
26.3712
26.5659
26.7696
26.9836
27.2096
27.449
27.7032
27.9738
28.2623
28.5704
28.9001
29.253
29.6313
30.0378
30.4753
30.9469
31.4555
32.0045
32.5971
33.2366
33.9261
34.6692
35.4701
36.3343
37.2698
38.2879
39.4034
40.6328
41.989
43.474
45.0787
46.7871
48.5855
50.4687
52.4397
54.5047
56.6659
58.9181
61.2477
63.6357
66.0604
68.4998
70.9331
73.3414
75.7081
78.0189
80.262
82.4278
84.5085
86.4982
88.3926
90.1888
91.8859
93.4818
94.9852
96.3666
97.7832
18.8653
18.9637
19.0655
19.1707
19.2792
19.3909
19.5056
19.6235
19.7442
19.8677
19.9941
20.123
20.2545
20.3884
20.5247
20.6633
20.804
20.9468
21.0915
21.238
21.3862
21.536
21.6873
21.8401
21.9941
22.1493
22.3057
22.4633
22.6221
22.782
22.9431
23.1057
23.2697
23.4355
23.6034
23.7736
23.9466
24.1229
24.3031
24.4878
24.6778
24.874
25.0772
25.2886
25.5092
25.7404
25.9836
26.2399
26.5108
26.7975
27.1015
27.4238
27.7662
28.13
28.5167
28.9282
29.3672
29.8357
30.3363
30.8715
31.4439
32.0563
32.7111
33.411
34.1588
34.9577
35.8123
36.7291
37.7175
38.7901
39.9618
41.2466
42.6493
44.1657
45.7841
47.4914
49.2788
51.1444
53.0918
55.125
57.2432
59.4386
61.6978
64.0035
66.3368
68.6786
71.011
73.3175
75.5838
77.7973
79.9477
82.0264
84.0265
85.9427
87.7707
89.509
91.1534
92.7142
94.1513
95.6531
18.4299
18.5065
18.5865
18.6698
18.7564
18.8462
18.9393
19.0356
19.1349
19.2374
19.3429
19.4513
19.5627
19.6769
19.7939
19.9137
20.0363
20.1615
20.2893
20.4197
20.5526
20.688
20.8259
20.9662
21.1089
21.254
21.4016
21.5517
21.7044
21.8598
22.018
22.1792
22.3436
22.5115
22.6832
22.8591
23.0396
23.2253
23.4167
23.6145
23.8195
24.0324
24.2541
24.4854
24.7278
24.9823
25.2501
25.5323
25.8302
26.1449
26.4775
26.8293
27.2014
27.5951
28.0127
28.4552
28.9246
29.4221
29.9498
30.5097
31.104
31.7345
32.4035
33.1127
33.8644
34.6609
35.5058
36.4042
37.3635
38.394
39.5091
40.7226
42.0434
43.4697
44.9946
46.608
48.2996
50.0638
51.9007
53.8136
55.804
57.8687
59.9992
62.1828
64.4043
66.6473
68.8951
71.132
73.3436
75.5174
77.6421
79.7088
81.7094
83.6381
85.4891
87.2604
88.9454
90.5571
92.0424
93.6261
18.1345
18.195
18.2587
18.3257
18.396
18.4696
18.5465
18.6266
18.71
18.7967
18.8865
18.9796
19.0759
19.1754
19.2781
19.384
19.493
19.6052
19.7205
19.839
19.9607
20.0855
20.2136
20.345
20.4797
20.6178
20.7593
20.9044
21.0533
21.206
21.3629
21.524
21.6898
21.8605
22.0365
22.2181
22.406
22.6006
22.8024
23.0123
23.2309
23.459
23.6977
23.948
24.2111
24.4879
24.7792
25.0862
25.41
25.7515
26.1119
26.4921
26.8932
27.3161
27.7627
28.2324
28.7267
29.2478
29.7977
30.3779
30.9901
31.636
32.3169
33.0344
33.7901
34.5856
35.4235
36.3077
37.2441
38.2405
39.3084
40.461
41.7028
43.0375
44.4645
45.9788
47.5733
49.2377
50.969
52.7684
54.6379
56.5766
58.5802
60.6404
62.7458
64.8834
67.0384
69.1962
71.343
73.4663
75.5547
77.5985
79.5893
81.5202
83.3844
85.1796
86.8961
88.5515
90.0759
91.7376
17.9538
18.0036
18.0565
18.1127
18.1722
18.2349
18.301
18.3704
18.4432
18.5193
18.5989
18.6818
18.7682
18.858
18.9513
19.0481
19.1485
19.2523
19.3598
19.471
19.5858
19.7044
19.8269
19.9533
20.0838
20.2185
20.3575
20.501
20.6492
20.8024
20.9607
21.1245
21.2942
21.47
21.6524
21.8418
22.0389
22.2441
22.458
22.6814
22.9151
23.1597
23.4162
23.6857
23.9682
24.2648
24.5769
24.9054
25.2515
25.6161
26.0001
26.4044
26.8301
27.2778
27.749
28.2438
28.7642
29.3109
29.8851
30.488
31.1208
31.7846
32.4804
33.209
33.9715
34.7689
35.6029
36.4762
37.3929
38.359
39.3834
40.4781
41.6513
42.9061
44.2446
45.6662
47.1625
48.7246
50.3501
52.0387
53.793
55.6112
57.4909
59.4277
61.4142
63.4409
65.4954
67.5649
69.6365
71.6983
73.7388
75.7484
77.7178
79.64
81.5065