/*--------------------------------*- C++ -*----------------------------------*\
  =========                 |
  \\      /  F ield         | OpenFOAM: The Open Source CFD Toolbox
   \\    /   O peration     | Website:  https://openfoam.org
    \\  /    A nd           | Version:  10
     \\/     M anipulation  |
\*---------------------------------------------------------------------------*/
FoamFile
{
    format      ascii;
    class       volScalarField;
    location    "500";
    object      p;
}
// * * * * * * * * * * * * * * * * * * * * * * * * * * * * * * * * * * * * * //

dimensions      [0 2 -2 0 0 0 0];

internalField   nonuniform List<scalar> 
6820
(
7.69656
-3.19327
-6.71252
-7.44617
-7.84756
-8.18622
-8.37883
-8.47547
-8.54111
-8.59582
-8.64033
-8.67639
-8.70731
-8.73511
-8.76054
-8.78403
-8.80601
-8.82684
-8.84675
-8.86591
-8.88444
-8.90245
-8.92002
-8.93718
-8.95397
-8.97035
-8.98627
-9.00162
-9.01606
-9.02948
-9.03998
-9.05037
-9.03991
-14.1914
-10.5135
-9.76864
-8.99946
-8.63475
-8.56847
-8.56687
-8.57088
-8.58916
-8.61859
-8.64963
-8.67861
-8.70582
-8.73166
-8.75607
-8.77909
-8.8009
-8.82172
-8.84171
-8.86098
-8.87966
-8.89782
-8.91555
-8.93288
-8.94984
-8.96645
-8.98265
-8.99841
-9.01353
-9.02812
-9.04114
-9.05559
-9.06464
-12.0428
-8.46871
-8.21344
-8.21541
-8.20925
-8.3078
-8.40861
-8.47653
-8.53123
-8.58133
-8.6249
-8.66183
-8.69409
-8.72314
-8.74965
-8.77407
-8.79685
-8.81835
-8.83881
-8.85843
-8.87737
-8.89574
-8.91363
-8.93111
-8.94823
-8.96501
-8.98144
-8.99753
-9.01321
-9.02866
-9.04349
-9.06003
-9.07488
-9.55369
-8.09458
-8.24531
-8.36148
-8.3462
-8.40163
-8.47235
-8.52121
-8.56144
-8.6006
-8.63667
-8.66867
-8.69763
-8.72443
-8.7494
-8.7728
-8.7949
-8.81594
-8.83611
-8.85555
-8.87438
-8.89271
-8.9106
-8.92813
-8.94535
-8.96228
-8.97895
-8.99542
-9.0117
-9.02803
-9.04442
-9.06229
-9.08049
-9.09425
-8.3969
-8.43741
-8.45368
-8.40952
-8.43729
-8.48976
-8.531
-8.56735
-8.6037
-8.63799
-8.66904
-8.69747
-8.72389
-8.7486
-8.77182
-8.79379
-8.81473
-8.83482
-8.8542
-8.87298
-8.89128
-8.90917
-8.92671
-8.94398
-8.96102
-8.97789
-8.99466
-9.01143
-9.02845
-9.04589
-9.06469
-9.08471
-9.02888
-8.55373
-8.50767
-8.48576
-8.44704
-8.46568
-8.50752
-8.54418
-8.57788
-8.61158
-8.64369
-8.67321
-8.7005
-8.72603
-8.75002
-8.77268
-8.7942
-8.81479
-8.8346
-8.85375
-8.87236
-8.89052
-8.90831
-8.9258
-8.94306
-8.96015
-8.97715
-8.99415
-9.01129
-9.0288
-9.04695
-9.06637
-9.08732
-8.91351
-8.5875
-8.53542
-8.51274
-8.48391
-8.49665
-8.52923
-8.56069
-8.59095
-8.62152
-8.65108
-8.67877
-8.7047
-8.72918
-8.75235
-8.77436
-8.79539
-8.81558
-8.83506
-8.85395
-8.87235
-8.89035
-8.90801
-8.92542
-8.94264
-8.95975
-8.97683
-8.99399
-9.01138
-9.02922
-9.04777
-9.0675
-9.08874
-8.80738
-8.60233
-8.55991
-8.53977
-8.51755
-8.52595
-8.55107
-8.5777
-8.60459
-8.63218
-8.65932
-8.68519
-8.70975
-8.73314
-8.75545
-8.77679
-8.79726
-8.81701
-8.83613
-8.85472
-8.87287
-8.89066
-8.90817
-8.92545
-8.9426
-8.95968
-8.97678
-8.99401
-9.01153
-9.02952
-9.04823
-9.06799
-9.08911
-8.73836
-8.61552
-8.58003
-8.56207
-8.54534
-8.55142
-8.57128
-8.59403
-8.61801
-8.643
-8.66794
-8.6921
-8.71532
-8.73764
-8.75908
-8.77971
-8.79961
-8.81888
-8.83761
-8.85588
-8.87375
-8.89132
-8.90864
-8.92577
-8.94281
-8.95981
-8.97687
-8.9941
-9.01162
-9.02962
-9.04829
-9.06786
-9.08859
-8.69598
-8.6241
-8.59472
-8.57965
-8.56789
-8.57306
-8.58937
-8.60916
-8.63072
-8.65348
-8.67648
-8.69908
-8.72105
-8.74233
-8.76293
-8.78287
-8.8022
-8.82099
-8.83932
-8.85725
-8.87484
-8.89215
-8.90926
-8.92623
-8.94311
-8.95999
-8.97696
-8.9941
-9.01154
-9.02941
-9.04788
-9.0671
-9.08725
-8.67011
-8.62908
-8.60596
-8.59404
-8.58637
-8.59132
-8.60524
-8.6228
-8.64237
-8.66325
-8.68458
-8.70579
-8.72661
-8.74694
-8.76674
-8.78602
-8.8048
-8.82312
-8.84105
-8.85864
-8.87593
-8.89299
-8.90988
-8.92665
-8.94336
-8.96008
-8.97689
-8.99387
-9.01113
-9.02877
-9.04691
-9.06566
-9.08513
-8.65523
-8.63261
-8.6153
-8.60628
-8.60175
-8.60676
-8.61905
-8.63489
-8.65283
-8.67213
-8.69203
-8.712
-8.73178
-8.75124
-8.77031
-8.78896
-8.80721
-8.82509
-8.84263
-8.85988
-8.87688
-8.89368
-8.91033
-8.92688
-8.94338
-8.9599
-8.97651
-8.99327
-9.01027
-9.02759
-9.0453
-9.06349
-9.08221
-8.64783
-8.63588
-8.62349
-8.61698
-8.61481
-8.61997
-8.63109
-8.64556
-8.66214
-8.68008
-8.69873
-8.71761
-8.73646
-8.75511
-8.77349
-8.79156
-8.80931
-8.82676
-8.84392
-8.86084
-8.87754
-8.89407
-8.91046
-8.92678
-8.94305
-8.95933
-8.97569
-8.99217
-9.00885
-9.02577
-9.04299
-9.06056
-9.0785
-8.64537
-8.63941
-8.63093
-8.62658
-8.62615
-8.63146
-8.64169
-8.65502
-8.6704
-8.68716
-8.7047
-8.72259
-8.74057
-8.75848
-8.77622
-8.79373
-8.811
-8.82803
-8.84482
-8.8614
-8.8778
-8.89405
-8.91018
-8.92624
-8.94225
-8.95826
-8.97433
-8.99048
-9.00678
-9.02325
-9.03993
-9.05684
-9.07397
-8.6461
-8.64338
-8.6379
-8.63531
-8.63618
-8.64159
-8.65111
-8.66346
-8.67778
-8.69347
-8.70999
-8.72697
-8.74414
-8.76134
-8.77846
-8.79544
-8.81224
-8.82885
-8.84527
-8.86152
-8.87761
-8.89357
-8.90942
-8.92519
-8.94091
-8.95662
-8.97235
-8.98814
-9.00401
-9.01999
-9.03609
-9.05231
-9.06865
-8.64885
-8.6478
-8.64453
-8.64337
-8.64517
-8.65065
-8.65956
-8.67105
-8.6844
-8.6991
-8.71468
-8.7308
-8.7472
-8.76372
-8.78024
-8.79668
-8.81302
-8.82921
-8.84526
-8.86116
-8.87693
-8.89257
-8.90812
-8.92358
-8.93899
-8.95436
-8.96973
-8.98511
-9.00052
-9.01597
-9.03147
-9.04701
-9.06257
-8.65284
-8.65259
-8.65091
-8.65086
-8.65332
-8.65881
-8.6672
-8.67791
-8.69038
-8.70416
-8.71885
-8.73414
-8.74979
-8.76564
-8.78157
-8.79749
-8.81335
-8.82912
-8.84478
-8.86032
-8.87575
-8.89106
-8.90628
-8.92142
-8.93648
-8.95149
-8.96646
-8.9814
-8.99632
-9.01123
-9.02611
-9.04096
-9.05575
-8.65755
-8.65767
-8.65708
-8.65784
-8.66076
-8.6662
-8.67412
-8.68412
-8.69577
-8.70869
-8.72254
-8.73704
-8.75197
-8.76716
-8.78249
-8.79788
-8.81326
-8.8286
-8.84385
-8.85902
-8.87409
-8.88906
-8.90392
-8.9187
-8.93339
-8.94801
-8.96255
-8.97703
-8.99145
-9.00579
-9.02006
-9.03423
-9.04827
-8.66265
-8.6629
-8.66304
-8.66438
-8.66757
-8.67291
-8.68038
-8.68973
-8.70062
-8.71274
-8.72579
-8.73953
-8.75375
-8.76829
-8.78304
-8.7979
-8.81279
-8.82768
-8.84252
-8.85729
-8.87198
-8.88658
-8.90107
-8.91547
-8.92977
-8.94397
-8.95807
-8.97206
-8.98595
-8.99973
-9.01337
-9.02687
-9.04019
-8.66792
-8.6682
-8.66879
-8.6705
-8.67382
-8.67899
-8.68603
-8.69477
-8.70494
-8.71631
-8.7286
-8.74161
-8.75515
-8.76907
-8.78323
-8.79755
-8.81196
-8.82639
-8.8408
-8.85517
-8.86946
-8.88366
-8.89777
-8.91177
-8.92565
-8.93941
-8.95304
-8.96654
-8.9799
-8.9931
-9.00613
-9.01896
-9.03158
-8.67321
-8.67348
-8.67433
-8.67622
-8.67954
-8.68448
-8.69108
-8.69923
-8.70874
-8.71939
-8.73097
-8.74329
-8.75617
-8.76947
-8.78307
-8.79686
-8.81078
-8.82475
-8.83872
-8.85267
-8.86655
-8.88035
-8.89405
-8.90763
-8.92108
-8.93439
-8.94755
-8.96054
-8.97336
-8.98598
-8.9984
-9.01059
-9.02253
-8.67843
-8.67868
-8.67963
-8.68156
-8.68476
-8.68941
-8.69556
-8.70313
-8.71199
-8.72197
-8.73287
-8.74453
-8.75679
-8.7695
-8.78254
-8.79582
-8.80925
-8.82276
-8.8363
-8.84982
-8.86329
-8.87667
-8.88995
-8.9031
-8.91611
-8.92896
-8.94163
-8.95412
-8.96639
-8.97845
-8.99026
-9.00182
-9.01311
-8.68354
-8.68376
-8.6847
-8.68653
-8.6895
-8.69378
-8.69945
-8.70645
-8.71468
-8.72401
-8.73428
-8.74531
-8.75697
-8.76911
-8.78163
-8.79441
-8.80736
-8.82043
-8.83353
-8.84663
-8.85968
-8.87265
-8.88551
-8.89823
-8.91079
-8.92317
-8.93536
-8.94733
-8.95907
-8.97057
-8.9818
-8.99274
-9.00339
-8.68851
-8.68871
-8.68954
-8.69114
-8.69377
-8.69761
-8.70274
-8.70916
-8.71678
-8.72549
-8.73514
-8.74558
-8.75668
-8.76829
-8.7803
-8.7926
-8.80511
-8.81774
-8.83042
-8.84311
-8.85575
-8.8683
-8.88074
-8.89303
-8.90515
-8.91707
-8.92877
-8.94024
-8.95146
-8.9624
-8.97306
-8.98341
-8.99345
-8.69337
-8.69354
-8.69416
-8.69541
-8.69758
-8.70088
-8.70543
-8.71123
-8.71823
-8.72634
-8.7354
-8.74529
-8.75586
-8.76698
-8.77852
-8.79038
-8.80246
-8.81467
-8.82696
-8.83924
-8.85149
-8.86364
-8.87567
-8.88753
-8.89921
-8.91068
-8.92191
-8.93289
-8.94359
-8.954
-8.9641
-8.97389
-8.98334
-8.69816
-8.69831
-8.69861
-8.69934
-8.70091
-8.70357
-8.70746
-8.71261
-8.71899
-8.7265
-8.73502
-8.74438
-8.75447
-8.76513
-8.77624
-8.78769
-8.79938
-8.81121
-8.82312
-8.83503
-8.8469
-8.85866
-8.87029
-8.88175
-8.89301
-8.90404
-8.91481
-8.92531
-8.93552
-8.94541
-8.95498
-8.96421
-8.9731
-8.70297
-8.7031
-8.70294
-8.70297
-8.70376
-8.70564
-8.70878
-8.71324
-8.71899
-8.72592
-8.7339
-8.74279
-8.75244
-8.76269
-8.77342
-8.7845
-8.79583
-8.80732
-8.81888
-8.83045
-8.84196
-8.85337
-8.86463
-8.8757
-8.88655
-8.89716
-8.90749
-8.91753
-8.92726
-8.93666
-8.94572
-8.95443
-8.96278
-8.70797
-8.70807
-8.70726
-8.70631
-8.7061
-8.70704
-8.70932
-8.71302
-8.71811
-8.72448
-8.73197
-8.74043
-8.74968
-8.75958
-8.76998
-8.78075
-8.79177
-8.80296
-8.81421
-8.82547
-8.83666
-8.84773
-8.85864
-8.86935
-8.87983
-8.89003
-8.89995
-8.90956
-8.91884
-8.92777
-8.93635
-8.94456
-8.9524
-8.71342
-8.71346
-8.71169
-8.70939
-8.70788
-8.70766
-8.70894
-8.71182
-8.71624
-8.72206
-8.72911
-8.73718
-8.74611
-8.75572
-8.76585
-8.77636
-8.78713
-8.79806
-8.80906
-8.82004
-8.83095
-8.84172
-8.85232
-8.86269
-8.87282
-8.88265
-8.89219
-8.90139
-8.91024
-8.91874
-8.92686
-8.9346
-8.94197
-8.71975
-8.71968
-8.71643
-8.71221
-8.709
-8.70735
-8.70748
-8.70947
-8.71321
-8.71852
-8.72517
-8.73293
-8.74161
-8.751
-8.76092
-8.77124
-8.78182
-8.79255
-8.80333
-8.81409
-8.82475
-8.83527
-8.84559
-8.85566
-8.86547
-8.87497
-8.88415
-8.89298
-8.90145
-8.90954
-8.91724
-8.92455
-8.93147
-8.72771
-8.72734
-8.72173
-8.71476
-8.7093
-8.70588
-8.70466
-8.7057
-8.70878
-8.71362
-8.71995
-8.72749
-8.736
-8.74525
-8.75505
-8.76525
-8.7757
-8.78628
-8.79691
-8.80749
-8.81796
-8.82826
-8.83835
-8.84817
-8.8577
-8.8669
-8.87577
-8.88427
-8.89239
-8.90012
-8.90744
-8.91437
-8.92088
-8.7386
-8.73741
-8.7279
-8.71692
-8.70849
-8.70287
-8.70011
-8.70015
-8.70261
-8.70707
-8.71317
-8.72059
-8.72902
-8.73823
-8.74799
-8.75815
-8.76854
-8.77906
-8.78959
-8.80006
-8.81039
-8.82053
-8.83043
-8.84005
-8.84936
-8.85832
-8.86693
-8.87515
-8.88297
-8.89039
-8.8974
-8.90398
-8.91016
-8.75498
-8.7513
-8.73492
-8.71823
-8.70605
-8.69777
-8.69329
-8.69234
-8.69425
-8.69842
-8.7044
-8.7118
-8.72028
-8.72954
-8.73937
-8.74958
-8.76002
-8.77056
-8.78109
-8.79153
-8.80181
-8.81187
-8.82167
-8.83117
-8.84032
-8.84912
-8.85753
-8.86555
-8.87315
-8.88033
-8.88707
-8.89339
-8.89927
-8.78301
-8.77185
-8.74227
-8.71714
-8.70039
-8.68912
-8.68294
-8.68122
-8.68281
-8.68689
-8.69294
-8.70049
-8.70914
-8.71859
-8.7286
-8.73897
-8.74954
-8.7602
-8.77082
-8.78132
-8.79165
-8.80173
-8.81152
-8.82099
-8.83011
-8.83884
-8.84717
-8.85508
-8.86257
-8.86961
-8.87621
-8.88237
-8.88809
-8.83501
-8.80676
-8.75306
-8.71425
-8.69008
-8.67435
-8.66634
-8.66427
-8.66606
-8.67066
-8.67742
-8.68575
-8.69517
-8.70532
-8.71597
-8.7269
-8.73796
-8.74901
-8.75996
-8.77074
-8.78126
-8.79149
-8.80138
-8.8109
-8.82002
-8.82873
-8.837
-8.84483
-8.85221
-8.85913
-8.86558
-8.87157
-8.8771
-8.91416
-8.85134
-8.76917
-8.71843
-8.68201
-8.65587
-8.64252
-8.63775
-8.63777
-8.64144
-8.64809
-8.65687
-8.66706
-8.67822
-8.69
-8.70214
-8.71444
-8.72671
-8.73885
-8.75075
-8.76234
-8.77356
-8.78437
-8.79474
-8.80464
-8.81405
-8.82296
-8.83136
-8.83924
-8.8466
-8.85344
-8.85976
-8.86556
-9.05839
-8.82519
-8.69976
-8.69265
-8.68275
-8.66844
-8.66487
-8.66644
-8.66859
-8.67175
-8.67656
-8.68271
-8.68986
-8.69783
-8.70647
-8.71563
-8.72512
-8.73482
-8.74461
-8.75439
-8.76407
-8.77358
-8.78285
-8.79185
-8.80053
-8.80886
-8.8168
-8.82434
-8.83146
-8.83815
-8.84441
-8.85023
-8.85563
-10.0072
-8.77385
-8.18256
-8.10982
-8.12886
-8.16993
-8.22791
-8.28698
-8.34119
-8.39116
-8.43723
-8.47904
-8.51671
-8.55071
-8.58153
-8.60951
-8.63499
-8.65826
-8.67956
-8.69911
-8.7171
-8.73368
-8.74897
-8.76309
-8.77613
-8.78817
-8.79927
-8.8095
-8.81889
-8.82749
-8.83533
-8.84241
-8.84874
-13.7731
-11.5625
-10.5495
-9.92986
-9.5121
-9.26406
-9.10112
-8.97734
-8.88513
-8.82134
-8.77862
-8.75026
-8.7322
-8.72194
-8.71748
-8.71723
-8.72002
-8.72498
-8.73149
-8.73905
-8.7473
-8.75595
-8.76478
-8.77363
-8.78237
-8.7909
-8.79914
-8.80704
-8.81457
-8.82168
-8.82837
-8.83465
-8.8405
0.0868345
-4
-6.11174
-6.87486
-7.30611
-7.66662
-7.93457
-8.11353
-8.23989
-8.33806
-8.41609
-8.47773
-8.52717
-8.568
-8.60253
-8.63219
-8.65798
-8.68072
-8.701
-8.71925
-8.73579
-8.75086
-8.76466
-8.77731
-8.78895
-8.79965
-8.80949
-8.81853
-8.82681
-8.83438
-8.84127
-8.8475
-8.85312
-9.05181
-8.819
-9.12971
-9.42466
-9.54899
-9.59166
-9.60896
-9.61148
-9.60619
-9.6028
-9.6092
-9.62862
-9.66107
-9.70555
-9.7603
-9.82298
-9.89086
-9.96119
-10.0313
-10.0984
-10.1607
-10.216
-10.2628
-10.2998
-10.3262
-10.3413
-10.3449
-10.337
-10.3176
-10.287
-10.2454
-10.1927
-10.1291
-10.0546
-9.96909
-9.87235
-9.76421
-9.64438
-9.51237
-9.36771
-9.21
-9.0388
-8.85368
-8.65417
-8.43976
-8.21001
-7.96463
-7.70333
-7.42584
-7.13221
-6.82278
-6.49812
-6.15917
-5.80722
-5.4439
-5.07106
-4.69082
-4.30551
-3.91768
-3.53013
-3.14592
-2.76837
-2.40103
-2.04765
-1.71209
-1.39831
-1.11045
-0.853069
-0.631227
-0.450176
-0.313742
-0.221643
-0.167024
-0.137581
-0.119883
-0.10385
-0.0849886
-0.0631887
-0.0402268
-0.0179862
0.00211931
0.0191958
0.0329508
0.0433967
0.0507558
0.0553133
0.0574345
0.0574602
0.0557527
0.0526168
0.0483274
0.0431603
0.0372724
0.0310646
0.0242746
0.018212
0.0108154
0.00769349
-0.00166155
0.00661277
-9.0996
-9.09911
-9.29983
-9.4541
-9.49707
-9.50052
-9.50208
-9.50292
-9.50427
-9.5122
-9.53092
-9.56117
-9.60207
-9.65232
-9.71043
-9.7747
-9.84295
-9.91294
-9.98223
-10.0484
-10.1097
-10.1642
-10.2102
-10.2465
-10.2724
-10.2871
-10.2904
-10.2823
-10.2628
-10.2321
-10.1903
-10.1375
-10.0737
-9.99905
-9.91333
-9.81638
-9.70799
-9.58788
-9.45561
-9.31075
-9.15291
-8.98166
-8.79659
-8.59726
-8.38319
-8.15397
-7.90935
-7.64905
-7.37289
-7.08094
-6.77358
-6.4514
-6.1153
-5.76658
-5.40676
-5.03766
-4.66132
-4.28
-3.89618
-3.5126
-3.13223
-2.7583
-2.39427
-2.0438
-1.71068
-1.39884
-1.11238
-0.855727
-0.633585
-0.450484
-0.309381
-0.209593
-0.145291
-0.106601
-0.0821836
-0.0628895
-0.0439614
-0.0243055
-0.00467049
0.0138052
0.0301575
0.0437465
0.0543728
0.0620716
0.0670466
0.0695536
0.069915
0.0684345
0.0654315
0.0611805
0.0559225
0.049911
0.0432744
0.036397
0.0289994
0.0223468
0.014429
0.0105708
0.000818323
0.00733277
-9.1082
-9.12555
-9.21722
-9.3302
-9.40122
-9.44161
-9.46962
-9.48715
-9.49683
-9.50591
-9.52032
-9.54306
-9.57546
-9.61757
-9.66869
-9.72732
-9.79134
-9.85826
-9.92538
-9.99019
-10.0503
-10.1037
-10.1488
-10.1846
-10.2101
-10.2246
-10.228
-10.2199
-10.2005
-10.1699
-10.1282
-10.0754
-10.0117
-9.93699
-9.85118
-9.75413
-9.64561
-9.52534
-9.39294
-9.24801
-9.09017
-8.91901
-8.73415
-8.53515
-8.3216
-8.09312
-7.84945
-7.59038
-7.31578
-7.02576
-6.72068
-6.40116
-6.0681
-5.72272
-5.36652
-5.00124
-4.62888
-4.25164
-3.87196
-3.4925
-3.11616
-2.7461
-2.38567
-2.03842
-1.70808
-1.39852
-1.11382
-0.858266
-0.636189
-0.451379
-0.305855
-0.198522
-0.124648
-0.0765734
-0.0450612
-0.0221333
-0.00284088
0.014874
0.0312989
0.0460595
0.058665
0.068745
0.0762073
0.0811179
0.0836673
0.0840839
0.0826502
0.079632
0.0753073
0.0699183
0.0636731
0.0568002
0.0494017
0.0418384
0.0338249
0.0265536
0.018117
0.0134453
0.00333778
0.0079203
-9.11021
-9.13948
-9.21297
-9.31702
-9.39179
-9.43065
-9.45267
-9.46665
-9.47619
-9.48672
-9.5029
-9.52694
-9.55947
-9.60016
-9.64813
-9.702
-9.76012
-9.82046
-9.88099
-9.93974
-9.99451
-10.0436
-10.0856
-10.1192
-10.1432
-10.157
-10.1599
-10.1516
-10.1322
-10.1017
-10.0601
-10.0074
-9.94376
-9.86908
-9.78328
-9.68619
-9.57762
-9.45731
-9.32489
-9.18001
-9.02228
-8.85135
-8.66683
-8.46832
-8.25544
-8.02785
-7.78531
-7.52764
-7.25477
-6.96683
-6.6642
-6.34749
-6.01759
-5.67567
-5.32319
-4.96185
-4.5936
-4.22059
-3.84522
-3.47008
-3.09801
-2.73207
-2.3755
-2.03177
-1.70449
-1.3975
-1.11478
-0.860494
-0.638651
-0.452404
-0.303007
-0.189131
-0.10694
-0.0504768
-0.0124418
0.0140052
0.0339118
0.0501336
0.0638582
0.0753968
0.0846993
0.0916517
0.0962731
0.098666
0.0990165
0.0975317
0.0944613
0.0900378
0.0845034
0.0780708
0.0709192
0.0632526
0.0551514
0.0469492
0.0383638
0.0304972
0.0215787
0.0160746
0.00566332
0.0082265
-9.11359
-9.14983
-9.21156
-9.29239
-9.35484
-9.39175
-9.41671
-9.43661
-9.45296
-9.46895
-9.4883
-9.51319
-9.54457
-9.58259
-9.62681
-9.67627
-9.72954
-9.78485
-9.84027
-9.89392
-9.94391
-9.98859
-10.0267
-10.0569
-10.0782
-10.0897
-10.0909
-10.0816
-10.0614
-10.0304
-9.98846
-9.93562
-9.87185
-9.79706
-9.71114
-9.61395
-9.5053
-9.38493
-9.25252
-9.10772
-8.95018
-8.77954
-8.59544
-8.39751
-8.18541
-7.95881
-7.71751
-7.46137
-7.19036
-6.90463
-6.60457
-6.29079
-5.96417
-5.62585
-5.27726
-4.92005
-4.55611
-4.18757
-3.81675
-3.4462
-3.07866
-2.7171
-2.36468
-2.02472
-1.70077
-1.39654
-1.11593
-0.862935
-0.641249
-0.45352
-0.300493
-0.180779
-0.091229
-0.0273067
0.0165861
0.0463047
0.0669399
0.0820004
0.093441
0.102178
0.108564
0.112724
0.114789
0.114904
0.113256
0.110038
0.105471
0.0997597
0.0931145
0.0857216
0.0777343
0.0693335
0.060581
0.0517804
0.0426606
0.0342177
0.0248495
0.0184915
0.00783076
0.00827729
-9.11581
-9.15327
-9.20578
-9.27071
-9.32666
-9.36552
-9.39389
-9.41673
-9.43575
-9.45368
-9.47383
-9.49837
-9.52833
-9.56397
-9.60497
-9.65048
-9.69923
-9.74964
-9.80004
-9.84872
-9.89401
-9.93438
-9.96854
-9.99531
-10.0137
-10.0228
-10.0221
-10.0112
-9.98987
-9.9579
-9.91526
-9.86185
-9.79762
-9.72244
-9.63621
-9.53877
-9.42992
-9.30941
-9.17695
-9.03219
-8.8748
-8.70445
-8.52078
-8.32347
-8.11218
-7.88663
-7.64665
-7.39213
-7.12307
-6.83966
-6.54229
-6.23159
-5.9084
-5.57387
-5.22936
-4.87649
-4.51711
-4.15329
-3.78729
-3.42159
-3.05886
-2.70195
-2.35391
-2.01799
-1.69759
-1.39632
-1.11793
-0.866232
-0.644639
-0.45539
-0.298909
-0.173822
-0.0775977
-0.00695531
0.0422673
0.0750807
0.0965721
0.110782
0.12032
0.12664
0.130461
0.132134
0.131903
0.129958
0.126494
0.121694
0.115758
0.108866
0.101199
0.0929219
0.0841632
0.0750822
0.0657248
0.0563621
0.0467421
0.0377389
0.0279515
0.0207175
0.00986911
0.00809443
-9.11655
-9.15306
-9.19932
-9.25383
-9.30379
-9.34191
-9.37113
-9.3953
-9.41626
-9.43615
-9.45753
-9.48229
-9.51136
-9.54507
-9.58318
-9.62499
-9.66942
-9.71513
-9.76064
-9.80443
-9.84501
-9.88098
-9.91111
-9.93428
-9.94951
-9.95601
-9.95313
-9.94045
-9.91764
-9.88448
-9.84086
-9.78664
-9.72173
-9.64599
-9.5593
-9.46147
-9.35232
-9.23158
-9.09898
-8.95421
-8.79693
-8.62684
-8.44361
-8.24691
-8.03647
-7.81203
-7.57345
-7.32064
-7.05364
-6.77268
-6.47814
-6.17066
-5.85109
-5.52051
-5.18028
-4.83196
-4.47737
-4.1185
-3.75756
-3.39694
-3.03923
-2.68719
-2.34377
-2.01208
-1.69542
-1.39726
-1.1212
-0.870869
-0.649393
-0.458686
-0.298943
-0.168891
-0.066596
0.0101505
0.0643106
0.100148
0.122689
0.136394
0.14443
0.148726
0.15034
0.149838
0.147574
0.14379
0.138697
0.132471
0.125296
0.117332
0.108737
0.0996528
0.0901892
0.0804839
0.0705701
0.0606835
0.0505987
0.0410538
0.0308787
0.0227525
0.0117825
0.00768708
-9.11604
-9.1509
-9.19242
-9.23932
-9.28376
-9.32022
-9.34972
-9.37489
-9.39729
-9.41858
-9.44077
-9.46546
-9.49354
-9.52534
-9.5607
-9.59905
-9.63947
-9.6808
-9.72174
-9.76092
-9.79699
-9.82867
-9.8548
-9.87433
-9.88631
-9.88996
-9.88465
-9.86991
-9.84537
-9.81078
-9.76595
-9.71072
-9.64494
-9.56848
-9.48117
-9.38283
-9.27325
-9.15221
-9.01941
-8.87457
-8.71738
-8.54754
-8.36475
-8.1687
-7.95916
-7.73589
-7.49878
-7.24779
-6.98298
-6.70458
-6.41301
-6.1089
-5.79308
-5.46663
-5.13084
-4.78726
-4.43763
-4.08389
-3.72819
-3.37283
-3.02032
-2.67333
-2.33468
-2.00739
-1.69461
-1.39969
-1.12608
-0.87721
-0.655912
-0.463842
-0.301062
-0.166477
-0.0586877
0.023624
0.0824229
0.121295
0.145136
0.158716
0.165669
0.168346
0.168121
0.165762
0.161737
0.156344
0.149813
0.142322
0.134044
0.125122
0.115696
0.105886
0.0957875
0.0855165
0.0750971
0.0647276
0.0542153
0.0441506
0.0336207
0.024593
0.0135708
0.00706296
-9.11451
-9.14745
-9.18508
-9.22624
-9.26604
-9.30052
-9.32974
-9.35532
-9.3785
-9.4006
-9.42321
-9.44763
-9.47467
-9.50462
-9.53739
-9.5725
-9.60917
-9.64638
-9.683
-9.7178
-9.74956
-9.7771
-9.79933
-9.81526
-9.82399
-9.82476
-9.81692
-9.79999
-9.77358
-9.73738
-9.69118
-9.63476
-9.56797
-9.49064
-9.40258
-9.30362
-9.19355
-9.07212
-8.93908
-8.79415
-8.63703
-8.46744
-8.2851
-8.08974
-7.88115
-7.65912
-7.42357
-7.17448
-6.91195
-6.63623
-6.34775
-6.04713
-5.73518
-5.41297
-5.08176
-4.74304
-4.3985
-4.05003
-3.69969
-3.34973
-3.00256
-2.66073
-2.32699
-2.00421
-1.69544
-1.4039
-1.13287
-0.885532
-0.664482
-0.471172
-0.305627
-0.166952
-0.0542142
0.0331848
0.0963913
0.138366
0.163802
0.177662
0.183966
0.185439
0.183746
0.179854
0.174343
0.167574
0.159801
0.151212
0.14197
0.132207
0.122049
0.111599
0.100937
0.0901616
0.0792895
0.0684801
0.0575794
0.0470201
0.0361692
0.0262382
0.0152337
0.00623188
-9.11207
-9.14305
-9.17741
-9.2141
-9.25003
-9.28242
-9.31089
-9.33637
-9.35983
-9.38229
-9.40498
-9.42894
-9.45485
-9.48298
-9.51325
-9.54529
-9.5784
-9.61173
-9.64424
-9.67487
-9.70249
-9.72602
-9.74446
-9.75686
-9.76236
-9.76024
-9.74984
-9.73067
-9.7023
-9.66441
-9.61674
-9.55905
-9.49116
-9.41288
-9.32403
-9.22439
-9.11378
-8.99195
-8.85864
-8.71361
-8.55656
-8.38724
-8.20539
-8.01077
-7.80318
-7.58246
-7.34854
-7.10144
-6.84128
-6.56833
-6.28302
-5.98597
-5.67799
-5.36011
-5.03357
-4.6998
-4.36045
-4.01734
-3.67247
-3.32799
-2.98624
-2.64968
-2.32093
-2.00278
-1.69815
-1.41011
-1.14176
-0.89604
-0.675333
-0.480957
-0.312949
-0.170623
-0.0534468
0.0386147
0.106049
0.151238
0.178594
0.193165
0.199266
0.199956
0.197173
0.192072
0.185354
0.177444
0.16863
0.159109
0.149045
0.138563
0.127774
0.11677
0.10562
0.0944029
0.0831325
0.0719285
0.0606796
0.0496544
0.0385166
0.0276881
0.0167702
0.00520474
-9.1088
-9.13787
-9.16942
-9.20254
-9.23521
-9.2655
-9.29291
-9.31794
-9.34128
-9.36371
-9.38615
-9.40944
-9.43412
-9.46043
-9.4883
-9.51739
-9.54714
-9.57677
-9.60539
-9.63202
-9.65566
-9.67533
-9.69007
-9.699
-9.70132
-9.69631
-9.68334
-9.66189
-9.63152
-9.59188
-9.54268
-9.48368
-9.41466
-9.3354
-9.24572
-9.1454
-9.03424
-8.91201
-8.77847
-8.63335
-8.47642
-8.30741
-8.1261
-7.93227
-7.72575
-7.5064
-7.27419
-7.02916
-6.77145
-6.50134
-6.21928
-5.92588
-5.62194
-5.30847
-4.98666
-4.65791
-4.32382
-3.98613
-3.64678
-3.30786
-2.9716
-2.64037
-2.31671
-2.0033
-1.70293
-1.41849
-1.1529
-0.908892
-0.688668
-0.493436
-0.323287
-0.177743
-0.0566042
0.0397387
0.111256
0.159797
0.189424
0.205155
0.211517
0.211854
0.20836
0.202381
0.194736
0.185924
0.176269
0.165987
0.155246
0.144166
0.13285
0.121382
0.109819
0.0982254
0.0866128
0.0750614
0.0635058
0.0520467
0.0406564
0.0289444
0.0181796
0.00399472
-9.10472
-9.132
-9.16108
-9.19126
-9.22115
-9.24943
-9.2756
-9.2999
-9.32278
-9.34485
-9.36678
-9.38921
-9.41257
-9.43703
-9.46256
-9.48884
-9.51537
-9.54149
-9.56639
-9.58921
-9.60903
-9.62496
-9.63611
-9.64166
-9.64084
-9.63296
-9.6174
-9.59365
-9.56125
-9.51983
-9.46908
-9.40874
-9.33855
-9.25831
-9.1678
-9.06681
-8.95513
-8.83253
-8.69878
-8.55364
-8.39687
-8.22823
-8.04753
-7.85456
-7.64918
-7.4313
-7.20088
-6.95799
-6.70281
-6.43562
-6.15688
-5.86719
-5.56735
-5.25833
-4.94131
-4.61764
-4.28884
-3.95663
-3.62285
-3.28952
-2.9588
-2.63297
-2.31449
-2.0059
-1.70986
-1.42911
-1.16638
-0.924217
-0.704644
-0.508797
-0.336843
-0.188505
-0.0638506
0.0364252
0.111902
0.163943
0.196203
0.21356
0.22066
0.221086
0.21727
0.210746
0.202459
0.192984
0.182692
0.171823
0.16055
0.148996
0.13726
0.125418
0.113519
0.101615
0.0897177
0.0778679
0.0660483
0.0541907
0.0425825
0.0300096
0.0194592
0.0026153
-9.09986
-9.12544
-9.15237
-9.18005
-9.20754
-9.23391
-9.25875
-9.2821
-9.30428
-9.32572
-9.3469
-9.3683
-9.39024
-9.41286
-9.43608
-9.45965
-9.48311
-9.50588
-9.52724
-9.54641
-9.56257
-9.5749
-9.58257
-9.58482
-9.58092
-9.5702
-9.55207
-9.52601
-9.49156
-9.44835
-9.39603
-9.33432
-9.26297
-9.18175
-9.09042
-8.98878
-8.8766
-8.75367
-8.61977
-8.47465
-8.31811
-8.14992
-7.9699
-7.77788
-7.57373
-7.35738
-7.12884
-6.88818
-6.6356
-6.3714
-6.09604
-5.81013
-5.51444
-5.20993
-4.89774
-4.57917
-4.25571
-3.929
-3.60082
-3.27313
-2.948
-2.62763
-2.31438
-2.01067
-1.71903
-1.44205
-1.18229
-0.942106
-0.723375
-0.527177
-0.353764
-0.203045
-0.0752951
0.0285879
0.107903
0.163585
0.198838
0.218296
0.226627
0.227599
0.223862
0.217134
0.208492
0.198599
0.187877
0.176593
0.164937
0.153036
0.140987
0.128861
0.116706
0.10456
0.0924364
0.0803389
0.0682988
0.0560819
0.0442901
0.0308875
0.0206077
0.00108274
-9.09422
-9.11823
-9.14322
-9.16875
-9.19413
-9.21872
-9.24216
-9.26443
-9.28572
-9.3063
-9.32655
-9.34677
-9.36722
-9.38797
-9.40894
-9.42989
-9.45041
-9.46998
-9.48796
-9.50365
-9.51631
-9.52517
-9.52949
-9.52853
-9.52162
-9.50812
-9.48744
-9.45908
-9.42258
-9.37755
-9.32366
-9.26059
-9.18807
-9.10587
-9.01374
-8.91147
-8.79884
-8.67563
-8.54162
-8.39659
-8.24035
-8.07268
-7.89342
-7.70243
-7.49959
-7.28488
-7.05829
-6.81994
-6.57004
-6.3089
-6.03699
-5.7549
-5.46341
-5.16345
-4.85612
-4.54269
-4.22458
-3.90339
-3.58085
-3.25882
-2.93931
-2.62444
-2.31645
-2.01767
-1.73049
-1.45737
-1.20068
-0.962622
-0.744935
-0.548661
-0.374138
-0.221438
-0.0909911
0.0161876
0.0992136
0.158653
0.197239
0.219271
0.229339
0.231328
0.228084
0.221505
0.212806
0.202743
0.1918
0.18028
0.16839
0.156269
0.144016
0.1317
0.119368
0.107049
0.0947585
0.0824657
0.0702496
0.057716
0.0457748
0.0315829
0.0216218
-0.000586962
-9.08783
-9.11036
-9.13363
-9.15725
-9.18076
-9.20367
-9.22571
-9.2468
-9.26704
-9.28661
-9.30575
-9.3247
-9.34358
-9.36245
-9.38121
-9.39962
-9.41733
-9.43385
-9.44861
-9.46098
-9.47029
-9.47583
-9.47691
-9.47286
-9.46302
-9.44679
-9.42361
-9.39298
-9.35445
-9.30762
-9.25214
-9.18771
-9.11403
-9.03087
-8.93796
-8.8351
-8.72205
-8.5986
-8.46454
-8.31967
-8.16379
-7.99672
-7.8183
-7.62842
-7.42699
-7.21398
-6.98943
-6.75347
-6.50632
-6.24831
-5.9799
-5.70169
-5.41444
-5.11906
-4.81661
-4.50833
-4.19561
-3.87996
-3.56306
-3.24672
-2.93285
-2.62349
-2.32078
-2.02696
-1.74429
-1.47509
-1.22158
-0.9858
-0.769366
-0.573292
-0.398002
-0.243704
-0.110937
-0.000766155
0.0858241
0.149097
0.19132
0.216382
0.228696
0.232193
0.229874
0.223811
0.215362
0.205387
0.194439
0.182863
0.170893
0.15868
0.146334
0.133923
0.121495
0.109073
0.0966759
0.0842416
0.0718951
0.0590907
0.047034
0.0321022
0.0225006
-0.00237445
-9.08071
-9.10187
-9.12356
-9.14548
-9.16729
-9.18863
-9.20927
-9.22911
-9.2482
-9.26664
-9.28457
-9.30213
-9.31941
-9.3364
-9.35299
-9.36895
-9.38396
-9.39756
-9.40926
-9.41847
-9.42458
-9.42695
-9.42492
-9.41788
-9.40521
-9.38633
-9.36071
-9.32785
-9.28732
-9.23871
-9.18167
-9.11589
-9.04107
-8.95696
-8.8633
-8.75987
-8.64644
-8.52281
-8.38876
-8.24411
-8.08866
-7.92226
-7.74477
-7.55608
-7.35613
-7.14491
-6.92248
-6.68898
-6.44465
-6.18982
-5.92496
-5.65068
-5.3677
-5.07692
-4.77938
-4.47627
-4.16893
-3.85883
-3.54758
-3.23692
-2.92868
-2.62484
-2.32744
-2.03859
-1.76048
-1.49526
-1.24502
-1.01165
-0.79667
-0.601069
-0.42534
-0.269808
-0.135078
-0.0222127
0.0677715
0.134906
0.181013
0.209526
0.22459
0.230095
0.229153
0.223991
0.216115
0.206497
0.195766
0.184321
0.172427
0.160256
0.147928
0.135518
0.123077
0.110623
0.0981809
0.0856607
0.07323
0.0602043
0.0480658
0.0324527
0.0232418
-0.00426109
-9.0729
-9.09278
-9.11303
-9.13341
-9.15366
-9.17351
-9.19277
-9.21133
-9.2292
-9.24641
-9.26304
-9.27916
-9.2948
-9.30991
-9.32438
-9.33798
-9.35039
-9.36122
-9.37001
-9.37621
-9.37928
-9.37861
-9.37362
-9.36371
-9.34831
-9.32687
-9.29887
-9.26384
-9.22135
-9.171
-9.11243
-9.04533
-8.96939
-8.88436
-8.78998
-8.68602
-8.57226
-8.44849
-8.31452
-8.17014
-8.0152
-7.84954
-7.67304
-7.48562
-7.28723
-7.07787
-6.85764
-6.62667
-6.38522
-6.13363
-5.87238
-5.60205
-5.32337
-5.03721
-4.7446
-4.44666
-4.1447
-3.84014
-3.53452
-3.22953
-2.92692
-2.62858
-2.33647
-2.05262
-1.77907
-1.51787
-1.27098
-1.04016
-0.826824
-0.63195
-0.456091
-0.299662
-0.163305
-0.048039
0.0451424
0.116106
0.166276
0.198608
0.2169
0.224918
0.22582
0.221968
0.215007
0.206029
0.195749
0.18463
0.172975
0.160982
0.148788
0.136477
0.124106
0.111692
0.0992678
0.0867185
0.074251
0.0610568
0.0488702
0.0326431
0.0238464
-0.00622445
-9.06448
-9.08315
-9.10205
-9.12101
-9.13982
-9.15826
-9.17616
-9.19343
-9.21003
-9.22595
-9.24122
-9.25586
-9.26984
-9.2831
-9.29549
-9.30681
-9.31674
-9.32493
-9.33095
-9.3343
-9.33448
-9.33093
-9.32311
-9.31046
-9.29244
-9.26853
-9.23824
-9.20111
-9.15672
-9.10467
-9.04462
-8.97623
-8.89922
-8.8133
-8.71824
-8.6138
-8.49975
-8.3759
-8.24205
-8.09802
-7.94365
-7.7788
-7.60337
-7.41729
-7.22053
-7.01311
-6.79512
-6.56675
-6.32824
-6.07995
-5.82233
-5.55599
-5.28163
-5.00011
-4.71241
-4.41964
-4.12304
-3.824
-3.524
-3.22464
-2.92764
-2.63478
-2.34795
-2.06907
-1.80009
-1.54294
-1.29946
-1.07129
-0.859767
-0.665853
-0.490147
-0.33313
-0.195457
-0.0780778
0.0180795
0.092781
0.147111
0.183555
0.20551
0.216532
0.219759
0.217644
0.211962
0.203925
0.194347
0.183759
0.172513
0.16084
0.148899
0.136788
0.124573
0.112274
0.0999308
0.0874109
0.0749553
0.0616484
0.0494482
0.0326833
0.0243146
-0.0082429
-9.05549
-9.07301
-9.09067
-9.10831
-9.12577
-9.14286
-9.15944
-9.17541
-9.19072
-9.20532
-9.21919
-9.23232
-9.24464
-9.25607
-9.26645
-9.27556
-9.28313
-9.28881
-9.29219
-9.29285
-9.29028
-9.284
-9.27349
-9.25823
-9.23771
-9.21145
-9.17896
-9.13981
-9.09358
-9.0399
-8.97841
-8.90879
-8.83074
-8.744
-8.6483
-8.54343
-8.42915
-8.30527
-8.1716
-8.02797
-7.87424
-7.71027
-7.53599
-7.35132
-7.15626
-6.95084
-6.73518
-6.50945
-6.27393
-6.02897
-5.77503
-5.5127
-5.24267
-4.96578
-4.68299
-4.39536
-4.1041
-3.81054
-3.51611
-3.22236
-2.93091
-2.64349
-2.3619
-2.08797
-1.82354
-1.57045
-1.33041
-1.10498
-0.895415
-0.702663
-0.527357
-0.370028
-0.231324
-0.112108
-0.0132154
0.0650746
0.123573
0.164333
0.190318
0.204805
0.210835
0.210901
0.206883
0.200113
0.191504
0.181667
0.171011
0.159809
0.148246
0.136439
0.12447
0.112362
0.100165
0.087735
0.0753414
0.061981
0.0498023
0.0325843
0.024651
-0.0102907
-9.04601
-9.06245
-9.07894
-9.09534
-9.11151
-9.12731
-9.14261
-9.1573
-9.1713
-9.18456
-9.19702
-9.20863
-9.21931
-9.22895
-9.23737
-9.24437
-9.24968
-9.25296
-9.25386
-9.25196
-9.24681
-9.23794
-9.22488
-9.20715
-9.18426
-9.15575
-9.12116
-9.08008