/*--------------------------------*- C++ -*----------------------------------*\
  =========                 |
  \\      /  F ield         | OpenFOAM: The Open Source CFD Toolbox
   \\    /   O peration     | Website:  https://openfoam.org
    \\  /    A nd           | Version:  10
     \\/     M anipulation  |
\*---------------------------------------------------------------------------*/
FoamFile
{
    format      ascii;
    class       surfaceScalarField;
    location    "500";
    object      phi;
}
// * * * * * * * * * * * * * * * * * * * * * * * * * * * * * * * * * * * * * //

dimensions      [0 3 -1 0 0 0 0];

internalField   nonuniform List<scalar> 
13452
(
6.29962e-05
-2.72777e-06
6.37619e-05
-7.65663e-07
6.45327e-05
-7.70842e-07
6.38576e-05
6.75143e-07
6.25163e-05
1.34127e-06
6.10817e-05
1.43461e-06
5.97504e-05
1.3313e-06
5.8557e-05
1.19339e-06
5.74966e-05
1.06047e-06
5.65559e-05
9.40688e-07
5.57193e-05
8.36548e-07
5.49714e-05
7.4788e-07
5.42987e-05
6.72741e-07
5.36901e-05
6.08597e-07
5.31368e-05
5.53347e-07
5.26314e-05
5.05393e-07
5.21679e-05
4.63467e-07
5.17414e-05
4.26543e-07
5.13476e-05
3.93805e-07
5.09829e-05
3.64609e-07
5.06445e-05
3.3844e-07
5.03296e-05
3.14889e-07
5.0036e-05
2.93626e-07
4.97616e-05
2.74396e-07
4.95046e-05
2.57009e-07
4.92632e-05
2.41341e-07
4.90359e-05
2.27353e-07
4.88208e-05
2.15081e-07
4.86159e-05
2.04881e-07
4.84194e-05
1.96548e-07
4.82265e-05
1.92879e-07
4.80443e-05
1.82237e-07
1.71802e-07
4.78725e-05
6.28938e-05
-3.63122e-06
6.27373e-05
-6.09218e-07
6.21168e-05
-1.50337e-07
6.23914e-05
4.00627e-07
6.28734e-05
8.59264e-07
6.32664e-05
1.04158e-06
6.3511e-05
1.08674e-06
6.36218e-05
1.08252e-06
6.36293e-05
1.05298e-06
6.35625e-05
1.00746e-06
6.34445e-05
9.54606e-07
6.32918e-05
9.00523e-07
6.31165e-05
8.48089e-07
6.29267e-05
7.98384e-07
6.27283e-05
7.51765e-07
6.25253e-05
7.08335e-07
6.23208e-05
6.68018e-07
6.21167e-05
6.30627e-07
6.19146e-05
5.9594e-07
6.17155e-05
5.63733e-07
6.15201e-05
5.33802e-07
6.1329e-05
5.05957e-07
6.11426e-05
4.80039e-07
6.09611e-05
4.55913e-07
6.07846e-05
4.33484e-07
6.06133e-05
4.12686e-07
6.04471e-05
3.93534e-07
6.02862e-05
3.76014e-07
6.01306e-05
3.60424e-07
5.9981e-05
3.46212e-07
5.9838e-05
3.35833e-07
5.97019e-05
3.1829e-07
3.2754e-07
5.95462e-05
6.23345e-05
-2.20427e-06
6.26284e-05
-9.03216e-07
6.27867e-05
-3.08577e-07
6.30962e-05
9.11592e-08
6.34475e-05
5.07957e-07
6.37496e-05
7.39425e-07
6.39958e-05
8.40566e-07
6.41909e-05
8.87464e-07
6.43392e-05
9.04605e-07
6.44472e-05
8.99454e-07
6.45219e-05
8.79901e-07
6.45697e-05
8.52784e-07
6.45957e-05
8.22053e-07
6.46044e-05
7.89729e-07
6.45991e-05
7.57013e-07
6.45828e-05
7.24699e-07
6.45575e-05
6.93268e-07
6.45252e-05
6.62969e-07
6.44872e-05
6.33923e-07
6.44447e-05
6.06181e-07
6.43988e-05
5.79755e-07
6.43501e-05
5.54629e-07
6.42994e-05
5.30785e-07
6.42471e-05
5.08203e-07
6.41937e-05
4.86883e-07
6.41395e-05
4.66838e-07
6.40849e-05
4.4814e-07
6.40301e-05
4.30837e-07
6.39753e-05
4.15192e-07
6.39206e-05
4.00989e-07
6.38667e-05
3.89643e-07
6.38077e-05
3.7729e-07
3.80742e-07
6.37545e-05
6.47916e-05
-1.41277e-06
6.47392e-05
-8.50818e-07
6.47874e-05
-3.56835e-07
6.48997e-05
-2.1073e-08
6.50728e-05
3.34836e-07
6.52459e-05
5.66289e-07
6.54033e-05
6.83172e-07
6.55439e-05
7.46837e-07
6.56668e-05
7.81726e-07
6.57719e-05
7.94361e-07
6.58605e-05
7.91312e-07
6.59344e-05
7.78872e-07
6.59955e-05
7.60942e-07
6.60456e-05
7.39663e-07
6.60862e-05
7.16417e-07
6.61187e-05
6.92192e-07
6.61443e-05
6.67653e-07
6.61641e-05
6.43222e-07
6.61788e-05
6.19169e-07
6.61893e-05
5.95674e-07
6.61962e-05
5.72858e-07
6.62e-05
5.508e-07
6.62013e-05
5.29558e-07
6.62003e-05
5.09182e-07
6.61975e-05
4.89727e-07
6.6193e-05
4.71254e-07
6.61873e-05
4.53862e-07
6.61805e-05
4.37644e-07
6.61729e-05
4.22826e-07
6.61644e-05
4.0943e-07
6.61557e-05
3.98352e-07
6.61443e-05
3.88704e-07
3.87849e-07
6.61372e-05
6.70182e-05
-9.7422e-07
6.6871e-05
-7.03616e-07
6.6845e-05
-3.30773e-07
6.68729e-05
-4.90505e-08
6.69619e-05
2.45867e-07
6.7071e-05
4.57254e-07
6.71779e-05
5.76241e-07
6.72784e-05
6.46289e-07
6.73713e-05
6.88847e-07
6.74555e-05
7.10169e-07
6.75309e-05
7.15962e-07
6.75979e-05
7.11824e-07
6.76574e-05
7.01417e-07
6.77102e-05
6.86866e-07
6.77571e-05
6.69593e-07
6.77986e-05
6.50638e-07
6.78355e-05
6.30728e-07
6.78684e-05
6.10356e-07
6.78977e-05
5.89859e-07
6.79239e-05
5.69476e-07
6.79474e-05
5.49382e-07
6.79685e-05
5.29702e-07
6.79875e-05
5.10535e-07
6.80047e-05
4.91967e-07
6.80204e-05
4.74077e-07
6.80347e-05
4.56951e-07
6.80478e-05
4.40694e-07
6.80601e-05
4.25412e-07
6.80716e-05
4.11293e-07
6.80826e-05
3.98453e-07
6.80935e-05
3.87453e-07
6.81039e-05
3.78239e-07
3.7362e-07
6.81182e-05
6.9089e-05
-6.79198e-07
6.89436e-05
-5.58232e-07
6.89006e-05
-2.87766e-07
6.89041e-05
-5.25142e-08
6.89557e-05
1.94284e-07
6.90301e-05
3.82847e-07
6.91074e-05
4.98879e-07
6.91825e-05
5.71252e-07
6.9254e-05
6.17339e-07
6.93209e-05
6.4327e-07
6.93826e-05
6.5421e-07
6.94393e-05
6.55117e-07
6.94914e-05
6.4938e-07
6.95392e-05
6.39088e-07
6.95831e-05
6.2567e-07
6.96235e-05
6.10175e-07
6.96609e-05
5.93355e-07
6.96955e-05
5.75733e-07
6.97277e-05
5.5768e-07
6.97577e-05
5.39468e-07
6.97858e-05
5.21296e-07
6.98122e-05
5.03316e-07
6.98371e-05
4.85647e-07
6.98607e-05
4.6839e-07
6.98831e-05
4.51635e-07
6.99046e-05
4.35472e-07
6.99253e-05
4.19998e-07
6.99454e-05
4.05313e-07
6.99651e-05
3.91555e-07
6.99847e-05
3.78834e-07
7.00047e-05
3.67444e-07
7.00256e-05
3.57393e-07
3.49448e-07
7.00498e-05
7.11537e-05
-4.66553e-07
7.10277e-05
-4.32252e-07
7.098e-05
-2.40049e-07
7.09727e-05
-4.52543e-08
7.10044e-05
1.62612e-07
7.1058e-05
3.29283e-07
7.11172e-05
4.39626e-07
7.11766e-05
5.1192e-07
7.12344e-05
5.59445e-07
7.12898e-05
5.87946e-07
7.13418e-05
6.0214e-07
7.13906e-05
6.06394e-07
7.14361e-05
6.03824e-07
7.14788e-05
5.96456e-07
7.15187e-05
5.85709e-07
7.15563e-05
5.72631e-07
7.15916e-05
5.57981e-07
7.16251e-05
5.423e-07
7.16568e-05
5.25979e-07
7.16869e-05
5.09309e-07
7.17157e-05
4.92505e-07
7.17433e-05
4.75733e-07
7.17698e-05
4.59122e-07
7.17954e-05
4.4278e-07
7.18203e-05
4.26799e-07
7.18445e-05
4.11263e-07
7.18682e-05
3.96254e-07
7.18917e-05
3.81847e-07
7.19151e-05
3.68129e-07
7.19388e-05
3.55154e-07
7.19632e-05
3.43018e-07
7.1989e-05
3.31615e-07
3.20887e-07
7.20176e-05
7.32523e-05
-3.13625e-07
7.31446e-05
-3.24521e-07
7.30948e-05
-1.90274e-07
7.30809e-05
-3.13476e-08
7.31003e-05
1.4324e-07
7.31402e-05
2.89415e-07
7.31874e-05
3.92362e-07
7.32365e-05
4.62829e-07
7.32855e-05
5.10457e-07
7.33331e-05
5.40315e-07
7.33787e-05
5.56634e-07
7.34218e-05
5.63241e-07
7.34627e-05
5.62968e-07
7.35014e-05
5.57756e-07
7.35381e-05
5.48997e-07
7.3573e-05
5.37725e-07
7.36063e-05
5.24698e-07
7.36381e-05
5.10468e-07
7.36686e-05
4.95439e-07
7.3698e-05
4.79913e-07
7.37264e-05
4.64118e-07
7.37539e-05
4.48228e-07
7.37807e-05
4.32376e-07
7.38068e-05
4.16672e-07
7.38324e-05
4.01203e-07
7.38576e-05
3.86045e-07
7.38826e-05
3.71259e-07
7.39075e-05
3.56894e-07
7.39327e-05
3.42983e-07
7.39583e-05
3.29522e-07
7.39849e-05
3.1647e-07
7.40129e-05
3.03629e-07
2.90661e-07
7.40431e-05
7.53941e-05
-2.05284e-07
7.53033e-05
-2.33663e-07
7.52538e-05
-1.40784e-07
7.52356e-05
-1.31285e-08
7.52464e-05
1.32357e-07
7.52764e-05
2.59413e-07
7.53149e-05
3.53861e-07
7.53566e-05
4.21135e-07
7.53993e-05
4.67829e-07
7.54414e-05
4.98153e-07
7.54823e-05
5.15785e-07
7.55215e-05
5.24046e-07
7.5559e-05
5.25481e-07
7.55948e-05
5.21918e-07
7.56291e-05
5.14704e-07
7.5662e-05
5.04846e-07
7.56936e-05
4.93094e-07
7.5724e-05
4.80003e-07
7.57535e-05
4.65985e-07
7.57821e-05
4.51349e-07
7.58099e-05
4.3633e-07
7.5837e-05
4.21105e-07
7.58635e-05
4.05812e-07
7.58897e-05
3.90557e-07
7.59154e-05
3.75423e-07
7.5941e-05
3.60472e-07
7.59665e-05
3.45747e-07
7.59921e-05
3.31269e-07
7.60181e-05
3.17032e-07
7.60446e-05
3.0298e-07
7.60721e-05
2.89001e-07
7.61009e-05
2.74851e-07
2.60149e-07
7.61314e-05
7.7584e-05
-1.29712e-07
7.75094e-05
-1.59083e-07
7.74627e-05
-9.40351e-08
7.7442e-05
7.49789e-09
7.74468e-05
1.27648e-07
7.74692e-05
2.36979e-07
7.75008e-05
3.22263e-07
7.75367e-05
3.85276e-07
7.75743e-05
4.30163e-07
7.76123e-05
4.60203e-07
7.76496e-05
4.78482e-07
7.76858e-05
4.87833e-07
7.77208e-05
4.90512e-07
7.77545e-05
4.88214e-07
7.77869e-05
4.82217e-07
7.78183e-05
4.7349e-07
7.78486e-05
4.62767e-07
7.7878e-05
4.50598e-07
7.79066e-05
4.37397e-07
7.79345e-05
4.23476e-07
7.79617e-05
4.09073e-07
7.79885e-05
3.94369e-07
7.80148e-05
3.79498e-07
7.80408e-05
3.64567e-07
7.80666e-05
3.49648e-07
7.80922e-05
3.34794e-07
7.8118e-05
3.20032e-07
7.81439e-05
3.05359e-07
7.81702e-05
2.90742e-07
7.8197e-05
2.76095e-07
7.82248e-05
2.61274e-07
7.82536e-05
2.46039e-07
2.30054e-07
7.82837e-05
7.98265e-05
-7.78721e-08
7.97672e-05
-9.97754e-08
7.97252e-05
-5.20778e-08
7.9704e-05
2.87257e-08
7.97043e-05
1.27289e-07
7.97209e-05
2.20442e-07
7.97468e-05
2.96301e-07
7.97778e-05
3.54275e-07
7.98114e-05
3.96624e-07
7.98459e-05
4.25726e-07
7.98803e-05
4.44067e-07
7.99141e-05
4.54016e-07
7.99471e-05
4.57541e-07
7.99791e-05
4.56181e-07
8.00102e-05
4.51128e-07
8.00404e-05
4.43305e-07
8.00697e-05
4.33417e-07
8.00983e-05
4.22004e-07
8.01262e-05
4.09474e-07
8.01536e-05
3.9614e-07
8.01804e-05
3.82239e-07
8.02068e-05
3.6795e-07
8.02329e-05
3.53409e-07
8.02588e-05
3.38715e-07
8.02845e-05
3.23936e-07
8.03102e-05
3.09115e-07
8.03359e-05
2.94264e-07
8.03619e-05
2.79369e-07
8.03883e-05
2.64378e-07
8.04152e-05
2.49195e-07
8.04428e-05
2.33672e-07
8.04712e-05
2.17601e-07
2.00717e-07
8.05006e-05
8.21255e-05
-4.29614e-08
8.20799e-05
-5.41077e-08
8.20441e-05
-1.62619e-08
8.20239e-05
4.88965e-08
8.20215e-05
1.2962e-07
8.20336e-05
2.08367e-07
8.2055e-05
2.74936e-07
8.20819e-05
3.2739e-07
8.21119e-05
3.6663e-07
8.21434e-05
3.94236e-07
8.21753e-05
4.12126e-07
8.22071e-05
4.22233e-07
8.22384e-05
4.26243e-07
8.2269e-05
4.25527e-07
8.2299e-05
4.21177e-07
8.23282e-05
4.14058e-07
8.23568e-05
4.0484e-07
8.23848e-05
3.94044e-07
8.24122e-05
3.82068e-07
8.24391e-05
3.69219e-07
8.24656e-05
3.55731e-07
8.24918e-05
3.41783e-07
8.25177e-05
3.27505e-07
8.25434e-05
3.12992e-07
8.2569e-05
2.98308e-07
8.25947e-05
2.83487e-07
8.26204e-05
2.68535e-07
8.26463e-05
2.53428e-07
8.26726e-05
2.38109e-07
8.26993e-05
2.22485e-07
8.27266e-05
2.06422e-07
8.27544e-05
1.89753e-07
1.72292e-07
8.27828e-05
8.44847e-05
-1.99161e-08
8.44507e-05
-2.00703e-08
8.44216e-05
1.28287e-08
8.44038e-05
6.66827e-08
8.44003e-05
1.33138e-07
8.44092e-05
1.99426e-07
8.4427e-05
2.57205e-07
8.44504e-05
3.03959e-07
8.44773e-05
3.39698e-07
8.45062e-05
3.65361e-07
8.4536e-05
3.8236e-07
8.4566e-05
3.92237e-07
8.45958e-05
3.96404e-07
8.46253e-05
3.96061e-07
8.46543e-05
3.92194e-07
8.46827e-05
3.85598e-07
8.47107e-05
3.76902e-07
8.47381e-05
3.666e-07
8.47651e-05
3.55076e-07
8.47917e-05
3.42628e-07
8.48179e-05
3.29485e-07
8.48439e-05
3.15818e-07
8.48696e-05
3.01757e-07
8.48952e-05
2.87391e-07
8.49208e-05
2.72779e-07
8.49463e-05
2.57951e-07
8.49719e-05
2.42909e-07
8.49977e-05
2.27627e-07
8.50238e-05
2.12051e-07
8.50502e-05
1.96097e-07
8.50769e-05
1.79658e-07
8.51041e-05
1.62607e-07
1.44831e-07
8.51316e-05
8.69073e-05
-5.03886e-09
8.68828e-05
4.44081e-09
8.68603e-05
3.52768e-08
8.68458e-05
8.12133e-08
8.68424e-05
1.36582e-07
8.68494e-05
1.92409e-07
8.68644e-05
2.4218e-07
8.6885e-05
2.83331e-07
8.69094e-05
3.15369e-07
8.69359e-05
3.38766e-07
8.69638e-05
3.54521e-07
8.69922e-05
3.63832e-07
8.70207e-05
3.67865e-07
8.70491e-05
3.6765e-07
8.70773e-05
3.64063e-07
8.71051e-05
3.57823e-07
8.71324e-05
3.49512e-07
8.71594e-05
3.39593e-07
8.71861e-05
3.28433e-07
8.72124e-05
3.16314e-07
8.72384e-05
3.03457e-07
8.72642e-05
2.90028e-07
8.72898e-05
2.76151e-07
8.73153e-05
2.61912e-07
8.73407e-05
2.47367e-07
8.73661e-05
2.32543e-07
8.73916e-05
2.17441e-07
8.74172e-05
2.02038e-07
8.74429e-05
1.86287e-07
8.74689e-05
1.70122e-07
8.74951e-05
1.53459e-07
8.75215e-05
1.36215e-07
1.18335e-07
8.7548e-05
8.93962e-05
4.30696e-09
8.93792e-05
2.14144e-08
8.93628e-05
5.16446e-08
8.9352e-05
9.20959e-08
8.93495e-05
1.3902e-07
8.93557e-05
1.86281e-07
8.93688e-05
2.28994e-07
8.93873e-05
2.64861e-07
8.94095e-05
2.93179e-07
8.94342e-05
3.14119e-07
8.94603e-05
3.28368e-07
8.94873e-05
3.36843e-07
8.95147e-05
3.40491e-07
8.95421e-05
3.40187e-07
8.95695e-05
3.36694e-07
8.95967e-05
3.30658e-07
8.96236e-05
3.22608e-07
8.96502e-05
3.12973e-07
8.96765e-05
3.02095e-07
8.97026e-05
2.90243e-07
8.97284e-05
2.77625e-07
8.97541e-05
2.644e-07
8.97795e-05
2.50687e-07
8.98049e-05
2.36569e-07
8.98301e-05
2.22097e-07
8.98554e-05
2.073e-07
8.98806e-05
1.9218e-07
8.9906e-05
1.7672e-07
8.99314e-05
1.60884e-07
8.99569e-05
1.44621e-07
8.99824e-05
1.27876e-07
9.00081e-05
1.10599e-07
9.27835e-08
9.00336e-05
9.19542e-05
9.9611e-09
9.1943e-05
3.26017e-08
9.19319e-05
6.27673e-08
9.19246e-05
9.93458e-08
9.19238e-05
1.39878e-07
9.19298e-05
1.80241e-07
9.19419e-05
2.16892e-07
9.19589e-05
2.47939e-07
9.19794e-05
2.72666e-07
9.20024e-05
2.91083e-07
9.20271e-05
3.03659e-07
9.20529e-05
3.11094e-07
9.20792e-05
3.14154e-07
9.21058e-05
3.13574e-07
9.21325e-05
3.10015e-07
9.21591e-05
3.04046e-07
9.21856e-05
2.96145e-07
9.22118e-05
2.86703e-07
9.22379e-05
2.76037e-07
9.22637e-05
2.64397e-07
9.22894e-05
2.5198e-07
9.23148e-05
2.38936e-07
9.23402e-05
2.25376e-07
9.23653e-05
2.1138e-07
9.23904e-05
1.97e-07
9.24155e-05
1.82262e-07
9.24405e-05
1.67174e-07
9.24655e-05
1.51726e-07
9.24905e-05
1.35892e-07
9.25155e-05
1.1964e-07
9.25404e-05
1.02937e-07
9.25652e-05
8.57642e-08
6.81487e-08
9.25899e-05
9.45839e-05
1.31836e-08
9.45771e-05
3.94661e-08
9.45703e-05
6.95819e-08
9.45663e-05
1.03273e-07
9.45673e-05
1.38912e-07
9.45738e-05
1.73747e-07
9.45854e-05
2.05276e-07
9.46013e-05
2.32034e-07
9.46206e-05
2.53401e-07
9.46423e-05
2.69328e-07
9.46658e-05
2.80148e-07
9.46905e-05
2.86407e-07
9.4716e-05
2.88725e-07
9.47418e-05
2.87719e-07
9.47679e-05
2.83956e-07
9.4794e-05
2.77937e-07
9.482e-05
2.70087e-07
9.4846e-05
2.60759e-07
9.48718e-05
2.50244e-07
9.48974e-05
2.38771e-07
9.49229e-05
2.26524e-07
9.49482e-05
2.13644e-07
9.49733e-05
2.00234e-07
9.49983e-05
1.86372e-07
9.50232e-05
1.72107e-07
9.5048e-05
1.57468e-07
9.50727e-05
1.42467e-07
9.50973e-05
1.271e-07
9.51219e-05
1.11354e-07
9.51463e-05
9.52129e-08
9.51706e-05
7.86621e-08
9.51946e-05
6.1708e-08
4.44024e-08
9.52184e-05
9.72879e-05
1.48254e-08
9.72842e-05
4.31851e-08
9.72807e-05
7.30093e-08
9.72796e-05
1.04364e-07
9.72824e-05
1.36147e-07
9.72896e-05
1.66516e-07
9.73012e-05
1.93736e-07
9.73165e-05
2.16728e-07
9.73349e-05
2.35015e-07
9.73556e-05
2.48555e-07
9.73782e-05
2.57608e-07
9.7402e-05
2.62612e-07
9.74266e-05
2.6408e-07
9.74518e-05
2.62531e-07
9.74773e-05
2.58455e-07
9.7503e-05
2.52287e-07
9.75286e-05
2.44404e-07
9.75543e-05
2.35124e-07
9.75798e-05
2.24708e-07
9.76052e-05
2.13366e-07
9.76305e-05
2.01267e-07
9.76556e-05
1.88541e-07
9.76805e-05
1.75287e-07
9.77053e-05
1.61575e-07
9.773e-05
1.47456e-07
9.77545e-05
1.32959e-07
9.77789e-05
1.181e-07
9.78031e-05
1.02884e-07
9.78271e-05
8.73077e-08
9.7851e-05
7.13674e-08
9.78746e-05
5.50655e-08
9.78978e-05
3.84265e-08
2.15203e-08
9.79207e-05
0.000100068
1.54556e-08
0.000100067
4.46806e-08
0.000100066
7.38877e-08
0.000100067
1.03186e-07
0.000100072
1.31799e-07
0.00010008
1.58482e-07
0.000100091
1.82048e-07
0.000100106
2.01742e-07
0.000100124
2.17235e-07
0.000100144
2.28525e-07
0.000100166
2.35842e-07
0.000100189
2.39557e-07
0.000100213
2.40105e-07
0.000100238
2.37931e-07
0.000100263
2.33455e-07
0.000100288
2.2706e-07
0.000100313
2.19077e-07
0.000100338
2.09789e-07
0.000100364
1.9943e-07
0.000100389
1.88191e-07
0.000100414
1.76225e-07
0.000100439
1.63651e-07
0.000100464
1.50561e-07
0.000100488
1.37022e-07
0.000100512
1.23082e-07
0.000100537
1.08772e-07
0.000100561
9.4113e-08
0.000100584
7.91147e-08
0.000100608
6.37836e-08
0.000100631
4.81259e-08
0.000100654
3.21577e-08
0.000100677
1.59155e-08
-5.17799e-10
0.000100699
0.000102928
1.54547e-08
0.000102928
4.46635e-08
0.000102929
7.29472e-08
0.000102932
1.00318e-07
0.000102937
1.26203e-07
0.000102946
1.49748e-07
0.000102958
1.7016e-07
0.000102973
1.86938e-07
0.00010299
1.99892e-07
0.00010301
2.09074e-07
0.000103031
2.14709e-07
0.000103053
2.17131e-07
0.000103077
2.16718e-07
0.000103101
2.13857e-07
0.000103125
2.08918e-07
0.00010315
2.02233e-07
0.000103175
1.94095e-07
0.0001032
1.84755e-07
0.000103225
1.74421e-07
0.00010325
1.63263e-07
0.000103275
1.51421e-07
0.000103299
1.39002e-07
0.000103324
1.2609e-07
0.000103348
1.12748e-07
0.000103372
9.90228e-08
0.000103396
8.49468e-08
0.00010342
7.05424e-08
0.000103443
5.58253e-08
0.000103466
4.08085e-08
0.000103489
2.55072e-08
0.000103511
9.94569e-09
0.000103533
-5.82958e-09
-2.17287e-08
0.000103554
0.000105869
1.50798e-08
0.00010587
4.36824e-08
0.000105872
7.08106e-08
0.000105876
9.63197e-08
0.000105883
1.1976e-07
0.000105892
1.40546e-07
0.000105904
1.58163e-07
0.000105918
1.72315e-07
0.000105935
1.82934e-07
0.000105954
1.9013e-07
0.000105975
1.94138e-07
0.000105997
1.95271e-07
0.00010602
1.93871e-07
0.000106043
1.90281e-07
0.000106067
1.84828e-07
0.000106092
1.77803e-07
0.000106116
1.69466e-07
0.000106141
1.60037e-07
0.000106166
1.497e-07
0.00010619
1.38609e-07
0.000106215
1.26884e-07
0.000106239
1.14625e-07
0.000106264
1.01908e-07
0.000106288
8.879e-08
0.000106311
7.53157e-08
0.000106335
6.15178e-08
0.000106358
4.74204e-08
0.000106381
3.30433e-08
0.000106403
1.84041e-08
0.000106425
3.52399e-09
0.000106446
-1.15666e-08
0.000106467
-2.68153e-08
-4.21287e-08
0.000106488
0.000108894
1.45106e-08
0.000108895
4.21685e-08
0.000108898
6.80127e-08
0.000108903
9.1717e-08
0.00010891
1.12908e-07
0.000108919
1.31189e-07
0.000108931
1.4626e-07
0.000108945
1.5799e-07
0.000108962
1.6642e-07
0.00010898
1.71717e-07
0.000109
1.74137e-07
0.000109022
1.73981e-07
0.000109044
1.7157e-07
0.000109067
1.67213e-07
0.000109091
1.612e-07
0.000109115
1.53791e-07
0.000109139
1.45215e-07
0.000109163
1.35664e-07
0.000109188
1.25301e-07
0.000109212
1.14261e-07
0.000109236
1.02651e-07
0.00010926
9.05584e-08
0.000109284
7.80513e-08
0.000109308
6.51825e-08
0.000109331
5.19932e-08
0.000109354
3.85149e-08
0.000109377
2.4773e-08
0.000109399
1.07888e-08
0.000109421
-3.41637e-09
0.000109442
-1.78183e-08
0.000109463
-3.23822e-08
0.000109483
-4.70533e-08
-6.17371e-08
0.000109503
0.000112005
1.38812e-08
0.000112007
4.04792e-08
0.00011201
6.50303e-08
0.000112014
8.70153e-08
0.000112021
1.06108e-07
0.00011203
1.22062e-07
0.000112042
1.34749e-07
0.000112056
1.44185e-07
0.000112072
1.5051e-07
0.000112089
1.53953e-07
0.000112109
1.54793e-07
0.000112129
1.53333e-07
0.000112151
1.49875e-07
0.000112174
1.44705e-07
0.000112197
1.38084e-07
0.00011222
1.30245e-07
0.000112244
1.21387e-07
0.000112268
1.1168e-07
0.000112292
1.01266e-07
0.000112316
9.02606e-08
0.00011234
7.87589e-08
0.000112364
6.68362e-08
0.000112387
5.45524e-08
0.00011241
4.19547e-08
0.000112433
2.90801e-08
0.000112456
1.59586e-08
0.000112478
2.61459e-09
0.0001125
-1.09296e-08
0.000112521
-2.46518e-08
0.000112542
-3.85255e-08
0.000112562
-5.25151e-08
0.000112581
-6.65649e-08
-8.05819e-08
0.0001126
0.000115205
1.33047e-08
0.000115207
3.89383e-08
0.000115209
6.23208e-08
0.000115214
8.27253e-08
0.00011522
9.98609e-08
0.000115228
1.13614e-07
0.000115239
1.24013e-07
0.000115252
1.31216e-07
0.000115267
1.35463e-07
0.000115284
1.37046e-07
0.000115302
1.36277e-07
0.000115322
1.33464e-07
0.000115343
1.28901e-07
0.000115365
1.22856e-07
0.000115388
1.15566e-07
0.000115411
1.07237e-07
0.000115434
9.80459e-08
0.000115458
8.81397e-08
0.000115481
7.76404e-08
0.000115505
6.66475e-08
0.000115528
5.52412e-08
0.000115552
4.3486e-08
0.000115575
3.14328e-08
0.000115598
1.91221e-08
0.00011562
6.58625e-09
0.000115642
-6.14797e-09
0.000115664
-1.90579e-08
0.000115685
-3.21223e-08
0.000115706
-4.53192e-08
0.000115726
-5.86225e-08
0.000115745
-7.19969e-08
0.000115764
-8.5388e-08
-9.87061e-08
0.000115782
0.000118496
1.28923e-08
0.000118497
3.78803e-08
0.000118499
6.03719e-08
0.000118503
7.94082e-08
0.000118508
9.47352e-08
0.000118515
1.06379e-07
0.000118524
1.14532e-07
0.000118536
1.19498e-07
0.00011855
1.21629e-07
0.000118566
1.2129e-07
0.000118583
1.18831e-07
0.000118602
1.14576e-07
0.000118622
1.08814e-07
0.000118643
1.018e-07
0.000118665
9.37514e-08
0.000118687
8.48535e-08
0.00011871
7.52592e-08
0.000118733
6.5095e-08
0.000118756
5.44638e-08
0.00011878
4.34483e-08
0.000118803
3.21146e-08
0.000118826
2.05149e-08
0.000118848
8.69096e-09
0.000118871
-3.3248e-09
0.000118893
-1.55054e-08
0.000118915
-2.7829e-08
0.000118936
-4.02759e-08
0.000118957
-5.28276e-08
0.000118977
-6.54638e-08
0.000118996
-7.81608e-08
0.000119015
-9.08848e-08
0.000119033
-1.03585e-07
-1.16176e-07
0.000119051
0.000121881
1.27753e-08
0.000121882
3.77034e-08
0.000121882
5.97685e-08
0.000121884
7.77401e-08
0.000121887
9.14243e-08
0.000121893
1.01018e-07
0.0001219
1.06905e-07
0.00012191
1.09556e-07
0.000121922
1.09457e-07
0.000121937
1.07059e-07
0.000121953
1.02762e-07
0.00012197
9.69127e-08
0.000121989
8.98053e-08
0.000122009
8.16844e-08
0.00012203
7.2752e-08
0.000122052
6.31724e-08
0.000122074
5.30778e-08
0.000122097
4.25742e-08
0.000122119
3.17451e-08
0.000122142
2.06561e-08
0.000122165
9.35806e-09
0.000122188
-2.10935e-09
0.00012221
-1.37158e-08
0.000122232
-2.54371e-08
0.000122254
-3.72543e-08
0.000122275
-4.91509e-08
0.000122296
-6.11126e-08
0.000122316
-7.31246e-08
0.000122336
-8.51706e-08
0.000122355
-9.72298e-08
0.000122374
-1.09273e-07
0.000122391
-1.21253e-07
-1.33091e-07
0.000122408
0.000125363
1.31334e-08
0.000125362
3.89465e-08
0.00012536
6.12901e-08
0.000125359
7.86081e-08
0.00012536
9.08265e-08
0.000125363
9.83779e-08
0.000125368
1.01887e-07
0.000125375
1.02042e-07
0.000125385
9.94905e-08
0.000125397
9.47923e-08
0.000125412
8.84144e-08
0.000125428
8.07373e-08
0.000125446
7.2065e-08
0.000125465
6.26379e-08
0.000125485
5.26436e-08
0.000125506
4.22274e-08
0.000125527
3.15007e-08
0.000125549
2.05477e-08
0.000125572
9.43183e-09
0.000125594
-1.80019e-09
0.000125617
-1.3114e-08
0.000125639
-2.44849e-08
0.000125661
-3.58948e-08
0.000125683
-4.73305e-08
0.000125705
-5.87821e-08
0.000125726
-7.02412e-08
0.000125746
-8.16997e-08
0.000125766
-9.3149e-08
0.000125786
-1.04578e-07
0.000125805
-1.15971e-07
0.000125823
-1.27304e-07
0.00012584
-1.38535e-07
-1.49594e-07
0.000125856
0.000128944
1.42436e-08
0.000128941
4.24139e-08
0.000128936
6.60607e-08
0.000128931
8.3252e-08
0.000128928
9.41606e-08
0.000128927
9.95698e-08
0.000128928
1.0044e-07
0.000128932
9.7748e-08
0.000128939
9.23553e-08
0.000128949
8.49639e-08
0.000128962
7.61273e-08
0.000128976
6.62721e-08
0.000128992
5.57194e-08
0.00012901
4.47075e-08
0.00012903
3.34103e-08
0.00012905
2.19526e-08
0.000129071
1.04226e-08
0.000129093
-1.11967e-09
0.000129115
-1.2634e-08
0.000129137
-2.40953e-08
0.000129159
-3.54888e-08
0.000129182
-4.68072e-08
0.000129204
-5.80477e-08
0.000129226
-6.92106e-08
0.000129247
-8.02971e-08
0.000129268
-9.13089e-08
0.000129289
-1.02247e-07
0.000129309
-1.13109e-07
0.000129328
-1.23893e-07
0.000129347
-1.34589e-07
0.000129365
-1.4518e-07
0.000129382
-1.55631e-07
-1.6588e-07
0.000129398
0.000132627
1.65707e-08
0.00013262
4.93905e-08
0.00013261
7.57905e-08
0.0001326
9.34739e-08
0.000132591
1.0312e-07
0.000132584
1.06062e-07
0.000132581
1.03755e-07
0.000132581
9.75858e-08
0.000132585
8.87059e-08
0.000132592
7.80031e-08
0.000132602
6.61421e-08
0.000132614
5.36068e-08
0.000132629
4.07385e-08
0.000132646
2.77715e-08
0.000132665
1.48611e-08
0.000132685
2.10659e-09
0.000132706
-1.04339e-08
0.000132727
-2.27296e-08
0.000132749
-3.47699e-08
0.000132772
-4.65556e-08
0.000132794
-5.80969e-08
0.000132817
-6.94073e-08
0.00013284
-8.05035e-08
0.000132862
-9.14018e-08
0.000132884
-1.02118e-07
0.000132905
-1.12667e-07
0.000132926
-1.2306e-07
0.000132946
-1.33305e-07
0.000132965
-1.43409e-07
0.000132984
-1.53369e-07
0.000133002
-1.63178e-07
0.000133019
-1.72809e-07
-1.8221e-07
0.000133036
0.000136414
2.09504e-08
0.000136401
6.20331e-08
0.000136384
9.31663e-08
0.000136365
1.11937e-07
0.000136348
1.20052e-07
0.000136335
1.19742e-07
0.000136325
1.13224e-07
0.00013632
1.0249e-07
0.00013632
8.90882e-08
0.000136324
7.41422e-08
0.000136332
5.84478e-08
0.000136343
4.25488e-08
0.000136357
2.67988e-08
0.000136373
1.14152e-08
0.000136391
-3.47859e-09
0.000136411
-1.78229e-08
0.000136432
-3.16006e-08
0.000136454
-4.4822e-08
0.000136477
-5.75138e-08
0.0001365
-6.9712e-08
0.000136524
-8.1457e-08
0.000136547
-9.279e-08
0.00013657
-1.03751e-07
0.000136593
-1.14377e-07
0.000136616
-1.24702e-07
0.000136638
-1.34755e-07
0.00013666
-1.44562e-07
0.00013668
-1.54144e-07
0.0001367
-1.63516e-07
0.00013672
-1.72687e-07
0.000136738
-1.81659e-07
0.000136756
-1.90416e-07
-1.98916e-07
0.000136773
0.000140308
2.89736e-08
0.000140286
8.40944e-08
0.000140256
1.22477e-07
0.000140226
1.42559e-07
0.000140198
1.48114e-07
0.000140175
1.42865e-07
0.000140158
1.30253e-07
0.000140147
1.13166e-07
0.000140142
9.36673e-08
0.000140143
7.31508e-08
0.000140149
5.25389e-08
0.000140159
3.24113e-08
0.000140173
1.31015e-08
0.00014019
-5.22199e-09
0.000140209
-2.24962e-08
0.00014023
-3.87255e-08
0.000140252
-5.39538e-08
0.000140275
-6.82489e-08
0.0001403
-8.1688e-08
0.000140324
-9.4353e-08
0.000140349
-1.06323e-07
0.000140374
-1.17674e-07
0.000140399
-1.28474e-07
0.000140423
-1.38787e-07
0.000140447
-1.48666e-07
0.00014047
-1.58162e-07
0.000140493
-1.67314e-07
0.000140515
-1.76158e-07
0.000140536
-1.84722e-07
0.000140557
-1.93026e-07
0.000140576
-2.01083e-07
0.000140595
-2.08891e-07
-2.16416e-07
0.000140612
0.00014431
4.38451e-08
0.000144272
1.22254e-07
0.000144223
1.70542e-07
0.000144175
1.90917e-07
0.000144132
1.91235e-07
0.000144097
1.77723e-07
0.000144072
1.55791e-07
0.000144055
1.2959e-07
0.000144047
1.01768e-07
0.000144046
7.39415e-08
0.000144052
4.70887e-08
0.000144062
2.17482e-08
0.000144077
-1.84019e-09
0.000144096
-2.36177e-08
0.000144117
-4.36303e-08
0.00014414
-6.19825e-08
0.000144165
-7.88089e-08
0.000144191
-9.42553e-08
0.000144218
-1.08468e-07
0.000144245
-1.21585e-07
0.000144272
-1.33736e-07
0.0001443
-1.45037e-07
0.000144327
-1.55594e-07
0.000144354
-1.65498e-07
0.00014438
-1.7483e-07
0.000144405
-1.83658e-07
0.00014443
-1.92044e-07
0.000144454
-2.00036e-07
0.000144477
-2.07679e-07
0.000144499
-2.15004e-07
0.00014452
-2.22036e-07
0.00014454
-2.28786e-07
-2.35234e-07
0.000144559
0.000148419
7.2429e-08
0.000148353
1.88512e-07
0.000148276
2.47857e-07
0.000148202
2.64345e-07
0.00014814
2.53554e-07
0.000148092
2.25756e-07
0.000148058
1.89404e-07
0.000148038
1.50214e-07
0.000148028
1.11235e-07
0.000148028
7.40716e-08
0.000148036
3.9567e-08
0.000148049
8.05818e-09
0.000148068
-2.0435e-08
0.00014809
-4.60575e-08
0.000148116
-6.903e-08
0.000148143
-8.96053e-08
0.000148173
-1.08042e-07
0.000148203
-1.2459e-07
0.000148234
-1.39481e-07
0.000148265
-1.52926e-07
0.000148297
-1.65111e-07
0.000148328
-1.76204e-07
0.000148359
-1.86348e-07
0.000148389
-1.95669e-07
0.000148418
-2.04276e-07
0.000148447
-2.12263e-07
0.000148475
-2.19709e-07
0.000148501
-2.26681e-07
0.000148527
-2.33237e-07
0.000148551
-2.39422e-07
0.000148574
-2.45274e-07
0.000148596
-2.50816e-07
-2.56045e-07
0.000148617
0.000152632
1.29679e-07
0.000152516
3.04598e-07
0.000152394
3.69779e-07
0.000152287
3.71066e-07
0.000152203
3.37706e-07
0.000152143
2.85752e-07
0.000152105
2.27795e-07
0.000152084
1.70858e-07
0.000152078
1.17634e-07
0.000152082
6.91594e-08
0.000152096
2.57907e-08
0.000152117
-1.25793e-08
0.000152143
-4.63265e-08
0.000152173
-7.59153e-08
0.000152205
-1.01816e-07
0.00015224
-1.24481e-07
0.000152277
-1.44326e-07
0.000152314
-1.6173e-07
0.000152351
-1.77028e-07
0.000152389
-1.90513e-07
0.000152426
-2.02439e-07
0.000152463
-2.13027e-07
0.000152499
-2.22467e-07
0.000152534
-2.3092e-07
0.000152569
-2.38526e-07
0.000152602
-2.45402e-07
0.000152634
-2.51649e-07
0.000152664
-2.57352e-07
0.000152694
-2.62582e-07
0.000152722
-2.67398e-07
0.000152748
-2.71851e-07
0.000152773
-2.75977e-07
-2.79788e-07
0.000152797
0.000156935
2.45868e-07
0.000156729
5.10397e-07
0.000156541
5.58029e-07
0.000156394
5.18094e-07
0.00015629
4.41647e-07
0.000156225
3.50914e-07
0.00015619
2.62603e-07
0.000156178
1.83133e-07
0.000156183
1.13026e-07
0.0001562
5.18475e-08
0.000156227
-9.92241e-10
0.00015626
-4.63435e-08
0.000156299
-8.51763e-08
0.000156342
-1.1839e-07
0.000156387
-1.46775e-07
0.000156433
-1.71021e-07
0.000156481
-1.91737e-07
0.000156528
-2.09449e-07
0.000156576
-2.24607e-07
0.000156623
-2.37595e-07
0.000156669
-2.48741e-07
0.000156715
-2.58324e-07
0.000156759
-2.66579e-07
0.000156802
-2.73705e-07
0.000156843
-2.79873e-07
0.000156883
-2.85224e-07
0.000156921
-2.89879e-07
0.000156958
-2.93939e-07
0.000156992
-2.9749e-07
0.000157026
-3.00604e-07
0.000157057
-3.0334e-07
0.000157087
-3.05747e-07
-3.07858e-07
0.000157115
0.000161294
4.9068e-07
0.000160931
8.73503e-07
0.000160653
8.35965e-07
0.000160464
7.06728e-07
0.000160351
5.54719e-07
0.000160296
4.05463e-07
0.000160281
2.77794e-07
0.000160292
1.72152e-07
0.000160322
8.36285e-08
0.000160364
9.33552e-09
0.000160416
-5.26516e-08
0.000160474
-1.04233e-07
0.000160536
-1.47181e-07
0.0001606
-1.8294e-07
0.000160666
-2.12673e-07
0.000160732
-2.37353e-07
0.000160798
-2.57804e-07
0.000160864
-2.74721e-07
0.000160928
-2.88679e-07
0.00016099
-3.00162e-07
0.000161051
-3.09571e-07
0.00016111
-3.17245e-07
0.000161167
-3.23465e-07
0.000161222
-3.28466e-07
0.000161274
-3.32444e-07
0.000161325
-3.35566e-07
0.000161373
-3.37968e-07
0.000161419
-3.39765e-07
0.000161462
-3.41053e-07
0.000161503
-3.41913e-07
0.000161543
-3.4241e-07
0.000161579
-3.42598e-07
-3.4252e-07
0.000161614
0.000165516
1.12855e-06
0.000164915
1.47468e-06
0.000164578
1.17201e-06
0.000164389
8.96326e-07
0.00016431
6.33821e-07
0.000164305
4.09989e-07
0.000164343
2.40538e-07
0.000164405
1.09731e-07
0.000164484
4.17492e-09
0.000164575
-8.16447e-08
0.000164674
-1.50886e-07
0.000164776
-2.06598e-07
0.00016488
-2.5146e-07
0.000164985
-2.8751e-07
0.000165088
-3.16324e-07
0.00016519
-3.39195e-07
0.00016529
-3.572e-07
0.000165386
-3.71223e-07
0.00016548
-3.8198e-07
0.000165569
-3.90056e-07
0.000165656
-3.95935e-07
0.000165739
-4.0001e-07
0.000165818
-4.02607e-07
0.000165893
-4.03994e-07
0.000165965
-4.0439e-07
0.000166034
-4.03979e-07
0.000166099
-4.0291e-07
0.00016616
-4.01309e-07
0.000166218
-3.9928e-07
0.000166273
-3.96911e-07
0.000166325
-3.9428e-07
0.000166374
-3.91454e-07
-3.88506e-07