/*--------------------------------*- C++ -*----------------------------------*\
  =========                 |
  \\      /  F ield         | OpenFOAM: The Open Source CFD Toolbox
   \\    /   O peration     | Website:  https://openfoam.org
    \\  /    A nd           | Version:  10
     \\/     M anipulation  |
\*---------------------------------------------------------------------------*/
FoamFile
{
    format      ascii;
    class       volVectorField;
    location    "500";
    object      U;
}
// * * * * * * * * * * * * * * * * * * * * * * * * * * * * * * * * * * * * * //

dimensions      [0 1 -1 0 0 0 0];

internalField   nonuniform List<vector> 
6820
(
(7.13228 -2.83247 0)
(7.73435 -2.22097 0)
(7.93449 -1.24474 0)
(7.85774 -0.630602 0)
(7.69327 -0.300935 0)
(7.51796 -0.135208 0)
(7.34943 -0.0535041 0)
(7.19472 -0.0130698 0)
(7.05707 0.00685675 0)
(6.93567 0.016319 0)
(6.82805 0.0203728 0)
(6.73204 0.0216465 0)
(6.6459 0.0215134 0)
(6.56818 0.0206885 0)
(6.4977 0.0195498 0)
(6.43345 0.0183003 0)
(6.37464 0.0170472 0)
(6.3206 0.0158445 0)
(6.27078 0.0147169 0)
(6.22472 0.0136738 0)
(6.18201 0.0127159 0)
(6.14231 0.0118405 0)
(6.10533 0.0110428 0)
(6.0708 0.0103185 0)
(6.03849 0.00966361 0)
(6.00818 0.00907687 0)
(5.97966 0.00856063 0)
(5.95271 0.00812097 0)
(5.92713 0.00778849 0)
(5.90244 0.00755596 0)
(5.87906 0.00761283 0)
(5.85239 0.00817298 0)
(5.83515 0.00621523 0)
(7.57676 0.619467 0)
(7.41857 0.759313 0)
(7.35519 0.519487 0)
(7.35369 0.338994 0)
(7.40447 0.233418 0)
(7.46268 0.167006 0)
(7.50283 0.124245 0)
(7.523 0.0970401 0)
(7.5288 0.0793385 0)
(7.52462 0.0672428 0)
(7.51327 0.0586169 0)
(7.49688 0.0522663 0)
(7.47719 0.0474486 0)
(7.4554 0.0436758 0)
(7.4323 0.0406278 0)
(7.40846 0.0380988 0)
(7.38429 0.0359529 0)
(7.36006 0.0340966 0)
(7.33599 0.0324642 0)
(7.31222 0.0310093 0)
(7.28886 0.0296989 0)
(7.26598 0.0285088 0)
(7.24364 0.027422 0)
(7.22185 0.0264263 0)
(7.20065 0.0255153 0)
(7.18005 0.0246862 0)
(7.16005 0.0239457 0)
(7.14064 0.0233036 0)
(7.12185 0.0228045 0)
(7.10357 0.0224605 0)
(7.08631 0.0226136 0)
(7.06863 0.0224922 0)
(7.05586 0.026351 0)
(7.26194 -0.0479152 0)
(7.1598 -0.0719013 0)
(7.19681 -0.0845058 0)
(7.23915 -0.0533742 0)
(7.27633 -0.0172307 0)
(7.31448 0.00632636 0)
(7.3474 0.0206422 0)
(7.37273 0.0299917 0)
(7.39205 0.0359864 0)
(7.40659 0.0394623 0)
(7.41698 0.0412211 0)
(7.42388 0.0419092 0)
(7.42798 0.0419359 0)
(7.42986 0.0415455 0)
(7.42997 0.0408963 0)
(7.42866 0.040096 0)
(7.42621 0.0392146 0)
(7.42286 0.038296 0)
(7.41877 0.0373678 0)
(7.41411 0.0364479 0)
(7.409 0.0355477 0)
(7.40353 0.0346746 0)
(7.39779 0.0338341 0)
(7.39184 0.0330308 0)
(7.38574 0.0322701 0)
(7.37953 0.0315591 0)
(7.37324 0.0309105 0)
(7.36691 0.0303392 0)
(7.36056 0.0298888 0)
(7.35418 0.0295743 0)
(7.34797 0.0295984 0)
(7.34154 0.0296617 0)
(7.33619 0.0312343 0)
(7.29243 -0.0887264 0)
(7.22393 -0.0614756 0)
(7.23483 -0.0269051 0)
(7.25116 -0.00104185 0)
(7.26562 0.0188986 0)
(7.28499 0.0304549 0)
(7.30453 0.0362532 0)
(7.32135 0.0394297 0)
(7.3359 0.0412075 0)
(7.3486 0.0419776 0)
(7.35944 0.0420797 0)
(7.36848 0.0418055 0)
(7.37598 0.0413229 0)
(7.38215 0.0407154 0)
(7.38718 0.0400329 0)
(7.39123 0.0393108 0)
(7.39445 0.0385718 0)
(7.39696 0.0378297 0)
(7.39886 0.037093 0)
(7.40025 0.0363673 0)
(7.40121 0.035657 0)
(7.40179 0.0349652 0)
(7.40205 0.0342955 0)
(7.40205 0.0336515 0)
(7.40182 0.033039 0)
(7.40139 0.0324658 0)
(7.4008 0.0319453 0)
(7.40008 0.0314938 0)
(7.39925 0.0311477 0)
(7.39834 0.0309293 0)
(7.39746 0.0309575 0)
(7.39654 0.0311094 0)
(7.39611 0.0320225 0)
(7.31244 -0.0515043 0)
(7.26793 -0.0318794 0)
(7.26468 -0.0126263 0)
(7.2677 -6.90637e-05 0)
(7.27324 0.0130377 0)
(7.28438 0.0226272 0)
(7.29695 0.0282566 0)
(7.30838 0.0318492 0)
(7.31881 0.0343331 0)
(7.32843 0.0359258 0)
(7.33713 0.0368352 0)
(7.34486 0.0372909 0)
(7.35172 0.0374457 0)
(7.3578 0.0373869 0)
(7.3632 0.0371739 0)
(7.36798 0.0368521 0)
(7.37223 0.0364547 0)
(7.37601 0.0360049 0)
(7.37937 0.0355192 0)
(7.38238 0.0350099 0)
(7.38507 0.0344867 0)
(7.38748 0.0339574 0)
(7.38964 0.033429 0)
(7.3916 0.0329083 0)
(7.39338 0.0324033 0)
(7.39499 0.0319236 0)
(7.39647 0.0314824 0)
(7.39785 0.031096 0)
(7.39914 0.0307918 0)
(7.40039 0.0305911 0)
(7.40167 0.0305555 0)
(7.40302 0.0306452 0)
(7.40472 0.0310953 0)
(7.3203 -0.0314419 0)
(7.28849 -0.0238424 0)
(7.28204 -0.0120326 0)
(7.28141 -0.00208565 0)
(7.28397 0.00924826 0)
(7.29105 0.0182118 0)
(7.29964 0.0239509 0)
(7.30782 0.0278165 0)
(7.31553 0.0305731 0)
(7.32285 0.0324363 0)
(7.32968 0.0336072 0)
(7.33593 0.0343028 0)
(7.34167 0.0346729 0)
(7.34693 0.0348078 0)
(7.35177 0.0347698 0)
(7.35622 0.0346063 0)
(7.36032 0.0343517 0)
(7.36411 0.0340305 0)
(7.36763 0.0336606 0)
(7.37091 0.0332552 0)
(7.37397 0.0328251 0)
(7.37684 0.0323787 0)
(7.37955 0.0319237 0)
(7.3821 0.0314674 0)
(7.38452 0.0310176 0)
(7.38684 0.0305834 0)
(7.38906 0.0301762 0)
(7.39122 0.0298095 0)
(7.39334 0.0295018 0)
(7.39546 0.0292678 0)
(7.39764 0.0291359 0)
(7.39994 0.029087 0)
(7.40254 0.0291853 0)
(7.32446 -0.0216685 0)
(7.30104 -0.0195865 0)
(7.29416 -0.0109431 0)
(7.29221 -0.00221832 0)
(7.29333 0.00752951 0)
(7.29807 0.0155406 0)
(7.30427 0.021025 0)
(7.31046 0.0248624 0)
(7.31648 0.0276447 0)
(7.32232 0.0295857 0)
(7.32785 0.0308733 0)
(7.33303 0.0316974 0)
(7.33787 0.0321937 0)
(7.34239 0.0324485 0)
(7.34663 0.0325226 0)
(7.35061 0.032462 0)
(7.35434 0.0323008 0)
(7.35787 0.0320635 0)
(7.36121 0.0317683 0)
(7.36439 0.031429 0)
(7.36741 0.0310567 0)
(7.3703 0.0306602 0)
(7.37307 0.0302473 0)
(7.37575 0.0298252 0)
(7.37834 0.0294013 0)
(7.38085 0.0289833 0)
(7.38332 0.0285803 0)
(7.38575 0.0282017 0)
(7.38818 0.0278586 0)
(7.39064 0.0275577 0)
(7.39319 0.0273068 0)
(7.39587 0.0270863 0)
(7.39879 0.02689 0)
(7.32737 -0.0149971 0)
(7.31004 -0.0151821 0)
(7.30325 -0.00893573 0)
(7.30061 -0.0016715 0)
(7.30084 0.00653329 0)
(7.3041 0.013572 0)
(7.30875 0.0186974 0)
(7.31365 0.0224215 0)
(7.31857 0.0251727 0)
(7.32342 0.0271439 0)
(7.32809 0.0285025 0)
(7.33252 0.0294116 0)
(7.33671 0.0299928 0)
(7.34068 0.030328 0)
(7.34445 0.0304764 0)
(7.34802 0.030483 0)
(7.35142 0.0303812 0)
(7.35467 0.0301957 0)
(7.35778 0.0299451 0)
(7.36077 0.0296436 0)
(7.36365 0.0293024 0)
(7.36644 0.0289304 0)
(7.36914 0.0285354 0)
(7.37178 0.0281241 0)
(7.37436 0.0277029 0)
(7.3769 0.0272781 0)
(7.37941 0.0268561 0)
(7.38192 0.0264423 0)
(7.38444 0.0260415 0)
(7.38702 0.0256534 0)
(7.38968 0.0252734 0)
(7.39247 0.024878 0)
(7.39546 0.0244363 0)
(7.3294 -0.00998108 0)
(7.31672 -0.0111305 0)
(7.31031 -0.00681271 0)
(7.30732 -0.000948279 0)
(7.30698 0.00591331 0)
(7.30921 0.0120622 0)
(7.31276 0.0167907 0)
(7.31675 0.0203518 0)
(7.32087 0.0230349 0)
(7.32502 0.025001 0)
(7.32906 0.0263949 0)
(7.33296 0.0273563 0)
(7.33668 0.027993 0)
(7.34024 0.028382 0)
(7.34364 0.0285804 0)
(7.3469 0.0286316 0)
(7.35003 0.0285684 0)
(7.35304 0.0284156 0)
(7.35594 0.0281916 0)
(7.35876 0.0279108 0)
(7.36149 0.0275845 0)
(7.36415 0.0272216 0)
(7.36676 0.0268294 0)
(7.36932 0.0264141 0)
(7.37184 0.0259811 0)
(7.37433 0.0255349 0)
(7.37682 0.0250793 0)
(7.37932 0.0246166 0)
(7.38184 0.0241463 0)
(7.38442 0.0236632 0)
(7.38708 0.0231556 0)
(7.38986 0.0225982 0)
(7.3928 0.021955 0)
(7.33075 -0.00639974 0)
(7.32165 -0.00776503 0)
(7.31592 -0.00479443 0)
(7.31287 -0.000110633 0)
(7.31215 0.00559281 0)
(7.31361 0.0109225 0)
(7.31635 0.0152249 0)
(7.31961 0.0185768 0)
(7.32312 0.0211547 0)
(7.32672 0.0230827 0)
(7.33029 0.0244815 0)
(7.33377 0.0254686 0)
(7.33713 0.0261386 0)
(7.34037 0.0265624 0)
(7.34349 0.0267939 0)
(7.34651 0.0268746 0)
(7.34942 0.0268365 0)
(7.35223 0.0267037 0)
(7.35497 0.0264947 0)
(7.35763 0.0262237 0)
(7.36023 0.0259019 0)
(7.36278 0.025538 0)
(7.36528 0.0251389 0)
(7.36775 0.02471 0)
(7.3702 0.0242556 0)
(7.37263 0.0237788 0)
(7.37506 0.0232811 0)
(7.37751 0.022762 0)
(7.37999 0.0222177 0)
(7.38253 0.0216398 0)
(7.38514 0.0210133 0)
(7.38784 0.0203136 0)
(7.39066 0.0195071 0)
(7.33162 -0.00393518 0)
(7.32523 -0.00507181 0)
(7.32038 -0.00294575 0)
(7.3175 0.000790518 0)
(7.31656 0.0054996 0)
(7.31747 0.0100771 0)
(7.31956 0.0139377 0)
(7.32225 0.0170436 0)
(7.32526 0.0194836 0)
(7.32841 0.0213443 0)
(7.33159 0.0227215 0)
(7.33473 0.0237117 0)
(7.33779 0.0243962 0)
(7.34078 0.0248391 0)
(7.34368 0.0250902 0)
(7.34649 0.0251889 0)
(7.34922 0.0251656 0)
(7.35188 0.0250436 0)
(7.35447 0.0248412 0)
(7.357 0.0245723 0)
(7.35949 0.0242478 0)
(7.36193 0.0238759 0)
(7.36434 0.0234632 0)
(7.36673 0.0230144 0)
(7.3691 0.0225327 0)
(7.37146 0.0220198 0)
(7.37383 0.0214757 0)
(7.37621 0.0208976 0)
(7.37863 0.0202799 0)
(7.38109 0.0196124 0)
(7.38362 0.0188795 0)
(7.38622 0.0180587 0)
(7.3889 0.0171222 0)
(7.33218 -0.00226707 0)
(7.32778 -0.00297038 0)
(7.32389 -0.00132777 0)
(7.32134 0.00168186 0)
(7.32033 0.00555833 0)
(7.32086 0.00945908 0)
(7.32246 0.0128796 0)
(7.32468 0.0157152 0)
(7.32726 0.0179907 0)
(7.33003 0.0197588 0)
(7.33288 0.0210908 0)
(7.33573 0.0220636 0)
(7.33855 0.0227457 0)
(7.34132 0.0231936 0)
(7.34402 0.0234527 0)
(7.34666 0.0235593 0)
(7.34924 0.0235421 0)
(7.35177 0.0234235 0)
(7.35424 0.0232211 0)
(7.35666 0.0229483 0)
(7.35904 0.0226155 0)
(7.36139 0.0222308 0)
(7.36372 0.0217999 0)
(7.36602 0.021327 0)
(7.36832 0.0208145 0)
(7.37061 0.0202629 0)
(7.37291 0.0196708 0)
(7.37522 0.0190346 0)
(7.37756 0.0183472 0)
(7.37994 0.0175982 0)
(7.38237 0.0167728 0)
(7.38485 0.0158517 0)
(7.38738 0.0148134 0)
(7.33252 -0.00115606 0)
(7.32957 -0.00138004 0)
(7.32659 1.75979e-05 0)
(7.32447 0.00249636 0)
(7.32352 0.00569901 0)
(7.32381 0.00900783 0)
(7.32505 0.0120066 0)
(7.32689 0.0145607 0)
(7.32912 0.0166527 0)
(7.33156 0.0183071 0)
(7.33413 0.0195732 0)
(7.33673 0.0205102 0)
(7.33933 0.0211744 0)
(7.34191 0.0216143 0)
(7.34444 0.0218703 0)
(7.34694 0.0219757 0)
(7.34938 0.021957 0)
(7.35179 0.0218353 0)
(7.35415 0.0216272 0)
(7.35647 0.0213455 0)
(7.35876 0.0210004 0)
(7.36103 0.020599 0)
(7.36327 0.0201468 0)
(7.3655 0.0196473 0)
(7.36773 0.0191021 0)
(7.36995 0.018511 0)
(7.37217 0.0178719 0)
(7.37441 0.0171802 0)
(7.37667 0.0164289 0)
(7.37896 0.0156079 0)
(7.38128 0.0147039 0)
(7.38363 0.0137014 0)
(7.38601 0.0125847 0)
(7.33273 -0.000431226 0)
(7.3308 -0.000216681 0)
(7.32862 0.0010801 0)
(7.32696 0.00318626 0)
(7.32617 0.00586071 0)
(7.32635 0.00866689 0)
(7.32734 0.0112763 0)
(7.32889 0.0135505 0)
(7.33082 0.0154482 0)
(7.33299 0.016973 0)
(7.3353 0.0181562 0)
(7.33769 0.0190413 0)
(7.34009 0.0196734 0)
(7.3425 0.0200932 0)
(7.34489 0.0203361 0)
(7.34725 0.0204317 0)
(7.34957 0.0204044 0)
(7.35187 0.0202736 0)
(7.35413 0.0200548 0)
(7.35637 0.0197602 0)
(7.35857 0.0193991 0)
(7.36076 0.0189784 0)
(7.36293 0.0185028 0)
(7.36509 0.0179752 0)
(7.36724 0.0173968 0)
(7.36938 0.0167669 0)
(7.37154 0.0160828 0)
(7.3737 0.01534 0)
(7.37587 0.0145315 0)
(7.37806 0.0136483 0)
(7.38027 0.0126792 0)
(7.3825 0.0116119 0)
(7.38475 0.0104361 0)
(7.33285 3.00038e-05 0)
(7.33163 0.000603535 0)
(7.33011 0.00187527 0)
(7.3289 0.00372519 0)
(7.32832 0.00599531 0)
(7.32848 0.00838587 0)
(7.32931 0.0106477 0)
(7.33064 0.0126546 0)
(7.33234 0.0143555 0)
(7.33428 0.0157409 0)
(7.33638 0.016828 0)
(7.33857 0.0176479 0)
(7.34081 0.0182354 0)
(7.34306 0.0186243 0)
(7.34531 0.0188447 0)
(7.34755 0.0189228 0)
(7.34977 0.0188802 0)
(7.35196 0.0187349 0)
(7.35414 0.0185011 0)
(7.35629 0.01819 0)
(7.35842 0.0178101 0)
(7.36053 0.0173678 0)
(7.36262 0.0168674 0)
(7.36471 0.0163113 0)
(7.36679 0.0157002 0)
(7.36886 0.0150331 0)
(7.37094 0.0143074 0)
(7.37302 0.0135184 0)
(7.37511 0.0126599 0)
(7.3772 0.0117242 0)
(7.37931 0.0107021 0)
(7.38141 0.00958462 0)
(7.38352 0.00836545 0)
(7.33292 0.000314233 0)
(7.33217 0.00115704 0)
(7.33118 0.0024342 0)
(7.33037 0.00410624 0)
(7.33002 0.00607013 0)
(7.33022 0.00812362 0)
(7.33097 0.0100835 0)
(7.33215 0.0118435 0)
(7.33366 0.0133525 0)
(7.33542 0.0145944 0)
(7.33734 0.0155769 0)
(7.33936 0.0163212 0)
(7.34144 0.0168539 0)
(7.34356 0.0172024 0)
(7.34569 0.0173921 0)
(7.34781 0.0174454 0)
(7.34993 0.0173818 0)
(7.35204 0.017217 0)
(7.35412 0.0169641 0)
(7.35619 0.0166333 0)
(7.35825 0.0162324 0)
(7.36029 0.0157671 0)
(7.36231 0.0152412 0)
(7.36433 0.0146567 0)
(7.36634 0.0140142 0)
(7.36834 0.0133124 0)
(7.37034 0.0125487 0)
(7.37234 0.0117191 0)
(7.37434 0.010818 0)
(7.37634 0.00983896 0)
(7.37833 0.00877492 0)
(7.38032 0.00761956 0)
(7.3823 0.00636999 0)
(7.33296 0.000481268 0)
(7.33253 0.00150903 0)
(7.33193 0.00279511 0)
(7.33146 0.0043376 0)
(7.33131 0.006068 0)
(7.3316 0.00785033 0)
(7.33231 0.00955274 0)
(7.3334 0.0110905 0)
(7.33478 0.012418 0)
(7.33638 0.0135174 0)
(7.33815 0.0143908 0)
(7.34003 0.0150524 0)
(7.34197 0.0155224 0)
(7.34397 0.0158227 0)
(7.34598 0.0159745 0)
(7.34801 0.0159969 0)
(7.35003 0.0159068 0)
(7.35205 0.0157182 0)
(7.35406 0.0154428 0)
(7.35605 0.0150897 0)
(7.35803 0.0146659 0)
(7.36 0.0141766 0)
(7.36196 0.0136251 0)
(7.36391 0.0130131 0)
(7.36584 0.0123409 0)
(7.36777 0.0116073 0)
(7.3697 0.01081 0)
(7.37161 0.00994535 0)
(7.37352 0.00900876 0)
(7.37543 0.00799503 0)
(7.37732 0.0068989 0)
(7.3792 0.00571631 0)
(7.38106 0.00444702 0)
(7.33299 0.000571684 0)
(7.33276 0.0017127 0)
(7.33245 0.0029974 0)
(7.33224 0.00443734 0)
(7.33228 0.00598502 0)
(7.33265 0.00754801 0)
(7.33336 0.00903244 0)
(7.33438 0.0103732 0)
(7.33566 0.0115327 0)
(7.33715 0.0124944 0)
(7.33879 0.0132578 0)
(7.34055 0.0138326 0)
(7.34238 0.0142343 0)
(7.34426 0.0144803 0)
(7.34618 0.0145883 0)
(7.34811 0.0145745 0)
(7.35004 0.0144535 0)
(7.35198 0.0142374 0)
(7.35391 0.0139365 0)
(7.35583 0.0135591 0)
(7.35774 0.0131112 0)
(7.35964 0.0125974 0)
(7.36153 0.0120206 0)
(7.36341 0.0113823 0)
(7.36527 0.0106827 0)
(7.36713 0.00992067 0)
(7.36898 0.00909418 0)
(7.37081 0.00820016 0)
(7.37263 0.00723492 0)
(7.37444 0.00619441 0)
(7.37624 0.00507493 0)
(7.37801 0.00387427 0)
(7.37975 0.00259416 0)
(7.333 0.000612691 0)
(7.33291 0.00181008 0)
(7.33279 0.00307793 0)
(7.33277 0.00442867 0)
(7.33296 0.00582727 0)
(7.33341 0.00720944 0)
(7.33413 0.00850842 0)
(7.33511 0.00967547 0)
(7.33632 0.0106812 0)
(7.33772 0.0115122 0)
(7.33926 0.0121672 0)
(7.34091 0.0126535 0)
(7.34264 0.0129833 0)
(7.34442 0.0131707 0)
(7.34624 0.0132304 0)
(7.34809 0.0131762 0)
(7.34994 0.0130204 0)
(7.3518 0.0127738 0)
(7.35366 0.0124452 0)
(7.35551 0.0120418 0)
(7.35735 0.0115689 0)
(7.35918 0.0110306 0)
(7.361 0.0104294 0)
(7.36281 0.00976649 0)
(7.3646 0.00904204 0)
(7.36639 0.00825513 0)
(7.36815 0.007404 0)
(7.36991 0.00648617 0)
(7.37164 0.00549875 0)
(7.37336 0.00443873 0)
(7.37505 0.0033037 0)
(7.37672 0.00209288 0)
(7.37836 0.000809494 0)
(7.333 0.000622446 0)
(7.333 0.00183373 0)
(7.33301 0.00306928 0)
(7.33313 0.0043364 0)
(7.33342 0.00560739 0)
(7.33392 0.00683608 0)
(7.33466 0.00797476 0)
(7.33561 0.00898767 0)
(7.33676 0.00985296 0)
(7.33808 0.0105607 0)
(7.33953 0.0111104 0)
(7.34109 0.0115082 0)
(7.34273 0.0117641 0)
(7.34442 0.01189 0)
(7.34616 0.0118981 0)
(7.34792 0.0118002 0)
(7.3497 0.0116069 0)
(7.35148 0.0113273 0)
(7.35327 0.0109691 0)
(7.35505 0.0105386 0)
(7.35682 0.0100404 0)
(7.35858 0.00947799 0)
(7.36034 0.00885347 0)
(7.36207 0.00816792 0)
(7.3638 0.00742146 0)
(7.36551 0.00661332 0)
(7.3672 0.00574208 0)
(7.36887 0.00480579 0)
(7.37052 0.00380226 0)
(7.37215 0.00272936 0)
(7.37375 0.00158571 0)
(7.37532 0.000371663 0)
(7.37685 -0.000908538 0)
(7.33301 0.000613119 0)
(7.33305 0.00180866 0)
(7.33314 0.00299933 0)
(7.33334 0.00418486 0)
(7.33369 0.00534179 0)
(7.33423 0.00643583 0)
(7.33496 0.00743271 0)
(7.33589 0.00830679 0)
(7.33699 0.00904277 0)
(7.33824 0.00963431 0)
(7.33961 0.0100822 0)
(7.34109 0.0103923 0)
(7.34264 0.0105734 0)
(7.34425 0.0106358 0)
(7.34591 0.0105899 0)
(7.34759 0.0104458 0)
(7.34929 0.0102126 0)
(7.351 0.00989822 0)
(7.35272 0.00950923 0)
(7.35443 0.00905092 0)
(7.35613 0.00852737 0)
(7.35783 0.00794146 0)
(7.35951 0.00729503 0)
(7.36118 0.00658899 0)
(7.36284 0.00582343 0)
(7.36447 0.00499774 0)
(7.36609 0.0041108 0)
(7.36768 0.00316113 0)
(7.36925 0.00214712 0)
(7.37079 0.00106738 0)
(7.3723 -7.8686e-05 0)
(7.37377 -0.00128989 0)
(7.37521 -0.00256127 0)
(7.33301 0.000593043 0)
(7.33307 0.00175427 0)
(7.33321 0.0028918 0)
(7.33345 0.00399704 0)
(7.33383 0.00504885 0)
(7.33437 0.00602107 0)
(7.33508 0.00688922 0)
(7.33597 0.00763572 0)
(7.33701 0.00825087 0)
(7.33819 0.00873179 0)
(7.33949 0.00908089 0)
(7.34088 0.00930422 0)
(7.34236 0.00941001 0)
(7.34389 0.00940741 0)
(7.34546 0.00930563 0)
(7.34707 0.0091134 0)
(7.3487 0.00883856 0)
(7.35034 0.0084879 0)
(7.35198 0.00806705 0)
(7.35363 0.00758053 0)
(7.35527 0.00703177 0)
(7.35689 0.00642322 0)
(7.35851 0.0057564 0)
(7.36011 0.00503207 0)
(7.36169 0.0042503 0)
(7.36325 0.00341064 0)
(7.36479 0.0025122 0)
(7.36631 0.00155389 0)
(7.36779 0.000534574 0)
(7.36925 -0.000546554 0)
(7.37067 -0.0016895 0)
(7.37206 -0.00289248 0)
(7.3734 -0.0041501 0)
(7.33301 0.000568214 0)
(7.33308 0.00168612 0)
(7.33322 0.00276727 0)
(7.33347 0.00379456 0)
(7.33384 0.00474799 0)
(7.33436 0.00560737 0)
(7.33503 0.00635582 0)
(7.33586 0.00698245 0)
(7.33684 0.00748259 0)
(7.33794 0.00785665 0)
(7.33916 0.00810881 0)
(7.34048 0.00824576 0)
(7.34187 0.00827552 0)
(7.34332 0.00820654 0)
(7.34481 0.00804711 0)
(7.34634 0.00780491 0)
(7.3479 0.00748675 0)
(7.34947 0.00709847 0)
(7.35104 0.00664486 0)
(7.35261 0.00612975 0)
(7.35418 0.00555599 0)
(7.35575 0.0049256 0)
(7.35729 0.00423986 0)
(7.35883 0.00349934 0)
(7.36034 0.00270411 0)
(7.36183 0.00185379 0)
(7.36329 0.000947728 0)
(7.36473 -1.48934e-05 0)
(7.36614 -0.00103482 0)
(7.36752 -0.00211245 0)
(7.36886 -0.00324735 0)
(7.37015 -0.00443735 0)
(7.37141 -0.00567682 0)
(7.33301 0.000543362 0)
(7.33307 0.00161763 0)
(7.3332 0.00264468 0)
(7.33342 0.00359859 0)
(7.33374 0.00445984 0)
(7.33421 0.00521309 0)
(7.33482 0.00584792 0)
(7.33557 0.0063595 0)
(7.33647 0.0067479 0)
(7.33749 0.00701683 0)
(7.33862 0.00717244 0)
(7.33984 0.00722229 0)
(7.34115 0.00717454 0)
(7.34251 0.00703725 0)
(7.34393 0.00681803 0)
(7.34538 0.00652375 0)
(7.34686 0.00616036 0)
(7.34835 0.00573289 0)
(7.34986 0.00524542 0)
(7.35136 0.00470112 0)
(7.35287 0.00410235 0)
(7.35436 0.00345074 0)
(7.35584 0.00274727 0)
(7.35731 0.0019924 0)
(7.35875 0.00118612 0)
(7.36017 0.000328126 0)
(7.36157 -0.00058211 0)
(7.36293 -0.00154518 0)
(7.36427 -0.00256156 0)
(7.36557 -0.00363137 0)
(7.36683 -0.00475389 0)
(7.36805 -0.00592671 0)
(7.36922 -0.00714415 0)
(7.33301 0.00052278 0)
(7.33305 0.00156171 0)
(7.33313 0.00254305 0)
(7.33329 0.0034313 0)
(7.33354 0.0042071 0)
(7.33392 0.00485971 0)
(7.33444 0.00538486 0)
(7.33509 0.0057837 0)
(7.33589 0.0060612 0)
(7.3368 0.00622453 0)
(7.33783 0.00628206 0)
(7.33896 0.00624253 0)
(7.34017 0.00611447 0)
(7.34145 0.00590582 0)
(7.34278 0.00562375 0)
(7.34415 0.00527449 0)
(7.34555 0.00486328 0)
(7.34697 0.00439447 0)
(7.3484 0.00387146 0)
(7.34984 0.00329689 0)
(7.35128 0.00267263 0)
(7.35271 0.00199993 0)
(7.35412 0.00127952 0)
(7.35552 0.000511663 0)
(7.3569 -0.000303705 0)
(7.35826 -0.0011669 0)
(7.35959 -0.00207836 0)
(7.36089 -0.00303855 0)
(7.36215 -0.00404779 0)
(7.36338 -0.00510602 0)
(7.36457 -0.00621236 0)
(7.36572 -0.00736432 0)
(7.36683 -0.00855628 0)
(7.333 0.000511107 0)
(7.33301 0.00153267 0)
(7.33303 0.00248386 0)
(7.33308 0.00331811 0)
(7.33323 0.00401642 0)
(7.33348 0.00457316 0)
(7.33387 0.00499067 0)
(7.3344 0.00527663 0)
(7.33506 0.00544136 0)
(7.33586 0.00549597 0)
(7.33677 0.00545143 0)
(7.33779 0.00531798 0)
(7.3389 0.00510482 0)
(7.34008 0.00482003 0)
(7.34132 0.00447052 0)
(7.34261 0.00406203 0)
(7.34393 0.00359924 0)
(7.34528 0.00308587 0)
(7.34664 0.00252477 0)
(7.34801 0.00191801 0)
(7.34939 0.00126704 0)
(7.35075 0.000572722 0)
(7.35211 -0.000164505 0)
(7.35345 -0.00094457 0)
(7.35477 -0.00176766 0)
(7.35607 -0.00263414 0)
(7.35734 -0.00354445 0)
(7.35858 -0.00449901 0)
(7.35979 -0.00549807 0)
(7.36095 -0.00654149 0)
(7.36208 -0.00762837 0)
(7.36317 -0.00875624 0)
(7.36421 -0.00991964 0)
(7.333 0.000514253 0)
(7.33296 0.00154868 0)
(7.33286 0.00249426 0)
(7.33278 0.00329098 0)
(7.33276 0.00392126 0)
(7.33285 0.00438603 0)
(7.33307 0.00469557 0)
(7.33343 0.00486528 0)
(7.33394 0.00491183 0)
(7.3346 0.00485104 0)
(7.33538 0.004697 0)
(7.33627 0.00446191 0)
(7.33727 0.00415601 0)
(7.33835 0.00378774 0)
(7.3395 0.00336395 0)
(7.3407 0.00289004 0)
(7.34195 0.00237021 0)
(7.34323 0.00180763 0)
(7.34453 0.00120459 0)
(7.34584 0.000562647 0)
(7.34716 -0.000117229 0)
(7.34847 -0.000834551 0)
(7.34977 -0.00158922 0)
(7.35107 -0.0023814 0)
(7.35234 -0.00321148 0)
(7.35359 -0.00407992 0)
(7.35481 -0.00498727 0)
(7.356 -0.00593397 0)
(7.35715 -0.00692031 0)
(7.35827 -0.00794617 0)
(7.35934 -0.0090107 0)
(7.36038 -0.0101116 0)
(7.36137 -0.0112437 0)
(7.33299 0.000540828 0)
(7.33287 0.00163558 0)
(7.33262 0.00261192 0)
(7.33233 0.00339327 0)
(7.33209 0.00396605 0)
(7.33195 0.00434069 0)
(7.33195 0.00453791 0)
(7.33211 0.00458299 0)
(7.33244 0.0045006 0)
(7.33292 0.00431236 0)
(7.33355 0.00403639 0)
(7.33432 0.0036874 0)
(7.3352 0.00327707 0)
(7.33618 0.00281448 0)
(7.33724 0.00230656 0)
(7.33836 0.00175848 0)
(7.33954 0.001174 0)
(7.34076 0.00055574 0)
(7.34201 -9.45834e-05 0)
(7.34327 -0.000775975 0)
(7.34455 -0.00148798 0)
(7.34582 -0.00223058 0)
(7.34709 -0.00300407 0)
(7.34834 -0.00380894 0)
(7.34958 -0.00464583 0)
(7.35079 -0.00551544 0)
(7.35197 -0.00641846 0)
(7.35313 -0.00735548 0)
(7.35425 -0.0083269 0)
(7.35533 -0.00933275 0)
(7.35636 -0.0103723 0)
(7.35736 -0.0114436 0)
(7.35831 -0.0125417 0)
(7.33299 0.000604675 0)
(7.33274 0.0018333 0)
(7.33225 0.0028927 0)
(7.33167 0.00368689 0)
(7.33111 0.00421208 0)
(7.33067 0.00449333 0)
(7.33039 0.00456623 0)
(7.3303 0.00446965 0)
(7.33041 0.00423885 0)
(7.3307 0.003903 0)
(7.33118 0.00348531 0)
(7.33181 0.00300376 0)
(7.33258 0.00247188 0)
(7.33346 0.00189959 0)
(7.33445 0.00129398 0)
(7.33551 0.000659982 0)
(7.33664 8.37476e-07 0)
(7.33782 -0.000681472 0)
(7.33903 -0.00138592 0)
(7.34027 -0.0021122 0)
(7.34152 -0.00286048 0)
(7.34277 -0.00363134 0)
(7.34402 -0.00442557 0)
(7.34526 -0.00524411 0)
(7.34647 -0.00608798 0)
(7.34767 -0.0069582 0)
(7.34884 -0.00785574 0)
(7.34997 -0.00878141 0)
(7.35107 -0.00973585 0)
(7.35213 -0.0107193 0)
(7.35315 -0.0117313 0)
(7.35412 -0.0127702 0)
(7.35505 -0.0138316 0)
(7.33297 0.000729732 0)
(7.33253 0.00220703 0)
(7.33168 0.00342304 0)
(7.33066 0.00426299 0)
(7.32968 0.00474497 0)
(7.32884 0.00491786 0)
(7.3282 0.00483985 0)
(7.32781 0.00456966 0)
(7.32767 0.0041571 0)
(7.32777 0.00364119 0)
(7.32809 0.00305167 0)
(7.3286 0.00241048 0)
(7.32927 0.00173322 0)
(7.33009 0.00103062 0)
(7.33103 0.000309766 0)
(7.33207 -0.000424901 0)
(7.33317 -0.00117092 0)
(7.33434 -0.00192723 0)
(7.33555 -0.00269373 0)
(7.33679 -0.00347103 0)
(7.33804 -0.00426017 0)
(7.3393 -0.00506247 0)
(7.34056 -0.00587944 0)
(7.3418 -0.0067126 0)
(7.34303 -0.0075635 0)
(7.34423 -0.00843361 0)
(7.3454 -0.00932428 0)
(7.34654 -0.0102367 0)
(7.34764 -0.0111718 0)
(7.3487 -0.0121302 0)
(7.34972 -0.0131117 0)
(7.35069 -0.0141152 0)
(7.35161 -0.0151368 0)
(7.33295 0.000960071 0)
(7.33217 0.00286742 0)
(7.33075 0.00433946 0)
(7.3291 0.00525658 0)
(7.32752 0.00568305 0)
(7.32616 0.00570773 0)
(7.3251 0.00542545 0)
(7.32437 0.00492494 0)
(7.32398 0.00427614 0)
(7.32389 0.00353068 0)
(7.32408 0.00272596 0)
(7.32451 0.0018881 0)
(7.32514 0.00103441 0)
(7.32594 0.000175824 0)
(7.32688 -0.000681226 0)
(7.32793 -0.00153347 0)
(7.32906 -0.00237982 0)
(7.33026 -0.00322062 0)
(7.33151 -0.00405718 0)
(7.33279 -0.00489139 0)
(7.33409 -0.00572547 0)
(7.33539 -0.00656181 0)
(7.33669 -0.00740279 0)
(7.33798 -0.00825078 0)
(7.33924 -0.00910799 0)
(7.34048 -0.0099765 0)
(7.34169 -0.0108582 0)
(7.34286 -0.0117547 0)
(7.34399 -0.0126674 0)
(7.34508 -0.0135972 0)
(7.34612 -0.0145447 0)
(7.34711 -0.015509 0)
(7.34805 -0.0164869 0)
(7.3329 0.00138372 0)
(7.33152 0.0040095 0)
(7.32919 0.00585865 0)
(7.32661 0.0068626 0)
(7.32423 0.00718042 0)
(7.32223 0.0069689 0)
(7.32068 0.00638355 0)
(7.31962 0.00555865 0)
(7.31901 0.00459057 0)
(7.3188 0.00354521 0)
(7.31893 0.00246747 0)
(7.31935 0.00138639 0)
(7.32001 0.000319372 0)
(7.32087 -0.000724107 0)
(7.32188 -0.00173975 0)
(7.32301 -0.00272665 0)
(7.32424 -0.00368608 0)
(7.32554 -0.00462065 0)
(7.32688 -0.00553371 0)
(7.32826 -0.00642897 0)
(7.32965 -0.00731024 0)
(7.33105 -0.0081813 0)
(7.33243 -0.00904575 0)
(7.3338 -0.00990697 0)
(7.33515 -0.0107681 0)
(7.33646 -0.0116319 0)
(7.33774 -0.0125009 0)
(7.33898 -0.0133774 0)
(7.34017 -0.0142633 0)
(7.34131 -0.01516 0)
(7.3424 -0.0160685 0)
(7.34344 -0.0169887 0)
(7.34443 -0.0179182 0)
(7.33278 0.00218795 0)
(7.33031 0.00599532 0)
(7.3265 0.00833278 0)
(7.32259 0.00935433 0)
(7.31918 0.0094152 0)
(7.31644 0.00878967 0)
(7.31442 0.00773185 0)
(7.3131 0.00643944 0)
(7.31238 0.00503728 0)
(7.31216 0.00360254 0)
(7.31237 0.00218352 0)
(7.31291 0.000808014 0)
(7.31372 -0.000510359 0)
(7.31474 -0.00176666 0)
(7.31593 -0.0029611 0)
(7.31725 -0.00409691 0)
(7.31866 -0.0051791 0)
(7.32014 -0.00621355 0)
(7.32166 -0.00720642 0)
(7.3232 -0.00816383 0)
(7.32476 -0.00909166 0)
(7.3263 -0.00999542 0)
(7.32784 -0.0108802 0)
(7.32934 -0.0117506 0)
(7.33082 -0.0126108 0)
(7.33225 -0.0134645 0)
(7.33365 -0.014315 0)
(7.33499 -0.0151653 0)
(7.33628 -0.0160178 0)
(7.33751 -0.0168746 0)
(7.33869 -0.0177372 0)
(7.33981 -0.0186063 0)
(7.34087 -0.0194802 0)
(7.33249 0.00373397 0)
(7.32795 0.00947257 0)
(7.32174 0.0123431 0)
(7.31601 0.0131346 0)
(7.3114 0.0125952 0)
(7.30795 0.0112156 0)
(7.30562 0.00940952 0)
(7.30425 0.00744699 0)
(7.30363 0.00546641 0)
(7.30363 0.00354157 0)
(7.3041 0.00171308 0)
(7.30495 -1.57331e-06 0)
(7.30608 -0.00159958 0)
(7.30743 -0.00308552 0)
(7.30895 -0.00446753 0)
(7.31058 -0.00575541 0)
(7.3123 -0.00695964 0)
(7.31407 -0.00809057 0)
(7.31587 -0.00915807 0)
(7.31768 -0.0101713 0)
(7.31948 -0.0111386 0)
(7.32126 -0.0120676 0)
(7.32302 -0.0129649 0)
(7.32473 -0.0138368 0)
(7.3264 -0.0146884 0)
(7.32802 -0.0155244 0)
(7.32959 -0.0163491 0)
(7.33109 -0.0171659 0)
(7.33254 -0.017978 0)
(7.33391 -0.018788 0)
(7.33522 -0.019598 0)
(7.33647 -0.0204094 0)
(7.33764 -0.0212215 0)
(7.33193 0.00663489 0)
(7.32329 0.0152771 0)
(7.31324 0.0184582 0)
(7.30521 0.0185349 0)
(7.29941 0.0168307 0)
(7.29555 0.014173 0)
(7.2933 0.0112276 0)
(7.29228 0.00832614 0)
(7.29215 0.00557882 0)
(7.29271 0.0030301 0)
(7.29377 0.000698872 0)
(7.2952 -0.00141782 0)
(7.29692 -0.00333616 0)
(7.29883 -0.00507596 0)
(7.30089 -0.0066571 0)
(7.30303 -0.00809882 0)
(7.30523 -0.00941922 0)
(7.30746 -0.0106349 0)
(7.30969 -0.0117608 0)
(7.3119 -0.0128102 0)
(7.31409 -0.0137949 0)
(7.31623 -0.014725 0)
(7.31832 -0.0156098 0)
(7.32035 -0.016457 0)
(7.32232 -0.0172735 0)
(7.32421 -0.0180653 0)
(7.32604 -0.0188376 0)
(7.32778 -0.0195948 0)
(7.32945 -0.0203407 0)
(7.33105 -0.0210788 0)
(7.33256 -0.0218118 0)
(7.33399 -0.0225419 0)
(7.33534 -0.0232699 0)
(7.33069 0.013431 0)
(7.31367 0.025196 0)
(7.29797 0.0266951 0)
(7.28752 0.0249656 0)
(7.28096 0.0216091 0)
(7.27732 0.0174672 0)
(7.27589 0.0133724 0)
(7.27592 0.00961619 0)
(7.27691 0.00619943 0)
(7.27859 0.00310279 0)
(7.28076 0.000314031 0)
(7.28328 -0.00218973 0)
(7.28602 -0.00443914 0)
(7.28891 -0.00646377 0)
(7.29188 -0.0082899 0)
(7.29489 -0.00994158 0)
(7.29791 -0.0114409 0)
(7.30089 -0.0128079 0)
(7.30383 -0.0140602 0)
(7.30671 -0.0152134 0)
(7.30952 -0.0162813 0)
(7.31224 -0.0172761 0)
(7.31487 -0.0182085 0)
(7.3174 -0.0190877 0)
(7.31984 -0.0199218 0)
(7.32218 -0.020718 0)
(7.32441 -0.0214824 0)
(7.32655 -0.0222203 0)
(7.32858 -0.0229365 0)
(7.3305 -0.0236348 0)
(7.33233 -0.0243186 0)
(7.33405 -0.0249905 0)
(7.33567 -0.025652 0)
(7.32456 0.0347101 0)
(7.28958 0.0466959 0)
(7.26764 0.0370675 0)
(7.25764 0.0262351 0)
(7.25262 0.0166934 0)
(7.25093 0.00870573 0)
(7.25183 0.00245045 0)
(7.25421 -0.00240644 0)
(7.25743 -0.00625977 0)
(7.26123 -0.00934652 0)
(7.26543 -0.0118361 0)
(7.26989 -0.0138691 0)
(7.27447 -0.0155557 0)
(7.2791 -0.0169754 0)
(7.28371 -0.0181857 0)
(7.28825 -0.0192308 0)
(7.2927 -0.0201456 0)
(7.29703 -0.0209572 0)
(7.30122 -0.021687 0)
(7.30526 -0.0223518 0)
(7.30916 -0.022965 0)
(7.31289 -0.0235374 0)
(7.31647 -0.0240778 0)
(7.31988 -0.024593 0)
(7.32313 -0.0250889 0)
(7.32623 -0.0255701 0)
(7.32918 -0.0260405 0)
(7.33197 -0.0265032 0)
(7.33461 -0.026961 0)
(7.33711 -0.0274162 0)
(7.33947 -0.0278711 0)
(7.34169 -0.0283279 0)
(7.34378 -0.0287892 0)
(7.29575 0.0823944 0)
(7.21821 0.1272 0)
(7.18679 0.128795 0)
(7.18644 0.114361 0)
(7.19336 0.0947623 0)
(7.20245 0.0767175 0)
(7.21291 0.0615025 0)
(7.22369 0.0482893 0)
(7.23437 0.0366546 0)
(7.24488 0.0265092 0)
(7.25512 0.0177746 0)
(7.26497 0.0102962 0)
(7.27438 0.00390636 0)
(7.28331 -0.0015437 0)
(7.29178 -0.00618593 0)
(7.29978 -0.0101396 0)
(7.30733 -0.0135101 0)
(7.31444 -0.0163881 0)
(7.32113 -0.0188506 0)
(7.32743 -0.0209631 0)
(7.33335 -0.0227808 0)
(7.33891 -0.0243504 0)
(7.34413 -0.0257111 0)
(7.34902 -0.0268962 0)
(7.35361 -0.0279334 0)
(7.35791 -0.0288464 0)
(7.36193 -0.0296549 0)
(7.36568 -0.0303757 0)
(7.36919 -0.0310227 0)
(7.37246 -0.0316076 0)
(7.37551 -0.0321404 0)
(7.37833 -0.0326284 0)
(7.38095 -0.0330805 0)
(7.32909 -0.158988 0)
(7.19612 -0.292904 0)
(7.13084 -0.29232 0)
(7.10897 -0.259661 0)
(7.1097 -0.226698 0)
(7.13035 -0.195775 0)
(7.16105 -0.167871 0)
(7.1944 -0.144144 0)
(7.22754 -0.124681 0)
(7.25927 -0.10881 0)
(7.28879 -0.0958403 0)
(7.31571 -0.0852502 0)
(7.33996 -0.0766187 0)
(7.3617 -0.0695805 0)
(7.38108 -0.0638286 0)
(7.39832 -0.059116 0)
(7.41361 -0.0552457 0)
(7.42713 -0.0520596 0)
(7.43908 -0.04943 0)
(7.44961 -0.0472544 0)
(7.45888 -0.0454502 0)
(7.46701 -0.0439512 0)
(7.47413 -0.0427036 0)
(7.48034 -0.0416642 0)
(7.48573 -0.0407977 0)
(7.49038 -0.0400755 0)
(7.49438 -0.0394743 0)
(7.49778 -0.0389749 0)
(7.50065 -0.0385616 0)
(7.50304 -0.0382213 0)
(7.505 -0.0379427 0)
(7.50657 -0.0377169 0)
(7.50781 -0.037532 0)
(7.33045 1.21807 0)
(7.6376 1.24116 0)
(7.81728 0.934085 0)
(7.87342 0.662118 0)
(7.88529 0.462333 0)
(7.87658 0.320582 0)
(7.85209 0.220083 0)
(7.81679 0.148038 0)
(7.77601 0.0957882 0)
(7.73324 0.0576154 0)
(7.69007 0.0296016 0)
(7.6473 0.00897164 0)
(7.60544 -0.00625277 0)
(7.56484 -0.0174826 0)
(7.52569 -0.0257348 0)