/*--------------------------------*- C++ -*----------------------------------*\
  =========                 |
  \\      /  F ield         | OpenFOAM: The Open Source CFD Toolbox
   \\    /   O peration     | Website:  https://openfoam.org
    \\  /    A nd           | Version:  10
     \\/     M anipulation  |
\*---------------------------------------------------------------------------*/
FoamFile
{
    format      ascii;
    class       volScalarField;
    location    "900";
    object      k;
}
// * * * * * * * * * * * * * * * * * * * * * * * * * * * * * * * * * * * * * //

dimensions      [0 2 -2 0 0 0 0];

internalField   nonuniform List<scalar> 
6820
(
0.19714
0.192517
0.18828
0.184032
0.179769
0.175612
0.171677
0.168043
0.164747
0.161799
0.159191
0.156907
0.154922
0.153212
0.151752
0.150516
0.149481
0.148628
0.147936
0.147387
0.146965
0.146658
0.14645
0.146332
0.146292
0.146322
0.146411
0.146574
0.14664
0.147531
0.145868
0.149766
0.130401
0.207249
0.212376
0.210055
0.205415
0.200992
0.197546
0.195134
0.193603
0.192764
0.192453
0.192542
0.192932
0.193552
0.194345
0.19527
0.196296
0.197398
0.198556
0.199755
0.200982
0.202227
0.203484
0.204745
0.206006
0.207266
0.208524
0.209783
0.211053
0.212336
0.213831
0.214896
0.217342
0.219278
0.200993
0.203848
0.204552
0.203319
0.201178
0.198804
0.196517
0.19445
0.192646
0.19111
0.189829
0.188783
0.187951
0.187311
0.186841
0.186521
0.186333
0.186261
0.18629
0.186408
0.186604
0.186866
0.187188
0.18756
0.187977
0.188434
0.188927
0.189458
0.190015
0.190651
0.191271
0.192016
0.19293
0.199593
0.199508
0.199518
0.199121
0.198258
0.197061
0.195675
0.194213
0.192747
0.191324
0.189972
0.188706
0.187534
0.18646
0.185482
0.184599
0.183805
0.183097
0.182468
0.181914
0.18143
0.18101
0.180649
0.180344
0.180089
0.179882
0.17972
0.179601
0.179523
0.179494
0.179504
0.179557
0.179677
0.199411
0.198475
0.197748
0.197076
0.196333
0.195471
0.194494
0.193432
0.192315
0.191174
0.190031
0.188903
0.187803
0.18674
0.185719
0.184745
0.183819
0.182943
0.182115
0.181337
0.180605
0.179919
0.179277
0.178678
0.178119
0.177599
0.177116
0.17667
0.17626
0.175885
0.175546
0.175241
0.174972
0.199394
0.198255
0.197227
0.19629
0.195404
0.194526
0.193632
0.192711
0.191766
0.190801
0.189826
0.188849
0.187877
0.186918
0.185976
0.185056
0.184161
0.183293
0.182454
0.181644
0.180864
0.180115
0.179396
0.178707
0.178048
0.177417
0.176814
0.17624
0.175693
0.175173
0.174681
0.174215
0.173775
0.199394
0.198216
0.197096
0.196039
0.195039
0.194083
0.193156
0.192245
0.191344
0.190447
0.189554
0.188666
0.187784
0.186911
0.18605
0.185202
0.184369
0.183554
0.182757
0.181979
0.181223
0.180487
0.179772
0.179078
0.178407
0.177756
0.177128
0.17652
0.175934
0.175368
0.174824
0.174301
0.173798
0.199395
0.19821
0.197068
0.19597
0.194919
0.193911
0.192942
0.192005
0.191095
0.190207
0.189337
0.188484
0.187645
0.186819
0.186008
0.185211
0.184429
0.183661
0.182909
0.182173
0.181454
0.18075
0.180064
0.179395
0.178742
0.178107
0.177489
0.176888
0.176304
0.175737
0.175187
0.174654
0.174138
0.199395
0.198209
0.197062
0.195954
0.194886
0.193855
0.192862
0.191903
0.190976
0.190078
0.189205
0.188357
0.18753
0.186723
0.185934
0.185163
0.184409
0.183672
0.182951
0.182246
0.181557
0.180883
0.180224
0.179581
0.178954
0.178341
0.177744
0.177161
0.176593
0.17604
0.175502
0.174979
0.17447
0.199395
0.198209
0.197061
0.195951
0.194877
0.193839
0.192835
0.191865
0.190927
0.190019
0.189139
0.188286
0.187459
0.186654
0.185872
0.18511
0.184368
0.183645
0.18294
0.182253
0.181582
0.180927
0.180288
0.179665
0.179057
0.178463
0.177884
0.177319
0.176768
0.176232
0.175709
0.175199
0.174703
0.199395
0.198209
0.197061
0.19595
0.194875
0.193834
0.192827
0.191853
0.190909
0.189996
0.189111
0.188254
0.187422
0.186616
0.185833
0.185072
0.184334
0.183615
0.182916
0.182236
0.181574
0.180929
0.180301
0.179689
0.179092
0.178511
0.177945
0.177392
0.176854
0.17633
0.175819
0.175322
0.174837
0.199395
0.198209
0.19706
0.195949
0.194874
0.193833
0.192825
0.191849
0.190903
0.189987
0.1891
0.18824
0.187406
0.186597
0.185812
0.185051
0.184312
0.183594
0.182896
0.182218
0.181559
0.180918
0.180294
0.179687
0.179097
0.178522
0.177962
0.177417
0.176886
0.17637
0.175867
0.175377
0.174901
0.199395
0.198209
0.19706
0.195949
0.194873
0.193832
0.192823
0.191847
0.190901
0.189984
0.189095
0.188234
0.187399
0.186588
0.185803
0.18504
0.1843
0.183581
0.182883
0.182205
0.181547
0.180906
0.180284
0.179679
0.179091
0.178518
0.177962
0.17742
0.176893
0.17638
0.175881
0.175396
0.174923
0.199395
0.198209
0.19706
0.195948
0.194873
0.193831
0.192823
0.191846
0.190899
0.189982
0.189093
0.188231
0.187395
0.186584
0.185798
0.185034
0.184293
0.183574
0.182876
0.182197
0.181538
0.180898
0.180276
0.179671
0.179084
0.178512
0.177956
0.177416
0.17689
0.176379
0.175882
0.175398
0.174928
0.199395
0.198208
0.19706
0.195948
0.194872
0.193831
0.192822
0.191845
0.190898
0.189981
0.189092
0.188229
0.187393
0.186582
0.185795
0.185031
0.18429
0.18357
0.182871
0.182193
0.181534
0.180893
0.180271
0.179666
0.179078
0.178506
0.177951
0.177411
0.176885
0.176375
0.175878
0.175395
0.174925
0.199395
0.198208
0.19706
0.195948
0.194872
0.19383
0.192821
0.191844
0.190898
0.18998
0.189091
0.188228
0.187392
0.18658
0.185793
0.185029
0.184288
0.183568
0.182869
0.18219
0.18153
0.18089
0.180267
0.179662
0.179074
0.178502
0.177947
0.177406
0.176881
0.17637
0.175873
0.17539
0.17492
0.199395
0.198208
0.19706
0.195948
0.194872
0.19383
0.192821
0.191844
0.190897
0.189979
0.18909
0.188227
0.18739
0.186579
0.185792
0.185027
0.184286
0.183566
0.182866
0.182187
0.181528
0.180887
0.180264
0.179659
0.179071
0.178499
0.177943
0.177403
0.176877
0.176366
0.175869
0.175385
0.174915
0.199395
0.198208
0.19706
0.195948
0.194872
0.19383
0.192821
0.191843
0.190896
0.189978
0.189089
0.188226
0.187389
0.186578
0.18579
0.185026
0.184284
0.183564
0.182865
0.182185
0.181526
0.180885
0.180262
0.179656
0.179068
0.178496
0.17794
0.177399
0.176874
0.176362
0.175865
0.175381
0.174911
0.199395
0.198208
0.197059
0.195948
0.194871
0.193829
0.19282
0.191843
0.190896
0.189978
0.189088
0.188225
0.187388
0.186577
0.185789
0.185025
0.184283
0.183562
0.182863
0.182184
0.181524
0.180883
0.18026
0.179654
0.179066
0.178494
0.177937
0.177397
0.176871
0.176359
0.175862
0.175378
0.174907
0.199395
0.198208
0.197059
0.195948
0.194871
0.193829
0.19282
0.191842
0.190895
0.189977
0.189087
0.188224
0.187387
0.186576
0.185788
0.185023
0.184281
0.183561
0.182861
0.182182
0.181522
0.180881
0.180258
0.179652
0.179063
0.178491
0.177935
0.177394
0.176868
0.176356
0.175858
0.175374
0.174903
0.199395
0.198208
0.197059
0.195947
0.194871
0.193829
0.19282
0.191842
0.190895
0.189977
0.189087
0.188224
0.187387
0.186575
0.185787
0.185022
0.18428
0.18356
0.18286
0.18218
0.18152
0.180879
0.180256
0.17965
0.179061
0.178489
0.177933
0.177391
0.176865
0.176353
0.175855
0.175371
0.174899
0.199395
0.198208
0.197059
0.195947
0.194871
0.193829
0.192819
0.191842
0.190894
0.189976
0.189086
0.188223
0.187386
0.186574
0.185786
0.185021
0.184279
0.183559
0.182859
0.182179
0.181519
0.180877
0.180254
0.179648
0.179059
0.178487
0.17793
0.177389
0.176863
0.17635
0.175852
0.175368
0.174896
0.199395
0.198208
0.197059
0.195947
0.194871
0.193829
0.192819
0.191842
0.190894
0.189976
0.189086
0.188223
0.187385
0.186573
0.185785
0.185021
0.184278
0.183557
0.182858
0.182178
0.181518
0.180876
0.180253
0.179647
0.179058
0.178485
0.177928
0.177387
0.17686
0.176348
0.175849
0.175365
0.174893
0.199395
0.198208
0.197059
0.195947
0.194871
0.193829
0.192819
0.191841
0.190894
0.189976
0.189085
0.188222
0.187385
0.186573
0.185785
0.18502
0.184277
0.183557
0.182857
0.182177
0.181516
0.180875
0.180251
0.179645
0.179056
0.178483
0.177926
0.177385
0.176858
0.176345
0.175847
0.175362
0.17489
0.199395
0.198208
0.197059
0.195947
0.194871
0.193828
0.192819
0.191841
0.190894
0.189975
0.189085
0.188222
0.187384
0.186572
0.185784
0.185019
0.184277
0.183556
0.182856
0.182176
0.181515
0.180873
0.18025
0.179644
0.179054
0.178482
0.177924
0.177383
0.176856
0.176343
0.175844
0.175359
0.174887
0.199395
0.198208
0.197059
0.195947
0.194871
0.193828
0.192819
0.191841
0.190893
0.189975
0.189085
0.188221
0.187384
0.186572
0.185784
0.185019
0.184276
0.183555
0.182855
0.182175
0.181514
0.180872
0.180249
0.179642
0.179053
0.17848
0.177923
0.177381
0.176854
0.176341
0.175842
0.175357
0.174884
0.199395
0.198208
0.197059
0.195947
0.194871
0.193828
0.192819
0.191841
0.190893
0.189975
0.189084
0.188221
0.187384
0.186571
0.185783
0.185018
0.184275
0.183554
0.182854
0.182174
0.181513
0.180872
0.180248
0.179641
0.179052
0.178479
0.177921
0.177379
0.176852
0.176339
0.17584
0.175354
0.174882
0.199395
0.198208
0.197059
0.195947
0.194871
0.193828
0.192819
0.191841
0.190893
0.189975
0.189084
0.188221
0.187384
0.186571
0.185783
0.185018
0.184275
0.183554
0.182854
0.182174
0.181513
0.180871
0.180247
0.17964
0.179051
0.178477
0.17792
0.177378
0.17685
0.176337
0.175838
0.175352
0.174879
0.199395
0.198208
0.197059
0.195947
0.194871
0.193828
0.192819
0.191841
0.190893
0.189975
0.189084
0.188221
0.187383
0.186571
0.185783
0.185017
0.184275
0.183554
0.182853
0.182173
0.181512
0.18087
0.180246
0.17964
0.17905
0.178476
0.177919
0.177377
0.176849
0.176336
0.175836
0.17535
0.174877
0.199395
0.198208
0.197059
0.195947
0.194871
0.193828
0.192819
0.191841
0.190893
0.189975
0.189084
0.188221
0.187383
0.186571
0.185782
0.185017
0.184275
0.183553
0.182853
0.182173
0.181512
0.18087
0.180246
0.179639
0.179049
0.178476
0.177918
0.177376
0.176848
0.176335
0.175835
0.175349
0.174876
0.199395
0.198208
0.197059
0.195947
0.194871
0.193828
0.192819
0.191841
0.190893
0.189975
0.189084
0.188221
0.187383
0.186571
0.185782
0.185017
0.184274
0.183553
0.182853
0.182173
0.181512
0.180869
0.180245
0.179639
0.179049
0.178475
0.177917
0.177375
0.176847
0.176334
0.175834
0.175348
0.174875
0.199395
0.198208
0.197059
0.195947
0.194871
0.193828
0.192819
0.191841
0.190893
0.189975
0.189084
0.188221
0.187384
0.186571
0.185783
0.185018
0.184275
0.183554
0.182853
0.182173
0.181512
0.18087
0.180246
0.179639
0.179049
0.178476
0.177918
0.177375
0.176847
0.176334
0.175834
0.175347
0.174874
0.199395
0.198208
0.197059
0.195947
0.194871
0.193828
0.192819
0.191841
0.190893
0.189975
0.189085
0.188221
0.187384
0.186572
0.185783
0.185018
0.184276
0.183555
0.182854
0.182174
0.181513
0.180871
0.180247
0.17964
0.17905
0.178476
0.177918
0.177375
0.176847
0.176333
0.175833
0.175346
0.174872
0.199395
0.198208
0.197059
0.195947
0.194871
0.193829
0.19282
0.191842
0.190895
0.189977
0.189088
0.188225
0.187388
0.186576
0.185789
0.185024
0.184281
0.18356
0.18286
0.182179
0.181518
0.180875
0.18025
0.179643
0.179052
0.178477
0.177917
0.177373
0.176843
0.176327
0.175825
0.175336
0.17486
0.199395
0.198208
0.197059
0.195948
0.194872
0.193831
0.192824
0.191848
0.190902
0.189985
0.189097
0.188235
0.187399
0.186587
0.1858
0.185034
0.184291
0.183568
0.182866
0.182183
0.181519
0.180873
0.180245
0.179633
0.179037
0.178457
0.177893
0.177342
0.176807
0.176285
0.175776
0.17528
0.174796
0.199395
0.198209
0.197062
0.195955
0.194886
0.193853
0.192853
0.191884
0.190944
0.190032
0.189145
0.188283
0.187445
0.186629
0.185836
0.185063
0.184311
0.183579
0.182866
0.182171
0.181494
0.180834
0.180191
0.179564
0.178952
0.178356
0.177775
0.177208
0.176655
0.176115
0.175588
0.175075
0.174573
0.199395
0.198223
0.197107
0.196032
0.194988
0.193971
0.192978
0.192008
0.191061
0.190136
0.189233
0.188352
0.187492
0.186652
0.185832
0.185032
0.184252
0.18349
0.182746
0.182021
0.181312
0.18062
0.179945
0.179286
0.178642
0.178013
0.177398
0.176798
0.176212
0.175639
0.17508
0.174533
0.173999
0.19941
0.198318
0.197296
0.1963
0.195309
0.194317
0.193327
0.192343
0.191371
0.190414
0.189475
0.188557
0.18766
0.186784
0.18593
0.185097
0.184285
0.183492
0.182719
0.181965
0.181229
0.18051
0.179809
0.179124
0.178455
0.177801
0.177162
0.176539
0.175929
0.175333
0.174751
0.174182
0.173626
0.199716
0.19914
0.198471
0.197766
0.197074
0.196422
0.195815
0.195255
0.19474
0.194268
0.193838
0.193449
0.193099
0.192785
0.192506
0.192259
0.192043
0.191856
0.191696
0.19156
0.191447
0.191355
0.191283
0.191228
0.191191
0.191169
0.191161
0.191166
0.191183
0.191211
0.191249
0.191298
0.191354
0.205424
0.216593
0.22763
0.238435
0.248976
0.259243
0.269229
0.278925
0.288324
0.297421
0.306212
0.314695
0.322869
0.330736
0.338299
0.34556
0.352525
0.359199
0.365589
0.371702
0.377545
0.383125
0.388452
0.393534
0.398379
0.402996
0.407393
0.411579
0.415563
0.419352
0.422956
0.426381
0.429639
0.397414
0.559482
0.788128
1.11553
1.42455
1.64654
1.7872
1.86913
1.90801
1.91651
1.90732
1.89082
1.87326
1.85725
1.8432
1.8306
1.81879
1.80735
1.79625
1.7858
1.77648
1.76869
1.76244
1.75724
1.75211
1.74589
1.73761
1.72704
1.71508
1.70385
1.69638
1.6957
1.70362
1.71956
1.74008
1.75956
1.77166
1.77108
1.75471
1.72223
1.6762
1.6217
1.56571
1.51597
1.47927
1.45934
1.45538
1.46216
1.47194
1.4769
1.47119
1.45178
1.41833
1.37273
1.31841
1.25981
1.20205
1.1506
1.11086
1.08739
1.08282
1.0967
1.12521
1.1622
1.20094
1.23576
1.2629
1.28058
1.28859
1.28782
1.27983
1.26643
1.24951
1.2308
1.21175
1.19338
1.17625
1.16038
1.14538
1.13056
1.11511
1.09827
1.07942
1.05814
1.03419
1.00751
0.978144
0.946226
0.911909
0.875362
0.836733
0.79609
0.753198
0.707014
0.655441
0.598777
0.551619
0.546794
0.596571
0.693151
0.23452
0.248256
0.273584
0.33447
0.433914
0.553389
0.675121
0.79042
0.896086
0.990564
1.07317
1.14409
1.20439
1.25552
1.29884
1.33526
1.36542
1.38992
1.40952
1.42524
1.43818
1.44922
1.4588
1.46672
1.47222
1.47423
1.47188
1.46503
1.45467
1.44308
1.43357
1.42971
1.43407
1.44696
1.46566
1.48483
1.4979
1.49894
1.48415
1.45263
1.4065
1.3505
1.29142
1.23704
1.19469
1.16925
1.16145
1.16727
1.17939
1.18968
1.19146
1.18076
1.1565
1.11996
1.07416
1.02321
0.97188
0.925292
0.888601
0.866468
0.862079
0.875944
0.905258
0.944501
0.987097
1.02714
1.06045
1.08481
1.09966
1.10564
1.10411
1.0968
1.08554
1.07208
1.05789
1.04404
1.03117
1.01938
1.00834
0.99742
0.98583
0.972812
0.957741
0.940181
0.919891
0.8968
0.870959
0.842499
0.811597
0.77845
0.743252
0.706138
0.666974
0.624834
0.577727
0.526154
0.485653
0.490352
0.550094
0.654732
0.194483
0.195807
0.197889
0.204026
0.216931
0.236778
0.261891
0.290367
0.321268
0.355523
0.394786
0.440681
0.493799
0.553189
0.616542
0.680836
0.743116
0.801113
0.853571
0.900229
0.941527
0.978162
1.01065
1.03899
1.06265
1.08073
1.09242
1.09754
1.09695
1.09276
1.08816
1.08685
1.09198
1.1049
1.12416
1.1454
1.16245
1.16914
1.16105
1.13651
1.09692
1.04634
0.990806
0.937453
0.893417
0.864336
0.85263
0.856365
0.869712
0.884966
0.894984
0.894868
0.882517
0.858356
0.824688
0.78502
0.743522
0.70466
0.672968
0.652778
0.647609
0.65911
0.686064
0.724341
0.768094
0.81146
0.849858
0.880505
0.902298
0.91543
0.920938
0.920337
0.915328
0.907588
0.898601
0.889512
0.881036
0.873407
0.866413
0.85951
0.851976
0.843072
0.832166
0.818801
0.802713
0.783806
0.76212
0.737783
0.710981
0.681932
0.650864
0.61798
0.583278
0.546064
0.504532
0.458787
0.42328
0.432472
0.496972
0.607775
0.179855
0.179973
0.180071
0.180506
0.181843
0.184453
0.188257
0.19294
0.198214
0.203987
0.210813
0.219591
0.231367
0.247094
0.267389
0.292352
0.321531
0.354056
0.388889
0.425089
0.461953
0.498979
0.535661
0.57122
0.604467
0.633901
0.658085
0.676135
0.688128
0.695296
0.699938
0.705069
0.713736
0.728026
0.74798
0.770988
0.792214
0.806022
0.807761
0.795103
0.768553
0.73116
0.687764
0.644097
0.605969
0.578461
0.564865
0.565498
0.577176
0.594089
0.609739
0.618846
0.618398
0.607778
0.588313
0.562621
0.533989
0.505938
0.481981
0.465552
0.459839
0.467208
0.48821
0.520864
0.560988
0.603471
0.643667
0.678265
0.70549
0.724901
0.73702
0.742978
0.744215
0.742249
0.738498
0.734133
0.72996
0.726353
0.723256
0.720261
0.716738
0.711996
0.705406
0.696485
0.684932
0.670615
0.653545
0.633833
0.611662
0.587255
0.560863
0.532737
0.503011
0.471289
0.436058
0.3967
0.364947
0.3742
0.438425
0.553205
0.174686
0.174356
0.174016
0.173704
0.173516
0.173568
0.173897
0.174455
0.17516
0.17594
0.176871
0.178139
0.179991
0.182692
0.186482
0.191544
0.197987
0.205849
0.215113
0.22575
0.237748
0.251128
0.265903
0.281964
0.298953
0.316178
0.332691
0.347525
0.360015
0.370066
0.378277
0.385901
0.394647
0.406226
0.421604
0.440181
0.459433
0.475472
0.484374
0.483573
0.47265
0.453292
0.428623
0.40235
0.378099
0.359081
0.347854
0.345818
0.352503
0.365275
0.380008
0.392428
0.399359
0.399338
0.392575
0.380517
0.3653
0.349275
0.334743
0.323912
0.318991
0.322127
0.334898
0.357481
0.388137
0.423559
0.459882
0.493708
0.522695
0.545672
0.562472
0.573648
0.5802
0.583338
0.584299
0.584185
0.583841
0.583763
0.58406
0.584492
0.584562
0.583655
0.581165
0.576591
0.569588
0.559974
0.547714
0.532886
0.51565
0.496221
0.47485
0.451812
0.427346
0.401367
0.372764
0.340257
0.311835
0.31775
0.376685
0.492491
0.173288
0.172744
0.172202
0.171665
0.171147
0.170674
0.170268
0.169929
0.169641
0.169382
0.169163
0.169027
0.169037
0.169263
0.169766
0.17059
0.171761
0.173288
0.17517
0.177408
0.180011
0.183007
0.186434
0.190328
0.194682
0.199414
0.204352
0.209253
0.213878
0.218073
0.221847
0.225415
0.229223
0.233903
0.240101
0.248112
0.257461
0.26675
0.274023
0.277535
0.276444
0.271054
0.262561
0.252548
0.24257
0.233982
0.227982
0.225599
0.227418
0.233149
0.241433
0.250183
0.257283
0.261253
0.261562
0.258557
0.253174
0.246602
0.240048
0.234661
0.231618
0.232242
0.237944
0.249815
0.268028
0.291494
0.318078
0.345227
0.370647
0.39272
0.41062
0.424233
0.433971
0.440576
0.444951
0.447999
0.450497
0.452992
0.455729
0.458642
0.4614
0.463505
0.464406
0.463604
0.460716
0.455502
0.447866
0.437834
0.425522
0.411116
0.394848
0.376982
0.357814
0.337507
0.315433
0.290013
0.265353
0.266135
0.315042
0.427811
0.173234
0.172602
0.171972
0.171345
0.170722
0.170107
0.169507
0.168925
0.168359
0.167805
0.167267
0.166755
0.166292
0.1659
0.165599
0.165404
0.165321
0.16535
0.165484
0.165719
0.16605
0.16648
0.167016
0.167666
0.168434
0.169313
0.170278
0.171284
0.172281
0.173228
0.174106
0.174936
0.175797
0.176833
0.178244
0.180214
0.182773
0.185684
0.188444
0.190452
0.19126
0.190732
0.189047
0.186574
0.18373
0.180916
0.178532
0.177023
0.176833
0.17823
0.181091
0.184852
0.188667
0.191719
0.193471
0.193781
0.192841
0.191055
0.188899
0.186861
0.185455
0.185302
0.187188
0.19198
0.200354
0.212449
0.227689
0.244891
0.262594
0.279427
0.294371
0.306872
0.316818
0.324451
0.330245
0.33479
0.338672
0.34238
0.346219
0.350265
0.354359
0.358157
0.361213
0.363067
0.363323
0.361693
0.358014
0.352241
0.344429
0.334713
0.323279
0.310356
0.29623
0.281213
0.265124
0.246546
0.226497
0.222369
0.257644
0.362155
0.173556
0.1729
0.172244
0.171589
0.170934
0.17028
0.169628
0.168979
0.168332
0.167687
0.167046
0.166412
0.165794
0.165202
0.164644
0.164127
0.163655
0.163226
0.16284
0.162492
0.162178
0.161898
0.16165
0.161437
0.16126
0.161119
0.161008
0.160919
0.160839
0.160755
0.160658
0.160546
0.160431
0.160349
0.160357
0.160527
0.160909
0.161489
0.162173
0.16281
0.163248
0.163383
0.163186
0.162685
0.16194
0.161025
0.160042
0.159142
0.158526
0.158401
0.158879
0.159905
0.161255
0.16262
0.163719
0.164379
0.164563
0.164338
0.163837
0.163221
0.162676
0.162441
0.162859
0.164382
0.167497
0.172562
0.179639
0.188428
0.198321
0.208568
0.218448
0.227409
0.235134
0.24155
0.246788
0.25112
0.254892
0.258447
0.262056
0.265865
0.269853
0.273844
0.277534
0.280561
0.282565
0.283242
0.28238
0.279866
0.275681
0.269889
0.262616
0.254028
0.244354
0.233933
0.2229
0.210298
0.195393
0.188329
0.208757
0.299255
0.173894
0.173243
0.172591
0.171937
0.171282
0.170625
0.169967
0.169306
0.168642
0.167976
0.167308
0.166639
0.165973
0.165314
0.164668
0.164038
0.163427
0.162835
0.162262
0.161707
0.161168
0.160645
0.160137
0.159644
0.159168
0.158707
0.158262
0.157828
0.1574
0.156973
0.156541
0.156101
0.155655
0.155214
0.154802
0.154452
0.154199
0.15406
0.154031
0.154078
0.15415
0.154195
0.154168
0.154032
0.153763
0.153349
0.152799
0.152153
0.151493
0.150931
0.150571
0.150468
0.150607
0.150905
0.151255
0.151558
0.15175
0.151808
0.151738
0.151567
0.15134
0.151129
0.151059
0.151323
0.152175
0.153869
0.156582
0.160329
0.16495
0.17014
0.175532
0.180777
0.185607
0.189869
0.193534
0.196678
0.199453
0.202048
0.20465
0.207398
0.210347
0.213445
0.21654
0.219399
0.221755
0.223346
0.223952
0.223422
0.221676
0.21871
0.214577
0.209374
0.203251
0.196482
0.189341
0.181371
0.171317
0.163877
0.171444
0.243124
0.174141
0.173504
0.172865
0.172224
0.17158
0.170933
0.170284
0.169631
0.168973
0.168311
0.167644
0.166973
0.1663
0.165627
0.164957
0.164293
0.163635
0.162986
0.162345
0.161714
0.161091
0.160477
0.159872
0.159276
0.158691
0.158116
0.15755
0.156992
0.156437
0.155881
0.155321
0.154754
0.154181
0.153609
0.153052
0.152531
0.152069
0.151688
0.151398
0.151197
0.151066
0.150974
0.150885
0.150756
0.15055
0.150234
0.149793
0.149233
0.148585
0.14791
0.147276
0.146746
0.146356
0.146107
0.145974
0.145917
0.145891
0.145861
0.1458
0.145688
0.145517
0.145292
0.145046
0.144848
0.144809
0.145067
0.145756
0.14696
0.148684
0.150844
0.153294
0.155857
0.158369
0.160707
0.162804
0.164653
0.166299
0.167825
0.169335
0.170923
0.172656
0.174548
0.176548
0.178545
0.180377
0.181865
0.182831
0.183129
0.182656
0.181361
0.179243
0.176336
0.172715
0.168558
0.164135
0.159345
0.153121
0.147119
0.146248
0.197125
0.174287
0.173665
0.17304
0.172412
0.171781
0.171148
0.170511
0.16987
0.169224
0.168573
0.167917
0.167256
0.166591
0.165924
0.165255
0.164587
0.163921
0.163258
0.162599
0.161943
0.161292
0.160647
0.160008
0.159375
0.158751
0.158133
0.157522
0.156917
0.156312
0.155706
0.155096
0.154479
0.153856
0.153234
0.152624
0.152042
0.151505
0.151032
0.150635
0.150317
0.150071
0.149874
0.149698
0.149507
0.149263
0.148936
0.148504
0.147965
0.147331
0.146636
0.145925
0.145247
0.144643
0.144138
0.143738
0.143434
0.143204
0.143019
0.142849
0.142666
0.142443
0.142165
0.141828
0.141449
0.141068
0.14075
0.140571
0.140601
0.140885
0.141428
0.142191
0.143107
0.144096
0.145081
0.146006
0.146841
0.147588
0.148271
0.148936
0.149634
0.150414
0.151305
0.152304
0.153373
0.154436
0.155389
0.156119
0.156514
0.156483
0.15596
0.154916
0.153347
0.151276
0.148795
0.146104
0.143277
0.139633
0.135623
0.131078
0.162889
0.17436
0.173747
0.173132
0.172515
0.171895
0.171272
0.170646
0.170016
0.169382
0.168743
0.168099
0.16745
0.166796
0.16614
0.165481
0.164821
0.16416
0.163499
0.16284
0.162183
0.161528
0.160876
0.160228
0.159586
0.158949
0.158318
0.157692
0.157069
0.156447
0.155823
0.155194
0.15456
0.153921
0.153284
0.152656
0.152052
0.151487
0.150974
0.150526
0.150144
0.149824
0.14955
0.149298
0.149038
0.14874
0.148376
0.147928
0.147389
0.146766
0.146078
0.145358
0.144641
0.143961
0.143346
0.142812
0.14236
0.141983
0.141663
0.141374
0.141089
0.140784
0.140435
0.140029
0.139562
0.139044
0.138502
0.137973
0.137501
0.137124
0.136869
0.136742
0.13673
0.136803
0.136928
0.137069
0.137203
0.137315
0.137406
0.137491
0.137591
0.137734
0.137941
0.138225
0.138579
0.138974
0.139362
0.139681
0.139861
0.139834
0.139547
0.138962
0.13806
0.136836
0.13533
0.133659
0.131946
0.129827
0.127477
0.12257
0.139814
0.174388
0.173781
0.173173
0.172562
0.171948
0.171332
0.170714
0.170091
0.169465
0.168835
0.168201
0.167562
0.166919
0.166273
0.165624
0.164973
0.164321
0.163668
0.163015
0.162363
0.161712
0.161063
0.160417
0.159775
0.159137
0.158504
0.157874
0.157247
0.15662
0.155991
0.155359
0.154721
0.154081
0.153442
0.152813
0.152203
0.151626
0.151093
0.150613
0.150189
0.149816
0.149482
0.149168
0.14885
0.148501
0.148101
0.147633
0.14709
0.146476
0.145805
0.145099
0.144383
0.143686
0.143031
0.142433
0.1419
0.141429
0.141009
0.140622
0.140245
0.139858
0.139439
0.138972
0.138449
0.137868
0.137238
0.136576
0.135904
0.13525
0.134635
0.134077
0.133583
0.133149
0.132767
0.132422
0.132099
0.131788
0.131482
0.131182
0.130895
0.130632
0.130405
0.130225
0.130096
0.130012
0.129952
0.12989
0.129785
0.129599
0.129291
0.128832
0.1282
0.127382
0.126388
0.125277
0.124154
0.122847
0.121536
0.117732
0.125607
0.174394
0.17379
0.173184
0.172577
0.171967
0.171354
0.170739
0.170122
0.169501
0.168876
0.168248
0.167616
0.16698
0.166342
0.165701
0.165057
0.164413
0.163767
0.163121
0.162475
0.16183
0.161186
0.160544
0.159905
0.15927
0.158638
0.158008
0.157381
0.156754
0.156126
0.155495
0.15486
0.154224
0.153589
0.152963
0.152354
0.151771
0.151226
0.150723
0.150267
0.149853
0.149471
0.149106
0.148738
0.148348
0.147917
0.147431
0.146886
0.146281
0.145628
0.144942
0.144243
0.143553
0.142888
0.142265
0.141689
0.14116
0.140673
0.140213
0.139764
0.139308
0.138828
0.13831
0.137744
0.137126
0.136458
0.135746
0.135003
0.134243
0.133484
0.132738
0.132019
0.131331
0.130677
0.130054
0.129457
0.128881
0.12832
0.127772
0.127237
0.126719
0.126224
0.125756
0.125322
0.124921
0.124549
0.124194
0.12384
0.123464
0.123044
0.122558
0.121991
0.121328
0.120569
0.119739
0.118905
0.117991
0.117188
0.114685
0.117429
0.174392
0.173789
0.173184
0.172577
0.171968
0.171357
0.170744
0.170128
0.169509
0.168887
0.168262
0.167634
0.167003
0.16637
0.165734
0.165096
0.164456
0.163815
0.163174
0.162533
0.161892
0.161253
0.160614
0.159978
0.159345
0.158714
0.158086
0.157459
0.156833
0.156206
0.155578
0.154947
0.154316
0.153687
0.153065
0.152457
0.151872
0.151316
0.150796
0.150313
0.149865
0.149443
0.149036
0.148629
0.148204
0.147747
0.147248
0.1467
0.146105
0.145469
0.144805
0.144126
0.143449
0.14279
0.142158
0.141561
0.140999
0.140467
0.139956
0.139453
0.138945
0.138416
0.137857
0.137258
0.136615
0.135926
0.135195
0.134429
0.133636
0.132827
0.132012
0.1312
0.1304
0.129617
0.128852
0.128106
0.127377
0.126664
0.125965
0.125279
0.124605
0.123947
0.123305
0.122685
0.122087
0.121512
0.120957
0.120415
0.119878
0.119333
0.118768
0.118173
0.117539
0.116862
0.11615
0.11544
0.114696
0.114071
0.112527
0.112861
0.174387
0.173784
0.173179
0.172572
0.171963
0.171352
0.170738
0.170123
0.169505
0.168884
0.168261
0.167635
0.167006
0.166374
0.165741
0.165106
0.164469
0.163832
0.163194
0.162555
0.161917
0.161279
0.160643
0.160008
0.159376
0.158746
0.158117
0.157491
0.156865
0.156239
0.155612
0.154985
0.154357
0.153732
0.153114
0.152508
0.15192
0.151356
0.15082
0.150315
0.149838
0.149384
0.148941
0.1485
0.148046
0.147569
0.147058
0.146509
0.145922
0.145301
0.144655
0.143996
0.143336
0.142686
0.142055
0.141448
0.140866
0.140306
0.13976
0.139219
0.138671
0.138106
0.137515
0.13689
0.136228
0.135527
0.134788
0.134017
0.133217
0.132397
0.131563
0.130722
0.129881
0.129045
0.128218
0.127401
0.126595
0.1258
0.125017
0.124243
0.123479
0.122725
0.121983
0.121253
0.120539
0.11984
0.119158
0.11849
0.117834
0.117185
0.116538
0.115887
0.115228
0.114556
0.113874
0.113201
0.112516
0.11191
0.110913
0.110271
0.174382
0.173778
0.173173
0.172565
0.171956
0.171344
0.17073
0.170114
0.169496
0.168875
0.168252
0.167626
0.166998
0.166368
0.165736
0.165102
0.164467
0.16383
0.163193
0.162556
0.161919
0.161282
0.160646
0.160011
0.159379
0.158747
0.158118
0.15749
0.156864
0.156237
0.155611
0.154985
0.15436
0.153737
0.153121
0.152515
0.151924
0.151352
0.150804
0.15028
0.149778
0.149296
0.148824
0.148354
0.147876
0.14738
0.146859
0.146308
0.145727
0.145119
0.144489
0.143847
0.143202
0.142563
0.141936
0.141325
0.140732
0.140153
0.139583
0.139015
0.138439
0.137847
0.137232
0.136588
0.135912
0.135202
0.13446
0.133689
0.132891
0.132074
0.13124
0.130397
0.129547
0.128697
0.127848
0.127004
0.126165
0.125333
0.124507
0.123688
0.122875
0.12207
0.121271
0.120482
0.119701
0.118931
0.118173
0.117427
0.116694
0.115971
0.115257
0.114551
0.113851
0.113155
0.112463
0.111783
0.111104
0.110462
0.109714
0.108726
0.174377
0.173773
0.173167
0.172559
0.171949
0.171336
0.170722
0.170105
0.169486
0.168865
0.168241
0.167615
0.166987
0.166357
0.165725
0.165092
0.164457
0.163821
0.163184
0.162546
0.161909
0.161272
0.160635
0.16
0.159365
0.158733
0.158101
0.157472
0.156843
0.156215
0.155588
0.154962
0.154337
0.153716
0.1531
0.152493
0.151898
0.151319
0.150758
0.150218
0.149696
0.14919
0.148693
0.148199
0.1477
0.147188
0.146658
0.146104
0.145526
0.144927
0.14431
0.143682
0.14305
0.14242
0.141798
0.141187
0.140587
0.139996
0.13941
0.138822
0.138226
0.137615
0.136983
0.136325
0.135638
0.134923
0.134179
0.13341
0.132617
0.131806
0.130979
0.130142
0.129297
0.128448
0.127598
0.126747
0.125899
0.125053
0.124211
0.123372
0.122537
0.121705
0.120879
0.120057
0.119242
0.118434
0.117633
0.116842
0.116061
0.115291
0.114531
0.113783
0.113045
0.112317
0.111601
0.110898
0.110203
0.109516
0.108853
0.107749
0.174373
0.173768
0.173162
0.172553
0.171942
0.171329
0.170713
0.170096
0.169476
0.168854
0.16823
0.167604
0.166976
0.166345
0.165713
0.165079
0.164444
0.163807
0.16317
0.162532
0.161894
0.161256
0.160618
0.159981
0.159344
0.158709
0.158076
0.157444
0.156812
0.156182
0.155554
0.154926
0.1543
0.153678
0.153061
0.152452
0.151853
0.151266
0.150696
0.150141
0.149601
0.149075
0.148557
0.148043
0.147526
0.147
0.14646
0.145902
0.145326
0.144733
0.144125
0.143508
0.142886
0.142264
0.141647
0.141036
0.140432
0.139832
0.139235
0.138633
0.138023
0.137398
0.136753
0.136085
0.135392
0.134673
0.133929
0.133162
0.132375
0.13157
0.130752
0.129923
0.129087
0.128245
0.1274
0.126553
0.125706
0.124859
0.124013
0.123168
0.122325
0.121483
0.120644
0.119808
0.118976
0.118148
0.117326
0.11651
0.115703
0.114904
0.114115
0.113336
0.112569
0.111815
0.111073
0.110344
0.109626
0.108899
0.108249
0.107097
0.174369
0.173764
0.173156
0.172547
0.171935
0.171322
0.170706
0.170087
0.169467
0.168844
0.16822
0.167593
0.166964
0.166333
0.1657
0.165066
0.16443
0.163793
0.163155
0.162516
0.161877
0.161237
0.160598
0.159959
0.15932
0.158683
0.158047
0.157412
0.156778
0.156145
0.155514
0.154884
0.154257
0.153633
0.153014
0.152401
0.151797
0.151204
0.150624
0.150057
0.149502
0.148959
0.148423
0.147892
0.147358
0.146819
0.14627
0.145708
0.145132
0.144542
0.14394
0.14333
0.142716
0.1421
0.141486
0.140876
0.140269
0.139664
0.139058
0.138447
0.137826
0.137191
0.136537
0.135862
0.135165
0.134444
0.133701
0.132937
0.132154
0.131357
0.130546
0.129725
0.128897
0.128063
0.127226
0.126386
0.125544
0.124701
0.123857
0.123013
0.12217
0.121326
0.120483
0.119642
0.118803
0.117966
0.117133
0.116305
0.115483
0.114668
0.113861
0.113063
0.112276
0.1115
0.110736