/*--------------------------------*- C++ -*----------------------------------*\
  =========                 |
  \\      /  F ield         | OpenFOAM: The Open Source CFD Toolbox
   \\    /   O peration     | Website:  https://openfoam.org
    \\  /    A nd           | Version:  10
     \\/     M anipulation  |
\*---------------------------------------------------------------------------*/
FoamFile
{
    format      ascii;
    class       volScalarField;
    location    "900";
    object      nut;
}
// * * * * * * * * * * * * * * * * * * * * * * * * * * * * * * * * * * * * * //

dimensions      [0 2 -1 0 0 0 0];

internalField   nonuniform List<scalar> 
6820
(
0.000149811
0.000146298
0.000143078
0.00013985
0.000136611
0.000133451
0.000130461
0.0001277
0.000125195
0.000122954
0.000120973
0.000119237
0.000117729
0.000116429
0.000115319
0.00011438
0.000113594
0.000112945
0.000112419
0.000112002
0.000111681
0.000111447
0.000111289
0.000111199
0.000111169
0.000111191
0.000111258
0.000111386
0.000111409
0.000112088
0.00011154
0.000111792
9.2938e-05
0.000736674
0.00054809
0.000464584
0.000414445
0.000380748
0.00035693
0.000339508
0.000326363
0.000316151
0.000308006
0.000301357
0.000295818
0.000291123
0.000287083
0.000283563
0.000280462
0.000277705
0.000275234
0.000273005
0.000270981
0.000269135
0.000267443
0.000265886
0.000264448
0.000263117
0.000261882
0.000260734
0.000259668
0.000258664
0.000257755
0.000257183
0.000256174
0.000253179
0.000977663
0.000873824
0.000783704
0.000713321
0.000659077
0.000616662
0.000582758
0.000555036
0.0005319
0.000512252
0.000495319
0.000480547
0.000467525
0.000455943
0.000445563
0.000436199
0.000427704
0.000419958
0.000412863
0.00040634
0.000400322
0.000394752
0.000389581
0.000384769
0.000380279
0.00037608
0.00037214
0.00036844
0.000364937
0.000361618
0.000358526
0.000355604
0.000351596
0.0010135
0.000988678
0.000949906
0.000906247
0.000863769
0.000825051
0.000790685
0.000760413
0.000733715
0.000710052
0.000688943
0.000669985
0.00065285
0.000637269
0.000623023
0.000609933
0.000597853
0.000586659
0.00057625
0.00056654
0.000557456
0.000548935
0.000540923
0.000533374
0.000526247
0.000519505
0.000513114
0.000507047
0.00050127
0.000495759
0.000490478
0.000485507
0.000480479
0.00101667
0.00101251
0.00100235
0.000986319
0.000966168
0.000943906
0.000921104
0.000898754
0.000877388
0.000857243
0.000838385
0.000820787
0.000804377
0.000789067
0.000774762
0.000761374
0.000748817
0.000737016
0.000725901
0.000715411
0.000705491
0.000696094
0.000687175
0.000678695
0.000670621
0.000662919
0.000655562
0.000648522
0.000641772
0.000635291
0.000629045
0.000623043
0.000617228
0.00101674
0.0010159
0.00101373
0.00100941
0.00100265
0.000993632
0.000982855
0.000970882
0.000958224
0.00094528
0.00093234
0.000919598
0.000907181
0.000895163
0.000883584
0.00087246
0.000861793
0.000851574
0.000841788
0.000832416
0.00082344
0.000814838
0.00080659
0.000798675
0.000791073
0.000783766
0.000776735
0.000769963
0.000763431
0.000757123
0.000751019
0.00074511
0.000739378
0.00101671
0.00101621
0.00101554
0.00101439
0.00101245
0.00100952
0.00100553
0.00100054
0.000994678
0.000988128
0.000981062
0.000973642
0.000966003
0.000958255
0.000950486
0.00094276
0.000935126
0.000927621
0.000920269
0.000913087
0.000906085
0.000899269
0.000892643
0.000886205
0.000879952
0.000873881
0.000867987
0.000862263
0.000856702
0.000851296
0.000846038
0.000840921
0.000835936
0.0010167
0.00101622
0.00101574
0.0010152
0.00101449
0.00101351
0.00101214
0.00101032
0.00100801
0.00100523
0.00100201
0.000998406
0.00099447
0.000990268
0.000985858
0.000981293
0.000976618
0.000971875
0.000967096
0.000962309
0.000957538
0.000952799
0.000948108
0.000943476
0.000938912
0.000934421
0.000930009
0.000925678
0.000921429
0.000917263
0.000913181
0.000909181
0.000905262
0.0010167
0.00101621
0.00101574
0.00101528
0.00101481
0.00101429
0.00101367
0.00101292
0.001012
0.00101087
0.00100951
0.00100793
0.00100613
0.00100412
0.00100192
0.000999557
0.000997046
0.000994412
0.000991677
0.000988862
0.000985983
0.000983059
0.000980102
0.000977127
0.000974143
0.000971161
0.000968188
0.00096523
0.000962294
0.000959383
0.000956503
0.000953656
0.000950846
0.0010167
0.00101621
0.00101574
0.00101528
0.00101484
0.0010144
0.00101395
0.00101348
0.00101297
0.00101239
0.00101175
0.00101101
0.00101017
0.00100923
0.00100818
0.00100702
0.00100577
0.00100442
0.00100299
0.00100147
0.000999892
0.00099825
0.000996555
0.000994817
0.000993042
0.000991238
0.000989412
0.000987569
0.000985714
0.000983854
0.000981992
0.000980132
0.00097828
0.0010167
0.00101621
0.00101574
0.00101528
0.00101484
0.00101441
0.00101398
0.00101357
0.00101315
0.00101273
0.00101229
0.00101183
0.00101134
0.00101082
0.00101025
0.00100964
0.00100899
0.00100828
0.00100753
0.00100672
0.00100588
0.00100499
0.00100406
0.0010031
0.0010021
0.00100107
0.00100001
0.000998937
0.00099784
0.000996728
0.000995603
0.000994469
0.000993329
0.0010167
0.00101621
0.00101574
0.00101528
0.00101483
0.0010144
0.00101398
0.00101357
0.00101317
0.00101278
0.00101239
0.00101201
0.00101162
0.00101123
0.00101083
0.00101042
0.00101
0.00100956
0.00100911
0.00100863
0.00100813
0.00100762
0.00100708
0.00100652
0.00100595
0.00100536
0.00100475
0.00100412
0.00100348
0.00100283
0.00100216
0.00100149
0.00100081
0.0010167
0.00101621
0.00101574
0.00101528
0.00101483
0.0010144
0.00101398
0.00101357
0.00101317
0.00101278
0.00101241
0.00101204
0.00101167
0.00101132
0.00101097
0.00101062
0.00101027
0.00100992
0.00100957
0.00100922
0.00100887
0.00100851
0.00100814
0.00100777
0.0010074
0.00100701
0.00100662
0.00100623
0.00100582
0.00100542
0.001005
0.00100459
0.00100417
0.0010167
0.00101621
0.00101574
0.00101528
0.00101483
0.0010144
0.00101398
0.00101357
0.00101317
0.00101278
0.0010124
0.00101203
0.00101168
0.00101133
0.00101099
0.00101065
0.00101033
0.00101001
0.00100969
0.00100938
0.00100907
0.00100877
0.00100847
0.00100817
0.00100787
0.00100757
0.00100728
0.00100698
0.00100668
0.00100639
0.0010061
0.0010058
0.00100551
0.0010167
0.00101621
0.00101574
0.00101528
0.00101483
0.0010144
0.00101398
0.00101357
0.00101317
0.00101278
0.0010124
0.00101203
0.00101167
0.00101132
0.00101099
0.00101065
0.00101033
0.00101002
0.00100971
0.00100941
0.00100912
0.00100883
0.00100855
0.00100827
0.001008
0.00100773
0.00100747
0.00100721
0.00100696
0.00100671
0.00100647
0.00100622
0.00100599
0.0010167
0.00101621
0.00101574
0.00101528
0.00101483
0.0010144
0.00101397
0.00101356
0.00101316
0.00101278
0.0010124
0.00101203
0.00101167
0.00101132
0.00101098
0.00101065
0.00101033
0.00101001
0.00100971
0.00100941
0.00100912
0.00100884
0.00100856
0.00100829
0.00100803
0.00100777
0.00100752
0.00100727
0.00100703
0.0010068
0.00100657
0.00100635
0.00100613
0.0010167
0.00101621
0.00101574
0.00101528
0.00101483
0.0010144
0.00101397
0.00101356
0.00101316
0.00101277
0.0010124
0.00101203
0.00101167
0.00101132
0.00101098
0.00101065
0.00101033
0.00101001
0.00100971
0.00100941
0.00100912
0.00100883
0.00100856
0.00100829
0.00100803
0.00100777
0.00100753
0.00100728
0.00100705
0.00100682
0.00100659
0.00100638
0.00100617
0.0010167
0.00101621
0.00101574
0.00101528
0.00101483
0.00101439
0.00101397
0.00101356
0.00101316
0.00101277
0.00101239
0.00101202
0.00101167
0.00101132
0.00101098
0.00101065
0.00101032
0.00101001
0.0010097
0.0010094
0.00100911
0.00100883
0.00100856
0.00100829
0.00100803
0.00100777
0.00100752
0.00100728
0.00100705
0.00100682
0.00100659
0.00100638
0.00100617
0.0010167
0.00101621
0.00101574
0.00101528
0.00101483
0.00101439
0.00101397
0.00101356
0.00101316
0.00101277
0.00101239
0.00101202
0.00101166
0.00101131
0.00101097
0.00101064
0.00101032
0.00101001
0.0010097
0.0010094
0.00100911
0.00100883
0.00100855
0.00100828
0.00100802
0.00100777
0.00100752
0.00100728
0.00100704
0.00100681
0.00100659
0.00100637
0.00100616
0.0010167
0.00101621
0.00101574
0.00101528
0.00101483
0.00101439
0.00101397
0.00101356
0.00101316
0.00101277
0.00101239
0.00101202
0.00101166
0.00101131
0.00101097
0.00101064
0.00101032
0.00101
0.0010097
0.0010094
0.00100911
0.00100882
0.00100855
0.00100828
0.00100802
0.00100776
0.00100751
0.00100727
0.00100704
0.00100681
0.00100658
0.00100637
0.00100615
0.0010167
0.00101621
0.00101574
0.00101528
0.00101483
0.00101439
0.00101397
0.00101356
0.00101316
0.00101277
0.00101239
0.00101202
0.00101166
0.00101131
0.00101097
0.00101064
0.00101032
0.00101
0.00100969
0.0010094
0.0010091
0.00100882
0.00100855
0.00100828
0.00100801
0.00100776
0.00100751
0.00100727
0.00100703
0.0010068
0.00100658
0.00100636
0.00100615
0.0010167
0.00101621
0.00101574
0.00101528
0.00101483
0.00101439
0.00101397
0.00101356
0.00101316
0.00101277
0.00101239
0.00101202
0.00101166
0.00101131
0.00101097
0.00101064
0.00101031
0.00101
0.00100969
0.00100939
0.0010091
0.00100882
0.00100854
0.00100827
0.00100801
0.00100776
0.00100751
0.00100726
0.00100703
0.0010068
0.00100657
0.00100635
0.00100614
0.0010167
0.00101621
0.00101574
0.00101528
0.00101483
0.00101439
0.00101397
0.00101356
0.00101316
0.00101277
0.00101239
0.00101202
0.00101166
0.00101131
0.00101097
0.00101064
0.00101031
0.00101
0.00100969
0.00100939
0.0010091
0.00100882
0.00100854
0.00100827
0.00100801
0.00100775
0.0010075
0.00100726
0.00100702
0.00100679
0.00100657
0.00100635
0.00100613
0.0010167
0.00101621
0.00101574
0.00101528
0.00101483
0.00101439
0.00101397
0.00101356
0.00101316
0.00101277
0.00101239
0.00101202
0.00101166
0.00101131
0.00101097
0.00101063
0.00101031
0.00101
0.00100969
0.00100939
0.0010091
0.00100881
0.00100854
0.00100827
0.00100801
0.00100775
0.0010075
0.00100726
0.00100702
0.00100679
0.00100656
0.00100634
0.00100613
0.0010167
0.00101621
0.00101574
0.00101528
0.00101483
0.00101439
0.00101397
0.00101356
0.00101316
0.00101277
0.00101239
0.00101202
0.00101166
0.00101131
0.00101097
0.00101063
0.00101031
0.00100999
0.00100969
0.00100939
0.0010091
0.00100881
0.00100854
0.00100827
0.001008
0.00100775
0.0010075
0.00100725
0.00100701
0.00100678
0.00100656
0.00100634
0.00100612
0.0010167
0.00101621
0.00101574
0.00101528
0.00101483
0.00101439
0.00101397
0.00101356
0.00101316
0.00101277
0.00101239
0.00101202
0.00101166
0.00101131
0.00101096
0.00101063
0.00101031
0.00100999
0.00100969
0.00100939
0.00100909
0.00100881
0.00100853
0.00100826
0.001008
0.00100774
0.00100749
0.00100725
0.00100701
0.00100678
0.00100655
0.00100633
0.00100612
0.0010167
0.00101621
0.00101574
0.00101528
0.00101483
0.00101439
0.00101397
0.00101356
0.00101316
0.00101277
0.00101239
0.00101202
0.00101166
0.00101131
0.00101096
0.00101063
0.00101031
0.00100999
0.00100969
0.00100939
0.00100909
0.00100881
0.00100853
0.00100826
0.001008
0.00100774
0.00100749
0.00100725
0.00100701
0.00100678
0.00100655
0.00100633
0.00100611
0.0010167
0.00101621
0.00101574
0.00101528
0.00101483
0.00101439
0.00101397
0.00101356
0.00101316
0.00101277
0.00101239
0.00101202
0.00101166
0.00101131
0.00101096
0.00101063
0.00101031
0.00100999
0.00100968
0.00100938
0.00100909
0.00100881
0.00100853
0.00100826
0.001008
0.00100774
0.00100749
0.00100724
0.001007
0.00100677
0.00100655
0.00100632
0.00100611
0.0010167
0.00101621
0.00101574
0.00101528
0.00101483
0.00101439
0.00101397
0.00101356
0.00101316
0.00101277
0.00101239
0.00101202
0.00101166
0.00101131
0.00101096
0.00101063
0.00101031
0.00100999
0.00100968
0.00100938
0.00100909
0.00100881
0.00100853
0.00100826
0.00100799
0.00100774
0.00100749
0.00100724
0.001007
0.00100677
0.00100654
0.00100632
0.0010061
0.0010167
0.00101621
0.00101574
0.00101528
0.00101483
0.00101439
0.00101397
0.00101356
0.00101316
0.00101277
0.00101239
0.00101202
0.00101166
0.00101131
0.00101096
0.00101063
0.00101031
0.00100999
0.00100968
0.00100938
0.00100909
0.00100881
0.00100853
0.00100826
0.00100799
0.00100774
0.00100748
0.00100724
0.001007
0.00100677
0.00100654
0.00100632
0.0010061
0.0010167
0.00101621
0.00101574
0.00101528
0.00101483
0.00101439
0.00101397
0.00101356
0.00101316
0.00101277
0.00101239
0.00101202
0.00101166
0.00101131
0.00101096
0.00101063
0.00101031
0.00100999
0.00100968
0.00100938
0.00100909
0.0010088
0.00100853
0.00100826
0.00100799
0.00100773
0.00100748
0.00100723
0.00100699
0.00100676
0.00100653
0.00100631
0.00100609
0.0010167
0.00101621
0.00101574
0.00101528
0.00101483
0.00101439
0.00101397
0.00101356
0.00101316
0.00101277
0.00101239
0.00101202
0.00101166
0.00101131
0.00101096
0.00101063
0.00101031
0.00100999
0.00100968
0.00100938
0.00100909
0.0010088
0.00100852
0.00100824
0.00100798
0.00100772
0.00100746
0.00100721
0.00100696
0.00100672
0.00100649
0.00100626
0.00100603
0.0010167
0.00101621
0.00101574
0.00101528
0.00101483
0.00101439
0.00101397
0.00101356
0.00101316
0.00101277
0.00101239
0.00101202
0.00101165
0.0010113
0.00101096
0.00101062
0.00101029
0.00100997
0.00100965
0.00100934
0.00100904
0.00100874
0.00100845
0.00100816
0.00100787
0.00100759
0.00100732
0.00100704
0.00100677
0.00100651
0.00100624
0.00100598
0.00100572
0.0010167
0.00101621
0.00101574
0.00101528
0.00101483
0.00101439
0.00101397
0.00101356
0.00101315
0.00101276
0.00101237
0.00101199
0.00101162
0.00101125
0.00101088
0.00101051
0.00101015
0.00100978
0.00100942
0.00100906
0.00100869
0.00100832
0.00100795
0.00100758
0.00100721
0.00100683
0.00100645
0.00100607
0.00100569
0.0010053
0.00100491
0.00100452
0.00100413
0.0010167
0.00101621
0.00101574
0.00101527
0.00101482
0.00101438
0.00101394
0.0010135
0.00101305
0.0010126
0.00101213
0.00101165
0.00101115
0.00101063
0.00101009
0.00100952
0.00100894
0.00100833
0.00100769
0.00100704
0.00100636
0.00100566
0.00100493
0.00100419
0.00100343
0.00100266
0.00100186
0.00100106
0.00100024
0.000999404
0.000998562
0.00099771
0.000996852
0.0010167
0.00101621
0.00101571
0.00101519
0.00101464
0.00101403
0.00101334
0.00101256
0.00101168
0.00101069
0.00100959
0.00100839
0.00100707
0.00100565
0.00100413
0.00100252
0.00100083
0.000999054
0.000997213
0.000995309
0.000993351
0.000991346
0.0009893
0.000987221
0.000985114
0.000982985
0.000980841
0.000978685
0.000976522
0.000974358
0.000972195
0.000970037
0.000967889
0.00101669
0.00101596
0.00101486
0.00101329
0.00101119
0.00100857
0.00100545
0.00100185
0.000997828
0.000993429
0.000988704
0.000983705
0.00097848
0.000973077
0.000967536
0.000961896
0.000956191
0.000950448
0.000944695
0.000938953
0.000933241
0.000927575
0.000921969
0.000916434
0.000910979
0.000905612
0.000900339
0.000895164
0.000890091
0.000885123
0.000880262
0.000875509
0.000870863
0.00101524
0.00100707
0.000994972
0.000980656
0.000964829
0.000947947
0.000930393
0.000912512
0.000894598
0.00087688
0.000859522
0.000842637
0.000826299
0.000810553
0.000795422
0.000780912
0.000767017
0.000753725
0.000741019
0.000728876
0.000717274
0.000706189
0.000695595
0.000685469
0.000675788
0.000666528
0.000657669
0.000649188
0.000641066
0.000633284
0.000625826
0.000618673
0.00061181
0.000934352
0.000813407
0.000726826
0.0006588
0.000603106
0.000556737
0.000517794
0.000484798
0.00045656
0.00043216
0.000410889
0.000392198
0.000375657
0.000360927
0.000347736
0.000335863
0.00032513
0.000315387
0.000306512
0.0002984
0.000290966
0.000284132
0.000277836
0.000272021
0.00026664
0.000261651
0.000257016
0.000252703
0.000248683
0.000244931
0.000241424
0.000238142
0.000235064
0.000125479
0.000128845
0.000132087
0.000135185
0.000138141
0.000140961
0.00014365
0.000146214
0.000148657
0.000150984
0.000153199
0.000155306
0.00015731
0.000159215
0.000161025
0.000162744
0.000164376
0.000165925
0.000167394
0.000168787
0.000170109
0.000171361
0.000172548
0.000173673
0.000174739
0.000175749
0.000176705
0.00017761
0.000178468
0.000179279
0.000180048
0.000180775
0.000181465
0.000170534
0.00016261
0.000171818
0.00021718
0.000270295
0.000315208
0.000351303
0.000381756
0.000408604
0.000433297
0.000457289
0.000481666
0.000506844
0.0005327
0.00055886
0.000584923
0.000610581
0.00063569
0.000660301
0.000684645
0.000709051
0.000733821
0.000759077
0.000784655
0.000810097
0.000834779
0.000858165
0.000880148
0.00090135
0.00092327
0.000948126
0.000978315
0.0010155
0.00105964
0.00110838
0.00115737
0.00120127
0.00123529
0.00125641
0.00126414
0.0012607
0.00125078
0.00124096
0.00123864
0.00125045
0.00127999
0.0013261
0.00138266
0.00144059
0.0014908
0.00152666
0.00154496
0.00154579
0.00153179
0.00150735
0.00147812
0.00145061
0.00143206
0.00143005
0.00145132
0.00149976
0.00157407
0.00166711
0.00176783
0.00186491
0.00194983
0.00201797
0.00206828
0.00210217
0.00212247
0.00213265
0.00213628
0.00213677
0.00213704
0.00213936
0.00214504
0.00215432
0.00216634
0.00217931
0.00219093
0.00219885
0.00220107
0.00219617
0.0021834
0.00216257
0.00213391
0.0020979
0.00205515
0.00200626
0.00195178
0.00189224
0.00182799
0.00175843
0.00167942
0.00158255
0.0014729
0.00142182
0.00158186
0.0020134
0.00260632
0.000248712
0.000240642
0.000203451
0.000170962
0.000169182
0.000185199
0.000207852
0.000232774
0.000258687
0.000285334
0.000312581
0.000340286
0.000368346
0.000396674
0.000425104
0.00045336
0.000481116
0.000508124
0.000534314
0.000559817
0.000584902
0.000609848
0.000634781
0.000659556
0.00068373
0.000706678
0.000727831
0.000747
0.000764672
0.000782179
0.000801628
0.000825472
0.000855705
0.00089287
0.000935307
0.000979169
0.00101933
0.00105084
0.00107029
0.00107661
0.00107139
0.00105857
0.00104402
0.00103481
0.0010379
0.00105822
0.00109642
0.00114797
0.00120439
0.00125624
0.00129593
0.00131926
0.00132546
0.00131651
0.00129632
0.00127004
0.0012437
0.00122404
0.00121834
0.00123365
0.00127501
0.00134284
0.00143155
0.0015308
0.00162909
0.00171714
0.00178952
0.0018445
0.00188301
0.00190758
0.00192151
0.00192832
0.00193139
0.00193371
0.00193767
0.00194476
0.00195541
0.00196895
0.00198376
0.00199761
0.00200816
0.00201335
0.00201168
0.0020023
0.00198495
0.0019598
0.00192731
0.0018881
0.00184278
0.00179196
0.00173623
0.00167609
0.0016112
0.00153776
0.00144713
0.00134353
0.00130235
0.00148917
0.00196177
0.00257315
0.000345986
0.000346022
0.00034597
0.000324743
0.000280965
0.000240006
0.000213034
0.000198383
0.000192897
0.000193858
0.000200409
0.000212338
0.000229352
0.000250744
0.000275413
0.000302077
0.000329533
0.000356873
0.000383583
0.000409532
0.000434859
0.000459803
0.000484514
0.0005089
0.000532571
0.000554912
0.000575297
0.00059339
0.000609432
0.000624435
0.000640181
0.000658953
0.000682922
0.000713235
0.000749151
0.000787729
0.000824415
0.000854337
0.000873723
0.000880877
0.00087653
0.000863674
0.000847147
0.000833109
0.000828254
0.00083838
0.00086625
0.00090979
0.000962209
0.00101439
0.00105803
0.00108771
0.0011015
0.00110039
0.00108752
0.00106732
0.00104511
0.00102679
0.00101882
0.00102794
0.00105996
0.00111737
0.00119712
0.00129073
0.00138721
0.00147677
0.00155296
0.00161301
0.00165702
0.00168693
0.00170568
0.00171654
0.00172283
0.00172756
0.00173319
0.00174146
0.00175309
0.00176774
0.00178407
0.00180006
0.00181342
0.00182204
0.00182433
0.00181927
0.00180647
0.001786
0.00175826
0.00172382
0.00168331
0.00163739
0.00158669
0.00153184
0.00147293
0.00140707
0.00132573
0.00122918
0.00118763
0.00137533
0.00186423
0.00249558
0.000473662
0.000467541
0.000465518
0.000463946
0.000453648
0.000429583
0.00039526
0.00035754
0.000323093
0.000295994
0.000274917
0.000258715
0.000246918
0.000239581
0.000236915
0.000238929
0.000245269
0.000255289
0.000268247
0.00028348
0.000300498
0.000318964
0.000338586
0.000358968
0.000379524
0.000399502
0.000418145
0.000434922
0.000449769
0.000463244
0.000476572
0.000491519
0.000510042
0.000533623
0.000562436
0.000594756
0.000627084
0.000655096
0.000674985
0.000684571
0.000683821
0.00067477
0.000661096
0.0006476
0.000639732
0.000642875
0.000660943
0.000694424
0.00073931
0.000788212
0.000833114
0.000867886
0.000889435
0.000897617
0.000894534
0.000883733
0.000869562
0.000856785
0.000850494
0.000856141
0.00087916
0.000923429
0.000988876
0.00107024
0.00115858
0.00124455
0.00132099
0.00138396
0.00143242
0.00146736
0.00149103
0.00150628
0.00151612
0.00152345
0.00153077
0.00154001
0.00155221
0.00156742
0.00158473
0.00160241
0.00161836
0.00163047
0.00163701
0.00163683
0.00162934
0.00161444
0.00159243
0.00156381
0.00152921
0.00148929
0.00144473
0.00139625
0.00134435
0.0012874
0.00121778
0.00113056
0.00108264
0.00124885
0.00172854
0.0023786
0.000610336
0.000602543
0.000595892
0.000590607
0.000584905
0.000576084
0.000562182
0.00054253
0.000518675
0.000494256
0.00047045
0.00044724
0.000424233
0.000401253
0.000378667
0.000357339
0.000338287
0.000322329
0.000309895
0.000301057
0.000295664
0.000293477
0.000294247
0.000297708
0.000303511
0.000311159
0.00032002
0.000329438
0.000338915
0.000348279
0.0003578
0.000368215
0.000380637
0.000396247
0.000415734
0.000438661
0.000463147
0.000486226
0.0005048
0.000516713
0.000521429
0.000520112
0.000515217
0.000509912
0.000507626
0.000511814
0.00052552
0.000550284
0.000584832
0.000624907
0.000664743
0.000699087
0.000724589
0.000740208
0.000746924
0.00074711
0.000743883
0.000740587
0.00074057
0.000747276
0.000764429
0.000795619
0.00084276
0.000904309
0.000975094
0.0010481
0.00111678
0.00117652
0.00122506
0.00126215
0.00128897
0.00130755
0.00132036
0.00132992
0.00133861
0.00134838
0.00136053
0.00137553
0.00139292
0.0014114
0.00142915
0.00144417
0.00145469
0.00145937
0.00145742
0.00144856
0.0014329
0.00141086
0.001383
0.00134998
0.00131248
0.00127126
0.00122715
0.00117983
0.00112344
0.00104874
0.000993816
0.00112201
0.00156597
0.00222775
0.000732848
0.000725398
0.000718111
0.000711229
0.000704621
0.000697745
0.00068987
0.000680276
0.000668749
0.000655925
0.000642215
0.000627644
0.000611889
0.000594503
0.000575208
0.000554106
0.00053172
0.00050885
0.00048636
0.000464993
0.000445275
0.000427518
0.000411878
0.000398441
0.000387277
0.000378445
0.000371956
0.000367718
0.000365527
0.000365113
0.000366217
0.000368696
0.000372593
0.000378142
0.000385642
0.000395225
0.000406599
0.000418912
0.000430902
0.0004414
0.000449876
0.000456689
0.000462901
0.000469856
0.000478809
0.000490864
0.000507056
0.000528118
0.000553766
0.00058224
0.000610827
0.000636888
0.000658558
0.000675048
0.000686662
0.000694577
0.000700466
0.000706097
0.000713097
0.000722984
0.000737464
0.000758622
0.000788385
0.000827279
0.000873606
0.000923921
0.00097418
0.00102075
0.00106106
0.00109383
0.00111902
0.00113755
0.00115095
0.0011611
0.00116991
0.00117915
0.00119016
0.0012037
0.00121975
0.0012375
0.00125553
0.0012721
0.00128545
0.00129416
0.00129723
0.00129418
0.00128491
0.00126969
0.00124898
0.00122339
0.00119357
0.00116027
0.00112445
0.00108691
0.0010441
0.000984897
0.00092734
0.00100928
0.00139162
0.00205036
0.000830283
0.000823857
0.000817418
0.000811039
0.000804759
0.000798538
0.000792245
0.000785675
0.000778679
0.000771283
0.00076351
0.000755293
0.00074641
0.000736524
0.000725286
0.000712461
0.000698022
0.000682158
0.00066523
0.000647677
0.000629937
0.000612385
0.000595317
0.000578966
0.000563548
0.000549298
0.000536477
0.000525333
0.000516035
0.000508615
0.000502966
0.000498887
0.000496163
0.000494613
0.00049409
0.00049448
0.000495767
0.000498105
0.000501769
0.00050702
0.000514043
0.00052297
0.00053388
0.000546724
0.000561275
0.000577221
0.000594397
0.000612854
0.000632507
0.000652629
0.000671904
0.000689108
0.000703678
0.000715732
0.000725804
0.000734629
0.00074297
0.000751494
0.000760689
0.000770917
0.000782647
0.00079672
0.000814285
0.000836118
0.000861801
0.000889747
0.000918016
0.000944944
0.000969249
0.000990021
0.00100682
0.00101974
0.0010294
0.0010368
0.00104318
0.00104982
0.00105785
0.00106807
0.00108077
0.00109558
0.00111156
0.00112733
0.00114134
0.00115218
0.00115873
0.00116029
0.00115657
0.00114763
0.00113378
0.00111554
0.0010935
0.00106831
0.00104093
0.00101278
0.00098269
0.000940362
0.000887332
0.000924682
0.00122401
0.00185641
0.000900797
0.000895707
0.000890569
0.0008854
0.000880229
0.000875076
0.000869943
0.000864804
0.000859629
0.000854409
0.000849133
0.000843757
0.000838182
0.000832245
0.000825743
0.000818485
0.000810337
0.000801259
0.000791307
0.000780614
0.000769363
0.00075775
0.000745969
0.000734197
0.000722607
0.000711381
0.000700719
0.000690827
0.000681889
0.00067402
0.000667245
0.000661518
0.000656762
0.000652912
0.000649912
0.0006477
0.000646246
0.000645659
0.000646258
0.000648505
0.000652824
0.000659432
0.000668256
0.000678939
0.000690918
0.000703585
0.000716511
0.000729593
0.000742939
0.0007565
0.000769804
0.000782111
0.000792863
0.000801989
0.000809849
0.000816992
0.000823929
0.000831008
0.00083838
0.000846064
0.000854102
0.000862775
0.000872716
0.000884632
0.000898666
0.000913932
0.000928845
0.00094199
0.00095267
0.000960814
0.000966654
0.000970535
0.000972899
0.000974318
0.000975488
0.00097719
0.000980193
0.000985137
0.000992383
0.00100189
0.00101315
0.00102525
0.00103698
0.00104711
0.00105454
0.00105845
0.00105838
0.00105417
0.00104597
0.00103412
0.00101911
0.00100148
0.00098201
0.00096229
0.000942923
0.000916324
0.000874227
0.000877801
0.00108289
0.00165908
0.000947616
0.000943908
0.000940135
0.000936303
0.000932427
0.000928523
0.000924605
0.000920681
0.000916756
0.000912835
0.000908915
0.000904986
0.000901019
0.000896957
0.00089272
0.000888217
0.000883364
0.000878099
0.000872399
0.000866279
0.000859786
0.000852991
0.000845978
0.000838842
0.00083168
0.000824596
0.000817701
0.00081111
0.000804924
0.000799217
0.000794024
0.000789351
0.000785198
0.000781595
0.000778601
0.000776294
0.00077475
0.000774071
0.000774418
0.000776
0.000779016
0.00078355
0.000789506
0.000796592
0.000804379
0.000812406
0.00082033
0.000828051
0.000835717
0.000843558
0.00085165
0.00085981
0.000867696
0.000875026
0.000881717
0.000887874
0.000893688
0.00089932
0.000904842
0.00091024
0.000915485
0.000920665
0.000926114
0.000932393
0.000939993
0.000948876
0.000958214
0.000966658
0.000972972
0.00097653
0.000977392
0.000976059
0.000973213
0.000969556
0.000965756
0.000962441
0.000960188
0.000959495
0.000960711
0.00096396
0.000969066
0.000975534
0.000982601
0.000989358
0.000994898
0.000998453
0.00099948
0.000997692
0.000993053
0.000985745
0.00097611
0.000964534
0.000951568
0.000938581
0.000927106
0.000912731
0.00088417
0.000869436
0.000984386
0.00147382
0.000976129
0.000973635
0.000971071
0.000968442
0.000965754
0.000963015
0.000960234
0.000957419
0.000954579
0.000951719
0.000948843
0.000945952
0.000943042
0.000940101
0.000937109
0.000934035
0.000930847
0.000927514
0.000924015
0.000920342
0.000916502
0.000912515
0.000908412
0.000904233
0.000900023
0.000895833
0.000891714
0.000887718
0.000883889
0.000880257
0.000876839
0.000873645
0.000870692
0.000868028
0.000865737
0.000863936
0.000862751
0.000862304
0.000862705
0.000864044
0.00086636
0.000869619
0.000873679
0.000878303
0.000883184
0.000888013
0.000892558
0.000896743
0.000900679
0.00090461
0.000908784
0.000913337
0.000918241
0.000923358
0.000928526
0.000933626
0.000938586
0.000943361
0.000947901
0.000952133
0.000955991
0.000959467
0.000962696
0.000966008
0.000969863
0.000974626
0.000980287
0.000986319
0.00099181
0.00099582
0.00099773
0.000997386
0.000995046
0.000991223
0.000986533
0.000981591
0.000976963
0.000973132
0.000970476
0.000969227
0.000969428
0.000970903
0.000973266
0.000975969
0.000978397
0.000979965
0.000980203
0.000978803
0.000975642
0.000970777
0.000964415
0.000956811
0.0009483
0.000939858
0.000933184
0.000926434
0.000909758
0.000890397
0.000934449
0.00131545
0.000991991
0.000990424
0.000988795
0.000987107
0.000985363
0.000983564
0.000981715
0.00097982
0.000977883
0.000975908
0.000973898
0.000971857
0.000969787
0.000967689
0.000965562
0.000963401
0.000961199
0.000958947
0.00095664
0.000954272
0.000951847
0.000949372
0.000946859
0.000944325
0.000941792
0.000939281
0.000936813
0.000934407
0.000932077
0.000929829
0.000927669
0.0009256
0.000923641
0.000921833
0.000920248
0.000918992
0.000918181
0.00091793
0.000918329
0.000919426
0.000921215
0.000923616
0.000926484
0.000929618
0.000932785
0.000935768
0.000938405
0.000940637
0.000942532
0.000944271
0.000946091
0.000948213
0.000950769
0.00095379
0.000957218
0.000960941
0.000964828
0.00096874
0.00097254
0.000976094
0.000979282
0.000982027
0.000984333
0.000986333
0.000988295
0.000990558
0.000993396
0.000996858
0.00100069
0.00100439
0.00100737
0.00100915
0.00100951
0.00100844
0.00100619
0.0010031
0.000999593
0.000996078
0.000992918
0.000990399
0.000988689
0.000987812
0.000987633
0.000987881
0.000988194
0.000988185
0.00098751
0.000985918
0.000983277
0.000979592
0.000974987
0.000969633
0.000963728
0.000957881
0.000953517
0.000950382
0.000941743
0.000925728
0.000925675
0.00119369
0.00100001
0.00099906
0.000998067
0.000997029
0.000995945
0.000994817
0.000993644
0.000992428
0.00099117
0.00098987
0.000988532
0.000987156
0.000985746
0.000984306
0.000982837
0.000981341
0.000979821
0.000978277
0.000976709
0.00097512
0.000973513
0.000971893
0.000970269
0.00096865
0.000967048
0.000965472
0.000963931
0.000962429
0.000960966
0.000959542
0.000958153
0.000956803
0.000955507
0.000954298
0.000953234
0.000952396
0.000951877
0.000951768
0.00095214
0.000953025
0.000954403
0.0009562
0.000958287
0.000960499
0.000962659
0.000964602
0.000966209
0.000967434
0.000968315
0.000968972
0.000969589
0.000970363
0.000971466
0.000973003
0.000975008
0.00097744
0.000980207
0.000983178
0.000986203
0.000989129
0.000991811
0.000994134
0.000996031
0.000997513
0.000998685
0.00099974
0.00100091
0.00100241
0.00100429
0.0010065
0.00100878
0.00101084
0.00101238
0.00101321
0.00101324
0.00101255
0.00101127
0.00100962
0.00100785
0.00100618
0.00100481
0.00100384
0.00100328
0.00100303
0.00100291
0.00100266
0.00100205
0.00100088
0.000998998
0.00099639
0.000993122
0.000989312
0.000985087
0.000980803
0.00097748
0.000975607
0.000971391
0.000961318
0.000941733
0.00111012
0.00100367
0.00100308
0.00100247
0.00100183
0.00100115
0.00100045
0.000999712
0.000998942
0.000998139
0.000997302
0.000996431
0.000995528
0.000994594
0.000993631
0.000992643
0.000991631
0.000990599
0.000989549
0.000988483
0.000987406
0.000986321
0.000985233
0.000984149
0.000983076
0.000982021
0.000980988
0.000979982
0.000979001
0.000978043
0.000977102
0.000976177
0.000975269
0.000974389
0.000973567
0.000972847
0.000972291
0.00097197
0.000971953
0.000972292
0.000973008
0.000974082
0.000975452
0.000977014
0.000978637
0.000980184
0.00098153
0.000982583
0.000983304
0.000983714
0.000983894
0.000983975
0.000984112
0.000984456
0.000985128
0.000986197
0.000987675