/*--------------------------------*- C++ -*----------------------------------*\
  =========                 |
  \\      /  F ield         | OpenFOAM: The Open Source CFD Toolbox
   \\    /   O peration     | Website:  https://openfoam.org
    \\  /    A nd           | Version:  10
     \\/     M anipulation  |
\*---------------------------------------------------------------------------*/
FoamFile
{
    format      ascii;
    class       volScalarField;
    location    "900";
    object      p;
}
// * * * * * * * * * * * * * * * * * * * * * * * * * * * * * * * * * * * * * //

dimensions      [0 2 -2 0 0 0 0];

internalField   nonuniform List<scalar> 
6820
(
-8.08569
-8.85726
-9.30486
-9.45219
-9.53115
-9.59671
-9.64282
-9.67374
-9.69789
-9.71897
-9.73784
-9.75501
-9.77109
-9.78645
-9.80128
-9.81569
-9.82977
-9.84358
-9.85715
-9.87049
-9.88359
-9.89643
-9.90895
-9.92104
-9.93252
-9.94311
-9.9523
-9.95913
-9.96244
-9.95757
-9.94061
-9.90969
-9.78068
-9.6401
-9.78535
-9.76148
-9.69299
-9.66571
-9.6715
-9.68497
-9.69854
-9.71307
-9.72856
-9.74407
-9.75913
-9.77378
-9.78809
-9.80209
-9.81581
-9.82929
-9.84256
-9.85565
-9.86855
-9.88127
-9.89378
-9.90604
-9.91796
-9.92941
-9.94021
-9.94999
-9.95862
-9.96429
-9.97078
-9.96453
-9.98394
-9.9858
-9.64374
-9.50844
-9.50897
-9.54351
-9.57959
-9.61739
-9.65015
-9.67598
-9.69783
-9.71763
-9.73581
-9.75261
-9.76842
-9.78356
-9.79819
-9.81241
-9.82632
-9.83997
-9.8534
-9.86663
-9.87967
-9.8925
-9.90508
-9.91736
-9.92923
-9.94057
-9.95115
-9.96092
-9.96919
-9.97796
-9.98349
-10.0038
-10.0214
-9.5741
-9.49662
-9.54121
-9.58873
-9.61494
-9.63992
-9.66449
-9.68551
-9.70412
-9.72171
-9.73845
-9.75434
-9.76956
-9.78429
-9.79864
-9.81267
-9.82644
-9.83998
-9.85333
-9.8665
-9.8795
-9.89232
-9.90495
-9.91734
-9.92945
-9.94123
-9.95258
-9.96364
-9.97432
-9.98621
-9.9988
-10.0206
-10.0494
-9.56755
-9.53817
-9.56808
-9.59991
-9.61955
-9.64128
-9.66455
-9.68533
-9.70391
-9.72143
-9.73812
-9.75398
-9.76917
-9.78388
-9.79819
-9.81219
-9.82593
-9.83946
-9.8528
-9.86599
-9.87903
-9.89193
-9.90469
-9.91729
-9.92974
-9.94203
-9.95422
-9.96652
-9.97918
-9.99343
-10.0099
-10.0331
-10.0642
-9.57542
-9.56143
-9.57775
-9.6035
-9.62391
-9.645
-9.66698
-9.68704
-9.70518
-9.72231
-9.73869
-9.75433
-9.76936
-9.78394
-9.79816
-9.81208
-9.82576
-9.83924
-9.85256
-9.86575
-9.87881
-9.89177
-9.90464
-9.91744
-9.93019
-9.94296
-9.95587
-9.96919
-9.9833
-9.99916
-10.0177
-10.0412
-10.071
-9.58315
-9.57572
-9.58731
-9.60996
-9.62996
-9.64946
-9.66969
-9.68879
-9.7064
-9.72312
-9.73918
-9.7546
-9.76947
-9.78392
-9.79803
-9.81188
-9.8255
-9.83894
-9.85223
-9.86541
-9.8785
-9.89152
-9.9045
-9.91748
-9.93051
-9.9437
-9.9572
-9.9713
-9.9864
-10.0032
-10.0225
-10.0455
-10.0729
-9.59105
-9.58803
-9.59774
-9.61706
-9.63562
-9.65367
-9.67243
-9.69063
-9.7077
-9.72399
-9.7397
-9.75487
-9.76956
-9.78386
-9.79786
-9.81162
-9.82516
-9.83855
-9.85181
-9.86497
-9.87808
-9.89114
-9.90422
-9.91735
-9.93062
-9.94414
-9.95808
-9.9727
-9.98838
-10.0056
-10.025
-10.047
-10.072
-9.59935
-9.599
-9.60751
-9.6239
-9.64097
-9.65785
-9.67535
-9.69263
-9.7091
-9.72493
-9.74028
-9.75517
-9.76964
-9.78378
-9.79765
-9.81129
-9.82475
-9.83807
-9.85128
-9.86441
-9.87751
-9.89061
-9.90375
-9.917
-9.93044
-9.94419
-9.95841
-9.97334
-9.98926
-10.0065
-10.0255
-10.0464
-10.0693
-9.60769
-9.60877
-9.61646
-9.63059
-9.64624
-9.66203
-9.67838
-9.69474
-9.71059
-9.72594
-9.7409
-9.75549
-9.76973
-9.78368
-9.79739
-9.8109
-9.82426
-9.83749
-9.85064
-9.86373
-9.8768
-9.8899
-9.90308
-9.91639
-9.92993
-9.94381
-9.95817
-9.97321
-9.98914
-10.0062
-10.0246
-10.0443
-10.0654
-9.61584
-9.61761
-9.62471
-9.63709
-9.65138
-9.66613
-9.68144
-9.69693
-9.71215
-9.72701
-9.74156
-9.75583
-9.76982
-9.78356
-9.79709
-9.81046
-9.82369
-9.83682
-9.84989
-9.86291
-9.87594
-9.88901
-9.90218
-9.91551
-9.92908
-9.94299
-9.95736
-9.97235
-9.98809
-10.0047
-10.0224
-10.041
-10.0605
-9.62364
-9.62571
-9.63232
-9.64333
-9.65636
-9.67013
-9.68448
-9.69915
-9.71374
-9.7281
-9.74225
-9.75618
-9.76989
-9.7834
-9.79675
-9.80996
-9.82305
-9.83606
-9.84902
-9.86196
-9.87491
-9.88793
-9.90105
-9.91434
-9.92786
-9.94171
-9.95599
-9.97079
-9.98622
-10.0024
-10.0192
-10.0368
-10.0548
-9.63102
-9.63318
-9.63934
-9.64924
-9.66115
-9.67399
-9.68748
-9.70137
-9.71533
-9.7292
-9.74293
-9.75651
-9.76994
-9.78321
-9.79635
-9.80938
-9.82232
-9.83519
-9.84803
-9.86085
-9.87371
-9.88663
-9.89966
-9.91285
-9.92627
-9.93998
-9.95406
-9.96858
-9.9836
-9.99916
-10.0152
-10.0318
-10.0486
-9.63794
-9.64007
-9.6458
-9.65479
-9.66572
-9.67769
-9.69038
-9.70355
-9.71691
-9.73027
-9.74358
-9.75682
-9.76994
-9.78296
-9.79588
-9.80872
-9.82148
-9.8342
-9.84689
-9.85958
-9.87231
-9.8851
-9.898
-9.91104
-9.92429
-9.9378
-9.95161
-9.96577
-9.98031
-9.99525
-10.0105
-10.0261
-10.0418
-9.64437
-9.6464
-9.65174
-9.65996
-9.67002
-9.6812
-9.69315
-9.70565
-9.71842
-9.7313
-9.74419
-9.75707
-9.76989
-9.78265
-9.79533
-9.80796
-9.82053
-9.83307
-9.8456
-9.85813
-9.87069
-9.88332
-9.89605
-9.9089
-9.92193
-9.93517
-9.94865
-9.96239
-9.97642
-9.99071
-10.0052
-10.0199
-10.0346
-9.65028
-9.65221
-9.65717
-9.66474
-9.67404
-9.68449
-9.69576
-9.70763
-9.71984
-9.73224
-9.74473
-9.75725
-9.76976
-9.78224
-9.79468
-9.80708
-9.81945
-9.8318
-9.84413
-9.85648
-9.86886
-9.88129
-9.89381
-9.90643
-9.91918
-9.9321
-9.9452
-9.9585
-9.97198
-9.98562
-9.99939
-10.0132
-10.027
-9.65568
-9.65748
-9.6621
-9.6691
-9.67774
-9.68752
-9.69818
-9.70946
-9.72115
-9.73308
-9.74517
-9.75733
-9.76952
-9.78172
-9.79391
-9.80608
-9.81822
-9.83036
-9.84249
-9.85463
-9.86679
-9.879
-9.89126
-9.90361
-9.91606
-9.92862
-9.94131
-9.95411
-9.96703
-9.98003
-9.99307
-10.0061
-10.019
-9.66054
-9.66224
-9.66654
-9.67305
-9.6811
-9.69029
-9.70036
-9.7111
-9.7223
-9.73379
-9.74548
-9.75729
-9.76917
-9.78108
-9.793
-9.80493
-9.81684
-9.82875
-9.84065
-9.85256
-9.86448
-9.87643
-9.88842
-9.90046
-9.91257
-9.92474
-9.93698
-9.94929
-9.96163
-9.97399
-9.98632
-9.99857
-10.0107
-9.66488
-9.66646
-9.67048
-9.67655
-9.68409
-9.69274
-9.70229
-9.71253
-9.72326
-9.73433
-9.74564
-9.75711
-9.76867
-9.78029
-9.79195
-9.80361
-9.81528
-9.82694
-9.8386
-9.85026
-9.86192
-9.87359
-9.88528
-9.89699
-9.90872
-9.92049
-9.93226
-9.94405
-9.95582
-9.96755
-9.97919
-9.99071
-10.002
-9.66867
-9.67016
-9.67391
-9.6796
-9.68668
-9.69486
-9.70393
-9.71371
-9.72401
-9.73468
-9.74562
-9.75675
-9.76801
-9.77934
-9.79072
-9.80213
-9.81354
-9.82495
-9.83634
-9.84773
-9.85911
-9.87048
-9.88185
-9.8932
-9.90454
-9.91587
-9.92718
-9.93844
-9.94964
-9.96074
-9.97172
-9.98254
-9.99315
-9.67191
-9.67331
-9.67684
-9.68219
-9.68886
-9.69661
-9.70525
-9.71461
-9.7245
-9.7348
-9.7454
-9.7562
-9.76716
-9.77821
-9.78931
-9.80045
-9.8116
-9.82274
-9.83387
-9.84497
-9.85605
-9.86711
-9.87813
-9.88911
-9.90005
-9.91093
-9.92175
-9.93249
-9.94312
-9.95362
-9.96396
-9.9741
-9.98401
-9.67459
-9.67591
-9.67923
-9.68428
-9.6906
-9.69797
-9.70622
-9.71519
-9.72472
-9.73468
-9.74494
-9.75544
-9.7661
-9.77687
-9.7877
-9.79857
-9.80945
-9.82032
-9.83116
-9.84198
-9.85275
-9.86347
-9.87413
-9.88473
-9.89525
-9.90569
-9.91602
-9.92624
-9.93631
-9.94622
-9.95593
-9.96543
-9.97467
-9.67669
-9.67794
-9.68108
-9.68587
-9.69188
-9.6989
-9.70681
-9.71544
-9.72463
-9.73427
-9.74423
-9.75443
-9.76481
-9.77531
-9.78587
-9.79648
-9.80708
-9.81768
-9.82824
-9.83875
-9.8492
-9.85958
-9.86988
-9.88008
-9.89019
-9.90017
-9.91002
-9.91971
-9.92924
-9.93857
-9.94768
-9.95655
-9.96516
-9.6782
-9.67938
-9.68237
-9.68692
-9.69265
-9.69938
-9.70698
-9.71531
-9.7242
-9.73355
-9.74323
-9.75316
-9.76328
-9.77351
-9.78382
-9.79416
-9.8045
-9.81481
-9.82508
-9.83529
-9.84542
-9.85545
-9.86538
-9.87519
-9.88487
-9.8944
-9.90377
-9.91296
-9.92195
-9.93072
-9.93925
-9.94752
-9.95551
-9.67909
-9.68022
-9.68306
-9.68741
-9.6929
-9.69938
-9.70671
-9.71477
-9.7234
-9.73249
-9.74192
-9.7516
-9.76147
-9.77146
-9.78152
-9.79161
-9.80168
-9.81172
-9.82171
-9.83161
-9.84141
-9.8511
-9.86066
-9.87008
-9.87934
-9.88842
-9.89732
-9.90601
-9.91448
-9.9227
-9.93067
-9.93837
-9.94577
-9.67935
-9.68043
-9.68314
-9.6873
-9.69259
-9.69885
-9.70596
-9.71379
-9.7222
-9.73106
-9.74027
-9.74974
-9.75939
-9.76915
-9.77897
-9.78882
-9.79864
-9.80841
-9.81811
-9.82771
-9.83719
-9.84654
-9.85573
-9.86476
-9.87361
-9.88226
-9.89069
-9.8989
-9.90686
-9.91457
-9.92199
-9.92914
-9.93598
-9.67895
-9.67998
-9.68258
-9.68657
-9.69168
-9.69776
-9.70469
-9.71234
-9.72056
-9.72924
-9.73827
-9.74754
-9.757
-9.76656
-9.77617
-9.78578
-9.79537
-9.80488
-9.81431
-9.82362
-9.83279
-9.8418
-9.85064
-9.85929
-9.86773
-9.87596
-9.88395
-9.89169
-9.89917
-9.90637
-9.91328
-9.91989
-9.92619
-9.67787
-9.67885
-9.68133
-9.68517
-9.69013
-9.69606
-9.70285
-9.71037
-9.71846
-9.727
-9.73588
-9.745
-9.75429
-9.76368
-9.7731
-9.78251
-9.79187
-9.80114
-9.8103
-9.81933
-9.8282
-9.83688
-9.84538
-9.85366
-9.86171
-9.86953
-9.87709
-9.88438
-9.89139
-9.89811
-9.90453
-9.91064
-9.91642
-9.67607
-9.677
-9.67936
-9.68305
-9.68787
-9.69371
-9.70042
-9.70785
-9.71585
-9.7243
-9.73309
-9.7421
-9.75127
-9.76051
-9.76977
-9.77901
-9.78817
-9.79723
-9.80615
-9.81492
-9.8235
-9.83189
-9.84006
-9.84799
-9.85568
-9.86311
-9.87026
-9.87713
-9.8837
-9.88996
-9.89591
-9.90154
-9.90683
-9.67354
-9.67441
-9.67661
-9.68013
-9.68485
-9.69063
-9.69732
-9.70473
-9.71271
-9.72113
-9.72987
-9.73882
-9.74789
-9.75701
-9.76614
-9.77521
-9.78419
-9.79304
-9.80173
-9.81025
-9.81856
-9.82665
-9.8345
-9.8421
-9.84944
-9.85649
-9.86325
-9.86972
-9.87587
-9.8817
-9.88721
-9.89239
-9.89724
-9.67027
-9.67104
-9.67301
-9.67633
-9.68098
-9.68678
-9.6935
-9.70096
-9.709
-9.71747
-9.72625
-9.73522
-9.74429
-9.75338
-9.76245
-9.77143
-9.78028
-9.78898
-9.7975
-9.80581
-9.81389
-9.82173
-9.8293
-9.8366
-9.84361
-9.85032
-9.85673
-9.86281
-9.86857
-9.874
-9.87909
-9.88384
-9.88823
-9.66628
-9.66688
-9.66848
-9.67152
-9.67614
-9.68206
-9.68892
-9.69649
-9.70461
-9.71314
-9.72194
-9.73088
-9.7399
-9.74892
-9.75788
-9.76674
-9.77545
-9.78399
-9.79232
-9.80042
-9.80828
-9.81587
-9.82319
-9.83021
-9.83693
-9.84334
-9.84942
-9.85518
-9.86059
-9.86567
-9.8704
-9.87479
-9.87884
-9.66166
-9.66192
-9.66288
-9.6655
-9.67013
-9.67629
-9.68349
-9.69149
-9.70009
-9.70907
-9.71824
-9.72749
-9.73673
-9.74589
-9.75494
-9.76381
-9.77248
-9.78093
-9.78913
-9.79706
-9.80472
-9.81208
-9.81913
-9.82587
-9.83229
-9.83837
-9.84411
-9.8495
-9.85455
-9.85924
-9.86356
-9.86753
-9.8711
-9.65664
-9.65614
-9.65592
-9.65819
-9.66307
-9.66928
-9.67623
-9.68398
-9.69241
-9.70129
-9.71039
-9.71961
-9.72885
-9.73803
-9.74709
-9.75599
-9.76468
-9.77313
-9.78132
-9.78923
-9.79684
-9.80414
-9.81111
-9.81775
-9.82405
-9.83
-9.83559
-9.84082
-9.84569
-9.85019
-9.85434
-9.85813
-9.86159
-9.65191
-9.64957
-9.64644
-9.64831
-9.65521
-9.66405
-9.67339
-9.68311
-9.69307
-9.70303
-9.71285
-9.7225
-9.73194
-9.74114
-9.75009
-9.75877
-9.76717
-9.77527
-9.78307
-9.79056
-9.79772
-9.80456
-9.81106
-9.81722
-9.82303
-9.82848
-9.83358
-9.83831
-9.84268
-9.84667
-9.85029
-9.85352
-9.85634
-9.64867
-9.64344
-9.63563
-9.63291
-9.63496
-9.63987
-9.64722
-9.65646
-9.66669
-9.67729
-9.68802
-9.69876
-9.70936
-9.71972
-9.7298
-9.73954
-9.74894
-9.75798
-9.76663
-9.7749
-9.78277
-9.79024
-9.79731
-9.80398
-9.81025
-9.8161
-9.82155
-9.8266
-9.83124
-9.83549
-9.83935
-9.84284
-9.84599
-9.64854
-9.62852
-9.63105
-9.6504
-9.66658
-9.67682
-9.68588
-9.69543
-9.7048
-9.71362
-9.72209
-9.73037
-9.73847
-9.74635
-9.75403
-9.76149
-9.76873
-9.77573
-9.78249
-9.78897
-9.79518
-9.80109
-9.80671
-9.81201
-9.81699
-9.82164
-9.82595
-9.82991
-9.83353
-9.83679
-9.83969
-9.84221
-9.84432
-9.68557
-9.56221
-9.49884
-9.50205
-9.52383
-9.54487
-9.56541
-9.5863
-9.60652
-9.62542
-9.64302
-9.65945
-9.67477
-9.68907
-9.70243
-9.71493
-9.72665
-9.73763
-9.74792
-9.75756
-9.76659
-9.77503
-9.7829
-9.79023
-9.79702
-9.8033
-9.80908
-9.81436
-9.81917
-9.82352
-9.82741
-9.83087
-9.83391
-9.84517
-9.85822
-9.81668
-9.77413
-9.74959
-9.73839
-9.73311
-9.73031
-9.72952
-9.73076
-9.73359
-9.73747
-9.74205
-9.74713
-9.75256
-9.75822
-9.76398
-9.76976
-9.7755
-9.78113
-9.78662
-9.79192
-9.79701
-9.80185
-9.80642
-9.81071
-9.8147
-9.81838
-9.82174
-9.82477
-9.82746
-9.82982
-9.83184
-8.68075
-8.98094
-9.24561
-9.37103
-9.43546
-9.49094
-9.53975
-9.5773
-9.60612
-9.6301
-9.65098
-9.66928
-9.68544
-9.69994
-9.71312
-9.72521
-9.73635
-9.74666
-9.75622
-9.76512
-9.77338
-9.78106
-9.78818
-9.79477
-9.80085
-9.80643
-9.81152
-9.81614
-9.8203
-9.824
-9.82725
-9.83008
-9.83246
-10.015
-10.2903
-10.2247
-10.2348
-10.305
-10.3556
-10.3913
-10.4343
-10.4824
-10.5231
-10.5501
-10.5652
-10.5738
-10.5817
-10.5938
-10.6131
-10.6401
-10.6735
-10.711
-10.7509
-10.7926
-10.8359
-10.8809
-10.9265
-10.9703
-11.0089
-11.0383
-11.0553
-11.0575
-11.045
-11.0199
-10.9862
-10.9486
-10.9111
-10.875
-10.8381
-10.7943
-10.7342
-10.6477
-10.5254
-10.3609
-10.1528
-9.90464
-9.62485
-9.32475
-9.0164
-8.71016
-8.41284
-8.12691
-7.85074
-7.5798
-7.3081
-7.02971
-6.73988
-6.43583
-6.11725
-5.7864
-5.44792
-5.10836
-4.77533
-4.45637
-4.1577
-3.88335
-3.63475
-3.41101
-3.20967
-3.02744
-2.8609
-2.70686
-2.56261
-2.42598
-2.29532
-2.1695
-2.04784
-1.93003
-1.81602
-1.706
-1.60018
-1.49881
-1.40205
-1.30996
-1.2225
-1.13951
-1.06075
-0.985915
-0.914658
-0.846601
-0.781321
-0.718387
-0.657336
-0.597637
-0.538494
-0.47862
-0.416456
-0.348048
-0.270484
-0.176003
-0.0993757
0.00828453
-0.0818815
-10.1145
-10.3868
-10.3262
-10.3022
-10.3403
-10.3537
-10.3558
-10.3796
-10.4228
-10.4663
-10.4988
-10.5195
-10.533
-10.5447
-10.5595
-10.5807
-10.6092
-10.6437
-10.682
-10.7219
-10.7628
-10.8048
-10.848
-10.8918
-10.9338
-10.9708
-10.9985
-11.0137
-11.0142
-10.9999
-10.9731
-10.9379
-10.8991
-10.8606
-10.8239
-10.7866
-10.7426
-10.6828
-10.5965
-10.4744
-10.3103
-10.1026
-9.85528
-9.57664
-9.27816
-8.97199
-8.66858
-8.3748
-8.09304
-7.82153
-7.55545
-7.28857
-7.01468
-6.72891
-6.42845
-6.11301
-5.78485
-5.44863
-5.11091
-4.77931
-4.46146
-4.16377
-3.89047
-3.64314
-3.42099
-3.22147
-3.0412
-2.87658
-2.7243
-2.58154
-2.44603
-2.31611
-2.19065
-2.06901
-1.95093
-1.83645
-1.7258
-1.6193
-1.51723
-1.4198
-1.32711
-1.23911
-1.15567
-1.07655
-1.00143
-0.929942
-0.861701
-0.796261
-0.733169
-0.671936
-0.612016
-0.552616
-0.492348
-0.4292
-0.358317
-0.276088
-0.175228
-0.092517
0.0195346
-0.0765403
-10.1097
-10.2799
-10.2867
-10.2763
-10.3035
-10.3203
-10.3313
-10.3608
-10.4052
-10.4473
-10.4768
-10.4943
-10.5051
-10.515
-10.5287
-10.5492
-10.5773
-10.6119
-10.6503
-10.6903
-10.7306
-10.7712
-10.8125
-10.854
-10.8936
-10.9283
-10.954
-10.9675
-10.9665
-10.9511
-10.9234
-10.8874
-10.8477
-10.808
-10.7697
-10.7308
-10.6853
-10.6241
-10.537
-10.4149
-10.2517
-10.0461
-9.80161
-9.52655
-9.23201
-8.92983
-8.6303
-8.34026
-8.06217
-7.79434
-7.53197
-7.26881
-6.99866
-6.71661
-6.41989
-6.10819
-5.78376
-5.45113
-5.11669
-4.78786
-4.47217
-4.17607
-3.90393
-3.65757
-3.43635
-3.23784
-3.05864
-2.89512
-2.74386
-2.60196
-2.4671
-2.33757
-2.21224
-2.09048
-1.97207
-1.8571
-1.74585
-1.63868
-1.53592
-1.43781
-1.34447
-1.25588
-1.17191
-1.09231
-1.01677
-0.944904
-0.876314
-0.810538
-0.747096
-0.685477
-0.62511
-0.565192
-0.50425
-0.439905
-0.366645
-0.28041
-0.174652
-0.0870273
0.0273455
-0.071012
-10.1141
-10.2312
-10.2727
-10.2693
-10.285
-10.306
-10.3258
-10.3565
-10.3968
-10.4345
-10.4618
-10.479
-10.4907
-10.5015
-10.5152
-10.5345
-10.5601
-10.5915
-10.6264
-10.6628
-10.6996
-10.7366
-10.7742
-10.812
-10.8483
-10.88
-10.9035
-10.9153
-10.9135
-10.8978
-10.8702
-10.8342
-10.7939
-10.7528
-10.7123
-10.6704
-10.6216
-10.5576
-10.4687
-10.3462
-10.1846
-9.98236
-9.74298
-9.47406
-9.18596
-8.88983
-8.59545
-8.30954
-8.03468
-7.76948
-7.50952
-7.24883
-6.98143
-6.70258
-6.40958
-6.10212
-5.78237
-5.45464
-5.12495
-4.80038
-4.48813
-4.19448
-3.92389
-3.67836
-3.45755
-3.25925
-3.08022
-2.91686
-2.76577
-2.62399
-2.48918
-2.3596
-2.23409
-2.11202
-1.99318
-1.87768
-1.76584
-1.65802
-1.55459
-1.45581
-1.36182
-1.2726
-1.18802
-1.10785
-1.03176
-0.959361
-0.890241
-0.823925
-0.759913
-0.697664
-0.636574
-0.575811
-0.513836
-0.448038
-0.372558
-0.283144
-0.174067
-0.0829984
0.0317869
-0.0661791
-10.1163
-10.2
-10.2438
-10.2482
-10.2642
-10.2914
-10.3175
-10.3469
-10.3813
-10.4139
-10.439
-10.4569
-10.4706
-10.4837
-10.4993
-10.5194
-10.5446
-10.5742
-10.6067
-10.6402
-10.6737
-10.707
-10.7403
-10.7734
-10.8048
-10.832
-10.8518
-10.861
-10.8577
-10.8417
-10.8143
-10.7785
-10.7378
-10.6952
-10.6517
-10.6057
-10.5523
-10.484
-10.3921
-10.2689
-10.1091
-9.91131
-9.67868
-9.41796
-9.13845
-8.85026
-8.5624
-8.28123
-8.00947
-7.7462
-7.48758
-7.22825
-6.96269
-6.68646
-6.39703
-6.09411
-5.77971
-5.45786
-5.13417
-4.81519
-4.50762
-4.21744
-3.949
-3.70447
-3.48382
-3.28518
-3.10558
-2.9416
-2.78991
-2.6476
-2.51229
-2.38223
-2.25625
-2.13368
-2.01431
-1.89825
-1.7858
-1.67735
-1.57326
-1.47382
-1.37916
-1.28927
-1.20403
-1.1232
-1.04645
-0.97339
-0.903589
-0.836563
-0.771793
-0.70871
-0.646665
-0.584783
-0.521474
-0.454026
-0.376539
-0.284787
-0.173783
-0.0804453
0.0333998
-0.0616803
-10.1143
-10.1758
-10.2174
-10.2333
-10.2538
-10.2823
-10.3089
-10.335
-10.364
-10.3926
-10.4166
-10.4354
-10.451
-10.4661
-10.483
-10.5031
-10.5271
-10.5545
-10.584
-10.6143
-10.6445
-10.6745
-10.7043
-10.7334
-10.7606
-10.7837
-10.7998
-10.8063
-10.8015
-10.7849
-10.7577
-10.7221
-10.6809
-10.6364
-10.5895
-10.5386
-10.4795
-10.4058
-10.3101
-10.1854
-10.0272
-9.83422
-9.60902
-9.35749
-9.08778
-8.80876
-8.52849
-8.2528
-7.98443
-7.72291
-7.46514
-7.2065
-6.94215
-6.6681
-6.38206
-6.08378
-5.77509
-5.45972
-5.14281
-4.83034
-4.52847
-4.2427
-3.97717
-3.73409
-3.5137
-3.3145
-3.13389
-2.96873
-2.81587
-2.67248
-2.53623
-2.40535
-2.27864
-2.15542
-2.03544
-1.91877
-1.80571
-1.69663
-1.5919
-1.49177
-1.39641
-1.30582
-1.21985
-1.13828
-1.06077
-0.986938
-0.916331
-0.84846
-0.782787
-0.718717
-0.655557
-0.59238
-0.527565
-0.458409
-0.379238
-0.28605
-0.174434
-0.079802
0.0322373
-0.0574088
-10.1098
-10.1584
-10.1975
-10.2205
-10.2429
-10.2697
-10.2951
-10.3193
-10.3454
-10.3717
-10.3951
-10.4147
-10.4316
-10.448
-10.4655
-10.4854
-10.5079
-10.5329
-10.5595
-10.5868
-10.6141
-10.6409
-10.6672
-10.6925
-10.7155
-10.7344
-10.7468
-10.7503
-10.7436
-10.7261
-10.6987
-10.6631
-10.6214
-10.5752
-10.5251
-10.4695
-10.4049
-10.3259
-10.226
-10.0996
-9.94268
-9.7541
-9.53606
-9.29357
-9.03366
-8.76402
-8.49174
-8.22203
-7.95754
-7.69811
-7.44132
-7.18336
-6.92009
-6.64809
-6.36535
-6.07168
-5.7688
-5.46007
-5.1502
-4.84463
-4.54896
-4.26821
-4.0062
-3.76511
-3.54534
-3.34572
-3.16401
-2.99743
-2.84306
-2.69823
-2.5607
-2.42873
-2.3011
-2.1771
-2.05644
-1.93916
-1.82549
-1.71579
-1.61041
-1.5096
-1.41351
-1.32216
-1.2354
-1.15301
-1.07465
-0.999939
-0.928418
-0.859588
-0.792898
-0.727729
-0.66335
-0.598788
-0.532408
-0.461602
-0.38112
-0.287384
-0.176418
-0.0814139
0.0282417
-0.0534817
-10.1044
-10.1449
-10.1809
-10.2067
-10.23
-10.2552
-10.2799
-10.3034
-10.3278
-10.3523
-10.3748
-10.3945
-10.412
-10.429
-10.4466
-10.4657
-10.4867
-10.5094
-10.5335
-10.5581
-10.5827
-10.6068
-10.6299
-10.6515
-10.6706
-10.6855
-10.6941
-10.6946
-10.6857
-10.667
-10.639
-10.6029
-10.5602
-10.5122
-10.459
-10.3992
-10.3297
-10.2458
-10.1422
-10.0142
-9.85835
-9.67379
-9.46232
-9.22825
-8.97756
-8.71691
-8.45247
-8.18886
-7.92855
-7.67165
-7.41629
-7.15935
-6.89742
-6.62759
-6.34819
-6.05913
-5.76197
-5.45981
-5.1569
-4.85819
-4.56874
-4.29314
-4.03492
-3.79613
-3.57729
-3.37749
-3.19483
-3.02683
-2.87086
-2.72445
-2.58545
-2.45221
-2.32351
-2.19864
-2.07724
-1.95932
-1.84505
-1.73475
-1.62873
-1.52724
-1.43041
-1.33825
-1.25064
-1.16736
-1.08808
-1.0124
-0.93987
-0.86999
-0.802193
-0.735845
-0.670181
-0.604197
-0.536267
-0.463932
-0.382486
-0.288939
-0.179726
-0.0852611
0.0215495
-0.0500339
-10.0982
-10.1332
-10.166
-10.1926
-10.2163
-10.2406
-10.2646
-10.2875
-10.3104
-10.3333
-10.3548
-10.3742
-10.3919
-10.4089
-10.4262
-10.4444
-10.4638
-10.4846
-10.5063
-10.5286
-10.5507
-10.572
-10.5921
-10.6103
-10.6256
-10.6366
-10.6417
-10.6393
-10.6283
-10.6081
-10.5791
-10.5422
-10.4985
-10.4487
-10.3926
-10.3291
-10.2552
-10.1671
-10.0604
-9.93107
-9.77633
-9.59546
-9.39002
-9.16364
-8.92146
-8.6692
-8.41221
-8.15458
-7.89858
-7.64453
-7.39101
-7.13554
-6.87528
-6.60786
-6.3319
-6.0474
-5.75584
-5.46003
-5.16383
-4.87171
-4.58829
-4.31773
-4.06327
-3.82687
-3.60911
-3.4093
-3.22582
-3.0565
-2.89895
-2.75091
-2.61039
-2.47578
-2.34593
-2.22009
-2.0979
-1.9793
-1.86442
-1.75351
-1.64686
-1.54468
-1.44709
-1.35411
-1.26562
-1.1814
-1.10112
-1.02441
-0.950802
-0.8798
-0.810832
-0.743248
-0.676265
-0.608857
-0.539433
-0.465709
-0.383574
-0.290718
-0.184067
-0.090972
0.0125719
-0.0471159
-10.0914
-10.1225
-10.1524
-10.1786
-10.2024
-10.2259
-10.249
-10.2712
-10.2929
-10.3144
-10.3348
-10.3537
-10.3712
-10.388
-10.4047
-10.4218
-10.4398
-10.4587
-10.4784
-10.4984
-10.518
-10.5367
-10.5538
-10.5686
-10.5804
-10.5879
-10.5897
-10.5844
-10.5712
-10.5495
-10.5193
-10.4814
-10.4364
-10.3848
-10.3262
-10.2593
-10.1818
-10.0902
-9.98105
-9.85082
-9.69731
-9.51992
-9.32
-9.10066
-8.86627
-8.62176
-8.37176
-8.1199
-7.86827
-7.61731
-7.366
-7.11237
-6.85414
-6.58936
-6.31695
-6.037
-5.75088
-5.46118
-5.17139
-4.88557
-4.60791
-4.34219
-4.09139
-3.85738
-3.64078
-3.44108
-3.25691
-3.08637
-2.92732
-2.77768
-2.63561
-2.4996
-2.36853
-2.24167
-2.11862
-1.99928
-1.88374
-1.7722
-1.6649
-1.56201
-1.46366
-1.36983
-1.28043
-1.19522
-1.11392
-1.03612
-0.961387
-0.889216
-0.819032
-0.750179
-0.681861
-0.613049
-0.542202
-0.467231
-0.384606
-0.29271
-0.189064
-0.0979664
0.0019388
-0.0446675
-10.0842
-10.1122
-10.1397
-10.165
-10.1883
-10.211
-10.2332
-10.2545
-10.2752
-10.2955
-10.3149
-10.3331
-10.3501
-10.3663
-10.3823
-10.3984
-10.415
-10.4322
-10.4499
-10.4676
-10.4847
-10.5007
-10.5149
-10.5266
-10.535
-10.5392
-10.5379
-10.5299
-10.5145
-10.4911
-10.4597
-10.4206
-10.3742
-10.3207
-10.2597
-10.1899
-10.1093
-10.015
-9.90385
-9.77314
-9.62099
-9.44694
-9.25215
-9.03926
-8.81204
-8.57469
-8.33126
-8.08493
-7.83765
-7.58996
-7.34116
-7.08972
-6.83382
-6.57191
-6.30315
-6.02773
-5.74694
-5.46313
-5.17948
-4.89969
-4.62753
-4.36646
-4.11923
-3.88759
-3.67221
-3.47273
-3.28801
-3.11637
-2.95592
-2.80476
-2.66118
-2.52378
-2.39148
-2.26356
-2.1396
-2.01948
-1.90323
-1.79101
-1.68302
-1.5794
-1.48024
-1.38555
-1.2952
-1.20899
-1.12662
-1.0477
-0.971812
-0.898439
-0.827013
-0.756873
-0.687221
-0.617035
-0.544843
-0.468752
-0.385779
-0.294936
-0.1944
-0.105628
-0.00961648
-0.0425644
-10.0766
-10.1022
-10.1276
-10.1516
-10.1742
-10.196
-10.2172
-10.2376
-10.2573
-10.2765
-10.2949
-10.3123
-10.3286
-10.3441
-10.3593
-10.3744
-10.3896
-10.4051
-10.4208
-10.4362
-10.4509
-10.4642
-10.4756
-10.4842
-10.4895
-10.4905
-10.4863
-10.4758
-10.4582
-10.4331
-10.4002
-10.3597
-10.3119
-10.2566
-10.1933
-10.121
-10.0378
-9.94112
-9.82852
-9.69765
-9.54697
-9.37613
-9.18612
-8.97921
-8.7586
-8.52793
-8.29067
-8.04967
-7.80671
-7.56242
-7.31636
-7.06738
-6.81407
-6.55522
-6.29021
-6.0193
-5.74372
-5.46562
-5.18789
-4.91387
-4.64699
-4.39041
-4.14665
-3.91737
-3.70326
-3.50411
-3.31895
-3.14635
-2.9846
-2.83201
-2.687
-2.54825
-2.41473
-2.28574
-2.16087
-2.03993
-1.92294
-1.81001
-1.70129
-1.59691
-1.49693
-1.40135
-1.31004
-1.2228
-1.13933
-1.05928
-0.98221
-0.907617
-0.834934
-0.763503
-0.692528
-0.621006
-0.547547
-0.470453
-0.387235
-0.297435
-0.199875
-0.113446
-0.0213732
-0.0407059
-10.0687
-10.0922
-10.1157
-10.1384
-10.1601
-10.1809
-10.2011
-10.2206
-10.2393
-10.2574
-10.2748
-10.2913
-10.3068
-10.3215
-10.3357
-10.3497
-10.3636
-10.3775
-10.3911
-10.4043
-10.4166
-10.4273
-10.4358
-10.4416
-10.444
-10.4421
-10.435
-10.422
-10.4023
-10.3753
-10.3409
-10.299
-10.2496
-10.1925
-10.1272
-10.0526
-9.96711
-9.86858
-9.75489
-9.6241
-9.47496
-9.3072
-9.12167
-8.92032
-8.70585
-8.4814
-8.25
-8.01414
-7.77548
-7.53468
-7.29156
-7.04528
-6.79477
-6.53913
-6.27793
-6.0115
-5.74102
-5.46846
-5.19643
-4.92796
-4.66617
-4.41392
-4.17355
-3.94661
-3.73383
-3.53509
-3.34962
-3.17616
-3.01324
-2.85931
-2.71294
-2.57288
-2.43817
-2.30812
-2.18232
-2.06056
-1.94281
-1.82914
-1.71968
-1.61452
-1.51371
-1.41721
-1.32493
-1.23665
-1.15209
-1.07089
-0.992625
-0.916804
-0.842863
-0.770146
-0.697869
-0.625058
-0.550413
-0.472424
-0.389044
-0.300233
-0.205382
-0.121075
-0.0327189
-0.0390845
-10.0604
-10.0822
-10.1041
-10.1254
-10.1459
-10.1658
-10.185
-10.2034
-10.2212
-10.2382
-10.2546
-10.2701
-10.2847
-10.2985
-10.3117
-10.3246
-10.337
-10.3492
-10.3609
-10.3719
-10.3818
-10.39
-10.3959
-10.3989
-10.3984
-10.3938
-10.3841
-10.3686
-10.3468
-10.318
-10.2819
-10.2385
-10.1875
-10.1287
-10.0615
-9.98488
-9.89741
-9.79735
-9.68286
-9.55235
-9.4048
-9.23999
-9.05866
-8.86247
-8.65373
-8.43512
-8.20927
-7.97839
-7.74399
-7.50679
-7.26677
-7.02339
-6.77586
-6.52354
-6.2662
-6.00423
-5.73873
-5.47152
-5.20499
-4.94187
-4.68498
-4.43693
-4.19986
-3.97526
-3.76385
-3.56561
-3.37993
-3.20575
-3.04175
-2.88657
-2.73889
-2.59756
-2.46169
-2.33059
-2.20386
-2.08126
-1.96273
-1.84832
-1.7381
-1.63214
-1.53048
-1.43308
-1.33982
-1.2505
-1.16484
-1.08249
-1.00303
-0.925985
-0.850791
-0.776804
-0.703255
-0.629208
-0.553457
-0.474675
-0.391202
-0.303311
-0.210857
-0.12833
-0.043213
-0.0377756
-10.0519
-10.0721
-10.0924
-10.1124
-10.1318
-10.1506
-10.1687
-10.1861
-10.2029
-10.2189
-10.2342
-10.2487
-10.2623
-10.2752
-10.2874
-10.2989
-10.31
-10.3205
-10.3303
-10.3391
-10.3467
-10.3524
-10.3557
-10.3561
-10.353
-10.3457
-10.3334
-10.3156
-10.2917
-10.261
-10.2233
-10.1783
-10.1257
-10.0652
-9.99625
-9.91785
-9.82874
-9.72743
-9.61241
-9.48233
-9.33638
-9.17439
-8.99701
-8.80563
-8.60223
-8.38911
-8.16854
-7.94248
-7.71231
-7.47878
-7.24201
-7.00169
-6.7573
-6.50842
-6.25497
-5.99739
-5.73676
-5.47474
-5.21351
-4.95553
-4.70335
-4.45937
-4.22555
-4.00327
-3.79327
-3.59562
-3.40985
-3.23504
-3.07008
-2.91372
-2.7648
-2.62225
-2.48523
-2.35309
-2.22542
-2.10197
-1.98265
-1.86747
-1.75648
-1.64972
-1.54721
-1.44889
-1.35465
-1.26428
-1.17752
-1.09402
-1.01338
-0.935114
-0.85868
-0.783444
-0.708657
-0.633429
-0.556652
-0.477171
-0.39366
-0.306618
-0.21625
-0.135135
-0.0526123
-0.0368797
-10.0431
-10.0619
-10.0808
-10.0995
-10.1177
-10.1354
-10.1524
-10.1688
-10.1845
-10.1995
-10.2138
-10.2272
-10.2398
-10.2516
-10.2626
-10.2729
-10.2825
-10.2913
-10.2992
-10.306
-10.3113
-10.3146
-10.3155
-10.3134
-10.3077
-10.2978
-10.2832
-10.2631
-10.237
-10.2045
-10.1651
-10.1184
-10.0643
-10.0023
-9.93165
-9.85165
-9.76114
-9.65885
-9.5435
-9.414
-9.26965
-9.11036
-8.93668
-8.74979
-8.55139
-8.34343
-8.12789
-7.90649
-7.68051
-7.4507
-7.2173
-6.98019
-6.73907
-6.49371
-6.24417
-5.99094
-5.73506
-5.47807
-5.22193
-4.96889
-4.72127
-4.48122
-4.25056
-4.0306
-3.82205
-3.62508
-3.4393
-3.26399
-3.09816
-2.94073
-2.79063
-2.6469
-2.50876
-2.37559
-2.24697
-2.12265
-2.00252
-1.88656
-1.77478
-1.6672
-1.56382
-1.46459
-1.36936
-1.27795
-1.1901
-1.10546
-1.02363
-0.944156
-0.866497
-0.790035
-0.714048
-0.637694
-0.559964
-0.479863
-0.396353
-0.310086
-0.221507
-0.141472
-0.060844
-0.0364594
-10.0341
-10.0516
-10.0691
-10.0865
-10.1036
-10.1201
-10.1361
-10.1514
-10.1661
-10.18
-10.1932
-10.2056
-10.2171
-10.2277
-10.2376
-10.2465
-10.2546
-10.2618
-10.2679
-10.2726
-10.2757
-10.2767
-10.2752
-10.2707
-10.2626
-10.2503
-10.2333
-10.211
-10.1829
-10.1485
-10.1074
-10.0592
-10.0035
-9.93989
-9.86779
-9.78638
-9.6947
-9.59165
-9.47616
-9.34732
-9.20458
-9.04787
-8.87767
-8.69498
-8.50125
-8.29815
-8.0874
-7.87052
-7.64867
-7.42261
-7.19268
-6.9589
-6.72115
-6.47938
-6.23376
-5.98484
-5.73359
-5.48146
-5.23023
-4.98194
-4.7387
-4.50245
-4.27488
-4.05721
-3.85016
-3.65392
-3.46826
-3.29254
-3.12595
-2.96753
-2.81633
-2.67148
-2.53224
-2.39804
-2.26848
-2.14328
-2.02233
-1.90556
-1.79298
-1.68457
-1.58032
-1.48015
-1.38394
-1.29149
-1.20254
-1.11677
-1.03377
-0.953095
-0.874227
-0.796564
-0.719413
-0.641984
-0.563367
-0.482714
-0.399225
-0.313651
-0.226581
-0.147349
-0.0679551
-0.0365165
-10.0248
-10.0411
-10.0574
-10.0736
-10.0894
-10.1049
-10.1197
-10.134
-10.1476
-10.1604
-10.1725
-10.1838
-10.1942
-10.2037
-10.2123
-10.2199
-10.2265
-10.232
-10.2363
-10.2391
-10.24
-10.2389
-10.2351
-10.2282
-10.2177
-10.2031
-10.1839
-10.1594
-10.1293
-10.0931
-10.0503
-10.0005
-9.94332
-9.87828
-9.8048
-9.72215
-9.62949
-9.52587
-9.41039
-9.2823
-9.14116
-8.98691
-8.81998
-8.64122
-8.45187
-8.25336
-8.04718
-7.83465
-7.61688
-7.39459
-7.16818
-6.93782
-6.70354
-6.46541
-6.22372
-5.97903
-5.73231
-5.48487
-5.23837
-4.99465
-4.75562
-4.52305
-4.29849
-4.08309
-3.87756
-3.68213
-3.49666
-3.32066
-3.1534
-2.99409
-2.84186
-2.69593
-2.55564
-2.42043
-2.28992
-2.16384
-2.04205
-1.92446
-1.81105
-1.7018
-1.59667
-1.49557
-1.39838
-1.30489
-1.21485
-1.12794
-1.04378
-0.961923
-0.881865
-0.803027
-0.724749
-0.646295
-0.566849
-0.485694
-0.402231
-0.317262
-0.231439
-0.152782
-0.0740557
-0.0369936
-10.0152
-10.0304
-10.0455
-10.0605
-10.0753
-10.0896
-10.1034
-10.1165
-10.129
-10.1408
-10.1518
-10.162
-10.1712
-10.1795
-10.1868
-10.1931
-10.1982
-10.2021
-10.2046
-10.2054
-10.2044
-10.201
-10.195
-10.1859
-10.1732
-10.1563
-10.1349
-10.1085
-10.0764
-10.0384
-9.99392
-9.94258
-9.88394
-9.81753
-9.74279
-9.65906
-9.56558
-9.46155
-9.34621
-9.21894
-9.07937
-8.92748
-8.76363
-8.58857
-8.40333
-8.20915
-8.00731
-7.79901
-7.58523
-7.36669
-7.14386
-6.91699
-6.68623
-6.45178
-6.214
-5.97349
-5.73117
-5.48828
-5.24633
-5.007
-4.77201
-4.543
-4.32138
-4.10822
-3.90422
-3.70967
-3.52448
-3.34828
-3.18046
-3.02034
-2.86716
-2.72022
-2.57891
-2.44271
-2.31126
-2.18429
-2.06165
-1.94323
-1.82899
-1.71889
-1.61287
-1.51083
-1.41265
-1.31813
-1.22701
-1.13898
-1.05366
-0.970639
-0.889412
-0.809427
-0.73006
-0.650627
-0.570402
-0.488785
-0.405337
-0.32088
-0.23606
-0.157793
-0.0792807
-0.0377981
-10.0054
-10.0195
-10.0336
-10.0475
-10.0611
-10.0743
-10.087
-10.0991
-10.1105
-10.1212
-10.1311
-10.1401
-10.1482
-10.1552
-10.1613
-10.1661
-10.1698
-10.172
-10.1728
-10.1718
-10.1687
-10.1633
-10.1552
-10.1439
-10.129
-10.1101
-10.0866
-10.0582
-10.0243
-9.98447
-9.93836
-9.8855
-9.82546
-9.75777
-9.68189
-9.59721
-9.50306
-9.39876
-9.28366
-9.15725
-9.01923
-8.86959
-8.70866
-8.53706
-8.35568
-8.16559
-7.9679