/*--------------------------------*- C++ -*----------------------------------*\
  =========                 |
  \\      /  F ield         | OpenFOAM: The Open Source CFD Toolbox
   \\    /   O peration     | Website:  https://openfoam.org
    \\  /    A nd           | Version:  10
     \\/     M anipulation  |
\*---------------------------------------------------------------------------*/
FoamFile
{
    format      ascii;
    class       surfaceScalarField;
    location    "900";
    object      phi;
}
// * * * * * * * * * * * * * * * * * * * * * * * * * * * * * * * * * * * * * //

dimensions      [0 3 -1 0 0 0 0];

internalField   nonuniform List<scalar> 
13452
(
6.02921e-05
-2.36417e-08
5.99943e-05
2.97783e-07
5.95909e-05
4.03422e-07
5.91177e-05
4.73191e-07
5.86145e-05
5.03208e-07
5.81347e-05
4.7983e-07
5.77003e-05
4.34414e-07
5.73116e-05
3.88672e-07
5.69632e-05
3.48381e-07
5.66493e-05
3.13872e-07
5.63647e-05
2.84627e-07
5.61048e-05
2.59917e-07
5.58659e-05
2.38913e-07
5.5645e-05
2.20863e-07
5.54398e-05
2.05172e-07
5.52484e-05
1.9139e-07
5.50693e-05
1.79178e-07
5.4901e-05
1.68279e-07
5.47425e-05
1.58502e-07
5.45928e-05
1.4971e-07
5.4451e-05
1.41809e-07
5.43162e-05
1.34748e-07
5.41877e-05
1.28525e-07
5.40645e-05
1.23197e-07
5.39456e-05
1.18907e-07
5.38296e-05
1.15986e-07
5.37146e-05
1.14978e-07
5.35978e-05
1.16825e-07
5.34709e-05
1.26866e-07
5.33333e-05
1.37668e-07
5.31462e-05
1.87077e-07
5.2862e-05
2.84228e-07
4.63685e-07
5.23983e-05
6.21472e-05
-1.80517e-07
6.21733e-05
2.71661e-07
6.21955e-05
3.81238e-07
6.22124e-05
4.56344e-07
6.2213e-05
5.02543e-07
6.21837e-05
5.09203e-07
6.21229e-05
4.95218e-07
6.20368e-05
4.74721e-07
6.19332e-05
4.52028e-07
6.18185e-05
4.28569e-07
6.16976e-05
4.0548e-07
6.1574e-05
3.83504e-07
6.145e-05
3.62927e-07
6.13271e-05
3.4379e-07
6.12062e-05
3.26041e-07
6.1088e-05
3.09601e-07
6.09728e-05
2.94375e-07
6.08608e-05
2.80271e-07
6.07521e-05
2.67209e-07
6.06467e-05
2.55124e-07
6.05445e-05
2.43976e-07
6.04455e-05
2.33751e-07
6.03496e-05
2.24475e-07
6.02565e-05
2.16226e-07
6.01663e-05
2.09174e-07
6.00787e-05
2.03603e-07
5.99935e-05
2.0016e-07
5.9911e-05
1.9934e-07
5.9832e-05
2.05835e-07
5.97566e-05
2.13065e-07
5.96945e-05
2.49152e-07
5.96738e-05
3.04928e-07
4.11356e-07
5.97261e-05
6.36688e-05
-8.78707e-08
6.37279e-05
2.12554e-07
6.37884e-05
3.20664e-07
6.38526e-05
3.92217e-07
6.39082e-05
4.4694e-07
6.39458e-05
4.71545e-07
6.39654e-05
4.75614e-07
6.39697e-05
4.70407e-07
6.39614e-05
4.60357e-07
6.39428e-05
4.47179e-07
6.3916e-05
4.32254e-07
6.38829e-05
4.16633e-07
6.38449e-05
4.00924e-07
6.38032e-05
3.85449e-07
6.37589e-05
3.70401e-07
6.37126e-05
3.55896e-07
6.3665e-05
3.42005e-07
6.36165e-05
3.28765e-07
6.35675e-05
3.16202e-07
6.35183e-05
3.04341e-07
6.3469e-05
2.93214e-07
6.34199e-05
2.82875e-07
6.3371e-05
2.7341e-07
6.33222e-05
2.64959e-07
6.32736e-05
2.57759e-07
6.32251e-05
2.5215e-07
6.31764e-05
2.48851e-07
6.31273e-05
2.48445e-07
6.30789e-05
2.54196e-07
6.30286e-05
2.6344e-07
6.29868e-05
2.90921e-07
6.29608e-05
3.30961e-07
3.83253e-07
6.29889e-05
6.55169e-05
-2.17416e-08
6.55582e-05
1.71246e-07
6.55957e-05
2.83174e-07
6.56374e-05
3.50526e-07
6.56807e-05
4.03674e-07
6.57187e-05
4.33543e-07
6.57498e-05
4.44515e-07
6.57743e-05
4.45931e-07
6.57924e-05
4.42213e-07
6.58046e-05
4.34954e-07
6.58116e-05
4.25342e-07
6.58138e-05
4.14361e-07
6.58121e-05
4.02638e-07
6.5807e-05
3.90553e-07
6.5799e-05
3.7836e-07
6.57887e-05
3.66244e-07
6.57764e-05
3.54341e-07
6.57624e-05
3.4275e-07
6.5747e-05
3.31553e-07
6.57305e-05
3.20826e-07
6.57131e-05
3.10651e-07
6.56949e-05
3.01124e-07
6.56759e-05
2.92378e-07
6.56563e-05
2.84591e-07
6.5636e-05
2.78037e-07
6.5615e-05
2.73087e-07
6.55935e-05
2.70399e-07
6.55713e-05
2.70619e-07
6.55498e-05
2.75736e-07
6.55281e-05
2.85166e-07
6.55133e-05
3.0564e-07
6.55119e-05
3.32414e-07
3.60558e-07
6.55346e-05
6.74276e-05
7.44795e-09
6.74483e-05
1.5058e-07
6.74723e-05
2.5914e-07
6.75011e-05
3.21696e-07
6.75352e-05
3.69559e-07
6.7569e-05
3.99812e-07
6.75997e-05
4.13756e-07
6.76272e-05
4.18495e-07
6.76513e-05
4.18118e-07
6.76721e-05
4.14149e-07
6.76898e-05
4.0765e-07
6.77046e-05
3.99535e-07
6.77168e-05
3.90418e-07
6.77267e-05
3.80678e-07
6.77345e-05
3.7058e-07
6.77404e-05
3.60328e-07
6.77446e-05
3.50074e-07
6.77474e-05
3.39941e-07
6.7749e-05
3.30035e-07
6.77493e-05
3.20454e-07
6.77487e-05
3.11304e-07
6.77471e-05
3.02706e-07
6.77447e-05
2.9481e-07
6.77414e-05
2.87814e-07
6.77375e-05
2.8199e-07
6.77329e-05
2.77696e-07
6.77278e-05
2.75478e-07
6.77225e-05
2.75902e-07
6.77181e-05
2.8012e-07
6.77152e-05
2.88138e-07
6.77184e-05
3.024e-07
6.77314e-05
3.19434e-07
3.3494e-07
6.7757e-05
6.937e-05
2.1478e-08
6.9383e-05
1.3761e-07
6.9405e-05
2.37078e-07
6.943e-05
2.96772e-07
6.94588e-05
3.4073e-07
6.94882e-05
3.70379e-07
6.95161e-05
3.85841e-07
6.95422e-05
3.92397e-07
6.95665e-05
3.93821e-07
6.9589e-05
3.91674e-07
6.96097e-05
3.86965e-07
6.96287e-05
3.80553e-07
6.96461e-05
3.73035e-07
6.96619e-05
3.64788e-07
6.96764e-05
3.56076e-07
6.96897e-05
3.47104e-07
6.97017e-05
3.3803e-07
6.97127e-05
3.28981e-07
6.97226e-05
3.20072e-07
6.97317e-05
3.1141e-07
6.97399e-05
3.03108e-07
6.97473e-05
2.95293e-07
6.9754e-05
2.88121e-07
6.976e-05
2.81782e-07
6.97655e-05
2.76527e-07
6.97705e-05
2.72665e-07
6.97754e-05
2.70614e-07
6.97805e-05
2.7079e-07
6.97868e-05
2.73799e-07
6.97953e-05
2.79637e-07
6.98089e-05
2.88789e-07
6.98295e-05
2.98836e-07
3.06719e-07
6.98577e-05
7.13589e-05
2.89144e-08
7.13698e-05
1.26689e-07
7.13912e-05
2.15728e-07
7.14146e-05
2.73367e-07
7.14405e-05
3.14779e-07
7.14673e-05
3.43611e-07
7.14932e-05
3.59968e-07
7.15178e-05
3.67739e-07
7.15413e-05
3.70327e-07
7.15637e-05
3.6934e-07
7.15849e-05
3.65766e-07
7.1605e-05
3.60427e-07
7.16241e-05
3.53915e-07
7.16423e-05
3.46615e-07
7.16595e-05
3.38796e-07
7.1676e-05
3.30665e-07
7.16916e-05
3.22382e-07
7.17065e-05
3.14079e-07
7.17207e-05
3.0587e-07
7.17343e-05
2.97866e-07
7.17472e-05
2.90179e-07
7.17596e-05
2.82935e-07
7.17714e-05
2.76279e-07
7.17828e-05
2.70384e-07
7.17939e-05
2.65461e-07
7.18048e-05
2.61757e-07
7.18158e-05
2.5956e-07
7.18275e-05
2.5913e-07
7.18406e-05
2.60721e-07
7.1856e-05
2.64193e-07
7.18755e-05
2.6926e-07
7.19002e-05
2.74219e-07
2.77023e-07
7.19299e-05
7.3402e-05
3.21725e-08
7.34119e-05
1.1677e-07
7.34317e-05
1.95979e-07
7.3454e-05
2.51094e-07
7.34783e-05
2.90427e-07
7.35036e-05
3.18302e-07
7.35284e-05
3.35198e-07
7.35522e-05
3.43932e-07
7.35751e-05
3.47447e-07
7.35971e-05
3.47352e-07
7.36182e-05
3.44627e-07
7.36386e-05
3.40066e-07
7.36582e-05
3.34261e-07
7.36772e-05
3.2761e-07
7.36956e-05
3.20394e-07
7.37135e-05
3.12826e-07
7.37308e-05
3.05073e-07
7.37476e-05
2.97268e-07
7.37639e-05
2.89529e-07
7.37798e-05
2.81965e-07
7.37953e-05
2.74685e-07
7.38104e-05
2.67807e-07
7.38253e-05
2.6146e-07
7.38399e-05
2.55791e-07
7.38544e-05
2.50967e-07
7.38689e-05
2.47164e-07
7.38839e-05
2.44563e-07
7.38998e-05
2.43285e-07
7.39171e-05
2.4337e-07
7.39368e-05
2.44568e-07
7.39597e-05
2.46359e-07
7.39864e-05
2.47512e-07
2.46691e-07
7.40167e-05
7.55019e-05
3.27689e-08
7.55111e-05
1.07561e-07
7.55291e-05
1.77971e-07
7.55503e-05
2.29903e-07
7.55735e-05
2.67252e-07
7.55977e-05
2.94046e-07
7.56218e-05
3.11141e-07
7.56451e-05
3.20601e-07
7.56677e-05
3.24883e-07
7.56895e-05
3.25537e-07
7.57106e-05
3.23524e-07
7.5731e-05
3.19608e-07
7.57509e-05
3.14374e-07
7.57703e-05
3.0823e-07
7.57892e-05
3.0147e-07
7.58077e-05
2.94314e-07
7.58259e-05
2.86937e-07
7.58437e-05
2.79477e-07
7.58611e-05
2.72053e-07
7.58783e-05
2.64773e-07
7.58953e-05
2.57742e-07
7.5912e-05
2.51064e-07
7.59286e-05
2.44853e-07
7.59452e-05
2.39226e-07
7.59619e-05
2.34304e-07
7.59788e-05
2.30203e-07
7.59964e-05
2.27013e-07
7.60149e-05
2.24754e-07
7.60349e-05
2.2334e-07
7.6057e-05
2.22473e-07
7.60818e-05
2.21614e-07
7.61094e-05
2.19862e-07
2.16346e-07
7.61398e-05
7.76605e-05
3.18271e-08
7.76693e-05
9.88205e-08
7.76857e-05
1.61499e-07
7.77058e-05
2.09832e-07
7.77279e-05
2.45156e-07
7.77512e-05
2.70745e-07
7.77746e-05
2.87708e-07
7.77976e-05
2.9762e-07
7.782e-05
3.02493e-07
7.78418e-05
3.03762e-07
7.78629e-05
3.02357e-07
7.78836e-05
2.99003e-07
7.79037e-05
2.94266e-07
7.79233e-05
2.88559e-07
7.79426e-05
2.82182e-07
7.79616e-05
2.75363e-07
7.79802e-05
2.68281e-07
7.79986e-05
2.61079e-07
7.80168e-05
2.53876e-07
7.80348e-05
2.4678e-07
7.80526e-05
2.39887e-07
7.80704e-05
2.33292e-07
7.80882e-05
2.27088e-07
7.8106e-05
2.21365e-07
7.81241e-05
2.16205e-07
7.81427e-05
2.11669e-07
7.81619e-05
2.07781e-07
7.81822e-05
2.04496e-07
7.82038e-05
2.01664e-07
7.82273e-05
1.98981e-07
7.8253e-05
1.95971e-07
7.82809e-05
1.91971e-07
1.86406e-07
7.83108e-05
7.98801e-05
3.00492e-08
7.98885e-05
9.04185e-08
7.99037e-05
1.46337e-07
7.99226e-05
1.90892e-07
7.99437e-05
2.24085e-07
7.99661e-05
2.48354e-07
7.99889e-05
2.64899e-07
8.00115e-05
2.74993e-07
8.00337e-05
2.80262e-07
8.00555e-05
2.82001e-07
8.00768e-05
2.81092e-07
8.00975e-05
2.78216e-07
8.01179e-05
2.73914e-07
8.01379e-05
2.68593e-07
8.01575e-05
2.62553e-07
8.01768e-05
2.56026e-07
8.01959e-05
2.49193e-07
8.02148e-05
2.42198e-07
8.02335e-05
2.35161e-07
8.02521e-05
2.28185e-07
8.02706e-05
2.2136e-07
8.02892e-05
2.14769e-07
8.03078e-05
2.08485e-07
8.03265e-05
2.02575e-07
8.03457e-05
1.97085e-07
8.03653e-05
1.92038e-07
8.03857e-05
1.87413e-07
8.0407e-05
1.83125e-07
8.04297e-05
1.79e-07
8.04539e-05
1.74758e-07
8.04799e-05
1.70006e-07
8.05076e-05
1.64252e-07
1.57115e-07
8.05369e-05
8.21626e-05
2.78475e-08
8.21707e-05
8.2318e-08
8.21848e-05
1.32289e-07
8.22026e-05
1.73038e-07
8.22228e-05
2.03983e-07
8.22443e-05
2.26825e-07
8.22665e-05
2.42723e-07
8.22887e-05
2.52749e-07
8.23107e-05
2.58221e-07
8.23325e-05
2.60279e-07
8.23538e-05
2.59746e-07
8.23748e-05
2.57257e-07
8.23954e-05
2.53322e-07
8.24156e-05
2.48334e-07
8.24356e-05
2.42589e-07
8.24553e-05
2.36317e-07
8.24748e-05
2.29697e-07
8.24941e-05
2.22875e-07
8.25133e-05
2.15966e-07
8.25324e-05
2.09068e-07
8.25515e-05
2.02265e-07
8.25707e-05
1.95625e-07
8.25899e-05
1.89208e-07
8.26095e-05
1.83056e-07
8.26293e-05
1.77192e-07
8.26498e-05
1.71608e-07
8.26709e-05
1.66257e-07
8.2693e-05
1.61034e-07
8.27163e-05
1.55769e-07
8.27408e-05
1.50215e-07
8.27667e-05
1.4406e-07
8.27941e-05
1.36941e-07
1.286e-07
8.28226e-05
8.45102e-05
2.54624e-08
8.4518e-05
7.45184e-08
8.45311e-05
1.19183e-07
8.45479e-05
1.56193e-07
8.45671e-05
1.84792e-07
8.45878e-05
2.06106e-07
8.46094e-05
2.21173e-07
8.46312e-05
2.30914e-07
8.4653e-05
2.36405e-07
8.46747e-05
2.38635e-07
8.46961e-05
2.38357e-07
8.47172e-05
2.36158e-07
8.4738e-05
2.32516e-07
8.47585e-05
2.27803e-07
8.47788e-05
2.22307e-07
8.47988e-05
2.16252e-07
8.48187e-05
2.09814e-07
8.48385e-05
2.03133e-07
8.48581e-05
1.96322e-07
8.48777e-05
1.89472e-07
8.48973e-05
1.82658e-07
8.4917e-05
1.75937e-07
8.49368e-05
1.69355e-07
8.4957e-05
1.62936e-07
8.49775e-05
1.56685e-07
8.49985e-05
1.50575e-07
8.50202e-05
1.44544e-07
8.50428e-05
1.38485e-07
8.50663e-05
1.3224e-07
8.50909e-05
1.25605e-07
8.51166e-05
1.18335e-07
8.51434e-05
1.10162e-07
1.00916e-07
8.51711e-05
8.69246e-05
2.30309e-08
8.69321e-05
6.70263e-08
8.69444e-05
1.06878e-07
8.69603e-05
1.40265e-07
8.69787e-05
1.66448e-07
8.69986e-05
1.86144e-07
8.70196e-05
2.00227e-07
8.7041e-05
2.09496e-07
8.70626e-05
2.14838e-07
8.70841e-05
2.17098e-07
8.71055e-05
2.16957e-07
8.71267e-05
2.14954e-07
8.71477e-05
2.11528e-07
8.71685e-05
2.07031e-07
8.7189e-05
2.01736e-07
8.72094e-05
1.95858e-07
8.72297e-05
1.89568e-07
8.72498e-05
1.83e-07
8.72699e-05
1.76261e-07
8.72899e-05
1.69434e-07
8.731e-05
1.62587e-07
8.73301e-05
1.55766e-07
8.73505e-05
1.49005e-07
8.73711e-05
1.42315e-07
8.73921e-05
1.35688e-07
8.74136e-05
1.29087e-07
8.74357e-05
1.22446e-07
8.74585e-05
1.15662e-07
8.74822e-05
1.08601e-07
8.75067e-05
1.01093e-07
8.75321e-05
9.29537e-08
8.75582e-05
8.39852e-08
7.40793e-08
8.75851e-05
8.94079e-05
2.06273e-08
8.94151e-05
5.98435e-08
8.94267e-05
9.52627e-08
8.94418e-05
1.2516e-07
8.94594e-05
1.48886e-07
8.94787e-05
1.66882e-07
8.9499e-05
1.79855e-07
8.952e-05
1.88492e-07
8.95413e-05
1.93532e-07
8.95628e-05
1.95691e-07
8.95841e-05
1.95575e-07
8.96054e-05
1.93674e-07
8.96266e-05
1.9039e-07
8.96475e-05
1.86047e-07
8.96684e-05
1.80904e-07
8.96891e-05
1.75165e-07
8.97096e-05
1.68991e-07
8.97301e-05
1.62509e-07
8.97506e-05
1.55818e-07
8.9771e-05
1.48997e-07
8.97915e-05
1.42101e-07
8.98121e-05
1.35172e-07
8.98329e-05
1.28231e-07
8.98539e-05
1.21282e-07
8.98753e-05
1.14308e-07
8.98971e-05
1.07269e-07
8.99194e-05
1.001e-07
8.99424e-05
9.27103e-08
8.9966e-05
8.4986e-08
8.99903e-05
7.67946e-08
9.00153e-05
6.79968e-08
9.00408e-05
5.84494e-08
4.80892e-08
9.00668e-05
9.19622e-05
1.8289e-08
9.19691e-05
5.29644e-08
9.19801e-05
8.42466e-08
9.19945e-05
1.10788e-07
9.20113e-05
1.32039e-07
9.20299e-05
1.48264e-07
9.20498e-05
1.6002e-07
9.20704e-05
1.67889e-07
9.20914e-05
1.72489e-07
9.21127e-05
1.74425e-07
9.2134e-05
1.7423e-07
9.21554e-05
1.72342e-07
9.21766e-05
1.69126e-07
9.21978e-05
1.64878e-07
9.22188e-05
1.5984e-07
9.22398e-05
1.54202e-07
9.22607e-05
1.48113e-07
9.22815e-05
1.41693e-07
9.23023e-05
1.35034e-07
9.23231e-05
1.28204e-07
9.23439e-05
1.21254e-07
9.23649e-05
1.14217e-07
9.2386e-05
1.07108e-07
9.24074e-05
9.9924e-08
9.2429e-05
9.2645e-08
9.24511e-05
8.52312e-08
9.24735e-05
7.76237e-08
9.24965e-05
6.97454e-08
9.252e-05
6.15039e-08
9.2544e-05
5.27975e-08
9.25685e-05
4.3524e-08
9.25933e-05
3.35819e-08
2.29415e-08
9.26185e-05
9.45894e-05
1.6032e-08
9.4596e-05
4.6376e-08
9.46065e-05
7.37549e-08
9.46202e-05
9.70623e-08
9.46364e-05
1.15839e-07
9.46544e-05
1.30235e-07
9.46738e-05
1.40682e-07
9.4694e-05
1.47667e-07
9.47148e-05
1.51704e-07
9.47359e-05
1.53306e-07
9.47572e-05
1.52933e-07
9.47786e-05
1.50975e-07
9.47999e-05
1.47757e-07
9.48213e-05
1.43549e-07
9.48425e-05
1.38571e-07
9.48637e-05
1.32997e-07
9.48849e-05
1.26967e-07
9.4906e-05
1.20589e-07
9.49271e-05
1.13947e-07
9.49482e-05
1.07103e-07
9.49693e-05
1.00101e-07
9.49906e-05
9.29657e-08
9.5012e-05
8.57089e-08
9.50336e-05
7.83245e-08
9.50554e-05
7.07915e-08
9.50776e-05
6.30735e-08
9.51001e-05
5.51197e-08
9.5123e-05
4.68671e-08
9.51462e-05
3.82435e-08
9.51699e-05
2.9173e-08
9.51938e-05
1.95833e-08
9.5218e-05
9.4046e-09
-1.3678e-09
9.52423e-05
9.72917e-05
1.38603e-08
9.7298e-05
4.00598e-08
9.7308e-05
6.3724e-08
9.73212e-05
8.39069e-08
9.73368e-05
1.00219e-07
9.73543e-05
1.1274e-07
9.73732e-05
1.21799e-07
9.73931e-05
1.27798e-07
9.74136e-05
1.31166e-07
9.74346e-05
1.32332e-07
9.74558e-05
1.31691e-07
9.74772e-05
1.29584e-07
9.74987e-05
1.263e-07
9.75201e-05
1.22079e-07
9.75416e-05
1.17118e-07
9.7563e-05
1.11578e-07
9.75844e-05
1.05582e-07
9.76057e-05
9.92312e-08
9.76271e-05
9.25991e-08
9.76485e-05
8.57408e-08
9.76699e-05
7.86937e-08
9.76913e-05
7.14792e-08
9.7713e-05
6.41042e-08
9.77347e-05
5.6562e-08
9.77567e-05
4.88328e-08
9.77789e-05
4.08853e-08
9.78013e-05
3.26779e-08
9.7824e-05
2.41607e-08
9.7847e-05
1.52799e-08
9.78702e-05
5.98071e-09
9.78935e-05
-3.78528e-09
9.7917e-05
-1.40639e-08
-2.48408e-08
9.79405e-05
0.000100071
1.17714e-08
0.000100077
3.39935e-08
0.000100087
5.40982e-08
0.0001001
7.12511e-08
0.000100115
8.51138e-08
0.000100132
9.57227e-08
0.00010015
1.03327e-07
0.00010017
1.08253e-07
0.00010019
1.10857e-07
0.000100211
1.11496e-07
0.000100232
1.10505e-07
0.000100253
1.08178e-07
0.000100275
1.04767e-07
0.000100297
1.00484e-07
0.000100318
9.55043e-08
0.00010034
8.99685e-08
0.000100361
8.39894e-08
0.000100383
7.76545e-08
0.000100404
7.103e-08
0.000100426
6.41637e-08
0.000100448
5.70873e-08
0.000100469
4.98183e-08
0.000100491
4.23615e-08
0.000100513
3.47102e-08
0.000100535
2.68474e-08
0.000100557
1.87473e-08
0.000100579
1.03774e-08
0.000100602
1.70039e-09
0.000100624
-7.32268e-09
0.000100647
-1.67284e-08
0.00010067
-2.65474e-08
0.000100693
-3.68063e-08
-4.74776e-08
0.000100715
0.00010293
9.75929e-09
0.000102936
2.81528e-08
0.000102945
4.48273e-08
0.000102957
5.90303e-08
0.000102972
7.04613e-08
0.000102989
7.91283e-08
0.000103007
8.52193e-08
0.000103026
8.89973e-08
0.000103046
9.07535e-08
0.000103067
9.0784e-08
0.000103088
8.93686e-08
0.000103109
8.67573e-08
0.000103131
8.31663e-08
0.000103153
7.87786e-08
0.000103174
7.37463e-08
0.000103196
6.81926e-08
0.000103218
6.22158e-08
0.00010324
5.58921e-08
0.000103262
4.92788e-08
0.000103283
4.24168e-08
0.000103305
3.53326e-08
0.000103327
2.80406e-08
0.000103349
2.05441e-08
0.00010337
1.28372e-08
0.000103392
4.90628e-09
0.000103414
-3.26866e-09
0.000103437
-1.1712e-08
0.000103459
-2.045e-08
0.000103481
-2.95089e-08
0.000103503
-3.89112e-08
0.000103525
-4.8673e-08
0.000103547
-5.88074e-08
-6.92768e-08
0.000103569
0.000105871
7.81656e-09
0.000105876
2.25126e-08
0.000105885
3.58654e-08
0.000105897
4.71853e-08
0.000105911
5.62007e-08
0.000105928
6.29012e-08
0.000105945
6.74288e-08
0.000105964
6.99925e-08
0.000105984
7.08287e-08
0.000106005
7.01787e-08
0.000106026
6.8273e-08
0.000106047
6.532e-08
0.000106069
6.15012e-08
0.000106091
5.69714e-08
0.000106113
5.18594e-08
0.000106135
4.62702e-08
0.000106157
4.02873e-08
0.000106179
3.39754e-08
0.0001062
2.73826e-08
0.000106222
2.0543e-08
0.000106244
1.34784e-08
0.000106266
6.20014e-09
0.000106288
-1.28928e-09
0.00010631
-8.9946e-09
0.000106332
-1.69262e-08
0.000106353
-2.5099e-08
0.000106375
-3.35294e-08
0.000106397
-4.22352e-08
0.000106419
-5.12313e-08
0.00010644
-6.05302e-08
0.000106462
-7.01363e-08
0.000106483
-8.00531e-08
-9.02358e-08
0.000106504
0.000108895
5.93508e-09
0.000108901
1.70483e-08
0.000108909
2.71698e-08
0.000108921
3.5661e-08
0.000108935
4.22733e-08
0.000108951
4.69853e-08
0.000108968
4.99046e-08
0.000108987
5.11961e-08
0.000109007
5.10483e-08
0.000109027
4.96547e-08
0.000109049
4.72012e-08
0.00010907
4.38567e-08
0.000109092
3.97698e-08
0.000109114
3.5067e-08
0.000109136
2.98542e-08
0.000109158
2.42178e-08
0.00010918
1.82263e-08
0.000109202
1.19325e-08
0.000109224
5.37532e-09
0.000109246
-1.41805e-09
0.000109268
-8.43047e-09
0.000109289
-1.56534e-08
0.000109311
-2.30851e-08
0.000109333
-3.07292e-08
0.000109355
-3.85934e-08
0.000109376
-4.66874e-08
0.000109398
-5.5022e-08
0.000109419
-6.36069e-08
0.00010944
-7.24497e-08
0.000109461
-8.15534e-08
0.000109482
-9.09153e-08
0.000109503
-1.00531e-07
-1.10352e-07
0.000109523
0.000112006
4.10684e-09
0.000112012
1.17361e-08
0.00011202
1.87008e-08
0.000112031
2.44053e-08
0.000112045
2.86215e-08
0.000112061
3.13229e-08
0.000112078
3.2593e-08
0.000112097
3.25605e-08
0.000112116
3.13726e-08
0.000112137
2.91807e-08
0.000112158
2.61297e-08
0.000112179
2.2352e-08
0.000112201
1.79637e-08
0.000112223
1.30641e-08
0.000112245
7.73625e-09
0.000112267
2.04747e-09
0.00011229
-3.94895e-09
0.000112312
-1.02123e-08
0.000112334
-1.67131e-08
0.000112356
-2.3431e-08
0.000112378
-3.03538e-08
0.0001124
-3.74757e-08
0.000112421
-4.4796e-08
0.000112443
-5.23174e-08
0.000112464
-6.00453e-08
0.000112486
-6.79856e-08
0.000112507
-7.61442e-08
0.000112528
-8.45251e-08
0.000112548
-9.31294e-08
0.000112569
-1.01954e-07
0.000112589
-1.10991e-07
0.000112609
-1.20231e-07
-1.29623e-07
0.000112628
0.000115206
2.32431e-09
0.000115211
6.55386e-09
0.00011522
1.04218e-08
0.000115231
1.3369e-08
0.000115244
1.51881e-08
0.00011526
1.58545e-08
0.000115277
1.54357e-08
0.000115295
1.40318e-08
0.000115315
1.17543e-08
0.000115335
8.7168e-09
0.000115357
5.02693e-09
0.000115378
7.8208e-10
0.0001154
-3.93272e-09
0.000115422
-9.04519e-09
0.000115444
-1.44953e-08
0.000115467
-2.02348e-08
0.000115489
-2.62259e-08
0.000115511
-3.24403e-08
0.000115533
-3.8858e-08
0.000115555
-4.54661e-08
0.000115577
-5.22571e-08
0.000115599
-5.92287e-08
0.000115621
-6.63809e-08
0.000115642
-7.37168e-08
0.000115663
-8.12394e-08
0.000115684
-8.89526e-08
0.000115705
-9.68581e-08
0.000115725
-1.04956e-07
0.000115745
-1.13242e-07
0.000115765
-1.21711e-07
0.000115784
-1.30349e-07
0.000115803
-1.39144e-07
-1.48045e-07
0.000115822
0.000118498
5.8094e-10
0.000118503
1.48244e-09
0.000118511
2.29961e-09
0.000118522
2.50509e-09
0.000118535
1.91559e-09
0.00011855
5.16803e-10
0.000118567
-1.63121e-09
0.000118586
-4.45128e-09
0.000118605
-7.86259e-09
0.000118626
-1.17859e-08
0.000118647
-1.61482e-08
0.000118669
-2.08857e-08
0.000118691
-2.59438e-08
0.000118713
-3.12773e-08
0.000118735
-3.68491e-08
0.000118758
-4.26301e-08
0.00011878
-4.85986e-08
0.000118802
-5.4739e-08
0.000118825
-6.10413e-08
0.000118847
-6.74999e-08
0.000118869
-7.4113e-08
0.00011889
-8.08811e-08
0.000118912
-8.78068e-08
0.000118933
-9.48926e-08
0.000118954
-1.02142e-07
0.000118974
-1.09555e-07
0.000118995
-1.17133e-07
0.000119014
-1.24872e-07
0.000119034
-1.32767e-07
0.000119053
-1.40806e-07
0.000119072
-1.48977e-07
0.00011909
-1.57264e-07
-1.65617e-07
0.000119107
0.000121883
-1.12818e-09
0.000121888
-3.49301e-09
0.000121896
-5.69404e-09
0.000121907
-8.23095e-09
0.00012192
-1.1255e-08
0.000121935
-1.47582e-08
0.000121952
-1.86796e-08
0.000121971
-2.29598e-08
0.00012199
-2.75452e-08
0.000122011
-3.2388e-08
0.000122032
-3.74484e-08
0.000122054
-4.26952e-08
0.000122076
-4.81046e-08
0.000122099
-5.36583e-08
0.000122121
-5.93425e-08
0.000122144
-6.5148e-08
0.000122166
-7.10693e-08
0.000122188
-7.71039e-08
0.000122211
-8.32523e-08
0.000122233
-8.95167e-08
0.000122255
-9.59009e-08
0.000122276
-1.0241e-07
0.000122297
-1.09047e-07
0.000122318
-1.15818e-07
0.000122339
-1.22725e-07
0.000122359
-1.29768e-07
0.000122379
-1.36947e-07
0.000122398
-1.44255e-07
0.000122417
-1.51686e-07
0.000122436
-1.59229e-07
0.000122453
-1.66868e-07
0.000122471
-1.74588e-07
-1.82342e-07
0.000122487
0.000125365
-2.80506e-09
0.00012537
-8.37972e-09
0.000125378
-1.35797e-08
0.000125389
-1.88805e-08
0.000125402
-2.43854e-08
0.000125417
-3.00462e-08
0.000125434
-3.57919e-08
0.000125453
-4.15776e-08
0.000125473
-4.73745e-08
0.000125493
-5.31642e-08
0.000125515
-5.89398e-08
0.000125537
-6.47035e-08
0.000125559
-7.04625e-08
0.000125582
-7.6226e-08
0.000125604
-8.20044e-08
0.000125627
-8.78087e-08
0.00012565
-9.36503e-08
0.000125672
-9.95404e-08
0.000125694
-1.0549e-07
0.000125716
-1.1151e-07
0.000125738
-1.1761e-07
0.000125759
-1.238e-07
0.00012578
-1.30087e-07
0.000125801
-1.36476e-07
0.000125821
-1.42972e-07
0.000125841
-1.49575e-07
0.00012586
-1.56283e-07
0.000125879
-1.63092e-07
0.000125898
-1.69992e-07
0.000125915
-1.76973e-07
0.000125933
-1.84018e-07
0.000125949
-1.91114e-07
-1.98216e-07
0.000125965
0.000128947
-4.44656e-09
0.000128952
-1.31714e-08
0.000128959
-2.13651e-08
0.00012897
-2.94803e-08
0.000128983
-3.75418e-08
0.000128998
-4.54332e-08
0.000129016
-5.30647e-08
0.000129035
-6.04052e-08
0.000129055
-6.74491e-08
0.000129076
-7.4207e-08
0.000129097
-8.07058e-08
0.00012912
-8.69829e-08
0.000129142
-9.30783e-08
0.000129165
-9.90301e-08
0.000129188
-1.04874e-07
0.000129211
-1.10641e-07
0.000129234
-1.16362e-07
0.000129256
-1.22061e-07
0.000129278
-1.27761e-07
0.0001293
-1.33481e-07
0.000129322
-1.39239e-07
0.000129343
-1.45047e-07
0.000129364
-1.50917e-07
0.000129384
-1.56857e-07
0.000129404
-1.62873e-07
0.000129424
-1.68967e-07
0.000129443
-1.75136e-07
0.000129461
-1.81377e-07
0.000129479
-1.87681e-07
0.000129496
-1.94037e-07
0.000129512
-2.00433e-07
0.000129528
-2.06853e-07
-2.13259e-07
0.000129543
0.000132631
-6.03977e-09
0.000132635
-1.78367e-08
0.000132643
-2.90357e-08
0.000132654
-4.00607e-08
0.000132667
-5.07979e-08
0.000132682
-6.10202e-08
0.0001327
-7.06138e-08
0.000132719
-7.95643e-08
0.00013274
-8.78899e-08
0.000132761
-9.56307e-08
0.000132783
-1.02851e-07
0.000132806
-1.09628e-07
0.000132829
-1.16035e-07
0.000132852
-1.22142e-07
0.000132875
-1.2801e-07
0.000132898
-1.33695e-07
0.000132921
-1.39244e-07
0.000132944
-1.44696e-07
0.000132966
-1.50087e-07
0.000132988
-1.55445e-07
0.000133009
-1.60794e-07
0.000133031
-1.66154e-07
0.000133051
-1.71539e-07
0.000133071
-1.76962e-07
0.000133091
-1.82428e-07
0.00013311
-1.87942e-07
0.000133128
-1.93504e-07
0.000133146
-1.9911e-07
0.000133163
-2.04754e-07
0.000133179
-2.10426e-07
0.000133195
-2.16112e-07
0.00013321
-2.218e-07
-2.27452e-07
0.000133224
0.00013642
-7.55253e-09
0.000136424
-2.22967e-08
0.000136432
-3.65382e-08
0.000136442
-5.06421e-08
0.000136456
-6.42381e-08
0.000136472
-7.69305e-08
0.00013649
-8.85847e-08
0.000136509
-9.92092e-08
0.00013653
-1.08845e-07
0.000136552
-1.17569e-07
0.000136575
-1.25493e-07
0.000136598
-1.32737e-07
0.000136621
-1.39415e-07
0.000136645
-1.45629e-07
0.000136668
-1.5147e-07
0.000136692
-1.57016e-07
0.000136715
-1.62334e-07
0.000136737
-1.67478e-07
0.00013676
-1.72495e-07
0.000136782
-1.77424e-07
0.000136803
-1.82297e-07
0.000136824
-1.87139e-07
0.000136845
-1.91969e-07
0.000136865
-1.96802e-07
0.000136884
-2.01649e-07
0.000136902
-2.06515e-07
0.00013692
-2.11402e-07
0.000136938
-2.16309e-07
0.000136954
-2.2123e-07
0.00013697
-2.26159e-07
0.000136985
-2.31085e-07
0.000136999
-2.35999e-07
-2.40871e-07
0.000137012
0.000140317
-8.9123e-09
0.000140321
-2.63777e-08
0.000140328
-4.37556e-08
0.000140339
-6.12382e-08
0.000140353
-7.79633e-08
0.000140369
-9.33072e-08
0.000140388
-1.07153e-07
0.000140408
-1.19541e-07
0.00014043
-1.30529e-07
0.000140452
-1.40234e-07
0.000140476
-1.48828e-07
0.000140499
-1.56487e-07
0.000140523
-1.63371e-07
0.000140547
-1.6962e-07
0.000140571
-1.75357e-07
0.000140595
-1.80685e-07
0.000140618
-1.85691e-07
0.000140641
-1.90447e-07
0.000140664
-1.95013e-07
0.000140686
-1.99437e-07
0.000140707
-2.03757e-07
0.000140728
-2.08005e-07
0.000140748
-2.12205e-07
0.000140768
-2.16377e-07
0.000140787
-2.20532e-07
0.000140805
-2.2468e-07
0.000140822
-2.28826e-07
0.000140839
-2.32968e-07
0.000140855
-2.37104e-07
0.00014087
-2.41229e-07
0.000140884
-2.45331e-07
0.000140898
-2.49402e-07
-2.5341e-07
0.00014091
0.000144326
-9.96075e-09
0.000144329
-2.97111e-08
0.000144336
-5.04539e-08
0.000144346
-7.18696e-08
0.00014436
-9.21381e-08
0.000144378
-1.10355e-07
0.000144397
-1.2651e-07
0.000144418
-1.40711e-07
0.000144441
-1.53048e-07
0.000144464
-1.63706e-07
0.000144488
-1.72929e-07
0.000144513
-1.80952e-07
0.000144537
-1.87982e-07
0.000144562
-1.94199e-07
0.000144586
-1.99759e-07
0.00014461
-2.04794e-07
0.000144634
-2.09412e-07
0.000144657
-2.13702e-07
0.00014468
-2.17735e-07
0.000144702
-2.21571e-07
0.000144724
-2.25257e-07
0.000144744
-2.28831e-07
0.000144765
-2.32323e-07
0.000144784
-2.35755e-07
0.000144803
-2.39145e-07
0.00014482
-2.42503e-07
0.000144837
-2.45836e-07
0.000144854
-2.49148e-07
0.000144869
-2.5244e-07
0.000144883
-2.55708e-07
0.000144897
-2.58949e-07
0.00014491
-2.62163e-07
-2.65325e-07
0.000144922
0.000148448
-1.03378e-08
0.00014845
-3.15708e-08
0.000148456
-5.62032e-08
0.000148467
-8.24584e-08
0.000148481
-1.06923e-07
0.000148499
-1.28493e-07
0.00014852
-1.47291e-07
0.000148543
-1.63424e-07
0.000148567
-1.77049e-07
0.000148592
-1.88506e-07
0.000148617
-1.98174e-07
0.000148642
-2.06374e-07
0.000148668
-2.13374e-07
0.000148693
-2.19399e-07
0.000148718
-2.24643e-07
0.000148742
-2.29262e-07
0.000148766
-2.33383e-07
0.00014879
-2.37109e-07
0.000148813
-2.40522e-07
0.000148835
-2.43691e-07
0.000148856
-2.46669e-07
0.000148877
-2.49499e-07
0.000148897
-2.52216e-07
0.000148916
-2.54845e-07
0.000148934
-2.57406e-07
0.000148951
-2.59915e-07
0.000148968
-2.6238e-07
0.000148984
-2.64806e-07
0.000148998
-2.67196e-07
0.000149012
-2.69546e-07
0.000149025
-2.71851e-07
0.000149037
-2.74099e-07
-2.76268e-07
0.000149048
0.000152688
-9.03045e-09
0.000152687
-3.05156e-08
0.000152691
-6.07761e-08
0.000152702
-9.30747e-08
0.000152717
-1.21885e-07
0.000152735
-1.46937e-07
0.000152757
-1.68705e-07
0.00015278
-1.87097e-07
0.000152806
-2.02247e-07
0.000152832
-2.14648e-07
0.000152858
-2.24819e-07
0.000152885
-2.3318e-07
0.000152912
-2.40077e-07
0.000152938
-2.45805e-07
0.000152964
-2.50606e-07
0.00015299
-2.54674e-07
0.000153014
-2.5816e-07
0.000153039
-2.61188e-07
0.000153062
-2.63854e-07
0.000153084
-2.66235e-07
0.000153106
-2.68392e-07
0.000153127
-2.70375e-07
0.000153147
-2.7222e-07
0.000153166
-2.73959e-07
0.000153184
-2.75612e-07
0.000153202
-2.77198e-07
0.000153218
-2.78729e-07
0.000153233
-2.80213e-07
0.000153248
-2.81655e-07
0.000153261
-2.8306e-07
0.000153274
-2.84433e-07
0.000153286
-2.85782e-07
-2.87093e-07
0.000153296
0.000157046
-3.565e-09
0.000157038
-2.22513e-08
0.000157041
-6.37406e-08
0.000157054
-1.06329e-07
0.000157073
-1.41033e-07
0.000157096
-1.69632e-07
0.000157121
-1.93574e-07
0.000157147
-2.13115e-07
0.000157173
-2.28813e-07
0.0001572
-2.41453e-07
0.000157227
-2.51662e-07
0.000157254
-2.59898e-07
0.00015728
-2.66541e-07
0.000157306
-2.71917e-07
0.000157332
-2.76284e-07
0.000157357
-2.79844e-07
0.000157382
-2.82759e-07
0.000157406
-2.8516e-07
0.000157429
-2.87147e-07
0.000157451
-2.88805e-07
0.000157473
-2.90199e-07
0.000157494
-2.91382e-07
0.000157514
-2.92395e-07
0.000157534
-2.93272e-07
0.000157552
-2.94038e-07
0.00015757
-2.94715e-07
0.000157586
-2.95315e-07
0.000157602
-2.9585e-07
0.000157617
-2.96325e-07
0.00015763
-2.9674e-07
0.000157643
-2.97091e-07
0.000157655
-2.97364e-07
-2.97552e-07
0.000157665
0.000161526
9.14769e-09
0.000161505
-1.08621e-09
0.000161496
-5.51942e-08
0.000161499
-1.09337e-07
0.000161513
-1.54552e-07
0.000161535
-1.92143e-07
0.000161563
-2.21969e-07
0.000161595
-2.44531e-07
0.000161628
-2.61513e-07
0.000161661
-2.74491e-07
0.000161693
-2.84477e-07
0.000161726
-2.92154e-07
0.000161757
-2.98064e-07
0.000161788
-3.02623e-07
0.000161818
-3.06139e-07
0.000161847
-3.08836e-07
0.000161875
-3.10883e-07
0.000161902
-3.12411e-07
0.000161928
-3.13523e-07
0.000161954
-3.14296e-07
0.000161979
-3.14795e-07
0.000162002
-3.15068e-07
0.000162025
-3.15156e-07
0.000162047
-3.1509e-07
0.000162068
-3.14897e-07
0.000162088
-3.14598e-07
0.000162106
-3.14209e-07
0.000162124
-3.13743e-07
0.000162141
-3.13214e-07
0.000162157
-3.12631e-07
0.000162172
-3.12009e-07
0.000162186
-3.11368e-07
-3.10695e-07
0.000162199
0.0001661
6.32309e-08
0.000166095
3.08505e-09
0.000166111
-7.12222e-08
0.000166126
-1.2409e-07
0.00016614
-1.68845e-07
0.000166157
-2.08981e-07
0.000166177
-2.42012e-07
0.0001662
-2.67737e-07
0.000166227
-2.87747e-07
0.000166256
-3.03419e-07
0.000166287
-3.15618e-07
0.00016632
-3.25022e-07
0.000166354
-3.32216e-07
0.000166389
-3.37663e-07
0.000166424
-3.41711e-07
0.00016646
-3.44631e-07
0.000166496
-3.46635e-07
0.000166531
-3.47894e-07
0.000166566
-3.48544e-07
0.000166601
-3.48693e-07
0.000166635
-3.4843e-07
0.000166667
-3.47827e-07
0.000166699
-3.46941e-07
0.00016673
-3.45822e-07
0.000166759
-3.44508e-07
0.000166788