/*--------------------------------*- C++ -*----------------------------------*\
  =========                 |
  \\      /  F ield         | OpenFOAM: The Open Source CFD Toolbox
   \\    /   O peration     | Website:  https://openfoam.org
    \\  /    A nd           | Version:  10
     \\/     M anipulation  |
\*---------------------------------------------------------------------------*/
FoamFile
{
    format      ascii;
    class       volVectorField;
    location    "900";
    object      U;
}
// * * * * * * * * * * * * * * * * * * * * * * * * * * * * * * * * * * * * * //

dimensions      [0 1 -1 0 0 0 0];

internalField   nonuniform List<vector> 
6820
(
(7.31669 -0.387304 0)
(7.31543 -0.335173 0)
(7.2843 -0.203534 0)
(7.2265 -0.111136 0)
(7.16235 -0.056819 0)
(7.1015 -0.0270666 0)
(7.04596 -0.0113454 0)
(6.99592 -0.00316205 0)
(6.95113 0.00104675 0)
(6.91096 0.00316234 0)
(6.87469 0.00418463 0)
(6.84166 0.00464716 0)
(6.81139 0.00483101 0)
(6.78348 0.0048818 0)
(6.7576 0.00487395 0)
(6.73351 0.00484469 0)
(6.71099 0.00481185 0)
(6.68987 0.00478338 0)
(6.67 0.00476247 0)
(6.65126 0.00475043 0)
(6.63352 0.00474828 0)
(6.61669 0.00475778 0)
(6.60066 0.00478252 0)
(6.58533 0.00482924 0)
(6.57058 0.00490892 0)
(6.55626 0.00504469 0)
(6.54215 0.0052884 0)
(6.52808 0.00553983 0)
(6.51302 0.00715606 0)
(6.49676 0.00655637 0)
(6.48054 0.00778844 0)
(6.44429 0.0237 0)
(6.4166 0.0376238 0)
(7.33961 0.100771 0)
(7.3543 0.149901 0)
(7.35851 0.123207 0)
(7.3588 0.0897947 0)
(7.35951 0.0659641 0)
(7.35834 0.0500234 0)
(7.35317 0.0394227 0)
(7.34427 0.0324424 0)
(7.3328 0.0277781 0)
(7.31973 0.0245376 0)
(7.30569 0.0221859 0)
(7.29115 0.0204079 0)
(7.27645 0.0190089 0)
(7.2618 0.0178658 0)
(7.24735 0.0169012 0)
(7.23319 0.0160662 0)
(7.21936 0.0153296 0)
(7.20591 0.0146711 0)
(7.19284 0.0140776 0)
(7.18016 0.0135409 0)
(7.16786 0.0130568 0)
(7.15595 0.0126243 0)
(7.14439 0.0122463 0)
(7.13318 0.0119312 0)
(7.1223 0.0116947 0)
(7.11172 0.0115683 0)
(7.10146 0.011603 0)
(7.09134 0.0119269 0)
(7.08204 0.0126977 0)
(7.07156 0.0144575 0)
(7.06522 0.0186684 0)
(7.05893 0.0239255 0)
(7.05881 0.0448742 0)
(7.32714 0.00611172 0)
(7.32432 -0.00162978 0)
(7.33138 -0.00624325 0)
(7.33987 -0.000873401 0)
(7.34701 0.00692389 0)
(7.35246 0.0126183 0)
(7.35583 0.0160916 0)
(7.35714 0.0181466 0)
(7.35681 0.0192835 0)
(7.35519 0.019803 0)
(7.35253 0.0199312 0)
(7.34903 0.0198276 0)
(7.3449 0.0195915 0)
(7.34029 0.0192829 0)
(7.33531 0.0189386 0)
(7.33007 0.018582 0)
(7.32465 0.0182275 0)
(7.3191 0.0178837 0)
(7.31348 0.0175565 0)
(7.30781 0.0172505 0)
(7.30213 0.0169698 0)
(7.29645 0.0167199 0)
(7.29079 0.0165084 0)
(7.28514 0.0163469 0)
(7.27952 0.0162551 0)
(7.27389 0.0162609 0)
(7.26827 0.0164278 0)
(7.26256 0.0168003 0)
(7.25697 0.0177087 0)
(7.25105 0.0188332 0)
(7.24597 0.0220138 0)
(7.24182 0.0256276 0)
(7.23983 0.031833 0)
(7.32977 -0.0040259 0)
(7.32633 0.00240221 0)
(7.33119 0.0105905 0)
(7.33693 0.0166879 0)
(7.34167 0.0202001 0)
(7.34611 0.0216638 0)
(7.35006 0.0220976 0)
(7.35319 0.0221674 0)
(7.35554 0.0220899 0)
(7.35722 0.0219182 0)
(7.35827 0.0216871 0)
(7.35877 0.0214244 0)
(7.35878 0.021145 0)
(7.35838 0.0208561 0)
(7.35763 0.0205627 0)
(7.35659 0.0202691 0)
(7.35531 0.0199788 0)
(7.35382 0.0196954 0)
(7.35216 0.0194221 0)
(7.35037 0.0191633 0)
(7.34846 0.0189242 0)
(7.34644 0.0187121 0)
(7.34434 0.0185373 0)
(7.34216 0.0184148 0)
(7.3399 0.0183681 0)
(7.33757 0.0184303 0)
(7.33516 0.0186626 0)
(7.33267 0.0191293 0)
(7.3302 0.0200319 0)
(7.32771 0.0213348 0)
(7.32566 0.0238105 0)
(7.32454 0.0266212 0)
(7.32479 0.0307738 0)
(7.33182 -0.00101907 0)
(7.33004 0.00665159 0)
(7.33269 0.0122079 0)
(7.33627 0.0149424 0)
(7.33968 0.0169078 0)
(7.34331 0.0183418 0)
(7.34691 0.0192566 0)
(7.35011 0.0198462 0)
(7.3529 0.020228 0)
(7.35533 0.0204456 0)
(7.35741 0.0205377 0)
(7.35918 0.0205418 0)
(7.36064 0.0204843 0)
(7.36183 0.0203825 0)
(7.36278 0.0202488 0)
(7.36351 0.0200935 0)
(7.36405 0.0199246 0)
(7.36443 0.0197492 0)
(7.36465 0.0195734 0)
(7.36474 0.0194039 0)
(7.36471 0.0192481 0)
(7.36457 0.019115 0)
(7.36434 0.0190169 0)
(7.36401 0.0189701 0)
(7.3636 0.0189988 0)
(7.36312 0.0191357 0)
(7.36257 0.0194336 0)
(7.36197 0.0199505 0)
(7.36142 0.0208109 0)
(7.36098 0.0220324 0)
(7.36094 0.0239195 0)
(7.36168 0.0261091 0)
(7.36345 0.0286877 0)
(7.33248 0.000658078 0)
(7.33168 0.00624847 0)
(7.33356 0.0104321 0)
(7.33646 0.0129999 0)
(7.33935 0.0152134 0)
(7.3424 0.0169295 0)
(7.34549 0.0180262 0)
(7.34838 0.0187161 0)
(7.35103 0.0191702 0)
(7.35349 0.0194572 0)
(7.35577 0.0196195 0)
(7.35786 0.0196943 0)
(7.35978 0.0197077 0)
(7.36153 0.0196758 0)
(7.36313 0.0196105 0)
(7.36459 0.0195209 0)
(7.36592 0.0194147 0)
(7.36712 0.0192986 0)
(7.36822 0.019179 0)
(7.36922 0.0190625 0)
(7.37012 0.0189569 0)
(7.37093 0.0188718 0)
(7.37166 0.0188194 0)
(7.37232 0.0188162 0)
(7.37291 0.0188846 0)
(7.37345 0.0190542 0)
(7.37396 0.0193672 0)
(7.37446 0.0198691 0)
(7.37505 0.020633 0)
(7.37581 0.0216779 0)
(7.37693 0.0231015 0)
(7.37867 0.0246948 0)
(7.38119 0.0263115 0)
(7.33271 0.00107819 0)
(7.33244 0.00540029 0)
(7.33406 0.00928978 0)
(7.33665 0.0120047 0)
(7.33927 0.0141654 0)
(7.34196 0.0157908 0)
(7.34469 0.0168603 0)
(7.34731 0.0175606 0)
(7.34978 0.0180416 0)
(7.35213 0.0183654 0)
(7.35436 0.018569 0)
(7.35648 0.0186859 0)
(7.35849 0.0187407 0)
(7.3604 0.0187491 0)
(7.36222 0.0187226 0)
(7.36395 0.0186703 0)
(7.36559 0.0185998 0)
(7.36715 0.0185176 0)
(7.36864 0.0184303 0)
(7.37006 0.0183447 0)
(7.37141 0.0182685 0)
(7.3727 0.0182112 0)
(7.37394 0.0181846 0)
(7.37512 0.0182037 0)
(7.37626 0.0182883 0)
(7.37738 0.0184627 0)
(7.3785 0.0187582 0)
(7.37965 0.0192065 0)
(7.38091 0.019846 0)
(7.38236 0.0206812 0)
(7.38414 0.021718 0)
(7.38639 0.0228137 0)
(7.38923 0.0238105 0)
(7.33286 0.00123727 0)
(7.33291 0.00493604 0)
(7.33433 0.00850563 0)
(7.33664 0.0111091 0)
(7.33906 0.0131069 0)
(7.34153 0.0146402 0)
(7.34404 0.0157113 0)
(7.34649 0.0164402 0)
(7.34882 0.0169483 0)
(7.35105 0.0172973 0)
(7.3532 0.0175247 0)
(7.35527 0.0176632 0)
(7.35727 0.0177372 0)
(7.3592 0.0177633 0)
(7.36106 0.0177533 0)
(7.36287 0.0177165 0)
(7.36462 0.0176606 0)
(7.36632 0.0175923 0)
(7.36797 0.0175182 0)
(7.36957 0.0174449 0)
(7.37113 0.0173799 0)
(7.37265 0.0173319 0)
(7.37414 0.0173119 0)
(7.3756 0.0173327 0)
(7.37705 0.0174105 0)
(7.3785 0.0175641 0)
(7.37997 0.0178146 0)
(7.3815 0.018181 0)
(7.38315 0.018679 0)
(7.385 0.0192997 0)
(7.38712 0.0200142 0)
(7.38961 0.0207188 0)
(7.39255 0.0212912 0)
(7.33295 0.00130116 0)
(7.33318 0.00456228 0)
(7.33445 0.00774598 0)
(7.33649 0.0101841 0)
(7.33873 0.0120661 0)
(7.34104 0.0135387 0)
(7.34339 0.0146086 0)
(7.34571 0.0153549 0)
(7.34794 0.0158794 0)
(7.35009 0.0162438 0)
(7.35217 0.0164858 0)
(7.35419 0.0166362 0)
(7.35615 0.0167195 0)
(7.35805 0.0167525 0)
(7.3599 0.0167476 0)
(7.36172 0.0167145 0)
(7.36349 0.016661 0)
(7.36523 0.0165941 0)
(7.36694 0.0165203 0)
(7.36862 0.0164461 0)
(7.37027 0.0163785 0)
(7.3719 0.0163255 0)
(7.37352 0.0162964 0)
(7.37512 0.0163019 0)
(7.37673 0.0163545 0)
(7.37836 0.0164672 0)
(7.38003 0.016653 0)
(7.38179 0.0169206 0)
(7.38366 0.0172715 0)
(7.38571 0.0176887 0)
(7.388 0.0181332 0)
(7.39057 0.0185266 0)
(7.3935 0.0187792 0)
(7.333 0.00129099 0)
(7.33333 0.00419838 0)
(7.33448 0.0070315 0)
(7.3363 0.00930583 0)
(7.33836 0.0110858 0)
(7.34051 0.01249 0)
(7.34273 0.0135378 0)
(7.34494 0.0142866 0)
(7.34708 0.0148195 0)
(7.34916 0.0151937 0)
(7.35119 0.0154453 0)
(7.35316 0.0156034 0)
(7.35508 0.0156914 0)
(7.35695 0.0157264 0)
(7.35879 0.0157212 0)
(7.36059 0.0156857 0)
(7.36236 0.015628 0)
(7.36411 0.0155553 0)
(7.36583 0.0154738 0)
(7.36753 0.01539 0)
(7.36922 0.0153103 0)
(7.3709 0.0152417 0)
(7.37257 0.015192 0)
(7.37425 0.0151695 0)
(7.37595 0.0151831 0)
(7.37768 0.015241 0)
(7.37946 0.0153495 0)
(7.38133 0.01551 0)
(7.38332 0.0157158 0)
(7.38546 0.0159458 0)
(7.38781 0.0161615 0)
(7.39037 0.0163015 0)
(7.3932 0.0163013 0)
(7.33302 0.0012346 0)
(7.3334 0.00384787 0)
(7.33445 0.00637757 0)
(7.33608 0.00848172 0)
(7.33798 0.0101537 0)
(7.33999 0.0114811 0)
(7.34207 0.0124932 0)
(7.34417 0.0132332 0)
(7.34623 0.0137665 0)
(7.34825 0.0141441 0)
(7.35022 0.0144001 0)
(7.35215 0.0145617 0)
(7.35404 0.014651 0)
(7.35589 0.014685 0)
(7.3577 0.0146764 0)
(7.35949 0.0146352 0)
(7.36125 0.0145696 0)
(7.36298 0.0144868 0)
(7.36471 0.0143929 0)
(7.36642 0.014294 0)
(7.36812 0.0141958 0)
(7.36982 0.0141045 0)
(7.37152 0.014026 0)
(7.37323 0.0139666 0)
(7.37497 0.0139319 0)
(7.37675 0.0139262 0)
(7.37859 0.0139509 0)
(7.38052 0.0140026 0)
(7.38255 0.01407 0)
(7.38472 0.0141314 0)
(7.38705 0.014152 0)
(7.38955 0.0140837 0)
(7.39226 0.0138801 0)
(7.33303 0.00115411 0)
(7.33343 0.0035118 0)
(7.33439 0.00577473 0)
(7.33586 0.00770486 0)
(7.3376 0.00926376 0)
(7.33948 0.0105107 0)
(7.34144 0.011477 0)
(7.34343 0.0121971 0)
(7.34541 0.0127217 0)
(7.34737 0.0130955 0)
(7.34929 0.0133501 0)
(7.35117 0.0135106 0)
(7.35303 0.0135978 0)
(7.35485 0.0136278 0)
(7.35664 0.0136131 0)
(7.35841 0.0135636 0)
(7.36015 0.0134876 0)
(7.36188 0.0133918 0)
(7.3636 0.0132823 0)
(7.36531 0.0131646 0)
(7.36701 0.0130437 0)
(7.36872 0.0129246 0)
(7.37043 0.012812 0)
(7.37216 0.0127099 0)
(7.37392 0.0126214 0)
(7.37573 0.0125477 0)
(7.37759 0.0124869 0)
(7.37953 0.0124324 0)
(7.38157 0.0123714 0)
(7.38372 0.0122829 0)
(7.386 0.0121374 0)
(7.38841 0.0118969 0)
(7.39099 0.0115282 0)
(7.33304 0.00106236 0)
(7.33343 0.00318884 0)
(7.33432 0.00521391 0)
(7.33565 0.00697197 0)
(7.33725 0.00841454 0)
(7.339 0.00957745 0)
(7.34085 0.0104897 0)
(7.34274 0.0111795 0)
(7.34464 0.0116868 0)
(7.34652 0.0120497 0)
(7.34839 0.0122969 0)
(7.35023 0.0124515 0)
(7.35205 0.0125325 0)
(7.35384 0.0125553 0)
(7.35561 0.0125318 0)
(7.35736 0.0124717 0)
(7.35909 0.0123828 0)
(7.36081 0.0122717 0)
(7.36251 0.012144 0)
(7.36422 0.0120046 0)
(7.36592 0.0118579 0)
(7.36762 0.0117078 0)
(7.36934 0.0115574 0)
(7.37107 0.0114092 0)
(7.37284 0.0112642 0)
(7.37465 0.0111213 0)
(7.37651 0.0109766 0)
(7.37844 0.0108218 0)
(7.38046 0.0106438 0)
(7.38257 0.0104238 0)
(7.38478 0.010137 0)
(7.38709 0.00975401 0)
(7.38952 0.00925068 0)
(7.33304 0.000966498 0)
(7.33342 0.00287869 0)
(7.33424 0.00468881 0)
(7.33546 0.00627975 0)
(7.33693 0.00760354 0)
(7.33856 0.00867891 0)
(7.3403 0.00953018 0)
(7.34209 0.0101811 0)
(7.34391 0.0106632 0)
(7.34573 0.0110084 0)
(7.34754 0.0112425 0)
(7.34934 0.0113862 0)
(7.35112 0.011457 0)
(7.35288 0.0114691 0)
(7.35462 0.0114339 0)
(7.35635 0.0113606 0)
(7.35806 0.0112565 0)
(7.35976 0.0111278 0)
(7.36146 0.0109796 0)
(7.36315 0.0108163 0)
(7.36484 0.0106414 0)
(7.36654 0.0104578 0)
(7.36825 0.0102676 0)
(7.36998 0.0100717 0)
(7.37174 0.00986958 0)
(7.37354 0.00965867 0)
(7.37539 0.00943371 0)
(7.3773 0.00918609 0)
(7.37927 0.00890332 0)
(7.38132 0.00856887 0)
(7.38345 0.00816267 0)
(7.38566 0.0076617 0)
(7.38795 0.0070487 0)
(7.33304 0.000870512 0)
(7.3334 0.00258138 0)
(7.33416 0.0041944 0)
(7.33527 0.00562426 0)
(7.33664 0.00682785 0)
(7.33816 0.00781255 0)
(7.3398 0.0085973 0)
(7.3415 0.00920196 0)
(7.34324 0.00965167 0)
(7.345 0.00997286 0)
(7.34675 0.0101882 0)
(7.3485 0.0103162 0)
(7.35024 0.0103727 0)
(7.35197 0.0103708 0)
(7.35368 0.010321 0)
(7.35538 0.0102318 0)
(7.35708 0.0101101 0)
(7.35876 0.00996173 0)
(7.36044 0.0097911 0)
(7.36211 0.00960195 0)
(7.36379 0.00939711 0)
(7.36548 0.00917861 0)
(7.36718 0.00894746 0)
(7.3689 0.00870355 0)
(7.37064 0.00844525 0)
(7.37242 0.00816904 0)
(7.37424 0.00786914 0)
(7.37611 0.00753707 0)
(7.37804 0.00716152 0)
(7.38002 0.00672845 0)
(7.38207 0.00622168 0)
(7.38416 0.00562341 0)
(7.38632 0.00492142 0)
(7.33304 0.000776501 0)
(7.33337 0.00229672 0)
(7.33408 0.00372656 0)
(7.33511 0.00500153 0)
(7.33637 0.0060845 0)
(7.3378 0.00697589 0)
(7.33934 0.0076895 0)
(7.34096 0.00824167 0)
(7.34263 0.00865255 0)
(7.34432 0.00894387 0)
(7.34602 0.00913516 0)
(7.34772 0.00924293 0)
(7.34942 0.00928122 0)
(7.35111 0.00926185 0)
(7.35279 0.0091945 0)
(7.35447 0.00908699 0)
(7.35614 0.00894565 0)
(7.3578 0.00877558 0)
(7.35946 0.00858079 0)
(7.36112 0.00836433 0)
(7.36278 0.00812837 0)
(7.36445 0.00787417 0)
(7.36613 0.00760196 0)
(7.36783 0.00731081 0)
(7.36955 0.00699838 0)
(7.3713 0.00666069 0)
(7.37308 0.0062919 0)
(7.37491 0.0058841 0)
(7.37677 0.00542737 0)
(7.37868 0.00490999 0)
(7.38064 0.00431913 0)
(7.38262 0.00364108 0)
(7.38466 0.00286742 0)
(7.33303 0.000685457 0)
(7.33335 0.00202423 0)
(7.334 0.00328189 0)
(7.33496 0.00440784 0)
(7.33613 0.00537054 0)
(7.33747 0.00616645 0)
(7.33893 0.00680502 0)
(7.34047 0.00729939 0)
(7.34206 0.00766573 0)
(7.34369 0.00792179 0)
(7.34534 0.00808419 0)
(7.34699 0.00816734 0)
(7.34865 0.00818364 0)
(7.35031 0.00814362 0)
(7.35196 0.00805598 0)
(7.3536 0.00792781 0)
(7.35525 0.00776478 0)
(7.35688 0.00757138 0)
(7.35852 0.00735105 0)
(7.36016 0.00710626 0)
(7.3618 0.00683858 0)
(7.36345 0.00654861 0)
(7.3651 0.00623599 0)
(7.36677 0.00589923 0)
(7.36847 0.00553562 0)
(7.37018 0.00514104 0)
(7.37192 0.00470989 0)
(7.37369 0.00423508 0)
(7.37549 0.0037081 0)
(7.37732 0.00311937 0)
(7.37918 0.00245881 0)
(7.38106 0.00171595 0)
(7.38298 0.000885277 0)
(7.33303 0.000597737 0)
(7.33333 0.00176321 0)
(7.33394 0.00285755 0)
(7.33482 0.00383976 0)
(7.33592 0.00468303 0)
(7.33718 0.00538176 0)
(7.33856 0.00594199 0)
(7.34002 0.00637402 0)
(7.34155 0.00669078 0)
(7.34312 0.00690669 0)
(7.34471 0.00703567 0)
(7.34632 0.00709015 0)
(7.34794 0.00708092 0)
(7.34956 0.00701722 0)
(7.35118 0.00690675 0)
(7.35279 0.00675577 0)
(7.35441 0.0065693 0)
(7.35602 0.0063512 0)
(7.35763 0.00610435 0)
(7.35924 0.00583067 0)
(7.36086 0.00553118 0)
(7.36248 0.00520601 0)
(7.3641 0.00485434 0)
(7.36574 0.00447435 0)
(7.3674 0.00406316 0)
(7.36907 0.00361676 0)
(7.37076 0.00313002 0)
(7.37247 0.00259671 0)
(7.3742 0.00200972 0)
(7.37596 0.00136133 0)
(7.37772 0.000643727 0)
(7.3795 -0.000151013 0)
(7.3813 -0.00102617 0)
(7.33303 0.000513348 0)
(7.3333 0.00151278 0)
(7.33387 0.00245106 0)
(7.3347 0.00329418 0)
(7.33573 0.0040191 0)
(7.33692 0.00461935 0)
(7.33822 0.00509844 0)
(7.33962 0.00546422 0)
(7.34109 0.00572698 0)
(7.3426 0.00589832 0)
(7.34414 0.00598977 0)
(7.3457 0.00601184 0)
(7.34728 0.0059738 0)
(7.34886 0.00588362 0)
(7.35045 0.00574798 0)
(7.35203 0.00557232 0)
(7.35362 0.00536094 0)
(7.3552 0.0051171 0)
(7.35678 0.00484312 0)
(7.35837 0.00454043 0)
(7.35995 0.0042096 0)
(7.36154 0.00385037 0)
(7.36313 0.0034616 0)
(7.36474 0.00304131 0)
(7.36635 0.00258664 0)
(7.36797 0.00209383 0)
(7.36961 0.00155829 0)
(7.37126 0.000974716 0)
(7.37292 0.000337254 0)
(7.37459 -0.000360216 0)
(7.37627 -0.00112366 0)
(7.37794 -0.00195902 0)
(7.37963 -0.00286786 0)
(7.33303 0.000432109 0)
(7.33329 0.00127195 0)
(7.33382 0.00206022 0)
(7.3346 0.00276825 0)
(7.33556 0.00337599 0)
(7.33668 0.00387676 0)
(7.33793 0.00427232 0)
(7.33926 0.0045685 0)
(7.34067 0.00477337 0)
(7.34213 0.00489619 0)
(7.34362 0.00494636 0)
(7.34514 0.00493264 0)
(7.34667 0.00486281 0)
(7.34822 0.00474363 0)
(7.34977 0.00458076 0)
(7.35132 0.00437881 0)
(7.35287 0.00414136 0)
(7.35443 0.00387109 0)
(7.35598 0.00356978 0)
(7.35753 0.00323842 0)
(7.35908 0.00287718 0)
(7.36064 0.00248552 0)
(7.3622 0.00206211 0)
(7.36376 0.00160492 0)
(7.36533 0.0011112 0)
(7.3669 0.000577546 0)
(7.36848 -3.38047e-08 0)
(7.37006 -0.000625989 0)
(7.37165 -0.00130506 0)
(7.37324 -0.00204201 0)
(7.37482 -0.00284132 0)
(7.3764 -0.00370737 0)
(7.37798 -0.00464043 0)
(7.33303 0.000353745 0)
(7.33327 0.00103969 0)
(7.33377 0.00168304 0)
(7.3345 0.00225936 0)
(7.33541 0.00275101 0)
(7.33648 0.00315153 0)
(7.33766 0.0034615 0)
(7.33894 0.00368516 0)
(7.34029 0.00382874 0)
(7.3417 0.00389953 0)
(7.34315 0.00390509 0)
(7.34462 0.00385252 0)
(7.34612 0.00374826 0)
(7.34763 0.00359786 0)
(7.34914 0.003406 0)
(7.35066 0.00317645 0)
(7.35218 0.00291213 0)
(7.3537 0.00261509 0)
(7.35522 0.00228664 0)
(7.35674 0.00192735 0)
(7.35826 0.00153709 0)
(7.35978 0.00111508 0)
(7.36129 0.000659895 0)
(7.36281 0.000169537 0)
(7.36433 -0.000358547 0)
(7.36585 -0.000927386 0)
(7.36737 -0.00154039 0)
(7.36888 -0.00220122 0)
(7.3704 -0.00291364 0)
(7.3719 -0.00368132 0)
(7.3734 -0.00450753 0)
(7.37489 -0.00539544 0)
(7.37637 -0.00634433 0)
(7.33303 0.000277941 0)
(7.33325 0.000814983 0)
(7.33372 0.00131767 0)
(7.33441 0.00176507 0)
(7.33528 0.00214159 0)
(7.33629 0.00244118 0)
(7.33742 0.00266376 0)
(7.33865 0.00281233 0)
(7.33995 0.00289162 0)
(7.34132 0.0029073 0)
(7.34272 0.00286528 0)
(7.34415 0.0027712 0)
(7.34561 0.00263019 0)
(7.34708 0.00244669 0)
(7.34856 0.00222441 0)
(7.35005 0.00196633 0)
(7.35154 0.00167465 0)
(7.35303 0.00135088 0)
(7.35451 0.000995867 0)
(7.35599 0.000609804 0)
(7.35748 0.0001923 0)
(7.35895 -0.000257595 0)
(7.36043 -0.000741345 0)
(7.3619 -0.00126087 0)
(7.36336 -0.00181849 0)
(7.36483 -0.00241685 0)
(7.36628 -0.00305883 0)
(7.36773 -0.00374739 0)
(7.36917 -0.00448546 0)
(7.3706 -0.00527582 0)
(7.37201 -0.00612079 0)
(7.3734 -0.00702259 0)
(7.37479 -0.0079798 0)
(7.33302 0.000204373 0)
(7.33324 0.000596814 0)
(7.33368 0.000962386 0)
(7.33434 0.00128311 0)
(7.33516 0.0015452 0)
(7.33613 0.0017432 0)
(7.33721 0.00187673 0)
(7.33839 0.00194792 0)
(7.33965 0.0019603 0)
(7.34097 0.00191815 0)
(7.34233 0.00182597 0)
(7.34373 0.00168807 0)
(7.34515 0.00150837 0)
(7.34659 0.00129025 0)
(7.34804 0.00103648 0)
(7.34949 0.000749251 0)
(7.35094 0.000430114 0)
(7.3524 8.00361e-05 0)
(7.35385 -0.000300588 0)
(7.35529 -0.000711893 0)
(7.35674 -0.0011545 0)
(7.35817 -0.00162948 0)
(7.3596 -0.00213832 0)
(7.36102 -0.00268281 0)
(7.36244 -0.00326506 0)
(7.36384 -0.00388733 0)
(7.36524 -0.00455202 0)
(7.36662 -0.0052615 0)
(7.36798 -0.00601803 0)
(7.36933 -0.00682364 0)
(7.37066 -0.00767992 0)
(7.37197 -0.00858839 0)
(7.37325 -0.0095471 0)
(7.33302 0.000132729 0)
(7.33323 0.000384242 0)
(7.33365 0.000615592 0)
(7.33427 0.000811339 0)
(7.33506 0.000959354 0)
(7.33598 0.001055 0)
(7.33703 0.00109789 0)
(7.33817 0.0010896 0)
(7.33939 0.00103272 0)
(7.34067 0.000930365 0)
(7.34199 0.000785811 0)
(7.34335 0.000602169 0)
(7.34474 0.000382217 0)
(7.34614 0.000128318 0)
(7.34756 -0.000157631 0)
(7.34898 -0.000474222 0)
(7.3504 -0.000820538 0)
(7.35182 -0.00119614 0)
(7.35323 -0.00160105 0)
(7.35464 -0.0020357 0)
(7.35605 -0.00250093 0)
(7.35744 -0.00299792 0)
(7.35882 -0.00352811 0)
(7.36019 -0.00409321 0)
(7.36155 -0.00469509 0)
(7.3629 -0.0053357 0)
(7.36423 -0.006017 0)
(7.36554 -0.00674088 0)
(7.36684 -0.00750905 0)
(7.36811 -0.00832297 0)
(7.36936 -0.00918365 0)
(7.37058 -0.0100921 0)
(7.37178 -0.011046 0)
(7.33302 6.27284e-05 0)
(7.33322 0.000176409 0)
(7.33362 0.00027582 0)
(7.33421 0.000347697 0)
(7.33497 0.000381573 0)
(7.33586 0.000373852 0)
(7.33687 0.000324492 0)
(7.33797 0.000234737 0)
(7.33915 0.000106459 0)
(7.3404 -5.81693e-05 0)
(7.34169 -0.000256957 0)
(7.34302 -0.000487898 0)
(7.34438 -0.000749274 0)
(7.34575 -0.00103969 0)
(7.34713 -0.00135812 0)
(7.34852 -0.0017039 0)
(7.34991 -0.00207674 0)
(7.35129 -0.00247671 0)
(7.35267 -0.00290423 0)
(7.35404 -0.00336003 0)
(7.3554 -0.00384514 0)
(7.35675 -0.00436081 0)
(7.35809 -0.00490849 0)
(7.35941 -0.00548977 0)
(7.36072 -0.00610633 0)
(7.36201 -0.00675984 0)
(7.36328 -0.00745191 0)
(7.36452 -0.00818404 0)
(7.36575 -0.00895749 0)
(7.36694 -0.00977327 0)
(7.36811 -0.010632 0)
(7.36925 -0.0115342 0)
(7.37037 -0.0124775 0)
(7.33302 -5.85915e-06 0)
(7.33321 -2.74004e-05 0)
(7.33359 -5.82329e-05 0)
(7.33416 -0.000109771 0)
(7.33489 -0.000190668 0)
(7.33575 -0.000303121 0)
(7.33672 -0.000446527 0)
(7.3378 -0.000619718 0)
(7.33895 -0.000821356 0)
(7.34017 -0.00105006 0)
(7.34143 -0.00130461 0)
(7.34273 -0.00158403 0)
(7.34406 -0.0018876 0)
(7.3454 -0.00221488 0)
(7.34676 -0.00256566 0)
(7.34811 -0.00294002 0)
(7.34947 -0.00333829 0)
(7.35082 -0.00376102 0)
(7.35217 -0.00420904 0)
(7.3535 -0.00468335 0)
(7.35482 -0.00518517 0)
(7.35613 -0.00571584 0)
(7.35742 -0.00627681 0)
(7.35869 -0.00686958 0)
(7.35994 -0.00749567 0)
(7.36117 -0.00815653 0)
(7.36238 -0.0088535 0)
(7.36356 -0.00958774 0)
(7.36472 -0.0103602 0)
(7.36584 -0.0111716 0)
(7.36694 -0.0120221 0)
(7.368 -0.0129121 0)
(7.36903 -0.0138391 0)
(7.33302 -7.31732e-05 0)
(7.3332 -0.000227673 0)
(7.33357 -0.00038763 0)
(7.33411 -0.000562915 0)
(7.33482 -0.000759985 0)
(7.33565 -0.000979086 0)
(7.3366 -0.00121862 0)
(7.33765 -0.00147731 0)
(7.33878 -0.00175419 0)
(7.33997 -0.00204856 0)
(7.34122 -0.00236005 0)
(7.34249 -0.0026887 0)
(7.34379 -0.0030348 0)
(7.34511 -0.00339886 0)
(7.34644 -0.0037815 0)
(7.34776 -0.00418355 0)
(7.34909 -0.00460592 0)
(7.35041 -0.00504969 0)
(7.35172 -0.00551604 0)
(7.35302 -0.00600629 0)
(7.3543 -0.00652179 0)
(7.35556 -0.007064 0)
(7.35681 -0.00763436 0)
(7.35803 -0.00823432 0)
(7.35923 -0.00886526 0)
(7.3604 -0.00952845 0)
(7.36155 -0.010225 0)
(7.36267 -0.0109559 0)
(7.36376 -0.0117218 0)
(7.36481 -0.0125231 0)
(7.36583 -0.01336 0)
(7.36682 -0.0142324 0)
(7.36778 -0.0151379 0)
(7.33302 -0.000139194 0)
(7.33319 -0.000424495 0)
(7.33354 -0.000713046 0)
(7.33407 -0.00101344 0)
(7.33475 -0.00132915 0)
(7.33557 -0.00165759 0)
(7.3365 -0.00199579 0)
(7.33753 -0.00234223 0)
(7.33864 -0.00269623 0)
(7.33982 -0.00305766 0)
(7.34104 -0.00342699 0)
(7.34229 -0.00380522 0)
(7.34357 -0.00419364 0)
(7.34487 -0.00459364 0)
(7.34617 -0.00500674 0)
(7.34747 -0.00543447 0)
(7.34877 -0.00587842 0)
(7.35006 -0.00634017 0)
(7.35134 -0.00682133 0)
(7.3526 -0.0073235 0)
(7.35384 -0.00784826 0)
(7.35506 -0.00839717 0)
(7.35626 -0.00897174 0)
(7.35744 -0.00957339 0)
(7.35858 -0.0102034 0)
(7.3597 -0.010863 0)
(7.36079 -0.011553 0)
(7.36185 -0.0122743 0)
(7.36288 -0.0130274 0)
(7.36387 -0.0138125 0)
(7.36482 -0.0146297 0)
(7.36573 -0.0154789 0)
(7.36662 -0.0163575 0)
(7.33302 -0.000203606 0)
(7.33318 -0.000617236 0)
(7.33351 -0.00103449 0)
(7.33402 -0.00146284 0)
(7.33469 -0.00190117 0)
(7.33549 -0.00234277 0)
(7.33641 -0.00278285 0)
(7.33743 -0.00321956 0)
(7.33853 -0.00365244 0)
(7.33969 -0.00408199 0)
(7.3409 -0.00450975 0)
(7.34214 -0.00493789 0)
(7.34341 -0.00536882 0)
(7.34468 -0.00580488 0)
(7.34597 -0.00624843 0)
(7.34725 -0.00670169 0)
(7.34852 -0.00716682 0)
(7.34978 -0.00764586 0)
(7.35103 -0.00814076 0)
(7.35225 -0.00865339 0)
(7.35346 -0.0091855 0)
(7.35464 -0.00973877 0)
(7.3558 -0.0103147 0)
(7.35693 -0.0109148 0)
(7.35802 -0.0115402 0)
(7.35909 -0.0121921 0)
(7.36013 -0.0128713 0)
(7.36113 -0.0135784 0)
(7.36209 -0.014314 0)
(7.36302 -0.0150781 0)
(7.3639 -0.0158706 0)
(7.36475 -0.0166914 0)
(7.36556 -0.017538 0)
(7.33302 -0.000265521 0)
(7.33316 -0.000803918 0)
(7.33348 -0.00135089 0)
(7.33397 -0.00191232 0)
(7.33462 -0.00247934 0)
(7.33541 -0.00303927 0)
(7.33633 -0.00358558 0)
(7.33735 -0.00411611 0)
(7.33844 -0.00463007 0)
(7.3396 -0.00512813 0)
(7.3408 -0.00561274 0)
(7.34204 -0.00608736 0)
(7.34329 -0.00655573 0)
(7.34455 -0.00702155 0)
(7.34582 -0.0074883 0)
(7.34708 -0.00795925 0)
(7.34833 -0.00843738 0)
(7.34956 -0.0089254 0)
(7.35078 -0.00942573 0)
(7.35198 -0.0099406 0)
(7.35315 -0.010472 0)
(7.35429 -0.0110218 0)
(7.35541 -0.0115915 0)
(7.35649 -0.0121826 0)
(7.35754 -0.0127963 0)
(7.35856 -0.0134336 0)
(7.35954 -0.0140952 0)
(7.36049 -0.0147819 0)
(7.3614 -0.0154938 0)
(7.36226 -0.0162312 0)
(7.36309 -0.0169938 0)
(7.36387 -0.0177817 0)
(7.36462 -0.0185927 0)
(7.33301 -0.000322901 0)
(7.33315 -0.000979916 0)
(7.33343 -0.00165917 0)
(7.3339 -0.00236304 0)
(7.33453 -0.00306822 0)
(7.33533 -0.00375284 0)
(7.33625 -0.00440932 0)
(7.33727 -0.00503699 0)
(7.33837 -0.00563634 0)
(7.33954 -0.00620927 0)
(7.34075 -0.0067593 0)
(7.34198 -0.00729071 0)
(7.34323 -0.0078078 0)
(7.34449 -0.00831477 0)
(7.34574 -0.00881562 0)
(7.34699 -0.00931414 0)
(7.34822 -0.00981378 0)
(7.34943 -0.0103177 0)
(7.35062 -0.0108287 0)
(7.35179 -0.0113493 0)
(7.35293 -0.0118819 0)
(7.35404 -0.0124286 0)
(7.35511 -0.012991 0)
(7.35615 -0.0135708 0)
(7.35716 -0.0141693 0)
(7.35813 -0.0147877 0)
(7.35906 -0.0154266 0)
(7.35995 -0.0160868 0)
(7.36081 -0.0167687 0)
(7.36161 -0.0174723 0)
(7.36238 -0.0181975 0)
(7.3631 -0.0189442 0)
(7.36379 -0.01971 0)
(7.33301 -0.000371318 0)
(7.33311 -0.0011357 0)
(7.33335 -0.00195227 0)
(7.33378 -0.00281408 0)
(7.33442 -0.00367403 0)
(7.33522 -0.00449711 0)
(7.33616 -0.00527072 0)
(7.33719 -0.00599075 0)
(7.33831 -0.0066574 0)
(7.33948 -0.00727618 0)
(7.3407 -0.00785583 0)
(7.34194 -0.00840513 0)
(7.34319 -0.00893183 0)
(7.34444 -0.00944271 0)
(7.34569 -0.00994366 0)
(7.34692 -0.0104397 0)
(7.34814 -0.010935 0)
(7.34934 -0.0114331 0)
(7.35051 -0.011937 0)
(7.35165 -0.0124493 0)
(7.35276 -0.0129722 0)
(7.35384 -0.0135074 0)
(7.35488 -0.0140567 0)
(7.35588 -0.0146213 0)
(7.35685 -0.0152024 0)
(7.35778 -0.0158009 0)
(7.35866 -0.0164175 0)
(7.35951 -0.0170526 0)
(7.36031 -0.0177065 0)
(7.36107 -0.0183793 0)
(7.36178 -0.0190711 0)
(7.36245 -0.0197817 0)
(7.36308 -0.0205098 0)
(7.33301 -0.000400342 0)
(7.33305 -0.00125338 0)
(7.33321 -0.00222277 0)
(7.3336 -0.0032615 0)
(7.33423 -0.00428422 0)
(7.33506 -0.00526242 0)
(7.33603 -0.00619721 0)
(7.33711 -0.00708177 0)
(7.33827 -0.00790602 0)
(7.33949 -0.00866791 0)
(7.34073 -0.00937234 0)
(7.34199 -0.0100265 0)
(7.34324 -0.0106379 0)
(7.3445 -0.0112142 0)
(7.34574 -0.0117631 0)
(7.34696 -0.0122914 0)
(7.34816 -0.0128052 0)
(7.34933 -0.0133099 0)
(7.35047 -0.0138101 0)
(7.35158 -0.0143098 0)
(7.35266 -0.0148124 0)
(7.3537 -0.0153208 0)
(7.35471 -0.0158374 0)
(7.35567 -0.0163642 0)
(7.35659 -0.0169029 0)
(7.35748 -0.0174548 0)
(7.35832 -0.018021 0)
(7.35911 -0.018602 0)
(7.35986 -0.0191985 0)
(7.36057 -0.0198107 0)
(7.36123 -0.0204383 0)
(7.36184 -0.0210813 0)
(7.36242 -0.0217377 0)
(7.33299 -0.000383787 0)
(7.33292 -0.00128405 0)
(7.33295 -0.00246659 0)
(7.33328 -0.00376314 0)
(7.33391 -0.00495313 0)
(7.33474 -0.00597775 0)
(7.33571 -0.00686786 0)
(7.3368 -0.00765646 0)
(7.33798 -0.00836692 0)
(7.33922 -0.00901964 0)
(7.34049 -0.00963117 0)
(7.34178 -0.0102131 0)
(7.34307 -0.0107737 0)
(7.34435 -0.011319 0)
(7.34561 -0.0118538 0)
(7.34685 -0.0123818 0)
(7.34805 -0.0129057 0)
(7.34923 -0.0134281 0)
(7.35037 -0.0139508 0)
(7.35147 -0.0144758 0)
(7.35254 -0.0150046 0)
(7.35356 -0.0155387 0)
(7.35455 -0.0160794 0)
(7.35549 -0.0166278 0)
(7.35638 -0.0171848 0)
(7.35724 -0.0177512 0)
(7.35805 -0.0183279 0)
(7.35881 -0.0189151 0)
(7.35953 -0.0195134 0)
(7.3602 -0.020123 0)
(7.36083 -0.0207441 0)
(7.36141 -0.0213771 0)
(7.36195 -0.0220211 0)
(7.33295 -0.000277476 0)
(7.3326 -0.00111825 0)
(7.33235 -0.00250017 0)
(7.33266 -0.00422691 0)
(7.33347 -0.00605881 0)
(7.33451 -0.0078463 0)
(7.33564 -0.0094771 0)
(7.33683 -0.0108889 0)
(7.33807 -0.01208 0)
(7.33932 -0.0130801 0)
(7.34057 -0.0139222 0)
(7.34183 -0.0146359 0)
(7.34307 -0.0152482 0)
(7.3443 -0.015783 0)
(7.34551 -0.0162603 0)
(7.3467 -0.016696 0)
(7.34787 -0.0171028 0)
(7.349 -0.0174906 0)
(7.35011 -0.0178674 0)
(7.35118 -0.0182393 0)
(7.35222 -0.0186111 0)
(7.35322 -0.0189865 0)
(7.35418 -0.0193684 0)
(7.3551 -0.0197589 0)
(7.35599 -0.0201599 0)
(7.35683 -0.0205724 0)
(7.35762 -0.0209975 0)
(7.35838 -0.0214355 0)
(7.35908 -0.0218869 0)
(7.35975 -0.0223516 0)
(7.36036 -0.0228294 0)
(7.36093 -0.0233198 0)
(7.36145 -0.0238213 0)
(7.33289 6.50943e-05 0)
(7.33205 -0.00105348 0)
(7.33119 -0.00246119 0)
(7.33097 -0.00321905 0)
(7.33139 -0.00358077 0)
(7.33225 -0.00400697 0)
(7.33343 -0.00460878 0)
(7.33482 -0.00532409 0)
(7.3363 -0.00610627 0)
(7.3378 -0.00693632 0)
(7.3393 -0.00779568 0)
(7.34078 -0.00866436 0)
(7.34223 -0.00952732 0)
(7.34365 -0.0103753 0)
(7.34502 -0.0112028 0)
(7.34636 -0.0120068 0)
(7.34766 -0.0127862 0)
(7.34892 -0.0135412 0)
(7.35014 -0.014273 0)
(7.35132 -0.0149832 0)
(7.35245 -0.0156739 0)
(7.35355 -0.0163473 0)
(7.35461 -0.0170056 0)
(7.35562 -0.0176508 0)
(7.35659 -0.018285 0)
(7.35751 -0.01891 0)
(7.35839 -0.0195275 0)
(7.35923 -0.0201389 0)
(7.36002 -0.0207457 0)
(7.36076 -0.0213489 0)
(7.36146 -0.0219495 0)
(7.36212 -0.0225486 0)
(7.36274 -0.023146 0)
(7.33241 0.00202856 0)
(7.33044 -0.000711371 0)
(7.33024 -0.00749566 0)
(7.33128 -0.0139941 0)
(7.33219 -0.0187514 0)
(7.33283 -0.0219699 0)
(7.33357 -0.0240664 0)
(7.33452 -0.0253456 0)
(7.33563 -0.0260456 0)
(7.33685 -0.0263562 0)
(7.33818 -0.026417 0)
(7.3396 -0.026326 0)
(7.34108 -0.0261508 0)
(7.34261 -0.0259373 0)
(7.34418 -0.0257157 0)
(7.34576 -0.0255052 0)
(7.34734 -0.0253181 0)
(7.34891 -0.0251615 0)
(7.35047 -0.0250392 0)
(7.35201 -0.0249528 0)
(7.35351 -0.0249027 0)
(7.35498 -0.0248881 0)
(7.3564 -0.0249079 0)
(7.35779 -0.0249605 0)
(7.35912 -0.0250442 0)
(7.3604 -0.0251574 0)
(7.36163 -0.0252983 0)
(7.3628 -0.0254653 0)
(7.36392 -0.0256567 0)
(7.36498 -0.0258711 0)
(7.36598 -0.0261072 0)
(7.36692 -0.0263638 0)
(7.3678 -0.0266395 0)
(7.32877 0.00625129 0)
(7.31723 0.0178641 0)
(7.31235 0.0250144 0)
(7.31383 0.0270146 0)
(7.31759 0.0256544 0)
(7.32168 0.0227901 0)
(7.3258 0.0193787 0)
(7.32992 0.0157781 0)
(7.33395 0.0121711 0)
(7.33784 0.00869662 0)
(7.34159 0.00543934 0)
(7.34519 0.00243128 0)
(7.34866 -0.000325058 0)
(7.35199 -0.00283926 0)
(7.3552 -0.00512647 0)
(7.35829 -0.00720511 0)
(7.36126 -0.00909488 0)
(7.36411 -0.0108152 0)
(7.36685 -0.0123843 0)
(7.36947 -0.013819 0)
(7.37199 -0.0151346 0)
(7.3744 -0.0163448 0)
(7.3767 -0.0174619 0)
(7.3789 -0.0184968 0)
(7.38099 -0.0194589 0)
(7.38298 -0.0203568 0)
(7.38487 -0.0211979 0)
(7.38666 -0.0219888 0)
(7.38836 -0.0227352 0)
(7.38996 -0.0234417 0)
(7.39147 -0.0241127 0)
(7.39289 -0.0247506 0)
(7.39424 -0.0253586 0)
(7.33378 -0.0333144 0)
(7.33299 -0.0723577 0)
(7.32806 -0.0857692 0)
(7.32649 -0.0872451 0)
(7.33004 -0.0848928 0)
(7.33725 -0.0809633 0)
(7.34618 -0.076159 0)
(7.35563 -0.0711367 0)
(7.36508 -0.0663536 0)
(7.37426 -0.0619821 0)
(7.38302 -0.0580507 0)
(7.39125 -0.0545502 0)
(7.39893 -0.0514587 0)
(7.40604 -0.0487431 0)
(7.4126 -0.0463647 0)
(7.41864 -0.044285 0)
(7.42418 -0.0424691 0)
(7.42926 -0.040885 0)
(7.4339 -0.0395048 0)
(7.43812 -0.0383034 0)
(7.44197 -0.0372592 0)
(7.44545 -0.0363533 0)
(7.4486 -0.0355694 0)
(7.45144 -0.0348931 0)
(7.45399 -0.0343122 0)
(7.45626 -0.0338158 0)
(7.45828 -0.0333945 0)
(7.46005 -0.0330403 0)
(7.4616 -0.032746 0)
(7.46294 -0.0325056 0)
(7.46409 -0.0323138 0)
(7.46505 -0.0321667 0)
(7.46584 -0.0320586 0)
(7.33141 0.164992 0)