/*--------------------------------*- C++ -*----------------------------------*\
  =========                 |
  \\      /  F ield         | OpenFOAM: The Open Source CFD Toolbox
   \\    /   O peration     | Website:  https://openfoam.org
    \\  /    A nd           | Version:  10
     \\/     M anipulation  |
\*---------------------------------------------------------------------------*/
FoamFile
{
    format      ascii;
    class       volScalarField;
    location    "900";
    object      yPlus;
}
// * * * * * * * * * * * * * * * * * * * * * * * * * * * * * * * * * * * * * //

dimensions      [0 0 0 0 0 0 0];

internalField   uniform 0;

boundaryField
{
    outlet
    {
        type            calculated;
        value           uniform 0;
    }
    inlet
    {
        type            calculated;
        value           uniform 0;
    }
    lowerWall
    {
        type            calculated;
        value           nonuniform List<scalar> 
148
(
9.9937
9.87583
9.76655
9.65574
9.54325
9.43227
9.32599
9.22676
9.13583
9.05372
8.98045
8.9158
8.85922
8.81019
8.76812
8.73234
8.70226
8.6774
8.65717
8.64109
8.62871
8.6197
8.61358
8.61011
8.60893
8.60982
8.61243
8.61723
8.61917
8.64531
8.59645
8.71055
8.12792
5.0749
7.68737
9.38589
10.5898
11.3199
11.6814
11.9324
11.2691
11.3774
11.5344
11.6216
11.6894
11.4265
12.6533
7.66191
5.0749
12.1158
12.2558
12.4359
12.4609
12.3332
12.1623
12.0385
12.0844
12.4296
13.2869
15.1921
18.3041
21.8653
25.4525
28.911
32.189
35.2749
38.1741
40.8987
43.4619
45.8772
48.1573
50.3141
52.3587
54.3016
56.1522
57.9188
59.6083
61.2262
62.776
64.2603
65.6803
67.0364
68.3282
69.5549
70.7162
71.8138
72.8529
73.8379
74.7478
75.5866
76.3534
77.0475
77.6694
78.2212
78.7061
79.1285
79.4935
79.8055
80.0681
80.283
80.45
80.5661
80.6259
80.622
80.5455
80.3872
80.1382
79.7912
79.3411
78.7871
78.1339
77.392
76.579
75.7291
74.9198
74.2296
73.5804
72.9332
72.2978
71.6884
71.1158
70.5847
70.0948
69.641
69.2145
68.8043
68.3982
67.9845
67.5529
67.0954
66.6068
66.0852
65.5315
64.949
64.3429
63.72
63.0874
62.4526
61.8232
61.2065
60.6106
60.0449
59.5212
59.0514
58.6495
58.3434
58.0771
58.1896
)
;
    }
    upperWall
    {
        type            calculated;
        value           nonuniform List<scalar> 
133
(
30.6045
31.4255
32.2163
32.972
33.693
34.3806
35.0365
35.6619
36.2577
36.8253
37.3656
37.8796
38.3684
38.833
39.2745
39.6937
40.0918
40.4695
40.8279
41.1678
41.4901
41.7956
42.0852
42.3596
42.6195
42.8658
43.099
43.3198
43.529
43.727
43.9145
44.0919
44.2601
44.4447
44.6466
44.8415
45.0292
45.2096
45.3825
45.5478
45.7053
45.8549
45.9966
46.1302
46.2556
46.3727
46.4813
46.5815
46.6731
46.756
46.8301
46.8953
46.9516
46.9987
47.0367
47.0654
47.0846
47.0943
47.0942
47.0844
47.0645
47.0344
46.994
46.943
46.8811
46.8083
46.7243
46.6287
46.5215
46.4022
46.2707
46.1267
45.9701
45.8006
45.618
45.4223
45.2134
44.9914
44.7563
44.5083
44.2478
43.9752
43.6913
43.3966
43.0921
42.7789
42.4584
42.132
41.8014
41.4686
41.1356
40.8046
40.4782
40.1586
39.8485
39.5502
39.2664
38.999
38.75
38.521
38.3131
38.1269
37.9624
37.8195
37.697
37.5935
37.5074
37.4363
37.3781
37.33
37.2896
37.2543
37.2217
37.1896
37.1559
37.119
37.0771
37.0292
36.9743
36.9117
36.8411
36.762
36.6745
36.5789
36.4753
36.3642
36.2462
36.122
35.9918
35.8585
35.7144
35.5934
35.3627
)
;
    }
    frontAndBack
    {
        type            empty;
    }
}


// ************************************************************************* //
