/*--------------------------------*- C++ -*----------------------------------*\
  =========                 |
  \\      /  F ield         | OpenFOAM: The Open Source CFD Toolbox
   \\    /   O peration     | Website:  https://openfoam.org
    \\  /    A nd           | Version:  10
     \\/     M anipulation  |
\*---------------------------------------------------------------------------*/
FoamFile
{
    format      ascii;
    class       volScalarField;
    location    "0.005";
    object      nut;
}
// * * * * * * * * * * * * * * * * * * * * * * * * * * * * * * * * * * * * * //

dimensions      [0 2 -1 0 0 0 0];

internalField   nonuniform List<scalar> 
6820
(
0.000503175
0.00039764
0.000326574
0.000273903
0.000244524
0.000226933
0.000216335
0.000210285
0.000206609
0.000203876
0.000201403
0.00019899
0.000196668
0.000194524
0.000192611
0.000190932
0.000189473
0.000188217
0.000187165
0.00018633
0.00018574
0.00018543
0.000185444
0.000185836
0.000186675
0.000188048
0.000190067
0.000192888
0.0001967
0.000201867
0.000208504
0.000218188
0.000224923
8.16417e-05
0.000143082
0.000195222
0.00020948
0.000205473
0.000197597
0.000188763
0.000180497
0.000173074
0.000166305
0.000160067
0.000154377
0.000149305
0.000144883
0.000141061
0.000137718
0.000134707
0.000131902
0.000129217
0.000126604
0.000124037
0.000121502
0.000118986
0.000116473
0.000113938
0.000111349
0.000108662
0.000105801
0.000102686
9.90321e-05
9.47994e-05
8.85317e-05
8.05791e-05
3.8582e-05
2.75194e-05
4.14899e-05
7.07002e-05
8.91827e-05
9.89146e-05
0.00010202
0.000100798
9.69254e-05
9.15566e-05
8.555e-05
7.95879e-05
7.41591e-05
6.94965e-05
6.56152e-05
6.23802e-05
5.95942e-05
5.70818e-05
5.47226e-05
5.24459e-05
5.0213e-05
4.79995e-05
4.57851e-05
4.35479e-05
4.12619e-05
3.88945e-05
3.64042e-05
3.37348e-05
3.08082e-05
2.75151e-05
2.36537e-05
1.91796e-05
1.33286e-05
1.99075e-05
2.36473e-05
2.26012e-05
1.44127e-05
4.4545e-06
4.70858e-06
1.08503e-05
1.45335e-05
1.64648e-05
1.71789e-05
1.69943e-05
1.61593e-05
1.49624e-05
1.37023e-05
1.25509e-05
1.15434e-05
1.0641e-05
9.79893e-06
8.99802e-06
8.2373e-06
7.52181e-06
6.85801e-06
6.25601e-06
5.73512e-06
5.3309e-06
5.1008e-06
5.12277e-06
5.48017e-06
6.23244e-06
7.43004e-06
9.07095e-06
1.10408e-05
1.36169e-05
1.31535e-05
1.5235e-05
2.00604e-05
2.20797e-05
2.15363e-05
1.9814e-05
1.76359e-05
1.53179e-05
1.29791e-05
1.06596e-05
8.40065e-06
6.26936e-06
4.33962e-06
2.69482e-06
1.44069e-06
7.38696e-07
8.27824e-07
1.21872e-06
1.60355e-06
1.96652e-06
2.32652e-06
2.70152e-06
3.1067e-06
3.55612e-06
4.06433e-06
4.64777e-06
5.32538e-06
6.11994e-06
7.05601e-06
8.15099e-06
9.44281e-06
1.07456e-05
1.25335e-05
1.00761e-05
1.11457e-05
1.20726e-05
1.2795e-05
1.3088e-05
1.28996e-05
1.21744e-05
1.09921e-05
9.54853e-06
8.02562e-06
6.53241e-06
5.1319e-06
3.88131e-06
2.8471e-06
2.07738e-06
1.61807e-06
1.48827e-06
1.60669e-06
1.8499e-06
2.14596e-06
2.4708e-06
2.8223e-06
3.20698e-06
3.63478e-06
4.11738e-06
4.66786e-06
5.30088e-06
6.03118e-06
6.87608e-06
7.83436e-06
8.93696e-06
1.00199e-05
1.13774e-05
7.3952e-06
8.33068e-06
8.90246e-06
9.20939e-06
9.04029e-06
8.5009e-06
7.66837e-06
6.65139e-06
5.62522e-06
4.73831e-06
4.04537e-06
3.50695e-06
3.03886e-06
2.58956e-06
2.18088e-06
1.88364e-06
1.76267e-06
1.82087e-06
2.00603e-06
2.26443e-06
2.56624e-06
2.90149e-06
3.2713e-06
3.68208e-06
4.14272e-06
4.66305e-06
5.25362e-06
5.92314e-06
6.68202e-06
7.52148e-06
8.46047e-06
9.37911e-06
1.04711e-05
5.59078e-06
6.65072e-06
7.17783e-06
7.3424e-06
7.05104e-06
6.48568e-06
5.74996e-06
4.92597e-06
4.15283e-06
3.56808e-06
3.21885e-06
3.02609e-06
2.85418e-06
2.62328e-06
2.34924e-06
2.10987e-06
1.98388e-06
2.00172e-06
2.14193e-06
2.36531e-06
2.64255e-06
2.95967e-06
3.31372e-06
3.70784e-06
4.14803e-06
4.64105e-06
5.19393e-06
5.81104e-06
6.49754e-06
7.24245e-06
8.05456e-06
8.84976e-06
9.74502e-06
4.29809e-06
5.24859e-06
5.67137e-06
5.87107e-06
5.74369e-06
5.34322e-06
4.74076e-06
4.04507e-06
3.42714e-06
3.0367e-06
2.89935e-06
2.895e-06
2.86609e-06
2.73461e-06
2.52424e-06
2.31719e-06
2.19275e-06
2.18873e-06
2.29793e-06
2.4919e-06
2.74443e-06
3.04024e-06
3.37391e-06
3.74603e-06
4.16009e-06
4.62022e-06
5.13047e-06
5.69219e-06
6.30675e-06
6.96313e-06
7.664e-06
8.34995e-06
9.09714e-06
3.35368e-06
4.20617e-06
4.60966e-06
4.81528e-06
4.72836e-06
4.37807e-06
3.85345e-06
3.28351e-06
2.83675e-06
2.64032e-06
2.6802e-06
2.80781e-06
2.86967e-06
2.80326e-06
2.64065e-06
2.46253e-06
2.34592e-06
2.33132e-06
2.41961e-06
2.59022e-06
2.82072e-06
3.0962e-06
3.40992e-06
3.76058e-06
4.14956e-06
4.5788e-06
5.04993e-06
5.56217e-06
6.11435e-06
6.69597e-06
7.30632e-06
7.90126e-06
8.53356e-06
2.65112e-06
3.40063e-06
3.77866e-06
3.97129e-06
3.92626e-06
3.65721e-06
3.24013e-06
2.80178e-06
2.50559e-06
2.45795e-06
2.61324e-06
2.81483e-06
2.92383e-06
2.89128e-06
2.75509e-06
2.59588e-06
2.48721e-06
2.46816e-06
2.54258e-06
2.69459e-06
2.905e-06
3.15995e-06
3.45226e-06
3.77941e-06
4.14122e-06
4.53789e-06
4.96928e-06
5.43311e-06
5.92667e-06
6.44016e-06
6.97146e-06
7.48611e-06
8.0239e-06
2.11521e-06
2.77016e-06
3.13951e-06
3.33748e-06
3.33095e-06
3.12003e-06
2.77741e-06
2.43806e-06
2.26033e-06
2.32269e-06
2.55427e-06
2.80114e-06
2.93947e-06
2.93158e-06
2.81909e-06
2.68003e-06
2.58357e-06
2.56645e-06
2.63368e-06
2.7725e-06
2.9665e-06
3.20321e-06
3.47558e-06
3.78044e-06
4.11648e-06
4.48262e-06
4.87739e-06
5.29751e-06
5.73939e-06
6.19385e-06
6.65833e-06
7.10471e-06
7.56444e-06
1.69697e-06
2.27209e-06
2.63553e-06
2.83684e-06
2.85806e-06
2.70032e-06
2.43552e-06
2.19757e-06
2.12814e-06
2.27598e-06
2.55646e-06
2.82551e-06
2.97416e-06
2.97477e-06
2.87359e-06
2.74748e-06
2.66135e-06
2.64822e-06
2.71208e-06
2.84138e-06
3.02157e-06
3.2415e-06
3.49458e-06
3.77741e-06
4.08797e-06
4.4243e-06
4.78401e-06
5.16323e-06
5.55791e-06
5.95958e-06
6.36566e-06
6.75264e-06
7.14615e-06
1.36336e-06
1.87393e-06
2.23286e-06
2.44162e-06
2.49011e-06
2.38092e-06
2.18324e-06
2.02681e-06
2.03631e-06
2.23882e-06
2.54579e-06
2.82373e-06
2.9753e-06
2.98133e-06
2.89075e-06
2.7783e-06
2.70452e-06
2.69866e-06
2.7631e-06
2.88674e-06
3.05637e-06
3.26206e-06
3.49791e-06
3.76054e-06
4.04755e-06
4.35642e-06
4.68418e-06
5.02663e-06
5.37956e-06
5.73519e-06
6.0911e-06
6.42735e-06
6.76499e-06
1.09183e-06
1.553e-06
1.90772e-06
2.12421e-06
2.1953e-06
2.12744e-06
1.98909e-06
1.9036e-06
1.97773e-06
2.22211e-06
2.54722e-06
2.8275e-06
2.97502e-06
2.97882e-06
2.89203e-06
2.78869e-06
2.72555e-06
2.72772e-06
2.79503e-06
2.91575e-06
3.07736e-06
3.27095e-06
3.49131e-06
3.73533e-06
4.00045e-06
4.28386e-06
4.58226e-06
4.89135e-06
5.20696e-06
5.522e-06
5.83426e-06
6.1268e-06
6.41688e-06
8.66873e-07
1.29258e-06
1.64293e-06
1.86674e-06
1.95779e-06
1.92632e-06
1.83932e-06
1.8113e-06
1.93302e-06
2.20475e-06
2.53796e-06
2.8134e-06
2.95186e-06
2.95028e-06
2.86553e-06
2.77071e-06
2.71875e-06
2.73058e-06
2.80312e-06
2.92361e-06
3.07985e-06
3.26379e-06
3.47095e-06
3.69857e-06
3.94414e-06
4.2047e-06
4.47686e-06
4.75636e-06
5.03918e-06
5.31892e-06
5.5936e-06
5.84885e-06
6.09868e-06
6.77823e-07
1.08073e-06
1.42655e-06
1.65619e-06
1.76374e-06
1.76266e-06
1.71846e-06
1.73665e-06
1.89506e-06
2.18723e-06
2.52467e-06
2.79203e-06
2.91775e-06
2.90675e-06
2.82036e-06
2.73148e-06
2.68971e-06
2.7117e-06
2.79104e-06
2.91341e-06
3.06655e-06
3.24309e-06
3.43923e-06
3.65263e-06
3.88091e-06
4.12117e-06
4.37e-06
4.62333e-06
4.87737e-06
5.12641e-06
5.36867e-06
5.59203e-06
5.80776e-06
5.1776e-07
9.09231e-07
1.25009e-06
1.48333e-06
1.60391e-06
1.62782e-06
1.61876e-06
1.67342e-06
1.85943e-06
2.1656e-06
2.50238e-06
2.75737e-06
2.86657e-06
2.84315e-06
2.75305e-06
2.66907e-06
2.6375e-06
2.67061e-06
2.75838e-06
2.88467e-06
3.03693e-06
3.20834e-06
3.39576e-06
3.59729e-06
3.81076e-06
4.03339e-06
4.26188e-06
4.49242e-06
4.72149e-06
4.94407e-06
5.15856e-06
5.3548e-06
5.54176e-06
3.83412e-07
7.72887e-07
1.1076e-06
1.34173e-06
1.47161e-06
1.51511e-06
1.53392e-06
1.6168e-06
1.8236e-06
2.13931e-06
2.47216e-06
2.71178e-06
2.80153e-06
2.76299e-06
2.66702e-06
2.58664e-06
2.56502e-06
2.60994e-06
2.70753e-06
2.83951e-06
2.99292e-06
3.16135e-06
3.34229e-06
3.53423e-06
3.7353e-06
3.94287e-06
4.15385e-06
4.3647e-06
4.57225e-06
4.7721e-06
4.96284e-06
5.13607e-06
5.29876e-06
2.77137e-07
6.69218e-07
9.9514e-07
1.22691e-06
1.36226e-06
1.42028e-06
1.46054e-06
1.56482e-06
1.78687e-06
2.108e-06
2.43334e-06
2.65421e-06
2.72149e-06
2.66544e-06
2.56203e-06
2.48465e-06
2.4733e-06
2.53106e-06
2.63994e-06
2.77937e-06
2.93588e-06
3.10343e-06
3.28005e-06
3.46467e-06
3.65568e-06
3.85068e-06
4.04682e-06
4.24088e-06
4.43005e-06
4.61052e-06
4.78105e-06
4.9348e-06
5.07709e-06
2.11436e-07
5.9747e-07
9.10069e-07
1.13586e-06
1.27272e-06
1.34041e-06
1.39636e-06
1.51615e-06
1.74865e-06
2.07138e-06
2.38581e-06
2.58484e-06
2.62708e-06
2.55157e-06
2.43957e-06
2.36497e-06
2.36453e-06
2.43636e-06
2.55804e-06
2.70665e-06
2.86812e-06
3.03676e-06
3.21111e-06
3.39052e-06
3.57368e-06
3.75841e-06
3.94215e-06
4.12204e-06
4.29559e-06
4.45959e-06
4.61297e-06
4.75025e-06
4.87538e-06
2.06492e-07
5.57639e-07
8.50689e-07
1.06658e-06
1.20104e-06
1.27391e-06
1.34047e-06
1.4707e-06
1.70918e-06
2.02954e-06
2.3294e-06
2.50344e-06
2.51818e-06
2.42163e-06
2.30045e-06
2.22904e-06
2.24076e-06
2.32828e-06
2.46447e-06
2.62395e-06
2.79214e-06
2.96371e-06
3.1377e-06
3.31385e-06
3.49115e-06
3.66769e-06
3.84122e-06
4.00923e-06
4.1696e-06
4.31966e-06
4.45848e-06
4.58183e-06
4.6925e-06
2.57474e-07
5.49138e-07
8.15781e-07
1.0177e-06
1.14588e-06
1.21968e-06
1.29206e-06
1.42781e-06
1.66762e-06
1.98125e-06
2.26267e-06
2.40871e-06
2.39398e-06
2.27549e-06
2.14534e-06
2.07849e-06
2.10443e-06
2.20978e-06
2.36237e-06
2.53444e-06
2.71103e-06
2.8872e-06
3.06252e-06
3.23711e-06
3.41028e-06
3.58044e-06
3.74562e-06
3.90373e-06
4.05297e-06
4.1912e-06
4.31765e-06
4.42917e-06
4.5276e-06
3.3741e-07
5.68797e-07
8.03991e-07
9.88335e-07
1.1068e-06
1.17792e-06
1.25214e-06
1.389e-06
1.6254e-06
1.92748e-06
2.18621e-06
2.30112e-06
2.25511e-06
2.11423e-06
1.97607e-06
1.91606e-06
1.95915e-06
2.08491e-06
2.25586e-06
2.4421e-06
2.6285e-06
2.81066e-06
2.98868e-06
3.1631e-06
3.33355e-06
3.49877e-06
3.65713e-06
3.80693e-06
3.94671e-06
4.07484e-06
4.19067e-06
4.29208e-06
4.38005e-06
4.30633e-07
6.12321e-07
8.13884e-07
9.77369e-07
1.08237e-06
1.1465e-06
1.21766e-06
1.35013e-06
1.57724e-06
1.86218e-06
2.09388e-06
2.17518e-06
2.09734e-06
1.93527e-06
1.79213e-06
1.74347e-06
1.80834e-06
1.95796e-06
2.14946e-06
2.35131e-06
2.54868e-06
2.73789e-06
2.91962e-06
3.09487e-06
3.26362e-06
3.42496e-06
3.57764e-06
3.72034e-06
3.85196e-06
3.97132e-06
4.07791e-06
4.1705e-06
4.24939e-06
5.32571e-07
6.76002e-07
8.44702e-07
9.85858e-07
1.0758e-06
1.13134e-06
1.19704e-06
1.32089e-06
1.53246e-06
1.79336e-06
1.99227e-06
2.03636e-06
1.92546e-06
1.74346e-06
1.59931e-06
1.568e-06
1.66016e-06
1.83688e-06
2.05031e-06
2.26836e-06
2.47708e-06
2.67369e-06
2.85952e-06
3.03602e-06
3.20357e-06
3.36162e-06
3.50932e-06
3.64571e-06
3.77005e-06
3.88157e-06
3.9799e-06
4.06463e-06
4.13544e-06
6.4322e-07
7.57361e-07
8.94365e-07
1.00995e-06
1.0793e-06
1.11922e-06
1.1715e-06
1.27828e-06
1.46588e-06
1.69577e-06
1.85787e-06
1.86433e-06
1.72357e-06
1.52844e-06
1.39387e-06
1.39213e-06
1.52048e-06
1.72831e-06
1.96477e-06
2.19905e-06
2.4189e-06
2.62268e-06
2.81243e-06
2.99007e-06
3.1564e-06
3.31129e-06
3.45424e-06
3.58471e-06
3.70224e-06
3.80649e-06
3.89717e-06
3.97464e-06
4.03802e-06
7.64946e-07
8.56976e-07
9.66771e-07
1.06083e-06
1.11519e-06
1.14552e-06
1.18725e-06
1.27301e-06
1.42597e-06
1.61178e-06
1.72597e-06
1.68772e-06
1.51503e-06
1.31123e-06
1.1982e-06
1.23953e-06
1.41045e-06
1.64909e-06
1.90589e-06
2.15362e-06
2.3823e-06
2.59147e-06
2.78375e-06
2.96149e-06
3.12584e-06
3.27705e-06
3.41498e-06
3.53942e-06
3.65021e-06
3.74735e-06
3.83062e-06
3.9011e-06
3.95735e-06
9.02198e-07
9.76155e-07
1.05539e-06
1.11565e-06
1.13618e-06
1.13565e-06
1.14798e-06
1.1987e-06
1.30722e-06
1.44383e-06
1.51103e-06
1.4358e-06
1.2467e-06
1.06075e-06
1.00564e-06
1.11755e-06
1.3392e-06
1.60687e-06
1.88011e-06
2.13769e-06
2.37232e-06
2.58452e-06
2.7774e-06
2.95364e-06
3.11473e-06
3.26128e-06
3.39346e-06
3.51139e-06
3.61512e-06
3.70497e-06
3.78076e-06
3.84421e-06
3.89335e-06
1.06112e-06
1.12355e-06
1.18773e-06
1.24295e-06
1.2671e-06
1.26999e-06
1.27017e-06
1.2789e-06
1.31509e-06
1.366e-06
1.35337e-06
1.21819e-06
1.0061e-06
8.59297e-07
8.98662e-07
1.09057e-06
1.35044e-06
1.63163e-06
1.90865e-06
2.16667e-06
2.40028e-06
2.61035e-06
2.7999e-06
2.97166e-06
3.12722e-06
3.2674e-06
3.39258e-06
3.50304e-06
3.59901e-06
3.68103e-06
3.74889e-06
3.80492e-06
3.8466e-06
1.25261e-06
1.30027e-06
1.31597e-06
1.30137e-06
1.25088e-06
1.19011e-06
1.14026e-06
1.09752e-06
1.06697e-06
1.04496e-06
9.74263e-07
8.15723e-07
6.53345e-07
6.7258e-07
8.83134e-07
1.15476e-06
1.43619e-06
1.71713e-06
1.9882e-06
2.23966e-06
2.46693e-06
2.67056e-06
2.85326e-06
3.01758e-06
3.16521e-06
3.29708e-06
3.41368e-06
3.51545e-06
3.60266e-06
3.67604e-06
3.73532e-06
3.78338e-06
3.81702e-06
1.4884e-06
1.54646e-06
1.60438e-06
1.67038e-06
1.69806e-06
1.67349e-06
1.59625e-06
1.46004e-06
1.27852e-06
1.0733e-06
8.31294e-07
5.6657e-07
4.99824e-07
7.60422e-07
1.08812e-06
1.3838e-06
1.65057e-06
1.90474e-06
2.14912e-06
2.37798e-06
2.58678e-06
2.77495e-06
2.9441e-06
3.09609e-06
3.23221e-06
3.35314e-06
3.45926e-06
3.5509e-06
3.62821e-06
3.69194e-06
3.74162e-06
3.78057e-06
3.80513e-06
1.79993e-06
1.81261e-06
1.70495e-06
1.56065e-06
1.42076e-06
1.31552e-06
1.22697e-06
1.09157e-06
8.73756e-07
5.83119e-07
2.28486e-07
1.21418e-07
5.99152e-07
1.04515e-06
1.40759e-06
1.68929e-06
1.9252e-06
2.14564e-06
2.35945e-06
2.56236e-06
2.74921e-06
2.91835e-06
3.07054e-06
3.20712e-06
3.32905e-06
3.43683e-06
3.53063e-06
3.61061e-06
3.67673e-06
3.72968e-06
3.76872e-06
3.79781e-06
3.81207e-06
2.20693e-06
2.38666e-06
2.62674e-06
2.82938e-06
2.86479e-06
2.73392e-06
2.46892e-06
2.07867e-06
1.58193e-06
1.02219e-06
4.92296e-07
5.675e-07
1.08982e-06
1.57148e-06
1.9327e-06
2.18071e-06
2.36185e-06
2.5199e-06
2.67475e-06
2.82761e-06
2.97404e-06
3.11086e-06
3.23689e-06
3.35186e-06
3.45559e-06
3.54772e-06
3.62772e-06
3.69513e-06
3.74934e-06
3.79063e-06
3.81773e-06
3.83469e-06
3.83642e-06
2.81426e-06
2.60209e-06
2.14828e-06
1.88213e-06
1.858e-06
1.94502e-06
1.98151e-06
1.87196e-06
1.63218e-06
1.3839e-06
1.30709e-06
1.50361e-06
1.86427e-06
2.22019e-06
2.48514e-06
2.65876e-06
2.78209e-06
2.89244e-06
3.00497e-06
3.11927e-06
3.23102e-06
3.33735e-06
3.43708e-06
3.5296e-06
3.61424e-06
3.69007e-06
3.75583e-06
3.81037e-06
3.85241e-06
3.88187e-06
3.89668e-06
3.90153e-06
3.88889e-06
3.76195e-06
4.95659e-06
5.5973e-06
5.64993e-06
5.32319e-06
4.83036e-06
4.26758e-06
3.63262e-06
2.96327e-06
2.41737e-06
2.22637e-06
2.44763e-06
2.85717e-06
3.22146e-06
3.43644e-06
3.50906e-06
3.50231e-06
3.47977e-06
3.4761e-06
3.4986e-06
3.54168e-06
3.59747e-06
3.65963e-06
3.72361e-06
3.78619e-06
3.8448e-06
3.89689e-06
3.94001e-06
3.97142e-06
3.98968e-06
3.99099e-06
3.97926e-06
3.94593e-06
5.01027e-06
2.96982e-06
2.4269e-06
4.42473e-06
6.77054e-06
8.5643e-06
9.60045e-06
9.86291e-06
9.48916e-06
8.69897e-06
7.71806e-06
6.73344e-06
5.87248e-06
5.191e-06
4.69628e-06
4.36413e-06
4.15174e-06
4.0174e-06
3.93339e-06
3.88529e-06
3.86537e-06
3.86774e-06
3.8867e-06
3.91714e-06
3.955e-06
3.9961e-06
4.03489e-06
4.06593e-06
4.08507e-06
4.0907e-06
4.07678e-06
4.04805e-06
3.98193e-06
1.10278e-05
1.61335e-05
1.77424e-05
1.90342e-05
1.92997e-05
1.83139e-05
1.62272e-05
1.33442e-05
1.03054e-05
8.14705e-06
7.59811e-06
7.97403e-06
8.21686e-06
7.98516e-06
7.41328e-06
6.75998e-06
6.21013e-06
5.81926e-06
5.55905e-06
5.38199e-06
5.25258e-06
5.15048e-06
5.06519e-06
4.99064e-06
4.92377e-06
4.86474e-06
4.81067e-06
4.75908e-06
4.70453e-06
4.64279e-06
4.55743e-06
4.45763e-06
4.28009e-06
2.39198e-05
2.71544e-05
3.59802e-05
4.79177e-05
5.86603e-05
6.79443e-05
7.5089e-05
7.96396e-05
8.17659e-05
8.1761e-05
8.00291e-05
7.72078e-05
7.38604e-05
7.03965e-05
6.7062e-05
6.39539e-05
6.10915e-05
5.8464e-05
5.60489e-05
5.38179e-05
5.17409e-05
4.9791e-05
4.79476e-05
4.61984e-05
4.45385e-05
4.29555e-05
4.14508e-05
4.00334e-05
3.87085e-05
3.7475e-05
3.63499e-05
3.5328e-05
3.43875e-05
0.000542253
0.000509604
0.000490826
0.000467889
0.000445244
0.000425127
0.000407102
0.000391509
0.000378541
0.000367733
0.000358228
0.000349221
0.000340447
0.000331947
0.000323755
0.000315901
0.00030838
0.000301156
0.000294181
0.000287408
0.000280804
0.000274345
0.000268018
0.000261817
0.000255732
0.000249757
0.000243887
0.00023812
0.000232466
0.000226917
0.00022145
0.000216323
0.000211901
0.000162588
0.000151931
0.000100109
3.48956e-05
2.91525e-05
5.70382e-05
5.44279e-05
4.31822e-05
3.41188e-05
2.7667e-05
2.27945e-05
1.90588e-05
1.61773e-05
1.38996e-05
1.20623e-05
1.05647e-05
9.33262e-06
8.30687e-06
7.44137e-06
6.70175e-06
6.06271e-06
5.50523e-06
5.01469e-06
4.57973e-06
4.19145e-06
3.84285e-06
3.52831e-06
3.2433e-06
2.9841e-06
2.74761e-06
2.53124e-06
2.33278e-06
2.15035e-06
1.98236e-06
1.8274e-06
1.68427e-06
1.55193e-06
1.42945e-06
1.31605e-06
1.21099e-06
1.11364e-06
1.02344e-06
9.39866e-07
8.62457e-07
7.90784e-07
7.24456e-07
6.63112e-07
6.06417e-07
5.5406e-07
5.05753e-07
4.61225e-07
4.20225e-07
3.82516e-07
3.47873e-07
3.16092e-07
2.86976e-07
2.60347e-07
2.36033e-07
2.13878e-07
1.93733e-07
1.75462e-07
1.58936e-07
1.44038e-07
1.30656e-07
1.1869e-07
1.08044e-07
9.86357e-08
9.03783e-08
8.31976e-08
7.7013e-08
7.17518e-08
6.73321e-08
6.36807e-08
6.07138e-08
5.83561e-08
5.65234e-08
5.51439e-08
5.4139e-08
5.34496e-08
5.30142e-08
5.27888e-08
5.27265e-08
5.27983e-08
5.29705e-08
5.32256e-08
5.35407e-08
5.39088e-08
5.43144e-08
5.4756e-08
5.52222e-08
5.57159e-08
5.6231e-08
5.67659e-08
5.73381e-08
5.78863e-08
5.85855e-08
5.90072e-08
5.99395e-08
6.1558e-08
5.79437e-08
7.89134e-05
6.28864e-05
2.42181e-05
2.89934e-05
5.1747e-05
5.33441e-05
4.57711e-05
3.79831e-05
3.14793e-05
2.61624e-05
2.19193e-05
1.85809e-05
1.59325e-05
1.37889e-05
1.20322e-05
1.05836e-05
9.38048e-06
8.37121e-06
7.51468e-06
6.77956e-06
6.14232e-06
5.58496e-06
5.09349e-06
4.6569e-06
4.26646e-06
3.91527e-06
3.59776e-06
3.30945e-06
3.04669e-06
2.80648e-06
2.5863e-06
2.38406e-06
2.19795e-06
2.02645e-06
1.86822e-06
1.7221e-06
1.58705e-06
1.46217e-06
1.34665e-06
1.23976e-06
1.14085e-06
1.04932e-06
9.64631e-07
8.86295e-07
8.13858e-07
7.46907e-07
6.85059e-07
6.27962e-07
5.75286e-07
5.26727e-07
4.82003e-07
4.40848e-07
4.03016e-07
3.68274e-07
3.36408e-07
3.07214e-07
2.80506e-07
2.56105e-07
2.33846e-07
2.13574e-07
1.95142e-07
1.78413e-07
1.63262e-07
1.49569e-07
1.37224e-07
1.26123e-07
1.1617e-07
1.07272e-07
9.93454e-08
9.23063e-08
8.60816e-08
8.05968e-08
7.57875e-08
7.15871e-08
6.79379e-08
6.47798e-08
6.20623e-08
5.97315e-08
5.77441e-08
5.60543e-08
5.46274e-08
5.34251e-08
5.24182e-08
5.15735e-08
5.08662e-08
5.02668e-08
4.9754e-08
4.92981e-08
4.88751e-08
4.84488e-08
4.79859e-08
4.74343e-08
4.67402e-08
4.58232e-08
4.45845e-08
4.29266e-08
4.06351e-08
3.76863e-08
3.48827e-08
2.54735e-08
7.67684e-06
1.54711e-05
2.94815e-05
4.12616e-05
4.52371e-05
4.34603e-05
3.93006e-05
3.41882e-05
2.90939e-05
2.46744e-05
2.10359e-05
1.80732e-05
1.565e-05
1.3646e-05
1.19776e-05
1.05842e-05
9.41498e-06
8.42623e-06
7.58178e-06
6.85328e-06
6.21902e-06
5.66226e-06
5.16985e-06
4.73139e-06
4.33855e-06
3.98467e-06
3.66434e-06
3.37315e-06
3.10749e-06
2.86438e-06
2.6413e-06
2.43617e-06
2.2472e-06
2.07288e-06
1.91187e-06
1.76303e-06
1.62536e-06
1.49795e-06
1.38001e-06
1.27083e-06
1.16974e-06
1.07618e-06
9.89588e-07
9.09482e-07
8.35407e-07
7.66944e-07
7.03704e-07
6.45328e-07
5.91481e-07
5.41853e-07
4.96152e-07
4.54108e-07
4.15467e-07
3.7999e-07
3.47456e-07
3.17657e-07
2.90398e-07
2.65498e-07
2.42786e-07
2.22102e-07
2.03296e-07
1.86227e-07
1.70764e-07
1.56785e-07
1.44176e-07
1.32831e-07
1.22648e-07
1.13533e-07
1.05399e-07
9.81616e-08
9.17434e-08
8.60716e-08
8.10781e-08
7.66986e-08
7.28724e-08
6.95428e-08
6.6657e-08
6.41652e-08
6.20225e-08
6.01867e-08
5.86196e-08
5.72865e-08
5.61545e-08
5.51937e-08
5.43749e-08
5.36698e-08
5.3051e-08
5.24893e-08
5.19524e-08
5.1402e-08
5.07919e-08
5.00638e-08
4.91432e-08
4.79346e-08
4.63073e-08
4.41243e-08
4.11313e-08
3.72315e-08
3.26956e-08
2.21331e-08
1.81945e-05
2.17098e-05
2.82026e-05
3.39359e-05
3.69771e-05
3.71659e-05
3.47628e-05
3.08933e-05
2.68529e-05
2.32363e-05
2.01363e-05
1.75205e-05
1.53218e-05
1.34647e-05
1.18923e-05
1.05609e-05
9.43143e-06
8.46793e-06
7.63924e-06
6.92024e-06
6.29127e-06
5.73691e-06
5.24492e-06
4.80552e-06
4.41083e-06
4.0545e-06
3.73135e-06
3.43713e-06
3.16833e-06
2.92205e-06
2.69584e-06
2.48762e-06
2.29564e-06
2.11839e-06
1.95455e-06
1.80299e-06
1.66269e-06
1.53276e-06
1.41241e-06
1.30093e-06
1.19766e-06
1.10201e-06
1.01346e-06
9.31492e-07
8.55666e-07
7.85558e-07
7.20776e-07
6.60958e-07
6.05767e-07
5.54887e-07
5.08024e-07
4.64902e-07
4.25264e-07
3.88868e-07
3.55487e-07
3.2491e-07
2.96938e-07
2.71386e-07
2.48079e-07
2.26854e-07
2.07556e-07
1.90043e-07
1.74181e-07
1.59845e-07
1.46918e-07
1.3529e-07
1.24859e-07
1.15528e-07
1.07207e-07
9.98098e-08
9.32577e-08
8.74753e-08
8.23919e-08
7.7941e-08
7.40599e-08
7.06896e-08
6.77753e-08
6.52655e-08
6.31128e-08
6.12742e-08
5.97089e-08
5.83809e-08
5.72564e-08
5.63039e-08
5.54933e-08
5.47953e-08
5.41818e-08
5.3622e-08
5.30828e-08
5.2524e-08
5.18977e-08
5.11433e-08
5.01829e-08
4.89184e-08
4.72118e-08
4.49296e-08
4.17983e-08
3.77451e-08
3.29774e-08
2.22273e-08
1.74251e-05
1.99642e-05
2.44096e-05
2.89048e-05
3.19483e-05
3.25527e-05
3.08381e-05
2.79281e-05
2.47992e-05
2.18602e-05
1.9229e-05
1.69352e-05
1.49556e-05
1.32473e-05
1.17755e-05
1.05116e-05
9.42709e-06
8.49313e-06
7.68361e-06
6.97678e-06
6.35524e-06
5.80504e-06
5.31494e-06
4.87584e-06
4.48034e-06
4.12243e-06
3.79717e-06
3.50048e-06
3.22899e-06
2.97988e-06
2.75076e-06
2.53962e-06
2.34474e-06
2.16462e-06
1.99799e-06
1.84371e-06
1.70079e-06
1.56834e-06
1.44557e-06
1.33177e-06
1.22629e-06
1.12855e-06
1.038e-06
9.54149e-07
8.76546e-07
8.04763e-07
7.38407e-07
6.77114e-07
6.20541e-07
5.68372e-07
5.20306e-07
4.76067e-07
4.35391e-07
3.98034e-07
3.63766e-07
3.3237e-07
3.03646e-07
2.77404e-07
2.53466e-07
2.31665e-07
2.11844e-07
1.93858e-07
1.7757e-07
1.62852e-07
1.49585e-07
1.37656e-07
1.2696e-07
1.17399e-07
1.0888e-07
1.01316e-07
9.46235e-08
8.87267e-08
8.35518e-08
7.90303e-08
7.50966e-08
7.16897e-08
6.87519e-08
6.62303e-08
6.40744e-08
6.22397e-08
6.06833e-08
5.93677e-08
5.82573e-08
5.73202e-08
5.65243e-08
5.58405e-08
5.52382e-08
5.46867e-08
5.41503e-08
5.3589e-08
5.29513e-08
5.21764e-08
5.11815e-08
4.98687e-08
4.80912e-08
4.57221e-08
4.24678e-08
3.82806e-08
3.33287e-08
2.23846e-08
1.62176e-05
1.83207e-05
2.17842e-05
2.54907e-05
2.79934e-05
2.85704e-05
2.74434e-05
2.53497e-05
2.29402e-05
2.05518e-05
1.83289e-05
1.63306e-05
1.45605e-05
1.29996e-05
1.16311e-05
1.04389e-05
9.40356e-06
8.50301e-06
7.71592e-06
7.02392e-06
6.41191e-06
5.86754e-06
5.38064e-06
4.94287e-06
4.54739e-06
4.18855e-06
3.86169e-06
3.56296e-06
3.28912e-06
3.03744e-06
2.80564e-06
2.59175e-06
2.39409e-06
2.21122e-06
2.04186e-06
1.88491e-06
1.73939e-06
1.60442e-06
1.47923e-06
1.3631e-06
1.25539e-06
1.15553e-06
1.06296e-06
9.77197e-07
8.97783e-07
8.24293e-07
7.56332e-07
6.93532e-07
6.35549e-07
5.82061e-07
5.32767e-07
4.87385e-07
4.45648e-07
4.07309e-07
3.72134e-07
3.39903e-07
3.1041e-07
2.83463e-07
2.5888e-07
2.36491e-07
2.16137e-07
1.97669e-07
1.80946e-07
1.6584e-07
1.52226e-07
1.39991e-07
1.29026e-07
1.19233e-07
1.10514e-07
1.02781e-07
9.59494e-08
8.99396e-08
8.46756e-08
8.00866e-08
7.61042e-08
7.26654e-08
6.97096e-08
6.71815e-08
6.50284e-08
6.32033e-08
6.16616e-08
6.0364e-08
5.92729e-08
5.83558e-08
5.75795e-08
5.69135e-08
5.63261e-08
5.57854e-08
5.52547e-08
5.46926e-08
5.40459e-08
5.32516e-08
5.22233e-08
5.08617e-08
4.90128e-08
4.65539e-08
4.31737e-08
3.88452e-08
3.36996e-08
2.25571e-08
1.51967e-05
1.71787e-05
1.98876e-05
2.26505e-05
2.46162e-05
2.52705e-05
2.4616e-05
2.31073e-05
2.12438e-05
1.93115e-05
1.74462e-05
1.57164e-05
1.41435e-05
1.27265e-05
1.1462e-05
1.03441e-05
9.36128e-06
8.49741e-06
7.7357e-06
7.06102e-06
6.46062e-06
5.92376e-06
5.44146e-06
5.00615e-06
4.61159e-06
4.25255e-06
3.92469e-06
3.62437e-06
3.34853e-06
3.09458e-06
2.86031e-06
2.64384e-06
2.44355e-06
2.25802e-06
2.08601e-06
1.92646e-06
1.77838e-06
1.64093e-06
1.51333e-06
1.39488e-06
1.28495e-06
1.18295e-06
1.08836e-06
1.00067e-06
9.19429e-07
8.44214e-07
7.74627e-07
7.10298e-07
6.50881e-07
5.96051e-07
5.45505e-07
4.98956e-07
4.56136e-07
4.16791e-07
3.80686e-07
3.47596e-07
3.17314e-07
2.89642e-07
2.64395e-07
2.41402e-07
2.20498e-07
2.01532e-07
1.84362e-07
1.68853e-07
1.54882e-07
1.42331e-07
1.31091e-07
1.21059e-07
1.12136e-07
1.04232e-07
9.72588e-08
9.1136e-08
8.57843e-08
8.11303e-08
7.71026e-08
7.36357e-08
7.06659e-08
6.81357e-08
6.59898e-08
6.41794e-08
6.26572e-08
6.13827e-08
6.0316e-08
5.94232e-08
5.86701e-08
5.80254e-08
5.74562e-08
5.69296e-08
5.64072e-08
5.58465e-08
5.51919e-08
5.4379e-08
5.33175e-08
5.19068e-08
4.99853e-08
4.7434e-08
4.39257e-08
3.94489e-08
3.40996e-08
2.27455e-08
1.41602e-05
1.58954e-05
1.80502e-05
2.02548e-05
2.19079e-05
2.25644e-05
2.21952e-05
2.11208e-05
1.96986e-05
1.81477e-05
1.65907e-05
1.51011e-05
1.37116e-05
1.24331e-05
1.12717e-05
1.02295e-05
9.30154e-06
8.47704e-06
7.74329e-06
7.08823e-06
6.50138e-06
5.97368e-06
5.49732e-06
5.06559e-06
4.67286e-06
4.31436e-06
3.9861e-06
3.68468e-06
3.40724e-06
3.15132e-06
2.91484e-06
2.69598e-06
2.49319e-06
2.30511e-06
2.13053e-06
1.96842e-06
1.81782e-06
1.6779e-06
1.5479e-06
1.42713e-06
1.31496e-06
1.21082e-06
1.11417e-06
1.02453e-06
9.41437e-07
8.64468e-07
7.93226e-07
7.2734e-07
6.66461e-07
6.10262e-07
5.58437e-07
5.10696e-07
4.66767e-07
4.26396e-07
3.8934e-07
3.55373e-07
3.24283e-07
2.9587e-07
2.69944e-07
2.46332e-07
2.24866e-07
2.05392e-07
1.87765e-07
1.71847e-07
1.57512e-07
1.4464e-07
1.33119e-07
1.22844e-07
1.13715e-07
1.05638e-07
9.85245e-08
9.22895e-08
8.6852e-08
8.21357e-08
7.80667e-08
7.45765e-08
7.15986e-08
6.90725e-08
6.69404e-08
6.51507e-08
6.36542e-08
6.2408e-08
6.13712e-08
6.0508e-08
5.97833e-08
5.91645e-08
5.86175e-08
5.81082e-08
5.75972e-08
5.70405e-08
5.63809e-08
5.55517e-08
5.44589e-08
5.30001e-08
5.10069e-08
4.8363e-08
4.47256e-08
4.00974e-08
3.45409e-08
2.2972e-08
1.31893e-05
1.4754e-05
1.65492e-05
1.83096e-05
1.9652e-05
2.02738e-05
2.01204e-05
1.93798e-05
1.83011e-05
1.70602e-05
1.57669e-05
1.44914e-05
1.32712e-05
1.21242e-05
1.10635e-05
1.00972e-05
9.22564e-06
8.44259e-06
7.73896e-06
7.10556e-06
6.53407e-06
6.01709e-06
5.54799e-06
5.12095e-06
4.73096e-06
4.37376e-06
4.04571e-06
3.74369e-06
3.46504e-06
3.20749e-06
2.96904e-06
2.748e-06
2.54288e-06
2.35237e-06
2.17532e-06
2.01072e-06
1.85765e-06
1.7153e-06
1.58292e-06
1.45983e-06
1.34543e-06
1.23913e-06
1.14043e-06
1.04882e-06
9.63852e-07
8.85108e-07
8.12187e-07
7.44719e-07
6.82352e-07
6.24758e-07
5.71628e-07
5.2267e-07
4.77609e-07
4.36185e-07
3.98155e-07
3.63288e-07
3.31368e-07
3.02193e-07
2.75571e-07
2.51322e-07
2.29278e-07
2.09281e-07
1.91181e-07
1.74841e-07
1.60131e-07
1.46928e-07
1.35119e-07
1.24596e-07
1.15256e-07
1.07004e-07
9.9749e-08
9.34028e-08
8.78822e-08
8.31075e-08
7.9002e-08
7.54937e-08
7.25133e-08
6.9997e-08
6.78846e-08
6.61215e-08
6.46568e-08
6.3445e-08
6.24438e-08
6.16154e-08
6.09236e-08
6.03345e-08
5.98135e-08
5.93252e-08
5.88289e-08
5.8279e-08
5.76165e-08
5.67724e-08
5.56499e-08
5.41443e-08
5.20804e-08
4.93439e-08
4.55784e-08
4.07961e-08
3.50319e-08
2.32397e-08
1.2307e-05
1.36891e-05
1.51943e-05
1.66336e-05
1.77613e-05
1.83523e-05
1.83398e-05
1.78405e-05
1.70311e-05
1.60468e-05
1.49796e-05
1.38937e-05
1.28278e-05
1.18044e-05
1.08409e-05
9.94963e-06
9.13513e-06
8.39497e-06
7.72323e-06
7.11326e-06
6.5588e-06
6.05399e-06
5.59341e-06
5.17213e-06
4.7858e-06
4.43066e-06
4.10344e-06
3.80133e-06
3.52191e-06
3.26304e-06
3.02291e-06
2.7999e-06
2.59261e-06
2.3998e-06
2.22038e-06
2.05336e-06
1.89787e-06
1.75311e-06
1.61837e-06
1.49297e-06
1.37633e-06
1.26787e-06
1.16709e-06
1.07349e-06
9.86632e-07
9.06087e-07
8.31463e-07
7.62385e-07
6.98504e-07
6.39488e-07
5.85027e-07
5.34826e-07
4.88607e-07
4.46108e-07
4.07081e-07
3.71293e-07
3.38525e-07
3.0857e-07
2.81233e-07
2.56332e-07
2.33695e-07
2.13162e-07
1.9458e-07
1.77809e-07
1.62715e-07
1.49174e-07
1.37071e-07
1.26295e-07
1.16742e-07
1.08314e-07
1.00916e-07
9.44601e-08
8.88583e-08
8.40285e-08
7.9891e-08
7.63704e-08
7.3394e-08
7.0895e-08
6.88096e-08
6.70807e-08
6.56545e-08
6.44837e-08
6.3524e-08
6.27365e-08
6.20835e-08
6.153e-08
6.10397e-08
6.05765e-08
6.00986e-08
5.95591e-08
5.88973e-08
5.80419e-08
5.68928e-08
5.5343e-08
5.32112e-08
5.03847e-08
4.6493e-08
4.15582e-08
3.55915e-08
2.3574e-08
1.15023e-05
1.2725e-05
1.40154e-05
1.52162e-05
1.61674e-05
1.67144e-05
1.6797e-05
1.64803e-05
1.5883e-05
1.51078e-05
1.42318e-05
1.33122e-05
1.23861e-05
1.14778e-05
1.06071e-05
9.78914e-06
9.03166e-06
8.33527e-06
7.69673e-06
7.11167e-06
6.57568e-06
6.08439e-06
5.63353e-06
5.21904e-06
4.83725e-06
4.48491e-06
4.15915e-06
3.85748e-06
3.5777e-06
3.31788e-06
3.07634e-06
2.85159e-06
2.64231e-06
2.44735e-06
2.26566e-06
2.09631e-06
1.93845e-06
1.79133e-06
1.65425e-06
1.52656e-06
1.40768e-06
1.29706e-06
1.19419e-06
1.09859e-06
1.00981e-06
9.27444e-07
8.51089e-07
7.80376e-07
7.14953e-07
6.54489e-07
5.9867e-07
5.47199e-07
4.99796e-07
4.56196e-07
4.16148e-07
3.79416e-07
3.45777e-07
3.15021e-07
2.8695e-07
2.6138e-07
2.38133e-07
2.17048e-07
1.97969e-07
1.80753e-07
1.65264e-07
1.51376e-07
1.38971e-07
1.27936e-07
1.18166e-07
1.09559e-07
1.02019e-07
9.54545e-08
8.9775e-08
8.48952e-08
8.07316e-08
7.72054e-08
7.42402e-08
7.17656e-08
6.97148e-08
6.80273e-08
6.66471e-08
6.55244e-08
6.4613e-08
6.38723e-08
6.32632e-08
6.27499e-08
6.2295e-08
6.18614e-08
6.1406e-08
6.08806e-08
6.02227e-08
5.93592e-08
5.81868e-08
5.65967e-08
5.44009e-08
5.14879e-08
4.74753e-08
4.23917e-08
3.62346e-08
2.39912e-08
1.07769e-05
1.18552e-05
1.29695e-05
1.39871e-05
1.48043e-05
1.53133e-05
1.54592e-05
1.52757e-05
1.48431e-05
1.42387e-05
1.35248e-05
1.27506e-05
1.19502e-05
1.11482e-05
1.03652e-05
9.61817e-06
8.91698e-06
8.26466e-06
7.66023e-06
7.10126e-06
6.58499e-06
6.10841e-06
5.66837e-06
5.26165e-06
4.88526e-06
4.53645e-06
4.21279e-06
3.91208e-06
3.63237e-06
3.37196e-06
3.1293e-06
2.90304e-06
2.69196e-06
2.49499e-06
2.31114e-06
2.13954e-06
1.97938e-06
1.82994e-06
1.69055e-06
1.56058e-06
1.43947e-06
1.32667e-06
1.2217e-06
1.12407e-06
1.03336e-06
9.49151e-07