/*--------------------------------*- C++ -*----------------------------------*\
  =========                 |
  \\      /  F ield         | OpenFOAM: The Open Source CFD Toolbox
   \\    /   O peration     | Website:  https://openfoam.org
    \\  /    A nd           | Version:  10
     \\/     M anipulation  |
\*---------------------------------------------------------------------------*/
FoamFile
{
    format      ascii;
    class       volScalarField;
    location    "0.005";
    object      p;
}
// * * * * * * * * * * * * * * * * * * * * * * * * * * * * * * * * * * * * * //

dimensions      [0 2 -2 0 0 0 0];

internalField   nonuniform List<scalar> 
6820
(
13.9346
-0.412782
-2.45787
-2.67111
-2.83561
-2.73548
-2.60506
-2.50244
-2.44039
-2.44138
-2.50996
-2.63257
-2.79049
-2.9697
-3.16432
-3.37449
-3.6033
-3.85456
-4.13194
-4.43896
-4.77946
-5.15816
-5.58104
-6.05583
-6.5925
-7.20418
-7.90853
-8.72989
-9.7047
-10.8814
-12.3708
-14.2277
-17.1202
8.56975
-0.196665
-2.2481
-2.53796
-2.75782
-2.72519
-2.6195
-2.52426
-2.46368
-2.46191
-2.527
-2.64671
-2.80227
-2.9795
-3.17246
-3.38126
-3.60889
-3.85905
-4.13521
-4.44069
-4.77914
-5.15508
-5.57425
-6.04403
-6.57385
-7.17601
-7.86666
-8.66785
-9.61021
-10.7364
-12.1161
-13.8167
-16.0274
6.50956
1.04034
-1.42006
-2.04533
-2.44211
-2.56337
-2.53736
-2.4826
-2.44543
-2.45756
-2.5283
-2.64818
-2.80129
-2.97501
-3.16418
-3.36914
-3.59288
-3.83895
-4.11057
-4.41071
-4.74267
-5.11053
-5.51947
-5.97604
-6.48851
-7.06735
-7.72583
-8.48099
-9.3545
-10.3726
-11.5642
-12.9442
-14.4335
4.95971
1.24511
-1.08711
-1.75428
-2.13877
-2.32172
-2.36079
-2.36395
-2.37516
-2.4159
-2.49841
-2.62011
-2.77098
-2.94237
-3.13023
-3.33436
-3.55657
-3.79968
-4.0666
-4.36017
-4.68351
-5.04031
-5.43515
-5.87363
-6.36259
-6.91038
-7.52696
-8.22433
-9.01528
-9.91353
-10.9223
-12.0391
-13.1606
3.69426
1.22372
-0.749803
-1.44402
-1.85237
-2.10437
-2.21333
-2.26974
-2.31933
-2.38207
-2.47175
-2.59213
-2.74008
-2.9098
-3.09616
-3.29801
-3.51705
-3.7558
-4.01682
-4.30267
-4.61613
-4.96045
-5.33949
-5.75782
-6.2208
-6.7346
-7.30602
-7.94232
-8.64923
-9.43085
-10.2768
-11.174
-12.0242
2.75769
1.12316
-0.538503
-1.25989
-1.67623
-1.95327
-2.09657
-2.18091
-2.25345
-2.33329
-2.43283
-2.55727
-2.70515
-2.87242
-3.0558
-3.25454
-3.46976
-3.70335
-3.95743
-4.23422
-4.53615
-4.86591
-5.22659
-5.62169
-6.05504
-6.5307
-7.0525
-7.62369
-8.24461
-8.91269
-9.61172
-10.3239
-10.9742
2.03436
0.934551
-0.423082
-1.11076
-1.51147
-1.79895
-1.97388
-2.0889
-2.18613
-2.28311
-2.39143
-2.51804
-2.66427
-2.82836
-3.00826
-3.20315
-3.41362
-3.64102
-3.88705
-4.15354
-4.44247
-4.75601
-5.09646
-5.46627
-5.86784
-6.30335
-6.77417
-7.28036
-7.81868
-8.38254
-8.95419
-9.51483
-10.0091
1.47368
0.728956
-0.358007
-0.996733
-1.38588
-1.67823
-1.87367
-2.00859
-2.12129
-2.22962
-2.34474
-2.47401
-2.61981
-2.78145
-2.95751
-3.14757
-3.35204
-3.57193
-3.80855
-4.06335
-4.33783
-4.63354
-4.95202
-5.29472
-5.66274
-6.05665
-6.47586
-6.91814
-7.378
-7.8468
-8.30743
-8.7423
-9.11093
1.0345
0.522047
-0.340814
-0.918092
-1.28628
-1.57091
-1.77567
-1.92499
-2.05093
-2.16979
-2.29144
-2.42307
-2.56794
-2.72648
-2.89829
-3.08304
-3.28092
-3.49259
-3.71897
-3.9611
-4.22001
-4.49672
-4.79205
-5.10656
-5.44028
-5.79249
-6.16115
-6.54253
-6.92998
-7.31419
-7.67966
-8.01105
-8.27835
0.686943
0.328024
-0.351874
-0.861809
-1.20589
-1.48002
-1.68953
-1.84917
-1.98456
-2.11072
-2.2368
-2.36978
-2.5134
-2.66871
-2.83573
-3.01427
-3.20448
-3.40677
-3.62175
-3.85007
-4.09234
-4.34901
-4.62027
-4.90591
-5.2051
-5.51612
-5.83599
-6.16009
-6.48139
-6.79075
-7.07471
-7.32043
-7.5054
0.409677
0.153135
-0.381621
-0.825537
-1.14329
-1.40299
-1.61068
-1.77504
-1.91609
-2.04715
-2.17639
-2.31013
-2.45211
-2.60383
-2.76567
-2.93758
-3.1196
-3.31191
-3.51482
-3.72864
-3.95356
-4.18958
-4.43636
-4.69306
-4.95821
-5.22942
-5.50314
-5.77438
-6.03624
-6.2803
-6.49513
-6.67037
-6.78888
0.187111
-0.000303565
-0.421344
-0.803176
-1.09312
-1.33654
-1.53907
-1.70516
-1.84966
-1.98383
-2.11486
-2.24838
-2.38808
-2.53566
-2.69169
-2.85621
-3.02921
-3.2107
-3.40075
-3.59934
-3.80633
-4.0213
-4.24347
-4.47154
-4.70357
-4.93679
-5.16737
-5.39034
-5.59926
-5.78666
-5.94305
-6.0603
-6.12527
0.00788203
-0.132076
-0.464907
-0.790872
-1.05313
-1.27939
-1.47392
-1.63841
-1.78351
-1.91853
-2.04973
-2.18202
-2.31877
-2.46176
-2.61159
-2.76832
-2.93187
-3.10209
-3.27882
-3.46181
-3.6506
-3.84447
-4.04231
-4.2425
-4.44282
-4.64031
-4.83115
-5.01061
-5.1729
-5.31161
-5.41902
-5.48886
-5.5111
-0.136382
-0.243162
-0.507927
-0.784926
-1.0203
-1.22908
-1.41385
-1.57454
-1.71842
-1.85288
-1.98313
-2.11334
-2.24653
-2.38435
-2.52741
-2.67578
-2.82932
-2.98775
-3.15075
-3.31784
-3.48835
-3.6613
-3.83535
-4.0087
-4.17899
-4.34325
-4.49783
-4.63842
-4.75996
-4.8571
-4.92364
-4.95489
-4.94323
-0.251904
-0.335028
-0.547369
-0.782354
-0.99243
-1.18405
-1.35805
-1.51316
-1.65406
-1.78636
-1.91435
-2.04149
-2.17039
-2.30252
-2.4384
-2.57807
-2.72128
-2.86767
-3.01676
-3.16792
-3.3203
-3.47278
-3.62388
-3.77169
-3.91388
-4.04759
-4.16945
-4.27566
-4.3619
-4.42381
-4.45653
-4.45663
-4.41837
-0.343356
-0.40928
-0.58122
-0.780705
-0.967488
-1.14259
-1.30532
-1.45366
-1.59029
-1.71931
-1.84409
-1.96742
-2.09145
-2.21739
-2.34569
-2.47628
-2.60886
-2.743
-2.8781
-3.01343
-3.14803
-3.28067
-3.40983
-3.53361
-3.64976
-3.75564
-3.84823
-3.92426
-3.98015
-4.01243
-4.01733
-3.99245
-3.93355
-0.414273
-0.467461
-0.608184
-0.778019
-0.943772
-1.10331
-1.25474
-1.39552
-1.52689
-1.65165
-1.77231
-1.89106
-2.00962
-2.12893
-2.2493
-2.37058
-2.4924
-2.61424
-2.73546
-2.85524
-2.97258
-3.08622
-3.19463
-3.29601
-3.38826
-3.46901
-3.53566
-3.58542
-3.61542
-3.62294
-3.60517
-3.56048
-3.48582
-0.467352
-0.510957
-0.627471
-0.772753
-0.919827
-1.06494
-1.20535
-1.33816
-1.46359
-1.58335
-1.69921
-1.81282
-1.92544
-2.03777
-2.14994
-2.26174
-2.37273
-2.48234
-2.58989
-2.69455
-2.79528
-2.89086
-2.97984
-3.06053
-3.13104
-3.1893
-3.23311
-3.26019
-3.26826
-3.25527
-3.21916
-3.15894
-3.07246
-0.504652
-0.540952
-0.638622
-0.763713
-0.894437
-1.02639
-1.1563
-1.28108
-1.40013
-1.51436
-1.6249
-1.73287
-1.83916
-1.94421
-2.04801
-2.15025
-2.25046
-2.34803
-2.44226
-2.53234
-2.61725
-2.69584
-2.76676
-2.82849
-2.87939
-2.91768
-2.94155
-2.94918
-2.93882
-2.90898
-2.85821
-2.78598
-2.69087
-0.527746
-0.558423
-0.641385
-0.749981
-0.866591
-0.986723
-1.10683
-1.2237
-1.33622
-1.44462
-1.54948
-1.65148
-1.75117
-1.84876
-1.94409
-2.0368
-2.12636
-2.21216
-2.29353
-2.36967
-2.43963
-2.50236
-2.55664
-2.60115
-2.63448
-2.65517
-2.66175
-2.65283
-2.62711
-2.58355
-2.5212
-2.43987
-2.33868
-0.537825
-0.564152
-0.635628
-0.730852
-0.835454
-0.945148
-1.05629
-1.16562
-1.27165
-1.37409
-1.47307
-1.5689
-1.66182
-1.75185
-1.83872
-1.92199
-2.00113
-2.07555
-2.14459
-2.20751
-2.26347
-2.31151
-2.35057
-2.37955
-2.39726
-2.40254
-2.39426
-2.37136
-2.33294
-2.27833
-2.20695
-2.11889
-2.01367
-0.535726
-0.558725
-0.621275
-0.705779
-0.800345
-0.901004
-1.00412
-1.10644
-1.20621
-1.30274
-1.39581
-1.48539
-1.5715
-1.65397
-1.73246
-1.80649
-1.87553
-1.939
-1.99632
-2.04682
-2.08974
-2.12428
-2.14954
-2.1646
-2.16853
-2.16042
-2.13943
-2.10482
-2.056
-1.99259
-1.91432
-1.82144
-1.71382
-0.522098
-0.542533
-0.598245
-0.674324
-0.760709
-0.853755
-0.949896
-1.04589
-1.13981
-1.23065
-1.3179
-1.4013
-1.48064
-1.55566
-1.62594
-1.69099
-1.7503
-1.80335
-1.8496
-1.88849
-1.91938
-1.94158
-1.95439
-1.95707
-1.94891
-1.92924
-1.89747
-1.85313
-1.79588
-1.72557
-1.64216
-1.54603
-1.43725
-0.497255
-0.515796
-0.56643
-0.636111
-0.716072
-0.802943
-0.89323
-0.98371
-1.07232
-1.15784
-1.23952
-1.3169
-1.38966
-1.45741
-1.51973
-1.57615
-1.62618
-1.66937
-1.70526
-1.73338
-1.75321
-1.76424
-1.76588
-1.75761
-1.73891
-1.70933
-1.66849
-1.61613
-1.55212
-1.47649
-1.38938
-1.29123
-1.1823
-0.461315
-0.478547
-0.525657
-0.590815
-0.666094
-0.748306
-0.833999
-0.919942
-1.00396
-1.08467
-1.16114
-1.23279
-1.29919
-1.35993
-1.4146
-1.46275
-1.50397
-1.53788
-1.56412
-1.5823
-1.59206
-1.59299
-1.58469
-1.56679
-1.53896
-1.50092
-1.45249
-1.39358
-1.32423
-1.24459
-1.15494
-1.05575
-0.947421
-0.41413
-0.430592
-0.475619
-0.538027
-0.610324
-0.689392
-0.771777
-0.854221
-0.934462
-1.01099
-1.08276
-1.14909
-1.20951
-1.26362
-1.31103
-1.35139
-1.38435
-1.40961
-1.42692
-1.43601
-1.43662
-1.4285
-1.41138
-1.38506
-1.34934
-1.30414
-1.24941
-1.1852
-1.11169
-1.02912
-0.937851
-0.838397
-0.731228
-0.355278
-0.371528
-0.415969
-0.477546
-0.548815
-0.626589
-0.70731
-0.787604
-0.865103
-0.938203
-1.0058
-1.0672
-1.12194
-1.16971
-1.2102
-1.24315
-1.26832
-1.28551
-1.29457
-1.29533
-1.28767
-1.27144
-1.24653
-1.21285
-1.17037
-1.11912
-1.05918
-0.990733
-0.914023
-0.82939
-0.737249
-0.638112
-0.532511
-0.283967
-0.300544
-0.345866
-0.40842
-0.480405
-0.55848
-0.638954
-0.718331
-0.794157
-0.864765
-0.929012
-0.986192
-1.03591
-1.07794
-1.1121
-1.13825
-1.15627
-1.16606
-1.16759
-1.16082
-1.14572
-1.12228
-1.09051
-1.05044
-1.00217
-0.945824
-0.881605
-0.809774
-0.730658
-0.644647
-0.552197
-0.453809
-0.350059
-0.19903
-0.216754
-0.265099
-0.331448
-0.407128
-0.488365
-0.571069
-0.65144
-0.7269
-0.795794
-0.857073
-0.910181
-0.954912
-0.991233
-1.01916
-1.03869
-1.04986
-1.05268
-1.04722
-1.03353
-1.0117
-0.981819
-0.943991
-0.898364
-0.845121
-0.784493
-0.71676
-0.642253
-0.561358
-0.474499
-0.382162
-0.284825
-0.183094
-0.0984841
-0.117829
-0.170713
-0.242518
-0.323332
-0.409116
-0.49552
-0.578449
-0.655168
-0.723969
-0.783819
-0.83426
-0.875254
-0.906973
-0.929634
-0.943438
-0.948565
-0.945186
-0.933476
-0.913615
-0.885787
-0.850188
-0.807028
-0.756547
-0.699017
-0.634748
-0.564092
-0.487438
-0.405216
-0.317878
-0.225928
-0.129825
-0.0301968
0.0198267
-0.00333478
-0.0657436
-0.149246
-0.241343
-0.336956
-0.430926
-0.518687
-0.597536
-0.66607
-0.723662
-0.770304
-0.806406
-0.832527
-0.84919
-0.856813
-0.855725
-0.846199
-0.828488
-0.80284
-0.769507
-0.728751
-0.680851
-0.626114
-0.564878
-0.497515
-0.424429
-0.346057
-0.262862
-0.175317
-0.0839393
0.010837
0.108371
0.161221
0.135306
0.0636564
-0.0309912
-0.134113
-0.240614
-0.34458
-0.440514
-0.525282
-0.597398
-0.656356
-0.702439
-0.736428
-0.759259
-0.771795
-0.774741
-0.768648
-0.753964
-0.731079
-0.70035
-0.662126
-0.616754
-0.564593
-0.506018
-0.441435
-0.371271
-0.295986
-0.216057
-0.131986
-0.0442683
0.0465558
0.140061
0.235583
0.327326
0.289153
0.191887
0.0695267
-0.0573904
-0.182862
-0.300397
-0.404401
-0.492435
-0.56395
-0.619427
-0.660137
-0.687731
-0.703796
-0.709613
-0.706111
-0.69393
-0.673539
-0.645322
-0.609629
-0.56681
-0.517223
-0.461248
-0.399291
-0.331788
-0.259205
-0.182036
-0.100792
-0.0160077
0.0717967
0.162061
0.254373
0.348046
0.538087
0.500257
0.388534
0.245612
0.095076
-0.0558236
-0.196868
-0.319916
-0.42194
-0.502621
-0.563104
-0.605572
-0.632554
-0.646379
-0.648906
-0.641483
-0.625046
-0.600261
-0.567646
-0.527643
-0.480669
-0.42714
-0.367484
-0.302153
-0.231624
-0.156409
-0.0770444
0.00590897
0.091864
0.180247
0.270436
0.361972
0.454092
0.775656
0.690442
0.510898
0.315184
0.129046
-0.0473378
-0.204749
-0.335483
-0.438032
-0.513664
-0.565366
-0.597293
-0.613534
-0.617391
-0.611163
-0.596243
-0.573404
-0.543095
-0.505635
-0.461321
-0.410469
-0.353434
-0.29061
-0.222435
-0.149387
-0.0719859
0.00921932
0.0936471
0.180673
0.269678
0.359972
0.451063
0.542079
1.14824
1.08593
0.871114
0.614725
0.360631
0.119493
-0.0901184
-0.258548
-0.385875
-0.475698
-0.533925
-0.567446
-0.58228
-0.583109
-0.573094
-0.554094
-0.527145
-0.492818
-0.451462
-0.403366
-0.34883
-0.288196
-0.22185
-0.150225
-0.0738067
0.00686382
0.0911985
0.178549
0.268196
0.359384
0.451244
0.543042
0.633614
1.45465
1.20944
0.868922
0.576878
0.302131
0.0376933
-0.187302
-0.361006
-0.483264
-0.558043
-0.595178
-0.606714
-0.601762
-0.586656
-0.564758
-0.537106
-0.503705
-0.464331
-0.418822
-0.367153
-0.309439
-0.24591
-0.17689
-0.102772
-0.0240207
0.0588393
0.145336
0.23494
0.326996
0.420694
0.515106
0.609235
0.701584
2.43413
2.16362
1.56044
1.03762
0.581848
0.181836
-0.130904
-0.35518
-0.501436
-0.582318
-0.615515
-0.619483
-0.605644
-0.582584
-0.553992
-0.520915
-0.483267
-0.440471
-0.391972
-0.337465
-0.276885
-0.210334
-0.138024
-0.0602404
0.0226973
0.1103
0.201965
0.297106
0.395047
0.49476
0.595103
0.694075
0.78955
2.34161
1.77255
1.30564
0.917537
0.439729
-0.0162206
-0.376456
-0.626287
-0.759216
-0.794679
-0.773924
-0.734488
-0.682644
-0.632205
-0.585922
-0.541511
-0.496298
-0.448123
-0.39548
-0.337512
-0.273866
-0.204503
-0.129604
-0.0494424
0.0356328
0.124625
0.21779
0.316065
0.419485
0.526902
0.639528
0.753054
0.876269
7.11131
3.4147
2.03625
1.3129
0.484347
-0.177465
-0.62999
-0.919447
-1.05529
-1.06164
-0.988153
-0.881036
-0.780551
-0.691724
-0.616937
-0.55442
-0.499306
-0.446525
-0.392056
-0.333276
-0.268818
-0.198145
-0.12111
-0.0377604
0.0519098
0.148606
0.251896
0.360666
0.475852
0.597371
0.727908
0.862153
1.01588
-20.1289
-17.1389
-22.3726
-28.1956
-27.9356
-22.2481
-15.1876
-9.38526
-5.20133
-2.19967
-0.0267163
1.55627
2.72529
3.59976
4.26062
4.76422
5.14987
5.44547
5.67121
5.84201
5.9691
6.06105
6.12451
6.16472
6.18586
6.19128
6.18373
6.16544
6.13826
6.10373
6.06311
6.01747
5.96767
5.91447
5.85846
5.80017
5.73999
5.67828
5.61532
5.55133
5.48649
5.42095
5.35481
5.28816
5.22106
5.15353
5.08561
5.01731
4.94861
4.87951
4.80999
4.74002
4.66956
4.59859
4.52706
4.45493
4.38217
4.30871
4.23453
4.15957
4.08379
4.00714
3.92958
3.85106
3.77155
3.69099
3.60935
3.52657
3.44263
3.35748
3.27108
3.1834
3.09438
3.00401
2.91223
2.81902
2.72434
2.62815
2.53042
2.43111
2.3302
2.22764
2.12341
2.01747
1.90979
1.80034
1.68908
1.57599
1.46104
1.34419
1.22541
1.10469
0.981997
0.857332
0.730626
0.602031
0.471226
0.339025
0.203792
0.0694447
-18.425
-17.0629
-19.9308
-23.3919
-22.8685
-18.6323
-13.2228
-8.47597
-4.83285
-2.10239
-0.0637142
1.4574
2.60077
3.46752
4.12953
4.63846
5.03128
5.33465
5.5682
5.74653
5.88075
5.97936
6.04902
6.09498
6.12145
6.1318
6.12881
6.11475
6.09148
6.06056
6.02328
5.98072
5.93379
5.88323
5.82967
5.77362
5.71554
5.65575
5.59457
5.53223
5.46891
5.40477
5.33992
5.27446
5.20846
5.14195
5.07496
5.00752
4.93961
4.87124
4.80239
4.73303
4.66314
4.59269
4.52164
4.44995
4.37758
4.30449
4.23064
4.15599
4.08049
4.0041
3.92677
3.84847
3.76914
3.68876
3.60727
3.52464
3.44083
3.3558
3.26951
3.18192
3.09299
3.00269
2.91099
2.81784
2.72322
2.62708
2.5294
2.43014
2.32926
2.22674
2.12254
2.01664
1.90899
1.79956
1.68834
1.57527
1.46034
1.34352
1.22478
1.10409
0.981436
0.856815
0.73016
0.601625
0.470894
0.33877
0.20365
0.0693668
-16.1337
-15.8692
-17.4828
-19.5995
-19.0448
-15.7729
-11.5215
-7.61222
-4.44745
-1.97652
-0.0759585
1.37588
2.48715
3.34151
4.00151
4.51374
4.91241
5.22278
5.46365
5.64926
5.79046
5.8957
5.97158
6.02334
6.0552
6.07057
6.07223
6.06248
6.04321
6.01599
5.98214
5.94276
5.89877
5.85092
5.79988
5.74617
5.69023
5.63244
5.5731
5.51245
5.4507
5.38801
5.3245
5.26028
5.19541
5.12996
5.06394
4.99739
4.93031
4.86269
4.79454
4.72582
4.65652
4.5866
4.51605
4.44481
4.37286
4.30015
4.22665
4.15231
4.0771
4.00097
3.92389
3.8458
3.76668
3.68648
3.60515
3.52267
3.439
3.35409
3.26791
3.18042
3.09158
3.00137
2.90973
2.81665
2.72209
2.62601
2.52837
2.42916
2.32832
2.22584
2.12168
2.0158
1.90818
1.79879
1.68759
1.57455
1.45965
1.34286
1.22415
1.1035
0.98088
0.856303
0.729701
0.601225
0.470568
0.33852
0.20351
0.0692906
-14.4493
-14.7122
-15.6033
-16.6922
-16.0196
-13.4247
-10.0406
-6.80025
-4.05249
-1.8267
-0.0653146
1.3118
2.38541
3.22296
3.87776
4.39109
4.79416
5.11056
5.35815
5.55065
5.69863
5.81037
5.89242
5.94999
5.98728
6.00771
6.01409
6.00872
5.99352
5.97008
5.93974
5.90362
5.86263
5.81758
5.76913
5.71781
5.66409
5.60834
5.5509
5.492
5.43188
5.37068
5.30856
5.24561
5.18193
5.11756
5.05254
4.98691
4.92068
4.85385
4.78642
4.71836
4.64967
4.58032
4.51028
4.43951
4.36799
4.29568
4.22254
4.14853
4.07362
3.99777
3.92093
3.84307
3.76416
3.68414
3.60299
3.52067
3.43713
3.35235
3.26628
3.17889
3.09015
3.00002
2.90847
2.81546
2.72095
2.62493
2.52735
2.42818
2.32738
2.22494
2.12081
2.01497
1.90738
1.79802
1.68685
1.57384
1.45897
1.34221
1.22353
1.10291
0.980331
0.855799
0.729248
0.600832
0.470248
0.338275
0.203374
0.0692162
-12.9578
-13.3349
-13.8051
-14.2786
-13.5751
-11.4873
-8.7528
-6.04548
-3.65846
-1.65963
-0.0347613
1.26437
2.29584
3.11258
3.75908
4.27124
4.67714
4.99848
5.25208
5.451
5.60546
5.72354
5.81167
5.87501
5.91774
5.94327
5.95441
5.95349
5.94243
5.92284
5.89608
5.86328
5.82538
5.7832
5.73739
5.68853
5.63709
5.58346
5.52796
5.47088
5.41242
5.35278
5.29208
5.23046
5.16799
5.10474
5.04077
4.97609
4.91075
4.84473
4.77804
4.71067
4.64261
4.57384
4.50433
4.43405
4.36298
4.29107
4.21831
4.14464
4.07005
3.99448
3.9179
3.84028
3.76158
3.68176
3.60078
3.51862
3.43523
3.35058
3.26463
3.17735
3.08871
2.99866
2.90719
2.81425
2.71981
2.62384
2.52632
2.42719
2.32645
2.22404
2.11995
2.01414
1.90659
1.79725
1.68611
1.57313
1.45829
1.34156
1.22291
1.10233
0.979791
0.855302
0.728804
0.600446
0.469935
0.338035
0.203241
0.0691439
-11.6609
-12.0305
-12.26
-12.3395
-11.5985
-9.87018
-7.62703
-5.34777
-3.27105
-1.47991
0.0131063
1.23271
2.21858
3.01102
3.64627
4.155
4.56206
4.88718
5.14596
5.35074
5.51131
5.6355
5.72956
5.79859
5.84673
5.87736
5.8933
5.89686
5.88999
5.87432
5.8512
5.82178
5.78704
5.74778
5.70469
5.65835
5.60925
5.55778
5.5043
5.44907
5.39234
5.33429
5.27507
5.2148
5.15359
5.09151
5.02861
4.96492
4.90049
4.83531
4.76939
4.70274
4.63533
4.56716
4.4982
4.42843
4.35782
4.28634
4.21396
4.14066
4.06638
3.99111
3.9148
3.83742
3.75894
3.67933
3.59854
3.51654
3.4333
3.34878
3.26296
3.17579
3.08725
2.9973
2.9059
2.81304
2.71867
2.62276
2.52528
2.42621
2.32551
2.22315
2.11909
2.01332
1.9058
1.7965
1.68538
1.57244
1.45762
1.34092
1.22231
1.10176
0.97926
0.854816
0.728369
0.600069
0.46963
0.337801
0.20311
0.0690742
-10.5041
-10.7889
-10.8499
-10.6944
-9.95401
-8.50366
-6.64035
-4.70628
-2.89529
-1.29224
0.0753997
1.21558
2.15347
2.91865
3.53995
4.04305
4.44958
4.77721
5.04026
5.25026
5.4165
5.54648
5.64629
5.7209
5.77438
5.81009
5.83082
5.83889
5.83626
5.82454
5.80511
5.77914
5.74761
5.71134
5.67103
5.62727
5.58056
5.53132
5.4799
5.42659
5.37163
5.31521
5.25751
5.19865
5.13874
5.07786
5.01606
4.9534
4.88991
4.8256
4.76048
4.69456
4.62784
4.56029
4.4919
4.42265
4.35252
4.28148
4.20951
4.13656
4.06262
3.98766
3.91163
3.83451
3.75626
3.67685
3.59625
3.51442
3.43134
3.34697
3.26127
3.17422
3.08578
2.99592
2.90461
2.81182
2.71752
2.62167
2.52426
2.42523
2.32458
2.22226
2.11824
2.01251
1.90502
1.79575
1.68467
1.57175
1.45697
1.3403
1.22171
1.1012
0.97874
0.85434
0.727944
0.599702
0.469333
0.337574
0.202984
0.0690072
-9.45947
-9.64952
-9.60066
-9.31217
-8.58612
-7.34287
-5.77247
-4.11827
-2.53446
-1.10032
0.14951
1.21162
2.10011
2.83569
3.44062
3.93599
4.34029
4.66913
4.93548
5.14998
5.32137
5.45679
5.5621
5.64212
5.70084
5.74158
5.76709
5.77968
5.78129
5.77356
5.75788
5.7354
5.70713
5.6739
5.63642
5.5953
5.55105
5.50409
5.45478
5.40343
5.35029
5.29556
5.23942
5.18201
5.12343
5.06378
5.00313
4.94153
4.87901
4.81559
4.75131
4.68615
4.62012
4.55321
4.48541
4.41671
4.34707
4.27649
4.20493
4.13237
4.05878
3.98413
3.90839
3.83153
3.75352
3.67433
3.59392
3.51228
3.42935
3.34513
3.25956
3.17263
3.08429
2.99453
2.90331
2.8106
2.71637
2.62059
2.52323
2.42426
2.32365
2.22138
2.1174
2.0117
1.90425
1.79501
1.68396
1.57107
1.45632
1.33968
1.22113
1.10066
0.978233
0.853877
0.727532
0.599346
0.469045
0.337355
0.202861
0.0689432
-8.51221
-8.61133
-8.48249
-8.12032
-7.42281
-6.34393
-5.00564
-3.58051
-2.19072
-0.907311
0.232919
1.21937
2.05791
2.76212
3.34862
3.83432
4.23474
4.56347
4.83209
5.05032
5.22629
5.36673
5.47724
5.56247
5.6263
5.67198
5.70221
5.7193
5.72517
5.72145
5.70954
5.6906
5.66563
5.63549
5.6009
5.56247
5.52072
5.47608
5.42894
5.3796
5.32833
5.27533
5.2208
5.16487
5.10767
5.0493
4.98982
4.9293
4.86778
4.8053
4.74186
4.67749
4.61218
4.54594
4.47875
4.41061
4.34149
4.27138
4.20025
4.12808
4.05484
3.98052
3.90508
3.82849
3.75073
3.67176
3.59156
3.5101
3.42734
3.34327
3.25784
3.17103
3.08281
2.99314
2.90201
2.80938
2.71523
2.61951
2.52221
2.4233
2.32274
2.2205
2.11657
2.01091
1.90349
1.79428
1.68327
1.57041
1.45569
1.33908
1.22057
1.10013
0.977741
0.853428
0.727132
0.599001
0.468767
0.337144
0.202743
0.0688827
-7.64895
-7.67095
-7.48701
-7.09007
-6.42901
-5.48079
-4.32653
-3.08939
-1.8653
-0.715754
0.323355
1.23732
2.02614
2.69779
3.26416
3.73844
4.13342
4.46073
4.73057
4.95171
5.13163
5.27662
5.39198
5.48217
5.55094
5.60144
5.63633
5.65788
5.66799
5.66828
5.66015
5.64478
5.62316
5.59615
5.56448
5.52879
5.48958
5.44733
5.4024
5.35512
5.30575
5.25453
5.20164
5.14724
5.09146
5.03439
4.97613
4.91673
4.85625
4.79471
4.73216
4.6686
4.60403
4.53848
4.47192
4.40435
4.33576
4.26613
4.19545
4.12369
4.05083
3.97684
3.90171
3.8254
3.74789
3.66916
3.58917
3.50789
3.42531
3.34139
3.2561
3.16942
3.08131
2.99175
2.90072
2.80817
2.71409
2.61844
2.5212
2.42234
2.32183
2.21965
2.11575
2.01013
1.90275
1.79357
1.68259
1.56976
1.45508
1.3385
1.22002
1.09961
0.977265
0.852995
0.726748
0.59867
0.4685
0.336941
0.202628
0.0688258
-6.8614
-6.82111
-6.59899
-6.18922
-5.56821
-4.72726
-3.7221
-2.64093
-1.55868
-0.527647
0.41879
1.26399
2.00395
2.64239
3.18729
3.64864
4.03673
4.36135
4.63134
4.85455
5.03775
5.18678
5.30661
5.40147
5.47496
5.53014
5.56959
5.59553
5.60984
5.61414
5.6098
5.59801
5.57975
5.55591
5.52721
5.49429
5.45768
5.41784
5.37517
5.32999
5.28258
5.23317
5.18197
5.12914
5.07481
5.01908
4.96206
4.90382
4.8444
4.78384
4.72219
4.65947
4.59567
4.53082
4.46491
4.39794
4.3299
4.26077
4.19055
4.1192
4.04673
3.97309
3.89827
3.82226
3.74501
3.66651
3.58674
3.50566
3.42326
3.3395
3.25436
3.1678
3.07981
2.99036
2.89942
2.80696
2.71296
2.61738
2.5202
2.4214
2.32094
2.2188
2.11495
2.00937
1.90202
1.79288
1.68193
1.56914
1.45448
1.33794
1.21949
1.09912
0.976808
0.852579
0.726379
0.598354
0.468245
0.336749
0.202519
0.0687729
-6.14199
-6.05332
-5.80629
-5.39754
-4.81776
-4.06625
-3.18286
-2.2316
-1.2709
-0.344529
0.517445
1.29795
1.99045
2.59549
3.11796
3.56509
3.94499
4.2657
4.53482
4.75922
4.94501
5.09753
5.2214
5.32061
5.39858
5.45825
5.50213
5.53238
5.55085
5.55912
5.55857
5.55035
5.53548
5.51483
5.48912
5.45901
5.42503
5.38765
5.34727
5.30423
5.25882
5.21127
5.1618
5.11056
5.05772
5.00338
4.94763
4.89057
4.83224
4.7727
4.71198
4.65011
4.58711
4.52298
4.45774
4.39139
4.32391
4.2553
4.18554
4.11463
4.04255
3.96927
3.89478
3.81906
3.74209
3.66384
3.58429
3.50342
3.42119
3.3376
3.2526
3.16619
3.07832
2.98898
2.89813
2.80576
2.71184
2.61633
2.51922
2.42047
2.32007
2.21798
2.11417
2.00863
1.90132
1.79221
1.6813
1.56853
1.45391
1.3374
1.21898
1.09864
0.976371
0.852183
0.726029
0.598054
0.468004
0.336567
0.202415
0.0687244
-5.48441
-5.35933
-5.09724
-4.69739
-4.15788
-3.48214
-2.69972
-1.85768
-1.0015
-0.167512
0.617804
1.33786
1.98469
2.55658
3.05599
3.48788
3.85842
4.17413
4.44137
4.66611
4.85377
5.0092
5.13666
5.23985
5.32203
5.38599
5.43414
5.46859
5.49114
5.50333
5.50653
5.50189
5.49041
5.47296
5.45027
5.42299
5.39168
5.35679
5.31874
5.27788
5.2345
5.18884
5.14113
5.09154
5.04021
4.98728
4.93285
4.87699
4.81978
4.76128
4.70152
4.64053
4.57834
4.51496
4.45041
4.38469
4.31779
4.24971
4.18044
4.10997
4.03829
3.96539
3.89124
3.81583
3.73913
3.66114
3.58182
3.50115
3.41912
3.33569
3.25085
3.16457
3.07683
2.9876
2.89686
2.80458
2.71073
2.6153
2.51826
2.41957
2.31922
2.21718
2.11342
2.00791
1.90064
1.79157
1.68068
1.56795
1.45336
1.33688
1.21849
1.09819
0.975958
0.851809
0.725699
0.597771
0.467777
0.336397
0.202317
0.0686806
-4.88307
-4.73139
-4.46166
-4.07533
-3.57422
-2.96349
-2.26569
-1.51599
-0.749921
0.00259743
0.718575
1.3825
1.98574
2.52508
3.00112
3.41699
3.77719
4.08688
4.35129
4.57553
4.76436
4.92211
5.05266
5.15946
5.24553
5.31354
5.3658
5.40431
5.43084
5.44689
5.45381
5.45272
5.44462
5.43037
5.41071
5.38629
5.35766
5.3253
5.28961
5.25096
5.20964
5.16592
5.12
5.07208
5.02231
4.97082
4.91772
4.86311
4.80705
4.7496
4.69082
4.63074
4.56938
4.50677
4.44293
4.37785
4.31155
4.24401
4.17525
4.10524
4.03398
3.96145
3.88765
3.81255
3.73615
3.65841
3.57933
3.49887
3.41703
3.33378
3.2491
3.16296
3.07535
2.98624
2.8956
2.80341
2.70965
2.61429
2.51731
2.41869
2.31839
2.2164
2.11268
2.00722
1.89999
1.79095
1.6801
1.5674
1.45284
1.33639
1.21804
1.09777
0.97557
0.851459
0.72539
0.597509
0.467566
0.33624
0.202225
0.0686419
-4.3328
-4.1624
-3.89051
-3.52018
-3.05498
-2.50052
-1.87442
-1.20341
-0.515318
0.165297
0.818703
1.43074
1.99268
2.50036
2.95301
3.35231
3.70138
4.00415
4.26486
4.4878
4.67708
4.83654
4.96969
5.07968
5.16933
5.24113
5.29728
5.33971
5.3701
5.38993
5.4005
5.40292
5.39819
5.38713
5.37051
5.34896
5.32303
5.29322
5.25992
5.22351
5.18429
5.14252
5.09842
5.0522
5.00402
4.954
4.90227
4.84892
4.79404
4.73768
4.6799
4.62074
4.56024
4.49842
4.4353
4.37089
4.3052
4.23822
4.16997
4.10043
4.0296
3.95746
3.88402
3.80925
3.73313
3.65566
3.57682
3.49659
3.41495
3.33188
3.24736
3.16137
3.07388
2.98489
2.89436
2.80226
2.70859
2.61331
2.5164
2.41784
2.3176
2.21565
2.11198
2.00656
1.89937
1.79037
1.67955
1.56688
1.45235
1.33593
1.21761
1.09738
0.97521
0.851135
0.725106
0.597267
0.467372
0.336096
0.202139
0.0686088
-3.82904
-3.64612
-3.37602
-3.02286
-2.59091
-2.08555
-1.52078
-0.917235
-0.296848
0.320273
0.917314
1.48158
2.00463
2.48176
2.91127
3.29368
3.63098
3.92607
4.18228
4.40317
4.59222
4.7528
4.88803
5.00079
5.09366
5.16897
5.22879
5.27495
5.30908
5.33259
5.34674
5.35262
5.35121
5.34334
5.32975
5.31107
5.28786
5.2606
5.22972
5.19556
5.15846
5.11868
5.07644
5.03195
4.98537
4.93685
4.88652
4.83446
4.78077
4.72553
4.66877
4.61057
4.55094
4.48992
4.42754
4.36382
4.29875
4.23235
4.16462
4.09556
4.02517
3.95343
3.88035
3.80591
3.7301
3.65291
3.57432
3.49431
3.41287
3.32998
3.24563
3.15979
3.07244
2.98356
2.89314
2.80114
2.70756
2.61236
2.51552
2.41702
2.31683
2.21494
2.11132
2.00594
1.89878
1.78982
1.67903
1.5664
1.4519
1.33551
1.21722
1.09702
0.974881
0.850841
0.724849
0.59705
0.467197
0.335968
0.202061
0.0685817
-3.36753
-3.17692
-2.91144
-2.57581
-2.17441
-1.71215
-1.20028
-0.65495
-0.0935726
0.467399
1.01372
1.53416
2.02077
2.46864
2.87545
3.24085
3.56593
3.8527
4.10372
4.32185
4.51002
4.67113
4.80795
4.92304
5.01877
5.09729
5.16054
5.21024
5.24794
5.275
5.29265
5.30193
5.30381
5.29909
5.28851
5.27269
5.2522
5.22751
5.19905
5.16718
5.13222
5.09444
5.05408
5.01134
4.9664
4.91941
4.87049
4.81975
4.76728
4.71316
4.65746
4.60022
4.54148
4.48129
4.41967
4.35664
4.29221
4.2264
4.15921
4.09064
4.02069
3.94937
3.87666
3.80256
3.72706
3.65015
3.57181
3.49204
3.41081
3.32811
3.24392
3.15823
3.07102
2.98227
2.89195
2.80006
2.70656
2.61144
2.51467
2.41624
2.31611
2.21427
2.11069
2.00536
1.89824
1.78931
1.67856
1.56596
1.45149
1.33513
1.21687
1.09669
0.974587
0.850579
0.72462
0.596858
0.467044
0.335856
0.201991
0.0685611
-2.9445
-2.74992
-2.491
-2.17271
-1.7993
-1.37507
-0.909151
-0.414353
0.09541
0.60666
1.10737
1.5877
2.04032
2.46035
2.84508
3.19355
3.50611
3.78406
4.02929
4.24402
4.4307
4.59179
4.72968
4.84666
4.94488
5.0263
5.09271
5.14575
5.18685
5.21734
5.23838
5.25098
5.25608
5.25447
5.24687
5.23391
5.21613
5.19401
5.16798
5.1384
5.1056
5.06984
5.03138
4.99042
4.94713
4.90169
4.8542
4.8048
4.75358
4.70061
4.64597
4.58972
4.53189
4.47254
4.41169
4.34937
4.2856
4.22038
4.15374
4.08568
4.01619
3.94529
3.87296
3.79921
3.72402
3.6474
3.56932
3.48978
3.40876
3.32625
3.24224
3.15671
3.06963
2.98101
2.89081
2.79901
2.7056
2.61056
2.51387
2.4155
2.31543
2.21364
2.11011
2.00482
1.89774
1.78885
1.67813
1.56556
1.45112
1.33479
1.21655
1.09641
0.974331
0.850352
0.724424
0.596694
0.466912
0.335762
0.201929
0.0685476
-2.55649
-2.36076
-2.10968
-1.80826
-1.46042
-1.0699
-0.644152
-0.193454
0.271
0.738144
1.19784
1.64154
2.06259
2.45627
2.81968
3.15143
3.45134
3.7201
3.95902
4.16982
4.35445
4.51497
4.65345
4.7719
4.87223
4.95622
5.02554
5.08167
5.126
5.15977
5.18407
5.19991
5.20816
5.20961
5.20496
5.19482
5.17974
5.16018
5.13659
5.10931
5.07867
5.04495
5.0084
4.96923
4.92762
4.88373
4.83771
4.78966
4.7397
4.6879
4.63434
4.57909
4.52219
4.46369
4.40363
4.34203
4.27892
4.21432
4.14824
4.08069
4.01167
3.94119
3.86926
3.79586
3.72099
3.64466
3.56685
3.48754
3.40674
3.32443
3.24059
3.15522
3.06829
2.97979
2.8897
2.79801
2.70469
2.60973
2.51311
2.41481
2.3148
2.21306
2.10958
2.00433
1.89729
1.78843
1.67775
1.56521
1.45079
1.33449
1.21628
1.09616
0.974116
0.850164
0.724263
0.596561
0.466806
0.335688
0.201877
0.0685417
-2.20044
-2.00566
-1.76323
-1.47798
-1.1535
-0.792959
-0.402522
0.00950385
0.434047
0.861997
1.28483
1.69512
2.08692
2.45579
2.79875
3.11416
3.40141
3.66073
3.89295
4.09933
4.28141
4.44088
4.57948
4.69897
4.80103
4.88728
4.95921
5.01821
5.06557
5.10245
5.12989
5.14885
5.16017
5.16462
5.16287
5.15552
5.14311
5.12611
5.10494
5.07995
5.05148
5.01981
4.98518
4.94782
4.9079
4.86559
4.82104
4.77436
4.72567
4.67506
4.6226
4.56836
4.5124
4.45477
4.39551
4.33465
4.27221
4.20823
4.14272
4.07568
4.00714
3.9371
3.86556
3.79252
3.71799
3.64195
3.5644
3.48534
3.40476
3.32265
3.23899
3.15377
3.06699
2.97862
2.88865
2.79706
2.70384
2.60896
2.51241
2.41417
2.31422
2.21254
2.1091
2.00389
1.89689
1.78807
1.67742
1.56491
1.45052
1.33425
1.21607
1.09597
0.973947
0.850019
0.72414
0.596462
0.466727
0.335635
0.201836
0.068544
-1.87354
-1.68128
-1.44792
-1.17806
-0.874893
-0.541133
-0.181881
0.196081
0.585353
0.978412
1.36808
1.74796
2.11275
2.45834
2.78181
3.08134
3.35605
3.6058
3.83103
4.0326
4.21168
4.36965
4.50794
4.62807
4.7315
4.81967
4.89393
4.95557
5.00575
5.04556
5.076
5.09796
5.11226
5.11963
5.12072
5.11613
5.10636
5.09189
5.07312
5.05043
5.02413
4.9945
4.9618
4.92624
4.88802
4.8473
4.80423
4.75894
4.71154
4.66212
4.61077
4.55756
4.50256
4.4458
4.38735
4.32723
4.26548
4.20213
4.13719
4.07069
4.00263
3.93303
3.86189
3.78922
3.71501
3.63927
3.562
3.48319
3.40283
3.32092
3.23744
3.15239
3.06575
2.97751
2.88765
2.79617
2.70304
2.60825
2.51177
2.4136
2.31371
2.21208
2.10869
2.00352
1.89656
1.78777
1.67715
1.56467
1.45031
1.33406
1.2159
1.09583
0.973828
0.84992
0.72406
0.596399
0.466678
0.335606
0.201806
0.0685554
-1.57333
-1.38471
-1.16059
-0.905264
-0.621552
-0.311775
0.0198201
0.367657
0.725663
1.0876
1.44743
1.79964
2.13955
2.4634