/*--------------------------------*- C++ -*----------------------------------*\
  =========                 |
  \\      /  F ield         | OpenFOAM: The Open Source CFD Toolbox
   \\    /   O peration     | Website:  https://openfoam.org
    \\  /    A nd           | Version:  10
     \\/     M anipulation  |
\*---------------------------------------------------------------------------*/
FoamFile
{
    format      ascii;
    class       surfaceScalarField;
    location    "0.005";
    object      phi;
}
// * * * * * * * * * * * * * * * * * * * * * * * * * * * * * * * * * * * * * //

dimensions      [0 3 -1 0 0 0 0];

internalField   nonuniform List<scalar> 
13452
(
4.02469e-05
2.00216e-05
2.61085e-05
1.41384e-05
1.88886e-05
7.21989e-06
1.57729e-05
3.11571e-06
1.47204e-05
1.05251e-06
1.45044e-05
2.15988e-07
1.46454e-05
-1.41036e-07
1.49257e-05
-2.80231e-07
1.52313e-05
-3.05677e-07
1.55117e-05
-2.80395e-07
1.57585e-05
-2.46712e-07
1.59878e-05
-2.29357e-07
1.62215e-05
-2.33654e-07
1.64751e-05
-2.53601e-07
1.6756e-05
-2.8096e-07
1.70668e-05
-3.10787e-07
1.74087e-05
-3.41909e-07
1.77841e-05
-3.754e-07
1.81973e-05
-4.1322e-07
1.86548e-05
-4.57465e-07
1.9165e-05
-5.10201e-07
1.97387e-05
-5.73669e-07
2.03893e-05
-6.50634e-07
2.11341e-05
-7.4477e-07
2.19953e-05
-8.61171e-07
2.30022e-05
-1.00691e-06
2.4195e-05
-1.19278e-06
2.56283e-05
-1.43331e-06
2.73871e-05
-1.75885e-06
2.9582e-05
-2.19485e-06
3.2467e-05
-2.88503e-06
3.62577e-05
-3.7907e-06
-6.04635e-06
4.23041e-05
6.59398e-05
1.60721e-05
6.20905e-05
1.79877e-05
5.61504e-05
1.316e-05
5.08037e-05
8.46244e-06
4.70701e-05
4.78604e-06
4.48746e-05
2.41149e-06
4.3803e-05
9.30621e-07
4.34701e-05
5.26361e-08
4.35502e-05
-3.85779e-07
4.38131e-05
-5.4326e-07
4.41415e-05
-5.75107e-07
4.44984e-05
-5.86287e-07
4.4886e-05
-6.21245e-07
4.53162e-05
-6.83821e-07
4.57962e-05
-7.6093e-07
4.63264e-05
-8.41012e-07
4.69048e-05
-9.2026e-07
4.75305e-05
-1.00113e-06
4.82061e-05
-1.08883e-06
4.89374e-05
-1.18877e-06
4.97329e-05
-1.30573e-06
5.06035e-05
-1.44429e-06
5.15626e-05
-1.6097e-06
5.26265e-05
-1.80869e-06
5.38158e-05
-2.05043e-06
5.51564e-05
-2.34749e-06
5.66817e-05
-2.71807e-06
5.84359e-05
-3.18755e-06
6.04765e-05
-3.79944e-06
6.28897e-05
-4.60803e-06
6.57594e-05
-5.75481e-06
6.93405e-05
-7.37173e-06
-9.89042e-06
7.31845e-05
6.918e-05
1.06535e-05
7.25488e-05
1.46189e-05
7.32516e-05
1.24572e-05
7.22091e-05
9.50495e-06
7.05306e-05
6.46446e-06
6.89626e-05
3.97953e-06
6.77308e-05
2.1624e-06
6.68039e-05
9.79589e-07
6.60741e-05
3.43937e-07
6.54624e-05
6.84394e-08
6.4949e-05
-6.16869e-08
6.45594e-05
-1.96644e-07
6.43307e-05
-3.92551e-07
6.42825e-05
-6.35619e-07
6.44049e-05
-8.83333e-07
6.46664e-05
-1.10248e-06
6.50298e-05
-1.28365e-06
6.54654e-05
-1.43677e-06
6.59564e-05
-1.5798e-06
6.64973e-05
-1.72965e-06
6.70903e-05
-1.89874e-06
6.77417e-05
-2.09578e-06
6.84602e-05
-2.32819e-06
6.92559e-05
-2.60435e-06
7.01407e-05
-2.93524e-06
7.11291e-05
-3.33587e-06
7.22383e-05
-3.82726e-06
7.34893e-05
-4.43855e-06
7.49036e-05
-5.21379e-06
7.65094e-05
-6.21386e-06
7.82932e-05
-7.53856e-06
8.02518e-05
-9.33034e-06
-1.16877e-05
8.20491e-05
6.88463e-05
7.39031e-06
7.21485e-05
1.13167e-05
7.44824e-05
1.01233e-05
7.58265e-05
8.16081e-06
7.63247e-05
5.96634e-06
7.63007e-05
4.00351e-06
7.59482e-05
2.51488e-06
7.53576e-05
1.57022e-06
7.4576e-05
1.12546e-06
7.36573e-05
9.87198e-07
7.26947e-05
9.0093e-07
7.18109e-05
6.87135e-07
7.11118e-05
3.0652e-07
7.06512e-05
-1.74952e-07
7.04283e-05
-6.6046e-07
7.04043e-05
-1.07847e-06
7.05268e-05
-1.40617e-06
7.07509e-05
-1.66092e-06
7.10478e-05
-1.87664e-06
7.14033e-05
-2.08522e-06
7.18139e-05
-2.30929e-06
7.22814e-05
-2.56326e-06
7.28106e-05
-2.85743e-06
7.34081e-05
-3.20181e-06
7.40815e-05
-3.60867e-06
7.48399e-05
-4.09428e-06
7.56933e-05
-4.68063e-06
7.66521e-05
-5.3974e-06
7.77237e-05
-6.28532e-06
7.89102e-05
-7.40037e-06
8.01834e-05
-8.81182e-06
8.14865e-05
-1.06334e-05
-1.28555e-05
8.26543e-05
6.95621e-05
5.285e-06
7.18387e-05
9.0401e-06
7.35061e-05
8.45584e-06
7.467e-05
6.99692e-06
7.53369e-05
5.29953e-06
7.56111e-05
3.72924e-06
7.55814e-05
2.54463e-06
7.53182e-05
1.83341e-06
7.48907e-05
1.55298e-06
7.43641e-05
1.51377e-06
7.38066e-05
1.4584e-06
7.32912e-05
1.20252e-06
7.28834e-05
7.14342e-07
7.2621e-05
8.74549e-08
7.2507e-05
-5.46425e-07
7.25222e-05
-1.09368e-06
7.26417e-05
-1.52567e-06
7.28439e-05
-1.86314e-06
7.3114e-05
-2.14678e-06
7.34439e-05
-2.41508e-06
7.38304e-05
-2.69577e-06
7.42739e-05
-3.00675e-06
7.47771e-05
-3.3606e-06
7.53441e-05
-3.76885e-06
7.59802e-05
-4.24478e-06
7.66911e-05
-4.80519e-06
7.74822e-05
-5.47171e-06
7.83572e-05
-6.27235e-06
7.93143e-05
-7.24244e-06
8.03422e-05
-8.42829e-06
8.14071e-05
-9.8767e-06
8.24363e-05
-1.16626e-05
-1.37516e-05
8.33324e-05
7.08422e-05
3.8268e-06
7.26329e-05
7.24941e-06
7.39299e-05
7.15885e-06
7.48137e-05
6.11312e-06
7.53265e-05
4.78674e-06
7.55544e-05
3.50128e-06
7.55754e-05
2.52369e-06
7.54504e-05
1.95845e-06
7.52404e-05
1.76292e-06
7.50005e-05
1.75366e-06
7.47724e-05
1.68649e-06
7.45844e-05
1.39054e-06
7.4454e-05
8.44731e-07
7.4391e-05
1.50471e-07
7.43995e-05
-5.54889e-07
7.44791e-05
-1.17328e-06
7.46267e-05
-1.67329e-06
7.48378e-05
-2.07424e-06
7.51078e-05
-2.41676e-06
7.54332e-05
-2.74046e-06
7.58121e-05
-3.07477e-06
7.62448e-05
-3.43936e-06
7.67324e-05
-3.84826e-06
7.72775e-05
-4.31396e-06
7.78829e-05
-4.85013e-06
7.85509e-05
-5.47321e-06
7.92825e-05
-6.20332e-06
8.00754e-05
-7.06525e-06
8.09208e-05
-8.08789e-06
8.1799e-05
-9.30644e-06
8.26734e-05
-1.07511e-05
8.34766e-05
-1.24659e-05
-1.44157e-05
8.41407e-05
7.23899e-05
2.80326e-06
7.38426e-05
5.79672e-06
7.49601e-05
6.04133e-06
7.57434e-05
5.32982e-06
7.62224e-05
4.30771e-06
7.64612e-05
3.26249e-06
7.65311e-05
2.45379e-06
7.64917e-05
1.99783e-06
7.64012e-05
1.85344e-06
7.63094e-05
1.84547e-06
7.62462e-05
1.7497e-06
7.62209e-05
1.41586e-06
7.62314e-05
8.34222e-07
7.62752e-05
1.06635e-07
7.63547e-05
-6.34356e-07
7.64758e-05
-1.29437e-06
7.66441e-05
-1.84164e-06
7.68629e-05
-2.29296e-06
7.71326e-05
-2.68645e-06
7.74525e-05
-3.06037e-06
7.78217e-05
-3.44401e-06
7.82399e-05
-3.85759e-06
7.87075e-05
-4.31581e-06
7.92251e-05
-4.83153e-06
7.97931e-05
-5.4182e-06
8.04111e-05
-6.09121e-06
8.10762e-05
-6.8684e-06
8.17814e-05
-7.77046e-06
8.25133e-05
-8.81977e-06
8.3248e-05
-1.00411e-05
8.39491e-05
-1.14522e-05
8.45585e-05
-1.30752e-05
-1.48782e-05
8.5021e-05
7.41256e-05
2.08292e-06
7.52913e-05
4.631e-06
7.62607e-05
5.07199e-06
7.69782e-05
4.61231e-06
7.74525e-05
3.83336e-06
7.77206e-05
2.99442e-06
7.7841e-05
2.33335e-06
7.78717e-05
1.96711e-06
7.78686e-05
1.85656e-06
7.78764e-05
1.83773e-06
7.79173e-05
1.7088e-06
7.7992e-05
1.34114e-06
7.8091e-05
7.3525e-07
7.82068e-05
-9.2464e-09
7.83402e-05
-7.67676e-07
7.84975e-05
-1.45171e-06
7.86871e-05
-2.03121e-06
7.89153e-05
-2.52119e-06
7.91858e-05
-2.95693e-06
7.94997e-05
-3.37434e-06
7.98572e-05
-3.80147e-06
8.02577e-05
-4.25812e-06
8.07008e-05
-4.75889e-06
8.11857e-05
-5.3164e-06
8.17108e-05
-5.94333e-06
8.22731e-05
-6.65347e-06
8.28666e-05
-7.46191e-06
8.34812e-05
-8.38505e-06
8.41006e-05
-9.43915e-06
8.46996e-05
-1.06401e-05
8.52441e-05
-1.19967e-05
8.56852e-05
-1.35164e-05
-1.51707e-05
8.59778e-05
7.60166e-05
1.56883e-06
7.695e-05
3.69757e-06
7.77858e-05
4.23619e-06
7.84343e-05
3.96381e-06
7.88907e-05
3.37697e-06
7.91753e-05
2.70979e-06
7.93351e-05
2.17357e-06
7.94232e-05
1.879e-06
7.9491e-05
1.78873e-06
7.95777e-05
1.75104e-06
7.96998e-05
1.58671e-06
7.98525e-05
1.18849e-06
8.00214e-05
5.66344e-07
8.01954e-05
-1.83318e-07
8.03729e-05
-9.45104e-07
8.05601e-05
-1.63892e-06
8.07668e-05
-2.23797e-06
8.10019e-05
-2.75627e-06
8.1271e-05
-3.22601e-06
8.15767e-05
-3.68007e-06
8.19196e-05
-4.1444e-06
8.22991e-05
-4.63762e-06
8.27139e-05
-5.17365e-06
8.31618e-05
-5.76434e-06
8.36397e-05
-6.42121e-06
8.41424e-05
-7.15611e-06
8.46617e-05
-7.98126e-06
8.51855e-05
-8.90887e-06
8.56962e-05
-9.94985e-06
8.61692e-05
-1.11131e-05
8.65731e-05
-1.24006e-05
8.68677e-05
-1.3811e-05
-1.53185e-05
8.70154e-05
7.80324e-05
1.19606e-06
7.87793e-05
2.95062e-06
7.94975e-05
3.51795e-06
8.0082e-05
3.37935e-06
8.05177e-05
2.94126e-06
8.08134e-05
2.41413e-06
8.10044e-05
1.98255e-06
8.11377e-05
1.74574e-06
8.12598e-05
1.66664e-06
8.14052e-05
1.60559e-06
8.15866e-05
1.40535e-06
8.17958e-05
9.79216e-07
8.20161e-05
3.46116e-07
8.2234e-05
-4.01242e-07
8.24462e-05
-1.1573e-06
8.26582e-05
-1.85094e-06
8.28799e-05
-2.45963e-06
8.31206e-05
-2.99706e-06
8.33872e-05
-3.49261e-06
8.36831e-05
-3.97595e-06
8.40092e-05
-4.47049e-06
8.43648e-05
-4.99317e-06
8.47478e-05
-5.55669e-06
8.51552e-05
-6.17179e-06
8.55825e-05
-6.84847e-06
8.60229e-05
-7.59653e-06
8.6467e-05
-8.42532e-06
8.69014e-05
-9.34331e-06
8.73085e-05
-1.03569e-05
8.7665e-05
-1.14696e-05
8.79433e-05
-1.26789e-05
8.81102e-05
-1.39779e-05
-1.53433e-05
8.8135e-05
8.01536e-05
9.20762e-07
8.07528e-05
2.3514e-06
8.13694e-05
2.90142e-06
8.18952e-05
2.85354e-06
8.23073e-05
2.52909e-06
8.26067e-05
2.11475e-06
8.28197e-05
1.76954e-06
8.29872e-05
1.57825e-06
8.3151e-05
1.5029e-06
8.33412e-05
1.4154e-06
8.35672e-05
1.17933e-06
8.3819e-05
7.27381e-07
8.40783e-05
8.68408e-08
8.43301e-05
-6.53062e-07
8.45694e-05
-1.39659e-06
8.48005e-05
-2.08207e-06
8.50329e-05
-2.692e-06
8.52762e-05
-3.24036e-06
8.55376e-05
-3.75404e-06
8.58211e-05
-4.25942e-06
8.61277e-05
-4.77709e-06
8.64565e-05
-5.32194e-06
8.68049e-05
-5.90515e-06
8.71692e-05
-6.53601e-06
8.75436e-05
-7.2229e-06
8.79206e-05
-7.97352e-06
8.82898e-05
-8.79457e-06
8.86378e-05
-9.6913e-06
8.89474e-05
-1.06665e-05
8.91976e-05
-1.17198e-05
8.93642e-05
-1.28455e-05
8.94203e-05
-1.4034e-05
-1.5264e-05
8.9341e-05
8.23678e-05
7.13363e-07
8.28506e-05
1.86868e-06
8.3379e-05
2.37299e-06
8.38508e-05
2.38168e-06
8.42383e-05
2.14162e-06
8.45372e-05
1.81588e-06
8.47665e-05
1.54021e-06
8.49608e-05
1.384e-06
8.51566e-05
1.30709e-06
8.538e-05
1.19194e-06
8.56381e-05
9.21268e-07
8.59198e-05
4.4565e-07
8.62064e-05
-1.9977e-07
8.64823e-05
-9.28939e-07
8.67412e-05
-1.65548e-06
8.69862e-05
-2.32706e-06
8.72257e-05
-2.93149e-06
8.74689e-05
-3.48358e-06
8.77229e-05
-4.00809e-06
8.79918e-05
-4.52829e-06
8.82766e-05
-5.06191e-06
8.85763e-05
-5.62156e-06
8.88878e-05
-6.21669e-06
8.92068e-05
-6.85501e-06
8.95271e-05
-7.54318e-06
8.98405e-05
-8.2869e-06
9.01364e-05
-9.09054e-06
9.04018e-05
-9.95667e-06
9.06206e-05
-1.08853e-05
9.07742e-05
-1.18734e-05
9.08421e-05
-1.29134e-05
9.08022e-05
-1.39942e-05
-1.50969e-05
9.06352e-05
8.46672e-05
5.53904e-07
8.50585e-05
1.47744e-06
8.55115e-05
1.92e-06
8.59344e-05
1.95875e-06
8.62969e-05
1.77915e-06
8.65913e-05
1.52149e-06
8.68308e-05
1.30065e-06
8.70443e-05
1.1705e-06
8.72637e-05
1.08776e-06
8.75113e-05
9.44291e-07
8.77923e-05
6.40296e-07
8.80952e-05
1.42731e-07
8.84012e-05
-5.05764e-07
8.86941e-05
-1.22182e-06
8.89665e-05
-1.9279e-06
8.92203e-05
-2.58082e-06
8.94627e-05
-3.17394e-06
8.97024e-05
-3.7233e-06
8.99462e-05
-4.25187e-06
9.01979e-05
-4.78002e-06
9.04586e-05
-5.32259e-06
9.07269e-05
-5.8899e-06
9.09997e-05
-6.48951e-06
9.12722e-05
-7.1275e-06
9.15379e-05
-7.80887e-06
9.17885e-05
-8.53749e-06
9.20137e-05
-9.31572e-06
9.2201e-05
-1.0144e-05
9.23361e-05
-1.10204e-05
9.24027e-05
-1.19399e-05
9.23835e-05
-1.28943e-05
9.22612e-05
-1.38718e-05
-1.48561e-05
9.20204e-05
8.70473e-05
4.28808e-07
8.73668e-05
1.15788e-06
8.77556e-05
1.53118e-06
8.81344e-05
1.58001e-06
8.84721e-05
1.44141e-06
8.87592e-05
1.23441e-06
8.90045e-05
1.05533e-06
8.92317e-05
9.43278e-07
8.94682e-05
8.51288e-07
8.9733e-05
6.79492e-07
9.00295e-05
3.43853e-07
9.03459e-05
-1.73746e-07
9.06638e-05
-8.23605e-07
9.09667e-05
-1.52472e-06
9.12466e-05
-2.20781e-06
9.15042e-05
-2.83842e-06
9.17456e-05
-3.41541e-06
9.19787e-05
-3.95632e-06
9.22095e-05
-4.48272e-06
9.24418e-05
-5.01227e-06
9.26763e-05
-5.55709e-06
9.29116e-05
-6.1252e-06
9.31444e-05
-6.7223e-06
9.33697e-05
-7.35284e-06
9.35811e-05
-8.02026e-06
9.37704e-05
-8.72681e-06
9.39279e-05
-9.47322e-06
9.40422e-05
-1.02583e-05
9.41006e-05
-1.10787e-05
9.40891e-05
-1.19285e-05
9.39938e-05
-1.27989e-05
9.38006e-05
-1.36787e-05
-1.45537e-05
9.34982e-05
8.95056e-05
3.2876e-07
8.9769e-05
8.94497e-07
9.01036e-05
1.1965e-06
9.04429e-05
1.24078e-06
9.07567e-05
1.12754e-06
9.10345e-05
9.56682e-07
9.12817e-05
8.08115e-07
9.15176e-05
7.07324e-07
9.17656e-05
6.03383e-07
9.20415e-05
4.03578e-07
9.23473e-05
3.80245e-08
9.26713e-05
-4.97776e-07
9.29952e-05
-1.14745e-06
9.33025e-05
-1.83209e-06
9.35848e-05
-2.49006e-06
9.38416e-05
-3.09524e-06
9.40781e-05
-3.65193e-06
9.43011e-05
-4.17931e-06
9.45162e-05
-4.69782e-06
9.47266e-05
-5.22271e-06
9.49331e-05
-5.76352e-06
9.51339e-05
-6.32606e-06
9.53258e-05
-6.91422e-06
9.55039e-05
-7.53094e-06
9.56619e-05
-8.17823e-06
9.57921e-05
-8.85699e-06
9.58855e-05
-9.56663e-06
9.5932e-05
-1.03048e-05
9.59205e-05
-1.10672e-05
9.58395e-05
-1.18475e-05
9.56776e-05
-1.2637e-05
9.5424e-05
-1.34252e-05
-1.42e-05
9.50703e-05
9.20413e-05
2.47279e-07
9.22606e-05
6.75201e-07
9.25499e-05
9.07238e-07
9.28541e-05
9.36614e-07
9.31453e-05
8.36344e-07
9.34123e-05
6.89645e-07
9.36584e-05
5.61999e-07
9.38992e-05
4.66592e-07
9.4154e-05
3.48536e-07
9.44363e-05
1.21319e-07
9.47465e-05
-2.72229e-07
9.50729e-05
-8.24158e-07
9.53974e-05
-1.47195e-06
9.57039e-05
-2.13862e-06
9.59836e-05
-2.7697e-06
9.62352e-05
-3.34686e-06
9.64629e-05
-3.87968e-06
9.66727e-05
-4.38906e-06
9.68694e-05
-4.89454e-06
9.70559e-05
-5.40921e-06
9.72326e-05
-5.94024e-06
9.7398e-05
-6.49137e-06
9.75486e-05
-7.06485e-06
9.76798e-05
-7.66218e-06
9.77858e-05
-8.28417e-06
9.78593e-05
-8.93057e-06
9.78925e-05
-9.59979e-06
9.78764e-05
-1.02887e-05
9.78017e-05
-1.09925e-05
9.76589e-05
-1.17047e-05
9.74391e-05
-1.24171e-05
9.71341e-05
-1.31202e-05
-1.38038e-05
9.67379e-05
9.46547e-05
1.7978e-07
9.48393e-05
4.90593e-07
9.50907e-05
6.5585e-07
9.5364e-05
6.63283e-07
9.5634e-05
5.66329e-07
9.58896e-05
4.34051e-07
9.61323e-05
3.19306e-07
9.63745e-05
2.24362e-07
9.66325e-05
9.05654e-08
9.6917e-05
-1.632e-07
9.72274e-05
-5.82633e-07
9.75517e-05
-1.14844e-06
9.78723e-05
-1.79253e-06
9.81734e-05
-2.43974e-06
9.8446e-05
-3.04229e-06
9.86883e-05
-3.58921e-06
9.89037e-05
-4.09505e-06
9.90971e-05
-4.58249e-06
9.92729e-05
-5.07035e-06
9.94335e-05
-5.56978e-06
9.95791e-05
-6.08583e-06
9.97081e-05
-6.62037e-06
9.98174e-05
-7.17411e-06
9.99025e-05
-7.74734e-06
9.99581e-05
-8.3398e-06
9.99779e-05
-8.95035e-06
9.99548e-05
-9.57668e-06
9.98813e-05
-1.02152e-05
9.97496e-05
-1.08608e-05
9.95521e-05
-1.15073e-05
9.92821e-05
-1.2147e-05
9.89334e-05
-1.27716e-05
-1.33724e-05
9.8502e-05
9.73463e-05
1.2296e-07
9.75036e-05
3.3335e-07
9.77235e-05
4.35895e-07
9.797e-05
4.16854e-07
9.82204e-05
3.15846e-07
9.84643e-05
1.90184e-07
9.87019e-05
8.17562e-08
9.8943e-05
-1.67605e-08
9.9201e-05
-1.67442e-07
9.94844e-05
-4.46618e-07
9.97914e-05
-8.8957e-07
0.00010011
-1.46673e-06
0.000100422
-2.10507e-06
0.000100714
-2.73124e-06
0.000100975
-3.30374e-06
0.000101204
-3.81846e-06
0.000101404
-4.29464e-06
0.000101578
-4.7567e-06
0.000101731
-5.22289e-06
0.000101864
-5.70265e-06
0.000101977
-6.19913e-06
0.000102069
-6.71254e-06
0.000102137
-7.24224e-06
0.000102177
-7.78746e-06
0.000102185
-8.34709e-06
0.000102154
-8.91929e-06
0.000102078
-9.50127e-06
0.000101952
-1.00891e-05
0.000101769
-1.06779e-05
0.000101523
-1.12616e-05
0.00010121
-1.18334e-05
0.000100824
-1.23859e-05
-1.29121e-05
0.000100364
0.000100118
7.43849e-08
0.000100253
1.97745e-07
0.000100447
2.41893e-07
0.00010067
1.93678e-07
0.000100903
8.31179e-08
0.000101135
-4.20732e-08
0.000101367
-1.49484e-07
0.000101605
-2.54757e-07
0.00010186
-4.22994e-07
0.00010214
-7.261e-07
0.00010244
-1.18991e-06
0.000102749
-1.77562e-06
0.00010305
-2.40591e-06
0.000103328
-3.00935e-06
0.000103574
-3.55031e-06
0.000103787
-4.03109e-06
0.000103968
-4.4753e-06
0.00010412
-4.90901e-06
0.000104247
-5.35e-06
0.000104351
-5.80624e-06
0.000104431
-6.2792e-06
0.000104486
-6.76761e-06
0.000104513
-7.26971e-06
0.00010451
-7.78382e-06
0.000104471
-8.30816e-06
0.000104392
-8.84039e-06
0.000104268
-9.3774e-06
0.000104094
-9.91521e-06
0.000103865
-1.0449e-05
0.000103577
-1.09733e-05
0.000103226
-1.14821e-05
0.000102809
-1.19688e-05
-1.24279e-05
0.000102324
0.00010297
3.22201e-08
0.000103089
7.92469e-08
0.000103261
6.91792e-08
0.000103465
-9.61033e-09
0.000103682
-1.33711e-07
0.000103903
-2.63165e-07
0.000104127
-3.73714e-07
0.00010436
-4.88171e-07
0.000104611
-6.74117e-07
0.000104885
-9.99302e-07
0.000105176
-1.48097e-06
0.000105472
-2.07211e-06
0.000105758
-2.69181e-06
0.000106019
-3.27065e-06
0.000106248
-3.77859e-06
0.00010644
-4.22387e-06
0.000106599
-4.63413e-06
0.000106727
-5.03695e-06
0.000106827
-5.44973e-06
0.0001069
-5.87917e-06
0.000106946
-6.32526e-06
0.000106964
-6.78549e-06
0.000106951
-7.25714e-06
0.000106905
-7.73781e-06
0.000106822
-8.22518e-06
0.000106698
-8.71658e-06
0.00010653
-9.20873e-06
0.000106312
-9.69771e-06
0.000106042
-1.0179e-05
0.000105716
-1.06475e-05
0.000105332
-1.10981e-05
0.000104889
-1.15251e-05
-1.19241e-05
0.000104385
0.000105906
-4.95737e-09
0.000106011
-2.57738e-08
0.000106166
-8.62406e-08
0.000106353
-1.9613e-07
0.000106556
-3.36561e-07
0.000106766
-4.73832e-07
0.000106983
-5.90678e-07
0.000107211
-7.16017e-07
0.000107456
-9.19313e-07
0.000107721
-1.26432e-06
0.000108001
-1.76048e-06
0.000108282
-2.35359e-06
0.00010855
-2.95985e-06
0.000108792
-3.51207e-06
0.000108999
-3.9855e-06
0.000109169
-4.39385e-06
0.000109303
-4.76846e-06
0.000109404
-5.13825e-06
0.000109475
-5.52033e-06
0.000109516
-5.92023e-06
0.000109527
-6.33673e-06
0.000109508
-6.76626e-06
0.000109456
-7.20529e-06
0.000109369
-7.65087e-06
0.000109245
-8.10029e-06
0.000109079
-8.55066e-06
0.000108869
-8.99867e-06
0.000108611
-9.4405e-06
0.000108304
-9.87197e-06
0.000107945
-1.02886e-05
0.000107533
-1.06858e-05
0.000107067
-1.10587e-05
-1.14041e-05
0.000106547
0.000108927
-3.83169e-08
0.000109021
-1.20304e-07
0.000109163
-2.2785e-07
0.000109336
-3.68809e-07
0.000109526
-5.27422e-07
0.000109728
-6.75075e-07
0.000109938
-8.005e-07
0.000110159
-9.37739e-07
0.000110397
-1.15752e-06
0.000110653
-1.51966e-06
0.000110919
-2.02655e-06
0.000111183
-2.6178e-06
0.000111431
-3.20748e-06
0.000111649
-3.73086e-06
0.000111832
-4.16823e-06
0.000111977
-4.53836e-06
0.000112084
-4.87585e-06
0.000112157
-5.21087e-06
0.000112197
-5.56019e-06
0.000112205
-5.92838e-06
0.000112181
-6.31315e-06
0.000112125
-6.71005e-06
0.000112035
-7.11494e-06
0.000111908
-7.52443e-06
0.000111743
-7.93554e-06
0.000111538
-8.34527e-06
0.00011129
-8.75031e-06
0.000110996
-9.14708e-06
0.000110656
-9.5317e-06
0.000110268
-9.9002e-06
0.00010983
-1.02486e-05
0.000109345
-1.05729e-05
-1.08705e-05
0.000108811
0.000112035
-6.87763e-08
0.000112122
-2.06879e-07
0.000112252
-3.58761e-07
0.000112414
-5.30451e-07
0.000112595
-7.08397e-07
0.000112788
-8.68184e-07
0.000112991
-1.0037e-06
0.000113207
-1.15322e-06
0.000113437
-1.38809e-06
0.000113682
-1.76424e-06
0.000113933
-2.27766e-06
0.000114178
-2.86281e-06
0.000114403
-3.43244e-06
0.000114597
-3.92454e-06
0.000114753
-4.32424e-06
0.000114869
-4.65492e-06
0.000114948
-4.9541e-06
0.00011499
-5.25292e-06
0.000114997
-5.56787e-06
0.000114972
-5.90267e-06
0.000114913
-6.25412e-06
0.00011482
-6.61707e-06
0.000114692
-6.98688e-06
0.000114527
-7.35985e-06
0.000114324
-7.73282e-06
0.000114082
-8.10275e-06
0.000113798
-8.46642e-06
0.000113471
-8.82045e-06
0.000113101
-9.16133e-06
0.000112686
-9.48552e-06
0.000112227
-9.78966e-06
0.000111725
-1.00703e-05
-1.03255e-05
0.00011118
0.000115233
-9.71763e-08
0.000115314
-2.87761e-07
0.000115437
-4.8187e-07
0.00011559
-6.83832e-07
0.000115764
-8.81725e-07
0.00011595
-1.05472e-06
0.000116148
-1.20117e-06
0.000116357
-1.36274e-06
0.00011658
-1.6108e-06
0.000116813
-1.99734e-06
0.000117048
-2.51266e-06
0.000117272
-3.08704e-06
0.000117472
-3.63278e-06
0.000117639
-4.09091e-06
0.000117766
-4.45123e-06
0.000117852
-4.7413e-06
0.000117899
-5.00113e-06
0.000117909
-5.26266e-06
0.000117883
-5.54205e-06
0.000117823
-5.84224e-06
0.000117728
-6.15929e-06
0.000117598
-6.48748e-06
0.000117433
-6.82181e-06
0.000117232
-7.15834e-06
0.000116993
-7.49383e-06
0.000116715
-7.82521e-06
0.000116398
-8.1494e-06
0.000116041
-8.46323e-06
0.000115643
-8.76352e-06
0.000115205
-9.04716e-06
0.000114726
-9.31126e-06
0.000114209
-9.55289e-06
-9.77066e-06
0.000113654
0.000118523
-1.24303e-07
0.0001186
-3.65087e-07
0.000118718
-6.00029e-07
0.000118866
-8.31844e-07
0.000119035
-1.04991e-06
0.000119217
-1.23659e-06
0.00011941
-1.39416e-06
0.000119614
-1.56697e-06
0.000119829
-1.82577e-06
0.00012005
-2.21859e-06
0.000120268
-2.73067e-06
0.00012047
-3.28916e-06
0.000120644
-3.80677e-06
0.000120781
-4.22797e-06
0.000120877
-4.54707e-06
0.000120931
-4.79539e-06
0.000120945
-5.01502e-06
0.000120921
-5.23845e-06
0.00012086
-5.48144e-06
0.000120764
-5.74624e-06
0.000120633
-6.02829e-06
0.000120467
-6.32142e-06
0.000120266
-6.62033e-06
0.000120028
-6.92096e-06
0.000119754
-7.21999e-06
0.000119444
-7.51441e-06
0.000119095
-7.80125e-06
0.00011871
-8.07756e-06
0.000118287
-8.34046e-06
0.000117827
-8.58721e-06
0.000117331
-8.8153e-06
0.0001168
-9.02227e-06
-9.20711e-06
0.000116237
0.000121908
-1.50935e-07
0.000121984
-4.41005e-07
0.0001221
-7.16167e-07
0.000122246
-9.77561e-07
0.000122412
-1.21574e-06
0.000122591
-1.41606e-06
0.000122781
-1.58438e-06
0.000122981
-1.76705e-06
0.000123189
-2.03362e-06
0.000123399
-2.42807e-06
0.000123599
-2.93121e-06
0.000123778
-3.46813e-06
0.000123924
-3.95291e-06
0.00012403
-4.33387e-06
0.000124093
-4.60974e-06
0.000124113
-4.81514e-06
0.000124091
-4.99385e-06
0.000124032
-5.17861e-06
0.000123935
-5.38472e-06
0.000123802
-5.61377e-06
0.000123635
-5.86064e-06
0.000123432
-6.11884e-06
0.000123195
-6.38286e-06
0.000122922
-6.64851e-06
0.000122615
-6.91247e-06
0.000122272
-7.17178e-06
0.000121894
-7.42359e-06
0.000121482
-7.66516e-06
0.000121035
-7.89387e-06
0.000120556
-8.10725e-06
0.000120043
-8.30317e-06
0.000119501
-8.47953e-06
-8.63558e-06
0.000118929
0.00012539
-1.77952e-07
0.000125467
-5.17934e-07
0.000125585
-8.33673e-07
0.000125732
-1.12467e-06
0.000125899
-1.38268e-06
0.000126079
-1.59605e-06
0.000126269
-1.77398e-06
0.000126466
-1.9644e-06
0.000126667
-2.23508e-06
0.000126865
-2.62588e-06
0.000127048
-3.11383e-06
0.000127203
-3.62299e-06
0.00012732
-4.06979e-06
0.000127393
-4.40687e-06
0.00012742
-4.63729e-06
0.000127404
-4.79858e-06
0.000127345
-4.93575e-06
0.000127248
-5.0815e-06
0.000127114
-5.25054e-06
0.000126944
-5.44382e-06
0.000126739
-5.65577e-06
0.0001265
-5.87958e-06
0.000126227
-6.10958e-06
0.00012592
-6.34154e-06
0.000125579
-6.57211e-06
0.000125206
-6.79839e-06
0.0001248
-7.01766e-06
0.000124362
-7.22733e-06
0.000123893
-7.42499e-06
0.000123395
-7.60846e-06
0.000122867
-7.77584e-06
0.000122313
-7.92535e-06
-8.05643e-06
0.000121734
0.000128973
-2.06292e-07
0.000129054
-5.98504e-07
0.000129177
-9.56187e-07
0.000129329
-1.27713e-06
0.000129501
-1.5545e-06
0.000129685
-1.77991e-06
0.000129877
-1.96586e-06
0.000130073
-2.16135e-06
0.00013027
-2.43188e-06
0.000130457
-2.81307e-06
0.000130622
-3.27876e-06
0.000130753
-3.75315e-06
0.000130839
-4.15609e-06
0.000130877
-4.44511e-06
0.000130867
-4.62752e-06
0.000130812
-4.7434e-06
0.000130715
-4.83848e-06
0.000130578
-4.9451e-06
0.000130405
-5.07721e-06
0.000130196
-5.23512e-06
0.000129953
-5.41278e-06
0.000129677
-5.60314e-06
0.000129368
-5.80041e-06
0.000129027
-6.00028e-06
0.000128654
-6.19942e-06
0.00012825
-6.39495e-06
0.000127817
-6.58426e-06
0.000127355
-6.76491e-06
0.000126864
-6.93467e-06
0.000126347
-7.09154e-06
0.000125805
-7.23387e-06
0.00012524
-7.36006e-06
-7.46971e-06
0.000124653
0.00013266
-2.37428e-07
0.000132748
-6.86673e-07
0.000132881
-1.08929e-06
0.000133045
-1.44104e-06
0.000133228
-1.73687e-06
0.00013342
-1.97211e-06
0.000133617
-2.16294e-06
0.000133815
-2.35941e-06
0.000134008
-2.62444e-06
0.000134184
-2.9893e-06
0.00013433
-3.42519e-06
0.000134435
-3.85743e-06
0.000134489
-4.21028e-06
0.00013449
-4.44672e-06
0.000134441
-4.57836e-06
0.000134345
-4.64742e-06
0.000134207
-4.69991e-06
0.000134029
-4.76746e-06
0.000133815
-4.86307e-06
0.000133566
-4.98631e-06
0.000133284
-5.13067e-06
0.00013297
-5.28886e-06
0.000132624
-5.45498e-06
0.000132249
-5.62465e-06
0.000131844
-5.79452e-06
0.000131411
-5.96176e-06
0.00013095
-6.12382e-06
0.000130464
-6.27837e-06
0.000129952
-6.42332e-06
0.000129417
-6.55684e-06
0.000128861
-6.67741e-06
0.000128285
-6.78363e-06
-6.87514e-06
0.00012769
0.000136453
-2.72437e-07
0.000136552
-7.85854e-07
0.000136701
-1.23764e-06
0.000136881
-1.62158e-06
0.00013708
-1.93526e-06
0.000137286
-2.17838e-06
0.000137494
-2.37097e-06
0.000137699
-2.56391e-06
0.000137891
-2.81711e-06
0.000138059
-3.15748e-06
0.000138188
-3.55429e-06
0.000138266
-3.93529e-06
0.000138286
-4.23037e-06
0.000138248
-4.40869e-06
0.000138156
-4.4862e-06
0.000138016
-4.50687e-06
0.000137832
-4.51642e-06
0.00013761
-4.54531e-06
0.000137352
-4.60532e-06
0.000137061
-4.69511e-06
0.000136738
-4.80768e-06
0.000136385
-4.93547e-06
0.000136002
-5.07243e-06
0.000135592
-5.21411e-06
0.000135154
-5.35715e-06
0.000134691
-5.49871e-06
0.000134204
-5.63632e-06
0.000133693
-5.76773e-06
0.000133161
-5.89095e-06
0.000132608
-6.00428e-06
0.000132037
-6.10631e-06
0.000131449
-6.19575e-06
-6.27228e-06
0.000130846
0.000140359
-3.15465e-07
0.000140479
-9.05851e-07
0.000140655
-1.41413e-06
0.000140865
-1.83153e-06
0.00014109
-2.15965e-06
0.000141316
-2.4043e-06
0.000141536
-2.59108e-06
0.000141744
-2.77267e-06
0.000141933
-3.0061e-06
0.00014209
-3.31366e-06
0.000142198
-3.66274e-06
0.000142247
-3.98409e-06
0.000142231
-4.21415e-06
0.000142151
-4.32891e-06
0.000142013
-4.34885e-06
0.000141826
-4.31944e-06
0.000141595
-4.28569e-06
0.000141326
-4.27644e-06
0.000141023
-4.30192e-06
0.000140688
-4.35975e-06
0.000140322
-4.44232e-06
0.000139929
-4.54173e-06
0.000139508
-4.65177e-06
0.000139062
-4.7679e-06
0.000138591
-4.88669e-06
0.000138098
-5.00533e-06
0.000137583
-5.12136e-06
0.000137048
-5.23261e-06
0.000136494
-5.33717e-06
0.000135923
-5.43341e-06
0.000135337
-5.52e-06
0.000134737
-5.59574e-06
-5.66025e-06
0.000134125
0.000144374
-3.65326e-07
0.000144517
-1.04799e-06
0.000144724
-1.62188e-06
0.00014497
-2.07711e-06
0.000145231
-2.42058e-06
0.000145491
-2.66429e-06
0.000145739
-2.83954e-06
0.000145968
-3.00122e-06
0.000146165
-3.2037e-06
0.000146317
-3.46531e-06
0.000146407
-3.75277e-06
0.000146424
-4.00143e-06
0.000146366
-4.15572e-06
0.000146236
-4.19934e-06
0.000146045
-4.15743e-06
0.000145802
-4.0764e-06
0.000145516
-3.99979e-06
0.000145194
-3.95406e-06
0.000144839
-3.94736e-06
0.000144455
-3.9759e-06
0.000144044
-4.03124e-06
0.000143608
-4.10513e-06
0.000143147
-4.19112e-06
0.000142664
-4.28457e-06
0.000142159
-4.38203e-06
0.000141634
-4.48068e-06
0.000141091
-4.57812e-06
0.000140531
-4.67223e-06
0.000139955
-4.7612e-06
0.000139365
-4.84346e-06
0.000138763
-4.91771e-06
0.00013815
-4.98281e-06
-5.03831e-06
0.000137528
0.000148523
-4.40285e-07
0.000148721
-1.24594e-06
0.000148996
-1.89722e-06
0.000149305
-2.3857e-06
0.000149615
-2.73062e-06
0.000149906
-2.95553e-06
0.000150168
-3.10185e-06
0.000150396
-3.22917e-06
0.000150582
-3.38954e-06
0.000150713
-3.59621e-06
0.000150774
-3.8139e-06
0.000150755
-3.98195e-06
0.000150652
-4.05316e-06
0.000150473
-4.01974e-06
0.000150227
-3.91201e-06
0.000149928
-3.77752e-06
0.000149586
-3.65797e-06
0.000149209
-3.57698e-06
0.000148802
-3.54016e-06
0.000148368
-3.54193e-06
0.00014791
-3.57286e-06
0.000147429
-3.62413e-06
0.000146927
-3.68902e-06
0.000146405
-3.76277e-06
0.000145865
-3.84185e-06
0.000145308
-3.92349e-06
0.000144735
-4.00531e-06
0.000144148
-4.08531e-06
0.000143548
-4.16172e-06
0.000142938
-4.23304e-06
0.000142318
-4.29801e-06
0.000141691
-4.35545e-06
-4.40482e-06
0.000141057
0.000152767
-5.18475e-07
0.000153002
-1.48085e-06
0.000153338
-2.23336e-06
0.000153726
-2.77293e-06
0.000154122
-3.12744e-06
0.000154496
-3.32936e-06
0.000154827
-3.43224e-06
0.000155101
-3.50377e-06
0.000155308
-3.59676e-06
0.000155434
-3.72217e-06
0.000155466
-3.84524e-06
0.000155395
-3.91145e-06
0.000155226
-3.88363e-06
0.000154969
-3.76331e-06
0.000154643
-3.58584e-06
0.000154264
-3.39871e-06
0.000153847
-3.24025e-06
0.000153399
-3.12967e-06
0.000152928
-3.06882e-06
0.000152436
-3.04964e-06
0.000151924
-3.06139e-06
0.000151395
-3.09466e-06
0.000150848
-3.14256e-06
0.000150286
-3.20027e-06
0.000149708
-3.26436e-06
0.000149117
-3.33214e-06
0.000148513
-3.4014e-06
0.000147898
-3.47029e-06
0.000147273
-3.53717e-06
0.000146641
-3.60065e-06
0.000146003
-3.6595e-06
0.00014536
-3.71257e-06
-3.75914e-06
0.000144714
0.000157227
-6.94169e-07
0.000157619
-1.87224e-06
0.000158103
-2.7176e-06
0.000158601
-3.27125e-06
0.000159067
-3.59376e-06
0.00015947
-3.73225e-06
0.000159795
-3.75701e-06
0.000160039
-3.74727e-06
0.0001602
-3.75788e-06
0.000160274
-3.796e-06
0.000160251
-3.82313e-06
0.000160126
-3.78646e-06
0.0001599
-3.65675e-06
0.000159582
-3.44532e-06
0.00015919
-3.19415e-06
0.000158743
-2.95218e-06
0.000158258
-2.75492e-06
0.000157745
-2.61688e-06
0.000157212
-2.53547e-06
0.000156662
-2.49949e-06
0.000156097
-2.49634e-06
0.000155518
-2.51571e-06
0.000154926
-2.55037e-06
0.000154321
-2.59548e-06
0.000153704
-2.64769e-06
0.000153076
-2.7045e-06
0.000152439
-2.76397e-06
0.000151793
-2.82449e-06
0.000151141
-2.88464e-06
0.000150483
-2.94318e-06
0.000149823
-2.99894e-06
0.000149161
-3.05077e-06
-3.09769e-06
0.000148499
0.00016168
-8.35658e-07
0.000162156
-2.34785e-06
0.000162802
-3.36366e-06
0.000163509
-3.97912e-06
0.000164188
-4.27258e-06
0.000164772
-4.31579e-06
0.000165228
-4.21336e-06
0.000165547
-4.06645e-06
0.000165728
-3.93879e-06
0.000165771
-3.83844e-06
0.000165673
-3.72539e-06
0.000165437
-3.55034e-06
0.000165075
-3.29453e-06
0.00016461
-2.98076e-06
0.000164073
-2.65735e-06
0.000163493
-2.37187e-06
0.000162891
-2.15252e-06
0.000162278
-2.00477e-06
0.000161662
-1.91868e-06
0.000161041
-1.87866e-06
0.000160415
-1.87027e-06
0.000159782
-1.8829e-06
0.000159141
-1.90969e-06
0.000158492
-1.94632e-06
0.000157834
-1.98995e-06
0.000157168
-2.03855e-06
0.000156495
-2.09066e-06
0.000155816
-2.14512e-06
0.000155132
-2.20098e-06
0.000154446
-2.25731e-06
0.000153761
-2.31331e-06
0.000153078
-2.36792e-06
-2.42001e-06
0.0001524
0.000166674
-1.35593e-06
0.000167491
-3.16492e-06
0.000168347
-4.21954e-06
0.000169194