/*--------------------------------*- C++ -*----------------------------------*\
  =========                 |
  \\      /  F ield         | OpenFOAM: The Open Source CFD Toolbox
   \\    /   O peration     | Website:  https://openfoam.org
    \\  /    A nd           | Version:  10
     \\/     M anipulation  |
\*---------------------------------------------------------------------------*/
FoamFile
{
    format      ascii;
    class       volVectorField;
    location    "0.005";
    object      U;
}
// * * * * * * * * * * * * * * * * * * * * * * * * * * * * * * * * * * * * * //

dimensions      [0 1 -1 0 0 0 0];

internalField   nonuniform List<vector> 
6820
(
(5.57567 0.458232 0)
(3.89415 0.244627 0)
(2.6189 0.00717317 0)
(2.01297 -0.0662482 0)
(1.82313 -0.0619683 0)
(1.76399 -0.0359859 0)
(1.76678 -0.0168528 0)
(1.79716 -0.00558971 0)
(1.83499 0.000166725 0)
(1.8712 0.00196061 0)
(1.90289 0.00151241 0)
(1.93118 0.000171866 0)
(1.95881 -0.00124565 0)
(1.98819 -0.00240137 0)
(2.02062 -0.00324873 0)
(2.05658 -0.00388836 0)
(2.09623 -0.00445237 0)
(2.13975 -0.00505084 0)
(2.18754 -0.00576547 0)
(2.24027 -0.00665959 0)
(2.29883 -0.00779212 0)
(2.36439 -0.00923177 0)
(2.4384 -0.0110712 0)
(2.52269 -0.0134418 0)
(2.6196 -0.0165361 0)
(2.73223 -0.0206348 0)
(2.86464 -0.0261875 0)
(3.02259 -0.0338324 0)
(3.21346 -0.0449859 0)
(3.45186 -0.0607885 0)
(3.74559 -0.0895675 0)
(4.16877 -0.123969 0)
(4.6164 -0.271858 0)
(7.66971 0.860788 0)
(7.72597 0.882583 0)
(7.0356 0.584743 0)
(6.28101 0.327329 0)
(5.74112 0.15007 0)
(5.40149 0.0518394 0)
(5.21866 0.000670344 0)
(5.14576 -0.0239347 0)
(5.13916 -0.0322057 0)
(5.16408 -0.0314794 0)
(5.20085 -0.0277519 0)
(5.24162 -0.0248993 0)
(5.28534 -0.0243075 0)
(5.33343 -0.0257523 0)
(5.38718 -0.0284626 0)
(5.44697 -0.0318318 0)
(5.51257 -0.0356065 0)
(5.58374 -0.0398062 0)
(5.66055 -0.0445974 0)
(5.74352 -0.0502051 0)
(5.83352 -0.056881 0)
(5.93168 -0.0649164 0)
(6.03943 -0.0746753 0)
(6.15851 -0.0866377 0)
(6.29107 -0.101459 0)
(6.4398 -0.120045 0)
(6.60817 -0.143734 0)
(6.80062 -0.174368 0)
(7.02318 -0.215395 0)
(7.28362 -0.270497 0)
(7.59358 -0.352752 0)
(7.9645 -0.469133 0)
(8.42223 -0.670082 0)
(7.56325 0.516548 0)
(8.22523 0.650194 0)
(8.47358 0.54916 0)
(8.39796 0.413761 0)
(8.21217 0.277044 0)
(8.01474 0.166825 0)
(7.8512 0.0852324 0)
(7.72989 0.0293762 0)
(7.63747 -0.00408222 0)
(7.56149 -0.0212026 0)
(7.49634 -0.0295309 0)
(7.44317 -0.0348909 0)
(7.40659 -0.0404219 0)
(7.39047 -0.0469123 0)
(7.39537 -0.0539471 0)
(7.41847 -0.0610157 0)
(7.45537 -0.0680237 0)
(7.50195 -0.0752621 0)
(7.5555 -0.0832017 0)
(7.61483 -0.0923235 0)
(7.67987 -0.103064 0)
(7.75119 -0.11585 0)
(7.82968 -0.131181 0)
(7.91641 -0.149703 0)
(8.01265 -0.172293 0)
(8.11988 -0.20016 0)
(8.23994 -0.23502 0)
(8.37496 -0.279309 0)
(8.52761 -0.336833 0)
(8.70015 -0.413044 0)
(8.89647 -0.518059 0)
(9.10836 -0.666223 0)
(9.34546 -0.880803 0)
(7.4336 0.337654 0)
(7.88458 0.502296 0)
(8.24039 0.463476 0)
(8.43289 0.382911 0)
(8.52379 0.283281 0)
(8.5448 0.189987 0)
(8.51983 0.115667 0)
(8.46536 0.0655647 0)
(8.38767 0.0396093 0)
(8.29065 0.0299704 0)
(8.18211 0.0253118 0)
(8.07523 0.0168943 0)
(7.98433 0.00165175 0)
(7.91871 -0.0185601 0)
(7.88107 -0.0399619 0)
(7.86863 -0.0594124 0)
(7.87551 -0.0756883 0)
(7.89588 -0.0893661 0)
(7.92554 -0.101919 0)
(7.9622 -0.114873 0)
(8.00501 -0.129413 0)
(8.05396 -0.146397 0)
(8.1095 -0.166544 0)
(8.17227 -0.190636 0)
(8.24306 -0.219684 0)
(8.32281 -0.255056 0)
(8.41261 -0.298653 0)
(8.51356 -0.353101 0)
(8.62693 -0.422196 0)
(8.75284 -0.511299 0)
(8.89201 -0.627944 0)
(9.03546 -0.78424 0)
(9.18492 -0.983434 0)
(7.39692 0.247424 0)
(7.68062 0.408953 0)
(7.92311 0.380063 0)
(8.07064 0.313369 0)
(8.16437 0.236302 0)
(8.21439 0.165522 0)
(8.2257 0.111687 0)
(8.20761 0.0789504 0)
(8.16833 0.0661216 0)
(8.11472 0.0649894 0)
(8.05377 0.0635693 0)
(7.99339 0.052678 0)
(7.94158 0.0302361 0)
(7.90458 0.000252671 0)
(7.88442 -0.0311612 0)
(7.87967 -0.0593213 0)
(7.8876 -0.0825244 0)
(7.90554 -0.101611 0)
(7.93149 -0.118599 0)
(7.96421 -0.135535 0)
(8.00315 -0.153989 0)
(8.04819 -0.175073 0)
(8.09952 -0.199677 0)
(8.15754 -0.228713 0)
(8.22275 -0.2633 0)
(8.29577 -0.304905 0)
(8.37724 -0.355484 0)
(8.46764 -0.417655 0)
(8.56734 -0.494907 0)
(8.67535 -0.592005 0)
(8.79068 -0.714494 0)
(8.90513 -0.871121 0)
(9.01632 -1.06193 0)
(7.37407 0.176977 0)
(7.57451 0.323877 0)
(7.76128 0.319099 0)
(7.87347 0.275578 0)
(7.94184 0.218656 0)
(7.9798 0.161895 0)
(7.99146 0.117244 0)
(7.98406 0.0904525 0)
(7.96474 0.0811864 0)
(7.93964 0.0819163 0)
(7.91392 0.0809061 0)
(7.89128 0.068854 0)
(7.87408 0.0434648 0)
(7.86367 0.00900745 0)
(7.86073 -0.0276145 0)
(7.8654 -0.0609787 0)
(7.87749 -0.089016 0)
(7.89654 -0.112493 0)
(7.92204 -0.133522 0)
(7.95355 -0.154318 0)
(7.99077 -0.176638 0)
(8.03361 -0.20176 0)
(8.08216 -0.230708 0)
(8.13663 -0.264494 0)
(8.19732 -0.304309 0)
(8.26452 -0.351649 0)
(8.33845 -0.408427 0)
(8.41904 -0.477102 0)
(8.50591 -0.560729 0)
(8.59741 -0.663238 0)
(8.69146 -0.788618 0)
(8.78109 -0.942688 0)
(8.86277 -1.12425 0)
(7.35909 0.12901 0)
(7.50346 0.260907 0)
(7.65548 0.272212 0)
(7.75343 0.242118 0)
(7.81394 0.196706 0)
(7.84952 0.149227 0)
(7.86411 0.11202 0)
(7.86393 0.0911388 0)
(7.85573 0.0855634 0)
(7.84527 0.0874132 0)
(7.83677 0.0854795 0)
(7.83215 0.0714036 0)
(7.83147 0.0436925 0)
(7.83427 0.00696279 0)
(7.84047 -0.0319814 0)
(7.85058 -0.0679627 0)
(7.86531 -0.098983 0)
(7.88513 -0.125714 0)
(7.91021 -0.150142 0)
(7.9405 -0.174417 0)
(7.9759 -0.200303 0)
(8.01634 -0.229127 0)
(8.0618 -0.261976 0)
(8.11237 -0.29991 0)
(8.16811 -0.344135 0)
(8.22904 -0.396109 0)
(8.29503 -0.457613 0)
(8.36559 -0.530832 0)
(8.43984 -0.618318 0)
(8.51574 -0.723119 0)
(8.59078 -0.848022 0)
(8.65914 -0.996608 0)
(8.71712 -1.16757 0)
(7.34967 0.0952903 0)
(7.45343 0.208355 0)
(7.57589 0.228136 0)
(7.66242 0.20918 0)
(7.71906 0.175609 0)
(7.75508 0.138647 0)
(7.77342 0.109167 0)
(7.77936 0.0930446 0)
(7.77931 0.0893182 0)
(7.77864 0.0907074 0)
(7.78077 0.0871255 0)
(7.78669 0.0712656 0)
(7.79562 0.0420983 0)
(7.80644 0.00405257 0)
(7.81877 -0.0365053 0)
(7.83307 -0.0745927 0)
(7.85019 -0.108185 0)
(7.87091 -0.13782 0)
(7.89575 -0.165348 0)
(7.92491 -0.192835 0)
(7.95843 -0.222021 0)
(7.99628 -0.25425 0)
(8.03841 -0.290636 0)
(8.08476 -0.33225 0)
(8.13523 -0.380266 0)
(8.18961 -0.436052 0)
(8.24749 -0.501206 0)
(8.30809 -0.577591 0)
(8.3702 -0.667252 0)
(8.43166 -0.772444 0)
(8.48989 -0.895019 0)
(8.54004 -1.03701 0)
(8.57886 -1.1971 0)
(7.34383 0.0713356 0)
(7.4191 0.16653 0)
(7.51721 0.191303 0)
(7.59247 0.180893 0)
(7.64432 0.155909 0)
(7.67943 0.126351 0)
(7.70012 0.10216 0)
(7.71074 0.0891505 0)
(7.71704 0.0863804 0)
(7.72381 0.0869244 0)
(7.73381 0.0815865 0)
(7.74742 0.0640244 0)
(7.76339 0.033716 0)
(7.78021 -0.00496337 0)
(7.7972 -0.0460384 0)
(7.81468 -0.0849942 0)
(7.83356 -0.120043 0)
(7.85482 -0.151706 0)
(7.87919 -0.181685 0)
(7.90706 -0.211884 0)
(7.93854 -0.24393 0)
(7.97363 -0.279111 0)
(8.01222 -0.318507 0)
(8.05415 -0.363153 0)
(8.09918 -0.414154 0)
(8.14691 -0.472744 0)
(8.19675 -0.540307 0)
(8.24772 -0.618366 0)
(8.29844 -0.708494 0)
(8.34681 -0.812271 0)
(8.39034 -0.930833 0)
(8.42504 -1.06517 0)
(8.44823 -1.21398 0)
(7.34017 0.0541118 0)
(7.39535 0.133021 0)
(7.4737 0.159285 0)
(7.53861 0.154643 0)
(7.58578 0.136276 0)
(7.61964 0.113233 0)
(7.6419 0.094187 0)
(7.65601 0.0842749 0)
(7.66695 0.0823438 0)
(7.67897 0.0818848 0)
(7.69435 0.0747186 0)
(7.71313 0.0555518 0)
(7.73381 0.0243739 0)
(7.7547 -0.0146044 0)
(7.77497 -0.0559074 0)
(7.79479 -0.0954514 0)
(7.81501 -0.131649 0)
(7.83664 -0.165004 0)
(7.86046 -0.197081 0)
(7.88695 -0.22963 0)
(7.9163 -0.264158 0)
(7.9485 -0.301873 0)
(7.98341 -0.343795 0)
(8.0208 -0.390895 0)
(8.06031 -0.444178 0)
(8.10144 -0.504726 0)
(8.14344 -0.573693 0)
(8.18525 -0.652281 0)
(8.22545 -0.74164 0)
(8.26206 -0.842806 0)
(8.29284 -0.956375 0)
(8.31449 -1.08265 0)
(8.32491 -1.22034 0)
(7.33788 0.0414945 0)
(7.37881 0.106138 0)
(7.44141 0.131845 0)
(7.4971 0.131268 0)
(7.53975 0.118059 0)
(7.57193 0.100167 0)
(7.59487 0.0850265 0)
(7.61132 0.0771015 0)
(7.62555 0.0751549 0)
(7.64129 0.0731704 0)
(7.66041 0.063944 0)
(7.68271 0.0431493 0)
(7.70659 0.0112406 0)
(7.7303 -0.0276929 0)
(7.75284 -0.0686649 0)
(7.77425 -0.108121 0)
(7.79528 -0.144785 0)
(7.81691 -0.179207 0)
(7.83994 -0.212833 0)
(7.86488 -0.247235 0)
(7.89196 -0.283764 0)
(7.92115 -0.323509 0)
(7.95229 -0.367399 0)
(7.98509 -0.416309 0)
(8.01913 -0.471125 0)
(8.05381 -0.532764 0)
(8.08832 -0.602154 0)
(8.12157 -0.680201 0)
(8.1522 -0.767697 0)
(8.17839 -0.865252 0)
(8.1982 -0.973065 0)
(8.20892 -1.091 0)
(8.20896 -1.21779 0)
(7.33642 0.0320765 0)
(7.36718 0.0845223 0)
(7.41728 0.108309 0)
(7.46483 0.110194 0)
(7.50317 0.100699 0)
(7.53347 0.0867997 0)
(7.55658 0.0748779 0)
(7.57464 0.0686444 0)
(7.59123 0.0666521 0)
(7.60952 0.0632694 0)
(7.63106 0.0521681 0)
(7.65552 0.0299254 0)
(7.6813 -0.00255891 0)
(7.70667 -0.0413233 0)
(7.73056 -0.0818369 0)
(7.7529 -0.121021 0)
(7.7743 -0.157888 0)
(7.79565 -0.193047 0)
(7.81771 -0.227843 0)
(7.84098 -0.263689 0)
(7.86568 -0.301783 0)
(7.8918 -0.343086 0)
(7.91914 -0.388417 0)
(7.94739 -0.438545 0)
(7.97606 -0.494224 0)
(8.00453 -0.556206 0)
(8.03198 -0.625209 0)
(8.05735 -0.70188 0)
(8.07936 -0.786716 0)
(8.09641 -0.880003 0)
(8.10687 -0.981656 0)
(8.1085 -1.09127 0)
(8.10016 -1.20762 0)
(7.33547 0.0249028 0)
(7.35893 0.0670431 0)
(7.39916 0.088131 0)
(7.43966 0.0913145 0)
(7.47396 0.0844927 0)
(7.50226 0.0736784 0)
(7.52507 0.0642574 0)
(7.54404 0.0591611 0)
(7.56212 0.0567215 0)
(7.58204 0.051698 0)
(7.60505 0.0386046 0)
(7.63075 0.0148709 0)
(7.65758 -0.0181649 0)
(7.68384 -0.0566222 0)
(7.70842 -0.0964152 0)
(7.73113 -0.134966 0)
(7.75247 -0.171612 0)
(7.77322 -0.207059 0)
(7.79407 -0.242571 0)
(7.81551 -0.279405 0)
(7.83774 -0.318592 0)
(7.86074 -0.360953 0)
(7.88429 -0.407188 0)
(7.90807 -0.457943 0)
(7.93157 -0.51384 0)
(7.95416 -0.575471 0)
(7.97505 -0.643367 0)
(7.99324 -0.717952 0)
(8.00759 -0.79949 0)
(8.0167 -0.888027 0)
(8.01923 -0.983287 0)
(8.01339 -1.0847 0)
(7.99835 -1.19113 0)
(7.33484 0.0193266 0)
(7.35299 0.0528137 0)
(7.38547 0.070825 0)
(7.41992 0.0744014 0)
(7.4505 0.0693458 0)
(7.47676 0.0607756 0)
(7.49894 0.0532204 0)
(7.51831 0.04889 0)
(7.53729 0.0458796 0)
(7.55815 0.0392792 0)
(7.58192 0.0243475 0)
(7.60813 -0.000722216 0)
(7.63529 -0.0341922 0)
(7.66175 -0.0722574 0)
(7.68641 -0.111232 0)
(7.70899 -0.148992 0)
(7.72989 -0.185184 0)
(7.74975 -0.220612 0)
(7.76921 -0.256477 0)
(7.78869 -0.293893 0)
(7.80838 -0.333737 0)
(7.82825 -0.376689 0)
(7.84807 -0.423323 0)
(7.86752 -0.474165 0)
(7.88609 -0.529709 0)
(7.90318 -0.590399 0)
(7.91804 -0.656598 0)
(7.92977 -0.728555 0)
(7.93736 -0.806349 0)
(7.93964 -0.889856 0)
(7.93552 -0.97868 0)
(7.92357 -1.07217 0)
(7.90324 -1.16927 0)
(7.33442 0.0149063 0)
(7.34866 0.0411317 0)
(7.37506 0.055948 0)
(7.40438 0.0592565 0)
(7.43157 0.0552607 0)
(7.45581 0.04827 0)
(7.47713 0.0420535 0)
(7.49649 0.0381417 0)
(7.51586 0.0343792 0)
(7.53712 0.026148 0)
(7.56108 0.00938922 0)
(7.58725 -0.016993 0)
(7.61421 -0.0508624 0)
(7.64037 -0.088465 0)
(7.66464 -0.126487 0)
(7.68669 -0.163248 0)
(7.70679 -0.198707 0)
(7.7255 -0.23378 0)
(7.74337 -0.269622 0)
(7.76078 -0.307214 0)
(7.77789 -0.347284 0)
(7.79464 -0.390372 0)
(7.81083 -0.436926 0)
(7.82612 -0.487354 0)
(7.84005 -0.542029 0)
(7.85204 -0.601262 0)
(7.86141 -0.665279 0)
(7.86738 -0.734183 0)
(7.86908 -0.807918 0)
(7.86554 -0.886245 0)
(7.85588 -0.968697 0)
(7.839 -1.05459 0)
(7.81456 -1.143 0)
(7.33411 0.0113364 0)
(7.34547 0.031449 0)
(7.36709 0.0431154 0)
(7.3921 0.0456866 0)
(7.41625 0.0421841 0)
(7.43854 0.0362081 0)
(7.45884 0.0308645 0)
(7.47788 0.0270761 0)
(7.49726 0.0224493 0)
(7.5185 0.0126219 0)
(7.54224 -0.00585316 0)
(7.56795 -0.0334249 0)
(7.59427 -0.0675937 0)
(7.6197 -0.104652 0)
(7.64317 -0.141629 0)
(7.66431 -0.177251 0)
(7.68332 -0.211773 0)
(7.70065 -0.246223 0)
(7.71678 -0.281717 0)
(7.73203 -0.319121 0)
(7.74652 -0.35902 0)
(7.76021 -0.401822 0)
(7.77289 -0.447859 0)
(7.78424 -0.497427 0)
(7.79383 -0.550787 0)
(7.80115 -0.608138 0)
(7.80559 -0.669591 0)
(7.80646 -0.735137 0)
(7.80306 -0.804623 0)
(7.79459 -0.877738 0)
(7.78038 -0.953983 0)
(7.75956 -1.03268 0)
(7.73197 -1.11301 0)
(7.33389 0.00840246 0)
(7.34308 0.0233381 0)
(7.36095 0.0319918 0)
(7.38237 0.0335069 0)
(7.40381 0.0300581 0)
(7.42425 0.0246434 0)
(7.44344 0.0197911 0)
(7.46195 0.0158823 0)
(7.48102 0.0102976 0)
(7.50192 -0.00110374 0)
(7.52511 -0.0212151 0)
(7.55003 -0.0498871 0)
(7.57538 -0.0842787 0)
(7.59973 -0.12072 0)
(7.62208 -0.156555 0)
(7.64202 -0.190895 0)
(7.65968 -0.224278 0)
(7.67543 -0.257843 0)
(7.68968 -0.292681 0)
(7.7027 -0.32955 0)
(7.71459 -0.368908 0)
(7.72528 -0.411038 0)
(7.73459 -0.456162 0)
(7.74223 -0.504474 0)
(7.74781 -0.556139 0)
(7.75087 -0.61126 0)
(7.7509 -0.669855 0)
(7.74732 -0.731832 0)
(7.73955 -0.796974 0)
(7.72695 -0.864926 0)
(7.70901 -0.935187 0)
(7.6851 -1.00711 0)
(7.65515 -1.07998 0)
(7.33373 0.00595133 0)
(7.34127 0.0164667 0)
(7.35619 0.0222905 0)
(7.37462 0.0225451 0)
(7.39369 0.0188145 0)
(7.4124 0.0135957 0)
(7.43045 0.00891665 0)
(7.44826 0.00468512 0)
(7.46682 -0.00192298 0)
(7.48714 -0.0148493 0)
(7.50952 -0.0364812 0)
(7.53338 -0.0661237 0)
(7.55749 -0.100627 0)
(7.5805 -0.13636 0)
(7.60145 -0.17096 0)
(7.61994 -0.203896 0)
(7.63603 -0.235968 0)
(7.65004 -0.268424 0)
(7.66231 -0.302332 0)
(7.67305 -0.338357 0)
(7.68235 -0.376839 0)
(7.69014 -0.41795 0)
(7.69625 -0.461811 0)
(7.70042 -0.508529 0)
(7.70232 -0.558184 0)
(7.70155 -0.6108 0)
(7.69767 -0.666325 0)
(7.69021 -0.724606 0)
(7.67871 -0.785386 0)
(7.66268 -0.848291 0)
(7.64175 -0.912837 0)
(7.61544 -0.978422 0)
(7.58377 -1.04443 0)
(7.33361 0.00387127 0)
(7.33988 0.0105747 0)
(7.35248 0.0137663 0)
(7.36844 0.0126402 0)
(7.38544 0.00837756 0)
(7.40256 0.00306765 0)
(7.41948 -0.00169243 0)
(7.43649 -0.0064061 0)
(7.45438 -0.0140772 0)
(7.47393 -0.0284651 0)
(7.49532 -0.0514938 0)
(7.51793 -0.081971 0)
(7.54058 -0.116469 0)
(7.56203 -0.151399 0)
(7.58136 -0.184671 0)
(7.59819 -0.216086 0)
(7.61255 -0.246687 0)
(7.62469 -0.277829 0)
(7.63489 -0.310559 0)
(7.64333 -0.345459 0)
(7.65008 -0.382764 0)
(7.65508 -0.422549 0)
(7.65817 -0.464846 0)
(7.65912 -0.509685 0)
(7.65766 -0.557074 0)
(7.65344 -0.606977 0)
(7.64612 -0.659288 0)
(7.63532 -0.713814 0)
(7.62068 -0.770274 0)
(7.60183 -0.828295 0)
(7.5785 -0.88742 0)
(7.55037 -0.947097 0)
(7.51752 -1.0068 0)
(7.33351 0.00207919 0)
(7.33881 0.00545855 0)
(7.34958 0.00621197 0)
(7.36351 0.00364491 0)
(7.37873 -0.00133062 0)
(7.39441 -0.0069532 0)
(7.41023 -0.0119948 0)
(7.42639 -0.0173134 0)
(7.4435 -0.0260627 0)
(7.46216 -0.0418282 0)
(7.48242 -0.0661076 0)
(7.50362 -0.0972602 0)
(7.52466 -0.131616 0)
(7.54437 -0.165632 0)
(7.56191 -0.197479 0)
(7.57692 -0.227263 0)
(7.5894 -0.256253 0)
(7.59957 -0.285896 0)
(7.60765 -0.317229 0)
(7.6138 -0.350757 0)
(7.61806 -0.386624 0)
(7.62038 -0.424818 0)
(7.62063 -0.465295 0)
(7.61861 -0.50802 0)
(7.61409 -0.552947 0)
(7.60681 -0.599989 0)
(7.59648 -0.649001 0)
(7.58282 -0.699768 0)
(7.56553 -0.751998 0)
(7.54438 -0.805331 0)
(7.51917 -0.859342 0)
(7.4897 -0.913534 0)
(7.45607 -0.967465 0)
(7.33344 0.000509684 0)
(7.33799 0.000953927 0)
(7.3473 -0.000550699 0)
(7.35958 -0.00457813 0)
(7.37328 -0.0103927 0)
(7.38768 -0.0164945 0)
(7.40246 -0.0219704 0)
(7.41776 -0.0279806 0)
(7.43403 -0.0377982 0)
(7.45171 -0.0548367 0)
(7.47073 -0.0802029 0)
(7.49043 -0.111854 0)
(7.50973 -0.145913 0)
(7.52757 -0.178897 0)
(7.54319 -0.209217 0)
(7.55626 -0.237266 0)
(7.56677 -0.264515 0)
(7.57489 -0.292498 0)
(7.58082 -0.322239 0)
(7.58469 -0.354179 0)
(7.58653 -0.388382 0)
(7.5863 -0.42476 0)
(7.58388 -0.463207 0)
(7.57913 -0.503635 0)
(7.57186 -0.545951 0)
(7.56186 -0.590035 0)
(7.54891 -0.635715 0)
(7.5328 -0.682762 0)
(7.51332 -0.730888 0)
(7.49031 -0.779749 0)
(7.46365 -0.828959 0)
(7.43321 -0.878072 0)
(7.39914 -0.926721 0)
(7.33339 -0.000884611 0)
(7.33735 -0.00306911 0)
(7.34553 -0.006674 0)
(7.35647 -0.0121556 0)
(7.36889 -0.0188923 0)
(7.38217 -0.0255934 0)
(7.39599 -0.031615 0)
(7.41044 -0.0383711 0)
(7.42586 -0.0492212 0)
(7.44252 -0.0674067 0)
(7.46024 -0.0936743 0)
(7.47835 -0.125627 0)
(7.49583 -0.159218 0)
(7.51171 -0.191035 0)
(7.52532 -0.219724 0)
(7.53635 -0.245935 0)
(7.54481 -0.271327 0)
(7.55084 -0.297507 0)
(7.55461 -0.325489 0)
(7.55623 -0.355656 0)
(7.55573 -0.388003 0)
(7.55307 -0.422381 0)
(7.54818 -0.45863 0)
(7.54093 -0.49662 0)
(7.53118 -0.536226 0)
(7.51877 -0.5773 0)
(7.50354 -0.619655 0)
(7.48535 -0.663058 0)
(7.46406 -0.70723 0)
(7.43956 -0.751849 0)
(7.4118 -0.796566 0)
(7.38071 -0.840988 0)
(7.34645 -0.884807 0)
(7.33334 -0.00214514 0)
(7.33687 -0.00672126 0)
(7.34417 -0.0122933 0)
(7.35404 -0.0192083 0)
(7.36542 -0.0269185 0)
(7.37773 -0.0343028 0)
(7.3907 -0.0409469 0)
(7.40435 -0.0484746 0)
(7.41892 -0.0602984 0)
(7.43453 -0.0794834 0)
(7.45094 -0.106446 0)
(7.46741 -0.138481 0)
(7.48303 -0.171413 0)
(7.49689 -0.201916 0)
(7.50841 -0.22886 0)
(7.51734 -0.253135 0)
(7.5237 -0.276561 0)
(7.52761 -0.300814 0)
(7.52923 -0.326892 0)
(7.52864 -0.355131 0)
(7.52589 -0.385465 0)
(7.52094 -0.417693 0)
(7.51373 -0.451617 0)
(7.50419 -0.48707 0)
(7.49221 -0.523905 0)
(7.47768 -0.561956 0)
(7.46048 -0.601028 0)
(7.44053 -0.640889 0)
(7.41775 -0.681274 0)
(7.39207 -0.721887 0)
(7.36349 -0.762414 0)
(7.332 -0.802508 0)
(7.29774 -0.841915 0)
(7.33331 -0.00330967 0)
(7.33651 -0.0101 0)
(7.34315 -0.0175316 0)
(7.35221 -0.0258524 0)
(7.36274 -0.0345622 0)
(7.37426 -0.0426802 0)
(7.38648 -0.0499889 0)
(7.3994 -0.0582819 0)
(7.41316 -0.0709924 0)
(7.42775 -0.0910046 0)
(7.44283 -0.118432 0)
(7.45767 -0.15031 0)
(7.47139 -0.182374 0)
(7.4832 -0.211405 0)
(7.49259 -0.236487 0)
(7.49939 -0.258728 0)
(7.50362 -0.280094 0)
(7.5054 -0.302311 0)
(7.50488 -0.326365 0)
(7.50214 -0.352547 0)
(7.49721 -0.380743 0)
(7.49009 -0.410709 0)
(7.48074 -0.442214 0)
(7.4691 -0.475069 0)
(7.45511 -0.509107 0)
(7.4387 -0.544154 0)
(7.41981 -0.580012 0)
(7.39837 -0.616455 0)
(7.37436 -0.653233 0)
(7.34776 -0.690076 0)
(7.31859 -0.726704 0)
(7.28688 -0.762811 0)
(7.25278 -0.79819 0)
(7.33329 -0.00440798 0)
(7.33626 -0.0132915 0)
(7.34244 -0.0225067 0)
(7.35091 -0.0322096 0)
(7.36081 -0.0419331 0)
(7.3717 -0.0508174 0)
(7.38332 -0.0588148 0)
(7.3956 -0.0678509 0)
(7.4086 -0.0813453 0)
(7.42221 -0.101993 0)
(7.43598 -0.129631 0)
(7.4492 -0.161084 0)
(7.46101 -0.192044 0)
(7.47075 -0.219419 0)
(7.478 -0.242507 0)
(7.48264 -0.262613 0)
(7.48472 -0.281825 0)
(7.48439 -0.30191 0)
(7.48175 -0.323838 0)
(7.47691 -0.347859 0)
(7.46989 -0.373818 0)
(7.46072 -0.401439 0)
(7.44936 -0.430466 0)
(7.4358 -0.460693 0)
(7.42001 -0.49194 0)
(7.40194 -0.524029 0)
(7.38157 -0.556763 0)
(7.35887 -0.589925 0)
(7.33386 -0.623283 0)
(7.30654 -0.65659 0)
(7.27696 -0.689598 0)
(7.24518 -0.722038 0)
(7.21133 -0.753738 0)
(7.33328 -0.00547119 0)
(7.33611 -0.0163816 0)
(7.34201 -0.0273334 0)
(7.35011 -0.0383937 0)
(7.3596 -0.0491196 0)
(7.37004 -0.0587608 0)
(7.38119 -0.0674213 0)
(7.39294 -0.0771298 0)
(7.40527 -0.0912648 0)
(7.41795 -0.112325 0)
(7.43048 -0.1399 0)
(7.4421 -0.170646 0)
(7.45203 -0.200261 0)
(7.45971 -0.225797 0)
(7.4648 -0.246762 0)
(7.46727 -0.264641 0)
(7.46721 -0.281622 0)
(7.46475 -0.299499 0)
(7.46003 -0.319223 0)
(7.45314 -0.341006 0)
(7.44411 -0.36466 0)
(7.43299 -0.389884 0)
(7.41976 -0.416403 0)
(7.40444 -0.443999 0)
(7.387 -0.472487 0)
(7.36746 -0.501686 0)
(7.3458 -0.531404 0)
(7.32204 -0.561435 0)
(7.2962 -0.591563 0)
(7.26832 -0.621564 0)
(7.23847 -0.651217 0)
(7.20672 -0.680286 0)
(7.17319 -0.70863 0)
(7.33327 -0.00653185 0)
(7.33607 -0.0194637 0)
(7.34188 -0.0321524 0)
(7.34984 -0.0445794 0)
(7.35914 -0.0563261 0)
(7.36935 -0.066746 0)
(7.38019 -0.076075 0)
(7.39154 -0.0864077 0)
(7.40328 -0.101043 0)
(7.41511 -0.122272 0)
(7.42643 -0.149461 0)
(7.43649 -0.179159 0)
(7.44457 -0.20712 0)
(7.45019 -0.230576 0)
(7.45314 -0.249247 0)
(7.45344 -0.264775 0)
(7.45123 -0.279431 0)
(7.44667 -0.295021 0)
(7.43989 -0.312467 0)
(7.43099 -0.33195 0)
(7.42003 -0.353251 0)
(7.40705 -0.376048 0)
(7.39206 -0.400053 0)
(7.3751 -0.425041 0)
(7.35618 -0.450823 0)
(7.33531 -0.477219 0)
(7.31252 -0.504042 0)
(7.28784 -0.531099 0)
(7.26132 -0.558188 0)
(7.23301 -0.585106 0)
(7.20299 -0.611656 0)
(7.17134 -0.637632 0)
(7.13817 -0.662914 0)
(7.33328 -0.00762525 0)
(7.33613 -0.0226291 0)
(7.34204 -0.0370695 0)
(7.35009 -0.0508296 0)
(7.35943 -0.0635157 0)
(7.36961 -0.0745965 0)
(7.38033 -0.0844496 0)
(7.39144 -0.0952321 0)
(7.40274 -0.11015 0)
(7.41384 -0.131281 0)
(7.42405 -0.157786 0)
(7.43262 -0.186144 0)
(7.43888 -0.212203 0)
(7.44246 -0.233398 0)
(7.44326 -0.249654 0)
(7.44138 -0.26276 0)
(7.43701 -0.275041 0)
(7.43034 -0.288302 0)
(7.42152 -0.303437 0)
(7.41065 -0.32059 0)
(7.39781 -0.33952 0)
(7.38304 -0.359889 0)
(7.36638 -0.381401 0)
(7.34789 -0.403827 0)
(7.32759 -0.426975 0)
(7.30552 -0.45067 0)
(7.28172 -0.474731 0)
(7.25625 -0.498974 0)
(7.22915 -0.523215 0)
(7.2005 -0.547267 0)
(7.17037 -0.570955 0)
(7.13887 -0.594095 0)
(7.10609 -0.616588 0)
(7.3333 -0.00879965 0)
(7.33634 -0.0260367 0)
(7.34261 -0.0423779 0)
(7.35108 -0.0576128 0)
(7.3608 -0.0713786 0)
(7.37123 -0.0832462 0)
(7.38205 -0.0936973 0)
(7.39304 -0.104897 0)
(7.40396 -0.119909 0)
(7.41434 -0.140588 0)
(7.42347 -0.165937 0)
(7.43056 -0.192442 0)
(7.43503 -0.216128 0)
(7.43659 -0.234681 0)
(7.43524 -0.248245 0)
(7.43118 -0.258735 0)
(7.42465 -0.268512 0)
(7.41588 -0.279357 0)
(7.40503 -0.292121 0)
(7.39222 -0.306911 0)
(7.37754 -0.32346 0)
(7.36105 -0.341415 0)
(7.34281 -0.360473 0)
(7.32287 -0.3804 0)
(7.30129 -0.401005 0)
(7.27812 -0.422114 0)
(7.25341 -0.443555 0)
(7.22722 -0.465152 0)
(7.19962 -0.486733 0)
(7.17069 -0.50813 0)
(7.14051 -0.529184 0)
(7.10917 -0.549732 0)
(7.07677 -0.569687 0)
(7.33333 -0.010101 0)
(7.33665 -0.0297497 0)
(7.3435 -0.0479929 0)
(7.35263 -0.0644899 0)
(7.36298 -0.0789521 0)
(7.37395 -0.0911424 0)
(7.38515 -0.101743 0)
(7.39633 -0.112988 0)
(7.40716 -0.12781 0)
(7.41706 -0.147817 0)
(7.42526 -0.171824 0)
(7.43098 -0.196321 0)
(7.43367 -0.217517 0)
(7.43317 -0.233357 0)
(7.42961 -0.244201 0)
(7.42329 -0.252079 0)
(7.41453 -0.259372 0)
(7.40359 -0.267824 0)
(7.39067 -0.278241 0)
(7.3759 -0.290695 0)
(7.35938 -0.304897 0)
(7.3412 -0.320484 0)
(7.32141 -0.337151 0)
(7.30009 -0.35466 0)
(7.27729 -0.372824 0)
(7.25308 -0.391471 0)
(7.22752 -0.410434 0)
(7.20069 -0.429551 0)
(7.17264 -0.448659 0)
(7.14347 -0.467603 0)
(7.11325 -0.486241 0)
(7.08209 -0.504424 0)
(7.05005 -0.522077 0)
(7.33339 -0.0116424 0)
(7.33734 -0.0342581 0)
(7.34535 -0.0550373 0)
(7.35584 -0.0735036 0)
(7.3674 -0.0893737 0)
(7.37928 -0.102473 0)
(7.39102 -0.113551 0)
(7.40232 -0.124818 0)
(7.41286 -0.139039 0)
(7.42209 -0.157623 0)
(7.42922 -0.179324 0)
(7.43347 -0.200794 0)
(7.43436 -0.218569 0)
(7.43181 -0.23094 0)
(7.42605 -0.238507 0)
(7.41748 -0.243395 0)
(7.40649 -0.247965 0)
(7.39339 -0.253891 0)
(7.37841 -0.261899 0)
(7.3617 -0.272007 0)
(7.34337 -0.28389 0)
(7.32352 -0.29717 0)
(7.30223 -0.311529 0)
(7.27957 -0.326727 0)
(7.25561 -0.342575 0)
(7.23041 -0.358903 0)
(7.20405 -0.375551 0)
(7.1766 -0.392364 0)
(7.14813 -0.40919 0)
(7.11873 -0.425887 0)
(7.08847 -0.442321 0)
(7.05746 -0.458361 0)
(7.02575 -0.473935 0)
(7.33343 -0.013443 0)
(7.33793 -0.039149 0)
(7.34715 -0.0618667 0)
(7.35912 -0.0810547 0)
(7.37224 -0.0967806 0)
(7.38562 -0.109319 0)
(7.39866 -0.119788 0)
(7.41091 -0.130516 0)
(7.42192 -0.144085 0)
(7.43103 -0.161555 0)
(7.43737 -0.181436 0)
(7.44022 -0.200391 0)
(7.43918 -0.2152 0)
(7.43432 -0.224477 0)
(7.42605 -0.229072 0)
(7.4149 -0.231213 0)
(7.40138 -0.233253 0)
(7.38587 -0.2368 0)
(7.36864 -0.242518 0)
(7.34986 -0.250375 0)
(7.32965 -0.260028 0)
(7.3081 -0.271085 0)
(7.28529 -0.283228 0)
(7.2613 -0.296215 0)
(7.23619 -0.309859 0)
(7.21003 -0.323996 0)
(7.18289 -0.33847 0)
(7.15484 -0.353136 0)
(7.12595 -0.367852 0)
(7.09632 -0.382485 0)
(7.06601 -0.396913 0)
(7.03513 -0.411013 0)
(7.00371 -0.424717 0)
(7.33367 -0.0159476 0)
(7.34004 -0.0467894 0)
(7.3523 -0.0741271 0)
(7.36739 -0.0969676 0)
(7.383 -0.11512 0)
(7.39801 -0.128786 0)
(7.41179 -0.13921 0)
(7.42399 -0.148827 0)
(7.43436 -0.160183 0)
(7.4424 -0.174293 0)
(7.44734 -0.189795 0)
(7.44848 -0.203734 0)
(7.44546 -0.213407 0)
(7.43839 -0.217894 0)
(7.42775 -0.218312 0)
(7.41417 -0.216938 0)
(7.39825 -0.216016 0)
(7.38042 -0.216993 0)
(7.36101 -0.220383 0)
(7.34021 -0.226049 0)
(7.31815 -0.233586 0)
(7.29493 -0.242568 0)
(7.27064 -0.252659 0)
(7.24534 -0.263612 0)
(7.2191 -0.275236 0)
(7.19199 -0.287371 0)
(7.16406 -0.299868 0)
(7.1354 -0.312591 0)
(7.10608 -0.325407 0)
(7.07619 -0.338194 0)
(7.04578 -0.350838 0)
(7.01497 -0.363223 0)
(6.98378 -0.37528 0)
(7.33357 -0.0186874 0)
(7.34048 -0.0529898 0)
(7.35482 -0.0807831 0)
(7.37299 -0.102116 0)
(7.39224 -0.118064 0)
(7.41105 -0.129609 0)
(7.42819 -0.138463 0)
(7.44289 -0.147168 0)
(7.45464 -0.157936 0)
(7.46286 -0.171211 0)
(7.46681 -0.185158 0)
(7.46593 -0.196703 0)
(7.46009 -0.203383 0)
(7.44969 -0.204678 0)
(7.43549 -0.202038 0)
(7.41838 -0.1979 0)
(7.39913 -0.194511 0)
(7.37828 -0.193241 0)
(7.35617 -0.194516 0)
(7.33301 -0.198138 0)
(7.3089 -0.203665 0)
(7.2839 -0.210657 0)
(7.25805 -0.218772 0)
(7.23142 -0.227762 0)
(7.20403 -0.237442 0)
(7.17596 -0.247657 0)
(7.14724 -0.258272 0)
(7.11796 -0.269159 0)
(7.08818 -0.280199 0)
(7.05798 -0.29128 0)
(7.02743 -0.302296 0)
(6.99666 -0.31314 0)
(6.96566 -0.32374 0)
(7.33468 -0.0243483 0)
(7.34781 -0.0713133 0)
(7.36973 -0.110225 0)
(7.39378 -0.139229 0)
(7.41667 -0.158849 0)
(7.4372 -0.170437 0)
(7.45435 -0.176559 0)
(7.46767 -0.180478 0)
(7.47718 -0.184839 0)
(7.48279 -0.190425 0)
(7.48414 -0.19587 0)
(7.48078 -0.198775 0)
(7.47251 -0.19743 0)
(7.45962 -0.191897 0)
(7.44284 -0.183878 0)
(7.42307 -0.175726 0)
(7.40116 -0.169386 0)
(7.37776 -0.165861 0)
(7.35329 -0.165268 0)
(7.32797 -0.167201 0)
(7.30192 -0.171101 0)
(7.27521 -0.176474 0)
(7.24786 -0.182963 0)
(7.21992 -0.190317 0)
(7.19139 -0.198359 0)
(7.16234 -0.206946 0)
(7.13279 -0.215959 0)
(7.10282 -0.225286 0)
(7.07249 -0.234826 0)
(7.04189 -0.24448 0)
(7.01109 -0.254154 0)
(6.98021 -0.263745 0)
(6.94926 -0.273168 0)
(7.33373 -0.0275002 0)
(7.34649 -0.0728893 0)
(7.37359 -0.105348 0)
(7.40606 -0.128634 0)
(7.43836 -0.14428 0)
(7.46758 -0.153091 0)
(7.49153 -0.157659 0)
(7.50924 -0.161345 0)
(7.52063 -0.166505 0)
(7.52577 -0.173204 0)
(7.52458 -0.17917 0)
(7.51696 -0.181388 0)
(7.50319 -0.178133 0)
(7.48411 -0.169919 0)
(7.46103 -0.159011 0)
(7.43539 -0.148164 0)
(7.40836 -0.139483 0)
(7.3807 -0.133945 0)
(7.35278 -0.131557 0)
(7.3247 -0.131805 0)
(7.29642 -0.134052 0)
(7.26787 -0.137766 0)
(7.23898 -0.142568 0)
(7.20971 -0.148211 0)
(7.18004 -0.154525 0)
(7.15 -0.161387 0)
(7.11959 -0.168704 0)
(7.08887 -0.176399 0)
(7.05791 -0.184398 0)
(7.02681 -0.192627 0)
(6.99564 -0.201011 0)
(6.96457 -0.209463 0)
(6.93361 -0.217891 0)
(7.33877 -0.0492933 0)
(7.37063 -0.135073 0)
(7.41074 -0.191286 0)
(7.4489 -0.223285 0)
(7.48518 -0.237246 0)
(7.51819 -0.237814 0)
(7.54461 -0.230409 0)
(7.56251 -0.220007 0)
(7.57149 -0.209818 0)
(7.57204 -0.200518 0)
(7.56505 -0.190564 0)
(7.55128 -0.177945 0)
(7.53158 -0.162057 0)
(7.50707 -0.144221 0)
(7.47914 -0.126922 0)
(7.44915 -0.112479 0)
(7.41824 -0.102137 0)
(7.38717 -0.0959627 0)
(7.35631 -0.0932677 0)
(7.32575 -0.0931404 0)
(7.29541 -0.0947927 0)
(7.26515 -0.0976806 0)
(7.23485 -0.101476 0)
(7.20439 -0.105988 0)
(7.17371 -0.111099 0)
(7.14276 -0.116727 0)
(7.11151 -0.12281 0)
(7.08001 -0.129301 0)
(7.04834 -0.136167 0)
(7.0166 -0.143371 0)
(6.98488 -0.15088 0)
(6.95339 -0.158623 0)
(6.92214 -0.166508 0)
(7.33778 -0.0360451 0)
(7.38834 -0.0907302 0)
(7.47353 -0.133596 0)
(7.56469 -0.168565 0)
(7.65286 -0.189072 0)
(7.73017 -0.194239 0)
(7.78825 -0.188469 0)
(7.82207 -0.177654 0)
(7.82959 -0.167107 0)
(7.81164 -0.158819 0)
(7.77209 -0.150673 0)
(7.71731 -0.13943 0)
(7.65499 -0.124016 0)
(7.59225 -0.105684 0)
(7.5341 -0.087209 0)
(7.48279 -0.071377 0)
(7.43832 -0.0598053 0)
(7.39933 -0.0526881 0)
(7.36408 -0.0492598 0)
(7.3311 -0.0484431 0)
(7.29935 -0.0493018 0)
(7.26821 -0.0512044 0)
(7.23734 -0.0537914 0)
(7.20654 -0.0568753 0)
(7.17571 -0.0603445 0)
(7.14478 -0.0641444 0)
(7.11372 -0.0683544 0)
(7.08252 -0.0730579 0)
(7.05125 -0.0783157 0)
(7.01997 -0.0841186 0)
(6.98887 -0.0905859 0)
(6.95824 -0.0976349 0)
(6.92825 -0.105636 0)
(7.39808 -0.188988 0)
(7.58885 -0.351688 0)
(7.7555 -0.412963 0)
(7.87774 -0.438047 0)
(7.95868 -0.429987 0)
(7.99643 -0.394728 0)
(7.99332 -0.340836 0)
(7.95451 -0.275588 0)
(7.88544 -0.206563 0)
(7.79355 -0.141259 0)
(7.69089 -0.0854328 0)
(7.59042 -0.0423299 0)
(7.49993 -0.0129587 0)
(7.4238 0.00349672 0)
(7.36253 0.00975804 0)
(7.31386 0.00956266 0)
(7.27446 0.00637593 0)
(7.24107 0.00255554 0)
(7.21119 -0.000797106 0)
(7.18319 -0.00349558 0)
(7.15615 -0.00578759 0)
(7.12958 -0.0079958 0)
(7.10324 -0.0103551 0)
(7.07704 -0.0129941 0)
(7.05092 -0.0159916 0)
(7.02486 -0.0193883 0)
(6.99899 -0.0231357 0)
(6.97315 -0.0272404 0)
(6.94728 -0.0318429 0)
(6.92118 -0.0370843 0)
(6.89523 -0.0433435 0)
(6.86874 -0.0505533 0)
(6.84309 -0.0600347 0)
(7.16233 -0.179674 0)
(6.92729 -0.326623 0)
(6.54737 -0.359731 0)
(6.13429 -0.343736 0)
(5.76808 -0.293289 0)
(5.45514 -0.220536 0)
(5.20491 -0.137149 0)
(5.02638 -0.0539377 0)
(4.91694 0.017366 0)
(4.86551 0.0664469 0)
(4.85497 0.0891201 0)
(4.86826 0.0903606 0)
(4.89341 0.080182 0)
(4.92138 0.066444 0)
(4.94728 0.0538691 0)
(4.96917 0.0444739 0)
(4.98687 0.0383685 0)
(5.00113 0.0347282 0)
(5.01285 0.0325598 0)
(5.02272 0.0310917 0)
(5.03115 0.0298571 0)
(5.03829 0.0286185 0)
(5.04414 0.0272615 0)
(5.04861 0.0257168 0)
(5.05159 0.0239091 0)
(5.05297 0.0218115 0)
(5.0525 0.019561 0)
(5.05016 0.01718 0)
(5.04596 0.0145069 0)
(5.03947 0.0114737 0)
(5.0311 0.00726828 0)
(5.01844 0.0044296 0)
(5.00794 -0.0118754 0)
(5.72735 -0.891633 0)
(6.83983 -1.0506 0)
(8.53617 -1.67978 0)
(9.94321 -2.97661 0)
(10.0741 -4.37276 0)
(9.0635 -5.20788 0)
(7.75562 -5.36053 0)
(6.71385 -5.10089 0)
(6.0092 -4.68744 0)
(5.53725 -4.24503 0)
(5.21559 -3.82258 0)
(4.99565 -3.43755 0)
(4.84537 -3.09315 0)
(4.74309 -2.78745 0)