# y+ ()       
# Time        	patch         	min           	max           	average       
1900          	lowerWall	4.704526e+00	8.328899e+01	4.341344e+01
1900          	upperWall	3.060454e+01	4.714766e+01	4.149007e+01
