# y+ ()       
# Time        	patch         	min           	max           	average       
200           	lowerWall	5.828749e+00	9.254860e+01	4.556476e+01
200           	upperWall	3.060454e+01	4.696161e+01	4.108654e+01
