# y+ ()       
# Time        	patch         	min           	max           	average       
2000          	lowerWall	5.143388e+00	8.019761e+01	4.399074e+01
2000          	upperWall	3.060454e+01	4.712971e+01	4.142140e+01
