/*--------------------------------*- C++ -*----------------------------------*\
  =========                 |
  \\      /  F ield         | OpenFOAM: The Open Source CFD Toolbox
   \\    /   O peration     | Website:  https://openfoam.org
    \\  /    A nd           | Version:  10
     \\/     M anipulation  |
\*---------------------------------------------------------------------------*/
FoamFile
{
    format      ascii;
    class       volScalarField;
    location    "0.175";
    object      nut;
}
// * * * * * * * * * * * * * * * * * * * * * * * * * * * * * * * * * * * * * //

dimensions      [0 2 -1 0 0 0 0];

internalField   nonuniform List<scalar> 
6820
(
0.000503209
0.000397056
0.000324447
0.000269238
0.000236292
0.000213817
0.000197102
0.00018428
0.000173887
0.00016513
0.000157559
0.000150883
0.000144904
0.000139485
0.000134525
0.000129949
0.000125697
0.000121725
0.000117996
0.000114483
0.000111162
0.000108015
0.000105025
0.00010218
9.9472e-05
9.68926e-05
9.44348e-05
9.21031e-05
8.98732e-05
8.7817e-05
8.57929e-05
8.40912e-05
8.17128e-05
8.18567e-05
0.000143739
0.000196439
0.000210853
0.000206414
0.000197533
0.000187247
0.000177313
0.000168321
0.000160257
0.000153018
0.000146487
0.000140556
0.000135136
0.000130154
0.00012555
0.000121275
0.000117287
0.000113551
0.000110038
0.000106722
0.000103582
0.000100601
9.77625e-05
9.50533e-05
9.24614e-05
8.99782e-05
8.75909e-05
8.53039e-05
8.30682e-05
8.09714e-05
7.87864e-05
7.719e-05
3.85894e-05
2.7387e-05
4.30764e-05
7.45294e-05
9.59701e-05
0.000109361
0.000116633
0.000119952
0.000120896
0.000120369
0.000118929
0.00011693
0.000114592
0.00011206
0.000109427
0.000106755
0.000104084
0.000101441
9.88443e-05
9.63045e-05
9.38284e-05
9.14194e-05
8.90787e-05
8.6806e-05
8.45998e-05
8.24579e-05
8.03769e-05
7.83529e-05
7.63819e-05
7.44536e-05
7.25604e-05
7.06554e-05
6.8824e-05
1.99682e-05
2.35229e-05
2.20557e-05
1.27534e-05
2.90757e-06
1.25257e-05
2.31022e-05
3.18158e-05
3.88494e-05
4.44543e-05
4.88704e-05
5.23106e-05
5.49474e-05
5.6919e-05
5.83453e-05
5.93242e-05
5.9936e-05
6.02465e-05
6.03099e-05
6.01705e-05
5.98648e-05
5.94227e-05
5.88684e-05
5.8222e-05
5.74994e-05
5.67134e-05
5.58739e-05
5.49877e-05
5.40603e-05
5.30918e-05
5.20829e-05
5.10345e-05
4.99716e-05
1.32463e-05
1.50767e-05
1.99275e-05
2.20228e-05
2.14663e-05
1.95093e-05
1.68592e-05
1.38828e-05
1.07966e-05
7.7303e-06
4.7688e-06
1.99208e-06
8.95537e-07
3.18764e-06
5.38147e-06
7.37563e-06
9.1691e-06
1.07702e-05
1.21902e-05
1.34416e-05
1.45374e-05
1.54898e-05
1.63106e-05
1.70106e-05
1.75995e-05
1.80854e-05
1.84756e-05
1.87754e-05
1.89885e-05
1.91184e-05
1.91641e-05
1.91382e-05
1.90263e-05
1.01935e-05
1.10167e-05
1.18415e-05
1.26459e-05
1.3288e-05
1.3839e-05
1.42422e-05
1.44622e-05
1.45102e-05
1.44073e-05
1.41746e-05
1.38347e-05
1.3408e-05
1.29094e-05
1.2358e-05
1.177e-05
1.11591e-05
1.0537e-05
9.91354e-06
9.29641e-06
8.69189e-06
8.10496e-06
7.53955e-06
6.99887e-06
6.48549e-06
6.00184e-06
5.54985e-06
5.13222e-06
4.75005e-06
4.4074e-06
4.10216e-06
3.83587e-06
3.59776e-06
7.53881e-06
8.24967e-06
8.6717e-06
8.90605e-06
8.80495e-06
8.6062e-06
8.45288e-06
8.3757e-06
8.36768e-06
8.40394e-06
8.45723e-06
8.50864e-06
8.54899e-06
8.57561e-06
8.58502e-06
8.57584e-06
8.54829e-06
8.50342e-06
8.44271e-06
8.36793e-06
8.28097e-06
8.18378e-06
8.07832e-06
7.96656e-06
7.85039e-06
7.73179e-06
7.61251e-06
7.49469e-06
7.37944e-06
7.26943e-06
7.16398e-06
7.06759e-06
6.98247e-06
5.75711e-06
6.61284e-06
7.00717e-06
7.11757e-06
6.86582e-06
6.50602e-06
6.17878e-06
5.9084e-06
5.69339e-06
5.52466e-06
5.39021e-06
5.28043e-06
5.18819e-06
5.10839e-06
5.03768e-06
4.97371e-06
4.91459e-06
4.85881e-06
4.80525e-06
4.75318e-06
4.70215e-06
4.65196e-06
4.60259e-06
4.55424e-06
4.50718e-06
4.46187e-06
4.4187e-06
4.37833e-06
4.34096e-06
4.30745e-06
4.27737e-06
4.25234e-06
4.23466e-06
4.4839e-06
5.252e-06
5.54595e-06
5.69741e-06
5.61488e-06
5.40739e-06
5.16506e-06
4.92198e-06
4.69744e-06
4.49941e-06
4.32627e-06
4.17376e-06
4.03801e-06
3.91589e-06
3.80485e-06
3.7029e-06
3.60851e-06
3.52058e-06
3.43831e-06
3.36115e-06
3.28869e-06
3.22065e-06
3.15688e-06
3.09732e-06
3.04197e-06
2.99091e-06
2.94418e-06
2.90194e-06
2.8641e-06
2.83077e-06
2.80183e-06
2.77695e-06
2.76049e-06
3.55573e-06
4.24401e-06
4.52162e-06
4.68218e-06
4.64698e-06
4.48626e-06
4.28722e-06
4.08826e-06
3.90575e-06
3.74433e-06
3.60149e-06
3.47347e-06
3.35734e-06
3.25084e-06
3.15225e-06
3.0604e-06
2.97444e-06
2.89374e-06
2.8178e-06
2.74625e-06
2.67879e-06
2.61522e-06
2.5554e-06
2.49924e-06
2.44666e-06
2.39761e-06
2.35198e-06
2.30964e-06
2.27033e-06
2.23364e-06
2.19938e-06
2.1658e-06
2.13689e-06
2.86627e-06
3.4684e-06
3.72631e-06
3.87378e-06
3.87334e-06
3.76866e-06
3.6233e-06
3.46714e-06
3.31455e-06
3.17271e-06
3.04325e-06
2.9255e-06
2.81829e-06
2.72033e-06
2.63037e-06
2.54732e-06
2.47029e-06
2.39851e-06
2.3314e-06
2.26847e-06
2.20935e-06
2.15375e-06
2.10142e-06
2.05213e-06
2.00566e-06
1.96175e-06
1.92009e-06
1.88025e-06
1.84173e-06
1.80368e-06
1.76567e-06
1.72514e-06
1.68541e-06
2.34078e-06
2.86256e-06
3.11705e-06
3.26797e-06
3.29874e-06
3.23187e-06
3.11618e-06
2.98189e-06
2.84593e-06
2.71741e-06
2.59927e-06
2.49151e-06
2.39329e-06
2.30348e-06
2.22098e-06
2.14483e-06
2.07422e-06
2.00852e-06
1.94718e-06
1.88974e-06
1.83582e-06
1.78506e-06
1.73713e-06
1.69169e-06
1.64837e-06
1.60675e-06
1.56633e-06
1.52646e-06
1.48644e-06
1.44515e-06
1.4019e-06
1.35391e-06
1.30357e-06
1.9306e-06
2.38429e-06
2.63911e-06
2.79225e-06
2.84206e-06
2.80424e-06
2.71752e-06
2.60916e-06
2.49455e-06
2.38221e-06
2.27579e-06
2.17648e-06
2.08446e-06
1.99946e-06
1.92094e-06
1.84832e-06
1.78103e-06
1.7185e-06
1.66023e-06
1.60573e-06
1.55458e-06
1.50632e-06
1.46055e-06
1.4168e-06
1.37459e-06
1.33334e-06
1.29241e-06
1.25099e-06
1.20819e-06
1.16275e-06
1.11377e-06
1.05854e-06
9.98441e-07
1.60295e-06
2.00151e-06
2.25836e-06
2.41791e-06
2.48558e-06
2.47325e-06
2.41054e-06
2.32164e-06
2.22173e-06
2.12005e-06
2.02152e-06
1.92836e-06
1.84143e-06
1.7608e-06
1.68619e-06
1.6171e-06
1.55303e-06
1.49345e-06
1.43784e-06
1.38574e-06
1.33665e-06
1.29012e-06
1.24566e-06
1.20272e-06
1.16075e-06
1.11906e-06
1.07692e-06
1.03342e-06
9.87575e-07
9.3807e-07
8.83884e-07
8.22564e-07
7.54509e-07
1.33537e-06
1.69175e-06
1.95152e-06
2.11915e-06
2.20117e-06
2.20854e-06
2.16531e-06
2.09349e-06
2.00786e-06
1.9176e-06
1.82794e-06
1.74156e-06
1.65974e-06
1.58299e-06
1.51133e-06
1.44455e-06
1.3823e-06
1.3242e-06
1.26981e-06
1.21868e-06
1.17034e-06
1.12428e-06
1.07999e-06
1.03688e-06
9.94318e-07
9.51596e-07
9.07911e-07
8.62332e-07
8.13856e-07
7.61204e-07
7.03299e-07
6.38071e-07
5.65001e-07
1.11221e-06
1.43836e-06
1.70169e-06
1.87854e-06
1.97378e-06
1.99851e-06
1.97272e-06
1.91608e-06
1.84263e-06
1.76156e-06
1.67855e-06
1.59694e-06
1.51858e-06
1.4444e-06
1.3747e-06
1.30949e-06
1.24853e-06
1.19151e-06
1.13801e-06
1.08759e-06
1.03976e-06
9.94031e-07
9.49837e-07
9.06591e-07
8.63646e-07
8.20292e-07
7.75748e-07
7.29137e-07
6.79544e-07
6.25869e-07
5.67178e-07
5.02046e-07
4.29662e-07
9.22336e-07
1.22917e-06
1.49708e-06
1.68372e-06
1.79117e-06
1.83076e-06
1.81986e-06
1.77627e-06
1.71354e-06
1.64089e-06
1.56432e-06
1.48754e-06
1.41276e-06
1.34116e-06
1.27331e-06
1.20937e-06
1.14927e-06
1.09277e-06
1.03955e-06
9.89222e-07
9.41351e-07
8.95458e-07
8.51026e-07
8.07499e-07
7.64282e-07
7.20739e-07
6.76202e-07
6.29975e-07
5.81385e-07
5.29753e-07
4.74682e-07
4.15948e-07
3.53953e-07
7.57717e-07
1.05538e-06
1.32929e-06
1.52585e-06
1.64484e-06
1.69776e-06
1.7003e-06
1.66868e-06
1.61582e-06
1.55087e-06
1.48004e-06
1.40739e-06
1.33547e-06
1.26582e-06
1.19925e-06
1.13613e-06
1.07656e-06
1.0204e-06
9.67404e-07
9.1725e-07
8.69544e-07
8.23869e-07
7.79761e-07
7.36736e-07
6.94309e-07
6.51992e-07
6.09334e-07
5.65947e-07
5.21595e-07
4.76289e-07
4.3056e-07
3.85839e-07
3.44696e-07
6.12632e-07
9.10905e-07
1.19241e-06
1.39875e-06
1.52865e-06
1.59361e-06
1.60816e-06
1.58722e-06
1.54317e-06
1.4851e-06
1.41939e-06
1.35041e-06
1.28104e-06
1.21305e-06
1.1475e-06
1.08495e-06
1.02563e-06
9.69508e-07
9.1646e-07
8.66248e-07
8.18579e-07
7.73107e-07
7.29478e-07
6.87348e-07
6.46391e-07
6.06335e-07
5.6701e-07
5.28407e-07
4.90789e-07
4.54828e-07
4.21823e-07
3.94045e-07
3.7434e-07
4.83395e-07
7.92117e-07
1.08262e-06
1.29834e-06
1.43848e-06
1.5145e-06
1.5401e-06
1.52912e-06
1.49343e-06
1.44204e-06
1.38147e-06
1.3163e-06
1.24965e-06
1.18358e-06
1.11933e-06
1.05767e-06
9.98937e-07
9.43295e-07
8.9071e-07
8.41041e-07
7.94091e-07
7.49632e-07
7.07445e-07
6.67332e-07
6.2915e-07
5.92852e-07
5.58536e-07
5.26508e-07
4.97366e-07
4.72075e-07
4.5204e-07
4.39147e-07
4.35291e-07
3.68788e-07
6.97585e-07
9.9762e-07
1.22191e-06
1.37142e-06
1.45744e-06
1.49288e-06
1.4908e-06
1.46248e-06
1.41682e-06
1.36043e-06
1.29812e-06
1.23329e-06
1.16821e-06
1.10439e-06
1.04276e-06
9.83872e-07
9.28008e-07
8.75257e-07
8.25601e-07
7.78961e-07
7.35234e-07
6.94322e-07
6.56158e-07
6.20752e-07
5.88215e-07
5.58798e-07
5.32933e-07
5.11261e-07
4.94643e-07
4.84125e-07
4.80881e-07
4.85906e-07
2.72626e-07
6.28328e-07
9.36624e-07
1.16825e-06
1.3263e-06
1.4216e-06
1.46638e-06
1.47302e-06
1.45229e-06
1.4129e-06
1.36155e-06
1.30318e-06
1.24135e-06
1.17853e-06
1.11641e-06
1.05608e-06
9.98228e-07
9.4326e-07
8.91391e-07
8.42727e-07
7.97298e-07
7.55111e-07
7.16176e-07
6.8054e-07
6.48309e-07
6.19669e-07
5.94906e-07
5.74413e-07
5.58691e-07
5.48317e-07
5.43898e-07
5.46009e-07
5.55045e-07
2.10259e-07
5.87205e-07
8.99843e-07
1.13676e-06
1.30183e-06
1.40491e-06
1.45752e-06
1.471e-06
1.4558e-06
1.42057e-06
1.37203e-06
1.31533e-06
1.25425e-06
1.1915e-06
1.129e-06
1.06802e-06
1.00943e-06
9.53764e-07
9.01364e-07
8.52425e-07
8.07062e-07
7.65355e-07
7.27374e-07
6.93208e-07
6.6298e-07
6.3686e-07
6.15072e-07
5.97886e-07
5.85604e-07
5.78537e-07
5.76963e-07
5.81106e-07
5.91045e-07
2.10605e-07
5.77789e-07
8.88501e-07
1.12862e-06
1.29996e-06
1.41092e-06
1.47199e-06
1.49378e-06
1.48624e-06
1.4577e-06
1.4148e-06
1.36269e-06
1.30523e-06
1.24528e-06
1.18484e-06
1.12538e-06
1.06787e-06
1.01299e-06
9.61197e-07
9.1279e-07
8.67976e-07
8.26905e-07
7.897e-07
7.56475e-07
7.2735e-07
7.02455e-07
6.81931e-07
6.65921e-07
6.54561e-07
6.47955e-07
6.46165e-07
6.49193e-07
6.56924e-07
2.77473e-07
6.02695e-07
9.03638e-07
1.1435e-06
1.3182e-06
1.4337e-06
1.49914e-06
1.5246e-06
1.51959e-06
1.4924e-06
1.44986e-06
1.39732e-06
1.33888e-06
1.27759e-06
1.21565e-06
1.15464e-06
1.09565e-06
1.03941e-06
9.86447e-07
9.37077e-07
8.91525e-07
8.49939e-07
8.12424e-07
7.7906e-07
7.49912e-07
7.25037e-07
7.04477e-07
6.88262e-07
6.76397e-07
6.68857e-07
6.65578e-07
6.66465e-07
6.71303e-07
3.84799e-07
6.623e-07
9.48224e-07
1.18706e-06
1.36688e-06
1.49059e-06
1.56574e-06
1.60117e-06
1.6056e-06
1.58677e-06
1.55119e-06
1.50412e-06
1.44968e-06
1.39106e-06
1.33064e-06
1.27017e-06
1.21095e-06
1.1539e-06
1.09966e-06
1.04869e-06
1.0013e-06
9.57703e-07
9.18029e-07
8.82365e-07
8.50755e-07
8.23212e-07
7.99723e-07
7.80243e-07
7.64699e-07
7.52985e-07
7.44958e-07
7.40457e-07
7.39187e-07
5.17537e-07
7.5496e-07
1.02128e-06
1.25333e-06
1.43055e-06
1.55244e-06
1.62538e-06
1.65808e-06
1.65942e-06
1.63742e-06
1.59878e-06
1.54893e-06
1.49204e-06
1.43129e-06
1.36902e-06
1.30694e-06
1.24627e-06
1.18786e-06
1.13232e-06
1.08004e-06
1.03129e-06
9.86243e-07
9.44992e-07
9.07579e-07
8.74002e-07
8.44229e-07
8.18196e-07
7.95815e-07
7.76973e-07
7.61537e-07
7.49347e-07
7.40265e-07
7.33944e-07
6.72951e-07
8.81697e-07
1.13244e-06
1.36532e-06
1.55279e-06
1.68971e-06
1.77925e-06
1.82781e-06
1.84276e-06
1.83132e-06
1.80002e-06
1.75445e-06
1.69919e-06
1.63788e-06
1.57335e-06
1.50772e-06
1.44259e-06
1.37907e-06
1.31798e-06
1.25986e-06
1.20506e-06
1.1538e-06
1.10618e-06
1.06224e-06
1.02196e-06
9.85273e-07
9.52078e-07
9.22251e-07
8.95646e-07
8.72095e-07
8.51409e-07
8.33422e-07
8.17737e-07
8.5411e-07
1.04181e-06
1.27037e-06
1.48581e-06
1.65627e-06
1.77598e-06
1.84953e-06
1.88481e-06
1.88993e-06
1.87208e-06
1.83729e-06
1.79044e-06
1.73536e-06
1.67507e-06
1.61184e-06
1.54744e-06
1.4832e-06
1.42011e-06
1.3589e-06
1.30008e-06
1.24402e-06
1.19095e-06
1.141e-06
1.09423e-06
1.05063e-06
1.01015e-06
9.72722e-07
9.38225e-07
9.0654e-07
8.77537e-07
8.51062e-07
8.27048e-07
8.04975e-07
1.06713e-06
1.24616e-06
1.4757e-06
1.71424e-06
1.92096e-06
2.07887e-06
2.18513e-06
2.24421e-06
2.26359e-06
2.25142e-06
2.21548e-06
2.16249e-06
2.09795e-06
2.02617e-06
1.95041e-06
1.8731e-06
1.79595e-06
1.72017e-06
1.64658e-06
1.5757e-06
1.50786e-06
1.44323e-06
1.38186e-06
1.32376e-06
1.26884e-06
1.21702e-06
1.16818e-06
1.12217e-06
1.07885e-06
1.03806e-06
9.99634e-07
9.63447e-07
9.28979e-07
1.32323e-06
1.49092e-06
1.67978e-06
1.86195e-06
2.0095e-06
2.11758e-06
2.18997e-06
2.23189e-06
2.24785e-06
2.24176e-06
2.21734e-06
2.1781e-06
2.12729e-06
2.06783e-06
2.00229e-06
1.93287e-06
1.86135e-06
1.78916e-06
1.71742e-06
1.64694e-06
1.5783e-06
1.5119e-06
1.44796e-06
1.3866e-06
1.32785e-06
1.27168e-06
1.21802e-06
1.1668e-06
1.1179e-06
1.07126e-06
1.02676e-06
9.84467e-07
9.43531e-07
1.6347e-06
1.82435e-06
2.0796e-06
2.37291e-06
2.63049e-06
2.81573e-06
2.92667e-06
2.9752e-06
2.97537e-06
2.94021e-06
2.88059e-06
2.80486e-06
2.71903e-06
2.62736e-06
2.53277e-06
2.43724e-06
2.34212e-06
2.24831e-06
2.15642e-06
2.06686e-06
1.97988e-06
1.89564e-06
1.81421e-06
1.7356e-06
1.65977e-06
1.58665e-06
1.51618e-06
1.44826e-06
1.38281e-06
1.31975e-06
1.25899e-06
1.20052e-06
1.1437e-06
2.03206e-06
2.17917e-06
2.27166e-06
2.36942e-06
2.48098e-06
2.59779e-06
2.70673e-06
2.7957e-06
2.85634e-06
2.88548e-06
2.88433e-06
2.85664e-06
2.80727e-06
2.7412e-06
2.663e-06
2.57654e-06
2.48498e-06
2.39074e-06
2.29565e-06
2.20102e-06
2.10777e-06
2.01648e-06
1.92752e-06
1.84106e-06
1.75718e-06
1.67584e-06
1.59702e-06
1.52064e-06
1.44668e-06
1.37519e-06
1.30616e-06
1.24005e-06
1.17552e-06
2.53521e-06
2.85906e-06
3.30189e-06
3.74374e-06
4.04102e-06
4.18299e-06
4.21645e-06
4.18202e-06
4.10599e-06
4.00544e-06
3.89048e-06
3.76658e-06
3.63684e-06
3.5033e-06
3.36753e-06
3.2309e-06
3.09468e-06
2.96001e-06
2.82788e-06
2.69909e-06
2.57424e-06
2.45374e-06
2.33783e-06
2.22656e-06
2.11991e-06
2.01771e-06
1.9198e-06
1.82594e-06
1.73598e-06
1.64981e-06
1.5674e-06
1.48914e-06
1.41417e-06
3.24147e-06
3.16527e-06
2.91587e-06
2.89977e-06
3.11268e-06
3.40582e-06
3.67299e-06
3.86734e-06
3.97902e-06
4.01952e-06
4.00841e-06
3.96482e-06
3.90419e-06
3.83752e-06
3.77172e-06
3.71048e-06
3.65521e-06
3.60594e-06
3.56193e-06
3.52213e-06
3.48543e-06
3.45081e-06
3.41739e-06
3.38442e-06
3.35132e-06
3.3176e-06
3.28289e-06
3.2469e-06
3.20955e-06
3.17092e-06
3.13134e-06
3.09256e-06
3.05267e-06
4.28201e-06
5.53425e-06
6.31409e-06
6.57985e-06
6.49603e-06
6.29438e-06
6.16298e-06
6.18364e-06
6.36252e-06
6.66183e-06
7.02959e-06
7.41993e-06
7.79948e-06
8.14676e-06
8.44984e-06
8.70362e-06
8.90751e-06
9.06359e-06
9.1755e-06
9.24756e-06
9.28431e-06
9.29017e-06
9.26925e-06
9.22522e-06
9.16131e-06
9.08022e-06
8.98422e-06
8.87499e-06
8.75413e-06
8.6223e-06
8.48151e-06
8.33268e-06
8.17922e-06
5.61126e-06
3.57092e-06
2.78429e-06
4.66448e-06
7.38407e-06
9.9485e-06
1.21252e-05
1.38511e-05
1.51391e-05
1.60318e-05
1.65767e-05
1.68228e-05
1.68182e-05
1.66082e-05
1.62339e-05
1.57317e-05
1.51331e-05
1.44649e-05
1.37495e-05
1.3005e-05
1.2246e-05
1.14839e-05
1.07273e-05
9.98279e-06
9.25487e-06
8.54648e-06
7.85929e-06
7.19335e-06
6.54866e-06
5.92146e-06
5.31457e-06
4.71424e-06
4.1428e-06
1.14318e-05
1.65243e-05
1.82969e-05
1.98111e-05
2.02842e-05
1.95401e-05
1.78014e-05
1.53424e-05
1.25165e-05
9.85723e-06
8.23535e-06
8.57376e-06
1.06417e-05
1.34898e-05
1.65247e-05
1.94857e-05
2.22606e-05
2.48025e-05
2.7096e-05
2.91421e-05
3.09508e-05
3.25364e-05
3.39158e-05
3.51062e-05
3.61249e-05
3.69885e-05
3.77127e-05
3.83128e-05
3.8804e-05
3.92017e-05
3.95263e-05
3.97967e-05
4.00629e-05
2.48684e-05
2.86456e-05
3.8986e-05
5.34091e-05
6.76506e-05
8.15494e-05
9.43723e-05
0.000105516
0.000114934
0.000122706
0.000128937
0.000133784
0.000137416
0.000139997
0.000141679
0.0001426
0.000142883
0.000142635
0.000141946
0.000140898
0.000139555
0.000137976
0.000136207
0.000134288
0.000132252
0.000130126
0.000127931
0.000125685
0.000123404
0.000121091
0.000118764
0.000116429
0.000114303
0.000543304
0.000510563
0.000491593
0.000467912
0.000443901
0.00042158
0.000400107
0.000379549
0.000360172
0.000341995
0.000325002
0.000309178
0.000294478
0.00028084
0.000268192
0.000256461
0.00024557
0.000235448
0.000226023
0.00021723
0.000209009
0.000201305
0.000194067
0.000187251
0.000180815
0.000174725
0.000168943
0.000163444
0.000158181
0.000153161
0.000148212
0.000143904
0.000139921
7.37907e-05
6.85889e-05
6.61584e-05
6.58779e-05
6.79685e-05
7.35171e-05
8.18111e-05
8.99258e-05
9.20427e-05
7.8756e-05
6.72815e-05
6.65009e-05
6.65197e-05
6.40033e-05
5.8815e-05
5.26631e-05
4.81647e-05
4.62893e-05
4.5297e-05
4.37472e-05
4.09086e-05
3.9779e-05
4.15939e-05
4.40447e-05
4.37095e-05
4.14641e-05
3.81691e-05
3.31552e-05
2.74398e-05
2.30631e-05
2.1255e-05
2.16079e-05
2.22494e-05
2.21685e-05
2.12729e-05
1.97204e-05
1.79528e-05
1.68019e-05
1.71578e-05
1.93071e-05
2.23935e-05
2.5065e-05
2.63768e-05
2.61046e-05
2.45919e-05
2.24373e-05
2.01973e-05
1.81972e-05
1.65185e-05
1.51102e-05
1.38955e-05
1.28168e-05
1.18385e-05
1.09388e-05
1.01045e-05
9.32999e-06
8.61725e-06
7.99231e-06
7.52311e-06
7.26966e-06
7.24085e-06
7.65192e-06
9.10161e-06
1.20198e-05
1.93443e-05
3.07001e-05
3.93653e-05
4.23137e-05
4.1225e-05
3.78371e-05
3.24171e-05
2.53956e-05
1.77454e-05
1.03312e-05
7.12397e-06
1.45889e-05
2.71018e-05
4.00127e-05
4.75402e-05
4.62855e-05
3.8097e-05
2.76362e-05
1.87502e-05
1.29227e-05
9.69795e-06
7.99619e-06
7.03983e-06
6.44731e-06
6.11145e-06
6.09397e-06
6.54407e-06
7.61166e-06
9.61973e-06
1.34921e-05
2.0399e-05
3.03609e-05
3.78697e-05
4.08939e-05
3.18005e-05
2.17308e-05
9.83731e-05
9.40045e-05
8.94792e-05
8.51607e-05
8.21304e-05
8.23332e-05
8.65921e-05
9.38178e-05
0.000102306
0.000104515
8.71998e-05
7.31557e-05
6.86962e-05
6.46966e-05
5.89969e-05
5.26419e-05
4.79453e-05
4.54308e-05
4.32549e-05
3.85036e-05
3.40008e-05
3.50672e-05
3.93896e-05
4.05985e-05
3.76353e-05
3.50159e-05
3.23434e-05
2.77964e-05
2.2731e-05
1.93016e-05
1.82738e-05
1.92707e-05
2.11633e-05
2.26074e-05
2.31218e-05
2.28997e-05
2.24327e-05
2.23655e-05
2.30942e-05
2.45228e-05
2.60236e-05
2.68657e-05
2.66473e-05
2.54125e-05
2.3526e-05
2.1438e-05
1.94717e-05
1.77509e-05
1.62668e-05
1.497e-05
1.38171e-05
1.2778e-05
1.18316e-05
1.09618e-05
1.01575e-05
9.41452e-06
8.73656e-06
8.14732e-06
7.71315e-06
7.49925e-06
7.50297e-06
7.88238e-06
9.2772e-06
1.20723e-05
1.88063e-05
3.05095e-05
4.03573e-05
4.4068e-05
4.30367e-05
3.93764e-05
3.36363e-05
2.61953e-05
1.7802e-05
9.00573e-06
3.6979e-06
1.37019e-05
2.77891e-05
4.15395e-05
4.89206e-05
4.68763e-05
3.79554e-05
2.72344e-05
1.85161e-05
1.29795e-05
9.92e-06
8.24521e-06
7.25099e-06
6.59777e-06
6.21056e-06
6.16404e-06
6.59367e-06
7.64246e-06
9.62309e-06
1.34283e-05
2.01936e-05
3.02008e-05
3.82969e-05
4.18584e-05
3.53388e-05
2.01179e-05
8.97592e-05
8.87851e-05
8.64913e-05
8.34517e-05
8.07763e-05
8.03108e-05
8.31313e-05
8.91468e-05
9.68054e-05
0.000105964
0.000105984
8.81732e-05
7.27326e-05
6.46783e-05
5.71235e-05
4.95228e-05
4.37453e-05
3.99733e-05
3.53131e-05
2.85277e-05
2.73105e-05
3.29006e-05
3.73286e-05
3.481e-05
3.12544e-05
3.08958e-05
2.90694e-05
2.46902e-05
2.02909e-05
1.76978e-05
1.69838e-05
1.75827e-05
1.92838e-05
2.15013e-05
2.33939e-05
2.46046e-05
2.52617e-05
2.5732e-05
2.6268e-05
2.68107e-05
2.70471e-05
2.66714e-05
2.56008e-05
2.40068e-05
2.21882e-05
2.03992e-05
1.87632e-05
1.72987e-05
1.59841e-05
1.47955e-05
1.37155e-05
1.27303e-05
1.1827e-05
1.09938e-05
1.0222e-05
9.51006e-06
8.86426e-06
8.30702e-06
7.90066e-06
7.71799e-06
7.75176e-06
8.0884e-06
9.35954e-06
1.2047e-05
1.81217e-05
2.98878e-05
4.09838e-05
4.57427e-05
4.49693e-05
4.11332e-05
3.51619e-05
2.74515e-05
1.85713e-05
8.97059e-06
1.25915e-06
1.40035e-05
2.94576e-05
4.38015e-05
5.06347e-05
4.74441e-05
3.7636e-05
2.66882e-05
1.82423e-05
1.30577e-05
1.01667e-05
8.50922e-06
7.46917e-06
6.7416e-06
6.27809e-06
6.18337e-06
6.59845e-06
7.64576e-06
9.59718e-06
1.33085e-05
1.98849e-05
2.98711e-05
3.85543e-05
4.27568e-05
3.88584e-05
2.01076e-05
6.53838e-05
6.5194e-05
6.41179e-05
6.24588e-05
6.11299e-05
6.16783e-05
6.52256e-05
7.18543e-05
8.04548e-05
9.01842e-05
0.000100535
9.96909e-05
8.37721e-05
6.77398e-05
5.67238e-05
4.70067e-05
3.84631e-05
3.15264e-05
2.41888e-05
2.08273e-05
2.6065e-05
3.29138e-05
3.1986e-05
2.68116e-05
2.77476e-05
2.95629e-05
2.70955e-05
2.26151e-05
1.90614e-05
1.72143e-05
1.655e-05
1.65795e-05
1.72903e-05
1.88453e-05
2.0927e-05
2.29361e-05
2.44845e-05
2.55012e-05
2.60473e-05
2.61505e-05
2.57777e-05
2.49283e-05
2.3706e-05
2.2288e-05
2.08351e-05
1.94338e-05
1.81092e-05
1.68627e-05
1.56955e-05
1.46102e-05
1.3607e-05
1.26816e-05
1.1826e-05
1.10318e-05
1.02932e-05
9.61125e-06
8.99563e-06
8.46862e-06
8.08729e-06
7.93097e-06
8.00136e-06
8.31749e-06
9.42897e-06
1.19814e-05
1.73788e-05
2.89162e-05
4.13493e-05
4.75458e-05
4.73027e-05
4.33627e-05
3.71606e-05
2.92255e-05
2.00575e-05
1.04341e-05
4.3997e-06
1.57469e-05
3.21332e-05
4.66584e-05
5.2451e-05
4.77961e-05
3.70648e-05
2.60363e-05
1.80104e-05
1.3213e-05
1.04615e-05
8.79736e-06
7.6988e-06
6.89276e-06
6.34958e-06
6.19444e-06
6.58365e-06
7.63273e-06
9.56156e-06
1.31708e-05
1.95284e-05
2.94396e-05
3.87008e-05
4.36241e-05
4.23454e-05
2.17555e-05
2.53015e-05
2.54805e-05
2.50972e-05
2.45616e-05
2.47948e-05
2.69618e-05
3.15119e-05
3.82705e-05
4.72836e-05
5.8189e-05
7.13374e-05
8.37527e-05
8.54939e-05
7.46659e-05
6.04828e-05
4.84309e-05
3.85673e-05
3.01586e-05
2.44675e-05
2.57451e-05
3.02138e-05
2.85982e-05
2.1772e-05
2.37069e-05
2.93235e-05
2.92943e-05
2.52671e-05
2.10714e-05
1.83599e-05
1.68526e-05
1.60021e-05
1.56256e-05
1.5722e-05
1.64002e-05
1.77072e-05
1.93912e-05
2.10538e-05
2.2353e-05
2.3128e-05
2.33608e-05
2.3115e-05
2.25039e-05
2.16585e-05
2.06871e-05
1.96525e-05
1.85837e-05
1.75014e-05
1.643e-05
1.53938e-05
1.44106e-05
1.34882e-05
1.26266e-05
1.18211e-05
1.10665e-05
1.03602e-05
9.70648e-06
9.11846e-06
8.61899e-06
8.2593e-06
8.12185e-06
8.22377e-06
8.5403e-06
9.49565e-06
1.18806e-05
1.66335e-05
2.75322e-05
4.11929e-05
4.92335e-05
4.99321e-05
4.60555e-05
3.96503e-05
3.15479e-05
2.23483e-05
1.33969e-05
9.1626e-06
1.92704e-05
3.6068e-05
5.01377e-05
5.42456e-05
4.77922e-05
3.6168e-05
2.52707e-05
1.78213e-05
1.34237e-05
1.0779e-05
9.09064e-06
7.92282e-06
7.02764e-06
6.3993e-06
6.18212e-06
6.54368e-06
7.59736e-06
9.51065e-06
1.30137e-05
1.91132e-05
2.88594e-05
3.86238e-05
4.43237e-05
4.55635e-05
2.48042e-05
4.60151e-06
4.82161e-06
5.31355e-06
6.00232e-06
6.79875e-06
7.62216e-06
8.68138e-06
1.07553e-05
1.52625e-05
2.31092e-05
3.38635e-05
4.70849e-05
5.94296e-05
6.43879e-05
6.03783e-05
5.1952e-05
4.34348e-05
3.66036e-05
3.30559e-05
3.05179e-05
2.38109e-05
1.49336e-05
2.04522e-05
2.938e-05
3.11489e-05
2.7639e-05
2.30638e-05
1.96578e-05
1.74521e-05
1.59244e-05
1.48647e-05
1.42956e-05
1.42394e-05
1.46482e-05
1.5468e-05
1.66091e-05
1.78869e-05
1.90632e-05
1.99461e-05
2.04459e-05
2.05714e-05
2.03881e-05
1.99709e-05
1.93775e-05
1.8647e-05
1.7814e-05
1.69169e-05
1.59959e-05
1.50842e-05
1.42033e-05
1.33633e-05
1.25665e-05
1.18112e-05
1.10958e-05
1.04213e-05
9.79463e-06
9.23223e-06
8.75808e-06
8.41733e-06
8.29216e-06
8.41894e-06
8.74904e-06
9.56728e-06
1.17381e-05
1.59356e-05
2.57835e-05
4.03204e-05
5.05495e-05
5.2751e-05
4.9273e-05
4.27884e-05
3.46157e-05
2.56287e-05
1.76502e-05
1.48912e-05
2.4649e-05
4.13226e-05
5.40663e-05
5.5756e-05
4.7254e-05
3.4916e-05
2.44577e-05
1.77306e-05
1.37042e-05
1.11223e-05
9.39215e-06
8.14363e-06
7.14893e-06
6.42774e-06
6.14482e-06
6.47806e-06
7.54041e-06
9.44756e-06
1.28477e-05
1.86571e-05
2.81327e-05
3.82714e-05
4.47885e-05
4.83902e-05
2.88587e-05
9.3173e-06
9.73512e-06
1.01972e-05
1.05063e-05
1.04056e-05
9.65165e-06
8.09075e-06
5.77107e-06
4.5747e-06
8.43497e-06
1.51911e-05
2.24397e-05
2.94107e-05
3.56297e-05
3.90122e-05
3.83672e-05
3.47195e-05
2.97501e-05
2.30179e-05
1.21016e-05
7.4681e-06
2.17602e-05
3.11977e-05
3.286e-05
2.93687e-05
2.46317e-05
2.08386e-05
1.81434e-05
1.60823e-05
1.44564e-05
1.33087e-05
1.27148e-05
1.26769e-05
1.31121e-05
1.38876e-05
1.48681e-05
1.5929e-05
1.69446e-05
1.77978e-05
1.84068e-05
1.87404e-05
1.88086e-05
1.86414e-05
1.82733e-05
1.77401e-05
1.70817e-05
1.63412e-05
1.55596e-05
1.47685e-05
1.39885e-05
1.32302e-05
1.24979e-05
1.17929e-05
1.11169e-05
1.04739e-05
9.87385e-06
9.33538e-06
8.88417e-06
8.55996e-06
8.44089e-06
8.58328e-06
8.93394e-06
9.64667e-06
1.15553e-05
1.53023e-05
2.38038e-05
3.86147e-05
5.12169e-05
5.56036e-05
5.30715e-05
4.67669e-05
3.8661e-05
3.00776e-05
2.31739e-05
2.18579e-05
3.18456e-05
4.77379e-05
5.80749e-05
5.66192e-05
4.6001e-05
3.33253e-05
2.36839e-05
1.77667e-05
1.40423e-05
1.14827e-05
9.69949e-06
8.36025e-06
7.25468e-06
6.42994e-06
6.07327e-06
6.37651e-06
7.45449e-06
9.36988e-06
1.26785e-05
1.81813e-05
2.72806e-05
3.7613e-05
4.49345e-05
5.06704e-05
3.33683e-05
5.68564e-06
5.96106e-06
6.24697e-06
6.4159e-06
6.32697e-06
5.89743e-06
5.20832e-06
4.68925e-06
5.18258e-06
7.52752e-06
1.20696e-05
1.81152e-05
2.348e-05
2.59132e-05
2.51042e-05
2.20976e-05
1.7967e-05
1.35224e-05
1.25729e-05
2.00311e-05
2.92758e-05
3.43819e-05
3.39769e-05
3.00416e-05
2.54174e-05
2.16598e-05
1.88063e-05
1.6453e-05
1.44403e-05
1.28294e-05
1.17259e-05
1.11867e-05
1.11902e-05
1.1646e-05
1.24275e-05
1.33983e-05
1.44292e-05
1.54083e-05
1.6249e-05
1.68927e-05
1.73109e-05
1.74998e-05
1.74732e-05
1.72545e-05
1.68739e-05
1.63668e-05
1.57713e-05
1.51224e-05
1.44477e-05
1.37659e-05
1.3088e-05
1.24199e-05
1.17655e-05
1.11293e-05
1.05182e-05
9.9444e-06
9.42816e-06
8.9971e-06
8.68695e-06
8.56849e-06
8.71565e-06
9.08857e-06
9.73437e-06
1.13528e-05
1.47125e-05
2.17757e-05
3.6024e-05
5.08588e-05
5.81328e-05
5.73382e-05
5.1695e-05
4.39088e-05
3.59211e-05
3.01563e-05
3.03615e-05
4.06806e-05
5.48364e-05
6.15546e-05
5.6391e-05
4.38992e-05
3.1494e-05
2.30578e-05
1.79403e-05
1.4424e-05
1.18583e-05
1.00153e-05
8.57411e-06
7.3461e-06
6.4073e-06
5.96734e-06
6.23629e-06
7.33546e-06
9.27551e-06
1.25105e-05
1.77057e-05
2.63303e-05
3.66264e-05
4.46461e-05
5.22055e-05
3.77413e-05
3.69349e-06
3.84263e-06
3.98412e-06
4.0431e-06
3.97261e-06
3.81991e-06
3.83164e-06
4.43911e-06
5.87994e-06
8.05401e-06
1.10084e-05
1.51946e-05
2.0658e-05
2.59922e-05
2.93894e-05
3.04793e-05
3.04254e-05
3.10143e-05
3.30183e-05
3.51868e-05
3.5509e-05
3.31978e-05
2.92644e-05
2.5264e-05
2.19803e-05
1.93056e-05
1.69266e-05
1.47475e-05
1.28469e-05
1.13375e-05
1.0307e-05
9.8034e-06
9.81541e-06
1.02643e-05
1.1028e-05
1.19754e-05
1.2987e-05
1.39615e-05
1.48197e-05
1.55075e-05
1.59967e-05
1.62811e-05
1.63694e-05
1.62799e-05
1.6037e-05
1.56699e-05
1.52098e-05
1.4686e-05
1.41222e-05
1.35353e-05
1.29362e-05
1.23322e-05
1.17291e-05
1.11336e-05
1.05548e-05
1.00066e-05
9.51059e-06
9.09622e-06
8.79712e-06
8.67479e-06
8.81456e-06
9.20429e-06
9.8205e-06
1.11634e-05
1.41319e-05
1.98955e-05
3.266e-05
4.90897e-05
5.97628e-05
6.16937e-05
5.74952e-05
5.04984e-05
4.33635e-05
3.88324e-05
4.05222e-05
5.06541e-05
6.17487e-05
6.36839e-05
5.46337e-05
4.09442e-05
2.96203e-05
2.26684e-05
1.82269e-05
1.48301e-05
1.22492e-05
1.03424e-05
8.7868e-06
7.42401e-06
6.35811e-06
5.82179e-06
6.05098e-06
7.17815e-06
9.16201e-06
1.23479e-05
1.72532e-05
2.53283e-05
3.53341e-05
4.38247e-05
5.28118e-05
4.13814e-05
2.82175e-06
2.8734e-06
2.89981e-06
2.86033e-06
2.75506e-06
2.69263e-06
2.96624e-06
3.88959e-06
5.50425e-06
7.66927e-06
1.02341e-05
1.31734e-05
1.67208e-05
2.09911e-05
2.53511e-05
2.88694e-05
3.11685e-05
3.25019e-05
3.29219e-05
3.20931e-05
2.99659e-05
2.71275e-05
2.42995e-05
2.17933e-05
1.95186e-05
1.732e-05
1.51769e-05
1.31754e-05
1.14215e-05
1.00072e-05
9.01645e-06
8.51645e-06
8.52052e-06
8.96218e-06
9.71832e-06
1.06545e-05
1.16541e-05
1.26243e-05
1.34955e-05
1.42198e-05
1.47702e-05
1.5138e-05
1.53279e-05
1.53536e-05
1.52345e-05
1.49943e-05
1.46585e-05
1.42512e-05
1.37925e-05
1.32973e-05
1.2776e-05
1.22364e-05
1.16853e-05
1.1131e-05
1.05843e-05
1.00607e-05
9.58269e-06
9.18099e-06
8.88912e-06
8.75936e-06
8.88019e-06
9.27462e-06
9.88834e-06
1.10151e-05
1.35495e-05
1.82876e-05
2.8858e-05
4.56744e-05
5.97596e-05
6.53993e-05
6.37152e-05
5.82582e-05
5.23624e-05
4.91687e-05
5.19538e-05
6.07223e-05
6.7202e-05
6.35426e-05
5.10622e-05
3.73513e-05
2.79693e-05
2.254e-05
1.85802e-05
1.52515e-05
1.26634e-05
1.06865e-05
9.00149e-06
7.49088e-06
6.2832e-06
5.63482e-06
5.81792e-06
6.98052e-06
9.02795e-06
1.21937e-05
1.68451e-05
2.43339e-05
3.3819e-05
4.24337e-05
5.23654e-05
4.37427e-05
2.1905e-06
2.17512e-06
2.12376e-06
2.0151e-06
1.88345e-06
1.89957e-06
2.36422e-06
3.41667e-06
4.97709e-06
6.94357e-06
9.22921e-06
1.17283e-05
1.43587e-05
1.71406e-05
2.00467e-05
2.27734e-05
2.4896e-05
2.60848e-05
2.62721e-05
2.55886e-05
2.43401e-05
2.28127e-05
2.11426e-05
1.93561e-05
1.74638e-05
1.55126e-05
1.35825e-05
1.17615e-05
1.01326e-05
8.7814e-06
7.80546e-06
7.298e-06
7.29606e-06
7.74e-06
8.50059e-06
9.4383e-06
1.0437e-05
1.14092e-05
1.22923e-05
1.30447e-05
1.36428e-05
1.4078e-05
1.43527e-05
1.44772e-05
1.44667e-05
1.434e-05
1.41175e-05
1.38187e-05
1.346e-05
1.30538e-05
1.26094e-05
1.21341e-05
1.16355e-05
1.11225e-05
1.06075e-05
1.0107e-05
9.64431e-06
9.25087e-06
8.96138e-06
8.82106e-06
8.91345e-06
9.29494e-06
9.91744e-06
1.0911e-05
1.29993e-05
1.69525e-05
2.51271e-05
4.07176e-05
5.74053e-05
6.73466e-05
6.93348e-05
6.6403e-05
6.22757e-05
6.04343e-05
6.3438e-05
6.91864e-05
6.96526e-05
6.03506e-05
4.5747e-05
3.36002e-05
2.67653e-05
2.26131e-05
1.89567e-05
1.56951e-05
1.31129e-05
1.10534e-05
9.22281e-06
7.54999e-06
6.1825e-06
5.40182e-06
5.53231e-06
6.74126e-06
8.87291e-06
1.20494e-05
1.64991e-05
2.3409e-05
3.22217e-05
4.05512e-05
5.08755e-05
4.44826e-05
1.65657e-06
1.58838e-06
1.47913e-06
1.32709e-06
1.2129e-06
1.3728e-06
2.01393e-06
3.09811e-06
4.53831e-06
6.2754e-06
8.25871e-06
1.04211e-05
1.26603e-05
1.48656e-05
1.69507e-05
1.88177e-05
2.03086e-05
2.12704e-05
2.16759e-05
2.15645e-05
2.09916e-05
2.00236e-05
1.87452e-05
1.72423e-05
1.55936e-05
1.38709e-05
1.21428e-05
1.04781e-05
8.95044e-06
7.64669e-06
6.6762e-06
6.15601e-06
6.14903e-06
6.6019e-06
7.37434e-06
8.31852e-06
9.31917e-06
1.02945e-05
1.11882e-05
1.19638e-05
1.26007e-05
1.30912e-05
1.34369e-05
1.36459e-05
1.37305e-05
1.37056e-05
1.35871e-05
1.33899e-05
1.31267e-05