/*--------------------------------*- C++ -*----------------------------------*\
  =========                 |
  \\      /  F ield         | OpenFOAM: The Open Source CFD Toolbox
   \\    /   O peration     | Website:  https://openfoam.org
    \\  /    A nd           | Version:  10
     \\/     M anipulation  |
\*---------------------------------------------------------------------------*/
FoamFile
{
    format      ascii;
    class       volScalarField;
    location    "0.175";
    object      p;
}
// * * * * * * * * * * * * * * * * * * * * * * * * * * * * * * * * * * * * * //

dimensions      [0 2 -2 0 0 0 0];

internalField   nonuniform List<scalar> 
6820
(
16.2386
1.90865
-0.0872032
-0.264354
-0.41481
-0.348464
-0.308425
-0.31803
-0.350673
-0.396509
-0.449074
-0.504659
-0.561651
-0.619298
-0.677221
-0.735226
-0.793214
-0.851148
-0.909044
-0.966969
-1.02504
-1.08343
-1.14236
-1.20209
-1.26297
-1.32534
-1.38975
-1.45633
-1.52645
-1.59854
-1.68099
-1.74872
-1.8733
10.8608
2.11114
0.107436
-0.143154
-0.345528
-0.34271
-0.323937
-0.339899
-0.372692
-0.415722
-0.465079
-0.517812
-0.572468
-0.628304
-0.684868
-0.741869
-0.799121
-0.856515
-0.914011
-0.971633
-1.02947
-1.08766
-1.1464
-1.20595
-1.26664
-1.32881
-1.39298
-1.45946
-1.52953
-1.60132
-1.68231
-1.75986
-1.88453
8.78053
3.32297
0.900311
0.311522
-0.0658204
-0.205817
-0.249082
-0.292094
-0.340719
-0.393602
-0.449895
-0.507878
-0.566451
-0.625094
-0.683572
-0.741823
-0.799838
-0.85764
-0.915279
-0.972844
-1.03046
-1.08829
-1.14656
-1.20551
-1.26545
-1.32672
-1.38977
-1.45486
-1.52296
-1.59295
-1.669
-1.74044
-1.82288
7.21309
3.5061
1.19709
0.549797
0.170943
-0.0324222
-0.126011
-0.201105
-0.272808
-0.340828
-0.406865
-0.471595
-0.535261
-0.598055
-0.660004
-0.721164
-0.781622
-0.84147
-0.900808
-0.959749
-1.01843
-1.07702
-1.13573
-1.19476
-1.25441
-1.31493
-1.37669
-1.43989
-1.5051
-1.57168
-1.64126
-1.70884
-1.77849
5.92825
3.46229
1.50483
0.824086
0.416683
0.147213
-0.000570291
-0.106568
-0.19816
-0.27973
-0.355407
-0.427575
-0.496904
-0.56397
-0.629373
-0.69337
-0.756131
-0.817813
-0.878563
-0.938529
-0.997863
-1.05673
-1.1153
-1.17376
-1.2323
-1.29111
-1.35039
-1.41018
-1.47068
-1.53132
-1.59242
-1.65112
-1.70755
4.97113
3.33986
1.68955
0.977692
0.560674
0.26888
0.0948925
-0.0277689
-0.131601
-0.222881
-0.305881
-0.383737
-0.45784
-0.528915
-0.597511
-0.664073
-0.728916
-0.792276
-0.854348
-0.915294
-0.975262
-1.03439
-1.0928
-1.15062
-1.20795
-1.26483
-1.32131
-1.37726
-1.43256
-1.48659
-1.53911
-1.58847
-1.63525
4.2262
3.12851
1.77796
1.09565
0.692107
0.39151
0.193283
0.0510555
-0.0670016
-0.169044
-0.259935
-0.343668
-0.422276
-0.496847
-0.568239
-0.637082
-0.703779
-0.768612
-0.831799
-0.893512
-0.953895
-1.01306
-1.07111
-1.1281
-1.18406
-1.23895
-1.29266
-1.34494
-1.39545
-1.44352
-1.48844
-1.52887
-1.564
3.64292
2.89945
1.81665
1.18086
0.788509
0.485466
0.272362
0.117379
-0.00982141
-0.11925
-0.216064
-0.304519
-0.387019
-0.464883
-0.539056
-0.610209
-0.678791
-0.745124
-0.809454
-0.871969
-0.932809
-0.992074
-1.04983
-1.10608
-1.16079
-1.21385
-1.26502
-1.31397
-1.36016
-1.40283
-1.44101
-1.47329
-1.49808
3.18032
2.66853
1.80772
1.23127
0.859117
0.565002
0.346351
0.182532
0.0474811
-0.0690248
-0.171901
-0.265315
-0.351888
-0.433116
-0.510045
-0.583442
-0.653837
-0.721604
-0.787017
-0.850274
-0.911513
-0.970818
-1.02822
-1.08371
-1.13717
-1.18842
-1.23718
-1.28299
-1.32523
-1.36305
-1.3953
-1.42053
-1.43658
2.8086
2.44985
1.77039
1.25971
0.911397
0.629225
0.409069
0.239092
0.0982275
-0.0235604
-0.131108
-0.228455
-0.318344
-0.402395
-0.481723
-0.55714
-0.629208
-0.69832
-0.76476
-0.828729
-0.89036
-0.949723
-1.00683
-1.06162
-1.11396
-1.16362
-1.21025
-1.25334
-1.29222
-1.32599
-1.35343
-1.37311
-1.38274
2.5065
2.24975
1.71425
1.26841
0.946115
0.67913
0.462671
0.290518
0.14628
0.0207
-0.0907204
-0.191641
-0.284702
-0.371539
-0.45327
-0.530718
-0.604467
-0.674931
-0.742406
-0.8071
-0.869142
-0.928596
-0.985455
-1.03964
-1.091
-1.13926
-1.18405
-1.22485
-1.26097
-1.29152
-1.31531
-1.33104
-1.33652
2.2585
2.07057
1.64786
1.26311
0.96827
0.718089
0.508149
0.336029
0.189765
0.0613927
-0.053121
-0.157019
-0.252783
-0.342027
-0.425866
-0.505123
-0.580392
-0.652095
-0.720532
-0.785911
-0.848359
-0.907932
-0.964615
-1.01832
-1.06887
-1.11601
-1.15935
-1.19838
-1.23244
-1.26071
-1.28211
-1.29551
-1.29903
2.05331
1.91257
1.57732
1.2476
0.980032
0.747125
0.545743
0.375923
0.229383
0.0995592
-0.0170721
-0.123303
-0.221365
-0.312771
-0.398578
-0.479575
-0.556337
-0.62928
-0.698702
-0.764808
-0.827723
-0.887504
-0.944133
-0.997521
-1.0475
-1.09381
-1.1361
-1.17391
-1.20662
-1.23353
-1.25372
-1.26628
-1.26973
1.88263
1.77482
1.50698
1.22544
0.98419
0.768535
0.576938
0.410966
0.2653
0.134856
0.0167213
-0.0914062
-0.191449
-0.284777
-0.37237
-0.454965
-0.533117
-0.607229
-0.677594
-0.744416
-0.807821
-0.867867
-0.924544
-0.977773
-1.0274
-1.0732
-1.11486
-1.15197
-1.18402
-1.21045
-1.23051
-1.24354
-1.24845
1.7403
1.65592
1.43988
1.19955
0.9829
0.783844
0.602504
0.441439
0.297642
0.167421
0.0484913
-0.0609847
-0.162607
-0.257572
-0.346755
-0.430828
-0.510302
-0.585559
-0.656879
-0.72446
-0.788431
-0.848856
-0.905735
-0.959008
-1.00855
-1.05418
-1.09563
-1.13258
-1.16465
-1.19138
-1.21225
-1.22683
-1.23439
1.62173
1.55431
1.37805
1.17238
0.978138
0.794704
0.623644
0.46814
0.32691
0.197502
0.0782553
-0.0322092
-0.135154
-0.231573
-0.322219
-0.407682
-0.488422
-0.564793
-0.637063
-0.705425
-0.770011
-0.830896
-0.8881
-0.941588
-0.991276
-1.03702
-1.07864
-1.1159
-1.14852
-1.17621
-1.19864
-1.21558
-1.22663
1.52349
1.46856
1.32285
1.1459
0.971616
0.802538
0.641358
0.491652
0.353405
0.22523
0.106059
-0.00505793
-0.109059
-0.20673
-0.298692
-0.385447
-0.467398
-0.544868
-0.618105
-0.687298
-0.752585
-0.814051
-0.87174
-0.925649
-0.975736
-1.02192
-1.06408
-1.10209
-1.13577
-1.16497
-1.18955
-1.20943
-1.2245
1.44299
1.39737
1.27515
1.12171
0.964831
0.808667
0.656693
0.512723
0.377649
0.250955
0.132112
0.0205627
-0.0843214
-0.183116
-0.276303
-0.364289
-0.447417
-0.525972
-0.600185
-0.670239
-0.736279
-0.798407
-0.85669
-0.911165
-0.961835
-1.00868
-1.05166
-1.09072
-1.1258
-1.15689
-1.18396
-1.20712
-1.22643
1.37832
1.33971
1.23553
1.1011
0.959091
0.814279
0.670613
0.532037
0.400078
0.274916
0.156499
0.0446269
-0.0610472
-0.160896
-0.255262
-0.344459
-0.428767
-0.508434
-0.583672
-0.654662
-0.721551
-0.784463
-0.843495
-0.898717
-0.950182
-0.99793
-1.04199
-1.08239
-1.11918
-1.15243
-1.18225
-1.20884
-1.23243
1.32808
1.29476
1.20439
1.08514
0.955551
0.820464
0.684057
0.550328
0.421243
0.297525
0.179531
0.067373
-0.0390394
-0.139891
-0.235392
-0.325765
-0.411229
-0.491996
-0.568257
-0.640191
-0.707957
-0.771697
-0.831537
-0.887585
-0.939943
-0.988706
-1.03397
-1.07584
-1.11444
-1.14993
-1.18251
-1.21248
-1.24014
1.29128
1.26195
1.18207
1.07472
0.955224
0.828196
0.697865
0.568233
0.441566
0.318999
0.201231
0.0886506
-0.0186092
-0.120558
-0.217284
-0.308921
-0.395632
-0.477592
-0.554977
-0.627966
-0.696726
-0.76142
-0.822202
-0.879221
-0.932621
-0.982551
-1.02916
-1.07263
-1.11313
-1.15091
-1.18622
-1.2194
-1.25083
1.26732
1.24094
1.16889
1.07062
0.959051
0.838417
0.712913
0.586514
0.461698
0.339915
0.222144
0.109005
0.00082701
-0.10225
-0.200203
-0.29309
-0.381022
-0.464144
-0.542623
-0.616635
-0.686361
-0.751985
-0.813691
-0.871664
-0.926089
-0.97716
-1.02508
-1.07007
-1.11238
-1.15228
-1.19008
-1.22616
-1.26092
1.25589
1.23164
1.16523
1.07359
0.967859
0.851911
0.729849
0.605614
0.481817
0.360166
0.241871
0.127748
0.0182948
-0.0862146
-0.185659
-0.280025
-0.369382
-0.45385
-0.533584
-0.608767
-0.679594
-0.746272
-0.809013
-0.868035
-0.923565
-0.975835
-1.02509
-1.0716
-1.11564
-1.15751
-1.19757
-1.23617
-1.27373
1.25702
1.23419
1.17155
1.08437
0.982547
0.869631
0.749646
0.626512
0.502963
0.380889
0.261683
0.146322
0.0354389
-0.0705834
-0.171545
-0.26738
-0.358121
-0.443874
-0.524791
-0.60106
-0.672895
-0.740525
-0.804189
-0.86414
-0.920635
-0.973943
-1.02435
-1.07214
-1.11763
-1.16115
-1.20306
-1.24374
-1.2836
1.271
1.24898
1.18846
1.10369
1.00377
0.892043
0.772459
0.648964
0.524399
0.400816
0.279769
0.16238
0.0493994
-0.0586994
-0.16165
-0.259346
-0.351797
-0.439101
-0.521415
-0.598944
-0.671921
-0.740602
-0.805258
-0.86617
-0.92363
-0.977938
-1.0294
-1.07834
-1.12509
-1.16998
-1.21337
-1.25562
-1.2971
1.29849
1.27671
1.2168
1.13257
1.03276
0.920596
0.800034
0.675072
0.54865
0.422939
0.299615
0.179903
0.0646383
-0.0456393
-0.150619
-0.250167
-0.344281
-0.433058
-0.516667
-0.59533
-0.669302
-0.738868
-0.804325
-0.865986
-0.924172
-0.979208
-1.03143
-1.08117
-1.12879
-1.17462
-1.21902
-1.26237
-1.30504
1.34047
1.31833
1.2574
1.17157
1.06958
0.954627
0.83079
0.702217
0.572002
0.442463
0.315401
0.192138
0.0735774
-0.0396989
-0.14736
-0.249269
-0.345434
-0.435974
-0.521084
-0.601018
-0.676065
-0.746542
-0.812784
-0.875132
-0.933938
-0.989554
-1.04233
-1.09263
-1.14079
-1.18717
-1.23211
-1.27593
-1.31897
1.39839
1.37538
1.31201
1.22285
1.11705
0.997906
0.869634
0.73653
0.601809
0.467887
0.336654
0.209501
0.0873834
-0.0290872
-0.139566
-0.243918
-0.342166
-0.434449
-0.520995
-0.602089
-0.678057
-0.749254
-0.816048
-0.878816
-0.937938
-0.993792
-1.04675
-1.09719
-1.14547
-1.19195
-1.23698
-1.2809
-1.32404
1.47414
1.44935
1.38119
1.2855
1.17228
1.04518
0.908782
0.767781
0.625631
0.484882
0.3475
0.21491
0.0880574
-0.0324767
-0.146393
-0.253608
-0.354203
-0.448376
-0.536409
-0.618643
-0.695455
-0.767243
-0.834418
-0.897392
-0.956575
-1.01237
-1.06517
-1.11536
-1.16331
-1.20936
-1.25385
-1.29708
-1.33932
1.57061
1.54373
1.46959
1.36622
1.24484
1.10922
0.964173
0.814698
0.664456
0.516139
0.37183
0.233029
0.100717
-0.0245232
-0.142415
-0.252916
-0.356162
-0.452413
-0.542017
-0.625376
-0.702932
-0.775139
-0.842461
-0.905355
-0.964272
-1.01965
-1.0719
-1.12144
-1.16864
-1.21388
-1.25751
-1.29986
-1.34122
1.6907
1.65931
1.57381
1.45579
1.31891
1.16783
1.00814
0.845392
0.683438
0.524952
0.371947
0.225812
0.0873926
-0.0428638
-0.164808
-0.278517
-0.384233
-0.482313
-0.57319
-0.657346
-0.735286
-0.807526
-0.874579
-0.936945
-0.99511
-1.04954
-1.10068
-1.14894
-1.19471
-1.23837
-1.28024
-1.32062
-1.35976
1.84103
1.80671
1.71112
1.58039
1.42998
1.26426
1.08938
0.91182
0.73594
0.564734
0.400437
0.244534
0.0978641
-0.0391992
-0.166619
-0.284606
-0.393549
-0.493945
-0.586364
-0.671408
-0.749691
-0.821822
-0.888394
-0.949973
-1.0071
-1.06028
-1.10999
-1.15669
-1.20078
-1.24267
-1.28272
-1.3213
-1.35868
2.0237
1.97646
1.85371
1.69257
1.51415
1.32332
1.12665
0.930714
0.739436
0.555367
0.380406
0.215738
0.0619405
-0.0808233
-0.212691
-0.334026
-0.445348
-0.547277
-0.640486
-0.725677
-0.803552
-0.874796
-0.94007
-0.999999
-1.05517
-1.10613
-1.15339
-1.19741
-1.23865
-1.27748
-1.31428
-1.34936
-1.38301
2.26046
2.21411
2.07757
1.89598
1.69265
1.47306
1.2471
1.0238
0.807983
0.602627
0.409811
0.230585
0.0652147
-0.0865012
-0.225081
-0.351254
-0.465871
-0.569838
-0.664075
-0.749482
-0.826927
-0.897228
-0.961146
-1.01939
-1.0726
-1.12137
-1.16625
-1.20773
-1.24628
-1.28235
-1.31634
-1.34868
-1.37971
2.53311
2.43895
2.23435
1.99929
1.75827
1.50862
1.25824
1.01511
0.782571
0.562869
0.357826
0.168317
-0.0055038
-0.163916
-0.30753
-0.437195
-0.553902
-0.658711
-0.752702
-0.836934
-0.912421
-0.980116
-1.0409
-1.09556
-1.14484
-1.18939
-1.22979
-1.26656
-1.30018
-1.33111
-1.35976
-1.38654
-1.41189
2.95193
2.88374
2.64839
2.35605
2.04753
1.72981
1.41955
1.1266
0.853656
0.602346
0.373362
0.166139
-0.0204655
-0.187826
-0.337457
-0.47092
-0.589746
-0.695404
-0.789277
-0.872657
-0.946727
-1.01256
-1.07114
-1.12331
-1.16985
-1.21143
-1.24864
-1.282
-1.31197
-1.33902
-1.36361
-1.38632
-1.40773
3.31209
3.05931
2.70263
2.38322
2.06269
1.72654
1.39817
1.08637
0.792888
0.521266
0.273797
0.0507537
-0.148501
-0.325165
-0.480878
-0.617506
-0.736975
-0.841174
-0.931896
-1.0108
-1.0794
-1.13904
-1.19091
-1.23605
-1.27534
-1.30953
-1.33923
-1.36494
-1.38703
-1.40587
-1.42164
-1.43501
-1.4461
4.36248
4.09627
3.48534
2.93906
2.43718
1.96081
1.53442
1.15557
0.816777
0.51526
0.248003
0.0115862
-0.196935
-0.380215
-0.540726
-0.680757
-0.802446
-0.907814
-0.998748
-1.077
-1.14416
-1.20166
-1.25079
-1.29266
-1.32822
-1.35824
-1.38334
-1.40393
-1.4202
-1.4323
-1.43965
-1.44337
-1.43973
4.30942
3.74914
3.3066
2.94106
2.46381
1.96748
1.50226
1.06547
0.665628
0.311026
0.00180512
-0.264703
-0.49181
-0.683512
-0.844101
-0.977752
-1.08835
-1.17938
-1.25396
-1.31475
-1.36407
-1.40388
-1.43586
-1.46139
-1.48161
-1.49743
-1.50951
-1.5182
-1.5234
-1.52446
-1.5191
-1.50529
-1.47167
9.24671
5.55486
4.22893
3.55831
2.75911
2.08171
1.53774
1.06119
0.644647
0.286744
-0.0202353
-0.282338
-0.50446
-0.691516
-0.84813
-0.978502
-1.08644
-1.17532
-1.24814
-1.30749
-1.35562
-1.39443
-1.42558
-1.45044
-1.47019
-1.4858
-1.49814
-1.50773
-1.51551
-1.52103
-1.52656
-1.52798
-1.53443
-1.79845
-2.1359
-2.66448
-3.17865
-3.32011
-2.5421
-0.610443
2.20552
5.13289
7.22088
7.93644
6.85297
3.69155
-1.55434
-8.38958
-15.7014
-22.1542
-26.9467
-29.8642
-30.5549
-28.8085
-25.158
-20.5466
-15.3615
-9.83554
-4.69067
-0.825825
1.35072
1.97582
1.38442
-0.114028
-2.27509
-4.89497
-7.77314
-10.6979
-13.4275
-15.6936
-17.2318
-17.8362
-17.4245
-16.0513
-13.8845
-11.1577
-8.12644
-5.03532
-2.08761
0.579386
2.89787
4.85296
6.46138
7.75537
8.77316
9.55383
10.1348
10.5507
10.8326
11.0082
11.1016
11.1334
11.1201
11.0735
10.9987
10.8948
10.752
10.5485
10.1727
9.24561
7.11767
3.16959
-2.81781
-10.4458
-18.4219
-24.859
-28.0873
-27.3086
-22.4267
-14.6439
-6.11963
0.910576
5.44389
7.89951
9.14147
9.79032
10.1635
10.4076
10.5883
10.7329
10.8541
10.9589
11.0534
11.1351
11.2022
11.2241
11.187
10.962
10.4199
8.93665
6.23309
2.0478
-0.844332
-1.90784
-2.16762
-2.63563
-3.05575
-3.05079
-2.15132
-0.173124
2.5829
5.41096
7.47578
8.20024
7.04977
3.88558
-1.24551
-7.87776
-14.9623
-21.2449
-25.9394
-28.7631
-29.4147
-27.7833
-24.386
-20.0061
-15.0213
-9.784
-5.03655
-1.53062
0.462508
1.09267
0.638753
-0.644705
-2.54152
-4.86435
-7.42613
-10.03
-12.4568
-14.4658
-15.822
-16.3446
-15.9601
-14.7125
-12.7454
-10.2616
-7.48538
-4.63341
-1.88846
0.62126
2.82669
4.70606
6.26778
7.53663
8.5448
9.32671
9.91627
10.3454
10.6433
10.836
10.9467
10.9948
10.9961
10.962
10.8973
10.8005
10.6619
10.4613
10.1067
9.25343
7.2796
3.57168
-2.09776
-9.34107
-16.9207
-23.0479
-26.1267
-25.4106
-20.7877
-13.4224
-5.39798
1.18041
5.42304
7.75618
8.97623
9.64082
10.0366
10.3006
10.4962
10.6506
10.777
10.883
10.9747
11.0499
11.1064
11.1143
11.0597
10.8192
10.2843
8.86186
6.35249
2.29702
-0.341571
-1.87247
-2.13779
-2.52399
-2.79947
-2.64488
-1.68505
0.21995
2.80982
5.44189
7.33585
7.92388
6.80689
3.70734
-1.19871
-7.44297
-14.12
-20.0981
-24.6017
-27.2843
-27.9142
-26.4533
-23.3467
-19.2184
-14.48
-9.60652
-5.30961
-2.17096
-0.352731
0.281394
-0.0497902
-1.13947
-2.79843
-4.85115
-7.1229
-9.42954
-11.5729
-13.3398
-14.5246
-14.9701
-14.6098
-13.4773
-11.6929
-9.43107
-6.88779
-4.25516
-1.69831
0.662941
2.75938
4.56402
6.07842
7.32081
8.31785
9.09958
9.69649
10.1379
10.4509
10.6603
10.7877
10.8518
10.8676
10.8458
10.7911
10.7015
10.5674
10.369
10.0305
9.24607
7.43199
3.98702
-1.3285
-8.14743
-15.2955
-21.0878
-24.0082
-23.3577
-19.0157
-12.1086
-4.63181
1.46058
5.3994
7.60843
8.80721
9.48782
9.90646
10.1905
10.401
10.5654
10.697
10.8042
10.893
10.9617
11.0074
11.0012
10.9291
10.6725
10.1428
8.77604
6.45505
2.52588
0.15417
-1.85624
-2.06092
-2.31827
-2.43946
-2.16348
-1.20799
0.519046
2.78527
5.06604
6.72963
7.19957
6.06795
3.16185
-1.41358
-7.15937
-13.2679
-18.7845
-22.9865
-25.5055
-26.1523
-24.8945
-22.0636
-18.1863
-13.7574
-9.33168
-5.52177
-2.74068
-1.08437
-0.45102
-0.677618
-1.59614
-3.04077
-4.84878
-6.85734
-8.89501
-10.7816
-12.3278
-13.3547
-13.7269
-13.3844
-12.3518
-10.729
-8.66512
-6.33151
-3.89877
-1.51615
0.704874
2.69615
4.42706
5.89359
7.10826
8.0927
8.87281
9.4758
9.92839
10.2558
10.4811
10.6249
10.7046
10.7346
10.725
10.6802
10.598
10.4685
10.2719
9.94661
9.2284
7.57914
4.41722
-0.511649
-6.8708
-13.5581
-18.9976
-21.755
-21.175
-17.1376
-10.729
-3.84166
1.74053
5.37081
7.4578
8.63631
9.33256
9.77353
10.0774
10.303
10.4773
10.6143
10.7227
10.8087
10.8706
10.9056
10.8852
10.7958
10.5227
9.99701
8.681
6.54127
2.73488
0.634306
-1.7716
-1.90804
-2.04489
-2.03896
-1.69647
-0.826835
0.619948
2.46799
4.32509
5.6811
6.03525
4.96754
2.30445
-1.83871
-7.02904
-12.5237
-17.4929
-21.3118
-23.6489
-24.3075
-23.1751
-20.5358
-16.9246
-12.9005
-8.99724
-5.68037
-3.23317
-1.72908
-1.10714
-1.24948
-2.01896
-3.27023
-4.85509
-6.62298
-8.41684
-10.0717
-11.419
-12.3029
-12.6062
-12.2747
-11.3266
-9.84465
-7.95656
-5.81203
-3.56227
-1.34169
0.746617
2.6365
4.29487
5.71321
6.89907
7.86953
8.64662
9.25441
9.71712
10.058
10.2986
10.4581
10.5532
10.5972
10.5996
10.5647
10.4898
10.3651
10.1707
9.85607
9.20022
7.71751
4.85326
0.338044
-5.53151
-11.7338
-16.8045
-19.3935
-18.8889
-15.1796
-9.30758
-3.04494
2.01218
5.33557
7.30464
8.4639
9.17513
9.63788
9.96148
10.2022
10.3865
10.5289
10.6385
10.7217
10.7769
10.8011
10.7666
10.66
10.3703
9.84708
8.57618
6.608
2.91901
1.08741
-1.6867
-1.761
-1.80462
-1.71298
-1.35141
-0.598925
0.566386
2.00004
3.40285
4.39871
4.60318
3.65058
1.31595
-2.33578
-6.92575
-11.8093
-16.2493
-19.6864
-21.7814
-22.2973
-21.179
-18.7337
-15.4981
-11.9944
-8.64985
-5.79835
-3.65376
-2.29425
-1.69413
-1.76945
-2.40821
-3.48419
-4.8645
-6.41147
-7.98147
-9.42517
-10.5928
-11.3478
-11.5875
-11.263
-10.3874
-9.02962
-7.29895
-5.32594
-3.2443
-1.17469
0.787999
2.58022
4.16738
5.53735
6.69342
7.64858
8.42127
9.03258
9.50429
9.85772
10.1128
10.2876
10.3976
10.4553
10.4696
10.4444
10.3771
10.2575
10.0657
9.75922
9.15913
7.83872
5.27925
1.19853
-4.15571
-9.85141
-14.5389
-16.9556
-16.5335
-13.1767
-7.87606
-2.26312
2.26644
5.29226
7.14987
8.29092
9.01614
9.49987
9.84291
10.0986
10.2932
10.441
10.552
10.6322
10.6807
10.6941
10.6456
10.522
10.2154
9.6931
8.46089
6.65251
3.07402
1.50392
-1.59674
-1.62572
-1.60928
-1.47163
-1.11976
-0.477931
0.453253
1.55222
2.58862
3.27227
3.30404
2.4106
0.404352
-2.70732
-6.64636
-10.8804
-14.7691
-17.7742
-19.535
-19.8898
-18.8739
-16.7828
-14.0666
-11.1377
-8.32179
-5.88242
-4.00785
-2.78605
-2.21567
-2.2378
-2.76183
-3.67946
-4.87264
-6.21691
-7.58191
-8.83322
-9.83772
-10.4753
-10.6561
-10.3359
-9.52356
-8.27627
-6.68751
-4.87077
-2.94398
-1.01518
0.828648
2.52692
4.04434
5.36593
6.49137
7.42999
8.19696
8.81051
9.29011
9.65513
9.92397
10.1134
10.2378
10.309
10.335
10.3196
10.2599
10.1457
9.95729
9.65732
9.10506
7.93725
5.68083
2.04694
-2.77229
-7.94387
-12.2371
-14.4797
-14.1491
-11.1692
-6.4687
-1.51721
2.49565
5.23999
6.99409
8.11772
8.85569
9.35954
9.72175
9.99254
10.1973
10.3508
10.4631
10.5404
10.5821
10.5849
10.5223
10.3822
10.0585
9.53562
8.33537
6.67356
3.19738
1.87599
-1.51581
-1.51531
-1.46288
-1.30453
-0.977509
-0.437229
0.303889
1.14562
1.90581
2.35283
2.25119
1.3981
-0.333889
-2.9346
-6.20139
-9.72989
-13.0015
-15.5374
-17.0314
-17.377
-16.6194
-14.9797
-12.793
-10.3824
-8.01925
-5.93428
-4.30061
-3.20902
-2.67309
-2.65302
-3.07663
-3.85204
-4.87539
-6.03502
-7.21337
-8.28984
-9.14627
-9.67719
-9.80355
-9.48559
-8.72857
-7.57992
-6.11924
-4.44495
-2.66078
-0.863233
0.868224
2.47628
3.92552
5.19887
6.29297
7.21392
7.97388
8.58843
9.07479
9.45045
9.73225
9.93567
10.0742
10.1585
10.1961
10.1904
10.1384
10.0301
9.84578
9.55168
9.03909
8.00959
6.0447
2.85851
-1.41493
-6.0508
-9.94231
-12.0131
-11.7841
-9.20403
-5.12258
-0.827471
2.69356
5.17838
6.83776
7.94453
8.69388
9.21702
9.59815
9.88404
10.0992
10.2585
10.3721
10.4467
10.4816
10.4736
10.3971
10.2407
9.90009
9.37523
8.2003
6.67075
3.28739
2.19788
-1.44229
-1.42236
-1.3503
-1.18893
-0.89759
-0.452042
0.12835
0.760145
1.29966
1.56593
1.37514
0.573284
-0.927104
-3.10296
-5.78841
-8.67501
-11.368
-13.5028
-14.8304
-15.2302
-14.7163
-13.4543
-11.7001
-9.71453
-7.73102
-5.95284
-4.53507
-3.56538
-3.06664
-3.01389
-3.35058
-3.9994
-4.86968
-5.862
-6.87107
-7.78921
-8.51179
-8.94608
-9.02256
-8.7053
-7.99688
-6.93635
-5.59133
-4.04694
-2.39415
-0.718935
0.906362
2.42788
3.81063
5.03602
6.0982
7.00045
7.75219
8.36653
8.85852
9.24385
9.53783
9.75464
9.90668
10.0039
10.0529
10.0569
10.0128
9.91077
9.73157
9.44356
8.96301
8.05392
6.35912
3.60755
-0.12155
-4.21801
-7.70507
-9.6089
-9.49465
-7.33253
-3.87402
-0.210679
2.85633
5.1075
6.68099
7.77111
8.53053
9.07227
9.47217
9.77328
9.99903
10.1643
10.2794
10.3512
10.3793
10.3607
10.2705
10.0981
9.74069
9.21265
8.05673
6.64469
3.34373
2.46683
-1.38031
-1.34991
-1.2712
-1.11918
-0.868847
-0.509705
-0.0643897
0.397945
0.763703
0.891572
0.639052
-0.110061
-1.4161
-3.25175
-5.48093
-7.8632
-10.098
-11.902
-13.0633
-13.4694
-13.126
-12.1537
-10.7446
-9.11017
-7.44985
-5.93931
-4.71468
-3.85809
-3.39807
-3.32097
-3.58312
-4.12004
-4.85317
-5.69471
-6.55098
-7.32629
-7.92823
-8.27529
-8.30631
-7.98881
-7.32326
-6.34164
-5.10121
-3.67533
-2.14359
-0.582381
0.942693
2.38131
3.69934
4.8772
5.90701
6.78964
7.53203
8.14498
8.64152
9.03555
9.34089
9.57046
9.73558
9.84536
9.90578
9.91942
9.88342
9.78822
9.61506
9.33406
8.87943
8.071
6.6162
4.27077
1.06871
-2.49609
-5.58301
-7.32871
-7.3428
-5.60666
-2.75476
0.321788
2.98275
5.02773
6.52341
7.5969
8.36532
8.92521
9.34391
9.66048
9.8971
10.0685
10.1853
10.2544
10.2757
10.2466
10.1426
9.95478
9.58081
9.04869
7.90617
6.59712
3.36774
2.6833
-1.32956
-1.29522
-1.2184
-1.08308
-0.875294
-0.593436
-0.26105
0.0643224
0.292948
0.31529
0.0219999
-0.673977
-1.81405
-3.37069
-5.23347
-7.21368
-9.07702
-10.5954
-11.5994
-11.9948
-11.7761
-11.0276
-9.89728
-8.55684
-7.17332
-5.89604
-4.84337
-4.09089
-3.6701
-3.57565
-3.77442
-4.21308
-4.82413
-5.53057
-6.24962
-6.89666
-7.39027
-7.65895
-7.64881
-7.33057
-6.70304
-5.79225
-4.64649
-3.32883
-1.90866
-0.453678
0.976835
2.33614
3.5913
4.72218
5.71932
6.58151
7.31348
7.92394
8.42395
8.82574
9.14165
9.38335
9.5611
9.68317
9.75487
9.77836
9.75072
9.66287
9.49675
9.22407
8.79131
8.06423
6.81355
4.83115
2.12
-0.936581
-3.63783
-5.23846
-5.39079
-4.07235
-1.78696
0.765719
3.07417
4.93941
6.36414
7.42095
8.19773
8.77568
9.21344
9.54586
9.79372
9.97155
10.0902
10.1566
10.1712
10.1315
10.0141
9.81111
9.42102
8.88422
7.75046
6.53076
3.36252
2.85084
-1.29073
-1.25763
-1.18879
-1.07474
-0.909033
-0.695371
-0.456711
-0.240748
-0.118252
-0.173869
-0.490902
-1.13379
-2.13005
-3.45336
-5.01406
-6.66378
-8.21926
-9.4992
-10.3672
-10.7422
-10.6134
-10.042
-9.14131
-8.04825
-6.90103
-5.82597
-4.92549
-4.26808
-3.88607
-3.78004
-3.92537
-4.27834
-4.78137
-5.36747
-5.96394
-6.49633
-6.89316
-7.09175
-7.0447
-6.72559
-6.132
-5.28495
-4.22503
-3.00624
-1.68896
-0.332951
1.0084
2.29192
3.48611
4.57068
5.53496
6.37602
7.09662
7.70351
8.20599
8.61462
8.94033
9.19355
9.38351
9.51761
9.60053
9.63405
9.61514
9.53522
9.37721
9.11437
8.70151
8.03903
6.95477
5.28144
3.00625
0.415629
-1.92735
-3.39926
-3.69099
-2.76091
-0.978992
1.12441
3.13378
4.84254
6.20174
7.24205
8.02712
8.62348
9.08085
9.42969
9.68929
9.87387
9.99446
10.0583
10.0662
10.0161
9.88533
9.6676
9.26191
8.7201
7.59164
6.44901
3.33282
2.97548
-1.26268
-1.23441
-1.17728
-1.0864
-0.96029
-0.805786
-0.64429
-0.515156
-0.474074
-0.586075
-0.91402
-1.50498
-2.37638
-3.50376
-4.81442
-6.19149
-7.49162
-8.5715
-9.32062
-9.67108
-9.60956
-9.17908
-8.46586
-7.579
-6.63232
-5.73186
-4.96541
-4.39412
-4.04968
-3.93672
-4.03738
-4.31613
-4.72423
-5.2038
-5.69139
-6.12187
-6.43267
-6.56898
-6.48914
-6.16935
-5.60628
-4.81679
-3.83482
-2.70649
-1.48411
-0.220331
1.03698
2.24816
3.38334
4.42237
5.35375
6.17308
6.88143
7.4838
7.98778
8.40238
8.73715
9.00132
9.20309
9.34901
9.44317
9.48694
9.47723
9.4059
9.25708
9.00566
8.61237
8.00188
7.04891
5.62635
3.71805
1.53298
-0.492428
-1.85316
-2.27304
-1.68119
-0.323714
1.40735
3.16552
4.73643
6.03429
7.05876
7.85275
8.46837
8.94622
9.31227
9.58423
9.77595
9.89871
9.96001
9.96127
9.90085
9.75687
9.52476
9.10408
8.55715
7.43179
6.35556
3.28464
3.06458
-1.24465
-1.22371
-1.18044
-1.11311
-1.02335
-0.919526
-0.820959
-0.75991
-0.780043
-0.931061
-1.25999
-1.80072
-2.5635
-3.52609
-4.6295
-5.78162
-6.87014
-7.78225
-8.42857
-8.75226
-8.73921
-8.41961
-7.85911
-7.14403
-6.36714
-5.61676
-4.96762
-4.47367
-4.16497
-4.04873
-4.11238
-4.32729
-4.65251
-5.03835
-5.42983
-5.77022
-6.00501
-6.08637
-5.97773
-5.65771
-5.12236
-4.38503
-3.47402
-2.42854
-1.29379
-0.115959
1.06217
2.20436
3.2825
4.27687
5.1754
5.97254
6.66789
7.26485
7.76943
8.1892
8.53236
8.80695
9.02018
9.17778
9.28322
9.33752
9.33756
9.2756
9.13705
8.89867
8.52569
7.95911
7.10853
5.88178
4.26646
2.41483
0.65659
-0.609215
-1.13404
-0.816783
0.199163
1.62737
3.1727
4.61954
5.85951
6.86952
7.67378
8.31002
8.80963
9.19396
9.47905
9.6784
9.80356
9.86242
9.85701
9.7863
9.6293
9.38313
8.94813
8.3961
7.27289
6.25394
3.22461
3.12529
-1.23527
-1.22319
-1.19467
-1.15001
-1.0927
-1.03158
-0.983695
-0.975311
-1.04052
-1.21708
-1.53981
-2.03266
-2.70087
-3.52452
-4.45578
-5.42197
-6.33491
-7.10612
-7.66343
-7.95987
-7.98156
-7.74931
-7.31275
-6.73982
-6.10572
-5.48356
-4.93645
-4.51138
-4.23615
-4.11941
-4.15267
-4.31305
-4.56638
-4.87031
-5.17748
-5.43875
-5.60683
-5.64009
-5.5065
-5.18692
-4.67699
-3.98716
-3.1409
-2.17143
-1.11766
-0.0199798
1.08355
2.15999
3.18308
4.13372
4.99958
5.77419
6.45588
7.04664
7.55104
7.97523
8.32616
8.61073
8.83514
9.00434
9.12118
9.18637
9.19679
9.14509
9.01793
8.79417
8.44281
7.91595
7.14702
6.07084
4.68079
3.09
1.54603
0.361697
-0.238521
-0.130983
0.617005
1.79702
3.15697
4.48941
5.67482
6.67257
7.48918
8.14801
8.67112
9.07517
9.37434
9.58188
9.70968
9.76617
9.75407
9.6731
9.50322
9.24327
8.79469
8.23762
7.11663
6.14712
3.15861
3.16364
-1.23309
-1.23063
-1.21679
-1.19317
-1.1642
-1.13854
-1.13091
-1.16254
-1.25991
-1.45149
-1.7628
-2.2104
-2.79608
-3.50226
-4.29016
-5.10235
-5.86959
-6.52266
-7.00346
-7.27326
-7.31906
-7.15497
-6.81843
-6.36268
-5.84822
-5.33506
-4.87611
-4.51187
-4.2675
-4.1523
-4.16082
-4.27495
-4.46636
-4.6992
-4.93291
-5.12518
-5.23513
-5.22669
-5.07186
-4.75356
-4.26719
-3.62084
-2.83385
-1.93427
-0.955444
0.0674497
1.10069
2.11448
3.08449
3.99243
4.82589
5.57774
6.24524
6.82912
7.33262
7.76062
8.11879
8.41296
8.64837
8.82916
8.95762
9.03413
9.05561
9.01514
8.90056
8.69289
8.36469
7.87603
7.17596
6.21794
5.00004
3.60853
2.23202
1.11882
0.470751
0.421969
0.956582
1.92538
3.11774
4.34288
5.47734
6.46578
7.29761
7.98176
8.53074
8.95631
9.27075
9.48716
9.61787
9.672
9.65319
9.5619
9.37929
9.10576
8.64437
8.08223
6.96436
6.0373
3.09109
3.18394
-1.23702
-1.24433
-1.24449
-1.23982
-1.23508
-1.23836
-1.26216
-1.3235
-1.44282
-1.64145
-1.93783
-2.3431
-2.85677
-3.46344
-4.13172
-4.81612
-5.46241
-6.01628
-6.43118
-6.67547
-6.73733
-6.6261
-6.36986
-6.01008
-5.59512
-5.17396
-4.7906
-4.47959
-4.2633
-4.15103
-4.13961
-4.21479
-4.35324
-4.5248
-4.69498
-4.82753
-4.88728
-4.84307
-4.67054
-4.35447
-3.89021
-3.28389
-2.55138
-1.7162
-0.806856
0.146164
1.11313
2.06724
2.98612
3.85242
4.65384
5.3828
6.0357
6.61215
7.11418
7.54544
7.91046
8.21397
8.46028
8.65276
8.79314
8.88149
8.91479
8.88656
8.7858
8.59564
8.29208
7.8415
7.20347
6.34333
5.26178
4.02555
2.78278
1.73242
1.05463
0.883461
1.23727
2.01635
3.05241
4.1761
5.26357
6.24644
7.09734
7.81049
8.38851
8.83787
9.16908
9.39512
9.52902
9.58078
9.55513
9.45344
9.25818
8.9712
8.49782
7.93046
6.81717
5.92598
3.0251
3.18893
-1.24513
-1.26187
-1.27487
-1.28679
-1.30231
-1.32874
-1.37652
-1.45921
-1.59247
-1.79213
-2.07132
-2.43724
-2.88797
-3.41016
-3.97838
-4.55661
-5.10245
-5.57311
-5.93147
-6.15185
-6.22372
-6.15306
-5.96083
-5.67918
-5.34655
-5.00258
-4.68359
-4.41877
-4.22768
-4.11925
-4.09189
-4.1345
-4.22799
-4.34716
-4.46282
-4.5441
-4.56092
-4.48646
-4.29958
-3.9868
-3.54353
-2.97431
-2.29205
-1.51643
-0.671648
0.215987
1.1204
2.01765
2.88729
3.71301
4.48285
5.18892
5.82692
6.39551
6.89563
7.32977
7.70136
8.01407
8.27131
8.47569
8.62841
8.72921
8.77514
8.76022
8.67452
8.50322
8.22555
7.81335
7.23388
6.46014
5.49333
4.38517
3.25485
2.2594
1.55753
1.27898
1.46788
2.06937
2.95698
3.9843
5.02906
6.01103
6.88613
7.63322
8.24441
8.72046
9.07022
9.30676
9.4441
9.49341
9.46073
9.34843
9.14056
8.84017
8.35565
7.78274
6.67597
5.81408
2.96303
3.18039
-1.25708
-1.28263
-1.30709
-1.33316
-1.36527
-1.4098
-1.47539
-1.57273
-1.71373
-1.91001
-2.17078
-2.50039
-2.8961
-3.34641
-3.83069
-4.32046
-4.78253
-5.18317
-5.49294
-5.69103
-5.76827
-5.72829
-5.58664
-5.3681
-5.103
-4.82326
-4.5586
-4.33344
-4.16467
-4.06053
-4.02056
-4.03614
-4.09176
-4.16648
-4.23576
-4.27347
-4.25398
-4.15434
-3.95628
-3.64792
-3.2248
-2.69021
-2.05456
-1.33421
-0.549588
0.276726
1.12201
1.96502
2.78723
3.57348
4.31224
4.99551
5.61845
6.1789
6.67681
7.1136
7.49162
7.81355
8.0819
8.29853
8.4641
8.57807
8.63754
8.63701
8.56762
8.41643
8.16569
7.79198
7.26872
6.57426
5.70897
4.71226
3.67716
2.72684
1.99917
1.61828
1.65027
2.08169
2.82635
3.76146
4.76808
5.75509
6.6612
7.44884
8.09838
8.60476
8.97519
9.22321
9.36423
9.41091
9.3709
9.24767
9.02718
8.71332
8.21855
7.63958
6.54174
5.7025
2.90658
3.15948
-1.2704
-1.30384
-1.33816
-1.37597
-1.42125
-1.4795
-1.55776
-1.66439
-1.80836
-1.99811
-2.23993
-2.53621
-2.88378
-3.27282
-3.68663
-4.10269
-4.49489
-4.83668
-5.10478
-5.28238
-5.36161
-5.34447
-5.24244
-5.0745
-4.86444
-4.63776
-4.41861
-4.22723
-4.07798
-3.97831
-3.92844
-3.92178
-3.94576
-3.9831
-4.01331
-4.01437
-3.9646
-3.84444
-3.63818
-3.33539
-2.93186
-2.42983
-1.83766
-1.16882
-0.440466
0.328172
1.11743
1.90863
2.68513
3.43297
4.1412
4.80186
5.40971
5.9619
6.45747
6.89685
7.28137
7.61272
7.89253
8.12191
8.301
8.42894
8.50292
8.51788
8.466
8.33609
8.1131
7.77769
7.3083
6.68718
5.91314
5.01432
4.05933
3.14469
2.38759
1.90578
1.78466
2.04962
2.65401
3.49993
4.47354
5.47325
6.41925
7.25595
7.95046
8.49162
8.8852
9.14576
9.29063
9.33437
9.28657
9.15193
8.91868
8.59115
8.0871
7.50137
6.41544
5.59204
2.85727
3.12623
-1.28605
-1.32637
-1.36896
-1.41623
-1.47167
-1.53993
-1.62667
-1.73837
-1.88173
-2.06277
-2.28567
-2.55143
-2.85679
-3.19338
-3.54771
-3.90193
-4.23551
-4.52758
-4.75973
-4.91845
-4.99702
-4.99638
-4.9249
-4.79705
-4.63136
-4.44806
-4.26662
-4.10365
-3.97123
-3.87591
-3.81836
-3.79352
-3.7913
-3.79751
-3.79513
-3.76577
-3.69116
-3.55472
-3.34303
-3.04701