/*--------------------------------*- C++ -*----------------------------------*\
  =========                 |
  \\      /  F ield         | OpenFOAM: The Open Source CFD Toolbox
   \\    /   O peration     | Website:  https://openfoam.org
    \\  /    A nd           | Version:  10
     \\/     M anipulation  |
\*---------------------------------------------------------------------------*/
FoamFile
{
    format      ascii;
    class       surfaceScalarField;
    location    "0.175";
    object      phi;
}
// * * * * * * * * * * * * * * * * * * * * * * * * * * * * * * * * * * * * * //

dimensions      [0 3 -1 0 0 0 0];

internalField   nonuniform List<scalar> 
13452
(
4.01908e-05
2.00777e-05
2.593e-05
1.42608e-05
1.85222e-05
7.4078e-06
1.51446e-05
3.37754e-06
1.37239e-05
1.42068e-06
1.30086e-05
7.15334e-07
1.25464e-05
4.62252e-07
1.21853e-05
3.61057e-07
1.18758e-05
3.0955e-07
1.16057e-05
2.70073e-07
1.13708e-05
2.34861e-07
1.11672e-05
2.03591e-07
1.09907e-05
1.76544e-07
1.0837e-05
1.53652e-07
1.07026e-05
1.34455e-07
1.05842e-05
1.18344e-07
1.04795e-05
1.04729e-07
1.03864e-05
9.3093e-08
1.03034e-05
8.30045e-08
1.02293e-05
7.41036e-08
1.01632e-05
6.60855e-08
1.01045e-05
5.86837e-08
1.00529e-05
5.16482e-08
1.00081e-05
4.47492e-08
9.97044e-06
3.77046e-08
9.94008e-06
3.03533e-08
9.918e-06
2.20803e-08
9.90451e-06
1.34959e-08
9.90383e-06
6.79237e-10
9.91039e-06
-6.56535e-09
9.9435e-06
-3.31068e-08
9.94704e-06
-3.54265e-09
-1.92672e-07
1.01397e-05
6.59018e-05
1.61662e-05
6.18926e-05
1.82701e-05
5.56265e-05
1.36739e-05
4.97512e-05
9.25279e-06
4.52473e-05
5.9246e-06
4.20252e-05
3.93744e-06
3.9708e-05
2.77946e-06
3.79965e-05
2.07255e-06
3.66851e-05
1.62092e-06
3.56427e-05
1.31248e-06
3.47888e-05
1.08878e-06
3.40727e-05
9.19618e-07
3.34615e-05
7.87786e-07
3.29324e-05
6.82711e-07
3.24695e-05
5.97398e-07
3.20609e-05
5.26997e-07
3.16975e-05
4.68034e-07
3.13727e-05
4.1796e-07
3.10808e-05
3.74863e-07
3.08177e-05
3.37267e-07
3.05797e-05
3.03997e-07
3.03643e-05
2.74082e-07
3.01693e-05
2.46676e-07
2.99931e-05
2.21016e-07
2.98344e-05
1.96334e-07
2.96928e-05
1.71943e-07
2.95681e-05
1.46772e-07
2.94611e-05
1.20532e-07
2.9372e-05
8.97804e-08
2.93063e-05
5.91893e-08
2.92648e-05
8.34964e-09
2.92921e-05
-3.08313e-08
-1.61816e-07
2.92612e-05
6.91812e-05
1.07464e-05
7.25059e-05
1.49454e-05
7.30551e-05
1.31247e-05
7.16734e-05
1.06345e-05
6.94178e-05
8.18022e-06
6.70252e-05
6.33007e-06
6.4779e-05
5.02562e-06
6.27703e-05
4.08124e-06
6.10098e-05
3.38142e-06
5.94755e-05
2.84676e-06
5.81384e-05
2.42595e-06
5.69702e-05
2.08781e-06
5.59459e-05
1.81206e-06
5.50441e-05
1.58453e-06
5.42467e-05
1.39483e-06
5.35385e-05
1.2352e-06
5.29068e-05
1.09966e-06
5.23412e-05
9.83587e-07
5.18328e-05
8.83304e-07
5.13742e-05
7.95865e-07
5.09593e-05
7.18853e-07
5.05832e-05
6.50244e-07
5.02415e-05
5.88287e-07
4.99311e-05
5.31421e-07
4.96493e-05
4.78167e-07
4.93941e-05
4.27139e-07
4.91642e-05
3.76702e-07
4.89591e-05
3.25618e-07
4.87781e-05
2.70768e-07
4.86244e-05
2.12889e-07
4.84919e-05
1.4084e-07
4.83949e-05
6.6145e-08
-4.4883e-08
4.8278e-05
6.88454e-05
7.48409e-06
7.21597e-05
1.16311e-05
7.45334e-05
1.0751e-05
7.5941e-05
9.22693e-06
7.6514e-05
7.60712e-06
7.65688e-05
6.27529e-06
7.63127e-05
5.28172e-06
7.58711e-05
4.52289e-06
7.53244e-05
3.92811e-06
7.47214e-05
3.4497e-06
7.40929e-05
3.05447e-06
7.34592e-05
2.72157e-06
7.28343e-05
2.43691e-06
7.2228e-05
2.19086e-06
7.16459e-05
1.97687e-06
7.10915e-05
1.78965e-06
7.05662e-05
1.62493e-06
7.00706e-05
1.47918e-06
6.96044e-05
1.3495e-06
6.91669e-05
1.23339e-06
6.8757e-05
1.12872e-06
6.83737e-05
1.03357e-06
6.80158e-05
9.46227e-07
6.76821e-05
8.65049e-07
6.73719e-05
7.88435e-07
6.70842e-05
7.14791e-07
6.68186e-05
6.4231e-07
6.65749e-05
5.69302e-07
6.63527e-05
4.92988e-07
6.61534e-05
4.12212e-07
6.59734e-05
3.20804e-07
6.58187e-05
2.20876e-07
1.05207e-07
6.56686e-05
6.95583e-05
5.38255e-06
7.18339e-05
9.35555e-06
7.35342e-05
9.05065e-06
7.48034e-05
7.95768e-06
7.56947e-05
6.71588e-06
7.63449e-05
5.62502e-06
7.68398e-05
4.78685e-06
7.72205e-05
4.14218e-06
7.75146e-05
3.634e-06
7.77402e-05
3.22414e-06
7.79097e-05
2.88499e-06
7.80327e-05
2.59852e-06
7.81162e-05
2.35347e-06
7.81655e-05
2.14153e-06
7.81863e-05
1.95609e-06
7.81835e-05
1.79238e-06
7.81617e-05
1.6468e-06
7.81244e-05
1.51647e-06
7.80749e-05
1.39901e-06
7.80158e-05
1.29243e-06
7.79496e-05
1.19499e-06
7.7878e-05
1.10512e-06
7.78029e-05
1.02139e-06
7.77255e-05
9.42381e-07
7.76473e-05
8.66685e-07
7.75692e-05
7.92846e-07
7.74923e-05
7.19224e-07
7.74174e-05
6.44162e-07
7.73451e-05
5.65382e-07
7.7276e-05
4.81241e-07
7.72086e-05
3.88226e-07
7.71434e-05
2.86127e-07
1.72841e-07
7.70757e-05
7.08398e-05
3.92681e-06
7.26258e-05
7.56951e-06
7.39312e-05
7.74525e-06
7.48601e-05
7.02876e-06
7.54893e-05
6.08676e-06
7.5938e-05
5.17627e-06
7.62935e-05
4.43134e-06
7.65961e-05
3.8396e-06
7.6866e-05
3.36406e-06
7.71131e-05
2.9771e-06
7.73413e-05
2.65674e-06
7.7553e-05
2.38683e-06
7.77502e-05
2.15629e-06
7.79344e-05
1.95734e-06
7.81064e-05
1.78408e-06
7.82668e-05
1.63192e-06
7.84164e-05
1.49727e-06
7.85556e-05
1.37724e-06
7.86852e-05
1.26944e-06
7.88057e-05
1.17189e-06
7.89178e-05
1.08285e-06
7.90222e-05
1.0008e-06
7.91192e-05
9.24333e-07
7.92095e-05
8.52099e-07
7.92934e-05
7.82767e-07
7.93713e-05
7.14989e-07
7.94432e-05
6.47296e-07
7.95092e-05
5.782e-07
7.95687e-05
5.05868e-07
7.96212e-05
4.28768e-07
7.96649e-05
3.44517e-07
7.96989e-05
2.52137e-07
1.49094e-07
7.97226e-05
7.23885e-05
2.90469e-06
7.38398e-05
6.11817e-06
7.49664e-05
6.61861e-06
7.57835e-05
6.21173e-06
7.63403e-05
5.52988e-06
7.67209e-05
4.79571e-06
7.70015e-05
4.15071e-06
7.72244e-05
3.61673e-06
7.7413e-05
3.1755e-06
7.75806e-05
2.80945e-06
7.77344e-05
2.50292e-06
7.78782e-05
2.24305e-06
7.80141e-05
2.02038e-06
7.81435e-05
1.82791e-06
7.82674e-05
1.66026e-06
7.83861e-05
1.51316e-06
7.85002e-05
1.38321e-06
7.86098e-05
1.26762e-06
7.87151e-05
1.16409e-06
7.88164e-05
1.07066e-06
7.89136e-05
9.85642e-07
7.90068e-05
9.07522e-07
7.90963e-05
8.34931e-07
7.91818e-05
7.66578e-07
7.92633e-05
7.01208e-07
7.93407e-05
6.37578e-07
7.94136e-05
5.74394e-07
7.94815e-05
5.10365e-07
7.95433e-05
4.44039e-07
7.95979e-05
3.74141e-07
7.96434e-05
2.99015e-07
7.96779e-05
2.17681e-07
1.28411e-07
7.96986e-05
7.41249e-05
2.18507e-06
7.52913e-05
4.95176e-06
7.62716e-05
5.63834e-06
7.7022e-05
5.4613e-06
7.75656e-05
4.98633e-06
7.79516e-05
4.40964e-06
7.82379e-05
3.86447e-06
7.84617e-05
3.3929e-06
7.86456e-05
2.99161e-06
7.88036e-05
2.65145e-06
7.8944e-05
2.36253e-06
7.90717e-05
2.11538e-06
7.91897e-05
1.90237e-06
7.93e-05
1.71757e-06
7.9404e-05
1.55624e-06
7.95026e-05
1.41455e-06
7.95965e-05
1.28933e-06
7.96861e-05
1.17801e-06
7.97718e-05
1.07839e-06
7.98539e-05
9.88602e-07
7.99325e-05
9.07039e-07
8.00078e-05
8.32262e-07
8.00797e-05
7.62966e-07
8.01484e-05
6.97945e-07
8.02135e-05
6.36045e-07
8.0275e-05
5.76154e-07
8.03322e-05
5.17163e-07
8.03846e-05
4.57999e-07
8.0431e-05
3.97554e-07
8.04703e-05
3.34862e-07
8.05005e-05
2.68855e-07
8.05193e-05
1.9883e-07
1.24038e-07
8.05237e-05
7.60163e-05
1.67119e-06
7.69518e-05
4.01633e-06
7.77989e-05
4.79117e-06
7.84782e-05
4.78201e-06
7.89961e-05
4.46843e-06
7.93811e-05
4.02463e-06
7.96754e-05
3.57023e-06
7.99101e-05
3.1582e-06
8.01048e-05
2.79688e-06
8.02723e-05
2.48397e-06
8.04206e-05
2.21428e-06
8.05545e-05
1.98139e-06
8.06775e-05
1.7794e-06
8.07916e-05
1.60344e-06
8.08984e-05
1.44944e-06
8.0999e-05
1.314e-06
8.10941e-05
1.19426e-06
8.11842e-05
1.08783e-06
8.12699e-05
9.92683e-07
8.13515e-05
9.07063e-07
8.14291e-05
8.29446e-07
8.15029e-05
7.58483e-07
8.15729e-05
6.9296e-07
8.1639e-05
6.31766e-07
8.17012e-05
5.73869e-07
8.17591e-05
5.18305e-07
8.18121e-05
4.64158e-07
8.18595e-05
4.10589e-07
8.19002e-05
3.56813e-07
8.19329e-05
3.02204e-07
8.19555e-05
2.46223e-07
8.19657e-05
1.88626e-07
1.29615e-07
8.19601e-05
7.80326e-05
1.29818e-06
7.87826e-05
3.2663e-06
7.95124e-05
4.06135e-06
8.01249e-05
4.16951e-06
8.06137e-05
3.97966e-06
8.09925e-05
3.64584e-06
8.12901e-05
3.27264e-06
8.15315e-05
2.91676e-06
8.17337e-05
2.59469e-06
8.19083e-05
2.30942e-06
8.20629e-05
2.05964e-06
8.22027e-05
1.84163e-06
8.23309e-05
1.65122e-06
8.24497e-05
1.48456e-06
8.25609e-05
1.33829e-06
8.26654e-05
1.20946e-06
8.27641e-05
1.09554e-06
8.28576e-05
9.94344e-07
8.29463e-05
9.03997e-07
8.30305e-05
8.22872e-07
8.31104e-05
7.49544e-07
8.31861e-05
6.8276e-07
8.32577e-05
6.21402e-07
8.3325e-05
5.64467e-07
8.33878e-05
5.11053e-07
8.34458e-05
4.60346e-07
8.34983e-05
4.11628e-07
8.35446e-05
3.64287e-07
8.35836e-05
3.1784e-07
8.36138e-05
2.71991e-07
8.36333e-05
2.2666e-07
8.36399e-05
1.82075e-07
1.39102e-07
8.36304e-05
8.01542e-05
1.02228e-06
8.07573e-05
2.66318e-06
8.13855e-05
3.43318e-06
8.1937e-05
3.61801e-06
8.23954e-05
3.52125e-06
8.27643e-05
3.27698e-06
8.30619e-05
2.97496e-06
8.33078e-05
2.67084e-06
8.35163e-05
2.38626e-06
8.36974e-05
2.1283e-06
8.38584e-05
1.89866e-06
8.4004e-05
1.69599e-06
8.41376e-05
1.51763e-06
8.42614e-05
1.36076e-06
8.4377e-05
1.22267e-06
8.44856e-05
1.10088e-06
8.4588e-05
9.93145e-07
8.46848e-05
8.97528e-07
8.47765e-05
8.12313e-07
8.48634e-05
7.36004e-07
8.49456e-05
6.67287e-07
8.50234e-05
6.05012e-07
8.50966e-05
5.48165e-07
8.51652e-05
4.95856e-07
8.5229e-05
4.47312e-07
8.52875e-05
4.01874e-07
8.53401e-05
3.59003e-07
8.53861e-05
3.18307e-07
8.54243e-05
2.79559e-07
8.54536e-05
2.42759e-07
8.54721e-05
2.08183e-07
8.54777e-05
1.76452e-07
1.48816e-07
8.5468e-05
8.23687e-05
8.13979e-07
8.2856e-05
2.17589e-06
8.33962e-05
2.89304e-06
8.38918e-05
3.12245e-06
8.43196e-05
3.09335e-06
8.46766e-05
2.92006e-06
8.49728e-05
2.67877e-06
8.52223e-05
2.42131e-06
8.54366e-05
2.17192e-06
8.56244e-05
1.94051e-06
8.5792e-05
1.73106e-06
8.59439e-05
1.54406e-06
8.60834e-05
1.3782e-06
8.62126e-05
1.23157e-06
8.63332e-05
1.10209e-06
8.64463e-05
9.87731e-07
8.65529e-05
8.86573e-07
8.66535e-05
7.96893e-07
8.67487e-05
7.17153e-07
8.68387e-05
6.45991e-07
8.69238e-05
5.82212e-07
8.7004e-05
5.24771e-07
8.70794e-05
4.7276e-07
8.71499e-05
4.25403e-07
8.72151e-05
3.82053e-07
8.72748e-05
3.42192e-07
8.73283e-05
3.05447e-07
8.7375e-05
2.7161e-07
8.74139e-05
2.40671e-07
8.74438e-05
2.12856e-07
8.74633e-05
1.88696e-07
8.74707e-05
1.69078e-07
1.55397e-07
8.74641e-05
8.46684e-05
6.5333e-07
8.50648e-05
1.77948e-06
8.55296e-05
2.42825e-06
8.59746e-05
2.67742e-06
8.63729e-05
2.69514e-06
8.67163e-05
2.57666e-06
8.7009e-05
2.38604e-06
8.72605e-05
2.1698e-06
8.74796e-05
1.95279e-06
8.76735e-05
1.74666e-06
8.78476e-05
1.55697e-06
8.8006e-05
1.38563e-06
8.81517e-05
1.23249e-06
8.82869e-05
1.09642e-06
8.8413e-05
9.75932e-07
8.85314e-05
8.69387e-07
8.86428e-05
7.75181e-07
8.87478e-05
6.9181e-07
8.88471e-05
6.17903e-07
8.89408e-05
5.52235e-07
8.90293e-05
4.93727e-07
8.91127e-05
4.4144e-07
8.91908e-05
3.94571e-07
8.92638e-05
3.52452e-07
8.93313e-05
3.14551e-07
8.9393e-05
2.80478e-07
8.94485e-05
2.49998e-07
8.9497e-05
2.23053e-07
8.95379e-05
1.9979e-07
8.95702e-05
1.80593e-07
8.95927e-05
1.66141e-07
8.96043e-05
1.57453e-07
1.55885e-07
8.96039e-05
8.70487e-05
5.26768e-07
8.7374e-05
1.45418e-06
8.77749e-05
2.02741e-06
8.81745e-05
2.27775e-06
8.85443e-05
2.32533e-06
8.88733e-05
2.24769e-06
8.91611e-05
2.0982e-06
8.94134e-05
1.9175e-06
8.96366e-05
1.72964e-06
8.98361e-05
1.54711e-06
9.00167e-05
1.37645e-06
9.01817e-05
1.2206e-06
9.03339e-05
1.08028e-06
9.04753e-05
9.55028e-07
9.06074e-05
8.43848e-07
9.07313e-05
7.45479e-07
9.08479e-05
6.58591e-07
9.09578e-05
5.81887e-07
9.10615e-05
5.14161e-07
9.11595e-05
4.54318e-07
9.12518e-05
4.01393e-07
9.13387e-05
3.5455e-07
9.14202e-05
3.13084e-07
9.14962e-05
2.76426e-07
9.15666e-05
2.44146e-07
9.16311e-05
2.15958e-07
9.16894e-05
1.91738e-07
9.17409e-05
1.71534e-07
9.17851e-05
1.55598e-07
9.18213e-05
1.44399e-07
9.18488e-05
1.38668e-07
9.18668e-05
1.3944e-07
1.47914e-07
9.18747e-05
8.95073e-05
4.24971e-07
8.97771e-05
1.18444e-06
9.01241e-05
1.68034e-06
9.04836e-05
1.91826e-06
9.08269e-05
1.98202e-06
9.11413e-05
1.93333e-06
9.14233e-05
1.81622e-06
9.16753e-05
1.66545e-06
9.19016e-05
1.50336e-06
9.21062e-05
1.3425e-06
9.22928e-05
1.18988e-06
9.24643e-05
1.04911e-06
9.26231e-05
9.21521e-07
9.27709e-05
8.07208e-07
9.29092e-05
7.05572e-07
9.3039e-05
6.15673e-07
9.31611e-05
5.36425e-07
9.32763e-05
4.66719e-07
9.3385e-05
4.05499e-07
9.34875e-05
3.51794e-07
9.35841e-05
3.04741e-07
9.36751e-05
2.636e-07
9.37604e-05
2.27755e-07
9.38401e-05
1.96722e-07
9.39141e-05
1.70155e-07
9.39822e-05
1.4785e-07
9.40442e-05
1.29761e-07
9.40997e-05
1.16002e-07
9.41484e-05
1.06876e-07
9.419e-05
1.02875e-07
9.42239e-05
1.04707e-07
9.425e-05
1.13332e-07
1.29726e-07
9.42682e-05
9.20434e-05
3.41434e-07
9.22697e-05
9.58094e-07
9.2572e-05
1.37805e-06
9.28964e-05
1.59394e-06
9.32154e-05
1.66298e-06
9.35155e-05
1.63324e-06
9.37911e-05
1.54063e-06
9.40421e-05
1.41439e-06
9.42709e-05
1.27457e-06
9.44802e-05
1.13323e-06
9.46726e-05
9.97451e-07
9.48506e-05
8.71152e-07
9.5016e-05
7.56101e-07
9.51705e-05
6.52757e-07
9.53152e-05
5.60843e-07
9.54512e-05
4.79673e-07
9.55793e-05
4.08365e-07
9.57e-05
3.45973e-07
9.58139e-05
2.91571e-07
9.59214e-05
2.44297e-07
9.60228e-05
2.03383e-07
9.61182e-05
1.6817e-07
9.62078e-05
1.3812e-07
9.62917e-05
1.12818e-07
9.63699e-05
9.19841e-08
9.64423e-05
7.5472e-08
9.65088e-05
6.32798e-08
9.65692e-05
5.55554e-08
9.66235e-05
5.26053e-08
9.66715e-05
5.48942e-08
9.67131e-05
6.3049e-08
9.67486e-05
7.78973e-08
1.00161e-07
9.67781e-05
9.46571e-05
2.71536e-07
9.48495e-05
7.65605e-07
9.51149e-05
1.1127e-06
9.54088e-05
1.29999e-06
9.57061e-05
1.36569e-06
9.59928e-05
1.34654e-06
9.6262e-05
1.27146e-06
9.65117e-05
1.16466e-06
9.67426e-05
1.04368e-06
9.69562e-05
9.19635e-07
9.71543e-05
7.9936e-07
9.73386e-05
6.86815e-07
9.75108e-05
5.83976e-07
9.7672e-05
4.91542e-07
9.78234e-05
4.09454e-07
9.79658e-05
3.37217e-07
9.81001e-05
2.74108e-07
9.82267e-05
2.19311e-07
9.83463e-05
1.7201e-07
9.84592e-05
1.31433e-07
9.85657e-05
9.68919e-08
9.8666e-05
6.77984e-08
9.87605e-05
4.36737e-08
9.88491e-05
2.41589e-08
9.89321e-05
9.01713e-09
9.90094e-05
-1.86134e-09
9.90812e-05
-8.46145e-09
9.91474e-05
-1.06348e-08
9.92081e-05
-8.1033e-09
9.92634e-05
-4.69296e-10
9.93137e-05
1.27846e-08
9.93593e-05
3.23224e-08
5.86178e-08
9.94008e-05
9.73491e-05
2.11924e-07
9.75153e-05
5.99484e-07
9.77504e-05
8.77512e-07
9.80186e-05
1.03182e-06
9.82968e-05
1.08745e-06
9.85714e-05
1.07197e-06
9.88345e-05
1.00833e-06
9.90829e-05
9.16311e-07
9.93157e-05
8.10842e-07
9.95335e-05
7.01859e-07
9.97372e-05
5.95667e-07
9.9928e-05
4.96055e-07
0.000100107
4.05021e-07
0.000100275
3.23369e-07
0.000100433
2.51164e-07
0.000100583
1.88032e-07
0.000100723
1.33358e-07
0.000100856
8.64231e-08
0.000100982
4.64926e-08
0.0001011
1.28663e-08
0.000101212
-1.5083e-08
0.000101318
-3.78889e-08
0.000101418
-5.59852e-08
0.000101511
-6.96932e-08
0.0001016
-7.92229e-08
0.000101682
-8.46709e-08
0.00010176
-8.60232e-08
0.000101833
-8.31577e-08
0.0001019
-7.585e-08
0.000101964
-6.3786e-08
0.000102023
-4.6584e-08
0.000102079
-2.37576e-08
4.95002e-09
0.000102133
0.000100121
1.60102e-07
0.000100267
4.538e-07
0.000100478
6.66598e-07
0.000100724
7.85116e-07
0.000100986
8.25444e-07
0.00010125
8.079e-07
0.000101508
7.50457e-07
0.000101755
6.68983e-07
0.00010199
5.75902e-07
0.000102212
4.79794e-07
0.000102422
3.86251e-07
0.000102619
2.98706e-07
0.000102805
2.19021e-07
0.000102981
1.47981e-07
0.000103146
8.56793e-08
0.000103302
3.17948e-08
0.00010345
-1.42274e-08
0.000103589
-5.30516e-08
0.000103721
-8.53575e-08
0.000103846
-1.11796e-07
0.000103964
-1.32951e-07
0.000104075
-1.49321e-07
0.000104181
-1.61307e-07
0.00010428
-1.69211e-07
0.000104374
-1.73232e-07
0.000104463
-1.73468e-07
0.000104547
-1.69927e-07
0.000104626
-1.62526e-07
0.000104701
-1.51108e-07
0.000104773
-1.35453e-07
0.000104842
-1.15307e-07
0.000104908
-9.03445e-08
-6.04982e-08
0.000104974
0.000102974
1.14166e-07
0.000103104
3.23795e-07
0.000103296
4.7486e-07
0.000103525
5.55791e-07
0.000103774
5.76735e-07
0.000104029
5.52424e-07
0.000104283
4.96676e-07
0.00010453
4.21993e-07
0.000104767
3.38431e-07
0.000104994
2.5314e-07
0.00010521
1.7086e-07
0.000105414
9.45238e-08
0.000105607
2.57234e-08
0.00010579
-3.48884e-08
0.000105963
-8.72741e-08
0.000106126
-1.31772e-07
0.000106281
-1.68932e-07
0.000106427
-1.99395e-07
0.000106566
-2.23819e-07
0.000106697
-2.42831e-07
0.000106821
-2.56992e-07
0.000106938
-2.66778e-07
0.00010705
-2.72578e-07
0.000107155
-2.74683e-07
0.000107255
-2.73296e-07
0.00010735
-2.68532e-07
0.000107441
-2.60426e-07
0.000107527
-2.48947e-07
0.00010761
-2.34009e-07
0.00010769
-2.15486e-07
0.000107768
-1.93245e-07
0.000107845
-1.67111e-07
-1.37162e-07
0.000107922
0.00010591
7.26086e-08
0.000106029
2.05575e-07
0.000106206
2.97822e-07
0.000106421
3.39968e-07
0.00010666
3.38305e-07
0.000106909
3.03329e-07
0.00010716
2.45442e-07
0.000107408
1.74244e-07
0.000107649
9.76032e-08
0.000107881
2.12243e-08
0.000108103
-5.10977e-08
0.000108314
-1.17042e-07
0.000108515
-1.754e-07
0.000108706
-2.2575e-07
0.000108887
-2.68195e-07
0.000109058
-3.03154e-07
0.000109221
-3.31218e-07
0.000109374
-3.53054e-07
0.00010952
-3.69325e-07
0.000109658
-3.80658e-07
0.000109788
-3.87609e-07
0.000109912
-3.9065e-07
0.00011003
-3.90169e-07
0.000110142
-3.86462e-07
0.000110248
-3.79743e-07
0.00011035
-3.70149e-07
0.000110447
-3.57754e-07
0.000110541
-3.42576e-07
0.000110631
-3.24595e-07
0.000110719
-3.03771e-07
0.000110806
-2.80068e-07
0.000110893
-2.53426e-07
-2.24017e-07
0.000110979
0.000108932
3.42053e-08
0.000109042
9.58712e-08
0.000109208
1.31491e-07
0.000109414
1.3393e-07
0.000109645
1.07054e-07
0.00010989
5.81824e-08
0.000110141
-5.09404e-09
0.000110391
-7.56468e-08
0.000110636
-1.47626e-07
0.000110874
-2.16763e-07
0.000111103
-2.8027e-07
0.000111323
-3.36528e-07
0.000111532
-3.84804e-07
0.000111731
-4.24999e-07
0.00011192
-4.5743e-07
0.0001121
-4.82656e-07
0.00011227
-5.01365e-07
0.000112431
-5.14277e-07
0.000112584
-5.22098e-07
0.000112729
-5.25473e-07
0.000112866
-5.24975e-07
0.000112997
-5.21087e-07
0.000113121
-5.14206e-07
0.000113239
-5.04641e-07
0.000113352
-4.92624e-07
0.00011346
-4.78322e-07
0.000113564
-4.6184e-07
0.000113665
-4.43247e-07
0.000113763
-4.22582e-07
0.000113859
-3.99875e-07
0.000113954
-3.75169e-07
0.000114049
-3.48505e-07
-3.20118e-07
0.000114145
0.000112041
-2.08389e-09
0.000112145
-8.151e-09
0.000112304
-2.77978e-08
0.000112504
-6.59827e-08
0.000112731
-1.20319e-07
0.000112975
-1.85841e-07
0.000113228
-2.57258e-07
0.000113482
-3.29623e-07
0.000113733
-3.98904e-07
0.000113978
-4.62246e-07
0.000114216
-5.17908e-07
0.000114444
-5.65047e-07
0.000114663
-6.03489e-07
0.000114872
-6.33537e-07
0.00011507
-6.5579e-07
0.000115258
-6.71009e-07
0.000115437
-6.80019e-07
0.000115606
-6.83641e-07
0.000115767
-6.82643e-07
0.000115919
-6.77719e-07
0.000116064
-6.69472e-07
0.000116201
-6.58409e-07
0.000116332
-6.44945e-07
0.000116457
-6.29409e-07
0.000116576
-6.12057e-07
0.000116691
-5.93077e-07
0.000116801
-5.7261e-07
0.000116909
-5.50761e-07
0.000117014
-5.27614e-07
0.000117117
-5.03249e-07
0.00011722
-4.77761e-07
0.000117323
-4.51239e-07
-4.23934e-07
0.000117427
0.00011524
-3.72279e-08
0.000115341
-1.09092e-07
0.000115496
-1.83522e-07
0.000115694
-2.63389e-07
0.000115921
-3.4717e-07
0.000116166
-4.31679e-07
0.000116423
-5.13544e-07
0.000116683
-5.8972e-07
0.000116942
-6.57874e-07
0.000117196
-7.16544e-07
0.000117443
-7.65077e-07
0.000117682
-8.0346e-07
0.00011791
-8.32155e-07
0.000118129
-8.51932e-07
0.000118337
-8.63737e-07
0.000118534
-8.68582e-07
0.000118722
-8.67478e-07
0.000118899
-8.61375e-07
0.000119068
-8.51135e-07
0.000119228
-8.37516e-07
0.000119379
-8.21169e-07
0.000119524
-8.02633e-07
0.000119661
-7.82349e-07
0.000119792
-7.60669e-07
0.000119918
-7.37869e-07
0.000120039
-7.14161e-07
0.000120156
-6.8971e-07
0.00012027
-6.6465e-07
0.000120382
-6.39096e-07
0.000120492
-6.13162e-07
0.000120601
-5.86975e-07
0.00012071
-5.60672e-07
-5.345e-07
0.000120821
0.000118531
-7.20827e-08
0.000118631
-2.09419e-07
0.000118787
-3.39165e-07
0.000118985
-4.62191e-07
0.000119216
-5.77437e-07
0.000119467
-6.83085e-07
0.000119731
-7.77397e-07
0.00012
-8.5905e-07
0.00012027
-9.27324e-07
0.000120535
-9.82133e-07
0.000120794
-1.02395e-06
0.000121044
-1.05367e-06
0.000121285
-1.07245e-06
0.000121514
-1.0816e-06
0.000121733
-1.08247e-06
0.000121941
-1.07638e-06
0.000122138
-1.06458e-06
0.000122325
-1.04816e-06
0.000122502
-1.02811e-06
0.00012267
-1.00528e-06
0.000122829
-9.80357e-07
0.00012298
-9.53938e-07
0.000123124
-9.26489e-07
0.000123262
-8.98383e-07
0.000123394
-8.69913e-07
0.000123521
-8.41306e-07
0.000123644
-8.12743e-07
0.000123764
-7.84369e-07
0.000123881
-7.56315e-07
0.000123997
-7.28699e-07
0.000124111
-7.01653e-07
0.000124226
-6.75305e-07
-6.49859e-07
0.000124341
0.000121917
-1.07529e-07
0.000122019
-3.11594e-07
0.000122178
-4.98203e-07
0.000122382
-6.66253e-07
0.00012262
-8.14933e-07
0.00012288
-9.43566e-07
0.000123154
-1.05189e-06
0.000123436
-1.14023e-06
0.000123718
-1.20943e-06
0.000123996
-1.26082e-06
0.000124269
-1.29603e-06
0.000124532
-1.31691e-06
0.000124785
-1.32539e-06
0.000125026
-1.32337e-06
0.000125257
-1.31268e-06
0.000125475
-1.29498e-06
0.000125683
-1.27177e-06
0.000125879
-1.24434e-06
0.000126064
-1.21382e-06
0.00012624
-1.18115e-06
0.000126407
-1.1471e-06
0.000126565
-1.1123e-06
0.000126716
-1.07724e-06
0.00012686
-1.04233e-06
0.000126998
-1.00787e-06
0.000127131
-9.74091e-07
0.000127259
-9.41177e-07
0.000127384
-9.09277e-07
0.000127506
-8.78517e-07
0.000127627
-8.49016e-07
0.000127746
-8.20894e-07
0.000127865
-7.94286e-07
-7.69348e-07
0.000127984
0.000125401
-1.44587e-07
0.000125507
-4.18487e-07
0.000125674
-6.64888e-07
0.000125889
-8.80669e-07
0.000126139
-1.06515e-06
0.000126414
-1.21868e-06
0.000126704
-1.34239e-06
0.000127002
-1.43823e-06
0.000127302
-1.50869e-06
0.000127597
-1.55653e-06
0.000127886
-1.58467e-06
0.000128165
-1.596e-06
0.000128433
-1.5933e-06
0.000128689
-1.57914e-06
0.000128932
-1.55586e-06
0.000129162
-1.52551e-06
0.000129381
-1.48989e-06
0.000129587
-1.4505e-06
0.000129782
-1.40863e-06
0.000129966
-1.36532e-06
0.00013014
-1.32142e-06
0.000130305
-1.27759e-06
0.000130462
-1.23436e-06
0.000130612
-1.19214e-06
0.000130756
-1.15124e-06
0.000130893
-1.11188e-06
0.000131026
-1.07424e-06
0.000131156
-1.03846e-06
0.000131282
-1.00463e-06
0.000131406
-9.72837e-07
0.000131528
-9.43173e-07
0.000131649
-9.15713e-07
-8.9053e-07
0.00013177
0.000128985
-1.84217e-07
0.000129099
-5.32863e-07
0.000129277
-8.43101e-07
0.000129506
-1.10972e-06
0.000129774
-1.33231e-06
0.000130067
-1.51233e-06
0.000130377
-1.6524e-06
0.000130695
-1.75618e-06
0.000131014
-1.82787e-06
0.00013133
-1.87177e-06
0.000131637
-1.89212e-06
0.000131934
-1.89297e-06
0.000132219
-1.87798e-06
0.00013249
-1.85048e-06
0.000132747
-1.81336e-06
0.000132991
-1.76913e-06
0.000133221
-1.7199e-06
0.000133438
-1.66741e-06
0.000133643
-1.61313e-06
0.000133835
-1.5582e-06
0.000134018
-1.50354e-06
0.00013419
-1.44988e-06
0.000134353
-1.39776e-06
0.000134509
-1.34759e-06
0.000134657
-1.29967e-06
0.000134799
-1.25421e-06
0.000134937
-1.21137e-06
0.000135069
-1.17124e-06
0.000135199
-1.1339e-06
0.000135325
-1.0994e-06
0.00013545
-1.06779e-06
0.000135573
-1.03911e-06
-1.01337e-06
0.000135696
0.000132673
-2.28132e-07
0.0001328
-6.59402e-07
0.000132996
-1.0399e-06
0.000133249
-1.36204e-06
0.000133542
-1.62579e-06
0.000133864
-1.83388e-06
0.000134202
-1.99069e-06
0.000134548
-2.10187e-06
0.000134893
-2.1736e-06
0.000135234
-2.21196e-06
0.000135564
-2.2227e-06
0.000135882
-2.21111e-06
0.000136186
-2.18189e-06
0.000136475
-2.13915e-06
0.000136748
-2.08639e-06
0.000137005
-2.02658e-06
0.000137248
-1.96216e-06
0.000137475
-1.89515e-06
0.000137689
-1.82716e-06
0.000137891
-1.75944e-06
0.00013808
-1.69299e-06
0.000138259
-1.62856e-06
0.000138428
-1.5667e-06
0.000138588
-1.50781e-06
0.00013874
-1.45218e-06
0.000138886
-1.39998e-06
0.000139026
-1.35133e-06
0.000139161
-1.30627e-06
0.000139292
-1.26483e-06
0.00013942
-1.227e-06
0.000139545
-1.19274e-06
0.000139668
-1.16203e-06
-1.13474e-06
0.000139789
0.000136467
-2.77165e-07
0.000136609
-8.00973e-07
0.000136828
-1.25898e-06
0.000137107
-1.64141e-06
0.000137431
-1.94936e-06
0.000137784
-2.18727e-06
0.000138155
-2.36145e-06
0.000138533
-2.47975e-06
0.00013891
-2.55053e-06
0.00013928
-2.58178e-06
0.000139638
-2.58096e-06
0.000139982
-2.55474e-06
0.000140309
-2.50896e-06
0.000140618
-2.44863e-06
0.00014091
-2.37794e-06
0.000141183
-2.30037e-06
0.00014144
-2.21876e-06
0.00014168
-2.13536e-06
0.000141905
-2.05196e-06
0.000142116
-1.96993e-06
0.000142313
-1.89033e-06
0.000142498
-1.81393e-06
0.000142673
-1.74126e-06
0.000142838
-1.67271e-06
0.000142994
-1.60851e-06
0.000143143
-1.5488e-06
0.000143285
-1.49363e-06
0.000143422
-1.443e-06
0.000143554
-1.39687e-06
0.000143682
-1.35516e-06
0.000143807
-1.31777e-06
0.00014393
-1.28464e-06
-1.25556e-06
0.000144051
0.000140375
-3.36006e-07
0.000140543
-9.68898e-07
0.0001408
-1.51642e-06
0.000141125
-1.96603e-06
0.000141496
-2.32099e-06
0.000141897
-2.58845e-06
0.000142314
-2.77774e-06
0.000142734
-2.89987e-06
0.000143149
-2.96594e-06
0.000143554
-2.98626e-06
0.000143943
-2.97012e-06
0.000144314
-2.92573e-06
0.000144665
-2.8601e-06
0.000144996
-2.77916e-06
0.000145305
-2.68779e-06
0.000145595
-2.58998e-06
0.000145865
-2.48892e-06
0.000146117
-2.38711e-06
0.000146351
-2.2865e-06
0.00014657
-2.18856e-06
0.000146774
-2.09437e-06
0.000146965
-2.00469e-06
0.000147144
-1.92005e-06
0.000147312
-1.84079e-06
0.00014747
-1.76707e-06
0.00014762
-1.69898e-06
0.000147763
-1.63648e-06
0.0001479
-1.5795e-06
0.000148031
-1.52791e-06
0.000148157
-1.48155e-06
0.00014828
-1.44022e-06
0.000148399
-1.40372e-06
-1.37174e-06
0.000148515
0.000144391
-4.02446e-07
0.000144584
-1.16197e-06
0.000144879
-1.81092e-06
0.000145249
-2.33593e-06
0.000145671
-2.74367e-06
0.000146127
-3.04391e-06
0.000146598
-3.24898e-06
0.000147072
-3.37352e-06
0.000147538
-3.43193e-06
0.000147989
-3.43733e-06
0.00014842
-3.40135e-06
0.000148828
-3.33406e-06
0.000149212
-3.24394e-06
0.000149571
-3.13797e-06
0.000149905
-3.02185e-06
0.000150215
-2.90011e-06
0.000150502
-2.77632e-06
0.000150768
-2.65321e-06
0.000151015
-2.53287e-06
0.000151243
-2.41681e-06
0.000151455
-2.30612e-06
0.000151652
-2.20153e-06
0.000151835
-2.10349e-06
0.000152007
-2.01226e-06
0.000152167
-1.92793e-06
0.000152319
-1.85047e-06
0.000152462
-1.77978e-06
0.000152598
-1.71568e-06
0.000152728
-1.65795e-06
0.000152853
-1.60637e-06
0.000152974
-1.56064e-06
0.000153091
-1.52053e-06
-1.48559e-06
0.000153204
0.000148542
-4.96001e-07
0.000148797
-1.4171e-06
0.000149171
-2.18552e-06
0.000149625
-2.78993e-06
0.000150129
-3.247e-06
0.000150658
-3.57304e-06
0.000151195
-3.786e-06
0.000151727
-3.90542e-06
0.000152244
-3.94936e-06
0.00015274
-3.9337e-06
0.000153211
-3.87236e-06
0.000153655
-3.77718e-06
0.000154069
-3.658e-06
0.000154453
-3.52283e-06
0.00015481
-3.37812e-06
0.000155139
-3.22894e-06
0.000155441
-3.07922e-06
0.00015572
-2.93194e-06
0.000155977
-2.78926e-06
0.000156213
-2.65277e-06
0.00015643
-2.52351e-06
0.000156631
-2.40215e-06
0.000156816
-2.28907e-06
0.000156988
-2.1844e-06
0.000157148
-2.08814e-06
0.000157298
-2.00012e-06
0.000157438
-1.92014e-06
0.000157571
-1.8479e-06
0.000157696
-1.78309e-06
0.000157815
-1.72535e-06
0.000157928
-1.6743e-06
0.000158037
-1.62953e-06
-1.59046e-06
0.000158142
0.000152785
-5.91977e-07
0.000153076
-1.70846e-06
0.000153513
-2.62174e-06
0.00015405
-3.32734e-06
0.000154652
-3.84853e-06
0.000155284
-4.20563e-06
0.000155922
-4.42409e-06
0.000156548
-4.53126e-06
0.00015715
-4.55092e-06
0.000157719
-4.50327e-06
0.000158253
-4.40558e-06
0.000158747
-4.27211e-06
0.000159204
-4.11441e-06
0.000159623
-3.94166e-06
0.000160006
-3.76111e-06
0.000160355
-3.5783e-06
0.000160673
-3.39741e-06
0.000160963
-3.22154e-06
0.000161226
-3.05287e-06
0.000161467
-2.89287e-06
0.000161686
-2.74249e-06
0.000161886
-2.60224e-06
0.000162069
-2.47232e-06
0.000162237
-2.35271e-06
0.000162392
-2.2432e-06
0.000162536
-2.1435e-06
0.000162669
-2.05324e-06
0.000162793
-1.97201e-06
0.000162909
-1.8994e-06
0.000163019
-1.83497e-06
0.000163123
-1.77826e-06
0.000163222
-1.72887e-06
-1.68602e-06
0.000163318
0.000157247
-7.87306e-07
0.0001577
-2.16118e-06
0.000158295
-3.21756e-06
0.000158967
-3.99943e-06
0.00015968
-4.5612e-06
0.000160405
-4.93056e-06
0.000161121
-5.14037e-06
0.000161814
-5.22419e-06
0.000162473
-5.20997e-06
0.000163092
-5.1216e-06
0.000163665
-4.97947e-06
0.000164194
-4.80026e-06
0.000164676
-4.59727e-06
0.000165116
-4.38096e-06
0.000165514
-4.15937e-06
0.000165874
-3.93855e-06
0.0001662
-3.72289e-06
0.000166494
-3.51553e-06
0.000166759
-3.31858e-06
0.000167
-3.13335e-06
0.000167218
-2.96056e-06
0.000167416
-2.80051e-06
0.000167597
-2.65313e-06
0.000167763
-2.51816e-06
0.000167915
-2.39517e-06
0.000168055
-2.28366e-06
0.000168185
-2.18306e-06
0.000168305
-2.09283e-06
0.000168418
-2.01241e-06
0.000168525
-1.94129e-06
0.000168625
-1.87898e-06
0.000168722
-1.82503e-06
-1.77857e-06
0.000168814
0.000161693
-9.41916e-07
0.000162218
-2.68659e-06
0.000162963
-3.962e-06
0.000163833
-4.86976e-06
0.000164753
-5.48103e-06
0.000165666
-5.84363e-06
0.000166543
-6.01772e-06
0.000167372
-6.05288e-06
0.000168147
-5.98482e-06
0.000168868
-5.84213e-06
0.000169536
-5.64768e-06
0.000170155
-5.41914e-06
0.000170728
-5.17015e-06
0.000171258
-4.91117e-06
0.000171748
-4.65011e-06
0.000172203
-4.39282e-06
0.000172623
-4.14357e-06
0.000173013
-3.90533e-06
0.000173375
-3.68011e-06
0.00017371
-3.46908e-06
0.000174023
-3.27285e-06
0.000174314
-3.09154e-06
0.000174586
-2.92497e-06
0.00017484
-2.7727e-06
0.000175079
-2.63414e-06
0.000175304
-2.50862e-06
0.000175517
-2.39546e-06
0.000175718
-2.29398e-06
0.000175909
-2.20362e-06
0.000176091
-2.12386e-06
0.000176267
-2.05452e-06
0.000176437
-1.99514e-06
-1.94588e-06
0.000176604
0.000166691
-1.47902e-06
0.000167552
-3.54795e-06
0.000168501
-4.91078e-06
0.000169528
-5.89721e-06
0.000170635
-6.58795e-06
0.000171801
-7.00947e-06
0.000173006
-7.223e-06
0.000174228
-7.27504e-06
0.000175444
-7.19991e-06
0.00017663
-7.02896e-06
0.000177772
-6.78919e-06
0.000178855
-6.50273e-06
0.000179873
-6.18752e-06
0.000180819
-5.85772e-06
0.000181694
-5.52429e-06
0.000182496
-5.19548e-06
0.00018323
-4.87731e-06
0.000183899
-4.57394e-06
0.000184507
-4.28809e-06
0.000185059
-4.0213e-06
0.00018556
-3.77425e-06