/*--------------------------------*- C++ -*----------------------------------*\
  =========                 |
  \\      /  F ield         | OpenFOAM: The Open Source CFD Toolbox
   \\    /   O peration     | Website:  https://openfoam.org
    \\  /    A nd           | Version:  10
     \\/     M anipulation  |
\*---------------------------------------------------------------------------*/
FoamFile
{
    format      ascii;
    class       volVectorField;
    location    "0.175";
    object      U;
}
// * * * * * * * * * * * * * * * * * * * * * * * * * * * * * * * * * * * * * //

dimensions      [0 1 -1 0 0 0 0];

internalField   nonuniform List<vector> 
6820
(
(5.57347 0.459191 0)
(3.88253 0.245981 0)
(2.58803 0.00888329 0)
(1.95524 -0.0640708 0)
(1.72889 -0.0593442 0)
(1.61656 -0.0338652 0)
(1.55026 -0.0152137 0)
(1.50284 -0.0051574 0)
(1.46264 -0.000574995 0)
(1.42752 0.00092395 0)
(1.39692 0.000979732 0)
(1.37036 0.00047735 0)
(1.34736 -0.000173761 0)
(1.32738 -0.000793003 0)
(1.30994 -0.00131231 0)
(1.29464 -0.00171813 0)
(1.28113 -0.00202065 0)
(1.26914 -0.00223802 0)
(1.25846 -0.00238918 0)
(1.24893 -0.00249136 0)
(1.24042 -0.00255958 0)
(1.23284 -0.00260681 0)
(1.22613 -0.00264466 0)
(1.22026 -0.00268306 0)
(1.21523 -0.00273338 0)
(1.21109 -0.00279992 0)
(1.20782 -0.00290615 0)
(1.20575 -0.00300676 0)
(1.20442 -0.00322478 0)
(1.20592 -0.00314041 0)
(1.20484 -0.00431463 0)
(1.21736 0.00080607 0)
(1.19434 -0.0230245 0)
(7.6698 0.864041 0)
(7.71687 0.891131 0)
(6.9987 0.598898 0)
(6.19474 0.348079 0)
(5.57967 0.180252 0)
(5.13304 0.0938753 0)
(4.81385 0.0536482 0)
(4.58268 0.0353112 0)
(4.40851 0.0269959 0)
(4.27206 0.0228423 0)
(4.16162 0.0203799 0)
(4.06986 0.018669 0)
(3.99208 0.017335 0)
(3.92514 0.0162128 0)
(3.86682 0.0152187 0)
(3.81554 0.0143096 0)
(3.77008 0.0134623 0)
(3.72953 0.012663 0)
(3.69318 0.0119016 0)
(3.66045 0.0111688 0)
(3.63088 0.0104554 0)
(3.60413 0.00975023 0)
(3.5799 0.00903939 0)
(3.55797 0.00830638 0)
(3.53817 0.00752668 0)
(3.52042 0.00668001 0)
(3.50465 0.00570598 0)
(3.49093 0.00463263 0)
(3.47922 0.00318158 0)
(3.47008 0.00184703 0)
(3.46306 -0.00130672 0)
(3.46211 -0.00215907 0)
(3.46329 -0.0108087 0)
(7.56353 0.52049 0)
(8.22511 0.664114 0)
(8.46431 0.577114 0)
(8.36251 0.459904 0)
(8.12533 0.346121 0)
(7.84669 0.261508 0)
(7.57442 0.202102 0)
(7.3284 0.159525 0)
(7.11196 0.128628 0)
(6.92317 0.105724 0)
(6.75878 0.0883223 0)
(6.61538 0.0748438 0)
(6.48989 0.0642479 0)
(6.37963 0.0558204 0)
(6.28233 0.0490395 0)
(6.19609 0.0435149 0)
(6.11933 0.038954 0)
(6.05072 0.0351373 0)
(5.98915 0.0318976 0)
(5.9337 0.0291048 0)
(5.88361 0.0266552 0)
(5.83823 0.0244626 0)
(5.79704 0.0224515 0)
(5.75962 0.0205526 0)
(5.72561 0.0186961 0)
(5.69476 0.016812 0)
(5.66687 0.0148068 0)
(5.64186 0.0126099 0)
(5.61962 0.00998626 0)
(5.60033 0.00704919 0)
(5.58386 0.0027297 0)
(5.57049 -0.00190269 0)
(5.55979 -0.0116199 0)
(7.43335 0.341265 0)
(7.88458 0.515049 0)
(8.24318 0.490635 0)
(8.44155 0.431364 0)
(8.54082 0.360712 0)
(8.57015 0.300715 0)
(8.55404 0.2552 0)
(8.51205 0.220288 0)
(8.45521 0.192972 0)
(8.38992 0.170993 0)
(8.3204 0.152766 0)
(8.24938 0.13733 0)
(8.17867 0.12406 0)
(8.10963 0.112525 0)
(8.04306 0.102437 0)
(7.97944 0.0935781 0)
(7.91903 0.0857644 0)
(7.86194 0.0788403 0)
(7.80817 0.0726715 0)
(7.75765 0.0671399 0)
(7.71029 0.0621402 0)
(7.66597 0.0575756 0)
(7.62454 0.0533544 0)
(7.58589 0.0493861 0)
(7.54991 0.0455763 0)
(7.51648 0.0418262 0)
(7.48555 0.0380126 0)
(7.45707 0.0340204 0)
(7.431 0.0296204 0)
(7.4074 0.024752 0)
(7.38626 0.0187732 0)
(7.36733 0.0119982 0)
(7.35141 0.00347692 0)
(7.39681 0.251234 0)
(7.67985 0.421677 0)
(7.92307 0.405098 0)
(8.07682 0.355679 0)
(8.1871 0.301581 0)
(8.26916 0.256593 0)
(8.32975 0.22338 0)
(8.37615 0.198264 0)
(8.41228 0.178495 0)
(8.44018 0.162416 0)
(8.46137 0.148929 0)
(8.47706 0.137364 0)
(8.48817 0.127306 0)
(8.49525 0.118456 0)
(8.49893 0.110593 0)
(8.4998 0.103543 0)
(8.49836 0.0971743 0)
(8.49506 0.0913799 0)
(8.49027 0.0860699 0)
(8.48431 0.0811663 0)
(8.47745 0.076598 0)
(8.46991 0.0722972 0)
(8.4619 0.0681952 0)
(8.45357 0.0642196 0)
(8.44508 0.0602892 0)
(8.43656 0.0563122 0)
(8.42811 0.0521734 0)
(8.41984 0.047747 0)
(8.41182 0.0428396 0)
(8.40411 0.0373051 0)
(8.39674 0.03077 0)
(8.38951 0.0232043 0)
(8.38256 0.0141818 0)
(7.37401 0.180913 0)
(7.57399 0.336826 0)
(7.76048 0.343549 0)
(7.87463 0.314937 0)
(7.95047 0.276372 0)
(8.00543 0.238865 0)
(8.04644 0.208214 0)
(8.08017 0.183883 0)
(8.11004 0.164398 0)
(8.13723 0.148613 0)
(8.16227 0.13557 0)
(8.18547 0.124565 0)
(8.20702 0.115145 0)
(8.22716 0.10699 0)
(8.24597 0.0998445 0)
(8.26353 0.0935129 0)
(8.2799 0.0878493 0)
(8.29515 0.082738 0)
(8.30934 0.0780839 0)
(8.32254 0.0738052 0)
(8.33483 0.0698285 0)
(8.34626 0.0660841 0)
(8.35689 0.0625026 0)
(8.36678 0.0590115 0)
(8.37598 0.0555308 0)
(8.38452 0.0519708 0)
(8.39244 0.048223 0)
(8.39973 0.0441671 0)
(8.40638 0.0396391 0)
(8.41233 0.0344913 0)
(8.41745 0.0284779 0)
(8.42162 0.0214927 0)
(8.42463 0.0133309 0)
(7.35904 0.133015 0)
(7.50318 0.273944 0)
(7.65532 0.296373 0)
(7.75497 0.28026 0)
(7.8206 0.251378 0)
(7.86698 0.220202 0)
(7.89971 0.193284 0)
(7.92455 0.171364 0)
(7.9452 0.153461 0)
(7.96328 0.138703 0)
(7.97966 0.126354 0)
(7.99487 0.115846 0)
(8.0092 0.10678 0)
(8.02281 0.0988685 0)
(8.0358 0.0919031 0)
(8.04825 0.0857231 0)
(8.06021 0.080199 0)
(8.0717 0.0752229 0)
(8.08274 0.0707025 0)
(8.09335 0.0665568 0)
(8.10354 0.0627125 0)
(8.11333 0.0591005 0)
(8.12272 0.055653 0)
(8.13171 0.0523003 0)
(8.1403 0.0489675 0)
(8.14847 0.0455731 0)
(8.1562 0.042022 0)
(8.16345 0.0382108 0)
(8.17014 0.0340094 0)
(8.17617 0.0292942 0)
(8.18136 0.0238875 0)
(8.18554 0.017676 0)
(8.18843 0.0104291 0)
(7.34964 0.0993374 0)
(7.4533 0.22141 0)
(7.57611 0.251882 0)
(7.66444 0.245862 0)
(7.72576 0.226936 0)
(7.77086 0.20356 0)
(7.80356 0.181524 0)
(7.82815 0.162462 0)
(7.84802 0.14617 0)
(7.86486 0.132285 0)
(7.8796 0.120416 0)
(7.89289 0.110186 0)
(7.90511 0.101293 0)
(7.91647 0.0935102 0)
(7.92716 0.0866534 0)
(7.93726 0.0805703 0)
(7.94686 0.0751345 0)
(7.95602 0.0702407 0)
(7.96477 0.0657994 0)
(7.97315 0.0617322 0)
(7.98117 0.0579682 0)
(7.98886 0.0544412 0)
(7.99621 0.0510866 0)
(8.00324 0.0478391 0)
(8.00992 0.0446301 0)
(8.01626 0.0413863 0)
(8.0222 0.0380263 0)
(8.02769 0.0344628 0)
(8.03266 0.0305945 0)
(8.03698 0.0263227 0)
(8.0405 0.0215245 0)
(8.04301 0.0161026 0)
(8.04427 0.00992677 0)
(7.3438 0.0754004 0)
(7.41908 0.17952 0)
(7.51764 0.214556 0)
(7.59463 0.216182 0)
(7.65065 0.204411 0)
(7.69348 0.186589 0)
(7.72585 0.16811 0)
(7.75084 0.151313 0)
(7.77125 0.136559 0)
(7.78861 0.123757 0)
(7.8038 0.112685 0)
(7.81741 0.103068 0)
(7.82982 0.0946592 0)
(7.8413 0.0872624 0)
(7.852 0.0807155 0)
(7.86205 0.0748846 0)
(7.87153 0.0696588 0)
(7.88052 0.0649448 0)
(7.88905 0.0606617 0)
(7.89717 0.0567377 0)
(7.90489 0.0531073 0)
(7.91224 0.0497092 0)
(7.91923 0.046484 0)
(7.92584 0.0433729 0)
(7.93208 0.0403156 0)
(7.93792 0.0372496 0)
(7.94332 0.034109 0)
(7.94822 0.0308256 0)
(7.95253 0.0273265 0)
(7.95613 0.0235439 0)
(7.95888 0.0194047 0)
(7.96052 0.0148541 0)
(7.96087 0.00985258 0)
(7.34016 0.0581752 0)
(7.3954 0.145906 0)
(7.4743 0.182071 0)
(7.54084 0.188713 0)
(7.59161 0.182329 0)
(7.63185 0.169406 0)
(7.66337 0.154602 0)
(7.68829 0.14038 0)
(7.70885 0.12741 0)
(7.72643 0.115821 0)
(7.74183 0.105572 0)
(7.75563 0.0965254 0)
(7.76822 0.0885259 0)
(7.77984 0.0814333 0)
(7.79067 0.0751241 0)
(7.80084 0.0694891 0)
(7.81042 0.0644327 0)
(7.81948 0.0598709 0)
(7.82808 0.0557294 0)
(7.83623 0.0519415 0)
(7.84398 0.0484462 0)
(7.85133 0.0451871 0)
(7.85828 0.0421104 0)
(7.86484 0.0391641 0)
(7.87099 0.0362968 0)
(7.87671 0.0334577 0)
(7.88194 0.0305961 0)
(7.88663 0.0276636 0)
(7.89069 0.0246142 0)
(7.89399 0.0214111 0)
(7.89639 0.0180267 0)
(7.89767 0.0144541 0)
(7.89766 0.0107331 0)
(7.33787 0.0455411 0)
(7.37893 0.118879 0)
(7.44212 0.154143 0)
(7.49935 0.164188 0)
(7.54514 0.161954 0)
(7.58263 0.152992 0)
(7.61297 0.141234 0)
(7.63753 0.129136 0)
(7.65806 0.117644 0)
(7.67575 0.107095 0)
(7.69133 0.097595 0)
(7.70531 0.0891125 0)
(7.71807 0.081555 0)
(7.72984 0.0748208 0)
(7.7408 0.0688103 0)
(7.75108 0.0634303 0)
(7.76075 0.0585965 0)
(7.76988 0.0542338 0)
(7.77853 0.0502749 0)
(7.78672 0.0466594 0)
(7.79448 0.0433322 0)
(7.80182 0.0402425 0)
(7.80876 0.037343 0)
(7.81527 0.0345895 0)
(7.82136 0.03194 0)
(7.82698 0.0293557 0)
(7.83209 0.0268017 0)
(7.83664 0.0242485 0)
(7.84054 0.0216754 0)
(7.84367 0.0190749 0)
(7.84591 0.0164587 0)
(7.84705 0.0138649 0)
(7.84697 0.0113872 0)
(7.33642 0.036093 0)
(7.36736 0.0970898 0)
(7.41809 0.130123 0)
(7.46709 0.142076 0)
(7.50817 0.142741 0)
(7.54291 0.136841 0)
(7.57192 0.127696 0)
(7.596 0.117604 0)
(7.61645 0.107629 0)
(7.63423 0.098218 0)
(7.64998 0.0895695 0)
(7.66415 0.0817295 0)
(7.6771 0.0746659 0)
(7.68905 0.0683188 0)
(7.70017 0.0626197 0)
(7.71058 0.0574979 0)
(7.72037 0.0528859 0)
(7.7296 0.0487203 0)
(7.73833 0.0449432 0)
(7.74659 0.0415013 0)
(7.75441 0.0383459 0)
(7.76178 0.0354328 0)
(7.76873 0.0327214 0)
(7.77525 0.0301754 0)
(7.78131 0.0277625 0)
(7.7869 0.0254556 0)
(7.79197 0.023234 0)
(7.79646 0.0210862 0)
(7.8003 0.0190128 0)
(7.8034 0.0170315 0)
(7.80565 0.0151845 0)
(7.80687 0.0135442 0)
(7.807 0.0122359 0)
(7.33548 0.0288775 0)
(7.35914 0.0794122 0)
(7.40004 0.109457 0)
(7.44192 0.122228 0)
(7.47865 0.124891 0)
(7.5107 0.121367 0)
(7.53825 0.114404 0)
(7.56169 0.106053 0)
(7.58191 0.0974098 0)
(7.5997 0.0890057 0)
(7.61557 0.081116 0)
(7.62992 0.0738574 0)
(7.64306 0.0672515 0)
(7.65521 0.0612759 0)
(7.66652 0.0558874 0)
(7.67711 0.0510335 0)
(7.68706 0.046659 0)
(7.69645 0.04271 0)
(7.70531 0.0391357 0)
(7.71368 0.035889 0)
(7.72158 0.0329272 0)
(7.72903 0.030212 0)
(7.73604 0.0277093 0)
(7.74261 0.0253904 0)
(7.74871 0.0232319 0)
(7.75432 0.0212174 0)
(7.75942 0.0193389 0)
(7.76395 0.0175997 0)
(7.76785 0.0160179 0)
(7.77105 0.0146305 0)
(7.77346 0.0135006 0)
(7.77496 0.0127236 0)
(7.77551 0.0124364 0)
(7.33485 0.0232485 0)
(7.35324 0.0649613 0)
(7.38642 0.0916584 0)
(7.4222 0.104408 0)
(7.45496 0.108289 0)
(7.48442 0.106479 0)
(7.51045 0.101242 0)
(7.53314 0.0943669 0)
(7.55306 0.0869244 0)
(7.57078 0.0794826 0)
(7.58674 0.0723592 0)
(7.60125 0.0657141 0)
(7.61459 0.0596063 0)
(7.62694 0.054042 0)
(7.63845 0.0489997 0)
(7.64923 0.0444438 0)
(7.65936 0.0403321 0)
(7.66891 0.036621 0)
(7.67791 0.033268 0)
(7.68641 0.0302333 0)
(7.69444 0.0274808 0)
(7.702 0.0249783 0)
(7.7091 0.0226988 0)
(7.71575 0.0206204 0)
(7.72193 0.0187283 0)
(7.72763 0.0170152 0)
(7.73282 0.015484 0)
(7.73746 0.0141495 0)
(7.74152 0.0130426 0)
(7.74492 0.0122133 0)
(7.74763 0.0117367 0)
(7.74956 0.011719 0)
(7.7507 0.0122942 0)
(7.33443 0.0187644 0)
(7.34895 0.0530342 0)
(7.37608 0.0762769 0)
(7.4067 0.0883946 0)
(7.43591 0.0928815 0)
(7.46295 0.0922534 0)
(7.48746 0.0883569 0)
(7.50932 0.0827133 0)
(7.52885 0.0763155 0)
(7.54644 0.0697345 0)
(7.56243 0.0633092 0)
(7.57706 0.0572299 0)
(7.59056 0.0515863 0)
(7.60311 0.0464098 0)
(7.61482 0.0416987 0)
(7.6258 0.0374326 0)
(7.63612 0.0335809 0)
(7.64584 0.0301088 0)
(7.65501 0.026981 0)
(7.66367 0.0241639 0)
(7.67184 0.0216268 0)
(7.67953 0.019343 0)
(7.68676 0.0172911 0)
(7.69353 0.0154556 0)
(7.69984 0.0138282 0)
(7.70567 0.012409 0)
(7.71101 0.0112088 0)
(7.71584 0.0102507 0)
(7.72013 0.00957332 0)
(7.72384 0.00923347 0)
(7.72695 0.00931023 0)
(7.72941 0.00991051 0)
(7.73125 0.0111558 0)
(7.33413 0.015119 0)
(7.3458 0.0430802 0)
(7.36819 0.0629192 0)
(7.39451 0.0739737 0)
(7.42056 0.0785754 0)
(7.44537 0.0786689 0)
(7.46841 0.075744 0)
(7.48942 0.0710735 0)
(7.5085 0.0655512 0)
(7.52591 0.0597281 0)
(7.54188 0.053947 0)
(7.55661 0.048413 0)
(7.57027 0.0432347 0)
(7.583 0.0384603 0)
(7.59491 0.0341021 0)
(7.60609 0.0301509 0)
(7.61661 0.0265853 0)
(7.62652 0.0233781 0)
(7.63587 0.0205006 0)
(7.64469 0.0179245 0)
(7.65302 0.0156244 0)
(7.66086 0.0135787 0)
(7.66824 0.0117711 0)
(7.67516 0.0101913 0)
(7.68162 0.00883628 0)
(7.68763 0.00771178 0)
(7.69317 0.00683376 0)
(7.69824 0.00623016 0)
(7.70282 0.00594317 0)
(7.7069 0.00603093 0)
(7.71048 0.00657007 0)
(7.71354 0.00766051 0)
(7.71615 0.00940513 0)
(7.33392 0.0120968 0)
(7.34345 0.0346674 0)
(7.36215 0.0512387 0)
(7.3849 0.0609356 0)
(7.40821 0.0652664 0)
(7.431 0.0657013 0)
(7.45266 0.0634295 0)
(7.47281 0.0594997 0)
(7.49142 0.0546935 0)
(7.50862 0.0495221 0)
(7.52455 0.0443159 0)
(7.53935 0.0392822 0)
(7.55314 0.0345393 0)
(7.56604 0.0301468 0)
(7.57814 0.0261273 0)
(7.58952 0.022481 0)
(7.60024 0.0191942 0)
(7.61034 0.0162464 0)
(7.61988 0.013614 0)
(7.62889 0.0112738 0)
(7.63739 0.00920463 0)
(7.6454 0.00738904 0)
(7.65295 0.00581458 0)
(7.66005 0.00447479 0)
(7.6667 0.00337044 0)
(7.67292 0.00251061 0)
(7.6787 0.00191401 0)
(7.68405 0.00161013 0)
(7.68897 0.00164082 0)
(7.69346 0.00206131 0)
(7.69756 0.00294086 0)
(7.70126 0.0043674 0)
(7.70464 0.0064231 0)
(7.33376 0.00954281 0)
(7.34168 0.0274572 0)
(7.35751 0.040935 0)
(7.37733 0.0490821 0)
(7.39828 0.0528416 0)
(7.41928 0.0533021 0)
(7.43967 0.0514011 0)
(7.459 0.0479908 0)
(7.47714 0.0437395 0)
(7.49412 0.0391075 0)
(7.50999 0.0344031 0)
(7.52484 0.0298268 0)
(7.53875 0.0254988 0)
(7.55182 0.021484 0)
(7.56411 0.017811 0)
(7.57569 0.0144854 0)
(7.58661 0.0114987 0)
(7.59691 0.00883453 0)
(7.60664 0.00647318 0)
(7.61584 0.00439485 0)
(7.62452 0.00258159 0)
(7.63272 0.00101875 0)
(7.64046 -0.000303386 0)
(7.64775 -0.00138875 0)
(7.65461 -0.00223455 0)
(7.66106 -0.00283031 0)
(7.6671 -0.00315693 0)
(7.67275 -0.00318601 0)
(7.67803 -0.00287901 0)
(7.68297 -0.00218691 0)
(7.68759 -0.00105077 0)
(7.69192 0.000602531 0)
(7.69605 0.0028329 0)
(7.33364 0.00734317 0)
(7.34035 0.0211821 0)
(7.35394 0.0317476 0)
(7.37139 0.0382241 0)
(7.39035 0.0411798 0)
(7.40979 0.0414056 0)
(7.42905 0.0396312 0)
(7.44763 0.0365405 0)
(7.46533 0.0326927 0)
(7.48208 0.02849 0)
(7.49788 0.0242101 0)
(7.51278 0.0200381 0)
(7.52682 0.0160887 0)
(7.54005 0.0124262 0)
(7.55253 0.00908091 0)
(7.56431 0.00606113 0)
(7.57544 0.0033611 0)
(7.58595 0.00096758 0)
(7.59588 -0.0011364 0)
(7.60528 -0.00296835 0)
(7.61416 -0.00454394 0)
(7.62256 -0.00587582 0)
(7.63049 -0.00697201 0)
(7.638 -0.00783518 0)
(7.64508 -0.00846188 0)
(7.65178 -0.00884184 0)
(7.6581 -0.00895749 0)
(7.66408 -0.00878355 0)
(7.66974 -0.00828687 0)
(7.67511 -0.00742668 0)
(7.68025 -0.00615579 0)
(7.68519 -0.00441691 0)
(7.69001 -0.00216998 0)
(7.33356 0.00541197 0)
(7.33934 0.0156295 0)
(7.35119 0.0234519 0)
(7.36675 0.0281852 0)
(7.38406 0.0301578 0)
(7.40218 0.0299354 0)
(7.42046 0.0280789 0)
(7.43838 0.0251297 0)
(7.45568 0.0215464 0)
(7.47223 0.0176711 0)
(7.48799 0.0137461 0)
(7.50293 0.00993571 0)
(7.51709 0.00634377 0)
(7.53048 0.00302938 0)
(7.54315 2.07073e-05 0)
(7.55514 -0.00267459 0)
(7.56647 -0.00506202 0)
(7.57719 -0.00715431 0)
(7.58733 -0.00896771 0)
(7.59692 -0.010519 0)
(7.606 -0.0118232 0)
(7.6146 -0.0128924 0)
(7.62274 -0.0137344 0)
(7.63046 -0.0143521 0)
(7.63778 -0.014743 0)
(7.64472 -0.0148986 0)
(7.65132 -0.0148045 0)
(7.65762 -0.0144399 0)
(7.66364 -0.0137787 0)
(7.66944 -0.0127893 0)
(7.67505 -0.0114367 0)
(7.68054 -0.00968 0)
(7.686 -0.00749553 0)
(7.33349 0.0036824 0)
(7.33858 0.0106258 0)
(7.34911 0.0158499 0)
(7.36317 0.0187954 0)
(7.37915 0.0196441 0)
(7.39619 0.0187955 0)
(7.41365 0.0166744 0)
(7.43102 0.0137038 0)
(7.44799 0.0102503 0)
(7.4644 0.00659547 0)
(7.48013 0.00294218 0)
(7.49515 -0.000570643 0)
(7.50945 -0.003855 0)
(7.52303 -0.00686132 0)
(7.5359 -0.00956712 0)
(7.5481 -0.0119681 0)
(7.55965 -0.0140715 0)
(7.57058 -0.0158913 0)
(7.58094 -0.0174441 0)
(7.59075 -0.0187469 0)
(7.60004 -0.0198149 0)
(7.60885 -0.0206604 0)
(7.6172 -0.021292 0)
(7.62514 -0.0217137 0)
(7.63269 -0.0219247 0)
(7.63989 -0.0219193 0)
(7.64677 -0.0216869 0)
(7.65338 -0.0212124 0)
(7.65975 -0.0204768 0)
(7.66593 -0.0194578 0)
(7.67198 -0.0181321 0)
(7.67796 -0.0164726 0)
(7.68394 -0.0144703 0)
(7.33344 0.00210118 0)
(7.33802 0.00602925 0)
(7.34755 0.00877028 0)
(7.36047 0.00989785 0)
(7.37541 0.0095113 0)
(7.3916 0.00789165 0)
(7.40842 0.00535837 0)
(7.42536 0.00223355 0)
(7.44209 -0.00119555 0)
(7.4584 -0.00470492 0)
(7.47416 -0.00813263 0)
(7.48928 -0.0113685 0)
(7.50373 -0.0143444 0)
(7.51749 -0.0170243 0)
(7.53057 -0.0193952 0)
(7.54298 -0.0214596 0)
(7.55475 -0.0232297 0)
(7.56591 -0.0247229 0)
(7.57647 -0.0259585 0)
(7.58649 -0.0269556 0)
(7.59598 -0.0277314 0)
(7.605 -0.0283001 0)
(7.61356 -0.0286721 0)
(7.62171 -0.0288537 0)
(7.62948 -0.0288469 0)
(7.63691 -0.0286497 0)
(7.64405 -0.0282562 0)
(7.65093 -0.0276572 0)
(7.65761 -0.0268411 0)
(7.66413 -0.0257946 0)
(7.67056 -0.0245049 0)
(7.67695 -0.0229575 0)
(7.68337 -0.0211546 0)
(7.33341 0.000622462 0)
(7.33761 0.00171585 0)
(7.34643 0.00205327 0)
(7.35851 0.00133273 0)
(7.37269 -0.000387328 0)
(7.38826 -0.00290904 0)
(7.40463 -0.00599733 0)
(7.4213 -0.00941342 0)
(7.4379 -0.0129425 0)
(7.45421 -0.0164163 0)
(7.47006 -0.0197146 0)
(7.48534 -0.022758 0)
(7.49999 -0.0255005 0)
(7.51398 -0.0279223 0)
(7.5273 -0.0300218 0)
(7.53996 -0.03181 0)
(7.55198 -0.033305 0)
(7.56336 -0.034529 0)
(7.57416 -0.0355049 0)
(7.58439 -0.0362548 0)
(7.5941 -0.0367984 0)
(7.60332 -0.0371524 0)
(7.61209 -0.0373296 0)
(7.62044 -0.0373393 0)
(7.62843 -0.0371868 0)
(7.63609 -0.0368741 0)
(7.64346 -0.0364002 0)
(7.65059 -0.0357615 0)
(7.65754 -0.0349532 0)
(7.66435 -0.0339699 0)
(7.67108 -0.0328074 0)
(7.67778 -0.0314611 0)
(7.68453 -0.0299411 0)
(7.33338 -0.000791073 0)
(7.33735 -0.00242118 0)
(7.34568 -0.0044445 0)
(7.35721 -0.0070457 0)
(7.37088 -0.0101785 0)
(7.38606 -0.0136991 0)
(7.40216 -0.0174371 0)
(7.4187 -0.0212194 0)
(7.43529 -0.0248959 0)
(7.45167 -0.0283518 0)
(7.46767 -0.0315094 0)
(7.48315 -0.0343233 0)
(7.49803 -0.0367744 0)
(7.51227 -0.0388633 0)
(7.52584 -0.0406047 0)
(7.53875 -0.0420217 0)
(7.551 -0.0431422 0)
(7.56262 -0.0439958 0)
(7.57364 -0.0446114 0)
(7.58408 -0.0450157 0)
(7.59398 -0.0452326 0)
(7.6034 -0.0452822 0)
(7.61235 -0.0451809 0)
(7.62089 -0.0449413 0)
(7.62907 -0.0445725 0)
(7.63691 -0.0440805 0)
(7.64448 -0.0434689 0)
(7.65182 -0.0427397 0)
(7.65898 -0.0418939 0)
(7.66602 -0.0409327 0)
(7.67298 -0.0398593 0)
(7.67992 -0.0386776 0)
(7.68691 -0.0374024 0)
(7.33337 -0.00217548 0)
(7.33719 -0.00648439 0)
(7.34526 -0.0108704 0)
(7.35649 -0.0154097 0)
(7.36992 -0.020054 0)
(7.38496 -0.0246985 0)
(7.40103 -0.0292248 0)
(7.41762 -0.0335204 0)
(7.43437 -0.0374924 0)
(7.45098 -0.0410755 0)
(7.46725 -0.0442327 0)
(7.48303 -0.0469516 0)
(7.49823 -0.049239 0)
(7.51278 -0.0511165 0)
(7.52666 -0.0526146 0)
(7.53986 -0.0537693 0)
(7.55239 -0.0546189 0)
(7.56427 -0.055201 0)
(7.57552 -0.0555512 0)
(7.58618 -0.0557019 0)
(7.59629 -0.0556818 0)
(7.60589 -0.0555151 0)
(7.61502 -0.0552224 0)
(7.62373 -0.0548201 0)
(7.63207 -0.0543212 0)
(7.64008 -0.0537361 0)
(7.64781 -0.0530727 0)
(7.65531 -0.0523376 0)
(7.66263 -0.051537 0)
(7.66982 -0.0506773 0)
(7.67693 -0.0497667 0)
(7.68401 -0.048814 0)
(7.69112 -0.0478368 0)
(7.33336 -0.00356705 0)
(7.33715 -0.0105716 0)
(7.34514 -0.0173566 0)
(7.35632 -0.0238894 0)
(7.36975 -0.0301023 0)
(7.38486 -0.0359105 0)
(7.40108 -0.0412352 0)
(7.4179 -0.0460157 0)
(7.43492 -0.0502152 0)
(7.45185 -0.0538215 0)
(7.46846 -0.0568448 0)
(7.4846 -0.0593129 0)
(7.50015 -0.0612662 0)
(7.51505 -0.062753 0)
(7.52925 -0.0638256 0)
(7.54276 -0.0645372 0)
(7.55557 -0.0649391 0)
(7.5677 -0.0650795 0)
(7.57918 -0.0650021 0)
(7.59005 -0.0647457 0)
(7.60035 -0.0643442 0)
(7.61012 -0.0638265 0)
(7.61941 -0.0632167 0)
(7.62827 -0.062535 0)
(7.63674 -0.061798 0)
(7.64487 -0.0610192 0)
(7.65272 -0.0602104 0)
(7.66033 -0.0593818 0)
(7.66775 -0.0585435 0)
(7.67504 -0.0577057 0)
(7.68223 -0.0568802 0)
(7.68939 -0.0560804 0)
(7.69655 -0.0553241 0)
(7.33337 -0.00500182 0)
(7.33721 -0.014794 0)
(7.34535 -0.0240872 0)
(7.35675 -0.0327496 0)
(7.37049 -0.0406979 0)
(7.38598 -0.0478673 0)
(7.40266 -0.0542144 0)
(7.41998 -0.0597238 0)
(7.43753 -0.0644055 0)
(7.45499 -0.0682913 0)
(7.47213 -0.0714306 0)
(7.48877 -0.0738856 0)
(7.50479 -0.0757264 0)
(7.52013 -0.0770268 0)
(7.53473 -0.0778604 0)
(7.54858 -0.0782982 0)
(7.56171 -0.0784063 0)
(7.57411 -0.0782452 0)
(7.58583 -0.0778689 0)
(7.59691 -0.0773244 0)
(7.60739 -0.0766527 0)
(7.61731 -0.0758885 0)
(7.62673 -0.0750608 0)
(7.6357 -0.0741943 0)
(7.64426 -0.0733094 0)
(7.65247 -0.0724233 0)
(7.66038 -0.0715509 0)
(7.66804 -0.0707056 0)
(7.6755 -0.0698999 0)
(7.6828 -0.0691465 0)
(7.68999 -0.0684587 0)
(7.6971 -0.067851 0)
(7.70419 -0.06734 0)
(7.33338 -0.00651848 0)
(7.33738 -0.0192486 0)
(7.34584 -0.0311619 0)
(7.35769 -0.0420045 0)
(7.37196 -0.0516601 0)
(7.38804 -0.0600753 0)
(7.40534 -0.0672463 0)
(7.4233 -0.073217 0)
(7.44151 -0.0780642 0)
(7.45961 -0.0818833 0)
(7.47737 -0.0847804 0)
(7.4946 -0.086866 0)
(7.51116 -0.0882497 0)
(7.52699 -0.0890367 0)
(7.54203 -0.0893255 0)
(7.55629 -0.089206 0)
(7.56975 -0.0887593 0)
(7.58246 -0.0880569 0)
(7.59443 -0.0871615 0)
(7.60572 -0.0861269 0)
(7.61638 -0.0849992 0)
(7.62645 -0.0838172 0)
(7.63598 -0.0826138 0)
(7.64504 -0.0814162 0)
(7.65367 -0.0802475 0)
(7.66192 -0.0791273 0)
(7.66986 -0.0780726 0)
(7.67752 -0.0770985 0)
(7.68496 -0.0762194 0)
(7.69223 -0.0754491 0)
(7.69936 -0.0748019 0)
(7.7064 -0.0742935 0)
(7.7134 -0.0739377 0)
(7.33341 -0.00817096 0)
(7.33772 -0.0241258 0)
(7.34681 -0.0389671 0)
(7.35952 -0.0523432 0)
(7.37478 -0.0641253 0)
(7.39193 -0.074269 0)
(7.41032 -0.0827886 0)
(7.42935 -0.0897587 0)
(7.44856 -0.0952946 0)
(7.46759 -0.0995344 0)
(7.48619 -0.102628 0)
(7.50416 -0.104728 0)
(7.52138 -0.105983 0)
(7.53778 -0.106535 0)
(7.55331 -0.106513 0)
(7.56798 -0.106032 0)
(7.58179 -0.105195 0)
(7.59478 -0.104093 0)
(7.60699 -0.1028 0)
(7.61846 -0.101383 0)
(7.62925 -0.0998955 0)
(7.63941 -0.0983839 0)
(7.64901 -0.0968857 0)
(7.6581 -0.0954323 0)
(7.66673 -0.0940495 0)
(7.67497 -0.0927591 0)
(7.68286 -0.0915796 0)
(7.69045 -0.090527 0)
(7.69779 -0.0896159 0)
(7.70493 -0.0888596 0)
(7.7119 -0.0882713 0)
(7.71875 -0.0878645 0)
(7.7255 -0.0876492 0)
(7.33345 -0.0100042 0)
(7.33813 -0.0294666 0)
(7.34801 -0.0473255 0)
(7.36173 -0.0630701 0)
(7.37813 -0.0765646 0)
(7.39648 -0.0878238 0)
(7.4161 -0.0969539 0)
(7.43635 -0.104135 0)
(7.45673 -0.10958 0)
(7.47688 -0.113508 0)
(7.4965 -0.116134 0)
(7.51541 -0.117661 0)
(7.53346 -0.118276 0)
(7.55059 -0.11815 0)
(7.56675 -0.117434 0)
(7.58194 -0.11626 0)
(7.59619 -0.114744 0)
(7.60954 -0.112986 0)
(7.62203 -0.111069 0)
(7.63372 -0.109064 0)
(7.64467 -0.107032 0)
(7.65494 -0.10502 0)
(7.6646 -0.103071 0)
(7.67371 -0.101217 0)
(7.68234 -0.099487 0)
(7.69053 -0.0979028 0)
(7.69834 -0.0964841 0)
(7.70583 -0.0952474 0)
(7.71304 -0.094207 0)
(7.72003 -0.0933759 0)
(7.72682 -0.0927658 0)
(7.73347 -0.0923897 0)
(7.74001 -0.0922526 0)
(7.33353 -0.0121393 0)
(7.33896 -0.0358265 0)
(7.35032 -0.0575816 0)
(7.36593 -0.076776 0)
(7.38435 -0.0932347 0)
(7.40473 -0.106923 0)
(7.42627 -0.117922 0)
(7.44826 -0.126435 0)
(7.47019 -0.132731 0)
(7.49169 -0.137099 0)
(7.51249 -0.13983 0)
(7.53239 -0.141203 0)
(7.55128 -0.141472 0)
(7.5691 -0.140865 0)
(7.58584 -0.139581 0)
(7.60151 -0.137792 0)
(7.61613 -0.135643 0)
(7.62976 -0.133256 0)
(7.64245 -0.13073 0)
(7.65428 -0.128149 0)
(7.66531 -0.12558 0)
(7.67562 -0.123077 0)
(7.68526 -0.120684 0)
(7.69431 -0.118437 0)
(7.70283 -0.116363 0)
(7.71089 -0.114485 0)
(7.71853 -0.112821 0)
(7.72582 -0.111387 0)
(7.73281 -0.110194 0)
(7.73952 -0.109253 0)
(7.74602 -0.108572 0)
(7.75232 -0.10816 0)
(7.75847 -0.108016 0)
(7.33356 -0.0145836 0)
(7.33959 -0.0427023 0)
(7.35227 -0.0677951 0)
(7.36962 -0.0891403 0)
(7.39 -0.106802 0)
(7.41251 -0.121008 0)
(7.43626 -0.132056 0)
(7.46042 -0.140313 0)
(7.48441 -0.146154 0)
(7.50779 -0.149934 0)
(7.53026 -0.151988 0)
(7.55163 -0.152621 0)
(7.57178 -0.15211 0)
(7.59066 -0.150699 0)
(7.60826 -0.148603 0)
(7.62462 -0.146004 0)
(7.63979 -0.14306 0)
(7.65384 -0.139903 0)
(7.66684 -0.136642 0)
(7.67888 -0.133367 0)
(7.69005 -0.130153 0)
(7.70041 -0.127057 0)
(7.71006 -0.124128 0)
(7.71906 -0.121402 0)
(7.72749 -0.11891 0)
(7.73541 -0.116674 0)
(7.74289 -0.114712 0)
(7.74998 -0.11304 0)
(7.75673 -0.111667 0)
(7.76319 -0.110602 0)
(7.76942 -0.109851 0)
(7.77543 -0.109421 0)
(7.78129 -0.109304 0)
(7.33382 -0.0177894 0)
(7.34184 -0.0525793 0)
(7.3579 -0.0840548 0)
(7.37902 -0.111102 0)
(7.40297 -0.133489 0)
(7.42869 -0.151236 0)
(7.45523 -0.164651 0)
(7.48178 -0.174256 0)
(7.5078 -0.180622 0)
(7.53292 -0.184302 0)
(7.55687 -0.185808 0)
(7.57948 -0.185595 0)
(7.60067 -0.184058 0)
(7.62041 -0.181527 0)
(7.63871 -0.17828 0)
(7.65562 -0.174544 0)
(7.67121 -0.170504 0)
(7.68556 -0.166309 0)
(7.69876 -0.162079 0)
(7.71091 -0.157908 0)
(7.72209 -0.15387 0)
(7.73239 -0.150023 0)
(7.74191 -0.146411 0)
(7.75073 -0.143069 0)
(7.75893 -0.140021 0)
(7.76657 -0.137288 0)
(7.77372 -0.134884 0)
(7.78044 -0.13282 0)
(7.78679 -0.131103 0)
(7.79281 -0.129739 0)
(7.79854 -0.128729 0)
(7.80404 -0.128074 0)
(7.80931 -0.12776 0)
(7.33371 -0.0212592 0)
(7.34217 -0.0610578 0)
(7.36019 -0.0946946 0)
(7.38432 -0.122127 0)
(7.41204 -0.144262 0)
(7.44199 -0.161607 0)
(7.47279 -0.174627 0)
(7.50334 -0.183875 0)
(7.53294 -0.189883 0)
(7.56115 -0.193145 0)
(7.58769 -0.194138 0)
(7.6124 -0.193303 0)
(7.63525 -0.191036 0)
(7.65626 -0.187686 0)
(7.67551 -0.183555 0)
(7.69307 -0.178898 0)
(7.70908 -0.173927 0)
(7.72365 -0.168815 0)
(7.73691 -0.163703 0)
(7.74898 -0.158699 0)
(7.75999 -0.15389 0)
(7.77003 -0.149341 0)
(7.77921 -0.1451 0)
(7.78764 -0.141204 0)
(7.79539 -0.137678 0)
(7.80254 -0.13454 0)
(7.80916 -0.131803 0)
(7.81533 -0.129474 0)
(7.82109 -0.12756 0)
(7.8265 -0.126063 0)
(7.83162 -0.124981 0)
(7.83649 -0.124313 0)
(7.84117 -0.124034 0)
(7.33483 -0.0276644 0)
(7.34961 -0.0818867 0)
(7.37543 -0.128837 0)
(7.40602 -0.166647 0)
(7.4386 -0.195653 0)
(7.47238 -0.216642 0)
(7.50628 -0.230856 0)
(7.53935 -0.239619 0)
(7.57102 -0.24407 0)
(7.60092 -0.245167 0)
(7.6288 -0.243712 0)
(7.65455 -0.24036 0)
(7.67815 -0.235633 0)
(7.69967 -0.229953 0)
(7.7192 -0.223652 0)
(7.73688 -0.216997 0)
(7.75286 -0.210195 0)
(7.76729 -0.203411 0)
(7.78033 -0.19677 0)
(7.79212 -0.190369 0)
(7.8028 -0.184281 0)
(7.81249 -0.178558 0)
(7.82132 -0.173238 0)
(7.82939 -0.168347 0)
(7.83678 -0.163902 0)
(7.84358 -0.159915 0)
(7.84987 -0.156393 0)
(7.85571 -0.153339 0)
(7.86116 -0.150757 0)
(7.86627 -0.148648 0)
(7.87109 -0.147012 0)
(7.87568 -0.145847 0)
(7.88007 -0.145121 0)
(7.3338 -0.031488 0)
(7.34774 -0.0855235 0)
(7.37804 -0.127885 0)
(7.41626 -0.162676 0)
(7.45754 -0.191159 0)
(7.49959 -0.213009 0)
(7.54054 -0.228666 0)
(7.57938 -0.238897 0)
(7.61582 -0.244443 0)
(7.64977 -0.2461 0)
(7.68128 -0.244669 0)
(7.71047 -0.240883 0)
(7.7375 -0.235381 0)
(7.76251 -0.228702 0)
(7.78566 -0.221285 0)
(7.80709 -0.213483 0)
(7.82692 -0.205567 0)
(7.84529 -0.197746 0)
(7.86232 -0.190172 0)
(7.87813 -0.182957 0)
(7.89282 -0.17618 0)
(7.90649 -0.169891 0)
(7.91925 -0.164122 0)
(7.93118 -0.158892 0)
(7.94237 -0.154208 0)
(7.95288 -0.15007 0)
(7.9628 -0.146476 0)
(7.97217 -0.143424 0)
(7.98106 -0.140912 0)
(7.98954 -0.138942 0)
(7.99765 -0.137523 0)
(8.00548 -0.136663 0)
(8.0131 -0.136341 0)
(7.33893 -0.0540618 0)
(7.37197 -0.150588 0)
(7.41481 -0.219123 0)
(7.4585 -0.265333 0)
(7.50512 -0.295389 0)
(7.55554 -0.313249 0)
(7.60822 -0.322611 0)
(7.66203 -0.326165 0)
(7.71606 -0.325614 0)
(7.76931 -0.322127 0)
(7.82087 -0.316526 0)
(7.87011 -0.3094 0)
(7.91656 -0.301191 0)
(7.95995 -0.29225 0)
(8.00015 -0.282862 0)
(8.03715 -0.273263 0)
(8.07103 -0.263651 0)
(8.10195 -0.254191 0)
(8.13008 -0.245016 0)
(8.15564 -0.236229 0)
(8.17885 -0.227911 0)
(8.19992 -0.220118 0)
(8.21906 -0.21289 0)
(8.23648 -0.20625 0)
(8.25234 -0.200211 0)
(8.2668 -0.194778 0)
(8.28001 -0.189951 0)
(8.29208 -0.18573 0)
(8.30312 -0.182125 0)
(8.31321 -0.179144 0)
(8.32245 -0.176843 0)
(8.33092 -0.175226 0)
(8.33878 -0.174465 0)
(7.33756 -0.0401543 0)
(7.38853 -0.104958 0)
(7.47773 -0.162094 0)
(7.57924 -0.217138 0)
(7.68697 -0.263833 0)
(7.79578 -0.29985 0)
(7.89972 -0.325854 0)
(7.99534 -0.342564 0)
(8.0807 -0.351083 0)
(8.15478 -0.352896 0)
(8.21741 -0.349481 0)
(8.26902 -0.342166 0)
(8.31039 -0.332096 0)
(8.34253 -0.320216 0)
(8.36652 -0.307278 0)
(8.38345 -0.293867 0)
(8.39436 -0.280428 0)
(8.40019 -0.267287 0)
(8.40178 -0.254676 0)
(8.39986 -0.242754 0)
(8.39507 -0.231619 0)
(8.38794 -0.221327 0)
(8.3789 -0.211898 0)
(8.36833 -0.203328 0)
(8.35652 -0.195596 0)
(8.34371 -0.188668 0)
(8.33008 -0.182503 0)
(8.31576 -0.177059 0)
(8.30085 -0.172307 0)
(8.28535 -0.168228 0)
(8.26938 -0.164914 0)
(8.25264 -0.162326 0)
(8.23577 -0.161397 0)
(7.39942 -0.196562 0)
(7.59544 -0.375469 0)
(7.76806 -0.457954 0)
(7.89521 -0.511357 0)
(7.97895 -0.539544 0)
(8.01741 -0.54838 0)
(8.01488 -0.544515 0)
(7.97975 -0.531323 0)
(7.91968 -0.511321 0)
(7.84124 -0.486781 0)
(7.75021 -0.459503 0)
(7.65128 -0.430882 0)
(7.54815 -0.401995 0)
(7.4436 -0.373647 0)
(7.3397 -0.346408 0)
(7.23791 -0.320653 0)
(7.13922 -0.296612 0)
(7.04427 -0.274396 0)
(6.9534 -0.254034 0)
(6.86677 -0.235496 0)
(6.78438 -0.218711 0)
(6.70616 -0.203582 0)
(6.63192 -0.189995 0)
(6.56147 -0.17783 0)
(6.49457 -0.166958 0)
(6.43099 -0.157253 0)
(6.37045 -0.148579 0)
(6.3127 -0.14081 0)
(6.25745 -0.13379 0)
(6.20429 -0.12738 0)
(6.15291 -0.121486 0)
(6.10224 -0.115341 0)
(6.05272 -0.112218 0)
(7.16018 -0.185763 0)
(6.91132 -0.344871 0)
(6.50082 -0.392051 0)
(6.03805 -0.393428 0)
(5.59908 -0.365268 0)
(5.18413 -0.321391 0)
(4.79726 -0.272706 0)
(4.44518 -0.224825 0)
(4.12844 -0.180724 0)
(3.84532 -0.141873 0)
(3.59377 -0.108663 0)
(3.3712 -0.0808953 0)
(3.17475 -0.0580857 0)
(3.0016 -0.0396107 0)
(2.84906 -0.0248182 0)
(2.71464 -0.0130932 0)
(2.59607 -0.00388734 0)
(2.49132 0.00327092 0)
(2.39857 0.00877685 0)
(2.31624 0.0129564 0)
(2.24292 0.0160756 0)
(2.1774 0.0183499 0)
(2.11862 0.0199544 0)
(2.06566 0.0210318 0)
(2.01774 0.0217038 0)
(1.97419 0.0220761 0)
(1.93442 0.0222646 0)
(1.89803 0.0223876 0)
(1.86451 0.022658 0)
(1.834 0.0233759 0)
(1.80564 0.0248313 0)
(1.78129 0.0295793 0)
(1.7592 0.0246875 0)
(1.30622 0.00566179 0)
(1.53383 0.0486984 0)
(1.76571 0.0438166 0)
(1.96469 -0.0521845 0)
(2.0855 -0.250167 0)
(2.06035 -0.503529 0)
(1.85331 -0.723977 0)