/*--------------------------------*- C++ -*----------------------------------*\
  =========                 |
  \\      /  F ield         | OpenFOAM: The Open Source CFD Toolbox
   \\    /   O peration     | Website:  https://openfoam.org
    \\  /    A nd           | Version:  10
     \\/     M anipulation  |
\*---------------------------------------------------------------------------*/
FoamFile
{
    format      ascii;
    class       volScalarField;
    location    "0.17";
    object      k;
}
// * * * * * * * * * * * * * * * * * * * * * * * * * * * * * * * * * * * * * //

dimensions      [0 2 -2 0 0 0 0];

internalField   nonuniform List<scalar> 
6820
(
0.198346
0.19482
0.191241
0.187646
0.184084
0.180583
0.177155
0.173807
0.170542
0.167366
0.164279
0.161287
0.158391
0.155596
0.152903
0.150315
0.147834
0.14546
0.143193
0.141032
0.138976
0.137021
0.135165
0.133404
0.131732
0.130146
0.128639
0.127204
0.125828
0.124514
0.12316
0.122108
0.119487
0.200925
0.200894
0.200447
0.199971
0.199486
0.19898
0.19845
0.197893
0.197308
0.196693
0.196049
0.195378
0.194679
0.193956
0.193208
0.19244
0.191651
0.190846
0.190026
0.189195
0.188354
0.187507
0.186656
0.185803
0.184952
0.184104
0.183262
0.182428
0.181607
0.180805
0.180022
0.179284
0.178574
0.236746
0.0167004
0.0578064
0.00631175
0.00759322
0.00775611
0.00921574
0.0110959
0.0130849
0.0151284
0.0171891
0.0192415
0.0212666
0.0232491
0.0251757
0.0270356
0.02882
0.0305219
0.0321363
0.0336599
0.0350911
0.0364295
0.0376767
0.0388351
0.039909
0.0409042
0.0418286
0.0426928
0.0435117
0.0443058
0.0451013
0.0459643
0.0468421
0.210804
0.147799
0.104569
0.07919
0.0635501
0.0529825
0.0452169
0.039142
0.0341817
0.0300124
0.0264387
0.0233347
0.0206157
0.018222
0.0161105
0.0142486
0.0126107
0.0111755
0.00992436
0.00884001
0.00790579
0.00710543
0.00642308
0.00584356
0.00535263
0.00493729
0.00458598
0.00428873
0.00403718
0.00382474
0.0036462
0.00350049
0.00338297
0.223304
0.083458
0.0218261
0.00454076
0.000886294
0.00052151
0.000762889
0.00102968
0.00124764
0.00142823
0.00158289
0.00171583
0.00182783
0.00191883
0.00198909
0.00203945
0.0020713
0.00208647
0.00208702
0.00207512
0.00205291
0.00202242
0.00198547
0.00194364
0.00189823
0.00185024
0.00180055
0.00174953
0.00169711
0.0016429
0.00158633
0.00152569
0.00146187
0.216698
0.116911
0.0576368
0.0337353
0.0241888
0.0195103
0.0162562
0.0132932
0.0103893
0.00766244
0.00532321
0.00351047
0.00223086
0.00139319
0.00087363
0.000561816
0.000377469
0.000268725
0.000204316
0.000166051
0.000143472
0.000130525
0.00012364
0.000120641
0.000120045
3.90652e-05
0.00201271
0.00153824
0.00132232
0.0011608
0.00105209
0.00100155
0.00100424
0.213455
0.133198
0.0713464
0.0415316
0.02859
0.0227087
0.0196959
0.0179484
0.0168414
0.0160948
0.0155694
0.0151912
0.0149188
0.0147268
0.0145985
0.0145215
0.0144859
0.0144828
0.0145042
0.0145425
0.0145899
0.0146385
0.0146795
0.0147027
0.0146954
0.0146423
0.0145309
0.0143552
0.0141493
0.0139856
0.013996
0.0141685
0.0145879
0.204629
0.177203
0.136303
0.0922642
0.0615115
0.0439251
0.0343246
0.0289894
0.0259097
0.024066
0.0229396
0.0222561
0.0218632
0.0216727
0.0216334
0.0217161
0.0219058
0.0221968
0.0225888
0.023085
0.0236901
0.0244082
0.0252427
0.0261942
0.0272589
0.0284258
0.029674
0.0309717
0.0322886
0.0336098
0.0349726
0.0364088
0.0379139
0.203559
0.182382
0.161767
0.137608
0.112266
0.0912007
0.0756522
0.0648321
0.0575054
0.0525821
0.049273
0.0470568
0.0455975
0.0446805
0.04417
0.0439832
0.0440703
0.0444032
0.0449675
0.0457555
0.0467624
0.0479814
0.0493982
0.0509899
0.0527272
0.0545692
0.0564596
0.0583286
0.0601141
0.0617792
0.0633435
0.0648177
0.0661686
0.203146
0.184454
0.168895
0.156733
0.144174
0.130805
0.117892
0.106527
0.0971856
0.089921
0.084475
0.0804954
0.0776521
0.0756739
0.0743559
0.0735505
0.0731338
0.0729966
0.073073
0.0733262
0.0737351
0.0742852
0.0749595
0.0757327
0.076571
0.077429
0.0782535
0.0789919
0.079609
0.080097
0.0804873
0.0807986
0.0809946
0.202938
0.185525
0.170183
0.15957
0.151391
0.144191
0.137491
0.131126
0.12517
0.119844
0.115258
0.11141
0.108233
0.105631
0.103505
0.101768
0.100337
0.0991306
0.0980944
0.0971928
0.0964013
0.0957019
0.0950776
0.0945076
0.0939637
0.0934135
0.0928267
0.0921809
0.0914709
0.0907099
0.0899315
0.0891537
0.0883402
0.202844
0.186031
0.17056
0.159933
0.152387
0.146413
0.141236
0.136464
0.131981
0.127815
0.124012
0.120594
0.11755
0.114847
0.112442
0.110288
0.108341
0.106561
0.104916
0.103375
0.101916
0.100515
0.0991523
0.097809
0.0964649
0.0951025
0.0937094
0.0922849
0.0908453
0.0894133
0.0880197
0.0866848
0.0853812
0.202833
0.18615
0.170033
0.158706
0.150898
0.14527
0.141
0.137506
0.134429
0.131586
0.128894
0.126315
0.123825
0.12141
0.119051
0.116733
0.114442
0.112165
0.109893
0.107617
0.105332
0.103034
0.100724
0.0984057
0.0960858
0.093772
0.0914733
0.0892062
0.0869974
0.0848746
0.0828691
0.0810048
0.0792602
0.202948
0.185727
0.16853
0.156271
0.147888
0.141992
0.137678
0.134311
0.131475
0.128923
0.126512
0.124157
0.121806
0.119425
0.116991
0.114489
0.111909
0.109245
0.106497
0.10367
0.100772
0.0978159
0.0948216
0.0918135
0.0888213
0.0858748
0.083008
0.0802544
0.077646
0.0752124
0.0729827
0.0709784
0.0691794
0.203187
0.184672
0.166009
0.152646
0.143554
0.137261
0.13278
0.129429
0.126742
0.124417
0.122256
0.120121
0.117922
0.115596
0.113104
0.110425
0.10755
0.104483
0.101237
0.0978379
0.0943166
0.090712
0.0870681
0.0834339
0.0798601
0.0763993
0.0731066
0.0700308
0.0672133
0.0646875
0.0624787
0.0606031
0.0590376
0.203531
0.183091
0.162613
0.148024
0.138193
0.131465
0.126713
0.12318
0.120362
0.117932
0.11567
0.113422
0.111079
0.108566
0.105833
0.102854
0.0996212
0.0961447
0.0924494
0.0885749
0.0845728
0.0805025
0.0764311
0.0724303
0.068572
0.0649277
0.0615654
0.0585451
0.0559171
0.0537168
0.0519649
0.050669
0.0497983
0.20399
0.180971
0.158251
0.142267
0.13164
0.124459
0.119431
0.115719
0.112779
0.110256
0.107907
0.10556
0.103086
0.100398
0.097438
0.0941764
0.0906107
0.0867614
0.0826691
0.0783931
0.0740079
0.0695989
0.0652598
0.0610892
0.0571858
0.0536436
0.0505465
0.0479647
0.045951
0.0445352
0.0437241
0.0435026
0.0438192
0.204599
0.178154
0.152711
0.135201
0.123794
0.116212
0.110959
0.107095
0.10403
0.101385
0.0989002
0.0963919
0.0937264
0.0908112
0.0875895
0.0840376
0.0801632
0.0760026
0.071616
0.0670846
0.0625075
0.0579977
0.0536774
0.049674
0.0461136
0.0431121
0.0407663
0.0391473
0.0382943
0.0382102
0.0388639
0.0401927
0.042107
0.205408
0.174417
0.145724
0.126616
0.114505
0.106621
0.101221
0.0972686
0.0941314
0.0914105
0.088836
0.0862158
0.0834121
0.0803318
0.0769224
0.0731699
0.0690962
0.0647564
0.0602348
0.0556408
0.051106
0.0467796
0.0428213
0.0393926
0.0366447
0.0347049
0.0336628
0.0335617
0.0343932
0.0360983
0.0385777
0.0416995
0.0453331
0.206479
0.169458
0.13699
0.116325
0.103693
0.0956754
0.0902618
0.0863178
0.0831817
0.0804432
0.0778283
0.0751438
0.0722546
0.0690744
0.0655618
0.0617184
0.0575861
0.0532438
0.0488057
0.0444174
0.0402523
0.0365033
0.0333694
0.0310373
0.0296615
0.0293449
0.0301261
0.0319746
0.0347956
0.0384425
0.042739
0.0474896
0.0525438
0.207895
0.16289
0.12621
0.104216
0.0913687
0.0834555
0.0781957
0.074382
0.0713421
0.0686698
0.0660972
0.0634386
0.060568
0.0574108
0.0539405
0.0501777
0.0461882
0.0420832
0.038018
0.034187
0.0308141
0.0281338
0.0263653
0.0256844
0.0261985
0.0279316
0.0308218
0.0347321
0.0394701
0.0448127
0.050534
0.0564157
0.0623273
0.209747
0.154258
0.113185
0.0903487
0.0777286
0.0702218
0.0653156
0.0617734
0.0589408
0.0564333
0.0540014
0.0514756
0.0487459
0.0457546
0.0424953
0.0390138
0.0354113
0.031845
0.0285246
0.0256989
0.0236299
0.0225594
0.0226727
0.0240698
0.0267504
0.0306162
0.0354886
0.0411357
0.0473028
0.0537396
0.0602243
0.0665676
0.0726908
0.212109
0.143143
0.0979738
0.0750819
0.0632404
0.0564711
0.0521247
0.0489984
0.0464896
0.0442553
0.0420769
0.0398097
0.0373657
0.0347099
0.0318645
0.0289149
0.0260137
0.0233772
0.0212678
0.0199619
0.0197083
0.0206866
0.0229773
0.0265504
0.0312734
0.0369355
0.0432799
0.0500366
0.056951
0.0638022
0.0704185
0.0766703
0.0825395
0.214984
0.129403
0.0811203
0.0591925
0.0486969
0.0429645
0.0393547
0.0367688
0.0346889
0.0328302
0.0310157
0.0291335
0.0271269
0.0249974
0.022814
0.0207189
0.0189233
0.017686
0.0172755
0.0179249
0.019789
0.022918
0.0272509
0.0326299
0.0388282
0.0455844
0.0526341
0.0597359
0.0666882
0.0733366
0.0795779
0.0853476
0.0906756
0.218204
0.113612
0.0638814
0.0439463
0.035247
0.0307629
0.0280177
0.0260736
0.0245188
0.0231378
0.0218046
0.0204531
0.0190748
0.0177265
0.0165362
0.0156961
0.0154393
0.0160016
0.017577
0.0202812
0.0241306
0.0290427
0.0348505
0.041332
0.0482413
0.0553372
0.0624045
0.0692681
0.0757977
0.0819074
0.0875522
0.092714
0.0974467
0.221328
0.0976185
0.048322
0.0310591
0.0243659
0.0212289
0.0194332
0.0182211
0.017291
0.0165035
0.015796
0.0151629
0.0146558
0.0143841
0.0145068
0.0152113
0.0166795
0.0190523
0.0224014
0.0267135
0.031894
0.0377837
0.0441833
0.0508805
0.0576728
0.0643844
0.0708755
0.0770455
0.0828301
0.0881965
0.0931379
0.0976608
0.101821
0.223603
0.0848834
0.0373697
0.0228701
0.0181543
0.0164033
0.0156465
0.0152749
0.0150832
0.0150076
0.0150528
0.0152727
0.0157634
0.0166531
0.0180839
0.0201874
0.023057
0.0267291
0.0311739
0.0362995
0.0419658
0.048006
0.0542483
0.0605335
0.0667262
0.0727203
0.0784403
0.0838383
0.0888892
0.0935861
0.0979362
0.101949
0.105667
0.224196
0.0796692
0.0342554
0.0219593
0.0189024
0.0183974
0.0186059
0.0190085
0.0194717
0.0199978
0.0206505
0.0215274
0.0227435
0.0244148
0.0266397
0.0294796
0.0329432
0.0369886
0.0415308
0.0464555
0.051636
0.056949
0.0622856
0.0675576
0.0726979
0.0776594
0.0824118
0.0869373
0.0912276
0.0952817
0.0991043
0.102692
0.106061
0.222462
0.0857525
0.0422658
0.0310897
0.0289696
0.0292099
0.0299546
0.0307068
0.0313816
0.0320381
0.0327893
0.0337627
0.0350758
0.0368217
0.0390549
0.0417856
0.044979
0.0485691
0.0524702
0.0565919
0.0608498
0.0651713
0.0694981
0.0737852
0.0779986
0.0821122
0.0861057
0.0899628
0.09367
0.0972164
0.100595
0.103795
0.10683
0.218917
0.10164
0.0599034
0.0483701
0.0458966
0.0457819
0.0460551
0.0461933
0.0461454
0.0460206
0.0459711
0.0461392
0.046632
0.0475241
0.0488454
0.0505828
0.0526917
0.0551103
0.0577743
0.0606284
0.0636315
0.0667517
0.0699634
0.073245
0.0765763
0.0799367
0.0833048
0.0866578
0.0899729
0.0932274
0.0964008
0.0994712
0.102438
0.214137
0.125089
0.0870685
0.0744411
0.0701408
0.0678256
0.0656464
0.0632641
0.0608283
0.0585848
0.0567524
0.0554805
0.0547491
0.0545368
0.0548115
0.0555216
0.0566117
0.0580337
0.0597512
0.0617363
0.0639656
0.0664153
0.0690596
0.0718703
0.0748174
0.0778696
0.0809947
0.0841606
0.0873361
0.0904918
0.0936014
0.0966391
0.0996008
0.211038
0.141253
0.103917
0.0875469
0.0782803
0.0706894
0.0637582
0.0576869
0.0527873
0.0492426
0.0471522
0.0462423
0.0461236
0.0465355
0.0473069
0.0482992
0.0494232
0.0506541
0.052017
0.0535561
0.0553084
0.0572912
0.0595028
0.0619283
0.0645456
0.0673291
0.0702506
0.0732805
0.0763883
0.0795435
0.0827172
0.0858791
0.0890174
0.208229
0.156493
0.118867
0.0926751
0.0725724
0.0573973
0.0466072
0.0393508
0.0347815
0.0322836
0.0314351
0.0317061
0.0326197
0.0340419
0.0358992
0.0381075
0.0405706
0.0431881
0.045867
0.0485367
0.0511603
0.0537388
0.0563031
0.0588977
0.0615628
0.0643232
0.0671847
0.070137
0.0731597
0.0762272
0.0793138
0.0823918
0.0854526
0.209656
0.148896
0.089657
0.054131
0.0356823
0.0260141
0.0205846
0.0173167
0.0152958
0.0141175
0.0136231
0.0137116
0.0141314
0.014838
0.0159309
0.0175888
0.0200036
0.0232872
0.0273936
0.0321016
0.0370675
0.0419227
0.046371
0.0502493
0.0535393
0.0563355
0.0587924
0.0610716
0.0633053
0.0655796
0.067936
0.070379
0.0729011
0.217148
0.112417
0.0519239
0.0268714
0.0169324
0.0126133
0.0104316
0.00916543
0.00837391
0.00789691
0.00768824
0.0077195
0.00789481
0.00817467
0.0085837
0.00921055
0.0102092
0.0117594
0.0139888
0.0168984
0.0203382
0.0240477
0.0277414
0.0311944
0.034293
0.0370368
0.0395041
0.041802
0.0440248
0.0462292
0.0484332
0.0506149
0.0527742
0.220358
0.0972911
0.0429342
0.0235159
0.0160704
0.0125148
0.0102949
0.00861622
0.00722802
0.00605508
0.00506974
0.00425669
0.00359693
0.00307075
0.00265783
0.00233871
0.00209586
0.00191425
0.00178133
0.00168681
0.00162237
0.00158146
0.0015592
0.00155215
0.00155801
0.00157531
0.00160309
0.0016406
0.00168689
0.00174196
0.00180367
0.00186842
0.00193321
0.212163
0.139727
0.0937001
0.0689907
0.0553539
0.0471431
0.0417289
0.0378825
0.0350059
0.032767
0.0309829
0.0295298
0.0283277
0.0273249
0.0264839
0.0257753
0.0251768
0.0246709
0.0242435
0.0238824
0.023577
0.023318
0.0230972
0.0229072
0.0227414
0.0225942
0.02246
0.0223341
0.0222119
0.0220897
0.0219607
0.0218195
0.0216442
0.240238
0.000513193
0.0371781
0.033641
0.00072653
0.000157285
0.00618473
0.00149257
0.0157047
0.0024599
0.00040792
0.00111375
0.00106514
0.000902813
0.000933196
0.00108784
0.00125136
0.00141673
0.00160495
0.00181738
0.00204955
0.00230161
0.00257543
0.00287182
0.00319101
0.00353339
0.00389932
0.00428885
0.00470168
0.00513732
0.00559534
0.00607595
0.0065785
0.200086
0.199957
0.199786
0.199629
0.199489
0.199365
0.199253
0.199151
0.199057
0.198972
0.198897
0.19883
0.198773
0.198727
0.198692
0.19867
0.19866
0.198665
0.198684
0.198718
0.198767
0.19883
0.198909
0.199001
0.199107
0.199226
0.199357
0.199499
0.199652
0.199813
0.199982
0.200162
0.200332
0.199875
0.19956
0.199214
0.19885
0.198476
0.198099
0.19772
0.197341
0.196963
0.196585
0.196207
0.195828
0.195447
0.195064
0.194677
0.194286
0.193888
0.193485
0.193074
0.192655
0.192229
0.191794
0.191352
0.190902
0.190444
0.189979
0.189509
0.189032
0.188551
0.188067
0.187579
0.18709
0.1866
0.125713
0.136869
0.13969
0.14124
0.141927
0.141801
0.142188
0.143584
0.14322
0.138516
0.130357
0.121547
0.114794
0.111227
0.113844
0.125256
0.138212
0.132658
0.0959062
0.0482777
0.0224472
0.0318662
0.0630372
0.0942036
0.113927
0.122931
0.126849
0.130259
0.134924
0.140521
0.145729
0.148806
0.147837
0.140844
0.125738
0.101969
0.0757519
0.061729
0.0694357
0.0881418
0.0951855
0.0830903
0.0722309
0.0893889
0.125627
0.143013
0.129596
0.110177
0.105997
0.115071
0.129561
0.143947
0.156113
0.166196
0.174044
0.177202
0.173823
0.165437
0.153197
0.13923
0.131055
0.13231
0.140583
0.14802
0.148852
0.143981
0.136542
0.123761
0.0977726
0.0863634
0.135198
0.215306
0.281321
0.332036
0.375193
0.40382
0.402276
0.385956
0.361201
0.292192
0.193311
0.121944
0.0937246
0.0853386
0.0773621
0.0673855
0.0609937
0.062075
0.0702147
0.0833901
0.0990828
0.11026
0.111488
0.104272
0.088
0.0625436
0.0341459
0.0125949
0.00199162
0.0146622
0.177873
0.177622
0.177097
0.176122
0.175349
0.174491
0.173222
0.171422
0.168848
0.164802
0.159018
0.152584
0.147253
0.145626
0.14776
0.14773
0.133303
0.0962748
0.0501992
0.0202133
0.0216007
0.0480664
0.080582
0.104578
0.116781
0.12137
0.12375
0.127155
0.132341
0.138556
0.144442
0.148412
0.148725
0.143517
0.130648
0.108714
0.0817364
0.0631062
0.065506
0.0835385
0.0947733
0.086656
0.0753014
0.0883947
0.122647
0.141098
0.129305
0.111672
0.108568
0.11775
0.131745
0.145674
0.158076
0.169806
0.180044
0.184565
0.180969
0.171246
0.158639
0.144469
0.134184
0.132654
0.139298
0.147058
0.148969
0.144718
0.137793
0.127919
0.10601
0.0852152
0.114685
0.190026
0.261584
0.313609
0.352373
0.375204
0.375556
0.367746
0.338838
0.260266
0.16697
0.110697
0.0928166
0.0876248
0.0797193
0.0692866
0.0623635
0.0629309
0.0708578
0.0839186
0.0988632
0.108502
0.107978
0.099376
0.082725
0.0581085
0.0313433
0.0111586
0.00134035
0.0140481
0.0485011
0.0499367
0.0502543
0.0498532
0.0510465
0.0569999
0.0695986
0.0872241
0.105951
0.122215
0.133995
0.140775
0.143652
0.142276
0.132758
0.111408
0.0773957
0.0399213
0.0147789
0.0143093
0.0369769
0.0687786
0.0953684
0.110625
0.116505
0.118195
0.119966
0.123749
0.129554
0.136376
0.142873
0.147604
0.149009
0.145384
0.134679
0.114929
0.0881977
0.0658839
0.0624905
0.0782859
0.0930686
0.0896563
0.0786891
0.0875698
0.119046
0.138786
0.129586
0.114003
0.11152
0.120237
0.133343
0.146822
0.160273
0.175004
0.188658
0.194512
0.18969
0.177842
0.163787
0.149472
0.137821
0.13378
0.138468
0.14609
0.148961
0.145326
0.13868
0.13068
0.113766
0.0888822
0.0982896
0.161618
0.236552
0.293093
0.331199
0.351
0.354312
0.349008
0.309137
0.223594
0.141766
0.101909
0.0926026
0.089035
0.0806252
0.0697972
0.0626761
0.0630865
0.0709705
0.0838481
0.0980426
0.106392
0.104421
0.094519
0.0776887
0.0541139
0.0290646
0.0101845
0.00109029
0.0140852
0.00329369
0.00324324
0.00318714
0.00311876
0.00317579
0.00385404
0.00640007
0.0127359
0.0237486
0.0379315
0.0521711
0.0632189
0.0683729
0.0656086
0.054551
0.0365777
0.0172795
0.00553323
0.00989596
0.0312449
0.0610325
0.087874
0.104906
0.112088
0.113561
0.113839
0.115729
0.120125
0.126586
0.133998
0.141058
0.146451
0.148783
0.146532
0.137841
0.12047
0.0948361
0.0699259
0.0607236
0.0727561
0.089966
0.0917569
0.082245
0.0871077
0.114943
0.135948
0.130285
0.117092
0.11491
0.122737
0.134729
0.148132
0.163906
0.183242
0.201413
0.208493
0.20107
0.185565
0.169013
0.15408
0.141704
0.135617
0.138191
0.145221
0.148852
0.145847
0.139333
0.132304
0.12006
0.0960731
0.0884062
0.132894
0.205516
0.267622
0.308691
0.328793
0.334818
0.324557
0.270382
0.184703
0.120146
0.096086
0.0926594
0.0892075
0.0799938
0.068952
0.0619386
0.0624589
0.0704219
0.0831934
0.0966717
0.103901
0.100744
0.0895413
0.0725398
0.0501319
0.0270315
0.00958352
0.00110288
0.0141532
0.00137544
0.00127704
0.00119509
0.00108668
0.000957411
0.000279164
0.000961311
0.00168171
0.000973331
0.00208217
0.00505183
0.00811929
0.00918425
0.00783491
0.00443426
0.000966664
0.00175302
0.0117714
0.0323434
0.0589031
0.0836272
0.100463
0.10819
0.109625
0.108794
0.1088
0.111217
0.116303
0.123413
0.131404
0.139005
0.144996
0.148123
0.147039
0.140142
0.125184
0.101341
0.0750274
0.0604665
0.0674208
0.0854816
0.0925782
0.0857131
0.087182
0.110546
0.132448
0.131129
0.120849
0.118882
0.125612
0.136547
0.150656
0.170292
0.195844
0.219393
0.227384
0.215966
0.194836
0.174501
0.158257
0.145548
0.138023
0.138527
0.144571
0.148678
0.146308
0.139842
0.133151
0.124383
0.104734
0.0861869
0.108009
0.169798
0.234646
0.280555
0.303916
0.310367
0.288535
0.223281
0.147606
0.103858
0.0926684
0.0921147
0.0878065
0.0779218
0.0669928
0.0603696
0.0611961
0.0693168
0.0820209
0.0947778
0.100984
0.0968858
0.0845188
0.0673368
0.046162
0.025104
0.00914506
0.00134727
0.0143566
0.00104309
0.00109693
0.00126189
0.00153275
0.00176783
0.00177573
0.00171152
0.00128296
0.000304874
0.00119199
0.00112708
0.000963229
0.00129858
0.00211859
0.00449577
0.0104454
0.0223232
0.0407538
0.0629285
0.0835837
0.098097
0.105022
0.106115
0.104508
0.102996
0.103379
0.10647
0.112248
0.12
0.128577
0.136721
0.14327
0.147092
0.146997
0.141639
0.128981
0.107411
0.0808921
0.0618578
0.0628294
0.0798182
0.0917506
0.088768
0.0878838
0.10616
0.128165
0.131785
0.125107
0.123599
0.129342
0.139653
0.155552
0.180554
0.213521
0.24273
0.251059
0.234449
0.206032
0.180284
0.161991
0.149108
0.140816
0.13949
0.144249
0.148492
0.146726
0.140263
0.133526
0.126825
0.112696
0.0907345
0.0913537
0.13369
0.193831
0.242772
0.270025
0.272864
0.23836
0.172921
0.117038
0.0934096
0.0903988
0.0901452
0.0847386
0.0746721
0.0642544
0.0582692
0.0595758
0.0679359
0.080489
0.0924552
0.0977129
0.0928981
0.0796855
0.0622139
0.0422336
0.0233005
0.00894002
0.0018311
0.0144647
0.015129
0.0146787
0.0143186
0.0143719
0.0146131
0.0148488
0.0149765
0.0148744
0.0145849
0.0143477
0.0143438
0.0149991
0.0171054
0.0214724
0.0290249
0.0405422
0.0556836
0.0723861
0.0873736
0.0977545
0.102523
0.102741
0.100535
0.0979984
0.0967103
0.0977039
0.101479
0.107931
0.11633
0.125511
0.13421
0.141298
0.145743
0.146489
0.14242
0.131834
0.112784
0.087151
0.06487
0.0595432
0.0734098
0.088997
0.0909407
0.0891668
0.102143
0.123209
0.131804
0.129526
0.129131
0.134398
0.144891
0.163747
0.195166
0.235829
0.270099
0.277984
0.255512
0.218867
0.186475
0.165232
0.152185
0.143802
0.141055
0.144351
0.148366
0.147104
0.140648
0.133612
0.127868
0.118481
0.0991415
0.08546
0.103983
0.149332
0.194894
0.222306
0.218558
0.179276
0.128066
0.0962701
0.0874854
0.0876268
0.0862247
0.0801754
0.0705981
0.0610801
0.0559248
0.0578254
0.0664351
0.0787088
0.0898142
0.0941834
0.0888221
0.0751476
0.0573358
0.0384192
0.0215526
0.00886898
0.00258695
0.0147496
0.0397544
0.0408649
0.0410496
0.0412963
0.0417747
0.0423202
0.0427915
0.0431646
0.0435295
0.044097
0.0452289
0.0475019
0.0513637
0.0571974
0.0650812
0.0745306
0.0842805
0.0926017
0.0980203
0.100002
0.0990808
0.0964321
0.0933441
0.0909493
0.0901931
0.0918217
0.096249
0.103355
0.112403
0.122207
0.131477
0.139097
0.144114
0.145588
0.142586
0.13378
0.117269
0.0933855
0.0692878
0.0580358
0.0669261
0.084256
0.0916397
0.090789
0.0989286
0.117737
0.13064
0.133519
0.1353
0.141031
0.152751
0.175488
0.213473
0.260821
0.29858
0.305158
0.276963
0.232268
0.192816
0.167978
0.154649
0.146796
0.143172
0.144945
0.148386
0.147444
0.141031
0.133505
0.128019
0.121769
0.107764
0.0890987
0.0869809
0.110339
0.143521
0.163997
0.155609
0.125015
0.0968926
0.0849761
0.0833356
0.0830191
0.0803618
0.0745052
0.0660421
0.0577401
0.0535638
0.0561159
0.0649265
0.076783
0.0869447
0.0904566
0.0846928
0.0708581
0.0528997
0.0348772
0.0199475
0.00903741
0.00369909
0.0151539
0.0676315
0.0684009
0.0681829
0.0678754
0.0679086
0.0682716
0.0688664
0.0696442
0.0706371
0.0719567
0.0738046
0.0763169
0.0795372
0.0834089
0.0876462
0.0917153
0.0949043
0.0965812
0.0964612
0.0947156
0.0918722
0.0886242
0.0856905
0.0837809
0.0836073
0.0858263
0.0908433
0.0985564
0.108234
0.118665
0.128522
0.136676
0.142232
0.144352
0.142237
0.134902
0.120758
0.0991904
0.0747213
0.0585795
0.0612127
0.0778054
0.0902471
0.0922944
0.0968808
0.112121
0.127844
0.136239
0.141514
0.148974
0.162991
0.189963
0.23347
0.285162
0.324053
0.328556
0.295671
0.244414
0.198606
0.170094
0.156418
0.149649
0.145772
0.146071
0.148629
0.14776
0.141409
0.133293
0.127572
0.123107
0.114099
0.0975587
0.0840873
0.086718
0.101658
0.110709
0.103646
0.0896205
0.081175
0.0791273
0.0782276
0.0762164
0.0730805
0.0681728
0.0612335
0.0543771
0.0513157
0.0545533
0.0634776
0.0747597
0.0838765
0.0865371
0.0805032
0.0667471
0.0489452
0.0316075
0.0183754
0.0093707
0.00524021
0.0158047
0.0812148
0.0810983
0.0805173
0.0799
0.0796074
0.0797238
0.0802092
0.0810067
0.0820749
0.0833886
0.0849088
0.0866186
0.0884357
0.0901935
0.0916386
0.0924799
0.0924474
0.0913967
0.0893799
0.0866462
0.0835772
0.080609
0.0781999
0.076864
0.077214
0.0798986
0.0853727
0.0935902
0.10384
0.114885
0.125339
0.134038
0.140113
0.142818
0.141457
0.135308
0.123229
0.104226
0.0806569
0.061155
0.0571453
0.07035
0.0863374
0.0928503
0.0959935
0.106961
0.123288
0.136672
0.146676
0.157355
0.174441
0.205195
0.252117
0.304899
0.342127
0.343994
0.308167
0.253001
0.202763
0.171279
0.157436
0.15225
0.148751
0.147717
0.149144
0.148085
0.141747
0.13305
0.126679
0.123113
0.117686
0.105801
0.0903418
0.080934
0.0801804
0.0802599
0.0774969
0.0753458
0.0749602
0.0738711
0.071083
0.0679488
0.0651368
0.0615138
0.0562543
0.0510142
0.0492103
0.0531589
0.0620856
0.0726215
0.0805789
0.0823791
0.0761986
0.0627557
0.0453689
0.0286636
0.0168422
0.00986429
0.0071807
0.0165396
0.0875275
0.0865509
0.085465
0.0844583
0.083741
0.0833919
0.0833934
0.0836948
0.0842373
0.0849364
0.0857092
0.0864545
0.0870489
0.0873442
0.087188
0.0864637
0.0851169
0.0831893
0.0808241
0.0782367
0.0756659
0.0733487
0.0715579
0.0706948
0.071357
0.0742611
0.0799679
0.0885219
0.0992448
0.110864
0.12192
0.131177
0.137765
0.141012
0.140309
0.135113
0.124735
0.108261
0.0865423
0.0654277
0.0554145
0.0630089
0.0799419
0.0914464
0.0957388
0.102905
0.117399
0.133982
0.149108
0.164341
0.185126
0.218593
0.266063
0.316272
0.349161
0.348073
0.311428
0.255748
0.204016
0.171091
0.157656
0.154486
0.151813
0.149682
0.149882
0.148431
0.141996
0.132785
0.125504
0.122081
0.119115
0.111554
0.0987743
0.0859952
0.0776253
0.0734888
0.0720592
0.0718347
0.070514
0.0671213
0.0628807
0.0594781
0.0571748
0.0546989
0.0510908
0.0476088
0.0472133
0.0518928
0.0606966
0.0703091
0.0769892
0.0779165
0.0717169
0.0588416
0.0421088
0.0261227
0.0153191
0.0102935
0.00924384
0.0171678
0.0840765
0.0827024
0.0814117
0.0802811
0.0794124
0.0788544
0.0785946
0.0785816
0.0787439
0.0790104
0.0792951
0.079501
0.0795266
0.0792716
0.0786641
0.0776817
0.0763557
0.0747691
0.0730328
0.0712516
0.0695027
0.0678623
0.0664953
0.0657811
0.0663831
0.0691456
0.0747761
0.0834334
0.0944817
0.106608
0.118253
0.128084
0.135189
0.138949
0.138835
0.134419
0.125384
0.111198
0.0918757
0.0708013
0.0563015
0.0571254
0.0717871
0.0872319
0.0949952
0.100247
0.111213
0.128066
0.147078
0.167314
0.192091
0.227001
0.272119
0.316434
0.342927
0.338889
0.30357
0.250964
0.201243
0.169069
0.157052
0.156365
0.154775
0.151646
0.150556
0.148654
0.142107
0.132426
0.124191
0.120237
0.118768
0.114825
0.105686
0.0936871
0.0832452
0.0765235
0.0726093
0.0693778
0.0652681
0.0603022
0.055502
0.0518685
0.049593
0.0478253
0.0457339
0.0441188
0.0452698
0.0506883
0.0592385
0.0677576
0.0730532
0.0731043
0.0670195
0.0549764
0.039134
0.0239134
0.0138396
0.010479
0.010952
0.0172662
0.0775351
0.0758138
0.0743199
0.0730843
0.0721446
0.0715134
0.0711675
0.0710574
0.0711167
0.0712712
0.0714443
0.0715628
0.0715645
0.0714007
0.0710563
0.0705455
0.0699036
0.0691664
0.0683449
0.0674074
0.066293
0.0649758
0.0635836
0.0625346
0.0626009
0.0647842
0.0699619
0.0784276
0.0896006
0.102125
0.114329
0.124743
0.132379
0.136636
0.137063
0.133308
0.125315
0.11303
0.0962465
0.0765228
0.0595458
0.0538811
0.0633513
0.0800276
0.0922743
0.0984433
0.105975
0.120044
0.139814
0.163609
0.191792
0.226983
0.267674
0.303993
0.323046
0.316374
0.284314
0.238064
0.193847
0.164908
0.155676
0.158014
0.157636
0.153545
0.151111
0.148663
0.141989
0.131864
0.122738
0.117885
0.116879
0.115734
0.110417
0.10079
0.0900589
0.0809201
0.0737485
0.0676275
0.06174
0.0558703
0.0503017
0.0457023
0.0426717
0.0410593
0.0402604
0.0405436
0.0433313
0.0494776
0.057649
0.0649296
0.068763
0.0679505
0.0621073
0.0511491
0.0364344
0.0219874
0.012465
0.0102035
0.01174
0.0164841
0.0674704
0.0658784
0.0646306
0.0637328
0.0631832
0.062964
0.0630358
0.0633421
0.0638176
0.0643969
0.0650207
0.065641
0.0662228
0.0667441
0.0671979
0.0675814
0.0678789
0.0680431
0.0679797
0.0675512
0.0666129
0.0650967
0.0631402
0.0612283
0.0602552
0.0613904
0.0656963
0.0736235
0.0846677
0.09744
0.11014
0.121138
0.129323
0.134074
0.135005
0.131836
0.124659
0.11384
0.0994044
0.0818416
0.0643947
0.0538403
0.0565499
0.0707994
0.0863691
0.0959408
0.102214
0.112053
0.128731
0.152241
0.181431
0.215368
0.250517
0.278445
0.290457
0.282151
0.255149
0.217897
0.182055
0.158665
0.153761
0.159586
0.160328
0.155217
0.151451
0.148431
0.141586
0.131011
0.121029
0.115188
0.113878
0.114334
0.112525
0.106367
0.0970662
0.0870723
0.0778691
0.0696816
0.062162
0.0548557
0.047673
0.0412661
0.0367455
0.0347077
0.0348567
0.0369343
0.0413618
0.0481981
0.055886
0.0618323
0.0641762
0.0625324
0.057027
0.047357
0.0339948
0.0203181
0.0111645
0.00938106
0.0113085
0.0147112
0.0576986
0.0566624
0.0561068
0.0560131
0.0563433
0.057043
0.0580441
0.0592704
0.0606467
0.0621063
0.0635955
0.0650753
0.0665182
0.0679017
0.0692004
0.0703748
0.0713546
0.0720251
0.0722243
0.0717568
0.0704407
0.0681963
0.0651818
0.0619416
0.0594792
0.0591247
0.0621361
0.0691474
0.079764
0.0925864
0.105687
0.11725
0.126003
0.131256
0.132668
0.130036
0.123527
0.11379
0.101292
0.0861692
0.0698361
0.0566899
0.0530143
0.0616946
0.0773121
0.0907642
0.0988624
0.105851
0.117213
0.13564
0.161374
0.19145
0.220332
0.240742
0.247507
0.239528
0.219365
0.192819
0.167052
0.150937
0.151833
0.16125
0.162744
0.156473
0.151454
0.147914
0.140864
0.1298
0.118932
0.112086
0.110117
0.111126
0.111733
0.109142
0.102806
0.094096
0.0845593
0.0750477
0.0658466
0.0566873
0.0474198
0.0387434
0.032212
0.0291778
0.0297917
0.0333837
0.0393329
0.0467874
0.053926
0.0585212
0.0594259
0.0570131
0.0518943
0.0436298
0.0318178
0.0189327
0.00992911
0.0081536
0.00987283
0.0122597
0.0493688
0.0495059
0.0502498
0.0515407
0.0532922
0.0554036
0.0577691
0.0602868
0.0628667
0.0654358
0.0679398
0.0703401
0.0726064
0.074704
0.0765884
0.0781942
0.0794203
0.0801209
0.0801057
0.0791564
0.0770734
0.073766
0.0693946
0.0645342
0.060268
0.0580718
0.0594067
0.0651229
0.0749816
0.0876133
0.10098
0.113065
0.122396
0.12817
0.130053
0.127922
0.121995
0.113059
0.102018
0.0891787
0.074898
0.0613903
0.0533114
0.0552781
0.0670117
0.0819676
0.0935279
0.100973
0.108301
0.119731
0.137205
0.159615
0.181338
0.195683
0.199597
0.194148
0.182007
0.166409
0.150851
0.142991
0.150442
0.163084
0.164669
0.157078
0.151001
0.147076
0.139796
0.128164
0.116331
0.108426
0.105645
0.106602
0.10853
0.108649
0.105477
0.0992384
0.0907934
0.0810432
0.0708328
0.0602108
0.0490744
0.0381634
0.029395
0.0248743
0.0253679
0.0300109
0.0372203
0.0451818
0.0517627
0.0551008
0.0547269
0.0516634
0.0469383
0.0400788
0.0299433
0.0179044
0.00880011
0.0068024
0.00803899
0.00965848
0.0448413
0.0467199
0.0492564
0.0523252
0.0557774
0.0594624
0.063241
0.0669952
0.0706333
0.0740894
0.0773209
0.080301
0.0830057
0.0853998
0.0874383
0.0890518
0.0901325
0.0905267
0.0900329
0.0884169
0.0854539
0.0810205
0.0752452
0.0686928
0.0624885
0.0582304
0.0575864
0.0616574
0.0704164
0.0825812
0.0960382
0.108572
0.118479
0.124797
0.127155
0.125501
0.120108
0.111803
0.101795
0.0908161
0.0788858
0.0666425
0.0567134
0.0531847
0.0586765
0.0710721
0.0845153
0.0946554
0.101637
0.108419
0.117737
0.13001
0.142956
0.152252
0.155328
0.15359
0.149003
0.142601
0.135958
0.136657
0.150229
0.164958
0.165735
0.156762
0.149991
0.145896
0.138355
0.126039
0.113128
0.104057
0.100339
0.100917
0.103437
0.105336
0.104773
0.101206
0.0946293
0.0856385
0.0754218
0.0642187
0.0519273
0.0392694
0.0283977
0.0220896
0.021862
0.0269446
0.0350101
0.0433276
0.0494155
0.0517285
0.0503797
0.0468761
0.0425387
0.0369495
0.0284762
0.017346
0.00790565
0.00559522
0.0063289
0.00734148
0.0449477
0.0488394
0.0532763
0.0580674
0.0630191
0.0679598
0.0727516
0.0772941
0.0815226
0.0854016
0.088917
0.0920639
0.0948276
0.0971843
0.0990976
0.100503
0.101295
0.101318
0.100362
0.0981709
0.0944789
0.0891041
0.0821072
0.0740001
0.0659065
0.0595157
0.0566966
0.0588293
0.0661583
0.0775582
0.0908933
0.103767
0.114229
0.121112