/*--------------------------------*- C++ -*----------------------------------*\
  =========                 |
  \\      /  F ield         | OpenFOAM: The Open Source CFD Toolbox
   \\    /   O peration     | Website:  https://openfoam.org
    \\  /    A nd           | Version:  10
     \\/     M anipulation  |
\*---------------------------------------------------------------------------*/
FoamFile
{
    format      ascii;
    class       volScalarField;
    location    "0.17";
    object      nut;
}
// * * * * * * * * * * * * * * * * * * * * * * * * * * * * * * * * * * * * * //

dimensions      [0 2 -1 0 0 0 0];

internalField   nonuniform List<scalar> 
6820
(
0
0
0
0
0
0
0
0
0
0
0
0
0
0
0
0
0
0
0
0
0
0
0
0
0
0
0
0
0
0
0
0
2.44695e-08
0
0
0
0
0
0
0
0
0
0
0
0
0
0
0
0
0
0
0
0
0
0
0
0
0
0
0
0
0
0
0
0
0
0
0
0
0
0
0
0
0
0
0
0
0
0
0
0
0
0
0
0
0
0
0
0
0
0
0
0
0
0
0
0
0
0
0
0
0
0
0
0
0
0
0
0
0
0
0
0
0
0
0
0
0
0
0
0
0
0
0
0
0
0
0
0
0
0
0
1.54389e-05
0
0
0
0
0
0
0
0
0
0
0
0
0
0
0
0
0
0
0
0
0
0
0
0
0
0
0
0
0
0
0
0
6.05552e-06
4.28091e-05
3.33711e-05
1.90829e-05
8.41579e-06
2.2953e-06
0
0
0
0
0
0
0
0
0
0
0
0
0
0
0
0
0
0
0
0
0
0
0
0
0
0
0
0
1.04028e-05
1.92447e-05
2.46163e-05
2.36175e-05
2.14337e-05
1.94541e-05
1.73695e-05
1.52583e-05
1.32757e-05
1.14537e-05
9.79775e-06
8.31688e-06
7.01179e-06
5.87674e-06
4.90421e-06
4.08545e-06
3.41016e-06
2.86674e-06
2.4429e-06
2.1266e-06
1.90689e-06
1.77436e-06
1.72077e-06
1.73713e-06
1.80915e-06
1.90435e-06
1.95265e-06
1.81333e-06
1.34117e-06
5.3356e-07
0
0
0
4.5444e-06
6.11193e-06
1.36785e-05
1.65559e-05
1.65004e-05
1.57367e-05
1.44493e-05
1.28807e-05
1.12725e-05
9.70373e-06
8.20847e-06
6.8213e-06
5.565e-06
4.45012e-06
3.47989e-06
2.65201e-06
1.95981e-06
1.39381e-06
9.43318e-07
5.97729e-07
3.47242e-07
1.83061e-07
9.69747e-08
7.90248e-08
1.11801e-07
1.56518e-07
1.44699e-07
0
0
0
0
0
0
3.12388e-06
0
2.23348e-06
5.31187e-06
7.58941e-06
9.43268e-06
1.02817e-05
1.02365e-05
9.68079e-06
8.83699e-06
7.83305e-06
6.76964e-06
5.71721e-06
4.71983e-06
3.80512e-06
2.98904e-06
2.27815e-06
1.67219e-06
1.16655e-06
7.53791e-07
4.24071e-07
1.65227e-07
0
0
0
0
0
0
0
0
0
0
0
2.21623e-06
0
0
0
0
0
7.8028e-07
1.82424e-06
2.3527e-06
2.48695e-06
2.32813e-06
1.98069e-06
1.53072e-06
1.03902e-06
5.48219e-07
8.72271e-08
0
0
0
0
0
0
0
0
0
0
0
0
0
0
0
0
0
1.50378e-06
0
0
0
0
0
0
0
0
0
0
0
0
0
0
0
0
0
0
0
0
0
0
0
0
0
0
0
0
0
0
0
0
8.85725e-07
0
0
0
0
0
0
0
0
0
0
0
0
0
0
0
0
0
0
0
0
0
0
0
0
0
0
0
0
0
0
0
0
3.66953e-07
0
0
0
0
0
0
0
0
0
0
0
0
0
0
0
0
0
0
0
0
0
0
0
0
0
0
0
0
0
0
0
0
0
0
0
0
0
0
0
0
0
0
0
0
0
0
0
0
0
0
0
0
0
0
0
0
0
0
0
0
0
0
0
0
0
0
0
0
0
0
0
0
0
0
0
0
0
0
0
0
0
0
0
0
0
0
0
0
0
0
0
0
0
0
0
0
0
0
0
0
0
0
0
0
0
0
0
0
0
0
0
0
0
0
0
0
0
0
0
0
0
0
0
0
0
0
0
0
0
0
0
0
0
0
0
0
0
0
0
0
0
0
0
0
0
0
0
0
0
0
0
0
0
0
0
0
0
0
0
0
0
0
0
0
0
0
0
0
0
0
0
0
0
0
0
0
0
0
0
0
0
0
0
0
0
0
0
0
0
0
0
0
0
6.20747e-08
0
0
0
0
0
0
0
0
0
0
0
0
0
0
0
0
0
0
0
0
0
0
0
0
0
0
0
0
0
0
1.63342e-08
2.74745e-07
5.11218e-07
4.39988e-07
0
0
0
0
0
0
0
0
0
0
0
0
0
0
0
0
0
0
0
0
0
0
0
0
0
0
0
0
0
2.32743e-07
4.95902e-07
7.47419e-07
7.03147e-07
0
0
0
0
0
0
0
0
0
0
0
0
0
0
0
0
0
0
0
0
0
0
0
0
0
0
0
1.09674e-07
3.47764e-07
6.05412e-07
8.83085e-07
1.14718e-06
1.11923e-06
1.82134e-07
0
0
0
0
0
0
0
0
0
0
0
0
0
0
0
0
0
0
0
0
0
0
0
0
0
1.46566e-07
3.75699e-07
6.25385e-07
8.92359e-07
1.17156e-06
1.42812e-06
1.3994e-06
5.19409e-07
0
0
0
0
0
0
0
0
0
0
0
0
0
0
0
0
0
0
0
0
0
0
0
0
1.7914e-07
4.01569e-07
6.41992e-07
8.95746e-07
1.15577e-06
1.41496e-06
1.64121e-06
1.6015e-06
8.05865e-07
0
0
0
0
0
0
0
0
0
0
0
0
0
0
0
0
0
0
0
0
0
0
1.13865e-07
3.15413e-07
5.31932e-07
7.59513e-07
9.92075e-07
1.22266e-06
1.44387e-06
1.64915e-06
1.81221e-06
1.74291e-06
1.04223e-06
0
0
0
0
0
0
0
0
0
0
0
0
0
0
0
0
0
0
0
0
0
2.33745e-08
2.09212e-07
4.04629e-07
6.05104e-07
8.04834e-07
9.9757e-07
1.17721e-06
1.33789e-06
1.4746e-06
1.56852e-06
1.47945e-06
9.29736e-07
0
0
0
0
0
0
0
0
0
0
0
0
0
0
0
0
0
0
0
1.36303e-07
3.27121e-07
5.19549e-07
7.09142e-07
8.90568e-07
1.05834e-06
1.20738e-06
1.33313e-06
1.43162e-06
1.49924e-06
1.53278e-06
1.52203e-06
1.38949e-06
9.64226e-07
0
0
0
0
0
0
0
0
0
0
0
0
0
0
0
0
0
0
0
0
1.06221e-07
2.47702e-07
3.76457e-07
4.8903e-07
5.8205e-07
6.52388e-07
6.97183e-07
7.13785e-07
6.99882e-07
6.53351e-07
5.72663e-07
4.41127e-07
2.42674e-07
0
0
0
0
0
0
0
0
0
0
0
0
0
0
0
1.2714e-08
2.23271e-07
4.10887e-07
5.75746e-07
7.16863e-07
8.327e-07
9.2157e-07
9.81881e-07
1.01223e-06
1.01138e-06
9.78183e-07
9.11548e-07
8.10267e-07
6.73239e-07
4.98884e-07
2.94558e-07
1.1943e-07
5.92007e-08
0
0
0
0
0
0
0
0
0
0
0
0
0
0
0
0
0
0
0
0
0
0
0
0
0
0
0
0
0
0
0
0
0
0
0
0
0
0
0
0
0
0
0
0
6.15211e-08
2.16865e-07
2.78504e-07
2.76705e-07
2.36672e-07
1.76294e-07
1.06302e-07
3.14731e-08
0
0
0
0
0
0
0
0
0
0
0
0
0
0
0
0
0
0
0
0
0
0
0
0
0
0
0
0
0
0
0
0
0
0
0
0
0
0
0
0
0
0
0
0
0
0
0
0
0
0
0
3.26741e-07
2.56153e-06
4.22492e-06
5.07843e-06
5.00613e-06
4.08528e-06
2.5306e-06
6.18998e-07
0
0
0
0
0
0
0
0
0
0
0
0
0
0
0
0
0
0
0
0
0
0
0
0
0
4.76106e-06
8.78736e-06
1.08101e-05
1.08482e-05
9.02009e-06
5.60801e-06
1.09058e-06
0
0
0
0
0
0
0
0
0
0
0
0
0
0
0
0
0
0
0
0
0
0
0
0
4.74026e-06
1.55746e-05
2.27983e-05
2.66643e-05
2.81199e-05
2.72984e-05
2.39441e-05
1.79196e-05
9.70345e-06
5.72519e-07
0
0
0
0
0
0
0
0
0
0
0
0
0
0
0
0
0
0
0
0
0
0
2.8381e-06
2.6321e-05
3.98881e-05
4.61888e-05
5.00098e-05
5.27158e-05
5.37035e-05
5.11606e-05
4.22845e-05
2.52216e-05
3.2905e-06
0
0
0
0
0
0
0
0
0
0
0
0
0
0
0
0
0
0
0
0
0
6.84522e-06
5.45243e-05
6.51705e-05
5.12886e-05
3.53013e-05
2.33327e-05
1.55011e-05
1.0592e-05
7.61678e-06
5.87459e-06
4.87246e-06
4.29847e-06
3.96775e-06
3.77528e-06
3.66266e-06
3.59849e-06
3.56602e-06
3.55594e-06
3.56243e-06
3.58112e-06
3.60824e-06
3.64046e-06
3.67511e-06
3.7103e-06
3.74495e-06
3.77844e-06
3.81039e-06
3.84023e-06
3.86694e-06
3.89008e-06
3.90718e-06
3.89622e-06
3.78168e-06
0
0
0
0
0
0
0
0
0
0
0
0
0
0
0
0
0
0
0
0
0
0
0
0
0
0
0
0
0
0
1.41638e-07
8.07333e-07
1.93929e-06
4.10094e-08
0
0
0
0
0
0
0
0
0
0
0
0
0
0
0
0
0
0
0
0
0
0
0
0
0
0
0
0
0
0
0
0
2.21084e-08
0
0
0
0
0
0
0
0
0
0
0
0
0
0
0
0
0
0
0
0
0
0
0
0
0
0
0
0
0
0
0
0
1.03674e-08
0
0
0
0
0
0
0
0
0
0
0
0
0
0
0
0
0
0
0
0
0
0
0
0
0
0
0
0
0
0
0
0
1.22947e-06
1.55948e-06
1.42117e-07
0
0
0
0
0
0
0
0
0
0
0
0
0
2.55042e-05
5.0098e-05
3.64984e-05
1.33717e-05
1.01316e-05
1.18982e-05
1.58405e-05
1.81687e-05
1.84207e-05
1.7444e-05
1.60471e-05
1.46058e-05
1.32868e-05
1.21496e-05
1.11963e-05
1.04028e-05
9.64533e-06
8.85353e-06
8.4145e-06
7.66355e-06
1.82893e-06
0
0
0
0
0
8.65498e-06
9.21735e-06
1.09655e-05
1.22955e-05
1.03804e-05
1.24928e-06
0
0
0
0
0
0
0
0
0
1.76924e-05
2.76627e-05
5.22975e-06
0
0
0
0
0
0
0
0
0
0
0
0
0
0
0
0
0
1.85317e-05
5.92481e-05
6.73779e-05
5.4779e-05
4.14582e-05
3.11275e-05
2.04923e-05
1.08982e-05
3.08248e-06
0
0
0
0
9.12111e-06
1.60786e-05
1.11625e-05
5.51299e-07
0
0
0
0
0
0
1.04151e-06
8.32891e-07
2.15471e-07
0
0
0
0
0
0
0
0
0
0
0
0
3.90609e-06
2.08147e-05
3.22445e-05
1.61715e-05
9.31425e-06
1.01123e-05
1.50268e-05
1.90173e-05
2.07117e-05
2.05103e-05
1.93011e-05
1.77231e-05
1.61468e-05
1.47271e-05
1.34869e-05
1.24006e-05
1.14442e-05
1.05242e-05
9.5167e-06
8.7552e-06
8.22736e-06
3.64618e-06
0
0
0
0
0
8.84293e-06
9.02225e-06
9.66645e-06
1.03657e-05
8.37248e-06
0
0
0
0
0
0
0
0
0
0
2.08309e-06
1.67362e-05
8.76481e-06
0
0
0
0
0
0
0
0
0
0
0
0
0
0
0
0
1.87708e-06
3.25257e-05
6.3379e-05
6.54909e-05
5.35745e-05
4.22326e-05
3.25903e-05
2.23696e-05
1.34491e-05
5.79847e-06
0
0
0
0
1.28508e-05
1.82758e-05
1.31304e-05
2.57914e-06
0
0
0
0
0
0
0
0
1.42449e-07
3.30417e-07
2.42885e-07
0
0
0
0
0
0
0
0
0
0
4.09811e-06
1.44818e-05
1.38378e-05
7.29733e-06
7.59987e-06
1.27469e-05
1.77582e-05
2.08234e-05
2.17521e-05
2.11767e-05
1.98135e-05
1.82195e-05
1.66928e-05
1.53165e-05
1.40741e-05
1.29311e-05
1.18719e-05
1.08413e-05
9.69936e-06
8.66402e-06
8.13154e-06
4.92868e-06
0
0
0
0
0
7.54581e-06
8.36291e-06
7.84212e-06
7.80394e-06
5.88848e-06
0
0
0
0
0
0
0
0
0
0
0
4.92029e-06
7.51868e-06
0
0
0
0
0
0
0
0
0
0
0
0
0
0
0
0
4.26519e-06
3.86151e-05
6.14696e-05
6.06892e-05
5.07325e-05
4.18648e-05
3.31935e-05
2.40144e-05
1.59528e-05
8.61162e-06
2.13314e-06
0
0
1.35721e-06
1.56484e-05
1.99276e-05
1.49145e-05
4.83859e-06
0
0
0
0
0
0
0
0
1.45961e-07
5.06817e-07
2.88621e-07
0
0
0
0
0
0
0
0
0
0
1.3648e-06
5.25397e-06
3.59584e-06
5.35654e-06
1.04314e-05
1.56473e-05
1.95849e-05
2.16145e-05
2.19232e-05
2.10798e-05
1.97049e-05
1.82323e-05
1.6846e-05
1.55664e-05
1.43589e-05
1.31924e-05
1.20593e-05
1.0937e-05
9.69788e-06
8.43559e-06
7.72778e-06
5.71335e-06
0
0
0
0
0
4.68854e-06
7.53017e-06
5.94982e-06
5.13957e-06
3.42538e-06
0
0
0
0
0
0
0
0
0
0
0
0
3.09062e-06
0
0
0
0
0
0
0
0
0
0
0
0
0
0
0
0
5.90257e-06
3.93895e-05
5.63338e-05
5.47864e-05
4.75883e-05
4.11925e-05
3.35438e-05
2.56277e-05
1.83268e-05
1.13147e-05
5.15987e-06
5.85669e-07
0
6.09651e-06
1.79197e-05
2.14114e-05
1.67427e-05
7.29714e-06
0
0
0
0
0
2.44654e-06
0
0
4.0125e-06
1.14966e-05
0
0
0
0
0
0
0
0
0
0
0
3.29068e-07
1.2016e-06
4.30054e-06
8.66032e-06
1.34881e-05
1.77567e-05
2.05793e-05
2.1749e-05
2.15906e-05
2.06423e-05
1.93826e-05
1.80935e-05
1.68685e-05
1.5695e-05
1.45341e-05
1.33588e-05
1.21657e-05
1.09558e-05
9.63296e-06
8.19019e-06
7.19883e-06
5.97727e-06
0
0
0
0
0
0
6.4778e-06
4.20557e-06
2.60301e-06
1.12819e-06
0
0
0
0
0
0
0
0
0
0
0
0
0
0
0
0
0
0
0
0
0
0
0
0
0
0
0
0
0
6.82344e-06
3.6629e-05
4.96079e-05
4.89171e-05
4.50475e-05
4.06048e-05
3.40194e-05
2.72657e-05
2.05086e-05
1.38125e-05
8.06191e-06
4.13543e-06
3.69808e-06
1.01194e-05
1.9934e-05
2.29514e-05
1.87715e-05
1.00022e-05
0
0
0
0
0
5.61856e-06
0
0
0
1.65269e-07
0
0
0
0
0
0
0
0
0
0
0
1.18642e-06
3.65536e-06
7.19893e-06
1.14799e-05
1.56727e-05
1.88904e-05
2.07221e-05
2.12656e-05
2.08924e-05
2.00121e-05
1.89397e-05
1.78486e-05
1.67856e-05
1.5724e-05
1.4621e-05
1.34501e-05
1.221e-05
1.09174e-05
9.51646e-06
7.939e-06
6.62958e-06
5.76001e-06
9.25135e-07
0
0
0
0
0
4.82882e-06
2.64034e-06
2.63908e-07
0
0
0
0
0
0
0
0
0
0
0
0
0
0
0
0
0
0
0
0
0
0
0
0
0
0
0
0
0
0
6.88124e-06
3.18175e-05
4.2499e-05
4.39641e-05
4.33484e-05
4.00706e-05
3.45805e-05
2.86826e-05
2.23148e-05
1.59773e-05
1.07246e-05
7.47881e-06
7.69498e-06
1.36237e-05
2.18916e-05
2.46396e-05
2.10151e-05
1.29173e-05
3.18508e-06
0
0
0
0
8.91507e-06
0
0
0
0
0
0
0
0
0
0
0
0
0
0
0
2.25305e-06
5.52227e-06
9.40154e-06
1.33202e-05
1.66298e-05
1.89112e-05
2.0092e-05
2.03583e-05
1.99923e-05
1.92671e-05
1.83952e-05
1.74968e-05
1.65961e-05
1.56543e-05
1.46207e-05
1.34666e-05
1.21926e-05
1.08243e-05
9.34564e-06
7.67025e-06
6.06759e-06
5.17283e-06
2.11586e-06
0
0
0
0
0
1.92628e-06
1.17119e-06
0
0
0
0
0
0
0
0
0
0
0
0
0
0
0
0
0
0
0
0
0
0
0
0
0
0
0
0
0
0
0
6.11834e-06
2.62916e-05
3.61934e-05
4.06464e-05
4.21923e-05
3.95245e-05
3.49732e-05
2.96423e-05
2.36612e-05
1.77891e-05
1.31296e-05
1.05922e-05
1.13654e-05
1.68195e-05
2.39083e-05
2.64898e-05
2.34161e-05
1.59678e-05
6.63727e-06
0
0
0
0
1.23356e-05
0
0
0
0
0
0
0
0
0
0
0
0
0
0
0
3.27066e-06
6.9004e-06
1.05572e-05
1.38393e-05
1.64194e-05
1.81447e-05
1.90427e-05
1.92601e-05
1.89917e-05
1.8435e-05
1.77542e-05
1.70422e-05
1.63052e-05
1.54901e-05
1.45359e-05
1.341e-05
1.21144e-05
1.06798e-05
9.12272e-06
7.37306e-06
5.53764e-06
4.37073e-06
2.62243e-06
0
0
0
0
0
0
0
0
0
0
0
0
0
0
0
0
0
0
0
0
0
0
0
0
0
0
0
0
0
0
0
0
0
0
0
0
0
0
4.8077e-06
2.12896e-05
3.18883e-05
3.89857e-05
4.10709e-05
3.88246e-05
3.49028e-05
3.00446e-05
2.45749e-05
1.9301e-05
1.53123e-05
1.34909e-05
1.47586e-05
1.98214e-05
2.60012e-05
2.84541e-05
2.5886e-05
1.90603e-05
1.0084e-05
0
0
0
0
1.52013e-05
0
0
0
0
0
0
0
0
0
0
0
0
0
0
4.64629e-07
3.90152e-06
7.37237e-06
1.0625e-05
1.34164e-05
1.55765e-05
1.70384e-05
1.78378e-05
1.80853e-05
1.79306e-05
1.75337e-05
1.70315e-05
1.64972e-05
1.59212e-05
1.52361e-05
1.43692e-05
1.32818e-05
1.19764e-05
1.04865e-05
8.85123e-06
7.03743e-06
5.04012e-06
3.50111e-06
2.40498e-06
0
0
0
0
0
0
0
0
0
0
1.06686e-06
7.56869e-07
0
0
0
0
0
0
0
0
0
0
0
0
0
0
0
0
0
0
0
0
0
0
0
0
0
0
3.37214e-06
1.79925e-05
3.00884e-05
3.7997e-05
3.96987e-05
3.77107e-05
3.42268e-05
2.99293e-05
2.51333e-05
2.05762e-05
1.7313e-05
1.61966e-05
1.79067e-05
2.26577e-05
2.81131e-05
3.0436e-05
2.83114e-05
2.20846e-05
1.34632e-05
3.30556e-06
0
0
0
1.71753e-05
0
0
0
0
0
0
0
0
0
0
0
0
0
0
9.33874e-07
4.16167e-06
7.31241e-06
1.0192e-05
1.26323e-05
1.45251e-05
1.58357e-05
1.65979e-05
1.68976e-05
1.68531e-05
1.65982e-05
1.62526e-05
1.58781e-05
1.54537e-05
1.48978e-05
1.41239e-05
1.30842e-05
1.17801e-05
1.02467e-05
8.53675e-06
6.65909e-06
4.56072e-06
2.66823e-06
1.62852e-06
0
0
0
0
0
0
0
0
0
0
2.59209e-06
4.82103e-06
3.53399e-06
3.25447e-06
4.69203e-06
5.72275e-06
1.13674e-06
0
0
0
0
0
0
7.57457e-07
3.067e-06
1.85368e-06
5.63756e-07
0
0
0
0
0
0
0
0
0
0
0
2.18814e-06
1.68901e-05
2.97121e-05
3.67551e-05
3.79382e-05
3.60526e-05
3.30148e-05
2.93995e-05
2.53991e-05
2.16457e-05
1.91467e-05
1.8715e-05
2.08143e-05
2.53021e-05
3.0146e-05
3.23155e-05
3.05732e-05
2.49397e-05
1.6717e-05
6.58785e-06
0
0
0
1.78988e-05
0
0
0
0
0
0
0
0
0
0
0
0
0
0
1.36394e-06
4.2713e-06
7.06554e-06
9.59748e-06
1.17484e-05
1.34451e-05
1.46628e-05
1.54209e-05
1.57767e-05
1.58217e-05
1.5674e-05
1.54479e-05
1.52038e-05
1.49135e-05
1.44813e-05
1.38035e-05
1.28197e-05
1.1527e-05
9.96198e-06
8.18452e-06
6.23884e-06
4.07853e-06
1.91841e-06
5.64843e-07
0
0
0
0
0
0
0
0
0
0
2.76876e-06
9.01177e-06
9.34006e-06
9.41965e-06
1.09979e-05
1.07475e-05
2.53811e-06
0
0
0
0
0
0
2.91589e-06
7.49771e-06
6.61322e-06
4.61549e-06
2.60483e-06
8.08632e-08
0
0
0
0
0
0
0
0
0
1.40065e-06
1.70347e-05
2.92678e-05
3.51186e-05
3.58124e-05
3.4017e-05
3.14432e-05
2.85389e-05
2.53864e-05
2.24994e-05
2.08016e-05
2.1033e-05
2.3463e-05
2.76994e-05
3.19891e-05
3.39705e-05
3.25567e-05
2.75297e-05
1.97787e-05
9.7739e-06
1.51355e-06
0
0
1.73867e-05
0
0
0
0
0
0
0
0
0
0
0
0
0
0
1.7205e-06
4.28007e-06
6.7379e-06
8.98093e-06
1.09188e-05
1.24892e-05
1.36586e-05
1.44229e-05
1.48131e-05
1.49036e-05
1.48087e-05
1.46501e-05
1.44954e-05
1.43138e-05
1.39942e-05
1.34123e-05
1.2491e-05
1.12195e-05
9.63431e-06
7.79945e-06
5.7828e-06
3.57675e-06
1.25178e-06
0
0
0
0
0
0
0
0
0
0
0
9.9006e-07
1.19018e-05
1.61385e-05
1.70719e-05
1.78336e-05
1.49838e-05
2.29678e-06
0
0
0
0
0
0
5.42893e-06
1.19285e-05
1.15547e-05
8.96571e-06
6.00992e-06
2.54442e-06
0
0
0
0
0
0
0
0
0
1.25911e-06
1.73169e-05
2.85264e-05
3.33953e-05
3.36926e-05
3.19243e-05
2.96744e-05
2.7385e-05
2.50743e-05
2.31061e-05
2.22531e-05
2.3128e-05
2.58235e-05
2.97893e-05
3.35418e-05
3.52937e-05
3.41616e-05
2.97649e-05
2.25795e-05
1.28344e-05
4.08837e-06
0
6.22197e-07
1.5795e-05
0
0
0
0
0
0
0
0
0
0
0
0
0
0
2.04126e-06
4.30074e-06
6.49228e-06
8.5254e-06
1.03206e-05
1.18109e-05
1.29453e-05
1.36968e-05
1.40775e-05
1.41539e-05
1.40464e-05
1.38928e-05
1.37766e-05
1.36696e-05
1.34454e-05
1.29557e-05
1.21014e-05
1.08601e-05
9.26576e-06
7.38542e-06
5.2997e-06
3.04835e-06
6.42711e-07
0
0
0
0
0
0
0
0
0
0
0
0
1.12723e-05
2.19783e-05
2.63119e-05
2.66287e-05
2.01007e-05
1.26001e-06
0
0
0
0
0
0
8.61414e-06
1.64457e-05
1.65826e-05
1.35349e-05
9.67918e-06
5.24435e-06
0
0
0
0
0
0
0
0
0
1.62669e-06
1.76711e-05
2.8078e-05
3.22096e-05
3.20563e-05
3.00529e-05
2.78335e-05
2.59658e-05
2.44462e-05
2.34408e-05
2.34783e-05
2.4976e-05
2.78665e-05
3.15213e-05
3.47265e-05
3.62013e-05
3.53025e-05
3.15569e-05
2.50391e-05
1.57087e-05
6.4982e-06
0
5.43353e-06
1.3395e-05
0
0
0
0
0
0
0
0
0
0
0
0
0
3.53477e-07
2.35704e-06
4.40949e-06
6.43018e-06
8.33635e-06
1.00459e-05
1.14803e-05
1.25721e-05
1.32788e-05
1.36019e-05
1.36059e-05
1.34212e-05
1.32073e-05
1.30723e-05
1.2998e-05
1.28456e-05
1.24398e-05
1.16551e-05
1.04519e-05
8.85902e-06
6.94576e-06
4.79844e-06
2.49639e-06
5.84578e-08
0
0
0
0
0
0
0
0
0
0
0
0
5.94276e-06
2.25063e-05
3.45531e-05
3.81652e-05
2.83532e-05
6.67418e-07
0
0
0
0
0
0
1.27303e-05
2.1149e-05
2.15991e-05
1.82104e-05
1.35442e-05
8.14528e-06
2.01506e-06
0
0
0
0
0
0
0
0
2.12695e-06
1.85232e-05
2.85339e-05
3.19836e-05
3.11638e-05
2.86001e-05
2.60653e-05
2.43573e-05
2.35262e-05
2.35013e-05
2.44608e-05
2.65543e-05
2.95673e-05
3.2861e-05
3.54938e-05
3.66382e-05
3.59146e-05
3.28237e-05
2.70706e-05
1.83146e-05
8.70155e-06
0
8.26775e-06
1.04823e-05
0
0
0
0
0
0
0
0
0
0
0
0
0
8.89857e-07
2.75877e-06
4.69363e-06
6.61746e-06
8.44648e-06
1.00929e-05
1.14699e-05
1.25007e-05
1.31344e-05
1.33659e-05
1.32576e-05
1.29471e-05
1.26163e-05
1.24051e-05
1.23168e-05
1.22068e-05
1.18723e-05
1.11568e-05
9.99864e-06
8.4174e-06
6.48365e-06
4.28633e-06
1.93104e-06
0
0
0
0
0
0
0
0
0
0
0
0
0
0
1.42232e-05
3.42688e-05
4.85187e-05
4.16652e-05
2.7429e-06
0
0
0
0
0
3.45977e-06
1.79291e-05
2.60804e-05
2.64965e-05
2.28519e-05
1.75052e-05
1.11871e-05
4.26844e-06
0
0
0
0
0
0
0
0
2.75031e-06
1.99864e-05
2.98636e-05
3.26182e-05
3.10199e-05
2.77133e-05
2.45748e-05
2.27164e-05
2.23945e-05
2.33104e-05
2.51884e-05
2.78377e-05
3.09054e-05
3.37928e-05
3.5829e-05
3.65908e-05
3.5971e-05
3.35072e-05
2.85939e-05
2.05592e-05
1.06469e-05
0
9.27317e-06
7.38472e-06
0
0
0
0
0
0
0
0
0
0
0
0
0
1.44094e-06
3.24516e-06
5.11748e-06
6.98112e-06
8.75125e-06
1.03382e-05
1.16524e-05
1.26143e-05
1.31678e-05
1.33013e-05
1.30706e-05
1.26137e-05
1.21293e-05
1.17932e-05
1.16436e-05
1.15421e-05
1.12619e-05
1.06123e-05
9.50456e-06
7.94481e-06
6.00269e-06
3.76901e-06
1.36489e-06
0
0
0
0
0
0
0
0
0
0
0
0
0
0
0
1.86356e-05
4.38638e-05
5.53187e-05
1.08801e-05
0
0
0
0
0
1.0768e-05
2.41568e-05
3.11466e-05
3.11331e-05
2.72947e-05
2.14334e-05
1.42845e-05
6.61452e-06
0
0
0
0
0
0
0
0
3.56372e-06
2.18232e-05
3.16345e-05
3.37476e-05
3.14628e-05
2.74582e-05
2.35865e-05
2.12714e-05
2.11872e-05
2.29144e-05
2.56494e-05
2.87973e-05
3.18648e-05
3.43237e-05
3.5763e-05
3.61096e-05
3.5516e-05
3.36082e-05
2.95608e-05
2.23618e-05
1.2307e-05
0
9.11146e-06
4.45822e-06
0
0
0
0
0
0
0
0
0
0
0
0
4.26606e-07
2.05369e-06
3.80454e-06
5.61609e-06
7.41391e-06
9.11578e-06
1.06344e-05
1.18823e-05
1.2779e-05
1.32645e-05
1.3318e-05
1.2983e-05
1.23887e-05
1.17403e-05
1.12472e-05
1.09938e-05
1.08649e-05
1.06181e-05
1.00283e-05
8.97479e-06
7.44584e-06
5.50716e-06
3.25136e-06
8.09346e-07
0
0
0
0
0
0
0
0
0
0
0
0
0
0
0
0
1.13623e-05
4.10206e-05
2.52895e-05
0
0
0
0
6.83801e-06
1.99079e-05
3.10053e-05
3.60553e-05
3.53096e-05
3.13543e-05
2.51733e-05
1.73264e-05
8.98281e-06
7.19092e-07
0
0
0
0
0
0
0
4.56585e-06
2.37999e-05
3.34494e-05
3.49805e-05
3.22178e-05
2.7751e-05
2.324e-05
2.02711e-05
2.00841e-05
2.23797e-05
2.58352e-05
2.94037e-05
3.24388e-05
3.44911e-05
3.53854e-05
3.53323e-05
3.4698e-05
3.32238e-05
2.9981e-05
2.36724e-05
1.37014e-05
0
8.45185e-06
1.95566e-06
0
0
0
0
0
0
0
0
0
0
0
0
1.08403e-06
2.65746e-06
4.34067e-06
6.07452e-06
7.7902e-06
9.41134e-06
1.08561e-05
1.20407e-05
1.28856e-05
1.33263e-05
1.33313e-05
1.29277e-05
1.2227e-05
1.14295e-05
1.07681e-05
1.0379e-05
1.01879e-05
9.95133e-06
9.41224e-06
8.41512e-06
6.9256e-06
5.00189e-06
2.73815e-06
2.72884e-07
0
0
0
0
0
0
0
0
0
0
0
0
0
0
0
0
0
0
0
0
0
1.59097e-07
1.0257e-05
1.99442e-05
2.98705e-05
3.75673e-05
4.02978e-05
3.87634e-05
3.4833e-05
2.8548e-05
2.01793e-05
1.12858e-05
2.72772e-06
0
0
0
0
0
0
0
5.71202e-06
2.57692e-05
3.49963e-05
3.59456e-05
3.29417e-05
2.83501e-05
2.34936e-05
1.98865e-05
1.92728e-05
2.17878e-05
2.5747e-05
2.96385e-05
3.264e-05
3.43692e-05
3.48474e-05
3.44849e-05
3.37782e-05
3.2569e-05
2.99493e-05
2.44842e-05
1.48744e-05
0
7.55081e-06
5.81376e-08
0
0
0
0
0
0
0
0
0
0
0
4.0405e-07
1.75185e-06
3.23869e-06
4.8221e-06
6.44931e-06
8.05909e-06
9.58263e-06
1.09451e-05
1.20677e-05
1.28723e-05
1.32903e-05
1.32789e-05
1.28465e-05
1.20816e-05
1.11676e-05
1.03473e-05
9.80489e-06
9.52208e-06
9.2718e-06
8.77242e-06
7.8321e-06
6.39001e-06
4.49268e-06
2.2353e-06
0
0
0
0
0
0
0
0
0
0
0
0
0
0
0
0
0
0
0
0
0
2.6032e-05
2.83817e-05
2.92962e-05
3.28737e-05
3.82586e-05
4.24753e-05
4.32129e-05
4.11919e-05
3.75312e-05
3.13675e-05
2.26949e-05
1.34234e-05
4.67405e-06
0
0
0
0
0
0
0
6.93452e-06
2.75968e-05
3.59685e-05
3.62856e-05
3.32726e-05
2.89142e-05
2.41084e-05
2.0103e-05
1.88836e-05
2.12256e-05
2.54082e-05
2.95098e-05
3.251e-05
3.40652e-05
3.43382e-05
3.38379e-05
3.30749e-05
3.19382e-05
2.96437e-05
2.48282e-05
1.5816e-05
1.09311e-06
6.06735e-06
0
0
0
0
0
0
0
0
0
0
0
0
1.07848e-06
2.33731e-06
3.71794e-06
5.18346e-06
6.68859e-06
8.18023e-06
9.59792e-06
1.08746e-05
1.19375e-05
1.2711e-05
1.31236e-05
1.31224e-05
1.26971e-05
1.19105e-05
1.09214e-05
9.96805e-06
9.27094e-06
8.87513e-06
8.58889e-06
8.11709e-06
7.23266e-06
5.84509e-06
3.98522e-06
1.7481e-06
0
0
0
0
0
0
0
0
0
0
0
0
0
0
0
0
0
0
0
0
0
1.29324e-05
3.11309e-05
3.63007e-05
3.85509e-05
4.18784e-05
4.42815e-05
4.41552e-05
4.23085e-05
3.92579e-05
3.3438e-05
2.47253e-05
1.52912e-05
6.46403e-06
0
0
0
0
0
0
0
8.12345e-06
2.90893e-05
3.60059e-05
3.56537e-05
3.28679e-05
2.90799e-05
2.47288e-05
2.07021e-05
1.89271e-05
2.07759e-05
2.48808e-05
2.90715e-05
3.21278e-05
3.37052e-05
3.40323e-05
3.36003e-05
3.2817e-05
3.15604e-05
2.92302e-05
2.47063e-05
1.63246e-05
4.36607e-06
4.04862e-06
0
0
0
0
0
0
0
0
0
0
0
6.79364e-07
1.69718e-06
2.84525e-06
4.10046e-06
5.43195e-06
6.80168e-06
8.16446e-06
9.4682e-06
1.06539e-05
1.16554e-05
1.24009e-05
1.28175e-05
1.28439e-05
1.24527e-05
1.16812e-05
1.06592e-05
9.6084e-06
8.77023e-06
8.25102e-06
7.91056e-06
7.45454e-06
6.62442e-06
5.29809e-06
3.48705e-06
1.28412e-06
0
0
0
0
0
0
0
0
0
0
0
0
0
0
0
0
0
0
0
0
0
3.17583e-06
1.20383e-05
2.40791e-05
3.29705e-05
3.88922e-05
4.21476e-05
4.27314e-05
4.19121e-05
3.9837e-05
3.4575e-05
2.6149e-05
1.67962e-05
8.00181e-06
3.22494e-07
0
0
0
0
0
0
9.11383e-06
2.98913e-05
3.46583e-05
3.37382e-05
3.14572e-05
2.85465e-05
2.50096e-05
2.1369e-05
1.92953e-05
2.05146e-05
2.42806e-05
2.84389e-05
3.16114e-05
3.34027e-05
3.40076e-05
3.37878e-05
3.29762e-05
3.1416e-05
2.87037e-05
2.4021e-05
1.61493e-05
3.16042e-06
1.88572e-06
0
0
0
0
0
0
0
0
0
0
4.62941e-07
1.25788e-06
2.17811e-06
3.21152e-06
4.33926e-06
5.53622e-06
6.77088e-06
8.0054e-06
9.19558e-06
1.02903e-05
1.12306e-05
1.19492e-05
1.2374e-05
1.24379e-05
1.20991e-05
1.13714e-05
1.03548e-05
9.24627e-06
8.29228e-06
7.65069e-06
7.24316e-06
6.79212e-06
6.01404e-06
4.75463e-06
3.00316e-06
8.47683e-07
0
0
0
0
0
0
0
0
0
0
0
0
0
0
0
0
0
0
0
0
0
1.34589e-06
3.91948e-06
1.10341e-05
2.15267e-05
3.071e-05
3.64386e-05
3.89966e-05
3.99332e-05
3.91011e-05
3.4633e-05
2.69086e-05
1.78787e-05
9.21696e-06
1.90724e-06
0
0
0
0
0
0
9.72417e-06
2.92486e-05
3.14798e-05
3.04092e-05
2.89687e-05
2.71893e-05
2.47422e-05
2.18453e-05
1.9838e-05
2.0517e-05
2.37885e-05
2.77985e-05
3.11044e-05
3.32122e-05
3.41812e-05
3.41684e-05
3.32296e-05
3.1187e-05
2.78046e-05
2.25062e-05
1.48598e-05
0
0
0
0
0
0
0
0
0
0
0
4.05561e-07
1.00278e-06
1.71216e-06
2.52958e-06
3.4456e-06
4.44553e-06
5.50917e-06
6.61074e-06
7.71895e-06
8.79679e-06
9.80061e-06
1.06785e-05
1.13688e-05
1.18015e-05
1.19065e-05
1.16311e-05
1.09688e-05
9.99058e-06
8.86417e-06
7.82717e-06
7.0743e-06
6.59274e-06
6.13766e-06
5.40983e-06
4.22357e-06
2.54364e-06
4.50152e-07
0
0
0
0
0
0
0
0
0
0
0
0
0
0
0
0
0
0
0
0
8.94468e-08
1.2463e-06
1.44796e-06
4.09647e-06
1.15046e-05
2.09946e-05
2.8645e-05
3.34572e-05
3.64055e-05
3.68823e-05
3.35777e-05
2.70455e-05
1.85322e-05
1.00991e-05
3.22263e-06
0
0
0
0
0
0
9.86909e-06
2.59917e-05
2.65116e-05
2.60111e-05
2.56967e-05
2.51675e-05
2.39403e-05
2.20248e-05
2.04424e-05
2.08474e-05
2.36149e-05
2.73664e-05
3.07279e-05
3.30878e-05
3.43072e-05
3.43295e-05
3.30807e-05
3.03842e-05
2.61044e-05
1.98009e-05
1.1775e-05
0
0
0
1.46506e-07
0
0
0
0
0
8.07965e-08
4.19775e-07
8.51052e-07
1.37826e-06
2.00211e-06
2.71968e-06
3.52399e-06
4.40357e-06
5.34221e-06
6.31902e-06
7.30839e-06
8.27964e-06
9.19594e-06
1.00122e-05
1.0673e-05
1.11121e-05
1.1259e-05
1.10535e-05
1.04725e-05
9.56038e-06
8.45331e-06
7.36907e-06
6.52271e-06
5.96393e-06
5.49547e-06
4.81431e-06
3.70575e-06
2.10842e-06
9.15792e-08
0
0
0
0
0
0
0
0
0
0
0
0
0
0
0
0
0
0
0
0
7.15477e-07
1.49754e-06
8.89104e-07
1.14566e-06
5.14925e-06
1.26746e-05
2.05171e-05
2.67972e-05
3.13358e-05
3.30759e-05
3.16124e-05
2.66973e-05
1.88033e-05
1.07073e-05
4.32408e-06
0
0
0
0
0
0
7.9167e-06
2.01817e-05
2.07892e-05
2.13822e-05
2.22188e-05
2.28419e-05
2.27761e-05
2.1921e-05
2.10316e-05
2.14974e-05
2.38862e-05
2.72852e-05
3.05064e-05
3.28607e-05
3.40266e-05
3.37827e-05
3.19813e-05
2.84452e-05
2.30574e-05
1.53919e-05
5.59021e-06
0
0
0
2.85169e-07
0
0
0
0
1.64096e-07
3.98656e-07
7.05152e-07
1.08899e-06
1.55367e-06
2.10047e-06
2.72792e-06
3.43119e-06
4.20162e-06
5.02665e-06
5.88972e-06
6.7702e-06
7.64304e-06
8.47756e-06
9.23531e-06
9.86728e-06
1.03126e-05
1.05024e-05
1.03726e-05
9.88644e-06
9.06476e-06
8.01157e-06
6.91691e-06
5.99986e-06
5.36434e-06
4.87365e-06
4.23622e-06
3.21241e-06
1.71293e-06
0
0
0
0
0
0
0
0
0
0
0
0
0
0
0
0
0
0
0
0
0
1.00591e-06
1.70724e-06
1.05092e-06
2.87212e-07
1.89122e-06
6.74903e-06
1.30988e-05
1.93409e-05
2.45881e-05
2.79629e-05
2.92426e-05
2.59994e-05
1.87232e-05
1.10774e-05
5.22626e-06
1.40678e-06
0
0
0
0
0
0
1.41551e-05
1.55192e-05
1.70417e-05
1.8765e-05
2.03148e-05
2.12631e-05
2.14502e-05
2.14175e-05
2.22441e-05
2.4454e-05
2.74434e-05
3.02559e-05
3.22134e-05
3.29e-05
3.20072e-05
2.93523e-05
2.47337e-05
1.8065e-05
8.92647e-06
0
0
0
0
4.99547e-07
2.04807e-07
1.61726e-07
1.97635e-07
2.81124e-07
4.17445e-07
6.11461e-07
8.68314e-07
1.19274e-06
1.58794e-06
2.05533e-06
2.59414e-06
3.20088e-06
3.86903e-06
4.58883e-06
5.34713e-06
6.12735e-06
6.90906e-06
7.66702e-06
8.36891e-06
8.97236e-06
9.42261e-06
9.65452e-06
9.6024e-06
9.21979e-06
8.50665e-06
7.53601e-06
6.46504e-06
5.50191e-06
4.79114e-06
4.26569e-06
3.6641e-06
2.72931e-06
1.3432e-06
0
0
0
0
0
0
0
0
0
0
0
0
0
0
0
0
0
0
0
8.68129e-08
3.39303e-07
7.85462e-07
1.45961e-06
1.40213e-06
6.57e-07
8.04309e-07
2.77228e-06
6.0556e-06
1.06561e-05
1.64567e-05
2.26969e-05
2.6971e-05
2.48667e-05
1.81282e-05
1.10274e-05
5.73501e-06
2.46363e-06
6.04145e-07
0
0
0
0
0
8.16868e-06
1.04439e-05
1.24261e-05
1.47196e-05
1.70206e-05
1.89112e-05
2.01645e-05
2.11198e-05
2.25382e-05
2.47671e-05
2.73372e-05
2.9494e-05
3.06559e-05
3.04286e-05
2.85136e-05
2.47451e-05
1.89803e-05
1.13884e-05
1.96843e-06
0
0
0
0
7.73119e-08
0
0
2.70679e-08
1.22907e-07
2.62907e-07
4.49942e-07
6.87771e-07
9.80946e-07
1.33284e-06
1.74538e-06
2.21889e-06
2.7515e-06
3.33887e-06
3.97389e-06
4.64659e-06
5.34402e-06
6.04998e-06
6.74412e-06
7.39986e-06
7.9813e-06
8.44028e-06
8.71672e-06
8.7458e-06
8.47443e-06
7.88538e-06
7.02308e-06
6.00961e-06
5.03022e-06
4.25307e-06
3.68378e-06
3.11304e-06
2.27802e-06
1.0305e-06
0
0
0
0
0
0
0
0
0
0
0
0
0
0
0
0
0
0
3.28011e-06
4.72525e-06
2.99254e-06
4.43319e-07
3.52223e-07
1.82919e-06
2.13284e-06
7.65021e-07
0
0
9.66021e-07
8.96145e-06
1.87312e-05
2.46551e-05
2.29395e-05
1.6916e-05
1.06793e-05
5.67723e-06
2.44392e-06
8.80205e-07
1.84288e-07
0
0
0
0
1.33187e-06
3.85728e-06
6.2913e-06
8.95458e-06
1.19335e-05
1.49135e-05
1.74645e-05
1.96111e-05
2.17851e-05
2.41426e-05
2.62772e-05
2.76111e-05
2.77216e-05
2.63503e-05
2.33313e-05
1.86394e-05
1.23792e-05
5.07777e-06
0
0
0
8.88136e-06
2.45894e-05
1.73234e-08
4.56915e-09
1.33597e-08
3.47768e-08
8.59658e-08
1.79817e-07
3.17785e-07
5.02388e-07
7.37743e-07
1.02678e-06
1.37116e-06
1.77137e-06
2.22629e-06
2.73286e-06
3.2857e-06
3.87706e-06
4.49671e-06
5.13164e-06
5.76537e-06
6.3761e-06
6.93368e-06
7.39637e-06
7.70992e-06
7.81246e-06
7.64768e-06
7.1856e-06
6.44616e-06
5.51719e-06
4.55262e-06
3.7242e-06
3.1021e-06
2.55069e-06
1.82084e-06
7.36729e-07
0
0
0
0
0
0
0
0
0
0
0
0
0
0
0
0
0
4.74847e-07
6.1887e-06
1.04904e-05
1.05678e-05
4.31465e-06
0
2.43465e-06
3.64975e-06
0
0
0
0
4.47809e-06
1.59552e-05
2.1772e-05
2.11426e-05
1.62391e-05
7.61826e-06
2.4002e-06
6.36014e-07
1.50561e-07
3.42907e-08
0
0
0
0
0
5.06255e-07
1.46199e-06
2.94242e-06
5.47123e-06
9.05419e-06
1.30196e-05
1.67239e-05
1.99203e-05
2.24804e-05
2.41214e-05
2.4542e-05
2.35867e-05
2.12324e-05
1.75216e-05
1.26057e-05
6.75425e-06
5.83045e-07
0
0
0
9.88916e-06
2.05918e-05
0
0
0
0
0
0
0
0
2.60785e-08
3.05083e-07
6.29092e-07
9.99513e-07
1.41644e-06
1.87846e-06
2.38222e-06
2.92236e-06
3.49144e-06
4.07951e-06
4.67361e-06
5.25615e-06
5.8021e-06
6.27579e-06
6.62916e-06
6.80491e-06
6.74664e-06
6.41612e-06
5.814e-06
4.99761e-06
4.08658e-06
3.23933e-06
2.57204e-06
2.03627e-06
1.42154e-06
5.2872e-07
0
0
0
0
0
0
0
0
0
0
0
0
0
0
0
0
0
0
5.94882e-06
1.25044e-05
1.7953e-05
1.94674e-05
1.17975e-05
0
0
0
0
0
0
2.48046e-06
1.31345e-05
2.04455e-05
1.97135e-05
6.41471e-06
1.48086e-06
1.94837e-07
6.20412e-08
8.25458e-08
9.32695e-08
4.80777e-08
0
6.83386e-09
0
0
9.21877e-08
1.37223e-06
2.43429e-06
2.70056e-06
3.88485e-06
7.44036e-06
1.21899e-05
1.68648e-05
2.02374e-05
2.16535e-05
2.12267e-05
1.93507e-05
1.63615e-05
1.24749e-05
7.88331e-06
2.81608e-06
0
0
0
0
8.25568e-06
1.71887e-05
0
0
0
0
0
0
0
0
0
0
0
2.87257e-07
6.43703e-07
1.04428e-06
1.48649e-06
1.96608e-06
2.47707e-06
3.01134e-06
3.55823e-06
4.1031e-06
4.62481e-06
5.09286e-06
5.46549e-06
5.69163e-06
5.71859e-06
5.50574e-06
5.04156e-06
4.35947e-06
3.54613e-06
2.73294e-06
2.05161e-06
1.53198e-06
1.02887e-06
3.34518e-07
0
0
0
0
0
0
0
0
0
0
0
0
0
0
0
0
0
0
3.35638e-06
1.01564e-05
1.63371e-05
1.95369e-05
1.39284e-05
0
0
0
0
0
0
0
9.95437e-06
1.33797e-05
3.53462e-06
6.79399e-07
3.57205e-08
0
0
2.65011e-07
6.19365e-07
8.06446e-07
6.99632e-07
1.35946e-07
0
0
0
2.60118e-06
6.53854e-06
8.38701e-06
7.86572e-06
6.73254e-06
8.25281e-06
1.24775e-05
1.68853e-05
1.92672e-05
1.87799e-05
1.62731e-05
1.28108e-05
8.88486e-06
4.62624e-06
8.42138e-08
0
0
0
0
3.25559e-06
1.50902e-05
0
0
0
0
0
0
0
0
0
0
0
0
0
0
3.16075e-07
7.80957e-07
1.2747e-06
1.79134e-06
2.3225e-06
2.85616e-06
3.37472e-06
3.8526e-06
4.25441e-06
4.53616e-06
4.65076e-06
4.55847e-06
4.24047e-06
3.71239e-06
3.03354e-06
2.30648e-06
1.65722e-06
1.16778e-06
7.66743e-07
2.50891e-07
0
0
0
0
0
0
0
0
0
0
0
0
0
0
0
0
0
0
0
5.36995e-06
1.10795e-05
1.24062e-05
6.89102e-06
0
0
0
0
0
0
0
1.09917e-06
1.01197e-06
0
0
0
0
0
1.61572e-06
4.56846e-06
8.30281e-06
1.21671e-05
0
0
0
0
3.72361e-06
1.40733e-05
1.85881e-05
1.79039e-05
1.42695e-05
1.06389e-05
1.00548e-05
1.24885e-05
1.53337e-05
1.64318e-05
1.47498e-05
1.12082e-05
7.01863e-06
2.49528e-06
0
0
0
0
0
0
0
0
0
0
0
0
0
0
0
0
0
0
0
0
0
0
0
1.11726e-07
5.78242e-07
1.06245e-06
1.554e-06
2.03797e-06
2.4932e-06
2.89108e-06
3.19636e-06
3.37091e-06
3.38089e-06
3.20641e-06
2.85186e-06
2.35387e-06
1.78451e-06
1.24572e-06
8.33685e-07
5.33913e-07
1.6396e-07
0
0
0
0
0
0
0
0
0
0
0
0
0
0
0
0
0
0
0