/*--------------------------------*- C++ -*----------------------------------*\
  =========                 |
  \\      /  F ield         | OpenFOAM: The Open Source CFD Toolbox
   \\    /   O peration     | Website:  https://openfoam.org
    \\  /    A nd           | Version:  10
     \\/     M anipulation  |
\*---------------------------------------------------------------------------*/
FoamFile
{
    format      ascii;
    class       surfaceScalarField;
    location    "0.17";
    object      phi;
}
// * * * * * * * * * * * * * * * * * * * * * * * * * * * * * * * * * * * * * //

dimensions      [0 3 -1 0 0 0 0];

internalField   nonuniform List<scalar> 
13452
(
5.94557e-05
8.12716e-07
5.84814e-05
9.7436e-07
5.74699e-05
1.01144e-06
5.64343e-05
1.03565e-06
5.54031e-05
1.03117e-06
5.43884e-05
1.01468e-06
5.33945e-05
9.93948e-07
5.24242e-05
9.70328e-07
5.14795e-05
9.44643e-07
5.05621e-05
9.17427e-07
4.96732e-05
8.88888e-07
4.88141e-05
8.59138e-07
4.79858e-05
8.28289e-07
4.71893e-05
7.96476e-07
4.64254e-05
7.63871e-07
4.56947e-05
7.30689e-07
4.49976e-05
6.97183e-07
4.43339e-05
6.63626e-07
4.37036e-05
6.30304e-07
4.31061e-05
5.97508e-07
4.25406e-05
5.65523e-07
4.2006e-05
5.3464e-07
4.15008e-05
5.05166e-07
4.10234e-05
4.77446e-07
4.05714e-05
4.51904e-07
4.01423e-05
4.29104e-07
3.97325e-05
4.09847e-07
3.93371e-05
3.95391e-07
3.89495e-05
3.87569e-07
3.85591e-05
3.90466e-07
3.81504e-05
4.08693e-07
3.76882e-05
4.62188e-07
5.81467e-07
3.71067e-05
6.24893e-05
3.13778e-07
6.29648e-05
4.98802e-07
6.34129e-05
5.63328e-07
6.38244e-05
6.2416e-07
6.41921e-05
6.63516e-07
6.45159e-05
6.90893e-07
6.47975e-05
7.1233e-07
6.50395e-05
7.28341e-07
6.52447e-05
7.39427e-07
6.5416e-05
7.46159e-07
6.5556e-05
7.48832e-07
6.56675e-05
7.47647e-07
6.5753e-05
7.42802e-07
6.5815e-05
7.34513e-07
6.58558e-05
7.23031e-07
6.58778e-05
7.08654e-07
6.58833e-05
6.91731e-07
6.58743e-05
6.72653e-07
6.58527e-05
6.51846e-07
6.58205e-05
6.29764e-07
6.57791e-05
6.06884e-07
6.573e-05
5.83711e-07
6.56744e-05
5.60794e-07
6.56131e-05
5.38747e-07
6.55467e-05
5.18306e-07
6.54754e-05
5.00382e-07
6.5399e-05
4.86233e-07
6.53169e-05
4.77506e-07
6.52275e-05
4.77019e-07
6.51299e-05
4.88082e-07
6.502e-05
5.18521e-07
6.49073e-05
5.7492e-07
6.67636e-07
6.48211e-05
6.38357e-05
2.39517e-07
6.39145e-05
4.19947e-07
6.39886e-05
4.8929e-07
6.40668e-05
5.45914e-07
6.41482e-05
5.82085e-07
6.42347e-05
6.04416e-07
6.4327e-05
6.20035e-07
6.44249e-05
6.30439e-07
6.45279e-05
6.36434e-07
6.46352e-05
6.38813e-07
6.4746e-05
6.38031e-07
6.48593e-05
6.34368e-07
6.49741e-05
6.28054e-07
6.50893e-05
6.19299e-07
6.5204e-05
6.08316e-07
6.53173e-05
5.95338e-07
6.54284e-05
5.80626e-07
6.55366e-05
5.64474e-07
6.56412e-05
5.47207e-07
6.57418e-05
5.29183e-07
6.58379e-05
5.10793e-07
6.59292e-05
4.92474e-07
6.60152e-05
4.74718e-07
6.60959e-05
4.58105e-07
6.61708e-05
4.4334e-07
6.62399e-05
4.31308e-07
6.6303e-05
4.23185e-07
6.636e-05
4.20506e-07
6.64115e-05
4.25503e-07
6.64586e-05
4.4091e-07
6.65063e-05
4.709e-07
6.65617e-05
5.19497e-07
5.8475e-07
6.66446e-05
6.56417e-05
1.80881e-07
6.56972e-05
3.64462e-07
6.57391e-05
4.47415e-07
6.57758e-05
5.09192e-07
6.58082e-05
5.4969e-07
6.58381e-05
5.74456e-07
6.58671e-05
5.91043e-07
6.58959e-05
6.01664e-07
6.5925e-05
6.07302e-07
6.5955e-05
6.08899e-07
6.59859e-05
6.07056e-07
6.60181e-05
6.02162e-07
6.60517e-05
5.94536e-07
6.60865e-05
5.84466e-07
6.61226e-05
5.72229e-07
6.61598e-05
5.58111e-07
6.6198e-05
5.42418e-07
6.6237e-05
5.25477e-07
6.62766e-05
5.07643e-07
6.63165e-05
4.89298e-07
6.63564e-05
4.70858e-07
6.63961e-05
4.52784e-07
6.64352e-05
4.35597e-07
6.64734e-05
4.19901e-07
6.65103e-05
4.06427e-07
6.65456e-05
3.96067e-07
6.65788e-05
3.89953e-07
6.66098e-05
3.89516e-07
6.66388e-05
3.96532e-07
6.66664e-05
4.13301e-07
6.66958e-05
4.41509e-07
6.67303e-05
4.84932e-07
5.33759e-07
6.67813e-05
6.74916e-05
1.46052e-07
6.7536e-05
3.20084e-07
6.75759e-05
4.07532e-07
6.76151e-05
4.6999e-07
6.7652e-05
5.1272e-07
6.76867e-05
5.39824e-07
6.77198e-05
5.57963e-07
6.77518e-05
5.69655e-07
6.77831e-05
5.76008e-07
6.78139e-05
5.78029e-07
6.78446e-05
5.76412e-07
6.78751e-05
5.71611e-07
6.79057e-05
5.63996e-07
6.79362e-05
5.5389e-07
6.79669e-05
5.41602e-07
6.79975e-05
5.27439e-07
6.80282e-05
5.11724e-07
6.80589e-05
4.948e-07
6.80895e-05
4.77038e-07
6.812e-05
4.58837e-07
6.81502e-05
4.40634e-07
6.81801e-05
4.22913e-07
6.82094e-05
4.06222e-07
6.82382e-05
3.91192e-07
6.8266e-05
3.78568e-07
6.82928e-05
3.69243e-07
6.83185e-05
3.64289e-07
6.8343e-05
3.65003e-07
6.83667e-05
3.7283e-07
6.83905e-05
3.89509e-07
6.84161e-05
4.15897e-07
6.84469e-05
4.54122e-07
4.96996e-07
6.84837e-05
6.94128e-05
1.1725e-07
6.94549e-05
2.78024e-07
6.94937e-05
3.68766e-07
6.95307e-05
4.32917e-07
6.95656e-05
4.77837e-07
6.95985e-05
5.06934e-07
6.96303e-05
5.26157e-07
6.96616e-05
5.38403e-07
6.96926e-05
5.44996e-07
6.97236e-05
5.4702e-07
6.97547e-05
5.45259e-07
6.97861e-05
5.40234e-07
6.98177e-05
5.3236e-07
6.98496e-05
5.21996e-07
6.98818e-05
5.09472e-07
6.99141e-05
4.95115e-07
6.99466e-05
4.79259e-07
6.99791e-05
4.62254e-07
7.00117e-05
4.44479e-07
7.00442e-05
4.26338e-07
7.00765e-05
4.08277e-07
7.01086e-05
3.90788e-07
7.01404e-05
3.74423e-07
7.01718e-05
3.59815e-07
7.02027e-05
3.47696e-07
7.0233e-05
3.38917e-07
7.02628e-05
3.34462e-07
7.02924e-05
3.35464e-07
7.03221e-05
3.4309e-07
7.0353e-05
3.5866e-07
7.03862e-05
3.82664e-07
7.04239e-05
4.16455e-07
4.55605e-07
7.04653e-05
7.13861e-05
9.75052e-08
7.14193e-05
2.44803e-07
7.14527e-05
3.3536e-07
7.14867e-05
3.98907e-07
7.15206e-05
4.43974e-07
7.15537e-05
4.73824e-07
7.15863e-05
4.93549e-07
7.16186e-05
5.0608e-07
7.16508e-05
5.12815e-07
7.1683e-05
5.14841e-07
7.17153e-05
5.12973e-07
7.17477e-05
5.07775e-07
7.17804e-05
4.99692e-07
7.18133e-05
4.89108e-07
7.18464e-05
4.76375e-07
7.18797e-05
4.61829e-07
7.19131e-05
4.45815e-07
7.19467e-05
4.28689e-07
7.19803e-05
4.10832e-07
7.2014e-05
3.9265e-07
7.20477e-05
3.74589e-07
7.20813e-05
3.5714e-07
7.21149e-05
3.40848e-07
7.21484e-05
3.26327e-07
7.21818e-05
3.14272e-07
7.22153e-05
3.05474e-07
7.22489e-05
3.0081e-07
7.22831e-05
3.01249e-07
7.23185e-05
3.07739e-07
7.23559e-05
3.21278e-07
7.23963e-05
3.42268e-07
7.24411e-05
3.71652e-07
4.07011e-07
7.24897e-05
7.34206e-05
8.22139e-08
7.34502e-05
2.15195e-07
7.34824e-05
3.03121e-07
7.35158e-05
3.65524e-07
7.35492e-05
4.10573e-07
7.35818e-05
4.41175e-07
7.36139e-05
4.61492e-07
7.36456e-05
4.74339e-07
7.36773e-05
4.81196e-07
7.37089e-05
4.83179e-07
7.37408e-05
4.81142e-07
7.37728e-05
4.75698e-07
7.38052e-05
4.67325e-07
7.38379e-05
4.56433e-07
7.38709e-05
4.43389e-07
7.39041e-05
4.28544e-07
7.39377e-05
4.12247e-07
7.39715e-05
3.94855e-07
7.40056e-05
3.76747e-07
7.404e-05
3.58328e-07
7.40745e-05
3.40035e-07
7.41093e-05
3.22344e-07
7.41444e-05
3.05781e-07
7.41798e-05
2.9093e-07
7.42156e-05
2.78435e-07
7.42521e-05
2.69009e-07
7.42895e-05
2.63417e-07
7.43282e-05
2.62475e-07
7.4369e-05
2.66957e-07
7.44127e-05
2.77632e-07
7.446e-05
2.94892e-07
7.45122e-05
3.19476e-07
3.50221e-07
7.4569e-05
7.55141e-05
7.05519e-08
7.55389e-05
1.90418e-07
7.55674e-05
2.74645e-07
7.55977e-05
3.35233e-07
7.56289e-05
3.7935e-07
7.56603e-05
4.0977e-07
7.56918e-05
4.29997e-07
7.57234e-05
4.42689e-07
7.57553e-05
4.49359e-07
7.57874e-05
4.51106e-07
7.58197e-05
4.48786e-07
7.58524e-05
4.43028e-07
7.58854e-05
4.34325e-07
7.59187e-05
4.23095e-07
7.59524e-05
4.09714e-07
7.59864e-05
3.94535e-07
7.60207e-05
3.77907e-07
7.60554e-05
3.60184e-07
7.60904e-05
3.41735e-07
7.61258e-05
3.22953e-07
7.61616e-05
3.04257e-07
7.61978e-05
2.86103e-07
7.62346e-05
2.68984e-07
7.62721e-05
2.53441e-07
7.63105e-05
2.40057e-07
7.635e-05
2.29457e-07
7.63912e-05
2.22295e-07
7.64344e-05
2.19244e-07
7.64804e-05
2.20933e-07
7.65301e-05
2.27957e-07
7.65843e-05
2.40682e-07
7.66441e-05
2.59708e-07
2.8447e-07
7.67098e-05
7.76688e-05
6.12858e-08
7.76904e-05
1.68852e-07
7.77169e-05
2.48115e-07
7.77461e-05
3.06078e-07
7.77767e-05
3.48715e-07
7.78079e-05
3.78605e-07
7.78393e-05
3.98619e-07
7.78708e-05
4.11132e-07
7.79026e-05
4.17614e-07
7.79345e-05
4.19133e-07
7.79668e-05
4.16531e-07
7.79994e-05
4.10447e-07
7.80323e-05
4.01387e-07
7.80656e-05
3.89777e-07
7.80994e-05
3.75998e-07
7.81335e-05
3.60405e-07
7.8168e-05
3.43342e-07
7.82031e-05
3.25157e-07
7.82386e-05
3.06208e-07
7.82747e-05
2.86871e-07
7.83114e-05
2.67542e-07
7.83489e-05
2.48647e-07
7.83872e-05
2.30636e-07
7.84266e-05
2.13999e-07
7.84675e-05
1.99252e-07
7.851e-05
1.86924e-07
7.85547e-05
1.77562e-07
7.86023e-05
1.7171e-07
7.86533e-05
1.69866e-07
7.87088e-05
1.72474e-07
7.87696e-05
1.79838e-07
7.88369e-05
1.92426e-07
2.09908e-07
7.89115e-05
7.98859e-05
5.37424e-08
7.99045e-05
1.50176e-07
7.99286e-05
2.24054e-07
7.99556e-05
2.7907e-07
7.99844e-05
3.19898e-07
8.00142e-05
3.48837e-07
8.00446e-05
3.68256e-07
8.00754e-05
3.80267e-07
8.01067e-05
3.86289e-07
8.01385e-05
3.87361e-07
8.01707e-05
3.84307e-07
8.02034e-05
3.77765e-07
8.02366e-05
3.68239e-07
8.02702e-05
3.56156e-07
8.03043e-05
3.41892e-07
8.03389e-05
3.25795e-07
8.0374e-05
3.08198e-07
8.04098e-05
2.89437e-07
8.04461e-05
2.69851e-07
8.04832e-05
2.49792e-07
8.05211e-05
2.29628e-07
8.056e-05
2.09746e-07
8.06001e-05
1.9055e-07
8.06416e-05
1.72469e-07
8.06849e-05
1.55945e-07
8.07305e-05
1.4141e-07
8.07787e-05
1.29304e-07
8.08304e-05
1.20054e-07
8.08862e-05
1.14042e-07
8.09471e-05
1.1156e-07
8.10141e-05
1.12816e-07
8.10884e-05
1.18114e-07
1.27133e-07
8.11712e-05
8.21668e-05
4.74371e-08
8.21832e-05
1.33768e-07
8.22053e-05
2.01908e-07
8.22309e-05
2.53488e-07
8.22587e-05
2.92048e-07
8.2288e-05
3.19614e-07
8.23181e-05
3.38153e-07
8.23488e-05
3.49501e-07
8.23801e-05
3.54977e-07
8.24119e-05
3.55561e-07
8.24442e-05
3.52035e-07
8.2477e-05
3.45019e-07
8.25102e-05
3.35009e-07
8.25439e-05
3.22424e-07
8.25782e-05
3.07631e-07
8.2613e-05
2.90969e-07
8.26484e-05
2.72758e-07
8.26846e-05
2.53313e-07
8.27215e-05
2.32954e-07
8.27593e-05
2.12002e-07
8.27981e-05
1.90793e-07
8.28382e-05
1.69672e-07
8.28797e-05
1.4899e-07
8.29231e-05
1.29117e-07
8.29686e-05
1.10422e-07
8.30168e-05
9.32356e-08
8.30682e-05
7.79083e-08
8.31235e-05
6.47215e-08
8.31836e-05
5.39913e-08
8.32493e-05
4.58357e-08
8.33217e-05
4.03655e-08
8.34021e-05
3.7714e-08
3.75109e-08
8.34918e-05
8.45132e-05
4.20394e-08
8.45277e-05
1.19231e-07
8.4548e-05
1.81586e-07
8.4572e-05
2.29518e-07
8.45984e-05
2.65602e-07
8.46265e-05
2.91552e-07
8.46557e-05
3.08991e-07
8.46857e-05
3.19487e-07
8.47164e-05
3.24248e-07
8.47478e-05
3.24193e-07
8.47798e-05
3.20064e-07
8.48123e-05
3.12459e-07
8.48455e-05
3.01859e-07
8.48792e-05
2.88672e-07
8.49136e-05
2.73252e-07
8.49486e-05
2.55922e-07
8.49844e-05
2.36985e-07
8.5021e-05
2.16732e-07
8.50585e-05
1.95458e-07
8.5097e-05
1.73451e-07
8.51368e-05
1.5101e-07
8.51781e-05
1.28433e-07
8.5221e-05
1.06011e-07
8.52661e-05
8.40582e-08
8.53137e-05
6.28636e-08
8.53642e-05
4.2657e-08
8.54184e-05
2.37129e-08
8.5477e-05
6.12587e-09
8.55407e-05
-9.67355e-09
8.56105e-05
-2.39369e-08
8.56874e-05
-3.65786e-08
8.57728e-05
-4.76408e-08
-5.75755e-08
8.58678e-05
8.69269e-05
3.73244e-08
8.69399e-05
1.06218e-07
8.69586e-05
1.6284e-07
8.69812e-05
2.06919e-07
8.70066e-05
2.40269e-07
8.70338e-05
2.64309e-07
8.70624e-05
2.80383e-07
8.70921e-05
2.89828e-07
8.71226e-05
2.9373e-07
8.71539e-05
2.92936e-07
8.71858e-05
2.88136e-07
8.72184e-05
2.79892e-07
8.72515e-05
2.68663e-07
8.72854e-05
2.54835e-07
8.73199e-05
2.38743e-07
8.73551e-05
2.2069e-07
8.73912e-05
2.00954e-07
8.74281e-05
1.79803e-07
8.7466e-05
1.575e-07
8.75052e-05
1.34297e-07
8.75458e-05
1.10454e-07
8.7588e-05
8.62216e-08
8.76321e-05
6.1834e-08
8.76786e-05
3.75528e-08
8.77279e-05
1.36212e-08
8.77805e-05
-9.91535e-09
8.78369e-05
-3.27716e-08
8.7898e-05
-5.49092e-08
8.79645e-05
-7.62241e-08
8.80374e-05
-9.68255e-08
8.81177e-05
-1.16832e-07
8.82065e-05
-1.3642e-07
-1.56085e-07
8.8305e-05
8.94097e-05
3.31342e-08
8.94215e-05
9.44615e-08
8.94388e-05
1.455e-07
8.94601e-05
1.85641e-07
8.94842e-05
2.16121e-07
8.95105e-05
2.38085e-07
8.95382e-05
2.52636e-07
8.95671e-05
2.60899e-07
8.9597e-05
2.63831e-07
8.96278e-05
2.62201e-07
8.96593e-05
2.56643e-07
8.96915e-05
2.47682e-07
8.97244e-05
2.35747e-07
8.9758e-05
2.21201e-07
8.97924e-05
2.04358e-07
8.98276e-05
1.85495e-07
8.98637e-05
1.64869e-07
8.99008e-05
1.42719e-07
8.9939e-05
1.19274e-07
8.99786e-05
9.475e-08
9.00196e-05
6.93693e-08
9.00625e-05
4.33296e-08
9.01076e-05
1.678e-08
9.01552e-05
-1.00166e-08
9.02057e-05
-3.69597e-08
9.02598e-05
-6.39604e-08
9.03179e-05
-9.09225e-08
9.03809e-05
-1.17833e-07
9.04494e-05
-1.44726e-07
9.05243e-05
-1.71748e-07
9.06066e-05
-1.99126e-07
9.06973e-05
-2.27151e-07
-2.56339e-07
9.07976e-05
9.19636e-05
2.93579e-08
9.19743e-05
8.37467e-08
9.19905e-05
1.29398e-07
9.20105e-05
1.65563e-07
9.20336e-05
1.93055e-07
9.20589e-05
2.12775e-07
9.20859e-05
2.25625e-07
9.21143e-05
2.32548e-07
9.21437e-05
2.34378e-07
9.21741e-05
2.31806e-07
9.22053e-05
2.25409e-07
9.22374e-05
2.15664e-07
9.22701e-05
2.0297e-07
9.23037e-05
1.87659e-07
9.2338e-05
1.70017e-07
9.23732e-05
1.50296e-07
9.24094e-05
1.28721e-07
9.24466e-05
1.05502e-07
9.2485e-05
8.08329e-08
9.25249e-05
5.48934e-08
9.25664e-05
2.78616e-08
9.26098e-05
-6.88343e-11
9.26554e-05
-2.88755e-08
9.27037e-05
-5.83145e-08
9.27551e-05
-8.83473e-08
9.28101e-05
-1.18936e-07
9.28693e-05
-1.50064e-07
9.29332e-05
-1.81777e-07
9.30027e-05
-2.14194e-07
9.30784e-05
-2.47511e-07
9.31613e-05
-2.82013e-07
9.32522e-05
-3.18059e-07
-3.56134e-07
9.3352e-05
9.45906e-05
2.59156e-08
9.46004e-05
7.39057e-08
9.46154e-05
1.14392e-07
9.46344e-05
1.46601e-07
9.46564e-05
1.71046e-07
9.46808e-05
1.88422e-07
9.47069e-05
1.99462e-07
9.47345e-05
2.04947e-07
9.47633e-05
2.05594e-07
9.47931e-05
2.02014e-07
9.48238e-05
1.94719e-07
9.48553e-05
1.84142e-07
9.48877e-05
1.70642e-07
9.49208e-05
1.54521e-07
9.49548e-05
1.36035e-07
9.49897e-05
1.15406e-07
9.50255e-05
9.28322e-08
9.50626e-05
6.84913e-08
9.51008e-05
4.25446e-08
9.51406e-05
1.51166e-08
9.51821e-05
-1.36229e-08
9.52256e-05
-4.35716e-08
9.52714e-05
-7.46715e-08
9.53199e-05
-1.0681e-07
9.53715e-05
-1.39961e-07
9.54267e-05
-1.74142e-07
9.54861e-05
-2.09393e-07
9.55501e-05
-2.45811e-07
9.56195e-05
-2.83564e-07
9.56948e-05
-3.22886e-07
9.57769e-05
-3.64093e-07
9.58664e-05
-4.07587e-07
-4.53797e-07
9.59641e-05
9.72927e-05
2.27486e-08
9.73018e-05
6.4806e-08
9.73158e-05
1.00359e-07
9.73338e-05
1.28667e-07
9.73548e-05
1.50038e-07
9.73782e-05
1.64995e-07
9.74035e-05
1.74126e-07
9.74304e-05
1.78075e-07
9.74585e-05
1.77451e-07
9.74878e-05
1.72784e-07
9.7518e-05
1.64529e-07
9.7549e-05
1.53068e-07
9.7581e-05
1.3872e-07
9.76137e-05
1.21754e-07
9.76474e-05
1.02392e-07
9.76819e-05
8.0827e-08
9.77176e-05
5.72234e-08
9.77543e-05
3.17259e-08
9.77924e-05
4.48981e-09
9.78319e-05
-2.44467e-08
9.78732e-05
-5.49134e-08
9.79165e-05
-8.68677e-08
9.79621e-05
-1.20264e-07
9.80104e-05
-1.5506e-07
9.80617e-05
-1.91265e-07
9.81165e-05
-2.28927e-07
9.81752e-05
-2.68129e-07
9.82384e-05
-3.09004e-07
9.83066e-05
-3.51745e-07
9.83803e-05
-3.96604e-07
9.84601e-05
-4.43898e-07
9.85465e-05
-4.94026e-07
-5.47327e-07
9.86401e-05
0.000100072
1.98133e-08
0.00010008
5.63432e-08
0.000100094
8.71946e-08
0.000100111
1.11689e-07
0.000100131
1.29993e-07
0.000100153
1.42495e-07
0.000100178
1.49661e-07
0.000100204
1.52015e-07
0.000100231
1.50068e-07
0.00010026
1.44275e-07
0.000100289
1.35028e-07
0.000100319
1.22661e-07
0.000100351
1.0745e-07
0.000100383
8.96274e-08
0.000100416
6.93838e-08
0.00010045
4.68796e-08
0.000100485
2.22495e-08
0.000100521
-4.3936e-09
0.000100558
-3.2945e-08
0.000100597
-6.33505e-08
0.000100638
-9.55236e-08
0.00010068
-1.29432e-07
0.000100725
-1.65063e-07
0.000100773
-2.02416e-07
0.000100823
-2.41527e-07
0.000100876
-2.82471e-07
0.000100934
-3.25356e-07
0.000100995
-3.70332e-07
0.000101061
-4.176e-07
0.000101132
-4.67409e-07
0.000101208
-5.20056e-07
0.00010129
-5.75918e-07
-6.35241e-07
0.000101378
0.000102931
1.70764e-08
0.000102939
4.84349e-08
0.000102951
7.48118e-08
0.000102967
9.55998e-08
0.000102986
1.10872e-07
0.000103008
1.2091e-07
0.000103031
1.26077e-07
0.000103057
1.26795e-07
0.000103083
1.23486e-07
0.000103111
1.16532e-07
0.00010314
1.06267e-07
0.000103169
9.29753e-08
0.0001032
7.68918e-08
0.000103231
5.82108e-08
0.000103264
3.70909e-08
0.000103297
1.36608e-08
0.000103331
-1.1975e-08
0.000103367
-3.97326e-08
0.000103403
-6.95422e-08
0.000103441
-1.01364e-07
0.000103481
-1.35157e-07
0.000103522
-1.70911e-07
0.000103566
-2.08636e-07
0.000103612
-2.4836e-07
0.00010366
-2.9014e-07
0.000103712
-3.34065e-07
0.000103767
-3.80253e-07
0.000103825
-4.28858e-07
0.000103888
-4.80071e-07
0.000103955
-5.3412e-07
0.000104026
-5.91262e-07
0.000104102
-6.51825e-07
-7.15955e-07
0.000104182
0.000105871
1.45123e-08
0.000105879
4.10152e-08
0.00010589
6.31373e-08
0.000105906
8.03415e-08
0.000105924
9.26418e-08
0.000105945
1.00235e-07
0.000105967
1.03399e-07
0.000105992
1.02468e-07
0.000106017
9.77849e-08
0.000106044
8.96643e-08
0.000106072
7.83827e-08
0.000106101
6.41767e-08
0.00010613
4.72397e-08
0.000106161
2.77291e-08
0.000106192
5.77051e-09
0.000106224
-1.8538e-08
0.000106258
-4.51209e-08
0.000106292
-7.39213e-08
0.000106327
-1.04898e-07
0.000106364
-1.38032e-07
0.000106402
-1.7331e-07
0.000106442
-2.10743e-07
0.000106484
-2.50357e-07
0.000106527
-2.922e-07
0.000106574
-3.36339e-07
0.000106622
-3.82866e-07
0.000106674
-4.31899e-07
0.000106729
-4.8358e-07
0.000106787
-5.38077e-07
0.000106848
-5.95584e-07
0.000106913
-6.56311e-07
0.000106982
-7.20526e-07
-7.88278e-07
0.000107054
0.000108896
1.21009e-08
0.000108903
3.40315e-08
0.000108914
5.21101e-08
0.000108928
6.5865e-08
0.000108946
7.52728e-08
0.000108965
8.04649e-08
0.000108987
8.16477e-08
0.000109011
7.90802e-08
0.000109035
7.30334e-08
0.000109061
6.37595e-08
0.000109088
5.14809e-08
0.000109116
3.63883e-08
0.000109145
1.86341e-08
0.000109174
-1.65968e-09
0.000109204
-2.43991e-08
0.000109235
-4.95153e-08
0.000109267
-7.69591e-08
0.0001093
-1.06699e-07
0.000109333
-1.38716e-07
0.000109368
-1.73011e-07
0.000109405
-2.09591e-07
0.000109442
-2.48481e-07
0.000109482
-2.8972e-07
0.000109523
-3.33363e-07
0.000109566
-3.7948e-07
0.000109611
-4.28159e-07
0.000109659
-4.79504e-07
0.000109709
-5.33635e-07
0.000109762
-5.9069e-07
0.000109817
-6.50819e-07
0.000109875
-7.14175e-07
0.000109935
-7.8096e-07
-8.51128e-07
0.000109998
0.000112007
9.82559e-09
0.000112013
2.74403e-08
0.000112024
4.16776e-08
0.000112038
5.21252e-08
0.000112054
5.87365e-08
0.000112073
6.15915e-08
0.000112094
6.08372e-08
0.000112116
5.66674e-08
0.00011214
4.92897e-08
0.000112165
3.8898e-08
0.000112191
2.56641e-08
0.000112217
9.73799e-09
0.000112245
-8.7711e-09
0.000112273
-2.97735e-08
0.000112302
-5.32053e-08
0.000112331
-7.90242e-08
0.000112361
-1.07205e-07
0.000112392
-1.37738e-07
0.000112424
-1.70625e-07
0.000112457
-2.0588e-07
0.000112491
-2.43525e-07
0.000112526
-2.83595e-07
0.000112563
-3.26135e-07
0.0001126
-3.71199e-07
0.00011264
-4.18852e-07
0.000112681
-4.6917e-07
0.000112724
-5.22236e-07
0.000112768
-5.78144e-07
0.000112814
-6.36991e-07
0.000112862
-6.9888e-07
0.000112912
-7.63904e-07
0.000112963
-8.32199e-07
-9.03633e-07
0.000113016
0.000115207
7.67315e-09
0.000115213
2.12058e-08
0.000115223
3.17964e-08
0.000115236
3.90862e-08
0.000115251
4.30149e-08
0.000115269
4.36213e-08
0.000115289
4.10023e-08
0.000115311
3.52951e-08
0.000115333
2.66491e-08
0.000115357
1.52064e-08
0.000115382
1.08514e-09
0.000115407
-1.55923e-08
0.000115433
-3.47672e-08
0.00011546
-5.63753e-08
0.000115487
-8.0382e-08
0.000115514
-1.06769e-07
0.000115543
-1.35534e-07
0.000115572
-1.66683e-07
0.000115601
-2.00234e-07
0.000115632
-2.36211e-07
0.000115663
-2.74648e-07
0.000115695
-3.15581e-07
0.000115728
-3.59056e-07
0.000115762
-4.0512e-07
0.000115797
-4.53828e-07
0.000115833
-5.05236e-07
0.00011587
-5.59404e-07
0.000115908
-6.16391e-07
0.000115947
-6.76254e-07
0.000115987
-7.39047e-07
0.000116028
-8.04806e-07
0.00011607
-8.73603e-07
-9.45239e-07
0.000116111
0.000118498
5.63098e-09
0.000118504
1.52939e-08
0.000118513
2.24211e-08
0.000118526
2.67026e-08
0.000118541
2.80706e-08
0.000118558
2.65261e-08
0.000118576
2.21279e-08
0.000118597
1.49619e-08
0.000118618
5.12641e-09
0.000118641
-7.28795e-09
0.000118664
-2.2199e-08
0.000118688
-3.95374e-08
0.000118713
-5.92638e-08
0.000118738
-8.13503e-08
0.000118763
-1.05787e-07
0.000118789
-1.32576e-07
0.000118815
-1.61733e-07
0.000118842
-1.9328e-07
0.000118869
-2.27245e-07
0.000118896
-2.63662e-07
0.000118924
-3.02565e-07
0.000118952
-3.43994e-07
0.000118981
-3.87986e-07
0.000119011
-4.3458e-07
0.000119041
-4.83815e-07
0.000119071
-5.35725e-07
0.000119102
-5.90341e-07
0.000119133
-6.47688e-07
0.000119165
-7.07782e-07
0.000119197
-7.70628e-07
0.000119228
-8.36207e-07
0.000119259
-9.0453e-07
-9.75343e-07
0.000119289
0.000121883
3.68928e-09
0.000121889
9.67781e-09
0.000121898
1.3521e-08
0.00012191
1.49535e-08
0.000121924
1.39076e-08
0.00012194
1.03403e-08
0.000121958
4.28623e-09
0.000121977
-4.22032e-09
0.000121997
-1.51294e-08
0.000122018
-2.83928e-08
0.00012204
-4.39695e-08
0.000122062
-6.18306e-08
0.000122085
-8.19639e-08
0.000122108
-1.04369e-07
0.000122131
-1.29059e-07
0.000122155
-1.56056e-07
0.000122178
-1.85388e-07
0.000122202
-2.1709e-07
0.000122226
-2.51196e-07
0.00012225
-2.87745e-07
0.000122274
-3.26771e-07
0.000122299
-3.68309e-07
0.000122323
-4.12387e-07
0.000122348
-4.59031e-07
0.000122372
-5.08261e-07
0.000122396
-5.60088e-07
0.000122421
-6.14513e-07
0.000122444
-6.71527e-07
0.000122468
-7.31108e-07
0.00012249
-7.93217e-07
0.000122512
-8.5779e-07
0.000122532
-9.24793e-07
-9.9393e-07
0.000122551
0.000125365
1.83267e-09
0.000125371
4.3147e-09
0.000125379
5.03053e-09
0.00012539
3.75466e-09
0.000125404
4.39301e-10
0.000125419
-5.04023e-09
0.000125436
-1.26266e-08
0.000125454
-2.2354e-08
0.000125473
-3.42126e-08
0.000125493
-4.81954e-08
0.000125513
-6.42996e-08
0.000125534
-8.25303e-08
0.000125555
-1.02903e-07
0.000125576
-1.25443e-07
0.000125597
-1.50182e-07
0.000125618
-1.77157e-07
0.000125639
-2.0641e-07
0.00012566
-2.37982e-07
0.000125681
-2.71914e-07
0.000125702
-3.08244e-07
0.000125722
-3.47003e-07
0.000125742
-3.88218e-07
0.000125761
-4.31907e-07
0.00012578
-4.78082e-07
0.000125799
-5.26741e-07
0.000125817
-5.77872e-07
0.000125833
-6.31449e-07
0.000125849
-6.8743e-07
0.000125864
-7.45756e-07
0.000125877
-8.06352e-07
0.000125888
-8.69111e-07
0.000125898
-9.33949e-07
-1.00055e-06
0.000125904
0.000128947
5.68809e-11
0.000128952
-8.0876e-10
0.00012896
-3.05066e-09
0.000128971
-6.85223e-09
0.000128983
-1.22953e-08
0.000128998
-1.94738e-08
0.000129014
-2.84262e-08
0.000129031
-3.92031e-08
0.000129048
-5.18398e-08
0.000129066
-6.63686e-08
0.000129085
-8.28218e-08
0.000129104
-1.01236e-07
0.000129122
-1.21652e-07
0.000129141
-1.44117e-07
0.000129159
-1.68679e-07
0.000129178
-1.95388e-07
0.000129196
-2.24294e-07
0.000129213
-2.55445e-07
0.00012923
-2.88881e-07
0.000129246
-3.24639e-07
0.000129262
-3.62745e-07
0.000129277
-4.03218e-07
0.000129291
-4.46062e-07
0.000129304
-4.91272e-07
0.000129317
-5.38829e-07
0.000129327
-5.88696e-07
0.000129337
-6.40822e-07
0.000129344
-6.95139e-07
0.00012935
-7.51559e-07
0.000129354
-8.09975e-07
0.000129355
-8.70254e-07
0.000129353
-9.32286e-07
-9.95738e-07
0.000129349
0.000132631
-1.67985e-09
0.000132636
-5.79529e-09
0.000132644
-1.08947e-08
0.000132654
-1.71115e-08
0.000132666
-2.45425e-08
0.00013268
-3.32941e-08
0.000132695
-4.34564e-08
0.000132711
-5.51172e-08
0.000132727
-6.83553e-08
0.000132744
-8.32425e-08
0.000132761
-9.98455e-08
0.000132778
-1.18231e-07
0.000132795
-1.38464e-07
0.000132812
-1.6061e-07
0.000132828
-1.84731e-07
0.000132843
-2.10889e-07
0.000132858
-2.39139e-07
0.000132872
-2.6953e-07
0.000132885
-3.02104e-07
0.000132898
-3.36893e-07
0.000132909
-3.73916e-07
0.000132919
-4.1318e-07
0.000132927
-4.5468e-07
0.000132934
-4.98394e-07
0.00013294
-5.44283e-07
0.000132943
-5.92293e-07
0.000132945
-6.4235e-07
0.000132944
-6.94362e-07
0.000132941
-7.48217e-07
0.000132935
-8.03783e-07
0.000132925
-8.609e-07
0.000132913
-9.19427e-07
-9.79024e-07
0.000132896
0.00013642
-3.34494e-09
0.000136425
-1.05858e-08
0.000136432
-1.83696e-08
0.000136442
-2.67952e-08
0.000136453
-3.59906e-08
0.000136466
-4.6098e-08
0.00013648
-5.72524e-08
0.000136494
-6.95842e-08
0.000136509
-8.32128e-08
0.000136524
-9.82452e-08
0.000136539
-1.1478e-07
0.000136554
-1.32911e-07
0.000136568
-1.52727e-07
0.000136582
-1.74307e-07
0.000136595
-1.97726e-07
0.000136607
-2.23053e-07
0.000136618
-2.50346e-07
0.000136628
-2.79657e-07
0.000136637
-3.11025e-07
0.000136645
-3.44476e-07
0.000136651
-3.80022e-07
0.000136655
-4.17661e-07
0.000136658
-4.57375e-07
0.000136659
-4.99127e-07
0.000136657
-5.42865e-07
0.000136654
-5.88516e-07
0.000136647
-6.35989e-07
0.000136638
-6.85176e-07
0.000136626
-7.35947e-07
0.00013661
-7.88159e-07
0.000136591
-8.41641e-07
0.000136568
-8.96244e-07
-9.5164e-07
0.00013654
0.000140318
-5.10323e-09
0.000140322
-1.55528e-08
0.00014033
-2.60476e-08
0.00014034
-3.66255e-08
0.000140351
-4.74559e-08
0.000140364
-5.87341e-08
0.000140378
-7.06553e-08
0.000140391
-8.34102e-08
0.000140405
-9.71702e-08
0.000140419
-1.12083e-07
0.000140433
-1.28279e-07
0.000140446
-1.45877e-07
0.000140458
-1.64986e-07
0.000140469
-1.857e-07
0.00014048
-2.08102e-07
0.000140489
-2.32266e-07
0.000140497
-2.58252e-07
0.000140503
-2.86109e-07
0.000140508
-3.15872e-07
0.000140511
-3.47563e-07
0.000140512
-3.81186e-07
0.000140511
-4.16728e-07
0.000140508
-4.54161e-07
0.000140502
-4.93437e-07
0.000140494
-5.3449e-07
0.000140483
-5.77236e-07
0.000140468
-6.2157e-07
0.000140451
-6.6737e-07
0.000140429
-7.14497e-07
0.000140404
-7.62792e-07
0.000140374
-8.12075e-07
0.00014034
-8.62178e-07
-9.12783e-07
0.000140301
0.000144326
-6.7036e-09
0.000144331
-2.02386e-08
0.000144338
-3.32314e-08
0.000144347
-4.57293e-08
0.000144358
-5.79766e-08
0.000144369
-7.02181e-08
0.000144381
-8.26983e-08
0.000144393
-9.56631e-08
0.000144406
-1.09331e-07
0.000144417
-1.23889e-07
0.000144429
-1.39501e-07
0.000144439
-1.56315e-07
0.000144449
-1.74458e-07
0.000144457
-1.94035e-07
0.000144464
-2.15134e-07
0.00014447
-2.37833e-07
0.000144473
-2.62195e-07
0.000144476
-2.88268e-07
0.000144476
-3.16083e-07
0.000144474
-3.45657e-07
0.00014447
-3.76987e-07
0.000144463
-4.10052e-07
0.000144454
-4.44814e-07
0.000144441
-4.81216e-07
0.000144426
-5.19183e-07
0.000144408
-5.5862e-07
0.000144385
-5.99418e-07
0.000144359
-6.41448e-07
0.00014433
-6.84567e-07
0.000144295
-7.28618e-07
0.000144257
-7.73426e-07
0.000144213
-8.18835e-07
-8.64552e-07
0.000144165
0.00014845
-8.93663e-09
0.000148456
-2.61009e-08
0.000148465
-4.18042e-08
0.000148475
-5.61111e-08
0.000148487
-6.94782e-08
0.000148499
-8.22906e-08
0.000148511
-9.49072e-08
0.000148523
-1.0767e-07
0.000148534
-1.20865e-07
0.000148545
-1.34718e-07
0.000148555
-1.49416e-07
0.000148564
-1.65113e-07
0.000148571
-1.8196e-07
0.000148577
-2.00068e-07
0.000148582
-2.19529e-07
0.000148584
-2.40419e-07
0.000148585
-2.62796e-07
0.000148583
-2.86701e-07
0.00014858
-3.12164e-07
0.000148573
-3.39195e-07
0.000148564
-3.67786e-07
0.000148552
-3.97911e-07
0.000148536
-4.29527e-07
0.000148518
-4.62569e-07
0.000148496
-4.96956e-07
0.00014847
-5.32591e-07
0.000148439
-5.69358e-07
0.000148405
-6.07128e-07
0.000148366
-6.45756e-07
0.000148323
-6.85083e-07
0.000148274
-7.24937e-07
0.000148221
-7.65151e-07
-8.05457e-07
0.000148162
0.000152691
-1.03879e-08
0.000152696
-3.10644e-08
0.000152703
-4.93623e-08
0.000152712
-6.54848e-08
0.000152723
-7.99925e-08
0.000152734
-9.33326e-08
0.000152745
-1.05969e-07
0.000152756
-1.18349e-07
0.000152766
-1.30828e-07
0.000152775
-1.43683e-07
0.000152782
-1.57146e-07
0.000152789
-1.71419e-07
0.000152793
-1.86655e-07
0.000152796
-2.02968e-07
0.000152797
-2.20456e-07
0.000152796
-2.39199e-07
0.000152792
-2.59257e-07
0.000152786
-2.80672e-07
0.000152778
-3.03468e-07
0.000152766
-3.27647e-07
0.000152752
-3.53196e-07
0.000152734
-3.80082e-07
0.000152713
-4.08253e-07
0.000152688
-4.37643e-07
0.000152659
-4.68168e-07
0.000152626
-4.9973e-07
0.000152589
-5.32217e-07
0.000152547
-5.65504e-07
0.000152501
-5.99453e-07
0.00015245
-6.33921e-07
0.000152394
-6.68748e-07
0.000152332
-7.03796e-07
-7.38828e-07
0.000152266
0.000157056
-1.47262e-08
0.000157065
-4.01772e-08
0.000157076
-6.08851e-08
0.000157089
-7.79317e-08
0.000157102
-9.26179e-08
0.000157114
-1.05597e-07
0.000157125
-1.17494e-07
0.000157136
-1.28875e-07
0.000157145
-1.40148e-07
0.000157153
-1.5162e-07
0.000157159
-1.63542e-07
0.000157164
-1.76111e-07
0.000157167
-1.8946e-07
0.000157168
-2.03706e-07
0.000157166
-2.18944e-07
0.000157162
-2.35248e-07
0.000157156
-2.52672e-07
0.000157146
-2.7125e-07
0.000157134
-2.90999e-07
0.000157118
-3.11918e-07
0.000157099
-3.33988e-07
0.000157076
-3.57175e-07
0.000157049
-3.8143e-07
0.000157018
-4.06686e-07
0.000156983
-4.32867e-07
0.000156943
-4.59877e-07
0.000156898
-4.87611e-07
0.000156849
-5.15951e-07
0.000156794
-5.44768e-07
0.000156734
-5.73925e-07
0.000156669
-6.03272e-07
0.000156598
-6.32666e-07
-6.61904e-07
0.000156521
0.00016154
-1.58448e-08
0.000161547
-4.72071e-08
0.000161557
-7.12571e-08
0.000161569
-9.01794e-08
0.000161582
-1.05546e-07
0.000161595
-1.1824e-07
0.000161607
-1.29245e-07
0.000161617
-1.39336e-07
0.000161626
-1.49015e-07
0.000161633
-1.58652e-07
0.000161638
-1.6853e-07
0.000161641
-1.78859e-07
0.000161641
-1.89807e-07
0.000161639
-2.01499e-07
0.000161634
-2.14031e-07
0.000161626
-2.27473e-07
0.000161615
-2.41873e-07
0.000161601
-2.57261e-07
0.000161584
-2.73649e-07
0.000161563
-2.9103e-07
0.000161538
-3.09383e-07
0.00016151
-3.2867e-07
0.000161477
-3.48838e-07
0.00016144
-3.69821e-07
0.000161399
-3.9154e-07
0.000161353
-4.13903e-07
0.000161302
-4.3681e-07
0.000161247
-4.60151e-07
0.000161186
-4.83813e-07
0.000161119
-5.07677e-07
0.000161048
-5.31617e-07
0.000160971
-5.55524e-07
-5.7922e-07
0.000160888
0.000166165
-2.73721e-08
0.000166182
-6.39137e-08
0.000166199
-8.80218e-08
0.000166214
-1.0593e-07
0.000166229
-1.20025e-07
0.000166242
-1.31103e-07
0.000166253
-1.40376e-07
0.000166262
-1.48673e-07
0.00016627
-1.56456e-07
0.000166275
-1.64072e-07
0.000166278
-1.71793e-07
0.000166279
-1.79811e-07
0.000166278
-1.88272e-07
0.000166273
-1.97281e-07
0.000166266
-2.06917e-07
0.000166256
-2.17239e-07
0.000166243
-2.28288e-07
0.000166225
-2.40088e-07
0.000166204
-2.52649e-07
0.000166179
-2.65965e-07
0.00016615