/*--------------------------------*- C++ -*----------------------------------*\
  =========                 |
  \\      /  F ield         | OpenFOAM: The Open Source CFD Toolbox
   \\    /   O peration     | Website:  https://openfoam.org
    \\  /    A nd           | Version:  10
     \\/     M anipulation  |
\*---------------------------------------------------------------------------*/
FoamFile
{
    format      ascii;
    class       volVectorField;
    location    "0.17";
    object      U;
}
// * * * * * * * * * * * * * * * * * * * * * * * * * * * * * * * * * * * * * //

dimensions      [0 1 -1 0 0 0 0];

internalField   nonuniform List<vector> 
6820
(
(7.28186 0.0247494 0)
(7.17879 0.0398376 0)
(7.05711 0.0446412 0)
(6.93001 0.0471417 0)
(6.80395 0.0480555 0)
(6.67945 0.0480356 0)
(6.55708 0.0475156 0)
(6.43748 0.0466759 0)
(6.32092 0.0456199 0)
(6.20758 0.0444128 0)
(6.09763 0.043092 0)
(5.99123 0.0416809 0)
(5.88852 0.0401965 0)
(5.78963 0.0386532 0)
(5.69466 0.0370646 0)
(5.6037 0.0354449 0)
(5.5168 0.0338086 0)
(5.434 0.0321709 0)
(5.35527 0.0305468 0)
(5.28057 0.0289507 0)
(5.20982 0.0273967 0)
(5.14291 0.0258983 0)
(5.07968 0.0244698 0)
(5.01994 0.0231273 0)
(4.96346 0.0218912 0)
(4.90993 0.0207902 0)
(4.859 0.0198662 0)
(4.81016 0.0191914 0)
(4.76274 0.0188684 0)
(4.71581 0.0191381 0)
(4.66764 0.0204131 0)
(4.61658 0.0231494 0)
(4.55493 0.0347625 0)
(7.35918 0.0257952 0)
(7.42091 0.0355307 0)
(7.47605 0.0371823 0)
(7.52646 0.0390459 0)
(7.57272 0.0402867 0)
(7.61372 0.041217 0)
(7.64945 0.0420983 0)
(7.68035 0.0429196 0)
(7.70674 0.0436596 0)
(7.72895 0.0443058 0)
(7.74731 0.0448401 0)
(7.76212 0.0452448 0)
(7.77372 0.0455066 0)
(7.78238 0.0456166 0)
(7.7884 0.0455707 0)
(7.79207 0.04537 0)
(7.79364 0.0450203 0)
(7.79338 0.0445322 0)
(7.79152 0.04392 0)
(7.78829 0.0432018 0)
(7.7839 0.0423989 0)
(7.77852 0.0415361 0)
(7.7723 0.0406432 0)
(7.76536 0.0397563 0)
(7.7578 0.0389216 0)
(7.74965 0.0382008 0)
(7.74094 0.0376823 0)
(7.73158 0.0374941 0)
(7.72152 0.0378385 0)
(7.7104 0.0390727 0)
(7.69858 0.0416327 0)
(7.68427 0.04738 0)
(7.67436 0.0549328 0)
(7.33544 0.00686876 0)
(7.34582 0.0099579 0)
(7.35518 0.012396 0)
(7.36349 0.0156441 0)
(7.37257 0.0183133 0)
(7.38227 0.0205595 0)
(7.39253 0.0225955 0)
(7.40346 0.0244141 0)
(7.41503 0.0260173 0)
(7.42715 0.0274234 0)
(7.43972 0.0286415 0)
(7.45263 0.0296755 0)
(7.46577 0.0305285 0)
(7.47902 0.0312034 0)
(7.49227 0.0317044 0)
(7.50541 0.0320375 0)
(7.51833 0.0322115 0)
(7.53096 0.0322386 0)
(7.54322 0.0321339 0)
(7.55504 0.0319162 0)
(7.56636 0.0316081 0)
(7.57714 0.0312367 0)
(7.58735 0.0308349 0)
(7.59695 0.0304439 0)
(7.6059 0.0301169 0)
(7.61419 0.0299242 0)
(7.6218 0.0299663 0)
(7.6287 0.0303755 0)
(7.63491 0.0313826 0)
(7.64059 0.0332196 0)
(7.64576 0.0365697 0)
(7.65186 0.0414493 0)
(7.65805 0.0496649 0)
(7.33495 0.00917503 0)
(7.34268 0.0197348 0)
(7.34865 0.0249422 0)
(7.35264 0.0283468 0)
(7.35637 0.0304463 0)
(7.35989 0.0317507 0)
(7.36315 0.0326626 0)
(7.36635 0.0333112 0)
(7.36957 0.0337601 0)
(7.37287 0.0340588 0)
(7.37626 0.0342332 0)
(7.37979 0.0342965 0)
(7.38346 0.0342566 0)
(7.38728 0.0341196 0)
(7.39125 0.0338908 0)
(7.39535 0.0335763 0)
(7.39957 0.0331841 0)
(7.40389 0.032724 0)
(7.40829 0.0322085 0)
(7.41274 0.031653 0)
(7.41721 0.0310765 0)
(7.42167 0.0305026 0)
(7.42608 0.0299608 0)
(7.43042 0.0294893 0)
(7.43463 0.0291378 0)
(7.43867 0.0289724 0)
(7.44251 0.0290821 0)
(7.44611 0.0295896 0)
(7.44945 0.0306535 0)
(7.45261 0.0325142 0)
(7.45564 0.0353447 0)
(7.45932 0.0396799 0)
(7.4632 0.0445299 0)
(7.33402 0.00623508 0)
(7.33894 0.012242 0)
(7.34396 0.014737 0)
(7.34813 0.0169532 0)
(7.35222 0.018871 0)
(7.35615 0.0204499 0)
(7.35982 0.0218544 0)
(7.36333 0.0231113 0)
(7.36676 0.0242112 0)
(7.37014 0.0251589 0)
(7.37348 0.025957 0)
(7.3768 0.0266047 0)
(7.38012 0.0271027 0)
(7.38344 0.0274534 0)
(7.38676 0.0276612 0)
(7.3901 0.0277328 0)
(7.39343 0.0276778 0)
(7.39677 0.027509 0)
(7.4001 0.0272425 0)
(7.40342 0.0268983 0)
(7.40672 0.0265007 0)
(7.40999 0.0260793 0)
(7.41322 0.0256702 0)
(7.41638 0.0253186 0)
(7.41946 0.0250811 0)
(7.42244 0.02503 0)
(7.42529 0.0252582 0)
(7.42802 0.025884 0)
(7.43063 0.0270555 0)
(7.4332 0.0289544 0)
(7.4358 0.0317344 0)
(7.43888 0.0356409 0)
(7.44228 0.0401014 0)
(7.33376 0.00516698 0)
(7.33793 0.0125448 0)
(7.34266 0.0173835 0)
(7.34664 0.0211888 0)
(7.35036 0.02402 0)
(7.35395 0.0260265 0)
(7.35736 0.0275125 0)
(7.36067 0.0286269 0)
(7.36396 0.0294445 0)
(7.36723 0.0300257 0)
(7.37051 0.0304118 0)
(7.37381 0.0306287 0)
(7.37714 0.0306947 0)
(7.3805 0.0306247 0)
(7.38388 0.0304311 0)
(7.38729 0.0301264 0)
(7.39071 0.0297237 0)
(7.39415 0.0292379 0)
(7.39759 0.0286863 0)
(7.40103 0.0280892 0)
(7.40446 0.0274711 0)
(7.40787 0.0268613 0)
(7.41125 0.0262957 0)
(7.41459 0.0258185 0)
(7.41789 0.025485 0)
(7.42112 0.025364 0)
(7.4243 0.0255409 0)
(7.42743 0.0261215 0)
(7.43055 0.0272243 0)
(7.43373 0.0289953 0)
(7.43706 0.0315173 0)
(7.44081 0.0349611 0)
(7.44488 0.0389299 0)
(7.33348 0.00423428 0)
(7.3364 0.0104125 0)
(7.34016 0.0140399 0)
(7.34364 0.0165784 0)
(7.34708 0.0184739 0)
(7.35054 0.0198898 0)
(7.35393 0.0210289 0)
(7.35725 0.0219791 0)
(7.36056 0.0227637 0)
(7.36386 0.0234004 0)
(7.36717 0.0239001 0)
(7.3705 0.0242675 0)
(7.37384 0.0245053 0)
(7.37721 0.0246173 0)
(7.3806 0.0246079 0)
(7.38401 0.0244838 0)
(7.38744 0.0242541 0)
(7.39088 0.0239308 0)
(7.39434 0.0235295 0)
(7.3978 0.0230694 0)
(7.40126 0.0225748 0)
(7.40472 0.0220752 0)
(7.40818 0.0216069 0)
(7.41162 0.0212146 0)
(7.41506 0.0209528 0)
(7.41849 0.0208878 0)
(7.42193 0.0210991 0)
(7.42541 0.0216809 0)
(7.42897 0.0227349 0)
(7.43269 0.0243765 0)
(7.43664 0.0266763 0)
(7.44102 0.0297601 0)
(7.44576 0.0334153 0)
(7.33333 0.00353403 0)
(7.33566 0.00930083 0)
(7.33903 0.0133761 0)
(7.34238 0.0166169 0)
(7.34569 0.01924 0)
(7.349 0.0212724 0)
(7.35224 0.0228528 0)
(7.35542 0.0240826 0)
(7.35858 0.0250167 0)
(7.36173 0.0257001 0)
(7.3649 0.0261685 0)
(7.36809 0.0264472 0)
(7.37131 0.0265556 0)
(7.37456 0.02651 0)
(7.37784 0.0263251 0)
(7.38115 0.0260151 0)
(7.38449 0.025595 0)
(7.38785 0.0250815 0)
(7.39125 0.0244933 0)
(7.39466 0.0238523 0)
(7.3981 0.0231842 0)
(7.40157 0.0225196 0)
(7.40506 0.0218945 0)
(7.40857 0.0213519 0)
(7.41213 0.0209434 0)
(7.41574 0.0207299 0)
(7.41942 0.0207824 0)
(7.42321 0.0211818 0)
(7.42716 0.0220129 0)
(7.43136 0.0233676 0)
(7.43588 0.0253083 0)
(7.44084 0.0279329 0)
(7.44625 0.0311533 0)
(7.33323 0.00301584 0)
(7.33503 0.00818421 0)
(7.33783 0.0118917 0)
(7.34076 0.0146454 0)
(7.34373 0.016728 0)
(7.34678 0.0182609 0)
(7.34984 0.0194081 0)
(7.35291 0.0202832 0)
(7.35599 0.0209406 0)
(7.35909 0.0214156 0)
(7.36222 0.0217323 0)
(7.36537 0.0219056 0)
(7.36856 0.0219454 0)
(7.37178 0.0218596 0)
(7.37504 0.0216562 0)
(7.37832 0.0213437 0)
(7.38164 0.0209319 0)
(7.38499 0.0204333 0)
(7.38838 0.0198629 0)
(7.39179 0.0192394 0)
(7.39525 0.0185854 0)
(7.39874 0.0179283 0)
(7.40229 0.0173012 0)
(7.40589 0.0167438 0)
(7.40957 0.0163028 0)
(7.41335 0.0160321 0)
(7.41725 0.0159932 0)
(7.42134 0.0162548 0)
(7.42565 0.0168876 0)
(7.43028 0.0179661 0)
(7.4353 0.0195482 0)
(7.44082 0.0217176 0)
(7.44687 0.0244499 0)
(7.33317 0.00260394 0)
(7.33461 0.00725396 0)
(7.33704 0.0108216 0)
(7.33975 0.0136272 0)
(7.34258 0.015899 0)
(7.3455 0.0177038 0)
(7.34847 0.0191307 0)
(7.35144 0.0202529 0)
(7.35443 0.0211112 0)
(7.35743 0.0217368 0)
(7.36046 0.0221558 0)
(7.36352 0.0223881 0)
(7.36662 0.0224499 0)
(7.36974 0.022355 0)
(7.37291 0.0221167 0)
(7.37611 0.0217482 0)
(7.37935 0.0212632 0)
(7.38264 0.020677 0)
(7.38597 0.0200071 0)
(7.38935 0.0192738 0)
(7.39278 0.0185004 0)
(7.39628 0.0177141 0)
(7.39985 0.0169466 0)
(7.40352 0.0162347 0)
(7.4073 0.0156207 0)
(7.41123 0.0151521 0)
(7.41534 0.0148815 0)
(7.41968 0.0148666 0)
(7.42431 0.0151655 0)
(7.42932 0.0158371 0)
(7.43479 0.0169316 0)
(7.44082 0.0185173 0)
(7.44746 0.0205937 0)
(7.33313 0.00227468 0)
(7.33429 0.00644633 0)
(7.33638 0.00976016 0)
(7.3388 0.0123549 0)
(7.34137 0.014396 0)
(7.34407 0.0159536 0)
(7.34684 0.0171191 0)
(7.34965 0.0179787 0)
(7.35251 0.0185876 0)
(7.3554 0.0189845 0)
(7.35834 0.0191981 0)
(7.36132 0.019249 0)
(7.36434 0.0191519 0)
(7.3674 0.0189187 0)
(7.37051 0.0185595 0)
(7.37367 0.0180844 0)
(7.37687 0.0175042 0)
(7.38012 0.0168312 0)
(7.38342 0.0160793 0)
(7.38679 0.0152653 0)
(7.39023 0.0144086 0)
(7.39375 0.0135323 0)
(7.39737 0.0126633 0)
(7.40111 0.0118329 0)
(7.405 0.0110764 0)
(7.40907 0.0104325 0)
(7.41336 0.00994378 0)
(7.41793 0.00965465 0)
(7.42284 0.00961095 0)
(7.42818 0.00985714 0)
(7.43402 0.0104322 0)
(7.44049 0.0113874 0)
(7.44764 0.0127238 0)
(7.3331 0.00200232 0)
(7.33407 0.00573904 0)
(7.33588 0.00880838 0)
(7.33808 0.0112689 0)
(7.34048 0.0132548 0)
(7.34303 0.0148302 0)
(7.34569 0.0160614 0)
(7.34841 0.0170094 0)
(7.35118 0.0177133 0)
(7.354 0.0182001 0)
(7.35686 0.0184914 0)
(7.35976 0.0186039 0)
(7.36271 0.0185506 0)
(7.36569 0.018343 0)
(7.36873 0.0179918 0)
(7.37181 0.0175075 0)
(7.37494 0.0169013 0)
(7.37813 0.0161857 0)
(7.38139 0.0153747 0)
(7.38472 0.0144845 0)
(7.38814 0.0135337 0)
(7.39165 0.0125432 0)
(7.39529 0.011537 0)
(7.39907 0.0105421 0)
(7.40303 0.00958854 0)
(7.4072 0.00870765 0)
(7.41163 0.00793248 0)
(7.41637 0.00729884 0)
(7.4215 0.00684253 0)
(7.42709 0.00658956 0)
(7.43323 0.00656592 0)
(7.44003 0.0068046 0)
(7.44755 0.0072961 0)
(7.33308 0.00177171 0)
(7.3339 0.00511576 0)
(7.33548 0.00793056 0)
(7.33746 0.0102127 0)
(7.33966 0.0120485 0)
(7.34204 0.0134851 0)
(7.34453 0.0145733 0)
(7.34711 0.0153677 0)
(7.34974 0.01591 0)
(7.35244 0.0162317 0)
(7.35519 0.016358 0)
(7.35799 0.0163086 0)
(7.36084 0.0160986 0)
(7.36374 0.01574 0)
(7.36669 0.0152435 0)
(7.3697 0.0146189 0)
(7.37277 0.013876 0)
(7.37591 0.0130252 0)
(7.37912 0.0120782 0)
(7.38242 0.0110479 0)
(7.38581 0.0099493 0)
(7.38932 0.00879933 0)
(7.39297 0.00761641 0)
(7.39678 0.00642161 0)
(7.40079 0.00523827 0)
(7.40503 0.00408463 0)
(7.40956 0.00298877 0)
(7.41444 0.00197276 0)
(7.41973 0.00105195 0)
(7.42549 0.00024979 0)
(7.43183 -0.000422917 0)
(7.43885 -0.000954043 0)
(7.44661 -0.00136678 0)
(7.33307 0.00157214 0)
(7.33377 0.00455994 0)
(7.33516 0.00712296 0)
(7.33695 0.00922941 0)
(7.33899 0.0109387 0)
(7.34122 0.0122924 0)
(7.34359 0.0133327 0)
(7.34605 0.0141044 0)
(7.34859 0.0146415 0)
(7.3512 0.014969 0)
(7.35386 0.0151062 0)
(7.35659 0.0150679 0)
(7.35936 0.0148657 0)
(7.36219 0.0145089 0)
(7.36507 0.0140059 0)
(7.36801 0.0133645 0)
(7.37101 0.012593 0)
(7.37409 0.0116998 0)
(7.37724 0.0106947 0)
(7.38049 0.00958821 0)
(7.38385 0.00839242 0)
(7.38733 0.00712085 0)
(7.39097 0.00578655 0)
(7.39479 0.00440889 0)
(7.39882 0.00300091 0)
(7.4031 0.00158301 0)
(7.40768 0.00016782 0)
(7.41262 -0.00123588 0)
(7.41798 -0.00262269 0)
(7.42385 -0.00398159 0)
(7.43028 -0.00531646 0)
(7.43739 -0.00663362 0)
(7.44523 -0.0079677 0)
(7.33306 0.00139614 0)
(7.33366 0.00405988 0)
(7.3349 0.00637705 0)
(7.33653 0.00830066 0)
(7.3384 0.00986459 0)
(7.34048 0.0110976 0)
(7.3427 0.0120297 0)
(7.34503 0.0126951 0)
(7.34745 0.0131232 0)
(7.34994 0.0133371 0)
(7.35249 0.0133558 0)
(7.3551 0.0131947 0)
(7.35777 0.0128659 0)
(7.3605 0.0123794 0)
(7.36329 0.0117435 0)
(7.36614 0.0109659 0)
(7.36906 0.0100536 0)
(7.37206 0.00901367 0)
(7.37515 0.00785383 0)
(7.37833 0.00658191 0)
(7.38163 0.00520712 0)
(7.38507 0.00373793 0)
(7.38867 0.00218383 0)
(7.39246 0.00055233 0)
(7.39647 -0.00114788 0)
(7.40075 -0.00290122 0)
(7.40534 -0.00470702 0)
(7.41029 -0.006562 0)
(7.41566 -0.00846375 0)
(7.42152 -0.0104243 0)
(7.42794 -0.0124591 0)
(7.43503 -0.0145884 0)
(7.4428 -0.0168569 0)
(7.33305 0.00123854 0)
(7.33358 0.00360585 0)
(7.33468 0.0056855 0)
(7.33616 0.00742571 0)
(7.3379 0.00884399 0)
(7.33984 0.00996172 0)
(7.34193 0.0108028 0)
(7.34415 0.0113955 0)
(7.34645 0.0117649 0)
(7.34884 0.0119309 0)
(7.3513 0.0119093 0)
(7.35382 0.0117125 0)
(7.35641 0.0113498 0)
(7.35905 0.0108287 0)
(7.36176 0.0101549 0)
(7.36453 0.00933358 0)
(7.36737 0.00836916 0)
(7.37029 0.00726616 0)
(7.3733 0.00602925 0)
(7.37642 0.00466271 0)
(7.37966 0.00317269 0)
(7.38304 0.00156401 0)
(7.38658 -0.000155044 0)
(7.39032 -0.00198595 0)
(7.39428 -0.00392272 0)
(7.39851 -0.00596749 0)
(7.40305 -0.00812002 0)
(7.40794 -0.0103852 0)
(7.41325 -0.012774 0)
(7.41902 -0.0153039 0)
(7.42532 -0.0180007 0)
(7.43224 -0.0208981 0)
(7.43979 -0.0240458 0)
(7.33305 0.00109561 0)
(7.33352 0.00319025 0)
(7.3345 0.00504207 0)
(7.33585 0.00659962 0)
(7.33745 0.00786832 0)
(7.33926 0.00886148 0)
(7.34123 0.00959556 0)
(7.34332 0.0100913 0)
(7.34551 0.0103682 0)
(7.34778 0.0104424 0)
(7.35013 0.0103272 0)
(7.35254 0.0100332 0)
(7.35501 0.00956875 0)
(7.35755 0.00894026 0)
(7.36015 0.00815265 0)
(7.36282 0.00720987 0)
(7.36556 0.00611512 0)
(7.36838 0.00487128 0)
(7.3713 0.0034809 0)
(7.37432 0.00194571 0)
(7.37747 0.000266554 0)
(7.38075 -0.00155452 0)
(7.38421 -0.00351572 0)
(7.38785 -0.00561692 0)
(7.39173 -0.00786119 0)
(7.39586 -0.0102548 0)
(7.40028 -0.0128055 0)
(7.40505 -0.0155258 0)
(7.41021 -0.0184338 0)
(7.41581 -0.0215547 0)
(7.42189 -0.024922 0)
(7.42853 -0.0285778 0)
(7.43575 -0.0325733 0)
(7.33304 0.000964674 0)
(7.33346 0.00280709 0)
(7.33435 0.00444126 0)
(7.33559 0.00581886 0)
(7.33707 0.00693756 0)
(7.33875 0.00780495 0)
(7.34059 0.00843263 0)
(7.34257 0.00883652 0)
(7.34465 0.00903252 0)
(7.34681 0.00903412 0)
(7.34905 0.00885235 0)
(7.35136 0.00849578 0)
(7.35373 0.00797073 0)
(7.35617 0.00728155 0)
(7.35867 0.00643106 0)
(7.36124 0.00542092 0)
(7.36389 0.00425187 0)
(7.36661 0.00292411 0)
(7.36943 0.00143677 0)
(7.37235 -0.000209041 0)
(7.37539 -0.00201708 0)
(7.37857 -0.00398942 0)
(7.38192 -0.00613087 0)
(7.38544 -0.00844548 0)
(7.38919 -0.0109412 0)
(7.39318 -0.0136287 0)
(7.39744 -0.0165219 0)
(7.40203 -0.019639 0)
(7.40697 -0.0230043 0)
(7.4123 -0.0266482 0)
(7.41807 -0.0306091 0)
(7.42433 -0.0349344 0)
(7.43108 -0.0396733 0)
(7.33304 0.000843723 0)
(7.33342 0.00245163 0)
(7.33422 0.00387842 0)
(7.33535 0.00508 0)
(7.33672 0.00604917 0)
(7.33829 0.0067887 0)
(7.34001 0.00730563 0)
(7.34187 0.00761094 0)
(7.34383 0.00771621 0)
(7.34588 0.00763148 0)
(7.34801 0.00736487 0)
(7.35021 0.00692259 0)
(7.35247 0.00630893 0)
(7.35479 0.00552646 0)
(7.35718 0.00457632 0)
(7.35963 0.00345844 0)
(7.36215 0.00217177 0)
(7.36475 0.000714298 0)
(7.36744 -0.000917086 0)
(7.37024 -0.00272487 0)
(7.37315 -0.00471366 0)
(7.37619 -0.00688928 0)
(7.37938 -0.00925944 0)
(7.38275 -0.0118325 0)
(7.38632 -0.01462 0)
(7.39012 -0.0176367 0)
(7.39417 -0.0209007 0)
(7.3985 -0.0244343 0)
(7.40315 -0.0282654 0)
(7.40815 -0.0324276 0)
(7.41352 -0.0369611 0)
(7.41931 -0.0419152 0)
(7.42551 -0.0473347 0)
(7.33303 0.000731258 0)
(7.33338 0.00212016 0)
(7.33411 0.0033496 0)
(7.33515 0.0043801 0)
(7.33641 0.00520164 0)
(7.33787 0.0058135 0)
(7.33948 0.00621932 0)
(7.34123 0.00642645 0)
(7.34308 0.00644329 0)
(7.34502 0.00627733 0)
(7.34703 0.00593455 0)
(7.34911 0.00541928 0)
(7.35126 0.004734 0)
(7.35347 0.00387954 0)
(7.35574 0.00285522 0)
(7.35807 0.00165903 0)
(7.36047 0.00028791 0)
(7.36294 -0.00126233 0)
(7.3655 -0.00299653 0)
(7.36816 -0.004922 0)
(7.37092 -0.00704526 0)
(7.37381 -0.00937527 0)
(7.37683 -0.0119227 0)
(7.38001 -0.0146999 0)
(7.38337 -0.0177217 0)
(7.38694 -0.0210061 0)
(7.39072 -0.0245744 0)
(7.39476 -0.0284519 0)
(7.39906 -0.0326687 0)
(7.40366 -0.0372596 0)
(7.40856 -0.0422649 0)
(7.4138 -0.0477335 0)
(7.41936 -0.0537044 0)
(7.33303 0.000626125 0)
(7.33335 0.0018097 0)
(7.33402 0.00285151 0)
(7.33497 0.00371652 0)
(7.33613 0.00439326 0)
(7.33749 0.00487842 0)
(7.339 0.00517276 0)
(7.34063 0.00528034 0)
(7.34237 0.00520636 0)
(7.34419 0.00495547 0)
(7.34609 0.00453111 0)
(7.34805 0.00393529 0)
(7.35008 0.00316838 0)
(7.35216 0.00222927 0)
(7.3543 0.00111535 0)
(7.3565 -0.00017725 0)
(7.35876 -0.0016536 0)
(7.36109 -0.00331984 0)
(7.3635 -0.00518309 0)
(7.36599 -0.00725201 0)
(7.36857 -0.00953589 0)
(7.37127 -0.0120458 0)
(7.37409 -0.0147948 0)
(7.37705 -0.0177973 0)
(7.38016 -0.0210704 0)
(7.38345 -0.0246341 0)
(7.38692 -0.0285113 0)
(7.3906 -0.0327283 0)
(7.3945 -0.0373152 0)
(7.39863 -0.0423064 0)
(7.40301 -0.0477402 0)
(7.40764 -0.053662 0)
(7.41252 -0.0601042 0)
(7.33303 0.000527426 0)
(7.33332 0.00151789 0)
(7.33393 0.00238142 0)
(7.3348 0.00308707 0)
(7.33588 0.00362291 0)
(7.33714 0.00398386 0)
(7.33854 0.0041685 0)
(7.34007 0.00417838 0)
(7.34169 0.0040162 0)
(7.3434 0.00368436 0)
(7.34518 0.00318428 0)
(7.34703 0.00251623 0)
(7.34892 0.00167881 0)
(7.35088 0.000669253 0)
(7.35288 -0.000516627 0)
(7.35494 -0.00188435 0)
(7.35705 -0.00344073 0)
(7.35923 -0.00519375 0)
(7.36147 -0.00715253 0)
(7.36378 -0.00932757 0)
(7.36618 -0.0117304 0)
(7.36867 -0.0143743 0)
(7.37126 -0.017274 0)
(7.37397 -0.0204461 0)
(7.3768 -0.0239094 0)
(7.37978 -0.027685 0)
(7.3829 -0.0317967 0)
(7.38619 -0.0362708 0)
(7.38964 -0.0411369 0)
(7.39327 -0.0464278 0)
(7.39708 -0.0521786 0)
(7.40106 -0.0584307 0)
(7.40521 -0.0652092 0)
(7.33303 0.000434443 0)
(7.33329 0.00124281 0)
(7.33385 0.00193694 0)
(7.33466 0.0024896 0)
(7.33566 0.00288887 0)
(7.33682 0.00312838 0)
(7.33813 0.00320488 0)
(7.33955 0.00311764 0)
(7.34106 0.00286694 0)
(7.34265 0.00245287 0)
(7.34431 0.00187471 0)
(7.34603 0.00113077 0)
(7.3478 0.000217775 0)
(7.34962 -0.000868807 0)
(7.35149 -0.00213489 0)
(7.35339 -0.00358764 0)
(7.35535 -0.00523542 0)
(7.35735 -0.00708777 0)
(7.35941 -0.00915535 0)
(7.36153 -0.01145 0)
(7.36372 -0.0139848 0)
(7.36597 -0.0167741 0)
(7.36831 -0.0198337 0)
(7.37074 -0.0231812 0)
(7.37327 -0.0268358 0)
(7.3759 -0.0308186 0)
(7.37864 -0.0351527 0)
(7.38149 -0.0398635 0)
(7.38446 -0.0449782 0)
(7.38755 -0.0505265 0)
(7.39075 -0.0565391 0)
(7.39406 -0.063052 0)
(7.39746 -0.0700827 0)
(7.33302 0.000346589 0)
(7.33327 0.000982892 0)
(7.33379 0.00151626 0)
(7.33453 0.00192286 0)
(7.33545 0.00219128 0)
(7.33653 0.00231446 0)
(7.33773 0.002288 0)
(7.33905 0.00210951 0)
(7.34045 0.00177753 0)
(7.34193 0.0012902 0)
(7.34347 0.000645263 0)
(7.34506 -0.000161011 0)
(7.34669 -0.00113302 0)
(7.34837 -0.0022768 0)
(7.35008 -0.00359973 0)
(7.35183 -0.00511038 0)
(7.35361 -0.00681851 0)
(7.35544 -0.00873502 0)
(7.3573 -0.0108719 0)
(7.3592 -0.0132422 0)
(7.36116 -0.0158602 0)
(7.36317 -0.0187413 0)
(7.36523 -0.0219021 0)
(7.36736 -0.0253607 0)
(7.36955 -0.0291363 0)
(7.37181 -0.0332497 0)
(7.37414 -0.0377231 0)
(7.37654 -0.0425801 0)
(7.37901 -0.0478454 0)
(7.38154 -0.0535453 0)
(7.38412 -0.0597061 0)
(7.38674 -0.0663583 0)
(7.38938 -0.0735125 0)
(7.33302 0.000263357 0)
(7.33325 0.000736678 0)
(7.33372 0.00111724 0)
(7.33441 0.0013841 0)
(7.33526 0.00152636 0)
(7.33626 0.00153619 0)
(7.33737 0.00140793 0)
(7.33859 0.00113761 0)
(7.33989 0.000721679 0)
(7.34125 0.000156777 0)
(7.34267 -0.000561237 0)
(7.34414 -0.00143771 0)
(7.34564 -0.00247858 0)
(7.34717 -0.00369122 0)
(7.34873 -0.00508414 0)
(7.35031 -0.00666702 0)
(7.35192 -0.00845063 0)
(7.35355 -0.0104467 0)
(7.35521 -0.0126681 0)
(7.3569 -0.0151284 0)
(7.35861 -0.0178424 0)
(7.36035 -0.0208256 0)
(7.36213 -0.0240946 0)
(7.36393 -0.0276668 0)
(7.36577 -0.0315608 0)
(7.36764 -0.0357959 0)
(7.36955 -0.0403922 0)
(7.37147 -0.0453707 0)
(7.37342 -0.0507529 0)
(7.37537 -0.0565605 0)
(7.37733 -0.0628147 0)
(7.37926 -0.06954 0)
(7.38115 -0.0767407 0)
(7.33302 0.00018431 0)
(7.33323 0.000503134 0)
(7.33367 0.00073911 0)
(7.3343 0.000874385 0)
(7.33508 0.000899235 0)
(7.336 0.000805366 0)
(7.33703 0.000587258 0)
(7.33815 0.000239577 0)
(7.33934 -0.000242515 0)
(7.34059 -0.000863735 0)
(7.34188 -0.00162983 0)
(7.34321 -0.00254715 0)
(7.34456 -0.00362336 0)
(7.34594 -0.00486704 0)
(7.34733 -0.00628793 0)
(7.34874 -0.00789681 0)
(7.35016 -0.00970546 0)
(7.35158 -0.0117265 0)
(7.35302 -0.0139735 0)
(7.35447 -0.0164607 0)
(7.35592 -0.0192031 0)
(7.35738 -0.0222165 0)
(7.35884 -0.0255172 0)
(7.36031 -0.0291222 0)
(7.36179 -0.033049 0)
(7.36326 -0.0373155 0)
(7.36472 -0.0419399 0)
(7.36616 -0.0469403 0)
(7.36759 -0.0523351 0)
(7.36897 -0.0581421 0)
(7.3703 -0.0643778 0)
(7.37157 -0.0710616 0)
(7.37274 -0.0781925 0)
(7.33302 0.000108944 0)
(7.33321 0.000280442 0)
(7.33362 0.000378076 0)
(7.33421 0.000386056 0)
(7.33493 0.000294552 0)
(7.33578 9.62634e-05 0)
(7.33673 -0.000216895 0)
(7.33776 -0.000651418 0)
(7.33885 -0.00121319 0)
(7.33999 -0.00190854 0)
(7.34117 -0.00274421 0)
(7.34237 -0.00372758 0)
(7.34359 -0.00486711 0)
(7.34482 -0.00617215 0)
(7.34605 -0.00765301 0)
(7.34729 -0.00932091 0)
(7.34852 -0.0111879 0)
(7.34975 -0.0132669 0)
(7.35097 -0.0155713 0)
(7.35217 -0.0181151 0)
(7.35337 -0.020913 0)
(7.35454 -0.02398 0)
(7.3557 -0.0273313 0)
(7.35682 -0.0309825 0)
(7.35792 -0.0349494 0)
(7.35899 -0.0392474 0)
(7.36 -0.0438922 0)
(7.36097 -0.0488987 0)
(7.36187 -0.0542814 0)
(7.36268 -0.0600537 0)
(7.3634 -0.0662273 0)
(7.36401 -0.072816 0)
(7.36448 -0.0798142 0)
(7.33302 3.68118e-05 0)
(7.3332 6.85444e-05 0)
(7.33358 3.71132e-05 0)
(7.33412 -6.97671e-05 0)
(7.33479 -0.000260322 0)
(7.33556 -0.000541221 0)
(7.33643 -0.000920991 0)
(7.33736 -0.00140677 0)
(7.33834 -0.00200593 0)
(7.33936 -0.00272626 0)
(7.34041 -0.00357598 0)
(7.34147 -0.00456401 0)
(7.34254 -0.00570008 0)
(7.3436 -0.00699469 0)
(7.34466 -0.00845911 0)
(7.34571 -0.0101054 0)
(7.34674 -0.0119462 0)
(7.34774 -0.0139949 0)
(7.34872 -0.016265 0)
(7.34967 -0.0187707 0)
(7.35059 -0.0215263 0)
(7.35146 -0.0245463 0)
(7.35229 -0.0278451 0)
(7.35307 -0.0314373 0)
(7.35379 -0.0353368 0)
(7.35445 -0.0395575 0)
(7.35503 -0.0441125 0)
(7.35551 -0.049014 0)
(7.3559 -0.0542732 0)
(7.35618 -0.0599001 0)
(7.35632 -0.0659026 0)
(7.35631 -0.0722902 0)
(7.35613 -0.0790538 0)
(7.33302 -3.289e-05 0)
(7.33319 -0.000137409 0)
(7.33355 -0.000297181 0)
(7.33406 -0.000523174 0)
(7.33468 -0.000823882 0)
(7.33541 -0.00120839 0)
(7.33621 -0.00168425 0)
(7.33707 -0.00225949 0)
(7.33797 -0.00294203 0)
(7.3389 -0.00374002 0)
(7.33984 -0.00466205 0)
(7.34078 -0.00571734 0)
(7.34171 -0.00691579 0)
(7.34264 -0.00826796 0)
(7.34354 -0.00978508 0)
(7.34441 -0.011479 0)
(7.34525 -0.0133621 0)
(7.34605 -0.0154471 0)
(7.34681 -0.017747 0)
(7.34752 -0.0202751 0)
(7.34817 -0.0230445 0)
(7.34875 -0.0260683 0)
(7.34927 -0.0293595 0)
(7.34971 -0.0329303 0)
(7.35006 -0.0367928 0)
(7.35031 -0.040958 0)
(7.35046 -0.0454362 0)
(7.35048 -0.0502364 0)
(7.35037 -0.0553663 0)
(7.35011 -0.0608323 0)
(7.34969 -0.0666383 0)
(7.34908 -0.072789 0)
(7.34827 -0.0792728 0)
(7.33302 -0.000100041 0)
(7.33317 -0.000332056 0)
(7.33351 -0.000602904 0)
(7.33398 -0.000918529 0)
(7.33455 -0.00128592 0)
(7.33521 -0.001714 0)
(7.33593 -0.00221238 0)
(7.33669 -0.00279126 0)
(7.33748 -0.00346096 0)
(7.33829 -0.00423178 0)
(7.3391 -0.00511416 0)
(7.33989 -0.00611887 0)
(7.34067 -0.0072571 0)
(7.34143 -0.00854038 0)
(7.34215 -0.00998058 0)
(7.34283 -0.0115899 0)
(7.34346 -0.013381 0)
(7.34403 -0.0153664 0)
(7.34455 -0.0175589 0)
(7.34499 -0.0199712 0)
(7.34536 -0.0226159 0)
(7.34565 -0.0255051 0)
(7.34584 -0.0286506 0)
(7.34594 -0.0320634 0)
(7.34592 -0.0357538 0)
(7.34579 -0.039731 0)
(7.34552 -0.0440032 0)
(7.3451 -0.0485772 0)
(7.34453 -0.053458 0)
(7.34379 -0.0586495 0)
(7.34286 -0.0641527 0)
(7.34172 -0.0699698 0)
(7.34037 -0.0760873 0)
(7.33302 -0.000168224 0)
(7.33318 -0.000536494 0)
(7.33351 -0.000940312 0)
(7.33398 -0.00138564 0)
(7.33454 -0.00187986 0)
(7.33518 -0.00243073 0)
(7.33586 -0.00304638 0)
(7.33658 -0.00373571 0)
(7.33731 -0.00450813 0)
(7.33804 -0.00537335 0)
(7.33876 -0.00634156 0)
(7.33945 -0.00742337 0)
(7.34011 -0.00862968 0)
(7.34073 -0.00997168 0)
(7.3413 -0.0114609 0)
(7.34182 -0.013109 0)
(7.34227 -0.0149279 0)
(7.34264 -0.0169295 0)
(7.34294 -0.0191255 0)
(7.34315 -0.0215275 0)
(7.34327 -0.0241463 0)
(7.34327 -0.0269926 0)
(7.34317 -0.0300759 0)
(7.34294 -0.0334053 0)
(7.34258 -0.0369886 0)
(7.34207 -0.0408325 0)
(7.3414 -0.0449426 0)
(7.34056 -0.0493227 0)
(7.33954 -0.0539752 0)
(7.33832 -0.0589007 0)
(7.33689 -0.0640977 0)
(7.33523 -0.0695648 0)
(7.33333 -0.0752875 0)
(7.33301 -0.00023333 0)
(7.33316 -0.000713182 0)
(7.33347 -0.00119187 0)
(7.33389 -0.00167081 0)
(7.3344 -0.00216186 0)
(7.33496 -0.00267919 0)
(7.33556 -0.00323715 0)
(7.33618 -0.00385002 0)
(7.33681 -0.00453119 0)
(7.33742 -0.00529296 0)
(7.33801 -0.00614687 0)
(7.33856 -0.00710471 0)
(7.33907 -0.00817847 0)
(7.33952 -0.0093796 0)
(7.33992 -0.0107194 0)
(7.34024 -0.0122092 0)
(7.34048 -0.0138603 0)
(7.34064 -0.0156839 0)
(7.3407 -0.0176909 0)
(7.34066 -0.0198919 0)
(7.34051 -0.0222971 0)
(7.34024 -0.0249159 0)
(7.33983 -0.027757 0)
(7.33929 -0.0308282 0)
(7.33859 -0.0341361 0)
(7.33773 -0.0376859 0)
(7.3367 -0.0414818 0)
(7.33549 -0.0455261 0)
(7.33407 -0.0498196 0)
(7.33245 -0.0543615 0)
(7.3306 -0.0591488 0)
(7.32852 -0.0641787 0)
(7.3262 -0.0694364 0)
(7.33302 -0.000312375 0)
(7.33321 -0.00096716 0)
(7.33358 -0.00163445 0)
(7.33406 -0.00230937 0)
(7.33461 -0.00299572 0)
(7.33519 -0.0036994 0)
(7.3358 -0.00442965 0)
(7.3364 -0.00519836 0)
(7.33699 -0.00601808 0)
(7.33754 -0.00690139 0)
(7.33806 -0.00786123 0)
(7.33852 -0.00891012 0)
(7.33893 -0.0100594 0)
(7.33926 -0.0113205 0)
(7.33952 -0.0127048 0)
(7.3397 -0.0142237 0)
(7.33978 -0.0158881 0)
(7.33976 -0.0177084 0)
(7.33963 -0.0196946 0)
(7.33937 -0.0218559 0)
(7.33899 -0.0242006 0)
(7.33846 -0.0267362 0)
(7.33779 -0.0294693 0)
(7.33696 -0.0324051 0)
(7.33595 -0.0355478 0)
(7.33476 -0.0389006 0)
(7.33338 -0.0424648 0)
(7.33179 -0.0462405 0)
(7.32999 -0.0502265 0)
(7.32796 -0.0544195 0)
(7.32569 -0.0588148 0)
(7.32317 -0.0634073 0)
(7.3204 -0.0681826 0)
(7.33301 -0.000373387 0)
(7.33315 -0.00108257 0)
(7.33346 -0.00171109 0)
(7.33388 -0.00227805 0)
(7.33436 -0.0028161 0)
(7.33488 -0.00334876 0)
(7.33542 -0.00389643 0)
(7.33595 -0.00447806 0)
(7.33645 -0.00510912 0)
(7.3369 -0.0058021 0)
(7.33731 -0.00656734 0)
(7.33765 -0.00741482 0)
(7.33792 -0.0083575 0)
(7.3381 -0.00940547 0)
(7.33819 -0.0105681 0)
(7.33819 -0.0118547 0)
(7.33808 -0.0132743 0)
(7.33785 -0.014836 0)
(7.3375 -0.0165485 0)
(7.33702 -0.0184205 0)
(7.33639 -0.0204596 0)
(7.33562 -0.0226731 0)
(7.33468 -0.025067 0)
(7.33358 -0.0276462 0)
(7.33229 -0.0304144 0)
(7.33081 -0.033374 0)
(7.32914 -0.0365261 0)
(7.32725 -0.0398704 0)
(7.32514 -0.0434049 0)
(7.3228 -0.0471264 0)
(7.32023 -0.0510298 0)
(7.31741 -0.0551101 0)
(7.31434 -0.0593531 0)
(7.33304 -0.000518176 0)
(7.33336 -0.00159493 0)
(7.33387 -0.00262246 0)
(7.33445 -0.0035719 0)
(7.33504 -0.00445328 0)
(7.33563 -0.00528122 0)
(7.33619 -0.00607591 0)
(7.3367 -0.00685981 0)
(7.33717 -0.00765359 0)
(7.33757 -0.00847612 0)
(7.33791 -0.00934546 0)
(7.33817 -0.0102789 0)
(7.33835 -0.0112867 0)
(7.33843 -0.0123801 0)
(7.33842 -0.0135704 0)
(7.33829 -0.0148683 0)
(7.33805 -0.0162831 0)
(7.33768 -0.0178235 0)
(7.33717 -0.0194966 0)
(7.33652 -0.0213087 0)
(7.33571 -0.0232648 0)
(7.33473 -0.0253691 0)
(7.33357 -0.0276245 0)
(7.33222 -0.0300331 0)
(7.33068 -0.0325962 0)
(7.32893 -0.0353135 0)
(7.32696 -0.0381841 0)
(7.32477 -0.0412053 0)
(7.32234 -0.0443736 0)
(7.31966 -0.047684 0)
(7.31674 -0.0511303 0)
(7.31355 -0.0547061 0)
(7.3101 -0.0583989 0)
(7.33299 -0.000518964 0)
(7.33315 -0.00137626 0)
(7.33356 -0.00202657 0)
(7.3341 -0.0025766 0)
(7.33468 -0.00308176 0)
(7.33527 -0.00356276 0)
(7.33583 -0.00404425 0)
(7.33634 -0.00454686 0)
(7.33678 -0.00508324 0)
(7.33715 -0.00566284 0)
(7.33742 -0.00629367 0)
(7.3376 -0.00698238 0)
(7.33767 -0.0077379 0)
(7.33763 -0.00856808 0)
(7.33747 -0.00948035 0)
(7.33719 -0.010482 0)
(7.33677 -0.0115804 0)
(7.33621 -0.0127825 0)
(7.3355 -0.0140954 0)
(7.33464 -0.0155254 0)
(7.33361 -0.0170788 0)
(7.3324 -0.0187608 0)
(7.33102 -0.0205758 0)
(7.32945 -0.0225272 0)
(7.32768 -0.0246172 0)
(7.3257 -0.0268467 0)
(7.3235 -0.0292153 0)
(7.32109 -0.0317215 0)
(7.31844 -0.0343624 0)
(7.31556 -0.037134 0)
(7.31243 -0.0400307 0)
(7.30905 -0.0430469 0)
(7.30543 -0.0461706 0)
(7.33313 -0.00104691 0)
(7.33382 -0.00301149 0)
(7.33463 -0.00454701 0)
(7.33535 -0.00575962 0)
(7.33601 -0.00675573 0)
(7.33662 -0.00758679 0)
(7.33715 -0.0083093 0)
(7.3376 -0.00897237 0)
(7.33797 -0.00961085 0)
(7.33826 -0.0102517 0)
(7.33845 -0.010917 0)
(7.33855 -0.0116241 0)
(7.33854 -0.0123867 0)
(7.33841 -0.0132158 0)
(7.33817 -0.0141201 0)
(7.33779 -0.0151074 0)
(7.33727 -0.0161836 0)
(7.33659 -0.0173535 0)
(7.33575 -0.0186208 0)
(7.33474 -0.019988 0)
(7.33354 -0.0214565 0)
(7.33215 -0.0230269 0)
(7.33055 -0.0246988 0)
(7.32874 -0.0264708 0)
(7.3267 -0.028341 0)
(7.32444 -0.0303065 0)
(7.32193 -0.0323639 0)
(7.31917 -0.0345087 0)
(7.31616 -0.0367362 0)
(7.3129 -0.0390406 0)
(7.30937 -0.0414157 0)
(7.30556 -0.0438552 0)
(7.3015 -0.0463485 0)
(7.33304 -0.000488194 0)
(7.33367 -0.00123302 0)
(7.33474 -0.00178023 0)
(7.33578 -0.00229064 0)
(7.33675 -0.00275858 0)
(7.33763 -0.0031927 0)
(7.33841 -0.00361992 0)
(7.33907 -0.004049 0)
(7.33961 -0.00448288 0)
(7.34004 -0.00492678 0)
(7.34035 -0.00538594 0)
(7.34055 -0.00586512 0)
(7.34064 -0.0063696 0)
(7.34061 -0.0069052 0)
(7.34046 -0.00747805 0)
(7.3402 -0.00809453 0)
(7.33981 -0.00876111 0)
(7.3393 -0.00948428 0)
(7.33867 -0.0102703 0)
(7.33792 -0.0111252 0)
(7.33704 -0.0120544 0)
(7.33603 -0.0130626 0)
(7.3349 -0.0141537 0)
(7.33363 -0.0153307 0)
(7.33223 -0.0165955 0)
(7.3307 -0.017949 0)
(7.32903 -0.0193909 0)
(7.32723 -0.02092 0)
(7.32528 -0.0225341 0)
(7.3232 -0.0242298 0)
(7.32098 -0.0260031 0)
(7.31862 -0.0278501 0)
(7.31614 -0.0297629 0)
(7.33441 -0.00372371 0)
(7.33932 -0.0071615 0)
(7.34519 -0.00874787 0)
(7.35157 -0.00985865 0)
(7.35835 -0.0105915 0)
(7.36529 -0.0110669 0)
(7.37227 -0.0114372 0)
(7.37926 -0.0117707 0)
(7.38622 -0.0121 0)
(7.39316 -0.0124509 0)
(7.40007 -0.0128416 0)
(7.40697 -0.0132841 0)
(7.41388 -0.0137872 0)
(7.4208 -0.0143574 0)
(7.42777 -0.0149993 0)
(7.43479 -0.0157163 0)
(7.44187 -0.0165105 0)
(7.44902 -0.0173831 0)
(7.45624 -0.0183342 0)
(7.46351 -0.0193631 0)
(7.47084 -0.0204686 0)
(7.47819 -0.0216484 0)
(7.48555 -0.0229 0)
(7.49289 -0.0242202 0)
(7.50019 -0.0256052 0)
(7.5074 -0.0270508 0)
(7.5145 -0.0285526 0)
(7.52145 -0.0301055 0)
(7.52821 -0.0317042 0)
(7.53475 -0.0333431 0)
(7.54103 -0.0350166 0)
(7.54702 -0.0367182 0)
(7.5527 -0.0384425 0)
(7.32972 -0.00408847 0)
(7.32406 -0.0086517 0)
(7.31458 -0.011413 0)
(7.30305 -0.0135392 0)
(7.29091 -0.0151566 0)