/*--------------------------------*- C++ -*----------------------------------*\
  =========                 |
  \\      /  F ield         | OpenFOAM: The Open Source CFD Toolbox
   \\    /   O peration     | Website:  https://openfoam.org
    \\  /    A nd           | Version:  10
     \\/     M anipulation  |
\*---------------------------------------------------------------------------*/
FoamFile
{
    format      ascii;
    class       volScalarField;
    location    "1600";
    object      epsilon;
}
// * * * * * * * * * * * * * * * * * * * * * * * * * * * * * * * * * * * * * //

dimensions      [0 2 -3 0 0 0 0];

internalField   nonuniform List<scalar> 
6820
(
23.348
22.8004
22.2986
21.7956
21.2906
20.7982
20.3323
19.9019
19.5116
19.1626
18.8541
18.584
18.3494
18.1475
17.9753
17.8298
17.7085
17.6087
17.5282
17.4649
17.417
17.3829
17.361
17.35
17.3488
17.3567
17.372
17.3932
17.4494
17.4069
17.5773
20.1051
13.9348
5.24751
7.40641
8.54796
9.16365
9.54997
9.84145
10.0961
10.3395
10.5824
10.8288
11.0799
11.3356
11.5953
11.8584
12.1242
12.392
12.6613
12.9316
13.2024
13.4736
13.7449
14.0164
14.2883
14.5614
14.8364
15.1152
15.4003
15.6917
16.027
16.2738
16.409
20.1346
14.207
3.71892
4.27984
4.80504
5.21576
5.52687
5.76857
5.96481
6.13199
6.28094
6.41875
6.5501
6.67807
6.80467
6.9312
7.05845
7.18689
7.31678
7.44823
7.58125
7.71583
7.85193
7.98953
8.12865
8.2694
8.41199
8.55683
8.70454
8.85569
9.01396
9.17556
9.29247
9.96643
10.51
3.53759
3.62334
3.7716
3.93763
4.09558
4.23619
4.35846
4.46459
4.55761
4.64041
4.71547
4.7848
4.84997
4.91224
4.97254
5.03161
5.09
5.14811
5.20625
5.26467
5.32353
5.38299
5.44319
5.50427
5.5664
5.62984
5.69495
5.76228
5.83247
5.90991
5.98345
6.11301
6.41984
3.52015
3.50151
3.51115
3.54398
3.59069
3.6432
3.69622
3.7469
3.79404
3.83734
3.877
3.91341
3.94707
3.97844
4.00799
4.03611
4.06313
4.08936
4.11503
4.14036
4.16552
4.19067
4.21594
4.24147
4.26742
4.29395
4.3213
4.3498
4.37982
4.41297
4.44874
4.49045
4.56817
3.51931
3.48209
3.45346
3.43537
3.42736
3.42746
3.43327
3.44267
3.45403
3.46624
3.47858
3.49065
3.50221
3.5132
3.52361
3.53349
3.54291
3.55195
3.5607
3.56924
3.57767
3.58605
3.59447
3.60302
3.61177
3.62084
3.63037
3.64053
3.65155
3.66399
3.67828
3.69441
3.71628
3.51943
3.47964
3.44271
3.40975
3.38151
3.35815
3.33934
3.32445
3.31275
3.30355
3.29624
3.29035
3.28549
3.2814
3.27787
3.27476
3.27199
3.26949
3.26722
3.26516
3.26331
3.26168
3.26027
3.25911
3.25823
3.25767
3.2575
3.25781
3.25872
3.26044
3.26323
3.26716
3.27254
3.51947
3.47942
3.44105
3.40466
3.37057
3.33904
3.31021
3.28404
3.26042
3.23912
3.21988
3.20245
3.18657
3.17204
3.15865
3.14625
3.13471
3.12391
3.11378
3.10423
3.09523
3.08671
3.07867
3.07106
3.0639
3.05717
3.05089
3.0451
3.03985
3.03522
3.03134
3.02829
3.02604
3.51948
3.47941
3.44084
3.40381
3.36835
3.33453
3.30243
3.27209
3.24351
3.21666
3.19148
3.16787
3.14573
3.12495
3.10542
3.08702
3.06966
3.05325
3.03771
3.02297
3.00895
2.99562
2.98292
2.97082
2.95929
2.9483
2.93786
2.92795
2.9186
2.90983
2.9017
2.89426
2.88748
3.51948
3.4794
3.44081
3.40368
3.36795
3.3336
3.30063
3.26901
3.23875
3.20982
3.1822
3.15586
3.13075
3.10683
3.08403
3.06231
3.04159
3.02183
3.00296
2.98493
2.9677
2.95121
2.93543
2.92031
2.90583
2.89196
2.87868
2.86598
2.85386
2.84232
2.83138
2.82107
2.81135
3.51948
3.4794
3.44081
3.40365
3.36787
3.33342
3.30025
3.26831
3.23757
3.20798
3.17953
3.15218
3.12589
3.10064
3.07638
3.05309
3.03071
3.00922
2.98858
2.96874
2.94968
2.93135
2.91373
2.89678
2.88048
2.8648
2.84973
2.83524
2.82134
2.80801
2.79526
2.7831
2.77149
3.51948
3.4794
3.4408
3.40364
3.36785
3.33338
3.30017
3.26815
3.23729
3.20753
3.17884
3.15117
3.12448
3.09875
3.07394
3.05001
3.02694
3.00469
2.98323
2.96253
2.94256
2.9233
2.90471
2.88678
2.86948
2.85279
2.8367
2.82118
2.80622
2.79183
2.77799
2.7647
2.75194
3.51948
3.4794
3.44079
3.40363
3.36784
3.33336
3.30014
3.26811
3.23722
3.20741
3.17866
3.1509
3.1241
3.09822
3.07322
3.04908
3.02575
3.00321
2.98143
2.96037
2.94002
2.92034
2.90132
2.88293
2.86515
2.84796
2.83135
2.8153
2.79979
2.78483
2.77039
2.75648
2.74306
3.51948
3.47939
3.44079
3.40362
3.36783
3.33335
3.30012
3.26808
3.23718
3.20737
3.1786
3.15082
3.12398
3.09806
3.07302
3.0488
3.0254
3.00276
2.98086
2.95968
2.93919
2.91936
2.90016
2.88158
2.8636
2.8462
2.82936
2.81306
2.79729
2.78205
2.76732
2.75308
2.73933
3.51947
3.47939
3.44079
3.40362
3.36782
3.33334
3.3001
3.26806
3.23716
3.20734
3.17856
3.15077
3.12394
3.098
3.07294
3.04871
3.02528
3.00262
2.98069
2.95947
2.93893
2.91904
2.89979
2.88114
2.86309
2.8456
2.82867
2.81227
2.7964
2.78103
2.76616
2.75177
2.73785
3.51947
3.47939
3.44078
3.40361
3.36781
3.33333
3.30009
3.26805
3.23714
3.20732
3.17854
3.15074
3.1239
3.09797
3.0729
3.04866
3.02523
3.00256
2.98062
2.95939
2.93883
2.91893
2.89966
2.881
2.86292
2.84541
2.82844
2.81201
2.79609
2.78067
2.76574
2.75128
2.73727
3.51947
3.47939
3.44078
3.40361
3.36781
3.33332
3.30008
3.26803
3.23712
3.2073
3.17851
3.15072
3.12387
3.09794
3.07287
3.04863
3.02519
3.00252
2.98058
2.95934
2.93879
2.91889
2.89961
2.88094
2.86286
2.84533
2.82836
2.81191
2.79597
2.78053
2.76556
2.75106
2.73701
3.51947
3.47939
3.44078
3.4036
3.3678
3.33331
3.30007
3.26802
3.23711
3.20728
3.17849
3.1507
3.12385
3.09791
3.07284
3.0486
3.02516
3.00249
2.98055
2.95931
2.93876
2.91885
2.89958
2.88091
2.86282
2.84529
2.82831
2.81186
2.79591
2.78045
2.76547
2.75094
2.73686
3.51947
3.47939
3.44078
3.4036
3.3678
3.3333
3.30006
3.26801
3.23709
3.20727
3.17848
3.15068
3.12383
3.09789
3.07282
3.04858
3.02514
3.00246
2.98052
2.95929
2.93873
2.91883
2.89955
2.88088
2.86279
2.84526
2.82828
2.81182
2.79586
2.78039
2.76539
2.75085
2.73675
3.51947
3.47939
3.44078
3.4036
3.36779
3.3333
3.30005
3.268
3.23708
3.20725
3.17846
3.15066
3.12381
3.09787
3.0728
3.04856
3.02512
3.00244
2.9805
2.95927
2.93871
2.91881
2.89953
2.88086
2.86277
2.84524
2.82825
2.81178
2.79582
2.78034
2.76533
2.75077
2.73665
3.51947
3.47939
3.44077
3.4036
3.36779
3.33329
3.30005
3.26799
3.23707
3.20724
3.17845
3.15065
3.1238
3.09785
3.07278
3.04854
3.0251
3.00242
2.98048
2.95925
2.93869
2.91878
2.89951
2.88083
2.86274
2.84521
2.82821
2.81174
2.79577
2.78029
2.76527
2.7507
2.73656
3.51947
3.47939
3.44077
3.40359
3.36779
3.33329
3.30004
3.26798
3.23707
3.20723
3.17844
3.15064
3.12378
3.09784
3.07277
3.04852
3.02508
3.0024
2.98046
2.95923
2.93867
2.91876
2.89949
2.88081
2.86272
2.84518
2.82818
2.81171
2.79573
2.78023
2.7652
2.75062
2.73647
3.51947
3.47938
3.44077
3.40359
3.36778
3.33329
3.30004
3.26798
3.23706
3.20723
3.17843
3.15063
3.12377
3.09783
3.07275
3.04851
3.02507
3.00239
2.98045
2.95921
2.93865
2.91875
2.89947
2.88079
2.86269
2.84515
2.82815
2.81167
2.79569
2.78018
2.76515
2.75056
2.73639
3.51947
3.47938
3.44077
3.40359
3.36778
3.33328
3.30003
3.26797
3.23705
3.20722
3.17842
3.15062
3.12376
3.09782
3.07274
3.0485
3.02506
3.00238
2.98043
2.9592
2.93864
2.91873
2.89945
2.88077
2.86267
2.84513
2.82812
2.81163
2.79564
2.78013
2.76509
2.75049
2.73632
3.51947
3.47938
3.44077
3.40359
3.36778
3.33328
3.30003
3.26797
3.23705
3.20721
3.17842
3.15061
3.12376
3.09781
3.07273
3.04849
3.02505
3.00237
2.98042
2.95919
2.93862
2.91872
2.89943
2.88075
2.86265
2.8451
2.82809
2.8116
2.7956
2.78009
2.76503
2.75043
2.73624
3.51947
3.47938
3.44077
3.40359
3.36778
3.33328
3.30003
3.26797
3.23704
3.20721
3.17841
3.15061
3.12375
3.0978
3.07273
3.04848
3.02504
3.00236
2.98041
2.95917
2.93861
2.9187
2.89942
2.88073
2.86263
2.84508
2.82806
2.81157
2.79557
2.78004
2.76498
2.75037
2.73618
3.51947
3.47938
3.44077
3.40359
3.36778
3.33328
3.30003
3.26796
3.23704
3.20721
3.17841
3.1506
3.12375
3.0978
3.07272
3.04848
3.02503
3.00235
2.98041
2.95917
2.9386
2.91869
2.8994
2.88072
2.86261
2.84506
2.82804
2.81154
2.79553
2.78
2.76494
2.75031
2.73611
3.51947
3.47938
3.44077
3.40359
3.36778
3.33328
3.30002
3.26796
3.23704
3.2072
3.17841
3.1506
3.12374
3.0978
3.07272
3.04847
3.02503
3.00235
2.9804
2.95916
2.9386
2.91868
2.89939
2.8807
2.86259
2.84504
2.82802
2.81151
2.7955
2.77997
2.76489
2.75026
2.73606
3.51947
3.47938
3.44077
3.40359
3.36778
3.33328
3.30002
3.26796
3.23704
3.2072
3.1784
3.1506
3.12374
3.09779
3.07272
3.04847
3.02502
3.00234
2.9804
2.95916
2.93859
2.91868
2.89938
2.88069
2.86258
2.84502
2.828
2.81149
2.79547
2.77993
2.76485
2.75022
2.73601
3.51947
3.47938
3.44077
3.40359
3.36778
3.33328
3.30002
3.26796
3.23704
3.2072
3.1784
3.1506
3.12374
3.09779
3.07272
3.04847
3.02503
3.00234
2.9804
2.95916
2.93859
2.91867
2.89938
2.88069
2.86257
2.84501
2.82798
2.81147
2.79545
2.77991
2.76483
2.75019
2.73597
3.51947
3.47938
3.44077
3.40359
3.36778
3.33328
3.30002
3.26796
3.23704
3.2072
3.17841
3.1506
3.12374
3.0978
3.07272
3.04847
3.02503
3.00235
2.9804
2.95916
2.93859
2.91867
2.89938
2.88069
2.86257
2.84501
2.82798
2.81147
2.79545
2.7799
2.76482
2.75018
2.73596
3.51947
3.47938
3.44077
3.40359
3.36778
3.33328
3.30002
3.26796
3.23704
3.20721
3.17841
3.15061
3.12375
3.09781
3.07273
3.04849
3.02505
3.00237
2.98043
2.95919
2.93863
2.91872
2.89943
2.88074
2.86263
2.84508
2.82806
2.81155
2.79554
2.78
2.76493
2.7503
2.73609
3.51947
3.47938
3.44077
3.40359
3.36778
3.33328
3.30003
3.26797
3.23705
3.20721
3.17842
3.15062
3.12377
3.09784
3.07277
3.04855
3.02512
3.00246
2.98054
2.95933
2.9388
2.91892
2.89967
2.88102
2.86295
2.84544
2.82847
2.81202
2.79606
2.78058
2.76557
2.751
2.73686
3.51947
3.47938
3.44077
3.40359
3.36778
3.33329
3.30005
3.26801
3.23712
3.20732
3.17857
3.15083
3.12404
3.09818
3.0732
3.04907
3.02576
3.00322
2.98144
2.96038
2.94001
2.9203
2.90124
2.88279
2.86493
2.84764
2.8309
2.81469
2.79898
2.78376
2.76901
2.75471
2.74084
3.51947
3.47938
3.44078
3.40361
3.36785
3.33342
3.30029
3.26839
3.23768
3.20811
3.17965
3.15224
3.12585
3.10045
3.07598
3.05241
3.02971
3.00784
2.98677
2.96646
2.94688
2.928
2.9098
2.89223
2.87528
2.85892
2.84313
2.82787
2.81313
2.79889
2.78511
2.7718
2.75891
3.51947
3.47942
3.44096
3.40413
3.36894
3.33533
3.30327
3.27269
3.24354
3.21577
3.18932
3.16413
3.14014
3.1173
3.09556
3.07484
3.0551
3.03629
3.01834
3.00121
2.98486
2.96923
2.95428
2.93998
2.92628
2.91314
2.90054
2.88845
2.87683
2.86565
2.8549
2.84454
2.83456
3.5195
3.48076
3.44538
3.41321
3.38397
3.35748
3.33355
3.31202
3.2927
3.2754
3.25994
3.24613
3.2338
3.22278
3.21293
3.20411
3.1962
3.18909
3.18267
3.17686
3.17158
3.16676
3.16235
3.15828
3.15451
3.151
3.14771
3.14461
3.14168
3.13887
3.13619
3.1336
3.1311
3.52507
3.51485
3.52105
3.53657
3.5585
3.58531
3.61595
3.64951
3.68518
3.72227
3.76024
3.79863
3.8371
3.87535
3.91315
3.95035
3.98679
4.02239
4.05707
4.09078
4.12348
4.15515
4.18578
4.21538
4.24394
4.27149
4.29803
4.32359
4.34819
4.37185
4.3946
4.41647
4.43748
3.84201
4.38781
4.87747
5.34253
5.79452
6.23493
6.66171
7.0735
7.47028
7.85265
8.22134
8.57711
8.92074
9.25293
9.57435
9.88556
10.1871
10.4793
10.7627
11.0377
11.3044
11.5634
11.8148
12.0589
12.2959
12.5262
12.7499
12.9673
13.1786
13.384
13.5837
13.7778
13.9667
30.2673
32.7691
35.3054
37.8487
40.3863
42.91
45.4131
47.8886
50.3298
52.7308
55.0863
57.3918
59.6433
61.8376
63.9719
66.0441
68.0527
69.9965
71.8749
73.6877
75.4349
77.1169
78.7343
80.2881
81.7793
83.2092
84.5792
85.8907
87.1454
88.3449
89.491
90.5851
91.6301
211.112
860.463
1123.09
1017.57
836.863
721.286
687.97
701.392
720.775
725.537
712.084
683.62
645.067
601.351
556.633
513.921
475.037
440.802
411.294
386.113
364.612
346.097
329.973
315.833
303.491
292.928
284.189
277.224
271.766
267.29
263.087
258.409
252.616
245.27
236.179
225.406
213.278
200.37
187.462
175.429
165.1
157.095
151.697
148.791
147.922
148.428
149.613
150.883
151.804
152.108
151.651
150.367
148.228
145.222
141.353
136.641
131.132
124.906
118.078
110.799
103.243
95.605
88.0818
80.8585
74.0934
67.9036
62.3556
57.4618
53.1857
49.4538
46.1726
43.2459
40.5894
38.1392
35.8551
33.7201
31.7367
29.9236
28.3123
26.9445
25.8689
25.134
24.773
24.7861
25.127
25.7074
26.4181
27.1548
27.837
28.4141
28.8627
29.179
29.3704
29.4483
29.4248
29.3077
29.1072
28.8135
28.4981
27.8004
1.17195
128.584
333.7
430.981
425.035
387.412
365.88
378.126
417.344
461.358
491.124
500.02
490.874
469.996
443.252
414.927
387.727
363.089
341.537
322.988
307.024
293.112
280.775
269.707
259.825
251.236
244.125
238.595
234.506
231.393
228.52
225.035
220.176
213.416
204.554
193.722
181.368
168.197
155.079
142.936
132.603
124.703
119.535
117.022
116.738
118.023
120.147
122.451
124.432
125.758
126.242
125.797
124.391
122.027
118.727
114.538
109.528
103.801
97.4892
90.7573
83.7907
76.7864
69.9397
63.4293
57.4037
51.9689
47.181
43.0441
39.5156
36.5184
33.9566
31.7325
29.76
27.9732
26.3297
24.8094
23.4114
22.1504
21.0541
20.1608
19.5171
19.1712
19.1592
19.4864
20.1136
20.9604
21.9239
22.905
23.8259
24.6371
25.315
25.8545
26.2612
26.5448
26.7152
26.7794
26.7462
26.6066
26.4249
25.9
5.41597
7.47619
46.0806
97.0934
129.525
141.466
142.494
143.575
153.207
174.132
201.685
228.23
247.83
258.16
260.248
256.613
249.788
241.672
233.422
225.59
218.31
211.493
204.997
198.757
192.864
187.558
183.169
179.966
177.992
176.941
176.156
174.771
171.941
167.056
159.87
150.537
139.561
127.706
115.86
104.91
95.6232
88.5687
84.0513
82.0705
82.3165
84.2332
87.1415
90.3774
93.3932
95.8
97.3591
97.9481
97.5218
96.0832
93.6676
90.3367
86.1797
81.3145
75.888
70.0708
64.0506
58.02
52.1645
46.6485
41.6039
37.1207
33.2418
29.9639
27.2425
25.0035
23.1567
21.6105
20.2836
19.1127
18.0554
17.0897
16.2109
15.4287
14.7647
14.2517
13.9319
13.8532
14.0574
14.5616
15.343
16.3366
17.4517
18.5956
19.6923
20.6908
21.564
22.303
22.9091
23.3884
23.7479
23.9919
24.1277
24.1468
24.1036
23.7653
5.93613
4.16063
6.01844
14.3239
24.9705
33.8728
39.6101
42.4154
43.9329
46.554
51.9893
60.454
71.0891
82.4724
93.0785
101.907
108.624
113.373
116.504
118.372
119.237
119.256
118.538
117.208
115.47
113.624
112.043
111.094
110.999
111.7
112.774
113.507
113.087
110.855
106.494
100.095
92.121
83.2752
74.3488
66.0791
59.062
53.7221
50.3123
48.9084
49.3876
51.421
54.5187
58.1237
61.7144
64.8746
67.3174
68.8733
69.4635
69.0724
67.7291
65.4972
62.4708
58.7729
54.5521
49.9768
45.2265
40.4802
35.9036
31.6374
27.788
24.4217
21.564
19.2029
17.2957
15.7784
14.5762
13.6137
12.8236
12.1525
11.5629
11.0336
10.5575
10.1389
9.79286
9.54375
9.42647
9.48498
9.76516
10.299
11.0863
12.0864
13.2274
14.4266
15.6104
16.7247
17.7371
18.6318
19.4044
20.0551
20.5864
20.9994
21.298
21.474
21.5695
21.4266
4.61669
4.32633
4.08403
4.72985
6.36113
8.48672
10.5765
12.1701
13.0459
13.4396
13.9177
14.9838
16.8182
19.4628
22.8739
26.8546
31.1193
35.3759
39.3808
42.9545
45.9739
48.3629
50.0923
51.19
51.7511
51.9401
51.9815
52.135
52.6434
53.6398
55.0393
56.4876
57.4345
57.3225
55.7938
52.8115
48.6525
43.7988
38.7914
34.1081
30.1034
27.0093
24.9715
24.0809
24.37
25.7765
28.11
31.0609
34.2569
37.3347
39.9954
42.0277
43.305
43.7718
43.4269
42.3128
40.5075
38.1195
35.2821
32.145
28.8646
25.5916
22.4594
19.5741
17.0088
14.8021
12.9612
11.4683
10.2877
9.3729
8.67256
8.13608
7.71785
7.38051
7.09668
6.84926
6.63063
6.44147
6.28985
6.19134
6.17027
6.26113
6.50659
6.94779
7.60735
8.47472
9.50524
10.6338
11.7932
12.928
13.9995
14.9844
15.8701
16.6503
17.3212
17.8793
18.3239
18.6464
18.8735
18.9274
3.74806
3.7441
3.69415
3.71098
3.89388
4.25062
4.72692
5.21479
5.58305
5.77006
5.84797
5.96335
6.21033
6.64374
7.30388
8.2035
9.32639
10.6297
12.0492
13.507
14.9202
16.2104
17.3142
18.1934
18.8417
19.2865
19.5853
19.8197
20.086
20.4743
21.0286
21.6968
22.3102
22.627
22.4314
21.6291
20.2813
18.5689
16.7184
14.9345
13.3662
12.107
11.2165
10.7467
10.755
11.2926
12.3724
13.9354
15.8415
17.8919
19.8713
21.5868
22.8918
23.694
23.952
23.6692
22.8867
21.6768
20.135
18.3714
16.4997
14.6263
12.841
11.2103
9.77483
8.55184
7.53953
6.72312
6.08021
5.5848
5.20992
4.92933
4.71894
4.55807
4.43046
4.32487
4.23514
4.1599
4.10236
4.07047
4.07816
4.14735
4.30947
4.60259
5.06116
5.70103
6.50963
7.44866
8.46663
9.51272
10.5454
11.5349
12.4609
13.3097
14.0707
14.7346
15.2952
15.7422
16.0849
16.3257
3.28166
3.29179
3.29394
3.29359
3.30882
3.35705
3.44584
3.56291
3.67427
3.74522
3.77119
3.78117
3.8087
3.88127
4.01777
4.22803
4.51337
4.86748
5.27722
5.72359
6.18321
6.63064
7.0417
7.39714
7.68565
7.90542
8.06371
8.17544
8.26162
8.34669
8.45165
8.58169
8.71435
8.7999
8.77979
8.61392
8.29899
7.86756
7.37235
6.86781
6.39819
5.99463
5.67924
5.47281
5.40185
5.50018
5.80135
6.32345
7.05348
7.94013
8.89967
9.83229
10.6411
11.2475
11.5995
11.6742
11.4768
11.0366
10.4013
9.62991
8.78477
7.92383
7.09481
6.33189
5.65533
5.0734
4.58544
4.18521
3.86353
3.61005
3.41419
3.26548
3.15391
3.07029
3.00668
2.95695
2.91709
2.88538
2.86245
2.85152
2.85916
2.89676
2.98264
3.14306
3.40906
3.80761
4.35064
5.0291
5.81598
6.67513
7.57036
8.47064
9.35131
10.1927
10.9783
11.693
12.3249
12.861
13.2921
13.6957
3.02465
3.025
3.02544
3.0238
3.02082
3.02092
3.02974
3.04906
3.07289
3.09031
3.09453
3.08856
3.08175
3.08505
3.1076
3.1553
3.23048
3.33229
3.45716
3.59928
3.75116
3.90435
4.05037
4.18184
4.2934
4.38234
4.44855
4.49418
4.5232
4.54099
4.55337
4.56437
4.57321
4.57298
4.55276
4.50268
4.41865
4.30404
4.168
4.02218
3.87777
3.74409
3.62866
3.53872
3.4833
3.47461
3.52721
3.65421
3.8616
4.14322
4.47883
4.83645
5.17801
5.46625
5.67082
5.77223
5.76347
5.64966
5.4459
5.17406
4.85896
4.52472
4.19196
3.87618
3.58748
3.33114
3.10877
2.91953
2.76119
2.63087
2.52539
2.44144
2.37564
2.32457
2.285
2.25409
2.22971
2.21057
2.19645
2.18836
2.1889
2.20311
2.23987
2.31356
2.44446
2.65587
2.96774
3.38975
3.91796
4.53676
5.22389
5.95543
6.70876
7.46312
8.19927
8.89858
9.54409
10.1208
10.6015
11.1274
2.8804
2.87356
2.86747
2.86089
2.85293
2.84413
2.83634
2.83123
2.82853
2.82567
2.8198
2.81006
2.79809
2.78725
2.78125
2.78327
2.79531
2.81805
2.85088
2.89209
2.93913
2.98889
3.03808
3.08365
3.12314
3.15493
3.17828
3.19325
3.20053
3.20134
3.19727
3.18986
3.17991
3.16694
3.14928
3.12488
3.09236
3.05168
3.00418
2.95209
2.89801
2.84445
2.79376
2.7484
2.71143
2.68702
2.68054
2.69761
2.74236
2.81552
2.91307
3.02622
3.14272
3.24899
3.3325
3.38365
3.39698
3.37152
3.31036
3.2197
3.10754
2.98237
2.85203
2.72296
2.59989
2.48588
2.38254
2.29045
2.2095
2.13921
2.0789
2.02777
1.9849
1.94928
1.91981
1.89542
1.87517
1.85837
1.84471
1.8344
1.82831
1.8284
1.83844
1.86511
1.91912
2.01512
2.16953
2.39652
2.70409
3.09236
3.55439
4.07854
4.65056
5.25479
5.87455
6.49194
7.08844
7.64886
8.13146
8.72264
2.80074
2.78942
2.77863
2.76781
2.75636
2.74419
2.73179
2.71989
2.70885
2.69829
2.68738
2.6754
2.66231
2.64875
2.63584
2.62487
2.61695
2.61282
2.61275
2.61649
2.62335
2.6323
2.64209
2.65144
2.65924
2.66461
2.66701
2.66625
2.66236
2.65564
2.64657
2.63573
2.62361
2.61046
2.59616
2.58035
2.56258
2.54254
2.52015
2.49556
2.46912
2.44132
2.41278
2.38433
2.35709
2.33266
2.31314
2.30092
2.29816
2.30607
2.3243
2.35065
2.38135
2.41172
2.43693
2.45284
2.45659
2.44681
2.42367
2.38863
2.34402
2.2926
2.23716
2.1802
2.12372
2.06916
2.01747
1.96917
1.92448
1.88348
1.84612
1.81232
1.78195
1.75483
1.73072
1.70931
1.6903
1.67342
1.65849
1.64551
1.63475
1.62685
1.62327
1.62675
1.64215
1.67708
1.74161
1.84685
2.00261
2.21539
2.48748
2.81725
3.19991
3.62802
4.09162
4.57816
5.07214
5.56149
5.99699
6.58623
2.75862
2.7445
2.73071
2.717
2.70304
2.68871
2.67414
2.65962
2.6454
2.63152
2.61779
2.60392
2.5897
2.5751
2.56032
2.54571
2.53171
2.51871
2.50702
2.49677
2.48789
2.48014
2.47314
2.46644
2.45957
2.45212
2.44382
2.43451
2.42417
2.41291
2.40092
2.38846
2.3758
2.36313
2.35052
2.33786
2.32492
2.31138
2.29687
2.28108
2.26377
2.24482
2.22431
2.20246
2.17975
2.15689
2.13485
2.11479
2.09786
2.08497
2.0765
2.07216
2.07093
2.07125
2.07135
2.06947
2.06421
2.05467
2.04051
2.02188
1.99936
1.97376
1.94599
1.91692
1.8873
1.85771
1.82855
1.80009
1.77249
1.74585
1.72026
1.69578
1.67249
1.65043
1.62964
1.61012
1.59184
1.57473
1.55875
1.54389
1.5302
1.5179
1.50746
1.4999
1.4972
1.50278
1.52179
1.56094
1.62757
1.7284
1.86854
2.05097
2.27661
2.54437
2.85098
3.19068
3.55401
3.93478
4.2851
4.80777
2.73768
2.72184
2.70622
2.69069
2.67507
2.65927
2.64335
2.62742
2.61161
2.59601
2.5806
2.56526
2.54988
2.53434
2.5186
2.5027
2.48675
2.47089
2.45528
2.44005
2.42528
2.41097
2.39705
2.3834
2.36988
2.35633
2.34266
2.3288
2.31479
2.3007
2.28668
2.2729
2.25952
2.24665
2.23433
2.22246
2.21082
2.19909
2.18687
2.17376
2.15938
2.14347
2.12591
2.10672
2.08612
2.06451
2.04242
2.02051
1.99949
1.98
1.96249
1.94717
1.93389
1.92225
1.91163
1.90134
1.89073
1.87926
1.86661
1.85263
1.83734
1.82088
1.80346
1.78531
1.76663
1.74758
1.72829
1.70883
1.68926
1.66965
1.65005
1.63055
1.61124
1.59222
1.57359
1.55542
1.53777
1.52069
1.50418
1.48826
1.47293
1.45824
1.44435
1.43158
1.42067
1.41299
1.41085
1.41762
1.43766
1.47575
1.53647
1.62371
1.74032
1.88806
2.06742
2.27742
2.51407
2.77687
3.02631
3.43776
2.728
2.71117
2.69448
2.67785
2.66121
2.64448
2.6277
2.61091
2.59419
2.5776
2.56114
2.54478
2.52845
2.51208
2.4956
2.47897
2.46219
2.4453
2.42835
2.4114
2.39454
2.37779
2.3612
2.34474
2.32839
2.31213
2.29594
2.27983
2.26386
2.24814
2.23279
2.21796
2.20377
2.19031
2.17755
2.16541
2.15367
2.14201
2.13007
2.11745
2.10378
2.08878
2.07226
2.05419
2.03468
2.01395
1.99238
1.9704
1.94851
1.92718
1.90681
1.8877
1.86999
1.85364
1.83851
1.82436
1.81088
1.79781
1.78489
1.77193
1.75882
1.74546
1.73181
1.71784
1.70353
1.68887
1.67381
1.65836
1.6425
1.62624
1.60963
1.59273
1.57561
1.55836
1.54109
1.52386
1.50677
1.48988
1.47321
1.45678
1.44062
1.42471
1.4091
1.39387
1.37928
1.36584
1.35446
1.34665
1.34457
1.35097
1.36892
1.40154
1.45168
1.52171
1.6134
1.72784
1.86416
2.02501
2.18188
2.46895
2.72384
2.70646
2.68918
2.67194
2.6547
2.63743
2.62013
2.60283
2.58557
2.56839
2.55129
2.53428
2.5173
2.50032
2.48328
2.46614
2.44888
2.43149
2.414
2.39643
2.37883
2.36122
2.34364
2.32611
2.30865
2.29128
2.274
2.25687
2.23996
2.22337
2.20722
2.19164
2.17674
2.16258
2.14915
2.13635
2.12398
2.11176
2.09937
2.08646
2.0727
2.05781
2.04162
2.02406
2.00517
1.98513
1.96419
1.94268
1.92097
1.89944
1.87843
1.85823
1.83904
1.82095
1.804
1.78811
1.77318
1.75905
1.74556
1.73254
1.71985
1.70734
1.69488
1.68235
1.66964
1.65665
1.64331
1.62954
1.61531
1.60061
1.58544
1.56984
1.55389
1.53764
1.52117
1.50458
1.48791
1.47123
1.45458
1.43798
1.42144
1.40494
1.3885
1.37212
1.35589
1.33998
1.32475
1.3108
1.29908
1.29092
1.28803
1.29236
1.30599
1.33093
1.36899
1.42176
1.48965
1.57604
1.66252
1.83982
2.72214
2.70448
2.68688
2.66932
2.65175
2.63418
2.61658
2.59899
2.58142
2.5639
2.54643
2.52901
2.51162
2.49424
2.47681
2.45933
2.44176
2.4241
2.40635
2.38851
2.37063
2.35271
2.33478
2.31687
2.299
2.2812
2.2635
2.24594
2.22861
2.21158
2.19497
2.17888
2.16342
2.14863
2.13451
2.12096
2.10783
2.09488
2.08183
2.06838
2.05425
2.0392
2.02306
2.00576
1.9873
1.96782
1.9475
1.92659
1.9054
1.88423
1.86337
1.84307
1.82355
1.80493
1.7873
1.77067
1.75501
1.74022
1.72621
1.71284
1.69998
1.68748
1.6752
1.66298
1.6507
1.63822
1.62545
1.6123
1.59872
1.58466
1.57015
1.55518
1.53982
1.52411
1.50812
1.49191
1.47554
1.45905
1.44248
1.42585
1.40916
1.39241
1.37559
1.35869
1.34174
1.3248
1.308
1.29159
1.27595
1.26166
1.24954
1.24062
1.2361
1.23734
1.2457
1.26255
1.28865
1.32688
1.36671
1.46182
2.72145
2.70364
2.68588
2.66813
2.65039
2.63264
2.61489
2.59713
2.57939
2.56167
2.54399
2.52633
2.50869
2.49106
2.4734
2.45569
2.43793
2.42011
2.40221
2.38426
2.36625
2.34822
2.33017
2.31214
2.29413
2.27619
2.25833
2.24061
2.22309
2.20584
2.18896
2.17253
2.15664
2.14133
2.12659
2.11235
2.09849
2.08481
2.07109
2.05706
2.04251
2.02721
2.01102
1.99386
1.97573
1.95671
1.93695
1.91665
1.89605
1.87539
1.85494
1.83491
1.81548
1.79681
1.77899
1.76205
1.74601
1.73081
1.71638
1.70262
1.68943
1.67665
1.66416
1.65181
1.63946
1.62699
1.61429
1.60127
1.58787
1.57404
1.55978
1.5451
1.53002
1.5146
1.49887
1.4829
1.46671
1.45037
1.43388
1.41728
1.40055
1.38371
1.36673
1.34961
1.33236
1.315
1.2976
1.28025
1.26311
1.24643
1.23057
1.21599
1.20333
1.1933
1.18675
1.18462
1.18757
1.19754
1.20959
1.25002
2.72113
2.70324
2.68538
2.66753
2.64969
2.63184
2.61399
2.59614
2.57829
2.56046
2.54265
2.52485
2.50706
2.48927
2.47147
2.45363
2.43576
2.41783
2.39986
2.38185
2.3638
2.34573
2.32765
2.30958
2.29154
2.27356
2.25566
2.23788
2.22028
2.20291
2.18586
2.16919
2.15297
2.13723
2.12197
2.10714
2.09264
2.07831
2.06397
2.04941
2.03444
2.01888
2.0026
1.98553
1.96765
1.94902
1.92975
1.91
1.88996
1.86984
1.84985
1.83018
1.81101
1.79247
1.77464
1.7576
1.74134
1.72586
1.71111
1.69699
1.68343
1.6703
1.65747
1.64482
1.63222
1.61956
1.60671
1.59361
1.58017
1.56637
1.55218
1.5376
1.52265
1.50736
1.49178
1.47594
1.45988
1.44364
1.42722
1.41066
1.39394
1.37708
1.36005
1.34286
1.3255
1.308
1.29038
1.2727
1.25504
1.2375
1.22024
1.20347
1.18747
1.1726
1.15929
1.14808
1.13942
1.13433
1.13142
1.13888
2.72094
2.70301
2.68508
2.66716
2.64925
2.63134
2.61343
2.59551
2.5776
2.55969
2.5418
2.52391
2.50603
2.48814
2.47024
2.45232
2.43438
2.4164
2.39839
2.38034
2.36228
2.3442
2.32612
2.30806
2.29002
2.27203
2.25413
2.23633
2.21869
2.20126
2.18409
2.16723
2.15075
2.13467
2.11899
2.10366
2.08861
2.07373
2.05885
2.04383
2.02849
2.01268
1.99631
1.97928
1.9616
1.94328
1.92443
1.90516
1.88562
1.86599
1.84645
1.82717
1.80828
1.78992
1.77217
1.7551
1.73873
1.72304
1.70802
1.69359
1.67968
1.66619
1.653
1.64002
1.62711
1.61417
1.6011
1.58782
1.57426
1.56038
1.54616
1.53159
1.51669
1.50147
1.48596
1.4702
1.45422
1.43804
1.42168
1.40516
1.38847
1.37161
1.35458
1.33738
1.32001
1.30248
1.28482
1.26706
1.24925
1.23145
1.21373
1.19619
1.17896
1.1622
1.14612
1.13097
1.11706
1.10469
1.09455
1.08398
2.7208
2.70283
2.68486
2.66689
2.64893
2.63097
2.61301
2.59504
2.57708
2.55912
2.54116
2.52321
2.50526
2.48731
2.46935
2.45137
2.43338
2.41536
2.39733
2.37927
2.3612
2.34313
2.32506
2.307
2.28898
2.27101
2.2531
2.2353
2.21764
2.20016
2.18289
2.1659
2.14921
2.13285
2.11681
2.10108
2.08559
2.07024
2.05491
2.03949
2.02382
2.0078
1.99132
1.97433
1.95679
1.93874
1.92023
1.90136
1.88226
1.86307
1.84393
1.825
1.80639
1.78823
1.77058
1.75352
1.73707
1.72124
1.70599
1.69129
1.67707
1.66324
1.64971
1.63638
1.62315
1.60992
1.5966
1.58311
1.56939
1.5554
1.54111
1.5265
1.51159
1.4964
1.48093
1.46522
1.44928
1.43315
1.41683
1.40034
1.38368
1.36685
1.34984
1.33267
1.31532
1.29782
1.28018
1.26244
1.24463
1.22679
1.20896
1.19121
1.17359
1.15618
1.13908
1.1224
1.10634
1.09079
1.07751
1.05801
2.72068
2.70268
2.68467
2.66667
2.64867
2.63066
2.61266
2.59465
2.57665
2.55864
2.54064
2.52263
2.50463
2.48663
2.46862
2.4506
2.43257
2.41453
2.39648
2.37841
2.36034
2.34227
2.3242
2.30616
2.28815
2.27019
2.25229
2.23449
2.21681
2.19928
2.18194
2.16482
2.14796
2.13138
2.11506
2.09899
2.08313
2.0674
2.0517
2.03594
2.02
2.00378
1.98721
1.97022
1.9528
1.93495
1.91673
1.8982
1.87947
1.86065
1.84188
1.82326
1.80491
1.78693
1.7694
1.75236
1.73587
1.71991
1.70448
1.68954
1.67504
1.66091
1.64706
1.63342
1.61988
1.60637
1.5928
1.57909
1.5652
1.55107
1.53668
1.52202
1.50708
1.49188
1.47642
1.46073
1.44483
1.42873
1.41245
1.39599
1.37936
1.36255
1.34558
1.32844
1.31113
1.29368
1.27609
1.25841
1.24065
1.22286
1.20506
1.1873
1.16961
1.15203
1.13462
1.11742
1.10059
1.08377
1.06929
1.04579
2.72057
2.70254
2.68451
2.66647
2.64844
2.6304
2.61236
2.59431
2.57627
2.55822
2.54018
2.52213
2.50409
2.48604
2.46799
2.44994
2.43188
2.41381
2.39574
2.37766
2.35959
2.34152
2.32346
2.30542
2.28742
2.26946
2.25157
2.23376
2.21606
2.19849
2.18108
2.16386
2.14686
2.13008
2.11353
2.09719
2.08102
2.06497
2.04897
2.03292
2.01675
2.00037
1.98371
1.96672
1.94939
1.9317
1.91371
1.89546
1.87705
1.85855
1.84008
1.82174
1.80362
1.78581
1.76839
1.75139
1.73486
1.71881
1.70323
1.68809
1.67334
1.65894
1.64481
1.63087
1.61705
1.60327
1.58945
1.57554
1.56147
1.5472
1.5327
1.51797
1.50299
1.48776
1.47231
1.45663
1.44075
1.42467
1.40841
1.39198
1.37538
1.35861
1.34167
1.32456
1.30731
1.28991
1.2724
1.25478
1.2371
1.21939
1.20166
1.18396
1.16631
1.14874
1.13129
1.11396
1.09691
1.07966
1.06479
1.03968
2.72047
2.70242
2.68436
2.66629
2.64823
2.63016
2.61209
2.59401
2.57593
2.55785
2.53977
2.52169
2.5036
2.48552
2.46744
2.44935
2.43127
2.41318
2.39508
2.37699
2.35891
2.34083
2.32278
2.30474
2.28674
2.26878
2.25088
2.23306
2.21533
2.19773
2.18026
2.16295
2.14582
2.12889
2.11214
2.09557
2.07916
2.06285
2.04658
2.0303
2.01393
1.99741
1.98067
1.96368
1.9464
1.92885
1.91105
1.89303
1.87488
1.85665
1.83845
1.82035
1.80243
1.78478
1.76746
1.7505
1.73396
1.71783
1.70212
1.6868
1.67184
1.6572
1.64281
1.62861
1.61453
1.6005
1.58646
1.57234
1.5581
1.54369
1.52909
1.51427
1.49924
1.48399
1.46852
1.45284
1.43697
1.42091
1.40468
1.38827
1.37169
1.35495
1.33805
1.321
1.30379
1.28646
1.26901
1.25148
1.23388
1.21625
1.19861
1.18099
1.16342
1.14592
1.12852
1.11122
1.09414
1.07679
1.06184
1.03616
2.72038
2.7023
2.68422
2.66613
2.64804
2.62994
2.61184
2.59373
2.57562
2.55751
2.5394
2.52128
2.50317
2.48505
2.46694
2.44883
2.43071
2.4126
2.39449
2.37638
2.35829
2.3402
2.32214
2.3041
2.28609
2.26812
2.25022
2.23238
2.21463
2.19698
2.17945
2.16206
2.14483
2.12776
2.11085
2.0941
2.07747
2.06094
2.04447
2.02799
2.01146
1.99481
1.978
1.96099
1.94376
1.92631
1.90866
1.89084
1.8729
1.85491
1.83693
1.81903
1.8013
1.78379
1.76656
1.74965
1.73309
1.7169
1.70108
1.68562
1.67048
1.65563
1.64101
1.62658
1.61226
1.59801
1.58375
1.56945
1.55504
1.5405
1.52579
1.51089
1.4958
1.48051
1.46502
1.44934
1.43348
1.41743
1.40122
1.38484
1.36829
1.35159
1.33473
1.31772
1.30057
1.2833
1.26593
1.24847
1.23096
1.21342
1.19587
1.17834
1.16086
1.14344
1.12611
1.10888
1.09186
1.07453
1.05959
1.03378
2.72029
2.7022
2.6841
2.66599
2.64787
2.62975
2.61162
2.59349
2.57535
2.55721
2.53907
2.52092
2.50278
2.48463
2.46649
2.44835
2.43021
2.41207
2.39394
2.37582
2.35771
2.33961
2.32154
2.30348
2.28547
2.26749
2.24957
2.23171
2.21393
2.19624
2.17866
2.1612
2.14388
2.12669
2.10964
2.09273
2.07593
2.05923
2.04257
2.02593
2.00925
1.9925
1.97562
1.9586
1.94141
1.92404
1.90651
1.88885
1.87109
1.85329
1.8355
1.81779
1.80021
1.78282
1.76568
1.74881
1.73225
1.71602
1.70011
1.68452
1.66922
1.65419
1.63937
1.62473
1.6102
1.59575
1.5813
1.56682
1.55227
1.5376
1.52278
1.50781
1.49266
1.47734
1.46183
1.44615
1.43029
1.41426
1.39806
1.38171
1.3652
1.34853
1.33172
1.31476
1.29767
1.28047
1.26317
1.24579
1.22836
1.2109
1.19344
1.176
1.15861
1.14128
1.12403
1.10687
1.08992
1.07265
1.05777
1.03198
2.7202
2.7021