/*--------------------------------*- C++ -*----------------------------------*\
  =========                 |
  \\      /  F ield         | OpenFOAM: The Open Source CFD Toolbox
   \\    /   O peration     | Website:  https://openfoam.org
    \\  /    A nd           | Version:  10
     \\/     M anipulation  |
\*---------------------------------------------------------------------------*/
FoamFile
{
    format      ascii;
    class       volScalarField;
    location    "1600";
    object      k;
}
// * * * * * * * * * * * * * * * * * * * * * * * * * * * * * * * * * * * * * //

dimensions      [0 2 -2 0 0 0 0];

internalField   nonuniform List<scalar> 
6820
(
0.19714
0.192517
0.18828
0.184033
0.179769
0.175612
0.171677
0.168043
0.164748
0.161801
0.159197
0.156915
0.154935
0.15323
0.151776
0.150548
0.149523
0.14868
0.148001
0.147467
0.147063
0.146775
0.146591
0.146499
0.14649
0.146557
0.146694
0.146851
0.147299
0.147299
0.144846
0.157476
0.105794
0.207249
0.212377
0.210057
0.205418
0.200995
0.197552
0.195145
0.193621
0.192792
0.192493
0.192598
0.193007
0.193649
0.194469
0.195426
0.196488
0.197632
0.198838
0.200093
0.201386
0.202708
0.204055
0.205425
0.206817
0.208237
0.209695
0.21121
0.212774
0.214611
0.216447
0.216023
0.237381
0.20867
0.200993
0.203847
0.204551
0.203318
0.201177
0.198803
0.196518
0.194452
0.19265
0.191117
0.18984
0.188799
0.187973
0.18734
0.186878
0.186569
0.186394
0.186337
0.186384
0.186524
0.186744
0.187038
0.187396
0.187813
0.188285
0.188811
0.189392
0.19003
0.190728
0.191647
0.191986
0.19604
0.201346
0.199593
0.199508
0.199518
0.199121
0.198258
0.197061
0.195675
0.194212
0.192747
0.191324
0.189973
0.188708
0.187537
0.186465
0.185489
0.184608
0.183818
0.183115
0.182492
0.181946
0.181471
0.181063
0.180718
0.180433
0.180204
0.180032
0.179916
0.179862
0.179868
0.180023
0.180187
0.180755
0.182836
0.199411
0.198475
0.197748
0.197076
0.196333
0.195471
0.194494
0.193431
0.192314
0.191172
0.190029
0.188901
0.187801
0.186738
0.185718
0.184744
0.183819
0.182943
0.182117
0.181341
0.180612
0.179931
0.179296
0.178706
0.17816
0.177658
0.177201
0.176792
0.176433
0.176157
0.175953
0.175816
0.17604
0.199395
0.198255
0.197227
0.19629
0.195403
0.194525
0.193631
0.19271
0.191764
0.190799
0.189823
0.188846
0.187874
0.186914
0.185972
0.185051
0.184156
0.183287
0.182448
0.181638
0.180859
0.180111
0.179394
0.178708
0.178054
0.177432
0.176843
0.176288
0.175771
0.175302
0.174887
0.174515
0.174233
0.199394
0.198216
0.197096
0.196039
0.195039
0.194082
0.193155
0.192244
0.191342
0.190445
0.189552
0.188663
0.18778
0.186907
0.186044
0.185196
0.184362
0.183546
0.182748
0.181969
0.181212
0.180475
0.179761
0.179068
0.178398
0.177751
0.177128
0.176531
0.175961
0.175423
0.17492
0.174454
0.174027
0.199395
0.19821
0.197068
0.19597
0.194919
0.193911
0.192941
0.192004
0.191094
0.190205
0.189335
0.188481
0.187641
0.186815
0.186003
0.185205
0.184421
0.183653
0.1829
0.182162
0.181441
0.180737
0.18005
0.17938
0.178727
0.178093
0.177477
0.176881
0.176307
0.175755
0.17523
0.174732
0.174263
0.199395
0.198209
0.197062
0.195954
0.194885
0.193855
0.192861
0.191902
0.190974
0.190076
0.189203
0.188354
0.187526
0.186718
0.185929
0.185157
0.184402
0.183664
0.182942
0.182235
0.181544
0.180869
0.18021
0.179566
0.178937
0.178325
0.177728
0.177149
0.176587
0.176044
0.175521
0.175022
0.174545
0.199395
0.198209
0.197061
0.195951
0.194877
0.193838
0.192835
0.191864
0.190926
0.190017
0.189137
0.188284
0.187455
0.18665
0.185867
0.185104
0.184361
0.183637
0.182931
0.182242
0.18157
0.180914
0.180274
0.17965
0.179041
0.178447
0.177869
0.177306
0.176759
0.17623
0.175718
0.175226
0.174753
0.199395
0.198209
0.197061
0.19595
0.194874
0.193834
0.192827
0.191852
0.190908
0.189994
0.189109
0.188251
0.187419
0.186612
0.185828
0.185067
0.184327
0.183608
0.182908
0.182226
0.181563
0.180917
0.180288
0.179675
0.179078
0.178497
0.177931
0.17738
0.176846
0.176327
0.175825
0.175341
0.174873
0.199395
0.198209
0.19706
0.195949
0.194874
0.193832
0.192824
0.191848
0.190902
0.189986
0.189098
0.188237
0.187403
0.186593
0.185808
0.185046
0.184305
0.183587
0.182888
0.182209
0.181549
0.180907
0.180282
0.179675
0.179084
0.178509
0.17795
0.177407
0.176879
0.176367
0.175872
0.175392
0.174929
0.199395
0.198209
0.19706
0.195949
0.194873
0.193832
0.192823
0.191846
0.1909
0.189983
0.189094
0.188232
0.187396
0.186585
0.185799
0.185035
0.184294
0.183575
0.182876
0.182197
0.181538
0.180897
0.180274
0.179668
0.17908
0.178507
0.177951
0.177411
0.176887
0.176379
0.175886
0.175408
0.174946
0.199395
0.198209
0.19706
0.195949
0.194873
0.193831
0.192822
0.191845
0.190899
0.189981
0.189092
0.188229
0.187393
0.186581
0.185794
0.18503
0.184289
0.183569
0.182869
0.18219
0.181531
0.18089
0.180267
0.179662
0.179074
0.178503
0.177948
0.177409
0.176886
0.176378
0.175886
0.175409
0.174947
0.199395
0.198208
0.19706
0.195948
0.194872
0.193831
0.192822
0.191845
0.190898
0.18998
0.18909
0.188228
0.187391
0.186579
0.185792
0.185028
0.184286
0.183565
0.182866
0.182187
0.181527
0.180886
0.180263
0.179658
0.17907
0.178499
0.177944
0.177406
0.176883
0.176375
0.175883
0.175405
0.174941
0.199395
0.198208
0.19706
0.195948
0.194872
0.19383
0.192821
0.191844
0.190897
0.189979
0.189089
0.188227
0.18739
0.186578
0.18579
0.185026
0.184284
0.183563
0.182864
0.182184
0.181524
0.180883
0.180261
0.179656
0.179068
0.178497
0.177942
0.177403
0.17688
0.176372
0.175878
0.1754
0.174935
0.199395
0.198208
0.19706
0.195948
0.194872
0.19383
0.192821
0.191843
0.190896
0.189978
0.189089
0.188226
0.187389
0.186577
0.185789
0.185025
0.184283
0.183562
0.182863
0.182183
0.181523
0.180882
0.180259
0.179654
0.179066
0.178495
0.17794
0.177401
0.176877
0.176369
0.175875
0.175395
0.174929
0.199395
0.198208
0.19706
0.195948
0.194872
0.19383
0.192821
0.191843
0.190896
0.189978
0.189088
0.188225
0.187388
0.186576
0.185788
0.185024
0.184282
0.183561
0.182861
0.182182
0.181522
0.180881
0.180258
0.179653
0.179065
0.178494
0.177939
0.177399
0.176875
0.176366
0.175872
0.175391
0.174924
0.199395
0.198208
0.19706
0.195948
0.194871
0.193829
0.19282
0.191843
0.190895
0.189977
0.189087
0.188224
0.187387
0.186575
0.185788
0.185023
0.184281
0.18356
0.182861
0.182181
0.181521
0.18088
0.180257
0.179652
0.179064
0.178493
0.177937
0.177398
0.176874
0.176364
0.175869
0.175388
0.17492
0.199395
0.198208
0.197059
0.195948
0.194871
0.193829
0.19282
0.191842
0.190895
0.189977
0.189087
0.188224
0.187387
0.186575
0.185787
0.185022
0.18428
0.183559
0.18286
0.18218
0.18152
0.180879
0.180256
0.179651
0.179063
0.178492
0.177936
0.177396
0.176872
0.176362
0.175866
0.175384
0.174916
0.199395
0.198208
0.197059
0.195947
0.194871
0.193829
0.19282
0.191842
0.190895
0.189976
0.189086
0.188223
0.187386
0.186574
0.185786
0.185022
0.184279
0.183559
0.182859
0.18218
0.18152
0.180878
0.180256
0.17965
0.179062
0.178491
0.177935
0.177395
0.17687
0.17636
0.175864
0.175381
0.174912
0.199395
0.198208
0.197059
0.195947
0.194871
0.193829
0.19282
0.191842
0.190894
0.189976
0.189086
0.188223
0.187386
0.186574
0.185786
0.185021
0.184279
0.183558
0.182858
0.182179
0.181519
0.180878
0.180255
0.179649
0.179061
0.178489
0.177934
0.177394
0.176868
0.176358
0.175861
0.175378
0.174908
0.199395
0.198208
0.197059
0.195947
0.194871
0.193829
0.192819
0.191842
0.190894
0.189976
0.189086
0.188222
0.187385
0.186573
0.185785
0.185021
0.184278
0.183558
0.182858
0.182178
0.181518
0.180877
0.180254
0.179649
0.17906
0.178488
0.177933
0.177392
0.176867
0.176356
0.175859
0.175375
0.174905
0.199395
0.198208
0.197059
0.195947
0.194871
0.193829
0.192819
0.191841
0.190894
0.189976
0.189085
0.188222
0.187385
0.186573
0.185785
0.18502
0.184278
0.183557
0.182857
0.182178
0.181518
0.180877
0.180253
0.179648
0.179059
0.178487
0.177931
0.177391
0.176865
0.176354
0.175856
0.175373
0.174902
0.199395
0.198208
0.197059
0.195947
0.194871
0.193829
0.192819
0.191841
0.190894
0.189975
0.189085
0.188222
0.187385
0.186573
0.185785
0.18502
0.184278
0.183557
0.182857
0.182177
0.181517
0.180876
0.180253
0.179647
0.179059
0.178486
0.17793
0.177389
0.176863
0.176352
0.175854
0.17537
0.174899
0.199395
0.198208
0.197059
0.195947
0.194871
0.193828
0.192819
0.191841
0.190894
0.189975
0.189085
0.188222
0.187385
0.186572
0.185784
0.18502
0.184277
0.183557
0.182857
0.182177
0.181517
0.180875
0.180252
0.179647
0.179058
0.178486
0.177929
0.177388
0.176862
0.17635
0.175852
0.175368
0.174896
0.199395
0.198208
0.197059
0.195947
0.194871
0.193828
0.192819
0.191841
0.190893
0.189975
0.189085
0.188222
0.187384
0.186572
0.185784
0.185019
0.184277
0.183556
0.182856
0.182177
0.181517
0.180875
0.180252
0.179646
0.179057
0.178485
0.177928
0.177387
0.17686
0.176348
0.17585
0.175365
0.174894
0.199395
0.198208
0.197059
0.195947
0.194871
0.193828
0.192819
0.191841
0.190893
0.189975
0.189085
0.188222
0.187384
0.186572
0.185784
0.185019
0.184277
0.183556
0.182856
0.182177
0.181516
0.180875
0.180251
0.179645
0.179057
0.178484
0.177927
0.177386
0.176859
0.176347
0.175848
0.175363
0.174891
0.199395
0.198208
0.197059
0.195947
0.194871
0.193828
0.192819
0.191841
0.190893
0.189975
0.189085
0.188221
0.187384
0.186572
0.185784
0.185019
0.184277
0.183556
0.182856
0.182176
0.181516
0.180874
0.180251
0.179645
0.179056
0.178483
0.177926
0.177385
0.176858
0.176346
0.175847
0.175362
0.174889
0.199395
0.198208
0.197059
0.195947
0.194871
0.193828
0.192819
0.191841
0.190893
0.189975
0.189085
0.188222
0.187384
0.186572
0.185784
0.185019
0.184277
0.183556
0.182856
0.182176
0.181516
0.180874
0.180251
0.179645
0.179056
0.178483
0.177926
0.177384
0.176857
0.176345
0.175846
0.17536
0.174888
0.199395
0.198208
0.197059
0.195947
0.194871
0.193828
0.192819
0.191841
0.190893
0.189975
0.189085
0.188222
0.187384
0.186572
0.185784
0.185019
0.184277
0.183556
0.182856
0.182176
0.181516
0.180874
0.180251
0.179645
0.179055
0.178483
0.177926
0.177384
0.176857
0.176344
0.175845
0.175359
0.174886
0.199395
0.198208
0.197059
0.195947
0.194871
0.193828
0.192819
0.191841
0.190894
0.189975
0.189085
0.188222
0.187385
0.186573
0.185785
0.18502
0.184278
0.183557
0.182857
0.182177
0.181517
0.180875
0.180252
0.179645
0.179056
0.178483
0.177926
0.177384
0.176857
0.176344
0.175844
0.175359
0.174886
0.199395
0.198208
0.197059
0.195947
0.194871
0.193828
0.192819
0.191841
0.190894
0.189976
0.189085
0.188222
0.187385
0.186573
0.185785
0.185021
0.184278
0.183558
0.182858
0.182178
0.181518
0.180876
0.180253
0.179646
0.179057
0.178484
0.177926
0.177384
0.176856
0.176343
0.175843
0.175357
0.174883
0.199395
0.198208
0.197059
0.195947
0.194871
0.193829
0.19282
0.191842
0.190896
0.189978
0.189089
0.188226
0.18739
0.186578
0.185791
0.185026
0.184284
0.183564
0.182864
0.182184
0.181523
0.180881
0.180257
0.17965
0.179059
0.178485
0.177926
0.177382
0.176853
0.176337
0.175836
0.175347
0.174871
0.199395
0.198208
0.197059
0.195948
0.194872
0.193831
0.192824
0.191848
0.190902
0.189986
0.189097
0.188236
0.1874
0.186589
0.185801
0.185036
0.184293
0.183571
0.18287
0.182187
0.181524
0.180878
0.18025
0.179639
0.179044
0.178465
0.177901
0.177351
0.176816
0.176295
0.175786
0.175291
0.174808
0.199395
0.198209
0.197062
0.195955
0.194886
0.193853
0.192854
0.191885
0.190945
0.190033
0.189146
0.188285
0.187447
0.186632
0.185839
0.185067
0.184315
0.183583
0.182871
0.182176
0.1815
0.180841
0.180198
0.179572
0.178961
0.178366
0.177785
0.177219
0.176666
0.176127
0.175601
0.175088
0.174586
0.199395
0.198223
0.197106
0.196031
0.194988
0.19397
0.192977
0.192007
0.19106
0.190136
0.189233
0.188352
0.187492
0.186653
0.185834
0.185035
0.184255
0.183494
0.182751
0.182026
0.181319
0.180628
0.179953
0.179295
0.178652
0.178024
0.17741
0.176811
0.176225
0.175653
0.175095
0.174548
0.174015
0.19941
0.198319
0.197296
0.196301
0.19531
0.194319
0.19333
0.192347
0.191375
0.190419
0.189481
0.188564
0.187667
0.186792
0.185938
0.185106
0.184294
0.183502
0.182729
0.181975
0.181239
0.180521
0.17982
0.179135
0.178467
0.177814
0.177176
0.176552
0.175943
0.175348
0.174766
0.174198
0.173642
0.199716
0.199139
0.19847
0.197764
0.197072
0.196419
0.195812
0.19525
0.194732
0.194258
0.193826
0.193433
0.193078
0.192759
0.192474
0.192222
0.191999
0.191805
0.191637
0.191494
0.191373
0.191274
0.191194
0.191133
0.191088
0.191059
0.191045
0.191045
0.191057
0.191081
0.191116
0.191161
0.191215
0.205424
0.216593
0.227629
0.238434
0.248976
0.259243
0.269229
0.278926
0.288327
0.297425
0.306218
0.314703
0.322881
0.330752
0.338319
0.345587
0.352558
0.35924
0.365639
0.371761
0.377615
0.383208
0.388547
0.393643
0.398503
0.403135
0.407548
0.411751
0.415752
0.419559
0.423181
0.426624
0.4299
0.380327
1.99157
2.973
2.99673
2.68621
2.4142
2.27904
2.259
2.29572
2.34135
2.36903
2.36814
2.33905
2.28828
2.22445
2.15557
2.0878
2.02499
1.96893
1.91981
1.87684
1.83893
1.80535
1.77614
1.75239
1.73597
1.72894
1.73249
1.74593
1.76612
1.78771
1.8043
1.80982
1.79987
1.77247
1.7284
1.67107
1.60613
1.5408
1.48303
1.44026
1.41805
1.41884
1.44125
1.48059
1.53022
1.58332
1.63423
1.67894
1.71505
1.74119
1.75661
1.7608
1.75342
1.7343
1.70358
1.66181
1.61003
1.54973
1.48281
1.4115
1.33819
1.26533
1.1952
1.12977
1.07047
1.01806
0.972547
0.933242
0.898974
0.868346
0.840029
0.812977
0.786557
0.760577
0.735254
0.711163
0.689194
0.670545
0.656723
0.649485
0.650556
0.661035
0.680694
0.707657
0.738845
0.770942
0.80128
0.82826
0.851293
0.870482
0.886258
0.899088
0.90928
0.916944
0.921993
0.92433
0.923569
0.920799
0.909484
0.129895
0.491557
1.23263
1.68
1.76127
1.68402
1.60025
1.57937
1.62983
1.71591
1.79529
1.84504
1.86165
1.85155
1.82375
1.78664
1.74671
1.70813
1.67297
1.64161
1.61342
1.58741
1.56292
1.54009
1.52015
1.5053
1.49808
1.50039
1.51232
1.53137
1.55249
1.56911
1.57475
1.56454
1.5362
1.49047
1.43084
1.36304
1.2943
1.23246
1.18495
1.15763
1.15363
1.17243
1.21001
1.25995
1.31516
1.36938
1.41799
1.45804
1.48788
1.50663
1.51381
1.50918
1.49267
1.46455
1.42547
1.37651
1.31922
1.25551
1.18763
1.11794
1.04887
0.982674
0.921315
0.866247
0.818284
0.777515
0.743339
0.714623
0.689968
0.667987
0.647545
0.627896
0.608729
0.590139
0.572581
0.556827
0.543953
0.535364
0.532757
0.537888
0.552001
0.575084
0.605475
0.640229
0.676066
0.710294
0.741258
0.768305
0.79148
0.811167
0.827786
0.841609
0.85271
0.860977
0.866294
0.868279
0.867941
0.859641
0.177901
0.172263
0.339773
0.602243
0.796771
0.885134
0.900823
0.891046
0.894616
0.93205
0.999103
1.07633
1.14457
1.19413
1.22473
1.2407
1.24716
1.24815
1.24621
1.24249
1.23714
1.22988
1.22054
1.20958
1.19841
1.18936
1.18529
1.18873
1.20075
1.21994
1.24212
1.26114
1.2704
1.2646
1.24104
1.20005
1.14487
1.08097
1.01514
0.95467
0.906448
0.876218
0.867653
0.881477
0.915071
0.963037
1.01861
1.07523
1.12766
1.17229
1.20699
1.23062
1.24263
1.24282
1.23124
1.20824
1.17452
1.13122
1.07986
1.02236
0.96086
0.897687
0.835151
0.775421
0.72036
0.67138
0.629311
0.594322
0.565932
0.543133
0.52461
0.509003
0.495138
0.482181
0.469698
0.45764
0.4463
0.436274
0.428451
0.424042
0.424605
0.431889
0.447351
0.471407
0.502885
0.53921
0.577257
0.614295
0.648529
0.679138
0.706023
0.729455
0.74978
0.767219
0.781812
0.79342
0.801905
0.806887
0.80924
0.804463
0.180798
0.170315
0.179202
0.231106
0.306616
0.375003
0.420006
0.439998
0.444026
0.44558
0.455886
0.480278
0.518355
0.565266
0.614451
0.660741
0.70141
0.735691
0.76382
0.786248
0.803283
0.81508
0.821894
0.824396
0.823937
0.822631
0.823172
0.828306
0.839922
0.858014
0.879993
0.90093
0.9148
0.91624
0.902075
0.872075
0.828869
0.777218
0.723002
0.672261
0.630537
0.602504
0.591643
0.59969
0.62599
0.667279
0.718306
0.773101
0.826222
0.873499
0.912176
0.940662
0.95816
0.964378
0.95937
0.943513
0.917535
0.882545
0.840032
0.791815
0.739947
0.686596
0.633898
0.58381
0.53798
0.497627
0.463459
0.435633
0.413772
0.397052
0.384361
0.374507
0.366407
0.359236
0.352493
0.346008
0.339909
0.334592
0.33071
0.329211
0.331398
0.338898
0.353332
0.375638
0.405383
0.44065
0.478673
0.516759
0.552936
0.586136
0.616023
0.642688
0.666353
0.687164
0.705113
0.720032
0.731746
0.739873
0.745092
0.744269
0.176196
0.17401
0.171944
0.176661
0.190534
0.21013
0.230087
0.245465
0.253634
0.255674
0.25533
0.256545
0.261953
0.273065
0.290242
0.312571
0.338302
0.365429
0.392109
0.416845
0.438509
0.456333
0.469941
0.479429
0.485435
0.489157
0.492296
0.496873
0.50481
0.517202
0.533477
0.550973
0.565434
0.57236
0.56856
0.553169
0.527774
0.495772
0.461365
0.428651
0.401111
0.381555
0.372283
0.375109
0.390965
0.419281
0.457653
0.502192
0.548418
0.592193
0.630298
0.660565
0.681729
0.693186
0.694817
0.68689
0.670045
0.645291
0.613987
0.577788
0.538543
0.498163
0.458475
0.421081
0.387247
0.357835
0.333288
0.313651
0.298612
0.287576
0.279749
0.274259
0.27028
0.267135
0.264362
0.261737
0.259264
0.257153
0.255819
0.255911
0.258389
0.264588
0.276082
0.294212
0.319368
0.350569
0.38572
0.422375
0.458464
0.492646
0.524282
0.553208
0.579465
0.603085
0.623989
0.641959
0.656772
0.668034
0.676163
0.679595
0.174036
0.173527
0.172592
0.172269
0.173771
0.177391
0.182512
0.187884
0.192054
0.194149
0.194432
0.194006
0.193996
0.195285
0.198476
0.20383
0.211283
0.220486
0.230875
0.241753
0.252385
0.262089
0.270334
0.27682
0.281525
0.284721
0.286952
0.288994
0.29177
0.296135
0.302494
0.310351
0.318137
0.323608
0.324701
0.320388
0.311021
0.298075
0.283543
0.269356
0.257068
0.247864
0.24277
0.242857
0.249228
0.262695
0.283277
0.309859
0.340254
0.371678
0.401349
0.426948
0.446811
0.459915
0.465792
0.464431
0.456223
0.441925
0.422615
0.399618
0.374401
0.348436
0.323068
0.299396
0.278215
0.259995
0.24492
0.232944
0.223848
0.217285
0.212814
0.209939
0.208164
0.207048
0.206255
0.205582
0.20497
0.204498
0.204384
0.205009
0.206983
0.211232
0.219027
0.231758
0.250412
0.274996
0.304386
0.336735
0.370127
0.403057
0.43459
0.464267
0.491897
0.517354
0.540454
0.56091
0.578427
0.592586
0.603483
0.611267
0.173603
0.173156
0.172616
0.172028
0.171661
0.171785
0.172479
0.173567
0.174653
0.175326
0.175422
0.175109
0.174724
0.174616
0.175059
0.17621
0.17811
0.1807
0.183837
0.18731
0.190874
0.194271
0.197271
0.199707
0.201498
0.202658
0.203295
0.203601
0.20384
0.204316
0.205282
0.206797
0.208606
0.210149
0.210762
0.209973
0.207692
0.204213
0.200056
0.195776
0.191848
0.188662
0.186589
0.186081
0.187718
0.192137
0.199837
0.210934
0.224984
0.24098
0.257527
0.273129
0.286438
0.296424
0.302434
0.304191
0.301768
0.29555
0.286176
0.274473
0.261356
0.247723
0.234365
0.221893
0.21072
0.20107
0.193016
0.186525
0.181502
0.177801
0.175243
0.173613
0.172679
0.172211
0.172011
0.171938
0.171922
0.171973
0.172183
0.172746
0.173993
0.176473
0.181029
0.188767
0.200801
0.21779
0.239581
0.265211
0.293285
0.322422
0.351555
0.379986
0.407287
0.433153
0.457272
0.479268
0.498752
0.515274
0.528543
0.540482
0.173758
0.173232
0.172707
0.172133
0.171532
0.170991
0.170595
0.170362
0.170214
0.170024
0.169703
0.169256
0.168767
0.168358
0.168138
0.16818
0.168512
0.16912
0.169953
0.170933
0.171965
0.17295
0.173796
0.174433
0.174816
0.174934
0.174807
0.174484
0.17404
0.173572
0.173181
0.172937
0.172842
0.172808
0.172695
0.172367
0.171751
0.170856
0.169753
0.16854
0.167318
0.166184
0.165258
0.164707
0.164772
0.165749
0.167937
0.171534
0.176545
0.182733
0.189632
0.196624
0.203048
0.20831
0.211954
0.213711
0.213504
0.211439
0.207777
0.202887
0.197196
0.191129
0.185058
0.179279
0.17399
0.169309
0.165283
0.161918
0.159191
0.157065
0.155488
0.154391
0.153688
0.153282
0.153076
0.152991
0.152973
0.153009
0.153128
0.153415
0.154029
0.155255
0.157571
0.161692
0.1685
0.17881
0.193044
0.211044
0.232138
0.255397
0.279907
0.304925
0.329895
0.354374
0.377941
0.400132
0.420466
0.438455
0.453396
0.468899
0.174018
0.173451
0.172896
0.172318
0.1717
0.17106
0.170439
0.169864
0.169335
0.168821
0.168288
0.167725
0.16715
0.166601
0.166122
0.165746
0.165492
0.165358
0.165328
0.16537
0.165444
0.165506
0.165515
0.165438
0.16525
0.164942
0.164517
0.16399
0.163389
0.162752
0.162124
0.16155
0.161059
0.160654
0.160317
0.160011
0.159704
0.159365
0.158977
0.158527
0.158011
0.157437
0.156831
0.156254
0.155803
0.155615
0.155838
0.1566
0.15796
0.15988
0.16222
0.164757
0.167224
0.169358
0.170936
0.171804
0.171889
0.171199
0.169813
0.167862
0.165511
0.162927
0.160266
0.157656
0.155187
0.152919
0.150882
0.149088
0.147538
0.146231
0.145157
0.144305
0.143652
0.143167
0.142812
0.142551
0.142355
0.142208
0.142116
0.14211
0.142258
0.142694
0.143657
0.145546
0.148927
0.154456
0.162691
0.173905
0.188005
0.204594
0.223128
0.243052
0.263869
0.28513
0.306389
0.327155
0.346894
0.365104
0.380694
0.398696
0.174224
0.173643
0.173071
0.172487
0.171877
0.17124
0.170593
0.169954
0.169333
0.168727
0.168126
0.16752
0.16691
0.166305
0.165719
0.165168
0.164661
0.164205
0.163796
0.163423
0.163073
0.162725
0.16236
0.161962
0.161516
0.161017
0.160462
0.159859
0.15922
0.158565
0.157921
0.157313
0.156768
0.156301
0.155916
0.155604
0.155344
0.155109
0.154865
0.154577
0.154218
0.153769
0.153226
0.152609
0.151961
0.151349
0.150852
0.150549
0.150494
0.150704
0.151147
0.151746
0.1524
0.152996
0.153432
0.15363
0.153544
0.153162
0.152503
0.151608
0.150534
0.149343
0.148094
0.146836
0.145608
0.144431
0.14332
0.142282
0.141318
0.140433
0.139628
0.138907
0.138271
0.137715
0.137231
0.136807
0.136432
0.136096
0.135798
0.135549
0.135375
0.135331
0.135526
0.136158
0.137541
0.140101
0.144298
0.150507
0.158918
0.169501
0.182066
0.196332
0.211994
0.228734
0.246205
0.263992
0.281597
0.298575
0.313554
0.332531
0.174348
0.173764
0.173185
0.172599
0.171997
0.171376
0.170742
0.170106
0.169476
0.168854
0.16824
0.167626
0.167011
0.166392
0.165773
0.165159
0.164554
0.163964
0.163389
0.16283
0.162282
0.161739
0.161194
0.160637
0.160063
0.159467
0.158848
0.158209
0.157558
0.15691
0.15628
0.155687
0.155149
0.154679
0.154284
0.153958
0.153686
0.153443
0.153197
0.152914
0.152562
0.152117
0.151567
0.150917
0.150188
0.149415
0.148645
0.14793
0.147314
0.146824
0.146467
0.146225
0.146064
0.145938
0.1458
0.14561
0.145342
0.14498
0.144524
0.143985
0.143378
0.142724
0.14204
0.141344
0.140645
0.13995
0.139261
0.138578
0.137901
0.137231
0.136573
0.13593
0.13531
0.134716
0.134152
0.133618
0.133111
0.132631
0.132175
0.131747
0.131355
0.13102
0.130786
0.130742
0.131044
0.13193
0.133701
0.136675
0.141106
0.147134
0.154782
0.16398
0.174607
0.18651
0.199497
0.213307
0.227577
0.241999
0.25512
0.273279
0.174406
0.173821
0.173239
0.172653
0.172057
0.171448
0.17083
0.170207
0.169585
0.168968
0.168355
0.167744
0.167131
0.166514
0.16589
0.165261
0.164627
0.16399
0.163354
0.16272
0.162089
0.16146
0.160831
0.160199
0.159562
0.158917
0.158265
0.157608
0.156953
0.15631
0.15569
0.155109
0.154578
0.154107
0.153699
0.15335
0.153046
0.152764
0.152478
0.152157
0.151773
0.151303
0.150734
0.150065
0.149306
0.148479
0.147614
0.146747
0.145912
0.145139
0.144443
0.143832
0.143298
0.142826
0.142398
0.141992
0.141593
0.141188
0.140771
0.14034
0.139895
0.13944
0.138976
0.138504
0.138024
0.137534
0.137029
0.136506
0.135964
0.1354
0.134818
0.134222
0.133616
0.133008
0.132403
0.131806
0.131218
0.130643
0.13008
0.12953
0.128996
0.128484
0.12801
0.127609
0.127352
0.127357
0.127793
0.128872
0.130807
0.133776
0.137892
0.143203
0.149704
0.157358
0.166095
0.175799
0.186263
0.197356
0.207749
0.22345
0.174425
0.173839
0.173254
0.172666
0.172073
0.171472
0.170863
0.170251
0.169637
0.169026
0.168417
0.167808
0.167199
0.166585
0.165964
0.165335
0.164697
0.164051
0.1634
0.162744
0.162086
0.161426
0.160765
0.160103
0.159439
0.158774
0.158108
0.157444
0.156788
0.156148
0.155533
0.154954
0.15442
0.153939
0.15351
0.15313
0.152785
0.152458
0.152123
0.151757
0.151335
0.150838
0.150253
0.149577
0.148814
0.14798
0.147095
0.146186
0.14528
0.144402
0.143573
0.142804
0.142102
0.141466
0.14089
0.140363
0.139878
0.139423
0.138993
0.13858
0.138179
0.137786
0.137397
0.137005
0.136606
0.136193
0.135761
0.135303
0.134818
0.134303
0.133758
0.133186
0.132592
0.13198
0.131357
0.130728
0.130096
0.129464
0.128835
0.128209
0.127586
0.126967
0.126357
0.125769
0.12523
0.124795
0.124548
0.124607
0.125116
0.126219
0.128043
0.130681
0.13419
0.138596
0.143899
0.150072
0.157022
0.164748
0.172179
0.184424
0.174424
0.173836
0.173248
0.172659
0.172065
0.171467
0.170863
0.170256
0.169648
0.16904
0.168433
0.167825
0.167217
0.166604
0.165985
0.165359
0.164725
0.164082
0.163432
0.162775
0.162113
0.161447
0.16078
0.16011
0.15944
0.15877
0.158102
0.157439
0.156784
0.156146
0.155531
0.154949
0.154406
0.153907
0.153453
0.153038
0.152651
0.152277
0.151897
0.151488
0.151032
0.150511
0.149916
0.14924
0.148487
0.147667
0.146796
0.145892
0.144978
0.144076
0.143204
0.142377
0.141606
0.140894
0.140243
0.139648
0.139106
0.138609
0.138151
0.137724
0.137321
0.136935
0.136559
0.136184
0.135805
0.135412
0.135
0.134563
0.134096
0.133598
0.133068
0.132508
0.13192
0.131309
0.13068
0.130036
0.129381
0.12872
0.128053
0.127381
0.126705
0.126024
0.125337
0.12465
0.123971
0.123324
0.122746
0.122297
0.122059
0.122124
0.122592
0.123554
0.125084
0.127239
0.130055
0.13355
0.137697
0.142558
0.14735
0.155975
0.174417
0.173826
0.173235
0.172643
0.172048
0.171449
0.170847
0.170242
0.169636
0.169029
0.168421
0.167813
0.167203
0.16659
0.165972
0.165348
0.164717
0.164078
0.163433
0.16278
0.162123
0.161461
0.160796
0.16013
0.159462
0.158795
0.15813
0.15747
0.156819
0.156183
0.155567
0.154978
0.154423
0.153905
0.153423
0.152973
0.152546
0.152129
0.151707
0.151261
0.150776
0.150237
0.149634
0.148964
0.148227
0.147429
0.146584
0.145705
0.14481
0.143918
0.143045
0.142206
0.141411
0.140668
0.139981
0.139348
0.138769
0.138238
0.137751
0.137299
0.136876
0.136475
0.136087
0.135703
0.135317
0.134919
0.134504
0.134066
0.1336
0.133104
0.132577
0.13202
0.131435
0.130825
0.130193
0.129544
0.128879
0.128203
0.127516
0.12682
0.126113
0.125396
0.124668
0.123928
0.12318
0.122432
0.121701
0.121015
0.120414
0.11995
0.119687
0.11969
0.120024
0.120748
0.12191
0.123549
0.125672
0.128361
0.131095
0.136548
0.174409
0.173815
0.173221
0.172626
0.172029
0.171429
0.170826
0.170221
0.169614
0.169006
0.168397
0.167787
0.167175
0.16656
0.165941
0.165318
0.164688
0.164053
0.163411
0.162764
0.162111
0.161455
0.160796
0.160134
0.159472
0.15881
0.15815
0.157494
0.156847
0.156212
0.155594
0.154999
0.154431
0.153893
0.153384
0.152902
0.152439
0.151984
0.151525
0.151047
0.150537
0.149983
0.149376
0.148713
0.147992
0.147219
0.146403
0.145555
0.144689
0.143821
0.142965
0.142134
0.141338
0.140586
0.139882
0.139229
0.138624
0.138067
0.137553
0.137075
0.136627
0.136203
0.135793
0.135389
0.134985
0.134572
0.134145
0.133696
0.133223
0.132722
0.132192
0.131634
0.131049
0.130439
0.129807
0.129155
0.128487
0.127804
0.127107
0.126398
0.125675
0.124939
0.124187
0.12342
0.122638
0.121844
0.121044
0.120253
0.119487
0.118775
0.11815
0.117653
0.117329
0.117221
0.117374
0.117829
0.118607
0.119783
0.121056
0.124031
0.174402
0.173806
0.173209
0.172611
0.172011
0.171409
0.170805
0.170198
0.16959
0.168981
0.168369
0.167757
0.167142
0.166525
0.165905
0.16528
0.164651
0.164017
0.163378
0.162734
0.162086
0.161434
0.160779
0.160123
0.159465
0.158808
0.158152
0.157501
0.156856
0.156222
0.155601
0.154999
0.154419
0.153863
0.153331
0.152821
0.152325
0.151838
0.151346
0.150841
0.150309
0.149742
0.149133
0.148475
0.14777
0.14702
0.146232
0.145415
0.14458
0.14374
0.142907
0.142093
0.141306
0.140556
0.139846
0.139181
0.13856
0.137982
0.137444
0.136942
0.136469
0.136019
0.135584
0.135158
0.134732
0.1343
0.133856
0.133394
0.132909
0.1324
0.131865
0.131304
0.130717
0.130107
0.129474
0.128822
0.128152
0.127466
0.126765
0.126049
0.125318
0.124571
0.123808
0.123027
0.122229
0.121414
0.120585
0.119749
0.118913
0.118092
0.117303
0.116567
0.115911
0.115363
0.114954
0.114717
0.114674
0.114881
0.1152
0.116399
0.174395
0.173797
0.173199
0.172598
0.171996
0.171392
0.170786
0.170178
0.169568
0.168956
0.168342
0.167727
0.16711
0.166491
0.165868
0.165242
0.164613
0.163979
0.163341
0.162699
0.162054
0.161405
0.160754
0.160101
0.159447
0.158793
0.158141
0.157492
0.156849
0.156214
0.155591
0.154983
0.154392
0.15382
0.153268
0.152732
0.15221
0.151693
0.151175
0.150645
0.150096
0.149517
0.148904
0.148252
0.14756
0.14683
0.146067
0.145278
0.144472
0.14366
0.142851
0.142055
0.141282
0.140538
0.139828
0.139156
0.138524
0.13793
0.137373
0.136848
0.136351
0.135877
0.135418
0.134968
0.13452
0.134068
0.133606
0.133129
0.132633
0.132115
0.131573
0.131007
0.130417
0.129805
0.129172
0.128519
0.127848
0.127161
0.126457
0.125738
0.125003
0.124252
0.123483
0.122695
0.121889
0.121066
0.120226
0.119372
0.118509
0.117644
0.116785
0.115944
0.115135
0.114373
0.113679
0.113072
0.112572
0.112209
0.111961
0.11199
0.17439
0.17379
0.17319
0.172587
0.171983
0.171377
0.170769
0.170159
0.169547
0.168933
0.168318
0.1677
0.167081
0.166459
0.165835
0.165207
0.164576
0.163942
0.163305
0.162664
0.16202
0.161373
0.160724
0.160074
0.159423
0.158771
0.158121
0.157474
0.156832
0.156196
0.155569
0.154955
0.154354
0.153769
0.153199
0.152643
0.152097
0.151556
0.151015
0.150465
0.149899
0.14931
0.148693
0.148045
0.147363
0.14665
0.145908
0.145143
0.144363
0.143576
0.142789
0.142012
0.141253
0.140518
0.139811
0.139136
0.138496
0.137889
0.137315
0.136771
0.136253
0.135756
0.135274
0.134801
0.134332
0.133861
0.133381
0.132889
0.13238
0.131852
0.131303
0.130731
0.130138
0.129524
0.128889
0.128236
0.127564
0.126876
0.126171
0.12545
0.124713
0.123958
0.123186
0.122396
0.121587
0.12076
0.119916
0.119057
0.118186
0.117305
0.11642
0.115536
0.114662
0.113805
0.112977
0.11219
0.111457
0.110786
0.11023
0.109554
0.174385
0.173784
0.173182
0.172578
0.171972
0.171364
0.170754
0.170143
0.169529
0.168913
0.168296
0.167676
0.167055
0.166431
0.165804
0.165175
0.164544
0.163909
0.163271
0.162631
0.161987
0.161342
0.160694
0.160045
0.159395
0.158745
0.158097
0.15745
0.156807
0.15617
0.15554
0.15492
0.154311
0.153714
0.153129
0.152555
0.15199
0.151429
0.150868
0.150301
0.149721
0.149123
0.148502
0.147856
0.147182
0.146482
0.145758
0.145013
0.144255
0.143489
0.142723
0.141964
0.141218
0.140491
0.139789
0.139113
0.138467
0.13785
0.137263
0.136702
0.136165
0.135647
0.135144
0.134651
0.134161
0.133671
0.133174
0.132667
0.132145
0.131607
0.13105
0.130473
0.129875
0.129258
0.128621
0.127966
0.127294
0.126604
0.125898
0.125175
0.124436
0.12368
0.122906
0.122115
0.121305
0.120477
0.119632
0.118772
0.117899
0.117014
0.116121
0.115223
0.114324
0.113429
0.112544
0.111675