/*--------------------------------*- C++ -*----------------------------------*\
  =========                 |
  \\      /  F ield         | OpenFOAM: The Open Source CFD Toolbox
   \\    /   O peration     | Website:  https://openfoam.org
    \\  /    A nd           | Version:  10
     \\/     M anipulation  |
\*---------------------------------------------------------------------------*/
FoamFile
{
    format      ascii;
    class       volScalarField;
    location    "1600";
    object      nut;
}
// * * * * * * * * * * * * * * * * * * * * * * * * * * * * * * * * * * * * * //

dimensions      [0 2 -1 0 0 0 0];

internalField   nonuniform List<scalar> 
6820
(
0.000149811
0.000146298
0.000143078
0.000139851
0.000136611
0.000133451
0.000130462
0.0001277
0.000125196
0.000122957
0.000120977
0.000119243
0.000117738
0.000116443
0.000115338
0.000114404
0.000113626
0.000112986
0.000112469
0.000112064
0.000111757
0.000111539
0.000111399
0.00011133
0.000111324
0.000111376
0.000111485
0.000111588
0.000111909
0.000112182
0.000107424
0.000111011
7.22869e-05
0.000736676
0.000548088
0.000464575
0.000414429
0.000380725
0.000356901
0.000339473
0.000326323
0.000316107
0.000307959
0.000301307
0.000295765
0.000291067
0.000287025
0.000283502
0.000280398
0.000277638
0.000275164
0.000272932
0.000270906
0.000269057
0.000267364
0.000265807
0.000264371
0.000263046
0.000261822
0.000260701
0.000259663
0.00025864
0.000259092
0.000255953
0.000251879
0.000275843
0.000977663
0.000873822
0.000783696
0.000713305
0.000659051
0.000616624
0.000582706
0.000554967
0.000531812
0.000512142
0.000495185
0.000480386
0.000467332
0.000455716
0.000445298
0.000435892
0.00042735
0.000419552
0.000412401
0.000405814
0.000399725
0.000394075
0.000388815
0.000383901
0.000379294
0.000374961
0.00037087
0.000366999
0.00036321
0.000360259
0.000356985
0.000347049
0.000347157
0.0010135
0.000988678
0.000949904
0.000906241
0.000863755
0.000825025
0.000790644
0.000760354
0.000733635
0.000709947
0.000688809
0.000669819
0.000652647
0.000637025
0.000622732
0.000609591
0.000597452
0.000586194
0.000575713
0.000565922
0.000556747
0.000548125
0.00054
0.000532322
0.000525048
0.000518138
0.000511556
0.000505273
0.000499225
0.000493536
0.000488354
0.000481023
0.000468641
0.00101667
0.00101251
0.00100235
0.000986317
0.000966161
0.000943892
0.000921078
0.000898712
0.000877328
0.000857161
0.000838276
0.000820647
0.000804202
0.000788851
0.000774501
0.000761061
0.000748446
0.000736579
0.00072539
0.000714817
0.000704805
0.000695302
0.000686263
0.000677647
0.000669416
0.000661536
0.000653971
0.000646691
0.000639659
0.000632863
0.000626323
0.000619541
0.000610553
0.00101674
0.0010159
0.00101373
0.00100941
0.00100264
0.000993626
0.000982842
0.00097086
0.000958188
0.000945227
0.000932266
0.0009195
0.000907053
0.000895001
0.000883382
0.000872213
0.000861494
0.000851215
0.000841362
0.000831915
0.000822853
0.000814153
0.000805793
0.00079775
0.000790001
0.000782523
0.000775294
0.000768289
0.000761483
0.000754855
0.000748363
0.000741928
0.000735179
0.00101671
0.00101621
0.00101554
0.00101439
0.00101245
0.00100952
0.00100552
0.00100053
0.000994661
0.0009881
0.000981021
0.000973584
0.000965924
0.000958151
0.000950352
0.000942591
0.000934917
0.000927365
0.000919959
0.000912714
0.000905642
0.000898746
0.000892026
0.000885481
0.000879105
0.000872891
0.00086683
0.000860911
0.000855121
0.000849449
0.000843871
0.000838361
0.000832896
0.0010167
0.00101622
0.00101574
0.0010152
0.00101449
0.0010135
0.00101213
0.00101031
0.001008
0.00100522
0.00100199
0.000998376
0.000994428
0.00099021
0.000985781
0.000981192
0.00097649
0.000971714
0.000966897
0.000962066
0.000957243
0.000952445
0.000947685
0.000942974
0.000938317
0.00093372
0.000929185
0.00092471
0.000920296
0.00091594
0.000911639
0.000907385
0.000903188
0.0010167
0.00101621
0.00101574
0.00101528
0.00101481
0.00101429
0.00101367
0.00101292
0.00101199
0.00101086
0.0010095
0.00100792
0.00100611
0.00100409
0.00100188
0.000999503
0.000996975
0.000994322
0.000991563
0.00098872
0.000985808
0.000982845
0.000979844
0.000976816
0.000973772
0.00097072
0.000967666
0.000964617
0.000961576
0.000958549
0.00095554
0.000952552
0.000949594
0.0010167
0.00101621
0.00101574
0.00101528
0.00101484
0.0010144
0.00101395
0.00101348
0.00101296
0.00101239
0.00101174
0.001011
0.00101016
0.00100921
0.00100816
0.00100699
0.00100573
0.00100437
0.00100293
0.0010014
0.000999797
0.000998132
0.000996412
0.000994643
0.000992833
0.00099099
0.000989118
0.000987224
0.000985314
0.000983393
0.000981468
0.000979546
0.000977632
0.0010167
0.00101621
0.00101574
0.00101528
0.00101484
0.0010144
0.00101398
0.00101357
0.00101315
0.00101272
0.00101229
0.00101183
0.00101134
0.00101081
0.00101024
0.00100963
0.00100896
0.00100825
0.00100749
0.00100668
0.00100583
0.00100493
0.00100398
0.001003
0.00100199
0.00100094
0.000999864
0.000998765
0.000997645
0.000996509
0.000995364
0.000994213
0.000993061
0.0010167
0.00101621
0.00101574
0.00101528
0.00101483
0.0010144
0.00101398
0.00101357
0.00101317
0.00101278
0.00101239
0.001012
0.00101162
0.00101122
0.00101082
0.00101041
0.00100999
0.00100954
0.00100908
0.0010086
0.0010081
0.00100758
0.00100704
0.00100648
0.00100589
0.00100529
0.00100468
0.00100404
0.0010034
0.00100274
0.00100208
0.00100142
0.00100075
0.0010167
0.00101621
0.00101574
0.00101528
0.00101483
0.0010144
0.00101398
0.00101357
0.00101317
0.00101278
0.0010124
0.00101203
0.00101167
0.00101131
0.00101096
0.00101061
0.00101026
0.00100991
0.00100956
0.0010092
0.00100885
0.00100848
0.00100812
0.00100774
0.00100736
0.00100698
0.00100659
0.00100619
0.0010058
0.00100539
0.00100499
0.00100459
0.00100419
0.0010167
0.00101621
0.00101574
0.00101528
0.00101483
0.0010144
0.00101398
0.00101357
0.00101317
0.00101278
0.0010124
0.00101203
0.00101167
0.00101132
0.00101098
0.00101064
0.00101032
0.00100999
0.00100968
0.00100936
0.00100905
0.00100875
0.00100845
0.00100815
0.00100785
0.00100755
0.00100726
0.00100697
0.00100668
0.00100639
0.00100611
0.00100584
0.00100557
0.0010167
0.00101621
0.00101574
0.00101528
0.00101483
0.0010144
0.00101398
0.00101356
0.00101316
0.00101278
0.0010124
0.00101203
0.00101167
0.00101132
0.00101098
0.00101065
0.00101032
0.00101001
0.0010097
0.0010094
0.0010091
0.00100881
0.00100853
0.00100826
0.00100799
0.00100772
0.00100746
0.00100721
0.00100696
0.00100672
0.00100649
0.00100627
0.00100605
0.0010167
0.00101621
0.00101574
0.00101528
0.00101483
0.0010144
0.00101397
0.00101356
0.00101316
0.00101277
0.00101239
0.00101203
0.00101167
0.00101132
0.00101098
0.00101064
0.00101032
0.00101001
0.0010097
0.0010094
0.00100911
0.00100882
0.00100855
0.00100828
0.00100802
0.00100776
0.00100751
0.00100727
0.00100704
0.00100682
0.0010066
0.00100639
0.00100619
0.0010167
0.00101621
0.00101574
0.00101528
0.00101483
0.0010144
0.00101397
0.00101356
0.00101316
0.00101277
0.00101239
0.00101202
0.00101166
0.00101131
0.00101097
0.00101064
0.00101032
0.00101
0.0010097
0.0010094
0.00100911
0.00100883
0.00100855
0.00100828
0.00100802
0.00100777
0.00100752
0.00100729
0.00100706
0.00100684
0.00100662
0.00100642
0.00100622
0.0010167
0.00101621
0.00101574
0.00101528
0.00101483
0.00101439
0.00101397
0.00101356
0.00101316
0.00101277
0.00101239
0.00101202
0.00101166
0.00101131
0.00101097
0.00101064
0.00101032
0.00101
0.0010097
0.0010094
0.00100911
0.00100882
0.00100855
0.00100828
0.00100802
0.00100777
0.00100752
0.00100729
0.00100706
0.00100684
0.00100662
0.00100641
0.00100621
0.0010167
0.00101621
0.00101574
0.00101528
0.00101483
0.00101439
0.00101397
0.00101356
0.00101316
0.00101277
0.00101239
0.00101202
0.00101166
0.00101131
0.00101097
0.00101064
0.00101032
0.00101
0.00100969
0.0010094
0.00100911
0.00100882
0.00100855
0.00100828
0.00100802
0.00100777
0.00100752
0.00100728
0.00100705
0.00100683
0.00100661
0.00100641
0.0010062
0.0010167
0.00101621
0.00101574
0.00101528
0.00101483
0.00101439
0.00101397
0.00101356
0.00101316
0.00101277
0.00101239
0.00101202
0.00101166
0.00101131
0.00101097
0.00101064
0.00101031
0.00101
0.00100969
0.0010094
0.0010091
0.00100882
0.00100855
0.00100828
0.00100802
0.00100777
0.00100752
0.00100728
0.00100705
0.00100683
0.00100661
0.0010064
0.00100619
0.0010167
0.00101621
0.00101574
0.00101528
0.00101483
0.00101439
0.00101397
0.00101356
0.00101316
0.00101277
0.00101239
0.00101202
0.00101166
0.00101131
0.00101097
0.00101064
0.00101031
0.00101
0.00100969
0.00100939
0.0010091
0.00100882
0.00100855
0.00100828
0.00100802
0.00100776
0.00100752
0.00100728
0.00100705
0.00100682
0.0010066
0.00100639
0.00100618
0.0010167
0.00101621
0.00101574
0.00101528
0.00101483
0.00101439
0.00101397
0.00101356
0.00101316
0.00101277
0.00101239
0.00101202
0.00101166
0.00101131
0.00101097
0.00101064
0.00101031
0.00101
0.00100969
0.00100939
0.0010091
0.00100882
0.00100854
0.00100828
0.00100802
0.00100776
0.00100752
0.00100728
0.00100704
0.00100682
0.0010066
0.00100638
0.00100617
0.0010167
0.00101621
0.00101574
0.00101528
0.00101483
0.00101439
0.00101397
0.00101356
0.00101316
0.00101277
0.00101239
0.00101202
0.00101166
0.00101131
0.00101097
0.00101064
0.00101031
0.00101
0.00100969
0.00100939
0.0010091
0.00100882
0.00100854
0.00100828
0.00100801
0.00100776
0.00100751
0.00100727
0.00100704
0.00100681
0.00100659
0.00100637
0.00100616
0.0010167
0.00101621
0.00101574
0.00101528
0.00101483
0.00101439
0.00101397
0.00101356
0.00101316
0.00101277
0.00101239
0.00101202
0.00101166
0.00101131
0.00101097
0.00101064
0.00101031
0.00101
0.00100969
0.00100939
0.0010091
0.00100882
0.00100854
0.00100827
0.00100801
0.00100776
0.00100751
0.00100727
0.00100703
0.00100681
0.00100658
0.00100637
0.00100616
0.0010167
0.00101621
0.00101574
0.00101528
0.00101483
0.00101439
0.00101397
0.00101356
0.00101316
0.00101277
0.00101239
0.00101202
0.00101166
0.00101131
0.00101097
0.00101063
0.00101031
0.00101
0.00100969
0.00100939
0.0010091
0.00100882
0.00100854
0.00100827
0.00100801
0.00100776
0.00100751
0.00100727
0.00100703
0.0010068
0.00100658
0.00100636
0.00100615
0.0010167
0.00101621
0.00101574
0.00101528
0.00101483
0.00101439
0.00101397
0.00101356
0.00101316
0.00101277
0.00101239
0.00101202
0.00101166
0.00101131
0.00101097
0.00101063
0.00101031
0.00101
0.00100969
0.00100939
0.0010091
0.00100882
0.00100854
0.00100827
0.00100801
0.00100775
0.00100751
0.00100726
0.00100703
0.0010068
0.00100657
0.00100635
0.00100614
0.0010167
0.00101621
0.00101574
0.00101528
0.00101483
0.00101439
0.00101397
0.00101356
0.00101316
0.00101277
0.00101239
0.00101202
0.00101166
0.00101131
0.00101097
0.00101063
0.00101031
0.00101
0.00100969
0.00100939
0.0010091
0.00100882
0.00100854
0.00100827
0.00100801
0.00100775
0.0010075
0.00100726
0.00100702
0.00100679
0.00100657
0.00100635
0.00100614
0.0010167
0.00101621
0.00101574
0.00101528
0.00101483
0.00101439
0.00101397
0.00101356
0.00101316
0.00101277
0.00101239
0.00101202
0.00101166
0.00101131
0.00101097
0.00101063
0.00101031
0.00101
0.00100969
0.00100939
0.0010091
0.00100881
0.00100854
0.00100827
0.00100801
0.00100775
0.0010075
0.00100726
0.00100702
0.00100679
0.00100656
0.00100634
0.00100613
0.0010167
0.00101621
0.00101574
0.00101528
0.00101483
0.00101439
0.00101397
0.00101356
0.00101316
0.00101277
0.00101239
0.00101202
0.00101166
0.00101131
0.00101097
0.00101063
0.00101031
0.00101
0.00100969
0.00100939
0.0010091
0.00100881
0.00100854
0.00100827
0.00100801
0.00100775
0.0010075
0.00100726
0.00100702
0.00100679
0.00100656
0.00100634
0.00100612
0.0010167
0.00101621
0.00101574
0.00101528
0.00101483
0.00101439
0.00101397
0.00101356
0.00101316
0.00101277
0.00101239
0.00101202
0.00101166
0.00101131
0.00101097
0.00101063
0.00101031
0.00101
0.00100969
0.00100939
0.0010091
0.00100881
0.00100854
0.00100827
0.001008
0.00100775
0.0010075
0.00100725
0.00100702
0.00100678
0.00100656
0.00100633
0.00100612
0.0010167
0.00101621
0.00101574
0.00101528
0.00101483
0.00101439
0.00101397
0.00101356
0.00101316
0.00101277
0.00101239
0.00101202
0.00101166
0.00101131
0.00101097
0.00101063
0.00101031
0.00101
0.00100969
0.00100939
0.0010091
0.00100881
0.00100854
0.00100827
0.001008
0.00100774
0.00100749
0.00100725
0.00100701
0.00100678
0.00100655
0.00100632
0.00100611
0.0010167
0.00101621
0.00101574
0.00101528
0.00101483
0.00101439
0.00101397
0.00101356
0.00101316
0.00101277
0.00101239
0.00101202
0.00101166
0.00101131
0.00101097
0.00101064
0.00101031
0.00101
0.00100969
0.00100939
0.00100909
0.00100881
0.00100853
0.00100826
0.00100799
0.00100773
0.00100747
0.00100722
0.00100698
0.00100674
0.0010065
0.00100628
0.00100605
0.0010167
0.00101621
0.00101574
0.00101528
0.00101483
0.00101439
0.00101397
0.00101356
0.00101316
0.00101277
0.00101239
0.00101202
0.00101166
0.0010113
0.00101096
0.00101063
0.0010103
0.00100998
0.00100966
0.00100935
0.00100905
0.00100875
0.00100846
0.00100817
0.00100788
0.0010076
0.00100733
0.00100706
0.00100679
0.00100652
0.00100626
0.001006
0.00100574
0.0010167
0.00101621
0.00101574
0.00101528
0.00101483
0.00101439
0.00101397
0.00101356
0.00101315
0.00101276
0.00101237
0.00101199
0.00101162
0.00101125
0.00101088
0.00101051
0.00101015
0.00100979
0.00100942
0.00100906
0.00100869
0.00100833
0.00100796
0.00100759
0.00100721
0.00100684
0.00100646
0.00100608
0.00100569
0.00100531
0.00100492
0.00100453
0.00100414
0.0010167
0.00101621
0.00101574
0.00101527
0.00101482
0.00101438
0.00101394
0.0010135
0.00101305
0.00101259
0.00101213
0.00101164
0.00101114
0.00101062
0.00101008
0.00100952
0.00100893
0.00100832
0.00100768
0.00100703
0.00100635
0.00100564
0.00100492
0.00100418
0.00100342
0.00100264
0.00100185
0.00100104
0.00100022
0.000999391
0.00099855
0.000997699
0.000996843
0.0010167
0.00101621
0.00101571
0.00101519
0.00101464
0.00101403
0.00101334
0.00101256
0.00101167
0.00101068
0.00100958
0.00100837
0.00100705
0.00100562
0.0010041
0.00100248
0.00100078
0.000999002
0.000997154
0.000995245
0.000993281
0.00099127
0.000989219
0.000987134
0.000985023
0.00098289
0.000980742
0.000978584
0.000976419
0.000974253
0.000972089
0.000969931
0.000967783
0.00101669
0.00101596
0.00101486
0.00101328
0.00101118
0.00100855
0.00100542
0.00100181
0.00099777
0.000993355
0.000988613
0.000983595
0.000978351
0.000972927
0.000967365
0.000961703
0.000955975
0.00095021
0.000944434
0.000938669
0.000932935
0.000927248
0.000921621
0.000916067
0.000910594
0.00090521
0.000899921
0.000894733
0.000889649
0.000884672
0.000879803
0.000875045
0.000870398
0.00101524
0.00100708
0.000994964
0.000980625
0.000964774
0.000947867
0.000930288
0.000912383
0.000894446
0.000876707
0.000859328
0.000842424
0.000826068
0.000810305
0.000795158
0.000780633
0.000766725
0.000753421
0.000740703
0.000728551
0.000716941
0.000705849
0.000695251
0.000685123
0.000675441
0.000666183
0.000657326
0.000648851
0.000640736
0.000632964
0.000625516
0.000618376
0.000611527
0.000934351
0.000813407
0.000726837
0.000658857
0.000603217
0.000556899
0.000518004
0.000485053
0.000456859
0.000432499
0.000411266
0.00039261
0.000376103
0.000361403
0.00034824
0.000336393
0.000325682
0.000315959
0.0003071
0.000299003
0.000291579
0.000284753
0.000278462
0.00027265
0.000267269
0.000262276
0.000257636
0.000253315
0.000249286
0.000245522
0.000242001
0.000238704
0.000235609
0.000125479
0.000128845
0.000132087
0.000135185
0.000138141
0.000140961
0.00014365
0.000146214
0.000148658
0.000150985
0.0001532
0.000155308
0.000157313
0.000159219
0.00016103
0.00016275
0.000164384
0.000165934
0.000167406
0.000168801
0.000170125
0.00017138
0.000172571
0.000173699
0.000174768
0.000175781
0.000176741
0.00017765
0.000178512
0.000179328
0.000180101
0.000180833
0.000181526
6.1666e-05
0.000414859
0.000708304
0.000794284
0.000776013
0.000727244
0.000679482
0.000654811
0.000658082
0.000680008
0.000709335
0.000738318
0.000763336
0.000783668
0.00080005
0.000813715
0.000825832
0.000837227
0.000848301
0.0008591
0.000869489
0.000879378
0.000888968
0.000898961
0.000910665
0.000925906
0.000946663
0.000974438
0.00100949
0.00105026
0.00109329
0.00113384
0.00116695
0.00118872
0.00119718
0.0011928
0.00117839
0.00115869
0.00113978
0.00112834
0.00113078
0.00115203
0.00119435
0.00125645
0.00133377
0.00141983
0.00150803
0.00159304
0.00167121
0.00174037
0.00179923
0.00184688
0.0018825
0.00190538
0.00191507
0.00191155
0.00189538
0.00186779
0.00183056
0.001786
0.00173677
0.00168577
0.00163592
0.00159
0.0015504
0.0015188
0.00149595
0.00148144
0.00147379
0.00147074
0.00146975
0.00146854
0.0014655
0.00145993
0.00145204
0.00144288
0.00143423
0.0014286
0.0014293
0.00144058
0.00146758
0.00151548
0.0015875
0.00168243
0.00179369
0.00191114
0.00202481
0.00212796
0.00221796
0.00229544
0.00236279
0.00242266
0.00247706
0.00252683
0.00257167
0.00261045
0.00264178
0.00266431
0.00267766
0.00267782
0.00129574
0.000169123
0.000409778
0.000589388
0.000656852
0.000658814
0.000629909
0.000593709
0.000572836
0.000574374
0.00059064
0.000612726
0.000635428
0.000656477
0.00067534
0.000692383
0.000708204
0.000723225
0.000737533
0.000750924
0.000763067
0.000773725
0.000782989
0.000791481
0.00080045
0.000811719
0.000827369
0.000849157
0.000877761
0.000912119
0.000949239
0.000984691
0.00101367
0.00103225
0.00103832
0.00103207
0.00101592
0.000994124
0.000972208
0.000956415
0.000952985
0.000967181
0.00100202
0.00105718
0.00112878
0.00121055
0.00129564
0.00137825
0.00145431
0.00152141
0.00157824
0.00162401
0.00165806
0.00167984
0.00168896
0.0016854
0.00166967
0.00164286
0.00160664
0.00156316
0.00151498
0.00146486
0.00141566
0.00137016
0.00133082
0.00129952
0.00127727
0.001264
0.00125848
0.00125859
0.00126176
0.00126554
0.00126809
0.00126846
0.00126661
0.00126338
0.00126035
0.0012598
0.00126482
0.00127948
0.00130884
0.00135824
0.00143135
0.00152748
0.00164038
0.00176001
0.0018763
0.00198239
0.00207554
0.00215635
0.00222712
0.00229048
0.00234836
0.00240151
0.00244955
0.00249129
0.00252529
0.00255018
0.00256572
0.00256789
0.000525924
0.00035723
0.000225477
0.000336199
0.00044112
0.000498435
0.000512537
0.000497695
0.000470149
0.000448996
0.000445441
0.000456839
0.000475746
0.000497116
0.000518723
0.000539885
0.000560423
0.000580167
0.000598804
0.000615894
0.000630964
0.00064368
0.00065403
0.000662505
0.000670197
0.000678782
0.000690298
0.000706674
0.000729033
0.000756987
0.000788269
0.000819033
0.000844779
0.000861567
0.000867049
0.000860987
0.00084526
0.000823486
0.000800505
0.000781869
0.000773331
0.000780166
0.000806103
0.000852075
0.000915514
0.000990935
0.0010716
0.0011513
0.00122541
0.00129106
0.00134671
0.00139153
0.00142504
0.00144681
0.0014566
0.0014544
0.00144066
0.00141634
0.00138295
0.00134248
0.0012973
0.00125001
0.00120337
0.00116006
0.00112255
0.00109286
0.00107223
0.00106093
0.00105809
0.00106183
0.00106964
0.00107899
0.0010878
0.00109482
0.0010997
0.00110295
0.00110583
0.00111028
0.00111897
0.00113552
0.00116467
0.00121181
0.00128125
0.00137349
0.00148344
0.00160176
0.00171847
0.00182636
0.00192223
0.00200623
0.00208041
0.00214722
0.00220853
0.00226506
0.00231645
0.00236147
0.00239868
0.00242666
0.0024452
0.00245082
0.000495595
0.000627464
0.000480227
0.000335587
0.000338849
0.000373646
0.000400817
0.00041079
0.000403895
0.000383828
0.000359784
0.000343402
0.000340168
0.00034869
0.000365063
0.000385567
0.000407623
0.000429659
0.000450695
0.000470016
0.000487046
0.000501376
0.000512883
0.000521863
0.000529127
0.00053602
0.000544299
0.000555821
0.000572006
0.000593168
0.000618003
0.000643581
0.000666014
0.000681561
0.000687707
0.000683811
0.000671205
0.000652849
0.000632772
0.000615537
0.000605836
0.000608149
0.000626164
0.000661778
0.000714101
0.000779321
0.000851759
0.00092547
0.000995519
0.0010585
0.00111243
0.00115627
0.00118949
0.0012118
0.00122304
0.00122325
0.00121286
0.00119272
0.00116419
0.00112907
0.00108956
0.0010481
0.00100726
0.000969583
0.000937386
0.000912588
0.000896469
0.000889441
0.000890895
0.000899236
0.000912175
0.000927228
0.000942237
0.000955739
0.000967114
0.000976551
0.000984936
0.000993759
0.00100514
0.00102205
0.00104856
0.00108979
0.00115061
0.00123307
0.00133409
0.00144588
0.001559
0.00166592
0.0017627
0.00184876
0.00192555
0.0019952
0.00205945
0.00211903
0.0021736
0.00222197
0.00226269
0.00229426
0.00231645
0.00232674
0.000605203
0.0006299
0.000651517
0.000593852
0.000513632
0.000468252
0.000450491
0.000445581
0.000443798
0.000437751
0.000421578
0.00039532
0.000367206
0.000344801
0.000331454
0.000327431
0.000330996
0.000339736
0.000351376
0.000364069
0.000376434
0.00038752
0.000396787
0.000404116
0.000409813
0.000414606
0.00041961
0.00042619
0.000435666
0.000448824
0.000465372
0.00048367
0.000500995
0.000514346
0.000521445
0.00052147
0.000515269
0.000505061
0.000493852
0.000484833
0.000481013
0.000485112
0.00049951
0.000525878
0.000564499
0.000613802
0.000670585
0.000730748
0.000790165
0.000845388
0.000893971
0.000934413
0.00096589
0.000987981
0.00100052
0.00100356
0.000997505
0.000983119
0.000961627
0.000934687
0.000904311
0.000872748
0.00084232
0.000815253
0.000793494
0.000778546
0.000771326
0.000772035
0.00078008
0.000794096
0.00081214
0.00083205
0.000851873
0.000870197
0.000886308
0.000900179
0.00091237
0.000923936
0.000936416
0.000951996
0.00097384
0.0010063
0.00105431
0.00112129
0.00120668
0.00130516
0.00140872
0.00150991
0.00160406
0.00168958
0.00176709
0.00183815
0.00190422
0.00196597
0.0020231
0.00207448
0.00211863
0.002154
0.00218018
0.0021961
0.000727303
0.00072382
0.00072572
0.000719728
0.000697934
0.000666273
0.000634227
0.000609233
0.000594587
0.000587938
0.000581801
0.000568043
0.000545396
0.000516617
0.000485407
0.000455807
0.000430782
0.000411608
0.000398142
0.000389428
0.000384232
0.00038137
0.000379877
0.000379074
0.000378578
0.000378292
0.000378382
0.000379248
0.000381443
0.000385489
0.000391621
0.000399533
0.00040829
0.000416537
0.000423012
0.000427128
0.000429267
0.000430632
0.0004328
0.000437227
0.00044497
0.000456703
0.000472906
0.000493933
0.000519791
0.000549986
0.000583728
0.000620083
0.000657739
0.000694894
0.000729559
0.000759986
0.00078489
0.00080345
0.000815239
0.000820166
0.000818491
0.000810859
0.000798327
0.000782333
0.000764614
0.000747059
0.000731524
0.000719646
0.00071268
0.000711399
0.000716055
0.000726396
0.000741704
0.000760844
0.00078237
0.000804714
0.000826437
0.000846456
0.000864177
0.00087951
0.000892804
0.000904766
0.000916435
0.000929278
0.000945472
0.000968263
0.00100187
0.00105029
0.00111507
0.00119382
0.00128096
0.00137007
0.00145624
0.00153699
0.0016119
0.00168177
0.00174759
0.00180988
0.00186829
0.00192173
0.00196872
0.00200762
0.00203776
0.00205984
0.000826535
0.000819756
0.000814117
0.00080867
0.000801519
0.00079114
0.000777001
0.000760977
0.000747173
0.000738678
0.000734397
0.000729853
0.00072139
0.000707032
0.000686479
0.000660944
0.000632585
0.00060375
0.00057637
0.000551693
0.0005303
0.000512273
0.000497384
0.000485252
0.00047545
0.00046757
0.000461276
0.000456341
0.000452643
0.000450125
0.000448748
0.000448498
0.000449431
0.000451666
0.000455348
0.000460646
0.000467795
0.000477057
0.000488586
0.000502276
0.000517728
0.000534378
0.000551725
0.000569425
0.000587103
0.000604073
0.000619536
0.00063326
0.000645867
0.000658227
0.00067068
0.000682847
0.00069393
0.000703091
0.000709682
0.00071336
0.000714118
0.00071231
0.000708635
0.000704077
0.000699805
0.000697014
0.000696765
0.000699837
0.000706639
0.000717198
0.000731217
0.000748172
0.000767397
0.00078813
0.000809533
0.000830728
0.000850882
0.000869328
0.000885663
0.000899794
0.000911919
0.000922485
0.000932154
0.000941849
0.000952943
0.00096758
0.000988864
0.00102034
0.00106448
0.00112116
0.00118739
0.00125874
0.00133106
0.00140163
0.00146931
0.00153413
0.00159651
0.00165667
0.00171419
0.00176796
0.00181647
0.001858
0.00189152
0.00191964
0.000898371
0.000892843
0.000887308
0.000881902
0.000876616
0.000871063
0.000864514
0.000856687
0.000848564
0.000841901
0.000837581
0.000834783
0.000831807
0.000826891
0.000818741
0.000806768
0.000791112
0.000772486
0.000751937
0.000730597
0.000709506
0.0006895
0.000671163
0.000654833
0.000640622
0.00062847
0.000618219
0.00060968
0.000602689
0.000597103
0.0005928
0.000589711
0.000587919
0.000587721
0.000589559
0.000593854
0.000600831
0.000610419
0.000622228
0.000635606
0.000649745
0.000663861
0.000677366
0.000689958
0.00070148
0.000711606
0.000719624
0.000724684
0.000726415
0.000725334
0.000722604
0.000719428
0.000716602
0.000714449
0.000712985
0.000712121
0.000711821
0.000712183
0.000713456
0.000716012
0.000720272
0.000726611
0.000735263
0.00074627
0.000759457
0.000774477
0.000790881
0.000808201
0.000826007
0.000843924
0.000861607
0.0008787
0.000894833
0.000909664
0.000922938
0.000934545
0.000944547
0.00095317
0.000960792
0.000967959
0.000975486
0.00098469
0.000997639
0.00101704
0.00104535
0.00108348
0.00113014
0.00118256
0.00123787
0.00129398
0.00134982
0.00140513
0.00146
0.00151442
0.00156789
0.0016193
0.00166713
0.00170953
0.00174514
0.00177831
0.000946189
0.000942269
0.000938236
0.000934122
0.000930021
0.000925959
0.000921766
0.000917216
0.000912382
0.000907763
0.000903917
0.000900993
0.000898653
0.00089624
0.000893011
0.000888329
0.000881789
0.000873263
0.000862893
0.000851028
0.000838156
0.000824823
0.000811558
0.000798815
0.000786927
0.0007761
0.000766434
0.000757961
0.0007507
0.000744665
0.000739875
0.000736354
0.000734173
0.00073348
0.000734494
0.000737414
0.000742307
0.000749016
0.000757154
0.000766156
0.000775383
0.000784252
0.000792352
0.000799509
0.000805745
0.000811095
0.000815393
0.000818178
0.000818863
0.000817094
0.000813018
0.000807287
0.000800819
0.00079452
0.000789113
0.000785098
0.000782789
0.00078238
0.000783983
0.000787651
0.000793374
0.000801064
0.00081054
0.000821527
0.000833681
0.000846616
0.000859958
0.000873388
0.000886665
0.000899634
0.00091219
0.000924242
0.000935676
0.000946351
0.000956125
0.000964894
0.000972631
0.0009794
0.000985371
0.000990823
0.000996203
0.00100227
0.0010103
0.0010222
0.00104013
0.00106549
0.001098
0.00113576
0.00117641
0.00121826
0.00126062
0.00130358
0.00134745
0.00139242
0.00143818
0.0014838
0.00152787
0.00156848
0.00160408
0.00164013
0.000975411
0.000972846
0.000970195
0.000967436
0.000964589
0.000961699
0.000958775
0.000955772
0.000952671
0.000949564
0.000946633
0.000944029
0.000941775
0.000939747
0.000937709
0.000935372
0.000932462
0.000928767
0.000924168
0.000918655
0.000912322
0.000905344
0.000897952
0.000890397
0.000882913
0.000875692
0.000868887
0.000862614
0.000856981
0.000852099
0.000848079
0.000845031
0.00084306
0.000842266
0.000842735
0.000844507
0.00084753
0.000851625
0.000856487
0.000861721
0.000866907
0.000871673
0.000875766
0.000879094
0.00088172
0.000883788
0.000885407
0.000886536
0.00088696
0.000886383
0.000884602
0.000881641
0.000877787
0.000873528
0.000869425
0.000866014
0.000863727
0.000862872
0.000863624
0.000866037
0.000870062
0.000875557
0.000882308
0.000890049
0.00089849
0.000907337
0.000916327
0.000925248
0.000933952
0.000942361
0.000950446
0.000958204
0.000965627
0.000972683
0.000979317
0.000985466
0.000991082
0.000996157
0.00100073
0.00100493
0.00100895
0.00101318
0.00101835
0.00102567
0.0010368
0.00105336
0.00107601
0.0011039
0.00113499
0.00116719
0.00119934
0.0012314
0.00126401
0.00129788
0.00133334
0.00137004
0.00140704
0.00144264
0.00147548
0.00151102
0.000991712
0.000990146
0.000988519
0.000986804
0.000984993
0.000983102
0.000981159
0.000979177
0.000977162
0.000975128
0.000973115
0.000971177
0.000969352
0.00096764
0.000966001
0.000964355
0.000962601
0.000960634
0.000958362
0.000955723
0.000952692
0.000949286
0.000945559
0.000941594
0.000937487
0.000933341
0.000929253
0.00092532
0.000921644
0.000918338
0.000915525
0.000913329
0.000911861
0.000911209
0.000911421
0.000912488
0.000914329
0.000916783
0.000919619
0.000922565
0.000925341
0.000927712
0.000929519
0.000930708
0.000931336
0.000931541
0.000931487
0.000931299
0.000931006
0.000930543
0.000929796
0.000928675
0.00092718
0.00092543
0.000923639
0.000922078
0.000921019
0.000920695
0.00092127
0.000922828
0.000925372
0.000928836
0.000933092
0.000937976
0.000943302
0.000948882
0.000954544
0.000960148
0.000965594
0.000970828
0.000975835
0.000980628
0.00098523
0.000989656
0.000993904
0.000997955
0.00100178
0.00100537
0.00100871
0.00101183
0.00101482
0.00101783
0.00102122
0.00102568
0.00103228
0.00104239
0.00105721
0.00107705
0.00110101
0.00112727
0.00115394
0.00117996
0.00120525
0.00123046
0.00125638
0.00128342
0.00131153
0.00133952
0.001367
0.00139801
0.000999962
0.000999046
0.00099809
0.000997075
0.000995985
0.000994824
0.000993607
0.000992354
0.000991078
0.000989788
0.000988491
0.000987195
0.000985911
0.000984644
0.000983391
0.00098214
0.000980869
0.000979547
0.000978142
0.000976622
0.000974964
0.000973155
0.000971193
0.000969094
0.000966883
0.000964595
0.000962278
0.000959987
0.00095779
0.000955771
0.000954026
0.000952655
0.000951748
0.000951374
0.000951566
0.000952307
0.000953523
0.000955087
0.000956828
0.000958551
0.000960066
0.000961212
0.000961885
0.000962047
0.00096174
0.00096107
0.000960181
0.000959223
0.000958313
0.000957509
0.000956816
0.000956201
0.000955631
0.000955102
0.000954652
0.00095436
0.00095433
0.00095467
0.000955471
0.000956793
0.000958653
0.00096103
0.000963864
0.000967065
0.000970529
0.000974143
0.000977799
0.000981407
0.000984898
0.00098823
0.00099139
0.000994388
0.000997247
0.000999994
0.00100265
0.00100522
0.00100772
0.00101012
0.00101242
0.00101463
0.00101675
0.00101885
0.00102107
0.00102374
0.00102745
0.00103311
0.00104179
0.00105439
0.00107115
0.00109141
0.00111377
0.00113667
0.00115899
0.00118033
0.00120095
0.00122132
0.00124199
0.00126237
0.00128353
0.00130715
0.00100372
0.00100318
0.00100261
0.00100201
0.00100136
0.00100066
0.000999918
0.000999145
0.000998353
0.000997549
0.000996735
0.00099591
0.00099507
0.00099421
0.00099333
0.000992426
0.000991496
0.000990537
0.000989545
0.000988513
0.000987437
0.000986309
0.000985127
0.000983889
0.000982599
0.000981268
0.000979916
0.000978572
0.000977277
0.000976089
0.000975073
0.000974299
0.000973832
0.000973719
0.000973979
0.000974592
0.0009755
0.000976603
0.000977775
0.000978873
0.000979762
0.000980327
0.000980493
0.000980232
0.000979571
0.000978587
0.000977391
0.000976116
0.000974885
0.000973799
0.000972922
0.000972278
0.000971868
0.00097168
0.000971703
0.00097194
0.000972406
0.000973127
0.000974128
0.000975428
0.000977029
0.000978919
0.000981062