/*--------------------------------*- C++ -*----------------------------------*\
  =========                 |
  \\      /  F ield         | OpenFOAM: The Open Source CFD Toolbox
   \\    /   O peration     | Website:  https://openfoam.org
    \\  /    A nd           | Version:  10
     \\/     M anipulation  |
\*---------------------------------------------------------------------------*/
FoamFile
{
    format      ascii;
    class       volScalarField;
    location    "1600";
    object      p;
}
// * * * * * * * * * * * * * * * * * * * * * * * * * * * * * * * * * * * * * //

dimensions      [0 2 -2 0 0 0 0];

internalField   nonuniform List<scalar> 
6820
(
-8.00124
-8.77263
-9.21983
-9.36652
-9.44464
-9.50917
-9.55404
-9.58352
-9.60597
-9.6251
-9.64173
-9.65635
-9.66952
-9.68159
-9.69269
-9.70288
-9.71217
-9.72052
-9.72786
-9.73406
-9.73893
-9.74221
-9.74354
-9.7424
-9.73807
-9.72952
-9.71526
-9.69322
-9.66107
-9.61338
-9.5746
-9.57283
-9.5494
-9.55568
-9.70077
-9.67649
-9.60735
-9.57923
-9.58398
-9.59622
-9.60834
-9.62118
-9.63472
-9.64799
-9.6605
-9.67225
-9.68328
-9.69356
-9.70308
-9.7118
-9.71967
-9.72659
-9.73245
-9.73706
-9.7402
-9.74153
-9.74062
-9.73685
-9.72941
-9.71704
-9.69829
-9.66985
-9.63073
-9.5417
-9.39619
-9.03103
-9.55936
-9.4239
-9.42401
-9.45791
-9.49314
-9.52991
-9.56144
-9.58583
-9.60599
-9.62386
-9.6398
-9.65407
-9.66701
-9.67889
-9.68983
-9.6999
-9.7091
-9.71741
-9.72477
-9.73108
-9.73617
-9.73985
-9.74182
-9.74171
-9.73899
-9.73298
-9.72268
-9.70688
-9.68274
-9.64856
-9.58265
-9.50458
-9.41506
-9.48978
-9.41214
-9.45632
-9.50319
-9.52856
-9.55251
-9.57587
-9.59545
-9.61239
-9.62806
-9.64259
-9.65597
-9.66834
-9.67987
-9.69059
-9.70053
-9.70968
-9.718
-9.72543
-9.73187
-9.7372
-9.74122
-9.74373
-9.74441
-9.74287
-9.73866
-9.73111
-9.71954
-9.70253
-9.68022
-9.64655
-9.62651
-9.64918
-9.48332
-9.45379
-9.48329
-9.51448
-9.53329
-9.554
-9.57607
-9.59543
-9.61235
-9.62797
-9.64249
-9.65588
-9.66828
-9.67983
-9.6906
-9.70061
-9.70985
-9.7183
-9.72593
-9.73265
-9.73835
-9.74291
-9.74616
-9.7479
-9.74788
-9.74586
-9.74156
-9.73489
-9.72573
-9.71571
-9.70624
-9.71612
-9.76679
-9.49133
-9.47718
-9.4931
-9.51822
-9.53781
-9.5579
-9.5787
-9.59736
-9.61387
-9.62914
-9.64339
-9.65661
-9.66892
-9.68042
-9.69119
-9.70124
-9.71058
-9.71919
-9.72704
-9.73407
-9.74022
-9.74539
-9.74949
-9.75241
-9.75405
-9.75439
-9.75348
-9.75169
-9.74978
-9.75011
-9.75649
-9.78099
-9.83637
-9.49922
-9.49164
-9.50283
-9.52486
-9.54406
-9.56259
-9.58166
-9.59939
-9.61542
-9.63032
-9.6443
-9.65737
-9.6696
-9.68108
-9.69187
-9.70199
-9.71146
-9.72026
-9.72839
-9.73579
-9.74245
-9.74831
-9.75335
-9.75754
-9.76094
-9.76366
-9.76603
-9.7687
-9.77288
-9.78096
-9.79673
-9.82724
-9.8794
-9.50733
-9.50416
-9.51348
-9.5322
-9.54998
-9.56708
-9.58471
-9.60158
-9.61712
-9.63164
-9.64535
-9.65825
-9.6704
-9.68185
-9.69267
-9.70289
-9.7125
-9.72153
-9.72996
-9.73778
-9.745
-9.7516
-9.75763
-9.76313
-9.76825
-9.77326
-9.77861
-9.78509
-9.794
-9.8074
-9.82825
-9.86051
-9.90777
-9.51587
-9.51537
-9.52351
-9.53931
-9.55563
-9.5716
-9.588
-9.604
-9.619
-9.63313
-9.64655
-9.65927
-9.67132
-9.68275
-9.6936
-9.70391
-9.71369
-9.72296
-9.73172
-9.73999
-9.74779
-9.75517
-9.76219
-9.76898
-9.77574
-9.78282
-9.79075
-9.80032
-9.8127
-9.82953
-9.85288
-9.88493
-9.92739
-9.52449
-9.52543
-9.53276
-9.54633
-9.56125
-9.57616
-9.59146
-9.6066
-9.62104
-9.63477
-9.64789
-9.66042
-9.67237
-9.68377
-9.69466
-9.70507
-9.71503
-9.72455
-9.73366
-9.74239
-9.75079
-9.75892
-9.76691
-9.77492
-9.78319
-9.79209
-9.80215
-9.8141
-9.82892
-9.84781
-9.87215
-9.90305
-9.94121
-9.53296
-9.5346
-9.54136
-9.5532
-9.5668
-9.58071
-9.59502
-9.60935
-9.62322
-9.63655
-9.64938
-9.66171
-9.67354
-9.68491
-9.69584
-9.70636
-9.71649
-9.72627
-9.73573
-9.74492
-9.75391
-9.76279
-9.77169
-9.78081
-9.7904
-9.80084
-9.81261
-9.82633
-9.84276
-9.86276
-9.88717
-9.91652
-9.95094
-9.54113
-9.54308
-9.54936
-9.55986
-9.57224
-9.58521
-9.59863
-9.6122
-9.62552
-9.63844
-9.65098
-9.66311
-9.67483
-9.68616
-9.69713
-9.70775
-9.71807
-9.72811
-9.73792
-9.74756
-9.75711
-9.76668
-9.77642
-9.78652
-9.79725
-9.80894
-9.82201
-9.83697
-9.85439
-9.87484
-9.8988
-9.92644
-9.95766
-9.54894
-9.55097
-9.55683
-9.56624
-9.57754
-9.58963
-9.60225
-9.61512
-9.6279
-9.64043
-9.65268
-9.66461
-9.67622
-9.68751
-9.69851
-9.70924
-9.71973
-9.73002
-9.74017
-9.75023
-9.76031
-9.77051
-9.78099
-9.79194
-9.8036
-9.81627
-9.8303
-9.84607
-9.864
-9.88444
-9.90765
-9.93361
-9.9621
-9.55632
-9.55833
-9.56378
-9.57232
-9.58268
-9.59396
-9.60584
-9.61807
-9.63034
-9.64249
-9.65445
-9.66618
-9.67768
-9.68894
-9.69996
-9.71079
-9.72145
-9.73198
-9.74243
-9.75289
-9.76344
-9.7742
-9.78532
-9.79697
-9.80937
-9.82276
-9.83744
-9.85369
-9.87178
-9.89192
-9.91422
-9.93856
-9.96472
-9.56326
-9.56519
-9.57027
-9.57808
-9.58761
-9.59816
-9.60937
-9.62101
-9.6328
-9.64458
-9.65626
-9.66781
-9.67919
-9.69041
-9.70146
-9.71237
-9.72318
-9.73393
-9.74467
-9.75548
-9.76644
-9.77768
-9.78932
-9.80152
-9.81448
-9.82838
-9.84345
-9.8599
-9.87789
-9.89754
-9.91886
-9.94169
-9.96583
-9.56973
-9.57157
-9.57629
-9.58349
-9.59232
-9.60219
-9.61281
-9.6239
-9.63525
-9.64668
-9.6581
-9.66946
-9.68073
-9.69189
-9.70296
-9.71396
-9.7249
-9.73584
-9.74683
-9.75794
-9.76925
-9.78088
-9.79293
-9.80555
-9.81889
-9.83311
-9.84837
-9.8648
-9.88251
-9.90154
-9.92186
-9.94329
-9.96567
-9.57574
-9.57747
-9.58187
-9.58855
-9.59676
-9.60604
-9.61611
-9.62672
-9.63765
-9.64875
-9.65992
-9.6711
-9.68226
-9.69337
-9.70445
-9.71551
-9.72656
-9.73767
-9.74886
-9.76022
-9.77181
-9.78374
-9.7961
-9.80901
-9.82258
-9.83695
-9.85222
-9.86848
-9.88578
-9.90412
-9.92344
-9.94357
-9.96439
-9.58127
-9.58289
-9.58701
-9.59323
-9.60092
-9.60967
-9.61925
-9.62941
-9.63997
-9.65076
-9.66169
-9.6727
-9.68375
-9.69481
-9.70589
-9.71699
-9.72814
-9.73937
-9.75073
-9.76228
-9.77408
-9.78623
-9.79879
-9.81187
-9.82555
-9.83992
-9.85507
-9.87103
-9.88783
-9.90543
-9.92377
-9.94271
-9.96212
-9.58631
-9.58784
-9.5917
-9.59753
-9.60476
-9.61305
-9.62219
-9.63196
-9.64217
-9.65268
-9.66339
-9.67423
-9.68517
-9.69617
-9.70723
-9.71836
-9.72958
-9.7409
-9.75239
-9.76407
-9.77602
-9.7883
-9.80097
-9.81411
-9.82779
-9.84206
-9.85697
-9.87254
-9.88878
-9.90562
-9.92302
-9.94083
-9.95896
-9.59086
-9.5923
-9.59593
-9.60142
-9.60826
-9.61615
-9.62489
-9.63431
-9.64421
-9.65446
-9.66496
-9.67565
-9.68648
-9.69742
-9.70846
-9.7196
-9.73085
-9.74224
-9.7538
-9.76557
-9.7776
-9.78993
-9.80263
-9.81574
-9.82932
-9.84339
-9.85798
-9.8731
-9.88873
-9.90481
-9.92129
-9.93804
-9.955
-9.5949
-9.59626
-9.59969
-9.6049
-9.61139
-9.61893
-9.62733
-9.63643
-9.64605
-9.65607
-9.66639
-9.67693
-9.68766
-9.69853
-9.70953
-9.72066
-9.73193
-9.74334
-9.75494
-9.76674
-9.77878
-9.79111
-9.80376
-9.81676
-9.83016
-9.84396
-9.85817
-9.87279
-9.88778
-9.90311
-9.91869
-9.93445
-9.95032
-9.59842
-9.59971
-9.60297
-9.60792
-9.61413
-9.62136
-9.62947
-9.63829
-9.64767
-9.65748
-9.66762
-9.67803
-9.68865
-9.69946
-9.71041
-9.72152
-9.73277
-9.74418
-9.75577
-9.76756
-9.77956
-9.79182
-9.80436
-9.81719
-9.83034
-9.84381
-9.85759
-9.87168
-9.88603
-9.9006
-9.91533
-9.93014
-9.94499
-9.6014
-9.60264
-9.60575
-9.61048
-9.61644
-9.62341
-9.63126
-9.63984
-9.64901
-9.65863
-9.66863
-9.67891
-9.68944
-9.70017
-9.71107
-9.72214
-9.73336
-9.74473
-9.75628
-9.76801
-9.77993
-9.79207
-9.80443
-9.81704
-9.82989
-9.84299
-9.85631
-9.86984
-9.88354
-9.89737
-9.91128
-9.92519
-9.93908
-9.60382
-9.60501
-9.60799
-9.61254
-9.61828
-9.62503
-9.63267
-9.64105
-9.65004
-9.65951
-9.66937
-9.67954
-9.68998
-9.70064
-9.71148
-9.72249
-9.73366
-9.74497
-9.75644
-9.76808
-9.77988
-9.79185
-9.80401
-9.81634
-9.82886
-9.84155
-9.85439
-9.86735
-9.88041
-9.89352
-9.90663
-9.91969
-9.93267
-9.60566
-9.6068
-9.60967
-9.61406
-9.61963
-9.6262
-9.63366
-9.64188
-9.65071
-9.66005
-9.6698
-9.67989
-9.69025
-9.70083
-9.71161
-9.72255
-9.73365
-9.74489
-9.75626
-9.76776
-9.77941
-9.79118
-9.80309
-9.81513
-9.82728
-9.83954
-9.85188
-9.86428
-9.8767
-9.8891
-9.90145
-9.9137
-9.92582
-9.60688
-9.60798
-9.61075
-9.61501
-9.62043
-9.62686
-9.63418
-9.64227
-9.651
-9.66024
-9.6699
-9.67991
-9.6902
-9.70072
-9.71143
-9.72231
-9.73332
-9.74446
-9.75571
-9.76707
-9.77852
-9.79008
-9.80171
-9.81342
-9.8252
-9.83701
-9.84885
-9.86068
-9.87248
-9.8842
-9.89582
-9.90729
-9.9186
-9.60746
-9.60853
-9.61121
-9.61534
-9.62065
-9.62697
-9.63419
-9.6422
-9.65084
-9.66001
-9.66962
-9.67958
-9.68981
-9.70028
-9.71093
-9.72173
-9.73266
-9.74368
-9.7548
-9.76599
-9.77725
-9.78856
-9.79991
-9.81128
-9.82266
-9.83404
-9.84537
-9.85665
-9.86784
-9.87891
-9.88983
-9.90056
-9.9111
-9.60736
-9.60839
-9.61098
-9.61501
-9.62022
-9.62647
-9.63364
-9.64159
-9.6502
-9.65935
-9.66893
-9.67885
-9.68906
-9.69948
-9.71008
-9.72081
-9.73164
-9.74256
-9.75353
-9.76454
-9.77558
-9.78663
-9.79768
-9.80871
-9.8197
-9.83063
-9.84147
-9.85221
-9.86281
-9.87325
-9.88351
-9.89354
-9.90336
-9.60655
-9.60754
-9.61003
-9.61395
-9.61909
-9.6253
-9.63246
-9.64042
-9.64904
-9.65819
-9.66778
-9.67772
-9.68792
-9.69832
-9.70888
-9.71955
-9.73031
-9.74111
-9.75194
-9.76278
-9.77361
-9.78441
-9.79516
-9.80585
-9.81645
-9.82695
-9.83732
-9.84754
-9.85758
-9.86743
-9.87706
-9.88643
-9.89556
-9.60499
-9.60592
-9.60829
-9.61208
-9.61716
-9.62339
-9.6306
-9.63861
-9.6473
-9.65652
-9.66616
-9.67613
-9.68634
-9.69674
-9.70726
-9.71788
-9.72854
-9.73923
-9.74991
-9.76056
-9.77116
-9.7817
-9.79216
-9.80251
-9.81273
-9.82281
-9.83272
-9.84244
-9.85195
-9.86124
-9.87027
-9.87904
-9.88753
-9.60267
-9.60352
-9.60568
-9.60931
-9.61436
-9.62066
-9.62797
-9.63611
-9.64493
-9.65429
-9.66407
-9.67415
-9.68445
-9.69491
-9.70547
-9.71608
-9.72671
-9.73732
-9.74788
-9.75838
-9.7688
-9.7791
-9.78928
-9.79931
-9.80918
-9.81886
-9.82834
-9.8376
-9.84661
-9.85537
-9.86385
-9.87202
-9.8799
-9.5996
-9.60028
-9.60209
-9.60548
-9.61055
-9.61703
-9.62454
-9.63285
-9.64183
-9.65132
-9.66119
-9.67133
-9.68167
-9.69213
-9.70267
-9.71324
-9.72379
-9.73429
-9.74472
-9.75506
-9.76527
-9.77535
-9.78527
-9.795
-9.80454
-9.81386
-9.82295
-9.83179
-9.84036
-9.84864
-9.85663
-9.86431
-9.87169
-9.59584
-9.5962
-9.59739
-9.60039
-9.60552
-9.61228
-9.62018
-9.62899
-9.63851
-9.64852
-9.65883
-9.66935
-9.67999
-9.69067
-9.70136
-9.712
-9.72257
-9.73304
-9.74338
-9.75357
-9.7636
-9.77345
-9.78309
-9.79252
-9.80171
-9.81066
-9.81934
-9.82773
-9.83583
-9.84362
-9.85109
-9.85821
-9.86499
-9.59164
-9.59124
-9.59127
-9.59395
-9.59936
-9.60621
-9.61392
-9.62252
-9.63193
-9.6419
-9.65221
-9.66276
-9.67345
-9.68422
-9.69498
-9.7057
-9.71633
-9.72684
-9.7372
-9.74739
-9.75739
-9.76717
-9.77673
-9.78603
-9.79507
-9.80383
-9.81229
-9.82045
-9.82829
-9.8358
-9.84298
-9.84982
-9.85635
-9.58765
-9.58542
-9.58255
-9.58486
-9.59232
-9.60185
-9.61199
-9.62262
-9.6336
-9.6447
-9.65578
-9.66682
-9.67777
-9.68861
-9.69931
-9.70985
-9.72023
-9.73042
-9.74042
-9.7502
-9.75976
-9.76907
-9.77814
-9.78693
-9.79544
-9.80366
-9.81157
-9.81916
-9.82642
-9.83334
-9.83989
-9.84606
-9.85185
-9.58506
-9.57994
-9.57241
-9.57014
-9.57279
-9.57842
-9.5866
-9.59679
-9.60808
-9.61987
-9.63191
-9.64407
-9.65622
-9.66826
-9.68012
-9.69178
-9.70319
-9.71433
-9.7252
-9.73577
-9.74603
-9.75598
-9.7656
-9.77489
-9.78382
-9.7924
-9.80062
-9.80846
-9.81593
-9.82302
-9.82973
-9.83607
-9.84209
-9.58548
-9.56558
-9.5684
-9.58823
-9.60503
-9.61602
-9.62595
-9.63648
-9.64695
-9.65699
-9.66681
-9.67655
-9.68623
-9.69582
-9.70532
-9.71471
-9.72398
-9.73311
-9.74209
-9.75088
-9.75948
-9.76786
-9.77601
-9.7839
-9.79152
-9.79886
-9.80589
-9.8126
-9.81899
-9.82502
-9.8307
-9.83598
-9.84087
-9.62295
-9.49971
-9.43662
-9.44031
-9.46274
-9.48457
-9.50601
-9.52792
-9.54927
-9.56942
-9.58839
-9.60631
-9.62324
-9.63926
-9.65445
-9.6689
-9.68265
-9.69577
-9.70829
-9.72023
-9.73164
-9.74253
-9.75291
-9.7628
-9.7722
-9.78113
-9.78958
-9.79757
-9.80509
-9.81215
-9.81875
-9.82491
-9.83063
-9.78286
-9.79603
-9.75473
-9.71261
-9.6887
-9.67828
-9.6739
-9.67213
-9.67248
-9.67498
-9.6792
-9.68459
-9.6908
-9.69762
-9.70491
-9.71252
-9.72033
-9.72827
-9.73624
-9.74419
-9.75206
-9.75982
-9.76741
-9.77481
-9.78199
-9.78892
-9.79558
-9.80194
-9.80799
-9.81372
-9.8191
-9.82412
-9.82876
-8.61861
-8.91896
-9.18405
-9.31009
-9.3752
-9.43146
-9.48116
-9.51972
-9.54968
-9.57492
-9.59719
-9.617
-9.63478
-9.651
-9.66603
-9.68005
-9.69323
-9.70565
-9.71742
-9.72858
-9.73918
-9.74926
-9.75883
-9.76792
-9.77653
-9.78468
-9.79238
-9.79962
-9.80641
-9.81276
-9.81868
-9.82417
-9.82925
-9.70943
-10.3205
-10.6004
-10.6486
-10.5199
-10.373
-10.3103
-10.3469
-10.4532
-10.5933
-10.7365
-10.8614
-10.9581
-11.0255
-11.0665
-11.0856
-11.0878
-11.0789
-11.0649
-11.0508
-11.0399
-11.0334
-11.0308
-11.0311
-11.034
-11.0402
-11.052
-11.0721
-11.1025
-11.1427
-11.1889
-11.2325
-11.2614
-11.2615
-11.2186
-11.1214
-10.9632
-10.7438
-10.4694
-10.1516
-9.80616
-9.45021
-9.10019
-8.76969
-8.46808
-8.2001
-7.96622
-7.76357
-7.5871
-7.43063
-7.28766
-7.1519
-7.01763
-6.87978
-6.73408
-6.57698
-6.40575
-6.21846
-6.01406
-5.79239
-5.55431
-5.3016
-5.03693
-4.76366
-4.48561
-4.20673
-3.93075
-3.6609
-3.3997
-3.1488
-2.90906
-2.68067
-2.46331
-2.25636
-2.05907
-1.87072
-1.69069
-1.51857
-1.35424
-1.19798
-1.05051
-0.912992
-0.786794
-0.673133
-0.572626
-0.485085
-0.409569
-0.344703
-0.288988
-0.241073
-0.199809
-0.16431
-0.133787
-0.107671
-0.0851535
-0.0660452
-0.0483878
-0.0352541
-0.0140749
-0.0204638
-9.49146
-10.7922
-10.9611
-10.785
-10.5499
-10.3548
-10.2698
-10.3013
-10.4109
-10.5543
-10.6976
-10.82
-10.9131
-10.978
-11.0188
-11.0399
-11.0455
-11.0403
-11.0293
-11.0175
-11.0079
-11.0019
-10.9992
-10.9991
-11.001
-11.006
-11.0162
-11.0343
-11.0625
-11.1004
-11.1441
-11.1851
-11.2115
-11.2089
-11.1636
-11.0642
-10.9047
-10.685
-10.4116
-10.0961
-9.75385
-9.40182
-9.0561
-8.73006
-8.43296
-8.16952
-7.94016
-7.742
-7.56991
-7.41764
-7.27863
-7.14654
-7.01559
-6.88069
-6.7375
-6.58247
-6.41286
-6.22675
-6.02315
-5.80199
-5.56422
-5.31173
-5.04728
-4.7743
-4.49668
-4.21836
-3.94308
-3.67406
-3.41375
-3.16377
-2.92493
-2.69734
-2.48063
-2.27413
-2.07707
-1.88868
-1.70835
-1.53563
-1.37041
-1.21296
-1.06404
-0.92487
-0.796946
-0.681616
-0.579612
-0.490802
-0.414241
-0.348506
-0.292045
-0.243462
-0.20159
-0.165543
-0.134537
-0.108021
-0.0851579
-0.0658297
-0.0478326
-0.03487
-0.0126399
-0.0216755
-9.78144
-10.5674
-10.7351
-10.6011
-10.432
-10.3026
-10.2559
-10.2985
-10.4026
-10.533
-10.6624
-10.7738
-10.8604
-10.9227
-10.9643
-10.9888
-10.9992
-10.9991
-10.9925
-10.9837
-10.9759
-10.9705
-10.9678
-10.967
-10.9681
-10.9718
-10.9802
-10.996
-11.0211
-11.0553
-11.0945
-11.1309
-11.1526
-11.1458
-11.0972
-10.996
-10.8365
-10.6189
-10.3496
-10.0397
-9.70423
-9.3592
-9.02014
-8.69999
-8.40789
-8.14861
-7.92275
-7.72759
-7.55817
-7.40832
-7.27152
-7.14147
-7.01239
-6.87917
-6.73747
-6.58373
-6.4152
-6.23002
-6.02722
-5.80681
-5.5698
-5.31815
-5.05468
-4.78282
-4.50643
-4.22943
-3.9555
-3.68779
-3.42871
-3.17983
-2.94194
-2.71513
-2.49901
-2.29291
-2.09603
-1.90762
-1.72705
-1.55389
-1.388
-1.22965
-1.07959
-0.93908
-0.809658
-0.692769
-0.589246
-0.499033
-0.421218
-0.354374
-0.296926
-0.247451
-0.20477
-0.167993
-0.136341
-0.109275
-0.0859288
-0.0662443
-0.0478052
-0.0348301
-0.0116036
-0.0227403
-9.87435
-10.3424
-10.537
-10.4826
-10.3633
-10.2767
-10.26
-10.3144
-10.4145
-10.5301
-10.6407
-10.7357
-10.8115
-10.8688
-10.9099
-10.9371
-10.9519
-10.9566
-10.9543
-10.9485
-10.9424
-10.9377
-10.9349
-10.9337
-10.934
-10.9367
-10.9434
-10.9565
-10.9776
-11.0064
-11.0393
-11.0687
-11.0836
-11.0711
-11.0185
-10.9158
-10.7578
-10.5448
-10.2828
-9.98239
-9.6573
-9.32261
-8.99282
-8.68028
-8.39389
-8.13852
-7.91514
-7.72142
-7.55277
-7.40331
-7.26672
-7.13682
-7.00789
-6.87488
-6.73346
-6.58008
-6.41202
-6.22743
-6.02538
-5.80595
-5.57016
-5.32001
-5.05828
-4.78838
-4.51407
-4.23917
-3.96726
-3.7014
-3.44392
-3.19639
-2.95956
-2.73356
-2.51801
-2.31227
-2.11557
-1.92719
-1.7465
-1.57308
-1.40681
-1.24792
-1.09713
-0.955667
-0.82508
-0.706843
-0.601867
-0.510184
-0.430954
-0.362788
-0.30412
-0.253524
-0.209814
-0.172101
-0.139607
-0.111802
-0.0877945
-0.0675758
-0.0485494
-0.0353537
-0.0111146
-0.0238202
-9.92106
-10.221
-10.3971
-10.3932
-10.3226
-10.271
-10.2718
-10.3278
-10.4191
-10.5207
-10.6165
-10.6994
-10.7675
-10.8211
-10.8617
-10.8904
-10.9082
-10.9164
-10.9174
-10.9141
-10.9094
-10.905
-10.9019
-10.8999
-10.8993
-10.9005
-10.9052
-10.915
-10.9312
-10.9535
-10.9783
-10.9989
-11.0052
-10.9855
-10.9283
-10.8244
-10.6692
-10.4629
-10.211
-9.92298
-9.6114
-9.28991
-8.97183
-8.66864
-8.38889
-8.13756
-7.91601
-7.72253
-7.55306
-7.40221
-7.26401
-7.13251
-7.00214
-6.86794
-6.72564
-6.57172
-6.40349
-6.21913
-6.01776
-5.79945
-5.56526
-5.31712
-5.05779
-4.79055
-4.51905
-4.24694
-3.97766
-3.71415
-3.45867
-3.21274
-2.97715
-2.75205
-2.53712
-2.33177
-2.1353
-1.94701
-1.76633
-1.59286
-1.42646
-1.26736
-1.11623
-0.974224
-0.842826
-0.723494
-0.617182
-0.524016
-0.443257
-0.373597
-0.313513
-0.261596
-0.216663
-0.177825
-0.144303
-0.115575
-0.0907272
-0.0697942
-0.0500341
-0.0364106
-0.0111466
-0.0248889
-9.95155
-10.1528
-10.2992
-10.3292
-10.3014
-10.2783
-10.2885
-10.3379
-10.4151
-10.5019
-10.5856
-10.6602
-10.7236
-10.7755
-10.816
-10.8457
-10.8653
-10.8757
-10.879
-10.8777
-10.8742
-10.8705
-10.8673
-10.865
-10.8636
-10.8637
-10.8663
-10.8727
-10.8837
-10.8985
-10.9141
-10.9245
-10.9208
-10.8928
-10.8303
-10.7253
-10.5735
-10.375
-10.1345
-9.86066
-9.56438
-9.25793
-8.95329
-8.66096
-8.38896
-8.14222
-7.92248
-7.72863
-7.55731
-7.40377
-7.26251
-7.12795
-6.99477
-6.85816
-6.71395
-6.55869
-6.38973
-6.2053
-6.00452
-5.78748
-5.55518
-5.30953
-5.05314
-4.78917
-4.52108
-4.25235
-3.98624
-3.72554
-3.47244
-3.22842
-2.99428
-2.77023
-2.55602
-2.35115
-2.15498
-1.96688
-1.78633
-1.61295
-1.44664
-1.28761
-1.13647
-0.994279
-0.86242
-0.742276
-0.634804
-0.540207
-0.457869
-0.386594
-0.324939
-0.271535
-0.22521
-0.185078
-0.150358
-0.120531
-0.0946695
-0.0728416
-0.0522
-0.0379376
-0.0116434
-0.0258591
-9.9698
-10.1132
-10.2343
-10.2834
-10.2849
-10.2813
-10.2968
-10.3397
-10.4047
-10.4798
-10.5544
-10.6229
-10.6826
-10.7323
-10.7718
-10.8014
-10.8216
-10.8335
-10.8386
-10.8389
-10.8365
-10.8333
-10.83
-10.8272
-10.825
-10.8238
-10.8244
-10.8274
-10.8333
-10.8411
-10.8479
-10.8482
-10.8346
-10.7982
-10.7302
-10.6238
-10.4751
-10.2842
-10.0553
-9.79556
-9.51477
-9.22373
-8.93313
-8.65246
-8.38909
-8.14777
-7.93043
-7.73643
-7.56309
-7.40631
-7.26123
-7.12271
-6.98578
-6.84587
-6.69897
-6.54175
-6.37164
-6.18691
-5.98668
-5.77104
-5.54092
-5.29813
-5.04512
-4.78489
-4.52068
-4.25576
-3.99322
-3.7357
-3.48528
-3.24342
-3.01094
-2.7881
-2.57474
-2.37044
-2.17466
-1.98682
-1.80648
-1.6333
-1.46721
-1.3084
-1.15747
-1.01536
-0.883331
-0.762655
-0.654242
-0.558342
-0.474456
-0.40152
-0.338198
-0.283183
-0.235332
-0.193763
-0.157695
-0.126609
-0.099571
-0.0766725
-0.0550024
-0.0398884
-0.0125697
-0.0266493
-9.98157
-10.09
-10.1903
-10.2466
-10.2663
-10.2763
-10.2965
-10.3356
-10.3924
-10.4588
-10.5262
-10.5891
-10.6447
-10.6913
-10.7288
-10.7572
-10.7774
-10.7901
-10.7964
-10.7982
-10.797
-10.7942
-10.791
-10.7876
-10.7845
-10.7819
-10.7802
-10.7798
-10.7808
-10.7819
-10.7804
-10.7715
-10.7486
-10.7043
-10.6312
-10.5233
-10.3775
-10.1936
-9.97533
-9.72889
-9.46278
-9.18651
-8.9096
-8.64055
-8.3861
-8.15071
-7.93638
-7.74283
-7.56792
-7.40815
-7.25924
-7.11656
-6.97556
-6.83197
-6.68201
-6.52252
-6.35104
-6.16589
-5.96623
-5.75209
-5.52434
-5.28464
-5.03528
-4.77905
-4.51898
-4.25813
-3.99938
-3.74523
-3.49769
-3.25816
-3.02747
-2.80595
-2.59354
-2.38989
-2.19455
-2.00703
-1.82694
-1.654
-1.48817
-1.32967
-1.17903
-1.03713
-0.905111
-0.784107
-0.674958
-0.577922
-0.492591
-0.418028
-0.353016
-0.296327
-0.246862
-0.203751
-0.166214
-0.133734
-0.105373
-0.0812414
-0.0584035
-0.0422314
-0.0139095
-0.027198
-9.9893
-10.0753
-10.1589
-10.2161
-10.2464
-10.2663
-10.2909
-10.3284
-10.3794
-10.4387
-10.4997
-10.5571
-10.6082
-10.6515
-10.6866
-10.7137
-10.7334
-10.7464
-10.7537
-10.7565
-10.7562
-10.7539
-10.7505
-10.7465
-10.7423
-10.7381
-10.7341
-10.7305
-10.7268
-10.7218
-10.7128
-10.6956
-10.6646
-10.6134
-10.5357
-10.4265
-10.2832
-10.1058
-9.89714
-9.66285
-9.41026
-9.14774
-8.88368
-8.62572
-8.37997
-8.15058
-7.93958
-7.74694
-7.57097
-7.40867
-7.25629
-7.10971
-6.96477
-6.81755
-6.66453
-6.50275
-6.32987
-6.1443
-5.94522
-5.73263
-5.50731
-5.27078
-5.02516
-4.773
-4.51713
-4.26039
-4.00549
-3.75477
-3.51015
-3.273
-3.04417
-2.82405
-2.61263
-2.40968
-2.21483
-2.02766
-1.84785
-1.67517
-1.50962
-1.35142
-1.20109
-1.05945
-0.927498
-0.806271
-0.696516
-0.598483
-0.511826
-0.435717
-0.369053
-0.310689
-0.259576
-0.214862
-0.175777
-0.141799
-0.111998
-0.0864913
-0.0623607
-0.0449378
-0.0156513
-0.0274644
-9.99418
-10.0649
-10.1357
-10.1908
-10.227
-10.2539
-10.2822
-10.3188
-10.3654
-10.4186
-10.4735
-10.5257
-10.5725
-10.6125
-10.6452
-10.6709
-10.69
-10.7031
-10.711
-10.7145
-10.7147
-10.7126
-10.7089
-10.7042
-10.6988
-10.6928
-10.6864
-10.6795
-10.6715
-10.6609
-10.6453
-10.6209
-10.5829
-10.5258
-10.4443
-10.3343
-10.1934
-10.0218
-9.82202
-9.5988
-9.35858
-9.10867
-8.85654
-8.60897
-8.3715
-8.148
-7.94045
-7.74905
-7.57244
-7.40809
-7.25272
-7.10264
-6.9541
-6.80351
-6.64762
-6.48366
-6.30947
-6.12352
-5.92505
-5.714
-5.49109
-5.25768
-5.01571
-4.76755
-4.51579
-4.26308
-4.01194
-3.76459
-3.52286
-3.28808
-3.06112
-2.84242
-2.63204
-2.42983
-2.2355
-2.04872
-1.86921
-1.69682
-1.53156
-1.37367
-1.22364
-1.08223
-0.950363
-0.828947
-0.718651
-0.619704
-0.531809
-0.454231
-0.385969
-0.32596
-0.273206
-0.226874
-0.186201
-0.150663
-0.119339
-0.0923476
-0.0668213
-0.0479784
-0.0177797
-0.027432
-9.997
-10.0568
-10.1179
-10.1698
-10.2088
-10.2401
-10.271
-10.3071
-10.3499
-10.3979
-10.4474
-10.4947
-10.5374
-10.5743
-10.6048
-10.629
-10.6474
-10.6603
-10.6684
-10.6723
-10.6727
-10.6705
-10.6664
-10.6608
-10.6541
-10.6463
-10.6375
-10.6273
-10.6151
-10.5994
-10.578
-10.5473
-10.5033
-10.4412
-10.3567
-10.2463
-10.1079
-9.9418
-9.75012
-9.53702
-9.30809
-9.06978
-8.82865
-8.59076
-8.36113
-8.14332
-7.93927
-7.74933
-7.57244
-7.40648
-7.24857
-7.09544
-6.9437
-6.79008
-6.63159
-6.46567
-6.2903
-6.10406
-5.9062
-5.69667
-5.47607
-5.24567
-5.00722
-4.7629
-4.51509
-4.26627
-4.01877
-3.7747
-3.53579
-3.30335
-3.07826
-2.86098
-2.65166
-2.45023
-2.25646
-2.07011
-1.89094
-1.71886
-1.5539
-1.39632
-1.24659
-1.10541
-0.973609
-0.85201
-0.741205
-0.641394
-0.55232
-0.473327
-0.403509
-0.341882
-0.287499
-0.239552
-0.19728
-0.160154
-0.127261
-0.0987114
-0.0717164
-0.0513167
-0.0202667
-0.0271174
-9.99831
-10.0501
-10.1037
-10.152
-10.1918
-10.2255
-10.258
-10.2933
-10.3331
-10.3765
-10.4211
-10.464
-10.503
-10.537
-10.5654
-10.5882
-10.6056
-10.6181
-10.626
-10.6299
-10.6303
-10.6279
-10.6232
-10.6166
-10.6085
-10.5988
-10.5875
-10.5742
-10.558
-10.5377
-10.5109
-10.4748
-10.4256
-10.3595
-10.2726
-10.1621
-10.0263
-9.86528
-9.6811
-9.4773
-9.25876
-9.03111
-8.80016
-8.57131
-8.34907
-8.13674
-7.93617
-7.74784
-7.57096
-7.40375
-7.2437
-7.08791
-6.93335
-6.77704
-6.61623
-6.44858
-6.27219
-6.08575
-5.88854
-5.68049
-5.46215
-5.23463
-4.99955
-4.75891
-4.51491
-4.26982
-4.02584
-3.78496
-3.54881
-3.31869
-3.09545
-2.87962
-2.6714
-2.47078
-2.27761
-2.09172
-1.91293
-1.74119
-1.57655
-1.41929
-1.26985
-1.12888
-0.997138
-0.875356
-0.764058
-0.663422
-0.573216
-0.492854
-0.421513
-0.358286
-0.30228
-0.252711
-0.20883
-0.170099
-0.135613
-0.105463
-0.076957
-0.0549003
-0.0230571
-0.0265708
-9.99842
-10.0441
-10.0918
-10.1366
-10.1758
-10.2104
-10.2434
-10.2778
-10.3149
-10.3545
-10.3948
-10.4337
-10.4693
-10.5005
-10.5268
-10.5481
-10.5645
-10.5764
-10.5839
-10.5875
-10.5876
-10.5848
-10.5794
-10.5717
-10.5621
-10.5505
-10.5367
-10.5204
-10.5005
-10.4759
-10.4444
-10.4034
-10.3498
-10.2803
-10.1916
-10.0812
-9.94794
-9.79184
-9.61463
-9.41941
-9.21044
-8.99264
-8.77113
-8.55072
-8.33547
-8.12838
-7.93127
-7.74467
-7.56804
-7.39987
-7.23802
-7.07993
-6.92288
-6.76417
-6.60131
-6.43212
-6.25487
-6.06832
-5.87179
-5.66521
-5.44904
-5.22431
-4.99248
-4.75538
-4.51504
-4.27357
-4.03301
-3.79524
-3.56181
-3.33398
-3.1126
-2.89824
-2.69115
-2.49139
-2.29887
-2.11348
-1.93511
-1.76373
-1.59943
-1.44249
-1.29333
-1.15256
-1.02086
-0.898892
-0.78711
-0.685677
-0.594382
-0.512695
-0.439868
-0.375062
-0.317437
-0.266239
-0.220732
-0.180375
-0.144275
-0.112494
-0.0824497
-0.0586657
-0.026064
-0.025873
-9.99752
-10.0384
-10.0812
-10.1227
-10.1605
-10.1949
-10.2278
-10.261
-10.2958
-10.332
-10.3685
-10.4038
-10.4362
-10.4649
-10.4891
-10.5089
-10.5241
-10.5351
-10.542
-10.5451
-10.5448
-10.5413
-10.535
-10.5263
-10.5151
-10.5016
-10.4854
-10.4661
-10.4428
-10.4142
-10.3784
-10.3332
-10.2759
-10.2035
-10.1134
-10.0034
-9.87267
-9.72118
-9.55043
-9.36314
-9.163
-8.95432
-8.74158
-8.52907
-8.32041
-8.11838
-7.92467
-7.73991
-7.56371
-7.39486
-7.23151
-7.07143
-6.91218
-6.75135
-6.58665
-6.41611
-6.23813
-6.05155
-5.85574
-5.6506
-5.43655
-5.21451
-4.98582
-4.75214
-4.51534
-4.27738
-4.04016
-3.80543
-3.57469
-3.34913
-3.12964
-2.91678
-2.71086
-2.51199
-2.32017
-2.13532
-1.9574
-1.78641
-1.62248
-1.46586
-1.31699
-1.1764
-1.04472
-0.922548
-0.810285
-0.708072
-0.61572
-0.532748
-0.458471
-0.392114
-0.332884
-0.280057
-0.232913
-0.19091
-0.153173
-0.11973
-0.0881252
-0.0625613
-0.0291865
-0.0251286
-9.9957
-10.0326
-10.0714
-10.1098
-10.1458
-10.1793
-10.2114
-10.2433
-10.2758
-10.3091
-10.3423
-10.3743
-10.4038
-10.4299
-10.4522
-10.4703
-10.4843
-10.4942
-10.5003
-10.5028
-10.5017
-10.4975
-10.4903
-10.4804
-10.4677
-10.4522
-10.4337
-10.4116
-10.385
-10.3528
-10.3133
-10.2644
-10.2038
-10.129
-10.0378
-9.92856
-9.80025
-9.65308
-9.48834
-9.30837
-9.11638
-8.91613
-8.71155
-8.50641
-8.304
-8.10681
-7.91646
-7.73361
-7.55804
-7.38875
-7.22419
-7.0624
-6.90123
-6.73852
-6.5722
-6.40048
-6.22188
-6.03535
-5.84028
-5.63656
-5.42457
-5.20513
-4.97947
-4.74909
-4.51572
-4.28117
-4.0472
-3.81546
-3.58738
-3.3641
-3.1465
-2.93517
-2.73046
-2.53254
-2.34146
-2.1572
-1.97976
-1.80919
-1.64564
-1.48935
-1.34075
-1.20033
-1.06866
-0.94627
-0.833525
-0.730545
-0.637159
-0.552933
-0.477239
-0.409358
-0.34854
-0.29409
-0.245307
-0.201648
-0.162257
-0.127129
-0.0939419
-0.0665591
-0.0323412
-0.0244552
-9.99306
-10.0266
-10.062
-10.0975
-10.1315
-10.1636
-10.1945
-10.2248
-10.2553
-10.2859
-10.3161
-10.3451
-10.3718
-10.3956
-10.4159
-10.4323
-10.445
-10.4538
-10.459
-10.4605
-10.4587
-10.4536
-10.4454
-10.4342
-10.4199
-10.4026
-10.3818
-10.357
-10.3274
-10.2919
-10.249
-10.1969
-10.1335
-10.0568
-9.96493
-9.85639
-9.73049
-9.58739
-9.42823
-9.25502
-9.07055
-8.87808
-8.68107
-8.48284
-8.28632
-8.09378
-7.90673
-7.72586
-7.55108
-7.38158
-7.21607
-7.05284
-6.89002
-6.72566
-6.55793
-6.38519
-6.20609
-6.01966
-5.82534
-5.62303
-5.41304
-5.19612
-4.97338
-4.74619
-4.51614
-4.2849
-4.05411
-3.82531
-3.59984
-3.37884
-3.16314
-2.95338
-2.74992
-2.55299
-2.36269
-2.17906
-2.00215
-1.83202
-1.66886
-1.51291
-1.36457
-1.2243
-1.09263
-0.97001
-0.856781
-0.753044
-0.658645
-0.573191
-0.496106
-0.426723
-0.364335
-0.308272
-0.257852
-0.212532
-0.171481
-0.134653
-0.0998658
-0.0706411
-0.035469
-0.0239531
-9.98963
-10.0204
-10.0527
-10.0855
-10.1174
-10.1479
-10.1773
-10.206
-10.2344
-10.2625
-10.29
-10.3163
-10.3404
-10.3619
-10.3802
-10.395
-10.4062
-10.4139
-10.4179
-10.4186
-10.4158
-10.4097
-10.4003
-10.3878
-10.372
-10.3527
-10.3297
-10.3025
-10.2701
-10.2317
-10.1858
-10.1308
-10.0651
-9.98687
-9.89449
-9.78682
-9.66327
-9.524
-9.37
-9.20303
-9.02549
-8.84021
-8.65022
-8.45844
-8.26747
-8.07938
-7.89557
-7.71673
-7.54288
-7.37339
-7.20717
-7.04277
-6.87854
-6.71278
-6.54382
-6.37021
-6.19072
-6.00446
-5.81092
-5.60998
-5.40194
-5.18745
-4.96753
-4.74342
-4.51659
-4.28856
-4.06086
-3.83493
-3.61206
-3.39331
-3.17954
-2.97136
-2.76919
-2.5733
-2.38383
-2.20087
-2.02451
-1.85486
-1.69209
-1.53648
-1.3884
-1.24827
-1.11657
-0.993722
-0.880008
-0.775525
-0.680132
-0.593473
-0.515021
-0.444156
-0.380213
-0.322547
-0.270494
-0.223514
-0.180797
-0.142263
-0.10586
-0.0747859
-0.0385284
-0.0236822
-9.98547
-10.0137
-10.0434
-10.0737
-10.1034
-10.1321
-10.1598
-10.1868
-10.2132
-10.239
-10.264
-10.2877
-10.3095
-10.3288
-10.3451
-10.3583
-10.368
-10.3744
-10.3773
-10.3768
-10.373
-10.3658
-10.3552
-10.3413
-10.3239
-10.3029
-10.2778
-10.2482
-10.2133
-10.1722
-10.1236
-10.0663
-9.99858
-9.91909
-9.82648
-9.71976
-9.59848
-9.4628
-9.31359
-9.15237
-8.98121
-8.80257
-8.61908
-8.43331
-8.24757
-8.06372
-7.88307
-7.70631
-7.53351
-7.36422
-7.19753
-7.0322
-6.86682
-6.69986
-6.52988
-6.35555
-6.17578
-5.98975
-5.797
-5.59742
-5.39127
-5.17913
-4.96192
-4.74078
-4.51705
-4.29213
-4.06744
-3.84433
-3.62401
-3.40751
-3.19566
-2.98909
-2.78825
-2.59343
-2.40483
-2.22258
-2.0468
-1.87764
-1.71529
-1.56003
-1.41219
-1.27219
-1.14046
-1.01736
-0.903161
-0.797942
-0.701574
-0.613734
-0.533939
-0.461614
-0.396131
-0.336871
-0.28319
-0.234552
-0.190168
-0.149924
-0.111892
-0.0789699
-0.0414919
-0.0236565
-9.98062
-10.0066
-10.034
-10.0619
-10.0895
-10.1163
-10.1422
-10.1674
-10.1918
-10.2155
-10.2382
-10.2595
-10.279
-10.2962
-10.3107
-10.3221
-10.3304
-10.3354
-10.3371
-10.3355
-10.3305
-10.3221
-10.3103
-10.295
-10.276
-10.2532
-10.2261
-10.1943
-10.1571
-10.1136
-10.0627
-10.0032
-9.93391
-9.85347
-9.76081
-9.65511
-9.53603
-9.40372
-9.25895
-9.10302
-8.93772
-8.76519
-8.58772
-8.40755
-8.22673
-8.04693
-7.86936
-7.69468
-7.52305
-7.35414
-7.18719
-7.02117
-6.85485
-6.68693
-6.5161
-6.3412
-6.16125
-5.97552
-5.78359
-5.58535
-5.38102
-5.17114
-4.95655
-4.73827
-4.51753
-4.29562
-4.07386
-3.8535
-3.63569
-3.42141
-3.21149
-3.00655
-2.80705
-2.61334
-2.42565
-2.24414
-2.06898
-1.90033
-1.73841
-1.58349
-1.4359
-1.29601
-1.16423
-1.04088
-0.926196
-0.820251
-0.722928
-0.63393
-0.552817
-0.479054
-0.412048
-0.351206
-0.295905
-0.245611
-0.199562
-0.157608
-0.117934
-0.0831738
-0.0443493
-0.0238611
-9.97512
-9.99911
-10.0243
-10.05
-10.0756
-10.1005
-10.1246
-10.1479
-10.1704
-10.192
-10.2125
-10.2317
-10.249
-10.2642
-10.2768
-10.2866
-10.2934
-10.297
-10.2974
-10.2945
-10.2883
-10.2787
-10.2655
-10.2488
-10.2283
-10.2038
-10.1749
-10.141
-10.1017
-10.056
-10.0031