/*--------------------------------*- C++ -*----------------------------------*\
  =========                 |
  \\      /  F ield         | OpenFOAM: The Open Source CFD Toolbox
   \\    /   O peration     | Website:  https://openfoam.org
    \\  /    A nd           | Version:  10
     \\/     M anipulation  |
\*---------------------------------------------------------------------------*/
FoamFile
{
    format      ascii;
    class       volVectorField;
    location    "1600";
    object      U;
}
// * * * * * * * * * * * * * * * * * * * * * * * * * * * * * * * * * * * * * //

dimensions      [0 1 -1 0 0 0 0];

internalField   nonuniform List<vector> 
6820
(
(7.31669 -0.387301 0)
(7.31539 -0.335159 0)
(7.28416 -0.203505 0)
(7.22622 -0.111093 0)
(7.16187 -0.056762 0)
(7.10079 -0.0269957 0)
(7.04496 -0.0112597 0)
(6.99458 -0.00306044 0)
(6.94939 0.00116615 0)
(6.90876 0.00330184 0)
(6.87196 0.00434711 0)
(6.83834 0.00483614 0)
(6.80738 0.00505074 0)
(6.77869 0.00513748 0)
(6.75194 0.0051719 0)
(6.72684 0.00519264 0)
(6.70317 0.00521939 0)
(6.68072 0.0052625 0)
(6.65933 0.00532841 0)
(6.63882 0.0054228 0)
(6.61903 0.0055527 0)
(6.59978 0.00572823 0)
(6.58088 0.00596497 0)
(6.5621 0.00628556 0)
(6.54316 0.0067293 0)
(6.52368 0.00735535 0)
(6.50315 0.00815137 0)
(6.48112 0.00967472 0)
(6.45523 0.0124969 0)
(6.43208 0.0104647 0)
(6.41436 0.0298649 0)
(6.33827 0.839631 0)
(6.3764 0.434387 0)
(7.33961 0.100779 0)
(7.35429 0.149926 0)
(7.35847 0.123252 0)
(7.35871 0.0898611 0)
(7.35934 0.066054 0)
(7.35805 0.0501392 0)
(7.35275 0.039567 0)
(7.34367 0.0326182 0)
(7.33199 0.0279885 0)
(7.31866 0.0247866 0)
(7.30432 0.0224783 0)
(7.28943 0.0207495 0)
(7.27433 0.019407 0)
(7.25923 0.0183292 0)
(7.24426 0.0174408 0)
(7.22951 0.0166955 0)
(7.21501 0.0160651 0)
(7.2008 0.0155337 0)
(7.18687 0.0150938 0)
(7.1732 0.0147446 0)
(7.15979 0.0144924 0)
(7.14659 0.0143504 0)
(7.13358 0.0143416 0)
(7.12069 0.0145026 0)
(7.10787 0.0148888 0)
(7.09505 0.0155873 0)
(7.08215 0.0167097 0)
(7.06911 0.018499 0)
(7.05626 0.0207838 0)
(7.03707 0.023375 0)
(7.02049 0.0230762 0)
(6.98388 0.0373027 0)
(6.91496 0.111597 0)
(7.32714 0.0061222 0)
(7.32429 -0.00159339 0)
(7.3313 -0.0061756 0)
(7.33972 -0.000773201 0)
(7.34675 0.00705923 0)
(7.35206 0.012792 0)
(7.35525 0.0163073 0)
(7.35637 0.0184086 0)
(7.35579 0.0195969 0)
(7.35389 0.0201741 0)
(7.35091 0.0203675 0)
(7.34704 0.0203381 0)
(7.34248 0.0201871 0)
(7.33738 0.0199765 0)
(7.33184 0.0197461 0)
(7.32597 0.0195224 0)
(7.31982 0.0193241 0)
(7.31345 0.0191654 0)
(7.30688 0.0190596 0)
(7.30013 0.0190207 0)
(7.29321 0.0190662 0)
(7.2861 0.0192192 0)
(7.27878 0.0195119 0)
(7.2712 0.0199899 0)
(7.2633 0.0207206 0)
(7.25497 0.0217969 0)
(7.24609 0.0233596 0)
(7.23635 0.0256178 0)
(7.22588 0.0290348 0)
(7.21096 0.0325297 0)
(7.19461 0.0435534 0)
(7.18169 0.0719243 0)
(7.17205 0.110453 0)
(7.32977 -0.00401044 0)
(7.3263 0.00245164 0)
(7.3311 0.0106805 0)
(7.33675 0.0168211 0)
(7.34138 0.0203806 0)
(7.34567 0.0218965 0)
(7.34943 0.0223875 0)
(7.35235 0.0225204 0)
(7.35446 0.0225132 0)
(7.35584 0.0224203 0)
(7.35656 0.0222781 0)
(7.35667 0.0221167 0)
(7.35625 0.0219533 0)
(7.35535 0.021798 0)
(7.35404 0.0216595 0)
(7.35236 0.0215463 0)
(7.35034 0.0214678 0)
(7.34803 0.0214347 0)
(7.34544 0.0214599 0)
(7.34257 0.0215604 0)
(7.33944 0.0217584 0)
(7.33602 0.0220839 0)
(7.33231 0.0225786 0)
(7.32825 0.0233007 0)
(7.32381 0.0243339 0)
(7.3189 0.0257962 0)
(7.31343 0.0278696 0)
(7.30721 0.0308138 0)
(7.30024 0.0352179 0)
(7.29132 0.0412513 0)
(7.28201 0.0536801 0)
(7.2785 0.0752739 0)
(7.281 0.101048 0)
(7.33182 -0.000998145 0)
(7.33001 0.0067177 0)
(7.3326 0.0123272 0)
(7.33609 0.0151178 0)
(7.33937 0.0171439 0)
(7.34286 0.0186438 0)
(7.34627 0.0196307 0)
(7.34926 0.0202999 0)
(7.35179 0.0207701 0)
(7.35392 0.021087 0)
(7.35567 0.0212913 0)
(7.35705 0.0214231 0)
(7.35807 0.0215118 0)
(7.35877 0.021578 0)
(7.35916 0.0216388 0)
(7.35927 0.0217097 0)
(7.3591 0.0218056 0)
(7.35867 0.0219424 0)
(7.35799 0.0221377 0)
(7.35705 0.0224133 0)
(7.35585 0.0227965 0)
(7.35439 0.0233231 0)
(7.35264 0.0240413 0)
(7.35058 0.0250173 0)
(7.34817 0.0263437 0)
(7.34539 0.0281504 0)
(7.34217 0.030632 0)
(7.33847 0.0340678 0)
(7.33437 0.038984 0)
(7.32975 0.0458595 0)
(7.32591 0.0570609 0)
(7.3264 0.0728727 0)
(7.33213 0.0897451 0)
(7.33247 0.000684567 0)
(7.33166 0.00633137 0)
(7.33347 0.0105808 0)
(7.33628 0.0132174 0)
(7.33905 0.0155049 0)
(7.34195 0.0173011 0)
(7.34485 0.0184853 0)
(7.34752 0.0192716 0)
(7.34992 0.019833 0)
(7.35209 0.0202401 0)
(7.35404 0.0205382 0)
(7.35575 0.0207672 0)
(7.35724 0.0209568 0)
(7.35851 0.0211272 0)
(7.35956 0.0212951 0)
(7.36041 0.0214763 0)
(7.36105 0.0216861 0)
(7.36148 0.0219413 0)
(7.36171 0.0222613 0)
(7.36173 0.0226697 0)
(7.36154 0.0231965 0)
(7.36112 0.0238804 0)
(7.36046 0.0247729 0)
(7.35955 0.025943 0)
(7.35838 0.0274852 0)
(7.35693 0.0295284 0)
(7.35523 0.0322568 0)
(7.3533 0.0359247 0)
(7.35133 0.0409322 0)
(7.34959 0.0476855 0)
(7.34911 0.0571924 0)
(7.35179 0.0691007 0)
(7.35857 0.0813084 0)
(7.33271 0.00111025 0)
(7.33242 0.00550006 0)
(7.33398 0.00946823 0)
(7.33648 0.0122652 0)
(7.33898 0.0145137 0)
(7.34151 0.0162339 0)
(7.34406 0.0174067 0)
(7.34647 0.0182204 0)
(7.34869 0.0188275 0)
(7.35075 0.0192925 0)
(7.35266 0.0196552 0)
(7.35441 0.0199526 0)
(7.356 0.0202129 0)
(7.35744 0.0204569 0)
(7.35873 0.0207013 0)
(7.35987 0.0209623 0)
(7.36086 0.0212562 0)
(7.36169 0.0216008 0)
(7.36236 0.0220165 0)
(7.36286 0.0225282 0)
(7.3632 0.0231672 0)
(7.36336 0.0239732 0)
(7.36334 0.0249981 0)
(7.36314 0.0263094 0)
(7.36276 0.0279965 0)
(7.36223 0.0301774 0)
(7.36159 0.0330097 0)
(7.36095 0.0366963 0)
(7.36053 0.041506 0)
(7.3607 0.0476847 0)
(7.3622 0.0555663 0)
(7.36611 0.0647041 0)
(7.37321 0.0738008 0)
(7.33286 0.00127489 0)
(7.33288 0.00505273 0)
(7.33425 0.00871396 0)
(7.33647 0.0114127 0)
(7.33877 0.0135123 0)
(7.34109 0.0151552 0)
(7.34343 0.0163453 0)
(7.34567 0.0172049 0)
(7.34776 0.017858 0)
(7.34972 0.0183689 0)
(7.35155 0.0187785 0)
(7.35326 0.0191231 0)
(7.35485 0.0194315 0)
(7.35633 0.0197251 0)
(7.35769 0.020022 0)
(7.35893 0.0203388 0)
(7.36006 0.0206927 0)
(7.36107 0.021102 0)
(7.36196 0.0215879 0)
(7.36272 0.0221757 0)
(7.36336 0.0228966 0)
(7.36386 0.0237896 0)
(7.36425 0.024904 0)
(7.36452 0.0263025 0)
(7.36469 0.0280645 0)
(7.36482 0.0302899 0)
(7.36497 0.0331022 0)
(7.36527 0.0366459 0)
(7.36596 0.0410788 0)
(7.36737 0.0465084 0)
(7.37004 0.0529648 0)
(7.37459 0.0600484 0)
(7.38166 0.0669088 0)
(7.33295 0.00134432 0)
(7.33316 0.00469582 0)
(7.33437 0.00798409 0)
(7.33633 0.0105307 0)
(7.33845 0.0125283 0)
(7.34062 0.0141252 0)
(7.34281 0.01533 0)
(7.34492 0.0162241 0)
(7.34692 0.0169121 0)
(7.3488 0.017459 0)
(7.35058 0.0179057 0)
(7.35225 0.0182872 0)
(7.35382 0.0186324 0)
(7.3553 0.0189636 0)
(7.35668 0.0192994 0)
(7.35796 0.0196574 0)
(7.35915 0.0200552 0)
(7.36025 0.0205116 0)
(7.36126 0.0210478 0)
(7.36218 0.0216889 0)
(7.363 0.0224648 0)
(7.36374 0.0234124 0)
(7.3644 0.0245766 0)
(7.36501 0.0260125 0)
(7.36559 0.0277865 0)
(7.36621 0.0299771 0)
(7.36696 0.0326731 0)
(7.36796 0.0359653 0)
(7.36942 0.039929 0)
(7.37164 0.044579 0)
(7.37498 0.0498227 0)
(7.37982 0.0553244 0)
(7.38663 0.0604848 0)
(7.333 0.00133966 0)
(7.33331 0.00434859 0)
(7.3344 0.00729911 0)
(7.33614 0.009695 0)
(7.33809 0.0116043 0)
(7.34011 0.0131473 0)
(7.34217 0.0143455 0)
(7.34418 0.0152589 0)
(7.3461 0.0159735 0)
(7.34793 0.01655 0)
(7.34967 0.0170281 0)
(7.35131 0.0174411 0)
(7.35287 0.0178172 0)
(7.35434 0.0181791 0)
(7.35573 0.0185461 0)
(7.35704 0.0189359 0)
(7.35827 0.0193666 0)
(7.35943 0.0198569 0)
(7.36052 0.0204278 0)
(7.36154 0.0211031 0)
(7.3625 0.021911 0)
(7.36342 0.0228846 0)
(7.36429 0.0240634 0)
(7.36517 0.025493 0)
(7.36607 0.0272259 0)
(7.36708 0.029319 0)
(7.36827 0.0318298 0)
(7.36979 0.0348053 0)
(7.37179 0.0382652 0)
(7.37451 0.0421699 0)
(7.3782 0.0463849 0)
(7.38309 0.0506298 0)
(7.38951 0.0544607 0)
(7.33302 0.0012887 0)
(7.33338 0.00401449 0)
(7.33438 0.00667424 0)
(7.33593 0.00891277 0)
(7.33772 0.0107274 0)
(7.33961 0.0122079 0)
(7.34153 0.0133855 0)
(7.34345 0.0143063 0)
(7.3453 0.0150388 0)
(7.34708 0.0156377 0)
(7.34878 0.016141 0)
(7.35041 0.01658 0)
(7.35195 0.0169819 0)
(7.35343 0.0173691 0)
(7.35483 0.0177611 0)
(7.35617 0.0181757 0)
(7.35744 0.0186306 0)
(7.35865 0.0191443 0)
(7.35981 0.0197367 0)
(7.36093 0.0204301 0)
(7.362 0.0212498 0)
(7.36306 0.0222247 0)
(7.36412 0.0233875 0)
(7.36521 0.0247744 0)
(7.36638 0.0264238 0)
(7.36769 0.0283732 0)
(7.36923 0.0306537 0)
(7.37112 0.0332805 0)
(7.37348 0.0362376 0)
(7.3765 0.039458 0)
(7.38034 0.0428008 0)
(7.38512 0.0460333 0)
(7.3911 0.0488197 0)
(7.33303 0.00121352 0)
(7.33341 0.00369446 0)
(7.33433 0.0060998 0)
(7.33572 0.0081768 0)
(7.33736 0.00989142 0)
(7.33912 0.0113051 0)
(7.34093 0.0124516 0)
(7.34275 0.0133679 0)
(7.34454 0.0141085 0)
(7.34627 0.0147215 0)
(7.34793 0.0152427 0)
(7.34954 0.0157015 0)
(7.35108 0.0161235 0)
(7.35256 0.0165305 0)
(7.35398 0.0169415 0)
(7.35534 0.0173741 0)
(7.35665 0.0178454 0)
(7.35792 0.0183728 0)
(7.35914 0.018975 0)
(7.36034 0.0196719 0)
(7.36153 0.0204856 0)
(7.36272 0.0214402 0)
(7.36393 0.0225616 0)
(7.36521 0.0238764 0)
(7.3666 0.0254103 0)
(7.36816 0.0271843 0)
(7.36996 0.0292095 0)
(7.37211 0.0314788 0)
(7.37471 0.0339558 0)
(7.37788 0.0365627 0)
(7.38173 0.0391684 0)
(7.38632 0.0415824 0)
(7.39184 0.0435487 0)
(7.33304 0.00112694 0)
(7.33341 0.00338706 0)
(7.33425 0.00556653 0)
(7.33552 0.00748351 0)
(7.33703 0.00909432 0)
(7.33866 0.0104372 0)
(7.34037 0.0115434 0)
(7.3421 0.0124442 0)
(7.34382 0.0131831 0)
(7.3455 0.0138019 0)
(7.34713 0.0143335 0)
(7.34872 0.0148052 0)
(7.35025 0.015241 0)
(7.35173 0.0156616 0)
(7.35317 0.0160853 0)
(7.35456 0.0165288 0)
(7.35591 0.0170084 0)
(7.35723 0.0175401 0)
(7.35852 0.0181408 0)
(7.3598 0.0188279 0)
(7.36109 0.0196197 0)
(7.36239 0.0205355 0)
(7.36375 0.0215945 0)
(7.36519 0.0228145 0)
(7.36676 0.0242103 0)
(7.36851 0.0257899 0)
(7.37051 0.0275497 0)
(7.37283 0.0294686 0)
(7.37556 0.0315002 0)
(7.37879 0.0335665 0)
(7.38257 0.035552 0)
(7.38693 0.0373036 0)
(7.392 0.0386255 0)
(7.33304 0.00103606 0)
(7.3334 0.00309186 0)
(7.33418 0.00506791 0)
(7.33533 0.0068293 0)
(7.33672 0.00833322 0)
(7.33825 0.00960095 0)
(7.33986 0.0106593 0)
(7.34151 0.0115349 0)
(7.34316 0.0122631 0)
(7.34479 0.0128794 0)
(7.34639 0.0134138 0)
(7.34796 0.0138913 0)
(7.34948 0.0143341 0)
(7.35097 0.0147617 0)
(7.35242 0.0151911 0)
(7.35383 0.0156383 0)
(7.35522 0.0161179 0)
(7.35659 0.0166447 0)
(7.35794 0.0172333 0)
(7.3593 0.0178982 0)
(7.36068 0.0186541 0)
(7.36209 0.0195155 0)
(7.36357 0.0204952 0)
(7.36514 0.0216039 0)
(7.36686 0.0228471 0)
(7.36875 0.0242231 0)
(7.37089 0.0257186 0)
(7.37333 0.0273046 0)
(7.37612 0.0289318 0)
(7.37933 0.0305271 0)
(7.38299 0.031993 0)
(7.3871 0.0332082 0)
(7.39176 0.0340223 0)
(7.33304 0.000944817 0)
(7.33338 0.00280876 0)
(7.3341 0.00459867 0)
(7.33516 0.00620985 0)
(7.33645 0.00760472 0)
(7.33787 0.00879339 0)
(7.33939 0.00979727 0)
(7.34097 0.0106393 0)
(7.34256 0.0113481 0)
(7.34414 0.011954 0)
(7.34571 0.0124837 0)
(7.34725 0.0129598 0)
(7.34877 0.0134028 0)
(7.35026 0.0138304 0)
(7.35172 0.0142586 0)
(7.35316 0.0147019 0)
(7.35459 0.0151735 0)
(7.356 0.0156863 0)
(7.35741 0.0162526 0)
(7.35884 0.0168842 0)
(7.3603 0.0175922 0)
(7.3618 0.0183863 0)
(7.36338 0.0192743 0)
(7.36507 0.0202603 0)
(7.36689 0.0213433 0)
(7.36889 0.0225144 0)
(7.37112 0.0237545 0)
(7.37361 0.0250313 0)
(7.37642 0.0262965 0)
(7.37956 0.0274855 0)
(7.38307 0.0285175 0)
(7.38693 0.0292976 0)
(7.3912 0.0297102 0)
(7.33303 0.000855272 0)
(7.33336 0.00253742 0)
(7.33403 0.00415443 0)
(7.335 0.00562085 0)
(7.3362 0.00690542 0)
(7.33754 0.00801141 0)
(7.33898 0.00895511 0)
(7.34048 0.00975594 0)
(7.34201 0.0104375 0)
(7.34355 0.0110254 0)
(7.34509 0.0115429 0)
(7.34662 0.0120106 0)
(7.34812 0.0124467 0)
(7.34961 0.0128676 0)
(7.35109 0.0132875 0)
(7.35255 0.0137194 0)
(7.35401 0.0141751 0)
(7.35546 0.0146655 0)
(7.35692 0.0152004 0)
(7.35841 0.015789 0)
(7.35994 0.0164389 0)
(7.36152 0.0171559 0)
(7.36318 0.0179433 0)
(7.36495 0.0188002 0)
(7.36686 0.0197207 0)
(7.36893 0.0206915 0)
(7.37121 0.0216904 0)
(7.37372 0.0226847 0)
(7.37649 0.0236301 0)
(7.37955 0.0244708 0)
(7.38289 0.0251414 0)
(7.3865 0.0255683 0)
(7.39042 0.0256621 0)
(7.33303 0.000768366 0)
(7.33333 0.00227725 0)
(7.33396 0.00373156 0)
(7.33487 0.00505822 0)
(7.33598 0.00623187 0)
(7.33724 0.00725191 0)
(7.33861 0.00813032 0)
(7.34005 0.00888322 0)
(7.34153 0.00953022 0)
(7.34303 0.0100927 0)
(7.34453 0.0105909 0)
(7.34604 0.0110432 0)
(7.34754 0.0114657 0)
(7.34903 0.0118729 0)
(7.35051 0.0122776 0)
(7.352 0.0126911 0)
(7.35348 0.0131235 0)
(7.35497 0.0135835 0)
(7.35648 0.0140791 0)
(7.35802 0.0146164 0)
(7.3596 0.0152003 0)
(7.36125 0.0158332 0)
(7.36297 0.0165146 0)
(7.36481 0.0172401 0)
(7.36677 0.0180002 0)
(7.36888 0.0187794 0)
(7.37117 0.0195546 0)
(7.37367 0.0202946 0)
(7.37638 0.0209599 0)
(7.37932 0.0215038 0)
(7.38249 0.021874 0)
(7.38585 0.022014 0)
(7.38946 0.0218539 0)
(7.33303 0.000684407 0)
(7.33331 0.00202738 0)
(7.3339 0.00332695 0)
(7.33474 0.00451817 0)
(7.33579 0.00558064 0)
(7.33698 0.00651184 0)
(7.33828 0.00732027 0)
(7.33966 0.00801916 0)
(7.34109 0.00862475 0)
(7.34255 0.00915491 0)
(7.34403 0.00962706 0)
(7.34552 0.0100571 0)
(7.34701 0.0104593 0)
(7.3485 0.0108462 0)
(7.35 0.0112291 0)
(7.3515 0.0116174 0)
(7.353 0.0120196 0)
(7.35452 0.0124425 0)
(7.35607 0.0128918 0)
(7.35765 0.0133714 0)
(7.35928 0.0138835 0)
(7.36097 0.0144277 0)
(7.36275 0.0150008 0)
(7.36462 0.0155958 0)
(7.36661 0.0162013 0)
(7.36874 0.0168006 0)
(7.37102 0.0173712 0)
(7.37348 0.0178848 0)
(7.37611 0.018307 0)
(7.37892 0.0185992 0)
(7.38191 0.0187204 0)
(7.38505 0.0186274 0)
(7.38837 0.018265 0)
(7.33303 0.000603353 0)
(7.33329 0.00178679 0)
(7.33384 0.00293787 0)
(7.33463 0.0039972 0)
(7.33562 0.0049484 0)
(7.33675 0.00578811 0)
(7.33799 0.00652231 0)
(7.33932 0.00716164 0)
(7.34071 0.00771951 0)
(7.34214 0.00821082 0)
(7.34359 0.0086503 0)
(7.34506 0.00905163 0)
(7.34654 0.00942708 0)
(7.34803 0.00978748 0)
(7.34953 0.0101422 0)
(7.35105 0.0104993 0)
(7.35257 0.0108652 0)
(7.35412 0.011245 0)
(7.35569 0.0116425 0)
(7.35731 0.0120594 0)
(7.35897 0.0124958 0)
(7.3607 0.0129492 0)
(7.3625 0.0134142 0)
(7.3644 0.0138825 0)
(7.3664 0.0143414 0)
(7.36852 0.0147744 0)
(7.37077 0.0151606 0)
(7.37317 0.0154745 0)
(7.3757 0.0156872 0)
(7.37838 0.0157674 0)
(7.38119 0.0156829 0)
(7.38412 0.0154011 0)
(7.38717 0.0148778 0)
(7.33303 0.000524972 0)
(7.33328 0.00155435 0)
(7.33379 0.00256187 0)
(7.33454 0.00349212 0)
(7.33547 0.0043319 0)
(7.33655 0.00507771 0)
(7.33774 0.0057337 0)
(7.33903 0.00630835 0)
(7.34037 0.00681269 0)
(7.34177 0.007259 0)
(7.3432 0.00765962 0)
(7.34465 0.0080261 0)
(7.34613 0.00836878 0)
(7.34762 0.00869672 0)
(7.34912 0.00901764 0)
(7.35064 0.00933781 0)
(7.35218 0.00966214 0)
(7.35375 0.00999405 0)
(7.35535 0.0103354 0)
(7.35699 0.0106863 0)
(7.35867 0.011045 0)
(7.36042 0.0114075 0)
(7.36224 0.011767 0)
(7.36414 0.0121142 0)
(7.36613 0.0124365 0)
(7.36823 0.0127179 0)
(7.37043 0.0129394 0)
(7.37275 0.0130791 0)
(7.37519 0.0131129 0)
(7.37773 0.0130154 0)
(7.38037 0.0127619 0)
(7.38309 0.0123278 0)
(7.3859 0.0116773 0)
(7.33303 0.000448942 0)
(7.33326 0.0013289 0)
(7.33375 0.00219669 0)
(7.33446 0.00299994 0)
(7.33535 0.00372801 0)
(7.33638 0.00437764 0)
(7.33752 0.0049517 0)
(7.33877 0.00545693 0)
(7.34008 0.0059023 0)
(7.34145 0.00629788 0)
(7.34285 0.00665384 0)
(7.34429 0.00697971 0)
(7.34576 0.00728402 0)
(7.34725 0.0075741 0)
(7.34875 0.00785601 0)
(7.35028 0.00813447 0)
(7.35184 0.00841282 0)
(7.35342 0.00869295 0)
(7.35503 0.0089752 0)
(7.35668 0.00925825 0)
(7.35838 0.00953896 0)
(7.36014 0.00981213 0)
(7.36196 0.0100704 0)
(7.36385 0.0103039 0)
(7.36582 0.0105005 0)
(7.36788 0.0106454 0)
(7.37002 0.0107218 0)
(7.37226 0.010711 0)
(7.37458 0.010593 0)
(7.37699 0.0103479 0)
(7.37946 0.00995667 0)
(7.38199 0.00940076 0)
(7.38458 0.00865103 0)
(7.33302 0.000374901 0)
(7.33325 0.00110927 0)
(7.33371 0.00184025 0)
(7.33439 0.00251791 0)
(7.33524 0.00313374 0)
(7.33623 0.0036849 0)
(7.33734 0.00417349 0)
(7.33854 0.00460485 0)
(7.33982 0.00498622 0)
(7.34117 0.00532575 0)
(7.34256 0.00563166 0)
(7.34398 0.00591162 0)
(7.34544 0.00617243 0)
(7.34692 0.00641978 0)
(7.34843 0.00665818 0)
(7.34996 0.00689086 0)
(7.35152 0.00711972 0)
(7.35311 0.00734531 0)
(7.35473 0.00756667 0)
(7.35639 0.00778133 0)
(7.3581 0.00798514 0)
(7.35985 0.00817219 0)
(7.36166 0.00833472 0)
(7.36353 0.00846304 0)
(7.36547 0.00854563 0)
(7.36747 0.00856923 0)
(7.36955 0.00851911 0)
(7.3717 0.00837956 0)
(7.37391 0.00813442 0)
(7.37618 0.00776794 0)
(7.3785 0.0072657 0)
(7.38084 0.00661385 0)
(7.38323 0.00578832 0)
(7.33302 0.00030248 0)
(7.33324 0.000894321 0)
(7.33368 0.0014906 0)
(7.33432 0.00204345 0)
(7.33514 0.00254618 0)
(7.3361 0.00299653 0)
(7.33717 0.00339622 0)
(7.33835 0.00374949 0)
(7.33961 0.00406216 0)
(7.34093 0.0043407 0)
(7.3423 0.00459161 0)
(7.34371 0.00482086 0)
(7.34516 0.00503359 0)
(7.34664 0.00523397 0)
(7.34815 0.00542503 0)
(7.34968 0.00560865 0)
(7.35125 0.00578545 0)
(7.35284 0.00595477 0)
(7.35446 0.00611461 0)
(7.35612 0.00626158 0)
(7.35782 0.00639085 0)
(7.35956 0.00649611 0)
(7.36135 0.00656954 0)
(7.36319 0.00660185 0)
(7.36508 0.00658245 0)
(7.36703 0.00649954 0)
(7.36904 0.00634052 0)
(7.37109 0.00609232 0)
(7.37319 0.00574193 0)
(7.37533 0.00527708 0)
(7.37749 0.00468692 0)
(7.37967 0.0039612 0)
(7.38187 0.00307986 0)
(7.33302 0.000231326 0)
(7.33323 0.000682998 0)
(7.33365 0.00114594 0)
(7.33427 0.00157412 0)
(7.33506 0.00196247 0)
(7.33599 0.00230954 0)
(7.33704 0.0026169 0)
(7.33819 0.00288806 0)
(7.33942 0.00312762 0)
(7.34072 0.00334064 0)
(7.34208 0.00353206 0)
(7.34349 0.00370628 0)
(7.34493 0.00386693 0)
(7.3464 0.00401674 0)
(7.34791 0.0041574 0)
(7.34944 0.00428951 0)
(7.351 0.00441256 0)
(7.35259 0.00452488 0)
(7.35421 0.00462361 0)
(7.35586 0.00470468 0)
(7.35755 0.00476283 0)
(7.35927 0.00479158 0)
(7.36103 0.00478329 0)
(7.36284 0.00472926 0)
(7.36468 0.00461989 0)
(7.36657 0.00444488 0)
(7.36849 0.00419351 0)
(7.37045 0.00385505 0)
(7.37243 0.00341911 0)
(7.37444 0.00287621 0)
(7.37646 0.00221828 0)
(7.37848 0.00143783 0)
(7.38051 0.000517943 0)
(7.33302 0.000161122 0)
(7.33322 0.000474331 0)
(7.33362 0.000804611 0)
(7.33423 0.0011076 0)
(7.33499 0.00137985 0)
(7.3359 0.00162086 0)
(7.33692 0.00183243 0)
(7.33805 0.00201755 0)
(7.33927 0.00217987 0)
(7.34056 0.00232319 0)
(7.3419 0.00245108 0)
(7.3433 0.00256651 0)
(7.34473 0.00267171 0)
(7.3462 0.00276804 0)
(7.34771 0.00285595 0)
(7.34924 0.00293492 0)
(7.35079 0.00300343 0)
(7.35238 0.00305894 0)
(7.35399 0.00309791 0)
(7.35562 0.00311579 0)
(7.35729 0.00310707 0)
(7.35899 0.00306527 0)
(7.36072 0.00298312 0)
(7.36248 0.00285257 0)
(7.36427 0.00266505 0)
(7.36608 0.00241164 0)
(7.36793 0.00208332 0)
(7.36979 0.00167134 0)
(7.37167 0.00116747 0)
(7.37355 0.000564434 0)
(7.37543 -0.000143671 0)
(7.37731 -0.00096227 0)
(7.37917 -0.00190566 0)
(7.33302 9.16043e-05 0)
(7.33321 0.000267512 0)
(7.3336 0.000465144 0)
(7.33419 0.000641733 0)
(7.33493 0.000795518 0)
(7.33582 0.000927333 0)
(7.33683 0.00103948 0)
(7.33794 0.00113468 0)
(7.33915 0.00121581 0)
(7.34042 0.00128561 0)
(7.34176 0.00134641 0)
(7.34315 0.00139984 0)
(7.34458 0.00144683 0)
(7.34604 0.00148748 0)
(7.34754 0.0015211 0)
(7.34907 0.00154613 0)
(7.35062 0.00156018 0)
(7.35219 0.00156 0)
(7.35379 0.00154151 0)
(7.35541 0.00149981 0)
(7.35705 0.00142929 0)
(7.35872 0.00132364 0)
(7.36041 0.00117597 0)
(7.36212 0.000978955 0)
(7.36385 0.000725001 0)
(7.3656 0.000406421 0)
(7.36736 1.56949e-05 0)
(7.36913 -0.0004543 0)
(7.3709 -0.00101003 0)
(7.37267 -0.00165702 0)
(7.37442 -0.00239954 0)
(7.37616 -0.00324143 0)
(7.37788 -0.00419488 0)
(7.33302 2.26074e-05 0)
(7.3332 6.19752e-05 0)
(7.33358 0.000126341 0)
(7.33415 0.000174485 0)
(7.33488 0.000206671 0)
(7.33575 0.000225586 0)
(7.33675 0.000234396 0)
(7.33786 0.000235745 0)
(7.33905 0.000231897 0)
(7.34032 0.000224699 0)
(7.34165 0.000215323 0)
(7.34304 0.000204158 0)
(7.34446 0.000190842 0)
(7.34593 0.000174304 0)
(7.34742 0.000152767 0)
(7.34894 0.000123743 0)
(7.35048 8.40541e-05 0)
(7.35204 2.98434e-05 0)
(7.35362 -4.33861e-05 0)
(7.35522 -0.000140725 0)
(7.35684 -0.000267801 0)
(7.35847 -0.000430689 0)
(7.36012 -0.000635815 0)
(7.36178 -0.000889805 0)
(7.36345 -0.00119936 0)
(7.36513 -0.00157105 0)
(7.36681 -0.00201113 0)
(7.36848 -0.00252537 0)
(7.37015 -0.00311883 0)
(7.37181 -0.00379565 0)
(7.37344 -0.00455885 0)
(7.37505 -0.00541107 0)
(7.37663 -0.00636272 0)
(7.33302 -4.58707e-05 0)
(7.3332 -0.000142429 0)
(7.33356 -0.000212575 0)
(7.33412 -0.000295982 0)
(7.33484 -0.000389608 0)
(7.3357 -0.000488058 0)
(7.33669 -0.000586916 0)
(7.33779 -0.000683488 0)
(7.33898 -0.000775999 0)
(7.34025 -0.000863406 0)
(7.34158 -0.000945594 0)
(7.34296 -0.00102337 0)
(7.34439 -0.00109827 0)
(7.34585 -0.00117249 0)
(7.34734 -0.00124882 0)
(7.34885 -0.0013306 0)
(7.35038 -0.00142175 0)
(7.35193 -0.00152666 0)
(7.35349 -0.00165017 0)
(7.35507 -0.00179752 0)
(7.35666 -0.00197431 0)
(7.35826 -0.00218635 0)
(7.35986 -0.00243963 0)
(7.36147 -0.00274014 0)
(7.36308 -0.00309376 0)
(7.36468 -0.00350612 0)
(7.36628 -0.00398243 0)
(7.36787 -0.00452735 0)
(7.36944 -0.00514482 0)
(7.37099 -0.00583795 0)
(7.37251 -0.00660883 0)
(7.374 -0.00745923 0)
(7.37546 -0.00839817 0)
(7.33302 -0.000113531 0)
(7.33319 -0.000345114 0)
(7.33354 -0.000551697 0)
(7.33408 -0.000771245 0)
(7.33479 -0.000996414 0)
(7.33565 -0.0012178 0)
(7.33664 -0.0014293 0)
(7.33774 -0.00162807 0)
(7.33893 -0.00181273 0)
(7.34021 -0.00198307 0)
(7.34154 -0.00214025 0)
(7.34293 -0.00228644 0)
(7.34435 -0.00242444 0)
(7.34581 -0.00255754 0)
(7.3473 -0.00268945 0)
(7.3488 -0.00282428 0)
(7.35033 -0.0029665 0)
(7.35186 -0.0031209 0)
(7.35341 -0.00329253 0)
(7.35496 -0.00348669 0)
(7.35652 -0.00370882 0)
(7.35808 -0.00396447 0)
(7.35964 -0.00425916 0)
(7.36119 -0.00459829 0)
(7.36274 -0.00498705 0)
(7.36428 -0.00543026 0)
(7.3658 -0.00593227 0)
(7.3673 -0.00649685 0)
(7.36878 -0.00712709 0)
(7.37023 -0.00782531 0)
(7.37165 -0.00859287 0)
(7.37303 -0.00943087 0)
(7.37436 -0.010347 0)
(7.33302 -0.000179493 0)
(7.33318 -0.000544131 0)
(7.33351 -0.000889987 0)
(7.33404 -0.00125256 0)
(7.33474 -0.00161707 0)
(7.3356 -0.00196829 0)
(7.3366 -0.00229849 0)
(7.33771 -0.00260466 0)
(7.33891 -0.00288528 0)
(7.34019 -0.0031405 0)
(7.34153 -0.00337252 0)
(7.34293 -0.00358493 0)
(7.34436 -0.00378205 0)
(7.34582 -0.00396851 0)
(7.3473 -0.00414927 0)
(7.3488 -0.00432942 0)
(7.35032 -0.00451422 0)
(7.35184 -0.00470897 0)
(7.35336 -0.00491905 0)
(7.35489 -0.00514983 0)
(7.35642 -0.00540668 0)
(7.35794 -0.00569487 0)
(7.35946 -0.00601952 0)
(7.36096 -0.0063855 0)
(7.36245 -0.00679735 0)
(7.36392 -0.00725922 0)
(7.36537 -0.00777473 0)
(7.3668 -0.00834693 0)
(7.36819 -0.00897824 0)
(7.36955 -0.00967035 0)
(7.37086 -0.0104242 0)
(7.37214 -0.0112405 0)
(7.37337 -0.012126 0)
(7.33302 -0.000241722 0)
(7.33316 -0.000734857 0)
(7.33347 -0.00122438 0)
(7.33398 -0.00174109 0)
(7.33468 -0.0022561 0)
(7.33554 -0.00274517 0)
(7.33655 -0.00319966 0)
(7.33768 -0.00361816 0)
(7.3389 -0.00400061 0)
(7.3402 -0.00434851 0)
(7.34156 -0.0046653 0)
(7.34297 -0.0049555 0)
(7.34441 -0.00522401 0)
(7.34588 -0.00547605 0)
(7.34736 -0.00571705 0)
(7.34886 -0.00595256 0)
(7.35037 -0.00618817 0)
(7.35187 -0.00642948 0)
(7.35338 -0.006682 0)
(7.35488 -0.00695119 0)
(7.35638 -0.00724234 0)
(7.35786 -0.00756058 0)
(7.35934 -0.00791075 0)
(7.36079 -0.00829738 0)
(7.36222 -0.00872461 0)
(7.36363 -0.00919612 0)
(7.36501 -0.00971506 0)
(7.36636 -0.010284 0)
(7.36767 -0.010905 0)
(7.36894 -0.0115792 0)
(7.37017 -0.0123073 0)
(7.37135 -0.0130895 0)
(7.37248 -0.0139314 0)
(7.33301 -0.000295782 0)
(7.33313 -0.000907748 0)
(7.3334 -0.00154779 0)
(7.33388 -0.00223584 0)
(7.33458 -0.00291965 0)
(7.33546 -0.00356196 0)
(7.33649 -0.00414921 0)
(7.33764 -0.0046767 0)
(7.33889 -0.00514416 0)
(7.34021 -0.00555687 0)
(7.34159 -0.00592358 0)
(7.34301 -0.00625338 0)
(7.34446 -0.00655468 0)
(7.34594 -0.00683526 0)
(7.34743 -0.00710237 0)
(7.34893 -0.00736272 0)
(7.35043 -0.00762249 0)
(7.35192 -0.00788745 0)
(7.35342 -0.00816304 0)
(7.3549 -0.00845439 0)
(7.35637 -0.00876633 0)
(7.35782 -0.00910341 0)
(7.35925 -0.00946986 0)
(7.36066 -0.00986953 0)
(7.36204 -0.0103059 0)
(7.36339 -0.010782 0)
(7.3647 -0.0113004 0)
(7.36598 -0.0118631 0)
(7.36722 -0.0124716 0)
(7.36841 -0.013127 0)
(7.36956 -0.0138295 0)
(7.37066 -0.0145795 0)
(7.3717 -0.0153823 0)
(7.33301 -0.000331233 0)
(7.33307 -0.00104488 0)
(7.33326 -0.00185273 0)
(7.3337 -0.00273281 0)
(7.3344 -0.00359504 0)
(7.33532 -0.00440888 0)
(7.3364 -0.00517462 0)
(7.3376 -0.00588493 0)
(7.3389 -0.00652941 0)
(7.34027 -0.00710586 0)
(7.34169 -0.00761924 0)
(7.34314 -0.00807704 0)
(7.34461 -0.00848748 0)
(7.34609 -0.0088592 0)
(7.34758 -0.00920099 0)
(7.34908 -0.00952126 0)
(7.35056 -0.00982795 0)
(7.35204 -0.0101284 0)
(7.35351 -0.0104294 0)
(7.35497 -0.0107372 0)
(7.3564 -0.0110576 0)
(7.35781 -0.0113956 0)
(7.3592 -0.011756 0)
(7.36056 -0.012143 0)
(7.36188 -0.01256 0)
(7.36318 -0.0130102 0)
(7.36443 -0.0134961 0)
(7.36564 -0.0140198 0)
(7.36681 -0.0145825 0)
(7.36793 -0.0151851 0)
(7.36899 -0.0158279 0)
(7.37001 -0.0165108 0)
(7.37096 -0.0172376 0)
(7.33299 -0.000321869 0)
(7.33293 -0.0010973 0)
(7.333 -0.00213504 0)
(7.33339 -0.00328963 0)
(7.3341 -0.00433617 0)
(7.33502 -0.00521395 0)
(7.3361 -0.00595309 0)
(7.33732 -0.00658623 0)
(7.33865 -0.00713656 0)
(7.34005 -0.00762444 0)
(7.34151 -0.00806658 0)
(7.343 -0.00847497 0)
(7.34451 -0.00885843 0)
(7.34603 -0.009224 0)
(7.34755 -0.00957754 0)
(7.34907 -0.00992405 0)
(7.35057 -0.010268 0)
(7.35205 -0.0106135 0)
(7.35352 -0.0109644 0)
(7.35497 -0.0113246 0)
(7.35639 -0.0116976 0)
(7.35778 -0.0120868 0)
(7.35914 -0.0124953 0)
(7.36047 -0.0129261 0)
(7.36176 -0.0133816 0)
(7.36301 -0.0138642 0)
(7.36421 -0.0143757 0)
(7.36538 -0.0149176 0)
(7.36649 -0.015491 0)
(7.36755 -0.0160967 0)
(7.36856 -0.016735 0)
(7.36952 -0.0174064 0)
(7.37043 -0.0181151 0)
(7.33295 -0.000223477 0)
(7.33262 -0.000955423 0)
(7.33241 -0.00221108 0)
(7.33278 -0.00381456 0)
(7.33367 -0.00552238 0)
(7.33481 -0.00718319 0)
(7.33605 -0.00868403 0)
(7.33738 -0.00996221 0)
(7.33877 -0.011016 0)
(7.3402 -0.011875 0)
(7.34164 -0.0125722 0)
(7.34311 -0.0131378 0)
(7.34458 -0.0135992 0)
(7.34606 -0.0139811 0)
(7.34753 -0.0143043 0)
(7.349 -0.0145861 0)
(7.35047 -0.0148403 0)
(7.35192 -0.0150786 0)
(7.35335 -0.0153103 0)
(7.35476 -0.0155433 0)
(7.35616 -0.015784 0)
(7.35752 -0.0160377 0)
(7.35885 -0.0163089 0)
(7.36016 -0.0166012 0)
(7.36142 -0.0169176 0)
(7.36265 -0.0172606 0)
(7.36383 -0.0176319 0)
(7.36496 -0.0180329 0)
(7.36605 -0.0184645 0)
(7.36709 -0.0189271 0)
(7.36807 -0.0194207 0)
(7.36899 -0.0199449 0)
(7.36985 -0.0205024 0)
(7.3329 0.000110488 0)
(7.33207 -0.000916582 0)
(7.33124 -0.00221764 0)
(7.33109 -0.0028712 0)
(7.3316 -0.0031275 0)
(7.33256 -0.00344567 0)
(7.33387 -0.0039365 0)
(7.33539 -0.00453783 0)
(7.33703 -0.00520308 0)
(7.33872 -0.00591329 0)
(7.34041 -0.0066501 0)
(7.34211 -0.00739385 0)
(7.3438 -0.00812995 0)
(7.34546 -0.0088498 0)
(7.34711 -0.00954872 0)
(7.34873 -0.0102246 0)
(7.35033 -0.0108775 0)
(7.3519 -0.0115088 0)
(7.35345 -0.0121209 0)
(7.35497 -0.0127168 0)
(7.35645 -0.0132999 0)
(7.35791 -0.0138737 0)
(7.35933 -0.0144416 0)
(7.36071 -0.0150068 0)
(7.36206 -0.0155723 0)
(7.36336 -0.016141 0)
(7.36461 -0.0167152 0)
(7.36582 -0.0172971 0)
(7.36697 -0.0178885 0)
(7.36807 -0.0184909 0)
(7.36912 -0.0191056 0)
(7.37012 -0.0197335 0)
(7.37106 -0.0203788 0)
(7.33241 0.00206469 0)
(7.33046 -0.000602364 0)
(7.33031 -0.00730328 0)
(7.3314 -0.0137216 0)
(7.33241 -0.0183979 0)
(7.33316 -0.0215328 0)
(7.33402 -0.0235429 0)
(7.33511 -0.024733 0)
(7.33639 -0.0253413 0)
(7.33779 -0.0255578 0)
(7.33932 -0.0255223 0)
(7.34095 -0.0253329 0)
(7.34267 -0.0250576 0)
(7.34445 -0.0247429 0)
(7.34628 -0.0244196 0)
(7.34814 -0.0241078 0)
(7.35002 -0.0238204 0)
(7.3519 -0.0235656 0)
(7.35378 -0.0233483 0)
(7.35564 -0.0231712 0)
(7.35749 -0.0230354 0)
(7.3593 -0.0229414 0)
(7.36108 -0.022889 0)
(7.36282 -0.0228774 0)
(7.36451 -0.022906 0)
(7.36616 -0.0229735 0)
(7.36775 -0.023079 0)
(7.36928 -0.0232212 0)
(7.37075 -0.023399 0)
(7.37215 -0.0236112 0)
(7.37349 -0.0238567 0)
(7.37476 -0.0241348 0)
(7.37595 -0.0244477 0)
(7.32878 0.00627778 0)
(7.31725 0.0179443 0)
(7.31241 0.0251572 0)
(7.31395 0.0272151 0)
(7.31781 0.0259131 0)
(7.322 0.0231094 0)
(7.32624 0.0197616 0)
(7.33049 0.0162275 0)
(7.33467 0.0126897 0)
(7.33873 0.00928683 0)
(7.34265 0.00610327 0)
(7.34644 0.00317076 0)
(7.35012 0.00049141 0)
(7.35368 -0.0019448 0)
(7.35712 -0.00415357 0)
(7.36046 -0.00615394 0)
(7.36369 -0.0079663 0)
(7.36682 -0.00961083 0)
(7.36985 -0.0111066 0)
(7.37278 -0.0124712 0)
(7.3756 -0.0137206 0)
(7.37833 -0.0148694 0)
(7.38096 -0.0159305 0)
(7.38348 -0.0169154 0)
(7.38591 -0.0178342 0)
(7.38824 -0.0186959 0)
(7.39047 -0.0195083 0)
(7.39261 -0.0202784 0)
(7.39464 -0.021012 0)
(7.39658 -0.0217142 0)
(7.39842 -0.0223894 0)
(7.40017 -0.0230404 0)
(7.40182 -0.0236749 0)
(7.33379 -0.0332976 0)
(7.333 -0.0723044 0)
(7.32812 -0.0856672 0)
(7.32656 -0.0870897 0)
(7.33012 -0.0846824 0)
(7.33734 -0.0806988 0)
(7.3463 -0.0758415 0)
(7.3558 -0.0707666 0)
(7.36529 -0.0659307 0)
(7.37454 -0.061506 0)
(7.38337 -0.0575211 0)
(7.3917 -0.053967 0)
(7.39948 -0.0508222 0)
(7.40671 -0.0480538 0)
(7.41342 -0.0456237 0)
(7.41962 -0.0434941 0)
(7.42535 -0.0416302 0)
(7.43063 -0.040001 0)
(7.43549 -0.0385787 0)
(7.43996 -0.037339 0)
(7.44406 -0.0362607 0)
(7.44782 -0.0353253 0)
(7.45127 -0.0345168 0)
(7.45442 -0.0338212 0)
(7.4573 -0.0332262 0)
(7.45991 -0.0327212 0)
(7.46228 -0.0322968 0)
(7.46442 -0.0319448 0)
(7.46634 -0.0316578 0)
(7.46805 -0.0314293 0)
(7.46957 -0.0312534 0)
(7.4709 -0.0311252 0)
(7.47206 -0.0310405 0)
(7.33141 0.164997 0)
(7.34786 0.185186 0)
(7.36035 0.152159 0)
(7.35682 0.118072 0)
(7.34276 0.0898505 0)
(7.324 0.0674528 0)
(7.30269 0.049953 0)
(7.27963 0.0362202 0)
(7.2556 0.0252805 0)
(7.23127 0.0164472 0)
(7.20701 0.00924634 0)