# y+ ()       
# Time        	patch         	min           	max           	average       
800           	lowerWall	3.973353e-01	6.508807e+01	3.742045e+01
800           	upperWall	3.125910e+01	5.508442e+01	4.627125e+01
