/*--------------------------------*- C++ -*----------------------------------*\
  =========                 |
  \\      /  F ield         | OpenFOAM: The Open Source CFD Toolbox
   \\    /   O peration     | Website:  https://openfoam.org
    \\  /    A nd           | Version:  10
     \\/     M anipulation  |
\*---------------------------------------------------------------------------*/
FoamFile
{
    format      ascii;
    class       volScalarField;
    location    "0.045";
    object      nut;
}
// * * * * * * * * * * * * * * * * * * * * * * * * * * * * * * * * * * * * * //

dimensions      [0 2 -1 0 0 0 0];

internalField   nonuniform List<scalar> 
6820
(
0.000149484
0.000144853
0.000140581
0.000136577
0.000132833
0.000129377
0.000126235
0.000123418
0.000120922
0.000118735
0.000116836
0.000115199
0.000113801
0.000112617
0.000111624
0.000110802
0.00011013
0.000109592
0.000109171
0.000108855
0.00010863
0.000108486
0.000108412
0.0001084
0.000108442
0.000108533
0.000108662
0.000108845
0.000108986
0.000109512
0.000108407
0.000115117
8.52979e-05
0.000729198
0.000532396
0.000448021
0.000399722
0.000368401
0.000346757
0.000331118
0.000319393
0.000310308
0.000303062
0.000297132
0.000292173
0.000287948
0.000284293
0.000281091
0.000278255
0.000275721
0.000273438
0.000271368
0.00026948
0.000267749
0.000266154
0.000264681
0.000263314
0.000262042
0.000260855
0.000259747
0.000258708
0.000257747
0.000256843
0.000256059
0.000255182
0.000256402
0.000976777
0.000872182
0.000781627
0.000711274
0.000657336
0.000615306
0.000581747
0.000554301
0.000531382
0.000511906
0.000495113
0.000480455
0.000467529
0.000456029
0.00044572
0.000436418
0.000427975
0.000420275
0.000413221
0.000406731
0.00040074
0.00039519
0.000390031
0.000385221
0.000380719
0.000376492
0.000372504
0.000368727
0.000365117
0.000361653
0.000358249
0.00035486
0.000351093
0.00101348
0.00098823
0.000949374
0.000906197
0.000864435
0.000826402
0.000792582
0.00076271
0.000736291
0.000712817
0.000691831
0.000672952
0.000655863
0.000640305
0.000626066
0.000612973
0.00060088
0.000589668
0.000579236
0.000569499
0.000560383
0.000551826
0.000543774
0.000536176
0.000528989
0.000522173
0.000515691
0.000509506
0.00050358
0.000497885
0.000492352
0.000487005
0.000481577
0.00101671
0.00101241
0.00100191
0.000985662
0.000965608
0.000943723
0.000921441
0.000899642
0.000878793
0.000859104
0.000840633
0.000823359
0.000807218
0.00079213
0.000778009
0.000764772
0.000752341
0.000740643
0.000729612
0.00071919
0.000709324
0.000699964
0.000691068
0.000682596
0.000674511
0.000666778
0.000659365
0.000652239
0.000645367
0.000638719
0.00063225
0.000625943
0.000619717
0.00101676
0.00101592
0.0010136
0.00100903
0.00100204
0.000992924
0.000982201
0.000970415
0.000958033
0.000945416
0.000932821
0.000920422
0.000908334
0.000896625
0.000885331
0.000874469
0.000864041
0.000854039
0.00084445
0.000835256
0.000826438
0.000817975
0.000809848
0.000802033
0.000794511
0.000787259
0.000780255
0.000773478
0.000766903
0.00076051
0.000754268
0.000748158
0.000742149
0.00101671
0.00101623
0.00101553
0.00101428
0.00101219
0.0010091
0.00100497
0.0009999
0.000994034
0.000987543
0.000980592
0.000973329
0.000965875
0.000958332
0.000950776
0.000943268
0.000935851
0.000928558
0.000921412
0.000914427
0.000907613
0.000900974
0.00089451
0.00088822
0.000882099
0.000876141
0.000870337
0.000864676
0.00085915
0.000853744
0.000848448
0.000843247
0.000838135
0.0010167
0.00101622
0.00101574
0.00101518
0.00101442
0.00101335
0.00101188
0.00100996
0.00100756
0.00100472
0.00100146
0.000997853
0.000993946
0.0009898
0.00098547
0.000981003
0.000976441
0.000971822
0.000967176
0.000962526
0.000957893
0.000953293
0.000948739
0.000944238
0.000939798
0.000935423
0.000931113
0.00092687
0.000922692
0.000918579
0.000914527
0.000910536
0.00090661
0.0010167
0.00101621
0.00101575
0.00101528
0.0010148
0.00101425
0.00101359
0.00101279
0.0010118
0.0010106
0.00100918
0.00100755
0.00100571
0.00100368
0.00100147
0.000999112
0.000996623
0.000994025
0.000991337
0.000988579
0.000985767
0.000982915
0.000980035
0.00097714
0.000974238
0.000971336
0.000968441
0.000965557
0.000962691
0.000959846
0.000957026
0.000954237
0.000951489
0.0010167
0.00101621
0.00101574
0.00101529
0.00101484
0.00101439
0.00101393
0.00101344
0.0010129
0.00101229
0.00101161
0.00101083
0.00100995
0.00100897
0.00100789
0.00100671
0.00100544
0.00100408
0.00100264
0.00100113
0.000999564
0.000997941
0.000996273
0.000994566
0.000992828
0.000991064
0.000989281
0.000987485
0.000985682
0.000983877
0.000982077
0.000980291
0.000978531
0.0010167
0.00101621
0.00101574
0.00101528
0.00101484
0.00101441
0.00101398
0.00101356
0.00101314
0.0010127
0.00101225
0.00101177
0.00101126
0.00101071
0.00101012
0.00100949
0.00100881
0.00100808
0.00100731
0.0010065
0.00100564
0.00100475
0.00100382
0.00100286
0.00100187
0.00100086
0.000999821
0.00099877
0.000997706
0.000996636
0.000995567
0.000994506
0.000993464
0.0010167
0.00101621
0.00101574
0.00101528
0.00101484
0.0010144
0.00101398
0.00101357
0.00101317
0.00101278
0.00101239
0.001012
0.0010116
0.0010112
0.00101079
0.00101037
0.00100993
0.00100948
0.00100901
0.00100853
0.00100802
0.0010075
0.00100695
0.0010064
0.00100582
0.00100523
0.00100463
0.00100402
0.00100341
0.00100279
0.00100218
0.00100157
0.00100099
0.0010167
0.00101621
0.00101574
0.00101528
0.00101483
0.0010144
0.00101398
0.00101357
0.00101317
0.00101279
0.00101241
0.00101204
0.00101168
0.00101132
0.00101096
0.00101061
0.00101026
0.00100991
0.00100956
0.0010092
0.00100884
0.00100848
0.00100811
0.00100774
0.00100737
0.00100699
0.00100661
0.00100623
0.00100585
0.00100548
0.00100511
0.00100476
0.00100444
0.0010167
0.00101621
0.00101574
0.00101528
0.00101483
0.0010144
0.00101398
0.00101357
0.00101317
0.00101278
0.00101241
0.00101204
0.00101169
0.00101134
0.001011
0.00101066
0.00101034
0.00101002
0.0010097
0.0010094
0.00100909
0.00100879
0.00100849
0.0010082
0.0010079
0.00100762
0.00100734
0.00100706
0.00100679
0.00100653
0.00100629
0.00100607
0.00100586
0.0010167
0.00101621
0.00101574
0.00101528
0.00101483
0.0010144
0.00101398
0.00101357
0.00101317
0.00101278
0.00101241
0.00101204
0.00101168
0.00101134
0.001011
0.00101067
0.00101035
0.00101004
0.00100974
0.00100944
0.00100915
0.00100887
0.0010086
0.00100833
0.00100807
0.00100782
0.00100758
0.00100734
0.00100712
0.00100691
0.00100672
0.00100655
0.0010064
0.0010167
0.00101621
0.00101574
0.00101528
0.00101483
0.0010144
0.00101398
0.00101357
0.00101317
0.00101278
0.0010124
0.00101204
0.00101168
0.00101133
0.001011
0.00101067
0.00101035
0.00101004
0.00100974
0.00100945
0.00100917
0.00100889
0.00100862
0.00100836
0.00100811
0.00100787
0.00100764
0.00100743
0.00100722
0.00100703
0.00100686
0.0010067
0.00100657
0.0010167
0.00101621
0.00101574
0.00101528
0.00101483
0.0010144
0.00101397
0.00101356
0.00101317
0.00101278
0.0010124
0.00101203
0.00101168
0.00101133
0.00101099
0.00101067
0.00101035
0.00101004
0.00100974
0.00100945
0.00100916
0.00100889
0.00100863
0.00100837
0.00100812
0.00100789
0.00100766
0.00100745
0.00100725
0.00100706
0.00100689
0.00100674
0.00100661
0.0010167
0.00101621
0.00101574
0.00101528
0.00101483
0.0010144
0.00101397
0.00101356
0.00101316
0.00101278
0.0010124
0.00101203
0.00101167
0.00101133
0.00101099
0.00101066
0.00101034
0.00101004
0.00100973
0.00100944
0.00100916
0.00100889
0.00100862
0.00100837
0.00100812
0.00100789
0.00100766
0.00100745
0.00100725
0.00100707
0.0010069
0.00100675
0.00100662
0.0010167
0.00101621
0.00101574
0.00101528
0.00101483
0.00101439
0.00101397
0.00101356
0.00101316
0.00101277
0.0010124
0.00101203
0.00101167
0.00101133
0.00101099
0.00101066
0.00101034
0.00101003
0.00100973
0.00100944
0.00100916
0.00100888
0.00100862
0.00100836
0.00100812
0.00100788
0.00100766
0.00100745
0.00100725
0.00100706
0.00100689
0.00100674
0.0010066
0.0010167
0.00101621
0.00101574
0.00101528
0.00101483
0.00101439
0.00101397
0.00101356
0.00101316
0.00101277
0.00101239
0.00101203
0.00101167
0.00101132
0.00101099
0.00101066
0.00101034
0.00101003
0.00100973
0.00100944
0.00100915
0.00100888
0.00100862
0.00100836
0.00100811
0.00100788
0.00100765
0.00100744
0.00100724
0.00100705
0.00100688
0.00100672
0.00100658
0.0010167
0.00101621
0.00101574
0.00101528
0.00101483
0.00101439
0.00101397
0.00101356
0.00101316
0.00101277
0.00101239
0.00101203
0.00101167
0.00101132
0.00101098
0.00101065
0.00101034
0.00101003
0.00100972
0.00100943
0.00100915
0.00100888
0.00100861
0.00100835
0.00100811
0.00100787
0.00100765
0.00100743
0.00100723
0.00100704
0.00100686
0.0010067
0.00100656
0.0010167
0.00101621
0.00101574
0.00101528
0.00101483
0.00101439
0.00101397
0.00101356
0.00101316
0.00101277
0.00101239
0.00101202
0.00101167
0.00101132
0.00101098
0.00101065
0.00101033
0.00101002
0.00100972
0.00100943
0.00100914
0.00100887
0.00100861
0.00100835
0.0010081
0.00100787
0.00100764
0.00100742
0.00100722
0.00100703
0.00100685
0.00100668
0.00100653
0.0010167
0.00101621
0.00101574
0.00101528
0.00101483
0.00101439
0.00101397
0.00101356
0.00101316
0.00101277
0.00101239
0.00101202
0.00101167
0.00101132
0.00101098
0.00101065
0.00101033
0.00101002
0.00100972
0.00100942
0.00100914
0.00100887
0.0010086
0.00100834
0.00100809
0.00100786
0.00100763
0.00100741
0.0010072
0.00100701
0.00100683
0.00100666
0.0010065
0.0010167
0.00101621
0.00101574
0.00101528
0.00101483
0.00101439
0.00101397
0.00101356
0.00101316
0.00101277
0.00101239
0.00101202
0.00101166
0.00101132
0.00101098
0.00101065
0.00101033
0.00101002
0.00100971
0.00100942
0.00100914
0.00100886
0.00100859
0.00100834
0.00100809
0.00100785
0.00100762
0.0010074
0.00100719
0.00100699
0.00100681
0.00100663
0.00100647
0.0010167
0.00101621
0.00101574
0.00101528
0.00101483
0.00101439
0.00101397
0.00101356
0.00101316
0.00101277
0.00101239
0.00101202
0.00101166
0.00101131
0.00101097
0.00101064
0.00101032
0.00101001
0.00100971
0.00100942
0.00100913
0.00100885
0.00100859
0.00100833
0.00100808
0.00100784
0.00100761
0.00100739
0.00100718
0.00100697
0.00100679
0.00100661
0.00100644
0.0010167
0.00101621
0.00101574
0.00101528
0.00101483
0.00101439
0.00101397
0.00101356
0.00101316
0.00101277
0.00101239
0.00101202
0.00101166
0.00101131
0.00101097
0.00101064
0.00101032
0.00101001
0.00100971
0.00100941
0.00100913
0.00100885
0.00100858
0.00100832
0.00100807
0.00100783
0.0010076
0.00100737
0.00100716
0.00100696
0.00100676
0.00100658
0.00100641
0.0010167
0.00101621
0.00101574
0.00101528
0.00101483
0.00101439
0.00101397
0.00101356
0.00101316
0.00101277
0.00101239
0.00101202
0.00101166
0.00101131
0.00101097
0.00101064
0.00101032
0.00101001
0.0010097
0.00100941
0.00100912
0.00100884
0.00100857
0.00100831
0.00100806
0.00100782
0.00100758
0.00100736
0.00100714
0.00100694
0.00100674
0.00100656
0.00100638
0.0010167
0.00101621
0.00101574
0.00101528
0.00101483
0.00101439
0.00101397
0.00101356
0.00101316
0.00101277
0.00101239
0.00101202
0.00101166
0.00101131
0.00101097
0.00101064
0.00101032
0.00101
0.0010097
0.0010094
0.00100912
0.00100884
0.00100857
0.00100831
0.00100805
0.00100781
0.00100757
0.00100734
0.00100713
0.00100692
0.00100672
0.00100653
0.00100635
0.0010167
0.00101621
0.00101574
0.00101528
0.00101483
0.00101439
0.00101397
0.00101356
0.00101316
0.00101277
0.00101239
0.00101202
0.00101166
0.00101131
0.00101097
0.00101064
0.00101032
0.00101
0.0010097
0.0010094
0.00100911
0.00100883
0.00100856
0.0010083
0.00100804
0.0010078
0.00100756
0.00100733
0.00100711
0.0010069
0.0010067
0.00100651
0.00100633
0.0010167
0.00101621
0.00101574
0.00101528
0.00101483
0.00101439
0.00101397
0.00101356
0.00101316
0.00101277
0.00101239
0.00101202
0.00101166
0.00101131
0.00101097
0.00101064
0.00101031
0.00101
0.0010097
0.0010094
0.00100911
0.00100883
0.00100856
0.00100829
0.00100804
0.00100779
0.00100755
0.00100732
0.0010071
0.00100688
0.00100668
0.00100648
0.0010063
0.0010167
0.00101621
0.00101574
0.00101528
0.00101483
0.00101439
0.00101397
0.00101356
0.00101316
0.00101277
0.00101239
0.00101202
0.00101166
0.00101131
0.00101097
0.00101064
0.00101031
0.00101
0.00100969
0.0010094
0.00100911
0.00100883
0.00100855
0.00100829
0.00100803
0.00100778
0.00100754
0.00100731
0.00100708
0.00100686
0.00100666
0.00100646
0.00100627
0.0010167
0.00101621
0.00101574
0.00101528
0.00101483
0.0010144
0.00101397
0.00101356
0.00101316
0.00101277
0.0010124
0.00101203
0.00101167
0.00101132
0.00101097
0.00101064
0.00101032
0.00101
0.0010097
0.0010094
0.0010091
0.00100882
0.00100854
0.00100828
0.00100801
0.00100776
0.00100751
0.00100727
0.00100704
0.00100682
0.00100661
0.0010064
0.0010062
0.0010167
0.00101621
0.00101574
0.00101528
0.00101483
0.0010144
0.00101398
0.00101357
0.00101317
0.00101278
0.0010124
0.00101203
0.00101167
0.00101132
0.00101097
0.00101064
0.00101031
0.00100999
0.00100967
0.00100936
0.00100906
0.00100877
0.00100848
0.00100819
0.00100791
0.00100764
0.00100737
0.00100711
0.00100685
0.0010066
0.00100635
0.00100611
0.00100588
0.0010167
0.00101621
0.00101574
0.00101529
0.00101484
0.00101442
0.001014
0.00101359
0.00101318
0.00101279
0.0010124
0.00101202
0.00101164
0.00101127
0.0010109
0.00101053
0.00101017
0.0010098
0.00100944
0.00100907
0.00100871
0.00100834
0.00100798
0.00100761
0.00100724
0.00100687
0.0010065
0.00100613
0.00100575
0.00100538
0.00100501
0.00100463
0.00100426
0.0010167
0.00101622
0.00101575
0.0010153
0.00101485
0.00101441
0.00101397
0.00101353
0.00101308
0.00101262
0.00101215
0.00101167
0.00101117
0.00101064
0.0010101
0.00100954
0.00100895
0.00100834
0.00100771
0.00100705
0.00100637
0.00100567
0.00100496
0.00100422
0.00100347
0.0010027
0.00100191
0.00100112
0.00100031
0.000999489
0.000998662
0.000997828
0.000996988
0.00101671
0.00101622
0.00101574
0.00101524
0.00101469
0.00101407
0.00101338
0.00101259
0.00101169
0.00101069
0.00100959
0.00100837
0.00100705
0.00100563
0.00100411
0.0010025
0.00100081
0.000999052
0.000997224
0.000995337
0.0009934
0.00099142
0.000989404
0.000987359
0.000985292
0.000983208
0.000981114
0.000979015
0.000976917
0.000974823
0.000972738
0.000970666
0.000968612
0.00101671
0.00101601
0.00101488
0.00101327
0.00101115
0.00100852
0.00100539
0.00100179
0.000997757
0.000993348
0.000988613
0.000983608
0.000978383
0.000972988
0.000967465
0.000961856
0.000956196
0.000950515
0.00094484
0.000939195
0.000933601
0.000928073
0.000922627
0.000917275
0.000912028
0.000906894
0.00090188
0.000896992
0.000892234
0.000887611
0.000883125
0.000878779
0.000874572
0.0010153
0.00100707
0.000995558
0.000981492
0.000965505
0.000948208
0.000930159
0.000911806
0.00089348
0.000875422
0.000857795
0.000840709
0.000824231
0.000808397
0.000793223
0.000778707
0.000764838
0.000751598
0.000738965
0.000726913
0.000715416
0.000704445
0.000693974
0.000683975
0.000674422
0.00066529
0.000656555
0.000648192
0.000640179
0.000632494
0.000625117
0.000618027
0.000611206
0.000935929
0.000815534
0.000728155
0.000659156
0.000602195
0.000554858
0.000515251
0.000481786
0.000453212
0.000428564
0.0004071
0.000388248
0.000371562
0.000356692
0.000343359
0.00033134
0.000320452
0.000310546
0.000301497
0.0002932
0.000285569
0.000278529
0.000272016
0.000265975
0.000260358
0.000255125
0.00025024
0.000245671
0.00024139
0.000237374
0.0002336
0.00023005
0.000226706
0.000125477
0.000128847
0.000132096
0.000135204
0.000138174
0.000141008
0.000143711
0.000146289
0.000148744
0.000151083
0.000153308
0.000155425
0.000157436
0.000159347
0.000161162
0.000162884
0.000164517
0.000166065
0.000167532
0.000168922
0.000170237
0.000171482
0.000172659
0.000173772
0.000174823
0.000175816
0.000176752
0.000177636
0.000178468
0.000179253
0.00017999
0.000180684
0.000181336
0.000110869
0.000159863
0.000219325
0.000285876
0.000351058
0.000408378
0.000458889
0.000508639
0.000562828
0.000622439
0.000684658
0.000745271
0.000800635
0.000848166
0.000885859
0.000912714
0.000927723
0.000929737
0.000917458
0.000889482
0.000844404
0.000781174
0.000700031
0.000604529
0.000505107
0.00042392
0.000400073
0.000491681
0.000717767
0.000958145
0.00113431
0.00126898
0.00138107
0.00147512
0.00155198
0.00161269
0.00165901
0.0016932
0.00171763
0.00173451
0.00174584
0.00175327
0.00175826
0.00176206
0.00176582
0.0017706
0.00177726
0.00178634
0.00179792
0.00181157
0.00182646
0.00184153
0.00185563
0.00186751
0.0018758
0.0018789
0.00187514
0.00186293
0.00184105
0.00180884
0.00176633
0.00171428
0.00165413
0.00158794
0.00151824
0.00144779
0.0013793
0.0013151
0.0012569
0.00120566
0.0011617
0.00112488
0.00109478
0.00107071
0.00105182
0.00103718
0.0010259
0.00101722
0.00101052
0.00100537
0.00100142
0.000998406
0.000996126
0.000994414
0.000993141
0.000992203
0.000991522
0.000991034
0.000990692
0.000990458
0.000990303
0.000990205
0.000990149
0.000990121
0.000990112
0.000990117
0.000990129
0.000990146
0.000990163
0.000990189
0.000246363
0.000211258
0.000175161
0.000164344
0.000182449
0.000222653
0.000275881
0.000333656
0.000390189
0.00044302
0.000491944
0.000537303
0.000578843
0.000615334
0.000645303
0.00066693
0.000678353
0.000677936
0.000664304
0.000636428
0.000594013
0.000538421
0.000474316
0.000412179
0.000371561
0.000384956
0.000493423
0.000692846
0.0008972
0.00105951
0.00119064
0.00130203
0.00139709
0.0014766
0.00154127
0.00159229
0.00163128
0.00166013
0.0016808
0.00169509
0.00170463
0.0017108
0.00171481
0.00171772
0.00172052
0.00172416
0.00172947
0.00173702
0.00174697
0.00175906
0.0017726
0.00178668
0.00180031
0.0018124
0.00182169
0.00182668
0.00182567
0.00181699
0.00179925
0.00177158
0.00173382
0.00168653
0.00163097
0.00156905
0.00150319
0.00143607
0.00137039
0.00130853
0.00125223
0.00120255
0.00115983
0.00112397
0.00109453
0.00107086
0.00105218
0.00103762
0.00102635
0.00101766
0.00101095
0.00100578
0.00100181
0.000998783
0.000996482
0.000994749
0.000993454
0.000992495
0.000991793
0.000991287
0.000990927
0.000990676
0.000990506
0.000990395
0.000990327
0.000990288
0.00099027
0.000990266
0.000990271
0.000990282
0.000990293
0.000990312
0.000348487
0.000354481
0.000377519
0.000370626
0.000292071
0.000217336
0.000187041
0.000190825
0.00021516
0.000250875
0.000291518
0.000332353
0.000370033
0.000401931
0.000426279
0.000442151
0.000448956
0.000446231
0.000433843
0.000412547
0.000384879
0.000356444
0.000337746
0.000346616
0.000408453
0.000539351
0.000710399
0.000872796
0.00101214
0.00113275
0.00123809
0.00132954
0.00140776
0.00147326
0.00152672
0.00156911
0.00160172
0.001626
0.0016435
0.00165566
0.00166377
0.00166899
0.00167229
0.00167457
0.00167667
0.00167944
0.00168365
0.00168988
0.00169838
0.00170898
0.00172114
0.0017341
0.00174701
0.00175895
0.00176883
0.00177528
0.00177666
0.00177122
0.00175743
0.00173422
0.0017012
0.00165871
0.00160783
0.0015503
0.0014884
0.00142473
0.00136195
0.00130245
0.00124806
0.0011999
0.00115837
0.00112339
0.00109456
0.00107125
0.00105273
0.00103823
0.00102695
0.00101822
0.00101148
0.00100628
0.00100228
0.000999212
0.000996877
0.000995112
0.000993786
0.000992798
0.00099207
0.000991538
0.000991156
0.000990885
0.000990696
0.000990569
0.000990486
0.000990434
0.000990405
0.000990391
0.000990387
0.00099039
0.000990395
0.000990407
0.000475569
0.000471363
0.000481506
0.000532142
0.000649124
0.000730044
0.000602323
0.000415543
0.00029702
0.00024065
0.000220591
0.00022009
0.000229889
0.00024405
0.000258873
0.000271845
0.000281509
0.000287685
0.000291778
0.00029728
0.000310557
0.000341556
0.000402417
0.00049965
0.000623304
0.000753432
0.000877892
0.000993041
0.00109769
0.00119156
0.00127491
0.00134803
0.00141112
0.0014644
0.00150826
0.00154336
0.0015706
0.00159109
0.00160601
0.00161647
0.00162351
0.00162804
0.00163088
0.00163276
0.0016344
0.00163653
0.00163988
0.00164503
0.00165226
0.0016615
0.00167232
0.00168408
0.00169608
0.00170755
0.00171762
0.0017251
0.00172843
0.00172588
0.00171578
0.00169688
0.00166856
0.00163091
0.00158481
0.00153179
0.00147399
0.00141388
0.00135408
0.00129699
0.00124449
0.00119778
0.00115735
0.00112317
0.00109486
0.00107186
0.00105347
0.00103899
0.00102768
0.0010189
0.00101209
0.00100684
0.00100278
0.00099967
0.00099729
0.000995482
0.000994116
0.000993092
0.00099233
0.000991769
0.000991359
0.000991064
0.000990854
0.000990708
0.000990608
0.000990541
0.000990499
0.000990473
0.000990459
0.000990453
0.000990451
0.000990453
0.000612498
0.00060424
0.000597113
0.000597714
0.000624321
0.000698767
0.000821762
0.000933459
0.000905344
0.000745804
0.000579171
0.000461571
0.000388526
0.000349797
0.000332578
0.000329078
0.000335842
0.00035209
0.000378924
0.00041862
0.00047337
0.000543516
0.000626502
0.000717832
0.000812802
0.00090724
0.000997934
0.001083
0.00116164
0.00123357
0.00129861
0.00135653
0.00140715
0.00145038
0.00148635
0.00151546
0.00153834
0.00155578
0.00156864
0.00157781
0.00158407
0.00158817
0.00159075
0.00159243
0.0015938
0.00159552
0.00159824
0.00160251
0.00160868
0.00161673
0.00162631
0.00163689
0.00164786
0.00165864
0.00166854
0.00167659
0.00168141
0.00168132
0.00167457
0.00165974
0.00163597
0.00160313
0.00156184
0.00151342
0.00145981
0.00140337
0.00134664
0.00129199
0.00124138
0.00119607
0.00115668
0.00112322
0.00109538
0.00107263
0.00105434
0.00103986
0.0010285
0.00101964
0.00101277
0.00100744
0.00100333
0.00100015
0.000997716
0.000995855
0.000994442
0.000993375
0.000992575
0.000991979
0.000991539
0.000991216
0.000990982
0.000990813
0.000990694
0.000990611
0.000990554
0.000990515
0.00099049
0.000990475
0.000990464
0.000990456
0.000735214
0.000727193
0.000718825
0.000710287
0.00070445
0.000709302
0.000735187
0.000787353
0.000851674
0.000894688
0.000886331
0.000825421
0.000736325
0.000666866
0.000621842
0.000598015
0.000591942
0.000601172
0.000624019
0.000659068
0.000704746
0.000759103
0.000819842
0.000884556
0.000951018
0.00101739
0.00108226
0.00114463
0.00120375
0.00125903
0.00130993
0.00135595
0.00139669
0.00143193
0.00146162
0.00148597
0.00150539
0.00152044
0.00153175
0.00153996
0.00154571
0.00154957
0.00155207
0.0015537
0.00155498
0.00155646
0.00155874
0.00156236
0.00156766
0.0015747
0.0015832
0.00159268
0.00160261
0.00161254
0.00162199
0.00163021
0.00163604
0.00163791
0.00163408
0.00162299
0.00160356
0.0015754
0.00153888
0.00149508
0.00144573
0.00139305
0.00133945
0.00128729
0.00123857
0.00119465
0.00115623
0.00112344
0.00109602
0.00107349
0.00105529
0.00104079
0.00102937
0.00102044
0.00101348
0.00100808
0.00100389
0.00100064
0.000998146
0.000996227
0.000994761
0.000993647
0.000992803
0.000992169
0.000991694
0.000991341
0.00099108
0.000990888
0.000990749
0.000990647
0.000990574
0.000990522
0.000990484
0.000990458
0.000990439
0.00099042
0.000832248
0.000825488
0.000818578
0.000811409
0.000803976
0.00079729
0.000794338
0.000799444
0.000814875
0.00083742
0.000858401
0.000867209
0.000859236
0.000842411
0.000824799
0.000812003
0.000807026
0.000811048
0.00082415
0.000845756
0.000874888
0.000910316
0.000950682
0.000994612
0.00104081
0.00108814
0.00113559
0.00118231
0.00122756
0.00127064
0.00131092
0.00134785
0.00138098
0.00141001
0.00143481
0.00145548
0.00147224
0.00148547
0.00149563
0.00150319
0.00150864
0.00151243
0.00151497
0.00151669
0.00151801
0.0015194
0.00152141
0.00152455
0.00152918
0.0015354
0.00154299
0.00155148
0.00156044
0.00156947
0.00157827
0.00158632
0.00159271
0.00159605
0.00159466
0.00158688
0.00157146
0.00154777
0.0015159
0.00147669
0.00143163
0.00138274
0.00133233
0.00128272
0.00123592
0.00119337
0.00115591
0.00112374
0.00109671
0.00107438
0.00105626
0.00104174
0.00103026
0.00102125
0.00101421
0.00100872
0.00100445
0.00100114
0.000998569
0.000996589
0.000995067
0.000993902
0.000993013
0.000992337
0.000991826
0.000991441
0.000991151
0.000990935
0.000990773
0.000990652
0.000990562
0.000990495
0.000990444
0.000990407
0.000990378
0.000990348
0.000902098
0.000896946
0.000891767
0.000886583
0.000881387
0.000876218
0.000871455
0.000868172
0.000867966
0.000871924
0.000879586
0.000888626
0.000896401
0.000901881
0.000905683
0.000909387
0.000914754
0.000923224
0.000935723
0.000952663
0.000974027
0.000999475
0.00102846
0.00106029
0.00109426
0.00112963
0.0011657
0.00120178
0.00123724
0.00127146
0.00130387
0.00133397
0.00136132
0.00138563
0.00140671
0.00142457
0.00143933
0.00145122
0.00146057
0.00146772
0.00147304
0.00147688
0.00147958
0.00148147
0.00148292
0.00148434
0.00148622
0.00148904
0.00149317
0.00149875
0.00150559
0.00151328
0.00152136
0.00152953
0.00153758
0.00154521
0.00155177
0.00155609
0.00155661
0.00155168
0.00153987
0.00152035
0.00149293
0.0014582
0.00141739
0.00137232
0.00132515
0.00127813
0.00123327
0.00119212
0.00115559
0.00112404
0.00109737
0.00107524
0.00105718
0.00104266
0.00103112
0.00102203
0.00101491
0.00100934
0.00100499
0.00100161
0.000998974
0.000996932
0.000995352
0.000994135
0.000993199
0.000992482
0.000991934
0.000991515
0.000991196
0.000990953
0.000990768
0.000990627
0.00099052
0.000990437
0.000990374
0.000990325
0.000990287
0.000990244
0.000948338
0.000944763
0.000941225
0.000937788
0.000934513
0.000931457
0.000928697
0.000926427
0.000925072
0.000925231
0.000927412
0.000931635
0.000937455
0.000944371
0.000952084
0.000960622
0.000970289
0.000981529
0.000994776
0.00101035
0.00102842
0.00104895
0.00107179
0.00109665
0.00112315
0.00115085
0.00117931
0.00120803
0.00123653
0.00126433
0.00129096
0.00131598
0.00133901
0.00135976
0.00137806
0.00139382
0.0014071
0.00141803
0.00142683
0.00143375
0.00143907
0.00144305
0.00144597
0.0014481
0.00144976
0.00145129
0.00145314
0.00145576
0.00145954
0.00146464
0.0014709
0.00147794
0.0014853
0.0014927
0.00149999
0.00150705
0.00151347
0.00151834
0.00152027
0.00151766
0.00150901
0.00149327
0.00147003
0.00143959
0.00140294
0.00136166
0.00131775
0.00127336
0.00123049
0.00119076
0.00115519
0.00112425
0.00109794
0.00107601
0.00105803
0.0010435
0.00103192
0.00102276
0.00101556
0.00100992
0.0010055
0.00100204
0.000999346
0.000997243
0.000995609
0.00099434
0.000993358
0.0009926
0.000992014
0.000991562
0.000991214
0.000990945
0.000990737
0.000990576
0.00099045
0.000990353
0.000990276
0.000990214
0.000990167
0.000990112
0.000976519
0.00097426
0.000972069
0.00097002
0.000968187
0.000966647
0.000965479
0.000964767
0.00096464
0.000965298
0.000966992
0.000969938
0.000974248
0.000979929
0.000986936
0.000995232
0.00100483
0.0010158
0.00102825
0.00104227
0.00105792
0.00107521
0.00109407
0.00111436
0.00113588
0.00115838
0.00118155
0.00120508
0.00122859
0.00125173
0.00127411
0.00129538
0.0013152
0.00133331
0.00134952
0.00136373
0.00137593
0.00138618
0.00139462
0.00140144
0.00140683
0.001411
0.00141419
0.0014166
0.00141851
0.00142022
0.00142212
0.00142465
0.00142819
0.00143293
0.00143875
0.0014453
0.00145211
0.00145887
0.00146546
0.00147189
0.00147796
0.00148302
0.00148589
0.00148509
0.00147909
0.0014667
0.0014473
0.00142091
0.00138826
0.0013507
0.00131003
0.00126829
0.00122747
0.00118919
0.00115461
0.00112429
0.00109836
0.00107664
0.00105874
0.00104423
0.00103261
0.0010234
0.00101613
0.00101042
0.00100594
0.00100243
0.000999668
0.000997511
0.000995824
0.000994508
0.000993483
0.000992685
0.000992063
0.00099158
0.000991203
0.000990909
0.000990678
0.000990498
0.000990355
0.000990242
0.000990152
0.000990079
0.000990022
0.000989955
0.000992284
0.000990985
0.000989772
0.00098871
0.000987873
0.000987335
0.000987175
0.000987465
0.000988286
0.000989724
0.000991893
0.000994921
0.000998924
0.00100399
0.00101018
0.00101754
0.00102608
0.00103582
0.0010468
0.00105902
0.0010725
0.0010872
0.0011031
0.00112009
0.00113807
0.00115686
0.00117626
0.00119605
0.00121595
0.00123569
0.00125495
0.00127344
0.00129088
0.00130702
0.00132167
0.00133472
0.00134611
0.00135588
0.0013641
0.00137089
0.0013764
0.0013808
0.00138426
0.00138697
0.00138916
0.00139108
0.00139309
0.0013956
0.00139899
0.00140347
0.00140899
0.00141518
0.00142159
0.00142785
0.00143387
0.00143969
0.00144529
0.00145026
0.00145368
0.0014542
0.00145034
0.00144084
0.00142486
0.00140221
0.00137336
0.0013394
0.00130193
0.00126286
0.0012241
0.00118734
0.00115378
0.00112413
0.0010986
0.00107709
0.0010593
0.00104481
0.00103318
0.00102392
0.00101661
0.00101084
0.0010063
0.00100273
0.000999926
0.00099772
0.000995988
0.00099463
0.000993565
0.000992731
0.000992077
0.000991564
0.000991161
0.000990843
0.000990592
0.000990393
0.000990234
0.000990107
0.000990004
0.00098992
0.000989854
0.000989775
0.00100034
0.000999662
0.000999073
0.000998635
0.000998409
0.000998464
0.00099887
0.000999692
0.001001
0.00100285
0.00100532
0.00100848
0.00101241
0.00101717
0.00102281
0.0010294
0.00103697
0.00104554
0.00105513
0.00106574
0.00107739
0.00109004
0.00110366
0.0011182
0.00113356
0.00114965
0.00116631
0.00118336
0.00120062
0.00121784
0.00123479
0.0012512
0.00126684
0.00128148
0.00129494
0.0013071
0.00131789
0.0013273
0.00133536
0.00134217
0.00134781
0.00135244
0.00135618
0.00135919
0.00136165
0.00136381
0.00136596
0.0013685
0.00137181
0.00137613
0.00138143
0.00138738
0.00139352
0.00139944
0.001405
0.00141029
0.00141539
0.00142011
0.00142375
0.00142516
0.00142297
0.00141585
0.00140287
0.0013836
0.00135828
0.00132776
0.00129341
0.00125699
0.00122034
0.00118514
0.00115266
0.0011237
0.0010986
0.00107734
0.00105967
0.00104524
0.0010336
0.00102431
0.00101696
0.00101115
0.00100657
0.00100295
0.0010001
0.000997858
0.000996088
0.000994695
0.000993597
0.000992732
0.000992049
0.00099151
0.000991084
0.000990745
0.000990476
0.00099026
0.000990086
0.000989946
0.000989832
0.000989738
0.000989664
0.000989574
0.00100409
0.00100376
0.00100352
0.00100342
0.00100352
0.00100387
0.00100453
0.00100556
0.00100703
0.00100898
0.00101148
0.00101457
0.00101831
0.00102274
0.00102791
0.00103385
0.00104061
0.0010482
0.00105665
0.00106597
0.00107616
0.0010872
0.00109908
0.00111176
0.00112517
0.00113923
0.00115384
0.00116885
0.00118412
0.00119944
0.00121461
0.00122943
0.00124366
0.00125713
0.00126965
0.0012811
0.0012914
0.00130052
0.00130847
0.0013153
0.00132108
0.00132591
0.00132991
0.0013332
0.00133594
0.00133833
0.00134065
0.00134326
0.00134654
0.00135075
0.0013559
0.0013617
0.00136768
0.00137339
0.00137864
0.0013835
0.00138813
0.0013925
0.00139614
0.00139809
0.00139711
0.00139191
0.00138147
0.00136521
0.00134312
0.00131583
0.00128449
0.00125068
0.00121615
0.00118255
0.00115121
0.001123
0.00109837
0.00107738
0.00105986
0.00104549
0.00103386
0.00102456
0.00101718
0.00101133
0.00100672
0.00100307
0.00100019
0.000997915
0.000996116
0.000994694
0.000993569
0.000992679
0.000991974
0.000991413
0.000990967
0.000990611