/*--------------------------------*- C++ -*----------------------------------*\
  =========                 |
  \\      /  F ield         | OpenFOAM: The Open Source CFD Toolbox
   \\    /   O peration     | Website:  https://openfoam.org
    \\  /    A nd           | Version:  10
     \\/     M anipulation  |
\*---------------------------------------------------------------------------*/
FoamFile
{
    format      ascii;
    class       volScalarField;
    location    "0.045";
    object      p;
}
// * * * * * * * * * * * * * * * * * * * * * * * * * * * * * * * * * * * * * //

dimensions      [0 2 -2 0 0 0 0];

internalField   nonuniform List<scalar> 
6820
(
-8.63094
-9.9951
-10.4088
-10.5047
-10.586
-10.638
-10.6696
-10.6948
-10.7165
-10.7358
-10.7537
-10.7706
-10.7868
-10.8024
-10.8173
-10.8316
-10.8452
-10.8581
-10.87
-10.8808
-10.8903
-10.8981
-10.9039
-10.9069
-10.9066
-10.9019
-10.8915
-10.873
-10.8442
-10.7964
-10.7314
-10.6042
-10.4166
-11.4311
-11.0268
-10.7332
-10.6382
-10.6401
-10.6574
-10.6762
-10.6966
-10.7169
-10.7359
-10.7538
-10.7706
-10.7867
-10.8019
-10.8165
-10.8305
-10.8437
-10.8562
-10.8678
-10.8784
-10.8877
-10.8955
-10.9013
-10.9047
-10.9049
-10.9013
-10.8925
-10.8776
-10.8534
-10.8229
-10.7699
-10.7432
-10.6669
-10.288
-10.1599
-10.385
-10.5232
-10.5853
-10.6303
-10.6631
-10.6892
-10.7116
-10.7315
-10.7498
-10.7669
-10.7831
-10.7987
-10.8136
-10.828
-10.8417
-10.8546
-10.8667
-10.8778
-10.8876
-10.896
-10.9024
-10.9065
-10.9077
-10.9052
-10.8981
-10.8852
-10.8648
-10.8366
-10.7953
-10.7514
-10.6768
-10.6546
-10.6714
-10.6475
-10.6249
-10.6336
-10.6546
-10.6754
-10.6954
-10.7149
-10.7334
-10.751
-10.7678
-10.7839
-10.7993
-10.8142
-10.8285
-10.8421
-10.8551
-10.8673
-10.8785
-10.8886
-10.8973
-10.9043
-10.9092
-10.9116
-10.9108
-10.9061
-10.897
-10.8822
-10.8625
-10.8344
-10.8084
-10.7709
-10.5446
-10.4906
-10.5347
-10.58
-10.6156
-10.6463
-10.6717
-10.6939
-10.7142
-10.7331
-10.7507
-10.7675
-10.7835
-10.799
-10.8139
-10.8283
-10.8421
-10.8553
-10.8677
-10.8793
-10.8899
-10.8993
-10.9072
-10.9133
-10.9172
-10.9186
-10.9169
-10.9118
-10.9028
-10.8905
-10.8739
-10.8587
-10.84
-10.5852
-10.5785
-10.5971
-10.6146
-10.6333
-10.6554
-10.6768
-10.6969
-10.716
-10.7341
-10.7514
-10.768
-10.784
-10.7994
-10.8143
-10.8288
-10.8427
-10.8561
-10.8688
-10.8808
-10.892
-10.902
-10.9109
-10.9184
-10.9241
-10.9279
-10.9295
-10.9289
-10.926
-10.9216
-10.916
-10.913
-10.9124
-10.5843
-10.5736
-10.5887
-10.6107
-10.6331
-10.6562
-10.6778
-10.6977
-10.7167
-10.7346
-10.7517
-10.7682
-10.7841
-10.7996
-10.8145
-10.8291
-10.8432
-10.8569
-10.87
-10.8824
-10.8942
-10.9052
-10.9153
-10.9242
-10.932
-10.9384
-10.9436
-10.9476
-10.9507
-10.9539
-10.9582
-10.9663
-10.98
-10.5938
-10.5908
-10.6042
-10.6225
-10.6413
-10.6613
-10.6809
-10.6998
-10.7179
-10.7354
-10.7523
-10.7685
-10.7844
-10.7998
-10.8148
-10.8295
-10.8438
-10.8577
-10.8712
-10.8843
-10.8968
-10.9087
-10.92
-10.9306
-10.9405
-10.9498
-10.9585
-10.9671
-10.976
-10.9864
-10.9994
-11.0175
-11.0428
-10.6021
-10.6011
-10.6118
-10.628
-10.6456
-10.6644
-10.6832
-10.7014
-10.7191
-10.7362
-10.7527
-10.7688
-10.7846
-10.8
-10.815
-10.8298
-10.8444
-10.8586
-10.8726
-10.8862
-10.8995
-10.9125
-10.9251
-10.9374
-10.9495
-10.9615
-10.9738
-10.9868
-11.0011
-11.0179
-11.0386
-11.065
-11.0997
-10.6104
-10.611
-10.6207
-10.6352
-10.6513
-10.6685
-10.6861
-10.7034
-10.7204
-10.737
-10.7533
-10.7692
-10.7848
-10.8001
-10.8153
-10.8302
-10.8449
-10.8595
-10.8739
-10.8881
-10.9023
-10.9163
-10.9303
-10.9443
-10.9586
-10.9733
-10.9889
-11.0059
-11.0251
-11.0476
-11.0747
-11.108
-11.1499
-10.6185
-10.6199
-10.6285
-10.6415
-10.6562
-10.6722
-10.6887
-10.7053
-10.7217
-10.7379
-10.7538
-10.7695
-10.7849
-10.8003
-10.8154
-10.8305
-10.8454
-10.8603
-10.8752
-10.8901
-10.905
-10.9201
-10.9354
-10.9511
-10.9674
-10.9847
-11.0034
-11.024
-11.0475
-11.0747
-11.107
-11.1458
-11.193
-10.6261
-10.628
-10.6357
-10.6475
-10.661
-10.6759
-10.6915
-10.7072
-10.723
-10.7387
-10.7543
-10.7697
-10.7851
-10.8003
-10.8155
-10.8307
-10.8458
-10.8611
-10.8764
-10.8918
-10.9076
-10.9236
-10.9402
-10.9575
-10.9758
-10.9954
-11.0168
-11.0406
-11.0676
-11.0987
-11.1351
-11.1779
-11.2288
-10.6333
-10.6353
-10.6424
-10.6531
-10.6655
-10.6794
-10.694
-10.7091
-10.7243
-10.7395
-10.7548
-10.77
-10.7851
-10.8003
-10.8155
-10.8308
-10.8461
-10.8616
-10.8774
-10.8934
-10.9099
-10.9269
-10.9446
-10.9634
-10.9833
-11.0049
-11.0287
-11.0551
-11.085
-11.1191
-11.1585
-11.2041
-11.2572
-10.6399
-10.642
-10.6485
-10.6582
-10.6698
-10.6827
-10.6965
-10.7109
-10.7255
-10.7403
-10.7551
-10.7701
-10.7851
-10.8002
-10.8153
-10.8307
-10.8462
-10.862
-10.8781
-10.8947
-10.9118
-10.9296
-10.9484
-10.9684
-10.9898
-11.0131
-11.0388
-11.0673
-11.0993
-11.1356
-11.177
-11.2242
-11.2782
-10.646
-10.648
-10.6541
-10.663
-10.6737
-10.6858
-10.6988
-10.7125
-10.7266
-10.7409
-10.7554
-10.7701
-10.7849
-10.7998
-10.815
-10.8303
-10.846
-10.862
-10.8784
-10.8955
-10.9132
-10.9317
-10.9514
-10.9724
-10.995
-11.0196
-11.0467
-11.0767
-11.1103
-11.1479
-11.1903
-11.2381
-11.2922
-10.6515
-10.6534
-10.6591
-10.6673
-10.6772
-10.6886
-10.7009
-10.7139
-10.7275
-10.7413
-10.7555
-10.7699
-10.7845
-10.7993
-10.8144
-10.8297
-10.8455
-10.8616
-10.8783
-10.8957
-10.9138
-10.933
-10.9533
-10.9751
-10.9986
-11.0242
-11.0522
-11.0832
-11.1176
-11.1559
-11.1985
-11.2461
-11.2991
-10.6565
-10.6582
-10.6635
-10.6711
-10.6804
-10.691
-10.7027
-10.7152
-10.7282
-10.7416
-10.7554
-10.7695
-10.7838
-10.7985
-10.8134
-10.8288
-10.8445
-10.8608
-10.8776
-10.8952
-10.9137
-10.9333
-10.954
-10.9763
-11.0004
-11.0266
-11.0552
-11.0866
-11.1212
-11.1594
-11.2016
-11.2481
-11.2995
-10.6608
-10.6625
-10.6674
-10.6745
-10.6831
-10.6931
-10.7042
-10.7161
-10.7286
-10.7416
-10.755
-10.7688
-10.7829
-10.7973
-10.8121
-10.8274
-10.8431
-10.8594
-10.8763
-10.894
-10.9127
-10.9324
-10.9534
-10.976
-11.0003
-11.0266
-11.0553
-11.0866
-11.1209
-11.1585
-11.1996
-11.2445
-11.2935
-10.6645
-10.6661
-10.6707
-10.6773
-10.6854
-10.6949
-10.7054
-10.7168
-10.7288
-10.7413
-10.7544
-10.7678
-10.7816
-10.7958
-10.8104
-10.8255
-10.8411
-10.8573
-10.8742
-10.8919
-10.9105
-10.9303
-10.9513
-10.9739
-10.9981
-11.0243
-11.0526
-11.0834
-11.1169
-11.1533
-11.1928
-11.2355
-11.2817
-10.6677
-10.6691
-10.6734
-10.6796
-10.6872
-10.6962
-10.7062
-10.717
-10.7286
-10.7407
-10.7534
-10.7664
-10.7799
-10.7939
-10.8082
-10.8231
-10.8385
-10.8545
-10.8713
-10.8888
-10.9073
-10.9269
-10.9477
-10.9699
-10.9938
-11.0194
-11.0471
-11.0769
-11.1091
-11.1438
-11.1812
-11.2214
-11.2643
-10.6701
-10.6715
-10.6755
-10.6813
-10.6885
-10.697
-10.7065
-10.7169
-10.728
-10.7397
-10.752
-10.7647
-10.7778
-10.7915
-10.8055
-10.8201
-10.8352
-10.851
-10.8674
-10.8847
-10.9028
-10.922
-10.9424
-10.9641
-10.9873
-11.012
-11.0386
-11.0671
-11.0977
-11.1304
-11.1653
-11.2025
-11.242
-10.672
-10.6733
-10.6771
-10.6825
-10.6893
-10.6974
-10.7064
-10.7164
-10.727
-10.7383
-10.7502
-10.7625
-10.7753
-10.7885
-10.8022
-10.8165
-10.8312
-10.8466
-10.8626
-10.8794
-10.8971
-10.9157
-10.9354
-10.9563
-10.9785
-11.0022
-11.0274
-11.0542
-11.0828
-11.1131
-11.1453
-11.1793
-11.215
-10.6732
-10.6744
-10.678
-10.6831
-10.6896
-10.6972
-10.7058
-10.7154
-10.7256
-10.7365
-10.7479
-10.7598
-10.7722
-10.7851
-10.7984
-10.8122
-10.8265
-10.8413
-10.8569
-10.8731
-10.8901
-10.9079
-10.9267
-10.9466
-10.9676
-10.9899
-11.0134
-11.0384
-11.0647
-11.0924
-11.1216
-11.1521
-11.184
-10.6737
-10.6749
-10.6782
-10.6831
-10.6892
-10.6964
-10.7047
-10.7138
-10.7236
-10.7341
-10.7451
-10.7566
-10.7685
-10.7809
-10.7938
-10.8071
-10.8208
-10.8351
-10.85
-10.8655
-10.8817
-10.8986
-10.9164
-10.935
-10.9546
-10.9752
-10.9969
-11.0197
-11.0436
-11.0685
-11.0945
-11.1215
-11.1494
-10.6736
-10.6747
-10.6778
-10.6824
-10.6882
-10.6951
-10.703
-10.7118
-10.7212
-10.7313
-10.7419
-10.7529
-10.7644
-10.7763
-10.7887
-10.8014
-10.8145
-10.8282
-10.8423
-10.8569
-10.8721
-10.888
-10.9045
-10.9217
-10.9397
-10.9585
-10.9782
-10.9986
-11.0198
-11.0418
-11.0645
-11.0879
-11.1118
-10.6727
-10.6737
-10.6767
-10.681
-10.6865
-10.6931
-10.7006
-10.709
-10.718
-10.7276
-10.7378
-10.7484
-10.7594
-10.7708
-10.7826
-10.7947
-10.8072
-10.82
-10.8333
-10.847
-10.8611
-10.8758
-10.8909
-10.9066
-10.9229
-10.9397
-10.9571
-10.9751
-10.9936
-11.0126
-11.032
-11.0517
-11.0716
-10.6711
-10.6721
-10.675
-10.6791
-10.6844
-10.6908
-10.698
-10.7061
-10.7148
-10.724
-10.7338
-10.7439
-10.7544
-10.7653
-10.7764
-10.7878
-10.7995
-10.8115
-10.8238
-10.8364
-10.8494
-10.8627
-10.8763
-10.8903
-10.9047
-10.9194
-10.9345
-10.9499
-10.9656
-10.9815
-10.9975
-11.0135
-11.0296
-10.6688
-10.6697
-10.6722
-10.676
-10.6809
-10.6868
-10.6937
-10.7014
-10.7097
-10.7186
-10.728
-10.7377
-10.7477
-10.758
-10.7686
-10.7793
-10.7902
-10.8014
-10.8127
-10.8242
-10.8359
-10.8478
-10.8599
-10.8722
-10.8847
-10.8973
-10.91
-10.9228
-10.9356
-10.9484
-10.9611
-10.9737
-10.9859
-10.6658
-10.6668
-10.6695
-10.6734
-10.6783
-10.6842
-10.691
-10.6984
-10.7065
-10.715
-10.7239
-10.7331
-10.7425
-10.7521
-10.7619
-10.7718
-10.7818
-10.7919
-10.8021
-10.8124
-10.8227
-10.8331
-10.8434
-10.8539
-10.8642
-10.8746
-10.8849
-10.895
-10.905
-10.9147
-10.9241
-10.9332
-10.9417
-10.6617
-10.662
-10.6637
-10.6667
-10.6709
-10.6764
-10.6828
-10.69
-10.6979
-10.7062
-10.7149
-10.7239
-10.733
-10.7423
-10.7516
-10.7609
-10.7702
-10.7795
-10.7888
-10.7979
-10.807
-10.8159
-10.8247
-10.8334
-10.8418
-10.85
-10.858
-10.8656
-10.8728
-10.8796
-10.8859
-10.8916
-10.8966
-10.6581
-10.6599
-10.6629
-10.6667
-10.6714
-10.6769
-10.6832
-10.69
-10.6974
-10.7051
-10.713
-10.7212
-10.7294
-10.7377
-10.746
-10.7543
-10.7624
-10.7705
-10.7783
-10.786
-10.7935
-10.8007
-10.8077
-10.8144
-10.8207
-10.8266
-10.8321
-10.8371
-10.8415
-10.8454
-10.8486
-10.851
-10.8526
-10.6495
-10.6475
-10.6471
-10.649
-10.653
-10.6585
-10.6652
-10.6727
-10.6808
-10.6892
-10.6977
-10.7064
-10.7149
-10.7234
-10.7317
-10.7398
-10.7476
-10.7551
-10.7622
-10.7691
-10.7755
-10.7815
-10.7871
-10.7922
-10.7967
-10.8007
-10.804
-10.8067
-10.8087
-10.8099
-10.8103
-10.8098
-10.8084
-10.6526
-10.6579
-10.6618
-10.6647
-10.6682
-10.6725
-10.6776
-10.6833
-10.6896
-10.6961
-10.7029
-10.7098
-10.7166
-10.7234
-10.7301
-10.7365
-10.7427
-10.7485
-10.754
-10.7591
-10.7637
-10.7678
-10.7714
-10.7744
-10.7768
-10.7785
-10.7794
-10.7796
-10.779
-10.7774
-10.775
-10.7715
-10.767
-10.6238
-10.6131
-10.6093
-10.6124
-10.619
-10.6272
-10.6364
-10.646
-10.6559
-10.6656
-10.6751
-10.6843
-10.693
-10.7013
-10.7091
-10.7163
-10.723
-10.7291
-10.7345
-10.7393
-10.7434
-10.7467
-10.7493
-10.7512
-10.7522
-10.7523
-10.7516
-10.7499
-10.7472
-10.7435
-10.7387
-10.7328
-10.7258
-10.6685
-10.6838
-10.6844
-10.6791
-10.6764
-10.6767
-10.6788
-10.6819
-10.6859
-10.6905
-10.6955
-10.7006
-10.7058
-10.7108
-10.7156
-10.7201
-10.7242
-10.7279
-10.731
-10.7336
-10.7355
-10.7367
-10.7371
-10.7367
-10.7355
-10.7334
-10.7304
-10.7263
-10.7212
-10.7151
-10.7078
-10.6993
-10.6897
-10.5593
-10.5215
-10.5166
-10.5385
-10.5573
-10.5744
-10.591
-10.6067
-10.6212
-10.6346
-10.6468
-10.658
-10.668
-10.6771
-10.6851
-10.6922
-10.6983
-10.7035
-10.7077
-10.7109
-10.7132
-10.7144
-10.7146
-10.7138
-10.7118
-10.7088
-10.7046
-10.6992
-10.6927
-10.6849
-10.6759
-10.6656
-10.654
-10.7695
-10.7935
-10.7632
-10.7263
-10.7021
-10.6937
-10.6894
-10.6872
-10.6872
-10.6887
-10.6911
-10.6939
-10.697
-10.7001
-10.703
-10.7056
-10.7077
-10.7094
-10.7104
-10.7108
-10.7104
-10.7091
-10.707
-10.7039
-10.6998
-10.6946
-10.6884
-10.681
-10.6724
-10.6626
-10.6516
-10.6392
-10.6256
-10.3539
-10.2721
-10.329
-10.4092
-10.4644
-10.5008
-10.5325
-10.5598
-10.5826
-10.6021
-10.6188
-10.6331
-10.6454
-10.656
-10.6649
-10.6723
-10.6784
-10.6831
-10.6866
-10.6887
-10.6897
-10.6893
-10.6877
-10.6848
-10.6806
-10.6752
-10.6684
-10.6602
-10.6507
-10.6399
-10.6277
-10.6141
-10.5991
-11.3296
-11.0512
-10.8452
-10.7528
-10.7154
-10.6936
-10.6793
-10.6721
-10.6693
-10.6691
-10.6705
-10.6728
-10.6755
-10.6784
-10.681
-10.6834
-10.6852
-10.6864
-10.6869
-10.6866
-10.6854
-10.6831
-10.6799
-10.6756
-10.6701
-10.6634
-10.6554
-10.6462
-10.6356
-10.6237
-10.6104
-10.5957
-10.5796
-9.37117
-9.93253
-10.2363
-10.3517
-10.4318
-10.4938
-10.5371
-10.569
-10.594
-10.6137
-10.6295
-10.6423
-10.6528
-10.6613
-10.6682
-10.6735
-10.6775
-10.6801
-10.6814
-10.6815
-10.6802
-10.6777
-10.6738
-10.6687
-10.6621
-10.6542
-10.645
-10.6343
-10.6221
-10.6086
-10.5936
-10.5772
-10.5593
-10.1146
-9.75299
-9.68928
-10.0054
-10.5886
-11.3496
-12.2345
-13.1765
-14.1342
-15.0799
-15.9886
-16.8381
-17.6112
-18.2952
-18.8827
-19.3673
-19.7469
-20.0189
-20.1806
-20.228
-20.1553
-19.9546
-19.6157
-19.1261
-18.4729
-17.6467
-16.6468
-15.4826
-14.1706
-12.7445
-11.2556
-9.75388
-8.28391
-6.89102
-5.61372
-4.47641
-3.48846
-2.64717
-1.9421
-1.35907
-0.882675
-0.497864
-0.190724
0.0511769
0.238732
0.381364
0.487158
0.563018
0.614809
0.647484
0.665187
0.671347
0.668757
0.659662
0.645836
0.628658
0.609188
0.588222
0.566357
0.54403
0.521563
0.499192
0.477089
0.455381
0.434168
0.413524
0.393512
0.374188
0.355593
0.337758
0.320698
0.304407
0.288866
0.274038
0.259883
0.246355
0.233408
0.220994
0.209066
0.197575
0.186476
0.175723
0.165273
0.155088
0.145128
0.13536
0.12575
0.116271
0.106894
0.0975953
0.0883488
0.0791423
0.0699385
0.0607578
0.051506
0.0423299
0.0328829
0.0238377
0.0137752
0.00558336
-10.7989
-10.572
-10.4
-10.5199
-10.8776
-11.4513
-12.2081
-13.0785
-13.9997
-14.9216
-15.8069
-16.6303
-17.3766
-18.0353
-18.5979
-19.0604
-19.4196
-19.672
-19.8138
-19.84
-19.7445
-19.5191
-19.154
-18.639
-17.9662
-17.1337
-16.1463
-15.0127
-13.7532
-12.402
-10.9958
-9.57327
-8.1785
-6.85385
-5.6336
-4.54019
-3.58332
-2.762
-2.06808
-1.48956
-1.01293
-0.624607
-0.311814
-0.0629366
0.132319
0.28295
0.39674
0.480379
0.53959
0.579234
0.60341
0.615531
0.618401
0.614286
0.604994
0.591941
0.57622
0.558663
0.539897
0.520386
0.500478
0.480428
0.460428
0.440622
0.421121
0.402016
0.383382
0.365284
0.347778
0.330906
0.314697
0.299158
0.284279
0.270038
0.256401
0.24333
0.230786
0.218726
0.207107
0.195887
0.185024
0.174476
0.164204
0.154173
0.144347
0.134694
0.125185
0.115792
0.10649
0.0972559
0.0880655
0.0789073
0.0697464
0.0606015
0.0513852
0.0422324
0.0328251
0.0237759
0.0138007
0.00548884
-10.6161
-10.4341
-10.3914
-10.6054
-11.0205
-11.5874
-12.2755
-13.0515
-13.8813
-14.7296
-15.5615
-16.3479
-17.067
-17.7033
-18.2468
-18.6906
-19.0297
-19.2604
-19.379
-19.3808
-19.2598
-19.0088
-18.621
-18.0914
-17.4186
-16.6021
-15.644
-14.5559
-13.3592
-12.0793
-10.7467
-9.39913
-8.07691
-6.81763
-5.65217
-4.60141
-3.67525
-2.87417
-2.19198
-1.61869
-1.14252
-0.751319
-0.433389
-0.177946
0.024703
0.183115
0.30476
0.396103
0.462711
0.509347
0.54005
0.55821
0.56663
0.567595
0.562938
0.554105
0.542224
0.528159
0.512567
0.495941
0.478653
0.460983
0.443141
0.425287
0.40755
0.390032
0.372821
0.355995
0.33962
0.323752
0.308429
0.293674
0.279487
0.265857
0.25276
0.240166
0.228042
0.216351
0.205056
0.194118
0.183501
0.173167
0.163082
0.153213
0.143527
0.133996
0.124592
0.11529
0.106065
0.0968993
0.0877678
0.0786602
0.0695443
0.0604369
0.0512579
0.0421294
0.0327641
0.02371
0.0138271
0.00538866
-10.7615
-10.7173
-10.7356
-10.9265
-11.2848
-11.7812
-12.392
-13.0855
-13.8285
-14.5917
-15.3466
-16.0673
-16.7302
-17.3188
-17.824
-18.2375
-18.5516
-18.7603
-18.8585
-18.8413
-18.7041
-18.4428
-18.0535
-17.5323
-16.8756
-16.083
-15.1607
-14.1223
-12.9849
-11.7704
-10.5082
-9.2325
-7.97928
-6.7822
-5.66925
-4.65986
-3.76401
-2.98336
-2.31347
-1.74611
-1.27111
-0.877676
-0.555161
-0.293596
-0.083898
0.0820434
0.211369
0.310311
0.38427
0.437895
0.47516
0.499419
0.513468
0.519602
0.519672
0.515153
0.5072
0.496709
0.484365
0.470693
0.456089
0.440855
0.425224
0.409375
0.393451
0.377568
0.361828
0.346318
0.331117
0.316291
0.301891
0.287951
0.274486
0.261493
0.248958
0.236861
0.225174
0.213867
0.202909
0.192266
0.181907
0.171797
0.161907
0.152206
0.142667
0.133263
0.123969
0.114762
0.10562
0.096525
0.0874551
0.0784006
0.0693319
0.0602638
0.051124
0.0420207
0.0326996
0.0236402
0.0138538
0.00528374
-10.8351
-10.8223
-10.8701
-11.0611
-11.3998
-11.8677
-12.4397
-13.0804
-13.7581
-14.4488
-15.1313
-15.7847
-16.3902
-16.9324
-17.3978
-17.7767
-18.0614
-18.2459
-18.3251
-18.2947
-18.1501
-17.8868
-17.5005
-16.9873
-16.3465
-15.5814
-14.6986
-13.7087
-12.6273
-11.4758
-10.2808
-9.07332
-7.88543
-6.74745
-5.68475
-4.71541
-3.8494
-3.08934
-2.43224
-1.87148
-1.39836
-1.00334
-0.676817
-0.409604
-0.193232
-0.0200464
0.116757
0.223163
0.304395
0.364982
0.408818
0.439216
0.458956
0.470333
0.475213
0.475093
0.471153
0.464315
0.455296
0.444646
0.432789
0.420051
0.406686
0.392893
0.37883
0.36463
0.350404
0.336254
0.322267
0.308522
0.29508
0.281988
0.269272
0.256941
0.244992
0.233411
0.222179
0.211273
0.200666
0.19033
0.180239
0.170363
0.160677
0.151153
0.141767
0.132496
0.123317
0.114209
0.105153
0.0961325
0.0871272
0.0781283
0.0691091
0.0600821
0.0509833
0.0419064
0.0326314
0.0235666
0.0138803
0.00517507
-10.9256
-10.9555
-11.0416
-11.2359
-11.5459
-11.9614
-12.4708
-13.0496
-13.6677
-14.2992
-14.9223
-15.5179
-16.0698
-16.563
-16.9852
-17.3275
-17.5824
-17.7433
-17.8044
-17.7607
-17.6075
-17.3408
-16.9576
-16.4563
-15.837
-15.102
-14.2575
-13.314
-12.2867
-11.1953
-10.0642
-8.92117
-7.79508
-6.71319
-5.69854
-4.76796
-3.93128
-3.19188
-2.54803
-1.99451
-1.52396
-1.12803
-0.798076
-0.525713
-0.303069
-0.122952
0.0210973
0.134806
0.223211
0.290708
0.341106
0.377664
0.403138
0.419819
0.429582
0.433938
0.43409
0.430985
0.425364
0.417804
0.408757
0.398573
0.387529
0.375842
0.36369
0.351218
0.338551
0.325802
0.31307
0.300442
0.287994
0.275781
0.263843
0.2522
0.240859
0.229815
0.219056
0.208565
0.198323
0.188308
0.178496
0.168864
0.15939
0.150051
0.140825
0.131692
0.122633
0.11363
0.104664
0.0957211
0.0867835
0.0778428
0.0688753
0.0598913
0.0508355
0.0417862
0.0325592
0.0234891
0.0139058
0.00506354
-11.0086
-11.0635
-11.1695
-11.3622
-11.6515
-12.0305
-12.4877
-13.0043
-13.5596
-14.1323
-14.6998
-15.2426
-15.7451
-16.1941
-16.5778
-16.887
-17.1138
-17.2515
-17.2946
-17.2383
-17.0785
-16.8116
-16.4351
-15.9476
-15.3493
-14.6435
-13.8363
-12.9379
-11.9625
-10.9284
-9.85769
-8.77554
-7.70788
-6.67923
-5.71052
-4.81741
-4.00952
-3.29082
-2.66063
-2.11494
-1.64763
-1.25144
-0.918663
-0.641666
-0.413175
-0.226464
-0.0754271
0.0453979
0.140851
0.215186
0.272113
0.314833
0.34607
0.368102
0.382808
0.39171
0.396026
0.396726
0.394574
0.390173
0.383999
0.376427
0.367757
0.358228
0.348033
0.337334
0.326269
0.314962
0.303522
0.29205
0.280628
0.269327
0.258196
0.247267
0.236556
0.226068
0.215801
0.205742
0.19588
0.186197
0.176676
0.167298
0.158045
0.148898
0.139839
0.130852
0.121918
0.113024
0.104152
0.0952902
0.0864233
0.0775435
0.0686301
0.0596911
0.0506801
0.0416599
0.0324826
0.023408
0.0139298
0.0049502
-11.0848
-11.1579
-11.2783
-11.4694
-11.74
-12.0862
-12.4988
-12.9629
-13.4608
-13.9742
-14.4845
-14.9749
-15.4301
-15.8365
-16.1826
-16.4591
-16.6585
-16.7743
-16.801
-16.7337
-16.5686
-16.3024
-15.933
-15.4593
-14.8824
-14.2054
-13.4346
-12.5797
-11.6539
-10.6741
-9.66056
-8.63594
-7.62351
-6.64539
-5.7206
-4.8637
-4.08404
-3.38602
-2.76982
-2.23253
-1.76911
-1.37331
-1.03831
-0.757207
-0.523315
-0.330371
-0.172628
-0.0448971
0.0574555
0.138533
0.20194
0.250807
0.287817
0.315234
0.33493
0.348436
0.356982
0.361556
0.362941
0.361763
0.358523
0.353621
0.347378
0.340055
0.331864
0.322982
0.31356
0.303735
0.293626
0.283344
0.272983
0.262624
0.252328
0.242138
0.232081
0.222171
0.212412
0.202802
0.193334
0.183996
0.174777
0.165664
0.156641
0.147694
0.13881
0.129973
0.121171
0.112389
0.103616
0.0948391
0.0860461
0.0772298
0.0683731
0.0594811
0.0505169
0.0415272
0.0324015
0.023323
0.0139513
0.00483608
-11.1522
-11.2376
-11.3659
-11.5528
-11.8053
-12.1216
-12.4943
-12.9115
-13.3583
-13.8188
-14.2771
-14.7176
-15.1265
-15.4911
-15.8005
-16.0457
-16.219
-16.3139
-16.3249
-16.2475
-16.0778
-15.813
-15.4511
-14.9917
-14.4359
-13.7872
-13.0516
-12.2383
-11.3598
-10.4316
-9.47218
-8.50188
-7.54169
-6.61153
-5.72873
-4.9068
-4.15478
-3.47736
-2.87546
-2.34707
-1.88815
-1.49338
-1.15676
-0.872088
-0.633257
-0.43446
-0.270314
-0.135909
-0.0268264
0.0608786
0.130694
0.185674
0.228455
0.261273
0.285995
0.304152
0.316985
0.325493
0.330478
0.332586
0.33234
0.330163
0.3264
0.321332
0.31519
0.308166
0.300429
0.292123
0.283382
0.274325
0.265059
0.255672
0.24624
0.236814
0.227433
0.218121
0.208889
0.199744
0.190683
0.181704
0.172799
0.163959
0.155176
0.146438
0.137735
0.129055
0.120389
0.111726
0.103055
0.0943672
0.0856513
0.0769014
0.0681037
0.0592609
0.0503455
0.0413879
0.0323153
0.0232344
0.0139698
0.00472228
-11.2103
-11.3036
-11.4356
-11.6165
-11.8518
-12.1407
-12.4773
-12.8519
-13.252
-13.6641
-14.074
-14.4679
-14.8332
-15.1582
-15.4326
-15.6477
-15.7958
-15.8706
-15.8668
-15.7799
-15.6063
-15.3433
-14.9893
-14.5442
-14.0092
-13.388
-12.6863
-11.913
-11.0796
-10.2003
-9.29198
-8.37298
-7.46217
-6.57754
-5.73488
-4.9467
-4.22171
-3.56478
-2.97741
-2.45839
-2.00455
-1.61142
-1.27377
-0.986069
-0.742769
-0.538516
-0.36829
-0.227465
-0.111841
-0.017644
0.0584921
0.119535
0.168065
0.206289
0.236059
0.258904
0.27607
0.288566
0.297208
0.302659
0.305463
0.306066
0.304833
0.302067
0.298018
0.292895
0.28688
0.280132
0.272794
0.264997
0.256855
0.248472
0.23993
0.231294
0.222612
0.213917
0.205231
0.196566
0.187928
0.17932
0.17074
0.162185
0.15365
0.145128
0.136613
0.128098
0.119574
0.111034
0.102469
0.0938738
0.0852383
0.0765578
0.0678217
0.0590303
0.0501656
0.0412417
0.0322238
0.023142
0.0139844
0.00460983
-11.2589
-11.3567
-11.489
-11.6625
-11.8812
-12.1447
-12.4483
-12.7841
-13.1416
-13.5091
-13.8743
-14.225
-14.5495
-14.8371
-15.0782
-15.2644
-15.3885
-15.4443
-15.4264
-15.3307
-15.1537
-14.893
-14.5471
-14.1162
-13.6016
-13.007
-12.3381
-11.603
-10.8124
-9.97947
-9.11944
-8.24887
-7.38477
-6.54337
-5.73906
-4.98345
-4.28484
-3.64823
-3.07557
-2.56633
-2.11811
-1.7272
-1.38911
-1.09892
-0.851626
-0.642328
-0.466359
-0.319384
-0.19743
-0.0968945
-0.0145445
0.0524935
0.106738
0.150357
0.185184
0.212743
0.234279
0.250808
0.263157
0.272005
0.277913
0.281346
0.282692
0.282273
0.280359
0.277178
0.272923
0.267768
0.261867
0.255361
0.248377
0.241025
0.2334
0.225579
0.217618
0.209561
0.201438
0.193269
0.185068
0.176843
0.1686
0.160339
0.152062
0.143764
0.135445
0.1271
0.118723
0.110311
0.101858
0.0933587
0.0848069
0.0761986
0.0675267
0.0587889
0.0499769
0.0410886
0.0321266
0.0230461
0.0139944
0.00449971
-11.2981
-11.3978
-11.528
-11.6929
-11.8955
-12.1354
-12.4088
-12.7092
-13.0277
-13.3543
-13.6782
-13.9886
-14.2749
-14.5274
-14.737
-14.8959
-14.9972
-15.0348
-15.0037
-14.8999
-14.72
-14.4618
-14.1241
-13.7072
-13.2126
-12.6437
-12.0062
-11.3075
-10.5576
-9.76855
-8.95412
-8.12928
-7.30935
-6.509
-5.74133
-5.01709
-4.34421
-3.7277
-3.16987
-2.67077
-2.22866
-1.84053
-1.50255
-1.21041
-0.95961
-0.745683
-0.564324
-0.411488
-0.283429
-0.176727
-0.0882866
-0.0153365
0.0445714
0.0935622
0.133444
0.165729
0.191661
0.21226
0.22836
0.240652
0.249712
0.256023
0.259993
0.261966
0.262228
0.261025
0.258567
0.255039
0.250609
0.245425
0.239627
0.233335
0.226654
0.21967
0.212452
0.205052
0.19751
0.189853
0.182103
0.174275
0.166379
0.158423
0.150411
0.142347
0.13423
0.126061
0.117838
0.109559
0.101221
0.0928214
0.0843567
0.0758236
0.0672184
0.0585365
0.0497792
0.0409284
0.0320236
0.0229466
0.0139994
0.00439278
-11.3281
-11.4276
-11.5538
-11.7094
-11.8963
-12.1142
-12.3598
-12.6278
-12.9106
-13.1996
-13.4855
-13.7585
-14.0092
-14.2288
-14.4088
-14.5419
-14.6216
-14.6421
-14.5986
-14.4872
-14.3048
-14.0494
-13.72
-13.3168
-12.8415
-12.2975
-11.6899
-11.0259
-10.3146
-9.56706
-8.79568
-8.014
-7.23583
-6.47443
-5.74176
-5.04774
-4.3999
-3.80321
-3.26028
-2.77161
-2.33606
-1.95124
-1.61391
-1.32033
-1.0665
-0.848373
-0.661988
-0.50359
-0.369669
-0.256989
-0.162599
-0.0838357
-0.0183286
0.0359964
0.0809177
0.117931
0.148276
0.172972
0.192858
0.208634
0.220889
0.230122
0.236759
0.241163
0.24364
0.244452
0.243825
0.241958
0.239028
0.235197
0.230613
0.225408
0.219695
0.213573
0.207118
0.200395
0.193449
0.18632
0.179034
0.171615
0.164078
0.156436
0.1487
0.140875
0.132968
0.124981
0.116917
0.108776
0.100558
0.0922619
0.0838877
0.0754326
0.0668967
0.0582731
0.0495724
0.040761
0.0319145
0.0228436
0.0139987
0.00428978
-11.3494
-11.447
-11.5678
-11.7134
-11.8851
-12.0823
-12.3024
-12.5407
-12.7908
-13.0454
-13.2961
-13.5345
-13.7522
-13.941
-14.0933
-14.2022
-14.2615
-14.2658
-14.2107
-14.0923
-13.9079
-13.6554
-13.3342
-12.9444
-12.4878
-11.9676
-11.3887
-10.7577
-10.083
-9.37458
-8.64381
-7.90285
-7.16416
-6.43973
-5.74045
-5.07549
-4.45198
-3.87482
-3.34679
-2.8688
-2.44019
-2.05916
-1.723
-1.42849
-1.17211
-0.950195
-0.759153
-0.595506
-0.455979
-0.337523
-0.237339
-0.152877
-0.08185
-0.0222411
0.0276922
0.0694255
0.104189
0.132999
0.156698
0.175992
0.191478
0.203673
0.213016
0.219889
0.224617
0.227478
0.228714
0.228537
0.227137
0.224687
0.221345
0.217251
0.212531
0.207291
0.20162
0.195591
0.18926
0.182672
0.175865
0.168865
0.161698
0.15438
0.146927
0.139351
0.13166
0.123862
0.115961
0.107963
0.0998685
0.0916803
0.0833998
0.0750257
0.0665617
0.0579986
0.0493564
0.0405864
0.0317992
0.0227373
0.0139922
0.00419124
-11.3622
-11.4566
-11.571
-11.7063
-11.8632
-12.041
-12.2374
-12.4485
-12.6686
-12.8915
-13.11
-13.3165
-13.5035
-13.6637
-13.7901
-13.8762
-13.9165
-13.9058
-13.8398
-13.715
-13.5289
-13.2796
-12.9663
-12.5896
-12.151
-11.6536
-11.102
-10.5023
-9.86216
-9.19074
-8.49826
-7.79571
-7.09432
-6.40496
-5.73752
-5.1005
-4.50059
-3.94259
-3.42941
-2.96228
-2.54097
-2.16415
-1.82964
-1.53469
-1.27621
-1.05095
-0.855623
-0.687049
-0.542182
-0.418169
-0.31236
-0.222327
-0.145873
-0.0810431
-0.0261372
0.0202961
0.0594735
0.0924063
0.119936
0.142773
0.161523
0.176711
0.188796
0.198172
0.205183
0.210125
0.213253
0.214795
0.214952
0.213909
0.211832
0.208873
0.205168
0.200832
0.195964
0.190646
0.184945
0.178913
0.172596
0.166029
0.159241
0.152256
0.145095
0.137774
0.130306
0.122702
0.114971
0.10712
0.0991539
0.0910769
0.0828933
0.074603
0.0662134
0.057713
0.0491312
0.0404047
0.0316776
0.0226278
0.0139797
0.00409752
-11.3671
-11.4573
-11.5645
-11.6893
-11.8318
-11.9914
-12.1659
-12.3518
-12.5445
-12.7384
-12.9272
-13.1043
-13.263
-13.3966
-13.4988
-13.5638
-13.5863
-13.5615
-13.4855
-13.355
-13.1674
-12.9213
-12.616
-12.2519
-11.8306
-11.355
-10.8293
-10.2592
-9.65179
-9.01523
-8.35883
-7.6925
-7.02635
-6.37021
-5.73313
-5.1229
-4.54585
-4.00661
-3.50818
-3.05203
-2.63831
-2.26611
-1.93369
-1.63876
-1.37864
-1.15044
-0.951204
-0.778029
-0.628101
-0.498758
-0.387507
-0.292045
-0.210269
-0.140295
-0.0804673
-0.0293649
0.0142119
0.051266
0.0826365
0.109034
0.13107
0.149281
0.164135
0.176044
0.185368
0.192418
0.197466
0.200752
0.202491
0.202878
0.202089
0.200288
0.197617
0.194204
0.190157
0.185567
0.18051
0.175048
0.169233
0.163109
0.15671
0.150068
0.143206
0.136148
0.128909
0.121505
0.113948
0.106249
0.0984146
0.0904523
0.0823687
0.074165
0.0658521
0.0574168
0.0488971
0.0402161
0.0315499
0.0225152
0.0139611
0.00400873
-11.3646
-11.4496
-11.5492
-11.6634
-11.792
-11.9344
-12.0885
-12.2514
-12.4188
-12.5861
-12.7477
-12.8977
-13.0303
-13.1393
-13.2192
-13.2646
-13.2706
-13.2328
-13.1475
-13.0117
-12.8232
-12.5804
-12.2828
-11.9309
-11.5261
-11.0712
-10.5702
-10.0281
-9.45151
-8.8478
-8.22537
-7.59315
-6.96027
-6.33561
-5.72741
-5.14287
-4.58791
-4.067
-3.58316
-3.13806
-2.73216
-2.36492
-2.03502
-1.74054
-1.4792
-1.24847
-1.0457
-0.868258
-0.713553
-0.579118
-0.46262
-0.361883
-0.274904
-0.199873
-0.135187
-0.079457
-0.0315055
0.00965899
0.0448702
0.0748377
0.100177
0.12143
0.139078
0.153545
0.165206
0.174389
0.18138
0.186433
0.189776
0.191614
0.192134
0.191509
0.189891
0.187418
0.184208
0.180361
0.175962
0.171082
0.165781
0.160109
0.154109
0.147817
0.141263
0.134473
0.12747
0.120271
0.112894
0.10535
0.0976515
0.0898072
0.0818266
0.0737122
0.0654783
0.0571102
0.0486544
0.0400208
0.0314161
0.0223998
0.0139367
0.00392483
-11.3551
-11.4345
-11.5261
-11.6297
-11.7449
-11.871
-12.0062
-12.1477
-12.292
-12.4349
-12.5715
-12.6967
-12.8052
-12.8917
-12.951
-12.9782
-12.9689
-12.9191
-12.8254
-12.6849
-12.4956
-12.2562
-11.9662
-11.626
-11.237
-10.8019
-10.3241
-9.80858
-9.26101
-8.68821
-8.09774
-7.49763
-6.89613
-6.30127
-5.72054
-5.16059
-4.62693
-4.12387
-3.65442
-3.22039
-2.8225
-2.46052
-2.13349
-1.83988
-1.57774
-1.34487
-1.13894
-0.957549
-0.798355
-0.659074
-0.537533
-0.431687
-0.339635
-0.259647
-0.190175
-0.129871
-0.0775798
-0.0323255
0.00671757
0.0402561
0.0689066
0.0932161
0.113674
0.130719
0.144738
0.156074
0.165028
0.171868
0.176833
0.180139
0.181986
0.182553
0.182005
0.180488
0.178129
0.175038
0.171309
0.167022
0.162245
0.157036
0.151443
0.145508
0.139268
0.132754
0.125991
0.119003
0.111809
0.104425
0.096866
0.0891428
0.081268
0.0732453
0.0650927
0.0567937
0.0484033
0.0398192
0.0312766
0.0222818
0.0139067
0.00384556
-11.3392
-11.4124
-11.4958
-11.589
-11.6914
-11.8021
-11.9197
-12.0415
-12.1646
-12.2851
-12.3988
-12.5013
-12.5877
-12.6534
-12.6937
-12.7043
-12.6809
-12.6201
-12.5187
-12.3741
-12.1844
-11.9484
-11.6658
-11.3368
-10.9629
-10.5465
-10.0908
-9.60022
-9.07999
-8.53626
-7.97582
-7.40593
-6.83401
-6.26732
-5.71269
-5.17623
-4.66309
-4.17737
-3.72206
-3.29906
-2.9093
-2.55284
-2.22901
-1.93663
-1.67408
-1.43946
-1.23071
-1.04571
-0.882322
-0.738447
-0.612075
-0.501294
-0.404311
-0.319476
-0.245304
-0.180489
-0.123903
-0.0745892
-0.0317321
0.00536945
0.0373312
0.0647034
0.0879831
0.107618
0.12401
0.137515
0.148447
0.157089
0.163691
0.168481
0.171668
0.173442
0.173977
0.173428
0.171932
0.169609
0.166561
0.162878
0.158634
0.153895
0.148716
0.143146
0.137227
0.130993
0.124476
0.117703
0.110696
0.103476
0.0960597
0.0884606
0.0806941
0.0727654
0.0646961
0.0564681
0.0481445
0.0396117
0.0311316
0.0221614
0.0138718
0.00377057
-11.3174
-11.3842
-11.4593
-11.5422
-11.6323
-11.7286
-11.8298
-11.9334
-12.0369
-12.1369
-12.2298
-12.3114
-12.3777
-12.4243
-12.4473
-12.4425
-12.4064
-12.3355
-12.2272
-12.0789
-11.8891
-11.6566
-11.3811
-11.0629
-10.7034
-10.3047
-9.86981
-9.40272
-8.90819
-8.39175
-7.85953