/*--------------------------------*- C++ -*----------------------------------*\
  =========                 |
  \\      /  F ield         | OpenFOAM: The Open Source CFD Toolbox
   \\    /   O peration     | Website:  https://openfoam.org
    \\  /    A nd           | Version:  10
     \\/     M anipulation  |
\*---------------------------------------------------------------------------*/
FoamFile
{
    format      ascii;
    class       volVectorField;
    location    "0.045";
    object      U;
}
// * * * * * * * * * * * * * * * * * * * * * * * * * * * * * * * * * * * * * //

dimensions      [0 1 -1 0 0 0 0];

internalField   nonuniform List<vector> 
6820
(
(7.33663 -0.254713 0)
(7.37115 -0.152758 0)
(7.32913 -0.0594807 0)
(7.2524 -0.0117424 0)
(7.17518 0.00792789 0)
(7.10553 0.013914 0)
(7.04474 0.0143851 0)
(6.99219 0.0129917 0)
(6.94644 0.0112249 0)
(6.90608 0.00963227 0)
(6.87003 0.00835419 0)
(6.83748 0.0073783 0)
(6.8078 0.00664885 0)
(6.78055 0.00610734 0)
(6.75536 0.00570522 0)
(6.73194 0.00540619 0)
(6.71007 0.0051847 0)
(6.68955 0.00502379 0)
(6.67019 0.00491338 0)
(6.65184 0.00484896 0)
(6.63433 0.0048308 0)
(6.6175 0.00486394 0)
(6.60116 0.00495879 0)
(6.58512 0.00513297 0)
(6.56912 0.00541381 0)
(6.55287 0.00584674 0)
(6.5359 0.00650874 0)
(6.51773 0.00749244 0)
(6.49702 0.0093108 0)
(6.47325 0.0111471 0)
(6.44105 0.0197116 0)
(6.39707 0.0210943 0)
(6.33425 0.0346711 0)
(7.32387 0.12138 0)
(7.30441 0.123253 0)
(7.30899 0.0779162 0)
(7.32925 0.0527182 0)
(7.34738 0.0391009 0)
(7.35552 0.0312754 0)
(7.35464 0.0268003 0)
(7.34766 0.0240298 0)
(7.33687 0.0221069 0)
(7.32384 0.020641 0)
(7.30963 0.0194375 0)
(7.2949 0.0183971 0)
(7.28005 0.0174706 0)
(7.26533 0.0166332 0)
(7.25089 0.0158721 0)
(7.23678 0.0151807 0)
(7.22307 0.0145561 0)
(7.20975 0.013998 0)
(7.19682 0.0135086 0)
(7.18426 0.0130929 0)
(7.17206 0.0127593 0)
(7.16017 0.0125205 0)
(7.14854 0.0123956 0)
(7.13712 0.0124134 0)
(7.12585 0.0126149 0)
(7.11464 0.0130713 0)
(7.10344 0.0138679 0)
(7.09204 0.0152474 0)
(7.08086 0.0173281 0)
(7.06863 0.0212313 0)
(7.06004 0.0269623 0)
(7.04887 0.0390387 0)
(7.05977 0.0605089 0)
(7.32565 -0.0437997 0)
(7.32326 -0.0517594 0)
(7.33522 -0.0262443 0)
(7.34313 -0.00279082 0)
(7.34813 0.0103276 0)
(7.35242 0.016746 0)
(7.35555 0.0197834 0)
(7.35724 0.0210344 0)
(7.35746 0.0213413 0)
(7.35636 0.0211781 0)
(7.35415 0.0207925 0)
(7.35107 0.0203126 0)
(7.34731 0.0198058 0)
(7.34305 0.0193073 0)
(7.33841 0.018835 0)
(7.33348 0.0183988 0)
(7.32835 0.0180054 0)
(7.32307 0.0176608 0)
(7.31767 0.0173724 0)
(7.31216 0.0171499 0)
(7.30657 0.0170066 0)
(7.30086 0.016961 0)
(7.29502 0.0170389 0)
(7.28901 0.0172765 0)
(7.28276 0.0177255 0)
(7.27619 0.018458 0)
(7.26919 0.0195928 0)
(7.26159 0.0212554 0)
(7.25337 0.0238365 0)
(7.244 0.0272324 0)
(7.23436 0.0333356 0)
(7.22273 0.0391646 0)
(7.2129 0.0517483 0)
(7.33338 0.011776 0)
(7.33037 0.0328739 0)
(7.32961 0.0332818 0)
(7.33268 0.0275386 0)
(7.33818 0.0241132 0)
(7.34382 0.0225985 0)
(7.34858 0.0219963 0)
(7.35241 0.021727 0)
(7.3554 0.0215346 0)
(7.35763 0.0213383 0)
(7.35917 0.0211139 0)
(7.36013 0.0208573 0)
(7.36058 0.0205747 0)
(7.36061 0.0202763 0)
(7.36026 0.0199734 0)
(7.35961 0.0196775 0)
(7.3587 0.0194007 0)
(7.35755 0.0191563 0)
(7.35619 0.018959 0)
(7.35463 0.0188264 0)
(7.35287 0.0187802 0)
(7.3509 0.0188484 0)
(7.34871 0.0190673 0)
(7.34625 0.019486 0)
(7.34349 0.0201718 0)
(7.34034 0.021217 0)
(7.33676 0.0227576 0)
(7.3326 0.0249702 0)
(7.32787 0.0281719 0)
(7.32232 0.0326154 0)
(7.31643 0.0392248 0)
(7.30972 0.0477109 0)
(7.30394 0.0609943 0)
(7.33122 -0.00353714 0)
(7.33005 -0.00437304 0)
(7.33365 0.00117639 0)
(7.3373 0.00858633 0)
(7.34068 0.0139104 0)
(7.34407 0.0168697 0)
(7.34737 0.0184579 0)
(7.35052 0.0193191 0)
(7.35347 0.0197589 0)
(7.35614 0.0199495 0)
(7.35852 0.019988 0)
(7.36062 0.0199302 0)
(7.36245 0.0198119 0)
(7.36403 0.0196583 0)
(7.36537 0.0194888 0)
(7.3665 0.0193193 0)
(7.36743 0.0191652 0)
(7.36817 0.0190421 0)
(7.36873 0.0189678 0)
(7.36911 0.0189631 0)
(7.3693 0.0190539 0)
(7.36929 0.0192729 0)
(7.36907 0.0196627 0)
(7.3686 0.0202789 0)
(7.36785 0.0211966 0)
(7.36677 0.0225149 0)
(7.36532 0.0243757 0)
(7.36345 0.0269508 0)
(7.36116 0.0305322 0)
(7.3584 0.0353399 0)
(7.35545 0.0420437 0)
(7.35229 0.050511 0)
(7.34978 0.0622164 0)
(7.33264 0.00206155 0)
(7.33225 0.00984808 0)
(7.33398 0.0140028 0)
(7.33655 0.0158235 0)
(7.33963 0.016875 0)
(7.34293 0.0175906 0)
(7.34612 0.0181375 0)
(7.34913 0.0185357 0)
(7.35198 0.0187847 0)
(7.35467 0.0189149 0)
(7.3572 0.0189582 0)
(7.35959 0.0189377 0)
(7.36183 0.0188723 0)
(7.36394 0.0187782 0)
(7.36591 0.0186702 0)
(7.36776 0.0185626 0)
(7.36947 0.0184707 0)
(7.37106 0.0184111 0)
(7.37252 0.0184037 0)
(7.37385 0.018472 0)
(7.37503 0.0186452 0)
(7.37606 0.0189598 0)
(7.37691 0.0194629 0)
(7.37757 0.0202147 0)
(7.37801 0.0212946 0)
(7.37822 0.0228051 0)
(7.37816 0.0248849 0)
(7.37784 0.0277024 0)
(7.37729 0.0315062 0)
(7.37656 0.0365212 0)
(7.37589 0.0432 0)
(7.37546 0.0516315 0)
(7.37582 0.0625813 0)
(7.33258 0.000806681 0)
(7.33244 0.00444057 0)
(7.33433 0.00793882 0)
(7.33699 0.0110828 0)
(7.33987 0.0136046 0)
(7.34281 0.0153092 0)
(7.34565 0.0163873 0)
(7.34839 0.0170543 0)
(7.35104 0.0174464 0)
(7.3536 0.0176582 0)
(7.35607 0.0177521 0)
(7.35847 0.0177667 0)
(7.36079 0.0177292 0)
(7.36304 0.0176601 0)
(7.36523 0.0175769 0)
(7.36734 0.0174957 0)
(7.36938 0.017433 0)
(7.37135 0.0174071 0)
(7.37324 0.0174388 0)
(7.37503 0.0175536 0)
(7.37673 0.0177824 0)
(7.37833 0.0181639 0)
(7.37981 0.0187467 0)
(7.38115 0.0195928 0)
(7.38236 0.0207812 0)
(7.38341 0.0224115 0)
(7.38433 0.024613 0)
(7.38514 0.0275392 0)
(7.3859 0.031396 0)
(7.38671 0.0363807 0)
(7.38781 0.0428018 0)
(7.38943 0.050789 0)
(7.39201 0.0607177 0)
(7.33284 0.00130868 0)
(7.33303 0.00527371 0)
(7.33463 0.00876513 0)
(7.33692 0.0113823 0)
(7.33949 0.0132801 0)
(7.34222 0.0145607 0)
(7.34493 0.0154103 0)
(7.34757 0.01597 0)
(7.35013 0.0163171 0)
(7.35261 0.0165105 0)
(7.35503 0.0165957 0)
(7.3574 0.0166055 0)
(7.35972 0.0165647 0)
(7.362 0.0164934 0)
(7.36425 0.0164092 0)
(7.36646 0.0163286 0)
(7.36863 0.016269 0)
(7.37076 0.0162493 0)
(7.37286 0.0162916 0)
(7.3749 0.016422 0)
(7.37689 0.0166726 0)
(7.37882 0.0170826 0)
(7.38068 0.0177008 0)
(7.38248 0.0185881 0)
(7.38421 0.01982 0)
(7.3859 0.0214896 0)
(7.38755 0.023712 0)
(7.38923 0.0266212 0)
(7.39103 0.0303824 0)
(7.39307 0.0351566 0)
(7.39556 0.0411511 0)
(7.39879 0.0484803 0)
(7.40309 0.0573136 0)
(7.33291 0.00130233 0)
(7.33322 0.0045795 0)
(7.33466 0.00754553 0)
(7.33676 0.00993204 0)
(7.33915 0.0118055 0)
(7.3417 0.0131642 0)
(7.34426 0.014097 0)
(7.34679 0.014714 0)
(7.34926 0.0150961 0)
(7.35167 0.0153078 0)
(7.35404 0.0153996 0)
(7.35637 0.0154079 0)
(7.35867 0.0153599 0)
(7.36095 0.0152777 0)
(7.36321 0.0151805 0)
(7.36546 0.0150862 0)
(7.36769 0.015013 0)
(7.3699 0.014981 0)
(7.3721 0.0150127 0)
(7.37429 0.0151349 0)
(7.37646 0.0153796 0)
(7.37861 0.0157854 0)
(7.38074 0.0163996 0)
(7.38287 0.0172797 0)
(7.38501 0.0184952 0)
(7.38718 0.0201291 0)
(7.38943 0.0222805 0)
(7.39182 0.0250601 0)
(7.39445 0.0285954 0)
(7.39748 0.0330078 0)
(7.4011 0.03843 0)
(7.40558 0.0449379 0)
(7.41119 0.0525828 0)
(7.33297 0.00127464 0)
(7.33337 0.00421127 0)
(7.33467 0.00692367 0)
(7.33656 0.00913215 0)
(7.33875 0.0108556 0)
(7.34112 0.0121117 0)
(7.34354 0.0129815 0)
(7.34596 0.0135619 0)
(7.34835 0.0139241 0)
(7.35071 0.0141231 0)
(7.35304 0.0142031 0)
(7.35534 0.0141975 0)
(7.35763 0.0141328 0)
(7.3599 0.0140311 0)
(7.36216 0.0139118 0)
(7.36443 0.0137934 0)
(7.36669 0.0136946 0)
(7.36896 0.0136358 0)
(7.37123 0.0136396 0)
(7.37352 0.0137326 0)
(7.37582 0.0139459 0)
(7.37813 0.0143165 0)
(7.38048 0.0148884 0)
(7.38288 0.0157142 0)
(7.38535 0.0168554 0)
(7.38792 0.0183833 0)
(7.39066 0.0203791 0)
(7.39364 0.0229301 0)
(7.39697 0.0261293 0)
(7.4008 0.0300608 0)
(7.40531 0.0348007 0)
(7.41076 0.0403843 0)
(7.41734 0.0467938 0)
(7.333 0.00120848 0)
(7.33343 0.00381439 0)
(7.33461 0.00622361 0)
(7.33633 0.00821498 0)
(7.33835 0.00979332 0)
(7.34055 0.010974 0)
(7.34284 0.0118104 0)
(7.34516 0.0123748 0)
(7.34747 0.012727 0)
(7.34977 0.0129161 0)
(7.35205 0.0129832 0)
(7.35432 0.0129609 0)
(7.35659 0.0128753 0)
(7.35885 0.0127487 0)
(7.36112 0.0126008 0)
(7.36339 0.0124502 0)
(7.36568 0.0123159 0)
(7.36799 0.012218 0)
(7.37033 0.0121789 0)
(7.37269 0.0122239 0)
(7.3751 0.0123826 0)
(7.37756 0.0126891 0)
(7.38009 0.0131834 0)
(7.38272 0.0139115 0)
(7.38547 0.0149257 0)
(7.38839 0.0162846 0)
(7.39154 0.0180514 0)
(7.39502 0.0202907 0)
(7.39892 0.0230653 0)
(7.4034 0.026426 0)
(7.4086 0.0304064 0)
(7.41476 0.0350065 0)
(7.42204 0.0401678 0)
(7.33302 0.00112042 0)
(7.33345 0.0034418 0)
(7.33454 0.005591 0)
(7.3361 0.00739267 0)
(7.33796 0.00883331 0)
(7.34002 0.00992298 0)
(7.34218 0.0107008 0)
(7.34439 0.0112248 0)
(7.34662 0.0115471 0)
(7.34885 0.0117112 0)
(7.35109 0.0117542 0)
(7.35333 0.0117062 0)
(7.35557 0.0115922 0)
(7.35782 0.0114336 0)
(7.36008 0.0112495 0)
(7.36237 0.0110585 0)
(7.36468 0.0108789 0)
(7.36702 0.0107302 0)
(7.36941 0.0106336 0)
(7.37185 0.0106129 0)
(7.37435 0.0106951 0)
(7.37694 0.0109106 0)
(7.37963 0.0112943 0)
(7.38246 0.0118848 0)
(7.38545 0.0127248 0)
(7.38867 0.0138596 0)
(7.39218 0.0153355 0)
(7.39607 0.0171961 0)
(7.40043 0.0194785 0)
(7.4054 0.0222056 0)
(7.41112 0.0253795 0)
(7.41778 0.0289727 0)
(7.42551 0.0329047 0)
(7.33303 0.00102186 0)
(7.33345 0.00308541 0)
(7.33445 0.00499148 0)
(7.33588 0.00660408 0)
(7.3376 0.00790203 0)
(7.33951 0.00889222 0)
(7.34155 0.0096033 0)
(7.34366 0.0100802 0)
(7.34581 0.0103662 0)
(7.34798 0.0104991 0)
(7.35016 0.0105117 0)
(7.35236 0.0104318 0)
(7.35458 0.010283 0)
(7.35681 0.0100856 0)
(7.35907 0.00985825 0)
(7.36136 0.00961847 0)
(7.36369 0.00938387 0)
(7.36606 0.00917271 0)
(7.3685 0.0090046 0)
(7.371 0.00890104 0)
(7.37359 0.00888579 0)
(7.37629 0.00898516 0)
(7.37912 0.00922801 0)
(7.38212 0.00964545 0)
(7.38533 0.0102701 0)
(7.38879 0.0111347 0)
(7.39259 0.0122698 0)
(7.3968 0.0137008 0)
(7.40151 0.0154434 0)
(7.40685 0.0174983 0)
(7.41293 0.0198448 0)
(7.41991 0.0224365 0)
(7.42789 0.0251823 0)
(7.33303 0.000919175 0)
(7.33344 0.00274525 0)
(7.33436 0.00442657 0)
(7.33567 0.00585835 0)
(7.33726 0.00701586 0)
(7.33905 0.00790202 0)
(7.34098 0.00853742 0)
(7.34299 0.00895682 0)
(7.34505 0.00919616 0)
(7.34716 0.00928809 0)
(7.34929 0.0092617 0)
(7.35145 0.00914217 0)
(7.35363 0.00895116 0)
(7.35584 0.00870772 0)
(7.35809 0.00842922 0)
(7.36038 0.00813212 0)
(7.36272 0.00783268 0)
(7.36512 0.00754753 0)
(7.36759 0.0072942 0)
(7.37015 0.00709139 0)
(7.37281 0.00695927 0)
(7.3756 0.0069194 0)
(7.37855 0.00699455 0)
(7.38169 0.0072081 0)
(7.38507 0.00758303 0)
(7.38874 0.00814036 0)
(7.39275 0.00889696 0)
(7.3972 0.00986252 0)
(7.40217 0.0110359 0)
(7.40774 0.0124012 0)
(7.41404 0.0139219 0)
(7.42118 0.0155396 0)
(7.42923 0.0171608 0)
(7.33303 0.000816192 0)
(7.33342 0.00242042 0)
(7.33426 0.00389159 0)
(7.33548 0.00514833 0)
(7.33696 0.00616544 0)
(7.33863 0.00694271 0)
(7.34045 0.00749485 0)
(7.34237 0.00784858 0)
(7.34435 0.00803331 0)
(7.34639 0.00807676 0)
(7.34847 0.00800426 0)
(7.35058 0.0078382 0)
(7.35273 0.0075982 0)
(7.35491 0.00730167 0)
(7.35715 0.00696454 0)
(7.35943 0.00660177 0)
(7.36177 0.00622797 0)
(7.36419 0.00585781 0)
(7.36668 0.00550633 0)
(7.36928 0.00518915 0)
(7.372 0.00492251 0)
(7.37487 0.00472305 0)
(7.37791 0.00460744 0)
(7.38116 0.00459161 0)
(7.38467 0.0046896 0)
(7.38848 0.00491206 0)
(7.39265 0.0052641 0)
(7.39726 0.00574283 0)
(7.40238 0.00633426 0)
(7.40808 0.00701032 0)
(7.41446 0.00772491 0)
(7.42162 0.00841336 0)
(7.42959 0.00898482 0)
(7.33303 0.000715032 0)
(7.33339 0.00211007 0)
(7.33418 0.00338341 0)
(7.3353 0.004471 0)
(7.33668 0.00534884 0)
(7.33825 0.00601418 0)
(7.33997 0.00647718 0)
(7.3418 0.00675809 0)
(7.34371 0.00688067 0)
(7.34567 0.0068682 0)
(7.34769 0.0067424 0)
(7.34976 0.00652289 0)
(7.35187 0.00622708 0)
(7.35403 0.00587054 0)
(7.35624 0.00546743 0)
(7.35851 0.00503098 0)
(7.36085 0.00457384 0)
(7.36326 0.00410843 0)
(7.36578 0.00364706 0)
(7.3684 0.00320207 0)
(7.37116 0.00278563 0)
(7.37408 0.0024095 0)
(7.37718 0.00208449 0)
(7.38051 0.00181958 0)
(7.3841 0.00162089 0)
(7.388 0.00149015 0)
(7.39226 0.0014229 0)
(7.39695 0.00140646 0)
(7.40213 0.00141754 0)
(7.40786 0.0014202 0)
(7.41421 0.00136306 0)
(7.42126 0.0011796 0)
(7.42902 0.000785027 0)
(7.33303 0.000616773 0)
(7.33337 0.00181326 0)
(7.3341 0.0028991 0)
(7.33514 0.00382288 0)
(7.33642 0.00456255 0)
(7.3379 0.00511351 0)
(7.33953 0.00548235 0)
(7.34128 0.00568424 0)
(7.34311 0.00573805 0)
(7.34501 0.005663 0)
(7.34697 0.00547744 0)
(7.34899 0.00519817 0)
(7.35105 0.00484028 0)
(7.35318 0.00441731 0)
(7.35536 0.00394147 0)
(7.35761 0.00342402 0)
(7.35993 0.00287547 0)
(7.36235 0.00230577 0)
(7.36486 0.0017244 0)
(7.3675 0.0011403 0)
(7.37027 0.00056165 0)
(7.37322 -4.47834e-06 0)
(7.37635 -0.000552731 0)
(7.37971 -0.00108028 0)
(7.38334 -0.00158787 0)
(7.38727 -0.00208108 0)
(7.39156 -0.00257184 0)
(7.39626 -0.00308002 0)
(7.40141 -0.00363512 0)
(7.40707 -0.00427759 0)
(7.41329 -0.00506062 0)
(7.42012 -0.00604942 0)
(7.42758 -0.00732077 0)
(7.33303 0.00052187 0)
(7.33335 0.00152899 0)
(7.33402 0.00243609 0)
(7.33499 0.00320103 0)
(7.3362 0.00380386 0)
(7.33759 0.00423877 0)
(7.33913 0.00450952 0)
(7.3408 0.00462719 0)
(7.34255 0.00460648 0)
(7.34439 0.00446296 0)
(7.34629 0.00421175 0)
(7.34825 0.00386695 0)
(7.35028 0.00344126 0)
(7.35236 0.00294604 0)
(7.35451 0.00239146 0)
(7.35673 0.00178662 0)
(7.35903 0.00113977 0)
(7.36143 0.000458295 0)
(7.36393 -0.000251219 0)
(7.36656 -0.000983169 0)
(7.36933 -0.00173318 0)
(7.37227 -0.00249854 0)
(7.3754 -0.00327874 0)
(7.37876 -0.00407628 0)
(7.38238 -0.00489754 0)
(7.38629 -0.00575388 0)
(7.39054 -0.00666275 0)
(7.39517 -0.00764887 0)
(7.40022 -0.00874542 0)
(7.40572 -0.00999466 0)
(7.41172 -0.0114491 0)
(7.41825 -0.0131703 0)
(7.42532 -0.0152263 0)
(7.33303 0.000430421 0)
(7.33332 0.00125628 0)
(7.33396 0.00199215 0)
(7.33486 0.00260277 0)
(7.33599 0.00307025 0)
(7.3373 0.00338798 0)
(7.33877 0.00355749 0)
(7.34036 0.00358659 0)
(7.34204 0.00348642 0)
(7.34381 0.00326925 0)
(7.34565 0.00294724 0)
(7.34756 0.00253183 0)
(7.34954 0.00203333 0)
(7.35157 0.00146089 0)
(7.35368 0.000822503 0)
(7.35586 0.000125068 0)
(7.35813 -0.00062553 0)
(7.36049 -0.00142445 0)
(7.36297 -0.00226795 0)
(7.36556 -0.00315361 0)
(7.36831 -0.00408058 0)
(7.37121 -0.00505002 0)
(7.37431 -0.00606563 0)
(7.37763 -0.00713431 0)
(7.3812 -0.00826692 0)
(7.38504 -0.00947905 0)
(7.38919 -0.010792 0)
(7.39369 -0.0122333 0)
(7.39856 -0.0138378 0)
(7.40384 -0.0156475 0)
(7.40954 -0.0177123 0)
(7.4157 -0.0200891 0)
(7.4223 -0.0228365 0)
(7.33302 0.000342326 0)
(7.3333 0.000994137 0)
(7.33389 0.00156531 0)
(7.33474 0.00202579 0)
(7.3358 0.00235953 0)
(7.33705 0.00255947 0)
(7.33844 0.00262544 0)
(7.33995 0.00256254 0)
(7.34157 0.00237894 0)
(7.34327 0.00208392 0)
(7.34505 0.00168691 0)
(7.3469 0.00119678 0)
(7.34882 0.000621506 0)
(7.35081 -3.20182e-05 0)
(7.35287 -0.000757996 0)
(7.355 -0.00155175 0)
(7.35722 -0.00240974 0)
(7.35954 -0.00332961 0)
(7.36197 -0.00431033 0)
(7.36451 -0.00535241 0)
(7.3672 -0.00645815 0)
(7.37005 -0.00763208 0)
(7.37308 -0.00888136 0)
(7.37632 -0.0102164 0)
(7.37979 -0.0116513 0)
(7.38351 -0.0132047 0)
(7.38751 -0.0149001 0)
(7.39182 -0.0167664 0)
(7.39646 -0.0188383 0)
(7.40144 -0.0211561 0)
(7.40679 -0.0237661 0)
(7.41251 -0.0267194 0)
(7.4186 -0.0300654 0)
(7.33302 0.000257391 0)
(7.33328 0.000741643 0)
(7.33384 0.00115387 0)
(7.33464 0.00146801 0)
(7.33564 0.00166965 0)
(7.33681 0.00175154 0)
(7.33813 0.00171217 0)
(7.33958 0.00155448 0)
(7.34113 0.00128408 0)
(7.34277 0.000907652 0)
(7.34448 0.000432097 0)
(7.34627 -0.000136115 0)
(7.34813 -0.000791299 0)
(7.35006 -0.00152875 0)
(7.35206 -0.00234485 0)
(7.35414 -0.0032371 0)
(7.3563 -0.00420424 0)
(7.35856 -0.00524627 0)
(7.36092 -0.00636468 0)
(7.3634 -0.00756258 0)
(7.36601 -0.00884503 0)
(7.36877 -0.0102193 0)
(7.3717 -0.0116954 0)
(7.37482 -0.0132862 0)
(7.37815 -0.0150083 0)
(7.3817 -0.0168819 0)
(7.38551 -0.0189315 0)
(7.38957 -0.0211862 0)
(7.39392 -0.0236792 0)
(7.39856 -0.0264484 0)
(7.4035 -0.0295354 0)
(7.40875 -0.0329852 0)
(7.41427 -0.0368389 0)
(7.33302 0.000175389 0)
(7.33327 0.000497958 0)
(7.33379 0.000756386 0)
(7.33454 0.000927814 0)
(7.33548 0.00099928 0)
(7.33659 0.000963528 0)
(7.33785 0.000818074 0)
(7.33923 0.000564122 0)
(7.34071 0.000205045 0)
(7.34229 -0.000254774 0)
(7.34394 -0.000810781 0)
(7.34567 -0.00145878 0)
(7.34747 -0.00219529 0)
(7.34933 -0.00301773 0)
(7.35127 -0.00392459 0)
(7.35328 -0.00491547 0)
(7.35537 -0.00599123 0)
(7.35755 -0.00715408 0)
(7.35982 -0.00840771 0)
(7.36221 -0.00975752 0)
(7.36472 -0.0112108 0)
(7.36737 -0.0127771 0)
(7.37017 -0.0144684 0)
(7.37314 -0.0162995 0)
(7.37629 -0.0182881 0)
(7.37963 -0.0204554 0)
(7.38319 -0.0228259 0)
(7.38698 -0.0254276 0)
(7.39099 -0.0282917 0)
(7.39524 -0.0314526 0)
(7.39973 -0.0349471 0)
(7.40446 -0.0388143 0)
(7.4094 -0.0430873 0)
(7.33302 9.60851e-05 0)
(7.33325 0.000262284 0)
(7.33374 0.000371436 0)
(7.33445 0.000403196 0)
(7.33534 0.000345821 0)
(7.3364 0.000192314 0)
(7.33759 -6.05321e-05 0)
(7.33891 -0.000412848 0)
(7.34033 -0.000863012 0)
(7.34184 -0.00140861 0)
(7.34343 -0.00204716 0)
(7.34509 -0.00277654 0)
(7.34681 -0.00359531 0)
(7.34861 -0.00450293 0)
(7.35047 -0.00549988 0)
(7.3524 -0.00658776 0)
(7.35441 -0.0077694 0)
(7.3565 -0.00904898 0)
(7.35868 -0.0104322 0)
(7.36095 -0.0119263 0)
(7.36334 -0.0135404 0)
(7.36585 -0.0152858 0)
(7.36849 -0.0171758 0)
(7.37127 -0.0192263 0)
(7.37421 -0.0214556 0)
(7.37731 -0.0238849 0)
(7.38059 -0.0265379 0)
(7.38405 -0.0294408 0)
(7.38769 -0.0326224 0)
(7.39152 -0.0361131 0)
(7.39553 -0.0399449 0)
(7.39971 -0.0441511 0)
(7.40405 -0.0487576 0)
(7.33302 1.92884e-05 0)
(7.33324 3.4151e-05 0)
(7.3337 -1.40418e-06 0)
(7.33437 -0.000105491 0)
(7.33521 -0.000288576 0)
(7.33621 -0.0005573 0)
(7.33735 -0.000915396 0)
(7.33861 -0.00136423 0)
(7.33996 -0.00190379 0)
(7.34141 -0.00253357 0)
(7.34293 -0.00325303 0)
(7.34452 -0.00406202 0)
(7.34618 -0.00496102 0)
(7.3479 -0.00595137 0)
(7.34968 -0.00703535 0)
(7.35152 -0.00821637 0)
(7.35343 -0.00949897 0)
(7.35541 -0.010889 0)
(7.35748 -0.0123938 0)
(7.35962 -0.0140221 0)
(7.36186 -0.0157844 0)
(7.36421 -0.017693 0)
(7.36666 -0.0197622 0)
(7.36923 -0.0220081 0)
(7.37193 -0.0244493 0)
(7.37476 -0.027106 0)
(7.37772 -0.0300006 0)
(7.38083 -0.0331573 0)
(7.38407 -0.0366017 0)
(7.38745 -0.0403604 0)
(7.39096 -0.0444607 0)
(7.39459 -0.0489304 0)
(7.39831 -0.0537892 0)
(7.33302 -5.52175e-05 0)
(7.33322 -0.000187537 0)
(7.33366 -0.000365103 0)
(7.33429 -0.000604523 0)
(7.33509 -0.000915027 0)
(7.33604 -0.0013025 0)
(7.33713 -0.00177038 0)
(7.33833 -0.00232041 0)
(7.33962 -0.00295356 0)
(7.341 -0.00367066 0)
(7.34246 -0.0044728 0)
(7.34398 -0.00536159 0)
(7.34556 -0.00633935 0)
(7.34719 -0.00740925 0)
(7.34888 -0.00857536 0)
(7.35063 -0.00984279 0)
(7.35243 -0.0112177 0)
(7.3543 -0.0127075 0)
(7.35623 -0.0143209 0)
(7.35823 -0.0160678 0)
(7.3603 -0.0179597 0)
(7.36246 -0.0200097 0)
(7.3647 -0.0222323 0)
(7.36704 -0.0246437 0)
(7.36947 -0.0272618 0)
(7.372 -0.0301059 0)
(7.37463 -0.0331964 0)
(7.37736 -0.0365552 0)
(7.38018 -0.0402048 0)
(7.38309 -0.044168 0)
(7.38608 -0.0484675 0)
(7.38914 -0.053126 0)
(7.39224 -0.0581579 0)
(7.33302 -0.000127297 0)
(7.33321 -0.000400941 0)
(7.33362 -0.000713189 0)
(7.33422 -0.00107877 0)
(7.33497 -0.00150582 0)
(7.33588 -0.00200009 0)
(7.33691 -0.00256581 0)
(7.33805 -0.00320594 0)
(7.33929 -0.00392289 0)
(7.34061 -0.00471899 0)
(7.342 -0.00559683 0)
(7.34345 -0.00655952 0)
(7.34495 -0.0076108 0)
(7.3465 -0.00875523 0)
(7.34809 -0.00999822 0)
(7.34973 -0.0113461 0)
(7.35142 -0.0128063 0)
(7.35315 -0.0143872 0)
(7.35494 -0.0160984 0)
(7.35678 -0.0179507 0)
(7.35867 -0.0199559 0)
(7.36062 -0.0221275 0)
(7.36264 -0.0244799 0)
(7.36471 -0.0270288 0)
(7.36686 -0.0297911 0)
(7.36907 -0.0327845 0)
(7.37134 -0.0360278 0)
(7.37368 -0.0395401 0)
(7.37606 -0.0433408 0)
(7.3785 -0.047449 0)
(7.38097 -0.0518834 0)
(7.38346 -0.0566623 0)
(7.38595 -0.0617953 0)
(7.33302 -0.000197878 0)
(7.3332 -0.000613588 0)
(7.33359 -0.00106851 0)
(7.33416 -0.00157614 0)
(7.33488 -0.00214112 0)
(7.33574 -0.00276547 0)
(7.33673 -0.00345078 0)
(7.33782 -0.00419886 0)
(7.339 -0.00501232 0)
(7.34025 -0.00589461 0)
(7.34157 -0.00685001 0)
(7.34294 -0.00788358 0)
(7.34436 -0.00900107 0)
(7.34581 -0.010209 0)
(7.3473 -0.0115145 0)
(7.34883 -0.0129256 0)
(7.35039 -0.0144511 0)
(7.35198 -0.0161006 0)
(7.35361 -0.0178845 0)
(7.35527 -0.0198143 0)
(7.35697 -0.0219022 0)
(7.3587 -0.0241617 0)
(7.36047 -0.0266067 0)
(7.36228 -0.0292523 0)
(7.36412 -0.0321141 0)
(7.366 -0.0352084 0)
(7.3679 -0.0385516 0)
(7.36983 -0.0421603 0)
(7.37177 -0.046051 0)
(7.37373 -0.0502395 0)
(7.37567 -0.0547405 0)
(7.3776 -0.0595685 0)
(7.37949 -0.0647291 0)
(7.33301 -0.000263402 0)
(7.33318 -0.000800051 0)
(7.33354 -0.00136186 0)
(7.33406 -0.00196364 0)
(7.33475 -0.00261319 0)
(7.33557 -0.00331609 0)
(7.33651 -0.00407652 0)
(7.33756 -0.00489767 0)
(7.33869 -0.00578268 0)
(7.33989 -0.0067352 0)
(7.34115 -0.0077596 0)
(7.34245 -0.00886107 0)
(7.34378 -0.0100456 0)
(7.34515 -0.0113201 0)
(7.34654 -0.012692 0)
(7.34795 -0.0141699 0)
(7.34938 -0.0157629 0)
(7.35082 -0.017481 0)
(7.35228 -0.0193349 0)
(7.35376 -0.0213362 0)
(7.35525 -0.023497 0)
(7.35675 -0.0258302 0)
(7.35826 -0.0283493 0)
(7.35978 -0.0310684 0)
(7.36131 -0.0340017 0)
(7.36285 -0.0371637 0)
(7.36437 -0.0405689 0)
(7.36589 -0.0442315 0)
(7.36739 -0.0481652 0)
(7.36886 -0.0523826 0)
(7.37029 -0.0568956 0)
(7.37167 -0.061715 0)
(7.37298 -0.0668435 0)
(7.33302 -0.000336298 0)
(7.33319 -0.00104061 0)
(7.33355 -0.0017949 0)
(7.33406 -0.00260055 0)
(7.33471 -0.00344663 0)
(7.33549 -0.00432508 0)
(7.33639 -0.0052338 0)
(7.33738 -0.00617516 0)
(7.33845 -0.00715462 0)
(7.33958 -0.00817959 0)
(7.34076 -0.00925862 0)
(7.34198 -0.0104009 0)
(7.34322 -0.0116161 0)
(7.34449 -0.012914 0)
(7.34576 -0.0143047 0)
(7.34705 -0.0157986 0)
(7.34833 -0.0174064 0)
(7.34962 -0.0191389 0)
(7.35091 -0.0210076 0)
(7.35219 -0.0230242 0)
(7.35346 -0.0252008 0)
(7.35473 -0.0275497 0)
(7.35598 -0.0300836 0)
(7.35721 -0.0328154 0)
(7.35843 -0.0357579 0)
(7.35961 -0.0389237 0)
(7.36076 -0.0423253 0)
(7.36187 -0.0459744 0)
(7.36293 -0.0498821 0)
(7.36393 -0.0540584 0)
(7.36486 -0.0585121 0)
(7.3657 -0.063251 0)
(7.36644 -0.0682754 0)
(7.333 -0.000369182 0)
(7.3331 -0.00108243 0)
(7.33338 -0.00180388 0)
(7.33383 -0.00257011 0)
(7.33446 -0.00339534 0)
(7.33523 -0.00428185 0)
(7.33612 -0.0052269 0)
(7.3371 -0.00622719 0)
(7.33815 -0.00728137 0)
(7.33926 -0.00839065 0)
(7.3404 -0.00955849 0)
(7.34157 -0.0107903 0)
(7.34274 -0.0120928 0)
(7.34392 -0.0134742 0)
(7.34509 -0.0149433 0)
(7.34626 -0.01651 0)
(7.34741 -0.0181844 0)
(7.34854 -0.0199773 0)
(7.34964 -0.0218998 0)
(7.35073 -0.0239636 0)
(7.35178 -0.0261802 0)
(7.3528 -0.0285616 0)
(7.35378 -0.0311198 0)
(7.35472 -0.0338664 0)
(7.35561 -0.0368132 0)
(7.35644 -0.0399714 0)
(7.35722 -0.0433517 0)
(7.35792 -0.0469641 0)
(7.35854 -0.0508175 0)
(7.35908 -0.0549198 0)
(7.35952 -0.0592777 0)
(7.35984 -0.0638968 0)
(7.36005 -0.0687756 0)
(7.33305 -0.000519201 0)
(7.33327 -0.00164405 0)
(7.3336 -0.00284944 0)
(7.33405 -0.00407559 0)
(7.33461 -0.00527379 0)
(7.3353 -0.00642915 0)
(7.33609 -0.00754715 0)
(7.33698 -0.00864154 0)
(7.33794 -0.00972908 0)
(7.33895 -0.0108272 0)
(7.34 -0.0119526 0)
(7.34107 -0.0131212 0)
(7.34215 -0.0143478 0)
(7.34322 -0.0156459 0)
(7.34428 -0.0170283 0)
(7.34532 -0.0185073 0)
(7.34632 -0.0200944 0)
(7.3473 -0.0218012 0)
(7.34823 -0.0236388 0)
(7.34912 -0.0256183 0)
(7.34996 -0.0277504 0)
(7.35074 -0.030046 0)
(7.35146 -0.0325155 0)
(7.35211 -0.0351692 0)
(7.35269 -0.0380169 0)
(7.35319 -0.0410678 0)
(7.35361 -0.0443305 0)
(7.35392 -0.0478127 0)
(7.35413 -0.0515213 0)
(7.35423 -0.0554618 0)
(7.3542 -0.0596385 0)
(7.35404 -0.064055 0)
(7.35374 -0.0687081 0)
(7.33294 -0.000294969 0)
(7.33282 -0.000800644 0)
(7.33294 -0.0013763 0)
(7.33334 -0.00214409 0)
(7.33398 -0.00309997 0)
(7.33479 -0.00419536 0)
(7.33571 -0.00538394 0)
(7.33671 -0.00663388 0)
(7.33775 -0.0079268 0)
(7.3388 -0.00925406 0)
(7.33986 -0.0106142 0)
(7.34091 -0.0120107 0)
(7.34194 -0.0134506 0)
(7.34293 -0.0149429 0)
(7.34389 -0.016498 0)
(7.3448 -0.0181271 0)
(7.34566 -0.0198417 0)
(7.34647 -0.0216536 0)
(7.34721 -0.0235745 0)
(7.34789 -0.025616 0)
(7.3485 -0.0277893 0)
(7.34903 -0.0301056 0)
(7.34947 -0.0325754 0)
(7.34983 -0.0352088 0)
(7.35009 -0.0380152 0)
(7.35025 -0.0410033 0)
(7.35029 -0.0441811 0)
(7.35022 -0.0475554 0)
(7.35002 -0.0511319 0)
(7.34969 -0.0549154 0)
(7.34921 -0.0589092 0)
(7.34858 -0.0631158 0)
(7.34779 -0.0675316 0)
(7.33316 -0.000958726 0)
(7.33359 -0.00314473 0)
(7.33386 -0.00532534 0)
(7.33409 -0.00724826 0)
(7.33443 -0.00886539 0)
(7.33493 -0.0102351 0)
(7.33558 -0.0114269 0)
(7.33636 -0.0125012 0)
(7.33722 -0.0135079 0)
(7.33814 -0.0144872 0)
(7.33909 -0.0154715 0)
(7.34004 -0.0164864 0)
(7.34098 -0.0175524 0)
(7.34189 -0.0186861 0)
(7.34275 -0.0199016 0)
(7.34356 -0.0212111 0)
(7.34431 -0.0226255 0)
(7.34499 -0.0241546 0)
(7.34559 -0.0258079 0)
(7.34611 -0.027594 0)
(7.34653 -0.0295216 0)
(7.34685 -0.0315985 0)
(7.34707 -0.0338324 0)
(7.34718 -0.0362305 0)
(7.34717 -0.0387994 0)
(7.34703 -0.0415451 0)
(7.34676 -0.0444728 0)
(7.34635 -0.047587 0)
(7.34579 -0.0508911 0)
(7.34508 -0.0543876 0)
(7.3442 -0.0580778 0)
(7.34315 -0.0619623 0)
(7.34192 -0.0660364 0)
(7.33267 0.000435898 0)
(7.33189 0.00145362 0)
(7.33184 0.00181477 0)
(7.33245 0.00124562 0)
(7.33338 2.42399e-05 0)
(7.33444 -0.00154404 0)
(7.33554 -0.00326793 0)
(7.33664 -0.00504785 0)
(7.33772 -0.00683013 0)
(7.33877 -0.00858781 0)
(7.33976 -0.0103128 0)
(7.34069 -0.0120087 0)
(7.34156 -0.0136856 0)
(7.34236 -0.0153568 0)
(7.34309 -0.0170374 0)
(7.34374 -0.0187428 0)
(7.3443 -0.0204883 0)
(7.34477 -0.0222885 0)
(7.34515 -0.0241574 0)
(7.34542 -0.0261082 0)
(7.34559 -0.028153 0)
(7.34564 -0.0303033 0)
(7.34558 -0.0325694 0)
(7.34538 -0.0349607 0)
(7.34505 -0.0374858 0)
(7.34458 -0.0401521 0)
(7.34397 -0.042966 0)
(7.3432 -0.0459328 0)
(7.34226 -0.0490569 0)
(7.34116 -0.0523412 0)
(7.33989 -0.0557876 0)
(7.33843 -0.0593973 0)
(7.33679 -0.0631665 0)
(7.3335 -0.00211323 0)
(7.33432 -0.00715089 0)
(7.33388 -0.0117766 0)
(7.33315 -0.0147816 0)
(7.33286 -0.0166449 0)
(7.33305 -0.0178436 0)
(7.33358 -0.0186407 0)
(7.33432 -0.0192121 0)
(7.33519 -0.0196772 0)
(7.33614 -0.0201155 0)
(7.33711 -0.0205792 0)
(7.33806 -0.021102 0)
(7.33897 -0.0217053 0)
(7.33982 -0.0224034 0)
(7.3406 -0.0232061 0)
(7.34128 -0.0241202 0)
(7.34186 -0.0251512 0)
(7.34233 -0.0263036 0)
(7.34269 -0.0275815 0)
(7.34292 -0.0289887 0)
(7.34302 -0.030529 0)
(7.34299 -0.032206 0)
(7.34281 -0.0340232 0)
(7.34248 -0.0359838 0)
(7.342 -0.0380909 0)
(7.34136 -0.0403469 0)
(7.34054 -0.0427541 0)
(7.33956 -0.0453138 0)
(7.3384 -0.0480271 0)
(7.33705 -0.0508939 0)
(7.33551 -0.0539138 0)
(7.33377 -0.0570855 0)
(7.33184 -0.0604038 0)
(7.3318 0.00333291 0)
(7.32907 0.0090395 0)
(7.3295 0.0115374 0)
(7.33163 0.0110775 0)
(7.33355 0.00875812 0)
(7.33513 0.00583588 0)
(7.3365 0.00279642 0)
(7.3377 -0.000185514 0)
(7.33874 -0.00301268 0)
(7.33966 -0.00564631 0)
(7.34047 -0.00808752 0)
(7.34119 -0.0103554 0)
(7.34182 -0.0124762 0)
(7.34237 -0.0144787 0)
(7.34283 -0.0163914 0)
(7.3432 -0.0182413 0)
(7.34349 -0.0200529 0)
(7.34367 -0.0218485 0)
(7.34375 -0.0236478 0)
(7.34372 -0.0254685 0)
(7.34356 -0.0273264 0)
(7.34328 -0.029235 0)
(7.34286 -0.0312067 0)
(7.3423 -0.0332519 0)
(7.34159 -0.0353799 0)
(7.34072 -0.0375987 0)
(7.33968 -0.0399148 0)
(7.33847 -0.0423336 0)
(7.33709 -0.0448595 0)
(7.33552 -0.0474958 0)
(7.33376 -0.0502445 0)
(7.33181 -0.0531071 0)
(7.32966 -0.0560811 0)
(7.33407 -0.00620457 0)
(7.33396 -0.0191992 0)
(7.33012 -0.0274796 0)
(7.32638 -0.031156 0)
(7.32472 -0.0320554 0)
(7.32483 -0.0317993 0)
(7.32571 -0.0310411 0)
(7.32696 -0.0300961 0)
(7.32843 -0.0291669 0)
(7.33001 -0.0283615 0)
(7.3316 -0.0277273 0)
(7.33316 -0.0272821 0)
(7.33464 -0.0270289 0)
(7.33604 -0.0269624 0)
(7.33732 -0.0270739 0)
(7.33849 -0.0273536 0)
(7.33952 -0.0277924 0)
(7.34041 -0.0283821 0)
(7.34115 -0.0291156 0)
(7.34174 -0.0299874 0)
(7.34217 -0.030993 0)
(7.34243 -0.0321289 0)
(7.34252 -0.0333925 0)
(7.34243 -0.0347818 0)
(7.34216 -0.0362951 0)
(7.34171 -0.0379311 0)
(7.34106 -0.0396885 0)
(7.34021 -0.041566 0)
(7.33916 -0.0435624 0)
(7.33791 -0.0456758 0)
(7.33645 -0.0479043 0)
(7.33478 -0.0502459 0)
(7.3329 -0.0526952 0)
(7.32967 0.0198303 0)
(7.32496 0.0369113 0)
(7.32926 0.0375811 0)
(7.33496 0.0320911 0)
(7.33843 0.0256055 0)
(7.34039 0.0191824 0)
(7.34198 0.013137 0)
(7.34349 0.00768301 0)
(7.34497 0.00286592 0)
(7.34649 -0.00136249 0)
(7.34807 -0.00507277 0)
(7.3497 -0.00833849 0)
(7.35134 -0.0112311 0)
(7.353 -0.0138157 0)
(7.35463 -0.0161499 0)
(7.35622 -0.0182831 0)
(7.35774 -0.020258 0)
(7.35918 -0.0221109 0)
(7.36052 -0.0238729 0)
(7.36175 -0.0255705 0)
(7.36285 -0.0272265 0)
(7.36381 -0.0288603 0)
(7.36462 -0.0304887 0)
(7.36527 -0.0321259 0)
(7.36576 -0.0337844 0)
(7.36607 -0.0354747 0)
(7.36622 -0.0372058 0)
(7.36618 -0.0389854 0)
(7.36595 -0.0408199 0)
(7.36555 -0.0427147 0)
(7.36495 -0.0446742 0)
(7.36417 -0.0467022 0)
(7.36321 -0.0487997 0)
(7.32506 -0.0331226 0)
(7.29735 -0.0589018 0)
(7.27795 -0.0619674 0)
(7.27365 -0.0597415 0)
(7.28033 -0.0564101 0)
(7.29183 -0.0525102 0)
(7.30514 -0.0487087 0)
(7.31892 -0.0453547 0)
(7.33242 -0.0425025 0)
(7.34523 -0.040138 0)
(7.35718 -0.0382277 0)
(7.36822 -0.0367231 0)
(7.37836 -0.0355732 0)
(7.38763 -0.0347316 0)
(7.3961 -0.0341577 0)
(7.40381 -0.033817 0)
(7.41083 -0.0336809 0)
(7.41721 -0.0337261 0)
(7.42299 -0.0339336 0)
(7.42822 -0.0342882 0)
(7.43294 -0.0347776 0)
(7.43719 -0.0353923 0)
(7.441 -0.0361245 0)
(7.44439 -0.0369682 0)
(7.44739 -0.0379184 0)
(7.45002 -0.0389713 0)
(7.4523 -0.0401236 0)
(7.45424 -0.0413724 0)
(7.45586 -0.0427154 0)
(7.45716 -0.0441501 0)
(7.45817 -0.0456749 0)
(7.45888 -0.0472869 0)
(7.45931 -0.0489835 0)
(7.33915 0.134712 0)
(7.37615 0.127045 0)
(7.39331 0.0871177 0)