# y+ ()       
# Time        	patch         	min           	max           	average       
200           	lowerWall	4.372540e+00	1.048894e+02	4.928969e+01
200           	upperWall	3.125910e+01	5.481720e+01	4.901573e+01
