/*--------------------------------*- C++ -*----------------------------------*\
  =========                 |
  \\      /  F ield         | OpenFOAM: The Open Source CFD Toolbox
   \\    /   O peration     | Website:  https://openfoam.org
    \\  /    A nd           | Version:  10
     \\/     M anipulation  |
\*---------------------------------------------------------------------------*/
FoamFile
{
    format      ascii;
    class       volScalarField;
    location    "0.08";
    object      epsilon;
}
// * * * * * * * * * * * * * * * * * * * * * * * * * * * * * * * * * * * * * //

dimensions      [0 2 -3 0 0 0 0];

internalField   nonuniform List<scalar> 
6820
(
23.2969
22.5752
21.9094
21.2853
20.7018
20.1632
19.6734
19.2344
18.8457
18.5051
18.2095
17.9551
17.7381
17.5547
17.4015
17.2751
17.1726
17.0912
17.0287
16.9827
16.9515
16.9331
16.9263
16.9295
16.9415
16.9615
16.9879
17.0228
17.052
17.1384
16.9837
17.9832
13.59
5.03386
6.81834
7.8394
8.46773
8.89827
9.23184
9.5223
9.79609
10.0652
10.3348
10.6067
10.8813
11.1583
11.4373
11.7178
11.9992
12.2809
12.5624
12.8433
13.1232
13.4016
13.6785
13.9535
14.2267
14.4983
14.7686
15.0387
15.31
15.5852
15.8775
16.1597
16.6472
16.6836
3.7036
4.14719
4.56526
4.91424
5.19799
5.43131
5.62824
5.80002
5.95509
6.09956
6.23775
6.37257
6.50596
6.63915
6.77289
6.90761
7.04353
7.18069
7.31909
7.45862
7.59918
7.74064
7.8829
8.02585
8.16948
8.31382
8.45899
8.60551
8.75341
8.90576
9.05835
9.22649
9.38399
3.54009
3.61094
3.72474
3.85373
3.98119
4.09945
4.20628
4.30208
4.38836
4.46689
4.5394
4.60739
4.67211
4.73457
4.79553
4.85561
4.91524
4.97476
5.0344
5.09432
5.15465
5.21546
5.27679
5.3387
5.40123
5.46443
5.52839
5.59327
5.65923
5.72685
5.79613
5.86816
5.94386
3.52064
3.50151
3.50498
3.52611
3.55868
3.59722
3.63782
3.67807
3.7167
3.75317
3.78738
3.81948
3.84974
3.87846
3.90595
3.93249
3.95833
3.98368
4.00873
4.0336
4.05844
4.08333
4.10836
4.1336
4.15911
4.18495
4.2112
4.23794
4.26527
4.29337
4.32236
4.3524
4.38362
3.5194
3.48247
3.45303
3.43232
3.41995
3.4145
3.41423
3.41752
3.42309
3.43001
3.43763
3.44553
3.45347
3.46131
3.46901
3.47655
3.48395
3.49125
3.4985
3.50574
3.51301
3.52037
3.52785
3.53549
3.54333
3.55141
3.55976
3.56844
3.5775
3.58701
3.59704
3.60766
3.6189
3.51943
3.47974
3.44283
3.40949
3.38025
3.35523
3.3342
3.31668
3.30213
3.28999
3.27977
3.27108
3.26358
3.25703
3.25124
3.24606
3.24139
3.23716
3.23332
3.22983
3.22667
3.22382
3.22128
3.21904
3.2171
3.21548
3.21417
3.2132
3.21258
3.21235
3.21252
3.21313
3.21419
3.51947
3.47943
3.44109
3.40466
3.37041
3.33851
3.30906
3.28204
3.25734
3.23478
3.21416
3.19528
3.17792
3.1619
3.14706
3.13325
3.12035
3.10826
3.0969
3.08619
3.07608
3.06652
3.05748
3.04891
3.0408
3.03312
3.02587
3.01903
3.0126
3.00658
3.00097
2.99579
2.99102
3.51948
3.47941
3.44085
3.40382
3.36835
3.33447
3.30224
3.27168
3.24277
3.2155
3.1898
3.16559
3.14279
3.12129
3.10101
3.08184
3.0637
3.04651
3.03019
3.01468
2.99992
2.98585
2.97243
2.95962
2.94738
2.93568
2.92449
2.9138
2.90358
2.89383
2.88453
2.87567
2.86725
3.51948
3.47941
3.44082
3.40368
3.36795
3.33361
3.30062
3.26896
3.23862
3.20958
3.18181
3.15527
3.12992
3.10572
3.08261
3.06054
3.03946
3.01931
3.00004
2.9816
2.96394
2.94702
2.9308
2.91524
2.90031
2.88597
2.87219
2.85896
2.84625
2.83404
2.82231
2.81106
2.80026
3.51948
3.4794
3.44081
3.40365
3.36788
3.33344
3.30027
3.26832
3.23757
3.20797
3.17949
3.15209
3.12573
3.1004
3.07604
3.05262
3.0301
3.00846
2.98764
2.96762
2.94836
2.92982
2.91198
2.89479
2.87824
2.86229
2.84693
2.83211
2.81783
2.80407
2.79081
2.77802
2.76571
3.51948
3.4794
3.4408
3.40364
3.36786
3.33339
3.30018
3.26817
3.23732
3.20756
3.17887
3.15119
3.1245
3.09876
3.07392
3.04997
3.02685
3.00456
2.98304
2.96228
2.94223
2.92289
2.90421
2.88617
2.86875
2.85192
2.83566
2.81996
2.80478
2.79011
2.77594
2.76226
2.74903
3.51948
3.4794
3.44079
3.40363
3.36784
3.33337
3.30015
3.26812
3.23724
3.20745
3.1787
3.15095
3.12415
3.09828
3.07329
3.04915
3.02582
3.00327
2.98148
2.96041
2.94004
2.92034
2.90129
2.88286
2.86502
2.84777
2.83107
2.81491
2.79927
2.78414
2.76949
2.75531
2.7416
3.51948
3.47939
3.44079
3.40362
3.36783
3.33335
3.30013
3.2681
3.2372
3.2074
3.17863
3.15086
3.12404
3.09813
3.07309
3.04889
3.02549
3.00287
2.98098
2.9598
2.93931
2.91947
2.90027
2.88168
2.86368
2.84624
2.82935
2.81299
2.79714
2.78179
2.76691
2.75251
2.73855
3.51947
3.47939
3.44079
3.40362
3.36782
3.33334
3.30011
3.26808
3.23718
3.20737
3.1786
3.15082
3.12399
3.09807
3.07301
3.0488
3.02538
3.00272
2.98081
2.95959
2.93906
2.91918
2.89993
2.88128
2.86321
2.84571
2.82875
2.81231
2.79638
2.78093
2.76597
2.75146
2.7374
3.51947
3.47939
3.44078
3.40361
3.36781
3.33333
3.3001
3.26806
3.23716
3.20734
3.17857
3.15078
3.12395
3.09802
3.07297
3.04874
3.02531
3.00265
2.98073
2.9595
2.93896
2.91907
2.8998
2.88113
2.86305
2.84552
2.82853
2.81207
2.79611
2.78063
2.76563
2.75109
2.73699
3.51947
3.47939
3.44078
3.40361
3.36781
3.33332
3.30008
3.26804
3.23714
3.20732
3.17854
3.15075
3.12391
3.09799
3.07293
3.0487
3.02527
3.0026
2.98067
2.95945
2.9389
2.919
2.89973
2.88106
2.86297
2.84544
2.82844
2.81197
2.796
2.78052
2.76551
2.75095
2.73683
3.51947
3.47939
3.44078
3.4036
3.3678
3.33331
3.30007
3.26803
3.23712
3.2073
3.17852
3.15073
3.12389
3.09795
3.07289
3.04866
3.02523
3.00256
2.98063
2.9594
2.93885
2.91895
2.89968
2.88101
2.86292
2.84538
2.82839
2.81192
2.79594
2.78046
2.76544
2.75088
2.73676
3.51947
3.47939
3.44078
3.4036
3.3678
3.33331
3.30006
3.26801
3.2371
3.20728
3.1785
3.1507
3.12386
3.09792
3.07286
3.04863
3.02519
3.00253
2.98059
2.95936
2.93881
2.91891
2.89964
2.88096
2.86287
2.84534
2.82835
2.81187
2.7959
2.78041
2.76539
2.75083
2.7367
3.51947
3.47939
3.44077
3.4036
3.36779
3.3333
3.30006
3.268
3.23709
3.20727
3.17848
3.15068
3.12384
3.0979
3.07283
3.0486
3.02516
3.00249
2.98056
2.95933
2.93877
2.91887
2.8996
2.88092
2.86283
2.8453
2.8283
2.81183
2.79586
2.78037
2.76535
2.75078
2.73665
3.51947
3.47939
3.44077
3.40359
3.36779
3.33329
3.30005
3.268
3.23708
3.20725
3.17846
3.15066
3.12382
3.09788
3.07281
3.04857
3.02513
3.00246
2.98052
2.95929
2.93874
2.91884
2.89956
2.88089
2.86279
2.84526
2.82826
2.81179
2.79581
2.78032
2.7653
2.75073
2.73659
3.51947
3.47938
3.44077
3.40359
3.36779
3.33329
3.30004
3.26799
3.23707
3.20724
3.17845
3.15065
3.1238
3.09786
3.07279
3.04855
3.02511
3.00243
2.9805
2.95926
2.93871
2.9188
2.89953
2.88085
2.86276
2.84522
2.82822
2.81174
2.79576
2.78027
2.76524
2.75067
2.73653
3.51947
3.47938
3.44077
3.40359
3.36778
3.33329
3.30004
3.26798
3.23706
3.20723
3.17844
3.15063
3.12378
3.09784
3.07277
3.04853
3.02508
3.00241
2.98047
2.95923
2.93868
2.91877
2.89949
2.88082
2.86272
2.84518
2.82818
2.8117
2.79572
2.78022
2.76519
2.75061
2.73646
3.51947
3.47938
3.44077
3.40359
3.36778
3.33328
3.30003
3.26798
3.23706
3.20722
3.17843
3.15062
3.12377
3.09782
3.07275
3.04851
3.02506
3.00239
2.98045
2.95921
2.93865
2.91874
2.89946
2.88078
2.86268
2.84514
2.82814
2.81165
2.79567
2.78017
2.76513
2.75054
2.73639
3.51947
3.47938
3.44077
3.40359
3.36778
3.33328
3.30003
3.26797
3.23705
3.20721
3.17842
3.15061
3.12376
3.09781
3.07273
3.04849
3.02505
3.00237
2.98042
2.95918
2.93862
2.91871
2.89943
2.88075
2.86265
2.8451
2.82809
2.81161
2.79562
2.78011
2.76507
2.75047
2.73631
3.51947
3.47938
3.44077
3.40359
3.36778
3.33328
3.30003
3.26797
3.23704
3.20721
3.17841
3.1506
3.12375
3.0978
3.07272
3.04848
3.02503
3.00235
2.9804
2.95916
2.9386
2.91869
2.8994
2.88072
2.86261
2.84506
2.82805
2.81156
2.79557
2.78005
2.765
2.7504
2.73623
3.51947
3.47938
3.44077
3.40359
3.36778
3.33328
3.30002
3.26796
3.23704
3.2072
3.1784
3.1506
3.12374
3.09779
3.07271
3.04846
3.02501
3.00233
2.98038
2.95914
2.93858
2.91866
2.89937
2.88069
2.86258
2.84503
2.82801
2.81151
2.79551
2.77999
2.76494
2.75033
2.73615
3.51947
3.47938
3.44077
3.40359
3.36778
3.33328
3.30002
3.26796
3.23704
3.2072
3.1784
3.15059
3.12374
3.09779
3.0727
3.04846
3.02501
3.00232
2.98037
2.95913
2.93856
2.91864
2.89935
2.88066
2.86255
2.84499
2.82797
2.81147
2.79546
2.77994
2.76488
2.75026
2.73608
3.51947
3.47938
3.44077
3.40359
3.36778
3.33327
3.30002
3.26796
3.23703
3.20719
3.17839
3.15058
3.12373
3.09777
3.07269
3.04844
3.02499
3.00231
2.98036
2.95911
2.93854
2.91862
2.89933
2.88063
2.86252
2.84496
2.82793
2.81142
2.79541
2.77988
2.76481
2.75019
2.736
3.51947
3.47938
3.44077
3.40359
3.36778
3.33328
3.30003
3.26797
3.23704
3.20721
3.17841
3.1506
3.12374
3.09779
3.07271
3.04846
3.025
3.00232
2.98036
2.95911
2.93854
2.91862
2.89932
2.88062
2.8625
2.84494
2.82791
2.8114
2.79538
2.77984
2.76477
2.75014
2.73593
3.51947
3.47939
3.44077
3.40359
3.36778
3.33328
3.30002
3.26796
3.23703
3.2072
3.17839
3.15059
3.12373
3.09777
3.07269
3.04844
3.02499
3.0023
2.98035
2.9591
2.93853
2.91861
2.89931
2.88061
2.86249
2.84492
2.82789
2.81138
2.79536
2.77982
2.76474
2.7501
2.7359
3.51947
3.47938
3.44077
3.40359
3.36779
3.3333
3.30006
3.268
3.23709
3.20725
3.17846
3.15065
3.1238
3.09784
3.07276
3.04851
3.02506
3.00237
2.98042
2.95917
2.9386
2.91868
2.89938
2.88069
2.86257
2.84501
2.82798
2.81147
2.79545
2.77992
2.76484
2.75021
2.73601
3.51948
3.4794
3.44079
3.40362
3.36782
3.33332
3.30007
3.26801
3.23709
3.20725
3.17846
3.15066
3.12381
3.09787
3.0728
3.04857
3.02513
3.00247
2.98054
2.95932
2.93878
2.91889
2.89963
2.88097
2.86289
2.84537
2.82839
2.81193
2.79597
2.78048
2.76547
2.7509
2.73676
3.51947
3.47939
3.44079
3.40365
3.36789
3.33344
3.30023
3.26822
3.23734
3.20755
3.17879
3.15104
3.12424
3.09836
3.07336
3.04921
3.02587
3.00332
2.98151
2.96042
2.94003
2.9203
2.90121
2.88274
2.86486
2.84755
2.83079
2.81455
2.79883
2.78359
2.76883
2.75452
2.74065
3.51949
3.47947
3.44095
3.40384
3.3681
3.33368
3.30054
3.26862
3.23789
3.2083
3.17981
3.15238
3.12596
3.10052
3.07602
3.05241
3.02968
3.00777
2.98666
2.96631
2.9467
2.92778
2.90954
2.89194
2.87496
2.85856
2.84273
2.82744
2.81267
2.7984
2.78461
2.77127
2.75836
3.5195
3.47953
3.44117
3.40446
3.36934
3.33573
3.3036
3.27292
3.24364
3.21574
3.18915
3.16383
3.13973
3.11678
3.09493
3.07413
3.0543
3.03541
3.01739
3.00019
2.98377
2.96808
2.95307
2.9387
2.92494
2.91174
2.89908
2.88693
2.87524
2.864
2.85319
2.84277
2.83272
3.51968
3.48122
3.44561
3.41286
3.38296
3.35589
3.33153
3.3097
3.29019
3.27279
3.25727
3.24344
3.23111
3.22009
3.21024
3.20141
3.19346
3.1863
3.17981
3.17392
3.16853
3.16359
3.15902
3.15479
3.15083
3.1471
3.14358
3.14023
3.13702
3.13392
3.13092
3.12798
3.12511
3.52527
3.5137
3.51625
3.52955
3.55082
3.57804
3.60958
3.64416
3.68082
3.71882
3.75758
3.79662
3.83561
3.87425
3.91234
3.94971
3.98624
4.02183
4.05642
4.08997
4.12245
4.15383
4.18413
4.21334
4.24147
4.26854
4.29458
4.31959
4.34362
4.36668
4.38881
4.41004
4.43041
3.83318
4.36504
4.84908
5.31387
5.77399
6.22485
6.66215
7.08404
7.49016
7.88088
8.257
8.6194
8.96899
9.30661
9.63304
9.94894
10.2549
10.5516
10.8393
11.1186
11.3898
11.6534
11.9097
12.159
12.4017
12.6381
12.8684
13.093
13.3122
13.5262
13.7354
13.94
14.1403
30.2663
32.7713
35.3126
37.865
40.4147
42.9529
45.4713
47.9624
50.4192
52.8357
55.2062
57.5259
59.7908
61.9975
64.1432
66.2257
68.2435
70.1955
72.0808
73.8994
75.6512
77.3367
78.9566
80.5117
82.0033
83.4324
84.8007
86.1095
87.3605
88.5553
89.6958
90.7834
91.8211
87.0975
238.264
425.361
609.343
759.455
858.556
903.37
901.405
865.626
810.356
747.733
685.81
628.753
578.084
533.958
495.994
463.698
436.464
413.698
394.798
379.153
366.158
355.228
345.81
337.375
329.414
321.431
312.938
303.458
292.524
279.687
264.527
246.669
225.826
201.858
174.873
145.373
114.427
83.8264
56.0441
33.7078
18.4835
10.0339
6.27382
4.91849
4.55745
4.56483
4.69653
4.85601
5.00215
5.11709
5.19465
5.23516
5.24249
5.22213
5.17994
5.12145
5.0515
4.97415
4.89272
4.80985
4.72762
4.64764
4.57114
4.49906
4.4321
4.37075
4.31532
4.26596
4.22264
4.18514
4.15302
4.12562
4.102
4.08096
4.06101
4.04047
4.01746
3.99003
3.95629
3.91451
3.86329
3.80161
3.72884
3.64461
3.5486
3.44028
3.31875
3.1827
3.03069
2.86173
2.67602
2.47571
2.26541
2.05217
1.84477
1.65265
1.48258
1.34808
1.19723
19.2762
28.1206
45.825
74.7342
116.604
171.265
236.103
305.893
373.433
431.186
473.423
497.729
505.182
499.314
484.576
465.069
443.809
422.644
402.716
384.477
367.978
353.078
339.543
327.07
315.303
303.84
292.254
280.11
266.981
252.463
236.19
217.861
197.277
174.398
149.429
122.925
95.9038
69.9067
46.8715
28.6684
16.3072
9.31745
6.04711
4.75617
4.34244
4.28864
4.37867
4.51916
4.66527
4.79386
4.89359
4.96041
4.99485
5.00015
4.98085
4.94185
4.88782
4.82295
4.7508
4.67432
4.59592
4.5175
4.44057
4.36631
4.29565
4.22927
4.16771
4.11134
4.06039
4.01493
3.97489
3.94
3.90977
3.88349
3.8602
3.83867
3.81746
3.79494
3.76939
3.73905
3.70231
3.65776
3.60431
3.54119
3.46786
3.3838
3.28834
3.18043
3.05868
2.92156
2.76791
2.59767
2.41261
2.21685
2.01686
1.82091
1.63805
1.4749
1.34501
1.19757
9.53944
9.8768
10.6915
12.4047
15.6373
21.37
30.9706
45.9608
67.4648
95.5714
128.991
165.216
201.095
233.571
260.303
280.012
292.573
298.545
298.908
295.14
288.669
280.581
271.551
261.903
251.719
240.925
229.364
216.834
203.122
188.032
171.422
153.243
133.594
112.786
91.4062
70.36
50.8406
34.1564
21.3679
12.8279
7.95344
5.55875
4.51884
4.1288
4.04081
4.09433
4.21068
4.34724
4.47926
4.59241
4.67928
4.73722
4.76688
4.77092
4.75307
4.71739
4.66784
4.60801
4.54101
4.46949
4.39559
4.32109
4.2474
4.17562
4.10666
4.04119
3.97977
3.9228
3.87056
3.82322
3.7808
3.74318
3.71004
3.68087
3.65494
3.63126
3.60866
3.58576
3.56107
3.53304
3.50017
3.4611
3.41473
3.36017
3.29672
3.22372
3.14034
3.04542
2.93748
2.81488
2.67629
2.52139
2.35152
2.17025
1.98348
1.79888
1.62512
1.46865
1.34313
1.19867
6.02962
6.12608
6.23014
6.35598
6.52474
6.7933
7.30905
8.36274
10.3917
13.9404
19.5914
27.8231
38.8144
52.305
67.5995
83.7174
99.5626
114.315
127.348
137.943
145.64
150.314
152.117
151.352
148.36
143.44
136.813
128.627
118.99
108.007
95.8317
82.71
69.0195
55.2929
42.2077
30.5166
20.9021
13.7697
9.07473
6.33695
4.89485
4.19446
3.89275
3.80655
3.8385
3.93285
4.05501
4.18244
4.30041
4.39975
4.47552
4.52598
4.55175
4.555
4.53875
4.50635
4.46114
4.40618
4.3442
4.27752
4.20811
4.13758
4.06724
3.99815
3.93115
3.86692
3.80601
3.74882
3.69568
3.64681
3.60232
3.56218
3.52624
3.49415
3.46538
3.43919
3.41465
3.39065
3.36595
3.3392
3.30906
3.2743
3.23379
3.1866
3.13193
3.06897
2.99676
2.91405
2.81925
2.71064
2.58672
2.44686
2.29196
2.12505
1.95137
1.77803
1.61325
1.46333
1.34203
1.20029
4.42074
4.46487
4.51254
4.56411
4.61736
4.66715
4.709
4.7497
4.82252
5.00334
5.4196
6.23498
7.61466
9.69437
12.555
16.1963
20.5151
25.3048
30.3983
35.5818
40.5816
45.092
48.8177
51.5125
53.0029
53.1972
52.0808
49.7077
46.1934
41.7125
36.5007
30.8553
25.1269
19.6926
14.905
11.0222
8.14262
6.18753
4.95765
4.23045
3.82922
3.63648
3.57781
3.60465
3.6837
3.79107
3.90917
4.02508
4.1296
4.21666
4.28286
4.32699
4.34958
4.35235
4.33773
4.30847
4.26735
4.217
4.15979
4.09779
4.03276
3.96617
3.89925
3.83298
3.76817
3.70546
3.64539
3.58838
3.53476
3.48479
3.43861
3.39631
3.35783
3.32296
3.29135
3.26249
3.23568
3.21004
3.18459
3.15823
3.1298
3.09819
3.06235
3.02134
2.97428
2.92026
2.85822
2.78682
2.70439
2.6091
2.49928
2.37402
2.23377
2.08096
1.92021
1.75799
1.6021
1.45862
1.34145
1.20227
3.63278
3.65006
3.66964
3.69198
3.71717
3.7446
3.7723
3.79683
3.81478
3.82698
3.84478
3.89414
4.01376
4.24919
4.64507
5.23654
6.0381
7.05661
8.17609
9.34594
10.5229
11.6563
12.6856
13.544
14.1644
14.4881
14.473
14.1014
13.3861
12.373
11.1389
9.78472
8.42166
7.15272
6.05456
5.16624
4.4905
4.00563
3.68001
3.48182
3.38284
3.35916
3.39077
3.46089
3.55531
3.66209
3.7713
3.87498
3.96708
4.04338
4.1014
4.14022
4.16023
4.16274
4.14971
4.12337
4.08606
4.04001
3.98729
3.92973
3.8689
3.80617
3.74265
3.67927
3.6168
3.55586
3.49694
3.44048
3.38679
3.33615
3.28875
3.2447
3.20404
3.16669
3.13243
3.10092
3.07168
3.04407
3.01733
2.99062
2.96299
2.93349
2.90118
2.86516
2.82453
2.77831
2.72536
2.66427
2.59331
2.51054
2.41414
2.30289
2.17682
2.03777
1.8897
1.73844
1.59133
1.45423
1.34114
1.20445
3.21601
3.21895
3.22312
3.22895
3.23678
3.24681
3.25899
3.27276
3.2869
3.29972
3.31006
3.319
3.33169
3.35802
3.41163
3.50736
3.6581
3.87064
4.12338
4.39939
4.68275
4.9577
5.20846
5.41944
5.57601
5.66563
5.67932
5.61313
5.46933
5.257
4.99151
4.69298
4.38363
4.08478
3.81421
3.58462
3.40327
3.27265
3.19153
3.15609
3.16078
3.19897
3.26345
3.34682
3.44183
3.54165
3.64012
3.73198
3.81295
3.87994
3.93101
3.96539
3.98331
3.98574
3.97423
3.9506
3.9168
3.87472
3.82617
3.77276
3.71593
3.65691
3.59673
3.53626
3.47622
3.41721
3.3597
3.3041
3.25072
3.19984
3.15167
3.10635
3.06397
3.02452
2.98792
2.95395
2.92231
2.89258
2.86422
2.8366
2.80902
2.78071
2.75089
2.71873
2.68335
2.64376
2.59879
2.54694
2.48645
2.41529
2.33149
2.23355
2.12108
1.99533
1.85959
1.71909
1.58064
1.44989
1.34087
1.20665
2.986
2.98084
2.97637
2.97283
2.97044
2.96942
2.96995
2.97212
2.9758
2.98061
2.98589
2.99096
2.99558
3.00059
3.00834
3.02264
3.0485
3.08921
3.14411
3.21037
3.28362
3.35866
3.43001
3.49234
3.54082
3.57143
3.58135
3.56919
3.53527
3.48171
3.41233
3.33238
3.24803
3.16581
3.09192
3.03175
2.98947
2.96781
2.968
2.9898
3.0317
3.09108
3.16448
3.24788
3.33698
3.42742
3.51503
3.59603
3.66725
3.72625
3.77145
3.80213
3.81834
3.82082
3.81074
3.7896
3.75899
3.72056
3.67586
3.62633
3.57326
3.51777
3.46082
3.40322
3.34566
3.28869
3.23277
3.17829
3.12556
3.07483
3.02633
2.9802
2.93657
2.89549
2.85694
2.82082
2.78698
2.75515
2.72501
2.69613
2.66803
2.64016
2.61189
2.58255
2.55131
2.51721
2.47906
2.43535
2.38426
2.3237
2.25157
2.16611
2.06652
1.95351
1.82972
1.69971
1.5698
1.44534
1.34042
1.20874
2.85797
2.84782
2.83811
2.82896
2.82053
2.81298
2.80645
2.80106
2.79688
2.7939
2.79198
2.79088
2.79025
2.78985
2.78968
2.79018
2.7924
2.79733
2.80574
2.81783
2.83311
2.85048
2.86845
2.88529
2.89929
2.90894
2.9131
2.91112
2.90299
2.88933
2.87143
2.85117
2.83089
2.81321
2.80081
2.79621
2.80156
2.81841
2.84765
2.88937
2.94288
3.00675
3.07894
3.15689
3.23774
3.31841
3.39587
3.46724
3.53001
3.58219
3.62241
3.64996
3.66478
3.66737
3.65862
3.63973
3.61204
3.57694
3.53578
3.48984
3.44029
3.38814
3.33428
3.27949
3.22439
3.16953
3.11533
3.06217
3.01035
2.96011
2.91166
2.86517
2.82075
2.77851
2.73846
2.70061
2.66487
2.63113
2.59922
2.5689
2.5399
2.51188
2.48441
2.45696
2.42883
2.39912
2.36666
2.32995
2.28715
2.23612
2.17463
2.10073
2.01322
1.91229
1.79994
1.68012
1.55858
1.4404
1.33962
1.21059
2.78822
2.77486
2.7618
2.74912
2.73692
2.72531
2.71441
2.70432
2.69514
2.68692
2.67967
2.67335
2.66785
2.66301
2.65868
2.65476
2.65127
2.64834
2.64615
2.64491
2.64469
2.64543
2.64692
2.64881
2.65069
2.65214
2.65285
2.65265
2.65161
2.65005
2.64858
2.64806
2.64959
2.65442
2.66386
2.6792
2.70153
2.73171
2.77018
2.81697
2.8716
2.93311
3.00009
3.07074
3.14294
3.21441
3.28277
3.34573
3.40122
3.44756
3.48352
3.50841
3.52205
3.52476
3.51721
3.50036
3.47531
3.44324
3.40533
3.36271
3.31643
3.26742
3.21652
3.16443
3.11176
3.05901
3.00662
2.95492
2.90421
2.85473
2.80666
2.76018
2.71542
2.67247
2.6314
2.59224
2.55499
2.51964
2.48611
2.45436
2.42427
2.3957
2.36843
2.3421
2.31616
2.28983
2.26198
2.23115
2.1955
2.15288
2.10096
2.03759
1.96126
1.87166
1.7702
1.66018
1.54684
1.43489
1.3383
1.21208
2.75191
2.7365
2.72131
2.70638
2.69181
2.67766
2.66402
2.651
2.63867
2.6271
2.61635
2.60642
2.59732
2.589
2.5814
2.57444
2.56803
2.56214
2.55673
2.55185
2.54752
2.54378
2.54067
2.5382
2.53638
2.53521
2.53473
2.53505
2.53635
2.5389
2.54312
2.54953
2.55875
2.57147
2.58843
2.61033
2.63777
2.6712
2.71084
2.75663
2.80818
2.86475
2.92528
2.98838
3.05243
3.11558
3.17593
3.23159
3.28081
3.32211
3.35438
3.37695
3.38956
3.39238
3.38589
3.37085
3.34817
3.31885
3.2839
3.24434
3.2011
3.15504
3.10693
3.05743
3.00712
2.95649
2.90593
2.85579
2.80634
2.75781
2.7104
2.66426
2.61952
2.57628
2.53462
2.4946
2.45626
2.41964
2.38478
2.35172
2.32051
2.29117
2.26368
2.23786
2.21336
2.1895
2.16526
2.13925
2.10964
2.07428
2.0308
1.97691
1.91078
1.83169
1.74048
1.63984
1.53447
1.4287
1.33635
1.21311
2.73417
2.71752
2.70103
2.68473
2.66869
2.65296
2.63764
2.62278
2.60847
2.59478
2.58177
2.56948
2.55793
2.54715
2.53713
2.52783
2.51924
2.51132
2.50404
2.4974
2.4914
2.48608
2.48149
2.4777
2.47479
2.47289
2.47212
2.47268
2.47478
2.4787
2.48477
2.49335
2.50488
2.5198
2.53857
2.56161
2.58929
2.62187
2.65943
2.70186
2.74884
2.79977
2.85378
2.90977
2.96641
3.0222
3.07555
3.12485
3.1686
3.20551
3.23455
3.25505
3.26672
3.2696
3.26403
3.25059
3.23002
3.20317
3.17093
3.13417
3.09375
3.05044
3.00496
2.95793
2.9099
2.86134
2.81262
2.76409
2.716
2.66859
2.62203
2.57648
2.53206
2.48889
2.44703
2.40656
2.36754
2.33005
2.29418
2.26005
2.22782
2.19765
2.16969
2.14396
2.12027
2.09811
2.0766
2.0544
2.02977
2.00057
1.96441
1.91888
1.86195
1.79249
1.71083
1.61909
1.52141
1.42174
1.33368
1.21362
2.72615
2.70881
2.69157
2.67448
2.65759
2.64094
2.6246
2.60863
2.5931
2.57808
2.56363
2.54979
2.53662
2.52415
2.51241
2.5014
2.49113
2.4816
2.47282
2.46481
2.45757
2.45115
2.44559
2.44098
2.4374
2.43498
2.43387
2.43425
2.43633
2.44035
2.44658
2.45533
2.46689
2.48161
2.4998
2.52175
2.54769
2.57777
2.61203
2.65035
2.69243
2.73777
2.78565
2.83516
2.88519
2.93448
2.98167
3.0254
3.06436
3.09737
3.12353
3.14216
3.15294
3.15582
3.15101
3.13896
3.12026
3.09564
3.06584
3.03166
2.99383
2.95309
2.91009
2.8654
2.81956
2.773
2.72611
2.6792
2.63253
2.58633
2.54077
2.49601
2.45216
2.40933
2.3676
2.32704
2.28772
2.24974
2.21321
2.1783
2.14524
2.11431
2.08578
2.05986
2.03654
2.01548
1.99592
1.97666
1.95602
1.93192
1.90198
1.86372
1.81494
1.75418
1.68134
1.59796
1.50767
1.41398
1.33023
1.21354
2.72281
2.70511
2.6875
2.66999
2.65263
2.63546
2.61854
2.60192
2.58566
2.56982
2.55446
2.53962
2.52537
2.51175
2.49879
2.48653
2.47499
2.46421
2.4542
2.445
2.43664
2.42917
2.42264
2.41714
2.41276
2.40961
2.40783
2.40758
2.40904
2.41243
2.41796
2.42588
2.43644
2.44989
2.46647
2.48638
2.50979
2.5368
2.56741
2.6015
2.63881
2.6789
2.72117
2.76484
2.80898
2.85251
2.89426
2.93306
2.96775
2.99729
3.02082
3.03773
3.04764
3.05044
3.04625
3.03539
3.01835
2.99571
2.96813
2.93628
2.90085
2.86249
2.8218
2.77934
2.73559
2.69097
2.64586
2.60056
2.55534
2.51041
2.46596
2.42211
2.37901
2.33674
2.2954
2.25504
2.21576
2.17762
2.14078
2.1054
2.07176
2.04021
2.01114
1.9849
1.96165
1.94121
1.923
1.90592
1.8884
1.86843
1.84366
1.8116
1.76993
1.71694
1.65213
1.57654
1.49328
1.40543
1.32598
1.21285
2.72153
2.70367
2.68587
2.66816
2.65056
2.63312
2.61588
2.59888
2.58218
2.56584
2.54989
2.53441
2.51943
2.505
2.49118
2.478
2.4655
2.45372
2.4427
2.43248
2.42311
2.41464
2.40714
2.40068
2.39536
2.39128
2.38857
2.38737
2.38785
2.39017
2.39453
2.40114
2.41018
2.42187
2.43639
2.4539
2.47453
2.49833
2.52529
2.5553
2.58812
2.62338
2.66055
2.69898
2.73785
2.77624
2.81315
2.84754
2.87839
2.90479
2.92593
2.94121
2.95027
2.95291
2.9492
2.93935
2.92375
2.90287
2.87727
2.84756
2.81433
2.77818
2.73966
2.69928
2.65751
2.61476
2.57138
2.52767
2.4839
2.44028
2.39698
2.35415
2.31191
2.27037
2.22961
2.18969
2.15069
2.11269
2.07582
2.04027
2.00631
1.97436
1.94486
1.91828
1.89493
1.8748
1.85746
1.84195
1.82679
1.81008
1.78952
1.76265
1.72709
1.68094
1.62336
1.55496
1.47833
1.39613
1.32096
1.21155
2.72107
2.70314
2.68526
2.66745
2.64973
2.63214
2.61472
2.59751
2.58054
2.56387
2.54754
2.53161
2.51612
2.50112
2.48666
2.47278
2.45953
2.44695
2.43509
2.424
2.41373
2.40434
2.39589
2.38847
2.38216
2.37707
2.3733
2.371
2.37029
2.37134
2.37431
2.37937
2.38668
2.39642
2.40874
2.42375
2.44157
2.46222
2.48569
2.51187
2.54053
2.57136
2.60392
2.63761
2.67174
2.70553
2.73808
2.7685
2.79589
2.8194
2.83832
2.85207
2.86026
2.86269
2.85932
2.85032
2.83596
2.81664
2.79283
2.76505
2.73384
2.69972
2.66322
2.6248
2.58491
2.54394
2.50223
2.46007
2.41773
2.37541
2.3333
2.29154
2.25026
2.20955
2.1695
2.13019
2.09167
2.05404
2.01739
1.98192
1.94791
1.91576
1.88598
1.85913
1.83562
1.81562
1.79881
1.78438
1.77098
1.75677
1.73958
1.71698
1.68658
1.64636
1.59521
1.53337
1.46294
1.38616
1.3152
1.20964
2.72089
2.70294
2.68502
2.66716
2.64938
2.63171
2.61418
2.59682
2.57967
2.56278
2.54618
2.52992
2.51406
2.49862
2.48367
2.46924
2.45538
2.44214
2.42957
2.41772
2.40665
2.39642
2.38709
2.37874
2.37146
2.36535
2.3605
2.35704
2.35509
2.3548
2.3563
2.35975
2.36528
2.37303
2.38314
2.39571
2.41081
2.42846
2.44865
2.47126
2.4961
2.52289
2.55125
2.58065
2.61052
2.64014
2.66875
2.69557
2.71979
2.74065
2.7575
2.76979
2.77712
2.77926
2.77613
2.76782
2.75453
2.73658
2.71437
2.68834
2.65896
2.62672
2.59209
2.55551
2.5174
2.47812
2.43801
2.39735
2.35641
2.31539
2.27447
2.23381
2.19352
2.15372
2.11448
2.07588
2.03799
2.00089
1.96466
1.92948
1.89563
1.86349
1.8336
1.80658
1.78294
1.76295
1.74646
1.73277
1.72064
1.70834
1.69377
1.67462
1.6485
1.61335
1.56787
1.51194
1.44726
1.37565
1.30878
1.20716
2.72081
2.70284
2.6849
2.66701
2.64919
2.63146
2.61385
2.59639
2.57911
2.56205
2.54524
2.52874
2.51257
2.49678
2.48142
2.46654
2.45217
2.43837
2.42519
2.41268
2.40089
2.38989
2.37975
2.37053
2.36233
2.35523
2.34932
2.34473
2.34156
2.33993
2.33998
2.34183
2.34561
2.35144
2.35943
2.36965
2.38218
2.39702
2.41415
2.43347
2.4548
2.47791
2.50243
2.52795
2.55394
2.57978
2.60482
2.62835
2.64966
2.66808
2.68299
2.69388
2.70035
2.70214
2.69915
2.6914
2.67902
2.66228
2.64148
2.61703
2.58933
2.55882
2.52593
2.49106
2.45461
2.41694
2.37836
2.33915
2.29956
2.25981
2.22008
2.18052
2.14125
2.10239
2.06402
2.02621
1.98904
1.95258
1.91691
1.88218
1.84865
1.8167
1.78687
1.7598
1.73608
1.7161
1.6998
1.68661
1.67539
1.66451
1.65198
1.63556
1.61295
1.58208
1.54151
1.49086
1.43146
1.36471
1.3018
1.20416
2.72075
2.70276
2.68481
2.6669
2.64904
2.63127
2.6136
2.59606
2.57867
2.56147
2.54449
2.52777
2.51136
2.49527
2.47957
2.4643
2.44949
2.4352
2.42148
2.40838
2.39595
2.38425
2.37336
2.36334
2.35427
2.34624
2.33933
2.33365
2.3293
2.3264
2.32506
2.32538
2.32749
2.33149
2.33746
2.34549
2.35561
2.36784
2.38214
2.39842
2.41654
2.43627
2.45732
2.47929
2.50175
2.52415
2.54592
2.56644
2.58509
2.60123
2.61432
2.62387
2.62948
2.63089
2.62795
2.62063
2.60903
2.59334
2.57381
2.55077
2.5246
2.49568
2.46439
2.43112
2.39624
2.36008
2.32296
2.28513
2.24686
2.20834
2.16977
2.1313
2.09306
2.05515
2.01767
1.98071
1.94431
1.90856
1.87354
1.83938
1.8063
1.77468
1.74504
1.71804
1.69433
1.67436
1.6582
1.64537
1.63482
1.625
1.61403
1.59975
1.57998
1.55267
1.51631
1.47032
1.41571
1.3535
1.29437
1.20072
2.72069
2.70269
2.68472
2.66679
2.64891
2.63109
2.61337
2.59575
2.57827
2.56095
2.54383
2.52693
2.51029
2.49395
2.47796
2.46234
2.44715
2.43243
2.41822
2.40459
2.39158
2.37925
2.36767
2.35691
2.34703
2.33813
2.33028
2.32358
2.31813
2.31402
2.31136
2.31025
2.31079
2.31307
2.31716
2.32313
2.33102
2.34083
2.35252
2.36601
2.38118
2.39783
2.41569
2.43443
2.45366
2.47293
2.49171
2.50948
2.52565
2.53969
2.55107
2.55933
2.5641
2.56508
2.56212
2.55514
2.54419
2.52941
2.511
2.48924
2.46446
2.43699
2.40719
2.37541
2.342
2.30727
2.27152
2.23502
2.19801
2.16069
2.12325
2.08585
2.04862
2.01167
1.9751
1.93898
1.90339
1.8684
1.83408
1.80055
1.76801
1.73682
1.70748
1.68066
1.65702
1.63712
1.62108
1.60853
1.59848
1.58948
1.5797
1.5671
1.5496
1.52521
1.49243
1.45052
1.40021
1.3422
1.28665
1.19692
2.72062
2.70262
2.68463
2.66668
2.64877
2.63091
2.61314
2.59545
2.57789
2.56046
2.54321
2.52615
2.50932
2.49276
2.4765
2.46058
2.44504
2.42993
2.4153
2.40118
2.38765
2.37475
2.36254
2.35109
2.34047
2.33076
2.32204
2.31439
2.3079
2.30267
2.29878
2.29633
2.2954
2.29608
2.29842
2.30249
2.30831
2.31588
2.32517
2.3361
2.34857
2.36238
2.37733
2.39312
2.40941
2.4258
2.44185
2.45708
2.47098
2.48305
2.49282
2.49986
2.50379
2.50432
2.50128
2.49455
2.48415
2.47016
2.45274
2.43214
2.40861
2.38247
2.35405
2.32365
2.29162
2.25823
2.2238
2.18856
2.15276
2.11659
2.08026
2.0439
2.00767
1.97166
1.93599
1.90073
1.86596
1.83174
1.79815
1.76529
1.73335
1.70265
1.67369
1.64711
1.62363
1.60382
1.58792
1.5756
1.56597
1.55761
1.54877
1.5375
1.5218
1.4998
1.47002
1.43164
1.38515
1.33097
1.27877
1.19286
2.72055
2.70253
2.68453
2.66656
2.64862
2.63073
2.6129
2.59516
2.57752
2.56
2.54262
2.52542
2.50842
2.49166
2.47517
2.45898
2.44313
2.42768
2.41265
2.39811
2.38409
2.37066
2.35788
2.3458
2.3345
2.32405
2.31452
2.30599
2.29854
2.29226
2.28723
2.28353
2.28124
2.28043
2.28116
2.28346
2.28737
2.29288
2.29996
2.30854
2.31852
2.32975
2.34203
2.35512
2.36872
2.38248
2.39601
2.4089
2.42069
2.43094
2.4392
2.44507
2.44818
2.44826
2.44508
2.43853
2.42859
2.41528
2.39875
2.37918
2.3568
2.33188
2.30472
2.27562
2.24487
2.21276
2.17957
2.14554
2.1109
2.07585
2.04058
2.00525
1.96999
1.93492
1.90013
1.86572
1.83176
1.79832
1.76546
1.7333
1.70198
1.67182
1.64328
1.617
1.59371
1.57404
1.55827
1.54618
1.53692
1.5291
1.52103
1.51081
1.49655
1.4765
1.44922
1.41385
1.37073
1.32002
1.2709
1.18866
2.72047
2.70244
2.68443
2.66643
2.64846
2.63054
2.61267
2.59487
2.57715
2.55954
2.54206
2.52474
2.50759
2.49064
2.47394
2.45751
2.44139
2.42562
2.41024
2.39531
2.38086
2.36695
2.35364
2.34099
2.32906
2.31792
2.30764
2.2983
2.28996
2.28271
2.27663
2.27178
2.26823
2.26605
2.26528
2.26596
2.26811
2.27172
2.27676
2.28318
2.29089
2.29974
2.30958
2.32019
2.33132
2.34266
2.35388
2.36462
2.37446
2.38301
2.38985
2.39461
2.39694
2.39654
2.39321
2.38678
2.37721
2.36451
2.34876
2.33011
2.30878
2.28498
2.259
2.2311
2.20156
2.17065
2.13864
2.10577
2.07225
2.03829
2.00406
1.96973
1.93543
1.90127
1.86736
1.8338
1.80064
1.76797
1.73585
1.70437
1.67369
1.64408
1.61598
1.59003
1.56696
1.54744
1.53183
1.51995
1.51102
1.50368
1.49626
1.48691
1.47383
1.45536
1.43014
1.39733
1.35714
1.30952
1.26322
1.18443
2.72039
2.70235
2.68431
2.66629
2.6483
2.63034
2.61243
2.59457
2.57679
2.55911
2.54153
2.52408
2.5068
2.48969
2.4728
2.45615
2.43978
2.42373
2.40804
2.39275
2.37791
2.36357
2.34978
2.33661
2.3241
2.31233
2.30137
2.29127
2.28212
2.27398
2.26692
2.261
2.25629
2.25284
2.25069
2.24988
2.25041
2.25227
2.25545
2.25989
2.2655
2.27217
2.27977
2.28811
2.29696
2.30609
2.31518
2.32393
2.33197
2.33894
2.34446
2.34817
2.34975
2.34889
2.34537
2.33903
2.32977
2.31759
2.30253
2.28472
2.26432
2.24156
2.21666
2.18989
2.16149
2.13174
2.10087
2.06912
2.03669
2.00379
1.97059
1.93725
1.90389
1.87064
1.83761
1.80487
1.77252
1.74061
1.70921
1.67842
1.64836
1.6193
1.59166
1.56604
1.54319
1.52382
1.50835
1.49668
1.48805
1.48117
1.47433
1.46573
1.45361
1.43643
1.41291
1.38224
1.34457
1.29968