/*--------------------------------*- C++ -*----------------------------------*\
  =========                 |
  \\      /  F ield         | OpenFOAM: The Open Source CFD Toolbox
   \\    /   O peration     | Website:  https://openfoam.org
    \\  /    A nd           | Version:  10
     \\/     M anipulation  |
\*---------------------------------------------------------------------------*/
FoamFile
{
    format      ascii;
    class       volVectorField;
    location    "0.08";
    object      U;
}
// * * * * * * * * * * * * * * * * * * * * * * * * * * * * * * * * * * * * * //

dimensions      [0 1 -1 0 0 0 0];

internalField   nonuniform List<vector> 
6820
(
(7.33663 -0.254709 0)
(7.3711 -0.152736 0)
(7.32897 -0.0594663 0)
(7.25207 -0.0117121 0)
(7.17462 0.00798264 0)
(7.10469 0.0139938 0)
(7.04354 0.014489 0)
(6.99058 0.0131193 0)
(6.94434 0.0113763 0)
(6.90343 0.00980775 0)
(6.86677 0.00855419 0)
(6.83354 0.00760314 0)
(6.80314 0.0068986 0)
(6.77509 0.00638157 0)
(6.74905 0.00600284 0)
(6.72475 0.00572514 0)
(6.70196 0.00552152 0)
(6.6805 0.0053733 0)
(6.66022 0.00526806 0)
(6.64096 0.00519816 0)
(6.62262 0.00515969 0)
(6.60505 0.00515208 0)
(6.58816 0.00517812 0)
(6.5718 0.00524506 0)
(6.55583 0.00536596 0)
(6.54009 0.0055664 0)
(6.52431 0.00589596 0)
(6.50821 0.00641055 0)
(6.49085 0.00756604 0)
(6.47202 0.00853176 0)
(6.44717 0.015786 0)
(6.41293 0.0163499 0)
(6.36329 0.0293431 0)
(7.32387 0.121389 0)
(7.30439 0.123284 0)
(7.30894 0.0779908 0)
(7.32916 0.052818 0)
(7.34721 0.0392237 0)
(7.35524 0.0314249 0)
(7.35421 0.0269804 0)
(7.34705 0.0242435 0)
(7.33604 0.0223567 0)
(7.32275 0.0209289 0)
(7.30824 0.0197648 0)
(7.29317 0.0187645 0)
(7.27794 0.0178781 0)
(7.2628 0.0170799 0)
(7.24789 0.0163557 0)
(7.23328 0.0156971 0)
(7.21903 0.015099 0)
(7.20515 0.014558 0)
(7.19165 0.0140726 0)
(7.17851 0.0136425 0)
(7.16572 0.0132691 0)
(7.15326 0.0129562 0)
(7.14112 0.0127104 0)
(7.12925 0.0125436 0)
(7.11763 0.012474 0)
(7.10623 0.0125403 0)
(7.09505 0.012785 0)
(7.08395 0.0133808 0)
(7.07348 0.0143794 0)
(7.06258 0.0167116 0)
(7.05619 0.020382 0)
(7.04936 0.0293844 0)
(7.06731 0.0464098 0)
(7.32565 -0.043789 0)
(7.32323 -0.0517205 0)
(7.33514 -0.0261825 0)
(7.34295 -0.00269103 0)
(7.34784 0.0104705 0)
(7.35199 0.0169349 0)
(7.35494 0.0200217 0)
(7.35641 0.0213251 0)
(7.35639 0.0216875 0)
(7.355 0.0215825 0)
(7.35246 0.0212578 0)
(7.34902 0.0208406 0)
(7.34486 0.0203974 0)
(7.34016 0.0199621 0)
(7.33505 0.0195509 0)
(7.32962 0.0191714 0)
(7.32396 0.0188272 0)
(7.31814 0.0185205 0)
(7.31218 0.0182532 0)
(7.30614 0.0180282 0)
(7.30001 0.0178498 0)
(7.29383 0.0177245 0)
(7.28759 0.0176622 0)
(7.28128 0.0176772 0)
(7.27488 0.0177924 0)
(7.26838 0.0180392 0)
(7.26174 0.0184806 0)
(7.25489 0.0191603 0)
(7.24794 0.0203537 0)
(7.24056 0.021773 0)
(7.2337 0.0249908 0)
(7.22631 0.0265251 0)
(7.22084 0.031962 0)
(7.33338 0.0117937 0)
(7.33034 0.032936 0)
(7.32951 0.0333769 0)
(7.33249 0.0276857 0)
(7.33787 0.0243166 0)
(7.34334 0.0228615 0)
(7.3479 0.022323 0)
(7.35149 0.0221217 0)
(7.35422 0.0220017 0)
(7.35613 0.0218816 0)
(7.35733 0.0217367 0)
(7.35791 0.0215621 0)
(7.35794 0.0213624 0)
(7.3575 0.0211463 0)
(7.35667 0.0209223 0)
(7.3555 0.0206992 0)
(7.35404 0.0204847 0)
(7.35232 0.0202867 0)
(7.35039 0.0201128 0)
(7.34826 0.0199713 0)
(7.34596 0.0198718 0)
(7.34349 0.0198261 0)
(7.34086 0.0198496 0)
(7.33806 0.0199627 0)
(7.33509 0.0201945 0)
(7.33192 0.0205852 0)
(7.32857 0.0211987 0)
(7.32497 0.0221102 0)
(7.32124 0.0234928 0)
(7.31725 0.0253891 0)
(7.31357 0.0283939 0)
(7.31006 0.0318767 0)
(7.30817 0.037726 0)
(7.33122 -0.0035154 0)
(7.33003 -0.00430646 0)
(7.33356 0.00132022 0)
(7.3371 0.00878979 0)
(7.34035 0.014177 0)
(7.34357 0.0172079 0)
(7.34666 0.018875 0)
(7.34957 0.0198213 0)
(7.35224 0.020352 0)
(7.35459 0.0206384 0)
(7.35661 0.0207771 0)
(7.35831 0.0208224 0)
(7.35971 0.0208087 0)
(7.36081 0.020759 0)
(7.36165 0.0206896 0)
(7.36224 0.0206128 0)
(7.3626 0.0205387 0)
(7.36276 0.0204767 0)
(7.36272 0.0204357 0)
(7.36249 0.0204255 0)
(7.3621 0.0204577 0)
(7.36153 0.0205459 0)
(7.3608 0.0207076 0)
(7.35989 0.0209657 0)
(7.35881 0.0213512 0)
(7.35755 0.0219042 0)
(7.3561 0.0226859 0)
(7.35447 0.0237581 0)
(7.35272 0.0252582 0)
(7.35084 0.0271924 0)
(7.34915 0.0299062 0)
(7.34764 0.0328673 0)
(7.34679 0.0367545 0)
(7.33264 0.00209288 0)
(7.33222 0.00993604 0)
(7.33389 0.0141557 0)
(7.33635 0.0160568 0)
(7.33929 0.0171961 0)
(7.34242 0.0180044 0)
(7.3454 0.0186496 0)
(7.34817 0.0191523 0)
(7.35073 0.0195121 0)
(7.35309 0.019759 0)
(7.35526 0.0199239 0)
(7.35724 0.0200288 0)
(7.35904 0.0200906 0)
(7.36066 0.020123 0)
(7.36211 0.0201374 0)
(7.3634 0.0201437 0)
(7.36453 0.0201511 0)
(7.36551 0.020169 0)
(7.36635 0.0202072 0)
(7.36704 0.0202766 0)
(7.36758 0.0203899 0)
(7.36798 0.0205624 0)
(7.36824 0.0208131 0)
(7.36836 0.0211663 0)
(7.36832 0.0216533 0)
(7.36814 0.0223136 0)
(7.36781 0.0232017 0)
(7.36736 0.024374 0)
(7.36683 0.0259272 0)
(7.36628 0.0278865 0)
(7.36588 0.030422 0)
(7.36571 0.0333028 0)
(7.36598 0.0367886 0)
(7.33258 0.000845067 0)
(7.33241 0.00456255 0)
(7.33424 0.00814478 0)
(7.33679 0.0113781 0)
(7.33953 0.013997 0)
(7.3423 0.0158075 0)
(7.34494 0.0170005 0)
(7.34743 0.0177907 0)
(7.34978 0.0183139 0)
(7.35201 0.018664 0)
(7.35412 0.0189021 0)
(7.3561 0.0190657 0)
(7.35797 0.0191795 0)
(7.35973 0.0192615 0)
(7.36138 0.0193252 0)
(7.36293 0.0193818 0)
(7.36437 0.0194413 0)
(7.3657 0.0195136 0)
(7.36693 0.0196088 0)
(7.36805 0.0197385 0)
(7.36906 0.0199159 0)
(7.36996 0.0201567 0)
(7.37075 0.0204804 0)
(7.37143 0.0209109 0)
(7.37199 0.0214782 0)
(7.37245 0.0222187 0)
(7.37281 0.023179 0)
(7.37309 0.0244065 0)
(7.37335 0.0259687 0)
(7.37364 0.0278893 0)
(7.37408 0.0302505 0)
(7.37474 0.0329352 0)
(7.37573 0.0360087 0)
(7.33284 0.0013489 0)
(7.333 0.00540429 0)
(7.33453 0.00899375 0)
(7.33672 0.0117189 0)
(7.33916 0.0137339 0)
(7.34171 0.0151406 0)
(7.34422 0.0161252 0)
(7.34661 0.016829 0)
(7.34888 0.017329 0)
(7.35103 0.0176835 0)
(7.35308 0.017937 0)
(7.35503 0.0181207 0)
(7.3569 0.0182571 0)
(7.35868 0.0183634 0)
(7.36038 0.0184529 0)
(7.36201 0.018537 0)
(7.36356 0.0186259 0)
(7.36504 0.0187298 0)
(7.36644 0.0188593 0)
(7.36776 0.0190261 0)
(7.36901 0.0192436 0)
(7.37017 0.0195278 0)
(7.37125 0.0198977 0)
(7.37225 0.0203761 0)
(7.37317 0.0209909 0)
(7.37402 0.0217743 0)
(7.37482 0.0227654 0)
(7.3756 0.0240026 0)
(7.37639 0.0255328 0)
(7.37725 0.0273765 0)
(7.37826 0.0295726 0)
(7.37949 0.0320649 0)
(7.38099 0.0348598 0)
(7.33291 0.00135061 0)
(7.33319 0.00473377 0)
(7.33457 0.00781347 0)
(7.33656 0.0103228 0)
(7.33882 0.012329 0)
(7.3412 0.013831 0)
(7.34356 0.0149178 0)
(7.34583 0.0156995 0)
(7.34801 0.0162566 0)
(7.3501 0.0166532 0)
(7.3521 0.0169384 0)
(7.35401 0.0171469 0)
(7.35586 0.0173037 0)
(7.35763 0.0174278 0)
(7.35934 0.0175338 0)
(7.36099 0.0176343 0)
(7.36259 0.0177403 0)
(7.36412 0.0178626 0)
(7.3656 0.0180121 0)
(7.36702 0.018201 0)
(7.36839 0.0184426 0)
(7.36969 0.0187525 0)
(7.37094 0.019149 0)
(7.37214 0.0196533 0)
(7.37329 0.0202902 0)
(7.37441 0.0210877 0)
(7.37551 0.0220774 0)
(7.37662 0.0232898 0)
(7.37778 0.0247572 0)
(7.37904 0.0264951 0)
(7.38046 0.0285215 0)
(7.3821 0.0308081 0)
(7.38398 0.0333426 0)
(7.33297 0.00132929 0)
(7.33333 0.0043847 0)
(7.33457 0.0072252 0)
(7.33637 0.00957253 0)
(7.33843 0.0114463 0)
(7.34062 0.0128648 0)
(7.34284 0.013909 0)
(7.34502 0.0146759 0)
(7.34713 0.0152364 0)
(7.34916 0.015645 0)
(7.35112 0.0159447 0)
(7.353 0.0161674 0)
(7.35483 0.016337 0)
(7.35659 0.0164724 0)
(7.3583 0.0165887 0)
(7.35996 0.0166988 0)
(7.36157 0.0168144 0)
(7.36314 0.0169464 0)
(7.36466 0.0171061 0)
(7.36613 0.0173057 0)
(7.36757 0.0175584 0)
(7.36897 0.017879 0)
(7.37033 0.0182846 0)
(7.37166 0.0187944 0)
(7.37297 0.0194302 0)
(7.37428 0.0202155 0)
(7.3756 0.0211753 0)
(7.37696 0.0223331 0)
(7.3784 0.023711 0)
(7.37996 0.0253199 0)
(7.38168 0.0271672 0)
(7.38362 0.0292374 0)
(7.3858 0.0315149 0)
(7.333 0.00126972 0)
(7.3334 0.00400843 0)
(7.33452 0.0065611 0)
(7.33614 0.0087077 0)
(7.33803 0.0104539 0)
(7.34007 0.0118158 0)
(7.34216 0.012847 0)
(7.34423 0.0136199 0)
(7.34626 0.0141943 0)
(7.34824 0.0146185 0)
(7.35015 0.0149328 0)
(7.35201 0.015168 0)
(7.35381 0.015348 0)
(7.35556 0.0154918 0)
(7.35727 0.0156149 0)
(7.35893 0.0157304 0)
(7.36056 0.0158504 0)
(7.36214 0.0159861 0)
(7.36369 0.0161489 0)
(7.36521 0.0163505 0)
(7.3667 0.0166039 0)
(7.36817 0.0169229 0)
(7.36962 0.0173232 0)
(7.37105 0.0178217 0)
(7.37249 0.0184369 0)
(7.37395 0.0191882 0)
(7.37544 0.020095 0)
(7.37699 0.0211746 0)
(7.37865 0.0224417 0)
(7.38043 0.0239032 0)
(7.38239 0.0255607 0)
(7.38457 0.0274039 0)
(7.38698 0.0294173 0)
(7.33302 0.00118829 0)
(7.33342 0.00365649 0)
(7.33445 0.00596432 0)
(7.33592 0.0079376 0)
(7.33765 0.0095639 0)
(7.33954 0.010854 0)
(7.3415 0.0118476 0)
(7.34348 0.0126028 0)
(7.34543 0.0131718 0)
(7.34734 0.0135976 0)
(7.34921 0.0139162 0)
(7.35104 0.0141565 0)
(7.35282 0.0143412 0)
(7.35456 0.0144886 0)
(7.35626 0.014614 0)
(7.35793 0.0147306 0)
(7.35956 0.0148502 0)
(7.36117 0.0149842 0)
(7.36274 0.0151436 0)
(7.3643 0.0153398 0)
(7.36583 0.0155848 0)
(7.36736 0.0158915 0)
(7.36888 0.0162738 0)
(7.3704 0.0167462 0)
(7.37195 0.0173241 0)
(7.37353 0.0180229 0)
(7.37516 0.0188572 0)
(7.37688 0.0198393 0)
(7.3787 0.0209782 0)
(7.38067 0.0222774 0)
(7.38282 0.023735 0)
(7.38518 0.0253421 0)
(7.38777 0.0270836 0)
(7.33303 0.0010964 0)
(7.33342 0.00332095 0)
(7.33436 0.00540099 0)
(7.3357 0.0072018 0)
(7.33729 0.00870339 0)
(7.33905 0.00991355 0)
(7.34089 0.0108616 0)
(7.34277 0.0115928 0)
(7.34464 0.0121505 0)
(7.3465 0.0125722 0)
(7.34832 0.01289 0)
(7.35012 0.0131306 0)
(7.35187 0.0133153 0)
(7.3536 0.013462 0)
(7.35529 0.0135854 0)
(7.35696 0.0136986 0)
(7.3586 0.0138132 0)
(7.36022 0.0139401 0)
(7.36182 0.01409 0)
(7.36341 0.0142736 0)
(7.36498 0.0145019 0)
(7.36656 0.0147864 0)
(7.36815 0.0151392 0)
(7.36975 0.0155725 0)
(7.37139 0.0160987 0)
(7.37307 0.0167294 0)
(7.37483 0.0174753 0)
(7.37667 0.0183443 0)
(7.37864 0.0193414 0)
(7.38076 0.0204668 0)
(7.38305 0.0217162 0)
(7.38555 0.0230804 0)
(7.38828 0.0245444 0)
(7.33303 0.0010004 0)
(7.33341 0.00300172 0)
(7.33427 0.00487238 0)
(7.3355 0.00650899 0)
(7.33697 0.00788818 0)
(7.3386 0.00901398 0)
(7.34034 0.00990776 0)
(7.34212 0.0106049 0)
(7.34392 0.0111415 0)
(7.34571 0.0115502 0)
(7.34749 0.0118596 0)
(7.34925 0.0120939 0)
(7.35098 0.012273 0)
(7.35269 0.0124138 0)
(7.35437 0.0125305 0)
(7.35604 0.0126354 0)
(7.35768 0.0127399 0)
(7.35931 0.0128542 0)
(7.36093 0.0129883 0)
(7.36255 0.0131522 0)
(7.36417 0.0133557 0)
(7.36579 0.0136089 0)
(7.36743 0.0139218 0)
(7.36911 0.0143044 0)
(7.37082 0.0147662 0)
(7.3726 0.0153158 0)
(7.37445 0.0159602 0)
(7.37641 0.0167039 0)
(7.37849 0.0175484 0)
(7.38072 0.0184914 0)
(7.38313 0.0195266 0)
(7.38574 0.020644 0)
(7.38857 0.0218286 0)
(7.33303 0.000904097 0)
(7.33339 0.00269782 0)
(7.33418 0.00437366 0)
(7.33531 0.00585184 0)
(7.33667 0.00710872 0)
(7.33819 0.00814535 0)
(7.33983 0.00897747 0)
(7.34153 0.00963255 0)
(7.34325 0.0101405 0)
(7.34498 0.0105293 0)
(7.34671 0.0108239 0)
(7.34843 0.0110462 0)
(7.35014 0.0112145 0)
(7.35183 0.0113445 0)
(7.3535 0.0114495 0)
(7.35516 0.0115413 0)
(7.35681 0.0116304 0)
(7.35845 0.0117266 0)
(7.36009 0.0118389 0)
(7.36173 0.0119763 0)
(7.36338 0.0121473 0)
(7.36505 0.0123606 0)
(7.36674 0.0126242 0)
(7.36847 0.0129459 0)
(7.37025 0.0133327 0)
(7.37211 0.0137902 0)
(7.37404 0.0143226 0)
(7.37608 0.0149313 0)
(7.37825 0.0156154 0)
(7.38057 0.0163703 0)
(7.38306 0.0171882 0)
(7.38575 0.0180581 0)
(7.38864 0.018965 0)
(7.33303 0.000809584 0)
(7.33337 0.00240826 0)
(7.3341 0.00390149 0)
(7.33514 0.00522702 0)
(7.3364 0.00636259 0)
(7.33783 0.00730699 0)
(7.33937 0.00807157 0)
(7.34099 0.00867762 0)
(7.34264 0.00914965 0)
(7.34432 0.00951142 0)
(7.346 0.0097848 0)
(7.34768 0.00998912 0)
(7.34936 0.0101411 0)
(7.35103 0.0102551 0)
(7.35269 0.0103434 0)
(7.35434 0.0104171 0)
(7.35599 0.0104858 0)
(7.35764 0.0105582 0)
(7.35929 0.0106428 0)
(7.36095 0.0107471 0)
(7.36263 0.0108786 0)
(7.36433 0.0110442 0)
(7.36607 0.0112501 0)
(7.36785 0.0115022 0)
(7.36968 0.0118049 0)
(7.37159 0.0121617 0)
(7.37359 0.012574 0)
(7.3757 0.013041 0)
(7.37794 0.0135595 0)
(7.38031 0.0141234 0)
(7.38286 0.0147236 0)
(7.38559 0.0153483 0)
(7.38851 0.0159828 0)
(7.33303 0.000717892 0)
(7.33334 0.00213196 0)
(7.33402 0.00345268 0)
(7.33498 0.00463067 0)
(7.33616 0.00564584 0)
(7.3375 0.00649535 0)
(7.33896 0.00718726 0)
(7.3405 0.00773801 0)
(7.34209 0.00816754 0)
(7.34371 0.00849591 0)
(7.34535 0.00874195 0)
(7.34699 0.00892268 0)
(7.34864 0.00905304 0)
(7.35029 0.009146 0)
(7.35193 0.00921283 0)
(7.35358 0.00926343 0)
(7.35523 0.00930658 0)
(7.35688 0.00935014 0)
(7.35854 0.0094013 0)
(7.36022 0.00946661 0)
(7.36192 0.00955207 0)
(7.36364 0.00966306 0)
(7.36541 0.00980423 0)
(7.36723 0.00997934 0)
(7.3691 0.010191 0)
(7.37106 0.0104404 0)
(7.3731 0.0107269 0)
(7.37526 0.0110479 0)
(7.37753 0.0113985 0)
(7.37995 0.0117712 0)
(7.38251 0.0121561 0)
(7.38526 0.0125411 0)
(7.38818 0.0129116 0)
(7.33303 0.000629426 0)
(7.33332 0.00186777 0)
(7.33395 0.00302439 0)
(7.33485 0.00405943 0)
(7.33595 0.00495517 0)
(7.33721 0.00570778 0)
(7.33859 0.00632276 0)
(7.34006 0.00681277 0)
(7.34159 0.0071939 0)
(7.34316 0.0074829 0)
(7.34475 0.00769586 0)
(7.34636 0.00784757 0)
(7.34798 0.00795117 0)
(7.3496 0.0080182 0)
(7.35123 0.00805872 0)
(7.35287 0.00808153 0)
(7.35451 0.00809437 0)
(7.35616 0.00810407 0)
(7.35783 0.00811668 0)
(7.35952 0.00813757 0)
(7.36123 0.00817138 0)
(7.36298 0.00822204 0)
(7.36476 0.0082926 0)
(7.36661 0.00838512 0)
(7.36851 0.00850042 0)
(7.37049 0.00863792 0)
(7.37257 0.00879533 0)
(7.37474 0.00896853 0)
(7.37704 0.0091513 0)
(7.37946 0.00933538 0)
(7.38203 0.00951026 0)
(7.38476 0.00966349 0)
(7.38764 0.00978147 0)
(7.33302 0.000544219 0)
(7.3333 0.0016145 0)
(7.33389 0.00261403 0)
(7.33473 0.00351013 0)
(7.33576 0.00428737 0)
(7.33695 0.0049414 0)
(7.33826 0.00547578 0)
(7.33967 0.00590019 0)
(7.34114 0.00622753 0)
(7.34266 0.00647163 0)
(7.34421 0.00664609 0)
(7.34578 0.00676358 0)
(7.34737 0.00683548 0)
(7.34897 0.00687186 0)
(7.35058 0.0068815 0)
(7.35221 0.00687205 0)
(7.35384 0.00685012 0)
(7.35549 0.00682144 0)
(7.35716 0.00679094 0)
(7.35885 0.00676275 0)
(7.36057 0.00674024 0)
(7.36233 0.00672595 0)
(7.36413 0.00672148 0)
(7.36598 0.00672738 0)
(7.3679 0.00674297 0)
(7.3699 0.0067662 0)
(7.37198 0.00679345 0)
(7.37416 0.00681945 0)
(7.37645 0.0068371 0)
(7.37886 0.00683757 0)
(7.3814 0.00681012 0)
(7.38408 0.00674239 0)
(7.38691 0.00662172 0)
(7.33302 0.000462102 0)
(7.33328 0.00137093 0)
(7.33383 0.00221925 0)
(7.33462 0.00297988 0)
(7.33559 0.0036395 0)
(7.33672 0.00419358 0)
(7.33797 0.00464428 0)
(7.33932 0.00499891 0)
(7.34073 0.00526773 0)
(7.3422 0.00546203 0)
(7.34371 0.00559312 0)
(7.34525 0.00567167 0)
(7.34681 0.00570738 0)
(7.34839 0.00570881 0)
(7.34999 0.00568342 0)
(7.35159 0.00563767 0)
(7.35322 0.00557701 0)
(7.35486 0.00550606 0)
(7.35652 0.00542858 0)
(7.35821 0.00534753 0)
(7.35993 0.00526507 0)
(7.36169 0.00518243 0)
(7.36349 0.00509995 0)
(7.36535 0.00501686 0)
(7.36727 0.00493122 0)
(7.36926 0.00483982 0)
(7.37133 0.00473802 0)
(7.37349 0.0046197 0)
(7.37576 0.00447722 0)
(7.37813 0.00430143 0)
(7.38063 0.0040817 0)
(7.38325 0.00380596 0)
(7.386 0.00346264 0)
(7.33302 0.000382798 0)
(7.33327 0.00113588 0)
(7.33378 0.00183789 0)
(7.33452 0.00246593 0)
(7.33544 0.00300857 0)
(7.33651 0.00346139 0)
(7.33771 0.00382549 0)
(7.339 0.00410638 0)
(7.34037 0.00431211 0)
(7.3418 0.00445181 0)
(7.34327 0.00453474 0)
(7.34477 0.00456975 0)
(7.34631 0.00456487 0)
(7.34786 0.00452721 0)
(7.34943 0.00446291 0)
(7.35102 0.00437719 0)
(7.35263 0.00427434 0)
(7.35426 0.00415784 0)
(7.35592 0.00403032 0)
(7.3576 0.00389362 0)
(7.35931 0.00374871 0)
(7.36106 0.00359572 0)
(7.36285 0.00343382 0)
(7.3647 0.00326114 0)
(7.3666 0.00307472 0)
(7.36858 0.00287043 0)
(7.37062 0.00264287 0)
(7.37275 0.00238539 0)
(7.37498 0.00209003 0)
(7.3773 0.00174764 0)
(7.37972 0.00134783 0)
(7.38225 0.000879117 0)
(7.3849 0.000331106 0)
(7.33302 0.000305984 0)
(7.33325 0.000908236 0)
(7.33374 0.00146803 0)
(7.33444 0.001966 0)
(7.33531 0.0023924 0)
(7.33633 0.00274313 0)
(7.33748 0.00301861 0)
(7.33872 0.0032229 0)
(7.34005 0.00336224 0)
(7.34143 0.0034438 0)
(7.34287 0.00347499 0)
(7.34434 0.00346291 0)
(7.34584 0.00341402 0)
(7.34737 0.003334 0)
(7.34892 0.00322768 0)
(7.3505 0.00309906 0)
(7.35209 0.0029513 0)
(7.3537 0.00278674 0)
(7.35534 0.00260695 0)
(7.357 0.00241271 0)
(7.3587 0.00220395 0)
(7.36043 0.00197976 0)
(7.36221 0.00173833 0)
(7.36403 0.0014769 0)
(7.36591 0.00119171 0)
(7.36785 0.000877932 0)
(7.36986 0.000529671 0)
(7.37194 0.000139963 0)
(7.3741 -0.000299214 0)
(7.37634 -0.000796844 0)
(7.37868 -0.00136285 0)
(7.38111 -0.00200803 0)
(7.38362 -0.00274155 0)
(7.33302 0.000231321 0)
(7.33324 0.000686834 0)
(7.3337 0.00110758 0)
(7.33436 0.00147699 0)
(7.3352 0.00178682 0)
(7.33617 0.00203345 0)
(7.33728 0.00221695 0)
(7.33848 0.00234038 0)
(7.33976 0.0024086 0)
(7.34111 0.00242717 0)
(7.34251 0.00240199 0)
(7.34395 0.0023386 0)
(7.34543 0.00224192 0)
(7.34693 0.00211621 0)
(7.34846 0.00196497 0)
(7.35001 0.00179107 0)
(7.35158 0.00159646 0)
(7.35317 0.00138241 0)
(7.35479 0.00114941 0)
(7.35643 0.000897241 0)
(7.35811 0.000624885 0)
(7.35981 0.000330544 0)
(7.36156 1.1572e-05 0)
(7.36335 -0.00033554 0)
(7.36519 -0.000715183 0)
(7.36708 -0.00113265 0)
(7.36903 -0.00159415 0)
(7.37105 -0.00210674 0)
(7.37313 -0.00267834 0)
(7.37528 -0.00331759 0)
(7.37751 -0.00403382 0)
(7.37982 -0.00483705 0)
(7.3822 -0.00573519 0)
(7.33302 0.000158512 0)
(7.33322 0.000470949 0)
(7.33366 0.000755855 0)
(7.3343 0.000999186 0)
(7.33509 0.00119421 0)
(7.33603 0.00133787 0)
(7.3371 0.00142993 0)
(7.33826 0.00147255 0)
(7.33951 0.00146939 0)
(7.34082 0.00142409 0)
(7.34219 0.00134109 0)
(7.3436 0.00122459 0)
(7.34505 0.00107818 0)
(7.34653 0.000904817 0)
(7.34803 0.00070683 0)
(7.34956 0.000485765 0)
(7.3511 0.000242632 0)
(7.35267 -2.2272e-05 0)
(7.35426 -0.000309377 0)
(7.35588 -0.000619807 0)
(7.35752 -0.000955399 0)
(7.3592 -0.0013187 0)
(7.36091 -0.00171303 0)
(7.36265 -0.00214246 0)
(7.36444 -0.00261182 0)
(7.36627 -0.00312669 0)
(7.36816 -0.0036934 0)
(7.37009 -0.00431897 0)
(7.37208 -0.00501105 0)
(7.37413 -0.00577782 0)
(7.37624 -0.00662794 0)
(7.37841 -0.00757058 0)
(7.38063 -0.00861244 0)
(7.33302 8.71614e-05 0)
(7.33321 0.000258707 0)
(7.33363 0.000408004 0)
(7.33424 0.000522775 0)
(7.33501 0.000597844 0)
(7.33591 0.000631365 0)
(7.33694 0.000623703 0)
(7.33808 0.000576905 0)
(7.33929 0.000493701 0)
(7.34057 0.000377855 0)
(7.34191 0.000232022 0)
(7.34329 5.8571e-05 0)
(7.34472 -0.000140332 0)
(7.34617 -0.00036305 0)
(7.34764 -0.000608536 0)
(7.34914 -0.000876463 0)
(7.35066 -0.00116694 0)
(7.3522 -0.00148072 0)
(7.35376 -0.00181916 0)
(7.35535 -0.00218427 0)
(7.35695 -0.00257864 0)
(7.35859 -0.00300551 0)
(7.36025 -0.00346875 0)
(7.36194 -0.00397286 0)
(7.36367 -0.00452297 0)
(7.36543 -0.00512482 0)
(7.36723 -0.00578474 0)
(7.36907 -0.00650955 0)
(7.37096 -0.00730654 0)
(7.37289 -0.00818334 0)
(7.37486 -0.00914788 0)
(7.37688 -0.0102084 0)
(7.37894 -0.0113705 0)
(7.33302 1.74286e-05 0)
(7.3332 5.28206e-05 0)
(7.3336 7.34896e-05 0)
(7.33419 6.90478e-05 0)
(7.33492 3.51992e-05 0)
(7.3358 -2.99446e-05 0)
(7.3368 -0.0001267 0)
(7.3379 -0.000254008 0)
(7.33909 -0.000410231 0)
(7.34035 -0.000592705 0)
(7.34166 -0.000799874 0)
(7.34302 -0.00103044 0)
(7.34442 -0.00128326 0)
(7.34584 -0.00155768 0)
(7.3473 -0.00185364 0)
(7.34877 -0.00217152 0)
(7.35026 -0.00251235 0)
(7.35177 -0.00287771 0)
(7.3533 -0.00326967 0)
(7.35484 -0.00369087 0)
(7.35641 -0.00414449 0)
(7.35799 -0.00463425 0)
(7.35959 -0.00516439 0)
(7.36122 -0.00573972 0)
(7.36288 -0.00636553 0)
(7.36456 -0.00704757 0)
(7.36627 -0.00779205 0)
(7.36801 -0.00860552 0)
(7.36978 -0.00949482 0)
(7.37159 -0.010467 0)
(7.37342 -0.0115293 0)
(7.37528 -0.0126891 0)
(7.37716 -0.0139508 0)
(7.33302 -5.23436e-05 0)
(7.3332 -0.000158655 0)
(7.33359 -0.00028146 0)
(7.33415 -0.000429012 0)
(7.33487 -0.000601109 0)
(7.33572 -0.000795143 0)
(7.3367 -0.00100842 0)
(7.33778 -0.00123863 0)
(7.33894 -0.00148404 0)
(7.34017 -0.00174427 0)
(7.34146 -0.00201894 0)
(7.34279 -0.00230815 0)
(7.34416 -0.00261264 0)
(7.34556 -0.00293357 0)
(7.34699 -0.00327246 0)
(7.34843 -0.00363117 0)
(7.34989 -0.00401197 0)
(7.35136 -0.00441748 0)
(7.35285 -0.00485069 0)
(7.35435 -0.00531499 0)
(7.35587 -0.00581418 0)
(7.3574 -0.00635244 0)
(7.35894 -0.00693439 0)
(7.3605 -0.007565 0)
(7.36208 -0.00824963 0)
(7.36367 -0.00899396 0)
(7.36528 -0.00980396 0)
(7.36691 -0.0106858 0)
(7.36856 -0.0116459 0)
(7.37022 -0.0126905 0)
(7.37191 -0.0138262 0)
(7.3736 -0.0150595 0)
(7.37531 -0.0163939 0)
(7.33301 -0.000116781 0)
(7.33318 -0.000339373 0)
(7.33354 -0.000562566 0)
(7.33408 -0.00079788 0)
(7.33477 -0.00104974 0)
(7.3356 -0.00131947 0)
(7.33656 -0.00160663 0)
(7.33763 -0.00190966 0)
(7.33878 -0.00222684 0)
(7.34 -0.002557 0)
(7.34128 -0.00289943 0)
(7.3426 -0.00325417 0)
(7.34395 -0.00362193 0)
(7.34533 -0.00400399 0)
(7.34673 -0.00440212 0)
(7.34815 -0.00481855 0)
(7.34958 -0.00525593 0)
(7.35102 -0.00571732 0)
(7.35246 -0.00620617 0)
(7.35392 -0.00672626 0)
(7.35538 -0.00728176 0)
(7.35685 -0.00787716 0)
(7.35832 -0.00851724 0)
(7.35981 -0.00920712 0)
(7.3613 -0.00995215 0)
(7.3628 -0.0107579 0)
(7.3643 -0.0116301 0)
(7.36581 -0.0125746 0)
(7.36733 -0.0135972 0)
(7.36885 -0.0147039 0)
(7.37038 -0.0159004 0)
(7.3719 -0.0171924 0)
(7.37342 -0.0185827 0)
(7.33302 -0.000195295 0)
(7.3332 -0.000601713 0)
(7.33357 -0.00103537 0)
(7.33411 -0.00149012 0)
(7.33478 -0.00194974 0)
(7.3356 -0.00240202 0)
(7.33654 -0.0028412 0)
(7.33757 -0.003266 0)
(7.3387 -0.00367784 0)
(7.33989 -0.00407985 0)
(7.34114 -0.00447593 0)
(7.34243 -0.00487034 0)
(7.34376 -0.00526744 0)
(7.34511 -0.00567155 0)
(7.34649 -0.00608692 0)
(7.34787 -0.00651778 0)
(7.34926 -0.00696833 0)
(7.35066 -0.00744279 0)
(7.35207 -0.0079455 0)
(7.35347 -0.00848087 0)
(7.35488 -0.00905348 0)
(7.35628 -0.00966805 0)
(7.35769 -0.0103295 0)
(7.35909 -0.0110428 0)
(7.3605 -0.0118131 0)
(7.3619 -0.0126457 0)
(7.36329 -0.013546 0)
(7.36468 -0.0145192 0)
(7.36607 -0.0155706 0)
(7.36744 -0.0167054 0)
(7.36881 -0.0179285 0)
(7.37016 -0.0192449 0)
(7.3715 -0.0206566 0)
(7.333 -0.000219668 0)
(7.3331 -0.000613523 0)
(7.3334 -0.000995259 0)
(7.33389 -0.00140081 0)
(7.33456 -0.00184025 0)
(7.33539 -0.00230927 0)
(7.33635 -0.00279859 0)
(7.33742 -0.00329903 0)
(7.33857 -0.00380381 0)
(7.33979 -0.00430892 0)
(7.34106 -0.00481266 0)
(7.34236 -0.00531516 0)
(7.34368 -0.00581798 0)
(7.34503 -0.00632367 0)
(7.34638 -0.00683551 0)
(7.34774 -0.0073573 0)
(7.3491 -0.00789319 0)
(7.35046 -0.00844762 0)
(7.35182 -0.00902523 0)
(7.35317 -0.00963083 0)
(7.35452 -0.0102694 0)
(7.35586 -0.0109459 0)
(7.35718 -0.0116657 0)
(7.3585 -0.0124338 0)
(7.35981 -0.0132555 0)
(7.3611 -0.0141362 0)
(7.36238 -0.0150809 0)
(7.36364 -0.0160949 0)
(7.36488 -0.017183 0)
(7.36611 -0.01835 0)
(7.36731 -0.0196005 0)
(7.36849 -0.0209389 0)
(7.36964 -0.0223666 0)
(7.33305 -0.000401175 0)
(7.3333 -0.00126829 0)
(7.33367 -0.00218482 0)
(7.33415 -0.00308328 0)
(7.33477 -0.00391326 0)
(7.33553 -0.00465911 0)
(7.33642 -0.00532486 0)
(7.33742 -0.00592161 0)
(7.33851 -0.00646256 0)
(7.33968 -0.00696097 0)
(7.34091 -0.00742916 0)
(7.34217 -0.00787808 0)
(7.34347 -0.00831727 0)
(7.34479 -0.00875498 0)
(7.34612 -0.00919843 0)
(7.34745 -0.00965398 0)
(7.34878 -0.0101274 0)
(7.3501 -0.0106241 0)
(7.35142 -0.011149 0)
(7.35273 -0.0117071 0)
(7.35402 -0.012303 0)
(7.35529 -0.0129415 0)
(7.35655 -0.0136271 0)
(7.35779 -0.0143645 0)
(7.35901 -0.0151582 0)
(7.3602 -0.0160128 0)
(7.36137 -0.0169326 0)
(7.36251 -0.017922 0)
(7.36363 -0.0189851 0)
(7.36471 -0.0201258 0)
(7.36576 -0.0213477 0)
(7.36677 -0.0226545 0)
(7.36774 -0.0240469 0)
(7.33293 -0.000136598 0)
(7.33283 -0.000322015 0)
(7.33299 -0.000567991 0)
(7.33346 -0.000999839 0)
(7.33419 -0.0016058 0)
(7.33511 -0.00232449 0)
(7.33616 -0.00310053 0)
(7.33731 -0.00389576 0)
(7.33853 -0.00468636 0)
(7.33979 -0.00545864 0)
(7.34107 -0.00620625 0)
(7.34238 -0.00692797 0)
(7.3437 -0.00762586 0)
(7.34501 -0.00830408 0)
(7.34633 -0.00896795 0)
(7.34763 -0.00962347 0)
(7.34892 -0.0102769 0)
(7.3502 -0.0109346 0)
(7.35146 -0.0116029 0)
(7.3527 -0.012288 0)
(7.35391 -0.012996 0)
(7.35511 -0.0137328 0)
(7.35627 -0.014504 0)
(7.35741 -0.0153151 0)
(7.35852 -0.0161716 0)
(7.3596 -0.0170785 0)
(7.36064 -0.0180406 0)
(7.36165 -0.0190625 0)
(7.36262 -0.0201486 0)
(7.36354 -0.0213028 0)
(7.36443 -0.0225287 0)
(7.36527 -0.0238299 0)
(7.36606 -0.0252071 0)
(7.33316 -0.000850926 0)
(7.33362 -0.00283659 0)
(7.33394 -0.00478028 0)
(7.33421 -0.00641381 0)
(7.33463 -0.00769681 0)
(7.33525 -0.00869328 0)
(7.33605 -0.0094734 0)
(7.33701 -0.0100951 0)
(7.33809 -0.0106053 0)
(7.33926 -0.0110405 0)
(7.3405 -0.0114289 0)
(7.34177 -0.0117914 0)
(7.34308 -0.0121439 0)
(7.34439 -0.0124981 0)
(7.3457 -0.012863 0)
(7.34701 -0.0132456 0)
(7.3483 -0.0136518 0)
(7.34957 -0.0140864 0)
(7.35081 -0.0145538 0)
(7.35203 -0.0150577 0)
(7.35322 -0.015602 0)
(7.35437 -0.0161901 0)
(7.35549 -0.0168257 0)
(7.35657 -0.017512 0)
(7.35761 -0.0182524 0)
(7.35861 -0.0190503 0)
(7.35956 -0.0199087 0)
(7.36047 -0.0208307 0)
(7.36133 -0.0218191 0)
(7.36213 -0.0228766 0)
(7.36288 -0.0240056 0)
(7.36358 -0.0252086 0)
(7.36421 -0.0264855 0)
(7.33266 0.000542698 0)
(7.33187 0.00182323 0)
(7.33191 0.00249735 0)
(7.33265 0.00222673 0)
(7.33372 0.00130364 0)
(7.33494 5.63969e-05 0)
(7.33623 -0.00131516 0)
(7.33755 -0.00270571 0)
(7.33889 -0.00405651 0)
(7.34022 -0.00533608 0)
(7.34154 -0.00653211 0)
(7.34285 -0.00764412 0)
(7.34414 -0.00867804 0)
(7.34542 -0.00964311 0)
(7.34667 -0.0105501 0)
(7.34789 -0.0114102 0)
(7.34909 -0.0122345 0)
(7.35026 -0.0130332 0)
(7.3514 -0.0138162 0)
(7.35251 -0.0145926 0)
(7.35359 -0.0153707 0)
(7.35462 -0.0161581 0)
(7.35562 -0.0169619 0)
(7.35657 -0.0177887 0)
(7.35749 -0.0186444 0)
(7.35835 -0.0195344 0)
(7.35916 -0.0204639 0)
(7.35993 -0.0214373 0)
(7.36063 -0.0224587 0)
(7.36128 -0.0235318 0)
(7.36187 -0.0246598 0)
(7.3624 -0.0258456 0)
(7.36287 -0.02709 0)
(7.33353 -0.00200506 0)
(7.33444 -0.00679063 0)
(7.33405 -0.0112523 0)
(7.33334 -0.0140424 0)
(7.33313 -0.0156314 0)
(7.33347 -0.0165279 0)
(7.33419 -0.0169912 0)
(7.33518 -0.0171925 0)
(7.33635 -0.0172506 0)
(7.33764 -0.0172419 0)
(7.33899 -0.0172149 0)
(7.34039 -0.0171992 0)
(7.3418 -0.0172123 0)
(7.3432 -0.0172645 0)
(7.34458 -0.0173613 0)
(7.34594 -0.0175056 0)
(7.34726 -0.0176987 0)
(7.34854 -0.0179412 0)
(7.34978 -0.0182335 0)
(7.35097 -0.0185757 0)
(7.35212 -0.0189681 0)
(7.35321 -0.0194115 0)
(7.35425 -0.0199063 0)
(7.35523 -0.0204537 0)
(7.35615 -0.0210547 0)
(7.35702 -0.0217104 0)
(7.35782 -0.0224222 0)
(7.35856 -0.0231913 0)
(7.35924 -0.024019 0)
(7.35984 -0.0249065 0)
(7.36038 -0.025855 0)
(7.36084 -0.0268657 0)
(7.36123 -0.0279377 0)
(7.33179 0.00340645 0)
(7.32899 0.00924659 0)
(7.32947 0.0119061 0)
(7.33184 0.0116472 0)
(7.33397 0.00959108 0)
(7.33577 0.00693116 0)
(7.33739 0.0041688 0)
(7.33887 0.00149339 0)
(7.34024 -0.000994246 0)
(7.34153 -0.00325248 0)
(7.34276 -0.00527902 0)
(7.34396 -0.0070897 0)
(7.34513 -0.00870755 0)
(7.34628 -0.0101581 0)
(7.34741 -0.0114665 0)
(7.34852 -0.0126565 0)
(7.34962 -0.0137492 0)
(7.35069 -0.0147637 0)
(7.35174 -0.0157166 0)
(7.35277 -0.0166225 0)
(7.35376 -0.0174943 0)
(7.35471 -0.0183432 0)
(7.35563 -0.0191789 0)
(7.3565 -0.0200102 0)
(7.35733 -0.0208447 0)
(7.3581 -0.021689 0)
(7.35882 -0.0225491 0)
(7.35948 -0.0234301 0)
(7.36008 -0.0243368 0)
(7.36061 -0.0252728 0)
(7.36107 -0.0262418 0)
(7.36145 -0.0272465 0)
(7.36177 -0.0282882 0)
(7.33408 -0.00611512 0)
(7.33406 -0.0189201 0)
(7.33032 -0.0269314 0)
(7.32667 -0.0304128 0)
(7.32511 -0.0311613 0)
(7.32536 -0.0307034 0)
(7.32646 -0.0297115 0)
(7.32799 -0.0285115 0)
(7.32981 -0.0273009 0)
(7.33179 -0.0261831 0)
(7.33384 -0.0252029 0)
(7.33592 -0.0243749 0)
(7.33799 -0.0236988 0)
(7.34003 -0.0231662 0)
(7.34202 -0.0227653 0)
(7.34396 -0.0224834 0)
(7.34585 -0.0223086 0)
(7.34767 -0.0222297 0)
(7.34943 -0.0222373 0)
(7.35112 -0.0223234 0)
(7.35273 -0.0224811 0)
(7.35427 -0.0227052 0)
(7.35574 -0.0229911 0)
(7.35712 -0.0233355 0)
(7.35843 -0.0237358 0)
(7.35965 -0.02419 0)
(7.36078 -0.0246967 0)
(7.36183 -0.0252546 0)
(7.36279 -0.025863 0)
(7.36367 -0.0265215 0)
(7.36444 -0.0272295 0)
(7.36513 -0.0279871 0)
(7.36572 -0.0287925 0)
(7.32967 0.0198636 0)
(7.32498 0.0370173 0)
(7.32933 0.0377095 0)
(7.33514 0.0323148 0)
(7.33883 0.0259088 0)
(7.34107 0.0196145 0)
(7.34293 0.013737 0)
(7.34473 0.00847577 0)
(7.34654 0.00387604 0)
(7.34842 -0.000109161 0)
(7.35041 -0.00354957 0)
(7.35248 -0.00651724 0)
(7.35463 -0.00908162 0)
(7.35684 -0.0113058 0)
(7.35908 -0.0132448 0)
(7.36133 -0.0149459 0)
(7.36358 -0.0164492 0)
(7.3658 -0.0177886 0)
(7.36799 -0.0189929 0)
(7.37014 -0.0200862 0)
(7.37223 -0.0210892 0)
(7.37425 -0.0220192 0)
(7.3762 -0.0228911 0)
(7.37806 -0.0237175 0)
(7.37984 -0.0245093 0)
(7.38153 -0.025276 0)
(7.38312 -0.0260256 0)
(7.38462 -0.0267652 0)
(7.38601 -0.0275009 0)
(7.3873 -0.028238 0)
(7.38848 -0.0289814 0)
(7.38955 -0.0297349 0)
(7.39052 -0.0305019 0)
(7.32507 -0.0330738 0)
(7.29738 -0.0587458 0)
(7.2781 -0.0616587 0)
(7.27379 -0.0592654 0)
(7.28039 -0.0557404 0)
(7.29183 -0.0516783 0)
(7.30509 -0.0477217 0)
(7.31883 -0.0442002 0)
(7.33229 -0.0411627 0)
(7.34506 -0.0385913 0)
(7.35697 -0.0364486 0)
(7.36797 -0.0346835 0)
(7.37807 -0.0332423 0)
(7.38731 -0.0320764 0)
(7.39574 -0.0311429 0)
(7.40343 -0.0304054 0)
(7.41043 -0.0298333 0)
(7.41679 -0.0294012 0)
(7.42257 -0.0290886 0)
(7.42782 -0.0288783 0)
(7.43258 -0.0287569 0)
(7.43689 -0.0287132 0)
(7.44078 -0.0287383 0)
(7.44429 -0.0288252 0)
(7.44745 -0.028968 0)
(7.45027 -0.0291623 0)
(7.4528 -0.0294043 0)
(7.45503 -0.0296913 0)
(7.457 -0.0300208 0)
(7.45873 -0.0303909 0)
(7.46022 -0.0308001 0)
(7.4615 -0.0312469 0)
(7.46258 -0.031729 0)
(7.33915 0.134727 0)
(7.37621 0.127078 0)
(7.39344 0.0872181 0)
(7.38983 0.053344 0)
(7.37503 0.0283655 0)
(7.35426 0.0106518 0)
(7.33004 -0.00186066 0)