/*--------------------------------*- C++ -*----------------------------------*\
  =========                 |
  \\      /  F ield         | OpenFOAM: The Open Source CFD Toolbox
   \\    /   O peration     | Website:  https://openfoam.org
    \\  /    A nd           | Version:  10
     \\/     M anipulation  |
\*---------------------------------------------------------------------------*/
FoamFile
{
    format      ascii;
    class       volScalarField;
    location    "0.055";
    object      k;
}
// * * * * * * * * * * * * * * * * * * * * * * * * * * * * * * * * * * * * * //

dimensions      [0 2 -2 0 0 0 0];

internalField   nonuniform List<scalar> 
6820
(
0.196709
0.190616
0.184994
0.179724
0.174798
0.170249
0.166114
0.162407
0.159125
0.156249
0.153752
0.151602
0.149769
0.148218
0.146921
0.14585
0.14498
0.144288
0.143754
0.14336
0.143088
0.142926
0.14286
0.142878
0.142972
0.143133
0.14335
0.14364
0.143881
0.144625
0.14327
0.151991
0.113651
0.201954
0.200832
0.197543
0.193922
0.190841
0.188585
0.187156
0.186433
0.186266
0.186522
0.187097
0.187909
0.188898
0.19002
0.191242
0.192538
0.193888
0.195277
0.196694
0.198129
0.199575
0.201029
0.202488
0.203952
0.205423
0.206907
0.208417
0.209967
0.21159
0.213383
0.215197
0.218454
0.219548
0.200488
0.200474
0.199117
0.19707
0.194841
0.19269
0.190724
0.188986
0.187489
0.186232
0.185206
0.184395
0.18378
0.18334
0.183058
0.182914
0.182891
0.182976
0.183154
0.183414
0.183746
0.18414
0.184591
0.185091
0.185637
0.186227
0.186858
0.187537
0.188262
0.18907
0.18991
0.190948
0.191894
0.199662
0.199121
0.198219
0.196983
0.195545
0.194012
0.192458
0.190931
0.189462
0.188073
0.186775
0.185576
0.184479
0.183482
0.182583
0.18178
0.181066
0.180436
0.179885
0.179409
0.179
0.178656
0.17837
0.17814
0.177963
0.177835
0.177757
0.177729
0.177752
0.177838
0.177982
0.178219
0.17853
0.199429
0.198466
0.197531
0.196513
0.195399
0.194214
0.192986
0.191739
0.190494
0.189266
0.188068
0.186907
0.185792
0.184726
0.183712
0.182751
0.181844
0.180991
0.18019
0.179441
0.178741
0.178088
0.177482
0.176919
0.1764
0.175922
0.175485
0.175091
0.174739
0.174433
0.174177
0.173979
0.173839
0.199398
0.198268
0.197202
0.196166
0.195133
0.194088
0.193029
0.191958
0.190883
0.189812
0.188749
0.187703
0.186677
0.185675
0.184702
0.183758
0.182847
0.181968
0.181123
0.180311
0.179534
0.178789
0.178078
0.177399
0.176752
0.176138
0.175555
0.175004
0.174486
0.174003
0.173558
0.173155
0.172796
0.199395
0.19822
0.197098
0.196021
0.194978
0.193957
0.192952
0.191958
0.190973
0.189997
0.189031
0.188078
0.187139
0.186217
0.185312
0.184428
0.183564
0.182723
0.181904
0.181109
0.180338
0.179591
0.178867
0.178168
0.177493
0.176842
0.176215
0.175614
0.175037
0.174488
0.173967
0.173478
0.173023
0.199395
0.198211
0.197069
0.195969
0.194908
0.193881
0.192884
0.191912
0.190961
0.190029
0.189115
0.188217
0.187336
0.186471
0.185623
0.184793
0.18398
0.183184
0.182408
0.181649
0.18091
0.180189
0.179487
0.178805
0.178141
0.177497
0.176872
0.176267
0.175682
0.175119
0.174579
0.174064
0.173577
0.199395
0.198209
0.197063
0.195955
0.194884
0.19385
0.192848
0.191877
0.190934
0.190016
0.189123
0.188251
0.187399
0.186567
0.185754
0.18496
0.184183
0.183424
0.182682
0.181957
0.18125
0.180559
0.179885
0.179228
0.178588
0.177964
0.177357
0.176766
0.176194
0.17564
0.175105
0.174592
0.174102
0.199395
0.198209
0.197061
0.195951
0.194877
0.193838
0.192833
0.191859
0.190916
0.190001
0.189113
0.18825
0.18741
0.186593
0.185797
0.185022
0.184266
0.183529
0.18281
0.182109
0.181425
0.180757
0.180106
0.179471
0.178852
0.178249
0.177661
0.177089
0.176534
0.175995
0.175474
0.174973
0.174492
0.199395
0.198209
0.197061
0.19595
0.194875
0.193834
0.192827
0.191852
0.190907
0.189991
0.189104
0.188242
0.187407
0.186595
0.185806
0.185039
0.184293
0.183567
0.18286
0.182172
0.181502
0.180849
0.180213
0.179593
0.178989
0.178401
0.177829
0.177273
0.176732
0.176207
0.1757
0.17521
0.17474
0.199395
0.198209
0.19706
0.195949
0.194874
0.193833
0.192825
0.191849
0.190903
0.189987
0.189098
0.188237
0.187402
0.186591
0.185804
0.18504
0.184297
0.183576
0.182875
0.182193
0.18153
0.180884
0.180257
0.179646
0.179051
0.178473
0.177911
0.177364
0.176834
0.176319
0.175822
0.175341
0.174879
0.199395
0.198209
0.19706
0.195949
0.194873
0.193832
0.192824
0.191847
0.190901
0.189984
0.189095
0.188234
0.187398
0.186587
0.185801
0.185037
0.184296
0.183576
0.182877
0.182197
0.181537
0.180895
0.180271
0.179665
0.179075
0.178502
0.177946
0.177405
0.17688
0.176372
0.17588
0.175406
0.174949
0.199395
0.198209
0.19706
0.195949
0.194873
0.193831
0.192823
0.191846
0.1909
0.189983
0.189094
0.188232
0.187396
0.186585
0.185798
0.185035
0.184294
0.183574
0.182875
0.182197
0.181538
0.180897
0.180275
0.17967
0.179083
0.178512
0.177958
0.177421
0.176899
0.176394
0.175905
0.175434
0.17498
0.199395
0.198208
0.19706
0.195948
0.194872
0.193831
0.192822
0.191845
0.190899
0.189981
0.189092
0.18823
0.187394
0.186583
0.185796
0.185033
0.184291
0.183572
0.182873
0.182195
0.181536
0.180896
0.180275
0.179671
0.179084
0.178515
0.177962
0.177426
0.176906
0.176402
0.175915
0.175444
0.174991
0.199395
0.198208
0.19706
0.195948
0.194872
0.19383
0.192822
0.191845
0.190898
0.18998
0.189091
0.188229
0.187393
0.186581
0.185795
0.185031
0.18429
0.18357
0.182872
0.182193
0.181535
0.180895
0.180274
0.17967
0.179084
0.178515
0.177963
0.177427
0.176908
0.176405
0.175918
0.175447
0.174994
0.199395
0.198208
0.19706
0.195948
0.194872
0.19383
0.192821
0.191844
0.190897
0.18998
0.18909
0.188228
0.187391
0.18658
0.185793
0.185029
0.184288
0.183569
0.18287
0.182192
0.181533
0.180893
0.180272
0.179669
0.179083
0.178515
0.177963
0.177427
0.176908
0.176405
0.175918
0.175447
0.174993
0.199395
0.198208
0.19706
0.195948
0.194872
0.19383
0.192821
0.191843
0.190897
0.189979
0.189089
0.188227
0.18739
0.186579
0.185792
0.185028
0.184287
0.183567
0.182869
0.18219
0.181532
0.180892
0.180271
0.179668
0.179082
0.178514
0.177962
0.177426
0.176907
0.176404
0.175917
0.175445
0.17499
0.199395
0.198208
0.197059
0.195948
0.194871
0.193829
0.19282
0.191843
0.190896
0.189978
0.189089
0.188226
0.187389
0.186578
0.185791
0.185027
0.184286
0.183566
0.182867
0.182189
0.18153
0.180891
0.18027
0.179667
0.179081
0.178512
0.177961
0.177425
0.176906
0.176402
0.175915
0.175443
0.174986
0.199395
0.198208
0.197059
0.195948
0.194871
0.193829
0.19282
0.191843
0.190896
0.189978
0.189088
0.188225
0.187389
0.186577
0.18579
0.185026
0.184284
0.183565
0.182866
0.182188
0.181529
0.18089
0.180268
0.179665
0.17908
0.178511
0.177959
0.177424
0.176904
0.1764
0.175912
0.175439
0.174982
0.199395
0.198208
0.197059
0.195947
0.194871
0.193829
0.19282
0.191842
0.190895
0.189977
0.189087
0.188225
0.187388
0.186576
0.185789
0.185025
0.184283
0.183564
0.182865
0.182187
0.181528
0.180888
0.180267
0.179664
0.179078
0.178509
0.177957
0.177421
0.176902
0.176397
0.175908
0.175435
0.174976
0.199395
0.198208
0.197059
0.195947
0.194871
0.193829
0.19282
0.191842
0.190895
0.189977
0.189087
0.188224
0.187387
0.186576
0.185788
0.185024
0.184282
0.183563
0.182864
0.182185
0.181527
0.180887
0.180266
0.179662
0.179076
0.178508
0.177955
0.177419
0.176899
0.176394
0.175904
0.17543
0.17497
0.199395
0.198208
0.197059
0.195947
0.194871
0.193829
0.192819
0.191842
0.190894
0.189976
0.189086
0.188223
0.187387
0.186575
0.185787
0.185023
0.184282
0.183562
0.182863
0.182184
0.181525
0.180885
0.180264
0.179661
0.179075
0.178505
0.177953
0.177416
0.176895
0.17639
0.1759
0.175424
0.174963
0.199395
0.198208
0.197059
0.195947
0.194871
0.193829
0.192819
0.191842
0.190894
0.189976
0.189086
0.188223
0.187386
0.186574
0.185787
0.185022
0.184281
0.183561
0.182862
0.182183
0.181524
0.180884
0.180262
0.179659
0.179072
0.178503
0.17795
0.177413
0.176892
0.176386
0.175895
0.175418
0.174956
0.199395
0.198208
0.197059
0.195947
0.194871
0.193829
0.192819
0.191841
0.190894
0.189976
0.189086
0.188223
0.187386
0.186574
0.185786
0.185022
0.18428
0.18356
0.182861
0.182182
0.181523
0.180882
0.180261
0.179657
0.17907
0.1785
0.177947
0.177409
0.176888
0.176381
0.175889
0.175412
0.174948
0.199395
0.198208
0.197059
0.195947
0.194871
0.193829
0.192819
0.191841
0.190894
0.189976
0.189085
0.188222
0.187385
0.186573
0.185785
0.185021
0.184279
0.183559
0.18286
0.182181
0.181521
0.180881
0.180259
0.179655
0.179068
0.178497
0.177944
0.177406
0.176883
0.176376
0.175883
0.175405
0.17494
0.199395
0.198208
0.197059
0.195947
0.194871
0.193828
0.192819
0.191841
0.190894
0.189975
0.189085
0.188222
0.187385
0.186573
0.185785
0.18502
0.184278
0.183558
0.182858
0.182179
0.18152
0.180879
0.180257
0.179652
0.179065
0.178494
0.17794
0.177402
0.176878
0.17637
0.175877
0.175397
0.174932
0.199395
0.198208
0.197059
0.195947
0.194871
0.193828
0.192819
0.191841
0.190894
0.189975
0.189085
0.188222
0.187385
0.186572
0.185784
0.18502
0.184278
0.183557
0.182858
0.182178
0.181518
0.180877
0.180255
0.17965
0.179062
0.178491
0.177937
0.177397
0.176874
0.176365
0.17587
0.17539
0.174924
0.199395
0.198208
0.197059
0.195947
0.194871
0.193828
0.192819
0.191841
0.190893
0.189975
0.189085
0.188221
0.187384
0.186572
0.185784
0.185019
0.184277
0.183556
0.182856
0.182177
0.181517
0.180876
0.180253
0.179648
0.17906
0.178488
0.177933
0.177393
0.176869
0.176359
0.175864
0.175383
0.174915
0.199395
0.198208
0.197059
0.195947
0.194871
0.193829
0.192819
0.191841
0.190894
0.189975
0.189085
0.188222
0.187385
0.186572
0.185784
0.185019
0.184277
0.183556
0.182856
0.182176
0.181516
0.180875
0.180251
0.179646
0.179058
0.178486
0.17793
0.17739
0.176865
0.176354
0.175858
0.175376
0.174908
0.199395
0.198208
0.197059
0.195947
0.194871
0.193829
0.192819
0.191841
0.190893
0.189975
0.189085
0.188221
0.187384
0.186572
0.185784
0.185019
0.184276
0.183555
0.182855
0.182175
0.181515
0.180873
0.18025
0.179644
0.179055
0.178483
0.177927
0.177386
0.17686
0.176349
0.175853
0.17537
0.1749
0.199395
0.198208
0.197059
0.195948
0.194871
0.19383
0.19282
0.191843
0.190896
0.189977
0.189087
0.188224
0.187387
0.186574
0.185786
0.185021
0.184278
0.183557
0.182857
0.182177
0.181516
0.180874
0.180251
0.179644
0.179055
0.178482
0.177926
0.177384
0.176858
0.176346
0.175849
0.175365
0.174894
0.199395
0.198209
0.19706
0.195949
0.194872
0.19383
0.192821
0.191843
0.190896
0.189978
0.189088
0.188224
0.187387
0.186575
0.185787
0.185022
0.184279
0.183558
0.182858
0.182178
0.181517
0.180875
0.180251
0.179644
0.179054
0.178481
0.177923
0.177381
0.176854
0.176341
0.175842
0.175357
0.174886
0.199395
0.198208
0.19706
0.19595
0.194876
0.193835
0.192828
0.191851
0.190905
0.189987
0.189097
0.188235
0.187397
0.186585
0.185797
0.185031
0.184288
0.183566
0.182865
0.182184
0.181522
0.180879
0.180253
0.179645
0.179053
0.178478
0.177918
0.177373
0.176844
0.176328
0.175826
0.175338
0.174863
0.199396
0.198212
0.197066
0.195957
0.194883
0.193842
0.192834
0.191857
0.190911
0.189994
0.189104
0.188241
0.187404
0.186591
0.185801
0.185035
0.18429
0.183565
0.182862
0.182177
0.181511
0.180863
0.180233
0.179619
0.179022
0.178441
0.177874
0.177323
0.176785
0.176262
0.175752
0.175255
0.174771
0.199396
0.198213
0.197071
0.195969
0.194902
0.193869
0.192866
0.191893
0.190948
0.190029
0.189137
0.18827
0.187426
0.186606
0.185808
0.185032
0.184276
0.183539
0.182822
0.182124
0.181443
0.18078
0.180133
0.179503
0.178888
0.178288
0.177703
0.177132
0.176575
0.176032
0.175501
0.174984
0.174478
0.199402
0.19824
0.197114
0.196019
0.194953
0.193916
0.192909
0.191928
0.190972
0.19004
0.189131
0.188244
0.187379
0.186534
0.18571
0.184905
0.184119
0.183352
0.182603
0.181872
0.181158
0.18046
0.179779
0.179113
0.178463
0.177828
0.177207
0.1766
0.176006
0.175426
0.174859
0.174304
0.173762
0.199421
0.198284
0.197214
0.196182
0.195158
0.194135
0.193118
0.192109
0.191115
0.190139
0.189185
0.188252
0.187343
0.186457
0.185594
0.184754
0.183935
0.183137
0.182359
0.181601
0.180862
0.18014
0.179437
0.17875
0.178079
0.177425
0.176786
0.176162
0.175552
0.174957
0.174376
0.173809
0.173255
0.199655
0.198885
0.198077
0.197302
0.196604
0.195977
0.195407
0.194884
0.194402
0.193959
0.193553
0.193184
0.192851
0.192552
0.192288
0.192058
0.19186
0.191694
0.191558
0.191452
0.191375
0.191326
0.191304
0.191308
0.191338
0.191394
0.191474
0.19158
0.19171
0.191864
0.192041
0.192243
0.192468
0.205419
0.216602
0.227661
0.238503
0.249093
0.259416
0.269459
0.279212
0.288667
0.297818
0.306659
0.315188
0.323406
0.331312
0.338908
0.346199
0.353189
0.359884
0.366289
0.372411
0.378259
0.383838
0.389158
0.394227
0.399052
0.403643
0.408006
0.412152
0.416086
0.419818
0.423356
0.426705
0.429878
0.327441
0.665905
1.05681
1.45529
1.79976
2.03567
2.15115
2.17708
2.15745
2.12484
2.09457
2.07056
2.05237
2.03887
2.0292
2.02251
2.01752
2.01168
2.00187
1.98425
1.95421
1.90648
1.83528
1.73463
1.59916
1.42554
1.21501
0.977132
0.733507
0.517075
0.360797
0.277812
0.252164
0.256266
0.27179
0.290693
0.309481
0.326382
0.340429
0.351207
0.358725
0.363287
0.365356
0.365443
0.364034
0.361551
0.358344
0.354693
0.350816
0.346885
0.343037
0.339384
0.336022
0.333037
0.330507
0.328494
0.327035
0.326129
0.325723
0.325703
0.325905
0.326123
0.326123
0.325662
0.324487
0.322334
0.31893
0.313996
0.307272
0.298552
0.287737
0.274882
0.260232
0.24423
0.227491
0.210736
0.194706
0.180052
0.167249
0.156537
0.14792
0.141211
0.136109
0.132278
0.129411
0.127256
0.125629
0.124397
0.123467
0.12277
0.122253
0.121874
0.121599
0.121401
0.121261
0.121163
0.121095
0.121049
0.121019
0.120991
0.232743
0.267387
0.33015
0.434373
0.59306
0.806606
1.05302
1.2955
1.49995
1.64853
1.74192
1.79234
1.81462
1.82048
1.81716
1.80766
1.79223
1.7699
1.73852
1.69506
1.63584
1.55674
1.45374
1.32375
1.16603
0.984191
0.788527
0.597323
0.434383
0.320205
0.260011
0.240711
0.243439
0.255688
0.271596
0.288369
0.304383
0.318569
0.330274
0.339215
0.345423
0.349148
0.350761
0.350677
0.349292
0.346955
0.34396
0.340544
0.336895
0.333163
0.32947
0.325915
0.322587
0.319568
0.316937
0.314763
0.313102
0.311978
0.311368
0.311196
0.311327
0.311582
0.311747
0.311587
0.310857
0.309297
0.30663
0.302574
0.296855
0.289249
0.279627
0.268005
0.254587
0.239767
0.224115
0.208315
0.19308
0.179051
0.166705
0.156305
0.147882
0.141282
0.136234
0.132427
0.129565
0.12741
0.125778
0.124539
0.123601
0.122894
0.122367
0.121977
0.121691
0.121484
0.121335
0.121228
0.121154
0.121101
0.121066
0.121031
0.193142
0.196324
0.203174
0.21697
0.241982
0.283992
0.352029
0.454076
0.588772
0.743884
0.901602
1.04514
1.16314
1.25075
1.30866
1.33838
1.34302
1.3265
1.29137
1.23842
1.16722
1.07712
0.968287
0.8429
0.706388
0.568248
0.441591
0.340248
0.273222
0.239561
0.229683
0.232978
0.242819
0.255884
0.270296
0.284751
0.298262
0.310104
0.319826
0.327237
0.332372
0.33543
0.336705
0.336526
0.335214
0.333055
0.330293
0.32713
0.323728
0.320218
0.316705
0.313281
0.310025
0.307012
0.304319
0.30202
0.30018
0.298845
0.298019
0.297658
0.297663
0.297882
0.298124
0.298173
0.297792
0.29673
0.294714
0.291459
0.286685
0.280146
0.271685
0.261281
0.249086
0.235446
0.22088
0.206032
0.191584
0.178166
0.166262
0.156154
0.147906
0.141399
0.136391
0.132595
0.129733
0.127571
0.12593
0.124682
0.123733
0.123015
0.122475
0.122073
0.121775
0.121556
0.121397
0.121282
0.121199
0.121139
0.121098
0.121055
0.178998
0.179836
0.181124
0.183236
0.186972
0.193896
0.205475
0.222736
0.248274
0.285975
0.338017
0.402481
0.473671
0.544159
0.606366
0.65617
0.689927
0.704616
0.699145
0.674176
0.631675
0.574709
0.507539
0.4358
0.366368
0.306465
0.261793
0.23438
0.221929
0.219858
0.224157
0.232383
0.243074
0.255161
0.267736
0.280009
0.29132
0.301168
0.309236
0.31539
0.319658
0.322195
0.323228
0.323015
0.321812
0.319852
0.317338
0.314439
0.311295
0.30802
0.304709
0.301441
0.298288
0.295319
0.292605
0.290221
0.288236
0.28671
0.285672
0.285106
0.284946
0.285071
0.285317
0.285488
0.285363
0.284704
0.283245
0.280706
0.2768
0.271267
0.263922
0.254701
0.243709
0.231236
0.217749
0.203846
0.190178
0.177362
0.165887
0.156059
0.147973
0.141546
0.136569
0.132777
0.129908
0.127735
0.126083
0.124823
0.123861
0.12313
0.122577
0.122162
0.121851
0.121621
0.12145
0.121325
0.121233
0.121165
0.121117
0.121066
0.173753
0.173813
0.17412
0.174722
0.175718
0.177488
0.180422
0.18461
0.190228
0.197452
0.20663
0.218362
0.23297
0.249916
0.267509
0.284176
0.298084
0.30735
0.310464
0.306714
0.29644
0.281073
0.262936
0.244809
0.229292
0.218138
0.211891
0.210103
0.211948
0.21669
0.223738
0.232543
0.242558
0.253222
0.263978
0.274302
0.283736
0.291926
0.298641
0.30378
0.307364
0.309504
0.310374
0.310173
0.309103
0.307353
0.30509
0.302458
0.299577
0.296546
0.293449
0.290356
0.287332
0.28444
0.281743
0.279313
0.277222
0.275537
0.274304
0.273533
0.273188
0.273179
0.273369
0.273586
0.273632
0.27328
0.272283
0.270366
0.267242
0.26264
0.256349
0.248265
0.238442
0.227113
0.21469
0.201722
0.188827
0.176606
0.165554
0.155997
0.148066
0.141711
0.136758
0.132965
0.130084
0.127898
0.126232
0.124959
0.123985
0.12324
0.122673
0.122244
0.12192
0.121678
0.121496
0.12136
0.121259
0.121182
0.121128
0.121067
0.172441
0.172138
0.171979
0.171984
0.17217
0.172612
0.173476
0.174965
0.177194
0.179986
0.183093
0.186446
0.190111
0.194141
0.198601
0.202723
0.206058
0.208355
0.209444
0.209278
0.208006
0.205989
0.203751
0.201865
0.200837
0.201029
0.202651
0.205792
0.210439
0.21649
0.22376
0.231996
0.240883
0.250065
0.259164
0.267815
0.275691
0.282532
0.288162
0.292501
0.295555
0.297403
0.298174
0.298018
0.297097
0.295561
0.293548
0.29118
0.288559
0.285772
0.282894
0.279989
0.277113
0.274323
0.271677
0.269239
0.267081
0.265273
0.263874
0.262913
0.262379
0.262212
0.262303
0.262507
0.262645
0.262514
0.261882
0.260489
0.258054
0.254297
0.248985
0.241977
0.233275
0.223057
0.211676
0.199628
0.187498
0.175867
0.165235
0.155947
0.148167
0.141881
0.136947
0.13315
0.130255
0.128054
0.126374
0.125087
0.1241
0.123342
0.122762
0.122319
0.121983
0.121728
0.121534
0.121388
0.121277
0.121192
0.121131
0.12106
0.172541
0.172059
0.171672
0.171407
0.171276
0.171292
0.171483
0.171925
0.172725
0.173945
0.175538
0.177375
0.17932
0.181289
0.18326
0.185065
0.186627
0.187918
0.188948
0.189766
0.190463
0.191174
0.192066
0.193322
0.195123
0.197625
0.200948
0.205163
0.210285
0.216267
0.223
0.23032
0.238012
0.245828
0.253501
0.260764
0.267377
0.27314
0.277916
0.281632
0.284285
0.285926
0.286646
0.286562
0.285796
0.284472
0.282702
0.280589
0.278221
0.275675
0.273017
0.270304
0.267589
0.26492
0.262351
0.259939
0.257752
0.25586
0.254328
0.253201
0.252489
0.252157
0.252124
0.252268
0.252436
0.252446
0.252089
0.251122
0.249275
0.246268
0.241849
0.235844
0.228206
0.219054
0.208683
0.197539
0.186163
0.175119
0.164906
0.155888
0.14826
0.142043
0.137129
0.133325
0.130416
0.128198
0.126504
0.125204
0.124204
0.123434
0.122841
0.122386
0.122038
0.121771
0.121567
0.12141
0.12129
0.121197
0.121129
0.121049
0.173047
0.172491
0.172001
0.1716
0.171306
0.171133
0.171091
0.171195
0.171478
0.171985
0.172749
0.173766
0.174983
0.176329
0.177736
0.179134
0.180489
0.181795
0.183074
0.184369
0.185743
0.187275
0.189054
0.191176
0.193735
0.196815
0.200477
0.20476
0.209663
0.215148
0.221135
0.227503
0.234098
0.24074
0.247231
0.253373
0.25898
0.263895
0.268005
0.271243
0.273596
0.275094
0.275801
0.275803
0.275195
0.274076
0.272538
0.270668
0.268542
0.266228
0.263786
0.261267
0.258718
0.256184
0.253711
0.251353
0.24917
0.24723
0.245602
0.24434
0.243471
0.242981
0.242813
0.242868
0.243017
0.243103
0.242938
0.242303
0.240944
0.238586
0.234965
0.229878
0.223234
0.215096
0.205698
0.195432
0.184799
0.174339
0.164547
0.155803
0.148331
0.142187
0.137293
0.133484
0.13056
0.128327
0.126618
0.125307
0.124295
0.123513
0.122909
0.122443
0.122083
0.121806
0.121592
0.121426
0.121297
0.121196
0.121122
0.121032
0.173564
0.172985
0.172456
0.171995
0.171622
0.171351
0.171196
0.171166
0.171271
0.171526
0.171949
0.172557
0.173352
0.174319
0.175427
0.176638
0.177926
0.17928
0.180705
0.182228
0.183884
0.185724
0.187802
0.190176
0.192904
0.196033
0.199601
0.203624
0.208096
0.212985
0.218228
0.223736
0.229394
0.235068
0.240607
0.245857
0.250672
0.254924
0.258516
0.261389
0.263519
0.264921
0.265639
0.265734
0.26528
0.264355
0.263035
0.261394
0.259497
0.257405
0.255171
0.252842
0.250462
0.24807
0.245708
0.243424
0.241272
0.239317
0.237628
0.236265
0.235266
0.234635
0.234334
0.234287
0.234385
0.234493
0.234449
0.23406
0.233091
0.231279
0.228356
0.224096
0.218367
0.211179
0.202709
0.193293
0.183388
0.173507
0.16414
0.155677
0.148368
0.142303
0.137434
0.133623
0.130685
0.128436
0.126714
0.125391
0.124369
0.123578
0.122964
0.122488
0.122118
0.121832
0.121609
0.121435
0.121298
0.12119
0.121109
0.121012
0.173959
0.173382
0.172842
0.172356
0.171941
0.171613
0.171386
0.171273
0.171283
0.171423
0.171701
0.172127
0.172708
0.173448
0.174344
0.175384
0.176559
0.177859
0.179287
0.180852
0.182573
0.184479
0.186602
0.188978
0.191642
0.194624
0.197945
0.201613
0.20562
0.209938
0.214522
0.219301
0.224189
0.229081
0.233861
0.238405
0.242597
0.24633
0.249519
0.252109
0.254072
0.255411
0.256153
0.256341
0.256032
0.255287
0.25417
0.252741
0.251059
0.249176
0.247141
0.244997
0.242782
0.240535
0.238293
0.236098
0.233999
0.232057
0.230338
0.228905
0.227806
0.227057
0.226637
0.226487
0.226515
0.226609
0.226629
0.226409
0.225739
0.224373
0.222045
0.218515
0.213616
0.207309
0.199714
0.191113
0.181918
0.172612
0.163672
0.155498
0.148362
0.142384
0.137546
0.133735
0.130786
0.128523
0.126788
0.125454
0.124424
0.123624
0.123002
0.122518
0.122141
0.121847
0.121616
0.121435
0.121292
0.121177
0.121092
0.120987
0.174218
0.173647
0.173107
0.17261
0.172172
0.171807
0.171529
0.171352
0.171285
0.171337
0.171516
0.171828
0.172278
0.17287
0.17361
0.174498
0.175533
0.176716
0.178049
0.179536
0.18119
0.183024
0.185059
0.187315
0.189813
0.192571
0.1956
0.198905
0.202477
0.206292
0.210315
0.214491
0.218753
0.223017
0.22719
0.231174
0.234871
0.238191
0.241061
0.243428
0.245262
0.246557
0.247327
0.247603
0.247427
0.246847
0.245914
0.244681
0.243198
0.241511
0.239663
0.237695
0.235642
0.23354
0.231421
0.229325
0.227295
0.225387
0.223665
0.222192
0.221022
0.220181
0.219661
0.219416
0.21937
0.219427
0.219469
0.219355
0.218902
0.217887
0.216055
0.213155
0.208995
0.203493
0.196715
0.18889
0.180383
0.171643
0.163133
0.155258
0.148306
0.142423
0.137624
0.133819
0.130861
0.128585
0.126839
0.125495
0.124457
0.123651
0.123023
0.122533
0.122149
0.121849
0.121612
0.121425
0.121277
0.121157
0.121067
0.120956
0.174366
0.173802
0.173263
0.17276
0.172305
0.171911
0.171592
0.171359
0.171225
0.171198
0.171286
0.171497
0.171835
0.172305
0.172913
0.173661
0.174554
0.175594
0.176787
0.178137
0.179651
0.181341
0.183216
0.18529
0.187575
0.190082
0.192816
0.195777
0.198957
0.202337
0.205886
0.209563
0.213311
0.217064
0.220746
0.224277
0.227573
0.230559
0.23317
0.235355
0.237084
0.238345
0.239142
0.239497
0.239439
0.239006
0.23824
0.237185
0.235884
0.234377
0.232705
0.230904
0.229007
0.227045
0.225052
0.223059
0.221109
0.219252
0.217547
0.216059
0.214844
0.213937
0.213339
0.213014
0.212899
0.212909
0.212945
0.212888
0.212584
0.211835
0.210402
0.208035
0.204522
0.199745
0.193721
0.186627
0.178781
0.170597
0.162519
0.15495
0.148193
0.142418
0.137666
0.133873
0.130909
0.128622
0.126865
0.125513
0.124469
0.123657
0.123025
0.12253
0.122142
0.121836
0.121595
0.121404
0.121252
0.121128
0.121035
0.120919
0.17444
0.17388
0.17334
0.17283
0.172361
0.171943
0.171587
0.171306
0.17111
0.171008
0.171011
0.171124
0.171355
0.171709
0.17219
0.172804
0.173554
0.174446
0.175483
0.176673
0.178019
0.179532
0.181217
0.183083
0.185139
0.187389
0.189836
0.192479
0.195309
0.198309
0.201454
0.20471
0.20803
0.21136
0.214636
0.217791
0.220755
0.223462
0.225854
0.227885
0.229523
0.230752
0.231572
0.231993
0.232037
0.231734
0.231116
0.230221
0.229085
0.227745
0.226236
0.224591
0.222841
0.221016
0.219145
0.21726
0.215396
0.2136
0.211928
0.210445
0.209207
0.208257
0.207603
0.207218
0.207045
0.207008
0.207023
0.206988
0.206778
0.20622
0.205098
0.203171
0.200214
0.19608
0.190744
0.184333
0.177118
0.169475
0.161828
0.154573
0.148022
0.142366
0.13767
0.133895
0.13093
0.128634
0.126868
0.125509
0.124458
0.123643
0.123007
0.122509
0.122117
0.121809
0.121565
0.121371
0.121216
0.121089
0.120993
0.120874
0.174473
0.173912
0.17337
0.172853
0.172369
0.171928
0.17154
0.171215
0.170963
0.170794
0.170716
0.170738
0.170866
0.171107
0.171466
0.171948
0.172558
0.1733
0.174181
0.175204
0.176376
0.177703
0.17919
0.180844
0.18267
0.184671
0.186848
0.189198
0.191713
0.194378
0.197173
0.200067
0.203022
0.205991
0.208923
0.211758
0.214438
0.216905
0.219106
0.221
0.222555
0.223752
0.224585
0.22506
0.22519
0.224999
0.224511
0.223759
0.222772
0.221583
0.220224
0.218724
0.217113
0.215418
0.213667
0.211887
0.210113
0.208385
0.206759
0.205295
0.204053
0.203079
0.202388
0.201961
0.201745
0.201669
0.201657
0.201624
0.201465
0.201038
0.200151
0.198577
0.196088
0.192516
0.187799
0.182019
0.175401
0.168283
0.161062
0.154126
0.147791
0.142266
0.137637
0.133887
0.130925
0.128623
0.126849
0.125483
0.124427
0.123608
0.12297
0.12247
0.122077
0.121766
0.121521
0.121325
0.121168
0.121039
0.120942
0.12082
0.174484
0.173922
0.173375
0.172849
0.172352
0.17189
0.171473
0.171109
0.170808
0.170578
0.170428
0.170365
0.170398
0.170533
0.170775
0.171131
0.171606
0.172204
0.172931
0.173792
0.174792
0.175936
0.17723
0.178677
0.180283
0.182048
0.183973
0.186055
0.188286
0.190653
0.193138
0.195715
0.198351
0.201008
0.203639
0.206196
0.208626
0.210879
0.21291
0.214677
0.216151
0.217312
0.21815
0.218665
0.218866
0.218769
0.218395
0.217767
0.216914
0.215862
0.214639
0.213274
0.211793
0.210221
0.208584
0.206908
0.205223
0.203568
0.201994
0.20056
0.199327
0.198345
0.197635
0.197182
0.196938
0.196836
0.1968
0.196757
0.196622
0.196278
0.195561
0.194262
0.19216
0.189071
0.184904
0.1797
0.173641
0.167027
0.160227
0.153612
0.147503
0.142119
0.137567
0.13385
0.130896
0.128591
0.12681
0.125437
0.124377
0.123555
0.122915
0.122414
0.12202
0.121709
0.121462
0.121266
0.121108
0.120979
0.120881
0.120758
0.174486
0.173921
0.173369
0.172835
0.172324
0.171844
0.171401
0.171003
0.170658
0.170375
0.17016
0.170023
0.16997
0.170008
0.170144
0.170383
0.17073
0.171193
0.171774
0.172481
0.173317
0.174287
0.175396
0.176649
0.178046
0.179592
0.181284
0.18312
0.185093
0.187192
0.189399
0.191694
0.194047
0.196426
0.19879
0.201098
0.203304
0.205364
0.207237
0.208884
0.210279
0.211398
0.212232
0.212775
0.213032
0.213014
0.212736
0.212218
0.211483
0.210553
0.209455
0.208214
0.206852
0.205396
0.203867
0.20229
0.200694
0.199114
0.197596
0.196199
0.194985
0.194006
0.193289
0.192825
0.192569
0.192451
0.1924
0.192345
0.192217
0.191921
0.191321
0.190231
0.18844
0.18576
0.182077
0.177394
0.171855
0.16572
0.159329
0.153037
0.14716
0.141927
0.137462
0.133786
0.130845
0.12854
0.126753
0.125375
0.124311
0.123487
0.122845
0.122343
0.121949
0.121638
0.121392
0.121195
0.121037
0.120908
0.12081
0.120687
0.174483
0.173915
0.173358
0.172816
0.172294
0.171797
0.171331
0.170904
0.170521
0.170191
0.169922
0.169719
0.16959
0.169542
0.169581
0.169714
0.169946
0.170284
0.170731
0.171294
0.171977
0.172785
0.173722
0.174792
0.175997
0.177339
0.178817
0.180428
0.182165
0.18402
0.185976
0.188016
0.190115
0.192243
0.194366
0.196449
0.19845
0.200332
0.202055
0.203588
0.204902
0.205976
0.206796
0.207356
0.207656
0.207702
0.207505
0.207082
0.20645
0.205631
0.204645
0.203516
0.202265
0.200915
0.199488
0.198006
0.196496
0.194989
0.193531
0.192176
0.190987
0.190019
0.189305
0.188841
0.188584
0.188464
0.188407
0.188344
0.188215
0.187944
0.18742
0.186484
0.18494
0.1826
0.179334
0.175119
0.170057
0.164375
0.158379
0.152408
0.146768
0.141694
0.137324
0.133697
0.130775
0.128473
0.126683
0.1253
0.124232
0.123405
0.122762
0.12226
0.121866
0.121556
0.12131
0.121114
0.120957
0.120829
0.120731
0.120609
0.174479
0.173908
0.173346
0.172797
0.172264
0.171752
0.171267
0.170814
0.170399
0.17003
0.169712
0.169452
0.169257
0.169134
0.169088
0.169127
0.169255
0.169479
0.169805
0.170236
0.170779
0.171438
0.172216
0.173118
0.174146
0.1753
0.176581
0.177985
0.179508
0.181139
0.182867
0.184675
0.186542
0.188442
0.190346
0.192221
0.194034
0.195749
0.197332
0.198754
0.199987
0.201011
0.20181
0.202376
0.202706
0.202803
0.202674
0.202332
0.201791
0.201068
0.200184
0.199156
0.198007
0.196756
0.195424
0.194031
0.192603
0.191168
0.189769
0.188458
0.187298
0.186347
0.185643
0.185187
0.184938
0.184828
0.184775
0.184711
0.184579
0.184319
0.183843
0.183015
0.181662
0.179602
0.176694
0.172891
0.168265
0.163006
0.157389
0.151732
0.146331
0.141424
0.137157
0.133586
0.130689
0.128394
0.126602
0.125215
0.124144
0.123314
0.122671
0.122168
0.121775
0.121466
0.121221
0.121026
0.12087
0.120742
0.120646
0.120524
0.174473
0.173899
0.173333
0.172777
0.172235
0.171711
0.171209
0.170734
0.170292
0.169888
0.169528
0.169219
0.168967
0.168778
0.168659
0.168614
0.168651
0.168774
0.16899
0.169303
0.169718
0.170241
0.170875
0.171623
0.172487
0.17347
0.17457
0.175785
0.17711
0.178538
0.180058
0.181654
0.183308
0.185
0.186702
0.188386
0.190023
0.191582
0.193032
0.194346
0.195498
0.196468
0.19724
0.197803
0.198153
0.198289
0.198216
0.197943
0.19748
0.196843
0.196048
0.195112
0.194055
0.192895
0.191651
0.190342
0.188991
0.187626
0.186285
0.185019
0.18389
0.182959
0.182269
0.181825
0.181593
0.181499
0.181462
0.181406
0.181274
0.181018
0.180569
0.179818
0.17861
0.176774
0.174169
0.170728
0.166496
0.161628
0.156372
0.15102
0.145858
0.141121
0.136965
0.133457
0.13059
0.128304
0.126514
0.125124
0.124049
0.123218
0.122573
0.12207
0.121678
0.121369
0.121126
0.120932
0.120777
0.120651
0.120556
0.120436
0.174467
0.17389
0.17332
0.172758
0.172208
0.171672
0.171156
0.170662
0.170196
0.169763
0.169368
0.169017
0.168715
0.16847
0.168285
0.168167
0.168123
0.168157
0.168275
0.168482
0.168783
0.169183
0.169685
0.170293
0.171009
0.171835
0.17277
0.173812
0.174957
0.176199
0.177527
0.178929
0.180389
0.181888
0.183404
0.184913
0.186386
0.187799
0.189122
0.190331
0.191402
0.192315
0.193055
0.193608
0.193969
0.194134
0.194106
0.19389
0.193494
0.192932
0.192216
0.191363
0.190389
0.189312
0.188148
0.186917
0.185639
0.18434
0.183055
0.181834
0.180738
0.179829
0.179154
0.178726
0.178513
0.178445
0.178431
0.178391
0.178266
0.178013
0.17758
0.176879
0.17578
0.174124
0.171772
0.168646
0.164765
0.160256
0.155339
0.150281
0.145356
0.140792