/*--------------------------------*- C++ -*----------------------------------*\
  =========                 |
  \\      /  F ield         | OpenFOAM: The Open Source CFD Toolbox
   \\    /   O peration     | Website:  https://openfoam.org
    \\  /    A nd           | Version:  10
     \\/     M anipulation  |
\*---------------------------------------------------------------------------*/
FoamFile
{
    format      ascii;
    class       volScalarField;
    location    "0.055";
    object      nut;
}
// * * * * * * * * * * * * * * * * * * * * * * * * * * * * * * * * * * * * * //

dimensions      [0 2 -1 0 0 0 0];

internalField   nonuniform List<scalar> 
6820
(
0.000149484
0.000144853
0.000140581
0.000136577
0.000132833
0.000129376
0.000126234
0.000123417
0.000120922
0.000118737
0.000116839
0.000115206
0.000113813
0.000112634
0.000111649
0.000110835
0.000110174
0.000109648
0.000109242
0.000108942
0.000108736
0.000108613
0.000108563
0.000108577
0.000108648
0.000108771
0.000108935
0.000109156
0.00010934
0.000109905
0.000108876
0.000115501
8.63645e-05
0.000729198
0.000532387
0.000448005
0.000399697
0.000368367
0.000346716
0.000331071
0.00031934
0.000310252
0.000303002
0.000297069
0.000292107
0.00028788
0.000284224
0.000281021
0.000278184
0.000275649
0.000273366
0.000271295
0.000269407
0.000267675
0.000266082
0.000264609
0.000263243
0.000261973
0.000260789
0.000259686
0.000258652
0.000257699
0.000256806
0.000256041
0.000255162
0.000256527
0.000976776
0.00087218
0.000781619
0.000711257
0.000657307
0.000615261
0.000581684
0.000554217
0.000531273
0.000511769
0.000494944
0.000480251
0.000467286
0.000455743
0.000445386
0.000436033
0.000427535
0.000419776
0.000412658
0.000406101
0.000400038
0.000394412
0.000389174
0.000384281
0.000379693
0.000375377
0.000371299
0.000367429
0.000363728
0.000360172
0.000356682
0.000353206
0.000349362
0.00101349
0.000988231
0.000949374
0.000906191
0.000864418
0.000826371
0.000792533
0.000762639
0.000736194
0.000712688
0.000691668
0.000672748
0.000655613
0.000640004
0.000625708
0.000612551
0.000600389
0.000589101
0.000578587
0.000568761
0.00055955
0.000550891
0.000542729
0.000535015
0.000527706
0.000520763
0.000514147
0.000507825
0.000501757
0.000495917
0.000490238
0.000484744
0.000479165
0.00101671
0.00101241
0.00100191
0.00098566
0.0009656
0.000943705
0.000921411
0.000899593
0.000878722
0.000859006
0.000840503
0.000823192
0.000807008
0.000791872
0.000777697
0.0007644
0.000751901
0.000740129
0.000729017
0.000718506
0.000708543
0.00069908
0.000690072
0.000681481
0.000673269
0.000665403
0.000657848
0.000650575
0.000643551
0.000636746
0.000630116
0.000623644
0.000617251
0.00101676
0.00101592
0.0010136
0.00100903
0.00100204
0.000992917
0.000982185
0.000970388
0.000957991
0.000945353
0.000932733
0.000920306
0.000908183
0.000896433
0.000885093
0.00087418
0.000863693
0.000853626
0.000843965
0.000834691
0.000825787
0.00081723
0.000809001
0.000801077
0.000793437
0.00078606
0.000778924
0.000772008
0.000765289
0.000758744
0.000752344
0.00074607
0.00073989
0.00101671
0.00101623
0.00101553
0.00101428
0.00101219
0.00100909
0.00100496
0.000999887
0.000994013
0.000987509
0.000980543
0.000973259
0.000965781
0.000958208
0.000950618
0.000943069
0.000935607
0.000928263
0.000921058
0.000914009
0.000907124
0.000900406
0.000893857
0.000887475
0.000881254
0.000875189
0.00086927
0.000863488
0.000857833
0.000852292
0.00084685
0.000841496
0.000836215
0.0010167
0.00101622
0.00101574
0.00101518
0.00101442
0.00101335
0.00101188
0.00100995
0.00100755
0.0010047
0.00100144
0.000997815
0.000993893
0.000989729
0.000985376
0.000980881
0.000976289
0.000971633
0.000966944
0.000962246
0.00095756
0.000952901
0.000948281
0.000943709
0.00093919
0.000934729
0.000930328
0.000925986
0.000921702
0.000917473
0.000913297
0.000909169
0.000905089
0.0010167
0.00101621
0.00101575
0.00101528
0.0010148
0.00101425
0.00101359
0.00101278
0.00101179
0.00101059
0.00100917
0.00100753
0.00100568
0.00100364
0.00100142
0.000999043
0.000996534
0.000993912
0.000991197
0.000988407
0.000985559
0.000982665
0.00097974
0.000976793
0.000973834
0.000970869
0.000967905
0.000964947
0.000961998
0.000959062
0.000956141
0.000953238
0.000950358
0.0010167
0.00101621
0.00101574
0.00101529
0.00101484
0.00101439
0.00101393
0.00101344
0.0010129
0.00101229
0.0010116
0.00101081
0.00100993
0.00100895
0.00100786
0.00100667
0.00100538
0.00100401
0.00100256
0.00100103
0.000999439
0.00099779
0.000996091
0.00099435
0.000992573
0.000990767
0.000988936
0.000987086
0.000985223
0.00098335
0.000981472
0.000979596
0.000977728
0.0010167
0.00101621
0.00101574
0.00101528
0.00101484
0.00101441
0.00101398
0.00101356
0.00101313
0.0010127
0.00101224
0.00101176
0.00101125
0.00101069
0.0010101
0.00100946
0.00100877
0.00100804
0.00100726
0.00100643
0.00100556
0.00100466
0.00100371
0.00100272
0.00100171
0.00100067
0.0009996
0.000998512
0.000997406
0.000996287
0.00099516
0.000994029
0.000992903
0.0010167
0.00101621
0.00101574
0.00101528
0.00101484
0.0010144
0.00101398
0.00101357
0.00101317
0.00101277
0.00101238
0.00101199
0.00101159
0.00101119
0.00101078
0.00101035
0.00100991
0.00100945
0.00100897
0.00100848
0.00100796
0.00100743
0.00100688
0.0010063
0.00100571
0.0010051
0.00100448
0.00100385
0.0010032
0.00100255
0.00100189
0.00100123
0.00100058
0.0010167
0.00101621
0.00101574
0.00101528
0.00101483
0.0010144
0.00101398
0.00101357
0.00101317
0.00101278
0.0010124
0.00101203
0.00101167
0.0010113
0.00101095
0.00101059
0.00101024
0.00100988
0.00100952
0.00100916
0.0010088
0.00100842
0.00100805
0.00100767
0.00100728
0.00100689
0.00100649
0.00100609
0.00100569
0.00100529
0.00100489
0.0010045
0.00100412
0.0010167
0.00101621
0.00101574
0.00101528
0.00101483
0.0010144
0.00101398
0.00101357
0.00101317
0.00101278
0.0010124
0.00101203
0.00101168
0.00101133
0.00101098
0.00101065
0.00101032
0.00100999
0.00100967
0.00100936
0.00100905
0.00100874
0.00100843
0.00100813
0.00100783
0.00100753
0.00100723
0.00100694
0.00100665
0.00100637
0.0010061
0.00100584
0.00100559
0.0010167
0.00101621
0.00101574
0.00101528
0.00101483
0.0010144
0.00101398
0.00101357
0.00101317
0.00101278
0.0010124
0.00101203
0.00101167
0.00101133
0.00101099
0.00101066
0.00101033
0.00101002
0.00100971
0.00100941
0.00100911
0.00100883
0.00100854
0.00100827
0.001008
0.00100774
0.00100748
0.00100723
0.00100699
0.00100676
0.00100654
0.00100633
0.00100614
0.0010167
0.00101621
0.00101574
0.00101528
0.00101483
0.0010144
0.00101397
0.00101356
0.00101316
0.00101278
0.0010124
0.00101203
0.00101167
0.00101132
0.00101098
0.00101065
0.00101033
0.00101002
0.00100971
0.00100942
0.00100913
0.00100885
0.00100857
0.00100831
0.00100805
0.0010078
0.00100755
0.00100732
0.00100709
0.00100688
0.00100668
0.0010065
0.00100633
0.0010167
0.00101621
0.00101574
0.00101528
0.00101483
0.0010144
0.00101397
0.00101356
0.00101316
0.00101277
0.0010124
0.00101203
0.00101167
0.00101132
0.00101098
0.00101065
0.00101033
0.00101002
0.00100971
0.00100942
0.00100913
0.00100885
0.00100858
0.00100831
0.00100806
0.00100781
0.00100757
0.00100734
0.00100712
0.00100692
0.00100672
0.00100654
0.00100638
0.0010167
0.00101621
0.00101574
0.00101528
0.00101483
0.0010144
0.00101397
0.00101356
0.00101316
0.00101277
0.00101239
0.00101203
0.00101167
0.00101132
0.00101098
0.00101065
0.00101033
0.00101002
0.00100971
0.00100942
0.00100913
0.00100885
0.00100858
0.00100831
0.00100806
0.00100781
0.00100758
0.00100735
0.00100713
0.00100693
0.00100673
0.00100655
0.00100639
0.0010167
0.00101621
0.00101574
0.00101528
0.00101483
0.00101439
0.00101397
0.00101356
0.00101316
0.00101277
0.00101239
0.00101202
0.00101167
0.00101132
0.00101098
0.00101065
0.00101033
0.00101001
0.00100971
0.00100941
0.00100913
0.00100885
0.00100858
0.00100831
0.00100806
0.00100781
0.00100758
0.00100735
0.00100713
0.00100693
0.00100673
0.00100655
0.00100638
0.0010167
0.00101621
0.00101574
0.00101528
0.00101483
0.00101439
0.00101397
0.00101356
0.00101316
0.00101277
0.00101239
0.00101202
0.00101166
0.00101132
0.00101098
0.00101065
0.00101032
0.00101001
0.00100971
0.00100941
0.00100912
0.00100884
0.00100857
0.00100831
0.00100806
0.00100781
0.00100757
0.00100735
0.00100713
0.00100692
0.00100673
0.00100654
0.00100637
0.0010167
0.00101621
0.00101574
0.00101528
0.00101483
0.00101439
0.00101397
0.00101356
0.00101316
0.00101277
0.00101239
0.00101202
0.00101166
0.00101131
0.00101097
0.00101064
0.00101032
0.00101001
0.00100971
0.00100941
0.00100912
0.00100884
0.00100857
0.00100831
0.00100805
0.00100781
0.00100757
0.00100734
0.00100713
0.00100692
0.00100672
0.00100653
0.00100636
0.0010167
0.00101621
0.00101574
0.00101528
0.00101483
0.00101439
0.00101397
0.00101356
0.00101316
0.00101277
0.00101239
0.00101202
0.00101166
0.00101131
0.00101097
0.00101064
0.00101032
0.00101001
0.0010097
0.00100941
0.00100912
0.00100884
0.00100857
0.00100831
0.00100805
0.00100781
0.00100757
0.00100734
0.00100712
0.00100691
0.00100671
0.00100652
0.00100634
0.0010167
0.00101621
0.00101574
0.00101528
0.00101483
0.00101439
0.00101397
0.00101356
0.00101316
0.00101277
0.00101239
0.00101202
0.00101166
0.00101131
0.00101097
0.00101064
0.00101032
0.00101001
0.0010097
0.00100941
0.00100912
0.00100884
0.00100857
0.0010083
0.00100805
0.0010078
0.00100756
0.00100733
0.00100711
0.0010069
0.0010067
0.00100651
0.00100633
0.0010167
0.00101621
0.00101574
0.00101528
0.00101483
0.00101439
0.00101397
0.00101356
0.00101316
0.00101277
0.00101239
0.00101202
0.00101166
0.00101131
0.00101097
0.00101064
0.00101032
0.00101
0.0010097
0.0010094
0.00100912
0.00100884
0.00100856
0.0010083
0.00100805
0.0010078
0.00100756
0.00100733
0.00100711
0.00100689
0.00100669
0.00100649
0.00100631
0.0010167
0.00101621
0.00101574
0.00101528
0.00101483
0.00101439
0.00101397
0.00101356
0.00101316
0.00101277
0.00101239
0.00101202
0.00101166
0.00101131
0.00101097
0.00101064
0.00101032
0.00101
0.0010097
0.0010094
0.00100911
0.00100883
0.00100856
0.0010083
0.00100804
0.00100779
0.00100755
0.00100732
0.0010071
0.00100688
0.00100668
0.00100648
0.00100629
0.0010167
0.00101621
0.00101574
0.00101528
0.00101483
0.00101439
0.00101397
0.00101356
0.00101316
0.00101277
0.00101239
0.00101202
0.00101166
0.00101131
0.00101097
0.00101064
0.00101032
0.00101
0.0010097
0.0010094
0.00100911
0.00100883
0.00100856
0.00100829
0.00100804
0.00100779
0.00100755
0.00100731
0.00100709
0.00100687
0.00100666
0.00100646
0.00100627
0.0010167
0.00101621
0.00101574
0.00101528
0.00101483
0.00101439
0.00101397
0.00101356
0.00101316
0.00101277
0.00101239
0.00101202
0.00101166
0.00101131
0.00101097
0.00101064
0.00101031
0.00101
0.00100969
0.0010094
0.00100911
0.00100883
0.00100855
0.00100829
0.00100803
0.00100778
0.00100754
0.0010073
0.00100708
0.00100686
0.00100665
0.00100645
0.00100625
0.0010167
0.00101621
0.00101574
0.00101528
0.00101483
0.00101439
0.00101397
0.00101356
0.00101316
0.00101277
0.00101239
0.00101202
0.00101166
0.00101131
0.00101097
0.00101064
0.00101031
0.00101
0.00100969
0.0010094
0.00100911
0.00100882
0.00100855
0.00100828
0.00100803
0.00100777
0.00100753
0.0010073
0.00100707
0.00100685
0.00100664
0.00100643
0.00100624
0.0010167
0.00101621
0.00101574
0.00101528
0.00101483
0.00101439
0.00101397
0.00101356
0.00101316
0.00101277
0.00101239
0.00101202
0.00101166
0.00101131
0.00101097
0.00101064
0.00101031
0.00101
0.00100969
0.00100939
0.0010091
0.00100882
0.00100855
0.00100828
0.00100802
0.00100777
0.00100752
0.00100729
0.00100706
0.00100684
0.00100662
0.00100642
0.00100622
0.0010167
0.00101621
0.00101574
0.00101528
0.00101483
0.00101439
0.00101397
0.00101356
0.00101316
0.00101277
0.00101239
0.00101202
0.00101166
0.00101131
0.00101097
0.00101064
0.00101031
0.00101
0.00100969
0.00100939
0.0010091
0.00100882
0.00100854
0.00100828
0.00100802
0.00100776
0.00100752
0.00100728
0.00100705
0.00100683
0.00100661
0.0010064
0.0010062
0.0010167
0.00101621
0.00101574
0.00101528
0.00101483
0.00101439
0.00101397
0.00101356
0.00101316
0.00101277
0.00101239
0.00101202
0.00101166
0.00101131
0.00101097
0.00101064
0.00101031
0.00101
0.00100969
0.00100939
0.0010091
0.00100882
0.00100854
0.00100827
0.00100801
0.00100776
0.00100751
0.00100727
0.00100704
0.00100681
0.00100659
0.00100638
0.00100618
0.0010167
0.00101621
0.00101574
0.00101528
0.00101483
0.0010144
0.00101397
0.00101356
0.00101316
0.00101277
0.0010124
0.00101203
0.00101167
0.00101132
0.00101097
0.00101064
0.00101032
0.00101
0.00100969
0.00100939
0.0010091
0.00100881
0.00100854
0.00100826
0.001008
0.00100774
0.00100749
0.00100724
0.001007
0.00100677
0.00100654
0.00100632
0.00100611
0.0010167
0.00101621
0.00101574
0.00101528
0.00101483
0.0010144
0.00101398
0.00101357
0.00101317
0.00101278
0.0010124
0.00101203
0.00101167
0.00101132
0.00101097
0.00101064
0.00101031
0.00100999
0.00100967
0.00100936
0.00100906
0.00100876
0.00100847
0.00100818
0.00100789
0.00100762
0.00100734
0.00100707
0.0010068
0.00100654
0.00100629
0.00100603
0.00100578
0.0010167
0.00101621
0.00101574
0.00101529
0.00101484
0.00101441
0.001014
0.00101358
0.00101318
0.00101279
0.0010124
0.00101202
0.00101164
0.00101127
0.0010109
0.00101053
0.00101016
0.0010098
0.00100943
0.00100906
0.0010087
0.00100833
0.00100796
0.00100758
0.00100721
0.00100683
0.00100646
0.00100608
0.00100569
0.00100531
0.00100492
0.00100454
0.00100415
0.0010167
0.00101622
0.00101575
0.0010153
0.00101485
0.00101441
0.00101397
0.00101352
0.00101308
0.00101262
0.00101215
0.00101166
0.00101116
0.00101063
0.00101009
0.00100952
0.00100892
0.00100831
0.00100767
0.00100701
0.00100632
0.00100562
0.00100489
0.00100415
0.00100339
0.00100261
0.00100181
0.001001
0.00100018
0.000999347
0.000998505
0.000997654
0.000996797
0.00101671
0.00101622
0.00101574
0.00101524
0.00101469
0.00101407
0.00101337
0.00101257
0.00101167
0.00101067
0.00100955
0.00100832
0.00100699
0.00100556
0.00100402
0.0010024
0.0010007
0.000998914
0.000997065
0.000995155
0.000993193
0.000991186
0.000989141
0.000987065
0.000984965
0.000982846
0.000980714
0.000978574
0.000976431
0.00097429
0.000972154
0.000970028
0.000967915
0.00101671
0.001016
0.00101488
0.00101325
0.00101113
0.00100848
0.00100533
0.00100171
0.00099765
0.00099321
0.00098844
0.000983394
0.000978125
0.000972679
0.000967102
0.000961432
0.000955706
0.000949953
0.000944201
0.000938472
0.000932786
0.000927161
0.00092161
0.000916145
0.000910776
0.000905512
0.00090036
0.000895324
0.00089041
0.00088562
0.000880958
0.000876425
0.000872022
0.0010153
0.00100706
0.000995512
0.000981414
0.000965391
0.000948056
0.000929966
0.000911571
0.000893204
0.000875103
0.000857434
0.000840307
0.000823787
0.000807913
0.000792698
0.000778141
0.000764233
0.000750955
0.000738285
0.000726198
0.000714667
0.000703666
0.000693169
0.000683148
0.000673579
0.000664438
0.0006557
0.000647344
0.000639348
0.000631692
0.000624356
0.000617322
0.000610571
0.000935928
0.000815554
0.000728191
0.000659278
0.000602409
0.000555167
0.000515653
0.000482281
0.000453801
0.000429249
0.000407882
0.000389129
0.000372543
0.000357776
0.000344548
0.000332635
0.000321855
0.000312057
0.000303117
0.00029493
0.000287408
0.000280477
0.000274072
0.000268137
0.000262625
0.000257494
0.000252708
0.000248234
0.000244045
0.000240115
0.000236423
0.000232948
0.000229673
0.000125477
0.000128847
0.000132096
0.000135204
0.000138173
0.000141008
0.000143711
0.000146289
0.000148745
0.000151084
0.000153311
0.000155428
0.000157441
0.000159354
0.00016117
0.000162895
0.000164531
0.000166083
0.000167555
0.000168949
0.000170271
0.000171522
0.000172706
0.000173828
0.000174888
0.000175891
0.00017684
0.000177736
0.000178582
0.000179382
0.000180136
0.000180847
0.000181519
0.000109257
0.000156348
0.000211808
0.000273794
0.000336404
0.000393708
0.000444588
0.000493278
0.000545398
0.000603977
0.000668285
0.000735306
0.00080181
0.000865444
0.000924706
0.000978408
0.00102527
0.00106423
0.00109403
0.00111324
0.00112033
0.00111364
0.0010914
0.00105185
0.000993431
0.000915141
0.000817573
0.000704955
0.000588857
0.000493158
0.000458273
0.000537839
0.000741549
0.000961386
0.00112547
0.00124981
0.00135188
0.00143706
0.0015068
0.00156228
0.00160511
0.00163721
0.00166059
0.00167714
0.00168852
0.00169615
0.00170117
0.00170453
0.00170699
0.00170917
0.00171162
0.00171484
0.00171926
0.00172532
0.00173338
0.00174372
0.00175639
0.0017712
0.00178757
0.00180461
0.00182115
0.00183585
0.00184733
0.00185424
0.00185529
0.00184929
0.00183521
0.00181226
0.00177999
0.00173841
0.00168809
0.00163013
0.00156624
0.00149859
0.00142972
0.00136222
0.00129852
0.00124048
0.00118927
0.00114538
0.00110875
0.00107898
0.00105544
0.00103729
0.00102356
0.0010133
0.00100564
0.000999907
0.000995614
0.000992403
0.000990015
0.000988256
0.000986973
0.000986048
0.00098539
0.000984928
0.00098461
0.000984397
0.00098426
0.000984151
0.000246077
0.000211436
0.000177766
0.000165503
0.0001782
0.000212267
0.000261593
0.000318905
0.000377864
0.000434852
0.000489132
0.000541522
0.000592788
0.000642771
0.000690407
0.000734116
0.000772385
0.000803784
0.000827026
0.000840822
0.00084373
0.000834151
0.000810475
0.000771382
0.000716391
0.000646872
0.000567784
0.00049032
0.000435127
0.000434871
0.000527439
0.000708642
0.000900881
0.00105523
0.00117798
0.00128044
0.00136706
0.00143936
0.00149839
0.00154535
0.00158171
0.00160909
0.00162911
0.00164334
0.00165313
0.00165966
0.00166389
0.00166662
0.00166849
0.00167005
0.00167178
0.00167411
0.00167745
0.00168222
0.00168882
0.00169759
0.0017087
0.0017221
0.00173737
0.00175375
0.00177016
0.0017853
0.00179781
0.00180632
0.00180953
0.0018062
0.00179525
0.0017758
0.00174729
0.00170963
0.00166324
0.00160912
0.00154886
0.00148454
0.00141862
0.00135367
0.00129209
0.00123581
0.00118605
0.00114334
0.00110764
0.00107856
0.00105546
0.00103755
0.00102394
0.0010137
0.00100605
0.00100032
0.000996023
0.000992812
0.000990422
0.000988659
0.000987369
0.000986436
0.000985768
0.000985298
0.000984971
0.00098475
0.000984606
0.000984487
0.000346794
0.0003499
0.000361139
0.000354739
0.000299176
0.000231295
0.000194079
0.000190469
0.000211065
0.000247424
0.000292858
0.000341986
0.000390777
0.000436573
0.000477877
0.000513592
0.00054324
0.000566491
0.000582631
0.000590577
0.000589104
0.000577161
0.000554234
0.000520903
0.000479706
0.000436458
0.00040203
0.000394395
0.000438523
0.000552325
0.000713541
0.000872753
0.00100858
0.00112331
0.00122151
0.00130571
0.00137732
0.00143728
0.00148647
0.00152586
0.00155658
0.0015799
0.00159709
0.00160938
0.00161788
0.00162356
0.0016272
0.00162947
0.00163094
0.00163206
0.00163324
0.00163486
0.0016373
0.00164094
0.00164619
0.00165343
0.00166293
0.00167477
0.00168869
0.00170409
0.00172
0.00173523
0.00174844
0.00175828
0.00176343
0.00176262
0.00175472
0.00173876
0.00171407
0.00168042
0.0016381
0.00158798
0.0015315
0.00147066
0.00140781
0.00134549
0.0012861
0.00123159
0.00118327
0.00114169
0.00110687
0.00107841
0.00105571
0.001038
0.00102445
0.00101422
0.00100654
0.00100078
0.000996466
0.000993238
0.000990833
0.000989052
0.000987746
0.000986796
0.000986112
0.000985627
0.000985287
0.000985053
0.000984897
0.000984766
0.000473016
0.000468408
0.000473313
0.000503135
0.000575199
0.000653875
0.000603941
0.000446567
0.000316278
0.000246397
0.000219846
0.000219267
0.000233822
0.000256745
0.0002834
0.00031035
0.000334834
0.000354771
0.000368847
0.00037644
0.00037755
0.000372918
0.000364399
0.000355638
0.00035303
0.000366732
0.000410285
0.00049448
0.000614025
0.000746478
0.000873028
0.000987274
0.00108852
0.00117751
0.00125536
0.00132301
0.00138116
0.00143034
0.00147107
0.00150401
0.00152997
0.00154989
0.00156474
0.00157547
0.00158297
0.00158801
0.00159125
0.00159324
0.00159445
0.00159528
0.00159607
0.00159716
0.00159888
0.00160157
0.00160563
0.00161145
0.00161937
0.00162957
0.00164197
0.00165613
0.00167123
0.00168618
0.00169972
0.00171055
0.00171735
0.00171886
0.00171386
0.00170133
0.00168047
0.00165091
0.00161278
0.0015668
0.00151427
0.00145706
0.00139742
0.00133783
0.00128068
0.00122795
0.00118101
0.00114051
0.00110647
0.00107856
0.00105618
0.00103861
0.0010251
0.00101483
0.0010071
0.00100129
0.000996936
0.000993672
0.000991235
0.000989426
0.000988092
0.000987117
0.000986411
0.000985905
0.000985546
0.000985295
0.000985126
0.000984976
0.000609818
0.000601358
0.000593776
0.00059116
0.000604659
0.00065226
0.000745083
0.00086356
0.000903953
0.000784776
0.000602783
0.000457043
0.000365257
0.000313984
0.00028901
0.000279323
0.000278714
0.000283476
0.000291428
0.000301587
0.000314194
0.000330875
0.000354793
0.000390457
0.000442599
0.00051363
0.000601103
0.000698453
0.000798668
0.00089644
0.000988269
0.0010724
0.00114846
0.00121677
0.00127772
0.0013316
0.00137859
0.00141884
0.00145258
0.0014802
0.00150225
0.00151939
0.00153235
0.00154186
0.00154861
0.00155321
0.0015562
0.00155804
0.00155913
0.0015598
0.00156035
0.00156107
0.00156224
0.00156417
0.00156722
0.00157178
0.00157822
0.00158681
0.00159762
0.00161034
0.00162435
0.00163869
0.00165221
0.00166365
0.00167177
0.00167528
0.00167298
0.00166373
0.00164664
0.00162117
0.00158729
0.00154555
0.0014971
0.00144364
0.00138734
0.00133057
0.00127572
0.00122479
0.00117921
0.0011397
0.00110639
0.00107894
0.00105683
0.00103937
0.00102585
0.00101553
0.00100772
0.00100185
0.000997429
0.000994115
0.000991633
0.000989784
0.000988415
0.000987407
0.000986672
0.00098614
0.000985758
0.000985487
0.0009853
0.000985129
0.000732735
0.000724432
0.0007158
0.000706961
0.000699483
0.000698631
0.000713474
0.000754158
0.00082094
0.000891897
0.00092856
0.000899394
0.000811031
0.00070208
0.000600495
0.000532169
0.000491419
0.000470133
0.00046343
0.000468786
0.000485127
0.000512199
0.000550015
0.000598301
0.000656036
0.000721304
0.000791494
0.00086374
0.000935458
0.00100473
0.00107038
0.00113183
0.00118885
0.00124133
0.00128917
0.00133221
0.00137033
0.00140343
0.00143156
0.0014549
0.00147381
0.00148874
0.00150022
0.0015088
0.001515
0.00151932
0.0015222
0.001524
0.00152507
0.0015257
0.00152613
0.00152661
0.00152739
0.00152874
0.00153098
0.00153446
0.00153958
0.00154667
0.00155589
0.0015671
0.00157983
0.00159328
0.00160642
0.00161811
0.00162715
0.00163233
0.00163241
0.00162621
0.00161273
0.00159128
0.00156166
0.00152421
0.00147992
0.00143033
0.00137746
0.00132361
0.00127111
0.00122199
0.00117775
0.00113921
0.00110655
0.00107952
0.00105762
0.00104024
0.00102669
0.00101629
0.0010084
0.00100243
0.000997942
0.000994563
0.000992027
0.000990129
0.000988716
0.000987669
0.0009869
0.000986337
0.000985929
0.000985634
0.000985428
0.000985233
0.000830109
0.000823039
0.000815733
0.000808094
0.00080006
0.000792117
0.000786224
0.000786419
0.000797375
0.000820691
0.000851947
0.00088
0.000891105
0.00087719
0.000839419
0.000797218
0.00076097
0.000734951
0.000720305
0.000716877
0.000724027
0.000740902
0.000766486
0.000799589
0.000838836
0.000882728
0.000929737
0.000978429
0.00102757
0.00107618
0.00112356
0.00116916
0.00121258
0.00125346
0.00129143
0.00132618
0.0013574
0.00138491
0.00140862
0.00142861
0.00144505
0.00145826
0.00146861
0.0014765
0.00148234
0.00148652
0.00148938
0.00149123
0.00149237
0.00149304
0.00149345
0.00149381
0.00149434
0.00149527
0.00149687
0.00149948
0.00150347
0.00150921
0.00151693
0.00152663
0.00153799
0.00155035
0.00156284
0.00157442
0.001584
0.00159044
0.00159253
0.00158907
0.00157897
0.00156139
0.00153593
0.00150277
0.00146268
0.00141702
0.00136766
0.00131681
0.00126672
0.00121945
0.00117655
0.00113893
0.00110688
0.00108022
0.00105851
0.00104117
0.00102758
0.0010171
0.0010091
0.00100304
0.000998464
0.000995013
0.000992413
0.000990459
0.000988996
0.000987906
0.000987098
0.000986501
0.000986063
0.000985743
0.000985515
0.000985293
0.000900367
0.00089491
0.000889315
0.000883564
0.000877621
0.000871458
0.000865226
0.000859612
0.000856155
0.000856821
0.000862818
0.000873383
0.000885462
0.000894605
0.000897266
0.000894069
0.000887601
0.000880952
0.000876719
0.000876675
0.000881802
0.000892452
0.000908515
0.000929554
0.000954917
0.000983831
0.00101548
0.00104907
0.00108388
0.00111924
0.0011546
0.00118945
0.00122333
0.00125582
0.00128648
0.00131496
0.00134092
0.00136412
0.00138442
0.0014018
0.00141635
0.00142825
0.00143776
0.00144517
0.00145079
0.00145493
0.00145785
0.00145983
0.0014611
0.00146187
0.00146233
0.00146267
0.00146307
0.00146371
0.00146485
0.00146677
0.00146984
0.00147442
0.0014808
0.00148906
0.00149903
0.0015102
0.00152183
0.001533
0.00154276
0.00155004
0.00155373
0.00155264
0.0015456
0.00153164
0.00151021
0.00148125
0.00144533
0.00140363
0.00135785
0.00131005
0.00126244
0.00121704
0.00117549
0.00113878
0.00110731
0.00108098
0.00105943
0.00104213
0.00102849
0.00101792
0.00100981
0.00100365
0.000998984
0.000995453
0.000992785
0.00099077
0.000989254
0.000988117
0.000987267
0.000986634
0.000986165
0.000985816
0.000985566
0.000985314
0.00094702
0.000943167
0.00093924
0.00093526
0.000931245
0.000927208
0.00092317
0.000919205
0.000915582
0.000912874
0.000911862
0.000913185
0.000916912
0.000922321
0.000928213
0.000933701
0.000938507
0.000942956
0.000947758
0.000953743
0.000961653
0.000972024
0.000985152
0.00100111
0.00101977
0.00104088
0.0010641
0.00108901
0.00111521
0.00114227
0.00116978
0.00119731
0.00122449
0.0012509
0.00127618
0.00129997
0.00132195
0.00134187
0.00135957
0.00137496
0.00138807
0.00139899
0.00140789
0.00141499
0.0014205
0.00142466
0.00142771
0.00142986
0.0014313
0.00143223
0.0014328
0.00143318
0.00143353
0.00143401
0.00143483
0.00143624
0.00143858
0.00144219
0.00144741
0.00145438
0.00146304
0.001473
0.00148364
0.00149419
0.0015038
0.00151155
0.00151642
0.00151726
0.00151289
0.00150226
0.00148461
0.0014597
0.00142788
0.00139011
0.00134792
0.00130322
0.00125812
0.00121465
0.00117447
0.00113867
0.00110776
0.00108176
0.00106035
0.00104308
0.00102939
0.00101872
0.00101051
0.00100425
0.000999486
0.000995874
0.000993135
0.000991058
0.000989487
0.0009883
0.000987408
0.000986737
0.000986234
0.000985857
0.000985583
0.0009853
0.00097556
0.000973063
0.000970537
0.000968016
0.000965533
0.000963128
0.000960839
0.000958709
0.000956802
0.000955249
0.000954285
0.00095423
0.000955393
0.000957904
0.000961664
0.000966468
0.000972104
0.000978461
0.000985564
0.000993564
0.00100268
0.00101315
0.00102515
0.00103879
0.00105412
0.00107107
0.00108951
0.00110926
0.0011301
0.00115177
0.00117399
0.00119645
0.00121885
0.00124087
0.00126218
0.00128247
0.00130146
0.0013189
0.00133462
0.0013485
0.00136052
0.00137071
0.00137919
0.00138608
0.00139156
0.00139581
0.00139902
0.00140137
0.00140302
0.00140413
0.00140485
0.00140533
0.0014057
0.0014061
0.00140671
0.00140776
0.00140954
0.00141239
0.00141664
0.0014225
0.00142996
0.00143876
0.00144839
0.00145818
0.00146741
0.00147529
0.00148093
0.00148326
0.00148115
0.00147345
0.00145928
0.00143819
0.00141033
0.00137643
0.0013378
0.00129621
0.00125367
0.00121216
0.00117338
0.0011385
0.00110816
0.00108248
0.00106121
0.00104396
0.00103023
0.00101948
0.00101117
0.0010048
0.000999954
0.000996262
0.000993452
0.000991313
0.000989687
0.000988452
0.000987516
0.000986808
0.000986272
0.000985865
0.000985567
0.000985254
0.000991597
0.000990104
0.000988614
0.000987163
0.000985788
0.000984531
0.000983438
0.000982555
0.000981929
0.000981618
0.000981699
0.000982289
0.000983528
0.000985562
0.000988492
0.000992368
0.000997194
0.00100296
0.00100964
0.00101727
0.00102587
0.00103551
0.00104626
0.00105815
0.00107122
0.00108544
0.00110077
0.00111712
0.00113437
0.00115235
0.00117087
0.00118973
0.00120869
0.00122749
0.00124586
0.00126355
0.00128028
0.00129584
0.00131005
0.00132278
0.00133397
0.00134362
0.00135178
0.00135856
0.00136406
0.00136843
0.00137182
0.00137438
0.00137625
0.00137757
0.00137847
0.00137908
0.00137952
0.00137991
0.00138042
0.00138123
0.0013826
0.00138485
0.00138832
0.00139324
0.00139967
0.00140742
0.00141607
0.00142506
0.00143376
0.0014415
0.00144754
0.00145095
0.00145064
0.00144545
0.00143439
0.00141685
0.00139273
0.00136255
0.00132743
0.00128895
0.00124899
0.00120948
0.00117213
0.00113821
0.00110846
0.00108309
0.00106198
0.00104476
0.00103099
0.00102016
0.00101176
0.00100531
0.00100037
0.000996603
0.000993726
0.000991528
0.000989849
0.000988567
0.00098759
0.000986845
0.000986277
0.000985841
0.00098552
0.000985176
0.000999837
0.000998999
0.000998187
0.000997433
0.000996773
0.000996247
0.000995897
0.000995767
0.000995902
0.000996347
0.000997148
0.000998359
0.00100005
0.00100229
0.00100516
0.00100873
0.00101305
0.00101816
0.00102409
0.00103086
0.00103849
0.001047
0.00105642
0.00106675
0.00107802
0.0010902
0.00110328
0.00111719
0.00113187
0.00114721
0.00116308
0.00117933
0.00119576
0.00121218
0.00122836
0.00124407
0.00125909
0.0012732
0.00128624
0.00129808
0.00130862
0.00131785
0.00132579
0.00133249
0.00133804
0.00134254
0.00134612
0.0013489
0.00135099
0.00135253
0.00135362
0.00135438
0.00135493
0.00135537
0.00135584
0.0013565
0.00135759
0.0013594
0.00136225
0.00136641
0.00137197
0.00137882
0.00138659
0.00139479
0.00140288
0.00141031
0.00141647
0.00142057
0.00142162
0.0014185
0.00141014
0.00139579
0.00137515
0.00134852
0.0013168
0.00128138
0.001244
0.00120652
0.00117065
0.00113773
0.00110859
0.00108356
0.00106261
0.00104544
0.00103165
0.00102075
0.00101227
0.00100573
0.00100072
0.000996882
0.000993943
0.00099169
0.000989963
0.000988638
0.000987623
0.000986843
0.000986245
0.000985783
0.00098544
0.000985068
0.00100369
0.00100323
0.00100281
0.00100245
0.0010022
0.00100208
0.00100213
0.0010024
0.00100291
0.00100372
0.00100486
0.00100637
0.00100829
0.00101067
0.00101355
0.00101698
0.001021
0.00102566
0.00103098
0.00103701
0.00104376
0.00105126
0.00105953
0.00106857
0.0010784
0.00108901
0.00110038
0.00111249
0.00112527
0.00113867
0.00115258
0.00116687
0.00118141
0.00119603
0.00121053
0.00122472
0.0012384
0.00125137
0.00126348
0.0012746
0.00128462
0.00129352
0.00130127
0.00130792
0.00131353
0.00131816
0.00132192
0.0013249
0.00132722
0.00132897
0.00133026
0.00133119
0.00133187
0.00133239
0.00133287
0.00133347
0.00133437
0.00133586
0.00133824
0.00134179
0.00134665
0.00135273
0.00135974
0.00136723
0.00137472
0.00138174
0.00138781
0.00139228
0.00139429
0.0013928
0.00138671
0.00137517
0.00135769
0.00133438
0.00130591
0.00127346
0.00123864
0.00120322
0.00116887
0.00113699
0.00110851
0.00108385
0.00106308
0.00104598
0.00103218
0.00102123
0.00101268
0.00100607
0.00100099
0.000997086
0.000994092
0.000991791
0.000990021
0.000988658
0.000987609
0.000986799