/*--------------------------------*- C++ -*----------------------------------*\
  =========                 |
  \\      /  F ield         | OpenFOAM: The Open Source CFD Toolbox
   \\    /   O peration     | Website:  https://openfoam.org
    \\  /    A nd           | Version:  10
     \\/     M anipulation  |
\*---------------------------------------------------------------------------*/
FoamFile
{
    format      ascii;
    class       volScalarField;
    location    "0.055";
    object      p;
}
// * * * * * * * * * * * * * * * * * * * * * * * * * * * * * * * * * * * * * //

dimensions      [0 2 -2 0 0 0 0];

internalField   nonuniform List<scalar> 
6820
(
-8.74492
-10.1089
-10.5222
-10.6174
-10.6978
-10.7487
-10.7789
-10.8025
-10.8225
-10.8399
-10.8555
-10.87
-10.8836
-10.8962
-10.908
-10.919
-10.929
-10.938
-10.9459
-10.9525
-10.9576
-10.9608
-10.9619
-10.9603
-10.9554
-10.9464
-10.9319
-10.9101
-10.879
-10.8305
-10.7668
-10.6449
-10.4666
-11.5451
-11.1407
-10.8465
-10.7508
-10.7519
-10.7681
-10.7856
-10.8044
-10.8229
-10.84
-10.8556
-10.87
-10.8834
-10.8958
-10.9072
-10.9178
-10.9274
-10.936
-10.9436
-10.9499
-10.9548
-10.9579
-10.959
-10.9576
-10.9531
-10.9449
-10.9319
-10.9133
-10.8863
-10.8544
-10.8023
-10.7787
-10.7154
-10.4021
-10.2738
-10.4986
-10.636
-10.6971
-10.741
-10.7724
-10.797
-10.8177
-10.8356
-10.8516
-10.8663
-10.8799
-10.8926
-10.9044
-10.9154
-10.9254
-10.9345
-10.9426
-10.9494
-10.9548
-10.9585
-10.9602
-10.9595
-10.9559
-10.9488
-10.9372
-10.9205
-10.8969
-10.8667
-10.825
-10.7827
-10.7144
-10.7687
-10.7853
-10.7607
-10.7377
-10.7455
-10.7654
-10.7849
-10.8033
-10.8211
-10.8376
-10.853
-10.8673
-10.8808
-10.8933
-10.9051
-10.916
-10.926
-10.9352
-10.9433
-10.9502
-10.9558
-10.9598
-10.962
-10.9621
-10.9595
-10.9539
-10.9445
-10.931
-10.9123
-10.8894
-10.8593
-10.832
-10.7961
-10.6588
-10.6048
-10.6485
-10.6929
-10.7277
-10.7572
-10.7813
-10.8019
-10.8205
-10.8374
-10.8529
-10.8672
-10.8807
-10.8932
-10.905
-10.916
-10.9262
-10.9356
-10.944
-10.9513
-10.9573
-10.962
-10.965
-10.9661
-10.965
-10.9612
-10.9545
-10.9445
-10.9307
-10.9141
-10.8935
-10.8744
-10.8522
-10.6996
-10.6926
-10.7109
-10.7276
-10.7456
-10.7665
-10.7866
-10.8051
-10.8225
-10.8387
-10.8538
-10.868
-10.8814
-10.8939
-10.9058
-10.9169
-10.9272
-10.9368
-10.9455
-10.9532
-10.9598
-10.9651
-10.969
-10.9713
-10.9718
-10.9702
-10.9663
-10.9601
-10.9516
-10.9415
-10.93
-10.9204
-10.9122
-10.6989
-10.6881
-10.7027
-10.724
-10.7456
-10.7676
-10.7878
-10.8063
-10.8235
-10.8395
-10.8545
-10.8686
-10.8819
-10.8945
-10.9065
-10.9177
-10.9283
-10.9381
-10.9471
-10.9553
-10.9626
-10.9687
-10.9737
-10.9775
-10.9797
-10.9805
-10.9797
-10.9775
-10.9742
-10.9704
-10.967
-10.9663
-10.9691
-10.7086
-10.7055
-10.7184
-10.7361
-10.754
-10.7729
-10.7913
-10.8087
-10.8252
-10.8407
-10.8555
-10.8694
-10.8827
-10.8953
-10.9073
-10.9187
-10.9295
-10.9396
-10.9491
-10.9578
-10.9658
-10.9729
-10.9791
-10.9843
-10.9886
-10.9918
-10.9942
-10.996
-10.9976
-10.9999
-11.0038
-11.0111
-11.0234
-10.7172
-10.716
-10.7263
-10.7419
-10.7586
-10.7764
-10.794
-10.8107
-10.8267
-10.842
-10.8564
-10.8703
-10.8835
-10.8961
-10.9082
-10.9198
-10.9308
-10.9413
-10.9513
-10.9606
-10.9694
-10.9775
-10.9849
-10.9918
-10.998
-11.0038
-11.0094
-11.015
-11.0214
-11.0292
-11.0396
-11.054
-11.0741
-10.7259
-10.7264
-10.7355
-10.7495
-10.7647
-10.7809
-10.7973
-10.8132
-10.8286
-10.8434
-10.8576
-10.8712
-10.8844
-10.897
-10.9092
-10.921
-10.9323
-10.9432
-10.9536
-10.9636
-10.9732
-10.9824
-10.9911
-10.9996
-11.0079
-11.0162
-11.0248
-11.0341
-11.0447
-11.0575
-11.0735
-11.094
-11.1205
-10.7343
-10.7356
-10.7437
-10.7561
-10.77
-10.785
-10.8004
-10.8156
-10.8304
-10.8448
-10.8588
-10.8723
-10.8854
-10.898
-10.9103
-10.9223
-10.9339
-10.9452
-10.9561
-10.9668
-10.9772
-10.9874
-10.9975
-11.0076
-11.0179
-11.0286
-11.04
-11.0527
-11.0672
-11.0844
-11.1052
-11.1306
-11.1622
-10.7424
-10.7441
-10.7515
-10.7626
-10.7754
-10.7893
-10.8037
-10.8182
-10.8324
-10.8464
-10.8601
-10.8734
-10.8864
-10.8991
-10.9115
-10.9236
-10.9355
-10.9472
-10.9587
-10.97
-10.9813
-10.9926
-11.004
-11.0157
-11.0278
-11.0407
-11.0548
-11.0705
-11.0884
-11.1093
-11.134
-11.1634
-11.1989
-10.75
-10.7519
-10.7587
-10.7687
-10.7805
-10.7934
-10.807
-10.8207
-10.8345
-10.848
-10.8614
-10.8746
-10.8875
-10.9002
-10.9127
-10.925
-10.9372
-10.9493
-10.9613
-10.9733
-10.9854
-10.9977
-11.0103
-11.0235
-11.0374
-11.0523
-11.0687
-11.0871
-11.1079
-11.1318
-11.1596
-11.1921
-11.2304
-10.7572
-10.7591
-10.7653
-10.7745
-10.7853
-10.7974
-10.8102
-10.8233
-10.8365
-10.8497
-10.8628
-10.8758
-10.8886
-10.9013
-10.9139
-10.9264
-10.9389
-10.9513
-10.9639
-10.9765
-10.9894
-11.0027
-11.0164
-11.0309
-11.0464
-11.0632
-11.0816
-11.1021
-11.1252
-11.1516
-11.1818
-11.2165
-11.2565
-10.7639
-10.7658
-10.7715
-10.7799
-10.7899
-10.8012
-10.8132
-10.8258
-10.8385
-10.8513
-10.8642
-10.877
-10.8897
-10.9024
-10.9151
-10.9278
-10.9405
-10.9533
-10.9663
-10.9795
-10.9931
-11.0073
-11.0221
-11.0378
-11.0546
-11.0729
-11.093
-11.1153
-11.1402
-11.1684
-11.2003
-11.2364
-11.2774
-10.7701
-10.7719
-10.7772
-10.7849
-10.7942
-10.8048
-10.8162
-10.8282
-10.8404
-10.8529
-10.8655
-10.8781
-10.8907
-10.9034
-10.9162
-10.929
-10.9419
-10.9551
-10.9685
-10.9823
-10.9965
-11.0114
-11.0271
-11.0438
-11.0618
-11.0813
-11.1027
-11.1264
-11.1527
-11.182
-11.2149
-11.2517
-11.293
-10.7758
-10.7774
-10.7824
-10.7895
-10.7982
-10.8081
-10.819
-10.8304
-10.8422
-10.8544
-10.8667
-10.8791
-10.8917
-10.9043
-10.9171
-10.93
-10.9432
-10.9566
-10.9704
-10.9846
-10.9994
-11.015
-11.0314
-11.0489
-11.0678
-11.0883
-11.1106
-11.1352
-11.1623
-11.1924
-11.2257
-11.2626
-11.3034
-10.7809
-10.7825
-10.7871
-10.7937
-10.8019
-10.8112
-10.8215
-10.8325
-10.8439
-10.8557
-10.8678
-10.88
-10.8924
-10.9051
-10.9179
-10.9309
-10.9442
-10.9578
-10.9719
-10.9865
-11.0018
-11.0178
-11.0348
-11.0529
-11.0724
-11.0936
-11.1165
-11.1416
-11.1691
-11.1994
-11.2326
-11.2689
-11.3088
-10.7855
-10.787
-10.7913
-10.7975
-10.8051
-10.814
-10.8238
-10.8343
-10.8454
-10.8569
-10.8687
-10.8807
-10.893
-10.9056
-10.9184
-10.9315
-10.9449
-10.9587
-10.973
-10.9878
-11.0034
-11.0198
-11.0371
-11.0557
-11.0756
-11.097
-11.1203
-11.1455
-11.173
-11.2029
-11.2356
-11.271
-11.3094
-10.7895
-10.7909
-10.7949
-10.8008
-10.808
-10.8164
-10.8258
-10.8359
-10.8466
-10.8578
-10.8693
-10.8812
-10.8934
-10.9058
-10.9186
-10.9317
-10.9451
-10.959
-10.9734
-10.9885
-11.0042
-11.0208
-11.0384
-11.0571
-11.0771
-11.0986
-11.1218
-11.1468
-11.1739
-11.2032
-11.2348
-11.2688
-11.3055
-10.793
-10.7943
-10.7981
-10.8036
-10.8105
-10.8185
-10.8275
-10.8372
-10.8476
-10.8585
-10.8698
-10.8814
-10.8935
-10.9058
-10.9185
-10.9315
-10.945
-10.9589
-10.9733
-10.9884
-11.0042
-11.0208
-11.0384
-11.057
-11.077
-11.0983
-11.1211
-11.1456
-11.1719
-11.2001
-11.2304
-11.2627
-11.2972
-10.7959
-10.7971
-10.8007
-10.806
-10.8125
-10.8201
-10.8287
-10.8381
-10.8482
-10.8588
-10.8699
-10.8813
-10.8932
-10.9054
-10.9179
-10.9309
-10.9442
-10.9581
-10.9725
-10.9875
-11.0032
-11.0197
-11.0371
-11.0555
-11.0751
-11.0959
-11.1181
-11.1418
-11.167
-11.1939
-11.2225
-11.2528
-11.2849
-10.7982
-10.7994
-10.8028
-10.8078
-10.814
-10.8213
-10.8296
-10.8387
-10.8485
-10.8588
-10.8697
-10.8809
-10.8926
-10.9046
-10.917
-10.9298
-10.943
-10.9567
-10.9709
-10.9857
-11.0012
-11.0174
-11.0345
-11.0525
-11.0715
-11.0916
-11.1129
-11.1355
-11.1594
-11.1847
-11.2114
-11.2395
-11.269
-10.7999
-10.801
-10.8042
-10.809
-10.8149
-10.822
-10.83
-10.8388
-10.8483
-10.8584
-10.869
-10.88
-10.8915
-10.9033
-10.9155
-10.9281
-10.9411
-10.9546
-10.9685
-10.983
-10.9981
-11.0139
-11.0305
-11.0479
-11.0661
-11.0853
-11.1056
-11.1268
-11.1492
-11.1727
-11.1973
-11.223
-11.2498
-10.8009
-10.802
-10.8051
-10.8097
-10.8154
-10.8222
-10.83
-10.8385
-10.8478
-10.8577
-10.868
-10.8788
-10.89
-10.9016
-10.9136
-10.9259
-10.9387
-10.9518
-10.9654
-10.9795
-10.9942
-11.0094
-11.0253
-11.0419
-11.0592
-11.0773
-11.0962
-11.116
-11.1367
-11.1582
-11.1806
-11.2037
-11.2276
-10.8013
-10.8023
-10.8053
-10.8096
-10.8151
-10.8216
-10.8292
-10.8375
-10.8465
-10.8561
-10.8663
-10.8769
-10.8878
-10.8992
-10.9109
-10.9229
-10.9353
-10.9481
-10.9613
-10.9749
-10.989
-11.0035
-11.0186
-11.0343
-11.0505
-11.0674
-11.0849
-11.1031
-11.1219
-11.1413
-11.1613
-11.1818
-11.2029
-10.801
-10.802
-10.8049
-10.8091
-10.8145
-10.8209
-10.8283
-10.8365
-10.8453
-10.8548
-10.8647
-10.875
-10.8857
-10.8968
-10.9082
-10.9199
-10.9319
-10.9442
-10.9568
-10.9698
-10.9831
-10.9969
-11.011
-11.0256
-11.0407
-11.0562
-11.0721
-11.0885
-11.1053
-11.1225
-11.1401
-11.158
-11.1761
-10.8
-10.8008
-10.8035
-10.8074
-10.8124
-10.8186
-10.8257
-10.8336
-10.8423
-10.8515
-10.8613
-10.8714
-10.8819
-10.8927
-10.9038
-10.9152
-10.9268
-10.9386
-10.9507
-10.9631
-10.9757
-10.9886
-11.0018
-11.0153
-11.029
-11.0431
-11.0574
-11.072
-11.0868
-11.1018
-11.1169
-11.1321
-11.1474
-10.7983
-10.7994
-10.8023
-10.8064
-10.8116
-10.8178
-10.8249
-10.8327
-10.8412
-10.8503
-10.8598
-10.8696
-10.8798
-10.8902
-10.9008
-10.9117
-10.9227
-10.9339
-10.9453
-10.9569
-10.9686
-10.9805
-10.9925
-11.0047
-11.017
-11.0295
-11.0421
-11.0548
-11.0675
-11.0802
-11.0928
-11.1053
-11.1177
-10.7954
-10.7957
-10.7976
-10.8008
-10.8054
-10.8113
-10.8182
-10.826
-10.8346
-10.8437
-10.8532
-10.8631
-10.8732
-10.8835
-10.894
-10.9047
-10.9154
-10.9262
-10.937
-10.9479
-10.9589
-10.9699
-10.9809
-10.9919
-11.0029
-11.0139
-11.0248
-11.0356
-11.0463
-11.0568
-11.0671
-11.0771
-11.0867
-10.7934
-10.7954
-10.7987
-10.8029
-10.8079
-10.8139
-10.8207
-10.8282
-10.8364
-10.845
-10.8539
-10.8632
-10.8727
-10.8823
-10.8921
-10.902
-10.9119
-10.9218
-10.9317
-10.9416
-10.9514
-10.9612
-10.9709
-10.9805
-10.9899
-10.9992
-11.0083
-11.0171
-11.0257
-11.0339
-11.0418
-11.0492
-11.0561
-10.7855
-10.7835
-10.7833
-10.7856
-10.7902
-10.7965
-10.804
-10.8125
-10.8215
-10.8311
-10.8409
-10.8509
-10.861
-10.8711
-10.8812
-10.8912
-10.9011
-10.9109
-10.9205
-10.93
-10.9393
-10.9483
-10.9571
-10.9656
-10.9739
-10.9818
-10.9893
-10.9965
-11.0032
-11.0094
-11.0151
-11.0202
-11.0246
-10.7911
-10.7966
-10.8009
-10.804
-10.8079
-10.8128
-10.8186
-10.8253
-10.8326
-10.8404
-10.8486
-10.857
-10.8656
-10.8743
-10.883
-10.8917
-10.9003
-10.9087
-10.917
-10.9251
-10.933
-10.9406
-10.9479
-10.9548
-10.9614
-10.9675
-10.9732
-10.9784
-10.983
-10.987
-10.9904
-10.9931
-10.9951
-10.7617
-10.7506
-10.7475
-10.7514
-10.7589
-10.7681
-10.7783
-10.7892
-10.8004
-10.8117
-10.8229
-10.8339
-10.8446
-10.8551
-10.8652
-10.875
-10.8845
-10.8935
-10.9021
-10.9103
-10.9181
-10.9253
-10.9321
-10.9383
-10.944
-10.9491
-10.9536
-10.9574
-10.9605
-10.9628
-10.9644
-10.9652
-10.9651
-10.8093
-10.8255
-10.8268
-10.8211
-10.8188
-10.8199
-10.8229
-10.8272
-10.8325
-10.8387
-10.8454
-10.8525
-10.8598
-10.8672
-10.8746
-10.8819
-10.889
-10.896
-10.9026
-10.9089
-10.9148
-10.9202
-10.9252
-10.9297
-10.9335
-10.9368
-10.9394
-10.9413
-10.9424
-10.9427
-10.9423
-10.9409
-10.9386
-10.6995
-10.6614
-10.6558
-10.6796
-10.6997
-10.7179
-10.7359
-10.7531
-10.7692
-10.7844
-10.7987
-10.812
-10.8245
-10.8362
-10.8471
-10.8573
-10.8667
-10.8755
-10.8835
-10.8908
-10.8974
-10.9033
-10.9084
-10.9128
-10.9163
-10.919
-10.9209
-10.9219
-10.922
-10.9211
-10.9193
-10.9164
-10.9126
-10.9117
-10.9362
-10.907
-10.8703
-10.8468
-10.8389
-10.8357
-10.8349
-10.8365
-10.8398
-10.8442
-10.8493
-10.8549
-10.8607
-10.8666
-10.8725
-10.8781
-10.8836
-10.8887
-10.8933
-10.8975
-10.9011
-10.9042
-10.9066
-10.9082
-10.9092
-10.9093
-10.9085
-10.9069
-10.9043
-10.9008
-10.8963
-10.8908
-10.4961
-10.4143
-10.4713
-10.5521
-10.6084
-10.6466
-10.6798
-10.7087
-10.7335
-10.7549
-10.7739
-10.7907
-10.8058
-10.8193
-10.8314
-10.8424
-10.8522
-10.861
-10.8687
-10.8755
-10.8813
-10.8861
-10.89
-10.8929
-10.8948
-10.8957
-10.8955
-10.8943
-10.8921
-10.8887
-10.8843
-10.8787
-10.872
-11.4725
-11.1944
-10.9887
-10.8974
-10.8603
-10.8395
-10.8266
-10.8209
-10.8199
-10.8217
-10.8253
-10.8301
-10.8355
-10.8414
-10.8473
-10.8532
-10.8589
-10.8642
-10.8691
-10.8734
-10.8772
-10.8802
-10.8826
-10.8842
-10.8849
-10.8847
-10.8837
-10.8816
-10.8785
-10.8744
-10.8691
-10.8628
-10.8553
-9.51442
-10.076
-10.3805
-10.4965
-10.5778
-10.641
-10.6858
-10.7195
-10.7464
-10.7683
-10.7865
-10.8021
-10.8155
-10.8273
-10.8376
-10.8468
-10.8548
-10.8618
-10.8678
-10.8728
-10.8769
-10.88
-10.8821
-10.8831
-10.8832
-10.8821
-10.88
-10.8768
-10.8724
-10.8669
-10.8602
-10.8524
-10.8433
-10.1838
-9.96744
-9.92367
-10.044
-10.3776
-10.843
-11.4415
-12.1377
-12.8897
-13.6676
-14.4459
-15.2003
-15.9105
-16.5617
-17.1447
-17.6545
-18.089
-18.4479
-18.7322
-18.9424
-19.0784
-19.1391
-19.1217
-19.0217
-18.8327
-18.5458
-18.1501
-17.6329
-16.981
-16.1841
-15.2396
-14.1533
-12.9392
-11.6272
-10.2615
-8.88451
-7.53524
-6.25348
-5.07365
-4.01891
-3.09988
-2.31633
-1.66039
-1.11996
-0.681175
-0.330014
-0.0532308
0.161189
0.323869
0.444036
0.52961
0.587316
0.622825
0.640878
0.645419
0.639705
0.62641
0.607718
0.585396
0.560857
0.535214
0.50932
0.483801
0.459096
0.43548
0.413102
0.392006
0.372165
0.353502
0.335909
0.319266
0.303455
0.288363
0.273898
0.259987
0.246574
0.233616
0.221087
0.208967
0.19724
0.185886
0.174878
0.164188
0.153785
0.143639
0.133719
0.123999
0.114449
0.105043
0.0957557
0.0865547
0.0774343
0.0683333
0.0593122
0.0501825
0.0412778
0.0318537
0.0234004
0.0128017
0.00646111
-10.8666
-10.7136
-10.5188
-10.4973
-10.651
-10.9683
-11.4597
-12.0902
-12.8085
-13.5679
-14.3293
-15.0635
-15.7513
-16.381
-16.9456
-17.4406
-17.8629
-18.2116
-18.4864
-18.6869
-18.8124
-18.8612
-18.8302
-18.7147
-18.5081
-18.2017
-17.7849
-17.2467
-16.5775
-15.7732
-14.8358
-13.7724
-12.6009
-11.3506
-10.0531
-8.74245
-7.45661
-6.23281
-5.10198
-4.08544
-3.19376
-2.42786
-1.78165
-1.24487
-0.805325
-0.450343
-0.167733
0.0537325
0.224101
0.352192
0.445637
0.510969
0.553732
0.57859
0.589443
0.589529
0.581522
0.567614
0.549594
0.528905
0.506695
0.483857
0.461061
0.438787
0.417351
0.396933
0.377609
0.359371
0.342162
0.325886
0.310435
0.2957
0.281577
0.267981
0.254844
0.242117
0.229765
0.217766
0.206109
0.194784
0.183779
0.173074
0.162649
0.152476
0.14253
0.132784
0.123213
0.113793
0.104497
0.0953048
0.0861849
0.077133
0.0680925
0.0591196
0.0500409
0.0411615
0.0318037
0.0233148
0.0128996
0.00624666
-10.6587
-10.5038
-10.4359
-10.5263
-10.7605
-11.1137
-11.5778
-12.1386
-12.7757
-13.4637
-14.1729
-14.8733
-15.5407
-16.157
-16.7109
-17.1951
-17.6059
-17.942
-18.2034
-18.3902
-18.5015
-18.5353
-18.488
-18.3546
-18.1284
-17.8011
-17.3643
-16.811
-16.1376
-15.3425
-14.4268
-13.4
-12.2802
-11.0892
-9.85352
-8.60588
-7.38135
-6.21325
-5.1296
-4.15021
-3.28551
-2.53742
-1.9014
-1.36887
-0.929161
-0.570898
-0.282911
-0.0547557
0.123038
0.258869
0.360072
0.432973
0.482978
0.514665
0.531884
0.537846
0.535218
0.526198
0.512591
0.495865
0.477198
0.457522
0.437546
0.417791
0.398612
0.380223
0.362727
0.346143
0.330429
0.315506
0.301279
0.287649
0.274521
0.261817
0.249479
0.237462
0.225737
0.214291
0.203117
0.192212
0.181571
0.171184
0.161035
0.151102
0.141365
0.131801
0.122387
0.113102
0.103922
0.0948283
0.0857935
0.0768136
0.067837
0.0589148
0.0498899
0.0410366
0.0317492
0.023222
0.0130007
0.00601929
-10.7867
-10.7493
-10.7323
-10.8118
-11.0099
-11.3185
-11.734
-12.242
-12.8176
-13.4365
-14.0758
-14.7131
-15.3278
-15.903
-16.4246
-16.8838
-17.2771
-17.6009
-17.8519
-18.0279
-18.127
-18.1466
-18.0835
-17.9332
-17.6904
-17.3499
-16.9068
-16.3564
-15.6939
-14.9173
-14.0308
-13.0452
-11.9748
-10.8388
-9.66238
-8.47542
-7.30947
-6.19461
-5.15631
-4.21298
-3.37489
-2.64474
-2.01935
-1.49166
-1.05239
-0.691409
-0.398525
-0.164065
0.0208597
0.164219
0.273039
0.353427
0.410642
0.449165
0.472786
0.484685
0.487516
0.483478
0.474387
0.461731
0.446716
0.430306
0.413249
0.396103
0.37926
0.362967
0.347359
0.332478
0.318302
0.304769
0.291797
0.279299
0.267192
0.255407
0.243891
0.232607
0.221533
0.210659
0.199988
0.189522
0.179263
0.169207
0.159346
0.149664
0.140145
0.13077
0.121519
0.112375
0.103316
0.094326
0.0853804
0.076476
0.0675664
0.0586974
0.0497291
0.0409033
0.0316899
0.0231223
0.0131034
0.00578133
-10.84
-10.8153
-10.8201
-10.9146
-11.115
-11.4177
-11.8175
-12.296
-12.8289
-13.3955
-13.9786
-14.5607
-15.1246
-15.6552
-16.1391
-16.5676
-16.9345
-17.2349
-17.4656
-17.6239
-17.7074
-17.7134
-17.6388
-17.4798
-17.2322
-16.8912
-16.4515
-15.9082
-15.2588
-14.5047
-13.6509
-12.7058
-11.6827
-10.5997
-9.48014
-8.35103
-7.24086
-6.17678
-5.18201
-4.27365
-3.46173
-2.7496
-2.13526
-1.61295
-1.17473
-0.811595
-0.514312
-0.273957
-0.0822226
0.0684266
0.184696
0.272466
0.336836
0.382181
0.412222
0.430102
0.438457
0.439481
0.434998
0.42651
0.415248
0.402204
0.38816
0.373709
0.35928
0.345155
0.331495
0.318368
0.305775
0.293671
0.281989
0.270654
0.259596
0.248754
0.238084
0.227555
0.217153
0.206874
0.196724
0.186714
0.176852
0.167142
0.157581
0.14816
0.138868
0.12969
0.12061
0.111612
0.102679
0.0937976
0.0849454
0.0761199
0.0672807
0.0584674
0.0495586
0.0407615
0.0316256
0.0230161
0.0132068
0.00553504
-10.9129
-10.9214
-10.9618
-11.0706
-11.2626
-11.5381
-11.8969
-12.3301
-12.8189
-13.342
-13.8795
-14.4135
-14.9293
-15.4144
-15.8586
-16.2534
-16.5912
-16.8673
-17.0778
-17.2194
-17.289
-17.2837
-17.2001
-17.0345
-16.7826
-16.4401
-16.0032
-15.4693
-14.8375
-14.1087
-13.2871
-12.3813
-11.4038
-10.3718
-9.3065
-8.23241
-7.17525
-6.15958
-5.20656
-4.33208
-3.54588
-2.85183
-2.24888
-1.7325
-1.29592
-0.931208
-0.630036
-0.384217
-0.186017
-0.0283413
0.0951878
0.190213
0.261662
0.313796
0.35026
0.374152
0.388081
0.394236
0.394442
0.390213
0.382797
0.373214
0.362274
0.350605
0.338669
0.326779
0.315129
0.303811
0.292847
0.282212
0.271854
0.261714
0.251731
0.241858
0.232058
0.222308
0.212599
0.202933
0.193324
0.183788
0.174339
0.164988
0.155739
0.14659
0.137533
0.12856
0.119657
0.110812
0.102011
0.0932423
0.0844876
0.0757448
0.0669792
0.0582243
0.0493778
0.0406109
0.0315556
0.0229037
0.0133093
0.00528272
-10.9813
-11.0088
-11.0674
-11.1831
-11.3696
-11.6286
-11.9581
-12.3501
-12.7913
-13.2671
-13.7596
-14.2509
-14.726
-15.173
-15.5823
-15.9455
-16.2556
-16.5076
-16.6973
-16.8212
-16.8759
-16.8583
-16.7652
-16.593
-16.3383
-15.9975
-15.5675
-15.0462
-14.4327
-13.7287
-12.9388
-12.0712
-11.1379
-10.1546
-9.14098
-8.11915
-7.11236
-6.14283
-5.22985
-4.38817
-3.62723
-2.95125
-2.36003
-1.85009
-1.41572
-1.05
-0.745462
-0.494625
-0.290326
-0.125909
0.00466677
0.106797
0.185231
0.244104
0.286977
0.316895
0.336438
0.347781
0.352746
0.352856
0.349374
0.343339
0.335591
0.326787
0.317421
0.307838
0.298259
0.288804
0.279516
0.27039
0.261393
0.252479
0.243601
0.234722
0.225815
0.216865
0.20787
0.198838
0.189788
0.180742
0.171721
0.162743
0.153819
0.144951
0.13614
0.127379
0.11866
0.109974
0.10131
0.0926595
0.0840065
0.07535
0.0666614
0.0579676
0.0491862
0.0404513
0.0314794
0.0227852
0.0134092
0.00502686
-11.0463
-11.0889
-11.1624
-11.2843
-11.4655
-11.7084
-12.0113
-12.368
-12.7675
-13.1968
-13.6417
-14.0878
-14.5218
-14.9316
-15.3072
-15.6402
-15.9237
-16.1524
-16.3221
-16.429
-16.4697
-16.4412
-16.3401
-16.1632
-15.9073
-15.5695
-15.147
-14.6383
-14.0434
-13.3643
-12.6055
-11.775
-10.8841
-9.94753
-8.98305
-8.01085
-7.05192
-6.12636
-5.25177
-4.44184
-3.70567
-3.04773
-2.46854
-1.9655
-1.53391
-1.16774
-0.860359
-0.604963
-0.394948
-0.224097
-0.0867085
0.0223575
0.107662
0.173205
0.222457
0.258402
0.283584
0.300159
0.309944
0.314463
0.314993
0.312591
0.308117
0.302258
0.295536
0.288328
0.280882
0.273344
0.265781
0.258208
0.250608
0.242951
0.235207
0.227347
0.219357
0.211229
0.202967
0.194588
0.186115
0.177576
0.168998
0.160407
0.151819
0.143244
0.134687
0.126147
0.117619
0.109098
0.100577
0.0920484
0.0835014
0.074935
0.0663267
0.0576968
0.0489833
0.0402823
0.0313964
0.0226608
0.0135049
0.00477007
-11.1059
-11.1597
-11.2429
-11.3676
-11.5422
-11.7695
-12.0484
-12.3736
-12.736
-13.1248
-13.5277
-13.9319
-14.3257
-14.6982
-15.0401
-15.343
-15.6001
-15.806
-15.9561
-16.0466
-16.0739
-16.035
-15.9266
-15.7457
-15.4895
-15.1553
-14.7411
-14.2458
-13.6697
-13.0151
-12.2867
-11.4921
-10.642
-9.74993
-8.83222
-7.90714
-6.99367
-6.11001
-5.27223
-4.49303
-3.78112
-3.14116
-2.57423
-2.07855
-1.65026
-1.28421
-0.974502
-0.715016
-0.499682
-0.322722
-0.178774
-0.0629621
0.0290793
0.101207
0.156792
0.19875
0.229583
0.251423
0.266076
0.275068
0.27968
0.280984
0.279861
0.277023
0.273018
0.268251
0.263
0.257433
0.251643
0.245664
0.239499
0.233133
0.226551
0.219737
0.212686
0.205401
0.197894
0.190185
0.182306
0.17429
0.166171
0.15798
0.14974
0.141468
0.133174
0.124862
0.116533
0.108183
0.0998096
0.0914085
0.0829718
0.0744993
0.0659747
0.0574117
0.0487687
0.0401037
0.031306
0.0225309
0.0135946
0.00451502
-11.1596
-11.2215
-11.3109
-11.4361
-11.6037
-11.8163
-12.0728
-12.369
-12.6976
-13.0491
-13.4131
-13.7785
-14.1346
-14.4718
-14.781
-15.0547
-15.2859
-15.4694
-15.6003
-15.6748
-15.6893
-15.6405
-15.5254
-15.3413
-15.0854
-14.7555
-14.35
-13.8683
-13.3109
-12.6805
-11.9817
-11.2219
-10.4108
-9.56125
-8.68801
-7.80767
-6.93739
-6.09369
-5.2912
-4.54171
-3.85354
-3.23146
-2.677
-2.18906
-1.76458
-1.39918
-1.08767
-0.824569
-0.604326
-0.421596
-0.271361
-0.149011
-0.0503851
0.0282248
0.0900804
0.138023
0.174506
0.201632
0.221192
0.234706
0.243462
0.24854
0.25084
0.251093
0.249873
0.247613
0.244614
0.241074
0.237105
0.232763
0.22807
0.223029
0.217637
0.211894
0.205806
0.199385
0.19265
0.185631
0.178363
0.170885
0.163239
0.155461
0.147581
0.139623
0.131601
0.123526
0.115401
0.107229
0.0990086
0.0907396
0.0824174
0.0740424
0.065605
0.0571117
0.0485421
0.0399153
0.0312076
0.0223957
0.0136767
0.00426433
-11.2069
-11.2744
-11.3672
-11.4912
-11.6511
-11.8493
-12.085
-12.3546
-12.652
-12.9693
-13.2974
-13.6267
-13.9476
-14.2513
-14.5295
-14.775
-14.9812
-15.1428
-15.2551
-15.3141
-15.3161
-15.258
-15.1368
-14.9499
-14.6948
-14.3698
-13.9734
-13.5054
-12.9667
-12.3601
-11.69
-10.9636
-10.1901
-9.38098
-8.55001
-7.71215
-6.88292
-6.07729
-5.30863
-4.58786
-3.9229
-3.31855
-2.77672
-2.29689
-1.8767
-1.51246
-1.19967
-0.933416
-0.708679
-0.520532
-0.364297
-0.235635
-0.130593
-0.0456212
0.0224271
0.0763116
0.11843
0.150851
0.175345
0.193424
0.206376
0.215288
0.221075
0.224484
0.226114
0.226421
0.225733
0.224271
0.222171
0.219509
0.216326
0.212641
0.20847
0.203824
0.198721
0.193184
0.187241
0.180928
0.174287
0.167363
0.160204
0.152851
0.145343
0.137708
0.129968
0.122137
0.114224
0.106235
0.0981734
0.0900413
0.0818379
0.0735643
0.0652173
0.0567968
0.0483029
0.039717
0.0311006
0.0222555
0.0137497
0.00402052
-11.2477
-11.3187
-11.4128
-11.534
-11.6858
-11.8702
-12.0863
-12.3313
-12.6001
-12.8858
-13.1807
-13.4763
-13.7643
-14.0364
-14.2852
-14.5037
-14.6859
-14.8264
-14.9206
-14.9645
-14.9546
-14.8876
-14.7608
-14.5716
-14.3179
-13.998
-13.611
-13.1568
-12.6366
-12.0532
-11.4111
-10.7168
-9.97915
-9.20869
-8.41789
-7.62035
-6.83012
-6.06078
-5.32454
-4.63151
-3.9892
-3.4024
-2.87331
-2.40191
-1.98644
-1.62386
-1.31028
-1.04135
-0.812544
-0.619342
-0.457408
-0.322674
-0.211401
-0.120203
-0.0460555
0.0137135
0.0614404
0.0991524
0.128597
0.151273
0.168463
0.181262
0.190592
0.197217
0.201757
0.204689
0.206367
0.207034
0.206849
0.205908
0.204272
0.201977
0.199055
0.195531
0.191436
0.186803
0.18167
0.17608
0.170081
0.163726
0.157067
0.150153
0.143027
0.135726
0.128275
0.120696
0.113001
0.105202
0.0973043
0.0893137
0.0812333
0.0730646
0.0648114
0.0564666
0.0480511
0.0395086
0.0309847
0.0221105
0.0138121
0.00378589
-11.2818
-11.3548
-11.4485
-11.5657
-11.709
-11.88
-12.0778
-12.3
-12.5423
-12.7989
-13.0631
-13.3274
-13.5845
-13.827
-14.0478
-14.2407
-14.3998
-14.52
-14.5968
-14.6263
-14.6049
-14.5296
-14.3976
-14.2065
-13.9545
-13.6401
-13.2626
-12.8222
-12.3203
-11.7595
-11.1444
-10.4811
-9.77768
-9.04398
-8.29132
-7.53205
-6.77888
-6.04412
-5.33894
-4.67268
-4.05246
-3.483
-2.96672
-2.50402
-2.09368
-1.73321
-1.41932
-1.14818
-0.915726
-0.717837
-0.550515
-0.409964
-0.29266
-0.195387
-0.115249
-0.0496668
0.00362764
0.0466157
0.0810154
0.108309
0.129774
0.146502
0.159425
0.16932
0.176823
0.182435
0.186529
0.189373
0.191148
0.19197
0.191917
0.191045
0.1894
0.187023
0.183958
0.180249
0.175943
0.171092
0.16575
0.159978
0.153831
0.147367
0.140635
0.133677
0.126524
0.119204
0.111735
0.10413
0.0964016
0.088557
0.0806036
0.0725436
0.0643874
0.0561212
0.0477865
0.0392902
0.0308594
0.0219613
0.0138629
0.00356244
-11.3096
-11.383
-11.4749
-11.5872
-11.7218
-11.8797
-12.0604
-12.2614
-12.4793
-12.709
-12.9447
-13.18
-13.4083
-13.6228
-13.8173
-13.9858
-14.1229
-14.2237
-14.2839
-14.2995
-14.2672
-14.184
-14.0472
-13.8547
-13.6047
-13.2961
-12.9282
-12.5015
-12.0174
-11.4787
-10.8896
-10.2559
-9.58523
-8.88651
-8.17006
-7.4471
-6.72913
-6.02732
-5.35188
-4.71144
-4.11272
-3.56035
-3.0569
-2.60313
-2.19827
-1.84036
-1.52663
-1.25372
-1.01803
-0.815829
-0.643439
-0.497336
-0.374216
-0.271034
-0.185027
-0.113717
-0.0549095
-0.00667295
0.0326761
0.0645996
0.0903625
0.111056
0.127614
0.140825
0.151341
0.15968
0.166239
0.171306
0.175083
0.177706
0.179272
0.179854
0.179514
0.178309
0.176295
0.173528
0.170066
0.165969
0.161299
0.156121
0.1505
0.144497
0.138169
0.131562
0.124716
0.117662
0.110424
0.10302
0.0954659
0.0877717
0.0799493
0.0720015
0.0639453
0.0557607
0.047509
0.0390618
0.0307245
0.021808
0.0139013
0.00335173
-11.3309
-11.4036
-11.4927
-11.5994
-11.7251
-11.8705
-12.0348
-12.2162
-12.4115
-12.6163
-12.8258
-13.0341
-13.2354
-13.4238
-13.5935
-13.739
-13.8552
-13.9375
-13.9817
-13.9841
-13.9415
-13.8508
-13.7097
-13.5161
-13.2685
-12.9657
-12.6074
-12.1942
-11.7275
-11.2102
-10.6462
-10.0409
-9.40145
-8.73598
-8.0539
-7.36537
-6.68083
-6.01041
-5.36342
-4.74786
-4.17004
-3.63447
-3.14384
-2.69918
-2.30012
-1.94517
-1.63202
-1.35779
-1.11928
-0.913133
-0.736
-0.58462
-0.455909
-0.346996
-0.255257
-0.178319
-0.114065
-0.0606199
-0.0163389
0.0202146
0.0502911
0.0749756
0.0952034
0.111771
0.125343
0.136454
0.145521
0.152853
0.158671
0.163132
0.166351
0.168417
0.169409
0.169399
0.168456
0.16665
0.164048
0.160719
0.156734
0.152163
0.147078
0.141547
0.135632
0.129386
0.122854
0.116073
0.109072
0.101874
0.0944982
0.0869587
0.0792709
0.0714388
0.0634856
0.0553855
0.0472189
0.0388237
0.03058
0.0216512
0.0139267
0.00315492
-11.3462
-11.4172
-11.5026
-11.6032
-11.7199
-11.853
-12.002
-12.165
-12.3393
-12.5212
-12.7063
-12.8896
-13.0659
-13.2299
-13.3763
-13.5001
-13.5965
-13.6612
-13.6903
-13.6802
-13.6277
-13.5302
-13.3851
-13.1908
-12.9456
-12.6488
-12.3001
-11.9002
-11.4505
-10.9538
-10.4138
-9.83579
-9.22603
-8.59214
-7.94265
-7.28678
-6.63397
-5.99342
-5.37365
-4.78202
-4.22449
-3.70541
-3.22753
-2.79211
-2.39913
-2.04751
-1.73535
-1.46021
-1.21928
-1.00956
-0.828017
-0.671643
-0.537575
-0.423123
-0.3258
-0.243346
-0.173725
-0.115124
-0.06594
-0.0247664
0.00962919
0.0383223
0.0622467
0.0822037
0.0988678
0.11279
0.124404
0.134038
0.141934
0.148268
0.153171
0.15675
0.159099
0.160306
0.160454
0.159625
0.157898
0.15535
0.152061
0.148109
0.143571
0.138521
0.133027
0.12715
0.120939
0.114438
0.10768
0.100693
0.0934999
0.086119
0.0785695
0.0708562
0.0630089
0.054996
0.0469165
0.0385763
0.0304259
0.0214911
0.013939
0.0029726
-11.3555
-11.424
-11.5051
-11.5992
-11.7069
-11.8282
-11.9626
-12.1085
-12.2633
-12.424
-12.5865
-12.7466
-12.8997
-13.0409
-13.1655
-13.2689
-13.3466
-13.3948
-13.4096
-13.3876
-13.3259
-13.2219
-13.0734
-12.8785
-12.6361
-12.3453
-12.0061
-11.6191
-11.186
-10.7091
-10.1923
-9.64017
-9.05869
-8.45477
-7.83618
-7.21125
-6.58854
-5.97642
-5.38265
-4.81404
-4.27617
-3.77323
-3.30799
-2.88191
-2.49524
-2.14726
-1.83647
-1.56082
-1.31786
-1.10494
-0.919309
-0.758228
-0.619048
-0.499255
-0.396511
-0.308665
-0.233769
-0.170075
-0.116029
-0.0702563
-0.0315463
0.00116379
0.0288029
0.0521745
0.0719611
0.0887266
0.102922
0.114893
0.1249
0.133137
0.139753
0.144871
0.148601
0.151046
0.152303
0.152467
0.151628
0.149874
0.147292
0.143968
0.139986
0.135426
0.130361
0.124859
0.118976
0.11276
0.10625
0.099478
0.0924727
0.0852542
0.0778462
0.0702548
0.0625159
0.0545928
0.0466022
0.0383199
0.0302625
0.0213283
0.0139386
0.00280489
-11.3592
-11.4246
-11.5008
-11.5882
-11.6868
-11.7968
-11.9174
-12.0472
-12.184
-12.3249
-12.4666
-12.6052
-12.7367
-12.8567
-12.9609
-13.0452
-13.1055
-13.1381
-13.1394
-13.1063
-13.036
-12.926
-12.7744
-12.5793
-12.3397
-12.055
-11.7251
-11.3508
-10.9336
-10.4759
-9.98117
-9.45379
-8.89919
-8.32369
-7.73436
-7.13874
-6.54458
-5.95948
-5.39054
-4.84403
-4.32517
-3.83799
-3.38525
-2.96854
-2.58838
-2.24433
-1.93527
-1.65948
-1.41486
-1.19909
-1.0097
-0.844197
-0.700154
-0.575232
-0.467236
-0.374133
-0.294066
-0.225356
-0.1665
-0.11616
-0.0731505
-0.0364246
-0.00506131
0.0217424
0.0446748
0.0643108
0.0811155
0.0954527
0.1076
0.117768
0.126123
0.132804
0.137936
0.141637
0.14402
0.14519
0.145251
0.144302
0.142436
0.139749
0.13633
0.132267
0.127639
0.122518
0.116968
0.111042
0.104785
0.0982331
0.0914188
0.084366
0.0771025
0.0696358
0.0620078
0.054177
0.0462767
0.0380553
0.0300902
0.0211631
0.013926
0.00265138
-11.3575
-11.4193
-11.4904
-11.5708
-11.6605
-11.7595
-11.8671
-11.9818
-12.1017
-12.2244
-12.3468
-12.4656
-12.577
-12.6773
-12.7626
-12.8291
-12.873
-12.891
-12.8797
-12.8362
-12.7579
-12.6424
-12.488
-12.293
-12.0564
-11.7777
-11.457
-11.095
-10.6932
-10.2539
-9.78023
-9.27639
-8.7473
-8.19873
-7.63709
-7.0692
-6.50211
-5.94269
-5.39743
-4.87211
-4.37162
-3.89978
-3.45936
-3.05203
-2.67851
-2.33865
-2.03162
-1.75603
-1.51011
-1.29183
-1.099
-0.929372
-0.780718
-0.650883
-0.537816
-0.439602
-0.35448
-0.280841
-0.217238
-0.162373
-0.11509
-0.0743591
-0.0392711
-0.00902581
0.0170683
0.0395949
0.0590322
0.0757596
0.090071
0.102194
0.11231
0.120575
0.127128
0.132102
0.135623
0.137813
0.138784
0.138647
0.137507
0.135463
0.132614
0.129053
0.124867
0.120133
0.114921
0.10929
0.103289
0.0969607
0.0903406
0.0834566
0.0763404
0.0690008
0.0614858
0.0537495
0.0459411
0.0377832
0.0299095
0.0209961
0.0139022
0.00251128
-11.3509
-11.4086
-11.4743
-11.5476
-11.6286
-11.7171
-11.8123
-11.9128
-12.0171
-12.1229
-12.2274
-12.3278
-12.4207
-12.5027
-12.5704
-12.6203
-12.649
-12.6533
-12.6303
-12.5771
-12.4914
-12.371
-12.2141
-12.0194
-11.786
-11.5133
-11.2015
-10.8514
-10.4644
-10.0427