/*--------------------------------*- C++ -*----------------------------------*\
  =========                 |
  \\      /  F ield         | OpenFOAM: The Open Source CFD Toolbox
   \\    /   O peration     | Website:  https://openfoam.org
    \\  /    A nd           | Version:  10
     \\/     M anipulation  |
\*---------------------------------------------------------------------------*/
FoamFile
{
    format      ascii;
    class       surfaceScalarField;
    location    "0.055";
    object      phi;
}
// * * * * * * * * * * * * * * * * * * * * * * * * * * * * * * * * * * * * * //

dimensions      [0 3 -1 0 0 0 0];

internalField   nonuniform List<scalar> 
13452
(
6.0577e-05
-3.08493e-07
6.03701e-05
2.06813e-07
5.98974e-05
4.72698e-07
5.92827e-05
6.14783e-07
5.86759e-05
6.06767e-07
5.81373e-05
5.38546e-07
5.76697e-05
4.67698e-07
5.72627e-05
4.06991e-07
5.6905e-05
3.57652e-07
5.65867e-05
3.18322e-07
5.62998e-05
2.86837e-07
5.60386e-05
2.61251e-07
5.57985e-05
2.40103e-07
5.55762e-05
2.22343e-07
5.53689e-05
2.07233e-07
5.51747e-05
1.94261e-07
5.49916e-05
1.8308e-07
5.48181e-05
1.73458e-07
5.46529e-05
1.65251e-07
5.44945e-05
1.58384e-07
5.43416e-05
1.52847e-07
5.41929e-05
1.48695e-07
5.40469e-05
1.4606e-07
5.39017e-05
1.45182e-07
5.37553e-05
1.46433e-07
5.36047e-05
1.50524e-07
5.34464e-05
1.58355e-07
5.32739e-05
1.72458e-07
5.30781e-05
1.95832e-07
5.28428e-05
2.35313e-07
5.25186e-05
3.24142e-07
5.20776e-05
4.41061e-07
6.85121e-07
5.13925e-05
6.18026e-05
-1.20728e-07
6.17622e-05
2.47157e-07
6.18787e-05
3.56214e-07
6.20396e-05
4.53903e-07
6.21454e-05
5.00943e-07
6.21737e-05
5.103e-07
6.21389e-05
5.02505e-07
6.20618e-05
4.84088e-07
6.19588e-05
4.60631e-07
6.18411e-05
4.35994e-07
6.17159e-05
4.12018e-07
6.15877e-05
3.89477e-07
6.14591e-05
3.68669e-07
6.13318e-05
3.49652e-07
6.12067e-05
3.32378e-07
6.10842e-05
3.1677e-07
6.09645e-05
3.02753e-07
6.08477e-05
2.90275e-07
6.07336e-05
2.79314e-07
6.06221e-05
2.69888e-07
6.05129e-05
2.62061e-07
6.04056e-05
2.55959e-07
6.02999e-05
2.51783e-07
6.01953e-05
2.49847e-07
6.00911e-05
2.50613e-07
5.99868e-05
2.54802e-07
5.98817e-05
2.63496e-07
5.97758e-05
2.78353e-07
5.96688e-05
3.02831e-07
5.95657e-05
3.38329e-07
5.94858e-05
4.04056e-07
5.94529e-05
4.74006e-07
6.35804e-07
5.95022e-05
6.36611e-05
-2.04661e-08
6.37524e-05
1.55867e-07
6.38139e-05
2.94704e-07
6.38661e-05
4.01777e-07
6.39083e-05
4.58692e-07
6.3939e-05
4.79606e-07
6.39583e-05
4.83221e-07
6.39646e-05
4.77773e-07
6.39583e-05
4.66897e-07
6.39412e-05
4.53176e-07
6.3915e-05
4.38152e-07
6.38818e-05
4.22726e-07
6.3843e-05
4.07469e-07
6.37999e-05
3.92745e-07
6.37535e-05
3.78788e-07
6.37045e-05
3.65757e-07
6.36535e-05
3.53781e-07
6.36008e-05
3.42974e-07
6.35466e-05
3.33459e-07
6.34911e-05
3.25382e-07
6.34343e-05
3.1893e-07
6.33759e-05
3.14348e-07
6.33157e-05
3.11964e-07
6.32533e-05
3.12227e-07
6.31882e-05
3.15767e-07
6.31195e-05
3.23457e-07
6.30464e-05
3.36644e-07
6.29678e-05
3.56921e-07
6.28826e-05
3.88058e-07
6.27901e-05
4.30777e-07
6.26944e-05
4.99781e-07
6.25892e-05
5.79201e-07
7.20231e-07
6.25048e-05
6.55758e-05
-1.32155e-08
6.55532e-05
1.78476e-07
6.55636e-05
2.84319e-07
6.56038e-05
3.61617e-07
6.5652e-05
4.10436e-07
6.56961e-05
4.35493e-07
6.57325e-05
4.46866e-07
6.57607e-05
4.49512e-07
6.57814e-05
4.46211e-07
6.57953e-05
4.39306e-07
6.58031e-05
4.30321e-07
6.58057e-05
4.20183e-07
6.58036e-05
4.09521e-07
6.57976e-05
3.98779e-07
6.57881e-05
3.88285e-07
6.57755e-05
3.78298e-07
6.57603e-05
3.69038e-07
6.57426e-05
3.60713e-07
6.57225e-05
3.53537e-07
6.57001e-05
3.47742e-07
6.56754e-05
3.43606e-07
6.56483e-05
3.41467e-07
6.56185e-05
3.41753e-07
6.55857e-05
3.45023e-07
6.55495e-05
3.52023e-07
6.55092e-05
3.63735e-07
6.54642e-05
3.81593e-07
6.54139e-05
4.07249e-07
6.53581e-05
4.43901e-07
6.52959e-05
4.92988e-07
6.52324e-05
5.63214e-07
6.51637e-05
6.47966e-07
7.69239e-07
6.51147e-05
6.74264e-05
1.71446e-08
6.74511e-05
1.53813e-07
6.7479e-05
2.56448e-07
6.75093e-05
3.31248e-07
6.75394e-05
3.80407e-07
6.75683e-05
4.06584e-07
6.75959e-05
4.19189e-07
6.76217e-05
4.2379e-07
6.76447e-05
4.23127e-07
6.76649e-05
4.19171e-07
6.7682e-05
4.13207e-07
6.76962e-05
4.06031e-07
6.77075e-05
3.982e-07
6.77161e-05
3.90134e-07
6.77222e-05
3.82162e-07
6.7726e-05
3.7456e-07
6.77274e-05
3.67579e-07
6.77267e-05
3.61465e-07
6.77237e-05
3.56475e-07
6.77186e-05
3.52894e-07
6.77111e-05
3.51053e-07
6.77013e-05
3.51352e-07
6.76887e-05
3.54285e-07
6.76733e-05
3.60475e-07
6.76546e-05
3.70731e-07
6.76322e-05
3.86077e-07
6.76059e-05
4.07925e-07
6.75753e-05
4.37876e-07
6.75406e-05
4.78569e-07
6.7502e-05
5.31627e-07
6.74628e-05
6.0242e-07
6.74221e-05
6.88672e-07
8.00445e-07
6.73908e-05
6.93767e-05
2.44506e-08
6.93861e-05
1.44438e-07
6.9404e-05
2.3851e-07
6.94297e-05
3.05625e-07
6.94588e-05
3.51313e-07
6.94875e-05
3.77832e-07
6.95147e-05
3.92013e-07
6.954e-05
3.98497e-07
6.95633e-05
3.99773e-07
6.95848e-05
3.977e-07
6.96044e-05
3.9356e-07
6.96223e-05
3.8817e-07
6.96384e-05
3.82096e-07
6.96528e-05
3.75762e-07
6.96654e-05
3.69503e-07
6.96764e-05
3.63605e-07
6.96856e-05
3.58334e-07
6.96932e-05
3.53954e-07
6.96989e-05
3.50749e-07
6.97027e-05
3.49031e-07
6.97046e-05
3.49163e-07
6.97044e-05
3.51579e-07
6.97019e-05
3.56807e-07
6.96969e-05
3.65498e-07
6.96891e-05
3.7847e-07
6.96785e-05
3.96731e-07
6.96648e-05
4.21589e-07
6.96482e-05
4.54513e-07
6.96291e-05
4.976e-07
6.96084e-05
5.5239e-07
6.95886e-05
6.22183e-07
6.95707e-05
7.06543e-07
8.09821e-07
6.95614e-05
7.13592e-05
3.15647e-08
7.13706e-05
1.33027e-07
7.13913e-05
2.17837e-07
7.14167e-05
2.80227e-07
7.14437e-05
3.24345e-07
7.14699e-05
3.51605e-07
7.14949e-05
3.67033e-07
7.15186e-05
3.74792e-07
7.1541e-05
3.77352e-07
7.15622e-05
3.76519e-07
7.15822e-05
3.73568e-07
7.1601e-05
3.69333e-07
7.16187e-05
3.644e-07
7.16353e-05
3.59211e-07
7.16506e-05
3.54114e-07
7.16648e-05
3.49411e-07
7.16778e-05
3.45379e-07
7.16895e-05
3.423e-07
7.16997e-05
3.40469e-07
7.17085e-05
3.40218e-07
7.17158e-05
3.41926e-07
7.17213e-05
3.46039e-07
7.1725e-05
3.53095e-07
7.17268e-05
3.63737e-07
7.17265e-05
3.78757e-07
7.17241e-05
3.99095e-07
7.17198e-05
4.25911e-07
7.17139e-05
4.60483e-07
7.1707e-05
5.04431e-07
7.17004e-05
5.59047e-07
7.16962e-05
6.26349e-07
7.16963e-05
7.0649e-07
8.01111e-07
7.1705e-05
7.34032e-05
3.36109e-08
7.34137e-05
1.2258e-07
7.3432e-05
1.99547e-07
7.34548e-05
2.57374e-07
7.348e-05
2.99147e-07
7.35054e-05
3.26261e-07
7.35299e-05
3.42485e-07
7.35534e-05
3.51333e-07
7.35757e-05
3.55057e-07
7.35969e-05
3.55329e-07
7.3617e-05
3.53384e-07
7.36363e-05
3.50077e-07
7.36547e-05
3.46021e-07
7.36722e-05
3.41685e-07
7.36889e-05
3.37443e-07
7.37047e-05
3.33615e-07
7.37195e-05
3.30498e-07
7.37335e-05
3.28386e-07
7.37463e-05
3.27587e-07
7.37581e-05
3.28442e-07
7.37687e-05
3.31335e-07
7.3778e-05
3.36711e-07
7.3786e-05
3.45093e-07
7.37927e-05
3.57098e-07
7.3798e-05
3.73454e-07
7.38021e-05
3.95005e-07
7.38052e-05
4.22736e-07
7.3808e-05
4.57703e-07
7.38113e-05
5.01113e-07
7.38164e-05
5.5395e-07
7.38254e-05
6.17393e-07
7.38403e-05
6.91636e-07
7.7699e-07
7.38644e-05
7.55022e-05
3.39039e-08
7.5512e-05
1.12794e-07
7.55292e-05
1.82263e-07
7.55509e-05
2.35687e-07
7.5575e-05
2.75118e-07
7.55994e-05
3.01808e-07
7.56234e-05
3.1854e-07
7.56465e-05
3.28219e-07
7.56686e-05
3.32884e-07
7.56899e-05
3.34083e-07
7.57103e-05
3.32998e-07
7.57299e-05
3.3048e-07
7.57487e-05
3.27156e-07
7.57669e-05
3.23515e-07
7.57844e-05
3.1995e-07
7.58012e-05
3.168e-07
7.58173e-05
3.14376e-07
7.58327e-05
3.12985e-07
7.58474e-05
3.12943e-07
7.58612e-05
3.14591e-07
7.58743e-05
3.18311e-07
7.58864e-05
3.24533e-07
7.58978e-05
3.33752e-07
7.59083e-05
3.46533e-07
7.59183e-05
3.63526e-07
7.59278e-05
3.85453e-07
7.59374e-05
4.13119e-07
7.59478e-05
4.47348e-07
7.59599e-05
4.88997e-07
7.59751e-05
5.38732e-07
7.59954e-05
5.97168e-07
7.60227e-05
6.64328e-07
7.39845e-07
7.60598e-05
7.76606e-05
3.28436e-08
7.767e-05
1.03433e-07
7.76861e-05
1.66151e-07
7.77064e-05
2.15431e-07
7.7729e-05
2.52445e-07
7.77525e-05
2.78309e-07
7.77759e-05
2.95141e-07
7.77988e-05
3.05334e-07
7.7821e-05
3.10705e-07
7.78424e-05
3.12661e-07
7.78631e-05
3.12307e-07
7.78831e-05
3.1047e-07
7.79025e-05
3.07777e-07
7.79213e-05
3.04723e-07
7.79395e-05
3.01715e-07
7.79572e-05
2.99103e-07
7.79744e-05
2.97208e-07
7.7991e-05
2.96344e-07
7.80072e-05
2.96827e-07
7.80227e-05
2.98996e-07
7.80378e-05
3.03215e-07
7.80525e-05
3.09893e-07
7.80668e-05
3.1948e-07
7.80808e-05
3.3248e-07
7.80949e-05
3.49447e-07
7.81094e-05
3.70976e-07
7.81248e-05
3.97691e-07
7.81419e-05
4.30194e-07
7.81619e-05
4.69046e-07
7.8186e-05
5.14629e-07
7.8216e-05
5.67157e-07
7.82539e-05
6.26445e-07
6.91772e-07
7.8302e-05
7.98801e-05
3.10492e-08
7.9889e-05
9.45389e-08
7.9904e-05
1.5112e-07
7.99231e-05
1.96388e-07
7.99446e-05
2.30918e-07
7.99672e-05
2.55674e-07
7.99901e-05
2.72294e-07
8.00127e-05
2.82729e-07
8.00348e-05
2.88574e-07
8.00564e-05
2.91098e-07
8.00774e-05
2.91323e-07
8.00978e-05
2.90041e-07
8.01177e-05
2.87866e-07
8.01371e-05
2.85291e-07
8.01561e-05
2.82725e-07
8.01747e-05
2.80523e-07
8.01929e-05
2.7901e-07
8.02108e-05
2.78496e-07
8.02283e-05
2.79293e-07
8.02456e-05
2.81726e-07
8.02626e-05
2.8614e-07
8.02796e-05
2.92904e-07
8.02967e-05
3.0242e-07
8.0314e-05
3.15118e-07
8.0332e-05
3.31452e-07
8.03511e-05
3.51886e-07
8.03719e-05
3.76875e-07
8.03953e-05
4.06821e-07
8.04223e-05
4.42037e-07
8.04543e-05
4.82667e-07
8.04928e-05
5.28642e-07
8.05397e-05
5.79595e-07
6.34633e-07
8.05968e-05
8.21626e-05
2.88558e-08
8.21711e-05
8.60572e-08
8.21852e-05
1.37043e-07
8.22031e-05
1.78448e-07
8.22236e-05
2.10467e-07
8.22454e-05
2.33895e-07
8.22676e-05
2.50022e-07
8.22899e-05
2.60435e-07
8.2312e-05
2.66521e-07
8.23337e-05
2.69419e-07
8.23549e-05
2.70062e-07
8.23758e-05
2.69198e-07
8.23962e-05
2.67418e-07
8.24163e-05
2.65203e-07
8.24361e-05
2.62958e-07
8.24556e-05
2.61035e-07
8.24748e-05
2.59752e-07
8.24939e-05
2.59413e-07
8.25129e-05
2.60317e-07
8.25318e-05
2.62768e-07
8.25509e-05
2.6708e-07
8.25702e-05
2.73581e-07
8.259e-05
2.82613e-07
8.26106e-05
2.9453e-07
8.26324e-05
3.09685e-07
8.26559e-05
3.28416e-07
8.26817e-05
3.51025e-07
8.27108e-05
3.77739e-07
8.27441e-05
4.08674e-07
8.2783e-05
4.43781e-07
8.28289e-05
4.82799e-07
8.28832e-05
5.25226e-07
5.70107e-07
8.29478e-05
8.45102e-05
2.64787e-08
8.45182e-05
7.79725e-08
8.45315e-05
1.23822e-07
8.45484e-05
1.615e-07
8.45679e-05
1.90982e-07
8.45889e-05
2.12906e-07
8.46106e-05
2.283e-07
8.46326e-05
2.38458e-07
8.46545e-05
2.44572e-07
8.46763e-05
2.47654e-07
8.46978e-05
2.48553e-07
8.4719e-05
2.47962e-07
8.474e-05
2.46443e-07
8.47608e-05
2.4446e-07
8.47813e-05
2.42405e-07
8.48017e-05
2.40619e-07
8.48221e-05
2.3941e-07
8.48424e-05
2.39068e-07
8.48629e-05
2.3987e-07
8.48835e-05
2.42095e-07
8.49046e-05
2.46021e-07
8.49262e-05
2.51927e-07
8.49488e-05
2.60094e-07
8.49725e-05
2.70797e-07
8.49979e-05
2.84294e-07
8.50255e-05
3.00807e-07
8.5056e-05
3.20503e-07
8.50903e-05
3.43464e-07
8.51293e-05
3.69653e-07
8.51742e-05
3.98877e-07
8.52263e-05
4.30748e-07
8.52868e-05
4.64682e-07
4.99732e-07
8.53572e-05
8.69246e-05
2.40453e-08
8.69323e-05
7.02627e-08
8.69448e-05
1.11354e-07
8.69608e-05
1.45433e-07
8.69795e-05
1.72364e-07
8.69997e-05
1.92647e-07
8.70209e-05
2.07106e-07
8.70426e-05
2.16797e-07
8.70644e-05
2.22738e-07
8.70862e-05
2.25822e-07
8.7108e-05
2.26812e-07
8.71296e-05
2.26347e-07
8.71511e-05
2.24953e-07
8.71725e-05
2.23068e-07
8.71938e-05
2.21065e-07
8.72152e-05
2.19271e-07
8.72366e-05
2.17975e-07
8.72582e-05
2.17448e-07
8.72801e-05
2.17943e-07
8.73025e-05
2.19705e-07
8.73256e-05
2.22973e-07
8.73495e-05
2.27977e-07
8.73747e-05
2.34934e-07
8.74014e-05
2.44044e-07
8.74303e-05
2.55476e-07
8.74617e-05
2.6935e-07
8.74965e-05
2.85721e-07
8.75354e-05
3.04555e-07
8.75794e-05
3.25699e-07
8.76294e-05
3.48862e-07
8.76866e-05
3.73582e-07
8.7752e-05
3.99237e-07
4.24934e-07
8.78268e-05
8.9408e-05
2.16285e-08
8.94153e-05
6.29054e-08
8.94271e-05
9.95518e-08
8.94424e-05
1.3015e-07
8.94602e-05
1.54522e-07
8.94798e-05
1.73051e-07
8.95005e-05
1.86402e-07
8.95219e-05
1.95435e-07
8.95436e-05
2.01019e-07
8.95655e-05
2.03931e-07
8.95875e-05
2.04855e-07
8.96094e-05
2.04369e-07
8.96314e-05
2.02959e-07
8.96535e-05
2.01035e-07
8.96756e-05
1.98946e-07
8.96979e-05
1.96995e-07
8.97204e-05
1.95452e-07
8.97433e-05
1.94562e-07
8.97667e-05
1.9455e-07
8.97907e-05
1.95626e-07
8.98157e-05
1.97986e-07
8.98419e-05
2.0181e-07
8.98696e-05
2.07256e-07
8.98992e-05
2.14452e-07
8.99312e-05
2.23488e-07
8.99661e-05
2.34399e-07
9.00047e-05
2.4715e-07
9.00476e-05
2.61618e-07
9.00957e-05
2.7757e-07
9.015e-05
2.94653e-07
9.02112e-05
3.12371e-07
9.02803e-05
3.30105e-07
3.47038e-07
9.03582e-05
9.19622e-05
1.92667e-08
9.19692e-05
5.58756e-08
9.19805e-05
8.83324e-08
9.19951e-05
1.15557e-07
9.20122e-05
1.37367e-07
9.20312e-05
1.54051e-07
9.20515e-05
1.66145e-07
9.20726e-05
1.74354e-07
9.20942e-05
1.79408e-07
9.21161e-05
1.81986e-07
9.21383e-05
1.82689e-07
9.21606e-05
1.82038e-07
9.21831e-05
1.80474e-07
9.22058e-05
1.78375e-07
9.22286e-05
1.7606e-07
9.22518e-05
1.73809e-07
9.22754e-05
1.71863e-07
9.22995e-05
1.7044e-07
9.23243e-05
1.69735e-07
9.23501e-05
1.6992e-07
9.23769e-05
1.7115e-07
9.24051e-05
1.73554e-07
9.24352e-05
1.77234e-07
9.24674e-05
1.82259e-07
9.25022e-05
1.88649e-07
9.25402e-05
1.9637e-07
9.25821e-05
2.05318e-07
9.26284e-05
2.15305e-07
9.26799e-05
2.26051e-07
9.27374e-05
2.37171e-07
9.28016e-05
2.48166e-07
9.28732e-05
2.58443e-07
2.67282e-07
9.2953e-05
9.45894e-05
1.69775e-08
9.45962e-05
4.91458e-08
9.46069e-05
7.76233e-08
9.46209e-05
1.01571e-07
9.46374e-05
1.2082e-07
9.46559e-05
1.35583e-07
9.46757e-05
1.46293e-07
9.46966e-05
1.53526e-07
9.47181e-05
1.57896e-07
9.47401e-05
1.59985e-07
9.47624e-05
1.60321e-07
9.47851e-05
1.59365e-07
9.48081e-05
1.57514e-07
9.48313e-05
1.55108e-07
9.4855e-05
1.52434e-07
9.4879e-05
1.49743e-07
9.49037e-05
1.47248e-07
9.4929e-05
1.45137e-07
9.49551e-05
1.4357e-07
9.49824e-05
1.42685e-07
9.50109e-05
1.42593e-07
9.50411e-05
1.4338e-07
9.50732e-05
1.45098e-07
9.51077e-05
1.4776e-07
9.5145e-05
1.51334e-07
9.51857e-05
1.5573e-07
9.52302e-05
1.60796e-07
9.52792e-05
1.66303e-07
9.53333e-05
1.71945e-07
9.53931e-05
1.7733e-07
9.54593e-05
1.81981e-07
9.55324e-05
1.8535e-07
1.86817e-07
9.56129e-05
9.72917e-05
1.47662e-08
9.72982e-05
4.26875e-08
9.73085e-05
6.7359e-08
9.73219e-05
8.81147e-08
9.73379e-05
1.04804e-07
9.73559e-05
1.17584e-07
9.73754e-05
1.268e-07
9.7396e-05
1.32924e-07
9.74174e-05
1.36467e-07
9.74395e-05
1.37927e-07
9.74621e-05
1.37758e-07
9.74851e-05
1.36366e-07
9.75085e-05
1.34101e-07
9.75323e-05
1.31261e-07
9.75567e-05
1.28103e-07
9.75816e-05
1.24844e-07
9.76071e-05
1.21668e-07
9.76335e-05
1.1873e-07
9.7661e-05
1.16157e-07
9.76896e-05
1.14052e-07
9.77197e-05
1.12488e-07
9.77516e-05
1.11508e-07
9.77855e-05
1.11122e-07
9.7822e-05
1.11299e-07
9.78614e-05
1.11965e-07
9.79041e-05
1.12991e-07
9.79507e-05
1.14191e-07
9.80017e-05
1.15318e-07
9.80576e-05
1.16057e-07
9.81189e-05
1.16031e-07
9.81861e-05
1.14795e-07
9.82596e-05
1.11861e-07
1.06712e-07
9.83397e-05
0.000100071
1.26309e-08
0.000100077
3.64717e-08
0.000100087
5.74808e-08
0.0001001
7.51175e-08
0.000100116
8.92502e-08
0.000100133
9.99934e-08
0.000100153
1.07622e-07
0.000100173
1.12518e-07
0.000100194
1.15107e-07
0.000100217
1.15808e-07
0.000100239
1.15009e-07
0.000100263
1.13059e-07
0.000100286
1.1026e-07
0.000100311
1.06873e-07
0.000100336
1.03117e-07
0.000100361
9.91773e-08
0.000100388
9.52051e-08
0.000100415
9.13239e-08
0.000100444
8.76292e-08
0.000100474
8.41886e-08
0.000100505
8.1041e-08
0.000100538
7.81945e-08
0.000100574
7.56226e-08
0.000100612
7.32608e-08
0.000100653
7.10023e-08
0.000100697
6.8694e-08
0.000100745
6.61333e-08
0.000100798
6.30664e-08
0.000100854
5.9188e-08
0.000100916
5.41453e-08
0.000100984
4.75413e-08
0.000101057
3.89487e-08
2.79504e-08
0.000101135
0.00010293
1.05661e-08
0.000102936
3.04698e-08
0.000102946
4.79357e-08
0.000102958
6.25157e-08
0.000102973
7.40952e-08
0.000102991
8.27562e-08
0.00010301
8.87148e-08
0.00010303
9.22804e-08
0.000103051
9.38019e-08
0.000103073
9.36273e-08
0.000103096
9.20837e-08
0.00010312
8.94652e-08
0.000103144
8.60283e-08
0.000103169
8.19923e-08
0.000103195
7.75405e-08
0.000103221
7.28237e-08
0.000103248
6.79625e-08
0.000103276
6.30486e-08
0.000103306
5.81465e-08
0.000103337
5.32931e-08
0.000103369
4.84965e-08
0.000103404
4.3735e-08
0.00010344
3.89538e-08
0.00010348
3.40631e-08
0.000103522
2.89359e-08
0.000103567
2.34052e-08
0.000103616
1.72637e-08
0.000103669
1.0264e-08
0.000103726
2.12173e-09
0.000103787
-7.48422e-09
0.000103854
-1.88971e-08
0.000103925
-3.24804e-08
-4.85592e-08
0.000104002
0.000105871
8.56448e-09
0.000105877
2.46543e-08
0.000105886
3.86761e-08
0.000105898
5.02511e-08
0.000105913
5.92795e-08
0.00010593
6.58192e-08
0.000105948
7.00369e-08
0.000105969
7.21816e-08
0.00010599
7.25358e-08
0.000106012
7.13842e-08
0.000106035
6.89958e-08
0.000106059
6.56133e-08
0.000106084
6.14476e-08
0.000106109
5.66775e-08
0.000106135
5.14502e-08
0.000106162
4.58828e-08
0.00010619
4.00646e-08
0.000106219
3.40575e-08
0.000106249
2.78975e-08
0.000106281
2.15936e-08
0.000106314
1.5128e-08
0.000106349
8.4547e-09
0.000106387
1.49843e-09
0.000106427
-5.84844e-09
0.000106469
-1.37235e-08
0.000106515
-2.22977e-08
0.000106564
-3.17736e-08
0.000106617
-4.23831e-08
0.000106673
-5.43843e-08
0.000106734
-6.80555e-08
0.000106799
-8.369e-08
0.000106868
-1.01587e-07
-1.21988e-07
0.000106941
0.000108895
6.61832e-09
0.000108901
1.89997e-08
0.00010891
2.96595e-08
0.000108922
3.8272e-08
0.000108937
4.47499e-08
0.000108953
4.9134e-08
0.000108972
5.15488e-08
0.000108992
5.21945e-08
0.000109013
5.12959e-08
0.000109035
4.90797e-08
0.000109058
4.57614e-08
0.000109083
4.15352e-08
0.000109107
3.65675e-08
0.000109133
3.09974e-08
0.00010916
2.49363e-08
0.000109187
1.84687e-08
0.000109215
1.16537e-08
0.000109245
4.52524e-09
0.000109276
-2.90696e-09
0.000109308
-1.06576e-08
0.000109342
-1.8766e-08
0.000109378
-2.72967e-08
0.000109416
-3.63398e-08
0.000109456
-4.60118e-08
0.000109498
-5.64544e-08
0.000109544
-6.78346e-08
0.000109593
-8.03428e-08
0.000109644
-9.4189e-08
0.0001097
-1.096e-07
0.000109758
-1.26811e-07
0.000109821
-1.46064e-07
0.000109887
-1.67598e-07
-1.91581e-07
0.000109956
0.000112006
4.71978e-09
0.000112012
1.34821e-08
0.000112021
2.08465e-08
0.000112032
2.65287e-08
0.000112047
3.04533e-08
0.000112063
3.26521e-08
0.000112082
3.32095e-08
0.000112101
3.22907e-08
0.000112123
3.00678e-08
0.000112145
2.67158e-08
0.000112168
2.24002e-08
0.000112193
1.72694e-08
0.000112218
1.14462e-08
0.000112244
5.03194e-09
0.000112271
-1.8968e-09
0.000112298
-9.28753e-09
0.000112327
-1.71091e-08
0.000112357
-2.53536e-08
0.000112388
-3.40344e-08
0.000112421
-4.31866e-08
0.000112455
-5.28664e-08
0.000112491
-6.31516e-08
0.000112528
-7.41413e-08
0.000112568
-8.59552e-08
0.000112611
-9.87326e-08
0.000112655
-1.12631e-07
0.000112703
-1.27823e-07
0.000112753
-1.44493e-07
0.000112806
-1.62835e-07
0.000112863
-1.83041e-07
0.000112922
-2.05304e-07
0.000112984
-2.29808e-07
-2.56656e-07
0.000113049
0.000115206
2.86306e-09
0.000115212
8.08347e-09
0.00011522
1.2208e-08
0.000115232
1.49845e-08
0.000115246
1.63497e-08
0.000115262
1.63359e-08
0.000115281
1.49823e-08
0.0001153
1.24439e-08
0.000115322
8.83758e-09
0.000115344
4.29245e-09
0.000115368
-1.07295e-09
0.000115392
-7.14907e-09
0.000115417
-1.38596e-08
0.000115443
-2.11384e-08
0.00011547
-2.89428e-08
0.000115498
-3.72496e-08
0.000115527
-4.60551e-08
0.000115557
-5.53746e-08
0.000115589
-6.52418e-08
0.000115621
-7.57084e-08
0.000115655
-8.68437e-08
0.000115691
-9.87341e-08
0.000115728
-1.11483e-07
0.000115767
-1.25208e-07
0.000115809
-1.40041e-07
0.000115852
-1.56127e-07
0.000115898
-1.73618e-07
0.000115946
-1.9267e-07
0.000115997
-2.13442e-07
0.00011605
-2.36089e-07
0.000116105
-2.60756e-07
0.000116163
-2.87579e-07
-3.16606e-07
0.000116223
0.000118498
1.03865e-09
0.000118503
2.77886e-09
0.000118511
3.70262e-09
0.000118523
3.58322e-09
0.000118537
2.37276e-09
0.000118553
1.44094e-10
0.000118571
-3.17966e-09
0.000118591
-7.37705e-09
0.000118612
-1.24089e-08
0.000118635
-1.81829e-08
0.000118658
-2.46237e-08
0.000118683
-3.16687e-08
0.000118708
-3.92749e-08
0.000118735
-4.74135e-08
0.000118762
-5.60737e-08
0.00011879
-6.52608e-08
0.000118819
-7.49959e-08
0.000118849
-8.53152e-08
0.00011888
-9.62698e-08
0.000118912
-1.07925e-07
0.000118945
-1.20359e-07
0.00011898
-1.33663e-07
0.000119017
-1.47941e-07
0.000119055
-1.63306e-07
0.000119095
-1.79879e-07
0.000119136
-1.97788e-07
0.00011918
-2.17163e-07
0.000119225
-2.38133e-07
0.000119273
-2.60826e-07
0.000119322
-2.85357e-07
0.000119373
-3.11831e-07
0.000119426
-3.40341e-07
-3.70891e-07
0.00011948
0.000121883
-7.43197e-10
0.000121888
-2.4164e-09
0.000121897
-4.6526e-09
0.000121908
-7.6601e-09
0.000121922
-1.14629e-08
0.000121938
-1.60159e-08
0.000121956
-2.12992e-08
0.000121976
-2.72117e-08
0.000121997
-3.37073e-08
0.00012202
-4.07381e-08
0.000122043
-4.8269e-08
0.000122068
-5.6279e-08
0.000122093
-6.47622e-08
0.00012212
-7.37259e-08
0.000122147
-8.319e-08
0.000122175
-9.31869e-08
0.000122204
-1.0376e-07
0.000122233
-1.14966e-07
0.000122264
-1.26869e-07
0.000122295
-1.39546e-07
0.000122328
-1.53081e-07
0.000122362
-1.67567e-07
0.000122397
-1.83106e-07
0.000122434
-1.99802e-07
0.000122472
-2.17765e-07
0.000122511
-2.37105e-07
0.000122552
-2.5793e-07
0.000122594
-2.80343e-07
0.000122637
-3.04439e-07
0.000122682
-3.30303e-07
0.000122729
-3.58003e-07
0.000122776
-3.87596e-07
-4.19049e-07
0.000122824
0.000125365
-2.53239e-09
0.00012537
-7.58654e-09
0.000125379
-1.297e-08
0.00012539
-1.88705e-08
0.000125404
-2.52806e-08
0.00012542
-3.21441e-08
0.000125438
-3.94235e-08
0.000125458
-4.70623e-08
0.000125479
-5.50316e-08
0.000125502
-6.33201e-08
0.000125525
-7.19316e-08
0.00012555
-8.08838e-08
0.000125575
-9.02067e-08
0.000125602
-9.99406e-08
0.000125629
-1.10135e-07
0.000125656
-1.20847e-07
0.000125685
-1.32142e-07
0.000125714
-1.44092e-07
0.000125744
-1.56775e-07
0.000125774
-1.70275e-07
0.000125806
-1.84681e-07
0.000125839
-2.00087e-07
0.000125872
-2.16588e-07
0.000125907
-2.3428e-07
0.000125942
-2.53259e-07
0.000125979
-2.73618e-07
0.000126016
-2.95444e-07
0.000126055
-3.18816e-07
0.000126094
-3.43802e-07
0.000126134
-3.70456e-07
0.000126175
-3.98817e-07
0.000126216
-4.28912e-07
-4.60679e-07
0.000126258
0.000128947
-4.16573e-09
0.000128952
-1.24952e-08
0.00012896
-2.10143e-08
0.000128971
-2.98925e-08
0.000128984
-3.90377e-08
0.000129001
-4.8332e-08
0.000129019
-5.77068e-08
0.000129039
-6.71239e-08
0.000129061
-7.65834e-08
0.000129083
-8.61144e-08
0.000129107
-9.57642e-08
0.000129132
-1.05593e-07
0.000129157
-1.15669e-07
0.000129183
-1.26068e-07
0.00012921
-1.36868e-07
0.000129238
-1.48151e-07
0.000129265
-1.60002e-07
0.000129294
-1.72508e-07
0.000129323
-1.85759e-07
0.000129352
-1.99844e-07
0.000129383
-2.14854e-07
0.000129413
-2.3088e-07
0.000129445
-2.48013e-07
0.000129477
-2.66338e-07
0.000129509
-2.85939e-07
0.000129543
-3.06891e-07
0.000129577
-3.29262e-07
0.000129611
-3.53108e-07
0.000129646
-3.78475e-07
0.00012968
-4.05393e-07
0.000129716
-4.33876e-07
0.000129751
-4.63926e-07
-4.95461e-07
0.000129785
0.000132631
-6.13124e-09
0.000132636
-1.77136e-08
0.000132645
-2.92853e-08
0.000132656
-4.10237e-08
0.000132669
-5.28023e-08
0.000132686
-6.44616e-08
0.000132704
-7.59063e-08
0.000132724
-8.70969e-08
0.000132745
-9.80478e-08
0.000132768
-1.08815e-07
0.000132792
-1.19483e-07
0.000132816
-1.30147e-07
0.000132841
-1.40913e-07
0.000132867
-1.51888e-07
0.000132894
-1.6318e-07
0.00013292
-1.74893e-07
0.000132947
-1.87133e-07
0.000132975
-1.99999e-07
0.000133003
-2.13592e-07
0.000133031
-2.28006e-07
0.000133059
-2.43334e-07
0.000133088
-2.59665e-07
0.000133117
-2.77083e-07
0.000133147
-2.95664e-07
0.000133176
-3.15479e-07
0.000133206
-3.3659e-07
0.000133236
-3.59046e-07
0.000133265
-3.82886e-07
0.000133295
-4.08135e-07
0.000133324
-4.34804e-07
0.000133353
-4.62886e-07
0.000133382
-4.92364e-07
-5.23144e-07
0.00013341
0.000136419
-6.9689e-09
0.000136423
-2.17064e-08
0.000136431
-3.67037e-08
0.000136441
-5.1938e-08
0.000136456
-6.69101e-08
0.000136472
-8.12946e-08
0.000136491
-9.49763e-08
0.000136512
-1.0796e-07
0.000136535
-1.20325e-07
0.000136558
-1.32192e-07
0.000136582
-1.43703e-07
0.000136607
-1.55008e-07
0.000136632
-1.66257e-07
0.000136658
-1.77591e-07
0.000136684
-1.89147e-07
0.00013671
-2.01054e-07
0.000136737
-2.13432e-07
0.000136763
-2.26394e-07
0.000136789
-2.40046e-07
0.000136816
-2.54487e-07
0.000136842
-2.6981e-07
0.000136869
-2.86098e-07
0.000136895
-3.03431e-07
0.000136921
-3.21874e-07
0.000136947
-3.41488e-07
0.000136973
-3.6232e-07
0.000136998
-3.84407e-07
0.000137023
-4.07771e-07
0.000137048
-4.32422e-07
0.000137071
-4.58354e-07
0.000137094
-4.85548e-07
0.000137115
-5.13974e-07
-5.43528e-07
0.000137136
0.000140319
-1.03868e-08
0.000140325
-2.75655e-08
0.000140333
-4.48806e-08
0.000140344
-6.25618e-08
0.000140357
-8.01493e-08
0.000140373
-9.7089e-08
0.000140391
-1.13071e-07
0.000140411
-1.28006e-07
0.000140433
-1.41955e-07
0.000140456
-1.55062e-07
0.000140479
-1.67511e-07
0.000140504
-1.79497e-07
0.000140529
-1.91213e-07
0.000140554
-2.0284e-07
0.000140579
-2.14549e-07
0.000140605
-2.26493e-07
0.00014063
-2.38813e-07
0.000140655
-2.51639e-07
0.000140681
-2.65085e-07
0.000140705
-2.79256e-07
0.00014073
-2.94246e-07
0.000140754
-3.10138e-07
0.000140777
-3.27005e-07
0.0001408
-3.44908e-07
0.000140823
-3.63896e-07
0.000140844
-3.84008e-07
0.000140865
-4.05268e-07
0.000140885
-4.27687e-07
0.000140904
-4.51264e-07
0.000140922
-4.75981e-07
0.000140938
-5.01808e-07
0.000140953
-5.28704e-07
-5.56565e-07
0.000140966
0.000144322
-7.49244e-09
0.000144323
-2.85536e-08
0.000144329
-5.12768e-08
0.000144341
-7.43807e-08
0.000144357
-9.6255e-08
0.000144376
-1.16298e-07
0.000144398
-1.34476e-07
0.000144421
-1.50942e-07
0.000144445
-1.65931e-07
0.000144469
-1.79708e-07
0.000144494
-1.92546e-07
0.000144519
-2.04707e-07
0.000144545
-2.16431e-07
0.00014457
-2.27935e-07
0.000144595
-2.39413e-07
0.000144619
-2.51035e-07
0.000144643
-2.62955e-07
0.000144667
-2.75306e-07
0.00014469
-2.88208e-07
0.000144713
-3.01765e-07
0.000144734
-3.1607e-07
0.000144755
-3.312e-07
0.000144776
-3.47223e-07
0.000144795
-3.64192e-07
0.000144813
-3.8215e-07
0.00014483
-4.01124e-07
0.000144846
-4.21132e-07
0.000144861
-4.42175e-07
0.000144874
-4.64244e-07
0.000144885
-4.87316e-07
0.000144895
-5.11353e-07
0.000144902
-5.36312e-07
-5.62088e-07
0.000144908
0.000148457
-1.6359e-08
0.000148464
-3.53854e-08
0.000148469
-5.69204e-08
0.000148476
-8.1487e-08
0.000148487
-1.06664e-07
0.000148501
-1.30459e-07
0.000148518
-1.51954e-07
0.000148539
-1.71059e-07
0.000148561
-1.88028e-07
0.000148584
-2.03204e-07
0.000148609
-2.16947e-07
0.000148633
-2.2961e-07
0.000148659
-2.41509e-07
0.000148684
-2.52926e-07
0.000148708
-2.64104e-07
0.000148732
-2.75253e-07
0.000148756
-2.86553e-07
0.000148779
-2.98159e-07
0.000148801
-3.10204e-07
0.000148822
-3.228e-07
0.000148842
-3.36043e-07
0.000148861
-3.50013e-07
0.000148878
-3.64774e-07
0.000148894
-3.80377e-07
0.000148909
-3.9686e-07
0.000148922
-4.14245e-07
0.000148934
-4.32543e-07
0.000148943
-4.51752e-07
0.000148951
-4.71857e-07
0.000148956
-4.9283e-07
0.00014896
-5.14631e-07
0.000148961
-5.37216e-07
-5.60484e-07
0.000148959
0.000152671
1.81196e-09
0.000152666
-3.06171e-08
0.000152675
-6.52504e-08
0.000152693
-9.97048e-08
0.000152716
-1.29843e-07
0.000152741
-1.55913e-07
0.000152768
-1.78381e-07
0.000152795
-1.97797e-07
0.000152821
-2.14691e-07
0.000152848
-2.29545e-07
0.000152873
-2.42811e-07
0.000152899
-2.5489e-07
0.000152923
-2.66121e-07
0.000152947
-2.76792e-07
0.00015297
-2.87148e-07
0.000152992
-2.97398e-07
0.000153014
-3.07719e-07
0.000153034
-3.18262e-07
0.000153053
-3.29155e-07
0.00015307
-3.40506e-07
0.000153087
-3.52405e-07
0.000153102
-3.64927e-07
0.000153115
-3.78131e-07
0.000153127
-3.92063e-07
0.000153136
-4.06755e-07
0.000153144
-4.22227e-07
0.00015315
-4.38487e-07
0.000153154
-4.55529e-07
0.000153156
-4.73337e-07
0.000153155
-4.91884e-07
0.000153151
-5.11133e-07
0.000153145
-5.31041e-07
-5.51513e-07
0.000153136
0.000157077
-2.39352e-08
0.000157076
-2.98104e-08
0.000157064
-5.2635e-08
0.000157055
-9.13808e-08
0.000157057
-1.31175e-07
0.000157068
-1.66669e-07
0.000157085
-1.95818e-07
0.000157107
-2.19735e-07
0.000157132
-2.39556e-07
0.000157158
-2.56137e-07
0.000157186
-2.70232e-07
0.000157213
-2.82475e-07
0.000157241
-2.9338e-07
0.000157267
-3.03365e-07
0.000157293
-3.12762e-07
0.000157317
-3.21843e-07
0.00015734
-3.30826e-07
0.000157362
-3.39888e-07
0.000157382
-3.49176e-07
0.0001574
-3.58806e-07
0.000157417
-3.68873e-07
0.000157431
-3.79454e-07
0.000157444
-3.90608e-07
0.000157454
-4.02378e-07
0.000157462
-4.14796e-07
0.000157468
-4.27878e-07
0.000157471
-4.4163e-07
0.000157471
-4.56047e-07
0.000157469
-4.71113e-07
0.000157464
-4.86802e-07
0.000157456
-5.03079e-07
0.000157445
-5.19904e-07
-5.37196e-07
0.000157431
0.00016147
4.48495e-08
0.000161456
-1.61329e-08
0.000161492
-8.89552e-08
0.000161535
-1.34538e-07
0.000161578
-1.73339e-07
0.000161614
-2.03535e-07
0.000161647
-2.28492e-07
0.000161677
-2.49439e-07
0.000161704
-2.66939e-07
0.00016173
-2.81715e-07
0.000161754
-2.94407e-07
0.000161777
-3.05506e-07
0.000161799
-3.15409e-07
0.00016182
-3.24444e-07
0.00016184
-3.32882e-07
0.000161859
-3.40947e-07
0.000161877
-3.48823e-07
0.000161894
-3.56666e-07
0.00016191
-3.64603e-07
0.000161923
-3.72741e-07
0.000161936
-3.81167e-07
0.000161946
-3.89953e-07
0.000161955
-3.99156e-07
0.000161961
-4.08819e-07
0.000161965
-4.18974e-07
0.000161967
-4.29641e-07
0.000161966
-4.40829e-07
0.000161963
-4.52538e-07
0.000161957
-4.64758e-07
0.000161947
-4.77472e-07
0.000161935
-4.90653e-07
0.000161919
-5.04271e-07
-5.18258e-07
0.0001619
0.000166191
7.8743e-09
0.000166127
4.76861e-08
0.000166046
-8.53439e-09
0.00016599
-7.83469e-08
0.000165977
-1.60486e-07
0.00016599
-2.16662e-07
0.000166019
-2.56777e-07
0.000166055
-2.85931e-07
0.000166096
-3.07878e-07
0.000166139
-3.24823e-07
0.000166183
-3.38178e-07
0.000166226
-3.48959e-07
0.000166269
-3.57903e-07
0.00016631
-3.65547e-07
0.000166349
-3.72289e-07
0.000166387
-3.78432e-07
0.000166422
-3.84209e-07
0.000166455
-3.89802e-07
0.000166486
-3.95355e-07
0.000166514
-4.00985e-07
0.00016654
-4.06784e-07
0.000166563
-4.12825e-07
0.000166583
-4.19167e-07
0.0001666
-4.25854e-07