/*--------------------------------*- C++ -*----------------------------------*\
  =========                 |
  \\      /  F ield         | OpenFOAM: The Open Source CFD Toolbox
   \\    /   O peration     | Website:  https://openfoam.org
    \\  /    A nd           | Version:  10
     \\/     M anipulation  |
\*---------------------------------------------------------------------------*/
FoamFile
{
    format      ascii;
    class       volVectorField;
    location    "0.055";
    object      U;
}
// * * * * * * * * * * * * * * * * * * * * * * * * * * * * * * * * * * * * * //

dimensions      [0 1 -1 0 0 0 0];

internalField   nonuniform List<vector> 
6820
(
(7.33663 -0.254708 0)
(7.3711 -0.152736 0)
(7.32897 -0.0594671 0)
(7.25207 -0.0117141 0)
(7.17463 0.00797895 0)
(7.1047 0.0139878 0)
(7.04358 0.0144807 0)
(6.99064 0.0131087 0)
(6.94443 0.0113637 0)
(6.90355 0.00979391 0)
(6.86691 0.00854011 0)
(6.83371 0.00759024 0)
(6.80331 0.0068888 0)
(6.77525 0.00637744 0)
(6.74918 0.00600774 0)
(6.7248 0.00574348 0)
(6.70189 0.00555908 0)
(6.68024 0.00543752 0)
(6.65967 0.00536857 0)
(6.64001 0.00534743 0)
(6.62112 0.00537386 0)
(6.60281 0.00545213 0)
(6.58492 0.00559144 0)
(6.56726 0.00580759 0)
(6.54959 0.00612524 0)
(6.53162 0.00658573 0)
(6.51295 0.00726021 0)
(6.4931 0.00823262 0)
(6.47085 0.0100014 0)
(6.44571 0.0117489 0)
(6.41259 0.0200824 0)
(6.36797 0.0215177 0)
(6.30522 0.0344492 0)
(7.32387 0.12139 0)
(7.30439 0.123285 0)
(7.30894 0.0779918 0)
(7.32915 0.0528174 0)
(7.34719 0.0392211 0)
(7.35521 0.0314202 0)
(7.35418 0.0269737 0)
(7.34701 0.0242351 0)
(7.33599 0.0223475 0)
(7.32269 0.0209201 0)
(7.30816 0.0197581 0)
(7.29308 0.0187625 0)
(7.27783 0.0178843 0)
(7.26266 0.0170988 0)
(7.24771 0.0163933 0)
(7.23305 0.0157611 0)
(7.21872 0.0151994 0)
(7.20473 0.0147077 0)
(7.19108 0.014288 0)
(7.17774 0.0139445 0)
(7.16469 0.0136849 0)
(7.1519 0.0135205 0)
(7.13931 0.0134684 0)
(7.12688 0.0135541 0)
(7.11454 0.0138143 0)
(7.10222 0.0143134 0)
(7.08988 0.0151275 0)
(7.07731 0.0164822 0)
(7.06495 0.018484 0)
(7.0516 0.0221925 0)
(7.04193 0.0276579 0)
(7.03018 0.0391716 0)
(7.04057 0.0597675 0)
(7.32565 -0.0437879 0)
(7.32323 -0.0517183 0)
(7.33514 -0.0261802 0)
(7.34294 -0.00268923 0)
(7.34783 0.010471 0)
(7.35197 0.0169337 0)
(7.35492 0.0200186 0)
(7.35639 0.0213206 0)
(7.35636 0.0216823 0)
(7.35496 0.0215784 0)
(7.35242 0.0212569 0)
(7.34896 0.0208463 0)
(7.34478 0.0204143 0)
(7.34004 0.0199963 0)
(7.33487 0.0196104 0)
(7.32937 0.0192667 0)
(7.3236 0.0189717 0)
(7.31763 0.0187315 0)
(7.31148 0.0185528 0)
(7.30518 0.0184448 0)
(7.29872 0.0184195 0)
(7.2921 0.0184939 0)
(7.28529 0.018691 0)
(7.27825 0.0190431 0)
(7.27094 0.0195963 0)
(7.26327 0.0204144 0)
(7.25515 0.0216038 0)
(7.24643 0.0232721 0)
(7.23712 0.0257815 0)
(7.22674 0.0289893 0)
(7.21618 0.0346931 0)
(7.20398 0.0398605 0)
(7.19348 0.0509142 0)
(7.33338 0.0117952 0)
(7.33033 0.0329392 0)
(7.32951 0.0333798 0)
(7.33248 0.0276878 0)
(7.33786 0.0243171 0)
(7.34334 0.02286 0)
(7.34789 0.0223196 0)
(7.35149 0.0221171 0)
(7.35421 0.0219973 0)
(7.35613 0.0218797 0)
(7.35732 0.0217406 0)
(7.35788 0.0215764 0)
(7.3579 0.0213936 0)
(7.35743 0.0212027 0)
(7.35655 0.0210151 0)
(7.35531 0.0208425 0)
(7.35375 0.0206972 0)
(7.3519 0.0205918 0)
(7.34978 0.0205407 0)
(7.34741 0.0205604 0)
(7.34478 0.0206712 0)
(7.34189 0.0208984 0)
(7.33872 0.0212751 0)
(7.33523 0.0218451 0)
(7.33139 0.022668 0)
(7.32713 0.0238254 0)
(7.32239 0.0254372 0)
(7.31707 0.0276564 0)
(7.31118 0.030765 0)
(7.30451 0.0349611 0)
(7.29754 0.0410801 0)
(7.2899 0.0487325 0)
(7.28314 0.0604623 0)
(7.33122 -0.00351361 0)
(7.33002 -0.00430301 0)
(7.33355 0.00132428 0)
(7.3371 0.00879251 0)
(7.34034 0.0141776 0)
(7.34357 0.017206 0)
(7.34666 0.0188709 0)
(7.34958 0.0198159 0)
(7.35224 0.0203471 0)
(7.3546 0.0206368 0)
(7.35663 0.020783 0)
(7.35832 0.0208416 0)
(7.3597 0.0208491 0)
(7.36079 0.0208311 0)
(7.36159 0.0208071 0)
(7.36212 0.0207934 0)
(7.3624 0.0208051 0)
(7.36244 0.0208577 0)
(7.36224 0.0209682 0)
(7.3618 0.0211564 0)
(7.36112 0.0214463 0)
(7.36018 0.0218679 0)
(7.35897 0.0224596 0)
(7.35746 0.0232712 0)
(7.35562 0.0243692 0)
(7.3534 0.0258407 0)
(7.35077 0.0278095 0)
(7.34767 0.0304227 0)
(7.34414 0.0339341 0)
(7.34011 0.0385114 0)
(7.33586 0.0447348 0)
(7.33139 0.0523783 0)
(7.32739 0.0626418 0)
(7.33264 0.00209531 0)
(7.33222 0.00994024 0)
(7.33389 0.0141599 0)
(7.33635 0.0160595 0)
(7.33929 0.0171961 0)
(7.34242 0.0180012 0)
(7.34541 0.0186435 0)
(7.34818 0.0191444 0)
(7.35075 0.0195046 0)
(7.35312 0.0197553 0)
(7.35529 0.019929 0)
(7.35728 0.0200497 0)
(7.35907 0.0201367 0)
(7.36068 0.0202068 0)
(7.36211 0.0202751 0)
(7.36336 0.0203561 0)
(7.36443 0.020465 0)
(7.36531 0.0206184 0)
(7.36602 0.0208353 0)
(7.36653 0.0211379 0)
(7.36683 0.0215535 0)
(7.36693 0.0221156 0)
(7.36679 0.0228668 0)
(7.3664 0.0238612 0)
(7.36573 0.025169 0)
(7.36476 0.0268799 0)
(7.36348 0.0291147 0)
(7.36188 0.0320167 0)
(7.35999 0.0357984 0)
(7.35784 0.0406364 0)
(7.35566 0.0469088 0)
(7.35359 0.0546261 0)
(7.35204 0.0643887 0)
(7.33258 0.000847879 0)
(7.33241 0.00456779 0)
(7.33423 0.00814947 0)
(7.33679 0.0113804 0)
(7.33953 0.0139956 0)
(7.3423 0.0158021 0)
(7.34495 0.0169913 0)
(7.34745 0.0177789 0)
(7.34982 0.018302 0)
(7.35206 0.0186559 0)
(7.35417 0.0189037 0)
(7.35617 0.0190848 0)
(7.35804 0.0192269 0)
(7.3598 0.0193514 0)
(7.36144 0.0194759 0)
(7.36297 0.0196171 0)
(7.36436 0.0197914 0)
(7.36563 0.0200168 0)
(7.36676 0.0203136 0)
(7.36774 0.020706 0)
(7.36857 0.0212227 0)
(7.36923 0.0218996 0)
(7.36971 0.0227809 0)
(7.37 0.023922 0)
(7.37008 0.0253933 0)
(7.36994 0.0272821 0)
(7.3696 0.0297007 0)
(7.36906 0.0327799 0)
(7.36838 0.0366944 0)
(7.36765 0.0416016 0)
(7.36705 0.0477542 0)
(7.36677 0.0552266 0)
(7.36711 0.0643048 0)
(7.33284 0.00135175 0)
(7.333 0.00540959 0)
(7.33453 0.00899836 0)
(7.33672 0.0117205 0)
(7.33916 0.0137309 0)
(7.34172 0.0151323 0)
(7.34424 0.0161118 0)
(7.34664 0.0168119 0)
(7.34892 0.0173109 0)
(7.3511 0.0176686 0)
(7.35316 0.0179318 0)
(7.35513 0.0181339 0)
(7.35701 0.0183007 0)
(7.3588 0.0184528 0)
(7.36051 0.0186086 0)
(7.36213 0.0187849 0)
(7.36367 0.0189993 0)
(7.36511 0.0192705 0)
(7.36645 0.01962 0)
(7.36768 0.0200729 0)
(7.3688 0.0206591 0)
(7.3698 0.0214153 0)
(7.37067 0.022386 0)
(7.3714 0.023626 0)
(7.372 0.025203 0)
(7.37246 0.0271989 0)
(7.37282 0.0297144 0)
(7.3731 0.0328643 0)
(7.37338 0.036789 0)
(7.37376 0.0416202 0)
(7.37441 0.0475282 0)
(7.37555 0.0545947 0)
(7.37739 0.062952 0)
(7.33291 0.00135377 0)
(7.33319 0.00473932 0)
(7.33457 0.00781773 0)
(7.33656 0.0103231 0)
(7.33883 0.0123235 0)
(7.34121 0.0138187 0)
(7.34358 0.0148989 0)
(7.34587 0.0156754 0)
(7.34807 0.0162301 0)
(7.35018 0.0166287 0)
(7.3522 0.0169228 0)
(7.35414 0.0171497 0)
(7.35601 0.0173375 0)
(7.35781 0.0175094 0)
(7.35954 0.017685 0)
(7.36121 0.0178829 0)
(7.36281 0.0181216 0)
(7.36434 0.0184211 0)
(7.3658 0.0188035 0)
(7.36718 0.0192948 0)
(7.36849 0.0199251 0)
(7.36971 0.0207308 0)
(7.37086 0.0217555 0)
(7.37192 0.0230514 0)
(7.37291 0.0246813 0)
(7.37385 0.0267192 0)
(7.37477 0.0292524 0)
(7.37572 0.0323776 0)
(7.37679 0.0362044 0)
(7.37808 0.0408357 0)
(7.37975 0.046384 0)
(7.38201 0.0529121 0)
(7.38504 0.060468 0)
(7.33297 0.00133261 0)
(7.33333 0.00439019 0)
(7.33458 0.00722874 0)
(7.33637 0.009571 0)
(7.33844 0.0114375 0)
(7.34064 0.0128476 0)
(7.34288 0.0138833 0)
(7.34507 0.0146429 0)
(7.3472 0.015199 0)
(7.34926 0.0156078 0)
(7.35125 0.0159147 0)
(7.35317 0.0161544 0)
(7.35503 0.0163543 0)
(7.35683 0.0165376 0)
(7.35858 0.0167244 0)
(7.36027 0.0169341 0)
(7.36192 0.0171858 0)
(7.36352 0.0175001 0)
(7.36506 0.0178994 0)
(7.36656 0.0184097 0)
(7.36801 0.0190608 0)
(7.36941 0.0198877 0)
(7.37077 0.0209318 0)
(7.37211 0.0222414 0)
(7.37343 0.0238729 0)
(7.37477 0.0258909 0)
(7.37617 0.0283683 0)
(7.37768 0.0313833 0)
(7.37941 0.0350184 0)
(7.38145 0.0393487 0)
(7.38396 0.0444439 0)
(7.38712 0.0503414 0)
(7.3911 0.05704 0)
(7.333 0.00127311 0)
(7.3334 0.0040136 0)
(7.33452 0.00656343 0)
(7.33615 0.00870363 0)
(7.33804 0.0104409 0)
(7.3401 0.0117923 0)
(7.3422 0.0128126 0)
(7.3443 0.0135759 0)
(7.34635 0.0141431 0)
(7.34836 0.0145649 0)
(7.35031 0.0148837 0)
(7.35221 0.0151333 0)
(7.35406 0.0153413 0)
(7.35587 0.0155309 0)
(7.35763 0.0157228 0)
(7.35936 0.0159367 0)
(7.36104 0.0161921 0)
(7.3627 0.0165096 0)
(7.36432 0.0169117 0)
(7.36592 0.0174236 0)
(7.36749 0.018074 0)
(7.36905 0.018896 0)
(7.37061 0.0199273 0)
(7.37219 0.0212113 0)
(7.3738 0.0227972 0)
(7.37549 0.0247391 0)
(7.37731 0.0270957 0)
(7.37932 0.0299272 0)
(7.3816 0.0332924 0)
(7.38427 0.0372412 0)
(7.38747 0.0418112 0)
(7.39135 0.0470151 0)
(7.39605 0.0528221 0)
(7.33302 0.00119164 0)
(7.33342 0.00366104 0)
(7.33445 0.00596492 0)
(7.33593 0.00793022 0)
(7.33767 0.00954554 0)
(7.33957 0.0108228 0)
(7.34156 0.0118028 0)
(7.34355 0.0125452 0)
(7.34554 0.0131037 0)
(7.34749 0.0135234 0)
(7.34941 0.0138428 0)
(7.35129 0.0140935 0)
(7.35313 0.0143019 0)
(7.35494 0.0144907 0)
(7.35672 0.0146804 0)
(7.35847 0.0148904 0)
(7.36019 0.01514 0)
(7.3619 0.0154496 0)
(7.3636 0.0158407 0)
(7.36529 0.0163375 0)
(7.36699 0.0169667 0)
(7.36869 0.0177585 0)
(7.37044 0.0187466 0)
(7.37223 0.0199685 0)
(7.37411 0.0214654 0)
(7.37612 0.0232809 0)
(7.3783 0.0254601 0)
(7.38073 0.0280464 0)
(7.38349 0.0310785 0)
(7.38669 0.0345846 0)
(7.39043 0.038578 0)
(7.39487 0.0430508 0)
(7.40011 0.0479544 0)
(7.33303 0.00109959 0)
(7.33342 0.00332452 0)
(7.33436 0.00539926 0)
(7.33571 0.00719025 0)
(7.33732 0.00867851 0)
(7.33909 0.009873 0)
(7.34096 0.0108042 0)
(7.34286 0.0115189 0)
(7.34477 0.012062 0)
(7.34667 0.0124731 0)
(7.34855 0.0127866 0)
(7.35041 0.013032 0)
(7.35224 0.0132343 0)
(7.35405 0.0134155 0)
(7.35584 0.0135955 0)
(7.35761 0.0137932 0)
(7.35938 0.0140275 0)
(7.36114 0.0143176 0)
(7.36291 0.0146841 0)
(7.36469 0.0151491 0)
(7.3665 0.0157371 0)
(7.36835 0.0164747 0)
(7.37026 0.0173908 0)
(7.37226 0.018517 0)
(7.37438 0.019886 0)
(7.37666 0.0215314 0)
(7.37917 0.0234854 0)
(7.38196 0.0257767 0)
(7.38512 0.0284269 0)
(7.38873 0.0314467 0)
(7.3929 0.0348309 0)
(7.39776 0.0385562 0)
(7.40339 0.0425639 0)
(7.33303 0.0010033 0)
(7.33341 0.00300392 0)
(7.33428 0.00486767 0)
(7.33551 0.0064923 0)
(7.33699 0.00785549 0)
(7.33865 0.00896239 0)
(7.34041 0.00983562 0)
(7.34223 0.0105119 0)
(7.34407 0.0110289 0)
(7.34591 0.0114213 0)
(7.34775 0.01172 0)
(7.34958 0.0119519 0)
(7.3514 0.0121404 0)
(7.35321 0.0123062 0)
(7.35501 0.0124684 0)
(7.35681 0.0126449 0)
(7.35861 0.0128537 0)
(7.36042 0.0131126 0)
(7.36226 0.0134405 0)
(7.36412 0.0138575 0)
(7.36604 0.0143849 0)
(7.36801 0.0150454 0)
(7.37008 0.0158632 0)
(7.37226 0.0168632 0)
(7.37459 0.0180703 0)
(7.37712 0.0195083 0)
(7.3799 0.0211983 0)
(7.38299 0.023156 0)
(7.38646 0.0253892 0)
(7.3904 0.0278947 0)
(7.39489 0.030654 0)
(7.40005 0.0336328 0)
(7.40591 0.036768 0)
(7.33303 0.000906564 0)
(7.33339 0.00269822 0)
(7.33419 0.00436525 0)
(7.33533 0.00582898 0)
(7.3367 0.0070668 0)
(7.33825 0.00808087 0)
(7.33991 0.00888811 0)
(7.34165 0.0095173 0)
(7.34342 0.00999988 0)
(7.34521 0.0103656 0)
(7.34701 0.0106417 0)
(7.34881 0.0108527 0)
(7.35062 0.0110199 0)
(7.35242 0.0111627 0)
(7.35423 0.0112989 0)
(7.35605 0.0114453 0)
(7.35789 0.0116183 0)
(7.35974 0.0118343 0)
(7.36164 0.0121102 0)
(7.36358 0.0124633 0)
(7.36559 0.0129118 0)
(7.36768 0.0134743 0)
(7.36988 0.0141698 0)
(7.37222 0.0150169 0)
(7.37473 0.0160332 0)
(7.37747 0.0172337 0)
(7.38047 0.0186296 0)
(7.38379 0.0202259 0)
(7.38751 0.0220195 0)
(7.39168 0.0239964 0)
(7.39639 0.0261294 0)
(7.40172 0.028377 0)
(7.40771 0.0306757 0)
(7.33303 0.000811457 0)
(7.33337 0.00240642 0)
(7.33411 0.00388862 0)
(7.33516 0.00519691 0)
(7.33644 0.00630999 0)
(7.33789 0.00722769 0)
(7.33947 0.0079625 0)
(7.34112 0.00853691 0)
(7.34283 0.00897683 0)
(7.34457 0.00930771 0)
(7.34633 0.00955341 0)
(7.3481 0.00973566 0)
(7.34989 0.00987396 0)
(7.35169 0.00998596 0)
(7.35351 0.0100879 0)
(7.35534 0.0101951 0)
(7.3572 0.0103223 0)
(7.3591 0.010484 0)
(7.36105 0.0106948 0)
(7.36306 0.0109693 0)
(7.36515 0.0113221 0)
(7.36734 0.0117677 0)
(7.36966 0.0123201 0)
(7.37213 0.0129921 0)
(7.37479 0.0137942 0)
(7.37768 0.0147341 0)
(7.38085 0.0158143 0)
(7.38435 0.0170315 0)
(7.38823 0.0183741 0)
(7.39256 0.0198207 0)
(7.3974 0.021338 0)
(7.4028 0.0228812 0)
(7.40881 0.0243888 0)
(7.33303 0.00071901 0)
(7.33335 0.00212741 0)
(7.33403 0.00343459 0)
(7.33501 0.0045922 0)
(7.3362 0.00558105 0)
(7.33757 0.00639928 0)
(7.33907 0.00705596 0)
(7.34065 0.0075686 0)
(7.3423 0.00795843 0)
(7.34399 0.00824694 0)
(7.34571 0.00845477 0)
(7.34745 0.008601 0)
(7.34922 0.00870299 0)
(7.35101 0.00877652 0)
(7.35283 0.00883614 0)
(7.35468 0.0088954 0)
(7.35656 0.00896719 0)
(7.35849 0.00906393 0)
(7.36048 0.00919767 0)
(7.36255 0.00938009 0)
(7.36471 0.00962239 0)
(7.36698 0.00993501 0)
(7.36938 0.0103271 0)
(7.37196 0.0108061 0)
(7.37473 0.0113766 0)
(7.37774 0.0120395 0)
(7.38103 0.0127909 0)
(7.38464 0.0136207 0)
(7.38863 0.0145111 0)
(7.39303 0.0154358 0)
(7.3979 0.0163584 0)
(7.40329 0.017233 0)
(7.40921 0.018002 0)
(7.33303 0.00062962 0)
(7.33333 0.00186003 0)
(7.33396 0.00300028 0)
(7.33487 0.00401148 0)
(7.33599 0.00487671 0)
(7.33729 0.005593 0)
(7.33871 0.00616673 0)
(7.34022 0.00661149 0)
(7.34181 0.00694445 0)
(7.34345 0.00718359 0)
(7.34514 0.00734648 0)
(7.34686 0.00744962 0)
(7.3486 0.00750816 0)
(7.35038 0.0075359 0)
(7.3522 0.00754549 0)
(7.35405 0.00754859 0)
(7.35595 0.00755607 0)
(7.35791 0.00757809 0)
(7.35993 0.00762411 0)
(7.36204 0.0077029 0)
(7.36425 0.00782225 0)
(7.36658 0.00798873 0)
(7.36905 0.0082072 0)
(7.3717 0.00848019 0)
(7.37455 0.00880722 0)
(7.37763 0.00918389 0)
(7.38099 0.00960096 0)
(7.38465 0.0100434 0)
(7.38867 0.0104893 0)
(7.39308 0.0109097 0)
(7.3979 0.0112668 0)
(7.4032 0.0115156 0)
(7.40897 0.0116035 0)
(7.33303 0.000543324 0)
(7.33331 0.00160309 0)
(7.3339 0.00258314 0)
(7.33475 0.00345162 0)
(7.33581 0.00419379 0)
(7.33703 0.00480605 0)
(7.33839 0.00529266 0)
(7.33984 0.00566405 0)
(7.34138 0.00593397 0)
(7.34297 0.00611723 0)
(7.34462 0.00622857 0)
(7.34631 0.00628196 0)
(7.34803 0.00629031 0)
(7.3498 0.00626538 0)
(7.35161 0.0062178 0)
(7.35346 0.00615725 0)
(7.35537 0.00609244 0)
(7.35734 0.00603122 0)
(7.35939 0.00598049 0)
(7.36152 0.00594613 0)
(7.36376 0.00593273 0)
(7.36613 0.0059433 0)
(7.36864 0.00597882 0)
(7.37133 0.00603772 0)
(7.37422 0.00611526 0)
(7.37733 0.00620283 0)
(7.38071 0.00628726 0)
(7.38437 0.00635015 0)
(7.38836 0.00636722 0)
(7.3927 0.00630801 0)
(7.39742 0.00613547 0)
(7.40256 0.00580659 0)
(7.4081 0.00527452 0)
(7.33302 0.000459956 0)
(7.33329 0.00135541 0)
(7.33385 0.00218086 0)
(7.33465 0.0029098 0)
(7.33564 0.00352948 0)
(7.33681 0.00403597 0)
(7.3381 0.00443192 0)
(7.3395 0.0047252 0)
(7.34098 0.00492666 0)
(7.34253 0.00504828 0)
(7.34414 0.00510214 0)
(7.3458 0.00509981 0)
(7.3475 0.00505195 0)
(7.34925 0.00496821 0)
(7.35105 0.0048572 0)
(7.3529 0.0047265 0)
(7.3548 0.00458269 0)
(7.35678 0.00443128 0)
(7.35883 0.00427668 0)
(7.36098 0.00412204 0)
(7.36323 0.00396898 0)
(7.36562 0.00381735 0)
(7.36814 0.0036648 0)
(7.37084 0.00350631 0)
(7.37373 0.00333379 0)
(7.37683 0.00313547 0)
(7.38018 0.00289544 0)
(7.38379 0.00259323 0)
(7.3877 0.00220344 0)
(7.39192 0.00169576 0)
(7.39647 0.00103462 0)
(7.40138 0.000180015 0)
(7.40664 -0.000909043 0)
(7.33302 0.000379248 0)
(7.33327 0.00111583 0)
(7.3338 0.00179133 0)
(7.33455 0.00238339 0)
(7.3355 0.00288098 0)
(7.3366 0.00328009 0)
(7.33784 0.00358211 0)
(7.33919 0.00379289 0)
(7.34063 0.00392082 0)
(7.34214 0.00397536 0)
(7.34371 0.00396617 0)
(7.34533 0.00390252 0)
(7.34701 0.0037929 0)
(7.34874 0.00364486 0)
(7.35052 0.00346496 0)
(7.35235 0.0032587 0)
(7.35425 0.0030305 0)
(7.35622 0.00278365 0)
(7.35827 0.00252017 0)
(7.36041 0.00224068 0)
(7.36266 0.00194416 0)
(7.36503 0.00162769 0)
(7.36754 0.00128612 0)
(7.37022 0.000911755 0)
(7.37307 0.000493906 0)
(7.37612 1.85947e-05 0)
(7.3794 -0.000531787 0)
(7.38291 -0.00117869 0)
(7.38669 -0.00194761 0)
(7.39074 -0.00286779 0)
(7.39508 -0.00397247 0)
(7.39971 -0.00529813 0)
(7.40464 -0.00687998 0)
(7.33302 0.000300897 0)
(7.33326 0.000883296 0)
(7.33375 0.00141276 0)
(7.33447 0.00187025 0)
(7.33537 0.00224629 0)
(7.33643 0.00253701 0)
(7.33762 0.00274279 0)
(7.33891 0.00286786 0)
(7.34031 0.0029185 0)
(7.34178 0.00290192 0)
(7.34331 0.00282551 0)
(7.3449 0.00269634 0)
(7.34655 0.00252077 0)
(7.34825 0.00230431 0)
(7.35001 0.00205149 0)
(7.35183 0.00176578 0)
(7.3537 0.00144955 0)
(7.35565 0.00110397 0)
(7.35768 0.000728854 0)
(7.3598 0.000322559 0)
(7.36202 -0.00011823 0)
(7.36436 -0.000598737 0)
(7.36684 -0.00112634 0)
(7.36946 -0.00171082 0)
(7.37224 -0.00236466 0)
(7.37521 -0.00310323 0)
(7.37838 -0.00394497 0)
(7.38175 -0.00491145 0)
(7.38535 -0.00602741 0)
(7.38918 -0.00732048 0)
(7.39326 -0.00882101 0)
(7.39758 -0.0105617 0)
(7.40214 -0.0125722 0)
(7.33302 0.000224588 0)
(7.33324 0.000656737 0)
(7.33372 0.00104322 0)
(7.3344 0.0013676 0)
(7.33526 0.00162172 0)
(7.33627 0.00180203 0)
(7.33741 0.00190812 0)
(7.33867 0.00194325 0)
(7.34002 0.00191191 0)
(7.34145 0.00181931 0)
(7.34295 0.00167089 0)
(7.34451 0.00147175 0)
(7.34612 0.00122619 0)
(7.34779 0.00093769 0)
(7.34952 0.000608847 0)
(7.35131 0.000241185 0)
(7.35316 -0.000164925 0)
(7.35507 -0.00061031 0)
(7.35707 -0.00109714 0)
(7.35915 -0.00162905 0)
(7.36133 -0.00221132 0)
(7.36361 -0.00285104 0)
(7.36602 -0.00355731 0)
(7.36856 -0.00434143 0)
(7.37125 -0.00521699 0)
(7.3741 -0.00620007 0)
(7.37711 -0.00730925 0)
(7.38031 -0.00856558 0)
(7.3837 -0.00999246 0)
(7.38728 -0.0116154 0)
(7.39106 -0.0134615 0)
(7.39503 -0.0155598 0)
(7.3992 -0.0179348 0)
(7.33302 0.000150055 0)
(7.33323 0.000435492 0)
(7.33368 0.000682084 0)
(7.33433 0.000875714 0)
(7.33515 0.0010096 0)
(7.33612 0.00108097 0)
(7.33723 0.00108758 0)
(7.33844 0.00103247 0)
(7.33975 0.000918458 0)
(7.34115 0.00074893 0)
(7.34261 0.000527328 0)
(7.34413 0.000256636 0)
(7.34572 -6.05549e-05 0)
(7.34735 -0.000422592 0)
(7.34905 -0.000828745 0)
(7.3508 -0.00127929 0)
(7.35261 -0.00177562 0)
(7.35448 -0.00232034 0)
(7.35643 -0.00291731 0)
(7.35845 -0.00357184 0)
(7.36057 -0.00429077 0)
(7.36278 -0.00508263 0)
(7.3651 -0.00595774 0)
(7.36753 -0.0069283 0)
(7.37009 -0.00800852 0)
(7.37279 -0.00921459 0)
(7.37563 -0.0105647 0)
(7.37862 -0.0120788 0)
(7.38176 -0.0137786 0)
(7.38506 -0.0156872 0)
(7.38851 -0.0178287 0)
(7.39212 -0.0202281 0)
(7.39586 -0.0229052 0)
(7.33302 7.69549e-05 0)
(7.33322 0.000217954 0)
(7.33365 0.000325151 0)
(7.33427 0.000385926 0)
(7.33506 0.000394692 0)
(7.336 0.000348588 0)
(7.33707 0.00024969 0)
(7.33825 9.73806e-05 0)
(7.33952 -0.000106242 0)
(7.34088 -0.000358839 0)
(7.3423 -0.00065858 0)
(7.34379 -0.00100428 0)
(7.34534 -0.00139521 0)
(7.34694 -0.00183157 0)
(7.34859 -0.00231449 0)
(7.35029 -0.00284605 0)
(7.35205 -0.00342937 0)
(7.35387 -0.00406866 0)
(7.35576 -0.00476936 0)
(7.35771 -0.00553823 0)
(7.35975 -0.00638337 0)
(7.36186 -0.00731438 0)
(7.36407 -0.00834241 0)
(7.36637 -0.00948017 0)
(7.36878 -0.010742 0)
(7.3713 -0.0121437 0)
(7.37394 -0.0137028 0)
(7.37669 -0.0154377 0)
(7.37956 -0.0173684 0)
(7.38255 -0.0195152 0)
(7.38566 -0.0218991 0)
(7.38887 -0.0245416 0)
(7.39218 -0.0274584 0)
(7.33302 5.44186e-06 0)
(7.33321 6.52077e-06 0)
(7.33362 -1.91408e-05 0)
(7.33422 -8.24078e-05 0)
(7.33497 -0.000188045 0)
(7.33588 -0.000339074 0)
(7.33691 -0.000534231 0)
(7.33806 -0.000775404 0)
(7.3393 -0.00106186 0)
(7.34062 -0.00139276 0)
(7.34201 -0.0017677 0)
(7.34347 -0.00218675 0)
(7.34497 -0.00265086 0)
(7.34653 -0.00316164 0)
(7.34814 -0.00372162 0)
(7.3498 -0.0043342 0)
(7.3515 -0.00500381 0)
(7.35326 -0.00573593 0)
(7.35507 -0.00653714 0)
(7.35694 -0.00741519 0)
(7.35887 -0.00837907 0)
(7.36088 -0.00943903 0)
(7.36295 -0.0106066 0)
(7.36511 -0.0118946 0)
(7.36734 -0.0133171 0)
(7.36966 -0.0148894 0)
(7.37207 -0.0166275 0)
(7.37457 -0.0185487 0)
(7.37715 -0.0206705 0)
(7.37981 -0.0230111 0)
(7.38256 -0.0255883 0)
(7.38537 -0.0284203 0)
(7.38824 -0.031519 0)
(7.33302 -6.5886e-05 0)
(7.3332 -0.000209259 0)
(7.3336 -0.00038088 0)
(7.33418 -0.000589854 0)
(7.33491 -0.000836773 0)
(7.33579 -0.00111947 0)
(7.3368 -0.00143795 0)
(7.33791 -0.00178982 0)
(7.33912 -0.00217494 0)
(7.34041 -0.00259408 0)
(7.34176 -0.00304879 0)
(7.34317 -0.00354134 0)
(7.34464 -0.00407476 0)
(7.34615 -0.00465276 0)
(7.3477 -0.00527977 0)
(7.3493 -0.005961 0)
(7.35094 -0.00670244 0)
(7.35262 -0.00751096 0)
(7.35435 -0.00839431 0)
(7.35612 -0.0093612 0)
(7.35794 -0.0104213 0)
(7.35982 -0.0115854 0)
(7.36175 -0.012865 0)
(7.36373 -0.0142729 0)
(7.36578 -0.0158225 0)
(7.36788 -0.0175283 0)
(7.37005 -0.019405 0)
(7.37227 -0.0214681 0)
(7.37455 -0.0237331 0)
(7.37688 -0.0262156 0)
(7.37925 -0.0289307 0)
(7.38165 -0.0318935 0)
(7.38408 -0.0351128 0)
(7.33301 -0.000132172 0)
(7.33318 -0.000396145 0)
(7.33355 -0.000673032 0)
(7.3341 -0.000974963 0)
(7.33481 -0.001307 0)
(7.33566 -0.0016713 0)
(7.33665 -0.00206897 0)
(7.33774 -0.00249956 0)
(7.33893 -0.00296315 0)
(7.34019 -0.00346041 0)
(7.34152 -0.00399282 0)
(7.3429 -0.00456273 0)
(7.34433 -0.00517341 0)
(7.3458 -0.00582902 0)
(7.3473 -0.00653453 0)
(7.34884 -0.00729577 0)
(7.35041 -0.00811937 0)
(7.35201 -0.00901282 0)
(7.35364 -0.00998443 0)
(7.3553 -0.0110433 0)
(7.357 -0.0121995 0)
(7.35873 -0.0134637 0)
(7.3605 -0.0148475 0)
(7.36231 -0.0163632 0)
(7.36415 -0.0180234 0)
(7.36602 -0.0198414 0)
(7.36793 -0.021831 0)
(7.36987 -0.0240057 0)
(7.37183 -0.0263791 0)
(7.37381 -0.0289646 0)
(7.3758 -0.0317749 0)
(7.3778 -0.0348222 0)
(7.37979 -0.0381128 0)
(7.33302 -0.000211 0)
(7.33321 -0.000658112 0)
(7.33358 -0.00114412 0)
(7.33412 -0.00166475 0)
(7.33481 -0.00220505 0)
(7.33564 -0.00275385 0)
(7.33659 -0.00330681 0)
(7.33765 -0.003864 0)
(7.3388 -0.00442849 0)
(7.34002 -0.00500526 0)
(7.34131 -0.00560036 0)
(7.34265 -0.00622049 0)
(7.34403 -0.00687272 0)
(7.34544 -0.00756442 0)
(7.34688 -0.00830323 0)
(7.34835 -0.00909709 0)
(7.34984 -0.00995429 0)
(7.35135 -0.0108835 0)
(7.35288 -0.011894 0)
(7.35443 -0.0129954 0)
(7.35599 -0.0141979 0)
(7.35757 -0.0155122 0)
(7.35917 -0.0169494 0)
(7.36079 -0.0185211 0)
(7.36242 -0.0202392 0)
(7.36406 -0.0221156 0)
(7.3657 -0.0241624 0)
(7.36735 -0.0263916 0)
(7.36899 -0.0288147 0)
(7.37063 -0.0314429 0)
(7.37225 -0.0342864 0)
(7.37384 -0.0373552 0)
(7.37539 -0.0406531 0)
(7.333 -0.000238974 0)
(7.33311 -0.000681848 0)
(7.33341 -0.00112385 0)
(7.3339 -0.00160167 0)
(7.33458 -0.00212632 0)
(7.33542 -0.00269482 0)
(7.33639 -0.00329985 0)
(7.33747 -0.00393423 0)
(7.33863 -0.0045933 0)
(7.33986 -0.0052753 0)
(7.34114 -0.00598101 0)
(7.34246 -0.00671324 0)
(7.34382 -0.00747646 0)
(7.34519 -0.00827639 0)
(7.34658 -0.00911979 0)
(7.34798 -0.0100142 0)
(7.34939 -0.0109679 0)
(7.35081 -0.0119897 0)
(7.35223 -0.0130889 0)
(7.35365 -0.0142754 0)
(7.35508 -0.0155594 0)
(7.3565 -0.0169516 0)
(7.35792 -0.0184627 0)
(7.35933 -0.0201038 0)
(7.36074 -0.0218861 0)
(7.36213 -0.0238207 0)
(7.3635 -0.0259183 0)
(7.36485 -0.0281896 0)
(7.36618 -0.0306447 0)
(7.36746 -0.0332929 0)
(7.36871 -0.0361427 0)
(7.3699 -0.0392021 0)
(7.37103 -0.0424735 0)
(7.33305 -0.000415894 0)
(7.3333 -0.00132236 0)
(7.33367 -0.00229027 0)
(7.33415 -0.00325524 0)
(7.33478 -0.00416779 0)
(7.33553 -0.00501297 0)
(7.33642 -0.00579608 0)
(7.33742 -0.00652963 0)
(7.33852 -0.00722851 0)
(7.33968 -0.00790799 0)
(7.34091 -0.00858272 0)
(7.34217 -0.00926624 0)
(7.34347 -0.00997098 0)
(7.34478 -0.0107084 0)
(7.34611 -0.0114891 0)
(7.34744 -0.0123232 0)
(7.34877 -0.0132206 0)
(7.35009 -0.0141908 0)
(7.3514 -0.0152434 0)
(7.35271 -0.016388 0)
(7.35399 -0.0176342 0)
(7.35526 -0.0189918 0)
(7.35651 -0.0204706 0)
(7.35773 -0.0220803 0)
(7.35891 -0.0238306 0)
(7.36007 -0.0257309 0)
(7.36118 -0.0277904 0)
(7.36225 -0.0300178 0)
(7.36326 -0.0324212 0)
(7.36422 -0.035008 0)
(7.36511 -0.0377848 0)
(7.36592 -0.0407576 0)
(7.36665 -0.0439268 0)
(7.33293 -0.000160018 0)
(7.33283 -0.00039972 0)
(7.33299 -0.000708367 0)
(7.33346 -0.00121407 0)
(7.33418 -0.0019047 0)
(7.33509 -0.0027208 0)
(7.33614 -0.00360991 0)
(7.33727 -0.00453633 0)
(7.33847 -0.00547858 0)
(7.33971 -0.00642542 0)
(7.34097 -0.00737308 0)
(7.34225 -0.00832303 0)
(7.34353 -0.00928029 0)
(7.34481 -0.0102521 0)
(7.34608 -0.0112472 0)
(7.34734 -0.0122751 0)
(7.34858 -0.0133459 0)
(7.34979 -0.0144699 0)
(7.35098 -0.0156577 0)
(7.35214 -0.0169198 0)
(7.35327 -0.0182666 0)
(7.35436 -0.0197086 0)
(7.35541 -0.021256 0)
(7.35642 -0.0229187 0)
(7.35737 -0.0247065 0)
(7.35827 -0.0266285 0)
(7.35911 -0.0286934 0)
(7.35988 -0.0309094 0)
(7.36058 -0.0332838 0)
(7.3612 -0.0358231 0)
(7.36174 -0.0385331 0)
(7.36217 -0.0414187 0)
(7.36251 -0.04448 0)
(7.33316 -0.000867499 0)
(7.33362 -0.00289168 0)
(7.33393 -0.00487939 0)
(7.3342 -0.0065747 0)
(7.33461 -0.00793621 0)
(7.33522 -0.00902791 0)
(7.33601 -0.00992086 0)
(7.33694 -0.0106741 0)
(7.33799 -0.0113361 0)
(7.33913 -0.0119455 0)
(7.34032 -0.0125325 0)
(7.34154 -0.0131208 0)
(7.34278 -0.0137289 0)
(7.34402 -0.0143715 0)
(7.34524 -0.0150609 0)
(7.34645 -0.0158077 0)
(7.34764 -0.0166211 0)
(7.34879 -0.0175098 0)
(7.3499 -0.018482 0)
(7.35096 -0.0195456 0)
(7.35197 -0.0207082 0)
(7.35293 -0.0219774 0)
(7.35383 -0.0233608 0)
(7.35467 -0.0248654 0)
(7.35543 -0.0264984 0)
(7.35612 -0.0282664 0)
(7.35673 -0.0301756 0)
(7.35725 -0.0322318 0)
(7.35768 -0.0344401 0)
(7.358 -0.036805 0)
(7.35822 -0.0393302 0)
(7.35833 -0.0420188 0)
(7.35832 -0.0448695 0)
(7.33266 0.000527132 0)
(7.33188 0.00176605 0)
(7.33191 0.00238082 0)
(7.33263 0.00203428 0)
(7.33368 0.0010326 0)
(7.33487 -0.000302515 0)
(7.33613 -0.00177615 0)
(7.33741 -0.00328536 0)
(7.3387 -0.00477366 0)
(7.33997 -0.00621194 0)
(7.34123 -0.00759025 0)
(7.34246 -0.00891061 0)
(7.34366 -0.0101816 0)
(7.34482 -0.0114151 0)
(7.34595 -0.0126251 0)
(7.34704 -0.0138256 0)
(7.34808 -0.015031 0)
(7.34907 -0.016255 0)
(7.35001 -0.0175107 0)
(7.35089 -0.0188108 0)
(7.35171 -0.0201669 0)
(7.35246 -0.0215904 0)
(7.35314 -0.0230914 0)
(7.35375 -0.0246799 0)
(7.35427 -0.0263647 0)
(7.3547 -0.0281541 0)
(7.35503 -0.0300557 0)
(7.35527 -0.032076 0)
(7.3554 -0.0342209 0)
(7.35541 -0.0364953 0)
(7.35531 -0.0389034 0)
(7.35508 -0.0414485 0)
(7.35472 -0.0441299 0)
(7.33353 -0.00202345 0)
(7.33442 -0.0068524 0)
(7.33402 -0.0113621 0)
(7.3333 -0.0141987 0)
(7.33308 -0.0158547 0)
(7.3334 -0.0168343 0)
(7.33409 -0.0173952 0)
(7.33503 -0.0177104 0)
(7.33614 -0.0178999 0)
(7.33735 -0.0180421 0)
(7.33862 -0.0181873 0)
(7.33991 -0.0183676 0)
(7.3412 -0.0186029 0)
(7.34246 -0.0189061 0)
(7.34368 -0.0192854 0)
(7.34485 -0.0197466 0)
(7.34596 -0.0202941 0)
(7.34701 -0.0209313 0)
(7.34798 -0.0216618 0)
(7.34888 -0.0224887 0)
(7.34969 -0.0234155 0)
(7.35042 -0.0244457 0)
(7.35105 -0.0255828 0)
(7.35158 -0.0268306 0)
(7.35201 -0.0281925 0)
(7.35233 -0.0296719 0)
(7.35254 -0.0312721 0)
(7.35263 -0.0329958 0)
(7.35259 -0.0348455 0)
(7.35242 -0.0368232 0)
(7.35212 -0.0389303 0)
(7.35167 -0.041168 0)
(7.35108 -0.0435336 0)
(7.33179 0.00339276 0)
(7.329 0.00920264 0)
(7.32949 0.0118223 0)
(7.33182 0.0115244 0)
(7.33391 0.0094054 0)
(7.33566 0.00667444 0)
(7.33722 0.00383133 0)
(7.33863 0.00106118 0)
(7.33992 -0.00153698 0)
(7.34112 -0.00392308 0)
(7.34224 -0.00609669 0)
(7.34331 -0.0080756 0)
(7.34434 -0.00988495 0)
(7.34531 -0.0115524 0)
(7.34625 -0.0131056 0)
(7.34714 -0.0145704 0)
(7.34799 -0.0159706 0)
(7.34878 -0.0173278 0)
(7.34951 -0.0186611 0)
(7.35018 -0.0199879 0)
(7.35077 -0.0213234 0)
(7.35129 -0.0226814 0)
(7.35173 -0.024074 0)
(7.35207 -0.0255122 0)
(7.35231 -0.0270056 0)
(7.35245 -0.0285627 0)
(7.35248 -0.030191 0)
(7.35238 -0.0318971 0)
(7.35216 -0.0336865 0)
(7.3518 -0.0355639 0)
(7.35131 -0.037533 0)
(7.35068 -0.0395971 0)
(7.3499 -0.0417558 0)
(7.33408 -0.00613071 0)
(7.33405 -0.018973 0)
(7.33028 -0.0270349 0)
(7.32661 -0.0305722 0)
(7.32503 -0.0313687 0)
(7.32525 -0.0309725 0)
(7.3263 -0.0300547 0)
(7.32778 -0.0289397 0)
(7.32951 -0.0278267 0)
(7.33139 -0.0268214 0)
(7.33332 -0.02597 0)
(7.33525 -0.0252893 0)
(7.33716 -0.0247807 0)
(7.339 -0.0244382 0)
(7.34078 -0.0242518 0)
(7.34248 -0.0242113 0)
(7.34409 -0.0243067 0)
(7.34561 -0.0245293 0)
(7.34702 -0.0248717 0)
(7.34832 -0.025328 0)
(7.34951 -0.0258937 0)
(7.35059 -0.0265653 0)
(7.35153 -0.0273405 0)
(7.35235 -0.0282175 0)
(7.35304 -0.0291952 0)
(7.35359 -0.030273 0)
(7.35399 -0.0314506 0)
(7.35424 -0.0327277 0)
(7.35435 -0.034104 0)
(7.35429 -0.0355794 0)
(7.35408 -0.0371533 0)
(7.3537 -0.0388255 0)
(7.35315 -0.0405924 0)
(7.32967 0.0198577 0)
(7.32497 0.036996 0)
(7.32931 0.0376823 0)
(7.33511 0.0322658 0)
(7.33876 0.0258414 0)
(7.34093 0.0195136 0)
(7.34273 0.013589 0)
(7.34445 0.00827003 0)
(7.34618 0.00360114 0)
(7.34797 -0.000465607 0)
(7.34984 -0.00400089 0)
(7.35179 -0.00707791 0)
(7.3538 -0.00976744 0)
(7.35584 -0.012134 0)
(7.35789 -0.0142343 0)
(7.35994 -0.016117 0)
(7.36195 -0.0178241 0)
(7.36392 -0.0193912 0)
(7.36583 -0.0208489 0)
(7.36765 -0.0222232 0)
(7.36939 -0.0235363 0)
(7.37102 -0.0248074 0)
(7.37254 -0.026053 0)
(7.37394 -0.0272874 0)
(7.37522 -0.0285231 0)
(7.37636 -0.0297706 0)
(7.37735 -0.0310394 0)
(7.3782 -0.0323375 0)
(7.3789 -0.0336719 0)
(7.37945 -0.0350486 0)
(7.37985 -0.0364727 0)
(7.38008 -0.0379487 0)
(7.38015 -0.039479 0)
(7.32507 -0.0330834 0)
(7.29738 -0.0587781 0)
(7.27807 -0.0617261 0)
(7.27377 -0.0593762 0)
(7.28041 -0.0559071 0)
(7.29188 -0.0518978 0)
(7.30518 -0.0479963 0)
(7.31897 -0.0445377 0)
(7.33248 -0.0415724 0)
(7.34531 -0.0390842 0)
(7.35728 -0.0370375 0)
(7.36836 -0.0353826 0)
(7.37855 -0.0340674 0)
(7.38788 -0.0330447 0)
(7.39642 -0.0322734 0)
(7.40421 -0.0317184 0)
(7.41132 -0.0313506 0)
(7.4178 -0.0311465 0)
(7.42371 -0.0310866 0)
(7.42908 -0.0311556 0)
(7.43396 -0.0313412 0)
(7.4384 -0.0316337 0)
(7.44241 -0.0320254 0)
(7.44603 -0.0325105 0)
(7.44929 -0.0330843 0)
(7.45221 -0.0337431 0)
(7.45481 -0.0344842 0)
(7.45711 -0.0353053 0)
(7.45912 -0.0362046 0)
(7.46086 -0.0371805 0)
(7.46234 -0.0382318 0)
(7.46357 -0.039357 0)
(7.46456 -0.0405539 0)
(7.33915 0.134723 0)
(7.3762 0.127068 0)
(7.39341 0.0871887 0)
(7.38973 0.0533003 0)
(7.37483 0.0282894 0)
(7.35391 0.0105305 0)
(7.3295 -0.00203784 0)
(7.30336 -0.0110496 0)
(7.2765 -0.0175965 0)