/*--------------------------------*- C++ -*----------------------------------*\
  =========                 |
  \\      /  F ield         | OpenFOAM: The Open Source CFD Toolbox
   \\    /   O peration     | Website:  https://openfoam.org
    \\  /    A nd           | Version:  10
     \\/     M anipulation  |
\*---------------------------------------------------------------------------*/
FoamFile
{
    format      ascii;
    class       volScalarField;
    location    "1500";
    object      epsilon;
}
// * * * * * * * * * * * * * * * * * * * * * * * * * * * * * * * * * * * * * //

dimensions      [0 2 -3 0 0 0 0];

internalField   nonuniform List<scalar> 
6820
(
23.3479
22.8004
22.2986
21.7955
21.2906
20.7982
20.3323
19.9019
19.5115
19.1624
18.8537
18.5833
18.3484
18.146
17.9732
17.827
17.7048
17.604
17.5223
17.4577
17.4083
17.3723
17.3483
17.3349
17.331
17.3355
17.3471
17.3669
17.3834
17.4733
17.1265
19.02
12.9706
5.24756
7.40661
8.54809
9.1636
9.54967
9.8408
10.095
10.3377
10.5797
10.825
11.0746
11.3285
11.586
11.8464
12.109
12.3731
12.638
12.9031
13.1679
13.432
13.695
13.9568
14.2172
14.4764
14.7349
14.9938
15.2545
15.523
15.7997
16.1273
16.4368
17.3609
17.3321
3.71893
4.27988
4.8051
5.21581
5.52686
5.76846
5.96455
6.13154
6.28023
6.41771
6.54864
6.67607
6.80202
6.92773
7.05401
7.18129
7.3098
7.43963
7.57077
7.70314
7.83667
7.9713
8.10697
8.24374
8.38179
8.52157
8.66383
8.81091
8.96395
9.13645
9.33056
9.59173
9.98777
3.5376
3.62335
3.77161
3.93764
4.09557
4.23614
4.35836
4.46442
4.55735
4.64003
4.71493
4.78405
4.84898
4.91094
4.97087
5.02949
5.08734
5.14482
5.20222
5.25976
5.31759
5.37583
5.4346
5.494
5.55417
5.61533
5.6778
5.74228
5.80946
5.8819
5.96186
6.04864
6.16087
3.52015
3.50151
3.51115
3.54399
3.5907
3.64319
3.69619
3.74684
3.79394
3.83718
3.87676
3.91308
3.94662
3.97785
4.00722
4.03511
4.06188
4.0878
4.11311
4.13801
4.16267
4.18721
4.21177
4.23647
4.2614
4.28673
4.31262
4.33936
4.36725
4.39687
4.4289
4.46281
4.49931
3.51931
3.48209
3.45345
3.43537
3.42736
3.42746
3.43327
3.44265
3.454
3.46618
3.47849
3.4905
3.502
3.51292
3.52324
3.533
3.54228
3.55115
3.5597
3.56801
3.57616
3.58421
3.59224
3.60031
3.6085
3.61689
3.62555
3.63463
3.64425
3.65459
3.6658
3.67777
3.69024
3.51943
3.47964
3.44271
3.40975
3.38151
3.35816
3.33935
3.32446
3.31275
3.30354
3.29622
3.2903
3.28542
3.28129
3.27771
3.27454
3.2717
3.2691
3.26673
3.26454
3.26253
3.26071
3.25908
3.25765
3.25644
3.25547
3.25478
3.25442
3.25444
3.25488
3.2558
3.25714
3.25882
3.51947
3.47942
3.44105
3.40466
3.37057
3.33905
3.31021
3.28406
3.26043
3.23913
3.21989
3.20246
3.18658
3.17203
3.15862
3.1462
3.13462
3.12378
3.11359
3.10398
3.09489
3.08627
3.0781
3.07035
3.06299
3.05602
3.04943
3.04322
3.03742
3.03202
3.02702
3.0224
3.01814
3.51948
3.47941
3.44084
3.40381
3.36835
3.33454
3.30244
3.2721
3.24353
3.21668
3.19151
3.1679
3.14577
3.12499
3.10545
3.08705
3.06969
3.05327
3.03771
3.02293
3.00888
2.9955
2.98274
2.97056
2.95892
2.9478
2.93717
2.92702
2.91733
2.90809
2.89929
2.89091
2.88293
3.51948
3.4794
3.44081
3.40367
3.36795
3.33361
3.30064
3.26903
3.23877
3.20985
3.18224
3.1559
3.1308
3.10689
3.0841
3.06238
3.04167
3.02192
3.00305
2.98502
2.96778
2.95128
2.93547
2.92032
2.90579
2.89185
2.87846
2.86562
2.8533
2.84147
2.83012
2.81923
2.80878
3.51948
3.4794
3.4408
3.40365
3.36787
3.33343
3.30026
3.26832
3.23758
3.20801
3.17957
3.15222
3.12595
3.10071
3.07646
3.05318
3.03082
3.00934
2.98871
2.96888
2.94983
2.9315
2.91388
2.89692
2.8806
2.86489
2.84976
2.8352
2.82117
2.80766
2.79465
2.78212
2.77005
3.51948
3.4794
3.4408
3.40364
3.36785
3.33338
3.30017
3.26816
3.23731
3.20755
3.17887
3.15121
3.12453
3.09882
3.07402
3.0501
3.02705
3.00481
2.98337
2.96268
2.94273
2.92348
2.90491
2.88698
2.86968
2.85297
2.83685
2.82128
2.80625
2.79173
2.77772
2.76419
2.75113
3.51948
3.4794
3.44079
3.40363
3.36784
3.33336
3.30014
3.26812
3.23723
3.20743
3.17868
3.15093
3.12415
3.09828
3.0733
3.04916
3.02585
3.00333
2.98156
2.96052
2.94019
2.92053
2.90152
2.88314
2.86536
2.84817
2.83153
2.81545
2.79989
2.78484
2.77027
2.75619
2.74256
3.51948
3.47939
3.44079
3.40362
3.36783
3.33335
3.30012
3.26809
3.23719
3.20739
3.17862
3.15085
3.12403
3.09812
3.07308
3.04888
3.02549
3.00286
2.98099
2.95982
2.93934
2.91952
2.90034
2.88177
2.86379
2.84639
2.82953
2.81321
2.7974
2.78209
2.76726
2.75289
2.73898
3.51947
3.47939
3.44079
3.40361
3.36782
3.33334
3.30011
3.26807
3.23717
3.20736
3.17858
3.1508
3.12397
3.09805
3.073
3.04878
3.02536
3.00271
2.98079
2.95959
2.93906
2.91919
2.89994
2.8813
2.86325
2.84576
2.82882
2.8124
2.79648
2.78106
2.76611
2.75162
2.73757
3.51947
3.47939
3.44078
3.40361
3.36781
3.33333
3.30009
3.26805
3.23715
3.20733
3.17855
3.15077
3.12393
3.098
3.07295
3.04872
3.02529
3.00263
2.98071
2.95949
2.93895
2.91905
2.89979
2.88113
2.86305
2.84553
2.82855
2.8121
2.79614
2.78067
2.76567
2.75113
2.73702
3.51947
3.47939
3.44078
3.40361
3.36781
3.33332
3.30008
3.26804
3.23713
3.20731
3.17853
3.15074
3.1239
3.09797
3.07291
3.04868
3.02525
3.00258
2.98065
2.95943
2.93888
2.91898
2.89971
2.88104
2.86296
2.84543
2.82844
2.81196
2.79599
2.7805
2.76548
2.75091
2.73677
3.51947
3.47939
3.44078
3.4036
3.3678
3.33331
3.30007
3.26802
3.23711
3.20729
3.17851
3.15071
3.12387
3.09794
3.07287
3.04864
3.02521
3.00254
2.98061
2.95938
2.93883
2.91893
2.89965
2.88098
2.86289
2.84536
2.82836
2.81188
2.7959
2.7804
2.76537
2.75078
2.73663
3.51947
3.47939
3.44078
3.4036
3.3678
3.3333
3.30006
3.26801
3.2371
3.20727
3.17849
3.15069
3.12385
3.09791
3.07284
3.04861
3.02517
3.0025
2.98057
2.95934
2.93878
2.91888
2.8996
2.88093
2.86283
2.84529
2.82829
2.81181
2.79582
2.78032
2.76528
2.75068
2.73652
3.51947
3.47939
3.44077
3.4036
3.36779
3.3333
3.30005
3.268
3.23709
3.20726
3.17847
3.15067
3.12383
3.09789
3.07282
3.04858
3.02514
3.00247
2.98053
2.9593
2.93874
2.91884
2.89956
2.88088
2.86278
2.84524
2.82823
2.81174
2.79575
2.78024
2.76519
2.75059
2.73641
3.51947
3.47939
3.44077
3.40359
3.36779
3.33329
3.30005
3.26799
3.23708
3.20725
3.17845
3.15066
3.12381
3.09786
3.07279
3.04855
3.02511
3.00244
2.9805
2.95926
2.9387
2.9188
2.89951
2.88083
2.86273
2.84519
2.82818
2.81168
2.79569
2.78017
2.76511
2.7505
2.73632
3.51947
3.47938
3.44077
3.40359
3.36779
3.33329
3.30004
3.26798
3.23707
3.20724
3.17844
3.15064
3.12379
3.09785
3.07277
3.04853
3.02509
3.00241
2.98047
2.95923
2.93867
2.91876
2.89947
2.88079
2.86268
2.84514
2.82812
2.81162
2.79562
2.7801
2.76504
2.75042
2.73623
3.51947
3.47938
3.44077
3.40359
3.36778
3.33328
3.30004
3.26798
3.23706
3.20723
3.17843
3.15063
3.12377
3.09783
3.07275
3.04851
3.02507
3.00239
2.98044
2.9592
2.93864
2.91873
2.89944
2.88075
2.86264
2.84509
2.82807
2.81157
2.79556
2.78003
2.76496
2.75034
2.73614
3.51947
3.47938
3.44077
3.40359
3.36778
3.33328
3.30003
3.26797
3.23705
3.20722
3.17842
3.15062
3.12376
3.09781
3.07274
3.04849
3.02505
3.00236
2.98042
2.95918
2.93861
2.91869
2.8994
2.88071
2.8626
2.84504
2.82802
2.81151
2.7955
2.77997
2.7649
2.75027
2.73606
3.51947
3.47938
3.44077
3.40359
3.36778
3.33328
3.30003
3.26797
3.23705
3.20721
3.17841
3.15061
3.12375
3.0978
3.07272
3.04848
3.02503
3.00235
2.9804
2.95915
2.93858
2.91867
2.89937
2.88068
2.86256
2.845
2.82798
2.81147
2.79545
2.77991
2.76483
2.7502
2.73599
3.51947
3.47938
3.44077
3.40359
3.36778
3.33328
3.30003
3.26797
3.23704
3.20721
3.17841
3.1506
3.12374
3.09779
3.07271
3.04846
3.02501
3.00233
2.98038
2.95913
2.93856
2.91864
2.89935
2.88065
2.86253
2.84497
2.82794
2.81142
2.7954
2.77986
2.76478
2.75014
2.73592
3.51947
3.47938
3.44077
3.40359
3.36778
3.33328
3.30002
3.26796
3.23704
3.2072
3.1784
3.15059
3.12373
3.09778
3.0727
3.04845
3.025
3.00232
2.98036
2.95912
2.93854
2.91862
2.89932
2.88062
2.8625
2.84493
2.8279
2.81138
2.79536
2.77981
2.76472
2.75008
2.73586
3.51947
3.47938
3.44077
3.40359
3.36778
3.33328
3.30002
3.26796
3.23704
3.2072
3.1784
3.15059
3.12373
3.09778
3.0727
3.04844
3.02499
3.0023
2.98035
2.9591
2.93853
2.9186
2.8993
2.8806
2.86247
2.8449
2.82787
2.81135
2.79532
2.77977
2.76467
2.75003
2.7358
3.51947
3.47938
3.44077
3.40359
3.36778
3.33328
3.30002
3.26796
3.23704
3.2072
3.1784
3.15059
3.12373
3.09777
3.07269
3.04844
3.02499
3.0023
2.98034
2.95909
2.93851
2.91859
2.89928
2.88058
2.86245
2.84488
2.82784
2.81131
2.79528
2.77973
2.76463
2.74998
2.73575
3.51947
3.47938
3.44077
3.40359
3.36778
3.33328
3.30002
3.26796
3.23703
3.2072
3.17839
3.15059
3.12372
3.09777
3.07269
3.04844
3.02498
3.00229
2.98034
2.95908
2.93851
2.91858
2.89927
2.88057
2.86244
2.84486
2.82782
2.81129
2.79526
2.7797
2.7646
2.74995
2.73572
3.51947
3.47938
3.44077
3.40359
3.36778
3.33328
3.30002
3.26796
3.23703
3.2072
3.17839
3.15059
3.12372
3.09777
3.07269
3.04844
3.02498
3.00229
2.98033
2.95908
2.9385
2.91857
2.89927
2.88056
2.86243
2.84486
2.82781
2.81128
2.79525
2.77969
2.76459
2.74994
2.73571
3.51947
3.47938
3.44077
3.40359
3.36778
3.33328
3.30002
3.26796
3.23704
3.2072
3.1784
3.15059
3.12373
3.09778
3.0727
3.04845
3.025
3.00231
2.98036
2.95911
2.93853
2.91861
2.89931
2.88061
2.86248
2.84491
2.82788
2.81136
2.79533
2.77979
2.7647
2.75006
2.73584
3.51947
3.47938
3.44077
3.40359
3.36778
3.33328
3.30002
3.26796
3.23704
3.20721
3.17841
3.15061
3.12375
3.09781
3.07274
3.0485
3.02507
3.0024
2.98047
2.95924
2.9387
2.91881
2.89954
2.88088
2.8628
2.84528
2.82829
2.81182
2.79585
2.78036
2.76534
2.75076
2.73661
3.51947
3.47938
3.44077
3.40359
3.36778
3.33329
3.30005
3.26801
3.23711
3.20731
3.17855
3.1508
3.12401
3.09815
3.07316
3.04902
3.02569
3.00315
2.98135
2.96028
2.93989
2.92017
2.9011
2.88263
2.86476
2.84746
2.8307
2.81447
2.79875
2.78352
2.76876
2.75445
2.74058
3.51947
3.47938
3.44078
3.40362
3.36785
3.33343
3.30029
3.26839
3.23767
3.2081
3.17963
3.15222
3.12583
3.10041
3.07593
3.05235
3.02964
3.00776
2.98667
2.96634
2.94675
2.92785
2.90963
2.89204
2.87508
2.8587
2.84289
2.82761
2.81286
2.7986
2.78482
2.77149
2.7586
3.51947
3.47942
3.44096
3.40413
3.36893
3.33533
3.30326
3.27267
3.24351
3.21573
3.18926
3.16405
3.14005
3.11719
3.09542
3.07468
3.05491
3.03607
3.01809
3.00093
2.98455
2.96888
2.9539
2.93957
2.92583
2.91267
2.90005
2.88792
2.87628
2.86509
2.85432
2.84395
2.83396
3.5195
3.48076
3.4454
3.41322
3.38398
3.35748
3.33353
3.31197
3.29262
3.27528
3.25977
3.24591
3.23353
3.22245
3.21253
3.20364
3.19565
3.18845
3.18194
3.17604
3.17067
3.16576
3.16125
3.15709
3.15323
3.14964
3.14627
3.1431
3.14009
3.13723
3.1345
3.13187
3.12933
3.52507
3.51486
3.52111
3.5366
3.55846
3.58518
3.61572
3.64919
3.68477
3.72177
3.75965
3.79796
3.83633
3.87449
3.9122
3.94929
3.98564
4.02113
4.05571
4.08931
4.1219
4.15347
4.184
4.2135
4.24197
4.26943
4.29589
4.32137
4.3459
4.3695
4.3922
4.41402
4.43501
3.84199
4.38773
4.8773
5.34244
5.79478
6.23569
6.6631
7.07564
7.4733
7.85667
8.22651
8.58358
8.92865
9.26244
9.58557
9.89861
10.202
10.4963
10.7817
11.0586
11.3274
11.5882
11.8414
12.0871
12.3257
12.5572
12.782
13.0002
13.212
13.4176
13.6173
13.8111
13.9994
30.2673
32.7691
35.3054
37.8488
40.3863
42.91
45.413
47.8883
50.3293
52.73
55.0852
57.3902
59.6411
61.8345
63.9678
66.0388
68.0459
69.9879
71.8644
73.6748
75.4194
77.0985
78.7129
80.2633
81.7509
83.1771
84.5431
85.8505
87.1011
88.2964
89.4382
90.528
91.569
49.6133
299.652
622.667
823.228
885.136
875.309
847.198
816.495
782.511
744.89
705.551
666.428
628.594
592.551
558.659
527.277
498.691
472.994
450.014
429.356
410.497
392.914
376.184
360.05
344.44
329.464
315.376
302.492
291.088
281.291
273.004
265.912
259.559
253.475
247.285
240.776
233.905
226.758
219.493
212.269
205.186
198.261
191.434
184.603
177.677
170.614
163.449
156.289
149.3
142.667
136.551
131.048
126.157
121.781
117.746
113.838
109.855
105.633
101.071
96.1299
90.8321
85.2447
79.4674
73.6186
67.8246
62.2093
56.8878
51.9617
47.5175
43.628
40.3581
37.7734
35.9479
34.9576
34.8491
35.5859
37.0133
38.8759
40.8835
42.7806
44.385
45.5933
46.3669
46.7112
46.6585
46.2544
45.5496
44.5947
43.4376
42.1219
40.6866
39.1659
37.5893
35.9812
34.3617
32.7438
31.1442
29.5394
28.0764
25.8525
30.2119
36.1426
67.8842
115.248
162.717
204.135
241.022
275.378
306.972
334.341
355.978
370.9
378.925
380.741
377.714
371.506
363.669
355.338
347.096
339.021
330.848
322.186
312.718
302.33
291.165
279.596
268.152
257.411
247.867
239.808
233.235
227.861
223.199
218.699
213.901
208.522
202.49
195.909
188.99
181.968
175.029
168.264
161.664
155.155
148.644
142.073
135.45
128.857
122.435
116.354
110.772
105.792
101.43
97.6072
94.1666
90.9065
87.6245
84.1537
80.3848
76.2726
71.8311
67.122
62.2404
57.3001
52.4216
47.7214
43.3051
39.2624
35.666
32.5737
30.0347
28.1
26.8327
26.3067
26.5785
27.6339
29.3453
31.481
33.7656
35.949
37.8484
39.3561
40.4284
41.0656
41.296
41.1624
40.7138
40
39.069
37.9652
36.7287
35.3949
33.9947
32.5537
31.0936
29.6288
28.1765
26.7175
25.3881
23.3619
10.5222
10.4716
11.6706
15.1935
21.0058
28.5879
37.4991
47.5299
58.6801
71.0322
84.5354
98.8147
113.172
126.838
139.299
150.477
160.64
170.129
179.058
187.174
193.93
198.719
201.112
201.001
198.633
194.545
189.457
184.139
179.271
175.322
172.453
170.5
169.04
167.533
165.479
162.547
158.629
153.824
148.376
142.582
136.709
130.929
125.305
119.808
114.364
108.908
103.423
97.9567
92.6182
87.5506
82.8985
78.7696
75.2029
72.1525
69.4949
67.0558
64.6486
62.1108
59.3286
56.2479
52.8717
49.2505
45.4679
41.6266
37.8351
34.1969
30.8033
27.7283
25.0281
22.7434
20.9063
19.551
18.7266
18.5035
18.9544
20.1043
21.8771
24.0876
26.4888
28.8398
30.9535
32.7117
34.058
34.9818
35.5022
35.6553
35.4853
35.0394
34.3638
33.5023
32.4952
31.3784
30.1834
28.937
27.6618
26.3737
25.0901
23.7971
22.6183
20.8153
6.30036
6.32648
6.34659
6.54832
7.08418
8.00063
9.27301
10.8686
12.7458
14.9064
17.4159
20.3456
23.7213
27.5108
31.6593
36.1544
41.0755
46.5901
52.8737
59.9691
67.6557
75.4249
82.6028
88.5684
92.9527
95.732
97.1998
97.8568
98.2678
98.9188
100.097
101.815
103.815
105.654
106.853
107.042
106.048
103.919
100.87
97.2084
93.2442
89.2162
85.2579
81.3992
77.6021
73.8088
69.9853
66.1456
62.3561
58.7213
55.3592
52.3712
49.8148
47.6833
45.903
44.3471
42.8644
41.3115
39.5796
37.6079
35.3868
32.9505
30.365
27.7144
25.0885
22.5717
20.2363
18.1377
16.3147
14.792
13.5862
12.7155
12.2128
12.1379
12.5728
13.5853
15.1696
17.2122
19.5158
21.8597
24.0539
25.9656
27.5197
28.6881
29.4752
29.9057
30.0156
29.8461
29.4396
28.8376
28.079
27.199
26.2292
25.1968
24.1248
23.0303
21.931
20.8179
19.8014
18.238
4.54659
4.57988
4.60043
4.62559
4.68611
4.80924
5.008
5.28468
5.63148
6.03861
6.50813
7.05209
7.68263
8.40617
9.22487
10.1448
11.1873
12.3987
13.8509
15.6255
17.7781
20.295
23.0678
25.9106
28.6183
31.0382
33.1217
34.9391
36.6593
38.5033
40.6757
43.2794
46.245
49.3162
52.1169
54.2708
55.5167
55.7703
55.1193
53.7709
51.9792
49.9763
47.9257
45.9055
43.9219
41.9409
39.9261
37.8656
35.7839
33.7381
31.8044
30.0593
28.5608
27.3314
26.3493
25.5494
24.8368
24.1084
23.2754
22.2798
21.1008
19.7533
18.2796
16.738
15.1927
13.7039
12.3215
11.0828
10.0117
9.12179
8.42042
7.91577
7.62619
7.59267
7.8867
8.59631
9.77964
11.4124
13.3751
15.4906
17.5789
19.4949
21.1427
22.4712
23.4648
24.1318
24.4955
24.5877
24.4442
24.1014
23.5952
22.9589
22.2228
21.4135
20.5539
19.6621
18.7555
17.8298
16.9812
15.6652
3.70575
3.71993
3.73176
3.74244
3.75554
3.77673
3.81156
3.86383
3.9343
4.02148
4.12493
4.24646
4.38881
4.55412
4.74338
4.95736
5.19836
5.47256
5.79153
6.17148
6.62874
7.1724
7.79718
8.48127
9.19154
9.89485
10.5707
11.2209
11.8735
12.5832
13.425
14.4757
15.7806
17.3142
18.9604
20.5337
21.8367
22.7241
23.1408
23.123
22.7703
22.2059
21.5406
20.8492
20.1631
19.4792
18.7772
18.0392
17.2621
16.4622
15.671
14.9274
14.2685
13.7204
13.2908
12.9642
12.7035
12.4576
12.1734
11.8085
11.3397
10.7653
10.103
9.38295
8.64108
7.91231
7.22619
6.60478
6.06251
5.60772
5.24514
4.97927
4.81946
4.78784
4.92959
5.3168
6.03003
7.11517
8.5446
10.2162
11.9884
13.7218
15.3059
16.6676
17.7681
18.5952
19.1554
19.4673
19.5564
19.4519
19.1841
18.7824
18.2745
17.6854
17.0371
16.3476
15.6338
14.8955
14.2144
13.1445
3.26125
3.26312
3.26459
3.26594
3.26741
3.26963
3.27372
3.28093
3.2921
3.30748
3.32732
3.35234
3.38357
3.42204
3.46848
3.52329
3.58681
3.65983
3.74411
3.84248
3.95817
4.09346
4.24811
4.41867
4.59904
4.78239
4.96355
5.14108
5.31865
5.5059
5.71886
5.97865
6.30651
6.71405
7.19226
7.70624
8.20134
8.61939
8.91685
9.07609
9.10627
9.03581
8.90113
8.73567
8.56225
8.39017
8.21737
8.0362
7.83972
7.62621
7.40055
7.17313
6.95725
6.76599
6.60883
6.48852
6.39893
6.3253
6.24732
6.14428
6.00043
5.80856
5.57074
5.29669
5.00073
4.69849
4.40435
4.12997
3.88383
3.67167
3.49737
3.36431
3.27738
3.24665
3.29372
3.45927
3.80367
4.38996
5.25164
6.36766
7.66404
9.03832
10.3881
11.6301
12.7068
13.5858
14.2547
14.7159
14.9822
15.0724
15.0089
14.8152
14.5148
14.1295
13.6794
13.1814
12.6515
12.0924
11.5714
10.7375
3.01362
3.00829
3.00286
2.9975
2.99223
2.98703
2.98192
2.97711
2.97286
2.96935
2.96679
2.96551
2.966
2.96878
2.97435
2.98307
2.9952
3.01094
3.03063
3.05481
3.08414
3.11916
3.15986
3.20545
3.25447
3.30514
3.35592
3.40601
3.45574
3.50679
3.56241
3.62738
3.70731
3.80678
3.92662
4.06182
4.20138
4.33082
4.43618
4.5078
4.54228
4.5424
4.51553
4.47111
4.41818
4.36326
4.30939
4.25644
4.20241
4.14509
4.08338
4.01787
3.95081
3.8856
3.82592
3.77467
3.73273
3.69812
3.66598
3.62961
3.58225
3.51898
3.43785
3.34012
3.22962
3.11165
2.99189
2.87558
2.76707
2.66975
2.58624
2.51883
2.47009
2.44428
2.45006
2.50519
2.64117
2.90182
3.33038
3.94944
4.7465
5.6748
6.66721
7.6535
8.57329
9.38219
10.0526
10.5717
10.9381
11.1589
11.2467
11.2172
11.088
10.8763
10.599
10.271
9.90643
9.50966
9.13439
8.51701
2.87412
2.86417
2.85423
2.84435
2.83458
2.82486
2.81509
2.80523
2.79532
2.78539
2.77553
2.76586
2.75658
2.74792
2.74013
2.73347
2.72812
2.72424
2.72194
2.72138
2.72272
2.72606
2.73139
2.7385
2.74697
2.75624
2.76581
2.77534
2.78479
2.79448
2.80518
2.81812
2.83486
2.85688
2.88491
2.91825
2.95454
2.99005
3.02062
3.04261
3.05368
3.05317
3.04201
3.02237
2.99711
2.96906
2.9404
2.91238
2.88523
2.85851
2.83152
2.80369
2.77482
2.74521
2.71559
2.68689
2.65994
2.635
2.61147
2.58789
2.56226
2.53258
2.49748
2.45651
2.41024
2.36003
2.30769
2.25518
2.20437
2.15687
2.11406
2.07719
2.04753
2.02682
2.01824
2.02847
2.07069
2.16694
2.34584
2.63432
3.04632
3.57538
4.19477
4.86423
5.53926
6.17906
6.75135
7.23413
7.61528
7.89106
8.06424
8.1422
8.13527
8.0553
7.91462
7.72503
7.49818
7.23881
6.9878
6.55825
2.79714
2.78406
2.77105
2.75811
2.74526
2.73248
2.71969
2.70684
2.6939
2.68086
2.66775
2.6546
2.64148
2.62849
2.61573
2.60333
2.59141
2.58007
2.5694
2.55946
2.55031
2.54197
2.53442
2.52755
2.52122
2.51523
2.50938
2.50353
2.49765
2.49182
2.4863
2.48148
2.4779
2.4761
2.47646
2.47896
2.48304
2.48765
2.49143
2.49297
2.49112
2.48515
2.47487
2.46062
2.44319
2.42361
2.40297
2.38212
2.36163
2.34167
2.32213
2.30274
2.28317
2.26321
2.2428
2.22205
2.20122
2.18056
2.1602
2.14005
2.11972
2.0987
2.07649
2.05273
2.02738
2.00066
1.97302
1.94505
1.9174
1.8907
1.86551
1.84238
1.82184
1.80458
1.7917
1.78547
1.79073
1.81659
1.87734
1.99042
2.17147
2.42851
2.75826
3.14622
3.56971
4.00244
4.41894
4.79765
5.12264
5.384
5.57735
5.70293
5.76447
5.76806
5.72123
5.63198
5.50883
5.35579
5.20228
4.92402
2.75654
2.74137
2.72628
2.71126
2.69632
2.68144
2.66659
2.65173
2.63682
2.62186
2.60684
2.59177
2.57667
2.56158
2.54655
2.53162
2.51688
2.50238
2.48819
2.47434
2.46088
2.44779
2.43506
2.42262
2.41038
2.39824
2.38611
2.3739
2.36161
2.34928
2.33705
2.32511
2.31373
2.30315
2.2936
2.28515
2.27768
2.27086
2.26419
2.25706
2.2489
2.23923
2.22777
2.21444
2.1994
2.18299
2.16566
2.14789
2.13004
2.11236
2.09492
2.07768
2.06049
2.04318
2.02561
2.00773
1.98955
1.97119
1.95278
1.93443
1.91619
1.89803
1.87987
1.86159
1.84313
1.8245
1.80574
1.78697
1.76834
1.75001
1.73216
1.71492
1.69848
1.68304
1.66893
1.65687
1.64847
1.64704
1.65853
1.69166
1.75658
1.86205
2.01248
2.20617
2.43533
2.68757
2.94807
3.20189
3.43573
3.63918
3.80514
3.92989
4.01263
4.05494
4.06015
4.03261
3.97764
3.89789
3.81319
3.64586
2.73644
2.71995
2.70352
2.68714
2.67083
2.65457
2.63835
2.62213
2.60591
2.58966
2.57339
2.55708
2.54076
2.52443
2.50812
2.49186
2.47568
2.45962
2.44373
2.42805
2.41259
2.39736
2.38234
2.36747
2.35269
2.33792
2.32309
2.30816
2.29311
2.27798
2.26287
2.2479
2.23325
2.21909
2.20558
2.1928
2.18073
2.16926
2.15816
2.14713
2.13586
2.12404
2.11146
2.09797
2.08357
2.06835
2.05248
2.03619
2.01967
2.00309
1.98654
1.97003
1.95354
1.93698
1.92029
1.9034
1.88633
1.86911
1.85183
1.8346
1.81752
1.80066
1.78406
1.76774
1.75168
1.73584
1.72021
1.70474
1.68944
1.67427
1.65923
1.6443
1.62947
1.61475
1.60018
1.58596
1.57257
1.56111
1.55377
1.55422
1.56755
1.59949
1.65487
1.73612
1.84238
1.96952
2.11083
2.25814
2.403
2.53768
2.65584
2.75293
2.82629
2.87501
2.89964
2.9018
2.88424
2.84816
2.80613
2.71164
2.72721
2.70994
2.69271
2.67552
2.65836
2.64125
2.62416
2.60709
2.59002
2.57294
2.55584
2.53874
2.52162
2.50451
2.48741
2.47034
2.45332
2.43639
2.41957
2.4029
2.3864
2.37006
2.35387
2.33781
2.3218
2.30581
2.28975
2.2736
2.25734
2.241
2.22465
2.20838
2.19234
2.17666
2.16146
2.14683
2.13278
2.11925
2.10614
2.09325
2.08039
2.06736
2.05399
2.04016
2.02583
2.01101
1.99576
1.98016
1.96433
1.94835
1.93227
1.91613
1.89991
1.88361
1.86719
1.85066
1.83402
1.81731
1.80061
1.784
1.76756
1.75137
1.73549
1.71995
1.70475
1.68987
1.67527
1.66088
1.64666
1.63251
1.61837
1.60415
1.58977
1.57515
1.56027
1.54511
1.52981
1.51471
1.50056
1.48874
1.48139
1.48142
1.49197
1.5157
1.554
1.60651
1.6711
1.7442
1.82138
1.89795
1.96955
2.03248
2.08402
2.12244
2.14703
2.15787
2.15599
2.14156
2.12223
2.07013
2.72328
2.70559
2.68792
2.67028
2.65265
2.63505
2.61746
2.59988
2.5823
2.56472
2.54713
2.52953
2.51193
2.49433
2.47674
2.45918
2.44166
2.4242
2.40684
2.38959
2.37247
2.35549
2.33864
2.3219
2.30522
2.28856
2.27188
2.25513
2.23831
2.22143
2.20454
2.18772
2.17107
2.15472
2.13876
2.12327
2.10828
2.09375
2.07962
2.06575
2.05202
2.03827
2.02438
2.01025
1.99582
1.98109
1.96606
1.95078
1.93529
1.91962
1.90382
1.88789
1.87183
1.85565
1.83936
1.82297
1.80651
1.79003
1.7736
1.7573
1.74118
1.72532
1.70975
1.69452
1.67961
1.66502
1.65068
1.63655
1.62254
1.60858
1.59456
1.58039
1.56597
1.5512
1.53601
1.52034
1.50422
1.48775
1.47118
1.45502
1.44009
1.42763
1.41923
1.4166
1.42119
1.43384
1.45445
1.482
1.51465
1.55007
1.5857
1.61912
1.64823
1.67144
1.6877
1.69645
1.69784
1.69141
1.68193
1.65146
2.7217
2.70381
2.68592
2.66805
2.65017
2.63231
2.61445
2.5966
2.57874
2.56087
2.543
2.52512
2.50724
2.48936
2.47149
2.45364
2.43583
2.41807
2.40038
2.38278
2.36529
2.34792
2.33066
2.3135
2.29641
2.27936
2.26231
2.24523
2.22811
2.21097
2.19383
2.17676
2.15985
2.14318
2.12684
2.1109
2.09538
2.08028
2.06555
2.05109
2.03681
2.02258
2.00831
1.99392
1.97935
1.96459
1.94962
1.93445
1.91911
1.90361
1.88796
1.87216
1.85621
1.84013
1.82392
1.80762
1.79126
1.7749
1.75861
1.74245
1.72648
1.71075
1.69531
1.68016
1.66531
1.65073
1.63638
1.62219
1.6081
1.59401
1.57984
1.56548
1.55084
1.53583
1.52035
1.50435
1.48782
1.47078
1.45334
1.4357
1.41818
1.40127
1.38566
1.37222
1.36187
1.3554
1.3533
1.35562
1.36191
1.37127
1.38251
1.3943
1.40531
1.41439
1.4206
1.42328
1.42224
1.41673
1.40997
1.38873
2.72107
2.70308
2.68509
2.6671
2.64911
2.63111
2.61312
2.59512
2.57712
2.55911
2.54109
2.52306
2.50504
2.48701
2.46899
2.45099
2.43301
2.41508
2.39721
2.37941
2.36169
2.34408
2.32656
2.30913
2.29178
2.27447
2.25718
2.2399
2.22261
2.20531
2.18805
2.17086
2.1538
2.13696
2.1204
2.10418
2.08833
2.07284
2.05769
2.0428
2.02811
2.01351
1.99894
1.98431
1.96959
1.95473
1.93974
1.9246
1.90931
1.89388
1.8783
1.86258
1.84672
1.83071
1.81458
1.79836
1.78208
1.76581
1.7496
1.73351
1.71761
1.70192
1.6865
1.67134
1.65644
1.64177
1.6273
1.61295
1.59867
1.58437
1.56996
1.55536
1.54046
1.52519
1.50947
1.49323
1.47646
1.45917
1.44141
1.42329
1.40494
1.38658
1.3685
1.35111
1.33485
1.32022
1.30765
1.29744
1.28967
1.28415
1.28051
1.27814
1.27639
1.27456
1.27201
1.26821
1.2629
1.25528
1.24788
1.22921
2.72079
2.70276
2.68471
2.66666
2.64861
2.63055
2.61248
2.59441
2.57634
2.55825
2.54016
2.52207
2.50397
2.48587
2.46777
2.44969
2.43164
2.41361
2.39564
2.37772
2.35988
2.34212
2.32444
2.30684
2.2893
2.27182
2.25438
2.23696
2.21955
2.20217
2.18482
2.16756
2.15042
2.13347
2.11676
2.10033
2.08423
2.06844
2.05296
2.03773
2.0227
2.00779
1.99294
1.97809
1.96319
1.94822
1.93316
1.91798
1.90269
1.88728
1.87174
1.85606
1.84025
1.82431
1.80825
1.7921
1.7759
1.7597
1.74356
1.72753
1.71165
1.69597
1.68052
1.66531
1.65032
1.63553
1.6209
1.60637
1.59188
1.57735
1.5627
1.54785
1.53272
1.51722
1.50128
1.48487
1.46796
1.45055
1.43268
1.41441
1.39584
1.37708
1.35828
1.3396
1.32128
1.30357
1.28673
1.27101
1.25656
1.24347
1.23169
1.22104
1.21128
1.20208
1.19308
1.18394
1.1745
1.16399
1.15473
1.13552
2.72063
2.70256
2.68449
2.66641
2.64832
2.63023
2.61212
2.59401
2.5759
2.55778
2.53965
2.52152
2.50338
2.48525
2.46712
2.449
2.4309
2.41283
2.3948
2.37682
2.3589
2.34104
2.32326
2.30554
2.28789
2.27029
2.25274
2.23522
2.21773
2.20028
2.18288
2.16556
2.14836
2.13133
2.1145
2.09792
2.08161
2.06559
2.04983
2.03431
2.01898
2.00379
1.98868
1.97362
1.95855
1.94344
1.92827
1.91303
1.8977
1.88227
1.86674
1.85108
1.83531
1.81941
1.80342
1.78734
1.77121
1.75508
1.739
1.723
1.70715
1.69147
1.67598
1.6607
1.64561
1.63069
1.6159
1.60119
1.58649
1.57175
1.55688
1.54181
1.52646
1.51077
1.49467
1.47813
1.46112
1.44366
1.42576
1.40749
1.38891
1.3701
1.35115
1.33216
1.31325
1.29455
1.2762
1.25834
1.24111
1.22461
1.20889
1.19396
1.17975
1.16616
1.15303
1.14018
1.12756
1.11449
1.1033
1.08249
2.7205
2.70242
2.68433
2.66622
2.64811
2.62999
2.61187
2.59373
2.57559
2.55745
2.5393
2.52114
2.50299
2.48483
2.46668
2.44855
2.43043
2.41233
2.39426
2.37624
2.35827
2.34035
2.3225
2.3047
2.28697
2.26928
2.25165
2.23406
2.21651
2.199
2.18156
2.1642
2.14695
2.12984
2.11292
2.09621
2.07973
2.0635
2.04751
2.03174
2.01615
2.00071
1.98537
1.9701
1.95485
1.93959
1.92431
1.90898
1.89359
1.87813
1.86257
1.84692
1.83117
1.81531
1.79936
1.78334
1.76728
1.75121
1.73518
1.71923
1.70339
1.6877
1.67218
1.65683
1.64164
1.62659
1.61165
1.59677
1.5819
1.56696
1.55189
1.53663
1.5211
1.50525
1.48902
1.47238
1.45532
1.43783
1.41995
1.40172
1.38321
1.36446
1.34557
1.32659
1.3076
1.28868
1.26991
1.25137
1.23315
1.21532
1.19795
1.18107
1.16469
1.1488
1.13336
1.11827
1.10359
1.0887
1.07603
1.05357
2.72039
2.70229
2.68418
2.66606
2.64793
2.6298
2.61165
2.5935
2.57534
2.55718
2.53901
2.52084
2.50267
2.4845
2.46634
2.44819
2.43005
2.41194
2.39385
2.3758
2.35779
2.33983
2.32192
2.30406
2.28626
2.26851
2.25082
2.23317
2.21556
2.19801
2.18053
2.16313
2.14583
2.12866
2.11165
2.09483
2.07821
2.06181
2.04562
2.02963
2.01382
1.99815
1.9826
1.96713
1.9517
1.9363
1.9209
1.90547
1.89001
1.87449
1.8589
1.84324
1.82749
1.81166
1.79575
1.77978
1.76377
1.74775
1.73177
1.71585
1.70003
1.68433
1.66877
1.65336
1.63808
1.62293
1.60785
1.59282
1.57777
1.56266
1.54742
1.53199
1.51632
1.50033
1.484
1.46729
1.45019
1.4327
1.41486
1.3967
1.37827
1.35963
1.34085
1.32198
1.30308
1.2842
1.26541
1.24675
1.22828
1.21004
1.19209
1.17446
1.15718
1.14025
1.12368
1.10743
1.0916
1.0756
1.06198
1.0383
2.72028
2.70217
2.68405
2.66592
2.64777
2.62962
2.61146
2.59329
2.57512
2.55694
2.53875
2.52057
2.50239
2.48421
2.46603
2.44787
2.42972
2.41158
2.39348
2.3754
2.35736
2.33936
2.32141
2.30351
2.28566
2.26786
2.2501
2.2324
2.21475
2.19716
2.17964
2.16219
2.14484
2.12762
2.11053
2.09361
2.07687
2.06032
2.04397
2.02779
2.01178
1.99591
1.98017
1.96451
1.94892
1.93338
1.91785
1.90232
1.88677
1.87119
1.85556
1.83987
1.82412
1.8083
1.79241
1.77648
1.76052
1.74455
1.72861
1.71272
1.69691
1.6812
1.66561
1.65014
1.63479
1.61953
1.60433
1.58916
1.57397
1.55871
1.54332
1.52775
1.51194
1.49584
1.47943
1.46267
1.44555
1.42808
1.41028
1.39219
1.37387
1.35535
1.3367
1.31796
1.29919
1.28044
1.26175
1.24316
1.22471
1.20643
1.18836
1.17052
1.15294
1.13563
1.11861
1.10184
1.08546
1.0689
1.05476
1.03033
2.72018
2.70206
2.68393
2.66578
2.64762
2.62946
2.61128
2.5931
2.57491
2.55672
2.53852
2.52032
2.50213
2.48393
2.46574
2.44757
2.4294
2.41125
2.39312
2.37503
2.35696
2.33893
2.32094
2.303
2.2851
2.26725
2.24946
2.23171
2.21402
2.19638
2.17881
2.16133
2.14393
2.12665
2.10949
2.09248
2.07564
2.05896
2.04245
2.02611
2.00993
1.99389
1.97797
1.96215
1.94641
1.93072
1.91507
1.89943
1.8838
1.86815
1.85247
1.83675
1.82098
1.80516
1.78929
1.77339
1.75746
1.74153
1.72562
1.70975
1.69395
1.67824
1.66262
1.6471
1.63168
1.61632
1.60102
1.58573
1.57041
1.55502
1.5395
1.5238
1.50788
1.4917
1.47522
1.45842
1.44129
1.42385
1.40611
1.3881
1.36988
1.35148
1.33296
1.31437
1.29574
1.27714
1.25858
1.24012
1.22178
1.20358
1.18556
1.16773
1.15012
1.13272
1.11557
1.09864
1.08205
1.06524
1.05088
1.02606
2.72009
2.70196
2.68381
2.66566
2.64749
2.6293
2.61112
2.59292
2.57472
2.55651
2.5383
2.52009
2.50188
2.48367
2.46547
2.44728
2.4291
2.41093
2.39279
2.37467
2.35657
2.33852
2.3205
2.30252
2.28458
2.26669
2.24885
2.23106
2.21332
2.19565
2.17804
2.1605
2.14306
2.12572
2.1085
2.09141
2.07447
2.05768
2.04104
2.02456
2.00823
1.99203
1.97596
1.95999
1.9441
1.92828
1.91251
1.89677
1.88105
1.86533
1.84959
1.83383
1.81804
1.80222
1.78636
1.77047
1.75456
1.73866
1.72277
1.70693
1.69113
1.67541
1.65977
1.64421
1.62872
1.61329
1.59789
1.5825
1.56707
1.55156
1.53592
1.52012
1.50412
1.48786
1.47133
1.45451
1.43739
1.41998
1.4023
1.38437
1.36625
1.34798
1.32959
1.31113
1.29265
1.27419
1.25578
1.23746
1.21925
1.20117
1.18325
1.16551
1.14796
1.1306
1.11346
1.09651
1.07988
1.06301
1.04857
1.02361
2.72
2.70186
2.68371
2.66554
2.64736
2.62916
2.61096
2.59275
2.57454
2.55632
2.53809
2.51987
2.50165
2.48343
2.46521
2.447
2.42881
2.41062
2.39246
2.37432
2.3562
2.33812
2.32007
2.30205
2.28408
2.26615
2.24827
2.23044
2.21267
2.19495
2.1773
2.15972
2.14223
2.12484
2.10755
2.09039
2.07336
2.05647
2.03972
2.02311
2.00665
1.99031
1.9741
1.95799
1.94197
1.92603
1.91015
1.89431
1.8785
1.8627
1.84691
1.83111
1.81529
1.79945
1.78359
1.76771
1.75183
1.73594
1.72007
1.70424
1.68845
1.67273
1.65706
1.64146
1.62592
1.61042
1.59495
1.57946
1.56393
1.54833
1.5326
1.51672
1.50064
1.48433
1.46777
1.45094
1.43383
1.41646
1.39885
1.38101
1.363
1.34484
1.32657
1.30825
1.28992
1.27159
1.25333
1.23514
1.21706
1.19911
1.1813
1.16366
1.1462
1.12892
1.11185
1.09495
1.07835
1.06149
1.04706
1.02207