/*--------------------------------*- C++ -*----------------------------------*\
  =========                 |
  \\      /  F ield         | OpenFOAM: The Open Source CFD Toolbox
   \\    /   O peration     | Website:  https://openfoam.org
    \\  /    A nd           | Version:  10
     \\/     M anipulation  |
\*---------------------------------------------------------------------------*/
FoamFile
{
    format      ascii;
    class       volScalarField;
    location    "1500";
    object      nut;
}
// * * * * * * * * * * * * * * * * * * * * * * * * * * * * * * * * * * * * * //

dimensions      [0 2 -1 0 0 0 0];

internalField   nonuniform List<scalar> 
6820
(
0.000149811
0.000146298
0.000143078
0.00013985
0.00013661
0.00013345
0.00013046
0.000127698
0.000125193
0.000122953
0.000120972
0.000119237
0.000117729
0.000116431
0.000115321
0.000114383
0.000113599
0.000112952
0.000112427
0.000112012
0.000111694
0.000111463
0.000111307
0.00011122
0.000111192
0.000111217
0.000111286
0.000111409
0.000111455
0.000112222
0.000109688
0.000116718
0.000112309
0.000736671
0.000548073
0.000464564
0.000414423
0.000380726
0.000356906
0.000339483
0.000326336
0.000316122
0.000307975
0.000301324
0.000295784
0.000291086
0.000287044
0.000283522
0.000280418
0.000277658
0.000275184
0.00027295
0.000270922
0.000269069
0.000267369
0.000265801
0.000264349
0.000262998
0.000261735
0.000260545
0.000259423
0.000258319
0.000257265
0.000256348
0.000252688
0.000256979
0.000977661
0.000873818
0.000783691
0.000713304
0.000659056
0.000616637
0.000582727
0.000554999
0.000531856
0.000512199
0.000495258
0.000480476
0.000467443
0.00045585
0.000445459
0.000436082
0.000427573
0.00041981
0.000412698
0.000406154
0.000400111
0.000394511
0.000389304
0.000384446
0.000379899
0.000375624
0.000371584
0.000367743
0.000364034
0.00036039
0.000356752
0.000352241
0.000346638
0.0010135
0.000988678
0.000949902
0.000906239
0.000863757
0.000825034
0.000790661
0.000760381
0.000733675
0.000710002
0.000688882
0.000669912
0.000652764
0.000637169
0.000622908
0.000609803
0.000597704
0.00058649
0.000576058
0.000566322
0.000557206
0.000548647
0.000540591
0.000532986
0.000525789
0.000518958
0.000512449
0.000506223
0.000500224
0.000494387
0.000488611
0.000482866
0.00047612
0.00101667
0.00101251
0.00100235
0.000986316
0.000966162
0.000943897
0.000921089
0.000898732
0.000877358
0.000857204
0.000838335
0.000820725
0.000804303
0.000788979
0.00077466
0.000761255
0.000748679
0.000736857
0.000725718
0.000715201
0.000705249
0.000695813
0.000686846
0.000678309
0.000670163
0.00066237
0.000654894
0.0006477
0.000640743
0.00063398
0.000627353
0.000620863
0.000614419
0.00101674
0.0010159
0.00101373
0.00100941
0.00100264
0.000993628
0.000982848
0.000970871
0.000958207
0.000945256
0.000932307
0.000919556
0.000907128
0.000895098
0.000883506
0.000872368
0.000861684
0.000851446
0.000841638
0.000832242
0.000823236
0.000814598
0.000806307
0.000798339
0.000790673
0.000783285
0.000776152
0.000769249
0.00076255
0.000756031
0.000749669
0.000743466
0.000737454
0.00101671
0.00101621
0.00101554
0.00101439
0.00101245
0.00100952
0.00100553
0.00100053
0.00099467
0.000988115
0.000981044
0.000973617
0.000965971
0.000958215
0.000950435
0.000942698
0.000935052
0.000927532
0.000920162
0.00091296
0.000905934
0.00089909
0.000892429
0.000885949
0.000879646
0.000873513
0.000867541
0.000861722
0.000856044
0.000850499
0.000845084
0.000839805
0.000834681
0.0010167
0.00101622
0.00101574
0.0010152
0.00101449
0.0010135
0.00101214
0.00101031
0.00100801
0.00100523
0.001002
0.000998394
0.000994454
0.000990247
0.00098583
0.000981257
0.000976574
0.000971821
0.00096703
0.000962229
0.00095744
0.000952682
0.000947966
0.000943305
0.000938705
0.000934172
0.000929708
0.000925315
0.000920994
0.000916746
0.000912577
0.000908493
0.000904505
0.0010167
0.00101621
0.00101574
0.00101528
0.00101481
0.00101429
0.00101367
0.00101292
0.001012
0.00101086
0.00100951
0.00100793
0.00100612
0.00100411
0.00100191
0.000999539
0.000997023
0.000994383
0.000991641
0.000988816
0.000985928
0.00098299
0.000980019
0.000977025
0.00097402
0.000971011
0.000968007
0.000965014
0.000962038
0.000959084
0.000956159
0.000953272
0.000950429
0.0010167
0.00101621
0.00101574
0.00101528
0.00101484
0.0010144
0.00101395
0.00101348
0.00101297
0.00101239
0.00101174
0.001011
0.00101017
0.00100922
0.00100817
0.00100701
0.00100576
0.00100441
0.00100297
0.00100145
0.000999864
0.000998214
0.000996511
0.000994763
0.000992976
0.000991158
0.000989315
0.000987454
0.00098558
0.000983699
0.000981817
0.00097994
0.000978075
0.0010167
0.00101621
0.00101574
0.00101528
0.00101484
0.00101441
0.00101398
0.00101357
0.00101315
0.00101273
0.00101229
0.00101183
0.00101134
0.00101082
0.00101025
0.00100964
0.00100898
0.00100827
0.00100752
0.00100671
0.00100586
0.00100497
0.00100404
0.00100307
0.00100206
0.00100103
0.000999967
0.000998882
0.000997778
0.000996657
0.000995525
0.000994385
0.000993242
0.0010167
0.00101621
0.00101574
0.00101528
0.00101483
0.0010144
0.00101398
0.00101357
0.00101317
0.00101278
0.00101239
0.00101201
0.00101162
0.00101123
0.00101083
0.00101042
0.00101
0.00100956
0.0010091
0.00100862
0.00100813
0.00100761
0.00100707
0.00100651
0.00100593
0.00100534
0.00100473
0.0010041
0.00100345
0.0010028
0.00100214
0.00100146
0.00100078
0.0010167
0.00101621
0.00101574
0.00101528
0.00101483
0.0010144
0.00101398
0.00101357
0.00101317
0.00101278
0.0010124
0.00101203
0.00101167
0.00101132
0.00101096
0.00101061
0.00101027
0.00100992
0.00100957
0.00100922
0.00100886
0.0010085
0.00100814
0.00100777
0.00100739
0.001007
0.00100661
0.00100622
0.00100581
0.00100541
0.001005
0.00100458
0.00100416
0.0010167
0.00101621
0.00101574
0.00101528
0.00101483
0.0010144
0.00101398
0.00101357
0.00101317
0.00101278
0.0010124
0.00101203
0.00101168
0.00101133
0.00101098
0.00101065
0.00101032
0.00101
0.00100969
0.00100938
0.00100907
0.00100876
0.00100846
0.00100816
0.00100786
0.00100757
0.00100727
0.00100698
0.00100668
0.00100639
0.0010061
0.00100581
0.00100552
0.0010167
0.00101621
0.00101574
0.00101528
0.00101483
0.0010144
0.00101398
0.00101356
0.00101317
0.00101278
0.0010124
0.00101203
0.00101167
0.00101132
0.00101098
0.00101065
0.00101033
0.00101001
0.00100971
0.00100941
0.00100911
0.00100883
0.00100854
0.00100827
0.001008
0.00100773
0.00100747
0.00100721
0.00100696
0.00100671
0.00100647
0.00100623
0.00100599
0.0010167
0.00101621
0.00101574
0.00101528
0.00101483
0.0010144
0.00101397
0.00101356
0.00101316
0.00101277
0.0010124
0.00101203
0.00101167
0.00101132
0.00101098
0.00101065
0.00101033
0.00101001
0.00100971
0.00100941
0.00100912
0.00100883
0.00100856
0.00100829
0.00100803
0.00100777
0.00100752
0.00100727
0.00100704
0.0010068
0.00100658
0.00100635
0.00100614
0.0010167
0.00101621
0.00101574
0.00101528
0.00101483
0.0010144
0.00101397
0.00101356
0.00101316
0.00101277
0.00101239
0.00101203
0.00101167
0.00101132
0.00101098
0.00101065
0.00101032
0.00101001
0.0010097
0.00100941
0.00100912
0.00100883
0.00100856
0.00100829
0.00100803
0.00100777
0.00100753
0.00100728
0.00100705
0.00100682
0.0010066
0.00100638
0.00100617
0.0010167
0.00101621
0.00101574
0.00101528
0.00101483
0.00101439
0.00101397
0.00101356
0.00101316
0.00101277
0.00101239
0.00101202
0.00101167
0.00101132
0.00101098
0.00101064
0.00101032
0.00101001
0.0010097
0.0010094
0.00100911
0.00100883
0.00100855
0.00100829
0.00100802
0.00100777
0.00100752
0.00100728
0.00100705
0.00100682
0.0010066
0.00100638
0.00100617
0.0010167
0.00101621
0.00101574
0.00101528
0.00101483
0.00101439
0.00101397
0.00101356
0.00101316
0.00101277
0.00101239
0.00101202
0.00101166
0.00101131
0.00101097
0.00101064
0.00101032
0.00101
0.0010097
0.0010094
0.00100911
0.00100883
0.00100855
0.00100828
0.00100802
0.00100777
0.00100752
0.00100728
0.00100704
0.00100682
0.00100659
0.00100638
0.00100617
0.0010167
0.00101621
0.00101574
0.00101528
0.00101483
0.00101439
0.00101397
0.00101356
0.00101316
0.00101277
0.00101239
0.00101202
0.00101166
0.00101131
0.00101097
0.00101064
0.00101032
0.00101
0.0010097
0.0010094
0.00100911
0.00100882
0.00100855
0.00100828
0.00100802
0.00100776
0.00100752
0.00100727
0.00100704
0.00100681
0.00100659
0.00100637
0.00100616
0.0010167
0.00101621
0.00101574
0.00101528
0.00101483
0.00101439
0.00101397
0.00101356
0.00101316
0.00101277
0.00101239
0.00101202
0.00101166
0.00101131
0.00101097
0.00101064
0.00101032
0.00101
0.00100969
0.0010094
0.0010091
0.00100882
0.00100855
0.00100828
0.00100801
0.00100776
0.00100751
0.00100727
0.00100703
0.0010068
0.00100658
0.00100636
0.00100615
0.0010167
0.00101621
0.00101574
0.00101528
0.00101483
0.00101439
0.00101397
0.00101356
0.00101316
0.00101277
0.00101239
0.00101202
0.00101166
0.00101131
0.00101097
0.00101064
0.00101031
0.00101
0.00100969
0.00100939
0.0010091
0.00100882
0.00100854
0.00100827
0.00100801
0.00100776
0.00100751
0.00100727
0.00100703
0.0010068
0.00100658
0.00100636
0.00100614
0.0010167
0.00101621
0.00101574
0.00101528
0.00101483
0.00101439
0.00101397
0.00101356
0.00101316
0.00101277
0.00101239
0.00101202
0.00101166
0.00101131
0.00101097
0.00101064
0.00101031
0.00101
0.00100969
0.00100939
0.0010091
0.00100882
0.00100854
0.00100827
0.00100801
0.00100775
0.0010075
0.00100726
0.00100703
0.00100679
0.00100657
0.00100635
0.00100614
0.0010167
0.00101621
0.00101574
0.00101528
0.00101483
0.00101439
0.00101397
0.00101356
0.00101316
0.00101277
0.00101239
0.00101202
0.00101166
0.00101131
0.00101097
0.00101063
0.00101031
0.00101
0.00100969
0.00100939
0.0010091
0.00100881
0.00100854
0.00100827
0.00100801
0.00100775
0.0010075
0.00100726
0.00100702
0.00100679
0.00100657
0.00100635
0.00100613
0.0010167
0.00101621
0.00101574
0.00101528
0.00101483
0.00101439
0.00101397
0.00101356
0.00101316
0.00101277
0.00101239
0.00101202
0.00101166
0.00101131
0.00101097
0.00101063
0.00101031
0.00100999
0.00100969
0.00100939
0.0010091
0.00100881
0.00100854
0.00100827
0.001008
0.00100775
0.0010075
0.00100725
0.00100702
0.00100679
0.00100656
0.00100634
0.00100613
0.0010167
0.00101621
0.00101574
0.00101528
0.00101483
0.00101439
0.00101397
0.00101356
0.00101316
0.00101277
0.00101239
0.00101202
0.00101166
0.00101131
0.00101097
0.00101063
0.00101031
0.00100999
0.00100969
0.00100939
0.0010091
0.00100881
0.00100853
0.00100826
0.001008
0.00100774
0.00100749
0.00100725
0.00100701
0.00100678
0.00100656
0.00100634
0.00100612
0.0010167
0.00101621
0.00101574
0.00101528
0.00101483
0.00101439
0.00101397
0.00101356
0.00101316
0.00101277
0.00101239
0.00101202
0.00101166
0.00101131
0.00101096
0.00101063
0.00101031
0.00100999
0.00100969
0.00100939
0.00100909
0.00100881
0.00100853
0.00100826
0.001008
0.00100774
0.00100749
0.00100725
0.00100701
0.00100678
0.00100655
0.00100633
0.00100612
0.0010167
0.00101621
0.00101574
0.00101528
0.00101483
0.00101439
0.00101397
0.00101356
0.00101316
0.00101277
0.00101239
0.00101202
0.00101166
0.00101131
0.00101096
0.00101063
0.00101031
0.00100999
0.00100969
0.00100939
0.00100909
0.00100881
0.00100853
0.00100826
0.001008
0.00100774
0.00100749
0.00100725
0.00100701
0.00100677
0.00100655
0.00100633
0.00100611
0.0010167
0.00101621
0.00101574
0.00101528
0.00101483
0.00101439
0.00101397
0.00101356
0.00101316
0.00101277
0.00101239
0.00101202
0.00101166
0.00101131
0.00101096
0.00101063
0.00101031
0.00100999
0.00100968
0.00100938
0.00100909
0.00100881
0.00100853
0.00100826
0.001008
0.00100774
0.00100749
0.00100724
0.001007
0.00100677
0.00100654
0.00100632
0.00100611
0.0010167
0.00101621
0.00101574
0.00101528
0.00101483
0.00101439
0.00101397
0.00101356
0.00101316
0.00101277
0.00101239
0.00101202
0.00101166
0.00101131
0.00101096
0.00101063
0.00101031
0.00100999
0.00100968
0.00100938
0.00100909
0.00100881
0.00100853
0.00100826
0.00100799
0.00100774
0.00100749
0.00100724
0.001007
0.00100677
0.00100654
0.00100632
0.0010061
0.0010167
0.00101621
0.00101574
0.00101528
0.00101483
0.00101439
0.00101397
0.00101356
0.00101316
0.00101277
0.00101239
0.00101202
0.00101166
0.00101131
0.00101096
0.00101063
0.00101031
0.00100999
0.00100968
0.00100938
0.00100909
0.00100881
0.00100853
0.00100826
0.00100799
0.00100773
0.00100748
0.00100724
0.001007
0.00100676
0.00100653
0.00100631
0.00100609
0.0010167
0.00101621
0.00101574
0.00101528
0.00101483
0.00101439
0.00101397
0.00101356
0.00101316
0.00101277
0.00101239
0.00101202
0.00101166
0.00101131
0.00101097
0.00101063
0.00101031
0.00100999
0.00100968
0.00100938
0.00100909
0.0010088
0.00100852
0.00100825
0.00100798
0.00100772
0.00100746
0.00100721
0.00100697
0.00100673
0.00100649
0.00100626
0.00100604
0.0010167
0.00101621
0.00101574
0.00101528
0.00101483
0.00101439
0.00101397
0.00101356
0.00101316
0.00101277
0.00101239
0.00101202
0.00101166
0.0010113
0.00101096
0.00101062
0.00101029
0.00100997
0.00100966
0.00100935
0.00100904
0.00100874
0.00100845
0.00100816
0.00100788
0.0010076
0.00100732
0.00100705
0.00100678
0.00100651
0.00100625
0.00100598
0.00100573
0.0010167
0.00101621
0.00101574
0.00101528
0.00101483
0.00101439
0.00101397
0.00101356
0.00101315
0.00101276
0.00101237
0.00101199
0.00101162
0.00101125
0.00101088
0.00101051
0.00101015
0.00100978
0.00100942
0.00100906
0.00100869
0.00100832
0.00100795
0.00100758
0.00100721
0.00100683
0.00100645
0.00100607
0.00100569
0.0010053
0.00100492
0.00100453
0.00100413
0.0010167
0.00101621
0.00101574
0.00101527
0.00101482
0.00101438
0.00101394
0.0010135
0.00101305
0.00101259
0.00101213
0.00101165
0.00101115
0.00101063
0.00101008
0.00100952
0.00100893
0.00100832
0.00100769
0.00100703
0.00100635
0.00100565
0.00100493
0.00100419
0.00100343
0.00100265
0.00100186
0.00100105
0.00100023
0.000999402
0.00099856
0.000997709
0.000996851
0.0010167
0.00101621
0.00101571
0.00101519
0.00101464
0.00101403
0.00101334
0.00101256
0.00101168
0.00101069
0.00100959
0.00100838
0.00100706
0.00100564
0.00100412
0.00100251
0.00100081
0.000999039
0.000997197
0.000995292
0.000993334
0.000991328
0.000989282
0.000987202
0.000985095
0.000982967
0.000980822
0.000978666
0.000976504
0.000974339
0.000972176
0.000970018
0.000967868
0.00101669
0.00101596
0.00101486
0.00101328
0.00101118
0.00100856
0.00100543
0.00100183
0.000997804
0.000993399
0.000988668
0.000983663
0.000978433
0.000973023
0.000967477
0.000961832
0.000956121
0.000950375
0.000944618
0.000938873
0.000933158
0.00092749
0.000921882
0.000916345
0.000910888
0.000905519
0.000900244
0.000895067
0.000889993
0.000885023
0.00088016
0.000875404
0.000870757
0.00101524
0.00100708
0.000994947
0.000980614
0.000964778
0.00094789
0.00093033
0.000912443
0.000894523
0.000876798
0.000859433
0.000842542
0.000826199
0.000810449
0.000795315
0.000780802
0.000766906
0.000753614
0.000740908
0.000728766
0.000717166
0.000706083
0.000695492
0.000685369
0.000675692
0.000666436
0.00065758
0.000649104
0.000640987
0.00063321
0.000625757
0.00061861
0.000611752
0.000934356
0.000813423
0.000726866
0.000658871
0.000603196
0.000556839
0.000517906
0.00048492
0.000456693
0.000432302
0.000411039
0.000392355
0.000375821
0.000361096
0.000347908
0.000336038
0.000325307
0.000315566
0.000306692
0.000298581
0.000291146
0.000284313
0.000278017
0.000272202
0.000266821
0.000261832
0.000257197
0.000252884
0.000248864
0.000245112
0.000241605
0.000238322
0.000235245
0.000125478
0.000128844
0.000132086
0.000135185
0.000138141
0.00014096
0.000143649
0.000146213
0.000148656
0.000150983
0.000153198
0.000155306
0.00015731
0.000159215
0.000161025
0.000162745
0.000164377
0.000165926
0.000167396
0.00016879
0.000170112
0.000171366
0.000172554
0.00017368
0.000174746
0.000175757
0.000176714
0.000177621
0.000178479
0.000179292
0.000180062
0.00018079
0.00018148
7.9813e-05
0.000113537
0.00020713
0.000284434
0.000327425
0.000351579
0.000372718
0.000396068
0.000421354
0.000447573
0.000474013
0.000500031
0.000525075
0.000548935
0.000571908
0.000594717
0.000618258
0.000643278
0.000670116
0.000698567
0.000727919
0.000757157
0.00078527
0.000811583
0.000836041
0.000859361
0.000883018
0.000908995
0.000939335
0.000975532
0.00101796
0.00106559
0.00111612
0.00116662
0.00121436
0.00125756
0.00129576
0.00132974
0.00136102
0.00139112
0.0014209
0.00145021
0.00147797
0.00150267
0.00152307
0.00153869
0.0015502
0.00155937
0.00156881
0.00158136
0.0015994
0.00162405
0.00165462
0.00168862
0.00172226
0.00175143
0.00177253
0.00178313
0.00178214
0.00176966
0.00174677
0.00171518
0.00167698
0.00163446
0.00158998
0.00154589
0.00150452
0.00146822
0.0014394
0.0014208
0.00141584
0.00142919
0.00146721
0.00153696
0.00164255
0.00178021
0.00193655
0.00209288
0.00223259
0.0023457
0.00242919
0.00248479
0.0025165
0.00252894
0.00252645
0.00251272
0.00249081
0.00246315
0.00243169
0.002398
0.00236329
0.00232848
0.00229423
0.00226093
0.00222872
0.00219748
0.00216684
0.00213721
0.00210549
0.00207618
0.000299488
0.000257042
0.000183707
0.000172526
0.000188439
0.000212065
0.000237323
0.000262905
0.000288965
0.000315656
0.000342607
0.000369095
0.000394484
0.000418574
0.000441723
0.000464741
0.000488608
0.00051413
0.000541629
0.000570779
0.000600675
0.000630096
0.000657875
0.000683255
0.000706153
0.000727282
0.000748109
0.000770625
0.000796923
0.000828638
0.000866366
0.00090931
0.000955351
0.0010016
0.00104522
0.00108424
0.001118
0.00114717
0.00117331
0.00119817
0.001223
0.00124805
0.00127251
0.00129495
0.00131391
0.00132854
0.00133904
0.00134668
0.0013537
0.0013628
0.0013765
0.00139639
0.00142248
0.00145294
0.00148447
0.00151311
0.00153516
0.00154788
0.00154985
0.00154089
0.00152184
0.00149428
0.00146022
0.00142192
0.00138172
0.00134196
0.00130495
0.00127296
0.00124827
0.00123336
0.00123126
0.00124617
0.00128404
0.00135202
0.00145508
0.00159071
0.00174647
0.00190397
0.00204627
0.00216292
0.00225044
0.00231019
0.00234598
0.00236228
0.00236335
0.00235288
0.00233389
0.00230887
0.00227979
0.00224825
0.00221552
0.00218258
0.00215013
0.00211862
0.00208823
0.00205891
0.00203033
0.00200299
0.00197367
0.00194788
0.000357472
0.000357554
0.000329508
0.000276826
0.000234999
0.000212518
0.000203161
0.000201316
0.000204273
0.000211199
0.000221901
0.000236026
0.000252833
0.000271462
0.000291355
0.000312488
0.000335271
0.000360175
0.000387332
0.000416317
0.000446177
0.000475668
0.00050358
0.000529059
0.000551854
0.000572465
0.000592133
0.000612659
0.000636064
0.000664079
0.000697594
0.000736225
0.000778239
0.000820958
0.000861516
0.00089768
0.000928422
0.00095407
0.000976018
0.000996138
0.00101606
0.0010366
0.00105749
0.00107761
0.00109548
0.00110993
0.00112059
0.00112811
0.00113409
0.00114086
0.00115086
0.00116605
0.00118719
0.00121339
0.00124214
0.00126995
0.00129316
0.0013088
0.00131503
0.00131126
0.00129799
0.00127655
0.00124878
0.00121684
0.001183
0.00114956
0.00111873
0.00109264
0.00107333
0.00106289
0.00106375
0.00107924
0.00111449
0.00117635
0.00127087
0.00139791
0.00154747
0.00170246
0.00184581
0.00196613
0.00205881
0.00212437
0.002166
0.00218785
0.00219402
0.00218812
0.00217321
0.00215176
0.00212583
0.00209705
0.00206676
0.002036
0.00200556
0.00197594
0.00194743
0.00192006
0.00189354
0.00186848
0.00184163
0.00181868
0.000470054
0.000467858
0.000465563
0.000453206
0.000427729
0.000394749
0.000361123
0.000330318
0.000304064
0.000282594
0.000265454
0.000252428
0.000243471
0.000238458
0.00023713
0.000239245
0.000244765
0.000253891
0.000266905
0.000283843
0.00030419
0.000326798
0.000350144
0.000372791
0.000393832
0.000413143
0.000431401
0.000449928
0.000470403
0.000494465
0.000523223
0.000556786
0.000594013
0.000632685
0.000670101
0.000703861
0.000732523
0.000755907
0.000774994
0.0007915
0.000807258
0.0008236
0.000840933
0.00085869
0.00087566
0.000890546
0.000902509
0.000911524
0.000918473
0.000925004
0.000933188
0.000945018
0.000961793
0.000983569
0.00100891
0.00103513
0.001059
0.00107752
0.00108855
0.00109109
0.00108521
0.00107189
0.00105273
0.00102969
0.0010049
0.000980494
0.000958505
0.000940784
0.00092899
0.000924663
0.000929436
0.000945553
0.000976772
0.00102904
0.00110908
0.00121971
0.00135497
0.00150066
0.00164044
0.00176193
0.00185893
0.00193046
0.0019787
0.00200713
0.0020195
0.00201927
0.00200941
0.00199242
0.00197038
0.00194499
0.00191764
0.00188945
0.00186129
0.00183375
0.00180721
0.00178182
0.00175735
0.00173452
0.00171021
0.00168956
0.000606699
0.000599932
0.000594527
0.000588646
0.000579872
0.000566627
0.000548664
0.000526579
0.000501955
0.000476568
0.000451329
0.000426626
0.000402887
0.000380683
0.000360553
0.000342825
0.000327597
0.000314846
0.0003046
0.000297072
0.000292649
0.00029165
0.000294043
0.000299339
0.000306788
0.000315704
0.00032575
0.000337074
0.000350284
0.000366291
0.000385989
0.000409843
0.000437489
0.000467592
0.000498089
0.000526773
0.000551939
0.000572831
0.000589752
0.000603861
0.000616748
0.000629902
0.000644234
0.000659818
0.000675957
0.000691548
0.000705569
0.000717484
0.000727459
0.000736352
0.000745538
0.000756599
0.000770897
0.000789098
0.00081079
0.000834416
0.00085761
0.000877826
0.000892958
0.00090175
0.000903912
0.000900026
0.000891331
0.000879472
0.000866274
0.00085355
0.000842954
0.000835895
0.000833499
0.000836659
0.000846196
0.000863237
0.000890009
0.000930851
0.000992096
0.00107892
0.00119023
0.00131673
0.00144461
0.00156128
0.00165884
0.00173436
0.00178837
0.0018233
0.00184221
0.0018482
0.00184405
0.00183219
0.00181469
0.00179326
0.00176935
0.00174413
0.00171855
0.00169331
0.00166888
0.00164552
0.00162312
0.00160246
0.0015807
0.00156202
0.000730505
0.000723205
0.000716361
0.00070976
0.00070296
0.000695363
0.000686367
0.000675483
0.000662627
0.000648134
0.00063231
0.000615256
0.000597037
0.000577845
0.000558026
0.000537987
0.000518065
0.000498427
0.00047907
0.000459948
0.000441209
0.000423348
0.000407132
0.000393312
0.000382354
0.000374343
0.000369081
0.000366268
0.000365673
0.00036723
0.000371068
0.000377451
0.000386623
0.000398565
0.000412742
0.000428089
0.000443324
0.000457407
0.00046989
0.000480999
0.000491487
0.00050232
0.00051432
0.000527868
0.000542772
0.000558381
0.000573863
0.000588536
0.000602098
0.000614712
0.000626954
0.000639668
0.000653754
0.000669893
0.000688253
0.000708294
0.000728795
0.000748157
0.000764835
0.000777726
0.000786387
0.000791051
0.00079251
0.000791916
0.000790576
0.00078976
0.000790565
0.000793832
0.00080013
0.000809799
0.000823077
0.000840331
0.000862585
0.000892427
0.000934635
0.00099481
0.0010755
0.00117303
0.0012783
0.00138067
0.00147154
0.00154602
0.00160266
0.00164224
0.00166676
0.00167861
0.00168018
0.00167367
0.00166104
0.00164395
0.00162386
0.00160197
0.00157927
0.00155655
0.00153438
0.00151314
0.00149283
0.00147428
0.00145507
0.00143821
0.000828827
0.000822407
0.000816105
0.000809868
0.000803649
0.000797373
0.0007909
0.000784028
0.000776594
0.000768546
0.000759855
0.000750433
0.000740148
0.000728892
0.000716635
0.000703445
0.000689455
0.000674796
0.000659522
0.000643602
0.000627001
0.000609826
0.000592433
0.000575392
0.000559342
0.000544802
0.000532049
0.000521109
0.000511821
0.000503917
0.000497092
0.000491062
0.000485682
0.000481077
0.000477646
0.000475846
0.000475918
0.000477797
0.000481245
0.000486049
0.000492154
0.000499661
0.000508742
0.000519487
0.000531788
0.000545307
0.000559554
0.000574028
0.000588351
0.000602344
0.000616035
0.000629626
0.000643428
0.000657762
0.000672832
0.000688586
0.000704643
0.000720354
0.000734985
0.000747933
0.000758896
0.000767935
0.000775441
0.000782028
0.000788397
0.000795212
0.000803009
0.000812143
0.000822797
0.000835018
0.000848799
0.000864202
0.000881625
0.000902389
0.000929473
0.000967284
0.00101936
0.00108549
0.00116125
0.00123995
0.00131476
0.00138035
0.00143365
0.0014737
0.00150101
0.00151693
0.00152315
0.00152141
0.0015134
0.00150062
0.00148444
0.00146603
0.0014464
0.00142637
0.00140659
0.00138754
0.00136934
0.00135284
0.00133612
0.00132108
0.000899941
0.000894832
0.000889737
0.000884625
0.000879487
0.000874332
0.000869165
0.000863958
0.000858671
0.000853271
0.000847719
0.000841953
0.000835873
0.000829363
0.000822316
0.000814662
0.000806382
0.000797499
0.000788044
0.000778021
0.000767416
0.000756239
0.000744581
0.00073265
0.00072074
0.000709161
0.000698164
0.000687887
0.000678354
0.000669495
0.000661158
0.000653123
0.000645143
0.000637059
0.000628958
0.000621234
0.000614489
0.000609317
0.00060613
0.000605107
0.000606249
0.000609458
0.000614598
0.000621508
0.000629969
0.000639695
0.00065034
0.000661552
0.000673026
0.000684536
0.00069595
0.000707216
0.00071836
0.000729463
0.000740619
0.000751879
0.000763184
0.000774354
0.000785137
0.000795303
0.000804734
0.000813464
0.000821671
0.000829625
0.000837629
0.000845951
0.000854786
0.000864238
0.000874325
0.000885012
0.000896249
0.00090803
0.000920508
0.000934304
0.000951069
0.000973774
0.00100564
0.00104773
0.00109771
0.00115141
0.00120471
0.00125412
0.00129689
0.00133128
0.00135661
0.00137305
0.00138138
0.00138266
0.00137809
0.00136887
0.00135616
0.00134101
0.00132435
0.00130699
0.00128961
0.00127276
0.00125664
0.00124211
0.00122775
0.00121457
0.000947152
0.000943427
0.000939666
0.000935856
0.000931992
0.000928083
0.000924143
0.000920186
0.000916216
0.000912234
0.000908235
0.000904198
0.000900086
0.000895842
0.000891402
0.000886701
0.000881695
0.000876368
0.000870722
0.000864763
0.000858497
0.000851927
0.000845076
0.000837999
0.00083079
0.00082356
0.000816417
0.00080944
0.000802674
0.000796136
0.000789814
0.000783665
0.000777612
0.000771573
0.000765527
0.000759584
0.000754011
0.000749171
0.000745423
0.000743037
0.00074216
0.000742824
0.000744992
0.000748579
0.000753458
0.000759454
0.000766341
0.000773862
0.000781761
0.000789816
0.000797855
0.000805762
0.000813485
0.000821026
0.00082844
0.0008358
0.000843157
0.000850507
0.000857786
0.000864904
0.000871793
0.000878444
0.000884917
0.00089132
0.000897778
0.000904405
0.000911274
0.000918417
0.000925824
0.000933462
0.000941296
0.000949312
0.000957569
0.000966338
0.00097644
0.000989664
0.00100859
0.00103512
0.00106854
0.00110539
0.00114178
0.00117517
0.00120426
0.00122826
0.00124663
0.00125914
0.00126587
0.00126724
0.0012639
0.00125661
0.00124619
0.00123347
0.00121923
0.00120419
0.00118897
0.00117413
0.00115994
0.0011472
0.00113495
0.0011236
0.000975904
0.000973401
0.00097084
0.000968219
0.000965535
0.000962789
0.000959991
0.00095715
0.000954277
0.000951381
0.000948467
0.000945537
0.000942582
0.000939586
0.000936524
0.000933368
0.000930093
0.000926682
0.000923134
0.000919456
0.000915655
0.000911739
0.000907717
0.000903601
0.00089941
0.000895169
0.000890906
0.000886644
0.000882405
0.00087821
0.000874087
0.000870062
0.000866154
0.000862376
0.000858739
0.000855286
0.000852104
0.000849323
0.000847088
0.00084553
0.000844737
0.000844758
0.000845615
0.000847313
0.000849839
0.000853154
0.000857176
0.000861779
0.0008668
0.000872065
0.00087741
0.000882697
0.00088783
0.000892769
0.000897522
0.000902145
0.000906713
0.000911293
0.000915916
0.000920576
0.000925244
0.000929892
0.000934513
0.000939127
0.000943769
0.000948479
0.000953288
0.00095821
0.000963238
0.000968353
0.000973534
0.000978768
0.000984069
0.000989539
0.000995537
0.00100299
0.00101358
0.00102934
0.00105126
0.00107789
0.00110566
0.00113086
0.00115141
0.00116687
0.00117755
0.00118387
0.00118619
0.00118482
0.00118016
0.00117263
0.00116276
0.0011511
0.00113823
0.00112471
0.00111106
0.00109778
0.00108514
0.00107384
0.0010633
0.00105348
0.000991899
0.000990329
0.000988703
0.000987019
0.000985275
0.000983472
0.00098161
0.000979695
0.000977732
0.000975729
0.000973691
0.000971624
0.000969528
0.000967404
0.000965246
0.000963046
0.000960796
0.000958494
0.000956139
0.00095374
0.000951304
0.000948839
0.000946353
0.000943845
0.000941318
0.000938768
0.000936196
0.000933603
0.000930993
0.000928382
0.000925798
0.000923279
0.000920869
0.000918611
0.000916542
0.000914696
0.000913106
0.000911806
0.000910828
0.000910196
0.000909925
0.000910021
0.000910496
0.000911367
0.000912663
0.000914409
0.000916609
0.000919238
0.000922232
0.000925494
0.00092891
0.000932365
0.000935756
0.000939014
0.000942109
0.000945052
0.000947892
0.000950694
0.000953522
0.00095642
0.000959407
0.000962483
0.000965637
0.000968861
0.000972151
0.000975505
0.000978924
0.000982401
0.000985923
0.000989472
0.000993025
0.00099656
0.00100007
0.00100357
0.00100721
0.00101136
0.00101693
0.00102535
0.00103811
0.00105574
0.00107687
0.00109847
0.00111725
0.00113109
0.00113946
0.00114281
0.001142
0.00113784
0.001131
0.00112202
0.00111138
0.00109955
0.00108694
0.00107401
0.00106114
0.00104874
0.00103707
0.00102669
0.00101728
0.00100836
0.000999982
0.000999036
0.000998046
0.00099701
0.000995927
0.000994796
0.000993616
0.000992385
0.000991108
0.000989787
0.000988425
0.000987028
0.000985597
0.000984135
0.000982644
0.000981123
0.000979574
0.000977999
0.000976403
0.000974791
0.000973173
0.000971554
0.000969938
0.000968326
0.000966712
0.000965092
0.000963458
0.000961807
0.00096014
0.000958469
0.000956817
0.000955218
0.000953716
0.000952355
0.000951175
0.000950205
0.000949463
0.000948953
0.000948666
0.000948583
0.00094868
0.000948936
0.000949339
0.000949895
0.000950626
0.000951569
0.000952756
0.000954207
0.000955917
0.000957852
0.000959953
0.000962146
0.000964353
0.000966507
0.000968561
0.000970497
0.000972328
0.000974093
0.000975843
0.000977632
0.000979502
0.00098148
0.000983579
0.000985798
0.00098813
0.000990562
0.000993078
0.00099566
0.000998282
0.00100092
0.00100354
0.0010061
0.0010086
0.001011
0.00101333
0.00101573
0.0010186
0.00102269
0.0010291
0.00103891
0.00105245
0.00106876
0.00108566
0.00110055
0.0011114
0.00111729
0.00111832
0.00111515
0.00110867
0.00109971
0.001089
0.00107715
0.00106467
0.00105199
0.00103949
0.00102753
0.00101634
0.00100637
0.000997536
0.00098877
0.00100367
0.00100309
0.00100248
0.00100184
0.00100117
0.00100046
0.000999718
0.00099894
0.000998123
0.00099727
0.000996382
0.000995461
0.000994509
0.000993529
0.000992521
0.000991489
0.000990437
0.000989367
0.000988286
0.000987199
0.000986112
0.000985029
0.000983953
0.000982881
0.00098181
0.000980733
0.000979644
0.00097854
0.000977423
0.000976303
0.000975201
0.000974144
0.00097317
0.000972317
0.000971619
0.0009711
0.000970773
0.000970633
0.000970661
0.000970828
0.000971099
0.000971441
0.000971833
0.000972267
0.000972753
0.000973317
0.000973991
0.000974805
0.000975776
0.000976904
0.000978167
0.000979528
0.00098094
0.000982352
0.000983724
0.00098503
0.000986262
0.000987436
0.000988583
0.000989741
0.000990953
0.000992253