/*--------------------------------*- C++ -*----------------------------------*\
  =========                 |
  \\      /  F ield         | OpenFOAM: The Open Source CFD Toolbox
   \\    /   O peration     | Website:  https://openfoam.org
    \\  /    A nd           | Version:  10
     \\/     M anipulation  |
\*---------------------------------------------------------------------------*/
FoamFile
{
    format      ascii;
    class       surfaceScalarField;
    location    "1500";
    object      phi;
}
// * * * * * * * * * * * * * * * * * * * * * * * * * * * * * * * * * * * * * //

dimensions      [0 3 -1 0 0 0 0];

internalField   nonuniform List<scalar> 
13452
(
6.02916e-05
-2.31241e-08
5.99925e-05
2.99132e-07
5.95876e-05
4.0481e-07
5.9113e-05
4.74689e-07
5.86081e-05
5.04868e-07
5.81264e-05
4.81687e-07
5.76899e-05
4.36495e-07
5.72989e-05
3.91004e-07
5.69479e-05
3.50992e-07
5.66311e-05
3.16796e-07
5.63432e-05
2.87906e-07
5.60796e-05
2.63604e-07
5.58365e-05
2.43073e-07
5.56109e-05
2.25576e-07
5.54004e-05
2.10539e-07
5.52029e-05
1.97539e-07
5.50166e-05
1.8627e-07
5.48401e-05
1.76522e-07
5.46719e-05
1.68169e-07
5.45107e-05
1.61161e-07
5.43552e-05
1.55533e-07
5.42038e-05
1.51425e-07
5.40547e-05
1.49124e-07
5.39055e-05
1.49149e-07
5.37531e-05
1.5242e-07
5.35925e-05
1.60594e-07
5.34157e-05
1.76831e-07
5.32085e-05
2.07114e-07
5.29404e-05
2.68167e-07
5.25614e-05
3.78961e-07
5.18594e-05
7.02014e-07
5.03493e-05
1.51006e-06
4.44234e-06
4.5907e-05
6.21468e-05
-1.79574e-07
6.21719e-05
2.74051e-07
6.21929e-05
3.83726e-07
6.22087e-05
4.58984e-07
6.22081e-05
5.05426e-07
6.21774e-05
5.12418e-07
6.2115e-05
4.98838e-07
6.20272e-05
4.78808e-07
6.19216e-05
4.5664e-07
6.18046e-05
4.33768e-07
6.16812e-05
4.1134e-07
6.15546e-05
3.90113e-07
6.14273e-05
3.70397e-07
6.13006e-05
3.52257e-07
6.11755e-05
3.35679e-07
6.10524e-05
3.20627e-07
6.09316e-05
3.07067e-07
6.08131e-05
2.94987e-07
6.06969e-05
2.84413e-07
6.05826e-05
2.75432e-07
6.04699e-05
2.68216e-07
6.03583e-05
2.63067e-07
6.02469e-05
2.60482e-07
6.01348e-05
2.61282e-07
6.00204e-05
2.66856e-07
5.99014e-05
2.79531e-07
5.97744e-05
3.03899e-07
5.96344e-05
3.47106e-07
5.94725e-05
4.30036e-07
5.92726e-05
5.78895e-07
5.90624e-05
9.12239e-07
5.89963e-05
1.5761e-06
2.85274e-06
6.05859e-05
6.36684e-05
-8.65275e-08
6.37265e-05
2.15873e-07
6.37861e-05
3.24164e-07
6.38491e-05
3.95949e-07
6.39035e-05
4.5102e-07
6.39399e-05
4.76101e-07
6.39579e-05
4.80752e-07
6.39605e-05
4.76217e-07
6.39502e-05
4.66924e-07
6.39294e-05
4.54593e-07
6.39001e-05
4.40619e-07
6.38642e-05
4.26074e-07
6.3823e-05
4.11596e-07
6.37777e-05
3.97546e-07
6.37292e-05
3.84165e-07
6.36782e-05
3.71633e-07
6.36252e-05
3.60104e-07
6.35704e-05
3.49724e-07
6.35142e-05
3.40668e-07
6.34564e-05
3.33164e-07
6.33971e-05
3.27534e-07
6.33359e-05
3.24246e-07
6.32724e-05
3.24009e-07
6.32058e-05
3.27911e-07
6.31349e-05
3.37707e-07
6.30582e-05
3.56208e-07
6.29736e-05
3.88522e-07
6.28783e-05
4.42425e-07
6.27722e-05
5.36137e-07
6.26587e-05
6.92361e-07
6.25998e-05
9.71165e-07
6.27717e-05
1.40422e-06
1.90219e-06
6.37222e-05
6.55166e-05
-2.00101e-08
6.5557e-05
1.75462e-07
6.55935e-05
2.8763e-07
6.56341e-05
3.55299e-07
6.56763e-05
4.08912e-07
6.57129e-05
4.39406e-07
6.57426e-05
4.51137e-07
6.57654e-05
4.53426e-07
6.57816e-05
4.50686e-07
6.57917e-05
4.44519e-07
6.57961e-05
4.3613e-07
6.57957e-05
4.26531e-07
6.57909e-05
4.16387e-07
6.57823e-05
4.06125e-07
6.57704e-05
3.96062e-07
6.57556e-05
3.86462e-07
6.57381e-05
3.77562e-07
6.57183e-05
3.69597e-07
6.56961e-05
3.62829e-07
6.56717e-05
3.57579e-07
6.5645e-05
3.54268e-07
6.56157e-05
3.5348e-07
6.55837e-05
3.56052e-07
6.55484e-05
3.63215e-07
6.55092e-05
3.7685e-07
6.54656e-05
3.99837e-07
6.54172e-05
4.36898e-07
6.53648e-05
4.94887e-07
6.53145e-05
5.86431e-07
6.52819e-05
7.24929e-07
6.53226e-05
9.30421e-07
6.55444e-05
1.18242e-06
1.36444e-06
6.60822e-05
6.74272e-05
9.56111e-09
6.7447e-05
1.55704e-07
6.74701e-05
2.64544e-07
6.74979e-05
3.27491e-07
6.75308e-05
3.75932e-07
6.75633e-05
4.06956e-07
6.75926e-05
4.21831e-07
6.76184e-05
4.27635e-07
6.76406e-05
4.28448e-07
6.76593e-05
4.25802e-07
6.76747e-05
4.20782e-07
6.76869e-05
4.14335e-07
6.76962e-05
4.07118e-07
6.77027e-05
3.99569e-07
6.77067e-05
3.92026e-07
6.77084e-05
3.84782e-07
6.77079e-05
3.78109e-07
6.77052e-05
3.72283e-07
6.77004e-05
3.6761e-07
6.76935e-05
3.6446e-07
6.76845e-05
3.6331e-07
6.76732e-05
3.64793e-07
6.76594e-05
3.69788e-07
6.76431e-05
3.79534e-07
6.76241e-05
3.95821e-07
6.76028e-05
4.21223e-07
6.75801e-05
4.59524e-07
6.75593e-05
5.15684e-07
6.7549e-05
5.96749e-07
6.75666e-05
7.07375e-07
6.76502e-05
8.46773e-07
6.78497e-05
9.82893e-07
1.03633e-06
6.81779e-05
6.93696e-05
2.39679e-08
6.93817e-05
1.43665e-07
6.94028e-05
2.43445e-07
6.94267e-05
3.03595e-07
6.94543e-05
3.48235e-07
6.94825e-05
3.78793e-07
6.9509e-05
3.95351e-07
6.95335e-05
4.03155e-07
6.95559e-05
4.0597e-07
6.95764e-05
4.05366e-07
6.95948e-05
4.02376e-07
6.96112e-05
3.97897e-07
6.96258e-05
3.92577e-07
6.96385e-05
3.86857e-07
6.96494e-05
3.81084e-07
6.96586e-05
3.75562e-07
6.96662e-05
3.70577e-07
6.9672e-05
3.66422e-07
6.96762e-05
3.63423e-07
6.96787e-05
3.61969e-07
6.96795e-05
3.62548e-07
6.96785e-05
3.65793e-07
6.96757e-05
3.72547e-07
6.96713e-05
3.83944e-07
6.96656e-05
4.01521e-07
6.96595e-05
4.27313e-07
6.96551e-05
4.63947e-07
6.96565e-05
5.14299e-07
6.96721e-05
5.81073e-07
6.97163e-05
6.63206e-07
6.98112e-05
7.51912e-07
6.99746e-05
8.19464e-07
8.20828e-07
7.01901e-05
7.13585e-05
3.17764e-08
7.13685e-05
1.33696e-07
7.13889e-05
2.23079e-07
7.14112e-05
2.81235e-07
7.1436e-05
3.23424e-07
7.14615e-05
3.53295e-07
7.1486e-05
3.70904e-07
7.1509e-05
3.80099e-07
7.15307e-05
3.84269e-07
7.15511e-05
3.85031e-07
7.157e-05
3.83401e-07
7.15877e-05
3.80241e-07
7.16041e-05
3.762e-07
7.16192e-05
3.71732e-07
7.16331e-05
3.67194e-07
7.16457e-05
3.62898e-07
7.16572e-05
3.59139e-07
7.16674e-05
3.56217e-07
7.16763e-05
3.54461e-07
7.16841e-05
3.54255e-07
7.16905e-05
3.5607e-07
7.16958e-05
3.60494e-07
7.17001e-05
3.68277e-07
7.17037e-05
3.80371e-07
7.17072e-05
3.97963e-07
7.17121e-05
4.22461e-07
7.17207e-05
4.55368e-07
7.17372e-05
4.97794e-07
7.17686e-05
5.49608e-07
7.18249e-05
6.06978e-07
7.1917e-05
6.59807e-07
7.20482e-05
6.88221e-07
6.69147e-07
7.21999e-05
7.34016e-05
3.54017e-08
7.34106e-05
1.24743e-07
7.34293e-05
2.04331e-07
7.34506e-05
2.60019e-07
7.34738e-05
3.0022e-07
7.34978e-05
3.29257e-07
7.35212e-05
3.47553e-07
7.35434e-05
3.57878e-07
7.35645e-05
3.63158e-07
7.35845e-05
3.65008e-07
7.36035e-05
3.64436e-07
7.36214e-05
3.62281e-07
7.36384e-05
3.59193e-07
7.36545e-05
3.55644e-07
7.36697e-05
3.52006e-07
7.3684e-05
3.486e-07
7.36974e-05
3.45726e-07
7.371e-05
3.43685e-07
7.37216e-05
3.42797e-07
7.37324e-05
3.43429e-07
7.37425e-05
3.46009e-07
7.37519e-05
3.51051e-07
7.3761e-05
3.59173e-07
7.37703e-05
3.711e-07
7.37806e-05
3.87645e-07
7.37935e-05
4.0961e-07
7.38113e-05
4.37569e-07
7.38377e-05
4.71373e-07
7.38779e-05
5.09366e-07
7.3938e-05
5.46951e-07
7.40223e-05
5.75457e-07
7.41286e-05
5.81933e-07
5.55572e-07
7.42422e-05
7.55015e-05
3.63596e-08
7.55097e-05
1.1651e-07
7.55267e-05
1.87336e-07
7.55469e-05
2.39895e-07
7.55689e-05
2.78196e-07
7.55919e-05
3.06266e-07
7.56145e-05
3.24902e-07
7.56363e-05
3.36111e-07
7.56571e-05
3.42331e-07
7.5677e-05
3.45113e-07
7.5696e-05
3.45448e-07
7.57141e-05
3.44143e-07
7.57315e-05
3.41845e-07
7.57481e-05
3.39038e-07
7.5764e-05
3.36104e-07
7.57792e-05
3.33374e-07
7.57938e-05
3.31148e-07
7.58077e-05
3.29724e-07
7.58211e-05
3.29405e-07
7.5834e-05
3.30525e-07
7.58466e-05
3.33457e-07
7.5859e-05
3.38621e-07
7.58717e-05
3.46484e-07
7.58853e-05
3.57539e-07
7.59007e-05
3.72241e-07
7.59194e-05
3.90889e-07
7.59436e-05
4.1338e-07
7.59761e-05
4.38814e-07
7.60206e-05
4.64945e-07
7.608e-05
4.87492e-07
7.61556e-05
4.99911e-07
7.62433e-05
4.94247e-07
4.66072e-07
7.63328e-05
7.76602e-05
3.57719e-08
7.76679e-05
1.08749e-07
7.76834e-05
1.71879e-07
7.77024e-05
2.20891e-07
7.77233e-05
2.57244e-07
7.77454e-05
2.84217e-07
7.77674e-05
3.02852e-07
7.77889e-05
3.14663e-07
7.78096e-05
3.21634e-07
7.78295e-05
3.25202e-07
7.78486e-05
3.26322e-07
7.7867e-05
3.25762e-07
7.78847e-05
3.24151e-07
7.79017e-05
3.21976e-07
7.79182e-05
3.19624e-07
7.79342e-05
3.17426e-07
7.79496e-05
3.15681e-07
7.79647e-05
3.14673e-07
7.79794e-05
3.14684e-07
7.79939e-05
3.16005e-07
7.80084e-05
3.18945e-07
7.80232e-05
3.2382e-07
7.80388e-05
3.30949e-07
7.80557e-05
3.40605e-07
7.8075e-05
3.52949e-07
7.8098e-05
3.67898e-07
7.81264e-05
3.84929e-07
7.81625e-05
4.02796e-07
7.82082e-05
4.1923e-07
7.8265e-05
4.30709e-07
7.83322e-05
4.32657e-07
7.84061e-05
4.204e-07
3.92641e-07
7.84795e-05
7.98797e-05
3.43392e-08
7.98872e-05
1.01323e-07
7.99013e-05
1.5773e-07
7.99192e-05
2.03011e-07
7.99391e-05
2.37303e-07
7.99603e-05
2.63053e-07
7.99818e-05
2.81392e-07
8.00029e-05
2.93522e-07
8.00235e-05
3.01037e-07
8.00435e-05
3.05229e-07
8.00628e-05
3.07003e-07
8.00815e-05
3.07081e-07
8.00996e-05
3.06063e-07
8.01171e-05
3.04426e-07
8.01342e-05
3.02556e-07
8.01508e-05
3.00777e-07
8.01671e-05
2.99378e-07
8.01832e-05
2.98626e-07
8.01991e-05
2.98771e-07
8.0215e-05
3.00059e-07
8.02312e-05
3.02727e-07
8.02481e-05
3.06994e-07
8.0266e-05
3.13039e-07
8.02856e-05
3.20953e-07
8.03079e-05
3.30671e-07
8.03339e-05
3.41863e-07
8.03651e-05
3.53792e-07
8.04027e-05
3.65148e-07
8.0448e-05
3.73926e-07
8.05013e-05
3.77445e-07
8.05613e-05
3.72668e-07
8.06247e-05
3.56957e-07
3.30456e-07
8.06869e-05
8.21623e-05
3.24713e-08
8.21694e-05
9.41864e-08
8.21825e-05
1.44681e-07
8.21993e-05
1.862e-07
8.22183e-05
2.18308e-07
8.22386e-05
2.42718e-07
8.22595e-05
2.60518e-07
8.22803e-05
2.72704e-07
8.23008e-05
2.80556e-07
8.23208e-05
2.85204e-07
8.23403e-05
2.87489e-07
8.23593e-05
2.88086e-07
8.23778e-05
2.87557e-07
8.23959e-05
2.86363e-07
8.24136e-05
2.84876e-07
8.24309e-05
2.8341e-07
8.24481e-05
2.82236e-07
8.24651e-05
2.81597e-07
8.24822e-05
2.8171e-07
8.24995e-05
2.82771e-07
8.25172e-05
2.84949e-07
8.25359e-05
2.88373e-07
8.25558e-05
2.93103e-07
8.25777e-05
2.99092e-07
8.26022e-05
3.06123e-07
8.26303e-05
3.13732e-07
8.2663e-05
3.21118e-07
8.27011e-05
3.27074e-07
8.2745e-05
3.29968e-07
8.27946e-05
3.27865e-07
8.28485e-05
3.18833e-07
8.2904e-05
3.01453e-07
2.76463e-07
8.2958e-05
8.45098e-05
3.04065e-08
8.45167e-05
8.73316e-08
8.45288e-05
1.32553e-07
8.45446e-05
1.70373e-07
8.45628e-05
2.00189e-07
8.45823e-05
2.23147e-07
8.46026e-05
2.40211e-07
8.46231e-05
2.52221e-07
8.46435e-05
2.60208e-07
8.46635e-05
2.65143e-07
8.46832e-05
2.67795e-07
8.47025e-05
2.68784e-07
8.47214e-05
2.68635e-07
8.474e-05
2.67781e-07
8.47583e-05
2.66576e-07
8.47764e-05
2.65316e-07
8.47944e-05
2.64252e-07
8.48124e-05
2.63598e-07
8.48306e-05
2.63536e-07
8.48491e-05
2.64213e-07
8.48683e-05
2.65737e-07
8.48886e-05
2.68158e-07
8.49102e-05
2.71447e-07
8.49338e-05
2.75461e-07
8.49601e-05
2.79895e-07
8.49896e-05
2.84239e-07
8.5023e-05
2.87728e-07
8.50607e-05
2.89333e-07
8.51029e-05
2.87802e-07
8.51489e-05
2.81797e-07
8.51976e-05
2.70134e-07
8.5247e-05
2.52107e-07
2.28641e-07
8.52948e-05
8.69243e-05
2.82791e-08
8.69309e-05
8.07556e-08
8.69422e-05
1.21196e-07
8.69572e-05
1.55427e-07
8.69745e-05
1.82872e-07
8.69934e-05
2.04276e-07
8.70131e-05
2.20437e-07
8.70333e-05
2.32067e-07
8.70535e-05
2.40001e-07
8.70736e-05
2.45061e-07
8.70934e-05
2.47936e-07
8.7113e-05
2.4919e-07
8.71323e-05
2.49306e-07
8.71514e-05
2.48686e-07
8.71704e-05
2.4766e-07
8.71892e-05
2.46503e-07
8.7208e-05
2.4544e-07
8.72269e-05
2.44657e-07
8.72462e-05
2.44299e-07
8.72659e-05
2.44471e-07
8.72864e-05
2.45225e-07
8.7308e-05
2.46553e-07
8.73311e-05
2.48362e-07
8.73561e-05
2.50451e-07
8.73835e-05
2.52482e-07
8.74138e-05
2.53956e-07
8.74473e-05
2.542e-07
8.74843e-05
2.52385e-07
8.75245e-05
2.47593e-07
8.75674e-05
2.38931e-07
8.76118e-05
2.25709e-07
8.76563e-05
2.07622e-07
1.85601e-07
8.76993e-05
8.94077e-05
2.61607e-08
8.9414e-05
7.44512e-08
8.94247e-05
1.10487e-07
8.94388e-05
1.41257e-07
8.94554e-05
1.66282e-07
8.94737e-05
1.86036e-07
8.94929e-05
2.01152e-07
8.95128e-05
2.12225e-07
8.95329e-05
2.19931e-07
8.9553e-05
2.2496e-07
8.9573e-05
2.27918e-07
8.95928e-05
2.29314e-07
8.96126e-05
2.29582e-07
8.96322e-05
2.29091e-07
8.96517e-05
2.28144e-07
8.96712e-05
2.26991e-07
8.96908e-05
2.2583e-07
8.97106e-05
2.24819e-07
8.97309e-05
2.2407e-07
8.97517e-05
2.23647e-07
8.97733e-05
2.23564e-07
8.97961e-05
2.23768e-07
8.98204e-05
2.24126e-07
8.98464e-05
2.24415e-07
8.98746e-05
2.24297e-07
8.99052e-05
2.23323e-07
8.99385e-05
2.20933e-07
8.99744e-05
2.1649e-07
9.00126e-05
2.09343e-07
9.00526e-05
1.98923e-07
9.00935e-05
1.84852e-07
9.01341e-05
1.67046e-07
1.46365e-07
9.01733e-05
9.19619e-05
2.40857e-08
9.1968e-05
6.84027e-08
9.19781e-05
1.00326e-07
9.19916e-05
1.27763e-07
9.20076e-05
1.5034e-07
9.20252e-05
1.6836e-07
9.20441e-05
1.82307e-07
9.20636e-05
1.92666e-07
9.20836e-05
1.99985e-07
9.21037e-05
2.04838e-07
9.21239e-05
2.07746e-07
9.2144e-05
2.09161e-07
9.21641e-05
2.09472e-07
9.21842e-05
2.09009e-07
9.22043e-05
2.08047e-07
9.22245e-05
2.06807e-07
9.22449e-05
2.05464e-07
9.22655e-05
2.04144e-07
9.22867e-05
2.02933e-07
9.23085e-05
2.01863e-07
9.23311e-05
2.00916e-07
9.23549e-05
2.00013e-07
9.238e-05
1.99004e-07
9.24067e-05
1.97662e-07
9.24354e-05
1.95681e-07
9.2466e-05
1.92673e-07
9.24987e-05
1.88196e-07
9.25335e-05
1.81778e-07
9.25698e-05
1.72977e-07
9.26073e-05
1.61445e-07
9.26452e-05
1.46998e-07
9.26825e-05
1.29673e-07
1.1023e-07
9.27187e-05
9.45892e-05
2.20672e-08
9.4595e-05
6.25872e-08
9.46047e-05
9.06278e-08
9.46176e-05
1.14847e-07
9.4633e-05
1.34965e-07
9.46502e-05
1.51181e-07
9.46686e-05
1.63849e-07
9.46879e-05
1.73357e-07
9.47078e-05
1.80146e-07
9.47279e-05
1.84685e-07
9.47482e-05
1.87417e-07
9.47687e-05
1.88736e-07
9.47891e-05
1.88985e-07
9.48097e-05
1.88456e-07
9.48304e-05
1.87392e-07
9.48512e-05
1.85987e-07
9.48722e-05
1.84389e-07
9.48937e-05
1.82702e-07
9.49156e-05
1.80982e-07
9.49383e-05
1.79243e-07
9.49617e-05
1.77443e-07
9.49863e-05
1.7549e-07
9.5012e-05
1.73233e-07
9.50392e-05
1.70461e-07
9.5068e-05
1.66905e-07
9.50984e-05
1.62253e-07
9.51304e-05
1.56164e-07
9.51639e-05
1.48303e-07
9.51985e-05
1.38383e-07
9.52338e-05
1.26205e-07
9.5269e-05
1.11705e-07
9.53037e-05
9.49767e-08
7.66816e-08
9.53373e-05
9.72915e-05
2.01063e-08
9.72971e-05
5.69754e-08
9.73064e-05
8.13174e-08
9.73188e-05
1.02421e-07
9.73337e-05
1.20082e-07
9.73505e-05
1.34431e-07
9.73686e-05
1.45725e-07
9.73877e-05
1.54261e-07
9.74074e-05
1.60388e-07
9.74276e-05
1.64487e-07
9.74481e-05
1.66925e-07
9.74688e-05
1.68041e-07
9.74897e-05
1.68131e-07
9.75107e-05
1.67449e-07
9.75319e-05
1.66206e-07
9.75533e-05
1.6457e-07
9.7575e-05
1.62663e-07
9.75971e-05
1.60566e-07
9.76198e-05
1.58319e-07
9.76431e-05
1.55914e-07
9.76673e-05
1.53303e-07
9.76924e-05
1.50387e-07
9.77186e-05
1.47026e-07
9.7746e-05
1.43033e-07
9.77747e-05
1.38185e-07
9.78047e-05
1.32239e-07
9.7836e-05
1.24943e-07
9.78682e-05
1.16069e-07
9.79011e-05
1.0544e-07
9.79344e-05
9.29561e-08
9.79675e-05
7.86249e-08
9.79999e-05
6.25624e-08
4.53405e-08
9.80312e-05
0.000100071
1.81975e-08
0.000100076
5.1535e-08
0.000100085
7.23286e-08
0.000100097
9.0405e-08
0.000100112
1.05612e-07
0.000100128
1.18044e-07
0.000100146
1.27878e-07
0.000100165
1.35335e-07
0.000100185
1.40684e-07
0.000100205
1.44226e-07
0.000100226
1.46263e-07
0.000100247
1.47077e-07
0.000100268
1.46919e-07
0.000100289
1.46007e-07
0.000100311
1.4452e-07
0.000100333
1.42599e-07
0.000100355
1.40344e-07
0.000100378
1.37818e-07
0.000100401
1.35043e-07
0.000100425
1.32003e-07
0.00010045
1.28644e-07
0.000100475
1.24873e-07
0.000100502
1.20564e-07
0.000100529
1.15561e-07
0.000100558
1.09687e-07
0.000100587
1.02757e-07
0.000100618
9.45946e-08
0.000100649
8.50518e-08
0.00010068
7.40278e-08
0.000100712
6.1491e-08
0.000100743
4.74832e-08
0.000100773
3.21312e-08
1.59241e-08
0.000100803
0.00010293
1.63319e-08
0.000102935
4.62309e-08
0.000102944
6.36003e-08
0.000102956
7.87223e-08
0.00010297
9.14833e-08
0.000102986
1.01954e-07
0.000103003
1.10254e-07
0.000103022
1.16536e-07
0.000103042
1.21001e-07
0.000103062
1.23882e-07
0.000103083
1.25419e-07
0.000103104
1.25842e-07
0.000103126
1.25359e-07
0.000103148
1.2415e-07
0.00010317
1.22366e-07
0.000103192
1.20121e-07
0.000103215
1.17496e-07
0.000103239
1.14537e-07
0.000103262
1.11255e-07
0.000103287
1.07629e-07
0.000103312
1.03603e-07
0.000103338
9.90972e-08
0.000103364
9.40024e-08
0.000103391
8.81933e-08
0.00010342
8.1534e-08
0.000103448
7.38918e-08
0.000103478
6.51477e-08
0.000103508
5.52125e-08
0.000103538
4.40399e-08
0.000103568
3.16377e-08
0.000103597
1.80692e-08
0.000103626
3.45543e-09
-1.1782e-08
0.000103653
0.000105871
1.44992e-08
0.000105876
4.10282e-08
0.000105884
5.50766e-08
0.000105896
6.73039e-08
0.00010591
7.76251e-08
0.000105925
8.60971e-08
0.000105943
9.27946e-08
0.000105962
9.7817e-08
0.000105981
1.01305e-07
0.000106002
1.03431e-07
0.000106023
1.04381e-07
0.000106044
1.04334e-07
0.000106066
1.03457e-07
0.000106088
1.01898e-07
0.000106111
9.97753e-08
0.000106134
9.71819e-08
0.000106157
9.41796e-08
0.000106181
9.08009e-08
0.000106205
8.7049e-08
0.00010623
8.28994e-08
0.000106255
7.83026e-08
0.000106281
7.31878e-08
0.000106308
6.74677e-08
0.000106335
6.10444e-08
0.000106363
5.38189e-08
0.000106391
4.56987e-08
0.000106419
3.66116e-08
0.000106448
2.65084e-08
0.000106477
1.53806e-08
0.000106505
3.25708e-09
0.000106533
-9.78699e-09
0.00010656
-2.36428e-08
-3.7945e-08
0.000106586
0.000108895
1.26888e-08
0.0001089
3.58922e-08
0.000108909
4.67046e-08
0.00010892
5.60848e-08
0.000108934
6.39692e-08
0.000108949
7.04072e-08
0.000108967
7.54422e-08
0.000108985
7.91287e-08
0.000109005
8.15568e-08
0.000109026
8.2846e-08
0.000109047
8.31307e-08
0.000109069
8.25466e-08
0.000109091
8.12217e-08
0.000109114
7.92687e-08
0.000109137
7.67805e-08
0.00010916
7.38274e-08
0.000109184
7.04548e-08
0.000109208
6.66838e-08
0.000109232
6.25119e-08
0.000109257
5.79143e-08
0.000109283
5.28475e-08
0.000109309
4.72534e-08
0.000109335
4.10629e-08
0.000109362
3.42048e-08
0.000109389
2.66076e-08
0.000109417
1.82142e-08
0.000109444
8.98212e-09
0.000109472
-1.10459e-09
0.000109499
-1.20359e-08
0.000109526
-2.37664e-08
0.000109553
-3.62228e-08
0.000109578
-4.93031e-08
-6.26941e-08
0.000109603
0.000112006
1.08902e-08
0.000112011
3.07902e-08
0.00011202
3.84358e-08
0.000112031
4.50044e-08
0.000112044
5.04498e-08
0.00011206
5.482e-08
0.000112077
5.81367e-08
0.000112096
6.0419e-08
0.000112116
6.17135e-08
0.000112136
6.20936e-08
0.000112158
6.16482e-08
0.00011218
6.04714e-08
0.000112203
5.8654e-08
0.000112226
5.62776e-08
0.000112249
5.3409e-08
0.000112273
5.00982e-08
0.000112297
4.63753e-08
0.000112321
4.22519e-08
0.000112346
3.77209e-08
0.000112371
3.27588e-08
0.000112397
2.73284e-08
0.000112423
2.13826e-08
0.000112449
1.48709e-08
0.000112475
7.74099e-09
0.000112502
-5.26318e-11
0.000112529
-8.54453e-09
0.000112555
-1.77523e-08
0.000112582
-2.76739e-08
0.000112608
-3.82833e-08
0.000112634
-4.95311e-08
0.000112659
-6.13448e-08
0.000112683
-7.36344e-08
-8.61278e-08
0.000112707
0.000115206
9.09375e-09
0.000115211
2.56913e-08
0.00011522
3.0225e-08
0.000115231
3.4005e-08
0.000115244
3.70025e-08
0.00011526
3.92693e-08
0.000115277
4.0815e-08
0.000115296
4.16309e-08
0.000115316
4.17271e-08
0.000115337
4.11363e-08
0.000115358
3.99064e-08
0.000115381
3.80927e-08
0.000115404
3.57515e-08
0.000115427
3.29341e-08
0.000115451
2.96832e-08
0.000115475
2.60291e-08
0.000115499
2.1988e-08
0.000115524
1.75627e-08
0.000115549
1.27423e-08
0.000115574
7.50454e-09
0.0001156
1.81833e-09
0.000115625
-4.35311e-09
0.000115651
-1.10467e-08
0.000115677
-1.8298e-08
0.000115703
-2.61337e-08
0.000115729
-3.45716e-08
0.000115755
-4.36124e-08
0.000115781
-5.3242e-08
0.000115806
-6.34265e-08
0.000115831
-7.41154e-08
0.000115854
-8.52401e-08
0.000115878
-9.67223e-08
-1.08324e-07
0.0001159
0.000118498
7.29096e-09
0.000118503
2.0569e-08
0.000118511
2.20315e-08
0.000118522
2.3033e-08
0.000118535
2.35638e-08
0.000118551
2.36875e-08
0.000118568
2.34099e-08
0.000118587
2.27018e-08
0.000118607
2.15423e-08
0.000118629
1.99284e-08
0.000118651
1.78708e-08
0.000118673
1.53882e-08
0.000118697
1.25039e-08
0.00011872
9.24081e-09
0.000118744
5.61775e-09
0.000118769
1.64651e-09
0.000118793
-2.66995e-09
0.000118818
-7.3375e-09
0.000118843
-1.23711e-08
0.000118869
-1.77914e-08
0.000118894
-2.3626e-08
0.00011892
-2.99014e-08
0.000118945
-3.66462e-08
0.000118971
-4.38805e-08
0.000118996
-5.16212e-08
0.000119022
-5.98703e-08
0.000119047
-6.86215e-08
0.000119071
-7.78504e-08
0.000119095
-8.75226e-08
0.000119119
-9.75861e-08
0.000119142
-1.07981e-07
0.000119164
-1.18636e-07
-1.29347e-07
0.000119185
0.000121883
5.47551e-09
0.000121888
1.54015e-08
0.000121896
1.38207e-08
0.000121907
1.20379e-08
0.000121921
1.00696e-08
0.000121937
8.00271e-09
0.000121954
5.84766e-09
0.000121973
3.56072e-09
0.000121994
1.09458e-09
0.000122015
-1.58533e-09
0.000122038
-4.50321e-09
0.000122061
-7.67456e-09
0.000122084
-1.11083e-08
0.000122108
-1.48094e-08
0.000122133
-1.87823e-08
0.000122157
-2.30333e-08
0.000122182
-2.75726e-08
0.000122207
-3.24154e-08
0.000122233
-3.75796e-08
0.000122258
-4.3088e-08
0.000122283
-4.89624e-08
0.000122309
-5.52263e-08
0.000122334
-6.18973e-08
0.000122359
-6.89904e-08
0.000122384
-7.65099e-08
0.000122408
-8.44534e-08
0.000122433
-9.28049e-08
0.000122456
-1.0154e-07
0.000122479
-1.10621e-07
0.000122502
-1.20002e-07
0.000122523
-1.29627e-07
0.000122544
-1.39436e-07
-1.49249e-07
0.000122564
0.000125365
3.64403e-09
0.000125371
1.01763e-08
0.000125379
5.56679e-09
0.00012539
9.73765e-10
0.000125403
-3.54509e-09
0.000125419
-7.86271e-09
0.000125437
-1.19544e-08
0.000125457
-1.58745e-08
0.000125477
-1.96928e-08
0.000125499
-2.34731e-08
0.000125522
-2.72722e-08
0.000125545
-3.11401e-08
0.000125569
-3.51172e-08
0.000125594
-3.92362e-08
0.000125619
-4.35246e-08
0.000125644
-4.80073e-08
0.000125669
-5.27085e-08
0.000125694
-5.76514e-08
0.000125719
-6.28605e-08
0.000125745
-6.83586e-08
0.00012577
-7.41676e-08
0.000125795
-8.03061e-08
0.00012582
-8.67885e-08
0.000125844
-9.36224e-08
0.000125869
-1.00808e-07
0.000125892
-1.08338e-07
0.000125916
-1.16194e-07
0.000125939
-1.2435e-07
0.000125961
-1.32771e-07
0.000125982
-1.41415e-07
0.000126003
-1.50231e-07
0.000126023
-1.59169e-07
-1.68072e-07
0.000126041
0.000128947
1.79886e-09
0.000128952
4.89495e-09
0.000128961
-2.74212e-09
0.000128972
-1.01996e-08
0.000128986
-1.73489e-08
0.000129002
-2.39955e-08
0.00012902
-3.00919e-08
0.00012904
-3.57013e-08
0.000129061
-4.09137e-08
0.000129083
-4.58196e-08
0.000129106
-5.05095e-08
0.00012913
-5.5068e-08
0.000129155
-5.95683e-08
0.00012918
-6.40715e-08
0.000129205
-6.86291e-08
0.00012923
-7.32847e-08
0.000129255
-7.80771e-08
0.000129281
-8.30392e-08
0.000129306
-8.82022e-08
0.000129331
-9.35912e-08
0.000129356
-9.92299e-08
0.000129381
-1.05134e-07
0.000129406
-1.11318e-07
0.00012943
-1.17784e-07
0.000129454
-1.24532e-07
0.000129477
-1.3155e-07
0.000129499
-1.38823e-07
0.000129521
-1.46323e-07
0.000129543
-1.54019e-07
0.000129563
-1.61874e-07
0.000129583
-1.69845e-07
0.000129601
-1.77889e-07
-1.85869e-07
0.000129619
0.000132631
-4.77752e-11
0.000132636
-4.14313e-10
0.000132645
-1.10941e-08
0.000132656
-2.15143e-08
0.00013267
-3.14162e-08
0.000132686
-4.04963e-08
0.000132705
-4.86786e-08
0.000132725
-5.60375e-08
0.000132747
-6.26824e-08
0.00013277
-6.8731e-08
0.000132794
-7.43094e-08
0.000132818
-7.95401e-08
0.000132843
-8.45302e-08
0.000132869
-8.93709e-08
0.000132894
-9.41381e-08
0.00013292
-9.88969e-08
0.000132945
-1.037e-07
0.000132971
-1.08593e-07
0.000132996
-1.13613e-07
0.000133021
-1.18793e-07
0.000133046
-1.24155e-07
0.000133071
-1.2972e-07
0.000133095
-1.35497e-07
0.000133119
-1.41493e-07
0.000133142
-1.47704e-07
0.000133165
-1.54121e-07
0.000133187
-1.60726e-07
0.000133208
-1.67498e-07
0.000133228
-1.74408e-07
0.000133248
-1.81425e-07
0.000133266
-1.88509e-07
0.000133284
-1.95625e-07
-2.02653e-07
0.000133301
0.00013642
-1.86372e-09
0.000136425
-5.67467e-09
0.000136434
-1.94376e-08
0.000136445
-3.29918e-08
0.00013646
-4.58315e-08
0.000136477
-5.74869e-08
0.000136496
-6.78567e-08
0.000136517
-7.70323e-08
0.000136539
-8.51409e-08
0.000136563
-9.23326e-08
0.000136587
-9.87777e-08
0.000136612
-1.04643e-07
0.000136638
-1.10072e-07
0.000136664
-1.15188e-07
0.00013669
-1.20094e-07
0.000136716
-1.24875e-07
0.000136742
-1.29603e-07
0.000136767
-1.34333e-07
0.000136793
-1.39114e-07
0.000136818
-1.43981e-07
0.000136843
-1.48965e-07
0.000136867
-1.54086e-07
0.000136891
-1.59356e-07
0.000136914
-1.64782e-07
0.000136937
-1.70363e-07
0.000136959
-1.76091e-07
0.00013698
-1.81952e-07
0.000137001
-1.87927e-07
0.00013702
-1.93993e-07
0.000137039
-2.00122e-07
0.000137057
-2.06285e-07
0.000137073
-2.12453e-07
-2.18524e-07
0.000137089
0.000140317
-3.57637e-09
0.000140323
-1.07132e-08
0.000140331
-2.76559e-08
0.000140342
-4.46452e-08
0.000140357
-6.0694e-08
0.000140375
-7.51075e-08
0.000140395
-8.77975e-08
0.000140417
-9.88809e-08
0.00014044
-1.08495e-07
0.000140464
-1.16827e-07
0.00014049
-1.24103e-07
0.000140516
-1.30542e-07
0.000140542
-1.36334e-07
0.000140568
-1.41637e-07
0.000140595
-1.46585e-07
0.000140621
-1.51288e-07
0.000140648
-1.55834e-07
0.000140674
-1.60295e-07
0.000140699
-1.64727e-07
0.000140724
-1.69175e-07
0.000140749
-1.73673e-07
0.000140773
-1.78244e-07
0.000140797
-1.82907e-07
0.00014082
-1.87667e-07
0.000140842
-1.92529e-07
0.000140863
-1.97485e-07
0.000140884
-2.02527e-07
0.000140903
-2.07639e-07
0.000140922
-2.12801e-07
0.00014094
-2.17991e-07
0.000140957
-2.23182e-07
0.000140973
-2.28348e-07
-2.33399e-07
0.000140988
0.000144326
-5.02668e-09
0.00014433
-1.51608e-08
0.000144338
-3.55138e-08
0.00014435
-5.64936e-08
0.000144366
-7.61657e-08
0.000144384
-9.35589e-08
0.000144405
-1.08688e-07
0.000144428
-1.21729e-07
0.000144452
-1.32846e-07
0.000144478
-1.42286e-07
0.000144504
-1.50346e-07
0.000144531
-1.57302e-07
0.000144558
-1.63384e-07
0.000144585
-1.68793e-07
0.000144612
-1.73693e-07
0.000144639
-1.78221e-07
0.000144666
-1.82484e-07
0.000144692
-1.86569e-07
0.000144718
-1.90545e-07
0.000144743
-1.94465e-07
0.000144768
-1.98368e-07
0.000144792
-2.02286e-07
0.000144815
-2.06238e-07
0.000144838
-2.10238e-07
0.000144859
-2.14289e-07
0.00014488
-2.18392e-07
0.0001449
-2.22539e-07
0.000144919
-2.26721e-07
0.000144937
-2.30923e-07
0.000144955
-2.3513e-07
0.000144971
-2.39323e-07
0.000144986
-2.43488e-07
-2.47553e-07
0.000145
0.000148449
-5.85381e-09
0.000148452
-1.82899e-08
0.000148459
-4.25793e-08
0.000148471
-6.84559e-08
0.000148487
-9.24036e-08
0.000148507
-1.13257e-07
0.000148529
-1.31158e-07
0.000148554
-1.46275e-07
0.00014858
-1.58832e-07
0.000148607
-1.69224e-07
0.000148634
-1.77879e-07
0.000148662
-1.85154e-07
0.00014869
-1.9134e-07
0.000148718
-1.96681e-07
0.000148746
-2.01376e-07
0.000148773
-2.05585e-07
0.0001488
-2.09435e-07
0.000148826
-2.13024e-07
0.000148852
-2.16432e-07
0.000148878
-2.19719e-07
0.000148902
-2.22932e-07
0.000148926
-2.26104e-07
0.000148949
-2.29261e-07
0.000148971
-2.32419e-07
0.000148993
-2.35587e-07
0.000149013
-2.38768e-07
0.000149032
-2.4196e-07
0.000149051
-2.45156e-07
0.000149068
-2.48345e-07
0.000149085
-2.51513e-07
0.0001491
-2.54643e-07
0.000149114
-2.57711e-07
-2.60656e-07
0.000149127
0.000152688
-5.04366e-09
0.000152689
-1.86564e-08
0.000152695
-4.86214e-08
0.000152707
-8.05979e-08
0.000152723
-1.0897e-07
0.000152744
-1.3341e-07
0.000152767
-1.54411e-07
0.000152792
-1.7193e-07
0.00015282
-1.86161e-07
0.000152848
-1.97647e-07
0.000152877
-2.06949e-07
0.000152907
-2.14519e-07
0.000152936
-2.20726e-07
0.000152965
-2.25878e-07
0.000152994
-2.30226e-07
0.000153022
-2.33963e-07
0.00015305
-2.37243e-07
0.000153077
-2.40182e-07
0.000153104
-2.42873e-07
0.00015313
-2.45385e-07
0.000153154
-2.47774e-07
0.000153178
-2.50079e-07
0.000153201
-2.52329e-07
0.000153224
-2.54545e-07
0.000153245
-2.56739e-07
0.000153265
-2.58918e-07
0.000153284
-2.61085e-07
0.000153302
-2.63237e-07
0.000153319
-2.6537e-07
0.000153335
-2.67479e-07
0.00015335
-2.69558e-07
0.000153364
-2.71607e-07
-2.73574e-07
0.000153377
0.000157047
-1.21364e-10
0.00015704
-1.19628e-08
0.000157044
-5.3204e-08
0.000157059
-9.55267e-08
0.00015708
-1.29869e-07
0.000157105
-1.5796e-07
0.000157132
-1.81262e-07
0.00015716
-2.00073e-07
0.000157189
-2.14998e-07
0.000157218
-2.2687e-07
0.000157247
-2.36347e-07
0.000157277
-2.4392e-07
0.000157306
-2.49986e-07
0.000157335
-2.54883e-07
0.000157364
-2.58876e-07
0.000157392
-2.6217e-07
0.000157419
-2.64924e-07
0.000157447
-2.67265e-07
0.000157473
-2.6929e-07
0.000157499
-2.71076e-07
0.000157524
-2.7268e-07
0.000157548
-2.7415e-07
0.000157571
-2.75517e-07
0.000157593
-2.76809e-07
0.000157614
-2.7804e-07
0.000157635
-2.79224e-07
0.000157654
-2.80366e-07
0.000157672
-2.81468e-07
0.000157689
-2.82527e-07
0.000157705
-2.83537e-07
0.00015772
-2.84483e-07
0.000157734
-2.85346e-07
-2.86085e-07
0.000157747
0.000161526
1.20032e-08
0.000161507
7.48895e-09
0.0001615
-4.64155e-08
0.000161505
-1.00347e-07
0.00016152
-1.45277e-07
0.000161545
-1.82465e-07
0.000161575
-2.11777e-07
0.000161609
-2.3375e-07
0.000161644
-2.50106e-07
0.00016168
-2.62457e-07
0.000161715
-2.71845e-07
0.00016175
-2.7898e-07
0.000161785
-2.84417e-07
0.000161818
-2.88584e-07
0.000161851
-2.91795e-07
0.000161883
-2.94275e-07
0.000161915
-2.96193e-07
0.000161945
-2.97676e-07
0.000161975
-2.98822e-07
0.000162003
-2.99704e-07
0.000162031
-3.00379e-07
0.000162058
-3.0089e-07
0.000162083
-3.0127e-07
0.000162108
-3.01544e-07
0.000162132
-3.01733e-07
0.000162154
-3.01848e-07
0.000162176
-3.01901e-07
0.000162196
-3.01898e-07
0.000162216
-3.01846e-07
0.000162234
-3.01749e-07
0.000162251
-3.01614e-07
0.000162267
-3.01456e-07
-3.01229e-07
0.000162282
0.0001661
6.54498e-08
0.000166098
9.80685e-09
0.000166116
-6.43352e-08
0.000166132
-1.17044e-07
0.000166149
-1.61591e-07
0.000166168
-2.0143e-07
0.00016619
-2.34075e-07
0.000166216
-2.59348e-07
0.000166244
-2.78873e-07
0.000166276
-2.94053e-07
0.00016631
-3.05782e-07
0.000166346
-3.14757e-07
0.000166383
-3.21576e-07
0.000166421
-3.26711e-07
0.00016646
-3.30516e-07
0.000166499
-3.33261e-07
0.000166538
-3.35158e-07
0.000166576
-3.36377e-07
0.000166615
-3.37048e-07
0.000166652
-3.37275e-07
0.000166689
-3.37143e-07
0.000166725
-3.36717e-07
0.00016676
-3.3605e-07
0.000166793
-3.35186e-07
0.000166826
-3.34159e-07
0.000166857
-3.32997e-07
0.000166887