/*--------------------------------*- C++ -*----------------------------------*\
  =========                 |
  \\      /  F ield         | OpenFOAM: The Open Source CFD Toolbox
   \\    /   O peration     | Website:  https://openfoam.org
    \\  /    A nd           | Version:  10
     \\/     M anipulation  |
\*---------------------------------------------------------------------------*/
FoamFile
{
    format      ascii;
    class       volVectorField;
    location    "1500";
    object      U;
}
// * * * * * * * * * * * * * * * * * * * * * * * * * * * * * * * * * * * * * //

dimensions      [0 1 -1 0 0 0 0];

internalField   nonuniform List<vector> 
6820
(
(7.31668 -0.3873 0)
(7.31538 -0.335162 0)
(7.28419 -0.20352 0)
(7.22631 -0.11112 0)
(7.16208 -0.0568001 0)
(7.10113 -0.0270441 0)
(7.04547 -0.0113186 0)
(6.99529 -0.00313017 0)
(6.95035 0.00108458 0)
(6.91 0.00320701 0)
(6.87353 0.00423714 0)
(6.84027 0.00470868 0)
(6.80975 0.00490293 0)
(6.78155 0.00496585 0)
(6.75535 0.00497226 0)
(6.73089 0.00495991 0)
(6.70794 0.00494739 0)
(6.68633 0.00494364 0)
(6.6659 0.00495326 0)
(6.64649 0.00497952 0)
(6.62796 0.00502622 0)
(6.61019 0.00509927 0)
(6.59301 0.00520864 0)
(6.57625 0.0053704 0)
(6.55968 0.00561288 0)
(6.543 0.00598919 0)
(6.52576 0.00659263 0)
(6.5071 0.00749975 0)
(6.48548 0.0100092 0)
(6.45935 0.00996812 0)
(6.4193 0.0268272 0)
(6.34627 0.0428751 0)
(6.3563 0.0754449 0)
(7.33961 0.100781 0)
(7.35426 0.149927 0)
(7.35843 0.123236 0)
(7.35867 0.0898276 0)
(7.35934 0.0660027 0)
(7.3581 0.05007 0)
(7.35287 0.0394792 0)
(7.34389 0.0325106 0)
(7.33232 0.0278593 0)
(7.31912 0.0246334 0)
(7.30494 0.0222981 0)
(7.29024 0.0205385 0)
(7.27536 0.0191606 0)
(7.2605 0.018042 0)
(7.24582 0.0171061 0)
(7.23139 0.0163054 0)
(7.21727 0.0156103 0)
(7.20348 0.0150025 0)
(7.19002 0.014472 0)
(7.17688 0.0140148 0)
(7.16406 0.0136324 0)
(7.15152 0.0133328 0)
(7.13923 0.0131319 0)
(7.12713 0.0130587 0)
(7.11516 0.0131629 0)
(7.1032 0.0135329 0)
(7.0912 0.0143374 0)
(7.07869 0.0158569 0)
(7.06637 0.0188291 0)
(7.05141 0.0246028 0)
(7.04034 0.0367877 0)
(7.02973 0.0636062 0)
(7.06279 0.141765 0)
(7.32714 0.00612685 0)
(7.32428 -0.00159084 0)
(7.3313 -0.00619968 0)
(7.33975 -0.000824145 0)
(7.34683 0.00698229 0)
(7.35222 0.0126897 0)
(7.35551 0.0161793 0)
(7.35674 0.0182532 0)
(7.3563 0.019411 0)
(7.35456 0.0199538 0)
(7.35176 0.0201078 0)
(7.34812 0.020033 0)
(7.3438 0.0198296 0)
(7.33899 0.0195585 0)
(7.33378 0.0192582 0)
(7.32829 0.0189536 0)
(7.32257 0.0186615 0)
(7.31668 0.0183939 0)
(7.31067 0.0181608 0)
(7.30456 0.0179727 0)
(7.29836 0.0178421 0)
(7.29207 0.0177864 0)
(7.28568 0.0178313 0)
(7.27915 0.018016 0)
(7.27245 0.0184046 0)
(7.26549 0.0190976 0)
(7.25821 0.0202933 0)
(7.25038 0.022236 0)
(7.2422 0.0257927 0)
(7.23326 0.0314336 0)
(7.22588 0.0430659 0)
(7.22452 0.061371 0)
(7.2412 0.0931448 0)
(7.32977 -0.00400527 0)
(7.32629 0.00245405 0)
(7.33112 0.0106488 0)
(7.33681 0.0167544 0)
(7.3415 0.0202792 0)
(7.34588 0.0217608 0)
(7.34975 0.0222169 0)
(7.35279 0.0223124 0)
(7.35504 0.0222637 0)
(7.3566 0.0221236 0)
(7.35752 0.0219274 0)
(7.35786 0.0217036 0)
(7.3577 0.0214682 0)
(7.35711 0.0212299 0)
(7.35614 0.0209955 0)
(7.35486 0.0207717 0)
(7.35329 0.0205652 0)
(7.35149 0.0203835 0)
(7.34947 0.0202357 0)
(7.34726 0.0201335 0)
(7.34486 0.0200927 0)
(7.34229 0.0201355 0)
(7.33953 0.0202944 0)
(7.33656 0.0206175 0)
(7.33337 0.0211796 0)
(7.32992 0.0220952 0)
(7.3262 0.0235628 0)
(7.32218 0.0258544 0)
(7.31809 0.0296028 0)
(7.31432 0.0353417 0)
(7.31254 0.0447859 0)
(7.31615 0.0575042 0)
(7.32865 0.0725707 0)
(7.33182 -0.000992963 0)
(7.33 0.00671714 0)
(7.33261 0.0122821 0)
(7.33616 0.0150275 0)
(7.33951 0.0170097 0)
(7.34308 0.0184667 0)
(7.3466 0.0194098 0)
(7.34972 0.0200318 0)
(7.35241 0.0204494 0)
(7.35472 0.0207063 0)
(7.35668 0.0208417 0)
(7.35829 0.020894 0)
(7.35959 0.0208911 0)
(7.36059 0.0208518 0)
(7.36133 0.0207912 0)
(7.36184 0.0207221 0)
(7.36212 0.0206565 0)
(7.3622 0.0206062 0)
(7.36209 0.020584 0)
(7.3618 0.0206053 0)
(7.36133 0.0206894 0)
(7.36069 0.0208624 0)
(7.35988 0.0211605 0)
(7.35889 0.0216352 0)
(7.35771 0.0223631 0)
(7.35635 0.0234558 0)
(7.35485 0.0250873 0)
(7.35329 0.0274896 0)
(7.35196 0.0310731 0)
(7.35143 0.0361542 0)
(7.35292 0.043281 0)
(7.35837 0.0516055 0)
(7.36843 0.0589554 0)
(7.33247 0.000689582 0)
(7.33165 0.00632786 0)
(7.33349 0.0105224 0)
(7.33635 0.0131039 0)
(7.33919 0.0153382 0)
(7.34218 0.0170825 0)
(7.34519 0.0182133 0)
(7.34799 0.018942 0)
(7.35055 0.019439 0)
(7.3529 0.0197728 0)
(7.35505 0.0199865 0)
(7.357 0.0201186 0)
(7.35876 0.0201965 0)
(7.36034 0.0202386 0)
(7.36174 0.0202594 0)
(7.36298 0.0202714 0)
(7.36407 0.0202865 0)
(7.365 0.0203168 0)
(7.36579 0.020376 0)
(7.36644 0.0204801 0)
(7.36696 0.0206499 0)
(7.36733 0.0209124 0)
(7.36757 0.0213044 0)
(7.36767 0.0218764 0)
(7.36766 0.0226994 0)
(7.36756 0.0238712 0)
(7.36744 0.0255292 0)
(7.36744 0.0278413 0)
(7.36786 0.0310354 0)
(7.36921 0.0352229 0)
(7.3723 0.0404042 0)
(7.3781 0.0457111 0)
(7.38636 0.0494472 0)
(7.33271 0.00111505 0)
(7.33241 0.00549378 0)
(7.33399 0.00939644 0)
(7.33654 0.0121281 0)
(7.33911 0.0143135 0)
(7.34173 0.0159721 0)
(7.34439 0.0170817 0)
(7.34693 0.0178272 0)
(7.34931 0.0183579 0)
(7.35155 0.0187358 0)
(7.35366 0.0189987 0)
(7.35564 0.0191814 0)
(7.35751 0.0193102 0)
(7.35925 0.0194034 0)
(7.36088 0.0194752 0)
(7.36241 0.0195385 0)
(7.36382 0.0196055 0)
(7.36514 0.0196886 0)
(7.36635 0.0198019 0)
(7.36746 0.0199621 0)
(7.36847 0.0201898 0)
(7.36938 0.0205115 0)
(7.3702 0.0209623 0)
(7.37094 0.021588 0)
(7.37164 0.0224494 0)
(7.37232 0.0236243 0)
(7.37309 0.0252097 0)
(7.37409 0.027308 0)
(7.37559 0.0300152 0)
(7.37797 0.0333056 0)
(7.38173 0.0369657 0)
(7.38729 0.0402808 0)
(7.39418 0.042176 0)
(7.33286 0.00127943 0)
(7.33287 0.00504392 0)
(7.33427 0.00862903 0)
(7.33652 0.011252 0)
(7.3389 0.0132784 0)
(7.34131 0.0148498 0)
(7.34375 0.0159667 0)
(7.34612 0.0167471 0)
(7.34836 0.0173117 0)
(7.35049 0.0177219 0)
(7.35252 0.0180162 0)
(7.35446 0.0182287 0)
(7.35632 0.0183858 0)
(7.35809 0.0185067 0)
(7.35978 0.0186062 0)
(7.36139 0.0186977 0)
(7.36294 0.0187936 0)
(7.36441 0.0189069 0)
(7.36581 0.0190516 0)
(7.36714 0.0192439 0)
(7.36841 0.0195039 0)
(7.36961 0.0198562 0)
(7.37077 0.020332 0)
(7.3719 0.0209702 0)
(7.37303 0.0218188 0)
(7.37422 0.0229337 0)
(7.37556 0.0243748 0)
(7.37719 0.0261896 0)
(7.37932 0.0283896 0)
(7.38222 0.0308786 0)
(7.38617 0.0333968 0)
(7.39131 0.0354172 0)
(7.39718 0.0363181 0)
(7.33295 0.00134858 0)
(7.33315 0.00468476 0)
(7.33439 0.00788638 0)
(7.33638 0.0103468 0)
(7.33857 0.012261 0)
(7.34082 0.0137764 0)
(7.34311 0.0148976 0)
(7.34536 0.0157016 0)
(7.3475 0.0162891 0)
(7.34955 0.0167218 0)
(7.35152 0.017038 0)
(7.35341 0.0172703 0)
(7.35523 0.0174451 0)
(7.35699 0.0175821 0)
(7.35868 0.0176969 0)
(7.36032 0.0178032 0)
(7.36191 0.0179139 0)
(7.36344 0.0180419 0)
(7.36493 0.018201 0)
(7.36637 0.018407 0)
(7.36778 0.0186782 0)
(7.36915 0.0190364 0)
(7.37051 0.0195081 0)
(7.37188 0.0201238 0)
(7.3733 0.0209185 0)
(7.37482 0.0219273 0)
(7.37653 0.0231797 0)
(7.37854 0.0246835 0)
(7.38102 0.0264033 0)
(7.38414 0.0282186 0)
(7.38803 0.0298941 0)
(7.39271 0.0310624 0)
(7.3978 0.0313786 0)
(7.333 0.0013436 0)
(7.3333 0.00433556 0)
(7.33442 0.00718903 0)
(7.33619 0.00948835 0)
(7.33821 0.0113039 0)
(7.34031 0.0127553 0)
(7.34246 0.0138598 0)
(7.34459 0.0146723 0)
(7.34666 0.0152746 0)
(7.34864 0.0157238 0)
(7.35056 0.0160567 0)
(7.35242 0.016304 0)
(7.35421 0.0164914 0)
(7.35595 0.0166387 0)
(7.35763 0.0167621 0)
(7.35927 0.0168755 0)
(7.36087 0.016992 0)
(7.36244 0.0171244 0)
(7.36397 0.0172861 0)
(7.36548 0.0174915 0)
(7.36696 0.0177571 0)
(7.36844 0.0181015 0)
(7.36994 0.0185453 0)
(7.37147 0.0191113 0)
(7.37307 0.0198215 0)
(7.37481 0.0206943 0)
(7.37675 0.0217362 0)
(7.37898 0.0229302 0)
(7.38162 0.0242192 0)
(7.38477 0.0254853 0)
(7.3885 0.0265385 0)
(7.39275 0.0271294 0)
(7.39721 0.0270714 0)
(7.33302 0.00129229 0)
(7.33338 0.00399976 0)
(7.33439 0.00655226 0)
(7.33598 0.00868398 0)
(7.33783 0.0103948 0)
(7.33979 0.0117737 0)
(7.34181 0.0128474 0)
(7.34384 0.0136567 0)
(7.34583 0.0142655 0)
(7.34776 0.0147245 0)
(7.34963 0.0150686 0)
(7.35145 0.0153263 0)
(7.35322 0.0155221 0)
(7.35494 0.0156757 0)
(7.35662 0.0158032 0)
(7.35826 0.0159186 0)
(7.35987 0.0160348 0)
(7.36145 0.0161643 0)
(7.36301 0.0163195 0)
(7.36456 0.0165136 0)
(7.36611 0.0167606 0)
(7.36766 0.0170754 0)
(7.36925 0.0174734 0)
(7.37089 0.0179695 0)
(7.37262 0.0185753 0)
(7.3745 0.0192958 0)
(7.37657 0.0201225 0)
(7.37892 0.0210249 0)
(7.38161 0.0219404 0)
(7.38469 0.0227655 0)
(7.3882 0.0233556 0)
(7.39206 0.0235434 0)
(7.39601 0.0232311 0)
(7.33303 0.00121675 0)
(7.3334 0.00367829 0)
(7.33434 0.00596645 0)
(7.33576 0.00792662 0)
(7.33746 0.00952739 0)
(7.33929 0.0108296 0)
(7.34119 0.0118624 0)
(7.34312 0.0126571 0)
(7.34503 0.013263 0)
(7.3469 0.0137242 0)
(7.34873 0.014073 0)
(7.35052 0.0143359 0)
(7.35227 0.0145358 0)
(7.35397 0.0146916 0)
(7.35564 0.0148192 0)
(7.35728 0.0149322 0)
(7.3589 0.0150431 0)
(7.3605 0.0151636 0)
(7.36208 0.0153052 0)
(7.36366 0.0154793 0)
(7.36525 0.0156973 0)
(7.36686 0.0159706 0)
(7.36851 0.0163096 0)
(7.37024 0.0167224 0)
(7.37206 0.0172125 0)
(7.37402 0.0177754 0)
(7.37617 0.0183939 0)
(7.37855 0.019032 0)
(7.38122 0.0196304 0)
(7.38419 0.020104 0)
(7.38746 0.0203461 0)
(7.39097 0.0202451 0)
(7.39452 0.0197522 0)
(7.33304 0.00112978 0)
(7.3334 0.00336971 0)
(7.33426 0.00542237 0)
(7.33556 0.00721283 0)
(7.33712 0.00870007 0)
(7.33882 0.00992185 0)
(7.34061 0.0109048 0)
(7.34245 0.0116743 0)
(7.34428 0.0122682 0)
(7.34609 0.012724 0)
(7.34788 0.0130711 0)
(7.34963 0.0133336 0)
(7.35135 0.0135327 0)
(7.35304 0.0136864 0)
(7.3547 0.0138097 0)
(7.35634 0.0139159 0)
(7.35796 0.0140167 0)
(7.35957 0.0141228 0)
(7.36117 0.0142445 0)
(7.36278 0.0143913 0)
(7.36441 0.0145722 0)
(7.36606 0.0147951 0)
(7.36777 0.015066 0)
(7.36954 0.0153877 0)
(7.37142 0.0157577 0)
(7.37343 0.0161657 0)
(7.3756 0.01659 0)
(7.37798 0.0169948 0)
(7.38058 0.0173278 0)
(7.38341 0.0175217 0)
(7.38646 0.0174995 0)
(7.38967 0.0171867 0)
(7.39287 0.0165615 0)
(7.33304 0.0010385 0)
(7.33339 0.00307357 0)
(7.33419 0.00491359 0)
(7.33537 0.00653915 0)
(7.33681 0.00791013 0)
(7.3384 0.00904759 0)
(7.34008 0.00997354 0)
(7.34182 0.0107086 0)
(7.34358 0.0112821 0)
(7.34534 0.0117253 0)
(7.34707 0.0120641 0)
(7.34879 0.0123205 0)
(7.35048 0.0125138 0)
(7.35216 0.0126607 0)
(7.35381 0.0127754 0)
(7.35544 0.0128703 0)
(7.35707 0.0129562 0)
(7.35868 0.0130429 0)
(7.3603 0.0131391 0)
(7.36193 0.0132526 0)
(7.36358 0.0133898 0)
(7.36527 0.0135558 0)
(7.36701 0.013753 0)
(7.36882 0.0139803 0)
(7.37073 0.014231 0)
(7.37275 0.0144917 0)
(7.37492 0.0147398 0)
(7.37726 0.0149421 0)
(7.37977 0.0150549 0)
(7.38245 0.0150264 0)
(7.38529 0.0148014 0)
(7.38823 0.0143304 0)
(7.39114 0.013606 0)
(7.33304 0.000946845 0)
(7.33337 0.00278975 0)
(7.33411 0.0044349 0)
(7.33519 0.00590142 0)
(7.33652 0.00715447 0)
(7.33801 0.0082041 0)
(7.3396 0.00906702 0)
(7.34126 0.00975979 0)
(7.34294 0.0103052 0)
(7.34464 0.0107288 0)
(7.34633 0.011053 0)
(7.34801 0.0112977 0)
(7.34967 0.0114801 0)
(7.35133 0.0116155 0)
(7.35296 0.0117171 0)
(7.35459 0.0117963 0)
(7.35621 0.0118629 0)
(7.35784 0.0119254 0)
(7.35946 0.0119913 0)
(7.36111 0.0120664 0)
(7.36278 0.0121552 0)
(7.36448 0.0122602 0)
(7.36624 0.0123811 0)
(7.36807 0.0125138 0)
(7.36999 0.0126498 0)
(7.37201 0.0127741 0)
(7.37415 0.012865 0)
(7.37642 0.0128938 0)
(7.37883 0.0128249 0)
(7.38137 0.0126191 0)
(7.38401 0.0122373 0)
(7.38672 0.0116461 0)
(7.38938 0.0108465 0)
(7.33303 0.000856876 0)
(7.33335 0.00251794 0)
(7.33403 0.00398199 0)
(7.33503 0.0052955 0)
(7.33627 0.00642991 0)
(7.33766 0.00738866 0)
(7.33916 0.00818344 0)
(7.34074 0.00882716 0)
(7.34236 0.00933747 0)
(7.344 0.00973481 0)
(7.34564 0.0100385 0)
(7.34729 0.0102659 0)
(7.34892 0.0104324 0)
(7.35055 0.0105517 0)
(7.35218 0.0106359 0)
(7.35379 0.0106952 0)
(7.35541 0.0107383 0)
(7.35703 0.0107725 0)
(7.35867 0.0108039 0)
(7.36032 0.0108369 0)
(7.36199 0.010874 0)
(7.36371 0.0109158 0)
(7.36548 0.0109601 0)
(7.36731 0.0110011 0)
(7.36921 0.011029 0)
(7.37121 0.0110293 0)
(7.3733 0.0109823 0)
(7.3755 0.0108637 0)
(7.3778 0.0106453 0)
(7.38019 0.010298 0)
(7.38266 0.00979389 0)
(7.38517 0.00911081 0)
(7.38761 0.00825379 0)
(7.33303 0.000769542 0)
(7.33333 0.00225749 0)
(7.33396 0.0035513 0)
(7.33489 0.00471746 0)
(7.33604 0.00573327 0)
(7.33735 0.00659857 0)
(7.33877 0.00732078 0)
(7.34027 0.00790954 0)
(7.34183 0.00837833 0)
(7.34341 0.00874338 0)
(7.34501 0.00902086 0)
(7.34662 0.0092257 0)
(7.34823 0.00937145 0)
(7.34984 0.0094703 0)
(7.35144 0.00953289 0)
(7.35305 0.00956832 0)
(7.35466 0.0095842 0)
(7.35628 0.00958669 0)
(7.35791 0.00958048 0)
(7.35956 0.00956861 0)
(7.36124 0.00955226 0)
(7.36295 0.00953049 0)
(7.36471 0.00949974 0)
(7.36653 0.00945349 0)
(7.36841 0.00938178 0)
(7.37037 0.00927107 0)
(7.3724 0.00910426 0)
(7.37452 0.00886133 0)
(7.37671 0.00852048 0)
(7.37897 0.00806 0)
(7.38127 0.0074603 0)
(7.38359 0.00670661 0)
(7.38584 0.00580604 0)
(7.33303 0.000685156 0)
(7.33331 0.00200756 0)
(7.3339 0.0031398 0)
(7.33476 0.00416368 0)
(7.33584 0.00506141 0)
(7.33707 0.0058311 0)
(7.33842 0.0064769 0)
(7.33986 0.00700554 0)
(7.34135 0.00742707 0)
(7.34289 0.00775416 0)
(7.34444 0.00800005 0)
(7.34601 0.00817738 0)
(7.34759 0.00829783 0)
(7.34918 0.008372 0)
(7.35076 0.00840917 0)
(7.35236 0.00841726 0)
(7.35395 0.00840275 0)
(7.35556 0.00837067 0)
(7.35719 0.00832457 0)
(7.35883 0.00826632 0)
(7.3605 0.00819602 0)
(7.36221 0.00811169 0)
(7.36395 0.00800909 0)
(7.36575 0.00788143 0)
(7.36759 0.00771925 0)
(7.3695 0.00751045 0)
(7.37147 0.00724059 0)
(7.3735 0.00689355 0)
(7.37558 0.0064526 0)
(7.3777 0.00590182 0)
(7.37985 0.00522746 0)
(7.38201 0.00441977 0)
(7.38409 0.00348678 0)
(7.33303 0.00060368 0)
(7.33329 0.00176709 0)
(7.33384 0.00274483 0)
(7.33465 0.00363084 0)
(7.33566 0.00441124 0)
(7.33682 0.00508356 0)
(7.33811 0.00564958 0)
(7.33948 0.00611354 0)
(7.34092 0.00648267 0)
(7.34241 0.0067666 0)
(7.34392 0.00697592 0)
(7.34546 0.00712109 0)
(7.34701 0.00721198 0)
(7.34857 0.0072576 0)
(7.35014 0.00726591 0)
(7.35171 0.0072436 0)
(7.3533 0.00719608 0)
(7.35489 0.00712734 0)
(7.3565 0.00703993 0)
(7.35814 0.00693479 0)
(7.35979 0.00681119 0)
(7.36148 0.00666655 0)
(7.3632 0.00649634 0)
(7.36496 0.00629395 0)
(7.36676 0.00605077 0)
(7.36861 0.00575632 0)
(7.37051 0.00539867 0)
(7.37245 0.00496507 0)
(7.37442 0.00444283 0)
(7.37642 0.00382035 0)
(7.37843 0.0030881 0)
(7.38044 0.00223973 0)
(7.38236 0.00128355 0)
(7.33303 0.000524889 0)
(7.33327 0.00153497 0)
(7.33379 0.00236403 0)
(7.33455 0.00311589 0)
(7.33551 0.00377978 0)
(7.33661 0.00435327 0)
(7.33783 0.00483654 0)
(7.33915 0.00523179 0)
(7.34054 0.00554389 0)
(7.34198 0.00577992 0)
(7.34346 0.00594809 0)
(7.34496 0.00605683 0)
(7.34648 0.00611424 0)
(7.34801 0.00612784 0)
(7.34956 0.00610423 0)
(7.35112 0.00604898 0)
(7.35268 0.00596644 0)
(7.35426 0.00585966 0)
(7.35586 0.00573033 0)
(7.35747 0.00557868 0)
(7.35911 0.00540343 0)
(7.36077 0.00520166 0)
(7.36246 0.00496886 0)
(7.36418 0.0046989 0)
(7.36593 0.00438416 0)
(7.36772 0.0040158 0)
(7.36954 0.00358415 0)
(7.37138 0.00307926 0)
(7.37325 0.0024916 0)
(7.37513 0.00181284 0)
(7.37702 0.00103641 0)
(7.37888 0.000158318 0)
(7.38067 -0.000813186 0)
(7.33303 0.000448467 0)
(7.33326 0.00130999 0)
(7.33375 0.0019952 0)
(7.33447 0.00261603 0)
(7.33537 0.00316415 0)
(7.33642 0.00363757 0)
(7.33759 0.00403544 0)
(7.33886 0.00435838 0)
(7.3402 0.00460931 0)
(7.3416 0.00479314 0)
(7.34304 0.00491599 0)
(7.34451 0.0049844 0)
(7.346 0.00500484 0)
(7.34751 0.00498334 0)
(7.34903 0.00492526 0)
(7.35057 0.00483504 0)
(7.35211 0.00471606 0)
(7.35367 0.00457054 0)
(7.35525 0.00439946 0)
(7.35684 0.0042025 0)
(7.35845 0.00397801 0)
(7.36008 0.00372299 0)
(7.36173 0.00343315 0)
(7.3634 0.00310296 0)
(7.3651 0.00272589 0)
(7.36682 0.00229459 0)
(7.36856 0.00180136 0)
(7.37032 0.0012385 0)
(7.37209 0.000598972 0)
(7.37385 -0.000123162 0)
(7.37562 -0.000932288 0)
(7.37735 -0.00183083 0)
(7.37901 -0.00281077 0)
(7.33302 0.000374059 0)
(7.33325 0.001091 0)
(7.33371 0.00163634 0)
(7.33439 0.00212865 0)
(7.33525 0.00256159 0)
(7.33625 0.00293377 0)
(7.33738 0.00324386 0)
(7.3386 0.00349125 0)
(7.3399 0.00367727 0)
(7.34126 0.00380505 0)
(7.34266 0.00387883 0)
(7.3441 0.00390345 0)
(7.34556 0.00388383 0)
(7.34705 0.00382463 0)
(7.34855 0.00373 0)
(7.35006 0.00360332 0)
(7.35159 0.00344709 0)
(7.35312 0.00326278 0)
(7.35467 0.0030508 0)
(7.35624 0.0028104 0)
(7.35782 0.00253974 0)
(7.35941 0.00223588 0)
(7.36102 0.00189487 0)
(7.36264 0.00151186 0)
(7.36428 0.00108129 0)
(7.36594 0.000597217 0)
(7.3676 5.35567e-05 0)
(7.36927 -0.000555534 0)
(7.37094 -0.00123523 0)
(7.3726 -0.00198968 0)
(7.37424 -0.0028217 0)
(7.37586 -0.00373261 0)
(7.3774 -0.00471479 0)
(7.33302 0.000301302 0)
(7.33324 0.000876839 0)
(7.33368 0.00128556 0)
(7.33433 0.0016513 0)
(7.33515 0.00196938 0)
(7.33611 0.00223921 0)
(7.33719 0.00245927 0)
(7.33837 0.00262815 0)
(7.33964 0.00274592 0)
(7.34096 0.00281417 0)
(7.34233 0.00283556 0)
(7.34374 0.00281337 0)
(7.34518 0.00275106 0)
(7.34664 0.00265203 0)
(7.34811 0.00251927 0)
(7.3496 0.0023552 0)
(7.3511 0.0021615 0)
(7.35262 0.00193897 0)
(7.35414 0.00168754 0)
(7.35567 0.00140617 0)
(7.35722 0.00109291 0)
(7.35877 0.000744976 0)
(7.36033 0.000358808 0)
(7.3619 -6.97674e-05 0)
(7.36348 -0.000545376 0)
(7.36507 -0.00107281 0)
(7.36665 -0.00165681 0)
(7.36823 -0.00230174 0)
(7.36981 -0.00301136 0)
(7.37137 -0.00378848 0)
(7.37291 -0.00463485 0)
(7.37441 -0.00555099 0)
(7.37584 -0.0065297 0)
(7.33302 0.000229851 0)
(7.33323 0.000666438 0)
(7.33365 0.000941133 0)
(7.33427 0.00118167 0)
(7.33506 0.00138491 0)
(7.33598 0.00155112 0)
(7.33703 0.00167901 0)
(7.33818 0.00176665 0)
(7.33941 0.00181311 0)
(7.3407 0.00181875 0)
(7.34204 0.00178484 0)
(7.34342 0.00171324 0)
(7.34483 0.0016061 0)
(7.34627 0.00146561 0)
(7.34772 0.00129369 0)
(7.34919 0.00109184 0)
(7.35066 0.00086098 0)
(7.35215 0.000601355 0)
(7.35364 0.000312467 0)
(7.35514 -6.93035e-06 0)
(7.35665 -0.000358809 0)
(7.35816 -0.000745781 0)
(7.35968 -0.00117099 0)
(7.36119 -0.001638 0)
(7.36271 -0.0021506 0)
(7.36422 -0.00271264 0)
(7.36573 -0.00332774 0)
(7.36723 -0.00399918 0)
(7.36871 -0.00472959 0)
(7.37018 -0.00552085 0)
(7.37162 -0.00637387 0)
(7.37302 -0.0072887 0)
(7.37434 -0.00825856 0)
(7.33302 0.000159394 0)
(7.33322 0.000458821 0)
(7.33362 0.000601446 0)
(7.33422 0.000717588 0)
(7.33498 0.000805542 0)
(7.33587 0.000866698 0)
(7.33689 0.000900231 0)
(7.33801 0.000904005 0)
(7.33921 0.000876386 0)
(7.34047 0.000816677 0)
(7.34179 0.000724947 0)
(7.34315 0.0006018 0)
(7.34454 0.000448166 0)
(7.34595 0.000265078 0)
(7.34738 5.34669e-05 0)
(7.34882 -0.00018602 0)
(7.35027 -0.000453165 0)
(7.35173 -0.000748253 0)
(7.35319 -0.00107213 0)
(7.35465 -0.00142622 0)
(7.35612 -0.00181247 0)
(7.35759 -0.00223329 0)
(7.35905 -0.00269147 0)
(7.36052 -0.00319003 0)
(7.36197 -0.00373207 0)
(7.36342 -0.00432062 0)
(7.36485 -0.00495848 0)
(7.36627 -0.00564802 0)
(7.36767 -0.00639108 0)
(7.36904 -0.00718881 0)
(7.37038 -0.0080416 0)
(7.37168 -0.00894915 0)
(7.37291 -0.00990512 0)
(7.33302 8.96758e-05 0)
(7.33321 0.000253169 0)
(7.3336 0.000265083 0)
(7.33418 0.000256963 0)
(7.33491 0.000228645 0)
(7.33578 0.000182934 0)
(7.33677 0.000119799 0)
(7.33787 3.71481e-05 0)
(7.33904 -6.71554e-05 0)
(7.34028 -0.000194643 0)
(7.34158 -0.000346301 0)
(7.34291 -0.00052268 0)
(7.34428 -0.000723999 0)
(7.34567 -0.000950292 0)
(7.34708 -0.00120158 0)
(7.3485 -0.00147801 0)
(7.34992 -0.00178003 0)
(7.35135 -0.00210839 0)
(7.35278 -0.00246427 0)
(7.35421 -0.00284923 0)
(7.35564 -0.00326522 0)
(7.35706 -0.00371447 0)
(7.35848 -0.00419944 0)
(7.35988 -0.00472269 0)
(7.36128 -0.00528677 0)
(7.36266 -0.00589408 0)
(7.36402 -0.00654674 0)
(7.36536 -0.00724648 0)
(7.36667 -0.00799452 0)
(7.36796 -0.00879153 0)
(7.36921 -0.00963751 0)
(7.37042 -0.010532 0)
(7.37156 -0.011469 0)
(7.33302 2.05362e-05 0)
(7.3332 4.89035e-05 0)
(7.33358 -6.91196e-05 0)
(7.33414 -0.000202154 0)
(7.33485 -0.00034849 0)
(7.3357 -0.000503403 0)
(7.33667 -0.000665788 0)
(7.33775 -0.000837485 0)
(7.3389 -0.00102094 0)
(7.34013 -0.00121836 0)
(7.3414 -0.00143165 0)
(7.34272 -0.00166247 0)
(7.34407 -0.00191214 0)
(7.34544 -0.00218174 0)
(7.34683 -0.00247222 0)
(7.34822 -0.00278451 0)
(7.34962 -0.00311968 0)
(7.35102 -0.00347894 0)
(7.35242 -0.00386378 0)
(7.35382 -0.00427589 0)
(7.35521 -0.0047172 0)
(7.35658 -0.00518981 0)
(7.35795 -0.00569589 0)
(7.3593 -0.00623766 0)
(7.36064 -0.00681719 0)
(7.36195 -0.0074364 0)
(7.36324 -0.00809689 0)
(7.36451 -0.00879992 0)
(7.36574 -0.00954626 0)
(7.36695 -0.0103362 0)
(7.36811 -0.0111696 0)
(7.36924 -0.0120457 0)
(7.37029 -0.0129592 0)
(7.33302 -4.80218e-05 0)
(7.3332 -0.000154133 0)
(7.33356 -0.000401911 0)
(7.3341 -0.000661545 0)
(7.3348 -0.000928698 0)
(7.33563 -0.0011959 0)
(7.33659 -0.00146054 0)
(7.33765 -0.00172405 0)
(7.33879 -0.00198908 0)
(7.34001 -0.00225835 0)
(7.34127 -0.00253464 0)
(7.34257 -0.00282063 0)
(7.34391 -0.00311869 0)
(7.34526 -0.00343089 0)
(7.34663 -0.00375909 0)
(7.348 -0.004105 0)
(7.34938 -0.00447031 0)
(7.35075 -0.00485674 0)
(7.35212 -0.00526608 0)
(7.35348 -0.00570021 0)
(7.35483 -0.00616111 0)
(7.35616 -0.00665077 0)
(7.35748 -0.0071712 0)
(7.35878 -0.00772432 0)
(7.36006 -0.00831189 0)
(7.36131 -0.00893544 0)
(7.36253 -0.00959622 0)
(7.36373 -0.0102951 0)
(7.36489 -0.0110327 0)
(7.36602 -0.0118089 0)
(7.3671 -0.0126235 0)
(7.36815 -0.0134757 0)
(7.36912 -0.0143607 0)
(7.33302 -0.000115694 0)
(7.33319 -0.000355364 0)
(7.33354 -0.00073336 0)
(7.33406 -0.00112274 0)
(7.33475 -0.00151502 0)
(7.33557 -0.0018987 0)
(7.33652 -0.00226925 0)
(7.33757 -0.0026276 0)
(7.33871 -0.00297644 0)
(7.33992 -0.00331911 0)
(7.34117 -0.00365941 0)
(7.34247 -0.00400123 0)
(7.34379 -0.00434808 0)
(7.34513 -0.00470305 0)
(7.34648 -0.00506886 0)
(7.34784 -0.00544793 0)
(7.34919 -0.00584252 0)
(7.35054 -0.00625475 0)
(7.35188 -0.00668667 0)
(7.35321 -0.00714032 0)
(7.35452 -0.0076177 0)
(7.35581 -0.00812074 0)
(7.35708 -0.00865131 0)
(7.35833 -0.0092111 0)
(7.35955 -0.00980164 0)
(7.36074 -0.0104242 0)
(7.3619 -0.0110798 0)
(7.36303 -0.011769 0)
(7.36412 -0.0124923 0)
(7.36518 -0.0132495 0)
(7.36619 -0.0140401 0)
(7.36716 -0.0148636 0)
(7.36805 -0.0157151 0)
(7.33302 -0.000181598 0)
(7.33318 -0.000552849 0)
(7.33351 -0.00106242 0)
(7.33402 -0.00158699 0)
(7.33469 -0.00211076 0)
(7.33551 -0.00261646 0)
(7.33646 -0.00309768 0)
(7.33751 -0.00355483 0)
(7.33865 -0.00399016 0)
(7.33986 -0.00440704 0)
(7.34111 -0.00481013 0)
(7.3424 -0.00520459 0)
(7.34372 -0.00559532 0)
(7.34505 -0.00598672 0)
(7.34639 -0.00638272 0)
(7.34773 -0.00678677 0)
(7.34906 -0.00720191 0)
(7.35039 -0.00763091 0)
(7.3517 -0.00807623 0)
(7.353 -0.00854017 0)
(7.35427 -0.00902483 0)
(7.35552 -0.00953218 0)
(7.35675 -0.010064 0)
(7.35795 -0.0106218 0)
(7.35912 -0.0112069 0)
(7.36025 -0.0118204 0)
(7.36136 -0.0124632 0)
(7.36242 -0.0131356 0)
(7.36345 -0.013838 0)
(7.36443 -0.01457 0)
(7.36538 -0.0153314 0)
(7.36627 -0.0161215 0)
(7.3671 -0.0169364 0)
(7.33302 -0.000243696 0)
(7.33316 -0.000741979 0)
(7.33347 -0.00138603 0)
(7.33395 -0.00205544 0)
(7.33462 -0.00272047 0)
(7.33544 -0.00335487 0)
(7.3364 -0.00395108 0)
(7.33746 -0.0045108 0)
(7.33861 -0.00503735 0)
(7.33982 -0.00553519 0)
(7.34109 -0.00601 0)
(7.34239 -0.0064677 0)
(7.3437 -0.00691372 0)
(7.34503 -0.007353 0)
(7.34636 -0.00778995 0)
(7.34769 -0.00822856 0)
(7.34901 -0.00867232 0)
(7.35031 -0.00912439 0)
(7.3516 -0.00958759 0)
(7.35286 -0.0100645 0)
(7.35411 -0.0105574 0)
(7.35532 -0.0110683 0)
(7.3565 -0.0115992 0)
(7.35766 -0.0121516 0)
(7.35877 -0.0127269 0)
(7.35986 -0.0133261 0)
(7.3609 -0.01395 0)
(7.36191 -0.014599 0)
(7.36287 -0.0152735 0)
(7.36379 -0.0159731 0)
(7.36467 -0.0166975 0)
(7.3655 -0.0174461 0)
(7.36625 -0.0182149 0)
(7.33301 -0.000297553 0)
(7.33313 -0.000913224 0)
(7.33339 -0.00169714 0)
(7.33385 -0.00252717 0)
(7.33451 -0.00335034 0)
(7.33535 -0.00412751 0)
(7.33632 -0.004846 0)
(7.3374 -0.00550385 0)
(7.33857 -0.00610386 0)
(7.3398 -0.00665395 0)
(7.34107 -0.00716487 0)
(7.34237 -0.00764701 0)
(7.34369 -0.00810922 0)
(7.34502 -0.00855899 0)
(7.34635 -0.00900263 0)
(7.34767 -0.00944533 0)
(7.34898 -0.00989135 0)
(7.35027 -0.0103442 0)
(7.35153 -0.0108068 0)
(7.35277 -0.0112816 0)
(7.35398 -0.0117708 0)
(7.35516 -0.0122762 0)
(7.35631 -0.0127993 0)
(7.35742 -0.0133415 0)
(7.3585 -0.0139037 0)
(7.35953 -0.0144869 0)
(7.36053 -0.0150916 0)
(7.36148 -0.015718 0)
(7.36239 -0.0163662 0)
(7.36325 -0.0170362 0)
(7.36407 -0.0177275 0)
(7.36484 -0.0184399 0)
(7.36554 -0.0191703 0)
(7.33301 -0.000332728 0)
(7.33307 -0.00104868 0)
(7.33326 -0.00198827 0)
(7.33367 -0.0029982 0)
(7.33433 -0.00398778 0)
(7.3352 -0.00492469 0)
(7.33621 -0.00580992 0)
(7.33734 -0.00663853 0)
(7.33855 -0.00740278 0)
(7.33982 -0.00810283 0)
(7.34113 -0.00874545 0)
(7.34245 -0.00933927 0)
(7.34379 -0.00989292 0)
(7.34512 -0.0104148 0)
(7.34644 -0.0109129 0)
(7.34775 -0.0113941 0)
(7.34904 -0.0118648 0)
(7.3503 -0.0123302 0)
(7.35154 -0.0127949 0)
(7.35275 -0.0132626 0)
(7.35393 -0.0137368 0)
(7.35507 -0.0142203 0)
(7.35618 -0.0147152 0)
(7.35724 -0.0152236 0)
(7.35827 -0.015747 0)
(7.35926 -0.0162867 0)
(7.3602 -0.0168433 0)
(7.3611 -0.0174176 0)
(7.36195 -0.0180098 0)
(7.36276 -0.0186198 0)
(7.36352 -0.0192472 0)
(7.36423 -0.0198916 0)
(7.36486 -0.0205497 0)
(7.33299 -0.000323022 0)
(7.33294 -0.00109939 0)
(7.33299 -0.00225531 0)
(7.33336 -0.00352626 0)
(7.33403 -0.00468693 0)
(7.33489 -0.00567503 0)
(7.3359 -0.00652124 0)
(7.33704 -0.00726021 0)
(7.33828 -0.00791742 0)
(7.33958 -0.00851524 0)
(7.34092 -0.00907192 0)
(7.34228 -0.00960044 0)
(7.34364 -0.0101099 0)
(7.345 -0.0106073 0)
(7.34635 -0.0110975 0)
(7.34767 -0.0115845 0)
(7.34897 -0.0120711 0)
(7.35024 -0.0125596 0)
(7.35148 -0.0130521 0)
(7.35268 -0.0135501 0)
(7.35384 -0.0140552 0)
(7.35497 -0.0145687 0)
(7.35605 -0.0150916 0)
(7.35709 -0.0156251 0)
(7.35809 -0.0161699 0)
(7.35904 -0.0167267 0)
(7.35995 -0.0172961 0)
(7.36081 -0.0178782 0)
(7.36163 -0.0184734 0)
(7.36239 -0.0190816 0)
(7.36311 -0.0197029 0)
(7.36379 -0.0203372 0)
(7.36439 -0.0209827 0)
(7.33295 -0.000224233 0)
(7.33262 -0.000955849 0)
(7.3324 -0.00231463 0)
(7.33274 -0.00401936 0)
(7.33359 -0.00582624 0)
(7.33467 -0.00758255 0)
(7.33584 -0.00917574 0)
(7.33709 -0.0105448 0)
(7.33838 -0.01169 0)
(7.3397 -0.0126426 0)
(7.34102 -0.0134373 0)
(7.34235 -0.0141048 0)
(7.34367 -0.014673 0)
(7.34498 -0.0151663 0)
(7.34628 -0.0156051 0)
(7.34756 -0.0160055 0)
(7.34881 -0.0163802 0)
(7.35004 -0.016739 0)
(7.35125 -0.0170899 0)
(7.35242 -0.0174389 0)
(7.35355 -0.0177906 0)
(7.35465 -0.0181485 0)
(7.35571 -0.0185155 0)
(7.35673 -0.0188936 0)
(7.35771 -0.0192844 0)
(7.35865 -0.0196888 0)
(7.35954 -0.0201078 0)
(7.36039 -0.0205415 0)
(7.36119 -0.0209902 0)
(7.36194 -0.0214536 0)
(7.36265 -0.0219313 0)
(7.3633 -0.0224226 0)
(7.36388 -0.0229249 0)
(7.3329 0.00011016 0)
(7.33207 -0.00091541 0)
(7.33124 -0.00230356 0)
(7.33106 -0.00304295 0)
(7.33152 -0.00338385 0)
(7.33242 -0.00378417 0)
(7.33365 -0.00435468 0)
(7.33509 -0.00503424 0)
(7.33662 -0.00577767 0)
(7.3382 -0.00656749 0)
(7.33977 -0.00738657 0)
(7.34132 -0.00821604 0)
(7.34285 -0.00904164 0)
(7.34435 -0.00985464 0)
(7.34582 -0.0106499 0)
(7.34725 -0.0114244 0)
(7.34864 -0.0121772 0)
(7.34999 -0.0129083 0)
(7.3513 -0.0136189 0)
(7.35258 -0.0143106 0)
(7.35381 -0.0149852 0)
(7.35501 -0.0156447 0)
(7.35616 -0.0162913 0)
(7.35727 -0.0169269 0)
(7.35833 -0.0175533 0)
(7.35935 -0.0181723 0)
(7.36033 -0.0187855 0)
(7.36125 -0.0193941 0)
(7.36213 -0.0199993 0)
(7.36297 -0.0206021 0)
(7.36375 -0.0212033 0)
(7.36449 -0.0218036 0)
(7.36516 -0.022402 0)
(7.33241 0.00206478 0)
(7.33046 -0.000599896 0)
(7.3303 -0.00736881 0)
(7.33137 -0.0138528 0)
(7.33232 -0.0185937 0)
(7.33301 -0.021792 0)
(7.33379 -0.0238643 0)
(7.3348 -0.0251159 0)
(7.33597 -0.0257858 0)
(7.33726 -0.0260648 0)
(7.33866 -0.0260937 0)
(7.34015 -0.0259711 0)
(7.34172 -0.0257655 0)
(7.34333 -0.0255232 0)
(7.34499 -0.0252747 0)
(7.34665 -0.0250395 0)
(7.34833 -0.0248298 0)
(7.35 -0.0246527 0)
(7.35165 -0.0245121 0)
(7.35328 -0.0244095 0)
(7.35488 -0.0243449 0)
(7.35645 -0.0243177 0)
(7.35797 -0.0243265 0)
(7.35944 -0.0243697 0)
(7.36087 -0.0244456 0)
(7.36224 -0.0245523 0)
(7.36356 -0.024688 0)
(7.36482 -0.024851 0)
(7.36602 -0.0250395 0)
(7.36717 -0.0252519 0)
(7.36825 -0.0254868 0)
(7.36926 -0.025743 0)
(7.37019 -0.026018 0)
(7.32878 0.00627798 0)
(7.31726 0.017947 0)
(7.31241 0.0251086 0)
(7.31392 0.0271181 0)
(7.31773 0.0257686 0)
(7.32186 0.0229184 0)
(7.32603 0.0195252 0)
(7.3302 0.0159461 0)
(7.33429 0.012363 0)
(7.33824 0.00891344 0)
(7.34205 0.00568136 0)
(7.34573 0.00269804 0)
(7.34927 -3.45874e-05 0)
(7.35269 -0.00252649 0)
(7.35598 -0.00479309 0)
(7.35916 -0.00685295 0)
(7.36222 -0.00872581 0)
(7.36516 -0.0104311 0)
(7.36799 -0.0119869 0)
(7.37071 -0.0134099 0)
(7.37332 -0.0147153 0)
(7.37582 -0.0159168 0)
(7.37821 -0.0170263 0)
(7.38049 -0.0180548 0)
(7.38267 -0.0190117 0)
(7.38475 -0.0199054 0)
(7.38672 -0.0207433 0)
(7.38859 -0.0215318 0)
(7.39036 -0.0222765 0)
(7.39204 -0.022982 0)
(7.39362 -0.0236524 0)
(7.39511 -0.02429 0)
(7.39648 -0.0248966 0)
(7.33379 -0.0332977 0)
(7.33301 -0.0723041 0)
(7.32812 -0.0857058 0)
(7.32658 -0.0871717 0)
(7.33016 -0.0848088 0)
(7.33739 -0.0808672 0)
(7.34634 -0.0760488 0)
(7.35583 -0.071011 0)
(7.3653 -0.0662116 0)
(7.37452 -0.061824 0)
(7.38332 -0.0578769 0)
(7.39161 -0.0543613 0)
(7.39934 -0.0512552 0)
(7.40651 -0.0485255 0)
(7.41315 -0.0461336 0)
(7.41926 -0.0440411 0)
(7.42488 -0.0422129 0)
(7.43003 -0.0406172 0)
(7.43475 -0.0392258 0)
(7.43905 -0.0380138 0)
(7.44297 -0.0369593 0)
(7.44654 -0.0360435 0)
(7.44976 -0.0352498 0)
(7.45267 -0.0345641 0)
(7.45528 -0.0339739 0)
(7.45761 -0.0334685 0)
(7.45969 -0.0330386 0)
(7.46152 -0.0326761 0)
(7.46312 -0.0323739 0)
(7.46451 -0.0321263 0)
(7.46569 -0.031928 0)
(7.46669 -0.0317754 0)
(7.46748 -0.0316624 0)
(7.33141 0.164998 0)
(7.34787 0.185187 0)
(7.36035 0.152143 0)
(7.35674 0.118027 0)