/*--------------------------------*- C++ -*----------------------------------*\
  =========                 |
  \\      /  F ield         | OpenFOAM: The Open Source CFD Toolbox
   \\    /   O peration     | Website:  https://openfoam.org
    \\  /    A nd           | Version:  10
     \\/     M anipulation  |
\*---------------------------------------------------------------------------*/
FoamFile
{
    format      ascii;
    class       volScalarField;
    location    "1500";
    object      yPlus;
}
// * * * * * * * * * * * * * * * * * * * * * * * * * * * * * * * * * * * * * //

dimensions      [0 0 0 0 0 0 0];

internalField   uniform 0;

boundaryField
{
    outlet
    {
        type            calculated;
        value           uniform 0;
    }
    inlet
    {
        type            calculated;
        value           uniform 0;
    }
    lowerWall
    {
        type            calculated;
        value           nonuniform List<scalar> 
148
(
9.9937
9.87583
9.76655
9.65574
9.54325
9.43224
9.32599
9.22673
9.1358
9.05369
8.98048
8.91583
8.85928
8.81028
8.76823
8.73251
8.70249
8.67769
8.65752
8.64153
8.6293
8.62034
8.61438
8.61102
8.60999
8.61105
8.61382
8.61864
8.62158
8.64751
8.5553
8.92
8.02827
5.29299
7.98116
9.61144
10.7754
11.4145
11.3344
11.6503
11.3217
11.5817
11.7515
11.9111
12.1645
12.8649
18.0124
20.8286
5.29299
11.9024
12.5352
12.8419
12.8858
12.7242
12.4781
12.2431
12.1639
12.414
13.2503
15.2516
18.5878
22.4143
26.2321
29.8703
33.2814
36.4625
39.4269
42.1929
44.7782
47.1994
49.4716
51.608
53.6209
55.521
57.3184
59.0217
60.6381
62.1739
63.6341
65.0225
66.342
67.5949
68.7829
69.909
70.9778
71.9961
72.9611
73.8629
74.7046
75.4844
76.1998
76.8478
77.4255
77.9301
78.3596
78.7125
78.9883
79.1878
79.3128
79.367
79.3552
79.2836
79.1595
78.9906
78.7849
78.5496
78.2911
78.014
77.7214
77.4152
77.0954
76.7606
76.4081
76.0331
75.6334
75.2116
74.78
74.3879
74.1903
74.1233
74.042
73.9042
73.6919
73.3935
73.0007
72.509
71.9179
71.231
70.4565
69.6062
68.6946
67.7383
66.7544
65.7599
64.7709
63.8019
62.8656
61.9727
61.1321
60.3503
59.6322
58.9805
58.3964
57.8796
57.4267
57.0434
56.7112
56.4109
)
;
    }
    upperWall
    {
        type            calculated;
        value           nonuniform List<scalar> 
133
(
30.6045
31.4255
32.2162
32.9719
33.6929
34.3806
35.0365
35.6618
36.2577
36.8253
37.3656
37.8796
38.3685
38.8332
39.2747
39.6941
40.0922
40.4701
40.8286
41.1686
41.4911
41.7967
42.0865
42.361
42.6211
42.8675
43.1009
43.322
43.5314
43.7296
43.9173
44.095
44.2634
44.4484
44.6506
44.846
45.0342
45.2151
45.3886
45.5546
45.7128
45.8632
46.0058
46.1403
46.2667
46.3849
46.4948
46.5962
46.6892
46.7736
46.8493
46.9162
46.9743
47.0235
47.0635
47.0944
47.1161
47.1283
47.1311
47.1241
47.1073
47.0805
47.0436
46.9964
46.9385
46.87
46.7904
46.6997
46.5974
46.4835
46.3576
46.2196
46.0691
45.9061
45.7302
45.5414
45.3396
45.1246
44.8967
44.6559
44.4022
44.1362
43.8582
43.5689
43.269
42.9592
42.6409
42.315
41.9833
41.6471
41.3084
40.9692
40.6316
40.2981
39.971
39.6529
39.3466
39.0545
38.7792
38.523
38.2879
38.0756
37.8872
37.7234
37.5841
37.4687
37.3757
37.3032
37.2487
37.2092
37.1815
37.1624
37.1485
37.1368
37.1242
37.1092
37.0896
37.0633
37.0291
36.9862
36.9341
36.8727
36.8014
36.7209
36.6327
36.5372
36.4346
36.3256
36.2102
36.091
35.9606
35.8506
35.6365
)
;
    }
    frontAndBack
    {
        type            empty;
    }
}


// ************************************************************************* //
