/*--------------------------------*- C++ -*----------------------------------*\
  =========                 |
  \\      /  F ield         | OpenFOAM: The Open Source CFD Toolbox
   \\    /   O peration     | Website:  https://openfoam.org
    \\  /    A nd           | Version:  10
     \\/     M anipulation  |
\*---------------------------------------------------------------------------*/
FoamFile
{
    format      ascii;
    class       volScalarField;
    location    "2000";
    object      nut;
}
// * * * * * * * * * * * * * * * * * * * * * * * * * * * * * * * * * * * * * //

dimensions      [0 2 -1 0 0 0 0];

internalField   nonuniform List<scalar> 
6820
(
5.21161e-05
7.23496e-05
8.49506e-05
9.15131e-05
9.44881e-05
9.54259e-05
9.5224e-05
9.44044e-05
9.32791e-05
9.20325e-05
9.07694e-05
8.9546e-05
8.83905e-05
8.73146e-05
8.63208e-05
8.54064e-05
8.45665e-05
8.37952e-05
8.30862e-05
8.24336e-05
8.18319e-05
8.12759e-05
8.07612e-05
8.02835e-05
7.98394e-05
7.94254e-05
7.90387e-05
7.86767e-05
7.83358e-05
7.80191e-05
7.76974e-05
7.7497e-05
7.65887e-05
0.00148779
0.000914493
0.000722323
0.000566086
0.000444965
0.000364554
0.000311028
0.000273876
0.000246823
0.000226542
0.000210742
0.000198386
0.000188225
0.000179921
0.000173043
0.000167267
0.000162375
0.000158201
0.000154618
0.000151526
0.000148847
0.000146516
0.000144481
0.0001427
0.000141136
0.000139761
0.000138546
0.000137476
0.000136513
0.000135666
0.000134886
0.000134241
0.000133421
0.00388235
0.00172611
0.00129522
0.00105715
0.000883653
0.000756982
0.000663656
0.000593356
0.000538662
0.00049523
0.000459793
0.000430501
0.000405787
0.000384676
0.000366437
0.000350536
0.00033655
0.000324169
0.000313134
0.000303255
0.000294361
0.00028633
0.000279044
0.000272419
0.000266375
0.000260843
0.00025577
0.000251106
0.000246803
0.00024284
0.000239126
0.000235718
0.000232411
0.00701486
0.0030933
0.00211865
0.00169399
0.00142842
0.00124177
0.00110356
0.000997707
0.000914036
0.000846515
0.000790841
0.000744244
0.000704627
0.00067054
0.000640856
0.000614798
0.000591689
0.000571093
0.000552563
0.000535857
0.000520648
0.00050682
0.000494102
0.00048247
0.000471667
0.000461753
0.000452451
0.000443906
0.000435795
0.000428355
0.00042118
0.00041463
0.000408178
0.00947863
0.00539464
0.00361892
0.00279676
0.00231358
0.00199145
0.00176049
0.00158676
0.00145105
0.00134224
0.00125305
0.0011787
0.00111573
0.00106176
0.00101494
0.000973976
0.000937768
0.00090559
0.000876723
0.000850759
0.000827178
0.000805769
0.000786121
0.000768155
0.000751511
0.00073621
0.00072191
0.000708708
0.000696265
0.000684735
0.000673772
0.000663575
0.000653787
0.0106282
0.0077634
0.00561756
0.00439956
0.00363522
0.00311496
0.00273997
0.0024579
0.00223822
0.00206258
0.00191909
0.00179982
0.00169916
0.00161315
0.00153881
0.00147397
0.00141689
0.00136632
0.00132114
0.00128061
0.00124396
0.00121076
0.00118045
0.00115276
0.00112725
0.00110379
0.00108203
0.00106189
0.00104308
0.00102558
0.00100912
0.000993728
0.000979156
0.0110845
0.00948062
0.00757881
0.00621462
0.00525
0.00454844
0.00402207
0.00361581
0.00329415
0.00303404
0.00281986
0.00264081
0.0024891
0.00235911
0.00224655
0.00214826
0.00206171
0.001985
0.00191653
0.00185511
0.00179967
0.00174945
0.0017037
0.00166192
0.00162356
0.00158827
0.00155565
0.00152546
0.00149738
0.00147124
0.0014468
0.00142393
0.00140242
0.0112619
0.0104723
0.00911496
0.00788286
0.00688557
0.00609514
0.00546645
0.00496065
0.00454794
0.00420654
0.00392048
0.003678
0.0034703
0.00329072
0.00313412
0.00299655
0.00287483
0.00276649
0.00266949
0.00258223
0.00250332
0.00243168
0.00236636
0.00230661
0.00225173
0.0022012
0.0021545
0.00211125
0.00207106
0.00203364
0.0019987
0.00196601
0.00193535
0.0113319
0.0109613
0.0101483
0.00919368
0.00831236
0.00754597
0.00689415
0.00634289
0.00587565
0.00547744
0.00513576
0.00484048
0.00458348
0.0043583
0.00415971
0.00398356
0.00382644
0.00368559
0.00355871
0.00344394
0.00333968
0.00324463
0.00315767
0.00307786
0.00300437
0.00293652
0.0028737
0.00281541
0.00276117
0.0027106
0.00266335
0.00261911
0.00257762
0.0113604
0.011191
0.0107577
0.0101061
0.00941912
0.00876179
0.00816143
0.00762515
0.00715071
0.0067323
0.00636312
0.00603663
0.00574692
0.00548886
0.00525806
0.00505083
0.00486401
0.00469496
0.00454144
0.00440155
0.00427365
0.00415638
0.00404851
0.00394905
0.00385709
0.00377187
0.0036927
0.003619
0.00355025
0.00348599
0.00342582
0.00336939
0.00331639
0.0113724
0.0112961
0.0110835
0.0106835
0.0102001
0.00969075
0.00919015
0.00871656
0.00827792
0.00787638
0.00751102
0.00717947
0.00687877
0.00660587
0.00635782
0.00613193
0.00592576
0.00573715
0.00556418
0.00540518
0.00525867
0.00512338
0.00499815
0.004882
0.00477404
0.00467351
0.00457971
0.00449205
0.00440997
0.004333
0.00426072
0.00419274
0.00412873
0.0113776
0.0113432
0.0112429
0.0110225
0.0107093
0.010347
0.00996381
0.0095792
0.00920549
0.00884962
0.00851496
0.0082027
0.00791267
0.007644
0.0073954
0.00716543
0.00695261
0.00675551
0.00657276
0.0064031
0.00624538
0.00609854
0.00596162
0.00583378
0.00571423
0.00560227
0.00549727
0.00539867
0.00530595
0.00521865
0.00513637
0.00505872
0.00498537
0.01138
0.0113641
0.0113177
0.0112066
0.0110186
0.0107798
0.0105077
0.0102177
0.00992165
0.00962789
0.0093419
0.00906704
0.00880518
0.0085572
0.00832327
0.00810316
0.00789638
0.00770227
0.00752011
0.00734915
0.00718865
0.00703788
0.00689615
0.00676281
0.00663727
0.00651895
0.00640735
0.00630197
0.0062024
0.00610821
0.00601905
0.00593458
0.00585449
0.0113814
0.0113732
0.0113518
0.0112994
0.0111948
0.0110479
0.0108673
0.0106628
0.0104433
0.010216
0.00998659
0.00975918
0.00953663
0.00932089
0.00911314
0.00891408
0.00872401
0.00854299
0.00837089
0.00820745
0.00805235
0.00790524
0.00776571
0.00763336
0.00750781
0.00738866
0.00727555
0.00716812
0.00706604
0.00696899
0.00687668
0.00678883
0.00670518
0.0113823
0.0113772
0.011367
0.0113426
0.0112898
0.0112045
0.0110919
0.0109563
0.0108031
0.0106375
0.010464
0.0102863
0.0101076
0.00992993
0.00975513
0.00958437
0.0094185
0.00925805
0.00910337
0.0089546
0.0088118
0.00867492
0.00854383
0.0084184
0.00829842
0.00818371
0.00807405
0.00796922
0.00786901
0.0077732
0.00768158
0.00759397
0.00751016
0.0113826
0.0113796
0.0113738
0.0113622
0.0113373
0.011291
0.0112247
0.0111398
0.0110388
0.0109247
0.0108005
0.0106691
0.0105329
0.0103941
0.0102543
0.010115
0.00997716
0.00984165
0.00970905
0.00957979
0.00945418
0.00933241
0.0092146
0.00910079
0.00899097
0.00888512
0.00878317
0.00868502
0.00859057
0.00849973
0.00841237
0.00832837
0.00824761
0.0113825
0.0113808
0.0113772
0.011371
0.0113592
0.0113362
0.0112992
0.0112488
0.0111857
0.0111111
0.0110267
0.0109344
0.0108358
0.0107325
0.0106261
0.0105178
0.0104085
0.0102992
0.0101906
0.0100832
0.00997743
0.00987368
0.00977219
0.00967315
0.00957669
0.0094829
0.00939182
0.00930348
0.00921788
0.009135
0.0090548
0.00897724
0.00890226
0.0113825
0.0113812
0.0113791
0.0113752
0.0113691
0.0113581
0.0113388
0.0113103
0.0112727
0.0112264
0.0111719
0.0111101
0.0110421
0.0109689
0.0108916
0.0108111
0.0107284
0.0106441
0.0105589
0.0104734
0.0103881
0.0103033
0.0102194
0.0101366
0.0100552
0.00997526
0.00989698
0.00982044
0.0097457
0.00967282
0.00960183
0.00953274
0.00946555
0.0113825
0.0113813
0.0113798
0.0113776
0.0113737
0.011368
0.0113586
0.0113433
0.0113219
0.0112944
0.0112608
0.0112213
0.0111765
0.011127
0.0110734
0.0110162
0.0109562
0.010894
0.01083
0.0107647
0.0106987
0.0106321
0.0105654
0.0104989
0.0104327
0.0103672
0.0103023
0.0102384
0.0101754
0.0101136
0.0100529
0.00999342
0.00993522
0.0113824
0.0113813
0.01138
0.0113785
0.0113762
0.0113727
0.0113676
0.0113599
0.0113483
0.0113326
0.0113127
0.0112886
0.0112604
0.0112283
0.0111927
0.0111538
0.0111121
0.011068
0.0110219
0.0109741
0.0109249
0.0108746
0.0108236
0.0107721
0.0107203
0.0106683
0.0106165
0.0105649
0.0105136
0.0104628
0.0104126
0.010363
0.0103142
0.0113824
0.0113813
0.0113801
0.0113788
0.0113773
0.0113751
0.0113721
0.0113676
0.0113616
0.0113531
0.0113418
0.0113275
0.0113104
0.0112904
0.0112677
0.0112423
0.0112145
0.0111844
0.0111524
0.0111186
0.0110833
0.0110467
0.011009
0.0109704
0.0109311
0.0108913
0.0108512
0.0108108
0.0107702
0.0107297
0.0106894
0.0106492
0.0106092
0.0113824
0.0113812
0.0113801
0.0113789
0.0113776
0.0113761
0.0113742
0.0113716
0.011368
0.0113633
0.0113572
0.0113489
0.0113389
0.0113268
0.0113127
0.0112967
0.0112787
0.0112588
0.0112373
0.0112141
0.0111895
0.0111636
0.0111365
0.0111083
0.0110793
0.0110495
0.0110191
0.0109882
0.0109568
0.0109252
0.0108933
0.0108613
0.0108293
0.0113824
0.0113812
0.0113801
0.0113789
0.0113778
0.0113765
0.0113751
0.0113734
0.0113712
0.0113684
0.0113646
0.01136
0.0113543
0.011347
0.0113384
0.0113284
0.0113169
0.0113039
0.0112896
0.0112739
0.0112569
0.0112387
0.0112193
0.011199
0.0111776
0.0111555
0.0111325
0.011109
0.0110848
0.0110601
0.011035
0.0110096
0.010984
0.0113824
0.0113812
0.0113801
0.0113789
0.0113778
0.0113766
0.0113754
0.0113741
0.0113726
0.0113707
0.0113683
0.0113653
0.0113615
0.0113571
0.0113517
0.0113452
0.0113376
0.0113288
0.0113189
0.0113078
0.0112957
0.0112824
0.0112681
0.0112528
0.0112366
0.0112195
0.0112017
0.0111831
0.0111638
0.011144
0.0111236
0.0111028
0.0110815
0.0113824
0.0113812
0.0113801
0.0113789
0.0113778
0.0113767
0.0113755
0.0113743
0.011373
0.0113715
0.0113696
0.0113674
0.0113644
0.0113609
0.011357
0.0113521
0.0113461
0.0113392
0.0113314
0.0113225
0.0113126
0.0113017
0.0112898
0.011277
0.0112633
0.0112488
0.0112334
0.0112173
0.0112006
0.0111832
0.0111652
0.0111467
0.0111278
0.0113824
0.0113812
0.0113801
0.0113789
0.0113778
0.0113766
0.0113755
0.0113742
0.0113729
0.0113712
0.0113693
0.0113668
0.0113637
0.0113601
0.011356
0.0113507
0.0113446
0.0113375
0.0113294
0.0113204
0.0113103
0.0112992
0.0112872
0.0112743
0.0112604
0.0112458
0.0112303
0.0112141
0.0111972
0.0111797
0.0111617
0.0111431
0.0111241
0.0113824
0.0113812
0.0113801
0.0113789
0.0113778
0.0113766
0.0113753
0.0113738
0.0113719
0.0113697
0.0113669
0.0113633
0.0113591
0.0113538
0.0113475
0.0113402
0.0113317
0.0113221
0.0113114
0.0112996
0.0112867
0.0112727
0.0112577
0.0112418
0.011225
0.0112073
0.0111889
0.0111698
0.0111501
0.0111298
0.011109
0.0110878
0.0110661
0.0113824
0.0113812
0.0113801
0.0113789
0.0113777
0.0113763
0.0113745
0.0113723
0.0113693
0.0113655
0.0113608
0.0113545
0.0113468
0.0113377
0.0113272
0.0113151
0.0113015
0.0112865
0.01127
0.0112523
0.0112333
0.0112132
0.011192
0.0111699
0.0111468
0.0111231
0.0110986
0.0110735
0.0110479
0.0110219
0.0109955
0.0109688
0.0109419
0.0113824
0.0113813
0.0113801
0.0113789
0.0113773
0.0113753
0.0113724
0.0113683
0.011363
0.0113555
0.0113458
0.0113338
0.0113196
0.0113031
0.0112845
0.0112637
0.0112409
0.0112163
0.01119
0.0111622
0.0111331
0.0111028
0.0110715
0.0110393
0.0110063
0.0109728
0.0109388
0.0109044
0.0108698
0.0108349
0.0108
0.0107651
0.0107302
0.0113825
0.0113813
0.0113801
0.0113784
0.011376
0.0113722
0.0113667
0.0113583
0.0113461
0.0113304
0.0113111
0.0112881
0.0112616
0.0112318
0.011199
0.0111635
0.0111257
0.0110857
0.011044
0.0110009
0.0109565
0.0109111
0.0108651
0.0108185
0.0107716
0.0107245
0.0106773
0.0106303
0.0105834
0.0105368
0.0104906
0.0104448
0.0103996
0.0113825
0.0113814
0.0113798
0.0113765
0.011372
0.011364
0.0113499
0.0113298
0.0113037
0.0112714
0.0112333
0.0111899
0.0111418
0.0110896
0.0110339
0.0109753
0.0109144
0.0108517
0.0107878
0.0107229
0.0106575
0.0105919
0.0105263
0.010461
0.0103962
0.010332
0.0102686
0.010206
0.0101444
0.0100837
0.0100242
0.0099658
0.00990853
0.0113826
0.011381
0.0113775
0.0113716
0.0113594
0.0113357
0.0113013
0.0112563
0.0112012
0.0111371
0.0110652
0.0109869
0.0109036
0.0108164
0.0107263
0.0106345
0.0105415
0.0104482
0.010355
0.0102625
0.0101709
0.0100807
0.00999191
0.00990485
0.0098196
0.00973626
0.0096549
0.00957556
0.00949825
0.00942298
0.00934974
0.00927851
0.00920925
0.0113825
0.0113788
0.0113715
0.0113527
0.0113123
0.0112512
0.0111713
0.0110751
0.0109656
0.0108458
0.0107187
0.0105868
0.0104521
0.0103163
0.0101807
0.0100464
0.0099142
0.00978461
0.0096581
0.00953494
0.00941533
0.00929938
0.00918713
0.0090786
0.00897374
0.0088725
0.00877479
0.00868053
0.0085896
0.00850191
0.00841733
0.00833576
0.00825708
0.0113813
0.0113725
0.0113445
0.0112755
0.0111624
0.0110161
0.0108447
0.0106562
0.0104574
0.0102539
0.0100496
0.00984759
0.00964987
0.00945783
0.00927233
0.00909388
0.00892271
0.00875888
0.00860229
0.00845278
0.00831011
0.00817402
0.00804421
0.00792039
0.00780226
0.00768953
0.00758191
0.00747912
0.00738091
0.00728701
0.0071972
0.00711125
0.00702895
0.0113782
0.0113392
0.0112229
0.0110038
0.0107266
0.0104167
0.0100938
0.00977088
0.00945631
0.00915473
0.00886847
0.00859844
0.00834473
0.0081069
0.00788423
0.00767584
0.0074808
0.00729817
0.00712704
0.00696653
0.00681584
0.00667422
0.00654096
0.00641543
0.00629704
0.00618527
0.00607961
0.00597963
0.00588492
0.0057951
0.00570983
0.0056288
0.00555172
0.0113586
0.011167
0.0107276
0.0101788
0.00961591
0.00907913
0.00858445
0.00813532
0.00773015
0.00736507
0.0070357
0.00673806
0.00646846
0.00622361
0.00600061
0.00579694
0.00561039
0.00543907
0.0052813
0.00513565
0.00500085
0.00487581
0.00475957
0.00465127
0.00455016
0.0044556
0.004367
0.00428383
0.00420563
0.004132
0.00406256
0.00399697
0.00393495
0.0112033
0.010286
0.00914596
0.00815385
0.00734259
0.00668178
0.00613782
0.00568277
0.00529723
0.00496617
0.00467942
0.0044291
0.00420901
0.00401425
0.00384087
0.00368569
0.0035461
0.00341996
0.00330548
0.00320118
0.0031058
0.00301828
0.00293771
0.00286334
0.00279448
0.00273057
0.00267111
0.00261566
0.00256384
0.00251531
0.00246977
0.00242697
0.00238668
0.00988212
0.00703463
0.00556295
0.00467247
0.00408052
0.00363708
0.00328471
0.0029951
0.00275426
0.00255229
0.00238143
0.00223562
0.00211013
0.00200124
0.00190603
0.00182219
0.00174785
0.00168155
0.00162207
0.00156843
0.00151982
0.00147559
0.00143516
0.00139808
0.00136394
0.00133242
0.00130323
0.00127611
0.00125086
0.00122729
0.00120523
0.00118456
0.00116514
0.00388335
0.00236715
0.00190983
0.00162451
0.00144088
0.0012837
0.00115041
0.00104218
0.000954483
0.000882868
0.000823743
0.000774363
0.00073264
0.000697014
0.000666296
0.000639586
0.000616175
0.000595518
0.000577169
0.000560784
0.000546068
0.000532798
0.00052077
0.000509835
0.000499845
0.000490702
0.000482292
0.00047455
0.000467386
0.000460761
0.000454595
0.000448871
0.000443515
0.000128162
0.00013943
0.0001503
0.000159954
0.000168408
0.000175845
0.000182401
0.000188179
0.000193265
0.000197736
0.000201662
0.000205105
0.00020812
0.000210755
0.000213053
0.000215055
0.000216795
0.000218302
0.000219604
0.000220726
0.000221688
0.000222509
0.000223205
0.000223792
0.000224282
0.000224687
0.000225016
0.000225279
0.000225484
0.000225637
0.000225745
0.000225813
0.000225846
8.47004e-05
9.98632e-05
0.000125413
0.000160342
0.000201984
0.000247309
0.000294032
0.000340656
0.00038611
0.000429737
0.000470737
0.000508867
0.000544392
0.000577765
0.000609564
0.000640267
0.000670324
0.000699906
0.000729221
0.000758239
0.000786959
0.000815342
0.000843451
0.000871292
0.000898944
0.000926497
0.000953983
0.000981439
0.00100887
0.00103631
0.00106375
0.00109119
0.00111888
0.00114667
0.0011745
0.00120237
0.00123028
0.00125828
0.00128635
0.00131461
0.00134316
0.00137203
0.00140128
0.00143097
0.00146123
0.00149218
0.00152397
0.00155675
0.0015907
0.001626
0.00166284
0.00170146
0.00174208
0.00178491
0.00183021
0.0018782
0.0019291
0.00198312
0.00204046
0.00210128
0.00216571
0.00223386
0.00230577
0.00238144
0.00246085
0.00254389
0.00263043
0.00272027
0.00281321
0.00290894
0.00300722
0.00310765
0.00320998
0.00331371
0.00341866
0.00352422
0.00363027
0.00373626
0.00384182
0.00394671
0.00405049
0.00415283
0.00425331
0.00435182
0.00444795
0.00454147
0.00463212
0.00471976
0.00480408
0.00488518
0.00496245
0.00503662
0.00510629
0.00517351
0.00523438
0.00529607
0.00534584
0.00540611
0.00543979
0.0055093
0.000133068
0.000134142
0.000137065
0.00014422
0.000155562
0.000170615
0.000189236
0.000210726
0.000235775
0.000264408
0.000295339
0.000328911
0.000364623
0.000401506
0.000438822
0.000475929
0.000512508
0.000548161
0.000583055
0.000616836
0.000649624
0.000681486
0.000712675
0.000743193
0.0007732
0.00080284
0.00083213
0.000861151
0.000889963
0.00091864
0.000947242
0.000975784
0.00100436
0.00103302
0.00106177
0.00109065
0.00111969
0.00114894
0.00117842
0.00120821
0.0012384
0.00126907
0.00130031
0.00133221
0.0013649
0.00139851
0.00143318
0.00146909
0.0015064
0.00154531
0.00158601
0.00162872
0.00167365
0.00172102
0.00177104
0.00182391
0.00187984
0.001939
0.00200154
0.00206758
0.0021372
0.00221044
0.0022873
0.00236773
0.00245165
0.00253889
0.0026293
0.00272262
0.00281864
0.00291703
0.00301755
0.0031198
0.00322355
0.0033283
0.00343398
0.00353991
0.00364618
0.00375208
0.00385743
0.00396205
0.00406546
0.00416738
0.00426744
0.00436564
0.00446148
0.00455481
0.00464536
0.00473303
0.0048175
0.00489886
0.00497652
0.0050512
0.00512156
0.00518929
0.00525128
0.00531332
0.0053651
0.00542468
0.00546212
0.00553163
0.000228915
0.000225007
0.000220694
0.000217081
0.000215256
0.000215527
0.000218006
0.000222439
0.000229061
0.00023863
0.000251442
0.000267949
0.00028814
0.000311594
0.000337831
0.000366338
0.00039651
0.000428047
0.000460944
0.000493065
0.000525601
0.000558329
0.000591142
0.000623339
0.000655369
0.000687035
0.00071813
0.000748882
0.000779366
0.000809697
0.000839892
0.000870024
0.000900153
0.000930346
0.000960668
0.000991186
0.00102196
0.00105307
0.00108458
0.00111658
0.00114915
0.00118239
0.00121642
0.00125135
0.00128732
0.00132446
0.00136293
0.0014029
0.00144455
0.00148805
0.0015336
0.0015814
0.00163164
0.00168452
0.00174022
0.0017989
0.00186072
0.0019258
0.00199424
0.00206608
0.00214136
0.00222004
0.00230206
0.0023873
0.00247562
0.0025668
0.00266067
0.00275691
0.00285532
0.00295554
0.00305736
0.00316037
0.0032644
0.00336896
0.00347411
0.00357908
0.00368429
0.00378871
0.00389251
0.00399554
0.00409725
0.00419742
0.00429578
0.0043925
0.00448687
0.00457887
0.00466828
0.00475497
0.00483865
0.00491938
0.00499663
0.00507108
0.0051414
0.00520895
0.00527151
0.00533329
0.00538671
0.00544493
0.00548591
0.00555473
0.000401286
0.00039349
0.00038534
0.000377432
0.000370433
0.000364323
0.000359164
0.000354757
0.000351245
0.000348517
0.00034704
0.00034703
0.000349205
0.000353684
0.000361144
0.000371379
0.000385052
0.000401493
0.000421633
0.000444099
0.000469223
0.000495365
0.000523826
0.000551789
0.000582354
0.000611753
0.000640858
0.000670965
0.000701468
0.000732262
0.000763095
0.000794154
0.000825416
0.000856949
0.000888822
0.000921106
0.000953875
0.000987209
0.00102119
0.00105591
0.00109147
0.00112797
0.00116554
0.00120429
0.00124437
0.00128591
0.00132908
0.00137403
0.00142093
0.00146996
0.00152129
0.00157508
0.00163149
0.00169069
0.00175281
0.00181795
0.00188622
0.00195766
0.0020323
0.00211011
0.00219106
0.00227503
0.00236188
0.00245145
0.00254353
0.00263787
0.00273425
0.00283233
0.00293194
0.00303267
0.00313439
0.00323666
0.00333941
0.00344216
0.00354515
0.00364746
0.00375
0.00385113
0.00395177
0.00405161
0.00414993
0.0042467
0.00434185
0.00443564
0.00452706
0.00461638
0.00470336
0.00478784
0.0048696
0.00494863
0.00502448
0.00509779
0.00516717
0.0052337
0.00529618
0.00535695
0.00541156
0.00546758
0.00551175
0.00557919
0.000643098
0.000631264
0.00061947
0.000608044
0.000597518
0.000587757
0.000578793
0.000570324
0.000562487
0.000555018
0.000548179
0.00054169
0.000535986
0.000530808
0.000526801
0.000523711
0.000522415
0.000522615
0.00052539
0.000530405
0.000538685
0.000549438
0.000563741
0.000580364
0.000600306
0.000622439
0.000647098
0.000671978
0.000699736
0.000727387
0.000755305
0.000784723
0.000814857
0.000845971
0.000878033
0.000911044
0.000945029
0.00098003
0.00101611
0.00105333
0.00109179
0.00113158
0.0011728
0.00121559
0.00126005
0.00130632
0.00135454
0.00140486
0.00145741
0.00151233
0.00156976
0.00162983
0.00169265
0.00175831
0.00182688
0.00189841
0.00197292
0.00205038
0.00213074
0.0022139
0.00229974
0.00238806
0.0024787
0.00257139
0.00266591
0.00276196
0.00285931
0.00295761
0.00305671
0.00315616
0.00325595
0.00335557
0.0034551
0.00355412
0.00365299
0.00375069
0.00384868
0.00394432
0.00404005
0.00413478
0.00422768
0.00431932
0.00440944
0.00449829
0.00458522
0.00467028
0.0047533
0.00483414
0.00491262
0.00498867
0.00506194
0.00513278
0.00520041
0.00526511
0.00532652
0.0053854
0.00544064
0.00549346
0.00554024
0.00560571
0.000963185
0.000945708
0.000928691
0.000912305
0.000896994
0.000882636
0.000869258
0.000856568
0.000844679
0.000833328
0.000822713
0.000812534
0.000803052
0.000793951
0.000785597
0.000777704
0.000770759
0.000764532
0.000759602
0.000755668
0.000753487
0.000752788
0.000754375
0.000757955
0.000764298
0.000773032
0.000784963
0.000799207
0.000816567
0.00083646
0.000859173
0.000883372
0.000909672
0.000937973
0.000967924
0.000999513
0.00103274
0.00106762
0.00110417
0.00114246
0.00118252
0.00122444
0.00126829
0.00131416
0.00136214
0.00141234
0.00146486
0.00151979
0.00157724
0.0016373
0.00170005
0.00176554
0.00183384
0.00190496
0.0019789
0.00205564
0.0021351
0.00221719
0.00230178
0.00238869
0.00247774
0.00256867
0.00266126
0.0027552
0.00285023
0.00294603
0.00304235
0.00313886
0.0032354
0.0033315
0.0034273
0.00352215
0.00361638
0.00370961
0.00380229
0.00389335
0.00398477
0.00407336
0.00416136
0.00424857
0.0043343
0.00441882
0.00450198
0.00458399
0.00466453
0.00474352
0.00482086
0.00489642
0.00497006
0.00504165
0.00511099
0.00517808
0.00524272
0.00530444
0.00536381
0.00541986
0.00547433
0.00552401
0.0055719
0.00563523
0.00137887
0.00135328
0.00132863
0.00130502
0.00128276
0.00126178
0.00124207
0.0012234
0.00120582
0.00118913
0.00117344
0.00115853
0.00114456
0.0011313
0.00111897
0.00110736
0.00109678
0.00108704
0.00107849
0.00107094
0.00106477
0.00105983
0.00105651
0.00105477
0.00105493
0.00105698
0.00106132
0.00106808
0.00107703
0.00108842
0.00110271
0.00111965
0.00113926
0.00116163
0.0011865
0.00121383
0.0012436
0.00127579
0.00131039
0.00134742
0.00138688
0.0014288
0.00147323
0.00152021
0.00156978
0.001622
0.00167693
0.00173459
0.00179505
0.00185832
0.00192443
0.00199337
0.00206511
0.00213962
0.00221682
0.0022966
0.00237882
0.00246332
0.00254989
0.00263831
0.00272831
0.00281961
0.00291191
0.0030049
0.00309826
0.00319168
0.00328488
0.00337752
0.00346947
0.0035602
0.00365004
0.00373805
0.00382511
0.00391071
0.00399608
0.0040782
0.00416005
0.00423989
0.00431853
0.00439624
0.00447271
0.00454807
0.00462229
0.00469555
0.00476772
0.00483875
0.00490858
0.00497708
0.00504418
0.00510969
0.00517356
0.00523548
0.00529574
0.00535319
0.00540939
0.00546149
0.00551429
0.00555958
0.00560842
0.00566768
0.00190181
0.00186548
0.00183064
0.00179733
0.00176574
0.00173584
0.00170759
0.0016808
0.00165546
0.00163143
0.00160875
0.00158727
0.00156706
0.00154797
0.00153015
0.00151349
0.00149817
0.00148411
0.00147152
0.0014603
0.0014507
0.00144255
0.00143621
0.00143163
0.00142853
0.00142745
0.00142837
0.00143144
0.0014367
0.00144419
0.00145411
0.00146656
0.00148161
0.00149938
0.0015199
0.00154318
0.00156926
0.00159815
0.00162989
0.00166448
0.00170196
0.00174235
0.00178567
0.00183194
0.0018812
0.00193344
0.00198869
0.00204694
0.0021082
0.00217242
0.00223958
0.00230961
0.00238243
0.00245793
0.00253597
0.00261638
0.00269896
0.00278348
0.00286969
0.0029573
0.00304601
0.00313548
0.00322539
0.00331537
0.00340511
0.00349425
0.00358251
0.00366956
0.00375519
0.0038389
0.00392116
0.00400066
0.00408015
0.00415672
0.00423151
0.00430383
0.00437493
0.0044442
0.00451195
0.00457856
0.004644
0.00470843
0.00477191
0.00483462
0.0048966
0.00495784
0.00501834
0.005078
0.00513683
0.00519457
0.00525136
0.00530656
0.00536098
0.00541273
0.00546449
0.00551138
0.00556152
0.00560107
0.00565046
0.00570381
0.00253224
0.00248309
0.00243599
0.00239093
0.00234801
0.0023072
0.00226845
0.00223161
0.00219663
0.0021634
0.00213191
0.00210204
0.00207382
0.00204717
0.00202216
0.00199874
0.00197706
0.00195708
0.00193896
0.00192263
0.00190831
0.00189586
0.00188554
0.00187716
0.00187137
0.00186701
0.00186488
0.00186527
0.00186789
0.00187288
0.00188027
0.00189017
0.00190264
0.00191776
0.00193562
0.00195628
0.00197979
0.00200621
0.00203559
0.00206798
0.00210342
0.00214194
0.00218358
0.00222835
0.00227628
0.00232735
0.00238158
0.00243892
0.00249935
0.00256281
0.00262921
0.00269845
0.00277041
0.00284492
0.0029218
0.00300084
0.00308179
0.00316438
0.0032483
0.00333323
0.00341883
0.00350472
0.00359056
0.00367595
0.00376055
0.00384402
0.00392601
0.0040062
0.00408426
0.00415983
0.00423349
0.00430562
0.00437431
0.00444061
0.00450472
0.0045662
0.00462578
0.00468339
0.00473922
0.00479365
0.00484685
0.00489906
0.00495043
0.00500117
0.00505146
0.00510133
0.00515091
0.0052001
0.00524904
0.00529739
0.0053455
0.00539246
0.00543952
0.00548411
0.00553008
0.00557045
0.0056168
0.00564927
0.00569849
0.00574421
0.00325834
0.00319538
0.00313494
0.003077
0.0030216
0.00296868
0.0029182
0.00287004
0.00282413
0.00278038
0.00273874
0.00269914
0.00266157
0.00262597
0.0025924
0.00256083
0.00253137
0.00250402
0.00247891
0.00245602
0.0024355
0.00241728
0.00240157
0.00238815
0.00237747
0.00236913
0.00236371
0.00236003
0.00235916
0.00236117
0.00236566
0.00237292
0.00238285
0.00239555
0.00241107
0.00242945
0.00245075
0.00247502
0.00250231
0.00253265
0.00256608
0.00260265
0.00264238
0.00268529
0.00273137
0.00278063
0.00283305
0.00288858
0.00294716
0.00300872
0.00307314
0.0031403
0.00321004
0.00328217
0.00335648
0.0034327
0.00351057
0.00358978
0.00367
0.00375087
0.00383203
0.00391307
0.00399365
0.00407332
0.00415176
0.00422858
0.00430343
0.00437591
0.00444554
0.00451309
0.00457858
0.00464029
0.00469901
0.00475481
0.00480793
0.00485818
0.00490601
0.00495156
0.00499507
0.00503689
0.0050773
0.00511662
0.0051551
0.005193
0.00523059
0.00526801
0.00530546
0.00534291
0.00538061
0.00541819
0.00545621
0.00549351
0.0055318
0.00556783
0.00560665
0.00563919
0.00568054
0.00570468
0.00575269
0.00578919
0.00405848
0.00398206
0.0039085
0.00383776
0.00376982
0.00370467
0.00364222
0.00358241
0.00352515
0.00347038
0.00341805
0.00336808
0.00332047
0.00327518
0.00323225
0.00319168
0.00315354
0.00311786
0.00308474
0.0030542
0.00302635
0.00300117
0.00297882
0.00295915
0.00294247
0.00292847
0.00291768
0.00290935
0.00290463
0.00290181
0.00290209
0.00290578
0.00291212
0.00292157
0.002934
0.00294942
0.00296791
0.00298947
0.00301412
0.0030419
0.00307284
0.00310694
0.00314422
0.00318467
0.00322829
0.00327505
0.00332492
0.00337783
0.00343371
0.00349246
0.00355394
0.00361801
0.00368449
0.00375316
0.00382377
0.00389607
0.00396975
0.00404448
0.00411991
0.00419568
0.00427137
0.0043466
0.00442103
0.00449413
0.00456566
0.00463517
0.00470221
0.00476629
0.00482812
0.00488744
0.00494287
0.00499497
0.00504371
0.00508911
0.00513139
0.00517053
0.00520682
0.00524051
0.00527186
0.00530121
0.00532891
0.00535532
0.00538077
0.00540559
0.00543011
0.00545456
0.00547924
0.00550417
0.00552973
0.00555554
0.00558238
0.00560888
0.00563722
0.00566347
0.00569391
0.00571742
0.00575255
0.00576732
0.00581274
0.0058387
0.00490463
0.00481648
0.0047313
0.00464908
0.00456977
0.00449337
0.00441981
0.00434905
0.00428102
0.00421568
0.00415297
0.00409286
0.00403533
0.00398037
0.003928
0.00387825
0.00383118
0.00378682
0.00374527
0.00370655
0.00367078
0.00363794
0.00360819
0.00358142
0.00355786
0.00353729
0.00352011
0.00350581
0.00349516
0.00348707
0.00348308
0.00348133
0.00348256
0.00348781
0.00349595
0.00350729
0.00352193
0.00353974
0.00356075
0.00358501
0.00361251
0.00364322
0.00367712
0.00371421
0.00375445
0.0037978
0.0038442
0.00389357
0.0039458
0.00400077
0.00405833
0.00411832
0.00418053
0.00424472
0.00431063
0.00437798
0.00444647
0.00451573
0.00458542
0.00465514
0.00472446
0.00479307
0.00486056
0.00492635
0.00499035
0.00505191
0.00511048
0.00516689
0.00522031
0.00526993
0.00531607
0.0053586
0.00539749
0.00543276
0.00546457
0.005493
0.00551827
0.00554063
0.00556038
0.00557784
0.00559339
0.0056074
0.00562027
0.00563234
0.00564403
0.0056556
0.00566746
0.00567968
0.00569276
0.00570633
0.00572136
0.00573635
0.00575389
0.00576948
0.00579052
0.00580406
0.0058318
0.00583647
0.00587758
0.00589219
0.00576601
0.00566899
0.00557485
0.00548355
0.0053951
0.00530948
0.00522667
0.00514664
0.00506935
0.00499478
0.00492291
0.00485372
0.0047872
0.00472336
0.00466224
0.00460386
0.00454828
0.00449557
0.0044458
0.00439901
0.00435531
0.00431471
0.00427733
0.00424315
0.0042123
0.00418469
0.00416056
0.00413962
0.00412232
0.00410812
0.00409767
0.00409037
0.00408646
0.00408618
0.0040885
0.00409473
0.00410452
0.0041174
0.00413365
0.00415332
0.00417629
0.00420249
0.00423193
0.00426457
0.00430036
0.00433923
0.0043811
0.00442584
0.00447335
0.00452348
0.00457606
0.0046309
0.00468778
0.00474644
0.00480661
0.004868
0.00493029
0.00499308
0.00505608
0.00511882
0.00518088
0.00524208
0.00530183
0.00535956
0.00541543
0.00546827
0.00551918
0.00556649
0.00561052
0.00565097
0.00568775
0.00572075
0.00574996
0.00577538
0.00579713
0.00581532
0.00583016
0.00584189
0.00585078
0.00585716
0.0058614
0.00586387
0.00586498
0.0058651
0.00586467
0.005864
0.00586354
0.00586342
0.00586425
0.00586565
0.00586879
0.00587204
0.00587841
0.00588286
0.00589386
0.00589684
0.00591623
0.00591042
0.0059455
0.00594822
0.0066124
0.00651017
0.00641048
0.00631333
0.00621875
0.00612674
0.00603732
0.00595048
0.00586623
0.00578456
0.00570548
0.005629
0.00555514
0.00548392
0.00541539
0.0053496
0.00528661
0.00522649
0.00516932
0.00511517
0.00506412
0.00501622
0.00497158
0.0049302
0.0048922
0.00485754
0.00482639
0.0047986
0.00477442
0.00475362
0.00473644
0.00472276
0.00471249
0.00470596
0.00470248
0.00470302
0.00470675
0.00471344
0.00472406
0.00473827
0.00475563
0.00477621
0.00480012
0.00482726
0.0048575
0.0048908
0.00492703
0.00496604
0.00500772
0.0050519
0.0050984
0.00514699
0.00519745
0.00524948
0.00530284
0.00535722
0.00541228
0.0054676
0.00552295
0.0055777
0.00563162
0.00568464
0.00573574
0.00578465
0.00583205
0.00587614
0.00591747
0.00595554
0.00599019
0.00602123
0.00604851
0.00607196
0.00609157
0.00610733
0.00611935
0.00612776
0.00613273
0.00613448
0.00613329
0.00612946
0.00612333
0.00611526
0.00610565
0.00609486
0.00608334
0.00607141
0.00605957
0.00604794
0.00603722
0.00602703
0.00601872
0.00601053
0.00600583