/*--------------------------------*- C++ -*----------------------------------*\
  =========                 |
  \\      /  F ield         | OpenFOAM: The Open Source CFD Toolbox
   \\    /   O peration     | Website:  https://openfoam.org
    \\  /    A nd           | Version:  10
     \\/     M anipulation  |
\*---------------------------------------------------------------------------*/
FoamFile
{
    format      ascii;
    class       volScalarField;
    location    "2000";
    object      omega;
}
// * * * * * * * * * * * * * * * * * * * * * * * * * * * * * * * * * * * * * //

dimensions      [0 0 -1 0 0 0 0];

internalField   nonuniform List<scalar> 
6820
(
6119.65
8495.53
9975.17
10745.8
11095.1
11205.2
11181.5
11085.3
10953.1
10806.8
10658.4
10514.8
10379.1
10252.8
10136.1
10028.7
9930.07
9839.5
9756.25
9679.62
9608.96
9543.67
9483.22
9427.14
9374.98
9326.37
9280.95
9238.43
9198.38
9161.23
9123.02
9101.27
9010.21
563.863
1593.66
2118.99
2485.29
2810.04
3047.21
3202.64
3297.98
3354.17
3382.65
3395.35
3394.49
3390.56
3382.3
3371.9
3361.05
3350.53
3340.71
3331.86
3324.04
3317.31
3311.6
3306.9
3303.08
3300.12
3297.91
3296.47
3295.62
3295.77
3296.52
3298.23
3301.27
3308.99
97.8512
383.671
612.514
783.211
925.913
1044.15
1139.72
1215.41
1275.18
1321.46
1357.37
1384.53
1405.16
1420.61
1432.05
1440.37
1446.35
1450.52
1453.37
1455.22
1456.38
1457.03
1457.37
1457.5
1457.54
1457.57
1457.64
1457.8
1458.14
1458.58
1459.49
1460.47
1462.53
35.0872
109.689
194.406
270.89
340.029
401.75
456.059
503.312
544.328
579.675
610.092
636.128
658.405
677.424
693.681
707.537
719.395
729.497
738.174
745.562
751.953
757.386
762.145
766.171
769.779
772.796
775.61
777.913
780.208
782.025
784.045
785.576
787.539
22.8645
46.9745
78.9735
111.645
143.697
174.308
202.955
229.405
253.675
275.804
295.908
314.101
330.538
345.356
358.716
370.737
381.575
391.321
400.123
408.038
415.209
421.659
427.53
432.809
437.648
441.996
446.02
449.632
453.018
456.058
458.959
461.572
464.126
19.4482
28.8211
42.7198
57.8276
73.3611
88.8415
103.932
118.422
132.214
145.247
157.503
168.976
179.69
189.667
198.948
207.564
215.565
222.981
229.864
236.24
242.162
247.646
252.747
257.473
261.88
265.965
269.785
273.332
276.662
279.761
282.687
285.42
288.021
18.2937
22.3026
29.0894
36.8342
45.0409
53.4276
61.8037
70.042
78.0648
85.8188
93.2711
100.401
107.199
113.664
119.8
125.611
131.111
136.309
141.22
145.855
150.231
154.358
158.255
161.93
165.402
168.677
171.775
174.7
177.471
180.091
182.579
184.938
187.185
17.8628
19.6407
23.1435
27.4253
32.1054
36.9869
41.946
46.901
51.7981
56.5996
61.2795
65.8192
70.2077
74.4371
78.5045
82.4079
86.1493
89.73
93.1546
96.4263
99.5513
102.533
105.38
108.095
110.685
113.156
115.514
117.764
119.913
121.964
123.926
125.8
127.595
17.6921
18.5022
20.2904
22.7591
25.5623
28.5575
31.6531
34.789
37.925
41.0328
44.0924
47.0892
50.0133
52.8576
55.6174
58.2898
60.8733
63.3674
65.7727
68.0899
70.3209
72.4674
74.5317
76.5161
78.4234
80.256
82.0169
83.7088
85.3347
86.8971
88.3991
89.8432
91.2321
17.6213
17.9912
18.8824
20.3079
22.0195
23.9107
25.9093
27.9667
30.05
32.1359
34.2079
36.254
38.2654
40.2358
42.1608
44.037
45.8624
47.6356
49.3561
51.0236
52.6384
54.2009
55.712
57.1727
58.5841
59.9473
61.2639
62.5352
63.7626
64.9476
66.0918
67.1963
68.2628
17.591
17.7573
18.1874
18.9891
20.029
21.2312
22.54
23.916
25.3312
26.7655
28.2045
29.6375
31.0565
32.4559
33.8312
35.1793
36.498
37.7854
39.0407
40.263
41.452
42.6077
43.7302
44.8197
45.8768
46.902
47.8958
48.8591
49.7925
50.6968
51.5728
52.4213
53.243
17.5777
17.6499
17.8528
18.2782
18.8974
19.6531
20.5077
21.4311
22.4002
23.3977
24.4109
25.43
26.4478
27.4588
28.4588
29.4446
30.4138
31.3647
32.296
33.2067
34.0961
34.9639
35.8098
36.6339
37.436
38.2165
38.9756
39.7135
40.4307
41.1274
41.8042
42.4615
43.0996
17.5717
17.6008
17.6934
17.9051
18.2597
18.7223
19.2706
19.8837
20.5439
21.2371
21.9523
22.6808
23.416
24.1527
24.8868
25.6153
26.3357
27.0462
27.7452
28.4318
29.105
29.7643
30.4092
31.0395
31.6551
32.2558
32.8416
33.4127
33.9692
34.5112
35.0389
35.5526
36.0524
17.5685
17.5785
17.6181
17.7167
17.9085
18.1807
18.5221
18.92
19.3623
19.8384
20.3392
20.8575
21.3874
21.9242
22.4641
23.0041
23.5418
24.0753
24.6031
25.124
25.6371
26.1416
26.6369
27.1227
27.5987
28.0645
28.5202
28.9656
29.4007
29.8255
30.24
30.6445
31.0388
17.5667
17.5684
17.5829
17.6262
17.7205
17.8733
18.0775
18.3273
18.6156
18.9354
19.2799
19.6435
20.0213
20.4092
20.8038
21.2024
21.6026
22.0027
22.4011
22.7965
23.1881
23.5749
23.9563
24.3318
24.7011
25.0637
25.4195
25.7683
26.11
26.4445
26.7717
27.0916
27.4042
17.5661
17.5629
17.5666
17.5833
17.6249
17.7047
17.8205
17.9706
18.1518
18.3599
18.5907
18.8401
19.1043
19.38
19.6645
19.9553
20.2503
20.5479
20.8466
21.1452
21.4427
21.7382
22.0312
22.321
22.6071
22.8892
23.167
23.4402
23.7087
23.9723
24.2309
24.4843
24.7326
17.5661
17.5601
17.5585
17.5631
17.5791
17.6155
17.6769
17.7623
17.8709
18.001
18.1502
18.3159
18.4957
18.6871
18.8878
19.096
19.31
19.5281
19.7492
19.9721
20.1959
20.4197
20.643
20.865
21.0854
21.3038
21.5197
21.7329
21.9431
22.1503
22.3541
22.5546
22.7515
17.5661
17.5591
17.5541
17.5533
17.5575
17.5711
17.5997
17.6448
17.7061
17.7833
17.8755
17.9813
18.0994
18.228
18.3657
18.511
18.6625
18.8191
18.9796
19.1431
19.3088
19.476
19.6439
19.8121
19.98
20.1473
20.3136
20.4787
20.6422
20.8039
20.9636
21.1213
21.2767
17.5662
17.5588
17.5523
17.5479
17.5469
17.5501
17.5603
17.5811
17.6128
17.6556
17.7093
17.7736
17.8477
17.9307
18.0218
18.1198
18.224
18.3333
18.4469
18.5641
18.6842
18.8066
18.9306
19.0559
19.1819
19.3083
19.4348
19.561
19.6867
19.8117
19.9358
20.0587
20.1804
17.5662
17.5587
17.5517
17.5456
17.5413
17.5397
17.5415
17.5482
17.5621
17.5834
17.6122
17.6487
17.6926
17.7435
17.801
17.8645
17.9334
18.0072
18.0851
18.1667
18.2515
18.3389
18.4285
18.5198
18.6126
18.7064
18.801
18.8961
18.9915
19.0869
19.1821
19.277
19.3714
17.5662
17.5587
17.5515
17.5447
17.5388
17.5344
17.5319
17.5324
17.5359
17.5442
17.5577
17.5764
17.6003
17.6295
17.6637
17.7028
17.7463
17.794
17.8455
17.9005
17.9585
18.0192
18.0822
18.1473
18.2142
18.2825
18.3521
18.4226
18.4938
18.5657
18.6379
18.7104
18.7829
17.5662
17.5587
17.5514
17.5444
17.5378
17.532
17.5272
17.5241
17.5231
17.5243
17.5283
17.5362
17.5475
17.5627
17.5815
17.604
17.63
17.6595
17.6921
17.7278
17.7663
17.8073
17.8507
17.8961
17.9434
17.9923
18.0428
18.0944
18.1472
18.2009
18.2553
18.3103
18.3659
17.5662
17.5587
17.5514
17.5442
17.5374
17.531
17.5251
17.5202
17.5164
17.5141
17.5138
17.5151
17.5189
17.5255
17.5347
17.5466
17.5613
17.5787
17.5987
17.6213
17.6464
17.6737
17.7032
17.7347
17.7681
17.8031
17.8398
17.8778
17.917
17.9574
17.9988
18.0411
18.084
17.5662
17.5587
17.5514
17.5442
17.5372
17.5306
17.5243
17.5185
17.5135
17.5094
17.5065
17.505
17.5052
17.5068
17.5105
17.5164
17.5245
17.5348
17.5473
17.5619
17.5787
17.5975
17.6184
17.6411
17.6656
17.6917
17.7195
17.7486
17.7791
17.8108
17.8436
17.8775
17.9121
17.5662
17.5587
17.5513
17.5442
17.5372
17.5304
17.524
17.518
17.5126
17.5078
17.5041
17.5014
17.5002
17.5004
17.5018
17.5051
17.5104
17.5177
17.5269
17.5381
17.5511
17.5661
17.583
17.6016
17.622
17.644
17.6675
17.6924
17.7187
17.7462
17.7749
17.8046
17.8352
17.5662
17.5587
17.5513
17.5442
17.5372
17.5305
17.5242
17.5183
17.5132
17.5088
17.5055
17.5034
17.5028
17.5035
17.5056
17.5097
17.5158
17.5238
17.5337
17.5456
17.5594
17.575
17.5925
17.6117
17.6326
17.6551
17.6791
17.7045
17.7311
17.759
17.788
17.8181
17.849
17.5662
17.5587
17.5513
17.5442
17.5374
17.5309
17.5251
17.52
17.5159
17.5131
17.5117
17.5122
17.5141
17.5183
17.5246
17.5331
17.5437
17.5566
17.5716
17.5888
17.608
17.6292
17.6522
17.677
17.7035
17.7316
17.7611
17.7919
17.824
17.8571
17.8913
17.9264
17.9624
17.5662
17.5587
17.5514
17.5444
17.5379
17.5322
17.5276
17.5243
17.523
17.5238
17.5267
17.5327
17.5416
17.5534
17.5681
17.5857
17.6061
17.6292
17.6549
17.6831
17.7135
17.7461
17.7806
17.817
17.855
17.8944
17.9353
17.9773
18.0204
18.0644
18.1093
18.1548
18.201
17.5662
17.5587
17.5516
17.5451
17.5396
17.5357
17.5342
17.5354
17.5395
17.5482
17.5612
17.5785
17.6003
17.6263
17.6565
17.6905
17.7282
17.7692
17.8134
17.8603
17.9097
17.9613
18.015
18.0703
18.1272
18.1853
18.2446
18.3048
18.3657
18.4273
18.4893
18.5516
18.6142
17.5662
17.5589
17.5522
17.5473
17.5446
17.5455
17.5504
17.5615
17.5798
17.605
17.6371
17.6761
17.7215
17.7729
17.8299
17.8918
17.9581
18.0284
18.102
18.1786
18.2577
18.3389
18.4217
18.506
18.5914
18.6776
18.7644
18.8516
18.939
19.0264
19.1138
19.2008
19.2875
17.5662
17.5594
17.5546
17.5542
17.558
17.5696
17.5932
17.6282
17.6749
17.7329
17.8016
17.8801
17.9674
18.0624
18.164
18.2714
18.3835
18.4996
18.6189
18.7408
18.8645
18.9897
19.1159
19.2426
19.3696
19.4965
19.6231
19.7491
19.8743
19.9987
20.122
20.2442
20.3651
17.5663
17.5617
17.563
17.5718
17.595
17.6401
17.7055
17.7911
17.8954
18.0165
18.1523
18.3006
18.4593
18.6266
18.8007
18.9802
19.1638
19.3502
19.5387
19.7283
19.9185
20.1085
20.2979
20.4864
20.6735
20.859
21.0426
21.2241
21.4034
21.5803
21.7548
21.9267
22.0961
17.5672
17.57
17.5859
17.6276
17.7109
17.8336
17.9919
18.1815
18.3976
18.6351
18.8897
19.1574
19.435
19.7198
20.0094
20.302
20.596
20.8902
21.1836
21.4753
21.7646
22.0511
22.3342
22.6137
22.8892
23.1606
23.4276
23.6903
23.9484
24.2019
24.4508
24.6951
24.9348
17.5716
17.5953
17.6662
17.8177
18.053
18.3543
18.7087
19.1036
19.5285
19.9745
20.4349
20.9044
21.3787
21.8548
22.3301
22.8027
23.2712
23.7345
24.1917
24.6422
25.0854
25.521
25.9488
26.3685
26.7801
27.1836
27.5788
27.9659
28.3448
28.7157
29.0786
29.4337
29.7811
17.5854
17.6974
17.9699
18.4419
19.0444
19.7381
20.4917
21.2821
22.0933
22.9141
23.7366
24.5557
25.3673
26.1688
26.9583
27.7344
28.4962
29.243
29.9745
30.6904
31.3907
32.0753
32.7443
33.3978
34.0361
34.6594
35.2678
35.8617
36.4414
37.0072
37.5593
38.0981
38.6238
17.6522
18.1438
19.1451
20.4574
21.9286
23.4776
25.0548
26.6331
28.1966
29.7371
31.25
32.7322
34.182
35.5983
36.9807
38.3291
39.6436
40.9246
42.1725
43.3878
44.5711
45.723
46.8442
47.9354
48.9973
50.0307
51.0362
52.0146
52.9666
53.893
54.7944
55.6717
56.5255
18.0423
20.3419
23.6954
27.3243
30.9671
34.5343
37.9952
41.351
44.6032
47.7618
50.8283
53.8045
56.6925
59.4942
62.2115
64.8462
67.4002
69.8754
72.2738
74.5972
76.8478
79.0276
81.1386
83.183
85.1627
87.0798
88.9365
90.7347
92.4763
94.1634
95.7979
97.3817
98.9165
21.0783
32.2377
43.8848
55.0827
65.2654
74.7229
83.6608
92.2515
100.529
108.499
116.169
123.546
130.634
137.44
143.973
150.24
156.249
162.01
167.532
172.822
177.893
182.751
187.407
191.869
196.147
200.248
204.182
207.956
211.577
215.054
218.393
221.602
224.685
63.2893
131.146
179.994
220.948
253.72
286.904
320.749
353.551
384.645
413.765
440.836
465.898
489.06
510.454
530.221
548.492
565.403
581.067
595.602
609.099
621.66
633.357
644.277
654.474
664.025
672.967
681.373
689.262
696.705
703.707
710.338
716.588
722.534
1672.14
1819.15
1960.96
2086.92
2197.23
2294.25
2379.79
2455.18
2521.53
2579.87
2631.09
2676.01
2715.34
2749.72
2779.71
2805.83
2828.53
2848.19
2865.19
2879.82
2892.37
2903.08
2912.17
2919.82
2926.22
2931.5
2935.79
2939.23
2941.9
2943.89
2945.3
2946.18
2946.62
8849.74
8484.55
7910.82
7366.97
6856.11
6382.17
5948.04
5554.22
5196.94
4870.68
4575.08
4307.33
4064.26
3843.53
3642.57
3459.23
3291.12
3136.79
2994.37
2862.9
2741.3
2628.72
2524.12
2426.72
2335.65
2250.08
2169.4
2093
2020.36
1950.97
1884.42
1820.34
1757.99
1697.33
1638.19
1580.34
1523.59
1467.76
1412.76
1358.38
1304.54
1251.21
1198.38
1146.1
1094.4
1043.35
993.027
943.547
895.046
847.669
801.57
756.906
713.83
672.491
633.021
595.534
560.12
526.845
495.745
466.831
440.084
415.462
392.901
372.318
353.614
336.684
321.409
307.673
295.352
284.332
274.492
265.727
257.925
250.995
244.829
239.358
234.48
230.136
226.253
222.763
219.612
216.751
214.135
211.714
209.458
207.332
205.31
203.363
201.476
199.621
197.8
195.968
194.164
192.301
190.511
188.53
186.808
184.547
183.12
180.092
3308.93
3340.43
3414.05
3490.29
3569.99
3649.62
3715.43
3767.87
3789.74
3780.98
3753.08
3694.77
3609.23
3504.59
3386.96
3262.13
3134.09
3007.05
2881.93
2762.02
2647.54
2538.75
2435.13
2336.89
2243.54
2154.64
2070.04
1989.33
1912.16
1838.16
1766.97
1698.37
1631.98
1567.56
1504.92
1443.86
1384.27
1325.98
1268.91
1212.98
1158.13
1104.31
1051.54
999.842
949.269
899.889
851.786
805.057
759.809
716.153
674.201
634.058
595.819
559.567
525.366
493.258
463.264
435.385
409.595
385.852
364.091
344.234
326.19
309.859
295.133
281.902
270.053
259.479
250.068
241.721
234.335
227.822
222.088
217.061
212.648
208.798
205.418
202.471
199.891
197.619
195.615
193.835
192.243
190.79
189.455
188.207
187.021
185.872
184.746
183.619
182.493
181.326
180.153
178.906
177.68
176.277
175.036
173.357
172.273
169.943
1464.56
1469.57
1481.32
1495.86
1510.8
1528.59
1551.45
1582.86
1624.18
1673.67
1730.55
1790.71
1850.75
1907.66
1957.61
1997.24
2024.61
2037.57
2034.56
2023.39
1998.85
1963.39
1919.23
1870.41
1816.99
1761.11
1704.34
1646.88
1589.22
1531.66
1474.59
1418.16
1362.51
1307.69
1253.75
1200.71
1148.58
1097.38
1047.13
997.858
949.6
902.399
856.31
811.397
767.733
725.399
684.48
645.06
607.223
571.049
536.607
503.956
473.142
444.194
417.125
391.929
368.585
347.054
327.283
309.205
292.745
277.818
264.334
252.201
241.324
231.611
222.968
215.311
208.55
202.612
197.414
192.892
188.973
185.605
182.71
180.261
178.169
176.426
174.965
173.74
172.725
171.883
171.181
170.572
170.048
169.576
169.135
168.703
168.266
167.804
167.315
166.764
166.18
165.512
164.818
163.966
163.185
162.067
161.32
159.667
789.406
792.04
795.814
799.626
802.437
804.778
807.089
810.433
815.253
822.613
832.768
846.73
864.292
886.344
911.867
941.288
972.206
1004.78
1034.99
1063.74
1087.92
1108.92
1122.21
1132.22
1132.12
1129.01
1120.93
1106.23
1086.69
1063.29
1037.07
1008.34
977.704
945.577
912.325
878.267
843.682
808.812
773.87
739.047
704.513
670.424
636.921
604.135
572.188
541.191
511.246
482.445
454.868
428.581
403.64
380.083
357.936
337.211
317.903
299.996
283.461
268.258
254.339
241.649
230.126
219.705
210.32
201.903
194.388
187.708
181.8
176.606
172.062
168.123
164.726
161.834
159.392
157.366
155.696
154.372
153.312
152.539
151.973
151.589
151.376
151.298
151.322
151.408
151.56
151.74
151.931
152.113
152.273
152.391
152.466
152.464
152.412
152.272
152.066
151.725
151.37
150.785
150.358
149.349
466.863
469.949
473.169
476.243
478.734
480.757
482.332
483.781
485.089
486.607
488.258
490.504
493.244
497.056
501.735
507.924
515.198
524.188
534.126
545.447
557.065
569.435
581.014
592.303
601.65
609.405
614.559
618.658
618.904
617.695
614.434
608.153
599.617
588.827
576.065
561.612
545.74
528.709
510.763
492.129
473.02
453.627
434.13
414.689
395.45
376.544
358.086
340.178
322.906
306.342
290.544
275.558
261.413
248.13
235.716
224.17
213.48
203.629
194.59
186.334
178.828
172.036
165.92
160.443
155.564
151.248
147.456
144.155
141.306
138.885
136.85
135.184
133.846
132.819
132.055
131.562
131.26
131.208
131.298
131.537
131.924
132.414
132.989
133.615
134.286
134.977
135.671
136.349
136.997
137.599
138.148
138.62
139.023
139.341
139.571
139.689
139.719
139.623
139.496
139.079
290.874
294.012
297.097
300.053
302.703
305.065
307.123
308.979
310.604
312.107
313.433
314.721
315.905
317.157
318.393
319.805
321.283
323.025
324.904
327.164
329.604
332.436
335.387
338.602
341.728
344.849
347.498
349.872
351.462
352.323
352.151
351.338
349.503
346.614
342.765
337.96
332.233
325.646
318.28
310.231
301.603
292.503
283.041
273.325
263.459
253.54
243.659
233.898
224.33
215.021
206.024
197.386
189.143
181.324
173.947
167.028
160.572
154.58
149.05
143.972
139.337
135.131
131.34
127.946
124.934
122.285
119.981
118.007
116.341
114.975
113.88
113.056
112.471
112.117
111.962
112.022
112.221
112.632
113.173
113.834
114.613
115.484
116.431
117.429
118.466
119.523
120.584
121.631
122.651
123.628
124.551
125.407
126.185
126.885
127.483
127.996
128.375
128.69
128.853
128.952
189.675
192.419
195.1
197.691
200.123
202.39
204.48
206.423
208.208
209.865
211.373
212.771
214.03
215.195
216.231
217.185
218.013
218.767
219.4
219.975
220.449
220.884
221.243
221.563
221.814
222.022
222.124
222.1
221.988
221.721
221.182
220.386
219.287
217.835
216.043
213.891
211.366
208.464
205.191
201.564
197.608
193.357
188.847
184.124
179.233
174.222
169.139
164.03
158.939
153.907
148.973
144.17
139.526
135.068
130.816
126.785
122.99
119.439
116.137
113.089
110.295
107.754
105.463
103.418
101.613
100.044
98.7018
97.5827
96.676
95.9825
95.4812
95.1851
95.0607
95.1121
95.302
95.692
96.2044
96.8683
97.6562
98.5521
99.5506
100.636
101.795
103.01
104.267
105.551
106.846
108.138
109.411
110.653
111.848
112.989
114.054
115.056
115.948
116.784
117.452
118.121
118.519
119.087
129.598
131.817
133.993
136.115
138.154
140.101
141.949
143.705
145.363
146.932
148.403
149.785
151.067
152.257
153.34
154.323
155.186
155.938
156.556
157.056
157.414
157.657
157.754
157.724
157.61
157.367
157.011
156.54
155.964
155.288
154.499
153.591
152.561
151.397
150.094
148.648
147.055
145.31
143.414
141.366
139.173
136.842
134.384
131.814
129.149
126.408
123.61
120.779
117.935
115.1
112.296
109.541
106.854
104.252
101.751
99.3617
97.0969
94.9654
92.9746
91.1305
89.4372
87.8982
86.5149
85.2885
84.2189
83.3057
82.5474
81.9437
81.4916
81.1949
81.0379
81.042
81.1488
81.4125
81.8078
82.3437
82.9941
83.7665
84.6509
85.6363
86.7165
87.8813
89.121
90.4223
91.773
93.1609
94.5716
95.9927
97.4087
98.8093
100.176
101.506
102.769
103.988
105.097
106.18
107.072
108.031
108.612
109.585
92.7901
94.5252
96.2362
97.9165
99.5536
101.141
102.673
104.15
105.57
106.933
108.236
109.478
110.654
111.765
112.801
113.762
114.636
115.422
116.106
116.69
117.159
117.523
117.764
117.898
117.885
117.805
117.613
117.297
116.882
116.369
115.764
115.067
114.284
113.415
112.463
111.429
110.316
109.126
107.859
106.52
105.111
103.636
102.101
100.511
98.8749
97.2006
95.4977
93.7764
92.0477
90.3225
88.6123
86.9281
85.2805
83.68
82.1359
80.6573
79.2518
77.9267
76.6882
75.5414
74.4908
73.5404
72.6927
71.9506
71.3156
70.7893
70.3728
70.0676
69.8755
69.7989
69.8258
69.9488
70.1984
70.5566
71.0205
71.5969
72.2755
73.0572
73.9388
74.914
75.9783
77.1251
78.3477
79.6368
80.9829
82.376
83.8042
85.2571
86.72
88.1847
89.6313
91.0608
92.4374
93.7906
95.0413
96.2958
97.3463
98.5257
99.2405
100.539
69.4636
70.8072
72.1385
73.4536
74.7465
76.0127
77.2488
78.4535
79.6245
80.7608
81.8599
82.9208
83.9399
84.9153
85.8422
86.7173
87.5339
88.2885
88.973
89.5852
90.1161
90.5667
90.9265
91.2032
91.3788
91.47
91.4551
91.3825
91.2138
90.9501
90.6113
90.1916
89.7002
89.1385
88.5105
87.8203
87.0715
86.2678
85.4128
84.5105
83.5645
82.5788
81.5578
80.5059
79.4283
78.3302
77.2174
76.0959
74.9721
73.8526
72.7441
71.6533
70.5868
69.5511
68.5525
67.5967
66.6893
65.8353
65.0393
64.3054
63.6374
63.0387
62.5114
62.0591
61.6832
61.3858
61.1693
61.0363
60.9911
61.0216
61.1275
61.3316
61.6234
62.0034
62.4703
63.0281
63.674
64.4082
65.2301
66.1369
67.1262
68.1942
69.3367
70.548
71.821
73.1485
74.5211
75.9307
77.3641
78.8156
80.265
81.7163
83.1308
84.5437
85.8651
87.2195
88.3652
89.6948
90.4978
92.0394
54.171
55.2132
56.2501
57.2794
58.2976
59.302
60.2903
61.2608
62.212
63.1425
64.0506
64.9348
65.7929
66.6228
67.4214
68.1859
68.9119
69.5962
70.2335
70.8211
71.353
71.828
72.2394
72.5892
72.8684
73.0837
73.2216
73.3008
73.2935
73.2441
73.1243
72.929
72.6796
72.3685
72.0025
71.5852
71.1187
70.6071
70.0543
69.4637
68.8388
68.1836
67.502
66.7979
66.0754
65.3386
64.5918
63.8395
63.0862
62.3364
61.5948
60.866
60.1545
59.4648
58.8013
58.168
57.5688
57.0076
56.4875
56.0118
55.5837
55.2056
54.8792
54.6083
54.3932
54.2369
54.1422
54.1129
54.1397
54.2252
54.3845
54.6118
54.9084
55.276
55.7147
56.2273
56.8139
57.4754
58.2123
59.0243
59.9105
60.8694
61.8989
62.9958
64.1556
65.3737
66.643
67.9581
69.3077
70.6885
72.0812
73.4926
74.8831
76.2917
77.6225
79.0121
80.1967
81.6083
82.4605
84.1593
43.8221
44.6361
45.4486
46.2583
47.0632
47.8613
48.6513
49.4316
50.2011
50.9586
51.7028
52.4324
53.1458
53.8414
54.517
55.1703
55.7987
56.3994
56.969
57.5049
58.0034
58.4626
58.878
59.2495
59.5718
59.8473
60.0683
60.243
60.3577
60.4316
60.4385
60.4115
60.3394
60.2058
60.0322
59.8157
59.5572
59.2615
58.9312
58.5685
58.1767
57.7594
57.3196
56.8608
56.3862
55.8993
55.4035
54.9025
54.3998
53.8989
53.4033
52.9165
52.442
51.9831
51.5431
51.1251
50.7318
50.3664
50.0311
49.7286
49.4616
49.2313
49.0395
48.89
48.7817
48.7188
48.705
48.7312
48.8044
48.9317
49.1105
49.3425
49.6292
49.9725
50.3732
50.8337
51.3552
51.939
52.5865
53.2984
54.0753
54.917
55.823
56.792
57.8216
58.9095
60.0507
61.2421
62.4747
63.7475
65.0429
66.3699
67.6896
69.0442
70.3351
71.7058
72.8814
74.3141
75.1835
76.9567
36.6195
37.2603
37.9019
38.5433
39.1832
39.8206
40.4543
41.0832
41.7064
42.3229
42.9319
43.5322
44.1226
44.7021
45.2689
45.8215
46.3579
46.8762
47.374
47.8494
48.2997
48.723
49.1167
49.4796
49.8086
50.1038
50.3612
50.5835
50.7645
50.9109
51.0141
51.082
51.1121
51.1022
51.0661
50.9888
50.8761
50.7356
50.5657
50.3677
50.1453
49.9014
49.6381
49.3578
49.0636
48.758
48.4439
48.1243
47.802
47.4799
47.1607
46.8473
46.5422
46.2484
45.9681
45.7039
45.4579
45.2327
45.0298
44.8518
44.7006
44.5762
44.4816
44.4198
44.3878
44.3936
44.427
44.5005
44.6109
44.7603
44.9497
45.1806
45.4544
45.7729
46.1372
46.5494
47.011
47.5236
48.0887
48.7079
49.3822
50.1126
50.8995
51.7429
52.6421
53.5962
54.6021
55.6589
56.7595
57.9049
59.0797
60.2949
61.5132
62.7786
63.9937
65.3036
66.4331
67.8359
68.6956
70.4717
31.4872
31.9951
32.5051
33.0165
33.5284
34.0401
34.5507
35.0595
35.5657
36.0687
36.5676
37.0618
37.5503
38.0321
38.5062
38.9715
39.4265
39.8697
40.2997
40.7149
41.1134
41.4937
41.854
42.193
42.5088
42.8008
43.0665
43.3066
43.5181
43.7028
43.858
43.9848
44.084
44.1529
44.1983
44.2119
44.2022
44.1722
44.1142
44.0324
43.9324
43.8149
43.6804
43.5312
43.3699
43.1984
43.0191
42.8345
42.6467
42.4579
42.2704
42.0865
41.9083
41.7383
41.5779
41.4293
41.2943
41.1751
41.0723
40.9893
40.9262
40.8822
40.8629
40.8688
40.8937
40.9488
41.0293
41.1378
41.2749
41.4419
41.6398
41.8699
42.1334
42.4318
42.7665
43.1389
43.5506
44.0034
44.4988
45.0384
45.6237
46.2562
46.9366
47.6662
48.4448
49.2731
50.1491
51.0735
52.041
53.0542
54.0999
55.1903
56.291
57.4464
58.5627
59.783
60.8398
62.1743
63.0011
64.7253
27.7604
28.1651
28.5725
28.9822
29.3936
29.8061
30.2192
30.6323
31.0448
31.4562
31.866
32.2734
32.6779
33.0787
33.4751
33.8663
34.2511
34.6287
34.9978
35.3573
35.7059
36.0426
36.3659
36.6748
36.968
37.2446
37.5032
37.7436
37.9642
38.1652
38.3455
38.5048
38.6438
38.7609
38.8587
38.9352
38.9918
39.0309
39.0522
39.0514
39.0407
39.0145
38.9729
38.9198
38.8569
38.7852
38.707
38.6243
38.5383
38.4509
38.3641
38.2795
38.1991
38.1247
38.0572
37.9985
37.9504
37.9143
37.8906
37.8834
37.8899
37.9099
37.9506
38.0102
38.0863
38.1832
38.3006
38.4392
38.5999
38.7835
38.9908
39.2229
39.4808
39.7657
40.0787
40.4212
40.7947
41.2004
41.6401
42.1153
42.6275
43.1782
43.7688
44.4006
45.0742
45.7909
46.5499
47.3527
48.1954
49.0819
50.0007
50.9652
51.9438
52.9806
53.9868
55.1009
56.0689
57.3093
58.0858
59.718
25.0162
25.3393
25.6656
25.9946
26.3261
26.6596
26.9947
27.3309
27.6678
28.005
28.3421
28.6786
29.0139
29.3477
29.6793
30.0081
30.3333
30.6543
30.9702
31.2802
31.5834
31.8789
32.1658
32.4432
32.7101
32.9659
33.2097
33.4408
33.6584
33.8622
34.0517
34.2263
34.3862
34.5308
34.6608
34.7757
34.876
34.9625
35.0361
35.0951
35.1433
35.1808
35.2076
35.2252
35.2352
35.2378
35.236
35.2309
35.2225
35.2131
35.2042
35.1971
35.1933
35.1946
35.2002
35.2132
35.2349
35.2659
35.3066
35.3593
35.4239
35.4997
35.5897
35.6947
35.8134
35.9475
36.0975
36.2638
36.4469
36.6475
36.8662
37.1038
37.3611
37.6391
37.9386
38.2607
38.6068
38.9779
39.3754
39.8009
40.2557
40.7413
41.2591
41.8105
42.3966
43.0189
43.6772
44.3737
45.1054
45.877
46.6787
47.5244
48.3852
49.3042
50.1988
51.2004
52.0724
53.2045
53.9196
55.4337
22.977
23.2348
23.496
23.7603
24.0275
24.2972
24.5692
24.843
25.1184
25.3951
25.6726
25.9508
26.2291
26.5073
26.7848
27.0613
27.3362
27.609
27.879
28.1458
28.4087
28.6669
28.9199
29.167
29.4075
29.6408
29.8664
30.0835
30.2918
30.4908
30.6802
30.8594
31.0286
31.1872
31.3356
31.4736
31.6014
31.7192
31.8278
31.9268
32.0174
32.1003
32.176
32.2451
32.3089
32.3679
32.4234
32.4767
32.5284
32.5797
32.6318
32.6857
32.7426
32.8037
32.8693
32.9407
33.019
33.1051
33.1992
33.3025
33.4156
33.5383
33.6716
33.8163
33.9723
34.1401
34.3201
34.5126
34.7179
34.9365
35.1687
35.4153
35.6768
35.9537
36.2469
36.5572
36.8856
37.233
37.6006
37.9897
38.4014
38.8373
39.2984
39.7864
40.3022
40.8475
41.4226
42.0297
42.6668
43.3388
44.0373
44.7762
45.5292
46.3381
47.1262
48.0173
48.7934
49.8127
50.4614
51.8438
21.4552
21.6602
21.8687
22.0805
22.2954
22.5132
22.7336
22.9565
23.1815
23.4084
23.637
23.867
24.0981
24.3301
24.5625
24.7952
25.0277
25.2596
25.4905
25.7201
25.9478
26.1731
26.3957
26.6149
26.8304
27.0417
27.2483
27.4499
27.6459
27.8362
28.0204
28.1982
28.3694
28.534
28.6918
28.843
28.9875
29.1255
29.2574
29.3833
29.5037
29.6191
29.73
29.837
29.9407
30.0418
30.1412
30.2396
30.3378
30.4366
30.5368
30.6394
30.7451
30.8549
30.9691
31.0887
31.2142
31.3465
31.4856
31.6324
31.7872
31.9502
32.1217
32.3023
32.4919
32.6908
32.8992
33.1171
33.3447
33.5823
33.8303
34.0889
34.3586
34.6397
34.9328
35.2386
35.5576
35.8908
36.239
36.6032
36.9845
37.3841
37.803
38.2428
38.7042
39.1891
39.6976
40.2324
40.7916
41.3804
41.9913
42.6381
43.2967
44.0071
44.6987
45.4869
46.1725
47.0821
47.664
48.9116
20.3208
20.4827
20.6482
20.8172
20.9894
21.1647
21.3429
21.5239
21.7075
21.8934
22.0816
22.2717
22.4637
22.6572
22.8521
23.0481
23.245
23.4425
23.6403
23.8381
24.0356
24.2324
24.4283
24.6228
24.8157
25.0066
25.1951
25.3811
25.5642
25.7442
25.9209
26.094
26.2635
26.4292
26.5911
26.7493
26.9037
27.0545
27.2019
27.3461
27.4875
27.6263
27.763
27.898
28.0318
28.165
28.2981
28.4317
28.5665
28.7031
28.842
28.984
29.1296
29.2795
29.4342
29.594
29.7595
29.9312
30.1091
30.2937
30.4853
30.684
30.8899
31.1033
31.324
31.5522
31.7879
32.0307
32.281
32.5388
32.8045
33.0779
33.3594
33.6491
33.9474
34.2547
34.5715
34.8984
35.236
35.5853
35.9469
36.3219
36.7112
37.1161
37.5374
37.9766
38.434
38.9121
39.4094
39.9311
40.4702
41.0404
41.6192
42.2449
42.8524
43.549
44.1529
44.9611
45.4797
46.5975
19.4808
19.6077
19.7382
19.8722
20.0095
20.1501
20.2938
20.4405
20.59
20.7423
20.8971
21.0545
21.2141
21.3759
21.5397
21.7053
21.8726
22.0413
22.2114
22.3825
22.5544
22.727
22.9
23.0731
23.2462
23.4191
23.5914
23.763
23.9338
24.1036
24.2721
24.4394
24.6053
24.7698
24.9328
25.0944
25.2547
25.4138
25.5717
25.7288
25.8853
26.0413
26.1974
26.3538
26.5109
26.6691
26.8288
26.9906
27.1548
27.322
27.4928
27.6674
27.8464
28.0302
28.2191
28.4135
28.6136
28.8197
29.0316
29.2499
29.4746
29.7058
29.9434
30.1874
30.4376
30.6939
30.9563
31.2239
31.4974
31.7768
32.062
32.3528
32.6492
32.9514
33.2594
33.5735
33.894
34.2214
34.556
34.8986
35.2497
35.6101
35.9805
36.3621
36.7554
37.1619
37.5818
38.0175
38.4675
38.937
39.4193
39.928
40.4417
40.9973
41.5339
42.1521
42.6852
43.4037
43.8649
44.8638
18.8675
18.9664
19.0687
19.1745
19.2837
19.3961
19.5119
19.6307
19.7526
19.8775
20.0053
20.1359
20.2692
20.4051
20.5435
20.6843
20.8274
20.9726
21.1198
21.2689
21.4198
21.5723
21.7263
21.8816
22.0381
22.1956
22.354
22.5133
22.6733
22.8338
22.9949
23.1565
23.3186
23.481
23.644
23.8075
23.9716
24.1364
24.3021
24.4688
24.6369
24.8064
24.9777
25.1511
25.327
25.5056
25.6871
25.8721
26.0609
26.254
26.4517
26.6543
26.862
27.0753
27.2943
27.5192
27.7501
27.987
28.2296
28.4788
28.7342
28.9959
29.2634
29.5367
29.8154
30.0994
30.3883
30.6824
30.9816
31.2855
31.5933
31.9049
32.2202
32.5391
32.8616
33.1878
33.5178
33.8518
34.1902
34.5334
34.8818
35.2361
35.5967
35.9646
36.3402
36.7249
37.1187
37.5239
37.9389
38.3691
38.8075
39.268
39.7297
40.2285
40.7067
41.2592
41.7321
42.3734
42.7841
43.6782
18.4311
18.5079
18.5882
18.6719
18.7589
18.8493
18.9429
19.0398
19.1399
19.2432
19.3496
19.459
19.5714
19.6868
19.8051
19.9262
20.05
20.1766
20.3057
20.4374
20.5716
20.7081
20.847
20.9881
21.1313
21.2767
21.4241
21.5734
21.7248
21.878
22.0332
22.1902
22.3492
22.5102
22.6732
22.8383
23.0056
23.1753
23.3475
23.5225
23.7003
23.8813
24.0657
24.2537
24.4457
24.6418
24.8421
25.0474
25.2579
25.4738
25.6954
25.923
26.1567
26.3966
26.643
26.8958
27.1552
27.4213
27.6945
27.9747
28.2613
28.5538
28.852
29.1556
29.4641
29.7774
30.0948
30.4165
30.7411
31.068
31.3975
31.7296
32.064
32.4006
32.7393
33.08
33.4227
33.7674
34.1144
34.4638
34.8159
35.1712
35.53
35.8931
36.2607
36.6341
37.0129
37.3997
37.7924
38.1965
38.605
39.0317
39.4559
39.9131
40.3475
40.8502
41.2765
41.8558
42.2242
43.0294
18.1349
18.1955
18.2594
18.3265
18.3971
18.4709
18.548
18.6285
18.7123
18.7993
18.8897
18.9833
19.0801
19.1801
19.2833
19.3897
19.4992
19.6119
19.7276
19.8464
19.9681
20.0929
20.2207
20.3514
20.4851
20.6217
20.7613
20.9037
21.0492
21.1976
21.349
21.5035
21.6611
21.8219
21.9861
22.1538
22.325
22.4999
22.6788
22.8618
23.0492
23.2411
23.4378
23.6395
23.8466
24.0594
24.2781
24.5035
24.7354
24.9739
25.2193
25.4717
25.7312
25.998
26.272
26.5532
26.8416
27.1372
27.4398
27.7476
28.0615
28.3812
28.7066
29.0372
29.3727
29.7126
30.0565
30.4039
30.7546
31.1079
31.4632
31.8202
32.1785
32.5377
32.8977
33.2582
33.6191
33.9803
34.3417
34.7036
35.0659
35.4291
35.7933
36.1591
36.5264
36.8967
37.2692
37.6466
38.0263
38.4143
38.8028
39.2064
39.6036
40.0304
40.4315
40.896
41.2852
41.8172
42.1531
42.89
17.9535
18.0033
18.0563
18.1125
18.172
18.2348
18.3009
18.3704
18.4433
18.5195
18.5991
18.6821
18.7686
18.8585
18.9517
19.0485
19.1486
19.2522
19.3593
19.4698
19.5838
19.7013
19.8224
19.947
20.0751
20.2069
20.3424
20.4816
20.6246
20.7715
20.9223
21.0773
21.2364
21.3998
21.5677
21.7402
21.9175
22.0999
22.2874
22.4804
22.679
22.8835
23.0941
23.3111
23.5348
23.7653
24.0032
24.2477
24.4994
24.7586
25.0254
25.3002
25.5828
25.8735
26.1721
26.4787
26.793
27.115
27.4446
27.7815
28.1252
28.4752
28.8311
29.1924
29.5586
29.9292
30.3036
30.6813
31.0617
31.4443
31.8284
32.2135
32.5992
32.9848
33.3701
33.7548
34.1384
34.521
34.9021
35.282
35.6604
36.0377
36.4137
36.7891
37.1635
37.5384
37.9126
38.2892
38.6648
39.0461
39.4242
39.8149
40.1952