/*--------------------------------*- C++ -*----------------------------------*\
  =========                 |
  \\      /  F ield         | OpenFOAM: The Open Source CFD Toolbox
   \\    /   O peration     | Website:  https://openfoam.org
    \\  /    A nd           | Version:  10
     \\/     M anipulation  |
\*---------------------------------------------------------------------------*/
FoamFile
{
    format      ascii;
    class       volScalarField;
    location    "2000";
    object      p;
}
// * * * * * * * * * * * * * * * * * * * * * * * * * * * * * * * * * * * * * //

dimensions      [0 2 -2 0 0 0 0];

internalField   nonuniform List<scalar> 
6820
(
6.39512
-4.4947
-8.01392
-8.74752
-9.14884
-9.48741
-9.67992
-9.77642
-9.84189
-9.8964
-9.94067
-9.97647
-10.0071
-10.0345
-10.0595
-10.0825
-10.104
-10.1242
-10.1434
-10.1617
-10.1794
-10.1964
-10.2128
-10.2286
-10.2439
-10.2586
-10.2727
-10.2859
-10.2979
-10.3086
-10.3162
-10.3229
-10.3113
-15.4929
-11.8149
-11.07
-10.3008
-9.93604
-9.86967
-9.86796
-9.87183
-9.88995
-9.91919
-9.95
-9.97871
-10.0056
-10.0311
-10.0551
-10.0776
-10.0989
-10.1191
-10.1384
-10.1569
-10.1747
-10.1918
-10.2084
-10.2245
-10.24
-10.2549
-10.2693
-10.2829
-10.2957
-10.3075
-10.3174
-10.3278
-10.3326
-13.3442
-9.77014
-9.51485
-9.51677
-9.51054
-9.609
-9.70971
-9.77749
-9.83202
-9.88194
-9.92528
-9.96194
-9.99389
-10.0226
-10.0487
-10.0726
-10.0949
-10.1158
-10.1356
-10.1544
-10.1725
-10.1898
-10.2066
-10.2228
-10.2385
-10.2537
-10.2683
-10.2823
-10.2956
-10.3084
-10.32
-10.3327
-10.3431
-10.8551
-9.39602
-9.54671
-9.66284
-9.6475
-9.70284
-9.77345
-9.82218
-9.86224
-9.90122
-9.93706
-9.9688
-9.99746
-10.0239
-10.0485
-10.0714
-10.093
-10.1135
-10.133
-10.1516
-10.1696
-10.187
-10.2038
-10.2201
-10.2359
-10.2512
-10.2662
-10.2806
-10.2946
-10.3084
-10.3217
-10.3361
-10.3502
-10.3957
-9.69834
-9.73882
-9.75505
-9.71082
-9.73851
-9.79087
-9.83198
-9.86817
-9.90434
-9.9384
-9.9692
-9.99733
-10.0234
-10.0477
-10.0705
-10.092
-10.1123
-10.1318
-10.1504
-10.1683
-10.1857
-10.2025
-10.2189
-10.2348
-10.2503
-10.2655
-10.2804
-10.295
-10.3096
-10.3242
-10.3398
-10.3563
-10.3303
-9.85518
-9.80908
-9.78713
-9.74835
-9.7669
-9.80864
-9.84517
-9.87871
-9.91224
-9.94413
-9.9734
-10.0004
-10.0256
-10.0492
-10.0714
-10.0925
-10.1125
-10.1317
-10.1501
-10.1679
-10.1851
-10.2019
-10.2183
-10.2342
-10.2499
-10.2653
-10.2805
-10.2956
-10.3109
-10.3265
-10.3432
-10.3612
-10.215
-9.88896
-9.83685
-9.81412
-9.78523
-9.79789
-9.83036
-9.8617
-9.8918
-9.92219
-9.95154
-9.97898
-10.0046
-10.0288
-10.0516
-10.0732
-10.0937
-10.1134
-10.1322
-10.1504
-10.1681
-10.1852
-10.2019
-10.2182
-10.2342
-10.25
-10.2656
-10.2811
-10.2966
-10.3124
-10.3288
-10.3461
-10.3649
-10.1089
-9.90381
-9.86135
-9.84117
-9.81888
-9.82719
-9.85221
-9.87872
-9.90545
-9.93287
-9.9598
-9.98543
-10.0097
-10.0328
-10.0548
-10.0757
-10.0957
-10.1149
-10.1334
-10.1514
-10.1688
-10.1858
-10.2024
-10.2186
-10.2346
-10.2505
-10.2662
-10.2819
-10.2977
-10.3139
-10.3307
-10.3485
-10.3676
-10.0399
-9.91701
-9.88149
-9.86348
-9.84669
-9.85268
-9.87243
-9.89507
-9.9189
-9.94371
-9.96845
-9.99238
-10.0153
-10.0373
-10.0584
-10.0787
-10.0981
-10.1169
-10.1351
-10.1527
-10.1699
-10.1867
-10.2032
-10.2193
-10.2353
-10.2512
-10.267
-10.2828
-10.2989
-10.3153
-10.3324
-10.3503
-10.3693
-9.99751
-9.92562
-9.8962
-9.88109
-9.86926
-9.87434
-9.89054
-9.91022
-9.93163
-9.95422
-9.97703
-9.9994
-10.0211
-10.0421
-10.0624
-10.0819
-10.1008
-10.1192
-10.137
-10.1543
-10.1712
-10.1878
-10.2042
-10.2202
-10.2362
-10.252
-10.2678
-10.2838
-10.2999
-10.3165
-10.3336
-10.3514
-10.3702
-9.97166
-9.93062
-9.90747
-9.8955
-9.88776
-9.89263
-9.90645
-9.92388
-9.94332
-9.96403
-9.98517
-10.0062
-10.0267
-10.0468
-10.0663
-10.0852
-10.1036
-10.1215
-10.1389
-10.1559
-10.1726
-10.189
-10.2052
-10.2211
-10.237
-10.2528
-10.2686
-10.2845
-10.3007
-10.3172
-10.3342
-10.3518
-10.3702
-9.95681
-9.93418
-9.91685
-9.90777
-9.90318
-9.9081
-9.9203
-9.93601
-9.95382
-9.97296
-9.99267
-10.0124
-10.032
-10.0512
-10.0699
-10.0883
-10.1061
-10.1236
-10.1407
-10.1574
-10.1739
-10.1901
-10.2061
-10.2219
-10.2376
-10.2533
-10.2691
-10.285
-10.301
-10.3174
-10.3342
-10.3515
-10.3694
-9.94944
-9.93749
-9.92507
-9.91851
-9.91628
-9.92136
-9.93238
-9.94673
-9.96318
-9.98097
-9.99944
-10.0181
-10.0367
-10.0551
-10.0732
-10.091
-10.1084
-10.1255
-10.1422
-10.1587
-10.1749
-10.1908
-10.2067
-10.2223
-10.2379
-10.2535
-10.2692
-10.2849
-10.3008
-10.317
-10.3335
-10.3504
-10.3677
-9.94701
-9.94106
-9.93255
-9.92815
-9.92766
-9.93289
-9.94303
-9.95625
-9.97151
-9.98812
-10.0055
-10.0232
-10.041
-10.0586
-10.0761
-10.0933
-10.1103
-10.127
-10.1434
-10.1595
-10.1755
-10.1913
-10.2069
-10.2224
-10.2378
-10.2533
-10.2687
-10.2843
-10.2999
-10.3158
-10.332
-10.3484
-10.3651
-9.94779
-9.94507
-9.93956
-9.93694
-9.93774
-9.94308
-9.95251
-9.96475
-9.97896
-9.9945
-10.0109
-10.0277
-10.0447
-10.0616
-10.0785
-10.0952
-10.1117
-10.128
-10.1441
-10.16
-10.1757
-10.1912
-10.2066
-10.222
-10.2372
-10.2524
-10.2677
-10.283
-10.2984
-10.3139
-10.3296
-10.3455
-10.3616
-9.95059
-9.94954
-9.94624
-9.94505
-9.94679
-9.9522
-9.96103
-9.97242
-9.98566
-10.0002
-10.0157
-10.0316
-10.0478
-10.0642
-10.0805
-10.0967
-10.1128
-10.1287
-10.1444
-10.16
-10.1754
-10.1907
-10.2059
-10.221
-10.236
-10.251
-10.266
-10.281
-10.2961
-10.3112
-10.3265
-10.3418
-10.3573
-9.95464
-9.95439
-9.95268
-9.9526
-9.95501
-9.96044
-9.96875
-9.97936
-9.99173
-10.0054
-10.02
-10.0351
-10.0506
-10.0663
-10.082
-10.0977
-10.1133
-10.1289
-10.1443
-10.1595
-10.1747
-10.1897
-10.2046
-10.2195
-10.2342
-10.249
-10.2637
-10.2783
-10.2931
-10.3078
-10.3225
-10.3373
-10.3521
-9.95941
-9.95953
-9.95892
-9.95965
-9.96252
-9.96791
-9.97575
-9.98567
-9.99723
-10.01
-10.0238
-10.0381
-10.0529
-10.068
-10.0831
-10.0983
-10.1135
-10.1287
-10.1437
-10.1587
-10.1735
-10.1882
-10.2029
-10.2174
-10.2319
-10.2463
-10.2607
-10.275
-10.2893
-10.3036
-10.3179
-10.3321
-10.3462
-9.96458
-9.96483
-9.96495
-9.96626
-9.96941
-9.9747
-9.98211
-9.99138
-10.0022
-10.0142
-10.0272
-10.0408
-10.0549
-10.0693
-10.0839
-10.0986
-10.1134
-10.1281
-10.1428
-10.1574
-10.1719
-10.1863
-10.2006
-10.2149
-10.229
-10.2431
-10.2571
-10.2711
-10.285
-10.2988
-10.3125
-10.3261
-10.3396
-9.96992
-9.9702
-9.97078
-9.97246
-9.97574
-9.98087
-9.98786
-9.99653
-10.0066
-10.0179
-10.0301
-10.0431
-10.0565
-10.0703
-10.0844
-10.0986
-10.1128
-10.1272
-10.1414
-10.1557
-10.1699
-10.184
-10.198
-10.2119
-10.2257
-10.2394
-10.253
-10.2666
-10.28
-10.2933
-10.3065
-10.3196
-10.3325
-9.97529
-9.97556
-9.9764
-9.97827
-9.98155
-9.98646
-9.99302
-10.0011
-10.0106
-10.0212
-10.0327
-10.0449
-10.0577
-10.0709
-10.0845
-10.0982
-10.112
-10.1259
-10.1398
-10.1536
-10.1675
-10.1812
-10.1949
-10.2084
-10.2219
-10.2352
-10.2485
-10.2615
-10.2745
-10.2873
-10.3
-10.3125
-10.3248
-9.9806
-9.98085
-9.98179
-9.9837
-9.98687
-9.99149
-9.99761
-10.0051
-10.014
-10.0239
-10.0347
-10.0464
-10.0586
-10.0712
-10.0842
-10.0974
-10.1108
-10.1243
-10.1378
-10.1513
-10.1647
-10.1781
-10.1914
-10.2046
-10.2177
-10.2306
-10.2434
-10.2561
-10.2686
-10.2809
-10.293
-10.3049
-10.3166
-9.9858
-9.98602
-9.98695
-9.98877
-9.99172
-9.99598
-10.0016
-10.0086
-10.0168
-10.0261
-10.0363
-10.0473
-10.059
-10.0711
-10.0836
-10.0963
-10.1093
-10.1223
-10.1354
-10.1486
-10.1617
-10.1747
-10.1876
-10.2004
-10.2131
-10.2257
-10.238
-10.2502
-10.2623
-10.2741
-10.2857
-10.297
-10.3081
-9.99087
-9.99106
-9.99189
-9.99349
-9.9961
-9.99993
-10.005
-10.0115
-10.0191
-10.0278
-10.0374
-10.0478
-10.0589
-10.0705
-10.0825
-10.0949
-10.1074
-10.1201
-10.1328
-10.1455
-10.1583
-10.1709
-10.1835
-10.1959
-10.2082
-10.2204
-10.2323
-10.2441
-10.2556
-10.2669
-10.278
-10.2888
-10.2993
-9.99582
-9.996
-9.99661
-9.99786
-10
-10.0033
-10.0079
-10.0137
-10.0207
-10.0288
-10.0379
-10.0478
-10.0583
-10.0695
-10.0811
-10.093
-10.1051
-10.1174
-10.1298
-10.1422
-10.1545
-10.1668
-10.179
-10.1911
-10.203
-10.2148
-10.2263
-10.2376
-10.2487
-10.2595
-10.2701
-10.2804
-10.2903
-10.0007
-10.0009
-10.0012
-10.0019
-10.0035
-10.0061
-10.01
-10.0152
-10.0216
-10.0291
-10.0377
-10.0471
-10.0572
-10.0679
-10.0791
-10.0906
-10.1024
-10.1143
-10.1264
-10.1384
-10.1505
-10.1624
-10.1743
-10.186
-10.1975
-10.2089
-10.22
-10.2309
-10.2415
-10.2519
-10.2619
-10.2717
-10.2812
-10.0056
-10.0058
-10.0056
-10.0056
-10.0064
-10.0083
-10.0115
-10.016
-10.0218
-10.0287
-10.0368
-10.0457
-10.0554
-10.0658
-10.0766
-10.0878
-10.0992
-10.1109
-10.1226
-10.1343
-10.1461
-10.1577
-10.1692
-10.1806
-10.1918
-10.2027
-10.2135
-10.2239
-10.2341
-10.244
-10.2536
-10.2629
-10.2718
-10.0107
-10.0108
-10.01
-10.0091
-10.0089
-10.0099
-10.0122
-10.0159
-10.0211
-10.0275
-10.035
-10.0436
-10.0529
-10.0629
-10.0734
-10.0844
-10.0955
-10.1069
-10.1183
-10.1298
-10.1413
-10.1526
-10.1638
-10.1749
-10.1857
-10.1963
-10.2067
-10.2167
-10.2265
-10.236
-10.2451
-10.2539
-10.2624
-10.0163
-10.0163
-10.0146
-10.0123
-10.0108
-10.0106
-10.012
-10.0149
-10.0194
-10.0253
-10.0324
-10.0406
-10.0496
-10.0593
-10.0696
-10.0803
-10.0913
-10.1024
-10.1136
-10.1249
-10.136
-10.1471
-10.1581
-10.1688
-10.1793
-10.1896
-10.1996
-10.2093
-10.2187
-10.2278
-10.2365
-10.2449
-10.2529
-10.0227
-10.0227
-10.0194
-10.0152
-10.0121
-10.0104
-10.0106
-10.0127
-10.0165
-10.0219
-10.0287
-10.0365
-10.0453
-10.0549
-10.065
-10.0755
-10.0863
-10.0973
-10.1083
-10.1193
-10.1303
-10.1412
-10.1519
-10.1623
-10.1726
-10.1826
-10.1922
-10.2016
-10.2106
-10.2193
-10.2276
-10.2356
-10.2432
-10.0308
-10.0304
-10.0248
-10.0179
-10.0125
-10.0091
-10.0079
-10.0091
-10.0122
-10.0172
-10.0236
-10.0313
-10.04
-10.0494
-10.0594
-10.0698
-10.0805
-10.0913
-10.1023
-10.1132
-10.124
-10.1346
-10.1451
-10.1554
-10.1654
-10.1751
-10.1845
-10.1935
-10.2022
-10.2106
-10.2186
-10.2262
-10.2334
-10.0418
-10.0406
-10.0311
-10.0202
-10.0118
-10.0062
-10.0035
-10.0037
-10.0062
-10.0108
-10.017
-10.0246
-10.0332
-10.0426
-10.0526
-10.063
-10.0736
-10.0844
-10.0953
-10.1061
-10.1168
-10.1273
-10.1377
-10.1477
-10.1575
-10.167
-10.1762
-10.185
-10.1934
-10.2015
-10.2092
-10.2165
-10.2234
-10.0583
-10.0546
-10.0382
-10.0216
-10.0094
-10.0012
-9.99682
-9.99597
-9.998
-10.0023
-10.0084
-10.016
-10.0247
-10.0341
-10.0442
-10.0547
-10.0654
-10.0762
-10.0871
-10.0979
-10.1086
-10.1191
-10.1293
-10.1393
-10.1489
-10.1583
-10.1673
-10.1759
-10.1841
-10.192
-10.1994
-10.2065
-10.2131
-10.0864
-10.0752
-10.0457
-10.0206
-10.0039
-9.99268
-9.98659
-9.98498
-9.98669
-9.99092
-9.99712
-10.0049
-10.0137
-10.0234
-10.0336
-10.0443
-10.0551
-10.0661
-10.0771
-10.088
-10.0987
-10.1092
-10.1195
-10.1295
-10.1391
-10.1484
-10.1573
-10.1659
-10.174
-10.1817
-10.189
-10.1959
-10.2024
-10.1384
-10.1102
-10.0565
-10.0178
-9.99365
-9.978
-9.97008
-9.96813
-9.97005
-9.9748
-9.98173
-9.99025
-9.99988
-10.0103
-10.0212
-10.0324
-10.0438
-10.0551
-10.0665
-10.0776
-10.0886
-10.0993
-10.1096
-10.1197
-10.1293
-10.1386
-10.1475
-10.156
-10.164
-10.1716
-10.1788
-10.1856
-10.1919
-10.2177
-10.1548
-10.0727
-10.022
-9.98565
-9.95959
-9.94633
-9.94168
-9.94184
-9.94566
-9.95249
-9.96147
-9.97188
-9.98328
-9.99533
-10.0078
-10.0204
-10.033
-10.0455
-10.0578
-10.0699
-10.0815
-10.0929
-10.1038
-10.1142
-10.1242
-10.1337
-10.1428
-10.1514
-10.1595
-10.167
-10.1741
-10.1807
-10.3619
-10.1287
-10.0033
-9.99628
-9.98643
-9.97221
-9.96874
-9.97043
-9.97272
-9.97604
-9.98102
-9.98739
-9.99476
-10.003
-10.0119
-10.0213
-10.0312
-10.0412
-10.0514
-10.0616
-10.0717
-10.0817
-10.0915
-10.101
-10.1103
-10.1192
-10.1278
-10.136
-10.1438
-10.1512
-10.1582
-10.1649
-10.1711
-11.3108
-10.0774
-9.48617
-9.41348
-9.43258
-9.47374
-9.53182
-9.59102
-9.64537
-9.6955
-9.74176
-9.78379
-9.82169
-9.85596
-9.88706
-9.91536
-9.94119
-9.96482
-9.98652
-10.0065
-10.025
-10.042
-10.0579
-10.0725
-10.0862
-10.0988
-10.1106
-10.1215
-10.1316
-10.141
-10.1496
-10.1575
-10.1647
-15.0767
-12.8661
-11.8531
-11.2335
-10.8158
-10.5679
-10.405
-10.2814
-10.1893
-10.1257
-10.0832
-10.055
-10.0372
-10.0272
-10.023
-10.0231
-10.0262
-10.0315
-10.0385
-10.0465
-10.0552
-10.0643
-10.0737
-10.0831
-10.0924
-10.1016
-10.1105
-10.1191
-10.1273
-10.1352
-10.1427
-10.1498
-10.1565
-1.21676
-5.30361
-7.41539
-8.17856
-8.6099
-8.97051
-9.23857
-9.41765
-9.54417
-9.64251
-9.72075
-9.78262
-9.83231
-9.87342
-9.90827
-9.93826
-9.96442
-9.98756
-10.0083
-10.027
-10.044
-10.0596
-10.074
-10.0872
-10.0995
-10.1108
-10.1214
-10.1311
-10.1402
-10.1485
-10.1562
-10.1633
-10.1698
-10.3067
-10.0556
-10.363
-10.6602
-10.7856
-10.828
-10.8466
-10.8537
-10.8561
-10.8634
-10.8821
-10.9144
-10.959
-11.0137
-11.0758
-11.1424
-11.2104
-11.2774
-11.341
-11.3992
-11.4507
-11.4941
-11.5287
-11.5538
-11.5691
-11.5745
-11.57
-11.5556
-11.5314
-11.4974
-11.4537
-11.4003
-11.3372
-11.2643
-11.1814
-11.0884
-10.9852
-10.8715
-10.7472
-10.612
-10.4657
-10.3082
-10.1394
-9.95903
-9.76713
-9.56372
-9.34894
-9.12304
-8.88628
-8.63909
-8.38205
-8.11585
-7.84124
-7.55916
-7.27063
-6.97676
-6.67877
-6.37795
-6.07563
-5.77317
-5.47196
-5.17336
-4.8787
-4.58924
-4.30618
-4.03059
-3.76343
-3.50554
-3.25763
-3.02024
-2.7938
-2.57858
-2.37475
-2.18237
-2.00134
-1.83153
-1.67267
-1.5244
-1.38637
-1.2581
-1.13911
-1.02891
-0.926998
-0.832837
-0.745914
-0.665748
-0.591849
-0.523777
-0.46107
-0.40338
-0.350208
-0.301428
-0.256174
-0.215158
-0.175836
-0.142285
-0.104848
-0.0818072
-0.0343787
-0.0409503
-10.3569
-10.341
-10.5379
-10.6932
-10.7364
-10.7394
-10.7424
-10.7477
-10.7564
-10.7742
-10.8047
-10.8472
-10.8997
-10.9599
-11.0254
-11.0938
-11.1626
-11.2298
-11.2931
-11.3509
-11.4021
-11.4453
-11.4797
-11.5047
-11.52
-11.5254
-11.521
-11.5067
-11.4827
-11.4489
-11.4054
-11.3521
-11.2892
-11.2165
-11.1338
-11.0411
-10.9382
-10.8248
-10.7009
-10.5662
-10.4205
-10.2636
-10.0955
-9.91611
-9.72529
-9.5231
-9.30972
-9.08538
-8.85037
-8.6051
-8.35016
-8.08621
-7.814
-7.53446
-7.24857
-6.95742
-6.66222
-6.3642
-6.06467
-5.76497
-5.46643
-5.17041
-4.87819
-4.59102
-4.31006
-4.03638
-3.77093
-3.51453
-3.26789
-3.03157
-2.80598
-2.59142
-2.38807
-2.19598
-2.01509
-1.84527
-1.68627
-1.53775
-1.39938
-1.27068
-1.15119
-1.04045
-0.937956
-0.843181
-0.755625
-0.674813
-0.60026
-0.531531
-0.468166
-0.409821
-0.355988
-0.306557
-0.26063
-0.218989
-0.178923
-0.144906
-0.106378
-0.0838609
-0.0332974
-0.0460634
-10.3687
-10.3759
-10.4638
-10.5764
-10.6471
-10.6871
-10.7164
-10.738
-10.754
-10.7713
-10.7954
-10.8285
-10.8709
-10.922
-10.9802
-11.0434
-11.1088
-11.174
-11.2364
-11.2941
-11.3451
-11.3884
-11.4229
-11.4481
-11.4638
-11.4695
-11.4654
-11.4516
-11.428
-11.3946
-11.3515
-11.2987
-11.2361
-11.1638
-11.0815
-10.9892
-10.8868
-10.774
-10.6506
-10.5166
-10.3716
-10.2156
-10.0485
-9.87023
-9.68067
-9.47993
-9.26816
-9.0456
-8.81254
-8.5694
-8.31676
-8.05526
-7.78565
-7.50882
-7.22574
-6.93748
-6.6452
-6.35012
-6.05351
-5.75667
-5.46093
-5.16758
-4.87789
-4.59309
-4.31432
-4.04263
-3.77895
-3.52411
-3.2788
-3.04359
-2.81891
-2.60504
-2.40219
-2.21042
-2.02968
-1.85985
-1.7007
-1.55192
-1.41318
-1.28403
-1.16403
-1.05271
-0.949595
-0.854166
-0.765937
-0.684436
-0.609186
-0.539755
-0.475688
-0.416642
-0.362107
-0.31198
-0.265344
-0.22303
-0.182199
-0.14765
-0.108059
-0.0859245
-0.0324174
-0.0509554
-10.374
-10.3957
-10.4651
-10.5679
-10.6424
-10.6815
-10.7051
-10.7227
-10.7378
-10.7556
-10.7804
-10.8136
-10.8552
-10.904
-10.9584
-11.0164
-11.0759
-11.1349
-11.1916
-11.2444
-11.2915
-11.3317
-11.3643
-11.3884
-11.4034
-11.4091
-11.4053
-11.3917
-11.3685
-11.3355
-11.2928
-11.2405
-11.1785
-11.1067
-11.025
-10.9333
-10.8315
-10.7193
-10.5967
-10.4635
-10.3195
-10.1645
-9.99859
-9.82158
-9.63348
-9.43436
-9.22438
-9.00377
-8.77284
-8.53201
-8.28182
-8.02293
-7.75606
-7.48209
-7.20195
-6.91671
-6.62748
-6.33546
-6.04188
-5.74802
-5.45517
-5.16459
-4.87754
-4.59521
-4.31872
-4.0491
-3.78729
-3.53409
-3.29019
-3.05616
-2.83244
-2.61932
-2.41702
-2.2256
-2.04503
-1.87522
-1.71593
-1.56689
-1.42778
-1.29816
-1.17762
-1.0657
-0.961929
-0.865811
-0.776873
-0.694641
-0.618651
-0.548476
-0.483661
-0.423871
-0.368588
-0.317722
-0.27034
-0.227305
-0.185679
-0.150543
-0.109896
-0.0880377
-0.0317064
-0.055669
-10.3805
-10.4112
-10.4693
-10.5488
-10.6111
-10.6484
-10.6748
-10.6978
-10.719
-10.7414
-10.7683
-10.8013
-10.8407
-10.886
-10.9361
-10.9895
-11.0444
-11.0989
-11.1514
-11.2002
-11.2437
-11.2808
-11.3106
-11.3323
-11.3455
-11.3499
-11.3451
-11.3309
-11.3073
-11.2743
-11.2318
-11.1797
-11.1181
-11.0467
-10.9655
-10.8743
-10.7731
-10.6617
-10.5399
-10.4075
-10.2645
-10.1107
-9.94603
-9.77043
-9.58391
-9.38653
-9.17845
-8.95991
-8.73123
-8.49282
-8.24521
-7.98904
-7.72503
-7.45402
-7.17694
-6.89482
-6.60874
-6.31988
-6.02945
-5.73868
-5.44882
-5.16114
-4.87684
-4.59708
-4.32299
-4.05556
-3.79571
-3.54424
-3.30185
-3.0691
-2.84642
-2.63413
-2.43243
-2.24142
-2.06107
-1.89129
-1.73189
-1.58261
-1.44312
-1.31303
-1.19195
-1.07941
-0.974957
-0.878121
-0.788439
-0.705439
-0.628669
-0.557707
-0.492103
-0.431524
-0.37545
-0.323801
-0.275633
-0.231829
-0.189381
-0.153596
-0.111903
-0.0902051
-0.0311884
-0.0601517
-10.3859
-10.419
-10.4685
-10.5321
-10.5877
-10.627
-10.6568
-10.6825
-10.7059
-10.7296
-10.7564
-10.7882
-10.8253
-10.8674
-10.9138
-10.963
-11.0135
-11.0636
-11.1118
-11.1566
-11.1965
-11.2305
-11.2576
-11.2771
-11.2885
-11.2913
-11.2853
-11.2703
-11.246
-11.2127
-11.1699
-11.1178
-11.0562
-10.9849
-10.904
-10.8133
-10.7126
-10.6018
-10.4807
-10.3493
-10.2072
-10.0546
-9.89117
-9.71701
-9.53209
-9.3365
-9.13038
-8.91398
-8.68762
-8.45169
-8.20674
-7.95336
-7.69229
-7.42433
-7.1504
-6.8715
-6.58868
-6.30309
-6.0159
-5.72834
-5.4416
-5.15693
-4.8755
-4.59845
-4.32687
-4.06175
-3.80399
-3.55438
-3.3136
-3.08223
-2.86068
-2.6493
-2.44829
-2.25775
-2.07767
-1.90797
-1.7485
-1.59901
-1.45915
-1.32861
-1.20698
-1.09381
-0.98866
-0.891084
-0.800628
-0.716829
-0.639243
-0.567457
-0.501023
-0.439613
-0.382709
-0.330231
-0.281235
-0.236617
-0.193319
-0.156823
-0.114097
-0.0924242
-0.030895
-0.0643348
-10.3897
-10.4228
-10.4666
-10.5198
-10.5695
-10.6081
-10.6388
-10.6657
-10.6906
-10.7156
-10.7429
-10.774
-10.8095
-10.849
-10.8919
-10.9372
-10.9835
-11.0293
-11.0733
-11.114
-11.1503
-11.181
-11.2052
-11.2222
-11.2315
-11.2327
-11.2253
-11.2092
-11.1842
-11.1502
-11.1071
-11.0547
-10.9929
-10.9218
-10.841
-10.7506
-10.6503
-10.54
-10.4196
-10.2889
-10.1479
-9.99629
-9.83415
-9.66141
-9.4781
-9.2843
-9.08016
-8.86593
-8.64192
-8.40853
-8.16627
-7.91577
-7.6577
-7.39287
-7.12218
-6.84658
-6.56712
-6.28491
-6.00109
-5.71684
-5.43335
-5.15181
-4.87337
-4.59916
-4.33022
-4.06754
-3.81198
-3.56435
-3.3253
-3.09541
-2.87511
-2.66473
-2.46448
-2.27447
-2.09473
-1.92518
-1.76568
-1.61601
-1.47583
-1.34484
-1.22266
-1.10886
-1.00301
-0.904679
-0.813427
-0.728803
-0.650371
-0.577726
-0.510426
-0.448147
-0.390373
-0.337023
-0.287159
-0.241681
-0.197506
-0.160238
-0.116489
-0.0946926
-0.030852
-0.0681653
-10.3921
-10.4242
-10.4637
-10.5096
-10.5538
-10.5909
-10.6219
-10.6496
-10.6756
-10.7014
-10.7289
-10.7593
-10.793
-10.83
-10.8698
-10.9114
-10.9538
-10.9956
-11.0355
-11.0724
-11.1051
-11.1325
-11.1538
-11.1682
-11.1753
-11.1745
-11.1656
-11.1482
-11.1221
-11.0873
-11.0436
-10.9907
-10.9287
-10.8574
-10.7767
-10.6864
-10.5864
-10.4766
-10.3568
-10.2268
-10.0866
-9.93612
-9.7752
-9.60387
-9.42215
-9.23014
-9.02799
-8.81593
-8.59429
-8.36347
-8.12397
-7.87637
-7.62138
-7.35975
-7.09236
-6.82016
-6.54415
-6.26541
-5.98505
-5.70423
-5.42409
-5.1458
-4.87047
-4.5992
-4.33303
-4.07289
-3.81966
-3.5741
-3.3369
-3.10859
-2.88963
-2.68033
-2.48091
-2.29151
-2.11218
-1.94285
-1.78337
-1.63355
-1.49308
-1.36167
-1.23895
-1.12452
-1.01797
-0.918878
-0.826815
-0.741346
-0.662043
-0.58851
-0.520312
-0.457126
-0.398446
-0.344185
-0.293416
-0.247031
-0.201952
-0.163848
-0.119091
-0.0970088
-0.031081
-0.0716037
-10.3933
-10.4241
-10.4602
-10.5005
-10.5402
-10.5754
-10.6061
-10.6341
-10.6606
-10.6868
-10.7141
-10.7436
-10.7757
-10.8104
-10.8472
-10.8854
-10.9241
-10.962
-10.9982
-11.0314
-11.0605
-11.0847
-11.1031
-11.1149
-11.1197
-11.117
-11.1064
-11.0875
-11.0603
-11.0245
-10.98
-10.9266
-10.8642
-10.7926
-10.7118
-10.6215
-10.5217
-10.4122
-10.2928
-10.1635
-10.0242
-9.87462
-9.71487
-9.54491
-9.36475
-9.17451
-8.97433
-8.76446
-8.5452
-8.31697
-8.08023
-7.83559
-7.5837
-7.32533
-7.0613
-6.79255
-6.52006
-6.24486
-5.96805
-5.69073
-5.41402
-5.13906
-4.86694
-4.59871
-4.33538
-4.07788
-3.82706
-3.58368
-3.3484
-3.12177
-2.90421
-2.69605
-2.49756
-2.30885
-2.13
-1.96092
-1.80151
-1.65158
-1.51084
-1.37904
-1.2558
-1.14076
-1.03351
-0.933651
-0.840767
-0.754437
-0.674244
-0.599797
-0.530673
-0.466549
-0.40693
-0.35172
-0.300009
-0.252675
-0.206664
-0.167662
-0.121915
-0.0993717
-0.0315999
-0.0746141
-10.3935
-10.4228
-10.456
-10.4921
-10.5281
-10.5612
-10.5912
-10.619
-10.6455
-10.6717
-10.6986
-10.7271
-10.7576
-10.79
-10.824
-10.859
-10.8942
-10.9285
-10.961
-10.9906
-11.0164
-11.0374
-11.0529
-11.0621
-11.0646
-11.0599
-11.0475
-11.0272
-10.9987
-10.9619
-10.9165
-10.8624
-10.7995
-10.7276
-10.6465
-10.5562
-10.4565
-10.3473
-10.2283
-10.0996
-9.96097
-9.81238
-9.65376
-9.48512
-9.3065
-9.118
-8.91978
-8.71208
-8.4952
-8.26955
-8.03561
-7.79393
-7.54517
-7.29006
-7.02944
-6.76417
-6.49523
-6.22363
-5.9504
-5.67664
-5.40342
-5.13185
-4.86299
-4.59786
-4.33744
-4.08265
-3.83431
-3.59318
-3.35989
-3.13498
-2.91888
-2.71196
-2.51445
-2.32649
-2.14814
-1.97937
-1.82007
-1.67006
-1.5291
-1.39691
-1.27318
-1.15753
-1.04959
-0.948967
-0.855257
-0.768056
-0.686956
-0.611575
-0.5415
-0.47641
-0.41582
-0.359627
-0.306943
-0.258617
-0.211649
-0.171683
-0.124966
-0.101782
-0.0324212
-0.0771662
-10.3927
-10.4205
-10.4512
-10.484
-10.5169
-10.5481
-10.577
-10.6042
-10.6304
-10.6562
-10.6825
-10.7099
-10.7387
-10.7689
-10.8002
-10.8322
-10.864
-10.8949
-10.9239
-10.95
-10.9725
-10.9904
-11.003
-11.0097
-11.0099
-11.0031
-10.989
-10.9671
-10.9374
-10.8994
-10.8532
-10.7983
-10.7349
-10.6625
-10.5812
-10.4908
-10.3912
-10.2821
-10.1636
-10.0354
-9.89749
-9.7498
-9.59229
-9.42496
-9.24785
-9.06108
-8.8648
-8.65926
-8.44477
-8.2217
-7.99053
-7.75182
-7.5062
-7.25438
-6.99716
-6.7354
-6.47003
-6.20203
-5.93242
-5.66224
-5.39256
-5.12441
-4.85884
-4.59686
-4.3394
-4.08736
-3.84155
-3.60271
-3.37144
-3.1483
-2.93374
-2.72809
-2.53161
-2.34443
-2.16664
-1.9982
-1.83904
-1.68899
-1.54782
-1.41528
-1.29106
-1.17482
-1.0662
-0.964803
-0.870263
-0.78218
-0.70016
-0.623828
-0.55278
-0.486699
-0.425112
-0.367905
-0.314217
-0.26486
-0.216909
-0.175918
-0.128249
-0.10424
-0.0335525
-0.079238
-10.391
-10.4174
-10.4459
-10.4759
-10.5062
-10.5355
-10.5632
-10.5895
-10.6151
-10.6403
-10.6657
-10.6919
-10.719
-10.747
-10.7758
-10.8049
-10.8336
-10.8611
-10.8867
-10.9096
-10.9288
-10.9437
-10.9535
-10.9576
-10.9555
-10.9467
-10.9307
-10.9073
-10.8762
-10.8371
-10.7899
-10.7343
-10.6703
-10.5975
-10.5159
-10.4254
-10.3258
-10.217
-10.0988
-9.97112
-9.83393
-9.68714
-9.53073
-9.3647
-9.1891
-9.00405
-8.80972
-8.60634
-8.39422
-8.17374
-7.94535
-7.7096
-7.46712
-7.21858
-6.96477
-6.70653
-6.44474
-6.18036
-5.91438
-5.64779
-5.38164
-5.11695
-4.8547
-4.59588
-4.34141
-4.09215
-3.8489
-3.61237
-3.38317
-3.16185
-2.94885
-2.74451
-2.54908
-2.36272
-2.18551
-2.01744
-1.85844
-1.70837
-1.56701
-1.43413
-1.30944
-1.19261
-1.0833
-0.981142
-0.885766
-0.796794
-0.713841
-0.636542
-0.564502
-0.497407
-0.434797
-0.376546
-0.321826
-0.271402
-0.222445
-0.180367
-0.131764
-0.106751
-0.0349946
-0.0808157
-10.3884
-10.4134
-10.44
-10.4678
-10.4958
-10.5232
-10.5495
-10.5749
-10.5996
-10.6239
-10.6483
-10.6732
-10.6986
-10.7245
-10.7508
-10.7771
-10.8028
-10.8272
-10.8495
-10.8692
-10.8853
-10.8973
-10.9043
-10.9059
-10.9014
-10.8905
-10.8728
-10.8478
-10.8153
-10.775
-10.7269
-10.6705
-10.6058
-10.5326
-10.4507
-10.3601
-10.2605
-10.1519
-10.034
-9.90692
-9.77045
-9.62457
-9.46926
-9.30454
-9.13046
-8.94714
-8.75476
-8.55354
-8.3438
-8.1259
-7.90029
-7.66751
-7.42816
-7.18291
-6.93251
-6.67778
-6.41957
-6.15881
-5.89645
-5.63348
-5.37087
-5.10963
-4.85071
-4.59507
-4.3436
-4.09714
-3.85646
-3.62226
-3.39516
-3.17569
-2.96428
-2.76127
-2.56692
-2.38139
-2.20479
-2.0371
-1.87828
-1.72821
-1.58667
-1.45346
-1.32831
-1.21089
-1.1009
-0.99797
-0.901754
-0.811883
-0.727985
-0.649703
-0.576654
-0.508523
-0.444867
-0.385547
-0.329768
-0.278242
-0.228255
-0.185032
-0.135509
-0.109316
-0.0367415
-0.0818961
-10.3849
-10.4086
-10.4335
-10.4593
-10.4853
-10.511
-10.536
-10.5602
-10.5839
-10.6072
-10.6304
-10.6538
-10.6775
-10.7014
-10.7253
-10.7489
-10.7717
-10.793
-10.8123
-10.8289
-10.842
-10.8511
-10.8554
-10.8545
-10.8478
-10.8348
-10.8152
-10.7886
-10.7547
-10.7133
-10.6641
-10.6069
-10.5416
-10.4679
-10.3858
-10.295
-10.1954
-10.087
-9.96952
-9.84295
-9.70721
-9.56225
-9.40805
-9.24465
-9.0721
-8.89053
-8.7001
-8.50105
-8.29369
-8.07838
-7.85556
-7.62575
-7.38953
-7.14756
-6.90056
-6.64933
-6.3947
-6.13756
-5.87883
-5.61945
-5.36039
-5.10259
-4.84701
-4.59455
-4.34608
-4.10243
-3.86434
-3.6325
-3.40751
-3.18989
-2.98008
-2.77841
-2.58516
-2.40048
-2.2245
-2.05722
-1.89859
-1.74852
-1.60681
-1.47328
-1.34766
-1.22967
-1.11898
-1.01528
-0.918218
-0.827439
-0.742583
-0.663303
-0.589226
-0.52004
-0.455315
-0.3949
-0.338037
-0.285377
-0.234336
-0.189914
-0.139481
-0.111939
-0.0387804
-0.0824889
-10.3806
-10.4029
-10.4263
-10.4504
-10.4747
-10.4987
-10.5223
-10.5453
-10.5678
-10.5899
-10.6119
-10.6338
-10.6557
-10.6776
-10.6992
-10.7202
-10.7403
-10.7587
-10.7751
-10.7887
-10.7989
-10.8052
-10.8069
-10.8035
-10.7946
-10.7796
-10.7581
-10.7299
-10.6946
-10.652
-10.6018
-10.5438
-10.4778
-10.4037
-10.3212
-10.2303
-10.1307
-10.0225
-9.9054
-9.77939
-9.64439
-9.50036
-9.34729
-9.18522
-9.01421
-8.83439
-8.64592
-8.44906
-8.24408
-8.03136
-7.81133
-7.58448
-7.35139
-7.1127
-6.8691
-6.62136
-6.3703
-6.11676
-5.86164
-5.60585
-5.35032
-5.09597
-4.84371
-4.59443
-4.34897
-4.10812
-3.87262
-3.64314
-3.42026
-3.20451
-2.9963
-2.79599
-2.60384
-2.42003
-2.24468
-2.0778
-1.91938
-1.76931
-1.62745
-1.49359
-1.36751
-1.24893
-1.13756
-1.03307
-0.935153
-0.843453
-0.757626
-0.677333
-0.60221
-0.531949
-0.466134
-0.4046
-0.346627
-0.292803
-0.240684
-0.195011
-0.143672
-0.114624
-0.041093
-0.0826156
-10.3754
-10.3966
-10.4185
-10.441
-10.4637
-10.4862
-10.5084
-10.5301
-10.5514
-10.5723
-10.5929
-10.6133
-10.6335
-10.6533
-10.6727
-10.6913
-10.7086
-10.7244
-10.7379
-10.7487
-10.7561
-10.7597
-10.7589
-10.7531
-10.7419
-10.7249
-10.7017
-10.6718
-10.6351
-10.5913
-10.5401
-10.4812
-10.4146
-10.34
-10.2572
-10.1662
-10.0667
-9.9586
-9.84189
-9.71644
-9.58219
-9.4391
-9.28717
-9.12644
-8.95698
-8.77892
-8.59243
-8.39775
-8.19517
-7.98504
-7.76778
-7.5439
-7.31393
-7.0785
-6.83829
-6.59403
-6.34651
-6.09656
-5.84504
-5.59282
-5.3408
-5.08988
-4.84094
-4.59482
-4.35235
-4.1143
-3.88138
-3.65425
-3.43349
-3.2196
-3.01301
-2.81405
-2.62301
-2.44007
-2.26534
-2.09888
-1.94066
-1.7906
-1.64857
-1.5144
-1.38785
-1.26868
-1.15661
-1.05134
-0.952553
-0.85992
-0.773108
-0.691785
-0.615599
-0.544243
-0.477316
-0.41464
-0.355534
-0.300517
-0.247296
-0.200322
-0.148078
-0.117371
-0.0436558
-0.0823074
-10.3694
-10.3894
-10.4101
-10.4312
-10.4524
-10.4735
-10.4943
-10.5147
-10.5347
-10.5543
-10.5734
-10.5923
-10.6107
-10.6286
-10.6458
-10.662
-10.6769
-10.6899
-10.7008
-10.7089
-10.7137
-10.7147
-10.7114
-10.7033
-10.69
-10.671
-10.646
-10.6145
-10.5765
-10.5314
-10.4792
-10.4195
-10.3522
-10.2771
-10.194
-10.1028
-10.0034
-9.89551
-9.77919
-9.65432
-9.52083
-9.37869
-9.22791
-9.06854
-8.90064
-8.72435
-8.53984
-8.34735
-8.14715
-7.93961
-7.72513
-7.50419
-7.27733
-7.04515
-6.8083
-6.5675
-6.32351
-6.07712
-5.82917
-5.5805
-5.33197
-5.08445
-4.83879
-4.59582
-4.35632
-4.12105
-3.8907
-3.66592
-3.44726
-3.23522
-3.03023
-2.83263
-2.6427
-2.46062
-2.28652
-2.12047
-1.96245
-1.8124
-1.67021
-1.5357
-1.40868
-1.28892
-1.17615
-1.07008
-0.970409
-0.876832
-0.78902
-0.70665
-0.629383
-0.556913
-0.488854
-0.425013
-0.364749
-0.308513
-0.254163
-0.205843
-0.152687
-0.120183
-0.0464409
-0.0816034
-10.3626
-10.3817
-10.4011
-10.4209
-10.4407
-10.4604
-10.4799
-10.499
-10.5177
-10.5359
-10.5536
-10.5708
-10.5875
-10.6035
-10.6186
-10.6325
-10.645
-10.6556
-10.6639
-10.6694
-10.6717
-10.6702
-10.6646
-10.6542
-10.6388
-10.6179
-10.5911
-10.5582
-10.5187
-10.4725
-10.4192
-10.3587
-10.2908
-10.2152
-10.1318
-10.0405
-9.94108
-9.83346
-9.71755
-9.59325
-9.46053
-9.31936
-9.16975
-9.01174
-8.84541
-8.6709
-8.48837
-8.29806
-8.10025
-7.89529
-7.68357
-7.46557
-7.2418
-7.01284
-6.77933
-6.54197
-6.30147
-6.05861
-5.81419
-5.56903
-5.32396
-5.07981
-4.83741
-4.59754
-4.36099
-4.12847
-3.90067
-3.67821
-3.46163
-3.25143
-3.04803
-2.85177
-2.66293
-2.48171
-2.30824
-2.14259
-1.98476
-1.83471
-1.69234
-1.5575
-1.43001
-1.30964
-1.19615
-1.08927
-0.988712
-0.894176
-0.805349
-0.721917
-0.643551
-0.569949
-0.500736
-0.43571
-0.374265
-0.316782
-0.26128
-0.211571
-0.157491
-0.123062
-0.0494162
-0.0805489
-10.3553
-10.3733
-10.3916
-10.4101
-10.4286
-10.4471
-10.4652
-10.483
-10.5003
-10.5172
-10.5334
-10.5491
-10.5641
-10.5782
-10.5912
-10.603
-10.6132
-10.6214
-10.6273
-10.6304
-10.6303
-10.6264
-10.6185
-10.606
-10.5886
-10.5658
-10.5374
-10.5029
-10.4621
-10.4147
-10.3605
-10.2992
-10.2306
-10.1545
-10.0709
-9.97942
-9.88007
-9.77268
-9.65718
-9.53349
-9.40156
-9.26136
-9.11293
-8.95629
-8.79154
-8.6188
-8.43826
-8.25013
-8.0547
-7.85231
-7.64334
-7.42825
-7.20754
-6.98178
-6.75158
-6.51761
-6.28056
-6.04119
-5.80027
-5.55857
-5.31691
-5.07609
-4.8369
-4.60011
-4.36646
-4.13667
-3.91138
-3.6912
-3.47668
-3.26829
-3.06646
-2.87152
-2.68376
-2.50337
-2.33051
-2.16524
-2.0076
-1.85754
-1.71499
-1.5798
-1.45182
-1.33083
-1.21662
-1.10891
-1.00745
-0.911939
-0.822081
-0.737571
-0.658088
-0.583335
-0.512949
-0.446717
-0.384068
-0.325315
-0.268633
-0.217496
-0.162474
-0.126011
-0.0525467
-0.0791932
-10.3473
-10.3643
-10.3816
-10.3989
-10.4162
-10.4334
-10.4503
-10.4668
-10.4828
-10.4982
-10.513
-10.5271
-10.5404
-10.5527
-10.5638
-10.5736
-10.5816
-10.5875
-10.5911
-10.5919
-10.5895
-10.5834
-10.5733
-10.5588
-10.5394
-10.5149
-10.4848
-10.4489
-10.4068
-10.3583
-10.3031
-10.241
-10.1718
-10.0953
-10.0114
-9.91982
-9.82054
-9.71341
-9.59834
-9.47526
-9.34413