/*--------------------------------*- C++ -*----------------------------------*\
  =========                 |
  \\      /  F ield         | OpenFOAM: The Open Source CFD Toolbox
   \\    /   O peration     | Website:  https://openfoam.org
    \\  /    A nd           | Version:  10
     \\/     M anipulation  |
\*---------------------------------------------------------------------------*/
FoamFile
{
    format      ascii;
    class       surfaceScalarField;
    location    "2000";
    object      phi;
}
// * * * * * * * * * * * * * * * * * * * * * * * * * * * * * * * * * * * * * //

dimensions      [0 3 -1 0 0 0 0];

internalField   nonuniform List<scalar> 
13452
(
6.29962e-05
-2.72775e-06
6.37618e-05
-7.65614e-07
6.45326e-05
-7.70775e-07
6.38574e-05
6.75245e-07
6.2516e-05
1.34141e-06
6.10812e-05
1.4348e-06
5.97496e-05
1.33153e-06
5.8556e-05
1.19368e-06
5.74951e-05
1.06081e-06
5.6554e-05
9.4111e-07
5.5717e-05
8.37049e-07
5.49685e-05
7.48472e-07
5.42951e-05
6.73434e-07
5.36857e-05
6.09406e-07
5.31314e-05
5.54285e-07
5.26249e-05
5.06478e-07
5.21602e-05
4.64718e-07
5.17322e-05
4.27982e-07
5.13368e-05
3.95457e-07
5.09703e-05
3.66504e-07
5.06296e-05
3.40611e-07
5.03123e-05
3.17374e-07
5.00158e-05
2.96471e-07
4.97381e-05
2.77655e-07
4.94774e-05
2.60746e-07
4.92318e-05
2.45633e-07
4.89995e-05
2.32294e-07
4.87787e-05
2.20796e-07
4.85672e-05
2.11528e-07
4.83627e-05
2.0446e-07
4.81591e-05
2.03584e-07
4.79516e-05
2.07531e-07
2.19489e-07
4.77321e-05
6.28938e-05
-3.63119e-06
6.27373e-05
-6.09124e-07
6.21167e-05
-1.50217e-07
6.23912e-05
4.00786e-07
6.28731e-05
8.59472e-07
6.32661e-05
1.04185e-06
6.35105e-05
1.08707e-06
6.36213e-05
1.08294e-06
6.36286e-05
1.05349e-06
6.35617e-05
1.00807e-06
6.34434e-05
9.55333e-07
6.32905e-05
9.01385e-07
6.31148e-05
8.49102e-07
6.29246e-05
7.99568e-07
6.27258e-05
7.53143e-07
6.25223e-05
7.09932e-07
6.23172e-05
6.69863e-07
6.21124e-05
6.32754e-07
6.19095e-05
5.98385e-07
6.17094e-05
5.66541e-07
6.1513e-05
5.37021e-07
6.13208e-05
5.09648e-07
6.1133e-05
4.84269e-07
6.09499e-05
4.60768e-07
6.07715e-05
4.39065e-07
6.0598e-05
4.19128e-07
6.04293e-05
4.01013e-07
6.02653e-05
3.84818e-07
6.01058e-05
3.7103e-07
5.99507e-05
3.59601e-07
5.97994e-05
3.54847e-07
5.96573e-05
3.4964e-07
3.64326e-07
5.95125e-05
6.23344e-05
-2.20422e-06
6.26284e-05
-9.03085e-07
6.27866e-05
-3.084e-07
6.3096e-05
9.13905e-08
6.34472e-05
5.08253e-07
6.37493e-05
7.398e-07
6.39953e-05
8.41032e-07
6.41902e-05
8.88036e-07
6.43384e-05
9.05298e-07
6.44462e-05
9.00286e-07
6.45206e-05
8.8089e-07
6.4568e-05
8.53951e-07
6.45937e-05
8.23421e-07
6.4602e-05
7.91325e-07
6.45962e-05
7.58868e-07
6.45793e-05
7.26847e-07
6.45534e-05
6.95746e-07
6.45204e-05
6.65823e-07
6.44816e-05
6.37203e-07
6.44381e-05
6.09945e-07
6.43911e-05
5.84069e-07
6.43412e-05
5.59573e-07
6.4289e-05
5.3645e-07
6.42351e-05
5.14702e-07
6.41798e-05
4.94352e-07
6.41234e-05
4.75457e-07
6.40663e-05
4.58147e-07
6.40085e-05
4.42595e-07
6.39503e-05
4.29269e-07
6.38915e-05
4.18376e-07
6.38341e-05
4.12286e-07
6.37763e-05
4.07402e-07
4.13728e-07
6.37269e-05
6.47916e-05
-1.41271e-06
6.47391e-05
-8.50655e-07
6.47873e-05
-3.56602e-07
6.48995e-05
-2.07654e-08
6.50725e-05
3.35231e-07
6.52455e-05
5.66785e-07
6.54028e-05
6.83787e-07
6.55432e-05
7.47588e-07
6.56659e-05
7.82632e-07
6.57707e-05
7.95443e-07
6.5859e-05
7.92595e-07
6.59326e-05
7.8038e-07
6.59933e-05
7.62705e-07
6.60429e-05
7.41714e-07
6.6083e-05
7.18793e-07
6.61149e-05
6.94936e-07
6.61399e-05
6.70813e-07
6.61588e-05
6.46852e-07
6.61727e-05
6.23333e-07
6.61822e-05
6.00443e-07
6.6188e-05
5.78313e-07
6.61905e-05
5.57038e-07
6.61903e-05
5.36693e-07
6.61876e-05
5.17349e-07
6.61829e-05
4.99091e-07
6.61763e-05
4.82026e-07
6.61681e-05
4.66317e-07
6.61586e-05
4.52171e-07
6.61479e-05
4.39975e-07
6.61362e-05
4.30006e-07
6.61251e-05
4.23463e-07
6.61136e-05
4.18874e-07
4.20779e-07
6.61065e-05
6.70182e-05
-9.74151e-07
6.6871e-05
-7.03425e-07
6.68449e-05
-3.3049e-07
6.68728e-05
-4.86707e-08
6.69617e-05
2.46357e-07
6.70706e-05
4.57874e-07
6.71774e-05
5.77009e-07
6.72777e-05
6.47227e-07
6.73704e-05
6.89976e-07
6.74543e-05
7.11515e-07
6.75293e-05
7.17553e-07
6.7596e-05
7.1369e-07
6.76551e-05
7.03593e-07
6.77075e-05
6.89392e-07
6.77537e-05
6.72512e-07
6.77947e-05
6.54001e-07
6.78309e-05
6.34593e-07
6.7863e-05
6.14787e-07
6.78914e-05
5.94929e-07
6.79165e-05
5.7527e-07
6.79388e-05
5.55996e-07
6.79586e-05
5.37248e-07
6.79762e-05
5.19145e-07
6.79917e-05
5.01794e-07
6.80055e-05
4.85309e-07
6.80177e-05
4.69818e-07
6.80286e-05
4.55487e-07
6.80382e-05
4.42512e-07
6.8047e-05
4.31187e-07
6.80553e-05
4.21751e-07
6.8064e-05
4.14775e-07
6.80731e-05
4.09691e-07
4.0828e-07
6.80856e-05
6.9089e-05
-6.79115e-07
6.89436e-05
-5.58012e-07
6.89005e-05
-2.87434e-07
6.89039e-05
-5.20617e-08
6.89554e-05
1.94873e-07
6.90297e-05
3.83594e-07
6.91069e-05
4.99806e-07
6.91817e-05
5.72383e-07
6.9253e-05
6.18701e-07
6.93196e-05
6.4489e-07
6.93811e-05
6.56121e-07
6.94374e-05
6.57353e-07
6.9489e-05
6.51983e-07
6.95363e-05
6.42102e-07
6.95797e-05
6.29145e-07
6.96195e-05
6.14171e-07
6.96562e-05
5.97936e-07
6.969e-05
5.80974e-07
6.97212e-05
5.63665e-07
6.97502e-05
5.46292e-07
6.97771e-05
5.29069e-07
6.98022e-05
5.12162e-07
6.98257e-05
4.95713e-07
6.98476e-05
4.79844e-07
6.98682e-05
4.6468e-07
6.98877e-05
4.50349e-07
6.99062e-05
4.37001e-07
6.99239e-05
4.24798e-07
6.99412e-05
4.13944e-07
6.99583e-05
4.04591e-07
6.99761e-05
3.96973e-07
6.9995e-05
3.90798e-07
3.86526e-07
7.00168e-05
7.11537e-05
-4.66455e-07
7.10277e-05
-4.32001e-07
7.09799e-05
-2.39668e-07
7.09726e-05
-4.473e-08
7.10041e-05
1.63299e-07
7.10576e-05
3.30157e-07
7.11167e-05
4.40714e-07
7.11758e-05
5.13248e-07
7.12335e-05
5.61043e-07
7.12885e-05
5.89845e-07
7.13403e-05
6.04375e-07
7.13886e-05
6.09007e-07
7.14337e-05
6.06858e-07
7.14759e-05
5.99962e-07
7.15153e-05
5.89746e-07
7.15522e-05
5.77263e-07
7.15868e-05
5.63281e-07
7.16194e-05
5.48351e-07
7.16502e-05
5.32875e-07
7.16794e-05
5.17154e-07
7.1707e-05
5.0142e-07
7.17333e-05
4.85855e-07
7.17584e-05
4.70609e-07
7.17825e-05
4.55812e-07
7.18056e-05
4.41586e-07
7.18279e-05
4.2805e-07
7.18495e-05
4.15329e-07
7.18708e-05
4.03542e-07
7.18919e-05
3.92811e-07
7.19133e-05
3.83204e-07
7.19355e-05
3.74759e-07
7.19591e-05
3.67235e-07
3.60521e-07
7.19851e-05
7.32523e-05
-3.1351e-07
7.31446e-05
-3.24233e-07
7.30947e-05
-1.89839e-07
7.30808e-05
-3.0747e-08
7.31e-05
1.4403e-07
7.31398e-05
2.90422e-07
7.31869e-05
3.93616e-07
7.32357e-05
4.6436e-07
7.32845e-05
5.12296e-07
7.33318e-05
5.42498e-07
7.3377e-05
5.592e-07
7.34198e-05
5.66235e-07
7.34602e-05
5.66439e-07
7.34984e-05
5.61759e-07
7.35346e-05
5.53597e-07
7.35688e-05
5.42993e-07
7.36014e-05
5.30715e-07
7.36324e-05
5.17323e-07
7.36621e-05
5.03235e-07
7.36905e-05
4.88764e-07
7.37177e-05
4.74153e-07
7.3744e-05
4.59593e-07
7.37694e-05
4.45237e-07
7.3794e-05
4.31217e-07
7.38179e-05
4.17647e-07
7.38413e-05
4.04632e-07
7.38644e-05
3.92268e-07
7.38873e-05
3.80632e-07
7.39103e-05
3.69782e-07
7.39338e-05
3.59714e-07
7.39582e-05
3.50358e-07
7.3984e-05
3.41465e-07
3.32715e-07
7.40118e-05
7.53941e-05
-2.05152e-07
7.53032e-05
-2.33337e-07
7.52537e-05
-1.40292e-07
7.52354e-05
-1.24481e-08
7.52461e-05
1.33253e-07
7.5276e-05
2.60556e-07
7.53143e-05
3.55284e-07
7.53558e-05
4.22871e-07
7.53982e-05
4.69913e-07
7.54401e-05
5.00623e-07
7.54806e-05
5.18685e-07
7.55194e-05
5.27423e-07
7.55565e-05
5.29389e-07
7.55918e-05
5.2642e-07
7.56255e-05
5.19867e-07
7.56578e-05
5.10747e-07
7.56887e-05
4.99821e-07
7.57183e-05
4.87652e-07
7.57469e-05
4.74665e-07
7.57745e-05
4.61182e-07
7.58012e-05
4.47452e-07
7.58271e-05
4.3367e-07
7.58524e-05
4.19991e-07
7.5877e-05
4.06543e-07
7.59013e-05
3.93431e-07
7.59251e-05
3.80744e-07
7.59489e-05
3.68549e-07
7.59726e-05
3.56891e-07
7.59966e-05
3.45777e-07
7.60212e-05
3.35155e-07
7.60466e-05
3.24899e-07
7.60733e-05
3.14756e-07
3.04359e-07
7.61017e-05
7.7584e-05
-1.29562e-07
7.75094e-05
-1.58712e-07
7.74626e-05
-9.34785e-08
7.74418e-05
8.26522e-09
7.74464e-05
1.28658e-07
7.74687e-05
2.38265e-07
7.75002e-05
3.23862e-07
7.75358e-05
3.87224e-07
7.75732e-05
4.32498e-07
7.76109e-05
4.62966e-07
7.76478e-05
4.8172e-07
7.76837e-05
4.91596e-07
7.77182e-05
4.94861e-07
7.77514e-05
4.93213e-07
7.77833e-05
4.87938e-07
7.78141e-05
4.80018e-07
7.78437e-05
4.70194e-07
7.78723e-05
4.59026e-07
7.79e-05
4.46941e-07
7.7927e-05
4.34264e-07
7.79532e-05
4.21246e-07
7.79787e-05
4.08084e-07
7.80038e-05
3.94933e-07
7.80284e-05
3.81913e-07
7.80527e-05
3.69122e-07
7.80769e-05
3.5663e-07
7.81009e-05
3.44485e-07
7.81251e-05
3.32701e-07
7.81496e-05
3.21256e-07
7.81747e-05
3.10069e-07
7.82006e-05
2.98992e-07
7.82276e-05
2.87783e-07
2.76101e-07
7.82559e-05
7.98265e-05
-7.77038e-08
7.97671e-05
-9.93583e-08
7.97251e-05
-5.14529e-08
7.97038e-05
2.95849e-08
7.9704e-05
1.28417e-07
7.97204e-05
2.21876e-07
7.97462e-05
2.9808e-07
7.9777e-05
3.56438e-07
7.98102e-05
3.99213e-07
7.98444e-05
4.28784e-07
7.98785e-05
4.47644e-07
7.99119e-05
4.58167e-07
7.99445e-05
4.62328e-07
7.9976e-05
4.61673e-07
8.00065e-05
4.57404e-07
8.00361e-05
4.5045e-07
8.00648e-05
4.4153e-07
8.00926e-05
4.31192e-07
8.01197e-05
4.19856e-07
8.01461e-05
4.07848e-07
8.01719e-05
3.95419e-07
8.01972e-05
3.82762e-07
8.02222e-05
3.7003e-07
8.02467e-05
3.57337e-07
8.02711e-05
3.44771e-07
8.02953e-05
3.32389e-07
8.03196e-05
3.20222e-07
8.0344e-05
3.08266e-07
8.03688e-05
2.96479e-07
8.03941e-05
2.84769e-07
8.04201e-05
2.72986e-07
8.0447e-05
2.60918e-07
2.48272e-07
8.04748e-05
8.21255e-05
-4.27744e-08
8.20798e-05
-5.36408e-08
8.20439e-05
-1.55632e-08
8.20236e-05
4.98542e-08
8.20212e-05
1.30873e-07
8.20331e-05
2.09955e-07
8.20543e-05
2.76901e-07
8.2081e-05
3.29774e-07
8.21107e-05
3.69476e-07
8.21419e-05
3.97592e-07
8.21735e-05
4.16043e-07
8.22049e-05
4.26771e-07
8.22357e-05
4.31466e-07
8.22659e-05
4.31508e-07
8.22953e-05
4.27998e-07
8.2324e-05
4.2181e-07
8.23519e-05
4.13623e-07
8.23791e-05
4.03969e-07
8.24057e-05
3.93259e-07
8.24317e-05
3.8181e-07
8.24573e-05
3.6987e-07
8.24824e-05
3.5763e-07
8.25072e-05
3.45236e-07
8.25317e-05
3.32798e-07
8.25561e-05
3.20393e-07
8.25804e-05
3.0807e-07
8.26048e-05
2.95847e-07
8.26294e-05
2.83709e-07
8.26542e-05
2.71606e-07
8.26796e-05
2.59446e-07
8.27055e-05
2.47093e-07
8.2732e-05
2.34367e-07
2.21032e-07
8.27592e-05
8.44847e-05
-1.97112e-08
8.44506e-05
-1.95534e-08
8.44215e-05
1.36034e-08
8.44036e-05
6.77422e-08
8.43999e-05
1.34519e-07
8.44087e-05
2.01172e-07
8.44262e-05
2.59359e-07
8.44495e-05
3.06566e-07
8.44761e-05
3.42804e-07
8.45047e-05
3.69015e-07
8.45341e-05
3.86618e-07
8.45637e-05
3.97158e-07
8.45932e-05
4.02057e-07
8.46221e-05
4.02523e-07
8.46506e-05
3.99549e-07
8.46785e-05
3.9394e-07
8.47057e-05
3.86334e-07
8.47325e-05
3.77236e-07
8.47587e-05
3.67041e-07
8.47844e-05
3.56058e-07
8.48098e-05
3.44527e-07
8.48348e-05
3.32633e-07
8.48595e-05
3.20517e-07
8.4884e-05
3.08282e-07
8.49084e-05
2.95999e-07
8.49328e-05
2.83708e-07
8.49572e-05
2.7142e-07
8.49818e-05
2.59117e-07
8.50067e-05
2.46747e-07
8.50319e-05
2.34227e-07
8.50575e-05
2.21441e-07
8.50837e-05
2.08242e-07
1.9445e-07
8.51102e-05
8.69073e-05
-4.81592e-09
8.68827e-05
5.00912e-09
8.68602e-05
3.613e-08
8.68455e-05
8.2378e-08
8.6842e-05
1.38096e-07
8.68488e-05
1.94316e-07
8.68637e-05
2.44526e-07
8.68841e-05
2.86163e-07
8.69081e-05
3.18735e-07
8.69344e-05
3.42717e-07
8.69619e-05
3.59115e-07
8.699e-05
3.69132e-07
8.70181e-05
3.73941e-07
8.7046e-05
3.74581e-07
8.70736e-05
3.71936e-07
8.71008e-05
3.66734e-07
8.71276e-05
3.59567e-07
8.71539e-05
3.50907e-07
8.71798e-05
3.4113e-07
8.72054e-05
3.30531e-07
8.72306e-05
3.19341e-07
8.72555e-05
3.07737e-07
8.72801e-05
2.95853e-07
8.73046e-05
2.83786e-07
8.7329e-05
2.71601e-07
8.73534e-05
2.59334e-07
8.73778e-05
2.46993e-07
8.74024e-05
2.34559e-07
8.74271e-05
2.21985e-07
8.74522e-05
2.09201e-07
8.74775e-05
1.96112e-07
8.75031e-05
1.82606e-07
1.68547e-07
8.7529e-05
8.93962e-05
4.54686e-09
8.93791e-05
2.20329e-08
8.93627e-05
5.25756e-08
8.93517e-05
9.33658e-08
8.93491e-05
1.40667e-07
8.93551e-05
1.8835e-07
8.93681e-05
2.31532e-07
8.93864e-05
2.67915e-07
8.94083e-05
2.96801e-07
8.94326e-05
3.18363e-07
8.94585e-05
3.33292e-07
8.94851e-05
3.42512e-07
8.9512e-05
3.46978e-07
8.95391e-05
3.47571e-07
8.95659e-05
3.45066e-07
8.95926e-05
3.40113e-07
8.96189e-05
3.33253e-07
8.96448e-05
3.24924e-07
8.96705e-05
3.15477e-07
8.96958e-05
3.0519e-07
8.97209e-05
2.94282e-07
8.97457e-05
2.82921e-07
8.97703e-05
2.71235e-07
8.97948e-05
2.59314e-07
8.98192e-05
2.47218e-07
8.98435e-05
2.34982e-07
8.98679e-05
2.22611e-07
8.98924e-05
2.10091e-07
8.9917e-05
1.97383e-07
8.99418e-05
1.84431e-07
8.99667e-05
1.71161e-07
8.99918e-05
1.57492e-07
1.43323e-07
9.00171e-05
9.19542e-05
1.02176e-08
9.1943e-05
3.32698e-08
9.19318e-05
6.37755e-08
9.19244e-05
1.0072e-07
9.19234e-05
1.41656e-07
9.19293e-05
1.82468e-07
9.19412e-05
2.19618e-07
9.19579e-05
2.51213e-07
9.19782e-05
2.76539e-07
9.20009e-05
2.9561e-07
9.20253e-05
3.08901e-07
9.20507e-05
3.17118e-07
9.20767e-05
3.21034e-07
9.21028e-05
3.21391e-07
9.2129e-05
3.18858e-07
9.21551e-05
3.14013e-07
9.21811e-05
3.07342e-07
9.22067e-05
2.99246e-07
9.22322e-05
2.90048e-07
9.22573e-05
2.80009e-07
9.22823e-05
2.69334e-07
9.2307e-05
2.58179e-07
9.23316e-05
2.46666e-07
9.2356e-05
2.34878e-07
9.23804e-05
2.22874e-07
9.24047e-05
2.10684e-07
9.2429e-05
1.98318e-07
9.24533e-05
1.85764e-07
9.24777e-05
1.72994e-07
9.25022e-05
1.59965e-07
9.25267e-05
1.46625e-07
9.25513e-05
1.32915e-07
1.18768e-07
9.25758e-05
9.45839e-05
1.34555e-08
9.4577e-05
4.01813e-08
9.45701e-05
7.06643e-08
9.45661e-05
1.04748e-07
9.45669e-05
1.40817e-07
9.45733e-05
1.76129e-07
9.45847e-05
2.08183e-07
9.46004e-05
2.35517e-07
9.46194e-05
2.57513e-07
9.46409e-05
2.74126e-07
9.46641e-05
2.85694e-07
9.46885e-05
2.92767e-07
9.47135e-05
2.95975e-07
9.4739e-05
2.95939e-07
9.47646e-05
2.93237e-07
9.47902e-05
2.88376e-07
9.48158e-05
2.81789e-07
9.48412e-05
2.73838e-07
9.48664e-05
2.6482e-07
9.48915e-05
2.54974e-07
9.49163e-05
2.44489e-07
9.4941e-05
2.33513e-07
9.49655e-05
2.22156e-07
9.49899e-05
2.10499e-07
9.50141e-05
1.98595e-07
9.50383e-05
1.86476e-07
9.50625e-05
1.74153e-07
9.50867e-05
1.61621e-07
9.51108e-05
1.4886e-07
9.51349e-05
1.35842e-07
9.5159e-05
1.2253e-07
9.5183e-05
1.08887e-07
9.48681e-08
9.52069e-05
9.72879e-05
1.51117e-08
9.72841e-05
4.39452e-08
9.72806e-05
7.41621e-08
9.72794e-05
1.05935e-07
9.72821e-05
1.38173e-07
9.72891e-05
1.69043e-07
9.73005e-05
1.96813e-07
9.73156e-05
2.20409e-07
9.73338e-05
2.39353e-07
9.73543e-05
2.53607e-07
9.73766e-05
2.63435e-07
9.74e-05
2.69283e-07
9.74244e-05
2.71669e-07
9.74492e-05
2.71121e-07
9.74743e-05
2.68134e-07
9.74995e-05
2.63151e-07
9.75247e-05
2.56557e-07
9.75499e-05
2.48677e-07
9.75749e-05
2.39778e-07
9.75998e-05
2.30077e-07
9.76246e-05
2.1975e-07
9.76492e-05
2.0893e-07
9.76736e-05
1.97721e-07
9.76979e-05
1.86198e-07
9.77221e-05
1.74411e-07
9.77462e-05
1.62393e-07
9.77702e-05
1.50156e-07
9.77941e-05
1.37701e-07
9.78179e-05
1.25019e-07
9.78417e-05
1.12092e-07
9.78653e-05
9.8897e-08
9.78888e-05
8.54129e-08
7.16113e-08
9.7912e-05
0.000100068
1.57549e-08
0.000100067
4.54819e-08
0.000100066
7.51054e-08
0.000100067
1.04845e-07
0.000100071
1.33935e-07
0.000100079
1.61142e-07
0.000100091
1.85282e-07
0.000100106
2.05603e-07
0.000100123
2.21777e-07
0.000100143
2.33806e-07
0.000100164
2.41924e-07
0.000100187
2.46508e-07
0.000100211
2.47999e-07
0.000100235
2.46848e-07
0.00010026
2.43484e-07
0.000100285
2.38294e-07
0.00010031
2.31618e-07
0.000100335
2.23744e-07
0.000100359
2.14912e-07
0.000100384
2.05319e-07
0.000100409
1.95122e-07
0.000100433
1.84445e-07
0.000100458
1.73381e-07
0.000100482
1.62001e-07
0.000100506
1.50353e-07
0.00010053
1.38467e-07
0.000100554
1.26362e-07
0.000100577
1.14041e-07
0.000100601
1.01503e-07
0.000100624
8.87392e-08
0.000100647
7.57407e-08
0.00010067
6.24941e-08
4.89876e-08
0.000100693
0.000102928
1.57657e-08
0.000102928
4.55023e-08
0.000102929
7.42236e-08
0.000102932
1.02057e-07
0.000102937
1.28439e-07
0.000102946
1.52528e-07
0.000102958
1.73534e-07
0.000102972
1.90959e-07
0.000102989
2.04614e-07
0.000103009
2.14556e-07
0.00010303
2.21013e-07
0.000103052
2.24323e-07
0.000103075
2.24872e-07
0.000103099
2.23052e-07
0.000103123
2.1924e-07
0.000103147
2.13773e-07
0.000103172
2.06952e-07
0.000103197
1.9903e-07
0.000103221
1.90224e-07
0.000103246
1.80706e-07
0.000103271
1.7062e-07
0.000103295
1.60077e-07
0.000103319
1.49161e-07
0.000103343
1.37937e-07
0.000103367
1.26451e-07
0.000103391
1.14734e-07
0.000103414
1.02804e-07
0.000103438
9.06707e-08
0.000103461
7.83382e-08
0.000103484
6.58056e-08
0.000103507
5.30715e-08
0.000103529
4.0133e-08
2.69868e-08
0.000103551
0.000105869
1.54008e-08
0.00010587
4.45535e-08
0.000105872
7.21377e-08
0.000105876
9.81267e-08
0.000105882
1.22081e-07
0.000105892
1.43427e-07
0.000105903
1.61654e-07
0.000105918
1.7647e-07
0.000105935
1.87807e-07
0.000105953
1.95778e-07
0.000105974
2.00624e-07
0.000105996
2.0266e-07
0.000106018
2.02234e-07
0.000106042
1.99697e-07
0.000106065
1.95378e-07
0.00010609
1.89576e-07
0.000106114
1.82556e-07
0.000106138
1.74543e-07
0.000106163
1.65724e-07
0.000106187
1.56257e-07
0.000106212
1.46265e-07
0.000106236
1.3585e-07
0.00010626
1.25087e-07
0.000106284
1.14036e-07
0.000106308
1.02737e-07
0.000106331
9.1223e-08
0.000106354
7.95112e-08
0.000106378
6.76169e-08
0.0001064
5.55452e-08
0.000106423
4.33047e-08
0.000106445
3.08965e-08
0.000106467
1.83278e-08
5.59829e-09
0.000106488
0.000108894
1.48395e-08
0.000108895
4.30668e-08
0.000108898
6.93817e-08
0.000108903
9.35801e-08
0.00010891
1.15298e-07
0.000108919
1.34151e-07
0.000108931
1.49844e-07
0.000108945
1.62249e-07
0.000108961
1.71408e-07
0.00010898
1.77492e-07
0.000108999
1.80759e-07
0.000109021
1.81515e-07
0.000109043
1.80084e-07
0.000109066
1.76783e-07
0.000109089
1.71905e-07
0.000109113
1.65717e-07
0.000109137
1.58449e-07
0.000109161
1.50301e-07
0.000109186
1.41438e-07
0.00010921
1.31995e-07
0.000109234
1.22085e-07
0.000109258
1.11793e-07
0.000109282
1.01189e-07
0.000109306
9.03244e-08
0.000109329
7.92389e-08
0.000109352
6.79594e-08
0.000109375
5.65075e-08
0.000109398
4.48963e-08
0.000109421
3.31388e-08
0.000109443
2.12422e-08
0.000109464
9.21694e-09
0.000109486
-2.9303e-09
-1.51931e-08
0.000109506
0.000112005
1.4216e-08
0.000112007
4.13979e-08
0.00011201
6.64309e-08
0.000112014
8.892e-08
0.000112021
1.08549e-07
0.00011203
1.25082e-07
0.000112042
1.38398e-07
0.000112055
1.48515e-07
0.000112071
1.55576e-07
0.000112089
1.5981e-07
0.000112108
1.61501e-07
0.000112129
1.60954e-07
0.00011215
1.58476e-07
0.000112173
1.54358e-07
0.000112196
1.48865e-07
0.000112219
1.42234e-07
0.000112243
1.34669e-07
0.000112267
1.26342e-07
0.000112291
1.17398e-07
0.000112315
1.07955e-07
0.000112339
9.81088e-08
0.000112363
8.79353e-08
0.000112387
7.74932e-08
0.00011241
6.68289e-08
0.000112433
5.59762e-08
0.000112456
4.49613e-08
0.000112479
3.38036e-08
0.000112501
2.25185e-08
0.000112524
1.11187e-08
0.000112545
-3.84581e-10
0.000112566
-1.19805e-08
0.000112587
-2.36589e-08
-3.5412e-08
0.000112607
0.000115205
1.36428e-08
0.000115207
3.98708e-08
0.000115209
6.37417e-08
0.000115214
8.46561e-08
0.00011522
1.02331e-07
0.000115228
1.16666e-07
0.000115239
1.27696e-07
0.000115252
1.35581e-07
0.000115267
1.40563e-07
0.000115284
1.42936e-07
0.000115302
1.43014e-07
0.000115322
1.41109e-07
0.000115343
1.37519e-07
0.000115365
1.32514e-07
0.000115387
1.26336e-07
0.00011541
1.19195e-07
0.000115434
1.11271e-07
0.000115457
1.02714e-07
0.000115481
9.36464e-08
0.000115505
8.41706e-08
0.000115529
7.43667e-08
0.000115552
6.42992e-08
0.000115576
5.40174e-08
0.000115599
4.35604e-08
0.000115622
3.29565e-08
0.000115645
2.22299e-08
0.000115667
1.13967e-08
0.000115689
4.73087e-10
0.000115711
-1.05298e-08
0.000115732
-2.15988e-08
0.000115753
-3.27237e-08
0.000115773
-4.38926e-08
-5.50989e-08
0.000115793
0.000118496
1.3231e-08
0.000118497
3.88184e-08
0.000118499
6.18004e-08
0.000118503
8.13475e-08
0.000118508
9.72132e-08
0.000118515
1.09436e-07
0.000118524
1.18216e-07
0.000118536
1.23858e-07
0.00011855
1.26718e-07
0.000118566
1.27161e-07
0.000118583
1.25539e-07
0.000118602
1.22178e-07
0.000118622
1.17373e-07
0.000118643
1.11379e-07
0.000118665
1.0442e-07
0.000118688
9.66808e-08
0.000118711
8.83192e-08
0.000118734
7.9463e-08
0.000118758
7.02171e-08
0.000118781
6.06641e-08
0.000118805
5.08713e-08
0.000118828
4.08887e-08
0.000118851
3.07582e-08
0.000118874
2.05076e-08
0.000118897
1.01634e-08
0.00011892
-2.58985e-10
0.000118942
-1.07421e-08
0.000118963
-2.12765e-08
0.000118985
-3.1848e-08
0.000119006
-4.24488e-08
0.000119026
-5.30655e-08
0.000119046
-6.36907e-08
-7.43148e-08
0.000119065
0.000121881
1.31117e-08
0.000121882
3.86387e-08
0.000121882
6.11913e-08
0.000121884
7.96693e-08
0.000121887
9.38861e-08
0.000121893
1.04051e-07
0.0001219
1.10553e-07
0.00012191
1.1387e-07
0.000121922
1.14486e-07
0.000121937
1.12854e-07
0.000121953
1.09377e-07
0.000121971
1.04402e-07
0.00012199
9.82274e-08
0.00012201
9.10996e-08
0.000122031
8.32236e-08
0.000122053
7.47659e-08
0.000122076
6.58609e-08
0.000122099
5.66166e-08
0.000122122
4.71167e-08
0.000122145
3.7428e-08
0.000122168
2.76e-08
0.000122191
1.76723e-08
0.000122214
7.67199e-09
0.000122237
-2.37757e-09
0.00012226
-1.24619e-08
0.000122282
-2.25668e-08
0.000122304
-3.2684e-08
0.000122326
-4.28031e-08
0.000122347
-5.29175e-08
0.000122367
-6.30172e-08
0.000122387
-7.30955e-08
0.000122407
-8.31428e-08
-9.31551e-08
0.000122426
0.000125363
1.34645e-08
0.000125362
3.98699e-08
0.00012536
6.26925e-08
0.00012536
8.05074e-08
0.00012536
9.32465e-08
0.000125363
1.01355e-07
0.000125368
1.05464e-07
0.000125376
1.06266e-07
0.000125386
1.04409e-07
0.000125398
1.00455e-07
0.000125413
9.48715e-08
0.000125429
8.80414e-08
0.000125447
8.02703e-08
0.000125466
7.18007e-08
0.000125487
6.28226e-08
0.000125508
5.3483e-08
0.00012553
4.38951e-08
0.000125552
3.4144e-08
0.000125575
2.4294e-08
0.000125598
1.43914e-08
0.000125621
4.46993e-09
0.000125644
-5.44697e-09
0.000125667
-1.53432e-08
0.00012569
-2.5208e-08
0.000125713
-3.50341e-08
0.000125735
-4.48168e-08
0.000125757
-5.45522e-08
0.000125778
-6.4237e-08
0.000125799
-7.38673e-08
0.00012582
-8.34389e-08
0.00012584
-9.29466e-08
0.000125859
-1.02386e-07
-1.11754e-07
0.000125877
0.000128944
1.45659e-08
0.000128941
4.33157e-08
0.000128936
6.74276e-08
0.000128931
8.51006e-08
0.000128928
9.65122e-08
0.000128927
1.02458e-07
0.000128928
1.03906e-07
0.000128933
1.01836e-07
0.00012894
9.71114e-08
0.00012895
9.04349e-08
0.000128963
8.23612e-08
0.000128977
7.33178e-08
0.000128994
6.36275e-08
0.000129012
5.35302e-08
0.000129032
4.32016e-08
0.000129053
3.27676e-08
0.000129074
2.23181e-08
0.000129096
1.19131e-08
0.000129119
1.59388e-09
0.000129142
-8.61616e-09
0.000129165
-1.87016e-08
0.000129189
-2.86581e-08
0.000129212
-3.84832e-08
0.000129235
-4.81808e-08
0.000129257
-5.77538e-08
0.00012928
-6.72082e-08
0.000129302
-7.65474e-08
0.000129323
-8.57761e-08
0.000129344
-9.48957e-08
0.000129365
-1.03908e-07
0.000129385
-1.12813e-07
0.000129404
-1.21609e-07
-1.30299e-07
0.000129422
0.000132627
1.68808e-08
0.00013262
5.02605e-08
0.00013261
7.7106e-08
0.0001326
9.525e-08
0.000132591
1.05376e-07
0.000132585
1.08829e-07
0.000132582
1.07071e-07
0.000132582
1.01493e-07
0.000132586
9.32484e-08
0.000132593
8.32247e-08
0.000132603
7.20879e-08
0.000132616
6.03225e-08
0.000132632
4.8271e-08
0.000132649
3.61689e-08
0.000132668
2.41724e-08
0.000132688
1.23824e-08
0.00013271
8.56641e-10
0.000132732
-1.03723e-08
0.000132755
-2.12958e-08
0.000132778
-3.19133e-08
0.000132802
-4.22378e-08
0.000132825
-5.22822e-08
0.000132849
-6.20674e-08
0.000132873
-7.16095e-08
0.000132896
-8.09294e-08
0.000132919
-9.00417e-08
0.000132941
-9.89639e-08
0.000132963
-1.07706e-07
0.000132984
-1.16282e-07
0.000133005
-1.24696e-07
0.000133025
-1.32957e-07
0.000133045
-1.41068e-07
-1.49037e-07
0.000133063
0.000136414
2.12447e-08
0.000136401
6.2861e-08
0.000136384
9.44141e-08
0.000136366
1.13619e-07
0.000136349
1.22186e-07
0.000136335
1.22355e-07
0.000136326
1.16352e-07
0.000136321
1.06173e-07
0.000136321
9.33672e-08
0.000136325
7.90587e-08
0.000136333
6.40436e-08
0.000136345
4.88667e-08
0.000136359
3.38815e-08
0.000136376
1.93068e-08
0.000136395
5.26631e-09
0.000136416
-8.17931e-09
0.000136437
-2.10132e-08
0.00013646
-3.32453e-08
0.000136484
-4.49027e-08
0.000136508
-5.60223e-08
0.000136532
-6.66452e-08
0.000136557
-7.68143e-08
0.000136582
-8.65708e-08
0.000136606
-9.59547e-08
0.00013663
-1.05001e-07
0.000136654
-1.13743e-07
0.000136677
-1.22208e-07
0.0001367
-1.30421e-07
0.000136722
-1.384e-07
0.000136743
-1.46164e-07
0.000136764
-1.53725e-07
0.000136784
-1.61096e-07
-1.68287e-07
0.000136803
0.000140308
2.92484e-08
0.000140286
8.48694e-08
0.000140257
1.23641e-07
0.000140226
1.44126e-07
0.000140198
1.50098e-07
0.000140175
1.45293e-07
0.000140158
1.33158e-07
0.000140148
1.16583e-07
0.000140144
9.76367e-08
0.000140145
7.77104e-08
0.000140151
5.77279e-08
0.000140162
3.82685e-08
0.000140176
1.96668e-08
0.000140193
2.09024e-09
0.000140213
-1.43962e-08
0.000140235
-2.97986e-08
0.000140258
-4.41588e-08
0.000140282
-5.7547e-08
0.000140307
-7.00389e-08
0.000140333
-8.1719e-08
0.000140359
-9.26655e-08
0.000140385
-1.02958e-07
0.000140411
-1.12664e-07
0.000140437
-1.21851e-07
0.000140463
-1.30573e-07
0.000140488
-1.38883e-07
0.000140512
-1.46824e-07
0.000140536
-1.54433e-07
0.00014056
-1.61742e-07
0.000140582
-1.68778e-07
0.000140604
-1.75561e-07
0.000140625
-1.82114e-07
-1.88451e-07
0.000140645
0.00014431
4.40966e-08
0.000144272
1.22966e-07
0.000144224
1.71606e-07
0.000144175
1.92347e-07
0.000144133
1.93045e-07
0.000144098
1.79937e-07
0.000144073
1.58439e-07
0.000144056
1.32706e-07
0.000144049
1.05387e-07
0.000144048
7.80991e-08
0.000144054
5.18206e-08
0.000144065
2.70904e-08
0.000144081
4.14735e-09
0.0001441
-1.69488e-08
0.000144122
-3.62454e-08
0.000144146
-5.38455e-08
0.000144172
-6.98855e-08
0.000144199
-8.45101e-08
0.000144226
-9.78674e-08
0.000144255
-1.10095e-07
0.000144283
-1.21326e-07
0.000144312
-1.31676e-07
0.000144341
-1.41252e-07
0.000144369
-1.50147e-07
0.000144397
-1.58445e-07
0.000144424
-1.66215e-07
0.000144451
-1.73521e-07
0.000144477
-1.80413e-07
0.000144502
-1.86939e-07
0.000144526
-1.93133e-07
0.00014455
-1.99031e-07
0.000144572
-2.04657e-07
-2.10038e-07
0.000144594
0.000148419
7.26535e-08
0.000148353
1.8915e-07
0.000148276
2.48808e-07
0.000148203
2.65622e-07
0.000148141
2.5517e-07
0.000148093
2.27733e-07
0.000148059
1.9177e-07
0.000148039
1.52998e-07
0.00014803
1.1447e-07
0.00014803
7.77896e-08
0.000148038
4.38003e-08
0.000148053
1.28388e-08
0.000148072
-1.50755e-08
0.000148095
-4.00877e-08
0.000148121
-6.24189e-08
0.00014815
-8.23222e-08
0.00014818
-1.00057e-07
0.000148211
-1.15873e-07
0.000148243
-1.30003e-07
0.000148276
-1.42658e-07
0.000148309
-1.54027e-07
0.000148341
-1.64277e-07
0.000148374
-1.73555e-07
0.000148405
-1.81987e-07
0.000148437
-1.89684e-07
0.000148467
-1.9674e-07
0.000148497
-2.03237e-07
0.000148526
-2.09244e-07
0.000148554
-2.14821e-07
0.00014858
-2.20015e-07
0.000148606
-2.2487e-07
0.000148631
-2.29422e-07
-2.33702e-07
0.000148655
0.000152632
1.29873e-07
0.000152516
3.05152e-07
0.000152394
3.70604e-07
0.000152288
3.72177e-07
0.000152204
3.39114e-07
0.000152144
2.87476e-07
0.000152106
2.29858e-07
0.000152085
1.73288e-07
0.000152079
1.20459e-07
0.000152085
7.24082e-08
0.000152099
2.94922e-08
0.00015212
-8.39774e-09
0.000152147
-4.16364e-08
0.000152178
-7.06901e-08
0.000152211
-9.60283e-08
0.000152247
-1.18104e-07
0.000152284
-1.37334e-07
0.000152322
-1.54099e-07
0.000152361
-1.68733e-07
0.0001524
-1.8153e-07
0.000152439
-1.92745e-07
0.000152477
-2.02602e-07
0.000152515
-2.1129e-07
0.000152552
-2.18974e-07
0.000152588
-2.25792e-07
0.000152623
-2.31865e-07
0.000152657
-2.37294e-07
0.00015269
-2.42166e-07
0.000152722
-2.46553e-07
0.000152752
-2.50518e-07
0.000152782
-2.54112e-07
0.00015281
-2.57381e-07
-2.60363e-07
0.000152836
0.000156935
2.46028e-07
0.00015673
5.10863e-07
0.000156541
5.58723e-07
0.000156395
5.19032e-07
0.000156291
4.42838e-07
0.000156226
3.52373e-07
0.000156192
2.64351e-07
0.00015618
1.85194e-07
0.000156185
1.15423e-07
0.000156202
5.46053e-08
0.00015623
2.15057e-09
0.000156264
-4.27901e-08
0.000156304
-8.11898e-08
0.000156347
-1.13946e-07
0.000156393
-1.41851e-07
0.00015644
-1.65593e-07
0.000156489
-1.85786e-07
0.000156538
-2.02951e-07
0.000156586
-2.17544e-07
0.000156635
-2.29946e-07
0.000156683
-2.4049e-07
0.000156729
-2.49451e-07
0.000156775
-2.5707e-07
0.00015682
-2.63544e-07
0.000156863
-2.69047e-07
0.000156905
-2.73719e-07
0.000156945
-2.77686e-07
0.000156984
-2.81047e-07
0.000157022
-2.83891e-07
0.000157057
-2.86289e-07
0.000157091
-2.88306e-07
0.000157124
-2.8999e-07
-2.91396e-07
0.000157155
0.000161294
4.90803e-07
0.000160931
8.73878e-07
0.000160653
8.36527e-07
0.000160464
7.07491e-07
0.000160352
5.55689e-07
0.000160297
4.06651e-07
0.000160282
2.79217e-07
0.000160294
1.7383e-07
0.000160324
8.5583e-08
0.000160367
1.15842e-08
0.000160419
-5.00867e-08
0.000160477
-1.01332e-07
0.00016054
-1.43923e-07
0.000160605
-1.79306e-07
0.000160672
-2.08643e-07
0.00016074
-2.32908e-07
0.000160807
-2.52927e-07
0.000160873
-2.69394e-07
0.000160939
-2.82885e-07
0.000161002
-2.93886e-07
0.000161065
-3.02798e-07
0.000161125
-3.09962e-07
0.000161184
-3.15657e-07
0.00016124
-3.20123e-07
0.000161295
-3.23555e-07
0.000161347
-3.26122e-07
0.000161398
-3.27959e-07
0.000161446
-3.29186e-07
0.000161492
-3.29896e-07
0.000161536
-3.30175e-07
0.000161577
-3.30084e-07
0.000161617
-3.29683e-07
-3.2902e-07
0.000161655
0.000165516
1.12864e-06
0.000164915
1.47497e-06
0.000164579
1.17244e-06
0.000164389
8.96914e-07
0.00016431
6.34566e-07
0.000164306
4.10897e-07
0.000164344
2.41627e-07
0.000164407
1.11018e-07
0.000164487
5.67589e-09
0.000164578
-7.99143e-08
0.000164677
-1.48909e-07
0.00016478
-2.04358e-07
0.000164885
-2.48941e-07
0.00016499
-2.84696e-07
0.000165095
-3.13198e-07
0.000165198
-3.35742e-07
0.000165298
-3.53406e-07
0.000165396
-3.67073e-07
0.00016549
-3.7746e-07
0.000165582
-3.85155e-07
0.00016567
-3.9064e-07
0.000165754
-3.9431e-07
0.000165835
-3.96492e-07
0.000165912
-3.97454e-07
0.000165986
-3.97418e-07
0.000166056
-3.96567e-07
0.000166123
-3.95052e-07
0.000166187
-3.93e-07
0.000166248
-3.90517e-07
0.000166305
-3.87692e-07
0.00016636
-3.84603e-07
0.000166412
-3.81318e-07
-3.77911e-07
0.00016646