/*--------------------------------*- C++ -*----------------------------------*\
  =========                 |
  \\      /  F ield         | OpenFOAM: The Open Source CFD Toolbox
   \\    /   O peration     | Website:  https://openfoam.org
    \\  /    A nd           | Version:  10
     \\/     M anipulation  |
\*---------------------------------------------------------------------------*/
FoamFile
{
    format      ascii;
    class       volVectorField;
    location    "2000";
    object      U;
}
// * * * * * * * * * * * * * * * * * * * * * * * * * * * * * * * * * * * * * //

dimensions      [0 1 -1 0 0 0 0];

internalField   nonuniform List<vector> 
6820
(
(7.13228 -2.83247 0)
(7.73434 -2.22097 0)
(7.93448 -1.24474 0)
(7.85773 -0.6306 0)
(7.69324 -0.300931 0)
(7.51792 -0.135203 0)
(7.34937 -0.0534969 0)
(7.19463 -0.0130606 0)
(7.05694 0.0068681 0)
(6.93549 0.0163329 0)
(6.82783 0.0203896 0)
(6.73176 0.0216666 0)
(6.64553 0.0215374 0)
(6.56773 0.0207171 0)
(6.49714 0.0195837 0)
(6.43278 0.0183402 0)
(6.37383 0.0170942 0)
(6.31964 0.0158998 0)
(6.26963 0.0147819 0)
(6.22336 0.0137499 0)
(6.18041 0.012805 0)
(6.14044 0.0119447 0)
(6.10314 0.0111648 0)
(6.06826 0.0104609 0)
(6.03555 0.00983007 0)
(6.00478 0.00927113 0)
(5.97574 0.00878707 0)
(5.94821 0.00838465 0)
(5.92199 0.00809341 0)
(5.89659 0.0079196 0)
(5.87255 0.00801466 0)
(5.846 0.00891827 0)
(5.82177 0.00807818 0)
(7.57676 0.619468 0)
(7.41857 0.759314 0)
(7.35518 0.51949 0)
(7.35368 0.338998 0)
(7.40446 0.233424 0)
(7.46266 0.167015 0)
(7.5028 0.124257 0)
(7.52296 0.097055 0)
(7.52874 0.0793576 0)
(7.52455 0.0672667 0)
(7.51318 0.0586463 0)
(7.49676 0.0523022 0)
(7.47704 0.047492 0)
(7.45521 0.0437278 0)
(7.43207 0.0406898 0)
(7.40817 0.0381724 0)
(7.38394 0.0360399 0)
(7.35964 0.0341991 0)
(7.33548 0.0325846 0)
(7.31162 0.0311505 0)
(7.28815 0.029864 0)
(7.26515 0.0287018 0)
(7.24265 0.0276471 0)
(7.22071 0.0266889 0)
(7.19932 0.0258208 0)
(7.17851 0.0250419 0)
(7.15826 0.0243585 0)
(7.13857 0.0237829 0)
(7.11945 0.0233573 0)
(7.10076 0.0230937 0)
(7.08299 0.0233598 0)
(7.0646 0.0234426 0)
(7.04965 0.0265852 0)
(7.26194 -0.0479146 0)
(7.1598 -0.0718991 0)
(7.19681 -0.084502 0)
(7.23914 -0.0533681 0)
(7.27631 -0.0172219 0)
(7.31446 0.00633839 0)
(7.34736 0.020658 0)
(7.37268 0.0300121 0)
(7.39197 0.0360121 0)
(7.4065 0.0394942 0)
(7.41687 0.0412603 0)
(7.42373 0.0419569 0)
(7.42779 0.0419935 0)
(7.42964 0.0416146 0)
(7.4297 0.0409788 0)
(7.42833 0.0401939 0)
(7.42582 0.0393304 0)
(7.42239 0.0384325 0)
(7.41822 0.0375283 0)
(7.41346 0.0366361 0)
(7.40824 0.0357679 0)
(7.40264 0.0349318 0)
(7.39675 0.0341342 0)
(7.39064 0.0333804 0)
(7.38434 0.0326769 0)
(7.37792 0.032032 0)
(7.37138 0.0314598 0)
(7.36477 0.0309777 0)
(7.3581 0.030629 0)
(7.35135 0.0304341 0)
(7.34472 0.0306149 0)
(7.33786 0.0308815 0)
(7.33183 0.0324217 0)
(7.29243 -0.0887256 0)
(7.22392 -0.0614724 0)
(7.23482 -0.0268995 0)
(7.25115 -0.00103352 0)
(7.2656 0.0189104 0)
(7.28496 0.0304709 0)
(7.30449 0.0362741 0)
(7.32129 0.0394567 0)
(7.33582 0.0412414 0)
(7.3485 0.0420198 0)
(7.35931 0.0421315 0)
(7.36832 0.0418685 0)
(7.37577 0.0413989 0)
(7.3819 0.0408063 0)
(7.38688 0.0401413 0)
(7.39087 0.0394393 0)
(7.39402 0.0387237 0)
(7.39645 0.0380086 0)
(7.39827 0.037303 0)
(7.39956 0.0366134 0)
(7.4004 0.0359447 0)
(7.40085 0.0353011 0)
(7.40096 0.0346869 0)
(7.40079 0.0341071 0)
(7.40037 0.0335689 0)
(7.39973 0.0330817 0)
(7.3989 0.0326607 0)
(7.3979 0.0323253 0)
(7.39677 0.0321139 0)
(7.39551 0.0320555 0)
(7.39423 0.0322791 0)
(7.39287 0.0326589 0)
(7.39186 0.0337654 0)
(7.31244 -0.0515032 0)
(7.26793 -0.0318754 0)
(7.26467 -0.0126191 0)
(7.26769 -5.8091e-05 0)
(7.27322 0.0130531 0)
(7.28436 0.0226481 0)
(7.29691 0.0282839 0)
(7.30832 0.031884 0)
(7.31873 0.0343767 0)
(7.32833 0.0359797 0)
(7.337 0.0369011 0)
(7.34469 0.0373706 0)
(7.35151 0.0375415 0)
(7.35755 0.0375013 0)
(7.36289 0.0373097 0)
(7.36761 0.0370127 0)
(7.37179 0.0366439 0)
(7.37549 0.0362272 0)
(7.37877 0.0357795 0)
(7.38167 0.0353142 0)
(7.38424 0.0348416 0)
(7.38652 0.0343708 0)
(7.38855 0.0339098 0)
(7.39034 0.0334669 0)
(7.39193 0.0330516 0)
(7.39334 0.0326756 0)
(7.39458 0.0323545 0)
(7.39569 0.0321078 0)
(7.39669 0.0319664 0)
(7.3976 0.0319579 0)
(7.39851 0.0321518 0)
(7.39944 0.0325105 0)
(7.40062 0.0332713 0)
(7.3203 -0.0314406 0)
(7.28849 -0.0238375 0)
(7.28204 -0.0120237 0)
(7.2814 -0.00207218 0)
(7.28395 0.00926726 0)
(7.29103 0.0182375 0)
(7.2996 0.0239844 0)
(7.30776 0.0278593 0)
(7.31545 0.0306266 0)
(7.32275 0.0325023 0)
(7.32954 0.0336877 0)
(7.33576 0.0343999 0)
(7.34146 0.0347892 0)
(7.34667 0.0349463 0)
(7.35146 0.034934 0)
(7.35584 0.0348 0)
(7.35988 0.0345794 0)
(7.3636 0.0342974 0)
(7.36703 0.0339725 0)
(7.3702 0.0336192 0)
(7.37315 0.0332488 0)
(7.3759 0.0328712 0)
(7.37846 0.0324954 0)
(7.38085 0.0321302 0)
(7.3831 0.0317855 0)
(7.38521 0.0314725 0)
(7.38721 0.0312055 0)
(7.38912 0.0310014 0)
(7.39096 0.0308832 0)
(7.39277 0.0308719 0)
(7.39461 0.0310036 0)
(7.39652 0.0312669 0)
(7.39866 0.0317435 0)
(7.32446 -0.0216669 0)
(7.30104 -0.0195807 0)
(7.29416 -0.0109326 0)
(7.2922 -0.00220221 0)
(7.29331 0.00755227 0)
(7.29804 0.0155713 0)
(7.30422 0.0210652 0)
(7.3104 0.0249136 0)
(7.3164 0.0277086 0)
(7.32221 0.0296643 0)
(7.32772 0.0309689 0)
(7.33286 0.0318125 0)
(7.33766 0.0323312 0)
(7.34214 0.0326119 0)
(7.34632 0.0327157 0)
(7.35024 0.0326894 0)
(7.35391 0.0325675 0)
(7.35736 0.0323754 0)
(7.36061 0.0321322 0)
(7.36369 0.0318527 0)
(7.3666 0.031549 0)
(7.36937 0.0312313 0)
(7.37201 0.0309089 0)
(7.37453 0.0305908 0)
(7.37695 0.0302864 0)
(7.37928 0.0300061 0)
(7.38153 0.0297618 0)
(7.38373 0.0295669 0)
(7.3859 0.0294369 0)
(7.38808 0.0293851 0)
(7.39031 0.0294268 0)
(7.39265 0.0295517 0)
(7.39519 0.0297697 0)
(7.32737 -0.014995 0)
(7.31004 -0.0151752 0)
(7.30324 -0.00892332 0)
(7.30059 -0.00165258 0)
(7.30082 0.00656003 0)
(7.30407 0.0136081 0)
(7.3087 0.0187445 0)
(7.31359 0.0224814 0)
(7.31849 0.0252473 0)
(7.32331 0.0272355 0)
(7.32795 0.0286135 0)
(7.33235 0.0295451 0)
(7.3365 0.0301519 0)
(7.34043 0.0305166 0)
(7.34414 0.0306989 0)
(7.34765 0.0307443 0)
(7.35099 0.0306871 0)
(7.35416 0.0305528 0)
(7.35719 0.0303609 0)
(7.36008 0.0301267 0)
(7.36286 0.0298626 0)
(7.36553 0.029579 0)
(7.36811 0.0292852 0)
(7.3706 0.02899 0)
(7.37302 0.0287018 0)
(7.37538 0.0284298 0)
(7.3777 0.0281833 0)
(7.37999 0.0279718 0)
(7.38228 0.0278046 0)
(7.3846 0.0276874 0)
(7.38698 0.0276224 0)
(7.38948 0.0275951 0)
(7.39216 0.0275856 0)
(7.3294 -0.00997862 0)
(7.31672 -0.0111223 0)
(7.3103 -0.00679823 0)
(7.30731 -0.000926299 0)
(7.30696 0.00594429 0)
(7.30918 0.0121039 0)
(7.31272 0.016845 0)
(7.31668 0.0204207 0)
(7.32079 0.0231206 0)
(7.32491 0.0251059 0)
(7.32892 0.0265219 0)
(7.33278 0.0275084 0)
(7.33647 0.028174 0)
(7.33998 0.0285962 0)
(7.34333 0.0288324 0)
(7.34653 0.028927 0)
(7.3496 0.0289136 0)
(7.35254 0.0288176 0)
(7.35536 0.0286588 0)
(7.35809 0.0284526 0)
(7.36072 0.0282115 0)
(7.36327 0.027946 0)
(7.36575 0.0276651 0)
(7.36818 0.027377 0)
(7.37055 0.0270893 0)
(7.37288 0.0268094 0)
(7.37519 0.0265442 0)
(7.37749 0.0262995 0)
(7.37981 0.0260795 0)
(7.38216 0.0258843 0)
(7.38458 0.025708 0)
(7.38712 0.0255324 0)
(7.38979 0.0253277 0)
(7.33075 -0.00639677 0)
(7.32165 -0.00775547 0)
(7.31591 -0.00477765 0)
(7.31286 -8.53348e-05 0)
(7.31212 0.00562832 0)
(7.31358 0.0109701 0)
(7.3163 0.0152867 0)
(7.31955 0.0186551 0)
(7.32303 0.0212518 0)
(7.32661 0.0232012 0)
(7.33015 0.0246246 0)
(7.33359 0.0256397 0)
(7.33692 0.0263418 0)
(7.34011 0.0268022 0)
(7.34319 0.0270755 0)
(7.34615 0.0272041 0)
(7.34899 0.0272206 0)
(7.35174 0.0271503 0)
(7.3544 0.0270126 0)
(7.35698 0.026823 0)
(7.35948 0.026594 0)
(7.36193 0.0263359 0)
(7.36432 0.0260573 0)
(7.36666 0.0257657 0)
(7.36897 0.0254677 0)
(7.37125 0.0251689 0)
(7.37352 0.0248741 0)
(7.3758 0.0245861 0)
(7.3781 0.0243053 0)
(7.38044 0.0240275 0)
(7.38284 0.0237428 0)
(7.38534 0.0234314 0)
(7.38795 0.0230625 0)
(7.33162 -0.00393167 0)
(7.32523 -0.00506069 0)
(7.32037 -0.00292645 0)
(7.31748 0.000819409 0)
(7.31653 0.00553993 0)
(7.31744 0.0101309 0)
(7.31951 0.0140074 0)
(7.32218 0.0171315 0)
(7.32517 0.0195923 0)
(7.32829 0.0214767 0)
(7.33144 0.022881 0)
(7.33455 0.023902 0)
(7.33758 0.0246216 0)
(7.34053 0.0251046 0)
(7.34337 0.0254014 0)
(7.34613 0.0255522 0)
(7.3488 0.0255883 0)
(7.3514 0.0255341 0)
(7.35392 0.0254088 0)
(7.35637 0.0252276 0)
(7.35877 0.0250029 0)
(7.36111 0.0247446 0)
(7.36342 0.0244607 0)
(7.36569 0.0241581 0)
(7.36793 0.0238423 0)
(7.37016 0.0235175 0)
(7.37238 0.0231865 0)
(7.37462 0.0228498 0)
(7.37687 0.0225051 0)
(7.37917 0.022146 0)
(7.38152 0.0217605 0)
(7.38395 0.0213293 0)
(7.38647 0.0208245 0)
(7.33218 -0.00226298 0)
(7.32778 -0.0029576 0)
(7.32388 -0.00130574 0)
(7.32132 0.00171461 0)
(7.3203 0.00560375 0)
(7.32082 0.00951947 0)
(7.32241 0.0129574 0)
(7.32461 0.015813 0)
(7.32717 0.0181113 0)
(7.32991 0.0199053 0)
(7.33274 0.0212668 0)
(7.33556 0.0222731 0)
(7.33834 0.0229934 0)
(7.34107 0.0234847 0)
(7.34373 0.0237931 0)
(7.34632 0.0239559 0)
(7.34884 0.0240027 0)
(7.3513 0.0239568 0)
(7.3537 0.0238369 0)
(7.35605 0.0236578 0)
(7.35835 0.0234313 0)
(7.36061 0.0231669 0)
(7.36284 0.0228722 0)
(7.36504 0.0225533 0)
(7.36722 0.0222147 0)
(7.36939 0.0218594 0)
(7.37156 0.0214885 0)
(7.37374 0.0211011 0)
(7.37595 0.0206932 0)
(7.37819 0.0202571 0)
(7.38047 0.0197808 0)
(7.38281 0.0192466 0)
(7.38522 0.0186306 0)
(7.33252 -0.00115137 0)
(7.32957 -0.0013655 0)
(7.32658 4.25184e-05 0)
(7.32445 0.00253317 0)
(7.32349 0.00574978 0)
(7.32378 0.00907498 0)
(7.325 0.0120928 0)
(7.32682 0.0146686 0)
(7.32903 0.0167854 0)
(7.33145 0.0184678 0)
(7.33398 0.0197658 0)
(7.33656 0.0207391 0)
(7.33912 0.0214443 0)
(7.34166 0.0219307 0)
(7.34416 0.0222397 0)
(7.3466 0.0224051 0)
(7.34899 0.0224545 0)
(7.35134 0.0224101 0)
(7.35363 0.0222895 0)
(7.35589 0.022107 0)
(7.3581 0.0218738 0)
(7.36029 0.0215988 0)
(7.36244 0.0212892 0)
(7.36458 0.0209502 0)
(7.3667 0.0205854 0)
(7.36881 0.020197 0)
(7.37093 0.0197849 0)
(7.37305 0.0193471 0)
(7.3752 0.0188788 0)
(7.37737 0.0183723 0)
(7.37958 0.017816 0)
(7.38183 0.0171946 0)
(7.38412 0.0164885 0)
(7.33273 -0.000425929 0)
(7.3308 -0.000200324 0)
(7.32861 0.00110802 0)
(7.32695 0.00322729 0)
(7.32615 0.00591699 0)
(7.32632 0.00874096 0)
(7.32729 0.0113709 0)
(7.32882 0.0136686 0)
(7.33073 0.015593 0)
(7.33288 0.017148 0)
(7.33516 0.0183654 0)
(7.33752 0.0192892 0)
(7.33989 0.0199651 0)
(7.34226 0.0204346 0)
(7.34461 0.0207337 0)
(7.34692 0.020893 0)
(7.3492 0.0209377 0)
(7.35144 0.0208884 0)
(7.35364 0.0207617 0)
(7.35581 0.020571 0)
(7.35795 0.0203269 0)
(7.36006 0.0200377 0)
(7.36215 0.0197099 0)
(7.36422 0.0193481 0)
(7.36628 0.0189552 0)
(7.36834 0.0185325 0)
(7.3704 0.0180794 0)
(7.37246 0.0175932 0)
(7.37455 0.0170689 0)
(7.37665 0.0164991 0)
(7.37877 0.0158736 0)
(7.38092 0.0151795 0)
(7.3831 0.0144011 0)
(7.33285 3.59071e-05 0)
(7.33162 0.000621724 0)
(7.3301 0.00190624 0)
(7.32889 0.00377053 0)
(7.3283 0.0060572 0)
(7.32845 0.00846697 0)
(7.32926 0.0107509 0)
(7.33058 0.0127829 0)
(7.33225 0.0145124 0)
(7.33417 0.01593 0)
(7.33625 0.0170536 0)
(7.33841 0.0179146 0)
(7.34061 0.0185486 0)
(7.34283 0.0189899 0)
(7.34504 0.0192697 0)
(7.34724 0.0194148 0)
(7.34941 0.0194479 0)
(7.35156 0.0193879 0)
(7.35367 0.01925 0)
(7.35577 0.0190469 0)
(7.35783 0.0187883 0)
(7.35988 0.0184819 0)
(7.3619 0.0181335 0)
(7.36392 0.0177471 0)
(7.36592 0.0173251 0)
(7.36792 0.0168683 0)
(7.36992 0.0163755 0)
(7.37192 0.0158439 0)
(7.37393 0.0152687 0)
(7.37596 0.0146432 0)
(7.378 0.0139586 0)
(7.38005 0.0132045 0)
(7.38212 0.0123684 0)
(7.33292 0.000320733 0)
(7.33217 0.00117704 0)
(7.33117 0.00246821 0)
(7.33036 0.00415588 0)
(7.32999 0.00613762 0)
(7.33019 0.00821171 0)
(7.33092 0.0101952 0)
(7.33209 0.011982 0)
(7.33358 0.0135214 0)
(7.33532 0.0147974 0)
(7.33721 0.0158184 0)
(7.3392 0.0166061 0)
(7.34126 0.0171878 0)
(7.34334 0.0175915 0)
(7.34543 0.0178433 0)
(7.34752 0.0179667 0)
(7.3496 0.0179818 0)
(7.35166 0.0179056 0)
(7.35369 0.0177522 0)
(7.35571 0.0175329 0)
(7.35771 0.0172567 0)
(7.35969 0.0169306 0)
(7.36166 0.0165599 0)
(7.36361 0.0161479 0)
(7.36555 0.0156967 0)
(7.36749 0.0152066 0)
(7.36943 0.0146762 0)
(7.37137 0.0141029 0)
(7.37331 0.0134823 0)
(7.37526 0.0128085 0)
(7.37722 0.0120743 0)
(7.37918 0.0112713 0)
(7.38114 0.0103899 0)
(7.33296 0.000488347 0)
(7.33253 0.0015308 0)
(7.33192 0.00283209 0)
(7.33145 0.00439145 0)
(7.33129 0.00614098 0)
(7.33157 0.00794525 0)
(7.33227 0.00967271 0)
(7.33334 0.0112389 0)
(7.3347 0.0125984 0)
(7.33628 0.0137338 0)
(7.33803 0.0146477 0)
(7.33988 0.0153548 0)
(7.3418 0.015876 0)
(7.34377 0.0162339 0)
(7.34575 0.0164503 0)
(7.34774 0.0165454 0)
(7.34973 0.0165369 0)
(7.3517 0.0164397 0)
(7.35367 0.0162666 0)
(7.35561 0.0160278 0)
(7.35755 0.0157314 0)
(7.35947 0.0153838 0)
(7.36137 0.0149895 0)
(7.36327 0.0145517 0)
(7.36515 0.0140717 0)
(7.36703 0.0135497 0)
(7.36891 0.0129846 0)
(7.37078 0.0123737 0)
(7.37265 0.0117132 0)
(7.37453 0.0109982 0)
(7.3764 0.0102229 0)
(7.37826 0.00938075 0)
(7.38013 0.0084644 0)
(7.33299 0.000579315 0)
(7.33276 0.00173617 0)
(7.33244 0.00303723 0)
(7.33222 0.00449523 0)
(7.33226 0.00606327 0)
(7.33262 0.00764948 0)
(7.33332 0.00916033 0)
(7.33433 0.010531 0)
(7.33559 0.0117241 0)
(7.33706 0.0127235 0)
(7.33868 0.0135292 0)
(7.34042 0.0141514 0)
(7.34222 0.0146063 0)
(7.34408 0.0149121 0)
(7.34597 0.0150869 0)
(7.34786 0.0151481 0)
(7.34977 0.0151109 0)
(7.35167 0.0149885 0)
(7.35356 0.0147922 0)
(7.35544 0.014531 0)
(7.35731 0.0142124 0)
(7.35917 0.0138418 0)
(7.36102 0.0134234 0)
(7.36286 0.0129597 0)
(7.36469 0.012452 0)
(7.36651 0.0119002 0)
(7.36832 0.0113034 0)
(7.37012 0.0106591 0)
(7.37193 0.00996423 0)
(7.37372 0.00921481 0)
(7.37551 0.00840619 0)
(7.37728 0.00753335 0)
(7.37905 0.00659074 0)
(7.333 0.00062084 0)
(7.33291 0.00183515 0)
(7.33278 0.00312044 0)
(7.33276 0.00449035 0)
(7.33294 0.00591044 0)
(7.33338 0.00731703 0)
(7.33409 0.00864368 0)
(7.33507 0.00984195 0)
(7.33626 0.0108828 0)
(7.33764 0.011753 0)
(7.33916 0.0124519 0)
(7.34079 0.0129873 0)
(7.3425 0.0133721 0)
(7.34426 0.013621 0)
(7.34606 0.0137495 0)
(7.34787 0.013772 0)
(7.3497 0.0137019 0)
(7.35153 0.0135507 0)
(7.35335 0.0133282 0)
(7.35517 0.0130424 0)
(7.35698 0.0126999 0)
(7.35878 0.0123054 0)
(7.36057 0.0118626 0)
(7.36235 0.0113736 0)
(7.36412 0.0108396 0)
(7.36588 0.0102604 0)
(7.36763 0.00963514 0)
(7.36937 0.00896186 0)
(7.3711 0.008238 0)
(7.37281 0.00746037 0)
(7.37452 0.00662542 0)
(7.37621 0.00572934 0)
(7.37788 0.004768 0)
(7.333 0.000631069 0)
(7.333 0.00186026 0)
(7.33301 0.00311423 0)
(7.33312 0.00440153 0)
(7.3334 0.00569504 0)
(7.3339 0.00694921 0)
(7.33462 0.0081167 0)
(7.33557 0.00916202 0)
(7.33671 0.0100636 0)
(7.33801 0.010812 0)
(7.33945 0.011407 0)
(7.34099 0.0118554 0)
(7.34261 0.0121677 0)
(7.34429 0.0123565 0)
(7.346 0.0124348 0)
(7.34774 0.0124151 0)
(7.34949 0.0123087 0)
(7.35125 0.0121256 0)
(7.35302 0.0118744 0)
(7.35477 0.0115622 0)
(7.35652 0.0111945 0)
(7.35827 0.0107756 0)
(7.36 0.0103086 0)
(7.36172 0.00979527 0)
(7.36343 0.00923664 0)
(7.36512 0.00863261 0)
(7.36681 0.00798236 0)
(7.36848 0.00728436 0)
(7.37014 0.00653658 0)
(7.37178 0.00573654 0)
(7.37341 0.00488159 0)
(7.37502 0.00396886 0)
(7.3766 0.00299533 0)
(7.33301 0.000622164 0)
(7.33305 0.00183648 0)
(7.33314 0.00304644 0)
(7.33333 0.00425305 0)
(7.33368 0.00543339 0)
(7.33421 0.00655381 0)
(7.33494 0.00758044 0)
(7.33585 0.00848794 0)
(7.33694 0.0092613 0)
(7.33818 0.00989453 0)
(7.33954 0.0103889 0)
(7.341 0.0107507 0)
(7.34254 0.0109894 0)
(7.34414 0.0111157 0)
(7.34578 0.011141 0)
(7.34745 0.011076 0)
(7.34913 0.0109304 0)
(7.35083 0.0107131 0)
(7.35252 0.0104312 0)
(7.35422 0.0100911 0)
(7.35591 0.00969736 0)
(7.35759 0.00925381 0)
(7.35927 0.00876301 0)
(7.36093 0.00822657 0)
(7.36258 0.00764524 0)
(7.36422 0.00701901 0)
(7.36584 0.0063472 0)
(7.36744 0.00562864 0)
(7.36903 0.00486173 0)
(7.3706 0.00404464 0)
(7.37215 0.00317538 0)
(7.37368 0.00225189 0)
(7.37517 0.00127193 0)
(7.33301 0.000602449 0)
(7.33307 0.0017832 0)
(7.33321 0.00294074 0)
(7.33344 0.0040678 0)
(7.33382 0.00514374 0)
(7.33435 0.00614306 0)
(7.33506 0.00704173 0)
(7.33594 0.00782243 0)
(7.33698 0.00847577 0)
(7.33815 0.00899921 0)
(7.33944 0.00939558 0)
(7.34082 0.00967142 0)
(7.34228 0.0098355 0)
(7.34381 0.00989758 0)
(7.34537 0.0098675 0)
(7.34697 0.00975467 0)
(7.34858 0.00956762 0)
(7.35021 0.00931383 0)
(7.35185 0.00899966 0)
(7.35348 0.00863034 0)
(7.35512 0.00821 0)
(7.35674 0.00774175 0)
(7.35836 0.00722779 0)
(7.35996 0.00666946 0)
(7.36155 0.0060674 0)
(7.36313 0.0054216 0)
(7.36469 0.00473155 0)
(7.36623 0.00399633 0)
(7.36775 0.00321476 0)
(7.36925 0.00238549 0)
(7.37072 0.00150708 0)
(7.37217 0.000578066 0)
(7.37358 -0.000403202 0)
(7.33301 0.000577911 0)
(7.33308 0.00171594 0)
(7.33322 0.00281768 0)
(7.33346 0.00386735 0)
(7.33383 0.00484545 0)
(7.33435 0.00573245 0)
(7.33502 0.00651192 0)
(7.33584 0.00717329 0)
(7.33681 0.00771214 0)
(7.33791 0.00812924 0)
(7.33913 0.00842916 0)
(7.34043 0.00861904 0)
(7.34182 0.00870742 0)
(7.34326 0.00870332 0)
(7.34475 0.00861562 0)
(7.34628 0.00845263 0)
(7.34783 0.00822179 0)
(7.34939 0.00792958 0)
(7.35097 0.00758145 0)
(7.35254 0.00718184 0)
(7.35412 0.00673425 0)
(7.35568 0.00624128 0)
(7.35724 0.00570475 0)
(7.35879 0.00512576 0)
(7.36032 0.00450483 0)
(7.36183 0.00384194 0)
(7.36333 0.00313672 0)
(7.36481 0.00238845 0)
(7.36626 0.00159629 0)
(7.36769 0.00075923 0)
(7.36909 -0.000123709 0)
(7.37047 -0.00105359 0)
(7.37181 -0.00203159 0)
(7.33301 0.000553269 0)
(7.33307 0.00164809 0)
(7.3332 0.00269613 0)
(7.33341 0.0036728 0)
(7.33374 0.00455905 0)
(7.3342 0.0053402 0)
(7.33481 0.00600632 0)
(7.33556 0.00655287 0)
(7.33645 0.00698021 0)
(7.33747 0.00729236 0)
(7.3386 0.00749584 0)
(7.33982 0.00759865 0)
(7.34113 0.00760941 0)
(7.34249 0.00753671 0)
(7.34391 0.00738872 0)
(7.34536 0.00717286 0)
(7.34684 0.00689571 0)
(7.34834 0.00656284 0)
(7.34985 0.00617893 0)
(7.35136 0.0057477 0)
(7.35288 0.00527206 0)
(7.35438 0.00475417 0)
(7.35589 0.00419545 0)
(7.35737 0.00359681 0)
(7.35885 0.0029586 0)
(7.36031 0.00228083 0)
(7.36174 0.00156315 0)
(7.36316 0.000805065 0)
(7.36455 5.90309e-06 0)
(7.36592 -0.000835017 0)
(7.36725 -0.00171842 0)
(7.36856 -0.002645 0)
(7.36983 -0.0036157 0)
(7.33301 0.00053281 0)
(7.33305 0.00159254 0)
(7.33313 0.00259507 0)
(7.33329 0.00350625 0)
(7.33354 0.00430715 0)
(7.33392 0.00498771 0)
(7.33443 0.00554412 0)
(7.33509 0.00597788 0)
(7.33588 0.0062942 0)
(7.3368 0.00650057 0)
(7.33783 0.00660569 0)
(7.33896 0.00661869 0)
(7.34018 0.00654855 0)
(7.34146 0.00640372 0)
(7.34279 0.00619182 0)
(7.34417 0.00591964 0)
(7.34558 0.00559295 0)
(7.34701 0.00521659 0)
(7.34846 0.00479453 0)
(7.34991 0.00432986 0)
(7.35137 0.00382494 0)
(7.35282 0.00328147 0)
(7.35427 0.00270058 0)
(7.3557 0.00208287 0)
(7.35712 0.0014286 0)
(7.35852 0.000737699 0)
(7.3599 9.88065e-06 0)
(7.36126 -0.000755299 0)
(7.3626 -0.00155833 0)
(7.3639 -0.00239973 0)
(7.36518 -0.00328 0)
(7.36642 -0.00419967 0)
(7.36763 -0.00515943 0)
(7.333 0.000521161 0)
(7.33301 0.00156356 0)
(7.33303 0.00253594 0)
(7.33309 0.00339306 0)
(7.33323 0.00411634 0)
(7.33348 0.0047008 0)
(7.33387 0.00514927 0)
(7.3344 0.00546975 0)
(7.33507 0.00567282 0)
(7.33587 0.0057699 0)
(7.33679 0.00577226 0)
(7.33782 0.00569048 0)
(7.33893 0.00553419 0)
(7.34012 0.00531189 0)
(7.34137 0.00503096 0)
(7.34267 0.00469762 0)
(7.34401 0.004317 0)
(7.34537 0.0038933 0)
(7.34676 0.00342983 0)
(7.34815 0.0029291 0)
(7.34955 0.00239295 0)
(7.35095 0.00182265 0)
(7.35235 0.00121896 0)
(7.35373 0.000582251 0)
(7.3551 -8.73935e-05 0)
(7.35646 -0.000790154 0)
(7.35779 -0.00152634 0)
(7.3591 -0.00229636 0)
(7.36038 -0.00310065 0)
(7.36163 -0.00393963 0)
(7.36285 -0.00481369 0)
(7.36404 -0.00572324 0)
(7.3652 -0.00666883 0)
(7.333 0.000524225 0)
(7.33296 0.00157931 0)
(7.33286 0.00254585 0)
(7.33278 0.00336515 0)
(7.33276 0.00401999 0)
(7.33285 0.00451198 0)
(7.33308 0.00485187 0)
(7.33345 0.00505537 0)
(7.33396 0.00513945 0)
(7.33462 0.00512015 0)
(7.33541 0.00501188 0)
(7.33632 0.00482715 0)
(7.33733 0.00457657 0)
(7.33842 0.00426898 0)
(7.33958 0.00391162 0)
(7.34081 0.00351033 0)
(7.34207 0.00306973 0)
(7.34338 0.0025934 0)
(7.3447 0.00208403 0)
(7.34605 0.00154356 0)
(7.3474 0.000973316 0)
(7.34875 0.000374109 0)
(7.3501 -0.000253675 0)
(7.35145 -0.00090994 0)
(7.35277 -0.00159486 0)
(7.35409 -0.00230874 0)
(7.35538 -0.00305201 0)
(7.35665 -0.00382512 0)
(7.35789 -0.00462852 0)
(7.3591 -0.00546261 0)
(7.36028 -0.00632776 0)
(7.36142 -0.00722433 0)
(7.36253 -0.00815286 0)
(7.33299 0.000550604 0)
(7.33287 0.00166561 0)
(7.33262 0.00266243 0)
(7.33233 0.00346582 0)
(7.33209 0.00406252 0)
(7.33196 0.00446358 0)
(7.33197 0.00469021 0)
(7.33213 0.00476802 0)
(7.33247 0.00472195 0)
(7.33296 0.00457385 0)
(7.33361 0.0043421 0)
(7.33438 0.00404171 0)
(7.33528 0.00368468 0)
(7.33628 0.00328044 0)
(7.33736 0.00283627 0)
(7.33851 0.00235774 0)
(7.33971 0.00184898 0)
(7.34096 0.00131294 0)
(7.34224 0.000751724 0)
(7.34354 0.000166633 0)
(7.34486 -0.000441561 0)
(7.34618 -0.00107257 0)
(7.3475 -0.00172642 0)
(7.34881 -0.00240342 0)
(7.35011 -0.00310399 0)
(7.3514 -0.00382872 0)
(7.35266 -0.00457818 0)
(7.3539 -0.00535298 0)
(7.35511 -0.00615365 0)
(7.35629 -0.00698067 0)
(7.35744 -0.00783446 0)
(7.35855 -0.00871543 0)
(7.35963 -0.00962412 0)
(7.33299 0.000614136 0)
(7.33274 0.00186236 0)
(7.33225 0.00294152 0)
(7.33167 0.00375696 0)
(7.33112 0.00430512 0)
(7.33069 0.00461172 0)
(7.33042 0.00471281 0)
(7.33033 0.00464756 0)
(7.33045 0.00445151 0)
(7.33076 0.00415405 0)
(7.33125 0.00377863 0)
(7.33189 0.00334348 0)
(7.33268 0.00286242 0)
(7.33359 0.00234567 0)
(7.3346 0.00180066 0)
(7.33569 0.00123262 0)
(7.33685 0.000645136 0)
(7.33807 4.04936e-05 0)
(7.33932 -0.000579985 0)
(7.3406 -0.00121568 0)
(7.3419 -0.00186655 0)
(7.3432 -0.00253288 0)
(7.34451 -0.00321527 0)
(7.34581 -0.00391449 0)
(7.3471 -0.00463139 0)
(7.34837 -0.00536686 0)
(7.34962 -0.00612179 0)
(7.35085 -0.00689697 0)
(7.35205 -0.00769316 0)
(7.35322 -0.00851098 0)
(7.35435 -0.00935099 0)
(7.35545 -0.0102137 0)
(7.3565 -0.0110997 0)
(7.33297 0.000738753 0)
(7.33253 0.00223475 0)
(7.33168 0.00346955 0)
(7.33067 0.00432968 0)
(7.32969 0.00483345 0)
(7.32886 0.00503032 0)
(7.32823 0.00497896 0)
(7.32785 0.00473839 0)
(7.32773 0.00435867 0)
(7.32784 0.00387905 0)
(7.32817 0.00332947 0)
(7.3287 0.00273208 0)
(7.3294 0.00210274 0)
(7.33025 0.00145244 0)
(7.33121 0.000788559 0)
(7.33228 0.000115801 0)
(7.33342 -0.0005631 0)
(7.33463 -0.00124679 0)
(7.33588 -0.00193494 0)
(7.33717 -0.00262788 0)
(7.33847 -0.00332647 0)
(7.33979 -0.0040318 0)
(7.34111 -0.0047452 0)
(7.34243 -0.00546804 0)
(7.34373 -0.00620174 0)
(7.34501 -0.00694763 0)
(7.34628 -0.00770701 0)
(7.34751 -0.008481 0)
(7.34872 -0.00927065 0)
(7.34989 -0.0100768 0)
(7.35103 -0.0109003 0)
(7.35213 -0.0117418 0)
(7.35318 -0.012602 0)
(7.33295 0.000968523 0)
(7.33217 0.0028934 0)
(7.33075 0.00438302 0)
(7.32911 0.00531901 0)
(7.32754 0.00576582 0)
(7.32618 0.00581286 0)
(7.32513 0.00555542 0)
(7.32442 0.00508252 0)
(7.32404 0.00446436 0)
(7.32397 0.00375275 0)
(7.32418 0.00298528 0)
(7.32463 0.00218826 0)
(7.32529 0.00137921 0)
(7.32611 0.000569305 0)
(7.32708 -0.000234805 0)
(7.32817 -0.00102962 0)
(7.32934 -0.00181379 0)
(7.33059 -0.00258746 0)
(7.33188 -0.0033517 0)
(7.33321 -0.00410823 0)
(7.33457 -0.00485903 0)
(7.33593 -0.00560636 0)
(7.3373 -0.00635242 0)
(7.33866 -0.00709947 0)
(7.34001 -0.00784958 0)
(7.34134 -0.00860475 0)
(7.34264 -0.00936674 0)
(7.34391 -0.0101372 0)
(7.34515 -0.0109175 0)
(7.34635 -0.0117088 0)
(7.34751 -0.0125123 0)
(7.34863 -0.0133289 0)
(7.34971 -0.0141595 0)
(7.3329 0.00139147 0)
(7.33153 0.00403337 0)
(7.32919 0.00589863 0)
(7.32662 0.00691991 0)
(7.32425 0.00725639 0)
(7.32225 0.00706539 0)
(7.32072 0.00650283 0)
(7.31968 0.0057033 0)
(7.31908 0.00476337 0)
(7.31889 0.00374914 0)
(7.31904 0.00270566 0)
(7.31948 0.00166214 0)
(7.32017 0.00063616 0)
(7.32106 -0.000362623 0)
(7.32211 -0.00132971 0)
(7.32328 -0.00226401 0)
(7.32455 -0.00316659 0)
(7.32589 -0.00403987 0)
(7.32729 -0.00488702 0)
(7.32872 -0.00571158 0)
(7.33017 -0.00651721 0)
(7.33163 -0.00730755 0)
(7.33309 -0.00808606 0)
(7.33454 -0.00885601 0)
(7.33597 -0.00962041 0)
(7.33737 -0.010382 0)
(7.33874 -0.0111432 0)
(7.34008 -0.0119063 0)
(7.34138 -0.012673 0)
(7.34264 -0.0134451 0)
(7.34386 -0.0142239 0)
(7.34503 -0.0150108 0)
(7.34615 -0.015807 0)
(7.33278 0.00219487 0)
(7.33032 0.00601669 0)
(7.32651 0.00836861 0)
(7.32261 0.00940575 0)
(7.3192 0.00948343 0)
(7.31647 0.00887638 0)
(7.31447 0.00783912 0)
(7.31316 0.00656962 0)
(7.31246 0.00519292 0)
(7.31226 0.00378634 0)
(7.31248 0.00239833 0)
(7.31305 0.00105682 0)
(7.31389 -0.000224432 0)
(7.31495 -0.00144032 0)
(7.31617 -0.0025909 0)
(7.31753 -0.00367925 0)
(7.31899 -0.00471023 0)
(7.32051 -0.00568953 0)
(7.32209 -0.00662319 0)
(7.32369 -0.00751719 0)
(7.3253 -0.00837729 0)
(7.32692 -0.00920886 0)
(7.32852 -0.0100169 0)
(7.33011 -0.0108059 0)
(7.33167 -0.01158 0)
(7.3332 -0.0123428 0)
(7.33469 -0.0130976 0)
(7.33613 -0.0138471 0)
(7.33754 -0.0145939 0)
(7.33889 -0.0153401 0)
(7.34019 -0.0160876 0)
(7.34144 -0.0168379 0)
(7.34264 -0.0175926 0)
(7.33249 0.00373993 0)
(7.32795 0.00949112 0)
(7.32175 0.0123743 0)
(7.31603 0.0131795 0)
(7.31142 0.0126549 0)
(7.30798 0.0112916 0)
(7.30567 0.00950377 0)
(7.30431 0.00756153 0)
(7.30371 0.00560352 0)
(7.30373 0.00370365 0)
(7.30423 0.00190269 0)
(7.3051 0.00021822 0)
(7.30626 -0.00134682 0)
(7.30765 -0.00279691 0)
(7.3092 -0.00414002 0)
(7.31088 -0.00538586 0)
(7.31264 -0.00654475 0)
(7.31446 -0.00762695 0)
(7.31631 -0.00864219 0)
(7.31818 -0.00959953 0)
(7.32004 -0.0105072 0)
(7.3219 -0.0113727 0)
(7.32372 -0.0122028 0)
(7.32552 -0.0130033 0)
(7.32728 -0.0137795 0)
(7.32899 -0.0145361 0)
(7.33065 -0.0152771 0)
(7.33226 -0.0160061 0)
(7.33382 -0.0167261 0)
(7.33531 -0.0174397 0)
(7.33675 -0.0181492 0)
(7.33812 -0.0188566 0)
(7.33943 -0.0195637 0)
(7.33193 0.00663979 0)
(7.32329 0.0152926 0)
(7.31325 0.0184843 0)
(7.30522 0.0185729 0)
(7.29944 0.0168815 0)
(7.29558 0.0142379 0)
(7.29334 0.0113082 0)
(7.29234 0.00842422 0)
(7.29223 0.0056964 0)
(7.29281 0.00316928 0)
(7.29389 0.00086186 0)
(7.29536 -0.00122871 0)
(7.2971 -0.00311851 0)
(7.29905 -0.00482723 0)
(7.30114 -0.00637469 0)
(7.30333 -0.00777998 0)
(7.30558 -0.00906115 0)
(7.30785 -0.0102347 0)
(7.31014 -0.0113155 0)
(7.31241 -0.0123166 0)
(7.31466 -0.0132499 0)
(7.31687 -0.0141254 0)
(7.31904 -0.0149522 0)
(7.32115 -0.0157382 0)
(7.3232 -0.01649 0)
(7.32519 -0.0172137 0)
(7.32711 -0.0179144 0)
(7.32896 -0.0185964 0)
(7.33074 -0.0192637 0)
(7.33245 -0.0199195 0)
(7.33408 -0.0205666 0)
(7.33564 -0.0212077 0)
(7.33713 -0.0218451 0)
(7.33069 0.0134348 0)
(7.31368 0.0252083 0)
(7.29797 0.0267162 0)
(7.28753 0.0249966 0)
(7.28098 0.0216509 0)
(7.27735 0.0175207 0)
(7.27593 0.013439 0)
(7.27598 0.00969736 0)
(7.27699 0.0062969 0)
(7.27869 0.00321832 0)
(7.28089 0.000449534 0)
(7.28343 -0.0020323 0)
(7.2862 -0.00425778 0)
(7.28913 -0.00625636 0)
(7.29214 -0.00805425 0)
(7.29519 -0.00967543 0)
(7.29825 -0.0111419 0)
(7.30129 -0.0124736 0)
(7.30428 -0.0136881 0)
(7.30722 -0.014801 0)
(7.31009 -0.0158261 0)
(7.31288 -0.0167753 0)
(7.31558 -0.0176594 0)
(7.3182 -0.0184876 0)
(7.32072 -0.019268 0)
(7.32315 -0.0200076 0)
(7.32548 -0.0207127 0)
(7.32772 -0.0213884 0)
(7.32985 -0.0220394 0)
(7.33189 -0.0226697 0)
(7.33384 -0.0232826 0)
(7.33569 -0.0238807 0)
(7.33744 -0.0244663 0)
(7.32456 0.0347127 0)
(7.28958 0.0467051 0)
(7.26765 0.0370837 0)
(7.25765 0.0262592 0)
(7.25264 0.016726 0)
(7.25096 0.00874772 0)
(7.25187 0.00250301 0)
(7.25427 -0.00234206 0)
(7.2575 -0.00618226 0)
(7.26132 -0.00925464 0)
(7.26556 -0.0117283 0)
(7.27004 -0.0137437 0)
(7.27465 -0.015411 0)
(7.27931 -0.0168095 0)
(7.28396 -0.0179968 0)
(7.28854 -0.0190171 0)
(7.29303 -0.0199051 0)
(7.29741 -0.0206879 0)
(7.30166 -0.0213869 0)
(7.30576 -0.0220188 0)
(7.30972 -0.0225969 0)
(7.31352 -0.0231322 0)
(7.31716 -0.0236331 0)
(7.32065 -0.0241068 0)
(7.32399 -0.0245589 0)
(7.32718 -0.0249941 0)
(7.33021 -0.0254162 0)
(7.3331 -0.0258284 0)
(7.33585 -0.0262334 0)
(7.33845 -0.0266336 0)
(7.34092 -0.0270313 0)
(7.34327 -0.0274287 0)
(7.34549 -0.0278286 0)
(7.29575 0.0823961 0)
(7.21821 0.127207 0)
(7.1868 0.128807 0)
(7.18645 0.114378 0)
(7.19338 0.0947854 0)
(7.20248 0.0767464 0)
(7.21296 0.0615387 0)
(7.22374 0.0483339 0)
(7.23444 0.0367087 0)
(7.24497 0.026574 0)
(7.25523 0.0178512 0)
(7.26511 0.0103857 0)
(7.27454 0.00400996 0)
(7.28351 -0.00142468 0)
(7.29201 -0.00605013 0)
(7.30004 -0.00998556 0)
(7.30763 -0.0133364 0)
(7.31479 -0.0161932 0)
(7.32153 -0.018633 0)
(7.32788 -0.0207211 0)
(7.33385 -0.0225128 0)
(7.33947 -0.0240547 0)
(7.34475 -0.0253862 0)
(7.34971 -0.0265403 0)
(7.35437 -0.0275449 0)
(7.35874 -0.0284235 0)
(7.36284 -0.029196 0)
(7.36668 -0.029879 0)
(7.37027 -0.0304865 0)
(7.37364 -0.0310303 0)
(7.37678 -0.0315202 0)
(7.3797 -0.0319634 0)
(7.38242 -0.0323687 0)
(7.32909 -0.158988 0)
(7.19612 -0.292899 0)
(7.13085 -0.292312 0)
(7.10898 -0.259649 0)
(7.10972 -0.22668 0)
(7.13037 -0.19575 0)
(7.16108 -0.167839 0)
(7.19443 -0.144105 0)
(7.22758 -0.124635 0)
(7.25931 -0.108755 0)
(7.28884 -0.0957758 0)
(7.31576 -0.0851749 0)
(7.34003 -0.0765315 0)
(7.36177 -0.0694802 0)
(7.38117 -0.063714 0)
(7.39842 -0.0589858 0)
(7.41372 -0.0550987 0)
(7.42727 -0.0518944 0)
(7.43923 -0.0492454 0)
(7.44979 -0.047049 0)
(7.45908 -0.0452227 0)
(7.46723 -0.0437002 0)
(7.47438 -0.0424279 0)
(7.48062 -0.0413622 0)
(7.48604 -0.0404681 0)
(7.49073 -0.039717 0)
(7.49476 -0.0390856 0)
(7.49821 -0.0385547 0)
(7.50112 -0.0381087 0)
(7.50356 -0.0377345 0)
(7.50557 -0.037421 0)
(7.50719 -0.0371594 0)
(7.50849 -0.0369376 0)
(7.33045 1.21807 0)
(7.6376 1.24116 0)
(7.81729 0.934087 0)
(7.87343 0.66212 0)
(7.88531 0.462339 0)
(7.87662 0.320594 0)
(7.85215 0.220101 0)
(7.81687 0.148063 0)
(7.77613 0.0958197 0)
(7.7334 0.057654 0)
(7.69028 0.0296479 0)
(7.64755 0.00902624 0)
(7.60575 -0.00618902 0)
(7.56523 -0.0174089 0)
(7.52614 -0.0256502 0)
(7.48857 -0.0316569 0)
(7.45251 -0.0359794 0)