/*--------------------------------*- C++ -*----------------------------------*\
  =========                 |
  \\      /  F ield         | OpenFOAM: The Open Source CFD Toolbox
   \\    /   O peration     | Website:  https://openfoam.org
    \\  /    A nd           | Version:  10
     \\/     M anipulation  |
\*---------------------------------------------------------------------------*/
FoamFile
{
    format      ascii;
    class       volScalarField;
    location    "2000";
    object      yPlus;
}
// * * * * * * * * * * * * * * * * * * * * * * * * * * * * * * * * * * * * * //

dimensions      [0 0 0 0 0 0 0];

internalField   uniform 0;

boundaryField
{
    outlet
    {
        type            calculated;
        value           uniform 0;
    }
    inlet
    {
        type            calculated;
        value           uniform 0;
    }
    lowerWall
    {
        type            calculated;
        value           nonuniform List<scalar> 
148
(
12.7112
17.6462
20.7197
22.3203
23.0459
23.2746
23.2254
23.0255
22.751
22.4469
22.1389
21.8405
21.5587
21.2962
21.0538
20.8308
20.626
20.4378
20.2649
20.1058
19.959
19.8234
19.6978
19.5813
19.473
19.372
19.2777
19.1894
19.1062
19.029
18.9501
18.9031
18.6977
0.39928
2.16538
3.90292
5.23464
6.33233
7.24966
8.11615
8.98759
9.85973
10.8802
11.2188
11.3133
11.1591
11.4563
25.6404
0.39928
3.35993
4.97816
5.74394
5.92807
5.79652
5.49443
5.10174
4.58248
3.29249
1.1887
8.02737
8.92736
13.7803
18.5489
22.1048
25.1172
27.7548
30.1082
32.2294
34.1492
35.8897
37.4688
38.904
40.2135
41.4152
42.5269
43.564
44.5406
45.4678
46.3549
47.2087
48.0346
48.8369
49.6193
50.3858
51.1416
51.893
52.6452
53.3822
54.11
54.8285
55.5373
56.2352
56.9207
57.5922
58.2481
58.8864
59.5053
60.1028
60.6766
61.2244
61.7442
62.2335
62.69
63.1114
63.4955
63.8398
64.1427
64.4024
64.6177
64.7872
64.9099
64.9858
65.0137
64.9939
64.926
64.8095
64.6433
64.4226
64.1866
63.9501
63.6656
63.3336
62.9634
62.5623
62.1365
61.6894
61.2248
60.7459
60.2558
59.7572
59.253
58.7458
58.2381
57.7318
57.2289
56.7312
56.2399
55.7568
55.283
54.8203
54.3691
53.933
53.5104
53.1095
52.7269
52.3799
52.0772
51.8314
)
;
    }
    upperWall
    {
        type            calculated;
        value           nonuniform List<scalar> 
133
(
31.2591
34.0073
36.6584
39.0132
41.0752
42.889
44.4881
45.8973
47.1377
48.2283
49.1859
50.0257
50.7609
51.4035
51.9643
52.4525
52.8767
53.2444
53.562
53.8356
54.0702
54.2704
54.4403
54.5835
54.703
54.8017
54.882
54.9462
54.9961
55.0334
55.0597
55.0762
55.0845
55.0839
55.0724
55.0501
55.0172
54.9744
54.9223
54.8613
54.7919
54.7145
54.6298
54.5378
54.4393
54.3343
54.2232
54.1063
53.9838
53.856
53.7229
53.5848
53.4417
53.2937
53.1408
52.9831
52.8205
52.6529
52.4804
52.3026
52.1196
51.9311
51.737
51.5371
51.3311
51.1187
50.8998
50.6741
50.4413
50.2012
49.9534
49.6977
49.4339
49.1617
48.881
48.5914
48.293
47.9855
47.6689
47.3432
47.0084
46.6646
46.312
45.951
45.5817
45.2047
44.8205
44.4297
44.0331
43.6316
43.2261
42.8177
42.4076
41.9971
41.5876
41.1806
40.7777
40.3803
39.9901
39.6088
39.2379
38.879
38.5334
38.2026
37.8877
37.5895
37.309
37.0466
36.8027
36.5773
36.3702
36.181
36.0091
35.8535
35.7134
35.5872
35.4741
35.3723
35.2807
35.1976
35.1218
35.0517
34.9861
34.9237
34.8634
34.8038
34.7443
34.6833
34.6201
34.555
34.4809
34.4211
34.2886
)
;
    }
    frontAndBack
    {
        type            empty;
    }
}


// ************************************************************************* //
