# y+ ()       
# Time        	patch         	min           	max           	average       
1100          	lowerWall	3.988332e-01	6.501274e+01	3.737849e+01
1100          	upperWall	3.125910e+01	5.508446e+01	4.627214e+01
