/*--------------------------------*- C++ -*----------------------------------*\
  =========                 |
  \\      /  F ield         | OpenFOAM: The Open Source CFD Toolbox
   \\    /   O peration     | Website:  https://openfoam.org
    \\  /    A nd           | Version:  10
     \\/     M anipulation  |
\*---------------------------------------------------------------------------*/
FoamFile
{
    format      ascii;
    class       volScalarField;
    location    "700";
    object      k;
}
// * * * * * * * * * * * * * * * * * * * * * * * * * * * * * * * * * * * * * //

dimensions      [0 2 -2 0 0 0 0];

internalField   nonuniform List<scalar> 
6820
(
0.318932
0.614648
0.847396
0.983378
1.04836
1.06927
1.06475
1.0465
1.0217
0.994575
0.967462
0.941559
0.917417
0.895219
0.874956
0.856518
0.839755
0.824507
0.810615
0.797932
0.786325
0.775677
0.765883
0.756852
0.748501
0.740761
0.733566
0.726863
0.72058
0.714772
0.708848
0.705558
0.68982
0.838908
1.45739
1.5306
1.40688
1.25037
1.11087
0.996111
0.903238
0.827887
0.76631
0.715544
0.673419
0.638187
0.608546
0.583483
0.562195
0.54404
0.528502
0.515163
0.503679
0.49377
0.485202
0.477782
0.471348
0.465764
0.460917
0.456709
0.453065
0.449913
0.447225
0.4449
0.443195
0.44156
0.379893
0.662258
0.793337
0.827974
0.818185
0.790402
0.756381
0.721169
0.686891
0.654427
0.624111
0.596043
0.570195
0.546474
0.524757
0.504904
0.48677
0.470214
0.455101
0.441303
0.428703
0.417192
0.406671
0.397051
0.388251
0.380196
0.37282
0.366064
0.359873
0.354204
0.349006
0.344265
0.339914
0.246132
0.3393
0.411878
0.458885
0.485703
0.498879
0.503286
0.502157
0.497535
0.490704
0.482486
0.473435
0.46393
0.45424
0.44455
0.434993
0.425659
0.416611
0.407888
0.399515
0.391504
0.383859
0.376578
0.369655
0.363079
0.356841
0.350925
0.34532
0.340011
0.334984
0.330224
0.325723
0.321454
0.216724
0.25341
0.285799
0.312244
0.332455
0.347125
0.357301
0.364011
0.368096
0.370197
0.370789
0.37023
0.368792
0.366686
0.364075
0.361089
0.357829
0.354377
0.350798
0.347142
0.343452
0.33976
0.33609
0.332465
0.328898
0.325402
0.321987
0.318658
0.315421
0.312279
0.309234
0.306288
0.303439
0.2067
0.22375
0.239981
0.254416
0.266684
0.276738
0.284769
0.291069
0.295923
0.299585
0.302262
0.304127
0.305322
0.305962
0.306143
0.305944
0.305432
0.304663
0.303682
0.302531
0.301241
0.299841
0.298355
0.296804
0.295204
0.293571
0.291915
0.290249
0.28858
0.286916
0.285265
0.28363
0.282017
0.202776
0.211442
0.220463
0.228911
0.236465
0.243012
0.248579
0.253258
0.257157
0.260378
0.263012
0.265139
0.26683
0.268145
0.269136
0.269846
0.270314
0.270573
0.270652
0.270576
0.270366
0.270042
0.26962
0.269115
0.26854
0.267905
0.267221
0.266497
0.26574
0.264958
0.264155
0.263337
0.262511
0.201168
0.205683
0.210952
0.216189
0.221064
0.22544
0.229296
0.232659
0.235575
0.238089
0.240245
0.242083
0.243642
0.244952
0.246043
0.246939
0.247664
0.248237
0.248676
0.248995
0.249208
0.249329
0.249367
0.249332
0.249234
0.24908
0.248876
0.24863
0.248347
0.248032
0.247689
0.247324
0.24694
0.200484
0.202809
0.205913
0.20924
0.212483
0.215494
0.218222
0.220663
0.222834
0.224755
0.226448
0.227934
0.229235
0.230369
0.231352
0.232201
0.232928
0.233546
0.234066
0.234497
0.234849
0.23513
0.235347
0.235505
0.235613
0.235673
0.235692
0.235674
0.235624
0.235543
0.235437
0.235309
0.235161
0.200184
0.20134
0.203132
0.205234
0.207404
0.209501
0.211457
0.21325
0.214879
0.216349
0.217669
0.218852
0.219908
0.220849
0.221684
0.222423
0.223075
0.223648
0.224148
0.224583
0.224958
0.225279
0.225551
0.225778
0.225964
0.226113
0.226229
0.226315
0.226373
0.226407
0.226418
0.226411
0.226385
0.200051
0.200588
0.201579
0.202869
0.204298
0.205746
0.207146
0.208465
0.209689
0.210815
0.211845
0.212781
0.213631
0.214399
0.215093
0.215717
0.216278
0.216781
0.217229
0.217628
0.217983
0.218295
0.21857
0.21881
0.219018
0.219197
0.219349
0.219477
0.219583
0.219669
0.219737
0.219789
0.219826
0.199992
0.200208
0.200718
0.201471
0.202377
0.203351
0.204335
0.205293
0.206205
0.207061
0.207858
0.208595
0.209273
0.209895
0.210464
0.210983
0.211456
0.211885
0.212274
0.212626
0.212943
0.213229
0.213485
0.213714
0.213918
0.214099
0.214259
0.2144
0.214523
0.21463
0.214722
0.214801
0.214867
0.199966
0.200017
0.200248
0.200654
0.201196
0.201823
0.202489
0.203165
0.203829
0.204469
0.205076
0.205648
0.206182
0.206679
0.20714
0.207565
0.207957
0.208317
0.208647
0.208949
0.209226
0.209477
0.209707
0.209915
0.210103
0.210274
0.210428
0.210566
0.210691
0.210802
0.210901
0.21099
0.211069
0.199954
0.199924
0.199997
0.200187
0.200483
0.200858
0.201286
0.201741
0.202206
0.202669
0.203119
0.203552
0.203964
0.204353
0.204718
0.20506
0.205379
0.205675
0.20595
0.206204
0.206439
0.206656
0.206855
0.207038
0.207206
0.20736
0.2075
0.207629
0.207747
0.207854
0.207951
0.20804
0.208121
0.199949
0.199879
0.199866
0.199926
0.200061
0.200262
0.200513
0.200799
0.201107
0.201425
0.201744
0.20206
0.202367
0.202662
0.202944
0.203212
0.203464
0.203702
0.203925
0.204134
0.204329
0.20451
0.204679
0.204835
0.20498
0.205115
0.205239
0.205354
0.20546
0.205558
0.205649
0.205733
0.20581
0.199947
0.199858
0.199799
0.199785
0.19982
0.199903
0.200029
0.200189
0.200374
0.200577
0.200789
0.201006
0.201223
0.201437
0.201646
0.201847
0.202041
0.202225
0.202401
0.202567
0.202723
0.20287
0.203009
0.203139
0.20326
0.203374
0.20348
0.203579
0.203672
0.203758
0.203839
0.203915
0.203986
0.199947
0.199848
0.199766
0.19971
0.199685
0.199693
0.199734
0.199804
0.199898
0.20001
0.200137
0.200273
0.200415
0.20056
0.200704
0.200848
0.200988
0.201124
0.201256
0.201382
0.201503
0.201618
0.201727
0.201831
0.201929
0.202022
0.202109
0.202192
0.20227
0.202343
0.202413
0.202478
0.20254
0.199946
0.199843
0.19975
0.199672
0.199612
0.199575
0.19956
0.199568
0.199596
0.199642
0.199702
0.199774
0.199855
0.199941
0.200032
0.200125
0.200219
0.200312
0.200404
0.200494
0.200582
0.200667
0.200749
0.200828
0.200903
0.200975
0.201044
0.20111
0.201173
0.201233
0.20129
0.201344
0.201396
0.199946
0.199841
0.199743
0.199652
0.199574
0.199509
0.19946
0.199428
0.199411
0.199409
0.19942
0.199443
0.199475
0.199515
0.199562
0.199612
0.199666
0.199723
0.19978
0.199838
0.199896
0.199954
0.20001
0.200066
0.20012
0.200172
0.200224
0.200273
0.200321
0.200367
0.200412
0.200456
0.200497
0.199946
0.199841
0.199739
0.199643
0.199554
0.199474
0.199405
0.199347
0.199301
0.199266
0.199243
0.19923
0.199226
0.19923
0.199241
0.199257
0.199279
0.199304
0.199332
0.199363
0.199395
0.199428
0.199463
0.199497
0.199532
0.199567
0.199601
0.199636
0.19967
0.199703
0.199736
0.199769
0.1998
0.199946
0.19984
0.199737
0.199638
0.199544
0.199456
0.199375
0.199302
0.199237
0.199181
0.199135
0.199097
0.199067
0.199044
0.199029
0.199019
0.199015
0.199016
0.19902
0.199028
0.199039
0.199052
0.199067
0.199084
0.199102
0.199121
0.199141
0.199162
0.199184
0.199206
0.199228
0.19925
0.199273
0.199946
0.19984
0.199736
0.199636
0.199539
0.199446
0.199359
0.199277
0.199202
0.199133
0.199071
0.199017
0.19897
0.198929
0.198895
0.198866
0.198843
0.198825
0.198812
0.198802
0.198796
0.198793
0.198793
0.198796
0.1988
0.198807
0.198815
0.198825
0.198836
0.198848
0.198861
0.198875
0.19889
0.199946
0.19984
0.199736
0.199635
0.199536
0.199441
0.19935
0.199264
0.199182
0.199106
0.199036
0.198972
0.198914
0.198861
0.198815
0.198774
0.198739
0.198708
0.198682
0.198661
0.198643
0.198629
0.198618
0.19861
0.198605
0.198603
0.198602
0.198604
0.198607
0.198612
0.198618
0.198626
0.198635
0.199946
0.19984
0.199736
0.199634
0.199535
0.199439
0.199346
0.199257
0.199173
0.199093
0.199019
0.19895
0.198886
0.198828
0.198775
0.198728
0.198686
0.198648
0.198616
0.198587
0.198563
0.198543
0.198526
0.198512
0.198501
0.198493
0.198488
0.198484
0.198483
0.198484
0.198486
0.19849
0.198495
0.199946
0.19984
0.199735
0.199633
0.199534
0.199438
0.199345
0.199255
0.19917
0.19909
0.199015
0.198945
0.19888
0.198821
0.198768
0.198719
0.198676
0.198637
0.198603
0.198574
0.198549
0.198527
0.198509
0.198494
0.198482
0.198473
0.198466
0.198462
0.19846
0.198459
0.19846
0.198463
0.198467
0.199946
0.199839
0.199735
0.199633
0.199534
0.199438
0.199346
0.199258
0.199175
0.199097
0.199024
0.198958
0.198897
0.198842
0.198793
0.198749
0.19871
0.198676
0.198647
0.198622
0.198601
0.198584
0.19857
0.198559
0.198551
0.198545
0.198541
0.19854
0.19854
0.198542
0.198545
0.198549
0.198555
0.199946
0.19984
0.199735
0.199634
0.199536
0.199442
0.199352
0.199268
0.19919
0.199118
0.199053
0.198995
0.198944
0.198899
0.198861
0.198828
0.198801
0.198778
0.19876
0.198746
0.198736
0.198728
0.198724
0.198722
0.198722
0.198724
0.198728
0.198733
0.19874
0.198747
0.198755
0.198765
0.198774
0.199946
0.19984
0.199736
0.199636
0.199541
0.199451
0.199368
0.199292
0.199225
0.199167
0.199117
0.199075
0.199042
0.199016
0.198996
0.198983
0.198975
0.198971
0.198971
0.198975
0.198982
0.19899
0.199001
0.199013
0.199027
0.199041
0.199056
0.199072
0.199088
0.199104
0.19912
0.199137
0.199153
0.199946
0.199841
0.199739
0.199643
0.199554
0.199475
0.199405
0.199348
0.199302
0.199268
0.199245
0.199232
0.199229
0.199233
0.199243
0.19926
0.19928
0.199305
0.199331
0.19936
0.19939
0.199421
0.199452
0.199483
0.199514
0.199545
0.199574
0.199603
0.199631
0.199659
0.199685
0.19971
0.199734
0.199947
0.199843
0.199747
0.19966
0.199587
0.19953
0.19949
0.199468
0.199463
0.199472
0.199495
0.199529
0.199572
0.199622
0.199677
0.199736
0.199796
0.199858
0.19992
0.199981
0.20004
0.200098
0.200154
0.200208
0.200259
0.200308
0.200355
0.200398
0.20044
0.200479
0.200515
0.20055
0.200582
0.199948
0.19985
0.199767
0.199705
0.199669
0.199661
0.19968
0.199725
0.199791
0.199875
0.199971
0.200078
0.200189
0.200304
0.20042
0.200534
0.200645
0.200753
0.200857
0.200956
0.201049
0.201137
0.20122
0.201298
0.201371
0.201438
0.201501
0.201559
0.201613
0.201662
0.201708
0.20175
0.201788
0.199951
0.199869
0.199823
0.199821
0.199868
0.199962
0.200096
0.200262
0.200449
0.20065
0.200858
0.201067
0.201273
0.201472
0.201663
0.201844
0.202015
0.202175
0.202324
0.202462
0.202589
0.202707
0.202815
0.202915
0.203005
0.203088
0.203164
0.203233
0.203295
0.203351
0.203402
0.203448
0.203489
0.199959
0.199926
0.199977
0.200121
0.200351
0.200649
0.200993
0.201362
0.201739
0.202113
0.202473
0.202816
0.203137
0.203435
0.20371
0.203963
0.204193
0.204403
0.204593
0.204766
0.204921
0.205061
0.205188
0.205301
0.205402
0.205492
0.205573
0.205644
0.205707
0.205763
0.205811
0.205853
0.205889
0.199987
0.200103
0.200415
0.200903
0.201515
0.202193
0.20289
0.203572
0.204217
0.204816
0.205363
0.205858
0.206302
0.206698
0.207052
0.207365
0.207643
0.207888
0.208104
0.208295
0.208463
0.208609
0.208738
0.208849
0.208946
0.209029
0.2091
0.20916
0.20921
0.209252
0.209285
0.209311
0.20933
0.200091
0.200674
0.201674
0.202931
0.204281
0.205607
0.206838
0.207945
0.208922
0.209772
0.210508
0.21114
0.211683
0.212148
0.212546
0.212885
0.213174
0.213421
0.213629
0.213806
0.213954
0.214077
0.214179
0.214261
0.214327
0.214377
0.214415
0.21444
0.214455
0.21446
0.214457
0.214446
0.214429
0.200506
0.202612
0.20538
0.208231
0.210863
0.213156
0.215082
0.216669
0.217964
0.219015
0.219866
0.220552
0.221105
0.22155
0.221907
0.222191
0.222416
0.222592
0.222726
0.222824
0.222893
0.222937
0.222958
0.22296
0.222946
0.222917
0.222875
0.222821
0.222758
0.222686
0.222606
0.222518
0.222425
0.202133
0.209236
0.216717
0.222799
0.227379
0.23075
0.233208
0.234988
0.236273
0.237193
0.237847
0.238306
0.238619
0.238825
0.238946
0.239003
0.239008
0.238971
0.2389
0.238799
0.238674
0.238527
0.238362
0.238181
0.237986
0.237778
0.237559
0.237331
0.237094
0.23685
0.236599
0.236343
0.236082
0.208298
0.22678
0.244129
0.257372
0.266317
0.271773
0.274802
0.276302
0.276882
0.276921
0.276649
0.276201
0.275653
0.275051
0.274418
0.273765
0.273101
0.272428
0.271747
0.271059
0.270365
0.269665
0.268959
0.268248
0.267533
0.266815
0.266095
0.265374
0.264653
0.263933
0.263215
0.2625
0.261789
0.245775
0.310442
0.343758
0.358933
0.365582
0.368297
0.368993
0.368462
0.367138
0.3653
0.363136
0.360774
0.358305
0.355793
0.353284
0.350808
0.348387
0.346036
0.343763
0.341573
0.339469
0.337451
0.33552
0.333674
0.33191
0.330227
0.328621
0.32709
0.325631
0.324241
0.322917
0.321657
0.320456
0.214305
0.253643
0.294732
0.333812
0.370031
0.403432
0.434077
0.462012
0.487322
0.510132
0.530592
0.548864
0.565116
0.579515
0.592227
0.603409
0.613209
0.621765
0.629207
0.63565
0.641202
0.64596
0.65001
0.653433
0.656297
0.658668
0.6606
0.662146
0.663349
0.66425
0.664885
0.665283
0.665482
0.739125
0.844703
0.99613
1.18183
1.37803
1.56709
1.73865
1.8859
2.00465
2.09388
2.15539
2.19339
2.21332
2.22046
2.2192
2.21276
2.20333
2.19221
2.18018
2.16764
2.15473
2.14152
2.12806
2.11432
2.10027
2.08585
2.07095
2.05548
2.03935
2.02245
2.00469
1.98597
1.96619
1.94517
1.92275
1.89876
1.87304
1.84545
1.81586
1.7842
1.75045
1.71462
1.67681
1.63717
1.5959
1.55322
1.50941
1.46473
1.41946
1.37391
1.32838
1.2832
1.23867
1.19515
1.15296
1.11241
1.07381
1.03741
1.00343
0.97205
0.943404
0.91758
0.894629
0.874564
0.857363
0.842971
0.831297
0.822221
0.815595
0.811249
0.808997
0.808648
0.810009
0.812893
0.817122
0.822527
0.828948
0.836229
0.844221
0.852777
0.861743
0.870961
0.88027
0.889502
0.898487
0.907056
0.915049
0.922322
0.92875
0.934231
0.938678
0.942033
0.94425
0.945311
0.945175
0.943854
0.941364
0.937596
0.933346
0.925171
0.441067
0.449555
0.469534
0.503784
0.553318
0.618281
0.697607
0.789524
0.891556
1.0002
1.11007
1.21665
1.31599
1.40508
1.4822
1.54683
1.59944
1.64105
1.67314
1.6972
1.71447
1.72599
1.73269
1.73528
1.7343
1.7302
1.72333
1.71402
1.70251
1.68903
1.67375
1.6568
1.63826
1.61817
1.59652
1.57327
1.54839
1.52183
1.49358
1.46366
1.43212
1.39905
1.36461
1.32896
1.29232
1.25491
1.21699
1.17879
1.14057
1.10259
1.0651
1.02836
0.992637
0.958177
0.925227
0.894009
0.864723
0.837534
0.812572
0.789932
0.769675
0.75183
0.736403
0.723372
0.712694
0.704308
0.698126
0.694045
0.691941
0.69168
0.693116
0.696103
0.700495
0.706152
0.712938
0.720726
0.729392
0.738814
0.74887
0.759442
0.770396
0.781591
0.792885
0.804121
0.815139
0.825775
0.835874
0.845295
0.853911
0.861617
0.868326
0.873973
0.878508
0.881905
0.884115
0.885141
0.88499
0.883564
0.881508
0.876435
0.335295
0.330728
0.326978
0.324714
0.325007
0.328912
0.337392
0.351269
0.371591
0.399529
0.435794
0.48061
0.533588
0.59359
0.658891
0.727416
0.796821
0.864954
0.930036
0.990044
1.04369
1.09047
1.13021
1.16304
1.18925
1.20941
1.22407
1.23376
1.23905
1.24046
1.23846
1.23343
1.2257
1.21554
1.20313
1.18863
1.17217
1.15386
1.13381
1.11214
1.089
1.06455
1.03898
1.01248
0.98528
0.957588
0.929626
0.901611
0.873756
0.846272
0.819364
0.793235
0.768079
0.744083
0.721415
0.700229
0.68065
0.662779
0.646689
0.632429
0.620022
0.609474
0.600774
0.593899
0.588812
0.585464
0.583793
0.583726
0.585176
0.588051
0.592251
0.597678
0.604231
0.611817
0.620342
0.629718
0.639858
0.650667
0.662057
0.673935
0.686187
0.698696
0.711339
0.723973
0.736448
0.748612
0.760313
0.771415
0.781789
0.791328
0.799941
0.807558
0.814122
0.8196
0.823931
0.827108
0.829129
0.829902
0.829923
0.82783
0.316776
0.311659
0.306662
0.301823
0.29728
0.293208
0.289825
0.28738
0.286208
0.286617
0.289025
0.293931
0.301872
0.313334
0.328746
0.348382
0.372374
0.400591
0.432808
0.468299
0.506164
0.545174
0.58425
0.62197
0.657431
0.689663
0.718045
0.742403
0.762674
0.778999
0.791594
0.800708
0.80662
0.809598
0.809892
0.80773
0.803319
0.79685
0.788508
0.778475
0.766936
0.754083
0.740113
0.725223
0.709612
0.693475
0.677003
0.660377
0.643776
0.62737
0.611322
0.595789
0.580922
0.566858
0.553721
0.541621
0.530646
0.520864
0.512325
0.505061
0.499087
0.494408
0.491022
0.488918
0.488077
0.488476
0.490083
0.492856
0.49675
0.501709
0.507676
0.514596
0.522409
0.531061
0.540495
0.550658
0.561493
0.572935
0.584927
0.597396
0.610252
0.623403
0.636744
0.650147
0.663478
0.676595
0.689356
0.701629
0.713283
0.72421
0.734315
0.743526
0.751776
0.759022
0.765193
0.77027
0.774241
0.777018
0.778953
0.779649
0.300237
0.296658
0.293107
0.289569
0.286047
0.282566
0.279167
0.275901
0.272834
0.270049
0.267637
0.265697
0.264369
0.263813
0.26422
0.265794
0.268762
0.273338
0.279756
0.28818
0.298739
0.311396
0.326074
0.342441
0.36015
0.378657
0.397405
0.415797
0.433383
0.449727
0.464489
0.477501
0.488658
0.497925
0.505326
0.510916
0.514773
0.516991
0.517677
0.516947
0.514926
0.511748
0.50755
0.502477
0.496672
0.490278
0.483435
0.47628
0.468946
0.461563
0.454257
0.447149
0.440355
0.433983
0.42813
0.422883
0.418311
0.414472
0.411407
0.409146
0.407708
0.407107
0.40735
0.408443
0.410386
0.413176
0.416806
0.421263
0.426528
0.432578
0.439388
0.446934
0.455189
0.46413
0.473727
0.483957
0.494789
0.506186
0.518114
0.530516
0.543336
0.556502
0.569921
0.583488
0.597085
0.610586
0.623856
0.636774
0.649208
0.661049
0.672198
0.68259
0.69214
0.700796
0.708479
0.71516
0.720811
0.725349
0.728989
0.732224
0.280163
0.278046
0.275904
0.273729
0.27151
0.269251
0.266964
0.264662
0.262364
0.260092
0.25787
0.255725
0.253688
0.2518
0.250109
0.248671
0.247556
0.246841
0.246619
0.246983
0.248042
0.249885
0.252604
0.256245
0.260831
0.266323
0.272644
0.279635
0.287139
0.294946
0.302844
0.31063
0.318123
0.325175
0.331666
0.337509
0.342645
0.347039
0.350679
0.353568
0.355729
0.357197
0.358018
0.358247
0.357949
0.357191
0.356047
0.354593
0.352909
0.351077
0.349179
0.3473
0.345524
0.34393
0.342592
0.341577
0.340943
0.340734
0.340988
0.34173
0.342983
0.344762
0.347082
0.349956
0.353394
0.357408
0.362002
0.36718
0.372941
0.379282
0.386199
0.393688
0.401744
0.410364
0.419543
0.429273
0.43955
0.450362
0.461688
0.473487
0.485733
0.498371
0.511328
0.52452
0.537848
0.551203
0.564462
0.577517
0.590238
0.602519
0.614258
0.625396
0.635834
0.645508
0.654345
0.662296
0.669321
0.675335
0.680434
0.6859
0.261535
0.260393
0.25921
0.257981
0.256699
0.255362
0.253974
0.25254
0.251069
0.249567
0.248045
0.246511
0.244975
0.243449
0.241948
0.240487
0.239087
0.237772
0.23657
0.235515
0.234647
0.234005
0.233638
0.233587
0.233895
0.234591
0.235699
0.237219
0.239139
0.241425
0.244032
0.246897
0.249951
0.253124
0.256345
0.259548
0.262676
0.265679
0.268517
0.271159
0.273583
0.275773
0.277723
0.279433
0.280911
0.282171
0.283232
0.284122
0.284875
0.285528
0.286127
0.286722
0.287363
0.288104
0.288994
0.290081
0.291403
0.292995
0.294883
0.297086
0.299621
0.302503
0.305744
0.309359
0.313359
0.317759
0.322569
0.327798
0.333454
0.339544
0.346075
0.353054
0.360489
0.368387
0.376764
0.385628
0.39498
0.404832
0.415177
0.425991
0.437262
0.448959
0.461031
0.473414
0.486029
0.498784
0.511577
0.524309
0.536863
0.549134
0.561027
0.572481
0.583393
0.593688
0.603301
0.612166
0.620225
0.627405
0.633686
0.641027
0.24647
0.245899
0.24529
0.244638
0.243938
0.243188
0.242388
0.241541
0.240651
0.239721
0.238756
0.237759
0.236736
0.235691
0.234628
0.233555
0.232478
0.231406
0.230348
0.229317
0.228326
0.22739
0.22653
0.225765
0.225117
0.224607
0.224256
0.224082
0.224096
0.224306
0.224714
0.225314
0.226096
0.227045
0.228142
0.229366
0.230695
0.232108
0.233583
0.235103
0.236647
0.238201
0.239748
0.241278
0.242781
0.24425
0.245684
0.247087
0.248467
0.24984
0.251225
0.25265
0.254142
0.255733
0.257453
0.259331
0.261392
0.263655
0.266137
0.268848
0.271799
0.274998
0.278455
0.282179
0.28618
0.29047
0.295058
0.299954
0.305169
0.310712
0.316594
0.322825
0.329423
0.336405
0.34379
0.351597
0.359836
0.368525
0.377675
0.387278
0.397332
0.407824
0.418724
0.429989
0.441561
0.45337
0.465329
0.477359
0.489355
0.501223
0.512872
0.524242
0.535233
0.54577
0.555781
0.565196
0.573944
0.58196
0.589123
0.597948
0.234965
0.234713
0.234427
0.234107
0.233749
0.23335
0.232909
0.232428
0.231907
0.23135
0.230759
0.230136
0.229483
0.228802
0.228098
0.227372
0.226628
0.225869
0.225101
0.224326
0.223552
0.222783
0.222028
0.221296
0.220595
0.219937
0.219334
0.218798
0.218339
0.217967
0.217694
0.217524
0.217464
0.217517
0.217686
0.217968
0.218364
0.218871
0.219483
0.220197
0.221005
0.221901
0.222877
0.223925
0.225036
0.226205
0.227426
0.228698
0.230023
0.231406
0.232858
0.234393
0.236027
0.237778
0.239663
0.241699
0.243899
0.246273
0.248828
0.251568
0.254497
0.257619
0.260939
0.26446
0.268189
0.272134
0.276301
0.280698
0.285335
0.290219
0.295362
0.300778
0.306487
0.312507
0.318857
0.325563
0.332642
0.340116
0.348003
0.356312
0.365048
0.374212
0.383791
0.393763
0.404088
0.414717
0.425585
0.436628
0.447761
0.458905
0.469975
0.480914
0.491633
0.502057
0.512114
0.521729
0.53083
0.539347
0.547087
0.556984
0.226335
0.226255
0.226148
0.226015
0.225852
0.225657
0.22543
0.22517
0.224878
0.224555
0.224203
0.223823
0.223416
0.222986
0.222532
0.222058
0.221566
0.221058
0.220535
0.220001
0.219457
0.218906
0.218351
0.217797
0.217246
0.216705
0.21618
0.215676
0.215201
0.214762
0.214369
0.214027
0.213746
0.213533
0.213394
0.213336
0.213365
0.213484
0.213698
0.214008
0.214416
0.21492
0.215519
0.21621
0.216991
0.217859
0.218811
0.219848
0.220972
0.222187
0.223501
0.224923
0.226463
0.228131
0.229938
0.231892
0.233999
0.236262
0.238682
0.241259
0.243993
0.246884
0.249931
0.253135
0.2565
0.260028
0.263723
0.26759
0.271634
0.275864
0.28029
0.284925
0.289787
0.294894
0.300267
0.305929
0.311903
0.318212
0.324879
0.33192
0.33935
0.347178
0.355405
0.364025
0.373015
0.382347
0.391975
0.401852
0.411914
0.422098
0.432331
0.442563
0.452715
0.46272
0.47251
0.482006
0.491143
0.499844
0.507864
0.518419
0.219851
0.219862
0.219853
0.219824
0.219772
0.219695
0.219594
0.219466
0.219314
0.219137
0.218935
0.218712
0.218466
0.218201
0.217918
0.217618
0.217302
0.216974
0.216633
0.216282
0.215921
0.215552
0.215177
0.214796
0.214412
0.214028
0.213645
0.213268
0.212901
0.212549
0.212219
0.211915
0.211646
0.211419
0.21124
0.211117
0.211056
0.211065
0.211147
0.211309
0.211553
0.211881
0.212297
0.212799
0.213389
0.214068
0.214837
0.215699
0.216657
0.217718
0.218887
0.220173
0.221582
0.223121
0.224796
0.226611
0.228566
0.230661
0.232895
0.235263
0.237762
0.240389
0.243143
0.24602
0.24902
0.252144
0.255391
0.258765
0.262268
0.265907
0.26969
0.273628
0.277736
0.28203
0.286531
0.291261
0.296241
0.301497
0.30705
0.312924
0.319136
0.325702
0.332635
0.339936
0.347601
0.355615
0.363953
0.372582
0.38146
0.390538
0.399762
0.409086
0.418449
0.427791
0.437052
0.446156
0.455048
0.463645
0.47167
0.482487
0.214931
0.214988
0.215031
0.215059
0.215069
0.215061
0.215033
0.214985
0.214918
0.214831
0.214726
0.214602
0.214462
0.214307
0.214137
0.213955
0.213762
0.213559
0.213348
0.213129
0.212903
0.212672
0.212435
0.212194
0.211949
0.211702
0.211455
0.211209
0.210967
0.210733
0.210511
0.210307
0.210125
0.209972
0.209853
0.209776
0.209747
0.209771
0.209853
0.209998
0.210211
0.210494
0.21085
0.211283
0.211793
0.212386
0.213063
0.213831
0.214694
0.215658
0.21673
0.217916
0.219223
0.220655
0.222215
0.223902
0.225717
0.227656
0.229715
0.231888
0.23417
0.236556
0.239043
0.241626
0.244302
0.247069
0.249926
0.252872
0.255908
0.259039
0.262271
0.265612
0.269075
0.272674
0.276428
0.280355
0.284476
0.288815
0.293394
0.298235
0.303361
0.308789
0.314538
0.320618
0.327036
0.333787
0.340862
0.348244
0.355907
0.363819
0.37194
0.380236
0.38866
0.397164
0.405699
0.414195
0.422606
0.430853
0.438639
0.449358
0.211149
0.211229
0.211298
0.211355
0.211399
0.211429
0.211444
0.211444
0.211429
0.211399
0.211354
0.211295
0.211224
0.211141
0.211049
0.210947
0.210838
0.210722
0.210601
0.210476
0.210348
0.210217
0.210083
0.209947
0.209811
0.209673
0.209536
0.209402
0.209271
0.209148
0.209034
0.208935
0.208855
0.208798
0.20877
0.208777
0.208822
0.208911
0.209048
0.209238
0.209483
0.209788
0.210155
0.210588
0.211089
0.211664
0.212317
0.213053
0.213878
0.2148
0.215824
0.216957
0.218202
0.219563
0.221041
0.222634
0.22434
0.226153
0.228069
0.230081
0.232182
0.234367
0.23663
0.238966
0.24137
0.243838
0.246367
0.248954
0.251601
0.254308
0.257079
0.259923
0.262848
0.265866
0.268993
0.272246
0.275644
0.279206
0.282954
0.28691
0.291095
0.29553
0.300235
0.305225
0.310514
0.316106
0.322003
0.328199
0.334682
0.341435
0.348433
0.355651
0.363059
0.370618
0.378293
0.386024
0.393776
0.401475
0.40882
0.41913
0.208206
0.208294
0.208374
0.208445
0.208506
0.208557
0.208596
0.208624
0.20864
0.208645
0.208639
0.208622
0.208596
0.208562
0.208521
0.208474
0.208423
0.208368
0.208311
0.208252
0.208194
0.208135
0.208076
0.208019
0.207963
0.207909
0.207859
0.207813
0.207774
0.207743
0.207724
0.207719
0.207733
0.20777
0.207833
0.207928
0.208057
0.208225
0.208436
0.208692
0.208997
0.209354
0.209765
0.210234
0.210765
0.211362
0.212031
0.212776
0.213605
0.214523
0.215537
0.21665
0.217868
0.219191
0.220618
0.222148
0.223776
0.225497
0.227304
0.22919
0.231148
0.233171
0.235254
0.237388
0.23957
0.241793
0.244053
0.246346
0.248672
0.251031
0.253424
0.255858
0.25834
0.26088
0.263491
0.266186
0.268982
0.271897
0.27495
0.278161
0.28155
0.285138
0.288945
0.29299
0.297287
0.301849
0.306684
0.311794
0.31718
0.322833
0.328742
0.334893
0.341267
0.347838
0.354581
0.36145
0.36842
0.375427
0.382179
0.391827
0.205893
0.205981
0.206063
0.206138
0.206206
0.206266
0.206318
0.206361
0.206396
0.206422
0.20644
0.20645
0.206454
0.206452
0.206446
0.206437
0.206425
0.206412
0.2064
0.206389
0.206379
0.206372
0.206369
0.206369
0.206374
0.206383
0.206399
0.206423
0.206456
0.2065
0.206558
0.206632
0.206727
0.206844
0.206989
0.207164
0.207372
0.207617
0.207902
0.208228
0.2086
0.209018
0.209487
0.210008
0.210586
0.211226
0.211932
0.212709
0.213564
0.214502
0.215529
0.216647
0.21786
0.219168
0.220569
0.222059
0.223635
0.22529
0.227016
0.228807
0.230654
0.232551
0.23449
0.236463
0.238465
0.24049
0.242531
0.244585
0.246649
0.248723
0.250808
0.252908
0.255027
0.257176
0.259363
0.2616
0.263902
0.266284
0.268762
0.271354
0.274079
0.276957
0.280006
0.283245
0.286691
0.29036
0.294263
0.298409
0.302804
0.307451
0.312345
0.317482
0.322853
0.328444
0.334239
0.340204
0.346325
0.352549
0.358601
0.367398
0.204062
0.204145
0.204223
0.204296
0.204365
0.204428
0.204485
0.204535
0.20458
0.204618
0.20465
0.204678
0.204701
0.20472
0.204737
0.204753
0.204769
0.204786
0.204805
0.204826
0.204852
0.204883
0.204919
0.204961
0.205011
0.205068
0.205135
0.205211
0.2053
0.205403
0.205523
0.205661
0.205821
0.206006
0.206219
0.206463
0.20674
0.207053
0.207404
0.207796
0.208231
0.20871
0.209237
0.209815
0.210446
0.211135
0.211887
0.212707
0.213599
0.214569
0.21562
0.216756
0.217978
0.219284
0.220674
0.222142
0.223684
0.225292
0.226959
0.228677
0.230438
0.232235
0.234059
0.235904
0.237761
0.239625
0.241488
0.243347
0.245198
0.24704
0.248873
0.250699
0.252524
0.254352
0.256193
0.258056
0.259954
0.261898
0.263904
0.265987
0.268163
0.270451
0.272868
0.275432
0.27816
0.281067
0.284169
0.287478
0.291003
0.294752
0.298728
0.302934
0.307369
0.312025
0.316898
0.321962
0.327215
0.332613
0.337907
0.34573
0.202608
0.202682
0.202753
0.202821
0.202886
0.202947
0.203004
0.203057
0.203105
0.20315
0.20319
0.203228
0.203263
0.203296
0.203328
0.203361
0.203395
0.203432
0.203473
0.203518
0.203569
0.203626
0.203691
0.203764
0.203846
0.203939
0.204043
0.20416
0.204292
0.204441
0.204608
0.204797
0.205009
0.205248
0.205516
0.205816
0.20615
0.20652
0.206928
0.207377
0.207867
0.208402
0.208983
0.209613
0.210296
0.211034
0.211833
0.212696
0.213628
0.214633
0.215713
0.216872
0.218108
0.219421
0.220807
0.222262
0.22378
0.225353
0.226975
0.228636
0.23033
0.232047
0.233779
0.235518
0.237257
0.238989
0.240707
0.242406
0.244082
0.245734
0.24736
0.248963
0.250545
0.252112
0.25367
0.255227
0.256793
0.25838
0.259999
0.261665
0.26339
0.265193
0.267087
0.26909
0.271218
0.273486
0.27591
0.278504
0.281278
0.284245
0.287412
0.290785
0.294369
0.298163
0.30217
0.306373
0.310776
0.315347
0.319865
0.326648
0.201454
0.201518
0.20158
0.201641
0.201699
0.201756
0.20181
0.201861
0.20191
0.201956
0.202
0.202043
0.202085
0.202126
0.202168
0.202212
0.202258
0.202309
0.202364
0.202425
0.202493
0.202569
0.202654
0.202749
0.202855
0.202973
0.203105
0.203253
0.203417
0.2036
0.203804
0.204031
0.204284
0.204565
0.204876
0.20522
0.205599
0.206015
0.20647
0.206965
0.207502
0.208083
0.208711
0.209387
0.210115
0.210898
0.211739
0.212642
0.213611
0.214648
0.215756
0.216936
0.218186
0.219506
0.220892
0.222337
0.223836
0.225382
0.226967
0.228582
0.230219
0.231869
0.233524
0.235176
0.236816
0.238438
0.240034
0.2416
0.243131
0.244625
0.246081
0.247499
0.248881
0.250233
0.251558
0.252865
0.25416
0.255454
0.256757
0.25808
0.259437
0.26084
0.262305
0.263846
0.265477
0.267214
0.269071
0.271062
0.273199
0.275496
0.277961
0.280605
0.283435
0.286455
0.289671
0.293075
0.296676
0.30045
0.304209
0.30994
0.200544
0.200597
0.200649
0.200701
0.200752
0.200802
0.200851
0.200899
0.200945
0.200991
0.201036
0.20108
0.201125
0.201171
0.201219
0.201269
0.201323
0.201382
0.201446
0.201518
0.201597
0.201686
0.201785
0.201895
0.202017
0.202154
0.202306
0.202475
0.202662
0.202871
0.203101
0.203357
0.20364
0.203952
0.204295
0.204673
0.205086
0.205537
0.206028
0.206559
0.207133
0.207752
0.208417
0.209131
0.209896
0.210715
0.211591
0.212527
0.213526
0.214589
0.215719
0.216916
0.218177
0.219501
0.220883
0.222318
0.2238
0.22532
0.226871
0.228444
0.230031
0.231622
0.23321
0.234786
0.236341
0.237868
0.239361
0.240814
0.242222
0.243583
0.244895
0.246159
0.247376
0.248549
0.249682
0.250782
0.251854
0.252907
0.25395
0.254994
0.256048
0.257125
0.258238
0.259398
0.260621
0.261919
0.263305
0.264794
0.266396
0.268126
0.269994
0.272009
0.274183
0.276522
0.279035
0.281717
0.284581
0.287613
0.290653
0.295362
0.199837
0.199879
0.199921
0.199963
0.200006
0.200049
0.200092
0.200134
0.200177
0.20022
0.200264
0.200308
0.200353
0.200401
0.200451
0.200504
0.200563
0.200626
0.200696
0.200774
0.200861
0.200957
0.201064
0.201184
0.201318
0.201466
0.201632
0.201815
0.202018
0.202243
0.202493
0.202768
0.203071
0.203405
0.203772
0.204173
0.204611
0.205087
0.205603
0.206161
0.206762
0.207408
0.208101
0.208843
0.209635
0.210481
0.211383
0.212343
0.213363
0.214445
0.215589
0.216794
0.218059
0.219381
0.220756
0.222176
0.223637
0.225129
0.226646
0.228178
0.229717
0.231253
0.232779
0.234285
0.235764
0.237207
0.238608
0.239962
0.241264
0.242511
0.2437
0.244833
0.24591
0.246932
0.247905
0.248832
0.24972
0.250574
0.251404
0.252217
0.253023
0.253833
0.254656
0.255506
0.256393
0.25733
0.258329
0.259401
0.260559
0.261814
0.263178
0.264661
0.266273
0.268023
0.26992