/*--------------------------------*- C++ -*----------------------------------*\
  =========                 |
  \\      /  F ield         | OpenFOAM: The Open Source CFD Toolbox
   \\    /   O peration     | Website:  https://openfoam.org
    \\  /    A nd           | Version:  10
     \\/     M anipulation  |
\*---------------------------------------------------------------------------*/
FoamFile
{
    format      ascii;
    class       volScalarField;
    location    "700";
    object      nut;
}
// * * * * * * * * * * * * * * * * * * * * * * * * * * * * * * * * * * * * * //

dimensions      [0 2 -1 0 0 0 0];

internalField   nonuniform List<scalar> 
6820
(
5.21161e-05
7.23496e-05
8.49505e-05
9.15131e-05
9.44881e-05
9.54259e-05
9.5224e-05
9.44045e-05
9.32792e-05
9.20326e-05
9.07695e-05
8.95461e-05
8.83907e-05
8.73148e-05
8.63209e-05
8.54066e-05
8.45667e-05
8.37954e-05
8.30865e-05
8.24339e-05
8.18322e-05
8.12763e-05
8.07616e-05
8.0284e-05
7.98399e-05
7.9426e-05
7.90394e-05
7.86775e-05
7.83367e-05
7.80205e-05
7.76981e-05
7.75205e-05
7.66335e-05
0.00148779
0.000914492
0.000722322
0.000566085
0.000444965
0.000364554
0.000311028
0.000273876
0.000246824
0.000226542
0.000210742
0.000198386
0.000188225
0.000179921
0.000173043
0.000167267
0.000162375
0.000158201
0.000154618
0.000151526
0.000148847
0.000146516
0.000144481
0.000142701
0.000141136
0.000139763
0.000138546
0.000137475
0.000136512
0.000135665
0.00013488
0.000134228
0.000133217
0.00388235
0.00172611
0.00129522
0.00105715
0.000883654
0.000756983
0.000663656
0.000593356
0.000538662
0.00049523
0.000459792
0.000430501
0.000405787
0.000384675
0.000366436
0.000350536
0.000336549
0.000324169
0.000313134
0.000303255
0.000294361
0.00028633
0.000279045
0.00027242
0.000266376
0.000260846
0.000255771
0.000251112
0.000246805
0.000242842
0.000239127
0.000235716
0.00023237
0.00701486
0.0030933
0.00211865
0.00169399
0.00142842
0.00124177
0.00110356
0.000997708
0.000914036
0.000846515
0.00079084
0.000744243
0.000704625
0.000670538
0.000640855
0.000614797
0.000591688
0.000571092
0.000552562
0.000535857
0.000520649
0.000506822
0.000494104
0.000482473
0.000471671
0.000461757
0.000452456
0.000443913
0.000435799
0.000428363
0.000421184
0.00041463
0.000408167
0.00947863
0.00539463
0.00361892
0.00279676
0.00231358
0.00199145
0.00176049
0.00158676
0.00145105
0.00134224
0.00125305
0.0011787
0.00111573
0.00106176
0.00101494
0.000973974
0.000937765
0.00090559
0.000876722
0.00085076
0.000827179
0.000805773
0.000786125
0.000768161
0.000751518
0.000736218
0.000721919
0.00070872
0.000696275
0.000684751
0.000673784
0.00066359
0.000653802
0.0106282
0.0077634
0.00561755
0.00439956
0.00363522
0.00311496
0.00273997
0.0024579
0.00223821
0.00206258
0.00191909
0.00179982
0.00169915
0.00161315
0.0015388
0.00147397
0.00141689
0.00136632
0.00132113
0.00128061
0.00124397
0.00121077
0.00118045
0.00115276
0.00112726
0.00110381
0.00108204
0.00106191
0.0010431
0.0010256
0.00100914
0.000993757
0.000979189
0.0110845
0.00948062
0.00757881
0.00621462
0.00525
0.00454844
0.00402207
0.00361581
0.00329415
0.00303404
0.00281986
0.00264081
0.0024891
0.0023591
0.00224654
0.00214826
0.00206171
0.001985
0.00191652
0.00185511
0.00179967
0.00174946
0.00170371
0.00166193
0.00162357
0.00158829
0.00155567
0.00152549
0.0014974
0.00147128
0.00144683
0.00142397
0.00140247
0.0112619
0.0104723
0.00911496
0.00788286
0.00688557
0.00609514
0.00546645
0.00496065
0.00454794
0.00420654
0.00392047
0.003678
0.00347029
0.00329072
0.00313412
0.00299654
0.00287482
0.00276649
0.00266949
0.00258223
0.00250332
0.00243169
0.00236637
0.00230663
0.00225175
0.00220123
0.00215453
0.00211129
0.0020711
0.00203369
0.00199875
0.00196607
0.00193541
0.0113319
0.0109613
0.0101483
0.00919369
0.00831236
0.00754597
0.00689416
0.00634289
0.00587564
0.00547744
0.00513575
0.00484047
0.00458347
0.00435829
0.00415971
0.00398356
0.00382643
0.00368558
0.00355871
0.00344394
0.00333969
0.00324465
0.00315769
0.00307788
0.00300439
0.00293655
0.00287374
0.00281545
0.00276122
0.00271066
0.00266341
0.00261918
0.0025777
0.0113604
0.011191
0.0107577
0.0101061
0.00941912
0.0087618
0.00816143
0.00762515
0.00715071
0.00673229
0.00636311
0.00603662
0.00574691
0.00548885
0.00525805
0.00505082
0.00486401
0.00469496
0.00454145
0.00440156
0.00427367
0.00415639
0.00404854
0.00394908
0.00385712
0.0037719
0.00369274
0.00361905
0.0035503
0.00348606
0.0034259
0.00336948
0.00331648
0.0113724
0.0112961
0.0110835
0.0106835
0.0102001
0.00969075
0.00919015
0.00871656
0.00827791
0.00787637
0.00751101
0.00717946
0.00687876
0.00660586
0.00635782
0.00613193
0.00592576
0.00573715
0.00556418
0.00540519
0.00525869
0.0051234
0.00499817
0.00488203
0.00477408
0.00467355
0.00457976
0.0044921
0.00441004
0.00433308
0.0042608
0.00419283
0.00412884
0.0113776
0.0113432
0.0112429
0.0110225
0.0107093
0.010347
0.00996381
0.0095792
0.00920549
0.00884962
0.00851496
0.00820269
0.00791267
0.007644
0.0073954
0.00716543
0.00695262
0.00675551
0.00657277
0.00640311
0.00624539
0.00609856
0.00596165
0.00583381
0.00571427
0.00560232
0.00549732
0.00539873
0.00530602
0.00521873
0.00513646
0.00505882
0.00498548
0.01138
0.0113641
0.0113177
0.0112066
0.0110186
0.0107798
0.0105077
0.0102177
0.00992164
0.00962789
0.00934189
0.00906703
0.00880518
0.00855719
0.00832327
0.00810316
0.00789638
0.00770227
0.00752012
0.00734916
0.00718867
0.0070379
0.00689617
0.00676285
0.00663731
0.006519
0.0064074
0.00630204
0.00620247
0.0061083
0.00601915
0.00593469
0.00585461
0.0113814
0.0113732
0.0113518
0.0112994
0.0111948
0.0110479
0.0108673
0.0106628
0.0104433
0.010216
0.00998659
0.00975917
0.00953663
0.00932088
0.00911314
0.00891408
0.00872402
0.008543
0.00837089
0.00820746
0.00805237
0.00790526
0.00776573
0.0076334
0.00750785
0.00738871
0.00727561
0.00716819
0.00706612
0.00696908
0.00687678
0.00678894
0.00670531
0.0113823
0.0113772
0.011367
0.0113426
0.0112898
0.0112045
0.0110919
0.0109563
0.0108031
0.0106375
0.010464
0.0102863
0.0101076
0.00992992
0.00975513
0.00958437
0.0094185
0.00925806
0.00910338
0.00895462
0.00881182
0.00867494
0.00854386
0.00841843
0.00829846
0.00818376
0.0080741
0.00796928
0.00786908
0.00777328
0.00768168
0.00759407
0.00751028
0.0113826
0.0113796
0.0113738
0.0113622
0.0113373
0.011291
0.0112247
0.0111398
0.0110388
0.0109247
0.0108005
0.0106691
0.0105329
0.0103941
0.0102543
0.010115
0.00997717
0.00984165
0.00970905
0.0095798
0.00945419
0.00933243
0.00921462
0.00910082
0.00899101
0.00888517
0.00878322
0.00868507
0.00859064
0.00849981
0.00841245
0.00832847
0.00824772
0.0113825
0.0113808
0.0113772
0.011371
0.0113592
0.0113362
0.0112992
0.0112488
0.0111857
0.0111111
0.0110267
0.0109344
0.0108358
0.0107325
0.0106261
0.0105178
0.0104085
0.0102992
0.0101906
0.0100832
0.00997744
0.0098737
0.00977221
0.00967318
0.00957672
0.00948294
0.00939187
0.00930354
0.00921794
0.00913507
0.00905488
0.00897732
0.00890236
0.0113825
0.0113812
0.0113791
0.0113752
0.0113691
0.0113581
0.0113388
0.0113103
0.0112727
0.0112264
0.0111719
0.0111101
0.0110421
0.0109689
0.0108916
0.0108111
0.0107284
0.0106441
0.0105589
0.0104734
0.0103881
0.0103033
0.0102194
0.0101366
0.0100552
0.00997529
0.00989702
0.00982048
0.00974575
0.00967288
0.0096019
0.00953282
0.00946564
0.0113825
0.0113813
0.0113798
0.0113776
0.0113737
0.011368
0.0113586
0.0113433
0.0113219
0.0112944
0.0112608
0.0112213
0.0111765
0.011127
0.0110734
0.0110162
0.0109563
0.010894
0.01083
0.0107648
0.0106987
0.0106321
0.0105654
0.0104989
0.0104328
0.0103672
0.0103024
0.0102384
0.0101755
0.0101136
0.0100529
0.00999348
0.00993529
0.0113824
0.0113813
0.01138
0.0113785
0.0113762
0.0113727
0.0113676
0.0113599
0.0113483
0.0113326
0.0113127
0.0112886
0.0112604
0.0112283
0.0111927
0.0111538
0.0111121
0.011068
0.0110219
0.0109741
0.0109249
0.0108746
0.0108236
0.0107721
0.0107203
0.0106684
0.0106165
0.0105649
0.0105137
0.0104629
0.0104127
0.0103631
0.0103142
0.0113824
0.0113813
0.0113801
0.0113788
0.0113773
0.0113751
0.0113721
0.0113676
0.0113616
0.0113531
0.0113418
0.0113275
0.0113104
0.0112904
0.0112677
0.0112423
0.0112145
0.0111844
0.0111524
0.0111186
0.0110833
0.0110467
0.011009
0.0109704
0.0109311
0.0108913
0.0108512
0.0108108
0.0107703
0.0107298
0.0106894
0.0106492
0.0106093
0.0113824
0.0113812
0.0113801
0.0113789
0.0113776
0.0113761
0.0113742
0.0113716
0.011368
0.0113633
0.0113572
0.0113489
0.0113389
0.0113268
0.0113127
0.0112967
0.0112787
0.0112588
0.0112373
0.0112141
0.0111895
0.0111636
0.0111365
0.0111083
0.0110793
0.0110495
0.0110191
0.0109882
0.0109569
0.0109252
0.0108934
0.0108614
0.0108294
0.0113824
0.0113812
0.0113801
0.0113789
0.0113778
0.0113765
0.0113751
0.0113734
0.0113712
0.0113684
0.0113646
0.01136
0.0113543
0.011347
0.0113384
0.0113284
0.0113169
0.0113039
0.0112896
0.0112739
0.0112569
0.0112387
0.0112193
0.011199
0.0111777
0.0111555
0.0111326
0.011109
0.0110848
0.0110601
0.0110351
0.0110097
0.010984
0.0113824
0.0113812
0.0113801
0.0113789
0.0113778
0.0113766
0.0113754
0.0113741
0.0113726
0.0113707
0.0113683
0.0113653
0.0113615
0.0113571
0.0113517
0.0113452
0.0113376
0.0113288
0.0113189
0.0113078
0.0112957
0.0112824
0.0112681
0.0112528
0.0112366
0.0112196
0.0112017
0.0111831
0.0111638
0.011144
0.0111236
0.0111028
0.0110816
0.0113824
0.0113812
0.0113801
0.0113789
0.0113778
0.0113767
0.0113755
0.0113743
0.011373
0.0113715
0.0113696
0.0113674
0.0113644
0.0113609
0.011357
0.0113521
0.0113461
0.0113392
0.0113314
0.0113225
0.0113126
0.0113017
0.0112898
0.011277
0.0112633
0.0112488
0.0112334
0.0112173
0.0112006
0.0111832
0.0111652
0.0111467
0.0111278
0.0113824
0.0113812
0.0113801
0.0113789
0.0113778
0.0113766
0.0113755
0.0113742
0.0113729
0.0113712
0.0113693
0.0113668
0.0113637
0.0113601
0.011356
0.0113508
0.0113446
0.0113375
0.0113294
0.0113204
0.0113103
0.0112992
0.0112872
0.0112743
0.0112604
0.0112458
0.0112303
0.0112141
0.0111972
0.0111797
0.0111617
0.0111431
0.0111241
0.0113824
0.0113812
0.0113801
0.0113789
0.0113778
0.0113766
0.0113753
0.0113738
0.0113719
0.0113697
0.0113669
0.0113633
0.0113591
0.0113538
0.0113475
0.0113402
0.0113317
0.0113221
0.0113114
0.0112996
0.0112867
0.0112727
0.0112577
0.0112418
0.011225
0.0112073
0.0111889
0.0111698
0.0111501
0.0111298
0.011109
0.0110878
0.0110661
0.0113824
0.0113812
0.0113801
0.0113789
0.0113777
0.0113763
0.0113745
0.0113723
0.0113693
0.0113655
0.0113608
0.0113545
0.0113468
0.0113378
0.0113272
0.0113151
0.0113015
0.0112865
0.01127
0.0112523
0.0112333
0.0112132
0.011192
0.0111699
0.0111468
0.0111231
0.0110986
0.0110735
0.0110479
0.0110219
0.0109955
0.0109688
0.0109419
0.0113824
0.0113813
0.0113801
0.0113789
0.0113773
0.0113753
0.0113724
0.0113683
0.011363
0.0113555
0.0113458
0.0113338
0.0113196
0.0113031
0.0112845
0.0112637
0.0112409
0.0112163
0.01119
0.0111622
0.0111331
0.0111028
0.0110715
0.0110393
0.0110063
0.0109728
0.0109388
0.0109044
0.0108698
0.0108349
0.0108
0.0107651
0.0107302
0.0113825
0.0113813
0.0113801
0.0113784
0.011376
0.0113722
0.0113667
0.0113583
0.0113461
0.0113304
0.0113111
0.0112881
0.0112616
0.0112318
0.011199
0.0111635
0.0111257
0.0110857
0.011044
0.0110009
0.0109565
0.0109111
0.0108651
0.0108185
0.0107716
0.0107245
0.0106773
0.0106303
0.0105834
0.0105368
0.0104906
0.0104448
0.0103995
0.0113825
0.0113814
0.0113798
0.0113765
0.011372
0.011364
0.0113499
0.0113298
0.0113037
0.0112714
0.0112333
0.0111899
0.0111418
0.0110896
0.0110339
0.0109753
0.0109144
0.0108517
0.0107878
0.0107229
0.0106575
0.0105919
0.0105263
0.010461
0.0103962
0.010332
0.0102686
0.010206
0.0101443
0.0100837
0.0100242
0.00996578
0.0099085
0.0113826
0.011381
0.0113775
0.0113716
0.0113594
0.0113357
0.0113013
0.0112563
0.0112012
0.0111371
0.0110652
0.0109869
0.0109036
0.0108164
0.0107263
0.0106345
0.0105415
0.0104482
0.010355
0.0102625
0.0101709
0.0100807
0.00999191
0.00990484
0.00981959
0.00973625
0.00965489
0.00957554
0.00949823
0.00942295
0.00934971
0.00927847
0.00920921
0.0113825
0.0113788
0.0113715
0.0113527
0.0113123
0.0112512
0.0111713
0.0110751
0.0109656
0.0108458
0.0107187
0.0105868
0.0104521
0.0103163
0.0101807
0.0100464
0.0099142
0.00978462
0.0096581
0.00953494
0.00941533
0.00929937
0.00918713
0.00907859
0.00897373
0.00887248
0.00877477
0.0086805
0.00858957
0.00850188
0.00841729
0.00833572
0.00825703
0.0113813
0.0113725
0.0113446
0.0112755
0.0111624
0.0110161
0.0108447
0.0106562
0.0104574
0.0102538
0.0100496
0.00984759
0.00964987
0.00945783
0.00927233
0.00909388
0.00892271
0.00875888
0.00860229
0.00845278
0.00831011
0.00817401
0.0080442
0.00792038
0.00780225
0.00768951
0.00758189
0.00747909
0.00738087
0.00728697
0.00719716
0.0071112
0.00702889
0.0113782
0.0113392
0.0112229
0.0110038
0.0107266
0.0104167
0.0100938
0.00977088
0.00945631
0.00915473
0.00886847
0.00859844
0.00834473
0.0081069
0.00788423
0.00767584
0.00748081
0.00729817
0.00712704
0.00696653
0.00681584
0.00667421
0.00654095
0.00641542
0.00629703
0.00618525
0.00607959
0.0059796
0.00588488
0.00579505
0.00570978
0.00562874
0.00555166
0.0113586
0.011167
0.0107276
0.0101788
0.00961591
0.00907913
0.00858445
0.00813532
0.00773014
0.00736506
0.0070357
0.00673806
0.00646846
0.00622361
0.00600061
0.00579694
0.0056104
0.00543907
0.0052813
0.00513565
0.00500085
0.00487581
0.00475956
0.00465125
0.00455015
0.00445558
0.00436697
0.00428379
0.00420559
0.00413196
0.00406251
0.00399692
0.00393489
0.0112033
0.010286
0.00914597
0.00815386
0.00734259
0.00668178
0.00613782
0.00568277
0.00529722
0.00496617
0.00467942
0.0044291
0.00420901
0.00401425
0.00384087
0.00368569
0.00354611
0.00341996
0.00330548
0.00320118
0.00310579
0.00301827
0.00293771
0.00286333
0.00279447
0.00273055
0.00267109
0.00261563
0.0025638
0.00251527
0.00246973
0.00242693
0.00238663
0.00988212
0.00703463
0.00556295
0.00467246
0.00408052
0.00363707
0.00328471
0.0029951
0.00275426
0.00255229
0.00238143
0.00223562
0.00211013
0.00200124
0.00190603
0.00182219
0.00174786
0.00168155
0.00162207
0.00156843
0.00151982
0.00147558
0.00143515
0.00139807
0.00136393
0.00133241
0.00130321
0.00127609
0.00125083
0.00122726
0.00120521
0.00118453
0.00116511
0.00388335
0.00236715
0.00190983
0.00162451
0.00144089
0.0012837
0.00115041
0.00104217
0.000954482
0.000882867
0.000823743
0.000774363
0.00073264
0.000697014
0.000666296
0.000639587
0.000616175
0.000595518
0.000577168
0.000560783
0.000546066
0.000532795
0.000520766
0.000509831
0.00049984
0.000490695
0.000482284
0.000474542
0.000467376
0.00046075
0.000454584
0.000448859
0.000443502
0.000128162
0.00013943
0.0001503
0.000159954
0.000168408
0.000175845
0.000182401
0.000188179
0.000193265
0.000197736
0.000201662
0.000205105
0.00020812
0.000210754
0.000213053
0.000215055
0.000216794
0.000218302
0.000219604
0.000220726
0.000221688
0.000222509
0.000223205
0.000223792
0.000224282
0.000224687
0.000225016
0.000225279
0.000225484
0.000225637
0.000225745
0.000225812
0.000225846
8.34852e-05
9.98731e-05
0.000125735
0.000160118
0.000200653
0.000245153
0.000291858
0.000339065
0.000385223
0.000429304
0.000470377
0.000508382
0.000543671
0.000576753
0.000608251
0.000638675
0.000668496
0.000697921
0.000727217
0.000756392
0.000785406
0.000814193
0.000842769
0.00087109
0.000899171
0.000927041
0.000954693
0.000982152
0.00100943
0.00103658
0.00106365
0.00109067
0.00111798
0.00114545
0.00117307
0.00120088
0.00122889
0.00125714
0.00128557
0.00131426
0.00134322
0.00137242
0.00140186
0.00143154
0.00146154
0.001492
0.00152312
0.00155513
0.00158831
0.00162298
0.00165944
0.00169802
0.00173897
0.00178252
0.00182886
0.00187813
0.00193045
0.00198595
0.00204477
0.00210705
0.00217296
0.00224261
0.00231611
0.00239348
0.00247466
0.00255952
0.00264786
0.00273945
0.00283403
0.00293136
0.00303121
0.00313339
0.00323764
0.00334375
0.00345136
0.00356017
0.0036698
0.00377975
0.00389
0.00399983
0.00410911
0.0042177
0.00432532
0.00443158
0.00453622
0.00463897
0.00473911
0.00483726
0.00493195
0.00502376
0.00511156
0.00519777
0.00527945
0.00536018
0.00543425
0.00551178
0.00557457
0.00565499
0.00570037
0.00578819
0.000133093
0.000134455
0.000137406
0.000144539
0.000155301
0.000169625
0.000187628
0.000209193
0.000234754
0.000263957
0.000295216
0.000329022
0.0003646
0.000401061
0.000437816
0.000474357
0.000510407
0.000545657
0.000580374
0.000614234
0.000647247
0.000679521
0.000711284
0.000742466
0.000773129
0.000803307
0.000832965
0.000862156
0.000890926
0.000919365
0.000947578
0.000975642
0.00100373
0.00103195
0.00106039
0.00108913
0.00111822
0.0011477
0.00117758
0.00120786
0.00123855
0.00126966
0.00130118
0.00133314
0.00136563
0.00139878
0.00143278
0.0014679
0.00150442
0.00154267
0.00158297
0.00162562
0.0016709
0.00171902
0.00177015
0.0018244
0.00188189
0.00194271
0.00200694
0.0020747
0.00214608
0.00222114
0.00229993
0.00238238
0.00246838
0.00255774
0.0026502
0.00274549
0.00284334
0.00294349
0.00304573
0.00314986
0.00325567
0.00336296
0.0034714
0.00358078
0.00369065
0.00380069
0.00391097
0.00402058
0.00412965
0.00423814
0.00434568
0.00445189
0.00455657
0.00465947
0.0047598
0.00485841
0.00495353
0.0050459
0.00513425
0.00522154
0.00530441
0.00538628
0.00546207
0.00554088
0.00560617
0.00568715
0.00573696
0.00582647
0.000228944
0.000225091
0.000220831
0.000217358
0.000215421
0.000215238
0.000217248
0.000221499
0.000228321
0.00023835
0.000251742
0.000268681
0.000289066
0.00031232
0.000337991
0.000365766
0.000394935
0.000425732
0.000458253
0.000490142
0.000522368
0.000555338
0.000588783
0.000621839
0.00065478
0.000687235
0.000718977
0.000750156
0.000780787
0.000810987
0.000840824
0.000870446
0.000900001
0.000929646
0.00095953
0.000989789
0.00102053
0.00105182
0.00108372
0.00111624
0.00114939
0.00118316
0.00121757
0.00125266
0.00128851
0.00132527
0.00136312
0.00140233
0.0014432
0.00148604
0.00153118
0.00157893
0.00162952
0.00168318
0.00174003
0.00180019
0.00186371
0.00193064
0.00200103
0.00207491
0.00215229
0.00223318
0.00231751
0.00240516
0.00249593
0.00258957
0.00268578
0.00278425
0.0028847
0.00298686
0.00309057
0.00319559
0.00330182
0.00340903
0.00351699
0.00362556
0.00373424
0.00384301
0.00395192
0.00405977
0.00416729
0.00427438
0.00438048
0.00448533
0.00458877
0.00469061
0.00478998
0.00488796
0.0049825
0.00507448
0.00516237
0.00524994
0.00533324
0.00541536
0.0054922
0.0055716
0.00563883
0.00571955
0.00577355
0.00586382
0.000401317
0.000393531
0.000385474
0.000377677
0.000370644
0.000364294
0.000358823
0.000354159
0.000350656
0.000348183
0.000347137
0.000347548
0.000350079
0.000354677
0.000361986
0.00037177
0.000384741
0.000400274
0.000419587
0.000441315
0.000466032
0.000491989
0.000520895
0.00054954
0.000580914
0.000611193
0.000641333
0.000672278
0.000703254
0.000734151
0.000764777
0.00079539
0.000826057
0.000856954
0.000888259
0.000920142
0.000952743
0.000986166
0.00102048
0.00105571
0.00109187
0.00112896
0.001167
0.00120601
0.00124608
0.00128735
0.00133
0.00137428
0.00142048
0.0014689
0.00151985
0.00157361
0.0016304
0.00169039
0.00175371
0.00182042
0.00189052
0.00196402
0.00204089
0.00212108
0.00220452
0.00229111
0.00238071
0.00247311
0.00256804
0.0026652
0.00276424
0.00286484
0.00296671
0.0030696
0.00317338
0.0032778
0.00338289
0.00348834
0.00359416
0.00370016
0.00380585
0.00391175
0.00401749
0.00412176
0.00422617
0.00433033
0.00443334
0.00453523
0.00463592
0.00473525
0.0048323
0.00492833
0.0050211
0.00511156
0.00519773
0.0052847
0.00536754
0.00544877
0.00552592
0.00560515
0.00567362
0.00575319
0.00581104
0.00590119
0.000643137
0.000631316
0.000619588
0.000608207
0.000597625
0.000587687
0.000578538
0.000569942
0.000562144
0.00055485
0.000548338
0.000542191
0.000536822
0.000531851
0.000527924
0.00052469
0.000523102
0.00052277
0.000524966
0.000529307
0.00053707
0.000547412
0.000561667
0.000578562
0.000599069
0.000621931
0.000647433
0.000673212
0.00070148
0.000729442
0.000757503
0.00078673
0.000816414
0.000846931
0.000878383
0.000910898
0.000944593
0.000979561
0.00101586
0.00105353
0.00109255
0.00113294
0.00117468
0.00121781
0.00126237
0.0013085
0.00135634
0.00140613
0.0014581
0.00151253
0.00156967
0.00162976
0.00169299
0.00175948
0.00182931
0.00190249
0.00197897
0.00205869
0.00214154
0.0022274
0.00231611
0.00240749
0.00250129
0.00259723
0.002695
0.00279422
0.00289456
0.00299567
0.00309727
0.00319912
0.00330116
0.00340306
0.0035051
0.00360676
0.00370851
0.00380986
0.00391053
0.00401183
0.00411205
0.0042108
0.00431043
0.00440994
0.00450785
0.00460496
0.00470112
0.00479625
0.0048894
0.00498192
0.00507151
0.00515917
0.00524203
0.00532748
0.00540881
0.00548769
0.00556431
0.0056425
0.00571131
0.00578873
0.00585004
0.00593902
0.000963234
0.000945773
0.0009288
0.000912425
0.000897049
0.000882547
0.000869046
0.000856305
0.00084451
0.000833352
0.000823032
0.00081315
0.000803955
0.000795037
0.000786784
0.00077883
0.000771743
0.000765218
0.000759976
0.000755654
0.000753164
0.000752194
0.00075368
0.000757318
0.000763915
0.00077307
0.00078551
0.000800336
0.000818218
0.000838409
0.000861313
0.000885531
0.000911637
0.000939551
0.000969054
0.00100024
0.00103321
0.00106804
0.00110476
0.00114341
0.00118398
0.00122645
0.0012708
0.00131704
0.0013652
0.00141535
0.00146763
0.00152218
0.00157921
0.00163891
0.00170149
0.00176711
0.0018359
0.00190791
0.00198317
0.00206163
0.00214319
0.00222771
0.00231503
0.00240494
0.0024972
0.00259156
0.00268769
0.00278525
0.00288388
0.00298318
0.00308279
0.00318238
0.00328165
0.00338043
0.00347865
0.00357591
0.00367283
0.00376851
0.0038642
0.00395859
0.0040523
0.00414728
0.0042409
0.00433252
0.00442438
0.00451625
0.00460727
0.00469763
0.00478733
0.00487638
0.00496384
0.00505109
0.00513592
0.00521922
0.00529886
0.0053802
0.00545852
0.00553317
0.00560856
0.00568465
0.00575263
0.00582689
0.00589116
0.00597773
0.00137893
0.00135336
0.00132874
0.00130512
0.0012828
0.00126171
0.00124192
0.00122325
0.0012058
0.00118932
0.00117391
0.00115928
0.00114556
0.00113246
0.0011202
0.00110854
0.00109783
0.00108787
0.0010791
0.00107132
0.00106499
0.00105995
0.00105663
0.00105497
0.00105529
0.00105764
0.0010622
0.00106923
0.00107853
0.00109021
0.00110466
0.00112162
0.00114113
0.0011633
0.00118795
0.00121511
0.00124481
0.00127707
0.00131191
0.00134931
0.00138925
0.00143168
0.00147657
0.0015239
0.00157365
0.00162588
0.00168064
0.00173804
0.0017982
0.00186126
0.00192733
0.00199651
0.00206886
0.00214436
0.00222296
0.00230456
0.002389
0.00247609
0.00256558
0.00265722
0.00275071
0.0028457
0.00294185
0.00303874
0.00313599
0.00323316
0.0033299
0.00342587
0.00352077
0.00361447
0.00370681
0.00379738
0.00388728
0.00397491
0.00406282
0.00415037
0.00423504
0.00432007
0.00440455
0.00448735
0.00456976
0.00465211
0.00473408
0.00481566
0.00489692
0.00497793
0.00505784
0.00513792
0.00521626
0.00529358
0.00536817
0.00544413
0.00551789
0.00558943
0.00566102
0.00573313
0.00579841
0.00586919
0.00593502
0.00601772
0.00190189
0.00186557
0.00183075
0.00179743
0.0017658
0.00173582
0.00170753
0.00168077
0.00165558
0.00163177
0.00160936
0.00158814
0.00156815
0.0015492
0.00153143
0.0015147
0.00149926
0.001485
0.00147223
0.00146085
0.00145114
0.00144302
0.0014367
0.00143218
0.00142923
0.00142845
0.00142961
0.00143287
0.00143828
0.00144587
0.00145582
0.00146824
0.00148321
0.00150089
0.00152134
0.00154465
0.00157086
0.0016
0.00163211
0.00166718
0.00170517
0.00174607
0.00178983
0.00183642
0.00188584
0.00193808
0.00199319
0.00205124
0.00211228
0.00217639
0.00224363
0.00231402
0.00238756
0.00246416
0.00254372
0.00262607
0.00271099
0.00279824
0.00288752
0.00297852
0.0030709
0.00316425
0.00325818
0.00335225
0.00344605
0.00353912
0.0036311
0.00372165
0.00381041
0.00389735
0.00398202
0.00406428
0.00414569
0.00422632
0.00430399
0.00438104
0.00445592
0.00452999
0.00460345
0.00467557
0.004747
0.00481821
0.00488929
0.00496025
0.0050312
0.00510229
0.00517282
0.00524389
0.00531394
0.00538357
0.00545134
0.00552038
0.0055881
0.00565457
0.00572139
0.00578801
0.00585171
0.00591553
0.00598204
0.00605926
0.00253233
0.00248319
0.0024361
0.00239104
0.0023481
0.00230725
0.00226849
0.00223171
0.00219688
0.00216387
0.00213262
0.00210299
0.00207497
0.00204842
0.00202345
0.00199997
0.00197816
0.00195801
0.00193972
0.00192329
0.00190891
0.0018965
0.00188632
0.00187799
0.00187231
0.00186814
0.00186631
0.00186685
0.00186955
0.00187456
0.00188188
0.00189168
0.00190405
0.00191911
0.00193699
0.00195778
0.00198156
0.00200838
0.00203827
0.00207123
0.00210725
0.00214632
0.0021884
0.00223347
0.00228153
0.00233259
0.00238666
0.00244381
0.00250406
0.00256746
0.00263402
0.00270373
0.00277651
0.00285224
0.00293077
0.00301186
0.00309527
0.00318069
0.0032678
0.00335622
0.00344558
0.00353542
0.00362538
0.00371492
0.00380367
0.00389112
0.00397694
0.00406073
0.00414203
0.00422095
0.00429652
0.00437152
0.00444401
0.0045138
0.00458119
0.00464711
0.00471098
0.00477335
0.00483474
0.00489489
0.00495418
0.00501308
0.00507191
0.0051308
0.00518992
0.00524951
0.00530904
0.00536942
0.00542952
0.00548978
0.00554904
0.0056096
0.00566979
0.00572936
0.00579014
0.00584984
0.00591034
0.00596634
0.00603236
0.00610247
0.00325844
0.0031955
0.00313507
0.00307714
0.00302172
0.0029688
0.00291835
0.00287026
0.0028245
0.00278094
0.00273953
0.00270013
0.00266273
0.00262722
0.00259367
0.00256204
0.00253246
0.00250497
0.00247973
0.00245675
0.00243621
0.00241805
0.00240249
0.00238922
0.0023787
0.00237047
0.00236519
0.00236164
0.00236089
0.00236286
0.00236725
0.00237437
0.00238418
0.00239683
0.00241241
0.00243099
0.00245264
0.00247739
0.00250526
0.00253625
0.00257033
0.00260748
0.00264766
0.00269085
0.00273705
0.00278627
0.00283852
0.00289383
0.00295225
0.00301378
0.00307842
0.00314611
0.00321676
0.00329021
0.00336626
0.00344465
0.00352507
0.0036072
0.00369066
0.00377506
0.00386
0.00394498
0.00402967
0.00411344
0.00419601
0.00427678
0.00435545
0.00443154
0.00450442
0.00457435
0.00464302
0.00470836
0.00477042
0.00482984
0.00488653
0.00494109
0.00499342
0.0050438
0.00509275
0.00514034
0.0051869
0.00523286
0.00527868
0.00532459
0.00537088
0.00541783
0.00546513
0.00551352
0.00556227
0.00561171
0.00566097
0.00571159
0.00576283
0.00581385
0.00586721
0.00591864
0.00597438
0.00602151
0.00608579
0.00614718
0.0040586
0.00398219
0.00390865
0.00383792
0.00376999
0.00370485
0.00364246
0.00358273
0.00352561
0.00347101
0.00341887
0.00336908
0.0033216
0.00327639
0.00323347
0.00319284
0.0031546
0.00311881
0.00308559
0.00305499
0.00302715
0.00300204
0.00297984
0.00296034
0.00294383
0.00292997
0.00291928
0.00291102
0.00290633
0.00290349
0.00290366
0.0029072
0.00291343
0.00292284
0.00293535
0.00295101
0.00296989
0.00299199
0.00301728
0.00304575
0.00307736
0.00311205
0.00314978
0.00319051
0.00323423
0.00328092
0.0033306
0.00338329
0.00343901
0.00349774
0.00355947
0.00362412
0.00369157
0.00376163
0.00383407
0.0039086
0.00398489
0.00406257
0.00414127
0.00422054
0.00429997
0.00437906
0.00445751
0.00453456
0.00461014
0.00468344
0.00475423
0.00482181
0.00488632
0.00494891
0.00500774
0.00506314
0.00511526
0.0051643
0.00521029
0.00525363
0.00529445
0.00533297
0.00536963
0.00540468
0.0054385
0.00547148
0.00550412
0.00553678
0.00556981
0.00560356
0.00563792
0.00567351
0.00570995
0.00574748
0.00578557
0.00582509
0.00586616
0.00590723
0.00595187
0.00599379
0.00604327
0.00608049
0.00614161
0.00619285
0.00490475
0.00481662
0.00473147
0.00464926
0.00456998
0.00449361
0.00442011
0.00434944
0.00428153
0.00421634
0.00415379
0.00409382
0.0040364
0.0039815
0.00392914
0.00387935
0.0038322
0.00378776
0.00374614
0.00370739
0.00367165
0.0036389
0.00360928
0.00358268
0.00355927
0.00353884
0.00352174
0.00350747
0.00349682
0.00348868
0.00348461
0.00348276
0.00348388
0.00348911
0.00349735
0.00350896
0.00352401
0.00354239
0.00356406
0.00358902
0.00361719
0.00364849
0.00368283
0.00372019
0.00376051
0.00380378
0.00384998
0.00389911
0.00395117
0.00400614
0.00406398
0.00412457
0.00418779
0.00425342
0.0043212
0.00439082
0.00446194
0.00453414
0.00460706
0.00468023
0.00475319
0.00482549
0.00489687
0.00496637
0.00503431
0.00509937
0.00516157
0.00522096
0.00527786
0.00533054
0.00537986
0.00542561
0.00546781
0.00550662
0.00554213
0.00557461
0.00560428
0.00563136
0.00565623
0.00567922
0.00570072
0.00572113
0.00574097
0.00576065
0.00578057
0.00580113
0.00582243
0.00584496
0.00586865
0.00589367
0.00591986
0.00594752
0.00597749
0.0060076
0.00604243
0.00607381
0.0061157
0.00614214
0.00619846
0.00623849
0.00576615
0.00566915
0.00557503
0.00548375
0.00539533
0.00530975
0.005227
0.00514706
0.00506988
0.00499544
0.0049237
0.00485462
0.00478819
0.0047244
0.00466328
0.00460488
0.00454925
0.00449648
0.00444666
0.00439987
0.00435621
0.00431571
0.00427846
0.00424442
0.00421372
0.00418622
0.00416216
0.00414123
0.00412391
0.00410964
0.00409911
0.00409174
0.0040878
0.00408752
0.00408996
0.0040965
0.00410671
0.00412015
0.00413707
0.00415743
0.00418105
0.00420781
0.00423767
0.00427057
0.00430641
0.00434518
0.00438684
0.00443136
0.0044787
0.00452885
0.00458171
0.00463718
0.0046951
0.00475521
0.00481726
0.00488091
0.00494581
0.00501151
0.00507766
0.00514374
0.00520927
0.00527397
0.00533742
0.00539856
0.00545825
0.00551412
0.00556841
0.00561921
0.00566631
0.00570972
0.00574949
0.00578555
0.00581791
0.00584668
0.00587196
0.00589399
0.00591298
0.00592918
0.00594292
0.00595454
0.00596444
0.00597303
0.00598079
0.00598816
0.00599559
0.00600349
0.0060121
0.00602184
0.00603288
0.00604534
0.00605939
0.00607488
0.00609329
0.00611182
0.00613609
0.00615623
0.00618943
0.00620449
0.0062545
0.00628237
0.00661254
0.00651033
0.00641066
0.00631354
0.00621899
0.00612703
0.00603767
0.00595091
0.00586675
0.00578518
0.00570621
0.00562982
0.00555603
0.00548486
0.00541634
0.00535053
0.00528751
0.00522736
0.00517017
0.00511603
0.00506503
0.00501722
0.00497269
0.00493145
0.00489357
0.00485901
0.00482791
0.00480013
0.00477591
0.00475505
0.00473781
0.00472408
0.00471382
0.00470736
0.00470403
0.0047049
0.004709
0.00471627
0.00472755
0.0047424
0.00476035
0.00478149
0.00480579
0.00483315
0.00486343
0.00489662
0.00493264
0.00497144
0.00501297
0.00505718
0.00510398
0.00515322
0.00520472
0.0052582
0.00531341
0.00537002
0.00542763
0.00548577
0.00554416
0.0056021
0.00565927
0.00571558
0.00577016
0.00582212
0.0058729
0.0059204
0.00596473
0.00600591
0.0060435
0.00607734
0.00610742
0.00613371
0.00615624
0.0061751
0.0061904
0.00620233
0.00621112
0.006217
0.00622028
0.00622129
0.00622041
0.00621804
0.00621464
0.00621064
0.00620648
0.00620259
0.00619929
0.00619695
0.00619591
0.00619623