/*--------------------------------*- C++ -*----------------------------------*\
  =========                 |
  \\      /  F ield         | OpenFOAM: The Open Source CFD Toolbox
   \\    /   O peration     | Website:  https://openfoam.org
    \\  /    A nd           | Version:  10
     \\/     M anipulation  |
\*---------------------------------------------------------------------------*/
FoamFile
{
    format      ascii;
    class       volScalarField;
    location    "700";
    object      omega;
}
// * * * * * * * * * * * * * * * * * * * * * * * * * * * * * * * * * * * * * //

dimensions      [0 0 -1 0 0 0 0];

internalField   nonuniform List<scalar> 
6820
(
6119.65
8495.53
9975.17
10745.8
11095.1
11205.2
11181.5
11085.3
10953.1
10806.8
10658.4
10514.8
10379.1
10252.8
10136.1
10028.7
9930.09
9839.52
9756.27
9679.65
9608.99
9543.71
9483.26
9427.18
9375.03
9326.43
9281.02
9238.52
9198.5
9161.34
9123.11
9101.56
9001.55
563.863
1593.66
2118.99
2485.29
2810.04
3047.2
3202.64
3297.98
3354.16
3382.65
3395.36
3394.49
3390.56
3382.3
3371.9
3361.06
3350.52
3340.71
3331.85
3324.04
3317.3
3311.6
3306.88
3303.05
3300.1
3297.86
3296.43
3295.62
3295.77
3296.54
3298.48
3301.8
3314.6
97.8512
383.671
612.514
783.21
925.912
1044.15
1139.72
1215.41
1275.18
1321.46
1357.38
1384.54
1405.16
1420.61
1432.06
1440.38
1446.35
1450.52
1453.37
1455.22
1456.38
1457.03
1457.37
1457.49
1457.53
1457.55
1457.63
1457.77
1458.13
1458.57
1459.5
1460.51
1462.81
35.0872
109.689
194.406
270.89
340.029
401.75
456.058
503.311
544.328
579.675
610.093
636.129
658.407
677.425
693.683
707.538
719.397
729.498
738.175
745.562
751.953
757.383
762.143
766.167
769.773
772.789
775.601
777.901
780.2
782.01
784.038
785.575
787.554
22.8645
46.9745
78.9735
111.645
143.697
174.308
202.955
229.405
253.675
275.804
295.908
314.101
330.539
345.356
358.717
370.737
381.576
391.322
400.124
408.038
415.209
421.657
427.528
432.806
437.645
441.992
446.015
449.625
453.012
456.048
458.951
461.562
464.115
19.4482
28.8211
42.7198
57.8275
73.3611
88.8414
103.931
118.422
132.214
145.248
157.503
168.976
179.69
189.667
198.949
207.565
215.566
222.981
229.865
236.24
242.161
247.645
252.746
257.472
261.877
265.962
269.782
273.327
276.657
279.754
282.681
285.412
288.011
18.2937
22.3026
29.0894
36.8342
45.0409
53.4275
61.8036
70.042
78.0649
85.8189
93.2712
100.401
107.2
113.664
119.8
125.611
131.112
136.309
141.22
145.854
150.231
154.357
158.254
161.929
165.401
168.675
171.773
174.697
177.467
180.087
182.575
184.932
187.178
17.8628
19.6407
23.1435
27.4252
32.1054
36.9869
41.946
46.901
51.7981
56.5997
61.2795
65.8193
70.2078
74.4372
78.5046
82.4081
86.1494
89.7301
93.1546
96.4262
99.5511
102.533
105.379
108.094
110.684
113.155
115.513
117.762
119.911
121.961
123.922
125.796
127.59
17.6921
18.5022
20.2904
22.7591
25.5623
28.5575
31.6531
34.789
37.925
41.0328
44.0924
47.0893
50.0134
52.8577
55.6175
58.2898
60.8734
63.3674
65.7727
68.0898
70.3208
72.4671
74.5313
76.5155
78.4227
80.2551
82.0159
83.7075
85.3331
86.8952
88.397
89.8405
91.2291
17.6213
17.9912
18.8824
20.3079
22.0195
23.9107
25.9093
27.9667
30.05
32.1359
34.208
36.254
38.2655
40.2359
42.1608
44.037
45.8624
47.6356
49.3561
51.0235
52.6382
54.2007
55.7117
57.1723
58.5836
59.9467
61.2632
62.5343
63.7616
64.9464
66.0903
67.1946
68.2607
17.591
17.7573
18.1874
18.9891
20.029
21.2312
22.54
23.916
25.3312
26.7655
28.2045
29.6375
31.0566
32.4559
33.8313
35.1794
36.498
37.7854
39.0406
40.2629
41.4519
42.6075
43.73
44.8195
45.8765
46.9016
47.8953
48.8585
49.7918
50.6959
51.5718
52.4201
53.2416
17.5777
17.6499
17.8528
18.2782
18.8974
19.6531
20.5077
21.4311
22.4002
23.3978
24.4109
25.4301
26.4479
27.4588
28.4588
29.4446
30.4138
31.3647
32.296
33.2066
34.096
34.9638
35.8097
36.6337
37.4358
38.2162
38.9752
39.7131
40.4301
41.1268
41.8035
42.4606
43.0986
17.5717
17.6008
17.6934
17.9051
18.2597
18.7223
19.2706
19.8837
20.5439
21.2371
21.9523
22.6808
23.416
24.1527
24.8868
25.6153
26.3357
27.0461
27.7452
28.4317
29.1049
29.7642
30.4091
31.0394
31.6549
32.2555
32.8414
33.4124
33.9688
34.5108
35.0384
35.552
36.0517
17.5685
17.5785
17.6181
17.7167
17.9085
18.1807
18.5221
18.9201
19.3623
19.8384
20.3392
20.8575
21.3874
21.9242
22.4641
23.0041
23.5418
24.0753
24.6031
25.124
25.6371
26.1415
26.6369
27.1226
27.5985
28.0644
28.52
28.9653
29.4004
29.8251
30.2397
30.644
31.0383
17.5667
17.5684
17.5829
17.6262
17.7205
17.8733
18.0775
18.3273
18.6156
18.9354
19.2799
19.6435
20.0213
20.4092
20.8038
21.2024
21.6026
22.0027
22.4011
22.7965
23.188
23.5748
23.9562
24.3317
24.701
25.0636
25.4194
25.7682
26.1098
26.4442
26.7714
27.0913
27.4038
17.5661
17.5629
17.5666
17.5833
17.6249
17.7047
17.8205
17.9706
18.1518
18.3599
18.5907
18.8401
19.1043
19.38
19.6645
19.9553
20.2503
20.5479
20.8466
21.1452
21.4427
21.7382
22.0312
22.3209
22.607
22.8891
23.1669
23.4401
23.7086
23.9721
24.2307
24.4841
24.7324
17.5661
17.5601
17.5585
17.5631
17.5791
17.6155
17.6769
17.7623
17.8709
18.001
18.1502
18.3159
18.4957
18.6871
18.8878
19.096
19.31
19.5281
19.7492
19.9721
20.1958
20.4197
20.6429
20.865
21.0854
21.3037
21.5196
21.7328
21.943
22.1502
22.354
22.5544
22.7513
17.5661
17.5591
17.5541
17.5533
17.5575
17.5711
17.5997
17.6448
17.7061
17.7833
17.8755
17.9813
18.0994
18.228
18.3657
18.511
18.6625
18.8191
18.9796
19.1431
19.3088
19.476
19.6439
19.812
19.98
20.1473
20.3136
20.4786
20.6421
20.8038
20.9635
21.1212
21.2766
17.5662
17.5588
17.5523
17.5479
17.5469
17.5501
17.5603
17.5811
17.6128
17.6556
17.7093
17.7736
17.8477
17.9307
18.0218
18.1198
18.224
18.3333
18.4469
18.5641
18.6842
18.8066
18.9306
19.0559
19.1819
19.3083
19.4347
19.561
19.6867
19.8116
19.9357
20.0586
20.1803
17.5662
17.5587
17.5517
17.5456
17.5413
17.5397
17.5415
17.5482
17.5621
17.5834
17.6122
17.6487
17.6926
17.7435
17.801
17.8645
17.9334
18.0072
18.0851
18.1667
18.2515
18.3389
18.4285
18.5198
18.6126
18.7064
18.801
18.8961
18.9915
19.0868
19.182
19.2769
19.3713
17.5662
17.5587
17.5515
17.5447
17.5388
17.5344
17.5319
17.5324
17.5359
17.5442
17.5577
17.5764
17.6003
17.6295
17.6637
17.7028
17.7463
17.794
17.8455
17.9005
17.9585
18.0192
18.0822
18.1473
18.2142
18.2825
18.352
18.4226
18.4938
18.5657
18.6379
18.7104
18.7829
17.5662
17.5587
17.5514
17.5444
17.5378
17.532
17.5272
17.5241
17.5231
17.5243
17.5283
17.5362
17.5475
17.5627
17.5815
17.604
17.63
17.6595
17.6921
17.7278
17.7663
17.8073
17.8507
17.8961
17.9434
17.9923
18.0427
18.0944
18.1472
18.2009
18.2553
18.3103
18.3658
17.5662
17.5587
17.5514
17.5442
17.5374
17.531
17.5251
17.5202
17.5164
17.5141
17.5138
17.5151
17.5189
17.5255
17.5347
17.5466
17.5613
17.5787
17.5987
17.6213
17.6464
17.6737
17.7032
17.7347
17.7681
17.8031
17.8398
17.8778
17.917
17.9574
17.9988
18.041
18.084
17.5662
17.5587
17.5514
17.5442
17.5372
17.5306
17.5243
17.5185
17.5135
17.5094
17.5065
17.505
17.5052
17.5068
17.5105
17.5164
17.5245
17.5348
17.5473
17.5619
17.5787
17.5975
17.6184
17.6411
17.6656
17.6917
17.7195
17.7486
17.7791
17.8108
17.8437
17.8775
17.9121
17.5662
17.5587
17.5513
17.5442
17.5372
17.5304
17.524
17.518
17.5126
17.5078
17.5041
17.5014
17.5002
17.5004
17.5018
17.5051
17.5104
17.5177
17.5269
17.5381
17.5511
17.5661
17.583
17.6016
17.622
17.644
17.6675
17.6924
17.7187
17.7462
17.7749
17.8046
17.8352
17.5662
17.5587
17.5513
17.5442
17.5372
17.5305
17.5242
17.5183
17.5132
17.5088
17.5055
17.5034
17.5028
17.5035
17.5056
17.5097
17.5158
17.5238
17.5337
17.5456
17.5594
17.575
17.5925
17.6117
17.6326
17.6551
17.6791
17.7045
17.7312
17.7591
17.7881
17.8181
17.849
17.5662
17.5587
17.5513
17.5442
17.5374
17.5309
17.5251
17.52
17.5159
17.5131
17.5117
17.5122
17.5141
17.5183
17.5246
17.5331
17.5437
17.5566
17.5716
17.5888
17.608
17.6292
17.6522
17.6771
17.7035
17.7316
17.7611
17.7919
17.824
17.8572
17.8914
17.9265
17.9624
17.5662
17.5587
17.5514
17.5444
17.5379
17.5322
17.5276
17.5243
17.523
17.5238
17.5267
17.5327
17.5416
17.5534
17.5681
17.5857
17.6061
17.6292
17.6549
17.6831
17.7135
17.7461
17.7806
17.817
17.855
17.8945
17.9353
17.9773
18.0204
18.0644
18.1093
18.1548
18.201
17.5662
17.5587
17.5516
17.5451
17.5396
17.5357
17.5342
17.5354
17.5395
17.5482
17.5612
17.5785
17.6003
17.6263
17.6565
17.6905
17.7282
17.7692
17.8134
17.8603
17.9097
17.9613
18.015
18.0703
18.1272
18.1854
18.2446
18.3048
18.3657
18.4273
18.4893
18.5517
18.6143
17.5662
17.5589
17.5522
17.5473
17.5446
17.5455
17.5504
17.5615
17.5798
17.605
17.6371
17.6761
17.7215
17.7729
17.8299
17.8918
17.9581
18.0284
18.102
18.1786
18.2577
18.3389
18.4218
18.506
18.5914
18.6777
18.7645
18.8517
18.9391
19.0265
19.1138
19.2009
19.2876
17.5662
17.5594
17.5546
17.5542
17.558
17.5696
17.5932
17.6282
17.6749
17.7329
17.8016
17.8801
17.9674
18.0624
18.164
18.2714
18.3835
18.4996
18.6189
18.7408
18.8645
18.9897
19.1159
19.2426
19.3696
19.4965
19.6231
19.7491
19.8744
19.9988
20.1221
20.2443
20.3652
17.5663
17.5617
17.563
17.5718
17.595
17.6401
17.7055
17.7911
17.8954
18.0165
18.1523
18.3006
18.4593
18.6266
18.8007
18.9802
19.1638
19.3502
19.5387
19.7283
19.9185
20.1085
20.298
20.4864
20.6735
20.859
21.0426
21.2241
21.4035
21.5804
21.7549
21.9269
22.0962
17.5672
17.57
17.5859
17.6276
17.711
17.8336
17.9919
18.1815
18.3976
18.6351
18.8897
19.1574
19.435
19.7198
20.0094
20.302
20.596
20.8902
21.1836
21.4753
21.7646
22.0511
22.3342
22.6137
22.8893
23.1606
23.4277
23.6904
23.9485
24.202
24.451
24.6953
24.935
17.5716
17.5953
17.6662
17.8177
18.053
18.3543
18.7087
19.1036
19.5285
19.9745
20.4349
20.9044
21.3787
21.8547
22.33
22.8027
23.2712
23.7345
24.1917
24.6422
25.0854
25.521
25.9488
26.3686
26.7802
27.1837
27.5789
27.966
28.3449
28.7159
29.0788
29.434
29.7814
17.5854
17.6974
17.9699
18.4419
19.0444
19.7381
20.4917
21.2821
22.0933
22.9141
23.7366
24.5557
25.3673
26.1688
26.9583
27.7344
28.4962
29.243
29.9745
30.6904
31.3907
32.0753
32.7443
33.3979
34.0362
34.6595
35.268
35.8619
36.4417
37.0075
37.5596
38.0985
38.6243
17.6522
18.1438
19.1451
20.4574
21.9286
23.4776
25.0548
26.6331
28.1966
29.7371
31.25
32.7322
34.182
35.5983
36.9807
38.329
39.6436
40.9246
42.1725
43.3878
44.5711
45.723
46.8443
47.9356
48.9975
50.0309
51.0365
52.015
52.9671
53.8936
54.7951
55.6725
56.5263
18.0423
20.3419
23.6954
27.3243
30.9671
34.5343
37.9952
41.351
44.6032
47.7618
50.8283
53.8045
56.6925
59.4942
62.2115
64.8461
67.4002
69.8754
72.2737
74.5972
76.8479
79.0277
81.1389
83.1833
85.1631
87.0804
88.9373
90.7356
92.4775
94.1648
95.7995
97.3835
98.9185
21.0783
32.2377
43.8848
55.0827
65.2654
74.723
83.6609
92.2516
100.529
108.499
116.17
123.546
130.634
137.44
143.973
150.24
156.249
162.01
167.531
172.822
177.893
182.751
187.408
191.87
196.149
200.25
204.185
207.959
211.581
215.058
218.398
221.607
224.691
63.2893
131.146
179.994
220.948
253.72
286.904
320.75
353.552
384.646
413.765
440.836
465.898
489.06
510.453
530.22
548.492
565.403
581.067
595.602
609.1
621.662
633.36
644.282
654.48
664.033
672.977
681.385
689.276
696.721
703.724
710.358
716.61
722.558
1672.14
1819.15
1960.96
2086.92
2197.23
2294.25
2379.79
2455.18
2521.53
2579.87
2631.09
2676.01
2715.34
2749.72
2779.71
2805.83
2828.53
2848.19
2865.18
2879.82
2892.37
2903.08
2912.17
2919.82
2926.22
2931.5
2935.79
2939.22
2941.89
2943.89
2945.3
2946.18
2946.62
8853.36
8457.77
7922.46
7380.97
6867.73
6392.28
5957.16
5562.05
5203.87
4877.39
4582.25
4314.45
4071.07
3849.93
3648.49
3464.61
3295.95
3141.05
2997.98
2865.76
2743.46
2630.24
2525.08
2427.22
2335.79
2250
2169.23
2092.84
2020.3
1951.08
1884.73
1820.87
1758.7
1698.17
1639.07
1581.14
1524.17
1467.97
1412.5
1357.58
1303.17
1249.34
1196.14
1143.65
1091.93
1041.03
991
941.868
893.692
846.539
800.5
755.702
712.303
670.483
630.424
592.299
556.249
522.373
490.729
461.331
434.157
409.157
386.263
365.394
346.457
329.347
313.95
300.141
287.786
276.749
266.889
258.075
250.185
243.108
236.754
231.036
225.884
221.239
217.024
213.203
209.715
206.502
203.515
200.719
198.069
195.53
193.085
190.67
188.313
185.962
183.638
181.238
178.854
176.358
173.929
171.243
168.868
165.8
163.734
159.838
3313.97
3343.53
3417.13
3485.47
3562.88
3644.99
3718.03
3774.14
3797.83
3789.27
3760.2
3697.77
3609.42
3503.4
3385.44
3260.89
3133.66
3007.48
2882.87
2763.11
2648.86
2540.01
2436
2337.18
2243.22
2153.84
2068.91
1988.06
1910.95
1837.17
1766.35
1698.16
1632.17
1568.07
1505.59
1444.52
1384.69
1325.98
1268.35
1211.78
1156.28
1101.91
1048.75
996.865
946.317
897.15
849.387
803.046
758.148
714.73
672.852
632.597
594.073
557.397
522.684
490.028
459.497
431.117
404.881
380.745
358.643
338.488
320.185
303.634
288.729
275.363
263.424
252.794
243.355
234.987
227.57
220.995
215.162
209.979
205.375
201.276
197.632
194.389
191.479
188.889
186.552
184.418
182.454
180.625
178.893
177.225
175.611
173.986
172.384
170.756
169.124
167.378
165.618
163.732
161.864
159.747
157.86
155.362
153.654
150.423
1464.53
1469.31
1480.67
1493.91
1508.7
1528.13
1553.03
1585.87
1627.49
1676.23
1731.11
1788.78
1845.9
1900.59
1949.44
1988.74
2017.6
2031.69
2029.52
2019.91
1998
1963.61
1919.57
1870.32
1816.27
1759.83
1702.51
1644.67
1586.93
1529.57
1472.91
1417.01
1361.89
1307.53
1253.87
1200.89
1148.59
1097.01
1046.22
996.324
947.459
899.751
853.32
808.267
764.666
722.563
681.984
642.937
605.431
569.481
535.118
502.389
471.352
442.071
414.599
388.976
365.213
343.295
323.178
304.799
288.075
272.917
259.232
246.927
235.909
226.085
217.365
209.652
202.855
196.879
191.632
187.032
182.999
179.47
176.384
173.689
171.349
169.312
167.528
166.003
164.66
163.462
162.388
161.409
160.489
159.598
158.73
157.819
156.907
155.943
154.956
153.822
152.651
151.347
150.018
148.451
147.039
145.099
143.746
141.176
789.343
791.955
795.545
799.158
802.062
804.867
807.711
811.443
816.208
823.179
832.597
845.728
862.297
883.435
908.171
937.091
967.856
1000.79
1031.51
1061.15
1086.11
1108.1
1121.63
1131.8
1131.72
1128.39
1119.61
1104.31
1084.49
1061.09
1035.07
1006.69
976.47
944.74
911.775
877.832
843.164
808.028
772.685
737.395
702.405
667.943
634.203
601.341
569.475
538.685
509.025
480.525
453.21
427.1
402.224
378.614
356.307
335.341
315.742
297.526
280.687
265.203
251.03
238.115
226.393
215.794
206.25
197.693
190.058
183.28
177.294
172.036
167.441
163.444
159.979
156.994
154.427
152.239
150.381
148.82
147.534
146.465
145.595
144.937
144.398
143.962
143.626
143.355
143.117
142.885
142.656
142.366
142.057
141.681
141.276
140.694
140.06
139.301
138.473
137.422
136.463
135.059
134.047
132.117
466.832
469.905
473.068
476.102
478.639
480.811
482.539
484.086
485.345
486.708
488.088
490.044
492.471
496.028
500.489
506.574
513.786
522.865
532.903
544.448
556.239
568.851
580.547
591.883
601.183
608.84
613.816
617.631
617.813
616.536
613.184
606.944
598.541
587.917
575.291
560.892
544.968
527.778
509.593
490.683
471.305
451.699
432.075
412.609
393.443
374.688
356.425
338.717
321.615
305.16
289.397
274.365
260.105
246.653
234.039
222.279
211.378
201.328
192.108
183.688
176.031
169.1
162.856
157.261
152.277
147.868
143.997
140.624
137.711
135.218
133.101
131.333
129.865
128.683
127.741
127.028
126.527
126.174
125.999
125.989
126.052
126.193
126.428
126.708
127.009
127.305
127.594
127.817
128.011
128.131
128.232
128.126
127.965
127.703
127.326
126.745
126.208
125.304
124.613
123.29
290.857
293.988
297.055
300.001
302.67
305.085
307.192
309.075
310.67
312.103
313.317
314.486
315.55
316.714
317.887
319.288
320.775
322.577
324.509
326.847
329.333
332.208
335.161
338.358
341.44
344.5
347.092
349.398
350.933
351.793
351.608
350.784
348.958
346.096
342.257
337.427
331.631
324.932
317.424
309.222
300.453
291.246
281.727
272.01
262.196
252.369
242.601
232.951
223.472
214.213
205.219
196.536
188.205
180.265
172.749
165.683
159.082
152.952
147.293
142.095
137.347
133.033
129.138
125.646
122.541
119.808
117.427
115.379
113.644
112.199
111.02
110.095
109.383
108.893
108.572
108.441
108.469
108.592
108.866
109.287
109.786
110.351
110.983
111.656
112.348
113.035
113.715
114.335
114.924
115.442
115.923
116.24
116.485
116.662
116.669
116.506
116.35
115.9
115.501
114.743
189.665
192.406
195.08
197.669
200.109
202.394
204.501
206.45
208.218
209.841
211.298
212.641
213.847
214.974
215.987
216.941
217.781
218.567
219.23
219.837
220.328
220.77
221.115
221.416
221.641
221.806
221.898
221.859
221.727
221.447
220.911
220.126
219.038
217.591
215.787
213.6
211.017
208.038
204.677
200.961
196.929
192.622
188.086
183.368
178.509
173.55
168.527
163.473
158.422
153.406
148.458
143.611
138.9
134.354
130.004
125.873
121.977
118.33
114.938
111.803
108.925
106.302
103.929
101.805
99.9237
98.2812
96.8703
95.683
94.7105
93.9403
93.362
92.9729
92.7355
92.678
92.7347
92.9141
93.2646
93.7095
94.261
94.9316
95.686
96.5066
97.3857
98.3071
99.252
100.199
101.145
102.047
102.921
103.736
104.51
105.156
105.727
106.216
106.571
106.777
106.965
106.898
106.771
106.523
129.592
131.809
133.983
136.104
138.146
140.1
141.953
143.709
145.358
146.909
148.355
149.71
150.966
152.137
153.209
154.193
155.062
155.829
156.463
156.975
157.342
157.579
157.674
157.638
157.51
157.238
156.866
156.386
155.809
155.136
154.356
153.459
152.437
151.274
149.961
148.491
146.859
145.067
143.117
141.018
138.782
136.421
133.95
131.385
128.739
126.027
123.261
120.458
117.63
114.796
111.973
109.182
106.444
103.781
101.211
98.7527
96.4193
94.2219
92.1677
90.2621
88.5079
86.9081
85.4633
84.176
83.046
82.0741
81.2584
80.597
80.0882
79.7239
79.5058
79.4297
79.4617
79.5978
79.8772
80.2543
80.7545
81.3523
82.0417
82.8301
83.7017
84.6421
85.6412
86.687
87.7647
88.8561
89.9565
91.0314
92.0888
93.1022
94.0818
94.9648
95.7809
96.5183
97.1409
97.6494
98.0814
98.3783
98.4821
98.6833
92.7864
94.5205
96.2304
97.9104
99.5484
101.138
102.671
104.148
105.562
106.915
108.205
109.433
110.596
111.697
112.727
113.688
114.565
115.357
116.048
116.637
117.11
117.471
117.705
117.836
117.82
117.731
117.523
117.201
116.787
116.277
115.679
114.99
114.212
113.343
112.383
111.334
110.198
108.979
107.681
106.312
104.878
103.387
101.845
100.259
98.634
96.9761
95.2904
93.5827
91.8598
90.1302
88.4039
86.6924
85.0086
83.3652
81.775
80.2492
78.7974
77.4275
76.1453
74.9557
73.862
72.8681
71.9755
71.1886
70.5081
69.9371
69.4758
69.1251
68.8876
68.7568
68.7444
68.804
68.9663
69.2337
69.6015
70.0571
70.61
71.2531
71.9798
72.7927
73.6848
74.647
75.67
76.7449
77.8601
79.0011
80.1623
81.3176
82.468
83.5925
84.6948
85.7307
86.711
87.6288
88.446
89.1869
89.8138
90.3983
90.6921
91.2719
69.4612
70.8042
72.1349
73.4498
74.7428
76.0096
77.2458
78.4492
79.6169
80.7478
81.8399
82.8932
83.9051
84.875
85.7984
86.6727
87.4904
88.2477
88.9353
89.5494
90.0811
90.53
90.8856
91.1581
91.3298
91.4185
91.4007
91.3243
91.1524
90.8907
90.556
90.1406
89.6521
89.0899
88.457
87.7571
86.9942
86.1731
85.2997
84.3798
83.4196
82.4245
81.3999
80.3502
79.2792
78.1902
77.0864
75.9712
74.8487
73.7238
72.6026
71.4923
70.4008
69.3363
68.3067
67.3196
66.3813
65.4973
64.6718
63.9087
63.2107
62.5817
62.0225
61.5386
61.1295
60.7998
60.5501
60.383
60.304
60.3068
60.368
60.5148
60.7467
61.0568
61.4478
61.9153
62.4628
63.0897
63.7924
64.5717
65.4245
66.3456
67.3285
68.3666
69.4515
70.572
71.7229
72.8848
74.0551
75.2173
76.3706
77.485
78.5577
79.5893
80.5339
81.4386
82.2082
83.0098
83.4508
84.3344
54.1693
55.2113
56.2478
57.2768
58.295
59.2994
60.2873
61.2568
62.2059
63.1333
64.0375
64.9174
65.7714
66.598
67.3944
68.158
68.8842
69.5694
70.208
70.7962
71.3281
71.8019
72.211
72.558
72.8346
73.0478
73.1842
73.2622
73.2541
73.2047
73.0865
72.8932
72.6451
72.3332
71.9641
71.5405
71.0653
70.5433
69.9793
69.3783
68.745
68.0842
67.4004
66.6974
65.9783
65.2463
64.5039
63.7541
63
62.2453
61.4943
60.752
60.0237
59.3149
58.6312
57.9775
57.3581
56.7771
56.2375
55.7423
55.2938
54.8952
54.5467
54.2544
54.0157
53.8373
53.7188
53.6655
53.674
53.7304
53.8546
54.0431
54.2955
54.6115
54.9933
55.4398
55.9532
56.5345
57.1828
57.8986
58.6809
59.5273
60.4337
61.3959
62.4081
63.4625
64.5544
65.6705
66.8062
67.9495
69.0963
70.2282
71.3327
72.4181
73.431
74.4365
75.2982
76.2513
76.7991
77.9103
43.8209
44.6347
45.4471
46.2565
47.0612
47.8592
48.6488
49.4284
50.1965
50.9521
51.694
52.4211
53.132
53.8256
54.4997
55.1523
55.7805
56.3814
56.9514
57.4874
57.9857
58.444
58.8581
59.2278
59.5485
59.8226
60.0427
60.2168
60.3311
60.4049
60.4118
60.3852
60.3135
60.1791
60.0036
59.7831
59.5193
59.2173
58.8802
58.5113
58.1144
57.6935
57.2522
56.7935
56.3204
55.8355
55.3415
54.841
54.3367
53.8317
53.3295
52.8337
52.3482
51.8771
51.4243
50.9934
50.5873
50.2093
49.8614
49.5462
49.2658
49.0222
48.8155
48.6524
48.5274
48.451
48.4205
48.4339
48.4871
48.5952
48.7505
48.9552
49.2107
49.5175
49.8775
50.2913
50.7606
51.287
51.8709
52.5134
53.2145
53.9735
54.7883
55.6567
56.575
57.5383
58.5429
59.5803
60.6456
61.7305
62.8292
63.9319
65.0206
66.1103
67.1417
68.1936
69.1018
70.147
70.7657
72.0299
36.6187
37.2594
37.9008
38.542
39.1818
39.819
40.4523
41.0806
41.703
42.3184
42.9259
43.5246
44.1136
44.6917
45.2575
45.8094
46.3456
46.8638
47.3616
47.8369
48.2869
48.7097
49.1025
49.4643
49.7922
50.0865
50.3432
50.5651
50.7458
50.892
50.995
51.0628
51.0923
51.0819
51.0447
50.9646
50.849
50.7046
50.5305
50.3286
50.1031
49.8568
49.5921
49.3114
49.0174
48.7123
48.3985
48.0784
47.7545
47.4293
47.1056
46.7864
46.4745
46.1732
45.8852
45.6133
45.3596
45.1268
44.9162
44.7303
44.571
44.4385
44.3342
44.2648
44.2211
44.2206
44.2436
44.3042
44.4029
44.5394
44.7134
44.9262
45.179
45.4731
45.8098
46.1905
46.6167
47.0901
47.6119
48.1833
48.805
49.4774
50.1999
50.9715
51.7904
52.6537
53.5591
54.5014
55.4764
56.4791
57.5029
58.5446
59.5834
60.6397
61.6505
62.7045
63.6206
64.7071
65.3642
66.7152
31.4866
31.9944
32.5043
33.0156
33.5273
34.0388
34.5492
35.0576
35.5632
36.0654
36.5635
37.0566
37.5441
38.0251
38.4985
38.9633
39.4179
39.861
40.2909
40.7059
41.1041
41.484
41.8437
42.1821
42.4972
42.7884
43.0537
43.2933
43.5046
43.689
43.8439
43.9704
44.069
44.1373
44.1819
44.1938
44.1828
44.1503
44.0896
44.0056
43.9037
43.7843
43.6484
43.4984
43.3367
43.1649
42.9852
42.7997
42.6104
42.4195
42.2291
42.0418
41.8597
41.6855
41.521
41.3682
41.229
41.1057
40.9988
40.9114
40.8441
40.7957
40.7707
40.7735
40.7925
40.8406
40.916
41.0173
41.1471
41.306
41.4945
41.7134
41.9639
42.2471
42.5644
42.9171
43.3066
43.7345
44.2022
44.7111
45.2623
45.8566
46.4943
47.1755
47.8994
48.665
49.4707
50.3141
51.1917
52.1015
53.0365
53.9984
54.9657
55.9626
56.925
57.9477
58.8414
59.9274
60.5957
61.9772
27.76
28.1646
28.5719
28.9815
29.3928
29.8052
30.2181
30.6309
31.043
31.4539
31.863
32.2698
32.6737
33.0739
33.4698
33.8605
34.2451
34.6224
34.9914
35.3507
35.6992
36.0355
36.3584
36.6668
36.9595
37.2356
37.4939
37.7338
37.9542
38.1549
38.3349
38.4939
38.6325
38.749
38.8463
38.9218
38.9775
39.0153
39.0349
39.0333
39.0211
38.993
38.9503
38.8962
38.8326
38.7602
38.6813
38.5977
38.5105
38.4218
38.3334
38.2471
38.1648
38.0887
38.0194
37.959
37.9093
37.8716
37.8462
37.8374
37.8427
37.8608
37.8984
37.9566
38.0306
38.1244
38.2391
38.3744
38.5313
38.7106
38.913
39.1392
39.3901
39.6667
39.9703
40.302
40.6631
41.055
41.4791
41.9367
42.429
42.9572
43.5219
44.1239
44.7632
45.4398
46.153
46.902
47.6844
48.5
49.3424
50.2167
51.1013
52.0238
52.9202
53.8886
54.738
55.7921
56.4496
57.8163
25.0159
25.3389
25.6651
25.9941
26.3255
26.6589
26.9938
27.3298
27.6665
28.0033
28.34
28.676
29.011
29.3443
29.6755
30.004
30.329
30.6498
30.9656
31.2754
31.5784
31.8736
32.1602
32.4373
32.7039
32.9593
33.2027
33.4335
33.6509
33.8545
34.0437
34.2181
34.3777
34.5219
34.6515
34.7659
34.8656
34.9513
35.024
35.0822
35.1295
35.1658
35.1916
35.2082
35.2173
35.2191
35.2167
35.2106
35.2015
35.1914
35.1819
35.1743
35.1701
35.1712
35.1768
35.1898
35.2116
35.2428
35.2838
35.3366
35.4016
35.4778
35.5675
35.6726
35.7915
35.9252
36.0748
36.2404
36.4225
36.6218
36.8389
37.0745
37.3293
37.6043
37.9002
38.2183
38.5594
38.9249
39.316
39.7338
40.1796
40.6545
41.1595
41.6955
42.2631
42.8628
43.4946
44.1589
44.8537
45.5809
46.334
47.1207
47.9201
48.7619
49.5833
50.4838
51.2752
52.2756
52.9063
54.2242
22.9767
23.2345
23.4957
23.7599
24.0271
24.2967
24.5685
24.8422
25.1174
25.3938
25.6711
25.949
26.227
26.5049
26.7822
27.0584
27.3331
27.6057
27.8756
28.1423
28.405
28.663
28.9158
29.1626
29.4029
29.6359
29.8612
30.0781
30.2862
30.485
30.6742
30.8533
31.0222
31.1807
31.3288
31.4665
31.594
31.7113
31.8194
31.9178
32.0077
32.0897
32.1645
32.2328
32.2958
32.3539
32.4088
32.4615
32.5128
32.564
32.6162
32.6705
32.7279
32.79
32.8567
32.9294
33.0092
33.0968
33.1925
33.2974
33.4122
33.5367
33.6716
33.8181
33.9758
34.1451
34.3265
34.5203
34.7267
34.9463
35.1796
35.427
35.6894
35.9672
36.2612
36.5723
36.9014
37.2493
37.6172
38.006
38.4169
38.8509
39.309
39.7924
40.3016
40.8378
41.4011
41.9927
42.6111
43.2591
43.9309
44.6356
45.3532
46.1148
46.8594
47.686
48.4127
49.3462
49.9395
51.1854
21.4551
21.66
21.8684
22.0802
22.2951
22.5128
22.7332
22.9559
23.1808
23.4076
23.636
23.8657
24.0966
24.3284
24.5606
24.7931
25.0254
25.2572
25.488
25.7174
25.945
26.1702
26.3926
26.6116
26.8269
27.038
27.2444
27.4458
27.6417
27.8318
28.0159
28.1936
28.3647
28.5292
28.687
28.838
28.9823
29.1201
29.2517
29.3771
29.497
29.6117
29.7219
29.8281
29.9312
30.0316
30.1304
30.2285
30.3266
30.4257
30.5266
30.6302
30.7372
30.8486
30.9649
31.0866
31.2145
31.3492
31.491
31.6404
31.7981
31.964
32.1385
32.322
32.5146
32.7164
32.9277
33.1483
33.3787
33.6191
33.87
34.1318
34.4048
34.6896
34.9868
35.2969
35.6207
35.9589
36.3122
36.6816
37.068
37.4723
37.8955
38.3386
38.8024
39.2881
39.7959
40.3275
40.8817
41.462
42.0629
42.6945
43.3377
44.0242
44.6951
45.4481
46.1087
46.9696
47.5196
48.6802
20.3207
20.4826
20.6481
20.817
20.9891
21.1644
21.3426
21.5235
21.7069
21.8928
22.0808
22.2708
22.4626
22.656
22.8507
23.0466
23.2434
23.4408
23.6385
23.8362
24.0335
24.2302
24.426
24.6203
24.8131
25.0038
25.1922
25.3781
25.5611
25.741
25.9176
26.0907
26.2601
26.4258
26.5878
26.7459
26.9002
27.0509
27.1982
27.3421
27.483
27.6213
27.7574
27.8918
28.0251
28.1578
28.2905
28.4241
28.5591
28.6962
28.8361
28.9796
29.127
29.2791
29.4362
29.5989
29.7674
29.9423
30.1236
30.3117
30.5069
30.7095
30.9193
31.1366
31.3614
31.5935
31.8331
32.0799
32.3341
32.5962
32.8662
33.1445
33.4311
33.7266
34.0313
34.3456
34.67
35.005
35.3514
35.7097
36.0807
36.4651
36.8639
37.2779
37.708
38.1552
38.6199
39.104
39.6063
40.1309
40.6722
41.2414
41.8195
42.4391
43.0429
43.7266
44.324
45.1122
45.6171
46.6872
19.4807
19.6076
19.7381
19.8721
20.0094
20.1499
20.2936
20.4402
20.5896
20.7418
20.8966
21.0538
21.2133
21.375
21.5387
21.7042
21.8714
22.0401
22.21
22.381
22.5529
22.7254
22.8983
23.0713
23.2443
23.417
23.5893
23.7608
23.9315
24.1012
24.2697
24.437
24.603
24.7675
24.9306
25.0922
25.2526
25.4116
25.5694
25.7263
25.8825
26.0382
26.1938
26.3497
26.5064
26.6643
26.8238
26.9857
27.1504
27.3184
27.4904
27.6667
27.8479
28.0342
28.226
28.4236
28.6273
28.837
29.0529
29.2753
29.5044
29.7401
29.9824
30.2311
30.4861
30.7472
31.0143
31.2868
31.5653
31.85
32.1407
32.4374
32.7404
33.0498
33.3658
33.6887
34.0189
34.3567
34.7024
35.0568
35.4202
35.7934
36.177
36.5717
36.9783
37.398
37.8308
38.2789
38.741
39.2216
39.7149
40.2327
40.7562
41.3185
41.8636
42.4853
43.0251
43.7449
44.2059
45.1869
18.8674
18.9663
19.0686
19.1744
19.2836
19.396
19.5117
19.6305
19.7524
19.8772
20.005
20.1355
20.2687
20.4045
20.5428
20.6835
20.8265
20.9717
21.1188
21.2679
21.4187
21.5711
21.725
21.8802
22.0367
22.1941
22.3525
22.5117
22.6716
22.8322
22.9933
23.1549
23.317
23.4796
23.6426
23.8062
23.9704
24.1352
24.3009
24.4675
24.6354
24.8047
24.9757
25.1488
25.3243
25.5027
25.6843
25.8695
26.059
26.2531
26.4522
26.6566
26.8668
27.0828
27.3049
27.5333
27.7681
28.009
28.2561
28.5098
28.7702
29.0368
29.3096
29.5882
29.8723
30.1618
30.4563
30.7562
31.0613
31.3712
31.6854
32.0039
32.3266
32.6538
32.9854
33.3216
33.6626
34.0085
34.3597
34.7165
35.0793
35.4485
35.8247
36.2086
36.6006
37.0019
37.4125
37.8346
38.2665
38.7133
39.1688
39.6454
40.1241
40.6384
41.1335
41.7011
42.1896
42.8471
43.2669
44.1641
18.431
18.5079
18.5882
18.6718
18.7588
18.8492
18.9428
19.0397
19.1397
19.243
19.3493
19.4587
19.5711
19.6864
19.8046
19.9257
20.0494
20.1759
20.305
20.4367
20.5708
20.7073
20.8461
20.9871
21.1303
21.2756
21.423
21.5723
21.7237
21.8769
22.0321
22.1892
22.3483
22.5093
22.6724
22.8377
23.0051
23.1749
23.3472
23.5221
23.6999
23.8807
24.0649
24.2527
24.4446
24.6406
24.8411
25.0467
25.258
25.475
25.6982
25.9278
26.1639
26.4068
26.6565
26.913
27.1765
27.447
27.7249
28.0102
28.302
28.6
28.9039
29.2133
29.5278
29.8471
30.1706
30.4986
30.8292
31.1626
31.499
31.8386
32.1811
32.5267
32.8752
33.2266
33.5811
33.9386
34.2993
34.6634
35.031
35.4027
35.7786
36.1594
36.5453
36.9374
37.3355
37.7419
38.1546
38.5789
39.0081
39.4555
39.9011
40.3796
40.8358
41.3611
41.8082
42.4147
42.7991
43.6225
18.1349
18.1955
18.2593
18.3265
18.397
18.4708
18.548
18.6284
18.7122
18.7992
18.8895
18.9831
19.0798
19.1798
19.283
19.3894
19.4988
19.6114
19.7271
19.8458
19.9676
20.0924
20.2201
20.3508
20.4845
20.621
20.7606
20.903
21.0485
21.1969
21.3484
21.5029
21.6607
21.8216
21.986
22.1537
22.3251
22.5002
22.6792
22.8622
23.0495
23.2414
23.438
23.6397
23.8467
24.0596
24.2787
24.5045
24.7373
24.977
25.2241
25.4785
25.7406
26.0103
26.2877
26.5728
26.8654
27.1656
27.473
27.786
28.1053
28.4308
28.7622
29.0991
29.4409
29.7873
30.1377
30.4918
30.8494
31.2097
31.5725
31.9375
32.3044
32.673
33.0432
33.4149
33.788
34.1625
34.5382
34.9153
35.2938
35.6741
36.0562
36.4407
36.8274
37.2178
37.611
38.0096
38.4111
38.8214
39.2328
39.6597
40.0808
40.5324
40.9581
41.4497
41.8627
42.4266
42.7813
43.5447
17.9535
18.0033
18.0563
18.1125
18.172
18.2348
18.3009
18.3704
18.4432
18.5194
18.599
18.682
18.7685
18.8583
18.9516
19.0482
19.1484
19.252
19.359
19.4695
19.5835
19.701
19.822
19.9466
20.0747
20.2065
20.342
20.4812
20.6243
20.7712
20.9221
21.0771
21.2363
21.3999
21.568
21.7407
21.9182
22.1006
22.2883
22.4814
22.68
22.8846
23.0952
23.3123
23.536
23.7668
24.0051
24.2502
24.5027
24.7631
25.0316
25.3084
25.5936
25.8873
26.1894
26.4998
26.8185
27.1452
27.4798
27.8221
28.1715
28.5276
28.8898
29.2576
29.6305
30.008
30.3894
30.7741
31.1618
31.552
31.944
32.3374
32.732
33.1273
33.5232
33.9192
34.3153
34.7112
35.1069
35.5022
35.897
36.2916
36.6858
37.0803
37.4746
37.8701
38.2657
38.6642
39.0624
39.4669
39.8689
40.2842
40.6895
41.1236
41.5274
41.9951
42.382
42.9136
43.2441
43.9583
17.872