/*--------------------------------*- C++ -*----------------------------------*\
  =========                 |
  \\      /  F ield         | OpenFOAM: The Open Source CFD Toolbox
   \\    /   O peration     | Website:  https://openfoam.org
    \\  /    A nd           | Version:  10
     \\/     M anipulation  |
\*---------------------------------------------------------------------------*/
FoamFile
{
    format      ascii;
    class       volScalarField;
    location    "700";
    object      p;
}
// * * * * * * * * * * * * * * * * * * * * * * * * * * * * * * * * * * * * * //

dimensions      [0 2 -2 0 0 0 0];

internalField   nonuniform List<scalar> 
6820
(
6.40685
-4.48297
-8.00219
-8.73579
-9.13712
-9.47569
-9.6682
-9.76469
-9.83016
-9.88466
-9.92894
-9.96472
-9.99532
-10.0228
-10.0478
-10.0708
-10.0922
-10.1124
-10.1316
-10.1499
-10.1676
-10.1845
-10.2009
-10.2168
-10.2321
-10.2468
-10.2608
-10.274
-10.2861
-10.2967
-10.3042
-10.3101
-10.298
-15.4811
-11.8032
-11.0583
-10.2891
-9.92432
-9.85795
-9.85624
-9.86011
-9.87823
-9.90746
-9.93826
-9.96696
-9.99385
-10.0193
-10.0433
-10.0659
-10.0871
-10.1073
-10.1266
-10.1451
-10.1629
-10.18
-10.1966
-10.2126
-10.2281
-10.2431
-10.2574
-10.2711
-10.2838
-10.2956
-10.3055
-10.3155
-10.3207
-13.3325
-9.75841
-9.50312
-9.50505
-9.49882
-9.59728
-9.69799
-9.76577
-9.8203
-9.87021
-9.91354
-9.95019
-9.98214
-10.0108
-10.0369
-10.0609
-10.0831
-10.104
-10.1238
-10.1426
-10.1607
-10.178
-10.1948
-10.211
-10.2267
-10.2418
-10.2564
-10.2705
-10.2838
-10.2965
-10.3082
-10.3208
-10.332
-10.8434
-9.38429
-9.53499
-9.65113
-9.63578
-9.69113
-9.76173
-9.81046
-9.85052
-9.88949
-9.92532
-9.95705
-9.98571
-10.0121
-10.0367
-10.0596
-10.0812
-10.1017
-10.1211
-10.1398
-10.1578
-10.1751
-10.1919
-10.2082
-10.224
-10.2394
-10.2543
-10.2688
-10.2828
-10.2965
-10.31
-10.3245
-10.3393
-10.384
-9.68662
-9.7271
-9.74333
-9.69911
-9.7268
-9.77915
-9.82026
-9.85645
-9.89261
-9.92666
-9.95746
-9.98558
-10.0117
-10.036
-10.0587
-10.0802
-10.1005
-10.12
-10.1386
-10.1565
-10.1739
-10.1907
-10.2071
-10.223
-10.2385
-10.2537
-10.2686
-10.2832
-10.2978
-10.3126
-10.3284
-10.3454
-10.3186
-9.84347
-9.79737
-9.77542
-9.73664
-9.75519
-9.79692
-9.83345
-9.86699
-9.90051
-9.93239
-9.96165
-9.98865
-10.0138
-10.0374
-10.0596
-10.0807
-10.1007
-10.1198
-10.1383
-10.1561
-10.1733
-10.1901
-10.2064
-10.2224
-10.2381
-10.2535
-10.2687
-10.2838
-10.2992
-10.3149
-10.3318
-10.3502
-10.2033
-9.87725
-9.82515
-9.80241
-9.77353
-9.78618
-9.81865
-9.84998
-9.88008
-9.91046
-9.93981
-9.96724
-9.99289
-10.017
-10.0398
-10.0614
-10.0819
-10.1016
-10.1204
-10.1386
-10.1563
-10.1734
-10.1901
-10.2064
-10.2224
-10.2382
-10.2537
-10.2693
-10.2848
-10.3007
-10.3172
-10.3348
-10.3538
-10.0972
-9.89211
-9.84965
-9.82947
-9.80718
-9.81549
-9.8405
-9.86701
-9.89374
-9.92115
-9.94807
-9.9737
-9.99798
-10.021
-10.043
-10.0639
-10.0839
-10.1031
-10.1216
-10.1396
-10.157
-10.1739
-10.1905
-10.2068
-10.2228
-10.2386
-10.2544
-10.2701
-10.286
-10.3023
-10.3192
-10.3371
-10.3565
-10.0282
-9.90533
-9.8698
-9.85179
-9.83499
-9.84099
-9.86073
-9.88336
-9.90719
-9.932
-9.95672
-9.98064
-10.0036
-10.0256
-10.0467
-10.0669
-10.0864
-10.1051
-10.1233
-10.1409
-10.1581
-10.1749
-10.1913
-10.2075
-10.2235
-10.2394
-10.2552
-10.2711
-10.2872
-10.3037
-10.3209
-10.3389
-10.3582
-9.98583
-9.91394
-9.88452
-9.86941
-9.85757
-9.86266
-9.87885
-9.89852
-9.91993
-9.94251
-9.96531
-9.98767
-10.0094
-10.0304
-10.0506
-10.0702
-10.0891
-10.1074
-10.1252
-10.1425
-10.1594
-10.176
-10.1923
-10.2084
-10.2244
-10.2402
-10.2561
-10.272
-10.2883
-10.3049
-10.3221
-10.3401
-10.359
-9.95999
-9.91896
-9.89581
-9.88383
-9.87609
-9.88095
-9.89476
-9.91219
-9.93162
-9.95233
-9.97346
-9.99444
-10.015
-10.035
-10.0545
-10.0734
-10.0918
-10.1097
-10.1271
-10.1441
-10.1608
-10.1772
-10.1934
-10.2094
-10.2252
-10.241
-10.2569
-10.2728
-10.289
-10.3056
-10.3227
-10.3405
-10.359
-9.94516
-9.92252
-9.90519
-9.89611
-9.89151
-9.89644
-9.90862
-9.92433
-9.94213
-9.96127
-9.98097
-10.0007
-10.0203
-10.0394
-10.0582
-10.0765
-10.0944
-10.1118
-10.1289
-10.1457
-10.1621
-10.1783
-10.1943
-10.2101
-10.2259
-10.2416
-10.2574
-10.2733
-10.2894
-10.3059
-10.3227
-10.3401
-10.3581
-9.9378
-9.92585
-9.91342
-9.90686
-9.90463
-9.9097
-9.92072
-9.93506
-9.9515
-9.96929
-9.98775
-10.0064
-10.025
-10.0434
-10.0615
-10.0793
-10.0967
-10.1137
-10.1305
-10.1469
-10.1631
-10.1791
-10.1949
-10.2106
-10.2262
-10.2418
-10.2575
-10.2732
-10.2892
-10.3054
-10.322
-10.339
-10.3564
-9.93538
-9.92943
-9.92092
-9.91651
-9.91602
-9.92124
-9.93138
-9.94459
-9.95984
-9.97645
-9.99381
-10.0115
-10.0293
-10.0469
-10.0644
-10.0816
-10.0986
-10.1152
-10.1316
-10.1478
-10.1638
-10.1795
-10.1952
-10.2107
-10.2261
-10.2416
-10.2571
-10.2726
-10.2884
-10.3043
-10.3205
-10.337
-10.3537
-9.93617
-9.93345
-9.92793
-9.92531
-9.92611
-9.93145
-9.94087
-9.95311
-9.9673
-9.98285
-9.99921
-10.016
-10.033
-10.05
-10.0668
-10.0835
-10.1
-10.1163
-10.1324
-10.1483
-10.164
-10.1795
-10.1949
-10.2103
-10.2255
-10.2408
-10.256
-10.2714
-10.2868
-10.3024
-10.3182
-10.3341
-10.3502
-9.93898
-9.93793
-9.93463
-9.93343
-9.93517
-9.94058
-9.9494
-9.96078
-9.97402
-9.98859
-10.004
-10.02
-10.0362
-10.0525
-10.0688
-10.085
-10.1011
-10.117
-10.1327
-10.1483
-10.1637
-10.179
-10.1942
-10.2093
-10.2244
-10.2394
-10.2544
-10.2694
-10.2845
-10.2997
-10.315
-10.3304
-10.3459
-9.94303
-9.94279
-9.94108
-9.94099
-9.9434
-9.94882
-9.95713
-9.96774
-9.9801
-9.99376
-10.0083
-10.0235
-10.0389
-10.0546
-10.0703
-10.086
-10.1017
-10.1172
-10.1326
-10.1479
-10.163
-10.1781
-10.193
-10.2078
-10.2226
-10.2373
-10.2521
-10.2668
-10.2815
-10.2963
-10.3111
-10.3259
-10.3407
-9.94782
-9.94793
-9.94732
-9.94805
-9.95092
-9.9563
-9.96415
-9.97406
-9.98561
-9.99842
-10.0122
-10.0265
-10.0413
-10.0563
-10.0715
-10.0867
-10.1019
-10.117
-10.1321
-10.147
-10.1619
-10.1766
-10.1912
-10.2058
-10.2203
-10.2347
-10.2491
-10.2635
-10.2778
-10.2921
-10.3064
-10.3206
-10.3348
-9.953
-9.95325
-9.95337
-9.95467
-9.95782
-9.9631
-9.97051
-9.97978
-9.99059
-10.0026
-10.0156
-10.0292
-10.0433
-10.0577
-10.0723
-10.087
-10.1017
-10.1165
-10.1311
-10.1457
-10.1603
-10.1747
-10.189
-10.2033
-10.2175
-10.2316
-10.2456
-10.2595
-10.2734
-10.2872
-10.301
-10.3146
-10.3282
-9.95835
-9.95863
-9.95921
-9.96088
-9.96416
-9.96929
-9.97627
-9.98494
-9.99505
-10.0063
-10.0185
-10.0315
-10.0449
-10.0587
-10.0728
-10.087
-10.1012
-10.1155
-10.1298
-10.1441
-10.1583
-10.1724
-10.1864
-10.2003
-10.2141
-10.2279
-10.2415
-10.255
-10.2685
-10.2818
-10.295
-10.3081
-10.321
-9.96373
-9.964
-9.96483
-9.9667
-9.96999
-9.97489
-9.98145
-9.98954
-9.99899
-10.0096
-10.0211
-10.0333
-10.0461
-10.0594
-10.0729
-10.0866
-10.1004
-10.1143
-10.1282
-10.1421
-10.1559
-10.1696
-10.1833
-10.1969
-10.2103
-10.2237
-10.2369
-10.25
-10.263
-10.2758
-10.2885
-10.301
-10.3133
-9.96905
-9.96929
-9.97023
-9.97215
-9.97532
-9.97993
-9.98605
-9.99358
-10.0024
-10.0123
-10.0232
-10.0348
-10.047
-10.0596
-10.0726
-10.0859
-10.0992
-10.1127
-10.1262
-10.1397
-10.1532
-10.1666
-10.1799
-10.1931
-10.2061
-10.2191
-10.2319
-10.2446
-10.2571
-10.2694
-10.2815
-10.2934
-10.3051
-9.97426
-9.97448
-9.97541
-9.97723
-9.98017
-9.98443
-9.99007
-9.99704
-10.0053
-10.0145
-10.0248
-10.0358
-10.0474
-10.0595
-10.072
-10.0848
-10.0977
-10.1108
-10.1239
-10.137
-10.1501
-10.1631
-10.1761
-10.1889
-10.2016
-10.2141
-10.2265
-10.2387
-10.2508
-10.2626
-10.2742
-10.2855
-10.2966
-9.97934
-9.97953
-9.98035
-9.98195
-9.98457
-9.98839
-9.99351
-9.99991
-10.0075
-10.0162
-10.0258
-10.0363
-10.0474
-10.059
-10.071
-10.0833
-10.0958
-10.1085
-10.1212
-10.134
-10.1467
-10.1594
-10.1719
-10.1844
-10.1967
-10.2088
-10.2208
-10.2326
-10.2441
-10.2554
-10.2665
-10.2773
-10.2878
-9.9843
-9.98448
-9.98509
-9.98633
-9.9885
-9.9918
-9.99634
-10.0021
-10.0091
-10.0172
-10.0263
-10.0362
-10.0468
-10.058
-10.0695
-10.0814
-10.0936
-10.1059
-10.1182
-10.1306
-10.143
-10.1553
-10.1675
-10.1796
-10.1915
-10.2032
-10.2148
-10.2261
-10.2372
-10.248
-10.2586
-10.2689
-10.2788
-9.9892
-9.98935
-9.98965
-9.99039
-9.99196
-9.99462
-9.99852
-10.0037
-10.0101
-10.0176
-10.0262
-10.0356
-10.0457
-10.0564
-10.0676
-10.0791
-10.0909
-10.1028
-10.1149
-10.1269
-10.139
-10.1509
-10.1628
-10.1745
-10.186
-10.1974
-10.2085
-10.2194
-10.23
-10.2404
-10.2504
-10.2602
-10.2697
-9.99413
-9.99426
-9.9941
-9.99414
-9.99494
-9.99684
-10
-10.0045
-10.0103
-10.0172
-10.0253
-10.0342
-10.0439
-10.0543
-10.0651
-10.0763
-10.0877
-10.0994
-10.1111
-10.1228
-10.1346
-10.1462
-10.1577
-10.1691
-10.1803
-10.1912
-10.202
-10.2124
-10.2226
-10.2325
-10.2421
-10.2514
-10.2604
-9.99925
-9.99934
-9.99854
-9.9976
-9.99741
-9.99837
-10.0007
-10.0044
-10.0096
-10.016
-10.0235
-10.0321
-10.0414
-10.0514
-10.062
-10.0729
-10.084
-10.0954
-10.1069
-10.1183
-10.1298
-10.1411
-10.1523
-10.1634
-10.1742
-10.1848
-10.1952
-10.2053
-10.215
-10.2245
-10.2337
-10.2425
-10.2509
-10.0048
-10.0049
-10.0031
-10.0008
-9.99932
-9.99913
-10.0005
-10.0034
-10.0079
-10.0138
-10.0209
-10.0291
-10.0381
-10.0479
-10.0581
-10.0688
-10.0798
-10.0909
-10.1021
-10.1134
-10.1246
-10.1357
-10.1466
-10.1573
-10.1679
-10.1781
-10.1881
-10.1978
-10.2072
-10.2163
-10.225
-10.2334
-10.2414
-10.0113
-10.0112
-10.0079
-10.0038
-10.0006
-9.99897
-9.99915
-10.0012
-10.005
-10.0104
-10.0172
-10.0251
-10.0339
-10.0434
-10.0535
-10.064
-10.0748
-10.0858
-10.0968
-10.1079
-10.1188
-10.1297
-10.1404
-10.1509
-10.1611
-10.1711
-10.1808
-10.1901
-10.1992
-10.2079
-10.2162
-10.2241
-10.2317
-10.0193
-10.019
-10.0134
-10.0064
-10.001
-9.99763
-9.99647
-9.99758
-10.0008
-10.0057
-10.0122
-10.0198
-10.0285
-10.0379
-10.0479
-10.0583
-10.069
-10.0799
-10.0908
-10.1017
-10.1125
-10.1232
-10.1337
-10.1439
-10.1539
-10.1636
-10.173
-10.1821
-10.1908
-10.1991
-10.2071
-10.2147
-10.2219
-10.0303
-10.0291
-10.0196
-10.0087
-10.0003
-9.99475
-9.99206
-9.99219
-9.99475
-9.99933
-10.0056
-10.0131
-10.0217
-10.0311
-10.0411
-10.0515
-10.0622
-10.073
-10.0838
-10.0946
-10.1053
-10.1159
-10.1262
-10.1363
-10.1461
-10.1556
-10.1647
-10.1735
-10.182
-10.19
-10.1977
-10.205
-10.2119
-10.0468
-10.0431
-10.0268
-10.0101
-9.99799
-9.98977
-9.98537
-9.98451
-9.98654
-9.99084
-9.99698
-10.0045
-10.0132
-10.0227
-10.0328
-10.0432
-10.0539
-10.0648
-10.0756
-10.0864
-10.0971
-10.1076
-10.1179
-10.1278
-10.1375
-10.1468
-10.1558
-10.1644
-10.1727
-10.1805
-10.188
-10.195
-10.2016
-10.0749
-10.0638
-10.0342
-10.0091
-9.99243
-9.98123
-9.97514
-9.97353
-9.97524
-9.97946
-9.98567
-9.9934
-10.0023
-10.0119
-10.0222
-10.0328
-10.0437
-10.0547
-10.0657
-10.0765
-10.0873
-10.0978
-10.1081
-10.118
-10.1277
-10.137
-10.1459
-10.1544
-10.1626
-10.1703
-10.1776
-10.1845
-10.191
-10.127
-10.0988
-10.0451
-10.0063
-9.98221
-9.96656
-9.95864
-9.95668
-9.95861
-9.96335
-9.97029
-9.97881
-9.98843
-9.99883
-10.0097
-10.0209
-10.0323
-10.0437
-10.055
-10.0662
-10.0771
-10.0878
-10.0982
-10.1082
-10.1179
-10.1272
-10.1361
-10.1445
-10.1526
-10.1602
-10.1674
-10.1741
-10.1804
-10.2062
-10.1434
-10.0613
-10.0106
-9.97421
-9.94815
-9.9349
-9.93024
-9.9304
-9.93422
-9.94105
-9.95002
-9.96044
-9.97184
-9.98389
-9.99633
-10.0089
-10.0216
-10.0341
-10.0464
-10.0584
-10.0701
-10.0814
-10.0923
-10.1028
-10.1128
-10.1223
-10.1314
-10.1399
-10.148
-10.1556
-10.1627
-10.1693
-10.3505
-10.1173
-9.99191
-9.98485
-9.975
-9.96078
-9.9573
-9.95899
-9.96128
-9.9646
-9.96959
-9.97595
-9.98332
-9.99154
-10.0005
-10.0099
-10.0197
-10.0298
-10.04
-10.0502
-10.0603
-10.0703
-10.0801
-10.0896
-10.0988
-10.1078
-10.1163
-10.1245
-10.1324
-10.1398
-10.1468
-10.1534
-10.1596
-11.2994
-10.066
-9.47474
-9.40205
-9.42115
-9.46231
-9.52039
-9.57959
-9.63393
-9.68407
-9.73033
-9.77236
-9.81026
-9.84452
-9.87562
-9.90393
-9.92975
-9.95339
-9.97509
-9.99508
-10.0135
-10.0306
-10.0464
-10.0611
-10.0747
-10.0874
-10.0992
-10.1101
-10.1202
-10.1295
-10.1382
-10.1461
-10.1532
-15.0652
-12.8547
-11.8417
-11.2221
-10.8044
-10.5564
-10.3936
-10.2699
-10.1779
-10.1142
-10.0717
-10.0436
-10.0257
-10.0157
-10.0116
-10.0116
-10.0148
-10.0201
-10.027
-10.035
-10.0437
-10.0529
-10.0622
-10.0717
-10.081
-10.0901
-10.099
-10.1076
-10.1159
-10.1238
-10.1312
-10.1384
-10.1451
-1.20534
-5.29219
-7.40397
-8.16714
-8.59848
-8.95909
-9.22715
-9.40622
-9.53274
-9.63108
-9.70931
-9.77119
-9.82088
-9.86199
-9.89683
-9.92682
-9.95299
-9.97613
-9.99684
-10.0155
-10.0326
-10.0482
-10.0625
-10.0758
-10.088
-10.0994
-10.1099
-10.1197
-10.1287
-10.1371
-10.1448
-10.1519
-10.1583
-10.3006
-10.052
-10.358
-10.6502
-10.7707
-10.8106
-10.8296
-10.8389
-10.8441
-10.8538
-10.8743
-10.9075
-10.9521
-11.0062
-11.0671
-11.1321
-11.1985
-11.264
-11.3265
-11.3841
-11.4357
-11.4798
-11.5153
-11.5415
-11.5579
-11.5641
-11.5599
-11.5455
-11.5211
-11.4867
-11.4426
-11.3889
-11.3259
-11.2534
-11.1713
-11.0793
-10.9771
-10.8643
-10.7406
-10.6055
-10.459
-10.3007
-10.1306
-9.94894
-9.75567
-9.55107
-9.33543
-9.10908
-8.8723
-8.62546
-8.36905
-8.10357
-7.82964
-7.54806
-7.25976
-6.9658
-6.66739
-6.36578
-6.06235
-5.75848
-5.45558
-5.15505
-4.85828
-4.56659
-4.28123
-4.00334
-3.73397
-3.47399
-3.22414
-2.985
-2.75696
-2.54031
-2.3352
-2.14165
-1.95961
-1.78891
-1.62931
-1.48051
-1.34204
-1.21352
-1.09449
-0.984414
-0.882747
-0.789024
-0.702713
-0.623336
-0.550423
-0.483514
-0.422164
-0.366103
-0.314787
-0.268196
-0.22522
-0.187192
-0.15048
-0.121366
-0.0860763
-0.0711685
-0.0220626
-0.047568
-10.3487
-10.3348
-10.5306
-10.6822
-10.7216
-10.7228
-10.7263
-10.7337
-10.745
-10.7651
-10.797
-10.8402
-10.8926
-10.9521
-11.0164
-11.0833
-11.1506
-11.2163
-11.2785
-11.3358
-11.387
-11.4308
-11.4662
-11.4922
-11.5086
-11.5147
-11.5107
-11.4965
-11.4723
-11.4381
-11.3943
-11.3409
-11.278
-11.2057
-11.1237
-11.0319
-10.9299
-10.8173
-10.6939
-10.5594
-10.4133
-10.2557
-10.0866
-9.90589
-9.71379
-9.51051
-9.29633
-9.07156
-8.8365
-8.59153
-8.33712
-8.07379
-7.80216
-7.52303
-7.23731
-6.94604
-6.65038
-6.35158
-6.05097
-5.74989
-5.44972
-5.15182
-4.85756
-4.56822
-4.28504
-4.00915
-3.74155
-3.48314
-3.23463
-2.99661
-2.76948
-2.55354
-2.34894
-2.15573
-1.97386
-1.80318
-1.64347
-1.49443
-1.35562
-1.22667
-1.10716
-0.996523
-0.894267
-0.799927
-0.712984
-0.632963
-0.559398
-0.491836
-0.429835
-0.373117
-0.321132
-0.273878
-0.230205
-0.191549
-0.154044
-0.124507
-0.0879623
-0.0738846
-0.0210135
-0.0542139
-10.3596
-10.3678
-10.4548
-10.5648
-10.6328
-10.6714
-10.7011
-10.7245
-10.7427
-10.7619
-10.7873
-10.8211
-10.8635
-10.914
-10.9713
-11.0331
-11.097
-11.1607
-11.2221
-11.2791
-11.3301
-11.3738
-11.4092
-11.4354
-11.452
-11.4585
-11.4549
-11.4412
-11.4176
-11.3839
-11.3405
-11.2875
-11.2251
-11.1531
-11.0714
-10.9799
-10.8782
-10.7661
-10.6433
-10.5093
-10.3641
-10.2074
-10.0393
-9.85988
-9.66917
-9.46742
-9.25489
-9.0319
-8.79875
-8.55583
-8.30361
-8.04262
-7.77348
-7.49698
-7.21401
-6.92559
-6.63284
-6.337
-6.03933
-5.74116
-5.44382
-5.14867
-4.85701
-4.57011
-4.28919
-4.01536
-3.74961
-3.49282
-3.2457
-3.00885
-2.78267
-2.56747
-2.36342
-2.17056
-1.98889
-1.81823
-1.6584
-1.50912
-1.36995
-1.24056
-1.12052
-1.0093
-0.906425
-0.811431
-0.723814
-0.643108
-0.568845
-0.500587
-0.437894
-0.380472
-0.327771
-0.279804
-0.2354
-0.196062
-0.157747
-0.127712
-0.0899517
-0.0765294
-0.0201164
-0.0605228
-10.3642
-10.3866
-10.4554
-10.5564
-10.629
-10.6672
-10.691
-10.7097
-10.7264
-10.7457
-10.7715
-10.8054
-10.8471
-10.8956
-10.9493
-11.0063
-11.0646
-11.1222
-11.1778
-11.2299
-11.2767
-11.3173
-11.3504
-11.3754
-11.3913
-11.3978
-11.3945
-11.3811
-11.3579
-11.3248
-11.2819
-11.2295
-11.1676
-11.0961
-11.0149
-10.9238
-10.8227
-10.7111
-10.5889
-10.4558
-10.3115
-10.1559
-9.98914
-9.81111
-9.62198
-9.42193
-9.21123
-8.99018
-8.7591
-8.51838
-8.2685
-8.00999
-7.74349
-7.46975
-7.18967
-6.90422
-6.61452
-6.32175
-6.02714
-5.73199
-5.43761
-5.14529
-4.85634
-4.57199
-4.29343
-4.02175
-3.75793
-3.50284
-3.25719
-3.02157
-2.7964
-2.58199
-2.37852
-2.18606
-2.0046
-1.83398
-1.67405
-1.52452
-1.38499
-1.25515
-1.13456
-1.02273
-0.919206
-0.823524
-0.735195
-0.653762
-0.578756
-0.509761
-0.446333
-0.388158
-0.334692
-0.285964
-0.240793
-0.200724
-0.161569
-0.130977
-0.0920141
-0.0791256
-0.0193063
-0.0665201
-10.3703
-10.4013
-10.4592
-10.5375
-10.5985
-10.6351
-10.6615
-10.6851
-10.7074
-10.7309
-10.7587
-10.7923
-10.832
-10.8772
-10.9268
-10.9794
-11.0333
-11.0867
-11.1382
-11.1862
-11.2294
-11.2666
-11.2968
-11.3192
-11.3331
-11.3382
-11.3339
-11.32
-11.2965
-11.2635
-11.221
-11.1689
-11.1073
-11.0361
-10.9553
-10.8647
-10.764
-10.6531
-10.5316
-10.3993
-10.2561
-10.1018
-9.93634
-9.75985
-9.57239
-9.37416
-9.16539
-8.9464
-8.71751
-8.47911
-8.23168
-7.97577
-7.712
-7.44114
-7.16404
-6.88169
-6.59513
-6.30553
-6.0141
-5.72208
-5.43075
-5.14139
-4.85526
-4.57357
-4.29748
-4.02807
-3.76629
-3.513
-3.26891
-3.03461
-2.81052
-2.59697
-2.39414
-2.20213
-2.02092
-1.85038
-1.69037
-1.54059
-1.40072
-1.27043
-1.14926
-1.03681
-0.93262
-0.836224
-0.747149
-0.664953
-0.589164
-0.519394
-0.455183
-0.396209
-0.341931
-0.292397
-0.246426
-0.205571
-0.165551
-0.134338
-0.094194
-0.0816962
-0.0186554
-0.0721611
-10.3754
-10.4088
-10.4581
-10.5209
-10.5756
-10.6143
-10.644
-10.6701
-10.6942
-10.7187
-10.7462
-10.7786
-10.816
-10.8582
-10.9043
-10.9529
-11.0025
-11.0517
-11.099
-11.1431
-11.1827
-11.2166
-11.244
-11.264
-11.276
-11.2794
-11.2739
-11.2592
-11.2351
-11.2018
-11.1591
-11.107
-11.0454
-10.9744
-10.8938
-10.8034
-10.7032
-10.5928
-10.472
-10.3406
-10.1984
-10.0453
-9.88122
-9.70628
-9.52054
-9.32415
-9.11738
-8.9005
-8.67386
-8.43785
-8.19295
-7.93972
-7.67878
-7.41088
-7.13687
-6.85769
-6.57438
-6.28806
-5.9999
-5.71113
-5.42298
-5.1367
-4.85351
-4.57461
-4.30112
-4.03408
-3.77446
-3.52309
-3.28068
-3.04779
-2.82488
-2.61228
-2.41017
-2.21867
-2.03776
-1.86735
-1.70727
-1.55726
-1.41708
-1.28634
-1.1646
-1.05153
-0.946659
-0.849527
-0.75968
-0.676688
-0.600081
-0.529496
-0.464457
-0.404645
-0.34951
-0.299135
-0.252324
-0.210627
-0.169717
-0.137817
-0.0965204
-0.0842421
-0.0182155
-0.0773747
-10.379
-10.4123
-10.456
-10.5087
-10.5577
-10.5958
-10.6263
-10.6533
-10.6787
-10.7043
-10.7323
-10.764
-10.7998
-10.8395
-10.8823
-10.9271
-10.9727
-11.0177
-11.0609
-11.101
-11.1368
-11.1674
-11.1918
-11.2092
-11.219
-11.2206
-11.2137
-11.1979
-11.1731
-11.1392
-11.0962
-11.0438
-10.9822
-10.9111
-10.8306
-10.7405
-10.6406
-10.5306
-10.4104
-10.2798
-10.1386
-9.98664
-9.82394
-9.65053
-9.46647
-9.27194
-9.06716
-8.85243
-8.62808
-8.39452
-8.15222
-7.90174
-7.64371
-7.37886
-7.10801
-6.8321
-6.55214
-6.2692
-5.98443
-5.69901
-5.41416
-5.13108
-4.85096
-4.57496
-4.30419
-4.03967
-3.78233
-3.53299
-3.29236
-3.061
-2.83938
-2.62781
-2.42651
-2.23558
-2.05501
-1.88477
-1.72467
-1.57449
-1.43401
-1.30284
-1.18056
-1.06686
-0.961302
-0.863419
-0.772779
-0.688965
-0.61151
-0.54007
-0.474164
-0.413477
-0.357447
-0.306194
-0.258497
-0.215913
-0.17409
-0.141433
-0.0990156
-0.0867639
-0.0180242
-0.0820923
-10.3812
-10.4136
-10.453
-10.4985
-10.5422
-10.5788
-10.6095
-10.6373
-10.6636
-10.69
-10.718
-10.7489
-10.783
-10.8202
-10.8599
-10.9012
-10.943
-10.9841
-11.0234
-11.0597
-11.092
-11.1192
-11.1406
-11.1553
-11.1627
-11.1624
-11.1538
-11.1367
-11.1109
-11.0762
-11.0326
-10.9798
-10.9179
-10.8467
-10.7662
-10.6762
-10.5765
-10.4669
-10.3472
-10.2173
-10.077
-9.92614
-9.76474
-9.5928
-9.41041
-9.21771
-9.01494
-8.80238
-8.58036
-8.34929
-8.10965
-7.86199
-7.60693
-7.34519
-7.0776
-6.80504
-6.5285
-6.24903
-5.96775
-5.68579
-5.40434
-5.12456
-4.84763
-4.57465
-4.30671
-4.04481
-3.78986
-3.54266
-3.30392
-3.07419
-2.85395
-2.64351
-2.44307
-2.25276
-2.07261
-1.90259
-1.74254
-1.59223
-1.45148
-1.3199
-1.1971
-1.08278
-0.976526
-0.877883
-0.786436
-0.701778
-0.62345
-0.551121
-0.484313
-0.422715
-0.365758
-0.313584
-0.264961
-0.221449
-0.178688
-0.145205
-0.101701
-0.089272
-0.0181164
-0.0862579
-10.3824
-10.4133
-10.4493
-10.4894
-10.5287
-10.5635
-10.5939
-10.6219
-10.6486
-10.6752
-10.703
-10.7329
-10.7654
-10.8003
-10.8371
-10.8751
-10.9133
-10.9507
-10.9863
-11.0189
-11.0477
-11.0717
-11.0901
-11.1021
-11.1072
-11.1048
-11.0945
-11.076
-11.049
-11.0133
-10.9689
-10.9156
-10.8532
-10.7818
-10.7011
-10.6111
-10.5115
-10.4021
-10.2829
-10.1536
-10.0141
-9.86433
-9.70416
-9.53365
-9.35288
-9.16199
-8.96122
-8.75083
-8.53116
-8.30261
-8.06567
-7.82087
-7.56883
-7.31027
-7.04598
-6.77684
-6.50379
-6.22786
-5.95013
-5.67172
-5.39374
-5.11736
-4.84368
-4.57381
-4.3088
-4.0496
-3.79713
-3.55216
-3.31539
-3.08739
-2.8686
-2.65932
-2.45981
-2.27021
-2.09055
-1.92082
-1.76085
-1.61045
-1.46945
-1.33748
-1.21418
-1.09926
-0.992305
-0.892899
-0.800635
-0.715117
-0.635896
-0.56265
-0.494909
-0.432367
-0.374455
-0.32132
-0.271737
-0.227253
-0.183534
-0.149148
-0.104599
-0.0917791
-0.0185291
-0.089827
-10.3825
-10.4119
-10.445
-10.4809
-10.5166
-10.5494
-10.5792
-10.6069
-10.6335
-10.66
-10.6873
-10.7162
-10.747
-10.7796
-10.8137
-10.8485
-10.8834
-10.9173
-10.9492
-10.9784
-11.0038
-11.0246
-11.04
-11.0494
-11.0521
-11.0476
-11.0356
-11.0155
-10.9873
-10.9506
-10.9053
-10.8513
-10.7885
-10.7167
-10.6357
-10.5456
-10.446
-10.3369
-10.2181
-10.0894
-9.95064
-9.80179
-9.64279
-9.47366
-9.29447
-9.10537
-8.90657
-8.69835
-8.48104
-8.25503
-8.0208
-7.7789
-7.52992
-7.27456
-7.01361
-6.74791
-6.4784
-6.20605
-5.93192
-5.65709
-5.38265
-5.1097
-4.83935
-4.57265
-4.31061
-4.05419
-3.80426
-3.5616
-3.32687
-3.10064
-2.88333
-2.6753
-2.47679
-2.28796
-2.10884
-1.93942
-1.77958
-1.62913
-1.4879
-1.35557
-1.23179
-1.11627
-1.00862
-0.908453
-0.815364
-0.728973
-0.648843
-0.574656
-0.505954
-0.442439
-0.383546
-0.329413
-0.278839
-0.233341
-0.188645
-0.153277
-0.107725
-0.0942915
-0.0192926
-0.0927655
-10.3816
-10.4095
-10.4402
-10.4728
-10.5054
-10.5363
-10.565
-10.5921
-10.6184
-10.6445
-10.6711
-10.6988
-10.7279
-10.7583
-10.7897
-10.8216
-10.8532
-10.8837
-10.9122
-10.938
-10.9601
-10.9778
-10.9904
-10.9971
-10.9974
-10.9909
-10.977
-10.9554
-10.9258
-10.888
-10.8419
-10.7871
-10.7237
-10.6515
-10.5703
-10.48
-10.3805
-10.2716
-10.1531
-10.0249
-9.88685
-9.73893
-9.58107
-9.41328
-9.23565
-9.04832
-8.85149
-8.64543
-8.43047
-8.20702
-7.97552
-7.73652
-7.49061
-7.23848
-6.98088
-6.71865
-6.45269
-6.18395
-5.91344
-5.64221
-5.37133
-5.10186
-4.83486
-4.57136
-4.31235
-4.05875
-3.81141
-3.57109
-3.33844
-3.11401
-2.89825
-2.69152
-2.49407
-2.30604
-2.1275
-1.95843
-1.79874
-1.64826
-1.50683
-1.37415
-1.24991
-1.13379
-1.02547
-0.924531
-0.830613
-0.743337
-0.662284
-0.587136
-0.51745
-0.452935
-0.393035
-0.337872
-0.286278
-0.239727
-0.194037
-0.157609
-0.111096
-0.096818
-0.020425
-0.0950465
-10.3798
-10.4063
-10.4347
-10.4647
-10.4947
-10.5237
-10.5512
-10.5776
-10.6032
-10.6285
-10.6542
-10.6807
-10.7081
-10.7363
-10.7652
-10.7942
-10.8226
-10.8499
-10.8752
-10.8977
-10.9166
-10.9313
-10.941
-10.9451
-10.9431
-10.9344
-10.9187
-10.8955
-10.8646
-10.8256
-10.7785
-10.723
-10.659
-10.5863
-10.5049
-10.4144
-10.3149
-10.2061
-10.088
-9.96031
-9.82301
-9.676
-9.51926
-9.35281
-9.17673
-8.99115
-8.79628
-8.59239
-8.3798
-8.1589
-7.93014
-7.69406
-7.45123
-7.20234
-6.94811
-6.68935
-6.42694
-6.16181
-5.89494
-5.62733
-5.36002
-5.09404
-4.83041
-4.57014
-4.31417
-4.06341
-3.81869
-3.58073
-3.35019
-3.12761
-2.91345
-2.70806
-2.51169
-2.32449
-2.14655
-1.97786
-1.81835
-1.66787
-1.52625
-1.39324
-1.26853
-1.15184
-1.04283
-0.941129
-0.846374
-0.758204
-0.676215
-0.600089
-0.529398
-0.463858
-0.402927
-0.346706
-0.294064
-0.246423
-0.199719
-0.162158
-0.114726
-0.0993677
-0.0219357
-0.0966572
-10.3772
-10.4022
-10.4288
-10.4564
-10.4843
-10.5115
-10.5377
-10.563
-10.5877
-10.6122
-10.6368
-10.6619
-10.6875
-10.7137
-10.74
-10.7663
-10.7918
-10.8159
-10.838
-10.8574
-10.8732
-10.885
-10.8919
-10.8935
-10.8891
-10.8783
-10.8607
-10.8359
-10.8036
-10.7635
-10.7154
-10.6591
-10.5945
-10.5213
-10.4395
-10.3489
-10.2494
-10.1408
-10.023
-9.89585
-9.75926
-9.61317
-9.45755
-9.29244
-9.1179
-8.93409
-8.74119
-8.53947
-8.32925
-8.11091
-7.88491
-7.65175
-7.41202
-7.16636
-6.91551
-6.66023
-6.40138
-6.13987
-5.87663
-5.61264
-5.3489
-5.08642
-4.82617
-4.56913
-4.31621
-4.06831
-3.82621
-3.59064
-3.36223
-3.14153
-2.929
-2.72496
-2.52969
-2.34336
-2.16603
-1.99775
-1.83843
-1.68796
-1.54618
-1.41284
-1.28768
-1.17041
-1.06071
-0.958244
-0.862647
-0.773572
-0.690632
-0.613513
-0.541798
-0.47521
-0.413226
-0.355918
-0.302205
-0.253438
-0.205702
-0.166938
-0.118623
-0.101951
-0.0238263
-0.0975964
-10.3736
-10.3973
-10.4222
-10.4479
-10.4738
-10.4993
-10.5242
-10.5483
-10.572
-10.5954
-10.6188
-10.6424
-10.6663
-10.6904
-10.7144
-10.7379
-10.7606
-10.7817
-10.8008
-10.8171
-10.83
-10.8389
-10.8431
-10.8422
-10.8355
-10.8226
-10.8031
-10.7767
-10.7429
-10.7016
-10.6525
-10.5954
-10.5301
-10.4565
-10.3744
-10.2837
-10.1842
-10.0757
-9.95827
-9.83164
-9.69578
-9.55061
-9.39612
-9.23234
-9.05936
-8.87731
-8.68639
-8.48686
-8.27902
-8.06326
-7.84002
-7.6098
-7.37316
-7.13075
-6.88327
-6.63147
-6.37618
-6.11828
-5.85866
-5.59829
-5.33813
-5.07912
-4.82225
-4.56844
-4.31859
-4.07354
-3.83407
-3.6009
-3.37465
-3.15585
-2.94494
-2.74229
-2.54814
-2.36267
-2.18599
-2.01812
-1.85901
-1.70856
-1.56661
-1.43296
-1.30735
-1.1895
-1.07912
-0.975875
-0.879428
-0.789439
-0.705536
-0.627406
-0.554651
-0.486994
-0.423934
-0.365514
-0.310706
-0.260778
-0.211992
-0.171956
-0.122792
-0.104578
-0.026091
-0.0978794
-10.3692
-10.3916
-10.415
-10.4389
-10.4631
-10.487
-10.5105
-10.5335
-10.556
-10.5782
-10.6003
-10.6224
-10.6445
-10.6665
-10.6882
-10.7092
-10.7291
-10.7474
-10.7636
-10.7769
-10.787
-10.7931
-10.7947
-10.7913
-10.7823
-10.7674
-10.746
-10.718
-10.6828
-10.6403
-10.5901
-10.5322
-10.4663
-10.3922
-10.3097
-10.2188
-10.1193
-10.0111
-9.89395
-9.76786
-9.63272
-9.48848
-9.33513
-9.17271
-9.00129
-8.82102
-8.63208
-8.43474
-8.22929
-8.01612
-7.79565
-7.56837
-7.33484
-7.09567
-6.85156
-6.60323
-6.3515
-6.09719
-5.8412
-5.58443
-5.32782
-5.07229
-4.81879
-4.5682
-4.32139
-4.0792
-3.84237
-3.61161
-3.38751
-3.17061
-2.96135
-2.76007
-2.56705
-2.38247
-2.20644
-2.03899
-1.8801
-1.72967
-1.58757
-1.45361
-1.32754
-1.20912
-1.09805
-0.994023
-0.896717
-0.805801
-0.720922
-0.641767
-0.567953
-0.499207
-0.435049
-0.375494
-0.319568
-0.268447
-0.218591
-0.17722
-0.127231
-0.107259
-0.0287133
-0.0975333
-10.364
-10.3852
-10.4071
-10.4295
-10.4521
-10.4746
-10.4967
-10.5184
-10.5397
-10.5606
-10.5813
-10.6018
-10.6221
-10.6421
-10.6615
-10.6801
-10.6974
-10.713
-10.7263
-10.7369
-10.7442
-10.7477
-10.7467
-10.7409
-10.7297
-10.7128
-10.6896
-10.6599
-10.6233
-10.5795
-10.5284
-10.4696
-10.403
-10.3284
-10.2456
-10.1546
-10.0551
-9.94699
-9.83024
-9.7047
-9.5703
-9.427
-9.2748
-9.11374
-8.94389
-8.7654
-8.57846
-8.38332
-8.18027
-7.96968
-7.75198
-7.52765
-7.29722
-7.06129
-6.82054
-6.57568
-6.32748
-6.07676
-5.82436
-5.57118
-5.31811
-5.06604
-4.81588
-4.56849
-4.32473
-4.08538
-3.85119
-3.62282
-3.40088
-3.18588
-2.97826
-2.77837
-2.58648
-2.40279
-2.22741
-2.0604
-1.90172
-1.75132
-1.60907
-1.47479
-1.34827
-1.22926
-1.1175
-1.01268
-0.914508
-0.822656
-0.736785
-0.65659
-0.581701
-0.511847
-0.446571
-0.385856
-0.32879
-0.276444
-0.2255
-0.182733
-0.131937
-0.110002
-0.031669
-0.0966001
-10.3579
-10.378
-10.3987
-10.4197
-10.4408
-10.4618
-10.4826
-10.503
-10.523
-10.5426
-10.5619
-10.5808
-10.5993
-10.6173
-10.6345
-10.6507
-10.6655
-10.6785
-10.6892
-10.6972
-10.7018
-10.7027
-10.6993
-10.6912
-10.6778
-10.6589
-10.6339
-10.6025
-10.5645
-10.5196
-10.4674
-10.4077
-10.3405
-10.2654
-10.1823
-10.0911
-9.99162
-9.88374
-9.76736
-9.64238
-9.50873
-9.36639
-9.21535
-9.05565
-8.88738
-8.71068
-8.52574
-8.3328
-8.13215
-7.92415
-7.70922
-7.48782
-7.26049
-7.0278
-6.79039
-6.54898
-6.30429
-6.05713
-5.80832
-5.55869
-5.30913
-5.06049
-4.81366
-4.56945
-4.3287
-4.09218
-3.8606
-3.63461
-3.41481
-3.20171
-2.99572
-2.79722
-2.60646
-2.42366
-2.24893
-2.08234
-1.92389
-1.77351
-1.6311
-1.4965
-1.36952
-1.24992
-1.13746
-1.03185
-0.932795
-0.839993
-0.753117
-0.671867
-0.595886
-0.524906
-0.45849
-0.396594
-0.338367
-0.284767
-0.232711
-0.188493
-0.136898
-0.112814
-0.0349236
-0.0951303
-10.3512
-10.3702
-10.3896
-10.4093
-10.4291
-10.4488
-10.4682
-10.4873
-10.506
-10.5242
-10.542
-10.5593
-10.5761
-10.5921
-10.6072
-10.6212
-10.6336
-10.6441
-10.6523
-10.6577
-10.6598
-10.6583
-10.6525
-10.6421
-10.6267
-10.6058
-10.5791
-10.5462
-10.5068
-10.4606
-10.4074
-10.3469
-10.279
-10.2034
-10.12
-10.0287
-9.92921
-9.82154
-9.70554
-9.58113
-9.44825
-9.30687
-9.157
-8.99868
-8.832
-8.65709
-8.47415
-8.2834
-8.08515
-7.87974
-7.66758
-7.44911
-7.22485
-6.99537
-6.7613
-6.5233
-6.28211
-6.03848
-5.7932
-5.5471
-5.30101
-5.05578
-4.81223
-4.57117
-4.33341
-4.09968
-3.87069
-3.64706
-3.42938
-3.21815
-3.01379
-2.81665
-2.62702
-2.44509
-2.27101
-2.10484
-1.9466
-1.79624
-1.65367
-1.51875
-1.3913
-1.2711
-1.15793
-1.05151
-0.951564
-0.8578
-0.769905
-0.687584
-0.610495
-0.538371
-0.470796
-0.407698
-0.348287
-0.293405
-0.240216
-0.194496
-0.142101
-0.1157
-0.0384366
-0.0931859
-10.3438
-10.3618
-10.3801
-10.3985
-10.4171
-10.4354
-10.4536
-10.4713
-10.4887
-10.5055
-10.5218
-10.5376
-10.5526
-10.5667
-10.5798
-10.5916
-10.6017
-10.6099
-10.6157
-10.6186
-10.6184
-10.6145
-10.6065
-10.594
-10.5765
-10.5538
-10.5253
-10.4909
-10.4501
-10.4028
-10.3485
-10.2873
-10.2187
-10.1426
-10.0589
-9.96747
-9.86806
-9.76061
-9.64501
-9.52119
-9.38909
-9.24869
-9.1
-8.94306
-8.77797
-8.60486
-8.42392
-8.23537
-8.03952
-7.83668
-7.62726
-7.4117
-7.1905
-6.96422
-6.73344
-6.49884
-6.2611
-6.02096
-5.77919
-5.53657
-5.29391
-5.05203
-4.81172
-4.57378
-4.33896
-4.10799
-3.88154
-3.66025
-3.44466
-3.23527
-3.03251
-2.83672
-2.64819
-2.46713
-2.29367
-2.12791
-1.96987
-1.81951
-1.67677
-1.54152
-1.41359
-1.29278
-1.17889
-1.07165
-0.970799
-0.876059
-0.787129
-0.703723
-0.62551
-0.552225
-0.483471
-0.419151
-0.358534
-0.302346
-0.247998
-0.20073
-0.147522
-0.118661
-0.042159
-0.0908331
-10.3358
-10.3528
-10.37
-10.3874
-10.4046
-10.4218
-10.4386
-10.4551
-10.4711
-10.4866
-10.5014
-10.5156
-10.5289
-10.5412
-10.5524
-10.5621
-10.57
-10.5759
-10.5794
-10.5801
-10.5776
-10.5715
-10.5613
-10.5468
-10.5274
-10.5028
-10.4728
-10.4368
-10.3948
-10.3463
-10.2911
-10.229
-10.1598
-10.0833
-9.99934
-9.90775
-9.80841
-9.7012