/*--------------------------------*- C++ -*----------------------------------*\
  =========                 |
  \\      /  F ield         | OpenFOAM: The Open Source CFD Toolbox
   \\    /   O peration     | Website:  https://openfoam.org
    \\  /    A nd           | Version:  10
     \\/     M anipulation  |
\*---------------------------------------------------------------------------*/
FoamFile
{
    format      ascii;
    class       surfaceScalarField;
    location    "700";
    object      phi;
}
// * * * * * * * * * * * * * * * * * * * * * * * * * * * * * * * * * * * * * //

dimensions      [0 3 -1 0 0 0 0];

internalField   nonuniform List<scalar> 
13452
(
6.29962e-05
-2.72775e-06
6.37618e-05
-7.65587e-07
6.45326e-05
-7.70763e-07
6.38573e-05
6.75246e-07
6.25159e-05
1.3414e-06
6.10811e-05
1.4348e-06
5.97496e-05
1.33153e-06
5.85559e-05
1.19368e-06
5.74951e-05
1.06082e-06
5.65539e-05
9.41117e-07
5.57169e-05
8.37058e-07
5.49684e-05
7.48481e-07
5.4295e-05
6.73443e-07
5.36856e-05
6.09415e-07
5.31313e-05
5.54294e-07
5.26248e-05
5.06486e-07
5.216e-05
4.64724e-07
5.17321e-05
4.27987e-07
5.13366e-05
3.95462e-07
5.09701e-05
3.66507e-07
5.06295e-05
3.40614e-07
5.03121e-05
3.17378e-07
5.00156e-05
2.96478e-07
4.97379e-05
2.77671e-07
4.94772e-05
2.60778e-07
4.92315e-05
2.45698e-07
4.8999e-05
2.32428e-07
4.8778e-05
2.21075e-07
4.85658e-05
2.12142e-07
4.83598e-05
2.06058e-07
4.81527e-05
2.07044e-07
4.79321e-05
2.20633e-07
2.73392e-07
4.76587e-05
6.28938e-05
-3.63117e-06
6.27373e-05
-6.09084e-07
6.21167e-05
-1.50194e-07
6.23911e-05
4.00798e-07
6.28731e-05
8.59478e-07
6.3266e-05
1.04185e-06
6.35105e-05
1.08707e-06
6.36212e-05
1.08294e-06
6.36285e-05
1.05349e-06
6.35616e-05
1.00808e-06
6.34433e-05
9.55344e-07
6.32904e-05
9.01397e-07
6.31147e-05
8.49116e-07
6.29245e-05
7.99584e-07
6.27257e-05
7.53159e-07
6.25222e-05
7.09948e-07
6.2317e-05
6.6988e-07
6.21123e-05
6.32772e-07
6.19093e-05
5.98404e-07
6.17093e-05
5.66561e-07
6.15128e-05
5.37045e-07
6.13205e-05
5.09678e-07
6.11327e-05
4.84312e-07
6.09495e-05
4.60832e-07
6.07711e-05
4.39168e-07
6.05975e-05
4.19303e-07
6.04286e-05
4.01322e-07
6.02643e-05
3.8538e-07
6.01044e-05
3.72102e-07
5.99486e-05
3.61862e-07
5.97966e-05
3.59046e-07
5.96559e-05
3.61256e-07
3.88492e-07
5.95408e-05
6.23344e-05
-2.2042e-06
6.26284e-05
-9.03039e-07
6.27866e-05
-3.08371e-07
6.3096e-05
9.14087e-08
6.34472e-05
5.08266e-07
6.37492e-05
7.3981e-07
6.39952e-05
8.41041e-07
6.41901e-05
8.88046e-07
6.43383e-05
9.05311e-07
6.44461e-05
9.00301e-07
6.45205e-05
8.80907e-07
6.45679e-05
8.53971e-07
6.45936e-05
8.23443e-07
6.46019e-05
7.91349e-07
6.45961e-05
7.58892e-07
6.45792e-05
7.26872e-07
6.45533e-05
6.95773e-07
6.45202e-05
6.65851e-07
6.44814e-05
6.37233e-07
6.4438e-05
6.09978e-07
6.43909e-05
5.84108e-07
6.4341e-05
5.59621e-07
6.42888e-05
5.36516e-07
6.42348e-05
5.14797e-07
6.41795e-05
4.945e-07
6.41231e-05
4.75696e-07
6.40658e-05
4.58549e-07
6.40079e-05
4.43288e-07
6.39495e-05
4.30505e-07
6.38907e-05
4.20661e-07
6.38335e-05
4.16239e-07
6.37797e-05
4.15059e-07
4.23696e-07
6.37445e-05
6.47916e-05
-1.41269e-06
6.47391e-05
-8.50608e-07
6.47873e-05
-3.56571e-07
6.48995e-05
-2.07452e-08
6.50725e-05
3.35246e-07
6.52455e-05
5.668e-07
6.54027e-05
6.83802e-07
6.55432e-05
7.47605e-07
6.56658e-05
7.82652e-07
6.57707e-05
7.95466e-07
6.5859e-05
7.9262e-07
6.59325e-05
7.80408e-07
6.59932e-05
7.62735e-07
6.60428e-05
7.41746e-07
6.60829e-05
7.18826e-07
6.61148e-05
6.9497e-07
6.61397e-05
6.70848e-07
6.61587e-05
6.46888e-07
6.61726e-05
6.23371e-07
6.61821e-05
6.00484e-07
6.61878e-05
5.78361e-07
6.61903e-05
5.57097e-07
6.61901e-05
5.36771e-07
6.61874e-05
5.17461e-07
6.61826e-05
4.99259e-07
6.6176e-05
4.8229e-07
6.61679e-05
4.66744e-07
6.61583e-05
4.5287e-07
6.61476e-05
4.41138e-07
6.61364e-05
4.31932e-07
6.61262e-05
4.26441e-07
6.61179e-05
4.23288e-07
4.24743e-07
6.61169e-05
6.70182e-05
-9.7412e-07
6.6871e-05
-7.03379e-07
6.68449e-05
-3.30459e-07
6.68728e-05
-4.8648e-08
6.69616e-05
2.46377e-07
6.70706e-05
4.57894e-07
6.71773e-05
5.77032e-07
6.72777e-05
6.47253e-07
6.73703e-05
6.90006e-07
6.74542e-05
7.11549e-07
6.75293e-05
7.17589e-07
6.75959e-05
7.13729e-07
6.7655e-05
7.03634e-07
6.77074e-05
6.89433e-07
6.77536e-05
6.72555e-07
6.77946e-05
6.54044e-07
6.78308e-05
6.34636e-07
6.78628e-05
6.1483e-07
6.78912e-05
5.94973e-07
6.79164e-05
5.75317e-07
6.79387e-05
5.56048e-07
6.79585e-05
5.37311e-07
6.7976e-05
5.19226e-07
6.79916e-05
5.01907e-07
6.80054e-05
4.85476e-07
6.80176e-05
4.70072e-07
6.80284e-05
4.55881e-07
6.80382e-05
4.43126e-07
6.80472e-05
4.32138e-07
6.8056e-05
4.23171e-07
6.80657e-05
4.16714e-07
6.8077e-05
4.11969e-07
4.09624e-07
6.80921e-05
6.9089e-05
-6.7908e-07
6.89436e-05
-5.57968e-07
6.89005e-05
-2.87406e-07
6.89039e-05
-5.20394e-08
6.89554e-05
1.94895e-07
6.90297e-05
3.83618e-07
6.91069e-05
4.99835e-07
6.91817e-05
5.72417e-07
6.9253e-05
6.1874e-07
6.93196e-05
6.44932e-07
6.9381e-05
6.56167e-07
6.94373e-05
6.57401e-07
6.94889e-05
6.52032e-07
6.95362e-05
6.42151e-07
6.95796e-05
6.29194e-07
6.96194e-05
6.14219e-07
6.96561e-05
5.97984e-07
6.96899e-05
5.81021e-07
6.97211e-05
5.63712e-07
6.97501e-05
5.4634e-07
6.9777e-05
5.2912e-07
6.98021e-05
5.12223e-07
6.98256e-05
4.95788e-07
6.98475e-05
4.79947e-07
6.98682e-05
4.64826e-07
6.98877e-05
4.50565e-07
6.99062e-05
4.37323e-07
6.99241e-05
4.25275e-07
6.99416e-05
4.1463e-07
6.99592e-05
4.05518e-07
6.99779e-05
3.98072e-07
6.99981e-05
3.91788e-07
3.86682e-07
7.0021e-05
7.11537e-05
-4.66416e-07
7.10277e-05
-4.31958e-07
7.09799e-05
-2.39641e-07
7.09726e-05
-4.47073e-08
7.10041e-05
1.63324e-07
7.10576e-05
3.30187e-07
7.11166e-05
4.4075e-07
7.11758e-05
5.1329e-07
7.12334e-05
5.61091e-07
7.12885e-05
5.89897e-07
7.13402e-05
6.0443e-07
7.13885e-05
6.09063e-07
7.14336e-05
6.06915e-07
7.14758e-05
6.00019e-07
7.15152e-05
5.89801e-07
7.15521e-05
5.77316e-07
7.15867e-05
5.63332e-07
7.16194e-05
5.48399e-07
7.16501e-05
5.32921e-07
7.16793e-05
5.17199e-07
7.17069e-05
5.01467e-07
7.17332e-05
4.85907e-07
7.17584e-05
4.70671e-07
7.17824e-05
4.55893e-07
7.18055e-05
4.41699e-07
7.18279e-05
4.28212e-07
7.18497e-05
4.1556e-07
7.18711e-05
4.03865e-07
7.18925e-05
3.93241e-07
7.19143e-05
3.83718e-07
7.19371e-05
3.75259e-07
7.19614e-05
3.67484e-07
3.60136e-07
7.19879e-05
7.32523e-05
-3.13468e-07
7.31446e-05
-3.24191e-07
7.30947e-05
-1.89815e-07
7.30808e-05
-3.07254e-08
7.31e-05
1.44056e-07
7.31397e-05
2.90456e-07
7.31868e-05
3.93658e-07
7.32357e-05
4.64409e-07
7.32845e-05
5.12352e-07
7.33318e-05
5.42558e-07
7.3377e-05
5.59263e-07
7.34197e-05
5.66298e-07
7.34601e-05
5.66502e-07
7.34983e-05
5.6182e-07
7.35345e-05
5.53655e-07
7.35688e-05
5.43048e-07
7.36013e-05
5.30765e-07
7.36324e-05
5.17369e-07
7.3662e-05
5.03277e-07
7.36904e-05
4.88803e-07
7.37177e-05
4.7419e-07
7.37439e-05
4.5963e-07
7.37693e-05
4.45279e-07
7.3794e-05
4.3127e-07
7.38179e-05
4.17718e-07
7.38414e-05
4.04731e-07
7.38646e-05
3.92403e-07
7.38876e-05
3.80809e-07
7.39109e-05
3.6999e-07
7.39347e-05
3.59914e-07
7.39595e-05
3.50458e-07
7.39857e-05
3.413e-07
3.32087e-07
7.40137e-05
7.53941e-05
-2.05108e-07
7.53032e-05
-2.33293e-07
7.52537e-05
-1.40268e-07
7.52354e-05
-1.2426e-08
7.52461e-05
1.33282e-07
7.5276e-05
2.60594e-07
7.53143e-05
3.55332e-07
7.53558e-05
4.22928e-07
7.53982e-05
4.69976e-07
7.544e-05
5.00691e-07
7.54806e-05
5.18755e-07
7.55194e-05
5.27492e-07
7.55564e-05
5.29457e-07
7.55917e-05
5.26484e-07
7.56255e-05
5.19926e-07
7.56577e-05
5.10801e-07
7.56886e-05
4.99869e-07
7.57183e-05
4.87694e-07
7.57469e-05
4.747e-07
7.57745e-05
4.61212e-07
7.58012e-05
4.47476e-07
7.58271e-05
4.3369e-07
7.58524e-05
4.2001e-07
7.58771e-05
4.06563e-07
7.59013e-05
3.93457e-07
7.59253e-05
3.80778e-07
7.59491e-05
3.68592e-07
7.5973e-05
3.56936e-07
7.59972e-05
3.45805e-07
7.6022e-05
3.35125e-07
7.60477e-05
3.24738e-07
7.60746e-05
3.14358e-07
3.03624e-07
7.61031e-05
7.7584e-05
-1.29517e-07
7.75094e-05
-1.58667e-07
7.74625e-05
-9.34564e-08
7.74418e-05
8.287e-09
7.74464e-05
1.28688e-07
7.74687e-05
2.38306e-07
7.75001e-05
3.23914e-07
7.75358e-05
3.87286e-07
7.75732e-05
4.32567e-07
7.76108e-05
4.63039e-07
7.76478e-05
4.81793e-07
7.76836e-05
4.91669e-07
7.77181e-05
4.9493e-07
7.77514e-05
4.93277e-07
7.77833e-05
4.87997e-07
7.7814e-05
4.80069e-07
7.78436e-05
4.70237e-07
7.78723e-05
4.59061e-07
7.79e-05
4.46967e-07
7.79269e-05
4.34281e-07
7.79532e-05
4.21254e-07
7.79788e-05
4.08084e-07
7.80039e-05
3.94925e-07
7.80285e-05
3.81898e-07
7.80529e-05
3.691e-07
7.80771e-05
3.566e-07
7.81012e-05
3.44441e-07
7.81255e-05
3.32634e-07
7.81502e-05
3.21143e-07
7.81754e-05
3.09873e-07
7.82015e-05
2.9866e-07
7.82286e-05
2.87249e-07
2.75315e-07
7.82569e-05
7.98265e-05
-7.76566e-08
7.97671e-05
-9.93104e-08
7.97251e-05
-5.14301e-08
7.97038e-05
2.96077e-08
7.9704e-05
1.28449e-07
7.97204e-05
2.21922e-07
7.97462e-05
2.98138e-07
7.97769e-05
3.56505e-07
7.98102e-05
3.99286e-07
7.98444e-05
4.28861e-07
7.98785e-05
4.47722e-07
7.99119e-05
4.58242e-07
7.99444e-05
4.62398e-07
7.9976e-05
4.61737e-07
8.00065e-05
4.57459e-07
8.00361e-05
4.50497e-07
8.00647e-05
4.41567e-07
8.00926e-05
4.31217e-07
8.01197e-05
4.19871e-07
8.01461e-05
4.07851e-07
8.0172e-05
3.95408e-07
8.01973e-05
3.82739e-07
8.02222e-05
3.69992e-07
8.02468e-05
3.57285e-07
8.02712e-05
3.44701e-07
8.02955e-05
3.32298e-07
8.03199e-05
3.20102e-07
8.03444e-05
3.08103e-07
8.03693e-05
2.96253e-07
8.03947e-05
2.8445e-07
8.04209e-05
2.72537e-07
8.04478e-05
2.60297e-07
2.47456e-07
8.04757e-05
8.21255e-05
-4.27261e-08
8.20798e-05
-5.3591e-08
8.20439e-05
-1.55403e-08
8.20236e-05
4.98772e-08
8.20212e-05
1.30907e-07
8.20331e-05
2.10003e-07
8.20543e-05
2.76962e-07
8.20809e-05
3.29845e-07
8.21107e-05
3.69553e-07
8.21419e-05
3.97672e-07
8.21735e-05
4.16123e-07
8.22048e-05
4.26847e-07
8.22357e-05
4.31535e-07
8.22659e-05
4.31569e-07
8.22953e-05
4.2805e-07
8.23239e-05
4.2185e-07
8.23518e-05
4.13651e-07
8.23791e-05
4.03984e-07
8.24057e-05
3.93259e-07
8.24317e-05
3.81795e-07
8.24573e-05
3.69839e-07
8.24825e-05
3.57582e-07
8.25073e-05
3.45169e-07
8.25319e-05
3.32708e-07
8.25563e-05
3.20278e-07
8.25807e-05
3.07922e-07
8.26051e-05
2.95657e-07
8.26298e-05
2.83465e-07
8.26547e-05
2.71288e-07
8.26801e-05
2.59032e-07
8.27061e-05
2.46558e-07
8.27327e-05
2.33683e-07
2.20189e-07
8.276e-05
8.44847e-05
-1.96613e-08
8.44506e-05
-1.95e-08
8.44214e-05
1.36277e-08
8.44036e-05
6.77666e-08
8.43999e-05
1.34555e-07
8.44087e-05
2.01222e-07
8.44262e-05
2.59423e-07
8.44494e-05
3.0664e-07
8.44761e-05
3.42885e-07
8.45047e-05
3.69097e-07
8.45341e-05
3.86698e-07
8.45637e-05
3.97233e-07
8.45931e-05
4.02125e-07
8.46221e-05
4.0258e-07
8.46506e-05
3.99595e-07
8.46784e-05
3.93972e-07
8.47057e-05
3.86352e-07
8.47325e-05
3.77238e-07
8.47587e-05
3.67027e-07
8.47845e-05
3.56026e-07
8.48099e-05
3.44475e-07
8.48349e-05
3.32559e-07
8.48596e-05
3.20419e-07
8.48842e-05
3.08156e-07
8.49086e-05
2.95839e-07
8.4933e-05
2.83507e-07
8.49575e-05
2.71169e-07
8.49822e-05
2.58803e-07
8.50071e-05
2.46355e-07
8.50324e-05
2.33739e-07
8.50581e-05
2.20839e-07
8.50843e-05
2.07509e-07
1.93582e-07
8.51109e-05
8.69073e-05
-4.76504e-09
8.68827e-05
5.0653e-09
8.68602e-05
3.61552e-08
8.68455e-05
8.2403e-08
8.6842e-05
1.38133e-07
8.68488e-05
1.94369e-07
8.68636e-05
2.44592e-07
8.6884e-05
2.86239e-07
8.69081e-05
3.18817e-07
8.69344e-05
3.42801e-07
8.69619e-05
3.59195e-07
8.69899e-05
3.69206e-07
8.70181e-05
3.74005e-07
8.7046e-05
3.74634e-07
8.70736e-05
3.71975e-07
8.71008e-05
3.66758e-07
8.71276e-05
3.59574e-07
8.7154e-05
3.50896e-07
8.71799e-05
3.411e-07
8.72054e-05
3.3048e-07
8.72306e-05
3.19267e-07
8.72556e-05
3.07637e-07
8.72803e-05
2.95723e-07
8.73048e-05
2.83623e-07
8.73292e-05
2.71399e-07
8.73537e-05
2.59085e-07
8.73781e-05
2.46687e-07
8.74027e-05
2.34185e-07
8.74276e-05
2.21531e-07
8.74527e-05
2.08653e-07
8.7478e-05
1.95457e-07
8.75037e-05
1.81832e-07
1.67654e-07
8.75296e-05
8.93962e-05
4.59926e-09
8.93791e-05
2.2093e-08
8.93627e-05
5.26026e-08
8.93517e-05
9.33919e-08
8.93491e-05
1.40705e-07
8.93551e-05
1.88404e-07
8.93681e-05
2.316e-07
8.93863e-05
2.67994e-07
8.94083e-05
2.96885e-07
8.94326e-05
3.18446e-07
8.94584e-05
3.33371e-07
8.94851e-05
3.42584e-07
8.9512e-05
3.47038e-07
8.95391e-05
3.47618e-07
8.95659e-05
3.45097e-07
8.95926e-05
3.40128e-07
8.96189e-05
3.33249e-07
8.96449e-05
3.249e-07
8.96705e-05
3.15431e-07
8.96959e-05
3.0512e-07
8.9721e-05
2.94186e-07
8.97458e-05
2.82796e-07
8.97705e-05
2.71076e-07
8.9795e-05
2.59116e-07
8.98194e-05
2.46977e-07
8.98438e-05
2.34688e-07
8.98682e-05
2.22258e-07
8.98927e-05
2.09667e-07
8.99174e-05
1.96879e-07
8.99422e-05
1.83834e-07
8.99672e-05
1.70464e-07
8.99924e-05
1.56683e-07
1.42408e-07
9.00176e-05
9.19542e-05
1.0271e-08
9.19429e-05
3.33332e-08
9.19317e-05
6.38038e-08
9.19244e-05
1.00747e-07
9.19234e-05
1.41695e-07
9.19293e-05
1.82523e-07
9.19412e-05
2.19686e-07
9.19579e-05
2.51291e-07
9.19782e-05
2.76623e-07
9.20009e-05
2.95694e-07
9.20253e-05
3.08979e-07
9.20507e-05
3.17187e-07
9.20766e-05
3.2109e-07
9.21028e-05
3.21432e-07
9.2129e-05
3.18882e-07
9.21552e-05
3.14018e-07
9.21811e-05
3.07326e-07
9.22068e-05
2.99208e-07
9.22322e-05
2.89986e-07
9.22574e-05
2.79921e-07
9.22824e-05
2.69216e-07
9.23072e-05
2.58029e-07
9.23317e-05
2.46478e-07
9.23562e-05
2.34649e-07
9.23806e-05
2.22597e-07
9.24049e-05
2.10352e-07
9.24293e-05
1.97923e-07
9.24536e-05
1.85298e-07
9.24781e-05
1.72447e-07
9.25026e-05
1.5933e-07
9.25271e-05
1.45893e-07
9.25517e-05
1.32081e-07
1.17834e-07
9.25763e-05
9.45839e-05
1.351e-08
9.4577e-05
4.02489e-08
9.45701e-05
7.06943e-08
9.45661e-05
1.04775e-07
9.45669e-05
1.40856e-07
9.45733e-05
1.76184e-07
9.45847e-05
2.08252e-07
9.46004e-05
2.35596e-07
9.46194e-05
2.57597e-07
9.46409e-05
2.74208e-07
9.46641e-05
2.8577e-07
9.46885e-05
2.92833e-07
9.47135e-05
2.96027e-07
9.4739e-05
2.95975e-07
9.47646e-05
2.93253e-07
9.47903e-05
2.88371e-07
9.48158e-05
2.81762e-07
9.48412e-05
2.73787e-07
9.48665e-05
2.64742e-07
9.48915e-05
2.54867e-07
9.49164e-05
2.4435e-07
9.49411e-05
2.33339e-07
9.49656e-05
2.21942e-07
9.499e-05
2.10241e-07
9.50143e-05
1.98287e-07
9.50386e-05
1.86111e-07
9.50628e-05
1.73724e-07
9.5087e-05
1.6112e-07
9.51111e-05
1.48281e-07
9.51353e-05
1.35176e-07
9.51594e-05
1.21772e-07
9.51835e-05
1.08033e-07
9.39216e-08
9.52074e-05
9.72879e-05
1.51671e-08
9.72841e-05
4.40163e-08
9.72806e-05
7.41933e-08
9.72794e-05
1.05962e-07
9.72821e-05
1.38211e-07
9.72891e-05
1.69097e-07
9.73005e-05
1.96882e-07
9.73156e-05
2.20487e-07
9.73338e-05
2.39435e-07
9.73543e-05
2.53688e-07
9.73766e-05
2.6351e-07
9.74e-05
2.69346e-07
9.74244e-05
2.71717e-07
9.74492e-05
2.7115e-07
9.74743e-05
2.68142e-07
9.74995e-05
2.63137e-07
9.75248e-05
2.56519e-07
9.75499e-05
2.48612e-07
9.7575e-05
2.39684e-07
9.75999e-05
2.29953e-07
9.76247e-05
2.19591e-07
9.76493e-05
2.08734e-07
9.76737e-05
1.97484e-07
9.76981e-05
1.85914e-07
9.77223e-05
1.74076e-07
9.77464e-05
1.62e-07
9.77704e-05
1.49699e-07
9.77944e-05
1.37173e-07
9.78182e-05
1.24414e-07
9.7842e-05
1.11403e-07
9.78656e-05
9.81208e-08
9.78891e-05
8.45456e-08
7.06601e-08
9.79124e-05
0.000100068
1.58111e-08
0.000100067
4.55567e-08
0.000100066
7.51382e-08
0.000100067
1.04872e-07
0.000100071
1.33973e-07
0.000100079
1.61195e-07
0.000100091
1.8535e-07
0.000100106
2.0568e-07
0.000100123
2.21858e-07
0.000100143
2.33885e-07
0.000100164
2.41996e-07
0.000100187
2.46568e-07
0.000100211
2.48042e-07
0.000100235
2.46871e-07
0.00010026
2.43485e-07
0.000100285
2.38271e-07
0.00010031
2.31569e-07
0.000100335
2.23666e-07
0.000100359
2.14804e-07
0.000100384
2.05179e-07
0.000100409
1.94946e-07
0.000100433
1.8423e-07
0.000100458
1.73124e-07
0.000100482
1.61696e-07
0.000100506
1.49995e-07
0.00010053
1.38052e-07
0.000100554
1.25883e-07
0.000100577
1.13493e-07
0.000100601
1.00879e-07
0.000100624
8.80362e-08
0.000100648
7.49533e-08
0.00010067
6.16235e-08
4.80388e-08
0.000100693
0.000102928
1.58223e-08
0.000102928
4.55803e-08
0.000102929
7.42573e-08
0.000102932
1.02083e-07
0.000102937
1.28475e-07
0.000102946
1.52579e-07
0.000102958
1.73599e-07
0.000102972
1.91034e-07
0.000102989
2.04694e-07
0.000103009
2.14633e-07
0.00010303
2.21082e-07
0.000103052
2.24379e-07
0.000103075
2.24911e-07
0.000103099
2.23071e-07
0.000103123
2.19234e-07
0.000103147
2.13742e-07
0.000103172
2.06893e-07
0.000103197
1.98943e-07
0.000103222
1.90104e-07
0.000103246
1.80553e-07
0.000103271
1.7043e-07
0.000103295
1.59846e-07
0.000103319
1.48886e-07
0.000103343
1.37615e-07
0.000103367
1.26076e-07
0.000103391
1.14302e-07
0.000103415
1.02309e-07
0.000103438
9.01079e-08
0.000103461
7.77029e-08
0.000103484
6.50948e-08
0.000103507
5.22827e-08
0.000103529
3.92668e-08
2.60483e-08
0.000103551
0.000105869
1.54576e-08
0.00010587
4.46348e-08
0.000105872
7.21726e-08
0.000105876
9.81524e-08
0.000105882
1.22116e-07
0.000105892
1.43476e-07
0.000105903
1.61717e-07
0.000105918
1.76543e-07
0.000105935
1.87884e-07
0.000105953
1.95853e-07
0.000105974
2.00691e-07
0.000105996
2.02713e-07
0.000106018
2.0227e-07
0.000106042
1.9971e-07
0.000106065
1.95367e-07
0.00010609
1.89539e-07
0.000106114
1.8249e-07
0.000106138
1.74446e-07
0.000106163
1.65594e-07
0.000106187
1.56092e-07
0.000106212
1.46063e-07
0.000106236
1.35606e-07
0.00010626
1.248e-07
0.000106284
1.137e-07
0.000106308
1.0235e-07
0.000106331
9.07778e-08
0.000106355
7.9006e-08
0.000106378
6.70453e-08
0.0001064
5.49066e-08
0.000106423
4.25937e-08
0.000106445
3.01146e-08
0.000106467
1.74726e-08
4.67716e-09
0.000106488
0.000108894
1.48962e-08
0.000108895
4.31505e-08
0.000108898
6.94173e-08
0.000108903
9.36047e-08
0.00010891
1.15331e-07
0.000108919
1.34198e-07
0.000108931
1.49905e-07
0.000108945
1.6232e-07
0.000108961
1.71483e-07
0.00010898
1.77564e-07
0.000108999
1.80823e-07
0.000109021
1.81566e-07
0.000109043
1.80117e-07
0.000109066
1.76793e-07
0.000109089
1.7189e-07
0.000109113
1.65674e-07
0.000109137
1.58377e-07
0.000109161
1.50197e-07
0.000109186
1.413e-07
0.00010921
1.31822e-07
0.000109234
1.21873e-07
0.000109258
1.11541e-07
0.000109282
1.00892e-07
0.000109306
8.99801e-08
0.000109329
7.88423e-08
0.000109353
6.7508e-08
0.000109376
5.59967e-08
0.000109398
4.43247e-08
0.000109421
3.2502e-08
0.000109443
2.054e-08
0.000109464
8.44677e-09
0.000109486
-3.76701e-09
-1.6091e-08
0.000109506
0.000112005
1.42724e-08
0.000112007
4.14842e-08
0.00011201
6.64673e-08
0.000112014
8.89438e-08
0.000112021
1.08579e-07
0.00011203
1.25126e-07
0.000112042
1.38455e-07
0.000112055
1.48582e-07
0.000112071
1.55648e-07
0.000112089
1.5988e-07
0.000112108
1.61563e-07
0.000112129
1.61002e-07
0.00011215
1.58506e-07
0.000112173
1.54366e-07
0.000112196
1.48848e-07
0.000112219
1.42188e-07
0.000112243
1.34593e-07
0.000112267
1.26234e-07
0.000112291
1.17255e-07
0.000112315
1.07776e-07
0.000112339
9.78918e-08
0.000112363
8.76769e-08
0.000112387
7.71912e-08
0.00011241
6.64793e-08
0.000112433
5.55765e-08
0.000112456
4.45085e-08
0.000112479
3.32951e-08
0.000112502
2.1952e-08
0.000112524
1.04919e-08
0.000112545
-1.07314e-09
0.000112566
-1.27315e-08
0.000112587
-2.44717e-08
-3.62811e-08
0.000112607
0.000115205
1.36986e-08
0.000115207
3.99589e-08
0.000115209
6.37786e-08
0.000115214
8.46786e-08
0.00011522
1.0236e-07
0.000115228
1.16707e-07
0.000115239
1.2775e-07
0.000115252
1.35645e-07
0.000115267
1.40632e-07
0.000115284
1.43004e-07
0.000115302
1.43074e-07
0.000115322
1.41156e-07
0.000115343
1.37548e-07
0.000115365
1.3252e-07
0.000115387
1.26317e-07
0.00011541
1.19148e-07
0.000115434
1.11193e-07
0.000115457
1.02603e-07
0.000115481
9.35018e-08
0.000115505
8.39895e-08
0.000115529
7.41474e-08
0.000115552
6.40387e-08
0.000115576
5.37139e-08
0.000115599
4.32105e-08
0.000115622
3.25593e-08
0.000115645
2.17816e-08
0.000115667
1.08966e-08
0.000115689
-8.21959e-11
0.000115711
-1.11407e-08
0.000115732
-2.22677e-08
0.000115753
-3.34499e-08
0.000115773
-4.46762e-08
-5.59329e-08
0.000115793
0.000118496
1.32861e-08
0.000118497
3.89084e-08
0.000118499
6.1838e-08
0.000118503
8.1369e-08
0.000118508
9.72391e-08
0.000118515
1.09474e-07
0.000118524
1.18267e-07
0.000118536
1.23919e-07
0.00011855
1.26784e-07
0.000118566
1.27226e-07
0.000118583
1.25597e-07
0.000118602
1.22224e-07
0.000118622
1.17401e-07
0.000118643
1.11386e-07
0.000118665
1.04401e-07
0.000118688
9.66339e-08
0.000118711
8.8242e-08
0.000118734
7.93537e-08
0.000118758
7.00731e-08
0.000118781
6.04844e-08
0.000118805
5.06526e-08
0.000118828
4.06307e-08
0.000118851
3.04569e-08
0.000118874
2.01639e-08
0.000118897
9.77278e-09
0.000118919
-6.95885e-10
0.000118942
-1.12297e-08
0.000118963
-2.18138e-08
0.000118985
-3.24389e-08
0.000119005
-4.30916e-08
0.000119026
-5.37626e-08
0.000119046
-6.44388e-08
-7.51102e-08
0.000119065
0.000121881
1.31658e-08
0.000121882
3.87299e-08
0.000121882
6.12292e-08
0.000121884
7.96897e-08
0.000121887
9.39093e-08
0.000121893
1.04085e-07
0.0001219
1.106e-07
0.00012191
1.13926e-07
0.000121922
1.14548e-07
0.000121937
1.12916e-07
0.000121953
1.09433e-07
0.000121971
1.04447e-07
0.00012199
9.82557e-08
0.00012201
9.11071e-08
0.000122031
8.32065e-08
0.000122053
7.47215e-08
0.000122076
6.57871e-08
0.000122099
5.65103e-08
0.000122122
4.69769e-08
0.000122145
3.72518e-08
0.000122168
2.73869e-08
0.000122191
1.74194e-08
0.000122214
7.37974e-09
0.000122237
-2.71222e-09
0.00012226
-1.28389e-08
0.000122282
-2.29893e-08
0.000122304
-3.3152e-08
0.000122326
-4.33193e-08
0.000122347
-5.34814e-08
0.000122367
-6.36309e-08
0.000122387
-7.37572e-08
0.000122407
-8.38526e-08
-9.39066e-08
0.000122425
0.000125363
1.35174e-08
0.000125362
3.99622e-08
0.00012536
6.27309e-08
0.00012536
8.05267e-08
0.00012536
9.32673e-08
0.000125363
1.01385e-07
0.000125368
1.05506e-07
0.000125376
1.06318e-07
0.000125386
1.04467e-07
0.000125398
1.00514e-07
0.000125413
9.49261e-08
0.000125429
8.80857e-08
0.000125447
8.02994e-08
0.000125466
7.18103e-08
0.000125487
6.28089e-08
0.000125508
5.34431e-08
0.00012553
4.3826e-08
0.000125552
3.40439e-08
0.000125575
2.41604e-08
0.000125598
1.4223e-08
0.000125621
4.26543e-09
0.000125644
-5.68868e-09
0.000125667
-1.56232e-08
0.00012569
-2.55274e-08
0.000125713
-3.53942e-08
0.000125735
-4.52188e-08
0.000125757
-5.49973e-08
0.000125778
-6.4726e-08
0.000125799
-7.44011e-08
0.00012582
-8.40175e-08
0.000125839
-9.35698e-08
0.000125859
-1.03052e-07
-1.12458e-07
0.000125877
0.000128944
1.46176e-08
0.000128941
4.34084e-08
0.000128936
6.74664e-08
0.000128931
8.51188e-08
0.000128928
9.65306e-08
0.000128927
1.02485e-07
0.000128928
1.03944e-07
0.000128933
1.01884e-07
0.00012894
9.71659e-08
0.00012895
9.04912e-08
0.000128963
8.2414e-08
0.000128977
7.33618e-08
0.000128994
6.36581e-08
0.000129012
5.35429e-08
0.000129032
4.31923e-08
0.000129053
3.27337e-08
0.000129074
2.22558e-08
0.000129096
1.18213e-08
0.000129119
1.46949e-09
0.000129142
-8.77291e-09
0.000129165
-1.88934e-08
0.000129188
-2.88845e-08
0.000129212
-3.87465e-08
0.000129235
-4.84807e-08
0.000129257
-5.80924e-08
0.00012928
-6.75854e-08
0.000129302
-7.69649e-08
0.000129323
-8.62338e-08
0.000129344
-9.53948e-08
0.000129365
-1.04448e-07
0.000129384
-1.13393e-07
0.000129404
-1.22229e-07
-1.30953e-07
0.000129422
0.000132627
1.69309e-08
0.00013262
5.03534e-08
0.00013261
7.71449e-08
0.0001326
9.52673e-08
0.000132591
1.05392e-07
0.000132585
1.08853e-07
0.000132582
1.07105e-07
0.000132582
1.01537e-07
0.000132586
9.32987e-08
0.000132593
8.32778e-08
0.000132603
7.21388e-08
0.000132616
6.03665e-08
0.000132632
4.83034e-08
0.000132649
3.6185e-08
0.000132668
2.4169e-08
0.000132688
1.23548e-08
0.00013271
8.03813e-10
0.000132732
-1.04546e-08
0.000132755
-2.14066e-08
0.000132778
-3.20565e-08
0.000132802
-4.2412e-08
0.000132825
-5.24909e-08
0.000132849
-6.23088e-08
0.000132872
-7.18869e-08
0.000132896
-8.12413e-08
0.000132918
-9.0391e-08
0.000132941
-9.93489e-08
0.000132963
-1.0813e-07
0.000132984
-1.16742e-07
0.000133005
-1.25194e-07
0.000133025
-1.33491e-07
0.000133044
-1.41639e-07
-1.49638e-07
0.000133063
0.000136414
2.12932e-08
0.000136401
6.29533e-08
0.000136384
9.44532e-08
0.000136366
1.13635e-07
0.000136349
1.22199e-07
0.000136335
1.22375e-07
0.000136326
1.16382e-07
0.000136321
1.06212e-07
0.000136321
9.34131e-08
0.000136325
7.91081e-08
0.000136333
6.40925e-08
0.000136345
4.89101e-08
0.000136359
3.39156e-08
0.000136376
1.93265e-08
0.000136395
5.26845e-09
0.000136416
-8.19867e-09
0.000136437
-2.10563e-08
0.00013646
-3.33143e-08
0.000136484
-4.49992e-08
0.000136508
-5.61475e-08
0.000136532
-6.68004e-08
0.000136557
-7.70001e-08
0.000136581
-8.67887e-08
0.000136606
-9.62045e-08
0.00013663
-1.05284e-07
0.000136653
-1.14059e-07
0.000136677
-1.22558e-07
0.000136699
-1.30804e-07
0.000136721
-1.38819e-07
0.000136743
-1.46616e-07
0.000136764
-1.54211e-07
0.000136784
-1.61614e-07
-1.68833e-07
0.000136803
0.000140308
2.92949e-08
0.000140286
8.49607e-08
0.000140257
1.2368e-07
0.000140226
1.44141e-07
0.000140198
1.5011e-07
0.000140175
1.45309e-07
0.000140158
1.33182e-07
0.000140148
1.16617e-07
0.000140144
9.76777e-08
0.000140145
7.77559e-08
0.000140151
5.77738e-08
0.000140162
3.83114e-08
0.000140176
1.97012e-08
0.000140193
2.11384e-09
0.000140213
-1.43891e-08
0.000140235
-2.98087e-08
0.000140258
-4.41913e-08
0.000140282
-5.76012e-08
0.000140307
-7.01191e-08
0.000140333
-8.18242e-08
0.000140359
-9.27993e-08
0.000140385
-1.03119e-07
0.000140411
-1.12855e-07
0.000140437
-1.2207e-07
0.000140462
-1.30824e-07
0.000140488
-1.39164e-07
0.000140512
-1.47136e-07
0.000140536
-1.54775e-07
0.000140559
-1.62115e-07
0.000140582
-1.69181e-07
0.000140604
-1.75996e-07
0.000140625
-1.82577e-07
-1.88941e-07
0.000140645
0.00014431
4.41411e-08
0.000144272
1.23055e-07
0.000144224
1.71645e-07
0.000144175
1.92362e-07
0.000144133
1.93055e-07
0.000144098
1.7995e-07
0.000144073
1.58459e-07
0.000144056
1.32735e-07
0.000144049
1.05423e-07
0.000144048
7.81397e-08
0.000144054
5.18632e-08
0.000144065
2.71306e-08
0.000144081
4.1824e-09
0.0001441
-1.69237e-08
0.000144122
-3.6232e-08
0.000144146
-5.38483e-08
0.000144172
-6.99053e-08
0.000144199
-8.45507e-08
0.000144226
-9.79289e-08
0.000144255
-1.10181e-07
0.000144283
-1.21435e-07
0.000144312
-1.31811e-07
0.000144341
-1.41413e-07
0.000144369
-1.50336e-07
0.000144397
-1.5866e-07
0.000144424
-1.66458e-07
0.000144451
-1.73791e-07
0.000144477
-1.80712e-07
0.000144502
-1.87265e-07
0.000144526
-1.93488e-07
0.000144549
-1.99412e-07
0.000144572
-2.05065e-07
-2.10468e-07
0.000144593
0.000148419
7.26956e-08
0.000148353
1.89238e-07
0.000148276
2.48847e-07
0.000148203
2.65637e-07
0.000148141
2.55179e-07
0.000148093
2.27743e-07
0.000148059
1.91786e-07
0.000148039
1.53021e-07
0.00014803
1.145e-07
0.00014803
7.78245e-08
0.000148038
4.38376e-08
0.000148053
1.28758e-08
0.000148072
-1.50421e-08
0.000148095
-4.00609e-08
0.000148121
-6.24016e-08
0.00014815
-8.2317e-08
0.00014818
-1.00066e-07
0.000148211
-1.15899e-07
0.000148243
-1.30048e-07
0.000148276
-1.42723e-07
0.000148309
-1.54113e-07
0.000148341
-1.64386e-07
0.000148373
-1.73686e-07
0.000148405
-1.82142e-07
0.000148436
-1.89863e-07
0.000148467
-1.96944e-07
0.000148497
-2.03466e-07
0.000148525
-2.09498e-07
0.000148553
-2.15099e-07
0.00014858
-2.20318e-07
0.000148606
-2.25197e-07
0.000148631
-2.29772e-07
-2.34073e-07
0.000148654
0.000152632
1.29912e-07
0.000152516
3.05237e-07
0.000152394
3.70644e-07
0.000152288
3.72193e-07
0.000152204
3.39122e-07
0.000152144
2.87484e-07
0.000152106
2.2987e-07
0.000152086
1.73305e-07
0.00015208
1.20482e-07
0.000152085
7.24365e-08
0.000152099
2.95228e-08
0.00015212
-8.36541e-09
0.000152147
-4.16065e-08
0.000152178
-7.06635e-08
0.000152211
-9.60092e-08
0.000152247
-1.18093e-07
0.000152284
-1.37336e-07
0.000152322
-1.54113e-07
0.000152361
-1.68762e-07
0.0001524
-1.81575e-07
0.000152439
-1.92809e-07
0.000152477
-2.02684e-07
0.000152515
-2.11392e-07
0.000152552
-2.19096e-07
0.000152588
-2.25935e-07
0.000152623
-2.32029e-07
0.000152657
-2.3748e-07
0.00015269
-2.42373e-07
0.000152721
-2.46782e-07
0.000152752
-2.50768e-07
0.000152781
-2.54384e-07
0.000152809
-2.57674e-07
-2.60675e-07
0.000152836
0.000156935
2.46064e-07
0.00015673
5.10945e-07
0.000156541
5.58764e-07
0.000156395
5.1905e-07
0.000156291
4.42847e-07
0.000156226
3.52379e-07
0.000156192
2.6436e-07
0.00015618
1.85205e-07
0.000156185
1.15439e-07
0.000156202
5.46247e-08
0.00015623
2.17463e-09
0.000156264
-4.27659e-08
0.000156304
-8.1164e-08
0.000156347
-1.13924e-07
0.000156393
-1.41831e-07
0.00015644
-1.65582e-07
0.000156489
-1.85781e-07
0.000156538
-2.02958e-07
0.000156586
-2.1756e-07
0.000156635
-2.29977e-07
0.000156683
-2.40533e-07
0.000156729
-2.4951e-07
0.000156775
-2.57144e-07
0.00015682
-2.63636e-07
0.000156863
-2.69155e-07
0.000156905
-2.73846e-07
0.000156945
-2.7783e-07
0.000156984
-2.8121e-07
0.000157021
-2.84071e-07
0.000157057
-2.86489e-07
0.000157091
-2.88523e-07
0.000157124
-2.90227e-07
-2.91647e-07
0.000157155
0.000161294
4.90835e-07
0.000160931
8.73956e-07
0.000160653
8.36571e-07
0.000160464
7.07513e-07
0.000160352
5.55699e-07
0.000160297
4.06657e-07
0.000160282
2.79222e-07
0.000160294
1.73837e-07
0.000160324
8.55913e-08
0.000160367
1.15964e-08
0.000160419
-5.00728e-08
0.000160477
-1.01315e-07
0.00016054
-1.43906e-07
0.000160606
-1.79289e-07
0.000160672
-2.08629e-07
0.00016074
-2.32897e-07
0.000160807
-2.52922e-07
0.000160873
-2.69394e-07
0.000160939
-2.82895e-07
0.000161002
-2.93903e-07
0.000161065
-3.02827e-07
0.000161125
-3.1e-07
0.000161184
-3.15709e-07
0.00016124
-3.20187e-07
0.000161295
-3.23634e-07
0.000161347
-3.26213e-07
0.000161397
-3.28066e-07
0.000161446
-3.29307e-07
0.000161492
-3.30033e-07
0.000161535
-3.30325e-07
0.000161577
-3.30252e-07
0.000161617
-3.29865e-07
-3.29216e-07
0.000161654
0.000165516
1.12866e-06
0.000164915
1.47505e-06
0.000164579
1.17249e-06
0.000164389
8.96938e-07
0.00016431
6.34578e-07
0.000164306
4.10902e-07
0.000164344
2.41629e-07
0.000164407
1.11019e-07
0.000164487
5.67741e-09
0.000164578
-7.99113e-08
0.000164677
-1.48904e-07
0.00016478
-2.04352e-07
0.000164885
-2.48933e-07
0.00016499
-2.84688e-07
0.000165095
-3.1319e-07
0.000165198
-3.35736e-07
0.000165298
-3.53403e-07
0.000165396
-3.67074e-07
0.00016549
-3.77466e-07
0.000165582
-3.85167e-07
0.00016567
-3.90658e-07
0.000165754
-3.94336e-07
0.000165835
-3.96527e-07
0.000165912
-3.97498e-07
0.000165986
-3.97472e-07
0.000166056
-3.96631e-07
0.000166123
-3.95127e-07
0.000166187
-3.93087e-07
0.000166248
-3.90616e-07
0.000166305
-3.87802e-07
0.00016636
-3.84725e-07
0.000166411
-3.81453e-07
-3.78057e-07
0.00016646
0.000168807