/*--------------------------------*- C++ -*----------------------------------*\
  =========                 |
  \\      /  F ield         | OpenFOAM: The Open Source CFD Toolbox
   \\    /   O peration     | Website:  https://openfoam.org
    \\  /    A nd           | Version:  10
     \\/     M anipulation  |
\*---------------------------------------------------------------------------*/
FoamFile
{
    format      ascii;
    class       volScalarField;
    location    "700";
    object      yPlus;
}
// * * * * * * * * * * * * * * * * * * * * * * * * * * * * * * * * * * * * * //

dimensions      [0 0 0 0 0 0 0];

internalField   uniform 0;

boundaryField
{
    outlet
    {
        type            calculated;
        value           uniform 0;
    }
    inlet
    {
        type            calculated;
        value           uniform 0;
    }
    lowerWall
    {
        type            calculated;
        value           nonuniform List<scalar> 
148
(
12.7112
17.6462
20.7196
22.3203
23.0459
23.2746
23.2254
23.0255
22.751
22.447
22.1389
21.8405
21.5587
21.2963
21.0539
20.8309
20.626
20.4379
20.265
20.1058
19.9591
19.8235
19.6979
19.5814
19.4731
19.3722
19.2779
19.1896
19.1065
19.0293
18.9503
18.9063
18.6942
0.403927
2.17133
3.90738
5.23361
6.3292
7.24554
8.11253
8.98334
9.85392
10.8692
11.2273
11.3276
11.5441
11.2583
10.6245
0.403927
3.37124
4.9945
5.76763
5.95959
5.83505
5.53946
5.15116
4.62237
3.69719
6.53252
3.99833
9.71854
13.5799
18.3309
21.9396
24.9835
27.6443
30.0166
32.1537
34.0877
35.8406
37.4307
38.8753
40.1931
41.4019
42.5192
43.5612
44.5417
45.4724
46.3626
47.2192
48.0478
48.8525
49.6373
50.4062
51.1642
51.9179
52.6721
53.4112
54.1406
54.8608
55.5709
56.27
56.9568
57.63
58.2879
58.9292
59.5522
60.1551
60.7362
61.2933
61.8243
62.3269
62.7987
63.237
63.6393
64.0031
64.3258
64.6057
64.8411
65.0305
65.1719
65.2656
65.3099
65.3045
65.2488
65.1422
64.9834
64.767
64.5368
64.3031
64.0159
63.6796
63.3047
62.9005
62.4734
62.0284
61.5694
61.0993
60.621
60.1371
59.6497
59.1607
58.6717
58.1844
57.7002
57.2207
56.7474
56.282
55.8257
55.3807
54.9472
54.5294
54.1251
53.7432
53.3799
53.0543
52.7696
52.5679
)
;
    }
    upperWall
    {
        type            calculated;
        value           nonuniform List<scalar> 
133
(
31.2591
34.0073
36.6584
39.0132
41.0752
42.889
44.4881
45.8973
47.1377
48.2283
49.1859
50.0256
50.7609
51.4035
51.9642
52.4525
52.8767
53.2443
53.562
53.8356
54.0702
54.2704
54.4403
54.5834
54.7029
54.8016
54.882
54.9461
54.996
55.0334
55.0597
55.0761
55.0844
55.0838
55.0723
55.0499
55.017
54.9743
54.9221
54.861
54.7916
54.7143
54.6294
54.5375
54.4388
54.3338
54.2226
54.1057
53.9832
53.8552
53.7221
53.5839
53.4407
53.2927
53.1397
52.9819
52.8192
52.6515
52.4788
52.301
52.1179
51.9293
51.7351
51.535
51.3288
51.1163
50.8973
50.6714
50.4383
50.198
49.9499
49.694
49.4298
49.1573
48.8762
48.5863
48.2874
47.9794
47.6623
47.336
47.0006
46.6561
46.3028
45.9409
45.5707
45.1928
44.8074
44.4155
44.0176
43.6146
43.2076
42.7975
42.3856
41.9732
41.5617
41.1526
40.7474
40.3478
39.9553
39.5717
39.1985
38.8374
38.4898
38.157
37.8403
37.5406
37.2588
36.9954
36.7508
36.525
36.3179
36.1289
35.9576
35.8029
35.6639
35.5393
35.4278
35.3281
35.2387
35.1581
35.085
35.0179
34.9556
34.8965
34.8399
34.7841
34.7287
34.6721
34.6136
34.5533
34.4847
34.4293
34.306
)
;
    }
    frontAndBack
    {
        type            empty;
    }
}


// ************************************************************************* //
