/*--------------------------------*- C++ -*----------------------------------*\
  =========                 |
  \\      /  F ield         | OpenFOAM: The Open Source CFD Toolbox
   \\    /   O peration     | Website:  https://openfoam.org
    \\  /    A nd           | Version:  10
     \\/     M anipulation  |
\*---------------------------------------------------------------------------*/
FoamFile
{
    format      ascii;
    class       volScalarField;
    location    "0.1";
    object      epsilon;
}
// * * * * * * * * * * * * * * * * * * * * * * * * * * * * * * * * * * * * * //

dimensions      [0 2 -3 0 0 0 0];

internalField   nonuniform List<scalar> 
6820
(
23.2969
22.5752
21.9094
21.2853
20.7019
20.1632
19.6735
19.2344
18.8457
18.505
18.2093
17.9547
17.7374
17.5537
17.4
17.2731
17.17
17.0879
17.0245
16.9776
16.9452
16.9256
16.9172
16.9187
16.9289
16.9467
16.9706
17.0027
17.0287
17.111
16.954
17.9396
13.5884
5.03385
6.81828
7.83926
8.46748
8.89786
9.23116
9.52122
9.79447
10.0629
10.3316
10.6024
10.8755
11.1509
11.4279
11.7061
11.9847
12.2633
12.5411
12.8178
13.0927
13.3655
13.6357
13.9031
14.1676
14.429
14.6875
14.9438
15.199
15.4553
15.7258
15.9819
16.4412
16.4457
3.7036
4.1472
4.56525
4.91421
5.19791
5.43114
5.62795
5.79957
5.95442
6.09862
6.23645
6.37083
6.50369
6.63623
6.7692
6.903
7.03783
7.17372
7.31062
7.44842
7.58695
7.72606
7.86557
8.00534
8.14525
8.28525
8.42535
8.56592
8.70677
8.85084
8.99328
9.14978
9.29054
3.54009
3.61093
3.72473
3.85371
3.98116
4.09939
4.20618
4.30192
4.38812
4.46655
4.53893
4.60677
4.67129
4.73351
4.79419
4.85392
4.91315
4.97219
5.03126
5.09052
5.15006
5.20995
5.27021
5.33085
5.39189
5.45333
5.51522
5.57765
5.64069
5.7048
5.76989
5.83688
5.90633
3.52064
3.50151
3.50498
3.52611
3.55867
3.5972
3.63778
3.67801
3.71661
3.75303
3.78718
3.81921
3.84938
3.87799
3.90535
3.93173
3.95738
3.98251
4.00729
4.03185
4.05632
4.08078
4.1053
4.12993
4.15473
4.17972
4.20496
4.2305
4.2564
4.28277
4.30966
4.33714
4.36523
3.5194
3.48247
3.45303
3.43232
3.41995
3.4145
3.41422
3.4175
3.42306
3.42995
3.43754
3.44541
3.4533
3.46109
3.46872
3.47618
3.48348
3.49067
3.49778
3.50485
3.51193
3.51906
3.52627
3.53359
3.54104
3.54866
3.55647
3.5645
3.57277
3.58134
3.59022
3.59944
3.60899
3.51943
3.47974
3.44283
3.40949
3.38025
3.35523
3.3342
3.31668
3.30212
3.28998
3.27975
3.27105
3.26353
3.25695
3.25112
3.2459
3.24118
3.23689
3.23298
3.2294
3.22614
3.22316
3.22047
3.21806
3.21591
3.21403
3.21242
3.21108
3.21002
3.20925
3.20877
3.20859
3.20869
3.51947
3.47943
3.44109
3.40466
3.37041
3.33852
3.30907
3.28205
3.25735
3.23479
3.21418
3.19529
3.17793
3.1619
3.14705
3.13322
3.1203
3.10818
3.09679
3.08604
3.07588
3.06626
3.05713
3.04847
3.04025
3.03244
3.02502
3.01797
3.0113
3.00498
2.99901
2.99338
2.98807
3.51948
3.47941
3.44085
3.40382
3.36835
3.33448
3.30225
3.27169
3.24279
3.21552
3.18983
3.16562
3.14282
3.12133
3.10104
3.08187
3.06373
3.04654
3.03021
3.01469
2.99991
2.98582
2.97236
2.95951
2.94722
2.93545
2.92419
2.91339
2.90305
2.89314
2.88364
2.87454
2.86582
3.51948
3.4794
3.44082
3.40368
3.36796
3.33361
3.30063
3.26897
3.23864
3.20961
3.18184
3.15531
3.12997
3.10577
3.08267
3.06061
3.03953
3.01939
3.00012
2.98169
2.96403
2.94711
2.93089
2.91532
2.90037
2.88601
2.87221
2.85894
2.84617
2.83389
2.82206
2.81069
2.79973
3.51948
3.4794
3.44081
3.40365
3.36788
3.33344
3.30027
3.26834
3.23759
3.20799
3.17952
3.15213
3.12578
3.10045
3.07611
3.0527
3.0302
3.00856
2.98776
2.96775
2.9485
2.92998
2.91214
2.89497
2.87842
2.86248
2.84711
2.83229
2.818
2.80421
2.79091
2.77807
2.76567
3.51948
3.4794
3.4408
3.40364
3.36786
3.3334
3.30019
3.26818
3.23733
3.20758
3.1789
3.15123
3.12455
3.09881
3.07399
3.05005
3.02695
3.00466
2.98316
2.96241
2.94239
2.92306
2.9044
2.88638
2.86898
2.85216
2.83592
2.82022
2.80505
2.79038
2.7762
2.76249
2.74923
3.51948
3.4794
3.44079
3.40363
3.36784
3.33337
3.30016
3.26813
3.23725
3.20747
3.17872
3.15098
3.1242
3.09833
3.07335
3.04922
3.02591
3.00337
2.9816
2.96055
2.94019
2.92051
2.90148
2.88307
2.86525
2.84802
2.83134
2.8152
2.79957
2.78444
2.76979
2.75561
2.74187
3.51947
3.47939
3.44079
3.40362
3.36783
3.33336
3.30013
3.26811
3.23722
3.20742
3.17866
3.15089
3.12408
3.09818
3.07315
3.04896
3.02557
3.00296
2.98109
2.95993
2.93945
2.91963
2.90045
2.88188
2.86389
2.84647
2.8296
2.81326
2.79742
2.78207
2.7672
2.75279
2.73882
3.51947
3.47939
3.44079
3.40362
3.36782
3.33334
3.30012
3.26808
3.23719
3.20738
3.17862
3.15084
3.12402
3.09811
3.07307
3.04886
3.02545
3.00281
2.9809
2.9597
2.93919
2.91932
2.90008
2.88145
2.8634
2.84591
2.82897
2.81254
2.79662
2.78118
2.76621
2.7517
2.73762
3.51947
3.47939
3.44078
3.40361
3.36782
3.33333
3.3001
3.26806
3.23716
3.20735
3.17858
3.15081
3.12398
3.09806
3.07301
3.04879
3.02538
3.00273
2.98081
2.9596
2.93907
2.91919
2.89993
2.88128
2.86321
2.84569
2.82872
2.81226
2.7963
2.78083
2.76582
2.75127
2.73714
3.51947
3.47939
3.44078
3.40361
3.36781
3.33332
3.30009
3.26805
3.23714
3.20733
3.17855
3.15077
3.12394
3.09802
3.07296
3.04874
3.02532
3.00267
2.98074
2.95953
2.93899
2.9191
2.89984
2.88118
2.8631
2.84557
2.82859
2.81212
2.79615
2.78066
2.76564
2.75107
2.73692
3.51947
3.47939
3.44078
3.4036
3.3678
3.33331
3.30008
3.26803
3.23713
3.20731
3.17853
3.15074
3.12391
3.09798
3.07292
3.0487
3.02527
3.00261
2.98069
2.95947
2.93893
2.91903
2.89977
2.8811
2.86302
2.84549
2.8285
2.81202
2.79605
2.78055
2.76552
2.75094
2.73679
3.51947
3.47939
3.44078
3.4036
3.3678
3.33331
3.30007
3.26802
3.23711
3.20729
3.17851
3.15072
3.12388
3.09795
3.07289
3.04866
3.02523
3.00257
2.98064
2.95941
2.93887
2.91897
2.8997
2.88103
2.86294
2.84541
2.82842
2.81194
2.79596
2.78046
2.76542
2.75083
2.73667
3.51947
3.47939
3.44077
3.4036
3.36779
3.3333
3.30006
3.26801
3.2371
3.20727
3.17849
3.15069
3.12385
3.09792
3.07285
3.04862
3.02519
3.00252
2.98059
2.95936
2.93881
2.91892
2.89964
2.88097
2.86288
2.84534
2.82834
2.81186
2.79587
2.78037
2.76533
2.75073
2.73657
3.51947
3.47939
3.44077
3.40359
3.36779
3.33329
3.30005
3.268
3.23708
3.20726
3.17847
3.15067
3.12383
3.09789
3.07282
3.04859
3.02515
3.00248
2.98055
2.95932
2.93876
2.91886
2.89958
2.88091
2.86281
2.84527
2.82827
2.81178
2.79579
2.78028
2.76523
2.75063
2.73646
3.51947
3.47938
3.44077
3.40359
3.36779
3.33329
3.30004
3.26799
3.23707
3.20724
3.17845
3.15065
3.1238
3.09786
3.07279
3.04856
3.02512
3.00245
2.98051
2.95927
2.93872
2.91881
2.89953
2.88085
2.86275
2.84521
2.8282
2.81171
2.79571
2.7802
2.76514
2.75054
2.73636
3.51947
3.47938
3.44077
3.40359
3.36778
3.33329
3.30004
3.26798
3.23706
3.20723
3.17844
3.15064
3.12379
3.09784
3.07277
3.04853
3.02509
3.00241
2.98047
2.95923
2.93867
2.91876
2.89948
2.8808
2.86269
2.84514
2.82813
2.81163
2.79563
2.78011
2.76506
2.75044
2.73626
3.51947
3.47938
3.44077
3.40359
3.36778
3.33328
3.30003
3.26798
3.23705
3.20722
3.17843
3.15062
3.12377
3.09782
3.07275
3.0485
3.02506
3.00238
2.98044
2.9592
2.93863
2.91872
2.89943
2.88075
2.86264
2.84508
2.82807
2.81157
2.79556
2.78003
2.76497
2.75035
2.73616
3.51947
3.47938
3.44077
3.40359
3.36778
3.33328
3.30003
3.26797
3.23705
3.20721
3.17842
3.15061
3.12375
3.09781
3.07273
3.04848
3.02504
3.00235
2.98041
2.95916
2.9386
2.91868
2.89939
2.8807
2.86258
2.84503
2.82801
2.8115
2.79549
2.77996
2.76489
2.75026
2.73607
3.51947
3.47938
3.44077
3.40359
3.36778
3.33328
3.30003
3.26797
3.23704
3.20721
3.17841
3.1506
3.12374
3.09779
3.07271
3.04846
3.02501
3.00233
2.98038
2.95913
2.93856
2.91864
2.89935
2.88065
2.86254
2.84498
2.82795
2.81144
2.79542
2.77989
2.76481
2.75018
2.73598
3.51947
3.47938
3.44077
3.40359
3.36778
3.33328
3.30002
3.26796
3.23704
3.2072
3.1784
3.15059
3.12373
3.09778
3.0727
3.04845
3.02499
3.00231
2.98035
2.9591
2.93853
2.91861
2.89931
2.88061
2.86249
2.84492
2.82789
2.81138
2.79536
2.77981
2.76473
2.7501
2.73589
3.51947
3.47938
3.44077
3.40359
3.36778
3.33328
3.30002
3.26796
3.23704
3.2072
3.1784
3.15059
3.12373
3.09777
3.07269
3.04844
3.02498
3.00229
2.98034
2.95908
2.93851
2.91858
2.89928
2.88058
2.86245
2.84488
2.82785
2.81133
2.7953
2.77975
2.76467
2.75002
2.73581
3.51947
3.47938
3.44077
3.40359
3.36778
3.33327
3.30002
3.26796
3.23703
3.20719
3.17839
3.15058
3.12371
3.09776
3.07267
3.04842
3.02496
3.00227
2.98031
2.95906
2.93848
2.91855
2.89925
2.88054
2.86241
2.84484
2.8278
2.81127
2.79524
2.77969
2.7646
2.74995
2.73573
3.51947
3.47938
3.44077
3.40359
3.36778
3.33328
3.30003
3.26796
3.23704
3.2072
3.1784
3.15059
3.12372
3.09777
3.07268
3.04843
3.02497
3.00228
2.98032
2.95906
2.93848
2.91855
2.89924
2.88053
2.8624
2.84482
2.82777
2.81124
2.79521
2.77965
2.76456
2.7499
2.73567
3.51947
3.47939
3.44077
3.40359
3.36778
3.33328
3.30002
3.26796
3.23703
3.20719
3.17839
3.15057
3.12371
3.09775
3.07267
3.04841
3.02495
3.00226
2.9803
2.95904
2.93846
2.91853
2.89922
2.88051
2.86238
2.8448
2.82775
2.81122
2.79519
2.77963
2.76453
2.74988
2.73565
3.51947
3.47938
3.44077
3.40359
3.36779
3.3333
3.30005
3.268
3.23708
3.20725
3.17845
3.15064
3.12378
3.09782
3.07273
3.04848
3.02502
3.00233
2.98037
2.95911
2.93853
2.9186
2.89929
2.88059
2.86246
2.84488
2.82784
2.81131
2.79528
2.77973
2.76464
2.75
2.73577
3.51948
3.4794
3.44079
3.40362
3.36782
3.33332
3.30007
3.26801
3.23708
3.20725
3.17845
3.15065
3.12379
3.09785
3.07277
3.04854
3.0251
3.00242
2.98049
2.95926
2.93871
2.91881
2.89954
2.88087
2.86278
2.84525
2.82825
2.81178
2.7958
2.78031
2.76527
2.75069
2.73653
3.51947
3.47939
3.44079
3.40365
3.36789
3.33343
3.30023
3.26821
3.23733
3.20753
3.17878
3.15102
3.12422
3.09833
3.07333
3.04917
3.02583
3.00326
2.98144
2.96035
2.93995
2.92021
2.90111
2.88263
2.86474
2.84742
2.83064
2.8144
2.79866
2.78341
2.76864
2.75432
2.74043
3.51949
3.47947
3.44095
3.40385
3.36811
3.33369
3.30054
3.26862
3.23789
3.2083
3.1798
3.15236
3.12594
3.10049
3.07598
3.05237
3.02962
3.00771
2.98659
2.96623
2.9466
2.92768
2.90942
2.89181
2.87481
2.85841
2.84257
2.82727
2.81249
2.7982
2.7844
2.77105
2.75813
3.5195
3.47953
3.44117
3.40446
3.36933
3.33572
3.30359
3.2729
3.24362
3.2157
3.1891
3.16377
3.13966
3.1167
3.09483
3.07401
3.05417
3.03526
3.01722
3.00001
2.98357
2.96786
2.95283
2.93845
2.92467
2.91146
2.89879
2.88662
2.87493
2.86368
2.85286
2.84244
2.83239
3.51969
3.48122
3.44561
3.41286
3.38295
3.35586
3.33148
3.30963
3.29009
3.27265
3.2571
3.24323
3.23085
3.21979
3.20989
3.20101
3.19302
3.18581
3.17928
3.17333
3.1679
3.16292
3.15832
3.15405
3.15007
3.14633
3.1428
3.13944
3.13624
3.13317
3.1302
3.12732
3.12452
3.52527
3.51368
3.51618
3.52944
3.55066
3.57782
3.6093
3.64381
3.68041
3.71833
3.75701
3.79599
3.83491
3.87349
3.91152
3.94883
3.9853
4.02085
4.05541
4.08893
4.12139
4.15277
4.18307
4.2123
4.24047
4.2676
4.29371
4.31881
4.34295
4.36614
4.38843
4.40983
4.4304
3.83318
4.36509
4.84918
5.31421
5.77467
6.22596
6.66378
7.08627
7.49306
7.88455
8.26151
8.62483
8.97541
9.31408
9.64159
9.95861
10.2657
10.5634
10.8522
11.1325
11.4046
11.6689
11.9256
12.1752
12.4178
12.6538
12.8833
13.1067
13.3241
13.5359
13.7422
13.9432
14.1392
30.2663
32.7713
35.3126
37.865
40.4147
42.9529
45.4712
47.9622
50.419
52.8352
55.2054
57.5247
59.7891
61.9952
64.1402
66.2218
68.2386
70.1893
72.0732
73.8902
75.6403
77.3239
78.9417
80.4946
81.9837
83.4103
84.7759
86.082
87.3302
88.5223
89.66
90.7448
91.7799
85.9612
233.651
411.195
580.723
715.39
802.818
843.781
847.005
823.942
785.342
739.534
692.149
646.498
604.194
565.776
531.224
500.308
472.755
448.308
426.72
407.739
391.089
376.48
363.612
352.194
341.947
332.611
323.943
315.72
307.732
299.787
291.704
283.316
274.467
265.012
254.814
243.744
231.686
218.536
204.21
188.652
171.849
153.854
134.807
114.973
94.7822
74.8641
56.0615
39.375
25.779
15.8878
9.6197
6.18606
4.53047
3.81189
3.54095
3.47523
3.49969
3.55872
3.62475
3.6842
3.73086
3.76263
3.77974
3.78363
3.77637
3.76019
3.73728
3.70965
3.67909
3.64713
3.61504
3.58382
3.55422
3.52676
3.50172
3.47921
3.45917
3.44146
3.42584
3.41206
3.3998
3.38876
3.37861
3.36897
3.35938
3.34931
3.33805
3.3247
3.30819
3.28723
3.26041
3.22629
3.18349
3.13087
3.06752
2.99364
2.90647
2.82207
2.65619
18.9735
27.2818
43.264
68.0828
101.849
143.424
190.514
239.975
288.23
331.786
367.761
394.348
410.892
417.953
417.094
410.361
399.805
387.152
373.666
360.164
347.114
334.749
323.159
312.357
302.303
292.924
284.117
275.755
267.697
259.788
251.874
243.802
235.423
226.6
217.204
207.116
196.233
184.466
171.751
158.054
143.384
127.808
111.478
94.6516
77.7199
61.2289
45.87
32.4149
21.5583
13.6769
8.62569
5.77555
4.3333
3.66539
3.38995
3.30808
3.31967
3.37287
3.43983
3.50538
3.56156
3.60463
3.63347
3.64856
3.65128
3.64346
3.62711
3.60419
3.57652
3.54574
3.51327
3.4803
3.44782
3.41659
3.38716
3.35991
3.33502
3.31256
3.29246
3.27459
3.25875
3.2447
3.23218
3.22089
3.21046
3.20048
3.19043
3.17964
3.16727
3.1523
3.13353
3.10961
3.07917
3.04085
2.99355
2.93635
2.86933
2.78984
2.71275
2.55999
9.43158
9.79372
10.7206
12.5717
15.6738
20.3531
26.9886
36.0066
47.7663
62.3926
79.6491
98.8911
119.267
139.739
159.208
176.596
191.06
202.133
209.758
214.217
216.009
215.715
213.896
211.026
207.462
203.45
199.137
194.593
189.829
184.818
179.502
173.808
167.653
160.951
153.619
145.584
136.788
127.194
116.797
105.633
93.7914
81.4322
68.7999
56.2368
44.1839
33.1555
23.6716
16.1388
10.7076
7.19009
5.13489
4.03153
3.48064
3.23296
3.1489
3.15169
3.19801
3.2626
3.33048
3.39286
3.44486
3.48416
3.51016
3.5234
3.52513
3.51695
3.50065
3.47796
3.45053
3.41984
3.3872
3.35374
3.32039
3.28792
3.25689
3.22773
3.2007
3.17593
3.15347
3.13325
3.11517
3.09904
3.08465
3.07174
3.06001
3.04906
3.03842
3.02748
3.01546
3.0014
2.98419
2.96257
2.93524
2.9009
2.85846
2.80699
2.74649
2.67441
2.60444
2.46464
5.98254
6.06947
6.18251
6.36389
6.66337
7.13155
7.82368
8.81193
10.1974
12.1112
14.7016
18.1048
22.4145
27.6536
33.7291
40.5614
47.9769
55.7159
63.4624
70.8882
77.6986
83.6674
88.6556
92.6112
95.5548
97.5569
98.7125
99.1189
98.8599
97.9952
96.5578
94.5546
91.9722
88.7841
84.9593
80.4722
75.3117
69.4909
63.0569
56.0997
48.761
41.2403
33.7941
26.725
20.3515
14.9561
10.7183
7.657
5.62471
4.37316
3.64906
3.25619
3.06477
2.99436
2.99524
3.03605
3.09657
3.16367
3.22884
3.28672
3.33417
3.36968
3.39294
3.40445
3.4053
3.39689
3.38076
3.35846
3.33146
3.3011
3.26858
3.23495
3.20109
3.16773
3.13547
3.10474
3.07585
3.049
3.0243
3.00178
2.98138
2.96299
2.94648
2.93163
2.91818
2.9058
2.89405
2.8824
2.87013
2.85638
2.84011
2.82018
2.79535
2.76441
2.72629
2.68007
2.62566
2.56062
2.49747
2.37031
4.3976
4.43437
4.47334
4.51874
4.57712
4.65678
4.76697
4.91794
5.12255
5.39891
5.7725
6.27614
6.94668
7.81951
8.91513
10.204
11.6828
13.3478
15.1873
17.1774
19.2809
21.448
23.6202
25.735
27.7316
29.5551
31.16
32.5102
33.5789
34.3453
34.7918
34.9011
34.655
34.0337
33.0194
31.5999
29.7753
27.5646
25.012
22.1919
19.2093
16.1967
13.3023
10.6713
8.42089
6.61667
5.26098
4.30221
3.66033
3.25362
3.01387
2.88967
2.84382
2.84955
2.88752
2.94371
3.00797
3.073
3.13367
3.18651
3.22938
3.26124
3.28188
3.29177
3.29181
3.28322
3.26734
3.24551
3.21906
3.1892
3.15701
3.12346
3.08939
3.05549
3.02234
2.99038
2.95995
2.9313
2.90458
2.87987
2.85721
2.83654
2.81777
2.80077
2.78531
2.77113
2.75786
2.74502
2.73199
2.71799
2.70209
2.68324
2.66031
2.63217
2.59779
2.55626
2.50744
2.44899
2.39228
2.27735
3.62034
3.63358
3.64749
3.6625
3.67945
3.69981
3.72557
3.75901
3.80276
3.86004
3.93518
4.03418
4.16482
4.33726
4.55604
4.81907
5.12429
5.46895
5.84962
6.26203
6.70088
7.15964
7.63053
8.10462
8.57205
9.02231
9.44455
9.82785
10.1615
10.435
10.6382
10.7607
10.7923
10.7228
10.5426
10.2444
9.82479
9.28688
8.64273
7.91463
7.13474
6.34239
5.57898
4.88169
4.27772
3.78123
3.39386
3.10791
2.91041
2.78647
2.72139
2.70169
2.71552
2.75277
2.80499
2.86524
2.92792
2.98866
3.0441
3.09185
3.13033
3.15875
3.17695
3.18532
3.18462
3.17588
3.16026
3.13895
3.11311
3.08384
3.05214
3.01888
2.98484
2.95068
2.91695
2.88408
2.85244
2.82228
2.79381
2.76715
2.74236
2.71948
2.69846
2.67921
2.66158
2.64537
2.63026
2.61586
2.60163
2.5869
2.57084
2.55251
2.53089
2.50493
2.47368
2.43625
2.39246
2.34008
2.28938
2.1861
3.20912
3.20988
3.21098
3.21254
3.21472
3.21779
3.22212
3.22822
3.2367
3.24831
3.26396
3.28491
3.31281
3.35003
3.39795
3.45748
3.52875
3.61117
3.70356
3.80429
3.91139
4.02265
4.13568
4.24793
4.35674
4.45943
4.55328
4.63565
4.70398
4.75581
4.78884
4.80091
4.79
4.75428
4.69215
4.60247
4.48485
4.34008
4.17057
3.98073
3.777
3.5676
3.36171
3.1685
2.99599
2.85025
2.73495
2.65136
2.59864
2.57434
2.57482
2.5958
2.63271
2.68105
2.73653
2.79529
2.85389
2.90943
2.95954
3.0024
3.03679
3.06204
3.07801
3.08498
3.08359
3.07472
3.05936
3.03857
3.01338
2.98477
2.95364
2.92082
2.887
2.85281
2.81876
2.7853
2.75275
2.72141
2.69147
2.66311
2.63644
2.6115
2.58831
2.56684
2.547
2.52863
2.5115
2.49527
2.47952
2.46365
2.44697
2.42865
2.40778
2.38342
2.35469
2.32074
2.28137
2.23449
2.18928
2.097
2.98225
2.97587
2.96968
2.96372
2.95806
2.95277
2.94796
2.94376
2.94031
2.93778
2.93637
2.93633
2.93803
2.94187
2.94829
2.95772
2.97046
2.98659
3.00596
3.02816
3.05262
3.07861
3.10526
3.13165
3.1568
3.17974
3.19948
3.21508
3.22566
3.23041
3.22863
3.2197
3.20315
3.17865
3.146
3.10523
3.0566
3.00069
2.93848
2.87144
2.80154
2.73124
2.66338
2.60099
2.54699
2.50394
2.4738
2.45772
2.45601
2.46814
2.49285
2.52832
2.57231
2.62241
2.67608
2.73086
2.7844
2.83457
2.87954
2.91787
2.94852
2.97089
2.98482
2.99052
2.98852
2.97953
2.96444
2.94416
2.91962
2.8917
2.86121
2.82891
2.79546
2.76142
2.72729
2.69348
2.66032
2.62808
2.597
2.56723
2.53892
2.51216
2.48699
2.46343
2.44143
2.4209
2.40166
2.38346
2.36595
2.34866
2.33099
2.31224
2.29162
2.26829
2.24147
2.21038
2.1748
2.13279
2.09253
2.01047
2.8561
2.84526
2.83456
2.82403
2.81368
2.80355
2.79368
2.78413
2.77493
2.76614
2.75779
2.74994
2.74263
2.73592
2.72989
2.72462
2.72022
2.71674
2.71422
2.71259
2.71173
2.71145
2.71149
2.71155
2.71127
2.71029
2.70823
2.70471
2.69938
2.69193
2.68208
2.66962
2.65442
2.63642
2.61566
2.59231
2.56665
2.53911
2.51029
2.48097
2.45212
2.42488
2.40052
2.38038
2.3658
2.35795
2.35779
2.36591
2.38252
2.40736
2.43978
2.47873
2.5229
2.57071
2.62046
2.67036
2.71865
2.76364
2.80384
2.83802
2.86527
2.88504
2.89713
2.90169
2.89913
2.89006
2.87524
2.85546
2.83157
2.80434
2.77453
2.74283
2.70984
2.6761
2.64206
2.60812
2.57459
2.54174
2.50979
2.47892
2.44927
2.42096
2.39405
2.3686
2.34459
2.32198
2.30066
2.28045
2.26108
2.24217
2.22323
2.20369
2.18289
2.16009
2.13462
2.10578
2.07335
2.03557
1.99967
1.92697
2.78744
2.7737
2.76006
2.74655
2.73318
2.71996
2.70693
2.69412
2.68155
2.66925
2.65724
2.64552
2.63409
2.62295
2.61208
2.60148
2.59115
2.58108
2.57128
2.56172
2.55239
2.54323
2.53418
2.52515
2.51605
2.50674
2.49712
2.48705
2.47641
2.46509
2.45301
2.44011
2.42639
2.41188
2.39668
2.38095
2.36493
2.34896
2.33343
2.31886
2.30583
2.29503
2.28715
2.28296
2.28315
2.28837
2.29909
2.31564
2.33807
2.3662
2.39958
2.43748
2.47899
2.52295
2.56807
2.61297
2.6562
2.69638
2.73223
2.76265
2.78684
2.80425
2.81469
2.81822
2.81516
2.80603
2.79147
2.77219
2.74893
2.7224
2.69329
2.66223
2.62978
2.59644
2.56264
2.52874
2.49506
2.46183
2.42928
2.39759
2.36689
2.33732
2.30895
2.28186
2.25606
2.23156
2.20829
2.18612
2.16487
2.14425
2.12389
2.10331
2.08197
2.05927
2.03464
2.00747
1.97758
1.94337
1.91121
1.84694
2.75174
2.73611
2.72057
2.70512
2.68979
2.67458
2.65951
2.64462
2.62992
2.61544
2.60118
2.58717
2.57339
2.55985
2.54652
2.53339
2.52045
2.50766
2.49501
2.48248
2.47005
2.4577
2.44541
2.43315
2.42091
2.40866
2.39637
2.38402
2.37159
2.35906
2.34645
2.33377
2.32108
2.30846
2.29602
2.28391
2.27235
2.26159
2.25194
2.24375
2.23744
2.23345
2.23225
2.2343
2.24004
2.24985
2.26402
2.28272
2.30595
2.33355
2.36517
2.40025
2.43808
2.47775
2.51822
2.55833
2.59688
2.63266
2.66455
2.69158
2.71299
2.72829
2.73722
2.73981
2.73631
2.72714
2.71284
2.69404
2.67141
2.64558
2.61717
2.58678
2.55492
2.52207
2.48861
2.4549
2.42123
2.38784
2.35493
2.32266
2.2912
2.26064
2.23111
2.20265
2.17534
2.14918
2.12414
2.10018
2.07714
2.05483
2.03296
2.01118
1.98906
1.96612
1.94189
1.91588
1.88793
1.85665
1.82764
1.77081
2.73429
2.71751
2.70078
2.68413
2.66757
2.6511
2.63475
2.61853
2.60248
2.5866
2.57092
2.55545
2.54021
2.52518
2.51037
2.49577
2.48136
2.46713
2.45305
2.43912
2.42532
2.41163
2.39804
2.38454
2.37113
2.35782
2.3446
2.3315
2.31853
2.30571
2.2931
2.28075
2.26872
2.25712
2.24608
2.23573
2.22625
2.21787
2.21083
2.2054
2.20189
2.20062
2.20192
2.20612
2.21353
2.22439
2.2389
2.25715
2.27912
2.30468
2.33353
2.36522
2.39916
2.43459
2.47064
2.50632
2.54058
2.57236
2.60068
2.62464
2.64354
2.6569
2.66447
2.66621
2.6623
2.6531
2.63906
2.62074
2.59871
2.57356
2.54587
2.51617
2.48494
2.45262
2.4196
2.38619
2.35267
2.31928
2.2862
2.25359
2.2216
2.19035
2.15992
2.1304
2.10184
2.0743
2.04776
2.02219
1.99753
1.97363
1.9503
1.92727
1.90422
1.88079
1.85661
1.8313
1.80476
1.7758
1.74936
1.69897
2.72638
2.70893
2.69153
2.67418
2.6569
2.63968
2.62256
2.60554
2.58865
2.57191
2.55534
2.53896
2.52277
2.50679
2.49102
2.47547
2.46012
2.44498
2.43002
2.41525
2.40065
2.38622
2.37195
2.35783
2.34388
2.3301
2.3165
2.30312
2.28997
2.2771
2.26456
2.25243
2.24077
2.22969
2.2193
2.20975
2.20118
2.1938
2.18779
2.1834
2.18085
2.1804
2.18231
2.18683
2.19417
2.20454
2.21805
2.23478
2.2547
2.27768
2.30348
2.33171
2.36186
2.3933
2.42526
2.45689
2.48725
2.51542
2.54049
2.56166
2.57828
2.58988
2.59618
2.59714
2.59286
2.58363
2.56984
2.55197
2.53054
2.50607
2.47909
2.45008
2.41951
2.38777
2.35524
2.32221
2.28896
2.2557
2.22261
2.18986
2.15756
2.12584
2.09479
2.06447
2.03497
2.00632
1.97855
1.95165
1.92559
1.90028
1.87559
1.85134
1.82731
1.80323
1.77885
1.75388
1.7283
1.70111
1.67667
1.63175
2.72304
2.70526
2.68751
2.66978
2.65211
2.63448
2.61692
2.59945
2.58208
2.56483
2.54773
2.53078
2.51401
2.49742
2.48103
2.46485
2.44888
2.43311
2.41755
2.4022
2.38705
2.37211
2.35737
2.34283
2.32851
2.31441
2.30055
2.28697
2.27368
2.26074
2.2482
2.23612
2.22458
2.21368
2.20352
2.19423
2.18595
2.17884
2.17309
2.16887
2.16639
2.16586
2.16748
2.17146
2.17798
2.18717
2.19915
2.21396
2.23156
2.25186
2.27462
2.29952
2.32613
2.35387
2.38209
2.41002
2.43684
2.46172
2.48385
2.50248
2.51701
2.52698
2.53213
2.53235
2.52773
2.51847
2.50492
2.48749
2.46663
2.44282
2.41653
2.38823
2.35832
2.3272
2.2952
2.26262
2.22972
2.1967
2.16375
2.131
2.09858
2.0666
2.03514
2.00429
1.9741
1.94463
1.91591
1.88795
1.86075
1.83425
1.80838
1.78303
1.75805
1.73327
1.70852
1.68362
1.65864
1.63274
1.60981
1.56938
2.72171
2.70377
2.68585
2.66795
2.65008
2.63224
2.61446
2.59675
2.57911
2.56158
2.54416
2.52688
2.50975
2.49279
2.476
2.45941
2.44301
2.42681
2.41083
2.39505
2.37949
2.36416
2.34904
2.33416
2.31952
2.30514
2.29104
2.27724
2.26377
2.25069
2.23804
2.22587
2.21427
2.20333
2.19313
2.18379
2.17545
2.16823
2.16231
2.15783
2.15498
2.15393
2.15486
2.15792
2.16327
2.17103
2.18129
2.19407
2.20934
2.22701
2.24689
2.26868
2.29199
2.31634
2.34113
2.3657
2.3893
2.41118
2.43062
2.44692
2.45953
2.46801
2.47207
2.47161
2.46665
2.45737
2.44405
2.42703
2.40672
2.38354
2.35794
2.33033
2.30109
2.2706
2.23918
2.2071
2.17462
2.14192
2.1092
2.07658
2.04418
2.01211
1.98045
1.94928
1.91865
1.88862
1.85922
1.83047
1.80239
1.77495
1.74813
1.72184
1.69602
1.67056
1.64537
1.62037
1.59569
1.57068
1.54884
1.51203
2.72118
2.70318
2.68518
2.66719
2.64923
2.63129
2.6134
2.59556
2.57779
2.56009
2.5425
2.52502
2.50768
2.49047
2.47343
2.45656
2.43987
2.42337
2.40708
2.39099
2.37511
2.35946
2.34404
2.32886
2.31394
2.2993
2.28494
2.27091
2.25723
2.24394
2.23109
2.21875
2.20697
2.19584
2.18544
2.17589
2.16729
2.15976
2.15346
2.14851
2.14507
2.1433
2.14334
2.14533
2.1494
2.15565
2.16416
2.17494
2.18796
2.20314
2.22031
2.23921
2.25949
2.28073
2.30239
2.32388
2.34453
2.36368
2.38065
2.39481
2.40565
2.41273
2.41579
2.41468
2.4094
2.40009
2.38697
2.37034
2.35055
2.328
2.30306
2.27613
2.24757
2.21772
2.1869
2.15535
2.12333
2.09103
2.05861
2.02622
1.99396
1.96195
1.93025
1.89894
1.86807
1.8377
1.80786
1.77858
1.74987
1.72175
1.6942
1.66719
1.64068
1.61462
1.58901
1.56382
1.53925
1.51483
1.49373
1.45974
2.72094
2.7029
2.68487
2.66685
2.64884
2.63085
2.6129
2.595
2.57714
2.55936
2.54167
2.52407
2.50658
2.48922
2.472
2.45494
2.43804
2.42132
2.40479
2.38846
2.37233
2.35642
2.34075
2.32531
2.31014
2.29524
2.28064
2.26636
2.25245
2.23893
2.22585
2.21326
2.20124
2.18985
2.17917
2.1693
2.16034
2.15241
2.14561
2.14009
2.13597
2.13339
2.13248
2.13335
2.13613
2.14088
2.14768
2.15654
2.16744
2.18029
2.19494
2.21116
2.22865
2.24703
2.26582
2.28449
2.30245
2.31908
2.33378
2.34598
2.35517
2.36096
2.36307
2.36134
2.35576
2.34641
2.33347
2.3172
2.29791
2.27595
2.25166
2.2254
2.19751
2.16831
2.13809
2.10711
2.07559
2.04372
2.01168
1.97959
1.94757
1.91571
1.8841
1.8528
1.82186
1.79134
1.76126
1.73167
1.70259
1.67402
1.64597
1.61845
1.59143
1.56492
1.53894
1.51355
1.48899
1.46492
1.4443
1.41246
2.72079
2.70274
2.68469
2.66664
2.64861
2.6306
2.61261
2.59466
2.57676
2.55892
2.54115
2.52347
2.50589
2.48841
2.47107
2.45386
2.4368
2.41991
2.40319
2.38666
2.37032
2.3542
2.3383
2.32264
2.30724
2.2921
2.27727
2.26275
2.2486
2.23483
2.2215
2.20866
2.19636
2.18467
2.17367
2.16344
2.15408
2.14568
2.13836
2.13222
2.12739
2.12398
2.12211
2.12188
2.12338
2.1267
2.13187
2.13892
2.14782
2.15849
2.1708
2.18455
2.19947
2.21521
2.23137
2.24745
2.26293
2.27726
2.28987
2.30024
2.30791
2.31249
2.3137
2.3114
2.30552
2.29612
2.28334
2.26741
2.2486
2.22719
2.20353
2.17793
2.1507
2.12214
2.09254
2.06213
2.03114
1.99975
1.96812
1.9364
1.90468
1.87307
1.84164
1.81047
1.77959
1.74907
1.71894
1.68922
1.65995
1.63115
1.60282
1.57498
1.54764
1.52083
1.4946
1.46905
1.44445
1.42061
1.40027
1.37001
2.72066
2.7026
2.68454
2.66648
2.64843
2.6304
2.61239
2.59441
2.57647
2.55858
2.54076
2.52301
2.50535
2.48779
2.47034
2.45301
2.43582
2.41878
2.40191
2.38521
2.3687
2.35238
2.33629
2.32042
2.3048
2.28945
2.27439
2.25965
2.24526
2.23125
2.21766
2.20455
2.19196
2.17997
2.16863
2.15803
2.14825
2.13938
2.13151
2.12476
2.11922
2.11499
2.11218
2.11088
2.11117
2.11311
2.11674
2.12209
2.12911
2.13776
2.1479
2.15936
2.17191
2.18523
2.19896
2.21267
2.22587
2.23807
2.24875
2.25743
2.26368
2.26713
2.2675
2.26464
2.25847
2.24901
2.23639
2.22077
2.2024
2.18154
2.15848
2.13351
2.10693
2.07901
2.05003
2.02021
1.98976
1.95888
1.92771
1.89639
1.86503
1.83373
1.80257
1.77161
1.7409
1.7105
1.68043
1.65074
1.62145
1.59259
1.56416
1.5362
1.50871
1.48175
1.45539
1.42975
1.40514
1.38144
1.36128
1.33216
2.72055
2.70248
2.6844
2.66633
2.64827
2.63021
2.61218
2.59418
2.57621
2.55828
2.54041
2.5226
2.50488
2.48724
2.4697
2.45227
2.43497
2.4178
2.40079
2.38394
2.36726
2.35078
2.33451
2.31845
2.30264
2.28708
2.27181
2.25685
2.24223
2.22798
2.21414
2.20076
2.18789
2.17559
2.16391
2.15294
2.14274
2.13339
2.125
2.11764
2.1114
2.10639
2.10268
2.10035
2.09948
2.10013
2.10231
2.10606
2.11134
2.1181
2.12623
2.13558
2.14593
2.15702
2.16852
2.18003
2.19113
2.20136
2.21026
2.21738
2.22231
2.2247
2.22429
2.22089
2.21444
2.20493
2.19243
2.17711
2.15915
2.1388
2.11632
2.09197
2.06603
2.03875
2.01038
1.98116
1.95127
1.92091
1.89022
1.85935
1.82839
1.79745
1.76661
1.73593
1.70548
1.67528
1.64539
1.61584
1.58666
1.55787
1.52949
1.50155
1.47408
1.44711
1.42075
1.39511
1.37053
1.34695
1.32691
1.29859
2.72044
2.70236
2.68427
2.66619
2.6481
2.63003
2.61198
2.59395
2.57595
2.55799
2.54007
2.52222
2.50443
2.48672
2.4691
2.45158
2.43418
2.4169
2.39976
2.38277
2.36595
2.34932
2.33287
2.31664
2.30065
2.2849
2.26943
2.25426
2.23941
2.22493
2.21085
2.19721
2.18406
2.17145
2.15945
2.14811
2.1375
2.1277
2.11879
2.11084
2.10394
2.09817
2.0936
2.0903
2.08834
2.08776
2.08859
2.09084
2.0945
2.0995
2.10577
2.11315
2.12148
2.13051
2.13994
2.14943
2.15859
2.16701
2.17426
2.17993
2.18363
2.18503
2.18388
2.17998
2.17326
2.16368
2.15131
2.13625
2.11869
2.09883
2.07691
2.05316
2.02784
2.00119
1.97344
1.94482
1.91551
1.88569
1.85551
1.82511
1.79459
1.76405
1.73358
1.70323
1.67308
1.64317
1.61353
1.5842
1.55522
1.52661
1.4984
1.4706
1.44326
1.41641
1.39014
1.36461
1.34011
1.31666
1.2967
1.26896
2.72033
2.70224
2.68414
2.66604
2.64794
2.62986
2.61178
2.59373
2.5757
2.5577
2.53975
2.52184
2.504
2.48622
2.46853
2.45093
2.43343
2.41605
2.3988
2.38169
2.36473
2.34795
2.33136
2.31496
2.29879
2.28286
2.2672
2.25183
2.23678
2.22207
2.20776
2.19387
2.18044
2.16754
2.15521
2.14352
2.13252
2.12228
2.11287
2.10436
2.09682
2.09033
2.08494
2.08073
2.07774
2.07601
2.07557
2.07642
2.07856
2.08193
2.08646
2.09203
2.09848
2.1056
2.11313
2.12075
2.12813
2.13488
2.1406
2.14493
2.14748
2.14797
2.14612
2.14176
2.13477
2.12513
2.11286
2.09806
2.08087
2.06147
2.04008
2.01692
1.99221
1.96619
1.93907
1.91106
1.88234
1.85309
1.82344
1.79353
1.76348
1.73338
1.70331
1.67334
1.64354
1.61395
1.58462
1.55559
1.52688
1.49852
1.47055
1.44298
1.41586
1.38921
1.36314
1.33778
1.31343
1.29012
1.27025
1.24291
2.72022
2.70212
2.68401
2.6659
2.64779
2.62968
2.61158
2.5935
2.57545
2.55742
2.53943
2.52148
2.50358
2.48575
2.46799
2.45031
2.43273
2.41525
2.39789
2.38067
2.36359
2.34667
2.32993
2.31339
2.29706
2.28096
2.26512
2.24955
2.2343
2.21938
2.20484
2.19071
2.17702
2.16384
2.1512
2.13916
2.12778
2.11712
2.10724
2.09819
2.09005
2.08288
2.07672
2.07164
2.06768
2.06487
2.06324
2.06279
2.06351
2.06536
2.06827
2.07216
2.07687
2.08223
2.08799
2.0939
2.09962
2.10483
2.10915
2.11224
2.11374
2.11337
2.11088
2.10607
2.09884
2.08912
2.07694
2.06237
2.04553
2.02658
2.00571
1.98312
1.95903
1.93364
1.90715
1.87977
1.85166
1.82299
1.79391
1.76454
1.73498
1.70535
1.67572
1.64617
1.61675
1.58753
1.55855
1.52984
1.50145
1.4734
1.44573
1.41845
1.3916
1.36523
1.33941
1.31427
1.29011
1.26697
1.2472
1.22014
2.72012
2.702
2.68388
2.66576
2.64763
2.6295
2.61139
2.59329
2.5752
2.55714
2.53911
2.52112
2.50318
2.48529
2.46747
2.44972
2.43206
2.41449
2.39704
2.37971
2.36251
2.34547
2.3286
2.31191
2.29543
2.27917
2.26316
2.24741
2.23197
2.21685
2.20209
2.18773
2.17379
2.16034
2.14741
2.13504
2.1233
2.11224
2.1019
2.09235
2.08364
2.07582
2.06893
2.06304
2.05816
2.05434
2.05159
2.04992
2.04931
2.04974
2.05116
2.05348
2.05658
2.0603
2.06445
2.06877
2.07298
2.07677
2.0798
2.08175
2.08229
2.08113
2.07803
2.0728
2.06531
2.05551
2.0434
2.02903
2.01252
1.99399
1.97363
1.95161
1.92814
1.90339
1.87757
1.85085
1.82339
1.79535
1.76687
1.73807
1.70905
1.67993
1.65078
1.62167
1.59268
1.56386
1.53526
1.50691
1.47887
1.45116
1.42381
1.39686
1.37033