/*--------------------------------*- C++ -*----------------------------------*\
  =========                 |
  \\      /  F ield         | OpenFOAM: The Open Source CFD Toolbox
   \\    /   O peration     | Website:  https://openfoam.org
    \\  /    A nd           | Version:  10
     \\/     M anipulation  |
\*---------------------------------------------------------------------------*/
FoamFile
{
    format      ascii;
    class       volScalarField;
    location    "0.1";
    object      nut;
}
// * * * * * * * * * * * * * * * * * * * * * * * * * * * * * * * * * * * * * //

dimensions      [0 2 -1 0 0 0 0];

internalField   nonuniform List<scalar> 
6820
(
0.000149484
0.000144853
0.000140581
0.000136577
0.000132833
0.000129377
0.000126234
0.000123417
0.000120923
0.000118737
0.000116839
0.000115206
0.000113812
0.000112633
0.000111647
0.000110833
0.000110171
0.000109644
0.000109237
0.000108936
0.000108728
0.000108602
0.000108549
0.000108558
0.000108623
0.000108738
0.000108891
0.000109097
0.000109263
0.000109792
0.000108784
0.000115107
8.71845e-05
0.000729198
0.000532392
0.000448013
0.000399708
0.000368381
0.000346732
0.000331089
0.00031936
0.000310273
0.000303025
0.000297093
0.000292133
0.000287909
0.000284256
0.000281056
0.000278222
0.000275691
0.000273413
0.000271347
0.000269464
0.000267739
0.000266152
0.000264686
0.000263327
0.000262065
0.000260888
0.000259791
0.000258763
0.000257809
0.000256917
0.000256119
0.000255248
0.000256385
0.000976777
0.000872181
0.000781623
0.000711265
0.000657319
0.000615279
0.000581708
0.000554247
0.00053131
0.000511814
0.000494997
0.000480314
0.00046736
0.000455829
0.000445487
0.00043615
0.000427672
0.000419936
0.000412846
0.000406323
0.000400301
0.000394725
0.000389547
0.000384726
0.000380227
0.000376017
0.000372069
0.000368356
0.000364846
0.000361525
0.000358314
0.000355168
0.000351821
0.00101348
0.00098823
0.000949374
0.000906194
0.000864425
0.000826384
0.000792552
0.000762665
0.000736228
0.000712732
0.000691721
0.000672813
0.00065569
0.000640096
0.000625817
0.00061268
0.000600541
0.00058928
0.000578799
0.000569012
0.000559848
0.000551247
0.000543154
0.000535524
0.000528317
0.000521497
0.00051503
0.000508888
0.00050304
0.000497465
0.000492113
0.000486997
0.000481948
0.00101671
0.00101241
0.00100191
0.000985661
0.000965604
0.000943713
0.000921423
0.000899612
0.000878748
0.00085904
0.000840547
0.000823247
0.000807076
0.000791955
0.000777797
0.00076452
0.000752046
0.000740302
0.000729225
0.000718756
0.000708843
0.00069944
0.000690506
0.000682003
0.000673899
0.000666163
0.000658767
0.000651685
0.000644893
0.000638369
0.000632081
0.00062602
0.000620128
0.00101676
0.00101592
0.0010136
0.00100903
0.00100204
0.00099292
0.000982192
0.000970398
0.000958006
0.000945375
0.000932763
0.000920345
0.000908233
0.000896496
0.000885172
0.000874277
0.000863813
0.000853772
0.000844143
0.000834908
0.000826051
0.000817551
0.000809391
0.000801551
0.000794014
0.000786762
0.000779777
0.000773043
0.000766544
0.000760265
0.000754188
0.000748303
0.000742588
0.00101671
0.00101623
0.00101553
0.00101428
0.00101219
0.0010091
0.00100497
0.000999892
0.00099402
0.000987521
0.000980559
0.000973282
0.000965812
0.000958249
0.00095067
0.000943136
0.000935691
0.000928368
0.00092119
0.000914172
0.000907325
0.000900655
0.000894164
0.000887852
0.000881717
0.000875755
0.000869962
0.000864332
0.00085886
0.000853539
0.000848361
0.000843322
0.000838413
0.0010167
0.00101622
0.00101574
0.00101518
0.00101442
0.00101335
0.00101188
0.00100995
0.00100756
0.00100471
0.00100144
0.000997827
0.00099391
0.000989752
0.000985406
0.000980921
0.00097634
0.000971699
0.000967029
0.000962354
0.000957695
0.00095307
0.000948492
0.000943971
0.000939515
0.000935131
0.000930821
0.00092659
0.000922439
0.000918368
0.000914378
0.00091047
0.000906642
0.0010167
0.00101621
0.00101575
0.00101528
0.0010148
0.00101425
0.00101359
0.00101279
0.00101179
0.00101059
0.00100917
0.00100754
0.00100569
0.00100365
0.00100143
0.000999064
0.000996563
0.00099395
0.000991246
0.00098847
0.000985639
0.000982767
0.000979868
0.000976955
0.000974036
0.00097112
0.000968215
0.000965328
0.000962462
0.000959623
0.000956814
0.000954038
0.0009513
0.0010167
0.00101621
0.00101574
0.00101529
0.00101484
0.00101439
0.00101393
0.00101344
0.0010129
0.00101229
0.0010116
0.00101082
0.00100994
0.00100895
0.00100786
0.00100668
0.0010054
0.00100403
0.00100258
0.00100106
0.000999482
0.000997845
0.000996162
0.000994439
0.000992685
0.000990905
0.000989107
0.000987295
0.000985474
0.00098365
0.000981826
0.000980005
0.000978193
0.0010167
0.00101621
0.00101574
0.00101528
0.00101484
0.00101441
0.00101398
0.00101356
0.00101313
0.0010127
0.00101224
0.00101176
0.00101125
0.0010107
0.0010101
0.00100947
0.00100878
0.00100805
0.00100727
0.00100645
0.00100559
0.00100468
0.00100374
0.00100277
0.00100176
0.00100073
0.000999681
0.000998607
0.000997517
0.000996413
0.000995299
0.000994177
0.00099305
0.0010167
0.00101621
0.00101574
0.00101528
0.00101484
0.0010144
0.00101398
0.00101357
0.00101317
0.00101277
0.00101238
0.00101199
0.00101159
0.00101119
0.00101078
0.00101035
0.00100991
0.00100946
0.00100898
0.00100849
0.00100798
0.00100744
0.00100689
0.00100632
0.00100573
0.00100513
0.00100451
0.00100388
0.00100323
0.00100257
0.0010019
0.00100123
0.00100055
0.0010167
0.00101621
0.00101574
0.00101528
0.00101483
0.0010144
0.00101398
0.00101357
0.00101317
0.00101278
0.0010124
0.00101203
0.00101167
0.00101131
0.00101095
0.0010106
0.00101024
0.00100989
0.00100953
0.00100917
0.0010088
0.00100843
0.00100806
0.00100767
0.00100729
0.00100689
0.00100649
0.00100609
0.00100568
0.00100526
0.00100484
0.00100441
0.00100399
0.0010167
0.00101621
0.00101574
0.00101528
0.00101483
0.0010144
0.00101398
0.00101357
0.00101317
0.00101278
0.0010124
0.00101204
0.00101168
0.00101133
0.00101098
0.00101065
0.00101032
0.00101
0.00100968
0.00100936
0.00100905
0.00100874
0.00100843
0.00100813
0.00100783
0.00100752
0.00100722
0.00100692
0.00100662
0.00100632
0.00100602
0.00100572
0.00100542
0.0010167
0.00101621
0.00101574
0.00101528
0.00101483
0.0010144
0.00101398
0.00101357
0.00101317
0.00101278
0.0010124
0.00101203
0.00101168
0.00101133
0.00101099
0.00101066
0.00101033
0.00101002
0.00100971
0.00100941
0.00100911
0.00100882
0.00100854
0.00100826
0.00100799
0.00100772
0.00100746
0.0010072
0.00100694
0.00100669
0.00100644
0.00100619
0.00100595
0.0010167
0.00101621
0.00101574
0.00101528
0.00101483
0.0010144
0.00101397
0.00101356
0.00101316
0.00101278
0.0010124
0.00101203
0.00101167
0.00101132
0.00101098
0.00101065
0.00101033
0.00101002
0.00100971
0.00100942
0.00100912
0.00100884
0.00100856
0.00100829
0.00100803
0.00100777
0.00100752
0.00100728
0.00100704
0.0010068
0.00100657
0.00100635
0.00100613
0.0010167
0.00101621
0.00101574
0.00101528
0.00101483
0.0010144
0.00101397
0.00101356
0.00101316
0.00101277
0.0010124
0.00101203
0.00101167
0.00101132
0.00101098
0.00101065
0.00101033
0.00101002
0.00100971
0.00100941
0.00100912
0.00100884
0.00100857
0.0010083
0.00100804
0.00100778
0.00100753
0.00100729
0.00100706
0.00100683
0.00100661
0.00100639
0.00100618
0.0010167
0.00101621
0.00101574
0.00101528
0.00101483
0.0010144
0.00101397
0.00101356
0.00101316
0.00101277
0.00101239
0.00101203
0.00101167
0.00101132
0.00101098
0.00101065
0.00101033
0.00101001
0.00100971
0.00100941
0.00100912
0.00100884
0.00100856
0.0010083
0.00100803
0.00100778
0.00100753
0.00100729
0.00100706
0.00100683
0.00100661
0.00100639
0.00100619
0.0010167
0.00101621
0.00101574
0.00101528
0.00101483
0.00101439
0.00101397
0.00101356
0.00101316
0.00101277
0.00101239
0.00101202
0.00101167
0.00101132
0.00101098
0.00101065
0.00101032
0.00101001
0.0010097
0.00100941
0.00100912
0.00100883
0.00100856
0.00100829
0.00100803
0.00100778
0.00100753
0.00100729
0.00100706
0.00100683
0.00100661
0.00100639
0.00100618
0.0010167
0.00101621
0.00101574
0.00101528
0.00101483
0.00101439
0.00101397
0.00101356
0.00101316
0.00101277
0.00101239
0.00101202
0.00101166
0.00101131
0.00101097
0.00101064
0.00101032
0.00101001
0.0010097
0.0010094
0.00100911
0.00100883
0.00100856
0.00100829
0.00100803
0.00100777
0.00100752
0.00100728
0.00100705
0.00100682
0.0010066
0.00100638
0.00100618
0.0010167
0.00101621
0.00101574
0.00101528
0.00101483
0.00101439
0.00101397
0.00101356
0.00101316
0.00101277
0.00101239
0.00101202
0.00101166
0.00101131
0.00101097
0.00101064
0.00101032
0.00101
0.0010097
0.0010094
0.00100911
0.00100883
0.00100855
0.00100828
0.00100802
0.00100777
0.00100752
0.00100728
0.00100704
0.00100682
0.00100659
0.00100638
0.00100617
0.0010167
0.00101621
0.00101574
0.00101528
0.00101483
0.00101439
0.00101397
0.00101356
0.00101316
0.00101277
0.00101239
0.00101202
0.00101166
0.00101131
0.00101097
0.00101064
0.00101032
0.00101
0.0010097
0.0010094
0.00100911
0.00100882
0.00100855
0.00100828
0.00100802
0.00100776
0.00100752
0.00100727
0.00100704
0.00100681
0.00100659
0.00100637
0.00100616
0.0010167
0.00101621
0.00101574
0.00101528
0.00101483
0.00101439
0.00101397
0.00101356
0.00101316
0.00101277
0.00101239
0.00101202
0.00101166
0.00101131
0.00101097
0.00101064
0.00101031
0.00101
0.00100969
0.00100939
0.0010091
0.00100882
0.00100854
0.00100828
0.00100801
0.00100776
0.00100751
0.00100727
0.00100703
0.0010068
0.00100658
0.00100636
0.00100615
0.0010167
0.00101621
0.00101574
0.00101528
0.00101483
0.00101439
0.00101397
0.00101356
0.00101316
0.00101277
0.00101239
0.00101202
0.00101166
0.00101131
0.00101097
0.00101064
0.00101031
0.00101
0.00100969
0.00100939
0.0010091
0.00100882
0.00100854
0.00100827
0.00100801
0.00100776
0.00100751
0.00100726
0.00100703
0.0010068
0.00100658
0.00100636
0.00100615
0.0010167
0.00101621
0.00101574
0.00101528
0.00101483
0.00101439
0.00101397
0.00101356
0.00101316
0.00101277
0.00101239
0.00101202
0.00101166
0.00101131
0.00101097
0.00101063
0.00101031
0.00101
0.00100969
0.00100939
0.0010091
0.00100882
0.00100854
0.00100827
0.00100801
0.00100775
0.0010075
0.00100726
0.00100702
0.00100679
0.00100657
0.00100635
0.00100614
0.0010167
0.00101621
0.00101574
0.00101528
0.00101483
0.00101439
0.00101397
0.00101356
0.00101316
0.00101277
0.00101239
0.00101202
0.00101166
0.00101131
0.00101097
0.00101063
0.00101031
0.00100999
0.00100969
0.00100939
0.0010091
0.00100881
0.00100854
0.00100827
0.001008
0.00100775
0.0010075
0.00100726
0.00100702
0.00100679
0.00100656
0.00100635
0.00100613
0.0010167
0.00101621
0.00101574
0.00101528
0.00101483
0.00101439
0.00101397
0.00101356
0.00101316
0.00101277
0.00101239
0.00101202
0.00101166
0.00101131
0.00101096
0.00101063
0.00101031
0.00100999
0.00100969
0.00100939
0.0010091
0.00100881
0.00100853
0.00100826
0.001008
0.00100774
0.0010075
0.00100725
0.00100701
0.00100678
0.00100656
0.00100634
0.00100613
0.0010167
0.00101621
0.00101574
0.00101528
0.00101483
0.00101439
0.00101397
0.00101356
0.00101316
0.00101277
0.00101239
0.00101202
0.00101166
0.00101131
0.00101096
0.00101063
0.00101031
0.00100999
0.00100969
0.00100939
0.00100909
0.00100881
0.00100853
0.00100826
0.001008
0.00100774
0.00100749
0.00100725
0.00100701
0.00100678
0.00100655
0.00100633
0.00100612
0.0010167
0.00101621
0.00101574
0.00101528
0.00101483
0.00101439
0.00101397
0.00101356
0.00101316
0.00101277
0.00101239
0.00101202
0.00101166
0.00101131
0.00101096
0.00101063
0.00101031
0.00100999
0.00100968
0.00100938
0.00100909
0.00100881
0.00100853
0.00100826
0.001008
0.00100774
0.00100749
0.00100725
0.00100701
0.00100678
0.00100655
0.00100633
0.00100611
0.0010167
0.00101621
0.00101574
0.00101528
0.00101483
0.00101439
0.00101397
0.00101356
0.00101316
0.00101277
0.00101239
0.00101202
0.00101166
0.00101131
0.00101097
0.00101063
0.00101031
0.00100999
0.00100969
0.00100939
0.00100909
0.00100881
0.00100853
0.00100826
0.001008
0.00100774
0.00100749
0.00100724
0.00100701
0.00100677
0.00100655
0.00100632
0.00100611
0.0010167
0.00101621
0.00101574
0.00101528
0.00101483
0.00101439
0.00101397
0.00101356
0.00101316
0.00101277
0.00101239
0.00101202
0.00101166
0.00101131
0.00101097
0.00101063
0.00101031
0.00100999
0.00100969
0.00100939
0.00100909
0.00100881
0.00100853
0.00100826
0.001008
0.00100774
0.00100749
0.00100724
0.001007
0.00100677
0.00100654
0.00100632
0.0010061
0.0010167
0.00101621
0.00101574
0.00101528
0.00101483
0.0010144
0.00101397
0.00101356
0.00101316
0.00101277
0.00101239
0.00101202
0.00101166
0.00101131
0.00101097
0.00101064
0.00101031
0.00101
0.00100969
0.00100939
0.00100909
0.00100881
0.00100853
0.00100825
0.00100798
0.00100772
0.00100747
0.00100722
0.00100697
0.00100673
0.0010065
0.00100627
0.00100604
0.0010167
0.00101621
0.00101574
0.00101528
0.00101483
0.0010144
0.00101398
0.00101357
0.00101317
0.00101278
0.0010124
0.00101203
0.00101167
0.00101132
0.00101097
0.00101064
0.00101031
0.00100998
0.00100967
0.00100936
0.00100905
0.00100875
0.00100846
0.00100817
0.00100788
0.0010076
0.00100732
0.00100705
0.00100678
0.00100651
0.00100624
0.00100598
0.00100572
0.0010167
0.00101621
0.00101574
0.00101529
0.00101484
0.00101441
0.00101399
0.00101358
0.00101318
0.00101279
0.0010124
0.00101202
0.00101164
0.00101127
0.00101089
0.00101053
0.00101016
0.00100979
0.00100942
0.00100906
0.00100869
0.00100832
0.00100794
0.00100757
0.00100719
0.00100681
0.00100643
0.00100605
0.00100566
0.00100527
0.00100488
0.00100448
0.00100409
0.0010167
0.00101622
0.00101575
0.0010153
0.00101485
0.00101441
0.00101397
0.00101352
0.00101308
0.00101262
0.00101215
0.00101166
0.00101115
0.00101063
0.00101008
0.00100951
0.00100892
0.0010083
0.00100766
0.00100699
0.0010063
0.00100559
0.00100486
0.00100411
0.00100334
0.00100256
0.00100175
0.00100094
0.00100011
0.000999267
0.000998416
0.000997555
0.000996688
0.00101671
0.00101622
0.00101574
0.00101524
0.00101469
0.00101407
0.00101337
0.00101257
0.00101167
0.00101066
0.00100954
0.00100832
0.00100698
0.00100554
0.001004
0.00100237
0.00100066
0.000998864
0.000997003
0.00099508
0.000993103
0.00099108
0.000989016
0.000986919
0.000984796
0.000982652
0.000980492
0.000978322
0.000976146
0.000973968
0.000971794
0.000969625
0.000967466
0.00101671
0.001016
0.00101488
0.00101326
0.00101113
0.00100848
0.00100533
0.0010017
0.000997639
0.000993191
0.000988412
0.000983354
0.000978068
0.000972603
0.000967002
0.000961305
0.000955545
0.000949753
0.000943955
0.000938173
0.000932428
0.000926734
0.000921106
0.000915554
0.000910088
0.000904716
0.000899442
0.000894273
0.000889211
0.000884259
0.000879419
0.000874692
0.000870078
0.0010153
0.00100706
0.000995515
0.000981417
0.000965393
0.000948055
0.00092996
0.000911557
0.00089318
0.000875068
0.000857385
0.000840242
0.000823704
0.000807808
0.000792569
0.000777986
0.000764048
0.000750737
0.00073803
0.000725904
0.000714331
0.000703285
0.00069274
0.000682669
0.000673048
0.000663852
0.000655059
0.000646647
0.000638595
0.000630885
0.000623498
0.000616417
0.000609623
0.000935928
0.000815553
0.000728189
0.000659278
0.000602419
0.000555192
0.0005157
0.000482357
0.000453911
0.000429399
0.00040808
0.000389381
0.000372856
0.000358157
0.000345005
0.000333175
0.000322485
0.000312784
0.00030395
0.000295876
0.000288475
0.000281672
0.000275403
0.000269611
0.000264249
0.000259275
0.000254652
0.000250347
0.000246333
0.000242582
0.000239073
0.000235786
0.000232701
0.000125477
0.000128847
0.000132096
0.000135204
0.000138173
0.000141007
0.000143711
0.000146289
0.000148745
0.000151084
0.00015331
0.000155428
0.000157441
0.000159354
0.000161171
0.000162896
0.000164534
0.000166087
0.00016756
0.000168956
0.000170279
0.000171534
0.000172722
0.000173847
0.000174912
0.000175921
0.000176876
0.00017778
0.000178635
0.000179444
0.000180209
0.000180933
0.000181618
0.000106263
0.000150165
0.000195805
0.000242024
0.000287381
0.000329978
0.000368782
0.000403975
0.000436585
0.000467928
0.000499115
0.000530831
0.00056332
0.00059654
0.000630401
0.00066494
0.00070039
0.000737129
0.000775596
0.000816202
0.000859288
0.000905111
0.000953842
0.00100556
0.00106024
0.00111771
0.00117765
0.00123955
0.00130276
0.00136645
0.00142965
0.00149128
0.00155012
0.00160487
0.00165411
0.00169634
0.00172999
0.00175342
0.00176499
0.00176306
0.00174604
0.0017125
0.00166121
0.00159134
0.00150267
0.00139602
0.00127398
0.00114206
0.00101061
0.000896918
0.000825353
0.000819961
0.000884456
0.000986802
0.00108484
0.00116131
0.00121913
0.00126485
0.00130277
0.00133513
0.00136306
0.00138727
0.00140829
0.00142664
0.00144281
0.00145727
0.00147048
0.00148284
0.00149472
0.00150645
0.00151827
0.00153038
0.00154287
0.00155577
0.00156904
0.00158257
0.00159619
0.00160973
0.00162302
0.00163588
0.00164816
0.00165977
0.00167061
0.00168065
0.00168986
0.00169825
0.00170585
0.00171272
0.0017189
0.00172449
0.00172956
0.00173415
0.00173825
0.00174173
0.00174425
0.00174526
0.00174395
0.00173891
0.00173112
0.00170414
0.000245952
0.000213528
0.0001835
0.000169041
0.000169587
0.000182057
0.000203769
0.000232444
0.000265942
0.00030221
0.000339428
0.000376224
0.000411754
0.000445814
0.000478729
0.000511074
0.000543429
0.000576247
0.00060983
0.0006444
0.000680173
0.000717404
0.000756384
0.000797392
0.000840635
0.000886202
0.000934024
0.000983857
0.00103528
0.00108768
0.00114028
0.00119215
0.00124218
0.00128913
0.00133163
0.0013682
0.00139729
0.00141728
0.00142656
0.00142355
0.00140678
0.00137503
0.00132747
0.00126389
0.00118516
0.00109385
0.000995301
0.000898991
0.000819843
0.000777488
0.000789426
0.000855877
0.000951112
0.00104322
0.00111791
0.00117616
0.00122287
0.00126186
0.00129533
0.00132445
0.00134989
0.00137211
0.00139153
0.00140855
0.00142359
0.00143705
0.00144932
0.00146077
0.00147174
0.00148252
0.00149335
0.00150445
0.00151593
0.00152787
0.00154027
0.00155306
0.00156612
0.00157932
0.00159248
0.00160544
0.00161804
0.00163017
0.0016417
0.00165257
0.00166273
0.00167214
0.00168082
0.00168877
0.00169604
0.00170267
0.00170873
0.00171425
0.00171921
0.00172346
0.0017267
0.00172838
0.00172772
0.00172333
0.0017162
0.00169031
0.000348979
0.000343236
0.000327973
0.000301192
0.000268549
0.00023789
0.000214149
0.000199159
0.000193159
0.000195717
0.000206068
0.000223223
0.000245996
0.000273056
0.000302962
0.000334361
0.000366192
0.000397795
0.000428926
0.000459684
0.000490379
0.000521409
0.000553164
0.000585972
0.000620085
0.000655666
0.000692787
0.000731415
0.000771382
0.000812366
0.000853865
0.000895191
0.000935463
0.00097362
0.00100844
0.00103859
0.00106261
0.00107903
0.0010864
0.00108338
0.00106885
0.00104215
0.00100327
0.000953323
0.000895091
0.000833844
0.000778185
0.000740364
0.000734386
0.000769575
0.000841065
0.000928945
0.00101256
0.00108248
0.00113881
0.00118487
0.00122376
0.00125747
0.00128712
0.00131332
0.00133647
0.00135686
0.00137479
0.0013906
0.00140461
0.00141717
0.0014286
0.00143924
0.00144937
0.00145928
0.0014692
0.00147933
0.00148982
0.00150077
0.00151222
0.00152415
0.00153649
0.00154912
0.00156191
0.00157471
0.00158738
0.00159976
0.00161175
0.00162323
0.00163414
0.00164441
0.00165402
0.00166295
0.00167121
0.00167883
0.00168583
0.00169225
0.00169805
0.00170308
0.00170705
0.00170942
0.00170946
0.00170579
0.00169941
0.00167483
0.000476484
0.000470794
0.000464372
0.000455103
0.000441071
0.000421449
0.000396686
0.000368112
0.000337596
0.000307457
0.000280216
0.00025809
0.000242478
0.000233826
0.00023209
0.000236498
0.000246179
0.000260227
0.000277729
0.000297827
0.00031978
0.000343019
0.000367169
0.000392043
0.000417608
0.000443925
0.000471099
0.00049921
0.000528272
0.000558188
0.000588716
0.000619449
0.000649799
0.000679006
0.000706148
0.000730177
0.000749971
0.000764409
0.000772468
0.000773371
0.000766775
0.000753038
0.000733566
0.000711256
0.000690931
0.000679524
0.000685332
0.000715377
0.000770853
0.000844176
0.000922453
0.000994958
0.00105701
0.00110872
0.00115217
0.00118956
0.00122246
0.00125181
0.00127813
0.00130172
0.00132278
0.0013415
0.00135809
0.00137279
0.00138587
0.00139761
0.00140829
0.0014182
0.00142759
0.00143672
0.00144581
0.00145504
0.00146459
0.00147456
0.00148503
0.00149602
0.0015075
0.00151939
0.0015316
0.00154401
0.00155647
0.00156885
0.00158103
0.00159288
0.00160432
0.00161525
0.00162562
0.00163538
0.00164452
0.00165303
0.00166092
0.00166819
0.0016748
0.0016806
0.00168531
0.00168841
0.0016892
0.00168634
0.0016808
0.00165774
0.000613454
0.000606094
0.000598919
0.000591623
0.000583607
0.000574148
0.000562585
0.000548408
0.000531202
0.000510584
0.000486287
0.000458475
0.000428083
0.000396841
0.000367115
0.000341784
0.000321507
0.000306314
0.00029598
0.000290148
0.000288392
0.000290256
0.000295283
0.000303039
0.000313134
0.000325238
0.000339083
0.00035446
0.000371202
0.000389156
0.000408156
0.000427987
0.000448361
0.000468893
0.000489112
0.000508477
0.000526433
0.0005425
0.000556391
0.000568179
0.000578489
0.000588705
0.000601131
0.000618962
0.000645834
0.00068472
0.00073635
0.00079809
0.000864527
0.000929681
0.000989233
0.0010414
0.00108642
0.00112551
0.00116005
0.00119107
0.00121926
0.00124499
0.00126844
0.00128973
0.00130892
0.00132613
0.00134149
0.00135519
0.00136742
0.00137843
0.00138844
0.0013977
0.00140644
0.00141487
0.0014232
0.00143162
0.00144029
0.00144932
0.00145882
0.00146883
0.00147937
0.0014904
0.00150186
0.00151365
0.00152567
0.0015378
0.0015499
0.00156186
0.00157357
0.00158493
0.00159586
0.00160628
0.00161615
0.00162543
0.00163411
0.00164217
0.00164954
0.00165609
0.00166154
0.00166538
0.00166696
0.00166498
0.00166037
0.00163906
0.000736115
0.000728848
0.000721654
0.000714507
0.000707309
0.000699887
0.000692005
0.000683392
0.000673759
0.000662778
0.000650048
0.000635083
0.000617384
0.000596491
0.000572952
0.000548124
0.0005232
0.000499193
0.000476884
0.000456821
0.000439353
0.000424673
0.000412847
0.000403851
0.000397598
0.000393965
0.000392811
0.000393996
0.000397386
0.000402865
0.000410331
0.000419698
0.000430888
0.000443835
0.000458481
0.000474791
0.000492777
0.00051254
0.000534323
0.000558559
0.000585893
0.00061713
0.000653075
0.000694245
0.000740516
0.000790866
0.000843406
0.000895781
0.000945792
0.000991936
0.00103362
0.001071
0.00110469
0.00113539
0.00116368
0.00118995
0.00121442
0.00123715
0.00125816
0.00127744
0.00129499
0.00131084
0.0013251
0.00133788
0.00134935
0.00135969
0.0013691
0.00137777
0.00138592
0.00139374
0.0014014
0.00140909
0.00141694
0.0014251
0.00143366
0.00144271
0.00145227
0.00146235
0.00147293
0.00148395
0.00149532
0.00150695
0.00151872
0.00153053
0.00154226
0.0015538
0.00156505
0.00157592
0.00158633
0.00159623
0.00160558
0.00161432
0.0016224
0.00162965
0.00163581
0.0016404
0.00164279
0.00164175
0.00163815
0.0016188
0.000832839
0.000826536
0.00082023
0.000813924
0.000807605
0.000801245
0.000794788
0.00078816
0.000781267
0.000773997
0.000766208
0.000757712
0.000748263
0.000737517
0.000725363
0.000711825
0.000697105
0.000681553
0.000665599
0.000649696
0.000634278
0.000619729
0.000606373
0.00059447
0.000584223
0.000575781
0.000569255
0.000564722
0.000562241
0.000561858
0.000563616
0.000567564
0.00057376
0.000582281
0.000593218
0.000606684
0.000622806
0.00064172
0.000663555
0.000688409
0.000716313
0.000747173
0.000780714
0.000816431
0.000853589
0.00089128
0.000928553
0.000964568
0.000998739
0.00103079
0.00106074
0.00108879
0.00111521
0.00114025
0.00116407
0.00118673
0.00120822
0.00122848
0.00124741
0.00126496
0.00128106
0.00129572
0.00130899
0.00132095
0.00133172
0.00134145
0.00135031
0.00135847
0.00136609
0.00137336
0.00138042
0.00138745
0.00139457
0.00140193
0.00140962
0.00141773
0.00142632
0.00143543
0.00144505
0.00145517
0.00146572
0.00147666
0.00148788
0.00149928
0.00151077
0.00152223
0.00153355
0.00154463
0.00155538
0.00156571
0.00157556
0.00158487
0.00159353
0.00160141
0.00160824
0.00161357
0.00161679
0.00161673
0.00161421
0.00159698
0.00090227
0.000897292
0.000892268
0.000887204
0.000882099
0.000876952
0.000871756
0.0008665
0.00086117
0.000855742
0.000850189
0.00084447
0.000838516
0.000832256
0.000825604
0.000818487
0.000810868
0.000802767
0.000794262
0.00078549
0.000776627
0.000767873
0.00075944
0.000751538
0.000744367
0.000738112
0.000732942
0.000729008
0.000726443
0.000725367
0.000725885
0.000728097
0.000732092
0.000737958
0.000745776
0.000755621
0.000767552
0.000781604
0.000797776
0.000816013
0.000836191
0.000858103
0.000881458
0.000905888
0.000930977
0.000956302
0.000981484
0.00100623
0.00103037
0.00105383
0.00107662
0.0010988
0.00112042
0.00114149
0.001162
0.00118186
0.00120095
0.00121916
0.00123634
0.00125239
0.00126724
0.00128085
0.00129323
0.00130445
0.00131459
0.00132377
0.00133213
0.00133981
0.00134696
0.00135374
0.00136027
0.00136671
0.00137318
0.00137981
0.0013867
0.00139394
0.0014016
0.00140974
0.00141837
0.00142752
0.00143715
0.00144723
0.0014577
0.00146848
0.00147948
0.0014906
0.00150174
0.00151278
0.00152363
0.00153418
0.00154435
0.00155405
0.00156318
0.00157159
0.00157901
0.00158503
0.00158907
0.00159002
0.0015886
0.00157367
0.000948146
0.000944525
0.000940838
0.000937088
0.000933278
0.000929411
0.000925491
0.000921522
0.000917507
0.000913451
0.00090936
0.000905234
0.000901078
0.000896887
0.000892653
0.00088836
0.000883993
0.000879542
0.000875011
0.000870422
0.000865821
0.000861273
0.000856859
0.000852677
0.000848834
0.000845442
0.000842615
0.000840468
0.00083911
0.000838648
0.000839179
0.000840793
0.000843572
0.00084759
0.000852912
0.000859587
0.000867651
0.000877118
0.000887974
0.000900174
0.000913638
0.000928247
0.000943851
0.000960275
0.000977335
0.000994857
0.00101269
0.00103073
0.00104888
0.00106711
0.0010854
0.0011037
0.00112197
0.00114015
0.00115812
0.00117575
0.00119289
0.00120938
0.00122508
0.00123985
0.0012536
0.00126628
0.00127788
0.00128844
0.00129801
0.00130669
0.00131459
0.00132184
0.00132857
0.0013349
0.00134096
0.00134688
0.00135277
0.00135875
0.00136491
0.00137135
0.00137814
0.00138535
0.00139301
0.00140117
0.00140981
0.00141894
0.00142852
0.00143849
0.00144879
0.00145935
0.00147005
0.0014808
0.00149149
0.00150203
0.00151229
0.0015222
0.00153163
0.00154043
0.00154834
0.00155498
0.0015598
0.00156175
0.00156147
0.00154896
0.000976087
0.000973643
0.000971129
0.000968547
0.0009659
0.000963192
0.000960427
0.000957612
0.000954753
0.00095186
0.000948942
0.000946012
0.000943082
0.000940167
0.000937279
0.000934427
0.000931621
0.000928869
0.000926178
0.000923558
0.000921025
0.0009186
0.000916313
0.000914202
0.000912311
0.000910693
0.000909407
0.000908515
0.000908083
0.000908179
0.000908869
0.000910217
0.000912286
0.000915131
0.000918806
0.000923353
0.000928807
0.00093519
0.000942511
0.000950763
0.000959922
0.000969947
0.000980786
0.000992376
0.00100465
0.00101754
0.001031
0.00104498
0.00105942
0.0010743
0.00108956
0.00110515
0.00112098
0.00113694
0.00115292
0.00116875
0.00118427
0.00119933
0.00121376
0.00122743
0.00124023
0.00125209
0.001263
0.00127296
0.00128201
0.00129024
0.00129773
0.00130459
0.00131092
0.00131685
0.00132249
0.00132794
0.00133332
0.00133872
0.00134424
0.00134995
0.00135595
0.00136229
0.00136903
0.00137621
0.00138386
0.00139198
0.00140058
0.00140961
0.00141906
0.00142884
0.00143889
0.00144911
0.0014594
0.00146967
0.00147981
0.0014897
0.00149924
0.00150826
0.00151653
0.00152368
0.00152921
0.00153213
0.00153297
0.00152296
0.000991727
0.000990177
0.000988567
0.000986897
0.000985169
0.000983385
0.000981551
0.00097967
0.000977749
0.000975795
0.000973818
0.000971828
0.000969837
0.000967857
0.000965902
0.000963985
0.00096212
0.000960321
0.000958599
0.000956968
0.00095544
0.00095403
0.000952753
0.000951629
0.000950679
0.000949928
0.000949406
0.000949144
0.00094918
0.00094955
0.000950298
0.000951463
0.00095309
0.00095522
0.000957894
0.00096115
0.000965026
0.00096955
0.000974749
0.000980641
0.000987238
0.000994544
0.00100256
0.00101127
0.00102068
0.00103077
0.00104151
0.0010529
0.00106491
0.0010775
0.00109063
0.00110422
0.00111819
0.00113242
0.00114679
0.00116115
0.00117533
0.00118917
0.00120251
0.00121522
0.00122719
0.00123833
0.00124861
0.00125804
0.00126663
0.00127444
0.00128155
0.00128805
0.00129403
0.0012996
0.00130486
0.0013099
0.00131482
0.0013197
0.00132465
0.00132972
0.001335
0.00134055
0.00134643
0.00135269
0.00135937
0.00136649
0.00137407
0.0013821
0.00139057
0.00139943
0.00140864
0.00141813
0.00142781
0.00143758
0.00144734
0.001457
0.00146643
0.00147548
0.00148394
0.00149146
0.00149759
0.00150141
0.00150333
0.00149586
0.000999741
0.00099879
0.000997795
0.000996756
0.000995673
0.000994547
0.000993382
0.000992181
0.000990949
0.000989691
0.000988413
0.000987124
0.000985832
0.000984544
0.000983273
0.000982027
0.000980817
0.000979655
0.000978553
0.000977521
0.000976572
0.000975718
0.000974971
0.000974344
0.000973852
0.00097351
0.000973338
0.000973353
0.000973579
0.000974038
0.000974759
0.000975769
0.000977099
0.00097878
0.000980847
0.000983333
0.000986272
0.000989698
0.000993645
0.000998143
0.00100322
0.00100891
0.00101522
0.00102218
0.00102981
0.00103811
0.00104709
0.00105675
0.00106707
0.00107802
0.00108957
0.00110164
0.00111416
0.00112701
0.00114007
0.0011532
0.00116624
0.00117904
0.00119144
0.00120331
0.00121453
0.00122503
0.00123476
0.0012437
0.00125186
0.0012593
0.00126607
0.00127224
0.0012779
0.00128315
0.00128806
0.00129273
0.00129724
0.00130167
0.00130611
0.00131061
0.00131526
0.0013201
0.00132521
0.00133062
0.00133639
0.00134254
0.00134912
0.00135612
0.00136356
0.00137142
0.00137967
0.00138826
0.00139712
0.00140618
0.00141536
0.00142455
0.00143366
0.00144253
0.00145098
0.00145871
0.0014653
0.00146991
0.00147281
0.00146787
0.00100348
0.00100289
0.00100226
0.00100161
0.00100093
0.00100023
0.000999494
0.000998739
0.000997963
0.000997171
0.000996367
0.000995556
0.000994745
0.000993938
0.000993142
0.000992365
0.000991614
0.000990897
0.000990221
0.000989595
0.000989029
0.000988532
0.000988113
0.000987783
0.000987554
0.000987437
0.000987446
0.000987595
0.000987901
0.000988381
0.000989055
0.000989945
0.000991076
0.000992473
0.000994165
0.000996182
0.000998558
0.00100132
0.00100452
0.00100817
0.00101233
0.00101701
0.00102226
0.00102811
0.00103458
0.00104169
0.00104947
0.00105791
0.00106701
0.00107675
0.00108708
0.00109797
0.00110932
0.00112104
0.00113301
0.0011451
0.00115717
0.00116906
0.00118063
0.00119176
0.00120232
0.00121224
0.00122146
0.00122995
0.00123773
0.00124482
0.00125127
0.00125715
0.00126252
0.00126747
0.00127207
0.00127641
0.00128056
0.00128459
0.00128858
0.00129258
0.00129667
0.00130089
0.0013053
0.00130995
0.00131489
0.00132015
0.00132577
0.00133178
0.00133819