/*--------------------------------*- C++ -*----------------------------------*\
  =========                 |
  \\      /  F ield         | OpenFOAM: The Open Source CFD Toolbox
   \\    /   O peration     | Website:  https://openfoam.org
    \\  /    A nd           | Version:  10
     \\/     M anipulation  |
\*---------------------------------------------------------------------------*/
FoamFile
{
    format      ascii;
    class       volScalarField;
    location    "0.1";
    object      p;
}
// * * * * * * * * * * * * * * * * * * * * * * * * * * * * * * * * * * * * * //

dimensions      [0 2 -2 0 0 0 0];

internalField   nonuniform List<scalar> 
6820
(
-8.82888
-10.193
-10.6066
-10.7022
-10.7832
-10.8348
-10.866
-10.8907
-10.9121
-10.931
-10.9486
-10.9653
-10.9814
-10.9971
-11.0125
-11.0276
-11.0424
-11.0571
-11.0716
-11.086
-11.1001
-11.1141
-11.1278
-11.1411
-11.1539
-11.166
-11.1767
-11.1853
-11.1909
-11.1875
-11.1768
-11.1242
-11.022
-11.629
-11.2247
-10.9309
-10.8356
-10.8372
-10.8542
-10.8726
-10.8926
-10.9124
-10.9311
-10.9486
-10.9652
-10.9812
-10.9965
-11.0115
-11.0261
-11.0406
-11.0548
-11.0689
-11.0828
-11.0966
-11.1102
-11.1237
-11.1368
-11.1496
-11.1619
-11.1733
-11.184
-11.1924
-11.204
-11.2056
-11.2547
-11.2877
-10.486
-10.3578
-10.5828
-10.7207
-10.7825
-10.8271
-10.8594
-10.8851
-10.9072
-10.9267
-10.9445
-10.9614
-10.9775
-10.9932
-11.0085
-11.0235
-11.0383
-11.0529
-11.0673
-11.0816
-11.0958
-11.1098
-11.1236
-11.1372
-11.1504
-11.1631
-11.1752
-11.1866
-11.1967
-11.2072
-11.2143
-11.2308
-11.2305
-10.8526
-10.8693
-10.8451
-10.8224
-10.8308
-10.8514
-10.8718
-10.8914
-10.9104
-10.9285
-10.9457
-10.9622
-10.9781
-10.9936
-11.0087
-11.0236
-11.0382
-11.0527
-11.067
-11.0812
-11.0953
-11.1092
-11.123
-11.1365
-11.1499
-11.163
-11.1757
-11.1882
-11.2003
-11.214
-11.2273
-11.2524
-11.279
-10.7426
-10.6886
-10.7326
-10.7775
-10.8129
-10.8431
-10.8681
-10.8898
-10.9097
-10.9281
-10.9453
-10.9618
-10.9776
-10.993
-11.0081
-11.0229
-11.0376
-11.052
-11.0664
-11.0806
-11.0948
-11.1088
-11.1228
-11.1366
-11.1503
-11.1639
-11.1773
-11.1909
-11.2045
-11.2197
-11.2358
-11.2585
-11.2823
-10.7833
-10.7765
-10.7949
-10.8121
-10.8306
-10.8522
-10.8732
-10.8928
-10.9115
-10.9291
-10.9459
-10.9621
-10.9778
-10.9931
-11.0081
-11.0228
-11.0374
-11.0518
-11.0661
-11.0804
-11.0945
-11.1086
-11.1227
-11.1366
-11.1506
-11.1646
-11.1786
-11.193
-11.2079
-11.2243
-11.2423
-11.2647
-11.2898
-10.7825
-10.7717
-10.7866
-10.8083
-10.8304
-10.8531
-10.8742
-10.8937
-10.9121
-10.9295
-10.9462
-10.9622
-10.9777
-10.9929
-11.0078
-11.0225
-11.037
-11.0514
-11.0657
-11.0799
-11.0941
-11.1083
-11.1224
-11.1366
-11.1508
-11.1652
-11.1798
-11.1949
-11.2107
-11.2279
-11.2467
-11.2686
-11.2928
-10.792
-10.789
-10.8022
-10.8203
-10.8387
-10.8582
-10.8774
-10.8958
-10.9134
-10.9303
-10.9466
-10.9623
-10.9777
-10.9927
-11.0075
-11.0221
-11.0365
-11.0509
-11.0651
-11.0794
-11.0936
-11.1078
-11.122
-11.1363
-11.1508
-11.1655
-11.1805
-11.1961
-11.2125
-11.2302
-11.2494
-11.2709
-11.2941
-10.8005
-10.7994
-10.8099
-10.8259
-10.8431
-10.8615
-10.8798
-10.8975
-10.9145
-10.931
-10.9469
-10.9624
-10.9776
-10.9924
-11.0071
-11.0216
-11.0359
-11.0502
-11.0644
-11.0786
-11.0928
-11.1071
-11.1214
-11.1359
-11.1505
-11.1654
-11.1808
-11.1968
-11.2136
-11.2315
-11.2507
-11.2716
-11.2941
-10.8089
-10.8095
-10.8189
-10.8332
-10.8489
-10.8657
-10.8827
-10.8995
-10.9158
-10.9318
-10.9474
-10.9626
-10.9775
-10.9921
-11.0066
-11.021
-11.0352
-11.0494
-11.0636
-11.0777
-11.0919
-11.1062
-11.1205
-11.1351
-11.1499
-11.165
-11.1805
-11.1967
-11.2137
-11.2317
-11.2508
-11.2712
-11.2928
-10.8171
-10.8185
-10.8269
-10.8396
-10.8539
-10.8694
-10.8855
-10.9014
-10.9172
-10.9326
-10.9478
-10.9627
-10.9773
-10.9918
-11.0061
-11.0203
-11.0344
-11.0485
-11.0625
-11.0766
-11.0908
-11.105
-11.1194
-11.134
-11.1488
-11.164
-11.1797
-11.196
-11.213
-11.2309
-11.2497
-11.2696
-11.2904
-10.8249
-10.8267
-10.8343
-10.8457
-10.8589
-10.8733
-10.8883
-10.9035
-10.9185
-10.9335
-10.9482
-10.9627
-10.9771
-10.9913
-11.0054
-11.0195
-11.0334
-11.0474
-11.0614
-11.0754
-11.0894
-11.1036
-11.118
-11.1325
-11.1474
-11.1626
-11.1783
-11.1945
-11.2114
-11.2291
-11.2476
-11.2669
-11.2871
-10.8323
-10.8343
-10.8412
-10.8515
-10.8636
-10.8769
-10.891
-10.9054
-10.9199
-10.9343
-10.9486
-10.9628
-10.9769
-10.9908
-11.0047
-11.0186
-11.0324
-11.0462
-11.06
-11.0739
-11.0878
-11.1019
-11.1162
-11.1307
-11.1455
-11.1607
-11.1763
-11.1924
-11.2091
-11.2264
-11.2445
-11.2633
-11.2827
-10.8392
-10.8412
-10.8475
-10.8569
-10.868
-10.8805
-10.8937
-10.9073
-10.9212
-10.9351
-10.9489
-10.9628
-10.9765
-10.9902
-11.0039
-11.0175
-11.0311
-11.0447
-11.0584
-11.0722
-11.086
-11.1
-11.1141
-11.1285
-11.1432
-11.1582
-11.1736
-11.1895
-11.2059
-11.2229
-11.2405
-11.2587
-11.2774
-10.8455
-10.8475
-10.8533
-10.8619
-10.8722
-10.8838
-10.8962
-10.9092
-10.9224
-10.9358
-10.9492
-10.9627
-10.9761
-10.9895
-11.0029
-11.0163
-11.0297
-11.0431
-11.0566
-11.0702
-11.0839
-11.0977
-11.1117
-11.1259
-11.1404
-11.1552
-11.1703
-11.1859
-11.202
-11.2185
-11.2356
-11.2531
-11.2712
-10.8514
-10.8532
-10.8586
-10.8665
-10.876
-10.8868
-10.8985
-10.9108
-10.9235
-10.9364
-10.9494
-10.9624
-10.9755
-10.9887
-11.0018
-11.0149
-11.0281
-11.0413
-11.0546
-11.068
-11.0814
-11.095
-11.1088
-11.1228
-11.137
-11.1516
-11.1664
-11.1816
-11.1972
-11.2133
-11.2297
-11.2466
-11.2639
-10.8566
-10.8583
-10.8634
-10.8707
-10.8795
-10.8896
-10.9007
-10.9124
-10.9245
-10.9368
-10.9494
-10.9621
-10.9748
-10.9876
-11.0005
-11.0134
-11.0263
-11.0393
-11.0523
-11.0654
-11.0787
-11.092
-11.1055
-11.1193
-11.1332
-11.1474
-11.1619
-11.1766
-11.1918
-11.2072
-11.2231
-11.2392
-11.2557
-10.8614
-10.863
-10.8676
-10.8744
-10.8826
-10.8921
-10.9025
-10.9136
-10.9252
-10.9371
-10.9493
-10.9616
-10.974
-10.9865
-10.999
-11.0116
-11.0243
-11.037
-11.0497
-11.0626
-11.0756
-11.0886
-11.1019
-11.1152
-11.1288
-11.1426
-11.1567
-11.171
-11.1855
-11.2004
-11.2155
-11.2309
-11.2466
-10.8655
-10.867
-10.8714
-10.8776
-10.8853
-10.8943
-10.9041
-10.9147
-10.9258
-10.9372
-10.949
-10.9609
-10.9729
-10.9851
-10.9973
-11.0096
-11.022
-11.0344
-11.0469
-11.0595
-11.0721
-11.0849
-11.0977
-11.1107
-11.1239
-11.1373
-11.1508
-11.1646
-11.1786
-11.1927
-11.2071
-11.2218
-11.2366
-10.8691
-10.8705
-10.8745
-10.8804
-10.8877
-10.8961
-10.9054
-10.9155
-10.9261
-10.9371
-10.9484
-10.96
-10.9717
-10.9835
-10.9954
-11.0074
-11.0194
-11.0316
-11.0437
-11.056
-11.0683
-11.0807
-11.0932
-11.1058
-11.1185
-11.1314
-11.1444
-11.1575
-11.1709
-11.1844
-11.198
-11.2118
-11.2257
-10.8721
-10.8734
-10.8772
-10.8827
-10.8895
-10.8975
-10.9064
-10.916
-10.9261
-10.9367
-10.9477
-10.9588
-10.9702
-10.9817
-10.9933
-11.0049
-11.0166
-11.0284
-11.0403
-11.0521
-11.0641
-11.0761
-11.0882
-11.1003
-11.1126
-11.1249
-11.1373
-11.1499
-11.1625
-11.1752
-11.1881
-11.201
-11.214
-10.8745
-10.8757
-10.8793
-10.8845
-10.8909
-10.8984
-10.9069
-10.9161
-10.9259
-10.9361
-10.9466
-10.9574
-10.9684
-10.9796
-10.9908
-11.0022
-11.0135
-11.025
-11.0365
-11.048
-11.0595
-11.0711
-11.0827
-11.0944
-11.1061
-11.1179
-11.1297
-11.1416
-11.1535
-11.1655
-11.1774
-11.1895
-11.2015
-10.8763
-10.8775
-10.8808
-10.8857
-10.8918
-10.899
-10.9071
-10.9159
-10.9253
-10.9351
-10.9453
-10.9558
-10.9664
-10.9772
-10.9882
-10.9991
-11.0102
-11.0213
-11.0324
-11.0435
-11.0546
-11.0657
-11.0769
-11.088
-11.0992
-11.1104
-11.1216
-11.1327
-11.1439
-11.1551
-11.1662
-11.1773
-11.1883
-10.8775
-10.8786
-10.8818
-10.8864
-10.8922
-10.899
-10.9068
-10.9152
-10.9242
-10.9337
-10.9436
-10.9537
-10.9641
-10.9745
-10.9851
-10.9958
-11.0065
-11.0172
-11.0279
-11.0386
-11.0493
-11.06
-11.0706
-11.0812
-11.0918
-11.1023
-11.1129
-11.1233
-11.1337
-11.144
-11.1543
-11.1645
-11.1745
-10.8781
-10.8791
-10.8821
-10.8866
-10.8921
-10.8986
-10.9061
-10.9142
-10.9229
-10.9321
-10.9417
-10.9515
-10.9615
-10.9717
-10.9819
-10.9922
-11.0026
-11.0129
-11.0232
-11.0335
-11.0437
-11.0539
-11.064
-11.0741
-11.0841
-11.094
-11.1038
-11.1135
-11.1231
-11.1326
-11.142
-11.1512
-11.1602
-10.878
-10.879
-10.8818
-10.886
-10.8912
-10.8975
-10.9046
-10.9125
-10.9209
-10.9298
-10.9391
-10.9486
-10.9583
-10.9682
-10.9781
-10.9881
-10.9981
-11.0081
-11.018
-11.0278
-11.0376
-11.0473
-11.0569
-11.0664
-11.0758
-11.085
-11.0942
-11.1031
-11.112
-11.1206
-11.1291
-11.1374
-11.1454
-10.8772
-10.8782
-10.881
-10.885
-10.8901
-10.8962
-10.9032
-10.9109
-10.9191
-10.9278
-10.9368
-10.946
-10.9555
-10.965
-10.9746
-10.9843
-10.9939
-11.0034
-11.0129
-11.0223
-11.0316
-11.0408
-11.0498
-11.0587
-11.0675
-11.076
-11.0844
-11.0927
-11.1007
-11.1085
-11.116
-11.1234
-11.1305
-10.8758
-10.8766
-10.8791
-10.8828
-10.8875
-10.8933
-10.9
-10.9074
-10.9155
-10.9239
-10.9327
-10.9418
-10.951
-10.9604
-10.9697
-10.9791
-10.9884
-10.9977
-11.0068
-11.0158
-11.0247
-11.0334
-11.0419
-11.0503
-11.0584
-11.0664
-11.0741
-11.0816
-11.0888
-11.0958
-11.1025
-11.1089
-11.115
-10.8737
-10.8747
-10.8774
-10.8813
-10.8862
-10.8921
-10.8987
-10.9061
-10.9139
-10.9222
-10.9307
-10.9395
-10.9485
-10.9574
-10.9664
-10.9754
-10.9843
-10.9931
-11.0018
-11.0103
-11.0186
-11.0268
-11.0347
-11.0424
-11.0499
-11.0572
-11.0641
-11.0708
-11.0773
-11.0834
-11.0892
-11.0947
-11.0999
-10.8704
-10.8707
-10.8723
-10.8754
-10.8797
-10.8852
-10.8917
-10.899
-10.9068
-10.9152
-10.9238
-10.9327
-10.9417
-10.9507
-10.9596
-10.9685
-10.9773
-10.9859
-10.9944
-11.0026
-11.0106
-11.0184
-11.0259
-11.0332
-11.0401
-11.0468
-11.0532
-11.0592
-11.0649
-11.0703
-11.0753
-11.08
-11.0843
-10.8679
-10.8699
-10.873
-10.877
-10.8818
-10.8874
-10.8938
-10.9008
-10.9083
-10.9162
-10.9243
-10.9327
-10.9411
-10.9495
-10.9579
-10.9662
-10.9744
-10.9825
-10.9903
-10.9979
-11.0053
-11.0124
-11.0193
-11.0259
-11.0321
-11.038
-11.0436
-11.0489
-11.0538
-11.0583
-11.0624
-11.0662
-11.0696
-10.8598
-10.8577
-10.8574
-10.8595
-10.8638
-10.8698
-10.8768
-10.8848
-10.8933
-10.9021
-10.9112
-10.9203
-10.9295
-10.9385
-10.9474
-10.9561
-10.9646
-10.9728
-10.9808
-10.9884
-10.9957
-11.0027
-11.0094
-11.0157
-11.0216
-11.0271
-11.0322
-11.037
-11.0413
-11.0452
-11.0487
-11.0518
-11.0544
-10.8649
-10.8703
-10.8745
-10.8775
-10.8811
-10.8857
-10.8912
-10.8974
-10.9042
-10.9114
-10.9189
-10.9266
-10.9343
-10.9421
-10.9498
-10.9574
-10.9649
-10.9721
-10.9791
-10.9858
-10.9923
-10.9984
-11.0042
-11.0097
-11.0147
-11.0194
-11.0237
-11.0276
-11.0311
-11.0342
-11.0368
-11.039
-11.0407
-10.8355
-10.8245
-10.8211
-10.8248
-10.832
-10.8409
-10.8508
-10.8612
-10.8719
-10.8827
-10.8933
-10.9037
-10.9137
-10.9235
-10.9329
-10.9418
-10.9504
-10.9586
-10.9664
-10.9737
-10.9806
-10.987
-10.993
-10.9985
-11.0036
-11.0082
-11.0123
-11.0159
-11.0191
-11.0218
-11.024
-11.0256
-11.0268
-10.8826
-10.8986
-10.8999
-10.894
-10.8916
-10.8924
-10.8951
-10.899
-10.904
-10.9097
-10.9159
-10.9225
-10.9292
-10.9361
-10.9429
-10.9496
-10.9562
-10.9626
-10.9687
-10.9746
-10.9801
-10.9853
-10.9901
-10.9945
-10.9985
-11.0021
-11.0052
-11.0079
-11.0102
-11.012
-11.0133
-11.0141
-11.0144
-10.7728
-10.7347
-10.729
-10.7527
-10.7725
-10.7904
-10.8081
-10.825
-10.8408
-10.8557
-10.8696
-10.8825
-10.8946
-10.906
-10.9165
-10.9264
-10.9356
-10.9442
-10.9522
-10.9595
-10.9663
-10.9725
-10.9781
-10.9832
-10.9877
-10.9916
-10.995
-10.9978
-11.0001
-11.0018
-11.0029
-11.0035
-11.0035
-10.9847
-11.0092
-10.9798
-10.9429
-10.9193
-10.9112
-10.9077
-10.9066
-10.9079
-10.9109
-10.915
-10.9199
-10.9252
-10.9307
-10.9365
-10.9422
-10.9478
-10.9533
-10.9586
-10.9636
-10.9683
-10.9726
-10.9766
-10.9801
-10.9833
-10.986
-10.9882
-10.99
-10.9913
-10.9921
-10.9924
-10.9922
-10.9915
-10.5691
-10.4873
-10.5442
-10.6249
-10.6811
-10.7191
-10.7521
-10.7808
-10.8053
-10.8266
-10.8454
-10.8621
-10.8771
-10.8906
-10.9028
-10.9139
-10.9241
-10.9333
-10.9416
-10.9492
-10.956
-10.9622
-10.9676
-10.9724
-10.9765
-10.98
-10.9828
-10.985
-10.9866
-10.9876
-10.988
-10.9877
-10.9869
-11.5454
-11.2672
-11.0614
-10.9699
-10.9327
-10.9117
-10.8986
-10.8926
-10.8914
-10.8929
-10.8964
-10.901
-10.9064
-10.9122
-10.9182
-10.9243
-10.9302
-10.936
-10.9415
-10.9467
-10.9516
-10.956
-10.96
-10.9636
-10.9667
-10.9693
-10.9714
-10.973
-10.974
-10.9745
-10.9745
-10.974
-10.9729
-9.58727
-10.1488
-10.4533
-10.5692
-10.6504
-10.7135
-10.7582
-10.7918
-10.8187
-10.8406
-10.8588
-10.8744
-10.888
-10.9001
-10.9109
-10.9206
-10.9293
-10.9373
-10.9444
-10.9509
-10.9567
-10.9618
-10.9663
-10.9702
-10.9734
-10.976
-10.978
-10.9794
-10.9802
-10.9804
-10.98
-10.979
-10.9774
-10.8558
-11.0382
-11.1784
-11.2825
-11.3682
-11.4382
-11.5097
-11.5978
-11.7112
-11.8477
-12.0034
-12.1718
-12.3462
-12.5191
-12.6843
-12.8365
-12.9718
-13.0877
-13.1827
-13.2566
-13.3098
-13.3434
-13.3587
-13.357
-13.3398
-13.3083
-13.2638
-13.2073
-13.1397
-13.0617
-12.9737
-12.876
-12.7684
-12.6507
-12.5221
-12.3817
-12.228
-12.0593
-11.8733
-11.6673
-11.4384
-11.1832
-10.8981
-10.5793
-10.2231
-9.82591
-9.3846
-8.89686
-8.3615
-7.77897
-7.15201
-6.48638
-5.79177
-5.0827
-4.37709
-3.69242
-3.04352
-2.44284
-1.90024
-1.42217
-1.01134
-0.666878
-0.385024
-0.160024
0.0149804
0.147196
0.243637
0.310784
0.354407
0.379503
0.390301
0.390315
0.382414
0.368902
0.351599
0.331919
0.310935
0.289446
0.268024
0.24707
0.226848
0.207515
0.189162
0.171816
0.155472
0.140093
0.125633
0.112035
0.0992493
0.0872042
0.0758925
0.0651824
0.0552647
0.045639
0.0374056
0.0281361
0.0232187
0.0108955
0.0167053
-0.0147591
-11.6103
-11.6955
-11.6141
-11.5379
-11.4939
-11.482
-11.5037
-11.5622
-11.6572
-11.7854
-11.9392
-12.1089
-12.2849
-12.4583
-12.6222
-12.7714
-12.9027
-13.0144
-13.1057
-13.1767
-13.2279
-13.2602
-13.2747
-13.2724
-13.2549
-13.2232
-13.1785
-13.122
-13.0544
-12.9765
-12.8886
-12.791
-12.6836
-12.566
-12.4375
-12.297
-12.1431
-11.974
-11.7875
-11.5809
-11.3512
-11.0951
-10.8091
-10.4895
-10.1327
-9.73524
-9.29416
-8.80726
-8.27364
-7.69435
-7.07313
-6.41703
-5.73708
-5.0476
-4.36378
-3.69999
-3.06965
-2.48469
-1.95457
-1.48557
-1.08044
-0.738637
-0.456893
-0.230012
-0.0516909
0.0847852
0.186027
0.258203
0.306858
0.336828
0.35224
0.356545
0.352582
0.342645
0.328563
0.311764
0.293344
0.274126
0.254714
0.235531
0.216868
0.198907
0.181758
0.165469
0.150049
0.135478
0.121724
0.108738
0.0964825
0.0848914
0.073974
0.0635868
0.053965
0.0445359
0.0365617
0.0273044
0.0227853
0.0100223
0.0169664
-0.0163768
-11.2494
-11.2408
-11.2658
-11.3207
-11.3816
-11.4406
-11.5037
-11.5809
-11.6782
-11.7953
-11.93
-12.0777
-12.2328
-12.389
-12.5413
-12.6837
-12.8121
-12.9232
-13.0152
-13.0871
-13.139
-13.1716
-13.1861
-13.1837
-13.1659
-13.1339
-13.0891
-13.0323
-12.9646
-12.8864
-12.7984
-12.7005
-12.5928
-12.4748
-12.3458
-12.2047
-12.0501
-11.8801
-11.6925
-11.4847
-11.2537
-10.9963
-10.7089
-10.3881
-10.0301
-9.63177
-9.19033
-8.70412
-8.17315
-7.59947
-6.98773
-6.34574
-5.68429
-5.01574
-4.35296
-3.709
-3.09655
-2.5269
-2.00904
-1.54902
-1.14962
-0.810601
-0.52913
-0.300547
-0.119076
0.0215216
0.127461
0.204601
0.258254
0.293096
0.313141
0.321776
0.321802
0.315503
0.304708
0.290859
0.275072
0.258196
0.240858
0.223508
0.206462
0.189926
0.17403
0.15884
0.144385
0.130658
0.11764
0.105295
0.0935958
0.0824818
0.0719792
0.0619337
0.0526235
0.0434071
0.0357012
0.0264753
0.0223463
0.00918865
0.0171964
-0.0178792
-11.3567
-11.4466
-11.4839
-11.4932
-11.5031
-11.5227
-11.5583
-11.6157
-11.697
-11.8009
-11.924
-12.0608
-12.2049
-12.3501
-12.4898
-12.6199
-12.737
-12.8385
-12.9231
-12.9901
-13.0393
-13.0709
-13.0856
-13.0841
-13.0674
-13.0366
-12.9926
-12.9365
-12.869
-12.7909
-12.7026
-12.6043
-12.4959
-12.3771
-12.2471
-12.1048
-11.9489
-11.7774
-11.5881
-11.3784
-11.1454
-10.8859
-10.5963
-10.2734
-9.91373
-9.51449
-9.07368
-8.5904
-8.06524
-7.50078
-6.90213
-6.27699
-5.63492
-4.98667
-4.344
-3.71916
-3.12407
-2.56936
-2.06354
-1.6124
-1.21878
-0.882652
-0.601625
-0.371526
-0.187083
-0.0425142
0.0680066
0.150031
0.208639
0.248336
0.273026
0.286021
0.290083
0.287477
0.280031
0.269199
0.256113
0.241645
0.226445
0.210991
0.195619
0.180561
0.165966
0.151921
0.138471
0.125624
0.113377
0.101701
0.0905858
0.0799731
0.0699071
0.0602232
0.0512416
0.0422552
0.0348281
0.0256531
0.0219082
0.00839841
0.0174053
-0.0192601
-11.3224
-11.3549
-11.3698
-11.3934
-11.431
-11.4774
-11.5336
-11.6038
-11.6904
-11.793
-11.9094
-12.0359
-12.1679
-12.3006
-12.4294
-12.5508
-12.6608
-12.7569
-12.8373
-12.9009
-12.9473
-12.9766
-12.9894
-12.9865
-12.9688
-12.9373
-12.893
-12.8366
-12.7688
-12.6904
-12.6015
-12.5024
-12.393
-12.2728
-12.1412
-11.997
-11.8389
-11.665
-11.4731
-11.2607
-11.025
-10.7627
-10.4709
-10.1463
-9.78618
-9.38811
-8.95048
-8.47276
-7.95601
-7.40326
-6.81959
-6.2119
-5.58871
-4.95996
-4.33667
-3.73034
-3.15212
-2.61199
-2.11798
-1.67564
-1.28781
-0.954691
-0.674271
-0.442843
-0.255608
-0.107227
0.00775071
0.0945703
0.158077
0.202606
0.231942
0.249319
0.257454
0.25859
0.25455
0.246796
0.236475
0.224479
0.21148
0.19798
0.18434
0.170812
0.157567
0.144711
0.132306
0.120377
0.108932
0.0979567
0.0874509
0.0773636
0.0677554
0.0584526
0.0498158
0.0410762
0.0339373
0.0248333
0.0214643
0.007648
0.0175811
-0.0205171
-11.3268
-11.3714
-11.4081
-11.4409
-11.4751
-11.514
-11.5622
-11.6238
-11.7009
-11.7931
-11.8984
-12.0133
-12.1337
-12.2553
-12.3736
-12.4848
-12.5857
-12.6739
-12.7478
-12.8064
-12.8492
-12.8763
-12.8878
-12.8843
-12.8665
-12.8351
-12.7908
-12.7343
-12.6663
-12.5873
-12.4976
-12.3973
-12.2864
-12.1643
-12.0304
-11.8837
-11.7227
-11.5458
-11.3509
-11.1355
-10.8971
-10.6326
-10.3393
-10.0144
-9.65514
-9.25962
-8.82662
-8.35609
-7.84941
-7.30953
-6.74105
-6.15033
-5.54532
-4.93539
-4.33085
-3.74246
-3.18064
-2.65473
-2.1723
-1.73866
-1.35663
-1.02662
-0.746976
-0.514406
-0.324565
-0.172535
-0.0532354
0.0382798
0.106621
0.155948
0.189922
0.211696
0.223935
0.228856
0.228275
0.223656
0.216161
0.206697
0.195961
0.184474
0.17262
0.160675
0.148829
0.137207
0.125888
0.114912
0.104304
0.0940582
0.0841891
0.0746515
0.0655226
0.0566208
0.0483451
0.0398698
0.0330281
0.0240161
0.0210131
0.00693911
0.0177189
-0.0216427
-11.3246
-11.3618
-11.393
-11.423
-11.4584
-11.5013
-11.5532
-11.6164
-11.6921
-11.78
-11.8784
-11.9848
-12.0955
-12.2069
-12.3153
-12.4173
-12.5102
-12.5915
-12.6598
-12.7138
-12.753
-12.7772
-12.7865
-12.7814
-12.7623
-12.73
-12.685
-12.6279
-12.5593
-12.4796
-12.3891
-12.2876
-12.1752
-12.0514
-11.9155
-11.7664
-11.6029
-11.4233
-11.2256
-11.0076
-10.7668
-10.5007
-10.2065
-9.88182
-9.52437
-9.13252
-8.70539
-8.24311
-7.74702
-7.21993
-6.66622
-6.0919
-5.5045
-4.91278
-4.32641
-3.75542
-3.20954
-2.69749
-2.22641
-1.80136
-1.42515
-1.09836
-0.819646
-0.58612
-0.393862
-0.238355
-0.114875
-0.0187727
0.0543275
0.10841
0.147006
0.173182
0.189549
0.198293
0.201218
0.199788
0.195176
0.188304
0.179888
0.170471
0.160459
0.150148
0.139749
0.129405
0.119212
0.109228
0.099489
0.0900039
0.0807988
0.0718356
0.0632077
0.054727
0.0468288
0.0386354
0.0320999
0.0232016
0.0205536
0.00627299
0.0178147
-0.0226307
-11.3234
-11.3587
-11.3923
-11.4263
-11.4641
-11.5074
-11.5579
-11.6177
-11.6882
-11.7692
-11.8593
-11.9562
-12.0571
-12.1586
-12.2575
-12.3507
-12.4356
-12.5101
-12.5724
-12.6215
-12.6568
-12.6779
-12.685
-12.6781
-12.6578
-12.6245
-12.5788
-12.521
-12.4516
-12.371
-12.2794
-12.1766
-12.0626
-11.937
-11.7989
-11.6475
-11.4815
-11.2994
-11.0992
-10.879
-10.6365
-10.3693
-10.075
-9.75137
-9.39653
-9.00904
-8.58819
-8.13425
-7.64861
-7.13402
-6.5947
-6.03635
-5.46603
-4.89199
-4.32325
-3.76915
-3.23875
-2.74022
-2.28025
-1.86368
-1.49329
-1.16982
-0.892188
-0.657893
-0.463407
-0.304599
-0.177088
-0.076516
0.00125962
0.0600436
0.103237
0.133814
0.154326
0.166924
0.173397
0.175205
0.173529
0.169305
0.163266
0.155975
0.147858
0.139232
0.130327
0.121305
0.112279
0.103323
0.0944872
0.0857928
0.0772791
0.0689149
0.0608099
0.0527705
0.0452663
0.0373727
0.0311519
0.0223898
0.0200847
0.00565037
0.0178649
-0.0234756
-11.3216
-11.3547
-11.3879
-11.422
-11.4596
-11.5025
-11.5521
-11.6099
-11.6768
-11.7523
-11.8355
-11.9244
-12.0165
-12.109
-12.1991
-12.2839
-12.3613
-12.429
-12.4856
-12.53
-12.5614
-12.5795
-12.5841
-12.5754
-12.5536
-12.5191
-12.4723
-12.4136
-12.3434
-12.2618
-12.169
-12.065
-11.9494
-11.822
-11.682
-11.5285
-11.3603
-11.1759
-10.9737
-10.7517
-10.5079
-10.2401
-9.94607
-9.62396
-9.27203
-8.88909
-8.47464
-8.02904
-7.55376
-7.05148
-6.52625
-5.98346
-5.42978
-4.87292
-4.32127
-3.78356
-3.26821
-2.78283
-2.33374
-1.92555
-1.56098
-1.2409
-0.964511
-0.72963
-0.533107
-0.371178
-0.239792
-0.134875
-0.0525174
0.0109066
0.0586635
0.0936316
0.118298
0.134776
0.144832
0.149923
0.151233
0.14971
0.146101
0.140989
0.134819
0.127927
0.120563
0.112907
0.105088
0.0971966
0.0892978
0.0814244
0.0736294
0.065889
0.0583288
0.050751
0.0436571
0.0360813
0.0301837
0.0215806
0.0196053
0.00507161
0.0178667
-0.0241731
-11.319
-11.3506
-11.3835
-11.4179
-11.4557
-11.4982
-11.5464
-11.6016
-11.6643
-11.7342
-11.8106
-11.8916
-11.9753
-12.0592
-12.1408
-12.2177
-12.2877
-12.3489
-12.3998
-12.4394
-12.4668
-12.4817
-12.4837
-12.4729
-12.4495
-12.4137
-12.3659
-12.3062
-12.2349
-12.1523
-12.0584
-11.953
-11.836
-11.707
-11.5652
-11.4097
-11.2395
-11.0532
-10.8492
-10.6257
-10.3809
-10.1128
-9.81952
-9.49922
-9.15049
-8.77234
-8.36442
-7.92722
-7.46224
-6.97211
-6.4607
-5.93313
-5.39564
-4.85546
-4.32041
-3.79859
-3.29784
-2.82529
-2.38684
-1.98689
-1.62814
-1.31154
-1.03653
-0.80124
-0.602871
-0.438001
-0.302902
-0.193773
-0.106934
-0.0389409
0.0133369
0.0526779
0.0815011
0.101876
0.115548
0.123962
0.128304
0.12953
0.128403
0.125521
0.121348
0.116239
0.110461
0.104213
0.0976416
0.0908506
0.0839216
0.0768993
0.0698501
0.0627582
0.0557644
0.0486685
0.0420011
0.0347613
0.029195
0.0207739
0.0191147
0.00453686
0.0178179
-0.0247203
-11.3156
-11.346
-11.3781
-11.4122
-11.4494
-11.4907
-11.5372
-11.5896
-11.6482
-11.713
-11.783
-11.8569
-11.9328
-12.0088
-12.0824
-12.1517
-12.2147
-12.2696
-12.315
-12.3498
-12.3732
-12.3847
-12.384
-12.3711
-12.3459
-12.3086
-12.2595
-12.1987
-12.1263
-12.0426
-11.9475
-11.8409
-11.7224
-11.5918
-11.4483
-11.2911
-11.1191
-10.9311
-10.7256
-10.501
-10.2556
-9.98754
-9.69523
-9.37706
-9.0318
-8.65864
-8.2574
-7.82865
-7.37392
-6.89579
-6.39795
-5.88524
-5.36353
-4.83954
-4.32058
-3.81417
-3.32761
-2.86752
-2.43948
-2.04766
-1.6947
-1.38165
-1.10815
-0.872633
-0.672605
-0.50498
-0.366331
-0.25313
-0.161919
-0.0894348
-0.032687
0.0110008
0.0439759
0.0682609
0.0855719
0.0973435
0.104759
0.108782
0.110185
0.109582
0.107454
0.104173
0.100026
0.095228
0.089942
0.0842875
0.0783609
0.0722193
0.0659427
0.0595235
0.0531175
0.0465234
0.0402986
0.0334127
0.0281855
0.0199695
0.0186122
0.00404588
0.017717
-0.0251157
-11.3113
-11.3405
-11.3718
-11.4052
-11.4415
-11.4815
-11.526
-11.5754
-11.6302
-11.6899
-11.7539
-11.821
-11.8896
-11.958
-12.0242
-12.0863
-12.1425
-12.1912
-12.2311
-12.2612
-12.2805
-12.2886
-12.2851
-12.2698
-12.2427
-12.2038
-12.1533
-12.0912
-12.0177
-11.9328
-11.8365
-11.7286
-11.6087
-11.4766
-11.3315
-11.1727
-10.9991
-10.8097
-10.6029
-10.3775
-10.1318
-9.86416
-9.57316
-9.25743
-8.9159
-8.54794
-8.15351
-7.73326
-7.28875
-6.82246
-6.33793
-5.83973
-5.33336
-4.8251
-4.32173
-3.83025
-3.35745
-2.90949
-2.49162
-2.10779
-1.7606
-1.45116
-1.17931
-0.94372
-0.742219
-0.572021
-0.429992
-0.312862
-0.217395
-0.140507
-0.0793483
-0.0313476
0.00576666
0.0339664
0.0549364
0.0700954
0.0806218
0.0874825
0.0914605
0.0931829
0.0931463
0.0917397
0.0892662
0.0859579
0.081995
0.0775117
0.0726192
0.0673873
0.0619094
0.0561868
0.0503896
0.0443169
0.0385504
0.032036
0.0271554
0.0191674
0.0180974
0.0035982
0.0175639
-0.0253594
-11.306
-11.3342
-11.3644
-11.3968
-11.4319
-11.4703
-11.5125
-11.559
-11.6098
-11.6646
-11.723
-11.7837
-11.8455
-11.9068
-11.966
-12.0212
-12.0709
-12.1137
-12.1483
-12.1736
-12.1889
-12.1935
-12.1871
-12.1693
-12.1401
-12.0995
-12.0475
-11.984
-11.9092
-11.8231
-11.7255
-11.6163
-11.4951
-11.3615
-11.215
-11.0547
-10.8798
-10.6891
-10.4814
-10.2554
-10.0096
-9.74274
-9.45337
-9.14035
-8.8028
-8.44023
-8.05273
-7.64102
-7.20665
-6.75205
-6.28058
-5.79654
-5.30509
-4.81208
-4.32382
-3.84679
-3.38732
-2.95116
-2.5432
-2.16724
-1.82577
-1.52
-1.24991
-1.01442
-0.811623
-0.639034
-0.493794
-0.372884
-0.273283
-0.192086
-0.126583
-0.0743114
-0.0330779
-0.000965061
0.023677
0.0422476
0.0559176
0.0656549
0.0722498
0.0763409
0.0784392
0.0789493
0.0781905
0.0764113
0.0738078
0.0705294
0.0667018
0.0624078
0.057754
0.052751
0.047583
0.0420509
0.0367576
0.030632
0.0261051
0.0183677
0.0175701
0.00319285
0.0173585
-0.0254534
-11.2998
-11.3269
-11.356
-11.3871
-11.4208
-11.4573
-11.4971
-11.5405
-11.5874
-11.6377
-11.6906
-11.7454
-11.8008
-11.8554
-11.9079
-11.9566
-12.0002
-12.0372
-12.0665
-12.0872
-12.0984
-12.0995
-12.09
-12.0696
-12.0383
-11.9958
-11.9421
-11.8772
-11.801
-11.7135
-11.6146
-11.5041
-11.3816
-11.2467
-11.0988
-10.9372
-10.7611
-10.5694
-10.361
-10.1347
-9.88923
-9.62337
-9.33591
-9.02587
-8.69252
-8.33552
-7.95505
-7.5519
-7.12761
-6.68452
-6.22583
-5.7556
-5.27865
-4.80042
-4.32678
-3.86375
-3.41719
-2.99247
-2.5942
-2.22595
-1.89017
-1.5881
-1.31988
-1.08463
-0.880725
-0.705927
-0.557648
-0.43311
-0.329503
-0.244097
-0.174324
-0.11783
-0.0725049
-0.0364875
-0.00816659
0.0138344
0.0306759
0.043324
0.0525742
0.0590746
0.0633489
0.0658164
0.0668116
0.0665988
0.0653898
0.0633487
0.0606159
0.0572869
0.0534817
0.0492206
0.0447012
0.0397279
0.0349222
0.0292021
0.0250353
0.0175704
0.0170304
0.00282875
0.0171022
-0.0254016
-11.2927
-11.3185
-11.3463
-11.3761
-11.4081
-11.4426
-11.48
-11.5202
-11.5634
-11.6091
-11.6569
-11.706
-11.7554
-11.8038
-11.8499
-11.8925
-11.9301
-11.9616
-11.9858
-12.0019
-12.009
-12.0065
-11.9939
-11.9709
-11.9372
-11.8927
-11.8372
-11.7708
-11.6932
-11.6043
-11.5041
-11.3923
-11.2685
-11.1323
-10.9832
-10.8204
-10.6433
-10.4508
-10.2419
-10.0156
-9.7707
-9.50612
-9.22085
-8.91403
-8.58509
-8.23381
-7.86046
-7.46587
-7.05157
-6.61981
-6.17364
-5.71687
-5.25398
-4.79007
-4.33058
-3.88108
-3.44703
-3.03342
-2.64457
-2.28389
-1.95374
-1.65541
-1.38915
-1.1543
-0.949439
-0.772608
-0.62146
-0.49345
-0.385969
-0.296461
-0.222499
-0.16184
-0.112457
-0.0725505
-0.0405502
-0.0151055
0.00493026
0.020519
0.032459
0.041406
0.0478948
0.052358
0.0551445
0.0565338
0.0567527
0.05598
0.0543702
0.0520322
0.0490989
0.0456009
0.0417486
0.0373516
0.0330471
0.0277482
0.0239473
0.016776
0.0164786
0.00250443
0.0167965
-0.0252097
-11.2845
-11.3091
-11.3356
-11.3638
-11.394
-11.4264
-11.4612
-11.4983
-11.5377
-11.5791
-11.6221
-11.6658
-11.7095
-11.752
-11.7921
-11.8288
-11.8607
-11.8869
-11.9062
-11.9177
-11.9208
-11.9147
-11.8989
-11.8732
-11.8371
-11.7905
-11.7332
-11.665
-11.5859
-11.4956
-11.3941
-11.2809
-11.1559
-11.0185
-10.8682
-10.7044
-10.5264
-10.3334
-10.1243
-9.89819
-9.65412
-9.39111
-9.10827
-8.80491
-8.48056
-8.13513
-7.76896
-7.38293
-6.97851
-6.5579
-6.12397
-5.68028
-5.23106
-4.78101
-4.33518
-3.89876
-3.4768
-3.07396
-2.69429
-2.34101
-2.01643
-1.72185
-1.45765
-1.22332
-1.01768
-0.838986
-0.685139
-0.553812
-0.442593
-0.349096
-0.271032
-0.206272
-0.152873
-0.109099
-0.0734251
-0.0445294
-0.0212817
-0.00272701
0.0119333
0.0233607
0.0320994
0.038594
0.0432069
0.0462319
0.0479103
0.0484354
0.0479758
0.0466532
0.044614
0.0418991
0.0387313
0.0349268
0.031136
0.0262731
0.0228432
0.0159853
0.0159159
0.00221841
0.0164446
-0.0248852
-11.2753
-11.2987
-11.3237
-11.3503
-11.3786
-11.4088
-11.4408
-11.4748
-11.5106
-11.5479
-11.5862
-11.6249
-11.6631
-11.7
-11.7345
-11.7656
-11.7921
-11.8131
-11.8276
-11.8347
-11.8337
-11.8241
-11.8051
-11.7766
-11.738
-11.6892
-11.6299
-11.56
-11.4793
-11.3876
-11.2847
-11.1702
-11.0439
-10.9054
-10.7541
-10.5895
-10.4108
-10.2173
-10.0082
-9.78262
-9.53963
-9.27842
-8.99824
-8.69854
-8.37896
-8.0395
-7.68056
-7.30304
-6.90841
-6.49874
-6.07676
-5.64581
-5.20983
-4.77318
-4.34056
-3.91677
-3.5065
-3.11408
-2.74333
-2.3973
-2.07821
-1.78739
-1.5253
-1.29162
-1.08535
-0.904968
-0.748591
-0.614104
-0.499286
-0.401916
-0.319845
-0.251052
-0.193685
-0.146073
-0.106738
-0.07439
-0.047918
-0.0263768
-0.00896994
0.00496798
0.0159888
0.0245477
0.0310195
0.0357115
0.0388792
0.0407295
0.0414454
0.0411615
0.0400369
0.0381237
0.0356565
0.0324596
0.0291937
0.0247804
0.0217256
0.0151996
0.0153433
0.00196898
0.01605
-0.0244376
-11.2651
-11.2872
-11.3107
-11.3356
-11.3619
-11.3898
-11.4192
-11.4501
-11.4823
-11.5155
-11.5494
-11.5833
-11.6164
-11.648
-11.6772
-11.7029
-11.7242
-11.7403
-11.7501
-11.7529
-11.748
-11.7347
-11.7126
-11.6811
-11.64
-11.589
-11.5277
-11.456
-11.3736
-11.2804
-11.1761
-11.0604
-10.9329
-10.7933
-10.6411
-10.4757
-10.2965
-10.1028
-9.89392
-9.669
-9.42731
-9.16813
-8.89084
-8.59498
-8.28031
-7.94692
-7.59524
-7.22621
-6.84123
-6.44229
-6.03198
-5.61341
-5.19026
-4.76657
-4.3467
-3.93509
-3.53609
-3.15377
-2.79167
-2.4527
-2.13902
-1.85196
-1.59206
-1.35914
-1.15238
-0.970464
-0.811721
-0.67423
-0.555955
-0.454834
-0.368853
-0.296105
-0.234824
-0.183409
-0.140431
-0.104635
-0.0749319
-0.0503888
-0.0302134
-0.0137389
-0.000407341
0.0102455
0.018606
0.024994
0.0296783
0.0328795
0.0347944
0.0355703
0.0353793
0.0342849
0.0325329
0.0299572
0.0272262
0.0232747
0.020598
0.0144209
0.014763
0.00175472
0.0156174
-0.023878
-11.254
-11.2747
-11.2966
-11.3197
-11.344
-11.3696
-11.3963
-11.4241
-11.4529
-11.4822
-11.5118
-11.5411
-11.5694
-11.596
-11.6201
-11.6408
-11.6572
-11.6684
-11.6737
-11.6723
-11.6635
-11.6467
-11.6213
-11.587
-11.5433
-11.49
-11.4266
-11.353
-11.269
-11.1742
-11.0685
-10.9515
-10.8229
-10.6823
-10.5293
-10.3632
-10.1837
-9.99
-9.78148
-9.55747
-9.3173
-9.06036
-8.78614
-8.49429
-8.18466
-7.85741
-7.51302
-7.1524
-6.77694
-6.38854
-5.9896
-5.58306
-5.17232
-4.76114
-4.35356
-3.95369
-3.56558
-3.193
-2.83929
-2.50721
-2.19884
-1.91551
-1.65784
-1.42578
-1.21867
-1.03538
-0.874435
-0.734096
-0.612506
-0.507756
-0.417969
-0.341347
-0.276214
-0.221037
-0.174441
-0.135207
-0.102272
-0.0747165
-0.0517555
-0.0327225
-0.0170554
-0.00428212
0.00599364
0.0141036
0.0203294
0.0249049
0.0280399
0.0298951
0.030655
0.0303948
0.0293709
0.0274285
0.0252409
0.0217619
0.0194649
0.0136517
0.0141777
0.0015743
0.0151519
-0.0232188
-11.242
-11.2613
-11.2816
-11.3029
-11.3251
-11.3482
-11.3723
-11.3971
-11.4225
-11.4481
-11.4737
-11.4986