/*--------------------------------*- C++ -*----------------------------------*\
  =========                 |
  \\      /  F ield         | OpenFOAM: The Open Source CFD Toolbox
   \\    /   O peration     | Website:  https://openfoam.org
    \\  /    A nd           | Version:  10
     \\/     M anipulation  |
\*---------------------------------------------------------------------------*/
FoamFile
{
    format      ascii;
    class       surfaceScalarField;
    location    "0.1";
    object      phi;
}
// * * * * * * * * * * * * * * * * * * * * * * * * * * * * * * * * * * * * * //

dimensions      [0 3 -1 0 0 0 0];

internalField   nonuniform List<scalar> 
13452
(
6.05771e-05
-3.08602e-07
6.03706e-05
2.06462e-07
5.98985e-05
4.72133e-07
5.92844e-05
6.14057e-07
5.86785e-05
6.05874e-07
5.81411e-05
5.37485e-07
5.76746e-05
4.66456e-07
5.72691e-05
4.05548e-07
5.69131e-05
3.55976e-07
5.65967e-05
3.16372e-07
5.63121e-05
2.84557e-07
5.60536e-05
2.58571e-07
5.58166e-05
2.36935e-07
5.55981e-05
2.18578e-07
5.53953e-05
2.0274e-07
5.52064e-05
1.88879e-07
5.50298e-05
1.76613e-07
5.48642e-05
1.65667e-07
5.47083e-05
1.55843e-07
5.45613e-05
1.46998e-07
5.44223e-05
1.3904e-07
5.42904e-05
1.31916e-07
5.41647e-05
1.2562e-07
5.40445e-05
1.20214e-07
5.39287e-05
1.15839e-07
5.38158e-05
1.12896e-07
5.37039e-05
1.1191e-07
5.3589e-05
1.14864e-07
5.34646e-05
1.24433e-07
5.33179e-05
1.46671e-07
5.31009e-05
2.17063e-07
5.27902e-05
3.10662e-07
5.67429e-07
5.22228e-05
6.18026e-05
-1.20885e-07
6.17624e-05
2.46654e-07
6.18791e-05
3.55442e-07
6.20404e-05
4.52799e-07
6.21467e-05
4.9953e-07
6.21756e-05
5.08571e-07
6.21416e-05
5.00446e-07
6.20655e-05
4.81668e-07
6.19637e-05
4.57804e-07
6.18474e-05
4.32698e-07
6.17238e-05
4.08171e-07
6.15973e-05
3.84978e-07
6.14709e-05
3.6339e-07
6.1346e-05
3.43435e-07
6.12237e-05
3.25033e-07
6.11046e-05
3.08061e-07
6.09888e-05
2.92397e-07
6.08765e-05
2.77925e-07
6.07678e-05
2.6455e-07
6.06626e-05
2.52195e-07
6.05608e-05
2.40809e-07
6.04624e-05
2.30372e-07
6.03671e-05
2.20901e-07
6.02749e-05
2.1247e-07
6.01855e-05
2.05235e-07
6.00989e-05
1.99498e-07
6.00149e-05
1.95832e-07
5.99347e-05
1.95061e-07
5.98593e-05
1.99862e-07
5.97966e-05
2.09353e-07
5.97717e-05
2.42016e-07
5.98201e-05
2.62203e-07
3.62687e-07
6.00249e-05
6.36612e-05
-2.06958e-08
6.37527e-05
1.55168e-07
6.38146e-05
2.93516e-07
6.38672e-05
4.00197e-07
6.39101e-05
4.56673e-07
6.39415e-05
4.77138e-07
6.39617e-05
4.80268e-07
6.39691e-05
4.74288e-07
6.39641e-05
4.62814e-07
6.39484e-05
4.48405e-07
6.3924e-05
4.3258e-07
6.38927e-05
4.16209e-07
6.38563e-05
3.99828e-07
6.3816e-05
3.83762e-07
6.37728e-05
3.68194e-07
6.37276e-05
3.53229e-07
6.36811e-05
3.38923e-07
6.36337e-05
3.25307e-07
6.35859e-05
3.12402e-07
6.35378e-05
3.00227e-07
6.34898e-05
2.88811e-07
6.3442e-05
2.78202e-07
6.33944e-05
2.68481e-07
6.33471e-05
2.59779e-07
6.33e-05
2.52319e-07
6.32531e-05
2.46428e-07
6.32062e-05
2.42767e-07
6.31593e-05
2.41911e-07
6.31127e-05
2.4643e-07
6.30672e-05
2.54908e-07
6.30292e-05
2.80047e-07
6.29908e-05
3.0054e-07
3.66162e-07
6.29873e-05
6.55759e-05
-1.3546e-08
6.55536e-05
1.77496e-07
6.55643e-05
2.82811e-07
6.5605e-05
3.59515e-07
6.56539e-05
4.07761e-07
6.56988e-05
4.32226e-07
6.57361e-05
4.42967e-07
6.57655e-05
4.44917e-07
6.57875e-05
4.40831e-07
6.58028e-05
4.33022e-07
6.58124e-05
4.22985e-07
6.5817e-05
4.11608e-07
6.58174e-05
3.99475e-07
6.58142e-05
3.86981e-07
6.5808e-05
3.74391e-07
6.57993e-05
3.6189e-07
6.57886e-05
3.49612e-07
6.57763e-05
3.37657e-07
6.57626e-05
3.26111e-07
6.57477e-05
3.15047e-07
6.5732e-05
3.04548e-07
6.57155e-05
2.94706e-07
6.56983e-05
2.85649e-07
6.56806e-05
2.77543e-07
6.56623e-05
2.70643e-07
6.56434e-05
2.65283e-07
6.56241e-05
2.62065e-07
6.56045e-05
2.61484e-07
6.55857e-05
2.6526e-07
6.5568e-05
2.72595e-07
6.55588e-05
2.89264e-07
6.55555e-05
3.03808e-07
3.31754e-07
6.55899e-05
6.74265e-05
1.67439e-08
6.74514e-05
1.52572e-07
6.74797e-05
2.54511e-07
6.75106e-05
3.28608e-07
6.75413e-05
3.77066e-07
6.7571e-05
4.02512e-07
6.75997e-05
4.14334e-07
6.76265e-05
4.18074e-07
6.76509e-05
4.1644e-07
6.76726e-05
4.11369e-07
6.76914e-05
4.04108e-07
6.77076e-05
3.95405e-07
6.77213e-05
3.85766e-07
6.77328e-05
3.75549e-07
6.77422e-05
3.65009e-07
6.77497e-05
3.54334e-07
6.77557e-05
3.4367e-07
6.77602e-05
3.33138e-07
6.77634e-05
3.22841e-07
6.77656e-05
3.12879e-07
6.77668e-05
3.03356e-07
6.77671e-05
2.94387e-07
6.77667e-05
2.86118e-07
6.77655e-05
2.7873e-07
6.77636e-05
2.72477e-07
6.77612e-05
2.67667e-07
6.77585e-05
2.64796e-07
6.77557e-05
2.64248e-07
6.77539e-05
2.67088e-07
6.77537e-05
2.72785e-07
6.77592e-05
2.83823e-07
6.77689e-05
2.94056e-07
3.08676e-07
6.7792e-05
6.93768e-05
2.39488e-08
6.93864e-05
1.42961e-07
6.94048e-05
2.36171e-07
6.94309e-05
3.02443e-07
6.94607e-05
3.47291e-07
6.94903e-05
3.72943e-07
6.95184e-05
3.86196e-07
6.95448e-05
3.9166e-07
6.95695e-05
3.91786e-07
6.95925e-05
3.88394e-07
6.96139e-05
3.82721e-07
6.96337e-05
3.75529e-07
6.96522e-05
3.67325e-07
6.96693e-05
3.5846e-07
6.96851e-05
3.49184e-07
6.96997e-05
3.39684e-07
6.97133e-05
3.30105e-07
6.97259e-05
3.20571e-07
6.97375e-05
3.1119e-07
6.97483e-05
3.02067e-07
6.97584e-05
2.93314e-07
6.97677e-05
2.85051e-07
6.97764e-05
2.77426e-07
6.97845e-05
2.70614e-07
6.97921e-05
2.64845e-07
6.97994e-05
2.6038e-07
6.98066e-05
2.57591e-07
6.98141e-05
2.56743e-07
6.98228e-05
2.58411e-07
6.98334e-05
2.62182e-07
6.98484e-05
2.6882e-07
6.98676e-05
2.7488e-07
2.81165e-07
6.98951e-05
7.13593e-05
3.09675e-08
7.1371e-05
1.31301e-07
7.13921e-05
2.15095e-07
7.1418e-05
2.76506e-07
7.14456e-05
3.19652e-07
7.14727e-05
3.45908e-07
7.14986e-05
3.60266e-07
7.15234e-05
3.6685e-07
7.15471e-05
3.68089e-07
7.15698e-05
3.65743e-07
7.15914e-05
3.61034e-07
7.16122e-05
3.54738e-07
7.16322e-05
3.47373e-07
7.16513e-05
3.39298e-07
7.16698e-05
3.30769e-07
7.16875e-05
3.21975e-07
7.17045e-05
3.13064e-07
7.17209e-05
3.0416e-07
7.17367e-05
2.95371e-07
7.1752e-05
2.86804e-07
7.17667e-05
2.78567e-07
7.1781e-05
2.7078e-07
7.17949e-05
2.63579e-07
7.18084e-05
2.57123e-07
7.18216e-05
2.51604e-07
7.18347e-05
2.47227e-07
7.18481e-05
2.44247e-07
7.1862e-05
2.42821e-07
7.18772e-05
2.43199e-07
7.18944e-05
2.45017e-07
7.19149e-05
2.48278e-07
7.19389e-05
2.50954e-07
2.52559e-07
7.19675e-05
7.34033e-05
3.2918e-08
7.3414e-05
1.20609e-07
7.34327e-05
1.96412e-07
7.34561e-05
2.53125e-07
7.34819e-05
2.93794e-07
7.35081e-05
3.19774e-07
7.35335e-05
3.34791e-07
7.35581e-05
3.42317e-07
7.35816e-05
3.44558e-07
7.36042e-05
3.43135e-07
7.3626e-05
3.39225e-07
7.36471e-05
3.33619e-07
7.36677e-05
3.26853e-07
7.36877e-05
3.1931e-07
7.37072e-05
3.1126e-07
7.37262e-05
3.02906e-07
7.37449e-05
2.94403e-07
7.37632e-05
2.85879e-07
7.37811e-05
2.77445e-07
7.37987e-05
2.69207e-07
7.3816e-05
2.6127e-07
7.3833e-05
2.53745e-07
7.38499e-05
2.46755e-07
7.38665e-05
2.40435e-07
7.38832e-05
2.34935e-07
7.39e-05
2.30406e-07
7.39173e-05
2.27004e-07
7.39353e-05
2.24796e-07
7.39547e-05
2.23835e-07
7.39759e-05
2.2379e-07
7.39998e-05
2.24369e-07
7.40264e-05
2.24321e-07
2.22934e-07
7.40561e-05
7.55023e-05
3.31225e-08
7.55123e-05
1.10582e-07
7.553e-05
1.78743e-07
7.55522e-05
2.30924e-07
7.55768e-05
2.69126e-07
7.5602e-05
2.94558e-07
7.56269e-05
3.09955e-07
7.5651e-05
3.18175e-07
7.56744e-05
3.21209e-07
7.5697e-05
3.20547e-07
7.57189e-05
3.1731e-07
7.57402e-05
3.12279e-07
7.57611e-05
3.06001e-07
7.57815e-05
2.98871e-07
7.58016e-05
2.91174e-07
7.58214e-05
2.83124e-07
7.58409e-05
2.74887e-07
7.58602e-05
2.66595e-07
7.58793e-05
2.58365e-07
7.58982e-05
2.503e-07
7.59169e-05
2.42503e-07
7.59356e-05
2.35074e-07
7.59542e-05
2.28121e-07
7.59729e-05
2.21754e-07
7.59918e-05
2.16084e-07
7.6011e-05
2.11211e-07
7.60307e-05
2.07216e-07
7.60514e-05
2.04101e-07
7.60735e-05
2.0181e-07
7.60972e-05
2.00045e-07
7.61231e-05
1.98446e-07
7.61512e-05
1.96208e-07
1.92727e-07
7.61815e-05
7.76607e-05
3.19768e-08
7.76703e-05
1.00987e-07
7.76868e-05
1.62262e-07
7.77075e-05
2.10175e-07
7.77308e-05
2.45844e-07
7.77551e-05
2.70333e-07
7.77793e-05
2.85712e-07
7.78031e-05
2.94324e-07
7.78264e-05
2.9793e-07
7.78491e-05
2.9788e-07
7.78712e-05
2.95213e-07
7.78928e-05
2.90681e-07
7.7914e-05
2.84827e-07
7.79348e-05
2.7805e-07
7.79553e-05
2.70645e-07
7.79756e-05
2.62834e-07
7.79957e-05
2.54789e-07
7.80156e-05
2.4665e-07
7.80355e-05
2.38534e-07
7.80552e-05
2.30545e-07
7.8075e-05
2.2278e-07
7.80947e-05
2.1533e-07
7.81145e-05
2.08287e-07
7.81346e-05
2.01736e-07
7.81549e-05
1.95755e-07
7.81757e-05
1.90403e-07
7.81972e-05
1.85708e-07
7.82197e-05
1.81628e-07
7.82434e-05
1.78057e-07
7.82687e-05
1.74732e-07
7.82959e-05
1.71319e-07
7.83248e-05
1.67285e-07
1.62196e-07
7.83553e-05
7.98802e-05
3.01017e-08
7.98893e-05
9.18719e-08
7.99047e-05
1.46882e-07
7.99242e-05
1.90666e-07
7.99463e-05
2.23743e-07
7.99696e-05
2.47019e-07
7.99932e-05
2.62083e-07
8.00167e-05
2.70829e-07
8.00399e-05
2.74797e-07
8.00626e-05
2.75194e-07
8.00848e-05
2.72973e-07
8.01066e-05
2.68851e-07
8.01281e-05
2.63354e-07
8.01493e-05
2.56877e-07
8.01702e-05
2.49717e-07
8.01909e-05
2.421e-07
8.02115e-05
2.34203e-07
8.0232e-05
2.26167e-07
8.02524e-05
2.1811e-07
8.02728e-05
2.10135e-07
8.02933e-05
2.0233e-07
8.03138e-05
1.9478e-07
8.03346e-05
1.87558e-07
8.03556e-05
1.80729e-07
8.0377e-05
1.74345e-07
8.0399e-05
1.68432e-07
8.04217e-05
1.62982e-07
8.04454e-05
1.57932e-07
8.04703e-05
1.53155e-07
8.04966e-05
1.4843e-07
8.05244e-05
1.43479e-07
8.05538e-05
1.37939e-07
1.31522e-07
8.05844e-05
8.21627e-05
2.78326e-08
8.21714e-05
8.31817e-08
8.21858e-05
1.32478e-07
8.22042e-05
1.72294e-07
8.22252e-05
2.02763e-07
8.22476e-05
2.2462e-07
8.22705e-05
2.39101e-07
8.22936e-05
2.47737e-07
8.23166e-05
2.51856e-07
8.23392e-05
2.52533e-07
8.23616e-05
2.50633e-07
8.23836e-05
2.46824e-07
8.24053e-05
2.41611e-07
8.24268e-05
2.35379e-07
8.24481e-05
2.28419e-07
8.24693e-05
2.20957e-07
8.24903e-05
2.1317e-07
8.25113e-05
2.052e-07
8.25322e-05
1.97163e-07
8.25532e-05
1.89155e-07
8.25743e-05
1.81262e-07
8.25955e-05
1.73555e-07
8.2617e-05
1.66095e-07
8.26388e-05
1.58928e-07
8.2661e-05
1.52085e-07
8.26839e-05
1.4557e-07
8.27075e-05
1.39353e-07
8.27321e-05
1.3336e-07
8.27578e-05
1.27468e-07
8.27847e-05
1.21494e-07
8.2813e-05
1.15218e-07
8.28425e-05
1.08391e-07
1.00827e-07
8.28732e-05
8.45102e-05
2.53857e-08
8.45185e-05
7.49051e-08
8.4532e-05
1.18957e-07
8.45494e-05
1.54953e-07
8.45693e-05
1.828e-07
8.45909e-05
2.03078e-07
8.46132e-05
2.16756e-07
8.46359e-05
2.25069e-07
8.46586e-05
2.29152e-07
8.46812e-05
2.29951e-07
8.47035e-05
2.28246e-07
8.47257e-05
2.24653e-07
8.47477e-05
2.19647e-07
8.47695e-05
2.13598e-07
8.47911e-05
2.06789e-07
8.48126e-05
1.99442e-07
8.48341e-05
1.9173e-07
8.48555e-05
1.83791e-07
8.48769e-05
1.75738e-07
8.48984e-05
1.67663e-07
8.492e-05
1.59643e-07
8.49418e-05
1.5174e-07
8.49639e-05
1.44002e-07
8.49864e-05
1.36461e-07
8.50093e-05
1.29132e-07
8.50329e-05
1.22003e-07
8.50572e-05
1.15034e-07
8.50824e-05
1.0815e-07
8.51087e-05
1.0124e-07
8.5136e-05
9.41549e-08
8.51645e-05
8.67267e-08
8.51941e-05
7.87811e-08
7.02026e-08
8.52247e-05
8.69247e-05
2.28893e-08
8.69325e-05
6.70226e-08
8.69453e-05
1.06223e-07
8.69617e-05
1.38538e-07
8.69807e-05
1.63767e-07
8.70015e-05
1.82343e-07
8.70232e-05
1.95035e-07
8.70454e-05
2.02838e-07
8.70679e-05
2.06713e-07
8.70903e-05
2.07487e-07
8.71127e-05
2.05855e-07
8.7135e-05
2.02379e-07
8.71571e-05
1.97504e-07
8.71791e-05
1.91577e-07
8.72011e-05
1.84869e-07
8.72229e-05
1.77594e-07
8.72447e-05
1.6992e-07
8.72665e-05
1.6198e-07
8.72884e-05
1.53881e-07
8.73103e-05
1.45709e-07
8.73325e-05
1.37533e-07
8.73548e-05
1.29406e-07
8.73774e-05
1.21365e-07
8.74005e-05
1.13432e-07
8.7424e-05
1.05609e-07
8.74481e-05
9.78763e-08
8.74729e-05
9.01903e-08
8.74986e-05
8.24797e-08
8.75252e-05
7.46483e-08
8.75528e-05
6.65782e-08
8.75814e-05
5.81424e-08
8.76109e-05
4.92174e-08
3.97335e-08
8.76414e-05
8.9408e-05
2.04172e-08
8.94155e-05
5.95147e-08
8.94275e-05
9.41904e-08
8.94431e-05
1.22959e-07
8.94613e-05
1.45576e-07
8.94813e-05
1.62359e-07
8.95024e-05
1.73914e-07
8.95242e-05
1.81043e-07
8.95464e-05
1.84555e-07
8.95687e-05
1.85167e-07
8.95911e-05
1.83493e-07
8.96134e-05
1.80042e-07
8.96357e-05
1.75221e-07
8.96579e-05
1.69354e-07
8.96801e-05
1.62697e-07
8.97022e-05
1.55454e-07
8.97244e-05
1.47783e-07
8.97465e-05
1.39812e-07
8.97688e-05
1.3164e-07
8.97911e-05
1.23347e-07
8.98137e-05
1.14994e-07
8.98364e-05
1.06625e-07
8.98595e-05
9.82692e-08
8.9883e-05
8.99399e-08
8.9907e-05
8.16319e-08
8.99316e-05
7.33213e-08
8.99568e-05
6.49646e-08
8.99828e-05
5.64983e-08
9.00096e-05
4.78418e-08
9.00373e-05
3.89026e-08
9.00658e-05
2.95856e-08
9.00952e-05
1.9802e-08
9.5124e-09
9.01254e-05
9.19623e-05
1.80087e-08
9.19694e-05
5.2359e-08
9.19808e-05
8.27815e-08
9.19957e-05
1.08129e-07
9.20131e-05
1.2815e-07
9.20324e-05
1.43068e-07
9.20529e-05
1.53361e-07
9.20743e-05
1.59675e-07
9.20962e-05
1.62687e-07
9.21183e-05
1.63011e-07
9.21406e-05
1.61188e-07
9.2163e-05
1.57671e-07
9.21854e-05
1.52831e-07
9.22078e-05
1.46965e-07
9.22302e-05
1.40312e-07
9.22526e-05
1.33061e-07
9.2275e-05
1.25362e-07
9.22975e-05
1.17333e-07
9.232e-05
1.09066e-07
9.23427e-05
1.00634e-07
9.23656e-05
9.209e-08
9.23888e-05
8.34716e-08
9.24123e-05
7.48009e-08
9.24361e-05
6.60843e-08
9.24604e-05
5.7313e-08
9.24853e-05
4.84618e-08
9.25108e-05
3.94904e-08
9.25369e-05
3.0344e-08
9.25638e-05
2.09567e-08
9.25915e-05
1.1257e-08
9.26199e-05
1.17372e-09
9.2649e-05
-9.35734e-09
-2.03554e-08
9.26789e-05
9.45895e-05
1.56824e-08
9.45963e-05
4.55306e-08
9.46072e-05
7.19277e-08
9.46213e-05
9.39677e-08
9.46381e-05
1.11413e-07
9.46567e-05
1.24412e-07
9.46767e-05
1.33341e-07
9.46977e-05
1.3872e-07
9.47193e-05
1.41108e-07
9.47413e-05
1.41032e-07
9.47635e-05
1.38961e-07
9.47859e-05
1.35294e-07
9.48083e-05
1.30365e-07
9.48308e-05
1.24444e-07
9.48534e-05
1.1775e-07
9.4876e-05
1.10455e-07
9.48987e-05
1.02699e-07
9.49214e-05
9.45903e-08
9.49443e-05
8.62127e-08
9.49673e-05
7.76308e-08
9.49905e-05
6.88913e-08
9.50139e-05
6.00253e-08
9.50377e-05
5.10493e-08
9.50618e-05
4.19658e-08
9.50863e-05
3.27638e-08
9.51114e-05
2.34193e-08
9.5137e-05
1.38962e-08
9.51632e-05
4.14893e-09
9.519e-05
-5.87531e-09
9.52175e-05
-1.62315e-08
9.52456e-05
-2.69722e-08
9.52744e-05
-3.81441e-08
-4.9752e-08
9.53038e-05
9.72918e-05
1.3444e-08
9.72983e-05
3.90033e-08
9.73086e-05
6.15672e-08
9.73222e-05
8.04041e-08
9.73383e-05
9.52959e-08
9.73564e-05
1.06337e-07
9.73759e-05
1.13818e-07
9.73965e-05
1.18156e-07
9.74178e-05
1.19814e-07
9.74396e-05
1.19237e-07
9.74617e-05
1.16826e-07
9.74841e-05
1.12933e-07
9.75066e-05
1.07851e-07
9.75292e-05
1.01823e-07
9.75519e-05
9.50458e-08
9.75747e-05
8.76763e-08
9.75975e-05
7.98399e-08
9.76205e-05
7.16347e-08
9.76436e-05
6.31363e-08
9.76668e-05
5.44013e-08
9.76902e-05
4.54699e-08
9.77139e-05
3.63675e-08
9.77378e-05
2.71065e-08
9.77621e-05
1.76866e-08
9.77868e-05
8.09639e-09
9.78119e-05
-1.68599e-09
9.78375e-05
-1.16913e-08
9.78636e-05
-2.19569e-08
9.78902e-05
-3.25241e-08
9.79174e-05
-4.34344e-08
9.79452e-05
-5.47261e-08
9.79735e-05
-6.6433e-08
-7.85492e-08
9.80023e-05
0.000100071
1.12927e-08
0.000100077
3.27499e-08
0.000100087
5.1644e-08
0.0001001
6.73713e-08
0.000100116
7.97343e-08
0.000100134
8.87867e-08
0.000100153
9.47512e-08
0.000100173
9.79615e-08
0.000100194
9.87956e-08
0.000100215
9.76258e-08
0.000100237
9.47951e-08
0.00010026
9.06053e-08
0.000100282
8.53131e-08
0.000100305
7.91317e-08
0.000100328
7.22354e-08
0.000100351
6.47642e-08
0.000100374
5.68294e-08
0.000100397
4.85179e-08
0.00010042
3.98958e-08
0.000100444
3.10123e-08
0.000100467
2.19011e-08
0.000100491
1.25828e-08
0.000100515
3.06647e-09
0.000100539
-6.64978e-09
0.000100564
-1.6577e-08
0.000100589
-2.67341e-08
0.000100614
-3.71468e-08
0.00010064
-4.78446e-08
0.000100667
-5.88592e-08
0.000100693
-7.02212e-08
0.000100721
-8.19579e-08
0.000100748
-9.40929e-08
-1.06612e-07
0.000100776
0.00010293
9.22326e-09
0.000102936
2.67433e-08
0.000102946
4.21077e-08
0.000102958
5.48081e-08
0.000102973
6.4667e-08
0.00010299
7.17085e-08
0.000103009
7.61006e-08
0.000103029
7.81079e-08
0.00010305
7.80372e-08
0.000103071
7.61966e-08
0.000103093
7.2874e-08
0.000103115
6.83257e-08
0.000103138
6.2772e-08
0.000103161
5.63971e-08
0.000103183
4.93522e-08
0.000103206
4.17591e-08
0.00010323
3.37144e-08
0.000103253
2.52932e-08
0.000103276
1.65522e-08
0.0001033
7.53269e-09
0.000103323
-1.73748e-09
0.000103347
-1.12421e-08
0.000103371
-2.0975e-08
0.000103395
-3.09388e-08
0.00010342
-4.11438e-08
0.000103445
-5.16058e-08
0.00010347
-6.23455e-08
0.000103496
-7.33857e-08
0.000103521
-8.475e-08
0.000103548
-9.64601e-08
0.000103574
-1.08534e-07
0.000103601
-1.20988e-07
-1.33801e-07
0.000103628
0.000105871
7.22893e-09
0.000105877
2.09571e-08
0.000105886
3.29116e-08
0.000105898
4.26579e-08
0.000105912
5.00362e-08
0.000105929
5.50497e-08
0.000105947
5.78233e-08
0.000105967
5.85647e-08
0.000105987
5.752e-08
0.000106009
5.49407e-08
0.000106031
5.10643e-08
0.000106053
4.61047e-08
0.000106075
4.02465e-08
0.000106098
3.36453e-08
0.000106121
2.64291e-08
0.000106144
1.87008e-08
0.000106167
1.05419e-08
0.00010619
2.01528e-09
0.000106214
-6.83209e-09
0.000106237
-1.59666e-08
0.000106261
-2.53663e-08
0.000106285
-3.50191e-08
0.000106309
-4.49211e-08
0.000106333
-5.50756e-08
0.000106357
-6.54916e-08
0.000106382
-7.61822e-08
0.000106407
-8.71635e-08
0.000106432
-9.84525e-08
0.000106457
-1.10066e-07
0.000106483
-1.22018e-07
0.000106508
-1.34321e-07
0.000106534
-1.46983e-07
-1.59977e-07
0.00010656
0.000108895
5.3021e-09
0.000108901
1.53661e-08
0.00010891
2.40138e-08
0.000108922
3.08687e-08
0.000108936
3.57873e-08
0.000108952
3.87595e-08
0.00010897
3.98762e-08
0.000108989
3.92982e-08
0.00010901
3.72207e-08
0.000109031
3.38449e-08
0.000109052
2.93625e-08
0.000109075
2.39473e-08
0.000109097
1.77499e-08
0.00010912
1.08978e-08
0.000109143
3.49527e-09
0.000109166
-4.37363e-09
0.000109189
-1.2643e-08
0.000109212
-2.12626e-08
0.000109236
-3.01953e-08
0.000109259
-3.94153e-08
0.000109283
-4.89064e-08
0.000109306
-5.86604e-08
0.00010933
-6.86757e-08
0.000109354
-7.89561e-08
0.000109378
-8.95095e-08
0.000109402
-1.00346e-07
0.000109426
-1.11479e-07
0.000109451
-1.22919e-07
0.000109476
-1.34678e-07
0.0001095
-1.46765e-07
0.000109525
-1.59184e-07
0.00010955
-1.7194e-07
-1.85001e-07
0.000109575
0.000112006
3.43488e-09
0.000112012
9.94598e-09
0.00011202
1.5374e-08
0.000112032
1.93893e-08
0.000112046
2.18648e-08
0.000112062
2.27832e-08
0.000112079
2.22101e-08
0.000112098
2.02683e-08
0.000112119
1.71097e-08
0.00011214
1.28902e-08
0.000112161
7.75981e-09
0.000112183
1.85531e-09
0.000112206
-4.70654e-09
0.000112228
-1.18255e-08
0.000112251
-1.94204e-08
0.000112274
-2.74269e-08
0.000112298
-3.57947e-08
0.000112321
-4.44863e-08
0.000112344
-5.34748e-08
0.000112367
-6.27422e-08
0.000112391
-7.22782e-08
0.000112414
-8.20784e-08
0.000112438
-9.21434e-08
0.000112461
-1.02478e-07
0.000112485
-1.13088e-07
0.000112508
-1.23983e-07
0.000112532
-1.35172e-07
0.000112556
-1.46662e-07
0.00011258
-1.5846e-07
0.000112603
-1.7057e-07
0.000112627
-1.82992e-07
0.000112651
-1.95726e-07
-2.08736e-07
0.000112675
0.000115206
1.62123e-09
0.000115212
4.67759e-09
0.00011522
6.96075e-09
0.000115231
8.17904e-09
0.000115245
8.22254e-09
0.000115261
7.07338e-09
0.000115278
4.77957e-09
0.000115297
1.43252e-09
0.000115317
-2.8498e-09
0.000115338
-7.95223e-09
0.000115359
-1.37637e-08
0.000115381
-2.01833e-08
0.000115404
-2.7125e-08
0.000115426
-3.45167e-08
0.000115449
-4.23006e-08
0.000115472
-5.04318e-08
0.000115495
-5.88763e-08
0.000115518
-6.76094e-08
0.000115541
-7.66146e-08
0.000115565
-8.58821e-08
0.000115588
-9.54074e-08
0.000115611
-1.0519e-07
0.000115634
-1.15233e-07
0.000115657
-1.25542e-07
0.00011568
-1.36123e-07
0.000115703
-1.46982e-07
0.000115726
-1.58127e-07
0.000115749
-1.69562e-07
0.000115772
-1.81289e-07
0.000115794
-1.9331e-07
0.000115817
-2.05619e-07
0.00011584
-2.18214e-07
-2.31056e-07
0.000115862
0.000118498
-1.48941e-10
0.000118503
-4.65657e-10
0.000118511
-1.27032e-09
0.000118522
-2.82143e-09
0.000118535
-5.20708e-09
0.000118551
-8.43855e-09
0.000118568
-1.24785e-08
0.000118587
-1.72584e-08
0.000118607
-2.26956e-08
0.000118628
-2.87091e-08
0.000118649
-3.52232e-08
0.000118671
-4.21714e-08
0.000118693
-4.94983e-08
0.000118716
-5.71592e-08
0.000118739
-6.51196e-08
0.000118762
-7.3354e-08
0.000118785
-8.18448e-08
0.000118808
-9.05806e-08
0.000118831
-9.95556e-08
0.000118853
-1.08768e-07
0.000118876
-1.18219e-07
0.000118899
-1.27913e-07
0.000118922
-1.37856e-07
0.000118944
-1.48054e-07
0.000118967
-1.58513e-07
0.000118989
-1.69238e-07
0.000119011
-1.80236e-07
0.000119033
-1.91506e-07
0.000119055
-2.03051e-07
0.000119076
-2.14866e-07
0.000119097
-2.26945e-07
0.000119119
-2.39281e-07
-2.51835e-07
0.000119139
0.000121883
-1.8672e-09
0.000121888
-5.47252e-09
0.000121896
-9.31002e-09
0.000121907
-1.36141e-08
0.00012192
-1.84439e-08
0.000121935
-2.37921e-08
0.000121953
-2.96205e-08
0.000121971
-3.5876e-08
0.000121991
-4.2503e-08
0.000122012
-4.94523e-08
0.000122033
-5.66833e-08
0.000122055
-6.41634e-08
0.000122078
-7.18682e-08
0.0001221
-7.97808e-08
0.000122123
-8.78908e-08
0.000122146
-9.61928e-08
0.000122169
-1.04686e-07
0.000122191
-1.13373e-07
0.000122214
-1.22258e-07
0.000122237
-1.31348e-07
0.000122259
-1.40652e-07
0.000122281
-1.50177e-07
0.000122304
-1.59933e-07
0.000122325
-1.69926e-07
0.000122347
-1.80164e-07
0.000122368
-1.90652e-07
0.00012239
-2.01393e-07
0.00012241
-2.12388e-07
0.000122431
-2.23634e-07
0.000122451
-2.35127e-07
0.000122471
-2.46858e-07
0.000122491
-2.58818e-07
-2.70967e-07
0.00012251
0.000125365
-3.58216e-09
0.00012537
-1.04283e-08
0.000125378
-1.72741e-08
0.000125389
-2.43252e-08
0.000125402
-3.16026e-08
0.000125417
-3.90754e-08
0.000125434
-4.67041e-08
0.000125453
-5.4449e-08
0.000125473
-6.22784e-08
0.000125493
-7.01732e-08
0.000125515
-7.81248e-08
0.000125537
-8.61329e-08
0.000125559
-9.42035e-08
0.000125582
-1.02347e-07
0.000125604
-1.10576e-07
0.000125627
-1.18907e-07
0.00012565
-1.27355e-07
0.000125672
-1.35937e-07
0.000125695
-1.44669e-07
0.000125717
-1.53566e-07
0.000125739
-1.62644e-07
0.000125761
-1.71915e-07
0.000125782
-1.81391e-07
0.000125803
-1.91082e-07
0.000125824
-2.00997e-07
0.000125845
-2.11139e-07
0.000125865
-2.21513e-07
0.000125884
-2.32117e-07
0.000125904
-2.42948e-07
0.000125923
-2.53999e-07
0.000125941
-2.65261e-07
0.000125959
-2.76723e-07
-2.88345e-07
0.000125976
0.000128947
-5.13715e-09
0.000128951
-1.5104e-08
0.000128959
-2.49335e-08
0.000128969
-3.48078e-08
0.000128983
-4.46568e-08
0.000128998
-5.43792e-08
0.000129015
-6.39073e-08
0.000129034
-7.32059e-08
0.000129054
-8.2269e-08
0.000129075
-9.11126e-08
0.000129096
-9.97669e-08
0.000129118
-1.08269e-07
0.000129141
-1.16659e-07
0.000129164
-1.24977e-07
0.000129186
-1.33263e-07
0.000129209
-1.41554e-07
0.000129231
-1.49882e-07
0.000129254
-1.5828e-07
0.000129276
-1.66774e-07
0.000129298
-1.75389e-07
0.000129319
-1.84147e-07
0.00012934
-1.93065e-07
0.000129361
-2.0216e-07
0.000129381
-2.11443e-07
0.000129401
-2.20924e-07
0.000129421
-2.30608e-07
0.00012944
-2.40499e-07
0.000129458
-2.50594e-07
0.000129476
-2.60891e-07
0.000129494
-2.71383e-07
0.00012951
-2.82057e-07
0.000129527
-2.92905e-07
-3.03886e-07
0.000129542
0.000132631
-7.00716e-09
0.000132636
-2.00712e-08
0.000132644
-3.28041e-08
0.000132654
-4.53862e-08
0.000132667
-5.77062e-08
0.000132683
-6.96169e-08
0.0001327
-8.1024e-08
0.000132718
-9.18841e-08
0.000132738
-1.02201e-07
0.000132759
-1.12015e-07
0.000132781
-1.21386e-07
0.000132803
-1.30386e-07
0.000132825
-1.39086e-07
0.000132848
-1.47558e-07
0.000132871
-1.55866e-07
0.000132893
-1.64069e-07
0.000132915
-1.72221e-07
0.000132938
-1.80366e-07
0.000132959
-1.88546e-07
0.000132981
-1.96794e-07
0.000133002
-2.0514e-07
0.000133022
-2.13608e-07
0.000133042
-2.22218e-07
0.000133062
-2.30984e-07
0.000133081
-2.39919e-07
0.000133099
-2.49028e-07
0.000133117
-2.58317e-07
0.000133134
-2.67784e-07
0.000133151
-2.77425e-07
0.000133167
-2.87233e-07
0.000133182
-2.97197e-07
0.000133196
-3.07306e-07
-3.17522e-07
0.00013321
0.000136419
-7.76508e-09
0.000136423
-2.38022e-08
0.00013643
-3.97935e-08
0.00013644
-5.57172e-08
0.000136453
-7.10801e-08
0.000136469
-8.55596e-08
0.000136487
-9.9036e-08
0.000136507
-1.11505e-07
0.000136528
-1.23031e-07
0.00013655
-1.33716e-07
0.000136572
-1.43678e-07
0.000136595
-1.53037e-07
0.000136617
-1.61907e-07
0.00013664
-1.70394e-07
0.000136663
-1.78591e-07
0.000136685
-1.8658e-07
0.000136708
-1.94431e-07
0.000136729
-2.02205e-07
0.000136751
-2.09954e-07
0.000136772
-2.1772e-07
0.000136792
-2.25539e-07
0.000136812
-2.33441e-07
0.000136831
-2.4145e-07
0.00013685
-2.49583e-07
0.000136868
-2.57853e-07
0.000136885
-2.6627e-07
0.000136902
-2.74838e-07
0.000136917
-2.83557e-07
0.000136932
-2.92423e-07
0.000136947
-3.01431e-07
0.00013696
-3.1057e-07
0.000136972
-3.1983e-07
-3.29174e-07
0.000136984
0.000140319
-1.10665e-08
0.000140325
-2.94049e-08
0.000140332
-4.75741e-08
0.000140343
-6.57991e-08
0.000140355
-8.36248e-08
0.00014037
-1.00505e-07
0.000140387
-1.16126e-07
0.000140406
-1.30385e-07
0.000140426
-1.43326e-07
0.000140448
-1.5507e-07
0.00014047
-1.65773e-07
0.000140492
-1.756e-07
0.000140515
-1.84707e-07
0.000140538
-1.93239e-07
0.000140561
-2.01322e-07
0.000140583
-2.09066e-07
0.000140605
-2.16564e-07
0.000140627
-2.23896e-07
0.000140648
-2.31128e-07
0.000140669
-2.38315e-07
0.000140689
-2.45502e-07
0.000140708
-2.52725e-07
0.000140727
-2.60013e-07
0.000140744
-2.67389e-07
0.000140761
-2.7487e-07
0.000140778
-2.82466e-07
0.000140793
-2.90183e-07
0.000140807
-2.98024e-07
0.000140821
-3.05986e-07
0.000140834
-3.14064e-07
0.000140845
-3.22249e-07
0.000140856
-3.3053e-07
-3.38876e-07
0.000140866
0.000144322
-8.08023e-09
0.000144322
-3.01029e-08
0.000144328
-5.35194e-08
0.00014434
-7.70497e-08
0.000144355
-9.90523e-08
0.000144373
-1.18926e-07
0.000144394
-1.3663e-07
0.000144416
-1.52304e-07
0.000144439
-1.66163e-07
0.000144462
-1.78449e-07
0.000144486
-1.89409e-07
0.000144509
-1.99273e-07
0.000144533
-2.08246e-07
0.000144556
-2.16509e-07
0.000144579
-2.24212e-07
0.000144601
-2.31487e-07
0.000144623
-2.3844e-07
0.000144645
-2.45163e-07
0.000144665
-2.51729e-07
0.000144685
-2.58202e-07
0.000144704
-2.6463e-07
0.000144723
-2.71055e-07
0.00014474
-2.77508e-07
0.000144757
-2.84015e-07
0.000144772
-2.90595e-07
0.000144787
-2.97259e-07
0.000144801
-3.04018e-07
0.000144814
-3.10872e-07
0.000144826
-3.17823e-07
0.000144836
-3.24867e-07
0.000144846
-3.31994e-07
0.000144855
-3.39199e-07
-3.46451e-07
0.000144862
0.000148457
-1.68646e-08
0.000148463
-3.67222e-08
0.000148469
-5.88153e-08
0.000148475
-8.36716e-08
0.000148485
-1.08841e-07
0.000148498
-1.32352e-07
0.000148515
-1.53279e-07
0.000148534
-1.71513e-07
0.000148555
-1.87285e-07
0.000148578
-2.0091e-07
0.000148601
-2.12723e-07
0.000148625
-2.23043e-07
0.000148649
-2.32154e-07
0.000148673
-2.40301e-07
0.000148696
-2.47689e-07
0.000148719
-2.54489e-07
0.000148742
-2.60843e-07
0.000148763
-2.66865e-07
0.000148784
-2.7265e-07
0.000148804
-2.78273e-07
0.000148823
-2.83797e-07
0.000148842
-2.8927e-07
0.000148859
-2.94731e-07
0.000148875
-3.00211e-07
0.00014889
-3.05731e-07
0.000148904
-3.11308e-07
0.000148917
-3.16952e-07
0.000148929
-3.2267e-07
0.00014894
-3.28463e-07
0.000148949
-3.34328e-07
0.000148957
-3.4026e-07
0.000148964
-3.46253e-07
-3.52281e-07
0.00014897
0.000152671
1.29316e-09
0.000152666
-3.15725e-08
0.000152674
-6.66817e-08
0.000152691
-1.01381e-07
0.000152714
-1.31468e-07
0.000152739
-1.5722e-07
0.000152765
-1.79087e-07
0.000152791
-1.97606e-07
0.000152817
-2.13287e-07
0.000152842
-2.2659e-07
0.000152868
-2.37943e-07
0.000152892
-2.47717e-07
0.000152916
-2.56219e-07
0.00015294
-2.63704e-07
0.000152963
-2.70384e-07
0.000152984
-2.76431e-07
0.000153006
-2.81989e-07
0.000153026
-2.87173e-07
0.000153045
-2.92078e-07
0.000153064
-2.96782e-07
0.000153081
-3.01347e-07
0.000153098
-3.05824e-07
0.000153113
-3.10253e-07
0.000153128
-3.14666e-07
0.000153141
-3.19087e-07
0.000153154
-3.23535e-07
0.000153165
-3.28021e-07
0.000153174
-3.32553e-07
0.000153183
-3.37135e-07
0.000153191
-3.41767e-07
0.000153197
-3.46446e-07
0.000153202
-3.51166e-07
-3.55905e-07
0.000153205
0.000157077
-2.42409e-08
0.000157076
-3.06173e-08
0.000157063
-5.37468e-08
0.000157055
-9.27851e-08
0.000157055
-1.32356e-07
0.000157066
-1.67454e-07
0.000157083
-1.95972e-07
0.000157104
-2.19006e-07
0.000157128
-2.37665e-07
0.000157154
-2.52778e-07
0.000157182
-2.6507e-07
0.000157209
-2.7515e-07
0.000157236
-2.83504e-07
0.000157263
-2.90515e-07
0.000157289
-2.96489e-07
0.000157314
-3.01666e-07
0.000157339
-3.06233e-07
0.000157362
-3.10339e-07
0.000157384
-3.14102e-07
0.000157405
-3.17615e-07
0.000157424
-3.2095e-07
0.000157443
-3.24165e-07
0.00015746
-3.27306e-07
0.000157475
-3.30407e-07
0.00015749
-3.33497e-07
0.000157503
-3.36594e-07
0.000157515
-3.39715e-07
0.000157525
-3.42867e-07
0.000157534
-3.46057e-07
0.000157541
-3.49287e-07
0.000157548
-3.52557e-07
0.000157552
-3.55865e-07
-3.59193e-07
0.000157556
0.00016147
4.45416e-08
0.000161456
-1.68229e-08
0.000161492
-8.96791e-08
0.000161534
-1.35401e-07
0.000161576
-1.74091e-07
0.000161613
-2.03955e-07
0.000161645
-2.28357e-07
0.000161675
-2.48507e-07
0.000161702
-2.64953e-07
0.000161727
-2.78402e-07
0.000161752
-2.89471e-07
0.000161775
-2.98628e-07
0.000161798
-3.06246e-07
0.00016182
-3.12626e-07
0.000161842
-3.18013e-07
0.000161863
-3.22605e-07
0.000161883
-3.26561e-07
0.000161903
-3.30011e-07
0.000161922
-3.3306e-07
0.00016194
-3.35794e-07
0.000161957
-3.38283e-07
0.000161974
-3.40585e-07
0.000161989
-3.42746e-07
0.000162003
-3.44805e-07
0.000162017
-3.46791e-07
0.000162029
-3.48728e-07
0.00016204
-3.50636e-07
0.000162049
-3.52528e-07
0.000162058
-3.54413e-07
0.000162065
-3.56298e-07
0.00016207
-3.58184e-07
0.000162075
-3.60071e-07
-3.6195e-07
0.000162077
0.00016619
7.70888e-09
0.000166126
4.72587e-08
0.000166046
-9.08864e-09
0.000165989
-7.89304e-08
0.000165976
-1.6098e-07
0.000165989
-2.16784e-07
0.000166017
-2.56386e-07
0.000166053
-2.84844e-07
0.000166094
-3.0589e-07
0.000166138
-3.21708e-07
0.000166182
-3.33686e-07
0.000166226
-3.42819e-07
0.00016627
-3.49823e-07
0.000166312
-3.55212e-07
0.000166354
-3.59361e-07
0.000166393
-3.62551e-07
0.000166432
-3.64996e-07
0.000166469
-3.66857e-07
0.000166504
-3.6826e-07
0.000166537
-3.69305e-07
0.000166569
-3.70071e-07
0.000166599
-3.70621e-07
0.000166628