/*--------------------------------*- C++ -*----------------------------------*\
  =========                 |
  \\      /  F ield         | OpenFOAM: The Open Source CFD Toolbox
   \\    /   O peration     | Website:  https://openfoam.org
    \\  /    A nd           | Version:  10
     \\/     M anipulation  |
\*---------------------------------------------------------------------------*/
FoamFile
{
    format      ascii;
    class       volVectorField;
    location    "0.1";
    object      U;
}
// * * * * * * * * * * * * * * * * * * * * * * * * * * * * * * * * * * * * * //

dimensions      [0 1 -1 0 0 0 0];

internalField   nonuniform List<vector> 
6820
(
(7.33663 -0.254711 0)
(7.37113 -0.152747 0)
(7.32905 -0.0594727 0)
(7.25223 -0.0117253 0)
(7.17489 0.00795891 0)
(7.10509 0.0139597 0)
(7.0441 0.0144451 0)
(6.99132 0.0130656 0)
(6.9453 0.0113123 0)
(6.90464 0.00973267 0)
(6.86826 0.00846676 0)
(6.83535 0.00750178 0)
(6.80531 0.00678135 0)
(6.77767 0.00624611 0)
(6.75209 0.0058464 0)
(6.72831 0.00554442 0)
(6.70611 0.00531265 0)
(6.68532 0.00513163 0)
(6.66579 0.00498806 0)
(6.64738 0.0048732 0)
(6.63 0.00478179 0)
(6.61354 0.00471159 0)
(6.59789 0.00466335 0)
(6.58296 0.00464177 0)
(6.56863 0.00465684 0)
(6.55476 0.00473052 0)
(6.54114 0.00490863 0)
(6.52753 0.00524405 0)
(6.51307 0.00619535 0)
(6.49744 0.00694361 0)
(6.47657 0.0140818 0)
(6.44519 0.0145047 0)
(6.402 0.0298823 0)
(7.32387 0.121384 0)
(7.3044 0.123268 0)
(7.30897 0.0779533 0)
(7.32921 0.0527696 0)
(7.34731 0.0391656 0)
(7.3554 0.0313554 0)
(7.35446 0.0268973 0)
(7.34739 0.024145 0)
(7.3365 0.0222407 0)
(7.32334 0.0207932 0)
(7.30899 0.0196069 0)
(7.2941 0.0185815 0)
(7.27909 0.0176665 0)
(7.26418 0.0168358 0)
(7.24954 0.0160743 0)
(7.23525 0.0153729 0)
(7.22134 0.0147253 0)
(7.20785 0.0141273 0)
(7.19478 0.0135755 0)
(7.18213 0.013068 0)
(7.16989 0.0126043 0)
(7.15805 0.0121852 0)
(7.14659 0.0118142 0)
(7.1355 0.0114992 0)
(7.12476 0.0112537 0)
(7.11434 0.0111102 0)
(7.10427 0.0111054 0)
(7.09444 0.0114023 0)
(7.08544 0.0120591 0)
(7.0762 0.0139773 0)
(7.0721 0.0173341 0)
(7.06766 0.0256737 0)
(7.09058 0.0436298 0)
(7.32565 -0.0437951 0)
(7.32325 -0.0517415 0)
(7.33519 -0.0262148 0)
(7.34304 -0.00274162 0)
(7.34799 0.0103997 0)
(7.35221 0.0168428 0)
(7.35525 0.0199066 0)
(7.35684 0.021185 0)
(7.35694 0.02152 0)
(7.3557 0.0213846 0)
(7.35334 0.0210257 0)
(7.35009 0.0205701 0)
(7.34616 0.0200835 0)
(7.34171 0.019599 0)
(7.33689 0.0191317 0)
(7.33179 0.0186881 0)
(7.3265 0.0182704 0)
(7.32109 0.017879 0)
(7.3156 0.0175141 0)
(7.31008 0.017176 0)
(7.30455 0.0168662 0)
(7.29904 0.0165875 0)
(7.29355 0.0163456 0)
(7.28809 0.0161496 0)
(7.28267 0.0160156 0)
(7.27726 0.0159668 0)
(7.27188 0.0160571 0)
(7.26645 0.0163146 0)
(7.26115 0.0170086 0)
(7.25564 0.0178028 0)
(7.251 0.0203213 0)
(7.24607 0.0207193 0)
(7.24347 0.0252298 0)
(7.33338 0.0117838 0)
(7.33036 0.032903 0)
(7.32957 0.0333278 0)
(7.33259 0.0276116 0)
(7.33803 0.0242161 0)
(7.34359 0.0227332 0)
(7.34824 0.0221645 0)
(7.35195 0.0219301 0)
(7.35481 0.0217734 0)
(7.35688 0.0216123 0)
(7.35826 0.0214215 0)
(7.35903 0.0211949 0)
(7.35929 0.0209366 0)
(7.35911 0.0206537 0)
(7.35857 0.0203537 0)
(7.35773 0.0200437 0)
(7.35664 0.0197296 0)
(7.35534 0.0194169 0)
(7.35388 0.0191107 0)
(7.35228 0.018816 0)
(7.35057 0.0185387 0)
(7.34876 0.0182856 0)
(7.34688 0.0180664 0)
(7.34492 0.0178944 0)
(7.3429 0.0177899 0)
(7.34082 0.0177819 0)
(7.33869 0.0179216 0)
(7.3365 0.018265 0)
(7.33436 0.0189681 0)
(7.33221 0.0200363 0)
(7.33069 0.022056 0)
(7.3297 0.0242787 0)
(7.33095 0.028771 0)
(7.33122 -0.00352757 0)
(7.33004 -0.00434196 0)
(7.33361 0.00124627 0)
(7.33721 0.00868757 0)
(7.34052 0.0140454 0)
(7.34382 0.0170429 0)
(7.34701 0.0186725 0)
(7.35004 0.0195773 0)
(7.35284 0.0200617 0)
(7.35534 0.0202964 0)
(7.35755 0.020377 0)
(7.35945 0.0203568 0)
(7.36107 0.0202691 0)
(7.36243 0.0201354 0)
(7.36356 0.0199703 0)
(7.36447 0.0197843 0)
(7.3652 0.0195851 0)
(7.36577 0.0193794 0)
(7.36619 0.0191728 0)
(7.36648 0.0189714 0)
(7.36666 0.0187817 0)
(7.36674 0.0186119 0)
(7.36673 0.0184724 0)
(7.36664 0.0183775 0)
(7.36647 0.0183478 0)
(7.36624 0.0184098 0)
(7.36596 0.0186088 0)
(7.36564 0.0189843 0)
(7.36539 0.0196483 0)
(7.36521 0.0205642 0)
(7.36546 0.0220352 0)
(7.36618 0.0234007 0)
(7.36786 0.0252848 0)
(7.33264 0.00207552 0)
(7.33223 0.00988949 0)
(7.33394 0.0140772 0)
(7.33645 0.01594 0)
(7.33946 0.0170383 0)
(7.34267 0.0178033 0)
(7.34575 0.0184021 0)
(7.34863 0.018854 0)
(7.35133 0.0191575 0)
(7.35385 0.0193417 0)
(7.35619 0.0194364 0)
(7.35837 0.0194621 0)
(7.36039 0.0194345 0)
(7.36227 0.0193655 0)
(7.364 0.0192646 0)
(7.36561 0.0191393 0)
(7.3671 0.0189963 0)
(7.36848 0.0188417 0)
(7.36976 0.0186813 0)
(7.37095 0.0185217 0)
(7.37205 0.01837 0)
(7.37307 0.0182348 0)
(7.37402 0.0181273 0)
(7.37491 0.0180616 0)
(7.37574 0.0180573 0)
(7.37652 0.0181384 0)
(7.37728 0.0183412 0)
(7.37804 0.0186972 0)
(7.37888 0.0192731 0)
(7.37986 0.020051 0)
(7.38118 0.0211469 0)
(7.38294 0.0222399 0)
(7.38534 0.0235126 0)
(7.33258 0.000823941 0)
(7.33243 0.00449858 0)
(7.33428 0.00803999 0)
(7.33689 0.0112314 0)
(7.3397 0.0138053 0)
(7.34254 0.0155669 0)
(7.34528 0.016706 0)
(7.34788 0.0174367 0)
(7.35037 0.0178938 0)
(7.35275 0.0181703 0)
(7.35503 0.018326 0)
(7.35721 0.0183968 0)
(7.3593 0.018406 0)
(7.36131 0.0183694 0)
(7.36324 0.0182984 0)
(7.3651 0.0182016 0)
(7.36688 0.0180859 0)
(7.3686 0.0179575 0)
(7.37025 0.0178225 0)
(7.37185 0.017687 0)
(7.37339 0.0175583 0)
(7.37488 0.0174447 0)
(7.37632 0.0173568 0)
(7.37773 0.0173077 0)
(7.3791 0.0173144 0)
(7.38045 0.0173967 0)
(7.3818 0.0175816 0)
(7.38319 0.0178905 0)
(7.38467 0.0183591 0)
(7.38631 0.0189688 0)
(7.38822 0.0197467 0)
(7.39048 0.0205002 0)
(7.39316 0.0212117 0)
(7.33284 0.00132683 0)
(7.33301 0.00533608 0)
(7.33458 0.00887798 0)
(7.33682 0.0115525 0)
(7.33932 0.0135137 0)
(7.34195 0.0148625 0)
(7.34455 0.0157843 0)
(7.34705 0.0164193 0)
(7.34945 0.0168433 0)
(7.35175 0.0171131 0)
(7.35397 0.0172719 0)
(7.35611 0.0173494 0)
(7.35819 0.017366 0)
(7.36021 0.0173368 0)
(7.36218 0.0172727 0)
(7.36411 0.0171821 0)
(7.366 0.0170718 0)
(7.36784 0.0169481 0)
(7.36965 0.0168169 0)
(7.37142 0.0166842 0)
(7.37316 0.0165569 0)
(7.37488 0.0164431 0)
(7.37657 0.0163522 0)
(7.37824 0.0162957 0)
(7.3799 0.0162878 0)
(7.38157 0.0163438 0)
(7.38327 0.0164823 0)
(7.38502 0.0167162 0)
(7.38687 0.0170612 0)
(7.38888 0.0174983 0)
(7.39112 0.0180172 0)
(7.39364 0.0185008 0)
(7.39644 0.0188925 0)
(7.33291 0.00132437 0)
(7.33321 0.00465387 0)
(7.33461 0.0076789 0)
(7.33665 0.0101313 0)
(7.33897 0.012077 0)
(7.34143 0.0135139 0)
(7.34388 0.0145299 0)
(7.34626 0.0152339 0)
(7.34857 0.0157052 0)
(7.3508 0.0160063 0)
(7.35296 0.0161849 0)
(7.35506 0.0162738 0)
(7.3571 0.0162961 0)
(7.35911 0.0162683 0)
(7.36107 0.0162024 0)
(7.36301 0.0161077 0)
(7.36492 0.0159917 0)
(7.3668 0.0158608 0)
(7.36866 0.015721 0)
(7.37051 0.0155784 0)
(7.37234 0.0154396 0)
(7.37415 0.0153119 0)
(7.37596 0.0152036 0)
(7.37777 0.0151244 0)
(7.37959 0.0150852 0)
(7.38143 0.0150973 0)
(7.38332 0.0151722 0)
(7.38528 0.0153163 0)
(7.38734 0.0155327 0)
(7.38955 0.0158025 0)
(7.39195 0.0161017 0)
(7.39458 0.0163553 0)
(7.39741 0.0165063 0)
(7.33297 0.00129983 0)
(7.33335 0.00429559 0)
(7.33462 0.00707498 0)
(7.33646 0.00935844 0)
(7.33858 0.0111644 0)
(7.34085 0.01251 0)
(7.34315 0.013475 0)
(7.34543 0.0141553 0)
(7.34766 0.0146202 0)
(7.34983 0.0149227 0)
(7.35194 0.0151041 0)
(7.354 0.0151943 0)
(7.35602 0.0152151 0)
(7.358 0.0151828 0)
(7.35995 0.0151097 0)
(7.36188 0.0150053 0)
(7.36378 0.0148773 0)
(7.36567 0.0147324 0)
(7.36755 0.0145765 0)
(7.36942 0.0144156 0)
(7.37128 0.0142558 0)
(7.37314 0.0141037 0)
(7.37501 0.0139664 0)
(7.37689 0.0138517 0)
(7.37879 0.0137676 0)
(7.38073 0.0137217 0)
(7.38272 0.0137202 0)
(7.38479 0.0137645 0)
(7.38696 0.013851 0)
(7.38927 0.0139615 0)
(7.39174 0.0140702 0)
(7.39439 0.0141269 0)
(7.3972 0.0140877 0)
(7.333 0.00123703 0)
(7.33341 0.00390967 0)
(7.33456 0.00639455 0)
(7.33623 0.00847048 0)
(7.33817 0.0101419 0)
(7.34028 0.0114234 0)
(7.34245 0.0123674 0)
(7.34462 0.0130451 0)
(7.34677 0.0135144 0)
(7.34887 0.0138224 0)
(7.35093 0.0140071 0)
(7.35296 0.0140975 0)
(7.35494 0.0141152 0)
(7.3569 0.0140764 0)
(7.35883 0.0139937 0)
(7.36074 0.0138767 0)
(7.36264 0.0137334 0)
(7.36452 0.0135705 0)
(7.3664 0.0133939 0)
(7.36827 0.0132094 0)
(7.37015 0.0130226 0)
(7.37203 0.0128392 0)
(7.37392 0.0126651 0)
(7.37583 0.0125062 0)
(7.37778 0.0123681 0)
(7.37976 0.0122553 0)
(7.38181 0.0121701 0)
(7.38393 0.0121106 0)
(7.38616 0.0120699 0)
(7.38851 0.0120313 0)
(7.39099 0.0119716 0)
(7.39361 0.0118559 0)
(7.39637 0.011653 0)
(7.33302 0.00115245 0)
(7.33344 0.00354836 0)
(7.33449 0.00578201 0)
(7.336 0.00767805 0)
(7.33778 0.00922262 0)
(7.33974 0.0104251 0)
(7.34178 0.0113237 0)
(7.34385 0.0119754 0)
(7.3459 0.0124303 0)
(7.34794 0.0127299 0)
(7.34995 0.0129084 0)
(7.35193 0.0129923 0)
(7.35388 0.0130019 0)
(7.35581 0.0129529 0)
(7.35772 0.0128574 0)
(7.35961 0.0127251 0)
(7.3615 0.0125638 0)
(7.36337 0.01238 0)
(7.36524 0.0121795 0)
(7.36711 0.0119677 0)
(7.36898 0.0117495 0)
(7.37087 0.0115299 0)
(7.37277 0.0113134 0)
(7.3747 0.0111043 0)
(7.37666 0.0109061 0)
(7.37867 0.0107209 0)
(7.38074 0.0105484 0)
(7.38289 0.0103847 0)
(7.38513 0.0102215 0)
(7.38747 0.0100439 0)
(7.38993 0.00983264 0)
(7.39252 0.00956277 0)
(7.3952 0.0092129 0)
(7.33303 0.00105751 0)
(7.33344 0.00320369 0)
(7.3344 0.00520333 0)
(7.33578 0.0069205 0)
(7.33742 0.00833371 0)
(7.33924 0.00944924 0)
(7.34116 0.0102949 0)
(7.34312 0.0109145 0)
(7.34509 0.0113496 0)
(7.34706 0.0116359 0)
(7.34901 0.0118037 0)
(7.35094 0.011877 0)
(7.35286 0.0118751 0)
(7.35476 0.0118129 0)
(7.35664 0.011702 0)
(7.35851 0.0115518 0)
(7.36037 0.01137 0)
(7.36223 0.0111628 0)
(7.36409 0.0109358 0)
(7.36595 0.0106936 0)
(7.36782 0.0104408 0)
(7.3697 0.0101813 0)
(7.3716 0.00991844 0)
(7.37354 0.0096552 0)
(7.3755 0.00939333 0)
(7.37752 0.00913307 0)
(7.37959 0.00887245 0)
(7.38174 0.00860641 0)
(7.38397 0.00832642 0)
(7.38629 0.00801975 0)
(7.38871 0.00767057 0)
(7.39123 0.00726067 0)
(7.39384 0.00677533 0)
(7.33303 0.000958576 0)
(7.33342 0.00287567 0)
(7.3343 0.00465996 0)
(7.33557 0.00620681 0)
(7.33708 0.00749128 0)
(7.33878 0.00851579 0)
(7.34058 0.00930019 0)
(7.34244 0.00987818 0)
(7.34433 0.0102842 0)
(7.34623 0.0105491 0)
(7.34812 0.0106992 0)
(7.35001 0.0107566 0)
(7.35188 0.0107386 0)
(7.35374 0.0106594 0)
(7.3556 0.01053 0)
(7.35744 0.0103593 0)
(7.35928 0.0101545 0)
(7.36112 0.00992149 0)
(7.36296 0.00966538 0)
(7.36481 0.00939042 0)
(7.36667 0.00910028 0)
(7.36854 0.00879804 0)
(7.37044 0.00848615 0)
(7.37236 0.00816622 0)
(7.37432 0.00783871 0)
(7.37633 0.00750256 0)
(7.37839 0.00715471 0)
(7.38052 0.00678967 0)
(7.38272 0.00639925 0)
(7.385 0.0059726 0)
(7.38737 0.0054969 0)
(7.38983 0.0049584 0)
(7.39236 0.0043468 0)
(7.33303 0.000859487 0)
(7.3334 0.0025634 0)
(7.33421 0.00414719 0)
(7.33537 0.00552982 0)
(7.33677 0.00668598 0)
(7.33835 0.00761508 0)
(7.34005 0.00833126 0)
(7.34182 0.00886033 0)
(7.34363 0.00923042 0)
(7.34545 0.00946756 0)
(7.34729 0.00959477 0)
(7.34912 0.00963151 0)
(7.35095 0.0095937 0)
(7.35278 0.00949421 0)
(7.3546 0.00934336 0)
(7.35642 0.0091495 0)
(7.35823 0.00891933 0)
(7.36005 0.00865833 0)
(7.36187 0.00837102 0)
(7.3637 0.00806107 0)
(7.36554 0.00773149 0)
(7.36739 0.00738455 0)
(7.36927 0.00702178 0)
(7.37118 0.00664378 0)
(7.37313 0.00625001 0)
(7.37511 0.00583852 0)
(7.37715 0.00540564 0)
(7.37925 0.00494579 0)
(7.38141 0.00445144 0)
(7.38365 0.00391332 0)
(7.38595 0.003321 0)
(7.38833 0.00266376 0)
(7.39078 0.00193416 0)
(7.33303 0.000762352 0)
(7.33338 0.00226597 0)
(7.33413 0.00366183 0)
(7.3352 0.00488639 0)
(7.3365 0.0059157 0)
(7.33797 0.0067468 0)
(7.33957 0.00738944 0)
(7.34125 0.00786321 0)
(7.34298 0.00819083 0)
(7.34474 0.00839414 0)
(7.34651 0.00849295 0)
(7.3483 0.00850437 0)
(7.35008 0.00844267 0)
(7.35187 0.00831951 0)
(7.35365 0.00814436 0)
(7.35544 0.00792483 0)
(7.35722 0.00766708 0)
(7.35901 0.00737604 0)
(7.36081 0.00705564 0)
(7.36261 0.00670899 0)
(7.36443 0.0063384 0)
(7.36627 0.00594543 0)
(7.36812 0.00553083 0)
(7.37001 0.00509439 0)
(7.37193 0.00463483 0)
(7.37389 0.00414961 0)
(7.37589 0.00363478 0)
(7.37795 0.00308492 0)
(7.38006 0.0024932 0)
(7.38224 0.00185168 0)
(7.38447 0.00115176 0)
(7.38677 0.000384796 0)
(7.38912 -0.000454763 0)
(7.33303 0.000668234 0)
(7.33335 0.00198239 0)
(7.33405 0.00320084 0)
(7.33504 0.0042729 0)
(7.33625 0.00517673 0)
(7.33763 0.00590775 0)
(7.33914 0.00647235 0)
(7.34073 0.00688528 0)
(7.34239 0.00716471 0)
(7.34408 0.00732877 0)
(7.34579 0.0073943 0)
(7.34753 0.00737615 0)
(7.34926 0.00728689 0)
(7.35101 0.00713693 0)
(7.35276 0.00693478 0)
(7.35451 0.0066873 0)
(7.35626 0.00639999 0)
(7.35802 0.00607717 0)
(7.35979 0.00572221 0)
(7.36156 0.00533759 0)
(7.36335 0.00492502 0)
(7.36516 0.00448541 0)
(7.36699 0.00401882 0)
(7.36884 0.00352446 0)
(7.37073 0.0030005 0)
(7.37265 0.00244405 0)
(7.37461 0.0018511 0)
(7.37662 0.00121649 0)
(7.37867 0.000534076 0)
(7.38078 -0.000202995 0)
(7.38293 -0.00100192 0)
(7.38514 -0.00186989 0)
(7.3874 -0.00281115 0)
(7.33303 0.000577566 0)
(7.33333 0.00171159 0)
(7.33397 0.00276153 0)
(7.33489 0.00368618 0)
(7.33602 0.00446607 0)
(7.33732 0.0050956 0)
(7.33874 0.00557862 0)
(7.34026 0.00592609 0)
(7.34184 0.00615236 0)
(7.34347 0.0062723 0)
(7.34513 0.00630006 0)
(7.34681 0.00624835 0)
(7.3485 0.00612808 0)
(7.3502 0.00594841 0)
(7.35191 0.00571681 0)
(7.35363 0.00543933 0)
(7.35535 0.00512076 0)
(7.35707 0.00476479 0)
(7.35881 0.00437419 0)
(7.36055 0.00395087 0)
(7.36231 0.00349594 0)
(7.36408 0.00300974 0)
(7.36587 0.00249181 0)
(7.36769 0.00194086 0)
(7.36953 0.00135474 0)
(7.37141 0.000730347 0)
(7.37332 6.37223e-05 0)
(7.37526 -0.000649957 0)
(7.37725 -0.0014162 0)
(7.37928 -0.00224099 0)
(7.38135 -0.00313043 0)
(7.38346 -0.00409067 0)
(7.38561 -0.00512497 0)
(7.33303 0.000490413 0)
(7.33331 0.00145248 0)
(7.33391 0.00234145 0)
(7.33476 0.00312328 0)
(7.33582 0.00378079 0)
(7.33704 0.00430785 0)
(7.33839 0.00470639 0)
(7.33984 0.00498443 0)
(7.34135 0.00515315 0)
(7.34292 0.0052246 0)
(7.34452 0.00521052 0)
(7.34614 0.00512161 0)
(7.34779 0.00496719 0)
(7.34945 0.00475512 0)
(7.35112 0.00449186 0)
(7.35279 0.00418261 0)
(7.35447 0.00383139 0)
(7.35616 0.00344128 0)
(7.35786 0.00301442 0)
(7.35957 0.00255217 0)
(7.36129 0.00205511 0)
(7.36302 0.00152307 0)
(7.36477 0.000955182 0)
(7.36655 0.000349785 0)
(7.36834 -0.000295514 0)
(7.37016 -0.000983861 0)
(7.37201 -0.00171911 0)
(7.37389 -0.00250572 0)
(7.37581 -0.00334866 0)
(7.37775 -0.00425315 0)
(7.37973 -0.00522449 0)
(7.38174 -0.00626797 0)
(7.38378 -0.00738614 0)
(7.33302 0.000406633 0)
(7.33329 0.00120394 0)
(7.33385 0.00193841 0)
(7.33465 0.00258152 0)
(7.33564 0.00311821 0)
(7.33679 0.00354219 0)
(7.33807 0.00385402 0)
(7.33945 0.00405938 0)
(7.3409 0.0041669 0)
(7.34241 0.00418618 0)
(7.34395 0.00412677 0)
(7.34553 0.00399754 0)
(7.34713 0.00380628 0)
(7.34874 0.00355959 0)
(7.35037 0.0032629 0)
(7.352 0.0029205 0)
(7.35365 0.00253572 0)
(7.3553 0.00211093 0)
(7.35695 0.00164771 0)
(7.35862 0.00114687 0)
(7.3603 0.000608516 0)
(7.36199 3.20705e-05 0)
(7.36369 -0.000583714 0)
(7.36542 -0.00124074 0)
(7.36716 -0.00194153 0)
(7.36892 -0.00268923 0)
(7.3707 -0.00348753 0)
(7.37251 -0.00434054 0)
(7.37434 -0.00525273 0)
(7.37619 -0.0062287 0)
(7.37808 -0.00727306 0)
(7.37998 -0.00839046 0)
(7.38191 -0.00958282 0)
(7.33302 0.00032598 0)
(7.33327 0.000964867 0)
(7.33379 0.00155039 0)
(7.33455 0.00205837 0)
(7.33548 0.00247563 0)
(7.33657 0.00279604 0)
(7.33779 0.00301915 0)
(7.3391 0.0031489 0)
(7.34049 0.00319181 0)
(7.34194 0.00315541 0)
(7.34344 0.00304736 0)
(7.34496 0.00287484 0)
(7.34651 0.0026442 0)
(7.34808 0.00236083 0)
(7.34967 0.00202913 0)
(7.35126 0.00165252 0)
(7.35286 0.00123356 0)
(7.35447 0.000773997 0)
(7.35609 0.000274811 0)
(7.35771 -0.000263684 0)
(7.35934 -0.000841825 0)
(7.36098 -0.00146056 0)
(7.36263 -0.00212141 0)
(7.3643 -0.00282646 0)
(7.36598 -0.00357833 0)
(7.36767 -0.00438009 0)
(7.36938 -0.00523522 0)
(7.37111 -0.00614753 0)
(7.37285 -0.00712103 0)
(7.37462 -0.00815981 0)
(7.37639 -0.0092679 0)
(7.37819 -0.0104494 0)
(7.37999 -0.0117056 0)
(7.33302 0.000248161 0)
(7.33325 0.000734224 0)
(7.33375 0.00117562 0)
(7.33445 0.00155171 0)
(7.33534 0.00185107 0)
(7.33637 0.00206793 0)
(7.33753 0.00220121 0)
(7.33879 0.0022535 0)
(7.34012 0.00222961 0)
(7.34152 0.00213526 0)
(7.34296 0.00197641 0)
(7.34444 0.00175868 0)
(7.34595 0.00148705 0)
(7.34747 0.00116576 0)
(7.34901 0.000798198 0)
(7.35056 0.000386939 0)
(7.35212 -6.62027e-05 0)
(7.35368 -0.000560121 0)
(7.35525 -0.00109437 0)
(7.35683 -0.0016691 0)
(7.35841 -0.00228504 0)
(7.36 -0.00294345 0)
(7.3616 -0.00364608 0)
(7.3632 -0.00439513 0)
(7.36481 -0.00519324 0)
(7.36643 -0.00604338 0)
(7.36807 -0.00694884 0)
(7.36971 -0.00791312 0)
(7.37136 -0.00893983 0)
(7.37302 -0.0100326 0)
(7.37469 -0.0111949 0)
(7.37637 -0.0124305 0)
(7.37805 -0.0137401 0)
(7.33302 0.00017286 0)
(7.33324 0.000510943 0)
(7.3337 0.000812155 0)
(7.33437 0.00105872 0)
(7.33521 0.00124077 0)
(7.33619 0.00135305 0)
(7.3373 0.00139423 0)
(7.3385 0.00136596 0)
(7.33979 0.00127183 0)
(7.34114 0.00111616 0)
(7.34253 0.000903406 0)
(7.34397 0.000637822 0)
(7.34543 0.000323175 0)
(7.34691 -3.74512e-05 0)
(7.3484 -0.000441657 0)
(7.34991 -0.00088772 0)
(7.35142 -0.00137457 0)
(7.35294 -0.00190173 0)
(7.35446 -0.00246931 0)
(7.35599 -0.00307792 0)
(7.35751 -0.00372864 0)
(7.35905 -0.00442301 0)
(7.36058 -0.00516298 0)
(7.36212 -0.00595084 0)
(7.36366 -0.00678921 0)
(7.36521 -0.00768098 0)
(7.36676 -0.00862923 0)
(7.36831 -0.00963716 0)
(7.36986 -0.010708 0)
(7.37142 -0.0118451 0)
(7.37298 -0.0130513 0)
(7.37454 -0.01433 0)
(7.3761 -0.0156815 0)
(7.33302 9.98149e-05 0)
(7.33322 0.00029436 0)
(7.33366 0.000459337 0)
(7.3343 0.000579567 0)
(7.33509 0.000646762 0)
(7.33603 0.000656349 0)
(7.33709 0.000606803 0)
(7.33825 0.00049902 0)
(7.33949 0.000335217 0)
(7.34079 0.000118392 0)
(7.34214 -0.000148259 0)
(7.34353 -0.000461778 0)
(7.34495 -0.000819568 0)
(7.34638 -0.00121958 0)
(7.34784 -0.00166033 0)
(7.3493 -0.00214086 0)
(7.35076 -0.00266078 0)
(7.35224 -0.00322018 0)
(7.35371 -0.00381963 0)
(7.35518 -0.00446015 0)
(7.35665 -0.00514311 0)
(7.35813 -0.00587028 0)
(7.3596 -0.00664373 0)
(7.36106 -0.00746582 0)
(7.36253 -0.00833912 0)
(7.364 -0.00926639 0)
(7.36546 -0.0102505 0)
(7.36692 -0.0112944 0)
(7.36838 -0.0124011 0)
(7.36983 -0.0135733 0)
(7.37127 -0.0148138 0)
(7.37271 -0.0161253 0)
(7.37413 -0.0175079 0)
(7.33302 2.86224e-05 0)
(7.33321 8.2736e-05 0)
(7.33363 0.000112821 0)
(7.33423 0.00010552 0)
(7.33499 5.41207e-05 0)
(7.33589 -4.46871e-05 0)
(7.33691 -0.000191737 0)
(7.33803 -0.000386081 0)
(7.33922 -0.000625995 0)
(7.34048 -0.000909357 0)
(7.34179 -0.00123407 0)
(7.34314 -0.00159835 0)
(7.34451 -0.00200082 0)
(7.34591 -0.00244053 0)
(7.34732 -0.00291697 0)
(7.34873 -0.00343011 0)
(7.35015 -0.0039803 0)
(7.35158 -0.0045683 0)
(7.353 -0.00519524 0)
(7.35442 -0.00586254 0)
(7.35583 -0.00657194 0)
(7.35724 -0.00732543 0)
(7.35864 -0.00812523 0)
(7.36004 -0.00897373 0)
(7.36143 -0.00987349 0)
(7.36281 -0.0108272 0)
(7.36418 -0.0118374 0)
(7.36555 -0.012907 0)
(7.3669 -0.0140385 0)
(7.36824 -0.0152344 0)
(7.36957 -0.0164971 0)
(7.37088 -0.017829 0)
(7.37218 -0.0192298 0)
(7.33302 -4.05497e-05 0)
(7.3332 -0.000121644 0)
(7.3336 -0.000219373 0)
(7.33417 -0.000344976 0)
(7.3349 -0.000503996 0)
(7.33576 -0.000699554 0)
(7.33674 -0.000933029 0)
(7.33782 -0.00120442 0)
(7.33898 -0.00151283 0)
(7.34021 -0.00185718 0)
(7.34148 -0.0022364 0)
(7.34279 -0.0026496 0)
(7.34412 -0.0030962 0)
(7.34548 -0.00357598 0)
(7.34685 -0.00408912 0)
(7.34822 -0.00463613 0)
(7.34959 -0.00521789 0)
(7.35097 -0.0058356 0)
(7.35234 -0.00649073 0)
(7.3537 -0.007185 0)
(7.35505 -0.00792036 0)
(7.3564 -0.00869896 0)
(7.35773 -0.00952308 0)
(7.35906 -0.0103951 0)
(7.36037 -0.0113176 0)
(7.36166 -0.0122931 0)
(7.36294 -0.013324 0)
(7.36421 -0.0144129 0)
(7.36546 -0.0155621 0)
(7.36668 -0.0167739 0)
(7.36789 -0.0180502 0)
(7.36908 -0.0193932 0)
(7.37024 -0.0208023 0)
(7.33302 -0.000109062 0)
(7.3332 -0.000328912 0)
(7.33358 -0.000566607 0)
(7.33413 -0.000831484 0)
(7.33483 -0.00112482 0)
(7.33566 -0.0014453 0)
(7.33662 -0.0017912 0)
(7.33766 -0.00216107 0)
(7.33879 -0.00255403 0)
(7.33998 -0.00296988 0)
(7.34121 -0.0034089 0)
(7.34248 -0.0038718 0)
(7.34378 -0.0043596 0)
(7.3451 -0.00487358 0)
(7.34642 -0.00541523 0)
(7.34775 -0.00598624 0)
(7.34908 -0.00658842 0)
(7.3504 -0.00722377 0)
(7.35172 -0.00789435 0)
(7.35302 -0.00860237 0)
(7.35432 -0.00935012 0)
(7.3556 -0.01014 0)
(7.35686 -0.0109743 0)
(7.35811 -0.0118556 0)
(7.35934 -0.0127863 0)
(7.36055 -0.0137689 0)
(7.36173 -0.0148056 0)
(7.3629 -0.0158987 0)
(7.36404 -0.0170503 0)
(7.36516 -0.0182624 0)
(7.36625 -0.0195368 0)
(7.36731 -0.020875 0)
(7.36835 -0.0222765 0)
(7.33301 -0.00017246 0)
(7.33317 -0.000507444 0)
(7.33353 -0.000844696 0)
(7.33405 -0.00119599 0)
(7.33472 -0.00156668 0)
(7.33553 -0.00195914 0)
(7.33646 -0.00237394 0)
(7.33748 -0.0028104 0)
(7.33859 -0.00326759 0)
(7.33976 -0.00374487 0)
(7.34097 -0.00424207 0)
(7.34222 -0.00475954 0)
(7.34349 -0.00529809 0)
(7.34477 -0.00585892 0)
(7.34606 -0.00644357 0)
(7.34735 -0.00705381 0)
(7.34864 -0.00769167 0)
(7.34992 -0.0083593 0)
(7.35118 -0.009059 0)
(7.35243 -0.00979314 0)
(7.35366 -0.0105642 0)
(7.35488 -0.0113746 0)
(7.35607 -0.0122268 0)
(7.35724 -0.0131234 0)
(7.35838 -0.0140667 0)
(7.3595 -0.0150592 0)
(7.3606 -0.016103 0)
(7.36166 -0.0172002 0)
(7.3627 -0.0183529 0)
(7.36371 -0.0195627 0)
(7.36468 -0.0208313 0)
(7.36562 -0.0221601 0)
(7.36652 -0.0235483 0)
(7.33302 -0.000247263 0)
(7.3332 -0.000757383 0)
(7.33355 -0.00129616 0)
(7.33407 -0.00185907 0)
(7.33472 -0.00243103 0)
(7.33551 -0.00300041 0)
(7.33641 -0.00356192 0)
(7.3374 -0.00411466 0)
(7.33847 -0.00466039 0)
(7.3396 -0.00520246 0)
(7.34078 -0.00574496 0)
(7.34199 -0.00629222 0)
(7.34323 -0.0068485 0)
(7.34447 -0.0074179 0)
(7.34572 -0.00800425 0)
(7.34697 -0.00861115 0)
(7.34821 -0.00924198 0)
(7.34944 -0.0098999 0)
(7.35066 -0.0105879 0)
(7.35185 -0.0113089 0)
(7.35302 -0.0120656 0)
(7.35417 -0.0128607 0)
(7.3553 -0.0136966 0)
(7.35639 -0.0145758 0)
(7.35746 -0.0155006 0)
(7.35849 -0.0164732 0)
(7.35949 -0.0174955 0)
(7.36046 -0.0185694 0)
(7.36139 -0.0196967 0)
(7.36229 -0.0208787 0)
(7.36315 -0.0221166 0)
(7.36396 -0.0234119 0)
(7.36474 -0.0247633 0)
(7.333 -0.000273554 0)
(7.3331 -0.00077585 0)
(7.33338 -0.00126546 0)
(7.33385 -0.00177835 0)
(7.33449 -0.00232573 0)
(7.33528 -0.00290472 0)
(7.3362 -0.00350737 0)
(7.33722 -0.00412545 0)
(7.33831 -0.0047528 0)
(7.33946 -0.00538574 0)
(7.34064 -0.00602275 0)
(7.34185 -0.00666395 0)
(7.34308 -0.00731065 0)
(7.34431 -0.007965 0)
(7.34553 -0.00862968 0)
(7.34675 -0.00930767 0)
(7.34795 -0.0100021 0)
(7.34914 -0.0107163 0)
(7.3503 -0.0114533 0)
(7.35144 -0.0122163 0)
(7.35255 -0.0130084 0)
(7.35363 -0.0138325 0)
(7.35468 -0.0146914 0)
(7.3557 -0.0155877 0)
(7.35668 -0.0165239 0)
(7.35763 -0.0175025 0)
(7.35854 -0.0185254 0)
(7.35941 -0.0195946 0)
(7.36023 -0.0207118 0)
(7.36102 -0.0218785 0)
(7.36176 -0.023096 0)
(7.36246 -0.0243653 0)
(7.36311 -0.0256857 0)
(7.33305 -0.000442599 0)
(7.33328 -0.00139581 0)
(7.33364 -0.00240262 0)
(7.3341 -0.00339722 0)
(7.33469 -0.00432834 0)
(7.33541 -0.00517962 0)
(7.33625 -0.00595495 0)
(7.33719 -0.00666532 0)
(7.33822 -0.00732388 0)
(7.33932 -0.00794387 0)
(7.34045 -0.00853752 0)
(7.34162 -0.00911562 0)
(7.34281 -0.00968737 0)
(7.34401 -0.0102605 0)
(7.3452 -0.0108417 0)
(7.34638 -0.0114363 0)
(7.34755 -0.0120491 0)
(7.3487 -0.0126843 0)
(7.34982 -0.0133453 0)
(7.35091 -0.0140353 0)
(7.35197 -0.0147573 0)
(7.353 -0.0155137 0)
(7.35399 -0.016307 0)
(7.35494 -0.0171393 0)
(7.35585 -0.0180126 0)
(7.35672 -0.0189287 0)
(7.35754 -0.0198892 0)
(7.35832 -0.0208954 0)
(7.35906 -0.0219488 0)
(7.35974 -0.0230501 0)
(7.36038 -0.0242004 0)
(7.36096 -0.0254003 0)
(7.3615 -0.0266488 0)
(7.33293 -0.000189948 0)
(7.33282 -0.000477269 0)
(7.33296 -0.000820038 0)
(7.3334 -0.00134655 0)
(7.3341 -0.00204513 0)
(7.33497 -0.00285645 0)
(7.33597 -0.0037273 0)
(7.33705 -0.00462048 0)
(7.3382 -0.0055126 0)
(7.33937 -0.00639013 0)
(7.34057 -0.00724663 0)
(7.34178 -0.00808058 0)
(7.34298 -0.00889357 0)
(7.34417 -0.00968908 0)
(7.34534 -0.0104716 0)
(7.3465 -0.0112462 0)
(7.34762 -0.0120179 0)
(7.34872 -0.0127917 0)
(7.34978 -0.0135725 0)
(7.35081 -0.0143648 0)
(7.3518 -0.0151726 0)
(7.35276 -0.016 0)
(7.35367 -0.0168504 0)
(7.35454 -0.017727 0)
(7.35536 -0.0186328 0)
(7.35613 -0.0195704 0)
(7.35686 -0.020542 0)
(7.35754 -0.0215498 0)
(7.35817 -0.0225953 0)
(7.35874 -0.0236802 0)
(7.35927 -0.0248055 0)
(7.35973 -0.0259724 0)
(7.36015 -0.02718 0)
(7.33316 -0.000888662 0)
(7.33361 -0.00294324 0)
(7.33391 -0.00495669 0)
(7.33416 -0.00667016 0)
(7.33454 -0.00803849 0)
(7.33512 -0.00912434 0)
(7.33587 -0.00999719 0)
(7.33676 -0.0107143 0)
(7.33776 -0.0113221 0)
(7.33885 -0.0118571 0)
(7.33998 -0.0123471 0)
(7.34115 -0.0128128 0)
(7.34233 -0.0132696 0)
(7.34351 -0.0137285 0)
(7.34468 -0.0141979 0)
(7.34583 -0.0146839 0)
(7.34695 -0.0151911 0)
(7.34804 -0.0157232 0)
(7.3491 -0.016283 0)
(7.35011 -0.0168728 0)
(7.35108 -0.0174946 0)
(7.35201 -0.0181501 0)
(7.35288 -0.0188407 0)
(7.35371 -0.0195678 0)
(7.35448 -0.0203326 0)
(7.3552 -0.021136 0)
(7.35587 -0.021979 0)
(7.35648 -0.0228624 0)
(7.35704 -0.0237867 0)
(7.35753 -0.0247525 0)
(7.35797 -0.0257601 0)
(7.35835 -0.02681 0)
(7.35867 -0.0279008 0)
(7.33266 0.000511006 0)
(7.33187 0.0017181 0)
(7.33189 0.00231107 0)
(7.33258 0.00195059 0)
(7.3336 0.000948926 0)
(7.33477 -0.000373266 0)
(7.33599 -0.00182089 0)
(7.33725 -0.00328942 0)
(7.3385 -0.00472037 0)
(7.33975 -0.00608232 0)
(7.34097 -0.00736277 0)
(7.34217 -0.00856078 0)
(7.34334 -0.00968172 0)
(7.34448 -0.0107341 0)
(7.34559 -0.0117279 0)
(7.34666 -0.0126732 0)
(7.3477 -0.0135799 0)
(7.34869 -0.0144571 0)
(7.34965 -0.0153132 0)
(7.35056 -0.0161558 0)
(7.35143 -0.0169915 0)
(7.35224 -0.0178263 0)
(7.35302 -0.0186654 0)
(7.35374 -0.0195134 0)
(7.3544 -0.0203744 0)
(7.35502 -0.0212518 0)
(7.35558 -0.0221488 0)
(7.35608 -0.0230677 0)
(7.35653 -0.024011 0)
(7.35692 -0.0249803 0)
(7.35724 -0.0259772 0)
(7.35751 -0.0270027 0)
(7.35772 -0.0280567 0)
(7.33352 -0.00204165 0)
(7.33441 -0.00690244 0)
(7.33399 -0.0114258 0)
(7.33326 -0.014263 0)
(7.33303 -0.0159141 0)
(7.33332 -0.0168784 0)
(7.33399 -0.0174111 0)
(7.3349 -0.0176837 0)
(7.33598 -0.0178146 0)
(7.33718 -0.0178797 0)
(7.33843 -0.0179272 0)
(7.33971 -0.0179862 0)
(7.34099 -0.0180741 0)
(7.34226 -0.0182001 0)
(7.3435 -0.0183693 0)
(7.3447 -0.0185836 0)
(7.34585 -0.0188432 0)
(7.34696 -0.0191477 0)
(7.34802 -0.0194961 0)
(7.34902 -0.0198873 0)
(7.34996 -0.02032 0)
(7.35085 -0.0207934 0)
(7.35168 -0.0213065 0)
(7.35244 -0.0218585 0)
(7.35315 -0.0224489 0)
(7.35379 -0.0230772 0)
(7.35437 -0.0237428 0)
(7.35488 -0.0244454 0)
(7.35533 -0.0251847 0)
(7.35571 -0.0259604 0)
(7.35603 -0.0267721 0)
(7.35629 -0.0276197 0)
(7.35647 -0.0285018 0)
(7.33179 0.00338186 0)
(7.329 0.00917859 0)
(7.32947 0.0117845 0)
(7.33179 0.0114837 0)
(7.33385 0.00936667 0)
(7.33558 0.00664766 0)
(7.33713 0.00382814 0)
(7.33853 0.00109429 0)
(7.33981 -0.00145318 0)
(7.34101 -0.0037722 0)
(7.34214 -0.00586019 0)
(7.34322 -0.00773258 0)
(7.34427 -0.00941188 0)
(7.34529 -0.010923 0)
(7.34628 -0.0122904 0)
(7.34724 -0.0135368 0)
(7.34818 -0.0146827 0)
(7.34909 -0.015746 0)
(7.34997 -0.0167422 0)
(7.35081 -0.0176848 0)
(7.35162 -0.0185853 0)
(7.35238 -0.0194537 0)
(7.35311 -0.0202983 0)
(7.35379 -0.0211265 0)
(7.35442 -0.0219443 0)
(7.35499 -0.0227571 0)
(7.35552 -0.0235694 0)
(7.35599 -0.024385 0)
(7.3564 -0.0252071 0)
(7.35675 -0.0260383 0)
(7.35703 -0.0268807 0)
(7.35726 -0.0277362 0)
(7.35742 -0.0286052 0)
(7.33408 -0.00614093 0)
(7.33403 -0.0189991 0)
(7.33026 -0.0270727 0)
(7.32658 -0.030611 0)
(7.32498 -0.0313954 0)
(7.32519 -0.0309789 0)
(7.32623 -0.0300314 0)
(7.3277 -0.0288756 0)
(7.32943 -0.0277094 0)
(7.33131 -0.0266365 0)
(7.33325 -0.0257015 0)
(7.33521 -0.0249188 0)
(7.33716 -0.0242875 0)
(7.33906 -0.0237988 0)
(7.34092 -0.0234402 0)
(7.34271 -0.0231983 0)
(7.34444 -0.0230602 0)
(7.3461 -0.0230141 0)
(7.3477 -0.0230493 0)
(7.34921 -0.0231568 0)
(7.35065 -0.0233287 0)
(7.35202 -0.0235584 0)
(7.35331 -0.0238403 0)
(7.35451 -0.0241699 0)
(7.35564 -0.0245432 0)
(7.35669 -0.0249571 0)
(7.35766 -0.0254089 0)
(7.35854 -0.0258963 0)
(7.35935 -0.0264175 0)
(7.36007 -0.0269709 0)
(7.36071 -0.0275551 0)
(7.36127 -0.0281693 0)
(7.36176 -0.0288115 0)
(7.32967 0.0198526 0)
(7.32497 0.0369838 0)
(7.3293 0.0376678 0)
(7.33509 0.0322486 0)
(7.33872 0.0258255 0)
(7.34088 0.0195029 0)
(7.34268 0.0135899 0)
(7.3444 0.00829116 0)
(7.34613 0.00365253 0)
(7.34793 -0.000372472 0)
(7.34982 -0.00385296 0)
(7.35179 -0.00686051 0)
(7.35384 -0.00946414 0)
(7.35593 -0.0117265 0)
(7.35805 -0.0137021 0)
(7.36017 -0.0154376 0)
(7.36229 -0.0169726 0)
(7.36438 -0.0183404 0)
(7.36643 -0.019569 0)
(7.36843 -0.0206818 0)
(7.37037 -0.0216985 0)
(7.37225 -0.0226357 0)
(7.37404 -0.0235074 0)
(7.37576 -0.0243253 0)
(7.37739 -0.0250994 0)
(7.37894 -0.0258381 0)
(7.38039 -0.0265485 0)
(7.38175 -0.0272369 0)
(7.38301 -0.0279085 0)
(7.38417 -0.0285677 0)
(7.38524 -0.0292186 0)
(7.38621 -0.0298641 0)
(7.38708 -0.0305076 0)
(7.32507 -0.0330873 0)
(7.29737 -0.0587878 0)
(7.27805 -0.0617376 0)
(7.27374 -0.0593844 0)
(7.28035 -0.0559032 0)
(7.29178 -0.0518717 0)
(7.30503 -0.0479392 0)
(7.31875 -0.0444405 0)
(7.33218 -0.0414251 0)
(7.34491 -0.0388753 0)
(7.35678 -0.0367542 0)
(7.36773 -0.0350103 0)
(7.37777 -0.0335896 0)
(7.38695 -0.0324431 0)
(7.3953 -0.0315274 0)
(7.4029 -0.0308055 0)
(7.4098 -0.0302461 0)
(7.41606 -0.0298233 0)
(7.42173 -0.0295154 0)
(7.42685 -0.0293049 0)
(7.43148 -0.0291773 0)
(7.43564 -0.0291207 0)
(7.43937 -0.0291253 0)
(7.44272 -0.0291832 0)
(7.4457 -0.0292877 0)
(7.44833 -0.0294336 0)
(7.45066 -0.0296163 0)
(7.45269 -0.0298321 0)
(7.45445 -0.0300779 0)
(7.45596 -0.0303511 0)
(7.45722 -0.0306493 0)
(7.45827 -0.0309706 0)
(7.45911 -0.031312 0)
(7.33915 0.134723 0)
(7.3762 0.127069 0)