/*--------------------------------*- C++ -*----------------------------------*\
  =========                 |
  \\      /  F ield         | OpenFOAM: The Open Source CFD Toolbox
   \\    /   O peration     | Website:  https://openfoam.org
    \\  /    A nd           | Version:  10
     \\/     M anipulation  |
\*---------------------------------------------------------------------------*/
FoamFile
{
    format      ascii;
    class       volScalarField;
    location    "0.105";
    object      nut;
}
// * * * * * * * * * * * * * * * * * * * * * * * * * * * * * * * * * * * * * //

dimensions      [0 2 -1 0 0 0 0];

internalField   nonuniform List<scalar> 
6820
(
0.00050321
0.000397044
0.000324405
0.000269149
0.000236146
0.000213604
0.000196814
0.000183907
0.000173422
0.000164563
0.000156884
0.000150089
0.000143983
0.000138425
0.000133315
0.000128574
0.000124143
0.000119975
0.000116032
0.000112282
0.000108701
0.000105267
0.000101963
9.87728e-05
9.56851e-05
9.26907e-05
8.97804e-05
8.69568e-05
8.41982e-05
8.15722e-05
7.89313e-05
7.66532e-05
7.34458e-05
8.1861e-05
0.000143751
0.00019646
0.000210872
0.00020642
0.000197518
0.000187203
0.000177235
0.000168205
0.000160099
0.000152816
0.000146239
0.00014026
0.000134791
0.000129758
0.000125101
0.000120771
0.000116725
0.000112928
0.000109349
0.000105964
0.000102749
9.96849e-05
9.6756e-05
9.39472e-05
9.12448e-05
8.86383e-05
8.61121e-05
8.3668e-05
8.12562e-05
7.89573e-05
7.6506e-05
7.46771e-05
3.85894e-05
2.73832e-05
4.3105e-05
7.45924e-05
9.6067e-05
0.000109489
0.000116787
0.000120126
0.000121084
0.000120565
0.00011913
0.000117131
0.000114792
0.000112258
0.000109624
0.00010695
0.00010428
0.00010164
9.90487e-05
9.6518e-05
9.4055e-05
9.16634e-05
8.93448e-05
8.70994e-05
8.49256e-05
8.28212e-05
8.07828e-05
7.88062e-05
7.68847e-05
7.50072e-05
7.31585e-05
7.12879e-05
6.9415e-05
1.99694e-05
2.35193e-05
2.20431e-05
1.27199e-05
2.90682e-06
1.26396e-05
2.32752e-05
3.20528e-05
3.91539e-05
4.48277e-05
4.93129e-05
5.28216e-05
5.55248e-05
5.7562e-05
5.90539e-05
6.00994e-05
6.07798e-05
6.11623e-05
6.13026e-05
6.12466e-05
6.10321e-05
6.06905e-05
6.02478e-05
5.97253e-05
5.91403e-05
5.8507e-05
5.78363e-05
5.71357e-05
5.64109e-05
5.56604e-05
5.48844e-05
5.40751e-05
5.32628e-05
1.32482e-05
1.50721e-05
1.99226e-05
2.20179e-05
2.14567e-05
1.94867e-05
1.68133e-05
1.38025e-05
1.06709e-05
7.54854e-06
4.52159e-06
1.67748e-06
1.22341e-06
3.66307e-06
5.95762e-06
8.05602e-06
9.96028e-06
1.168e-05
1.32279e-05
1.4618e-05
1.58647e-05
1.69824e-05
1.79849e-05
1.8885e-05
1.96947e-05
2.04245e-05
2.10835e-05
2.16794e-05
2.22175e-05
2.27024e-05
2.31355e-05
2.35304e-05
2.389e-05
1.0196e-05
1.10121e-05
1.18333e-05
1.26386e-05
1.32852e-05
1.38428e-05
1.4253e-05
1.44788e-05
1.453e-05
1.44265e-05
1.41884e-05
1.38374e-05
1.33922e-05
1.28681e-05
1.22837e-05
1.16549e-05
1.09952e-05
1.03158e-05
9.62586e-06
8.93247e-06
8.24099e-06
7.55533e-06
6.87817e-06
6.21134e-06
5.55593e-06
4.91273e-06
4.28207e-06
3.66483e-06
3.0607e-06
2.47061e-06
1.89141e-06
1.31164e-06
7.27987e-07
7.54208e-06
8.24588e-06
8.66208e-06
8.8928e-06
8.79019e-06
8.59228e-06
8.44212e-06
8.37019e-06
8.36923e-06
8.41399e-06
8.47684e-06
8.53846e-06
8.58996e-06
8.62757e-06
8.64732e-06
8.64751e-06
8.62808e-06
8.58981e-06
8.53399e-06
8.4622e-06
8.3762e-06
8.27779e-06
8.16878e-06
8.05099e-06
7.92614e-06
7.79602e-06
7.66215e-06
7.52625e-06
7.38901e-06
7.25138e-06
7.11134e-06
6.96601e-06
6.81349e-06
5.76109e-06
6.61001e-06
6.99801e-06
7.10389e-06
6.84871e-06
6.48627e-06
6.15695e-06
5.88489e-06
5.66856e-06
5.4989e-06
5.36395e-06
5.25395e-06
5.16174e-06
5.08226e-06
5.01214e-06
4.94896e-06
4.89072e-06
4.83587e-06
4.78332e-06
4.73237e-06
4.68265e-06
4.63413e-06
4.58699e-06
4.5417e-06
4.49885e-06
4.45926e-06
4.42372e-06
4.39315e-06
4.36791e-06
4.34834e-06
4.33293e-06
4.32059e-06
4.30958e-06
4.48856e-06
5.25031e-06
5.53733e-06
5.68352e-06
5.59678e-06
5.3857e-06
5.14005e-06
4.89364e-06
4.66555e-06
4.46363e-06
4.28616e-06
4.12879e-06
3.98762e-06
3.85944e-06
3.74163e-06
3.63212e-06
3.52935e-06
3.43219e-06
3.33985e-06
3.25177e-06
3.16757e-06
3.08707e-06
3.0102e-06
2.93704e-06
2.86776e-06
2.80263e-06
2.74186e-06
2.68564e-06
2.63373e-06
2.5857e-06
2.54008e-06
2.49504e-06
2.4508e-06
3.56102e-06
4.24348e-06
4.51369e-06
4.66823e-06
4.62814e-06
4.4633e-06
4.26061e-06
4.0581e-06
3.87187e-06
3.70634e-06
3.55887e-06
3.42558e-06
3.30344e-06
3.1901e-06
3.0838e-06
2.98329e-06
2.88769e-06
2.79634e-06
2.7087e-06
2.6244e-06
2.54316e-06
2.46482e-06
2.38931e-06
2.31663e-06
2.24679e-06
2.17982e-06
2.11564e-06
2.05403e-06
1.9944e-06
1.93579e-06
1.87675e-06
1.81472e-06
1.75062e-06
2.87215e-06
3.46906e-06
3.71938e-06
3.86019e-06
3.85406e-06
3.74439e-06
3.59449e-06
3.43396e-06
3.27692e-06
3.1304e-06
2.99588e-06
2.87259e-06
2.75926e-06
2.65455e-06
2.55712e-06
2.46586e-06
2.3798e-06
2.29819e-06
2.22042e-06
2.14605e-06
2.07474e-06
2.00627e-06
1.94049e-06
1.87728e-06
1.81652e-06
1.75804e-06
1.70155e-06
1.64657e-06
1.59232e-06
1.53761e-06
1.48101e-06
1.41976e-06
1.35485e-06
2.34718e-06
2.86437e-06
3.11127e-06
3.25503e-06
3.27946e-06
3.20687e-06
3.08593e-06
2.94662e-06
2.80564e-06
2.67191e-06
2.54822e-06
2.43448e-06
2.32975e-06
2.23287e-06
2.14269e-06
2.05823e-06
1.97869e-06
1.90343e-06
1.83196e-06
1.76387e-06
1.69886e-06
1.63667e-06
1.57709e-06
1.51992e-06
1.46494e-06
1.41184e-06
1.36018e-06
1.30936e-06
1.2585e-06
1.20639e-06
1.15176e-06
1.09209e-06
1.02847e-06
1.93747e-06
2.3872e-06
2.6346e-06
2.7803e-06
2.82329e-06
2.77916e-06
2.68653e-06
2.57249e-06
2.45224e-06
2.33412e-06
2.22168e-06
2.116e-06
2.01722e-06
1.92503e-06
1.83888e-06
1.75818e-06
1.68239e-06
1.61097e-06
1.54349e-06
1.47955e-06
1.41881e-06
1.36099e-06
1.30581e-06
1.25298e-06
1.20219e-06
1.15303e-06
1.10498e-06
1.05737e-06
1.00934e-06
9.59784e-07
9.07623e-07
8.50864e-07
7.90651e-07
1.61024e-06
2.00542e-06
2.25517e-06
2.40717e-06
2.46772e-06
2.44865e-06
2.37954e-06
2.28451e-06
2.17855e-06
2.07079e-06
1.96602e-06
1.86639e-06
1.77271e-06
1.68505e-06
1.60311e-06
1.52643e-06
1.45455e-06
1.38701e-06
1.32341e-06
1.26337e-06
1.20656e-06
1.15269e-06
1.10146e-06
1.05253e-06
1.00556e-06
9.60121e-07
9.15682e-07
8.7162e-07
8.27216e-07
7.81632e-07
7.34202e-07
6.83752e-07
6.31863e-07
1.34302e-06
1.69653e-06
1.94961e-06
2.10981e-06
2.1846e-06
2.18502e-06
2.1351e-06
2.05686e-06
1.96492e-06
1.86839e-06
1.77239e-06
1.67958e-06
1.59121e-06
1.50779e-06
1.42937e-06
1.35579e-06
1.2868e-06
1.2221e-06
1.16137e-06
1.10431e-06
1.05062e-06
1.00001e-06
9.52178e-07
9.06797e-07
8.63516e-07
8.21939e-07
7.81628e-07
7.42106e-07
7.02915e-07
6.63632e-07
6.24159e-07
5.84341e-07
5.46357e-07
1.12018e-06
1.44386e-06
1.70096e-06
1.87066e-06
1.95878e-06
1.97655e-06
1.94402e-06
1.88088e-06
1.80111e-06
1.71383e-06
1.62468e-06
1.53698e-06
1.45257e-06
1.37241e-06
1.29688e-06
1.22603e-06
1.15975e-06
1.09782e-06
1.04001e-06
9.8603e-07
9.3562e-07
8.885e-07
8.44391e-07
8.03002e-07
7.64034e-07
7.27183e-07
6.92159e-07
6.58719e-07
6.26729e-07
5.96236e-07
5.67704e-07
5.41807e-07
5.20962e-07
9.30548e-07
1.2352e-06
1.49738e-06
1.6773e-06
1.77794e-06
1.8108e-06
1.79334e-06
1.74343e-06
1.6746e-06
1.59606e-06
1.51378e-06
1.43149e-06
1.35142e-06
1.2748e-06
1.2023e-06
1.13416e-06
1.07043e-06
1.01104e-06
9.55828e-07
9.04609e-07
8.57173e-07
8.13299e-07
7.72764e-07
7.35343e-07
7.00819e-07
6.69014e-07
6.39805e-07
6.13172e-07
5.89255e-07
5.68418e-07
5.51392e-07
5.39116e-07
5.33518e-07
7.66098e-07
1.06171e-06
1.33037e-06
1.52077e-06
1.63344e-06
1.68009e-06
1.67649e-06
1.63898e-06
1.58053e-06
1.51029e-06
1.43447e-06
1.35719e-06
1.28106e-06
1.20768e-06
1.13799e-06
1.07246e-06
1.0113e-06
9.54566e-07
9.02187e-07
8.54042e-07
8.09967e-07
7.69784e-07
7.33328e-07
7.0044e-07
6.70977e-07
6.44864e-07
6.22096e-07
6.02777e-07
5.87156e-07
5.75656e-07
5.68952e-07
5.67802e-07
5.73419e-07
6.21072e-07
9.1723e-07
1.19399e-06
1.39485e-06
1.51909e-06
1.57843e-06
1.58751e-06
1.56137e-06
1.51246e-06
1.44993e-06
1.38021e-06
1.30773e-06
1.23542e-06
1.16516e-06
1.09818e-06
1.03507e-06
9.76224e-07
9.2181e-07
8.71849e-07
8.26282e-07
7.85023e-07
7.47925e-07
7.14926e-07
6.85929e-07
6.60764e-07
6.39426e-07
6.21959e-07
6.08494e-07
5.99274e-07
5.94623e-07
5.95014e-07
6.00915e-07
6.12953e-07
4.917e-07
7.98029e-07
1.08434e-06
1.29535e-06
1.43064e-06
1.50187e-06
1.52284e-06
1.50757e-06
1.46804e-06
1.41329e-06
1.34993e-06
1.28263e-06
1.21461e-06
1.14808e-06
1.08421e-06
1.024e-06
9.67966e-07
9.16359e-07
8.69279e-07
8.26746e-07
7.88684e-07
7.5507e-07
7.25722e-07
7.00451e-07
6.79332e-07
6.62335e-07
6.49464e-07
6.40819e-07
6.36524e-07
6.36605e-07
6.41489e-07
6.51408e-07
6.66592e-07
3.76572e-07
7.02572e-07
9.99077e-07
1.21954e-06
1.36516e-06
1.44736e-06
1.47923e-06
1.47393e-06
1.44289e-06
1.39509e-06
1.33725e-06
1.27425e-06
1.2096e-06
1.14571e-06
1.08392e-06
1.02556e-06
9.71182e-07
9.21149e-07
8.75655e-07
8.34766e-07
7.98437e-07
7.66678e-07
7.39235e-07
7.15978e-07
6.97068e-07
6.82381e-07
6.71873e-07
6.65509e-07
6.63348e-07
6.65694e-07
6.72399e-07
6.83555e-07
6.99203e-07
2.79068e-07
6.31816e-07
9.37444e-07
1.16621e-06
1.32139e-06
1.41399e-06
1.45643e-06
1.46108e-06
1.43892e-06
1.39883e-06
1.34753e-06
1.29006e-06
1.23004e-06
1.16994e-06
1.11177e-06
1.05647e-06
1.00482e-06
9.57258e-07
9.14025e-07
8.75209e-07
8.40853e-07
8.10818e-07
7.85179e-07
7.63916e-07
7.46702e-07
7.33495e-07
7.24266e-07
7.18902e-07
7.17414e-07
7.20216e-07
7.26881e-07
7.37354e-07
7.51566e-07
2.1314e-07
5.88434e-07
8.99538e-07
1.13469e-06
1.298e-06
1.39958e-06
1.45098e-06
1.46382e-06
1.44862e-06
1.41405e-06
1.36695e-06
1.31253e-06
1.25462e-06
1.19596e-06
1.13866e-06
1.08387e-06
1.03247e-06
9.85003e-07
9.41757e-07
9.02868e-07
8.68376e-07
8.38185e-07
8.12307e-07
7.90706e-07
7.7313e-07
7.59502e-07
7.49748e-07
7.43852e-07
7.41642e-07
7.42709e-07
7.47424e-07
7.55712e-07
7.67267e-07
2.07595e-07
5.76152e-07
8.867e-07
1.12628e-06
1.29712e-06
1.40787e-06
1.46912e-06
1.49172e-06
1.48564e-06
1.45927e-06
1.41935e-06
1.37106e-06
1.3183e-06
1.26393e-06
1.20989e-06
1.15767e-06
1.10818e-06
1.06204e-06
1.0196e-06
9.81073e-07
9.46517e-07
9.15965e-07
8.89303e-07
8.66431e-07
8.47347e-07
8.31929e-07
8.20057e-07
8.1168e-07
8.06741e-07
8.04852e-07
8.06098e-07
8.10433e-07
8.17505e-07
2.70467e-07
5.98187e-07
9.0014e-07
1.14059e-06
1.316e-06
1.43253e-06
1.4995e-06
1.52701e-06
1.52469e-06
1.50091e-06
1.46251e-06
1.41485e-06
1.36203e-06
1.30708e-06
1.25212e-06
1.1987e-06
1.14782e-06
1.10014e-06
1.05602e-06
1.01568e-06
9.79193e-07
9.46555e-07
9.17697e-07
8.9252e-07
8.70929e-07
8.52806e-07
8.38032e-07
8.26463e-07
8.18008e-07
8.12711e-07
8.10273e-07
8.10622e-07
8.13406e-07
3.76129e-07
6.5535e-07
9.43135e-07
1.18365e-06
1.36543e-06
1.49156e-06
1.56967e-06
1.60868e-06
1.61734e-06
1.60339e-06
1.57332e-06
1.53236e-06
1.4846e-06
1.43313e-06
1.38025e-06
1.32766e-06
1.27652e-06
1.22765e-06
1.18158e-06
1.13862e-06
1.09895e-06
1.06265e-06
1.02972e-06
1.00012e-06
9.73786e-07
9.50626e-07
9.30549e-07
9.13447e-07
8.99204e-07
8.87713e-07
8.78829e-07
8.72474e-07
8.68257e-07
5.08073e-07
7.4603e-07
1.01461e-06
1.24923e-06
1.42947e-06
1.55489e-06
1.63192e-06
1.66927e-06
1.67583e-06
1.65958e-06
1.62721e-06
1.58405e-06
1.53422e-06
1.48081e-06
1.42605e-06
1.37155e-06
1.3184e-06
1.26735e-06
1.21887e-06
1.17326e-06
1.13066e-06
1.09115e-06
1.05472e-06
1.02134e-06
9.90949e-07
9.63477e-07
9.3884e-07
9.16949e-07
8.97724e-07
8.81079e-07
8.66899e-07
8.55149e-07
8.45359e-07
6.63063e-07
8.71364e-07
1.12457e-06
1.36098e-06
1.55275e-06
1.69465e-06
1.78978e-06
1.84445e-06
1.86596e-06
1.86146e-06
1.83739e-06
1.79924e-06
1.7515e-06
1.69769e-06
1.64055e-06
1.58211e-06
1.52382e-06
1.46674e-06
1.41157e-06
1.35877e-06
1.30861e-06
1.26125e-06
1.21673e-06
1.17508e-06
1.13624e-06
1.10016e-06
1.06676e-06
1.03596e-06
1.00768e-06
9.81809e-07
9.58254e-07
9.36961e-07
9.17445e-07
8.4396e-07
1.03049e-06
1.26141e-06
1.48083e-06
1.65629e-06
1.78178e-06
1.86172e-06
1.90387e-06
1.91621e-06
1.90582e-06
1.8786e-06
1.8393e-06
1.79164e-06
1.73851e-06
1.6821e-06
1.62406e-06
1.56564e-06
1.50774e-06
1.45102e-06
1.39596e-06
1.34287e-06
1.29196e-06
1.24335e-06
1.19712e-06
1.15329e-06
1.11186e-06
1.0728e-06
1.03608e-06
1.00167e-06
9.69524e-07
9.39576e-07
9.11877e-07
8.85788e-07
1.05679e-06
1.2343e-06
1.46652e-06
1.71011e-06
1.9232e-06
2.08832e-06
2.20228e-06
2.26936e-06
2.29684e-06
2.29276e-06
2.26475e-06
2.21941e-06
2.16213e-06
2.09712e-06
2.02755e-06
1.95577e-06
1.88344e-06
1.8117e-06
1.74135e-06
1.67289e-06
1.60664e-06
1.54276e-06
1.48135e-06
1.42243e-06
1.366e-06
1.31201e-06
1.26044e-06
1.21122e-06
1.16432e-06
1.11965e-06
1.07717e-06
1.03685e-06
9.98079e-07
1.31272e-06
1.47861e-06
1.6698e-06
1.85693e-06
2.01109e-06
2.12689e-06
2.20761e-06
2.25811e-06
2.28258e-06
2.28475e-06
2.26817e-06
2.23622e-06
2.19203e-06
2.13847e-06
2.07805e-06
2.01289e-06
1.94476e-06
1.87509e-06
1.80497e-06
1.73524e-06
1.66652e-06
1.59924e-06
1.53367e-06
1.47002e-06
1.40838e-06
1.34881e-06
1.29134e-06
1.23599e-06
1.18276e-06
1.13165e-06
1.08266e-06
1.03592e-06
9.90471e-07
1.62404e-06
1.81225e-06
2.07105e-06
2.37095e-06
2.63653e-06
2.83044e-06
2.9503e-06
3.00773e-06
3.01655e-06
2.9896e-06
2.93759e-06
2.86872e-06
2.78892e-06
2.70237e-06
2.61197e-06
2.51968e-06
2.42686e-06
2.33442e-06
2.24302e-06
2.15309e-06
2.06495e-06
1.9788e-06
1.8948e-06
1.81301e-06
1.7335e-06
1.65628e-06
1.58138e-06
1.50879e-06
1.43854e-06
1.37063e-06
1.30507e-06
1.24192e-06
1.18043e-06
2.02127e-06
2.16674e-06
2.26183e-06
2.36552e-06
2.48538e-06
2.61173e-06
2.73044e-06
2.82874e-06
2.89799e-06
2.9349e-06
2.94059e-06
2.9188e-06
2.87437e-06
2.81228e-06
2.73709e-06
2.6527e-06
2.5623e-06
2.46835e-06
2.37272e-06
2.2768e-06
2.18154e-06
2.08762e-06
1.99546e-06
1.90534e-06
1.81741e-06
1.73172e-06
1.64833e-06
1.56727e-06
1.48859e-06
1.41241e-06
1.33882e-06
1.26825e-06
1.19934e-06
2.52433e-06
2.84826e-06
3.29664e-06
3.74617e-06
4.05194e-06
4.20296e-06
4.24563e-06
4.22018e-06
4.15261e-06
4.05979e-06
3.95167e-06
3.83365e-06
3.70879e-06
3.57911e-06
3.4462e-06
3.31141e-06
3.17602e-06
3.0412e-06
2.90796e-06
2.77714e-06
2.64941e-06
2.52524e-06
2.40494e-06
2.28866e-06
2.17648e-06
2.06834e-06
1.96418e-06
1.86391e-06
1.76746e-06
1.67485e-06
1.58619e-06
1.50185e-06
1.42099e-06
3.23059e-06
3.1535e-06
2.90776e-06
2.89971e-06
3.1232e-06
3.42709e-06
3.70416e-06
3.90741e-06
4.02691e-06
4.07395e-06
4.0678e-06
4.02734e-06
3.96776e-06
3.89999e-06
3.83099e-06
3.7646e-06
3.70248e-06
3.64492e-06
3.59149e-06
3.54143e-06
3.49388e-06
3.44807e-06
3.40332e-06
3.35908e-06
3.31492e-06
3.27048e-06
3.22553e-06
3.17989e-06
3.13358e-06
3.08676e-06
3.03989e-06
2.99461e-06
2.94916e-06
4.27157e-06
5.52772e-06
6.31424e-06
6.58756e-06
6.51293e-06
6.32118e-06
6.19819e-06
6.22366e-06
6.40255e-06
6.69718e-06
7.05647e-06
7.43567e-06
7.80242e-06
8.13604e-06
8.42521e-06
8.66524e-06
8.85583e-06
8.9993e-06
9.09941e-06
9.1606e-06
9.18745e-06
9.1844e-06
9.15557e-06
9.10464e-06
9.03481e-06
8.94878e-06
8.84881e-06
8.73655e-06
8.6136e-06
8.4806e-06
8.33961e-06
8.19143e-06
8.03953e-06
5.60098e-06
3.56279e-06
2.78896e-06
4.6797e-06
7.40011e-06
9.96113e-06
1.21326e-05
1.38527e-05
1.51358e-05
1.6025e-05
1.65689e-05
1.68166e-05
1.68164e-05
1.66137e-05
1.62493e-05
1.57593e-05
1.51747e-05
1.45219e-05
1.38228e-05
1.30952e-05
1.23531e-05
1.16078e-05
1.08675e-05
1.01384e-05
9.42513e-06
8.7303e-06
8.05554e-06
7.40086e-06
6.76631e-06
6.14819e-06
5.5495e-06
4.95676e-06
4.39255e-06
1.14267e-05
1.65245e-05
1.83013e-05
1.98202e-05
2.03004e-05
1.95668e-05
1.78424e-05
1.54002e-05
1.25884e-05
9.92589e-06
8.25141e-06
8.48225e-06
1.04481e-05
1.32196e-05
1.61929e-05
1.91005e-05
2.18277e-05
2.43267e-05
2.65816e-05
2.85936e-05
3.03724e-05
3.19325e-05
3.32904e-05
3.44635e-05
3.54688e-05
3.63227e-05
3.70408e-05
3.7638e-05
3.81293e-05
3.85299e-05
3.88598e-05
3.91375e-05
3.94124e-05
2.48564e-05
2.86299e-05
3.89564e-05
5.33564e-05
6.75682e-05
8.14317e-05
9.42161e-05
0.00010532
0.000114701
0.000122437
0.000128638
0.000133459
0.00013707
0.000139635
0.000141306
0.000142221
0.000142501
0.000142253
0.000141568
0.000140524
0.000139189
0.000137618
0.000135858
0.000133949
0.000131923
0.000129807
0.000127624
0.000125389
0.00012312
0.000120819
0.000118504
0.000116182
0.000114069
0.000543292
0.000510554
0.000491592
0.000467929
0.000443947
0.000421666
0.000400245
0.000379747
0.000360439
0.000342336
0.000325421
0.000309678
0.000295061
0.000281505
0.000268938
0.000257286
0.000246472
0.000236423
0.000227068
0.000218342
0.000210183
0.000202537
0.000195353
0.000188586
0.000182195
0.000176144
0.000170397
0.000164928
0.000159691
0.000154691
0.000149759
0.000145464
0.000141497
6.47457e-05
5.54625e-05
5.06683e-05
5.01976e-05
5.19879e-05
5.53608e-05
5.91938e-05
6.27543e-05
6.47791e-05
6.3824e-05
5.89316e-05
5.09726e-05
4.26686e-05
3.64878e-05
3.28369e-05
3.09188e-05
2.98979e-05
2.92357e-05
2.87101e-05
2.84866e-05
2.92651e-05
3.27318e-05
4.17062e-05
5.50821e-05
6.16453e-05
5.38114e-05
3.41073e-05
1.14146e-05
1.14524e-05
2.14467e-05
2.43403e-05
2.31354e-05
2.10031e-05
1.93841e-05
1.82953e-05
1.736e-05
1.63412e-05
1.51793e-05
1.39906e-05
1.31662e-05
1.35065e-05
1.58742e-05
2.04558e-05
2.8292e-05
3.68732e-05
4.3005e-05
5.20963e-05
5.46507e-05
4.71675e-05
3.57756e-05
2.50715e-05
1.62453e-05
8.92638e-06
2.64516e-06
7.22866e-06
2.01249e-05
3.44081e-05
4.27929e-05
4.18784e-05
3.53672e-05
2.86758e-05
2.38488e-05
2.03587e-05
1.7539e-05
1.51382e-05
1.30662e-05
1.12556e-05
9.64732e-06
8.19992e-06
6.89039e-06
5.70847e-06
4.65065e-06
3.71607e-06
2.90419e-06
2.21347e-06
1.64065e-06
1.18019e-06
8.24375e-07
5.64569e-07
3.92099e-07
2.97966e-07
2.6699e-07
2.75608e-07
3.03043e-07
3.36341e-07
3.66527e-07
3.86442e-07
3.911e-07
3.78691e-07
3.50582e-07
3.11019e-07
2.64706e-07
2.17307e-07
1.70836e-07
1.32039e-07
1.02107e-07
1.02227e-07
1.23422e-07
1.64627e-07
2.33101e-07
9.42102e-05
8.81351e-05
8.24949e-05
7.88944e-05
7.65339e-05
7.49555e-05
7.37676e-05
7.33622e-05
7.41036e-05
7.54373e-05
7.56299e-05
7.27754e-05
6.64733e-05
5.85352e-05
5.12895e-05
4.59174e-05
4.25015e-05
4.07402e-05
4.05278e-05
4.2245e-05
4.67294e-05
5.49521e-05
6.55641e-05
6.98573e-05
6.03467e-05
3.89612e-05
1.3555e-05
8.77519e-06
2.05697e-05
2.42236e-05
2.32808e-05
2.12589e-05
1.97619e-05
1.88462e-05
1.81405e-05
1.742e-05
1.66137e-05
1.56933e-05
1.46759e-05
1.37547e-05
1.34949e-05
1.47732e-05
1.79477e-05
2.38962e-05
3.26136e-05
3.96161e-05
4.83541e-05
5.45266e-05
5.06556e-05
4.04201e-05
2.92486e-05
1.95985e-05
1.22129e-05
9.15344e-06
1.53791e-05
2.82314e-05
4.03663e-05
4.48962e-05
4.10333e-05
3.37902e-05
2.76264e-05
2.33364e-05
2.01265e-05
1.747e-05
1.5188e-05
1.31982e-05
1.14331e-05
9.84065e-06
8.3892e-06
7.06433e-06
5.86156e-06
4.78087e-06
3.82339e-06
2.98982e-06
2.27941e-06
1.68951e-06
1.21502e-06
8.48381e-07
5.8076e-07
4.03406e-07
3.07416e-07
2.77218e-07
2.87669e-07
3.16579e-07
3.50482e-07
3.8043e-07
3.9945e-07
4.0269e-07
3.8831e-07
3.57574e-07
3.14652e-07
2.64486e-07
2.13299e-07
1.64361e-07
1.26284e-07
1.03064e-07
1.13088e-07
1.44999e-07
1.87168e-07
2.61418e-07
9.04513e-05
8.95369e-05
8.83187e-05
8.78707e-05
8.80089e-05
8.84012e-05
8.84205e-05
8.76663e-05
8.62759e-05
8.50405e-05
8.45234e-05
8.41734e-05
8.26196e-05
7.90375e-05
7.40239e-05
6.89626e-05
6.50596e-05
6.29813e-05
6.30222e-05
6.52374e-05
6.9366e-05
7.43405e-05
7.51568e-05
6.4998e-05
4.35998e-05
1.71682e-05
6.32705e-06
1.9652e-05
2.41295e-05
2.34411e-05
2.13928e-05
1.9841e-05
1.89543e-05
1.83534e-05
1.77862e-05
1.71915e-05
1.65717e-05
1.5911e-05
1.51858e-05
1.44654e-05
1.40731e-05
1.47045e-05
1.68358e-05
2.09376e-05
2.81573e-05
3.57642e-05
4.38868e-05
5.24461e-05
5.31564e-05
4.58635e-05
3.56285e-05
2.62244e-05
1.97998e-05
1.8832e-05
2.55878e-05
3.69289e-05
4.52997e-05
4.55057e-05
3.92615e-05
3.19412e-05
2.65318e-05
2.27978e-05
1.98862e-05
1.74136e-05
1.52581e-05
1.33491e-05
1.16262e-05
1.00472e-05
8.59086e-06
7.25043e-06
6.02651e-06
4.92232e-06
3.94106e-06
3.08466e-06
2.35316e-06
1.74437e-06
1.25337e-06
8.72789e-07
5.93793e-07
4.07669e-07
3.06228e-07
2.74881e-07
2.87272e-07
3.18839e-07
3.54812e-07
3.85904e-07
4.05207e-07
4.08051e-07
3.92737e-07
3.60636e-07
3.1601e-07
2.6409e-07
2.11577e-07
1.62891e-07
1.28233e-07
1.13552e-07
1.30516e-07
1.69237e-07
2.09607e-07
2.86896e-07
7.01567e-05
7.09018e-05
7.17242e-05
7.32389e-05
7.55175e-05
7.85633e-05
8.21837e-05
8.59313e-05
8.89877e-05
9.06755e-05
9.10642e-05
9.0809e-05
9.0322e-05
8.93945e-05
8.77098e-05
8.54186e-05
8.31358e-05
8.15023e-05
8.07835e-05
8.0688e-05
8.05222e-05
7.78527e-05
6.69539e-05
4.56508e-05
1.87019e-05
5.29529e-06
1.95864e-05
2.43669e-05
2.36201e-05
2.14167e-05
1.97775e-05
1.8907e-05
1.83802e-05
1.78964e-05
1.73822e-05
1.68644e-05
1.63734e-05
1.59117e-05
1.54607e-05
1.50368e-05
1.47892e-05
1.51565e-05
1.66322e-05
1.95003e-05
2.47526e-05
3.17974e-05
3.92617e-05
4.85608e-05
5.36741e-05
5.08485e-05
4.3264e-05
3.52943e-05
3.01459e-05
3.0307e-05
3.65555e-05
4.47635e-05
4.81647e-05
4.42577e-05
3.66783e-05
3.00177e-05
2.55086e-05
2.22885e-05
1.96529e-05
1.73641e-05
1.53389e-05
1.35125e-05
1.18324e-05
1.02678e-05
8.80741e-06
7.45171e-06
6.20619e-06
5.07742e-06
4.0709e-06
3.19009e-06
2.43605e-06
1.80725e-06
1.29926e-06
9.04765e-07
6.14865e-07
4.20953e-07
3.15469e-07
2.84144e-07
2.98779e-07
3.32577e-07
3.69859e-07
4.0127e-07
4.20123e-07
4.21989e-07
4.05307e-07
3.71507e-07
3.24883e-07
2.7095e-07
2.16997e-07
1.68998e-07
1.38591e-07
1.32505e-07
1.54257e-07
1.98719e-07
2.37169e-07
3.19212e-07
3.26492e-05
3.44325e-05
3.64912e-05
3.92911e-05
4.29664e-05
4.75897e-05
5.32051e-05
5.98312e-05
6.7226e-05
7.46171e-05
8.09665e-05
8.5585e-05
8.84617e-05
8.99627e-05
9.0412e-05
9.00022e-05
8.89195e-05
8.73185e-05
8.51201e-05
8.18934e-05
7.63034e-05
6.42528e-05
4.30528e-05
1.6589e-05
6.81295e-06
2.06595e-05
2.49302e-05
2.37976e-05
2.13851e-05
1.96713e-05
1.88059e-05
1.83227e-05
1.78931e-05
1.74278e-05
1.6947e-05
1.64874e-05
1.60782e-05
1.57407e-05
1.54859e-05
1.5334e-05
1.53515e-05
1.57546e-05
1.69104e-05
1.90491e-05
2.27825e-05
2.84586e-05
3.5029e-05
4.35239e-05
5.13759e-05
5.33895e-05
4.99037e-05
4.45998e-05
4.10671e-05
4.16522e-05
4.60502e-05
4.978e-05
4.80688e-05
4.12784e-05
3.37069e-05
2.82085e-05
2.4562e-05
2.17837e-05
1.94099e-05
1.73101e-05
1.54193e-05
1.36774e-05
1.20423e-05
1.04947e-05
9.0326e-06
7.66288e-06
6.39591e-06
5.24187e-06
4.20893e-06
3.30237e-06
2.52438e-06
1.87413e-06
1.34748e-06
9.37328e-07
6.34707e-07
4.31128e-07
3.19893e-07
2.87724e-07
3.0478e-07
3.41554e-07
3.81059e-07
4.13645e-07
4.32726e-07
4.34108e-07
4.16473e-07
3.81493e-07
3.33708e-07
2.79121e-07
2.25723e-07
1.8099e-07
1.56769e-07
1.58944e-07
1.83849e-07
2.32598e-07
2.68075e-07
3.53498e-07
1.32824e-07
9.48589e-07
2.44176e-06
4.65257e-06
7.65164e-06
1.1548e-05
1.65007e-05
2.26658e-05
3.01469e-05
3.88646e-05
4.83266e-05
5.7613e-05
6.57297e-05
7.20083e-05
7.62211e-05
7.84091e-05
7.86644e-05
7.69592e-05
7.29933e-05
6.58626e-05
5.31107e-05
3.29961e-05
9.42268e-06
1.18531e-05
2.304e-05
2.57551e-05
2.39426e-05
2.13325e-05
1.95788e-05
1.86955e-05
1.82058e-05
1.77943e-05
1.737e-05
1.69368e-05
1.65114e-05
1.61104e-05
1.57582e-05
1.5489e-05
1.53419e-05
1.53633e-05
1.56102e-05
1.61772e-05
1.72718e-05
1.90481e-05
2.1852e-05
2.61549e-05
3.15414e-05
3.84339e-05
4.67104e-05
5.23225e-05
5.32449e-05
5.13334e-05
4.96385e-05
5.00543e-05
5.16077e-05
5.05792e-05
4.49793e-05
3.72265e-05
3.08183e-05
2.66248e-05
2.36956e-05
2.12858e-05
1.91615e-05
1.72531e-05
1.54993e-05
1.38452e-05
1.22592e-05
1.07325e-05
9.27109e-06
7.88817e-06
6.59922e-06
5.41857e-06
4.35743e-06
3.42321e-06
2.61944e-06
1.94607e-06
1.39943e-06
9.72584e-07
6.56612e-07
4.4338e-07
3.27444e-07
2.96323e-07
3.17376e-07
3.57915e-07
3.99893e-07
4.33649e-07
4.52893e-07
4.53785e-07
4.35309e-07
3.99407e-07
3.50858e-07
2.96153e-07
2.43907e-07
2.02858e-07
1.83886e-07
1.91871e-07
2.18127e-07
2.70063e-07
3.02451e-07
3.9211e-07
8.92666e-06
8.99514e-06
8.83971e-06
8.28086e-06
7.20534e-06
5.55542e-06
3.29856e-06
8.43112e-07
3.60078e-06
8.34337e-06
1.42446e-05
2.12015e-05
2.87284e-05
3.59715e-05
4.19802e-05
4.59524e-05
4.72891e-05
4.54941e-05
3.99761e-05
2.9806e-05
1.49775e-05
7.92202e-06
1.94599e-05
2.58518e-05
2.62487e-05
2.37779e-05
2.11782e-05
1.95041e-05
1.8607e-05
1.80625e-05
1.76213e-05
1.72099e-05
1.68178e-05
1.64402e-05
1.60747e-05
1.57294e-05
1.54265e-05
1.52029e-05
1.51088e-05
1.521e-05
1.55815e-05
1.62863e-05
1.74237e-05
1.90731e-05
2.13654e-05
2.46937e-05
2.89316e-05
3.41361e-05
4.10603e-05
4.79309e-05
5.20445e-05
5.32274e-05
5.32057e-05
5.30607e-05
5.16531e-05
4.70456e-05
3.98711e-05
3.30651e-05
2.83707e-05
2.52838e-05
2.28801e-05
2.07802e-05
1.89014e-05
1.71889e-05
1.55767e-05
1.4016e-05
1.24849e-05
1.09835e-05
9.5251e-06
8.12944e-06
6.81766e-06
5.60872e-06
4.51735e-06
3.55335e-06
2.72178e-06
2.02344e-06
1.45503e-06
1.00976e-06
6.78751e-07
4.54262e-07
3.32419e-07
3.02111e-07
3.27647e-07
3.72621e-07
4.17754e-07
4.53333e-07
4.73346e-07
4.74317e-07
4.55582e-07
4.19434e-07
3.70996e-07
3.17326e-07
2.67566e-07
2.31191e-07
2.17253e-07
2.29889e-07
2.56975e-07
3.11476e-07
3.40454e-07
4.33424e-07
5.77734e-06
5.99073e-06
6.10836e-06
6.03332e-06
5.7231e-06
5.20755e-06
4.62721e-06
4.33344e-06
4.80596e-06
6.08093e-06
7.68536e-06
9.19053e-06
1.05158e-05
1.18652e-05
1.32956e-05
1.43921e-05
1.45014e-05
1.32977e-05
1.18092e-05
1.3963e-05
2.00773e-05
2.52351e-05
2.68894e-05
2.55369e-05
2.30306e-05
2.08482e-05
1.94196e-05
1.8532e-05
1.79057e-05
1.74018e-05
1.69755e-05
1.66036e-05
1.62627e-05
1.59363e-05
1.56211e-05
1.53263e-05
1.50719e-05
1.489e-05
1.48282e-05
1.49551e-05
1.53569e-05
1.61054e-05
1.72602e-05
1.88639e-05
2.09077e-05
2.3605e-05
2.69857e-05
3.08572e-05
3.58228e-05
4.17826e-05
4.68996e-05
4.98333e-05
5.08123e-05
4.99689e-05
4.65827e-05
4.07389e-05
3.44199e-05
2.9616e-05
2.64597e-05
2.41092e-05
2.20732e-05
2.02568e-05
1.86278e-05
1.71167e-05
1.56528e-05
1.41929e-05
1.27233e-05
1.12513e-05
9.7978e-06
8.38935e-06
7.05341e-06
5.81412e-06
4.69011e-06
3.69388e-06
2.83216e-06
2.10671e-06
1.51461e-06
1.04925e-06
7.01847e-07
4.65272e-07
3.37877e-07
3.10212e-07
3.4211e-07
3.92661e-07
4.41533e-07
4.79217e-07
5.00167e-07
5.01399e-07
4.82681e-07
4.4669e-07
3.98869e-07
3.46734e-07
2.99646e-07
2.67305e-07
2.56788e-07
2.72193e-07
2.99103e-07
3.55328e-07
3.80694e-07
4.77296e-07
3.21844e-06
3.24132e-06
3.18042e-06
2.96813e-06
2.57147e-06
2.01143e-06
1.45034e-06
1.54257e-06
2.74946e-06
4.67534e-06
7.08392e-06
9.73832e-06
1.2318e-05
1.45306e-05
1.6258e-05
1.76184e-05
1.89052e-05
2.04429e-05
2.23995e-05
2.43381e-05
2.53344e-05
2.49164e-05
2.3444e-05
2.17155e-05
2.02787e-05
1.92078e-05
1.83772e-05
1.76979e-05
1.71425e-05
1.66949e-05
1.63269e-05
1.60058e-05
1.57074e-05
1.54208e-05
1.51468e-05
1.48958e-05
1.46856e-05
1.45436e-05
1.45098e-05
1.46436e-05
1.50258e-05
1.5736e-05
1.68319e-05
1.83506e-05
2.02531e-05
2.25583e-05
2.53332e-05
2.83436e-05
3.17068e-05
3.58055e-05
3.99914e-05
4.29579e-05
4.40058e-05
4.26975e-05
3.90456e-05
3.42685e-05
3.00914e-05
2.71411e-05
2.4928e-05
2.29885e-05
2.12438e-05
1.97121e-05
1.83402e-05
1.70375e-05
1.57303e-05
1.43799e-05
1.29781e-05
1.15394e-05
1.00921e-05
8.67038e-06
7.3086e-06
6.03656e-06
4.87717e-06
3.84592e-06
2.95141e-06
2.19641e-06
1.57842e-06
1.09093e-06
7.25258e-07
4.74955e-07
3.41196e-07
3.16889e-07
3.56323e-07
4.13352e-07
4.66663e-07
5.07056e-07
5.29504e-07
5.31549e-07
5.13421e-07
4.78216e-07
4.31718e-07
3.81843e-07
3.37963e-07
3.09658e-07
3.02127e-07
3.19799e-07
3.46481e-07
4.04255e-07
4.25839e-07
5.25503e-07
2.23661e-06
2.15789e-06
1.99316e-06
1.69455e-06
1.23538e-06
6.27246e-07
4.0341e-07
1.30584e-06
2.46005e-06
3.81827e-06
5.43193e-06
7.35788e-06
9.58319e-06
1.19829e-05
1.43616e-05
1.65397e-05
1.8406e-05
1.99065e-05
2.09434e-05
2.1378e-05
2.12271e-05
2.06927e-05
2.00409e-05
1.938e-05
1.87014e-05
1.80168e-05
1.73773e-05
1.68262e-05
1.63735e-05
1.60033e-05
1.56897e-05
1.54091e-05
1.51461e-05
1.48942e-05
1.46559e-05
1.44413e-05
1.42676e-05
1.41591e-05
1.41496e-05
1.42874e-05
1.46381e-05
1.52736e-05
1.6255e-05
1.7623e-05
1.93632e-05
2.1411e-05
2.37513e-05
2.62258e-05
2.8653e-05
3.1187e-05
3.37678e-05
3.57049e-05
3.62469e-05
3.50144e-05
3.24417e-05
2.96168e-05
2.72736e-05
2.53326e-05
2.35249e-05
2.18434e-05
2.03852e-05
1.91488e-05
1.80406e-05
1.69542e-05
1.58136e-05
1.45814e-05
1.32536e-05
1.18515e-05
1.04113e-05
8.9755e-06
7.58584e-06
6.27825e-06
5.08036e-06
4.0109e-06
3.08057e-06
2.29318e-06
1.64676e-06
1.13484e-06
7.48825e-07
4.8317e-07
3.42886e-07
3.24136e-07
3.73421e-07
4.38331e-07
4.96874e-07
5.40434e-07
5.64673e-07
5.67762e-07
5.50463e-07
5.16307e-07
4.71372e-07
4.23824e-07
3.82799e-07
3.5757e-07
3.51818e-07
3.70604e-07
3.9642e-07
4.55095e-07
4.72693e-07
5.75598e-07
1.70082e-06
1.59422e-06
1.41014e-06
1.1162e-06
7.05914e-07
3.61507e-07
8.39656e-07
1.70542e-06
2.73495e-06
3.89039e-06
5.15395e-06
6.52466e-06
8.01553e-06
9.62922e-06
1.13257e-05
1.30129e-05
1.45705e-05
1.58814e-05
1.68572e-05
1.75222e-05
1.79443e-05
1.81374e-05
1.80802e-05
1.77956e-05
1.73647e-05
1.68793e-05
1.64072e-05
1.59859e-05
1.56257e-05
1.53196e-05
1.50523e-05
1.48089e-05
1.4579e-05
1.43589e-05
1.41516e-05
1.39671e-05
1.38217e-05
1.3738e-05
1.37458e-05
1.38845e-05
1.42055e-05
1.4765e-05
1.56177e-05
1.68054e-05
1.83362e-05
2.01542e-05
2.21778e-05
2.42835e-05
2.62544e-05
2.79784e-05
2.94389e-05
3.04047e-05
3.05446e-05
2.97608e-05
2.84008e-05
2.6896e-05
2.53509e-05
2.37175e-05
2.20936e-05
2.06625e-05
1.95071e-05
1.85709e-05
1.77316e-05
1.68712e-05
1.59076e-05
1.48021e-05
1.35542e-05
1.21917e-05
1.07593e-05
9.3082e-06
7.88814e-06
6.54173e-06
5.3017e-06
4.19038e-06
3.22077e-06
2.39776e-06
1.71997e-06
1.18096e-06
7.72159e-07
4.89018e-07
3.41528e-07
3.30402e-07
3.91676e-07
4.65764e-07
5.30407e-07
5.77812e-07
6.0443e-07
6.09114e-07
5.93183e-07
5.60617e-07
5.17757e-07
4.7293e-07
4.34914e-07
4.12614e-07
4.08444e-07
4.28214e-07
4.53229e-07
5.12788e-07
5.26188e-07
6.31872e-07
1.26566e-06
1.14973e-06
9.71952e-07
7.23883e-07
4.78199e-07
6.00026e-07
1.1608e-06
1.92873e-06
2.83904e-06
3.86514e-06
4.98401e-06
6.17277e-06
7.41187e-06
8.68661e-06
9.98159e-06
1.127e-05
1.25085e-05
1.36485e-05
1.46591e-05
1.54999e-05
1.61042e-05
1.64413e-05
1.65251e-05
1.64053e-05
1.61478e-05
1.58219e-05
1.54845e-05
1.51694e-05
1.48885e-05
1.46399e-05
1.44155e-05
1.42067e-05
1.40072e-05
1.38153e-05
1.36351e-05
1.34758e-05
1.33525e-05
1.32858e-05
1.33022e-05
1.34353e-05
1.37265e-05
1.42187e-05
1.49539e-05
1.59696e-05
1.72801e-05