# y+ ()       
# Time        	patch         	min           	max           	average       
600           	lowerWall	4.059357e-01	6.715595e+01	3.826016e+01
600           	upperWall	3.125910e+01	5.508331e+01	4.621152e+01
