/*--------------------------------*- C++ -*----------------------------------*\
  =========                 |
  \\      /  F ield         | OpenFOAM: The Open Source CFD Toolbox
   \\    /   O peration     | Website:  https://openfoam.org
    \\  /    A nd           | Version:  10
     \\/     M anipulation  |
\*---------------------------------------------------------------------------*/
FoamFile
{
    format      ascii;
    class       volScalarField;
    location    "0.075";
    object      k;
}
// * * * * * * * * * * * * * * * * * * * * * * * * * * * * * * * * * * * * * //

dimensions      [0 2 -2 0 0 0 0];

internalField   nonuniform List<scalar> 
6820
(
0.198344
0.19481
0.191217
0.187601
0.184012
0.180476
0.177004
0.173601
0.170266
0.167001
0.163802
0.160668
0.157595
0.154578
0.151613
0.148693
0.14581
0.142957
0.140122
0.137292
0.134451
0.131578
0.128647
0.125627
0.122475
0.119137
0.115545
0.111606
0.107211
0.102193
0.0963754
0.089597
0.0806976
0.200925
0.200905
0.20048
0.200025
0.199566
0.199095
0.198605
0.198094
0.197562
0.197009
0.196438
0.195851
0.195252
0.194644
0.194029
0.193411
0.192793
0.192178
0.19157
0.190971
0.190384
0.189812
0.189255
0.188713
0.188184
0.187661
0.187129
0.186562
0.185915
0.185107
0.184033
0.182433
0.180275
0.236735
0.0166079
0.00858671
0.0103306
0.0071342
0.00778333
0.00951229
0.0114612
0.0135727
0.0157693
0.0180176
0.0203015
0.0226102
0.0249377
0.0272818
0.0296432
0.0320258
0.034437
0.0368876
0.0393928
0.0419725
0.0446527
0.0474666
0.0504564
0.053675
0.0571883
0.0610768
0.0654382
0.0703836
0.0760439
0.0825383
0.090002
0.0984865
0.210789
0.147894
0.104798
0.0794248
0.0637733
0.0531892
0.0453941
0.0392839
0.0342854
0.0300763
0.0264617
0.0233164
0.0205562
0.0181226
0.0159744
0.014082
0.0124241
0.0109852
0.00975331
0.00871839
0.00787149
0.00720421
0.00670933
0.00638233
0.00622401
0.00624376
0.00646386
0.00692605
0.0076984
0.00889126
0.0106638
0.0132688
0.016907
0.223442
0.082724
0.0210683
0.0041261
0.000682078
0.000430719
0.000742304
0.00105549
0.00131002
0.001524
0.00171123
0.00187638
0.00201983
0.0021407
0.00223818
0.00231189
0.00236188
0.00238855
0.00239243
0.00237408
0.00233384
0.00227168
0.00218702
0.00207854
0.00194414
0.00178069
0.00158414
0.00135347
0.00107489
0.000806432
0.0003574
2.44881e-05
0.000377864
0.217167
0.114452
0.0537648
0.030152
0.0210639
0.0167079
0.013636
0.0108098
0.00804706
0.00551045
0.00344018
0.00196281
0.00103673
0.000518928
0.000255341
0.0001298
7.15017e-05
4.58741e-05
3.63467e-05
3.49208e-05
3.78103e-05
4.30919e-05
4.94731e-05
5.57517e-05
2.77862e-05
0.000960117
0.000719458
0.000701632
0.000605513
0.000493828
0.000351603
0.000149721
0.00043396
0.213536
0.132837
0.0667912
0.0352243
0.0220296
0.016351
0.0135801
0.0120317
0.0110571
0.0103788
0.00986686
0.00945605
0.00910959
0.00880189
0.0085086
0.00820801
0.00794503
0.00766166
0.00731833
0.00693231
0.00654589
0.00619013
0.00587474
0.00559576
0.00534485
0.00511602
0.00490199
0.00469428
0.00448514
0.00427224
0.00405381
0.00382491
0.00357428
0.204288
0.179073
0.12887
0.0756767
0.0426381
0.0262358
0.018434
0.014545
0.0124373
0.0111885
0.0103854
0.00982589
0.00939657
0.00901942
0.0086312
0.00825719
0.00811418
0.0081191
0.00815826
0.00819042
0.00820944
0.00821743
0.00821573
0.00820301
0.00817708
0.00813511
0.0080749
0.0079951
0.0078948
0.00777213
0.00762712
0.00745862
0.00726643
0.202936
0.185709
0.160456
0.124291
0.0871231
0.0593409
0.0416048
0.0309278
0.0244914
0.0204571
0.017777
0.0158728
0.0144177
0.013229
0.0122492
0.0115611
0.0113519
0.0114019
0.0115391
0.011698
0.0118571
0.0120077
0.0121422
0.012254
0.0123368
0.0123859
0.012398
0.012371
0.0123041
0.0121974
0.0120527
0.0118719
0.01166
0.202271
0.189056
0.173398
0.155099
0.130323
0.102511
0.0775333
0.0584621
0.0451979
0.0362891
0.0302836
0.0261392
0.0232056
0.021129
0.019776
0.0191391
0.0190691
0.0192956
0.0196397
0.0200114
0.0203671
0.0206888
0.0209649
0.0211857
0.021343
0.0214304
0.0214433
0.0213798
0.0212401
0.0210266
0.0207444
0.0204
0.0200034
0.201809
0.191387
0.179025
0.167018
0.153776
0.138463
0.121341
0.103756
0.0874805
0.0736459
0.0625529
0.0540131
0.047687
0.0432799
0.0405652
0.0392407
0.0388693
0.039035
0.0394685
0.0399814
0.040493
0.0409681
0.0413807
0.0417081
0.041932
0.0420384
0.0420184
0.0418676
0.0415866
0.041179
0.0406546
0.0400247
0.0393061
0.201486
0.193013
0.18296
0.173823
0.165172
0.156449
0.147062
0.136571
0.125203
0.1137
0.102912
0.0935302
0.0859897
0.0804677
0.076899
0.0749118
0.0740005
0.0735854
0.0733958
0.0732863
0.0732134
0.0731505
0.0730738
0.0729612
0.0727937
0.0725552
0.072233
0.071817
0.0713015
0.0706826
0.0699638
0.0691494
0.0682471
0.201249
0.194197
0.185708
0.178101
0.171431
0.165712
0.160728
0.155914
0.150753
0.145023
0.138836
0.132568
0.126718
0.121725
0.117815
0.114652
0.111942
0.10948
0.107262
0.105322
0.103672
0.102292
0.101141
0.100172
0.0993405
0.0986078
0.0979411
0.0973131
0.0967032
0.0960934
0.0954744
0.0948379
0.0941734
0.201083
0.19503
0.18765
0.181132
0.175654
0.171215
0.167599
0.16436
0.161106
0.157638
0.153931
0.150046
0.146096
0.142207
0.138519
0.134989
0.131615
0.128454
0.125565
0.12299
0.120741
0.118803
0.117145
0.115731
0.114523
0.113486
0.112588
0.111803
0.11111
0.110489
0.109929
0.109419
0.10894
0.200967
0.19561
0.189011
0.183188
0.178297
0.174213
0.17077
0.167769
0.165002
0.162295
0.159519
0.156578
0.153432
0.150097
0.146644
0.143175
0.139806
0.136638
0.13374
0.131152
0.128879
0.126908
0.125213
0.12376
0.122518
0.121454
0.120539
0.119748
0.119063
0.118465
0.117944
0.117491
0.117084
0.200888
0.196006
0.189918
0.184401
0.179632
0.175517
0.17197
0.168883
0.166113
0.163517
0.160974
0.158387
0.155697
0.152882
0.149963
0.146998
0.144063
0.141235
0.138578
0.136137
0.133932
0.131969
0.130239
0.128725
0.127408
0.126265
0.125275
0.124416
0.123672
0.123027
0.122473
0.121997
0.121578
0.20084
0.196254
0.190418
0.184938
0.180075
0.175808
0.172094
0.168835
0.165902
0.163167
0.160519
0.157873
0.155177
0.152415
0.149608
0.146804
0.144065
0.141449
0.139004
0.136761
0.134738
0.132936
0.131348
0.129959
0.128752
0.127707
0.126803
0.126024
0.125354
0.124779
0.124289
0.123873
0.123513
0.200819
0.196376
0.190577
0.184986
0.179927
0.175416
0.171424
0.167863
0.164625
0.161609
0.158734
0.155943
0.153201
0.150497
0.147835
0.145239
0.142737
0.140361
0.138139
0.136089
0.134224
0.132547
0.131055
0.129739
0.128587
0.127583
0.126714
0.125963
0.125319
0.124764
0.124278
0.123863
0.123522
0.200823
0.196383
0.190453
0.184619
0.179242
0.174366
0.169978
0.166009
0.162365
0.15897
0.155763
0.152706
0.149777
0.146969
0.144287
0.141741
0.139348
0.137122
0.135074
0.133211
0.131535
0.130043
0.128728
0.127579
0.126583
0.125725
0.12499
0.124366
0.12383
0.123341
0.122883
0.12249
0.12221
0.200852
0.196275
0.190054
0.183832
0.178011
0.172662
0.167789
0.16334
0.159241
0.155432
0.151872
0.148539
0.14542
0.142514
0.139818
0.137332
0.135052
0.132974
0.131091
0.129398
0.127886
0.12655
0.125378
0.124361
0.123485
0.122738
0.122105
0.121561
0.121063
0.120587
0.120138
0.119755
0.119513
0.200908
0.196045
0.189356
0.18259
0.176195
0.170271
0.164838
0.159852
0.155253
0.150995
0.147049
0.143406
0.140065
0.137023
0.134275
0.131809
0.129606
0.127648
0.125913
0.124386
0.123049
0.12189
0.120895
0.12005
0.119342
0.118752
0.118241
0.117775
0.117332
0.116912
0.116527
0.11621
0.116032
0.200996
0.195677
0.188312
0.180828
0.173729
0.167138
0.161079
0.155515
0.150389
0.145667
0.141334
0.13739
0.133838
0.130673
0.12788
0.125433
0.123299
0.121446
0.119843
0.118462
0.11728
0.116277
0.115438
0.114748
0.114182
0.113694
0.11325
0.112834
0.112445
0.112089
0.111777
0.111538
0.111428
0.201122
0.195137
0.186848
0.178449
0.170512
0.163169
0.156438
0.150271
0.144617
0.139447
0.134755
0.130539
0.1268
0.123525
0.120689
0.118256
0.116185
0.114431
0.112955
0.111721
0.1107
0.109868
0.109202
0.108676
0.108236
0.107849
0.1075
0.107186
0.106909
0.106674
0.106491
0.106384
0.106396
0.2013
0.194375
0.184851
0.175305
0.166381
0.158198
0.150748
0.143964
0.137788
0.132189
0.127152
0.122673
0.118744
0.115348
0.112452
0.110015
0.107986
0.106312
0.104945
0.103843
0.102969
0.102292
0.101762
0.101337
0.100982
0.100684
0.100434
0.100231
0.100075
0.0999698
0.0999242
0.099958
0.100099
0.20155
0.19331
0.182147
0.171181
0.161126
0.152055
0.143901
0.136556
0.129931
0.123971
0.11865
0.113956
0.109876
0.106388
0.103457
0.101034
0.0990612
0.0974793
0.0962332
0.0952716
0.0945473
0.0940099
0.093607
0.0933041
0.0930827
0.0929304
0.092839
0.0928041
0.0928252
0.0929044
0.0930467
0.0932678
0.0935852
0.201912
0.19178
0.178414
0.165695
0.154368
0.14438
0.135543
0.127665
0.120608
0.114295
0.108688
0.103769
0.099524
0.0959287
0.0929444
0.0905173
0.088584
0.0870785
0.0859379
0.0850882
0.084462
0.0840106
0.0836985
0.0835014
0.0834018
0.0833859
0.0834429
0.0835664
0.0837553
0.0840098
0.0843323
0.0847334
0.0852209
0.202446
0.189509
0.173242
0.158504
0.145906
0.13511
0.125725
0.117445
0.110078
0.103518
0.097718
0.0926545
0.0883122
0.0846667
0.081677
0.0792853
0.0774188
0.076005
0.074971
0.0742352
0.0737327
0.0734176
0.0732576
0.0732279
0.0733086
0.0734859
0.0737474
0.074082
0.0744843
0.0749538
0.075492
0.0761059
0.0767965
0.203243
0.186102
0.166001
0.148912
0.134988
0.123415
0.113526
0.104884
0.0972405
0.090469
0.0845116
0.0793423
0.0749424
0.0712832
0.0683187
0.0659778
0.0641706
0.0628138
0.0618331
0.0611583
0.0607298
0.0605005
0.0604387
0.0605195
0.0607206
0.0610282
0.0614331
0.0619232
0.0624876
0.0631203
0.0638195
0.0645884
0.0654226
0.204439
0.180965
0.156093
0.136683
0.121754
0.109731
0.0996137
0.0908505
0.0831557
0.0763896
0.0704771
0.0653819
0.0610777
0.0575297
0.0546847
0.0524635
0.0507778
0.0495437
0.0486855
0.0481355
0.0478325
0.0477281
0.047794
0.048011
0.0483555
0.0488064
0.0493519
0.049984
0.0506942
0.0514747
0.0523208
0.053231
0.0541992
0.206276
0.172932
0.142058
0.120261
0.104521
0.0922926
0.0822352
0.0736811
0.0662908
0.0598796
0.0543419
0.0496224
0.0456812
0.0424691
0.0399193
0.0379475
0.0364637
0.0353834
0.0346358
0.0341619
0.0339066
0.033825
0.0338911
0.0340944
0.0344233
0.0348597
0.0353865
0.0359914
0.036665
0.0374
0.0381915
0.039038
0.0399348
0.209136
0.160024
0.122946
0.0998673
0.0842477
0.0724929
0.0631046
0.0554372
0.0491082
0.0438292
0.0394109
0.0357377
0.0327314
0.0303211
0.0284293
0.0269719
0.025866
0.0250399
0.0244391
0.0240218
0.0237524
0.0236012
0.0235481
0.0235869
0.0237194
0.0239448
0.0242568
0.0246474
0.0251086
0.0256334
0.0262171
0.0268564
0.0275436
0.213118
0.140987
0.0981489
0.0753564
0.0613874
0.0514725
0.0439846
0.03834
0.0340941
0.0308004
0.0281346
0.0259349
0.0241336
0.0226803
0.0215122
0.02056
0.0197621
0.019074
0.0184708
0.0179414
0.017485
0.0171024
0.0167892
0.016539
0.0163513
0.0162292
0.0161748
0.0161882
0.0162686
0.0164153
0.0166277
0.0169031
0.0172361
0.218576
0.112578
0.0661301
0.0462827
0.0363397
0.0306165
0.0269157
0.0242023
0.0220343
0.0202941
0.0189534
0.0179444
0.0171549
0.016477
0.0158413
0.0152173
0.0145976
0.0139842
0.0133808
0.0127935
0.0122359
0.0117225
0.0112599
0.0108479
0.0104862
0.0101776
0.00992634
0.00973614
0.00960898
0.00954398
0.00953649
0.00958094
0.00967098
0.224279
0.0805137
0.0339058
0.0195755
0.0144189
0.0122571
0.0112355
0.010583
0.0100198
0.00953492
0.0091691
0.00890743
0.00869196
0.00847129
0.00822436
0.00795386
0.00766968
0.00737937
0.00708704
0.00679485
0.00650494
0.00622042
0.00594474
0.00568141
0.00543429
0.00520793
0.00500714
0.00483593
0.00469641
0.00458779
0.00450674
0.0044497
0.00441219
0.226443
0.0682081
0.0226731
0.01056
0.00701459
0.00576351
0.00523449
0.00498091
0.00485959
0.00481323
0.00480117
0.00478934
0.00475718
0.00469863
0.00461627
0.00451507
0.00439879
0.0042696
0.00412957
0.00398081
0.00382475
0.00366281
0.00349722
0.00333112
0.00316811
0.00301183
0.00286523
0.00273019
0.00260731
0.00249581
0.00239368
0.00229896
0.0022096
0.223912
0.0789057
0.0326186
0.0188548
0.0140683
0.0117768
0.0102321
0.00895372
0.00780811
0.00675509
0.00578286
0.00489227
0.00408972
0.00338096
0.00276777
0.00224738
0.00181285
0.00145455
0.00116275
0.000928306
0.000742344
0.000596667
0.000484022
0.000398152
0.000333776
0.000286514
0.000252813
0.000229796
0.000215151
0.000207033
0.00020403
0.000204986
0.000209367
0.213101
0.135224
0.0894996
0.0655329
0.0523107
0.0442842
0.0389326
0.035094
0.0321904
0.029902
0.0280395
0.0264833
0.0251528
0.0239947
0.0229724
0.0220583
0.0212315
0.0204762
0.0197803
0.0191344
0.018531
0.0179638
0.017428
0.0169196
0.0164353
0.0159723
0.0155285
0.015102
0.014691
0.0142944
0.0139102
0.0135405
0.0131692
0.240246
0.000481967
0.0366517
0.000173805
5.46499e-06
0.00101857
0.000827932
0.000399962
0.000161505
0.000182559
0.000583566
0.00107369
0.00118974
0.000895549
0.000651972
0.000655848
0.000744139
0.000813321
0.000878482
0.000957082
0.00104412
0.00113424
0.0012276
0.00132507
0.00142638
0.00153101
0.0016387
0.00174928
0.0018625
0.00197806
0.0020956
0.00221495
0.00233506
0.200085
0.199948
0.199764
0.199588
0.199425
0.199273
0.199128
0.198989
0.198854
0.198722
0.198593
0.198467
0.198342
0.198218
0.198095
0.197973
0.197853
0.197733
0.197614
0.197495
0.197377
0.19726
0.197143
0.197026
0.196909
0.196793
0.196677
0.19656
0.196443
0.196326
0.196207
0.196092
0.195961
0.199875
0.199564
0.199227
0.198876
0.198519
0.19816
0.197804
0.197451
0.197103
0.19676
0.196423
0.196092
0.195767
0.195448
0.195136
0.19483
0.194531
0.194238
0.193952
0.193672
0.193398
0.193131
0.19287
0.192615
0.192367
0.192125
0.191889
0.19166
0.191436
0.191219
0.191008
0.190803
0.190604
0.0734649
0.0665233
0.0797933
0.101255
0.114934
0.119636
0.119969
0.119611
0.118064
0.1183
0.125287
0.125309
0.103297
0.0662915
0.0320563
0.0110701
0.00283389
0.00177961
0.00169877
0.00136744
0.0125128
0.0457059
0.0812035
0.107695
0.127496
0.145768
0.164755
0.184228
0.203544
0.222124
0.239332
0.254003
0.264333
0.268928
0.268664
0.262526
0.24454
0.212845
0.178894
0.147373
0.109083
0.0654636
0.0331603
0.0267169
0.0453717
0.0762976
0.105603
0.125597
0.135222
0.136922
0.133682
0.127662
0.120053
0.111401
0.101938
0.0917911
0.081105
0.0701358
0.0593276
0.0493464
0.0410324
0.0352588
0.0327273
0.03377
0.0382362
0.0455156
0.0546902
0.0647539
0.0748149
0.0842188
0.0925698
0.0996812
0.105516
0.110144
0.113524
0.114757
0.111261
0.10018
0.0832149
0.0690757
0.0666535
0.0717485
0.0756012
0.0707791
0.059615
0.0604254
0.0839885
0.114067
0.132957
0.136018
0.129561
0.121274
0.115427
0.113032
0.113449
0.115588
0.117895
0.11847
0.115781
0.107928
0.175139
0.163962
0.147266
0.131169
0.121804
0.118189
0.117033
0.115771
0.11771
0.125635
0.12807
0.109481
0.0739147
0.0382055
0.0142281
0.0038518
0.00194435
0.00301028
0.00410821
0.00147397
0.00451551
0.0290303
0.0653114
0.0968721
0.120035
0.138926
0.157361
0.175934
0.194234
0.211673
0.227576
0.240948
0.250591
0.255251
0.255091
0.247744
0.227425
0.196173
0.165632
0.134716
0.0952337
0.0534309
0.0270367
0.0274478
0.0505446
0.0825375
0.11059
0.12859
0.136556
0.137292
0.133681
0.127625
0.120084
0.111458
0.101913
0.0915658
0.0805883
0.0692905
0.0581863
0.0480148
0.0396773
0.0340798
0.0319182
0.033478
0.0385325
0.0463848
0.0560412
0.066446
0.0766908
0.086133
0.0944074
0.101362
0.106986
0.111375
0.114547
0.115682
0.112137
0.100769
0.0832617
0.0687962
0.0662883
0.0718628
0.0769104
0.0733475
0.0612065
0.0575454
0.077791
0.10846
0.12989
0.134932
0.129275
0.121203
0.115613
0.113741
0.114865
0.117646
0.12028
0.120733
0.117537
0.108649
0.109728
0.12397
0.136122
0.142223
0.142494
0.13994
0.137137
0.136386
0.135487
0.128168
0.10566
0.0712834
0.0375116
0.0141766
0.00368527
0.00195216
0.0033957
0.00473878
0.0058121
0.00426442
0.00196092
0.0148865
0.0463533
0.0812319
0.109144
0.130303
0.148873
0.166924
0.184429
0.200924
0.215774
0.228111
0.237002
0.241378
0.240451
0.230732
0.208246
0.178939
0.151455
0.119863
0.0795549
0.0412933
0.0222483
0.029839
0.0568827
0.0892433
0.115534
0.131316
0.137601
0.137434
0.133516
0.12746
0.119997
0.111395
0.101765
0.0912196
0.0799596
0.068348
0.0569691
0.0466367
0.0383135
0.032936
0.0311877
0.0332995
0.0389607
0.0473836
0.0574995
0.0682092
0.0785961
0.0880387
0.0962097
0.102997
0.108422
0.112604
0.115616
0.116754
0.11346
0.102456
0.0851629
0.0706843
0.0678085
0.0733772
0.0792712
0.0771422
0.0650428
0.0574269
0.0733776
0.103194
0.126345
0.133265
0.12855
0.120789
0.115491
0.114191
0.116121
0.119665
0.122774
0.123259
0.119799
0.110111
0.0232144
0.0344478
0.0507814
0.0698372
0.087147
0.0994748
0.105951
0.106388
0.0972423
0.0771783
0.0511319
0.0265292
0.00949201
0.00207136
0.00162183
0.00368775
0.00546701
0.00615581
0.00648485
0.00620082
0.00306058
0.00623948
0.0277032
0.0611982
0.0933065
0.118443
0.13842
0.156471
0.173509
0.189303
0.203306
0.214751
0.222646
0.226145
0.223433
0.210754
0.187443
0.161597
0.13571
0.10249
0.0626643
0.0300913
0.0195843
0.0342025
0.0643488
0.0962374
0.120266
0.133674
0.138322
0.137354
0.133206
0.127183
0.1198
0.111212
0.101491
0.0907495
0.0792182
0.0673116
0.0556844
0.0452254
0.0369584
0.0318468
0.0305547
0.0332495
0.039529
0.0485116
0.0590563
0.0700276
0.0805106
0.0899138
0.0979541
0.104564
0.109796
0.113789
0.116658
0.117815
0.114838
0.104367
0.087461
0.0729763
0.0694942
0.074776
0.0813827
0.080985
0.0700329
0.0592821
0.0701516
0.0979203
0.122147
0.130875
0.127199
0.119778
0.114762
0.114062
0.116891
0.121328
0.125072
0.125759
0.122247
0.112003
0.00104707
0.00185578
0.00442744
0.0104933
0.0195108
0.0286466
0.0343536
0.0336338
0.0271056
0.0177477
0.00858932
0.00247738
0.000586598
0.00182444
0.00407282
0.00589328
0.00683662
0.00693814
0.00659521
0.00662869
0.00492919
0.00328444
0.0134043
0.0395909
0.0722733
0.101553
0.12467
0.143567
0.160474
0.175784
0.189073
0.199531
0.206211
0.208151
0.202925
0.187955
0.166142
0.143658
0.117397
0.0826882
0.0456754
0.0209723
0.0196213
0.0405807
0.0727311
0.103284
0.124632
0.135603
0.138717
0.137068
0.132764
0.126797
0.119486
0.110898
0.101077
0.0901423
0.0783517
0.066172
0.0543275
0.0437818
0.0356181
0.030822
0.0300299
0.0333358
0.0402393
0.0497632
0.0606983
0.0718816
0.0824101
0.0917315
0.0996122
0.10603
0.111068
0.114881
0.117614
0.118792
0.116156
0.106279
0.0897655
0.0751394
0.0708529
0.0756533
0.0828071
0.0842123
0.0751973
0.0626346
0.0681656
0.0928679
0.117513
0.127911
0.12534
0.118294
0.113554
0.113472
0.117269
0.122686
0.127149
0.128118
0.124654
0.11406
0.000389989
0.000868033
0.000840212
0.000405121
0.00068538
0.00119868
0.00172995
0.00106907
0.000444103
0.000534724
0.000895447
0.00184464
0.003436
0.00510436
0.00650354
0.00753627
0.00805766
0.00794363
0.00721043
0.00671098
0.00607541
0.00374057
0.00564528
0.0209414
0.048444
0.0790055
0.105714
0.127072
0.14451
0.159362
0.171756
0.180937
0.186217
0.18641
0.179026
0.163775
0.145054
0.123837
0.0958625
0.0614666
0.0302295
0.0150737
0.0227121
0.0488284
0.0817251
0.110123
0.128486
0.137057
0.138795
0.136601
0.132206
0.126303
0.119047
0.110442
0.100513
0.0893887
0.0773543
0.0649265
0.0528992
0.0423113
0.0343029
0.0298748
0.0296257
0.0335668
0.0410926
0.0511304
0.0624093
0.0737499
0.0842722
0.0934713
0.101167
0.107384
0.112233
0.11588
0.11849
0.119686
0.117388
0.108143
0.0920568
0.0772236
0.0720997
0.0762902
0.0836683
0.0865519
0.0797733
0.0670162
0.0674988
0.0882294
0.112556
0.124398
0.122963
0.116329
0.111871
0.112436
0.117273
0.123753
0.128996
0.13028
0.126899
0.116139
0.00327479
0.00290689
0.00252967
0.00208815
0.00148145
0.000859825
0.000595177
0.00078131
0.00127916
0.00209129
0.00322416
0.00456166
0.005981
0.00742842
0.00882468
0.00996972
0.0105468
0.0103188
0.0092335
0.00784968
0.00694795
0.00524834
0.00354843
0.00893982
0.026642
0.0531206
0.0809002
0.105055
0.124421
0.139659
0.151419
0.159593
0.163584
0.161843
0.15333
0.139719
0.122761
0.10056
0.0717199
0.0409245
0.0181837
0.0132263
0.0288606
0.0585935
0.0909515
0.116496
0.131713
0.138017
0.138579
0.135978
0.131542
0.125695
0.118469
0.109826
0.0997854
0.0884798
0.0762204
0.0635732
0.0514025
0.0408219
0.0330246
0.0290186
0.0293542
0.0339484
0.0420853
0.0525984
0.064165
0.0756024
0.0860662
0.0951053
0.102595
0.108603
0.113267
0.116762
0.119263
0.12048
0.118516
0.109946
0.094368
0.0793075
0.0733744
0.076849
0.0840811
0.0878559
0.0830521
0.0714138
0.067869
0.0840702
0.107378
0.120361
0.120014
0.113794
0.109622
0.110877
0.116852
0.124497
0.13059
0.132216
0.128919
0.118165
0.00701097
0.00668231
0.00630698
0.00590556
0.00552055
0.00521362
0.00512147
0.00525905
0.0056292
0.00622599
0.00703973
0.00810256
0.00948818
0.0112177
0.0131103
0.014731
0.0155361
0.0151636
0.0135827
0.0112
0.00902778
0.00716345
0.00466782
0.00416102
0.0115695
0.0291348
0.0529747
0.0773364
0.0984703
0.115111
0.127221
0.134842
0.137547
0.134777
0.126738
0.114285
0.0969714
0.0739526
0.0474993
0.0238092
0.0110555
0.0157069
0.0377114
0.0693757
0.100006
0.122172
0.134233
0.138497
0.138108
0.135222
0.130774
0.124962
0.117736
0.109036
0.0988801
0.0874048
0.0749434
0.0621102
0.0498405
0.0393222
0.0317965
0.0282691
0.0292285
0.0344861
0.0432102
0.054145
0.0659283
0.0773915
0.0877414
0.0965873
0.103857
0.109658
0.114149
0.117506
0.119914
0.121158
0.11952
0.111627
0.0965957
0.0812904
0.0745243
0.0772072
0.0840942
0.0882747
0.0847591
0.0744273
0.0683368
0.080099
0.101947
0.11578
0.116408
0.110556
0.106661
0.108664
0.115901
0.124848
0.131893
0.133902
0.130667
0.120058
0.0113786
0.0110172
0.0106246
0.0102295
0.00987668
0.00962433
0.00951542
0.00957206
0.00986718
0.0105061
0.0116271
0.0133635
0.0157441
0.0185754
0.0213967
0.0235723
0.0244931
0.0237993
0.0215041
0.0180107
0.0141402
0.010781
0.00762637
0.00464174
0.00489053
0.0124315
0.0278388
0.047739
0.0677762
0.0849046
0.0976712
0.10552
0.107943
0.105224
0.0976466
0.085223
0.0678595
0.0471824
0.027033
0.0124988
0.00949186
0.0221715
0.0486395
0.0806063
0.108501
0.126965
0.136015
0.138533
0.137422
0.134352
0.129896
0.124086
0.116827
0.108056
0.0977841
0.0861528
0.0735148
0.0605334
0.0482155
0.037821
0.0306327
0.0276421
0.0292621
0.0351872
0.0444648
0.0557538
0.0676659
0.0790643
0.0892243
0.0978313
0.104873
0.110485
0.114827
0.118068
0.120399
0.121675
0.120347
0.113105
0.0986188
0.0830594
0.0754073
0.0772581
0.0837989
0.0882535
0.0854666
0.0757244
0.0679735
0.0758847
0.0961716
0.110625
0.112069
0.106493
0.102845
0.105655
0.114297
0.124718
0.132852
0.135316
0.132122
0.121735
0.019491
0.0188524
0.0181834
0.0175359
0.0169801
0.0165922
0.0164648
0.0167432
0.0175829
0.0191253
0.0214678
0.0245923
0.0282889
0.0321263
0.0355045
0.0377834
0.0384374
0.0371797
0.0340262
0.0293697
0.0238291
0.0182986
0.013363
0.00880664
0.00525499
0.00526504
0.0112438
0.0229878
0.0378328
0.0524831
0.0644109
0.0720624
0.0746237
0.0724166
0.0655334
0.0541959
0.0398541
0.0253786
0.0136598
0.00799946
0.0130905
0.0318238
0.0609059
0.0917223
0.116095
0.130749
0.137073
0.138188
0.136565
0.133375
0.128891
0.123044
0.115724
0.106868
0.0964846
0.0847127
0.0719261
0.0588388
0.0465298
0.0363279
0.0295482
0.0271538
0.0294678
0.0360577
0.0458502
0.0574269
0.0693845
0.0806253
0.0904988
0.0987815
0.105543
0.110961
0.115189
0.118359
0.120646
0.121959
0.120904
0.114256
0.100306
0.0845517
0.0760685
0.0771234
0.0833623
0.0881368
0.0859692
0.0763328
0.0669292
0.0714183
0.0900167
0.104791
0.106857
0.101455
0.0980148
0.101689
0.111897
0.123994
0.133391
0.136416
0.133264
0.123089
0.0383931
0.0372662
0.0360961
0.0349769
0.0340329
0.033401
0.0332882
0.0338659
0.035272
0.0375699
0.0407068
0.0444723
0.0484886
0.0522503
0.0552058
0.0568524
0.0568114
0.0548722
0.0510013
0.0454509
0.0386706
0.0312718
0.0240225
0.0173363
0.0113089
0.00678588
0.00551716
0.00872472
0.015892
0.024998
0.0336184
0.0397038
0.0421026
0.0406359
0.035415
0.0275546
0.0193525
0.0126819
0.00852285
0.00960535
0.020716
0.0437294
0.0737948
0.102203
0.122506
0.133465
0.13747
0.137534
0.135569
0.132282
0.127734
0.12181
0.114405
0.105458
0.0949677
0.0830721
0.070168
0.0570227
0.0447877
0.0348549
0.0285598
0.0268211
0.0298566
0.0370999
0.0473599
0.0591549
0.0710836
0.082102
0.0916347
0.0995299
0.105918
0.11104
0.1151
0.118217
0.120507
0.121876
0.121052
0.114938
0.101559
0.0857813
0.0766523
0.0770225
0.0829817
0.0880552
0.0865133
0.0770103
0.066085
0.067238
0.0836077
0.0982114
0.100661
0.095331
0.0920568
0.0966454
0.108579
0.122569
0.133434
0.137153
0.134095
0.124045
0.0671447
0.065797
0.0643937
0.0630386
0.0618693
0.0610757
0.0608344
0.0613017
0.0625628
0.0645932
0.0672353
0.0702065
0.0731364
0.0756218
0.0772812
0.0777934
0.0769108
0.0744681
0.0703616
0.06461
0.057445
0.0492237
0.0404568
0.0317344
0.023454
0.0159789
0.0101049
0.0068852
0.00681793
0.00932055
0.0129582
0.016095
0.0175677
0.0169353
0.0146234
0.0121061
0.0106066
0.00981274
0.0100825
0.0154712
0.0311379
0.0570909
0.0866541
0.11157
0.127531
0.135137
0.137312
0.136645
0.134446
0.131048
0.126392
0.120357
0.112851
0.103808
0.0932177
0.0812169
0.0682304
0.0550826
0.0429961
0.0334173
0.0276871
0.0266617
0.0304384
0.0383116
0.0489803
0.0609167
0.0727428
0.0834844
0.092648
0.100145
0.10614
0.110891
0.114641
0.117578
0.119826
0.121248
0.120624
0.115004
0.102273
0.0866996
0.0771573
0.0769878
0.0827042
0.0880289
0.0870826
0.0778385
0.0656751
0.0634949
0.0769893
0.0908211
0.0933762
0.0880364
0.0849162
0.0904792
0.104291
0.120374
0.132905
0.137454
0.134577
0.124518
0.093443
0.0925932
0.0917349
0.0909273
0.0902708
0.0898632
0.0897714
0.090041
0.0906822
0.0916666
0.0928977
0.0942111
0.0953966
0.096228
0.0964897
0.0959896
0.0945567
0.0920479
0.0883194
0.0832192
0.0767482
0.0690492
0.0603688
0.0510705
0.0415876
0.0323378
0.0238173
0.0167002
0.0116139
0.0087458
0.00764643
0.00753883
0.00774538
0.0080764
0.009007
0.010928
0.0128406
0.0135056
0.0151686
0.0238621
0.0435959
0.071286
0.0988295
0.119389
0.131072
0.135875
0.136723
0.135575
0.133183
0.129636
0.124828
0.118658
0.111041
0.101901
0.0912166
0.079131
0.0661034
0.0530183
0.0411656
0.0320346
0.0269527
0.0266935
0.0312202
0.0396865
0.0506935
0.0626881
0.0743366
0.0847497
0.0935212
0.100624
0.106249
0.110645
0.114039
0.116643
0.118663
0.120013
0.119511
0.114345
0.102357
0.0872405
0.0775398
0.0770046
0.0825599
0.0881194
0.0877225
0.078808
0.0656748
0.0602842
0.0702867
0.0826423
0.0849589
0.079542
0.0765923
0.0831876
0.0990025
0.117362
0.131754
0.137266
0.134692
0.124491
0.108523
0.108119
0.107775
0.107509
0.107347
0.107321
0.107465
0.107736
0.108104
0.108542
0.108996
0.109386
0.109611
0.109561
0.109128
0.10821
0.106701
0.104502
0.101491
0.0974993
0.0924168
0.0862286
0.0790093
0.070901
0.0621242
0.0529844
0.0438769
0.0353128
0.0278684
0.0220202
0.0179306
0.0155766
0.0148158
0.0156263
0.0177207
0.0197357
0.0197737
0.0185428
0.0213431
0.034269
0.0578159
0.0856261
0.109597
0.125329
0.133183
0.13586
0.135824
0.13434
0.131744
0.127999
0.123008
0.116688
0.108952
0.0997135
0.0889422
0.0767967
0.0637779
0.0508327
0.0393117
0.030731
0.0263818
0.0269338
0.0322049
0.0412115
0.0524743
0.0644389
0.0758375
0.0858773
0.0942405
0.100956
0.106231
0.110306
0.113379
0.115635
0.117299
0.11837
0.117805
0.112973
0.101778
0.0873573
0.0777622
0.0770575
0.0825669
0.0883817
0.088489
0.0799164
0.0660249
0.0576252
0.0635767
0.0736573
0.0753306
0.0698022
0.0670961
0.0747948
0.0927073
0.113483
0.129909
0.136513
0.134361
0.123943
0.116783
0.116547
0.116398
0.116343
0.116386
0.116541
0.116794
0.117058
0.117289
0.117458
0.117533
0.117473
0.11723
0.116755
0.116002
0.114923
0.113466
0.111574
0.109163
0.106102
0.102295
0.0976873
0.0922769
0.0861102
0.0792665
0.0718711
0.0641322
0.0563765
0.0490534
0.0426531
0.037611
0.0341786
0.0323132
0.0316304
0.0308848
0.0283355
0.0240173
0.0220554
0.0288427
0.0472791
0.07336
0.0990959
0.118255
0.129282
0.13408
0.135301
0.13469
0.132917
0.130075
0.126093
0.120899
0.11442
0.106559
0.097218
0.0863687
0.0741948
0.0612466
0.0485334
0.037456
0.0295355
0.0260014
0.0273974
0.0333884
0.0428637
0.0542873
0.0661304
0.0772114
0.0868425
0.0947913
0.101132
0.10608
0.10986
0.112646
0.114597
0.115918
0.11664
0.11584
0.111162
0.100727
0.0872084
0.077957
0.0772314
0.0827732
0.0888726
0.0894581
0.0811846
0.0666099
0.0553735
0.0568261
0.0638281
0.0644498
0.0588211
0.0564568
0.0652903
0.0853271
0.108632
0.127281
0.13516
0.133584
0.122972
0.121287
0.121078
0.120967
0.120955
0.121041
0.121232
0.121473
0.12167
0.121778
0.121767
0.121611
0.121283
0.120759
0.120018
0.119047
0.117835
0.116367
0.114618
0.112529
0.109997
0.10696
0.103382
0.0992503
0.0945918
0.0894608
0.0839246
0.078069
0.0720323
0.0660365
0.0603657
0.0553468
0.0509722
0.0469398
0.0424748
0.0365166
0.0292252
0.0238505
0.026088
0.0398109
0.0630712
0.0889663
0.110477
0.124384
0.131437
0.134075
0.134364
0.133329
0.13125
0.128117
0.123876
0.118469
0.111822
0.103827
0.09438
0.0834666
0.0713065
0.0585058
0.0461337
0.0356253
0.0284807
0.0258374
0.0280928
0.0347561
0.0446076
0.056084
0.0677119
0.0784144
0.0876126
0.0951516
0.101139
0.105787
0.109298
0.111822
0.113497
0.114517
0.114925
0.113887
0.109287
0.0995178
0.086973
0.078188
0.0775119
0.0831172
0.0895314
0.0906307
0.0826585
0.0673619
0.0532292
0.0496464
0.0528751
0.0522778
0.046775
0.0449399
0.0548779
0.0769192
0.102739
0.123751
0.133115
0.132306
0.121652
0.123293
0.123166
0.123136
0.123202
0.123362
0.123607
0.123842
0.123979
0.123977
0.123806
0.123443
0.122869
0.122077
0.121067
0.11985
0.118442
0.116849
0.11507
0.113051
0.110691
0.10795
0.104809
0.101265
0.0973249
0.0930226
0.0884062
0.083524
0.0784183
0.0731214
0.0676698
0.0620278
0.05593
0.0489222
0.0406378
0.0316575
0.0247237
0.0245363
0.0349068
0.0552427
0.0801303
0.102758
0.11888
0.128066
0.132211
0.133457
0.133119
0.131694
0.129269
0.125819
0.121306
0.11568
0.108853
0.100712
0.0911585
0.080204
0.0681147
0.0555571
0.043653
0.0338513
0.027599
0.0259102
0.0290172
0.0362785
0.0463908
0.0578
0.069119
0.0793911
0.0881449
0.0952911
0.100956
0.105336
0.108608
0.110897
0.112325
0.11308
0.113226
0.11202
0.107545
0.0984199
0.0868612
0.0786059
0.0779992
0.0836351
0.0903261
0.0919633
0.0843836
0.0684173
0.0512897
0.0421256
0.0409293
0.039186
0.0342303
0.0331246
0.0439603
0.0676452
0.0958121
0.119286
0.130407
0.130622
0.120149
0.123336
0.123254
0.123271
0.123382
0.123587
0.123854
0.12407
0.124162
0.124085
0.123803
0.123292
0.122534
0.12153
0.120293
0.11885
0.117234
0.11547
0.113568
0.111467
0.109071
0.106339
0.103255
0.0998035
0.0959737
0.0917565
0.0871494
0.0821498
0.0767371
0.0708514
0.0644004
0.0571901
0.0490285
0.039963
0.0308782
0.024132
0.0234292
0.0319902
0.0498918
0.0731408