/*--------------------------------*- C++ -*----------------------------------*\
  =========                 |
  \\      /  F ield         | OpenFOAM: The Open Source CFD Toolbox
   \\    /   O peration     | Website:  https://openfoam.org
    \\  /    A nd           | Version:  10
     \\/     M anipulation  |
\*---------------------------------------------------------------------------*/
FoamFile
{
    format      ascii;
    class       volScalarField;
    location    "0.075";
    object      nut;
}
// * * * * * * * * * * * * * * * * * * * * * * * * * * * * * * * * * * * * * //

dimensions      [0 2 -1 0 0 0 0];

internalField   nonuniform List<scalar> 
6820
(
0
0
0
0
0
0
0
0
0
0
0
0
0
0
0
0
0
0
0
0
0
0
0
0
0
0
0
0
0
0
0
0
0
0
0
0
0
0
0
0
0
0
0
0
0
0
0
0
0
0
0
0
0
0
0
0
0
0
0
0
0
0
0
0
0
0
0
0
0
0
0
0
0
0
0
0
0
0
0
0
0
0
0
0
0
0
0
0
0
0
0
0
0
0
0
0
0
1.46512e-08
0
0
0
0
0
0
0
0
0
0
0
0
0
0
0
0
0
0
0
0
0
0
0
0
0
0
0
0
0
0
0
0
0
0
1.62088e-05
0
0
0
0
0
0
0
0
0
0
0
0
0
0
0
0
0
0
0
0
0
5.06861e-08
2.31465e-07
3.87456e-07
5.09333e-07
5.23755e-07
1.71708e-08
0
0
0
0
0
6.32907e-06
4.80743e-05
3.65769e-05
1.84018e-05
6.52583e-06
4.90002e-07
0
0
0
0
0
0
0
0
0
0
0
0
0
0
0
0
1.06122e-08
2.3581e-08
2.55117e-08
1.97355e-07
1.91838e-07
1.48482e-07
0
0
0
0
0
0
1.36302e-05
2.75889e-05
3.49447e-05
3.29261e-05
2.94139e-05
2.66002e-05
2.40991e-05
2.18763e-05
2.00402e-05
1.85782e-05
1.74248e-05
1.64435e-05
1.52641e-05
1.295e-05
7.93157e-06
7.02614e-07
0
0
0
0
0
4.54689e-08
1.74147e-07
1.37478e-07
2.14988e-08
0
0
0
0
0
0
0
0
8.13213e-06
1.54517e-05
2.65412e-05
2.95679e-05
2.8375e-05
2.68609e-05
2.54924e-05
2.44089e-05
2.38132e-05
2.38522e-05
2.47949e-05
2.72775e-05
3.28282e-05
4.4708e-05
5.02106e-05
1.20088e-05
8.90428e-07
0
4.07651e-08
1.91493e-07
1.99712e-07
1.06288e-07
0
0
0
0
0
0
0
0
0
0
0
6.31567e-06
9.06662e-06
1.68343e-05
2.21338e-05
2.4677e-05
2.61941e-05
2.68304e-05
2.70731e-05
2.75126e-05
2.85033e-05
3.03544e-05
3.34086e-05
3.73682e-05
3.76893e-05
2.4645e-05
9.32337e-06
2.86208e-06
9.32795e-07
3.63554e-07
1.29309e-07
0
0
0
0
0
0
0
0
0
0
0
0
0
4.93828e-06
6.07771e-06
1.10319e-05
1.52243e-05
1.79937e-05
2.07403e-05
2.29117e-05
2.44195e-05
2.5747e-05
2.72136e-05
2.8844e-05
3.01111e-05
2.91672e-05
2.3247e-05
1.37552e-05
6.26762e-06
2.35489e-06
6.22857e-07
0
0
0
0
0
0
0
0
0
0
0
0
0
0
0
3.84725e-06
4.28425e-06
7.55796e-06
1.03964e-05
1.19696e-05
1.41047e-05
1.66216e-05
1.89293e-05
2.08923e-05
2.23657e-05
2.29838e-05
2.20833e-05
1.8903e-05
1.36128e-05
7.97771e-06
3.75611e-06
1.23804e-06
0
0
0
0
0
0
0
0
0
0
0
0
0
0
0
0
2.97846e-06
2.93775e-06
5.02213e-06
7.00021e-06
7.6304e-06
8.41486e-06
9.64294e-06
1.09827e-05
1.22483e-05
1.31424e-05
1.32077e-05
1.20138e-05
9.4542e-06
6.05289e-06
2.75054e-06
2.28435e-07
0
0
0
0
0
0
0
0
0
0
0
0
0
0
0
0
0
2.31531e-06
1.95219e-06
3.1171e-06
4.41034e-06
4.49863e-06
4.4524e-06
4.65083e-06
4.92567e-06
5.18768e-06
5.26694e-06
4.89269e-06
3.88647e-06
2.31222e-06
4.89022e-07
0
0
0
0
0
0
0
0
0
0
0
0
0
0
0
0
0
0
0
1.81428e-06
1.21799e-06
1.62964e-06
2.25806e-06
1.88431e-06
1.25401e-06
7.15343e-07
1.73327e-07
0
0
0
0
0
0
0
0
0
0
0
0
0
0
0
0
0
0
0
0
0
0
0
0
0
1.43884e-06
6.71593e-07
4.99461e-07
5.52637e-07
0
0
0
0
0
0
0
0
0
0
0
0
0
0
0
0
0
0
0
0
0
0
0
0
0
0
0
0
0
1.15522e-06
2.52477e-07
0
0
0
0
0
0
0
0
0
0
0
0
0
0
0
0
0
0
0
0
0
0
0
0
0
0
0
0
0
0
0
9.3951e-07
0
0
0
0
0
0
0
0
0
0
0
0
0
0
0
0
0
0
0
0
0
0
0
0
0
0
0
0
0
0
0
0
7.73018e-07
0
0
0
0
0
0
0
0
0
0
0
0
0
0
0
0
0
0
0
0
0
0
0
0
0
0
0
0
2.31951e-07
2.18293e-07
0
0
6.41778e-07
0
0
0
0
0
0
0
0
0
0
0
0
0
0
0
0
0
0
0
0
0
0
0
0
0
0
0
5.48856e-07
1.07355e-06
1.03438e-06
0
0
5.34978e-07
0
0
0
0
0
0
0
0
0
0
0
0
0
0
0
0
0
0
0
0
0
0
0
0
0
2.53206e-08
6.53214e-07
1.22805e-06
1.68949e-06
1.62114e-06
1.83542e-07
0
4.44267e-07
0
0
0
0
0
0
0
0
0
0
0
0
0
0
0
0
0
0
0
0
0
0
0
0
2.70248e-07
8.88833e-07
1.45292e-06
1.94787e-06
2.32153e-06
2.20754e-06
8.57889e-07
0
3.6314e-07
0
0
0
0
0
0
0
0
0
0
0
0
0
0
0
0
0
0
0
0
0
0
0
4.49616e-07
1.055e-06
1.606e-06
2.08874e-06
2.48903e-06
2.7627e-06
2.59338e-06
1.33365e-06
0
2.84583e-07
0
0
0
0
0
0
0
0
0
0
0
0
0
0
0
0
0
0
0
0
0
0
6.05092e-07
1.20292e-06
1.746e-06
2.22165e-06
2.61712e-06
2.91967e-06
3.09336e-06
2.87232e-06
1.70675e-06
0
2.04649e-07
0
0
0
0
0
0
0
0
0
0
0
0
0
0
0
0
0
0
0
0
2.9576e-07
9.07575e-07
1.47539e-06
1.98885e-06
2.43657e-06
2.80683e-06
3.08864e-06
3.27054e-06
3.32409e-06
3.03405e-06
1.94889e-06
0
1.08695e-07
0
0
0
0
0
0
0
0
0
0
0
0
0
0
0
0
0
0
0
3.03552e-07
9.09528e-07
1.47139e-06
1.97911e-06
2.42253e-06
2.79111e-06
3.07446e-06
3.26362e-06
3.34878e-06
3.30791e-06
2.97244e-06
1.98906e-06
0
5.42766e-09
0
0
0
0
0
0
0
0
0
0
0
0
0
0
0
0
0
2.76976e-07
8.69219e-07
1.42199e-06
1.92886e-06
2.38269e-06
2.77393e-06
3.0938e-06
3.33335e-06
3.48275e-06
3.53556e-06
3.48752e-06
3.32441e-06
2.92105e-06
2.01012e-06
0
0
0
0
0
0
0
0
0
0
0
0
0
0
0
0
0
0
1.00607e-07
6.83319e-07
1.22663e-06
1.72443e-06
2.16979e-06
2.55695e-06
2.87595e-06
3.1196e-06
3.28204e-06
3.3522e-06
3.32099e-06
3.18733e-06
2.94716e-06
2.51667e-06
1.72029e-06
0
0
0
0
0
0
0
0
0
0
0
0
0
0
0
1.02671e-07
6.79529e-07
1.21002e-06
1.6955e-06
2.13548e-06
2.52855e-06
2.87013e-06
3.15446e-06
3.37926e-06
3.53468e-06
3.61007e-06
3.60798e-06
3.52933e-06
3.36458e-06
3.10617e-06
2.75336e-06
2.26529e-06
1.54005e-06
0
0
0
0
0
0
0
0
0
0
0
0
0
0
0
4.647e-07
9.75254e-07
1.43618e-06
1.84897e-06
2.21333e-06
2.52919e-06
2.79337e-06
2.99717e-06
3.14064e-06
3.23004e-06
3.24069e-06
3.15997e-06
2.99909e-06
2.76226e-06
2.44475e-06
2.04832e-06
1.56389e-06
9.69985e-07
0
0
0
0
0
0
0
0
0
0
5.97805e-07
1.2789e-06
1.85101e-06
2.32531e-06
2.71551e-06
3.03528e-06
3.29455e-06
3.50295e-06
3.66441e-06
3.77793e-06
3.84999e-06
3.88613e-06
3.8567e-06
3.74446e-06
3.60132e-06
3.43178e-06
3.20246e-06
2.905e-06
2.54531e-06
2.12491e-06
1.64952e-06
1.1397e-06
6.2543e-07
0
0
0
0
0
0
0
0
7.36772e-08
9.47604e-07
1.67658e-06
2.27215e-06
2.74964e-06
3.12604e-06
3.4181e-06
3.63758e-06
3.78626e-06
3.87937e-06
3.92395e-06
3.90655e-06
3.85158e-06
3.79249e-06
3.68632e-06
3.47359e-06
3.18823e-06
2.87905e-06
2.54435e-06
2.17159e-06
1.75976e-06
1.31081e-06
8.32949e-07
3.63399e-07
0
0
1.43724e-06
0
8.32456e-07
2.38772e-06
3.68887e-06
4.75738e-06
5.62732e-06
6.30501e-06
6.81052e-06
7.16581e-06
7.39264e-06
7.51541e-06
7.55393e-06
7.51582e-06
7.39656e-06
7.18686e-06
6.90673e-06
6.56313e-06
6.12206e-06
5.61719e-06
5.11483e-06
4.63499e-06
4.15196e-06
3.62413e-06
3.06868e-06
2.51402e-06
1.96662e-06
1.42619e-06
8.9191e-07
3.6953e-07
0
0
0
0
3.2412e-07
2.91013e-06
5.0011e-06
6.46919e-06
7.57864e-06
8.41933e-06
9.00769e-06
9.39663e-06
9.65259e-06
9.81744e-06
9.9039e-06
9.90188e-06
9.79138e-06
9.57969e-06
9.28384e-06
8.89718e-06
8.40829e-06
7.79475e-06
7.0592e-06
6.23587e-06
5.39201e-06
4.58003e-06
3.77821e-06
2.99337e-06
2.25494e-06
1.57518e-06
9.54414e-07
3.87889e-07
0
0
0
2.30892e-05
1.53434e-05
1.1822e-05
1.14041e-05
1.16964e-05
1.21379e-05
1.26339e-05
1.30191e-05
1.31996e-05
1.32226e-05
1.31705e-05
1.30768e-05
1.29282e-05
1.26953e-05
1.23635e-05
1.1962e-05
1.15083e-05
1.09504e-05
1.02711e-05
9.5014e-06
8.61256e-06
7.56971e-06
6.4139e-06
5.22474e-06
4.05847e-06
2.96726e-06
1.99623e-06
1.16564e-06
4.73028e-07
0
0
0
0
1.95979e-05
2.63016e-05
1.95828e-05
1.57584e-05
1.42405e-05
1.3721e-05
1.36041e-05
1.36224e-05
1.3673e-05
1.37332e-05
1.37859e-05
1.38089e-05
1.37927e-05
1.37459e-05
1.36821e-05
1.35959e-05
1.34547e-05
1.32197e-05
1.28847e-05
1.24383e-05
1.17938e-05
1.08607e-05
9.61461e-06
8.10429e-06
6.44305e-06
4.7847e-06
3.27652e-06
2.01038e-06
1.01038e-06
2.51794e-07
0
0
0
6.67193e-05
6.01779e-05
3.76684e-05
2.58067e-05
1.81683e-05
1.22129e-05
7.42216e-06
3.62348e-06
7.66353e-07
0
0
0
0
0
0
0
0
0
0
0
0
0
0
0
0
0
6.34472e-08
1.88412e-07
3.06761e-07
4.2252e-07
5.38258e-07
6.54727e-07
7.70639e-07
0
0
0
0
0
0
0
0
0
0
0
0
0
0
0
0
0
0
0
0
0
0
0
0
0
0
0
0
0
0
0
0
1.55125e-07
3.97282e-08
0
0
0
0
0
0
0
0
0
0
0
0
0
0
0
0
0
0
0
0
0
0
0
0
0
0
0
0
0
0
0
0
2.1088e-08
0
0
0
0
0
0
0
0
0
0
0
0
0
0
0
0
0
0
0
0
0
0
0
0
0
0
0
0
0
0
0
0
9.49947e-09
0
0
0
0
0
0
0
0
0
0
0
0
0
0
0
0
0
0
0
0
0
0
0
0
0
0
0
0
0
0
0
0
0
0
0
0
0
0
0
0
3.54025e-06
1.89422e-06
0
2.60265e-08
6.40658e-06
1.16421e-05
9.1312e-06
4.68204e-06
1.84933e-06
9.65139e-07
3.65088e-07
0
0
0
0
0
0
1.18221e-06
1.14882e-05
1.90602e-05
3.16279e-05
5.1232e-05
8.08512e-05
0.000128959
0.000207825
0.000134933
0
0
0
0
1.13509e-05
2.74641e-05
2.4277e-05
1.74934e-05
1.13431e-05
8.79809e-06
9.41467e-06
9.98296e-06
9.50475e-06
8.02817e-06
6.03579e-06
4.02182e-06
2.23097e-06
6.88308e-07
0
0
0
0
0
0
0
0
0
0
0
0
0
0
0
0
0
0
0
0
0
0
0
0
0
0
0
3.55736e-06
1.79109e-06
0
0
0
3.48312e-05
2.96351e-05
0
0
0
0
0
0
0
0
0
0
0
0
0
0
0
0
0
0
0
0
0
0
0
1.76996e-05
2.06205e-05
1.26735e-05
1.36103e-05
1.17929e-05
6.7314e-06
3.02056e-06
1.65872e-06
1.29972e-06
6.51721e-07
0
0
0
0
0
0
0
1.23375e-05
2.15452e-05
3.27241e-05
5.18427e-05
8.20162e-05
0.000129352
0.000197136
0.000145428
0
0
0
0
2.25331e-05
2.98614e-05
2.46156e-05
1.73561e-05
1.13413e-05
9.89767e-06
1.12425e-05
1.20924e-05
1.16418e-05
1.0067e-05
7.95279e-06
5.81731e-06
3.89458e-06
2.21211e-06
7.38886e-07
0
0
0
0
0
0
0
0
0
0
0
0
0
0
0
0
0
0
0
0
0
0
0
0
0
0
2.70673e-06
3.02961e-07
0
0
0
2.14281e-05
3.18398e-05
2.29664e-06
0
0
0
0
0
0
0
0
0
0
0
0
0
0
0
0
0
0
0
0
0
0
1.44504e-05
2.25556e-05
1.75063e-05
1.26192e-05
7.33267e-06
3.41808e-06
2.14471e-06
2.13611e-06
1.5544e-06
7.41247e-07
0
0
0
0
0
0
0
4.58023e-06
2.34456e-05
3.42887e-05
5.00884e-05
7.58902e-05
0.000114937
0.00016153
0.000125753
0
0
0
1.10734e-06
2.90297e-05
2.93705e-05
2.31979e-05
1.59472e-05
1.07869e-05
1.08585e-05
1.28298e-05
1.38548e-05
1.3382e-05
1.17416e-05
9.58515e-06
7.41607e-06
5.4437e-06
3.69503e-06
2.15175e-06
8.04792e-07
0
0
0
0
0
0
0
0
0
0
0
0
0
0
0
0
0
0
0
0
0
0
0
0
0
1.81391e-06
0
0
0
0
0
3.1302e-05
5.2788e-06
0
0
0
0
0
0
0
0
0
0
0
0
0
0
0
0
0
0
0
0
0
0
1.67938e-05
1.72707e-05
1.07835e-05
5.99427e-06
2.66068e-06
2.18494e-06
2.80291e-06
2.55455e-06
1.69181e-06
7.18103e-07
0
0
0
0
0
0
0
0
1.64334e-05
3.7481e-05
5.28262e-05
7.41167e-05
0.00010561
0.000141118
0.00011261
0
0
0
2.02448e-05
3.04982e-05
2.72732e-05
2.08364e-05
1.39425e-05
1.03613e-05
1.20051e-05
1.44311e-05
1.55076e-05
1.49504e-05
1.32468e-05
1.1079e-05
8.91108e-06
6.92362e-06
5.14373e-06
3.56133e-06
2.17129e-06
9.73849e-07
0
0
0
0
0
0
0
0
0
0
0
0
0
0
0
0
0
0
0
0
0
0
0
0
9.95906e-07
0
0
0
0
0
2.77423e-05
7.79283e-06
0
0
0
0
0
0
0
0
0
0
0
0
0
0
0
0
0
0
0
0
0
0
5.317e-06
4.6387e-06
2.64764e-06
1.33142e-06
2.35145e-06
3.28268e-06
3.35673e-06
2.75687e-06
1.77281e-06
6.7384e-07
0
0
0
0
0
0
0
0
0
2.57658e-05
5.70767e-05
8.40439e-05
0.000117992
0.000159341
8.92485e-05
0
0
7.93851e-06
2.7587e-05
2.86886e-05
2.42428e-05
1.79276e-05
1.1832e-05
1.05263e-05
1.34752e-05
1.61555e-05
1.71511e-05
1.64529e-05
1.46816e-05
1.25127e-05
1.03571e-05
8.36781e-06
6.57262e-06
4.96697e-06
3.54531e-06
2.30525e-06
1.24684e-06
3.72469e-07
0
0
0
0
0
0
0
0
0
0
0
0
0
0
0
0
0
0
0
0
0
0
2.80406e-07
0
0
0
0
0
2.0065e-05
9.60619e-06
0
0
0
0
0
0
0
0
0
0
0
0
0
0
0
0
0
0
0
0
0
1.32736e-07
5.88495e-07
1.1273e-06
1.97274e-06
3.00234e-06
3.74822e-06
3.97635e-06
3.69726e-06
2.96178e-06
1.8935e-06
6.72506e-07
0
0
0
0
0
0
0
0
0
0
2.06505e-05
6.15219e-05
0.000102472
0.000102786
0
0
3.1556e-06
2.24845e-05
2.71233e-05
2.52101e-05
2.0625e-05
1.46897e-05
1.01256e-05
1.14483e-05
1.52405e-05
1.79518e-05
1.87448e-05
1.78725e-05
1.60396e-05
1.38806e-05
1.17473e-05
9.76861e-06
7.97192e-06
6.35532e-06
4.91174e-06
3.63515e-06
2.52371e-06
1.58097e-06
8.13364e-07
2.24193e-07
0
0
0
0
0
0
0
0
0
0
0
0
0
0
0
0
0
0
0
0
0
0
0
0
0
0
6.79103e-06
1.02583e-05
0
0
0
0
0
0
0
0
0
0
0
0
0
0
0
0
0
0
0
0
0
2.69643e-07
9.96196e-07
1.93638e-06
2.95614e-06
3.83081e-06
4.38504e-06
4.5287e-06
4.1876e-06
3.34189e-06
2.12186e-06
7.32053e-07
0
0
0
0
0
0
0
0
0
0
0
0
5.80531e-06
2.83605e-06
0
6.94026e-06
1.77373e-05
2.30959e-05
2.3486e-05
2.10045e-05
1.66792e-05
1.1461e-05
9.50188e-06
1.30461e-05
1.72055e-05
1.97321e-05
2.02373e-05
1.91859e-05
1.73083e-05
1.51724e-05
1.3073e-05
1.11184e-05
9.33378e-06
7.71707e-06
6.25932e-06
4.95206e-06
3.79144e-06
2.78067e-06
1.92838e-06
1.24327e-06
7.25442e-07
3.5732e-07
9.9856e-08
0
0
0
0
0
0
0
0
0
0
0
0
0
0
0
0
0
0
0
0
0
0
0
0
9.11666e-06
0
0
0
0
0
0
0
0
0
0
0
0
0
0
0
0
0
0
0
0
0
6.49786e-07
1.73643e-06
2.84511e-06
3.86919e-06
4.70845e-06
5.26124e-06
5.39345e-06
4.96751e-06
3.94546e-06
2.48216e-06
8.3749e-07
0
0
0
0
0
0
0
0
0
0
0
0
0
0
5.51276e-06
1.23164e-05
1.72846e-05
1.93514e-05
1.89165e-05
1.65892e-05
1.27006e-05
8.94076e-06
1.0324e-05
1.51074e-05
1.92365e-05
2.141e-05
2.15902e-05
2.03782e-05
1.84777e-05
1.63792e-05
1.43266e-05
1.24097e-05
1.06497e-05
9.04257e-06
7.57766e-06
6.24474e-06
5.03861e-06
3.96174e-06
3.02431e-06
2.2408e-06
1.62296e-06
1.17185e-06
8.69857e-07
6.73971e-07
5.23395e-07
3.63523e-07
1.60846e-07
0
0
0
0
0
0
0
0
0
0
0
0
0
0
0
0
0
0
0
0
5.42186e-06
0
0
0
0
0
0
0
0
0
0
0
0
0
0
0
0
0
0
0
0
0
1.01592e-06
2.32748e-06
3.63618e-06
4.86851e-06
5.90766e-06
6.57799e-06
6.68221e-06
6.0811e-06
4.77837e-06
2.96828e-06
9.58494e-07
0
0
0
0
0
0
0
0
0
0
0
0
0
0
5.56505e-06
1.03759e-05
1.35434e-05
1.48072e-05
1.43469e-05
1.23526e-05
9.21021e-06
8.21613e-06
1.22385e-05
1.73873e-05
2.11939e-05
2.29187e-05
2.27801e-05
2.14393e-05
1.95391e-05
1.74933e-05
1.55011e-05
1.36349e-05
1.19102e-05
1.03213e-05
8.85616e-06
7.50289e-06
6.25475e-06
5.11349e-06
4.09115e-06
3.20888e-06
2.49257e-06
1.96535e-06
1.63326e-06
1.46354e-06
1.38343e-06
1.31578e-06
1.20869e-06
1.03521e-06
7.79026e-07
4.21605e-07
0
0
0
0
0
0
0
0
0
0
0
0
0
0
0
0
0
0
0
0
0
0
0
0
0
0
0
0
0
0
0
0
0
0
0
0
0
0
0
1.53515e-06
3.19983e-06
4.88047e-06
6.4405e-06
7.68074e-06
8.36964e-06
8.3123e-06
7.41741e-06
5.7428e-06
3.51372e-06
1.05551e-06
0
0
0
0
0
0
0
0
0
0
0
0
0
1.82067e-07
4.07073e-06
7.42134e-06
9.66811e-06
1.06013e-05
1.02829e-05
8.78908e-06
7.31493e-06
9.53066e-06
1.46659e-05
1.96577e-05
2.29672e-05
2.42178e-05
2.37949e-05
2.23617e-05
2.04854e-05
1.85086e-05
1.65901e-05
1.47855e-05
1.31052e-05
1.15424e-05
1.00838e-05
8.71597e-06
7.42984e-06
6.22622e-06
5.11958e-06
4.13944e-06
3.32863e-06
2.73582e-06
2.39219e-06
2.27091e-06
2.28057e-06
2.31851e-06
2.31431e-06
2.23116e-06
2.04901e-06
1.7496e-06
1.30852e-06
6.95758e-07
0
0
0
0
0
0
0
0
0
0
0
0
0
0
0
0
0
0
0
0
0
0
0
0
0
0
0
0
0
0
0
0
0
0
0
0
3.33891e-07
2.40084e-06
4.54894e-06
6.63075e-06
8.44092e-06
9.73886e-06
1.02998e-05
9.97395e-06
8.72612e-06
6.65559e-06
4.00314e-06
1.08537e-06
0
0
0
0
0
0
0
0
0
0
0
0
0
1.95491e-08
2.60258e-06
4.87133e-06
6.43874e-06
7.21749e-06
7.29513e-06
6.92078e-06
7.8855e-06
1.18674e-05
1.71802e-05
2.1749e-05
2.44901e-05
2.52877e-05
2.46272e-05
2.31395e-05
2.13118e-05
1.94204e-05
1.75868e-05
1.58523e-05
1.42241e-05
1.26946e-05
1.12496e-05
9.87306e-06
8.55328e-06
7.28999e-06
6.10078e-06
5.02545e-06
4.12691e-06
3.4829e-06
3.14964e-06
3.09963e-06
3.2162e-06
3.37017e-06
3.47482e-06
3.48549e-06
3.37899e-06
3.13594e-06
2.73314e-06
2.14637e-06
1.35867e-06
3.6664e-07
0
0
0
0
0
0
0
0
0
0
0
0
0
0
0
0
0
0
0
0
0
0
0
0
0
0
0
0
0
0
0
0
0
0
9.18355e-07
3.47088e-06
6.02973e-06
8.38863e-06
1.03063e-05
1.1544e-05
1.19113e-05
1.13067e-05
9.73857e-06
7.33016e-06
4.32248e-06
1.0122e-06
0
0
0
0
0
0
0
0
0
0
0
0
0
0
1.48827e-06
2.97917e-06
4.23379e-06
5.40997e-06
6.43252e-06
7.40868e-06
9.84242e-06
1.44034e-05
1.95353e-05
2.35662e-05
2.57295e-05
2.61179e-05
2.52721e-05
2.37701e-05
2.20164e-05
2.02243e-05
1.84836e-05
1.68256e-05
1.52559e-05
1.37668e-05
1.23423e-05
1.09629e-05
9.61398e-06
8.29432e-06
7.02569e-06
5.8603e-06
4.88457e-06
4.20829e-06
3.91045e-06
3.95425e-06
4.19199e-06
4.46874e-06
4.68434e-06
4.78873e-06
4.75729e-06
4.571e-06
4.20819e-06
3.64729e-06
2.87546e-06
1.89642e-06
7.3248e-07
0
0
0
0
0
0
0
0
0
0
0
0
0
0
0
0
0
0
0
0
0
0
0
0
0
0
0
0
0
0
0
0
0
1.6421e-06
4.46975e-06
7.22681e-06
9.67538e-06
1.15684e-05
1.26853e-05
1.28683e-05
1.20496e-05
1.02609e-05
7.63203e-06
4.39155e-06
8.14908e-07
0
0
0
0
0
0
0
0
0
0
0
0
0
0
9.8498e-07
2.37676e-06
4.12278e-06
5.99573e-06
7.44582e-06
8.91199e-06
1.20123e-05
1.68074e-05
2.16225e-05
2.50616e-05
2.66652e-05
2.67018e-05
2.57303e-05
2.42562e-05
2.25988e-05
2.09151e-05
1.92719e-05
1.76949e-05
1.61899e-05
1.47481e-05
1.33505e-05
1.19739e-05
1.06003e-05
9.22833e-06
7.88515e-06
6.6379e-06
5.60002e-06
4.91533e-06
4.68048e-06
4.83936e-06
5.20937e-06
5.61227e-06
5.93767e-06
6.13237e-06
6.17197e-06
6.03962e-06
5.717e-06
5.18548e-06
4.43337e-06
3.4653e-06
2.30743e-06
1.00744e-06
0
0
0
0
0
0
0
0
0
0
0
0
0
0
0
0
0
0
0
0
0
0
0
0
0
0
0
0
0
0
0
0
2.3107e-06
5.13837e-06
7.86023e-06
1.0237e-05
1.20281e-05
1.30262e-05
1.30883e-05
1.21571e-05
1.02683e-05
7.54748e-06
4.20773e-06
5.08077e-07
0
0
0
0
0
0
0
0
0
0
0
0
0
0
1.44091e-06
3.444e-06
5.58367e-06
7.3487e-06
8.53918e-06
1.0326e-05
1.40825e-05
1.90069e-05
2.33896e-05
2.61971e-05
2.72814e-05
2.70415e-05
2.6011e-05
2.4604e-05
2.30576e-05
2.1486e-05
1.99422e-05
1.84505e-05
1.70159e-05
1.56276e-05
1.42627e-05
1.28939e-05
1.15003e-05
1.00809e-05
8.67023e-06
7.35311e-06
6.27341e-06
5.60913e-06
5.46613e-06
5.7586e-06
6.26801e-06
6.79694e-06
7.22846e-06
7.50848e-06
7.61419e-06
7.53188e-06
7.24727e-06
6.74574e-06
6.01788e-06
5.06726e-06
3.91762e-06
2.61669e-06
1.24646e-06
0
0
0
0
0
0
0
0
0
0
0
0
0
0
0
0
0
0
0
0
0
0
0
0
0
0
0
0
0
0
2.86499e-07
2.88416e-06
5.56263e-06
8.12094e-06
1.03333e-05
1.19738e-05
1.28469e-05
1.28158e-05
1.18243e-05
9.9038e-06
7.1731e-06
3.831e-06
1.24525e-07
0
0
0
0
0
0
0
0
0
0
0
0
0
0
2.15897e-06
4.55656e-06
6.57517e-06
7.88508e-06
9.03696e-06
1.16574e-05
1.61194e-05
2.09647e-05
2.47703e-05
2.69357e-05
2.75781e-05
2.71557e-05
2.61312e-05
2.48188e-05
2.3389e-05
2.19288e-05
2.04856e-05
1.90829e-05
1.7724e-05
1.63944e-05
1.5067e-05
1.37103e-05
1.23013e-05
1.08408e-05
9.37255e-06
8.00231e-06
6.90713e-06
6.29655e-06
6.27369e-06
6.71393e-06
7.36509e-06
8.01623e-06
8.54767e-06
8.90658e-06
9.07302e-06
9.03693e-06
8.78805e-06
8.31528e-06
7.61134e-06
6.67949e-06
5.5402e-06
4.23627e-06
2.84216e-06
1.50305e-06
4.9598e-07
6.65167e-08
0
0
0
0
0
0
0
0
0
0
0
0
0
0
0
0
0
0
0
0
0
0
0
0
0
0
0
9.14019e-07
3.32444e-06
5.79337e-06
8.13687e-06
1.01483e-05
1.16189e-05
1.23644e-05
1.22531e-05
1.1227e-05
9.31211e-06
6.61957e-06
3.33648e-06
0
0
0
0
0
0
0
0
0
0
0
0
0
0
0
2.51113e-06
4.82814e-06
6.45173e-06
7.57494e-06
9.48692e-06
1.32638e-05
1.81089e-05
2.25629e-05
2.56865e-05
2.72665e-05
2.75843e-05
2.7077e-05
2.61074e-05
2.49018e-05
2.35865e-05
2.22356e-05
2.0894e-05
1.95837e-05
1.83043e-05
1.70372e-05
1.57507e-05
1.441e-05
1.29907e-05
1.1497e-05
9.98479e-06
8.58386e-06
7.50602e-06
6.9857e-06
7.10844e-06
7.70472e-06
8.4947e-06
9.26058e-06
9.88372e-06
1.03145e-05
1.05369e-05
1.05449e-05
1.03319e-05
9.88964e-06
9.21177e-06
8.30068e-06
7.17417e-06
5.87032e-06
4.45393e-06
3.04657e-06
1.87377e-06
1.10325e-06
0
0
0
0
0
0
0
0
0
0
0
0
0
0
0
0
0
0
0
0
0
0
0
0
0
0
0
1.48157e-06
3.6721e-06
5.90413e-06
8.01194e-06
9.80821e-06
1.1101e-05
1.17179e-05
1.15319e-05
1.04835e-05
8.59292e-06
5.96443e-06
2.77629e-06
0
0
0
0
0
0
0
0
0
0
0
0
0
0
0
2.41904e-06
4.34156e-06
5.70811e-06
7.39336e-06
1.05845e-05
1.51192e-05
1.98268e-05
2.36528e-05
2.61054e-05
2.7229e-05
2.73533e-05
2.68382e-05
2.59487e-05
2.48494e-05
2.36433e-05
2.23993e-05
2.11602e-05
1.99443e-05
1.87468e-05
1.75442e-05
1.6301e-05
1.49795e-05
1.35555e-05
1.20391e-05
1.05012e-05
9.09855e-06
8.07718e-06
7.68477e-06
7.97312e-06
8.72659e-06
9.64681e-06
1.05162e-05
1.12208e-05
1.17157e-05
1.19893e-05
1.20394e-05
1.18624e-05
1.14515e-05
1.07999e-05
9.90797e-06
8.78979e-06
7.47877e-06
6.03091e-06
4.54538e-06
3.2016e-06
2.10217e-06
5.82884e-08
0
0
0
0
0
0
0
0
0
8.49212e-07
0
0
0
0
0
0
0
0
0
0
0
0
0
0
0
8.06921e-08
1.90058e-06
3.86227e-06
5.85256e-06
7.7247e-06
9.31046e-06
1.04343e-05
1.09347e-05
1.0689e-05
9.63561e-06
7.78934e-06
5.24804e-06
2.18344e-06
0
0
0
0
0
0
0
0
0
0
0
0
0
0
3.32898e-08
2.08459e-06
3.67011e-06
5.35395e-06
8.1293e-06
1.22017e-05
1.68167e-05
2.10215e-05
2.41706e-05
2.60769e-05
2.69015e-05
2.69398e-05
2.64607e-05
2.5656e-05
2.4656e-05
2.35536e-05
2.24144e-05
2.12775e-05
2.01562e-05
1.90406e-05
1.79029e-05
1.67041e-05
1.5405e-05
1.39834e-05
1.2458e-05
1.09178e-05
9.54956e-06
8.62875e-06
8.3998e-06
8.86606e-06
9.77029e-06
1.08069e-05
1.17657e-05
1.25409e-05
1.30935e-05
1.34165e-05
1.35107e-05
1.33746e-05
1.30013e-05
1.23827e-05
1.1516e-05
1.04111e-05
9.09637e-06
7.62056e-06
6.06436e-06
4.56804e-06
3.18163e-06
7.19471e-07
0
0
0
0
0
0
0
0
8.65543e-07
3.87569e-06
5.34538e-07
0
0
0
0
0
0
0
0
0
0
0
0
0
0
6.29822e-07
2.2353e-06
3.96104e-06
5.70784e-06
7.34678e-06
8.72739e-06
9.68948e-06
1.00821e-05
9.78638e-06
8.73906e-06
6.94931e-06
4.50892e-06
1.58457e-06
0
0
0
0
0
0
0
0
0
0
0
0
0
0
1.2814e-07
1.79262e-06
3.46901e-06
5.90615e-06
9.45497e-06
1.37308e-05
1.80004e-05
2.16012e-05
2.41778e-05
2.57061e-05
2.63644e-05
2.63814e-05
2.59524e-05
2.52262e-05
2.43171e-05
2.3313e-05
2.22756e-05
2.12386e-05
2.02098e-05
1.91742e-05
1.80999e-05
1.69457e-05
1.56725e-05
1.42625e-05
1.27458e-05
1.12332e-05
9.94161e-06
9.16738e-06
9.13137e-06
9.77837e-06
1.08194e-05
1.19537e-05
1.29849e-05
1.38183e-05
1.44218e-05
1.47921e-05
1.49321e-05
1.48398e-05
1.4507e-05
1.39228e-05
1.30799e-05
1.1983e-05
1.06549e-05
9.13705e-06
7.49457e-06
5.83444e-06
4.16114e-06
1.29211e-06
0
0
0
0
0
0
0
0
2.82642e-06
6.22289e-06
3.11425e-06
0
0
0
0
0
0
0
0
0
0
0
0
0
0
1.00058e-06
2.39571e-06
3.8934e-06
5.40874e-06
6.83e-06
8.02358e-06
8.84373e-06
9.14897e-06
8.82366e-06
7.80163e-06
6.08614e-06
3.763e-06
9.95851e-07
0
0
0
0
0
0
0
0
0
0
0
0
0
0
2.07384e-07
1.78433e-06
3.8865e-06
6.89905e-06
1.06958e-05
1.47814e-05
1.85742e-05
2.16415e-05
2.38038e-05
2.50987e-05
2.56736e-05
2.56954e-05
2.53137e-05
2.46559e-05
2.38294e-05
2.29177e-05
2.19771e-05
2.10353e-05
2.00943e-05
1.91345e-05
1.81209e-05
1.70113e-05
1.57687e-05
1.43824e-05
1.28971e-05
1.14476e-05
1.0279e-05
9.69439e-06
9.87063e-06
1.06916e-05
1.18502e-05
1.30613e-05
1.41483e-05
1.503e-05
1.5682e-05
1.6104e-05
1.62988e-05
1.62624e-05
1.59837e-05
1.54474e-05
1.46415e-05
1.35652e-05
1.22355e-05
1.06878e-05
8.9755e-06
7.17957e-06
5.27104e-06
2.08582e-06
0
0
0
0
0
0
0
0
5.13139e-06
8.12756e-06
4.86142e-06
1.46071e-06
0
0
0
0
0
0
0
0
0
0
0
0
2.34798e-07
1.28363e-06
2.46888e-06
3.74396e-06
5.03736e-06
6.25302e-06
7.27305e-06
7.96538e-06
8.19751e-06
7.85623e-06
6.87159e-06
5.23999e-06
3.04121e-06
4.37886e-07
0
0
0
0
0
0
0
0
0
0
0
0
0
0
3.09813e-07
2.05842e-06
4.54591e-06
7.80251e-06
1.15328e-05
1.52831e-05
1.86256e-05
2.1286e-05
2.31728e-05
2.43281e-05
2.4858e-05
2.48877e-05
2.45431e-05
2.39428e-05
2.31897e-05
2.23624e-05
2.15111e-05
2.06571e-05
1.97969e-05
1.8907e-05
1.79505e-05
1.6886e-05
1.56809e-05
1.43345e-05
1.29085e-05
1.15621e-05
1.05621e-05
1.02004e-05
1.0594e-05
1.15725e-05
1.28252e-05
1.40908e-05
1.5216e-05
1.6135e-05
1.68312e-05
1.73062e-05
1.75603e-05
1.75856e-05
1.73652e-05
1.68788e-05
1.61082e-05
1.50459e-05
1.37022e-05
1.2106e-05
1.03006e-05
8.34528e-06
6.18106e-06
2.65673e-06
0
0
0
0
0
0
0
0
7.69212e-06
9.81432e-06
5.97709e-06
2.52427e-06
0
0
0
0
0
0
0
0
0
0
0
0
5.23826e-07
1.39031e-06
2.37665e-06
3.44394e-06
4.53355e-06
5.56433e-06
6.43351e-06
7.02196e-06
7.20511e-06
6.87071e-06
5.94325e-06
4.41105e-06
2.34804e-06
0
0
0
0
0
0
0
0
0
0
0
0
0
0
0
4.72778e-07
2.45226e-06
5.14769e-06
8.4126e-06
1.19267e-05
1.53224e-05
1.82963e-05
2.06667e-05
2.23719e-05
2.3435e-05
2.39297e-05
2.39586e-05
2.36382e-05
2.30833e-05
2.23927e-05
2.16394e-05
2.08671e-05
2.0091e-05
1.93026e-05
1.84755e-05
1.75725e-05
1.65551e-05
1.5398e-05
1.41124e-05
1.27784e-05
1.15766e-05
1.07836e-05
1.06618e-05
1.12624e-05
1.23754e-05
1.37003e-05
1.50038e-05
1.61574e-05
1.71114e-05
1.78569e-05
1.83963e-05
1.87265e-05
1.88332e-05
1.86932e-05
1.82794e-05
1.75673e-05
1.65426e-05
1.52086e-05
1.35888e-05
1.17197e-05
9.64671e-06
7.29297e-06
3.5418e-06
0
0
0
0
0
0
0
0
1.03384e-05
1.14664e-05
6.84112e-06
2.21381e-06
0
0
0
0
0
0
0
0
2.65214e-07
0
0
1.43641e-07
7.11509e-07
1.40342e-06
2.20189e-06
3.07563e-06
3.97782e-06
4.84122e-06
5.57737e-06
6.07966e-06
6.23112e-06
5.91978e-06
5.06302e-06
3.63902e-06
1.71541e-06
0
0
0
0
0
0
0
0
0
0
0
0
0
0
0
6.89722e-07
2.82871e-06
5.56579e-06
8.6978e-06
1.19426e-05
1.50205e-05
1.77112e-05
1.98754e-05
2.145e-05
2.24369e-05
2.28907e-05
2.29053e-05
2.25944e-05
2.20707e-05
2.1429e-05
2.07364e-05
2.00303e-05
1.93201e-05
1.85934e-05
1.78219e-05
1.69703e-05
1.60053e-05
1.49111e-05
1.37126e-05
1.25063e-05
1.14865e-05
1.09238e-05
1.10355e-05
1.18146e-05
1.30317e-05
1.44062e-05
1.57334e-05
1.69068e-05
1.78909e-05
1.86837e-05
1.92878e-05
1.96954e-05
1.9885e-05
1.98254e-05
1.94819e-05
1.88225e-05
1.78242e-05
1.64821e-05
1.48122e-05
1.2845e-05
1.06134e-05
8.02206e-06
3.97837e-06
0
0
0
0
0
0
0
1.86618e-06
1.29302e-05
1.31505e-05
7.73796e-06
2.44062e-06
0
0
0
0
0
0
0
0
6.76197e-07
0
3.03255e-08
3.35952e-07
7.50664e-07
1.27606e-06
1.89857e-06
2.59395e-06
3.3261e-06
4.04082e-06
4.66363e-06
5.10049e-06
5.24225e-06
4.97663e-06
4.21158e-06
2.91167e-06
1.13711e-06
0
0
0
0
0
0
0
0
0
0
0
0
0
0
0
9.4059e-07
3.12812e-06
5.78106e-06
8.70563e-06
1.16781e-05
1.44874e-05
1.69587e-05
1.89637e-05
2.04279e-05
2.13369e-05
2.1737e-05
2.17206e-05
2.1402e-05
2.08927e-05
2.02834e-05
1.96358e-05
1.89811e-05
1.83239e-05
1.76488e-05
1.69278e-05
1.61289e-05
1.52265e-05
1.42161e-05
1.31358e-05
1.20935e-05
1.12843e-05
1.09544e-05
1.12705e-05
1.21868e-05
1.34779e-05
1.48901e-05
1.62431e-05
1.74462e-05
1.84731e-05
1.93265e-05
2.00095e-05
2.05104e-05
2.08016e-05
2.0844e-05
2.0595e-05
2.00144e-05
1.90708e-05
1.77508e-05
1.60643e-05
1.40392e-05
1.17051e-05
8.96337e-06
4.78581e-06
0
0
0
0
0
0
0
5.9125e-06
1.53759e-05
1.48456e-05
8.86364e-06
1.97424e-06
0
0
0
0
0
0
0
0
8.95072e-07
2.02259e-07
2.00169e-07
3.89963e-07
6.70565e-07
1.04957e-06
1.51746e-06
2.05641e-06
2.64017e-06
3.227e-06
3.75631e-06
4.14744e-06
4.30036e-06
4.10276e-06
3.45051e-06
2.28803e-06
6.63447e-07
0
0
0
0
0
0
0
0
0
0
0
0
0
0
0
1.18443e-06
3.31551e-06
5.80364e-06
8.49103e-06
1.12082e-05
1.37893e-05
1.60799e-05
1.79483e-05
1.9306e-05
2.01278e-05
2.04573e-05
2.03898e-05
2.00429e-05
1.95279e-05
1.89323e-05
1.83126e-05
1.76948e-05
1.70795e-05
1.64495e-05
1.57787e-05
1.50403e-05
1.42176e-05
1.33175e-05
1.23886e-05
1.15413e-05
1.09546e-05
1.08344e-05
1.1302e-05
1.22997e-05
1.36279e-05
1.50646e-05
1.64461e-05
1.76868e-05
1.87612e-05
1.96722e-05
2.04231e-05
2.10012e-05
2.13741e-05
2.14964e-05
2.13167e-05
2.07857e-05
1.98624e-05
1.85232e-05
1.67704e-05
1.46301e-05
1.2131e-05
9.17403e-06
4.80324e-06
0
0
0
0
0
0
0
9.75488e-06
1.77243e-05
1.64586e-05
9.97765e-06
2.67489e-06
0
0
0
0
0
0
0
0
1.04806e-06
3.78524e-07
2.89817e-07
3.59597e-07
5.07078e-07
7.44711e-07
1.06611e-06
1.45871e-06
1.9048e-06
2.37404e-06
2.81955e-06
3.17512e-06
3.35235e-06
3.2415e-06
2.72549e-06
1.72123e-06
2.56879e-07
0
0
0
0
0
0
0
0
0
0
0
0
0
0
0
1.40981e-06
3.40344e-06
5.67674e-06
8.11378e-06
1.05885e-05
1.29635e-05
1.50915e-05
1.68306e-05
1.80766e-05
1.8795e-05
1.90308e-05
1.88867e-05
1.84866e-05
1.79437e-05
1.73431e-05
1.67369e-05
1.61462e-05
1.55681e-05
1.49851e-05
1.43734e-05
1.37127e-05
1.29954e-05
1.22382e-05
1.14945e-05
1.08656e-05
1.04983e-05
1.05499e-05
1.11106e-05
1.21395e-05
1.34829e-05
1.49524e-05
1.63927e-05
1.77097e-05
1.88671e-05
1.98627e-05
2.07005e-05
2.13702e-05
2.18397e-05
2.20592e-05
2.19699e-05
2.15128e-05
2.06371e-05
1.93105e-05
1.75304e-05
1.53284e-05
1.27489e-05
9.72477e-06
5.43525e-06
0
0
0
0
0
0
0
1.38261e-05
1.9775e-05
1.74415e-05
1.05734e-05
3.20169e-06
0
0
0
0
0
0
0
0
9.28067e-07
3.16131e-07
1.7215e-07
1.54416e-07
2.0152e-07
3.29779e-07
5.35677e-07
8.11466e-07
1.14709e-06
1.52291e-06
1.90595e-06
2.2466e-06
2.47318e-06
2.48539e-06
2.15478e-06
1.35414e-06
5.88663e-08
0
0
0
0
0
0
0
0
0
0
0
0
0
0
6.95107e-08
1.57083e-06
3.37102e-06
5.40105e-06
7.58247e-06
9.82275e-06
1.20039e-05
1.39788e-05
1.55898e-05
1.67129e-05
1.73047e-05
1.74165e-05
1.71652e-05
1.66861e-05
1.60966e-05
1.54798e-05
1.48832e-05
1.43226e-05
1.37912e-05
1.32706e-05
1.27394e-05
1.21827e-05
1.16005e-05
1.10159e-05
1.04805e-05
1.00754e-05
9.90493e-06
1.00781e-05
1.0671e-05
1.1682e-05
1.30175e-05
1.45247e-05
1.60476e-05
1.74704e-05
1.87336e-05
1.98219e-05
2.0738e-05
2.14761e-05
2.20065e-05
2.22766e-05
2.2219e-05
2.17644e-05
2.0852e-05
1.94416e-05
1.75276e-05
1.51498e-05
1.23726e-05
9.15919e-06
4.81041e-06
0
0
0
0
0
0
7.24473e-06
1.79542e-05
2.05519e-05
1.66554e-05
9.71248e-06
2.735e-06
3.21095e-08
0
0
0
0
0
0
0
8.45745e-07
2.76828e-07
6.77389e-08
0
0
0
1.5241e-08
1.78166e-07
4.05502e-07
6.86238e-07
9.99752e-07
1.31321e-06
1.57562e-06
1.70667e-06
1.58088e-06
1.02426e-06
0
0
0
0
0
0
0
0
0
0
0
0
0
0
0
3.61276e-07
1.68955e-06
3.2552e-06
5.01785e-06
6.93121e-06
8.93033e-06
1.09128e-05
1.27284e-05
1.4198e-05
1.51725e-05
1.5601e-05
1.55501e-05
1.51609e-05
1.45855e-05
1.39461e-05
1.33223e-05
1.27539e-05
1.22484e-05
1.17927e-05
1.13653e-05
1.09465e-05
1.05261e-05
1.01096e-05
9.72233e-06
9.40802e-06
9.22155e-06
9.22382e-06
9.48464e-06
1.00809e-05
1.10641e-05
1.24099e-05
1.40027e-05
1.56794e-05
1.72916e-05
1.8745e-05
2.00034e-05
2.10632e-05
2.19205e-05
2.25472e-05
2.28861e-05
2.28611e-05
2.23965e-05
2.14327e-05
1.9942e-05
1.79426e-05
1.55149e-05
1.27839e-05
9.81244e-06
6.14099e-06
0
0
0
0
0
4.40379e-06
1.54504e-05
1.97402e-05
1.80148e-05
1.28357e-05
6.78274e-06
1.68013e-06
1.34301e-07
0
0
0
0
0
0
0
4.34716e-07
0
0
0
0
0
0
0
0
0
1.31718e-07
4.31913e-07
7.47035e-07
1.04027e-06
1.23956e-06
1.16871e-06
4.29497e-07
0
0
0
0
0
0
0
0
0
0
0
0
0
0
5.71893e-07
1.69421e-06
3.00627e-06
4.49033e-06
6.12515e-06
7.86917e-06
9.63552e-06
1.12718e-05
1.25745e-05
1.33651e-05
1.35887e-05
1.33423e-05
1.28048e-05
1.21484e-05
1.14945e-05
1.091e-05
1.04187e-05
1.00136e-05
9.67116e-06
9.36579e-06
9.07912e-06
8.80557e-06
8.55579e-06
8.35543e-06
8.23761e-06
8.23197e-06
8.36374e-06
8.67484e-06
9.24901e-06
1.01912e-05
1.15476e-05
1.3243e-05
1.51062e-05
1.69501e-05
1.86365e-05
2.00948e-05
2.13013e-05
2.2241e-05
2.28767e-05
2.31435e-05
2.2966e-05
2.22863e-05
2.10838e-05
1.93813e-05
1.72424e-05
1.47711e-05
1.21191e-05
9.46585e-06
6.79377e-06
3.2846e-06
0
0
0
8.04464e-06
1.5038e-05
1.79817e-05
1.69764e-05
1.33732e-05
8.906e-06
4.81313e-06
1.66941e-06
4.12782e-08
0
0
0
0
0
0
0
1.6569e-07
0
0
0
0
0
0
0
0
0
0
0
0
2.81088e-07
6.79278e-07
1.09152e-06
9.87816e-07
0
0
0
0
0
0
0
0
0
0
0
0
0
4.75018e-08
7.80191e-07
1.66624e-06
2.69926e-06
3.87677e-06