/*--------------------------------*- C++ -*----------------------------------*\
  =========                 |
  \\      /  F ield         | OpenFOAM: The Open Source CFD Toolbox
   \\    /   O peration     | Website:  https://openfoam.org
    \\  /    A nd           | Version:  10
     \\/     M anipulation  |
\*---------------------------------------------------------------------------*/
FoamFile
{
    format      ascii;
    class       surfaceScalarField;
    location    "0.075";
    object      phi;
}
// * * * * * * * * * * * * * * * * * * * * * * * * * * * * * * * * * * * * * //

dimensions      [0 3 -1 0 0 0 0];

internalField   nonuniform List<scalar> 
13452
(
5.94529e-05
8.15575e-07
5.84719e-05
9.81033e-07
5.74499e-05
1.02197e-06
5.63998e-05
1.05013e-06
5.53499e-05
1.04983e-06
5.43119e-05
1.03798e-06
5.32893e-05
1.02261e-06
5.2284e-05
1.00537e-06
5.12966e-05
9.87405e-07
5.0327e-05
9.69578e-07
4.93746e-05
9.52419e-07
4.84382e-05
9.36344e-07
4.75165e-05
9.21753e-07
4.66074e-05
9.09056e-07
4.57087e-05
8.9871e-07
4.48174e-05
8.91251e-07
4.39301e-05
8.87326e-07
4.30424e-05
8.87731e-07
4.21489e-05
8.93463e-07
4.12432e-05
9.05775e-07
4.03169e-05
9.2625e-07
3.936e-05
9.56892e-07
3.83598e-05
1.00023e-06
3.73004e-05
1.05941e-06
3.61621e-05
1.13832e-06
3.49204e-05
1.24168e-06
3.35455e-05
1.37484e-06
3.20012e-05
1.54432e-06
3.02467e-05
1.75447e-06
2.82298e-05
2.01698e-06
2.59161e-05
2.31367e-06
2.32175e-05
2.6986e-06
3.0231e-06
2.01944e-05
6.24898e-05
3.16132e-07
6.29649e-05
5.05921e-07
6.34116e-05
5.75228e-07
6.38207e-05
6.41105e-07
6.41846e-05
6.859e-07
6.45033e-05
7.19306e-07
6.47783e-05
7.47606e-07
6.5012e-05
7.71613e-07
6.52072e-05
7.92185e-07
6.53665e-05
8.10296e-07
6.54923e-05
8.26681e-07
6.55866e-05
8.42006e-07
6.56514e-05
8.56955e-07
6.56882e-05
8.72255e-07
6.56982e-05
8.88707e-07
6.56822e-05
9.07229e-07
6.56406e-05
9.28907e-07
6.55733e-05
9.55052e-07
6.54795e-05
9.87278e-07
6.53577e-05
1.0276e-06
6.52054e-05
1.07856e-06
6.50189e-05
1.14338e-06
6.47929e-05
1.22619e-06
6.45201e-05
1.33226e-06
6.41901e-05
1.46826e-06
6.37892e-05
1.64264e-06
6.32982e-05
1.86586e-06
6.26916e-05
2.15088e-06
6.19339e-05
2.51217e-06
6.09816e-05
2.96928e-06
5.97619e-05
3.53337e-06
5.82175e-05
4.24299e-06
5.08093e-06
5.61597e-05
6.38345e-05
2.43026e-07
6.39103e-05
4.30157e-07
6.39796e-05
5.05938e-07
6.40516e-05
5.69031e-07
6.41256e-05
6.11902e-07
6.42035e-05
6.41394e-07
6.42863e-05
6.64893e-07
6.43737e-05
6.84188e-07
6.44655e-05
7.00413e-07
6.4561e-05
7.14724e-07
6.46597e-05
7.27974e-07
6.47609e-05
7.40867e-07
6.48637e-05
7.54092e-07
6.49676e-05
7.68357e-07
6.50719e-05
7.84428e-07
6.5176e-05
8.03178e-07
6.52792e-05
8.25632e-07
6.53813e-05
8.53033e-07
6.54816e-05
8.8691e-07
6.55801e-05
9.29169e-07
6.56764e-05
9.8221e-07
6.57707e-05
1.04907e-06
6.58633e-05
1.13362e-06
6.59548e-05
1.24078e-06
6.60462e-05
1.37682e-06
6.61392e-05
1.54969e-06
6.62356e-05
1.7694e-06
6.63379e-05
2.04862e-06
6.64473e-05
2.4027e-06
6.65651e-05
2.85154e-06
6.66816e-05
3.4169e-06
6.67935e-05
4.13104e-06
5.02253e-06
6.68519e-05
6.56405e-05
1.85551e-07
6.56927e-05
3.77987e-07
6.57292e-05
4.69414e-07
6.57587e-05
5.39603e-07
6.57819e-05
5.88689e-07
6.58008e-05
6.22482e-07
6.58169e-05
6.48826e-07
6.58308e-05
6.70243e-07
6.58432e-05
6.88063e-07
6.58543e-05
7.03599e-07
6.58644e-05
7.17854e-07
6.58736e-05
7.31646e-07
6.5882e-05
7.45755e-07
6.58893e-05
7.6097e-07
6.58956e-05
7.7813e-07
6.59007e-05
7.9817e-07
6.59041e-05
8.22163e-07
6.59058e-05
8.51386e-07
6.59053e-05
8.87373e-07
6.59025e-05
9.31999e-07
6.58971e-05
9.87569e-07
6.58893e-05
1.05693e-06
6.58793e-05
1.14362e-06
6.5868e-05
1.25199e-06
6.58574e-05
1.38742e-06
6.58507e-05
1.55647e-06
6.5853e-05
1.76709e-06
6.58727e-05
2.02887e-06
6.59224e-05
2.35299e-06
6.60209e-05
2.75308e-06
6.61941e-05
3.24374e-06
6.64803e-05
3.84476e-06
4.57001e-06
6.69329e-05
6.74905e-05
1.51883e-07
6.75315e-05
3.36939e-07
6.7566e-05
4.34882e-07
6.7598e-05
5.07667e-07
6.76258e-05
5.60853e-07
6.76494e-05
5.98848e-07
6.76696e-05
6.28631e-07
6.76868e-05
6.53064e-07
6.77013e-05
6.73619e-07
6.77132e-05
6.91697e-07
6.77226e-05
7.08412e-07
6.77296e-05
7.24671e-07
6.7734e-05
7.41326e-07
6.77357e-05
7.59234e-07
6.77346e-05
7.79296e-07
6.77302e-05
8.02505e-07
6.77224e-05
8.29986e-07
6.77107e-05
8.63064e-07
6.76948e-05
9.03308e-07
6.76742e-05
9.52597e-07
6.76486e-05
1.0132e-06
6.76176e-05
1.08787e-06
6.75813e-05
1.17993e-06
6.75399e-05
1.29339e-06
6.74943e-05
1.43302e-06
6.74463e-05
1.60445e-06
6.73992e-05
1.81421e-06
6.73584e-05
2.06971e-06
6.73324e-05
2.37899e-06
6.73347e-05
2.75079e-06
6.73855e-05
3.19295e-06
6.75162e-05
3.71406e-06
4.31259e-06
6.77736e-05
6.94116e-05
1.24266e-07
6.94503e-05
2.98241e-07
6.94837e-05
4.01484e-07
6.95136e-05
4.77857e-07
6.95393e-05
5.35071e-07
6.95613e-05
5.76882e-07
6.95803e-05
6.09582e-07
6.9597e-05
6.3643e-07
6.96115e-05
6.59135e-07
6.9624e-05
6.79196e-07
6.96345e-05
6.97832e-07
6.96432e-05
7.16035e-07
6.96498e-05
7.34721e-07
6.96542e-05
7.54799e-07
6.96563e-05
7.77222e-07
6.96558e-05
8.03026e-07
6.96524e-05
8.33344e-07
6.9646e-05
8.69517e-07
6.96362e-05
9.13103e-07
6.96228e-05
9.65938e-07
6.96058e-05
1.0302e-06
6.95852e-05
1.10846e-06
6.95614e-05
1.20378e-06
6.95351e-05
1.31971e-06
6.95077e-05
1.4604e-06
6.94816e-05
1.6305e-06
6.94606e-05
1.83521e-06
6.94503e-05
2.08003e-06
6.94589e-05
2.37043e-06
6.94981e-05
2.71153e-06
6.95846e-05
3.10653e-06
6.97416e-05
3.55701e-06
4.05435e-06
6.99998e-05
7.13849e-05
1.05679e-07
7.14148e-05
2.68337e-07
7.14429e-05
3.73403e-07
7.14697e-05
4.51082e-07
7.14945e-05
5.1028e-07
7.15167e-05
5.54634e-07
7.15367e-05
5.89622e-07
7.15546e-05
6.18558e-07
7.15704e-05
6.43244e-07
7.15844e-05
6.65193e-07
7.15966e-05
6.85668e-07
7.16069e-05
7.05714e-07
7.16154e-05
7.26287e-07
7.16218e-05
7.4833e-07
7.16263e-05
7.72805e-07
7.16285e-05
8.00753e-07
7.16285e-05
8.33361e-07
7.16261e-05
8.71925e-07
7.16213e-05
9.17939e-07
7.16141e-05
9.73136e-07
7.16047e-05
1.03953e-06
7.15938e-05
1.11944e-06
7.1582e-05
1.21554e-06
7.15708e-05
1.33087e-06
7.15625e-05
1.46878e-06
7.156e-05
1.63291e-06
7.15683e-05
1.82699e-06
7.15936e-05
2.05465e-06
7.16451e-05
2.31894e-06
7.17349e-05
2.62179e-06
7.18787e-05
2.96269e-06
7.20972e-05
3.33848e-06
3.73682e-06
7.24148e-05
7.34194e-05
9.15398e-08
7.34457e-05
2.4204e-07
7.34726e-05
3.46489e-07
7.34988e-05
4.24922e-07
7.35232e-05
4.8591e-07
7.3545e-05
5.3277e-07
7.35646e-05
5.70079e-07
7.35821e-05
6.01058e-07
7.35977e-05
6.2761e-07
7.36116e-05
6.51286e-07
7.36239e-05
6.73398e-07
7.36345e-05
6.95043e-07
7.36436e-05
7.17214e-07
7.36511e-05
7.40879e-07
7.36569e-05
7.67016e-07
7.3661e-05
7.96659e-07
7.36633e-05
8.30965e-07
7.36641e-05
8.71175e-07
7.36633e-05
9.18688e-07
7.36614e-05
9.75092e-07
7.36587e-05
1.04219e-06
7.36562e-05
1.12199e-06
7.3655e-05
1.21673e-06
7.3657e-05
1.32886e-06
7.36649e-05
1.4609e-06
7.36824e-05
1.61544e-06
7.37145e-05
1.79483e-06
7.37682e-05
2.00094e-06
7.38525e-05
2.23465e-06
7.3979e-05
2.49533e-06
7.41621e-05
2.77959e-06
7.44194e-05
3.08114e-06
3.38599e-06
7.47702e-05
7.5513e-05
8.10137e-08
7.55345e-05
2.20513e-07
7.55578e-05
3.23216e-07
7.5581e-05
4.01677e-07
7.56034e-05
4.63499e-07
7.56243e-05
5.11893e-07
7.56436e-05
5.5079e-07
7.56614e-05
5.83272e-07
7.56777e-05
6.11286e-07
7.56926e-05
6.36376e-07
7.57062e-05
6.59862e-07
7.57184e-05
6.82854e-07
7.57292e-05
7.06358e-07
7.57388e-05
7.31345e-07
7.5747e-05
7.588e-07
7.57539e-05
7.89729e-07
7.57597e-05
8.25176e-07
7.57645e-05
8.66317e-07
7.57688e-05
9.1444e-07
7.57729e-05
9.70956e-07
7.57777e-05
1.03741e-06
7.57842e-05
1.11547e-06
7.5794e-05
1.20691e-06
7.58093e-05
1.31355e-06
7.58331e-05
1.43714e-06
7.58693e-05
1.57924e-06
7.59232e-05
1.74096e-06
7.60015e-05
1.92267e-06
7.61126e-05
2.1235e-06
7.6267e-05
2.34094e-06
7.64769e-05
2.56971e-06
7.67562e-05
2.80181e-06
3.02333e-06
7.71189e-05
7.76677e-05
7.2867e-08
7.76861e-05
2.02154e-07
7.77075e-05
3.01823e-07
7.77297e-05
3.79467e-07
7.77517e-05
4.41529e-07
7.77725e-05
4.91042e-07
7.7792e-05
5.31328e-07
7.781e-05
5.652e-07
7.78268e-05
5.94567e-07
7.78422e-05
6.20946e-07
7.78564e-05
6.45645e-07
7.78695e-05
6.69781e-07
7.78815e-05
6.94361e-07
7.78925e-05
7.20346e-07
7.79026e-05
7.48681e-07
7.7912e-05
7.80325e-07
7.79209e-05
8.16271e-07
7.79296e-05
8.5759e-07
7.79387e-05
9.05416e-07
7.79487e-05
9.6095e-07
7.79606e-05
1.02546e-06
7.79758e-05
1.10026e-06
7.79961e-05
1.18664e-06
7.80238e-05
1.28582e-06
7.80622e-05
1.39882e-06
7.81151e-05
1.52628e-06
7.81878e-05
1.66826e-06
7.82866e-05
1.82392e-06
7.8419e-05
1.99112e-06
7.85938e-05
2.16607e-06
7.8821e-05
2.34251e-06
7.91111e-05
2.51176e-06
2.66109e-06
7.94733e-05
7.98848e-05
6.64167e-08
7.99003e-05
1.86607e-07
7.99194e-05
2.8276e-07
7.99396e-05
3.59195e-07
7.99601e-05
4.21085e-07
7.99799e-05
4.71207e-07
7.99989e-05
5.12398e-07
8.00168e-05
5.47221e-07
8.00339e-05
5.7754e-07
8.005e-05
6.04842e-07
8.00652e-05
6.3041e-07
8.00796e-05
6.55348e-07
8.00933e-05
6.80648e-07
8.01065e-05
7.07238e-07
8.01191e-05
7.36017e-07
8.01316e-05
7.67874e-07
8.01441e-05
8.03716e-07
8.01572e-05
8.44479e-07
8.01715e-05
8.91132e-07
8.01878e-05
9.44658e-07
8.02072e-05
1.00604e-06
8.02313e-05
1.07622e-06
8.02619e-05
1.15605e-06
8.03015e-05
1.24619e-06
8.03533e-05
1.34699e-06
8.04212e-05
1.45834e-06
8.051e-05
1.57944e-06
8.06254e-05
1.70857e-06
8.07738e-05
1.84273e-06
8.09624e-05
1.97743e-06
8.11988e-05
2.1061e-06
8.14904e-05
2.22019e-06
2.30872e-06
8.18428e-05
8.21657e-05
6.11702e-08
8.21791e-05
1.73228e-07
8.21964e-05
2.65452e-07
8.22154e-05
3.40131e-07
8.22352e-05
4.01327e-07
8.22548e-05
4.51562e-07
8.2274e-05
4.93283e-07
8.22924e-05
5.28785e-07
8.23101e-05
5.59833e-07
8.23271e-05
5.87853e-07
8.23434e-05
6.14078e-07
8.23592e-05
6.39578e-07
8.23745e-05
6.65309e-07
8.23896e-05
6.92152e-07
8.24047e-05
7.2095e-07
8.242e-05
7.52516e-07
8.24361e-05
7.87653e-07
8.24534e-05
8.27165e-07
8.24727e-05
8.71842e-07
8.24949e-05
9.22442e-07
8.25213e-05
9.79666e-07
8.25534e-05
1.04411e-06
8.25933e-05
1.1162e-06
8.26433e-05
1.19612e-06
8.27067e-05
1.28365e-06
8.27869e-05
1.37808e-06
8.28884e-05
1.47799e-06
8.30159e-05
1.58106e-06
8.31748e-05
1.68382e-06
8.33707e-05
1.78154e-06
8.3609e-05
1.86784e-06
8.38943e-05
1.93482e-06
1.97342e-06
8.42296e-05
8.45122e-05
5.67887e-08
8.45238e-05
1.61597e-07
8.45395e-05
2.49764e-07
8.45572e-05
3.22387e-07
8.4576e-05
3.82586e-07
8.45949e-05
4.32586e-07
8.46137e-05
4.74497e-07
8.46322e-05
5.10352e-07
8.46502e-05
5.41805e-07
8.46678e-05
5.70217e-07
8.46851e-05
5.96765e-07
8.47022e-05
6.22477e-07
8.47193e-05
6.48262e-07
8.47365e-05
6.74948e-07
8.47541e-05
7.03304e-07
8.47726e-05
7.34059e-07
8.47923e-05
7.67907e-07
8.4814e-05
8.05507e-07
8.48384e-05
8.47466e-07
8.48665e-05
8.94323e-07
8.48996e-05
9.46509e-07
8.49394e-05
1.00431e-06
8.49879e-05
1.06778e-06
8.50473e-05
1.13669e-06
8.51206e-05
1.21039e-06
8.52109e-05
1.28773e-06
8.5322e-05
1.36686e-06
8.5458e-05
1.44513e-06
8.56229e-05
1.51894e-06
8.58208e-05
1.58364e-06
8.60552e-05
1.63338e-06
8.63288e-05
1.66121e-06
1.65997e-06
8.66423e-05
8.69259e-05
5.30388e-08
8.69362e-05
1.51343e-07
8.69505e-05
2.3541e-07
8.69672e-05
3.05679e-07
8.69853e-05
3.64524e-07
8.7004e-05
4.13885e-07
8.70229e-05
4.55601e-07
8.70418e-05
4.91476e-07
8.70605e-05
5.23039e-07
8.70792e-05
5.51567e-07
8.70978e-05
5.78168e-07
8.71165e-05
6.03807e-07
8.71354e-05
6.29334e-07
8.71548e-05
6.55512e-07
8.71751e-05
6.83034e-07
8.71966e-05
7.12534e-07
8.72199e-05
7.44589e-07
8.72457e-05
7.79711e-07
8.72749e-05
8.18335e-07
8.73084e-05
8.60791e-07
8.73476e-05
9.07269e-07
8.73942e-05
9.57777e-07
8.74499e-05
1.01208e-06
8.75169e-05
1.06961e-06
8.75979e-05
1.12941e-06
8.76956e-05
1.19002e-06
8.78131e-05
1.24938e-06
8.79535e-05
1.30474e-06
8.81199e-05
1.35257e-06
8.8315e-05
1.38856e-06
8.85407e-05
1.4076e-06
8.87981e-05
1.40381e-06
1.37179e-06
8.90863e-05
8.94088e-05
4.97537e-08
8.9418e-05
1.4217e-07
8.94312e-05
2.22179e-07
8.9447e-05
2.89896e-07
8.94644e-05
3.47132e-07
8.94827e-05
3.95562e-07
8.95015e-05
4.3679e-07
8.95206e-05
4.72404e-07
8.95398e-05
5.03797e-07
8.95593e-05
5.32154e-07
8.95789e-05
5.58506e-07
8.9599e-05
5.83751e-07
8.96196e-05
6.08676e-07
8.96412e-05
6.33973e-07
8.9664e-05
6.60252e-07
8.96884e-05
6.88051e-07
8.97152e-05
7.17829e-07
8.9745e-05
7.4996e-07
8.97786e-05
7.84716e-07
8.98171e-05
8.2224e-07
8.98619e-05
8.62516e-07
8.99143e-05
9.05323e-07
8.99762e-05
9.50187e-07
9.00495e-05
9.96316e-07
9.01364e-05
1.04254e-06
9.02391e-05
1.08725e-06
9.03602e-05
1.1283e-06
9.05019e-05
1.16302e-06
9.06664e-05
1.18814e-06
9.08551e-05
1.19985e-06
9.10688e-05
1.19384e-06
9.13073e-05
1.16532e-06
1.11042e-06
9.15687e-05
9.19628e-05
4.68137e-08
9.19711e-05
1.3384e-07
9.19834e-05
2.09861e-07
9.19985e-05
2.74865e-07
9.20154e-05
3.30248e-07
9.20335e-05
3.7745e-07
9.20524e-05
4.17872e-07
9.20719e-05
4.52914e-07
9.20918e-05
4.83836e-07
9.21123e-05
5.1173e-07
9.21332e-05
5.37543e-07
9.21549e-05
5.62103e-07
9.21774e-05
5.86122e-07
9.22012e-05
6.10215e-07
9.22265e-05
6.34909e-07
9.22539e-05
6.60641e-07
9.2284e-05
6.87759e-07
9.23175e-05
7.16508e-07
9.23552e-05
7.47014e-07
9.23981e-05
7.79261e-07
9.24476e-05
8.13061e-07
9.25049e-05
8.48018e-07
9.25716e-05
8.83487e-07
9.26494e-05
9.18531e-07
9.27401e-05
9.51871e-07
9.28455e-05
9.8185e-07
9.29674e-05
1.0064e-06
9.31074e-05
1.02303e-06
9.32667e-05
1.02884e-06
9.34459e-05
1.02059e-06
9.3645e-05
9.94789e-07
9.38626e-05
9.4768e-07
8.76682e-07
9.40964e-05
9.45898e-05
4.41298e-08
9.45975e-05
1.26159e-07
9.46091e-05
1.98275e-07
9.46235e-05
2.60448e-07
9.464e-05
3.13783e-07
9.46579e-05
3.59512e-07
9.46769e-05
3.98865e-07
9.46968e-05
4.33073e-07
9.47173e-05
4.63266e-07
9.47386e-05
4.90436e-07
9.47607e-05
5.15446e-07
9.47838e-05
5.39044e-07
9.48081e-05
5.61867e-07
9.48338e-05
5.84454e-07
9.48615e-05
6.07245e-07
9.48915e-05
6.30586e-07
9.49246e-05
6.5472e-07
9.49613e-05
6.79777e-07
9.50026e-05
7.0576e-07
9.50493e-05
7.32521e-07
9.51026e-05
7.59744e-07
9.51637e-05
7.86907e-07
9.5234e-05
8.13259e-07
9.53147e-05
8.37789e-07
9.54074e-05
8.59198e-07
9.55133e-05
8.7588e-07
9.56338e-05
8.85917e-07
9.57697e-05
8.87099e-07
9.59216e-05
8.7695e-07
9.60894e-05
8.5281e-07
9.62722e-05
8.11966e-07
9.64683e-05
7.51586e-07
6.70117e-07
9.66749e-05
9.7292e-05
4.16344e-08
9.72992e-05
1.1897e-07
9.73102e-05
1.87259e-07
9.73242e-05
2.46508e-07
9.73403e-05
2.97616e-07
9.73582e-05
3.41645e-07
9.73774e-05
3.79673e-07
9.73977e-05
4.12783e-07
9.7419e-05
4.41984e-07
9.74412e-05
4.68168e-07
9.74646e-05
4.92114e-07
9.74891e-05
5.1449e-07
9.75151e-05
5.35859e-07
9.75429e-05
5.56679e-07
9.75728e-05
5.77312e-07
9.76054e-05
5.98016e-07
9.76412e-05
6.1894e-07
9.76808e-05
6.40118e-07
9.77251e-05
6.61449e-07
9.7775e-05
6.8269e-07
9.78313e-05
7.03428e-07
9.78951e-05
7.23068e-07
9.79676e-05
7.40808e-07
9.80497e-05
7.55629e-07
9.81427e-05
7.66277e-07
9.82473e-05
7.71267e-07
9.83643e-05
7.68895e-07
9.84941e-05
7.57269e-07
9.86367e-05
7.34355e-07
9.87915e-05
6.98058e-07
9.89571e-05
6.46359e-07
9.91314e-05
5.77233e-07
4.8992e-07
9.93116e-05
0.000100071
3.92752e-08
0.000100078
1.12143e-07
0.000100089
1.76668e-07
0.000100102
2.32918e-07
0.000100118
2.81649e-07
0.000100136
3.23781e-07
0.000100156
3.60263e-07
0.000100176
3.92047e-07
0.000100198
4.20027e-07
0.000100222
4.45e-07
0.000100246
4.67659e-07
0.000100272
4.88594e-07
0.000100299
5.08291e-07
0.000100329
5.27134e-07
0.000100361
5.4541e-07
0.000100396
5.63298e-07
0.000100434
5.80869e-07
0.000100476
5.98076e-07
0.000100522
6.14744e-07
0.000100575
6.30558e-07
0.000100633
6.45053e-07
0.000100698
6.57598e-07
0.000100772
6.67393e-07
0.000100854
6.73457e-07
0.000100946
6.74637e-07
0.000101047
6.69613e-07
0.000101159
6.56927e-07
0.000101282
6.3502e-07
0.000101414
6.02286e-07
0.000101555
5.57151e-07
0.000101703
4.98198e-07
0.000101856
4.24062e-07
3.34562e-07
0.000102011
0.00010293
3.70104e-08
0.000102937
1.05572e-07
0.000102947
1.66379e-07
0.000102961
2.19563e-07
0.000102976
2.65782e-07
0.000102994
3.05842e-07
0.000103014
3.40576e-07
0.000103035
3.70823e-07
0.000103058
3.97371e-07
0.000103082
4.20923e-07
0.000103108
4.42092e-07
0.000103135
4.6139e-07
0.000103164
4.79233e-07
0.000103195
4.95936e-07
0.000103229
5.11715e-07
0.000103265
5.26685e-07
0.000103305
5.4085e-07
0.000103349
5.54103e-07
0.000103398
5.66217e-07
0.000103452
5.76835e-07
0.000103511
5.8547e-07
0.000103577
5.91495e-07
0.000103651
5.94146e-07
0.000103731
5.92523e-07
0.00010382
5.85604e-07
0.000103918
5.72261e-07
0.000104023
5.51292e-07
0.000104137
5.21463e-07
0.000104258
4.81568e-07
0.000104384
4.30488e-07
0.000104515
3.67302e-07
0.000104648
2.91178e-07
2.02345e-07
0.00010478
0.000105871
3.48062e-08
0.000105877
9.91681e-08
0.000105887
1.56281e-07
0.000105901
2.06339e-07
0.000105917
2.49928e-07
0.000105935
2.8776e-07
0.000105955
3.20573e-07
0.000105976
3.491e-07
0.000106
3.74034e-07
0.000106025
3.95992e-07
0.000106051
4.15507e-07
0.00010608
4.3302e-07
0.00010611
4.48878e-07
0.000106143
4.63334e-07
0.000106178
4.76545e-07
0.000106216
4.88568e-07
0.000106257
4.9936e-07
0.000106303
5.0877e-07
0.000106352
5.1654e-07
0.000106407
5.22299e-07
0.000106467
5.25564e-07
0.000106532
5.25742e-07
0.000106604
5.22133e-07
0.000106683
5.13944e-07
0.000106768
5.00303e-07
0.00010686
4.8028e-07
0.000106959
4.52928e-07
0.000107063
4.17319e-07
0.000107172
3.72597e-07
0.000107284
3.18022e-07
0.000107399
2.5307e-07
0.000107512
1.7732e-07
9.12799e-08
0.000107623
0.000108896
3.26345e-08
0.000108902
9.28561e-08
0.000108912
1.46281e-07
0.000108925
1.93151e-07
0.000108941
2.34006e-07
0.000108959
2.69478e-07
0.00010898
3.00219e-07
0.000109002
3.26871e-07
0.000109026
3.50039e-07
0.000109052
3.70259e-07
0.000109079
3.8799e-07
0.000109109
4.03606e-07
0.00010914
4.17394e-07
0.000109174
4.29549e-07
0.00010921
4.4018e-07
0.000109249
4.49299e-07
0.000109292
4.56828e-07
0.000109338
4.62592e-07
0.000109388
4.66319e-07
0.000109443
4.67645e-07
0.000109502
4.66116e-07
0.000109567
4.6119e-07
0.000109637
4.52255e-07
0.000109712
4.38635e-07
0.000109793
4.19613e-07
0.000109879
3.94462e-07
0.000109969
3.62469e-07
0.000110064
3.22977e-07
0.000110161
2.75423e-07
0.000110259
2.19376e-07
0.000110358
1.54619e-07
0.000110454
8.10386e-08
-6.85393e-10
0.000110546
0.000112007
3.04717e-08
0.000112013
8.65722e-08
0.000112023
1.36292e-07
0.000112036
1.79914e-07
0.000112052
2.1794e-07
0.000112071
2.50936e-07
0.000112092
2.79476e-07
0.000112114
3.04124e-07
0.000112139
3.25402e-07
0.000112165
3.43773e-07
0.000112194
3.59629e-07
0.000112224
3.73282e-07
0.000112257
3.84962e-07
0.000112291
3.9482e-07
0.000112328
4.02922e-07
0.000112369
4.09249e-07
0.000112412
4.13699e-07
0.000112458
4.16087e-07
0.000112508
4.16147e-07
0.000112562
4.13537e-07
0.000112621
4.07846e-07
0.000112683
3.98602e-07
0.00011275
3.85285e-07
0.000112822
3.67344e-07
0.000112897
3.4422e-07
0.000112976
3.15369e-07
0.000113058
2.80289e-07
0.000113143
2.38551e-07
0.000113228
1.89833e-07
0.000113314
1.33949e-07
0.000113397
7.09069e-08
0.000113478
8.15041e-10
-7.55704e-08
0.000113553
0.000115207
2.82978e-08
0.000115213
8.02619e-08
0.000115223
1.26244e-07
0.000115236
1.66558e-07
0.000115253
2.01673e-07
0.000115271
2.32098e-07
0.000115293
2.58339e-07
0.000115316
2.80886e-07
0.000115341
3.00189e-07
0.000115368
3.16642e-07
0.000115397
3.30574e-07
0.000115428
3.42243e-07
0.000115461
3.5183e-07
0.000115497
3.59447e-07
0.000115535
3.65126e-07
0.000115575
3.68829e-07
0.000115618
3.70443e-07
0.000115665
3.69785e-07
0.000115714
3.66607e-07
0.000115767
3.60601e-07
0.000115823
3.5141e-07
0.000115883
3.38637e-07
0.000115947
3.21863e-07
0.000116014
3.00658e-07
0.000116083
2.7461e-07
0.000116155
2.43337e-07
0.000116229
2.06516e-07
0.000116304
1.63907e-07
0.000116378
1.15377e-07
0.000116451
6.09237e-08
0.000116521
7.11733e-10
0.000116587
-6.50045e-08
-1.35439e-07
0.000116647
0.000118498
2.60939e-08
0.000118504
7.38738e-08
0.000118515
1.16064e-07
0.000118528
1.53002e-07
0.000118545
1.85127e-07
0.000118564
2.12896e-07
0.000118586
2.36755e-07
0.000118609
2.57125e-07
0.000118635
2.74391e-07
0.000118663
2.88885e-07
0.000118693
3.0088e-07
0.000118724
3.10582e-07
0.000118758
3.18136e-07
0.000118794
3.23616e-07
0.000118832
3.27035e-07
0.000118872
3.28339e-07
0.000118915
3.27416e-07
0.000118961
3.24093e-07
0.000119009
3.18151e-07
0.000119061
3.09322e-07
0.000119115
2.97309e-07
0.000119172
2.81794e-07
0.000119231
2.62454e-07
0.000119293
2.38975e-07
0.000119356
2.11072e-07
0.000119421
1.78503e-07
0.000119487
1.41094e-07
0.000119552
9.87541e-08
0.000119616
5.14929e-08
0.000119677
-5.55537e-10
0.000119735
-5.7143e-08
0.000119788
-1.17904e-07
-1.82075e-07
0.000119834
0.000121884
2.38455e-08
0.00012189
6.73678e-08
0.0001219
1.05703e-07
0.000121914
1.39204e-07
0.000121931
1.68281e-07
0.000121951
1.93341e-07
0.000121973
2.14771e-07
0.000121997
2.32932e-07
0.000122023
2.48145e-07
0.000122051
2.60685e-07
0.000122081
2.70774e-07
0.000122113
2.78575e-07
0.000122147
2.84197e-07
0.000122183
2.8769e-07
0.000122221
2.89049e-07
0.000122261
2.88218e-07
0.000122304
2.85087e-07
0.000122348
2.79507e-07
0.000122395
2.71286e-07
0.000122444
2.60207e-07
0.000122495
2.46032e-07
0.000122549
2.28522e-07
0.000122604
2.07441e-07
0.00012266
1.82575e-07
0.000122718
1.53751e-07
0.000122775
1.2084e-07
0.000122832
8.37859e-08
0.000122889
4.26137e-08
0.000122943
-2.56884e-09
0.000122994
-5.15363e-08
0.00012304
-1.03973e-07
0.000123082
-1.59491e-07
-2.17368e-07
0.000123117
0.000125366
2.15309e-08
0.000125372
6.06848e-08
0.000125383
9.50692e-08
0.000125397
1.2505e-07
0.000125415
1.51006e-07
0.000125435
1.73297e-07
0.000125457
1.92257e-07
0.000125482
2.08185e-07
0.000125509
2.21347e-07
0.000125537
2.31965e-07
0.000125568
2.40214e-07
0.0001256
2.46218e-07
0.000125634
2.50056e-07
0.00012567
2.51757e-07
0.000125708
2.51307e-07
0.000125748
2.48648e-07
0.000125789
2.43684e-07
0.000125832
2.36286e-07
0.000125877
2.26298e-07
0.000125924
2.13551e-07
0.000125972
1.97867e-07
0.000126022
1.79075e-07
0.000126072
1.5702e-07
0.000126123
1.31568e-07
0.000126174
1.02646e-07
0.000126225
7.0215e-08
0.000126274
3.43051e-08
0.000126322
-4.97791e-09
0.000126367
-4.74752e-08
0.000126408
-9.28909e-08
0.000126445
-1.40878e-07
0.000126476
-1.91038e-07
-2.42714e-07
0.000126502
0.000128947
1.91461e-08
0.000128954
5.38103e-08
0.000128965
8.41612e-08
0.00012898
1.10571e-07
0.000128997
1.33378e-07
0.000129018
1.52891e-07
0.000129041
1.69387e-07
0.000129066
1.83108e-07
0.000129093
1.94266e-07
0.000129122
2.03031e-07
0.000129152
2.09537e-07
0.000129185
2.13875e-07
0.000129219
2.16098e-07
0.000129254
2.1622e-07
0.000129291
2.14221e-07
0.00012933
2.10047e-07
0.00012937
2.03619e-07
0.000129411
1.94833e-07
0.000129454
1.83569e-07
0.000129498
1.69699e-07
0.000129543
1.531e-07
0.000129588
1.33667e-07
0.000129634
1.11307e-07
0.00012968
8.59494e-08
0.000129725
5.76012e-08
0.000129769
2.62869e-08
0.000129811
-7.88582e-09
0.00012985
-4.47583e-08
0.000129887
-8.41293e-08
0.00012992
-1.25704e-07
0.000129948
-1.69124e-07
0.000129971
-2.14006e-07
-2.59766e-07
0.000129988
0.000132632
1.66373e-08
0.000132639
4.66101e-08
0.00013265
7.27658e-08
0.000132665
9.54874e-08
0.000132684
1.15073e-07
0.000132705
1.31775e-07
0.000132728
1.45811e-07
0.000132754
1.57367e-07
0.000132782
1.66597e-07
0.000132811
1.73624e-07
0.000132842
1.78538e-07
0.000132875
1.81399e-07
0.000132908
1.82235e-07
0.000132944
1.81049e-07
0.00013298
1.77815e-07
0.000133018
1.72489e-07
0.000133056
1.65008e-07
0.000133096
1.55291e-07
0.000133136
1.43252e-07
0.000133177
1.28801e-07
0.000133218
1.11861e-07
0.000133259
9.23883e-08
0.0001333
7.03417e-08
0.000133341
4.56896e-08
0.00013338
1.85353e-08
0.000133417
-1.11177e-08
0.000133452
-4.30889e-08
0.000133485
-7.71812e-08
0.000133514
-1.13164e-07
0.000133539
-1.50747e-07
0.000133559
-1.89586e-07
0.000133575
-2.29323e-07
-2.69449e-07
0.000133584
0.000136421
1.4061e-08
0.000136428
3.9189e-08
0.00013644
6.10692e-08
0.000136455
8.00754e-08
0.000136474
9.64413e-08
0.000136495
1.10353e-07
0.000136519
1.2197e-07
0.000136545
1.3142e-07
0.000136573
1.38802e-07
0.000136602
1.44195e-07
0.000136633
1.47651e-07
0.000136666
1.49202e-07
0.000136699
1.48857e-07
0.000136733
1.46607e-07
0.000136769
1.42425e-07
0.000136805
1.36276e-07
0.000136842
1.28112e-07
0.000136879
1.17874e-07
0.000136917
1.05505e-07
0.000136955
9.09447e-08
0.000136993
7.4152e-08
0.00013703
5.5148e-08
0.000137066
3.39525e-08
0.000137102
1.03779e-08
0.000137135
-1.51145e-08
0.000137167
-4.26617e-08
0.000137196
-7.20504e-08
0.000137222
-1.03085e-07
0.000137244
-1.35523e-07
0.000137262
-1.69084e-07
0.000137276
-2.0345e-07
0.000137285
-2.38303e-07
-2.73208e-07
0.000137289
0.000140319
1.11777e-08
0.000140327
3.10645e-08
0.000140339
4.83911e-08
0.000140356
6.35359e-08
0.000140376
7.66404e-08
0.000140398
8.78036e-08
0.000140423
9.71048e-08
0.00014045
1.04596e-07
0.000140479
1.10315e-07
0.000140508
1.1429e-07
0.00014054
1.16536e-07
0.000140572
1.17052e-07
0.000140605
1.15827e-07
0.000140638
1.12842e-07
0.000140673
1.08068e-07
0.000140708
1.01473e-07
0.000140743
9.30364e-08
0.000140778
8.27179e-08
0.000140813
7.04835e-08
0.000140848
5.62776e-08
0.000140882
4.01073e-08
0.000140915
2.20104e-08
0.000140946
2.38241e-09
0.000140977
-1.98172e-08
0.000141005
-4.33275e-08
0.000141031
-6.84719e-08
0.000141054
-9.50494e-08
0.000141073
-1.22859e-07
0.000141089
-1.51672e-07
0.000141102
-1.81233e-07
0.000141109
-2.11255e-07
0.000141113
-2.41455e-07
-2.71468e-07
0.000141111
0.000144327
8.40617e-09
0.000144336
2.28895e-08
0.000144348
3.55771e-08
0.000144365
4.68034e-08
0.000144385
5.66065e-08
0.000144408
6.50002e-08
0.000144433
7.19912e-08
0.00014446
7.75636e-08
0.000144489
8.16972e-08
0.000144519
8.43702e-08
0.00014455
8.55539e-08
0.000144581
8.52165e-08
0.000144614
8.33261e-08
0.000144647
7.98532e-08
0.00014468
7.47659e-08
0.000144714
6.80381e-08
0.000144747
5.9688e-08
0.00014478
4.96642e-08
0.000144813
3.79344e-08
0.000144844
2.44745e-08
0.000144875
9.23776e-09
0.000144905
-7.42924e-09
0.000144933
-2.56867e-08
0.000144959
-4.55932e-08
0.000144982
-6.68439e-08
0.000145003
-8.93453e-08
0.000145021
-1.12942e-07
0.000145035
-1.3744e-07
0.000145046
-1.6263e-07
0.000145053
-1.88286e-07
0.000145056
-2.14161e-07
0.000145055
-2.40016e-07
-2.6555e-07
0.000145049
0.000148452
4.59936e-09
0.000148462
1.2893e-08
0.000148477
2.06133e-08
0.000148496
2.79437e-08
0.000148518
3.46207e-08
0.000148542
4.05048e-08
0.000148569
4.54964e-08
0.000148597
4.94845e-08
0.000148626
5.23728e-08
0.000148656
5.40788e-08
0.000148687
5.45306e-08
0.000148719
5.36704e-08
0.000148751
5.14537e-08
0.000148783
4.78478e-08
0.000148815
4.28241e-08
0.000148846
3.6328e-08
0.000148878
2.83948e-08
0.000148908
1.90699e-08
0.000148938
8.3592e-09
0.000148966
-3.98659e-09
0.000148993
-1.78176e-08
0.000149019
-3.29105e-08
0.000149042
-4.92995e-08
0.000149064
-6.69238e-08
0.000149083
-8.56428e-08
0.000149099
-1.05324e-07
0.000149111
-1.2582e-07
0.000149121
-1.46958e-07
0.000149127
-1.68551e-07
0.000149129
-1.90403e-07
0.000149127
-2.12305e-07
0.000149121
-2.34053e-07
-2.55403e-07
0.000149111
0.000152692
1.6679e-09
0.000152701
3.45863e-09
0.000152716
5.89157e-09
0.000152735
8.94852e-09
0.000152758
1.22153e-08
0.000152783
1.54477e-08
0.00015281
1.83987e-08
0.000152838
2.08204e-08
0.000152868
2.2525e-08
0.000152899
2.33685e-08
0.00015293
2.32366e-08
0.000152962
2.20438e-08
0.000152994
1.97269e-08
0.000153025
1.62273e-08
0.000153057
1.14901e-08
0.000153088
5.37557e-09
0.000153118
-1.72123e-09
0.000153147
-9.85351e-09
0.000153174
-1.9454e-08
0.000153201
-3.0303e-08
0.000153225
-4.23399e-08
0.000153248
-5.54694e-08
0.000153268
-6.96459e-08
0.000153286
-8.4792e-08
0.000153301
-1.00792e-07
0.000153313
-1.1752e-07
0.000153322
-1.34841e-07
0.000153328
-1.52605e-07
0.00015333
-1.70652e-07
0.000153329
-1.88818e-07
0.000153323
-2.06931e-07
0.000153314
-2.24831e-07
-2.42324e-07
0.000153301
0.000157058
-4.43815e-09
0.000157071
-1.03987e-08
0.00015709
-1.31567e-08
0.000157113
-1.36579e-08
0.000157138
-1.3021e-08
0.000157165
-1.16979e-08
0.000157194
-1.01245e-08
0.000157224
-8.70121e-09
0.000157254
-7.69641e-09
0.000157284
-7.30302e-09
0.000157315
-7.66498e-09
0.000157346
-8.87474e-09
0.000157377
-1.09918e-08
0.000157407
-1.40575e-08
0.000157437
-1.81037e-08
0.000157465
-2.31836e-08
0.000157493
-2.9283e-08
0.000157519
-3.63546e-08
0.000157544
-4.44332e-08
0.000157568
-5.35196e-08
0.000157589
-6.35652e-08
0.000157608
-7.44913e-08
0.000157624
-8.62398e-08
0.000157638
-9.87341e-08
0.00015765
-1.11877e-07
0.000157658
-1.25559e-07
0.000157662
-1.39665e-07
0.000157664
-1.54067e-07
0.000157662
-1.68632e-07
0.000157656
-1.83228e-07
0.000157647
-1.97715e-07
0.000157634
-2.11966e-07
-2.2583e-07
0.000157618
0.000161541
-7.48176e-09
0.000161554
-2.2779e-08
0.000161573
-3.21088e-08
0.000161597
-3.74168e-08
0.000161624
-4.01449e-08
0.000161653
-4.10294e-08
0.000161684
-4.09057e-08
0.000161716
-4.04156e-08
0.000161748
-3.9941e-08
0.00016178
-3.97477e-08
0.000161813
-4.00291e-08
0.000161845
-4.09143e-08
0.000161876
-4.24881e-08
0.000161907
-4.48075e-08
0.000161937
-4.79118e-08
0.000161965
-5.18208e-08
0.000161993
-5.65015e-08
0.000162018
-6.19796e-08
0.000162042
-6.82653e-08
0.000162064
-7.53323e-08
0.000162083
-8.31346e-08
0.0001621
-9.1619e-08
0.000162115
-1.00728e-07
0.000162127
-1.10393e-07
0.000162135
-1.20533e-07
0.000162141
-1.3106e-07
0.000162143
-1.41878e-07
0.000162142
-1.52887e-07
0.000162137
-1.63984e-07
0.000162129
-1.75065e-07
0.000162117
-1.86026e-07
0.000162102
-1.96774e-07
-2.07195e-07
0.000162084
0.000166167
-2.05943e-08
0.000166189
-4.46662e-08
0.000166214
-5.73989e-08
0.000166241
-6.48105e-08
0.00016627
-6.91018e-08
0.0001663
-7.09649e-08
0.000166331
-7.15033e-08
0.000166362
-7.14471e-08
0.000166393
-7.11718e-08
0.000166424
-7.09485e-08
0.000166455
-7.09765e-08
0.000166486
-7.13851e-08
0.000166515
-7.22592e-08
0.000166544
-7.3656e-08
0.000166572
-7.56146e-08
0.000166598
-7.81568e-08
0.000166623
-8.12792e-08
0.000166646
-8.49844e-08
0.000166667
-8.92681e-08
0.000166686
-9.41138e-08
0.000166702
-9.94917e-08
0.000166716
-1.05362e-07
0.000166727
-1.1168e-07
0.000166735
-1.18392e-07
0.00016674
-1.25437e-07
0.000166742
-1.3275e-07
0.00016674
-1.40261e-07
0.000166735
-1.47895e-07
0.000166727
-1.55578e-07
0.000166715
-1.63235e-07
0.000166699
-1.7079e-07
0.000166681
-1.78174e-07
-1.85303e-07
0.000166659
0.000170911
-3.11311e-08
0.000170939
-7.29978e-08
0.000170973
-9.05175e-08