/*--------------------------------*- C++ -*----------------------------------*\
  =========                 |
  \\      /  F ield         | OpenFOAM: The Open Source CFD Toolbox
   \\    /   O peration     | Website:  https://openfoam.org
    \\  /    A nd           | Version:  10
     \\/     M anipulation  |
\*---------------------------------------------------------------------------*/
FoamFile
{
    format      ascii;
    class       volVectorField;
    location    "0.075";
    object      U;
}
// * * * * * * * * * * * * * * * * * * * * * * * * * * * * * * * * * * * * * //

dimensions      [0 1 -1 0 0 0 0];

internalField   nonuniform List<vector> 
6820
(
(7.28177 0.0248248 0)
(7.17816 0.0400379 0)
(7.05544 0.0449698 0)
(6.92682 0.0476074 0)
(6.79875 0.048669 0)
(6.67172 0.0488154 0)
(6.54622 0.0484915 0)
(6.42278 0.0478917 0)
(6.30154 0.0471353 0)
(6.18249 0.0463044 0)
(6.06557 0.0454525 0)
(5.95069 0.0446187 0)
(5.8377 0.0438345 0)
(5.72637 0.0431281 0)
(5.61646 0.0425271 0)
(5.50766 0.0420612 0)
(5.39957 0.0417642 0)
(5.29172 0.041677 0)
(5.18354 0.04185 0)
(5.07431 0.0423466 0)
(4.96314 0.0432477 0)
(4.84893 0.0446564 0)
(4.73032 0.0467043 0)
(4.60559 0.0495568 0)
(4.4726 0.053418 0)
(4.3287 0.0585347 0)
(4.1706 0.0651773 0)
(3.99437 0.0736757 0)
(3.79506 0.0841509 0)
(3.56803 0.0972348 0)
(3.30402 0.111207 0)
(3.00846 0.129341 0)
(2.63859 0.142926 0)
(7.35922 0.0259073 0)
(7.42097 0.0358319 0)
(7.47601 0.0376778 0)
(7.5262 0.0397534 0)
(7.57209 0.0412313 0)
(7.61257 0.0424359 0)
(7.64762 0.0436431 0)
(7.67764 0.0448602 0)
(7.70296 0.0460873 0)
(7.72388 0.0473366 0)
(7.74069 0.0486178 0)
(7.75367 0.0499434 0)
(7.76305 0.0513331 0)
(7.76903 0.0528137 0)
(7.77179 0.0544207 0)
(7.77143 0.0562008 0)
(7.76803 0.0582143 0)
(7.76162 0.0605393 0)
(7.75214 0.0632771 0)
(7.73945 0.0665586 0)
(7.72335 0.0705544 0)
(7.70345 0.0754864 0)
(7.67926 0.0816431 0)
(7.65004 0.0893994 0)
(7.61477 0.0992386 0)
(7.57206 0.111779 0)
(7.52001 0.127789 0)
(7.45604 0.148245 0)
(7.3767 0.174175 0)
(7.27709 0.207198 0)
(7.15168 0.247462 0)
(6.98907 0.299484 0)
(6.78787 0.355878 0)
(7.33541 0.00697496 0)
(7.34557 0.0102726 0)
(7.35447 0.0129311 0)
(7.36214 0.0164197 0)
(7.37043 0.0193556 0)
(7.37922 0.0219045 0)
(7.38843 0.0242915 0)
(7.3982 0.0265247 0)
(7.40852 0.0286252 0)
(7.41931 0.0306345 0)
(7.43049 0.0325893 0)
(7.442 0.0345253 0)
(7.45375 0.0364817 0)
(7.46566 0.0385026 0)
(7.47765 0.040639 0)
(7.48964 0.0429521 0)
(7.50158 0.0455168 0)
(7.5134 0.0484273 0)
(7.52504 0.0518029 0)
(7.53648 0.0557976 0)
(7.54768 0.0606109 0)
(7.55864 0.0665035 0)
(7.56938 0.0738164 0)
(7.57994 0.082997 0)
(7.59042 0.0946313 0)
(7.60098 0.109484 0)
(7.61181 0.128545 0)
(7.62319 0.153088 0)
(7.63535 0.184705 0)
(7.64846 0.225423 0)
(7.66242 0.277539 0)
(7.6756 0.344202 0)
(7.68836 0.428714 0)
(7.33493 0.00933797 0)
(7.34243 0.0202255 0)
(7.34791 0.0257628 0)
(7.35119 0.0295068 0)
(7.35399 0.0319653 0)
(7.35639 0.0336605 0)
(7.35831 0.035009 0)
(7.35996 0.0361571 0)
(7.36142 0.0371884 0)
(7.36273 0.0381743 0)
(7.36391 0.0391658 0)
(7.36499 0.0402033 0)
(7.36597 0.0413259 0)
(7.36685 0.0425745 0)
(7.36762 0.0439955 0)
(7.36826 0.0456437 0)
(7.36874 0.0475863 0)
(7.36903 0.0499078 0)
(7.36911 0.0527141 0)
(7.36893 0.0561402 0)
(7.36848 0.0603588 0)
(7.36774 0.0655924 0)
(7.36672 0.0721273 0)
(7.36551 0.0803328 0)
(7.36422 0.0906829 0)
(7.36315 0.103787 0)
(7.36272 0.120419 0)
(7.3637 0.141577 0)
(7.36717 0.168499 0)
(7.37488 0.202817 0)
(7.3892 0.246468 0)
(7.41384 0.302252 0)
(7.45321 0.372978 0)
(7.33399 0.00644462 0)
(7.33869 0.0128611 0)
(7.34324 0.015763 0)
(7.34672 0.0183967 0)
(7.34991 0.0207577 0)
(7.35275 0.0228202 0)
(7.35513 0.0247658 0)
(7.35714 0.0266372 0)
(7.35885 0.0284457 0)
(7.36028 0.0302198 0)
(7.36144 0.0319892 0)
(7.36234 0.0337846 0)
(7.36296 0.0356419 0)
(7.3633 0.0376041 0)
(7.36334 0.0397223 0)
(7.36305 0.0420582 0)
(7.3624 0.044686 0)
(7.36135 0.0476983 0)
(7.35986 0.0512121 0)
(7.35789 0.0553729 0)
(7.35539 0.0603632 0)
(7.35233 0.0664116 0)
(7.34867 0.0738043 0)
(7.34444 0.082899 0)
(7.33969 0.094139 0)
(7.33456 0.10807 0)
(7.32929 0.125354 0)
(7.32436 0.146788 0)
(7.32046 0.173292 0)
(7.31879 0.205954 0)
(7.32101 0.245915 0)
(7.33007 0.294578 0)
(7.34936 0.352724 0)
(7.33374 0.00542245 0)
(7.33769 0.013295 0)
(7.34195 0.0186231 0)
(7.34525 0.0229319 0)
(7.34811 0.0262932 0)
(7.35065 0.0288705 0)
(7.35281 0.0309827 0)
(7.35468 0.0328003 0)
(7.35632 0.0344202 0)
(7.35774 0.0359277 0)
(7.35896 0.0373922 0)
(7.35998 0.0388713 0)
(7.36079 0.040419 0)
(7.36138 0.0420907 0)
(7.36173 0.0439464 0)
(7.36182 0.0460551 0)
(7.36162 0.0485006 0)
(7.36111 0.0513774 0)
(7.36026 0.0548002 0)
(7.35904 0.0589114 0)
(7.35744 0.0638872 0)
(7.35546 0.0699456 0)
(7.3531 0.0773546 0)
(7.35043 0.0864425 0)
(7.34755 0.0976071 0)
(7.34467 0.111326 0)
(7.34208 0.128159 0)
(7.34027 0.148755 0)
(7.33994 0.173829 0)
(7.34215 0.204162 0)
(7.34828 0.240474 0)
(7.3606 0.28348 0)
(7.38135 0.333085 0)
(7.33345 0.00453607 0)
(7.33617 0.011303 0)
(7.33949 0.0155153 0)
(7.34232 0.0186514 0)
(7.34492 0.0211716 0)
(7.34735 0.023256 0)
(7.34953 0.0251273 0)
(7.35146 0.026893 0)
(7.35319 0.0285993 0)
(7.35473 0.0302903 0)
(7.35608 0.0320068 0)
(7.35723 0.0337866 0)
(7.3582 0.0356706 0)
(7.35897 0.0377053 0)
(7.35953 0.0399451 0)
(7.35988 0.042453 0)
(7.36 0.0452954 0)
(7.35988 0.0485739 0)
(7.35951 0.0524079 0)
(7.35889 0.0569382 0)
(7.35803 0.0623344 0)
(7.35698 0.0688022 0)
(7.35579 0.0765893 0)
(7.35457 0.0859909 0)
(7.35351 0.0973542 0)
(7.35287 0.111081 0)
(7.35304 0.127622 0)
(7.35459 0.147467 0)
(7.35828 0.171119 0)
(7.36523 0.19905 0)
(7.37673 0.231597 0)
(7.39492 0.268926 0)
(7.42143 0.310431 0)
(7.33331 0.00388195 0)
(7.33544 0.0103242 0)
(7.33837 0.0150634 0)
(7.34109 0.0189748 0)
(7.34359 0.0222933 0)
(7.34591 0.0250657 0)
(7.34798 0.0274507 0)
(7.34983 0.0295715 0)
(7.35148 0.0315068 0)
(7.35295 0.0333284 0)
(7.35426 0.0351018 0)
(7.3554 0.0368856 0)
(7.35639 0.0387367 0)
(7.35722 0.0407141 0)
(7.35788 0.0428814 0)
(7.35838 0.0453127 0)
(7.3587 0.0481066 0)
(7.35886 0.0513473 0)
(7.35885 0.0551408 0)
(7.35871 0.0596192 0)
(7.35847 0.0649409 0)
(7.35819 0.071293 0)
(7.35797 0.0788941 0)
(7.35796 0.0879969 0)
(7.35838 0.0988874 0)
(7.35955 0.111881 0)
(7.36189 0.127314 0)
(7.366 0.145519 0)
(7.37264 0.166795 0)
(7.38287 0.191357 0)
(7.39789 0.219227 0)
(7.41954 0.250196 0)
(7.44905 0.28335 0)
(7.33321 0.00340908 0)
(7.33481 0.00934114 0)
(7.3372 0.0138022 0)
(7.33953 0.0173215 0)
(7.34173 0.0201994 0)
(7.34384 0.0225756 0)
(7.3458 0.0246346 0)
(7.3476 0.0265123 0)
(7.34925 0.0282879 0)
(7.35077 0.0300241 0)
(7.35215 0.031776 0)
(7.3534 0.0335926 0)
(7.35452 0.0355222 0)
(7.35551 0.0376163 0)
(7.35637 0.0399317 0)
(7.35711 0.04253 0)
(7.35772 0.0454763 0)
(7.35824 0.0488662 0)
(7.35867 0.0528078 0)
(7.35906 0.0574234 0)
(7.35948 0.0628536 0)
(7.36 0.0692606 0)
(7.36075 0.076829 0)
(7.36191 0.0857643 0)
(7.36373 0.096289 0)
(7.36654 0.108634 0)
(7.37078 0.123023 0)
(7.37702 0.139647 0)
(7.38599 0.158627 0)
(7.39863 0.179965 0)
(7.41595 0.20344 0)
(7.43945 0.228585 0)
(7.46995 0.254342 0)
(7.33315 0.00304206 0)
(7.3344 0.00854204 0)
(7.33644 0.012945 0)
(7.33857 0.0165922 0)
(7.34066 0.0197298 0)
(7.34269 0.0224453 0)
(7.34461 0.0248498 0)
(7.34638 0.0270402 0)
(7.34802 0.0290832 0)
(7.34954 0.0310379 0)
(7.35093 0.0329611 0)
(7.35222 0.0349068 0)
(7.3534 0.036929 0)
(7.35449 0.0390846 0)
(7.35548 0.0414356 0)
(7.3564 0.0440509 0)
(7.35726 0.047008 0)
(7.35809 0.0503896 0)
(7.35891 0.0542898 0)
(7.35979 0.0588167 0)
(7.36081 0.0640932 0)
(7.36205 0.0702569 0)
(7.36368 0.0774581 0)
(7.36589 0.0858559 0)
(7.36893 0.0956114 0)
(7.37314 0.106876 0)
(7.37894 0.119773 0)
(7.38687 0.134374 0)
(7.39758 0.150656 0)
(7.41187 0.168464 0)
(7.43056 0.187424 0)
(7.4548 0.206922 0)
(7.4851 0.225897 0)
(7.33311 0.00275677 0)
(7.3341 0.00786319 0)
(7.33581 0.0120945 0)
(7.33769 0.0156134 0)
(7.33956 0.0186064 0)
(7.34142 0.021165 0)
(7.34321 0.0234033 0)
(7.3449 0.0254307 0)
(7.34651 0.0273277 0)
(7.34803 0.0291607 0)
(7.34947 0.0309893 0)
(7.35083 0.0328674 0)
(7.35212 0.0348468 0)
(7.35335 0.0369801 0)
(7.35453 0.0393224 0)
(7.35567 0.0419336 0)
(7.35681 0.0448797 0)
(7.35798 0.0482362 0)
(7.35922 0.052088 0)
(7.36061 0.0565288 0)
(7.36222 0.0616607 0)
(7.36418 0.067593 0)
(7.36664 0.0744388 0)
(7.3698 0.08231 0)
(7.37391 0.0913083 0)
(7.37931 0.101512 0)
(7.38639 0.112959 0)
(7.39562 0.125619 0)
(7.40756 0.139363 0)
(7.42285 0.153925 0)
(7.44214 0.168841 0)
(7.46626 0.183433 0)
(7.49546 0.19671 0)
(7.33308 0.00252719 0)
(7.33388 0.00728106 0)
(7.33534 0.0113469 0)
(7.33703 0.0148076 0)
(7.33877 0.0178177 0)
(7.34054 0.0204629 0)
(7.34228 0.0228321 0)
(7.34396 0.0250107 0)
(7.34557 0.0270636 0)
(7.34712 0.0290459 0)
(7.34861 0.0310093 0)
(7.35004 0.0330035 0)
(7.35142 0.0350778 0)
(7.35278 0.037283 0)
(7.35412 0.0396728 0)
(7.35547 0.0423044 0)
(7.35686 0.0452398 0)
(7.35834 0.0485462 0)
(7.35995 0.0522962 0)
(7.36178 0.0565675 0)
(7.36392 0.0614411 0)
(7.36649 0.0669992 0)
(7.36966 0.073321 0)
(7.37361 0.0804757 0)
(7.3786 0.0885133 0)
(7.38492 0.0974516 0)
(7.39292 0.107258 0)
(7.40302 0.11783 0)
(7.41566 0.128963 0)
(7.43137 0.140329 0)
(7.45058 0.15143 0)
(7.47389 0.161586 0)
(7.50134 0.169922 0)
(7.33307 0.00233783 0)
(7.33372 0.00677842 0)
(7.33498 0.0106659 0)
(7.33648 0.0140224 0)
(7.33808 0.016956 0)
(7.33973 0.0195367 0)
(7.34137 0.0218389 0)
(7.34299 0.0239416 0)
(7.34457 0.0259121 0)
(7.34612 0.0278093 0)
(7.34764 0.0296878 0)
(7.34913 0.0315991 0)
(7.35061 0.0335919 0)
(7.35209 0.035715 0)
(7.35359 0.0380178 0)
(7.35515 0.0405519 0)
(7.3568 0.0433711 0)
(7.35858 0.0465328 0)
(7.36056 0.0500963 0)
(7.36281 0.0541222 0)
(7.36544 0.0586702 0)
(7.36856 0.063796 0)
(7.37235 0.0695459 0)
(7.37697 0.0759503 0)
(7.38266 0.0830142 0)
(7.38968 0.0907048 0)
(7.39833 0.0989363 0)
(7.40895 0.107553 0)
(7.4219 0.116305 0)
(7.43755 0.124836 0)
(7.4562 0.13265 0)
(7.47822 0.139104 0)
(7.50353 0.143459 0)
(7.33305 0.00217765 0)
(7.33361 0.00633773 0)
(7.33469 0.0100458 0)
(7.33605 0.0132962 0)
(7.33753 0.0161706 0)
(7.33909 0.0187328 0)
(7.34069 0.0210485 0)
(7.34229 0.0231864 0)
(7.34388 0.0252062 0)
(7.34545 0.0271593 0)
(7.34702 0.0290936 0)
(7.34859 0.0310542 0)
(7.35017 0.0330844 0)
(7.35179 0.0352275 0)
(7.35345 0.0375273 0)
(7.35521 0.0400284 0)
(7.35709 0.0427769 0)
(7.35914 0.0458195 0)
(7.36144 0.0492025 0)
(7.36406 0.0529701 0)
(7.3671 0.057162 0)
(7.37068 0.0618098 0)
(7.37495 0.0669315 0)
(7.38007 0.072525 0)
(7.38626 0.0785593 0)
(7.39373 0.0849641 0)
(7.40274 0.0916172 0)
(7.41354 0.0983311 0)
(7.4264 0.104838 0)
(7.44159 0.110778 0)
(7.45928 0.115688 0)
(7.47966 0.11899 0)
(7.50258 0.120082 0)
(7.33305 0.00203883 0)
(7.33352 0.00594628 0)
(7.33447 0.00947654 0)
(7.33571 0.0126092 0)
(7.33708 0.015401 0)
(7.33855 0.0179033 0)
(7.34009 0.02017 0)
(7.34164 0.0222594 0)
(7.34322 0.024226 0)
(7.3448 0.0261187 0)
(7.3464 0.0279837 0)
(7.34803 0.0298649 0)
(7.34969 0.0318039 0)
(7.35141 0.0338413 0)
(7.35322 0.0360168 0)
(7.35515 0.0383695 0)
(7.35724 0.0409374 0)
(7.35954 0.0437571 0)
(7.36212 0.0468625 0)
(7.36506 0.0502823 0)
(7.36844 0.0540381 0)
(7.3724 0.0581398 0)
(7.37705 0.0625813 0)
(7.38255 0.0673339 0)
(7.38906 0.0723391 0)
(7.39679 0.0775 0)
(7.40591 0.0826713 0)
(7.41663 0.087651 0)
(7.42914 0.0921691 0)
(7.44358 0.0958848 0)
(7.46005 0.0983804 0)
(7.47863 0.0991558 0)
(7.49908 0.0977328 0)
(7.33304 0.00191585 0)
(7.33345 0.00559328 0)
(7.3343 0.008949 0)
(7.33543 0.0119581 0)
(7.33671 0.014661 0)
(7.33812 0.0171019 0)
(7.3396 0.0193281 0)
(7.34114 0.0213913 0)
(7.34271 0.0233405 0)
(7.34432 0.0252205 0)
(7.34597 0.0270727 0)
(7.34766 0.0289358 0)
(7.34942 0.0308461 0)
(7.35126 0.0328384 0)
(7.35321 0.0349455 0)
(7.3553 0.0371988 0)
(7.35758 0.0396275 0)
(7.3601 0.0422576 0)
(7.36292 0.0451104 0)
(7.36611 0.0482005 0)
(7.36977 0.0515328 0)
(7.374 0.0550994 0)
(7.37891 0.0588744 0)
(7.38463 0.0628092 0)
(7.3913 0.0668263 0)
(7.39908 0.0708125 0)
(7.4081 0.0746127 0)
(7.41851 0.0780237 0)
(7.43041 0.0807893 0)
(7.44389 0.0825994 0)
(7.45896 0.0830927 0)
(7.47562 0.0818499 0)
(7.4936 0.0785065 0)
(7.33303 0.00180464 0)
(7.3334 0.00527009 0)
(7.33417 0.00845527 0)
(7.33521 0.0113357 0)
(7.33642 0.0139398 0)
(7.33776 0.0163036 0)
(7.3392 0.0184667 0)
(7.34071 0.0204727 0)
(7.34227 0.0223644 0)
(7.3439 0.0241817 0)
(7.34558 0.0259618 0)
(7.34732 0.0277399 0)
(7.34915 0.0295486 0)
(7.35108 0.0314183 0)
(7.35315 0.0333769 0)
(7.35537 0.0354498 0)
(7.35781 0.0376587 0)
(7.36049 0.0400206 0)
(7.3635 0.0425463 0)
(7.36689 0.0452385 0)
(7.37074 0.0480888 0)
(7.37515 0.0510748 0)
(7.38022 0.0541562 0)
(7.38604 0.0572707 0)
(7.39273 0.060329 0)
(7.4004 0.0632109 0)
(7.40915 0.0657605 0)
(7.41906 0.0677839 0)
(7.4302 0.0690468 0)
(7.44259 0.0692775 0)
(7.45619 0.0681722 0)
(7.47092 0.0653895 0)
(7.48655 0.0606617 0)
(7.33303 0.00170214 0)
(7.33337 0.0049697 0)
(7.33407 0.00798822 0)
(7.33503 0.0107363 0)
(7.33618 0.0132344 0)
(7.33747 0.0155126 0)
(7.33887 0.017605 0)
(7.34036 0.0195496 0)
(7.34193 0.0213845 0)
(7.34357 0.0231454 0)
(7.34528 0.0248656 0)
(7.34709 0.0265757 0)
(7.34899 0.0283037 0)
(7.35101 0.0300745 0)
(7.35317 0.0319101 0)
(7.35552 0.0338286 0)
(7.35808 0.0358439 0)
(7.36091 0.037964 0)
(7.36406 0.04019 0)
(7.36759 0.0425138 0)
(7.37157 0.0449159 0)
(7.37607 0.0473629 0)
(7.38119 0.0498042 0)
(7.38699 0.052169 0)
(7.39356 0.054363 0)
(7.40099 0.0562657 0)
(7.40932 0.0577283 0)
(7.41862 0.058573 0)
(7.42888 0.0585937 0)
(7.44009 0.0575593 0)
(7.45219 0.0552228 0)
(7.46504 0.0513146 0)
(7.47843 0.0456485 0)
(7.33303 0.001606 0)
(7.33334 0.00468637 0)
(7.33399 0.00754157 0)
(7.33489 0.0101542 0)
(7.33598 0.0125396 0)
(7.33723 0.0147225 0)
(7.3386 0.0167318 0)
(7.34008 0.0185998 0)
(7.34164 0.0203591 0)
(7.34329 0.0220407 0)
(7.34504 0.0236732 0)
(7.34688 0.0252828 0)
(7.34883 0.0268928 0)
(7.35092 0.0285235 0)
(7.35316 0.0301914 0)
(7.35559 0.0319091 0)
(7.35825 0.0336837 0)
(7.36117 0.0355164 0)
(7.36441 0.0374005 0)
(7.36801 0.03932 0)
(7.37204 0.0412476 0)
(7.37656 0.0431426 0)
(7.38164 0.0449485 0)
(7.38732 0.0465914 0)
(7.39367 0.0479771 0)
(7.40074 0.0489908 0)
(7.40856 0.0494957 0)
(7.41714 0.0493347 0)
(7.42646 0.0483315 0)
(7.43648 0.0462957 0)
(7.4471 0.043033 0)
(7.45818 0.0383371 0)
(7.46952 0.0320855 0)
(7.33303 0.00151438 0)
(7.33331 0.00441537 0)
(7.33392 0.00710979 0)
(7.33478 0.00958442 0)
(7.33583 0.0118512 0)
(7.33704 0.013931 0)
(7.33839 0.0158484 0)
(7.33985 0.0176311 0)
(7.34141 0.0193073 0)
(7.34307 0.0209038 0)
(7.34484 0.0224455 0)
(7.34672 0.0239543 0)
(7.34872 0.0254493 0)
(7.35086 0.0269461 0)
(7.35316 0.0284561 0)
(7.35566 0.0299862 0)
(7.35838 0.0315376 0)
(7.36136 0.033105 0)
(7.36464 0.0346754 0)
(7.36827 0.0362263 0)
(7.37229 0.0377249 0)
(7.37676 0.0391259 0)
(7.38171 0.0403705 0)
(7.38719 0.0413847 0)
(7.39323 0.042079 0)
(7.39987 0.0423474 0)
(7.40709 0.0420686 0)
(7.41491 0.0411075 0)
(7.42326 0.0393182 0)
(7.4321 0.0365495 0)
(7.4413 0.0326533 0)
(7.45074 0.027477 0)
(7.46022 0.0209471 0)
(7.33303 0.0014258 0)
(7.3333 0.00415279 0)
(7.33388 0.00668802 0)
(7.3347 0.00902214 0)
(7.33571 0.0111651 0)
(7.33689 0.0131343 0)
(7.33822 0.0149507 0)
(7.33966 0.0166377 0)
(7.34122 0.018219 0)
(7.3429 0.0197172 0)
(7.34468 0.0211527 0)
(7.34658 0.0225434 0)
(7.34861 0.0239041 0)
(7.35078 0.0252457 0)
(7.35312 0.0265753 0)
(7.35565 0.0278949 0)
(7.3584 0.029201 0)
(7.3614 0.0304836 0)
(7.36468 0.0317249 0)
(7.36828 0.0328987 0)
(7.37223 0.0339692 0)
(7.37657 0.0348896 0)
(7.38134 0.0356018 0)
(7.38654 0.0360356 0)
(7.39222 0.0361087 0)
(7.39835 0.0357269 0)
(7.40495 0.0347857 0)
(7.41197 0.033173 0)
(7.41937 0.0307724 0)
(7.42706 0.027467 0)
(7.43494 0.0231478 0)
(7.44288 0.0177071 0)
(7.45071 0.0111093 0)
(7.33302 0.00133903 0)
(7.33328 0.00389533 0)
(7.33384 0.00627209 0)
(7.33463 0.00846334 0)
(7.33562 0.0104778 0)
(7.33678 0.0123304 0)
(7.33808 0.0140389 0)
(7.33952 0.015623 0)
(7.34107 0.0171028 0)
(7.34275 0.0184971 0)
(7.34454 0.0198228 0)
(7.34645 0.0210939 0)
(7.3485 0.0223214 0)
(7.35069 0.0235125 0)
(7.35305 0.0246704 0)
(7.35559 0.025793 0)
(7.35834 0.026873 0)
(7.36132 0.0278965 0)
(7.36455 0.0288427 0)
(7.36808 0.029683 0)
(7.37191 0.0303803 0)
(7.37608 0.0308884 0)
(7.3806 0.0311519 0)
(7.38549 0.0311063 0)
(7.39074 0.030678 0)
(7.39635 0.0297857 0)
(7.40229 0.0283425 0)
(7.40853 0.026258 0)
(7.41499 0.0234418 0)
(7.42161 0.0198068 0)
(7.42827 0.0152769 0)
(7.43486 0.00978023 0)
(7.44124 0.00330895 0)
(7.33302 0.00125307 0)
(7.33328 0.0036402 0)
(7.33381 0.00585823 0)
(7.33459 0.00790399 0)
(7.33555 0.00978541 0)
(7.33669 0.0115152 0)
(7.33798 0.0131082 0)
(7.3394 0.0145809 0)
(7.34095 0.0159496 0)
(7.34263 0.0172296 0)
(7.34442 0.0184338 0)
(7.34634 0.0195731 0)
(7.34839 0.0206546 0)
(7.35059 0.0216823 0)
(7.35294 0.0226558 0)
(7.35546 0.02357 0)
(7.35818 0.0244147 0)
(7.36111 0.0251737 0)
(7.36427 0.0258245 0)
(7.36768 0.026338 0)
(7.37135 0.0266776 0)
(7.3753 0.0267998 0)
(7.37954 0.0266539 0)
(7.38407 0.0261821 0)
(7.38887 0.0253213 0)
(7.39394 0.0240036 0)
(7.39922 0.0221591 0)
(7.40469 0.0197171 0)
(7.41027 0.0166101 0)
(7.41589 0.0127766 0)
(7.42146 0.00816686 0)
(7.42685 0.00273704 0)
(7.43196 -0.00350089 0)
(7.33302 0.00116703 0)
(7.33327 0.00338504 0)
(7.3338 0.00544341 0)
(7.33455 0.00734137 0)
(7.3355 0.00908647 0)
(7.33662 0.0106898 0)
(7.33789 0.012164 0)
(7.33931 0.0135228 0)
(7.34085 0.0147793 0)
(7.34252 0.0159457 0)
(7.34431 0.0170321 0)
(7.34622 0.0180459 0)
(7.34826 0.0189914 0)
(7.35043 0.0198696 0)
(7.35276 0.0206773 0)
(7.35524 0.0214071 0)
(7.3579 0.0220466 0)
(7.36075 0.0225784 0)
(7.36379 0.0229792 0)
(7.36705 0.0232203 0)
(7.37053 0.0232672 0)
(7.37423 0.0230798 0)
(7.37816 0.0226126 0)
(7.3823 0.0218158 0)
(7.38665 0.0206365 0)
(7.39116 0.0190199 0)
(7.39581 0.0169107 0)
(7.40055 0.014256 0)
(7.40531 0.0110075 0)
(7.41003 0.00712445 0)
(7.41461 0.00257748 0)
(7.41896 -0.00265611 0)
(7.42299 -0.00855178 0)
(7.33302 0.00108017 0)
(7.33327 0.00312766 0)
(7.33378 0.00502424 0)
(7.33453 0.00677093 0)
(7.33546 0.00837472 0)
(7.33657 0.00984494 0)
(7.33784 0.011192 0)
(7.33924 0.0124267 0)
(7.34078 0.0135593 0)
(7.34244 0.0145991 0)
(7.34421 0.0155532 0)
(7.34611 0.0164264 0)
(7.34813 0.0172206 0)
(7.35028 0.0179343 0)
(7.35256 0.0185626 0)
(7.35499 0.0190964 0)
(7.35757 0.0195224 0)
(7.36032 0.0198228 0)
(7.36323 0.0199751 0)
(7.36631 0.0199523 0)
(7.36957 0.0197226 0)
(7.37301 0.0192504 0)
(7.3766 0.0184968 0)
(7.38036 0.0174201 0)
(7.38424 0.0159773 0)
(7.38822 0.0141254 0)
(7.39226 0.0118229 0)
(7.39631 0.00903195 0)
(7.40032 0.00572049 0)
(7.40422 0.00186389 0)
(7.40793 -0.00255085 0)
(7.41138 -0.00753114 0)
(7.41448 -0.0130451 0)
(7.33302 0.000991828 0)
(7.33326 0.00286644 0)
(7.33378 0.0045993 0)
(7.33451 0.00619335 0)
(7.33544 0.00765558 0)
(7.33654 0.00899438 0)
(7.33779 0.0102185 0)
(7.33918 0.0113366 0)
(7.3407 0.0123565 0)
(7.34234 0.0132847 0)
(7.34409 0.0141259 0)
(7.34596 0.0148822 0)
(7.34794 0.0155531 0)
(7.35004 0.0161352 0)
(7.35227 0.0166217 0)
(7.35461 0.0170025 0)
(7.35709 0.0172637 0)
(7.35971 0.0173876 0)
(7.36246 0.0173528 0)
(7.36534 0.0171342 0)
(7.36836 0.0167036 0)
(7.37151 0.0160302 0)
(7.37477 0.0150812 0)
(7.37813 0.0138225 0)
(7.38156 0.0122205 0)
(7.38502 0.0102422 0)
(7.38849 0.00785787 0)
(7.39192 0.00504192 0)
(7.39525 0.00177459 0)
(7.39842 -0.00195606 0)
(7.40138 -0.00615153 0)
(7.40406 -0.0108085 0)
(7.40639 -0.0158914 0)
(7.33302 0.000901274 0)
(7.33326 0.00259879 0)
(7.33377 0.00416308 0)
(7.33451 0.00559792 0)
(7.33543 0.00690938 0)
(7.33653 0.00810413 0)
(7.33778 0.00918896 0)
(7.33916 0.0101703 0)
(7.34067 0.011054 0)
(7.3423 0.0118444 0)
(7.34403 0.0125443 0)
(7.34587 0.0131542 0)
(7.34781 0.0136724 0)
(7.34986 0.0140943 0)
(7.35202 0.0144125 0)
(7.35428 0.0146169 0)
(7.35664 0.0146938 0)
(7.35912 0.0146268 0)
(7.3617 0.0143964 0)
(7.36438 0.0139804 0)
(7.36716 0.0133547 0)
(7.37001 0.0124935 0)
(7.37294 0.0113698 0)
(7.37591 0.00995688 0)
(7.37891 0.00822939 0)
(7.38189 0.00616359 0)
(7.38483 0.00373967 0)
(7.38768 0.000942343 0)
(7.3904 -0.00223834 0)
(7.39293 -0.00580577 0)
(7.39523 -0.00975393 0)
(7.39725 -0.0140717 0)
(7.39893 -0.0187227 0)
(7.33302 0.000808049 0)
(7.33326 0.00232482 0)
(7.33377 0.00372003 0)
(7.33451 0.00499975 0)
(7.33542 0.00617037 0)
(7.33651 0.00723778 0)
(7.33774 0.00820715 0)
(7.33911 0.00908277 0)
(7.34059 0.00986785 0)
(7.34219 0.0105643 0)
(7.34388 0.0111722 0)
(7.34568 0.01169 0)
(7.34756 0.0121139 0)
(7.34954 0.0124379 0)
(7.3516 0.0126538 0)
(7.35376 0.012751 0)
(7.35599 0.0127163 0)
(7.35831 0.0125344 0)
(7.36071 0.0121877 0)
(7.36317 0.011657 0)
(7.36569 0.0109218 0)
(7.36826 0.00996101 0)
(7.37086 0.00875335 0)
(7.37346 0.00727792 0)
(7.37604 0.00551697 0)
(7.37858 0.00345341 0)
(7.38104 0.00107466 0)
(7.38338 -0.00162616 0)
(7.38557 -0.0046509 0)
(7.38755 -0.00799654 0)
(7.3893 -0.0116521 0)
(7.39077 -0.0156024 0)
(7.39192 -0.0198121 0)
(7.33302 0.000710885 0)
(7.33327 0.00203758 0)
(7.33379 0.00325073 0)
(7.33453 0.0043562 0)
(7.33546 0.00535893 0)
(7.33655 0.00626341 0)
(7.33779 0.00707375 0)
(7.33916 0.00779323 0)
(7.34064 0.00842418 0)
(7.34222 0.00896768 0)
(7.34389 0.00942323 0)
(7.34565 0.00978859 0)
(7.34748 0.0100597 0)
(7.34939 0.0102307 0)
(7.35137 0.0102934 0)
(7.35341 0.0102381 0)
(7.35552 0.0100529 0)
(7.35768 0.00972426 0)
(7.35989 0.00923696 0)
(7.36214 0.00857471 0)
(7.36441 0.00772069 0)
(7.3667 0.00665856 0)
(7.36898 0.00537203 0)
(7.37123 0.00384439 0)
(7.37343 0.00206626 0)
(7.37555 2.73865e-05 0)
(7.37757 -0.00228057 0)
(7.37944 -0.0048604 0)
(7.38115 -0.00770903 0)
(7.38266 -0.0108184 0)
(7.38392 -0.0141745 0)
(7.38492 -0.0177604 0)
(7.38562 -0.021543 0)
(7.33302 0.000610304 0)
(7.33327 0.00174672 0)
(7.33379 0.00279006 0)
(7.33453 0.00374924 0)
(7.33545 0.0046284 0)
(7.33653 0.00542949 0)
(7.33775 0.00615326 0)
(7.33909 0.00679937 0)
(7.34054 0.00736662 0)
(7.34208 0.00785289 0)
(7.3437 0.00825499 0)
(7.3454 0.00856853 0)
(7.34716 0.00878786 0)
(7.34899 0.00890603 0)
(7.35087 0.00891477 0)
(7.35279 0.00880469 0)
(7.35476 0.00856517 0)
(7.35676 0.00818434 0)
(7.35878 0.00764922 0)
(7.36082 0.00694625 0)
(7.36285 0.00606191 0)
(7.36487 0.00498466 0)
(7.36685 0.00370271 0)
(7.36878 0.00220041 0)
(7.37065 0.000472808 0)
(7.3724 -0.00148204 0)
(7.37404 -0.00366601 0)
(7.37552 -0.00607852 0)
(7.37682 -0.00871388 0)
(7.37792 -0.0115617 0)
(7.3788 -0.0146068 0)
(7.37942 -0.0178316 0)
(7.37977 -0.0212059 0)
(7.33303 0.000501194 0)
(7.33329 0.00141882 0)
(7.33384 0.00224623 0)
(7.33462 0.00299286 0)
(7.33558 0.00366301 0)
(7.33669 0.00425988 0)
(7.33793 0.00478576 0)
(7.33928 0.00524131 0)
(7.34073 0.00562586 0)
(7.34226 0.0059375 0)
(7.34386 0.00617317 0)
(7.34551 0.00632853 0)
(7.34722 0.00639809 0)
(7.34897 0.00637519 0)
(7.35075 0.00625213 0)
(7.35256 0.00602035 0)
(7.35438 0.0056705 0)
(7.35622 0.00519153 0)
(7.35806 0.00457273 0)
(7.35988 0.00380286 0)
(7.36168 0.00287057 0)
(7.36344 0.00177015 0)
(7.36514 0.000489943 0)
(7.36676 -0.000969978 0)
(7.36829 -0.002624 0)
(7.3697 -0.00447302 0)
(7.37099 -0.0065138 0)
(7.37211 -0.00874176 0)
(7.37305 -0.0111491 0)
(7.3738 -0.0137246 0)
(7.37433 -0.016453 0)
(7.37462 -0.0193174 0)
(7.37466 -0.0222916 0)
(7.33302 0.000392372 0)
(7.33328 0.00112207 0)
(7.33382 0.00180635 0)
(7.33458 0.00245194 0)
(7.33552 0.00305441 0)
(7.33662 0.00360842 0)
(7.33784 0.00410873 0)
(7.33917 0.00454976 0)
(7.34058 0.00492625 0)
(7.34207 0.00523318 0)
(7.34362 0.00546516 0)
(7.34522 0.00561631 0)
(7.34686 0.0056803 0)
(7.34852 0.00565039 0)
(7.35021 0.00551929 0)
(7.35191 0.00527891 0)
(7.35361 0.00492195 0)
(7.3553 0.00444129 0)
(7.35697 0.00382917 0)
(7.3586 0.00307171 0)
(7.3602 0.00216551 0)
(7.36174 0.00110047 0)
(7.3632 -0.00012628 0)
(7.36458 -0.00150975 0)
(7.36583 -0.00305704 0)
(7.36696 -0.00476952 0)
(7.36795 -0.00664376 0)
(7.36878 -0.00867345 0)
(7.36944 -0.0108499 0)
(7.3699 -0.0131614 0)
(7.37016 -0.0155936 0)
(7.3702 -0.0181307 0)
(7.37001 -0.0207496 0)
(7.33304 0.000252511 0)
(7.33336 0.000679956 0)
(7.33399 0.0010525 0)
(7.33484 0.00138983 0)
(7.33586 0.00169491 0)
(7.33701 0.00196805 0)
(7.33827 0.00220796 0)
(7.33963 0.00241113 0)
(7.34105 0.00257274 0)
(7.34252 0.00268693 0)
(7.34404 0.00274699 0)
(7.34559 0.00274579 0)
(7.34716 0.002676 0)
(7.34874 0.00253032 0)
(7.35032 0.00230084 0)
(7.35189 0.00198042 0)
(7.35345 0.00156886 0)
(7.35498 0.00105443 0)
(7.35647 0.000423322 0)
(7.35791 -0.000323748 0)
(7.35928 -0.00119364 0)
(7.36058 -0.00219897 0)
(7.3618 -0.00333874 0)
(7.36292 -0.00461903 0)
(7.36391 -0.00603409 0)
(7.36477 -0.00758226 0)
(7.36549 -0.00925986 0)
(7.36605 -0.0110604 0)
(7.36643 -0.0129753 0)
(7.36663 -0.0149941 0)
(7.36664 -0.0171039 0)
(7.36645 -0.0192908 0)
(7.36606 -0.0215358 0)
(7.33302 0.0001495 0)
(7.33329 0.000451761 0)
(7.33388 0.000790251 0)
(7.33471 0.00114893 0)
(7.33571 0.00150218 0)
(7.33686 0.00183605 0)
(7.33811 0.00213986 0)
(7.33946 0.0024032 0)
(7.34087 0.00261742 0)
(7.34232 0.00277515 0)
(7.34382 0.00286988 0)
(7.34533 0.00289594 0)
(7.34685 0.0028483 0)
(7.34838 0.00272195 0)
(7.34989 0.00251232 0)
(7.35139 0.00221384 0)
(7.35286 0.00181336 0)
(7.35428 0.00130913 0)
(7.35564 0.000701261 0)
(7.35695 -9.54371e-06 0)
(7.35817 -0.000831508 0)
(7.35931 -0.00176553 0)
(7.36034 -0.0028151 0)
(7.36126 -0.00398265 0)
(7.36206 -0.00526525 0)
(7.36272 -0.00665968 0)
(7.36323 -0.00816119 0)
(7.36359 -0.00976307 0)
(7.36378 -0.011457 0)
(7.36379 -0.013233 0)
(7.36363 -0.0150797 0)
(7.36328 -0.0169848 0)
(7.36274 -0.0189325 0)
(7.33306 -8.15978e-05 0)
(7.33351 -0.000299922 0)
(7.33431 -0.000492919 0)
(7.33531 -0.00063147 0)
(7.33643 -0.000722004 0)
(7.33766 -0.000772676 0)
(7.33897 -0.000795933 0)
(7.34033 -0.000806664 0)
(7.34172 -0.000818287 0)
(7.34315 -0.000842796 0)
(7.34459 -0.000891428 0)
(7.34603 -0.000974552 0)
(7.34748 -0.00110161 0)
(7.3489 -0.00128105 0)
(7.35031 -0.00151968 0)
(7.35166 -0.00182402 0)
(7.35297 -0.00220811 0)
(7.35424 -0.00267295 0)
(7.35545 -0.00321666 0)
(7.35657 -0.00384973 0)
(7.35761 -0.00457349 0)
(7.35856 -0.00538707 0)
(7.35939 -0.00629255 0)
(7.36011 -0.0072899 0)
(7.3607 -0.00837707 0)
(7.36114 -0.00955092 0)
(7.36145 -0.010807 0)
(7.3616 -0.0121395 0)
(7.36159 -0.0135413 0)
(7.36141 -0.0150042 0)
(7.36107 -0.0165188 0)
(7.36055 -0.0180756 0)
(7.35987 -0.0196619 0)
(7.33301 -0.000141267 0)
(7.33331 -0.000289252 0)
(7.33405 -0.00026855 0)
(7.33505 -0.000170485 0)
(7.33622 -4.47054e-05 0)
(7.33751 9.21239e-05 0)
(7.33888 0.000220432 0)
(7.3403 0.000324513 0)
(7.34176 0.000395863 0)
(7.34323 0.000428161 0)
(7.3447 0.000415678 0)
(7.34617 0.000353423 0)
(7.34761 0.00023687 0)
(7.34903 6.19831e-05 0)
(7.35041 -0.000175234 0)
(7.35173 -0.000477434 0)
(7.35301 -0.000840719 0)
(7.35421 -0.0012718 0)
(7.35533 -0.00177785 0)
(7.35637 -0.00235963 0)
(7.35731 -0.00301773 0)
(7.35815 -0.00375246 0)
(7.35887 -0.00456362 0)
(7.35947 -0.00544998 0)
(7.35993 -0.00640912 0)
(7.36025 -0.0074376 0)
(7.36043 -0.00853103 0)
(7.36046 -0.00968402 0)
(7.36033 -0.0108902 0)
(7.36004 -0.0121427 0)
(7.35959 -0.0134334 0)
(7.35898 -0.0147545 0)
(7.35821 -0.016096 0)
(7.33314 -0.000730228 0)
(7.33396 -0.0020676 0)
(7.33507 -0.00299458 0)
(7.33625 -0.0036192 0)
(7.33749 -0.0040438 0)
(7.33879 -0.00431419 0)
(7.34013 -0.00448116 0)
(7.34149 -0.00458783 0)
(7.34287 -0.00466276 0)
(7.34425 -0.00472649 0)
(7.34562 -0.00479471 0)
(7.34698 -0.00487908 0)
(7.34831 -0.00498837 0)
(7.34961 -0.00512953 0)
(7.35086 -0.00530846 0)
(7.35205 -0.0055306 0)
(7.35319 -0.00579953 0)
(7.35424 -0.00611791 0)
(7.35522 -0.00648831 0)
(7.3561 -0.00691308 0)
(7.35688 -0.00739343 0)
(7.35754 -0.00792968 0)
(7.35809 -0.00852156 0)
(7.35851 -0.00916813 0)
(7.3588 -0.00986749 0)
(7.35894 -0.010617 0)
(7.35895 -0.0114134 0)
(7.3588 -0.0122525 0)
(7.35851 -0.0131298 0)
(7.35806 -0.0140401 0)
(7.35747 -0.0149778 0)
(7.35672 -0.0159375 0)
(7.35583 -0.0169117 0)
(7.33307 -0.000305393 0)
(7.33388 -0.000689778 0)
(7.33531 -0.000886073 0)
(7.33685 -0.00105119 0)
(7.33844 -0.00117755 0)
(7.34008 -0.00127277 0)
(7.34171 -0.00136321 0)
(7.34334 -0.00145748 0)
(7.34495 -0.00155842 0)
(7.34654 -0.00167096 0)
(7.34811 -0.00179975 0)
(7.34964 -0.00194833 0)
(7.35114 -0.00211988 0)
(7.3526 -0.00231733 0)
(7.354 -0.00254325 0)
(7.35535 -0.0027998 0)
(7.35663 -0.0030888 0)
(7.35783 -0.0034125 0)
(7.35895 -0.00377279 0)
(7.35998 -0.00417088 0)
(7.36091 -0.00460739 0)
(7.36173 -0.00508249 0)
(7.36244 -0.00559592 0)
(7.36302 -0.00614684 0)
(7.36349 -0.00673386 0)
(7.36382 -0.00735502 0)
(7.36401 -0.00800788 0)
(7.36407 -0.00868946 0)
(7.36399 -0.00939636 0)
(7.36377 -0.0101248 0)
(7.36341 -0.0108705 0)
(7.3629 -0.0116292 0)
(7.36227 -0.0123952 0)
(7.33439 -0.00351419 0)
(7.33924 -0.00657942 0)
(7.3451 -0.00782153 0)
(7.3515 -0.00860355 0)
(7.35832 -0.00901851 0)
(7.36531 -0.00917999 0)
(7.37234 -0.00923269 0)
(7.37936 -0.00923768 0)
(7.38632 -0.00922057 0)
(7.39317 -0.00920038 0)
(7.3999 -0.00918915 0)
(7.40649 -0.00919332 0)
(7.41291 -0.00921681 0)
(7.41916 -0.00926229 0)
(7.42522 -0.00933154 0)
(7.43108 -0.00942574 0)
(7.43672 -0.00954561 0)
(7.44215 -0.00969167 0)
(7.44735 -0.00986423 0)
(7.45232 -0.0100633 0)
(7.45705 -0.0102887 0)
(7.46152 -0.0105397 0)
(7.46574 -0.0108155 0)
(7.46971 -0.0111148 0)
(7.47341 -0.0114363 0)
(7.47684 -0.0117781 0)
(7.48001 -0.0121383 0)
(7.48291 -0.0125149 0)
(7.48555 -0.0129057 0)
(7.48792 -0.0133085 0)
(7.49002 -0.0137212 0)
(7.49188 -0.0141419 0)
(7.49348 -0.0145685 0)
(7.32977 -0.00394691 0)
(7.32447 -0.00824507 0)
(7.31567 -0.0107402 0)
(7.30513 -0.0125938 0)
(7.29424 -0.0139306 0)
(7.2831 -0.014872 0)
(7.27181 -0.0155634 0)
(7.26054 -0.0160856 0)
(7.24936 -0.0164844 0)
(7.23831 -0.0167934 0)
(7.22741 -0.0170363 0)
(7.21667 -0.0172292 0)
(7.2061 -0.0173835 0)
(7.1957 -0.0175076 0)
(7.18546 -0.017608 0)
(7.17538 -0.0176894 0)
(7.16545 -0.0177558 0)
(7.15567 -0.0178101 0)
(7.14603 -0.0178544 0)
(7.13652 -0.0178905 0)
(7.12713 -0.0179194 0)
(7.11785 -0.017942 0)
(7.10868 -0.0179587 0)
(7.09961 -0.0179699 0)
(7.09064 -0.0179756 0)
(7.08175 -0.017976 0)
(7.07295 -0.0179712 0)
(7.06424 -0.0179613 0)
(7.0556 -0.0179466 0)