/*--------------------------------*- C++ -*----------------------------------*\
  =========                 |
  \\      /  F ield         | OpenFOAM: The Open Source CFD Toolbox
   \\    /   O peration     | Website:  https://openfoam.org
    \\  /    A nd           | Version:  10
     \\/     M anipulation  |
\*---------------------------------------------------------------------------*/
FoamFile
{
    format      ascii;
    class       volScalarField;
    location    "0.08";
    object      k;
}
// * * * * * * * * * * * * * * * * * * * * * * * * * * * * * * * * * * * * * //

dimensions      [0 2 -2 0 0 0 0];

internalField   nonuniform List<scalar> 
6820
(
0.198343
0.194803
0.1912
0.187571
0.183963
0.180404
0.176905
0.17347
0.170103
0.166801
0.163565
0.160391
0.157276
0.154215
0.151204
0.148233
0.145296
0.14238
0.139474
0.136558
0.133615
0.130616
0.127528
0.124311
0.12091
0.117256
0.113265
0.108822
0.103795
0.0979985
0.0912338
0.0833438
0.073108
0.200926
0.200913
0.200496
0.200059
0.199621
0.199172
0.198708
0.198223
0.197718
0.197193
0.196649
0.196089
0.195516
0.194932
0.194343
0.193749
0.193157
0.192568
0.191986
0.191415
0.190858
0.190315
0.189787
0.189272
0.188761
0.188242
0.187685
0.187045
0.186246
0.18517
0.183615
0.181438
0.178562
0.236718
0.016805
0.00057603
0.00800389
0.00774674
0.00799192
0.00967513
0.0117076
0.0138865
0.0161637
0.0185038
0.0208891
0.0233094
0.0257591
0.028237
0.0307456
0.0332913
0.0358846
0.0385406
0.04128
0.0441296
0.0471238
0.0503058
0.0537296
0.0574611
0.0615799
0.0661791
0.0713644
0.0772457
0.0839341
0.0914985
0.0999772
0.109337
0.210777
0.147964
0.104907
0.0795866
0.0639436
0.0533439
0.0455257
0.0393858
0.0343539
0.0301097
0.0264602
0.0232816
0.0204915
0.0180329
0.0158661
0.0139632
0.0123046
0.0108762
0.00966719
0.00866915
0.00787458
0.00727716
0.00687296
0.00666309
0.00665728
0.00687856
0.00736951
0.00820028
0.00948441
0.0113895
0.0141179
0.0179896
0.0231975
0.223498
0.0824447
0.0207338
0.00393273
0.000582745
0.00038966
0.000740238
0.00108185
0.00136001
0.00159518
0.00180166
0.00198382
0.00214151
0.00227334
0.00237806
0.00245492
0.00250373
0.0025246
0.0025177
0.00248292
0.00242047
0.00233002
0.00221057
0.0020604
0.00187746
0.0016583
0.00140307
0.00110083
0.00080678
0.000236774
0.00136997
0.000785465
0.000650027
0.217345
0.113585
0.0521228
0.0285871
0.0196546
0.0153721
0.0123641
0.00964023
0.00703261
0.00470106
0.00286067
0.0015976
0.000836925
0.000425685
0.000220063
0.000122032
7.66589e-05
5.67268e-05
6.97906e-06
0.00123737
0.00104306
0.000998824
0.000961191
0.000939191
0.000877796
0.000793918
0.000722072
0.000648781
0.000550372
0.000414398
0.000116854
0.000359741
0.000427316
0.213368
0.133758
0.0653843
0.0324202
0.0188472
0.0132017
0.0106017
0.00925575
0.00849285
0.00804973
0.0078165
0.00763868
0.00747556
0.00732466
0.00717928
0.00702789
0.00686331
0.0066856
0.00649868
0.0063101
0.00612169
0.00593407
0.00574671
0.00555853
0.00536642
0.00517005
0.00496905
0.00476162
0.00454212
0.00431305
0.00404198
0.00377099
0.00347249
0.203776
0.181694
0.127494
0.0688003
0.0344154
0.018806
0.0120945
0.00906226
0.00757734
0.00683994
0.0066124
0.00651948
0.00647085
0.00645932
0.00647115
0.00649226
0.00651814
0.00654847
0.00658072
0.00661153
0.00663921
0.00666189
0.00667764
0.00668554
0.00668658
0.00668215
0.00667338
0.00666027
0.00664084
0.00661094
0.0065675
0.00649538
0.00639164
0.202309
0.188823
0.163492
0.120774
0.0761915
0.0448849
0.026911
0.0173262
0.0121989
0.00948936
0.00856493
0.00807222
0.00773366
0.00752733
0.00738814
0.00727577
0.00719186
0.00714232
0.00712249
0.00712959
0.00716303
0.0072208
0.00729889
0.00739294
0.00749946
0.00761575
0.00773922
0.00786688
0.00799519
0.00811941
0.00823475
0.00833425
0.00841424
0.201599
0.192333
0.178735
0.157731
0.124072
0.0860686
0.0551022
0.0346148
0.0225147
0.016038
0.0136851
0.0124124
0.0115808
0.0110556
0.0106962
0.0104317
0.0102531
0.0101567
0.0101279
0.0101576
0.0102409
0.0103728
0.0105465
0.0107541
0.0109871
0.0112365
0.0114934
0.0117488
0.0119947
0.0122232
0.0124276
0.0126008
0.0127426
0.201116
0.19471
0.185554
0.173997
0.156994
0.132956
0.10455
0.0773815
0.0560455
0.0422478
0.0356079
0.0313875
0.0283701
0.0261388
0.0244489
0.0231717
0.0222301
0.0215609
0.0211136
0.0208509
0.0207438
0.0207682
0.0209014
0.0211214
0.021408
0.0217426
0.0221077
0.0224864
0.0228628
0.0232215
0.0235497
0.0238332
0.0240714
0.200805
0.196225
0.189931
0.1828
0.173713
0.161045
0.14395
0.123803
0.104202
0.0886691
0.0780415
0.0702679
0.0640849
0.0590552
0.0550096
0.0518064
0.0493027
0.0473737
0.0459267
0.0448854
0.0441862
0.0437753
0.0436042
0.0436253
0.0437958
0.0440762
0.0444313
0.0448296
0.0452439
0.0456496
0.0460282
0.0463613
0.0466485
0.200596
0.197238
0.192746
0.187987
0.182616
0.176092
0.167839
0.157524
0.145827
0.134287
0.124024
0.115151
0.107259
0.100305
0.0943512
0.0894006
0.0853835
0.0821893
0.0796966
0.0777908
0.076373
0.0753573
0.0746662
0.0742299
0.0739873
0.0738875
0.0738899
0.0739609
0.0740736
0.0742035
0.0743333
0.0744463
0.074538
0.200457
0.197902
0.194571
0.191275
0.18792
0.184242
0.17989
0.174513
0.168081
0.161022
0.153859
0.146838
0.140004
0.13353
0.127624
0.122418
0.117952
0.114186
0.111031
0.108383
0.106142
0.104225
0.102572
0.101143
0.0999156
0.0988739
0.0980052
0.0972933
0.0967199
0.0962622
0.0959002
0.0956132
0.0953801
0.200365
0.198342
0.195757
0.193338
0.191076
0.188804
0.186284
0.183229
0.179453
0.174956
0.169835
0.164155
0.158111
0.15202
0.14617
0.140753
0.13586
0.131505
0.127659
0.124276
0.121305
0.1187
0.116421
0.114437
0.112723
0.111255
0.110013
0.108972
0.108112
0.107407
0.106837
0.106383
0.106017
0.200305
0.198627
0.196514
0.194617
0.192954
0.191386
0.189699
0.187651
0.185044
0.181728
0.177669
0.172928
0.167702
0.162241
0.156789
0.15153
0.146587
0.142022
0.137863
0.134112
0.130757
0.127778
0.12515
0.122847
0.120839
0.119098
0.117599
0.116315
0.115222
0.114299
0.113525
0.112884
0.112345
0.200267
0.198804
0.196974
0.195364
0.193996
0.192742
0.191405
0.189755
0.187579
0.184705
0.181067
0.17672
0.171829
0.166617
0.161313
0.156109
0.151148
0.146515
0.142257
0.138389
0.134908
0.131797
0.129035
0.126596
0.124455
0.122584
0.120959
0.119555
0.11835
0.11732
0.116447
0.115712
0.115086
0.200246
0.1989
0.197214
0.19572
0.194444
0.19326
0.191986
0.190412
0.18834
0.185634
0.182242
0.178219
0.1737
0.168866
0.163907
0.158986
0.154226
0.149711
0.145493
0.141596
0.13803
0.134791
0.131869
0.129251
0.126918
0.124851
0.123031
0.121437
0.120051
0.118847
0.117801
0.116905
0.116136
0.200239
0.198933
0.197276
0.195768
0.19444
0.193174
0.191805
0.190143
0.188019
0.185317
0.182003
0.178121
0.173787
0.169154
0.164379
0.159604
0.15494
0.15047
0.146247
0.142303
0.138657
0.135313
0.13227
0.129519
0.127048
0.124842
0.122884
0.121158
0.119639
0.11829
0.117085
0.116037
0.115153
0.200244
0.198912
0.197189
0.195568
0.194088
0.192639
0.191074
0.189228
0.186959
0.184181
0.180873
0.177081
0.172899
0.168451
0.163862
0.159246
0.154698
0.150291
0.146078
0.142097
0.138373
0.134918
0.131738
0.128834
0.126199
0.123825
0.121699
0.1198
0.11809
0.116542
0.115145
0.113917
0.112897
0.200259
0.198838
0.196963
0.195145
0.193429
0.191717
0.189879
0.187777
0.185296
0.182369
0.178988
0.175194
0.171064
0.166697
0.162194
0.157648
0.153141
0.148741
0.144498
0.140455
0.136639
0.13307
0.12976
0.126713
0.123931
0.121404
0.119112
0.117027
0.115127
0.113402
0.111846
0.110475
0.109334
0.200287
0.19871
0.196594
0.194492
0.19246
0.190414
0.188244
0.185835
0.183095
0.179978
0.176482
0.172644
0.168525
0.164201
0.15975
0.155247
0.15076
0.146346
0.142056
0.137931
0.134004
0.130301
0.126838
0.123629
0.120674
0.117952
0.115448
0.11315
0.111055
0.109156
0.107448
0.105944
0.104681
0.200328
0.198516
0.196058
0.193579
0.191153
0.188712
0.186164
0.183416
0.180393
0.177063
0.173423
0.169504
0.16535
0.161017
0.156565
0.15205
0.14753
0.143057
0.138679
0.13444
0.130376
0.126518
0.122892
0.119506
0.116348
0.113412
0.110701
0.108216
0.105958
0.10392
0.102095
0.100494
0.0991419
0.200388
0.198241
0.195318
0.192351
0.189445
0.186545
0.183576
0.180458
0.177131
0.173563
0.169753
0.165718
0.161489
0.157102
0.152599
0.148023
0.14342
0.138839
0.134328
0.129933
0.125698
0.121657
0.117823
0.114201
0.110801
0.107638
0.104722
0.10206
0.0996494
0.0974852
0.0955583
0.093874
0.0924469
0.20047
0.197858
0.194311
0.190729
0.187255
0.183846
0.180437
0.17695
0.173324
0.169527
0.165547
0.161387
0.157061
0.152587
0.14799
0.143304
0.13857
0.133834
0.12915
0.124568
0.12013
0.115865
0.11179
0.107928
0.104306
0.100945
0.0978588
0.0950528
0.0925256
0.0902703
0.088276
0.0865442
0.0850776
0.200586
0.197322
0.192934
0.188566
0.184407
0.180416
0.176519
0.172631
0.168678
0.164618
0.160423
0.156083
0.151593
0.146957
0.14219
0.137319
0.132383
0.127435
0.12253
0.117709
0.113004
0.108459
0.104114
0.100009
0.0961743
0.092632
0.089395
0.0864677
0.0838474
0.0815249
0.0794866
0.0777287
0.0762431
0.200752
0.196557
0.19104
0.185697
0.180763
0.17617
0.171803
0.167541
0.163287
0.158975
0.154563
0.150026
0.145344
0.140511
0.135534
0.130439
0.125264
0.120061
0.114889
0.109789
0.104812
0.100014
0.0954451
0.0911472
0.0871508
0.0834774
0.0801392
0.0771393
0.0744731
0.0721292
0.0700913
0.0683506
0.0668888
0.200999
0.195422
0.188328
0.181707
0.175812
0.170496
0.165572
0.16086
0.156225
0.151578
0.14686
0.14203
0.137061
0.131937
0.126663
0.121264
0.115768
0.110226
0.104711
0.0992964
0.0940497
0.0890307
0.084288
0.0798589
0.0757703
0.0720396
0.0686745
0.0656741
0.0630292
0.0607245
0.0587391
0.0570581
0.0556536
0.201367
0.193729
0.184515
0.176386
0.169494
0.163498
0.158064
0.152932
0.147924
0.142929
0.137877
0.132719
0.127409
0.121931
0.116293
0.110526
0.104672
0.0988071
0.0930182
0.0873886
0.081989
0.0768755
0.0720903
0.0676632
0.0636135
0.0599512
0.0566774
0.0537854
0.0512611
0.0490844
0.0472305
0.0456789
0.0443959
0.201957
0.191026
0.178695
0.168481
0.160259
0.153365
0.147266
0.141586
0.136089
0.130637
0.125149
0.119551
0.113788
0.107852
0.101773
0.0956117
0.0894487
0.0833799
0.0774982
0.071882
0.0665903
0.0616625
0.0571227
0.0529827
0.049246
0.0459089
0.0429612
0.0403867
0.038164
0.036267
0.0346667
0.0333375
0.032242
0.202926
0.186605
0.17017
0.157699
0.14818
0.14032
0.133372
0.126911
0.120693
0.114577
0.108469
0.102291
0.0960229
0.0896922
0.0833579
0.0771013
0.0710166
0.0651983
0.0597287
0.0546667
0.0500446
0.0458696
0.0421299
0.0388031
0.0358621
0.0332794
0.0310279
0.0290817
0.0274143
0.0259988
0.0248079
0.0238188
0.0229996
0.204692
0.178549
0.155767
0.14021
0.128914
0.119724
0.111665
0.104297
0.0973825
0.0907633
0.0843354
0.0780468
0.0719048
0.0659574
0.0602707
0.0549101
0.0499317
0.0453798
0.0412849
0.0376589
0.0344913
0.0317492
0.0293832
0.0273376
0.02556
0.0240072
0.0226463
0.021453
0.0204083
0.0194945
0.0186945
0.0179964
0.0173832
0.208813
0.159463
0.12578
0.105887
0.0924349
0.0819613
0.0731452
0.0655603
0.0590735
0.0535598
0.0488283
0.0446642
0.040893
0.0374177
0.0342158
0.0313095
0.0287282
0.0264812
0.0245486
0.0228892
0.0214551
0.0202047
0.0191075
0.0181428
0.0172935
0.0165422
0.0158702
0.0152592
0.0146939
0.0141615
0.0136527
0.0131643
0.0126933
0.216592
0.121359
0.0758277
0.0559497
0.0455826
0.0387894
0.0335787
0.0293151
0.0257928
0.0229044
0.0205408
0.018583
0.016924
0.015487
0.0142313
0.013144
0.0122241
0.011467
0.0108558
0.0103621
0.00995382
0.00960373
0.00929351
0.00901274
0.00875502
0.00851414
0.00828276
0.00805356
0.0078213
0.00758411
0.00734273
0.00710047
0.00685908
0.222973
0.0880606
0.0418883
0.0265709
0.0204942
0.0173934
0.0154152
0.0139014
0.0125558
0.0112564
0.0100023
0.00885715
0.00788537
0.00711155
0.00651645
0.00605799
0.00569557
0.0054031
0.00516871
0.00498761
0.00485517
0.00476351
0.00470153
0.00465681
0.0046176
0.0045743
0.00452013
0.00445117
0.0043656
0.00426425
0.00415033
0.0040284
0.00390179
0.222555
0.0866181
0.0418763
0.0275873
0.0219611
0.0189125
0.0167446
0.0149322
0.0132902
0.0117568
0.0103286
0.00902362
0.00785744
0.00683131
0.00593404
0.00514882
0.00445913
0.0038515
0.00331573
0.00284391
0.00242951
0.00206685
0.00175091
0.00147719
0.00124151
0.00104018
0.000870561
0.000729577
0.00061425
0.000521763
0.000449099
0.0003933
0.000352534
0.21317
0.135095
0.0900008
0.0661061
0.0526303
0.0442881
0.0386742
0.0346535
0.0316392
0.0292927
0.0274089
0.0258564
0.0245506
0.0234375
0.0224784
0.0216427
0.0209068
0.0202526
0.0196654
0.0191329
0.0186447
0.018192
0.0177676
0.0173673
0.0169874
0.0166241
0.0162737
0.0159338
0.0156034
0.0152817
0.0149671
0.0146622
0.0143517
0.240251
0.00046244
0.0366933
2.23022e-05
0.000154859
9.79131e-05
0.000848548
0.000879395
0.000635896
0.000328693
0.000998681
0.00155355
0.00112678
0.000636408
0.00076783
0.00100543
0.000948751
0.000722468
0.0005844
0.000602794
0.000694
0.000786549
0.000868144
0.00094849
0.00103456
0.001128
0.00122875
0.00133676
0.00145213
0.00157489
0.00170499
0.00184245
0.00198653
0.200085
0.199943
0.199749
0.19956
0.19938
0.199207
0.19904
0.198877
0.198716
0.198558
0.198403
0.19825
0.1981
0.197953
0.19781
0.19767
0.197534
0.197401
0.197272
0.197149
0.197029
0.196915
0.196804
0.196698
0.196597
0.1965
0.196407
0.196318
0.196233
0.196152
0.196074
0.196003
0.195921
0.199875
0.199567
0.199236
0.198893
0.198547
0.198202
0.19786
0.197523
0.19719
0.196863
0.196542
0.196225
0.195913
0.195606
0.195303
0.195004
0.194709
0.194418
0.19413
0.193846
0.193565
0.193287
0.193013
0.192741
0.192473
0.192207
0.191945
0.191685
0.191428
0.191175
0.190924
0.190677
0.190433
0.0652659
0.0581674
0.0795081
0.108849
0.123548
0.123472
0.117314
0.112089
0.110081
0.110607
0.111194
0.113664
0.121599
0.125661
0.110234
0.0768034
0.0414121
0.016702
0.00529142
0.00245548
0.00288387
0.00167364
0.00056038
0.0171811
0.0479463
0.0738072
0.0905854
0.105001
0.122597
0.143392
0.16474
0.183993
0.199081
0.208468
0.211453
0.208122
0.199777
0.188187
0.174129
0.157656
0.140818
0.122726
0.0969659
0.0653049
0.0369572
0.0188644
0.0137697
0.0223991
0.0431423
0.0709638
0.0987349
0.120455
0.133551
0.138741
0.138315
0.134469
0.128565
0.121199
0.112558
0.102748
0.0919452
0.0804566
0.0687389
0.0574168
0.0472777
0.0392064
0.0340426
0.0323889
0.0344339
0.0398695
0.047946
0.0576494
0.0679278
0.0778812
0.0868586
0.0944703
0.100573
0.105191
0.108064
0.107693
0.101108
0.0866603
0.0687981
0.059039
0.060709
0.067388
0.0706065
0.0638645
0.0495951
0.0455403
0.0661577
0.0985914
0.122082
0.127739
0.121096
0.111604
0.105933
0.104803
0.106377
0.111518
0.17194
0.159211
0.141347
0.125835
0.120254
0.120146
0.119293
0.11705
0.115151
0.114242
0.115763
0.122132
0.127645
0.117185
0.0869863
0.050444
0.0219568
0.00697305
0.00282349
0.00353564
0.00495526
0.00490286
0.00106283
0.00649367
0.0310722
0.0608415
0.0829091
0.09818
0.112838
0.130137
0.148725
0.166093
0.180007
0.188904
0.19213
0.18976
0.182791
0.172592
0.159664
0.144639
0.129051
0.108625
0.0800913
0.0500484
0.0272228
0.0151609
0.0145303
0.0258301
0.0478191
0.0757188
0.102645
0.123019
0.134775
0.138994
0.138072
0.134109
0.1283
0.12108
0.112535
0.102715
0.0917849
0.0800677
0.0680669
0.0564754
0.0461571
0.0380628
0.0330683
0.0317703
0.0343087
0.0402966
0.0488968
0.0590209
0.0695724
0.0796412
0.088594
0.0960699
0.101956
0.106321
0.108977
0.108444
0.101621
0.086744
0.0684518
0.0583178
0.060024
0.0674561
0.0721307
0.0668149
0.052067
0.0439113
0.0603933
0.0925326
0.118352
0.126316
0.120835
0.111709
0.106393
0.105784
0.108086
0.113651
0.121
0.134528
0.144509
0.147034
0.143431
0.137788
0.132645
0.128709
0.12622
0.125692
0.128658
0.130493
0.118957
0.0899683
0.0540483
0.0245694
0.00784095
0.00259339
0.00357398
0.00598102
0.00738252
0.0077784
0.00465493
0.00232454
0.0155529
0.0430798
0.0702269
0.0897057
0.104142
0.118378
0.133747
0.14868
0.1611
0.169396
0.1728
0.171309
0.165629
0.156768
0.145048
0.131526
0.115144
0.0911155
0.0616984
0.0360657
0.0200508
0.0137248
0.0167073
0.0299895
0.0528332
0.0805887
0.106513
0.125439
0.135819
0.139085
0.137701
0.133647
0.127933
0.120849
0.112387
0.102554
0.0915014
0.0795705
0.0673073
0.0554716
0.0450043
0.0369221
0.032135
0.0312286
0.034287
0.0408383
0.0499548
0.0604763
0.0712677
0.0814177
0.0903198
0.0976526
0.103341
0.107499
0.110031
0.109584
0.10309
0.0886008
0.0704692
0.059969
0.061307
0.06896
0.074735
0.0709472
0.0564612
0.0447278
0.0565017
0.0870092
0.114159
0.124147
0.119948
0.111355
0.106509
0.106509
0.109669
0.115944
0.0317978
0.0459808
0.0654938
0.0874771
0.106754
0.12015
0.127653
0.130834
0.131595
0.130868
0.124812
0.108113
0.0799313
0.0479933
0.0218464
0.00670473
0.00200171
0.00338375
0.00649943
0.00904198
0.0100408
0.00998305
0.0083191
0.00369744
0.00597597
0.0243813
0.0517686
0.0763439
0.0941473
0.107781
0.120473
0.132744
0.143298
0.150705
0.154048
0.153231
0.148713
0.141019
0.13038
0.116984
0.0973765
0.0705553
0.0436909
0.0250912
0.0162206
0.0146039
0.0200846
0.0346754
0.0580577
0.0854896
0.110272
0.12766
0.136651
0.139003
0.137211
0.133096
0.12748
0.120513
0.112116
0.102262
0.0910945
0.0789668
0.0664654
0.054415
0.0438326
0.0358003
0.0312596
0.0307789
0.0343796
0.0414985
0.051116
0.0620033
0.072995
0.0831879
0.0920123
0.0991933
0.104694
0.108668
0.111096
0.110763
0.104685
0.0907567
0.0729756
0.0621194
0.0628538
0.0704229
0.0771589
0.0751814
0.0618239
0.0473385
0.0538863
0.0815609
0.109223
0.12102
0.118177
0.110197
0.105872
0.106543
0.110674
0.117989
0.00161509
0.00383482
0.00925858
0.0202169
0.0362723
0.0540315
0.0695689
0.0802274
0.0848453
0.0818686
0.0699054
0.0509303
0.0300858
0.0130213
0.0033831
0.00113253
0.00334818
0.00691225
0.0101562
0.0123909
0.0131155
0.0123747
0.0110346
0.00733613
0.00370576
0.0104601
0.0308703
0.0566238
0.0790342
0.095635
0.108172
0.118577
0.127199
0.133249
0.136123
0.135893
0.132343
0.1252
0.114507
0.0984516
0.0752302
0.049064
0.0286832
0.0185107
0.0158384
0.0173376
0.024205
0.0396286
0.0633903
0.0903827
0.113895
0.129666
0.137264
0.138753
0.136608
0.132462
0.12694
0.12007
0.111715
0.101828
0.0905493
0.0782423
0.0655301
0.0532987
0.0426403
0.0347007
0.0304484
0.0304279
0.03459
0.0422752
0.052371
0.0635849
0.0747293
0.0849187
0.0936278
0.100633
0.105938
0.109727
0.112056
0.111859
0.106252
0.0929565
0.0755439
0.0642512
0.0641642
0.0713936
0.0789181
0.0788948
0.0673962
0.0513905
0.0526036
0.0764613
0.103852
0.117181
0.11571
0.108399
0.10464
0.106027
0.111207
0.119762
0.00053437
1.75209e-05
0.00150641
0.000487549
0.00256119
0.00769518
0.0145424
0.0206801
0.0232535
0.0210175
0.0155478
0.0087399
0.0029366
0.000315273
0.00120024
0.00409013
0.00762446
0.0112388
0.0145535
0.016939
0.0176765
0.0164097
0.0141295
0.0110463
0.00623965
0.00464452
0.0139102
0.0338301
0.0571617
0.0775619
0.0930258
0.104294
0.112419
0.117743
0.120339
0.119844
0.115691
0.107453
0.0941225
0.0745269
0.0508975
0.0302872
0.0191033
0.0168749
0.0183815
0.0212252
0.0286172
0.0446733
0.0687916
0.0952511
0.117356
0.131428
0.137647
0.138338
0.1359
0.131746
0.12631
0.119514
0.111181
0.101251
0.0898628
0.077392
0.0644959
0.0521199
0.041429
0.0336292
0.0297098
0.0301831
0.0349213
0.0431645
0.0537087
0.0652044
0.0764516
0.0865926
0.0951545
0.10197
0.107081
0.110701
0.112941
0.112877
0.107736
0.0950805
0.0780538
0.066344
0.0653616
0.0720495
0.0800394
0.0817731
0.0725588
0.056524
0.0527806
0.0719598
0.0982178
0.112694
0.112558
0.10597
0.102837
0.105
0.111312
0.121255
0.00311076
0.00263455
0.00211355
0.00102304
0.000651877
0.000166081
0.00025465
0.000575955
0.00019479
0.00087199
0.00201496
0.00202557
0.00205785
0.00345526
0.00592906
0.00900878
0.0127407
0.0170384
0.0212187
0.0242187
0.0250908
0.0234008
0.0197404
0.0155311
0.0106542
0.00566147
0.00557748
0.0150549
0.0326231
0.0527282
0.0706687
0.0845093
0.0941578
0.100098
0.102294
0.100548
0.0945284
0.083672
0.067616
0.0478463
0.0292274
0.0179723
0.0162052
0.0196678
0.0228026
0.0254588
0.0329543
0.0497395
0.0742795
0.100091
0.120622
0.132919
0.137789
0.137762
0.135092
0.130946
0.12558
0.118834
0.110505
0.100527
0.0890358
0.0764177
0.063364
0.0508806
0.0402032
0.0325928
0.0290516
0.0300496
0.0353712
0.0441527
0.055104
0.0668295
0.0781282
0.0881784
0.0965628
0.103171
0.108086
0.111541
0.1137
0.113777
0.109136
0.0971833
0.0805878
0.0684794
0.0665526
0.0725204
0.0805706
0.0835619
0.0765775
0.0617927
0.0541947
0.0681887
0.0924531
0.107592
0.108659
0.102803
0.100356
0.103377
0.110936
0.12243
0.00621715
0.00594014
0.00556297
0.00504033
0.00437342
0.00364454
0.0029218
0.00233907
0.00222295
0.00257658
0.00329517
0.00445074
0.00605354
0.00815386
0.0110846
0.0152385
0.0205942
0.0264927
0.0318208
0.035406
0.0363342
0.0342193
0.0293542
0.0230644
0.01675
0.0104863
0.00557552
0.00576102
0.0134897
0.0271871
0.0428865
0.05706
0.0677674
0.0743365
0.076112
0.0732753
0.0658435
0.0540734
0.0393096
0.0248209
0.0153596
0.0142014
0.01957
0.0254581
0.0277919
0.0293227
0.0370359
0.0548868
0.0799135
0.104889
0.123645
0.134102
0.137684
0.137031
0.134186
0.130057
0.124739
0.118014
0.109672
0.0996443
0.0880617
0.0753181
0.062138
0.0495878
0.0389724
0.0316032
0.0284856
0.030035
0.0359371
0.0452199
0.0565142
0.0683965
0.0796865
0.0896117
0.0978068
0.104208
0.108935
0.112241
0.114329
0.114549
0.110407
0.0991641
0.0829854
0.0704685
0.0675807
0.072755
0.0805959
0.0842976
0.0789998
0.0658554
0.0560247
0.0648918
0.0865278
0.101851
0.103924
0.0987543
0.0970395
0.10102
0.109973
0.123228
0.0084657
0.00846647
0.0083923
0.00824692
0.00802275
0.00774254
0.00746692
0.00731063
0.0074312
0.0078118
0.00853177
0.00974832
0.0117695
0.0150378
0.0199093
0.0263331
0.0336881
0.0409239
0.0468923
0.0506342
0.051462
0.0490371
0.0434347
0.0353841
0.0265799
0.0183301
0.0110404
0.0059285
0.00518443
0.00983056
0.0185329
0.0285475
0.037242
0.0427504
0.0441118
0.0414338
0.0351386
0.0263958
0.017476
0.0116465
0.0119463
0.0185961
0.0273451
0.0323023
0.0320851
0.0323723
0.0409257
0.0602846
0.0857555
0.1096
0.126356
0.13494
0.137328
0.136154
0.133184
0.129068
0.12377
0.11704
0.108669
0.0985905
0.0869286
0.0740838
0.0608134
0.0482431
0.0377448
0.0306732
0.0280265
0.0301527
0.0366274
0.0463643
0.0579167
0.0698471
0.0810251
0.0907609
0.0987595
0.104987
0.109565
0.112748
0.114779
0.115134
0.111485
0.10095
0.0851597
0.0722015
0.068338
0.072726
0.0803154
0.0844419
0.0801605
0.0680529
0.0570249
0.0614182
0.0802712
0.0954577
0.0983107
0.093717
0.0927426
0.0977833
0.108307
0.123585
0.0128475
0.0129001
0.0128824
0.0128059
0.0126995
0.0126063
0.0125926
0.0127491
0.0131633
0.0140228
0.0156106
0.018293
0.0224555
0.028316
0.0357117
0.0440229
0.0523182
0.0596305
0.0651805
0.0684357
0.0690136
0.0666151
0.0610503
0.0524416
0.0417997
0.0308943
0.021043
0.0128597
0.00711983
0.00475391
0.00590154
0.00947099
0.0136234
0.0166043
0.0174496
0.0160553
0.0129898
0.00964741
0.00813747
0.0106983
0.018305
0.0287932
0.0368597
0.0381974
0.0347656
0.0345732
0.044931
0.0661507
0.0918173
0.114126
0.128666
0.135401
0.136726
0.135138
0.132082
0.127966
0.122655
0.115892
0.107481
0.0973523
0.0856243
0.0727041
0.0593831
0.0468454
0.0365256
0.0298131
0.0276863
0.0304131
0.0374513
0.0475995
0.0593383
0.0712192
0.082162
0.0915749
0.0992845
0.105337
0.109832
0.112967
0.114984
0.115472
0.11227
0.102403
0.0869805
0.0736182
0.0688629
0.0725394
0.0799436
0.084482
0.0808903
0.0690454
0.0566664
0.057275
0.0734966
0.0883207
0.0917192
0.0875716
0.0873309
0.0935327
0.105812
0.123415
0.0242544
0.0243627
0.0243727
0.0243115
0.0242403
0.0242536
0.0244839
0.0250758
0.0262512
0.0283571
0.0317093
0.0365224
0.042809
0.0502848
0.058371
0.0663273
0.0734512
0.079228
0.0833591
0.085678
0.0860156
0.0841053
0.0795372
0.0719539
0.061482
0.0492195
0.0368864
0.0258524
0.0168367
0.0102511
0.00627705
0.00462981
0.00448727
0.00488361
0.00514503
0.00518903
0.00556743
0.00741985
0.0120954
0.0204018
0.0313856
0.0413265
0.0452338
0.0415431
0.03554
0.0363547
0.0495188
0.0726532
0.0980123
0.118315
0.130484
0.135468
0.135892
0.133993
0.130871
0.126728
0.121372
0.114554
0.106092
0.0959151
0.0841349
0.0711676
0.0578404
0.0453947
0.0353216
0.029034
0.0274761
0.0308229
0.0384085
0.0489215
0.0607828
0.0725473
0.0831858
0.0921832
0.0994644
0.105197
0.109564
0.112703
0.114774
0.115418
0.112632
0.103422
0.0884233
0.0747975
0.0693264
0.0723893
0.0796309
0.084572
0.0816395
0.0699277
0.0561253
0.0532609
0.0665087
0.0804497
0.0840731
0.0802493
0.0807391
0.0881961
0.102404
0.122651
0.0468869
0.0470635
0.0471567
0.0472102
0.047309
0.0475845
0.0482116
0.049391
0.0513828
0.0543826
0.0584826
0.0636056
0.0694832
0.0756874
0.0817268
0.0871677
0.0917195
0.0952483
0.0977246
0.0991357
0.0993984
0.0982932
0.0953737
0.0900674
0.0818992
0.0709735
0.0583198
0.0455191
0.033947
0.0244061
0.0172051
0.0123043
0.00939946
0.00808302
0.00804887
0.00939074
0.0125588
0.0181479
0.0264515
0.0368248
0.0468586
0.0523748
0.0500443
0.041625
0.0348988
0.0385125
0.0551473
0.0798038
0.104134
0.121981
0.131736
0.135145
0.134847
0.13272
0.129534
0.125331
0.119898
0.113005
0.104485
0.0942616
0.0824443
0.0694617
0.0561791
0.0438931
0.0341424
0.0283494
0.0274078
0.031387
0.039494
0.0503151
0.0622293
0.0738151
0.0841097
0.0926699
0.099475
0.104756
0.108814
0.111865
0.113993
0.114805
0.112428
0.103908
0.0894655
0.0757688
0.0697665
0.07231
0.0793958
0.0847027
0.0824406
0.070996
0.0560008
0.0497841
0.059497
0.0718824
0.075362
0.0717646
0.0730071
0.0818129
0.0980808
0.121241
0.0746142
0.0746705
0.0747172
0.0748035
0.0750071
0.0754352
0.0762155
0.0775049
0.0793793
0.081842
0.084833
0.0882122
0.0917667
0.095254
0.0984588
0.101235
0.103517
0.105303
0.106618
0.107469
0.107802
0.107463
0.106139
0.103344
0.0984699
0.0910208
0.0810534
0.0694132
0.0574454
0.0464371
0.0372614
0.030334
0.0257371
0.0234645
0.0234512
0.0257993
0.0305888
0.0376441
0.046235
0.0546787
0.0599784
0.0587097
0.0500983
0.0389359
0.0340143
0.0419385
0.0620612
0.0873933
0.109881
0.124949
0.132389
0.134462
0.133613
0.131314
0.128044
0.123746
0.118207
0.111224
0.102638
0.0923714
0.080534
0.0675731
0.0543943
0.0423451
0.0330004
0.0277747
0.0274934
0.0321086
0.0406996
0.0517629
0.0636546
0.0749965
0.0849065
0.0930223
0.0993717
0.104195
0.107821
0.110587
0.112649
0.113576
0.111587
0.103811
0.0901038
0.0765555
0.0701842
0.0722999
0.0792606
0.0849145
0.083318
0.0722542
0.0563446
0.0469865
0.0526897
0.0628016
0.0657088
0.0622356
0.064246
0.074471
0.0928768
0.119168
0.0952065
0.0950805
0.0950258
0.0950641
0.0952308
0.0955716
0.0961384
0.0969724
0.0980797
0.0994309
0.100966
0.102609
0.104271
0.105861
0.107306
0.108564
0.109624
0.110501
0.11122
0.111792
0.112192
0.112315
0.111993
0.110954
0.108792
0.104991
0.0991337
0.0912353
0.0819161
0.072223
0.0632612
0.0558947
0.0507027
0.0479497
0.0476998
0.0498983
0.0541518
0.05966
0.0651149
0.0684669
0.0669908
0.0588386
0.0459287
0.0350505
0.0343263
0.0472661
0.070147
0.0950109
0.114929
0.127101
0.13246
0.133461
0.132203
0.129755
0.126371
0.12194
0.116271
0.109184
0.100526
0.0902202
0.0783832
0.0654881
0.0524825
0.0407583
0.0319111
0.0273269
0.0277437
0.0329864
0.0420112
0.0532413
0.0650323
0.076068
0.0855569
0.0932184
0.0991299
0.103538
0.106746
0.109107
0.110914
0.11183
0.110153
0.103123
0.0902809
0.077075
0.0704995
0.0723162
0.0792329
0.0852477
0.0843025
0.0736898
0.0571214
0.0449237
0.0462756
0.0533854
0.0552539
0.0518204
0.0546234
0.0663112
0.0868435
0.116387
0.105754
0.105575
0.105499
0.105526
0.105659
0.105906
0.106273
0.106766
0.107402
0.108134
0.108915
0.109706
0.110467
0.111164
0.111772
0.112287
0.112724
0.113113
0.113489
0.113876
0.114272
0.114595
0.114724
0.114526
0.113818
0.11233
0.109719
0.105714
0.100335
0.0940107
0.0874832
0.0815864
0.0770349
0.074182
0.0731345
0.0737143
0.0753312
0.0770284
0.0774246
0.0745936
0.0666178
0.0535542
0.039545
0.0319995
0.0369803
0.0546037
0.0789312
0.10215
0.119016
0.128402
0.132004
0.132185
0.130615
0.128011
0.124475
0.119879
0.114059
0.106854
0.0981186
0.0877792
0.075969
0.0631935
0.0504428
0.0391434
0.0308923
0.0270232
0.0281663
0.0340128
0.0434057
0.0547172
0.0663277
0.0770007
0.0860416
0.0932473
0.0987361
0.102761
0.105602
0.107577
0.109016
0.109762
0.108287
0.101957
0.0900646
0.0773946
0.0707947
0.0724391
0.0793839
0.0857703
0.0854399
0.0752718
0.0581962
0.0434734
0.0403466
0.0438483
0.0442533
0.0408
0.0443605
0.0574562
0.0799896
0.112855
0.111916
0.111572
0.11135
0.111241
0.111237
0.111333
0.111523
0.1118
0.112158
0.112535
0.112893
0.11321
0.113468
0.113659
0.113785
0.113864
0.113926
0.114011
0.114164
0.114415
0.114782
0.11518
0.115501
0.115653
0.115549
0.115079
0.114098
0.112429
0.10995
0.106707
0.102967
0.099183
0.0957759
0.0930118
0.0909449
0.089385
0.0878203
0.0854177
0.0809266
0.0728026
0.0602808
0.045332
0.0335012
0.031463
0.0424136
0.0634992
0.0877273
0.10835
0.122001
0.128899
0.131096
0.13066
0.128828
0.12604
0.122311
0.117522
0.111533
0.104198
0.0953785
0.0850154
0.073267
0.0606773
0.0482767
0.0375133
0.0299625
0.0268776
0.0287622
0.0351705
0.0448488
0.0561461
0.0674947
0.0777549
0.0863309
0.0930889
0.0981761
0.101843
0.10435
0.105989
0.107067
0.107531
0.106131
0.10044
0.0895452
0.077557
0.0710752
0.072638
0.0796603
0.0864444
0.08673
0.0769806
0.0594136
0.0423288
0.0347166
0.0342687
0.0330563
0.0296953
0.0339588
0.0482533
0.0724354
0.108515
0.114569
0.114131
0.113818
0.113617
0.113517
0.113508
0.113577
0.113718
0.113908
0.114082
0.114206
0.114263
0.114247
0.11416
0.114017
0.113846
0.113685
0.113581
0.113583
0.113734
0.114062
0.114477
0.114869
0.115166
0.115301
0.115209
0.114822
0.114069
0.112878
0.111207
0.109088
0.106629
0.103961
0.101175
0.0982312
0.0949413
0.0908754
0.0852879
0.0770982
0.0653985
0.0508427
0.0370325
0.0298797
0.0342382
0.0502945
0.0731357
0.0958479
0.113303
0.123877
0.128687
0.129801
0.128887
0.1268
0.12379
0.119832
0.114823
0.108644
0.101166
0.0922608
0.081892
0.0702527
0.0579295
0.0459885
0.0358821
0.0291366
0.0268966
0.0295204
0.0364278
0.046291
0.0574696
0.0684763
0.0782821
0.0863886
0.0927191
0.0974356
0.100776
0.102981
0.104323
0.1051
0.105295
0.10389
0.0987726
0.0889215
0.077761
0.0715179
0.0730304
0.0801027
0.0872575
0.0881685
0.0788566
0.0607854
0.0413624
0.0292926
0.0248735
0.0223052
0.019341
0.0241396
0.0391737
0.0644078
0.103428
0.115474
0.114887
0.114432
0.114098
0.113872
0.113739
0.113685
0.113698
0.113744
0.113762
0.113722
0.113613
0.113432
0.113185
0.112891
0.112577
0.11228
0.11205
0.11194
0.112002
0.112275
0.112652
0.11303
0.113348
0.113549
0.113573
0.113364
0.112868
0.112039
0.110829
0.109205
0.107133
0.104606
0.101573
0.0979023
0.093355
0.087476
0.0795461