/*--------------------------------*- C++ -*----------------------------------*\
  =========                 |
  \\      /  F ield         | OpenFOAM: The Open Source CFD Toolbox
   \\    /   O peration     | Website:  https://openfoam.org
    \\  /    A nd           | Version:  10
     \\/     M anipulation  |
\*---------------------------------------------------------------------------*/
FoamFile
{
    format      ascii;
    class       volScalarField;
    location    "0.08";
    object      p;
}
// * * * * * * * * * * * * * * * * * * * * * * * * * * * * * * * * * * * * * //

dimensions      [0 2 -2 0 0 0 0];

internalField   nonuniform List<scalar> 
6820
(
-10.3198
-10.6213
-10.6646
-10.6762
-10.7028
-10.7207
-10.73
-10.7351
-10.7362
-10.7329
-10.7254
-10.7133
-10.6964
-10.6742
-10.6461
-10.6114
-10.5691
-10.5182
-10.4575
-10.3854
-10.3002
-10.2
-10.0826
-9.94554
-9.78659
-9.60361
-9.39525
-9.1616
-8.90547
-8.63248
-8.35875
-8.08626
-7.89636
-10.5217
-10.6457
-10.6795
-10.6911
-10.7119
-10.7267
-10.7345
-10.7387
-10.7392
-10.7357
-10.7282
-10.7163
-10.6998
-10.6782
-10.651
-10.6173
-10.5764
-10.5273
-10.4689
-10.3997
-10.3181
-10.2225
-10.1108
-9.98075
-9.83029
-9.65735
-9.46044
-9.23916
-8.9952
-8.73318
-8.46295
-8.19602
-7.94873
-10.5219
-10.6063
-10.6621
-10.6849
-10.7079
-10.7256
-10.7359
-10.7417
-10.7436
-10.7413
-10.7348
-10.724
-10.7086
-10.6883
-10.6626
-10.6308
-10.5924
-10.5465
-10.4921
-10.4283
-10.354
-10.2679
-10.1687
-10.0554
-9.927
-9.78295
-9.62351
-9.44998
-9.26544
-9.07462
-8.88565
-8.70595
-8.54644
-10.5794
-10.6483
-10.6937
-10.7101
-10.7268
-10.7405
-10.7482
-10.752
-10.7525
-10.7492
-10.7421
-10.7311
-10.7158
-10.6959
-10.6709
-10.6402
-10.6034
-10.5597
-10.5082
-10.4483
-10.3789
-10.2993
-10.2087
-10.1065
-9.9924
-9.86695
-9.73155
-9.58895
-9.44397
-9.30347
-9.17787
-9.07869
-9.02519
-10.6103
-10.6482
-10.6848
-10.704
-10.722
-10.7371
-10.7467
-10.7521
-10.754
-10.7522
-10.7465
-10.7369
-10.7231
-10.7049
-10.6818
-10.6535
-10.6194
-10.5791
-10.5319
-10.4772
-10.4145
-10.3433
-10.2633
-10.1744
-10.0772
-9.97275
-9.8633
-9.75233
-9.64531
-9.5497
-9.47628
-9.43738
-9.45393
-10.6413
-10.6712
-10.7061
-10.7259
-10.7414
-10.7542
-10.7622
-10.7664
-10.7673
-10.7648
-10.7588
-10.7492
-10.7357
-10.7183
-10.6964
-10.6698
-10.6381
-10.6008
-10.5575
-10.508
-10.4517
-10.3887
-10.319
-10.243
-10.1617
-10.0769
-9.99138
-9.90924
-9.8364
-9.78059
-9.75265
-9.76485
-9.83674
-10.6677
-10.6869
-10.7131
-10.7298
-10.7433
-10.7551
-10.7634
-10.7682
-10.7699
-10.7685
-10.7638
-10.7557
-10.744
-10.7286
-10.7091
-10.6853
-10.6569
-10.6237
-10.5855
-10.542
-10.4933
-10.4395
-10.3811
-10.3189
-10.2543
-10.1897
-10.1282
-10.0742
-10.0339
-10.0148
-10.0274
-10.083
-10.1992
-10.6917
-10.7055
-10.7283
-10.7451
-10.7585
-10.7699
-10.7779
-10.7825
-10.7842
-10.7829
-10.7785
-10.7709
-10.7601
-10.746
-10.7282
-10.7067
-10.6813
-10.6519
-10.6183
-10.5807
-10.5393
-10.4944
-10.4469
-10.3979
-10.3492
-10.3033
-10.2638
-10.2351
-10.2234
-10.2359
-10.2822
-10.3724
-10.522
-10.7137
-10.7235
-10.7414
-10.7557
-10.7671
-10.7769
-10.7842
-10.7886
-10.7906
-10.7899
-10.7865
-10.7803
-10.7713
-10.7592
-10.744
-10.7256
-10.7039
-10.679
-10.6509
-10.6199
-10.5863
-10.5509
-10.5146
-10.4788
-10.4457
-10.4179
-10.399
-10.3935
-10.4071
-10.4465
-10.5205
-10.6373
-10.8102
-10.7343
-10.7414
-10.7562
-10.7694
-10.7803
-10.7899
-10.7972
-10.802
-10.8045
-10.8044
-10.802
-10.797
-10.7894
-10.7791
-10.7662
-10.7507
-10.7325
-10.7119
-10.689
-10.6642
-10.6382
-10.6117
-10.586
-10.5627
-10.5439
-10.5324
-10.5317
-10.5462
-10.5811
-10.6424
-10.7376
-10.8735
-11.0607
-10.7538
-10.7592
-10.7711
-10.7826
-10.7923
-10.8007
-10.8075
-10.8121
-10.8148
-10.8153
-10.8137
-10.81
-10.8041
-10.796
-10.7857
-10.7734
-10.7592
-10.7432
-10.7259
-10.7077
-10.6893
-10.6719
-10.6566
-10.6452
-10.6398
-10.6433
-10.659
-10.6908
-10.7435
-10.8222
-10.9332
-11.0818
-11.2763
-10.7726
-10.7767
-10.7865
-10.7967
-10.8057
-10.8138
-10.8206
-10.8256
-10.8289
-10.8303
-10.83
-10.8277
-10.8237
-10.8178
-10.8102
-10.8011
-10.7907
-10.7792
-10.7672
-10.7553
-10.7443
-10.7352
-10.7295
-10.7289
-10.7355
-10.752
-10.7815
-10.8275
-10.8942
-10.9858
-11.1074
-11.263
-11.4588
-10.7908
-10.794
-10.8022
-10.8111
-10.8193
-10.8268
-10.8333
-10.8384
-10.8421
-10.8442
-10.8448
-10.844
-10.8417
-10.838
-10.8332
-10.8274
-10.8208
-10.8139
-10.8073
-10.8015
-10.7976
-10.7966
-10.7998
-10.8092
-10.8266
-10.8545
-10.8956
-10.9532
-11.0306
-11.1314
-11.2593
-11.4175
-11.6102
-10.8085
-10.8112
-10.818
-10.826
-10.8336
-10.8408
-10.8473
-10.8528
-10.8571
-10.8603
-10.8622
-10.863
-10.8627
-10.8614
-10.8594
-10.8569
-10.8542
-10.8518
-10.8503
-10.8504
-10.853
-10.8593
-10.8706
-10.8886
-10.9152
-10.9525
-11.003
-11.0693
-11.1543
-11.2606
-11.3912
-11.548
-11.7341
-10.8259
-10.8281
-10.834
-10.8412
-10.8483
-10.8552
-10.8617
-10.8675
-10.8724
-10.8763
-10.8794
-10.8817
-10.8833
-10.8843
-10.885
-10.8857
-10.8867
-10.8886
-10.8919
-10.8975
-10.9062
-10.9192
-10.9378
-10.9634
-10.9978
-11.0428
-11.1006
-11.1734
-11.2632
-11.3723
-11.5026
-11.6554
-11.8324
-10.843
-10.845
-10.8501
-10.8566
-10.8634
-10.8702
-10.8769
-10.883
-10.8886
-10.8936
-10.8981
-10.902
-10.9056
-10.909
-10.9124
-10.9163
-10.921
-10.927
-10.9349
-10.9456
-10.9598
-10.9787
-11.0035
-11.0355
-11.0762
-11.1272
-11.1903
-11.2672
-11.3595
-11.4688
-11.5964
-11.7428
-11.9092
-10.86
-10.8617
-10.8664
-10.8724
-10.8789
-10.8857
-10.8925
-10.8991
-10.9053
-10.9113
-10.917
-10.9225
-10.928
-10.9336
-10.9397
-10.9465
-10.9546
-10.9644
-10.9765
-10.9917
-11.0109
-11.0349
-11.065
-11.1022
-11.1479
-11.2034
-11.27
-11.3492
-11.4421
-11.5496
-11.6727
-11.8114
-11.9661
-10.8768
-10.8784
-10.8826
-10.8883
-10.8947
-10.9015
-10.9085
-10.9156
-10.9227
-10.9297
-10.9367
-10.9438
-10.9512
-10.9591
-10.9677
-10.9774
-10.9887
-11.0021
-11.018
-11.0374
-11.0608
-11.0892
-11.1236
-11.1649
-11.2143
-11.2727
-11.3414
-11.4212
-11.5129
-11.6172
-11.7344
-11.8643
-12.0068
-10.8934
-10.8949
-10.8989
-10.9044
-10.9107
-10.9176
-10.925
-10.9326
-10.9404
-10.9485
-10.9568
-10.9654
-10.9746
-10.9846
-10.9956
-11.0079
-11.0221
-11.0386
-11.058
-11.0808
-11.1078
-11.1398
-11.1776
-11.222
-11.2739
-11.3341
-11.4034
-11.4825
-11.5718
-11.6717
-11.7821
-11.9027
-12.0331
-10.9099
-10.9113
-10.9152
-10.9206
-10.9269
-10.934
-10.9417
-10.9499
-10.9586
-10.9676
-10.9772
-10.9873
-10.9983
-11.0102
-11.0235
-11.0383
-11.0552
-11.0745
-11.0968
-11.1226
-11.1526
-11.1875
-11.2278
-11.2743
-11.3277
-11.3885
-11.4573
-11.5346
-11.6205
-11.7151
-11.8183
-11.9294
-12.0478
-10.9263
-10.9276
-10.9314
-10.9368
-10.9432
-10.9505
-10.9587
-10.9675
-10.9769
-10.987
-10.9977
-11.0093
-11.0219
-11.0357
-11.051
-11.068
-11.0872
-11.109
-11.1338
-11.1621
-11.1944
-11.2314
-11.2734
-11.3212
-11.3751
-11.4357
-11.5031
-11.5777
-11.6595
-11.7484
-11.844
-11.9456
-12.0527
-10.9424
-10.9438
-10.9476
-10.953
-10.9595
-10.9671
-10.9757
-10.9851
-10.9954
-11.0064
-11.0183
-11.0313
-11.0454
-11.0609
-11.0779
-11.0969
-11.1182
-11.142
-11.1688
-11.1991
-11.2332
-11.2716
-11.3147
-11.363
-11.4167
-11.4762
-11.5415
-11.6129
-11.6901
-11.7729
-11.8608
-11.9533
-12.0496
-10.9583
-10.9597
-10.9635
-10.969
-10.9758
-10.9837
-10.9928
-11.0028
-11.0138
-11.0258
-11.0389
-11.0531
-11.0686
-11.0856
-11.1043
-11.125
-11.1479
-11.1735
-11.2019
-11.2336
-11.269
-11.3083
-11.3518
-11.3999
-11.4528
-11.5106
-11.5733
-11.6409
-11.7132
-11.7899
-11.8704
-11.9542
-12.0405
-10.974
-10.9754
-10.9793
-10.9849
-10.9919
-11.0002
-11.0097
-11.0204
-11.0321
-11.045
-11.0591
-11.0744
-11.0911
-11.1095
-11.1296
-11.1517
-11.176
-11.2029
-11.2325
-11.2653
-11.3013
-11.3409
-11.3844
-11.4318
-11.4833
-11.5389
-11.5986
-11.6622
-11.7295
-11.8001
-11.8735
-11.949
-12.0261
-10.9893
-10.9907
-10.9947
-11.0005
-11.0078
-11.0165
-11.0265
-11.0377
-11.0502
-11.064
-11.079
-11.0954
-11.1132
-11.1328
-11.1541
-11.1774
-11.2028
-11.2307
-11.2612
-11.2946
-11.3309
-11.3705
-11.4134
-11.4597
-11.5094
-11.5626
-11.619
-11.6786
-11.7409
-11.8056
-11.8722
-11.9401
-12.0088
-11.0041
-11.0056
-11.0097
-11.0158
-11.0233
-11.0324
-11.0429
-11.0547
-11.0678
-11.0823
-11.0981
-11.1154
-11.1342
-11.1547
-11.1769
-11.2011
-11.2274
-11.2559
-11.2869
-11.3205
-11.3568
-11.3958
-11.4378
-11.4826
-11.5303
-11.5807
-11.6337
-11.6891
-11.7465
-11.8056
-11.8659
-11.9268
-11.9879
-11.0185
-11.02
-11.0243
-11.0306
-11.0384
-11.0479
-11.0589
-11.0713
-11.0852
-11.1004
-11.117
-11.1351
-11.1548
-11.1761
-11.1992
-11.2241
-11.251
-11.28
-11.3112
-11.3447
-11.3806
-11.4189
-11.4596
-11.5028
-11.5482
-11.5959
-11.6455
-11.6968
-11.7496
-11.8033
-11.8578
-11.9123
-11.9666
-11.0322
-11.0338
-11.0382
-11.0447
-11.0529
-11.0627
-11.0741
-11.087
-11.1014
-11.1172
-11.1345
-11.1532
-11.1735
-11.1954
-11.219
-11.2443
-11.2715
-11.3006
-11.3318
-11.3649
-11.4001
-11.4374
-11.4767
-11.518
-11.5611
-11.6058
-11.652
-11.6994
-11.7477
-11.7966
-11.8457
-11.8945
-11.9428
-11.0451
-11.0468
-11.0515
-11.0583
-11.0669
-11.0772
-11.0891
-11.1026
-11.1176
-11.1341
-11.152
-11.1714
-11.1923
-11.2147
-11.2387
-11.2644
-11.2918
-11.3209
-11.3518
-11.3845
-11.4189
-11.455
-11.4927
-11.532
-11.5727
-11.6147
-11.6576
-11.7013
-11.7455
-11.7898
-11.8341
-11.8777
-11.9206
-11.0572
-11.0589
-11.0638
-11.0708
-11.0796
-11.0902
-11.1025
-11.1164
-11.1317
-11.1486
-11.1669
-11.1867
-11.2079
-11.2307
-11.2549
-11.2807
-11.308
-11.3369
-11.3673
-11.3992
-11.4326
-11.4674
-11.5035
-11.5408
-11.5791
-11.6183
-11.6581
-11.6983
-11.7387
-11.779
-11.8188
-11.858
-11.8961
-11.0682
-11.0701
-11.0753
-11.0829
-11.0923
-11.1035
-11.1163
-11.1308
-11.1468
-11.1642
-11.183
-11.2032
-11.2249
-11.2479
-11.2723
-11.2981
-11.3253
-11.3538
-11.3837
-11.4148
-11.4472
-11.4806
-11.5151
-11.5504
-11.5864
-11.6229
-11.6598
-11.6968
-11.7337
-11.7702
-11.8061
-11.8412
-11.8753
-11.078
-11.0798
-11.0851
-11.0928
-11.1023
-11.1137
-11.1268
-11.1416
-11.1578
-11.1755
-11.1946
-11.2151
-11.2369
-11.26
-11.2844
-11.3101
-11.337
-11.3651
-11.3943
-11.4245
-11.4558
-11.4878
-11.5207
-11.5541
-11.5879
-11.622
-11.6562
-11.6903
-11.724
-11.7572
-11.7897
-11.8212
-11.8516
-11.0865
-11.0888
-11.0949
-11.1034
-11.1138
-11.1259
-11.1398
-11.1551
-11.1718
-11.19
-11.2094
-11.2301
-11.2521
-11.2753
-11.2996
-11.3251
-11.3516
-11.3792
-11.4076
-11.437
-11.467
-11.4977
-11.529
-11.5605
-11.5923
-11.6242
-11.6559
-11.6873
-11.7182
-11.7484
-11.7777
-11.806
-11.8332
-11.0926
-11.0945
-11.1004
-11.1089
-11.1194
-11.1318
-11.1459
-11.1616
-11.1787
-11.1971
-11.2168
-11.2377
-11.2599
-11.2831
-11.3074
-11.3327
-11.3589
-11.3859
-11.4137
-11.4422
-11.4713
-11.5007
-11.5305
-11.5605
-11.5904
-11.6203
-11.6498
-11.6789
-11.7073
-11.735
-11.762
-11.7878
-11.8123
-11.0983
-11.1017
-11.1094
-11.1194
-11.1309
-11.144
-11.1585
-11.1746
-11.1919
-11.2106
-11.2304
-11.2513
-11.2733
-11.2964
-11.3204
-11.3453
-11.371
-11.3974
-11.4245
-11.452
-11.48
-11.5083
-11.5367
-11.5651
-11.5934
-11.6214
-11.649
-11.676
-11.7023
-11.728
-11.7524
-11.7757
-11.7979
-11.0972
-11.0993
-11.1067
-11.1171
-11.1296
-11.1438
-11.1592
-11.1759
-11.1939
-11.213
-11.2332
-11.2545
-11.2769
-11.3001
-11.3242
-11.3489
-11.3744
-11.4004
-11.4269
-11.4537
-11.4808
-11.5081
-11.5353
-11.5624
-11.5894
-11.6159
-11.6419
-11.6672
-11.6918
-11.7155
-11.7381
-11.7597
-11.7801
-11.1022
-11.1087
-11.1191
-11.1302
-11.1422
-11.156
-11.1715
-11.1882
-11.2061
-11.2251
-11.2449
-11.2657
-11.2877
-11.3106
-11.3343
-11.3587
-11.3836
-11.4091
-11.4349
-11.4611
-11.4874
-11.5139
-11.54
-11.566
-11.5917
-11.6169
-11.6415
-11.6655
-11.6886
-11.7108
-11.7319
-11.752
-11.7708
-11.0835
-11.0888
-11.1027
-11.1169
-11.132
-11.1486
-11.1661
-11.1843
-11.2034
-11.2233
-11.2444
-11.2662
-11.2886
-11.3116
-11.3353
-11.3596
-11.3843
-11.4094
-11.4348
-11.4603
-11.4859
-11.5113
-11.5368
-11.5619
-11.5866
-11.6107
-11.6343
-11.657
-11.679
-11.7
-11.7199
-11.7388
-11.7565
-11.0981
-11.1089
-11.1216
-11.1331
-11.1465
-11.1614
-11.1772
-11.1942
-11.2124
-11.2317
-11.2521
-11.2733
-11.2953
-11.318
-11.3414
-11.3655
-11.39
-11.4149
-11.4401
-11.4654
-11.4907
-11.5159
-11.5409
-11.5656
-11.5898
-11.6135
-11.6364
-11.6586
-11.6799
-11.7002
-11.7195
-11.7376
-11.7545
-11.0014
-11.0691
-11.0966
-11.1127
-11.1328
-11.1526
-11.1713
-11.1903
-11.2099
-11.2302
-11.251
-11.2726
-11.2947
-11.3175
-11.3408
-11.3646
-11.3887
-11.4132
-11.4378
-11.4624
-11.4871
-11.5115
-11.5358
-11.5596
-11.5829
-11.6057
-11.6278
-11.649
-11.6694
-11.6889
-11.7073
-11.7247
-11.7409
-7.57729
-7.24265
-7.97924
-9.83539
-13.017
-17.4807
-22.7668
-28.2398
-33.0763
-36.3941
-37.5281
-36.3102
-33.1351
-28.6462
-23.3811
-17.7164
-12.0795
-7.05999
-3.15322
-0.537004
0.856247
1.0946
0.244916
-1.71077
-4.94319
-9.47552
-15.0494
-21.2322
-27.6244
-33.9421
-39.9489
-45.3698
-49.8632
-53.0744
-54.7147
-54.6152
-52.7581
-49.3058
-44.4787
-38.5418
-31.8841
-25.1254
-19.0045
-14.0091
-10.2007
-7.3644
-5.24827
-3.66307
-2.47564
-1.58796
-0.928091
-0.443442
-0.0941163
0.151235
0.317575
0.424674
0.487993
0.519359
0.527705
0.519783
0.500692
0.474279
0.443433
0.410294
0.376424
0.342935
0.310591
0.279887
0.251122
0.224441
0.199885
0.177423
0.156978
0.138436
0.121661
0.106522
0.0928955
0.080667
0.06973
0.0599537
0.0512159
0.0434204
0.0364714
0.0303071
0.0249406
0.0203764
0.0165629
0.013458
0.010924
0.00889662
0.00719796
0.005842
0.00440266
0.00360483
0.00198036
0.00244038
-0.000733096
0.00363153
-0.00630333
0.0120015
-7.71094
-7.50466
-7.78077
-9.54978
-12.9269
-17.2288
-21.9628
-26.7261
-30.8981
-33.7891
-34.9125
-34.0261
-31.287
-27.132
-22.1272
-16.816
-11.6903
-7.20097
-3.68388
-1.28083
0.0241174
0.267198
-0.524116
-2.33247
-5.23854
-9.31345
-14.418
-20.2147
-26.3081
-32.3686
-38.1179
-43.2747
-47.5232
-50.5457
-52.0851
-51.982
-50.2011
-46.8743
-42.2089
-36.5052
-30.2148
-23.9736
-18.3957
-13.8251
-10.2715
-7.55952
-5.49453
-3.92409
-2.73305
-1.83246
-1.15526
-0.651377
-0.282337
-0.0176733
0.16703
0.29121
0.370116
0.415541
0.436489
0.439808
0.430702
0.413129
0.390086
0.363816
0.335978
0.307773
0.28005
0.253385
0.228143
0.204539
0.182669
0.162552
0.144156
0.127402
0.112184
0.0983942
0.0859285
0.074693
0.0646004
0.0555489
0.0474396
0.0401928
0.0337261
0.0279798
0.0229667
0.0186988
0.0151273
0.012221
0.00985289
0.00795846
0.00637418
0.00513023
0.00378743
0.00307985
0.00154008
0.00208448
-0.00100611
0.00344444
-0.00639366
0.0119684
-8.39847
-8.32579
-8.82414
-10.4926
-13.3364
-17.121
-21.4311
-25.7012
-29.3533
-31.9178
-32.9434
-32.0601
-29.3826
-25.4056
-20.7435
-15.9385
-11.3893
-7.40946
-4.25038
-2.05126
-0.83818
-0.597317
-1.31941
-2.99297
-5.63121
-9.28842
-13.8963
-19.2228
-24.9292
-30.6727
-36.142
-41.0355
-45.0473
-47.8865
-49.3215
-49.1991
-47.474
-44.2625
-39.783
-34.3792
-28.5479
-22.8743
-17.8346
-13.6591
-10.3382
-7.74315
-5.73013
-4.17761
-2.98607
-2.07506
-1.38232
-0.860445
-0.472497
-0.189005
0.0137852
0.154921
0.249442
0.309048
0.342758
0.357493
0.358564
0.350028
0.33498
0.31576
0.294122
0.271358
0.248399
0.225898
0.204293
0.183862
0.164758
0.147051
0.130751
0.115822
0.102197
0.0898008
0.0785591
0.0683985
0.0592455
0.0510116
0.0436061
0.0369589
0.0309992
0.0256773
0.0210195
0.0170322
0.0136881
0.0109669
0.00875965
0.00700152
0.00552908
0.00439752
0.0031529
0.00253679
0.00108277
0.00171429
-0.00129283
0.00325075
-0.00649491
0.0119446
-9.03428
-9.2083
-9.84654
-11.3319
-13.8088
-17.1332
-20.9159
-24.6676
-27.8799
-30.0178
-30.6347
-29.5926
-27.0565
-23.4763
-19.3771
-15.1855
-11.2006
-7.67663
-4.84125
-2.83962
-1.72199
-1.49137
-2.14528
-3.68613
-6.09294
-9.37535
-13.4944
-18.3005
-23.5384
-28.8905
-34.0322
-38.6441
-42.4179
-45.0744
-46.3996
-46.2469
-44.5713
-41.4909
-37.257
-32.2485
-26.9559
-21.8656
-17.3301
-13.5073
-10.3955
-7.9117
-5.95322
-4.42277
-3.23424
-2.31539
-1.60893
-1.07029
-0.664285
-0.362521
-0.141962
0.0159752
0.126075
0.199932
0.246546
0.272879
0.284311
0.284995
0.278125
0.266134
0.250864
0.233696
0.215643
0.197437
0.179589
0.16244
0.146205
0.131005
0.116894
0.103876
0.0919184
0.0809745
0.0709913
0.0619162
0.0536944
0.0462607
0.0395465
0.0334977
0.0280596
0.0231876
0.0189099
0.0152372
0.0121512
0.00963977
0.00761143
0.00600199
0.00464541
0.00362892
0.00248715
0.00196676
0.000602066
0.00132566
-0.00159603
0.00304919
-0.00660888
0.0119307
-9.5565
-9.86338
-10.5748
-11.9411
-14.0673
-16.8446
-19.9942
-23.1243
-25.751
-27.4013
-27.8029
-26.8684
-24.7244
-21.7077
-18.2199
-14.5966
-11.1033
-7.98205
-5.44631
-3.63723
-2.61648
-2.40131
-2.9919
-4.39922
-6.59666
-9.55435
-13.2263
-17.5078
-22.2179
-27.0983
-31.8413
-36.1241
-39.6358
-42.0989
-43.3075
-43.1226
-41.5168
-38.6262
-34.7283
-30.2057
-25.4889
-20.9594
-16.8766
-13.3645
-10.4422
-8.0659
-6.16423
-4.65926
-3.47689
-2.55273
-1.83444
-1.28043
-0.857317
-0.537913
-0.29997
-0.125425
0.000194834
0.0883281
0.147941
0.186014
0.207981
0.218069
0.219552
0.214955
0.206212
0.194788
0.18178
0.167995
0.154016
0.14025
0.126971
0.11435
0.102489
0.0914331
0.0811882
0.0717402
0.0630651
0.0551333
0.0479084
0.0413417
0.0353771
0.0299711
0.0250807
0.0206718
0.0167791
0.0134195
0.0105876
0.00828298
0.00643026
0.00497182
0.00373559
0.00283465
0.00179817
0.00137555
0.000101827
0.000921112
-0.00191445
0.002841
-0.00673558
0.011929
-10.0076
-10.392
-11.1294
-12.3807
-14.2019
-16.5001
-19.0585
-21.5675
-23.6635
-25.0091
-25.3525
-24.5877
-22.8102
-20.2735
-17.2864
-14.1355
-11.0692
-8.31151
-6.05378
-4.42821
-3.50254
-3.30534
-3.84111
-5.12017
-7.12138
-9.79818
-13.0831
-16.881
-21.0538
-25.4054
-29.6762
-33.5657
-36.7707
-39.0138
-40.0952
-39.8965
-38.4154
-35.7998
-32.3243
-28.3343
-24.1806
-20.1564
-16.4657
-13.2249
-10.4763
-8.20503
-6.3626
-4.88652
-3.71346
-2.78656
-2.05839
-1.49043
-1.05124
-0.714886
-0.459997
-0.26909
-0.12805
-0.0256298
0.0470535
0.0969792
0.129626
0.14928
0.159284
0.162249
0.160189
0.154654
0.146823
0.137582
0.127586
0.117307
0.107079
0.0971263
0.0875983
0.0785803
0.0701158
0.0622209
0.0548973
0.048137
0.0419232
0.0362282
0.0310161
0.0262597
0.0219313
0.0180058
0.0145206
0.0114989
0.00894388
0.00686439
0.00519842
0.00390083
0.00279339
0.00200675
0.00107879
0.000757221
-0.000422758
0.000496935
-0.00225124
0.00262419
-0.00687776
0.0119398
-10.4189
-10.8488
-11.5808
-12.7165
-14.2868
-16.2147
-18.3234
-20.3657
-22.0662
-23.1498
-23.4003
-22.7363
-21.23
-19.0686
-16.4964
-13.7588
-11.0774
-8.65119
-6.6505
-5.19827
-4.36541
-4.18761
-4.67519
-5.83572
-7.65156
-10.076
-13.0297
-16.4099
-20.0919
-23.917
-27.6785
-31.1218
-33.9724
-35.9706
-36.9336
-36.7592
-35.4592
-33.1772
-30.1569
-26.6832
-23.033
-19.4407
-16.0843
-13.0834
-10.497
-8.32947
-6.54845
-5.10429
-3.94347
-3.01632
-2.28026
-1.69986
-1.24567
-0.89312
-0.621778
-0.414798
-0.258477
-0.141802
-0.0559983
0.00588278
0.0493342
0.0786912
0.0973683
0.108046
0.112816
0.113309
0.110786
0.106208
0.100303
0.0936091
0.0865184
0.0793104
0.0721806
0.0652579
0.0586238
0.0523276
0.0463998
0.0408573
0.0357037
0.0309301
0.026516
0.0224462
0.0187056
0.0152798
0.0122118
0.00953253
0.00725685
0.00540468
0.00392575
0.00279077
0.00182189
0.00114962
0.000332581
0.000114551
-0.000969684
5.47425e-05
-0.00260531
0.00240048
-0.00703486
0.0119666
-10.7751
-11.2261
-11.9333
-12.9589
-14.3164
-15.9404
-17.6871
-19.3579
-20.726
-21.5747
-21.7428
-21.163
-19.8798
-18.0342
-15.8234
-13.4536
-11.1179
-8.99208
-7.22769
-5.93828
-5.1953
-5.03826
-5.48222
-6.53394
-8.17613
-10.3668
-13.0284
-16.0542
-19.3189
-22.6779
-25.9588
-28.9547
-31.4379
-33.1891
-34.0468
-33.9175
-32.8197
-30.8744
-28.2762
-25.2508
-22.0217
-18.7897
-15.7209
-12.9368
-10.5044
-8.43957
-6.7218
-5.31227
-4.16649
-3.24157
-2.49962
-1.9083
-1.44024
-1.07229
-0.785035
-0.562321
-0.390898
-0.260028
-0.161084
-0.0871744
-0.0328072
0.00638576
0.0338712
0.0523968
0.0641319
0.0707842
0.0736916
0.073892
0.0721835
0.0691708
0.0653068
0.0609253
0.0562699
0.0515116
0.0467694
0.0421262
0.0376401
0.0333508
0.0292832
0.0254487
0.0218462
0.0184768
0.0153396
0.0124319
0.00980048
0.00748346
0.00550455
0.0038934
0.00261113
0.00164315
0.000817608
0.000261735
-0.000443245
-0.000555356
-0.00154187
-0.000408291
-0.00297973
0.00216735
-0.00721059
0.0120086
-11.0827
-11.5367
-12.2053
-13.124
-14.2933
-15.6573
-17.0999
-18.4611
-19.5596
-20.2272
-20.3341
-19.8222
-18.7234
-17.1478
-15.2522
-13.2078
-11.1812
-9.3268
-7.77902
-6.6419
-5.9852
-5.85023
-6.25476
-7.20604
-8.68697
-10.6593
-13.0537
-15.7693
-18.6828
-21.6552
-24.531
-27.1367
-29.2884
-30.814
-31.5773
-31.4922
-30.5732
-28.9121
-26.6591
-23.9954
-21.1098
-18.1819
-15.3676
-12.7838
-10.4993
-8.53611
-6.88291
-5.51038
-4.38222
-3.4619
-2.71603
-2.11534
-1.63456
-1.25206
-0.949481
-0.711408
-0.525098
-0.380129
-0.268053
-0.182063
-0.116692
-0.0675543
-0.0311379
-0.00463578
0.0141902
0.0271219
0.0355736
0.0406585
0.0432455
0.0440049
0.0434497
0.0419682
0.0398525
0.0373169
0.0345192
0.0315748
0.0285715
0.0255757
0.0226339
0.0197773
0.0170221
0.0143834
0.0118731
0.0095003
0.0073173
0.005371
0.00369566
0.00233148
0.00125146
0.000453184
-0.000225706
-0.000657756
-0.00124966
-0.0012532
-0.00213966
-0.000891946
-0.00337391
0.00192682
-0.00740378
0.0120711
-11.3418
-11.786
-12.4079
-13.2255
-14.2306
-15.3752
-16.5649
-17.6718
-18.5521
-19.0716
-19.1278
-18.6747
-17.7348
-16.3916
-14.7698
-13.0117
-11.2602
-9.65003
-8.29982
-7.30403
-6.72914
-6.61674
-6.98612
-7.84481
-9.17694
-10.9467
-13.0928
-15.5254
-18.1309
-20.7785
-23.3243
-25.6154
-27.499
-28.8355
-29.5108
-29.4514
-28.6646
-27.2198
-25.2355
-22.8625
-20.2648
-17.6036
-15.021
-12.6255
-10.4831
-8.61995
-7.03213
-5.69859
-4.59043
-3.67698
-2.92911
-2.32059
-1.82828
-1.43211
-1.11482
-0.8618
-0.660853
-0.501911
-0.376738
-0.278642
-0.202199
-0.143023
-0.0975701
-0.0629807
-0.0369517
-0.0176297
-0.00352657
0.00654397
0.0135206
0.0181393
0.0209731
0.0224647
0.022955
0.0227031
0.0219064
0.0207137
0.0192392
0.0175741
0.015789
0.0139351
0.0120477
0.010158
0.0082923
0.0064725
0.00475555
0.00319611
0.0018378
0.000730418
-0.00014112
-0.000767429
-0.00129969
-0.0016045
-0.00208404
-0.00197796
-0.0027634
-0.00139769
-0.00379061
0.00167584
-0.00761938
0.012152
-11.5574
-11.983
-12.554
-13.2772
-14.1394
-15.0988
-16.0788
-16.977
-17.6794
-18.0803
-18.0991
-17.698
-16.8925
-15.7473
-14.3625
-12.8558
-11.3486
-9.95745
-8.78655
-7.92094
-7.42285
-7.33285
-7.67094
-8.44468
-9.63987
-11.2232
-13.1395
-15.3097
-17.6331
-19.9915
-22.2546
-24.2851
-25.9494
-27.1261
-27.7201
-27.6715
-26.9818
-25.7054
-23.9397
-21.813
-19.4688
-17.0495
-14.6817
-12.4633
-10.4573
-8.69202
-7.16989
-5.877
-4.79099
-3.88653
-3.13852
-2.52368
-2.02105
-1.6121
-1.28075
-1.01323
-0.797921
-0.625158
-0.486951
-0.376746
-0.289188
-0.219902
-0.165324
-0.12255
-0.0892187
-0.063408
-0.0435583
-0.0284114
-0.0169594
-0.00840173
-0.00210523
0.00242725
0.0055853
0.00767124
0.00892143
0.00952148
0.00961606
0.00931879
0.00872315
0.00790293
0.00691131
0.00579521
0.00459387
0.00334251
0.00210389
0.000941455
-9.04302e-05
-0.000932279
-0.00158766
-0.00203545
-0.00241661
-0.0025905
-0.00295422
-0.00273527
-0.00341688
-0.00192745
-0.00423011
0.00141674
-0.00785537
0.0122591
-11.7333
-12.1341
-12.6529
-13.289
-14.0268
-14.83
-15.6362
-16.3637
-16.9222
-17.2285
-17.219
-16.8635
-16.1733
-15.1987
-14.0196
-12.7331
-11.4418
-10.2461
-9.23689
-8.49024
-8.06343
-7.99511
-8.3053
-9.00142
-10.071
-11.4835
-13.1892
-15.1176
-17.1798
-19.2714
-21.2767
-23.0741
-24.5442
-25.5803
-26.1015
-26.0579
-25.4472
-24.3132
-22.7379
-20.8312
-18.7172
-16.52
-14.3513
-12.2993
-10.4232
-8.75325
-7.29674
-6.04582
-4.98386
-4.09034
-3.34397
-2.7243
-2.21252
-1.7917
-1.44696
-1.1654
-0.936043
-0.74964
-0.598485
-0.476194
-0.377496
-0.298049
-0.234277
-0.183241
-0.142524
-0.11014
-0.0844592
-0.0641541
-0.048149
-0.0355787
-0.0257507
-0.0181135
-0.0122284
-0.00774882
-0.00439941
-0.00196136
-0.000257695
0.000851629
0.00147935
0.00172044
0.00164908
0.00132794
0.000810469
0.000145514
-0.000598252
-0.00134993
-0.00204529
-0.00261549
-0.00305218
-0.00332178
-0.00355358
-0.0035991
-0.00384887
-0.00351797
-0.00409632
-0.00248045
-0.00469444
0.00114569
-0.00811843
0.0123883
-11.8735
-12.2462
-12.7134
-13.2701
-13.9
-14.5715
-15.2339
-15.8219
-16.2644
-16.4958
-16.4663
-16.152
-15.561
-14.7327
-13.7314
-12.637
-11.5358
-10.5136
-9.64952
-9.01074
-8.64939
-8.60158
-8.88675
-9.51214
-10.4668
-11.7233
-13.2369
-14.9446
-16.7677
-18.6139
-20.3814
-21.9635
-23.2552
-24.1643
-24.6196
-24.5778
-24.0353
-23.0276
-21.6231
-19.9153
-18.0105
-16.0166
-14.0315
-12.1349
-10.3822
-8.80461
-7.4133
-6.20536
-5.16909
-4.28831
-3.54523
-2.92217
-2.4024
-1.97061
-1.61315
-1.31804
-1.07495
-0.875106
-0.711113
-0.57678
-0.466943
-0.377305
-0.304292
-0.244933
-0.196764
-0.157737
-0.126156
-0.100624
-0.0799987
-0.0633521
-0.0499323
-0.0391339
-0.0304699
-0.0235501
-0.01806
-0.0137459
-0.0104012
-0.00785679
-0.00597727
-0.00464979
-0.00378041
-0.00328801
-0.00310574
-0.003172
-0.00341042
-0.00374082
-0.00408864
-0.00437614
-0.00458383
-0.00466663
-0.00474252
-0.0046548
-0.00478659
-0.0043399
-0.00481125
-0.00306222
-0.00518535
0.000865359
-0.00840513
0.0125506
-11.9828
-12.3254
-12.7429
-13.2279
-13.7642
-14.3248
-14.8684
-15.3427
-15.6919
-15.8646
-15.8217
-15.5444
-15.039
-14.3367
-13.4892
-12.5621
-11.6276
-10.7588
-10.0239
-9.48217
-9.18025
-9.15138
-9.41398
-9.97499
-10.8249
-11.9392
-13.278
-14.7854
-16.3916
-18.0152
-19.5665
-20.9524
-22.0819
-22.8752
-23.2692
-23.2267
-22.7431
-21.8467
-20.5943
-19.0647
-17.3486
-15.5394
-13.7231
-11.9713
-10.3355
-8.84712
-7.5203
-6.35604
-5.34685
-4.4804
-3.74217
-3.11706
-2.59041
-2.14854
-1.77903
-1.47084
-1.21436
-1.00129
-0.824587
-0.678278
-0.557325
-0.457489
-0.375207
-0.307488
-0.25182
-0.206097
-0.16856
-0.137744
-0.112443
-0.0916646
-0.074599
-0.0605877
-0.0490952
-0.0396877
-0.0320121
-0.0257806
-0.020756
-0.0167429
-0.0135801
-0.0111358
-0.00929817
-0.00796942
-0.00706693
-0.00651618
-0.00623329
-0.00613075
-0.00612435
-0.00612737
-0.00610842
-0.00600968
-0.00593618
-0.005722
-0.00574156
-0.00518333
-0.00555063
-0.00366792
-0.00570338
0.00057081
-0.00872461
0.0127387
-12.0646
-12.3767
-12.7474
-13.1682
-13.624
-14.0914
-14.5369
-14.9189
-15.1936
-15.3206
-15.2696
-15.026
-14.5948
-14.0009
-13.286
-12.5038
-11.7148
-10.9808
-10.3604
-9.90518
-9.65661
-9.64475
-9.88688
-10.3893
-11.144
-12.1291
-13.3093
-14.6353
-16.0454
-17.468
-18.8246
-20.0341
-21.0174
-21.7051
-22.0425
-21.9973
-21.564
-20.7648
-19.6468
-18.2759
-16.7294
-15.0878
-13.4265
-11.8093
-10.2841
-8.88189
-7.61858
-6.49839
-5.5174
-4.66669
-3.93469
-3.30879
-2.77633
-2.32522
-1.9443
-1.62352
-1.35397
-1.1279
-0.938635
-0.780436
-0.648412
-0.538395
-0.446842
-0.370745
-0.307553
-0.255103
-0.211573
-0.175434
-0.145415
-0.120463
-0.0997101
-0.0824456
-0.0680866
-0.0561564
-0.0462636
-0.0380861
-0.0313564
-0.0258525
-0.0213888
-0.0178106
-0.0149912
-0.0128138
-0.0111809
-0.0100051
-0.00919361
-0.00864894
-0.00827624
-0.00798146
-0.00772258
-0.00743052
-0.00719808
-0.00685038
-0.00675176
-0.0060766
-0.00633414
-0.0043096
-0.006253
0.000264978
-0.00907114
0.0129684
-12.1236
-12.4056
-12.7328
-13.0966
-13.4829
-13.8721
-14.2369
-14.5441
-14.7594
-14.8513
-14.7963
-14.5833
-14.2164
-13.7157
-13.1149
-12.4582
-11.7957
-11.1795
-10.6598
-10.281
-10.0797
-10.0828
-10.3061
-10.7553
-11.4234
-12.2915
-13.3282
-14.4902
-15.7234
-16.965
-18.1466
-19.1975
-20.0493
-20.6418
-20.9276
-20.8783
-20.4878
-19.7735
-18.7741
-17.5445
-16.1505
-14.661
-13.142
-11.6502
-10.2295
-8.91011
-7.70907
-6.63307
-5.68115
-4.84736
-4.12284
-3.49728
-2.95997
-2.50041
-2.1087
-1.77576
-1.49347
-1.25464
-1.05296
-0.882978
-0.739949
-0.619792
-0.518991
-0.434525
-0.363804
-0.304615
-0.255073
-0.213587
-0.178821
-0.149663
-0.125188
-0.104634
-0.0873708
-0.0728807
-0.0607341
-0.0505752
-0.0421068
-0.0350798
-0.0292853
-0.0245463
-0.0207161
-0.0176658
-0.0152808
-0.0134612
-0.0121054
-0.0111089
-0.010367
-0.00977819
-0.00928833
-0.00881534
-0.00843764
-0.00797019
-0.00776539
-0.00698317
-0.00713767
-0.00497478
-0.00683149
-5.85539e-05
-0.00945727
0.0132267
-12.1624
-12.4156
-12.7031
-13.0166
-13.3435
-13.6673
-13.9657
-14.2126
-14.3809
-14.4462
-14.3904
-14.2052
-13.8942
-13.4737
-12.9709
-12.4221
-11.869
-11.3552
-10.9232
-10.6114
-10.4516
-10.4674
-10.6731
-11.0738
-11.6637
-12.426
-13.3333
-14.3475
-15.4215
-16.5006
-17.5251
-18.4338
-19.1676
-19.6743
-19.913
-19.8587
-19.5049
-18.8649
-17.9703
-16.8668
-15.6099
-14.2586
-12.8702
-11.4949
-10.173
-8.93302
-7.79281
-6.76084
-5.8386
-5.0227
-4.30672
-3.68251
-3.14122
-2.67391
-2.27194
-1.92728
-1.63256
-1.38118
-1.16725
-0.985601
-0.831655
-0.701423
-0.591422
-0.498623
-0.420399
-0.354485
-0.298938
-0.252102
-0.212581
-0.179204
-0.15099
-0.127128
-0.106942
-0.0898738
-0.0754559
-0.0632998
-0.0530787
-0.0445171
-0.0373823
-0.0314762
-0.0266315
-0.0227024
-0.0195636
-0.0170982
-0.0151958
-0.0137418
-0.0126179
-0.0117193
-0.0109814
-0.0103113
-0.00977415
-0.00917591
-0.0088552
-0.00795705
-0.0079992
-0.00568746
-0.00744857
-0.000397106
-0.0098737
0.0135364
-12.1852
-12.4112
-12.6626
-12.9319
-13.2081
-13.4773
-13.7214
-13.9196
-14.0509
-14.0963
-14.0421
-13.8821
-13.6195
-13.2677
-12.8489
-12.3927
-11.9337
-11.5083
-11.1523
-10.8986
-10.7745
-10.8007
-10.9898
-11.3464
-11.8655
-12.5324
-13.3232
-14.2047
-15.136
-16.0694
-16.9534
-17.735
-18.3633
-18.7931
-18.9891
-18.9292
-18.6068
-18.032
-17.2301
-16.2392
-15.1058
-13.8801
-12.6117
-11.3448
-10.1158
-8.95193
-7.87093
-6.88261
-5.99041
-5.19315
-4.48657
-3.86455
-3.32002
-2.84555
-2.43381
-2.07777
-1.77089
-1.50717
-1.28116
-1.08797
-0.923214
-0.782998
-0.663875
-0.562805
-0.477129
-0.404528
-0.343
-0.29083
-0.246559
-0.208957
-0.176993
-0.149805
-0.126675
-0.107003
-0.0902873
-0.0761064
-0.0641048
-0.0539809
-0.0454784
-0.0383777
-0.0324941
-0.0276648
-0.0237466
-0.0206159
-0.0181508
-0.016231
-0.0147263
-0.0135286
-0.0125604
-0.0117153
-0.0110427
-0.0103384
-0.00992285
-0.00892764
-0.00887129
-0.00642082
-0.00809479
-0.000758788
-0.0103374
0.0138752
-12.1942
-12.3948
-12.6141
-12.845
-13.078
-13.3017
-13.5013
-13.6605
-13.7629
-13.7938
-13.7429
-13.6057
-13.3851
-13.0922
-12.745
-12.368
-11.9894
-11.6398
-11.3491
-11.1451
-11.0513
-11.0856
-11.259
-11.5753
-12.0304
-12.6115
-13.2977
-14.0604
-14.864
-15.6674
-16.426
-17.0942
-17.6283
-17.9893