/*--------------------------------*- C++ -*----------------------------------*\
  =========                 |
  \\      /  F ield         | OpenFOAM: The Open Source CFD Toolbox
   \\    /   O peration     | Website:  https://openfoam.org
    \\  /    A nd           | Version:  10
     \\/     M anipulation  |
\*---------------------------------------------------------------------------*/
FoamFile
{
    format      ascii;
    class       surfaceScalarField;
    location    "0.08";
    object      phi;
}
// * * * * * * * * * * * * * * * * * * * * * * * * * * * * * * * * * * * * * //

dimensions      [0 3 -1 0 0 0 0];

internalField   nonuniform List<scalar> 
13452
(
5.94511e-05
8.17385e-07
5.84657e-05
9.85343e-07
5.74369e-05
1.02888e-06
5.63772e-05
1.05969e-06
5.53151e-05
1.06203e-06
5.42623e-05
1.05279e-06
5.32224e-05
1.03996e-06
5.21972e-05
1.02522e-06
5.11874e-05
1.00973e-06
5.01931e-05
9.94383e-07
4.92133e-05
9.79786e-07
4.82468e-05
9.66449e-07
4.72919e-05
9.54889e-07
4.63463e-05
9.45656e-07
4.54069e-05
9.39372e-07
4.44701e-05
9.36764e-07
4.35314e-05
9.38709e-07
4.25851e-05
9.46277e-07
4.16244e-05
9.60793e-07
4.06405e-05
9.83895e-07
3.96228e-05
1.01762e-06
3.85584e-05
1.06448e-06
3.74308e-05
1.12754e-06
3.62203e-05
1.21049e-06
3.49027e-05
1.31759e-06
3.34491e-05
1.45364e-06
3.18256e-05
1.62347e-06
2.99938e-05
1.83187e-06
2.79137e-05
2.08004e-06
2.5541e-05
2.3727e-06
2.28574e-05
2.68358e-06
1.98101e-05
3.0473e-06
3.28788e-06
1.65223e-05
6.24902e-05
3.17551e-07
6.29652e-05
5.10333e-07
6.34113e-05
5.82757e-07
6.3819e-05
6.51982e-07
6.41807e-05
7.00356e-07
6.44959e-05
7.3757e-07
6.4766e-05
7.69899e-07
6.4993e-05
7.9815e-07
6.51796e-05
8.23188e-07
6.53279e-05
8.46016e-07
6.54403e-05
8.6743e-07
6.55186e-05
8.88186e-07
6.55644e-05
9.09101e-07
6.55789e-05
9.31074e-07
6.55632e-05
9.55124e-07
6.55175e-05
9.82445e-07
6.54417e-05
1.01446e-06
6.53351e-05
1.05291e-06
6.5196e-05
1.09994e-06
6.50217e-05
1.15818e-06
6.48083e-05
1.23099e-06
6.45503e-05
1.32254e-06
6.42398e-05
1.43805e-06
6.38662e-05
1.58404e-06
6.34153e-05
1.76853e-06
6.28677e-05
2.00118e-06
6.21979e-05
2.29324e-06
6.13725e-05
2.65733e-06
6.03469e-05
3.10564e-06
5.90683e-05
3.65125e-06
5.74582e-05
4.29368e-06
5.54569e-05
5.04861e-06
5.86286e-06
5.28819e-05
6.38338e-05
2.4514e-07
6.39077e-05
4.36462e-07
6.3974e-05
5.16414e-07
6.40422e-05
5.83779e-07
6.41115e-05
6.31062e-07
6.4184e-05
6.65144e-07
6.42604e-05
6.93443e-07
6.43408e-05
7.17778e-07
6.44246e-05
7.39327e-07
6.45113e-05
7.59308e-07
6.46001e-05
7.78654e-07
6.46901e-05
7.98178e-07
6.47805e-05
8.18715e-07
6.48704e-05
8.41154e-07
6.49591e-05
8.6648e-07
6.50457e-05
8.95841e-07
6.51296e-05
9.306e-07
6.52101e-05
9.7241e-07
6.52867e-05
1.02331e-06
6.53591e-05
1.08581e-06
6.5427e-05
1.16308e-06
6.54905e-05
1.25905e-06
6.55499e-05
1.37866e-06
6.56058e-05
1.52808e-06
6.56594e-05
1.71496e-06
6.57119e-05
1.9487e-06
6.57644e-05
2.2407e-06
6.58173e-05
2.60448e-06
6.58675e-05
3.05537e-06
6.59079e-05
3.61085e-06
6.5914e-05
4.28764e-06
6.58564e-05
5.10618e-06
6.0797e-06
6.56396e-05
6.56399e-05
1.88358e-07
6.569e-05
3.86331e-07
6.57231e-05
4.83252e-07
6.57479e-05
5.59013e-07
6.57652e-05
6.13803e-07
6.57768e-05
6.53483e-07
6.57843e-05
6.85943e-07
6.57884e-05
7.13754e-07
6.57894e-05
7.38299e-07
6.57877e-05
7.60969e-07
6.57835e-05
7.82863e-07
6.57768e-05
8.04921e-07
6.57674e-05
8.28087e-07
6.57552e-05
8.53347e-07
6.57399e-05
8.81777e-07
6.57212e-05
9.14594e-07
6.56985e-05
9.53218e-07
6.56716e-05
9.99332e-07
6.564e-05
1.05496e-06
6.56032e-05
1.12254e-06
6.55612e-05
1.20507e-06
6.55141e-05
1.30616e-06
6.54626e-05
1.43021e-06
6.54081e-05
1.58253e-06
6.53536e-05
1.76947e-06
6.53038e-05
1.99853e-06
6.52661e-05
2.27842e-06
6.52516e-05
2.61898e-06
6.52758e-05
3.03113e-06
6.53595e-05
3.52718e-06
6.55273e-05
4.11982e-06
6.5808e-05
4.82547e-06
5.65625e-06
6.62315e-05
6.74898e-05
1.55387e-07
6.75287e-05
3.47336e-07
6.75599e-05
4.5209e-07
6.75872e-05
5.31737e-07
6.76091e-05
5.91917e-07
6.76254e-05
6.3711e-07
6.7637e-05
6.74363e-07
6.76442e-05
7.06603e-07
6.76471e-05
7.35378e-07
6.76459e-05
7.6218e-07
6.76405e-05
7.88238e-07
6.76308e-05
8.14594e-07
6.76166e-05
8.42283e-07
6.75976e-05
8.72377e-07
6.75734e-05
9.06032e-07
6.75434e-05
9.44544e-07
6.75072e-05
9.89403e-07
6.74642e-05
1.04235e-06
6.74137e-05
1.10545e-06
6.73551e-05
1.18115e-06
6.72878e-05
1.27236e-06
6.72114e-05
1.38257e-06
6.71257e-05
1.51588e-06
6.70312e-05
1.67711e-06
6.69288e-05
1.87181e-06
6.6821e-05
2.1063e-06
6.67119e-05
2.38751e-06
6.6608e-05
2.72292e-06
6.6519e-05
3.12009e-06
6.64598e-05
3.58646e-06
6.64513e-05
4.12825e-06
6.65234e-05
4.75336e-06
5.45999e-06
6.67197e-05
6.94109e-05
1.28484e-07
6.94476e-05
3.10714e-07
6.94776e-05
4.22081e-07
6.95027e-05
5.06609e-07
6.95225e-05
5.72111e-07
6.95372e-05
6.22432e-07
6.95476e-05
6.63947e-07
6.95542e-05
6.99997e-07
6.95572e-05
7.32386e-07
6.95566e-05
7.62725e-07
6.95525e-05
7.92351e-07
6.95447e-05
8.22422e-07
6.95329e-05
8.54047e-07
6.9517e-05
8.88366e-07
6.94964e-05
9.26597e-07
6.94708e-05
9.7009e-07
6.94399e-05
1.02037e-06
6.9403e-05
1.07921e-06
6.93598e-05
1.14865e-06
6.93099e-05
1.23109e-06
6.92529e-05
1.32935e-06
6.91888e-05
1.44669e-06
6.91178e-05
1.58688e-06
6.90406e-05
1.75426e-06
6.89588e-05
1.95364e-06
6.88747e-05
2.19034e-06
6.87923e-05
2.46992e-06
6.87172e-05
2.79804e-06
6.86573e-05
3.18004e-06
6.86231e-05
3.62062e-06
6.86288e-05
4.12253e-06
6.86939e-05
4.68832e-06
5.31061e-06
6.88433e-05
7.13842e-05
1.10598e-07
7.14121e-05
2.82869e-07
7.14368e-05
3.97378e-07
7.14589e-05
4.84522e-07
7.14777e-05
5.53315e-07
7.14926e-05
6.075e-07
7.15039e-05
6.52654e-07
7.15117e-05
6.92186e-07
7.15161e-05
7.28004e-07
7.15171e-05
7.6174e-07
7.15146e-05
7.94831e-07
7.15085e-05
8.28464e-07
7.14988e-05
8.63813e-07
7.14851e-05
9.02064e-07
7.14672e-05
9.44467e-07
7.14449e-05
9.92392e-07
7.14179e-05
1.04737e-06
7.1386e-05
1.11115e-06
7.13489e-05
1.1857e-06
7.13067e-05
1.27333e-06
7.12594e-05
1.37663e-06
7.12075e-05
1.4986e-06
7.11518e-05
1.64257e-06
7.10938e-05
1.81225e-06
7.10358e-05
2.01167e-06
7.09811e-05
2.24503e-06
7.09345e-05
2.51654e-06
7.09024e-05
2.83013e-06
7.08933e-05
3.18909e-06
7.09183e-05
3.59566e-06
7.09908e-05
4.04995e-06
7.11282e-05
4.55095e-06
5.0888e-06
7.135e-05
7.34187e-05
9.71587e-08
7.34429e-05
2.58641e-07
7.34665e-05
3.73867e-07
7.34879e-05
4.63079e-07
7.35062e-05
5.34969e-07
7.35208e-05
5.92971e-07
7.35316e-05
6.4178e-07
7.35391e-05
6.8473e-07
7.35433e-05
7.23846e-07
7.35442e-05
7.60819e-07
7.35419e-05
7.97114e-07
7.35363e-05
8.34032e-07
7.35274e-05
8.72755e-07
7.35149e-05
9.14505e-07
7.34989e-05
9.60555e-07
7.3479e-05
1.01227e-06
7.34552e-05
1.07116e-06
7.34274e-05
1.1389e-06
7.33958e-05
1.21737e-06
7.33604e-05
1.30868e-06
7.33219e-05
1.41521e-06
7.32809e-05
1.53957e-06
7.32388e-05
1.68462e-06
7.31977e-05
1.8534e-06
7.31603e-05
2.04909e-06
7.31305e-05
2.27477e-06
7.31138e-05
2.53331e-06
7.31169e-05
2.82702e-06
7.31487e-05
3.15727e-06
7.32202e-05
3.52415e-06
7.33447e-05
3.92542e-06
7.35384e-05
4.35734e-06
4.8084e-06
7.38188e-05
7.55123e-05
8.73266e-08
7.55318e-05
2.39155e-07
7.55517e-05
3.5394e-07
7.55703e-05
4.44463e-07
7.55868e-05
5.18473e-07
7.56005e-05
5.79311e-07
7.56112e-05
6.3104e-07
7.56191e-05
6.76865e-07
7.56241e-05
7.18868e-07
7.56261e-05
7.58757e-07
7.56253e-05
7.97977e-07
7.56215e-05
8.37839e-07
7.56146e-05
8.7958e-07
7.56047e-05
9.24415e-07
7.55917e-05
9.73607e-07
7.55754e-05
1.02849e-06
7.55561e-05
1.09052e-06
7.55337e-05
1.16127e-06
7.55086e-05
1.24247e-06
7.54813e-05
1.33603e-06
7.54524e-05
1.44403e-06
7.54233e-05
1.56869e-06
7.53956e-05
1.71234e-06
7.53716e-05
1.87737e-06
7.53546e-05
2.06608e-06
7.53489e-05
2.28054e-06
7.53598e-05
2.52236e-06
7.53944e-05
2.79245e-06
7.54611e-05
3.09055e-06
7.55702e-05
3.41502e-06
7.57338e-05
3.76188e-06
7.59656e-05
4.12548e-06
4.49381e-06
7.62802e-05
7.7667e-05
7.98665e-08
7.76834e-05
2.2282e-07
7.77014e-05
3.3587e-07
7.7719e-05
4.26862e-07
7.77351e-05
5.02392e-07
7.77488e-05
5.65637e-07
7.77598e-05
6.2006e-07
7.7768e-05
6.68607e-07
7.77736e-05
7.13325e-07
7.77765e-05
7.55876e-07
7.77767e-05
7.97767e-07
7.77742e-05
8.40296e-07
7.77691e-05
8.84692e-07
7.77614e-05
9.32164e-07
7.7751e-05
9.8394e-07
7.77382e-05
1.0413e-06
7.77231e-05
1.10562e-06
7.7706e-05
1.17834e-06
7.76875e-05
1.26103e-06
7.76682e-05
1.35536e-06
7.76491e-05
1.46307e-06
7.76318e-05
1.58599e-06
7.76183e-05
1.72591e-06
7.76111e-05
1.88455e-06
7.76137e-05
2.06343e-06
7.76306e-05
2.26368e-06
7.76671e-05
2.48583e-06
7.773e-05
2.72959e-06
7.78271e-05
2.99344e-06
7.79676e-05
3.27445e-06
7.8162e-05
3.56753e-06
7.84215e-05
3.86594e-06
4.15808e-06
7.87573e-05
7.98841e-05
7.409e-08
7.98977e-05
2.09257e-07
7.99135e-05
3.20063e-07
7.99292e-05
4.1109e-07
7.99439e-05
4.87683e-07
7.99568e-05
5.5278e-07
7.99675e-05
6.0937e-07
7.99759e-05
6.60159e-07
7.99821e-05
7.07162e-07
7.9986e-05
7.52016e-07
7.99876e-05
7.96166e-07
7.99869e-05
8.40919e-07
7.99841e-05
8.87483e-07
7.99793e-05
9.37035e-07
7.99725e-05
9.90758e-07
7.99639e-05
1.04986e-06
7.99539e-05
1.11559e-06
7.9943e-05
1.18926e-06
7.99318e-05
1.27223e-06
7.99213e-05
1.3659e-06
7.99126e-05
1.4717e-06
7.99076e-05
1.59101e-06
7.99084e-05
1.72513e-06
7.99178e-05
1.87516e-06
7.99393e-05
2.0419e-06
7.99774e-05
2.22564e-06
8.00372e-05
2.42604e-06
8.01249e-05
2.64184e-06
8.02477e-05
2.87061e-06
8.04136e-05
3.10859e-06
8.0631e-05
3.35009e-06
8.0909e-05
3.58797e-06
3.81161e-06
8.12555e-05
8.2165e-05
6.95e-08
8.21765e-05
1.97814e-07
8.21906e-05
3.05932e-07
8.22053e-05
3.96423e-07
8.22194e-05
4.73535e-07
8.22322e-05
5.39958e-07
8.22433e-05
5.983e-07
8.22525e-05
6.51002e-07
8.22597e-05
6.99976e-07
8.22649e-05
7.468e-07
8.22682e-05
7.92883e-07
8.22696e-05
8.39498e-07
8.22693e-05
8.87813e-07
8.22673e-05
9.38954e-07
8.22641e-05
9.94028e-07
8.22598e-05
1.05415e-06
8.22549e-05
1.12045e-06
8.22501e-05
1.19406e-06
8.22462e-05
1.27614e-06
8.22443e-05
1.36782e-06
8.22458e-05
1.47019e-06
8.22526e-05
1.58423e-06
8.22669e-05
1.71076e-06
8.22918e-05
1.85033e-06
8.23306e-05
2.00309e-06
8.23876e-05
2.16868e-06
8.24676e-05
2.34603e-06
8.25762e-05
2.53321e-06
8.27196e-05
2.72717e-06
8.29045e-05
2.92369e-06
8.31377e-05
3.11695e-06
8.34257e-05
3.29989e-06
3.46322e-06
8.37741e-05
8.45115e-05
6.57525e-08
8.45213e-05
1.88053e-07
8.45339e-05
2.93312e-07
8.45474e-05
3.82918e-07
8.45608e-05
4.60189e-07
8.45732e-05
5.27529e-07
8.45843e-05
5.87214e-07
8.45938e-05
6.41431e-07
8.46018e-05
6.91981e-07
8.46083e-05
7.40376e-07
8.46132e-05
7.87968e-07
8.46167e-05
8.35975e-07
8.4619e-05
8.85515e-07
8.46203e-05
9.37648e-07
8.46209e-05
9.93399e-07
8.46213e-05
1.05377e-06
8.4622e-05
1.11976e-06
8.46237e-05
1.19232e-06
8.46275e-05
1.27239e-06
8.46345e-05
1.36084e-06
8.46462e-05
1.45843e-06
8.46647e-05
1.56576e-06
8.46922e-05
1.68324e-06
8.47316e-05
1.8109e-06
8.47863e-05
1.94841e-06
8.48601e-05
2.09485e-06
8.49575e-05
2.24865e-06
8.50833e-05
2.4074e-06
8.52427e-05
2.56776e-06
8.54411e-05
2.72533e-06
8.56836e-05
2.8745e-06
8.59748e-05
3.00867e-06
3.11998e-06
8.6318e-05
8.69253e-05
6.26091e-08
8.69338e-05
1.79587e-07
8.69452e-05
2.81891e-07
8.69579e-05
3.70262e-07
8.69708e-05
4.47283e-07
8.69832e-05
5.15079e-07
8.69948e-05
5.75661e-07
8.70052e-05
6.30983e-07
8.70145e-05
6.82719e-07
8.70225e-05
7.32299e-07
8.70295e-05
7.80996e-07
8.70355e-05
8.29963e-07
8.70408e-05
8.8025e-07
8.70456e-05
9.32836e-07
8.70504e-05
9.88649e-07
8.70556e-05
1.04857e-06
8.70619e-05
1.11345e-06
8.70701e-05
1.18407e-06
8.70814e-05
1.26114e-06
8.70969e-05
1.34527e-06
8.71184e-05
1.43694e-06
8.71478e-05
1.53641e-06
8.71873e-05
1.64369e-06
8.72398e-05
1.75845e-06
8.73083e-05
1.87993e-06
8.73963e-05
2.00682e-06
8.75077e-05
2.13721e-06
8.76467e-05
2.26846e-06
8.78173e-05
2.39711e-06
8.80238e-05
2.5189e-06
8.82696e-05
2.62861e-06
8.8558e-05
2.72034e-06
2.78766e-06
8.88903e-05
8.94082e-05
5.98975e-08
8.94157e-05
1.72105e-07
8.94262e-05
2.71431e-07
8.94381e-05
3.58305e-07
8.94507e-05
4.34751e-07
8.94631e-05
5.02635e-07
8.94751e-05
5.6373e-07
8.94863e-05
6.19777e-07
8.94967e-05
6.72314e-07
8.95063e-05
7.22672e-07
8.95152e-05
7.72042e-07
8.95237e-05
8.21499e-07
8.95319e-05
8.72013e-07
8.95403e-05
9.24475e-07
8.95492e-05
9.79708e-07
8.95594e-05
1.03847e-06
8.95713e-05
1.10146e-06
8.95861e-05
1.16928e-06
8.96048e-05
1.24244e-06
8.96288e-05
1.32132e-06
8.96596e-05
1.40611e-06
8.96992e-05
1.4968e-06
8.97498e-05
1.5931e-06
8.98139e-05
1.69434e-06
8.98944e-05
1.79948e-06
8.99942e-05
1.90695e-06
9.01168e-05
2.01466e-06
9.02653e-05
2.1199e-06
9.04432e-05
2.21929e-06
9.06532e-05
2.30887e-06
9.08978e-05
2.38399e-06
9.11787e-05
2.43951e-06
2.47038e-06
9.14959e-05
9.19623e-05
5.74923e-08
9.1969e-05
1.65352e-07
9.19788e-05
2.61696e-07
9.19902e-05
3.46835e-07
9.20026e-05
4.22383e-07
9.20153e-05
4.89969e-07
9.20278e-05
5.51168e-07
9.20401e-05
6.07528e-07
9.20519e-05
6.6045e-07
9.20634e-05
7.11166e-07
9.20747e-05
7.60775e-07
9.20859e-05
8.10262e-07
9.20974e-05
8.60511e-07
9.21096e-05
9.12314e-07
9.21229e-05
9.66385e-07
9.2138e-05
1.02336e-06
9.21557e-05
1.08378e-06
9.21769e-05
1.14808e-06
9.22028e-05
1.21659e-06
9.22346e-05
1.28947e-06
9.22741e-05
1.36668e-06
9.23229e-05
1.44798e-06
9.23832e-05
1.53282e-06
9.24572e-05
1.62033e-06
9.25474e-05
1.70925e-06
9.26564e-05
1.7979e-06
9.2787e-05
1.88413e-06
9.29416e-05
1.96528e-06
9.31227e-05
2.03823e-06
9.33321e-05
2.09938e-06
9.35714e-05
2.14476e-06
9.38409e-05
2.17004e-06
2.17139e-06
9.41398e-05
9.45894e-05
5.52984e-08
9.45956e-05
1.59116e-07
9.46048e-05
2.52474e-07
9.4616e-05
3.35672e-07
9.46283e-05
4.10031e-07
9.46413e-05
4.76977e-07
9.46546e-05
5.37908e-07
9.46679e-05
5.94202e-07
9.46812e-05
6.47124e-07
9.46946e-05
6.97798e-07
9.47081e-05
7.47223e-07
9.47221e-05
7.96292e-07
9.47368e-05
8.45793e-07
9.47527e-05
8.96419e-07
9.47703e-05
9.48773e-07
9.47903e-05
1.00336e-06
9.48135e-05
1.06059e-06
9.48408e-05
1.12075e-06
9.48735e-05
1.18398e-06
9.49126e-05
1.25027e-06
9.49599e-05
1.31941e-06
9.5017e-05
1.39094e-06
9.50856e-05
1.46416e-06
9.51679e-05
1.53805e-06
9.52659e-05
1.61125e-06
9.53818e-05
1.68204e-06
9.55176e-05
1.74832e-06
9.56752e-05
1.80762e-06
9.58563e-05
1.85712e-06
9.6062e-05
1.8937e-06
9.62928e-05
1.91403e-06
9.65482e-05
1.91458e-06
1.89261e-06
9.6827e-05
9.72916e-05
5.32423e-08
9.72975e-05
1.53221e-07
9.73064e-05
2.43573e-07
9.73174e-05
3.24636e-07
9.73299e-05
3.97526e-07
9.73434e-05
4.63495e-07
9.73575e-05
5.23789e-07
9.73721e-05
5.79631e-07
9.73871e-05
6.32155e-07
9.74025e-05
6.82377e-07
9.74185e-05
7.31195e-07
9.74354e-05
7.79406e-07
9.74535e-05
8.277e-07
9.74732e-05
8.76671e-07
9.74952e-05
9.2681e-07
9.752e-05
9.78509e-07
9.75486e-05
1.03204e-06
9.75818e-05
1.08756e-06
9.76207e-05
1.14507e-06
9.76666e-05
1.20439e-06
9.77208e-05
1.26518e-06
9.77849e-05
1.32684e-06
9.78605e-05
1.38857e-06
9.79493e-05
1.44926e-06
9.8053e-05
1.50755e-06
9.81733e-05
1.56174e-06
9.83117e-05
1.60989e-06
9.84696e-05
1.64976e-06
9.86478e-05
1.67889e-06
9.88469e-05
1.69465e-06
9.90666e-05
1.69434e-06
9.93059e-05
1.67521e-06
1.63538e-06
9.95632e-05
0.000100071
5.12654e-08
0.000100077
1.4752e-07
0.000100086
2.34819e-07
0.000100097
3.1356e-07
0.000100109
3.84715e-07
0.000100124
4.49393e-07
0.000100139
5.08703e-07
0.000100154
5.63729e-07
0.000100171
6.15483e-07
0.000100189
6.64869e-07
0.000100207
7.12687e-07
0.000100227
7.59633e-07
0.000100248
8.06301e-07
0.000100272
8.53187e-07
0.000100298
9.00678e-07
0.000100327
9.49055e-07
0.000100361
9.9848e-07
0.0001004
1.04898e-06
0.000100444
1.10045e-06
0.000100496
1.15259e-06
0.000100556
1.20496e-06
0.000100626
1.25688e-06
0.000100707
1.30748e-06
0.000100801
1.35565e-06
0.000100908
1.40005e-06
0.000101031
1.43912e-06
0.00010117
1.47109e-06
0.000101326
1.49401e-06
0.000101499
1.5058e-06
0.000101689
1.50431e-06
0.000101896
1.48745e-06
0.000102118
1.4531e-06
1.40012e-06
0.000102353
0.00010293
4.93201e-08
0.000102936
1.4189e-07
0.000102944
2.26059e-07
0.000102956
3.0229e-07
0.000102969
3.71452e-07
0.000102984
4.34533e-07
0.000103
4.92523e-07
0.000103017
5.46381e-07
0.000103036
5.96999e-07
0.000103055
6.45178e-07
0.000103077
6.91617e-07
0.000103099
7.36917e-07
0.000103124
7.81579e-07
0.000103151
8.26003e-07
0.000103181
8.70481e-07
0.000103215
9.15196e-07
0.000103254
9.60211e-07
0.000103297
1.00546e-06
0.000103347
1.05073e-06
0.000103404
1.09567e-06
0.000103469
1.13974e-06
0.000103544
1.18225e-06
0.000103629
1.22229e-06
0.000103726
1.25882e-06
0.000103835
1.29057e-06
0.000103958
1.31614e-06
0.000104095
1.33397e-06
0.000104247
1.34241e-06
0.000104413
1.33977e-06
0.000104593
1.32436e-06
0.000104786
1.29461e-06
0.00010499
1.24898e-06
1.18686e-06
0.000105203
0.000105871
4.73663e-08
0.000105876
1.36222e-07
0.000105885
2.17155e-07
0.000105897
2.90681e-07
0.000105911
3.57598e-07
0.000105926
4.1879e-07
0.000105944
4.7514e-07
0.000105963
5.27496e-07
0.000105983
5.76641e-07
0.000106005
6.23271e-07
0.000106029
6.67991e-07
0.000106054
7.11309e-07
0.000106082
7.53638e-07
0.000106113
7.95288e-07
0.000106147
8.36467e-07
0.000106185
8.77273e-07
0.000106227
9.17686e-07
0.000106275
9.57565e-07
0.000106329
9.96635e-07
0.000106391
1.03448e-06
0.00010646
1.07055e-06
0.000106538
1.10414e-06
0.000106626
1.13438e-06
0.000106724
1.16028e-06
0.000106834
1.18072e-06
0.000106956
1.19446e-06
0.00010709
1.20019e-06
0.000107235
1.19655e-06
0.000107393
1.18222e-06
0.000107561
1.15591e-06
0.00010774
1.11651e-06
0.000107926
1.06295e-06
9.9505e-07
0.000108117
0.000108895
4.53706e-08
0.000108901
1.30425e-07
0.00010891
2.07984e-07
0.000108922
2.78603e-07
0.000108937
3.43025e-07
0.000108954
4.02048e-07
0.000108972
4.56459e-07
0.000108993
5.07002e-07
0.000109015
5.54358e-07
0.000109039
5.99127e-07
0.000109066
6.41822e-07
0.000109094
6.82866e-07
0.000109125
7.22587e-07
0.000109159
7.61218e-07
0.000109197
7.9889e-07
0.000109238
8.3563e-07
0.000109285
8.71356e-07
0.000109336
9.05871e-07
0.000109394
9.3886e-07
0.000109459
9.69886e-07
0.000109531
9.9839e-07
0.000109611
1.02369e-06
0.000109701
1.045e-06
0.0001098
1.06141e-06
0.000109908
1.07194e-06
0.000110027
1.07555e-06
0.000110156
1.07117e-06
0.000110295
1.05773e-06
0.000110443
1.03421e-06
0.000110599
9.99703e-07
0.000110762
9.53454e-07
0.000110931
8.94799e-07
8.23862e-07
0.000111102
0.000112007
4.33036e-08
0.000112013
1.24421e-07
0.000112022
1.98435e-07
0.000112035
2.65935e-07
0.00011205
3.27615e-07
0.000112068
3.84198e-07
0.000112088
4.36384e-07
0.00011211
4.84823e-07
0.000112135
5.30102e-07
0.000112161
5.72731e-07
0.00011219
6.13137e-07
0.000112221
6.51662e-07
0.000112255
6.88562e-07
0.000112292
7.23997e-07
0.000112333
7.58035e-07
0.000112378
7.90648e-07
0.000112428
8.21705e-07
0.000112482
8.50976e-07
0.000112543
8.78124e-07
0.00011261
9.02713e-07
0.000112685
9.24205e-07
0.000112766
9.41973e-07
0.000112856
9.553e-07
0.000112954
9.63404e-07
0.00011306
9.65457e-07
0.000113175
9.60606e-07
0.000113299
9.48008e-07
0.000113429
9.26853e-07
0.000113567
8.96413e-07
0.000113711
8.56068e-07
0.000113859
8.05375e-07
0.00011401
7.43982e-07
6.72231e-07
0.000114161
0.000115207
4.11403e-08
0.000115213
1.18138e-07
0.000115223
1.88413e-07
0.000115236
2.52572e-07
0.000115253
3.11269e-07
0.000115272
3.65158e-07
0.000115293
4.14859e-07
0.000115317
4.60936e-07
0.000115343
5.03887e-07
0.000115372
5.44139e-07
0.000115403
5.8204e-07
0.000115437
6.17859e-07
0.000115474
6.51784e-07
0.000115514
6.83916e-07
0.000115557
7.14273e-07
0.000115605
7.42782e-07
0.000115658
7.69283e-07
0.000115715
7.93524e-07
0.000115778
8.15172e-07
0.000115847
8.33806e-07
0.000115922
8.4893e-07
0.000116004
8.5998e-07
0.000116093
8.66336e-07
0.000116189
8.67341e-07
0.000116292
8.6232e-07
0.000116402
8.50604e-07
0.000116519
8.31552e-07
0.000116641
8.04585e-07
0.000116768
7.69213e-07
0.000116899
7.25066e-07
0.000117033
6.71937e-07
0.000117167
6.09708e-07
5.38866e-07
0.0001173
0.000118498
3.88573e-08
0.000118505
1.11513e-07
0.000118515
1.77824e-07
0.00011853
2.38407e-07
0.000118547
2.93875e-07
0.000118567
3.4482e-07
0.00011859
3.91788e-07
0.000118616
4.35263e-07
0.000118644
4.75661e-07
0.000118675
5.13332e-07
0.000118709
5.48552e-07
0.000118745
5.81527e-07
0.000118784
6.12385e-07
0.000118827
6.41178e-07
0.000118873
6.67882e-07
0.000118924
6.92395e-07
0.000118979
7.14539e-07
0.000119038
7.34059e-07
0.000119103
7.50635e-07
0.000119172
7.63879e-07
0.000119248
7.73345e-07
0.000119329
7.78547e-07
0.000119417
7.78968e-07
0.00011951
7.74074e-07
0.000119609
7.63337e-07
0.000119713
7.46251e-07
0.000119823
7.22359e-07
0.000119936
6.91276e-07
0.000120052
6.52712e-07
0.000120171
6.06492e-07
0.00012029
5.52595e-07
0.000120409
4.91075e-07
4.22503e-07
0.000120525
0.000121884
3.64361e-08
0.000121891
1.04493e-07
0.000121902
1.66599e-07
0.000121917
2.23371e-07
0.000121935
2.75381e-07
0.000121957
3.23161e-07
0.000121982
3.67185e-07
0.000122009
4.07861e-07
0.000122039
4.45529e-07
0.000122072
4.80467e-07
0.000122108
5.12888e-07
0.000122146
5.42937e-07
0.000122188
5.70696e-07
0.000122233
5.96175e-07
0.000122282
6.19321e-07
0.000122334
6.40014e-07
0.000122391
6.58068e-07
0.000122451
6.73239e-07
0.000122517
6.85228e-07
0.000122587
6.9369e-07
0.000122662
6.98245e-07
0.000122742
6.98487e-07
0.000122827
6.93996e-07
0.000122917
6.84358e-07
0.000123011
6.69175e-07
0.000123109
6.4809e-07
0.000123211
6.20803e-07
0.000123315
5.87088e-07
0.000123421
5.46814e-07
0.000123527
4.99955e-07
0.000123633
4.46619e-07
0.000123737
3.8698e-07
3.2164e-07
0.000123838
0.000125366
3.38522e-08
0.000125374
9.70117e-08
0.000125385
1.54634e-07
0.000125402
2.07333e-07
0.000125421
2.55638e-07
0.000125444
3.00023e-07
0.000125471
3.40894e-07
0.0001255
3.78587e-07
0.000125532
4.13371e-07
0.000125567
4.45458e-07
0.000125605
4.75003e-07
0.000125646
5.021e-07
0.00012569
5.26787e-07
0.000125737
5.49047e-07
0.000125787
5.68802e-07
0.000125842
5.85924e-07
0.000125899
6.00229e-07
0.000125961
6.11489e-07
0.000126027
6.19438e-07
0.000126097
6.23781e-07
0.000126171
6.24203e-07
0.000126249
6.20376e-07
0.000126331
6.11975e-07
0.000126417
5.98692e-07
0.000126506
5.80249e-07
0.000126597
5.56414e-07
0.000126691
5.27017e-07
0.000126786
4.91961e-07
0.000126882
4.51236e-07
0.000126977
4.04927e-07
0.00012707
3.53235e-07
0.000127161
2.96416e-07
2.35073e-07
0.000127247
0.000128948
3.10978e-08
0.000128956
8.90441e-08
0.000128969
1.41912e-07
0.000128986
1.90303e-07
0.000129007
2.34699e-07
0.000129031
2.75511e-07
0.000129059
3.13073e-07
0.00012909
3.47651e-07
0.000129124
3.79448e-07
0.000129161
4.08614e-07
0.0001292
4.3525e-07
0.000129243
4.5941e-07
0.000129289
4.81098e-07
0.000129337
5.0027e-07
0.000129389
5.16839e-07
0.000129445
5.30671e-07
0.000129503
5.41595e-07
0.000129565
5.49409e-07
0.000129631
5.53883e-07
0.0001297
5.54772e-07
0.000129772
5.51823e-07
0.000129848
5.44783e-07
0.000129926
5.33413e-07
0.000130008
5.17501e-07
0.000130091
4.9687e-07
0.000130176
4.71391e-07
0.000130262
4.40996e-07
0.000130348
4.05687e-07
0.000130434
3.65543e-07
0.000130518
3.20723e-07
0.0001306
2.71483e-07
0.000130678
2.1812e-07
1.61209e-07
0.000130752
0.000132632
2.81215e-08
0.000132641
8.04582e-08
0.000132654
1.28218e-07
0.000132673
1.72e-07
0.000132695
2.12237e-07
0.000132721
2.49272e-07
0.000132751
2.8337e-07
0.000132784
3.14721e-07
0.00013282
3.43463e-07
0.000132859
3.69685e-07
0.000132901
3.93444e-07
0.000132945
4.14752e-07
0.000132993
4.33584e-07
0.000133043
4.49878e-07
0.000133097
4.63539e-07
0.000133153
4.74438e-07
0.000133212
4.82418e-07
0.000133274
4.87305e-07
0.000133339
4.88905e-07
0.000133407
4.87024e-07
0.000133477
4.81465e-07
0.00013355
4.72046e-07
0.000133625
4.58604e-07
0.000133701
4.41007e-07
0.000133779
4.1916e-07
0.000133857
3.93019e-07
0.000133936
3.62595e-07
0.000134013
3.27962e-07
0.00013409
2.89261e-07
0.000134164
2.467e-07
0.000134235
2.00569e-07
0.000134302
1.51184e-07
9.90921e-08
0.000134364
0.000136421
2.4969e-08
0.000136431
7.13426e-08
0.000136445
1.13722e-07
0.000136464
1.52683e-07
0.000136488
1.88587e-07
0.000136516
2.21705e-07
0.000136547
2.52225e-07
0.000136581
2.80266e-07
0.000136619
3.05902e-07
0.000136659
3.2917e-07
0.000136703
3.50082e-07
0.000136749
3.68618e-07
0.000136798
3.84733e-07
0.000136849
3.98356e-07
0.000136903
4.09386e-07
0.00013696
4.17701e-07
0.000137019
4.23164e-07
0.000137081
4.25624e-07
0.000137145
4.24926e-07
0.000137211
4.20919e-07
0.000137279
4.13463e-07
0.000137349
4.02433e-07
0.00013742
3.87731e-07
0.000137491
3.69289e-07
0.000137563
3.4708e-07
0.000137635
3.2112e-07
0.000137706
2.91479e-07
0.000137776
2.58276e-07
0.000137844
2.21691e-07
0.000137908
1.81955e-07
0.00013797
1.39365e-07
0.000138027
9.42248e-08
4.70518e-08
0.000138079
0.000140319
2.14346e-08
0.000140329
6.12528e-08
0.000140345
9.77709e-08
0.000140366
1.31568e-07
0.000140392
1.62919e-07
0.000140422
1.91998e-07
0.000140455
2.18892e-07
0.000140492
2.43629e-07
0.000140531
2.66211e-07
0.000140574
2.86621e-07
0.000140619
3.04828e-07
0.000140667
3.20786e-07
0.000140717
3.34434e-07
0.00014077
3.45689e-07
0.000140825
3.54451e-07
0.000140882
3.60605e-07
0.000140941
3.6403e-07
0.000141002
3.64602e-07
0.000141065
3.622e-07
0.000141129
3.56715e-07
0.000141195
3.48054e-07
0.000141261
3.36142e-07
0.000141328
3.20932e-07
0.000141395
3.02411e-07
0.000141461
2.80599e-07
0.000141527
2.55559e-07
0.000141591
2.27397e-07
0.000141653
1.96265e-07
0.000141712
1.62361e-07
0.000141768
1.25924e-07
0.00014182
8.72506e-08
0.000141868
4.66112e-08
4.70057e-09
0.00014191
0.000144328
1.78658e-08
0.000144339
5.07802e-08
0.000144355
8.11814e-08
0.000144377
1.09592e-07
0.000144404
1.36185e-07
0.000144435
1.61049e-07
0.00014447
1.8418e-07
0.000144508
2.05522e-07
0.000144549
2.25016e-07
0.000144593
2.42593e-07
0.00014464
2.58177e-07
0.000144689
2.71694e-07
0.00014474
2.83065e-07
0.000144794
2.92203e-07
0.000144849
2.99007e-07
0.000144906
3.03372e-07
0.000144965
3.0519e-07
0.000145025
3.04362e-07
0.000145087
3.00797e-07
0.000145149
2.94421e-07
0.000145212
2.85179e-07
0.000145275
2.73037e-07
0.000145338
2.57988e-07
0.0001454
2.40055e-07
0.000145462
2.19292e-07
0.000145521
1.95789e-07
0.000145579
1.69676e-07
0.000145634
1.41118e-07
0.000145686
1.1031e-07
0.000145735
7.74904e-08
0.000145779
4.29523e-08
0.000145819
6.70855e-09
-3.02015e-08
0.000145854
0.000148453
1.32738e-08
0.000148465
3.8279e-08
0.000148484
6.19706e-08
0.000148509
8.47739e-08
0.000148539
1.06619e-07
0.000148572
1.27422e-07
0.000148609
1.46986e-07
0.00014865
1.6514e-07
0.000148693
1.81755e-07
0.000148739
1.96716e-07
0.000148787
2.09917e-07
0.000148838
2.21262e-07
0.00014889
2.30664e-07
0.000148944
2.38035e-07
0.000149
2.43272e-07
0.000149057
2.46275e-07
0.000149115
2.46953e-07
0.000149174
2.45226e-07
0.000149234
2.41032e-07
0.000149294
2.3433e-07
0.000149354
2.25094e-07
0.000149414
2.13322e-07
0.000149473
1.99032e-07
0.000149531
1.82276e-07
0.000149587
1.6313e-07
0.000149641
1.41697e-07
0.000149693
1.18117e-07
0.000149741
9.25599e-08
0.000149786
6.51983e-08
0.000149828
3.625e-08
0.000149864
6.26804e-09
0.000149896
-2.52924e-08
-5.73349e-08
0.000149923
0.000152693
9.44647e-09
0.000152705
2.60218e-08
0.000152725
4.25498e-08
0.00015275
5.92138e-08
0.000152781
7.58428e-08
0.000152816
9.22664e-08
0.000152855
1.08062e-07
0.000152897
1.22928e-07
0.000152942
1.3666e-07
0.00015299
1.49077e-07
0.00015304
1.6003e-07
0.000153092
1.69385e-07
0.000153145
1.77055e-07
0.0001532
1.82949e-07
0.000153257
1.86958e-07
0.000153314
1.88987e-07
0.000153372
1.88954e-07
0.00015343
1.86797e-07
0.000153489
1.82477e-07
0.000153547
1.75972e-07
0.000153605
1.6728e-07
0.000153662
1.56416e-07
0.000153718
1.43414e-07
0.000153772
1.2834e-07
0.000153824
1.11282e-07
0.000153873
9.23406e-08
0.000153919
7.16817e-08
0.000153962
4.94423e-08
0.000154002
2.57794e-08
0.000154037
6.79149e-10
0.000154069
-2.49073e-08
0.000154095
-5.15872e-08
-7.87468e-08
0.000154116
0.000157059
2.36144e-09
0.000157075
9.20225e-09
0.000157099
1.85082e-08
0.000157129
2.96352e-08
0.000157163
4.1817e-08
0.000157201
5.4446e-08
0.000157242
6.68417e-08
0.000157286
7.87436e-08
0.000157333
8.98937e-08
0.000157382
1.00061e-07
0.000157433
1.09054e-07
0.000157486
1.16683e-07
0.00015754
1.22882e-07
0.000157595
1.2757e-07
0.000157652
1.30645e-07
0.000157709
1.32029e-07
0.000157766
1.31657e-07
0.000157823
1.29485e-07
0.00015788
1.25483e-07
0.000157936
1.19645e-07
0.000157992
1.11981e-07
0.000158046
1.02504e-07
0.000158098
9.12364e-08
0.000158148
7.82824e-08
0.000158195
6.37434e-08
0.00015824
4.77062e-08
0.000158281
3.03372e-08
0.000158319
1.17889e-08
0.000158353
-7.98029e-09
0.000158382
-2.86843e-08
0.000158407
-5.00143e-08
0.000158428
-7.191e-08
-9.41276e-08
0.000158443
0.000161543
-2.42581e-09
0.000161559
-7.05686e-09
0.000161584
-6.47168e-09
0.000161617
-2.64596e-09
0.000161654
4.27805e-09
0.000161695
1.34027e-08
0.00016174
2.26173e-08
0.000161786
3.18247e-08
0.000161836
4.06382e-08
0.000161887
4.88106e-08
0.00016194
5.60248e-08
0.000161995
6.21284e-08
0.00016205
6.71828e-08
0.000162107
7.10255e-08
0.000162164
7.3543e-08
0.000162221
7.46678e-08
0.000162279
7.43512e-08
0.000162335
7.25598e-08
0.000162392
6.92776e-08
0.000162447
6.45037e-08
0.000162501
5.82687e-08
0.000162552
5.06322e-08
0.000162602
4.14925e-08
0.000162649
3.10523e-08
0.000162694
1.93285e-08
0.000162735
6.26526e-09
0.000162773
-7.4682e-09
0.000162807
-2.22351e-08
0.000162837
-3.78633e-08
0.000162862
-5.417e-08
0.000162883
-7.09891e-08
0.0001629
-8.81977e-08
-1.05623e-07
0.000162911
0.000166168
-1.63575e-08
0.000166193
-3.22856e-08
0.000166224
-3.73782e-08
0.000166258
-3.74435e-08
0.000166297
-3.44022e-08
0.00016634
-2.91393e-08
0.000166385
-2.29268e-08
0.000166433
-1.6359e-08
0.000166484
-9.77609e-09
0.000166536
-3.22494e-09
0.000166589
2.59074e-09
0.000166644
7.07554e-09
0.0001667
1.10973e-08
0.000166757
1.42489e-08
0.000166814
1.64257e-08
0.000166871
1.75568e-08
0.000166928
1.75926e-08
0.000166984
1.65054e-08
0.000167039
1.42896e-08
0.000167093
1.09638e-08
0.000167144
6.57246e-09
0.000167194
1.47086e-09
0.000167241
-5.61303e-09
0.000167285
-1.32244e-08
0.000167326
-2.17055e-08
0.000167363
-3.10203e-08
0.000167397
-4.10797e-08
0.000167427
-5.18185e-08
0.000167452
-6.31326e-08
0.000167473
-7.49076e-08
0.000167489
-8.70253e-08
0.0001675
-9.93792e-08
-1.11841e-07
0.000167506
0.000170913
-2.86644e-08
0.000170946
-6.48817e-08
0.000170985
-7.70629e-08
0.00017103
-8.2578e-08
0.000171079
-8.31925e-08
0.00017113
-8.02493e-08
0.000171183
-7.58247e-08
0.000171238
-7.08246e-08
0.000171293
-6.56471e-08
0.000171351