/*--------------------------------*- C++ -*----------------------------------*\
  =========                 |
  \\      /  F ield         | OpenFOAM: The Open Source CFD Toolbox
   \\    /   O peration     | Website:  https://openfoam.org
    \\  /    A nd           | Version:  10
     \\/     M anipulation  |
\*---------------------------------------------------------------------------*/
FoamFile
{
    format      ascii;
    class       volVectorField;
    location    "0.08";
    object      U;
}
// * * * * * * * * * * * * * * * * * * * * * * * * * * * * * * * * * * * * * //

dimensions      [0 1 -1 0 0 0 0];

internalField   nonuniform List<vector> 
6820
(
(7.28172 0.0248731 0)
(7.17776 0.0401697 0)
(7.05436 0.0451901 0)
(6.92474 0.0479211 0)
(6.79535 0.0490759 0)
(6.66667 0.0493121 0)
(6.53922 0.0490729 0)
(6.41352 0.0485517 0)
(6.28971 0.0478683 0)
(6.16779 0.0471068 0)
(6.04771 0.0463242 0)
(5.92934 0.0455638 0)
(5.81251 0.0448632 0)
(5.69696 0.0442573 0)
(5.58237 0.0437817 0)
(5.46835 0.0434756 0)
(5.35441 0.0433839 0)
(5.23992 0.0435606 0)
(5.12414 0.0440722 0)
(5.00613 0.045001 0)
(4.88474 0.0464502 0)
(4.75854 0.0485474 0)
(4.62577 0.0514496 0)
(4.48425 0.0553445 0)
(4.33133 0.0604479 0)
(4.16379 0.0669942 0)
(3.97783 0.0751976 0)
(3.76905 0.0852435 0)
(3.53244 0.0970052 0)
(3.26357 0.110607 0)
(2.95508 0.123667 0)
(2.61357 0.138483 0)
(2.20587 0.142169 0)
(7.35924 0.0259768 0)
(7.42102 0.0360227 0)
(7.47603 0.0379976 0)
(7.5261 0.0402145 0)
(7.5718 0.0418457 0)
(7.61195 0.0432158 0)
(7.64651 0.044601 0)
(7.67585 0.0460085 0)
(7.70027 0.0474397 0)
(7.72004 0.0489089 0)
(7.73542 0.0504295 0)
(7.74666 0.0520196 0)
(7.75397 0.0537067 0)
(7.75753 0.0555279 0)
(7.75746 0.057532 0)
(7.75384 0.0597824 0)
(7.74669 0.0623609 0)
(7.73595 0.0653728 0)
(7.72149 0.0689535 0)
(7.70307 0.073277 0)
(7.6803 0.0785672 0)
(7.65263 0.085111 0)
(7.6193 0.0932746 0)
(7.57924 0.103521 0)
(7.53101 0.116427 0)
(7.47267 0.132696 0)
(7.40163 0.153153 0)
(7.31443 0.17874 0)
(7.20663 0.210312 0)
(7.0722 0.248966 0)
(6.90456 0.294061 0)
(6.6919 0.348034 0)
(6.43182 0.401571 0)
(7.33539 0.0070382 0)
(7.34541 0.0104652 0)
(7.35404 0.0132653 0)
(7.36131 0.0169117 0)
(7.3691 0.0200234 0)
(7.3773 0.022768 0)
(7.38584 0.0253726 0)
(7.39485 0.0278467 0)
(7.40431 0.0302132 0)
(7.41414 0.0325164 0)
(7.42425 0.0347973 0)
(7.43455 0.037098 0)
(7.44495 0.0394666 0)
(7.45534 0.0419591 0)
(7.46563 0.044642 0)
(7.47573 0.0475965 0)
(7.48555 0.050923 0)
(7.49502 0.0547483 0)
(7.50406 0.0592332 0)
(7.51264 0.064584 0)
(7.52071 0.0710663 0)
(7.52827 0.079023 0)
(7.53532 0.088897 0)
(7.54194 0.101258 0)
(7.54821 0.116835 0)
(7.55428 0.136548 0)
(7.5603 0.16154 0)
(7.5664 0.193194 0)
(7.5725 0.233106 0)
(7.57805 0.283053 0)
(7.58181 0.344649 0)
(7.57959 0.419681 0)
(7.56871 0.508759 0)
(7.33492 0.00943622 0)
(7.34228 0.0205292 0)
(7.34746 0.0262805 0)
(7.35029 0.0302487 0)
(7.3525 0.0329435 0)
(7.35415 0.034889 0)
(7.3552 0.0365047 0)
(7.35581 0.03794 0)
(7.35608 0.0392828 0)
(7.35605 0.0406098 0)
(7.35572 0.0419787 0)
(7.35511 0.0434383 0)
(7.35421 0.0450377 0)
(7.35301 0.046831 0)
(7.35148 0.04888 0)
(7.34959 0.0512594 0)
(7.34729 0.0540603 0)
(7.34454 0.0573968 0)
(7.34127 0.0614118 0)
(7.33746 0.066286 0)
(7.33306 0.0722484 0)
(7.32808 0.0795895 0)
(7.32254 0.0886773 0)
(7.31656 0.0999767 0)
(7.31038 0.114073 0)
(7.30439 0.131694 0)
(7.29926 0.153746 0)
(7.29598 0.181331 0)
(7.29603 0.21577 0)
(7.30144 0.258676 0)
(7.3147 0.311912 0)
(7.33905 0.377855 0)
(7.37726 0.459003 0)
(7.33398 0.0065705 0)
(7.33854 0.0132424 0)
(7.3428 0.0164075 0)
(7.34584 0.0193173 0)
(7.34846 0.0219733 0)
(7.35058 0.0243546 0)
(7.35209 0.0266461 0)
(7.35309 0.0288933 0)
(7.35364 0.0311113 0)
(7.35373 0.0333337 0)
(7.35338 0.0355959 0)
(7.35257 0.0379385 0)
(7.35128 0.0404098 0)
(7.34948 0.0430673 0)
(7.34715 0.0459796 0)
(7.34422 0.0492306 0)
(7.34064 0.0529223 0)
(7.33635 0.0571806 0)
(7.33129 0.0621608 0)
(7.32539 0.0680551 0)
(7.31856 0.0751014 0)
(7.31077 0.083593 0)
(7.30197 0.0938905 0)
(7.29216 0.106434 0)
(7.28143 0.121753 0)
(7.26994 0.140477 0)
(7.25803 0.16334 0)
(7.24627 0.191177 0)
(7.23548 0.224906 0)
(7.227 0.265538 0)
(7.2226 0.314095 0)
(7.2253 0.37189 0)
(7.23808 0.439729 0)
(7.33373 0.00557601 0)
(7.33755 0.0137581 0)
(7.34152 0.0194038 0)
(7.34439 0.0240465 0)
(7.34669 0.0277615 0)
(7.34852 0.0307154 0)
(7.34984 0.0332323 0)
(7.35073 0.0354887 0)
(7.35123 0.0375878 0)
(7.35136 0.0396228 0)
(7.35112 0.0416743 0)
(7.3505 0.0438047 0)
(7.34947 0.0460807 0)
(7.34801 0.0485747 0)
(7.34609 0.0513661 0)
(7.34367 0.0545465 0)
(7.3407 0.0582243 0)
(7.33713 0.0625297 0)
(7.33291 0.0676199 0)
(7.32801 0.0736861 0)
(7.32237 0.0809613 0)
(7.31597 0.0897277 0)
(7.30883 0.100326 0)
(7.30098 0.113163 0)
(7.29255 0.12872 0)
(7.28372 0.147553 0)
(7.27482 0.170293 0)
(7.26634 0.197641 0)
(7.25898 0.23034 0)
(7.25373 0.269149 0)
(7.25177 0.314747 0)
(7.25507 0.367896 0)
(7.26537 0.428554 0)
(7.33344 0.00471758 0)
(7.33603 0.0118524 0)
(7.33907 0.0164441 0)
(7.34148 0.0199787 0)
(7.34353 0.0229213 0)
(7.34529 0.0254567 0)
(7.34664 0.0278121 0)
(7.34762 0.0300995 0)
(7.34824 0.0323711 0)
(7.34852 0.034677 0)
(7.34845 0.0370593 0)
(7.34801 0.0395822 0)
(7.34721 0.042301 0)
(7.34601 0.0452776 0)
(7.3444 0.0485869 0)
(7.34234 0.0523182 0)
(7.33982 0.0565786 0)
(7.3368 0.0614969 0)
(7.33326 0.0672293 0)
(7.32919 0.0739635 0)
(7.32459 0.0819245 0)
(7.31949 0.0913807 0)
(7.31394 0.102649 0)
(7.30806 0.116101 0)
(7.30204 0.13216 0)
(7.29616 0.151306 0)
(7.29083 0.174062 0)
(7.28661 0.200977 0)
(7.28426 0.232603 0)
(7.28479 0.269464 0)
(7.28938 0.311964 0)
(7.29981 0.360462 0)
(7.31741 0.414591 0)
(7.3333 0.00409144 0)
(7.3353 0.0109565 0)
(7.33796 0.016128 0)
(7.34027 0.0204878 0)
(7.34224 0.0242766 0)
(7.34389 0.0275488 0)
(7.34517 0.0304703 0)
(7.34608 0.0331717 0)
(7.34665 0.0357405 0)
(7.34691 0.0382596 0)
(7.34684 0.0408232 0)
(7.34645 0.043477 0)
(7.34573 0.0462934 0)
(7.34467 0.0493521 0)
(7.34325 0.052739 0)
(7.34146 0.0565514 0)
(7.33928 0.0609023 0)
(7.33671 0.0659236 0)
(7.33374 0.0717697 0)
(7.33039 0.0786215 0)
(7.32669 0.0866914 0)
(7.3227 0.096227 0)
(7.31852 0.107513 0)
(7.31431 0.120873 0)
(7.31031 0.136668 0)
(7.30685 0.155288 0)
(7.30439 0.177143 0)
(7.30353 0.202639 0)
(7.30503 0.232153 0)
(7.30991 0.265994 0)
(7.31929 0.304319 0)
(7.33486 0.347176 0)
(7.35774 0.393949 0)
(7.3332 0.00364619 0)
(7.33468 0.0100571 0)
(7.33681 0.0150092 0)
(7.33875 0.0190423 0)
(7.34044 0.0224642 0)
(7.34191 0.0254207 0)
(7.34311 0.0281024 0)
(7.34401 0.0306517 0)
(7.34463 0.0331551 0)
(7.34498 0.0356831 0)
(7.34504 0.0382787 0)
(7.34481 0.0410322 0)
(7.3443 0.0440082 0)
(7.34349 0.0472758 0)
(7.34238 0.0509148 0)
(7.34096 0.0550164 0)
(7.33923 0.0596857 0)
(7.3372 0.0650458 0)
(7.33489 0.0712405 0)
(7.33233 0.0784367 0)
(7.32959 0.0868271 0)
(7.32674 0.0966315 0)
(7.32394 0.108097 0)
(7.32137 0.121497 0)
(7.3193 0.137123 0)
(7.31808 0.155279 0)
(7.31819 0.176262 0)
(7.32022 0.200344 0)
(7.32491 0.227733 0)
(7.3332 0.258545 0)
(7.34607 0.292721 0)
(7.36501 0.330053 0)
(7.39086 0.36975 0)
(7.33314 0.00330663 0)
(7.33427 0.00934058 0)
(7.33606 0.0142895 0)
(7.33782 0.0185041 0)
(7.33941 0.0222365 0)
(7.34083 0.0255808 0)
(7.342 0.0286563 0)
(7.34291 0.0315689 0)
(7.34356 0.034395 0)
(7.34396 0.0372065 0)
(7.34411 0.04009 0)
(7.344 0.0430952 0)
(7.34365 0.0462908 0)
(7.34304 0.0497526 0)
(7.34219 0.0535632 0)
(7.34109 0.0578159 0)
(7.33977 0.062617 0)
(7.33825 0.068087 0)
(7.33655 0.0743621 0)
(7.33475 0.0815971 0)
(7.33291 0.0899656 0)
(7.33116 0.0996598 0)
(7.32965 0.110889 0)
(7.32861 0.123875 0)
(7.3283 0.138845 0)
(7.32911 0.156019 0)
(7.33149 0.175596 0)
(7.33602 0.197725 0)
(7.34336 0.22248 0)
(7.35436 0.249825 0)
(7.36986 0.279541 0)
(7.39109 0.311251 0)
(7.41864 0.344095 0)
(7.3331 0.00304838 0)
(7.33398 0.00874318 0)
(7.33545 0.0135759 0)
(7.33697 0.0177206 0)
(7.33837 0.0213725 0)
(7.33965 0.0246315 0)
(7.34074 0.0276205 0)
(7.34162 0.0304571 0)
(7.34229 0.0332304 0)
(7.34275 0.0360151 0)
(7.34301 0.0388744 0)
(7.34305 0.0418836 0)
(7.34289 0.0451134 0)
(7.34254 0.048637 0)
(7.342 0.052534 0)
(7.34129 0.0568919 0)
(7.34043 0.0618077 0)
(7.33946 0.0673904 0)
(7.33843 0.0737619 0)
(7.33741 0.0810573 0)
(7.3365 0.0894251 0)
(7.33584 0.0990248 0)
(7.33559 0.110024 0)
(7.33598 0.122593 0)
(7.33732 0.136894 0)
(7.33994 0.15307 0)
(7.3443 0.171228 0)
(7.35092 0.191415 0)
(7.3604 0.21359 0)
(7.37346 0.237599 0)
(7.3908 0.263112 0)
(7.4134 0.289646 0)
(7.44162 0.31634 0)
(7.33307 0.00284524 0)
(7.33377 0.00824075 0)
(7.335 0.012962 0)
(7.33635 0.017103 0)
(7.33765 0.0208266 0)
(7.33886 0.0242263 0)
(7.33994 0.0273996 0)
(7.34084 0.0304409 0)
(7.34157 0.0334254 0)
(7.34213 0.0364202 0)
(7.34251 0.0394931 0)
(7.34272 0.0427078 0)
(7.34276 0.0461289 0)
(7.34266 0.0498256 0)
(7.34242 0.053873 0)
(7.34208 0.0583537 0)
(7.34166 0.0633584 0)
(7.34122 0.0689872 0)
(7.34081 0.0753491 0)
(7.34052 0.0825617 0)
(7.34047 0.0907501 0)
(7.34079 0.100044 0)
(7.34168 0.110571 0)
(7.34336 0.122454 0)
(7.34612 0.1358 0)
(7.35029 0.150683 0)
(7.35628 0.167134 0)
(7.36456 0.185119 0)
(7.37565 0.204513 0)
(7.39015 0.22508 0)
(7.4086 0.246427 0)
(7.43177 0.268019 0)
(7.45983 0.289047 0)
(7.33306 0.00268155 0)
(7.33362 0.00781546 0)
(7.33465 0.0124107 0)
(7.33584 0.0165014 0)
(7.33702 0.020205 0)
(7.33815 0.0236008 0)
(7.33918 0.0267728 0)
(7.34008 0.0298096 0)
(7.34084 0.0327883 0)
(7.34147 0.0357779 0)
(7.34196 0.0388447 0)
(7.34233 0.0420542 0)
(7.34257 0.0454724 0)
(7.34273 0.0491674 0)
(7.3428 0.0532114 0)
(7.34284 0.057681 0)
(7.34287 0.0626584 0)
(7.34296 0.0682314 0)
(7.34318 0.0744931 0)
(7.34361 0.0815406 0)
(7.34439 0.0894732 0)
(7.34566 0.0983885 0)
(7.3476 0.108377 0)
(7.35043 0.119516 0)
(7.35444 0.131859 0)
(7.35992 0.145423 0)
(7.36724 0.160175 0)
(7.37681 0.176018 0)
(7.38905 0.192764 0)
(7.40445 0.210126 0)
(7.42342 0.227681 0)
(7.44652 0.244883 0)
(7.47379 0.261 0)
(7.33305 0.00254602 0)
(7.33351 0.00744914 0)
(7.33439 0.0119153 0)
(7.33546 0.0159512 0)
(7.33655 0.019648 0)
(7.33763 0.0230788 0)
(7.33865 0.0263187 0)
(7.33958 0.0294457 0)
(7.34042 0.0325292 0)
(7.34115 0.0356321 0)
(7.34178 0.0388152 0)
(7.34233 0.0421384 0)
(7.3428 0.0456617 0)
(7.34322 0.0494468 0)
(7.34361 0.0535581 0)
(7.34402 0.0580635 0)
(7.34449 0.0630348 0)
(7.34509 0.0685468 0)
(7.34588 0.0746765 0)
(7.34699 0.0815017 0)
(7.34851 0.0890974 0)
(7.35061 0.0975325 0)
(7.35347 0.106864 0)
(7.35728 0.117129 0)
(7.36231 0.128338 0)
(7.36883 0.140462 0)
(7.37715 0.153421 0)
(7.38762 0.167073 0)
(7.40057 0.181193 0)
(7.41639 0.195468 0)
(7.43535 0.209477 0)
(7.45786 0.222691 0)
(7.48385 0.234477 0)
(7.33304 0.00243067 0)
(7.33343 0.00712844 0)
(7.3342 0.0114645 0)
(7.33516 0.0154315 0)
(7.33618 0.0190959 0)
(7.33721 0.0225191 0)
(7.33822 0.0257647 0)
(7.33917 0.0289007 0)
(7.34006 0.0319914 0)
(7.34088 0.0350968 0)
(7.34164 0.0382752 0)
(7.34235 0.0415842 0)
(7.34303 0.0450811 0)
(7.3437 0.048824 0)
(7.3444 0.052872 0)
(7.34517 0.0572862 0)
(7.34606 0.0621285 0)
(7.34714 0.0674616 0)
(7.34849 0.0733471 0)
(7.35021 0.0798433 0)
(7.35242 0.0870027 0)
(7.35526 0.094867 0)
(7.35891 0.103463 0)
(7.36356 0.112793 0)
(7.36942 0.122833 0)
(7.37675 0.133517 0)
(7.38579 0.14473 0)
(7.39683 0.156299 0)
(7.41014 0.167982 0)
(7.42598 0.17946 0)
(7.44454 0.190329 0)
(7.46609 0.200103 0)
(7.49049 0.208241 0)
(7.33303 0.00232973 0)
(7.33337 0.00684188 0)
(7.33405 0.0110482 0)
(7.33493 0.0149373 0)
(7.3359 0.0185594 0)
(7.3369 0.0219687 0)
(7.33792 0.025222 0)
(7.33891 0.0283803 0)
(7.33987 0.0315027 0)
(7.3408 0.0346442 0)
(7.34171 0.0378582 0)
(7.3426 0.0411969 0)
(7.3435 0.0447115 0)
(7.34444 0.0484531 0)
(7.34544 0.0524729 0)
(7.34656 0.0568221 0)
(7.34785 0.0615512 0)
(7.34938 0.0667094 0)
(7.35123 0.0723423 0)
(7.3535 0.0784898 0)
(7.35631 0.0851831 0)
(7.35979 0.0924402 0)
(7.3641 0.100262 0)
(7.3694 0.108624 0)
(7.37589 0.117473 0)
(7.38378 0.126719 0)
(7.39327 0.136224 0)
(7.40458 0.145802 0)
(7.4179 0.155205 0)
(7.43343 0.164128 0)
(7.45127 0.172198 0)
(7.47157 0.17898 0)
(7.49415 0.184031 0)
(7.33303 0.00223889 0)
(7.33333 0.00658014 0)
(7.33395 0.0106573 0)
(7.33477 0.0144597 0)
(7.33569 0.0180256 0)
(7.33668 0.0214011 0)
(7.3377 0.0246353 0)
(7.33874 0.0277814 0)
(7.33977 0.0308916 0)
(7.3408 0.0340162 0)
(7.34184 0.0372037 0)
(7.34291 0.0405015 0)
(7.34401 0.0439561 0)
(7.34519 0.0476127 0)
(7.34648 0.0515158 0)
(7.34792 0.0557083 0)
(7.34958 0.060231 0)
(7.35151 0.0651208 0)
(7.35381 0.0704095 0)
(7.35657 0.0761208 0)
(7.35989 0.0822677 0)
(7.3639 0.0888485 0)
(7.36873 0.0958425 0)
(7.37453 0.103205 0)
(7.38148 0.110863 0)
(7.38972 0.118708 0)
(7.39943 0.126592 0)
(7.41076 0.134324 0)
(7.42385 0.141665 0)
(7.43882 0.14833 0)
(7.45571 0.153986 0)
(7.47458 0.158255 0)
(7.49523 0.160781 0)
(7.33303 0.00215487 0)
(7.3333 0.00633547 0)
(7.33387 0.0102834 0)
(7.33465 0.0139911 0)
(7.33554 0.017489 0)
(7.33653 0.0208171 0)
(7.33758 0.0240187 0)
(7.33866 0.0271413 0)
(7.33977 0.0302318 0)
(7.34092 0.0333356 0)
(7.3421 0.0364964 0)
(7.34333 0.0397563 0)
(7.34465 0.0431555 0)
(7.34606 0.0467325 0)
(7.34762 0.0505238 0)
(7.34937 0.0545632 0)
(7.35137 0.0588807 0)
(7.35368 0.0635012 0)
(7.35637 0.068443 0)
(7.35954 0.0737148 0)
(7.36328 0.0793137 0)
(7.36771 0.0852213 0)
(7.37294 0.0914005 0)
(7.3791 0.0977912 0)
(7.38632 0.104307 0)
(7.39472 0.110831 0)
(7.40444 0.117212 0)
(7.41557 0.123264 0)
(7.42821 0.128765 0)
(7.44242 0.133457 0)
(7.45819 0.137052 0)
(7.47552 0.13923 0)
(7.49421 0.139713 0)
(7.33302 0.00207508 0)
(7.33328 0.00610139 0)
(7.33382 0.00991895 0)
(7.33457 0.0135241 0)
(7.33545 0.0169422 0)
(7.33644 0.0202077 0)
(7.33752 0.0233587 0)
(7.33866 0.0264362 0)
(7.33985 0.0294815 0)
(7.3411 0.0325344 0)
(7.34242 0.0356331 0)
(7.34381 0.038814 0)
(7.34531 0.0421116 0)
(7.34695 0.0455577 0)
(7.34875 0.0491817 0)
(7.35078 0.0530091 0)
(7.35307 0.0570605 0)
(7.3557 0.0613508 0)
(7.35872 0.0658868 0)
(7.36223 0.0706651 0)
(7.36631 0.0756703 0)
(7.37105 0.0808715 0)
(7.37656 0.0862199 0)
(7.38293 0.0916458 0)
(7.39027 0.0970558 0)
(7.39867 0.102331 0)
(7.40823 0.107324 0)
(7.419 0.111861 0)
(7.43103 0.115739 0)
(7.44435 0.118734 0)
(7.4589 0.120601 0)
(7.47466 0.121075 0)
(7.4914 0.119947 0)
(7.33302 0.00199742 0)
(7.33327 0.00587244 0)
(7.33379 0.00955717 0)
(7.33452 0.0130521 0)
(7.3354 0.016379 0)
(7.33641 0.0195681 0)
(7.33752 0.0226529 0)
(7.33871 0.0256693 0)
(7.33999 0.0286534 0)
(7.34135 0.0316403 0)
(7.3428 0.0346629 0)
(7.34435 0.0377524 0)
(7.34603 0.0409373 0)
(7.34787 0.0442432 0)
(7.34991 0.047692 0)
(7.35217 0.0513013 0)
(7.35473 0.0550831 0)
(7.35763 0.0590425 0)
(7.36093 0.0631763 0)
(7.36471 0.0674711 0)
(7.36904 0.071901 0)
(7.37399 0.0764259 0)
(7.37966 0.0809892 0)
(7.38612 0.0855159 0)
(7.39345 0.0899105 0)
(7.40171 0.0940568 0)
(7.41096 0.0978166 0)
(7.42124 0.101031 0)
(7.43255 0.103522 0)
(7.44488 0.105098 0)
(7.45817 0.105558 0)
(7.47235 0.104686 0)
(7.48722 0.10233 0)
(7.33302 0.00192018 0)
(7.33326 0.00564397 0)
(7.33378 0.00919205 0)
(7.3345 0.0125685 0)
(7.33539 0.0157929 0)
(7.33642 0.0188917 0)
(7.33757 0.0218943 0)
(7.33882 0.0248316 0)
(7.34018 0.0277347 0)
(7.34164 0.0306331 0)
(7.34322 0.0335548 0)
(7.34492 0.0365253 0)
(7.34677 0.0395672 0)
(7.34879 0.0426998 0)
(7.35102 0.0459385 0)
(7.3535 0.0492937 0)
(7.35627 0.0527698 0)
(7.35939 0.0563642 0)
(7.3629 0.0600657 0)
(7.36688 0.0638533 0)
(7.37137 0.067694 0)
(7.37646 0.0715421 0)
(7.38219 0.0753369 0)
(7.38863 0.0790021 0)
(7.39583 0.0824451 0)
(7.40384 0.0855558 0)
(7.41267 0.0882085 0)
(7.42236 0.0902624 0)
(7.43287 0.0915658 0)
(7.44417 0.0919582 0)
(7.45619 0.0912774 0)
(7.46883 0.0893548 0)
(7.48193 0.0860807 0)
(7.33302 0.0018419 0)
(7.33326 0.00541201 0)
(7.33377 0.00881822 0)
(7.3345 0.0120677 0)
(7.3354 0.0151784 0)
(7.33646 0.0181739 0)
(7.33766 0.0210799 0)
(7.33898 0.023923 0)
(7.34042 0.0267296 0)
(7.34198 0.0295247 0)
(7.34367 0.0323312 0)
(7.3455 0.0351696 0)
(7.3475 0.0380572 0)
(7.34968 0.0410077 0)
(7.35208 0.0440302 0)
(7.35474 0.047129 0)
(7.35769 0.0503019 0)
(7.36098 0.0535398 0)
(7.36465 0.0568251 0)
(7.36876 0.060131 0)
(7.37335 0.0634198 0)
(7.37847 0.0666426 0)
(7.38417 0.0697376 0)
(7.3905 0.0726302 0)
(7.39748 0.0752326 0)
(7.40514 0.0774443 0)
(7.41349 0.0791534 0)
(7.42251 0.0802393 0)
(7.43217 0.0805744 0)
(7.44243 0.080028 0)
(7.4532 0.0784727 0)
(7.46439 0.075779 0)
(7.47583 0.0718743 0)
(7.33302 0.00176135 0)
(7.33326 0.00517309 0)
(7.33378 0.00843083 0)
(7.33452 0.0115441 0)
(7.33544 0.0145297 0)
(7.33653 0.0174084 0)
(7.33778 0.0202025 0)
(7.33916 0.0229345 0)
(7.34068 0.0256262 0)
(7.34234 0.028298 0)
(7.34413 0.0309679 0)
(7.34609 0.0336515 0)
(7.34822 0.0363609 0)
(7.35054 0.0391046 0)
(7.35309 0.0418865 0)
(7.35589 0.0447054 0)
(7.35898 0.0475539 0)
(7.36239 0.050418 0)
(7.36617 0.0532756 0)
(7.37034 0.0560962 0)
(7.37496 0.0588401 0)
(7.38005 0.0614575 0)
(7.38565 0.0638884 0)
(7.39179 0.0660621 0)
(7.39848 0.0678983 0)
(7.40572 0.0693079 0)
(7.41352 0.0701945 0)
(7.42184 0.0704563 0)
(7.43065 0.0699888 0)
(7.43988 0.0686884 0)
(7.44945 0.0664577 0)
(7.45926 0.0632005 0)
(7.46918 0.0588734 0)
(7.33302 0.00167744 0)
(7.33327 0.00492422 0)
(7.33379 0.00802577 0)
(7.33455 0.0109935 0)
(7.3355 0.0138434 0)
(7.33662 0.016594 0)
(7.33792 0.0192647 0)
(7.33936 0.0218745 0)
(7.34096 0.0244411 0)
(7.3427 0.0269808 0)
(7.3446 0.0295073 0)
(7.34666 0.0320317 0)
(7.3489 0.0345615 0)
(7.35134 0.0371007 0)
(7.354 0.0396486 0)
(7.35691 0.0421993 0)
(7.36009 0.0447414 0)
(7.36358 0.0472569 0)
(7.3674 0.0497208 0)
(7.37159 0.0521007 0)
(7.37617 0.0543561 0)
(7.38117 0.0564384 0)
(7.3866 0.0582904 0)
(7.39249 0.0598475 0)
(7.39883 0.0610383 0)
(7.40561 0.0617853 0)
(7.41282 0.0620069 0)
(7.42043 0.0616193 0)
(7.42838 0.0605392 0)
(7.43662 0.0586866 0)
(7.44505 0.0559895 0)
(7.4536 0.0523788 0)
(7.46214 0.0478333 0)
(7.33302 0.00158923 0)
(7.33327 0.00466263 0)
(7.33381 0.00759875 0)
(7.33459 0.0104102 0)
(7.33557 0.0131118 0)
(7.33674 0.0157198 0)
(7.33808 0.0182507 0)
(7.33959 0.0207196 0)
(7.34126 0.0231406 0)
(7.34309 0.0255258 0)
(7.34507 0.027885 0)
(7.34723 0.0302253 0)
(7.34957 0.0325503 0)
(7.3521 0.03486 0)
(7.35486 0.0371501 0)
(7.35784 0.0394116 0)
(7.36109 0.04163 0)
(7.36462 0.043785 0)
(7.36845 0.0458504 0)
(7.3726 0.0477932 0)
(7.3771 0.0495741 0)
(7.38195 0.0511469 0)
(7.38717 0.0524597 0)
(7.39276 0.0534549 0)
(7.39871 0.0540704 0)
(7.40501 0.0542403 0)
(7.41162 0.0538974 0)
(7.41851 0.0529744 0)
(7.42564 0.0514069 0)
(7.43293 0.0491349 0)
(7.44031 0.0461074 0)
(7.4477 0.0422773 0)
(7.45499 0.0376397 0)
(7.33303 0.00149589 0)
(7.33328 0.0043862 0)
(7.33384 0.00714741 0)
(7.33464 0.00979336 0)
(7.33565 0.0123384 0)
(7.33686 0.0147972 0)
(7.33825 0.0171837 0)
(7.33982 0.0195102 0)
(7.34155 0.0217874 0)
(7.34344 0.0240236 0)
(7.3455 0.0262251 0)
(7.34773 0.0283949 0)
(7.35015 0.0305333 0)
(7.35275 0.0326368 0)
(7.35556 0.0346977 0)
(7.35859 0.0367043 0)
(7.36186 0.0386399 0)
(7.36538 0.0404828 0)
(7.36917 0.042206 0)
(7.37325 0.0437774 0)
(7.37762 0.0451594 0)
(7.38228 0.0463099 0)
(7.38725 0.0471822 0)
(7.3925 0.0477262 0)
(7.39804 0.0478888 0)
(7.40383 0.0476156 0)
(7.40985 0.0468524 0)
(7.41605 0.0455468 0)
(7.42238 0.0436502 0)
(7.42879 0.0411195 0)
(7.4352 0.0379205 0)
(7.44154 0.0340234 0)
(7.44772 0.0294345 0)
(7.33303 0.00139655 0)
(7.33329 0.00409195 0)
(7.33387 0.0066658 0)
(7.3347 0.00913206 0)
(7.33575 0.0115036 0)
(7.337 0.0137927 0)
(7.33845 0.0160106 0)
(7.34008 0.0181666 0)
(7.34187 0.0202683 0)
(7.34384 0.022321 0)
(7.34597 0.0243279 0)
(7.34827 0.0262896 0)
(7.35075 0.0282036 0)
(7.3534 0.0300642 0)
(7.35626 0.031862 0)
(7.35931 0.0335837 0)
(7.36258 0.0352116 0)
(7.36608 0.0367239 0)
(7.3698 0.0380943 0)
(7.37377 0.0392926 0)
(7.37798 0.0402845 0)
(7.38243 0.0410324 0)
(7.38711 0.0414953 0)
(7.39202 0.0416305 0)
(7.39713 0.0413939 0)
(7.40242 0.0407416 0)
(7.40785 0.0396309 0)
(7.41339 0.0380222 0)
(7.41898 0.0358804 0)
(7.42457 0.033176 0)
(7.4301 0.0298879 0)
(7.4355 0.0259997 0)
(7.44069 0.0215252 0)
(7.33303 0.00129063 0)
(7.3333 0.00377946 0)
(7.3339 0.0061571 0)
(7.33476 0.00843904 0)
(7.33584 0.010638 0)
(7.33713 0.0127649 0)
(7.33862 0.0148286 0)
(7.3403 0.0168354 0)
(7.34214 0.0187895 0)
(7.34415 0.0206928 0)
(7.34633 0.0225453 0)
(7.34867 0.0243442 0)
(7.35118 0.0260843 0)
(7.35387 0.0277574 0)
(7.35673 0.0293521 0)
(7.35978 0.0308536 0)
(7.36301 0.0322437 0)
(7.36644 0.0335007 0)
(7.37007 0.0345995 0)
(7.3739 0.0355123 0)
(7.37792 0.0362082 0)
(7.38213 0.0366541 0)
(7.38651 0.0368152 0)
(7.39106 0.0366557 0)
(7.39575 0.0361401 0)
(7.40054 0.0352336 0)
(7.40541 0.033904 0)
(7.41032 0.0321224 0)
(7.41522 0.0298645 0)
(7.42007 0.0271119 0)
(7.4248 0.0238535 0)
(7.42937 0.0200825 0)
(7.43371 0.0158174 0)
(7.33303 0.00117685 0)
(7.33332 0.0034422 0)
(7.33394 0.00560346 0)
(7.33484 0.00767509 0)
(7.33597 0.00966773 0)
(7.33732 0.0115903 0)
(7.33887 0.0134496 0)
(7.3406 0.0152503 0)
(7.34251 0.0169947 0)
(7.34458 0.0186831 0)
(7.34681 0.020314 0)
(7.3492 0.0218832 0)
(7.35175 0.0233843 0)
(7.35445 0.0248083 0)
(7.35732 0.0261432 0)
(7.36035 0.0273742 0)
(7.36353 0.0284837 0)
(7.36689 0.0294512 0)
(7.3704 0.0302539 0)
(7.37407 0.0308664 0)
(7.37789 0.0312615 0)
(7.38185 0.0314109 0)
(7.38593 0.0312854 0)
(7.39012 0.0308557 0)
(7.39439 0.0300936 0)
(7.39871 0.0289726 0)
(7.40305 0.0274688 0)
(7.40738 0.0255619 0)
(7.41165 0.0232365 0)
(7.41581 0.0204821 0)
(7.41983 0.0172953 0)
(7.42366 0.0136763 0)
(7.42723 0.00964602 0)
(7.33303 0.00105543 0)
(7.33333 0.00308765 0)
(7.33397 0.00503412 0)
(7.33489 0.00691204 0)
(7.33605 0.00873123 0)
(7.33743 0.0104977 0)
(7.33901 0.0122142 0)
(7.34078 0.0138809 0)
(7.34272 0.0154957 0)
(7.34481 0.0170554 0)
(7.34707 0.018555 0)
(7.34947 0.019988 0)
(7.35203 0.0213457 0)
(7.35473 0.0226176 0)
(7.35757 0.0237911 0)
(7.36055 0.0248511 0)
(7.36366 0.0257806 0)
(7.36691 0.0265605 0)
(7.37029 0.0271699 0)
(7.37379 0.0275868 0)
(7.3774 0.0277878 0)
(7.3811 0.0277492 0)
(7.38488 0.0274474 0)
(7.38872 0.0268593 0)
(7.39259 0.0259633 0)
(7.39647 0.0247399 0)
(7.40032 0.0231723 0)
(7.40411 0.0212476 0)
(7.40781 0.0189568 0)
(7.41138 0.0162959 0)
(7.41477 0.0132666 0)
(7.41796 0.00987356 0)
(7.4209 0.00613967 0)
(7.33303 0.000922256 0)
(7.33336 0.00268847 0)
(7.33405 0.00437119 0)
(7.33503 0.00598667 0)
(7.33626 0.0075442 0)
(7.33771 0.00905036 0)
(7.33936 0.0105088 0)
(7.34119 0.0119198 0)
(7.34319 0.0132816 0)
(7.34534 0.0145903 0)
(7.34763 0.0158404 0)
(7.35007 0.0170246 0)
(7.35263 0.0181342 0)
(7.35532 0.0191587 0)
(7.35814 0.0200856 0)
(7.36106 0.0209003 0)
(7.3641 0.0215868 0)
(7.36724 0.0221275 0)
(7.37048 0.0225039 0)
(7.3738 0.0226964 0)
(7.37719 0.0226855 0)
(7.38063 0.0224512 0)
(7.38412 0.0219744 0)
(7.38761 0.0212371 0)
(7.39111 0.0202229 0)
(7.39456 0.0189177 0)
(7.39796 0.0173103 0)
(7.40126 0.015393 0)
(7.40444 0.0131616 0)
(7.40746 0.0106163 0)
(7.4103 0.00776231 0)
(7.41291 0.00460581 0)
(7.41527 0.00117202 0)
(7.33303 0.000783341 0)
(7.33336 0.00229739 0)
(7.33405 0.00376983 0)
(7.33505 0.0052162 0)
(7.33629 0.00663768 0)
(7.33776 0.00803158 0)
(7.33943 0.00939217 0)
(7.34128 0.0107123 0)
(7.3433 0.011985 0)
(7.34547 0.0132031 0)
(7.34777 0.0143591 0)
(7.35021 0.0154445 0)
(7.35276 0.0164501 0)
(7.35543 0.017365 0)
(7.3582 0.018177 0)
(7.36106 0.0188725 0)
(7.36401 0.0194369 0)
(7.36704 0.0198551 0)
(7.37013 0.020111 0)
(7.37328 0.0201886 0)
(7.37646 0.0200721 0)
(7.37967 0.019746 0)
(7.38287 0.0191958 0)
(7.38606 0.0184082 0)
(7.38921 0.0173717 0)
(7.39229 0.016077 0)
(7.39528 0.0145174 0)
(7.39816 0.0126893 0)
(7.40089 0.0105922 0)
(7.40345 0.00822922 0)
(7.40581 0.00560922 0)
(7.40796 0.00273658 0)
(7.40986 -0.000370101 0)
(7.33304 0.000615338 0)
(7.33343 0.00177198 0)
(7.33423 0.00287486 0)
(7.33534 0.00394909 0)
(7.33669 0.00500409 0)
(7.33825 0.00604524 0)
(7.34001 0.0070709 0)
(7.34193 0.0080751 0)
(7.344 0.00905013 0)
(7.3462 0.00998708 0)
(7.34853 0.0108764 0)
(7.35097 0.011708 0)
(7.35351 0.0124718 0)
(7.35614 0.0131566 0)
(7.35886 0.0137504 0)
(7.36165 0.0142398 0)
(7.3645 0.0146111 0)
(7.3674 0.0148501 0)
(7.37034 0.0149428 0)
(7.37331 0.0148754 0)
(7.37628 0.0146347 0)
(7.37924 0.014208 0)
(7.38218 0.0135838 0)
(7.38507 0.0127521 0)
(7.38789 0.0117045 0)
(7.39061 0.010435 0)
(7.39323 0.00893997 0)
(7.39571 0.00721848 0)
(7.39803 0.00527181 0)
(7.40017 0.00310477 0)
(7.4021 0.000728308 0)
(7.4038 -0.00184494 0)
(7.40526 -0.00460515 0)
(7.33303 0.000473155 0)
(7.33337 0.00142028 0)
(7.33414 0.00240153 0)
(7.33525 0.00341312 0)
(7.33661 0.00443659 0)
(7.3382 0.00545566 0)
(7.33998 0.00645474 0)
(7.34193 0.00742337 0)
(7.34403 0.00835275 0)
(7.34626 0.00923422 0)
(7.34861 0.0100596 0)
(7.35106 0.0108203 0)
(7.35359 0.011508 0)
(7.3562 0.012113 0)
(7.35888 0.0126247 0)
(7.36161 0.0130319 0)
(7.36438 0.0133232 0)
(7.36718 0.0134873 0)
(7.36999 0.0135134 0)
(7.37281 0.0133912 0)
(7.3756 0.0131108 0)
(7.37836 0.0126631 0)
(7.38107 0.0120399 0)
(7.3837 0.0112349 0)
(7.38625 0.0102434 0)
(7.38868 0.00906158 0)
(7.39099 0.00768816 0)
(7.39314 0.00612465 0)
(7.39513 0.00437188 0)
(7.39694 0.00243622 0)
(7.39855 0.00032215 0)
(7.39993 -0.00195305 0)
(7.40108 -0.0043739 0)
(7.33307 0.000180881 0)
(7.3336 0.000503097 0)
(7.33459 0.000861752 0)
(7.33587 0.00128773 0)
(7.33736 0.0017875 0)
(7.33904 0.00235851 0)
(7.34089 0.00296493 0)
(7.34289 0.00358491 0)
(7.34501 0.00420416 0)
(7.34725 0.00480858 0)
(7.34959 0.00538428 0)
(7.35201 0.00591944 0)
(7.35451 0.00640461 0)
(7.35707 0.00682824 0)
(7.35968 0.00717788 0)
(7.36233 0.00744171 0)
(7.365 0.00760858 0)
(7.36768 0.00766806 0)
(7.37035 0.00761039 0)
(7.373 0.00742669 0)
(7.37561 0.0071091 0)
(7.37817 0.00665048 0)
(7.38065 0.0060437 0)
(7.38304 0.00528461 0)
(7.38532 0.00436937 0)
(7.38748 0.00329525 0)
(7.38949 0.00206913 0)
(7.39134 0.000688145 0)
(7.39301 -0.000841962 0)
(7.39449 -0.00251529 0)
(7.39577 -0.00432867 0)
(7.39683 -0.00627387 0)
(7.39767 -0.00833315 0)
(7.33303 0.000122446 0)
(7.33345 0.000492744 0)
(7.33441 0.00102422 0)
(7.33574 0.00162761 0)
(7.33734 0.00224287 0)
(7.33914 0.00285164 0)
(7.34108 0.00346191 0)
(7.34315 0.00406254 0)
(7.34534 0.00464144 0)
(7.34763 0.00518973 0)
(7.34999 0.00569638 0)
(7.35244 0.00614516 0)
(7.35494 0.00653678 0)
(7.3575 0.00686697 0)
(7.36008 0.00712805 0)
(7.36268 0.00731206 0)
(7.36529 0.0074111 0)
(7.36788 0.0074176 0)
(7.37045 0.00732436 0)
(7.37299 0.00712487 0)
(7.37546 0.00681371 0)
(7.37786 0.00638401 0)
(7.38017 0.00582561 0)
(7.38238 0.00514354 0)
(7.38446 0.00433685 0)
(7.38641 0.00340522 0)
(7.38822 0.0023429 0)
(7.38985 0.00115463 0)
(7.39131 -0.000150895 0)
(7.39257 -0.00157041 0)
(7.39363 -0.00309573 0)
(7.39447 -0.00472285 0)
(7.39511 -0.00644049 0)
(7.33315 -0.000522469 0)
(7.33404 -0.00145056 0)
(7.33535 -0.00197113 0)
(7.33682 -0.00218642 0)
(7.33843 -0.00221072 0)
(7.34022 -0.00209555 0)
(7.34217 -0.00186904 0)
(7.34425 -0.00157422 0)
(7.34643 -0.00124646 0)
(7.34869 -0.00090937 0)
(7.35102 -0.000577412 0)
(7.35342 -0.000256617 0)
(7.35587 3.11242e-05 0)
(7.35837 0.000271974 0)
(7.36088 0.000457609 0)
(7.36341 0.000580593 0)
(7.36593 0.000633926 0)
(7.36842 0.000611209 0)
(7.37087 0.000506901 0)
(7.37327 0.000316073 0)
(7.3756 3.41591e-05 0)
(7.37783 -0.000340053 0)
(7.37996 -0.000802088 0)
(7.38198 -0.00136224 0)
(7.38387 -0.00202158 0)
(7.3856 -0.00277749 0)
(7.38716 -0.00363466 0)
(7.38856 -0.00458525 0)
(7.38978 -0.0056264 0)
(7.3908 -0.00675338 0)
(7.39161 -0.0079585 0)
(7.39222 -0.00923602 0)
(7.3926 -0.0105771 0)
(7.33309 -0.000201351 0)
(7.33402 -0.000362929 0)
(7.33569 -0.00033052 0)
(7.33756 -0.000261096 0)
(7.33957 -0.000133289 0)
(7.34172 5.39358e-05 0)
(7.34396 0.000254179 0)
(7.34626 0.000453529 0)
(7.34863 0.000649369 0)
(7.35106 0.000836531 0)
(7.35355 0.00101258 0)
(7.35609 0.00118087 0)
(7.35864 0.00132569 0)
(7.36121 0.00143809 0)
(7.36379 0.0015136 0)
(7.36637 0.00154774 0)
(7.36894 0.0015357 0)
(7.37148 0.00147278 0)
(7.37397 0.00135476 0)
(7.37641 0.00117778 0)
(7.37877 0.000938038 0)
(7.38107 0.000634907 0)
(7.38326 0.000273243 0)
(7.38533 -0.000156998 0)
(7.38727 -0.000657537 0)
(7.38908 -0.0012282 0)
(7.39074 -0.00186188 0)
(7.39225 -0.00255999 0)
(7.3936 -0.00332217 0)
(7.39477 -0.00414453 0)
(7.39576 -0.00502302 0)
(7.39657 -0.00595405 0)
(7.3972 -0.0069313 0)
(7.33437 -0.00337801 0)
(7.33918 -0.00619125 0)
(7.34502 -0.00719275 0)
(7.35142 -0.00773939 0)
(7.35826 -0.00792418 0)
(7.36531 -0.00786452 0)
(7.37247 -0.00770745 0)
(7.37968 -0.00751192 0)
(7.38691 -0.00730174 0)
(7.39414 -0.00709588 0)
(7.40136 -0.00690947 0)
(7.40855 -0.00675766 0)
(7.4157 -0.00663795 0)
(7.4228 -0.00655126 0)
(7.42986 -0.00650067 0)
(7.43685 -0.00648896 0)
(7.44377 -0.00651841 0)
(7.45061 -0.006591 0)
(7.45735 -0.00670844 0)
(7.46399 -0.00687212 0)
(7.4705 -0.00708273 0)
(7.47687 -0.0073427 0)
(7.4831 -0.00765805 0)
(7.48917 -0.00802108 0)
(7.49507 -0.00843039 0)
(7.50078 -0.008886 0)
(7.50629 -0.00938672 0)
(7.51159 -0.00993076 0)
(7.51667 -0.0105155 0)
(7.52152 -0.0111378 0)
(7.52614 -0.0117943 0)
(7.53051 -0.0124815 0)
(7.53462 -0.0131953 0)
(7.3298 -0.00385647 0)
(7.32473 -0.00798153 0)
(7.31639 -0.0103006 0)
(7.30651 -0.0119773 0)
(7.29645 -0.0131434 0)
(7.28631 -0.0139253 0)
(7.27617 -0.0144737 0)
(7.26617 -0.0148744 0)
(7.25637 -0.0151772 0)
(7.24678 -0.015419 0)
(7.2374 -0.0156257 0)
(7.22823 -0.0158134 0)
(7.21924 -0.0159914 0)
(7.21042 -0.0161675 0)
(7.20175 -0.0163477 0)
(7.19321 -0.0165361 0)
(7.18478 -0.016735 0)
(7.17644 -0.0169461 0)
(7.16816 -0.0171705 0)
(7.15993 -0.017409 0)
(7.15173 -0.0176616 0)
(7.14354 -0.0179282 0)
(7.13534 -0.0182094 0)
(7.12711 -0.0185046 0)
(7.11885 -0.0188136 0)
(7.11053 -0.0191351 0)
(7.10215 -0.0194674 0)
(7.09369 -0.0198084 0)
(7.08516 -0.0201561 0)
(7.07654 -0.0205079 0)
(7.06784 -0.0208613 0)
(7.05905 -0.0212126 0)
(7.05017 -0.0215601 0)
(1.75963 0.095585 0)
(1.17749 0.0962094 0)
(1.42085 0.462236 0)
(2.42157 1.06308 0)
(3.65428 1.63024 0)
(4.83413 1.96775 0)
(5.86255 1.99026 0)
(6.71855 1.68766 0)
(7.37815 1.09345 0)
(7.81546 0.274035 0)
(7.93415 -0.631275 0)
(7.64624 -1.43533 0)
(7.17651 -2.07982 0)
(6.92546 -2.66593 0)
(6.9022 -3.20052 0)
(6.7393 -3.50653 0)