/*--------------------------------*- C++ -*----------------------------------*\
  =========                 |
  \\      /  F ield         | OpenFOAM: The Open Source CFD Toolbox
   \\    /   O peration     | Website:  https://openfoam.org
    \\  /    A nd           | Version:  10
     \\/     M anipulation  |
\*---------------------------------------------------------------------------*/
FoamFile
{
    format      ascii;
    class       volScalarField;
    location    "0.07";
    object      nut;
}
// * * * * * * * * * * * * * * * * * * * * * * * * * * * * * * * * * * * * * //

dimensions      [0 2 -1 0 0 0 0];

internalField   nonuniform List<scalar> 
6820
(
0.000503209
0.00039706
0.000324466
0.000269279
0.000236363
0.000213923
0.000197246
0.000184463
0.00017411
0.00016539
0.000157853
0.000151204
0.000145244
0.000139832
0.000134865
0.000130263
0.000125963
0.000121914
0.000118074
0.000114408
0.000110883
0.000107469
0.000104139
0.000100863
9.76142e-05
9.43615e-05
9.10715e-05
8.77074e-05
8.42209e-05
8.05727e-05
7.66617e-05
7.23806e-05
6.77751e-05
8.18548e-05
0.000143732
0.000196428
0.000210842
0.000206411
0.000197544
0.000187277
0.000177366
0.000168401
0.000160366
0.000153157
0.000146658
0.000140759
0.00013537
0.000130418
0.000125843
0.000121596
0.000117633
0.00011392
0.000110427
0.000107128
0.000104002
0.00010103
9.81962e-05
9.54867e-05
9.28898e-05
9.03961e-05
8.79954e-05
8.56893e-05
8.34567e-05
8.13617e-05
7.93363e-05
7.79811e-05
3.85887e-05
2.73873e-05
4.30608e-05
7.44939e-05
9.59136e-05
0.000109285
0.000116542
0.00011985
0.000120788
0.00012026
0.000118826
0.000116836
0.000114511
0.000111997
0.000109387
0.000106742
0.000104103
0.000101498
9.8945e-05
9.64571e-05
9.40425e-05
9.17069e-05
8.94547e-05
8.72894e-05
8.52147e-05
8.3235e-05
8.13564e-05
7.95882e-05
7.79449e-05
7.64505e-05
7.51502e-05
7.41279e-05
7.36416e-05
1.99671e-05
2.35232e-05
2.20607e-05
1.27697e-05
2.90386e-06
1.2459e-05
2.30001e-05
3.16756e-05
3.86705e-05
4.42383e-05
4.86208e-05
5.20328e-05
5.46486e-05
5.66073e-05
5.80301e-05
5.90162e-05
5.96473e-05
5.99912e-05
6.01042e-05
6.00337e-05
5.98196e-05
5.94961e-05
5.90934e-05
5.86384e-05
5.81562e-05
5.76713e-05
5.7209e-05
5.67967e-05
5.64681e-05
5.62632e-05
5.62444e-05
5.6483e-05
5.71584e-05
1.32452e-05
1.50774e-05
1.99283e-05
2.20232e-05
2.14684e-05
1.95176e-05
1.68794e-05
1.3921e-05
1.08585e-05
7.82006e-06
4.88888e-06
2.13894e-06
7.52629e-07
2.97762e-06
5.14739e-06
7.12712e-06
8.91765e-06
1.05303e-05
1.19801e-05
1.3284e-05
1.44599e-05
1.55267e-05
1.65036e-05
1.74112e-05
1.82709e-05
1.91062e-05
1.99432e-05
2.0812e-05
2.17476e-05
2.27943e-05
2.4e-05
2.54312e-05
2.71354e-05
1.01923e-05
1.10173e-05
1.18439e-05
1.26475e-05
1.3286e-05
1.38312e-05
1.42276e-05
1.44404e-05
1.4482e-05
1.43739e-05
1.41375e-05
1.37952e-05
1.33678e-05
1.2869e-05
1.23169e-05
1.17261e-05
1.11087e-05
1.04743e-05
9.82969e-06
9.17964e-06
8.52647e-06
7.87038e-06
7.20949e-06
6.53975e-06
5.85488e-06
5.14616e-06
4.40243e-06
3.61045e-06
2.75965e-06
1.85977e-06
1.10034e-06
1.35143e-06
2.64188e-06
7.53763e-06
8.24995e-06
8.67464e-06
8.91058e-06
8.80936e-06
8.60841e-06
8.45067e-06
8.36691e-06
8.35028e-06
8.37607e-06
8.41717e-06
8.45483e-06
8.47964e-06
8.48926e-06
8.48021e-06
8.45095e-06
8.40134e-06
8.33192e-06
8.24343e-06
8.13664e-06
8.01214e-06
7.87021e-06
7.7107e-06
7.53294e-06
7.33566e-06
7.11695e-06
6.8745e-06
6.60619e-06
6.3119e-06
5.99761e-06
5.68505e-06
5.43578e-06
5.35429e-06
5.75592e-06
6.61289e-06
7.00998e-06
7.12231e-06
6.87139e-06
6.51125e-06
6.18254e-06
5.90956e-06
5.69069e-06
5.51668e-06
5.37535e-06
5.2569e-06
5.15403e-06
5.0613e-06
4.97503e-06
4.89254e-06
4.8115e-06
4.72988e-06
4.64593e-06
4.55813e-06
4.46513e-06
4.36567e-06
4.25857e-06
4.14277e-06
4.01747e-06
3.88246e-06
3.73887e-06
3.59086e-06
3.44819e-06
3.33323e-06
3.28488e-06
3.37986e-06
3.68252e-06
4.48272e-06
5.25187e-06
5.54882e-06
5.70257e-06
5.62122e-06
5.41382e-06
5.17059e-06
4.92573e-06
4.6985e-06
4.49676e-06
4.31874e-06
4.15996e-06
4.01627e-06
3.88417e-06
3.76075e-06
3.64355e-06
3.53051e-06
3.41988e-06
3.31016e-06
3.19998e-06
3.08807e-06
2.97328e-06
2.85466e-06
2.73167e-06
2.60448e-06
2.47483e-06
2.34716e-06
2.23123e-06
2.14493e-06
2.11959e-06
2.19549e-06
2.42239e-06
2.81245e-06
3.55457e-06
4.24378e-06
4.52468e-06
4.68797e-06
4.65434e-06
4.49396e-06
4.29415e-06
4.09344e-06
3.90827e-06
3.74323e-06
3.59569e-06
3.46172e-06
3.33817e-06
3.22248e-06
3.1126e-06
3.00693e-06
2.90419e-06
2.80324e-06
2.70308e-06
2.60279e-06
2.50163e-06
2.3991e-06
2.29512e-06
2.19037e-06
2.08675e-06
1.98838e-06
1.90282e-06
1.84305e-06
1.82829e-06
1.88444e-06
2.03519e-06
2.30178e-06
2.67727e-06
2.86511e-06
3.4681e-06
3.72957e-06
3.88027e-06
3.88196e-06
3.77822e-06
3.63268e-06
3.47535e-06
3.32065e-06
3.17574e-06
3.04215e-06
2.91907e-06
2.80517e-06
2.69892e-06
2.59881e-06
2.50349e-06
2.41179e-06
2.32267e-06
2.23532e-06
2.14914e-06
2.06384e-06
1.97957e-06
1.89715e-06
1.81842e-06
1.74681e-06
1.68807e-06
1.65101e-06
1.64816e-06
1.69438e-06
1.80543e-06
1.99135e-06
2.2594e-06
2.59983e-06
2.33957e-06
2.8622e-06
3.12056e-06
3.27527e-06
3.30879e-06
3.24351e-06
3.12828e-06
2.99345e-06
2.85604e-06
2.72519e-06
2.60378e-06
2.49173e-06
2.38808e-06
2.29158e-06
2.20096e-06
2.11512e-06
2.03316e-06
1.95438e-06
1.87833e-06
1.80487e-06
1.73423e-06
1.66721e-06
1.6054e-06
1.55154e-06
1.50987e-06
1.48652e-06
1.48952e-06
1.52834e-06
1.61214e-06
1.74867e-06
1.94078e-06
2.18982e-06
2.48756e-06
1.9293e-06
2.38389e-06
2.6429e-06
2.80038e-06
2.8536e-06
2.8181e-06
2.73264e-06
2.62459e-06
2.50948e-06
2.39587e-06
2.28742e-06
2.18528e-06
2.08959e-06
2.00002e-06
1.91602e-06
1.837e-06
1.76248e-06
1.69213e-06
1.62584e-06
1.56384e-06
1.50678e-06
1.45594e-06
1.41339e-06
1.38217e-06
1.36646e-06
1.37154e-06
1.40333e-06
1.46776e-06
1.56949e-06
1.71165e-06
1.89409e-06
2.1157e-06
2.37067e-06
1.60149e-06
2.00106e-06
2.26245e-06
2.42688e-06
2.49866e-06
2.48945e-06
2.42889e-06
2.34128e-06
2.24193e-06
2.14019e-06
2.04103e-06
1.94672e-06
1.85815e-06
1.77548e-06
1.69848e-06
1.62686e-06
1.56038e-06
1.49897e-06
1.44279e-06
1.39237e-06
1.34866e-06
1.31316e-06
1.28803e-06
1.27608e-06
1.28077e-06
1.30591e-06
1.35524e-06
1.43198e-06
1.53809e-06
1.67447e-06
1.83966e-06
2.03169e-06
2.24708e-06
1.33368e-06
1.69126e-06
1.95591e-06
2.12896e-06
2.21577e-06
2.22708e-06
2.18693e-06
2.11748e-06
2.03365e-06
1.94476e-06
1.85616e-06
1.77063e-06
1.6896e-06
1.61371e-06
1.54321e-06
1.47818e-06
1.41876e-06
1.36516e-06
1.31781e-06
1.27745e-06
1.24513e-06
1.22234e-06
1.21097e-06
1.21325e-06
1.23164e-06
1.26856e-06
1.32608e-06
1.40566e-06
1.50786e-06
1.63242e-06
1.77747e-06
1.94085e-06
2.12092e-06
1.11021e-06
1.43783e-06
1.7064e-06
1.88916e-06
1.98982e-06
2.01928e-06
1.99755e-06
1.94441e-06
1.87407e-06
1.79589e-06
1.71573e-06
1.6371e-06
1.56206e-06
1.49176e-06
1.42686e-06
1.36776e-06
1.31481e-06
1.26839e-06
1.22907e-06
1.19757e-06
1.1749e-06
1.16229e-06
1.16117e-06
1.17312e-06
1.19965e-06
1.2421e-06
1.30142e-06
1.37807e-06
1.47181e-06
1.58178e-06
1.70652e-06
1.84351e-06
1.99261e-06
9.19945e-07
1.22864e-06
1.50216e-06
1.69511e-06
1.80854e-06
1.85359e-06
1.84765e-06
1.80867e-06
1.75035e-06
1.68214e-06
1.61024e-06
1.5386e-06
1.46967e-06
1.40498e-06
1.34547e-06
1.29178e-06
1.24444e-06
1.20399e-06
1.171e-06
1.14619e-06
1.13036e-06
1.12446e-06
1.12946e-06
1.1463e-06
1.17582e-06
1.21862e-06
1.27497e-06
1.34477e-06
1.42741e-06
1.52196e-06
1.62699e-06
1.73998e-06
1.86203e-06
7.54869e-07
1.05493e-06
1.33479e-06
1.53798e-06
1.66338e-06
1.72237e-06
1.73068e-06
1.70466e-06
1.65742e-06
1.59835e-06
1.53388e-06
1.46834e-06
1.40459e-06
1.34451e-06
1.28935e-06
1.23997e-06
1.19706e-06
1.16118e-06
1.13289e-06
1.11278e-06
1.10143e-06
1.09944e-06
1.10738e-06
1.12573e-06
1.15481e-06
1.19475e-06
1.24543e-06
1.30645e-06
1.37708e-06
1.45634e-06
1.54286e-06
1.63444e-06
1.73301e-06
6.09298e-07
9.10721e-07
1.19848e-06
1.41163e-06
1.54822e-06
1.6197e-06
1.64064e-06
1.62612e-06
1.5887e-06
1.53769e-06
1.47976e-06
1.41955e-06
1.36023e-06
1.30397e-06
1.25221e-06
1.20598e-06
1.16604e-06
1.13296e-06
1.10725e-06
1.08935e-06
1.07965e-06
1.07849e-06
1.08614e-06
1.10275e-06
1.12833e-06
1.16276e-06
1.20568e-06
1.25659e-06
1.31472e-06
1.37912e-06
1.44874e-06
1.52149e-06
1.59985e-06
4.79625e-07
7.92475e-07
1.08943e-06
1.31197e-06
1.45891e-06
1.54169e-06
1.57403e-06
1.57002e-06
1.54167e-06
1.49821e-06
1.44641e-06
1.39113e-06
1.3358e-06
1.28279e-06
1.23373e-06
1.18976e-06
1.15168e-06
1.12008e-06
1.09539e-06
1.07792e-06
1.06791e-06
1.06548e-06
1.07071e-06
1.08352e-06
1.10376e-06
1.13113e-06
1.16523e-06
1.20549e-06
1.25122e-06
1.30155e-06
1.35565e-06
1.41163e-06
1.47235e-06
3.6489e-07
6.98983e-07
1.00545e-06
1.23637e-06
1.39256e-06
1.48525e-06
1.52766e-06
1.53278e-06
1.51213e-06
1.47483e-06
1.42771e-06
1.37584e-06
1.32286e-06
1.27134e-06
1.22308e-06
1.17932e-06
1.14093e-06
1.10847e-06
1.08234e-06
1.06278e-06
1.04989e-06
1.0437e-06
1.04415e-06
1.05106e-06
1.0642e-06
1.08323e-06
1.10773e-06
1.13716e-06
1.17093e-06
1.20829e-06
1.24862e-06
1.29024e-06
1.3361e-06
2.69483e-07
6.31399e-07
9.458e-07
1.18364e-06
1.34798e-06
1.44965e-06
1.50126e-06
1.51493e-06
1.50173e-06
1.47057e-06
1.42832e-06
1.38013e-06
1.32975e-06
1.27989e-06
1.23242e-06
1.18866e-06
1.14946e-06
1.11542e-06
1.08688e-06
1.06403e-06
1.04693e-06
1.03555e-06
1.02978e-06
1.02941e-06
1.03422e-06
1.04389e-06
1.05805e-06
1.07627e-06
1.09807e-06
1.12285e-06
1.15018e-06
1.17856e-06
1.21107e-06
2.10218e-07
5.92635e-07
9.10637e-07
1.15314e-06
1.32392e-06
1.43299e-06
1.49167e-06
1.51169e-06
1.50355e-06
1.47598e-06
1.43587e-06
1.3885e-06
1.33781e-06
1.28663e-06
1.23699e-06
1.19029e-06
1.14746e-06
1.1091e-06
1.07556e-06
1.047e-06
1.02348e-06
1.00494e-06
9.91273e-07
9.8231e-07
9.77848e-07
9.77648e-07
9.81436e-07
9.88896e-07
9.9968e-07
1.01334e-06
1.02961e-06
1.04719e-06
1.06901e-06
2.16122e-07
5.86247e-07
9.01225e-07
1.14607e-06
1.32231e-06
1.43835e-06
1.50458e-06
1.53192e-06
1.53028e-06
1.50809e-06
1.47208e-06
1.42748e-06
1.37824e-06
1.32724e-06
1.27655e-06
1.22762e-06
1.18143e-06
1.1386e-06
1.09952e-06
1.06441e-06
1.03333e-06
1.00629e-06
9.83247e-07
9.64117e-07
9.48804e-07
9.37198e-07
9.29174e-07
9.24584e-07
9.23261e-07
9.24942e-07
9.29527e-07
9.35919e-07
9.47017e-07
2.87341e-07
6.14331e-07
9.18392e-07
1.16195e-06
1.34052e-06
1.45995e-06
1.52955e-06
1.55931e-06
1.55883e-06
1.53645e-06
1.49902e-06
1.4519e-06
1.3992e-06
1.34392e-06
1.28824e-06
1.23365e-06
1.18115e-06
1.13138e-06
1.08472e-06
1.04136e-06
1.00141e-06
9.64881e-07
9.31782e-07
9.02113e-07
8.75886e-07
8.53135e-07
8.33908e-07
8.18252e-07
8.06203e-07
7.97712e-07
7.92849e-07
7.90793e-07
7.94119e-07
3.97397e-07
6.76985e-07
9.65052e-07
1.20638e-06
1.38873e-06
1.5149e-06
1.59248e-06
1.63033e-06
1.63716e-06
1.62073e-06
1.58751e-06
1.54274e-06
1.49049e-06
1.43384e-06
1.37507e-06
1.31583e-06
1.25725e-06
1.20009e-06
1.14486e-06
1.09186e-06
1.04126e-06
9.93175e-07
9.47708e-07
9.0495e-07
8.65041e-07
8.28159e-07
7.9454e-07
7.64449e-07
7.38187e-07
7.15987e-07
6.98204e-07
6.84317e-07
6.76945e-07
5.32259e-07
7.7232e-07
1.04004e-06
1.27343e-06
1.45185e-06
1.57474e-06
1.64853e-06
1.68189e-06
1.68367e-06
1.66184e-06
1.62303e-06
1.57257e-06
1.51452e-06
1.45191e-06
1.38693e-06
1.32113e-06
1.25553e-06
1.19081e-06
1.12741e-06
1.06558e-06
1.00547e-06
9.47206e-07
8.90884e-07
8.36653e-07
7.84722e-07
7.35387e-07
6.89042e-07
6.46185e-07
6.07409e-07
5.73342e-07
5.44723e-07
5.21672e-07
5.06598e-07
6.89532e-07
9.01203e-07
1.15258e-06
1.38537e-06
1.5722e-06
1.70797e-06
1.79595e-06
1.84251e-06
1.85501e-06
1.84061e-06
1.80576e-06
1.75593e-06
1.69555e-06
1.62812e-06
1.55627e-06
1.48193e-06
1.4065e-06
1.3309e-06
1.25577e-06
1.18149e-06
1.10831e-06
1.03638e-06
9.65817e-07
8.96746e-07
8.29335e-07
7.63828e-07
7.00569e-07
6.40027e-07
5.8283e-07
5.29762e-07
4.81878e-07
4.39982e-07
4.06945e-07
8.72419e-07
1.06312e-06
1.29176e-06
1.50602e-06
1.67448e-06
1.79149e-06
1.86168e-06
1.89294e-06
1.89333e-06
1.86997e-06
1.82876e-06
1.77445e-06
1.71076e-06
1.6405e-06
1.56579e-06
1.48823e-06
1.40894e-06
1.32876e-06
1.24826e-06
1.16783e-06
1.08775e-06
1.00821e-06
9.2935e-07
8.51319e-07
7.74267e-07
6.98379e-07
6.23899e-07
5.51145e-07
4.80539e-07
4.12651e-07
3.48274e-07
2.88543e-07
2.35772e-07
1.08703e-06
1.26866e-06
1.49703e-06
1.73232e-06
1.93449e-06
2.08693e-06
2.18697e-06
2.23916e-06
2.25092e-06
2.23035e-06
2.18507e-06
2.12169e-06
2.04556e-06
1.9608e-06
1.87054e-06
1.777e-06
1.68177e-06
1.58591e-06
1.49014e-06
1.3949e-06
1.30047e-06
1.20704e-06
1.11471e-06
1.02359e-06
9.33766e-07
8.45364e-07
7.5852e-07
6.73404e-07
5.90214e-07
5.0916e-07
4.30464e-07
3.54416e-07
2.808e-07
1.34453e-06
1.51442e-06
1.70163e-06
1.87983e-06
2.02173e-06
2.12277e-06
2.18696e-06
2.21971e-06
2.22556e-06
2.20842e-06
2.17197e-06
2.11962e-06
2.05451e-06
1.97947e-06
1.89694e-06
1.809e-06
1.71736e-06
1.62337e-06
1.52811e-06
1.43239e-06
1.33685e-06
1.24197e-06
1.14815e-06
1.0557e-06
9.64935e-07
8.7616e-07
7.89707e-07
7.05963e-07
6.2539e-07
5.48559e-07
4.76166e-07
4.09379e-07
3.48227e-07
1.65718e-06
1.84769e-06
2.09849e-06
2.38442e-06
2.63325e-06
2.80886e-06
2.90944e-06
2.94693e-06
2.93532e-06
2.88759e-06
2.81453e-06
2.72441e-06
2.62318e-06
2.515e-06
2.40273e-06
2.2883e-06
2.17301e-06
2.05778e-06
1.94324e-06
1.82987e-06
1.71805e-06
1.6081e-06
1.50032e-06
1.395e-06
1.29245e-06
1.19299e-06
1.09701e-06
1.00491e-06
9.17186e-07
8.34346e-07
7.57013e-07
6.85795e-07
6.20804e-07
2.05536e-06
2.20293e-06
2.29134e-06
2.38168e-06
2.48308e-06
2.58778e-06
2.68361e-06
2.75896e-06
2.8056e-06
2.82037e-06
2.80438e-06
2.76129e-06
2.69587e-06
2.61302e-06
2.51726e-06
2.41245e-06
2.30175e-06
2.18767e-06
2.07211e-06
1.95655e-06
1.84209e-06
1.72956e-06
1.61963e-06
1.51282e-06
1.40958e-06
1.31032e-06
1.21546e-06
1.12542e-06
1.04068e-06
9.61775e-07
8.89251e-07
8.24008e-07
7.65021e-07
2.55889e-06
2.87943e-06
3.31239e-06
3.74303e-06
4.02872e-06
4.15836e-06
4.17875e-06
4.13061e-06
4.0403e-06
3.92491e-06
3.79459e-06
3.6548e-06
3.50868e-06
3.35828e-06
3.20521e-06
3.05095e-06
2.89686e-06
2.74424e-06
2.59427e-06
2.44795e-06
2.30616e-06
2.16958e-06
2.03875e-06
1.91411e-06
1.79597e-06
1.68459e-06
1.58017e-06
1.48285e-06
1.39279e-06
1.3101e-06
1.23497e-06
1.16761e-06
1.10758e-06
3.26497e-06
3.18679e-06
2.92968e-06
2.90058e-06
3.0973e-06
3.37386e-06
3.62515e-06
3.80418e-06
3.90094e-06
3.92699e-06
3.90215e-06
3.84589e-06
3.77396e-06
3.69763e-06
3.62398e-06
3.55675e-06
3.49734e-06
3.44572e-06
3.40108e-06
3.36228e-06
3.32816e-06
3.29769e-06
3.26999e-06
3.24434e-06
3.2202e-06
3.19712e-06
3.17478e-06
3.15288e-06
3.13129e-06
3.11002e-06
3.08921e-06
3.07042e-06
3.05144e-06
4.30391e-06
5.54431e-06
6.311e-06
6.5643e-06
6.46632e-06
6.24929e-06
6.10379e-06
6.11407e-06
6.28779e-06
6.58712e-06
6.95907e-06
7.35644e-06
7.7447e-06
8.10149e-06
8.41424e-06
8.67742e-06
8.89013e-06
9.05432e-06
9.17352e-06
9.25208e-06
9.29458e-06
9.30554e-06
9.28922e-06
9.24944e-06
9.18961e-06
9.11259e-06
9.02083e-06
8.91613e-06
8.80021e-06
8.67373e-06
8.53872e-06
8.39593e-06
8.24861e-06
5.63197e-06
3.58389e-06
2.77238e-06
4.63403e-06
7.35075e-06
9.91749e-06
1.2098e-05
1.38271e-05
1.51166e-05
1.60077e-05
1.65473e-05
1.67837e-05
1.67647e-05
1.65359e-05
1.61385e-05
1.56094e-05
1.49807e-05
1.42798e-05
1.35297e-05
1.27494e-05
1.1954e-05
1.11556e-05
1.03636e-05
9.58497e-06
8.82489e-06
8.08677e-06
7.37271e-06
6.68315e-06
6.01837e-06
5.37467e-06
4.75485e-06
4.14412e-06
3.56259e-06
1.14397e-05
1.65183e-05
1.82819e-05
1.97869e-05
2.02472e-05
1.9485e-05
1.77227e-05
1.52364e-05
1.23875e-05
9.73337e-06
8.1961e-06
8.70459e-06
1.09311e-05
1.3899e-05
1.7032e-05
2.00798e-05
2.29345e-05
2.55505e-05
2.79127e-05
3.0022e-05
3.1888e-05
3.35248e-05
3.49489e-05
3.61773e-05
3.7227e-05
3.81143e-05
3.88549e-05
3.94637e-05
3.99563e-05
4.03477e-05
4.0659e-05
4.09089e-05
4.11496e-05
2.48876e-05
2.86657e-05
3.9025e-05
5.34808e-05
6.77642e-05
8.17123e-05
9.45886e-05
0.000105786
0.000115259
0.000123081
0.00012936
0.000134248
0.000137916
0.000140528
0.000142235
0.000143177
0.000143475
0.000143237
0.000142555
0.000141508
0.000140165
0.000138581
0.000136804
0.000134875
0.000132825
0.000130683
0.000128471
0.000126203
0.000123899
0.000121559
0.000119203
0.000116838
0.000114682
0.000543324
0.000510574
0.000491589
0.000467876
0.000443818
0.000421436
0.000399888
0.000379241
0.000359763
0.000341476
0.000324363
0.000308414
0.000293584
0.000279811
0.000267025
0.000255155
0.000244124
0.000233861
0.000224296
0.000215364
0.000207006
0.000199167
0.000191798
0.000184854
0.000178296
0.000172087
0.000166192
0.000160587
0.000155225
0.000150112
0.000145076
0.000140689
0.000136621
6.49307e-05
5.98087e-05
5.54126e-05
4.8013e-05
3.83246e-05
2.92674e-05
2.25397e-05
1.75274e-05
1.52357e-05
1.94072e-05
2.76979e-05
3.90628e-05
4.71066e-05
4.54214e-05
3.81667e-05
3.65399e-05
4.00151e-05
4.17346e-05
4.13038e-05
4.13552e-05
4.84085e-05
5.2037e-05
4.7295e-05
4.63196e-05
4.28088e-05
3.5986e-05
2.97176e-05
2.5334e-05
2.20731e-05
1.87996e-05
1.49239e-05
1.05512e-05
6.80303e-06
5.67162e-06
7.82428e-06
1.22824e-05
1.63909e-05
1.87579e-05
2.12339e-05
2.46463e-05
2.74216e-05
2.75531e-05
2.52054e-05
2.20828e-05
1.93331e-05
1.71004e-05
1.52089e-05
1.35466e-05
1.20709e-05
1.07558e-05
9.57574e-06
8.50762e-06
7.53474e-06
6.64686e-06
5.83799e-06
5.10428e-06
4.4426e-06
3.84975e-06
3.32221e-06
2.85617e-06
2.44763e-06
2.09261e-06
1.78714e-06
1.52724e-06
1.30883e-06
1.12778e-06
9.79886e-07
8.61041e-07
7.67648e-07
6.96129e-07
6.43472e-07
6.07088e-07
5.84663e-07
5.73804e-07
5.71602e-07
5.74835e-07
5.80968e-07
5.89287e-07
6.00363e-07
6.13412e-07
6.24094e-07
6.26337e-07
6.17263e-07
5.99715e-07
5.79876e-07
5.62072e-07
5.46269e-07
5.30052e-07
5.1153e-07
4.90106e-07
4.65634e-07
4.37813e-07
4.06471e-07
3.72345e-07
3.37315e-07
3.03534e-07
2.73733e-07
2.4642e-07
2.30638e-07
1.97572e-07
0.000101975
8.91496e-05
6.76716e-05
5.37108e-05
4.29283e-05
3.24428e-05
2.25839e-05
1.48775e-05
1.58574e-05
2.62376e-05
3.99936e-05
4.90751e-05
4.70676e-05
3.60589e-05
2.84432e-05
3.17659e-05
3.57055e-05
3.5818e-05
3.45753e-05
3.37549e-05
3.76503e-05
4.55347e-05
4.55919e-05
4.34524e-05
4.2439e-05
3.74223e-05
3.07617e-05
2.53308e-05
2.12904e-05
1.76267e-05
1.35972e-05
9.14639e-06
4.89746e-06
2.95776e-06
7.91141e-06
1.38886e-05
1.72603e-05
1.92876e-05
2.24715e-05
2.64068e-05
2.86207e-05
2.77023e-05
2.48055e-05
2.17017e-05
1.91179e-05
1.69983e-05
1.51761e-05
1.35673e-05
1.2134e-05
1.08479e-05
9.68365e-06
8.62145e-06
7.64847e-06
6.75714e-06
5.94298e-06
5.20287e-06
4.53411e-06
3.93382e-06
3.39876e-06
2.92537e-06
2.50988e-06
2.14845e-06
1.83721e-06
1.57225e-06
1.34954e-06
1.16492e-06
1.01416e-06
8.93033e-07
7.97521e-07
7.23764e-07
6.68585e-07
6.294e-07
6.0404e-07
5.90349e-07
5.8569e-07
5.87046e-07
5.92021e-07
6.00063e-07
6.1204e-07
6.2746e-07
6.41888e-07
6.48483e-07
6.43051e-07
6.27517e-07
6.07524e-07
5.87464e-07
5.67979e-07
5.47578e-07
5.2515e-07
5.00553e-07
4.73777e-07
4.44411e-07
4.1203e-07
3.77108e-07
3.41297e-07
3.06764e-07
2.76148e-07
2.48179e-07
2.32255e-07
1.98636e-07
9.97301e-05
0.000102438
9.28967e-05
7.73481e-05
6.15967e-05
4.89245e-05
4.05301e-05
3.80432e-05
4.17077e-05
4.81591e-05
5.10229e-05
4.55065e-05
3.27314e-05
2.25627e-05
2.58853e-05
3.19338e-05
3.35129e-05
3.20453e-05
3.05923e-05
3.00478e-05
3.1387e-05
3.7158e-05
4.17693e-05
4.07036e-05
4.02036e-05
3.82172e-05
3.27536e-05
2.65051e-05
2.12541e-05
1.68029e-05
1.23855e-05
7.73441e-06
2.7072e-06
4.38745e-06
1.15404e-05
1.62089e-05
1.79468e-05
2.02545e-05
2.44658e-05
2.84578e-05
2.95062e-05
2.74616e-05
2.42251e-05
2.12677e-05
1.88821e-05
1.68916e-05
1.51517e-05
1.36009e-05
1.22083e-05
1.09477e-05
9.79703e-06
8.74034e-06
7.7679e-06
6.87399e-06
6.05509e-06
5.3087e-06
4.63257e-06
4.02427e-06
3.48098e-06
2.99952e-06
2.57639e-06
2.2079e-06
1.89019e-06
1.61927e-06
1.391e-06
1.20113e-06
1.04539e-06
9.19608e-07
8.19861e-07
7.42695e-07
6.84953e-07
6.43822e-07
6.16879e-07
6.01676e-07
5.95374e-07
5.94895e-07
5.97963e-07
6.04376e-07
6.15639e-07
6.31963e-07
6.49208e-07
6.60194e-07
6.59828e-07
6.48635e-07
6.31171e-07
6.11413e-07
5.90309e-07
5.67141e-07
5.41671e-07
5.14428e-07
4.85746e-07
4.55232e-07
4.22244e-07
3.87002e-07
3.50881e-07
3.16086e-07
2.85007e-07
2.56916e-07
2.40683e-07
2.06971e-07
7.83385e-05
8.36291e-05
8.50485e-05
8.21421e-05
7.55406e-05
6.77037e-05
6.14543e-05
5.74132e-05
5.35784e-05
4.72893e-05
3.67933e-05
2.36905e-05
1.69068e-05
2.31642e-05
2.97577e-05
3.17814e-05
3.07556e-05
2.91052e-05
2.82862e-05
2.85544e-05
2.91837e-05
3.20625e-05
3.62438e-05
3.77479e-05
3.70109e-05
3.683e-05
3.44185e-05
2.93046e-05
2.34534e-05
1.80357e-05
1.31574e-05
8.96669e-06
7.47277e-06
1.1521e-05
1.60575e-05
1.74833e-05
1.84531e-05
2.20923e-05
2.71752e-05
3.02906e-05
2.97196e-05
2.67824e-05
2.35296e-05
2.08374e-05
1.86569e-05
1.67878e-05
1.51274e-05
1.36344e-05
1.22822e-05
1.1047e-05
9.91049e-06
8.86064e-06
7.89018e-06
6.99483e-06
6.17194e-06
5.41964e-06
4.73626e-06
4.1199e-06
3.56825e-06
3.07851e-06
2.64747e-06
2.27161e-06
1.94719e-06
1.67024e-06
1.43665e-06
1.24216e-06
1.08251e-06
9.53487e-07
8.51106e-07
7.71504e-07
7.11341e-07
6.67675e-07
6.38037e-07
6.20065e-07
6.11069e-07
6.08115e-07
6.0906e-07
6.13935e-07
6.24736e-07
6.42272e-07
6.6255e-07
6.77639e-07
6.81418e-07
6.73547e-07
6.57865e-07
6.37968e-07
6.14907e-07
5.88509e-07
5.59312e-07
5.28556e-07
4.97012e-07
4.64389e-07
4.29881e-07
3.93466e-07
3.5626e-07
3.20458e-07
2.88335e-07
2.59356e-07
2.42848e-07
2.08134e-07
3.94399e-05
4.43061e-05
4.76174e-05
4.9356e-05
4.89965e-05
4.63477e-05
4.19487e-05
3.53902e-05
2.64571e-05
1.61445e-05
1.02662e-05
1.67358e-05
2.47476e-05
2.92194e-05
3.00366e-05
2.88699e-05
2.7566e-05
2.69578e-05
2.69666e-05
2.76885e-05
2.84737e-05
3.00481e-05
3.26721e-05
3.43449e-05
3.41425e-05
3.36007e-05
3.32556e-05
3.11439e-05
2.71133e-05
2.24235e-05
1.82161e-05
1.55665e-05
1.57475e-05
1.76653e-05
1.79855e-05
1.74583e-05
1.98901e-05
2.53047e-05
3.01279e-05
3.13326e-05
2.91621e-05
2.58129e-05
2.2814e-05
2.04235e-05
1.84306e-05
1.66756e-05
1.50953e-05
1.36609e-05
1.23491e-05
1.11401e-05
1.00197e-05
8.97889e-06
8.01238e-06
7.11703e-06
6.29105e-06
5.53331e-06
4.84283e-06
4.21838e-06
3.65819e-06
3.15992e-06
2.72069e-06
2.33719e-06
2.00575e-06
1.72244e-06
1.48306e-06
1.28331e-06
1.11886e-06
9.8546e-07
8.79113e-07
7.96124e-07
7.3306e-07
6.86996e-07
6.55253e-07
6.35243e-07
6.24109e-07
6.18822e-07
6.17249e-07
6.19657e-07
6.28664e-07
6.45946e-07
6.68085e-07
6.87097e-07
6.95923e-07
6.92922e-07
6.8085e-07
6.62638e-07
6.39195e-07
6.10742e-07
5.78582e-07
5.44788e-07
5.10728e-07
4.7634e-07
4.40719e-07
4.0361e-07
3.65831e-07
3.29573e-07
2.96862e-07
2.67608e-07
2.50847e-07
2.15899e-07
6.21515e-06
9.80361e-06
1.24684e-05
1.37088e-05
1.3251e-05
1.10084e-05
7.40609e-06
6.37459e-06
1.1734e-05
1.86308e-05
2.43431e-05
2.76753e-05
2.84924e-05
2.75705e-05
2.61314e-05
2.51434e-05
2.48633e-05
2.50621e-05
2.54636e-05
2.62057e-05
2.73566e-05
2.85583e-05
3.09187e-05
3.24144e-05
3.20844e-05
3.09086e-05
3.0059e-05
2.94277e-05
2.7934e-05
2.54854e-05
2.28702e-05
2.11028e-05
2.01873e-05
1.88374e-05
1.71587e-05
1.83578e-05
2.35485e-05
2.94553e-05
3.22789e-05
3.11538e-05
2.79715e-05
2.47404e-05
2.21407e-05
2.00334e-05
1.82041e-05
1.6556e-05
1.5055e-05
1.36794e-05
1.24092e-05
1.12285e-05
1.01267e-05
9.09725e-06
8.13638e-06
7.24207e-06
6.41351e-06
5.65051e-06
4.95294e-06
4.32028e-06
3.75137e-06
3.24436e-06
2.79671e-06
2.40533e-06
2.06667e-06
1.77682e-06
1.53161e-06
1.32672e-06
1.1578e-06
1.02062e-06
9.111e-07
8.25424e-07
7.59935e-07
7.11476e-07
6.77257e-07
6.54663e-07
6.40882e-07
6.32946e-07
6.28796e-07
6.28904e-07
6.3644e-07
6.53865e-07
6.78106e-07
7.00694e-07
7.13807e-07
7.14936e-07
7.06025e-07
6.89344e-07
6.65466e-07
6.34775e-07
5.99215e-07
5.61706e-07
5.2431e-07
4.87298e-07
4.49733e-07
4.11155e-07
3.72098e-07
3.34701e-07
3.0085e-07
2.70608e-07
2.53544e-07
2.17417e-07
7.73927e-06
9.96646e-06
1.29301e-05
1.5835e-05
1.82975e-05
2.03609e-05
2.23245e-05
2.42649e-05
2.59008e-05
2.6766e-05
2.65788e-05
2.54927e-05
2.40573e-05
2.29023e-05
2.23573e-05
2.2337e-05
2.25776e-05
2.29267e-05
2.33923e-05
2.40733e-05
2.52852e-05
2.66971e-05
2.87615e-05
3.13184e-05
3.17591e-05
3.01973e-05
2.82105e-05
2.66417e-05
2.53955e-05
2.39884e-05
2.23107e-05
2.06264e-05
1.87779e-05
1.71404e-05
1.79744e-05
2.27681e-05
2.90167e-05
3.28444e-05
3.26622e-05
2.98277e-05
2.6498e-05
2.37319e-05
2.15337e-05
1.9658e-05
1.79694e-05
1.64244e-05
1.50036e-05
1.36883e-05
1.2462e-05
1.13125e-05
1.02321e-05
9.21624e-06
8.26242e-06
7.36998e-06
6.53929e-06
5.77122e-06
5.06656e-06
4.42557e-06
3.84776e-06
3.33175e-06
2.8754e-06
2.47584e-06
2.12966e-06
1.83298e-06
1.58164e-06
1.37126e-06
1.19746e-06
1.05595e-06
9.42613e-07
8.53555e-07
7.85172e-07
7.34164e-07
6.97592e-07
6.72679e-07
6.56477e-07
6.45911e-07
6.38858e-07
6.35905e-07
6.40769e-07
6.56872e-07
6.82027e-07
7.07915e-07
7.25865e-07
7.3222e-07
7.27881e-07
7.1426e-07
6.91369e-07
6.59555e-07
6.21321e-07
5.80496e-07
5.39982e-07
5.00532e-07
4.61268e-07
4.21562e-07
3.81642e-07
3.43592e-07
3.0904e-07
2.784e-07
2.6113e-07
2.2469e-07
5.94589e-06
8.13769e-06
1.09379e-05
1.39073e-05
1.66656e-05
1.89353e-05
2.06063e-05
2.16531e-05
2.20283e-05
2.17913e-05
2.11575e-05
2.04528e-05
1.99627e-05
1.97939e-05
1.98784e-05
2.00875e-05
2.03469e-05
2.06698e-05
2.11442e-05
2.18371e-05
2.29056e-05
2.44057e-05
2.61973e-05
2.89311e-05
3.13693e-05
3.13904e-05
2.93963e-05
2.6843e-05
2.45284e-05
2.25315e-05
2.07272e-05
1.92156e-05
1.84661e-05
1.97278e-05
2.40174e-05
2.96774e-05
3.34889e-05
3.37191e-05
3.12103e-05
2.79255e-05
2.50917e-05
2.28556e-05
2.09741e-05
1.92802e-05
1.77206e-05
1.62792e-05
1.49406e-05
1.36881e-05
1.25087e-05
1.13936e-05
1.03372e-05
9.33659e-06
8.391e-06
7.50114e-06
6.6687e-06
5.8957e-06
5.18393e-06
4.53449e-06
3.94754e-06
3.42229e-06
2.95694e-06
2.54892e-06
2.19494e-06
1.8912e-06
1.63354e-06
1.41759e-06
1.23894e-06
1.09328e-06
9.76453e-07
8.84471e-07
8.13528e-07
7.60128e-07
7.21155e-07
6.93717e-07
6.74833e-07
6.61425e-07
6.5136e-07
6.45357e-07
6.4766e-07
6.62602e-07
6.8867e-07
7.17485e-07
7.3972e-07
7.50859e-07
7.50952e-07
7.40544e-07
7.18897e-07
6.86084e-07
6.45009e-07
6.00393e-07
5.56074e-07
5.13408e-07
4.71669e-07
4.301e-07
3.88644e-07
3.49291e-07
3.13494e-07
2.81769e-07
2.6419e-07
2.26441e-07
4.69664e-06
6.36652e-06
8.38418e-06
1.05241e-05
1.2591e-05
1.43907e-05
1.57895e-05
1.67303e-05
1.72584e-05
1.74837e-05
1.75388e-05
1.75395e-05
1.75612e-05
1.76393e-05
1.77803e-05
1.7979e-05
1.82431e-05
1.85996e-05
1.91028e-05
1.98215e-05
2.07946e-05
2.21233e-05
2.37374e-05
2.58612e-05
2.88244e-05
3.12398e-05
3.16213e-05
3.02015e-05
2.80354e-05
2.59623e-05
2.44101e-05
2.3839e-05
2.48962e-05
2.79227e-05
3.18336e-05
3.44342e-05
3.43229e-05
3.19552e-05
2.88419e-05
2.60919e-05
2.3911e-05
2.20814e-05
2.04259e-05
1.88875e-05
1.7456e-05
1.61206e-05
1.48664e-05
1.36797e-05
1.25506e-05
1.14726e-05
1.04424e-05
9.45875e-06
8.52246e-06
7.63587e-06
6.80207e-06
6.02429e-06
5.30537e-06
4.64729e-06
4.05095e-06
3.51611e-06
3.04141e-06
2.62456e-06
2.26245e-06
1.95134e-06
1.6871e-06
1.46534e-06
1.28163e-06
1.13159e-06
1.011e-06
9.15782e-07
8.4203e-07
7.86101e-07
7.44714e-07
7.14819e-07
6.933e-07
6.76952e-07
6.63522e-07
6.53742e-07
6.52323e-07
6.64703e-07
6.9062e-07
7.22003e-07
7.48799e-07
7.65472e-07
7.71101e-07
7.65221e-07
7.46135e-07
7.13408e-07
6.70211e-07
6.22169e-07
5.74175e-07
5.28348e-07
4.84237e-07
4.41016e-07
3.98339e-07
3.58093e-07
3.21454e-07
2.89197e-07
2.71443e-07
2.33258e-07
4.3709e-06
5.69196e-06
7.23657e-06
8.85735e-06
1.04273e-05
1.18364e-05
1.30166e-05
1.39479e-05
1.46293e-05
1.50768e-05
1.53351e-05
1.54739e-05
1.55693e-05
1.56806e-05
1.58396e-05
1.60586e-05
1.63496e-05
1.6735e-05
1.72507e-05
1.79568e-05
1.88896e-05
2.00648e-05
2.15056e-05
2.31756e-05
2.5408e-05
2.82787e-05
3.07896e-05
3.20116e-05
3.20027e-05
3.14421e-05
3.10651e-05
3.14258e-05
3.2668e-05
3.42618e-05
3.50423e-05
3.41658e-05
3.18565e-05
2.90765e-05
2.66068e-05
2.46099e-05
2.29066e-05
2.13404e-05
1.98645e-05
1.8478e-05
1.71773e-05
1.595e-05
1.47826e-05
1.36646e-05
1.25887e-05
1.15506e-05
1.05486e-05
9.58331e-06
8.65739e-06
7.77475e-06
6.93993e-06
6.15747e-06
5.43128e-06
4.7643e-06
4.15821e-06
3.61338e-06
3.12893e-06
2.70286e-06
2.33225e-06
2.01347e-06
1.74242e-06
1.5147e-06
1.32586e-06
1.17148e-06
1.04726e-06
9.49024e-07
8.72695e-07
8.14414e-07
7.70684e-07
7.38287e-07
7.14009e-07
6.94572e-07
6.77635e-07
6.63947e-07
6.58672e-07
6.68316e-07
6.93774e-07
7.27301e-07
7.58254e-07
7.80249e-07
7.91519e-07
7.90575e-07
7.74573e-07
7.42323e-07
6.97072e-07
6.45299e-07
5.93044e-07
5.43326e-07
4.96086e-07
4.50496e-07
4.05945e-07
3.64187e-07
3.26184e-07
2.92735e-07
2.74685e-07
2.35075e-07
4.14261e-06
5.22287e-06
6.46886e-06
7.7804e-06
9.06304e-06
1.0244e-05
1.12674e-05
1.20929e-05
1.27089e-05
1.31353e-05
1.34158e-05
1.36039e-05
1.37512e-05
1.38998e-05
1.40794e-05
1.43094e-05
1.46075e-05
1.49974e-05
1.55103e-05
1.61889e-05
1.70762e-05
1.81672e-05
1.94701e-05
2.09422e-05
2.25922e-05
2.46757e-05
2.71935e-05
2.96028e-05
3.13973e-05
3.25145e-05
3.32622e-05
3.38628e-05
3.42054e-05
3.39111e-05
3.2694e-05
3.07258e-05
2.85349e-05
2.65578e-05
2.48814e-05
2.33831e-05
2.19597e-05
2.05904e-05
1.92877e-05
1.8056e-05
1.68871e-05
1.57689e-05
1.46906e-05
1.36442e-05
1.26243e-05
1.16283e-05
1.06564e-05
9.71103e-06
8.79654e-06
7.91849e-06
7.08295e-06
6.29578e-06
5.5621e-06
4.88585e-06
4.26956e-06
3.71425e-06
3.21956e-06
2.7838e-06
2.40429e-06
2.07751e-06
1.79939e-06
1.56554e-06
1.37146e-06
1.21269e-06
1.08483e-06
9.83562e-07
9.04643e-07
8.44023e-07
7.97986e-07
7.63121e-07
7.36054e-07
7.13354e-07
6.92495e-07
6.74127e-07
6.63798e-07
6.69322e-07
6.93253e-07
7.28436e-07
7.63618e-07
7.91467e-07
8.09301e-07
8.145e-07
8.02869e-07
7.72208e-07
7.25659e-07
6.70521e-07
6.1408e-07
5.60421e-07
5.10028e-07
4.62156e-07
4.15947e-07
3.73011e-07
3.34005e-07
2.99882e-07
2.81679e-07
2.41485e-07
3.88125e-06
4.76847e-06
5.78003e-06
6.84745e-06
7.89941e-06
8.8767e-06
9.73519e-06
1.04495e-05
1.10137e-05
1.14366e-05
1.17401e-05
1.19578e-05
1.21297e-05
1.22939e-05
1.248e-05
1.27096e-05
1.30032e-05
1.33849e-05
1.38833e-05
1.45319e-05
1.53633e-05
1.63813e-05
1.75758e-05
1.89299e-05
2.03738e-05
2.19136e-05
2.36725e-05
2.56297e-05
2.75226e-05
2.90595e-05
3.0113e-05
3.06427e-05
3.05621e-05
2.9852e-05
2.86725e-05
2.73022e-05
2.59588e-05
2.46943e-05
2.34619e-05
2.22296e-05
2.10106e-05
1.98312e-05
1.87039e-05
1.76256e-05