/*--------------------------------*- C++ -*----------------------------------*\
  =========                 |
  \\      /  F ield         | OpenFOAM: The Open Source CFD Toolbox
   \\    /   O peration     | Website:  https://openfoam.org
    \\  /    A nd           | Version:  10
     \\/     M anipulation  |
\*---------------------------------------------------------------------------*/
FoamFile
{
    format      ascii;
    class       volScalarField;
    location    "0.07";
    object      p;
}
// * * * * * * * * * * * * * * * * * * * * * * * * * * * * * * * * * * * * * //

dimensions      [0 2 -2 0 0 0 0];

internalField   nonuniform List<scalar> 
6820
(
6.57952
-7.75042
-9.7462
-9.92286
-10.0724
-10.0046
-9.9625
-9.96939
-9.99854
-10.0399
-10.0869
-10.1356
-10.184
-10.2312
-10.2763
-10.3188
-10.358
-10.3934
-10.4243
-10.45
-10.4698
-10.4827
-10.488
-10.4845
-10.4712
-10.4468
-10.41
-10.3593
-10.2935
-10.2103
-10.1113
-9.98633
-9.86414
1.20172
-7.54784
-9.55146
-9.8016
-10.0031
-9.99887
-9.97809
-9.99139
-10.0207
-10.0594
-10.1032
-10.1491
-10.1953
-10.2408
-10.2847
-10.3263
-10.365
-10.4001
-10.4309
-10.4567
-10.4766
-10.4899
-10.4957
-10.4929
-10.4803
-10.4569
-10.4213
-10.372
-10.3077
-10.2267
-10.1291
-10.0098
-9.88727
-0.878378
-6.33584
-8.75835
-9.34671
-9.72322
-9.86191
-9.90329
-9.94375
-9.98904
-10.0377
-10.0886
-10.1399
-10.1903
-10.2389
-10.2851
-10.3285
-10.3685
-10.4048
-10.4367
-10.4635
-10.4847
-10.4994
-10.5069
-10.5062
-10.4965
-10.4765
-10.4454
-10.4019
-10.3454
-10.275
-10.1922
-10.098
-10.0071
-2.44574
-6.15261
-8.46136
-9.10814
-9.48613
-9.68825
-9.78006
-9.85279
-9.9214
-9.98548
-10.0465
-10.1051
-10.161
-10.2144
-10.2649
-10.3123
-10.3561
-10.3961
-10.4317
-10.4626
-10.4881
-10.5077
-10.5208
-10.5267
-10.5249
-10.5146
-10.4956
-10.4675
-10.4307
-10.3868
-10.3399
-10.3004
-10.2868
-3.73052
-6.19634
-8.15352
-8.83372
-9.24028
-9.50853
-9.65464
-9.75842
-9.84716
-9.9251
-9.99624
-10.0628
-10.1253
-10.184
-10.2392
-10.291
-10.3392
-10.3836
-10.4239
-10.4598
-10.4911
-10.5175
-10.5386
-10.5542
-10.5642
-10.5688
-10.5684
-10.5639
-10.5577
-10.554
-10.5605
-10.5937
-10.6789
-4.68761
-6.31874
-7.96875
-8.6801
-9.09633
-9.38701
-9.55948
-9.68013
-9.78139
-9.86942
-9.94837
-10.0213
-10.0893
-10.153
-10.2129
-10.269
-10.3215
-10.3704
-10.4157
-10.4573
-10.4951
-10.5292
-10.5596
-10.5865
-10.6106
-10.6326
-10.654
-10.6772
-10.7062
-10.7475
-10.8118
-10.9166
-11.0923
-5.43253
-6.53008
-7.88034
-8.56217
-8.96498
-9.26456
-9.46143
-9.60187
-9.71766
-9.81686
-9.90424
-9.98367
-10.0571
-10.1255
-10.1895
-10.2497
-10.3063
-10.3594
-10.4094
-10.4561
-10.4999
-10.5409
-10.5796
-10.6166
-10.653
-10.6901
-10.7303
-10.7769
-10.835
-10.9121
-11.02
-11.175
-11.4051
-6.01582
-6.75917
-7.84169
-8.47705
-8.86876
-9.17092
-9.38286
-9.53632
-9.6616
-9.76862
-9.86249
-9.94738
-10.0256
-10.0984
-10.1667
-10.231
-10.2918
-10.3493
-10.404
-10.456
-10.5058
-10.5538
-10.6007
-10.6476
-10.6957
-10.7471
-10.8043
-10.8714
-10.9539
-11.0595
-11.1993
-11.3872
-11.6458
-6.47845
-6.99014
-7.85071
-8.42679
-8.7984
-9.09178
-9.30946
-9.47204
-9.60552
-9.7201
-9.82064
-9.91125
-9.99453
-10.0719
-10.1445
-10.2129
-10.2779
-10.3398
-10.3991
-10.4563
-10.512
-10.5667
-10.6215
-10.6776
-10.7365
-10.8006
-10.8728
-10.9572
-11.0594
-11.1865
-11.3484
-11.5562
-11.8269
-6.85023
-7.20889
-7.88816
-8.39854
-8.74643
-9.02803
-9.24745
-9.41649
-9.55619
-9.67655
-9.7824
-9.87775
-9.96535
-10.0468
-10.1233
-10.1957
-10.2647
-10.3309
-10.3948
-10.4571
-10.5184
-10.5796
-10.6419
-10.7065
-10.7753
-10.8506
-10.9357
-11.0343
-11.1517
-11.2942
-11.47
-11.6875
-11.9588
-7.15241
-7.40909
-7.94445
-8.39008
-8.71208
-8.97868
-9.19464
-9.36617
-9.50965
-9.63433
-9.74471
-9.84446
-9.93626
-10.0218
-10.1023
-10.1786
-10.2517
-10.3221
-10.3905
-10.4577
-10.5244
-10.5917
-10.6607
-10.733
-10.8104
-10.8954
-10.9908
-11.1003
-11.2286
-11.3808
-11.5635
-11.7826
-12.0464
-7.4005
-7.58839
-8.01102
-8.39566
-8.69034
-8.94033
-9.15003
-9.32186
-9.46779
-9.5958
-9.70995
-9.81352
-9.90906
-9.99827
-10.0824
-10.1625
-10.2393
-10.3137
-10.3864
-10.4582
-10.53
-10.6028
-10.6779
-10.7569
-10.8416
-10.9343
-11.0377
-11.1551
-11.2903
-11.4475
-11.6315
-11.8465
-12.0976
-7.60579
-7.74652
-8.08175
-8.41147
-8.67904
-8.91195
-9.11335
-9.28322
-9.42987
-9.55988
-9.67682
-9.78356
-9.88242
-9.97504
-10.0627
-10.1463
-10.2268
-10.305
-10.3818
-10.4579
-10.5343
-10.6121
-10.6926
-10.7772
-10.8678
-10.9665
-11.0756
-11.1979
-11.3366
-11.4948
-11.6759
-11.8824
-12.1175
-7.77659
-7.8844
-8.1523
-8.43396
-8.67535
-8.89122
-9.08311
-9.24948
-9.39569
-9.52686
-9.64598
-9.75544
-9.85728
-9.95303
-10.0439
-10.1308
-10.2148
-10.2965
-10.377
-10.457
-10.5375
-10.6196
-10.7046
-10.7938
-10.8889
-10.9917
-11.1044
-11.2291
-11.3684
-11.5243
-11.6993
-11.8947
-12.1119
-7.91903
-8.00345
-8.21962
-8.46016
-8.67712
-8.8766
-9.05851
-9.22031
-9.36508
-9.49656
-9.61713
-9.72872
-9.83309
-9.93161
-10.0254
-10.1154
-10.2025
-10.2876
-10.3714
-10.4549
-10.5389
-10.6247
-10.7132
-10.8059
-10.9042
-11.0097
-11.124
-11.249
-11.3864
-11.5377
-11.7043
-11.8867
-12.0853
-8.03769
-8.10517
-8.28165
-8.48765
-8.68236
-8.86642
-9.03831
-9.19489
-9.33751
-9.46869
-9.59019
-9.70352
-9.8101
-9.91112
-10.0076
-10.1004
-10.1904
-10.2784
-10.3652
-10.4517
-10.5387
-10.6274
-10.7187
-10.8138
-10.9139
-11.0205
-11.1348
-11.2582
-11.3918
-11.5367
-11.6934
-11.862
-12.042
-8.136
-8.19103
-8.33702
-8.51442
-8.68932
-8.85923
-9.0215
-9.1726
-9.31263
-9.44305
-9.56505
-9.67972
-9.78815
-9.89136
-9.99022
-10.0855
-10.1781
-10.2687
-10.3581
-10.4471
-10.5366
-10.6274
-10.7206
-10.8171
-10.918
-11.0244
-11.1373
-11.2576
-11.3861
-11.5233
-11.6693
-11.8237
-11.9858
-8.21654
-8.26228
-8.38486
-8.53885
-8.6965
-8.85368
-9.00699
-9.15266
-9.28987
-9.41925
-9.54144
-9.65714
-9.76717
-9.87231
-9.9733
-10.0709
-10.1657
-10.2585
-10.3501
-10.4411
-10.5324
-10.6247
-10.719
-10.816
-10.9166
-11.0217
-11.132
-11.2481
-11.3704
-11.4991
-11.634
-11.7745
-11.9195
-8.28119
-8.31995
-8.42456
-8.55964
-8.70256
-8.84856
-8.99378
-9.13433
-9.26876
-9.39699
-9.5192
-9.63575
-9.74715
-9.85399
-9.95688
-10.0564
-10.1532
-10.248
-10.3413
-10.4339
-10.5264
-10.6196
-10.7142
-10.8109
-10.9104
-11.0133
-11.1201
-11.2312
-11.3467
-11.4665
-11.5903
-11.7174
-11.8465
-8.33136
-8.36485
-8.4557
-8.5757
-8.70632
-8.84276
-8.98092
-9.11685
-9.24868
-9.3758
-9.49796
-9.61521
-9.72781
-9.83617
-9.94072
-10.042
-10.1404
-10.2367
-10.3314
-10.425
-10.5182
-10.6117
-10.706
-10.8016
-10.8992
-10.9991
-11.1017
-11.2072
-11.3155
-11.4264
-11.5393
-11.6536
-11.7681
-8.368
-8.39752
-8.47794
-8.58612
-8.70675
-8.83526
-8.96751
-9.09954
-9.22918
-9.3554
-9.47762
-9.5956
-9.70938
-9.81916
-9.92525
-10.028
-10.128
-10.2255
-10.3212
-10.4155
-10.509
-10.6022
-10.6956
-10.7897
-10.8848
-10.9812
-11.0792
-11.1787
-11.2797
-11.3817
-11.4843
-11.5867
-11.6878
-8.39171
-8.41829
-8.49093
-8.59009
-8.70288
-8.82508
-8.95265
-9.0816
-9.20956
-9.33518
-9.4576
-9.57634
-9.69123
-9.8023
-9.90974
-10.0138
-10.1149
-10.2133
-10.3096
-10.4042
-10.4975
-10.5899
-10.6819
-10.7738
-10.8659
-10.9585
-11.0514
-11.1448
-11.2385
-11.3319
-11.4247
-11.5161
-11.6053
-8.40276
-8.42724
-8.49427
-8.58686
-8.69387
-8.81151
-8.93568
-9.06256
-9.18959
-9.31518
-9.43822
-9.55802
-9.67422
-9.78671
-9.89554
-10.0009
-10.103
-10.2022
-10.2989
-10.3935
-10.4862
-10.5776
-10.6679
-10.7573
-10.8462
-10.9345
-11.0224
-11.1097
-11.1962
-11.2815
-11.3651
-11.4465
-11.5248
-8.40114
-8.4242
-8.48747
-8.57563
-8.67878
-8.79342
-8.91557
-9.04139
-9.16822
-9.29426
-9.41821
-9.53922
-9.65676
-9.7706
-9.88067
-9.98707
-10.09
-10.1897
-10.2864
-10.3806
-10.4724
-10.5623
-10.6504
-10.737
-10.8223
-10.9063
-10.989
-11.0702
-11.1498
-11.2274
-11.3026
-11.3748
-11.4435
-8.38651
-8.40877
-8.46994
-8.5557
-8.65694
-8.77039
-8.89214
-9.01831
-9.14612
-9.2736
-9.39928
-9.52215
-9.64155
-9.75711
-9.8687
-9.97632
-10.0801
-10.1802
-10.277
-10.3706
-10.4614
-10.5496
-10.6354
-10.7191
-10.8007
-10.8803
-10.9579
-11.0332
-11.1063
-11.1766
-11.244
-11.308
-11.368
-8.35823
-8.38024
-8.44079
-8.526
-8.62711
-8.74098
-8.86366
-8.99123
-9.12081
-9.25028
-9.37806
-9.50299
-9.62432
-9.7416
-9.85461
-9.96329
-10.0677
-10.1681
-10.2645
-10.3573
-10.4468
-10.533
-10.6163
-10.6968
-10.7746
-10.8498
-10.9223
-10.992
-11.0588
-11.1224
-11.1826
-11.2392
-11.2916
-8.31528
-8.33765
-8.39919
-8.48596
-8.58921
-8.70578
-8.83164
-8.96269
-9.09588
-9.22894
-9.36015
-9.48824
-9.61237
-9.73202
-9.84693
-9.957
-10.0623
-10.1629
-10.2591
-10.3511
-10.4391
-10.5233
-10.604
-10.6813
-10.7553
-10.8261
-10.8937
-10.9579
-11.0188
-11.0762
-11.1298
-11.1795
-11.2249
-8.25621
-8.27944
-8.3434
-8.43344
-8.54042
-8.66109
-8.79126
-8.92666
-9.06414
-9.20131
-9.33634
-9.46787
-9.59499
-9.71713
-9.83399
-9.94544
-10.0515
-10.1524
-10.2482
-10.3392
-10.4256
-10.5077
-10.5856
-10.6596
-10.7298
-10.7963
-10.859
-10.9181
-10.9734
-11.025
-11.0726
-11.1162
-11.1555
-8.17914
-8.20413
-8.27282
-8.3693
-8.48358
-8.61205
-8.75014
-8.89319
-9.03778
-9.18139
-9.32209
-9.45849
-9.58965
-9.71502
-9.83431
-9.94744
-10.0545
-10.1556
-10.2509
-10.3409
-10.4256
-10.5054
-10.5806
-10.6512
-10.7176
-10.7797
-10.8378
-10.8918
-10.9419
-10.9878
-11.0297
-11.0675
-11.101
-8.08117
-8.10823
-8.18283
-8.28691
-8.40923
-8.54605
-8.69259
-8.84386
-8.99622
-9.147
-9.29413
-9.43613
-9.57203
-9.70125
-9.82349
-9.93869
-10.047
-10.1485
-10.2436
-10.3325
-10.4155
-10.4931
-10.5654
-10.6327
-10.6953
-10.7532
-10.8068
-10.856
-10.901
-10.9418
-10.9786
-11.0112
-11.0398
-7.9594
-7.99093
-8.07679
-8.19538
-8.333
-8.48505
-8.64594
-8.81013
-8.97377
-9.13422
-9.28946
-9.4381
-9.57929
-9.71257
-9.83775
-9.95489
-10.0642
-10.1659
-10.2603
-10.3479
-10.4291
-10.5041
-10.5733
-10.6371
-10.6957
-10.7494
-10.7983
-10.8427
-10.8826
-10.9183
-10.9498
-10.9771
-11.0004
-7.80723
-7.84167
-7.93755
-8.06873
-8.21972
-8.38621
-8.56201
-8.74067
-8.91784
-9.09051
-9.25644
-9.41415
-9.56277
-9.7019
-9.83147
-9.95163
-10.0627
-10.1651
-10.2594
-10.3459
-10.4252
-10.4978
-10.5641
-10.6244
-10.6792
-10.7287
-10.7732
-10.813
-10.8482
-10.8792
-10.906
-10.9289
-10.948
-7.62257
-7.66986
-7.79277
-7.95414
-8.1329
-8.32417
-8.52141
-8.71803
-8.9101
-9.09507
-9.27102
-9.43674
-9.59163
-9.73549
-9.8684
-9.99066
-10.1027
-10.2052
-10.2985
-10.3833
-10.4603
-10.5298
-10.5925
-10.6489
-10.6993
-10.7441
-10.7836
-10.8183
-10.8483
-10.8739
-10.8953
-10.9128
-10.9265
-7.38374
-7.43013
-7.56673
-7.74841
-7.95187
-8.17165
-8.39784
-8.62142
-8.83754
-9.04323
-9.23638
-9.41591
-9.58152
-9.73337
-9.87192
-9.99783
-10.1119
-10.2149
-10.3077
-10.3911
-10.4658
-10.5326
-10.592
-10.6447
-10.691
-10.7316
-10.7667
-10.7968
-10.8222
-10.8433
-10.8603
-10.8736
-10.8835
-7.10886
-7.20297
-7.40746
-7.64236
-7.88322
-8.13269
-8.3829
-8.62584
-8.85818
-9.07764
-9.28236
-9.47144
-9.64468
-9.8023
-9.94487
-10.0732
-10.1881
-10.2906
-10.3818
-10.4625
-10.5338
-10.5963
-10.6509
-10.6984
-10.7392
-10.7739
-10.803
-10.8269
-10.8461
-10.8608
-10.8714
-10.8784
-10.8819
-6.68792
-6.75603
-6.99112
-7.2831
-7.5912
-7.90843
-8.21813
-8.51043
-8.78264
-9.03309
-9.26107
-9.46711
-9.65231
-9.81799
-9.96561
-10.0967
-10.2126
-10.3149
-10.4047
-10.4833
-10.5518
-10.6112
-10.6623
-10.7059
-10.7426
-10.7731
-10.7979
-10.8173
-10.8319
-10.8419
-10.8478
-10.8501
-10.8495
-6.3255
-6.57814
-6.93436
-7.25309
-7.5728
-7.90803
-8.2354
-8.5461
-8.83836
-9.10862
-9.35453
-9.57577
-9.77292
-9.94713
-10.1
-10.2333
-10.3489
-10.4486
-10.5342
-10.6073
-10.6692
-10.7212
-10.7645
-10.8
-10.8285
-10.8507
-10.8672
-10.8783
-10.8844
-10.8859
-10.8828
-10.8758
-10.8651
-5.27311
-5.539
-6.14933
-6.69479
-7.19566
-7.6708
-8.09573
-8.4729
-8.80982
-9.10921
-9.37408
-9.60782
-9.81334
-9.99323
-10.1499
-10.2856
-10.4024
-10.5023
-10.5871
-10.6584
-10.7178
-10.7668
-10.8064
-10.8378
-10.8619
-10.8794
-10.8909
-10.8967
-10.897
-10.8918
-10.8806
-10.8644
-10.8393
-5.32469
-5.8845
-6.32573
-6.6895
-7.16476
-7.65894
-8.12187
-8.55624
-8.95351
-9.30534
-9.61155
-9.87472
-10.0981
-10.2857
-10.4417
-10.5703
-10.6752
-10.76
-10.8277
-10.881
-10.922
-10.9528
-10.9749
-10.9898
-10.9984
-11.0018
-11.0005
-10.9948
-10.9847
-10.9695
-10.9469
-10.9148
-10.8619
-0.384096
-4.07573
-5.40018
-6.0689
-6.86599
-7.54105
-8.08256
-8.55654
-8.97037
-9.32537
-9.62922
-9.88789
-10.1062
-10.2891
-10.441
-10.5662
-10.6685
-10.751
-10.8169
-10.8686
-10.9083
-10.9379
-10.9591
-10.9731
-10.9812
-10.9841
-10.9829
-10.978
-10.9702
-10.9592
-10.9472
-10.9299
-10.9169
-9.59878
-9.81483
-12.1174
-15.569
-19.7482
-23.9397
-27.3666
-29.5616
-30.4075
-29.9495
-28.4504
-26.2988
-23.6573
-20.328
-16.0063
-10.807
-5.50758
-1.02523
2.1339
3.89591
4.17123
2.90861
0.135837
-4.14525
-9.72043
-16.1537
-22.888
-29.4392
-35.4637
-40.6665
-44.7216
-47.282
-48.1078
-47.1122
-44.4713
-40.5544
-35.8117
-30.6633
-25.4444
-20.4432
-15.918
-12.0377
-8.83723
-6.25699
-4.20572
-2.59544
-1.34927
-0.40062
0.307866
0.82477
1.19056
1.43853
1.59574
1.68399
1.72068
1.71951
1.69122
1.64414
1.5847
1.51781
1.4472
1.37565
1.30515
1.23706
1.17217
1.11088
1.05329
0.999252
0.948569
0.900968
0.856211
0.8141
0.774471
0.737178
0.702065
0.668947
0.637608
0.60781
0.579314
0.551902
0.525382
0.499589
0.474357
0.449521
0.424906
0.400337
0.375645
0.350695
0.32537
0.299614
0.273335
0.246605
0.219205
0.191586
0.162796
0.134888
0.103542
0.0778867
0.038855
0.0265528
-9.68624
-9.86781
-12.075
-15.3785
-19.2163
-23.0343
-26.1924
-28.2892
-29.2067
-28.9109
-27.5677
-25.4579
-22.741
-19.3371
-15.1364
-10.3631
-5.66333
-1.71425
1.10144
2.69895
3.02004
1.92612
-0.563771
-4.4105
-9.47556
-15.4009
-21.7045
-27.9147
-33.6549
-38.6052
-42.447
-44.8645
-45.6508
-44.7274
-42.2672
-38.6214
-34.2017
-29.3811
-24.4735
-19.7693
-15.5196
-11.8685
-8.83453
-6.36242
-4.37554
-2.79974
-1.56804
-0.620596
0.0951941
0.624545
1.0056
1.27006
1.444
1.54856
1.60076
1.61409
1.5992
1.56437
1.51603
1.45913
1.39742
1.33373
1.27011
1.20796
1.14817
1.09123
1.0373
0.986361
0.938267
0.892826
0.849863
0.809232
0.770812
0.734488
0.700137
0.667605
0.636705
0.60723
0.57897
0.551731
0.525342
0.499648
0.474491
0.449712
0.425142
0.400605
0.375936
0.350997
0.325671
0.299904
0.273603
0.246847
0.219412
0.191762
0.16293
0.134996
0.103609
0.0779337
0.0389059
0.0264836
-9.97066
-10.4526
-12.4363
-15.4344
-18.9499
-22.4309
-25.3246
-27.2963
-28.1483
-27.8268
-26.4689
-24.3238
-21.5598
-18.1973
-14.2611
-9.99341
-5.88038
-2.41615
0.0914928
1.52124
1.83623
0.90125
-1.32294
-4.78326
-9.35927
-14.7559
-20.5664
-26.3655
-31.7695
-36.4391
-40.0577
-42.3309
-43.0775
-42.2366
-39.9798
-36.6299
-32.5469
-28.0601
-23.4743
-19.0825
-15.1184
-11.6973
-8.82726
-6.46171
-4.53953
-2.99962
-1.78408
-0.839425
-0.117654
0.423123
0.818704
1.0992
1.2896
1.41038
1.47811
1.50605
1.50469
1.48229
1.44525
1.39853
1.34593
1.29029
1.23371
1.17767
1.12313
1.07065
1.0205
0.972735
0.927309
0.884111
0.843025
0.803951
0.766806
0.731509
0.697965
0.666052
0.635615
0.60648
0.578469
0.551414
0.525165
0.499584
0.474522
0.449825
0.425324
0.400843
0.376214
0.351301
0.325986
0.300218
0.273905
0.247129
0.219665
0.191988
0.163119
0.135161
0.10374
0.0780366
0.039024
0.0264556
-10.4066
-11.0424
-12.8631
-15.5855
-18.7327
-21.8365
-24.4192
-26.123
-26.7737
-26.3492
-24.971
-22.854
-20.179
-17.0306
-13.4825
-9.73618
-6.14991
-3.10616
-0.871567
0.408805
0.686797
-0.131136
-2.11291
-5.22103
-9.33786
-14.2151
-19.5055
-24.8383
-29.8527
-34.2071
-37.5872
-39.7087
-40.4252
-39.6892
-37.6626
-34.6223
-30.8734
-26.7193
-22.4662
-18.4
-14.7239
-11.5272
-8.81515
-6.55384
-4.69685
-3.19444
-1.99687
-1.05664
-0.330258
0.220868
0.630191
0.926192
1.13275
1.26959
1.35283
1.39544
1.40776
1.39795
1.3724
1.33606
1.29275
1.24535
1.196
1.14624
1.09711
1.04925
1.00303
0.958575
0.915936
0.875068
0.835921
0.798448
0.762611
0.728367
0.695656
0.664388
0.634442
0.605674
0.577936
0.551086
0.524997
0.499538
0.474573
0.449956
0.42552
0.40109
0.376499
0.351609
0.326302
0.300527
0.274196
0.247394
0.219895
0.192184
0.163274
0.135284
0.103828
0.0780859
0.0391013
0.0263624
-10.9309
-11.6515
-13.2419
-15.5665
-18.2453
-20.8824
-23.0497
-24.44
-24.9174
-24.4603
-23.1688
-21.2298
-18.8072
-15.9899
-12.8588
-9.58446
-6.45171
-3.77419
-1.78882
-0.642727
-0.405253
-1.13707
-2.90224
-5.68351
-9.3771
-13.7671
-18.5493
-23.3946
-27.9784
-31.9804
-35.0998
-37.0716
-37.7704
-37.1602
-35.3712
-32.628
-29.1979
-25.3765
-21.4681
-17.7337
-14.3401
-11.3585
-8.79824
-6.6391
-4.84768
-3.38414
-2.20615
-1.27193
-0.542319
0.0180521
0.440297
0.751237
0.973597
1.12633
1.22504
1.28237
1.30847
1.31141
1.29752
1.27174
1.2379
1.19892
1.15698
1.11366
1.07009
1.02699
0.984793
0.943753
0.903981
0.865519
0.82838
0.792572
0.7581
0.724958
0.693121
0.66253
0.633098
0.604714
0.577261
0.550626
0.524701
0.499376
0.474527
0.450011
0.425662
0.401305
0.376769
0.351916
0.326628
0.300857
0.274515
0.247692
0.220165
0.192424
0.163478
0.135456
0.103972
0.0781851
0.03924
0.0263061
-11.4347
-12.1695
-13.519
-15.415
-17.5812
-19.7013
-21.4467
-22.5739
-22.945
-22.5399
-21.4323
-19.754
-17.6275
-15.1405
-12.3851
-9.51844
-6.77838
-4.42639
-2.6709
-1.65012
-1.44375
-2.10465
-3.67614
-6.15242
-9.45045
-13.3869
-17.6931
-22.069
-26.2183
-29.8521
-32.6985
-34.5256
-35.215
-34.7224
-33.1426
-30.664
-27.5384
-24.0565
-20.5015
-17.0945
-13.9702
-11.1916
-8.77645
-6.71738
-4.99181
-3.56842
-2.41161
-1.48496
-0.7535
-0.18501
0.249301
0.574577
0.812355
0.980771
1.09487
1.16694
1.20692
1.22274
1.22067
1.20563
1.18144
1.15105
1.11668
1.07998
1.04212
1.00391
0.965884
0.928374
0.891574
0.855604
0.820539
0.786446
0.753378
0.72137
0.690433
0.660545
0.631653
0.603679
0.576535
0.550135
0.524394
0.499214
0.474486
0.450072
0.42581
0.401525
0.377044
0.352229
0.326959
0.301189
0.27483
0.247982
0.22042
0.192642
0.163655
0.135594
0.104082
0.0782372
0.039343
0.0261884
-11.7916
-12.5026
-13.6543
-15.2003
-16.9393
-18.6365
-20.0496
-20.9713
-21.275
-20.9313
-19.9822
-18.5205
-16.6471
-14.4495
-12.0239
-9.51409
-7.12052
-5.06112
-3.51688
-2.61536
-2.43493
-3.0303
-4.42893
-6.62336
-9.54779
-13.0529
-16.9101
-20.8481
-24.5913
-27.8751
-30.4591
-32.1412
-32.8028
-32.3886
-30.9756
-28.7389
-25.9204
-22.7882
-19.5841
-16.488
-13.6144
-11.026
-8.74992
-6.78896
-5.12938
-3.7472
-2.61302
-1.69546
-0.963514
-0.388039
0.0574608
0.39644
0.649215
0.833066
0.962446
1.04926
1.10319
1.13201
1.14192
1.13778
1.12342
1.10179
1.07516
1.04521
1.0132
0.98002
0.946278
0.912393
0.878647
0.845237
0.812309
0.779986
0.748369
0.717536
0.687535
0.65838
0.63005
0.602502
0.575678
0.549521
0.52397
0.498947
0.474355
0.450062
0.425907
0.401713
0.377305
0.352541
0.3273
0.301538
0.275171
0.248302
0.22071
0.192898
0.163875
0.135776
0.104242
0.0783344
0.0395025
0.0261041
-12.0472
-12.719
-13.7132
-14.9917
-16.4073
-17.7804
-18.9188
-19.6543
-19.8812
-19.5676
-18.7383
-17.4593
-15.8114
-13.8757
-11.7467
-9.55465
-7.46898
-5.67196
-4.32011
-3.53034
-3.37635
-3.91027
-5.15412
-7.09347
-9.67131
-12.7653
-16.1875
-19.7043
-23.0643
-26.0221
-28.3572
-29.8829
-30.4874
-30.1246
-28.8682
-26.8823
-24.3836
-21.5989
-18.7257
-15.9151
-13.2718
-10.8617
-8.71903
-6.85416
-5.26047
-3.92042
-2.81022
-1.90318
-1.17209
-0.590761
-0.134965
0.217057
0.484381
0.683397
0.827931
0.929467
0.997403
1.03934
1.06136
1.06828
1.06391
1.0512
1.03246
1.00942
0.983404
0.955374
0.926031
0.895876
0.865275
0.834503
0.803774
0.77327
0.743144
0.713517
0.684479
0.656081
0.628337
0.601237
0.574756
0.548863
0.523517
0.498662
0.474212
0.450044
0.426
0.401901
0.377569
0.35286
0.327648
0.301894
0.275515
0.24862
0.220991
0.193139
0.164074
0.135929
0.104372
0.0783895
0.0396306
0.0259619
-12.2251
-12.8474
-13.7062
-14.7677
-15.9215
-17.0268
-17.9357
-18.5172
-18.6822
-18.3954
-17.6679
-16.5469
-15.099
-13.3993
-11.5368
-9.62733
-7.81455
-6.25175
-5.07413
-4.38713
-4.25987
-4.7388
-5.84356
-7.55613
-9.82186
-12.536
-15.5419
-18.6437
-21.623
-24.2582
-26.343
-27.7068
-28.2542
-27.9548
-26.8735
-25.1502
-22.9648
-20.5019
-17.9267
-15.3732
-12.9414
-10.699
-8.68441
-6.91346
-5.38533
-4.08811
-3.00309
-2.10793
-1.37899
-0.792928
-0.327738
0.0366507
0.318054
0.531941
0.691481
0.807699
0.88968
0.944823
0.979082
0.997211
1.00298
0.99935
0.988645
0.972659
0.952765
0.930006
0.905164
0.878828
0.851449
0.823377
0.794901
0.766262
0.737666
0.70928
0.681234
0.653617
0.626479
0.599843
0.573714
0.548091
0.522959
0.498281
0.473987
0.449961
0.426045
0.402059
0.37782
0.353178
0.328008
0.302269
0.275883
0.248967
0.221306
0.193416
0.164314
0.136123
0.104549
0.0784864
0.0398117
0.0258504
-12.3416
-12.9087
-13.6493
-14.532
-15.4731
-16.3642
-17.0901
-17.5452
-17.6545
-17.3846
-16.7404
-15.757
-14.4889
-13.0029
-11.3797
-9.72154
-8.15069
-6.79674
-5.77632
-5.18316
-5.0811
-5.51145
-6.49097
-8.00198
-9.99185
-12.3674
-14.9938
-17.7043
-20.3128
-22.6274
-24.4664
-25.6835
-26.1933
-25.9694
-25.0619
-23.5824
-21.6754
-19.4941
-17.1815
-14.8595
-12.623
-10.5386
-8.64682
-6.96737
-5.50423
-4.25036
-3.19159
-2.30958
-1.58402
-0.994324
-0.520635
-0.144564
0.150435
0.378884
0.553264
0.684109
0.780163
0.848596
0.895214
0.924686
0.940739
0.946334
0.943809
0.935003
0.921354
0.903976
0.883736
0.861307
0.837224
0.811918
0.785746
0.759014
0.731982
0.704865
0.677836
0.651022
0.62451
0.598357
0.572599
0.547264
0.522358
0.497868
0.473737
0.449859
0.426078
0.402212
0.378073
0.353504
0.328378
0.302654
0.276259
0.249316
0.221617
0.193682
0.164537
0.136293
0.1047
0.0785443
0.039964
0.0256832
-12.4066
-12.9174
-13.5546
-14.2894
-15.057
-15.7735
-16.3482
-16.6978
-16.761
-16.5077
-15.9377
-15.0768
-13.9696
-12.6747
-11.2648
-9.82926
-8.4725
-7.30422
-6.42474
-5.9166
-5.83775
-6.22496
-7.09216
-8.42294
-10.1691
-12.2474
-14.5401
-16.9032
-19.1767
-21.1973
-22.8129
-23.8988
-24.3737
-24.2117
-23.4497
-22.1743
-20.5027
-18.5642
-16.4842
-14.3725
-12.3169
-10.3813
-8.60704
-7.01648
-5.61754
-4.40734
-3.37575
-2.50804
-1.78705
-1.19477
-0.713462
-0.32639
-0.0182837
0.22441
0.413455
0.558862
0.669007
0.750803
0.809889
0.850832
0.877306
0.892258
0.898043
0.89654
0.889246
0.877349
0.861797
0.84335
0.822627
0.800139
0.776316
0.751527
0.726089
0.700267
0.674276
0.648284
0.622414
0.596755
0.571377
0.546334
0.521662
0.497368
0.473412
0.449696
0.426067
0.402338
0.378315
0.353833
0.328761
0.303061
0.276663
0.249696
0.221962
0.193983
0.1648
0.136501
0.104895
0.0786429
0.0401677
0.0255456
-12.4309
-12.8867
-13.4335
-14.0452
-14.6711
-15.2459
-15.6988
-15.9634
-15.9897
-15.7509
-15.2448
-14.4909
-13.5263
-12.402
-11.1819
-9.94359
-8.77606
-7.77237
-7.0186
-6.58685
-6.529
-6.8775
-7.64407
-8.81353
-10.3429
-12.1589
-14.1593
-16.2194
-18.2015
-19.9656
-21.3816
-22.3433
-22.7763
-22.6563
-22.0088
-20.9012
-19.4297
-17.7036
-15.8318
-13.9118
-12.0238
-10.2281
-8.56586
-7.06143
-5.7257
-4.55932
-3.55567
-2.70331
-1.98797
-1.39413
-0.906057
-0.508648
-0.187917
0.0687044
0.272236
0.432136
0.556382
0.651607
0.723262
0.775795
0.812817
0.83725
0.851464
0.857374
0.856534
0.850207
0.839421
0.825022
0.807715
0.78809
0.766653
0.743838
0.720018
0.695511
0.670577
0.645423
0.62021
0.595062
0.570079
0.545342
0.520914
0.496824
0.47305
0.449504
0.426036
0.402455
0.378557
0.35417
0.329158
0.303481
0.277076
0.250081
0.222306
0.194276
0.165048
0.136687
0.105066
0.0787031
0.0403432
0.0253524
-12.4221
-12.8256
-13.2935
-13.8025
-14.3122
-14.7719
-15.1257
-15.3212
-15.3181
-15.0936
-14.6446
-13.9861
-13.1486
-12.1761
-11.124
-10.0597
-9.05878
-8.20034
-7.55799
-7.19425
-7.15504
-7.46869
-8.14511
-9.17043
-10.5066
-12.0897
-13.8315
-15.6245
-17.35
-18.8879
-20.125
-20.9697
-21.3584
-21.2664
-20.7106
-19.7442
-18.4458
-16.9073
-15.2225
-13.4772
-11.7441
-10.0796
-8.52411
-7.10292
-5.82925
-4.70665
-3.73155
-2.89546
-2.18679
-1.59233
-1.0983
-0.691189
-0.358298
-0.0880544
0.129791
0.304117
0.442474
0.551192
0.635511
0.699745
0.74743
0.781459
0.804208
0.817627
0.823328
0.822645
0.81669
0.806393
0.792546
0.775821
0.756798
0.73598
0.713798
0.690622
0.666757
0.642452
0.617905
0.593274
0.568688
0.544261
0.520081
0.496203
0.47262
0.449257
0.425964
0.402548
0.378792
0.354516
0.329575
0.303929
0.277523
0.250501
0.222688
0.194608
0.165338
0.136914
0.105283
0.0788053
0.0405711
0.0251898
-12.3875
-12.7424
-13.1416
-13.5645
-13.9791
-14.3453
-14.6195
-14.7601
-14.7349
-14.5249
-14.1267
-13.5521
-12.8268
-11.9882
-11.0845
-10.1731
-9.31856
-8.5878
-8.04365
-7.73993
-7.71686
-7.99902
-8.59472
-9.49145
-10.6557
-12.0319
-13.5441
-15.1
-16.5975
-17.9331
-19.0096
-19.7482
-20.0925
-20.0189
-19.5384
-18.6921
-17.5442
-16.1716
-14.6545
-13.0682
-11.4782
-9.93677
-8.48265
-7.14172
-5.9288
-4.84977
-3.90368
-3.08466
-2.38356
-1.78934
-1.2901
-0.873894
-0.529276
-0.245695
-0.0136933
0.175001
0.327486
0.449759
0.546835
0.622875
0.68133
0.725056
0.756432
0.777442
0.789754
0.794773
0.793696
0.787539
0.777181
0.763378
0.746786
0.727977
0.707443
0.685606
0.66282
0.639374
0.615504
0.5914
0.567223
0.543115
0.519192
0.495531
0.472146
0.448973
0.425867
0.402627
0.379027
0.354872
0.330007
0.304394
0.277983
0.250929
0.223069
0.19493
0.165612
0.137116
0.105473
0.0788667
0.0407688
0.0249692
-12.3326
-12.6431
-12.9825
-13.3335
-13.6699
-13.9604
-14.1706
-14.2679
-14.2265
-14.031
-13.6784
-13.1784
-12.5522
-11.8318
-11.0583
-10.2809
-9.55444
-8.93536
-8.47716
-8.22589
-8.21649
-8.47003
-8.99346
-9.77564
-10.7872
-11.9801
-13.2889
-14.6346
-15.9296
-17.0852
-18.0181
-18.6597
-18.9606
-18.8985
-18.4796
-17.7357
-16.7187
-15.4927
-14.1261
-12.6845
-11.2266
-9.80027
-8.4424
-7.17869
-6.02507
-4.98925
-4.07247
-3.27117
-2.57843
-1.98523
-1.48146
-1.05669
-0.700729
-0.404057
-0.158029
0.0449962
0.211636
0.347535
0.457459
0.545406
0.614728
0.66824
0.70832
0.736987
0.755962
0.766728
0.770561
0.768571
0.76172
0.750852
0.7367
0.719905
0.701022
0.680527
0.658819
0.636232
0.613037
0.589458
0.565688
0.541898
0.518231
0.494789
0.471609
0.448637
0.425733
0.402688
0.379263
0.355245
0.33047
0.304896
0.278485
0.2514
0.223495
0.195297
0.165932
0.137364
0.105714
0.0789745
0.0410231
0.0247823
-12.2623
-12.5326
-12.8205
-13.1112
-13.3836
-13.6129
-13.7721
-13.8357
-13.7832
-13.6025
-13.291
-12.8567
-12.3176
-11.7008
-11.0412
-10.3808
-9.7657
-9.24378
-8.86029
-8.65443
-8.65624
-8.88364
-9.34236
-10.0226
-10.8988
-11.9295
-13.0586
-14.2184
-15.3342
-16.3298
-17.1342
-17.6876
-17.9469
-17.8911
-17.5228
-16.8662
-15.9633
-14.867
-13.6355
-12.3257
-10.9896
-9.67095
-8.40428
-7.21475
-6.11886
-5.12573
-4.23841
-3.45535
-2.77163
-2.18013
-1.67242
-1.23954
-0.872564
-0.562998
-0.303031
-0.0856817
0.0951622
0.244769
0.367637
0.467587
0.547864
0.611238
0.660082
0.696447
0.722116
0.738645
0.747396
0.749571
0.746222
0.738279
0.726556
0.711764
0.694522
0.675362
0.654731
0.633004
0.610489
0.587442
0.564086
0.540619
0.517213
0.493995
0.471022
0.448259
0.425568
0.402733
0.379498
0.35563
0.330951
0.305419
0.279002
0.251877
0.223918
0.195652
0.166233
0.137581
0.105922
0.0790351
0.041242
0.0245321
-12.181
-12.4153
-12.6588
-12.8989
-13.1189
-13.2989
-13.4177
-13.4554
-13.396
-13.2299
-12.9555
-12.5793
-12.1166
-11.5902
-11.0298
-10.4709
-9.95245
-9.51461
-9.19559
-9.0286
-9.03919
-9.24264
-9.6435
-10.2332
-10.9896
-11.877
-12.8475
-13.8433
-14.8008
-15.6546
-16.3443
-16.8179
-17.0379
-16.9846
-16.6579
-16.0761
-15.2726
-14.2914
-13.1812
-11.9914
-10.7677
-9.54962
-8.36929
-7.25088
-6.21109
-5.26
-4.40215
-3.6377
-2.96354
-2.37428
-1.8631
-1.42248
-1.04473
-0.722392
-0.448517
-0.216806
-0.0216779
0.141738
0.277655
0.389703
0.481016
0.554311
0.611961
0.656052
0.688427
0.71072
0.724384
0.730711
0.73085
0.725815
0.716501
0.703694
0.688076
0.670233
0.650661
0.629777
0.607926
0.585397
0.562443
0.539289
0.516136
0.493139
0.470379
0.447834
0.425371
0.402767
0.379744
0.356045
0.331477
0.305993
0.279574
0.25241
0.224397
0.196061
0.16659
0.137854
0.106191
0.0791502
0.0415251
0.0243209
-12.0915
-12.2939
-12.4994
-12.6974
-12.8744
-13.0148
-13.1019
-13.1201
-13.0572
-12.9057
-12.6645
-12.3395
-11.9434
-11.4957
-11.0213
-10.5501
-10.1149
-9.74926
-9.48542
-9.35129
-9.36839
-9.54974
-9.89884
-10.4082
-11.0587
-11.8198
-12.6507
-13.5021
-14.3199
-15.0486
-15.6362
-16.0381
-16.2215
-16.168
-15.8757
-15.3581
-14.6418
-13.7626
-12.7617
-11.6812
-10.5611
-9.43708
-8.33844
-7.28815
-6.30276
-5.39297
-4.56446
-3.81886
-3.15464
-2.56803
-2.05373
-1.60561
-1.21721
-0.882139
-0.594311
-0.34814
-0.138604
0.0387507
0.187834
0.312077
0.414495
0.497754
0.564226
0.616035
0.65509
0.683108
0.701636
0.712063
0.715634
0.713454
0.706503
0.69564
0.681612
0.665062
0.646535
0.626488
0.605301
0.583294
0.560745
0.537908
0.51501
0.492233
0.469684
0.447361
0.425139
0.402783
0.379991
0.356477
0.332027
0.306591
0.280162
0.252948
0.224869
0.19645
0.166918
0.138086
0.106416
0.0792072
0.0417648
0.0240375
-11.9975
-12.1717
-12.3446
-12.5075
-12.6496
-12.7582
-12.8205
-12.8244
-12.7604
-12.623
-12.4118
-12.1317
-11.7936
-11.4139
-11.0136
-10.6178
-10.2539
-9.94996
-9.73294
-9.62622
-9.64782
-9.8087
-10.1115
-10.5497
-11.1068
-11.7568
-12.4649
-13.1895
-13.8845
-14.5028
-15
-15.3378
-15.4873
-15.4319
-15.1683
-14.7061
-14.0662
-13.2779
-12.3754
-11.3946
-10.3704
-9.33414
-8.31278
-7.32771
-6.39502
-5.52569
-4.72628
-3.99961
-3.34557
-2.76186
-2.24462
-1.78911
-1.39006
-1.04217
-0.740241
-0.479437
-0.255312
-0.0638539
0.0985335
0.235073
0.348661
0.441913
0.517208
0.576712
0.622408
0.656102
0.679438
0.693906
0.700851
0.701471
0.696829
0.687858
0.675371
0.660069
0.642544
0.623294
0.602734
0.581216
0.559045
0.536502
0.513841
0.491275
0.468938
0.446846
0.424881
0.402798
0.380264
0.356958
0.332642
0.30726
0.280824
0.253558
0.225411
0.196908
0.167316
0.138386
0.106715
0.0793304
0.0420801
0.0238005
-11.9002
-12.0499
-12.1951
-12.3288
-12.4423
-12.5257
-12.5688
-12.5625
-12.4994
-12.3756
-12.191
-11.9502
-11.6624
-11.3413
-11.0046
-10.6732
-10.3699
-10.1183
-9.9406
-9.85637
-9.88061
-10.0224
-10.2837
-10.6588
-11.1337
-11.6861
-12.2867
-12.9002
-13.4875
-14.0089
-14.4263
-14.707
-14.8259
-14.7677
-14.5282
-14.1141
-13.5417
-12.8345
-12.0209
-11.1313
-10.1956
-9.24163
-8.29342
-7.37081
-6.48914
-5.6594
-4.88873
-4.18094
-3.53714
-2.9564
-2.43625
-1.97325
-1.56339
-1.20244
-0.886146
-0.610431
-0.371461
-0.165685
0.0101693
0.159111
0.283917
0.38716
0.47123
0.538351
0.590585
0.629836
0.657855
0.676242
0.686443
0.689755
0.687328
0.680171
0.669167
0.65507
0.63852
0.620055
0.600121
0.579096