/*--------------------------------*- C++ -*----------------------------------*\
  =========                 |
  \\      /  F ield         | OpenFOAM: The Open Source CFD Toolbox
   \\    /   O peration     | Website:  https://openfoam.org
    \\  /    A nd           | Version:  10
     \\/     M anipulation  |
\*---------------------------------------------------------------------------*/
FoamFile
{
    format      ascii;
    class       surfaceScalarField;
    location    "0.07";
    object      phi;
}
// * * * * * * * * * * * * * * * * * * * * * * * * * * * * * * * * * * * * * //

dimensions      [0 3 -1 0 0 0 0];

internalField   nonuniform List<scalar> 
13452
(
4.01912e-05
2.00772e-05
2.59314e-05
1.42598e-05
1.85253e-05
7.40617e-06
1.51499e-05
3.37539e-06
1.37319e-05
1.41801e-06
1.30196e-05
7.12241e-07
1.25607e-05
4.58921e-07
1.2203e-05
3.57682e-07
1.18967e-05
3.06343e-07
1.16294e-05
2.67269e-07
1.13967e-05
2.32731e-07
1.11942e-05
2.02458e-07
1.10174e-05
1.76801e-07
1.08616e-05
1.55788e-07
1.07226e-05
1.39074e-07
1.05964e-05
1.26194e-07
1.04796e-05
1.16733e-07
1.03692e-05
1.10388e-07
1.02623e-05
1.06992e-07
1.01557e-05
1.06512e-07
1.00467e-05
1.09045e-07
9.93188e-06
1.14821e-07
9.80767e-06
1.24206e-07
9.66995e-06
1.37727e-07
9.51387e-06
1.56082e-07
9.33362e-06
1.80241e-07
9.12231e-06
2.11312e-07
8.87092e-06
2.51393e-07
8.56956e-06
3.01358e-07
8.20035e-06
3.69214e-07
7.75415e-06
4.462e-07
7.16294e-06
5.9121e-07
6.37171e-07
6.52577e-06
6.59021e-05
1.61655e-05
6.18942e-05
1.82676e-05
5.56312e-05
1.36692e-05
4.97605e-05
9.246e-06
4.52626e-05
5.91595e-06
4.20476e-05
3.92724e-06
3.97384e-05
2.76812e-06
3.80356e-05
2.06052e-06
3.67332e-05
1.60868e-06
3.56999e-05
1.3006e-06
3.48547e-05
1.07792e-06
3.41466e-05
9.10561e-07
3.35419e-05
7.81482e-07
3.30174e-05
6.80308e-07
3.25562e-05
6.00305e-07
3.21454e-05
5.36941e-07
3.1775e-05
4.87134e-07
3.14366e-05
4.48821e-07
3.11229e-05
4.20685e-07
3.08274e-05
4.01993e-07
3.0544e-05
3.92482e-07
3.02665e-05
3.92311e-07
2.99887e-05
4.02042e-07
2.97037e-05
4.2266e-07
2.94042e-05
4.5563e-07
2.90814e-05
5.03018e-07
2.87251e-05
5.67578e-07
2.83231e-05
6.53459e-07
2.78591e-05
7.65349e-07
2.73141e-05
9.14182e-07
2.66543e-05
1.10596e-06
2.58654e-05
1.38011e-06
1.77545e-06
2.47272e-05
6.9181e-05
1.07459e-05
7.2506e-05
1.49427e-05
7.30567e-05
1.31185e-05
7.16785e-05
1.06243e-05
6.94284e-05
8.16597e-06
6.70435e-05
6.31221e-06
6.48067e-05
5.00484e-06
6.28089e-05
4.05838e-06
6.10602e-05
3.35741e-06
5.95382e-05
2.82261e-06
5.82132e-05
2.40283e-06
5.70568e-05
2.06703e-06
5.60431e-05
1.79518e-06
5.515e-05
1.57339e-06
5.43586e-05
1.39166e-06
5.36529e-05
1.24271e-06
5.30188e-05
1.12116e-06
5.24445e-05
1.02314e-06
5.19193e-05
9.45875e-07
5.14338e-05
8.87567e-07
5.0979e-05
8.472e-07
5.05469e-05
8.24484e-07
5.01291e-05
8.19821e-07
4.97174e-05
8.34333e-07
4.93031e-05
8.69929e-07
4.88767e-05
9.29468e-07
4.84273e-05
1.01696e-06
4.79425e-05
1.1382e-06
4.74071e-05
1.30082e-06
4.68035e-05
1.51772e-06
4.61055e-05
1.80401e-06
4.5292e-05
2.19357e-06
2.74185e-06
4.43256e-05
6.88453e-05
7.48364e-06
7.21593e-05
1.16287e-05
7.45325e-05
1.07453e-05
7.59399e-05
9.21686e-06
7.65138e-05
7.59212e-06
7.65707e-05
6.25526e-06
7.63185e-05
5.25705e-06
7.58826e-05
4.49432e-06
7.53434e-05
3.89664e-06
7.47493e-05
3.41661e-06
7.41309e-05
3.02128e-06
7.35078e-05
2.69013e-06
7.28936e-05
2.40941e-06
7.22971e-05
2.16983e-06
7.17235e-05
1.96532e-06
7.1175e-05
1.79122e-06
7.06521e-05
1.64401e-06
7.01542e-05
1.5211e-06
6.96793e-05
1.42073e-06
6.9225e-05
1.34187e-06
6.87881e-05
1.28412e-06
6.83648e-05
1.24778e-06
6.79508e-05
1.23382e-06
6.75411e-05
1.24398e-06
6.71302e-05
1.28087e-06
6.67115e-05
1.34817e-06
6.62775e-05
1.45094e-06
6.58196e-05
1.59607e-06
6.53277e-05
1.79281e-06
6.4791e-05
2.05434e-06
6.41965e-05
2.39857e-06
6.35393e-05
2.85074e-06
3.45474e-06
6.28264e-05
6.95583e-05
5.38217e-06
7.18336e-05
9.3533e-06
7.35336e-05
9.04532e-06
7.48021e-05
7.94834e-06
7.56922e-05
6.70198e-06
7.63412e-05
5.60633e-06
7.68347e-05
4.76351e-06
7.72143e-05
4.11471e-06
7.75078e-05
3.60319e-06
7.77333e-05
3.19113e-06
7.79033e-05
2.85125e-06
7.80276e-05
2.56586e-06
7.81129e-05
2.32409e-06
7.81645e-05
2.11822e-06
7.81876e-05
1.9422e-06
7.81869e-05
1.79197e-06
7.81661e-05
1.6648e-06
7.81283e-05
1.55885e-06
7.8076e-05
1.47303e-06
7.8011e-05
1.40694e-06
7.79343e-05
1.36078e-06
7.78467e-05
1.33535e-06
7.77484e-05
1.33213e-06
7.76391e-05
1.35333e-06
7.75179e-05
1.40203e-06
7.73838e-05
1.48231e-06
7.72351e-05
1.59958e-06
7.70704e-05
1.76082e-06
7.6888e-05
1.97521e-06
7.66881e-05
2.25419e-06
7.64734e-05
2.6133e-06
7.62561e-05
3.06803e-06
3.64171e-06
7.60692e-05
7.08397e-05
3.92651e-06
7.26257e-05
7.56733e-06
7.3931e-05
7.73996e-06
7.48599e-05
7.01947e-06
7.54889e-05
6.07299e-06
7.59373e-05
5.15788e-06
7.62923e-05
4.40853e-06
7.65942e-05
3.81287e-06
7.68631e-05
3.33422e-06
7.7109e-05
2.94527e-06
7.73359e-05
2.62434e-06
7.75461e-05
2.35566e-06
7.77416e-05
2.12858e-06
7.7924e-05
1.93579e-06
7.80942e-05
1.77199e-06
7.82529e-05
1.63332e-06
7.84006e-05
1.51704e-06
7.85382e-05
1.42129e-06
7.86663e-05
1.34495e-06
7.87857e-05
1.28757e-06
7.88972e-05
1.24926e-06
7.90018e-05
1.23074e-06
7.91006e-05
1.23333e-06
7.91949e-05
1.25901e-06
7.92864e-05
1.3105e-06
7.93774e-05
1.39135e-06
7.94708e-05
1.50615e-06
7.95711e-05
1.66057e-06
7.96846e-05
1.86168e-06
7.98213e-05
2.1175e-06
7.99971e-05
2.43754e-06
8.0236e-05
2.82906e-06
3.29454e-06
8.05832e-05
7.23884e-05
2.90447e-06
7.38396e-05
6.11607e-06
7.49663e-05
6.6133e-06
7.57835e-05
6.20226e-06
7.63408e-05
5.51573e-06
7.67219e-05
4.77674e-06
7.70033e-05
4.12715e-06
7.72271e-05
3.58909e-06
7.74167e-05
3.14464e-06
7.75854e-05
2.77651e-06
7.77404e-05
2.46939e-06
7.78853e-05
2.21077e-06
7.80222e-05
1.99159e-06
7.81527e-05
1.80537e-06
7.82774e-05
1.64727e-06
7.8397e-05
1.51373e-06
7.85118e-05
1.40215e-06
7.86224e-05
1.31074e-06
7.8729e-05
1.23837e-06
7.88321e-05
1.18447e-06
7.89323e-05
1.14904e-06
7.90305e-05
1.13257e-06
7.91277e-05
1.13608e-06
7.92256e-05
1.16111e-06
7.93264e-05
1.20974e-06
7.94331e-05
1.28466e-06
7.95501e-05
1.38913e-06
7.96837e-05
1.52697e-06
7.9843e-05
1.70239e-06
8.0041e-05
1.91946e-06
8.02973e-05
2.18124e-06
8.06385e-05
2.48783e-06
2.82933e-06
8.11037e-05
7.41248e-05
2.18491e-06
7.52912e-05
4.9497e-06
7.62715e-05
5.63296e-06
7.70222e-05
5.45157e-06
7.75663e-05
4.97166e-06
7.79532e-05
4.38985e-06
7.82406e-05
3.83974e-06
7.84659e-05
3.36374e-06
7.86517e-05
2.95887e-06
7.88119e-05
2.6163e-06
7.89549e-05
2.32645e-06
7.90854e-05
2.08025e-06
7.92065e-05
1.87047e-06
7.93202e-05
1.69165e-06
7.94279e-05
1.53961e-06
7.95304e-05
1.41118e-06
7.96286e-05
1.30398e-06
7.9723e-05
1.21633e-06
7.98143e-05
1.14712e-06
7.9903e-05
1.09576e-06
7.99899e-05
1.06212e-06
8.0076e-05
1.0465e-06
8.01624e-05
1.04962e-06
8.0251e-05
1.07257e-06
8.03439e-05
1.11682e-06
8.04444e-05
1.18416e-06
8.05569e-05
1.2766e-06
8.06877e-05
1.3962e-06
8.08454e-05
1.54468e-06
8.10421e-05
1.72279e-06
8.12943e-05
1.92899e-06
8.16238e-05
2.15838e-06
2.39631e-06
8.20568e-05
7.60163e-05
1.67109e-06
7.69517e-05
4.0143e-06
7.7799e-05
4.78566e-06
7.84787e-05
4.77191e-06
7.89972e-05
4.45309e-06
7.93833e-05
4.0038e-06
7.96789e-05
3.54406e-06
7.99155e-05
3.12718e-06
8.01125e-05
2.76184e-06
8.02828e-05
2.44604e-06
8.04343e-05
2.17495e-06
8.05721e-05
1.9425e-06
8.06993e-05
1.74323e-06
8.08182e-05
1.5727e-06
8.09305e-05
1.42738e-06
8.10372e-05
1.30448e-06
8.11393e-05
1.20186e-06
8.12377e-05
1.11797e-06
8.13331e-05
1.05173e-06
8.14263e-05
1.00249e-06
8.15184e-05
9.70004e-07
8.16106e-05
9.54349e-07
8.17043e-05
9.55913e-07
8.18015e-05
9.7534e-07
8.19049e-05
1.01346e-06
8.20178e-05
1.0712e-06
8.21451e-05
1.1494e-06
8.22927e-05
1.24857e-06
8.2469e-05
1.36839e-06
8.26846e-05
1.50718e-06
8.29531e-05
1.66052e-06
8.32908e-05
1.82066e-06
1.97243e-06
8.37146e-05
7.80325e-05
1.29813e-06
7.87826e-05
3.26425e-06
7.95126e-05
4.05563e-06
8.01256e-05
4.15891e-06
8.06153e-05
3.96345e-06
8.09953e-05
3.62373e-06
8.12947e-05
3.24472e-06
8.15384e-05
2.88348e-06
8.17434e-05
2.55682e-06
8.19213e-05
2.26809e-06
8.208e-05
2.01629e-06
8.22244e-05
1.79808e-06
8.2358e-05
1.60965e-06
8.24831e-05
1.44761e-06
8.26014e-05
1.30907e-06
8.27142e-05
1.19166e-06
8.28226e-05
1.09347e-06
8.29275e-05
1.01305e-06
8.30299e-05
9.49333e-07
8.31308e-05
9.01616e-07
8.32313e-05
8.69485e-07
8.33329e-05
8.52786e-07
8.34372e-05
8.51562e-07
8.35466e-05
8.65987e-07
8.36638e-05
8.96274e-07
8.37924e-05
9.42533e-07
8.39373e-05
1.00457e-06
8.41042e-05
1.08161e-06
8.43008e-05
1.17182e-06
8.45362e-05
1.27183e-06
8.4821e-05
1.37568e-06
8.51672e-05
1.47447e-06
1.55432e-06
8.55853e-05
8.01542e-05
1.02226e-06
8.07574e-05
2.66106e-06
8.13858e-05
3.42716e-06
8.1938e-05
3.60678e-06
8.23974e-05
3.50399e-06
8.27678e-05
3.25333e-06
8.30676e-05
2.94494e-06
8.33162e-05
2.63486e-06
8.3528e-05
2.34505e-06
8.37132e-05
2.08291e-06
8.3879e-05
1.85049e-06
8.40303e-05
1.64677e-06
8.41705e-05
1.46945e-06
8.4302e-05
1.31611e-06
8.44266e-05
1.18448e-06
8.45457e-05
1.07257e-06
8.46604e-05
9.7869e-07
8.4772e-05
9.01493e-07
8.48814e-05
8.39924e-07
8.49898e-05
7.93195e-07
8.50986e-05
7.60737e-07
8.52092e-05
7.4215e-07
8.53236e-05
7.37141e-07
8.54442e-05
7.4544e-07
8.55738e-05
7.66689e-07
8.5716e-05
8.00294e-07
8.58754e-05
8.45213e-07
8.60573e-05
8.99699e-07
8.62682e-05
9.60886e-07
8.65156e-05
1.02445e-06
8.68075e-05
1.08382e-06
8.71518e-05
1.13009e-06
1.15143e-06
8.75547e-05
8.23687e-05
8.13963e-07
8.28562e-05
2.17364e-06
8.33967e-05
2.88661e-06
8.38931e-05
3.11042e-06
8.43222e-05
3.07483e-06
8.4681e-05
2.89459e-06
8.49796e-05
2.64632e-06
8.52323e-05
2.3822e-06
8.54505e-05
2.12683e-06
8.5643e-05
1.89042e-06
8.58162e-05
1.67727e-06
8.59748e-05
1.48818e-06
8.6122e-05
1.32219e-06
8.62604e-05
1.17774e-06
8.63918e-05
1.05313e-06
8.65176e-05
9.46732e-07
8.66392e-05
8.57077e-07
8.67578e-05
7.82909e-07
8.68746e-05
7.23176e-07
8.69907e-05
6.7701e-07
8.71078e-05
6.43685e-07
8.72274e-05
6.22571e-07
8.73514e-05
6.13061e-07
8.74824e-05
6.14488e-07
8.76231e-05
6.26009e-07
8.77769e-05
6.46463e-07
8.79479e-05
6.74176e-07
8.81409e-05
7.06742e-07
8.83611e-05
7.40712e-07
8.86142e-05
7.7136e-07
8.89058e-05
7.92225e-07
8.92408e-05
7.95032e-07
7.70286e-07
8.9622e-05
8.46684e-05
6.53295e-07
8.50651e-05
1.77702e-06
8.55304e-05
2.4213e-06
8.59763e-05
2.66445e-06
8.6376e-05
2.67515e-06
8.67215e-05
2.5491e-06
8.7017e-05
2.35081e-06
8.72721e-05
2.12714e-06
8.74956e-05
1.90329e-06
8.76948e-05
1.69121e-06
8.78753e-05
1.49675e-06
8.80414e-05
1.32213e-06
8.81961e-05
1.16748e-06
8.83418e-05
1.03199e-06
8.84805e-05
9.1446e-07
8.86136e-05
8.13597e-07
8.87426e-05
7.28123e-07
8.88686e-05
6.56862e-07
8.89931e-05
5.9876e-07
8.91172e-05
5.5287e-07
8.92426e-05
5.18323e-07
8.93709e-05
4.94278e-07
8.95041e-05
4.79858e-07
8.96445e-05
4.74065e-07
8.97948e-05
4.75674e-07
8.99582e-05
4.83107e-07
9.01381e-05
4.94269e-07
9.03384e-05
5.0639e-07
9.05633e-05
5.15795e-07
9.08169e-05
5.17794e-07
9.11027e-05
5.06435e-07
9.14233e-05
4.74478e-07
4.14624e-07
9.17789e-05
8.70488e-05
5.26686e-07
8.73744e-05
1.45144e-06
8.77758e-05
2.01982e-06
8.81766e-05
2.26367e-06
8.85481e-05
2.30365e-06
8.88794e-05
2.21778e-06
8.91704e-05
2.05986e-06
8.94267e-05
1.87087e-06
8.96547e-05
1.67523e-06
8.98603e-05
1.48568e-06
9.0048e-05
1.30906e-06
9.02215e-05
1.14856e-06
9.03839e-05
1.00515e-06
9.05372e-05
8.78634e-07
9.06834e-05
7.68243e-07
9.08241e-05
6.72956e-07
9.09605e-05
5.91662e-07
9.10941e-05
5.23256e-07
9.12262e-05
4.66681e-07
9.13582e-05
4.20918e-07
9.14915e-05
3.84973e-07
9.1628e-05
3.5783e-07
9.17694e-05
3.38392e-07
9.19181e-05
3.25408e-07
9.20764e-05
3.17379e-07
9.2247e-05
3.1246e-07
9.2433e-05
3.08332e-07
9.26373e-05
3.02097e-07
9.28629e-05
2.90138e-07
9.31126e-05
2.68085e-07
9.33883e-05
2.30728e-07
9.36908e-05
1.72025e-07
8.66258e-08
9.40188e-05
8.95074e-05
4.24811e-07
8.97775e-05
1.18135e-06
9.01253e-05
1.67198e-06
9.04861e-05
1.90289e-06
9.08313e-05
1.95842e-06
9.11483e-05
1.90079e-06
9.14338e-05
1.77442e-06
9.16902e-05
1.61446e-06
9.19219e-05
1.44354e-06
9.21331e-05
1.2745e-06
9.23275e-05
1.1146e-06
9.25084e-05
9.67663e-07
9.26783e-05
8.35249e-07
9.28393e-05
7.17627e-07
9.29932e-05
6.14373e-07
9.31415e-05
5.24691e-07
9.32855e-05
4.47607e-07
9.34267e-05
3.82074e-07
9.35664e-05
3.27026e-07
9.37059e-05
2.81388e-07
9.38468e-05
2.44063e-07
9.39907e-05
2.13898e-07
9.41395e-05
1.89635e-07
9.4295e-05
1.69847e-07
9.44596e-05
1.5287e-07
9.46353e-05
1.36725e-07
9.48246e-05
1.19035e-07
9.50297e-05
9.69604e-08
9.52527e-05
6.71386e-08
9.54951e-05
2.57273e-08
9.57575e-05
-3.17248e-08
9.60396e-05
-1.10001e-07
-2.12835e-07
9.6339e-05
9.20435e-05
3.41162e-07
9.22703e-05
9.54556e-07
9.25735e-05
1.36879e-06
9.28993e-05
1.57711e-06
9.32204e-05
1.63725e-06
9.35234e-05
1.5978e-06
9.38028e-05
1.49506e-06
9.40586e-05
1.35864e-06
9.42932e-05
1.20889e-06
9.45096e-05
1.05812e-06
9.47106e-05
9.13637e-07
9.48987e-05
7.79545e-07
9.50762e-05
6.57775e-07
9.52449e-05
5.48918e-07
9.54065e-05
4.52796e-07
9.55624e-05
3.68781e-07
9.5714e-05
2.96001e-07
9.58626e-05
2.3345e-07
9.60096e-05
1.80057e-07
9.61562e-05
1.34703e-07
9.63041e-05
9.62127e-08
9.64547e-05
6.33389e-08
9.66096e-05
3.47187e-08
9.67706e-05
8.83056e-09
9.69395e-05
-1.60624e-08
9.71182e-05
-4.1953e-08
9.73084e-05
-7.11487e-08
9.75116e-05
-1.06291e-07
9.77292e-05
-1.50375e-07
9.79616e-05
-2.06692e-07
9.82086e-05
-2.78751e-07
9.84689e-05
-3.70327e-07
-4.8379e-07
9.87399e-05
9.46572e-05
2.7112e-07
9.48502e-05
7.61533e-07
9.51166e-05
1.10242e-06
9.54122e-05
1.28152e-06
9.57118e-05
1.33763e-06
9.60016e-05
1.30796e-06
9.62749e-05
1.22184e-06
9.65297e-05
1.10383e-06
9.67668e-05
9.7175e-07
9.6988e-05
8.36955e-07
9.71952e-05
7.06468e-07
9.73903e-05
5.84404e-07
9.75752e-05
4.7285e-07
9.77516e-05
3.72582e-07
9.79208e-05
2.83572e-07
9.80843e-05
2.05305e-07
9.82433e-05
1.36973e-07
9.83991e-05
7.75987e-08
9.85531e-05
2.61051e-08
9.87065e-05
-1.86603e-08
9.88606e-05
-5.7918e-08
9.90169e-05
-9.29714e-08
9.91769e-05
-1.25232e-07
9.93419e-05
-1.5625e-07
9.95136e-05
-1.87748e-07
9.96933e-05
-2.21648e-07
9.98823e-05
-2.60091e-07
0.000100081
-3.05436e-07
0.000100291
-3.60243e-07
0.000100512
-4.27203e-07
0.000100742
-5.09025e-07
0.00010098
-6.08533e-07
-7.27045e-07
0.000101224
9.73493e-05
2.11328e-07
9.75161e-05
5.9479e-07
9.77524e-05
8.66071e-07
9.80224e-05
1.01156e-06
9.83031e-05
1.05687e-06
9.85811e-05
1.03002e-06
9.88485e-05
9.54407e-07
9.91022e-05
8.50108e-07
9.93416e-05
7.32334e-07
9.95674e-05
6.11232e-07
9.97806e-05
4.93268e-07
9.99826e-05
3.82348e-07
0.000100175
2.80538e-07
0.000100359
1.88666e-07
0.000100536
1.06766e-07
0.000100707
3.43712e-08
0.000100873
-2.92927e-08
0.000101036
-8.51922e-08
0.000101196
-1.34412e-07
0.000101356
-1.78124e-07
0.000101515
-2.1757e-07
0.000101676
-2.54072e-07
0.00010184
-2.89043e-07
0.000102008
-3.24002e-07
0.000102181
-3.60598e-07
0.00010236
-4.00608e-07
0.000102546
-4.4595e-07
0.000102739
-4.98653e-07
0.000102939
-5.60824e-07
0.000103147
-6.34583e-07
0.00010336
-7.21926e-07
0.000103576
-8.24869e-07
-9.43943e-07
0.000103793
0.000100121
1.59292e-07
0.000100268
4.48399e-07
0.00010048
6.53876e-07
0.000100728
7.62916e-07
0.000100993
7.92162e-07
0.000101261
7.62405e-07
0.000101523
6.92021e-07
0.000101776
5.97185e-07
0.000102018
4.90573e-07
0.000102248
3.80956e-07
0.000102467
2.74058e-07
0.000102676
1.73394e-07
0.000102876
8.08538e-08
0.000103067
-2.80242e-09
0.000103252
-7.75648e-08
0.00010343
-1.43903e-07
0.000103603
-2.02599e-07
0.000103773
-2.54623e-07
0.000103939
-3.01071e-07
0.000104104
-3.43121e-07
0.000104269
-3.82018e-07
0.000104434
-4.19068e-07
0.0001046
-4.55646e-07
0.00010477
-4.93198e-07
0.000104942
-5.33247e-07
0.000105119
-5.77388e-07
0.0001053
-6.27277e-07
0.000105486
-6.846e-07
0.000105676
-7.51028e-07
0.00010587
-8.28158e-07
0.000106066
-9.17382e-07
0.000106261
-1.02005e-06
-1.13611e-06
0.000106453
0.000102974
1.13108e-07
0.000103105
3.17605e-07
0.000103298
4.60746e-07
0.00010353
5.3152e-07
0.000103781
5.40618e-07
0.00010404
5.03235e-07
0.000104299
4.33586e-07
0.000104551
3.44457e-07
0.000104796
2.46141e-07
0.000105031
1.45956e-07
0.000105256
4.87464e-08
0.000105472
-4.25041e-08
0.000105679
-1.2621e-07
0.000105878
-2.01785e-07
0.00010607
-2.69319e-07
0.000106255
-3.29343e-07
0.000106435
-3.82676e-07
0.000106611
-4.30316e-07
0.000106783
-4.7337e-07
0.000106953
-5.13016e-07
0.000107122
-5.50483e-07
0.00010729
-5.87039e-07
0.000107458
-6.2399e-07
0.000107628
-6.62677e-07
0.000107799
-7.04468e-07
0.000107972
-7.5075e-07
0.000108148
-8.0291e-07
0.000108325
-8.62298e-07
0.000108505
-9.30184e-07
0.000108684
-1.00771e-06
0.000108863
-1.09577e-06
0.000109038
-1.1952e-06
-1.30554e-06
0.000109207
0.000105911
7.12733e-08
0.00010603
1.98525e-07
0.000106208
2.8222e-07
0.000106426
3.13521e-07
0.000106668
2.99252e-07
0.00010692
2.50354e-07
0.000107176
1.77627e-07
0.00010743
9.09199e-08
0.000107678
-1.66713e-09
0.000107918
-9.42877e-08
0.00010815
-1.83066e-07
0.000108373
-2.65657e-07
0.000108588
-3.4089e-07
0.000108794
-4.0844e-07
0.000108994
-4.6857e-07
0.000109186
-5.21925e-07
0.000109373
-5.69395e-07
0.000109555
-6.12021e-07
0.000109732
-6.50931e-07
0.000109906
-6.87299e-07
0.000110078
-7.22326e-07
0.000110248
-7.57225e-07
0.000110418
-7.93213e-07
0.000110586
-8.31503e-07
0.000110755
-8.73298e-07
0.000110924
-9.19769e-07
0.000111093
-9.72038e-07
0.000111262
-1.03114e-06
0.00011143
-1.09801e-06
0.000111596
-1.17338e-06
0.000111758
-1.25776e-06
0.000111914
-1.35158e-06
-1.4541e-06
0.000112063
0.000108932
3.25637e-08
0.000109043
8.79002e-08
0.000109211
1.14328e-07
0.000109419
1.0524e-07
0.000109653
6.5017e-08
0.000109902
1.38158e-09
0.000110157
-7.76129e-08
0.000110413
-1.647e-07
0.000110665
-2.53765e-07
0.000110911
-3.40426e-07
0.00011115
-4.21835e-07
0.000111381
-4.9637e-07
0.000111603
-5.63361e-07
0.000111818
-6.22829e-07
0.000112024
-6.7527e-07
0.000112224
-7.21489e-07
0.000112417
-7.62484e-07
0.000112604
-7.99357e-07
0.000112787
-8.33262e-07
0.000112965
-8.65372e-07
0.000113139
-8.96853e-07
0.000113311
-9.28851e-07
0.00011348
-9.62484e-07
0.000113647
-9.98831e-07
0.000113813
-1.03892e-06
0.000113977
-1.08372e-06
0.000114139
-1.1341e-06
0.000114299
-1.19083e-06
0.000114455
-1.25452e-06
0.000114607
-1.32562e-06
0.000114754
-1.40433e-06
0.000114893
-1.49075e-06
-1.58403e-06
0.000115023
0.000112041
-4.06291e-09
0.000112146
-1.70981e-08
0.000112307
-4.65758e-08
0.000112509
-9.69506e-08
0.00011274
-1.65343e-07
0.000112987
-2.46377e-07
0.000113244
-3.34393e-07
0.000113504
-4.24227e-07
0.000113762
-5.11645e-07
0.000114015
-5.93689e-07
0.000114262
-6.68574e-07
0.000114501
-7.35473e-07
0.000114732
-7.94289e-07
0.000114954
-8.45457e-07
0.000115169
-8.8977e-07
0.000115375
-9.28239e-07
0.000115575
-9.61996e-07
0.000115768
-9.92229e-07
0.000115955
-1.02013e-06
0.000116136
-1.04688e-06
0.000116313
-1.0736e-06
0.000116485
-1.10136e-06
0.000116654
-1.1312e-06
0.000116819
-1.16405e-06
0.000116981
-1.20077e-06
0.00011714
-1.24213e-06
0.000117294
-1.28879e-06
0.000117445
-1.34127e-06
0.00011759
-1.39995e-06
0.00011773
-1.46501e-06
0.000117862
-1.53643e-06
0.000117985
-1.61409e-06
-1.69703e-06
0.000118098
0.00011524
-3.95427e-08
0.000115342
-1.19024e-07
0.000115499
-2.03915e-07
0.000115699
-2.96614e-07
0.000115929
-3.9512e-07
0.000116178
-4.95845e-07
0.000116439
-5.95085e-07
0.000116704
-6.89573e-07
0.000116969
-7.76807e-07
0.000117231
-8.55227e-07
0.000117486
-9.24148e-07
0.000117735
-9.83589e-07
0.000117974
-1.03409e-06
0.000118205
-1.07658e-06
0.000118428
-1.11217e-06
0.000118642
-1.14213e-06
0.000118848
-1.16777e-06
0.000119046
-1.19037e-06
0.000119237
-1.21117e-06
0.000119421
-1.23137e-06
0.0001196
-1.25205e-06
0.000119773
-1.27423e-06
0.00011994
-1.29882e-06
0.000120103
-1.32665e-06
0.00012026
-1.35841e-06
0.000120413
-1.39472e-06
0.00012056
-1.43602e-06
0.000120702
-1.48265e-06
0.000120836
-1.53477e-06
0.000120964
-1.59239e-06
0.000121083
-1.65532e-06
0.000121192
-1.72331e-06
-1.79537e-06
0.00012129
0.000118531
-7.47518e-08
0.000118632
-2.20352e-07
0.00011879
-3.61159e-07
0.000118991
-4.97603e-07
0.000119224
-6.28168e-07
0.000119478
-7.50651e-07
0.000119746
-8.63007e-07
0.000120021
-9.63698e-07
0.000120296
-1.05185e-06
0.000120568
-1.12728e-06
0.000120834
-1.19046e-06
0.000121093
-1.24231e-06
0.000121343
-1.28406e-06
0.000121583
-1.31718e-06
0.000121814
-1.34321e-06
0.000122036
-1.36367e-06
0.000122248
-1.38009e-06
0.000122452
-1.39386e-06
0.000122647
-1.40632e-06
0.000122834
-1.41864e-06
0.000123014
-1.43191e-06
0.000123187
-1.44708e-06
0.000123353
-1.46496e-06
0.000123513
-1.48627e-06
0.000123666
-1.51157e-06
0.000123812
-1.5413e-06
0.000123952
-1.57577e-06
0.000124084
-1.61513e-06
0.000124209
-1.6594e-06
0.000124325
-1.70845e-06
0.000124432
-1.76195e-06
0.000124528
-1.81955e-06
-1.88025e-06
0.000124613
0.000121917
-1.10557e-07
0.00012202
-3.23513e-07
0.000122181
-5.2174e-07
0.000122387
-7.03731e-07
0.000122627
-8.6824e-07
0.000122891
-1.01423e-06
0.000123169
-1.14115e-06
0.000123454
-1.2491e-06
0.000123741
-1.33882e-06
0.000124025
-1.41152e-06
0.000124304
-1.46884e-06
0.000124574
-1.51267e-06
0.000124835
-1.545e-06
0.000125086
-1.56789e-06
0.000125326
-1.58331e-06
0.000125555
-1.59313e-06
0.000125774
-1.59908e-06
0.000125983
-1.60274e-06
0.000126182
-1.60549e-06
0.000126372
-1.60855e-06
0.000126553
-1.61299e-06
0.000126726
-1.6197e-06
0.00012689
-1.62943e-06
0.000127047
-1.64278e-06
0.000127196
-1.66019e-06
0.000127336
-1.68198e-06
0.000127469
-1.70831e-06
0.000127593
-1.73922e-06
0.000127708
-1.7746e-06
0.000127814
-1.81421e-06
0.00012791
-1.85767e-06
0.000127995
-1.90455e-06
-1.95393e-06
0.000128068
0.000125401
-1.47965e-07
0.000125509
-4.31346e-07
0.000125677
-6.89861e-07
0.000125893
-9.20017e-07
0.000126146
-1.12073e-06
0.000126423
-1.292e-06
0.000126717
-1.4347e-06
0.000127018
-1.55057e-06
0.000127322
-1.64197e-06
0.000127622
-1.7116e-06
0.000127915
-1.76236e-06
0.0001282
-1.79716e-06
0.000128473
-1.81887e-06
0.000128736
-1.83017e-06
0.000128986
-1.83353e-06
0.000129224
-1.83121e-06
0.00012945
-1.82517e-06
0.000129665
-1.81716e-06
0.000129868
-1.80865e-06
0.00013006
-1.80092e-06
0.000130242
-1.79501e-06
0.000130414
-1.79178e-06
0.000130577
-1.7919e-06
0.00013073
-1.79588e-06
0.000130874
-1.80405e-06
0.000131008
-1.81663e-06
0.000131134
-1.83367e-06
0.00013125
-1.8551e-06
0.000131356
-1.88071e-06
0.000131452
-1.91018e-06
0.000131537
-1.94307e-06
0.000131611
-1.97891e-06
-2.01679e-06
0.000131674
0.000128985
-1.87932e-07
0.0001291
-5.46595e-07
0.00012928
-8.69367e-07
0.000129511
-1.1507e-06
0.00012978
-1.38981e-06
0.000130075
-1.58781e-06
0.000130388
-1.74711e-06
0.000130708
-1.87116e-06
0.00013103
-1.96402e-06
0.000131349
-2.02994e-06
0.00013166
-2.07315e-06
0.00013196
-2.0977e-06
0.000132249
-2.10733e-06
0.000132524
-2.10546e-06
0.000132785
-2.09511e-06
0.000133033
-2.07892e-06
0.000133267
-2.05916e-06
0.000133488
-2.03775e-06
0.000133695
-2.0163e-06
0.000133891
-1.99612e-06
0.000134074
-1.97826e-06
0.000134246
-1.96355e-06
0.000134406
-1.95259e-06
0.000134556
-1.94581e-06
0.000134696
-1.94347e-06
0.000134825
-1.94567e-06
0.000134943
-1.95238e-06
0.000135052
-1.96345e-06
0.00013515
-1.97859e-06
0.000135237
-1.99745e-06
0.000135313
-2.01954e-06
0.000135379
-2.04441e-06
-2.07118e-06
0.000135433
0.000132673
-2.32153e-07
0.000132801
-6.73897e-07
0.000132998
-1.06724e-06
0.000133252
-1.4043e-06
0.000133547
-1.68469e-06
0.00013387
-1.91086e-06
0.00013421
-2.08694e-06
0.000134557
-2.21841e-06
0.000134904
-2.31131e-06
0.000135246
-2.37167e-06
0.000135578
-2.40522e-06
0.000135898
-2.41726e-06
0.000136203
-2.41252e-06
0.000136493
-2.3952e-06
0.000136766
-2.3689e-06
0.000137024
-2.33669e-06
0.000137266
-2.30115e-06
0.000137493
-2.26438e-06
0.000137705
-2.22812e-06
0.000137902
-2.19373e-06
0.000138086
-2.16225e-06
0.000138257
-2.13449e-06
0.000138416
-2.111e-06
0.000138562
-2.09213e-06
0.000138697
-2.07806e-06
0.00013882
-2.0688e-06
0.000138932
-2.06426e-06
0.000139032
-2.06419e-06
0.000139122
-2.06827e-06
0.000139201
-2.07607e-06
0.000139268
-2.08708e-06
0.000139325
-2.1008e-06
-2.11639e-06
0.00013937
0.000136468
-2.8146e-07
0.00013661
-8.16109e-07
0.00013683
-1.28717e-06
0.00013711
-1.68461e-06
0.000137435
-2.0092e-06
0.000137789
-2.2651e-06
0.00013816
-2.4584e-06
0.000138539
-2.5968e-06
0.000138916
-2.68852e-06
0.000139286
-2.74149e-06
0.000139644
-2.76314e-06
0.000139986
-2.76013e-06
0.000140312
-2.73835e-06
0.00014062
-2.70285e-06
0.000140909
-2.6579e-06
0.000141179
-2.60706e-06
0.000141431
-2.55322e-06
0.000141666
-2.49874e-06
0.000141883
-2.44547e-06
0.000142084
-2.39481e-06
0.00014227
-2.34785e-06
0.000142441
-2.30533e-06
0.000142597
-2.26775e-06
0.000142741
-2.23541e-06
0.000142871
-2.20839e-06
0.000142989
-2.18664e-06
0.000143095
-2.16998e-06
0.000143188
-2.15811e-06
0.000143271
-2.15065e-06
0.000143342
-2.14716e-06
0.000143402
-2.14711e-06
0.000143451
-2.15001e-06
-2.15507e-06
0.00014349
0.000140375
-3.40513e-07
0.000140543
-9.8448e-07
0.000140801
-1.5451e-06
0.000141126
-2.00964e-06
0.000141498
-2.38103e-06
0.000141899
-2.66621e-06
0.000142315
-2.87427e-06
0.000142734
-3.01608e-06
0.000143148
-3.10262e-06
0.000143551
-3.14412e-06
0.000143938
-3.14983e-06
0.000144305
-3.12795e-06
0.000144653
-3.08551e-06
0.000144978
-3.02847e-06
0.000145282
-2.96174e-06
0.000145564
-2.88937e-06
0.000145826
-2.81459e-06
0.000146067
-2.73995e-06
0.000146289
-2.66742e-06
0.000146493
-2.59846e-06
0.000146679
-2.53414e-06
0.000146849
-2.47519e-06
0.000147003
-2.42203e-06
0.000147143
-2.37489e-06
0.000147268
-2.33377e-06
0.00014738
-2.29855e-06
0.000147479
-2.26897e-06
0.000147565
-2.24467e-06
0.00014764
-2.22522e-06
0.000147703
-2.21012e-06
0.000147755
-2.19881e-06
0.000147795
-2.19075e-06
-2.18512e-06
0.000147825
0.000144391
-4.07124e-07
0.000144585
-1.17784e-06
0.000144879
-1.83982e-06
0.000145249
-2.37952e-06
0.000145671
-2.80334e-06
0.000146126
-3.12083e-06
0.000146596
-3.34411e-06
0.000147068
-3.48767e-06
0.000147531
-3.56583e-06
0.000147978
-3.59158e-06
0.000148405
-3.57654e-06
0.000148808
-3.53075e-06
0.000149185
-3.46267e-06
0.000149536
-3.37932e-06
0.00014986
-3.28639e-06
0.000150159
-3.18845e-06
0.000150434
-3.08907e-06
0.000150685
-2.99101e-06
0.000150914
-2.89633e-06
0.000151122
-2.80653e-06
0.00015131
-2.72265e-06
0.000151481
-2.64532e-06
0.000151633
-2.57492e-06
0.00015177
-2.51155e-06
0.000151892
-2.45514e-06
0.000151998
-2.40547e-06
0.000152092
-2.36221e-06
0.000152172
-2.32493e-06
0.00015224
-2.29316e-06
0.000152296
-2.26636e-06
0.000152341
-2.24396e-06
0.000152376
-2.22544e-06
-2.20996e-06
0.000152401
0.000148542
-5.0073e-07
0.000148797
-1.43293e-06
0.000149171
-2.2141e-06
0.000149624
-2.83275e-06
0.000150126
-3.30534e-06
0.000150653
-3.64797e-06
0.000151188
-3.87839e-06
0.000151716
-4.01601e-06
0.000152229
-4.07876e-06
0.00015272
-4.08244e-06
0.000153184
-4.04089e-06
0.000153619
-3.96594e-06
0.000154024
-3.86739e-06
0.000154398
-3.75326e-06
0.000154742
-3.62998e-06
0.000155056
-3.50264e-06
0.000155342
-3.37515e-06
0.000155601
-3.25047e-06
0.000155836
-3.13074e-06
0.000156047
-3.01749e-06
0.000156236
-2.9117e-06
0.000156404
-2.81395e-06
0.000156554
-2.7245e-06
0.000156686
-2.64336e-06
0.000156801
-2.57033e-06
0.000156901
-2.5051e-06
0.000156986
-2.44724e-06
0.000157057
-2.39626e-06
0.000157115
-2.3516e-06
0.000157162
-2.31268e-06
0.000157197
-2.27887e-06
0.000157221
-2.24958e-06
-2.22391e-06
0.000157235
0.000152785
-5.96734e-07
0.000153076
-1.7241e-06
0.000153512
-2.64969e-06
0.000154048
-3.36893e-06
0.000154648
-3.90489e-06
0.000155277
-4.2777e-06
0.000155912
-4.51264e-06
0.000156532
-4.63692e-06
0.000157128
-4.67417e-06
0.00015769
-4.64454e-06
0.000158214
-4.56519e-06
0.000158699
-4.45036e-06
0.000159143
-4.31154e-06
0.000159548
-4.15792e-06
0.000159914
-3.9967e-06
0.000160245
-3.83341e-06
0.000160542
-3.67224e-06
0.000160808
-3.51621e-06
0.000161045
-3.36747e-06
0.000161255
-3.22745e-06
0.00016144
-3.097e-06
0.000161602
-2.97654e-06
0.000161744
-2.86616e-06
0.000161866
-2.76569e-06
0.000161971
-2.67481e-06
0.000162059
-2.59303e-06
0.000162131
-2.51984e-06
0.00016219
-2.45463e-06
0.000162235
-2.39682e-06
0.000162268
-2.34578e-06
0.00016229
-2.30089e-06
0.000162302
-2.2616e-06
-2.22691e-06
0.000162305
0.000157247
-7.91885e-07
0.000157699
-2.17615e-06
0.000158293
-3.24415e-06
0.000158963
-4.03884e-06
0.000159673
-4.61444e-06
0.000160393
-4.99845e-06
0.000161104
-5.22357e-06
0.000161791
-5.32318e-06
0.000162441
-5.32511e-06
0.00016305
-5.25316e-06
0.000163613
-5.12765e-06
0.000164127
-4.96521e-06
0.000164595
-4.77913e-06
0.000165017
-4.57983e-06
0.000165396
-4.37533e-06
0.000165734
-4.17164e-06
0.000166035
-3.97314e-06
0.000166301
-3.7829e-06
0.000166537
-3.60297e-06
0.000166744
-3.43461e-06
0.000166925
-3.27845e-06
0.000167084
-3.13467e-06
0.000167221
-3.00311e-06
0.000167338
-2.88337e-06
0.000167438
-2.7749e-06
0.000167522
-2.67703e-06
0.000167592
-2.58908e-06
0.000167647
-2.51033e-06
0.000167691
-2.44011e-06
0.000167723
-2.37776e-06
0.000167744
-2.32269e-06
0.000167757
-2.27432e-06
-2.23166e-06
0.000167762
0.000161693
-9.46261e-07
0.000162217
-2.70061e-06
0.00016296
-3.98674e-06
0.000163827
-4.90621e-06
0.000164743
-5.53006e-06
0.00016565
-5.90597e-06
0.000166521
-6.094e-06
0.000167341
-6.14363e-06
0.000168107
-6.09047e-06
0.000168816
-5.96299e-06
0.000169473
-5.78401e-06
0.000170079
-5.57109e-06
0.000170637
-5.33782e-06
0.000171152
-5.09457e-06
0.000171626
-4.84919e-06
0.000172062
-4.60746e-06
0.000172462
-4.37357e-06
0.00017283
-4.15045e-06
0.000173167
-3.93999e-06
0.000173476
-3.74332e-06
0.000173758
-3.56093e-06
0.000174016
-3.39286e-06
0.000174252
-3.2388e-06
0.000174467
-3.09821e-06
0.000174662
-2.97037e-06
0.00017484
-2.85451e-06
0.000175
-2.7498e-06
0.000175146
-2.65546e-06
0.000175276
-2.57082e-06
0.000175394
-2.49527e-06
0.0001755
-2.42857e-06
0.000175595
-2.37019e-06
-2.3203e-06
0.000175684
0.00016669
-1.48298e-06
0.00016755
-3.56047e-06
0.000168496
-4.93287e-06
0.00016952
-5.9301e-06
0.000170623
-6.6329e-06
0.000171785
-7.06759e-06
0.000172986
-7.2952e-06
0.000174204
-7.36196e-06
0.000175416
-7.30194e-06
0.000176599
-7.14623e-06
0.000177737
-6.92165e-06
0.000178816
-6.65017e-06
0.000179827
-6.34959e-06
0.000180767
-6.03399e-06
0.000181632
-5.71425e-06
0.000182423
-5.39858e-06
0.000183142
-5.09296e-06
0.000183793
-4.80151e-06
0.00018438
-4.5269e-06
0.000184908