/*--------------------------------*- C++ -*----------------------------------*\
  =========                 |
  \\      /  F ield         | OpenFOAM: The Open Source CFD Toolbox
   \\    /   O peration     | Website:  https://openfoam.org
    \\  /    A nd           | Version:  10
     \\/     M anipulation  |
\*---------------------------------------------------------------------------*/
FoamFile
{
    format      ascii;
    class       volVectorField;
    location    "0.07";
    object      U;
}
// * * * * * * * * * * * * * * * * * * * * * * * * * * * * * * * * * * * * * //

dimensions      [0 1 -1 0 0 0 0];

internalField   nonuniform List<vector> 
6820
(
(5.57348 0.459184 0)
(3.88262 0.245972 0)
(2.58829 0.00887027 0)
(1.95573 -0.0640899 0)
(1.72967 -0.0593699 0)
(1.6177 -0.0338908 0)
(1.55179 -0.0152296 0)
(1.50479 -0.00515798 0)
(1.46499 -0.00055654 0)
(1.43024 0.000964949 0)
(1.39996 0.00104724 0)
(1.37361 0.0005764 0)
(1.35067 -3.67539e-05 0)
(1.33056 -0.00060948 0)
(1.31273 -0.00107042 0)
(1.2967 -0.00140173 0)
(1.28201 -0.0016084 0)
(1.26828 -0.00170222 0)
(1.25514 -0.00169433 0)
(1.24224 -0.00159218 0)
(1.22922 -0.00139853 0)
(1.2157 -0.00111091 0)
(1.20128 -0.000721258 0)
(1.18548 -0.00021513 0)
(1.16778 0.000428597 0)
(1.14752 0.00124219 0)
(1.12394 0.00225924 0)
(1.09615 0.00356046 0)
(1.06278 0.00513274 0)
(1.02303 0.00740473 0)
(0.972592 0.00940757 0)
(0.915997 0.0165883 0)
(0.823745 0.00212682 0)
(7.66979 0.864016 0)
(7.71693 0.891057 0)
(6.99903 0.598774 0)
(6.19552 0.347911 0)
(5.58109 0.180041 0)
(5.13524 0.0936222 0)
(4.81695 0.0533592 0)
(4.58677 0.0349967 0)
(4.41365 0.0266706 0)
(4.27829 0.0225256 0)
(4.16891 0.0200964 0)
(4.07815 0.0184501 0)
(4.00125 0.0172207 0)
(3.93498 0.016254 0)
(3.87706 0.0154797 0)
(3.82579 0.0148705 0)
(3.77983 0.014424 0)
(3.73811 0.0141525 0)
(3.69972 0.0140792 0)
(3.66386 0.0142371 0)
(3.62979 0.0146703 0)
(3.59679 0.0154349 0)
(3.56413 0.0166029 0)
(3.53106 0.0182656 0)
(3.49673 0.0205396 0)
(3.4602 0.023578 0)
(3.42039 0.0275715 0)
(3.37596 0.0328175 0)
(3.32532 0.0395908 0)
(3.26634 0.0487509 0)
(3.19634 0.0603441 0)
(3.11115 0.0779468 0)
(3.00783 0.103747 0)
(7.56353 0.520464 0)
(8.22508 0.663993 0)
(8.46436 0.576855 0)
(8.36283 0.459496 0)
(8.12616 0.345576 0)
(7.84829 0.260847 0)
(7.57702 0.201351 0)
(7.33217 0.158714 0)
(7.11705 0.127786 0)
(6.92965 0.104885 0)
(6.76668 0.0875308 0)
(6.62468 0.0741515 0)
(6.50049 0.0637194 0)
(6.39136 0.0555384 0)
(6.29493 0.0491111 0)
(6.20922 0.0440772 0)
(6.1325 0.0401819 0)
(6.0633 0.0372525 0)
(6.00033 0.0351811 0)
(5.94244 0.0339126 0)
(5.88859 0.0334372 0)
(5.83781 0.0337875 0)
(5.78916 0.035039 0)
(5.7417 0.0373139 0)
(5.69446 0.040789 0)
(5.64641 0.0457103 0)
(5.59639 0.0524116 0)
(5.54309 0.0613653 0)
(5.48495 0.0731907 0)
(5.42005 0.0889575 0)
(5.34622 0.109869 0)
(5.25998 0.138986 0)
(5.1604 0.181227 0)
(7.43335 0.341246 0)
(7.88456 0.514948 0)
(8.24311 0.490385 0)
(8.44143 0.430914 0)
(8.54071 0.360035 0)
(8.5702 0.299808 0)
(8.55442 0.25408 0)
(8.51297 0.21899 0)
(8.45686 0.191542 0)
(8.3925 0.169489 0)
(8.32405 0.151258 0)
(8.25421 0.135906 0)
(8.18471 0.122826 0)
(8.11683 0.11161 0)
(8.0513 0.102001 0)
(7.98851 0.0938179 0)
(7.92861 0.0869296 0)
(7.87156 0.0812446 0)
(7.81722 0.0767097 0)
(7.76534 0.07331 0)
(7.7156 0.07107 0)
(7.66762 0.0700569 0)
(7.62093 0.0703868 0)
(7.57502 0.0722324 0)
(7.52932 0.0758371 0)
(7.48314 0.0815335 0)
(7.4357 0.0897695 0)
(7.38612 0.101162 0)
(7.33338 0.116537 0)
(7.27621 0.137134 0)
(7.21359 0.164601 0)
(7.14354 0.201664 0)
(7.0684 0.253143 0)
(7.39681 0.251217 0)
(7.67984 0.421584 0)
(7.92303 0.404874 0)
(8.07673 0.355274 0)
(8.18691 0.300958 0)
(8.26883 0.255729 0)
(8.32926 0.222272 0)
(8.37553 0.196927 0)
(8.41156 0.176959 0)
(8.43942 0.160733 0)
(8.46063 0.147168 0)
(8.47641 0.135618 0)
(8.4877 0.125694 0)
(8.49501 0.117133 0)
(8.49895 0.10975 0)
(8.50006 0.103423 0)
(8.49881 0.0980824 0)
(8.49556 0.0936967 0)
(8.49062 0.0902736 0)
(8.48421 0.0878571 0)
(8.47648 0.0865294 0)
(8.46755 0.0864155 0)
(8.45746 0.0876901 0)
(8.44619 0.0905881 0)
(8.4337 0.0954193 0)
(8.41987 0.102589 0)
(8.40457 0.112628 0)
(8.3876 0.126233 0)
(8.36881 0.144329 0)
(8.34805 0.168139 0)
(8.32558 0.199359 0)
(8.3016 0.240041 0)
(8.27952 0.293365 0)
(7.37401 0.180899 0)
(7.57398 0.336736 0)
(7.76046 0.34333 0)
(7.87461 0.314548 0)
(7.95044 0.275786 0)
(8.00538 0.238066 0)
(8.04635 0.207202 0)
(8.08001 0.182671 0)
(8.10979 0.163012 0)
(8.13686 0.147099 0)
(8.16177 0.133991 0)
(8.18482 0.123009 0)
(8.2062 0.113723 0)
(8.22616 0.105853 0)
(8.24478 0.0991841 0)
(8.26214 0.0935742 0)
(8.27832 0.0889424 0)
(8.29339 0.085254 0)
(8.30741 0.0825149 0)
(8.32047 0.080769 0)
(8.33266 0.0800998 0)
(8.34406 0.0806334 0)
(8.35478 0.0825452 0)
(8.36495 0.0860693 0)
(8.37473 0.0915112 0)
(8.38431 0.0992651 0)
(8.39398 0.109838 0)
(8.40409 0.123873 0)
(8.41521 0.142203 0)
(8.42817 0.165836 0)
(8.44423 0.196092 0)
(8.46557 0.234261 0)
(8.49505 0.28176 0)
(7.35904 0.133004 0)
(7.50317 0.273857 0)
(7.6553 0.296153 0)
(7.75496 0.279863 0)
(7.82062 0.250774 0)
(7.86705 0.219375 0)
(7.89985 0.192235 0)
(7.92477 0.17011 0)
(7.94552 0.152033 0)
(7.96371 0.137149 0)
(7.98021 0.124741 0)
(7.99554 0.114265 0)
(8.00998 0.105349 0)
(8.02369 0.0977391 0)
(8.03678 0.0912667 0)
(8.04932 0.0858214 0)
(8.06136 0.0813359 0)
(8.07294 0.0777789 0)
(8.08408 0.0751528 0)
(8.09485 0.0734935 0)
(8.10528 0.0728718 0)
(8.11545 0.0733965 0)
(8.12546 0.0752186 0)
(8.13544 0.0785384 0)
(8.14559 0.0836131 0)
(8.15616 0.0907675 0)
(8.16753 0.100406 0)
(8.18023 0.113022 0)
(8.19502 0.129208 0)
(8.21304 0.149629 0)
(8.23578 0.175001 0)
(8.26591 0.205884 0)
(8.3058 0.242172 0)
(7.34963 0.0993299 0)
(7.45329 0.221326 0)
(7.57609 0.25166 0)
(7.66445 0.245455 0)
(7.7258 0.226313 0)
(7.77097 0.202705 0)
(7.80377 0.180435 0)
(7.82849 0.161155 0)
(7.84853 0.144677 0)
(7.86557 0.130654 0)
(7.88055 0.118715 0)
(7.89411 0.108505 0)
(7.90662 0.0997527 0)
(7.91832 0.092261 0)
(7.92935 0.0858875 0)
(7.93983 0.0805293 0)
(7.94984 0.0761203 0)
(7.95945 0.0726287 0)
(7.96871 0.0700546 0)
(7.97768 0.0684287 0)
(7.98644 0.067813 0)
(7.99506 0.0683015 0)
(8.00364 0.0700237 0)
(8.01234 0.0731466 0)
(8.02134 0.0778795 0)
(8.03092 0.0844758 0)
(8.04144 0.0932346 0)
(8.05343 0.104494 0)
(8.06759 0.118616 0)
(8.08499 0.135936 0)
(8.10691 0.15667 0)
(8.13553 0.180784 0)
(8.17251 0.207393 0)
(7.3438 0.0753956 0)
(7.41907 0.179437 0)
(7.51763 0.214331 0)
(7.59465 0.215763 0)
(7.65071 0.203763 0)
(7.69363 0.185692 0)
(7.72612 0.16696 0)
(7.75126 0.149924 0)
(7.77187 0.134959 0)
(7.78949 0.121994 0)
(7.80496 0.110827 0)
(7.81891 0.101205 0)
(7.83171 0.0929099 0)
(7.84363 0.0857779 0)
(7.85482 0.0796861 0)
(7.86543 0.0745476 0)
(7.87556 0.0703085 0)
(7.88527 0.066944 0)
(7.89467 0.0644556 0)
(7.90381 0.0628705 0)
(7.91279 0.062241 0)
(7.92171 0.0626457 0)
(7.9307 0.0641897 0)
(7.93992 0.0670053 0)
(7.94959 0.0712515 0)
(7.96001 0.0771112 0)
(7.97155 0.0847829 0)
(7.98474 0.0944658 0)
(8.00024 0.106326 0)
(8.01901 0.120446 0)
(8.04212 0.136706 0)
(8.07125 0.154701 0)
(8.10746 0.173292 0)
(7.34016 0.0581725 0)
(7.3954 0.145823 0)
(7.4743 0.181838 0)
(7.54088 0.188275 0)
(7.59171 0.181647 0)
(7.63204 0.168457 0)
(7.66371 0.153382 0)
(7.68882 0.138898 0)
(7.70962 0.125695 0)
(7.72749 0.113916 0)
(7.74324 0.103543 0)
(7.75745 0.0944612 0)
(7.77051 0.0865404 0)
(7.78268 0.0796721 0)
(7.79413 0.0737696 0)
(7.80502 0.068768 0)
(7.81544 0.0646243 0)
(7.82549 0.0613167 0)
(7.83526 0.0588445 0)
(7.84484 0.0572275 0)
(7.85432 0.0565054 0)
(7.86382 0.0567379 0)
(7.8735 0.0580029 0)
(7.88354 0.0603951 0)
(7.89416 0.0640213 0)
(7.90568 0.0689939 0)
(7.91847 0.0754163 0)
(7.93304 0.0833627 0)
(7.95001 0.0928383 0)
(7.97018 0.103731 0)
(7.99443 0.115707 0)
(8.02402 0.128147 0)
(8.05955 0.139887 0)
(7.33787 0.0455398 0)
(7.37892 0.118795 0)
(7.44213 0.153901 0)
(7.4994 0.163726 0)
(7.54527 0.161231 0)
(7.58287 0.151981 0)
(7.61338 0.139927 0)
(7.63816 0.127539 0)
(7.65897 0.115781 0)
(7.677 0.105007 0)
(7.69298 0.0953437 0)
(7.70744 0.0867813 0)
(7.72076 0.0792525 0)
(7.73319 0.0726847 0)
(7.74491 0.0670126 0)
(7.75606 0.0621831 0)
(7.76678 0.0581587 0)
(7.77714 0.0549184 0)
(7.78726 0.052458 0)
(7.79723 0.0507886 0)
(7.80717 0.0499364 0)
(7.81721 0.0499405 0)
(7.82749 0.0508504 0)
(7.83822 0.0527226 0)
(7.84963 0.0556133 0)
(7.86202 0.0595687 0)
(7.87575 0.0646086 0)
(7.89128 0.070704 0)
(7.90915 0.0777384 0)
(7.93001 0.0854676 0)
(7.95453 0.093437 0)
(7.98361 0.100941 0)
(8.01754 0.106909 0)
(7.33642 0.0360924 0)
(7.36736 0.0970015 0)
(7.41811 0.129865 0)
(7.46716 0.141585 0)
(7.50834 0.141968 0)
(7.54321 0.135756 0)
(7.5724 0.126286 0)
(7.59673 0.115872 0)
(7.61749 0.105595 0)
(7.63565 0.0959195 0)
(7.65186 0.0870625 0)
(7.66658 0.0790908 0)
(7.68017 0.0719954 0)
(7.69287 0.0657432 0)
(7.70487 0.0602961 0)
(7.71632 0.0556184 0)
(7.72734 0.0516825 0)
(7.73804 0.0484705 0)
(7.74851 0.0459753 0)
(7.75888 0.0441998 0)
(7.76926 0.0431558 0)
(7.77978 0.042862 0)
(7.79061 0.0433406 0)
(7.80193 0.0446114 0)
(7.81399 0.0466848 0)
(7.82705 0.0495497 0)
(7.84145 0.0531574 0)
(7.85758 0.0573998 0)
(7.87588 0.0620768 0)
(7.89687 0.0668654 0)
(7.92101 0.0712616 0)
(7.94892 0.0745534 0)
(7.98063 0.075815 0)
(7.33548 0.0288766 0)
(7.35915 0.0793172 0)
(7.40007 0.109181 0)
(7.44201 0.121699 0)
(7.47885 0.124058 0)
(7.51105 0.120195 0)
(7.53881 0.112876 0)
(7.56252 0.104166 0)
(7.58309 0.0951798 0)
(7.60129 0.0864633 0)
(7.61767 0.0783102 0)
(7.63263 0.0708561 0)
(7.64649 0.064144 0)
(7.65948 0.0581747 0)
(7.67179 0.0529315 0)
(7.68355 0.0483913 0)
(7.6949 0.0445313 0)
(7.70594 0.0413333 0)
(7.71678 0.0387847 0)
(7.72753 0.0368785 0)
(7.73832 0.0356115 0)
(7.74929 0.0349822 0)
(7.76059 0.0349864 0)
(7.77241 0.0356113 0)
(7.78496 0.0368272 0)
(7.7985 0.0385762 0)
(7.81331 0.0407571 0)
(7.82972 0.0432071 0)
(7.84807 0.0456758 0)
(7.86873 0.0478044 0)
(7.89203 0.0490894 0)
(7.91832 0.0488641 0)
(7.94751 0.0463638 0)
(7.33485 0.0232464 0)
(7.35325 0.0648566 0)
(7.38646 0.0913579 0)
(7.42231 0.103836 0)
(7.4552 0.107388 0)
(7.48482 0.105209 0)
(7.51109 0.0995798 0)
(7.53407 0.0923062 0)
(7.55436 0.0844735 0)
(7.57254 0.076666 0)
(7.58905 0.0692175 0)
(7.60422 0.0623052 0)
(7.61834 0.0560064 0)
(7.63161 0.0503472 0)
(7.64422 0.0453276 0)
(7.65629 0.0409352 0)
(7.66795 0.0371525 0)
(7.67932 0.0339612 0)
(7.6905 0.0313444 0)
(7.70161 0.0292861 0)
(7.71276 0.0277699 0)
(7.72411 0.026776 0)
(7.73579 0.0262775 0)
(7.74798 0.0262339 0)
(7.76087 0.0265834 0)
(7.77468 0.027233 0)
(7.78966 0.0280453 0)
(7.80605 0.0288247 0)
(7.82411 0.0292984 0)
(7.8441 0.0291045 0)
(7.8662 0.0277697 0)
(7.8906 0.024702 0)
(7.91712 0.0192924 0)
(7.33443 0.0187597 0)
(7.34897 0.0529166 0)
(7.37614 0.0759472 0)
(7.40684 0.0877715 0)
(7.43618 0.0919022 0)
(7.4634 0.0908728 0)
(7.48816 0.0865463 0)
(7.51034 0.0804597 0)
(7.53027 0.0736205 0)
(7.54835 0.0666145 0)
(7.56492 0.059795 0)
(7.58026 0.0533672 0)
(7.5946 0.0474364 0)
(7.60813 0.0420499 0)
(7.62102 0.0372227 0)
(7.63338 0.0329511 0)
(7.64534 0.029221 0)
(7.65702 0.0260133 0)
(7.66851 0.0233057 0)
(7.67993 0.021073 0)
(7.6914 0.0192861 0)
(7.70304 0.017909 0)
(7.71501 0.0168953 0)
(7.72745 0.0161822 0)
(7.74053 0.0156838 0)
(7.75443 0.0152826 0)
(7.76935 0.0148196 0)
(7.78547 0.0140842 0)
(7.80298 0.0128021 0)
(7.82203 0.0106282 0)
(7.8427 0.00714493 0)
(7.86506 0.00184251 0)
(7.88888 -0.00574771 0)
(7.33413 0.0151106 0)
(7.34581 0.0429462 0)
(7.36826 0.0625549 0)
(7.39467 0.0732923 0)
(7.42087 0.0775085 0)
(7.44587 0.0771657 0)
(7.46918 0.0737698 0)
(7.49052 0.0686085 0)
(7.51002 0.0625894 0)
(7.52794 0.0562769 0)
(7.54454 0.0500264 0)
(7.56001 0.0440556 0)
(7.57455 0.0384853 0)
(7.58832 0.0333758 0)
(7.60146 0.0287506 0)
(7.61409 0.024611 0)
(7.62633 0.0209445 0)
(7.63827 0.0177295 0)
(7.65003 0.0149386 0)
(7.66172 0.0125385 0)
(7.67343 0.0104892 0)
(7.6853 0.00874157 0)
(7.69744 0.00723376 0)
(7.71 0.00588668 0)
(7.72312 0.00459823 0)
(7.73694 0.00323689 0)
(7.75161 0.00163456 0)
(7.76726 -0.000419867 0)
(7.78401 -0.003187 0)
(7.80193 -0.00697953 0)
(7.82104 -0.0121555 0)
(7.84131 -0.0191381 0)
(7.8625 -0.0282736 0)
(7.33392 0.0120833 0)
(7.34347 0.0345135 0)
(7.36223 0.0508345 0)
(7.38508 0.0601886 0)
(7.40854 0.0641028 0)
(7.43154 0.0640643 0)
(7.45348 0.0612782 0)
(7.47398 0.056807 0)
(7.49303 0.0514452 0)
(7.51076 0.0457158 0)
(7.52733 0.0399599 0)
(7.54289 0.0343947 0)
(7.5576 0.0291476 0)
(7.57157 0.024286 0)
(7.58494 0.0198391 0)
(7.59782 0.0158112 0)
(7.6103 0.0121899 0)
(7.62248 0.00895165 0)
(7.63447 0.00606407 0)
(7.64635 0.00348682 0)
(7.65825 0.00117091 0)
(7.67025 -0.000943137 0)
(7.68248 -0.00292819 0)
(7.69505 -0.00487412 0)
(7.70808 -0.00689204 0)
(7.72167 -0.00911894 0)
(7.73593 -0.0117221 0)
(7.75095 -0.0149026 0)
(7.7668 -0.0188973 0)
(7.78348 -0.0239778 0)
(7.80096 -0.0304461 0)
(7.81917 -0.0386396 0)
(7.83786 -0.0488034 0)
(7.33376 0.00952285 0)
(7.34171 0.0272798 0)
(7.3576 0.0404852 0)
(7.37754 0.0482623 0)
(7.39865 0.0515723 0)
(7.41986 0.0515207 0)
(7.44054 0.0490599 0)
(7.46024 0.0450554 0)
(7.47882 0.0401869 0)
(7.49634 0.034925 0)
(7.51286 0.0295867 0)
(7.52849 0.0243797 0)
(7.54333 0.0194302 0)
(7.55749 0.0148068 0)
(7.57106 0.0105398 0)
(7.58415 0.00663343 0)
(7.59684 0.00307351 0)
(7.60922 -0.000167013 0)
(7.62138 -0.00312545 0)
(7.63342 -0.00584843 0)
(7.64542 -0.00839214 0)
(7.65748 -0.0108237 0)
(7.6697 -0.013223 0)
(7.68218 -0.0156859 0)
(7.69499 -0.0183266 0)
(7.70823 -0.0212807 0)
(7.72196 -0.0247074 0)
(7.73624 -0.0287907 0)
(7.75108 -0.033739 0)
(7.76646 -0.039782 0)
(7.78232 -0.0471615 0)
(7.79854 -0.0561423 0)
(7.8149 -0.0668885 0)
(7.33365 0.00731539 0)
(7.34038 0.0209778 0)
(7.35404 0.0312472 0)
(7.37161 0.0373251 0)
(7.39074 0.0397973 0)
(7.41041 0.039471 0)
(7.42995 0.0370903 0)
(7.44891 0.033351 0)
(7.46705 0.0288228 0)
(7.48435 0.0239164 0)
(7.50081 0.0189162 0)
(7.51649 0.014012 0)
(7.53145 0.00932139 0)
(7.54576 0.00490877 0)
(7.55952 0.000801739 0)
(7.57279 -0.002998 0)
(7.58565 -0.00650736 0)
(7.59819 -0.00975698 0)
(7.61049 -0.0127885 0)
(7.62262 -0.0156532 0)
(7.63467 -0.0184125 0)
(7.64672 -0.0211377 0)
(7.65885 -0.0239126 0)
(7.67114 -0.0268341 0)
(7.68365 -0.0300145 0)
(7.69644 -0.0335826 0)
(7.70955 -0.0376842 0)
(7.723 -0.0424821 0)
(7.73679 -0.0481536 0)
(7.75087 -0.0548867 0)
(7.76515 -0.0628703 0)
(7.77951 -0.0723053 0)
(7.79374 -0.0832914 0)
(7.33356 0.00537501 0)
(7.33938 0.0153945 0)
(7.35131 0.0228956 0)
(7.36698 0.0272005 0)
(7.38447 0.0286547 0)
(7.40282 0.0278395 0)
(7.42139 0.0253294 0)
(7.43968 0.0216767 0)
(7.45743 0.0173491 0)
(7.47452 0.0126957 0)
(7.49092 0.00796312 0)
(7.50664 0.00331819 0)
(7.5217 -0.00113544 0)
(7.53615 -0.00534176 0)
(7.55006 -0.00927922 0)
(7.56348 -0.0129511 0)
(7.57648 -0.0163787 0)
(7.58914 -0.0195973 0)
(7.60152 -0.0226529 0)
(7.6137 -0.0256012 0)
(7.62573 -0.028507 0)
(7.6377 -0.0314446 0)
(7.64967 -0.0344983 0)
(7.66169 -0.0377632 0)
(7.67381 -0.0413462 0)
(7.68608 -0.0453659 0)
(7.69851 -0.0499523 0)
(7.7111 -0.0552452 0)
(7.72382 -0.0613913 0)
(7.73662 -0.0685402 0)
(7.7494 -0.0768344 0)
(7.76203 -0.0864216 0)
(7.77435 -0.0973528 0)
(7.33349 0.00363501 0)
(7.33862 0.0103575 0)
(7.34923 0.0152342 0)
(7.36342 0.0177209 0)
(7.37957 0.0180161 0)
(7.39684 0.0165337 0)
(7.41459 0.0137128 0)
(7.43233 0.00998431 0)
(7.44974 0.00572322 0)
(7.46667 0.0012167 0)
(7.48303 -0.00332955 0)
(7.49879 -0.00777645 0)
(7.51395 -0.0120387 0)
(7.52854 -0.0160727 0)
(7.54259 -0.0198656 0)
(7.55615 -0.0234276 0)
(7.56927 -0.0267855 0)
(7.58202 -0.0299789 0)
(7.59445 -0.0330578 0)
(7.60662 -0.0360807 0)
(7.61859 -0.0391141 0)
(7.63043 -0.0422325 0)
(7.64217 -0.0455184 0)
(7.65387 -0.0490621 0)
(7.66556 -0.0529624 0)
(7.67726 -0.0573253 0)
(7.68897 -0.0622632 0)
(7.70068 -0.0678929 0)
(7.71236 -0.0743319 0)
(7.72393 -0.0816954 0)
(7.7353 -0.0900867 0)
(7.74636 -0.0996095 0)
(7.75697 -0.110278 0)
(7.33344 0.00204203 0)
(7.33806 0.00572437 0)
(7.34767 0.0080906 0)
(7.36072 0.00872875 0)
(7.37584 0.00775394 0)
(7.39225 0.00546184 0)
(7.40936 0.00218106 0)
(7.42665 -0.00175462 0)
(7.4438 -0.0060524 0)
(7.46061 -0.0104848 0)
(7.47696 -0.0148887 0)
(7.49278 -0.0191555 0)
(7.50805 -0.0232219 0)
(7.52275 -0.0270604 0)
(7.53693 -0.0306702 0)
(7.5506 -0.0340706 0)
(7.56381 -0.0372957 0)
(7.57661 -0.040391 0)
(7.58905 -0.0434105 0)
(7.60117 -0.0464156 0)
(7.61303 -0.0494741 0)
(7.62468 -0.0526597 0)
(7.63615 -0.0560515 0)
(7.64748 -0.0597341 0)
(7.65869 -0.0637966 0)
(7.66978 -0.0683321 0)
(7.68077 -0.0734355 0)
(7.69161 -0.0792018 0)
(7.70227 -0.0857229 0)
(7.71269 -0.0930843 0)
(7.72277 -0.101358 0)
(7.73242 -0.110611 0)
(7.74153 -0.120835 0)
(7.33341 0.000551031 0)
(7.33766 0.00137267 0)
(7.34655 0.00130768 0)
(7.35877 6.7722e-05 0)
(7.37312 -0.00227414 0)
(7.38891 -0.00550638 0)
(7.40555 -0.00938575 0)
(7.42254 -0.0136626 0)
(7.43955 -0.0181176 0)
(7.45632 -0.0225804 0)
(7.47272 -0.0269307 0)
(7.48864 -0.0310923 0)
(7.50404 -0.035026 0)
(7.51889 -0.0387217 0)
(7.53319 -0.042192 0)
(7.54698 -0.0454662 0)
(7.56027 -0.0485859 0)
(7.57311 -0.0516018 0)
(7.58553 -0.0545716 0)
(7.59758 -0.0575586 0)
(7.6093 -0.0606304 0)
(7.62073 -0.0638584 0)
(7.6319 -0.0673173 0)
(7.64282 -0.0710844 0)
(7.65353 -0.0752386 0)
(7.66402 -0.0798595 0)
(7.67427 -0.0850255 0)
(7.68427 -0.0908118 0)
(7.69397 -0.0972875 0)
(7.70331 -0.104513 0)
(7.71222 -0.112535 0)
(7.72061 -0.121393 0)
(7.72838 -0.13106 0)
(7.33339 -0.000875901 0)
(7.33739 -0.00280433 0)
(7.3458 -0.00525743 0)
(7.35746 -0.0084074 0)
(7.37129 -0.0121942 0)
(7.38668 -0.0164625 0)
(7.40304 -0.0210307 0)
(7.41988 -0.0257206 0)
(7.43683 -0.0303773 0)
(7.45364 -0.0348844 0)
(7.47013 -0.0391659 0)
(7.48619 -0.0431807 0)
(7.50173 -0.0469177 0)
(7.51672 -0.0503886 0)
(7.53116 -0.0536231 0)
(7.54504 -0.0566636 0)
(7.5584 -0.0595614 0)
(7.57125 -0.0623744 0)
(7.58363 -0.0651649 0)
(7.59557 -0.0679983 0)
(7.60712 -0.0709423 0)
(7.61829 -0.0740658 0)
(7.62913 -0.0774388 0)
(7.63963 -0.0811312 0)
(7.64983 -0.085212 0)
(7.65971 -0.0897481 0)
(7.66925 -0.0948029 0)
(7.67845 -0.100434 0)
(7.68725 -0.106693 0)
(7.69561 -0.113618 0)
(7.70347 -0.121237 0)
(7.71075 -0.129571 0)
(7.71739 -0.138578 0)
(7.33337 -0.0022746 0)
(7.33723 -0.00690838 0)
(7.34538 -0.0117505 0)
(7.35673 -0.0168662 0)
(7.37032 -0.0221941 0)
(7.38554 -0.0276179 0)
(7.40184 -0.0330104 0)
(7.41871 -0.0382531 0)
(7.43578 -0.0432497 0)
(7.45276 -0.0479343 0)
(7.46946 -0.0522723 0)
(7.48573 -0.0562566 0)
(7.50149 -0.0599027 0)
(7.51668 -0.0632437 0)
(7.53128 -0.0663256 0)
(7.54528 -0.0692034 0)
(7.55871 -0.071938 0)
(7.57157 -0.0745942 0)
(7.5839 -0.0772384 0)
(7.59573 -0.0799381 0)
(7.60708 -0.0827605 0)
(7.61799 -0.085772 0)
(7.62848 -0.0890378 0)
(7.63856 -0.0926207 0)
(7.64824 -0.0965803 0)
(7.65752 -0.100972 0)
(7.66638 -0.105847 0)
(7.67482 -0.111248 0)
(7.68278 -0.117209 0)
(7.69024 -0.123755 0)
(7.69715 -0.130897 0)
(7.70344 -0.13864 0)
(7.70908 -0.146938 0)
(7.33337 -0.00368024 0)
(7.33719 -0.0110358 0)
(7.34526 -0.018302 0)
(7.35655 -0.0254364 0)
(7.37012 -0.0323593 0)
(7.3854 -0.0389756 0)
(7.40182 -0.0451985 0)
(7.41887 -0.0509625 0)
(7.43617 -0.0562282 0)
(7.45341 -0.0609837 0)
(7.47038 -0.0652419 0)
(7.48692 -0.0690367 0)
(7.50292 -0.0724171 0)
(7.51833 -0.0754433 0)
(7.5331 -0.0781827 0)
(7.54723 -0.0807064 0)
(7.56072 -0.0830873 0)
(7.57359 -0.0853982 0)
(7.58586 -0.0877106 0)
(7.59756 -0.090094 0)
(7.60872 -0.0926152 0)
(7.61936 -0.0953381 0)
(7.6295 -0.0983227 0)
(7.63915 -0.101625 0)
(7.64833 -0.105296 0)
(7.65704 -0.109382 0)
(7.66526 -0.11392 0)
(7.67299 -0.118943 0)
(7.6802 -0.124472 0)
(7.68686 -0.13052 0)
(7.69293 -0.137086 0)
(7.69838 -0.144167 0)
(7.70318 -0.151711 0)
(7.33337 -0.00512916 0)
(7.33725 -0.0152977 0)
(7.34546 -0.0250951 0)
(7.35696 -0.0343806 0)
(7.37082 -0.0430598 0)
(7.38646 -0.0510584 0)
(7.4033 -0.0583258 0)
(7.42081 -0.0648419 0)
(7.43857 -0.0706147 0)
(7.45628 -0.0756765 0)
(7.47369 -0.0800801 0)
(7.49063 -0.0838936 0)
(7.50698 -0.0871961 0)
(7.52268 -0.0900725 0)
(7.53768 -0.0926106 0)
(7.55196 -0.0948984 0)
(7.56554 -0.0970213 0)
(7.57842 -0.0990616 0)
(7.59063 -0.101097 0)
(7.60219 -0.103202 0)
(7.61314 -0.105443 0)
(7.62349 -0.107883 0)
(7.63328 -0.110578 0)
(7.64251 -0.11358 0)
(7.65119 -0.116932 0)
(7.65934 -0.120672 0)
(7.66695 -0.12483 0)
(7.67401 -0.129426 0)
(7.68051 -0.134475 0)
(7.68643 -0.139977 0)
(7.69175 -0.145927 0)
(7.69642 -0.152311 0)
(7.70046 -0.159078 0)
(7.33339 -0.00665952 0)
(7.33742 -0.0197893 0)
(7.34594 -0.0322268 0)
(7.35787 -0.0437109 0)
(7.37224 -0.0541155 0)
(7.38844 -0.0633786 0)
(7.40587 -0.0714903 0)
(7.42398 -0.0784906 0)
(7.44234 -0.0844547 0)
(7.46062 -0.0894789 0)
(7.47856 -0.0936724 0)
(7.49598 -0.0971515 0)
(7.51275 -0.100034 0)
(7.5288 -0.102435 0)
(7.54407 -0.104467 0)
(7.55856 -0.106234 0)
(7.57226 -0.107834 0)
(7.58518 -0.109357 0)
(7.59736 -0.110887 0)
(7.60881 -0.112497 0)
(7.61957 -0.114257 0)
(7.62966 -0.116224 0)
(7.63911 -0.118453 0)
(7.64794 -0.120987 0)
(7.65617 -0.123866 0)
(7.6638 -0.127118 0)
(7.67085 -0.130767 0)
(7.67731 -0.134825 0)
(7.68318 -0.139297 0)
(7.68845 -0.144182 0)
(7.69311 -0.149464 0)
(7.69715 -0.155129 0)
(7.70058 -0.161126 0)
(7.33342 -0.00832482 0)
(7.33775 -0.0246998 0)
(7.3469 -0.0400811 0)
(7.35967 -0.0541102 0)
(7.37501 -0.0666494 0)
(7.39224 -0.0776461 0)
(7.41071 -0.0871089 0)
(7.42983 -0.0951087 0)
(7.44912 -0.10176 0)
(7.46824 -0.1072 0)
(7.48692 -0.111584 0)
(7.50497 -0.115069 0)
(7.52227 -0.117813 0)
(7.53873 -0.119964 0)
(7.55432 -0.121664 0)
(7.56902 -0.123041 0)
(7.58284 -0.124213 0)
(7.59579 -0.125284 0)
(7.60791 -0.126348 0)
(7.61922 -0.127484 0)
(7.62977 -0.128764 0)
(7.63958 -0.130249 0)
(7.64868 -0.131989 0)
(7.6571 -0.134026 0)
(7.66487 -0.136394 0)
(7.67199 -0.139116 0)
(7.67849 -0.142209 0)
(7.68437 -0.145681 0)
(7.68963 -0.149532 0)
(7.69429 -0.153753 0)
(7.69833 -0.158327 0)
(7.70176 -0.163235 0)
(7.70458 -0.168427 0)
(7.33345 -0.0101697 0)
(7.33816 -0.0300698 0)
(7.34808 -0.0484811 0)
(7.36185 -0.0648883 0)
(7.3783 -0.0791479 0)
(7.3967 -0.0912676 0)
(7.41636 -0.101349 0)
(7.43664 -0.109568 0)
(7.45705 -0.116137 0)
(7.4772 -0.121275 0)
(7.49682 -0.1252 0)
(7.5157 -0.128118 0)
(7.5337 -0.130225 0)
(7.55074 -0.131698 0)
(7.56679 -0.132697 0)
(7.58183 -0.133366 0)
(7.59587 -0.133831 0)
(7.60894 -0.134205 0)
(7.62107 -0.134584 0)
(7.63231 -0.13505 0)
(7.6427 -0.135675 0)
(7.65227 -0.136516 0)
(7.66107 -0.137623 0)
(7.66913 -0.139033 0)
(7.67649 -0.140775 0)
(7.68315 -0.14287 0)
(7.68916 -0.145329 0)
(7.69452 -0.148155 0)
(7.69926 -0.151345 0)
(7.70339 -0.154888 0)
(7.70691 -0.158764 0)
(7.70984 -0.162954 0)
(7.71222 -0.167409 0)
(7.33353 -0.0123145 0)
(7.33898 -0.0364512 0)
(7.35037 -0.0587629 0)
(7.366 -0.0786166 0)
(7.38444 -0.0958299 0)
(7.40482 -0.110361 0)
(7.42635 -0.122288 0)
(7.44831 -0.13181 0)
(7.47019 -0.139195 0)
(7.49161 -0.144733 0)
(7.51229 -0.148717 0)
(7.53204 -0.15143 0)
(7.55075 -0.153131 0)
(7.56834 -0.154055 0)
(7.5848 -0.154409 0)
(7.60012 -0.154373 0)
(7.61432 -0.154099 0)
(7.62745 -0.153719 0)
(7.63955 -0.153342 0)
(7.65066 -0.153058 0)
(7.66084 -0.152942 0)
(7.67014 -0.153053 0)
(7.6786 -0.153437 0)
(7.68627 -0.15413 0)
(7.69319 -0.155156 0)
(7.69939 -0.156532 0)
(7.70489 -0.158265 0)
(7.70974 -0.160355 0)
(7.71395 -0.162793 0)
(7.71754 -0.165568 0)
(7.72054 -0.168656 0)
(7.72295 -0.172038 0)
(7.7248 -0.175665 0)
(7.33356 -0.0147665 0)
(7.33961 -0.0433437 0)
(7.35231 -0.0689965 0)
(7.36965 -0.0910012 0)
(7.39003 -0.109416 0)
(7.41251 -0.124463 0)
(7.4362 -0.136435 0)
(7.46028 -0.145695 0)
(7.48414 -0.152617 0)
(7.50736 -0.157557 0)
(7.52963 -0.160847 0)
(7.55075 -0.162799 0)
(7.57059 -0.163692 0)
(7.58909 -0.163774 0)
(7.60626 -0.163265 0)
(7.6221 -0.162356 0)
(7.63667 -0.16121 0)
(7.65001 -0.159964 0)
(7.66219 -0.158734 0)
(7.67328 -0.157615 0)
(7.68335 -0.156682 0)
(7.69245 -0.155997 0)
(7.70064 -0.155606 0)
(7.70799 -0.155542 0)
(7.71454 -0.15583 0)
(7.72033 -0.156482 0)
(7.72541 -0.157504 0)
(7.72982 -0.158894 0)
(7.73358 -0.160642 0)
(7.73672 -0.162734 0)
(7.7393 -0.165149 0)
(7.74132 -0.167866 0)
(7.74284 -0.170836 0)
(7.33382 -0.0179765 0)
(7.34184 -0.0532232 0)
(7.3579 -0.0852458 0)
(7.37899 -0.112929 0)
(7.40289 -0.136033 0)
(7.42853 -0.154577 0)
(7.45496 -0.168861 0)
(7.48136 -0.179407 0)
(7.50718 -0.186785 0)
(7.53205 -0.191547 0)
(7.5557 -0.194205 0)
(7.57795 -0.195218 0)
(7.59871 -0.194981 0)
(7.61796 -0.19383 0)
(7.63568 -0.192044 0)
(7.65192 -0.189856 0)
(7.66674 -0.187453 0)
(7.6802 -0.184988 0)
(7.69238 -0.182584 0)
(7.70337 -0.180337 0)
(7.71324 -0.17832 0)
(7.72206 -0.17659 0)
(7.72991 -0.175188 0)
(7.73685 -0.174143 0)
(7.74294 -0.173471 0)
(7.74824 -0.173182 0)
(7.75279 -0.173276 0)
(7.75665 -0.173749 0)
(7.75984 -0.174589 0)
(7.76243 -0.17578 0)
(7.76443 -0.1773 0)
(7.76588 -0.179127 0)
(7.76682 -0.181214 0)
(7.33371 -0.0214488 0)
(7.34217 -0.0617025 0)
(7.36017 -0.09588 0)
(7.38426 -0.123939 0)
(7.4119 -0.146782 0)
(7.44174 -0.164912 0)
(7.47239 -0.17879 0)
(7.50273 -0.188964 0)
(7.53206 -0.19596 0)
(7.55994 -0.200275 0)
(7.58609 -0.202383 0)
(7.61034 -0.202725 0)
(7.63264 -0.201698 0)
(7.65302 -0.199655 0)
(7.67154 -0.196898 0)
(7.68827 -0.193686 0)
(7.70333 -0.190232 0)
(7.71682 -0.186711 0)
(7.72887 -0.183264 0)
(7.73957 -0.179998 0)
(7.74905 -0.176999 0)
(7.75738 -0.174326 0)
(7.76467 -0.172024 0)
(7.771 -0.170122 0)
(7.77643 -0.168634 0)
(7.78104 -0.167568 0)
(7.78489 -0.166923 0)
(7.78802 -0.166692 0)
(7.7905 -0.166862 0)
(7.79237 -0.167417 0)
(7.79369 -0.168335 0)
(7.79449 -0.169596 0)
(7.79486 -0.171148 0)
(7.33483 -0.0278496 0)
(7.34959 -0.0825062 0)
(7.37537 -0.129962 0)
(7.40588 -0.16835 0)
(7.43833 -0.198001 0)
(7.47195 -0.219699 0)
(7.50563 -0.234683 0)
(7.53842 -0.244275 0)
(7.56974 -0.249612 0)
(7.59923 -0.251648 0)
(7.62662 -0.251187 0)
(7.65179 -0.24888 0)
(7.67473 -0.245252 0)
(7.69548 -0.240721 0)
(7.71415 -0.235622 0)
(7.73087 -0.230222 0)
(7.74576 -0.224728 0)
(7.75898 -0.219304 0)
(7.77068 -0.214075 0)
(7.78099 -0.209135 0)
(7.79004 -0.204554 0)
(7.79795 -0.200379 0)
(7.80482 -0.196642 0)
(7.81075 -0.193361 0)
(7.81582 -0.190544 0)
(7.8201 -0.188191 0)
(7.82367 -0.186298 0)
(7.82657 -0.184853 0)
(7.82888 -0.183846 0)
(7.83062 -0.183263 0)
(7.83187 -0.183087 0)
(7.83266 -0.183301 0)
(7.83306 -0.183853 0)
(7.3338 -0.0316685 0)
(7.34772 -0.0861202 0)
(7.37795 -0.128968 0)
(7.41607 -0.164319 0)
(7.45719 -0.193433 0)
(7.49902 -0.215976 0)
(7.53969 -0.232381 0)
(7.57818 -0.243406 0)
(7.61422 -0.249791 0)
(7.64771 -0.252328 0)
(7.67871 -0.251818 0)
(7.70734 -0.248995 0)
(7.73375 -0.244497 0)
(7.75809 -0.238866 0)
(7.7805 -0.232542 0)
(7.80113 -0.225876 0)
(7.82009 -0.21914 0)
(7.8375 -0.212538 0)
(7.85347 -0.206221 0)
(7.86811 -0.200297 0)
(7.88151 -0.194839 0)
(7.89377 -0.189891 0)
(7.90497 -0.185477 0)
(7.91518 -0.181606 0)
(7.92448 -0.178276 0)
(7.93293 -0.175474 0)
(7.9406 -0.173188 0)
(7.94753 -0.1714 0)
(7.95378 -0.170097 0)
(7.95941 -0.169265 0)
(7.96446 -0.168902 0)
(7.96902 -0.169001 0)
(7.97318 -0.169527 0)
(7.33893 -0.054229 0)
(7.37194 -0.151135 0)
(7.41469 -0.220092 0)
(7.45823 -0.266771 0)
(7.50468 -0.297344 0)
(7.55491 -0.315776 0)
(7.60741 -0.32577 0)
(7.66104 -0.330017 0)
(7.71491 -0.330221 0)
(7.768 -0.327547 0)
(7.8194 -0.322811 0)
(7.86845 -0.316597 0)
(7.91469 -0.309343 0)
(7.9578 -0.301392 0)
(7.99765 -0.293023 0)
(8.0342 -0.284469 0)
(8.06752 -0.275923 0)
(8.09773 -0.267544 0)
(8.12502 -0.25946 0)
(8.14957 -0.251769 0)
(8.17159 -0.244546 0)
(8.19128 -0.237839 0)
(8.20886 -0.23168 0)
(8.22449 -0.226083 0)
(8.23836 -0.221051 0)
(8.2506 -0.216577 0)
(8.26137 -0.21265 0)
(8.27077 -0.209259 0)
(8.2789 -0.206401 0)
(8.28586 -0.204073 0)
(8.29175 -0.202322 0)
(8.29663 -0.201144 0)
(8.30068 -0.200708 0)
(7.33755 -0.0402868 0)
(7.38848 -0.105409 0)
(7.47764 -0.16295 0)
(7.57913 -0.218503 0)
(7.68684 -0.265805 0)
(7.79564 -0.302514 0)
(7.89953 -0.32928 0)
(7.99503 -0.346803 0)
(8.08017 -0.356168 0)
(8.15388 -0.358846 0)
(8.21595 -0.356306 0)
(8.26679 -0.349867 0)
(8.30717 -0.340668 0)
(8.33807 -0.32965 0)
(8.36058 -0.317564 0)
(8.37578 -0.304994 0)
(8.38471 -0.292381 0)
(8.38832 -0.280051 0)
(8.38746 -0.268232 0)
(8.38286 -0.257078 0)
(8.37516 -0.246685 0)
(8.36491 -0.237102 0)
(8.35257 -0.228342 0)
(8.3385 -0.220394 0)
(8.32302 -0.213229 0)
(8.30638 -0.206802 0)
(8.28877 -0.201063 0)
(8.27034 -0.195961 0)
(8.2512 -0.191456 0)
(8.23137 -0.187517 0)
(8.21097 -0.184228 0)
(8.18973 -0.181537 0)
(8.16831 -0.180394 0)
(7.39944 -0.196737 0)
(7.5955 -0.375997 0)
(7.76807 -0.458879 0)
(7.895 -0.512731 0)
(7.9783 -0.541402 0)
(8.01606 -0.550738 0)
(8.01252 -0.54737 0)
(7.97604 -0.534657 0)
(7.91429 -0.515107 0)
(7.83385 -0.490988 0)
(7.74048 -0.464101 0)
(7.63893 -0.435842 0)
(7.53288 -0.407298 0)
(7.42516 -0.379278 0)
(7.31786 -0.352358 0)
(7.21246 -0.326921 0)
(7.10998 -0.303196 0)
(7.01107 -0.281298 0)
(6.9161 -0.261256 0)
(6.82524 -0.243038 0)
(6.73854 -0.226571 0)
(6.6559 -0.211753 0)
(6.57719 -0.198466 0)
(6.50223 -0.186584 0)
(6.43079 -0.175973 0)
(6.36266 -0.166499 0)
(6.29761 -0.15802 0)
(6.23537 -0.150401 0)
(6.17571 -0.143478 0)
(6.11823 -0.137104 0)
(6.06263 -0.131173 0)
(6.0079 -0.124901 0)
(5.95445 -0.121605 0)
(7.16013 -0.185881 0)
(6.91099 -0.345192 0)
(6.49989 -0.392551 0)
(6.03626 -0.394077 0)
(5.59616 -0.366032 0)
(5.17984 -0.322236 0)
(4.79135 -0.273604 0)
(4.43747 -0.225759 0)
(4.11875 -0.181684 0)
(3.83349 -0.14286 0)
(3.57967 -0.109687 0)
(3.35471 -0.0819741 0)
(3.15575 -0.0592402 0)
(2.97998 -0.0408636 0)
(2.82473 -0.0261918 0)
(2.68748 -0.0146084 0)
(2.56597 -0.00556273 0)
(2.45818 0.0014192 0)
(2.36227 0.00673579 0)
(2.27667 0.0107161 0)
(2.19999 0.0136293 0)
(2.131 0.0156941 0)
(2.06866 0.0170885 0)
(2.01207 0.017958 0)
(1.96044 0.0184271 0)
(1.91312 0.0186035 0)
(1.86954 0.0186061 0)
(1.82932 0.0185545 0)
(1.79196 0.0186687 0)
(1.75765 0.0192493 0)
(1.72548 0.0206262 0)
(1.6975 0.0253137 0)
(1.67169 0.0206089 0)
(0.775969 0.0868411 0)
(1.40019 0.64363 0)
(2.49835 1.17239 0)
(3.53427 1.45514 0)
(4.3807 1.42815 0)
(5.02243 1.13476 0)
(5.46904 0.664956 0)
(5.75926 0.103874 0)
(5.85886 -0.459371 0)
(5.76691 -0.936889 0)
(5.63448 -1.31569 0)
(5.68842 -1.6853 0)
(6.00126 -2.13137 0)