/*--------------------------------*- C++ -*----------------------------------*\
  =========                 |
  \\      /  F ield         | OpenFOAM: The Open Source CFD Toolbox
   \\    /   O peration     | Website:  https://openfoam.org
    \\  /    A nd           | Version:  10
     \\/     M anipulation  |
\*---------------------------------------------------------------------------*/
FoamFile
{
    format      ascii;
    class       volScalarField;
    location    "0.12";
    object      k;
}
// * * * * * * * * * * * * * * * * * * * * * * * * * * * * * * * * * * * * * //

dimensions      [0 2 -2 0 0 0 0];

internalField   nonuniform List<scalar> 
6820
(
0.196709
0.190616
0.184994
0.179725
0.174798
0.17025
0.166115
0.162408
0.159125
0.156248
0.153751
0.1516
0.149765
0.148213
0.146914
0.14584
0.144967
0.144271
0.143732
0.143332
0.143054
0.142884
0.142808
0.142814
0.142892
0.143035
0.143228
0.143489
0.143697
0.14438
0.143045
0.151329
0.114653
0.201954
0.200831
0.197543
0.193922
0.19084
0.188583
0.187152
0.186424
0.186252
0.186502
0.187069
0.187871
0.18885
0.189959
0.191165
0.192441
0.193768
0.19513
0.196512
0.197906
0.199302
0.200693
0.202075
0.203444
0.204798
0.206137
0.207466
0.208792
0.210131
0.211583
0.212949
0.215707
0.216235
0.200488
0.200475
0.199118
0.19707
0.194842
0.192691
0.190724
0.188985
0.187487
0.186229
0.185201
0.184388
0.18377
0.183327
0.18304
0.182891
0.182862
0.182938
0.183107
0.183354
0.18367
0.184045
0.184471
0.184941
0.185449
0.185989
0.186559
0.187159
0.18778
0.188458
0.189114
0.189922
0.190484
0.199661
0.199121
0.198219
0.196983
0.195545
0.194012
0.192458
0.190931
0.189463
0.188074
0.186776
0.185577
0.184479
0.183481
0.182582
0.181777
0.181061
0.180429
0.179875
0.179394
0.17898
0.178627
0.178331
0.178088
0.177893
0.177742
0.177633
0.177564
0.177532
0.177544
0.177589
0.177688
0.17782
0.199429
0.198466
0.197531
0.196513
0.195399
0.194214
0.192987
0.19174
0.190496
0.189268
0.18807
0.18691
0.185794
0.184728
0.183714
0.182754
0.181847
0.180994
0.180192
0.179441
0.178739
0.178084
0.177473
0.176905
0.176377
0.175887
0.175434
0.175017
0.174634
0.174285
0.173967
0.173682
0.173424
0.199398
0.198267
0.197202
0.196166
0.195133
0.194088
0.193029
0.191959
0.190885
0.189813
0.188751
0.187705
0.18668
0.185679
0.184706
0.183763
0.182852
0.181974
0.181129
0.180318
0.17954
0.178795
0.178083
0.177402
0.176752
0.176133
0.175542
0.174979
0.174444
0.173937
0.173455
0.172999
0.172567
0.199395
0.19822
0.197098
0.196021
0.194978
0.193957
0.192953
0.191959
0.190974
0.189998
0.189033
0.18808
0.187142
0.18622
0.185316
0.184432
0.18357
0.182729
0.181912
0.181118
0.180347
0.179601
0.178878
0.178179
0.177504
0.176851
0.176222
0.175615
0.17503
0.174466
0.173924
0.173403
0.172903
0.199395
0.198211
0.197069
0.195969
0.194908
0.193881
0.192884
0.191912
0.190962
0.19003
0.189116
0.188219
0.187338
0.186474
0.185627
0.184797
0.183985
0.183191
0.182415
0.181658
0.180919
0.1802
0.1795
0.178818
0.178156
0.177512
0.176886
0.176279
0.17569
0.175119
0.174566
0.174031
0.173512
0.199395
0.198209
0.197063
0.195955
0.194884
0.19385
0.192848
0.191877
0.190935
0.190018
0.189124
0.188252
0.187401
0.18657
0.185758
0.184964
0.184188
0.183429
0.182689
0.181965
0.181259
0.18057
0.179897
0.179241
0.178602
0.177979
0.177372
0.176782
0.176206
0.175647
0.175103
0.174575
0.174062
0.199395
0.198209
0.197061
0.195951
0.194877
0.193838
0.192833
0.19186
0.190917
0.190002
0.189114
0.188251
0.187412
0.186595
0.1858
0.185025
0.18427
0.183534
0.182816
0.182116
0.181433
0.180766
0.180117
0.179483
0.178865
0.178262
0.177675
0.177103
0.176545
0.176002
0.175473
0.174959
0.174458
0.199395
0.198209
0.197061
0.19595
0.194875
0.193834
0.192827
0.191852
0.190908
0.189992
0.189105
0.188244
0.187408
0.186597
0.185808
0.185042
0.184296
0.183571
0.182865
0.182178
0.181508
0.180856
0.180221
0.179603
0.179
0.178412
0.17784
0.177282
0.176739
0.17621
0.175694
0.175193
0.174704
0.199395
0.198209
0.19706
0.195949
0.194874
0.193833
0.192825
0.191849
0.190904
0.189987
0.189099
0.188238
0.187403
0.186593
0.185806
0.185042
0.184301
0.18358
0.182879
0.182198
0.181535
0.180891
0.180263
0.179653
0.179059
0.178481
0.177918
0.17737
0.176836
0.176316
0.175811
0.175318
0.174839
0.199395
0.198209
0.19706
0.195949
0.194873
0.193832
0.192824
0.191847
0.190901
0.189985
0.189096
0.188235
0.187399
0.186589
0.185803
0.18504
0.184299
0.183579
0.18288
0.182201
0.181541
0.1809
0.180277
0.17967
0.17908
0.178507
0.177949
0.177406
0.176878
0.176364
0.175864
0.175377
0.174904
0.199395
0.198209
0.19706
0.195949
0.194873
0.193831
0.192823
0.191846
0.1909
0.189983
0.189094
0.188232
0.187397
0.186586
0.1858
0.185036
0.184296
0.183576
0.182878
0.1822
0.181541
0.1809
0.180278
0.179673
0.179085
0.178514
0.177958
0.177417
0.176892
0.17638
0.175883
0.1754
0.174929
0.199395
0.198208
0.19706
0.195948
0.194872
0.193831
0.192822
0.191845
0.190899
0.189982
0.189093
0.188231
0.187395
0.186584
0.185797
0.185034
0.184293
0.183574
0.182875
0.182197
0.181538
0.180898
0.180276
0.179672
0.179084
0.178513
0.177958
0.177419
0.176894
0.176384
0.175888
0.175405
0.174936
0.199395
0.198208
0.19706
0.195948
0.194872
0.19383
0.192822
0.191845
0.190898
0.189981
0.189091
0.188229
0.187393
0.186582
0.185795
0.185032
0.184291
0.183571
0.182872
0.182194
0.181535
0.180895
0.180273
0.179669
0.179081
0.178511
0.177956
0.177416
0.176892
0.176382
0.175886
0.175404
0.174935
0.199395
0.198208
0.19706
0.195948
0.194872
0.19383
0.192821
0.191844
0.190897
0.18998
0.18909
0.188228
0.187392
0.186581
0.185793
0.18503
0.184288
0.183569
0.18287
0.182191
0.181532
0.180892
0.18027
0.179666
0.179078
0.178507
0.177952
0.177413
0.176888
0.176378
0.175882
0.1754
0.174931
0.199395
0.198208
0.19706
0.195948
0.194872
0.19383
0.192821
0.191843
0.190897
0.189979
0.189089
0.188227
0.18739
0.186579
0.185792
0.185028
0.184287
0.183567
0.182868
0.182189
0.18153
0.180889
0.180267
0.179663
0.179075
0.178504
0.177949
0.177409
0.176884
0.176374
0.175878
0.175395
0.174926
0.199395
0.198208
0.197059
0.195948
0.194871
0.193829
0.19282
0.191843
0.190896
0.189978
0.189089
0.188226
0.187389
0.186578
0.18579
0.185026
0.184285
0.183565
0.182866
0.182187
0.181528
0.180887
0.180265
0.17966
0.179072
0.178501
0.177945
0.177405
0.17688
0.17637
0.175873
0.17539
0.17492
0.199395
0.198208
0.197059
0.195948
0.194871
0.193829
0.19282
0.191843
0.190895
0.189978
0.189088
0.188225
0.187388
0.186577
0.185789
0.185025
0.184283
0.183563
0.182864
0.182185
0.181525
0.180885
0.180262
0.179657
0.179069
0.178497
0.177942
0.177402
0.176876
0.176365
0.175869
0.175385
0.174915
0.199395
0.198208
0.197059
0.195947
0.194871
0.193829
0.19282
0.191842
0.190895
0.189977
0.189087
0.188224
0.187387
0.186576
0.185788
0.185024
0.184282
0.183562
0.182862
0.182183
0.181523
0.180882
0.18026
0.179654
0.179066
0.178494
0.177939
0.177398
0.176873
0.176361
0.175864
0.175381
0.17491
0.199395
0.198208
0.197059
0.195947
0.194871
0.193829
0.19282
0.191842
0.190895
0.189976
0.189086
0.188224
0.187387
0.186575
0.185787
0.185023
0.18428
0.18356
0.182861
0.182181
0.181521
0.18088
0.180257
0.179652
0.179064
0.178492
0.177935
0.177395
0.176869
0.176358
0.17586
0.175376
0.174905
0.199395
0.198208
0.197059
0.195947
0.194871
0.193829
0.192819
0.191842
0.190894
0.189976
0.189086
0.188223
0.187386
0.186574
0.185786
0.185021
0.184279
0.183559
0.182859
0.18218
0.18152
0.180878
0.180255
0.17965
0.179061
0.178489
0.177932
0.177392
0.176865
0.176354
0.175856
0.175372
0.174901
0.199395
0.198208
0.197059
0.195947
0.194871
0.193829
0.192819
0.191841
0.190894
0.189976
0.189086
0.188222
0.187385
0.186573
0.185785
0.18502
0.184278
0.183558
0.182858
0.182178
0.181518
0.180876
0.180253
0.179647
0.179059
0.178486
0.17793
0.177388
0.176862
0.17635
0.175852
0.175368
0.174896
0.199395
0.198208
0.197059
0.195947
0.194871
0.193829
0.192819
0.191841
0.190894
0.189975
0.189085
0.188222
0.187385
0.186572
0.185784
0.18502
0.184277
0.183556
0.182857
0.182177
0.181516
0.180875
0.180251
0.179645
0.179056
0.178484
0.177927
0.177386
0.176859
0.176347
0.175848
0.175364
0.174892
0.199395
0.198208
0.197059
0.195947
0.194871
0.193828
0.192819
0.191841
0.190894
0.189975
0.189085
0.188222
0.187384
0.186572
0.185784
0.185019
0.184276
0.183555
0.182855
0.182175
0.181515
0.180873
0.18025
0.179643
0.179054
0.178481
0.177924
0.177383
0.176856
0.176344
0.175845
0.17536
0.174888
0.199395
0.198208
0.197059
0.195947
0.194871
0.193828
0.192819
0.191841
0.190893
0.189975
0.189084
0.188221
0.187384
0.186571
0.185783
0.185018
0.184276
0.183555
0.182854
0.182174
0.181514
0.180872
0.180248
0.179642
0.179052
0.178479
0.177922
0.17738
0.176853
0.17634
0.175842
0.175356
0.174884
0.199395
0.198208
0.197059
0.195947
0.194871
0.193828
0.192819
0.191841
0.190893
0.189975
0.189084
0.188221
0.187384
0.186571
0.185783
0.185018
0.184275
0.183554
0.182854
0.182173
0.181513
0.180871
0.180247
0.17964
0.179051
0.178477
0.17792
0.177378
0.176851
0.176338
0.175839
0.175353
0.17488
0.199395
0.198208
0.197059
0.195947
0.194871
0.193828
0.192819
0.191841
0.190893
0.189975
0.189084
0.188221
0.187383
0.186571
0.185782
0.185017
0.184274
0.183553
0.182853
0.182173
0.181512
0.180869
0.180245
0.179639
0.179049
0.178476
0.177918
0.177376
0.176848
0.176335
0.175836
0.17535
0.174877
0.199395
0.198208
0.197059
0.195947
0.194871
0.193828
0.192819
0.191841
0.190893
0.189975
0.189085
0.188221
0.187384
0.186571
0.185783
0.185017
0.184275
0.183553
0.182853
0.182172
0.181511
0.180869
0.180245
0.179638
0.179048
0.178475
0.177917
0.177375
0.176847
0.176333
0.175834
0.175348
0.174875
0.199395
0.198208
0.197059
0.195947
0.194871
0.193828
0.192819
0.191841
0.190893
0.189975
0.189084
0.188221
0.187383
0.186571
0.185782
0.185017
0.184274
0.183553
0.182852
0.182172
0.181511
0.180869
0.180244
0.179638
0.179048
0.178474
0.177916
0.177373
0.176846
0.176332
0.175832
0.175346
0.174873
0.199395
0.198208
0.197059
0.195948
0.194871
0.193829
0.19282
0.191843
0.190895
0.189977
0.189087
0.188223
0.187386
0.186573
0.185785
0.18502
0.184277
0.183555
0.182855
0.182174
0.181513
0.18087
0.180246
0.179639
0.179049
0.178475
0.177917
0.177374
0.176846
0.176332
0.175832
0.175345
0.174872
0.199395
0.198209
0.19706
0.195949
0.194872
0.19383
0.192821
0.191843
0.190896
0.189977
0.189087
0.188224
0.187387
0.186574
0.185786
0.185021
0.184278
0.183557
0.182856
0.182176
0.181515
0.180872
0.180247
0.17964
0.17905
0.178476
0.177917
0.177374
0.176845
0.176331
0.17583
0.175343
0.174868
0.199395
0.198208
0.19706
0.19595
0.194875
0.193835
0.192827
0.191851
0.190904
0.189987
0.189097
0.188234
0.187397
0.186584
0.185796
0.18503
0.184287
0.183565
0.182864
0.182182
0.18152
0.180876
0.18025
0.179642
0.17905
0.178474
0.177913
0.177368
0.176837
0.17632
0.175817
0.175327
0.17485
0.199396
0.198212
0.197066
0.195957
0.194883
0.193842
0.192834
0.191857
0.190911
0.189993
0.189104
0.188241
0.187403
0.18659
0.185801
0.185034
0.184289
0.183565
0.182861
0.182176
0.18151
0.180863
0.180232
0.179619
0.179021
0.17844
0.177873
0.177321
0.176784
0.17626
0.175749
0.175251
0.174766
0.199396
0.198213
0.197071
0.195969
0.194902
0.193869
0.192866
0.191892
0.190947
0.190029
0.189137
0.188269
0.187426
0.186606
0.185808
0.185031
0.184275
0.183539
0.182822
0.182124
0.181443
0.18078
0.180134
0.179504
0.17889
0.178291
0.177707
0.177137
0.176581
0.176038
0.175509
0.174992
0.174488
0.199402
0.198241
0.197115
0.196019
0.194953
0.193917
0.192909
0.191928
0.190972
0.19004
0.189131
0.188244
0.187379
0.186535
0.18571
0.184906
0.184121
0.183354
0.182606
0.181876
0.181163
0.180466
0.179786
0.179122
0.178474
0.177841
0.177222
0.176618
0.176027
0.17545
0.174887
0.174336
0.173797
0.199421
0.198284
0.197214
0.196182
0.195157
0.194135
0.193117
0.192109
0.191115
0.190139
0.189185
0.188253
0.187344
0.186458
0.185595
0.184755
0.183936
0.183138
0.18236
0.181602
0.180862
0.180141
0.179437
0.178749
0.178078
0.177423
0.176782
0.176157
0.175546
0.174949
0.174366
0.173796
0.173239
0.199655
0.198885
0.198078
0.197303
0.196604
0.195977
0.195406
0.194883
0.1944
0.193956
0.193547
0.193174
0.192836
0.192531
0.192258
0.192016
0.191804
0.191619
0.191462
0.191329
0.191219
0.191132
0.191065
0.191017
0.190988
0.190975
0.190979
0.190997
0.191029
0.191074
0.191131
0.1912
0.19128
0.205419
0.216602
0.227661
0.238503
0.249093
0.259416
0.269459
0.279212
0.288667
0.297817
0.306658
0.315187
0.323405
0.331311
0.338909
0.346201
0.353193
0.359891
0.3663
0.372429
0.378283
0.383873
0.389205
0.394288
0.399132
0.403744
0.408134
0.412309
0.416279
0.420052
0.423636
0.427039
0.430272
0.318178
0.626021
0.943489
1.23563
1.48063
1.66697
1.79471
1.87267
1.91318
1.92856
1.92876
1.9207
1.90862
1.89485
1.8806
1.86651
1.85305
1.84064
1.82969
1.82054
1.81339
1.80831
1.80525
1.804
1.80427
1.8057
1.80787
1.81033
1.81263
1.81433
1.815
1.81428
1.81183
1.8074
1.80076
1.79176
1.78026
1.76617
1.74938
1.72981
1.70732
1.68174
1.65284
1.62034
1.58384
1.54292
1.49706
1.44572
1.38833
1.3244
1.25351
1.17541
1.09013
0.998069
0.900147
0.797949
0.693875
0.591239
0.494196
0.407326
0.334733
0.278799
0.239308
0.213733
0.198522
0.19036
0.186725
0.185876
0.186666
0.188347
0.190443
0.192654
0.194807
0.196808
0.198619
0.200239
0.201692
0.203014
0.20425
0.205443
0.206636
0.207863
0.209146
0.210496
0.211909
0.213369
0.214848
0.21631
0.217718
0.219032
0.220218
0.221248
0.222102
0.222767
0.223243
0.22353
0.22364
0.223568
0.223405
0.222723
0.228233
0.255558
0.298065
0.356998
0.432916
0.524913
0.630006
0.743367
0.858871
0.970206
1.07188
1.16001
1.23272
1.29002
1.33335
1.36497
1.38737
1.40289
1.41345
1.42051
1.42513
1.42804
1.42978
1.43068
1.431
1.43085
1.43026
1.42919
1.42753
1.42511
1.42175
1.41726
1.41147
1.40421
1.39537
1.38485
1.37257
1.35846
1.34246
1.32448
1.30441
1.28209
1.2573
1.22977
1.19913
1.16498
1.12686
1.08429
1.0368
0.984023
0.925709
0.861843
0.792729
0.719108
0.642265
0.564126
0.487287
0.414881
0.350206
0.296057
0.25394
0.223626
0.203423
0.190984
0.184064
0.180881
0.180134
0.180911
0.182577
0.184696
0.186978
0.189237
0.191359
0.193287
0.195001
0.196508
0.197835
0.199016
0.200096
0.201117
0.202122
0.203146
0.204219
0.205355
0.206559
0.207823
0.209126
0.210441
0.211734
0.212968
0.214109
0.215129
0.216005
0.216722
0.217272
0.217655
0.217876
0.217928
0.217885
0.217408
0.191202
0.193258
0.197662
0.205013
0.215673
0.230124
0.249016
0.273267
0.303835
0.341392
0.386082
0.437262
0.493515
0.552788
0.612666
0.670708
0.724788
0.773345
0.815501
0.851029
0.880219
0.903691
0.922218
0.936589
0.947522
0.955618
0.961352
0.965084
0.967072
0.967494
0.96647
0.964077
0.960369
0.955381
0.949142
0.941674
0.932993
0.923101
0.911981
0.899588
0.88584
0.870608
0.853706
0.834893
0.81387
0.790293
0.763791
0.733999
0.7006
0.663381
0.622305
0.577577
0.529732
0.4797
0.428847
0.378942
0.332022
0.290105
0.254789
0.226877
0.206231
0.191967
0.182836
0.177587
0.175144
0.174658
0.175479
0.177121
0.179224
0.181527
0.183849
0.186068
0.18811
0.189938
0.191543
0.192934
0.194137
0.195187
0.196122
0.196985
0.197817
0.198653
0.199525
0.200453
0.201449
0.20251
0.203626
0.204775
0.205928
0.207055
0.208122
0.209101
0.209967
0.210703
0.211299
0.211749
0.212055
0.212207
0.212263
0.211965
0.177939
0.17811
0.178479
0.179208
0.180446
0.182324
0.184969
0.188538
0.193238
0.199324
0.207053
0.216747
0.228725
0.243248
0.260455
0.280296
0.302494
0.326539
0.351734
0.377272
0.402333
0.426171
0.448184
0.467955
0.485246
0.499986
0.512232
0.522127
0.529865
0.535661
0.539728
0.542269
0.543468
0.543489
0.542472
0.540537
0.537776
0.534258
0.530017
0.525054
0.519331
0.512768
0.505238
0.496571
0.486558
0.47496
0.461529
0.446037
0.428311
0.408281
0.386026
0.361822
0.336175
0.30983
0.283733
0.25894
0.236465
0.21711
0.201329
0.189185
0.18042
0.174584
0.171153
0.169616
0.169508
0.170432
0.172056
0.17411
0.176382
0.178712
0.180981
0.183106
0.185037
0.186749
0.188237
0.189512
0.190597
0.191523
0.192326
0.193046
0.193719
0.194383
0.195068
0.195799
0.196591
0.19745
0.198372
0.199341
0.200337
0.201332
0.202298
0.203206
0.204032
0.204758
0.205369
0.205856
0.206219
0.206445
0.206578
0.206428
0.173126
0.17279
0.172491
0.172266
0.172145
0.172156
0.172327
0.172685
0.173263
0.174095
0.175218
0.176683
0.178549
0.180885
0.183762
0.187245
0.191386
0.196214
0.201724
0.207872
0.21457
0.221687
0.229059
0.2365
0.243819
0.250835
0.257392
0.263367
0.268679
0.273282
0.27717
0.280364
0.282909
0.284867
0.286303
0.287288
0.287882
0.288136
0.288083
0.287736
0.287085
0.286093
0.284698
0.282809
0.280315
0.277086
0.272986
0.267894
0.261717
0.254423
0.246059
0.236772
0.226819
0.216549
0.206383
0.196755
0.188061
0.180604
0.17457
0.170019
0.166907
0.165113
0.164468
0.164774
0.165829
0.167436
0.169416
0.171614
0.173896
0.176158
0.178318
0.180318
0.18212
0.183707
0.185075
0.186234
0.187206
0.188017
0.1887
0.189289
0.18982
0.190327
0.190841
0.191389
0.191988
0.19265
0.193376
0.194159
0.194984
0.195829
0.19667
0.197481
0.198239
0.198923
0.199519
0.200016
0.200407
0.200681
0.200867
0.200832
0.172084
0.17154
0.171006
0.17049
0.169997
0.169539
0.169128
0.168772
0.168481
0.16826
0.168115
0.168053
0.168083
0.168213
0.168457
0.168827
0.169334
0.169988
0.170796
0.171759
0.172873
0.174124
0.175495
0.17696
0.178488
0.180044
0.181591
0.183094
0.184521
0.185847
0.187053
0.188129
0.189072
0.189887
0.190583
0.191175
0.191677
0.192102
0.192461
0.192758
0.192989
0.193143
0.193197
0.193117
0.192859
0.19237
0.191591
0.190463
0.188937
0.186983
0.184598
0.181819
0.178726
0.175437
0.172107
0.168906
0.166005
0.163554
0.161669
0.160423
0.159841
0.159905
0.16056
0.161727
0.163304
0.165188
0.167272
0.169458
0.171659
0.1738
0.175822
0.17768
0.179346
0.180803
0.182051
0.183098
0.183961
0.184665
0.185237
0.185708
0.186112
0.186479
0.186838
0.187217
0.187636
0.18811
0.188645
0.189241
0.189887
0.190569
0.191267
0.191959
0.192622
0.193239
0.193792
0.194268
0.19466
0.194953
0.195168
0.195214
0.172341
0.171709
0.171081
0.170458
0.169844
0.16924
0.168651
0.16808
0.167531
0.167006
0.166509
0.166041
0.165606
0.165204
0.164839
0.164512
0.164226
0.163982
0.163784
0.16363
0.163522
0.163459
0.163437
0.163452
0.163499
0.163572
0.163662
0.163763
0.163866
0.163965
0.164054
0.164129
0.164187
0.164227
0.16425
0.164257
0.164253
0.164238
0.164217
0.16419
0.164158
0.164117
0.164061
0.163982
0.163867
0.1637
0.163461
0.16313
0.162689
0.162124
0.161429
0.160614
0.159703
0.158738
0.157779
0.156896
0.156168
0.15567
0.155466
0.155603
0.156105
0.156973
0.158183
0.159695
0.161452
0.163389
0.165437
0.167529
0.1696
0.171594
0.173464
0.175175
0.176702
0.178031
0.179161
0.180099
0.180859
0.181462
0.181933
0.182298
0.182587
0.182828
0.183049
0.183276
0.18353
0.183829
0.184182
0.184593
0.185059
0.185571
0.186113
0.186668
0.187216
0.18774
0.188223
0.188652
0.189017
0.189303
0.189523
0.189613
0.172928
0.172269
0.17161
0.170951
0.170295
0.169641
0.168992
0.16835
0.167717
0.167094
0.166483
0.165885
0.165302
0.164734
0.164183
0.163649
0.163134
0.162637
0.16216
0.161703
0.161266
0.160849
0.160453
0.160075
0.159716
0.159374
0.159047
0.158734
0.158432
0.15814
0.157856
0.157578
0.157305
0.157035
0.156768
0.156504
0.156243
0.155985
0.155731
0.155481
0.155235
0.154993
0.154754
0.154518
0.154283
0.154045
0.153803
0.153552
0.153291
0.153019
0.152739
0.152459
0.152193
0.151961
0.151792
0.151722
0.151788
0.152027
0.152473
0.15315
0.154072
0.155236
0.15663
0.158224
0.15998
0.161854
0.163795
0.16575
0.167669
0.169507
0.171224
0.172789
0.17418
0.175385
0.176402
0.177235
0.177898
0.178407
0.178784
0.179053
0.179239
0.179368
0.179466
0.179557
0.179662
0.1798
0.179983
0.180218
0.180508
0.180847
0.181226
0.181632
0.182048
0.182459
0.182849
0.183206
0.183519
0.183771
0.183971
0.18407
0.173482
0.172825
0.172167
0.171508
0.170847
0.170186
0.169525
0.168867
0.168211
0.16756
0.166914
0.166275
0.165644
0.165022
0.16441
0.163807
0.163216
0.162636
0.162068
0.161511
0.160967
0.160436
0.159917
0.159411
0.158918
0.158437
0.157969
0.157512
0.157067
0.156632
0.156208
0.155793
0.155386
0.154987
0.154595
0.15421
0.15383
0.153456
0.153088
0.152725
0.152368
0.152017
0.151674
0.15134
0.151016
0.150705
0.150409
0.150132
0.149879
0.149654
0.149466
0.149325
0.149243
0.149235
0.149319
0.149517
0.14985
0.150338
0.150999
0.151845
0.152881
0.154104
0.1555
0.157048
0.158718
0.160473
0.162273
0.164076
0.165837
0.167519
0.169086
0.17051
0.171772
0.172859
0.173768
0.174503
0.175074
0.175495
0.175786
0.175967
0.176061
0.176091
0.17608
0.17605
0.176022
0.176015
0.176042
0.176113
0.176234
0.176404
0.176618
0.176868
0.17714
0.177422
0.177702
0.177965
0.178202
0.178397
0.178555
0.178627
0.17389
0.173248
0.172603
0.171955
0.171304
0.170652
0.169998
0.169345
0.168692
0.168041
0.167393
0.166749
0.166109
0.165475
0.164847
0.164227
0.163613
0.163008
0.16241
0.161822
0.161242
0.160672
0.160111
0.159559
0.159018
0.158486
0.157964
0.157452
0.156949
0.156457
0.155973
0.155499
0.155033
0.154575
0.154124
0.15368
0.153242
0.15281
0.152384
0.151963
0.151549
0.151142
0.150743
0.150355
0.149981
0.149623
0.149288
0.14898
0.148707
0.148476
0.148296
0.148178
0.148135
0.148179
0.148325
0.148588
0.148982
0.14952
0.150213
0.151068
0.152084
0.153258
0.154577
0.156021
0.157567
0.159182
0.160831
0.162478
0.164085
0.165616
0.167041
0.168332
0.169471
0.170447
0.171255
0.171897
0.172382
0.172722
0.172934
0.173035
0.173046
0.172988
0.17288
0.172744
0.172599
0.172463
0.172349
0.17227
0.172234
0.172242
0.172295
0.172387
0.172509
0.172653
0.172807
0.17296
0.173101
0.173217
0.173312
0.173323
0.174151
0.173523
0.172893
0.172259
0.171623
0.170985
0.170345
0.169703
0.169062
0.168421
0.167781
0.167144
0.16651
0.16588
0.165254
0.164634
0.164019
0.16341
0.162807
0.162212
0.161623
0.161041
0.160467
0.159901
0.159343
0.158792
0.15825
0.157716
0.15719
0.156672
0.156162
0.15566
0.155166
0.154678
0.154197
0.153723
0.153254
0.15279
0.152332
0.15188
0.151434
0.150995
0.150566
0.150147
0.149743
0.149358
0.148997
0.148665
0.14837
0.148121
0.147927
0.147798
0.147746
0.147783
0.147921
0.148173
0.148549
0.149059
0.149711
0.150509
0.151452
0.152534
0.153744
0.155066
0.156475
0.157946
0.159446
0.160943
0.162402
0.163791
0.165081
0.166247
0.167272
0.168144
0.168857
0.169414
0.169819
0.170084
0.170223
0.170252
0.170189
0.170051
0.169859
0.16963
0.169382
0.169131
0.168893
0.168679
0.168498
0.168357
0.168255
0.168193
0.168166
0.168166
0.168185
0.168215
0.168246
0.168264
0.16828
0.168198
0.174296
0.17368
0.173062
0.172441
0.171818
0.171192
0.170564
0.169935
0.169306
0.168676
0.168047
0.16742
0.166796
0.166174
0.165555
0.164941
0.164331
0.163726
0.163126
0.162532
0.161944
0.161362
0.160786
0.160216
0.159653
0.159097
0.158548
0.158005
0.157469
0.15694
0.156418
0.155903
0.155393
0.15489
0.154393
0.153901
0.153415
0.152933
0.152457
0.151986
0.151521
0.151063
0.150615
0.150178
0.149756
0.149353
0.148973
0.148623
0.148311
0.148043
0.147829
0.147679
0.147604
0.147614
0.147721
0.147934
0.148265
0.14872
0.149305
0.150024
0.150876
0.151854
0.152948
0.154143
0.155418
0.156749
0.158107
0.159461
0.160782
0.162037
0.163202
0.164252
0.16517
0.165945
0.166571
0.167047
0.167379
0.167575
0.167647
0.167611
0.167481
0.167273
0.167006
0.166695
0.166357
0.166008
0.16566
0.165326
0.165017
0.164738
0.164494
0.164286
0.164112
0.163969
0.16385
0.163749
0.163659
0.163566
0.163489
0.163287
0.174367
0.173759
0.173149
0.172537
0.171922
0.171305
0.170687
0.170068
0.169447
0.168827
0.168207
0.167589
0.166972
0.166357
0.165746
0.165138
0.164534
0.163934
0.163338
0.162748
0.162162
0.161582
0.161007
0.160438
0.159874
0.159316
0.158764
0.158218
0.157678
0.157144
0.156615
0.156093
0.155575
0.155064
0.154557
0.154055
0.153557
0.153065
0.152577
0.152095
0.151618
0.151149
0.150689
0.15024
0.149806
0.14939
0.148998
0.148634
0.148306
0.148022
0.147789
0.147616
0.147515
0.147493
0.147562
0.147731
0.148008
0.148401
0.148915
0.149551
0.150309
0.151183
0.152164
0.153238
0.154386
0.155584
0.156809
0.15803
0.159221
0.160353
0.1614
0.162342
0.163161
0.163846
0.16439
0.164792
0.165056
0.165189
0.165201
0.165105
0.164915
0.164646
0.164313
0.163931
0.163515
0.163079
0.162636
0.162198
0.161775
0.161374
0.161
0.160657
0.160345
0.160064
0.159809
0.159575
0.159359
0.159146
0.158966
0.158623
0.174396
0.173792
0.173187
0.172579
0.17197
0.171359
0.170746
0.170132
0.169518
0.168904
0.16829
0.167677
0.167065
0.166456
0.165849
0.165245
0.164644
0.164048
0.163455
0.162867
0.162283
0.161704
0.16113
0.160561
0.159997
0.159438
0.158884
0.158336
0.157793
0.157256
0.156723
0.156196
0.155673
0.155156
0.154643
0.154134
0.15363
0.15313
0.152635
0.152145
0.151661
0.151185
0.150717
0.150261
0.149818
0.149394
0.148992
0.148618
0.148278
0.147978
0.147728
0.147535
0.147407
0.147355
0.147387
0.147511
0.147736
0.148068
0.148511
0.149067
0.149736
0.150512
0.151386
0.152346
0.153374
0.154451
0.155551
0.156649
0.157719
0.158736
0.159674
0.160515
0.161242
0.161843
0.162311
0.162644
0.162845
0.16292
0.162877
0.162728
0.162484
0.16216
0.161769
0.161326
0.160842
0.160332
0.159808
0.15928
0.158757
0.158249
0.15776
0.157296
0.156857
0.156446
0.15606
0.155697
0.155354
0.155018
0.154729
0.154231
0.174404
0.173802
0.173199
0.172593
0.171986
0.171378
0.170768
0.170157
0.169546
0.168935
0.168324
0.167713
0.167104
0.166497
0.165892
0.16529
0.164691
0.164095
0.163503
0.162914
0.16233
0.161751
0.161176
0.160605
0.16004
0.159479
0.158923
0.158373
0.157827
0.157286
0.15675
0.156218
0.155691
0.155169
0.154651
0.154138
0.153629
0.153124
0.152624
0.152129
0.15164
0.151158
0.150686
0.150224
0.149776
0.149346
0.148937
0.148554
0.148204
0.147892
0.147626
0.147413
0.147262
0.147181
0.147178
0.147261
0.147437
0.147711
0.148088
0.14857
0.149155
0.149839
0.150614
0.151469
0.152386
0.153349
0.154333
0.155317
0.156275
0.157184
0.158021
0.158768
0.159408
0.159931
0.160328
0.160598
0.160741
0.160762
0.160669
0.160472
0.160181
0.159808
0.159367
0.15887
0.158328
0.157755
0.157161
0.156555
0.155948
0.155347
0.154758
0.154187
0.153635
0.153105
0.152598
0.152112
0.151647
0.151189
0.150792
0.150129
0.174403
0.173802
0.173199
0.172594
0.171988
0.17138
0.170771
0.170161
0.169551
0.16894
0.16833
0.16772
0.167112
0.166505
0.1659
0.165297
0.164697
0.1641
0.163506
0.162916
0.16233
0.161748
0.16117
0.160597
0.160028
0.159464
0.158905
0.158351
0.157801
0.157256
0.156715
0.15618
0.155649
0.155122
0.1546
0.154082
0.153569
0.15306
0.152555
0.152057
0.151564
0.151079
0.150602
0.150137
0.149685
0.14925
0.148835
0.148446
0.148087
0.147764
0.147484
0.147255
0.147082
0.146974
0.146939
0.146983
0.147113
0.147334
0.14765
0.148062
0.14857
0.149169
0.149853
0.150609
0.151424
0.15228
0.153158
0.154035
0.154888
0.155697
0.156439
0.157098
0.157657
0.158106
0.158437
0.158647
0.158736
0.158708
0.15857
0.158329
0.157996
0.157581
0.157096
0.156553
0.155962
0.155335
0.154682
0.154011
0.153333
0.152653
0.151978
0.151314
0.150663
0.150028
0.149412
0.148813
0.148233
0.147658
0.147157
0.146329
0.174399
0.173797
0.173194
0.172589
0.171982
0.171375
0.170766
0.170156
0.169545
0.168934
0.168323
0.167713
0.167103
0.166495
0.165888
0.165283
0.164681
0.164081
0.163485
0.162892
0.162302
0.161716
0.161135
0.160557
0.159984
0.159416
0.158852
0.158292
0.157738
0.157188
0.156643
0.156102
0.155566
0.155035
0.154508
0.153986
0.153468
0.152955
0.152447
0.151945
0.151449
0.150961
0.150481
0.150013
0.149557
0.149118
0.148699
0.148304
0.147937
0.147605
0.147313
0.147067
0.146874
0.146742
0.146677
0.146685
0.146772
0.146944
0.147203
0.14755
0.147986
0.148507
0.149104
0.14977
0.150489
0.151247
0.152025
0.152802
0.153558
0.154272
0.154925
0.1555
0.155983
0.156363
0.156631
0.156786
0.156825
0.156752
0.156572
0.156293
0.155922
0.155471
0.154948
0.154366
0.153733
0.153061
0.152359
0.151634
0.150895
0.15015
0.149403
0.148659
0.147924
0.147199
0.146486
0.145786
0.145103
0.144421
0.143821
0.142833
0.174393
0.173791
0.173188
0.172582
0.171975
0.171367
0.170757
0.170146
0.169535
0.168923
0.16831
0.167698
0.167087
0.166477
0.165868
0.16526
0.164655
0.164052
0.163452
0.162854
0.16226
0.16167
0.161084
0.160501
0.159923
0.159349
0.15878
0.158215
0.157655
0.157099
0.156549
0.156003
0.155462
0.154925
0.154393
0.153866
0.153344
0.152827
0.152316
0.15181
0.151311
0.150819
0.150337
0.149865
0.149407
0.148964
0.14854
0.14814
0.147766
0.147424
0.14712
0.14686
0.146648
0.146493
0.146399
0.146374
0.146421
0.146546
0.146752
0.14704
0.147409
0.147855
0.148373
0.148954
0.149584
0.15025
0.150934
0.151617
0.152281
0.152907
0.153476
0.153972
0.154383
0.154697
0.154907
0.155008
0.155001
0.154886
0.154669
0.154355
0.153952
0.153468
0.152914
0.152299
0.151632
0.150923
0.15018
0.149411
0.148623
0.147823
0.147016
0.146207
0.1454
0.144598
0.143803
0.143016
0.142242
0.141463
0.140776
0.139639
0.174388
0.173785
0.173181
0.172575
0.171967
0.171358
0.170747
0.170135
0.169522
0.168909
0.168295
0.167682
0.167068
0.166456
0.165844
0.165233
0.164625
0.164018
0.163414
0.162812
0.162214
0.161619
0.161027
0.160439
0.159855
0.159276
0.1587
0.15813
0.157564
0.157002
0.156446
0.155894
0.155347
0.154805
0.154268
0.153736
0.153209
0.152688
0.152172
0.151663
0.15116
0.150666
0.15018
0.149706
0.149244
0.148797
0.148369
0.147963
0.147582
0.147232
0.146916
0.146641
0.146412
0.146234
0.146114
0.146057
0.146066
0.146148
0.146304
0.146535
0.146841
0.147218
0.147662
0.148162
0.148709
0.149288
0.149884
0.150479
0.151056
0.151598
0.152087
0.152509
0.15285
0.153101
0.153255
0.153307
0.153256
0.153103
0.152852
0.152507
0.152076
0.151566
0.150986
0.150345
0.14965
0.148912
0.148136
0.147332
0.146504
0.14566
0.144805
0.143942
0.143076
0.14221
0.141345
0.140485
0.139632
0.13877
0.138006
0.136734
0.174382
0.173779
0.173174
0.172567
0.171959
0.171348
0.170737
0.170124
0.16951
0.168895
0.16828
0.167665
0.167049
0.166434
0.16582
0.165206
0.164594
0.163984
0.163376
0.16277
0.162167
0.161566
0.16097
0.160376
0.159787
0.159201
0.15862
0.158043
0.157471
0.156904
0.156341
0.155783
0.155231
0.154683
0.154141
0.153603
0.153072
0.152546
0.152026
0.151513
0.151006
0.150508
0.150019
0.149541
0.149076
0.148626
0.148193
0.147781
0.147393
0.147033
0.146707
0.146418
0.146171
0.145972
0.145826
0.145738
0.145712
0.145752
0.14586
0.146038
0.146285
0.146598
0.14697
0.147396
0.147864
0.148361
0.148873
0.149385
0.149879
0.150341
0.150753
0.151103
0.151378
0.15157
0.15167
0.151675
0.151583
0.151394
0.151112
0.150741
0.150287
0.149756
0.149156
0.148495
0.14778
0.147019
0.146219
0.145387