/*--------------------------------*- C++ -*----------------------------------*\
  =========                 |
  \\      /  F ield         | OpenFOAM: The Open Source CFD Toolbox
   \\    /   O peration     | Website:  https://openfoam.org
    \\  /    A nd           | Version:  10
     \\/     M anipulation  |
\*---------------------------------------------------------------------------*/
FoamFile
{
    format      ascii;
    class       volScalarField;
    location    "0.12";
    object      nut;
}
// * * * * * * * * * * * * * * * * * * * * * * * * * * * * * * * * * * * * * //

dimensions      [0 2 -1 0 0 0 0];

internalField   nonuniform List<scalar> 
6820
(
0.000149484
0.000144853
0.000140581
0.000136577
0.000132833
0.000129377
0.000126234
0.000123417
0.000120923
0.000118737
0.000116839
0.000115205
0.00011381
0.00011263
0.000111643
0.000110827
0.000110164
0.000109635
0.000109226
0.000108922
0.00010871
0.000108581
0.000108523
0.000108528
0.000108587
0.000108695
0.000108842
0.00010904
0.000109199
0.000109718
0.000108703
0.000114998
8.71124e-05
0.000729198
0.000532393
0.000448015
0.000399712
0.000368386
0.000346738
0.000331096
0.000319368
0.000310281
0.000303034
0.000297103
0.000292143
0.000287919
0.000284266
0.000281067
0.000278234
0.000275703
0.000273425
0.00027136
0.000269477
0.000267753
0.000266166
0.0002647
0.000263341
0.000262079
0.000260902
0.000259805
0.000258777
0.000257823
0.000256934
0.000256133
0.000255279
0.000256509
0.000976777
0.000872182
0.000781624
0.000711267
0.000657324
0.000615285
0.000581717
0.000554259
0.000531326
0.000511834
0.000495023
0.000480345
0.000467397
0.000455874
0.00044554
0.000436212
0.000427744
0.000420019
0.000412941
0.000406431
0.000400424
0.000394863
0.000389701
0.000384899
0.000380419
0.00037623
0.000372303
0.000368614
0.000365126
0.000361829
0.000358633
0.000355508
0.000352129
0.00101348
0.00098823
0.000949374
0.000906194
0.000864428
0.000826388
0.000792559
0.000762675
0.000736243
0.000712751
0.000691746
0.000672844
0.000655729
0.000640143
0.000625874
0.000612747
0.000600621
0.000589374
0.000578907
0.000569137
0.000559992
0.00055141
0.00054334
0.000535734
0.000528553
0.000521761
0.000515325
0.000509216
0.000503402
0.000497863
0.000492546
0.000487467
0.000482445
0.00101671
0.00101241
0.00100191
0.000985661
0.000965605
0.000943715
0.000921427
0.000899619
0.000878758
0.000859054
0.000840567
0.000823272
0.000807108
0.000791995
0.000777847
0.00076458
0.000752118
0.000740387
0.000729325
0.000718872
0.000708977
0.000699595
0.000690683
0.000682205
0.000674128
0.000666422
0.000659058
0.000652012
0.000645256
0.000638773
0.000632526
0.000626509
0.000620662
0.00101676
0.00101592
0.0010136
0.00100903
0.00100204
0.000992921
0.000982194
0.000970402
0.000958012
0.000945385
0.000932776
0.000920362
0.000908256
0.000896526
0.00088521
0.000874323
0.000863869
0.00085384
0.000844224
0.000835004
0.000826163
0.000817682
0.000809543
0.000801726
0.000794214
0.000786989
0.000780034
0.000773334
0.000766871
0.000760632
0.000754598
0.000748759
0.000743096
0.00101671
0.00101623
0.00101553
0.00101428
0.00101219
0.0010091
0.00100497
0.000999894
0.000994023
0.000987526
0.000980567
0.000973293
0.000965827
0.000958268
0.000950695
0.000943168
0.000935731
0.000928417
0.000921249
0.000914243
0.00090741
0.000900755
0.000894281
0.000887988
0.000881874
0.000875936
0.00087017
0.000864569
0.000859129
0.000853844
0.000848706
0.000843711
0.000838853
0.0010167
0.00101622
0.00101574
0.00101518
0.00101442
0.00101335
0.00101188
0.00100995
0.00100756
0.00100471
0.00100145
0.000997833
0.000993918
0.000989763
0.000985421
0.000980941
0.000976365
0.00097173
0.000967067
0.000962401
0.000957753
0.000953139
0.000948574
0.000944068
0.000939629
0.000935263
0.000930974
0.000926767
0.000922642
0.000918601
0.000914645
0.000910774
0.00090699
0.0010167
0.00101621
0.00101575
0.00101528
0.0010148
0.00101425
0.00101359
0.00101279
0.00101179
0.00101059
0.00100918
0.00100754
0.00100569
0.00100366
0.00100144
0.000999075
0.000996577
0.000993968
0.000991269
0.000988499
0.000985674
0.00098281
0.000979921
0.000977018
0.000974111
0.000971209
0.000968319
0.000965449
0.000962603
0.000959786
0.000957003
0.000954258
0.000951554
0.0010167
0.00101621
0.00101574
0.00101529
0.00101484
0.00101439
0.00101393
0.00101344
0.0010129
0.00101229
0.0010116
0.00101082
0.00100994
0.00100896
0.00100787
0.00100668
0.00100541
0.00100404
0.0010026
0.00100108
0.000999503
0.000997871
0.000996193
0.000994478
0.000992731
0.000990961
0.000989173
0.000987373
0.000985566
0.000983758
0.000981952
0.000980153
0.000978366
0.0010167
0.00101621
0.00101574
0.00101528
0.00101484
0.00101441
0.00101398
0.00101356
0.00101313
0.0010127
0.00101224
0.00101176
0.00101125
0.0010107
0.00101011
0.00100947
0.00100879
0.00100806
0.00100728
0.00100646
0.0010056
0.0010047
0.00100376
0.00100279
0.00100179
0.00100077
0.000999722
0.000998657
0.000997575
0.000996482
0.00099538
0.000994273
0.000993163
0.0010167
0.00101621
0.00101574
0.00101528
0.00101484
0.0010144
0.00101398
0.00101357
0.00101317
0.00101278
0.00101238
0.00101199
0.00101159
0.00101119
0.00101078
0.00101036
0.00100992
0.00100946
0.00100899
0.0010085
0.00100798
0.00100745
0.00100691
0.00100634
0.00100575
0.00100515
0.00100454
0.00100391
0.00100327
0.00100262
0.00100196
0.00100129
0.00100062
0.0010167
0.00101621
0.00101574
0.00101528
0.00101483
0.0010144
0.00101398
0.00101357
0.00101317
0.00101278
0.0010124
0.00101203
0.00101167
0.00101131
0.00101095
0.0010106
0.00101024
0.00100989
0.00100953
0.00100917
0.00100881
0.00100844
0.00100807
0.00100769
0.0010073
0.00100691
0.00100651
0.00100611
0.0010057
0.00100529
0.00100488
0.00100446
0.00100404
0.0010167
0.00101621
0.00101574
0.00101528
0.00101483
0.0010144
0.00101398
0.00101357
0.00101317
0.00101278
0.0010124
0.00101204
0.00101168
0.00101133
0.00101099
0.00101065
0.00101032
0.00101
0.00100968
0.00100937
0.00100906
0.00100875
0.00100844
0.00100814
0.00100784
0.00100754
0.00100724
0.00100694
0.00100664
0.00100634
0.00100604
0.00100575
0.00100545
0.0010167
0.00101621
0.00101574
0.00101528
0.00101483
0.0010144
0.00101398
0.00101357
0.00101317
0.00101278
0.0010124
0.00101203
0.00101168
0.00101133
0.00101099
0.00101066
0.00101034
0.00101002
0.00100971
0.00100941
0.00100912
0.00100883
0.00100855
0.00100827
0.001008
0.00100773
0.00100747
0.00100721
0.00100696
0.00100671
0.00100646
0.00100622
0.00100598
0.0010167
0.00101621
0.00101574
0.00101528
0.00101483
0.0010144
0.00101397
0.00101356
0.00101317
0.00101278
0.0010124
0.00101203
0.00101167
0.00101133
0.00101099
0.00101066
0.00101033
0.00101002
0.00100972
0.00100942
0.00100913
0.00100885
0.00100857
0.0010083
0.00100804
0.00100778
0.00100753
0.00100729
0.00100705
0.00100682
0.00100659
0.00100637
0.00100615
0.0010167
0.00101621
0.00101574
0.00101528
0.00101483
0.0010144
0.00101397
0.00101356
0.00101316
0.00101277
0.0010124
0.00101203
0.00101167
0.00101132
0.00101098
0.00101065
0.00101033
0.00101002
0.00100971
0.00100942
0.00100913
0.00100885
0.00100857
0.0010083
0.00100804
0.00100779
0.00100754
0.0010073
0.00100707
0.00100684
0.00100662
0.00100641
0.0010062
0.0010167
0.00101621
0.00101574
0.00101528
0.00101483
0.0010144
0.00101397
0.00101356
0.00101316
0.00101277
0.00101239
0.00101203
0.00101167
0.00101132
0.00101098
0.00101065
0.00101033
0.00101001
0.00100971
0.00100941
0.00100912
0.00100884
0.00100857
0.0010083
0.00100804
0.00100779
0.00100754
0.0010073
0.00100707
0.00100684
0.00100662
0.00100641
0.0010062
0.0010167
0.00101621
0.00101574
0.00101528
0.00101483
0.00101439
0.00101397
0.00101356
0.00101316
0.00101277
0.00101239
0.00101202
0.00101167
0.00101132
0.00101098
0.00101065
0.00101032
0.00101001
0.00100971
0.00100941
0.00100912
0.00100884
0.00100856
0.0010083
0.00100804
0.00100778
0.00100754
0.0010073
0.00100706
0.00100684
0.00100662
0.0010064
0.0010062
0.0010167
0.00101621
0.00101574
0.00101528
0.00101483
0.00101439
0.00101397
0.00101356
0.00101316
0.00101277
0.00101239
0.00101202
0.00101166
0.00101132
0.00101098
0.00101064
0.00101032
0.00101001
0.0010097
0.00100941
0.00100912
0.00100883
0.00100856
0.00100829
0.00100803
0.00100778
0.00100753
0.00100729
0.00100706
0.00100683
0.00100661
0.00100639
0.00100619
0.0010167
0.00101621
0.00101574
0.00101528
0.00101483
0.00101439
0.00101397
0.00101356
0.00101316
0.00101277
0.00101239
0.00101202
0.00101166
0.00101131
0.00101097
0.00101064
0.00101032
0.00101001
0.0010097
0.0010094
0.00100911
0.00100883
0.00100855
0.00100829
0.00100803
0.00100777
0.00100753
0.00100728
0.00100705
0.00100682
0.0010066
0.00100639
0.00100618
0.0010167
0.00101621
0.00101574
0.00101528
0.00101483
0.00101439
0.00101397
0.00101356
0.00101316
0.00101277
0.00101239
0.00101202
0.00101166
0.00101131
0.00101097
0.00101064
0.00101032
0.00101
0.0010097
0.0010094
0.00100911
0.00100883
0.00100855
0.00100828
0.00100802
0.00100777
0.00100752
0.00100728
0.00100704
0.00100682
0.00100659
0.00100638
0.00100617
0.0010167
0.00101621
0.00101574
0.00101528
0.00101483
0.00101439
0.00101397
0.00101356
0.00101316
0.00101277
0.00101239
0.00101202
0.00101166
0.00101131
0.00101097
0.00101064
0.00101031
0.00101
0.00100969
0.0010094
0.00100911
0.00100882
0.00100855
0.00100828
0.00100802
0.00100776
0.00100751
0.00100727
0.00100704
0.00100681
0.00100659
0.00100637
0.00100616
0.0010167
0.00101621
0.00101574
0.00101528
0.00101483
0.00101439
0.00101397
0.00101356
0.00101316
0.00101277
0.00101239
0.00101202
0.00101166
0.00101131
0.00101097
0.00101064
0.00101031
0.00101
0.00100969
0.00100939
0.0010091
0.00100882
0.00100854
0.00100827
0.00100801
0.00100776
0.00100751
0.00100727
0.00100703
0.0010068
0.00100658
0.00100636
0.00100615
0.0010167
0.00101621
0.00101574
0.00101528
0.00101483
0.00101439
0.00101397
0.00101356
0.00101316
0.00101277
0.00101239
0.00101202
0.00101166
0.00101131
0.00101097
0.00101063
0.00101031
0.00101
0.00100969
0.00100939
0.0010091
0.00100882
0.00100854
0.00100827
0.00100801
0.00100775
0.0010075
0.00100726
0.00100702
0.00100679
0.00100657
0.00100635
0.00100614
0.0010167
0.00101621
0.00101574
0.00101528
0.00101483
0.00101439
0.00101397
0.00101356
0.00101316
0.00101277
0.00101239
0.00101202
0.00101166
0.00101131
0.00101097
0.00101063
0.00101031
0.00100999
0.00100969
0.00100939
0.0010091
0.00100881
0.00100854
0.00100827
0.001008
0.00100775
0.0010075
0.00100726
0.00100702
0.00100679
0.00100656
0.00100634
0.00100613
0.0010167
0.00101621
0.00101574
0.00101528
0.00101483
0.00101439
0.00101397
0.00101356
0.00101316
0.00101277
0.00101239
0.00101202
0.00101166
0.00101131
0.00101096
0.00101063
0.00101031
0.00100999
0.00100969
0.00100939
0.00100909
0.00100881
0.00100853
0.00100826
0.001008
0.00100774
0.00100749
0.00100725
0.00100701
0.00100678
0.00100656
0.00100634
0.00100612
0.0010167
0.00101621
0.00101574
0.00101528
0.00101483
0.00101439
0.00101397
0.00101356
0.00101316
0.00101277
0.00101239
0.00101202
0.00101166
0.00101131
0.00101096
0.00101063
0.00101031
0.00100999
0.00100968
0.00100939
0.00100909
0.00100881
0.00100853
0.00100826
0.001008
0.00100774
0.00100749
0.00100725
0.00100701
0.00100678
0.00100655
0.00100633
0.00100612
0.0010167
0.00101621
0.00101574
0.00101528
0.00101483
0.00101439
0.00101397
0.00101356
0.00101316
0.00101277
0.00101239
0.00101202
0.00101166
0.00101131
0.00101096
0.00101063
0.00101031
0.00100999
0.00100968
0.00100938
0.00100909
0.00100881
0.00100853
0.00100826
0.001008
0.00100774
0.00100749
0.00100724
0.00100701
0.00100677
0.00100655
0.00100633
0.00100611
0.0010167
0.00101621
0.00101574
0.00101528
0.00101483
0.00101439
0.00101397
0.00101356
0.00101316
0.00101277
0.00101239
0.00101202
0.00101166
0.00101131
0.00101096
0.00101063
0.00101031
0.00100999
0.00100968
0.00100938
0.00100909
0.00100881
0.00100853
0.00100826
0.00100799
0.00100774
0.00100749
0.00100724
0.001007
0.00100677
0.00100654
0.00100632
0.00100611
0.0010167
0.00101621
0.00101574
0.00101528
0.00101483
0.00101439
0.00101397
0.00101356
0.00101316
0.00101277
0.00101239
0.00101202
0.00101166
0.00101131
0.00101097
0.00101063
0.00101031
0.00100999
0.00100969
0.00100939
0.00100909
0.00100881
0.00100853
0.00100826
0.00100799
0.00100774
0.00100748
0.00100724
0.001007
0.00100676
0.00100654
0.00100631
0.0010061
0.0010167
0.00101621
0.00101574
0.00101528
0.00101483
0.0010144
0.00101397
0.00101356
0.00101316
0.00101277
0.00101239
0.00101202
0.00101166
0.00101131
0.00101097
0.00101064
0.00101031
0.00101
0.00100969
0.00100939
0.00100909
0.00100881
0.00100852
0.00100825
0.00100798
0.00100772
0.00100746
0.00100721
0.00100697
0.00100673
0.00100649
0.00100626
0.00100604
0.0010167
0.00101621
0.00101574
0.00101528
0.00101483
0.0010144
0.00101398
0.00101357
0.00101317
0.00101278
0.0010124
0.00101203
0.00101167
0.00101132
0.00101097
0.00101064
0.00101031
0.00100998
0.00100967
0.00100936
0.00100905
0.00100875
0.00100846
0.00100817
0.00100788
0.0010076
0.00100732
0.00100705
0.00100677
0.00100651
0.00100624
0.00100598
0.00100572
0.0010167
0.00101621
0.00101574
0.00101529
0.00101484
0.00101441
0.00101399
0.00101358
0.00101318
0.00101279
0.0010124
0.00101202
0.00101164
0.00101127
0.00101089
0.00101053
0.00101016
0.00100979
0.00100942
0.00100906
0.00100869
0.00100832
0.00100794
0.00100757
0.00100719
0.00100681
0.00100643
0.00100605
0.00100566
0.00100527
0.00100488
0.00100448
0.00100409
0.0010167
0.00101622
0.00101575
0.0010153
0.00101485
0.00101441
0.00101397
0.00101352
0.00101308
0.00101262
0.00101215
0.00101166
0.00101115
0.00101063
0.00101008
0.00100951
0.00100892
0.0010083
0.00100766
0.00100699
0.00100631
0.0010056
0.00100487
0.00100412
0.00100335
0.00100256
0.00100176
0.00100095
0.00100012
0.000999276
0.000998425
0.000997564
0.000996697
0.00101671
0.00101622
0.00101574
0.00101524
0.00101469
0.00101407
0.00101337
0.00101257
0.00101167
0.00101067
0.00100955
0.00100832
0.00100698
0.00100555
0.00100401
0.00100238
0.00100067
0.000998879
0.00099702
0.000995099
0.000993125
0.000991103
0.000989042
0.000986948
0.000984827
0.000982685
0.000980528
0.00097836
0.000976187
0.000974012
0.00097184
0.000969674
0.000967518
0.00101671
0.001016
0.00101488
0.00101326
0.00101113
0.00100848
0.00100534
0.00100171
0.000997651
0.000993207
0.000988431
0.000983377
0.000978097
0.000972637
0.000967042
0.00096135
0.000955597
0.000949811
0.000944021
0.000938247
0.000932509
0.000926823
0.000921203
0.000915659
0.000910201
0.000904837
0.000899571
0.00089441
0.000889355
0.000884411
0.000879577
0.000874856
0.000870248
0.0010153
0.00100706
0.00099552
0.000981425
0.000965405
0.000948071
0.00092998
0.000911583
0.00089321
0.000875102
0.000857424
0.000840285
0.000823751
0.000807859
0.000792623
0.000778043
0.000764108
0.0007508
0.000738096
0.000725972
0.000714401
0.000703356
0.000692811
0.000682739
0.000673117
0.000663919
0.000655124
0.000646708
0.000638652
0.000630937
0.000623543
0.000616454
0.000609652
0.000935928
0.000815551
0.000728185
0.000659266
0.000602396
0.000555159
0.000515656
0.000482301
0.000453845
0.000429323
0.000407992
0.000389282
0.000372747
0.000358037
0.000344874
0.000333033
0.000322333
0.000312623
0.000303778
0.000295696
0.000288286
0.000281475
0.000275199
0.000269401
0.000264033
0.000259055
0.000254428
0.00025012
0.000246104
0.000242353
0.000238845
0.00023556
0.000232478
0.000125477
0.000128847
0.000132096
0.000135204
0.000138173
0.000141007
0.000143711
0.000146289
0.000148745
0.000151084
0.00015331
0.000155428
0.000157441
0.000159354
0.00016117
0.000162895
0.000164532
0.000166085
0.000167557
0.000168953
0.000170276
0.000171529
0.000172716
0.000173841
0.000174905
0.000175913
0.000176866
0.000177769
0.000178623
0.00017943
0.000180194
0.000180916
0.0001816
0.000107134
0.00015122
0.000195573
0.000238942
0.000280441
0.000318802
0.000353395
0.000384541
0.000413138
0.000440269
0.000466811
0.000493288
0.000519884
0.000546578
0.00057329
0.000599996
0.000626773
0.000653795
0.000681284
0.000709459
0.000738504
0.000768548
0.000799668
0.000831891
0.000865199
0.000899537
0.000934806
0.00097087
0.00100757
0.0010447
0.00108207
0.00111948
0.00115673
0.00119364
0.00123004
0.00126577
0.00130069
0.00133463
0.00136743
0.00139888
0.00142874
0.00145669
0.00148233
0.00150516
0.00152457
0.00153984
0.00155012
0.00155448
0.00155193
0.00154142
0.00152196
0.00149267
0.00145287
0.0014023
0.00134121
0.00127076
0.00119334
0.00111308
0.00103635
0.00097191
0.000929966
0.000919036
0.000940887
0.000987224
0.00104326
0.00109625
0.00114049
0.00117599
0.00120494
0.00122956
0.00125139
0.00127133
0.00128992
0.00130747
0.00132423
0.00134043
0.0013563
0.00137207
0.00138798
0.00140421
0.00142092
0.0014382
0.00145602
0.00147429
0.0014928
0.0015113
0.00152948
0.00154701
0.00156362
0.00157906
0.00159314
0.00160576
0.00161687
0.00162648
0.00163466
0.00164152
0.00164715
0.00165179
0.00165515
0.00165932
0.000245789
0.000213631
0.000184161
0.000169757
0.000169522
0.000180158
0.000198875
0.000223432
0.000251877
0.000282457
0.000313693
0.00034449
0.000374204
0.000402609
0.0004298
0.000456046
0.000481665
0.000506937
0.000532064
0.000557177
0.000582371
0.000607728
0.000633339
0.000659297
0.000685695
0.000712599
0.000740047
0.000768032
0.000796511
0.000825403
0.000854604
0.000883995
0.00091345
0.000942843
0.000972052
0.00100096
0.00102944
0.00105736
0.0010846
0.00111096
0.00113623
0.00116014
0.00118232
0.00120234
0.00121965
0.00123359
0.00124344
0.00124835
0.00124748
0.00123996
0.00122504
0.00120214
0.00117104
0.00113203
0.00108621
0.00103577
0.000984367
0.000937389
0.000901788
0.000884957
0.000892109
0.000922894
0.000970056
0.00102269
0.00107184
0.00111346
0.00114755
0.00117581
0.00120012
0.00122182
0.00124174
0.00126033
0.00127784
0.00129446
0.00131035
0.00132568
0.00134066
0.00135548
0.00137036
0.00138552
0.00140111
0.00141725
0.00143399
0.00145127
0.00146897
0.00148687
0.0015047
0.00152217
0.00153897
0.00155485
0.0015696
0.00158306
0.00159515
0.00160585
0.00161517
0.00162321
0.00163002
0.00163584
0.00164028
0.00164599
0.000349397
0.000343761
0.0003276
0.000299263
0.000265568
0.000234852
0.000211886
0.000197502
0.000191044
0.000191652
0.000198439
0.000210529
0.000226991
0.000246837
0.00026906
0.000292707
0.000316959
0.000341198
0.000365032
0.00038828
0.000410926
0.000433059
0.000454815
0.000476339
0.000497763
0.000519189
0.000540696
0.000562337
0.000584145
0.000606132
0.000628298
0.000650624
0.000673085
0.000695646
0.000718262
0.000740884
0.00076345
0.000785885
0.000808093
0.000829949
0.000851285
0.000871883
0.000891458
0.000909651
0.000926019
0.000940042
0.000951133
0.000958662
0.000962012
0.000960636
0.000954162
0.000942516
0.000926092
0.000905948
0.000884026
0.000863321
0.00084788
0.000842366
0.000850942
0.000875493
0.00091405
0.000960932
0.00100912
0.00105326
0.00109103
0.00112261
0.00114938
0.00117278
0.00119394
0.00121355
0.00123198
0.00124942
0.00126596
0.00128171
0.00129677
0.00131128
0.0013254
0.00133932
0.00135323
0.00136734
0.00138183
0.00139682
0.00141241
0.00142861
0.00144533
0.00146243
0.00147969
0.00149683
0.00151358
0.00152967
0.00154486
0.00155896
0.00157187
0.00158351
0.00159388
0.00160301
0.00161095
0.00161791
0.00162339
0.00163065
0.000476989
0.000471343
0.000464729
0.00045456
0.000438546
0.000416047
0.000388485
0.000358464
0.000328518
0.000300772
0.000277066
0.000258139
0.000244222
0.000235252
0.000230974
0.000231003
0.000234857
0.000241991
0.00025182
0.000263761
0.000277265
0.000291854
0.000307136
0.000322823
0.000338721
0.00035472
0.000370772
0.000386878
0.000403061
0.000419361
0.000435821
0.00045248
0.000469375
0.000486537
0.000503986
0.000521736
0.000539786
0.000558118
0.000576696
0.000595455
0.0006143
0.000633094
0.000651655
0.000669752
0.000687104
0.00070339
0.000718265
0.000731398
0.000742517
0.000751491
0.00075841
0.000763703
0.000768243
0.000773428
0.000781176
0.000793734
0.000813225
0.000840926
0.000876518
0.000917786
0.000961171
0.00100302
0.00104081
0.00107358
0.00110171
0.00112619
0.00114809
0.00116825
0.00118719
0.00120518
0.00122236
0.00123875
0.00125438
0.00126929
0.00128355
0.00129727
0.00131058
0.00132365
0.00133665
0.00134978
0.00136319
0.00137706
0.00139149
0.00140654
0.00142218
0.00143832
0.00145479
0.00147138
0.00148782
0.00150385
0.00151923
0.00153376
0.00154728
0.00155969
0.00157096
0.00158107
0.00159005
0.00159808
0.00160456
0.00161332
0.000614031
0.000606747
0.000599672
0.000592386
0.000584064
0.000573709
0.000560464
0.00054387
0.000523849
0.000500881
0.000476001
0.000450302
0.000424844
0.000400563
0.000378222
0.000358385
0.000341422
0.000327524
0.000316733
0.000308966
0.000304052
0.000301758
0.000301816
0.000303948
0.00030788
0.00031336
0.000320167
0.000328117
0.000337065
0.0003469
0.000357547
0.000368958
0.000381104
0.000393972
0.000407555
0.000421851
0.000436854
0.000452551
0.000468921
0.000485932
0.000503538
0.000521681
0.000540287
0.00055927
0.000578535
0.000597988
0.000617547
0.000637172
0.000656887
0.000676825
0.000697259
0.000718624
0.000741513
0.000766605
0.000794521
0.000825608
0.000859705
0.000895992
0.000933064
0.000969251
0.00100308
0.00103365
0.00106076
0.0010848
0.00110643
0.00112634
0.00114507
0.00116298
0.00118024
0.00119691
0.00121296
0.00122838
0.00124313
0.00125723
0.00127072
0.00128368
0.00129622
0.00130849
0.00132064
0.00133284
0.00134525
0.00135804
0.00137133
0.0013852
0.00139969
0.00141476
0.00143028
0.0014461
0.00146199
0.00147771
0.00149303
0.00150774
0.00152164
0.00153463
0.00154661
0.00155756
0.00156745
0.00157646
0.00158386
0.00159407
0.000736686
0.000729512
0.000722455
0.000715493
0.00070849
0.000701191
0.000693239
0.000684229
0.000673785
0.000661648
0.000647717
0.000632076
0.00061497
0.000596773
0.000577937
0.000558953
0.000540303
0.00052244
0.000505752
0.000490558
0.000477098
0.000465537
0.000455971
0.000448435
0.000442919
0.000439374
0.000437725
0.000437882
0.000439746
0.000443216
0.000448195
0.000454589
0.00046231
0.000471275
0.000481406
0.000492627
0.000504866
0.000518055
0.000532129
0.000547028
0.000562701
0.000579109
0.000596223
0.000614028
0.000632527
0.00065174
0.000671707
0.000692486
0.000714159
0.000736821
0.000760576
0.000785513
0.000811675
0.000839013
0.000867335
0.000896274
0.000925288
0.000953724
0.000980936
0.00100642
0.00102992
0.00105148
0.00107135
0.0010899
0.00110754
0.00112455
0.00114114
0.00115739
0.00117329
0.00118879
0.00120382
0.00121831
0.00123221
0.00124552
0.00125826
0.0012705
0.00128231
0.00129383
0.00130519
0.00131653
0.00132801
0.00133978
0.00135197
0.0013647
0.00137802
0.00139193
0.00140639
0.00142127
0.00143641
0.00145159
0.00146659
0.00148121
0.00149526
0.00150859
0.00152109
0.00153269
0.00154334
0.00155319
0.00156141
0.00157298
0.000833347
0.000827143
0.000820971
0.000814844
0.000808754
0.000802665
0.000796495
0.000790128
0.00078342
0.000776213
0.000768361
0.000759755
0.000750341
0.000740131
0.000729205
0.000717704
0.000705822
0.000693784
0.00068184
0.00067024
0.000659224
0.000649015
0.000639804
0.000631754
0.000624991
0.000619608
0.000615664
0.000613192
0.000612196
0.000612662
0.000614555
0.000617827
0.000622416
0.000628253
0.000635259
0.000643351
0.000652442
0.000662447
0.000673284
0.000684878
0.000697162
0.000710084
0.000723606
0.000737705
0.000752377
0.00076763
0.000783488
0.00079998
0.000817136
0.000834972
0.000853482
0.000872623
0.000892298
0.000912354
0.00093258
0.000952718
0.0009725
0.000991682
0.00101009
0.00102766
0.00104443
0.00106053
0.00107614
0.00109146
0.00110662
0.00112171
0.00113674
0.00115166
0.0011664
0.00118086
0.00119493
0.00120854
0.00122163
0.00123418
0.0012462
0.00125774
0.00126887
0.00127969
0.0012903
0.00130085
0.00131147
0.00132229
0.00133346
0.00134508
0.00135725
0.00136999
0.00138331
0.00139714
0.00141135
0.00142577
0.00144023
0.00145452
0.00146846
0.00148188
0.00149466
0.00150671
0.00151794
0.00152848
0.00153739
0.00155017
0.000902679
0.000897787
0.000892874
0.000887953
0.00088303
0.000878109
0.000873183
0.000868235
0.000863237
0.000858148
0.000852919
0.000847498
0.000841841
0.000835914
0.000829706
0.000823231
0.00081653
0.000809671
0.000802746
0.000795866
0.000789155
0.000782744
0.000776763
0.000771338
0.000766582
0.000762594
0.000759459
0.000757238
0.000755977
0.000755702
0.000756421
0.000758127
0.000760799
0.000764402
0.00076889
0.000774211
0.000780304
0.000787107
0.000794557
0.000802594
0.000811162
0.000820213
0.000829709
0.000839619
0.000849923
0.000860611
0.00087168
0.000883128
0.000894956
0.000907157
0.000919713
0.000932588
0.000945726
0.000959054
0.000972482
0.000985921
0.000999292
0.00101254
0.00102566
0.00103868
0.00105165
0.00106467
0.0010778
0.00109111
0.00110462
0.0011183
0.00113209
0.0011459
0.00115961
0.00117311
0.00118629
0.00119907
0.00121139
0.00122321
0.00123455
0.00124542
0.0012559
0.00126605
0.00127598
0.0012858
0.00129562
0.00130558
0.00131579
0.00132638
0.00133744
0.00134903
0.00136119
0.00137389
0.00138705
0.00140056
0.00141426
0.00142799
0.00144157
0.00145484
0.00146766
0.00147992
0.00149152
0.00150256
0.00151199
0.0015258
0.000948448
0.000944894
0.000941291
0.000937646
0.000933966
0.000930257
0.000926528
0.000922782
0.000919024
0.000915254
0.000911469
0.000907665
0.000903832
0.000899965
0.000896057
0.000892109
0.000888127
0.000884131
0.000880147
0.000876215
0.000872382
0.000868706
0.000865249
0.000862075
0.000859252
0.000856841
0.000854899
0.000853477
0.000852612
0.000852336
0.000852667
0.000853615
0.000855177
0.000857343
0.000860092
0.000863398
0.000867228
0.000871547
0.000876315
0.000881495
0.000887052
0.000892954
0.000899173
0.000905687
0.00091248
0.000919541
0.000926865
0.000934448
0.000942292
0.000950395
0.000958754
0.000967363
0.000976211
0.000985286
0.000994575
0.00100407
0.00101377
0.0010237
0.00103387
0.00104433
0.00105512
0.00106628
0.00107782
0.00108974
0.00110201
0.00111456
0.0011273
0.00114012
0.0011529
0.00116552
0.00117788
0.00118988
0.00120147
0.00121261
0.00122329
0.00123354
0.0012434
0.00125293
0.00126222
0.00127136
0.00128046
0.00128961
0.00129895
0.00130858
0.00131861
0.0013291
0.00134011
0.00135166
0.0013637
0.00137618
0.00138897
0.00140193
0.00141493
0.0014278
0.00144042
0.00145266
0.00146438
0.00147572
0.00148549
0.0015001
0.000976294
0.000973898
0.000971443
0.000968933
0.000966371
0.000963765
0.000961122
0.000958448
0.000955752
0.000953043
0.000950328
0.000947616
0.000944916
0.000942233
0.000939576
0.000936951
0.000934367
0.000931833
0.000929363
0.000926973
0.000924681
0.000922512
0.000920492
0.00091865
0.000917017
0.000915625
0.000914503
0.000913679
0.000913179
0.000913022
0.000913222
0.00091379
0.000914729
0.000916037
0.000917707
0.000919727
0.000922081
0.000924751
0.000927718
0.00093096
0.000934458
0.000938196
0.000942158
0.000946335
0.000950719
0.000955308
0.000960105
0.000965113
0.000970344
0.000975808
0.000981519
0.000987493
0.000993745
0.00100029
0.00100716
0.00101437
0.00102195
0.00102994
0.00103836
0.00104725
0.00105664
0.00106653
0.00107691
0.00108776
0.00109902
0.0011106
0.00112242
0.00113436
0.00114629
0.0011581
0.0011697
0.00118098
0.00119189
0.00120238
0.00121245
0.0012221
0.00123138
0.00124033
0.00124902
0.00125753
0.00126596
0.00127439
0.00128293
0.00129169
0.00130075
0.00131021
0.00132012
0.00133054
0.00134145
0.00135282
0.00136458
0.00137663
0.00138885
0.00140112
0.00141329
0.00142526
0.00143689
0.00144828
0.00145819
0.00147333
0.000991863
0.000990345
0.000988773
0.000987148
0.000985473
0.000983752
0.00098199
0.000980191
0.000978362
0.000976511
0.000974646
0.000972777
0.000970912
0.000969061
0.000967234
0.000965441
0.000963692
0.000961998
0.000960367
0.000958811
0.000957342
0.000955971
0.000954712
0.000953579
0.000952586
0.000951749
0.000951081
0.000950598
0.00095031
0.000950231
0.000950367
0.000950725
0.000951308
0.000952117
0.000953149
0.000954398
0.000955859
0.000957521
0.000959376
0.000961414
0.000963626
0.000966006
0.000968548
0.000971251
0.000974115
0.000977147
0.000980355
0.000983754
0.000987359
0.000991193
0.000995279
0.000999646
0.00100432
0.00100934
0.00101474
0.00102055
0.00102682
0.00103357
0.00104083
0.00104865
0.00105702
0.00106594
0.0010754
0.00108536
0.00109575
0.00110649
0.00111748
0.00112862
0.00113978
0.00115085
0.00116174
0.00117235
0.00118262
0.00119251
0.001202
0.0012111
0.00121983
0.00122823
0.00123636
0.0012443
0.00125211
0.00125988
0.0012677
0.00127566
0.00128385
0.00129235
0.00130124
0.00131057
0.00132036
0.00133061
0.00134129
0.00135232
0.00136362
0.00137509
0.00138662
0.0013981
0.00140938
0.0014206
0.00143043
0.00144579
0.000999829
0.000998898
0.000997927
0.000996915
0.000995864
0.000994774
0.000993649
0.000992492
0.000991307
0.000990099
0.000988873
0.000987637
0.000986398
0.000985162
0.000983938
0.000982735
0.00098156
0.000980423
0.000979332
0.000978296
0.000977322
0.00097642
0.000975598
0.000974864
0.000974227
0.000973695
0.000973275
0.000972976
0.000972803
0.000972762
0.000972858
0.000973095
0.000973473
0.000973995
0.000974657
0.00097546
0.000976398
0.000977469
0.000978669
0.000979993
0.00098144
0.000983008
0.000984699
0.000986515
0.000988464
0.000990555
0.000992804
0.000995226
0.000997846
0.00100069
0.00100378
0.00100717
0.00101087
0.00101493
0.0010194
0.0010243
0.00102968
0.00103558
0.00104203
0.00104903
0.00105661
0.00106476
0.00107346
0.00108265
0.00109228
0.00110227
0.00111252
0.00112292
0.00113338
0.00114377
0.001154
0.00116399
0.00117367
0.001183
0.00119195
0.00120052
0.00120874
0.00121663
0.00122425
0.00123164
0.00123889
0.00124605
0.00125321
0.00126045
0.00126786
0.00127549
0.00128344
0.00129176
0.00130049
0.00130964
0.00131921
0.00132917
0.00133946
0.00135
0.00136071
0.0013715
0.00138224
0.00139305
0.00140259
0.00141785
0.00100354
0.00100296
0.00100235
0.00100172
0.00100106
0.00100037
0.000999656
0.000998921
0.000998166
0.000997393
0.000996606
0.000995809
0.000995006
0.000994204
0.000993406
0.00099262
0.00099185
0.000991104
0.000990387
0.000989705
0.000989066
0.000988475
0.000987938
0.00098746
0.000987049
0.000986708
0.000986444
0.00098626
0.000986161
0.000986151
0.000986231
0.000986404
0.000986672
0.000987034
0.000987491
0.000988042
0.000988685
0.00098942
0.000990245
0.00099116
0.000992165
0.000993264
0.000994459
0.000995759
0.000997171
0.000998709
0.00100039
0.00100223
0.00100426
0.0010065
0.00100899
0.00101176
0.00101485
0.0010183
0.00102215
0.00102644
0.00103121
0.00103649
0.00104231
0.00104869
0.00105563
0.00106313
0.00107117
0.0010797
0.00108866
0.00109797
0.00110755
0.0011173
0.0011271
0.00113687
0.00114649
0.00115591