/*--------------------------------*- C++ -*----------------------------------*\
  =========                 |
  \\      /  F ield         | OpenFOAM: The Open Source CFD Toolbox
   \\    /   O peration     | Website:  https://openfoam.org
    \\  /    A nd           | Version:  10
     \\/     M anipulation  |
\*---------------------------------------------------------------------------*/
FoamFile
{
    format      ascii;
    class       volScalarField;
    location    "0.12";
    object      p;
}
// * * * * * * * * * * * * * * * * * * * * * * * * * * * * * * * * * * * * * //

dimensions      [0 2 -2 0 0 0 0];

internalField   nonuniform List<scalar> 
6820
(
-8.80604
-10.1701
-10.5837
-10.6794
-10.7605
-10.8122
-10.8435
-10.8683
-10.8898
-10.9089
-10.9266
-10.9435
-10.9598
-10.9757
-10.9912
-11.0066
-11.0217
-11.0366
-11.0514
-11.066
-11.0805
-11.0946
-11.1085
-11.1219
-11.1347
-11.1463
-11.1563
-11.1634
-11.1661
-11.1577
-11.1365
-11.0633
-10.9097
-11.6062
-11.2019
-10.9081
-10.8129
-10.8145
-10.8316
-10.8501
-10.8702
-10.8901
-10.9089
-10.9266
-10.9434
-10.9595
-10.9751
-10.9903
-11.0052
-11.0198
-11.0343
-11.0487
-11.0629
-11.0769
-11.0908
-11.1045
-11.1177
-11.1305
-11.1425
-11.1533
-11.1629
-11.1692
-11.1776
-11.1726
-11.214
-11.2368
-10.4632
-10.335
-10.56
-10.6979
-10.7598
-10.8045
-10.8369
-10.8627
-10.8849
-10.9045
-10.9225
-10.9395
-10.9559
-10.9717
-10.9872
-11.0025
-11.0175
-11.0324
-11.0471
-11.0617
-11.0762
-11.0905
-11.1045
-11.1182
-11.1314
-11.144
-11.1557
-11.1663
-11.175
-11.1835
-11.1874
-11.2023
-11.208
-10.8297
-10.8465
-10.8223
-10.7996
-10.8081
-10.8288
-10.8492
-10.8689
-10.8881
-10.9063
-10.9237
-10.9403
-10.9564
-10.9721
-10.9875
-11.0026
-11.0175
-11.0322
-11.0468
-11.0613
-11.0757
-11.0899
-11.1039
-11.1177
-11.1312
-11.1443
-11.1569
-11.1692
-11.1807
-11.1941
-11.2075
-11.2358
-11.2732
-10.7197
-10.6658
-10.7098
-10.7547
-10.7901
-10.8205
-10.8455
-10.8674
-10.8874
-10.9059
-10.9233
-10.9399
-10.9559
-10.9716
-10.9869
-11.0019
-11.0168
-11.0316
-11.0462
-11.0608
-11.0752
-11.0896
-11.1038
-11.118
-11.1319
-11.1457
-11.1593
-11.1731
-11.1871
-11.2032
-11.2214
-11.2492
-11.284
-10.7604
-10.7536
-10.7721
-10.7893
-10.8079
-10.8296
-10.8506
-10.8703
-10.8891
-10.9069
-10.9239
-10.9402
-10.9561
-10.9716
-10.9868
-11.0018
-11.0166
-11.0313
-11.046
-11.0605
-11.075
-11.0894
-11.1038
-11.1182
-11.1325
-11.1469
-11.1614
-11.1765
-11.1924
-11.2106
-11.2318
-11.2603
-11.2954
-10.7596
-10.7489
-10.7638
-10.7855
-10.8077
-10.8304
-10.8517
-10.8712
-10.8897
-10.9073
-10.9241
-10.9403
-10.956
-10.9714
-10.9865
-11.0014
-11.0162
-11.0309
-11.0455
-11.06
-11.0746
-11.0891
-11.1036
-11.1183
-11.133
-11.1479
-11.1633
-11.1794
-11.1967
-11.2163
-11.2389
-11.2667
-11.2995
-10.7691
-10.7661
-10.7793
-10.7975
-10.8159
-10.8355
-10.8548
-10.8733
-10.891
-10.908
-10.9245
-10.9404
-10.9559
-10.9712
-10.9861
-11.001
-11.0157
-11.0303
-11.0449
-11.0594
-11.074
-11.0886
-11.1033
-11.1181
-11.1332
-11.1486
-11.1646
-11.1815
-11.1998
-11.2201
-11.2431
-11.27
-11.3005
-10.7776
-10.7765
-10.787
-10.803
-10.8203
-10.8388
-10.8572
-10.8749
-10.8921
-10.9087
-10.9248
-10.9404
-10.9558
-10.9708
-10.9857
-11.0004
-11.015
-11.0296
-11.0441
-11.0586
-11.0732
-11.0879
-11.1027
-11.1177
-11.1331
-11.1488
-11.1653
-11.1827
-11.2014
-11.2221
-11.2449
-11.2706
-11.2989
-10.786
-10.7865
-10.796
-10.8103
-10.826
-10.8429
-10.8601
-10.8769
-10.8934
-10.9095
-10.9252
-10.9405
-10.9556
-10.9705
-10.9852
-10.9997
-11.0142
-11.0287
-11.0432
-11.0577
-11.0722
-11.0869
-11.1018
-11.117
-11.1325
-11.1485
-11.1652
-11.1829
-11.2018
-11.2223
-11.2447
-11.2692
-11.2956
-10.7942
-10.7955
-10.8039
-10.8167
-10.831
-10.8467
-10.8628
-10.8788
-10.8947
-10.9102
-10.9255
-10.9406
-10.9554
-10.97
-10.9845
-10.999
-11.0133
-11.0277
-11.042
-11.0565
-11.071
-11.0857
-11.1006
-11.1158
-11.1314
-11.1475
-11.1644
-11.1821
-11.201
-11.2212
-11.2428
-11.2661
-11.2907
-10.8019
-10.8037
-10.8113
-10.8228
-10.836
-10.8505
-10.8656
-10.8808
-10.896
-10.911
-10.9259
-10.9406
-10.9551
-10.9695
-10.9838
-10.9981
-11.0123
-11.0265
-11.0407
-11.0551
-11.0695
-11.0842
-11.0991
-11.1142
-11.1298
-11.146
-11.1627
-11.1804
-11.1989
-11.2186
-11.2395
-11.2615
-11.2846
-10.8093
-10.8112
-10.8182
-10.8286
-10.8407
-10.8541
-10.8683
-10.8827
-10.8973
-10.9118
-10.9262
-10.9405
-10.9548
-10.9689
-10.983
-10.997
-11.0111
-11.0251
-11.0392
-11.0534
-11.0678
-11.0823
-11.0971
-11.1122
-11.1277
-11.1437
-11.1603
-11.1777
-11.1958
-11.2149
-11.2349
-11.2558
-11.2774
-10.8161
-10.8181
-10.8245
-10.8339
-10.8451
-10.8576
-10.8709
-10.8846
-10.8985
-10.9125
-10.9265
-10.9404
-10.9543
-10.9682
-10.982
-10.9959
-11.0097
-11.0236
-11.0375
-11.0516
-11.0657
-11.0801
-11.0948
-11.1097
-11.125
-11.1408
-11.1571
-11.1741
-11.1917
-11.2101
-11.2291
-11.2489
-11.2692
-10.8224
-10.8244
-10.8303
-10.8389
-10.8492
-10.8608
-10.8733
-10.8863
-10.8997
-10.9131
-10.9267
-10.9402
-10.9538
-10.9674
-10.9809
-10.9945
-11.0081
-11.0218
-11.0355
-11.0494
-11.0634
-11.0776
-11.092
-11.1067
-11.1217
-11.1372
-11.1532
-11.1696
-11.1866
-11.2042
-11.2224
-11.241
-11.26
-10.8282
-10.83
-10.8355
-10.8434
-10.853
-10.8638
-10.8756
-10.888
-10.9007
-10.9137
-10.9268
-10.9399
-10.9531
-10.9664
-10.9797
-10.993
-11.0063
-11.0198
-11.0333
-11.0469
-11.0606
-11.0746
-11.0887
-11.1032
-11.1179
-11.133
-11.1484
-11.1643
-11.1807
-11.1975
-11.2147
-11.2322
-11.25
-10.8334
-10.8352
-10.8402
-10.8475
-10.8564
-10.8666
-10.8777
-10.8894
-10.9016
-10.914
-10.9267
-10.9395
-10.9523
-10.9653
-10.9782
-10.9913
-11.0043
-11.0175
-11.0307
-11.0441
-11.0576
-11.0712
-11.085
-11.0991
-11.1134
-11.1281
-11.143
-11.1583
-11.1739
-11.1899
-11.2061
-11.2226
-11.2392
-10.8381
-10.8397
-10.8444
-10.8512
-10.8595
-10.869
-10.8795
-10.8906
-10.9023
-10.9142
-10.9265
-10.9388
-10.9513
-10.9639
-10.9766
-10.9893
-11.0021
-11.015
-11.0279
-11.041
-11.0541
-11.0674
-11.0809
-11.0945
-11.1084
-11.1225
-11.1369
-11.1515
-11.1664
-11.1814
-11.1967
-11.2122
-11.2277
-10.8422
-10.8437
-10.8481
-10.8544
-10.8621
-10.8711
-10.881
-10.8916
-10.9027
-10.9142
-10.926
-10.938
-10.9502
-10.9624
-10.9747
-10.9871
-10.9996
-11.0121
-11.0248
-11.0375
-11.0503
-11.0632
-11.0763
-11.0895
-11.1028
-11.1164
-11.1301
-11.144
-11.1581
-11.1723
-11.1866
-11.201
-11.2154
-10.8457
-10.8471
-10.8512
-10.8571
-10.8643
-10.8728
-10.8822
-10.8923
-10.9029
-10.914
-10.9254
-10.937
-10.9487
-10.9606
-10.9726
-10.9847
-10.9968
-11.009
-11.0213
-11.0336
-11.0461
-11.0586
-11.0712
-11.0839
-11.0967
-11.1096
-11.1227
-11.1359
-11.1491
-11.1624
-11.1758
-11.1892
-11.2025
-10.8487
-10.85
-10.8538
-10.8593
-10.8661
-10.8741
-10.883
-10.8927
-10.9029
-10.9135
-10.9245
-10.9357
-10.9471
-10.9586
-10.9703
-10.982
-10.9938
-11.0056
-11.0175
-11.0295
-11.0415
-11.0535
-11.0656
-11.0778
-11.0901
-11.1024
-11.1147
-11.1271
-11.1396
-11.152
-11.1644
-11.1767
-11.189
-10.851
-10.8522
-10.8558
-10.861
-10.8675
-10.875
-10.8835
-10.8927
-10.9025
-10.9127
-10.9233
-10.9341
-10.9452
-10.9564
-10.9676
-10.979
-10.9904
-11.0019
-11.0134
-11.0249
-11.0365
-11.048
-11.0596
-11.0713
-11.0829
-11.0946
-11.1062
-11.1178
-11.1294
-11.1409
-11.1524
-11.1637
-11.1749
-10.8528
-10.8539
-10.8573
-10.8622
-10.8683
-10.8755
-10.8835
-10.8924
-10.9018
-10.9116
-10.9218
-10.9323
-10.943
-10.9538
-10.9648
-10.9758
-10.9868
-10.9979
-11.009
-11.0201
-11.0311
-11.0422
-11.0533
-11.0643
-11.0753
-11.0863
-11.0972
-11.108
-11.1188
-11.1294
-11.1399
-11.1503
-11.1604
-10.8539
-10.855
-10.8582
-10.8628
-10.8686
-10.8754
-10.8831
-10.8916
-10.9006
-10.9101
-10.92
-10.9301
-10.9405
-10.9509
-10.9615
-10.9721
-10.9828
-10.9935
-11.0041
-11.0148
-11.0254
-11.036
-11.0465
-11.0569
-11.0673
-11.0776
-11.0877
-11.0978
-11.1077
-11.1174
-11.127
-11.1364
-11.1455
-10.8544
-10.8554
-10.8584
-10.8628
-10.8684
-10.8749
-10.8823
-10.8905
-10.8992
-10.9084
-10.9179
-10.9277
-10.9378
-10.9479
-10.9581
-10.9684
-10.9787
-10.9889
-10.9991
-11.0093
-11.0194
-11.0295
-11.0394
-11.0492
-11.059
-11.0685
-11.078
-11.0872
-11.0963
-11.1052
-11.1138
-11.1222
-11.1303
-10.8542
-10.8552
-10.858
-10.8622
-10.8674
-10.8737
-10.8808
-10.8887
-10.8971
-10.906
-10.9152
-10.9247
-10.9344
-10.9442
-10.9541
-10.964
-10.9739
-10.9838
-10.9936
-11.0033
-11.013
-11.0225
-11.0319
-11.0411
-11.0502
-11.0591
-11.0677
-11.0762
-11.0845
-11.0925
-11.1002
-11.1077
-11.1148
-10.8534
-10.8543
-10.8571
-10.8611
-10.8662
-10.8723
-10.8793
-10.8869
-10.8951
-10.9038
-10.9127
-10.9219
-10.9313
-10.9408
-10.9504
-10.9599
-10.9694
-10.9789
-10.9882
-10.9975
-11.0066
-11.0156
-11.0244
-11.033
-11.0414
-11.0496
-11.0575
-11.0652
-11.0727
-11.0798
-11.0866
-11.0932
-11.0994
-10.8518
-10.8526
-10.8551
-10.8588
-10.8636
-10.8693
-10.876
-10.8834
-10.8914
-10.8998
-10.9086
-10.9176
-10.9267
-10.936
-10.9453
-10.9545
-10.9638
-10.9729
-10.9818
-10.9907
-10.9993
-11.0078
-11.0161
-11.0241
-11.0319
-11.0395
-11.0467
-11.0537
-11.0604
-11.0667
-11.0727
-11.0784
-11.0837
-10.8496
-10.8507
-10.8533
-10.8572
-10.8621
-10.868
-10.8746
-10.8819
-10.8897
-10.8979
-10.9064
-10.9151
-10.924
-10.9329
-10.9418
-10.9506
-10.9594
-10.9681
-10.9766
-10.9849
-10.993
-11.0009
-11.0086
-11.016
-11.0231
-11.0299
-11.0365
-11.0427
-11.0485
-11.0541
-11.0592
-11.064
-11.0684
-10.8463
-10.8466
-10.8482
-10.8512
-10.8555
-10.861
-10.8675
-10.8747
-10.8825
-10.8908
-10.8994
-10.9082
-10.917
-10.9259
-10.9348
-10.9436
-10.9522
-10.9607
-10.9689
-10.977
-10.9847
-10.9923
-10.9995
-11.0064
-11.013
-11.0193
-11.0253
-11.0308
-11.036
-11.0409
-11.0453
-11.0493
-11.0529
-10.8437
-10.8457
-10.8488
-10.8527
-10.8575
-10.8631
-10.8694
-10.8764
-10.8838
-10.8917
-10.8997
-10.908
-10.9163
-10.9246
-10.9329
-10.9411
-10.9491
-10.957
-10.9646
-10.972
-10.9792
-10.9861
-10.9926
-10.9989
-11.0048
-11.0104
-11.0156
-11.0204
-11.0248
-11.0288
-11.0324
-11.0356
-11.0383
-10.8356
-10.8335
-10.8332
-10.8353
-10.8395
-10.8454
-10.8524
-10.8603
-10.8687
-10.8775
-10.8865
-10.8955
-10.9046
-10.9135
-10.9223
-10.9308
-10.9391
-10.9472
-10.9549
-10.9624
-10.9695
-10.9762
-10.9826
-10.9885
-10.9941
-10.9993
-11.0041
-11.0084
-11.0123
-11.0158
-11.0188
-11.0214
-11.0235
-10.8404
-10.8459
-10.85
-10.853
-10.8566
-10.8611
-10.8666
-10.8728
-10.8795
-10.8866
-10.894
-10.9016
-10.9093
-10.9169
-10.9245
-10.932
-10.9392
-10.9463
-10.9531
-10.9596
-10.9659
-10.9717
-10.9773
-10.9824
-10.9872
-10.9916
-10.9956
-10.9991
-11.0022
-11.0049
-11.0071
-11.0089
-11.0102
-10.8112
-10.8002
-10.7968
-10.8004
-10.8076
-10.8164
-10.8262
-10.8366
-10.8472
-10.8578
-10.8683
-10.8786
-10.8886
-10.8982
-10.9074
-10.9162
-10.9247
-10.9327
-10.9402
-10.9473
-10.954
-10.9602
-10.9659
-10.9712
-10.976
-10.9803
-10.9841
-10.9875
-10.9903
-10.9927
-10.9945
-10.9959
-10.9967
-10.858
-10.874
-10.8752
-10.8693
-10.8669
-10.8677
-10.8703
-10.8742
-10.8791
-10.8847
-10.8908
-10.8973
-10.904
-10.9107
-10.9174
-10.9239
-10.9304
-10.9366
-10.9425
-10.9481
-10.9535
-10.9584
-10.963
-10.9672
-10.971
-10.9743
-10.9772
-10.9796
-10.9816
-10.9831
-10.9842
-10.9847
-10.9848
-10.7484
-10.7103
-10.7048
-10.7282
-10.748
-10.7658
-10.7834
-10.8002
-10.8159
-10.8307
-10.8444
-10.8573
-10.8693
-10.8804
-10.8909
-10.9006
-10.9096
-10.918
-10.9258
-10.933
-10.9396
-10.9456
-10.951
-10.9558
-10.9601
-10.9638
-10.967
-10.9696
-10.9717
-10.9732
-10.9741
-10.9746
-10.9744
-10.9601
-10.9845
-10.955
-10.9182
-10.8945
-10.8864
-10.8829
-10.8817
-10.883
-10.8859
-10.8899
-10.8946
-10.8997
-10.9052
-10.9108
-10.9163
-10.9218
-10.9271
-10.9322
-10.937
-10.9416
-10.9457
-10.9495
-10.9529
-10.9558
-10.9583
-10.9604
-10.962
-10.9631
-10.9637
-10.9639
-10.9636
-10.9628
-10.5445
-10.4627
-10.5197
-10.6004
-10.6564
-10.6943
-10.7272
-10.7558
-10.7802
-10.8014
-10.8201
-10.8367
-10.8515
-10.8649
-10.877
-10.8879
-10.8979
-10.9069
-10.9151
-10.9225
-10.9292
-10.9352
-10.9404
-10.945
-10.949
-10.9523
-10.955
-10.9572
-10.9586
-10.9596
-10.9599
-10.9596
-10.9587
-11.5207
-11.2426
-11.0367
-10.9452
-10.908
-10.8869
-10.8737
-10.8677
-10.8664
-10.8678
-10.8711
-10.8757
-10.8809
-10.8866
-10.8925
-10.8984
-10.9042
-10.9098
-10.9151
-10.9202
-10.9248
-10.9291
-10.933
-10.9364
-10.9393
-10.9418
-10.9438
-10.9452
-10.9462
-10.9466
-10.9466
-10.946
-10.9449
-9.56262
-10.1241
-10.4286
-10.5444
-10.6256
-10.6886
-10.7333
-10.7667
-10.7935
-10.8153
-10.8334
-10.8489
-10.8623
-10.8742
-10.8849
-10.8944
-10.903
-10.9108
-10.9178
-10.9241
-10.9298
-10.9348
-10.9391
-10.9428
-10.946
-10.9485
-10.9504
-10.9518
-10.9526
-10.9528
-10.9524
-10.9515
-10.95
-10.8603
-11.2418
-11.3385
-11.4308
-11.5222
-11.5936
-11.6555
-11.7218
-11.8008
-11.8915
-11.9934
-12.1035
-12.2173
-12.3304
-12.4385
-12.5381
-12.6264
-12.7013
-12.7614
-12.8059
-12.8344
-12.8469
-12.8434
-12.8241
-12.7893
-12.7389
-12.6733
-12.5923
-12.4962
-12.385
-12.259
-12.1184
-11.9635
-11.7949
-11.6131
-11.4189
-11.2131
-10.9968
-10.7708
-10.5363
-10.2944
-10.046
-9.79209
-9.53344
-9.27067
-9.00416
-8.73405
-8.4602
-8.1822
-7.89935
-7.61072
-7.31518
-7.01143
-6.6981
-6.37383
-6.03739
-5.68778
-5.3244
-4.94717
-4.55677
-4.1548
-3.74409
-3.32882
-2.91466
-2.50841
-2.11731
-1.7481
-1.40654
-1.09713
-0.822979
-0.585609
-0.384987
-0.219658
-0.0870322
0.01626
0.0940104
0.150113
0.18833
0.212119
0.224554
0.228276
0.225504
0.218049
0.207367
0.194589
0.180577
0.165967
0.151203
0.136609
0.122336
0.108591
0.095257
0.082676
0.0701903
0.0589947
0.0466514
0.0376547
0.0232214
0.0196672
-0.00391843
-11.6244
-11.8232
-11.7392
-11.6668
-11.6391
-11.6316
-11.6416
-11.6802
-11.7439
-11.8289
-11.9306
-12.043
-12.1596
-12.2745
-12.3832
-12.4821
-12.5687
-12.6413
-12.699
-12.7413
-12.768
-12.779
-12.7745
-12.7544
-12.7191
-12.6684
-12.6026
-12.5217
-12.4258
-12.3152
-12.1899
-12.0503
-11.8967
-11.7295
-11.5495
-11.3573
-11.1537
-10.9397
-10.7163
-10.4844
-10.2452
-9.9995
-9.74829
-9.49229
-9.23209
-8.96805
-8.70028
-8.42863
-8.15267
-7.87172
-7.58485
-7.29095
-6.98873
-6.67685
-6.35399
-6.01894
-5.67073
-5.30884
-4.93331
-4.54505
-4.14599
-3.7393
-3.32945
-2.92208
-2.52352
-2.14015
-1.77799
-1.44234
-1.13749
-0.866468
-0.630813
-0.430596
-0.264533
-0.130247
-0.0246011
0.0559733
0.115172
0.156592
0.183566
0.199076
0.2057
0.205619
0.200628
0.192175
0.181396
0.169166
0.156137
0.142771
0.129409
0.116224
0.103436
0.0909481
0.0791094
0.0672898
0.0566657
0.0448698
0.0362869
0.0223868
0.0190226
-0.00377835
-11.266
-11.3335
-11.3743
-11.4319
-11.4994
-11.5611
-11.6214
-11.679
-11.7477
-11.8273
-11.9168
-12.0141
-12.1157
-12.2179
-12.3171
-12.4096
-12.4927
-12.5638
-12.6213
-12.664
-12.6912
-12.7027
-12.6985
-12.6786
-12.6433
-12.5928
-12.5271
-12.4466
-12.3513
-12.2415
-12.1172
-11.9788
-11.8268
-11.6614
-11.4835
-11.2935
-11.0924
-10.881
-10.6603
-10.4312
-10.1947
-9.95181
-9.70331
-9.44992
-9.19219
-8.93045
-8.66479
-8.39507
-8.12084
-7.84143
-7.55593
-7.26323
-6.96209
-6.65119
-6.32925
-5.99517
-5.6481
-5.28771
-4.91433
-4.52912
-4.13427
-3.73313
-3.33012
-2.93047
-2.53986
-2.16408
-1.8087
-1.47874
-1.17832
-0.910371
-0.676433
-0.476657
-0.309914
-0.17403
-0.0660876
0.0172644
0.0795279
0.124137
0.154297
0.172897
0.18245
0.185098
0.182613
0.176436
0.167708
0.15731
0.145911
0.133988
0.121904
0.109848
0.0980542
0.0864475
0.0753813
0.0642564
0.0542268
0.0430044
0.03485
0.0215125
0.0183374
-0.00363565
-11.3796
-11.5198
-11.5798
-11.5974
-11.614
-11.6334
-11.6588
-11.6961
-11.7506
-11.819
-11.9005
-11.9909
-12.0858
-12.181
-12.2725
-12.3573
-12.4327
-12.4968
-12.5483
-12.5862
-12.6101
-12.6194
-12.6141
-12.5939
-12.5588
-12.5089
-12.4442
-12.3648
-12.2708
-12.1624
-12.0398
-11.9032
-11.7532
-11.59
-11.4144
-11.2271
-11.0287
-10.8201
-10.6022
-10.376
-10.1424
-9.90232
-9.65647
-9.40557
-9.15012
-8.89044
-8.62662
-8.35847
-8.08558
-7.80729
-7.52272
-7.2308
-6.93035
-6.62015
-6.29905
-5.96609
-5.62063
-5.26255
-4.89236
-4.51142
-4.12205
-3.72752
-3.33197
-2.94016
-2.55732
-2.18885
-1.84002
-1.51559
-1.21952
-0.954608
-0.722397
-0.523106
-0.355745
-0.218331
-0.108156
-0.0220788
0.0432114
0.0909881
0.12433
0.146029
0.158535
0.163943
0.164004
0.160148
0.153517
0.145
0.13528
0.124849
0.114086
0.1032
0.0924396
0.0817488
0.0714862
0.061085
0.0516743
0.0410506
0.0333428
0.020593
0.0176163
-0.00349703
-11.345
-11.4104
-11.4431
-11.4732
-11.5147
-11.5605
-11.6095
-11.6635
-11.7272
-11.7993
-11.8776
-11.9615
-12.0485
-12.1352
-12.2189
-12.2968
-12.3666
-12.4263
-12.4743
-12.5096
-12.5312
-12.5387
-12.5319
-12.5105
-12.4747
-12.4244
-12.3596
-12.2806
-12.1873
-12.08
-11.9587
-11.8239
-11.6759
-11.515
-11.3419
-11.1572
-10.9616
-10.7559
-10.541
-10.3178
-10.0871
-9.84968
-9.60642
-9.35789
-9.10459
-8.84679
-8.58457
-8.31778
-8.04601
-7.76865
-7.48487
-7.19369
-6.89403
-6.58479
-6.26497
-5.93374
-5.59067
-5.23577
-4.86973
-4.49399
-4.11081
-3.72327
-3.33519
-2.95104
-2.57571
-2.21431
-1.87184
-1.55282
-1.26101
-0.999118
-0.768651
-0.569889
-0.401973
-0.263096
-0.150755
-0.0620095
0.00626532
0.057184
0.093698
0.118502
0.133977
0.142174
0.144817
0.143324
0.138834
0.132246
0.12425
0.115356
0.105958
0.0962839
0.0865935
0.0768532
0.0674253
0.0577767
0.0490094
0.0390096
0.0317668
0.0196289
0.0168617
-0.00336391
-11.3487
-11.4175
-11.4716
-11.5132
-11.5516
-11.5891
-11.6288
-11.6733
-11.7253
-11.788
-11.8583
-11.9342
-12.0132
-12.0923
-12.1686
-12.2396
-12.3029
-12.3568
-12.3997
-12.4306
-12.4488
-12.4537
-12.445
-12.4225
-12.3861
-12.3356
-12.2711
-12.1926
-12.1003
-11.9941
-11.8744
-11.7413
-11.5953
-11.4367
-11.266
-11.084
-10.8912
-10.6884
-10.4764
-10.2561
-10.0282
-9.79359
-9.55291
-9.30676
-9.05559
-8.79968
-8.53909
-8.2737
-8.00312
-7.72681
-7.444
-7.15381
-6.85527
-6.54742
-6.22937
-5.90049
-5.56045
-5.20941
-4.8481
-4.47795
-4.1011
-3.72046
-3.33966
-2.96291
-2.59485
-2.24033
-1.90407
-1.59035
-1.30275
-1.04385
-0.815148
-0.61696
-0.448552
-0.308285
-0.193846
-0.102493
-0.0312796
0.0227505
0.0624223
0.0903321
0.108791
0.119802
0.125059
0.125967
0.123662
0.119046
0.112821
0.105509
0.0975189
0.0890963
0.0805138
0.0717589
0.0631969
0.0543299
0.0462311
0.03688
0.0301217
0.018619
0.0160752
-0.00323881
-11.344
-11.3984
-11.4425
-11.4786
-11.5156
-11.5553
-11.5983
-11.6477
-11.7027
-11.7641
-11.8309
-11.9017
-11.9744
-12.0467
-12.1162
-12.1807
-12.238
-12.2866
-12.3251
-12.3522
-12.3673
-12.3697
-12.359
-12.335
-12.2975
-12.2464
-12.1817
-12.1034
-12.0116
-11.9064
-11.7879
-11.6564
-11.5122
-11.3558
-11.1876
-11.0081
-10.8181
-10.6181
-10.4091
-10.1917
-9.96673
-9.73489
-9.49685
-9.25316
-9.00423
-8.75033
-8.49153
-8.22771
-7.95854
-7.68352
-7.40197
-7.1131
-6.81605
-6.50999
-6.19416
-5.86804
-5.53141
-5.18449
-4.82804
-4.46345
-4.0928
-3.71888
-3.34515
-2.9756
-2.61464
-2.26684
-1.93665
-1.62814
-1.34469
-1.08877
-0.861844
-0.664275
-0.495437
-0.353851
-0.237387
-0.143489
-0.0693889
-0.0122822
0.0305285
0.0615406
0.0829928
0.096838
0.10474
0.108085
0.108006
0.105405
0.100994
0.0953072
0.0887675
0.0816368
0.0741996
0.0664647
0.0588
0.0507438
0.0433387
0.0346612
0.0284076
0.0175621
0.0152586
-0.00312465
-11.3397
-11.3876
-11.4316
-11.4712
-11.5106
-11.5512
-11.5929
-11.6382
-11.6887
-11.7447
-11.8055
-11.8698
-11.9358
-12.0013
-12.0642
-12.1224
-12.174
-12.2174
-12.2513
-12.2745
-12.2863
-12.286
-12.2733
-12.2477
-12.2091
-12.1574
-12.0925
-12.0144
-11.9231
-11.8188
-11.7015
-11.5716
-11.4292
-11.2749
-11.109
-10.9321
-10.7447
-10.5476
-10.3415
-10.127
-9.90484
-9.67577
-9.44037
-9.19914
-8.95249
-8.70066
-8.44373
-8.1816
-7.91397
-7.64041
-7.36031
-7.07297
-6.77763
-6.47357
-6.16014
-5.83692
-5.50378
-5.16099
-4.80935
-4.45024
-4.08567
-3.71834
-3.35151
-2.98901
-2.63499
-2.29376
-1.96953
-1.66614
-1.38678
-1.13383
-0.908692
-0.711785
-0.542582
-0.39975
-0.281334
-0.184959
-0.108026
-0.0478818
-0.00195571
0.0321507
0.0566019
0.0732987
0.0838713
0.0896872
0.091871
0.0913268
0.0887725
0.0847535
0.0797053
0.0739059
0.0676511
0.0609707
0.0542345
0.0470181
0.0403322
0.0323528
0.0266249
0.0164574
0.0144141
-0.00302442
-11.3342
-11.3767
-11.4176
-11.4556
-11.4933
-11.5321
-11.5734
-11.6178
-11.6665
-11.7194
-11.776
-11.8351
-11.8953
-11.9547
-12.0115
-12.0638
-12.1099
-12.1484
-12.1779
-12.1974
-12.206
-12.2032
-12.1884
-12.1613
-12.1216
-12.0693
-12.0041
-11.9261
-11.8354
-11.7319
-11.6158
-11.4873
-11.3468
-11.1945
-11.0308
-10.8564
-10.6717
-10.4774
-10.2741
-10.0624
-9.8431
-9.61677
-9.38398
-9.14522
-8.90086
-8.65114
-8.39612
-8.13575
-7.86976
-7.59775
-7.31922
-7.03353
-6.74002
-6.43807
-6.12714
-5.80689
-5.47728
-5.13865
-4.79181
-4.43812
-4.07956
-3.7187
-3.35866
-3.00307
-2.65585
-2.32107
-2.00269
-1.70432
-1.429
-1.17898
-0.955649
-0.759445
-0.589938
-0.445934
-0.325642
-0.226859
-0.147151
-0.0840136
-0.0350002
0.00218801
0.0296396
0.0492014
0.0624677
0.0707847
0.0752674
0.0768187
0.0761617
0.0738516
0.0703352
0.0659058
0.0608698
0.0552778
0.0495011
0.0431533
0.0372124
0.0299551
0.0247747
0.0153044
0.0135439
-0.00294131
-11.3277
-11.3663
-11.4047
-11.4418
-11.479
-11.5172
-11.5573
-11.5997
-11.6454
-11.6944
-11.7462
-11.8
-11.8545
-11.9079
-11.9589
-12.0055
-12.0464
-12.08
-12.1052
-12.121
-12.1265
-12.1211
-12.1043
-12.0756
-12.0348
-11.9818
-11.9164
-11.8386
-11.7483
-11.6456
-11.5306
-11.4036
-11.2648
-11.1145
-10.9531
-10.7811
-10.599
-10.4074
-10.2068
-9.99793
-9.78138
-9.55774
-9.32754
-9.09122
-8.84915
-8.60154
-8.34849
-8.08993
-7.82565
-7.55531
-7.27844
-6.99452
-6.70297
-6.40325
-6.09492
-5.77774
-5.45173
-5.11729
-4.77526
-4.42698
-4.07437
-3.7199
-3.36655
-3.01774
-2.67719
-2.34872
-2.03607
-1.74263
-1.47129
-1.22419
-1.00267
-0.807208
-0.637458
-0.492355
-0.370264
-0.269144
-0.186724
-0.120641
-0.0685727
-0.0283197
0.00212951
0.0245658
0.0405454
0.051391
0.0582057
0.0618894
0.0631688
0.0626071
0.0606615
0.0576399
0.0538583
0.0493883
0.0446019
0.039151
0.0339805
0.027469
0.0228581
0.0141028
0.0126502
-0.00287852
-11.3204
-11.3558
-11.3917
-11.4272
-11.463
-11.4997
-11.538
-11.5784
-11.6213
-11.6668
-11.7145
-11.7635
-11.8127
-11.8607
-11.9061
-11.9474
-11.9832
-12.0123
-12.0333
-12.0455
-12.0479
-12.0399
-12.021
-11.9908
-11.9489
-11.8952
-11.8294
-11.7517
-11.6618
-11.5599
-11.4461
-11.3205
-11.1833
-11.0349
-10.8757
-10.706
-10.5264
-10.3374
-10.1395
-9.93338
-9.71952
-9.49852
-9.27086
-9.03698
-8.79719
-8.55172
-8.30067
-8.04399
-7.78151
-7.51293
-7.23785
-6.95582
-6.66635
-6.36898
-6.06337
-5.74936
-5.42704
-5.09685
-4.75965
-4.41677
-4.07007
-3.72192
-3.37515
-3.033
-2.69898
-2.37669
-2.06965
-1.78105
-1.51362
-1.26941
-1.04971
-0.855027
-0.685094
-0.538966
-0.415152
-0.311771
-0.226702
-0.157726
-0.102639
-0.0593424
-0.0259025
-0.000585992
0.018123
0.0315215
0.0406987
0.0465496
0.0498024
0.0510273
0.0506904
0.0491132
0.0466211
0.0433058
0.0395397
0.0350136
0.0306388
0.0248958
0.020877
0.0128528
0.0117357
-0.00283933
-11.3121
-11.3449
-11.3785
-11.4123
-11.4465
-11.4817
-11.5182
-11.5564
-11.5964
-11.6384
-11.682
-11.7263
-11.7704
-11.8132
-11.8534
-11.8896
-11.9206
-11.9452
-11.9622
-11.9708
-11.9702
-11.9596
-11.9386
-11.9068
-11.8637
-11.8093
-11.7432
-11.6655
-11.576
-11.4748
-11.362
-11.2377
-11.1022
-10.9557
-10.7985
-10.6311
-10.4539
-10.2674
-10.0722
-9.86867
-9.65746
-9.43905
-9.2139
-8.98242
-8.74493
-8.50163
-8.25262
-7.99788
-7.73728
-7.47056
-7.1974
-6.91738
-6.63012
-6.33524
-6.03248
-5.72174
-5.40319
-5.07731
-4.74496
-4.40748
-4.06664
-3.72472
-3.38442
-3.04881
-2.72118
-2.40494
-2.10339
-1.81953
-1.55595
-1.31459
-1.09672
-0.902856
-0.732798
-0.585716
-0.460258
-0.354691
-0.267042
-0.195227
-0.137162
-0.0908478
-0.0544283
-0.0262299
-0.00477887
0.011194
0.0227616
0.0308121
0.0360734
0.0391213
0.0404296
0.0403326
0.0391637
0.0370351
0.0343189
0.0307446
0.0271905
0.022238
0.0188337
0.0115551
0.0108031
-0.00282687
-11.3031
-11.3335
-11.3649
-11.3969
-11.4293
-11.4627
-11.4971
-11.5329
-11.5701
-11.6087
-11.6483
-11.6882
-11.7276
-11.7656
-11.8008
-11.8322
-11.8586
-11.8788
-11.892
-11.8971
-11.8934
-11.8803
-11.8573
-11.8238
-11.7795
-11.7243
-11.6578
-11.58
-11.4908
-11.3903
-11.2785
-11.1555
-11.0215
-10.8767
-10.7216
-10.5564
-10.3815
-10.1975
-10.0047
-9.80381
-9.59517
-9.3793
-9.15664
-8.92756
-8.69236
-8.45125
-8.20433
-7.95161
-7.69298
-7.42823
-7.15709
-6.87922
-6.5943
-6.30204
-6.00224
-5.69488
-5.38018
-5.05866
-4.73119
-4.39908
-4.06406
-3.72829
-3.39435
-3.06514
-2.74378
-2.43344
-2.13725
-1.85804
-1.59824
-1.35971
-1.14367
-0.950648
-0.780521
-0.632557
-0.505534
-0.397858
-0.307699
-0.233103
-0.172105
-0.122802
-0.0834175
-0.0523392
-0.0281371
-0.00957176
0.00441139
0.0146915
0.0219946
0.0269004
0.0298889
0.0313063
0.0314936
0.0305826
0.0289449
0.0263488
0.0236396
0.0194986
0.0167314
0.010211
0.00985537
-0.00284422
-11.2931
-11.3215
-11.3509
-11.3809
-11.4115
-11.4429
-11.4752
-11.5084
-11.5428
-11.578
-11.6138
-11.6495
-11.6845
-11.7178
-11.7483
-11.7751
-11.7971
-11.8132
-11.8226
-11.8243
-11.8177
-11.8021
-11.7769
-11.7418
-11.6963
-11.6401
-11.5732
-11.4953
-11.4064
-11.3065
-11.1955
-11.0737
-10.9412
-10.7981
-10.6449
-10.4818
-10.3092
-10.1275
-9.93725
-9.73882
-9.5327
-9.31933
-9.09911
-8.87241
-8.63951
-8.40062
-8.15585
-7.90521
-7.64863
-7.38596
-7.11695
-6.84136
-6.55891
-6.26939
-5.97267
-5.66879
-5.35802
-5.0409
-4.71833
-4.39157
-4.0623
-3.7326
-3.40491
-3.08197
-2.76672
-2.46216
-2.17121
-1.89655
-1.64045
-1.40471
-1.1905
-0.998355
-0.828214
-0.679439
-0.550928
-0.441223
-0.348625
-0.27131
-0.207426
-0.155167
-0.112838
-0.0788852
-0.0519264
-0.0307535
-0.0143325
-0.00179505
0.00758093
0.0143775
0.0190799
0.0220447
0.0236199
0.0239564
0.0234248
0.0218322
0.0199913
0.0166821
0.0145736
0.00882234
0.00889574
-0.00289402
-11.2824
-11.3088
-11.3362
-11.3643
-11.3929
-11.4222
-11.4523
-11.483
-11.5145
-11.5464
-11.5785
-11.6103
-11.641
-11.6699
-11.696
-11.7184
-11.7362
-11.7484
-11.7541
-11.7525
-11.743
-11.7249
-11.6976
-11.6608
-11.614
-11.557
-11.4896
-11.4116
-11.3228
-11.2234
-11.1133
-10.9925
-10.8614
-10.7199
-10.5685
-10.4074
-10.237
-10.0576
-9.86974
-9.67374
-9.47008
-9.25916
-9.04136
-8.81703
-8.58644
-8.34979
-8.1072
-7.85872
-7.60428
-7.34378
-7.07703
-6.80383
-6.52398
-6.23731
-5.94378
-5.64348
-5.3367
-5.02404
-4.70637
-4.38494
-4.06136
-3.73764
-3.41608
-3.09927
-2.78999
-2.49106
-2.20523
-1.935
-1.68255
-1.44956
-1.23717
-1.04593
-0.875828
-0.726312
-0.596392
-0.484735
-0.389772
-0.309802
-0.243083
-0.187906
-0.142654
-0.105837
-0.0761189
-0.0523267
-0.0334483
-0.0186284
-0.0071506
0.00156795
0.00801591
0.0125597
0.0155532
0.0171659
0.0177671
0.0172023
0.0162521
0.0137934
0.0123649
0.00739189
0.00792757
-0.00297859
-11.271
-11.2955
-11.321
-11.3471
-11.3737
-11.4009
-11.4286
-11.4568
-11.4854
-11.5141
-11.5427
-11.5707
-11.5974
-11.6221
-11.644
-11.6622
-11.676
-11.6843
-11.6865
-11.6818
-11.6694
-11.6488
-11.6195
-11.581
-11.5329
-11.475
-11.407
-11.3287
-11.2401
-11.1411
-11.0317
-10.912
-10.7821
-10.6422
-10.4926
-10.3334
-10.165
-9.98788
-9.80228
-9.60865
-9.40738
-9.19886
-8.98345
-8.76148
-8.5332
-8.29881
-8.05846
-7.81219
-7.55997
-7.30174
-7.03736
-6.76667
-6.48953
-6.20584
-5.9156
-5.61896
-5.31625
-5.00807
-4.6953
-4.37916
-4.06122
-3.74337
-3.42782
-3.11701
-2.81356
-2.52012
-2.23926
-1.97337
-1.72449
-1.49421
-1.28363
-1.09333
-0.923314
-0.773124
-0.641872
-0.528343
-0.431091
-0.348532
-0.279032
-0.220977
-0.172828
-0.13316
-0.100685
-0.0742643
-0.0529119
-0.0357869
-0.0221806
-0.011511
-0.00328725
0.00286558
0.00730631
0.0102226
0.0119818
0.0124678
0.0124295
0.0108392
0.0101105
0.00592323
0.00695455
-0.0030995
-11.2587
-11.2815
-11.3051
-11.3292
-11.3538
-11.3788
-11.4042
-11.4298
-11.4556
-11.4812
-11.5064
-11.5307
-11.5536
-11.5743
-11.5922
-11.6065
-11.6164
-11.6211
-11.6199
-11.6121
-11.5969
-11.5739
-11.5425
-11.5023
-11.4529
-11.3941
-11.3255
-11.2469
-11.1584
-11.0598
-10.951
-10.8323
-10.7036
-10.5651
-10.4171
-10.2597
-10.0934
-9.91833
-9.73495
-9.5436
-9.34467
-9.13851
-8.92545
-8.70581
-8.47985
-8.24776
-8.00967
-7.76568
-7.51576
-7.2599
-6.99798
-6.72991
-6.4556
-6.175
-5.88815
-5.59524
-5.29665
-4.99298
-4.68512
-4.37424
-4.06186
-3.74978
-3.44011
-3.13516
-2.83738
-2.54928
-2.27329
-2.01163
-1.76623
-1.53862
-1.32985
-1.1405
-0.970622
-0.819824
-0.687317
-0.571997
-0.472532
-0.387452
-0.315228
-0.254338
-0.203322
-0.160819
-0.12559
-0.0965366
-0.0726964
-0.0532464
-0.0374872
-0.0248395
-0.0148118
-0.00702166
-0.00110633
0.00313944
0.00608064
0.00763904
0.00853241
0.00782673
0.00781635
0.00442081
0.00598032
-0.00325767
-11.2458
-11.2668
-11.2886
-11.3108
-11.3333
-11.3562
-11.3792
-11.4023
-11.4252
-11.4478
-11.4697
-11.4905
-11.5097
-11.5267
-11.5408
-11.5514
-11.5576
-11.5588
-11.5543
-11.5435
-11.5257
-11.5003
-11.4669
-11.425
-11.3742
-11.3144
-11.2451
-11.1663
-11.0777
-10.9794
-10.8712
-10.7533
-10.6258
-10.4886
-10.3422
-10.1865
-10.0221
-9.84907
-9.66783
-9.4787
-9.28204
-9.07818
-8.86744
-8.65012
-8.42647
-8.19668
-7.96091
-7.71925
-7.47171
-7.21829
-6.95895
-6.69361
-6.42223
-6.14481
-5.86144
-5.57235
-5.27793
-4.97879
-4.67582
-4.37015
-4.06325
-3.75685
-3.45293
-3.15368
-2.86143
-2.57853
-2.30726
-2.04972
-1.80773
-1.58274
-1.37578
-1.1874
-1.0177
-0.866361
-0.732675
-0.615643
-0.514042
-0.426511
-0.351622
-0.287944
-0.234094
-0.188775
-0.150801
-0.119111
-0.0927725
-0.07098
-0.053046
-0.0383953
-0.0265374
-0.0170835
-0.00966798
-0.00406846
7.69095e-05
0.00272795
0.00457091
0.004765
0.00548937
0.0028902
0.00500873
-0.0034528
-11.2321
-11.2515
-11.2715
-11.2918
-11.3123
-11.3329
-11.3536
-11.3742
-11.3944
-11.414
-11.4328
-11.4502
-11.466
-11.4794
-11.4899
-11.4968
-11.4996
-11.4975
-11.4898
-11.4761
-11.4556
-11.4279
-11.3925
-11.3489
-11.2969
-11.236
-11.166
-11.0868
-10.9982
-10.9001
-10.7925
-10.6753
-10.5488
-10.4129
-10.2679
-10.1139
-9.95128
-9.7802
-9.60101
-9.41403
-9.21957
-9.01796
-8.8095
-8.59448
-8.37313
-8.14567
-7.91225
-7.67296
-7.42787
-7.17699
-6.9203
-6.65779
-6.38945
-6.11531
-5.83551
-5.55029
-5.26008
-4.96549
-4.66739
-4.36689
-4.06539
-3.76455
-3.46624
-3.17256
-2.88568
-2.60783
-2.34114
-2.08761
-1.84895
-1.62654
-1.42137
-1.23398
-1.0645
-0.912683
-0.777892
-0.659227
-0.555569
-0.465659
-0.388166
-0.321748
-0.265099
-0.216987
-0.176279
-0.141953
-0.113108
-0.0889582
-0.0688298
-0.0521535
-0.0384413
-0.0272992
-0.0183597
-0.011384
-0.00601413
-0.0022519
0.000556564
0.00166411
0.00313707
0.00133802
0.00404338
-0.00368348
-11.2179
-11.2357
-11.2538
-11.2722
-11.2907