/*--------------------------------*- C++ -*----------------------------------*\
  =========                 |
  \\      /  F ield         | OpenFOAM: The Open Source CFD Toolbox
   \\    /   O peration     | Website:  https://openfoam.org
    \\  /    A nd           | Version:  10
     \\/     M anipulation  |
\*---------------------------------------------------------------------------*/
FoamFile
{
    format      ascii;
    class       surfaceScalarField;
    location    "0.12";
    object      phi;
}
// * * * * * * * * * * * * * * * * * * * * * * * * * * * * * * * * * * * * * //

dimensions      [0 3 -1 0 0 0 0];

internalField   nonuniform List<scalar> 
13452
(
6.05771e-05
-3.08627e-07
6.03707e-05
2.06372e-07
5.98987e-05
4.71974e-07
5.92849e-05
6.13837e-07
5.86793e-05
6.05585e-07
5.81422e-05
5.37123e-07
5.76762e-05
4.66017e-07
5.72712e-05
4.05025e-07
5.69158e-05
3.55365e-07
5.66001e-05
3.15666e-07
5.63164e-05
2.83748e-07
5.60587e-05
2.57651e-07
5.58228e-05
2.35893e-07
5.56054e-05
2.17405e-07
5.5404e-05
2.01422e-07
5.52166e-05
1.87405e-07
5.50416e-05
1.74967e-07
5.48778e-05
1.63834e-07
5.4724e-05
1.53807e-07
5.45793e-05
1.44743e-07
5.44427e-05
1.36549e-07
5.43135e-05
1.29175e-07
5.41909e-05
1.22622e-07
5.40739e-05
1.16961e-07
5.39616e-05
1.12359e-07
5.38523e-05
1.09259e-07
5.3744e-05
1.08287e-07
5.36325e-05
1.11586e-07
5.35101e-05
1.22331e-07
5.33632e-05
1.46956e-07
5.31388e-05
2.24405e-07
5.281e-05
3.28811e-07
6.3094e-07
5.2179e-05
6.18026e-05
-1.20919e-07
6.17625e-05
2.46533e-07
6.18792e-05
3.55245e-07
6.20405e-05
4.52499e-07
6.2147e-05
4.99124e-07
6.21761e-05
5.08052e-07
6.21423e-05
4.99805e-07
6.20664e-05
4.80897e-07
6.19649e-05
4.56892e-07
6.18489e-05
4.31633e-07
6.17257e-05
4.06941e-07
6.15998e-05
3.83569e-07
6.14739e-05
3.61787e-07
6.13497e-05
3.41621e-07
6.12281e-05
3.22988e-07
6.11098e-05
3.05766e-07
6.09949e-05
2.8983e-07
6.08837e-05
2.75063e-07
6.07761e-05
2.61366e-07
6.06722e-05
2.48665e-07
6.05718e-05
2.36907e-07
6.04749e-05
2.26073e-07
6.03814e-05
2.16188e-07
6.0291e-05
2.07334e-07
6.02037e-05
1.99692e-07
6.01193e-05
1.93595e-07
6.00379e-05
1.89721e-07
5.99605e-05
1.88952e-07
5.98884e-05
1.94502e-07
5.98301e-05
2.05233e-07
5.98114e-05
2.43082e-07
5.98712e-05
2.69049e-07
3.90852e-07
6.01113e-05
6.36612e-05
-2.07444e-08
6.37528e-05
1.55002e-07
6.38148e-05
2.93217e-07
6.38675e-05
3.99777e-07
6.39105e-05
4.5611e-07
6.39422e-05
4.76421e-07
6.39626e-05
4.79384e-07
6.39703e-05
4.73222e-07
6.39656e-05
4.61552e-07
6.39503e-05
4.46932e-07
6.39264e-05
4.30877e-07
6.38957e-05
4.14255e-07
6.38599e-05
3.97603e-07
6.38202e-05
3.81241e-07
6.37779e-05
3.65352e-07
6.37336e-05
3.50036e-07
6.36881e-05
3.35349e-07
6.36418e-05
3.21319e-07
6.35952e-05
3.07965e-07
6.35486e-05
2.95304e-07
6.35021e-05
2.83366e-07
6.3456e-05
2.722e-07
6.34103e-05
2.61894e-07
6.3365e-05
2.52588e-07
6.33202e-05
2.44534e-07
6.32757e-05
2.38091e-07
6.32314e-05
2.34023e-07
6.31874e-05
2.3297e-07
6.31439e-05
2.37938e-07
6.31018e-05
2.47385e-07
6.30688e-05
2.76058e-07
6.30375e-05
3.00381e-07
3.74938e-07
6.30534e-05
6.55759e-05
-1.36175e-08
6.55537e-05
1.77263e-07
6.55645e-05
2.82431e-07
6.56053e-05
3.58957e-07
6.56544e-05
4.07017e-07
6.56995e-05
4.31283e-07
6.57371e-05
4.41809e-07
6.57668e-05
4.43526e-07
6.57892e-05
4.39188e-07
6.5805e-05
4.31106e-07
6.58151e-05
4.20773e-07
6.58203e-05
4.09073e-07
6.58213e-05
3.9659e-07
6.58188e-05
3.83714e-07
6.58135e-05
3.70709e-07
6.58057e-05
3.57756e-07
6.57961e-05
3.44986e-07
6.57849e-05
3.32498e-07
6.57725e-05
3.20371e-07
6.57591e-05
3.0868e-07
6.5745e-05
2.97505e-07
6.57303e-05
2.8694e-07
6.5715e-05
2.77117e-07
6.56994e-05
2.68214e-07
6.56834e-05
2.6051e-07
6.56672e-05
2.54368e-07
6.56507e-05
2.50475e-07
6.56343e-05
2.49384e-07
6.56191e-05
2.53094e-07
6.56058e-05
2.60754e-07
6.56028e-05
2.79042e-07
6.56079e-05
2.95264e-07
3.25662e-07
6.56572e-05
6.74265e-05
1.66575e-08
6.74515e-05
1.52275e-07
6.74799e-05
2.5402e-07
6.7511e-05
3.27903e-07
6.75418e-05
3.76133e-07
6.75718e-05
4.01333e-07
6.76007e-05
4.12889e-07
6.76279e-05
4.16342e-07
6.76527e-05
4.14397e-07
6.76748e-05
4.08991e-07
6.76942e-05
4.01365e-07
6.7711e-05
3.92266e-07
6.77254e-05
3.82197e-07
6.77376e-05
3.71512e-07
6.77479e-05
3.60463e-07
6.77564e-05
3.49233e-07
6.77634e-05
3.37966e-07
6.77691e-05
3.26778e-07
6.77737e-05
3.1577e-07
6.77774e-05
3.05037e-07
6.77802e-05
2.94682e-07
6.77823e-05
2.8482e-07
6.77838e-05
2.756e-07
6.77848e-05
2.67211e-07
6.77854e-05
2.59924e-07
6.77857e-05
2.5407e-07
6.7786e-05
2.50202e-07
6.77866e-05
2.48739e-07
6.77888e-05
2.50895e-07
6.77935e-05
2.56073e-07
6.78055e-05
2.67047e-07
6.78239e-05
2.76882e-07
2.90336e-07
6.78592e-05
6.93768e-05
2.38393e-08
6.93865e-05
1.42606e-07
6.9405e-05
2.35575e-07
6.94313e-05
3.01588e-07
6.94612e-05
3.46161e-07
6.94911e-05
3.71517e-07
6.95195e-05
3.84454e-07
6.95463e-05
3.89575e-07
6.95713e-05
3.89332e-07
6.95948e-05
3.8554e-07
6.96167e-05
3.79433e-07
6.96372e-05
3.71771e-07
6.96564e-05
3.63056e-07
6.96742e-05
3.53635e-07
6.96909e-05
3.43755e-07
6.97066e-05
3.33598e-07
6.97212e-05
3.23304e-07
6.9735e-05
3.12993e-07
6.9748e-05
3.02768e-07
6.97603e-05
2.92731e-07
6.9772e-05
2.82989e-07
6.97832e-05
2.73662e-07
6.97939e-05
2.64895e-07
6.98042e-05
2.5687e-07
6.98143e-05
2.49822e-07
6.98244e-05
2.44026e-07
6.98347e-05
2.39881e-07
6.98458e-05
2.37661e-07
6.98587e-05
2.37983e-07
6.98744e-05
2.40342e-07
6.9896e-05
2.45476e-07
6.99235e-05
2.49379e-07
2.52179e-07
6.99616e-05
7.13593e-05
3.08362e-08
7.13711e-05
1.30882e-07
7.13922e-05
2.1439e-07
7.14183e-05
2.75499e-07
7.14462e-05
3.18322e-07
7.14735e-05
3.44234e-07
7.14997e-05
3.58222e-07
7.15249e-05
3.64407e-07
7.1549e-05
3.65216e-07
7.15721e-05
3.62405e-07
7.15943e-05
3.57192e-07
7.16158e-05
3.50352e-07
7.16364e-05
3.42394e-07
7.16564e-05
3.33676e-07
7.16757e-05
3.24448e-07
7.16944e-05
3.14895e-07
7.17125e-05
3.05158e-07
7.17302e-05
2.95355e-07
7.17474e-05
2.85592e-07
7.17641e-05
2.75967e-07
7.17805e-05
2.66585e-07
7.17966e-05
2.5756e-07
7.18125e-05
2.49026e-07
7.18282e-05
2.41138e-07
7.1844e-05
2.34088e-07
7.18599e-05
2.28081e-07
7.18764e-05
2.23373e-07
7.1894e-05
2.20101e-07
7.19135e-05
2.18493e-07
7.19357e-05
2.18065e-07
7.19626e-05
2.18662e-07
7.19941e-05
2.17835e-07
2.14501e-07
7.20318e-05
7.34033e-05
3.27644e-08
7.34141e-05
1.20127e-07
7.34329e-05
1.956e-07
7.34564e-05
2.51965e-07
7.34825e-05
2.92264e-07
7.35089e-05
3.17849e-07
7.35346e-05
3.32442e-07
7.35595e-05
3.39513e-07
7.35835e-05
3.41263e-07
7.36066e-05
3.39309e-07
7.3629e-05
3.34827e-07
7.36507e-05
3.28599e-07
7.36719e-05
3.21161e-07
7.36927e-05
3.12887e-07
7.37131e-05
3.04045e-07
7.37332e-05
2.9483e-07
7.3753e-05
2.85391e-07
7.37725e-05
2.75849e-07
7.37918e-05
2.66311e-07
7.38108e-05
2.56874e-07
7.38298e-05
2.47637e-07
7.38486e-05
2.38703e-07
7.38675e-05
2.30188e-07
7.38864e-05
2.22219e-07
7.39056e-05
2.14938e-07
7.39252e-05
2.0848e-07
7.39455e-05
2.02984e-07
7.39672e-05
1.98476e-07
7.39907e-05
1.94947e-07
7.40168e-05
1.91935e-07
7.40466e-05
1.88956e-07
7.408e-05
1.84431e-07
1.77201e-07
7.41173e-05
7.55023e-05
3.29477e-08
7.55124e-05
1.10037e-07
7.55302e-05
1.77824e-07
7.55525e-05
2.29611e-07
7.55774e-05
2.67396e-07
7.56028e-05
2.92382e-07
7.5628e-05
3.07302e-07
7.56525e-05
3.1501e-07
7.56763e-05
3.17492e-07
7.56993e-05
3.16235e-07
7.57218e-05
3.12356e-07
7.57438e-05
3.0663e-07
7.57653e-05
2.99599e-07
7.57866e-05
2.91652e-07
7.58075e-05
2.8307e-07
7.58283e-05
2.7406e-07
7.58489e-05
2.64778e-07
7.58694e-05
2.55354e-07
7.58898e-05
2.45893e-07
7.59102e-05
2.36492e-07
7.59306e-05
2.27244e-07
7.59511e-05
2.1824e-07
7.59717e-05
2.09576e-07
7.59926e-05
2.01349e-07
7.60138e-05
1.93655e-07
7.60358e-05
1.86569e-07
7.60586e-05
1.80139e-07
7.60828e-05
1.74315e-07
7.61087e-05
1.68959e-07
7.6137e-05
1.63646e-07
7.61682e-05
1.57831e-07
7.62021e-05
1.50461e-07
1.40625e-07
7.62387e-05
7.76607e-05
3.17812e-08
7.76704e-05
1.0038e-07
7.7687e-05
1.61237e-07
7.77079e-05
2.08711e-07
7.77314e-05
2.43915e-07
7.77558e-05
2.67909e-07
7.77804e-05
2.82759e-07
7.78046e-05
2.90801e-07
7.78283e-05
2.93796e-07
7.78514e-05
2.93087e-07
7.78741e-05
2.89709e-07
7.78963e-05
2.84409e-07
7.79182e-05
2.77725e-07
7.79398e-05
2.70048e-07
7.79612e-05
2.61667e-07
7.79825e-05
2.52798e-07
7.80036e-05
2.43606e-07
7.80248e-05
2.34221e-07
7.80459e-05
2.24754e-07
7.80671e-05
2.15297e-07
7.80884e-05
2.05937e-07
7.81099e-05
1.96754e-07
7.81316e-05
1.87825e-07
7.81538e-05
1.79216e-07
7.81764e-05
1.70987e-07
7.81998e-05
1.63163e-07
7.82242e-05
1.55733e-07
7.825e-05
1.48595e-07
7.82774e-05
1.41559e-07
7.83068e-05
1.34248e-07
7.83384e-05
1.26172e-07
7.83723e-05
1.16612e-07
1.04938e-07
7.8408e-05
7.98802e-05
2.98857e-08
7.98894e-05
9.12021e-08
7.99049e-05
1.45751e-07
7.99245e-05
1.89053e-07
7.99468e-05
2.21619e-07
7.99704e-05
2.44351e-07
7.99943e-05
2.58833e-07
8.00182e-05
2.66955e-07
8.00417e-05
2.70252e-07
8.00649e-05
2.69928e-07
8.00876e-05
2.66931e-07
8.01101e-05
2.6197e-07
8.01322e-05
2.55566e-07
8.01542e-05
2.48109e-07
8.0176e-05
2.39887e-07
8.01976e-05
2.3112e-07
8.02193e-05
2.21976e-07
8.02409e-05
2.12589e-07
8.02626e-05
2.03067e-07
8.02844e-05
1.935e-07
8.03064e-05
1.83967e-07
8.03286e-05
1.74537e-07
8.03511e-05
1.65268e-07
8.03741e-05
1.56204e-07
8.03978e-05
1.47372e-07
8.04222e-05
1.38764e-07
8.04476e-05
1.30328e-07
8.04742e-05
1.21942e-07
8.05024e-05
1.13403e-07
8.05322e-05
1.04392e-07
8.05639e-05
9.4508e-08
8.05972e-05
8.32593e-08
7.0239e-08
8.06319e-05
8.21627e-05
2.75967e-08
8.21715e-05
8.2451e-08
8.2186e-05
1.31244e-07
8.22045e-05
1.70535e-07
8.22257e-05
2.00447e-07
8.22483e-05
2.21713e-07
8.22716e-05
2.35561e-07
8.2295e-05
2.4352e-07
8.23184e-05
2.46913e-07
8.23415e-05
2.46808e-07
8.23644e-05
2.44067e-07
8.2387e-05
2.39352e-07
8.24094e-05
2.33161e-07
8.24316e-05
2.25871e-07
8.24537e-05
2.17768e-07
8.24758e-05
2.0907e-07
8.24978e-05
1.99944e-07
8.25199e-05
1.90524e-07
8.2542e-05
1.80916e-07
8.25643e-05
1.71205e-07
8.25868e-05
1.61462e-07
8.26096e-05
1.51745e-07
8.26328e-05
1.42096e-07
8.26565e-05
1.32541e-07
8.26807e-05
1.23082e-07
8.27058e-05
1.1369e-07
8.27319e-05
1.04294e-07
8.2759e-05
9.4764e-08
8.27875e-05
8.4912e-08
8.28174e-05
7.44764e-08
8.28488e-05
6.31496e-08
8.28815e-05
5.05942e-08
3.65644e-08
8.29151e-05
8.45102e-05
2.51305e-08
8.45186e-05
7.41151e-08
8.45322e-05
1.17624e-07
8.45497e-05
1.53051e-07
8.45698e-05
1.80299e-07
8.45916e-05
1.99939e-07
8.46142e-05
2.12936e-07
8.46372e-05
2.2052e-07
8.46603e-05
2.23822e-07
8.46833e-05
2.23784e-07
8.47062e-05
2.21177e-07
8.4729e-05
2.16613e-07
8.47516e-05
2.10562e-07
8.47741e-05
2.03385e-07
8.47965e-05
1.95357e-07
8.48188e-05
1.86693e-07
8.48412e-05
1.77558e-07
8.48637e-05
1.6808e-07
8.48862e-05
1.58362e-07
8.49089e-05
1.48484e-07
8.49319e-05
1.3851e-07
8.49552e-05
1.28485e-07
8.49788e-05
1.1844e-07
8.5003e-05
1.08386e-07
8.50277e-05
9.83103e-08
8.50533e-05
8.817e-08
8.50797e-05
7.78872e-08
8.51071e-05
6.73402e-08
8.51356e-05
5.63647e-08
8.51654e-05
4.47543e-08
8.51962e-05
3.22812e-08
8.52281e-05
1.87169e-08
3.92436e-09
8.52607e-05
8.69247e-05
2.26156e-08
8.69326e-05
6.61755e-08
8.69454e-05
1.04794e-07
8.6962e-05
1.36501e-07
8.69812e-05
1.61087e-07
8.70022e-05
1.78982e-07
8.70242e-05
1.90946e-07
8.70467e-05
1.97972e-07
8.70695e-05
2.01015e-07
8.70924e-05
2.00897e-07
8.71153e-05
1.98307e-07
8.71381e-05
1.93802e-07
8.71608e-05
1.87819e-07
8.71835e-05
1.80698e-07
8.72062e-05
1.72703e-07
8.72288e-05
1.6404e-07
8.72515e-05
1.54868e-07
8.72743e-05
1.45311e-07
8.72972e-05
1.35466e-07
8.73203e-05
1.25407e-07
8.73436e-05
1.15189e-07
8.73672e-05
1.04851e-07
8.73912e-05
9.44113e-08
8.74158e-05
8.3872e-08
8.74408e-05
7.32112e-08
8.74666e-05
6.23813e-08
8.74932e-05
5.13058e-08
8.75207e-05
3.98773e-08
8.75491e-05
2.79599e-08
8.75784e-05
1.53958e-08
8.76087e-05
2.02177e-09
8.76397e-05
-1.2314e-08
-2.76773e-08
8.76713e-05
8.9408e-05
2.01258e-08
8.94156e-05
5.86131e-08
8.94277e-05
9.26694e-08
8.94434e-05
1.20792e-07
8.94618e-05
1.42727e-07
8.9482e-05
1.58786e-07
8.95034e-05
1.6957e-07
8.95254e-05
1.75877e-07
8.9548e-05
1.7851e-07
8.95707e-05
1.7818e-07
8.95935e-05
1.75497e-07
8.96163e-05
1.70962e-07
8.96392e-05
1.64977e-07
8.9662e-05
1.57858e-07
8.96849e-05
1.49854e-07
8.97077e-05
1.4116e-07
8.97307e-05
1.31928e-07
8.97537e-05
1.22274e-07
8.97769e-05
1.1229e-07
8.98003e-05
1.02042e-07
8.98239e-05
9.15798e-08
8.98478e-05
8.09335e-08
8.98721e-05
7.0116e-08
8.98968e-05
5.91217e-08
8.99221e-05
4.79251e-08
8.9948e-05
3.64792e-08
8.99746e-05
2.47148e-08
9.00019e-05
1.25416e-08
9.003e-05
-1.46995e-10
9.00589e-05
-1.34702e-08
9.00885e-05
-2.7539e-08
9.01186e-05
-4.24517e-08
-5.82282e-08
9.01492e-05
9.19623e-05
1.77007e-08
9.19695e-05
5.14062e-08
9.1981e-05
8.11745e-08
9.19959e-05
1.05839e-07
9.20135e-05
1.25142e-07
9.2033e-05
1.39298e-07
9.20538e-05
1.4878e-07
9.20755e-05
1.5423e-07
9.20976e-05
1.56319e-07
9.21202e-05
1.55657e-07
9.21429e-05
1.52778e-07
9.21657e-05
1.4813e-07
9.21886e-05
1.42076e-07
9.22116e-05
1.34907e-07
9.22346e-05
1.26856e-07
9.22576e-05
1.18103e-07
9.22808e-05
1.0879e-07
9.2304e-05
9.90266e-08
9.23274e-05
8.88967e-08
9.2351e-05
7.84613e-08
9.23748e-05
6.77629e-08
9.23989e-05
5.68262e-08
9.24234e-05
4.56593e-08
9.24482e-05
3.42534e-08
9.24736e-05
2.25828e-08
9.24994e-05
1.06047e-08
9.25259e-05
-1.73979e-09
9.2553e-05
-1.45232e-08
9.25806e-05
-2.78272e-08
9.26089e-05
-4.17352e-08
9.26377e-05
-5.6322e-08
9.26669e-05
-7.16474e-08
-8.77017e-08
9.26964e-05
9.45895e-05
1.53589e-08
9.45964e-05
4.45304e-08
9.46073e-05
7.02412e-08
9.46216e-05
9.15657e-08
9.46385e-05
1.08258e-07
9.46573e-05
1.20461e-07
9.46775e-05
1.28542e-07
9.46988e-05
1.33019e-07
9.47206e-05
1.34446e-07
9.47429e-05
1.33344e-07
9.47655e-05
1.30176e-07
9.47883e-05
1.25337e-07
9.48113e-05
1.19153e-07
9.48343e-05
1.11888e-07
9.48574e-05
1.03754e-07
9.48806e-05
9.49165e-08
9.49038e-05
8.55076e-08
9.49272e-05
7.56278e-08
9.49508e-05
6.53532e-08
9.49745e-05
5.47388e-08
9.49984e-05
4.38216e-08
9.50227e-05
3.26221e-08
9.50472e-05
2.11453e-08
9.5072e-05
9.38181e-09
9.50973e-05
-2.69178e-09
9.5123e-05
-1.51119e-08
9.51492e-05
-2.79261e-08
9.51759e-05
-4.119e-08
9.5203e-05
-5.49626e-08
9.52306e-05
-6.93007e-08
9.52585e-05
-8.42508e-08
9.52867e-05
-9.98458e-08
-1.16057e-07
9.53151e-05
9.72918e-05
1.31067e-08
9.72983e-05
3.79601e-08
9.73088e-05
5.98086e-08
9.73224e-05
7.79002e-08
9.73387e-05
9.20087e-08
9.73569e-05
1.02221e-07
9.73766e-05
1.08823e-07
9.73974e-05
1.12227e-07
9.7419e-05
1.1289e-07
9.74411e-05
1.11253e-07
9.74635e-05
1.07712e-07
9.74863e-05
1.02613e-07
9.75092e-05
9.62431e-08
9.75322e-05
8.88388e-08
9.75554e-05
8.05907e-08
9.75787e-05
7.165e-08
9.7602e-05
6.21353e-08
9.76255e-05
5.2138e-08
9.76492e-05
4.17264e-08
9.76729e-05
3.09496e-08
9.76969e-05
1.98398e-08
9.77211e-05
8.41424e-09
9.77456e-05
-3.32344e-09
9.77704e-05
-1.53817e-08
9.77955e-05
-2.77803e-08
9.78209e-05
-4.05482e-08
9.78467e-05
-5.37216e-08
9.78728e-05
-6.73408e-08
9.78993e-05
-8.14463e-08
9.79261e-05
-9.60735e-08
9.79531e-05
-1.11248e-07
9.79802e-05
-1.26984e-07
-1.43241e-07
9.80074e-05
0.000100071
1.0943e-08
0.000100078
3.16687e-08
0.000100088
4.98218e-08
0.000100101
6.47778e-08
0.000100116
7.63309e-08
0.000100134
8.4528e-08
0.000100153
8.95859e-08
0.000100174
9.18341e-08
0.000100195
9.16459e-08
0.000100217
8.93892e-08
0.000100239
8.54017e-08
0.000100262
7.99801e-08
0.000100285
7.33755e-08
0.000100308
6.57957e-08
0.000100331
5.74094e-08
0.000100354
4.83513e-08
0.000100378
3.8727e-08
0.000100401
2.86178e-08
0.000100425
1.80844e-08
0.000100448
7.16966e-09
0.000100472
-4.09831e-09
0.000100497
-1.57047e-08
0.000100521
-2.76463e-08
0.000100545
-3.99297e-08
0.00010057
-5.257e-08
0.000100595
-6.55887e-08
0.00010062
-7.90116e-08
0.000100646
-9.28659e-08
0.000100672
-1.07176e-07
0.000100698
-1.21963e-07
0.000100724
-1.37235e-07
0.00010075
-1.52994e-07
-1.6919e-07
0.000100776
0.00010293
8.86305e-09
0.000102936
2.56298e-08
0.000102946
4.02314e-08
0.000102958
5.21385e-08
0.000102974
6.11655e-08
0.000102991
6.73294e-08
0.00010301
7.07928e-08
0.00010303
7.18163e-08
0.000103051
7.07021e-08
0.000103072
6.77541e-08
0.000103094
6.32558e-08
0.000103117
5.74586e-08
0.00010314
5.05778e-08
0.000103163
4.27929e-08
0.000103186
3.42504e-08
0.000103209
2.50675e-08
0.000103232
1.53365e-08
0.000103256
5.12811e-09
0.00010328
-5.50493e-09
0.000103303
-1.65255e-08
0.000103327
-2.79094e-08
0.000103351
-3.96439e-08
0.000103375
-5.17255e-08
0.000103399
-6.41585e-08
0.000103424
-7.69532e-08
0.000103448
-9.01244e-08
0.000103473
-1.03689e-07
0.000103498
-1.17662e-07
0.000103523
-1.32057e-07
0.000103547
-1.4688e-07
0.000103572
-1.62131e-07
0.000103597
-1.77801e-07
-1.93837e-07
0.000103622
0.000105871
6.8602e-09
0.000105877
1.98174e-08
0.000105886
3.09917e-08
0.000105898
3.99273e-08
0.000105913
4.64563e-08
0.000105929
5.05753e-08
0.000105948
5.24037e-08
0.000105968
5.21457e-08
0.000105988
5.00431e-08
0.00010601
4.63434e-08
0.000106032
4.12806e-08
0.000106054
3.50637e-08
0.000106077
2.78736e-08
0.0001061
1.98616e-08
0.000106123
1.11519e-08
0.000106146
1.84412e-09
0.000106169
-7.9836e-09
0.000106193
-1.82711e-08
0.000106216
-2.8974e-08
0.00010624
-4.00609e-08
0.000106263
-5.15115e-08
0.000106287
-6.33145e-08
0.000106311
-7.54662e-08
0.000106334
-8.79686e-08
0.000106358
-1.00828e-07
0.000106382
-1.14052e-07
0.000106406
-1.2765e-07
0.00010643
-1.4163e-07
0.000106454
-1.55993e-07
0.000106478
-1.70739e-07
0.000106502
-1.85857e-07
0.000106525
-2.01332e-07
-2.17109e-07
0.000106549
0.000108895
4.92707e-09
0.000108901
1.4207e-08
0.00010891
2.20618e-08
0.000108922
2.80934e-08
0.000108936
3.21508e-08
0.000108952
3.4217e-08
0.00010897
3.4378e-08
0.00010899
3.27918e-08
0.00010901
2.96491e-08
0.000109031
2.51478e-08
0.000109053
1.94765e-08
0.000109075
1.2805e-08
0.000109098
5.2809e-09
0.000109121
-2.97193e-09
0.000109144
-1.18518e-08
0.000109167
-2.12771e-08
0.00010919
-3.11838e-08
0.000109213
-4.1523e-08
0.000109237
-5.22585e-08
0.00010926
-6.3365e-08
0.000109283
-7.48259e-08
0.000109307
-8.66317e-08
0.00010933
-9.87784e-08
0.000109353
-1.11266e-07
0.000109377
-1.24097e-07
0.0001094
-1.37275e-07
0.000109423
-1.50801e-07
0.000109446
-1.64677e-07
0.000109469
-1.78898e-07
0.000109492
-1.93455e-07
0.000109514
-2.08332e-07
0.000109536
-2.23511e-07
-2.38934e-07
0.000109558
0.000112006
3.05594e-09
0.000112012
8.77497e-09
0.00011202
1.34023e-08
0.000112032
1.65871e-08
0.000112046
1.81949e-08
0.000112062
1.82019e-08
0.00011208
1.6669e-08
0.000112099
1.37176e-08
0.000112119
9.49336e-09
0.00011214
4.15124e-09
0.000112162
-2.16143e-09
0.000112184
-9.31252e-09
0.000112206
-1.71856e-08
0.000112229
-2.56841e-08
0.000112252
-3.47286e-08
0.000112275
-4.42558e-08
0.000112298
-5.4216e-08
0.000112321
-6.45718e-08
0.000112344
-7.52956e-08
0.000112367
-8.63682e-08
0.00011239
-9.77769e-08
0.000112413
-1.09514e-07
0.000112435
-1.21576e-07
0.000112458
-1.33962e-07
0.000112481
-1.4667e-07
0.000112503
-1.59701e-07
0.000112525
-1.73051e-07
0.000112547
-1.86716e-07
0.000112569
-2.00686e-07
0.000112591
-2.14947e-07
0.000112612
-2.29481e-07
0.000112633
-2.44264e-07
-2.59239e-07
0.000112653
0.000115206
1.24082e-09
0.000115212
3.50243e-09
0.00011522
4.98253e-09
0.000115231
5.36892e-09
0.000115245
4.54446e-09
0.000115261
2.48484e-09
0.000115278
-7.67956e-10
0.000115297
-5.1167e-09
0.000115317
-1.04573e-08
0.000115338
-1.66717e-08
0.000115359
-2.36509e-08
0.000115381
-3.12968e-08
0.000115403
-3.95247e-08
0.000115426
-4.82644e-08
0.000115449
-5.7459e-08
0.000115472
-6.70634e-08
0.000115494
-7.7043e-08
0.000115517
-8.73719e-08
0.00011554
-9.80317e-08
0.000115563
-1.09009e-07
0.000115585
-1.20297e-07
0.000115607
-1.31889e-07
0.00011563
-1.43782e-07
0.000115652
-1.55975e-07
0.000115673
-1.68464e-07
0.000115695
-1.81247e-07
0.000115716
-1.94317e-07
0.000115737
-2.07666e-07
0.000115758
-2.21279e-07
0.000115778
-2.35141e-07
0.000115798
-2.49229e-07
0.000115817
-2.6352e-07
-2.77957e-07
0.000115836
0.000118498
-5.28011e-10
0.000118503
-1.63634e-09
0.000118511
-3.24063e-09
0.000118522
-5.61932e-09
0.000118535
-8.86742e-09
0.000118551
-1.30017e-08
0.000118568
-1.79888e-08
0.000118587
-2.37609e-08
0.000118607
-3.02404e-08
0.000118627
-3.73462e-08
0.000118649
-4.50041e-08
0.00011867
-5.31495e-08
0.000118693
-6.17279e-08
0.000118715
-7.0695e-08
0.000118738
-8.00164e-08
0.00011876
-8.96655e-08
0.000118783
-9.96229e-08
0.000118805
-1.09875e-07
0.000118828
-1.20412e-07
0.00011885
-1.31228e-07
0.000118872
-1.4232e-07
0.000118894
-1.53686e-07
0.000118915
-1.65323e-07
0.000118937
-1.7723e-07
0.000118957
-1.89403e-07
0.000118978
-2.01838e-07
0.000118998
-2.14524e-07
0.000119018
-2.27452e-07
0.000119037
-2.40606e-07
0.000119056
-2.53966e-07
0.000119074
-2.67511e-07
0.000119092
-2.81215e-07
-2.95022e-07
0.000119109
0.000121883
-2.24216e-09
0.000121888
-6.6303e-09
0.000121896
-1.1258e-08
0.000121907
-1.63788e-08
0.00012192
-2.20585e-08
0.000121935
-2.82948e-08
0.000121952
-3.50534e-08
0.000121971
-4.22819e-08
0.000121991
-4.99273e-08
0.000122011
-5.79414e-08
0.000122032
-6.6284e-08
0.000122054
-7.49234e-08
0.000122076
-8.38355e-08
0.000122099
-9.30033e-08
0.000122121
-1.02415e-07
0.000122143
-1.12063e-07
0.000122166
-1.21945e-07
0.000122188
-1.32058e-07
0.00012221
-1.42403e-07
0.000122232
-1.52982e-07
0.000122253
-1.63797e-07
0.000122274
-1.74849e-07
0.000122295
-1.86138e-07
0.000122316
-1.97663e-07
0.000122336
-2.0942e-07
0.000122355
-2.21403e-07
0.000122374
-2.33603e-07
0.000122393
-2.46008e-07
0.000122411
-2.586e-07
0.000122428
-2.7136e-07
0.000122445
-2.84264e-07
0.000122461
-2.9729e-07
-3.10382e-07
0.000122476
0.000125365
-3.94862e-09
0.00012537
-1.15621e-08
0.000125378
-1.91827e-08
0.000125389
-2.70342e-08
0.000125402
-3.51433e-08
0.000125417
-4.34834e-08
0.000125434
-5.20181e-08
0.000125452
-6.07088e-08
0.000125472
-6.95254e-08
0.000125492
-7.8449e-08
0.000125514
-8.74714e-08
0.000125535
-9.65924e-08
0.000125557
-1.05817e-07
0.000125579
-1.15156e-07
0.000125602
-1.24619e-07
0.000125624
-1.34219e-07
0.000125646
-1.43968e-07
0.000125668
-1.53879e-07
0.000125689
-1.63962e-07
0.00012571
-1.74226e-07
0.000125731
-1.8468e-07
0.000125752
-1.95329e-07
0.000125772
-2.06176e-07
0.000125791
-2.17221e-07
0.00012581
-2.28462e-07
0.000125829
-2.39893e-07
0.000125847
-2.51504e-07
0.000125864
-2.63282e-07
0.000125881
-2.75211e-07
0.000125897
-2.87272e-07
0.000125912
-2.99441e-07
0.000125926
-3.11695e-07
-3.23984e-07
0.00012594
0.000128947
-5.49583e-09
0.000128951
-1.62082e-08
0.000128959
-2.67892e-08
0.000128969
-3.74388e-08
0.000128982
-4.80924e-08
0.000128997
-5.86532e-08
0.000129014
-6.90558e-08
0.000129033
-7.92659e-08
0.000129053
-8.92776e-08
0.000129073
-9.9107e-08
0.000129095
-1.08784e-07
0.000129116
-1.18345e-07
0.000129139
-1.27829e-07
0.000129161
-1.37274e-07
0.000129183
-1.46718e-07
0.000129205
-1.56193e-07
0.000129226
-1.65729e-07
0.000129248
-1.75352e-07
0.000129269
-1.85083e-07
0.00012929
-1.9494e-07
0.00012931
-2.04937e-07
0.00012933
-2.15084e-07
0.000129349
-2.25387e-07
0.000129368
-2.3585e-07
0.000129386
-2.46472e-07
0.000129403
-2.57246e-07
0.00012942
-2.68165e-07
0.000129436
-2.79216e-07
0.000129451
-2.90384e-07
0.000129465
-3.0165e-07
0.000129479
-3.12992e-07
0.000129491
-3.24388e-07
-3.35792e-07
0.000129503
0.000132631
-7.34454e-09
0.000132636
-2.11275e-08
0.000132644
-3.45872e-08
0.000132654
-4.79182e-08
0.000132667
-6.10122e-08
0.000132682
-7.37262e-08
0.000132699
-8.59687e-08
0.000132717
-9.76972e-08
0.000132737
-1.08916e-07
0.000132758
-1.19663e-07
0.000132779
-1.30001e-07
0.000132801
-1.39997e-07
0.000132822
-1.49724e-07
0.000132844
-1.59248e-07
0.000132866
-1.68631e-07
0.000132888
-1.77929e-07
0.000132909
-1.87189e-07
0.000132931
-1.96452e-07
0.000132951
-2.05751e-07
0.000132971
-2.15114e-07
0.000132991
-2.24563e-07
0.00013301
-2.34112e-07
0.000133028
-2.43773e-07
0.000133046
-2.53552e-07
0.000133063
-2.6345e-07
0.000133079
-2.73464e-07
0.000133095
-2.83587e-07
0.000133109
-2.93809e-07
0.000133123
-3.04115e-07
0.000133136
-3.14488e-07
0.000133148
-3.24908e-07
0.000133159
-3.35354e-07
-3.45783e-07
0.000133169
0.000136419
-8.09827e-09
0.000136423
-2.48134e-08
0.00013643
-4.14891e-08
0.00013644
-5.81194e-08
0.000136453
-7.42147e-08
0.000136469
-8.94555e-08
0.000136487
-1.03723e-07
0.000136506
-1.17013e-07
0.000136526
-1.29389e-07
0.000136548
-1.40952e-07
0.000136569
-1.51817e-07
0.000136592
-1.62105e-07
0.000136614
-1.71928e-07
0.000136636
-1.81386e-07
0.000136658
-1.90572e-07
0.000136679
-1.9956e-07
0.000136701
-2.08418e-07
0.000136721
-2.172e-07
0.000136742
-2.2595e-07
0.000136761
-2.34704e-07
0.00013678
-2.43491e-07
0.000136798
-2.52332e-07
0.000136816
-2.61241e-07
0.000136832
-2.70228e-07
0.000136848
-2.79297e-07
0.000136863
-2.88448e-07
0.000136877
-2.97675e-07
0.000136891
-3.06969e-07
0.000136903
-3.16319e-07
0.000136914
-3.25708e-07
0.000136924
-3.3512e-07
0.000136933
-3.44537e-07
-3.53919e-07
0.000136942
0.000140319
-1.13555e-08
0.000140325
-3.03433e-08
0.000140332
-4.91706e-08
0.000140342
-6.80671e-08
0.000140355
-8.65791e-08
0.000140369
-1.04168e-07
0.000140386
-1.20524e-07
0.000140405
-1.35546e-07
0.000140424
-1.49274e-07
0.000140445
-1.6183e-07
0.000140467
-1.73367e-07
0.000140489
-1.84048e-07
0.000140511
-1.94028e-07
0.000140533
-2.03446e-07
0.000140555
-2.12426e-07
0.000140576
-2.21072e-07
0.000140597
-2.29473e-07
0.000140618
-2.37702e-07
0.000140638
-2.45819e-07
0.000140657
-2.5387e-07
0.000140675
-2.61895e-07
0.000140693
-2.6992e-07
0.00014071
-2.77968e-07
0.000140726
-2.86053e-07
0.00014074
-2.94181e-07
0.000140754
-3.02357e-07
0.000140767
-3.10577e-07
0.000140779
-3.18837e-07
0.00014079
-3.27125e-07
0.0001408
-3.3543e-07
0.000140808
-3.43735e-07
0.000140816
-3.52026e-07
-3.60267e-07
0.000140822
0.000144322
-8.36318e-09
0.000144322
-3.09681e-08
0.000144328
-5.49791e-08
0.000144339
-7.91271e-08
0.000144354
-1.01766e-07
0.000144372
-1.22299e-07
0.000144393
-1.40685e-07
0.000144414
-1.57061e-07
0.000144436
-1.71644e-07
0.000144459
-1.84674e-07
0.000144482
-1.96394e-07
0.000144505
-2.07033e-07
0.000144528
-2.16795e-07
0.00014455
-2.25855e-07
0.000144572
-2.34362e-07
0.000144594
-2.42439e-07
0.000144615
-2.50191e-07
0.000144635
-2.57701e-07
0.000144654
-2.65037e-07
0.000144672
-2.72255e-07
0.00014469
-2.79397e-07
0.000144706
-2.86497e-07
0.000144722
-2.9358e-07
0.000144736
-3.00662e-07
0.00014475
-3.07755e-07
0.000144762
-3.14864e-07
0.000144774
-3.21989e-07
0.000144784
-3.29129e-07
0.000144793
-3.36275e-07
0.000144801
-3.43417e-07
0.000144808
-3.50544e-07
0.000144814
-3.57642e-07
-3.64681e-07
0.000144818
0.000148457
-1.71031e-08
0.000148463
-3.75066e-08
0.000148468
-6.01773e-08
0.000148475
-8.5595e-08
0.000148484
-1.11328e-07
0.000148498
-1.35422e-07
0.000148514
-1.56956e-07
0.000148533
-1.75819e-07
0.000148553
-1.92239e-07
0.000148575
-2.0653e-07
0.000148598
-2.19023e-07
0.000148621
-2.30035e-07
0.000148644
-2.39848e-07
0.000148667
-2.48701e-07
0.000148689
-2.56797e-07
0.000148711
-2.64302e-07
0.000148732
-2.71351e-07
0.000148752
-2.78054e-07
0.000148772
-2.84499e-07
0.00014879
-2.90756e-07
0.000148808
-2.96879e-07
0.000148824
-3.02911e-07
0.00014884
-3.08883e-07
0.000148854
-3.1482e-07
0.000148867
-3.20736e-07
0.000148878
-3.26641e-07
0.000148889
-3.3254e-07
0.000148898
-3.38433e-07
0.000148906
-3.44316e-07
0.000148913
-3.50181e-07
0.000148919
-3.5602e-07
0.000148923
-3.61823e-07
-3.67563e-07
0.000148926
0.000152671
9.92041e-10
0.000152666
-3.22073e-08
0.000152673
-6.78242e-08
0.000152691
-1.03028e-07
0.000152713
-1.33636e-07
0.000152738
-1.59923e-07
0.000152763
-1.82337e-07
0.000152789
-2.01417e-07
0.000152814
-2.17675e-07
0.000152839
-2.31566e-07
0.000152864
-2.43516e-07
0.000152887
-2.53896e-07
0.000152911
-2.63008e-07
0.000152933
-2.71106e-07
0.000152955
-2.78397e-07
0.000152975
-2.85049e-07
0.000152995
-2.912e-07
0.000153014
-2.96961e-07
0.000153032
-3.02422e-07
0.000153049
-3.07652e-07
0.000153065
-3.12711e-07
0.000153079
-3.17641e-07
0.000153093
-3.22476e-07
0.000153105
-3.27244e-07
0.000153117
-3.31961e-07
0.000153127
-3.36641e-07
0.000153135
-3.41291e-07
0.000153143
-3.45913e-07
0.000153149
-3.50506e-07
0.000153154
-3.55068e-07
0.000153158
-3.5959e-07
0.00015316
-3.64066e-07
-3.68475e-07
0.000153161
0.000157077
-2.4377e-08
0.000157076
-3.11198e-08
0.000157063
-5.48431e-08
0.000157054
-9.42998e-08
0.000157055
-1.34279e-07
0.000157065
-1.69806e-07
0.000157081
-1.98771e-07
0.000157102
-2.22277e-07
0.000157126
-2.41423e-07
0.000157151
-2.57035e-07
0.000157177
-2.69836e-07
0.000157204
-2.80432e-07
0.00015723
-2.89304e-07
0.000157256
-2.96835e-07
0.000157281
-3.03326e-07
0.000157305
-3.09011e-07
0.000157328
-3.14075e-07
0.000157349
-3.18661e-07
0.00015737
-3.22882e-07
0.000157389
-3.26825e-07
0.000157407
-3.30558e-07
0.000157423
-3.34134e-07
0.000157439
-3.37592e-07
0.000157452
-3.40962e-07
0.000157465
-3.44267e-07
0.000157475
-3.47522e-07
0.000157485
-3.50737e-07
0.000157493
-3.53918e-07
0.000157499
-3.57066e-07
0.000157505
-3.60182e-07
0.000157508
-3.63263e-07
0.00015751
-3.66304e-07
-3.69289e-07
0.000157511
0.00016147
4.43287e-08
0.000161456
-1.73866e-08
0.000161492
-9.04038e-08
0.000161534
-1.36521e-07
0.000161575
-1.756e-07
0.000161611
-2.05843e-07
0.000161643
-2.3064e-07
0.000161672
-2.51193e-07
0.000161699
-2.68049e-07
0.000161723
-2.81914e-07
0.000161747
-2.93404e-07
0.00016177
-3.02987e-07
0.000161791
-3.11031e-07
0.000161812
-3.17838e-07
0.000161833
-3.23647e-07
0.000161852
-3.28653e-07
0.000161871
-3.33012e-07
0.000161889
-3.3685e-07
0.000161907
-3.40267e-07
0.000161923
-3.43344e-07
0.000161939
-3.46148e-07
0.000161953
-3.48731e-07
0.000161967
-3.51135e-07
0.000161979
-3.53394e-07
0.000161991
-3.55534e-07
0.000162001
-3.57575e-07
0.00016201
-3.59533e-07
0.000162017
-3.61417e-07
0.000162023
-3.63234e-07
0.000162028
-3.64987e-07
0.000162031
-3.66678e-07
0.000162033
-3.68303e-07
-3.69856e-07
0.000162034
0.00016619
7.60941e-09
0.000166126
4.69067e-08
0.000166045
-9.69589e-09
0.000165989
-7.98146e-08
0.000165975
-1.62282e-07
0.000165988
-2.18301e-07
0.000166015
-2.5818e-07
0.000166051
-2.86932e-07
0.000166091
-3.08289e-07
0.000166134
-3.2443e-07
0.000166177
-3.36739e-07
0.00016622
-3.46208e-07
0.000166263
-3.53551e-07
0.000166304
-3.59278e-07
0.000166344
-3.63764e-07
0.000166383
-3.67285e-07
0.00016642
-3.7005e-07
0.000166455
-3.72219e-07
0.000166489
-3.73914e-07
0.000166521
-3.7523e-07
0.000166551
-3.76243e-07