/*--------------------------------*- C++ -*----------------------------------*\
  =========                 |
  \\      /  F ield         | OpenFOAM: The Open Source CFD Toolbox
   \\    /   O peration     | Website:  https://openfoam.org
    \\  /    A nd           | Version:  10
     \\/     M anipulation  |
\*---------------------------------------------------------------------------*/
FoamFile
{
    format      ascii;
    class       volVectorField;
    location    "0.12";
    object      U;
}
// * * * * * * * * * * * * * * * * * * * * * * * * * * * * * * * * * * * * * //

dimensions      [0 1 -1 0 0 0 0];

internalField   nonuniform List<vector> 
6820
(
(7.33663 -0.254711 0)
(7.37114 -0.15275 0)
(7.32907 -0.0594746 0)
(7.25228 -0.0117294 0)
(7.17497 0.00795155 0)
(7.1052 0.0139489 0)
(7.04426 0.0144309 0)
(6.99154 0.0130479 0)
(6.94559 0.011291 0)
(6.90501 0.00970727 0)
(6.86872 0.00843695 0)
(6.83592 0.00746706 0)
(6.80599 0.00674115 0)
(6.77849 0.00619977 0)
(6.75306 0.00579316 0)
(6.72945 0.00548344 0)
(6.70744 0.00524299 0)
(6.68686 0.00505225 0)
(6.66756 0.00489783 0)
(6.64942 0.00477087 0)
(6.63233 0.00466609 0)
(6.61618 0.00458128 0)
(6.60088 0.00451735 0)
(6.58633 0.00447953 0)
(6.57241 0.00447896 0)
(6.55898 0.00453997 0)
(6.54581 0.00471361 0)
(6.53262 0.00506289 0)
(6.51854 0.00607255 0)
(6.50299 0.00695882 0)
(6.48202 0.0145286 0)
(6.44866 0.0155024 0)
(6.40544 0.0342861 0)
(7.32387 0.121383 0)
(7.3044 0.123264 0)
(7.30898 0.0779431 0)
(7.32922 0.052756 0)
(7.34734 0.0391488 0)
(7.35544 0.0313347 0)
(7.35452 0.0268722 0)
(7.34748 0.0241146 0)
(7.33662 0.0222045 0)
(7.3235 0.0207503 0)
(7.3092 0.0195566 0)
(7.29436 0.0185229 0)
(7.27941 0.0175988 0)
(7.26458 0.0167577 0)
(7.25002 0.0159846 0)
(7.23581 0.0152703 0)
(7.22201 0.0146083 0)
(7.20863 0.0139941 0)
(7.19569 0.0134244 0)
(7.18318 0.0128971 0)
(7.1711 0.0124114 0)
(7.15943 0.0119684 0)
(7.14817 0.0115718 0)
(7.13729 0.0112301 0)
(7.12678 0.0109586 0)
(7.11662 0.0107925 0)
(7.10684 0.0107768 0)
(7.0973 0.011083 0)
(7.08869 0.0118131 0)
(7.07979 0.0138782 0)
(7.07649 0.0177478 0)
(7.07257 0.0268387 0)
(7.09862 0.0473811 0)
(7.32565 -0.0437966 0)
(7.32325 -0.0517469 0)
(7.3352 -0.0262233 0)
(7.34307 -0.00275541 0)
(7.34803 0.0103799 0)
(7.35227 0.0168164 0)
(7.35534 0.0198729 0)
(7.35695 0.0211433 0)
(7.3571 0.0214693 0)
(7.3559 0.0213239 0)
(7.35358 0.020954 0)
(7.3504 0.020486 0)
(7.34653 0.0199856 0)
(7.34216 0.0194855 0)
(7.33742 0.0190008 0)
(7.33242 0.0185378 0)
(7.32724 0.0180985 0)
(7.32195 0.017683 0)
(7.3166 0.0172912 0)
(7.31123 0.0169233 0)
(7.30587 0.0165805 0)
(7.30055 0.0162658 0)
(7.29526 0.0159849 0)
(7.29003 0.0157474 0)
(7.28485 0.015571 0)
(7.27971 0.0154809 0)
(7.27462 0.0155384 0)
(7.26951 0.0157752 0)
(7.26455 0.0164976 0)
(7.25939 0.0173483 0)
(7.25524 0.0201648 0)
(7.25098 0.0208444 0)
(7.24952 0.0264512 0)
(7.33338 0.0117813 0)
(7.33036 0.0328944 0)
(7.32958 0.0333147 0)
(7.33261 0.0275914 0)
(7.33807 0.024188 0)
(7.34365 0.0226965 0)
(7.34833 0.0221183 0)
(7.35207 0.0218733 0)
(7.35497 0.0217048 0)
(7.35709 0.0215305 0)
(7.35852 0.0213249 0)
(7.35936 0.0210818 0)
(7.35968 0.0208049 0)
(7.35959 0.0205013 0)
(7.35914 0.0201782 0)
(7.35839 0.0198422 0)
(7.35741 0.0194991 0)
(7.35624 0.0191541 0)
(7.35491 0.0188119 0)
(7.35347 0.0184773 0)
(7.35192 0.0181558 0)
(7.3503 0.0178542 0)
(7.34863 0.0175823 0)
(7.3469 0.017354 0)
(7.34513 0.0171912 0)
(7.34333 0.017125 0)
(7.3415 0.0172135 0)
(7.33964 0.0175184 0)
(7.33788 0.0182224 0)
(7.33616 0.0193315 0)
(7.33521 0.0215377 0)
(7.33504 0.0240044 0)
(7.33739 0.028927 0)
(7.33122 -0.00353057 0)
(7.33004 -0.00435118 0)
(7.33362 0.00122649 0)
(7.33723 0.00865963 0)
(7.34056 0.0140086 0)
(7.34389 0.0169958 0)
(7.34711 0.0186137 0)
(7.35017 0.0195052 0)
(7.35301 0.0199747 0)
(7.35556 0.0201928 0)
(7.35782 0.0202548 0)
(7.35978 0.0202139 0)
(7.36147 0.0201029 0)
(7.36291 0.0199432 0)
(7.36413 0.019749 0)
(7.36514 0.0195304 0)
(7.36598 0.0192949 0)
(7.36667 0.0190486 0)
(7.36723 0.0187968 0)
(7.36767 0.0185452 0)
(7.36802 0.0183 0)
(7.36829 0.018069 0)
(7.36848 0.0178628 0)
(7.36862 0.0176957 0)
(7.3687 0.0175897 0)
(7.36875 0.017573 0)
(7.36877 0.0176957 0)
(7.3688 0.018001 0)
(7.36894 0.0186165 0)
(7.36924 0.0195032 0)
(7.37009 0.0210055 0)
(7.37164 0.0223908 0)
(7.37436 0.0242678 0)
(7.33264 0.00207117 0)
(7.33224 0.00987736 0)
(7.33395 0.0140563 0)
(7.33648 0.0159081 0)
(7.3395 0.0169941 0)
(7.34274 0.0177459 0)
(7.34585 0.0183301 0)
(7.34876 0.0187658 0)
(7.3515 0.0190513 0)
(7.35406 0.0192154 0)
(7.35646 0.0192876 0)
(7.3587 0.0192882 0)
(7.36079 0.0192325 0)
(7.36275 0.0191322 0)
(7.36457 0.0189962 0)
(7.36628 0.0188316 0)
(7.36788 0.0186448 0)
(7.36938 0.0184413 0)
(7.37079 0.0182265 0)
(7.37213 0.0180064 0)
(7.3734 0.0177875 0)
(7.3746 0.0175783 0)
(7.37576 0.0173894 0)
(7.37687 0.0172351 0)
(7.37794 0.0171355 0)
(7.379 0.0171154 0)
(7.38007 0.0172139 0)
(7.38118 0.017464 0)
(7.38243 0.0179389 0)
(7.38389 0.0186159 0)
(7.38582 0.0196176 0)
(7.38836 0.0205743 0)
(7.39172 0.0216129 0)
(7.33258 0.000818638 0)
(7.33243 0.00448181 0)
(7.3343 0.00801192 0)
(7.33692 0.0111911 0)
(7.33974 0.0137516 0)
(7.34261 0.0154981 0)
(7.34537 0.0166202 0)
(7.34801 0.0173319 0)
(7.35054 0.0177679 0)
(7.35297 0.0180207 0)
(7.3553 0.01815 0)
(7.35754 0.0181914 0)
(7.3597 0.0181676 0)
(7.36179 0.0180942 0)
(7.3638 0.0179821 0)
(7.36575 0.0178394 0)
(7.36765 0.0176724 0)
(7.36948 0.0174869 0)
(7.37127 0.0172881 0)
(7.37301 0.0170818 0)
(7.37472 0.0168743 0)
(7.37638 0.0166736 0)
(7.37803 0.0164896 0)
(7.37965 0.0163349 0)
(7.38126 0.0162264 0)
(7.38288 0.0161838 0)
(7.38454 0.0162343 0)
(7.38627 0.0163987 0)
(7.38816 0.0167125 0)
(7.39027 0.0171485 0)
(7.39276 0.0177239 0)
(7.39573 0.0182062 0)
(7.39925 0.0185196 0)
(7.33284 0.00132135 0)
(7.33302 0.00531823 0)
(7.33459 0.00884698 0)
(7.33684 0.0115069 0)
(7.33936 0.0134519 0)
(7.34202 0.0147829 0)
(7.34464 0.0156849 0)
(7.34718 0.0162979 0)
(7.34962 0.0166975 0)
(7.35197 0.01694 0)
(7.35423 0.0170685 0)
(7.35643 0.0171121 0)
(7.35858 0.0170909 0)
(7.36068 0.0170195 0)
(7.36273 0.0169083 0)
(7.36475 0.016765 0)
(7.36674 0.0165961 0)
(7.3687 0.016407 0)
(7.37064 0.0162028 0)
(7.37256 0.0159889 0)
(7.37446 0.0157714 0)
(7.37634 0.0155574 0)
(7.37822 0.0153555 0)
(7.38011 0.0151763 0)
(7.382 0.015033 0)
(7.38393 0.0149399 0)
(7.38592 0.0149138 0)
(7.38801 0.014965 0)
(7.39025 0.0151045 0)
(7.39271 0.0153026 0)
(7.39547 0.0155326 0)
(7.39862 0.0156455 0)
(7.40214 0.0155376 0)
(7.33291 0.00131782 0)
(7.33321 0.00463292 0)
(7.33462 0.0076428 0)
(7.33668 0.0100786 0)
(7.33902 0.0120062 0)
(7.34149 0.013423 0)
(7.34397 0.0144166 0)
(7.34638 0.0150958 0)
(7.34873 0.0155394 0)
(7.351 0.0158096 0)
(7.35321 0.0159539 0)
(7.35537 0.0160047 0)
(7.35748 0.0159843 0)
(7.35956 0.0159089 0)
(7.36161 0.0157899 0)
(7.36363 0.015636 0)
(7.36564 0.015454 0)
(7.36764 0.0152495 0)
(7.36962 0.0150277 0)
(7.3716 0.0147939 0)
(7.37358 0.0145535 0)
(7.37556 0.0143127 0)
(7.37756 0.0140788 0)
(7.37957 0.0138601 0)
(7.38161 0.0136657 0)
(7.3837 0.0135049 0)
(7.38587 0.0133864 0)
(7.38814 0.0133118 0)
(7.39056 0.0132776 0)
(7.39318 0.0132529 0)
(7.39606 0.0131968 0)
(7.39922 0.0130078 0)
(7.40264 0.0125941 0)
(7.33297 0.00129247 0)
(7.33335 0.0042722 0)
(7.33463 0.00703464 0)
(7.33648 0.00929958 0)
(7.33862 0.0110852 0)
(7.34091 0.0124081 0)
(7.34324 0.0133481 0)
(7.34555 0.0140005 0)
(7.34781 0.0144345 0)
(7.35002 0.0147027 0)
(7.35219 0.0148458 0)
(7.3543 0.0148934 0)
(7.35638 0.0148668 0)
(7.35843 0.0147817 0)
(7.36046 0.0146497 0)
(7.36248 0.0144796 0)
(7.36448 0.0142785 0)
(7.36647 0.014052 0)
(7.36847 0.0138054 0)
(7.37047 0.0135434 0)
(7.37247 0.0132711 0)
(7.37449 0.0129936 0)
(7.37653 0.0127167 0)
(7.3786 0.0124462 0)
(7.38071 0.0121882 0)
(7.38288 0.0119471 0)
(7.38513 0.0117256 0)
(7.38749 0.0115195 0)
(7.38999 0.0113172 0)
(7.39266 0.0110892 0)
(7.39554 0.0107939 0)
(7.39863 0.0103601 0)
(7.40192 0.00971931 0)
(7.333 0.00122885 0)
(7.33342 0.00388372 0)
(7.33457 0.00634976 0)
(7.33625 0.00840517 0)
(7.33821 0.010054 0)
(7.34034 0.0113106 0)
(7.34254 0.012227 0)
(7.34474 0.0128739 0)
(7.34691 0.0133092 0)
(7.34906 0.0135793 0)
(7.35117 0.0137219 0)
(7.35324 0.0137656 0)
(7.35529 0.0137312 0)
(7.35731 0.0136344 0)
(7.35932 0.0134871 0)
(7.36131 0.0132982 0)
(7.3633 0.0130749 0)
(7.36528 0.0128229 0)
(7.36727 0.0125472 0)
(7.36926 0.0122523 0)
(7.37127 0.0119425 0)
(7.3733 0.0116221 0)
(7.37535 0.0112952 0)
(7.37744 0.0109656 0)
(7.37958 0.0106363 0)
(7.38177 0.0103084 0)
(7.38406 0.00998008 0)
(7.38644 0.00964348 0)
(7.38895 0.00928377 0)
(7.39161 0.00887382 0)
(7.39443 0.00837694 0)
(7.39741 0.00774219 0)
(7.40054 0.00692162 0)
(7.33302 0.00114347 0)
(7.33344 0.0035199 0)
(7.3345 0.00573292 0)
(7.33602 0.00760648 0)
(7.33782 0.00912636 0)
(7.3398 0.0103016 0)
(7.34186 0.01117 0)
(7.34395 0.0117881 0)
(7.34605 0.0122059 0)
(7.34812 0.0124643 0)
(7.35017 0.012597 0)
(7.3522 0.01263 0)
(7.35421 0.0125831 0)
(7.3562 0.0124712 0)
(7.35818 0.0123058 0)
(7.36015 0.0120957 0)
(7.36212 0.0118478 0)
(7.36408 0.0115677 0)
(7.36606 0.0112602 0)
(7.36804 0.0109293 0)
(7.37004 0.0105786 0)
(7.37206 0.0102112 0)
(7.3741 0.00982994 0)
(7.37619 0.00943675 0)
(7.37833 0.00903229 0)
(7.38053 0.00861508 0)
(7.3828 0.0081804 0)
(7.38517 0.00771857 0)
(7.38765 0.00721393 0)
(7.39026 0.00664276 0)
(7.39299 0.00597471 0)
(7.39585 0.00517293 0)
(7.39881 0.00420504 0)
(7.33303 0.00104775 0)
(7.33344 0.00317279 0)
(7.33441 0.00515003 0)
(7.3358 0.00684282 0)
(7.33745 0.00822925 0)
(7.33929 0.00931525 0)
(7.34123 0.0101282 0)
(7.34322 0.0107116 0)
(7.34522 0.0111067 0)
(7.34723 0.0113485 0)
(7.34922 0.0114669 0)
(7.3512 0.0114856 0)
(7.35317 0.0114229 0)
(7.35512 0.011293 0)
(7.35707 0.0111071 0)
(7.35901 0.0108736 0)
(7.36095 0.0105992 0)
(7.3629 0.0102892 0)
(7.36485 0.0099479 0)
(7.36681 0.00957878 0)
(7.36879 0.00918474 0)
(7.37079 0.008768 0)
(7.37283 0.00833002 0)
(7.3749 0.00787123 0)
(7.37702 0.00739052 0)
(7.3792 0.00688461 0)
(7.38145 0.00634719 0)
(7.38378 0.00576792 0)
(7.38621 0.00513188 0)
(7.38873 0.0044189 0)
(7.39136 0.00360477 0)
(7.39409 0.0026626 0)
(7.39689 0.00157093 0)
(7.33303 0.000948062 0)
(7.33342 0.00284241 0)
(7.33431 0.00460259 0)
(7.33559 0.00612322 0)
(7.33711 0.00737893 0)
(7.33882 0.00837173 0)
(7.34065 0.00912109 0)
(7.34254 0.0096603 0)
(7.34445 0.0100234 0)
(7.34639 0.0102407 0)
(7.34832 0.0103382 0)
(7.35024 0.0103372 0)
(7.35217 0.0102545 0)
(7.35408 0.0101034 0)
(7.35599 0.00989431 0)
(7.3579 0.00963517 0)
(7.35982 0.00933229 0)
(7.36173 0.00899054 0)
(7.36366 0.00861377 0)
(7.3656 0.00820489 0)
(7.36755 0.00776605 0)
(7.36953 0.00729859 0)
(7.37154 0.00680291 0)
(7.37358 0.00627822 0)
(7.37568 0.00572217 0)
(7.37782 0.00513033 0)
(7.38003 0.00449571 0)
(7.3823 0.00380815 0)
(7.38466 0.00305418 0)
(7.38709 0.00221699 0)
(7.38961 0.00127764 0)
(7.3922 0.000216413 0)
(7.39484 -0.000980758 0)
(7.33303 0.000848253 0)
(7.3334 0.00252786 0)
(7.33422 0.00408592 0)
(7.33539 0.00544057 0)
(7.3368 0.00656607 0)
(7.3384 0.00746141 0)
(7.34012 0.0081403 0)
(7.34191 0.00862815 0)
(7.34374 0.00895268 0)
(7.3456 0.00913942 0)
(7.34747 0.00921084 0)
(7.34934 0.00918583 0)
(7.35122 0.00907963 0)
(7.35309 0.00890437 0)
(7.35496 0.00866962 0)
(7.35684 0.00838282 0)
(7.35872 0.00804975 0)
(7.3606 0.00767481 0)
(7.36249 0.00726132 0)
(7.3644 0.00681163 0)
(7.36633 0.00632721 0)
(7.36827 0.00580862 0)
(7.37025 0.0052554 0)
(7.37226 0.00466587 0)
(7.37431 0.00403685 0)
(7.37641 0.00336335 0)
(7.37856 0.00263826 0)
(7.38077 0.00185209 0)
(7.38304 0.000993059 0)
(7.38538 4.75169e-05 0)
(7.38777 -0.0009993 0)
(7.39023 -0.00216198 0)
(7.39272 -0.00344961 0)
(7.33303 0.000750435 0)
(7.33338 0.00222828 0)
(7.33414 0.00359688 0)
(7.33521 0.0047918 0)
(7.33652 0.00578866 0)
(7.33801 0.00658406 0)
(7.33963 0.00718732 0)
(7.34133 0.00761762 0)
(7.34308 0.00789722 0)
(7.34487 0.00804749 0)
(7.34668 0.00808769 0)
(7.34849 0.00803432 0)
(7.35032 0.00790097 0)
(7.35215 0.00769858 0)
(7.35398 0.00743582 0)
(7.35581 0.00711946 0)
(7.35766 0.00675469 0)
(7.3595 0.00634539 0)
(7.36136 0.00589434 0)
(7.36323 0.00540333 0)
(7.36512 0.00487322 0)
(7.36703 0.00430392 0)
(7.36897 0.0036943 0)
(7.37093 0.00304208 0)
(7.37293 0.00234362 0)
(7.37497 0.00159374 0)
(7.37706 0.000785591 0)
(7.37919 -8.93424e-05 0)
(7.38137 -0.00104114 0)
(7.38361 -0.00208083 0)
(7.38588 -0.00321982 0)
(7.3882 -0.00446901 0)
(7.39054 -0.00583414 0)
(7.33303 0.000655681 0)
(7.33335 0.0019427 0)
(7.33405 0.00313244 0)
(7.33505 0.00417333 0)
(7.33627 0.00504306 0)
(7.33767 0.00573659 0)
(7.33919 0.00625989 0)
(7.3408 0.00662729 0)
(7.34248 0.00685649 0)
(7.3442 0.00696515 0)
(7.34594 0.00696955 0)
(7.3477 0.00688392 0)
(7.34947 0.00672018 0)
(7.35125 0.00648802 0)
(7.35304 0.00619516 0)
(7.35484 0.00584762 0)
(7.35664 0.00544997 0)
(7.35845 0.00500553 0)
(7.36027 0.00451653 0)
(7.3621 0.00398425 0)
(7.36394 0.003409 0)
(7.36581 0.00279018 0)
(7.3677 0.00212619 0)
(7.36961 0.00141435 0)
(7.37155 0.000650841 0)
(7.37353 -0.000169423 0)
(7.37554 -0.00105277 0)
(7.37759 -0.00200672 0)
(7.37967 -0.00303967 0)
(7.38179 -0.00416059 0)
(7.38395 -0.00537825 0)
(7.38612 -0.0067008 0)
(7.38832 -0.00813171 0)
(7.33303 0.000564429 0)
(7.33333 0.00167007 0)
(7.33398 0.00268997 0)
(7.33491 0.00358205 0)
(7.33604 0.00432634 0)
(7.33735 0.00491678 0)
(7.33879 0.00535678 0)
(7.34032 0.00565688 0)
(7.34193 0.00583097 0)
(7.34357 0.00589345 0)
(7.34526 0.0058579 0)
(7.34696 0.00573645 0)
(7.34868 0.00553934 0)
(7.35041 0.00527503 0)
(7.35216 0.00495024 0)
(7.35391 0.00457021 0)
(7.35566 0.00413884 0)
(7.35743 0.00365888 0)
(7.3592 0.00313204 0)
(7.36099 0.0025591 0)
(7.36279 0.00193993 0)
(7.36461 0.00127351 0)
(7.36644 0.000557927 0)
(7.36829 -0.000209682 0)
(7.37017 -0.00103315 0)
(7.37208 -0.00191727 0)
(7.37401 -0.00286778 0)
(7.37596 -0.00389114 0)
(7.37795 -0.00499436 0)
(7.37996 -0.00618458 0)
(7.38198 -0.00746858 0)
(7.38402 -0.00885253 0)
(7.38607 -0.0103384 0)
(7.33303 0.000476753 0)
(7.33331 0.00140931 0)
(7.33391 0.00226707 0)
(7.33477 0.00301508 0)
(7.33584 0.00363566 0)
(7.33707 0.00412222 0)
(7.33843 0.00447625 0)
(7.33989 0.00470534 0)
(7.34142 0.00482022 0)
(7.343 0.00483248 0)
(7.34462 0.00475331 0)
(7.34627 0.00459282 0)
(7.34794 0.00435971 0)
(7.34962 0.00406117 0)
(7.35132 0.00370293 0)
(7.35302 0.00328941 0)
(7.35473 0.00282384 0)
(7.35645 0.0023084 0)
(7.35818 0.0017443 0)
(7.35992 0.00113186 0)
(7.36166 0.000470591 0)
(7.36342 -0.000240833 0)
(7.3652 -0.00100453 0)
(7.36699 -0.00182341 0)
(7.3688 -0.00270118 0)
(7.37062 -0.00364225 0)
(7.37247 -0.00465169 0)
(7.37433 -0.00573503 0)
(7.37621 -0.00689802 0)
(7.3781 -0.00814637 0)
(7.38 -0.00948529 0)
(7.38191 -0.0109195 0)
(7.38381 -0.0124498 0)
(7.33302 0.000392519 0)
(7.33329 0.00115933 0)
(7.33385 0.00186159 0)
(7.33466 0.0024698 0)
(7.33566 0.00296842 0)
(7.33682 0.00335071 0)
(7.3381 0.00361676 0)
(7.33949 0.00377188 0)
(7.34096 0.00382423 0)
(7.34248 0.00378294 0)
(7.34404 0.00365707 0)
(7.34563 0.00345491 0)
(7.34725 0.00318366 0)
(7.34888 0.00284927 0)
(7.35053 0.0024565 0)
(7.35218 0.00200896 0)
(7.35384 0.00150919 0)
(7.35551 0.000958811 0)
(7.35719 0.000358556 0)
(7.35887 -0.00029164 0)
(7.36057 -0.000992594 0)
(7.36227 -0.00174584 0)
(7.36398 -0.00255359 0)
(7.3657 -0.00341873 0)
(7.36743 -0.00434472 0)
(7.36917 -0.00533556 0)
(7.37093 -0.00639567 0)
(7.37269 -0.00752973 0)
(7.37446 -0.00874244 0)
(7.37623 -0.0100383 0)
(7.37801 -0.0114214 0)
(7.37978 -0.0128953 0)
(7.38154 -0.01446 0)
(7.33302 0.000311487 0)
(7.33327 0.000919069 0)
(7.3338 0.00147153 0)
(7.33455 0.00194374 0)
(7.33549 0.00232202 0)
(7.33659 0.00259978 0)
(7.33781 0.00277613 0)
(7.33913 0.00285465 0)
(7.34053 0.00284139 0)
(7.342 0.00274347 0)
(7.3435 0.00256803 0)
(7.34504 0.00232173 0)
(7.3466 0.00201036 0)
(7.34818 0.00163872 0)
(7.34978 0.00121059 0)
(7.35138 0.000728773 0)
(7.353 0.00019516 0)
(7.35462 -0.000389194 0)
(7.35624 -0.001024 0)
(7.35787 -0.00170968 0)
(7.3595 -0.00244732 0)
(7.36114 -0.00323859 0)
(7.36278 -0.00408575 0)
(7.36442 -0.00499156 0)
(7.36608 -0.00595924 0)
(7.36773 -0.00699236 0)
(7.36939 -0.00809473 0)
(7.37105 -0.00927027 0)
(7.37271 -0.0105228 0)
(7.37437 -0.0118559 0)
(7.37602 -0.0132727 0)
(7.37765 -0.014776 0)
(7.37928 -0.016365 0)
(7.33302 0.000233372 0)
(7.33325 0.000687497 0)
(7.33375 0.00109518 0)
(7.33446 0.00143482 0)
(7.33534 0.00169451 0)
(7.33638 0.00186801 0)
(7.33755 0.00195385 0)
(7.33881 0.00195424 0)
(7.34015 0.00187354 0)
(7.34156 0.00171709 0)
(7.34301 0.00149038 0)
(7.34449 0.00119854 0)
(7.346 0.000846044 0)
(7.34753 0.000436582 0)
(7.34908 -2.70067e-05 0)
(7.35063 -0.000542695 0)
(7.35219 -0.00110923 0)
(7.35376 -0.00172608 0)
(7.35532 -0.00239336 0)
(7.35689 -0.00311182 0)
(7.35846 -0.00388273 0)
(7.36003 -0.00470789 0)
(7.3616 -0.00558951 0)
(7.36317 -0.00653023 0)
(7.36474 -0.00753298 0)
(7.36631 -0.00860091 0)
(7.36787 -0.00973729 0)
(7.36943 -0.0109454 0)
(7.37097 -0.0122283 0)
(7.37251 -0.0135889 0)
(7.37403 -0.0150294 0)
(7.37554 -0.016552 0)
(7.37702 -0.0181556 0)
(7.33302 0.000157869 0)
(7.33324 0.000463585 0)
(7.3337 0.000730654 0)
(7.33437 0.000940335 0)
(7.33521 0.00108228 0)
(7.3362 0.00115081 0)
(7.33731 0.00114413 0)
(7.33852 0.00106371 0)
(7.33981 0.000912582 0)
(7.34116 0.000694675 0)
(7.34255 0.000414078 0)
(7.34399 7.46204e-05 0)
(7.34545 -0.000320442 0)
(7.34693 -0.000768489 0)
(7.34842 -0.00126759 0)
(7.34993 -0.00181647 0)
(7.35143 -0.00241455 0)
(7.35294 -0.00306179 0)
(7.35445 -0.00375873 0)
(7.35596 -0.00450641 0)
(7.35746 -0.0053063 0)
(7.35896 -0.00616026 0)
(7.36046 -0.0070705 0)
(7.36195 -0.00803948 0)
(7.36343 -0.00906987 0)
(7.3649 -0.0101645 0)
(7.36637 -0.011326 0)
(7.36782 -0.0125573 0)
(7.36925 -0.0138608 0)
(7.37067 -0.0152386 0)
(7.37207 -0.0166926 0)
(7.37344 -0.0182243 0)
(7.37479 -0.0198323 0)
(7.33302 8.47097e-05 0)
(7.33323 0.000246648 0)
(7.33367 0.000377242 0)
(7.3343 0.000460359 0)
(7.33509 0.000487264 0)
(7.33603 0.000452958 0)
(7.33709 0.000355583 0)
(7.33825 0.000195494 0)
(7.33949 -2.52204e-05 0)
(7.34079 -0.000303929 0)
(7.34214 -0.000637884 0)
(7.34353 -0.0010245 0)
(7.34494 -0.00146162 0)
(7.34637 -0.00194761 0)
(7.34781 -0.00248136 0)
(7.34926 -0.00306228 0)
(7.35072 -0.00369036 0)
(7.35217 -0.00436602 0)
(7.35362 -0.00509013 0)
(7.35507 -0.00586397 0)
(7.3565 -0.00668915 0)
(7.35793 -0.00756756 0)
(7.35935 -0.00850134 0)
(7.36076 -0.00949281 0)
(7.36215 -0.0105444 0)
(7.36353 -0.0116585 0)
(7.3649 -0.0128375 0)
(7.36624 -0.0140836 0)
(7.36756 -0.0153989 0)
(7.36886 -0.0167851 0)
(7.37014 -0.0182434 0)
(7.37138 -0.019775 0)
(7.37259 -0.0213782 0)
(7.33302 1.35437e-05 0)
(7.33321 3.50938e-05 0)
(7.33363 3.08713e-05 0)
(7.33423 -1.34081e-05 0)
(7.33499 -0.000104898 0)
(7.33589 -0.000247327 0)
(7.33691 -0.000441852 0)
(7.33802 -0.000688047 0)
(7.33921 -0.000984279 0)
(7.34047 -0.00132875 0)
(7.34177 -0.00171975 0)
(7.34311 -0.00215588 0)
(7.34448 -0.00263606 0)
(7.34586 -0.00315968 0)
(7.34725 -0.00372656 0)
(7.34865 -0.00433694 0)
(7.35005 -0.00499145 0)
(7.35145 -0.00569106 0)
(7.35284 -0.00643706 0)
(7.35422 -0.00723102 0)
(7.35559 -0.00807473 0)
(7.35694 -0.00897016 0)
(7.35828 -0.00991942 0)
(7.35961 -0.0109247 0)
(7.36091 -0.0119882 0)
(7.3622 -0.013112 0)
(7.36346 -0.0142983 0)
(7.3647 -0.0155488 0)
(7.36591 -0.0168652 0)
(7.36709 -0.0182487 0)
(7.36824 -0.0197003 0)
(7.36936 -0.0212207 0)
(7.37043 -0.0228082 0)
(7.33302 -5.55244e-05 0)
(7.3332 -0.000169 0)
(7.3336 -0.000300887 0)
(7.33417 -0.00046331 0)
(7.33489 -0.000662199 0)
(7.33575 -0.000901028 0)
(7.33673 -0.00118154 0)
(7.3378 -0.00150387 0)
(7.33896 -0.00186756 0)
(7.34017 -0.0022718 0)
(7.34144 -0.00271579 0)
(7.34273 -0.00319894 0)
(7.34406 -0.00372095 0)
(7.34539 -0.00428189 0)
(7.34674 -0.00488215 0)
(7.34809 -0.00552248 0)
(7.34944 -0.0062039 0)
(7.35077 -0.00692772 0)
(7.3521 -0.00769546 0)
(7.35342 -0.00850886 0)
(7.35472 -0.00936979 0)
(7.35601 -0.0102802 0)
(7.35727 -0.0112422 0)
(7.35851 -0.0122578 0)
(7.35973 -0.013329 0)
(7.36092 -0.0144576 0)
(7.36208 -0.0156456 0)
(7.36322 -0.0168943 0)
(7.36432 -0.0182051 0)
(7.36538 -0.0195789 0)
(7.36641 -0.0210165 0)
(7.3674 -0.0225183 0)
(7.36834 -0.0240824 0)
(7.33302 -0.000123794 0)
(7.33319 -0.000375364 0)
(7.33357 -0.000646382 0)
(7.33412 -0.000947112 0)
(7.33482 -0.00127928 0)
(7.33565 -0.00164194 0)
(7.3366 -0.00203369 0)
(7.33763 -0.00245331 0)
(7.33875 -0.00290018 0)
(7.33993 -0.00337431 0)
(7.34115 -0.0038762 0)
(7.34241 -0.00440678 0)
(7.34368 -0.00496731 0)
(7.34498 -0.00555926 0)
(7.34628 -0.00618428 0)
(7.34757 -0.00684418 0)
(7.34887 -0.00754083 0)
(7.35015 -0.00827623 0)
(7.35142 -0.00905243 0)
(7.35267 -0.00987149 0)
(7.35391 -0.0107355 0)
(7.35512 -0.0116466 0)
(7.3563 -0.0126069 0)
(7.35746 -0.0136182 0)
(7.35859 -0.0146824 0)
(7.35969 -0.0158013 0)
(7.36075 -0.0169763 0)
(7.36178 -0.0182087 0)
(7.36278 -0.0194995 0)
(7.36373 -0.0208495 0)
(7.36464 -0.022259 0)
(7.3655 -0.0237284 0)
(7.36632 -0.0252556 0)
(7.33301 -0.000186947 0)
(7.33317 -0.000553387 0)
(7.33352 -0.000923847 0)
(7.33404 -0.00131077 0)
(7.33471 -0.00171976 0)
(7.33551 -0.00215352 0)
(7.33643 -0.0026129 0)
(7.33745 -0.0030975 0)
(7.33854 -0.00360662 0)
(7.33969 -0.00413984 0)
(7.34089 -0.00469721 0)
(7.34212 -0.00527928 0)
(7.34336 -0.00588703 0)
(7.34462 -0.00652179 0)
(7.34588 -0.0071852 0)
(7.34713 -0.00787908 0)
(7.34838 -0.00860541 0)
(7.34961 -0.0093663 0)
(7.35082 -0.0101639 0)
(7.35201 -0.0110003 0)
(7.35318 -0.0118778 0)
(7.35432 -0.0127985 0)
(7.35542 -0.0137643 0)
(7.3565 -0.0147771 0)
(7.35754 -0.0158388 0)
(7.35855 -0.016951 0)
(7.35952 -0.0181149 0)
(7.36045 -0.0193317 0)
(7.36133 -0.0206023 0)
(7.36217 -0.0219272 0)
(7.36297 -0.0233067 0)
(7.36371 -0.0247411 0)
(7.36441 -0.0262284 0)
(7.33302 -0.000260858 0)
(7.33319 -0.000800145 0)
(7.33355 -0.00136964 0)
(7.33406 -0.00196585 0)
(7.33471 -0.00257408 0)
(7.33548 -0.00318299 0)
(7.33637 -0.00378743 0)
(7.33735 -0.0043866 0)
(7.33841 -0.00498239 0)
(7.33952 -0.00557828 0)
(7.34068 -0.00617848 0)
(7.34187 -0.00678742 0)
(7.34308 -0.00740949 0)
(7.34429 -0.00804884 0)
(7.34551 -0.00870934 0)
(7.34671 -0.00939456 0)
(7.34791 -0.0101078 0)
(7.34909 -0.0108521 0)
(7.35024 -0.0116302 0)
(7.35137 -0.0124447 0)
(7.35247 -0.013298 0)
(7.35354 -0.0141923 0)
(7.35458 -0.0151296 0)
(7.35558 -0.0161117 0)
(7.35654 -0.0171402 0)
(7.35745 -0.0182165 0)
(7.35833 -0.0193417 0)
(7.35916 -0.0205166 0)
(7.35994 -0.0217419 0)
(7.36068 -0.023018 0)
(7.36136 -0.024345 0)
(7.362 -0.0257227 0)
(7.36258 -0.0271493 0)
(7.333 -0.000287673 0)
(7.3331 -0.000820543 0)
(7.33338 -0.00134201 0)
(7.33384 -0.00188831 0)
(7.33447 -0.00247097 0)
(7.33525 -0.00308758 0)
(7.33616 -0.00373061 0)
(7.33716 -0.00439209 0)
(7.33824 -0.00506609 0)
(7.33936 -0.00574909 0)
(7.34052 -0.00643971 0)
(7.34171 -0.00713814 0)
(7.3429 -0.00784579 0)
(7.3441 -0.00856481 0)
(7.34528 -0.00929784 0)
(7.34645 -0.0100478 0)
(7.34761 -0.0108176 0)
(7.34874 -0.0116104 0)
(7.34984 -0.012429 0)
(7.35091 -0.0132762 0)
(7.35194 -0.0141547 0)
(7.35294 -0.0150668 0)
(7.3539 -0.0160149 0)
(7.35482 -0.0170009 0)
(7.3557 -0.0180266 0)
(7.35653 -0.0190936 0)
(7.35731 -0.020203 0)
(7.35804 -0.0213559 0)
(7.35872 -0.0225529 0)
(7.35935 -0.0237946 0)
(7.35993 -0.025081 0)
(7.36045 -0.0264123 0)
(7.36092 -0.0277867 0)
(7.33305 -0.000453377 0)
(7.33328 -0.00143068 0)
(7.33363 -0.00246396 0)
(7.33409 -0.00348829 0)
(7.33467 -0.00445235 0)
(7.33538 -0.00533963 0)
(7.3362 -0.00615397 0)
(7.33713 -0.00690631 0)
(7.33814 -0.00760981 0)
(7.33921 -0.00827776 0)
(7.34032 -0.00892243 0)
(7.34146 -0.00955463 0)
(7.34262 -0.0101836 0)
(7.34377 -0.0108171 0)
(7.34492 -0.0114615 0)
(7.34606 -0.0121224 0)
(7.34717 -0.0128041 0)
(7.34826 -0.0135107 0)
(7.34931 -0.0142452 0)
(7.35033 -0.0150106 0)
(7.35132 -0.0158092 0)
(7.35226 -0.0166432 0)
(7.35316 -0.0175142 0)
(7.35401 -0.0184238 0)
(7.35481 -0.0193734 0)
(7.35556 -0.0203638 0)
(7.35626 -0.0213958 0)
(7.35691 -0.0224701 0)
(7.35751 -0.0235868 0)
(7.35804 -0.0247462 0)
(7.35852 -0.0259479 0)
(7.35894 -0.0271919 0)
(7.35931 -0.0284762 0)
(7.33293 -0.000204367 0)
(7.33282 -0.000521019 0)
(7.33295 -0.000893317 0)
(7.33339 -0.00144944 0)
(7.33407 -0.0021784 0)
(7.33493 -0.00302184 0)
(7.33591 -0.00392711 0)
(7.33698 -0.00485728 0)
(7.3381 -0.00578911 0)
(7.33925 -0.00670917 0)
(7.34042 -0.00761107 0)
(7.34159 -0.0084933 0)
(7.34276 -0.00935742 0)
(7.34391 -0.0102068 0)
(7.34504 -0.011046 0)
(7.34614 -0.0118796 0)
(7.34721 -0.0127125 0)
(7.34824 -0.0135496 0)
(7.34924 -0.0143951 0)
(7.3502 -0.0152533 0)
(7.35111 -0.0161278 0)
(7.35197 -0.017022 0)
(7.35279 -0.0179388 0)
(7.35356 -0.0188809 0)
(7.35428 -0.0198503 0)
(7.35494 -0.0208491 0)
(7.35555 -0.0218786 0)
(7.3561 -0.0229401 0)
(7.3566 -0.0240346 0)
(7.35703 -0.0251625 0)
(7.35741 -0.0263242 0)
(7.35772 -0.0275199 0)
(7.35798 -0.0287482 0)
(7.33316 -0.00089815 0)
(7.33361 -0.00297021 0)
(7.3339 -0.00500483 0)
(7.33415 -0.00674367 0)
(7.33452 -0.00814055 0)
(7.33508 -0.00925761 0)
(7.33581 -0.0101641 0)
(7.33669 -0.0109171 0)
(7.33767 -0.0115632 0)
(7.33872 -0.0121387 0)
(7.33982 -0.0126714 0)
(7.34096 -0.0131822 0)
(7.3421 -0.0136861 0)
(7.34323 -0.0141944 0)
(7.34435 -0.0147151 0)
(7.34545 -0.0152542 0)
(7.34651 -0.0158161 0)
(7.34754 -0.0164043 0)
(7.34853 -0.017021 0)
(7.34946 -0.0176684 0)
(7.35035 -0.0183478 0)
(7.35119 -0.0190605 0)
(7.35198 -0.0198074 0)
(7.3527 -0.0205892 0)
(7.35338 -0.0214064 0)
(7.35399 -0.0222594 0)
(7.35454 -0.0231483 0)
(7.35503 -0.0240731 0)
(7.35546 -0.0250338 0)
(7.35583 -0.02603 0)
(7.35613 -0.0270614 0)
(7.35637 -0.0281274 0)
(7.35654 -0.0292265 0)
(7.33266 0.00050195 0)
(7.33187 0.00168541 0)
(7.33188 0.00225195 0)
(7.33256 0.00186634 0)
(7.33357 0.000839886 0)
(7.33472 -0.000508372 0)
(7.33592 -0.00198387 0)
(7.33715 -0.00348229 0)
(7.33838 -0.00494527 0)
(7.3396 -0.00634142 0)
(7.34079 -0.00765822 0)
(7.34195 -0.00889472 0)
(7.34308 -0.0100562 0)
(7.34418 -0.011151 0)
(7.34523 -0.0121889 0)
(7.34625 -0.0131799 0)
(7.34723 -0.0141336 0)
(7.34816 -0.0150588 0)
(7.34904 -0.0159634 0)
(7.34988 -0.0168547 0)
(7.35067 -0.0177389 0)
(7.3514 -0.0186214 0)
(7.35208 -0.019507 0)
(7.35271 -0.0203996 0)
(7.35328 -0.0213028 0)
(7.35379 -0.0222194 0)
(7.35424 -0.0231517 0)
(7.35463 -0.0241017 0)
(7.35496 -0.0250709 0)
(7.35522 -0.0260604 0)
(7.35543 -0.0270711 0)
(7.35557 -0.0281033 0)
(7.35564 -0.0291564 0)
(7.33352 -0.00205107 0)
(7.3344 -0.00693456 0)
(7.33398 -0.0114715 0)
(7.33324 -0.0143263 0)
(7.333 -0.0159997 0)
(7.33328 -0.0169881 0)
(7.33393 -0.0175466 0)
(7.33482 -0.0178471 0)
(7.33587 -0.0180074 0)
(7.33703 -0.0181036 0)
(7.33825 -0.0181837 0)
(7.33949 -0.0182771 0)
(7.34073 -0.0184007 0)
(7.34195 -0.0185639 0)
(7.34313 -0.0187715 0)
(7.34428 -0.0190252 0)
(7.34537 -0.0193252 0)
(7.34641 -0.0196706 0)
(7.3474 -0.02006 0)
(7.34833 -0.0204921 0)
(7.34919 -0.0209651 0)
(7.34999 -0.0214778 0)
(7.35073 -0.0220287 0)
(7.3514 -0.0226165 0)
(7.35201 -0.0232402 0)
(7.35255 -0.0238985 0)
(7.35303 -0.0245905 0)
(7.35344 -0.0253152 0)
(7.35378 -0.0260716 0)
(7.35405 -0.0268589 0)
(7.35426 -0.0276762 0)
(7.35439 -0.0285228 0)
(7.35447 -0.0293967 0)
(7.33179 0.00337588 0)
(7.32901 0.00916215 0)
(7.32948 0.0117545 0)
(7.33177 0.0114372 0)
(7.33381 0.00929901 0)
(7.33552 0.00655935 0)
(7.33705 0.00371871 0)
(7.33843 0.000962275 0)
(7.33968 -0.00160929 0)
(7.34084 -0.00395385 0)
(7.34194 -0.00606881 0)
(7.34298 -0.00796953 0)
(7.34399 -0.00967846 0)
(7.34496 -0.0112203 0)
(7.34589 -0.0126195 0)
(7.3468 -0.0138986 0)
(7.34768 -0.0150777 0)
(7.34852 -0.0161745 0)
(7.34933 -0.0172043 0)
(7.3501 -0.0181802 0)
(7.35083 -0.0191134 0)
(7.35152 -0.0200133 0)
(7.35216 -0.0208881 0)
(7.35275 -0.0217445 0)
(7.35329 -0.0225882 0)
(7.35377 -0.0234241 0)
(7.3542 -0.0242561 0)
(7.35457 -0.0250876 0)
(7.35488 -0.0259212 0)
(7.35513 -0.0267591 0)
(7.35532 -0.027603 0)
(7.35544 -0.028454 0)
(7.3555 -0.0293126 0)
(7.33408 -0.00614839 0)
(7.33402 -0.0190227 0)
(7.33024 -0.0271189 0)
(7.32655 -0.0306731 0)
(7.32495 -0.0314691 0)
(7.32515 -0.0310679 0)
(7.32617 -0.0301377 0)
(7.32761 -0.0289999 0)
(7.32931 -0.0278528 0)
(7.33116 -0.0268003 0)
(7.33307 -0.0258866 0)
(7.33499 -0.0251264 0)
(7.33688 -0.0245187 0)
(7.33874 -0.0240545 0)
(7.34054 -0.0237211 0)
(7.34228 -0.0235052 0)
(7.34395 -0.0233936 0)
(7.34555 -0.023374 0)
(7.34708 -0.0234358 0)
(7.34852 -0.0235695 0)
(7.34989 -0.0237668 0)
(7.35118 -0.024021 0)
(7.35239 -0.0243259 0)
(7.35352 -0.0246766 0)
(7.35456 -0.0250688 0)
(7.35552 -0.025499 0)
(7.3564 -0.0259639 0)
(7.3572 -0.0264609 0)
(7.35792 -0.0269877 0)
(7.35856 -0.0275424 0)
(7.35911 -0.0281231 0)
(7.35959 -0.0287286 0)
(7.35999 -0.0293567 0)
(7.32967 0.01985 0)
(7.32497 0.0369754 0)
(7.3293 0.037658 0)
(7.33508 0.0322314 0)
(7.33869 0.0258023 0)
(7.34082 0.01947 0)
(7.3426 0.0135446 0)
(7.34429 0.00823184 0)
(7.346 0.00357805 0)
(7.34777 -0.000463246 0)
(7.34963 -0.00396102 0)
(7.35157 -0.00698673 0)
(7.35358 -0.00960932 0)
(7.35563 -0.0118913 0)
(7.35771 -0.0138872 0)
(7.35979 -0.0156435 0)
(7.36186 -0.0171996 0)
(7.3639 -0.0185887 0)
(7.3659 -0.0198385 0)
(7.36785 -0.0209723 0)
(7.36973 -0.0220096 0)
(7.37155 -0.0229667 0)
(7.37329 -0.0238573 0)
(7.37494 -0.0246928 0)
(7.37651 -0.0254828 0)
(7.37799 -0.0262356 0)
(7.37938 -0.0269579 0)
(7.38068 -0.0276557 0)
(7.38188 -0.0283337 0)
(7.38298 -0.0289961 0)
(7.38399 -0.0296467 0)
(7.3849 -0.0302879 0)
(7.38571 -0.0309234 0)
(7.32507 -0.0330913 0)
(7.29737 -0.0588008 0)
(7.27804 -0.061763 0)
(7.27373 -0.0594234 0)
(7.28034 -0.0559574 0)
(7.29178 -0.051938 0)
(7.30503 -0.0480166 0)
(7.31875 -0.0445292 0)
(7.33218 -0.0415258 0)
(7.34492 -0.0389887 0)
(7.35678 -0.0368811 0)
(7.36773 -0.0351514 0)
(7.37777 -0.0337459 0)
(7.38695 -0.0326151 0)
(7.3953 -0.0317158 0)
(7.40289 -0.0310108 0)
(7.40979 -0.0304686 0)
(7.41604 -0.030063 0)
(7.4217 -0.0297723 0)
(7.42681 -0.0295786 0)
(7.43142 -0.0294671 0)
(7.43557 -0.0294258 0)
(7.43929 -0.0294446 0)
(7.44261 -0.0295152 0)
(7.44557 -0.0296307 0)
(7.44818 -0.0297854 0)
(7.45048 -0.0299746 0)
(7.45248 -0.0301941 0)
(7.4542 -0.0304407 0)
(7.45567 -0.0307112 0)
(7.4569 -0.0310031 0)
(7.4579 -0.031314 0)
(7.4587 -0.0316408 0)