/*--------------------------------*- C++ -*----------------------------------*\
  =========                 |
  \\      /  F ield         | OpenFOAM: The Open Source CFD Toolbox
   \\    /   O peration     | Website:  https://openfoam.org
    \\  /    A nd           | Version:  10
     \\/     M anipulation  |
\*---------------------------------------------------------------------------*/
FoamFile
{
    format      ascii;
    class       volScalarField;
    location    "0.18";
    object      epsilon;
}
// * * * * * * * * * * * * * * * * * * * * * * * * * * * * * * * * * * * * * //

dimensions      [0 2 -3 0 0 0 0];

internalField   nonuniform List<scalar> 
6820
(
23.2969
22.5752
21.9094
21.2853
20.7018
20.1632
19.6734
19.2344
18.8457
18.505
18.2093
17.9548
17.7377
17.5541
17.4005
17.2738
17.1708
17.089
17.0258
16.979
16.9469
16.9275
16.9195
16.9213
16.9318
16.95
16.9743
17.0069
17.0335
17.1168
16.9609
17.9467
13.6006
5.03386
6.81832
7.83936
8.46765
8.89813
9.23158
9.52186
9.79539
10.0642
10.3333
10.6045
10.8783
11.1543
11.4321
11.711
11.9906
12.2701
12.5491
12.827
13.1033
13.3777
13.6498
13.9194
14.1865
14.4512
14.714
14.9761
15.2399
15.508
15.8013
16.0831
16.642
16.6639
3.7036
4.14719
4.56526
4.91423
5.19796
5.43124
5.62813
5.79983
5.95479
6.09912
6.23712
6.37169
6.50476
6.63756
6.77081
6.90494
7.04014
7.17644
7.31381
7.45214
7.59128
7.73109
7.87143
8.01221
8.15337
8.29497
8.43718
8.58074
8.7257
8.8766
9.02836
9.20323
9.37567
3.54009
3.61094
3.72474
3.85372
3.98118
4.09943
4.20624
4.30202
4.38826
4.46674
4.53918
4.60708
4.67169
4.734
4.79479
4.85465
4.91402
4.97322
5.03248
5.09196
5.15175
5.21192
5.27253
5.33359
5.39515
5.45727
5.52004
5.5837
5.64844
5.71511
5.78388
5.85619
5.93458
3.52064
3.50151
3.50498
3.52611
3.55868
3.59721
3.63781
3.67805
3.71666
3.75311
3.78729
3.81935
3.84956
3.87822
3.90563
3.93207
3.95779
3.98299
4.00786
4.03253
4.05712
4.08172
4.10641
4.13125
4.1563
4.18162
4.20729
4.2334
4.26008
4.28755
4.31599
4.34556
4.37667
3.5194
3.48247
3.45303
3.43232
3.41995
3.4145
3.41422
3.41751
3.42308
3.42998
3.43759
3.44547
3.45339
3.4612
3.46886
3.47634
3.48369
3.49091
3.49807
3.5052
3.51235
3.51956
3.52685
3.53428
3.54187
3.54966
3.55769
3.56601
3.57467
3.58376
3.59336
3.6035
3.61426
3.51943
3.47974
3.44283
3.40949
3.38025
3.35523
3.3342
3.31668
3.30212
3.28998
3.27976
3.27106
3.26356
3.25699
3.25118
3.24597
3.24127
3.237
3.23312
3.22957
3.22634
3.22341
3.22077
3.21841
3.21634
3.21455
3.21306
3.21187
3.21101
3.2105
3.21037
3.21064
3.21129
3.51947
3.47943
3.44109
3.40466
3.37041
3.33851
3.30907
3.28205
3.25734
3.23478
3.21417
3.19528
3.17792
3.1619
3.14705
3.13323
3.12032
3.10821
3.09683
3.0861
3.07595
3.06635
3.05725
3.04863
3.04044
3.03268
3.02532
3.01836
3.01179
3.00561
2.99981
2.99441
2.98938
3.51948
3.47941
3.44085
3.40382
3.36835
3.33447
3.30224
3.27168
3.24278
3.21551
3.18981
3.16561
3.1428
3.12131
3.10102
3.08185
3.06371
3.04652
3.0302
3.01468
2.99991
2.98582
2.97238
2.95954
2.94727
2.93553
2.92429
2.91354
2.90325
2.89341
2.88401
2.87503
2.86646
3.51948
3.47941
3.44082
3.40368
3.36796
3.33361
3.30062
3.26897
3.23863
3.20959
3.18182
3.15529
3.12994
3.10575
3.08264
3.06058
3.0395
3.01935
3.00008
2.98164
2.96399
2.94707
2.93085
2.91528
2.90034
2.88599
2.8722
2.85895
2.84621
2.83396
2.82219
2.81088
2.80001
3.51948
3.4794
3.44081
3.40365
3.36788
3.33344
3.30027
3.26833
3.23758
3.20798
3.1795
3.1521
3.12576
3.10042
3.07607
3.05266
3.03015
3.00851
2.9877
2.96769
2.94844
2.92991
2.91207
2.89489
2.87835
2.86241
2.84704
2.83223
2.81795
2.80418
2.79091
2.77811
2.76577
3.51948
3.4794
3.4408
3.40364
3.36786
3.33339
3.30018
3.26818
3.23732
3.20757
3.17888
3.15121
3.12452
3.09878
3.07395
3.05
3.0269
3.00461
2.9831
2.96235
2.94232
2.92298
2.90432
2.88629
2.86888
2.85207
2.83582
2.82013
2.80496
2.79031
2.77615
2.76246
2.74923
3.51948
3.4794
3.44079
3.40363
3.36784
3.33337
3.30015
3.26813
3.23725
3.20745
3.17871
3.15096
3.12417
3.0983
3.07332
3.04918
3.02586
3.00332
2.98154
2.96048
2.94012
2.92043
2.90139
2.88297
2.86516
2.84792
2.83123
2.81509
2.79946
2.78434
2.76971
2.75554
2.74182
3.51948
3.47939
3.44079
3.40362
3.36783
3.33336
3.30013
3.2681
3.23721
3.20741
3.17864
3.15087
3.12406
3.09815
3.07312
3.04892
3.02553
3.00291
2.98103
2.95986
2.93938
2.91956
2.90037
2.88179
2.8638
2.84637
2.8295
2.81315
2.79731
2.78197
2.76711
2.7527
2.73874
3.51947
3.47939
3.44079
3.40362
3.36782
3.33334
3.30011
3.26808
3.23718
3.20737
3.1786
3.15083
3.124
3.09808
3.07303
3.04882
3.02541
3.00276
2.98085
2.95965
2.93912
2.91925
2.90001
2.88137
2.86331
2.84582
2.82887
2.81244
2.79651
2.78108
2.76611
2.7516
2.73753
3.51947
3.47939
3.44078
3.40361
3.36781
3.33333
3.3001
3.26806
3.23716
3.20735
3.17857
3.15079
3.12396
3.09804
3.07298
3.04876
3.02534
3.00268
2.98076
2.95955
2.93901
2.91912
2.89986
2.8812
2.86312
2.8456
2.82862
2.81216
2.7962
2.78073
2.76572
2.75117
2.73705
3.51947
3.47939
3.44078
3.40361
3.36781
3.33332
3.30008
3.26804
3.23714
3.20732
3.17854
3.15076
3.12392
3.098
3.07294
3.04871
3.02529
3.00263
2.9807
2.95948
2.93894
2.91904
2.89977
2.88111
2.86302
2.84549
2.8285
2.81203
2.79606
2.78057
2.76554
2.75097
2.73682
3.51947
3.47939
3.44078
3.4036
3.3678
3.33331
3.30007
3.26803
3.23712
3.2073
3.17852
3.15073
3.12389
3.09796
3.0729
3.04867
3.02524
3.00258
2.98065
2.95942
2.93888
2.91898
2.89971
2.88104
2.86295
2.84541
2.82842
2.81194
2.79596
2.78046
2.76542
2.75084
2.73668
3.51947
3.47939
3.44078
3.4036
3.3678
3.3333
3.30006
3.26801
3.2371
3.20728
3.1785
3.15071
3.12386
3.09793
3.07287
3.04863
3.0252
3.00253
2.9806
2.95937
2.93882
2.91892
2.89965
2.88098
2.86288
2.84534
2.82834
2.81186
2.79587
2.78037
2.76533
2.75073
2.73657
3.51947
3.47939
3.44077
3.4036
3.36779
3.3333
3.30006
3.268
3.23709
3.20727
3.17848
3.15068
3.12384
3.0979
3.07283
3.0486
3.02516
3.00249
2.98056
2.95933
2.93877
2.91887
2.89959
2.88092
2.86282
2.84528
2.82827
2.81178
2.79579
2.78028
2.76523
2.75063
2.73646
3.51947
3.47939
3.44077
3.40359
3.36779
3.33329
3.30005
3.26799
3.23708
3.20725
3.17846
3.15066
3.12382
3.09788
3.07281
3.04857
3.02513
3.00246
2.98052
2.95929
2.93873
2.91882
2.89954
2.88086
2.86276
2.84522
2.82821
2.81171
2.79572
2.7802
2.76515
2.75054
2.73636
3.51947
3.47938
3.44077
3.40359
3.36779
3.33329
3.30004
3.26799
3.23707
3.20724
3.17845
3.15065
3.1238
3.09785
3.07278
3.04854
3.0251
3.00243
2.98048
2.95925
2.93869
2.91878
2.8995
2.88081
2.86271
2.84516
2.82814
2.81165
2.79565
2.78012
2.76506
2.75045
2.73626
3.51947
3.47938
3.44077
3.40359
3.36778
3.33329
3.30004
3.26798
3.23706
3.20723
3.17843
3.15063
3.12378
3.09783
3.07276
3.04852
3.02507
3.0024
2.98045
2.95921
2.93865
2.91874
2.89945
2.88076
2.86265
2.8451
2.82808
2.81158
2.79558
2.78005
2.76498
2.75036
2.73617
3.51947
3.47938
3.44077
3.40359
3.36778
3.33328
3.30003
3.26797
3.23705
3.20722
3.17842
3.15062
3.12376
3.09782
3.07274
3.0485
3.02505
3.00237
2.98042
2.95918
2.93862
2.9187
2.89941
2.88072
2.86261
2.84505
2.82803
2.81152
2.79551
2.77998
2.76491
2.75028
2.73608
3.51947
3.47938
3.44077
3.40359
3.36778
3.33328
3.30003
3.26797
3.23705
3.20721
3.17841
3.15061
3.12375
3.0978
3.07272
3.04848
3.02503
3.00235
2.9804
2.95915
2.93858
2.91867
2.89937
2.88068
2.86256
2.845
2.82798
2.81146
2.79545
2.77991
2.76483
2.7502
2.73599
3.51947
3.47938
3.44077
3.40359
3.36778
3.33328
3.30003
3.26797
3.23704
3.20721
3.17841
3.1506
3.12374
3.09779
3.07271
3.04846
3.02501
3.00233
2.98038
2.95913
2.93856
2.91864
2.89934
2.88064
2.86252
2.84496
2.82793
2.81141
2.79539
2.77985
2.76477
2.75013
2.73592
3.51947
3.47938
3.44077
3.40359
3.36778
3.33328
3.30002
3.26796
3.23704
3.2072
3.1784
3.15059
3.12373
3.09778
3.0727
3.04845
3.02499
3.00231
2.98035
2.9591
2.93853
2.91861
2.89931
2.88061
2.86248
2.84492
2.82788
2.81136
2.79534
2.77979
2.7647
2.75006
2.73584
3.51947
3.47938
3.44077
3.40359
3.36778
3.33328
3.30002
3.26796
3.23704
3.2072
3.1784
3.15059
3.12373
3.09777
3.07269
3.04844
3.02499
3.0023
2.98034
2.95909
2.93851
2.91859
2.89928
2.88058
2.86245
2.84488
2.82785
2.81132
2.79529
2.77974
2.76465
2.75
2.73578
3.51947
3.47938
3.44077
3.40359
3.36778
3.33327
3.30002
3.26796
3.23703
3.20719
3.17839
3.15058
3.12372
3.09776
3.07268
3.04842
3.02497
3.00228
2.98032
2.95907
2.93849
2.91856
2.89926
2.88055
2.86242
2.84485
2.82781
2.81128
2.79525
2.77969
2.7646
2.74995
2.73572
3.51947
3.47938
3.44077
3.40359
3.36778
3.33328
3.30003
3.26797
3.23704
3.2072
3.1784
3.15059
3.12373
3.09778
3.07269
3.04844
3.02498
3.00229
2.98033
2.95907
2.93849
2.91856
2.89926
2.88055
2.86242
2.84484
2.82779
2.81126
2.79523
2.77967
2.76457
2.74991
2.73568
3.51947
3.47939
3.44077
3.40359
3.36778
3.33328
3.30002
3.26796
3.23703
3.20719
3.17839
3.15058
3.12372
3.09776
3.07268
3.04842
3.02497
3.00228
2.98032
2.95906
2.93849
2.91856
2.89925
2.88054
2.86241
2.84483
2.82779
2.81126
2.79522
2.77966
2.76456
2.7499
2.73567
3.51947
3.47938
3.44077
3.40359
3.36779
3.3333
3.30006
3.268
3.23708
3.20725
3.17845
3.15065
3.12379
3.09783
3.07275
3.0485
3.02504
3.00235
2.98039
2.95914
2.93856
2.91863
2.89933
2.88062
2.86249
2.84492
2.82788
2.81136
2.79533
2.77978
2.76469
2.75004
2.73582
3.51948
3.4794
3.44079
3.40362
3.36782
3.33332
3.30007
3.26801
3.23709
3.20725
3.17846
3.15065
3.1238
3.09786
3.07279
3.04855
3.02512
3.00245
2.98051
2.95929
2.93874
2.91885
2.89958
2.88091
2.86283
2.8453
2.82831
2.81184
2.79586
2.78037
2.76534
2.75075
2.73659
3.51947
3.47939
3.44079
3.40365
3.36789
3.33344
3.30023
3.26822
3.23734
3.20754
3.17879
3.15103
3.12423
3.09835
3.07335
3.0492
3.02585
3.00329
2.98148
2.96039
2.93999
2.92026
2.90116
2.88268
2.8648
2.84748
2.83071
2.81447
2.79874
2.78349
2.76872
2.7544
2.74051
3.51949
3.47947
3.44095
3.40384
3.3681
3.33368
3.30054
3.26862
3.23789
3.2083
3.17981
3.15237
3.12595
3.10051
3.07601
3.0524
3.02966
3.00775
2.98664
2.96629
2.94667
2.92775
2.9095
2.8919
2.87491
2.85851
2.84267
2.82738
2.81261
2.79833
2.78453
2.77118
2.75827
3.5195
3.47953
3.44117
3.40446
3.36933
3.33573
3.3036
3.27291
3.24364
3.21573
3.18914
3.16382
3.13971
3.11676
3.09491
3.07409
3.05427
3.03537
3.01735
3.00015
2.98372
2.96803
2.95302
2.93865
2.92489
2.9117
2.89905
2.8869
2.87523
2.86401
2.85321
2.84281
2.83279
3.51969
3.48122
3.44561
3.41286
3.38296
3.35589
3.33152
3.30969
3.29017
3.27276
3.25724
3.2434
3.23106
3.22004
3.21018
3.20134
3.1934
3.18624
3.17976
3.17387
3.16851
3.16359
3.15906
3.15487
3.15097
3.14732
3.14388
3.14063
3.13754
3.13459
3.13175
3.12901
3.12635
3.52527
3.5137
3.51624
3.52954
3.5508
3.57801
3.60954
3.64411
3.68076
3.71875
3.7575
3.79654
3.83553
3.87418
3.91229
3.94968
3.98624
4.02188
4.05654
4.09016
4.12273
4.15423
4.18467
4.21403
4.24235
4.26963
4.2959
4.32119
4.34551
4.3689
4.39139
4.413
4.43379
3.83318
4.36504
4.84909
5.31391
5.77408
6.22502
6.66242
7.08444
7.49071
7.8816
8.25789
8.62047
8.97022
9.30798
9.63448
9.95039
10.2563
10.5527
10.84
11.1187
11.389
11.6514
11.9061
12.1535
12.3937
12.627
12.8536
13.0739
13.2879
13.496
13.6983
13.8951
14.0865
30.2663
32.7713
35.3126
37.865
40.4147
42.9529
45.4713
47.9624
50.4192
52.8356
55.2061
57.5257
59.7905
61.9971
64.1426
66.2249
68.2425
70.1941
72.0791
73.8973
75.6487
77.3337
78.9531
80.5078
81.9989
83.4276
84.7955
86.1041
87.3551
88.55
89.6908
90.779
91.8176
82.9777
236.904
420.833
589.609
716.02
791.124
819.598
813.199
784.877
745.29
701.673
658.244
617.139
579.256
544.809
513.67
485.55
460.118
437.056
416.089
396.987
379.552
363.605
348.975
335.501
323.025
311.401
300.49
290.171
280.328
270.862
261.682
252.705
243.859
235.079
226.313
217.513
208.644
199.677
190.596
181.391
172.064
162.626
153.098
143.513
133.911
124.343
114.867
105.548
96.4538
87.6555
79.2217
71.2176
63.7011
56.7204
50.3117
44.4974
39.2855
34.6698
30.6311
27.1387
24.1538
21.6317
19.5251
17.787
16.3724
15.2407
14.3556
13.6865
13.2075
12.8974
12.7386
12.716
12.8163
13.0263
13.3319
13.7171
14.163
14.6478
15.1463
15.6311
16.0735
16.4449
16.7182
16.8691
16.8778
16.729
16.4131
15.9263
15.2706
14.4543
13.4921
12.4048
11.22
9.97149
8.69827
7.44578
6.24533
5.22132
3.88871
19.9785
29.6241
47.3119
73.6501
107.55
146.621
187.816
228.159
265.167
297.012
322.561
341.265
353.126
358.69
358.95
355.131
348.441
339.901
330.277
320.105
309.741
299.414
289.267
279.378
269.78
260.478
251.457
242.692
234.148
225.79
217.579
209.475
201.439
193.436
185.433
177.403
169.325
161.184
152.976
144.701
136.368
127.995
119.606
111.235
102.921
94.7125
86.6619
78.8261
71.2639
64.0336
57.1901
50.7827
44.8522
39.4285
34.5296
30.1601
26.3119
22.9645
20.0878
17.6439
15.59
13.8816
12.4748
11.3283
10.4047
9.67174
9.10212
8.67371
8.36906
8.17486
8.08131
8.08142
8.1702
8.34378
8.59844
8.92949
9.33014
9.79043
10.2964
10.8299
11.3683
11.886
12.3554
12.7487
13.0397
13.2055
13.2279
13.0942
12.7981
12.3397
11.7263
10.9718
10.0972
9.13009
8.10421
7.05796
6.03366
5.06212
4.24216
3.19819
9.55169
9.90221
10.8684
12.8779
16.239
21.1248
27.5973
35.5707
44.9536
55.687
67.6695
80.6199
94.0909
107.526
120.357
132.101
142.41
151.061
157.944
163.039
166.414
168.21
168.618
167.856
166.135
163.639
160.523
156.906
152.88
148.514
143.857
138.948
133.813
128.476
122.953
117.263
111.425
105.458
99.3861
93.2377
87.0435
80.8385
74.6617
68.5553
62.5648
56.7372
51.1205
45.7613
40.7029
35.9834
31.6334
27.6745
24.1181
20.9648
18.2051
15.8197
13.7822
12.0606
10.62
9.42476
8.44062
7.63589
6.9825
6.45633
6.03726
5.70901
5.45875
5.27672
5.1559
5.0916
5.08115
5.12355
5.21917
5.36929
5.57552
5.83916
6.16017
6.5362
6.96142
7.4256
7.91365
8.4057
8.87805
9.30462
9.65898
9.91638
10.0556
10.0608
9.92203
9.63666
9.2093
8.65204
7.98423
7.23202
6.42707
5.60521
4.80399
4.05112
3.4221
2.63499
6.0196
6.10184
6.20284
6.37816
6.69379
7.21321
7.98723
9.04831
10.4176
12.1187
14.1505
16.5444
19.3278
22.5088
26.0729
29.9837
34.1863
38.6053
43.142
47.6747
52.0672
56.1835
59.9027
63.1295
65.7975
67.8687
69.3295
70.1869
70.4637
70.1945
69.4214
68.1902
66.5479
64.5403
62.212
59.6061
56.7649
53.73
50.5434
47.247
43.8827
40.4924
37.1174
33.7977
30.5721
27.4765
24.5433
21.8001
19.2686
16.9638
14.8933
13.0578
11.4507
10.0602
8.86972
7.85986
7.00986
6.29894
5.70733
5.21702
4.81214
4.47905
4.20637
3.98472
3.80658
3.66607
3.55874
3.48142
3.43208
3.40978
3.41452
3.44724
3.50973
3.6045
3.73461
3.90334
4.11367
4.36754
4.66491
5.00267
5.37363
5.76588
6.16275
6.54353
6.885
7.16339
7.35664
7.44643
7.41989
7.27087
7.00056
6.6178
6.13873
5.58619
4.98792
4.3751
3.77908
3.22272
2.76156
2.19048
4.41332
4.45287
4.49147
4.53396
4.58897
4.66875
4.78713
4.95678
5.18745
5.48849
5.86053
6.30521
6.82599
7.42591
8.10716
8.87148
9.72067
10.6559
11.6762
12.7758
13.9431
15.16
16.4031
17.6442
18.8522
19.9942
21.0372
21.9496
22.7036
23.2765
23.652
23.8211
23.7816
23.5375
23.0988
22.4803
21.7008
20.7824
19.7493
18.6275
17.4433
16.2226
14.9904
13.7697
12.5813
11.4431
10.3698
9.37233
8.45819
7.6311
6.89155
6.2372
5.66358
5.16467
4.73357
4.36302
4.04584
3.77522
3.54493
3.34939
3.18375
3.04383
2.92612
2.82773
2.74633
2.68011
2.62776
2.58842
2.5617
2.54766
2.54686
2.5603
2.58952
2.63656
2.70395
2.79461
2.91166
3.05806
3.23606
3.44643
3.68753
3.95441
4.23809
4.52542
4.7996
5.0415
5.23151
5.3517
5.38787
5.33123
5.17956
4.93775
4.61755
4.23697
3.81829
3.38644
2.96595
2.57419
2.25085
1.8511
3.62731
3.64205
3.65662
3.67137
3.68709
3.70555
3.72951
3.76241
3.80775
3.86914
3.94831
4.04659
4.16476
4.30303
4.46119
4.63876
4.83531
5.05047
5.28372
5.53405
5.79972
6.07808
6.36567
6.65821
6.95067
7.23726
7.51143
7.76604
7.99361
8.18679
8.33875
8.44365
8.49696
8.49578
8.43898
8.32728
8.16323
7.95112
7.69666
7.40673
7.08892
6.75116
6.40133
6.0469
5.6947
5.35069
5.01984
4.70607
4.4122
4.14006
3.89053
3.66375
3.45919
3.27588
3.11251
2.96755
2.8394
2.72643
2.62707
2.53983
2.46334
2.3964
2.33793
2.28704
2.24298
2.2052
2.1733
2.14708
2.12653
2.11186
2.10351
2.10218
2.10887
2.12489
2.15189
2.19183
2.24699
2.31974
2.41239
2.52669
2.66336
2.82132
2.99696
3.18365
3.3715
3.54781
3.69812
3.80783
3.86401
3.85726
3.78311
3.64288
3.44373
3.19817
2.92236
2.63454
2.35258
2.08878
1.87104
1.59984
3.21251
3.21408
3.21572
3.21742
3.21925
3.22135
3.22415
3.22835
3.23487
3.24483
3.25915
3.27868
3.30404
3.33558
3.37342
3.41745
3.46746
3.52313
3.58408
3.64976
3.71944
3.79218
3.8669
3.94233
4.0171
4.08972
4.15855
4.22183
4.27772
4.32437
4.36003
4.38308
4.39218
4.38635
4.36496
4.32786
4.27533
4.20815
4.1275
4.03495
3.93237
3.82179
3.70537
3.58523
3.46342
3.34184
3.22219
3.1059
2.99416
2.8879
2.78776
2.69415
2.60727
2.5271
2.4535
2.3862
2.32485
2.26903
2.2183
2.1722
2.13029
2.09214
2.05739
2.02569
1.99678
1.97043
1.94653
1.92502
1.90594
1.88945
1.87583
1.86548
1.85899
1.85713
1.86088
1.87141
1.89016
1.91869
1.95868
2.01165
2.07877
2.16034
2.25541
2.36121
2.4728
2.58303
2.68288
2.76235
2.81166
2.8228
2.79079
2.71468
2.5979
2.44801
2.27552
2.09259
1.91145
1.74024
1.59842
1.41898
2.98396
2.97803
2.97218
2.9664
2.96067
2.95502
2.94946
2.94411
2.93917
2.93488
2.93155
2.92949
2.929
2.93033
2.93363
2.939
2.94645
2.95596
2.96741
2.98064
2.99535
3.01121
3.02776
3.04455
3.06104
3.07669
3.09092
3.10313
3.11271
3.11903
3.12151
3.11962
3.11291
3.10103
3.08375
3.06097
3.03273
2.99922
2.96076
2.91782
2.87096
2.82083
2.76814
2.7136
2.65795
2.60188
2.54605
2.49104
2.43736
2.38543
2.33558
2.28805
2.24299
2.20047
2.16049
2.12299
2.08786
2.05495
2.02411
1.99513
1.96783
1.94203
1.91754
1.89422
1.87192
1.85056
1.83008
1.81044
1.79169
1.77391
1.75725
1.74195
1.72832
1.7168
1.70793
1.7024
1.70104
1.7048
1.71475
1.73196
1.7574
1.79167
1.83479
1.88582
1.94258
2.00149
2.05755
2.10477
2.13681
2.14788
2.13382
2.09285
2.02606
1.9374
1.83304
1.72042
1.60743
1.49908
1.40888
1.29218
2.85696
2.84639
2.83592
2.82553
2.81521
2.80494
2.79472
2.78455
2.77446
2.7645
2.75474
2.74526
2.73615
2.72751
2.71941
2.71191
2.70507
2.69892
2.69346
2.68867
2.68447
2.68076
2.67738
2.67414
2.67085
2.66729
2.66322
2.6584
2.65259
2.64552
2.63698
2.62674
2.61461
2.60045
2.58415
2.56567
2.54499
2.52219
2.49737
2.47069
2.44237
2.41266
2.38182
2.35016
2.31798
2.28556
2.25319
2.22113
2.18959
2.15878
2.12884
2.09987
2.07197
2.04515
2.01942
1.99473
1.97105
1.94827
1.92632
1.90509
1.88446
1.86433
1.84461
1.82519
1.80601
1.78699
1.76811
1.74935
1.73072
1.71226
1.69406
1.67625
1.65899
1.64251
1.62713
1.61322
1.60125
1.59178
1.58544
1.58291
1.58488
1.59189
1.60421
1.62168
1.64346
1.66792
1.69253
1.71403
1.7287
1.73289
1.72365
1.69929
1.6598
1.60696
1.54407
1.47533
1.40561
1.33771
1.28098
1.20552
2.78786
2.77428
2.7608
2.74741
2.73409
2.72083
2.70763
2.69449
2.68139
2.66835
2.65537
2.64248
2.62969
2.61702
2.60448
2.59209
2.57988
2.56785
2.55604
2.54444
2.53306
2.52186
2.51079
2.4998
2.48882
2.47776
2.46654
2.45506
2.44321
2.43089
2.41802
2.40448
2.3902
2.37512
2.35918
2.34236
2.32465
2.30607
2.28667
2.26651
2.24567
2.22427
2.20242
2.18026
2.15791
2.1355
2.11317
2.09101
2.06914
2.04764
2.02656
2.00594
1.98582
1.96619
1.94703
1.92831
1.90999
1.89199
1.87426
1.85671
1.83929
1.82191
1.8045
1.78699
1.76935
1.75151
1.73345
1.71516
1.69664
1.67791
1.65902
1.64003
1.62104
1.60217
1.5836
1.56554
1.54824
1.53203
1.51727
1.50438
1.49378
1.48589
1.481
1.4792
1.48026
1.48354
1.48788
1.49163
1.4928
1.4893
1.47927
1.46145
1.43549
1.40206
1.36279
1.31988
1.27623
1.23314
1.19718
1.14776
2.75192
2.73639
2.72096
2.7056
2.69032
2.67511
2.65995
2.64486
2.62981
2.61482
2.59989
2.58502
2.57021
2.55546
2.54076
2.52611
2.51152
2.49699
2.48251
2.46811
2.45377
2.43951
2.4253
2.41113
2.39697
2.38281
2.3686
2.35432
2.33994
2.32541
2.31069
2.29575
2.28055
2.26508
2.2493
2.23321
2.2168
2.20009
2.18309
2.16583
2.14835
2.1307
2.11293
2.09509
2.07725
2.05946
2.04177
2.02424
2.0069
1.98978
1.9729
1.95626
1.93985
1.92367
1.90767
1.89183
1.87609
1.86041
1.84474
1.829
1.81314
1.79711
1.78085
1.76431
1.74745
1.73022
1.71262
1.69461
1.67621
1.65742
1.63827
1.61879
1.59905
1.57912
1.55909
1.5391
1.51929
1.49984
1.48097
1.46292
1.44596
1.43037
1.41637
1.40413
1.39366
1.38477
1.37699
1.36958
1.36158
1.35187
1.33942
1.32341
1.3035
1.27987
1.25328
1.22477
1.19605
1.1675
1.14385
1.11019
2.73435
2.71763
2.70098
2.68439
2.66786
2.65139
2.63498
2.61862
2.60232
2.58607
2.56987
2.55374
2.53767
2.52166
2.5057
2.48979
2.47392
2.4581
2.44231
2.42657
2.41088
2.39523
2.37962
2.36405
2.34851
2.33299
2.3175
2.30201
2.28652
2.27102
2.25551
2.23996
2.22436
2.20872
2.19303
2.17728
2.16148
2.14563
2.12974
2.11383
2.09792
2.08202
2.06616
2.05036
2.03465
2.01905
2.00358
1.98825
1.97308
1.95806
1.94319
1.92846
1.91384
1.89931
1.88484
1.87038
1.85589
1.84133
1.82664
1.81178
1.79669
1.78132
1.76563
1.74957
1.7331
1.71621
1.69886
1.68104
1.66275
1.644
1.6248
1.60517
1.58516
1.56482
1.5442
1.52339
1.50249
1.48161
1.46087
1.44043
1.42046
1.40114
1.38264
1.3651
1.34862
1.33318
1.31867
1.30478
1.29112
1.27716
1.26238
1.24634
1.22879
1.20973
1.18954
1.16863
1.14803
1.12757
1.11084
1.08622
2.72636
2.70896
2.69161
2.6743
2.65703
2.63981
2.62263
2.60549
2.5884
2.57136
2.55437
2.53744
2.52057
2.50375
2.487
2.4703
2.45366
2.43706
2.42052
2.40403
2.3876
2.37122
2.35489
2.33862
2.32241
2.30624
2.29013
2.27408
2.25808
2.24213
2.22624
2.2104
2.19463
2.1789
2.16324
2.14764
2.13211
2.11665
2.10127
2.08597
2.07078
2.05568
2.04071
2.02586
2.01114
1.99656
1.98212
1.96782
1.95365
1.93961
1.92567
1.91182
1.89803
1.88426
1.87049
1.85667
1.84275
1.8287
1.81447
1.8
1.78526
1.7702
1.75478
1.73895
1.7227
1.70598
1.68878
1.67109
1.65291
1.63423
1.61507
1.59544
1.57539
1.55494
1.53415
1.51308
1.49178
1.47034
1.44886
1.42743
1.40617
1.3852
1.36464
1.34462
1.32524
1.30656
1.28858
1.27124
1.2544
1.23787
1.22142
1.20485
1.18803
1.17093
1.15375
1.1366
1.12015
1.10392
1.09085
1.0711
2.72298
2.70523
2.6875
2.6698
2.65213
2.63448
2.61687
2.59928
2.58173
2.56422
2.54676
2.52934
2.51198
2.49467
2.47742
2.46022
2.44309
2.42601
2.40899
2.39204
2.37515
2.35833
2.34157
2.32489
2.30828
2.29175
2.2753
2.25892
2.24264
2.22644
2.21034
2.19433
2.17843
2.16263
2.14695
2.13139
2.11594
2.10063
2.08545
2.0704
2.0555
2.04075
2.02614
2.01169
1.99739
1.98324
1.96924
1.95538
1.94163
1.928
1.91445
1.90097
1.88751
1.87406
1.86056
1.84699
1.8333
1.81945
1.8054
1.79109
1.77649
1.76156
1.74625
1.73054
1.71438
1.69777
1.68067
1.66307
1.64497
1.62638
1.6073
1.58775
1.56776
1.54735
1.52658
1.50548
1.48412
1.46255
1.44085
1.41909
1.39737
1.37578
1.35441
1.33336
1.31273
1.29259
1.273
1.25399
1.23555
1.21764
1.20019
1.18314
1.16645
1.15011
1.13423
1.11881
1.10432
1.09015
1.07886
1.06151
2.72163
2.70371
2.6858
2.6679
2.65002
2.63215
2.61431
2.59648
2.57868
2.56091
2.54318
2.52548
2.50783
2.49023
2.47267
2.45517
2.43773
2.42035
2.40303
2.38577
2.36859
2.35148
2.33444
2.31749
2.30062
2.28384
2.26716
2.25057
2.23408
2.21771
2.20144
2.1853
2.16928
2.1534
2.13765
2.12205
2.10659
2.09129
2.07614
2.06115
2.04633
2.03167
2.01718
2.00285
1.98868
1.97467
1.96081
1.94708
1.93347
1.91995
1.90652
1.89314
1.87977
1.8664
1.85297
1.83946
1.82582
1.81202
1.798
1.78373
1.76916
1.75427
1.739
1.72333
1.70723
1.69067
1.67363
1.65611
1.6381
1.61959
1.60061
1.58116
1.56127
1.54097
1.5203
1.4993
1.47801
1.4565
1.43483
1.41306
1.39127
1.36953
1.34793
1.32656
1.30549
1.28481
1.26459
1.24489
1.22575
1.2072
1.18925
1.17191
1.15519
1.1391
1.12374
1.10904
1.09539
1.08211
1.07158
1.05525
2.72109
2.70309
2.68509
2.6671
2.64911
2.63114
2.61317
2.59522
2.57729
2.55939
2.5415
2.52365
2.50584
2.48807
2.47034
2.45265
2.43502
2.41745
2.39994
2.38249
2.36511
2.3478
2.33058
2.31343
2.29638
2.27942
2.26256
2.2458
2.22916
2.21263
2.19623
2.17996
2.16382
2.14783
2.13198
2.11629
2.10076
2.0854
2.0702
2.05517
2.04031
2.02562
2.01111
1.99676
1.98258
1.96856
1.95468
1.94093
1.9273
1.91377
1.90031
1.8869
1.87351
1.8601
1.84663
1.83309
1.81941
1.80557
1.79152
1.77723
1.76265
1.74774
1.73248
1.71682
1.70074
1.68422
1.66723
1.64978
1.63184
1.61343
1.59455
1.57521
1.55545
1.53528
1.51474
1.49388
1.47274
1.45137
1.42983
1.40818
1.38649
1.36483
1.34327
1.3219
1.30077
1.27998
1.2596
1.2397
1.22033
1.20156
1.18342
1.16596
1.14922
1.1332
1.11801
1.10356
1.09021
1.07724
1.06696
1.0509
2.72083
2.7028
2.68475
2.66671
2.64868
2.63065
2.61262
2.59461
2.57661
2.55862
2.54066
2.52273
2.50482
2.48694
2.46911
2.45132
2.43357
2.41588
2.39824
2.38066
2.36315
2.34571
2.32835
2.31107
2.29388
2.27678
2.25978
2.24289
2.22611
2.20945
2.19292
2.17652
2.16027
2.14415
2.1282
2.1124
2.09676
2.08129
2.06599
2.05087
2.03592
2.02114
2.00654
1.99211
1.97784
1.96373
1.94976
1.93592
1.92221
1.90858
1.89503
1.88153
1.86804
1.85454
1.841
1.82737
1.81362
1.79971
1.7856
1.77125
1.75663
1.74169
1.72641
1.71075
1.69468
1.67819
1.66125
1.64385
1.62599
1.60766
1.58889
1.56967
1.55004
1.53001
1.50963
1.48893
1.46796
1.44676
1.4254
1.40393
1.38242
1.36092
1.33951
1.31827
1.29726
1.27655
1.25623
1.23635
1.21699
1.1982
1.18005
1.16257
1.14583
1.12983
1.11468
1.10029
1.08698
1.07406
1.06376
1.04762
2.72068
2.70262
2.68455
2.66648
2.64842
2.63035
2.61229
2.59424
2.5762
2.55817
2.54016
2.52217
2.5042
2.48627
2.46836
2.4505
2.43268
2.4149
2.39718
2.37951
2.3619
2.34437
2.3269
2.30952
2.29222
2.27501
2.2579
2.24089
2.224
2.20722
2.19057
2.17406
2.15768
2.14145
2.12537
2.10945
2.0937
2.07811
2.06269
2.04745
2.03238
2.01748
2.00276
1.98821
1.97382
1.95958
1.94549
1.93154
1.9177
1.90395
1.89028
1.87665
1.86305
1.84944
1.83579
1.82205
1.80821
1.79421
1.78003
1.76561
1.75094
1.73597
1.72066
1.70499
1.68893
1.67246
1.65556
1.63822
1.62043
1.60219
1.58352
1.56442
1.54492
1.52504
1.50482
1.48429
1.4635
1.44249
1.42132
1.40005
1.37874
1.35744
1.33623
1.31518
1.29435
1.27381
1.25363
1.23388
1.21462
1.19592
1.17782
1.16039
1.14367
1.12768
1.11252
1.09811
1.08473
1.07173
1.06131
1.04489
2.72055
2.70247
2.68439
2.6663
2.64821
2.63013
2.61204
2.59396
2.57589
2.55783
2.53978
2.52175
2.50375
2.48577
2.46781
2.4499
2.43202
2.41418
2.39639
2.37865
2.36098
2.34336
2.32581
2.30834
2.29096
2.27365
2.25645
2.23934
2.22235
2.20547
2.18871
2.17208
2.15559
2.13924
2.12305
2.10701
2.09113
2.07541
2.05987
2.0445
2.0293
2.01427
1.99942
1.98473
1.97021
1.95584
1.94161
1.92752
1.91354
1.89966
1.88585
1.8721
1.85837
1.84464
1.83087
1.81702
1.80308
1.78899
1.77472
1.76024
1.74551
1.7305
1.71516
1.69948
1.68343
1.66698
1.65012
1.63283
1.61511
1.59696
1.57839
1.55941
1.54004
1.52031
1.50025
1.47989
1.45928
1.43846
1.41749
1.39643
1.37532
1.35424
1.33324
1.31239
1.29176
1.27142
1.25142
1.23183
1.21272
1.19413
1.17613
1.15876
1.14208
1.1261
1.11091
1.09643
1.08295
1.06981
1.05921
1.04244
2.72043
2.70235
2.68425
2.66614
2.64804
2.62993
2.61182
2.59372
2.57562
2.55753
2.53946
2.5214
2.50336
2.48534
2.46735
2.44939
2.43146
2.41357
2.39573
2.37793
2.36019
2.34251
2.32489
2.30735
2.28988
2.2725
2.25521
2.23802
2.22093
2.20395
2.18709
2.17036
2.15376
2.1373
2.12099
2.10483
2.08883
2.073
2.05733
2.04183
2.0265
2.01134
1.99635
1.98152
1.96686
1.95235
1.93799
1.92375
1.90963
1.89561
1.88167
1.86778
1.85393
1.84007
1.82618
1.81222
1.79818
1.784
1.76965
1.7551
1.74031
1.72525
1.70989
1.6942
1.67815
1.66172
1.64489
1.62766
1.61001
1.59195
1.57348
1.55462
1.53538
1.51579
1.49588
1.47569
1.45526
1.43464
1.41387
1.39301
1.37211
1.35124
1.33046
1.30982
1.2894
1.26925
1.24944
1.23002
1.21106
1.1926
1.1747
1.1574
1.14076
1.12478
1.10954
1.09498
1.08137
1.06806
1.05727
1.0401
2.72032
2.70222
2.68411
2.66599
2.64787
2.62974
2.61162
2.59349
2.57537
2.55726
2.53916
2.52107
2.503
2.48495
2.46692
2.44892
2.43095
2.41302
2.39512
2.37728
2.35948
2.34174
2.32406
2.30645
2.28891
2.27146
2.25409
2.23681
2.21963
2.20257
2.18561
2.16878
2.15208
2.13552
2.1191
2.10283
2.08671
2.07076
2.05496
2.03934
2.02388
2.00859
1.99347
1.97851
1.96371
1.94906
1.93456
1.92018
1.90593
1.89177
1.87769
1.86367
1.84968
1.8357
1.8217
1.80763
1.79348
1.77921
1.76478
1.75017
1.73532
1.72022
1.70484
1.68913
1.67308
1.65668
1.63989
1.6227
1.60512
1.58715
1.56878
1.55003
1.53092
1.51148
1.49172
1.4717
1.45145
1.43101
1.41044
1.38978
1.36909
1.34843
1.32786
1.30743
1.28721
1.26726
1.24763
1.22838
1.20956
1.19123
1.17342
1.15619
1.13957
1.12358
1.10829
1.09363
1.07987
1.06637
1.05536
1.03777
2.72022
2.70211
2.68398
2.66585
2.64771
2.62957
2.61142
2.59328
2.57514
2.557
2.53888
2.52076
2.50266
2.48458
2.46652
2.44848
2.43047
2.41249
2.39456
2.37666
2.35881
2.34102
2.32328
2.30561
2.28801
2.27048
2.25304
2.23568
2.21843
2.20127
2.18423
2.16731
2.15052
2.13385
2.11733
2.10095
2.08472
2.06865
2.05274
2.03699
2.02141
2.00599
1.99074
1.97565
1.96072
1.94594
1.9313
1.91679
1.9024
1.88811
1.8739
1.85975
1.84563
1.83153
1.81741
1.80324
1.78899
1.77463
1.76013
1.74544
1.73055
1.71541
1.69999
1.68428
1.66823
1.65184
1.63509
1.61796
1.60045
1.58256
1.56429
1.54566
1.52668
1.50737
1.48777
1.46792
1.44784
1.42759
1.40721
1.38675
1.36626
1.34581
1.32544
1.30521
1.28519
1.26542
1.24597
1.22687
1.20819
1.18997
1.17225
1.15507
1.13846
1.12244
1.10707
1.0923
1.07836
1.06465
1.05341
1.03537
2.72011
2.70199
2.68386
2.66571
2.64756
2.6294
2.61124
2.59308
2.57492
2.55676
2.53861
2.52047
2.50234
2.48423
2.46613
2.44806
2.43002
2.412
2.39402
2.37608
2.35818
2.34034
2.32255
2.30482
2.28715
2.26956
2.25205
2.23462
2.21729
2.20006
2.18293
2.16593
2.14904
2.13228
2.11566
2.09918
2.08284
2.06666
2.05064
2.03477
2.01907
2.00353
1.98816
1.97294
1.95788
1.94297
1.9282
1.91356
1.89904
1.88462
1.87028
1.85601
1.84178
1.82756
1.81333
1.79905
1.78471
1.77026
1.75568
1.74093
1.72598
1.71081
1.69537
1.67964
1.66361
1.64724
1.63052
1.61345
1.59601
1.5782
1.56003
1.54151
1.52266
1.5035
1.48405
1.46436
1.44446
1.42439
1.4042
1.38394
1.36365
1.34339
1.32322
1.30319
1.28336
1.26376
1.24447
1.22552
1.20696
1.18884
1.17118
1.15402
1.1374
1.12133
1.10587
1.09094
1.07681
1.06287
1.05136
1.03286
2.72002
2.70189
2.68374
2.66558
2.64742
2.62924
2.61106
2.59289
2.57471
2.55653
2.53836
2.52019
2.50204
2.48389
2.46577
2.44767
2.42959
2.41153
2.39352
2.37553
2.35759
2.3397
2.32185
2.30407
2.28635
2.26869
2.25112
2.23362
2.21622
2.19891
2.18171
2.16462
2.14764
2.1308
2.11408
2.0975
2.08107
2.06478
2.04865
2.03268
2.01686
2.00121
1.98571
1.97038
1.9552
1.94016
1.92527
1.9105
1.89585
1.88131
1.86685
1.85246
1.83811
1.82378
1.80944
1.79507
1.78064
1.76611
1.75145
1.73665
1.72165
1.70644
1.69098
1.67525
1.65922
1.64288
1.6262
1.60919
1.59182
1.5741
1.55604
1.53763
1.51891
1.4999
1.48061
1.46108
1.44136
1.42147
1.40147
1.3814
1.3613
1.34124
1.32126
1.30141
1.28175
1.26232
1.24317
1.22434
1.20589
1.18783
1.17021
1.15306
1.1364
1.12023
1.10464
1.08953