/*--------------------------------*- C++ -*----------------------------------*\
  =========                 |
  \\      /  F ield         | OpenFOAM: The Open Source CFD Toolbox
   \\    /   O peration     | Website:  https://openfoam.org
    \\  /    A nd           | Version:  10
     \\/     M anipulation  |
\*---------------------------------------------------------------------------*/
FoamFile
{
    format      ascii;
    class       volScalarField;
    location    "0.18";
    object      k;
}
// * * * * * * * * * * * * * * * * * * * * * * * * * * * * * * * * * * * * * //

dimensions      [0 2 -2 0 0 0 0];

internalField   nonuniform List<scalar> 
6820
(
0.196709
0.190616
0.184994
0.179724
0.174798
0.17025
0.166114
0.162407
0.159125
0.156249
0.153752
0.151603
0.149769
0.148219
0.146923
0.145853
0.144983
0.144292
0.143758
0.143364
0.143093
0.142929
0.142861
0.142876
0.142965
0.143119
0.143324
0.143599
0.143824
0.144527
0.143211
0.151534
0.11484
0.201954
0.200832
0.197543
0.193922
0.190841
0.188585
0.187156
0.186432
0.186264
0.18652
0.187094
0.187905
0.188892
0.190013
0.191231
0.192522
0.193865
0.195244
0.196647
0.198063
0.199483
0.200903
0.202317
0.203724
0.205121
0.206512
0.207904
0.209312
0.210755
0.212377
0.213932
0.217283
0.218091
0.200488
0.200474
0.199117
0.19707
0.194841
0.19269
0.190724
0.188986
0.187488
0.186232
0.185206
0.184394
0.183779
0.183339
0.183056
0.182911
0.182887
0.182969
0.183143
0.183398
0.183723
0.184108
0.184545
0.185028
0.185551
0.18611
0.186703
0.187334
0.187994
0.188731
0.18946
0.190414
0.191183
0.199662
0.199121
0.198219
0.196983
0.195545
0.194012
0.192458
0.190931
0.189463
0.188073
0.186776
0.185577
0.184479
0.183482
0.182583
0.181779
0.181065
0.180434
0.179882
0.179403
0.178992
0.178643
0.178351
0.178113
0.177924
0.177781
0.177683
0.177628
0.177615
0.177656
0.17774
0.177895
0.17811
0.199429
0.198466
0.197531
0.196513
0.195399
0.194214
0.192986
0.19174
0.190495
0.189267
0.188068
0.186908
0.185793
0.184727
0.183712
0.182752
0.181845
0.180992
0.18019
0.17944
0.178739
0.178084
0.177475
0.176908
0.176382
0.175896
0.175448
0.175037
0.174662
0.174326
0.174027
0.173767
0.173545
0.199398
0.198268
0.197202
0.196166
0.195133
0.194088
0.193029
0.191958
0.190884
0.189812
0.18875
0.187703
0.186677
0.185676
0.184703
0.183759
0.182848
0.181969
0.181124
0.180313
0.179535
0.17879
0.178077
0.177397
0.176747
0.176128
0.175539
0.174978
0.174447
0.173945
0.173471
0.173025
0.172608
0.199395
0.19822
0.197098
0.196021
0.194978
0.193957
0.192952
0.191958
0.190973
0.189997
0.189032
0.188078
0.18714
0.186217
0.185313
0.184429
0.183565
0.182724
0.181906
0.181111
0.18034
0.179593
0.17887
0.17817
0.177494
0.176841
0.176211
0.175604
0.17502
0.174458
0.173919
0.173402
0.172906
0.199395
0.198211
0.197069
0.195969
0.194908
0.193881
0.192884
0.191912
0.190961
0.190029
0.189115
0.188217
0.187336
0.186472
0.185624
0.184793
0.183981
0.183186
0.182409
0.181651
0.180912
0.180192
0.17949
0.178808
0.178144
0.177499
0.176873
0.176265
0.175675
0.175104
0.174551
0.174017
0.1735
0.199395
0.198209
0.197063
0.195955
0.194884
0.19385
0.192848
0.191877
0.190934
0.190017
0.189123
0.188251
0.187399
0.186568
0.185755
0.18496
0.184184
0.183425
0.182683
0.181959
0.181252
0.180562
0.179888
0.179231
0.178591
0.177967
0.177358
0.176766
0.17619
0.17563
0.175086
0.174557
0.174044
0.199395
0.198209
0.197061
0.195951
0.194877
0.193838
0.192833
0.191859
0.190916
0.190001
0.189113
0.18825
0.18741
0.186593
0.185798
0.185022
0.184266
0.18353
0.182811
0.18211
0.181426
0.180759
0.180108
0.179473
0.178854
0.17825
0.177662
0.177088
0.176529
0.175985
0.175455
0.17494
0.174439
0.199395
0.198209
0.197061
0.19595
0.194875
0.193834
0.192827
0.191852
0.190907
0.189991
0.189104
0.188242
0.187407
0.186595
0.185806
0.185039
0.184293
0.183567
0.18286
0.182172
0.181502
0.180849
0.180213
0.179593
0.178989
0.178401
0.177827
0.177268
0.176724
0.176194
0.175678
0.175175
0.174686
0.199395
0.198209
0.19706
0.195949
0.194874
0.193833
0.192825
0.191849
0.190903
0.189987
0.189098
0.188237
0.187401
0.186591
0.185804
0.18504
0.184297
0.183576
0.182875
0.182193
0.181529
0.180884
0.180256
0.179645
0.17905
0.17847
0.177906
0.177357
0.176822
0.176302
0.175795
0.175302
0.174822
0.199395
0.198209
0.19706
0.195949
0.194873
0.193832
0.192824
0.191847
0.190901
0.189984
0.189095
0.188234
0.187398
0.186587
0.1858
0.185037
0.184295
0.183575
0.182876
0.182196
0.181536
0.180894
0.18027
0.179662
0.179072
0.178497
0.177938
0.177394
0.176865
0.17635
0.175849
0.175362
0.174888
0.199395
0.198209
0.19706
0.195949
0.194873
0.193831
0.192823
0.191846
0.1909
0.189982
0.189093
0.188231
0.187395
0.186584
0.185798
0.185034
0.184293
0.183573
0.182874
0.182195
0.181536
0.180895
0.180272
0.179666
0.179077
0.178505
0.177948
0.177407
0.17688
0.176368
0.17587
0.175386
0.174914
0.199395
0.198208
0.19706
0.195948
0.194872
0.193831
0.192822
0.191845
0.190899
0.189981
0.189092
0.18823
0.187393
0.186582
0.185795
0.185032
0.18429
0.18357
0.182872
0.182193
0.181533
0.180893
0.18027
0.179665
0.179077
0.178505
0.177949
0.177409
0.176883
0.176372
0.175875
0.175392
0.174922
0.199395
0.198208
0.19706
0.195948
0.194872
0.19383
0.192822
0.191844
0.190898
0.18998
0.189091
0.188228
0.187392
0.186581
0.185794
0.18503
0.184288
0.183568
0.182869
0.18219
0.181531
0.18089
0.180268
0.179663
0.179075
0.178503
0.177947
0.177407
0.176882
0.176371
0.175875
0.175392
0.174922
0.199395
0.198208
0.19706
0.195948
0.194872
0.19383
0.192821
0.191844
0.190897
0.189979
0.18909
0.188227
0.187391
0.186579
0.185792
0.185028
0.184286
0.183566
0.182867
0.182188
0.181529
0.180888
0.180265
0.17966
0.179072
0.1785
0.177945
0.177405
0.176879
0.176369
0.175872
0.175389
0.174919
0.199395
0.198208
0.19706
0.195948
0.194872
0.19383
0.192821
0.191843
0.190896
0.189978
0.189089
0.188226
0.18739
0.186578
0.185791
0.185026
0.184285
0.183564
0.182865
0.182186
0.181526
0.180886
0.180263
0.179658
0.17907
0.178498
0.177942
0.177402
0.176876
0.176365
0.175869
0.175385
0.174915
0.199395
0.198208
0.197059
0.195948
0.194871
0.193829
0.19282
0.191843
0.190896
0.189978
0.189088
0.188225
0.187389
0.186577
0.185789
0.185025
0.184283
0.183563
0.182864
0.182184
0.181525
0.180884
0.180261
0.179655
0.179067
0.178495
0.177939
0.177399
0.176873
0.176362
0.175865
0.175382
0.174911
0.199395
0.198208
0.197059
0.195948
0.194871
0.193829
0.19282
0.191842
0.190895
0.189977
0.189087
0.188224
0.187388
0.186576
0.185788
0.185024
0.184282
0.183561
0.182862
0.182183
0.181523
0.180882
0.180259
0.179653
0.179065
0.178493
0.177937
0.177396
0.17687
0.176359
0.175862
0.175378
0.174907
0.199395
0.198208
0.197059
0.195947
0.194871
0.193829
0.19282
0.191842
0.190895
0.189977
0.189087
0.188224
0.187387
0.186575
0.185787
0.185023
0.184281
0.18356
0.182861
0.182181
0.181521
0.18088
0.180257
0.179651
0.179063
0.178491
0.177934
0.177394
0.176868
0.176356
0.175858
0.175374
0.174903
0.199395
0.198208
0.197059
0.195947
0.194871
0.193829
0.19282
0.191842
0.190894
0.189976
0.189086
0.188223
0.187386
0.186574
0.185786
0.185022
0.18428
0.183559
0.182859
0.18218
0.18152
0.180878
0.180255
0.179649
0.179061
0.178488
0.177932
0.177391
0.176865
0.176353
0.175855
0.175371
0.1749
0.199395
0.198208
0.197059
0.195947
0.194871
0.193829
0.192819
0.191842
0.190894
0.189976
0.189086
0.188223
0.187386
0.186573
0.185785
0.185021
0.184279
0.183558
0.182858
0.182178
0.181518
0.180877
0.180253
0.179648
0.179059
0.178486
0.17793
0.177389
0.176862
0.17635
0.175852
0.175368
0.174896
0.199395
0.198208
0.197059
0.195947
0.194871
0.193829
0.192819
0.191841
0.190894
0.189976
0.189085
0.188222
0.187385
0.186573
0.185785
0.18502
0.184278
0.183557
0.182857
0.182177
0.181517
0.180875
0.180252
0.179646
0.179057
0.178484
0.177928
0.177386
0.17686
0.176348
0.175849
0.175364
0.174893
0.199395
0.198208
0.197059
0.195947
0.194871
0.193829
0.192819
0.191841
0.190894
0.189975
0.189085
0.188222
0.187385
0.186572
0.185784
0.185019
0.184277
0.183556
0.182856
0.182176
0.181516
0.180874
0.180251
0.179645
0.179055
0.178483
0.177926
0.177384
0.176857
0.176345
0.175846
0.175361
0.174889
0.199395
0.198208
0.197059
0.195947
0.194871
0.193828
0.192819
0.191841
0.190894
0.189975
0.189085
0.188221
0.187384
0.186572
0.185784
0.185019
0.184276
0.183555
0.182855
0.182175
0.181515
0.180873
0.180249
0.179643
0.179054
0.178481
0.177924
0.177382
0.176855
0.176343
0.175844
0.175359
0.174886
0.199395
0.198208
0.197059
0.195947
0.194871
0.193828
0.192819
0.191841
0.190893
0.189975
0.189085
0.188221
0.187384
0.186571
0.185783
0.185018
0.184276
0.183555
0.182855
0.182174
0.181514
0.180872
0.180248
0.179642
0.179053
0.178479
0.177922
0.17738
0.176853
0.17634
0.175842
0.175356
0.174883
0.199395
0.198208
0.197059
0.195947
0.194871
0.193828
0.192819
0.191841
0.190893
0.189975
0.189085
0.188221
0.187384
0.186571
0.185783
0.185018
0.184275
0.183554
0.182854
0.182174
0.181513
0.180871
0.180247
0.179641
0.179051
0.178478
0.177921
0.177379
0.176852
0.176339
0.175839
0.175354
0.174881
0.199395
0.198208
0.197059
0.195947
0.194871
0.193828
0.192819
0.191841
0.190893
0.189975
0.189084
0.188221
0.187383
0.186571
0.185783
0.185018
0.184275
0.183554
0.182853
0.182173
0.181513
0.18087
0.180246
0.17964
0.17905
0.178477
0.17792
0.177377
0.17685
0.176337
0.175838
0.175352
0.174879
0.199395
0.198208
0.197059
0.195947
0.194871
0.193829
0.192819
0.191841
0.190894
0.189975
0.189085
0.188221
0.187384
0.186571
0.185783
0.185018
0.184275
0.183554
0.182854
0.182174
0.181513
0.180871
0.180246
0.17964
0.17905
0.178477
0.177919
0.177377
0.176849
0.176336
0.175836
0.17535
0.174877
0.199395
0.198208
0.197059
0.195947
0.194871
0.193828
0.192819
0.191841
0.190893
0.189975
0.189084
0.188221
0.187384
0.186571
0.185783
0.185018
0.184275
0.183554
0.182854
0.182173
0.181513
0.18087
0.180246
0.17964
0.17905
0.178476
0.177919
0.177376
0.176849
0.176335
0.175836
0.175349
0.174876
0.199395
0.198208
0.197059
0.195948
0.194871
0.193829
0.19282
0.191843
0.190895
0.189977
0.189087
0.188224
0.187386
0.186574
0.185786
0.18502
0.184278
0.183557
0.182856
0.182176
0.181515
0.180873
0.180248
0.179642
0.179052
0.178478
0.17792
0.177377
0.17685
0.176336
0.175836
0.17535
0.174876
0.199395
0.198209
0.19706
0.195949
0.194872
0.19383
0.192821
0.191843
0.190896
0.189978
0.189087
0.188224
0.187387
0.186575
0.185787
0.185022
0.184279
0.183558
0.182858
0.182178
0.181517
0.180874
0.18025
0.179643
0.179053
0.178479
0.177921
0.177378
0.176849
0.176335
0.175835
0.175347
0.174873
0.199395
0.198208
0.19706
0.19595
0.194876
0.193835
0.192827
0.191851
0.190905
0.189987
0.189097
0.188234
0.187397
0.186585
0.185797
0.185031
0.184288
0.183567
0.182865
0.182184
0.181522
0.180879
0.180253
0.179645
0.179053
0.178478
0.177917
0.177372
0.176842
0.176325
0.175822
0.175333
0.174856
0.199395
0.198212
0.197066
0.195957
0.194882
0.193842
0.192834
0.191857
0.190911
0.189994
0.189104
0.188241
0.187404
0.186591
0.185802
0.185035
0.18429
0.183566
0.182863
0.182178
0.181513
0.180865
0.180235
0.179622
0.179025
0.178444
0.177878
0.177326
0.176789
0.176266
0.175756
0.175258
0.174774
0.199396
0.198213
0.197071
0.195969
0.194902
0.193869
0.192866
0.191893
0.190947
0.190029
0.189137
0.18827
0.187427
0.186607
0.185809
0.185032
0.184277
0.183541
0.182824
0.182127
0.181447
0.180784
0.180138
0.179509
0.178895
0.178297
0.177713
0.177144
0.176588
0.176046
0.175518
0.175002
0.174498
0.199402
0.19824
0.197114
0.196018
0.194952
0.193916
0.192908
0.191927
0.190972
0.19004
0.189132
0.188245
0.18738
0.186536
0.185712
0.184909
0.184124
0.183358
0.18261
0.181881
0.181168
0.180473
0.179794
0.17913
0.178483
0.17785
0.177233
0.176629
0.17604
0.175464
0.174901
0.174352
0.173814
0.199421
0.198284
0.197214
0.196182
0.195158
0.194136
0.193119
0.192111
0.191117
0.190142
0.189188
0.188256
0.187348
0.186462
0.1856
0.18476
0.183942
0.183144
0.182367
0.181609
0.18087
0.180149
0.179445
0.178758
0.178087
0.177432
0.176792
0.176167
0.175557
0.17496
0.174377
0.173808
0.173251
0.199655
0.198884
0.198077
0.197302
0.196603
0.195976
0.195405
0.19488
0.194396
0.19395
0.19354
0.193164
0.192823
0.192514
0.192237
0.19199
0.191772
0.191581
0.191415
0.191274
0.191156
0.191058
0.190981
0.190922
0.19088
0.190854
0.190844
0.190847
0.190863
0.190891
0.190931
0.190982
0.191042
0.205419
0.216602
0.227661
0.238503
0.249093
0.259416
0.269459
0.279212
0.288668
0.297819
0.306661
0.315192
0.323412
0.331321
0.338921
0.346217
0.353214
0.359916
0.366331
0.372466
0.378328
0.383926
0.389267
0.39436
0.399215
0.403839
0.408241
0.41243
0.416415
0.420204
0.423805
0.427226
0.430479
0.319129
0.641608
0.969373
1.25903
1.49059
1.6577
1.76482
1.82378
1.849
1.85342
1.8464
1.83373
1.81859
1.80263
1.78673
1.77142
1.75702
1.74372
1.73164
1.72088
1.71149
1.70348
1.69682
1.6914
1.68704
1.68354
1.6806
1.67795
1.67526
1.67219
1.6684
1.66353
1.65723
1.64915
1.63894
1.62628
1.61088
1.59246
1.57078
1.54564
1.5169
1.48444
1.44824
1.4083
1.36474
1.31773
1.26756
1.21458
1.15924
1.10206
1.04363
0.984615
0.925701
0.867601
0.811017
0.756619
0.705016
0.656732
0.612188
0.571685
0.535403
0.503404
0.475645
0.451997
0.432275
0.416256
0.403707
0.394406
0.388148
0.38476
0.384094
0.386022
0.390429
0.397193
0.40617
0.41717
0.429941
0.444155
0.459395
0.475158
0.490867
0.505887
0.519552
0.531195
0.540174
0.545902
0.547868
0.54566
0.538978
0.527647
0.511637
0.491072
0.466253
0.437664
0.406004
0.372157
0.3373
0.302262
0.271064
0.227942
0.233482
0.265293
0.31278
0.376422
0.455377
0.547214
0.647803
0.752034
0.854767
0.951578
1.03908
1.11489
1.17778
1.22779
1.26616
1.29489
1.31615
1.33185
1.34346
1.35202
1.35827
1.36273
1.36576
1.36765
1.36856
1.3686
1.36779
1.36607
1.36336
1.35951
1.35437
1.34772
1.33935
1.32901
1.3165
1.30157
1.28403
1.2637
1.24045
1.21417
1.1848
1.15233
1.11683
1.07841
1.03726
0.993652
0.947934
0.90053
0.851934
0.802696
0.753413
0.704701
0.65718
0.611442
0.568028
0.527402
0.489933
0.455877
0.425376
0.398458
0.375057
0.355025
0.338159
0.324229
0.312996
0.304234
0.297745
0.293364
0.290968
0.290474
0.291834
0.295029
0.300058
0.306927
0.315624
0.326106
0.338266
0.351922
0.36679
0.38248
0.398497
0.414256
0.429109
0.442376
0.453383
0.461498
0.46616
0.466908
0.463403
0.455445
0.442993
0.426175
0.40531
0.380912
0.353708
0.324615
0.294786
0.265092
0.238929
0.203532
0.192306
0.194786
0.19986
0.208224
0.220146
0.235871
0.255761
0.280212
0.309724
0.344743
0.385452
0.431398
0.481469
0.534019
0.587187
0.639227
0.688717
0.734602
0.77616
0.812973
0.844917
0.872131
0.894954
0.913831
0.929212
0.941495
0.950995
0.957937
0.962471
0.964683
0.964609
0.962246
0.957561
0.950498
0.940996
0.928989
0.914426
0.897274
0.87753
0.855223
0.83042
0.803234
0.773827
0.74242
0.709287
0.674766
0.639247
0.60317
0.567008
0.531252
0.496392
0.462892
0.43117
0.401576
0.374378
0.349747
0.327761
0.308407
0.291596
0.277181
0.26498
0.254792
0.246418
0.239671
0.234386
0.230429
0.227697
0.226118
0.225655
0.226302
0.22808
0.231038
0.235244
0.240779
0.247721
0.256132
0.266038
0.277398
0.290082
0.303854
0.318353
0.333099
0.347514
0.360948
0.372721
0.382169
0.388681
0.391744
0.390965
0.386102
0.377082
0.364019
0.347225
0.327219
0.304723
0.280644
0.256063
0.231823
0.210687
0.182608
0.178296
0.178484
0.178904
0.179771
0.181232
0.183396
0.186356
0.190212
0.195097
0.201202
0.208716
0.217925
0.229108
0.242479
0.258164
0.276181
0.296436
0.318708
0.342628
0.367685
0.393257
0.418683
0.44333
0.466652
0.48821
0.507674
0.524817
0.539496
0.551634
0.561208
0.568229
0.572727
0.574743
0.57432
0.571506
0.566353
0.558929
0.549316
0.53762
0.523976
0.508545
0.491519
0.473122
0.453611
0.433271
0.412414
0.391368
0.370469
0.350043
0.330391
0.31178
0.294424
0.278479
0.264037
0.251131
0.239738
0.229794
0.221203
0.21385
0.207615
0.20238
0.198034
0.194481
0.191641
0.189447
0.187854
0.186833
0.186372
0.186479
0.18718
0.18852
0.190561
0.193386
0.197089
0.201776
0.207552
0.214509
0.222707
0.232145
0.242739
0.254297
0.266501
0.27891
0.290977
0.302081
0.311574
0.31883
0.323294
0.324524
0.322224
0.316275
0.30675
0.293927
0.278293
0.260524
0.241459
0.222063
0.203079
0.186678
0.165164
0.173288
0.172973
0.172681
0.172467
0.172368
0.172418
0.172647
0.173078
0.173734
0.174643
0.175826
0.17732
0.179176
0.181456
0.184224
0.187548
0.191501
0.196149
0.20155
0.207729
0.214677
0.222339
0.230617
0.23937
0.248422
0.257572
0.266595
0.275263
0.283353
0.290657
0.296997
0.302225
0.306228
0.30893
0.310284
0.310279
0.308933
0.306297
0.302446
0.297484
0.291536
0.284745
0.27727
0.269278
0.260945
0.252445
0.243946
0.235606
0.22756
0.219922
0.212778
0.206185
0.200175
0.194757
0.189919
0.185635
0.181871
0.178586
0.175737
0.173283
0.171186
0.169411
0.16793
0.16672
0.165766
0.16506
0.1646
0.164397
0.164467
0.164838
0.165551
0.166658
0.168224
0.170327
0.173057
0.176513
0.180794
0.185993
0.192173
0.199351
0.207471
0.21638
0.225811
0.235381
0.244604
0.252928
0.259776
0.264603
0.266944
0.266464
0.26299
0.256538
0.247324
0.23576
0.222432
0.208061
0.193452
0.179208
0.166981
0.151028
0.172142
0.17161
0.171079
0.170565
0.170076
0.169623
0.16922
0.168878
0.168605
0.168411
0.168296
0.168264
0.168321
0.168474
0.168732
0.169108
0.169617
0.170277
0.171107
0.172121
0.173332
0.174746
0.176359
0.178163
0.180138
0.182256
0.184477
0.186751
0.18902
0.19122
0.193283
0.195142
0.196734
0.198005
0.198908
0.199408
0.199486
0.199136
0.198366
0.197198
0.195668
0.193819
0.191701
0.189371
0.186887
0.184305
0.181681
0.179065
0.176501
0.174026
0.17167
0.169451
0.167385
0.165479
0.163732
0.162143
0.160705
0.159408
0.158245
0.157203
0.156275
0.15545
0.154722
0.154087
0.153542
0.153089
0.152733
0.152484
0.152358
0.152374
0.152562
0.152958
0.153606
0.154563
0.155891
0.157666
0.159968
0.162877
0.166468
0.170794
0.175868
0.181646
0.188002
0.194717
0.201473
0.207868
0.213445
0.217734
0.220308
0.220825
0.219079
0.215028
0.208804
0.200721
0.191238
0.180924
0.170407
0.160142
0.151355
0.139866
0.172352
0.171727
0.171103
0.170482
0.169867
0.169262
0.16867
0.168097
0.167548
0.167026
0.166534
0.166074
0.165647
0.165254
0.164895
0.164571
0.164286
0.164042
0.163845
0.163699
0.163607
0.163571
0.163594
0.163673
0.163808
0.163993
0.164222
0.164485
0.164771
0.165064
0.165349
0.165608
0.165824
0.16598
0.16606
0.16605
0.16594
0.165723
0.165396
0.16496
0.16442
0.163784
0.163064
0.162271
0.161422
0.16053
0.159612
0.158682
0.157754
0.15684
0.155949
0.155089
0.154266
0.153484
0.152743
0.152044
0.151385
0.150764
0.150177
0.14962
0.149091
0.148585
0.148102
0.147638
0.147195
0.146774
0.14638
0.14602
0.145703
0.145443
0.145259
0.145173
0.145215
0.145421
0.145834
0.146503
0.147487
0.148844
0.150637
0.152918
0.155723
0.159055
0.162869
0.16706
0.171446
0.175776
0.179735
0.182974
0.185149
0.185962
0.185207
0.182802
0.178805
0.173421
0.166978
0.159882
0.1526
0.145446
0.139325
0.131251
0.172919
0.172264
0.171607
0.17095
0.170293
0.169639
0.168988
0.168342
0.167703
0.167073
0.166455
0.165851
0.16526
0.164684
0.164123
0.163577
0.163047
0.162533
0.162038
0.161561
0.161105
0.16067
0.160257
0.159866
0.159497
0.159149
0.158821
0.158512
0.158219
0.157939
0.157667
0.1574
0.157132
0.156859
0.156576
0.156279
0.155964
0.155629
0.155271
0.15489
0.154485
0.154059
0.153614
0.153153
0.15268
0.152198
0.151711
0.151224
0.15074
0.150263
0.149794
0.149336
0.148889
0.148454
0.148028
0.147612
0.147203
0.146798
0.146395
0.14599
0.145582
0.145167
0.144743
0.14431
0.143867
0.143414
0.142954
0.142491
0.14203
0.14158
0.141151
0.140758
0.140419
0.140156
0.139997
0.139975
0.140126
0.140494
0.141123
0.142055
0.143325
0.144953
0.146932
0.149217
0.151716
0.154286
0.156732
0.158824
0.160318
0.160985
0.160651
0.159223
0.156708
0.153221
0.148972
0.144233
0.139328
0.134464
0.130301
0.12474
0.173465
0.17281
0.172153
0.171494
0.170833
0.170171
0.169508
0.168845
0.168183
0.167523
0.166867
0.166215
0.16557
0.164931
0.164298
0.163673
0.163056
0.162446
0.161846
0.161255
0.160674
0.160104
0.159545
0.158998
0.158462
0.157938
0.157426
0.156926
0.156438
0.155962
0.155496
0.15504
0.154592
0.154153
0.153719
0.153292
0.152868
0.152449
0.152032
0.151618
0.151206
0.150798
0.150392
0.149991
0.149595
0.149205
0.148822
0.148446
0.148077
0.147716
0.147362
0.147015
0.146673
0.146334
0.145996
0.145657
0.145315
0.144966
0.144607
0.144235
0.143848
0.143442
0.143016
0.142567
0.142095
0.141599
0.141079
0.140539
0.139979
0.139405
0.138824
0.138243
0.137673
0.137129
0.136626
0.136186
0.135832
0.135593
0.1355
0.135582
0.135871
0.136386
0.137136
0.138107
0.139258
0.140514
0.141763
0.142864
0.143661
0.143995
0.143737
0.142802
0.141174
0.138907
0.136125
0.132996
0.12974
0.126477
0.12369
0.119914
0.173871
0.173229
0.172585
0.171937
0.171286
0.170632
0.169976
0.169318
0.168659
0.167999
0.167339
0.16668
0.166023
0.165369
0.164717
0.164068
0.163423
0.162782
0.162145
0.161514
0.160889
0.16027
0.159659
0.159054
0.158458
0.157869
0.157289
0.156718
0.156156
0.155605
0.155063
0.154532
0.154011
0.153501
0.153001
0.152512
0.152033
0.151565
0.151107
0.150661
0.150224
0.149799
0.149384
0.148981
0.148589
0.148208
0.147837
0.147477
0.147126
0.146783
0.146448
0.146117
0.14579
0.145464
0.145136
0.144804
0.144464
0.144113
0.143749
0.143368
0.142967
0.142544
0.142096
0.14162
0.141116
0.140582
0.140017
0.139422
0.138799
0.138148
0.137475
0.136783
0.136079
0.135371
0.134669
0.133986
0.133337
0.132741
0.132216
0.131786
0.131471
0.131291
0.131258
0.131374
0.131622
0.131969
0.132355
0.132702
0.132913
0.132889
0.132541
0.131805
0.130657
0.129118
0.127256
0.125169
0.122999
0.120811
0.118955
0.116404
0.174132
0.173504
0.172874
0.17224
0.171603
0.170963
0.17032
0.169674
0.169026
0.168377
0.167726
0.167074
0.166422
0.165771
0.165121
0.164471
0.163823
0.163176
0.162532
0.161892
0.161254
0.160621
0.159993
0.15937
0.158752
0.15814
0.157535
0.156938
0.156348
0.155767
0.155194
0.154632
0.154079
0.153537
0.153006
0.152486
0.151978
0.151482
0.150998
0.150527
0.150069
0.149623
0.14919
0.14877
0.148363
0.147968
0.147584
0.147212
0.146848
0.146494
0.146145
0.145801
0.14546
0.145118
0.144774
0.144424
0.144065
0.143695
0.14331
0.142907
0.142483
0.142036
0.141563
0.141061
0.140529
0.139965
0.139368
0.138737
0.138073
0.137377
0.13665
0.135895
0.135115
0.134316
0.133504
0.132686
0.131872
0.131074
0.130304
0.129577
0.128909
0.128314
0.127805
0.127389
0.127063
0.126815
0.126618
0.12643
0.126199
0.125866
0.125374
0.124682
0.123766
0.122631
0.121316
0.119869
0.118386
0.11689
0.115638
0.113897
0.174278
0.173662
0.173043
0.172422
0.171797
0.171169
0.170539
0.169906
0.16927
0.168632
0.167993
0.167352
0.16671
0.166068
0.165426
0.164784
0.164142
0.1635
0.16286
0.162222
0.161586
0.160952
0.160322
0.159696
0.159074
0.158456
0.157844
0.157238
0.156639
0.156046
0.155462
0.154886
0.15432
0.153763
0.153216
0.15268
0.152155
0.151643
0.151142
0.150653
0.150177
0.149714
0.149263
0.148825
0.148399
0.147985
0.147583
0.14719
0.146807
0.146431
0.146061
0.145696
0.145332
0.144967
0.1446
0.144226
0.143844
0.14345
0.143041
0.142615
0.142169
0.141699
0.141203
0.14068
0.140125
0.139539
0.138919
0.138265
0.137576
0.136853
0.136096
0.135306
0.134487
0.13364
0.132769
0.131881
0.13098
0.130074
0.129171
0.128282
0.127418
0.126588
0.125805
0.125075
0.124403
0.123786
0.123216
0.122674
0.122133
0.121563
0.120932
0.120213
0.119391
0.118464
0.117453
0.116381
0.115312
0.11424
0.113364
0.112135
0.17435
0.173742
0.173131
0.172517
0.171901
0.171283
0.170662
0.170038
0.169412
0.168784
0.168154
0.167523
0.166891
0.166258
0.165624
0.16499
0.164356
0.163722
0.163089
0.162457
0.161826
0.161197
0.16057
0.159947
0.159326
0.15871
0.158098
0.157491
0.156889
0.156294
0.155705
0.155124
0.154552
0.153987
0.153433
0.152887
0.152353
0.151829
0.151316
0.150815
0.150325
0.149847
0.149381
0.148926
0.148483
0.148051
0.14763
0.147218
0.146814
0.146417
0.146026
0.145638
0.145251
0.144864
0.144474
0.144078
0.143673
0.143257
0.142827
0.142381
0.141914
0.141425
0.140911
0.14037
0.139799
0.139197
0.138562
0.137893
0.137189
0.136451
0.135677
0.13487
0.13403
0.13316
0.132261
0.131338
0.130395
0.129435
0.128467
0.127495
0.126529
0.125575
0.124642
0.123739
0.12287
0.122039
0.121246
0.120483
0.119741
0.119007
0.118263
0.117497
0.116699
0.115868
0.115015
0.114149
0.113314
0.11249
0.111832
0.110909
0.17438
0.173776
0.173169
0.172561
0.17195
0.171336
0.170721
0.170103
0.169484
0.168862
0.168239
0.167615
0.166989
0.166363
0.165736
0.165108
0.164481
0.163853
0.163225
0.162599
0.161973
0.161349
0.160727
0.160107
0.15949
0.158876
0.158266
0.15766
0.157058
0.156463
0.155873
0.15529
0.154714
0.154146
0.153586
0.153035
0.152494
0.151962
0.15144
0.150929
0.150428
0.149939
0.14946
0.148991
0.148534
0.148086
0.147648
0.147218
0.146796
0.146381
0.14597
0.145563
0.145156
0.144749
0.144339
0.143923
0.1435
0.143065
0.142617
0.142153
0.14167
0.141166
0.140638
0.140083
0.1395
0.138887
0.138242
0.137564
0.136851
0.136105
0.135323
0.134508
0.13366
0.132779
0.131869
0.130932
0.129971
0.128989
0.12799
0.126981
0.125966
0.124952
0.123946
0.122954
0.121982
0.121035
0.120116
0.119227
0.118365
0.117525
0.116703
0.115892
0.11509
0.114295
0.113516
0.112753
0.112041
0.11135
0.110812
0.110054
0.17439
0.173787
0.173182
0.172575
0.171967
0.171356
0.170743
0.170129
0.169513
0.168895
0.168275
0.167655
0.167033
0.16641
0.165787
0.165164
0.16454
0.163916
0.163293
0.16267
0.162048
0.161427
0.160807
0.16019
0.159575
0.158963
0.158355
0.15775
0.157149
0.156553
0.155963
0.155378
0.1548
0.154229
0.153665
0.15311
0.152563
0.152025
0.151496
0.150977
0.150467
0.149967
0.149478
0.148998
0.148527
0.148066
0.147614
0.14717
0.146733
0.146301
0.145874
0.14545
0.145027
0.144603
0.144177
0.143745
0.143305
0.142855
0.142392
0.141914
0.141419
0.140902
0.140363
0.139799
0.139207
0.138586
0.137934
0.13725
0.136533
0.135783
0.134999
0.134181
0.13333
0.132448
0.131535
0.130595
0.129629
0.12864
0.127632
0.126609
0.125576
0.124537
0.123499
0.122467
0.121446
0.120443
0.119461
0.118504
0.117576
0.116675
0.115804
0.11496
0.114145
0.113358
0.112608
0.111892
0.111237
0.11061
0.110127
0.109447
0.17439
0.173787
0.173183
0.172577
0.171969
0.171359
0.170747
0.170134
0.169519
0.168902
0.168284
0.167665
0.167045
0.166424
0.165803
0.165181
0.164559
0.163937
0.163315
0.162693
0.162072
0.161453
0.160835
0.160219
0.159604
0.158993
0.158384
0.157779
0.157178
0.156581
0.155989
0.155403
0.154822
0.154248
0.153681
0.153121
0.152569
0.152025
0.15149
0.150963
0.150446
0.149938
0.149439
0.148949
0.148468
0.147996
0.147531
0.147075
0.146624
0.146179
0.145739
0.145301
0.144864
0.144426
0.143986
0.14354
0.143087
0.142625
0.14215
0.141661
0.141155
0.140629
0.140081
0.139509
0.138911
0.138285
0.137629
0.136942
0.136223
0.135471
0.134687
0.13387
0.133021
0.13214
0.13123
0.130292
0.129328
0.128341
0.127333
0.12631
0.125273
0.124229
0.123181
0.122135
0.121096
0.12007
0.119061
0.118073
0.117112
0.116181
0.115281
0.114416
0.113589
0.1128
0.112057
0.111356
0.110721
0.110117
0.109654
0.108997
0.174387
0.173784
0.173179
0.172573
0.171965
0.171355
0.170743
0.170129
0.169514
0.168898
0.16828
0.167661
0.167041
0.16642
0.165799
0.165177
0.164555
0.163933
0.16331
0.162689
0.162068
0.161448
0.160829
0.160213
0.159598
0.158985
0.158375
0.157769
0.157166
0.156567
0.155973
0.155383
0.154799
0.154222
0.15365
0.153086
0.152529
0.151979
0.151438
0.150905
0.15038
0.149864
0.149357
0.148858
0.148367
0.147885
0.14741
0.146943
0.146481
0.146025
0.145573
0.145123
0.144674
0.144224
0.143772
0.143315
0.142852
0.142379
0.141894
0.141396
0.140881
0.140348
0.139793
0.139216
0.138613
0.137983
0.137324
0.136636
0.135916
0.135165
0.134382
0.133567
0.132721
0.131845
0.130939
0.130006
0.129048
0.128067
0.127065
0.126047
0.125015
0.123975
0.122929
0.121883
0.120841
0.119809
0.118792
0.117794
0.11682
0.115875
0.114962
0.114085
0.113249
0.112453
0.111707
0.111006
0.110372
0.109769
0.109305
0.108639
0.174382
0.173779
0.173174
0.172567
0.171958
0.171348
0.170735
0.170121
0.169506
0.168889
0.16827
0.16765
0.16703
0.166408
0.165786
0.165163
0.16454
0.163916
0.163293
0.16267
0.162048
0.161426
0.160806
0.160188
0.159571
0.158956
0.158344
0.157735
0.157129
0.156527
0.15593
0.155337
0.154749
0.154167
0.153591
0.153022
0.152459
0.151904
0.151356
0.150816
0.150285
0.149761
0.149246
0.148739
0.14824
0.147748
0.147264
0.146787
0.146316
0.145849
0.145386
0.144926
0.144467
0.144007
0.143545
0.143078
0.142605
0.142123
0.14163
0.141124
0.140602
0.140063
0.139503
0.13892
0.138314
0.137681
0.137021
0.136332
0.135613
0.134863
0.134082
0.133271
0.132429
0.131558
0.130658
0.129731
0.12878
0.127807
0.126813
0.125803
0.12478
0.123747
0.122708
0.121668
0.120632
0.119603
0.118587
0.117589
0.116613
0.115664
0.114746
0.113863
0.11302
0.112218
0.111464
0.110755
0.110111
0.109498
0.10902
0.108328
0.174378
0.173774
0.173169
0.172561
0.171952
0.17134
0.170727
0.170112
0.169496
0.168878
0.168258
0.167637
0.167015
0.166393
0.165769
0.165145
0.16452
0.163895
0.16327
0.162645
0.162021
0.161397
0.160775
0.160153
0.159534
0.158916
0.158301
0.157689
0.15708
0.156474
0.155873
0.155276
0.154684
0.154097
0.153516
0.152941
0.152373
0.151812
0.151258
0.150712
0.150173
0.149642
0.149119
0.148604
0.148097
0.147597
0.147104
0.146618
0.146137
0.145661
0.145189
0.14472
0.144251
0.143782
0.143311
0.142835
0.142354
0.141864
0.141363
0.14085
0.140322
0.139777
0.139213
0.138627
0.138017
0.137383
0.136721
0.136032
0.135314
0.134566
0.133788
0.13298
0.132143
0.131277
0.130383
0.129463
0.12852
0.127554
0.12657
0.125569
0.124555
0.123531
0.122502
0.121471
0.120443
0.119421
0.118411
0.117418
0.116444
0.115496
0.114577
0.11369
0.112841
0.112031
0.111268
0.110547
0.109888
0.109257
0.10876
0.108032
0.174374
0.17377
0.173163
0.172555
0.171945
0.171333
0.170719
0.170103
0.169485
0.168866
0.168246
0.167624
0.167001
0.166376
0.165751
0.165125
0.164499
0.163872
0.163245
0.162618
0.161991
0.161365
0.16074
0.160116
0.159494
0.158873
0.158255
0.157639
0.157026
0.156416
0.155811
0.155209
0.154612
0.154021
0.153434
0.152854
0.15228
0.151713
0.151153
0.1506
0.150054
0.149516
0.148986
0.148463
0.147948
0.14744
0.146939
0.146444
0.145955
0.14547
0.144989
0.14451
0.144033
0.143555
0.143076
0.142592
0.142103
0.141606
0.141098
0.140579
0.140046
0.139495
0.138927
0.138337
0.137725
0.137089
0.136427
0.135738
0.13502
0.134274
0.133499
0.132694
0.131862
0.131001
0.130113
0.129201
0.128264
0.127307
0.126331
0.125339
0.124335
0.123321
0.122301
0.12128
0.12026
0.119247
0.118244
0.117256