/*--------------------------------*- C++ -*----------------------------------*\
  =========                 |
  \\      /  F ield         | OpenFOAM: The Open Source CFD Toolbox
   \\    /   O peration     | Website:  https://openfoam.org
    \\  /    A nd           | Version:  10
     \\/     M anipulation  |
\*---------------------------------------------------------------------------*/
FoamFile
{
    format      ascii;
    class       volVectorField;
    location    "0.18";
    object      U;
}
// * * * * * * * * * * * * * * * * * * * * * * * * * * * * * * * * * * * * * //

dimensions      [0 1 -1 0 0 0 0];

internalField   nonuniform List<vector> 
6820
(
(7.33663 -0.254709 0)
(7.37111 -0.152739 0)
(7.32899 -0.0594685 0)
(7.25212 -0.011717 0)
(7.17471 0.00797355 0)
(7.10482 0.01398 0)
(7.04373 0.0144703 0)
(6.99084 0.0130953 0)
(6.9447 0.0113463 0)
(6.90391 0.00977095 0)
(6.86738 0.00850962 0)
(6.8343 0.00754963 0)
(6.80408 0.00683474 0)
(6.77624 0.00630573 0)
(6.75045 0.00591311 0)
(6.72643 0.00561932 0)
(6.70397 0.00539714 0)
(6.68289 0.00522754 0)
(6.66303 0.00509785 0)
(6.64427 0.00500022 0)
(6.62648 0.00493072 0)
(6.60955 0.00488911 0)
(6.59335 0.00487929 0)
(6.57776 0.00491097 0)
(6.56263 0.00500262 0)
(6.54775 0.0051906 0)
(6.53282 0.00554767 0)
(6.51737 0.00617375 0)
(6.50039 0.00764106 0)
(6.48048 0.00925913 0)
(6.45405 0.0184791 0)
(6.4082 0.0210693 0)
(6.35825 0.049956 0)
(7.32387 0.121388 0)
(7.30439 0.12328 0)
(7.30895 0.07798 0)
(7.32917 0.052803 0)
(7.34724 0.0392044 0)
(7.35528 0.0314001 0)
(7.35428 0.026949 0)
(7.34714 0.0242041 0)
(7.33617 0.0223081 0)
(7.32293 0.0208694 0)
(7.30847 0.0196927 0)
(7.29347 0.0186778 0)
(7.27833 0.0177745 0)
(7.26329 0.0169566 0)
(7.2485 0.0162097 0)
(7.23403 0.015525 0)
(7.21994 0.0148967 0)
(7.20625 0.0143212 0)
(7.19295 0.0137964 0)
(7.18006 0.0133216 0)
(7.16755 0.0128984 0)
(7.1554 0.0125309 0)
(7.14361 0.0122274 0)
(7.13215 0.012003 0)
(7.12098 0.0118843 0)
(7.11008 0.0119228 0)
(7.09947 0.0121971 0)
(7.08898 0.012921 0)
(7.07942 0.0143347 0)
(7.06921 0.0174238 0)
(7.06545 0.0234799 0)
(7.05935 0.0354128 0)
(7.08903 0.0655923 0)
(7.32565 -0.0437903 0)
(7.32324 -0.0517257 0)
(7.33515 -0.0261912 0)
(7.34297 -0.00270579 0)
(7.34788 0.0104483 0)
(7.35205 0.0169042 0)
(7.35503 0.0199809 0)
(7.35654 0.0212727 0)
(7.35656 0.0216215 0)
(7.35523 0.0215008 0)
(7.35276 0.0211578 0)
(7.34939 0.0207193 0)
(7.34533 0.0202515 0)
(7.34074 0.0197877 0)
(7.33576 0.0193436 0)
(7.33049 0.0189261 0)
(7.32501 0.0185381 0)
(7.31938 0.0181812 0)
(7.31366 0.0178566 0)
(7.30788 0.0175666 0)
(7.30207 0.0173151 0)
(7.29623 0.017109 0)
(7.29038 0.0169593 0)
(7.2845 0.0168835 0)
(7.2786 0.0169118 0)
(7.27263 0.0170857 0)
(7.26659 0.0175011 0)
(7.26036 0.0182217 0)
(7.25416 0.0196819 0)
(7.24749 0.0215245 0)
(7.24192 0.0262129 0)
(7.23619 0.029125 0)
(7.23482 0.0401474 0)
(7.33338 0.0117915 0)
(7.33034 0.0329277 0)
(7.32953 0.0333635 0)
(7.33252 0.027664 0)
(7.33791 0.0242852 0)
(7.34341 0.0228189 0)
(7.348 0.0222673 0)
(7.35163 0.0220507 0)
(7.35441 0.0219128 0)
(7.35638 0.0217718 0)
(7.35765 0.0216026 0)
(7.35831 0.0213996 0)
(7.35844 0.0211671 0)
(7.35812 0.0209129 0)
(7.35742 0.0206449 0)
(7.35641 0.0203709 0)
(7.35512 0.0200979 0)
(7.35362 0.0198326 0)
(7.35192 0.0195818 0)
(7.35007 0.0193529 0)
(7.34807 0.0191551 0)
(7.34595 0.0190002 0)
(7.34372 0.0189048 0)
(7.34137 0.0188925 0)
(7.3389 0.0190002 0)
(7.3363 0.0192793 0)
(7.33359 0.0198244 0)
(7.33072 0.0207373 0)
(7.32788 0.0223064 0)
(7.32496 0.024585 0)
(7.32287 0.0286048 0)
(7.32182 0.0333327 0)
(7.32372 0.0416935 0)
(7.33122 -0.00351809 0)
(7.33003 -0.00431531 0)
(7.33357 0.00130004 0)
(7.33713 0.00875998 0)
(7.34039 0.0141361 0)
(7.34364 0.0171535 0)
(7.34677 0.0188043 0)
(7.34972 0.0197315 0)
(7.35243 0.0202399 0)
(7.35484 0.0205001 0)
(7.35694 0.0206084 0)
(7.35873 0.0206183 0)
(7.36022 0.0205635 0)
(7.36144 0.0204662 0)
(7.36241 0.0203417 0)
(7.36315 0.0202014 0)
(7.36369 0.0200542 0)
(7.36405 0.019908 0)
(7.36425 0.0197707 0)
(7.3643 0.0196511 0)
(7.3642 0.0195595 0)
(7.36399 0.0195094 0)
(7.36364 0.019519 0)
(7.36319 0.0196133 0)
(7.36262 0.0198294 0)
(7.36193 0.0202162 0)
(7.36117 0.0208569 0)
(7.36033 0.0218319 0)
(7.35956 0.0233453 0)
(7.35895 0.0254012 0)
(7.35901 0.028514 0)
(7.36015 0.0318926 0)
(7.36302 0.0362786 0)
(7.33264 0.00208904 0)
(7.33222 0.00992443 0)
(7.3339 0.0141344 0)
(7.33638 0.0160229 0)
(7.33934 0.0171472 0)
(7.34249 0.0179382 0)
(7.34551 0.0185635 0)
(7.34831 0.0190429 0)
(7.35093 0.0193757 0)
(7.35335 0.019591 0)
(7.35558 0.0197193 0)
(7.35765 0.0197815 0)
(7.35954 0.0197939 0)
(7.36128 0.0197691 0)
(7.36286 0.0197173 0)
(7.3643 0.0196472 0)
(7.36561 0.0195667 0)
(7.36679 0.0194835 0)
(7.36785 0.0194059 0)
(7.3688 0.0193432 0)
(7.36965 0.0193067 0)
(7.37039 0.0193107 0)
(7.37103 0.0193741 0)
(7.37159 0.0195219 0)
(7.37206 0.019789 0)
(7.37246 0.02022 0)
(7.37283 0.0208818 0)
(7.3732 0.0218397 0)
(7.37371 0.0232187 0)
(7.37449 0.025028 0)
(7.37589 0.0274639 0)
(7.37825 0.0301101 0)
(7.38186 0.0329973 0)
(7.33258 0.000840375 0)
(7.33241 0.00454654 0)
(7.33425 0.00811636 0)
(7.33682 0.0113355 0)
(7.33958 0.0139377 0)
(7.34237 0.0157285 0)
(7.34504 0.0168983 0)
(7.34757 0.0176614 0)
(7.34997 0.0181529 0)
(7.35226 0.018466 0)
(7.35443 0.0186613 0)
(7.3565 0.018775 0)
(7.35846 0.0188312 0)
(7.36034 0.0188464 0)
(7.36212 0.018833 0)
(7.36381 0.0188006 0)
(7.36542 0.0187575 0)
(7.36694 0.0187119 0)
(7.36839 0.0186719 0)
(7.36976 0.0186471 0)
(7.37106 0.0186486 0)
(7.37229 0.0186904 0)
(7.37345 0.0187907 0)
(7.37455 0.0189722 0)
(7.37561 0.0192655 0)
(7.37664 0.0197073 0)
(7.37769 0.0203475 0)
(7.3788 0.021231 0)
(7.38009 0.0224254 0)
(7.38169 0.0239211 0)
(7.38383 0.0257557 0)
(7.38675 0.0276545 0)
(7.39055 0.0294141 0)
(7.33284 0.00134405 0)
(7.333 0.00538736 0)
(7.33455 0.00896255 0)
(7.33675 0.0116708 0)
(7.3392 0.0136661 0)
(7.34178 0.0150497 0)
(7.34432 0.0160074 0)
(7.34674 0.0166799 0)
(7.34906 0.0171436 0)
(7.35127 0.0174557 0)
(7.35339 0.0176601 0)
(7.35541 0.0177869 0)
(7.35737 0.0178575 0)
(7.35926 0.0178876 0)
(7.36108 0.0178892 0)
(7.36285 0.0178719 0)
(7.36457 0.017844 0)
(7.36623 0.0178136 0)
(7.36784 0.0177888 0)
(7.3694 0.017779 0)
(7.37091 0.0177949 0)
(7.37238 0.0178497 0)
(7.37382 0.0179597 0)
(7.37523 0.0181448 0)
(7.37662 0.01843 0)
(7.37803 0.0188437 0)
(7.37948 0.0194195 0)
(7.38105 0.0201844 0)
(7.38281 0.0211669 0)
(7.38489 0.022343 0)
(7.38742 0.0236799 0)
(7.39056 0.0249862 0)
(7.39433 0.0260455 0)
(7.33291 0.00134485 0)
(7.3332 0.004714 0)
(7.33458 0.00777734 0)
(7.33658 0.0102677 0)
(7.33886 0.0122517 0)
(7.34126 0.0137278 0)
(7.34365 0.0147843 0)
(7.34596 0.0155309 0)
(7.34819 0.0160471 0)
(7.35033 0.0163961 0)
(7.35239 0.0166262 0)
(7.35438 0.0167709 0)
(7.3563 0.016854 0)
(7.35818 0.0168928 0)
(7.36 0.0169005 0)
(7.36179 0.0168876 0)
(7.36353 0.0168631 0)
(7.36524 0.0168352 0)
(7.36691 0.0168122 0)
(7.36856 0.0168032 0)
(7.37017 0.0168182 0)
(7.37177 0.0168693 0)
(7.37335 0.0169704 0)
(7.37493 0.017138 0)
(7.37652 0.0173912 0)
(7.37815 0.01775 0)
(7.37986 0.0182346 0)
(7.3817 0.0188568 0)
(7.38374 0.0196205 0)
(7.38606 0.0204919 0)
(7.38877 0.0214124 0)
(7.39195 0.022241 0)
(7.39559 0.0227999 0)
(7.33297 0.00132288 0)
(7.33334 0.00436281 0)
(7.33458 0.00718514 0)
(7.33639 0.00951131 0)
(7.33847 0.0113604 0)
(7.34068 0.01275 0)
(7.34293 0.0137606 0)
(7.34514 0.0144884 0)
(7.34729 0.0150036 0)
(7.34937 0.0153597 0)
(7.35139 0.0155984 0)
(7.35334 0.0157506 0)
(7.35525 0.0158389 0)
(7.3571 0.0158804 0)
(7.35892 0.0158885 0)
(7.3607 0.015874 0)
(7.36245 0.0158461 0)
(7.36417 0.015813 0)
(7.36587 0.015783 0)
(7.36755 0.0157647 0)
(7.36922 0.0157673 0)
(7.37088 0.0158013 0)
(7.37254 0.0158782 0)
(7.37422 0.0160109 0)
(7.37593 0.0162128 0)
(7.3777 0.0164965 0)
(7.37956 0.0168716 0)
(7.38155 0.0173389 0)
(7.38374 0.0178877 0)
(7.38619 0.0184801 0)
(7.38894 0.0190539 0)
(7.39206 0.0195029 0)
(7.39551 0.0196965 0)
(7.333 0.00126267 0)
(7.3334 0.00398436 0)
(7.33453 0.00651702 0)
(7.33616 0.00864036 0)
(7.33806 0.0103595 0)
(7.34012 0.0116897 0)
(7.34224 0.0126841 0)
(7.34434 0.0134144 0)
(7.34641 0.0139392 0)
(7.34843 0.0143061 0)
(7.3504 0.014554 0)
(7.35232 0.0147126 0)
(7.3542 0.0148042 0)
(7.35603 0.014846 0)
(7.35784 0.0148518 0)
(7.35961 0.0148323 0)
(7.36136 0.0147969 0)
(7.36308 0.0147538 0)
(7.3648 0.0147111 0)
(7.3665 0.0146767 0)
(7.36819 0.0146588 0)
(7.36989 0.0146661 0)
(7.3716 0.0147079 0)
(7.37334 0.0147933 0)
(7.37512 0.014931 0)
(7.37697 0.0151273 0)
(7.37892 0.015384 0)
(7.381 0.0156944 0)
(7.38326 0.0160404 0)
(7.38574 0.0163844 0)
(7.38847 0.0166694 0)
(7.39147 0.0168153 0)
(7.39472 0.0167303 0)
(7.33302 0.00118064 0)
(7.33343 0.00363039 0)
(7.33445 0.0059165 0)
(7.33594 0.00786455 0)
(7.33768 0.00946147 0)
(7.33959 0.0107174 0)
(7.34158 0.0116711 0)
(7.34358 0.0123803 0)
(7.34556 0.0128958 0)
(7.34752 0.0132598 0)
(7.34944 0.0135071 0)
(7.35132 0.0136651 0)
(7.35317 0.0137549 0)
(7.35499 0.013793 0)
(7.35677 0.0137929 0)
(7.35853 0.0137651 0)
(7.36028 0.0137188 0)
(7.362 0.013662 0)
(7.36372 0.0136021 0)
(7.36543 0.0135464 0)
(7.36714 0.0135018 0)
(7.36887 0.0134755 0)
(7.37061 0.0134741 0)
(7.37239 0.0135038 0)
(7.37421 0.013569 0)
(7.37611 0.0136712 0)
(7.37811 0.0138069 0)
(7.38023 0.0139651 0)
(7.3825 0.0141246 0)
(7.38496 0.0142507 0)
(7.38762 0.0142951 0)
(7.39049 0.0141974 0)
(7.39353 0.0138945 0)
(7.33303 0.0010882 0)
(7.33343 0.00329296 0)
(7.33437 0.00534969 0)
(7.33572 0.00712344 0)
(7.33732 0.00859353 0)
(7.33909 0.00976705 0)
(7.34096 0.0106725 0)
(7.34286 0.0113545 0)
(7.34477 0.0118553 0)
(7.34666 0.0122112 0)
(7.34852 0.0124531 0)
(7.35037 0.0126063 0)
(7.35218 0.0126905 0)
(7.35397 0.0127215 0)
(7.35574 0.0127123 0)
(7.35749 0.0126731 0)
(7.35922 0.0126128 0)
(7.36095 0.0125388 0)
(7.36266 0.0124581 0)
(7.36438 0.0123768 0)
(7.3661 0.0123008 0)
(7.36784 0.0122354 0)
(7.3696 0.0121853 0)
(7.3714 0.0121538 0)
(7.37325 0.012142 0)
(7.37517 0.0121481 0)
(7.37718 0.0121651 0)
(7.37931 0.0121799 0)
(7.38157 0.0121712 0)
(7.38398 0.0121083 0)
(7.38655 0.0119519 0)
(7.38927 0.0116568 0)
(7.39212 0.0111801 0)
(7.33303 0.000991706 0)
(7.33341 0.00297202 0)
(7.33428 0.00481791 0)
(7.33551 0.00642579 0)
(7.33699 0.00777157 0)
(7.33864 0.00885853 0)
(7.34039 0.00970731 0)
(7.3422 0.0103524 0)
(7.34402 0.0108289 0)
(7.34585 0.0111683 0)
(7.34766 0.011398 0)
(7.34946 0.0115405 0)
(7.35124 0.0116143 0)
(7.353 0.0116342 0)
(7.35475 0.0116123 0)
(7.35648 0.0115584 0)
(7.3582 0.0114808 0)
(7.35992 0.0113864 0)
(7.36163 0.0112813 0)
(7.36335 0.0111708 0)
(7.36507 0.0110595 0)
(7.36681 0.0109512 0)
(7.36858 0.0108486 0)
(7.37039 0.0107528 0)
(7.37225 0.0106626 0)
(7.37418 0.0105736 0)
(7.37619 0.0104773 0)
(7.3783 0.0103598 0)
(7.38052 0.0102012 0)
(7.38286 0.00997548 0)
(7.38532 0.00965135 0)
(7.38791 0.00919512 0)
(7.39058 0.00857756 0)
(7.33303 0.000894979 0)
(7.33339 0.00266661 0)
(7.33419 0.00431639 0)
(7.33532 0.00576435 0)
(7.33669 0.00698611 0)
(7.33823 0.00798198 0)
(7.33988 0.00876695 0)
(7.34159 0.00936759 0)
(7.34334 0.00981281 0)
(7.3451 0.0101293 0)
(7.34686 0.010341 0)
(7.34861 0.010468 0)
(7.35036 0.0105271 0)
(7.35209 0.0105321 0)
(7.35381 0.0104942 0)
(7.35552 0.0104225 0)
(7.35723 0.0103246 0)
(7.35893 0.0102068 0)
(7.36064 0.0100743 0)
(7.36235 0.00993159 0)
(7.36407 0.00978201 0)
(7.36581 0.00962801 0)
(7.36758 0.0094707 0)
(7.36939 0.00930948 0)
(7.37124 0.00914147 0)
(7.37316 0.00896091 0)
(7.37515 0.00875849 0)
(7.37722 0.00852078 0)
(7.37938 0.00823005 0)
(7.38164 0.00786467 0)
(7.384 0.0074002 0)
(7.38644 0.00681152 0)
(7.38894 0.00607888 0)
(7.33303 0.00080011 0)
(7.33337 0.00237577 0)
(7.3341 0.00384182 0)
(7.33515 0.00513585 0)
(7.33642 0.00623487 0)
(7.33786 0.00713688 0)
(7.33941 0.00785251 0)
(7.34104 0.00840214 0)
(7.34271 0.00880928 0)
(7.34441 0.00909651 0)
(7.34612 0.00928441 0)
(7.34782 0.00939087 0)
(7.34953 0.00943097 0)
(7.35123 0.00941719 0)
(7.35293 0.0093598 0)
(7.35462 0.00926716 0)
(7.3563 0.00914611 0)
(7.35799 0.00900219 0)
(7.35968 0.00883983 0)
(7.36138 0.00866246 0)
(7.36309 0.00847249 0)
(7.36482 0.00827116 0)
(7.36658 0.00805833 0)
(7.36838 0.00783217 0)
(7.37022 0.00758872 0)
(7.37211 0.00732155 0)
(7.37407 0.00702135 0)
(7.37609 0.00667575 0)
(7.37819 0.00626944 0)
(7.38036 0.00578476 0)
(7.3826 0.00520279 0)
(7.38491 0.00450485 0)
(7.38725 0.00367767 0)
(7.33303 0.000708142 0)
(7.33334 0.00209845 0)
(7.33402 0.00339108 0)
(7.33499 0.00453654 0)
(7.33617 0.00551398 0)
(7.33752 0.00631982 0)
(7.33899 0.00696136 0)
(7.34054 0.0074542 0)
(7.34214 0.00781728 0)
(7.34378 0.00806948 0)
(7.34543 0.00822841 0)
(7.34709 0.00830969 0)
(7.34876 0.00832666 0)
(7.35043 0.00829052 0)
(7.35209 0.00821049 0)
(7.35376 0.00809408 0)
(7.35543 0.00794731 0)
(7.35709 0.00777494 0)
(7.35877 0.00758061 0)
(7.36045 0.00736689 0)
(7.36215 0.00713525 0)
(7.36386 0.00688599 0)
(7.36561 0.00661803 0)
(7.36738 0.0063287 0)
(7.36919 0.00601346 0)
(7.37105 0.00566572 0)
(7.37296 0.00527665 0)
(7.37493 0.00483525 0)
(7.37695 0.00432859 0)
(7.37903 0.00374245 0)
(7.38115 0.00306225 0)
(7.38333 0.00227414 0)
(7.38553 0.00136933 0)
(7.33303 0.000619486 0)
(7.33332 0.00183352 0)
(7.33395 0.00296136 0)
(7.33485 0.00396308 0)
(7.33596 0.00482023 0)
(7.33722 0.00552824 0)
(7.33861 0.0060919 0)
(7.34009 0.00652302 0)
(7.34162 0.00683674 0)
(7.3432 0.0070487 0)
(7.3448 0.00717381 0)
(7.34642 0.00722551 0)
(7.34805 0.00721549 0)
(7.34968 0.00715359 0)
(7.35132 0.00704796 0)
(7.35296 0.00690518 0)
(7.3546 0.00673046 0)
(7.35624 0.00652777 0)
(7.3579 0.00629996 0)
(7.35956 0.00604883 0)
(7.36123 0.00577507 0)
(7.36293 0.00547823 0)
(7.36464 0.00515656 0)
(7.36639 0.00480688 0)
(7.36817 0.00442445 0)
(7.36998 0.00400286 0)
(7.37184 0.00353407 0)
(7.37374 0.00300849 0)
(7.37568 0.0024154 0)
(7.37766 0.00174348 0)
(7.37968 0.000981554 0)
(7.38172 0.00011935 0)
(7.38378 -0.000848824 0)
(7.33302 0.000534184 0)
(7.3333 0.0015798 0)
(7.33389 0.00255012 0)
(7.33473 0.0034124 0)
(7.33576 0.00415052 0)
(7.33696 0.0047594 0)
(7.33827 0.00524195 0)
(7.33968 0.00560705 0)
(7.34115 0.00586667 0)
(7.34268 0.00603365 0)
(7.34423 0.00612046 0)
(7.3458 0.00613851 0)
(7.34739 0.00609786 0)
(7.34899 0.00600705 0)
(7.35059 0.00587311 0)
(7.3522 0.00570168 0)
(7.35382 0.00549714 0)
(7.35544 0.00526268 0)
(7.35707 0.00500044 0)
(7.3587 0.00471151 0)
(7.36035 0.00439594 0)
(7.36202 0.00405271 0)
(7.3637 0.00367962 0)
(7.36541 0.00327327 0)
(7.36715 0.00282895 0)
(7.36891 0.00234067 0)
(7.3707 0.00180128 0)
(7.37253 0.0012026 0)
(7.37439 0.000535858 0)
(7.37627 -0.000207909 0)
(7.37818 -0.0010372 0)
(7.3801 -0.00195965 0)
(7.38202 -0.00297875 0)
(7.33302 0.000452069 0)
(7.33328 0.00133612 0)
(7.33383 0.00215504 0)
(7.33462 0.00288164 0)
(7.33559 0.00350194 0)
(7.33672 0.00401075 0)
(7.33797 0.0044096 0)
(7.33932 0.00470507 0)
(7.34073 0.00490656 0)
(7.3422 0.00502445 0)
(7.3437 0.00506902 0)
(7.34524 0.00504985 0)
(7.34679 0.00497542 0)
(7.34835 0.00485296 0)
(7.34992 0.00468842 0)
(7.3515 0.0044865 0)
(7.35309 0.00425073 0)
(7.35468 0.0039836 0)
(7.35628 0.00368654 0)
(7.35789 0.00336006 0)
(7.3595 0.00300368 0)
(7.36114 0.00261598 0)
(7.36278 0.0021945 0)
(7.36445 0.00173578 0)
(7.36613 0.00123532 0)
(7.36784 0.000687705 0)
(7.36957 8.66647e-05 0)
(7.37132 -0.000574646 0)
(7.37309 -0.00130336 0)
(7.37487 -0.0021065 0)
(7.37667 -0.00299052 0)
(7.37847 -0.00396106 0)
(7.38027 -0.00502008 0)
(7.33302 0.000372869 0)
(7.33326 0.00110129 0)
(7.33378 0.00177397 0)
(7.33452 0.00236808 0)
(7.33544 0.00287159 0)
(7.33651 0.00327943 0)
(7.3377 0.00359216 0)
(7.33899 0.00381462 0)
(7.34035 0.00395411 0)
(7.34177 0.00401895 0)
(7.34323 0.0040175 0)
(7.34472 0.00395764 0)
(7.34623 0.00384637 0)
(7.34776 0.00368969 0)
(7.3493 0.00349247 0)
(7.35085 0.00325848 0)
(7.3524 0.00299047 0)
(7.35396 0.00269019 0)
(7.35553 0.00235849 0)
(7.35711 0.00199533 0)
(7.35869 0.00159984 0)
(7.36028 0.00117029 0)
(7.36189 0.000704102 0)
(7.36351 0.000197896 0)
(7.36514 -0.000352503 0)
(7.36678 -0.00095194 0)
(7.36844 -0.00160579 0)
(7.37011 -0.00231974 0)
(7.37179 -0.00309953 0)
(7.37348 -0.00395063 0)
(7.37517 -0.00487791 0)
(7.37685 -0.00588553 0)
(7.37852 -0.00697433 0)
(7.33302 0.000296262 0)
(7.33325 0.000874197 0)
(7.33374 0.00140502 0)
(7.33443 0.00186947 0)
(7.3353 0.00225727 0)
(7.33632 0.00256375 0)
(7.33746 0.00278886 0)
(7.3387 0.00293604 0)
(7.34001 0.00301089 0)
(7.34138 0.00301992 0)
(7.3428 0.00296977 0)
(7.34425 0.00286676 0)
(7.34573 0.00271652 0)
(7.34722 0.00252384 0)
(7.34872 0.00229255 0)
(7.35024 0.00202555 0)
(7.35176 0.00172482 0)
(7.35329 0.00139146 0)
(7.35482 0.00102576 0)
(7.35636 0.000627267 0)
(7.35791 0.00019477 0)
(7.35946 -0.000273637 0)
(7.36102 -0.000780548 0)
(7.36258 -0.00132918 0)
(7.36416 -0.00192335 0)
(7.36574 -0.0025673 0)
(7.36732 -0.00326561 0)
(7.36891 -0.00402294 0)
(7.3705 -0.00484389 0)
(7.37209 -0.00573268 0)
(7.37367 -0.00669297 0)
(7.37525 -0.00772781 0)
(7.3768 -0.00883724 0)
(7.33302 0.000221909 0)
(7.33324 0.000653695 0)
(7.3337 0.0010461 0)
(7.33436 0.00138273 0)
(7.33518 0.00165489 0)
(7.33616 0.00185843 0)
(7.33725 0.00199303 0)
(7.33844 0.00206124 0)
(7.33971 0.00206745 0)
(7.34104 0.00201675 0)
(7.34242 0.00191428 0)
(7.34383 0.00176493 0)
(7.34527 0.0015731 0)
(7.34673 0.00134245 0)
(7.3482 0.00107579 0)
(7.34968 0.000775129 0)
(7.35117 0.000441711 0)
(7.35266 7.60104e-05 0)
(7.35416 -0.000322199 0)
(7.35566 -0.000753779 0)
(7.35716 -0.0012202 0)
(7.35867 -0.00172348 0)
(7.36018 -0.0022662 0)
(7.36169 -0.00285139 0)
(7.3632 -0.00348246 0)
(7.36471 -0.00416313 0)
(7.36623 -0.00489723 0)
(7.36773 -0.00568861 0)
(7.36923 -0.0065409 0)
(7.37073 -0.00745737 0)
(7.3722 -0.0084407 0)
(7.37367 -0.00949311 0)
(7.3751 -0.0106141 0)
(7.33302 0.000149508 0)
(7.33322 0.000439028 0)
(7.33366 0.00069646 0)
(7.33429 0.00090803 0)
(7.33508 0.00106662 0)
(7.33601 0.00116876 0)
(7.33706 0.00121408 0)
(7.33821 0.0012039 0)
(7.33944 0.00114143 0)
(7.34073 0.00103056 0)
(7.34207 0.000875141 0)
(7.34345 0.000678786 0)
(7.34485 0.000444609 0)
(7.34628 0.000175205 0)
(7.34772 -0.000127429 0)
(7.34917 -0.000462053 0)
(7.35062 -0.000828099 0)
(7.35208 -0.00122563 0)
(7.35354 -0.00165531 0)
(7.355 -0.0021183 0)
(7.35646 -0.00261625 0)
(7.35792 -0.00315125 0)
(7.35938 -0.00372577 0)
(7.36083 -0.00434263 0)
(7.36228 -0.00500488 0)
(7.36372 -0.00571571 0)
(7.36516 -0.00647837 0)
(7.36658 -0.00729596 0)
(7.36799 -0.00817136 0)
(7.36939 -0.00910707 0)
(7.37077 -0.0101051 0)
(7.37212 -0.0111669 0)
(7.37345 -0.0122918 0)
(7.33302 7.86628e-05 0)
(7.33321 0.000228365 0)
(7.33363 0.000351402 0)
(7.33423 0.000435834 0)
(7.33499 0.000476107 0)
(7.33589 0.00047006 0)
(7.3369 0.000417696 0)
(7.33802 0.000321402 0)
(7.33921 0.00018359 0)
(7.34047 6.81857e-06 0)
(7.34177 -0.000206177 0)
(7.34312 -0.000452922 0)
(7.34449 -0.000731485 0)
(7.34588 -0.00104038 0)
(7.34729 -0.00137861 0)
(7.3487 -0.00174581 0)
(7.35012 -0.00214216 0)
(7.35154 -0.00256836 0)
(7.35297 -0.00302551 0)
(7.35438 -0.00351511 0)
(7.3558 -0.00403904 0)
(7.35721 -0.00459943 0)
(7.35861 -0.00519872 0)
(7.36001 -0.00583951 0)
(7.36139 -0.00652453 0)
(7.36276 -0.00725656 0)
(7.36412 -0.00803831 0)
(7.36547 -0.00887231 0)
(7.36679 -0.00976084 0)
(7.36809 -0.0107058 0)
(7.36937 -0.0117086 0)
(7.37062 -0.0127703 0)
(7.37184 -0.0138898 0)
(7.33302 9.50001e-06 0)
(7.3332 2.41969e-05 0)
(7.3336 1.98148e-05 0)
(7.33417 -1.35718e-05 0)
(7.3349 -8.04939e-05 0)
(7.33577 -0.000183027 0)
(7.33675 -0.000321754 0)
(7.33784 -0.000495157 0)
(7.339 -0.000701782 0)
(7.34023 -0.000940046 0)
(7.34151 -0.00120815 0)
(7.34282 -0.00150453 0)
(7.34417 -0.00182796 0)
(7.34553 -0.00217766 0)
(7.34691 -0.00255339 0)
(7.34829 -0.00295533 0)
(7.34968 -0.00338414 0)
(7.35106 -0.00384086 0)
(7.35245 -0.00432691 0)
(7.35382 -0.00484398 0)
(7.35519 -0.00539401 0)
(7.35655 -0.00597917 0)
(7.3579 -0.00660176 0)
(7.35923 -0.00726417 0)
(7.36055 -0.00796887 0)
(7.36186 -0.00871824 0)
(7.36314 -0.00951457 0)
(7.3644 -0.0103599 0)
(7.36564 -0.0112561 0)
(7.36685 -0.0122046 0)
(7.36804 -0.0132064 0)
(7.36919 -0.0142623 0)
(7.3703 -0.0153709 0)
(7.33302 -5.95746e-05 0)
(7.3332 -0.000184978 0)
(7.33358 -0.000330938 0)
(7.33414 -0.000505227 0)
(7.33485 -0.000707831 0)
(7.33569 -0.000936303 0)
(7.33665 -0.00118781 0)
(7.3377 -0.0014605 0)
(7.33884 -0.00175271 0)
(7.34004 -0.00206337 0)
(7.34129 -0.00239213 0)
(7.34258 -0.00273911 0)
(7.34389 -0.00310476 0)
(7.34523 -0.00348981 0)
(7.34657 -0.00389533 0)
(7.34793 -0.00432262 0)
(7.34928 -0.00477323 0)
(7.35063 -0.00524895 0)
(7.35197 -0.00575172 0)
(7.3533 -0.0062836 0)
(7.35463 -0.00684678 0)
(7.35594 -0.00744348 0)
(7.35723 -0.00807598 0)
(7.3585 -0.00874653 0)
(7.35976 -0.00945734 0)
(7.36099 -0.0102105 0)
(7.3622 -0.011008 0)
(7.36339 -0.0118514 0)
(7.36454 -0.0127422 0)
(7.36567 -0.0136815 0)
(7.36676 -0.0146699 0)
(7.36781 -0.0157079 0)
(7.36883 -0.0167942 0)
(7.33301 -0.000123384 0)
(7.33318 -0.00036385 0)
(7.33353 -0.000608886 0)
(7.33406 -0.000869351 0)
(7.33474 -0.0011497 0)
(7.33557 -0.00145128 0)
(7.33651 -0.00177357 0)
(7.33755 -0.00211494 0)
(7.33868 -0.00247353 0)
(7.33987 -0.00284793 0)
(7.3411 -0.00323736 0)
(7.34238 -0.00364151 0)
(7.34367 -0.00406058 0)
(7.34499 -0.00449523 0)
(7.34631 -0.00494649 0)
(7.34763 -0.0054158 0)
(7.34896 -0.00590483 0)
(7.35027 -0.00641552 0)
(7.35158 -0.00694995 0)
(7.35287 -0.00751028 0)
(7.35415 -0.00809875 0)
(7.35541 -0.00871759 0)
(7.35664 -0.00936901 0)
(7.35786 -0.0100552 0)
(7.35905 -0.0107781 0)
(7.36022 -0.0115397 0)
(7.36136 -0.0123417 0)
(7.36246 -0.0131856 0)
(7.36354 -0.0140724 0)
(7.36457 -0.0150032 0)
(7.36558 -0.0159783 0)
(7.36654 -0.0169982 0)
(7.36746 -0.0180615 0)
(7.33302 -0.000200872 0)
(7.3332 -0.000622657 0)
(7.33357 -0.00107531 0)
(7.33409 -0.00155222 0)
(7.33476 -0.00203722 0)
(7.33556 -0.00251801 0)
(7.33648 -0.0029886 0)
(7.33749 -0.00344748 0)
(7.33859 -0.00389585 0)
(7.33975 -0.00433647 0)
(7.34096 -0.00477282 0)
(7.34221 -0.00520862 0)
(7.34348 -0.00564757 0)
(7.34477 -0.00609319 0)
(7.34606 -0.00654882 0)
(7.34736 -0.00701763 0)
(7.34865 -0.00750265 0)
(7.34993 -0.00800673 0)
(7.3512 -0.0085326 0)
(7.35245 -0.00908283 0)
(7.35368 -0.00965985 0)
(7.3549 -0.010266 0)
(7.35608 -0.0109033 0)
(7.35724 -0.0115738 0)
(7.35838 -0.0122793 0)
(7.35948 -0.0130215 0)
(7.36055 -0.0138018 0)
(7.36158 -0.0146212 0)
(7.36258 -0.0154806 0)
(7.36354 -0.0163807 0)
(7.36445 -0.0173218 0)
(7.36533 -0.0183039 0)
(7.36616 -0.0193256 0)
(7.333 -0.000225064 0)
(7.3331 -0.000634056 0)
(7.33339 -0.0010342 0)
(7.33388 -0.0014606 0)
(7.33454 -0.00192322 0)
(7.33535 -0.00241768 0)
(7.3363 -0.00293451 0)
(7.33734 -0.00346431 0)
(7.33847 -0.00400001 0)
(7.33965 -0.0045372 0)
(7.34088 -0.00507368 0)
(7.34213 -0.00560896 0)
(7.34341 -0.00614379 0)
(7.34469 -0.00667979 0)
(7.34597 -0.00721914 0)
(7.34724 -0.00776441 0)
(7.34851 -0.0083184 0)
(7.34976 -0.008884 0)
(7.35099 -0.00946408 0)
(7.35221 -0.0100614 0)
(7.35339 -0.0106788 0)
(7.35456 -0.0113186 0)
(7.35569 -0.0119833 0)
(7.35679 -0.012675 0)
(7.35786 -0.0133957 0)
(7.3589 -0.0141471 0)
(7.3599 -0.0149307 0)
(7.36086 -0.0157476 0)
(7.36178 -0.0165989 0)
(7.36265 -0.0174851 0)
(7.36349 -0.0184067 0)
(7.36428 -0.0193637 0)
(7.36502 -0.020355 0)
(7.33305 -0.000404729 0)
(7.33329 -0.00128285 0)
(7.33366 -0.00221367 0)
(7.33414 -0.00312933 0)
(7.33475 -0.00397918 0)
(7.33549 -0.00474724 0)
(7.33636 -0.00543709 0)
(7.33734 -0.00605937 0)
(7.33841 -0.0066268 0)
(7.33955 -0.00715211 0)
(7.34074 -0.00764695 0)
(7.34196 -0.00812152 0)
(7.34321 -0.00858441 0)
(7.34446 -0.00904281 0)
(7.34572 -0.00950272 0)
(7.34698 -0.0099692 0)
(7.34822 -0.0104465 0)
(7.34945 -0.0109384 0)
(7.35065 -0.011448 0)
(7.35184 -0.0119782 0)
(7.35299 -0.0125312 0)
(7.35412 -0.0131093 0)
(7.35521 -0.0137143 0)
(7.35626 -0.0143478 0)
(7.35728 -0.0150113 0)
(7.35827 -0.0157058 0)
(7.35921 -0.0164324 0)
(7.3601 -0.0171917 0)
(7.36096 -0.0179843 0)
(7.36177 -0.0188103 0)
(7.36253 -0.0196699 0)
(7.36325 -0.0205629 0)
(7.36391 -0.021488 0)
(7.33293 -0.000140811 0)
(7.33282 -0.000338292 0)
(7.33298 -0.000598731 0)
(7.33345 -0.0010468 0)
(7.33417 -0.00167033 0)
(7.33508 -0.00240781 0)
(7.33611 -0.00320366 0)
(7.33724 -0.0040194 0)
(7.33843 -0.00483077 0)
(7.33966 -0.00562356 0)
(7.34091 -0.00639075 0)
(7.34218 -0.00713027 0)
(7.34345 -0.00784322 0)
(7.34471 -0.0085326 0)
(7.34596 -0.00920246 0)
(7.3472 -0.00985737 0)
(7.34841 -0.0105021 0)
(7.3496 -0.0111412 0)
(7.35077 -0.0117792 0)
(7.3519 -0.0124202 0)
(7.353 -0.013068 0)
(7.35407 -0.0137258 0)
(7.3551 -0.0143969 0)
(7.3561 -0.0150837 0)
(7.35705 -0.0157888 0)
(7.35796 -0.016514 0)
(7.35883 -0.0172611 0)
(7.35966 -0.0180314 0)
(7.36044 -0.018826 0)
(7.36117 -0.0196456 0)
(7.36185 -0.0204908 0)
(7.36248 -0.0213617 0)
(7.36307 -0.0222575 0)
(7.33316 -0.000853526 0)
(7.33362 -0.00284726 0)
(7.33393 -0.00480058 0)
(7.3342 -0.00644634 0)
(7.33461 -0.00774368 0)
(7.33521 -0.00875608 0)
(7.33601 -0.00955314 0)
(7.33695 -0.0101922 0)
(7.33801 -0.0107195 0)
(7.33915 -0.0111711 0)
(7.34035 -0.0115741 0)
(7.34159 -0.0119489 0)
(7.34285 -0.01231 0)
(7.34412 -0.0126682 0)
(7.34538 -0.013031 0)
(7.34662 -0.0134042 0)
(7.34785 -0.013792 0)
(7.34905 -0.0141975 0)
(7.35022 -0.0146232 0)
(7.35135 -0.0150709 0)
(7.35245 -0.0155422 0)
(7.35351 -0.0160382 0)
(7.35452 -0.0165599 0)
(7.3555 -0.017108 0)
(7.35643 -0.0176832 0)
(7.35731 -0.0182859 0)
(7.35814 -0.0189163 0)
(7.35893 -0.0195747 0)
(7.35966 -0.020261 0)
(7.36034 -0.0209752 0)
(7.36098 -0.0217169 0)
(7.36156 -0.0224859 0)
(7.36208 -0.023281 0)
(7.33266 0.000540964 0)
(7.33187 0.00181511 0)
(7.33191 0.0024791 0)
(7.33264 0.00219592 0)
(7.3337 0.00126036 0)
(7.33491 3.68201e-07 0)
(7.33618 -0.00138422 0)
(7.33749 -0.00278767 0)
(7.3388 -0.00415079 0)
(7.34011 -0.00544147 0)
(7.34141 -0.0066467 0)
(7.34268 -0.00776511 0)
(7.34394 -0.0088016 0)
(7.34517 -0.00976427 0)
(7.34638 -0.0106626 0)
(7.34756 -0.0115065 0)
(7.34871 -0.0123052 0)
(7.34982 -0.0130678 0)
(7.35091 -0.013802 0)
(7.35195 -0.0145152 0)
(7.35296 -0.0152134 0)
(7.35393 -0.0159023 0)
(7.35486 -0.0165866 0)
(7.35575 -0.0172704 0)
(7.35659 -0.0179571 0)
(7.35739 -0.0186498 0)
(7.35814 -0.0193509 0)
(7.35885 -0.0200625 0)
(7.3595 -0.0207862 0)
(7.36011 -0.0215233 0)
(7.36066 -0.0222746 0)
(7.36116 -0.0230408 0)
(7.36161 -0.0238216 0)
(7.33353 -0.00200708 0)
(7.33444 -0.00679924 0)
(7.33405 -0.0112698 0)
(7.33333 -0.0140669 0)
(7.33311 -0.015665 0)
(7.33344 -0.0165719 0)
(7.33416 -0.0170457 0)
(7.33513 -0.0172572 0)
(7.33628 -0.0173247 0)
(7.33755 -0.0173238 0)
(7.33888 -0.0173023 0)
(7.34025 -0.017289 0)
(7.34163 -0.0173005 0)
(7.343 -0.0173459 0)
(7.34435 -0.0174294 0)
(7.34567 -0.0175528 0)
(7.34695 -0.0177158 0)
(7.34819 -0.0179176 0)
(7.34939 -0.0181568 0)
(7.35054 -0.0184318 0)
(7.35165 -0.0187412 0)
(7.3527 -0.0190834 0)
(7.3537 -0.019457 0)
(7.35466 -0.019861 0)
(7.35556 -0.020294 0)
(7.3564 -0.0207552 0)
(7.35719 -0.0212436 0)
(7.35793 -0.0217584 0)
(7.35862 -0.0222986 0)
(7.35924 -0.0228635 0)
(7.35982 -0.0234524 0)
(7.36034 -0.0240647 0)
(7.3608 -0.0246989 0)
(7.33179 0.00340571 0)
(7.329 0.00924253 0)
(7.32947 0.0118978 0)
(7.33183 0.0116339 0)
(7.33396 0.00957004 0)
(7.33575 0.00690236 0)
(7.33735 0.00413253 0)
(7.33882 0.00145001 0)
(7.34017 -0.00104389 0)
(7.34144 -0.00330693 0)
(7.34266 -0.00533619 0)
(7.34384 -0.00714669 0)
(7.34498 -0.00876062 0)
(7.34611 -0.0102025 0)
(7.34722 -0.0114964 0)
(7.34831 -0.0126648 0)
(7.34938 -0.0137277 0)
(7.35043 -0.0147028 0)
(7.35146 -0.0156052 0)
(7.35247 -0.0164481 0)
(7.35344 -0.0172426 0)
(7.35439 -0.0179983 0)
(7.35531 -0.0187231 0)
(7.35619 -0.0194239 0)
(7.35703 -0.0201064 0)
(7.35783 -0.0207756 0)
(7.35859 -0.0214353 0)
(7.3593 -0.0220891 0)
(7.35997 -0.0227397 0)
(7.36059 -0.0233893 0)
(7.36116 -0.0240398 0)
(7.36167 -0.0246923 0)
(7.36214 -0.0253477 0)
(7.33408 -0.00611624 0)
(7.33406 -0.0189256 0)
(7.33031 -0.0269429 0)
(7.32666 -0.0304321 0)
(7.32509 -0.0311864 0)
(7.32534 -0.0307345 0)
(7.32643 -0.0297485 0)
(7.32796 -0.0285536 0)
(7.32976 -0.0273469 0)
(7.33173 -0.0262314 0)
(7.33377 -0.0252513 0)
(7.33582 -0.0244207 0)
(7.33788 -0.0237383 0)
(7.3399 -0.0231949 0)
(7.34188 -0.0227777 0)
(7.34381 -0.0224731 0)
(7.34568 -0.0222678 0)
(7.34749 -0.0221497 0)
(7.34925 -0.0221081 0)
(7.35093 -0.0221333 0)
(7.35256 -0.0222174 0)
(7.35411 -0.0223533 0)
(7.3556 -0.022535 0)
(7.35702 -0.0227578 0)
(7.35838 -0.0230172 0)
(7.35966 -0.0233098 0)
(7.36087 -0.0236325 0)
(7.36202 -0.0239826 0)
(7.36309 -0.0243581 0)
(7.3641 -0.0247569 0)
(7.36504 -0.0251775 0)
(7.36591 -0.0256187 0)
(7.36672 -0.0260786 0)
(7.32967 0.0198636 0)
(7.32498 0.0370162 0)
(7.32932 0.0377078 0)
(7.33514 0.0323119 0)
(7.33882 0.0259051 0)
(7.34105 0.0196086 0)
(7.34291 0.0137281 0)
(7.34469 0.00846396 0)
(7.3465 0.00386163 0)
(7.34837 -0.000125397 0)
(7.35035 -0.00356636 0)
(7.35242 -0.00653276 0)
(7.35456 -0.00909342 0)
(7.35676 -0.0113107 0)
(7.359 -0.013239 0)
(7.36125 -0.0149247 0)
(7.3635 -0.0164069 0)
(7.36574 -0.0177189 0)
(7.36794 -0.0188883 0)
(7.37011 -0.0199384 0)
(7.37223 -0.0208885 0)
(7.37428 -0.0217549 0)
(7.37628 -0.0225513 0)
(7.3782 -0.023289 0)
(7.38005 -0.0239778 0)
(7.38183 -0.0246256 0)
(7.38352 -0.0252395 0)
(7.38513 -0.0258252 0)
(7.38666 -0.0263877 0)
(7.3881 -0.0269311 0)
(7.38946 -0.0274592 0)
(7.39073 -0.0279747 0)
(7.39191 -0.0284813 0)
(7.32507 -0.0330745 0)
(7.29738 -0.0587488 0)
(7.2781 -0.0616657 0)
(7.27379 -0.0592775 0)
(7.28039 -0.0557588 0)
(7.29184 -0.051702 0)
(7.30511 -0.0477497 0)
(7.31885 -0.044232 0)
(7.33232 -0.0411972 0)
(7.34509 -0.0386271 0)
(7.35701 -0.0364842 0)
(7.36802 -0.0347165 0)
(7.37813 -0.03327 0)
(7.38737 -0.0320953 0)
(7.39581 -0.0311489 0)
(7.4035 -0.0303937 0)
(7.4105 -0.0297981 0)
(7.41686 -0.029336 0)
(7.42265 -0.0289857 0)
(7.42789 -0.0287293 0)
(7.43265 -0.0285521 0)
(7.43695 -0.028442 0)
(7.44084 -0.0283889 0)
(7.44434 -0.0283846 0)
(7.44748 -0.0284223 0)
(7.45029 -0.0284962 0)
(7.4528 -0.0286016 0)
(7.45502 -0.0287345 0)
(7.45698 -0.0288915 0)
(7.45869 -0.0290696 0)
(7.46018 -0.0292661 0)
(7.46145 -0.0294786 0)
(7.46252 -0.0297042 0)
(7.33915 0.134727 0)
(7.37621 0.127077 0)
(7.39344 0.0872157 0)
(7.38982 0.0533402 0)