/*--------------------------------*- C++ -*----------------------------------*\
  =========                 |
  \\      /  F ield         | OpenFOAM: The Open Source CFD Toolbox
   \\    /   O peration     | Website:  https://openfoam.org
    \\  /    A nd           | Version:  10
     \\/     M anipulation  |
\*---------------------------------------------------------------------------*/
FoamFile
{
    format      ascii;
    class       volScalarField;
    location    "0.065";
    object      k;
}
// * * * * * * * * * * * * * * * * * * * * * * * * * * * * * * * * * * * * * //

dimensions      [0 2 -2 0 0 0 0];

internalField   nonuniform List<scalar> 
6820
(
0.198345
0.194814
0.191224
0.187612
0.184024
0.180485
0.177005
0.173587
0.170229
0.166932
0.163691
0.160504
0.157368
0.154279
0.151234
0.148229
0.145258
0.142317
0.139397
0.13649
0.133583
0.130662
0.127707
0.12469
0.121579
0.118325
0.114866
0.111115
0.106959
0.102212
0.0966687
0.0899589
0.080929
0.200925
0.200901
0.200466
0.200008
0.199549
0.199078
0.198592
0.198091
0.197573
0.19704
0.196494
0.195936
0.195368
0.194793
0.194213
0.193628
0.193042
0.192454
0.191868
0.191284
0.190705
0.19013
0.189562
0.189
0.188442
0.187883
0.187313
0.186712
0.186047
0.185239
0.184229
0.182593
0.180792
0.236732
0.0167615
0.0578468
0.00640591
0.00771495
0.0079231
0.00945383
0.0114345
0.0135586
0.0157784
0.018064
0.0203979
0.02277
0.0251736
0.0276047
0.0300615
0.0325446
0.0350569
0.0376041
0.0401954
0.0428436
0.0455671
0.0483902
0.0513457
0.0544771
0.0578411
0.0615127
0.0655879
0.0701932
0.0754834
0.0816558
0.0889424
0.0975086
0.210791
0.147869
0.104717
0.0793869
0.0637729
0.0532156
0.0454496
0.0393658
0.0343893
0.030197
0.0265937
0.0234543
0.0206951
0.0182587
0.0161052
0.0142071
0.0125451
0.0111057
0.00987855
0.00885428
0.00802331
0.00737534
0.00690008
0.00658903
0.00643809
0.00645065
0.0066416
0.00704312
0.00771264
0.00875201
0.0103074
0.0126744
0.0160167
0.223368
0.0831526
0.0214631
0.00432218
0.000768431
0.000465007
0.000750419
0.00105183
0.00130212
0.0015164
0.0017073
0.00187883
0.00203079
0.00216178
0.0022704
0.00235577
0.00241754
0.00245585
0.00247117
0.00246415
0.00243545
0.0023855
0.0023144
0.00222162
0.00210595
0.0019653
0.00179687
0.00159641
0.00136277
0.00108449
0.000815808
0.000271152
0.000324197
0.216932
0.11581
0.0556189
0.0316648
0.0222024
0.01757
0.0143103
0.0113438
0.00847117
0.00584184
0.00368687
0.00213267
0.00114311
0.000579253
0.000286573
0.000145768
8.21655e-05
5.51302e-05
4.47906e-05
4.24034e-05
4.44519e-05
4.94864e-05
5.66748e-05
6.54836e-05
7.48196e-05
8.36628e-05
8.7673e-05
9.71585e-05
5.00967e-05
5.08673e-05
0.000131187
0.000150382
0.000356205
0.213429
0.133353
0.069239
0.0381432
0.0246686
0.0185326
0.0153255
0.0133917
0.012081
0.0111055
0.0103261
0.00967124
0.00910151
0.00859229
0.00812463
0.00767976
0.00723529
0.00676445
0.00624284
0.00566584
0.00506743
0.00450916
0.00403661
0.00365719
0.0033576
0.00311981
0.00292827
0.0027713
0.0026353
0.00251639
0.00240969
0.00230911
0.00219447
0.204355
0.178516
0.133117
0.0835748
0.0504261
0.0324803
0.0231458
0.0180709
0.0150791
0.0131501
0.0117994
0.0107844
0.00997512
0.00929704
0.00870532
0.00817176
0.00767825
0.00721467
0.00677909
0.00637313
0.00599562
0.00564372
0.00531622
0.00501419
0.00474772
0.0045309
0.00437561
0.00428456
0.00424898
0.00424874
0.00426166
0.00427055
0.00426725
0.203137
0.184383
0.162095
0.131818
0.099033
0.0722694
0.0533505
0.0407665
0.0324659
0.0268429
0.0228624
0.0199034
0.0175976
0.0157239
0.0141476
0.0127862
0.01159
0.0105306
0.00959103
0.00875567
0.00800604
0.00732539
0.00670122
0.0061286
0.00561489
0.00517774
0.00483956
0.00461716
0.00451243
0.00450885
0.00457666
0.00468164
0.00479625
0.202572
0.187155
0.172957
0.15918
0.140951
0.1188
0.0963496
0.0768929
0.0616693
0.0503172
0.0419337
0.0356598
0.0308453
0.0270412
0.0239488
0.0213716
0.019179
0.0172804
0.0156091
0.0141143
0.0127597
0.0115207
0.0103828
0.00934321
0.00840898
0.00759625
0.00692764
0.00642364
0.00609235
0.0059227
0.0058858
0.00594197
0.0060529
0.202198
0.188983
0.177137
0.168115
0.159371
0.149332
0.137285
0.123532
0.109245
0.0956058
0.0833373
0.0727068
0.0636777
0.0560666
0.0496481
0.0442055
0.0395474
0.0355087
0.0319517
0.0287704
0.0258936
0.0232737
0.0209014
0.0187849
0.0169367
0.0153739
0.0141174
0.0131838
0.0125744
0.0122656
0.012209
0.0123378
0.0125853
0.201938
0.190252
0.179907
0.172796
0.167372
0.162391
0.157016
0.150459
0.142428
0.133203
0.123317
0.113323
0.103689
0.094717
0.086537
0.0791519
0.0724859
0.0664249
0.0608564
0.0556729
0.0508463
0.0463832
0.0423339
0.0387542
0.0356925
0.0331854
0.0312543
0.0299
0.0290933
0.0287689
0.0288297
0.029155
0.0296314
0.20175
0.191168
0.181551
0.175012
0.170589
0.167399
0.164904
0.162538
0.159865
0.156655
0.152735
0.147973
0.142461
0.136424
0.130072
0.123564
0.116995
0.110378
0.103739
0.0971093
0.090589
0.0843198
0.078455
0.0731373
0.0684779
0.064545
0.0613624
0.0589122
0.0571372
0.0559451
0.0552172
0.0548132
0.0545991
0.201623
0.191778
0.182557
0.17627
0.172209
0.169583
0.1679
0.166771
0.165889
0.165041
0.164047
0.162733
0.161003
0.158804
0.156091
0.152825
0.148997
0.144593
0.139644
0.134217
0.128437
0.122471
0.11652
0.11078
0.105419
0.100555
0.0962497
0.0925139
0.0893155
0.0865925
0.0842654
0.0822323
0.0803868
0.201545
0.192143
0.183115
0.176919
0.173004
0.170657
0.16944
0.169022
0.169123
0.169516
0.170007
0.170428
0.170637
0.170512
0.169953
0.168875
0.167212
0.164914
0.161955
0.158347
0.154147
0.149462
0.144433
0.139216
0.133963
0.128798
0.123819
0.119088
0.114635
0.110465
0.106571
0.102906
0.0994043
0.201508
0.1923
0.183288
0.177082
0.17323
0.171038
0.170048
0.169924
0.170401
0.171271
0.172363
0.173525
0.174618
0.17552
0.176122
0.176323
0.176032
0.17517
0.173672
0.171503
0.168665
0.165195
0.16117
0.15669
0.151863
0.146798
0.14159
0.136322
0.131061
0.125866
0.12078
0.115787
0.110809
0.201509
0.192269
0.183103
0.176778
0.172902
0.170779
0.169935
0.170026
0.170783
0.171998
0.173492
0.175104
0.176689
0.178115
0.179269
0.180052
0.180379
0.180182
0.179407
0.178019
0.176002
0.17336
0.170114
0.166304
0.161981
0.157208
0.152056
0.1466
0.140924
0.135095
0.129123
0.123008
0.116691
0.201545
0.192051
0.18256
0.176015
0.172048
0.169942
0.16919
0.169418
0.170346
0.171754
0.173461
0.175309
0.177156
0.178878
0.180365
0.181522
0.182267
0.18253
0.182255
0.181396
0.179919
0.177804
0.175043
0.171639
0.167606
0.162969
0.157766
0.152056
0.14589
0.139298
0.132308
0.124976
0.117228
0.201622
0.191607
0.181606
0.174744
0.170632
0.168503
0.167805
0.168137
0.169201
0.170765
0.172641
0.174663
0.176686
0.178586
0.180257
0.181612
0.18258
0.183101
0.183129
0.182623
0.181548
0.179872
0.177563
0.174592
0.170933
0.166562
0.161476
0.155658
0.149008
0.141534
0.133383
0.124684
0.115298
0.201757
0.190866
0.180121
0.172841
0.168551
0.166392
0.165751
0.166185
0.167373
0.169071
0.171082
0.173238
0.175393
0.177427
0.17924
0.180752
0.181898
0.182625
0.182891
0.182656
0.18188
0.180522
0.178535
0.175864
0.172443
0.168209
0.163058
0.156837
0.149394
0.140778
0.13124
0.120961
0.109732
0.201951
0.189814
0.178067
0.170249
0.165734
0.163534
0.162948
0.16349
0.164811
0.166652
0.168807
0.171102
0.173389
0.175549
0.177487
0.17913
0.180423
0.181324
0.181796
0.181808
0.181322
0.180294
0.178667
0.176362
0.173286
0.169277
0.164043
0.157319
0.148978
0.139082
0.127926
0.11576
0.102328
0.202216
0.188386
0.175338
0.16686
0.162093
0.15986
0.159351
0.160021
0.161491
0.163487
0.165791
0.168226
0.170643
0.172927
0.174986
0.176754
0.178185
0.179242
0.179896
0.18012
0.17988
0.179131
0.177805
0.175814
0.172991
0.169019
0.163527
0.156208
0.146871
0.135515
0.122482
0.108152
0.0923025
0.202577
0.186447
0.171733
0.162481
0.157465
0.155244
0.154866
0.155716
0.157382
0.159573
0.162063
0.164671
0.167249
0.169683
0.171887
0.173802
0.175385
0.17661
0.177455
0.177898
0.17791
0.177451
0.176444
0.174764
0.172146
0.168231
0.162627
0.15491
0.144699
0.131822
0.11664
0.099618
0.0807861
0.203073
0.183788
0.166961
0.156828
0.151595
0.149453
0.149272
0.150356
0.152259
0.154673
0.15737
0.160165
0.162913
0.165503
0.167857
0.16992
0.171659
0.173055
0.174093
0.174758
0.175029
0.174863
0.174134
0.172674
0.170225
0.166452
0.160891
0.15296
0.142017
0.127729
0.110271
0.0899059
0.0678086
0.20376
0.180101
0.160627
0.149556
0.144212
0.142287
0.142432
0.143864
0.146103
0.148833
0.151818
0.154876
0.157863
0.160671
0.163225
0.165479
0.167406
0.168991
0.170229
0.171105
0.1716
0.17166
0.171167
0.169964
0.167829
0.164409
0.159175
0.151382
0.140105
0.124666
0.104613
0.0799297
0.0540613
0.204732
0.174904
0.152154
0.140133
0.134814
0.133233
0.13379
0.13562
0.138224
0.141281
0.144564
0.147893
0.151131
0.154176
0.156959
0.159439
0.161597
0.163425
0.16492
0.166044
0.166769
0.167061
0.166848
0.166012
0.164342
0.161486
0.156879
0.149688
0.138803
0.123205
0.101978
0.0747373
0.0464367
0.206114
0.167531
0.140921
0.128163
0.123202
0.122248
0.123437
0.12584
0.128954
0.132468
0.136162
0.139866
0.143446
0.146803
0.149875
0.152619
0.155018
0.157072
0.158777
0.160106
0.161046
0.161579
0.161658
0.161182
0.15997
0.157698
0.153835
0.147539
0.137603
0.122724
0.101685
0.0734026
0.0434161
0.2081
0.157028
0.126016
0.112771
0.108371
0.108105
0.109893
0.112796
0.116343
0.120256
0.124336
0.128426
0.1324
0.136158
0.139631
0.142749
0.145489
0.147857
0.149866
0.151525
0.152837
0.15379
0.154348
0.154427
0.153874
0.152418
0.1496
0.144679
0.136537
0.123723
0.104856
0.0807719
0.0574623
0.210842
0.14272
0.107514
0.0945705
0.0912579
0.0919641
0.0944915
0.097965
0.101993
0.10633
0.110803
0.115276
0.119632
0.123768
0.127602
0.131067
0.134151
0.13686
0.13921
0.141216
0.142884
0.144209
0.145166
0.145697
0.145691
0.14495
0.143147
0.139758
0.134024
0.125048
0.112178
0.0968161
0.0824516
0.214423
0.124539
0.0855314
0.0730525
0.0705032
0.0716776
0.0744526
0.0781038
0.0822959
0.0867932
0.0914491
0.0961676
0.100843
0.10536
0.109629
0.113601
0.117259
0.120598
0.123618
0.126317
0.128694
0.130737
0.132426
0.133716
0.134533
0.134749
0.134168
0.132502
0.129387
0.124494
0.117714
0.110061
0.103067
0.218284
0.105725
0.0644969
0.0528824
0.0507088
0.0515877
0.053776
0.0568158
0.0604149
0.0643674
0.0686033
0.0731107
0.0778169
0.0825736
0.0872391
0.0917308
0.0960062
0.100035
0.103791
0.107251
0.110397
0.113214
0.115682
0.117773
0.119444
0.120631
0.121239
0.121142
0.120192
0.11828
0.115367
0.111962
0.108719
0.221139
0.0930682
0.0496621
0.0372124
0.0339106
0.0334631
0.0343421
0.0361388
0.0385676
0.0414375
0.0447159
0.0484253
0.052503
0.0568047
0.0612075
0.0656586
0.0701326
0.0745857
0.0789487
0.083145
0.0871071
0.09078
0.0941177
0.0970806
0.0996331
0.101739
0.103358
0.104445
0.104958
0.104876
0.104194
0.103133
0.101912
0.223331
0.0844928
0.0382754
0.0244773
0.0201624
0.0187058
0.018332
0.0185982
0.0193803
0.0206213
0.0222854
0.0243272
0.0266756
0.0292685
0.0321006
0.0352143
0.0386419
0.0423611
0.0462933
0.0503282
0.0543513
0.0582596
0.0619665
0.0654031
0.0685176
0.0712728
0.0736411
0.075602
0.0771399
0.0782503
0.0789291
0.0792493
0.0792828
0.225641
0.0736158
0.0250841
0.011851
0.00822093
0.00711979
0.00666706
0.00643845
0.0064477
0.0067834
0.00746627
0.0084426
0.00964347
0.0110367
0.0126367
0.014478
0.016579
0.0189228
0.0214596
0.0241196
0.0268264
0.0295075
0.0320993
0.0345492
0.0368171
0.0388738
0.0406994
0.0422805
0.0436085
0.04468
0.0454923
0.0460619
0.0464078
0.226516
0.0690181
0.0206323
0.00784962
0.00440531
0.00331229
0.00281211
0.00249382
0.00228752
0.00219624
0.00223244
0.00241209
0.00275553
0.00328022
0.00399166
0.00488046
0.00592581
0.00710084
0.00837675
0.00972425
0.0111134
0.0125138
0.013895
0.0152286
0.0164899
0.0176584
0.0187181
0.0196565
0.0204647
0.0211366
0.0216687
0.0220617
0.0223218
0.223888
0.0800002
0.0312904
0.0167733
0.011975
0.00988294
0.0085859
0.00756421
0.00666832
0.00584991
0.00510327
0.00444067
0.00387197
0.00339429
0.00299693
0.00266877
0.00239947
0.00217948
0.00200085
0.0018578
0.00174616
0.00166251
0.00160368
0.00156668
0.00154885
0.00154804
0.00156259
0.00159127
0.00163318
0.00168746
0.0017538
0.00182881
0.00193003
0.21302
0.135829
0.0894181
0.064978
0.0514857
0.0432685
0.0377467
0.0337413
0.0306674
0.0282039
0.0261682
0.0244488
0.0229706
0.0216823
0.0205473
0.019538
0.0186331
0.017817
0.0170781
0.0164073
0.0157974
0.015242
0.014735
0.0142703
0.0138421
0.013445
0.0130746
0.0127279
0.0124029
0.0120986
0.0118132
0.0115492
0.011291
0.240246
0.000482714
0.036642
0.000173142
9.22471e-06
0.000992945
0.000732272
0.000269812
0.000302255
0.000289333
0.000418106
0.000738981
0.000879044
0.000702824
0.000502754
0.000477696
0.00053478
0.000577329
0.000604515
0.000632776
0.000661955
0.000688035
0.000710627
0.000730661
0.000748493
0.000764241
0.000778239
0.000790967
0.000802837
0.000814134
0.000825001
0.000835724
0.000845928
0.200085
0.199951
0.19977
0.199597
0.199435
0.19928
0.199128
0.198977
0.198824
0.198668
0.198507
0.198342
0.19817
0.197992
0.197808
0.197619
0.197424
0.197223
0.197018
0.196809
0.196596
0.19638
0.196162
0.195941
0.195719
0.195496
0.195273
0.19505
0.194828
0.194608
0.194388
0.194175
0.193951
0.199876
0.199565
0.199226
0.198874
0.198518
0.198163
0.197814
0.197473
0.197141
0.196819
0.196509
0.19621
0.195923
0.195647
0.195383
0.19513
0.194887
0.194654
0.194431
0.194216
0.19401
0.193811
0.193619
0.193433
0.193252
0.193077
0.192905
0.192738
0.192574
0.192413
0.192254
0.192096
0.19194
0.0698207
0.0872367
0.114807
0.132824
0.144721
0.150629
0.155339
0.144186
0.110263
0.0683866
0.0349335
0.0154587
0.00904862
0.0426916
0.0770303
0.0807692
0.0883713
0.110254
0.139591
0.172033
0.205673
0.237071
0.263642
0.283003
0.292355
0.289246
0.276969
0.257454
0.232486
0.204655
0.179968
0.157655
0.125288
0.0790219
0.034927
0.0122438
0.0158078
0.0356059
0.0589772
0.0783005
0.0910704
0.0976444
0.0994552
0.0979677
0.0942018
0.0886778
0.0816121
0.0732049
0.063869
0.054352
0.0456922
0.0390246
0.0353071
0.0350748
0.0383165
0.0445168
0.0528317
0.0623188
0.0721356
0.0816536
0.0904811
0.0984247
0.105429
0.111528
0.1168
0.12132
0.125034
0.127445
0.127032
0.121376
0.109922
0.0971976
0.0893745
0.0888691
0.0910169
0.0928528
0.100394
0.116863
0.134971
0.146903
0.150358
0.148258
0.144179
0.139831
0.135524
0.131327
0.127642
0.12516
0.124285
0.124498
0.124451
0.122821
0.119052
0.11351
0.106736
0.0993194
0.09059
0.0796643
0.0664579
0.0433702
0.173305
0.158757
0.14617
0.140581
0.138699
0.144697
0.141649
0.114644
0.0739821
0.037201
0.0143437
0.00470907
0.00307022
0.0192379
0.0632489
0.0826976
0.0880945
0.103523
0.128738
0.158098
0.189157
0.218629
0.243451
0.261199
0.269533
0.267356
0.256805
0.239279
0.215821
0.190451
0.169376
0.147762
0.112303
0.0649964
0.0255557
0.0108351
0.0209244
0.0437612
0.0674863
0.0857708
0.0969468
0.101851
0.102178
0.0994826
0.0947562
0.0884497
0.0807305
0.0717859
0.0620595
0.0523439
0.0437171
0.0373285
0.0341116
0.0345373
0.0385035
0.045398
0.0542963
0.0642064
0.0742717
0.0838787
0.0926694
0.100489
0.107315
0.113204
0.118252
0.122548
0.126069
0.128387
0.128051
0.122488
0.11063
0.0970435
0.0889015
0.0885754
0.0908522
0.0918029
0.0969777
0.112384
0.131393
0.144932
0.149464
0.147732
0.143751
0.139584
0.135598
0.131795
0.12851
0.126391
0.125814
0.126228
0.12622
0.124394
0.120156
0.113941
0.10651
0.0987578
0.0904739
0.0811844
0.0706973
0.0521092
0.109796
0.123378
0.132532
0.136615
0.138204
0.128729
0.10205
0.0657884
0.0327985
0.0113968
0.00232933
0.000484617
7.86034e-05
0.00538874
0.0421723
0.0772316
0.0889316
0.0989895
0.118381
0.143809
0.171588
0.198797
0.22189
0.238313
0.246041
0.245294
0.236169
0.219873
0.197874
0.176164
0.158939
0.13628
0.0968759
0.0500583
0.0174534
0.0116329
0.0278179
0.0528869
0.0762925
0.0930563
0.102347
0.105478
0.104359
0.100558
0.0949772
0.0879691
0.0796492
0.0702065
0.0601239
0.0502522
0.0417142
0.0356706
0.0330213
0.0341607
0.0388843
0.0464773
0.0559359
0.0662257
0.0764859
0.0861287
0.0948371
0.102499
0.109128
0.114803
0.119633
0.123721
0.12707
0.129318
0.129125
0.123905
0.112205
0.0983624
0.0902101
0.0899705
0.0922935
0.0926035
0.0953761
0.108756
0.127789
0.142675
0.148387
0.147134
0.143234
0.139173
0.135473
0.1321
0.1293
0.127638
0.127439
0.128127
0.128265
0.12641
0.121909
0.115185
0.107116
0.0988253
0.0903851
0.0818172
0.0725368
0.0586944
0.0222007
0.0331145
0.0459948
0.0559131
0.0570316
0.047354
0.0311076
0.015387
0.00466107
0.000467327
0.000603346
0.00214137
0.00196504
0.00258133
0.020753
0.0613222
0.0864807
0.0969565
0.110173
0.130171
0.153797
0.17801
0.199189
0.214428
0.221919
0.221995
0.21391
0.198717
0.179365
0.16289
0.148442
0.122114
0.0788254
0.0351437
0.011758
0.0152173
0.0365794
0.0628614
0.0851961
0.0999497
0.107115
0.108446
0.105983
0.101211
0.0948874
0.0872517
0.078376
0.0684686
0.0580682
0.0480897
0.0397044
0.0340787
0.0320667
0.033972
0.0394772
0.0477608
0.0577435
0.0683586
0.0787535
0.0883766
0.0969588
0.104434
0.110852
0.116312
0.120934
0.124828
0.128021
0.13021
0.130172
0.125363
0.114011
0.100087
0.0918658
0.0915651
0.0940626
0.0942947
0.0950104
0.105718
0.124081
0.140103
0.14708
0.14639
0.142545
0.138511
0.135053
0.13213
0.129879
0.128749
0.12899
0.130012
0.13039
0.128659
0.124091
0.117024
0.108348
0.0993585
0.0903589
0.081765
0.0725642
0.0607936
0.00165081
0.00268045
0.0038043
0.00526038
0.00532586
0.00290128
1.94593e-05
0.00171257
0.00100498
0.0018634
0.0032682
0.00423065
0.00449097
0.00145909
0.00647786
0.0387126
0.0751275
0.0943012
0.105209
0.119057
0.137259
0.157168
0.175773
0.189714
0.197029
0.197297
0.190186
0.176791
0.162212
0.151469
0.13652
0.103962
0.0586696
0.0217933
0.00957591
0.0218187
0.0470161
0.0733921
0.0939028
0.106216
0.11112
0.110728
0.107079
0.101487
0.0945206
0.0863128
0.0769127
0.0665677
0.0558876
0.0458598
0.0377
0.032572
0.0312694
0.0339899
0.0402925
0.0492475
0.0597072
0.0705849
0.0810497
0.0905968
0.0990114
0.106275
0.112471
0.117718
0.122142
0.125856
0.128904
0.131035
0.131141
0.126753
0.115846
0.101891
0.093295
0.0927145
0.0954274
0.0961154
0.0955463
0.103291
0.120353
0.137244
0.14553
0.145487
0.141695
0.137628
0.13437
0.131908
0.130256
0.129712
0.130426
0.131793
0.132431
0.1309
0.126416
0.119188
0.110021
0.100282
0.0905073
0.0814533
0.0720992
0.0608957
0.000334875
0.000220194
0.000527046
0.000177306
8.42363e-05
0.000259063
0.000678335
0.00136481
0.00246953
0.00361727
0.00456516
0.00512383
0.00564074
0.00404685
0.00105952
0.0170135
0.0534454
0.0846928
0.101232
0.112013
0.124302
0.138787
0.15327
0.165043
0.171733
0.172263
0.166412
0.156671
0.148713
0.141064
0.120469
0.0811593
0.0381297
0.0120252
0.0117768
0.0313841
0.058796
0.084112
0.102085
0.111638
0.114281
0.112336
0.107698
0.101428
0.0938977
0.0851543
0.0752511
0.0644958
0.0535811
0.0435704
0.0357201
0.0311769
0.0306565
0.0342352
0.0413398
0.0509338
0.0618114
0.0728809
0.0833474
0.0927632
0.100972
0.108005
0.113974
0.119012
0.123249
0.126798
0.129714
0.131791
0.132029
0.128062
0.117682
0.103795
0.0946874
0.0936166
0.0963017
0.0974691
0.0964691
0.101413
0.116674
0.134121
0.143714
0.144397
0.140666
0.136511
0.133407
0.131411
0.130411
0.130516
0.131739
0.133447
0.134323
0.133005
0.128706
0.121508
0.112048
0.101633
0.0909656
0.0811492
0.071386
0.0603894
0.00205643
0.00191657
0.00180151
0.00176332
0.00188044
0.00220827
0.00276557
0.00349203
0.00425717
0.00493869
0.00549035
0.00582279
0.00610267
0.00605618
0.00228792
0.00419165
0.02783
0.0634493
0.0910095
0.106446
0.116382
0.125807
0.135419
0.143687
0.148792
0.149426
0.146048
0.142184
0.139099
0.127634
0.0973595
0.0550072
0.0202522
0.00782774
0.0186759
0.0435231
0.0714331
0.0945708
0.109402
0.116044
0.116579
0.113328
0.107904
0.101071
0.0930267
0.083767
0.073378
0.0622446
0.0511508
0.0412362
0.0337888
0.0299225
0.0302559
0.034727
0.0426247
0.0528108
0.0640352
0.0752186
0.0856165
0.0948478
0.102819
0.109604
0.115344
0.120181
0.124245
0.127645
0.130441
0.13247
0.132831
0.129279
0.119467
0.105734
0.0961169
0.0944155
0.0968002
0.0981182
0.0970411
0.0997578
0.113068
0.130797
0.141635
0.143086
0.13942
0.135123
0.132125
0.1306
0.130312
0.131147
0.132931
0.134978
0.13605
0.134914
0.13085
0.123858
0.114371
0.103501
0.0919562
0.081133
0.0705883
0.0594427
0.00424121
0.0041983
0.00416728
0.00418821
0.00427192
0.00443852
0.00468085
0.00497573
0.00530699
0.00565438
0.00597195
0.006189
0.00621652
0.0065741
0.00519034
0.0015408
0.00878921
0.0349419
0.0679078
0.0934416
0.108817
0.118098
0.124839
0.1301
0.133507
0.13443
0.134365
0.134036
0.127516
0.104888
0.0670914
0.0296206
0.0086828
0.0103884
0.0299124
0.0575807
0.0843175
0.104263
0.115544
0.119348
0.118065
0.11379
0.107754
0.100434
0.0918994
0.0821329
0.0712779
0.0598087
0.0486049
0.0388784
0.0319371
0.0288427
0.0300955
0.0354818
0.0441486
0.0548646
0.0663533
0.0775664
0.0878242
0.0968202
0.104524
0.111051
0.116563
0.12121
0.125113
0.128377
0.131066
0.133052
0.133533
0.130376
0.121114
0.107525
0.0973396
0.0949161
0.0969198
0.0982161
0.0969574
0.0980322
0.109516
0.12731
0.139273
0.141492
0.137886
0.133394
0.130446
0.129398
0.129893
0.131558
0.133983
0.136388
0.137613
0.136591
0.132744
0.126078
0.116852
0.105893
0.093717
0.0818231
0.0701375
0.0582101
0.00491469
0.00502246
0.00511448
0.00518732
0.00525954
0.00536478
0.00555124
0.00586891
0.00632408
0.0068264
0.00718829
0.00725303
0.00692712
0.00665358
0.00659088
0.00393626
0.00183803
0.0117855
0.0365431
0.0660515
0.0902237
0.106226
0.115924
0.121775
0.125143
0.126803
0.126851
0.121335
0.102936
0.0706066
0.0352134
0.0110344
0.00610209
0.0195558
0.0445885
0.0727217
0.0967289
0.112676
0.120298
0.121568
0.118847
0.113811
0.107287
0.099516
0.090495
0.0802302
0.0689379
0.0571888
0.0459588
0.0365259
0.0302018
0.0279743
0.0302042
0.0365129
0.0459073
0.0570777
0.06874
0.0798949
0.0899415
0.0986533
0.106061
0.112317
0.117603
0.122067
0.125822
0.128962
0.131554
0.133504
0.134097
0.131294
0.122504
0.108971
0.0981272
0.0949254
0.0965986
0.09801
0.0966994
0.0965555
0.106203
0.123718
0.136604
0.139552
0.13599
0.13124
0.128284
0.127718
0.129079
0.131698
0.134868
0.137676
0.139022
0.13803
0.134319
0.127994
0.119245
0.108629
0.0963185
0.0836236
0.0706971
0.0571715
0.00620869
0.00639402
0.00657911
0.00679362
0.00710106
0.0075758
0.00827691
0.00919482
0.0101958
0.0110145
0.0113208
0.0108809
0.009742
0.00824803
0.00734081
0.00626282
0.00311709
0.00228264
0.0116856
0.0320635
0.0565509
0.0781325
0.0938041
0.103679
0.108795
0.109989
0.104738
0.0891029
0.0628474
0.0333785
0.0113485
0.00401562
0.0127949
0.0341036
0.0615524
0.0879526
0.107873
0.119388
0.123604
0.122827
0.119058
0.113463
0.106511
0.0982945
0.088786
0.0780389
0.0663512
0.0543932
0.043236
0.0342145
0.0286251
0.0273563
0.0306083
0.037829
0.0478919
0.0594278
0.0711684
0.0821828
0.0919577
0.100343
0.107424
0.11339
0.118436
0.12271
0.126316
0.129341
0.131843
0.13376
0.134442
0.131911
0.123476
0.109958
0.098508
0.0946007
0.0960177
0.097657
0.0964978
0.0954223
0.103155
0.119998
0.133574
0.137193
0.133639
0.128552
0.125514
0.125437
0.127767
0.131486
0.135534
0.138815
0.140278
0.139238
0.135537
0.129454
0.121235
0.111296
0.0994735
0.0866295
0.0728854
0.0572338
0.0129489
0.013398
0.013886
0.0144814
0.015264
0.0162877
0.0175268
0.0188322
0.0199225
0.02043
0.0199995
0.0184451
0.0159384
0.0128639
0.0100129
0.00814854
0.00611204
0.00297554
0.00220077
0.00850882
0.0221818
0.0391392
0.054696
0.0658533
0.0713175
0.0699942
0.0602175
0.0429317
0.0231886
0.00792246
0.00247105
0.0091249
0.0270152
0.0524535
0.0794773
0.102101
0.117002
0.124185
0.125582
0.123316
0.118817
0.112775
0.10541
0.0967379
0.0867462
0.0755453
0.0635184
0.0514381
0.0404681
0.0319871
0.027253
0.0270279
0.0313312
0.0394327
0.0500859
0.0618862
0.0736072
0.084405
0.0938604
0.101897
0.108646
0.114314
0.119097
0.123143
0.126564
0.129444
0.131835
0.133701
0.134428
0.132041
0.123806
0.110363
0.098603
0.0942444
0.09548
0.0972984
0.0963121
0.0944912
0.100275
0.116068
0.130089
0.134312
0.130727
0.125212
0.12201
0.122433
0.125848
0.130838
0.135915
0.139763
0.141363
0.140223
0.136409
0.13039
0.12256
0.113363
0.10248
0.0902883
0.076664
0.0592665
0.0302687
0.0309839
0.0316664
0.0323277
0.0330062
0.0337122
0.0343678
0.0347795
0.0346513
0.0336425
0.0315044
0.0282603
0.0241184
0.0195173
0.015003
0.0113186
0.00875649
0.00624677
0.00327008
0.00172654
0.00399173
0.0101888
0.0180687
0.0246417
0.027402
0.0247992
0.0178692
0.00933315
0.00277
0.00156255
0.00819205
0.0236688
0.046666
0.0728993
0.0966966
0.113944
0.123645
0.127154
0.126493
0.123224
0.118192
0.111737
0.103947
0.0948138
0.0843559
0.0727434
0.0604481
0.0483477
0.0376944
0.0298932
0.0261353
0.0270276
0.032391
0.0413194
0.0524656
0.0644187
0.076021
0.086532
0.095631
0.103311
0.109737
0.115121
0.119651
0.123462
0.126654
0.129308
0.131502
0.133235
0.133907
0.131505
0.12329
0.110039
0.0984255
0.0939766
0.0951294
0.097017
0.0960963
0.0936133
0.0974416
0.111794
0.125963
0.13072
0.127095
0.121091
0.117648
0.118588
0.123224
0.129675
0.135948
0.140461
0.142229
0.140959
0.136931
0.130784
0.123071
0.114365
0.104429
0.0933853
0.0808431
0.0632239
0.0545398
0.0544923
0.0543481
0.0540315
0.0535267
0.052801
0.0517492
0.0501704
0.0477848
0.0443234
0.039735
0.0342721
0.0283905
0.0227444
0.0177928
0.0137021
0.0106261
0.00837522
0.00616444
0.00364002
0.00155874
0.000864525
0.00155222
0.00266966
0.00308141
0.00244288
0.00133397
0.000952009
0.00321732
0.0104177
0.0243891
0.0451099
0.0696413
0.0931029
0.111299
0.122611
0.127812
0.128645
0.126632
0.122676
0.117187
0.110313
0.102084
0.0924976
0.0816037
0.0696344
0.0571559
0.0451546
0.0349628
0.0279889
0.0253242
0.0273911
0.033799
0.0434755
0.0549997
0.0669867
0.0783735
0.0885363
0.0972526
0.104576
0.110693
0.115814
0.120113
0.123706
0.126675
0.12909
0.131032
0.132511
0.132967
0.130413
0.122173
0.109257
0.098146
0.0938629
0.0950247
0.0969244
0.0959372
0.0927532
0.0945569
0.106994
0.120922
0.126141
0.122539
0.116047
0.112312
0.113788
0.119792
0.127917
0.135571
0.140858
0.142828
0.141406
0.137093
0.130669
0.122801
0.114179
0.10474
0.0946602
0.0834066
0.0671915
0.0786071
0.0766776
0.0746075
0.0722953
0.0696981
0.0667383
0.0632612
0.0590246
0.0537551
0.0473154
0.0399093
0.0321381
0.0249789
0.0193802
0.0156986
0.0135162
0.0120778
0.0108633
0.00956015
0.00790427
0.00589293
0.00387323
0.0022839
0.00140943
0.00139099
0.00228107
0.0043279
0.00854559
0.0165414
0.0298452
0.0486602
0.0708723
0.0925974
0.110171
0.121862
0.128011
0.129982
0.129101
0.126207
0.121705
0.115765
0.108456
0.0997908
0.0897738
0.0784849
0.0662251
0.0536646
0.0419003
0.0323308
0.026337
0.0248732
0.0281488
0.0355569
0.0458768
0.0576482
0.0695465
0.0806273
0.0903914
0.0987099
0.105685
0.111513
0.116393
0.12048
0.123874
0.126641
0.128838
0.130537
0.131753
0.131968
0.129271
0.121078
0.108512
0.0979428
0.0939034
0.0951693
0.0971319
0.0960075
0.0919638
0.0914855
0.101354
0.114513
0.120139
0.11673
0.109856
0.105829
0.107886
0.115434
0.125479
0.134727
0.140909
0.143113
0.141513
0.136858
0.130062
0.121858
0.112988
0.103504
0.0937551
0.0831488
0.068589
0.0958214
0.0917913
0.087519
0.0829529
0.0780455
0.0726635
0.0665773
0.0595181
0.0513331
0.0422208
0.0328631
0.0243931
0.0180789
0.0147321
0.0142787
0.0157742
0.0178307
0.0192762
0.0195918
0.0188399
0.0173663
0.0156251
0.0141398
0.0134545
0.014009
0.0162745
0.0210047
0.0292025
0.0416782
0.0582929
0.0773528
0.0959655
0.111353
0.122078
0.128247
0.130821
0.130804
0.128852
0.125291
0.120272
0.113873
0.106132
0.09705
0.086633
0.0749982
0.0625276
0.050006
0.0386384
0.029867
0.0250067
0.0248341
0.0293229
0.0376534
0.0484862
0.0603612
0.0720491
0.0827432
0.0920714
0.0999883
0.10663
0.112193
0.116855
0.12075
0.123962
0.126543
0.128541
0.130023
0.131004
0.131011
0.128232
0.120172
0.107956
0.097901
0.0941219
0.0955405
0.0976543
0.0964626
0.0914831
0.0882904
0.0944582
0.106044
0.112076
0.109188
0.102175
0.0979277
0.100641
0.109946
0.12221
0.133319
0.140562
0.143063
0.141285
0.136254
0.129037
0.12042
0.111147
0.101315
0.0913924
0.0808212
0.0669891
0.105502
0.0993807
0.0929206
0.0860982
0.0788469
0.0709974
0.0623222
0.0526802
0.042265
0.0318283
0.0226765
0.016349
0.0139221
0.015492
0.0201489
0.0263808
0.0325816
0.0374687
0.0403739
0.0413197
0.0408446
0.0397269
0.0387843
0.0387722
0.0403383
0.0442556
0.0511531
0.0613332
0.074377
0.0889517
0.103091
0.114959
0.12356
0.128882
0.131484
0.131975
0.130755
0.128016
0.123849
0.11832
0.111474
0.103322
0.0938487
0.0830671
0.0711447
0.0585614
0.0462251
0.0354381
0.0276529
0.0240718
0.025254
0.0309218
0.0400599
0.0512499
0.0630764
0.0744381
0.0846788
0.0935483
0.101071
0.107403
0.112725
0.117193
0.120916
0.123962
0.126374
0.128193
0.129478
0.130251
0.130085
0.127282
0.119436
0.107597
0.0980258
0.094511
0.0960787
0.0983763
0.0972548
0.0915322
0.0854498
0.0866467
0.095241
0.101247
0.0992564
0.0925406
0.0882896
0.0918029
0.103119
0.117945
0.13123
0.139746
0.142649
0.140724
0.135322
0.127687
0.118667
0.108996
0.0988007
0.088579
0.0779158
0.0642084
0.109742
0.101614
0.0930273
0.0839802
0.0744193
0.0642285
0.053344
0.0419837
0.0309109
0.0214874
0.0153658
0.0138234
0.0171447
0.0244851
0.0342369
0.0446102
0.0541082
0.0617471
0.0670844
0.0701759
0.0714966
0.0718057
0.0719804
0.0728655
0.0752376
0.0795743
0.0859844
0.0941825
0.103349
0.112345
0.120114
0.126034
0.129994
0.132186
0.132844
0.1321
0.13
0.126564
0.121823
0.115812
0.108548
0.100011
0.0901727
0.0790667
0.0669304
0.0543586
0.042385
0.032387
0.0257822
0.0236076
0.0261687
0.0329343
0.0427251
0.0540937
0.0657161
0.0766468
0.0863843
0.0947885
0.101935
0.107984
0.113094
0.117391
0.120962
0.123861
0.126123
0.127782
0.128895
0.129488
0.129182
0.126411
0.118862
0.107447
0.0983212
0.0950858
0.0967888
0.099254
0.098255
0.0920363
0.0835141
0.0796559
0.0837859
0.0881138
0.08657
0.0805625
0.0766335
0.0811187
0.0947008
0.112466
0.128316
0.138402
0.141886
0.139906
0.134178
0.126157
0.116778
0.106768
0.0962837
0.0858019
0.0750888
0.0613284
0.108528
0.0983063
0.087587
0.0764452
0.0649093
0.0530078
0.0409797
0.0295715
0.0201714
0.0145137
0.0139778
0.018888
0.0283457
0.040613
0.0537496
0.0661442
0.0767676
0.0851657
0.0913144
0.0954648
0.0980491
0.0996299
0.100838
0.102302
0.104535
0.107682
0.111693
0.116287
0.120979
0.12527
0.128801
0.131395
0.132997
0.133569
0.133053
0.131382
0.128514
0.124441
0.119178
0.112729
0.105078
0.0961795
0.0860024
0.0746232
0.0623714
0.0499709
0.0385731
0.0295938
0.0243583
0.0236834
0.0275944
0.0353214
0.0455688
0.0569187
0.068184
0.0785944