/*--------------------------------*- C++ -*----------------------------------*\
  =========                 |
  \\      /  F ield         | OpenFOAM: The Open Source CFD Toolbox
   \\    /   O peration     | Website:  https://openfoam.org
    \\  /    A nd           | Version:  10
     \\/     M anipulation  |
\*---------------------------------------------------------------------------*/
FoamFile
{
    format      ascii;
    class       volScalarField;
    location    "0.065";
    object      nut;
}
// * * * * * * * * * * * * * * * * * * * * * * * * * * * * * * * * * * * * * //

dimensions      [0 2 -1 0 0 0 0];

internalField   nonuniform List<scalar> 
6820
(
0
0
0
0
0
0
0
0
0
0
0
0
0
0
0
0
0
0
0
0
0
0
0
0
0
0
0
0
0
0
0
0
0
0
0
0
0
0
0
0
0
0
0
0
0
0
0
0
0
0
0
0
0
0
0
0
0
0
0
0
0
0
0
0
0
0
0
0
0
0
0
0
0
0
0
0
0
0
0
0
0
0
0
0
0
0
0
0
0
0
0
0
0
0
0
0
0
0
0
0
0
0
0
0
0
0
0
0
0
0
0
0
0
0
0
0
0
0
0
0
0
0
0
0
0
0
0
0
0
0
0
0
1.58358e-05
0
0
0
0
0
0
0
0
0
0
0
0
0
0
0
0
0
0
0
0
0
0
0
0
0
0
0
0
0
0
0
0
6.1512e-06
4.54369e-05
3.53288e-05
1.90805e-05
7.58217e-06
1.34459e-06
0
0
0
0
0
0
0
0
0
0
0
0
0
0
0
0
0
0
0
0
0
0
0
0
0
0
0
0
1.20123e-05
2.33881e-05
2.99858e-05
2.88876e-05
2.63992e-05
2.43071e-05
2.22956e-05
2.04071e-05
1.87884e-05
1.74599e-05
1.64109e-05
1.5632e-05
1.50871e-05
1.46794e-05
1.41925e-05
1.32311e-05
1.13589e-05
8.60749e-06
5.66219e-06
3.17065e-06
1.33302e-06
1.43889e-07
0
0
0
0
0
0
0
0
0
0
0
6.40787e-06
1.08955e-05
2.03347e-05
2.35993e-05
2.32679e-05
2.22872e-05
2.10198e-05
1.96912e-05
1.85065e-05
1.75117e-05
1.67208e-05
1.61682e-05
1.58914e-05
1.59085e-05
1.61509e-05
1.62463e-05
1.51561e-05
1.16915e-05
6.87999e-06
3.13846e-06
1.03028e-06
0
0
0
0
0
0
0
0
0
0
0
0
4.85513e-06
4.54189e-06
9.88297e-06
1.43162e-05
1.70684e-05
1.90059e-05
1.98206e-05
1.9792e-05
1.93958e-05
1.88634e-05
1.82942e-05
1.77482e-05
1.72346e-05
1.66777e-05
1.58605e-05
1.43721e-05
1.17746e-05
8.21675e-06
4.7034e-06
2.11946e-06
5.49069e-07
0
0
0
0
0
0
0
0
0
0
0
0
3.77009e-06
1.99152e-06
4.17863e-06
6.63306e-06
8.75864e-06
1.1372e-05
1.35333e-05
1.48285e-05
1.54955e-05
1.57525e-05
1.5721e-05
1.54722e-05
1.50044e-05
1.42213e-05
1.29383e-05
1.09636e-05
8.3118e-06
5.39208e-06
2.80832e-06
9.18607e-07
0
0
0
0
0
0
0
0
0
0
0
0
0
2.90766e-06
7.33929e-07
1.38741e-06
2.27903e-06
2.83384e-06
4.43254e-06
6.62353e-06
8.69225e-06
1.04103e-05
1.16814e-05
1.24497e-05
1.27091e-05
1.24473e-05
1.16171e-05
1.01703e-05
8.14434e-06
5.75392e-06
3.37187e-06
1.35207e-06
0
0
0
0
0
0
0
0
0
0
0
0
0
0
2.1933e-06
0
0
0
0
0
5.19495e-07
1.74044e-06
3.06133e-06
4.31953e-06
5.33038e-06
5.95985e-06
6.11663e-06
5.73745e-06
4.8125e-06
3.42921e-06
1.78973e-06
1.60909e-07
0
0
0
0
0
0
0
0
0
0
0
0
0
0
0
1.62654e-06
0
0
0
0
0
0
0
0
0
3.94656e-07
1.01686e-06
1.32055e-06
1.23328e-06
7.44775e-07
0
0
0
0
0
0
0
0
0
0
0
0
0
0
0
0
0
0
1.18046e-06
0
0
0
0
0
0
0
0
0
0
0
0
0
0
0
0
0
0
0
0
0
0
0
0
0
0
0
0
0
0
0
0
8.30366e-07
0
0
0
0
0
0
0
0
0
0
0
0
0
0
0
0
0
0
0
0
0
0
0
0
0
0
0
0
0
0
0
0
5.49223e-07
0
0
0
0
0
0
0
0
0
0
0
0
0
0
0
0
0
0
0
0
0
0
0
0
0
0
0
0
0
3.53824e-08
2.53689e-07
0
3.17592e-07
0
0
0
0
0
0
0
0
0
0
0
0
0
0
0
0
0
0
0
0
0
0
0
0
0
0
0
0
3.07007e-07
7.17551e-07
1.05094e-06
0
1.18913e-07
0
0
0
0
0
0
0
0
0
0
0
0
0
0
0
0
0
0
0
0
0
0
0
0
0
0
0
1.50854e-07
5.58848e-07
8.84884e-07
1.3704e-06
0
0
0
0
0
0
0
0
0
0
0
0
0
0
0
0
0
0
0
0
0
0
0
0
0
0
0
0
4.29682e-07
8.21751e-07
1.01987e-06
1.1942e-06
1.7375e-06
0
0
0
0
0
0
0
0
0
0
0
0
0
0
0
0
0
0
0
0
0
0
0
0
0
0
0
3.10047e-07
7.43435e-07
9.56875e-07
9.56962e-07
9.82111e-07
1.5984e-06
0
0
0
0
0
0
0
0
0
0
0
0
0
0
0
0
0
0
0
0
0
0
0
0
0
0
5.28297e-07
9.90242e-07
1.25514e-06
1.26695e-06
1.04568e-06
8.92383e-07
1.5007e-06
0
0
0
0
0
0
0
0
0
0
0
0
0
0
0
0
0
0
0
0
0
0
0
0
0
5.7531e-07
1.04506e-06
1.33901e-06
1.40748e-06
1.20178e-06
7.56042e-07
4.10406e-07
9.95546e-07
0
0
0
0
0
0
0
0
0
0
0
0
0
0
0
0
0
0
0
0
0
0
0
2.89599e-08
6.35249e-07
1.14126e-06
1.50114e-06
1.66126e-06
1.57481e-06
1.19943e-06
5.78288e-07
6.70828e-08
5.78054e-07
0
0
0
0
0
0
0
0
0
0
0
0
0
0
0
0
0
0
0
0
0
0
4.41726e-07
1.03154e-06
1.52961e-06
1.89589e-06
2.08249e-06
2.03503e-06
1.70981e-06
1.07902e-06
2.08303e-07
0
0
0
0
0
0
0
0
0
0
0
0
0
0
0
0
0
0
0
0
0
0
0
2.74284e-07
8.8937e-07
1.42927e-06
1.86244e-06
2.14884e-06
2.24073e-06
2.08461e-06
1.64032e-06
8.95062e-07
0
0
0
0
0
0
0
0
0
0
0
0
0
0
0
0
0
0
0
0
0
0
6.0163e-07
1.2786e-06
1.90403e-06
2.45999e-06
2.9219e-06
3.2567e-06
3.42009e-06
3.35436e-06
2.98507e-06
2.23197e-06
1.02266e-06
0
0
0
0
0
0
0
0
0
0
0
0
0
0
0
0
0
0
0
0
0
2.20016e-07
9.34206e-07
1.6064e-06
2.22319e-06
2.76796e-06
3.21858e-06
3.54594e-06
3.71114e-06
3.66238e-06
3.32848e-06
2.62099e-06
1.42886e-06
0
0
0
0
0
0
0
0
0
0
0
0
0
0
0
0
0
0
7.60825e-07
1.57168e-06
2.34809e-06
3.08603e-06
3.78143e-06
4.42882e-06
5.02103e-06
5.54891e-06
6.00023e-06
6.3593e-06
6.60636e-06
6.71822e-06
6.66999e-06
6.45348e-06
6.11891e-06
5.9941e-06
7.26753e-06
1.01971e-05
0
0
0
0
0
0
0
0
0
0
0
0
0
0
4.56035e-07
1.31914e-06
2.15149e-06
2.94867e-06
3.70819e-06
4.42791e-06
5.10482e-06
5.73531e-06
6.31526e-06
6.8399e-06
7.3042e-06
7.70346e-06
8.0353e-06
8.3017e-06
8.51944e-06
8.72181e-06
8.97984e-06
9.17001e-06
8.26555e-06
0
0
0
0
0
0
0
0
0
8.08129e-07
1.89591e-06
2.95405e-06
3.95683e-06
4.89007e-06
5.76255e-06
6.57724e-06
7.33731e-06
8.0488e-06
8.72004e-06
9.35974e-06
9.97565e-06
1.05758e-05
1.11696e-05
1.17682e-05
1.23868e-05
1.30452e-05
1.37683e-05
1.45804e-05
1.54903e-05
1.6444e-05
1.72505e-05
1.7292e-05
1.50635e-05
0
0
0
0
0
0
0
2.73093e-07
1.47339e-06
2.64679e-06
3.81012e-06
4.92495e-06
5.94816e-06
6.85445e-06
7.68803e-06
8.46349e-06
9.18426e-06
9.85741e-06
1.04942e-05
1.11068e-05
1.17031e-05
1.22899e-05
1.28726e-05
1.34559e-05
1.4043e-05
1.4634e-05
1.52223e-05
1.57873e-05
1.6289e-05
1.66565e-05
1.67644e-05
1.60316e-05
1.3318e-05
0
0
0
5.91762e-07
2.63125e-06
4.62076e-06
6.56901e-06
8.17672e-06
9.42598e-06
1.05859e-05
1.17234e-05
1.27657e-05
1.36542e-05
1.43734e-05
1.49784e-05
1.55083e-05
1.5985e-05
1.64208e-05
1.68306e-05
1.72342e-05
1.76475e-05
1.80806e-05
1.85399e-05
1.90298e-05
1.95508e-05
2.00962e-05
2.06482e-05
2.11717e-05
2.16131e-05
2.18992e-05
2.19046e-05
2.10516e-05
1.80416e-05
0
0
2.04852e-07
2.98109e-06
5.24332e-06
7.18331e-06
8.90738e-06
1.03117e-05
1.13937e-05
1.23345e-05
1.32088e-05
1.39618e-05
1.45902e-05
1.51239e-05
1.55518e-05
1.59004e-05
1.62294e-05
1.65544e-05
1.68615e-05
1.71535e-05
1.74509e-05
1.77523e-05
1.80465e-05
1.83243e-05
1.85768e-05
1.87938e-05
1.8963e-05
1.90702e-05
1.91025e-05
1.90481e-05
1.88504e-05
1.79691e-05
1.53236e-05
2.37726e-06
1.15944e-05
1.1468e-05
1.10706e-05
1.12122e-05
1.16106e-05
1.19922e-05
1.23654e-05
1.27624e-05
1.31955e-05
1.36669e-05
1.41386e-05
1.45995e-05
1.50488e-05
1.54399e-05
1.57632e-05
1.60602e-05
1.63376e-05
1.65598e-05
1.67268e-05
1.68838e-05
1.70426e-05
1.7192e-05
1.73273e-05
1.74471e-05
1.7549e-05
1.76288e-05
1.76802e-05
1.76959e-05
1.76669e-05
1.75441e-05
1.69188e-05
1.48731e-05
0
2.58502e-05
2.5126e-05
1.95205e-05
1.613e-05
1.4411e-05
1.32376e-05
1.22348e-05
1.1362e-05
1.06515e-05
1.01605e-05
9.91059e-06
9.86599e-06
9.9714e-06
1.01767e-05
1.04241e-05
1.06548e-05
1.08266e-05
1.0925e-05
1.09767e-05
1.1022e-05
1.10699e-05
1.11147e-05
1.11562e-05
1.11988e-05
1.12467e-05
1.13025e-05
1.13667e-05
1.14384e-05
1.15145e-05
1.15596e-05
1.12726e-05
1.00475e-05
3.66247e-05
6.56959e-05
4.66937e-05
3.08294e-05
2.0224e-05
1.25764e-05
6.93271e-06
2.79797e-06
0
0
0
0
0
0
0
0
0
0
0
0
0
0
0
0
0
0
0
0
0
0
0
0
0
0
0
0
0
0
0
0
0
0
0
0
0
0
0
0
0
0
0
0
0
0
0
0
0
0
0
0
0
0
0
0
0
0
4.07004e-08
0
0
0
0
0
0
0
0
0
0
0
0
0
0
0
0
0
0
0
0
0
0
0
0
0
0
0
0
0
0
0
0
2.20506e-08
0
0
0
0
0
0
0
0
0
0
0
0
0
0
0
0
0
0
0
0
0
0
0
0
0
0
0
0
0
0
0
0
1.05343e-08
0
0
0
0
0
0
0
0
0
0
0
0
0
0
0
0
0
0
0
0
0
0
0
0
0
0
0
0
0
0
0
0
0
0
0
0
5.90266e-06
1.71823e-05
1.93e-05
9.26537e-06
8.97393e-06
1.12409e-05
7.67122e-06
3.61279e-06
1.64907e-06
1.06765e-06
0
0
0
0
0
0
2.01224e-05
4.72008e-05
7.92007e-05
0.000126474
0.000217538
0.000427951
0
0
0
0
0
0
0
3.53619e-06
9.75589e-06
6.82785e-06
7.3442e-06
9.79547e-06
1.06895e-05
1.01639e-05
9.0367e-06
7.64142e-06
6.05026e-06
4.37353e-06
2.74542e-06
1.2621e-06
0
0
0
0
0
0
0
0
0
0
0
0
0
0
0
0
0
0
0
0
0
0
0
0
0
0
3.28691e-06
6.66912e-06
1.14143e-05
1.99141e-05
1.42748e-05
0
0
0
0
0
0
0
0
0
0
0
0
0
0
0
0
0
0
0
0
0
0
0
0
0
0
0
0
9.05435e-06
1.8621e-05
1.34797e-05
1.35042e-05
1.02191e-05
5.62257e-06
2.34717e-06
9.97514e-07
8.06026e-07
0
0
0
0
0
0
1.30818e-05
4.42963e-05
8.12078e-05
0.000133416
0.000231797
0.000482646
0
0
0
0
0
0
0
7.41118e-06
1.0163e-05
7.1648e-06
9.35001e-06
1.20664e-05
1.28642e-05
1.22765e-05
1.10573e-05
9.47654e-06
7.67137e-06
5.81007e-06
4.0348e-06
2.42687e-06
1.02682e-06
0
0
0
0
0
0
0
0
0
0
0
0
0
0
0
0
0
0
0
0
0
0
0
0
0
2.03676e-06
3.62223e-06
6.00634e-06
1.62957e-05
1.55736e-05
0
0
0
0
0
0
0
0
0
0
0
0
0
0
0
0
0
0
0
0
0
0
0
0
0
0
0
0
1.89271e-06
1.85093e-05
1.50427e-05
1.02642e-05
5.71391e-06
2.27977e-06
7.77746e-07
1.62918e-07
3.33586e-07
0
0
0
0
0
0
1.89992e-06
3.23821e-05
7.05993e-05
0.000122507
0.000212511
0.000391107
0
0
0
0
0
0
0
1.0225e-05
9.31504e-06
7.80256e-06
1.12927e-05
1.39538e-05
1.45922e-05
1.39544e-05
1.26513e-05
1.093e-05
8.99352e-06
7.03877e-06
5.19614e-06
3.52833e-06
2.06673e-06
8.36086e-07
0
0
0
0
0
0
0
0
0
0
0
0
0
0
0
0
0
0
0
0
0
0
0
0
8.01594e-07
4.91469e-07
0
1.03725e-05
1.49066e-05
0
0
0
0
0
0
0
0
0
0
0
0
0
0
0
0
0
0
0
0
0
0
0
0
0
0
0
0
1.93872e-07
8.45901e-06
6.45102e-06
3.57425e-06
1.09608e-06
1.09673e-06
1.55725e-06
8.33543e-07
2.17093e-07
0
0
0
0
0
0
0
1.46691e-05
4.86171e-05
9.24203e-05
0.000151787
0.000168185
0
0
0
0
0
0
3.16767e-06
1.11846e-05
8.10163e-06
9.16057e-06
1.32737e-05
1.5684e-05
1.61572e-05
1.54553e-05
1.40471e-05
1.22029e-05
1.01778e-05
8.17116e-06
6.29152e-06
4.58558e-06
3.07919e-06
1.79695e-06
7.59265e-07
0
0
0
0
0
0
0
0
0
0
0
0
0
0
0
0
0
0
0
0
0
0
0
0
0
0
2.97088e-06
1.25234e-05
8.9561e-08
0
0
0
0
0
0
0
0
0
0
0
0
0
0
0
0
0
0
0
0
0
0
0
0
0
0
0
4.97249e-07
1.41062e-07
1.76792e-06
1.50608e-06
2.04546e-06
2.3667e-06
2.05027e-06
1.27222e-06
1.79619e-07
0
0
0
0
0
0
0
0
2.07233e-05
4.89853e-05
7.14474e-05
4.16912e-05
0
0
0
0
0
0
8.45561e-06
1.02591e-05
7.54996e-06
1.11471e-05
1.5308e-05
1.73913e-05
1.77031e-05
1.68913e-05
1.5348e-05
1.33924e-05
1.13041e-05
9.26325e-06
7.35445e-06
5.61318e-06
4.06339e-06
2.73013e-06
1.63529e-06
7.85427e-07
1.58541e-07
0
0
0
0
0
0
0
0
0
0
0
0
0
0
0
0
0
0
0
0
0
0
0
0
0
8.36641e-06
1.49802e-06
0
0
0
0
0
0
0
0
0
0
0
0
0
0
0
0
0
0
0
0
0
0
0
0
0
0
0
1.89181e-07
7.25328e-07
1.45032e-06
2.24031e-06
2.70087e-06
2.65429e-06
2.14351e-06
1.38262e-06
2.96699e-07
0
0
0
0
0
0
0
0
0
1.32726e-05
2.03669e-05
7.71396e-06
0
0
0
0
0
1.78109e-06
1.06978e-05
8.22856e-06
8.49761e-06
1.34848e-05
1.73293e-05
1.90698e-05
1.9199e-05
1.82259e-05
1.65388e-05
1.44966e-05
1.23702e-05
1.03087e-05
8.37571e-06
6.60067e-06
5.00769e-06
3.62305e-06
2.47065e-06
1.56192e-06
8.84125e-07
3.91436e-07
6.92002e-09
0
0
0
0
0
0
0
0
0
0
0
0
0
0
0
0
0
0
0
0
0
0
0
2.36935e-06
1.92623e-06
0
0
0
0
0
0
0
0
0
0
0
0
0
0
0
0
0
0
0
0
0
0
0
0
0
0
2.22881e-08
6.94717e-07
1.49906e-06
2.28843e-06
2.84938e-06
3.04102e-06
2.80613e-06
2.17962e-06
1.34155e-06
3.11966e-07
0
0
0
0
0
0
0
0
0
0
1.60368e-06
1.44369e-06
8.42867e-08
1.26988e-06
5.02104e-07
0
0
8.10596e-06
9.54067e-06
6.83971e-06
1.07312e-05
1.5916e-05
1.92762e-05
2.0678e-05
2.05793e-05
1.9414e-05
1.76022e-05
1.55082e-05
1.33678e-05
1.12969e-05
9.34469e-06
7.5382e-06
5.90274e-06
4.46645e-06
3.25666e-06
2.29162e-06
1.56993e-06
1.0594e-06
6.9217e-07
3.81592e-07
5.80714e-08
0
0
0
0
0
0
0
0
0
0
0
0
0
0
0
0
0
0
0
0
0
0
1.09587e-06
0
0
0
0
0
0
0
0
0
0
0
0
0
0
0
0
0
0
0
0
0
0
0
0
0
0
2.61287e-07
1.1563e-06
2.02569e-06
2.71723e-06
3.10698e-06
3.13972e-06
2.79668e-06
2.11646e-06
1.22225e-06
2.34989e-07
0
0
0
0
0
0
0
0
0
0
0
4.54886e-07
3.28714e-06
3.79023e-06
0
0
4.66933e-06
9.45486e-06
6.73325e-06
7.90071e-06
1.35004e-05
1.82619e-05
2.11025e-05
2.21496e-05
2.17792e-05
2.04276e-05
1.8532e-05
1.64228e-05
1.42887e-05
1.22176e-05
1.02509e-05
8.41556e-06
6.73871e-06
5.25105e-06
3.98503e-06
2.96829e-06
2.21357e-06
1.70345e-06
1.37589e-06
1.13691e-06
9.04111e-07
6.33506e-07
3.13044e-07
0
0
0
0
0
0
0
0
0
0
0
0
0
0
0
0
0
0
0
0
0
0
0
0
0
0
0
0
0
0
0
0
0
0
0
0
0
0
0
0
0
0
0
0
0
0
0
5.42414e-07
1.43984e-06
2.27211e-06
2.91928e-06
3.28316e-06
3.29202e-06
2.89379e-06
2.12727e-06
1.13428e-06
1.14009e-07
0
0
0
0
0
0
0
0
0
0
0
0
1.32719e-06
4.53051e-07
0
2.87769e-06
8.06106e-06
6.72308e-06
5.71054e-06
1.0701e-05
1.62813e-05
2.04234e-05
2.27479e-05
2.34026e-05
2.2752e-05
2.12576e-05
1.9329e-05
1.72367e-05
1.51239e-05
1.30602e-05
1.10834e-05
9.22209e-06
7.50537e-06
5.96765e-06
4.64835e-06
3.58735e-06
2.81454e-06
2.3274e-06
2.06439e-06
1.91782e-06
1.78984e-06
1.62547e-06
1.40607e-06
1.13126e-06
8.03507e-07
4.21022e-07
0
0
0
0
0
0
0
0
0
0
0
0
0
0
0
0
0
0
0
0
0
0
0
0
0
0
0
0
0
0
0
0
0
0
0
0
0
0
0
0
0
0
0
0
9.19772e-07
1.89957e-06
2.83749e-06
3.59879e-06
4.02011e-06
3.96948e-06
3.39416e-06
2.38377e-06
1.15169e-06
0
0
0
0
0
0
0
0
0
0
0
0
0
0
0
2.43142e-06
6.18569e-06
5.76447e-06
4.1616e-06
8.11293e-06
1.38242e-05
1.88322e-05
2.23339e-05
2.4121e-05
2.43677e-05
2.34818e-05
2.1911e-05
1.9997e-05
1.7945e-05
1.58641e-05
1.38137e-05
1.18313e-05
9.94693e-06
8.19256e-06
6.60745e-06
5.24025e-06
4.14622e-06
3.37515e-06
2.93755e-06
2.76465e-06
2.72906e-06
2.71719e-06
2.66523e-06
2.54957e-06
2.36666e-06
2.11761e-06
1.80161e-06
1.41501e-06
9.51564e-07
4.0567e-07
0
0
0
0
0
0
0
0
0
0
0
0
0
0
0
0
0
0
0
0
0
0
0
0
0
0
0
0
0
0
0
0
0
0
0
0
0
0
0
0
4.51451e-07
1.72923e-06
3.01742e-06
4.1848e-06
5.03574e-06
5.37017e-06
5.07368e-06
4.15585e-06
2.77777e-06
1.20714e-06
0
0
0
0
0
0
0
0
0
0
0
0
0
0
1.5213e-06
3.9383e-06
3.85429e-06
2.77038e-06
6.10253e-06
1.14075e-05
1.67083e-05
2.10546e-05
2.38961e-05
2.51288e-05
2.50166e-05
2.3981e-05
2.24021e-05
2.05382e-05
1.85413e-05
1.64994e-05
1.44674e-05
1.24834e-05
1.05795e-05
8.79064e-06
7.16263e-06
5.75588e-06
4.64468e-06
3.90069e-06
3.54255e-06
3.48438e-06
3.57479e-06
3.68636e-06
3.74941e-06
3.73747e-06
3.64531e-06
3.47389e-06
3.22351e-06
2.89216e-06
2.47616e-06
1.9736e-06
1.38749e-06
7.25556e-07
8.80813e-10
0
0
0
0
0
0
0
0
0
0
0
0
0
0
0
0
0
0
0
0
0
0
0
0
0
0
0
0
0
0
0
0
0
0
0
0
0
1.34407e-06
3.03672e-06
4.61189e-06
5.88448e-06
6.64405e-06
6.71997e-06
6.05917e-06
4.74898e-06
3.01242e-06
1.14187e-06
0
0
0
0
0
0
0
0
0
0
0
0
0
0
1.50753e-06
1.62729e-06
1.72195e-06
4.82775e-06
9.3869e-06
1.44662e-05
1.92022e-05
2.28368e-05
2.4993e-05
2.5729e-05
2.53685e-05
2.42785e-05
2.27442e-05
2.09515e-05
1.90176e-05
1.70195e-05
1.50106e-05
1.30294e-05
1.11099e-05
9.29097e-06
7.62668e-06
6.19248e-06
5.08548e-06
4.39956e-06
4.15263e-06
4.23102e-06
4.45804e-06
4.69627e-06
4.87345e-06
4.96239e-06
4.95778e-06
4.86145e-06
4.6754e-06
4.39977e-06
4.03327e-06
3.57579e-06
3.03106e-06
2.40851e-06
1.72394e-06
9.98206e-07
2.72192e-07
0
0
0
2.17147e-07
0
0
0
0
0
0
0
0
0
0
0
0
0
0
0
0
0
0
0
0
0
0
0
0
0
0
0
0
0
0
5.79814e-07
2.52245e-06
4.3999e-06
6.0123e-06
7.1625e-06
7.66402e-06
7.39746e-06
6.37525e-06
4.75735e-06
2.8095e-06
8.39674e-07
0
0
0
0
0
0
0
0
0
0
0
0
0
1.14187e-07
5.24717e-07
1.68498e-06
4.15673e-06
7.84734e-06
1.23931e-05
1.70962e-05
2.11582e-05
2.40301e-05
2.55696e-05
2.59513e-05
2.54718e-05
2.44034e-05
2.29446e-05
2.12327e-05
1.93656e-05
1.74152e-05
1.54336e-05
1.34598e-05
1.15293e-05
9.68615e-06
7.99493e-06
6.55003e-06
5.47507e-06
4.88331e-06
4.77877e-06
5.01072e-06
5.37979e-06
5.7438e-06
6.03127e-06
6.21624e-06
6.2946e-06
6.2698e-06
6.14602e-06
5.92587e-06
5.61034e-06
5.20061e-06
4.70073e-06
4.12028e-06
3.47496e-06
2.78564e-06
2.09127e-06
1.48763e-06
1.16837e-06
1.3203e-06
1.41161e-06
0
0
0
0
0
0
0
0
0
0
0
0
0
0
0
0
0
0
0
0
0
0
0
0
0
0
0
0
0
0
1.65208e-06
3.66454e-06
5.47519e-06
6.89435e-06
7.74567e-06
7.88794e-06
7.26278e-06
5.94833e-06
4.16431e-06
2.21348e-06
4.04258e-07
0
0
0
0
0
0
0
0
0
0
0
0
0
2.1137e-07
1.43526e-06
3.49894e-06
6.57088e-06
1.05445e-05
1.49416e-05
1.90799e-05
2.23826e-05
2.45749e-05
2.5677e-05
2.58728e-05
2.53784e-05
2.43756e-05
2.30046e-05
2.13757e-05
1.95775e-05
1.76783e-05
1.57285e-05
1.37666e-05
1.18303e-05
9.97034e-06
8.26508e-06
6.83212e-06
5.82417e-06
5.36615e-06
5.43155e-06
5.82747e-06
6.33842e-06
6.82331e-06
7.21457e-06
7.4892e-06
7.64535e-06
7.68861e-06
7.6254e-06
7.46042e-06
7.19647e-06
6.83582e-06
6.38295e-06
5.84725e-06
5.24351e-06
4.59178e-06
3.92755e-06
3.33216e-06
2.96181e-06
2.93769e-06
2.66954e-06
0
0
0
0
0
0
0
0
0
0
0
0
0
0
0
0
0
0
0
0
0
0
0
0
0
0
0
0
0
8.12391e-07
2.7417e-06
4.5969e-06
6.1384e-06
7.20632e-06
7.65875e-06
7.40745e-06
6.46141e-06
4.9682e-06
3.19881e-06
1.46823e-06
1.01205e-08
0
0
0
0
0
0
0
0
0
0
0
0
0
3.52302e-07
2.39964e-06
5.18925e-06
8.72683e-06
1.2732e-05
1.67161e-05
2.01897e-05
2.28379e-05
2.4565e-05
2.5434e-05
2.55752e-05
2.51243e-05
2.42035e-05
2.29213e-05
2.13751e-05
1.96474e-05
1.78026e-05
1.58884e-05
1.39428e-05
1.20067e-05
1.01398e-05
8.43811e-06
7.047e-06
6.14813e-06
5.8638e-06
6.11968e-06
6.68222e-06
7.32925e-06
7.92644e-06
8.4128e-06
8.7697e-06
8.99832e-06
9.10664e-06
9.10299e-06
8.99358e-06
8.78222e-06
8.47176e-06
8.06674e-06
7.57613e-06
7.01411e-06
6.39963e-06
5.76382e-06
5.17368e-06
4.75104e-06
4.56041e-06
3.97101e-06
0
0
0
0
0
0
0
0
0
0
0
0
0
0
0
0
0
0
0
0
0
0
0
0
0
0
0
0
5.78085e-07
1.7593e-06
3.54178e-06
5.12585e-06
6.30452e-06
6.96055e-06
6.99804e-06
6.39162e-06
5.22514e-06
3.71339e-06
2.15771e-06
8.18653e-07
0
0
0
0
0
0
0
0
0
0
0
0
0
0
4.73882e-07
3.27651e-06
6.59311e-06
1.02815e-05
1.40441e-05
1.75322e-05
2.04646e-05
2.26893e-05
2.41736e-05
2.49577e-05
2.51138e-05
2.47265e-05
2.38878e-05
2.26918e-05
2.12277e-05
1.95718e-05
1.77837e-05
1.59081e-05
1.3983e-05
1.20542e-05
1.01938e-05
8.5195e-06
7.20867e-06
6.46658e-06
6.39164e-06
6.84844e-06
7.57195e-06
8.34398e-06
9.04181e-06
9.61304e-06
1.00444e-05
1.03405e-05
1.05116e-05
1.05674e-05
1.05146e-05
1.03576e-05
1.00991e-05
9.74324e-06
9.29844e-06
8.77813e-06
8.20013e-06
7.59171e-06
7.00701e-06
6.53681e-06
6.1965e-06
5.3282e-06
7.58899e-07
0
0
0
0
0
0
9.48986e-07
1.88292e-06
0
0
0
0
0
0
0
0
0
0
0
0
0
0
0
0
0
0
0
1.54956e-06
2.618e-06
4.14121e-06
5.36286e-06
6.12121e-06
6.3477e-06
6.00104e-06
5.12667e-06
3.8845e-06
2.53809e-06
1.35741e-06
4.00149e-07
0
0
0
0
0
0
0
0
0
0
0
0
0
0
6.16987e-07
3.87525e-06
7.38851e-06
1.09857e-05
1.44459e-05
1.75562e-05
2.01596e-05
2.21689e-05
2.35534e-05
2.43222e-05
2.45136e-05
2.41894e-05
2.34285e-05
2.23159e-05
2.09328e-05
1.93489e-05
1.76183e-05
1.57832e-05
1.3883e-05
1.19711e-05
1.01355e-05
8.52079e-06
7.33771e-06
6.80197e-06
6.96217e-06
7.6181e-06
8.48884e-06
9.37022e-06
1.01547e-05
1.07998e-05
1.12981e-05
1.16576e-05
1.18902e-05
1.20059e-05
1.20115e-05
1.19108e-05
1.17059e-05
1.14005e-05
1.1002e-05
1.05226e-05
9.97894e-06
9.39466e-06
8.81284e-06
8.29712e-06
7.81978e-06
6.7047e-06
1.91137e-06
0
0
0
0
0
0
2.5941e-06
5.18705e-06
2.77591e-06
0
0
0
0
0
0
0
0
0
0
0
0
0
0
0
0
0
0
2.09275e-06
3.04935e-06
4.28749e-06
5.13631e-06
5.49417e-06
5.35046e-06
4.72666e-06
3.74273e-06
2.6262e-06
1.6454e-06
8.88879e-07
5.96048e-08
0
0
0
0
0
0
0
0
0
0
0
0
0
0
7.31386e-07
4.1137e-06
7.59238e-06
1.10199e-05
1.4242e-05
1.71202e-05
1.9547e-05
2.14493e-05
2.2788e-05
2.3557e-05
2.37822e-05
2.35162e-05
2.28288e-05
2.17964e-05
2.0492e-05
1.89779e-05
1.73039e-05
1.55105e-05
1.3641e-05
1.17595e-05
9.97421e-06
8.46119e-06
7.46113e-06
7.17655e-06
7.58215e-06
8.42257e-06
9.41957e-06
1.0391e-05
1.12467e-05
1.19547e-05
1.25135e-05
1.29336e-05
1.32275e-05
1.34049e-05
1.34715e-05
1.34299e-05
1.32818e-05
1.30296e-05
1.26799e-05
1.22436e-05
1.17358e-05
1.11773e-05
1.06017e-05
1.00499e-05
9.45784e-06
8.14005e-06
3.20933e-06
0
0
0
0
0
0
4.19435e-06
8.18787e-06
6.09928e-06
2.80817e-06
0
0
0
0
0
0
0
0
0
0
0
0
0
0
0
0
0
2.53705e-06
3.31701e-06
4.21577e-06
4.67284e-06
4.65779e-06
4.22205e-06
3.45386e-06
2.54329e-06
1.74713e-06
1.18439e-06
5.88238e-07
0
0
0
0
0
0
0
0
0
0
0
0
0
0
0
8.28394e-07
4.13072e-06
7.46897e-06
1.07188e-05
1.37587e-05
1.6478e-05
1.87838e-05
2.06068e-05
2.1906e-05
2.26723e-05
2.29265e-05
2.27137e-05
2.2095e-05
2.11377e-05
1.99066e-05
1.84582e-05
1.68384e-05
1.50885e-05
1.32582e-05
1.14266e-05
9.72693e-06
8.36866e-06
7.61004e-06
7.60769e-06
8.24986e-06
9.2482e-06
1.03447e-05
1.13843e-05
1.22955e-05
1.30564e-05
1.36706e-05
1.415e-05
1.45064e-05
1.47479e-05
1.48782e-05
1.48986e-05
1.48094e-05
1.46122e-05
1.4312e-05
1.39184e-05
1.34446e-05
1.29084e-05
1.23357e-05
1.17483e-05
1.10515e-05
9.55544e-06
4.54045e-06
0
0
0
0
0
0
5.87481e-06
1.08539e-05
9.07035e-06
5.72684e-06
1.43799e-06
0
0
0
0
0
0
0
0
0
0
0
0
0
0
0
0
2.50481e-06
3.13399e-06
3.7282e-06
3.8642e-06
3.5883e-06
3.01553e-06
2.30372e-06
1.68897e-06
1.30424e-06
9.16135e-07
1.65241e-07
0
0
0
0
0
0
0
0
0
0
0
0
0
0
0
9.39353e-07
4.07441e-06
7.23036e-06
1.02961e-05
1.3164e-05
1.57346e-05
1.79227e-05
1.9664e-05
2.09199e-05
2.16792e-05
2.19573e-05
2.17914e-05
2.12338e-05
2.03433e-05
1.9178e-05
1.77891e-05
1.62211e-05
1.45184e-05
1.2741e-05
1.09874e-05
9.4203e-06
8.27896e-06
7.81393e-06
8.10216e-06
8.95273e-06
1.00731e-05
1.12384e-05
1.23235e-05
1.32749e-05
1.40804e-05
1.47471e-05
1.52866e-05
1.57087e-05
1.60184e-05
1.62173e-05
1.63048e-05
1.62803e-05
1.6144e-05
1.58995e-05
1.55549e-05
1.51215e-05
1.46146e-05
1.40538e-05
1.34464e-05
1.26742e-05
1.10508e-05
6.03611e-06
0
0
0
0
0
0
7.7868e-06
1.32504e-05
1.16906e-05
8.21712e-06
4.0756e-06
0
0
0
0
0
0
0
0
0
0
0
0
0
0
0
0
2.367e-06
2.81141e-06
3.1077e-06
2.97511e-06
2.54101e-06
1.98475e-06
1.51522e-06
1.2665e-06
1.04403e-06
5.22887e-07
0
0
0
0
0
0
0
0
0
0
0
0
0
0
0
0
1.06976e-06
4.00206e-06
6.95197e-06
9.81834e-06
1.25033e-05
1.49168e-05
1.69811e-05
1.86364e-05
1.98445e-05
2.05912e-05
2.08856e-05
2.07571e-05
2.02499e-05
1.94156e-05
1.83064e-05
1.69705e-05
1.5453e-05
1.38055e-05
1.21027e-05
1.04667e-05
9.09074e-06
8.23027e-06
8.09113e-06
8.65041e-06
9.66553e-06
1.08664e-05
1.20689e-05
1.31773e-05
1.41555e-05
1.49993e-05
1.57173e-05
1.6319e-05
1.68101e-05
1.71918e-05
1.74629e-05
1.76209e-05
1.76635e-05
1.75898e-05
1.74016e-05
1.71049e-05
1.67089e-05
1.6226e-05
1.56708e-05
1.50389e-05
1.41943e-05
1.24565e-05
7.46791e-06
0
0
0
0
0
0
9.90278e-06
1.53899e-05
1.3922e-05
1.02108e-05
6.06497e-06
0
0
0
0
0
0
0
0
0
0
0
0
0
0
0
0
1.83188e-06
2.14625e-06
2.25109e-06
2.00061e-06
1.59746e-06
1.26369e-06
1.11706e-06
1.00113e-06
6.47188e-07
0
0
0
0
0
0
0
0
0
0
0
0
0
0
0
0
0
1.21996e-06
3.92719e-06
6.65191e-06
9.30346e-06
1.17941e-05
1.40424e-05
1.59768e-05
1.75404e-05
1.86941e-05
1.94196e-05
1.97196e-05
1.9616e-05
1.9146e-05
1.83551e-05
1.72916e-05
1.60029e-05
1.45389e-05
1.2962e-05
1.13661e-05
9.89974e-06
8.78017e-06
8.25159e-06
8.43769e-06
9.2224e-06
1.03493e-05
1.1589e-05
1.27991e-05
1.39119e-05
1.49066e-05
1.57853e-05
1.6556e-05
1.72244e-05
1.77908e-05
1.82523e-05
1.86041e-05
1.8842e-05
1.89623e-05
1.89626e-05
1.8843e-05
1.86072e-05
1.82624e-05
1.78186e-05
1.72862e-05
1.66538e-05
1.57753e-05
1.39845e-05
9.10793e-06
0
0
0
0
0
0
1.22058e-05
1.7388e-05
1.58621e-05
1.18085e-05
7.41197e-06
1.97553e-06
0
0
0
0
0
0
0
0
0
0
0
0
0
0
0
1.25891e-06
1.45037e-06
1.43159e-06
1.17967e-06
9.46611e-07
8.6747e-07
8.15361e-07
5.77675e-07
3.38165e-08
0
0
0
0
0
0
0
0
0
0
0
0
0
0
0
0
0
1.37396e-06
3.8426e-06
6.33043e-06
8.75769e-06
1.10466e-05
1.31235e-05
1.4922e-05
1.63869e-05
1.74774e-05
1.81706e-05
1.8463e-05
1.83699e-05
1.79221e-05
1.7161e-05
1.61335e-05
1.48902e-05
1.34897e-05
1.20098e-05
1.05657e-05
9.32936e-06
8.52452e-06
8.34654e-06
8.81886e-06
9.76599e-06
1.09515e-05
1.21934e-05
1.33881e-05
1.44919e-05
1.54965e-05
1.64079e-05
1.72319e-05
1.79686e-05
1.86127e-05
1.91557e-05
1.95897e-05
1.99082e-05
2.01058e-05
2.01785e-05
2.01242e-05
1.99438e-05
1.96418e-05
1.92254e-05
1.87011e-05
1.80513e-05
1.71241e-05
1.52693e-05
1.04894e-05
0
0
0
0
0
3.2446e-06
1.45068e-05
1.92241e-05
1.75215e-05
1.30437e-05
8.16268e-06
3.27772e-06
0
0
0
0
0
0
0
0
0
0
0
0
0
0
0
4.05914e-07
6.31929e-07
6.84833e-07
5.97561e-07
5.5746e-07
5.21695e-07
3.48029e-07
0
0
0
0
0
0
0
0
0
0
0
0
0
0
0
0
0
0
0
1.533e-06
3.75354e-06
5.99613e-06
8.19177e-06
1.02721e-05
1.21706e-05
1.38255e-05
1.51824e-05
1.61985e-05
1.68462e-05
1.71158e-05
1.70165e-05
1.6575e-05
1.5831e-05
1.48342e-05
1.36425e-05
1.23271e-05
1.0983e-05
9.7449e-06
8.79572e-06
8.33546e-06
8.47986e-06
9.16764e-06
1.02089e-05
1.14075e-05
1.26268e-05
1.37946e-05
1.48858e-05
1.5901e-05
1.68477e-05
1.77292e-05
1.85401e-05
1.92691e-05
1.99031e-05
2.04307e-05
2.08429e-05
2.11327e-05
2.12942e-05
2.13229e-05
2.12172e-05
2.09784e-05
2.06109e-05
2.01184e-05
1.94806e-05
1.85464e-05
1.66928e-05
1.20955e-05
2.03664e-06
0
0
0
0
6.58528e-06
1.67558e-05
2.09532e-05
1.90159e-05
1.41015e-05
8.63168e-06
3.43092e-06
0
0
0
0
0
0
0
0
0
0
0
0
0
0
0
0
5.41155e-08
1.95075e-07
2.01863e-07
1.51551e-07
4.86304e-09
0
0
0
0
0
0
0
0
0
0
0
0
0
0
0
0
0
0
0
0
1.66964e-06
3.64009e-06
5.63525e-06
7.59654e-06
9.46461e-06
1.11799e-05
1.26842e-05
1.39241e-05
1.4854e-05
1.54417e-05
1.56718e-05
1.55494e-05
1.50998e-05
1.43655e-05
1.3403e-05
1.22813e-05
1.10858e-05
9.92646e-06
8.94724e-06
8.31821e-06
8.18361e-06
8.57634e-06
9.39274e-06
1.04659e-05
1.16462e-05
1.28339e-05
1.39778e-05
1.50625e-05
1.60919e-05
1.70734e-05
1.80076e-05
1.88852e-05
1.96902e-05
2.04054e-05
2.1016e-05
2.15103e-05
2.18793e-05
2.21148e-05
2.22094e-05
2.21579e-05
2.19577e-05
2.16092e-05
2.11123e-05
2.04428e-05
1.94506e-05
1.7543e-05
1.30709e-05
3.78591e-06
0
0
0
0
9.67616e-06
1.8877e-05
2.24889e-05
2.02709e-05
1.49573e-05
8.85454e-06
3.29417e-06
0
0
0
0
0
0
0
0
0
0
0
0
0
0
0
0
0
0
0
0
0
0
0
0
0
0
0
0
0
0
0
0
0
0
0
0
0
0
0
0
1.51614e-07
1.79558e-06
3.51278e-06
5.25743e-06
6.98052e-06
8.63096e-06
1.01554e-05
1.14993e-05
1.26095e-05
1.34381e-05
1.39484e-05
1.41215e-05
1.39612e-05
1.34953e-05
1.27735e-05
1.18626e-05
1.08437e-05
9.81349e-06
8.88751e-06
8.19913e-06
7.8774e-06
7.99687e-06
8.53636e-06
9.39628e-06
1.04541e-05
1.16044e-05
1.27727e-05
1.39164e-05
1.50194e-05
1.60823e-05
1.7111e-05
1.81052e-05
1.90551e-05
1.99432e-05
2.07494e-05
2.14558e-05
2.2048e-05
2.25142e-05
2.28437e-05
2.3026e-05
2.30518e-05
2.29145e-05
2.26105e-05
2.21372e-05
2.14707e-05
2.0472e-05
1.85978e-05
1.43904e-05
5.98419e-06
0
0
0
2.95603e-06
1.3077e-05
2.10717e-05
2.37513e-05
2.11033e-05
1.55035e-05
9.07794e-06
2.51257e-06
0
0
0
0
0
0
0
0
0
0
0
0
0
0
0
6.94017e-07
1.13407e-07
0
0
0
0
0
0
0
0
0
0
0
0
0
0
0
0
0
0
0
0
0
0
0
4.57016e-07
1.86066e-06
3.32994e-06
4.82768e-06
6.31376e-06
7.74483e-06
9.07342e-06
1.02484e-05
1.12172e-05
1.19303e-05
1.23485e-05
1.24523e-05
1.22481e-05
1.17709e-05
1.10804e-05
1.02541e-05
9.38156e-06
8.56146e-06
7.89816e-06
7.49134e-06
7.41292e-06
7.68266e-06
8.26688e-06
9.1016e-06
1.01157e-05
1.12403e-05
1.24142e-05
1.3589e-05
1.47355e-05
1.5844e-05
1.69166e-05
1.79559e-05
1.89561e-05
1.99021e-05
2.07736e-05
2.15503e-05
2.22145e-05
2.27511e-05
2.31453e-05
2.33826e-05
2.34486e-05
2.3331e-05
2.3021e-05
2.25123e-05
2.17828e-05
2.07092e-05
1.88141e-05
1.48667e-05
7.46955e-06
0
0
0
8.26354e-06
1.70738e-05
2.29742e-05
2.39203e-05
2.05366e-05
1.48873e-05
8.52711e-06
1.80456e-06
0
0
0
0
0
0
0
0
0
0
0
0
0
7.09895e-07
4.83958e-07
7.98626e-06
3.5678e-06
1.53583e-06
5.16915e-07
0
0
0
0
0
0
0
0
0
0
0
0
0
0
0
0
0
0
0
0
0
7.43304e-07
1.90402e-06
3.12332e-06
4.37149e-06
5.61585e-06
6.81961e-06
7.94067e-06
8.93174e-06
9.74228e-06
1.03237e-05
1.06381e-05
1.06689e-05
1.04288e-05
9.96167e-06
9.33626e-06
8.63632e-06
7.95068e-06
7.36559e-06
6.95626e-06
6.77611e-06
6.84808e-06
7.16817e-06
7.72103e-06
8.4909e-06
9.45706e-06
1.0581e-05
1.18046e-05
1.30632e-05
1.43046e-05
1.55027e-05
1.66547e-05
1.77684e-05
1.88472e-05
1.98833e-05
2.08586e-05
2.1751e-05
2.25385e-05
2.32008e-05
2.37179e-05
2.40694e-05
2.42351e-05
2.41973e-05
2.39433e-05
2.34686e-05
2.27666e-05
2.17625e-05
2.01023e-05
1.68416e-05
1.1023e-05
4.91603e-06
3.82979e-06
8.52063e-06
1.55e-05
2.12424e-05
2.3435e-05
2.16844e-05
1.72881e-05
1.1786e-05
5.99254e-06
1.0085e-06
0
0
0
0
0
0
0
0
0
0
0
0
0
2.8503e-06
2.57362e-06
6.97824e-06
4.03613e-06
2.25475e-06
1.18053e-06
5.3131e-07
1.31565e-07
0
0
0
0
0
0
0
0
0
0
0
0
0
0
0
0
0
0
2.576e-08
8.90862e-07
1.82518e-06
2.80838e-06
3.81691e-06
4.82439e-06
5.80032e-06
6.7089e-06
7.50881e-06
8.15487e-06
8.60322e-06
8.82052e-06
8.7955e-06
8.54764e-06
8.12757e-06
7.60816e-06
7.0705e-06
6.59068e-06
6.22981e-06
6.02675e-06
5.99618e-06
6.13531e-06
6.44003e-06
6.92223e-06
7.61052e-06
8.52751e-06
9.65824e-06
1.09423e-05
1.22935e-05
1.36337e-05
1.49174e-05
1.61367e-05
1.73061e-05
1.84426e-05
1.95496e-05
2.06143e-05
2.16123e-05
2.25144e-05
2.32899e-05
2.39067e-05
2.43314e-05
2.45307e-05
2.44749e-05
2.41428e-05
2.35306e-05
2.2657e-05
2.15359e-05
2.00557e-05
1.78097e-05
1.46061e-05
1.23883e-05
1.37437e-05
1.75501e-05
2.0977e-05
2.20956e-05
2.03686e-05
1.65125e-05
1.17335e-05
7.03485e-06
3.10533e-06
5.6129e-07
0
0
0
0
0
0
0
0
0
0
0
0
0
5.02097e-06
4.71556e-06
1.24096e-05
8.72876e-06
6.2182e-06
4.39508e-06
3.13538e-06
2.29777e-06
1.72209e-06
1.28967e-06
9.26705e-07
5.8941e-07
2.54562e-07
0
0
0
0
0
0
0
0
0
0
0
0
0
3.82919e-07
1.02876e-06
1.73049e-06
2.47135e-06
3.23274e-06
3.9939e-06
4.73093e-06
5.41583e-06
6.01589e-06
6.49464e-06
6.81603e-06
6.95303e-06
6.89922e-06
6.6778e-06
6.34069e-06
5.95664e-06
5.59401e-06
5.30672e-06
5.12751e-06
5.06717e-06
5.12089e-06
5.27964e-06
5.54675e-06
5.95506e-06
6.56631e-06
7.43889e-06
8.57947e-06
9.92714e-06
1.13775e-05
1.28278e-05
1.4213e-05
1.55166e-05
1.67582e-05
1.79678e-05
1.91628e-05
2.03376e-05
2.1466e-05
2.2509e-05
2.34208e-05
2.41507e-05
2.46452e-05
2.48523e-05
2.47302e-05
2.42583e-05
2.34522e-05
2.23837e-05
2.11916e-05
2.00575e-05
1.91106e-05
1.84205e-05
1.8336e-05
1.91284e-05
2.01631e-05
2.03912e-05
1.91029e-05
1.6259e-05
1.24182e-05
8.38877e-06
4.87205e-06
2.18544e-06
2.70445e-07
0
0
0
0
0
0
0
0
0
0
0
0
0
7.02428e-06
6.6599e-06
1.1258e-05
8.21436e-06
6.44805e-06
5.14661e-06
4.13343e-06
3.37593e-06
2.80262e-06
2.34138e-06
1.94033e-06
1.56541e-06
1.19678e-06
8.27094e-07
4.61181e-07
1.07061e-07
0
0
0
0
0
0
0
0
0
3.13844e-08
4.46659e-07
9.14594e-07
1.42259e-06
1.95684e-06
2.50297e-06
3.04575e-06
3.56865e-06
4.05287e-06
4.47626e-06
4.8131e-06
5.03654e-06
5.12566e-06
5.07693e-06
4.91355e-06
4.68297e-06
4.44174e-06
4.23759e-06
4.09981e-06
4.0398e-06
4.05497e-06
4.13652e-06
4.27735e-06
4.48429e-06
4.79604e-06
5.28751e-06
6.03808e-06
7.07212e-06
8.33648e-06
9.72229e-06