/*--------------------------------*- C++ -*----------------------------------*\
  =========                 |
  \\      /  F ield         | OpenFOAM: The Open Source CFD Toolbox
   \\    /   O peration     | Website:  https://openfoam.org
    \\  /    A nd           | Version:  10
     \\/     M anipulation  |
\*---------------------------------------------------------------------------*/
FoamFile
{
    format      ascii;
    class       volScalarField;
    location    "0.065";
    object      p;
}
// * * * * * * * * * * * * * * * * * * * * * * * * * * * * * * * * * * * * * //

dimensions      [0 2 -2 0 0 0 0];

internalField   nonuniform List<scalar> 
6820
(
-10.6184
-10.9214
-10.9692
-10.9874
-11.0224
-11.0508
-11.0729
-11.0931
-11.1118
-11.1289
-11.1448
-11.1595
-11.1732
-11.1858
-11.1972
-11.2071
-11.2154
-11.2216
-11.2252
-11.2256
-11.222
-11.2133
-11.1983
-11.1752
-11.1423
-11.0972
-11.0372
-10.9601
-10.8632
-10.7468
-10.6139
-10.4655
-10.3725
-10.8195
-10.9452
-10.9834
-11.0015
-11.0309
-11.0563
-11.0769
-11.0961
-11.1142
-11.131
-11.1468
-11.1615
-11.1754
-11.1882
-11.1999
-11.2103
-11.2192
-11.2263
-11.2311
-11.233
-11.2314
-11.2253
-11.2138
-11.1954
-11.1686
-11.1316
-11.0823
-11.0189
-10.9396
-10.8457
-10.7373
-10.6393
-10.5588
-10.8193
-10.9054
-10.9656
-10.9948
-11.0263
-11.0544
-11.0773
-11.098
-11.1173
-11.1351
-11.1516
-11.1672
-11.1817
-11.1953
-11.2079
-11.2193
-11.2295
-11.2381
-11.245
-11.2497
-11.2519
-11.251
-11.2467
-11.2382
-11.2254
-11.2079
-11.1861
-11.1616
-11.1376
-11.1213
-11.1275
-11.1834
-11.3601
-10.876
-10.9465
-10.9962
-11.019
-11.0439
-11.068
-11.0883
-11.1069
-11.1246
-11.1412
-11.1569
-11.1718
-11.186
-11.1994
-11.2119
-11.2236
-11.2342
-11.2436
-11.2516
-11.258
-11.2625
-11.265
-11.2652
-11.2632
-11.2591
-11.254
-11.2495
-11.2491
-11.2592
-11.2907
-11.3641
-11.511
-11.7997
-10.9057
-10.9452
-10.986
-11.0116
-11.0378
-11.0631
-11.085
-11.105
-11.1238
-11.1415
-11.1582
-11.174
-11.189
-11.2033
-11.2168
-11.2296
-11.2415
-11.2525
-11.2625
-11.2714
-11.2793
-11.2861
-11.2921
-11.2977
-11.304
-11.3125
-11.3262
-11.3498
-11.3914
-11.4631
-11.5859
-11.788
-12.1243
-10.9353
-10.9667
-11.0058
-11.0317
-11.0553
-11.0781
-11.0982
-11.1167
-11.1342
-11.1509
-11.1667
-11.1819
-11.1966
-11.2107
-11.2242
-11.2373
-11.2498
-11.2617
-11.2731
-11.284
-11.2946
-11.3052
-11.3162
-11.3286
-11.3438
-11.3641
-11.393
-11.4361
-11.5019
-11.6025
-11.7574
-11.9897
-12.3408
-10.9599
-10.9805
-11.0108
-11.0335
-11.0549
-11.0766
-11.0966
-11.1154
-11.1333
-11.1505
-11.167
-11.1829
-11.1984
-11.2133
-11.2279
-11.242
-11.2559
-11.2695
-11.283
-11.2966
-11.3105
-11.3254
-11.3418
-11.3612
-11.3852
-11.4165
-11.4591
-11.5186
-11.6034
-11.7245
-11.8978
-12.1411
-12.4827
-10.9816
-10.9969
-11.0236
-11.0464
-11.0674
-11.0884
-11.1078
-11.1259
-11.1433
-11.16
-11.176
-11.1917
-11.2069
-11.2219
-11.2366
-11.2512
-11.2658
-11.2804
-11.2954
-11.311
-11.3276
-11.346
-11.367
-11.3921
-11.4233
-11.4634
-11.5163
-11.5876
-11.6845
-11.8163
-11.9956
-12.2346
-12.5512
-11.0011
-11.0122
-11.034
-11.054
-11.0727
-11.0917
-11.1101
-11.1276
-11.1447
-11.1613
-11.1776
-11.1935
-11.2092
-11.2248
-11.2403
-11.2559
-11.2717
-11.2879
-11.3048
-11.3227
-11.3423
-11.3643
-11.3897
-11.4201
-11.4576
-11.5048
-11.5657
-11.6449
-11.7486
-11.8842
-12.0605
-12.2854
-12.5688
-11.0187
-11.0272
-11.0456
-11.0643
-11.0823
-11.1007
-11.1187
-11.136
-11.1529
-11.1694
-11.1855
-11.2015
-11.2173
-11.233
-11.2489
-11.265
-11.2816
-11.2988
-11.3171
-11.3368
-11.3587
-11.3835
-11.4123
-11.4467
-11.4886
-11.5407
-11.6063
-11.6893
-11.7946
-11.9275
-12.0939
-12.2981
-12.5442
-11.0348
-11.0414
-11.0569
-11.0736
-11.09
-11.1069
-11.1237
-11.1403
-11.1565
-11.1727
-11.1887
-11.2047
-11.2207
-11.2368
-11.2533
-11.2701
-11.2876
-11.3061
-11.3259
-11.3474
-11.3714
-11.3987
-11.4305
-11.468
-11.5133
-11.5685
-11.6363
-11.72
-11.8232
-11.9492
-12.1016
-12.2818
-12.4905
-11.0497
-11.0551
-11.0682
-11.0833
-11.0987
-11.1148
-11.1311
-11.1474
-11.1635
-11.1795
-11.1955
-11.2116
-11.2278
-11.2442
-11.261
-11.2784
-11.2966
-11.316
-11.3368
-11.3597
-11.3853
-11.4144
-11.448
-11.4874
-11.5343
-11.5906
-11.6583
-11.7397
-11.8374
-11.9533
-12.0889
-12.2439
-12.4166
-11.0636
-11.068
-11.0793
-11.0928
-11.107
-11.122
-11.1374
-11.1529
-11.1685
-11.1841
-11.1999
-11.2158
-11.232
-11.2486
-11.2658
-11.2836
-11.3025
-11.3226
-11.3444
-11.3684
-11.3952
-11.4256
-11.4604
-11.5009
-11.5483
-11.6041
-11.6698
-11.7471
-11.8374
-11.9414
-12.0593
-12.1898
-12.3297
-11.0765
-11.0803
-11.09
-11.1023
-11.1155
-11.1296
-11.1444
-11.1595
-11.1747
-11.1902
-11.2059
-11.2219
-11.2382
-11.255
-11.2725
-11.2907
-11.31
-11.3307
-11.3532
-11.3779
-11.4053
-11.4363
-11.4715
-11.5119
-11.5585
-11.6124
-11.6747
-11.7462
-11.8275
-11.9187
-12.0189
-12.1263
-12.237
-11.0887
-11.0919
-11.1005
-11.1116
-11.1238
-11.1371
-11.1511
-11.1655
-11.1803
-11.1954
-11.2108
-11.2266
-11.2428
-11.2596
-11.2772
-11.2956
-11.3152
-11.3362
-11.359
-11.3841
-11.4118
-11.4428
-11.4777
-11.5173
-11.5623
-11.6133
-11.671
-11.7358
-11.8077
-11.8861
-11.9696
-12.0561
-12.1418
-11.1001
-11.1029
-11.1105
-11.1206
-11.132
-11.1445
-11.1578
-11.1718
-11.1862
-11.201
-11.2163
-11.2319
-11.2482
-11.265
-11.2826
-11.3012
-11.321
-11.3421
-11.365
-11.3901
-11.4176
-11.4481
-11.4822
-11.5202
-11.5627
-11.61
-11.6625
-11.72
-11.7823
-11.8483
-11.9164
-11.9845
-12.0491
-11.1109
-11.1134
-11.1201
-11.1294
-11.1399
-11.1517
-11.1644
-11.1778
-11.1918
-11.2062
-11.2211
-11.2366
-11.2526
-11.2693
-11.2868
-11.3053
-11.325
-11.346
-11.3687
-11.3934
-11.4203
-11.4499
-11.4825
-11.5184
-11.5579
-11.6011
-11.648
-11.6982
-11.7512
-11.8057
-11.8603
-11.9127
-11.9599
-11.121
-11.1232
-11.1293
-11.1378
-11.1477
-11.1588
-11.1709
-11.1838
-11.1973
-11.2114
-11.226
-11.2413
-11.2571
-11.2736
-11.291
-11.3093
-11.3287
-11.3495
-11.3718
-11.3958
-11.4219
-11.4502
-11.4809
-11.5143
-11.5504
-11.5892
-11.6304
-11.6735
-11.7178
-11.7621
-11.8048
-11.8441
-11.8773
-11.1305
-11.1325
-11.1381
-11.1459
-11.1551
-11.1656
-11.1772
-11.1896
-11.2026
-11.2163
-11.2306
-11.2454
-11.261
-11.2772
-11.2943
-11.3122
-11.3312
-11.3514
-11.373
-11.3962
-11.421
-11.4477
-11.4763
-11.5069
-11.5394
-11.5737
-11.6094
-11.6458
-11.6822
-11.7175
-11.7502
-11.7788
-11.801
-11.1394
-11.1412
-11.1464
-11.1536
-11.1623
-11.1722
-11.1832
-11.1951
-11.2077
-11.221
-11.2349
-11.2494
-11.2646
-11.2804
-11.2971
-11.3146
-11.3331
-11.3526
-11.3733
-11.3954
-11.4188
-11.4436
-11.47
-11.4977
-11.5266
-11.5565
-11.587
-11.6173
-11.6467
-11.6743
-11.6987
-11.7187
-11.7325
-11.1477
-11.1494
-11.1541
-11.1609
-11.169
-11.1785
-11.189
-11.2003
-11.2125
-11.2253
-11.2388
-11.2529
-11.2676
-11.2831
-11.2992
-11.3161
-11.3339
-11.3526
-11.3723
-11.393
-11.4148
-11.4377
-11.4616
-11.4864
-11.5118
-11.5376
-11.5632
-11.5881
-11.6115
-11.6326
-11.6503
-11.6636
-11.6712
-11.1554
-11.157
-11.1614
-11.1677
-11.1754
-11.1843
-11.1944
-11.2053
-11.2169
-11.2293
-11.2423
-11.256
-11.2702
-11.2851
-11.3007
-11.3169
-11.3339
-11.3516
-11.3702
-11.3895
-11.4097
-11.4305
-11.452
-11.4739
-11.4959
-11.5178
-11.5391
-11.5593
-11.5776
-11.5934
-11.6058
-11.614
-11.6171
-11.1625
-11.164
-11.1682
-11.1741
-11.1814
-11.1899
-11.1994
-11.2099
-11.2211
-11.233
-11.2455
-11.2587
-11.2724
-11.2867
-11.3016
-11.3171
-11.3332
-11.3499
-11.3672
-11.385
-11.4034
-11.4222
-11.4413
-11.4605
-11.4794
-11.4979
-11.5154
-11.5314
-11.5455
-11.557
-11.5653
-11.5698
-11.5698
-11.1691
-11.1705
-11.1744
-11.18
-11.1869
-11.1949
-11.2041
-11.214
-11.2248
-11.2362
-11.2483
-11.2608
-11.274
-11.2876
-11.3018
-11.3164
-11.3315
-11.3471
-11.3631
-11.3795
-11.3961
-11.4129
-11.4297
-11.4463
-11.4624
-11.4778
-11.492
-11.5046
-11.5152
-11.5234
-11.5286
-11.5304
-11.5283
-11.175
-11.1764
-11.18
-11.1853
-11.1919
-11.1996
-11.2083
-11.2179
-11.2282
-11.2391
-11.2507
-11.2627
-11.2752
-11.2882
-11.3016
-11.3154
-11.3295
-11.344
-11.3587
-11.3736
-11.3885
-11.4034
-11.4181
-11.4323
-11.4459
-11.4586
-11.47
-11.4798
-11.4876
-11.4932
-11.4961
-11.496
-11.4927
-11.1803
-11.1816
-11.1851
-11.1902
-11.1964
-11.2037
-11.212
-11.2212
-11.231
-11.2414
-11.2524
-11.2639
-11.2757
-11.288
-11.3005
-11.3134
-11.3265
-11.3398
-11.3531
-11.3666
-11.3799
-11.393
-11.4057
-11.4178
-11.4291
-11.4394
-11.4485
-11.4559
-11.4616
-11.4652
-11.4664
-11.4652
-11.4613
-11.185
-11.1862
-11.1896
-11.1944
-11.2004
-11.2074
-11.2154
-11.2242
-11.2336
-11.2436
-11.2541
-11.265
-11.2763
-11.2878
-11.2996
-11.3116
-11.3237
-11.3358
-11.348
-11.36
-11.3718
-11.3832
-11.3941
-11.4044
-11.4138
-11.4221
-11.4292
-11.4348
-11.4387
-11.4408
-11.4409
-11.4389
-11.4347
-11.189
-11.1901
-11.1934
-11.198
-11.2037
-11.2105
-11.2181
-11.2264
-11.2354
-11.2449
-11.2548
-11.265
-11.2756
-11.2864
-11.2973
-11.3084
-11.3195
-11.3305
-11.3414
-11.3521
-11.3625
-11.3724
-11.3817
-11.3902
-11.3979
-11.4046
-11.41
-11.4141
-11.4168
-11.4178
-11.4171
-11.4147
-11.4105
-11.1922
-11.1934
-11.1966
-11.2011
-11.2067
-11.2133
-11.2207
-11.2288
-11.2374
-11.2465
-11.256
-11.2657
-11.2757
-11.2858
-11.296
-11.3062
-11.3163
-11.3264
-11.3361
-11.3456
-11.3546
-11.3632
-11.3711
-11.3782
-11.3844
-11.3897
-11.3938
-11.3967
-11.3982
-11.3984
-11.3972
-11.3945
-11.3904
-11.1947
-11.1958
-11.1989
-11.2033
-11.2086
-11.2149
-11.222
-11.2296
-11.2378
-11.2464
-11.2553
-11.2645
-11.2738
-11.2832
-11.2926
-11.302
-11.3112
-11.3202
-11.3289
-11.3373
-11.3452
-11.3525
-11.3591
-11.365
-11.37
-11.3741
-11.3771
-11.3791
-11.3798
-11.3794
-11.3778
-11.375
-11.3711
-11.1965
-11.1977
-11.2008
-11.2053
-11.2108
-11.2171
-11.2241
-11.2317
-11.2397
-11.248
-11.2565
-11.2652
-11.274
-11.2827
-11.2914
-11.3
-11.3084
-11.3164
-11.3242
-11.3315
-11.3382
-11.3444
-11.3499
-11.3547
-11.3587
-11.3617
-11.3638
-11.3649
-11.365
-11.3641
-11.3622
-11.3593
-11.3555
-11.1972
-11.1982
-11.2013
-11.2056
-11.2108
-11.2168
-11.2235
-11.2307
-11.2383
-11.2462
-11.2543
-11.2625
-11.2707
-11.2789
-11.287
-11.2949
-11.3025
-11.3098
-11.3167
-11.3232
-11.3291
-11.3343
-11.339
-11.3428
-11.3459
-11.3482
-11.3496
-11.3501
-11.3496
-11.3484
-11.3462
-11.3432
-11.3395
-11.1972
-11.1987
-11.2023
-11.2072
-11.2128
-11.2191
-11.226
-11.2333
-11.2407
-11.2483
-11.256
-11.2638
-11.2715
-11.279
-11.2864
-11.2935
-11.3004
-11.3068
-11.3129
-11.3184
-11.3234
-11.3277
-11.3314
-11.3344
-11.3367
-11.3382
-11.3389
-11.3388
-11.3379
-11.3363
-11.3339
-11.3308
-11.327
-11.1955
-11.1964
-11.1997
-11.2042
-11.2096
-11.2158
-11.2225
-11.2295
-11.2369
-11.2445
-11.252
-11.2596
-11.2668
-11.2742
-11.2812
-11.2879
-11.2943
-11.3003
-11.3058
-11.3107
-11.3151
-11.3188
-11.3219
-11.3243
-11.326
-11.327
-11.3272
-11.3266
-11.3253
-11.3233
-11.3207
-11.3174
-11.3135
-11.1936
-11.1961
-11.201
-11.2068
-11.213
-11.2196
-11.2265
-11.2335
-11.2406
-11.2476
-11.2547
-11.2616
-11.2685
-11.275
-11.2813
-11.2872
-11.2928
-11.298
-11.3028
-11.3069
-11.3105
-11.3135
-11.3159
-11.3176
-11.3187
-11.3191
-11.3188
-11.3178
-11.3162
-11.3139
-11.311
-11.3076
-11.3036
-11.1872
-11.1881
-11.1924
-11.1983
-11.2047
-11.2118
-11.2192
-11.2267
-11.2343
-11.2418
-11.2492
-11.2564
-11.2634
-11.27
-11.2763
-11.2822
-11.2877
-11.2926
-11.2968
-11.3008
-11.3041
-11.3068
-11.3088
-11.3101
-11.3107
-11.3107
-11.31
-11.3086
-11.3066
-11.304
-11.3007
-11.2969
-11.2925
-11.1851
-11.1907
-11.1983
-11.2051
-11.2118
-11.2188
-11.2258
-11.2326
-11.2394
-11.246
-11.2526
-11.2589
-11.265
-11.2708
-11.2763
-11.2814
-11.2861
-11.2904
-11.2942
-11.2974
-11.3001
-11.3022
-11.3037
-11.3046
-11.3049
-11.3045
-11.3036
-11.302
-11.2998
-11.297
-11.2937
-11.2899
-11.2855
-11.1635
-11.1674
-11.178
-11.1877
-11.1969
-11.2063
-11.2153
-11.2238
-11.232
-11.2399
-11.2474
-11.2545
-11.2613
-11.2675
-11.2734
-11.2787
-11.2836
-11.2878
-11.2915
-11.2947
-11.2972
-11.299
-11.3002
-11.3008
-11.3007
-11.2999
-11.2985
-11.2965
-11.2938
-11.2905
-11.2866
-11.2822
-11.2772
-11.1752
-11.1849
-11.1944
-11.2011
-11.2085
-11.2158
-11.2228
-11.2295
-11.2363
-11.2428
-11.2491
-11.2552
-11.261
-11.2665
-11.2717
-11.2764
-11.2807
-11.2846
-11.2879
-11.2907
-11.293
-11.2946
-11.2957
-11.2962
-11.2961
-11.2953
-11.294
-11.2921
-11.2896
-11.2865
-11.2829
-11.2789
-11.2743
-11.0748
-11.1416
-11.1661
-11.1776
-11.1921
-11.2048
-11.2151
-11.2245
-11.2332
-11.2413
-11.2488
-11.2559
-11.2624
-11.2684
-11.2739
-11.2789
-11.2833
-11.2872
-11.2904
-11.2931
-11.2951
-11.2965
-11.2972
-11.2973
-11.2967
-11.2954
-11.2935
-11.291
-11.2877
-11.2839
-11.2794
-11.2743
-11.2685
-10.2332
-12.0929
-16.6857
-23.1805
-30.2023
-34.7483
-34.6898
-29.8722
-21.4535
-11.9007
-4.21462
0.522146
3.05514
3.83202
3.20065
0.941343
-3.42632
-9.94232
-18.1246
-27.0553
-35.9016
-44.1252
-51.374
-57.2815
-61.4341
-63.5093
-63.4021
-61.2831
-57.5421
-52.628
-46.9848
-41.0342
-35.0099
-29.0266
-23.3388
-18.3225
-14.1841
-10.8847
-8.27468
-6.20983
-4.58085
-3.30348
-2.30944
-1.54279
-0.957786
-0.517184
-0.19069
0.0462887
0.213701
0.327568
0.400631
0.442979
0.462541
0.4655
0.456628
0.439585
0.417147
0.391399
0.36389
0.335752
0.307801
0.280609
0.254563
0.229918
0.20682
0.185337
0.165485
0.147249
0.130598
0.115498
0.101917
0.089844
0.0792314
0.0700282
0.0621712
0.0555367
0.0499746
0.0452769
0.041221
0.0376878
0.0345784
0.031837
0.0294239
0.0273026
0.0254317
0.0237671
0.0222601
0.0208663
0.0195351
0.0182319
0.0168955
0.0155303
0.014021
0.0125215
0.0106544
0.00916594
0.00651798
0.00588033
0.000840636
0.00458942
-10.891
-12.402
-16.3438
-22.2428
-28.3966
-32.0267
-31.3183
-26.411
-18.8431
-10.8004
-4.31937
-0.125949
2.20034
3.01145
2.40687
0.396044
-3.48556
-9.3825
-16.9371
-25.358
-33.8317
-41.7703
-48.7656
-54.4498
-58.4526
-60.5015
-60.4978
-58.5911
-55.114
-50.495
-45.1813
-39.5579
-33.8203
-28.1043
-22.7031
-17.9683
-14.0541
-10.9046
-8.38453
-6.37079
-4.76855
-3.50204
-2.50841
-1.73544
-1.14002
-0.686697
-0.346403
-0.0953762
0.0857253
0.212584
0.297771
0.351283
0.381019
0.393181
0.392592
0.382971
0.367163
0.347324
0.32507
0.301598
0.277784
0.254256
0.231454
0.209675
0.189109
0.169861
0.151983
0.135488
0.120371
0.106618
0.0942138
0.0831616
0.0734301
0.0649855
0.0577838
0.0517143
0.0466401
0.0423788
0.0387111
0.0355175
0.0327069
0.0302284
0.0280477
0.0261333
0.0244472
0.022948
0.0215886
0.0203254
0.0191085
0.0179037
0.0166509
0.0153542
0.0139017
0.0124432
0.0106134
0.00913805
0.00652525
0.0058556
0.000901627
0.00448462
-11.8363
-13.3464
-16.6518
-21.2929
-25.7845
-27.9833
-26.8399
-22.602
-16.4565
-9.9608
-4.53446
-0.806736
1.32819
2.12346
1.58282
-0.269353
-3.72717
-9.00953
-15.8774
-23.696
-31.705
-39.2917
-46.001
-51.4547
-55.3125
-57.3305
-57.4253
-55.7202
-52.5112
-48.215
-43.2651
-37.9888
-32.5522
-27.1273
-22.0396
-17.5995
-13.9117
-10.9114
-8.48236
-6.52219
-4.94943
-3.69621
-2.70495
-1.92719
-1.3225
-0.85731
-0.503827
-0.239167
-0.0445876
0.0951715
0.192464
0.257186
0.297193
0.318688
0.326528
0.324486
0.315467
0.301693
0.284843
0.266179
0.246635
0.226894
0.207446
0.188636
0.170695
0.153767
0.137938
0.123253
0.109732
0.0973812
0.0862029
0.0762142
0.0674005
0.0597469
0.0532304
0.0477517
0.0431842
0.0393729
0.0361081
0.0332668
0.0307662
0.0285609
0.0266218
0.0249221
0.023428
0.0221007
0.0208947
0.0197674
0.0186695
0.017567
0.0164011
0.0151755
0.0137818
0.0123657
0.0105743
0.00911191
0.00653503
0.00583156
0.000964307
0.00437915
-12.3844
-13.7378
-16.2313
-19.4913
-22.4975
-24.0291
-23.0533
-19.6833
-14.7635
-9.45455
-4.8549
-1.54235
0.419522
1.16953
0.697755
-1.02109
-4.12162
-8.81492
-14.9697
-22.1073
-29.5638
-36.7268
-43.1102
-48.3183
-52.0271
-54.0074
-54.1955
-52.6884
-49.7644
-45.8272
-41.2676
-36.3464
-31.221
-26.1141
-21.3627
-17.2224
-13.7576
-10.9042
-8.56719
-6.66335
-5.1229
-3.88539
-2.89849
-2.11754
-1.50482
-1.02867
-0.66266
-0.384835
-0.17708
-0.0245542
0.0848088
0.160764
0.211116
0.242057
0.258462
0.264146
0.26207
0.254511
0.243213
0.229496
0.214353
0.19852
0.182539
0.1668
0.151576
0.137052
0.123347
0.110538
0.0986706
0.0877735
0.0778669
0.0689821
0.0611232
0.0542937
0.0484905
0.0436297
0.0395917
0.0362445
0.0333981
0.0309226
0.0287445
0.0268236
0.0251359
0.02366
0.0223661
0.0212182
0.0201728
0.0191877
0.0182145
0.0172194
0.0161448
0.0149936
0.0136614
0.0122893
0.0105375
0.00908806
0.00654784
0.00580839
0.00102917
0.00427178
-12.7217
-13.8917
-15.8127
-18.2152
-20.3915
-21.3619
-20.3945
-17.5715
-13.5314
-9.13961
-5.2395
-2.33353
-0.550154
0.146831
-0.254158
-1.82573
-4.62664
-8.78741
-14.246
-20.6554
-27.4784
-34.1401
-40.1442
-45.0795
-48.6246
-50.5621
-50.8379
-49.5345
-46.9233
-43.3776
-39.2167
-34.6467
-29.8436
-25.0822
-20.6822
-16.8405
-13.5926
-10.8833
-8.63931
-6.79422
-5.28862
-4.06914
-3.08857
-2.30605
-1.68657
-1.20045
-0.822624
-0.532136
-0.311544
-0.146458
-0.0251001
0.0620978
0.122852
0.163331
0.188423
0.201971
0.20698
0.205783
0.200179
0.191546
0.180933
0.169129
0.156726
0.144159
0.131746
0.119709
0.108204
0.0973394
0.0871865
0.0777975
0.0692114
0.061474
0.054609
0.0486376
0.043572
0.0393533
0.0358707
0.0330034
0.0305893
0.0284929
0.0266491
0.0250231
0.0235965
0.022353
0.0212671
0.0203058
0.0194273
0.0185904
0.0177473
0.0168641
0.0158845
0.0148107
0.0135423
0.0122154
0.0105045
0.00906775
0.00656489
0.00578731
0.00109781
0.00416312
-12.9155
-13.9258
-15.4298
-17.1944
-18.6659
-19.1801
-18.2569
-15.9179
-12.6055
-8.97167
-5.67512
-3.14875
-1.55262
-0.918074
-1.26576
-2.6749
-5.20226
-8.9006
-13.7198
-19.4033
-25.5343
-31.6186
-37.1781
-41.7993
-45.1596
-47.044
-47.4028
-46.3225
-44.058
-40.9166
-37.139
-32.9077
-28.4433
-24.0518
-20.0084
-16.457
-13.4172
-10.8488
-8.69874
-6.91459
-5.44625
-4.24702
-3.27474
-2.49228
-1.86737
-1.37229
-0.983424
-0.680826
-0.447771
-0.270362
-0.13714
-0.0387306
0.0324661
0.082569
0.116455
0.13799
0.150221
0.155525
0.155753
0.152338
0.14638
0.138723
0.130007
0.120715
0.111204
0.101737
0.0925076
0.0836536
0.0752747
0.0674466
0.060228
0.0536809
0.0478473
0.0427667
0.038467
0.0349136
0.03201
0.0296422
0.0276731
0.0259696
0.0244725
0.0231525
0.0219971
0.0209951
0.0201256
0.0193586
0.0186543
0.0179722
0.0172651
0.016499
0.0156188
0.0146258
0.0134238
0.0121437
0.0104746
0.00905025
0.00658527
0.00576692
0.00116902
0.00405011
-13.0066
-13.8525
-15.0073
-16.2766
-17.2646
-17.5022
-16.6361
-14.6651
-11.9221
-8.90735
-6.1292
-3.95121
-2.54635
-1.97987
-2.2957
-3.55433
-5.81952
-9.11199
-13.3677
-18.3789
-23.8135
-29.2683
-34.3199
-38.5757
-41.7206
-43.5383
-43.9876
-43.1568
-41.2497
-38.4855
-35.0524
-31.15
-27.0477
-23.0415
-19.3489
-16.0735
-13.232
-10.8015
-8.74588
-7.02448
-5.59552
-4.41864
-3.45657
-2.67581
-2.04681
-1.54385
-1.14476
-0.830651
-0.585552
-0.396089
-0.251154
-0.141602
-0.0599578
-0.000173694
0.0426024
0.0722463
0.0918264
0.103761
0.109951
0.111881
0.110703
0.107309
0.102389
0.0964689
0.0899508
0.0831378
0.0762577
0.0694814
0.0629368
0.0567231
0.0509204
0.0456069
0.0408434
0.036687
0.0331829
0.0303166
0.0280123
0.0261666
0.0246551
0.0233576
0.0222191
0.0212161
0.0203417
0.0195903
0.0189456
0.0183806
0.0178576
0.0173369
0.0167716
0.0161277
0.0153511
0.0144421
0.0133089
0.012077
0.010451
0.00903858
0.00661209
0.00575039
0.00124636
0.00393529
-13.0124
-13.7061
-14.5838
-15.4877
-16.1237
-16.1545
-15.3388
-13.6789
-11.4159
-8.92272
-6.59295
-4.73192
-3.51415
-3.02015
-3.31308
-4.44144
-6.45932
-9.38283
-13.1433
-17.5606
-22.354
-27.1867
-31.7016
-35.5526
-38.4508
-40.1981
-40.7497
-40.1582
-38.5558
-36.099
-32.969
-29.4039
-25.687
-22.067
-18.7082
-15.6907
-13.0376
-10.7421
-8.78114
-7.12392
-5.73622
-4.58368
-3.63367
-2.85624
-2.22453
-1.71478
-1.30632
-0.981347
-0.724664
-0.523454
-0.366993
-0.246383
-0.154309
-0.0848109
-0.03307
0.00478178
0.0318275
0.0505212
0.062803
0.0702024
0.0739198
0.0748995
0.0738789
0.0714292
0.0679942
0.0639157
0.0594579
0.0548248
0.0501731
0.0456268
0.041287
0.0372499
0.0335941
0.0303949
0.027715
0.02556
0.023875
0.0225705
0.0215315
0.0206529
0.0198849
0.0192098
0.0186264
0.0181348
0.0177234
0.0173684
0.0170342
0.0166816
0.0162644
0.015748
0.0150796
0.014258
0.0131961
0.0120137
0.0104315
0.00903036
0.00664257
0.0057342
0.00132641
0.00381343
-12.9633
-13.5211
-14.1778
-14.8048
-15.187
-15.0872
-14.3381
-12.9385
-11.0641
-8.99891
-7.05151
-5.47536
-4.43529
-4.01905
-4.29578
-5.31188
-7.10506
-9.6885
-13.0029
-16.8944
-21.1227
-25.3952
-29.4046
-32.8558
-35.4984
-37.1634
-37.7849
-37.3558
-35.961
-33.7461
-30.9123
-27.7106
-24.3883
-21.138
-18.0874
-15.309
-12.8354
-10.6717
-8.8051
-7.21306
-5.86823
-4.74184
-3.80568
-3.0332
-2.40014
-1.88474
-1.46781
-1.13265
-0.864875
-0.652262
-0.484488
-0.352937
-0.250471
-0.171237
-0.110474
-0.0643334
-0.0297203
-0.00415532
0.0143347
0.0273203
0.0360512
0.0415165
0.044497
0.0456096
0.0453425
0.0440777
0.0421149
0.0396903
0.0369894
0.034162
0.0313318
0.0286136
0.0261033
0.0238942
0.0220673
0.0206483
0.0196026
0.0188555
0.018305
0.017858
0.0174724
0.0171361
0.0168538
0.0166315
0.0164621
0.0163255
0.0161878
0.0160106
0.015748
0.0153647
0.014809
0.0140784
0.0130904
0.0119588
0.0104215
0.00903104
0.00668242
0.00572426
0.00141523
0.00369001
-12.8734
-13.3129
-13.7947
-14.2165
-14.4203
-14.2378
-13.5534
-12.3696
-10.8179
-9.11364
-7.49678
-6.17612
-5.30104
-4.96227
-5.22808
-6.14464
-7.7383
-10.0129
-12.9194
-16.3318
-20.0507
-23.8246
-27.384
-30.4702
-32.8648
-34.4078
-35.0166
-34.6611
-33.4195
-31.4441
-28.9357
-26.1126
-23.169
-20.2566
-17.4857
-14.9292
-12.6267
-10.5914
-8.81836
-7.29209
-5.9915
-4.89293
-3.9723
-3.20634
-2.5733
-2.05339
-1.62891
-1.28428
-1.00595
-0.782304
-0.603465
-0.461113
-0.348315
-0.259348
-0.18952
-0.135015
-0.0927415
-0.0602063
-0.0354042
-0.0167246
-0.00287435
0.00717831
0.0142582
0.0190281
0.0220152
0.0236394
0.0242391
0.0240852
0.0233922
0.0223355
0.0210611
0.0197031
0.0183752
0.0171883
0.0162426
0.0155835
0.0151968
0.0150239
0.0149761
0.0149731
0.014981
0.0149939
0.0150224
0.0150783
0.0151596
0.0152493
0.0153158
0.0153211
0.0152195
0.0149749
0.0145365
0.0139002
0.0129885
0.0119088
0.0104169
0.00903579
0.00672618
0.00571408
0.00150621
0.00355715
-12.7592
-13.0985
-13.4436
-13.7136
-13.7932
-13.5638
-12.9471
-11.9481
-10.6647
-9.26105
-7.9253
-6.82953
-6.10507
-5.84029
-6.09976
-6.92694
-8.34276
-10.3423
-12.8799
-15.8519
-19.0955
-22.4018
-25.5384
-28.2758
-30.4149
-31.7956
-32.3441
-32.0461
-30.9762
-29.2711
-27.1001
-24.6352
-22.0315
-19.4195
-16.9024
-14.5527
-12.4133
-10.5025
-8.82159
-7.36132
-6.10605
-5.0368
-4.1333
-3.37536
-2.7437
-2.22043
-1.78933
-1.43596
-1.14764
-0.913367
-0.723734
-0.570748
-0.447702
-0.34902
-0.270102
-0.207175
-0.157164
-0.117565
-0.0863491
-0.0618744
-0.0428092
-0.0280775
-0.0168082
-0.00829615
-0.00197502
0.00261486
0.00584736
0.00802435
0.00939218
0.010154
0.0104789
0.0105215
0.0104118
0.0102785
0.0102416
0.010366
0.010658
0.0110759
0.0115451
0.0119983
0.0124111
0.012784
0.0131335
0.0134773
0.0138185
0.0141436
0.0144228
0.0146187
0.0146853
0.0145856
0.0142694
0.0137312
0.0128985
0.011872
0.0104263
0.00905365
0.0067833
0.00571346
0.0016089
0.00342472
-12.6309
-12.8868
-13.1259
-13.2854
-13.2812
-13.03
-12.4794
-11.6365
-10.5761
-9.42451
-8.32915
-7.43068
-6.84208
-6.64592
-6.90207
-7.64984
-8.90654
-10.6629
-12.8743
-15.4512
-18.2578
-21.1213
-23.8466
-26.2359
-28.1113
-29.3325
-29.8397
-29.6225
-28.7391
-27.2977
-25.4306
-23.2764
-20.968
-18.6234
-16.3382
-14.1815
-12.1968
-10.406
-8.81551
-7.42113
-6.21202
-5.17338
-4.28847
-3.54001
-2.91104
-2.38555
-1.94878
-1.58744
-1.28969
-1.04523
-0.845095
-0.681664
-0.548474
-0.440117
-0.3521
-0.28071
-0.222894
-0.176151
-0.138436
-0.108075
-0.0837015
-0.064199
-0.0486559
-0.0363258
-0.0265989
-0.0189746
-0.0130454
-0.0084776
-0.00499391
-0.00236523
-0.000397399
0.00108548
0.00222859
0.00317901
0.00407739
0.00500772
0.00599662
0.00702033
0.00801896
0.0089389
0.00976659
0.0105089
0.0111882
0.0118284
0.0124378
0.0130062
0.0135058
0.0138994
0.0141409
0.0141918
0.0140027
0.0135659
0.0128143
0.0118416
0.0104422
0.00907603
0.0068443
0.00571154
0.00171233
0.00328112
-12.497
-12.6849
-12.8432
-12.9236
-12.8651
-12.6099
-12.1235
-11.4147
-10.5415
-9.60116
-8.70962
-7.98145
-7.5127
-7.37785
-7.63132
-8.30814
-9.42236
-10.9633
-12.889
-15.1204
-17.5418
-20.0079
-22.3558
-24.4199
-26.0518
-27.1371
-27.6166
-27.4729
-26.7482
-25.5256
-23.9108
-22.0208
-19.9714
-17.8672
-15.7943
-13.8171
-11.9786
-10.3032
-8.80091
-7.47198
-6.30961
-5.30269
-4.43771
-3.70007
-3.07507
-2.54848
-2.10699
-1.73844
-1.43188
-1.17766
-0.967343
-0.793674
-0.650463
-0.532489
-0.435381
-0.355499
-0.289828
-0.235874
-0.191581
-0.155253
-0.12549
-0.101137
-0.0812429
-0.0650186
-0.0518156
-0.0410963
-0.0324158
-0.0254043
-0.0197556
-0.015215
-0.0115643
-0.0086064
-0.00617884
-0.00411561
-0.00225658
-0.000498145
0.00120643
0.00285168
0.00439301
0.00579118
0.00704469
0.00816681
0.00918593
0.0101327
0.0110202
0.0118418
0.0125715
0.0131718
0.0135962
0.0138047
0.0137482
0.0134167
0.0127489
0.0118311
0.0104785
0.00911738
0.00692415
0.00572385
0.00183146
0.00314163
-12.3643
-12.4977
-12.5952
-12.6201
-12.5287
-12.2811
-11.8554
-11.2613
-10.5446
-9.78077
-9.06137
-8.47914
-8.11505
-8.03435
-8.2853
-8.89864
-9.88566
-11.2355
-12.9101
-14.8409
-16.9289
-19.0516
-21.0723
-22.8533
-24.2714
-25.2287
-25.6686
-25.5718
-24.9682
-23.9219
-22.5192
-20.8585
-19.0386
-17.1508
-15.2718
-13.461
-11.7602
-10.1951
-8.77865
-7.51444
-6.39911
-5.42482
-4.58095
-3.85541
-3.23559
-2.70899
-2.26372
-1.88872
-1.57395
-1.31043
-1.09026
-0.906578
-0.753486
-0.625969
-0.519794
-0.431408
-0.357844
-0.296625
-0.24569
-0.203325
-0.1681
-0.138825
-0.11451
-0.0943258
-0.0775846
-0.0637097
-0.0522206
-0.0427154
-0.0348571
-0.0283622
-0.02299
-0.0185227
-0.0147776
-0.0115717
-0.00872813
-0.00612211
-0.0036866
-0.00140792
0.000685587
0.00256934
0.00425589
0.0057656
0.00713212
0.00839267
0.00956566
0.010648
0.0116151
0.0124294
0.0130435
0.0134155
0.0134962
0.0132733
0.0126911
0.0118284
0.0105221
0.00916326
0.00700737
0.00573307
0.00194974
0.00298787
-12.236
-12.3267
-12.3795
-12.367
-12.2583
-12.0261
-11.6573
-11.162
-10.5767
-9.96055
-9.38587
-8.92734
-8.65268
-8.61799
-8.86534
-9.4212
-10.2946
-11.4749
-12.9283
-14.5956
-16.3933
-18.2181
-19.9552
-21.4891
-22.7153
-23.5497
-23.9424
-23.8746
-23.3661
-22.4662
-21.2451
-19.7842
-18.1676
-16.4739
-14.7713
-13.1143
-11.5428
-10.0829
-8.74964
-7.54913
-6.48091
-5.53995
-4.71823
-4.00595
-3.39244
-2.86689
-2.41874
-2.03805
-1.71567
-1.44331
-1.21363
-1.02017
-0.857349
-0.720376
-0.605172
-0.508286
-0.426805
-0.35828
-0.300653
-0.252194
-0.211447
-0.17719
-0.148394
-0.124193
-0.103859
-0.0867794
-0.0724368
-0.0603958
-0.0502888
-0.0418051
-0.0346804
-0.0286755
-0.0235859
-0.0192122
-0.0153623
-0.0118887
-0.00870474
-0.00577768
-0.00311992
-0.000739763
0.00139103
0.00329859
0.00502241
0.00660748
0.00807714
0.00943142
0.0106471
0.011686
0.0124992
0.0130423
0.0132664
0.0131562
0.0126622
0.0118551
0.0105951
0.00923629
0.0071171
0.00576292
0.00209039
0.0028409
-12.1165
-12.1742
-12.1948
-12.1584
-12.0431
-11.8307
-11.5142
-11.1036
-10.6283
-10.135
-9.68098
-9.32634
-9.12716
-9.13084
-9.37329
-9.87696
-10.649
-11.6792
-12.9378
-14.3742
-15.9176
-17.4815
-18.9696
-20.2851
-21.3393
-22.0612
-22.4062
-22.356
-21.9232
-21.1457
-20.0798
-18.7928
-17.3554
-15.8355
-14.2933
-12.7781
-11.3276
-9.96783
-8.71484
-7.57676
-6.55547
-5.64835
-4.84966
-4.15167
-3.54554
-3.02202
-2.57186
-2.18622
-1.85682
-1.57608
-1.33723
-1.13423
-0.961842
-0.815513
-0.691332
-0.58596
-0.496554
-0.420699
-0.356342
-0.301745
-0.255428
-0.216139
-0.182813
-0.154546
-0.130571
-0.11024
-0.0929987
-0.07838
-0.065986
-0.0554781
-0.0465678
-0.0389953
-0.0325322
-0.0269653
-0.0220896
-0.0177337
-0.0137912
-0.0102092
-0.00698318
-0.004104
-0.00152675
0.000783378
0.00286982
0.00478407
0.00655589
0.00818832
0.0096593
0.0109295
0.0119485
0.0126688
0.0130409
0.0130466
0.0126423
0.0118904
0.0106756
0.00931305
0.00722888
0.00578671
0.00222878
0.00267289
-12.006
-12.039
-12.0375
-11.987
-11.8727
-11.6826
-11.4138
-11.0758
-10.6928
-10.3016
-9.94765
-9.67938
-9.54273
-9.57721
-9.813
-10.2688
-10.9502
-11.8476
-12.9351
-14.1694
-15.4907
-16.8265
-18.0965
-19.2194
-20.1206
-20.7401
-21.0379
-20.9967
-20.624
-19.9483
-19.0148
-17.8786
-16.5991
-15.2346
-13.8379
-12.4534
-11.116
-9.85104
-8.67523
-7.59809
-6.62334
-5.75037
-4.97543
-4.29264
-3.69486
-3.17429
-2.72295
-2.33305
-1.99719
-1.70852
-1.46082
-1.24853
-1.06675
-0.911167
-0.778071
-0.664243
-0.566918
-0.483721
-0.412614
-0.35185
-0.299933
-0.255577
-0.217686
-0.185319
-0.157671
-0.134057
-0.113889
-0.0966658
-0.0819601
-0.0694054
-0.0586887
-0.0495295
-0.0416746
-0.034897
-0.0289777
-0.0237222
-0.0190047
-0.014753
-0.0109447
-0.00755376
-0.00452174
-0.00180064
0.000660902
0.00291753
0.00500449
0.00692882
0.00866877
0.0101831
0.011419
0.0123255
0.0128524
0.012978
0.0126655
0.0119686
0.010798
0.00942824
0.0073777
0.00583986
0.00239852
0.00251463
-11.9069
-11.9217
-11.9056
-11.8483
-11.7398
-11.5727
-11.3467
-11.0706
-10.7645
-10.4576
-10.1861
-9.98872
-9.90292
-9.96121
-10.1886
-10.6003
-11.2006
-11.9807
-12.9179
-13.9755
-15.1033
-16.2404
-17.3197
-18.2735
-19.0389
-19.5654
-19.8176
-19.779
-19.4534
-18.8624
-18.0416
-17.0362
-15.8959
-14.6703
-13.4054
-12.1409
-10.9089
-9.73364
-8.63184
-7.61397
-6.68516
-5.84646
-5.09582
-4.42902
-3.84045
-3.32366
-2.8719
-2.47839
-2.13661
-1.84043
-1.5842
-1.36285
-1.17183
-1.00711
-0.865168
-0.742925
-0.6377
-0.547165
-0.4693
-0.402356
-0.344817
-0.295372
-0.25289
-0.216394
-0.185043
-0.158115
-0.134989
-0.115132
-0.098085
-0.0834558
-0.0709066
-0.0601362
-0.0508675
-0.0428604
-0.0358837
-0.0297215
-0.0242273
-0.0193085
-0.0149229
-0.0110244
-0.00754158
-0.00441425
-0.00157945
0.00102179
0.00342669
0.00564636
0.00766023
0.00942466
0.0108839
0.0119826
0.012669
0.0129175
0.012698
0.0120551
0.0109269
0.00954504
0.00752596
0.00588239
0.00256309
0.00232755
-11.8182
-11.8203
-11.7953
-11.7363
-11.6367
-11.4923
-11.3043
-11.081
-10.8389
-10.6013
-10.3971
-10.2572
-10.212
-10.2877
-10.5049
-10.8759
-11.4035
-12.0798
-12.8853
-13.7887
-14.7479
-15.712
-16.6252
-17.4309
-18.0763
-18.5188
-18.7274
-18.6869
-18.3982
-17.8775
-17.1528
-16.2609
-15.243
-14.1414
-12.9958
-11.8415
-10.7075
-9.61675
-8.5857
-7.62527
-6.74165
-5.93717
-5.21122
-4.56106
-3.98243
-3.47018
-3.01868
-2.62215
-2.27492
-1.9716
-1.70714
-1.47695
-1.27684
-1.10309
-0.95238