/*--------------------------------*- C++ -*----------------------------------*\
  =========                 |
  \\      /  F ield         | OpenFOAM: The Open Source CFD Toolbox
   \\    /   O peration     | Website:  https://openfoam.org
    \\  /    A nd           | Version:  10
     \\/     M anipulation  |
\*---------------------------------------------------------------------------*/
FoamFile
{
    format      ascii;
    class       surfaceScalarField;
    location    "0.065";
    object      phi;
}
// * * * * * * * * * * * * * * * * * * * * * * * * * * * * * * * * * * * * * //

dimensions      [0 3 -1 0 0 0 0];

internalField   nonuniform List<scalar> 
13452
(
5.94541e-05
8.14328e-07
5.84757e-05
9.78439e-07
5.74571e-05
1.01855e-06
5.64107e-05
1.04646e-06
5.53642e-05
1.0465e-06
5.43286e-05
1.03554e-06
5.33071e-05
1.02155e-06
5.2301e-05
1.00614e-06
5.13106e-05
9.90345e-07
5.03357e-05
9.74895e-07
4.93756e-05
9.60158e-07
4.84292e-05
9.46366e-07
4.74955e-05
9.33711e-07
4.65731e-05
9.2239e-07
4.56604e-05
9.12639e-07
4.47557e-05
9.0477e-07
4.38565e-05
8.9921e-07
4.29599e-05
8.9653e-07
4.20624e-05
8.97491e-07
4.11593e-05
9.03099e-07
4.02447e-05
9.14678e-07
3.93107e-05
9.33973e-07
3.83474e-05
9.63283e-07
3.73418e-05
1.00564e-06
3.62767e-05
1.06506e-06
3.51299e-05
1.14681e-06
3.38721e-05
1.25783e-06
3.24649e-05
1.40722e-06
3.08593e-05
1.60551e-06
2.89866e-05
1.87278e-06
2.67775e-05
2.20907e-06
2.40705e-05
2.70695e-06
3.30859e-06
2.07619e-05
6.24898e-05
3.1489e-07
6.29657e-05
5.02475e-07
6.34143e-05
5.70008e-07
6.38262e-05
6.34529e-07
6.41943e-05
6.7843e-07
6.45184e-05
7.11426e-07
6.48001e-05
7.39813e-07
6.50419e-05
7.64392e-07
6.52463e-05
7.85978e-07
6.54157e-05
8.05457e-07
6.55524e-05
8.23438e-07
6.56584e-05
8.40412e-07
6.57352e-05
8.56844e-07
6.57844e-05
8.73207e-07
6.5807e-05
8.90012e-07
6.58039e-05
9.07861e-07
6.57757e-05
9.27492e-07
6.57224e-05
9.49841e-07
6.56437e-05
9.7611e-07
6.5539e-05
1.00787e-06
6.54065e-05
1.04716e-06
6.52438e-05
1.09669e-06
6.5047e-05
1.16008e-06
6.48105e-05
1.24214e-06
6.45262e-05
1.34938e-06
6.41825e-05
1.49051e-06
6.37627e-05
1.67758e-06
6.32436e-05
1.92636e-06
6.25895e-05
2.25963e-06
6.17562e-05
2.70605e-06
6.06563e-05
3.30896e-06
5.92364e-05
4.12681e-06
5.23786e-06
5.73072e-05
6.38351e-05
2.41163e-07
6.39125e-05
4.25115e-07
6.39841e-05
4.98357e-07
6.40592e-05
5.59464e-07
6.41368e-05
6.00854e-07
6.42189e-05
6.29322e-07
6.43065e-05
6.52207e-07
6.43996e-05
6.71237e-07
6.44982e-05
6.8747e-07
6.46017e-05
7.0196e-07
6.47097e-05
7.15428e-07
6.48217e-05
7.28416e-07
6.49371e-05
7.41415e-07
6.50554e-05
7.54908e-07
6.5176e-05
7.69401e-07
6.52984e-05
7.85476e-07
6.5422e-05
8.03836e-07
6.55465e-05
8.25362e-07
6.56714e-05
8.51183e-07
6.57966e-05
8.82755e-07
6.59217e-05
9.21988e-07
6.6047e-05
9.71393e-07
6.61728e-05
1.0343e-06
6.62998e-05
1.11514e-06
6.64293e-05
1.21988e-06
6.65633e-05
1.35645e-06
6.67051e-05
1.53579e-06
6.68593e-05
1.77218e-06
6.70327e-05
2.08622e-06
6.72356e-05
2.50314e-06
6.74828e-05
3.06185e-06
6.7806e-05
3.80361e-06
4.77295e-06
6.82709e-05
6.56412e-05
1.83042e-07
6.56951e-05
3.71217e-07
6.57342e-05
4.59205e-07
6.5767e-05
5.26663e-07
6.57943e-05
5.7364e-07
6.58177e-05
6.05854e-07
6.58389e-05
6.31063e-07
6.58584e-05
6.51693e-07
6.58769e-05
6.68962e-07
6.58948e-05
6.84046e-07
6.59125e-05
6.9779e-07
6.59301e-05
7.10819e-07
6.59478e-05
7.23691e-07
6.59658e-05
7.36944e-07
6.5984e-05
7.51132e-07
6.60026e-05
7.66875e-07
6.60216e-05
7.84904e-07
6.60408e-05
8.0611e-07
6.60604e-05
8.31607e-07
6.60803e-05
8.62802e-07
6.61008e-05
9.01496e-07
6.61222e-05
9.50003e-07
6.61452e-05
1.01131e-06
6.61711e-05
1.08929e-06
6.6202e-05
1.18894e-06
6.62418e-05
1.3167e-06
6.62966e-05
1.48092e-06
6.63767e-05
1.69207e-06
6.64994e-05
1.96355e-06
6.66914e-05
2.31117e-06
6.70008e-05
2.75242e-06
6.74972e-05
3.30725e-06
3.96324e-06
6.83069e-05
6.74911e-05
1.4873e-07
6.75339e-05
3.28424e-07
6.75711e-05
4.22022e-07
6.76064e-05
4.91326e-07
6.76383e-05
5.41757e-07
6.76666e-05
5.77594e-07
6.76919e-05
6.05693e-07
6.77148e-05
6.2879e-07
6.77356e-05
6.48219e-07
6.77544e-05
6.65223e-07
6.77714e-05
6.80734e-07
6.77868e-05
6.95447e-07
6.78005e-05
7.09972e-07
6.78126e-05
7.24892e-07
6.78229e-05
7.408e-07
6.78315e-05
7.58344e-07
6.78381e-05
7.78276e-07
6.78427e-05
8.01495e-07
6.78452e-05
8.29104e-07
6.78455e-05
8.6247e-07
6.78437e-05
9.03307e-07
6.784e-05
9.53765e-07
6.78347e-05
1.01655e-06
6.7829e-05
1.09505e-06
6.78244e-05
1.19348e-06
6.78241e-05
1.317e-06
6.78332e-05
1.47188e-06
6.78599e-05
1.66533e-06
6.79182e-05
1.90524e-06
6.80299e-05
2.19943e-06
6.82308e-05
2.55154e-06
6.85761e-05
2.96198e-06
3.39884e-06
6.91405e-05
6.94123e-05
1.20445e-07
6.94528e-05
2.87941e-07
6.94889e-05
3.85926e-07
6.95222e-05
4.5806e-07
6.9552e-05
5.11866e-07
6.95787e-05
5.50932e-07
6.9603e-05
5.81396e-07
6.96254e-05
6.06365e-07
6.96463e-05
6.27381e-07
6.96657e-05
6.45763e-07
6.96839e-05
6.62527e-07
6.9701e-05
6.78434e-07
6.97168e-05
6.9414e-07
6.97314e-05
7.10263e-07
6.97448e-05
7.2742e-07
6.97569e-05
7.46274e-07
6.97676e-05
7.67575e-07
6.97769e-05
7.92204e-07
6.97847e-05
8.21219e-07
6.97913e-05
8.55898e-07
6.97968e-05
8.9781e-07
6.98017e-05
9.48867e-07
6.98069e-05
1.0114e-06
6.98137e-05
1.08822e-06
6.98245e-05
1.18263e-06
6.98431e-05
1.29845e-06
6.98751e-05
1.43986e-06
6.99294e-05
1.61107e-06
7.00192e-05
1.81541e-06
7.01642e-05
2.05441e-06
7.03924e-05
2.32333e-06
7.07436e-05
2.61086e-06
2.88155e-06
7.12608e-05
7.13856e-05
1.01198e-07
7.14173e-05
2.56255e-07
7.14481e-05
3.55136e-07
7.14783e-05
4.27797e-07
7.15073e-05
4.82924e-07
7.15342e-05
5.23949e-07
7.15595e-05
5.56157e-07
7.15832e-05
5.8268e-07
7.16054e-05
6.05129e-07
7.16264e-05
6.24817e-07
7.16461e-05
6.42784e-07
7.16647e-05
6.5983e-07
7.16822e-05
6.76634e-07
7.16987e-05
6.93832e-07
7.1714e-05
7.12048e-07
7.17284e-05
7.31941e-07
7.17417e-05
7.54235e-07
7.17541e-05
7.79762e-07
7.17659e-05
8.09496e-07
7.17772e-05
8.44589e-07
7.17886e-05
8.86399e-07
7.18009e-05
9.36529e-07
7.18155e-05
9.96841e-07
7.18342e-05
1.06946e-06
7.18602e-05
1.15671e-06
7.18976e-05
1.261e-06
7.1953e-05
1.38451e-06
7.20353e-05
1.52871e-06
7.21575e-05
1.69323e-06
7.2337e-05
1.87489e-06
7.25964e-05
2.06391e-06
7.29641e-05
2.24318e-06
2.37943e-06
7.34663e-05
7.34201e-05
8.63955e-08
7.34482e-05
2.2816e-07
7.34778e-05
3.25484e-07
7.35075e-05
3.98118e-07
7.3536e-05
4.54377e-07
7.35627e-05
4.97332e-07
7.35875e-05
5.31332e-07
7.36108e-05
5.59387e-07
7.36327e-05
5.83188e-07
7.36535e-05
6.04065e-07
7.36732e-05
6.23093e-07
7.36919e-05
6.41109e-07
7.37097e-05
6.58817e-07
7.37267e-05
6.76862e-07
7.37429e-05
6.95869e-07
7.37583e-05
7.16473e-07
7.37732e-05
7.3936e-07
7.37877e-05
7.65291e-07
7.3802e-05
7.95123e-07
7.38168e-05
8.29836e-07
7.38327e-05
8.70542e-07
7.38507e-05
9.18487e-07
7.38725e-05
9.75031e-07
7.39004e-05
1.04159e-06
7.39376e-05
1.11953e-06
7.39886e-05
1.20991e-06
7.406e-05
1.31317e-06
7.41602e-05
1.42851e-06
7.43005e-05
1.55287e-06
7.44954e-05
1.68002e-06
7.47616e-05
1.79775e-06
7.51176e-05
1.88716e-06
1.91984e-06
7.55772e-05
7.55137e-05
7.5209e-08
7.5537e-05
2.04848e-07
7.5563e-05
2.99499e-07
7.55897e-05
3.71388e-07
7.56162e-05
4.27823e-07
7.56418e-05
4.71735e-07
7.56664e-05
5.06803e-07
7.56899e-05
5.35871e-07
7.57124e-05
5.60651e-07
7.5734e-05
5.82452e-07
7.57548e-05
6.02339e-07
7.57747e-05
6.21153e-07
7.5794e-05
6.39599e-07
7.58125e-05
6.58312e-07
7.58305e-05
6.77895e-07
7.5848e-05
6.98949e-07
7.58653e-05
7.22097e-07
7.58826e-05
7.48007e-07
7.59003e-05
7.77397e-07
7.59191e-05
8.11048e-07
7.59398e-05
8.49803e-07
7.59638e-05
8.94539e-07
7.59927e-05
9.46115e-07
7.6029e-05
1.00527e-06
7.6076e-05
1.07248e-06
7.61383e-05
1.14768e-06
7.62216e-05
1.22986e-06
7.63335e-05
1.31662e-06
7.64831e-05
1.40319e-06
7.66814e-05
1.48176e-06
7.69394e-05
1.5397e-06
7.72677e-05
1.55891e-06
1.51686e-06
7.76707e-05
7.76684e-05
6.64061e-08
7.76885e-05
1.84716e-07
7.77126e-05
2.75409e-07
7.77383e-05
3.45714e-07
7.77644e-05
4.0174e-07
7.77899e-05
4.46215e-07
7.78145e-05
4.82178e-07
7.78382e-05
5.12181e-07
7.7861e-05
5.37879e-07
7.78829e-05
5.60536e-07
7.7904e-05
5.81195e-07
7.79245e-05
6.00693e-07
7.79444e-05
6.19728e-07
7.79638e-05
6.38921e-07
7.79828e-05
6.58845e-07
7.80017e-05
6.80053e-07
7.80207e-05
7.03093e-07
7.80402e-05
7.28526e-07
7.80607e-05
7.56923e-07
7.80828e-05
7.88863e-07
7.81077e-05
8.24916e-07
7.81367e-05
8.65594e-07
7.81715e-05
9.11279e-07
7.82147e-05
9.6211e-07
7.82694e-05
1.0178e-06
7.83396e-05
1.07739e-06
7.84306e-05
1.13889e-06
7.85484e-05
1.19884e-06
7.86999e-05
1.25166e-06
7.88926e-05
1.28912e-06
7.91329e-05
1.29942e-06
7.9425e-05
1.26672e-06
1.17424e-06
7.97677e-05
7.98854e-05
5.93093e-08
7.99027e-05
1.67423e-07
7.99244e-05
2.53697e-07
7.99481e-05
3.22048e-07
7.99725e-05
3.77278e-07
7.99969e-05
4.21828e-07
8.00209e-05
4.58227e-07
8.00443e-05
4.88757e-07
8.00672e-05
5.15015e-07
8.00895e-05
5.38221e-07
8.01113e-05
5.59386e-07
8.01327e-05
5.79325e-07
8.01537e-05
5.98716e-07
8.01744e-05
6.18149e-07
8.01951e-05
6.38156e-07
8.0216e-05
6.59226e-07
8.02372e-05
6.81824e-07
8.02594e-05
7.06393e-07
8.02829e-05
7.33349e-07
8.03087e-05
7.63067e-07
8.03378e-05
7.95852e-07
8.03715e-05
8.31886e-07
8.04116e-05
8.71136e-07
8.04605e-05
9.13237e-07
8.0521e-05
9.57317e-07
8.05966e-05
1.00178e-06
8.06915e-05
1.04402e-06
8.08103e-05
1.08007e-06
8.09577e-05
1.10417e-06
8.11383e-05
1.10855e-06
8.13547e-05
1.08297e-06
8.1607e-05
1.01446e-06
8.91349e-07
8.18899e-05
8.21663e-05
5.34307e-08
8.21814e-05
1.52338e-07
8.22013e-05
2.33802e-07
8.22237e-05
2.99673e-07
8.22473e-05
3.5361e-07
8.22714e-05
3.97769e-07
8.22954e-05
4.34268e-07
8.2319e-05
4.65103e-07
8.23423e-05
4.91759e-07
8.23651e-05
5.15387e-07
8.23876e-05
5.3694e-07
8.24097e-05
5.57198e-07
8.24316e-05
5.76805e-07
8.24534e-05
5.96312e-07
8.24754e-05
6.16198e-07
8.24977e-05
6.36888e-07
8.25208e-05
6.58755e-07
8.25451e-05
6.82127e-07
8.25711e-05
7.07268e-07
8.25998e-05
7.34367e-07
8.26322e-05
7.6349e-07
8.26696e-05
7.94529e-07
8.27136e-05
8.27108e-07
8.27663e-05
8.60478e-07
8.28303e-05
8.93364e-07
8.29083e-05
9.23794e-07
8.30034e-05
9.48871e-07
8.31189e-05
9.64572e-07
8.32576e-05
9.65483e-07
8.34214e-05
9.44734e-07
8.36104e-05
8.93991e-07
8.38217e-05
8.03221e-07
6.6497e-07
8.4048e-05
8.45128e-05
4.8437e-08
8.45261e-05
1.39054e-07
8.45442e-05
2.15613e-07
8.45652e-05
2.78736e-07
8.45877e-05
3.31112e-07
8.46109e-05
3.74573e-07
8.46343e-05
4.1088e-07
8.46576e-05
4.41751e-07
8.46808e-05
4.68547e-07
8.47039e-05
4.92346e-07
8.47268e-05
5.14044e-07
8.47496e-05
5.34385e-07
8.47724e-05
5.53974e-07
8.47954e-05
5.73317e-07
8.48188e-05
5.92837e-07
8.48428e-05
6.12886e-07
8.48678e-05
6.33748e-07
8.48943e-05
6.55637e-07
8.49228e-05
6.78681e-07
8.49543e-05
7.02896e-07
8.49897e-05
7.28147e-07
8.50301e-05
7.54091e-07
8.50771e-05
7.80097e-07
8.51324e-05
8.05155e-07
8.5198e-05
8.27756e-07
8.52761e-05
8.45765e-07
8.53687e-05
8.56279e-07
8.54777e-05
8.55516e-07
8.56045e-05
8.38713e-07
8.5749e-05
8.00175e-07
8.59095e-05
7.33496e-07
8.60814e-05
6.31353e-07
4.89584e-07
8.62568e-05
8.69265e-05
4.41005e-08
8.69383e-05
1.27218e-07
8.69551e-05
1.98868e-07
8.69748e-05
2.58984e-07
8.69965e-05
3.09481e-07
8.70192e-05
3.51886e-07
8.70424e-05
3.87671e-07
8.70658e-05
4.18309e-07
8.70893e-05
4.45027e-07
8.71129e-05
4.68815e-07
8.71364e-05
4.90504e-07
8.716e-05
5.1078e-07
8.71838e-05
5.30201e-07
8.72079e-05
5.49222e-07
8.72325e-05
5.68205e-07
8.7258e-05
5.87433e-07
8.72846e-05
6.07104e-07
8.73129e-05
6.27327e-07
8.73435e-05
6.48108e-07
8.73771e-05
6.6932e-07
8.74145e-05
6.90665e-07
8.7457e-05
7.1163e-07
8.75057e-05
7.31415e-07
8.7562e-05
7.48867e-07
8.76273e-05
7.62394e-07
8.77032e-05
7.69884e-07
8.77909e-05
7.68631e-07
8.78911e-05
7.55303e-07
8.80038e-05
7.25948e-07
8.81279e-05
6.76105e-07
8.82603e-05
6.01146e-07
8.83955e-05
4.96067e-07
3.5914e-07
8.8526e-05
8.94094e-05
4.0261e-08
8.942e-05
1.16552e-07
8.94355e-05
1.83384e-07
8.94542e-05
2.40343e-07
8.94749e-05
2.88757e-07
8.94969e-05
3.29866e-07
8.95197e-05
3.6489e-07
8.95429e-05
3.95076e-07
8.95664e-05
4.21512e-07
8.95902e-05
4.45096e-07
8.96141e-05
4.66586e-07
8.96382e-05
4.8661e-07
8.96628e-05
5.05676e-07
8.96878e-05
5.24185e-07
8.97136e-05
5.42445e-07
8.97403e-05
5.6067e-07
8.97685e-05
5.78982e-07
8.97984e-05
5.97399e-07
8.98307e-05
6.15826e-07
8.9866e-05
6.34023e-07
8.9905e-05
6.51579e-07
8.99488e-05
6.6787e-07
8.99982e-05
6.8201e-07
9.00543e-05
6.92805e-07
9.0118e-05
6.98697e-07
9.01901e-05
6.9773e-07
9.02712e-05
6.87527e-07
9.03612e-05
6.65311e-07
9.04592e-05
6.27984e-07
9.0563e-05
5.72263e-07
9.06691e-05
4.95045e-07
9.0772e-05
3.93202e-07
2.66694e-07
9.08644e-05
9.19633e-05
3.68046e-08
9.1973e-05
1.06833e-07
9.19874e-05
1.68979e-07
9.20051e-05
2.22676e-07
9.2025e-05
2.68816e-07
9.20465e-05
3.08387e-07
9.2069e-05
3.42393e-07
9.20922e-05
3.71889e-07
9.21159e-05
3.97827e-07
9.214e-05
4.21013e-07
9.21644e-05
4.42132e-07
9.21893e-05
4.61751e-07
9.22146e-05
4.80321e-07
9.22406e-05
4.98192e-07
9.22675e-05
5.1561e-07
9.22954e-05
5.3273e-07
9.23248e-05
5.49604e-07
9.2356e-05
5.66178e-07
9.23896e-05
5.82275e-07
9.2426e-05
5.9758e-07
9.2466e-05
6.1161e-07
9.25102e-05
6.23689e-07
9.25593e-05
6.32916e-07
9.26139e-05
6.38136e-07
9.26747e-05
6.37919e-07
9.27419e-05
6.30553e-07
9.28153e-05
6.14064e-07
9.28944e-05
5.86265e-07
9.29775e-05
5.44872e-07
9.30621e-05
4.8764e-07
9.31445e-05
4.12707e-07
9.32193e-05
3.18386e-07
2.05737e-07
9.32802e-05
9.45903e-05
3.36489e-08
9.45993e-05
9.78867e-08
9.46127e-05
1.55497e-07
9.46295e-05
2.05877e-07
9.46487e-05
2.49608e-07
9.46697e-05
2.87458e-07
9.46918e-05
3.20252e-07
9.47148e-05
3.48869e-07
9.47385e-05
3.74135e-07
9.47628e-05
3.96761e-07
9.47876e-05
4.17356e-07
9.48129e-05
4.36425e-07
9.48388e-05
4.54365e-07
9.48656e-05
4.71471e-07
9.48932e-05
4.87941e-07
9.49221e-05
5.03872e-07
9.49524e-05
5.19262e-07
9.49846e-05
5.34001e-07
9.5019e-05
5.4786e-07
9.50561e-05
5.60477e-07
9.50964e-05
5.71339e-07
9.51403e-05
5.79769e-07
9.51883e-05
5.84906e-07
9.52408e-05
5.85697e-07
9.52978e-05
5.80896e-07
9.53593e-05
5.69084e-07
9.54246e-05
5.48707e-07
9.54927e-05
5.18147e-07
9.55618e-05
4.75842e-07
9.5629e-05
4.20409e-07
9.56908e-05
3.50948e-07
9.57423e-05
2.66816e-07
1.69708e-07
9.57784e-05
9.72924e-05
3.07329e-08
9.73007e-05
8.9572e-08
9.73134e-05
1.42801e-07
9.73295e-05
1.89841e-07
9.7348e-05
2.31053e-07
9.73685e-05
2.67022e-07
9.73903e-05
2.98417e-07
9.74132e-05
3.2597e-07
9.7437e-05
3.50386e-07
9.74614e-05
3.72287e-07
9.74866e-05
3.92211e-07
9.75124e-05
4.10599e-07
9.7539e-05
4.27797e-07
9.75664e-05
4.4405e-07
9.75948e-05
4.59509e-07
9.76245e-05
4.74226e-07
9.76556e-05
4.88155e-07
9.76884e-05
5.01148e-07
9.77233e-05
5.12944e-07
9.77607e-05
5.23165e-07
9.78007e-05
5.31304e-07
9.78437e-05
5.36719e-07
9.789e-05
5.38632e-07
9.79396e-05
5.36131e-07
9.79923e-05
5.28188e-07
9.80477e-05
5.13689e-07
9.81049e-05
4.91484e-07
9.81626e-05
4.60468e-07
9.82187e-05
4.19683e-07
9.82707e-05
3.68428e-07
9.83152e-05
3.06499e-07
9.8348e-05
2.33976e-07
1.52856e-07
9.83649e-05
0.000100072
2.80103e-08
0.00010008
8.17769e-08
0.000100092
1.30776e-07
0.000100107
1.74477e-07
0.000100125
2.1309e-07
0.000100145
2.47052e-07
0.000100166
2.769e-07
0.000100189
3.03237e-07
0.000100213
3.26658e-07
0.000100237
3.47703e-07
0.000100263
3.66835e-07
0.000100289
3.8444e-07
0.000100316
4.0081e-07
0.000100344
4.16148e-07
0.000100373
4.30561e-07
0.000100403
4.44069e-07
0.000100435
4.56595e-07
0.000100468
4.67969e-07
0.000100503
4.77921e-07
0.00010054
4.8608e-07
0.000100579
4.91972e-07
0.000100621
4.95022e-07
0.000100665
4.9456e-07
0.000100711
4.89836e-07
0.000100759
4.80046e-07
0.000100809
4.64368e-07
0.000100858
4.42018e-07
0.000100906
4.1232e-07
0.000100951
3.74799e-07
0.00010099
3.29262e-07
0.000101021
2.75979e-07
0.000101039
2.1548e-07
1.49831e-07
0.000101042
0.000102931
2.54457e-08
0.000102938
7.44114e-08
0.000102949
1.19319e-07
0.000102964
1.59699e-07
0.000102982
1.95656e-07
0.000103001
2.27509e-07
0.000103022
2.55681e-07
0.000103045
2.80666e-07
0.000103069
3.02961e-07
0.000103093
3.23025e-07
0.000103119
3.41259e-07
0.000103145
3.5799e-07
0.000103173
3.73466e-07
0.000103201
3.87849e-07
0.00010323
4.01215e-07
0.000103261
4.13556e-07
0.000103293
4.24779e-07
0.000103326
4.34705e-07
0.000103361
4.43073e-07
0.000103397
4.49538e-07
0.000103436
4.53679e-07
0.000103476
4.55003e-07
0.000103517
4.52963e-07
0.00010356
4.46975e-07
0.000103604
4.36448e-07
0.000103647
4.20825e-07
0.00010369
3.9963e-07
0.000103729
3.72533e-07
0.000103765
3.39423e-07
0.000103794
3.00456e-07
0.000103813
2.56198e-07
0.000103821
2.07429e-07
1.56132e-07
0.000103815
0.000105871
2.3011e-08
0.000105878
6.74026e-08
0.000105889
1.08347e-07
0.000105903
1.45433e-07
0.00010592
1.78695e-07
0.00010594
2.08358e-07
0.00010596
2.34753e-07
0.000105983
2.58275e-07
0.000106006
2.79336e-07
0.000106031
2.98323e-07
0.000106057
3.15575e-07
0.000106083
3.31369e-07
0.000106111
3.4591e-07
0.00010614
3.59327e-07
0.000106169
3.7167e-07
0.0001062
3.82914e-07
0.000106232
3.92959e-07
0.000106265
4.0163e-07
0.000106299
4.08688e-07
0.000106335
4.13829e-07
0.000106372
4.16694e-07
0.00010641
4.16883e-07
0.000106449
4.13972e-07
0.000106488
4.07535e-07
0.000106528
3.97173e-07
0.000106566
3.82552e-07
0.000106602
3.63447e-07
0.000106635
3.39787e-07
0.000106662
3.11712e-07
0.000106683
2.79604e-07
0.000106695
2.44182e-07
0.000106696
2.0633e-07
1.67853e-07
0.000106685
0.000108896
2.0684e-08
0.000108902
6.06904e-08
0.000108913
9.7785e-08
0.000108927
1.31611e-07
0.000108943
1.62155e-07
0.000108962
1.89571e-07
0.000108983
2.14106e-07
0.000109005
2.36076e-07
0.000109029
2.55816e-07
0.000109053
2.73646e-07
0.000109079
2.89851e-07
0.000109106
3.04661e-07
0.000109133
3.18245e-07
0.000109162
3.30704e-07
0.000109192
3.42069e-07
0.000109222
3.52305e-07
0.000109254
3.61313e-07
0.000109286
3.68935e-07
0.00010932
3.74959e-07
0.000109355
3.7913e-07
0.00010939
3.81158e-07
0.000109427
3.80735e-07
0.000109463
3.77553e-07
0.000109499
3.71326e-07
0.000109535
3.61818e-07
0.000109568
3.48876e-07
0.000109599
3.32463e-07
0.000109626
3.12691e-07
0.000109648
2.8986e-07
0.000109663
2.64473e-07
0.00010967
2.37302e-07
0.000109667
2.09233e-07
1.81847e-07
0.000109653
0.000112007
1.84461e-08
0.000112013
5.42244e-08
0.000112023
8.75683e-08
0.000112037
1.1817e-07
0.000112053
1.45986e-07
0.000112071
1.71108e-07
0.000112092
1.9372e-07
0.000112114
2.14067e-07
0.000112137
2.32417e-07
0.000112162
2.4903e-07
0.000112188
2.64141e-07
0.000112214
2.77941e-07
0.000112242
2.90566e-07
0.000112271
3.02094e-07
0.0001123
3.12542e-07
0.000112331
3.21873e-07
0.000112362
3.29995e-07
0.000112394
3.36771e-07
0.000112427
3.42023e-07
0.000112461
3.45548e-07
0.000112495
3.47123e-07
0.000112529
3.46527e-07
0.000112563
3.43553e-07
0.000112596
3.38034e-07
0.000112628
3.29867e-07
0.000112658
3.19033e-07
0.000112685
3.05626e-07
0.000112708
2.89875e-07
0.000112725
2.72168e-07
0.000112737
2.53053e-07
0.000112741
2.33283e-07
0.000112736
2.13681e-07
1.95591e-07
0.000112722
0.000115207
1.62815e-08
0.000115213
4.79616e-08
0.000115223
7.76416e-08
0.000115236
1.05058e-07
0.000115252
1.30145e-07
0.00011527
1.5295e-07
0.00011529
1.73599e-07
0.000115312
1.92275e-07
0.000115335
2.09189e-07
0.00011536
2.24547e-07
0.000115385
2.38539e-07
0.000115412
2.51319e-07
0.000115439
2.62998e-07
0.000115468
2.73634e-07
0.000115497
2.83236e-07
0.000115527
2.91768e-07
0.000115558
2.99151e-07
0.00011559
3.05269e-07
0.000115622
3.09985e-07
0.000115654
3.13141e-07
0.000115687
3.14579e-07
0.000115719
3.14151e-07
0.000115751
3.1174e-07
0.000115782
3.07272e-07
0.000115811
3.00743e-07
0.000115837
2.92226e-07
0.000115861
2.819e-07
0.000115881
2.70056e-07
0.000115896
2.57112e-07
0.000115905
2.4361e-07
0.000115909
2.30236e-07
0.000115904
2.17712e-07
2.07146e-07
0.000115893
0.000118498
1.41756e-08
0.000118504
4.18604e-08
0.000118514
6.79462e-08
0.000118527
9.22095e-08
0.000118542
1.1457e-07
0.00011856
1.35036e-07
0.00011858
1.5369e-07
0.000118602
1.70659e-07
0.000118625
1.86101e-07
0.000118649
2.00177e-07
0.000118675
2.13037e-07
0.000118701
2.24803e-07
0.000118729
2.35561e-07
0.000118757
2.45355e-07
0.000118786
2.54189e-07
0.000118816
2.62031e-07
0.000118846
2.68814e-07
0.000118877
2.74449e-07
0.000118908
2.78832e-07
0.000118939
2.8185e-07
0.00011897
2.83399e-07
0.000119001
2.83394e-07
0.000119031
2.81786e-07
0.00011906
2.78574e-07
0.000119087
2.73816e-07
0.000119111
2.6765e-07
0.000119133
2.60294e-07
0.000119151
2.52062e-07
0.000119165
2.43364e-07
0.000119174
2.34698e-07
0.000119177
2.26662e-07
0.000119175
2.1986e-07
2.15187e-07
0.000119167
0.000121883
1.21166e-08
0.000121889
3.58883e-08
0.000121899
5.84414e-08
0.000121911
7.959e-08
0.000121927
9.92422e-08
0.000121944
1.17376e-07
0.000121964
1.34028e-07
0.000121985
1.4928e-07
0.000122008
1.63242e-07
0.000122032
1.76033e-07
0.000122058
1.87765e-07
0.000122084
1.98533e-07
0.000122111
2.08402e-07
0.000122139
2.17406e-07
0.000122168
2.25546e-07
0.000122197
2.32792e-07
0.000122227
2.39094e-07
0.000122257
2.44385e-07
0.000122287
2.4859e-07
0.000122317
2.51639e-07
0.000122347
2.53469e-07
0.000122377
2.54047e-07
0.000122405
2.53372e-07
0.000122432
2.51489e-07
0.000122457
2.48501e-07
0.00012248
2.44571e-07
0.000122501
2.39935e-07
0.000122518
2.34896e-07
0.000122531
2.29829e-07
0.000122541
2.25167e-07
0.000122546
2.21408e-07
0.000122547
2.19031e-07
2.18741e-07
0.000122544
0.000125365
1.00854e-08
0.000125371
2.99915e-08
0.000125381
4.90433e-08
0.000125393
6.70913e-08
0.000125408
8.40365e-08
0.000125426
9.98304e-08
0.000125446
1.14473e-07
0.000125467
1.28001e-07
0.00012549
1.4048e-07
0.000125514
1.51992e-07
0.000125539
1.62615e-07
0.000125565
1.72417e-07
0.000125592
1.81445e-07
0.00012562
1.89721e-07
0.000125648
1.97244e-07
0.000125677
2.03989e-07
0.000125706
2.09919e-07
0.000125735
2.14985e-07
0.000125765
2.19139e-07
0.000125794
2.22341e-07
0.000125823
2.24565e-07
0.000125851
2.2581e-07
0.000125878
2.26109e-07
0.000125904
2.25536e-07
0.000125929
2.24212e-07
0.000125951
2.22309e-07
0.000125971
2.20054e-07
0.000125988
2.17722e-07
0.000126002
2.15639e-07
0.000126013
2.14162e-07
0.000126021
2.13693e-07
0.000126025
2.14599e-07
2.17425e-07
0.000126027
0.000128947
8.07878e-09
0.000128953
2.4157e-08
0.000128962
3.97488e-08
0.000128975
5.47392e-08
0.00012899
6.90163e-08
0.000129007
8.25016e-08
0.000129026
9.51583e-08
0.000129047
1.0698e-07
0.00012907
1.17991e-07
0.000129094
1.28239e-07
0.000129118
1.37771e-07
0.000129144
1.46632e-07
0.000129171
1.54852e-07
0.000129198
1.62445e-07
0.000129226
1.69404e-07
0.000129254
1.75712e-07
0.000129283
1.8134e-07
0.000129311
1.86257e-07
0.00012934
1.90434e-07
0.000129369
1.93853e-07
0.000129397
1.96511e-07
0.000129424
1.98431e-07
0.000129451
1.99663e-07
0.000129476
2.00295e-07
0.0001295
2.0045e-07
0.000129522
2.00293e-07
0.000129542
2.00026e-07
0.000129559
1.99886e-07
0.000129575
2.0014e-07
0.000129588
2.01072e-07
0.000129599
2.02988e-07
0.000129607
2.06149e-07
2.10968e-07
0.000129614
0.000132631
6.04478e-09
0.000132637
1.8255e-08
0.000132646
3.03493e-08
0.000132659
4.22545e-08
0.000132674
5.38503e-08
0.000132692
6.50337e-08
0.000132711
7.57316e-08
0.000132732
8.58819e-08
0.000132755
9.54659e-08
0.000132778
1.04499e-07
0.000132803
1.12998e-07
0.000132829
1.2098e-07
0.000132855
1.2846e-07
0.000132882
1.35439e-07
0.00013291
1.41908e-07
0.000132937
1.47851e-07
0.000132966
1.53248e-07
0.000132994
1.58078e-07
0.000133022
1.62326e-07
0.00013305
1.6599e-07
0.000133077
1.69082e-07
0.000133104
1.71635e-07
0.00013313
1.73709e-07
0.000133155
1.7539e-07
0.000133178
1.76795e-07
0.000133201
1.78068e-07
0.000133221
1.79382e-07
0.00013324
1.80928e-07
0.000133258
1.82918e-07
0.000133273
1.85565e-07
0.000133287
1.89095e-07
0.000133299
1.93684e-07
1.99637e-07
0.000133311
0.00013642
4.03602e-09
0.000136426
1.2375e-08
0.000136436
2.10105e-08
0.000136448
2.98915e-08
0.000136463
3.88639e-08
0.00013648
4.77811e-08
0.000136499
5.65396e-08
0.00013652
6.50308e-08
0.000136542
7.31983e-08
0.000136566
8.10271e-08
0.00013659
8.8501e-08
0.000136616
9.56154e-08
0.000136642
1.02374e-07
0.000136669
1.0877e-07
0.000136696
1.14782e-07
0.000136723
1.20391e-07
0.000136751
1.25584e-07
0.000136778
1.30345e-07
0.000136806
1.34669e-07
0.000136834
1.38559e-07
0.000136861
1.42036e-07
0.000136887
1.45137e-07
0.000136913
1.47919e-07
0.000136938
1.50462e-07
0.000136962
1.52865e-07
0.000136985
1.55248e-07
0.000137006
1.57749e-07
0.000137027
1.60515e-07
0.000137046
1.63702e-07
0.000137064
1.67462e-07
0.000137081
1.71947e-07
0.000137098
1.77257e-07
1.83615e-07
0.000137114
0.000140318
1.82538e-09
0.000140324
6.06731e-09
0.000140334
1.1074e-08
0.000140347
1.68418e-08
0.000140363
2.31856e-08
0.000140381
2.99184e-08
0.0001404
3.6887e-08
0.000140422
4.3854e-08
0.000140444
5.07017e-08
0.000140468
5.74345e-08
0.000140492
6.40051e-08
0.000140517
7.03643e-08
0.000140543
7.64922e-08
0.00014057
8.23799e-08
0.000140597
8.79955e-08
0.000140624
9.33179e-08
0.000140651
9.83343e-08
0.000140678
1.03035e-07
0.000140705
1.07417e-07
0.000140732
1.11489e-07
0.000140759
1.15274e-07
0.000140786
1.18806e-07
0.000140811
1.22135e-07
0.000140837
1.25327e-07
0.000140861
1.28463e-07
0.000140885
1.31636e-07
0.000140907
1.34948e-07
0.000140929
1.38508e-07
0.000140951
1.42423e-07
0.000140971
1.46793e-07
0.000140991
1.51718e-07
0.000141012
1.57244e-07
1.63532e-07
0.000141032
0.000144327
-2.13931e-10
0.000144333
-1.3028e-10
0.000144343
1.32229e-09
0.000144355
4.03633e-09
0.000144371
7.76132e-09
0.000144388
1.22469e-08
0.000144408
1.72951e-08
0.000144429
2.27076e-08
0.000144452
2.82397e-08
0.000144475
3.38899e-08
0.0001445
3.95316e-08
0.000144525
4.51072e-08
0.000144551
5.06085e-08
0.000144577
5.60351e-08
0.000144604
6.1286e-08
0.000144631
6.6335e-08
0.000144658
7.11807e-08
0.000144685
7.58144e-08
0.000144712
8.02294e-08
0.000144739
8.44331e-08
0.000144766
8.84458e-08
0.000144793
9.22963e-08
0.000144819
9.60241e-08
0.000144845
9.96792e-08
0.00014487
1.03321e-07
0.000144894
1.07017e-07
0.000144918
1.10837e-07
0.000144942
1.14853e-07
0.000144965
1.19132e-07
0.000144988
1.2373e-07
0.000145011
1.28702e-07
0.000145035
1.34048e-07
1.39884e-07
0.000145058
0.000148451
-3.06632e-09
0.000148458
-7.73457e-09
0.00014847
-1.02373e-08
0.000148485
-1.06145e-08
0.000148502
-9.32284e-09
0.000148521
-6.68936e-09
0.000148541
-2.94995e-09
0.000148562
1.28878e-09
0.000148585
5.45744e-09
0.000148609
1.01787e-08
0.000148633
1.51236e-08
0.000148658
2.01377e-08
0.000148684
2.50768e-08
0.00014871
3.01031e-08
0.000148736
3.50004e-08
0.000148762
3.97836e-08
0.000148789
4.44399e-08
0.000148816
4.89567e-08
0.000148843
5.33249e-08
0.00014887
5.75526e-08
0.000148897
6.16647e-08
0.000148923
6.56787e-08
0.00014895
6.96189e-08
0.000148976
7.35191e-08
0.000149002
7.7419e-08
0.000149027
8.13623e-08
0.000149053
8.5393e-08
0.000149078
8.95533e-08
0.000149103
9.38799e-08
0.000149129
9.83999e-08
0.000149154
1.03136e-07
0.00014918
1.08066e-07
1.13274e-07
0.000149207
0.000152691
-5.10188e-09
0.000152698
-1.46206e-08
0.000152709
-2.11437e-08
0.000152723
-2.48291e-08
0.00015274
-2.62513e-08
0.000152759
-2.58713e-08
0.00015278
-2.41112e-08
0.000152803
-2.13472e-08
0.000152826
-1.79605e-08
0.000152851
-1.40761e-08
0.000152876
-9.9023e-09
0.000152901
-5.56054e-09
0.000152928
-1.39124e-09
0.000152954
3.68595e-09
0.000152981
8.32564e-09
0.000153008
1.28597e-08
0.000153035
1.73246e-08
0.000153062
2.17411e-08
0.00015309
2.60919e-08
0.000153117
3.03092e-08
0.000153144
3.44703e-08
0.000153171
3.8571e-08
0.000153198
4.26246e-08
0.000153225
4.66493e-08
0.000153252
5.06677e-08
0.000153278
5.47033e-08
0.000153305
5.87781e-08
0.000153332
6.29108e-08
0.000153358
6.7114e-08
0.000153385
7.13905e-08
0.000153413
7.57391e-08
0.000153441
8.01179e-08
8.45851e-08
0.000153469
0.000157056
-1.01205e-08
0.000157068
-2.58058e-08
0.000157083
-3.62049e-08
0.0001571
-4.23706e-08
0.00015712
-4.55957e-08
0.00015714
-4.65121e-08
0.000157162
-4.57003e-08
0.000157184
-4.37811e-08
0.000157207
-4.11099e-08
0.000157231
-3.78565e-08
0.000157255
-3.41915e-08
0.00015728
-3.02778e-08
0.000157305
-2.62693e-08
0.000157331
-2.20375e-08
0.000157357
-1.77986e-08
0.000157383
-1.35493e-08
0.00015741
-9.31211e-09
0.000157437
-5.07625e-09
0.000157464
-8.42347e-10
0.000157491
3.04843e-09
0.000157518
7.10695e-09
0.000157546
1.11246e-08
0.000157573
1.5101e-08
0.000157601
1.90432e-08
0.000157629
2.2962e-08
0.000157656
2.68658e-08
0.000157684
3.0764e-08
0.000157713
3.46579e-08
0.000157741
3.85456e-08
0.00015777
4.24176e-08
0.0001578
4.62618e-08
0.00015783
5.00341e-08
5.37756e-08
0.000157861
0.00016154
-1.21714e-08
0.00016155
-3.54556e-08
0.000161565
-5.09728e-08
0.000161583
-6.08718e-08
0.000161605
-6.67272e-08
0.000161627
-6.94093e-08
0.000161652
-6.98641e-08
0.000161677
-6.88439e-08
0.000161702
-6.68013e-08
0.000161729
-6.40457e-08
0.000161755
-6.08119e-08
0.000161782
-5.72548e-08
0.000161809
-5.3446e-08
0.000161837
-4.94374e-08
0.000161864
-4.53554e-08
0.000161892
-4.12468e-08
0.00016192
-3.71238e-08
0.000161948
-3.29911e-08
0.000161976
-2.88747e-08
0.000162004
-2.4847e-08
0.000162032
-2.08468e-08
0.00016206
-1.68902e-08
0.000162088
-1.29803e-08
0.000162116
-9.12039e-09
0.000162144
-5.30421e-09
0.000162173
-1.54309e-09
0.000162201
2.17777e-09
0.00016223
5.83175e-09
0.000162259
9.41456e-09
0.000162289
1.2907e-08
0.000162319
1.62883e-08
0.000162349
1.95094e-08
2.2603e-08
0.00016238
0.000166166
-2.41715e-08
0.000166184
-5.42563e-08
0.000166205
-7.15911e-08
0.000166227
-8.23623e-08
0.000166249
-8.89007e-08
0.000166271
-9.19852e-08
0.000166294
-9.28087e-08
0.000166318
-9.21888e-08
0.000166341
-9.05549e-08
0.000166365
-8.82058e-08
0.00016639
-8.53689e-08
0.000166415
-8.22032e-08
0.00016644
-7.88064e-08
0.000166466
-7.52417e-08
0.000166492
-7.15723e-08
0.000166519
-6.78449e-08
0.000166546
-6.40903e-08
0.000166573
-6.03332e-08
0.000166601
-5.65974e-08
0.000166629
-5.28901e-08
0.000166657
-4.92089e-08
0.000166686
-4.55634e-08
0.000166715
-4.19634e-08
0.000166744
-3.84157e-08
0.000166774
-3.49275e-08
0.000166804
-3.15088e-08
0.000166834
-2.81692e-08
0.000166865
-2.49258e-08
0.000166896
-2.17955e-08
0.000166928
-1.8798e-08
0.00016696
-1.59513e-08
0.000166993
-1.32944e-08
-1.07941e-08
0.000167026
0.00017091
-3.34152e-08
0.000170935
-7.95463e-08
0.000170964
-1.00297e-07
0.000170995
-1.1333e-07
0.000171026
-1.20573e-07
0.000171058
-1.23482e-07
0.000171089
-1.24047e-07
0.00017112
-1.2319e-07