/*--------------------------------*- C++ -*----------------------------------*\
  =========                 |
  \\      /  F ield         | OpenFOAM: The Open Source CFD Toolbox
   \\    /   O peration     | Website:  https://openfoam.org
    \\  /    A nd           | Version:  10
     \\/     M anipulation  |
\*---------------------------------------------------------------------------*/
FoamFile
{
    format      ascii;
    class       volVectorField;
    location    "0.065";
    object      U;
}
// * * * * * * * * * * * * * * * * * * * * * * * * * * * * * * * * * * * * * //

dimensions      [0 1 -1 0 0 0 0];

internalField   nonuniform List<vector> 
6820
(
(7.28181 0.0247937 0)
(7.17843 0.0399678 0)
(7.05609 0.0448801 0)
(6.92792 0.0475204 0)
(6.8003 0.04861 0)
(6.67364 0.04881 0)
(6.54837 0.0485642 0)
(6.42496 0.0480638 0)
(6.3035 0.0474237 0)
(6.18395 0.0467193 0)
(6.06624 0.0459963 0)
(5.95028 0.0452839 0)
(5.83593 0.0446033 0)
(5.72305 0.0439715 0)
(5.61146 0.0434049 0)
(5.50095 0.0429221 0)
(5.39128 0.042546 0)
(5.28212 0.0423064 0)
(5.1731 0.0422421 0)
(5.06372 0.0424046 0)
(4.95334 0.0428617 0)
(4.84115 0.0437031 0)
(4.72609 0.0450482 0)
(4.60677 0.0470556 0)
(4.48142 0.0499368 0)
(4.34767 0.0539714 0)
(4.20248 0.0595227 0)
(4.04174 0.0670883 0)
(3.86033 0.0771397 0)
(3.65143 0.0909212 0)
(3.40496 0.107618 0)
(3.11653 0.133273 0)
(2.74237 0.168375 0)
(7.35921 0.025854 0)
(7.42099 0.0357013 0)
(7.47619 0.03749 0)
(7.52665 0.0395286 0)
(7.57296 0.040992 0)
(7.614 0.0422063 0)
(7.64977 0.0434489 0)
(7.68066 0.0447273 0)
(7.707 0.0460404 0)
(7.72906 0.047397 0)
(7.74713 0.0488007 0)
(7.76145 0.0502557 0)
(7.77223 0.0517703 0)
(7.77967 0.0533574 0)
(7.7839 0.0550361 0)
(7.78505 0.056834 0)
(7.7832 0.0587896 0)
(7.77839 0.0609564 0)
(7.77062 0.0634076 0)
(7.75982 0.0662422 0)
(7.74586 0.0695946 0)
(7.72851 0.0736467 0)
(7.7074 0.0786456 0)
(7.68199 0.0849274 0)
(7.6515 0.0929524 0)
(7.61478 0.103345 0)
(7.57027 0.116973 0)
(7.51558 0.135 0)
(7.44767 0.159025 0)
(7.36099 0.1914 0)
(7.25136 0.234482 0)
(7.10084 0.295536 0)
(6.92392 0.373908 0)
(7.33542 0.00691663 0)
(7.3457 0.0101116 0)
(7.35484 0.0126778 0)
(7.36282 0.0160848 0)
(7.37149 0.0189522 0)
(7.38072 0.021447 0)
(7.39045 0.0237959 0)
(7.40083 0.0260079 0)
(7.41186 0.0281038 0)
(7.42348 0.030123 0)
(7.43566 0.0320978 0)
(7.44832 0.0340571 0)
(7.46141 0.0360302 0)
(7.47486 0.0380483 0)
(7.48862 0.0401459 0)
(7.5026 0.0423648 0)
(7.51676 0.0447568 0)
(7.53104 0.0473884 0)
(7.54539 0.0503472 0)
(7.55978 0.0537495 0)
(7.57417 0.0577513 0)
(7.58856 0.0625635 0)
(7.60299 0.0684737 0)
(7.6175 0.0758742 0)
(7.6322 0.0853079 0)
(7.64729 0.0975181 0)
(7.66305 0.113558 0)
(7.67993 0.134839 0)
(7.69859 0.163487 0)
(7.71997 0.2021 0)
(7.74552 0.255267 0)
(7.77776 0.327257 0)
(7.82073 0.427536 0)
(7.33494 0.00925152 0)
(7.34257 0.0199848 0)
(7.3483 0.0253922 0)
(7.35192 0.0290308 0)
(7.35514 0.0314065 0)
(7.35801 0.0330391 0)
(7.36047 0.0343427 0)
(7.36272 0.0354595 0)
(7.36483 0.0364685 0)
(7.36686 0.0374349 0)
(7.36884 0.0384023 0)
(7.3708 0.0394014 0)
(7.37277 0.0404598 0)
(7.37477 0.0416047 0)
(7.37679 0.0428661 0)
(7.37885 0.0442798 0)
(7.38095 0.0458909 0)
(7.38308 0.0477574 0)
(7.38525 0.0499555 0)
(7.38746 0.0525854 0)
(7.38971 0.0557805 0)
(7.39204 0.0597182 0)
(7.3945 0.0646371 0)
(7.39719 0.0708568 0)
(7.40029 0.0788106 0)
(7.40412 0.0890802 0)
(7.4092 0.102462 0)
(7.41643 0.120015 0)
(7.4272 0.143206 0)
(7.44403 0.173948 0)
(7.47032 0.214759 0)
(7.51393 0.268968 0)
(7.58119 0.337899 0)
(7.33401 0.00633158 0)
(7.33883 0.0125485 0)
(7.34362 0.0152805 0)
(7.34744 0.0177707 0)
(7.35103 0.0200101 0)
(7.35435 0.0219696 0)
(7.35725 0.0238274 0)
(7.35985 0.025624 0)
(7.36222 0.0273661 0)
(7.36437 0.0290766 0)
(7.36632 0.0307772 0)
(7.36808 0.0324882 0)
(7.36966 0.0342328 0)
(7.37106 0.0360381 0)
(7.37228 0.0379359 0)
(7.37331 0.0399655 0)
(7.37414 0.0421759 0)
(7.37475 0.0446294 0)
(7.37514 0.0474062 0)
(7.3753 0.0506101 0)
(7.37522 0.0543763 0)
(7.37491 0.0588812 0)
(7.37441 0.064355 0)
(7.37379 0.0710964 0)
(7.37317 0.0794939 0)
(7.37282 0.0900459 0)
(7.37315 0.103392 0)
(7.37485 0.120327 0)
(7.37904 0.14182 0)
(7.3877 0.168981 0)
(7.40345 0.202822 0)
(7.43191 0.244322 0)
(7.47808 0.29169 0)
(7.33376 0.00528381 0)
(7.33783 0.0129148 0)
(7.34233 0.0180381 0)
(7.34596 0.0221722 0)
(7.34922 0.0253851 0)
(7.35223 0.0278365 0)
(7.35491 0.0298409 0)
(7.35736 0.0315625 0)
(7.35964 0.0330915 0)
(7.36177 0.0345054 0)
(7.36376 0.0358638 0)
(7.36562 0.0372121 0)
(7.36735 0.0385901 0)
(7.36896 0.0400359 0)
(7.37045 0.0415888 0)
(7.37179 0.0432928 0)
(7.373 0.0452 0)
(7.37406 0.0473742 0)
(7.37497 0.0498947 0)
(7.37573 0.0528613 0)
(7.37636 0.0564002 0)
(7.3769 0.0606717 0)
(7.3774 0.0658803 0)
(7.378 0.0722839 0)
(7.37887 0.0802065 0)
(7.38032 0.0900469 0)
(7.38282 0.102283 0)
(7.38714 0.117467 0)
(7.39436 0.13617 0)
(7.40626 0.158933 0)
(7.42506 0.185903 0)
(7.45484 0.216791 0)
(7.49874 0.249029 0)
(7.33347 0.00437114 0)
(7.3363 0.0108475 0)
(7.33985 0.0148101 0)
(7.34301 0.0177315 0)
(7.346 0.0200665 0)
(7.3489 0.0219892 0)
(7.35159 0.0237162 0)
(7.35409 0.0253486 0)
(7.35645 0.0269256 0)
(7.35866 0.0284823 0)
(7.36075 0.0300488 0)
(7.36272 0.03165 0)
(7.36458 0.0333112 0)
(7.36632 0.0350602 0)
(7.36795 0.0369294 0)
(7.36948 0.038957 0)
(7.3709 0.04119 0)
(7.37222 0.0436866 0)
(7.37346 0.0465192 0)
(7.37464 0.0497797 0)
(7.37579 0.0535836 0)
(7.37699 0.0580744 0)
(7.37833 0.0634286 0)
(7.37999 0.0698598 0)
(7.3822 0.0776206 0)
(7.38534 0.0870015 0)
(7.38993 0.0983165 0)
(7.39676 0.111877 0)
(7.4069 0.127908 0)
(7.42195 0.146464 0)
(7.44377 0.167087 0)
(7.47543 0.188689 0)
(7.5188 0.208496 0)
(7.33332 0.00369062 0)
(7.33556 0.00979695 0)
(7.33873 0.0142497 0)
(7.34177 0.0179166 0)
(7.34465 0.0210245 0)
(7.34742 0.023612 0)
(7.35 0.02583 0)
(7.35239 0.0277941 0)
(7.35465 0.0295744 0)
(7.35678 0.0312328 0)
(7.35879 0.0328235 0)
(7.36071 0.0343912 0)
(7.36253 0.0359766 0)
(7.36427 0.0376193 0)
(7.36593 0.03936 0)
(7.36751 0.0412431 0)
(7.36902 0.0433193 0)
(7.37048 0.0456477 0)
(7.37191 0.0482994 0)
(7.37335 0.051358 0)
(7.37486 0.0549229 0)
(7.37653 0.0591119 0)
(7.37848 0.0640638 0)
(7.3809 0.0699385 0)
(7.38406 0.0769127 0)
(7.38834 0.0851689 0)
(7.39428 0.0948681 0)
(7.40262 0.10611 0)
(7.41432 0.118841 0)
(7.4307 0.132764 0)
(7.45321 0.147063 0)
(7.48394 0.160282 0)
(7.52387 0.169842 0)
(7.33322 0.00319152 0)
(7.33493 0.00874094 0)
(7.33755 0.0128731 0)
(7.34018 0.0161078 0)
(7.34276 0.018737 0)
(7.3453 0.0208923 0)
(7.34774 0.0227499 0)
(7.35007 0.0244368 0)
(7.35231 0.0260228 0)
(7.35445 0.0275597 0)
(7.35651 0.0290899 0)
(7.35848 0.0306476 0)
(7.36038 0.0322636 0)
(7.36222 0.0339688 0)
(7.36399 0.0357959 0)
(7.36571 0.0377813 0)
(7.36739 0.0399669 0)
(7.36907 0.0424016 0)
(7.37075 0.0451427 0)
(7.37251 0.0482586 0)
(7.37441 0.0518304 0)
(7.37655 0.0559509 0)
(7.37907 0.0607225 0)
(7.38217 0.0662522 0)
(7.38613 0.0726416 0)
(7.39132 0.0799696 0)
(7.39823 0.0882614 0)
(7.40751 0.0974458 0)
(7.41997 0.107269 0)
(7.43659 0.117215 0)
(7.45841 0.126304 0)
(7.48671 0.132993 0)
(7.52179 0.135075 0)
(7.33316 0.0027983 0)
(7.33452 0.00786955 0)
(7.33677 0.0119043 0)
(7.3392 0.0152344 0)
(7.34165 0.0180963 0)
(7.3441 0.0205674 0)
(7.34648 0.0227484 0)
(7.34876 0.0247264 0)
(7.35095 0.0265571 0)
(7.35306 0.0282882 0)
(7.35509 0.0299635 0)
(7.35705 0.0316217 0)
(7.35896 0.0332988 0)
(7.36081 0.0350302 0)
(7.36262 0.0368522 0)
(7.36441 0.0388031 0)
(7.36619 0.0409249 0)
(7.368 0.0432641 0)
(7.36987 0.0458724 0)
(7.37187 0.0488068 0)
(7.37406 0.0521291 0)
(7.37657 0.0559042 0)
(7.37953 0.0601966 0)
(7.38315 0.0650634 0)
(7.38769 0.070541 0)
(7.39349 0.0766256 0)
(7.40097 0.0832405 0)
(7.41067 0.0901946 0)
(7.4232 0.0971104 0)
(7.43927 0.103362 0)
(7.45951 0.107947 0)
(7.4846 0.10941 0)
(7.5144 0.10598 0)
(7.33312 0.00248712 0)
(7.33421 0.00711917 0)
(7.33613 0.0109426 0)
(7.33829 0.0141086 0)
(7.34051 0.0167924 0)
(7.34276 0.0190744 0)
(7.34499 0.0210585 0)
(7.34717 0.0228436 0)
(7.34929 0.0244991 0)
(7.35136 0.0260792 0)
(7.35339 0.0276297 0)
(7.35537 0.0291889 0)
(7.35731 0.0307906 0)
(7.35923 0.0324659 0)
(7.36113 0.0342461 0)
(7.36303 0.0361628 0)
(7.36495 0.0382496 0)
(7.36693 0.0405424 0)
(7.36902 0.0430796 0)
(7.37126 0.0459016 0)
(7.37376 0.0490496 0)
(7.3766 0.052562 0)
(7.37995 0.0564687 0)
(7.38398 0.0607809 0)
(7.38892 0.065478 0)
(7.39508 0.0704872 0)
(7.4028 0.075655 0)
(7.41249 0.0807126 0)
(7.42459 0.085222 0)
(7.43954 0.0885334 0)
(7.45767 0.089715 0)
(7.47923 0.0874958 0)
(7.50378 0.0805331 0)
(7.33309 0.00223211 0)
(7.33399 0.00646686 0)
(7.33565 0.0100863 0)
(7.3376 0.013161 0)
(7.33967 0.0158335 0)
(7.34181 0.0181777 0)
(7.34397 0.0202708 0)
(7.34609 0.0221868 0)
(7.34819 0.0239786 0)
(7.35025 0.0256885 0)
(7.35227 0.0273542 0)
(7.35425 0.0290091 0)
(7.35622 0.0306839 0)
(7.35817 0.0324082 0)
(7.36012 0.034211 0)
(7.36209 0.0361214 0)
(7.3641 0.0381687 0)
(7.36621 0.0403825 0)
(7.36844 0.0427921 0)
(7.37086 0.0454249 0)
(7.37356 0.0483042 0)
(7.37664 0.051445 0)
(7.38023 0.0548469 0)
(7.3845 0.0584854 0)
(7.38965 0.062298 0)
(7.39591 0.0661667 0)
(7.40356 0.0698936 0)
(7.41289 0.0731741 0)
(7.42416 0.0755609 0)
(7.43761 0.0764383 0)
(7.45334 0.0749948 0)
(7.47128 0.070184 0)
(7.49091 0.0610434 0)
(7.33308 0.00201802 0)
(7.33383 0.00589595 0)
(7.33526 0.00929957 0)
(7.33702 0.0122375 0)
(7.33892 0.0148046 0)
(7.34092 0.017058 0)
(7.34295 0.0190598 0)
(7.34498 0.0208771 0)
(7.347 0.0225652 0)
(7.34901 0.0241702 0)
(7.351 0.0257327 0)
(7.35298 0.0272884 0)
(7.35496 0.0288683 0)
(7.35695 0.0305004 0)
(7.35895 0.0322107 0)
(7.361 0.0340234 0)
(7.36312 0.0359611 0)
(7.36534 0.0380446 0)
(7.36772 0.040292 0)
(7.3703 0.0427165 0)
(7.37318 0.0453238 0)
(7.37644 0.0481071 0)
(7.3802 0.0510407 0)
(7.3846 0.054071 0)
(7.3898 0.0571044 0)
(7.39598 0.0599932 0)
(7.40333 0.0625172 0)
(7.41203 0.0643657 0)
(7.42223 0.0651165 0)
(7.434 0.0642249 0)
(7.44727 0.0610228 0)
(7.46179 0.0546914 0)
(7.47701 0.044585 0)
(7.33306 0.001834 0)
(7.3337 0.0053895 0)
(7.33496 0.00857781 0)
(7.33655 0.0113789 0)
(7.33832 0.0138604 0)
(7.3402 0.0160729 0)
(7.34214 0.0180691 0)
(7.34412 0.0199051 0)
(7.3461 0.021628 0)
(7.34808 0.0232761 0)
(7.35007 0.0248833 0)
(7.35206 0.0264793 0)
(7.35405 0.0280901 0)
(7.35607 0.0297391 0)
(7.35812 0.0314473 0)
(7.36023 0.0332337 0)
(7.36241 0.0351147 0)
(7.36472 0.0371037 0)
(7.36719 0.0392091 0)
(7.36988 0.0414326 0)
(7.37286 0.0437659 0)
(7.3762 0.0461859 0)
(7.38002 0.0486488 0)
(7.38442 0.0510824 0)
(7.38951 0.0533764 0)
(7.39544 0.0553717 0)
(7.4023 0.0568478 0)
(7.41021 0.0575124 0)
(7.41919 0.0569915 0)
(7.4292 0.054829 0)
(7.44009 0.050502 0)
(7.45149 0.0434007 0)
(7.46287 0.0331305 0)
(7.33305 0.00167249 0)
(7.33361 0.0049355 0)
(7.33472 0.007912 0)
(7.33616 0.0105665 0)
(7.3378 0.0129409 0)
(7.33956 0.0150727 0)
(7.34141 0.0170021 0)
(7.3433 0.0187748 0)
(7.34522 0.0204325 0)
(7.34716 0.0220114 0)
(7.34911 0.0235442 0)
(7.35108 0.02506 0)
(7.35307 0.0265842 0)
(7.3551 0.0281388 0)
(7.35718 0.0297425 0)
(7.35933 0.0314104 0)
(7.36157 0.033154 0)
(7.36394 0.0349797 0)
(7.36648 0.0368875 0)
(7.36924 0.038869 0)
(7.37227 0.0409042 0)
(7.37565 0.0429573 0)
(7.37945 0.0449717 0)
(7.38375 0.0468639 0)
(7.38864 0.048516 0)
(7.39419 0.0497692 0)
(7.40046 0.0504159 0)
(7.40748 0.0501959 0)
(7.41521 0.0487949 0)
(7.42352 0.0458496 0)
(7.43221 0.040972 0)
(7.44089 0.0337324 0)
(7.44907 0.0239252 0)
(7.33305 0.00152821 0)
(7.33353 0.00452387 0)
(7.33452 0.00729422 0)
(7.33584 0.00979869 0)
(7.33736 0.0120623 0)
(7.33902 0.0141147 0)
(7.34078 0.0159893 0)
(7.34261 0.0177249 0)
(7.34448 0.0193581 0)
(7.34639 0.020921 0)
(7.34832 0.022442 0)
(7.35029 0.0239459 0)
(7.35229 0.0254537 0)
(7.35433 0.0269828 0)
(7.35643 0.028547 0)
(7.35861 0.0301564 0)
(7.36089 0.0318163 0)
(7.3633 0.0335267 0)
(7.36587 0.0352804 0)
(7.36865 0.0370609 0)
(7.37168 0.0388398 0)
(7.37502 0.0405735 0)
(7.37872 0.0421988 0)
(7.38284 0.0436289 0)
(7.38743 0.0447482 0)
(7.39253 0.0454088 0)
(7.39814 0.045427 0)
(7.40423 0.0445834 0)
(7.41073 0.0426269 0)
(7.41746 0.0392833 0)
(7.42421 0.0342813 0)
(7.43057 0.0273379 0)
(7.43614 0.0183836 0)
(7.33304 0.00139735 0)
(7.33347 0.0041467 0)
(7.33437 0.00671768 0)
(7.33557 0.00906967 0)
(7.33698 0.0112152 0)
(7.33855 0.0131753 0)
(7.34023 0.0149756 0)
(7.34198 0.0166469 0)
(7.3438 0.0182197 0)
(7.34566 0.0197219 0)
(7.34756 0.0211786 0)
(7.3495 0.0226121 0)
(7.35148 0.024041 0)
(7.35352 0.0254805 0)
(7.35563 0.0269419 0)
(7.35781 0.0284317 0)
(7.3601 0.0299517 0)
(7.36252 0.0314971 0)
(7.36509 0.0330557 0)
(7.36785 0.0346057 0)
(7.37084 0.0361136 0)
(7.37409 0.0375318 0)
(7.37765 0.0387953 0)
(7.38153 0.0398193 0)
(7.38577 0.0404965 0)
(7.39037 0.0406955 0)
(7.39529 0.040261 0)
(7.40049 0.0390167 0)
(7.40584 0.0367722 0)
(7.41118 0.0333322 0)
(7.41626 0.0285216 0)
(7.42073 0.0221726 0)
(7.42427 0.0143083 0)
(7.33304 0.00127709 0)
(7.33343 0.00379767 0)
(7.33424 0.0061763 0)
(7.33535 0.00837509 0)
(7.33666 0.0103983 0)
(7.33814 0.0122609 0)
(7.33974 0.0139829 0)
(7.34143 0.0155897 0)
(7.34319 0.0171076 0)
(7.34501 0.0185608 0)
(7.34688 0.0199713 0)
(7.3488 0.0213582 0)
(7.35078 0.0227371 0)
(7.35281 0.0241197 0)
(7.35491 0.0255133 0)
(7.35709 0.0269208 0)
(7.35938 0.0283397 0)
(7.36178 0.0297609 0)
(7.36433 0.0311681 0)
(7.36705 0.0325359 0)
(7.36995 0.0338283 0)
(7.37308 0.0349969 0)
(7.37644 0.0359791 0)
(7.38005 0.0366966 0)
(7.38391 0.037055 0)
(7.38799 0.0369436 0)
(7.39225 0.0362376 0)
(7.39661 0.034803 0)
(7.40094 0.0325035 0)
(7.40506 0.0292106 0)
(7.40877 0.0248253 0)
(7.41175 0.0192649 0)
(7.41374 0.0126109 0)
(7.33303 0.00116536 0)
(7.33339 0.00347173 0)
(7.33413 0.00566489 0)
(7.33515 0.00771077 0)
(7.33639 0.00960829 0)
(7.33778 0.011367 0)
(7.33931 0.013002 0)
(7.34094 0.0145332 0)
(7.34264 0.0159819 0)
(7.34442 0.0173685 0)
(7.34625 0.0187116 0)
(7.34813 0.0200271 0)
(7.35008 0.0213279 0)
(7.35209 0.0226231 0)
(7.35417 0.0239177 0)
(7.35633 0.025212 0)
(7.35859 0.0265008 0)
(7.36096 0.027773 0)
(7.36345 0.0290102 0)
(7.36609 0.0301859 0)
(7.36888 0.0312642 0)
(7.37185 0.032199 0)
(7.37499 0.0329331 0)
(7.37831 0.0333977 0)
(7.38177 0.0335133 0)
(7.38536 0.0331908 0)
(7.38899 0.0323352 0)
(7.3926 0.0308501 0)
(7.39605 0.0286457 0)
(7.39917 0.0256471 0)
(7.40179 0.021812 0)
(7.40364 0.0171184 0)
(7.40453 0.0116806 0)
(7.33303 0.00106055 0)
(7.33335 0.00316486 0)
(7.33404 0.00517898 0)
(7.33499 0.00707298 0)
(7.33615 0.00884251 0)
(7.33747 0.0104931 0)
(7.33893 0.012036 0)
(7.3405 0.0134869 0)
(7.34215 0.0148635 0)
(7.34387 0.016183 0)
(7.34566 0.017461 0)
(7.34752 0.0187111 0)
(7.34943 0.0199437 0)
(7.35141 0.0211654 0)
(7.35346 0.0223788 0)
(7.35559 0.0235818 0)
(7.35781 0.0247673 0)
(7.36013 0.0259222 0)
(7.36255 0.0270273 0)
(7.36509 0.0280561 0)
(7.36775 0.0289745 0)
(7.37054 0.0297404 0)
(7.37345 0.0303037 0)
(7.37647 0.0306068 0)
(7.37956 0.0305857 0)
(7.38268 0.0301726 0)
(7.38576 0.0292992 0)
(7.38871 0.0279018 0)
(7.39142 0.0259283 0)
(7.39375 0.0233445 0)
(7.39553 0.0201483 0)
(7.39656 0.0163577 0)
(7.39671 0.0121017 0)
(7.33303 0.000961413 0)
(7.33333 0.00287379 0)
(7.33396 0.00471473 0)
(7.33485 0.00645831 0)
(7.33594 0.00809827 0)
(7.3372 0.00963711 0)
(7.33859 0.0110826 0)
(7.3401 0.0124469 0)
(7.34169 0.0137439 0)
(7.34337 0.0149876 0)
(7.34512 0.0161908 0)
(7.34693 0.0173644 0)
(7.3488 0.0185163 0)
(7.35074 0.0196512 0)
(7.35275 0.0207699 0)
(7.35484 0.0218689 0)
(7.357 0.0229399 0)
(7.35924 0.0239696 0)
(7.36158 0.0249391 0)
(7.36401 0.0258238 0)
(7.36652 0.026593 0)
(7.36913 0.0272102 0)
(7.3718 0.0276336 0)
(7.37453 0.027817 0)
(7.37726 0.027712 0)
(7.37996 0.0272697 0)
(7.38256 0.0264451 0)
(7.38497 0.0252013 0)
(7.3871 0.0235152 0)
(7.38881 0.0213817 0)
(7.38999 0.0188255 0)
(7.39047 0.0158893 0)
(7.39017 0.0127039 0)
(7.33303 0.000866968 0)
(7.3333 0.00259586 0)
(7.33389 0.0042689 0)
(7.33473 0.00586386 0)
(7.33576 0.00737353 0)
(7.33695 0.00879824 0)
(7.33829 0.0101432 0)
(7.33974 0.0114175 0)
(7.34128 0.0126323 0)
(7.3429 0.0137988 0)
(7.3446 0.0149276 0)
(7.34637 0.0160274 0)
(7.3482 0.0171045 0)
(7.35009 0.0181617 0)
(7.35205 0.0191987 0)
(7.35408 0.0202108 0)
(7.35617 0.0211893 0)
(7.35834 0.0221213 0)
(7.36058 0.0229889 0)
(7.36288 0.02377 0)
(7.36525 0.0244379 0)
(7.36767 0.0249622 0)
(7.37011 0.0253094 0)
(7.37257 0.0254444 0)
(7.37499 0.0253323 0)
(7.37733 0.0249411 0)
(7.37952 0.0242447 0)
(7.3815 0.0232268 0)
(7.38317 0.021885 0)
(7.38444 0.0202342 0)
(7.38522 0.0183148 0)
(7.38537 0.016182 0)
(7.38485 0.0139601 0)
(7.33303 0.000776407 0)
(7.33328 0.00232886 0)
(7.33384 0.0038386 0)
(7.33463 0.00528666 0)
(7.3356 0.00666544 0)
(7.33674 0.00797359 0)
(7.33802 0.0092141 0)
(7.33941 0.0103935 0)
(7.3409 0.01152 0)
(7.34247 0.0126027 0)
(7.34412 0.0136497 0)
(7.34584 0.0146678 0)
(7.34762 0.0156615 0)
(7.34946 0.0166326 0)
(7.35136 0.0175796 0)
(7.35333 0.0184977 0)
(7.35535 0.0193783 0)
(7.35743 0.0202094 0)
(7.35956 0.0209754 0)
(7.36174 0.021657 0)
(7.36396 0.0222325 0)
(7.36619 0.0226776 0)
(7.36843 0.0229671 0)
(7.37064 0.0230759 0)
(7.37279 0.0229811 0)
(7.37483 0.0226645 0)
(7.3767 0.0221148 0)
(7.37834 0.0213305 0)
(7.37969 0.0203234 0)
(7.38066 0.0191207 0)
(7.38119 0.0177704 0)
(7.38119 0.0163322 0)
(7.38063 0.0149185 0)
(7.33302 0.00068906 0)
(7.33327 0.00207094 0)
(7.33379 0.00342152 0)
(7.33453 0.00472484 0)
(7.33546 0.00597346 0)
(7.33655 0.00716503 0)
(7.33777 0.008301 0)
(7.33911 0.00938587 0)
(7.34054 0.0104259 0)
(7.34207 0.0114279 0)
(7.34366 0.0123984 0)
(7.34532 0.0133425 0)
(7.34705 0.0142634 0)
(7.34883 0.0151618 0)
(7.35067 0.0160357 0)
(7.35256 0.0168803 0)
(7.3545 0.0176874 0)
(7.35649 0.0184464 0)
(7.35851 0.0191438 0)
(7.36057 0.0197638 0)
(7.36264 0.020289 0)
(7.36471 0.020701 0)
(7.36676 0.0209816 0)
(7.36876 0.0211145 0)
(7.37067 0.0210866 0)
(7.37247 0.0208901 0)
(7.37409 0.0205242 0)
(7.37549 0.0199977 0)
(7.37661 0.0193312 0)
(7.37741 0.0185578 0)
(7.37782 0.017727 0)
(7.37779 0.016897 0)
(7.37732 0.0161663 0)
(7.33302 0.000604326 0)
(7.33325 0.00182032 0)
(7.33375 0.00301491 0)
(7.33446 0.00417461 0)
(7.33534 0.00529208 0)
(7.33638 0.00636399 0)
(7.33756 0.00739026 0)
(7.33884 0.0083735 0)
(7.34023 0.00931805 0)
(7.3417 0.0102289 0)
(7.34325 0.0111111 0)
(7.34486 0.0119683 0)
(7.34653 0.012803 0)
(7.34825 0.0136153 0)
(7.35003 0.0144031 0)
(7.35185 0.0151618 0)
(7.35371 0.0158847 0)
(7.3556 0.0165625 0)
(7.35752 0.0171845 0)
(7.35946 0.0177381 0)
(7.36139 0.0182103 0)
(7.36331 0.0185881 0)
(7.3652 0.0188598 0)
(7.36702 0.019016 0)
(7.36875 0.0190513 0)
(7.37035 0.0189652 0)
(7.37179 0.0187646 0)
(7.37303 0.0184643 0)
(7.37402 0.0180891 0)
(7.37473 0.0176738 0)
(7.37513 0.0172657 0)
(7.37518 0.0169179 0)
(7.37488 0.0167141 0)
(7.33302 0.000521689 0)
(7.33324 0.00157577 0)
(7.33371 0.00261779 0)
(7.33439 0.003637 0)
(7.33523 0.00462687 0)
(7.33623 0.00558388 0)
(7.33736 0.00650712 0)
(7.33859 0.00739782 0)
(7.33993 0.00825868 0)
(7.34134 0.00909309 0)
(7.34283 0.00990439 0)
(7.34438 0.0106952 0)
(7.34599 0.0114667 0)
(7.34765 0.0122184 0)
(7.34936 0.0129482 0)
(7.3511 0.0136516 0)
(7.35287 0.0143229 0)
(7.35467 0.0149544 0)
(7.35649 0.0155376 0)
(7.35831 0.016063 0)
(7.36012 0.0165212 0)
(7.36191 0.0169038 0)
(7.36366 0.0172041 0)
(7.36533 0.0174179 0)
(7.36691 0.0175453 0)
(7.36838 0.017591 0)
(7.36969 0.0175663 0)
(7.37083 0.0174889 0)
(7.37176 0.0173846 0)
(7.37246 0.017287 0)
(7.37291 0.0172386 0)
(7.37309 0.017285 0)
(7.37302 0.0174956 0)
(7.33302 0.000440529 0)
(7.33323 0.00133494 0)
(7.33368 0.00222506 0)
(7.33433 0.00310191 0)
(7.33515 0.00395887 0)
(7.33611 0.00479164 0)
(7.3372 0.00559823 0)
(7.3384 0.00637869 0)
(7.33969 0.00713458 0)
(7.34106 0.0078683 0)
(7.3425 0.00858235 0)
(7.344 0.0092788 0)
(7.34555 0.00995869 0)
(7.34715 0.0106216 0)
(7.34879 0.0112658 0)
(7.35046 0.0118877 0)
(7.35216 0.0124827 0)
(7.35388 0.0130449 0)
(7.3556 0.013568 0)
(7.35732 0.0140455 0)
(7.35903 0.0144713 0)
(7.3607 0.0148404 0)
(7.36233 0.01515 0)
(7.36389 0.0153997 0)
(7.36537 0.0155931 0)
(7.36673 0.0157382 0)
(7.36797 0.0158477 0)
(7.36906 0.0159404 0)
(7.36998 0.0160406 0)
(7.37072 0.0161784 0)
(7.37127 0.0163903 0)
(7.37163 0.0167138 0)
(7.3718 0.0172054 0)
(7.33302 0.000360459 0)
(7.33322 0.00109808 0)
(7.33366 0.00184108 0)
(7.33428 0.00258366 0)
(7.33506 0.00332063 0)
(7.33599 0.00404791 0)
(7.33703 0.00476267 0)
(7.33818 0.00546316 0)
(7.33942 0.00614898 0)
(7.34074 0.00682079 0)
(7.34212 0.00747946 0)
(7.34357 0.0081256 0)
(7.34506 0.00875915 0)
(7.34659 0.00937918 0)
(7.34816 0.00998365 0)
(7.34976 0.0105695 0)
(7.35137 0.0111329 0)
(7.35301 0.0116696 0)
(7.35464 0.0121749 0)
(7.35627 0.0126447 0)
(7.35788 0.0130753 0)
(7.35946 0.0134645 0)
(7.361 0.0138122 0)
(7.36247 0.0141208 0)
(7.36387 0.014396 0)
(7.36517 0.0146469 0)
(7.36637 0.0148871 0)
(7.36745 0.015134 0)
(7.3684 0.0154098 0)
(7.36922 0.0157399 0)
(7.36989 0.0161546 0)
(7.37043 0.0166832 0)
(7.37086 0.0173702 0)
(7.33302 0.000280218 0)
(7.33322 0.000858349 0)
(7.33365 0.00144713 0)
(7.33426 0.00204162 0)
(7.33503 0.00263594 0)
(7.33593 0.00322539 0)
(7.33696 0.00380729 0)
(7.33808 0.00438013 0)
(7.33929 0.00494372 0)
(7.34057 0.00549859 0)
(7.34192 0.00604543 0)
(7.34331 0.00658503 0)
(7.34475 0.00711774 0)
(7.34623 0.00764292 0)
(7.34774 0.00815893 0)
(7.34927 0.00866351 0)
(7.35082 0.00915384 0)
(7.35238 0.00962676 0)
(7.35393 0.0100791 0)
(7.35548 0.0105083 0)
(7.35701 0.0109124 0)
(7.35852 0.0112909 0)
(7.35998 0.0116454 0)
(7.36139 0.0119794 0)
(7.36273 0.0122992 0)
(7.364 0.0126141 0)
(7.36519 0.0129364 0)
(7.36629 0.0132815 0)
(7.36729 0.0136678 0)
(7.36819 0.0141161 0)
(7.36901 0.0146498 0)
(7.36973 0.0152907 0)
(7.37039 0.0160731 0)
(7.33302 0.000200529 0)
(7.33321 0.00062537 0)
(7.33362 0.00107592 0)
(7.33422 0.00155166 0)
(7.33496 0.00204796 0)
(7.33583 0.00255927 0)
(7.33681 0.00307991 0)
(7.33789 0.00360326 0)
(7.33905 0.00412553 0)
(7.34028 0.00464572 0)
(7.34157 0.00516277 0)
(7.34291 0.0056754 0)
(7.3443 0.00618263 0)
(7.34572 0.00668339 0)
(7.34717 0.00717618 0)
(7.34863 0.00765923 0)
(7.35012 0.00813054 0)
(7.35161 0.00858814 0)
(7.3531 0.0090303 0)
(7.35458 0.00945588 0)
(7.35605 0.00986462 0)
(7.35749 0.0102575 0)
(7.3589 0.010637 0)
(7.36026 0.0110076 0)
(7.36158 0.0113757 0)
(7.36284 0.0117501 0)
(7.36403 0.0121417 0)
(7.36516 0.0125636 0)
(7.36623 0.0130304 0)
(7.36723 0.0135584 0)
(7.36818 0.0141652 0)
(7.36907 0.0148657 0)
(7.36995 0.0156861 0)
(7.33302 0.000115233 0)
(7.33322 0.000364898 0)
(7.33365 0.000640755 0)
(7.33426 0.000941473 0)
(7.33502 0.00126202 0)
(7.3359 0.00159812 0)
(7.33689 0.0019478 0)
(7.33795 0.00230969 0)
(7.3391 0.00268137 0)
(7.34031 0.00306104 0)
(7.34156 0.00344695 0)
(7.34287 0.00383877 0)
(7.3442 0.00423655 0)
(7.34557 0.00463909 0)
(7.34696 0.00504383 0)
(7.34837 0.00544867 0)
(7.34979 0.00585187 0)
(7.35122 0.00625166 0)
(7.35264 0.00664655 0)
(7.35407 0.00703571 0)
(7.35547 0.00741916 0)
(7.35686 0.00779805 0)
(7.35823 0.00817481 0)
(7.35956 0.00855335 0)
(7.36085 0.00893919 0)
(7.36211 0.00933939 0)
(7.36332 0.00976259 0)
(7.36449 0.0102187 0)
(7.36562 0.0107186 0)
(7.36672 0.0112738 0)
(7.36778 0.0118965 0)
(7.36883 0.0125957 0)
(7.36988 0.0133905 0)
(7.33302 3.70074e-05 0)
(7.33321 0.00014747 0)
(7.33362 0.000313535 0)
(7.3342 0.000540668 0)
(7.33492 0.000820021 0)
(7.33576 0.00114092 0)
(7.33672 0.00149476 0)
(7.33775 0.00186038 0)
(7.33886 0.00222999 0)
(7.34004 0.00260919 0)
(7.34126 0.00299487 0)
(7.34252 0.0033826 0)
(7.34382 0.00376962 0)
(7.34515 0.00415641 0)
(7.3465 0.00454161 0)
(7.34787 0.00492461 0)
(7.34924 0.00530469 0)
(7.35062 0.00568126 0)
(7.35201 0.00605418 0)
(7.35339 0.00642394 0)
(7.35476 0.00679171 0)
(7.35611 0.00715933 0)
(7.35745 0.00752954 0)
(7.35877 0.00790617 0)
(7.36006 0.00829412 0)
(7.36132 0.00869932 0)
(7.36256 0.0091286 0)
(7.36377 0.00958946 0)
(7.36497 0.0100898 0)
(7.36614 0.0106374 0)
(7.36731 0.0112404 0)
(7.36848 0.0119033 0)
(7.36967 0.0126403 0)
(7.33303 -6.52642e-05 0)
(7.33327 -0.000181644 0)
(7.33375 -0.000261769 0)
(7.33441 -0.000292954 0)
(7.3352 -0.000274501 0)
(7.3361 -0.000208954 0)
(7.33707 -0.00010305 0)
(7.3381 4.97702e-05 0)
(7.33919 0.000244746 0)
(7.34034 0.000465704 0)
(7.34153 0.000708099 0)
(7.34275 0.000969355 0)
(7.344 0.00125073 0)
(7.34527 0.00155611 0)
(7.34656 0.00187174 0)
(7.34787 0.00219511 0)
(7.34919 0.00252594 0)
(7.35051 0.00286329 0)
(7.35184 0.00320586 0)
(7.35317 0.00355271 0)
(7.3545 0.00390432 0)
(7.35582 0.00426166 0)
(7.35713 0.00462641 0)
(7.35842 0.00500106 0)
(7.35971 0.00538881 0)
(7.36098 0.00579353 0)
(7.36225 0.00621958 0)
(7.3635 0.00667162 0)
(7.36475 0.00715432 0)
(7.36599 0.00767202 0)
(7.36725 0.00822898 0)
(7.36852 0.0088261 0)
(7.36982 0.00947281 0)
(7.33301 -0.00015031 0)
(7.3332 -0.00037521 0)
(7.33364 -0.000473269 0)
(7.33425 -0.000460909 0)
(7.33501 -0.000369595 0)
(7.33588 -0.000220708 0)
(7.33685 -3.3374e-05 0)
(7.33791 0.000190779 0)
(7.33902 0.000443085 0)
(7.34016 0.00070562 0)
(7.34135 0.000974314 0)
(7.34257 0.00124806 0)
(7.34382 0.00152149 0)
(7.34509 0.00178631 0)
(7.34637 0.00205471 0)
(7.34766 0.00232768 0)
(7.34895 0.00260437 0)
(7.35026 0.00288458 0)
(7.35157 0.00316755 0)
(7.35288 0.00345393 0)
(7.35418 0.00374783 0)
(7.35549 0.00405009 0)
(7.35679 0.00436208 0)
(7.35808 0.00468593 0)
(7.35937 0.00502419 0)
(7.36065 0.00537973 0)
(7.36193 0.0057556 0)
(7.36321 0.00615478 0)
(7.36449 0.00658003 0)
(7.36578 0.00703349 0)
(7.36708 0.00751707 0)
(7.36841 0.0080295 0)
(7.36977 0.00857746 0)
(7.33305 -0.00032193 0)
(7.33342 -0.000963683 0)
(7.33406 -0.00150585 0)
(7.33484 -0.00191691 0)
(7.33571 -0.00220496 0)
(7.33664 -0.00238092 0)
(7.33763 -0.00245916 0)
(7.33866 -0.00246867 0)
(7.33973 -0.00242423 0)
(7.34082 -0.00232701 0)
(7.34195 -0.00218538 0)
(7.34309 -0.00200715 0)
(7.34425 -0.00180321 0)
(7.34543 -0.00158717 0)
(7.34664 -0.00135088 0)
(7.34787 -0.00109716 0)
(7.34911 -0.000830225 0)
(7.35036 -0.000552164 0)
(7.35161 -0.000263175 0)
(7.35288 3.59787e-05 0)
(7.35415 0.000341314 0)
(7.35543 0.000653123 0)
(7.35672 0.00097215 0)
(7.358 0.00129912 0)
(7.35929 0.00163514 0)
(7.36059 0.00198132 0)
(7.36189 0.00233877 0)
(7.36321 0.00270834 0)
(7.36453 0.00309064 0)
(7.36587 0.00348568 0)
(7.36724 0.00389318 0)
(7.36863 0.00431003 0)
(7.37005 0.00474026 0)
(7.333 -0.000353585 0)
(7.33323 -0.000859191 0)
(7.3338 -0.00113053 0)
(7.33458 -0.00126862 0)
(7.33549 -0.00132656 0)
(7.3365 -0.00132313 0)
(7.33757 -0.00127878 0)
(7.33869 -0.00120868 0)
(7.33984 -0.0011216 0)
(7.34102 -0.00102335 0)
(7.34222 -0.000918054 0)
(7.34344 -0.000806941 0)
(7.34467 -0.000686218 0)
(7.34591 -0.000549933 0)
(7.34716 -0.000408774 0)
(7.34841 -0.000262951 0)
(7.34967 -0.000110759 0)
(7.35094 4.93122e-05 0)
(7.35221 0.000219838 0)
(7.35348 0.000402043 0)
(7.35474 0.000593198 0)
(7.35601 0.000794584 0)
(7.35729 0.0010073 0)
(7.35856 0.00123231 0)
(7.35984 0.00147029 0)
(7.36113 0.00172192 0)
(7.36242 0.00198768 0)
(7.36373 0.00226786 0)
(7.36504 0.00256234 0)
(7.36637 0.00287032 0)
(7.36772 0.00319082 0)
(7.36909 0.00352037 0)
(7.3705 0.00386161 0)
(7.33313 -0.000901689 0)
(7.33387 -0.00253785 0)
(7.3348 -0.00370656 0)
(7.33574 -0.00451219 0)
(7.33669 -0.00505797 0)
(7.33768 -0.00539208 0)
(7.33869 -0.00556782 0)
(7.33971 -0.00563183 0)
(7.34075 -0.00561414 0)
(7.34181 -0.00553465 0)
(7.34288 -0.00540909 0)
(7.34397 -0.00525027 0)
(7.34508 -0.00506756 0)
(7.34621 -0.00486579 0)
(7.34736 -0.00464984 0)
(7.34853 -0.00442325 0)
(7.34971 -0.00418905 0)
(7.35091 -0.00395001 0)
(7.35212 -0.00370896 0)
(7.35335 -0.00346727 0)
(7.3546 -0.00322305 0)
(7.35586 -0.00297755 0)
(7.35713 -0.00273168 0)
(7.35841 -0.00248579 0)
(7.35971 -0.00224028 0)
(7.36103 -0.0019955 0)
(7.36236 -0.00175207 0)
(7.36371 -0.00151088 0)
(7.36507 -0.00127333 0)
(7.36646 -0.00104136 0)
(7.36787 -0.000817082 0)
(7.36931 -0.000604713 0)
(7.37077 -0.000402578 0)
(7.33306 -0.000412095 0)
(7.33378 -0.000984666 0)
(7.33505 -0.00134421 0)
(7.33637 -0.00165104 0)
(7.33771 -0.00189799 0)
(7.33907 -0.00209248 0)
(7.34042 -0.00225994 0)
(7.34175 -0.00240736 0)
(7.34308 -0.00253541 0)
(7.3444 -0.00264648 0)
(7.34571 -0.00274218 0)
(7.34701 -0.00282231 0)
(7.34832 -0.00288607 0)
(7.34962 -0.00293343 0)
(7.35092 -0.00296521 0)
(7.35221 -0.00298159 0)
(7.3535 -0.00298235 0)
(7.35479 -0.00296744 0)
(7.35607 -0.00293738 0)
(7.35735 -0.0028928 0)
(7.35862 -0.00283366 0)
(7.3599 -0.00276023 0)
(7.36117 -0.00267286 0)
(7.36244 -0.00257215 0)
(7.36372 -0.00245878 0)
(7.365 -0.00233368 0)
(7.36628 -0.00219795 0)
(7.36757 -0.00205292 0)
(7.36887 -0.00189998 0)
(7.37018 -0.00174095 0)
(7.37149 -0.00157745 0)
(7.37281 -0.00141314 0)
(7.37416 -0.00124614 0)
(7.33439 -0.00361239 0)
(7.3392 -0.00682744 0)
(7.34492 -0.00817174 0)
(7.35108 -0.0090108 0)
(7.35754 -0.00943915 0)
(7.36404 -0.00957274 0)
(7.37045 -0.00955903 0)
(7.37669 -0.00946179 0)
(7.38272 -0.00930897 0)
(7.3885 -0.00912157 0)
(7.39401 -0.00891375 0)
(7.39923 -0.00869413 0)
(7.40417 -0.00846853 0)
(7.40884 -0.0082411 0)
(7.41323 -0.00801505 0)
(7.41737 -0.00779278 0)
(7.42127 -0.00757616 0)
(7.42495 -0.00736662 0)
(7.42843 -0.00716527 0)
(7.43173 -0.00697292 0)
(7.43487 -0.00679018 0)
(7.43788 -0.00661766 0)
(7.44077 -0.00645586 0)
(7.44356 -0.00630526 0)
(7.44629 -0.00616632 0)
(7.44895 -0.00603964 0)
(7.45158 -0.00592602 0)
(7.45419 -0.00582659 0)
(7.45679 -0.00574294 0)
(7.45941 -0.00567708 0)
(7.46205 -0.0056317 0)
(7.46473 -0.00561027 0)
(7.46747 -0.00561473 0)
(7.32975 -0.00398642 0)
(7.32433 -0.00832981 0)
(7.31533 -0.0108256 0)
(7.30456 -0.0126279 0)
(7.29349 -0.0138582 0)
(7.28224 -0.0146375 0)
(7.27097 -0.0151128 0)
(7.25986 -0.0153681 0)
(7.24903 -0.0154538 0)
(7.23854 -0.0154094 0)
(7.22842 -0.0152653 0)
(7.2187 -0.0150453 0)
(7.2094 -0.0147688 0)
(7.20051 -0.0144526 0)
(7.19203 -0.0141109 0)
(7.18396 -0.0137559 0)
(7.17627 -0.013398 0)
(7.16895 -0.0130462 0)
(7.16199 -0.0127085 0)
(7.15535 -0.0123914 0)
(7.14902 -0.0121001 0)
(7.14297 -0.0118386 0)
(7.13718 -0.01161 0)
(7.13162 -0.0114167 0)
(7.12628 -0.0112606 0)
(7.12113 -0.0111435 0)
(7.11615 -0.0110673 0)
(7.11132 -0.011034 0)
(7.10662 -0.0110463 0)
(7.10202 -0.0111067 0)
(7.09751 -0.0112186 0)