/*--------------------------------*- C++ -*----------------------------------*\
  =========                 |
  \\      /  F ield         | OpenFOAM: The Open Source CFD Toolbox
   \\    /   O peration     | Website:  https://openfoam.org
    \\  /    A nd           | Version:  10
     \\/     M anipulation  |
\*---------------------------------------------------------------------------*/
FoamFile
{
    format      ascii;
    class       volScalarField;
    location    "200";
    object      epsilon;
}
// * * * * * * * * * * * * * * * * * * * * * * * * * * * * * * * * * * * * * //

dimensions      [0 2 -3 0 0 0 0];

internalField   nonuniform List<scalar> 
6820
(
23.3479
22.8004
22.2986
21.7956
21.2906
20.7983
20.3323
19.9019
19.5115
19.1624
18.8536
18.5831
18.3481
18.1456
17.9726
17.8263
17.7038
17.6027
17.5206
17.4556
17.4056
17.3691
17.3444
17.3303
17.3255
17.3291
17.3391
17.3598
17.374
17.4246
17.3578
18.1936
10.8729
5.2475
7.40632
8.54783
9.1635
9.54973
9.84098
10.0952
10.338
10.58
10.8252
11.0747
11.3284
11.5857
11.8459
12.1082
12.372
12.6365
12.9012
13.1656
13.4293
13.692
13.9536
14.2139
14.4734
14.7327
14.9929
15.2566
15.5297
15.8121
16.1701
16.3673
17.6923
16.6047
3.71892
4.27984
4.80503
5.21575
5.52684
5.76849
5.96462
6.13161
6.28029
6.41772
6.54858
6.67592
6.80174
6.92731
7.0534
7.18045
7.30871
7.43823
7.56901
7.70098
7.83404
7.96812
8.10316
8.23919
8.37633
8.51493
8.65556
8.79984
8.9487
9.11238
9.26062
9.58624
9.7052
3.53759
3.62334
3.77159
3.93762
4.09556
4.23615
4.35838
4.46444
4.55736
4.64002
4.71488
4.78396
4.84882
4.91071
4.97056
5.02908
5.08682
5.14418
5.20144
5.25881
5.31647
5.37451
5.43306
5.4922
5.55208
5.61289
5.67492
5.7387
5.80493
5.87566
5.94844
6.04081
6.14451
3.52015
3.50151
3.51115
3.54398
3.59069
3.64319
3.69619
3.74685
3.79394
3.83717
3.87673
3.91302
3.94652
3.9777
4.00703
4.03487
4.06158
4.08744
4.11268
4.1375
4.16206
4.18651
4.21097
4.23554
4.26036
4.28554
4.31128
4.3378
4.36546
4.39484
4.42606
4.46078
4.50224
3.51931
3.48209
3.45346
3.43537
3.42736
3.42746
3.43327
3.44265
3.454
3.46617
3.47847
3.49046
3.50195
3.51284
3.52313
3.53286
3.54211
3.55094
3.55945
3.56771
3.57581
3.58381
3.59177
3.59978
3.6079
3.61621
3.6248
3.63379
3.64335
3.6537
3.66503
3.67762
3.6921
3.51943
3.47964
3.44271
3.40975
3.38151
3.35816
3.33935
3.32446
3.31275
3.30354
3.29621
3.29029
3.28539
3.28125
3.27766
3.27448
3.27161
3.269
3.26659
3.26438
3.26235
3.26049
3.25882
3.25735
3.2561
3.25509
3.25436
3.25397
3.25398
3.25448
3.25559
3.25741
3.25997
3.51947
3.47942
3.44105
3.40466
3.37057
3.33905
3.31021
3.28405
3.26043
3.23913
3.21989
3.20246
3.18657
3.17202
3.15861
3.14618
3.13459
3.12374
3.11354
3.10391
3.09481
3.08618
3.07798
3.07021
3.06283
3.05583
3.04923
3.04302
3.03723
3.0319
3.02706
3.02277
3.01897
3.51948
3.47941
3.44084
3.40381
3.36835
3.33453
3.30244
3.2721
3.24353
3.21668
3.19151
3.16791
3.14578
3.125
3.10546
3.08706
3.06969
3.05327
3.0377
3.02293
3.00887
2.99548
2.98272
2.97053
2.95888
2.94776
2.93713
2.92698
2.91732
2.90815
2.89948
2.89132
2.88363
3.51948
3.4794
3.44081
3.40368
3.36795
3.33361
3.30064
3.26903
3.23877
3.20985
3.18224
3.15591
3.13082
3.1069
3.08412
3.0624
3.0417
3.02194
3.00307
2.98505
2.96781
2.95131
2.9355
2.92035
2.90582
2.89189
2.87852
2.8657
2.85341
2.84164
2.8304
2.81968
2.80942
3.51948
3.4794
3.44081
3.40365
3.36788
3.33343
3.30026
3.26832
3.23758
3.20801
3.17957
3.15223
3.12596
3.10072
3.07648
3.0532
3.03085
3.00938
2.98875
2.96893
2.94988
2.93156
2.91394
2.89699
2.88069
2.86499
2.84988
2.83534
2.82135
2.8079
2.79498
2.78258
2.77066
3.51948
3.4794
3.4408
3.40364
3.36785
3.33338
3.30017
3.26816
3.23731
3.20756
3.17887
3.15121
3.12455
3.09883
3.07404
3.05013
3.02708
3.00485
2.98341
2.96273
2.94279
2.92355
2.90498
2.88707
2.86978
2.8531
2.83699
2.82145
2.80646
2.79201
2.77807
2.76465
2.7517
3.51948
3.4794
3.44079
3.40363
3.36784
3.33336
3.30014
3.26811
3.23723
3.20744
3.17869
3.15094
3.12416
3.09829
3.07332
3.04919
3.02588
3.00336
2.9816
2.96057
2.94025
2.9206
2.9016
2.88323
2.86547
2.8483
2.83169
2.81564
2.80012
2.78512
2.77063
2.75663
2.74309
3.51948
3.47939
3.44079
3.40362
3.36783
3.33335
3.30012
3.26809
3.23719
3.20739
3.17862
3.15085
3.12404
3.09813
3.0731
3.0489
3.02552
3.0029
2.98103
2.95987
2.9394
2.91959
2.90042
2.88187
2.86391
2.84652
2.82969
2.8134
2.79763
2.78237
2.7676
2.7533
2.73946
3.51947
3.47939
3.44079
3.40362
3.36782
3.33334
3.30011
3.26807
3.23717
3.20736
3.17859
3.15081
3.12398
3.09806
3.07301
3.0488
3.02539
3.00274
2.98083
2.95964
2.93912
2.91925
2.90002
2.8814
2.86336
2.84589
2.82897
2.81258
2.7967
2.78132
2.76643
2.752
2.738
3.51947
3.47939
3.44078
3.40361
3.36781
3.33333
3.30009
3.26805
3.23715
3.20733
3.17856
3.15077
3.12394
3.09802
3.07296
3.04874
3.02532
3.00267
2.98075
2.95954
2.939
2.91912
2.89987
2.88122
2.86316
2.84566
2.8287
2.81227
2.79635
2.78092
2.76596
2.75147
2.7374
3.51947
3.47939
3.44078
3.40361
3.36781
3.33332
3.30008
3.26803
3.23713
3.20731
3.17853
3.15074
3.12391
3.09798
3.07292
3.0487
3.02527
3.00261
2.98069
2.95947
2.93893
2.91905
2.89979
2.88113
2.86306
2.84555
2.82858
2.81213
2.79619
2.78073
2.76575
2.75121
2.73711
3.51947
3.47939
3.44078
3.4036
3.3678
3.33331
3.30007
3.26802
3.23711
3.20729
3.17851
3.15072
3.12388
3.09795
3.07289
3.04866
3.02523
3.00257
2.98064
2.95942
2.93888
2.91899
2.89972
2.88106
2.86299
2.84547
2.82849
2.81203
2.79608
2.78061
2.7656
2.75105
2.73693
3.51947
3.47939
3.44078
3.4036
3.3678
3.3333
3.30006
3.26801
3.2371
3.20727
3.17849
3.1507
3.12385
3.09792
3.07286
3.04862
3.02519
3.00253
2.9806
2.95937
2.93883
2.91894
2.89967
2.881
2.86292
2.8454
2.82841
2.81195
2.79598
2.7805
2.76548
2.75092
2.73678
3.51947
3.47939
3.44077
3.4036
3.36779
3.3333
3.30005
3.268
3.23709
3.20726
3.17847
3.15068
3.12383
3.09789
3.07283
3.04859
3.02516
3.00249
2.98056
2.95933
2.93878
2.91889
2.89962
2.88095
2.86286
2.84533
2.82834
2.81187
2.79589
2.7804
2.76537
2.75079
2.73664
3.51947
3.47939
3.44077
3.40359
3.36779
3.33329
3.30005
3.26799
3.23708
3.20725
3.17846
3.15066
3.12381
3.09787
3.0728
3.04857
3.02513
3.00246
2.98052
2.95929
2.93874
2.91884
2.89957
2.88089
2.8628
2.84527
2.82827
2.81179
2.79581
2.78031
2.76527
2.75068
2.73651
3.51947
3.47938
3.44077
3.40359
3.36779
3.33329
3.30004
3.26798
3.23707
3.20724
3.17844
3.15064
3.12379
3.09785
3.07278
3.04854
3.0251
3.00243
2.98049
2.95926
2.9387
2.9188
2.89952
2.88084
2.86274
2.8452
2.8282
2.81171
2.79572
2.78022
2.76517
2.75057
2.73639
3.51947
3.47938
3.44077
3.40359
3.36778
3.33329
3.30004
3.26798
3.23706
3.20723
3.17843
3.15063
3.12378
3.09783
3.07276
3.04852
3.02508
3.0024
2.98046
2.95922
2.93866
2.91876
2.89947
2.88079
2.86269
2.84515
2.82814
2.81164
2.79565
2.78013
2.76507
2.75046
2.73628
3.51947
3.47938
3.44077
3.40359
3.36778
3.33328
3.30003
3.26797
3.23705
3.20722
3.17842
3.15062
3.12376
3.09782
3.07274
3.0485
3.02505
3.00238
2.98043
2.95919
2.93863
2.91872
2.89943
2.88075
2.86264
2.84509
2.82807
2.81157
2.79557
2.78005
2.76498
2.75036
2.73617
3.51947
3.47938
3.44077
3.40359
3.36778
3.33328
3.30003
3.26797
3.23705
3.20721
3.17841
3.15061
3.12375
3.09781
3.07273
3.04848
3.02504
3.00235
2.98041
2.95917
2.9386
2.91868
2.89939
2.8807
2.86259
2.84504
2.82802
2.81151
2.7955
2.77997
2.7649
2.75027
2.73607
3.51947
3.47938
3.44077
3.40359
3.36778
3.33328
3.30003
3.26797
3.23704
3.20721
3.17841
3.1506
3.12374
3.09779
3.07271
3.04847
3.02502
3.00233
2.98039
2.95914
2.93857
2.91865
2.89936
2.88067
2.86255
2.84499
2.82796
2.81145
2.79543
2.77989
2.76482
2.75018
2.73597
3.51947
3.47938
3.44077
3.40359
3.36778
3.33328
3.30002
3.26796
3.23704
3.2072
3.1784
3.15059
3.12374
3.09779
3.0727
3.04845
3.025
3.00232
2.98037
2.95912
2.93855
2.91862
2.89933
2.88063
2.86251
2.84494
2.82791
2.81139
2.79537
2.77983
2.76474
2.7501
2.73588
3.51947
3.47938
3.44077
3.40359
3.36778
3.33328
3.30002
3.26796
3.23704
3.2072
3.1784
3.15059
3.12373
3.09778
3.0727
3.04844
3.02499
3.0023
2.98035
2.9591
2.93853
2.9186
2.8993
2.8806
2.86247
2.8449
2.82787
2.81134
2.79532
2.77976
2.76467
2.75003
2.7358
3.51947
3.47938
3.44077
3.40359
3.36778
3.33328
3.30002
3.26796
3.23704
3.2072
3.1784
3.15059
3.12373
3.09777
3.07269
3.04844
3.02498
3.00229
2.98034
2.95908
2.93851
2.91858
2.89927
2.88057
2.86244
2.84487
2.82782
2.8113
2.79527
2.77971
2.76461
2.74996
2.73573
3.51947
3.47938
3.44077
3.40359
3.36778
3.33327
3.30002
3.26796
3.23704
3.2072
3.1784
3.15059
3.12372
3.09777
3.07269
3.04843
3.02498
3.00229
2.98033
2.95907
2.93849
2.91856
2.89926
2.88055
2.86242
2.84484
2.82779
2.81126
2.79523
2.77967
2.76456
2.74991
2.73567
3.51947
3.47938
3.44077
3.40359
3.36778
3.33327
3.30002
3.26796
3.23704
3.2072
3.1784
3.15059
3.12372
3.09777
3.07268
3.04843
3.02497
3.00228
2.98032
2.95906
2.93848
2.91855
2.89924
2.88053
2.8624
2.84482
2.82777
2.81124
2.7952
2.77964
2.76454
2.74988
2.73564
3.51947
3.47938
3.44077
3.40359
3.36778
3.33327
3.30002
3.26796
3.23704
3.2072
3.1784
3.15059
3.12373
3.09778
3.07269
3.04844
3.02499
3.0023
2.98034
2.95909
2.93851
2.91858
2.89928
2.88057
2.86244
2.84487
2.82783
2.8113
2.79527
2.77972
2.76463
2.74998
2.73575
3.51947
3.47938
3.44077
3.40359
3.36778
3.33328
3.30002
3.26796
3.23704
3.20721
3.17841
3.1506
3.12375
3.09781
3.07273
3.04849
3.02505
3.00238
2.98045
2.95922
2.93867
2.91877
2.8995
2.88084
2.86275
2.84522
2.82823
2.81175
2.79578
2.78028
2.76525
2.75066
2.73651
3.51947
3.47938
3.44077
3.40359
3.36778
3.33329
3.30005
3.26801
3.23711
3.20731
3.17855
3.1508
3.12401
3.09814
3.07315
3.04901
3.02568
3.00312
2.98132
2.96024
2.93985
2.92013
2.90104
2.88257
2.86469
2.84738
2.83062
2.81438
2.79866
2.78342
2.76864
2.75433
2.74044
3.51947
3.47938
3.44078
3.40361
3.36785
3.33342
3.30029
3.26839
3.23767
3.2081
3.17963
3.15222
3.12582
3.1004
3.07592
3.05233
3.02962
3.00772
2.98663
2.96629
2.94669
2.92779
2.90955
2.89196
2.87498
2.85859
2.84277
2.82748
2.81272
2.79845
2.78465
2.77131
2.75841
3.51947
3.47942
3.44096
3.40413
3.36893
3.33533
3.30326
3.27267
3.24352
3.21573
3.18926
3.16404
3.14003
3.11716
3.09537
3.07462
3.05483
3.03597
3.01798
3.0008
2.98439
2.9687
2.9537
2.93934
2.92558
2.9124
2.89974
2.88759
2.87592
2.86469
2.85389
2.84349
2.83346
3.5195
3.48076
3.44539
3.41321
3.38397
3.35747
3.33353
3.31198
3.29262
3.27528
3.25975
3.24587
3.23345
3.22233
3.21237
3.20343
3.19538
3.18813
3.18156
3.1756
3.17016
3.16518
3.1606
3.15636
3.15242
3.14873
3.14527
3.14199
3.13888
3.13591
3.13305
3.13029
3.12762
3.52507
3.51486
3.52102
3.53649
3.55837
3.58512
3.61569
3.64916
3.68472
3.72168
3.7595
3.79774
3.83604
3.87413
3.91176
3.94879
3.98506
4.0205
4.05501
4.08855
4.1211
4.15262
4.18311
4.21257
4.241
4.26843
4.29487
4.32034
4.34486
4.36847
4.39119
4.41304
4.43407
3.84201
4.38784
4.87757
5.34286
5.7952
6.23609
6.66356
7.0763
7.4743
7.85818
8.22867
8.58654
8.93256
9.26744
9.59183
9.90628
10.2113
10.5073
10.7947
11.0739
11.3451
11.6087
11.8649
12.114
12.3562
12.5918
12.821
13.044
13.261
13.4722
13.6778
13.878
14.0731
30.2673
32.7691
35.3054
37.8487
40.3862
42.91
45.413
47.8883
50.3294
52.7301
55.0851
57.39
59.6406
61.8337
63.9664
66.0368
68.0431
69.9842
71.8595
73.6686
75.4116
77.089
78.7013
80.2494
81.7344
83.1576
84.5203
85.8241
87.0706
88.2613
89.3982
90.4826
91.5176
186.757
409.403
525.63
603.805
701.485
786.32
827.306
826.763
800.021
760.696
716.858
672.597
630.082
590.571
554.697
522.565
493.887
468.155
444.811
423.361
403.434
384.784
367.269
350.806
335.341
320.82
307.177
294.338
282.227
270.776
259.934
249.664
239.931
230.689
221.864
213.341
204.959
196.515
187.775
178.5
168.466
157.498
145.491
132.441
118.464
103.815
88.8889
74.198
60.3215
47.8184
37.1271
28.4832
21.894
17.1782
13.9909
11.87
11.1624
14.9945
27.2593
47
69.247
89.5965
105.94
117.887
125.864
130.548
132.606
132.608
131.009
128.161
124.334
119.734
114.52
108.821
102.738
96.3619
89.771
83.0398
76.24
69.4419
62.7151
56.1282
49.7478
43.6375
37.8561
32.4563
27.4828
22.9721
18.9517
15.4359
12.4142
9.85504
7.7562
6.19971
5.25582
4.82312
4.70568
4.75002
4.86318
5.08648
26.022
54.1741
90.144
126.661
165.324
206.055
246.333
283.57
315.461
340.487
358.044
368.36
372.393
371.588
367.477
361.33
353.971
345.794
336.907
327.296
316.97
306.02
294.626
283.013
271.403
259.975
248.846
238.079
227.694
217.693
208.074
198.84
189.993
181.52
173.38
165.491
157.723
149.904
141.833
133.306
124.145
114.228
103.523
92.1093
80.1918
68.1042
56.283
45.2146
35.3554
27.0417
20.4223
15.4434
11.8956
9.50399
7.98607
6.97763
6.3463
8.12571
16.7528
33.3903
54.0746
74.1578
90.9948
103.783
112.703
118.299
121.177
121.882
120.865
118.487
115.032
110.724
105.74
100.227
94.3068
88.0842
81.6544
75.1052
68.5195
61.9764
55.5518
49.3173
43.3402
37.6817
32.3957
27.5274
23.1116
19.1714
15.7188
12.7535
10.2584
8.19873
6.55206
5.36442
4.6844
4.41988
4.40242
4.50467
4.65109
4.89661
9.37521
11.0479
15.6636
21.7902
28.4891
35.3501
42.5406
50.6378
59.985
70.5319
81.8809
93.5115
105.044
116.369
127.566
138.671
149.462
159.423
167.885
174.258
178.212
179.735
179.082
176.658
172.908
168.232
162.941
157.256
151.323
145.241
139.084
132.919
126.802
120.776
114.856
109.018
103.197
97.2865
91.1562
84.6741
77.7355
70.2946
62.3901
54.1614
45.8485
37.7687
30.2696
23.6635
18.1614
13.8318
10.6023
8.30234
6.72429
5.67974
5.03407
4.6334
4.21796
4.49939
8.98931
20.8926
38.4222
57.2143
74.0316
87.4769
97.3391
103.943
107.783
109.354
109.092
107.359
104.452
100.611
96.0337
90.8833
85.2992
79.4034
73.3047
67.1024
60.8885
54.7482
48.7608
42.9984
37.5258
32.3991
27.665
23.3588
19.5042
16.1113
13.1779
10.6916
8.62993
6.95946
5.65504
4.74223
4.25008
4.09721
4.14162
4.27724
4.44119
4.69631
6.15893
6.19576
6.57975
7.33794
8.32859
9.42163
10.5491
11.7545
13.1549
14.8368
16.8313
19.1268
21.7114
24.6195
27.955
31.8704
36.494
41.8332
47.7067
53.7542
59.5275
64.6145
68.7342
71.7696
73.7422
74.7567
74.9476
74.4432
73.3528
71.7686
69.774
67.4492
64.8717
62.1107
59.2185
56.2226
53.1208
49.8834
46.4627
42.8092
38.8934
34.7267
30.3768
25.9711
21.6829
17.7014
14.1927
11.2627
8.93929
7.17908
5.89356
4.98009
4.34424
3.91106
3.63671
3.48972
3.31825
3.11746
4.62814
11.3505
24.2288
40.3333
56.2079
69.803
80.38
87.9361
92.7824
95.3213
95.9479
95.0134
92.8178
89.613
85.6109
80.9917
75.91
70.5019
64.8878
59.1767
53.4669
47.8476
42.3987
37.1908
32.2843
27.7288
23.5626
19.8117
16.4893
13.5958
11.1194
9.04012
7.33174
5.96475
4.92254
4.22373
3.87774
3.80777
3.89444
4.05021
4.22279
4.47986
4.54418
4.57317
4.62274
4.72487
4.87829
5.06573
5.27014
5.48777
5.73738
6.03868
6.40282
6.83077
7.31936
7.87076
8.50087
9.24244
10.1399
11.2353
12.5485
14.0617
15.7148
17.4181
19.0736
20.5979
21.9336
23.05
23.9354
24.5868
25.0042
25.1887
25.1453
24.8854
24.4278
23.7966
23.0171
22.11
21.088
19.9545
18.7058
17.3375
15.853
14.2726
12.6374
11.0076
9.45307
8.03876
6.81114
5.79098
4.97463
4.34132
3.86218
3.50735
3.25013
3.06806
2.94732
2.88871
2.84741
2.6863
2.88765
5.63492
13.2982
25.332
39.0123
51.9001
62.6844
70.9315
76.6844
80.194
81.7759
81.7449
80.3886
77.9605
74.6805
70.7398
66.3049
61.5223
56.5217
51.4185
46.3155
41.3035
36.4616
31.8574
27.5463
23.5715
19.9638
16.7414
13.9105
11.4653
9.38937
7.65934
6.24725
5.12607
4.28821
3.75562
3.52631
3.52323
3.64286
3.81271
3.98968
4.24464
3.71093
3.73016
3.74672
3.76545
3.79058
3.82263
3.8598
3.90121
3.95041
4.0124
4.09095
4.1872
4.30028
4.42926
4.57535
4.7432
4.94072
5.17683
5.45801
5.78486
6.15035
6.54061
6.93798
7.32486
7.68681
8.01383
8.29979
8.54074
8.73326
8.87364
8.95809
8.98364
8.94908
8.85534
8.70516
8.50206
8.24935
7.94932
7.60336
7.21298
6.78168
6.31685
5.83083
5.3403
4.86399
4.41951
4.02047
3.67494
3.38541
3.14991
2.96351
2.81987
2.71243
2.63483
2.58187
2.5555
2.55255
2.49911
2.40731
3.12778
6.55415
13.8938
24.1377
35.1947
45.3834
53.8127
60.1824
64.5233
67.0216
67.9203
67.4711
65.9124
63.461
60.3108
56.6339
52.5831
48.2933
43.8839
39.4597
35.1114
30.9165
26.939
23.23
19.8273
16.7563
14.0302
11.6511
9.61026
7.89026
6.46723
5.31292
4.4006
3.72604
3.31792
3.17702
3.22811
3.37605
3.55817
3.73849
3.99006
3.2643
3.2698
3.27382
3.27584
3.27697
3.27838
3.28056
3.28375
3.28892
3.29749
3.31081
3.32963
3.35402
3.38373
3.4188
3.45999
3.50894
3.56772
3.638
3.72022
3.813
3.91323
4.01662
4.11857
4.21503
4.30293
4.38028
4.44585
4.49874
4.53805
4.56273
4.57167
4.56387
4.53865
4.49578
4.43537
4.35781
4.26356
4.15318
4.02741
3.88751
3.73565
3.57516
3.41057
3.24719
3.0905
2.94534
2.81542
2.70297
2.60875
2.53231
2.47233
2.42705
2.39455
2.37262
2.36096
2.36241
2.35647
2.28998
2.35374
3.43262
6.84111
13.0826
21.2398
29.8339
37.6931
44.1701
49.0244
52.2592
54.0038
54.4425
53.7758
52.2011
49.9037
47.0527
43.8006
40.2833
36.6206
32.917
29.262
25.7306
22.384
19.2694
16.4213
13.8618
11.6014
9.6403
7.96913
6.57089
5.42289
4.49802
3.7692
3.22976
2.91103
2.8281
2.9177
3.08923
3.28335
3.4678
3.71678
3.01539
3.01196
3.00807
3.00292
2.99657
2.98951
2.98222
2.97501
2.96825
2.96238
2.95782
2.9549
2.95374
2.95438
2.95684
2.96132
2.96827
2.97829
2.99192
3.00941
3.03045
3.05421
3.07941
3.10457
3.12829
3.14941
3.16711
3.18087
3.19033
3.19522
3.19521
3.18995
3.17905
3.16216
3.13903
3.1095
3.07355
3.0313
2.98297
2.92895
2.86983
2.80651
2.74023
2.67261
2.60553
2.54101
2.48089
2.42674
2.37961
2.34002
2.30798
2.28308
2.26464
2.25188
2.2438
2.2394
2.23943
2.24112
2.21882
2.17562
2.38146
3.53502
6.43821
11.2835
17.4144
23.8346
29.7207
34.5817
38.2088
40.5787
41.7739
41.9302
41.2048
39.7589
37.7476
35.3149
32.5917
29.6941
26.7236
23.767
20.8964
18.1703
15.6333
13.3178
11.2439
9.42104
7.84866
6.51763
5.41203
4.51119
3.79045
3.22379
2.79989
2.5452
2.49054
2.59763
2.78391
2.98848
3.17804
3.42644
2.87532
2.86635
2.85731
2.84767
2.8373
2.82636
2.8151
2.80373
2.79245
2.78142
2.77076
2.76057
2.75091
2.74179
2.73326
2.72538
2.71831
2.71225
2.70741
2.7039
2.70168
2.70052
2.70002
2.69965
2.69891
2.69731
2.69452
2.69027
2.6844
2.67679
2.66732
2.65586
2.64226
2.62636
2.60804
2.58721
2.56388
2.53809
2.51002
2.47993
2.44818
2.41527
2.38184
2.34863
2.31645
2.28614
2.25846
2.23402
2.21322
2.19619
2.18286
2.17295
2.16603
2.1616
2.15908
2.15757
2.1564
2.15523
2.1472
2.11755
2.11239
2.3782
3.38113
5.57619
9.04562
13.3849
17.9577
22.194
25.7195
28.3509
30.0452
30.8476
30.8533
30.1817
28.96
27.3139
25.3615
23.2102
20.9551
18.678
16.4474
14.3183
12.3334
10.5229
8.90579
7.49064
6.27669
5.25538
4.41242
3.72983
3.18674
2.76035
2.43633
2.23097
2.18208
2.2827
2.46879
2.67814
2.87203
3.12178
2.79808
2.78555
2.77307
2.76036
2.74727
2.73384
2.72017
2.70641
2.69266
2.67901
2.66549
2.65214
2.63896
2.62596
2.61314
2.60055
2.58823
2.57625
2.5647
2.55363
2.54302
2.5328
2.52283
2.51294
2.50291
2.49256
2.48175
2.47037
2.45835
2.44564
2.4322
2.41798
2.40293
2.387
2.37014
2.35235
2.33366
2.31415
2.29396
2.27332
2.25247
2.23176
2.21155
2.19225
2.17426
2.15796
2.14364
2.13152
2.12167
2.11403
2.10844
2.10462
2.10218
2.10073
2.09977
2.09862
2.09631
2.09211
2.08446
2.06733
2.04003
2.06004
2.3062
3.05637
4.55591
6.8489
9.7156
12.7788
15.6638
18.0962
19.9218
21.0874
21.6105
21.5529
21.0001
20.0481
18.7937
17.3292
15.7387
14.0959
12.4632
10.8915
9.41999
8.07645
6.8782
5.83288
4.93974
4.19143
3.57607
3.07928
2.6849
2.37512
2.13573
1.97273
1.91921
1.99327
2.15973
2.36245
2.55603
2.80718
2.75735
2.74251
2.72776
2.71294
2.69794
2.68275
2.66743
2.65204
2.63666
2.62134
2.6061
2.59096
2.5759
2.56094
2.54606
2.5313
2.51666
2.50219
2.48791
2.47383
2.45995
2.44622
2.43257
2.41894
2.40524
2.39138
2.37732
2.36301
2.34844
2.33359
2.31846
2.30304
2.28733
2.27132
2.25503
2.23848
2.22174
2.20491
2.18812
2.17155
2.15542
2.13997
2.12543
2.11205
2.10005
2.08958
2.08076
2.07361
2.06807
2.064
2.06117
2.05929
2.05803
2.05699
2.05574
2.05367
2.04995
2.04364
2.03398
2.0194
1.99711
1.97436
1.99907
2.18325
2.67934
3.61285
5.00835
6.75763
8.65657
10.4799
12.0427
13.2271
13.9808
14.3037
14.2315
13.8211
13.1402
12.259
11.2452
10.1602
9.05738
7.98069
6.96416
6.03199
5.19916
4.47235
3.85142
3.33105
2.90267
2.55612
2.2803
2.06281
1.89207
1.76726
1.71008
1.74851
1.87723
2.05728
2.24085
2.48958
2.73716
2.72089
2.70469
2.68848
2.6722
2.65582
2.63936
2.62286
2.60638
2.58993
2.57355
2.55725
2.54102
2.52487
2.50879
2.49281
2.47693
2.46117
2.44556
2.43009
2.41474
2.39949
2.38429
2.36911
2.35389
2.3386
2.32321
2.30771
2.2921
2.27638
2.26058
2.24469
2.22874
2.21275
2.19674
2.18078
2.16494
2.14933
2.13407
2.11932
2.10526
2.09206
2.07992
2.06896
2.05933
2.05109
2.04425
2.03876
2.03451
2.03131
2.02892
2.02708
2.02543
2.02363
2.02125
2.01775
2.01243
2.00447
1.99316
1.97802
1.95821
1.93367
1.91309
1.9288
2.04401
2.33699
2.86833
3.64943
4.62887
5.70459
6.75454
7.66848
8.36785
8.8115
8.99194
8.92713
8.65179
8.2096
7.64727
7.01003
6.33864
5.66752
5.02374
4.42677
3.88896
3.41634
3.00991
2.66693
2.38246
2.15043
1.96422
1.81617
1.69815
1.60664
1.55217
1.55898
1.6408
1.78229
1.94213
2.17929
2.72785
2.71074
2.69368
2.67662
2.65954
2.6424
2.62522
2.60801
2.59081
2.57364
2.55652
2.53946
2.52247
2.50555
2.48871
2.47196
2.45531
2.43878
2.42239
2.40612
2.38998
2.37394
2.35797
2.34204
2.32612
2.31018
2.29421
2.2782
2.26216
2.2461
2.23004
2.21399
2.19799
2.18205
2.16622
2.15057
2.13517
2.12012
2.10554
2.09157
2.07835
2.06604
2.05476
2.04462
2.03569
2.028
2.02152
2.01617
2.01181
2.00825
2.00527
2.00258
1.99988
1.99681
1.99299
1.98792
1.98102
1.97162
1.95911
1.94317
1.92369
1.90059
1.87505
1.85396
1.85634
1.91505
2.06817
2.34348
2.74497
3.24766
3.80252
4.34882
4.82839
5.19657
5.42736
5.51354
5.46334
5.29592
5.03661
4.71296
4.35157
3.97597
3.60536
3.25411
2.93186
2.64407
2.3928
2.17763
1.99654
1.8467
1.72474
1.62643
1.54675
1.48207
1.43582
1.42294
1.46154
1.55576
1.67837
1.89
2.72385
2.70628
2.68874
2.67121
2.65367
2.63609
2.61848
2.60086
2.58323
2.56563
2.54806
2.53054
2.51307
2.49567
2.47835
2.4611
2.44396
2.42693
2.41003
2.39326
2.37661
2.36007
2.34363
2.32726
2.31093
2.29463
2.27835
2.26208
2.24583
2.2296
2.21343
2.19732
2.1813
2.1654
2.14967
2.13417
2.11897
2.10415
2.08984
2.07615
2.0632
2.0511
2.03997
2.02989
2.02089
2.01299
2.00613
2.00023
1.99516
1.99071
1.98669
1.98281
1.9788
1.97432
1.96901
1.96243
1.95408
1.9434
1.92994
1.91341
1.89384
1.8714
1.84645
1.82033
1.79753
1.78819
1.80828
1.87547
2.00208
2.1892
2.42461
2.68521
2.94229
3.1678
3.33943
3.44355
3.47576
3.43976
3.34512
3.20486
3.03321
2.84383
2.6486
2.45705
2.27611
2.1103
1.96207
1.83231
1.72079
1.62663
1.54845
1.48419
1.43099
1.38614
1.34994
1.32937
1.33779
1.38762
1.46605
1.63707
2.7222
2.7044
2.68662
2.66884
2.65105
2.63323
2.6154
2.59755
2.57969
2.56185
2.54403
2.52625
2.50851
2.49082
2.4732
2.45566
2.4382
2.42085
2.40361
2.3865
2.36951
2.35263
2.33586
2.31918
2.30257
2.28602
2.26952
2.25307
2.23667
2.22033
2.20407
2.1879
2.17186
2.15596
2.14026
2.12481
2.10967
2.09492
2.08066
2.06699
2.05401
2.04182
2.03051
2.02013
2.01072
2.00227
1.99473
1.98801
1.98198
1.97646
1.97125
1.96611
1.96075
1.95488
1.94815
1.94018
1.93054
1.91877
1.90452
1.88757
1.86793
1.84584
1.82162
1.79574
1.7693
1.74488
1.72752
1.72455
1.74383
1.79073
1.86556
1.9627
2.07163
2.17933
2.27298
2.34227
2.38076
2.38624
2.36029
2.30726
2.23317
2.14463
2.048
1.94882
1.85151
1.75932
1.6744
1.59794
1.53048
1.47205
1.42227
1.38025
1.34446
1.31318
1.2858
1.26491
1.25754
1.27513
1.3131
1.43356
2.72151
2.7036
2.68569
2.66778
2.64986
2.63193
2.61398
2.59601
2.57804
2.56008
2.54213
2.52421
2.50632
2.48847
2.47068
2.45296
2.43531
2.41776
2.4003
2.38296
2.36573
2.34861
2.3316
2.31469
2.29786
2.28112
2.26444
2.24784
2.23131
2.21487
2.19852
2.18228
2.16618
2.15025
2.13452
2.11905
2.10388
2.0891
2.07477
2.061
2.04785
2.03542
2.02378
2.01297
2.00301
1.99389
1.98556
1.97794
1.9709
1.96428
1.9579
1.95151
1.94487
1.9377
1.92969
1.92048
1.90972
1.89703
1.88213
1.86485
1.84522
1.82342
1.79977
1.77463
1.74844
1.72195
1.69657
1.67469
1.65954
1.65447
1.66177
1.68164
1.71171
1.74751
1.78341
1.81378
1.83407
1.84134
1.83449
1.8141
1.78196
1.74067
1.69307
1.64197
1.58983
1.53865
1.48992
1.44466
1.4035
1.36675
1.33444
1.30622
1.28129
1.25864
1.23767
1.21911
1.20589
1.20525
1.2149
1.28515
2.72118
2.7032
2.68522
2.66725
2.64926
2.63126
2.61325
2.59523
2.57721
2.55918
2.54117
2.52317
2.5052
2.48727
2.46939
2.45155
2.43379
2.41611
2.39851
2.38101
2.36361
2.34632
2.32914
2.31205
2.29505
2.27814
2.26132
2.24459
2.22794
2.21139
2.19495
2.17863
2.16246
2.14646
2.13067
2.11513
2.09989
2.08501
2.07056
2.05662
2.04324
2.03051
2.01848
2.00718
1.99664
1.98683
1.97771
1.9692
1.96119
1.95352
1.94602
1.93848
1.93067
1.92232
1.91315
1.90287
1.89114
1.87769
1.86225
1.84473
1.82514
1.80364
1.78049
1.75602
1.73055
1.70445
1.67822
1.6526
1.62871
1.60793
1.59166
1.58088
1.57571
1.57527
1.57779
1.58099
1.58253
1.58045
1.57345
1.56097
1.54314
1.52065
1.49451
1.46591
1.43602
1.40587
1.37635
1.34811
1.32163
1.29722
1.27499
1.2548
1.23622
1.21867
1.20174
1.18557
1.17119
1.16237
1.15717
1.1874
2.72096
2.70295
2.68493
2.66691
2.64889
2.63085
2.6128
2.59475
2.57669
2.55864
2.54059
2.52255
2.50454
2.48656
2.46861
2.45072
2.43288
2.41511
2.39741
2.3798
2.36229
2.34487
2.32754
2.31031
2.29318
2.27614
2.25919
2.24234
2.22558
2.20893
2.19239
2.17599
2.15973
2.14365
2.12778
2.11215
2.09681
2.0818
2.0672
2.05305
2.03942
2.02637
2.01394
2.00217
1.99105
1.98058
1.97071
1.96136
1.95244
1.9438
1.93528
1.9267
1.91782
1.90842
1.89825
1.88702
1.87448
1.86038
1.84452
1.82681
1.80728
1.78607
1.76339
1.73953
1.71476
1.68937
1.66365
1.63793
1.61261
1.58822
1.56536
1.54463
1.52642
1.51085
1.4976
1.48603
1.47528
1.46442
1.45266
1.43943
1.42445
1.40773
1.38947
1.37005
1.34992
1.32953
1.30929
1.28957
1.27063
1.25268
1.2358
1.2199
1.20471
1.1899
1.1752
1.16065
1.14656
1.13466
1.12381
1.12809
2.72079
2.70275
2.68471
2.66666
2.6486
2.63054
2.61247
2.59439
2.57631
2.55823
2.54016
2.5221
2.50405
2.48604
2.46805
2.45011
2.43222
2.41438
2.39661
2.37892
2.36131
2.34379
2.32636
2.30902
2.29177
2.27462
2.25756
2.2406
2.22374
2.20699
2.19036
2.17386
2.15752
2.14135
2.12538
2.10965
2.09419
2.07904
2.06427
2.04992
2.03603
2.02266
2.00985
1.99761
1.98596
1.97487
1.96431
1.95419
1.94444
1.93492
1.92548
1.91595
1.90613
1.8958
1.88475
1.87271
1.85948
1.84484
1.82863
1.81079
1.79134
1.7704
1.74816
1.72485
1.70073
1.67604
1.651
1.62586
1.60081
1.57612
1.55204
1.52885
1.50682
1.48611
1.46681
1.44881
1.43191
1.41579
1.40011
1.38457
1.36892
1.35302
1.33686
1.32046
1.30396
1.28749
1.27121
1.25527
1.23978
1.22484
1.21046
1.19657
1.18296
1.16941
1.15578
1.14205
1.12837
1.11538
1.10315
1.09335
2.72064
2.70258
2.68451
2.66643
2.64835
2.63027
2.61217
2.59408
2.57598
2.55788
2.53979
2.5217
2.50364
2.48559
2.46757
2.44959
2.43166
2.41377
2.39594
2.37818
2.3605
2.34289
2.32537
2.30793
2.29059
2.27333
2.25617
2.23911
2.22216
2.20531
2.18859
2.172
2.15557
2.13931
2.12324
2.1074
2.09181
2.07653
2.06159
2.04702
2.03289
2.01922
2.00604
1.99338
1.98123
1.96957
1.95837
1.94757
1.93706
1.92675
1.91649
1.90611
1.89545
1.88431
1.87248
1.85976
1.84594
1.83085
1.81436
1.79643
1.77707
1.75639
1.73456
1.71176
1.68823
1.66417
1.6398
1.6153
1.59084
1.56658
1.54269
1.51929
1.49655
1.47458
1.45348
1.43328
1.41397
1.39548
1.37771
1.36053
1.34382
1.32749
1.31146
1.2957
1.28021
1.26501
1.25011
1.23557
1.22139
1.20761
1.19418
1.18102
1.16796
1.15485
1.14157
1.12812
1.11464
1.10119
1.08889
1.07238
2.72049
2.70242
2.68433
2.66623
2.64813
2.63002
2.61191
2.59379
2.57567
2.55756
2.53944
2.52134
2.50325
2.48518
2.46713
2.44912
2.43114
2.41321
2.39533
2.37751
2.35976
2.34208
2.32448
2.30696
2.28953
2.27218
2.25493
2.23778
2.22073
2.2038
2.18699
2.17031
2.15378
2.13742
2.12125
2.1053
2.08959
2.07417
2.05905
2.04429
2.02992
2.01596
2.00245
1.98939
1.97678
1.96461
1.95284
1.94141
1.93023
1.91921
1.90821
1.89709
1.88569
1.87383
1.86133
1.84801
1.83369
1.81823
1.80152
1.78353
1.76427
1.74384
1.72237
1.70005
1.67705
1.65358
1.62982
1.60593
1.58207
1.55837
1.53495
1.51191
1.48935
1.46735
1.44599
1.4253
1.40531
1.38603
1.36744
1.3495
1.33216
1.31537
1.29909
1.28328
1.26789
1.25292
1.23834
1.22414
1.2103
1.19678
1.18355
1.17048
1.15746
1.14435
1.13107
1.11762
1.10413
1.09037
1.07817
1.0587
2.72036
2.70227
2.68416
2.66604
2.64792
2.6298
2.61166
2.59353
2.57539
2.55725
2.53912
2.521
2.50288
2.48479
2.46671
2.44867
2.43065
2.41268
2.39476
2.37688
2.35907
2.34133
2.32365
2.30606
2.28854
2.27112
2.25378
2.23654
2.21941
2.20239
2.18549
2.16872
2.1521
2.13565
2.11938
2.10332
2.08749
2.07192
2.05664
2.04169
2.02709
2.01286
1.99904
1.98562
1.9726
1.95996
1.94767
1.93568
1.9239
1.91224
1.90058
1.8888
1.87674
1.86426
1.85118
1.83734
1.8226
1.80683
1.78995
1.77193
1.75278
1.73258
1.71146
1.68956
1.66706
1.64413
1.62092
1.5976
1.5743
1.55114
1.52822
1.50564
1.48346
1.46176
1.44059
1.41998
1.39997
1.38057
1.36179
1.34362
1.32604
1.30902
1.29254
1.27658
1.26109
1.24604
1.23142
1.21717
1.20328
1.18968
1.17632
1.16309
1.14989
1.1366
1.12317
1.10958
1.09597
1.08196
1.06977
1.04896
2.72023
2.70212
2.684
2.66587
2.64773
2.62958
2.61143
2.59328
2.57512
2.55697
2.53881
2.52067
2.50253
2.48441
2.46631
2.44823
2.43019
2.41217
2.39421
2.37629
2.35842
2.34062
2.32288
2.30521
2.28763
2.27012
2.25271
2.23539
2.21817
2.20107
2.18408
2.16723
2.15052
2.13397
2.1176
2.10143
2.08548
2.06977
2.05434
2.0392
2.02439
2.00992
1.9958
1.98205
1.96865
1.9556
1.94284
1.93034
1.91802
1.90579
1.89356
1.88119
1.86856
1.85552
1.84193
1.82766
1.81256
1.79654
1.77952
1.76148
1.74244
1.72247
1.70167
1.68017
1.65812
1.63568
1.61299
1.59019
1.56741
1.54475
1.52231
1.50017
1.4784
1.45706
1.43619
1.41582
1.39599
1.37671
1.35798
1.33981
1.32219
1.30511
1.28854
1.27247
1.25687
1.24171
1.22695
1.21256
1.1985
1.18471
1.17113
1.15767
1.14423
1.13071
1.11708
1.10331
1.08954
1.07533
1.06306
1.04159
2.72011
2.70199
2.68386
2.66571
2.64755
2.62939
2.61122
2.59305
2.57487
2.5567
2.53852
2.52036
2.5022
2.48405
2.46592
2.44782
2.42974
2.41169
2.39368
2.37572
2.3578
2.33994
2.32215
2.30442
2.28676
2.26919
2.2517
2.23431
2.21701
2.19983
2.18276
2.16582
2.14903
2.13238
2.11592
2.09964
2.08357
2.06773
2.05214
2.03683
2.02182
2.00712
1.99273
1.97868
1.96494
1.9515
1.93833
1.92537
1.91257
1.89984
1.88709
1.8742
1.86106
1.84755
1.83352
1.81887
1.80347
1.78725
1.77013
1.75209
1.73317
1.71341
1.6929
1.67177
1.65015
1.62816
1.60595
1.58363
1.56132
1.53913
1.51713
1.49541
1.47403
1.45304
1.43248
1.41239
1.39278
1.37367
1.35508
1.33699
1.31942
1.30235
1.28576
1.26964
1.25396
1.23869
1.2238
1.20926
1.19502
1.18103
1.16723
1.15354
1.13986
1.12614
1.11232
1.09838