/*--------------------------------*- C++ -*----------------------------------*\
  =========                 |
  \\      /  F ield         | OpenFOAM: The Open Source CFD Toolbox
   \\    /   O peration     | Website:  https://openfoam.org
    \\  /    A nd           | Version:  10
     \\/     M anipulation  |
\*---------------------------------------------------------------------------*/
FoamFile
{
    format      ascii;
    class       volScalarField;
    location    "200";
    object      k;
}
// * * * * * * * * * * * * * * * * * * * * * * * * * * * * * * * * * * * * * //

dimensions      [0 2 -2 0 0 0 0];

internalField   nonuniform List<scalar> 
6820
(
0.19714
0.192517
0.18828
0.184033
0.179769
0.175612
0.171678
0.168043
0.164747
0.1618
0.159193
0.15691
0.154926
0.153216
0.151756
0.150521
0.149488
0.148635
0.147943
0.147395
0.146975
0.146668
0.146461
0.146344
0.146306
0.14634
0.146428
0.146599
0.146754
0.147181
0.146206
0.15815
0.0730573
0.207249
0.212376
0.210057
0.205418
0.200995
0.197551
0.195141
0.193612
0.192777
0.19247
0.192563
0.192958
0.193583
0.194382
0.195315
0.196349
0.19746
0.198628
0.19984
0.201083
0.202348
0.203628
0.204921
0.206224
0.207539
0.208872
0.21024
0.21168
0.213191
0.215307
0.215989
0.224954
0.221177
0.200993
0.203847
0.204551
0.203318
0.201177
0.198804
0.196518
0.194451
0.192648
0.191113
0.189833
0.18879
0.18796
0.187322
0.186854
0.186537
0.186352
0.186285
0.186319
0.186444
0.186647
0.186919
0.187253
0.187641
0.18808
0.188568
0.189104
0.1897
0.190356
0.191188
0.191782
0.193988
0.19484
0.199593
0.199508
0.199518
0.199121
0.198258
0.197061
0.195675
0.194213
0.192747
0.191324
0.189972
0.188706
0.187536
0.186462
0.185485
0.184603
0.18381
0.183104
0.182478
0.181927
0.181446
0.181031
0.180677
0.18038
0.180138
0.179948
0.179811
0.17973
0.179709
0.179779
0.179877
0.180231
0.180749
0.199411
0.198475
0.197748
0.197076
0.196333
0.195471
0.194494
0.193431
0.192315
0.191173
0.19003
0.188903
0.187803
0.18674
0.185719
0.184746
0.18382
0.182944
0.182118
0.18134
0.18061
0.179927
0.179288
0.178693
0.17814
0.17763
0.177161
0.176735
0.176355
0.17603
0.175753
0.175551
0.175468
0.199394
0.198255
0.197227
0.19629
0.195403
0.194525
0.193631
0.192711
0.191765
0.1908
0.189825
0.188848
0.187877
0.186917
0.185976
0.185056
0.184161
0.183293
0.182454
0.181644
0.180865
0.180117
0.179399
0.178712
0.178056
0.177429
0.176834
0.17627
0.175739
0.175244
0.174786
0.174369
0.174006
0.199394
0.198216
0.197096
0.196039
0.195039
0.194082
0.193155
0.192245
0.191343
0.190446
0.189553
0.188665
0.187783
0.186911
0.186049
0.185201
0.184368
0.183553
0.182756
0.181979
0.181222
0.180486
0.179772
0.17908
0.178409
0.177761
0.177136
0.176533
0.175955
0.175403
0.174878
0.174383
0.173918
0.199395
0.19821
0.197068
0.19597
0.194919
0.193911
0.192942
0.192005
0.191095
0.190207
0.189337
0.188483
0.187644
0.186819
0.186008
0.185211
0.184428
0.183661
0.182909
0.182172
0.181453
0.18075
0.180063
0.179394
0.178743
0.178109
0.177492
0.176894
0.176316
0.175757
0.175219
0.174705
0.174212
0.199395
0.198209
0.197062
0.195954
0.194885
0.193855
0.192861
0.191902
0.190975
0.190077
0.189205
0.188356
0.187529
0.186722
0.185934
0.185163
0.184409
0.183672
0.18295
0.182245
0.181556
0.180882
0.180224
0.179581
0.178954
0.178342
0.177746
0.177166
0.176602
0.176055
0.175526
0.175016
0.174525
0.199395
0.198209
0.197061
0.195951
0.194877
0.193839
0.192835
0.191865
0.190926
0.190018
0.189139
0.188286
0.187458
0.186654
0.185871
0.18511
0.184368
0.183645
0.18294
0.182252
0.181581
0.180927
0.180288
0.179665
0.179057
0.178465
0.177887
0.177324
0.176777
0.176245
0.175729
0.17523
0.174747
0.199395
0.198209
0.197061
0.19595
0.194874
0.193834
0.192827
0.191852
0.190909
0.189995
0.18911
0.188253
0.187422
0.186615
0.185832
0.185072
0.184333
0.183615
0.182916
0.182236
0.181574
0.180929
0.180301
0.179689
0.179094
0.178513
0.177948
0.177398
0.176863
0.176343
0.175838
0.175349
0.174874
0.199395
0.198209
0.19706
0.195949
0.194874
0.193832
0.192824
0.191848
0.190903
0.189987
0.189099
0.188239
0.187405
0.186596
0.185812
0.18505
0.184311
0.183593
0.182896
0.182218
0.181559
0.180918
0.180295
0.179688
0.179098
0.178525
0.177966
0.177423
0.176895
0.176383
0.175885
0.175402
0.174933
0.199395
0.198209
0.19706
0.195949
0.194873
0.193832
0.192823
0.191847
0.1909
0.189984
0.189095
0.188233
0.187398
0.186588
0.185802
0.185039
0.184299
0.183581
0.182883
0.182205
0.181547
0.180907
0.180285
0.179681
0.179093
0.178522
0.177966
0.177427
0.176902
0.176393
0.175898
0.175418
0.174951
0.199395
0.198209
0.19706
0.195949
0.194873
0.193831
0.192822
0.191846
0.190899
0.189982
0.189093
0.188231
0.187395
0.186584
0.185797
0.185034
0.184293
0.183574
0.182876
0.182198
0.181539
0.180899
0.180277
0.179673
0.179086
0.178516
0.177961
0.177423
0.176899
0.176391
0.175897
0.175418
0.174952
0.199395
0.198208
0.19706
0.195948
0.194872
0.193831
0.192822
0.191845
0.190898
0.189981
0.189091
0.188229
0.187393
0.186582
0.185795
0.185031
0.18429
0.18357
0.182872
0.182193
0.181534
0.180894
0.180272
0.179668
0.179081
0.17851
0.177956
0.177418
0.176894
0.176386
0.175892
0.175413
0.174946
0.199395
0.198208
0.19706
0.195948
0.194872
0.19383
0.192821
0.191844
0.190897
0.18998
0.18909
0.188228
0.187391
0.18658
0.185793
0.185029
0.184288
0.183568
0.182869
0.18219
0.181531
0.180891
0.180269
0.179664
0.179077
0.178506
0.177952
0.177413
0.17689
0.176381
0.175886
0.175406
0.174939
0.199395
0.198208
0.19706
0.195948
0.194872
0.19383
0.192821
0.191844
0.190897
0.189979
0.189089
0.188227
0.18739
0.186579
0.185791
0.185027
0.184286
0.183566
0.182867
0.182188
0.181529
0.180888
0.180266
0.179661
0.179074
0.178503
0.177948
0.177409
0.176885
0.176376
0.175881
0.1754
0.174932
0.199395
0.198208
0.19706
0.195948
0.194872
0.19383
0.192821
0.191843
0.190896
0.189978
0.189088
0.188226
0.187389
0.186578
0.18579
0.185026
0.184284
0.183564
0.182865
0.182186
0.181527
0.180886
0.180264
0.179659
0.179071
0.1785
0.177945
0.177406
0.176882
0.176372
0.175876
0.175395
0.174926
0.199395
0.198208
0.19706
0.195948
0.194871
0.193829
0.19282
0.191843
0.190896
0.189978
0.189088
0.188225
0.187388
0.186577
0.185789
0.185025
0.184283
0.183563
0.182863
0.182184
0.181525
0.180884
0.180262
0.179657
0.179069
0.178498
0.177942
0.177403
0.176878
0.176368
0.175872
0.175389
0.17492
0.199395
0.198208
0.197059
0.195948
0.194871
0.193829
0.19282
0.191842
0.190895
0.189977
0.189087
0.188224
0.187387
0.186576
0.185788
0.185024
0.184282
0.183561
0.182862
0.182183
0.181523
0.180882
0.18026
0.179655
0.179067
0.178495
0.17794
0.1774
0.176875
0.176364
0.175868
0.175385
0.174915
0.199395
0.198208
0.197059
0.195947
0.194871
0.193829
0.19282
0.191842
0.190895
0.189977
0.189087
0.188224
0.187387
0.186575
0.185787
0.185023
0.184281
0.18356
0.182861
0.182181
0.181522
0.180881
0.180258
0.179653
0.179064
0.178493
0.177937
0.177397
0.176871
0.17636
0.175863
0.17538
0.17491
0.199395
0.198208
0.197059
0.195947
0.194871
0.193829
0.192819
0.191842
0.190894
0.189976
0.189086
0.188223
0.187386
0.186574
0.185786
0.185022
0.18428
0.183559
0.18286
0.18218
0.18152
0.180879
0.180256
0.179651
0.179062
0.17849
0.177934
0.177394
0.176868
0.176357
0.17586
0.175376
0.174905
0.199395
0.198208
0.197059
0.195947
0.194871
0.193829
0.192819
0.191842
0.190894
0.189976
0.189086
0.188223
0.187385
0.186573
0.185786
0.185021
0.184279
0.183558
0.182858
0.182179
0.181519
0.180878
0.180254
0.179649
0.17906
0.178488
0.177932
0.177391
0.176865
0.176353
0.175856
0.175372
0.1749
0.199395
0.198208
0.197059
0.195947
0.194871
0.193829
0.192819
0.191841
0.190894
0.189976
0.189085
0.188222
0.187385
0.186573
0.185785
0.18502
0.184278
0.183557
0.182857
0.182178
0.181518
0.180876
0.180253
0.179647
0.179058
0.178486
0.17793
0.177388
0.176862
0.17635
0.175852
0.175368
0.174896
0.199395
0.198208
0.197059
0.195947
0.194871
0.193829
0.192819
0.191841
0.190894
0.189975
0.189085
0.188222
0.187385
0.186572
0.185784
0.18502
0.184277
0.183556
0.182856
0.182177
0.181516
0.180875
0.180251
0.179646
0.179057
0.178484
0.177927
0.177386
0.176859
0.176347
0.175849
0.175364
0.174892
0.199395
0.198208
0.197059
0.195947
0.194871
0.193828
0.192819
0.191841
0.190894
0.189975
0.189085
0.188222
0.187384
0.186572
0.185784
0.185019
0.184277
0.183556
0.182856
0.182176
0.181515
0.180874
0.18025
0.179644
0.179055
0.178482
0.177925
0.177384
0.176857
0.176344
0.175846
0.175361
0.174889
0.199395
0.198208
0.197059
0.195947
0.194871
0.193828
0.192819
0.191841
0.190893
0.189975
0.189085
0.188221
0.187384
0.186572
0.185783
0.185019
0.184276
0.183555
0.182855
0.182175
0.181514
0.180873
0.180249
0.179643
0.179053
0.17848
0.177923
0.177382
0.176854
0.176342
0.175843
0.175358
0.174885
0.199395
0.198208
0.197059
0.195947
0.194871
0.193828
0.192819
0.191841
0.190893
0.189975
0.189085
0.188221
0.187384
0.186571
0.185783
0.185018
0.184276
0.183555
0.182854
0.182174
0.181514
0.180872
0.180248
0.179641
0.179052
0.178479
0.177922
0.17738
0.176852
0.176339
0.17584
0.175355
0.174882
0.199395
0.198208
0.197059
0.195947
0.194871
0.193828
0.192819
0.191841
0.190893
0.189975
0.189084
0.188221
0.187384
0.186571
0.185783
0.185018
0.184275
0.183554
0.182854
0.182174
0.181513
0.180871
0.180247
0.17964
0.179051
0.178478
0.17792
0.177378
0.17685
0.176337
0.175838
0.175352
0.174879
0.199395
0.198208
0.197059
0.195947
0.194871
0.193828
0.192819
0.191841
0.190893
0.189975
0.189084
0.188221
0.187384
0.186571
0.185783
0.185018
0.184275
0.183554
0.182854
0.182173
0.181512
0.18087
0.180246
0.17964
0.17905
0.178476
0.177919
0.177376
0.176849
0.176335
0.175836
0.17535
0.174877
0.199395
0.198208
0.197059
0.195947
0.194871
0.193828
0.192819
0.191841
0.190893
0.189975
0.189084
0.188221
0.187384
0.186571
0.185783
0.185018
0.184275
0.183554
0.182853
0.182173
0.181512
0.18087
0.180246
0.179639
0.179049
0.178476
0.177918
0.177375
0.176847
0.176334
0.175834
0.175348
0.174875
0.199395
0.198208
0.197059
0.195947
0.194871
0.193828
0.192819
0.191841
0.190893
0.189975
0.189085
0.188221
0.187384
0.186571
0.185783
0.185018
0.184275
0.183554
0.182854
0.182173
0.181512
0.18087
0.180246
0.179639
0.179049
0.178476
0.177918
0.177375
0.176847
0.176333
0.175833
0.175347
0.174873
0.199395
0.198208
0.197059
0.195947
0.194871
0.193828
0.192819
0.191841
0.190894
0.189975
0.189085
0.188222
0.187384
0.186572
0.185784
0.185019
0.184276
0.183555
0.182855
0.182174
0.181513
0.180871
0.180247
0.17964
0.17905
0.178476
0.177918
0.177375
0.176846
0.176332
0.175832
0.175345
0.17487
0.199395
0.198208
0.197059
0.195947
0.194871
0.193829
0.19282
0.191842
0.190895
0.189978
0.189088
0.188225
0.187389
0.186577
0.185789
0.185024
0.184282
0.183561
0.18286
0.18218
0.181518
0.180875
0.18025
0.179643
0.179051
0.178476
0.177917
0.177372
0.176842
0.176326
0.175824
0.175334
0.174858
0.199395
0.198208
0.197059
0.195948
0.194872
0.193831
0.192824
0.191848
0.190902
0.189986
0.189097
0.188235
0.187399
0.186588
0.1858
0.185035
0.184291
0.183569
0.182866
0.182183
0.181519
0.180873
0.180244
0.179632
0.179037
0.178457
0.177892
0.177341
0.176805
0.176283
0.175774
0.175278
0.174794
0.199395
0.198209
0.197062
0.195955
0.194886
0.193853
0.192854
0.191885
0.190945
0.190032
0.189145
0.188283
0.187445
0.18663
0.185836
0.185064
0.184312
0.183579
0.182866
0.182171
0.181494
0.180834
0.18019
0.179563
0.178951
0.178355
0.177773
0.177206
0.176652
0.176112
0.175585
0.175071
0.174569
0.199395
0.198223
0.197107
0.196032
0.194988
0.193971
0.192978
0.192008
0.191061
0.190136
0.189234
0.188352
0.187492
0.186652
0.185833
0.185033
0.184252
0.183491
0.182747
0.182021
0.181312
0.180621
0.179945
0.179285
0.178641
0.178012
0.177397
0.176797
0.17621
0.175637
0.175077
0.174529
0.173994
0.19941
0.198319
0.197296
0.1963
0.19531
0.194318
0.193328
0.192345
0.191372
0.190416
0.189477
0.188559
0.187662
0.186787
0.185933
0.1851
0.184287
0.183495
0.182722
0.181968
0.181232
0.180514
0.179813
0.179128
0.17846
0.177807
0.177168
0.176545
0.175936
0.175341
0.17476
0.174192
0.173636
0.199716
0.19914
0.19847
0.197765
0.197073
0.19642
0.195814
0.195254
0.194738
0.194267
0.193838
0.193449
0.193099
0.192787
0.192509
0.192265
0.192052
0.191868
0.191711
0.19158
0.191472
0.191387
0.191322
0.191276
0.191248
0.191236
0.19124
0.191259
0.191291
0.191335
0.191391
0.191458
0.191535
0.205424
0.216593
0.22763
0.238434
0.248976
0.259243
0.269229
0.278925
0.288325
0.297422
0.306214
0.314697
0.322872
0.33074
0.338303
0.345564
0.352529
0.359203
0.365592
0.371703
0.377544
0.383122
0.388446
0.393525
0.398365
0.402977
0.407368
0.411548
0.415524
0.419304
0.422898
0.426312
0.429557
0.587459
1.19139
1.4237
1.50135
1.61632
1.75133
1.85409
1.91135
1.93361
1.93491
1.92447
1.90749
1.88752
1.86747
1.84947
1.83459
1.82283
1.81331
1.80476
1.79591
1.78584
1.77416
1.76091
1.74645
1.73124
1.71568
1.70002
1.68437
1.66875
1.65321
1.63784
1.62284
1.60838
1.59453
1.58105
1.56732
1.55223
1.53415
1.51112
1.48094
1.44149
1.39092
1.32793
1.252
1.16356
1.06412
0.956442
0.844428
0.732954
0.627367
0.532717
0.452914
0.390236
0.345206
0.315287
0.295568
0.30285
0.41286
0.692649
1.09036
1.49443
1.83234
2.08365
2.25524
2.36195
2.41828
2.43596
2.42393
2.38885
2.33568
2.26813
2.18908
2.10077
2.00502
1.90333
1.79704
1.68733
1.5753
1.462
1.34843
1.2356
1.12446
1.01595
0.91097
0.810394
0.71505
0.625739
0.543232
0.468096
0.400311
0.339614
0.288895
0.258623
0.259206
0.283607
0.313987
0.340268
0.36089
0.377008
0.393471
0.242974
0.345569
0.488738
0.615897
0.714978
0.795675
0.870627
0.946359
1.02159
1.09219
1.15455
1.20685
1.24941
1.28417
1.31375
1.3403
1.36485
1.38715
1.40618
1.42069
1.42984
1.43345
1.43198
1.42635
1.41757
1.40656
1.39398
1.38022
1.36549
1.34993
1.33372
1.3171
1.30032
1.28357
1.26677
1.24951
1.23092
1.20965
1.18399
1.15207
1.11205
1.06243
1.00236
0.931828
0.851905
0.764826
0.673974
0.583634
0.498475
0.422787
0.359659
0.310418
0.274726
0.251306
0.237627
0.228182
0.227709
0.293588
0.511013
0.866081
1.25597
1.59784
1.86106
2.04672
2.16702
2.23539
2.26327
2.25963
2.23129
2.18344
2.12007
2.0443
1.95861
1.86505
1.76536
1.66106
1.55352
1.44399
1.33365
1.22363
1.11498
1.00874
0.905859
0.807257
0.713781
0.626216
0.545288
0.471657
0.405748
0.347367
0.296098
0.254844
0.234297
0.244115
0.275044
0.308637
0.336058
0.356894
0.372884
0.388972
0.191941
0.20088
0.227896
0.260595
0.289522
0.312858
0.333246
0.354826
0.380568
0.41154
0.447256
0.486603
0.528821
0.573945
0.62247
0.674482
0.728899
0.783348
0.834736
0.88016
0.917641
0.946435
0.966905
0.980141
0.987519
0.99034
0.98962
0.986043
0.98003
0.971869
0.961822
0.9502
0.937342
0.923543
0.908936
0.89337
0.876327
0.8569
0.833867
0.80585
0.771561
0.730078
0.681127
0.625308
0.564226
0.500458
0.437296
0.378253
0.326398
0.283736
0.250879
0.227158
0.211154
0.201491
0.196929
0.194132
0.190946
0.217764
0.354958
0.637333
0.991937
1.32867
1.6021
1.8036
1.94056
2.02439
2.06583
2.07375
2.05513
2.01541
1.95887
1.8889
1.80828
1.71929
1.62391
1.52385
1.42066
1.31572
1.21035
1.10574
1.00302
0.903232
0.807353
0.716262
0.630753
0.551528
0.479194
0.414267
0.357031
0.307154
0.263928
0.229713
0.214966
0.229684
0.264368
0.30021
0.328693
0.349905
0.365943
0.381881
0.180487
0.180433
0.183065
0.188184
0.194115
0.199534
0.204074
0.208224
0.212755
0.218272
0.225103
0.233402
0.243354
0.255389
0.270262
0.288926
0.312168
0.340124
0.371947
0.405864
0.439629
0.471151
0.498965
0.52239
0.541393
0.556319
0.567613
0.575663
0.580745
0.583064
0.582827
0.580282
0.575732
0.569487
0.561779
0.552683
0.54204
0.529437
0.51425
0.495766
0.473367
0.446751
0.416137
0.38239
0.347014
0.311958
0.279267
0.250655
0.227156
0.209011
0.195807
0.186756
0.180983
0.177843
0.177053
0.177352
0.175505
0.181564
0.248175
0.437128
0.728427
1.04176
1.31707
1.53204
1.6863
1.78762
1.84523
1.8675
1.8614
1.83255
1.78549
1.72389
1.6508
1.56875
1.47994
1.38628
1.28947
1.19103
1.09237
0.994757
0.899342
0.807183
0.719223
0.636295
0.559117
0.488285
0.424278
0.36747
0.318037
0.275585
0.239159
0.210288
0.198575
0.214857
0.251106
0.288513
0.318109
0.339925
0.356223
0.372249
0.175338
0.174964
0.17475
0.175012
0.175687
0.176517
0.177296
0.177981
0.178673
0.179491
0.180515
0.181789
0.183358
0.185316
0.187843
0.191207
0.195733
0.201712
0.209297
0.218412
0.228734
0.239761
0.250947
0.261822
0.27206
0.281476
0.289961
0.297427
0.303768
0.308867
0.312624
0.314993
0.315993
0.315704
0.314223
0.311619
0.307892
0.302941
0.296586
0.28861
0.27886
0.267348
0.254339
0.240375
0.226215
0.212694
0.200546
0.190271
0.182078
0.175923
0.171599
0.168818
0.167278
0.166759
0.167259
0.168504
0.168467
0.168054
0.191951
0.292833
0.497082
0.761136
1.02187
1.2422
1.41078
1.52937
1.60438
1.64296
1.65168
1.63613
1.601
1.55018
1.48694
1.41407
1.33394
1.24865
1.16005
1.06977
0.979289
0.889923
0.802851
0.719113
0.639616
0.565137
0.496312
0.433642
0.377494
0.328129
0.285653
0.249685
0.219151
0.194672
0.1843
0.199517
0.235277
0.273527
0.304282
0.326958
0.343761
0.360138
0.17364
0.173175
0.172645
0.172137
0.171718
0.171384
0.171096
0.170827
0.170583
0.170379
0.170229
0.170138
0.17011
0.170163
0.170332
0.170681
0.171284
0.172217
0.173534
0.175243
0.177307
0.179646
0.182161
0.184754
0.187353
0.189907
0.192384
0.194752
0.196965
0.198963
0.200672
0.202025
0.202967
0.203467
0.203512
0.2031
0.202222
0.200858
0.198972
0.196523
0.193489
0.189898
0.185854
0.181535
0.177181
0.173047
0.169359
0.166281
0.163899
0.162224
0.161213
0.160785
0.160841
0.161297
0.162167
0.163462
0.164322
0.163472
0.168976
0.210912
0.326508
0.516904
0.739456
0.949903
1.12464
1.25688
1.3483
1.40369
1.42855
1.42806
1.40683
1.36884
1.31749
1.25575
1.18616
1.11096
1.03212
0.951368
0.870238
0.790086
0.712095
0.637291
0.566547
0.500585
0.439983
0.385168
0.336428
0.293939
0.257758
0.227558
0.202277
0.18174
0.171938
0.184192
0.217381
0.255473
0.287278
0.31104
0.328603
0.345622
0.173423
0.172867
0.172274
0.171644
0.171008
0.170388
0.169791
0.169213
0.168657
0.168126
0.167621
0.167142
0.166686
0.166257
0.165862
0.165518
0.165247
0.165072
0.165008
0.165059
0.165218
0.165463
0.165769
0.166112
0.166472
0.166839
0.167207
0.167572
0.167925
0.168253
0.168535
0.168746
0.168862
0.16886
0.168728
0.168454
0.168033
0.167462
0.166736
0.165854
0.164819
0.163649
0.16238
0.161071
0.159796
0.158639
0.157676
0.156967
0.156547
0.156424
0.156581
0.156985
0.157592
0.158356
0.159267
0.160356
0.161348
0.161245
0.161354
0.174384
0.225977
0.336933
0.498514
0.677701
0.844152
0.981637
1.08513
1.15553
1.19626
1.21146
1.20527
1.18151
1.14358
1.09451
1.03695
0.973219
0.905377
0.835227
0.764347
0.694117
0.625725
0.560185
0.498346
0.440897
0.388375
0.341164
0.299496
0.263483
0.233132
0.208162
0.187621
0.170795
0.161495
0.169768
0.198393
0.234903
0.267325
0.292266
0.310818
0.32878
0.173672
0.173072
0.172456
0.171811
0.171142
0.170465
0.16979
0.169122
0.168465
0.167822
0.167192
0.166575
0.165971
0.165378
0.164799
0.16424
0.163709
0.163214
0.162763
0.162356
0.161993
0.161665
0.161365
0.161082
0.16081
0.160546
0.160288
0.160036
0.15979
0.159547
0.1593
0.159043
0.158766
0.158459
0.158117
0.157735
0.157313
0.156855
0.156365
0.155852
0.155327
0.154808
0.154315
0.153874
0.153518
0.153275
0.153174
0.153233
0.153458
0.153843
0.154373
0.155022
0.15576
0.156554
0.157382
0.158241
0.159048
0.159338
0.158782
0.161129
0.179031
0.230195
0.324597
0.452772
0.591754
0.720628
0.827404
0.907703
0.961612
0.991372
1.00006
0.99096
0.967214
0.931741
0.887174
0.835867
0.779905
0.721125
0.661132
0.601319
0.542882
0.486829
0.433998
0.385061
0.34053
0.300757
0.265932
0.236106
0.211226
0.191036
0.174741
0.161389
0.152915
0.157159
0.17967
0.212795
0.244922
0.270869
0.290527
0.309719
0.173976
0.173364
0.172745
0.172106
0.171447
0.170772
0.170092
0.16941
0.168732
0.16806
0.167394
0.166734
0.166079
0.16543
0.164788
0.164155
0.163535
0.162932
0.162351
0.161792
0.161255
0.160737
0.160234
0.159742
0.159257
0.158778
0.158304
0.157837
0.157376
0.156921
0.156473
0.156027
0.155581
0.155132
0.154679
0.15422
0.15376
0.153304
0.152861
0.152442
0.152059
0.151729
0.151468
0.151291
0.151215
0.151252
0.151411
0.151694
0.152094
0.152601
0.153196
0.153855
0.154553
0.155263
0.155958
0.156613
0.157184
0.157484
0.15716
0.156809
0.161016
0.179616
0.223366
0.296666
0.392507
0.496014
0.592862
0.673892
0.735066
0.775772
0.797299
0.801838
0.791914
0.770088
0.738802
0.700312
0.656658
0.609657
0.560909
0.511804
0.463535
0.417108
0.373353
0.332926
0.296316
0.263837
0.235632
0.211695
0.191914
0.176045
0.163463
0.15323
0.145972
0.146963
0.162702
0.190568
0.220954
0.247312
0.267977
0.288596
0.174204
0.173595
0.172981
0.172354
0.171712
0.171055
0.17039
0.16972
0.169049
0.16838
0.167713
0.167048
0.166385
0.165724
0.165067
0.164414
0.163768
0.163132
0.162508
0.161897
0.161299
0.160713
0.160137
0.159567
0.159002
0.158441
0.157884
0.157332
0.156785
0.156245
0.155711
0.155185
0.154664
0.154148
0.153639
0.153139
0.152652
0.152185
0.151747
0.15135
0.151006
0.150728
0.15053
0.150423
0.150415
0.150513
0.150718
0.151025
0.151425
0.151904
0.152442
0.153019
0.153611
0.154194
0.154741
0.155219
0.155586
0.155754
0.155542
0.154884
0.154929
0.1597
0.17578
0.209205
0.261826
0.329259
0.402516
0.472155
0.531318
0.576378
0.60625
0.621473
0.623486
0.614153
0.595483
0.569458
0.537952
0.502681
0.465182
0.426808
0.388725
0.351917
0.317189
0.285167
0.256296
0.230843
0.208902
0.190419
0.175251
0.163174
0.153727
0.146138
0.140319
0.139263
0.148704
0.169923
0.196757
0.222414
0.24363
0.265676
0.174339
0.173735
0.173129
0.172513
0.171886
0.171248
0.170602
0.169949
0.169294
0.168638
0.167982
0.167326
0.16667
0.166015
0.165361
0.16471
0.164063
0.163422
0.162789
0.162165
0.161549
0.160941
0.16034
0.159742
0.159148
0.158557
0.157968
0.157382
0.156801
0.156225
0.155656
0.155093
0.154538
0.153992
0.153456
0.152934
0.152431
0.151953
0.15151
0.151113
0.150771
0.150497
0.150301
0.150191
0.150174
0.150251
0.150421
0.150678
0.15101
0.151404
0.151842
0.152306
0.152772
0.153219
0.153619
0.153942
0.154144
0.154167
0.153927
0.153325
0.152537
0.152762
0.156918
0.169007
0.192241
0.227334
0.271745
0.320379
0.367432
0.408133
0.439507
0.460296
0.47052
0.471012
0.46306
0.448158
0.427847
0.403621
0.376866
0.348826
0.320591
0.293078
0.267031
0.243013
0.22141
0.202435
0.186143
0.17247
0.161276
0.152382
0.145475
0.14
0.135603
0.133662
0.138224
0.152457
0.174033
0.197429
0.218279
0.241414
0.174402
0.173804
0.173202
0.172595
0.17198
0.171356
0.170725
0.170088
0.169448
0.168806
0.168162
0.167518
0.166873
0.166229
0.165584
0.164942
0.164302
0.163666
0.163036
0.162412
0.161795
0.161183
0.160575
0.159971
0.159369
0.158768
0.158169
0.157572
0.156979
0.15639
0.155806
0.155229
0.154659
0.154099
0.153551
0.153017
0.152505
0.152019
0.151568
0.151161
0.150808
0.150519
0.150301
0.150162
0.150105
0.150131
0.150238
0.150418
0.150661
0.150955
0.151283
0.151628
0.151968
0.152284
0.15255
0.152736
0.152802
0.152704
0.152391
0.15181
0.150956
0.150102
0.150207
0.153142
0.161182
0.175978
0.197739
0.225006
0.254992
0.28438
0.310178
0.330262
0.34352
0.349721
0.349276
0.343006
0.331952
0.31724
0.299988
0.281239
0.261925
0.242837
0.224612
0.207724
0.192493
0.179089
0.167562
0.157864
0.149898
0.143543
0.138608
0.134737
0.131563
0.129541
0.131005
0.139153
0.154521
0.173992
0.19313
0.216537
0.174423
0.173827
0.173229
0.172626
0.172017
0.171403
0.170782
0.170156
0.169527
0.168896
0.168263
0.167629
0.166994
0.166359
0.165724
0.16509
0.164458
0.163829
0.163205
0.162586
0.161971
0.16136
0.160754
0.160149
0.159546
0.158945
0.158345
0.157746
0.15715
0.156558
0.15597
0.155388
0.154813
0.154247
0.153693
0.153155
0.152636
0.152143
0.151683
0.151265
0.150896
0.150584
0.150336
0.150158
0.150052
0.150019
0.150055
0.150154
0.150307
0.150501
0.150722
0.150954
0.151179
0.151375
0.151521
0.151587
0.151541
0.151345
0.150961
0.150362
0.149533
0.148525
0.147595
0.147398
0.149032
0.153731
0.16232
0.174822
0.190386
0.207491
0.224326
0.239176
0.25073
0.258211
0.261373
0.260399
0.255781
0.248189
0.238378
0.227103
0.215068
0.202884
0.191049
0.179938
0.16981
0.160812
0.153003
0.146373
0.140875
0.136446
0.132983
0.130276
0.128045
0.126331
0.126236
0.130029
0.139452
0.153834
0.169763
0.192112
0.174424
0.173828
0.17323
0.172629
0.172024
0.171414
0.170799
0.17018
0.169559
0.168934
0.168308
0.167681
0.167053
0.166425
0.165796
0.165169
0.164543
0.16392
0.1633
0.162684
0.162072
0.161463
0.160858
0.160255
0.159653
0.159053
0.158454
0.157857
0.157261
0.156669
0.156081
0.155498
0.154922
0.154355
0.153799
0.153257
0.152735
0.152236
0.151767
0.151336
0.150949
0.150613
0.150334
0.150116
0.149961
0.149868
0.149836
0.149858
0.149925
0.150027
0.150151
0.150281
0.150401
0.150492
0.150532
0.150497
0.150356
0.150079
0.149636
0.149011
0.148195
0.147202
0.146098
0.145077
0.144542
0.145097
0.147384
0.151811
0.158358
0.16654
0.175531
0.184358
0.192091
0.198
0.201633
0.202828
0.201675
0.198457
0.193571
0.187473
0.180616
0.173415
0.166224
0.15932
0.152903
0.147104
0.141989
0.13758
0.13387
0.130836
0.128431
0.126541
0.124981
0.123662
0.123
0.124253
0.129062
0.138236
0.14985
0.169501
0.174418
0.173821
0.173222
0.17262
0.172016
0.171408
0.170796
0.170181
0.169563
0.168943
0.168321
0.167698
0.167073
0.166449
0.165824
0.1652
0.164578
0.163957
0.16334
0.162725
0.162114
0.161506
0.160901
0.160298
0.159697
0.159098
0.1585
0.157903
0.157309
0.156717
0.15613
0.155547
0.154971
0.154403
0.153846
0.153302
0.152776
0.152272
0.151795
0.151351
0.150947
0.150587
0.150277
0.150021
0.149819
0.149672
0.149577
0.149529
0.149519
0.149539
0.149575
0.149615
0.149643
0.149641
0.14959
0.149466
0.149246
0.148903
0.148413
0.147764
0.146952
0.145987
0.144892
0.143727
0.142621
0.141805
0.141596
0.142315
0.144164
0.147126
0.150947
0.155191
0.159348
0.162929
0.16555
0.166969
0.167101
0.165996
0.163807
0.160755
0.157088
0.153054
0.148878
0.144747
0.140808
0.137164
0.133882
0.130996
0.12852
0.126456
0.124786
0.123452
0.122342
0.121356
0.120605
0.120663
0.122573
0.127497
0.134627
0.150124
0.17441
0.173811
0.173211
0.172609
0.172004
0.171396
0.170785
0.170171
0.169555
0.168936
0.168316
0.167695
0.167072
0.166449
0.165826
0.165204
0.164582
0.163963
0.163345
0.16273
0.162118
0.161509
0.160903
0.160298
0.159696
0.159096
0.158497
0.157901
0.157306
0.156715
0.156127
0.155544
0.154968
0.154399
0.15384
0.153294
0.152764
0.152254
0.151769
0.151313
0.150892
0.15051
0.150172
0.149881
0.149637
0.14944
0.149289
0.149177
0.149099
0.149045
0.149005
0.148966
0.148912
0.14883
0.148699
0.148501
0.148213
0.147815
0.147287
0.146619
0.145809
0.144866
0.143805
0.142652
0.141451
0.140285
0.139278
0.138591
0.138381
0.138748
0.139684
0.141068
0.142686
0.144282
0.145606
0.146462
0.146725
0.146351
0.145364
0.143844
0.141903
0.139671
0.137273
0.134826
0.132426
0.130148
0.128046
0.126155
0.124496
0.123079
0.121901
0.120932
0.120107
0.119353
0.118671
0.118284
0.118706
0.120845
0.124339
0.135024
0.174402
0.173802
0.1732
0.172597
0.171991
0.171382
0.170771
0.170157
0.169542
0.168924
0.168304
0.167683
0.167061
0.166438
0.165816
0.165193
0.164571
0.163951
0.163332
0.162715
0.162101
0.161489
0.16088
0.160273
0.159669
0.159066
0.158465
0.157867
0.157271
0.156678
0.156089
0.155505
0.154927
0.154357
0.153796
0.153246
0.152712
0.152196
0.151702
0.151235
0.150798
0.150396
0.150032
0.149708
0.149426
0.149186
0.148984
0.148816
0.148677
0.148559
0.14845
0.148341
0.148217
0.148063
0.147865
0.147602
0.147258
0.146814
0.146254
0.145571
0.144764
0.14384
0.142811
0.141694
0.140513
0.139299
0.138101
0.136987
0.136037
0.135326
0.134903
0.134769
0.13487
0.135108
0.135363
0.135515
0.135465
0.13515
0.134547
0.133663
0.132538
0.131225
0.129787
0.128287
0.126781
0.125319
0.123938
0.122665
0.12152
0.120513
0.119647
0.118905
0.118251
0.117635
0.117037
0.116527
0.116315
0.11695
0.118147
0.124434
0.174395
0.173794
0.173191
0.172586
0.171979
0.171369
0.170758
0.170144
0.169527
0.168909
0.168289
0.167668
0.167046
0.166423
0.165799
0.165176
0.164553
0.16393
0.16331
0.16269
0.162073
0.161458
0.160846
0.160235
0.159627
0.159021
0.158418
0.157816
0.157218
0.156622
0.156031
0.155445
0.154864
0.154291
0.153727
0.153174
0.152634
0.152112
0.151609
0.15113
0.150678
0.150257
0.149869
0.149517
0.149201
0.14892
0.148674
0.148457
0.148264
0.148088
0.147919
0.147748
0.147561
0.147347
0.147088
0.146771
0.146379
0.145896
0.145311
0.144616
0.143812
0.142904
0.141903
0.140822
0.139679
0.138492
0.137282
0.13608
0.134922
0.133849
0.132897
0.132091
0.131434
0.130906
0.130465
0.130058
0.12963
0.129135
0.128542
0.127838
0.127024
0.126117
0.125141
0.124126
0.123099
0.122088
0.121117
0.120202
0.119359
0.118595
0.117912
0.1173
0.116737
0.116191
0.115644
0.115114
0.114671
0.114607
0.114668
0.1177
0.174388
0.173786
0.173182
0.172576
0.171968
0.171358
0.170745
0.17013
0.169514
0.168895
0.168274
0.167653
0.16703
0.166406
0.165781
0.165156
0.164531
0.163907
0.163284
0.162662
0.162042
0.161424
0.160807
0.160193
0.159581
0.158971
0.158363
0.157758
0.157156
0.156558
0.155963
0.155373
0.15479
0.154213
0.153644
0.153087
0.152542
0.152012
0.151501
0.151011
0.150545
0.150105
0.149696
0.149317
0.14897
0.148654
0.148368
0.148106
0.147866
0.147638
0.147417
0.147191
0.146949
0.14668
0.14637
0.146006
0.145572
0.145057
0.144451
0.143748
0.142947
0.142053
0.141077
0.140029
0.138924
0.137775
0.136597
0.135405
0.134219
0.133058
0.131945
0.130898
0.129931
0.129047
0.12824
0.127493
0.126785
0.126093
0.125397
0.124681
0.123939
0.12317
0.12238
0.121578
0.120778
0.119992
0.11923
0.118504
0.11782
0.117183
0.116594
0.116045
0.115519
0.114998
0.114469
0.113934
0.113413
0.113048
0.112667
0.113686
0.174382
0.173779
0.173174
0.172567
0.171958
0.171347
0.170733
0.170118
0.1695
0.168881
0.16826
0.167637
0.167013
0.166388
0.165762
0.165136
0.16451
0.163883
0.163258
0.162633
0.16201
0.161388
0.160768
0.16015
0.159533
0.158919
0.158308
0.157699
0.157093
0.156491
0.155892
0.155299
0.154711
0.15413
0.153557
0.152994
0.152443
0.151906
0.151386
0.150885
0.150405
0.149949
0.14952
0.149117
0.148742
0.148394
0.148072
0.147771
0.147487
0.147215
0.146946
0.146671
0.146381
0.146065
0.14571
0.145304
0.144836
0.144294
0.14367
0.142959
0.142162
0.141282
0.140328
0.13931
0.138238
0.137127
0.135986
0.134827
0.133663
0.132505
0.131367
0.130259
0.129194
0.128178
0.127215
0.126305
0.125441
0.124617
0.123821
0.123048
0.122288
0.12154
0.120801
0.120074
0.119362
0.118668
0.117997
0.117353
0.116738
0.116155
0.115601
0.11507
0.114548
0.114023
0.113486
0.112938
0.112384
0.111883