/*--------------------------------*- C++ -*----------------------------------*\
  =========                 |
  \\      /  F ield         | OpenFOAM: The Open Source CFD Toolbox
   \\    /   O peration     | Website:  https://openfoam.org
    \\  /    A nd           | Version:  10
     \\/     M anipulation  |
\*---------------------------------------------------------------------------*/
FoamFile
{
    format      ascii;
    class       surfaceScalarField;
    location    "200";
    object      phi;
}
// * * * * * * * * * * * * * * * * * * * * * * * * * * * * * * * * * * * * * //

dimensions      [0 3 -1 0 0 0 0];

internalField   nonuniform List<scalar> 
13452
(
6.02921e-05
-2.36432e-08
5.99942e-05
2.97937e-07
5.95903e-05
4.03917e-07
5.91163e-05
4.7392e-07
5.86122e-05
5.04087e-07
5.81314e-05
4.80821e-07
5.76959e-05
4.355e-07
5.73061e-05
3.89847e-07
5.69564e-05
3.4965e-07
5.66412e-05
3.15249e-07
5.63551e-05
2.86134e-07
5.60935e-05
2.61584e-07
5.58527e-05
2.40778e-07
5.56297e-05
2.22975e-07
5.54221e-05
2.0759e-07
5.52279e-05
1.94191e-07
5.50455e-05
1.82457e-07
5.48733e-05
1.72161e-07
5.47102e-05
1.63149e-07
5.45548e-05
1.55339e-07
5.44061e-05
1.48714e-07
5.42628e-05
1.43339e-07
5.41234e-05
1.39388e-07
5.39862e-05
1.37203e-07
5.38488e-05
1.37391e-07
5.37077e-05
1.41068e-07
5.35574e-05
1.50325e-07
5.33887e-05
1.68752e-07
5.31823e-05
2.0631e-07
5.29195e-05
2.62831e-07
5.24703e-05
4.49233e-07
5.19101e-05
5.60133e-07
1.07891e-06
5.08312e-05
6.21473e-05
-1.80567e-07
6.21735e-05
2.7168e-07
6.21957e-05
3.81766e-07
6.22122e-05
4.57372e-07
6.22123e-05
5.03961e-07
6.21823e-05
5.10912e-07
6.21206e-05
4.97153e-07
6.20336e-05
4.76847e-07
6.19289e-05
4.54334e-07
6.18131e-05
4.31061e-07
6.16911e-05
4.08184e-07
6.15662e-05
3.86459e-07
6.14408e-05
3.66189e-07
6.13163e-05
3.47429e-07
6.11938e-05
3.30148e-07
6.10737e-05
3.14286e-07
6.09563e-05
2.99779e-07
6.08419e-05
2.86571e-07
6.07304e-05
2.74634e-07
6.06218e-05
2.63973e-07
6.05159e-05
2.54642e-07
6.04125e-05
2.46768e-07
6.03113e-05
2.4058e-07
6.0212e-05
2.36467e-07
6.01143e-05
2.35074e-07
6.0018e-05
2.37435e-07
5.99228e-05
2.45515e-07
5.98295e-05
2.62015e-07
5.97408e-05
2.95062e-07
5.96678e-05
3.35746e-07
5.9624e-05
4.93061e-07
5.96193e-05
5.64866e-07
8.39362e-07
5.98588e-05
6.36688e-05
-8.7923e-08
6.37278e-05
2.12606e-07
6.37882e-05
3.21404e-07
6.38519e-05
3.93655e-07
6.39069e-05
4.4894e-07
6.39439e-05
4.73971e-07
6.39627e-05
4.78373e-07
6.39661e-05
4.73444e-07
6.39567e-05
4.63653e-07
6.39371e-05
4.50742e-07
6.39091e-05
4.36118e-07
6.38747e-05
4.20855e-07
6.38353e-05
4.05578e-07
6.37921e-05
3.90636e-07
6.3746e-05
3.76244e-07
6.36978e-05
3.6255e-07
6.36479e-05
3.49663e-07
6.35968e-05
3.37672e-07
6.35448e-05
3.2667e-07
6.3492e-05
3.16774e-07
6.34385e-05
3.08142e-07
6.33842e-05
3.01004e-07
6.33291e-05
2.95704e-07
6.32728e-05
2.92757e-07
6.32149e-05
2.9296e-07
6.31549e-05
2.97497e-07
6.30919e-05
3.08444e-07
6.30254e-05
3.28514e-07
6.29567e-05
3.63791e-07
6.28795e-05
4.12987e-07
6.28431e-05
5.29471e-07
6.27855e-05
6.22412e-07
7.6907e-07
6.28558e-05
6.55169e-05
-2.17805e-08
6.55581e-05
1.71391e-07
6.55953e-05
2.84202e-07
6.56366e-05
3.52436e-07
6.56792e-05
4.0629e-07
6.57165e-05
4.36693e-07
6.57468e-05
4.4808e-07
6.57704e-05
4.49844e-07
6.57876e-05
4.4645e-07
6.57988e-05
4.39528e-07
6.58046e-05
4.30299e-07
6.58057e-05
4.19773e-07
6.58027e-05
4.08605e-07
6.57961e-05
3.97201e-07
6.57865e-05
3.85848e-07
6.57743e-05
3.74769e-07
6.57598e-05
3.64146e-07
6.57433e-05
3.54142e-07
6.57251e-05
3.44921e-07
6.57052e-05
3.3667e-07
6.56837e-05
3.29618e-07
6.56607e-05
3.24071e-07
6.56359e-05
3.20451e-07
6.56093e-05
3.19353e-07
6.55806e-05
3.21648e-07
6.55496e-05
3.28565e-07
6.5516e-05
3.42044e-07
6.54799e-05
3.64567e-07
6.54433e-05
4.00394e-07
6.54049e-05
4.51394e-07
6.53952e-05
5.39172e-07
6.53895e-05
6.28121e-07
7.33291e-07
6.54253e-05
6.74276e-05
7.42952e-09
6.74481e-05
1.50835e-07
6.74718e-05
2.60483e-07
6.75002e-05
3.24105e-07
6.75337e-05
3.72809e-07
6.75667e-05
4.0369e-07
6.75966e-05
4.18118e-07
6.76232e-05
4.2326e-07
6.76464e-05
4.2326e-07
6.76662e-05
4.19687e-07
6.76829e-05
4.13642e-07
6.76966e-05
4.06071e-07
6.77076e-05
3.97618e-07
6.77161e-05
3.88696e-07
6.77223e-05
3.79607e-07
6.77265e-05
3.70597e-07
6.77288e-05
3.61874e-07
6.77293e-05
3.53633e-07
6.77281e-05
3.46072e-07
6.77254e-05
3.39413e-07
6.77211e-05
3.33924e-07
6.77152e-05
3.2995e-07
6.77077e-05
3.27946e-07
6.76985e-05
3.28528e-07
6.76876e-05
3.32547e-07
6.76751e-05
3.41154e-07
6.76611e-05
3.55986e-07
6.76466e-05
3.7903e-07
6.7634e-05
4.13073e-07
6.76253e-05
4.60045e-07
6.76371e-05
5.27383e-07
6.76648e-05
6.00379e-07
6.76695e-07
6.77214e-05
6.937e-05
2.14848e-08
6.93828e-05
1.37979e-07
6.94046e-05
2.38741e-07
6.9429e-05
2.99687e-07
6.94572e-05
3.44622e-07
6.94859e-05
3.74989e-07
6.9513e-05
3.90996e-07
6.95383e-05
3.98002e-07
6.95617e-05
3.99846e-07
6.95832e-05
3.98144e-07
6.96029e-05
3.93949e-07
6.96208e-05
3.88158e-07
6.9637e-05
3.81401e-07
6.96516e-05
3.74093e-07
6.96647e-05
3.6654e-07
6.96763e-05
3.58992e-07
6.96865e-05
3.51668e-07
6.96954e-05
3.44775e-07
6.97029e-05
3.38523e-07
6.97092e-05
3.33151e-07
6.97142e-05
3.2894e-07
6.97179e-05
3.26241e-07
6.97203e-05
3.25505e-07
6.97215e-05
3.27317e-07
6.97216e-05
3.32443e-07
6.97209e-05
3.41862e-07
6.97201e-05
3.56836e-07
6.97203e-05
3.78774e-07
6.97241e-05
4.09306e-07
6.97347e-05
4.49452e-07
6.97613e-05
5.00769e-07
6.98057e-05
5.56015e-07
6.07876e-07
6.98745e-05
7.13589e-05
2.89499e-08
7.13697e-05
1.27171e-07
7.13907e-05
2.17706e-07
7.14136e-05
2.76786e-07
7.14389e-05
3.19312e-07
7.1465e-05
3.48953e-07
7.149e-05
3.65916e-07
7.15139e-05
3.74179e-07
7.15365e-05
3.77224e-07
7.15579e-05
3.76722e-07
7.15781e-05
3.73711e-07
7.15972e-05
3.69057e-07
7.16153e-05
3.6339e-07
7.16322e-05
3.57133e-07
7.16482e-05
3.506e-07
7.16631e-05
3.44047e-07
7.16771e-05
3.37699e-07
7.16901e-05
3.31766e-07
7.17021e-05
3.26464e-07
7.17133e-05
3.22032e-07
7.17235e-05
3.18749e-07
7.17327e-05
3.16949e-07
7.17412e-05
3.17051e-07
7.17489e-05
3.1957e-07
7.17562e-05
3.25145e-07
7.17636e-05
3.34539e-07
7.17718e-05
3.48632e-07
7.17823e-05
3.68291e-07
7.17973e-05
3.94267e-07
7.18201e-05
4.26672e-07
7.18561e-05
4.64721e-07
7.19083e-05
5.03839e-07
5.36128e-07
7.198e-05
7.3402e-05
3.22395e-08
7.34118e-05
1.17363e-07
7.34312e-05
1.98262e-07
7.3453e-05
2.55006e-07
7.34767e-05
2.95596e-07
7.35013e-05
3.24375e-07
7.35253e-05
3.41937e-07
7.35483e-05
3.51204e-07
7.35703e-05
3.55209e-07
7.35914e-05
3.55632e-07
7.36116e-05
3.53511e-07
7.36309e-05
3.49686e-07
7.36495e-05
3.44792e-07
7.36674e-05
3.39269e-07
7.36846e-05
3.33442e-07
7.3701e-05
3.27576e-07
7.37168e-05
3.21901e-07
7.3732e-05
3.1663e-07
7.37465e-05
3.11979e-07
7.37603e-05
3.08179e-07
7.37736e-05
3.05492e-07
7.37863e-05
3.04225e-07
7.37986e-05
3.0474e-07
7.38107e-05
3.07464e-07
7.3823e-05
3.1289e-07
7.38359e-05
3.21554e-07
7.38506e-05
3.33997e-07
7.38682e-05
3.50628e-07
7.38909e-05
3.71576e-07
7.39213e-05
3.96318e-07
7.39628e-05
4.23235e-07
7.40177e-05
4.48871e-07
4.66284e-07
7.40876e-05
7.55018e-05
3.28695e-08
7.55109e-05
1.08261e-07
7.55287e-05
1.8055e-07
7.55494e-05
2.34296e-07
7.55719e-05
2.73045e-07
7.55954e-05
3.0084e-07
7.56187e-05
3.18665e-07
7.56412e-05
3.287e-07
7.56629e-05
3.33502e-07
7.56839e-05
3.347e-07
7.57041e-05
3.33322e-07
7.57236e-05
3.30181e-07
7.57424e-05
3.25908e-07
7.57608e-05
3.20956e-07
7.57785e-05
3.15661e-07
7.57958e-05
3.10298e-07
7.58126e-05
3.051e-07
7.5829e-05
3.00283e-07
7.58449e-05
2.96056e-07
7.58604e-05
2.92638e-07
7.58757e-05
2.90268e-07
7.58907e-05
2.89212e-07
7.59056e-05
2.89768e-07
7.59208e-05
2.92265e-07
7.59367e-05
2.97049e-07
7.59538e-05
3.04451e-07
7.59731e-05
3.14725e-07
7.59957e-05
3.27936e-07
7.60235e-05
3.43808e-07
7.60584e-05
3.61467e-07
7.61025e-05
3.79118e-07
7.61574e-05
3.93975e-07
4.00444e-07
7.62232e-05
7.76605e-05
3.19629e-08
7.76691e-05
9.9624e-08
7.76853e-05
1.6436e-07
7.77049e-05
2.1469e-07
7.77264e-05
2.51557e-07
7.7749e-05
2.78248e-07
7.77717e-05
2.96006e-07
7.77938e-05
3.06535e-07
7.78154e-05
3.11954e-07
7.78363e-05
3.13789e-07
7.78566e-05
3.13039e-07
7.78763e-05
3.10486e-07
7.78954e-05
3.06745e-07
7.79141e-05
3.02271e-07
7.79324e-05
2.97409e-07
7.79502e-05
2.92437e-07
7.79677e-05
2.87591e-07
7.79849e-05
2.83083e-07
7.80019e-05
2.79114e-07
7.80186e-05
2.75885e-07
7.80353e-05
2.73607e-07
7.8052e-05
2.72499e-07
7.8069e-05
2.72793e-07
7.80865e-05
2.7472e-07
7.81051e-05
2.78494e-07
7.81253e-05
2.8427e-07
7.81479e-05
2.92086e-07
7.81741e-05
3.01766e-07
7.82051e-05
3.12802e-07
7.82424e-05
3.24188e-07
7.82872e-05
3.34238e-07
7.83405e-05
3.4071e-07
3.39303e-07
7.84016e-05
7.98801e-05
3.02211e-08
7.98884e-05
9.13209e-08
7.99033e-05
1.49467e-07
7.99218e-05
1.96194e-07
7.99422e-05
2.31074e-07
7.99639e-05
2.56545e-07
7.9986e-05
2.73952e-07
8.00078e-05
2.84702e-07
8.00292e-05
2.90542e-07
8.00502e-05
2.92862e-07
8.00706e-05
2.92621e-07
8.00905e-05
2.90559e-07
8.011e-05
2.87269e-07
8.01291e-05
2.83199e-07
8.01478e-05
2.78695e-07
8.01662e-05
2.74033e-07
8.01843e-05
2.69447e-07
8.02023e-05
2.6514e-07
8.02201e-05
2.61301e-07
8.02379e-05
2.58112e-07
8.02557e-05
2.55747e-07
8.02738e-05
2.54382e-07
8.02924e-05
2.54181e-07
8.03119e-05
2.55289e-07
8.03326e-05
2.57805e-07
8.03551e-05
2.61747e-07
8.03802e-05
2.67e-07
8.04087e-05
2.73242e-07
8.04416e-05
2.79859e-07
8.048e-05
2.85855e-07
8.05244e-05
2.89769e-07
8.05753e-05
2.89844e-07
2.82867e-07
8.06317e-05
8.21626e-05
2.8056e-08
8.21706e-05
8.33138e-08
8.21844e-05
1.35672e-07
8.22018e-05
1.78762e-07
8.22214e-05
2.11534e-07
8.22423e-05
2.35678e-07
8.22637e-05
2.52504e-07
8.22852e-05
2.63227e-07
8.23064e-05
2.6929e-07
8.23274e-05
2.71937e-07
8.23479e-05
2.72074e-07
8.23681e-05
2.70399e-07
8.23879e-05
2.67472e-07
8.24073e-05
2.63731e-07
8.24265e-05
2.59512e-07
8.24455e-05
2.55086e-07
8.24642e-05
2.50679e-07
8.24829e-05
2.46483e-07
8.25015e-05
2.4267e-07
8.25202e-05
2.39396e-07
8.25392e-05
2.36805e-07
8.25585e-05
2.35025e-07
8.25786e-05
2.3416e-07
8.25996e-05
2.3428e-07
8.2622e-05
2.35395e-07
8.26463e-05
2.37423e-07
8.26731e-05
2.40151e-07
8.27032e-05
2.43184e-07
8.27372e-05
2.45891e-07
8.27757e-05
2.47366e-07
8.2819e-05
2.46407e-07
8.28672e-05
2.41678e-07
2.30826e-07
8.29192e-05
8.45101e-05
2.57073e-08
8.45178e-05
7.56017e-08
8.45307e-05
1.22801e-07
8.45472e-05
1.62313e-07
8.45658e-05
1.92873e-07
8.45859e-05
2.15589e-07
8.46068e-05
2.31647e-07
8.46279e-05
2.42122e-07
8.46489e-05
2.48221e-07
8.46698e-05
2.51042e-07
8.46905e-05
2.51424e-07
8.47109e-05
2.50024e-07
8.4731e-05
2.47369e-07
8.47508e-05
2.43874e-07
8.47705e-05
2.39866e-07
8.47899e-05
2.35602e-07
8.48093e-05
2.31296e-07
8.48287e-05
2.27128e-07
8.48481e-05
2.23248e-07
8.48677e-05
2.19789e-07
8.48877e-05
2.1686e-07
8.49081e-05
2.14547e-07
8.49294e-05
2.12904e-07
8.49517e-05
2.11939e-07
8.49755e-05
2.11595e-07
8.50012e-05
2.11726e-07
8.50293e-05
2.12068e-07
8.50603e-05
2.12203e-07
8.50946e-05
2.11541e-07
8.51327e-05
2.093e-07
8.51746e-05
2.0453e-07
8.522e-05
1.96252e-07
1.82759e-07
8.52681e-05
8.69246e-05
2.33115e-08
8.6932e-05
6.81905e-08
8.69441e-05
1.10713e-07
8.69596e-05
1.46753e-07
8.69775e-05
1.75025e-07
8.69968e-05
1.96216e-07
8.70171e-05
2.11353e-07
8.70379e-05
2.21391e-07
8.70587e-05
2.27351e-07
8.70796e-05
2.30195e-07
8.71003e-05
2.30696e-07
8.71209e-05
2.29461e-07
8.71413e-05
2.26981e-07
8.71615e-05
2.23649e-07
8.71816e-05
2.19773e-07
8.72016e-05
2.15597e-07
8.72216e-05
2.11319e-07
8.72416e-05
2.07101e-07
8.72618e-05
2.03075e-07
8.72822e-05
1.99345e-07
8.73031e-05
1.95992e-07
8.73246e-05
1.93065e-07
8.73469e-05
1.90575e-07
8.73703e-05
1.88484e-07
8.73952e-05
1.86693e-07
8.7422e-05
1.85017e-07
8.74509e-05
1.83174e-07
8.74823e-05
1.80764e-07
8.75166e-05
1.77261e-07
8.75538e-05
1.72025e-07
8.75941e-05
1.64327e-07
8.76368e-05
1.53472e-07
1.38235e-07
8.76814e-05
8.94079e-05
2.09426e-08
8.9415e-05
6.10812e-08
8.94264e-05
9.92939e-08
8.94412e-05
1.31983e-07
8.94583e-05
1.57919e-07
8.9477e-05
1.77498e-07
8.94968e-05
1.91583e-07
8.95172e-05
2.01018e-07
8.95378e-05
2.06681e-07
8.95586e-05
2.09411e-07
8.95794e-05
2.09906e-07
8.96002e-05
2.08728e-07
8.96208e-05
2.0633e-07
8.96414e-05
2.03077e-07
8.96619e-05
1.99257e-07
8.96824e-05
1.95097e-07
8.97029e-05
1.90777e-07
8.97236e-05
1.8644e-07
8.97445e-05
1.82198e-07
8.97657e-05
1.78131e-07
8.97874e-05
1.74293e-07
8.98098e-05
1.70702e-07
8.9833e-05
1.67337e-07
8.98573e-05
1.6413e-07
8.98831e-05
1.60952e-07
8.99105e-05
1.57608e-07
8.99398e-05
1.5382e-07
8.99714e-05
1.49225e-07
9.00053e-05
1.4338e-07
9.00415e-05
1.35776e-07
9.008e-05
1.25871e-07
9.01203e-05
1.13192e-07
9.68604e-08
9.01616e-05
9.19622e-05
1.86374e-08
9.1969e-05
5.42676e-08
9.19798e-05
8.84513e-08
9.19939e-05
1.17909e-07
9.20103e-05
1.41481e-07
9.20285e-05
1.59372e-07
9.20478e-05
1.72292e-07
9.20678e-05
1.80984e-07
9.20883e-05
1.86206e-07
9.2109e-05
1.8869e-07
9.21298e-05
1.89064e-07
9.21507e-05
1.87839e-07
9.21716e-05
1.85433e-07
9.21925e-05
1.82179e-07
9.22134e-05
1.78342e-07
9.22344e-05
1.7413e-07
9.22555e-05
1.69705e-07
9.22767e-05
1.65191e-07
9.22982e-05
1.60678e-07
9.23201e-05
1.56226e-07
9.23426e-05
1.51866e-07
9.23657e-05
1.47591e-07
9.23897e-05
1.43357e-07
9.24147e-05
1.39078e-07
9.2441e-05
1.34615e-07
9.24689e-05
1.29773e-07
9.24984e-05
1.24296e-07
9.25298e-05
1.17871e-07
9.2563e-05
1.10136e-07
9.25981e-05
1.007e-07
9.26348e-05
8.91751e-08
9.26727e-05
7.52517e-08
5.83012e-08
9.27113e-05
9.45894e-05
1.64114e-08
9.45959e-05
4.77359e-08
9.46063e-05
7.81089e-08
9.46197e-05
1.04444e-07
9.46356e-05
1.25641e-07
9.46532e-05
1.41776e-07
9.4672e-05
1.53433e-07
9.46917e-05
1.61258e-07
9.4712e-05
1.65912e-07
9.47327e-05
1.6803e-07
9.47536e-05
1.68174e-07
9.47746e-05
1.66807e-07
9.47958e-05
1.64305e-07
9.4817e-05
1.60974e-07
9.48382e-05
1.57053e-07
9.48596e-05
1.5273e-07
9.48812e-05
1.48145e-07
9.4903e-05
1.43405e-07
9.49251e-05
1.38582e-07
9.49476e-05
1.33716e-07
9.49706e-05
1.28818e-07
9.49944e-05
1.23865e-07
9.50189e-05
1.188e-07
9.50445e-05
1.13526e-07
9.50712e-05
1.07903e-07
9.50992e-05
1.01751e-07
9.51287e-05
9.48447e-08
9.51596e-05
8.69236e-08
9.51921e-05
7.77021e-08
9.52259e-05
6.68902e-08
9.52608e-05
5.42184e-08
9.52966e-05
3.94986e-08
2.22798e-08
9.53326e-05
9.72917e-05
1.42682e-08
9.72979e-05
4.14672e-08
9.73078e-05
6.82015e-08
9.73208e-05
9.15067e-08
9.73361e-05
1.10325e-07
9.73532e-05
1.24649e-07
9.73717e-05
1.34957e-07
9.73911e-05
1.41809e-07
9.74113e-05
1.45779e-07
9.74319e-05
1.47423e-07
9.74528e-05
1.47237e-07
9.7474e-05
1.45637e-07
9.74953e-05
1.42961e-07
9.75168e-05
1.39483e-07
9.75385e-05
1.35417e-07
9.75603e-05
1.30929e-07
9.75823e-05
1.26141e-07
9.76045e-05
1.2114e-07
9.76271e-05
1.15982e-07
9.76502e-05
1.1069e-07
9.76737e-05
1.05261e-07
9.76979e-05
9.96613e-08
9.77229e-05
9.38242e-08
9.77488e-05
8.76522e-08
9.77757e-05
8.10146e-08
9.78037e-05
7.37497e-08
9.78328e-05
6.56677e-08
9.78632e-05
5.65592e-08
9.78947e-05
4.62061e-08
9.79272e-05
3.44012e-08
9.79604e-05
2.09654e-08
9.79941e-05
5.79673e-09
-1.14291e-08
9.80279e-05
0.000100071
1.22049e-08
0.000100077
3.54383e-08
0.000100087
5.86717e-08
0.000100099
7.90238e-08
0.000100114
9.5465e-08
0.000100131
1.0793e-07
0.000100149
1.16814e-07
0.000100168
1.22598e-07
0.000100188
1.25783e-07
0.000100209
1.26854e-07
0.00010023
1.26248e-07
0.000100251
1.24333e-07
0.000100273
1.21411e-07
0.000100294
1.17724e-07
0.000100316
1.13462e-07
0.000100338
1.08766e-07
0.000100361
1.03742e-07
0.000100383
9.84576e-08
0.000100407
9.29541e-08
0.00010043
8.72428e-08
0.000100454
8.13086e-08
0.000100478
7.51104e-08
0.000100504
6.85804e-08
0.00010053
6.16252e-08
0.000100557
5.4127e-08
0.000100584
4.59472e-08
0.000100613
3.69311e-08
0.000100643
2.69155e-08
0.000100673
1.57406e-08
0.000100704
3.26346e-09
0.000100736
-1.06256e-08
0.000100768
-2.59699e-08
-4.30019e-08
0.000100799
0.00010293
1.0215e-08
0.000102936
2.96247e-08
0.000102945
4.94682e-08
0.000102957
6.69284e-08
0.000102972
8.09945e-08
0.000102988
9.15596e-08
0.000103006
9.89512e-08
0.000103025
1.03585e-07
0.000103045
1.05896e-07
0.000103065
1.06306e-07
0.000103086
1.05198e-07
0.000103108
1.02896e-07
0.00010313
9.96646e-08
0.000103152
9.57162e-08
0.000103174
9.12137e-08
0.000103196
8.62785e-08
0.000103219
8.09959e-08
0.000103242
7.54198e-08
0.000103265
6.95765e-08
0.000103289
6.34672e-08
0.000103313
5.70695e-08
0.000103338
5.03388e-08
0.000103364
4.32094e-08
0.00010339
3.55957e-08
0.000103416
2.7396e-08
0.000103444
1.84948e-08
0.000103472
8.77027e-09
0.000103501
-1.89973e-09
0.00010353
-1.36279e-08
0.00010356
-2.65062e-08
0.00010359
-4.05947e-08
0.00010362
-5.58956e-08
-7.25776e-08
0.000103649
0.000105871
8.29076e-09
0.000105876
2.40007e-08
0.000105885
4.05435e-08
0.000105897
5.51588e-08
0.000105911
6.68493e-08
0.000105927
7.54768e-08
0.000105945
8.13169e-08
0.000105964
8.47275e-08
0.000105984
8.60854e-08
0.000106004
8.57579e-08
0.000106025
8.40766e-08
0.000106047
8.13239e-08
0.000106069
7.77298e-08
0.000106091
7.34762e-08
0.000106113
6.87011e-08
0.000106136
6.35047e-08
0.000106159
5.79546e-08
0.000106183
5.20901e-08
0.000106206
4.5926e-08
0.00010623
3.94549e-08
0.000106255
3.26496e-08
0.00010628
2.54652e-08
0.000106305
1.784e-08
0.000106331
9.69912e-09
0.000106357
9.56301e-10
0.000106384
-8.48011e-09
0.000106412
-1.87039e-08
0.00010644
-2.98017e-08
0.000106468
-4.18494e-08
0.000106496
-5.48993e-08
0.000106525
-6.89774e-08
0.000106553
-8.40582e-08
-1.00266e-07
0.00010658
0.000108895
6.4237e-09
0.000108901
1.85414e-08
0.000108909
3.18541e-08
0.000108921
4.3658e-08
0.000108935
5.29679e-08
0.000108951
5.96224e-08
0.000108968
6.38565e-08
0.000108987
6.59788e-08
0.000109007
6.63147e-08
0.000109027
6.51821e-08
0.000109048
6.28666e-08
0.00010907
5.96107e-08
0.000109092
5.56106e-08
0.000109115
5.10189e-08
0.000109137
4.59494e-08
0.00010916
4.04818e-08
0.000109184
3.46668e-08
0.000109207
2.85305e-08
0.000109231
2.20773e-08
0.000109255
1.52932e-08
0.00010928
8.14817e-09
0.000109305
5.9847e-10
0.00010933
-7.41123e-09
0.000109356
-1.59459e-08
0.000109382
-2.5075e-08
0.000109408
-3.48706e-08
0.000109435
-4.54002e-08
0.000109462
-5.67239e-08
0.000109489
-6.88865e-08
0.000109516
-8.19137e-08
0.000109543
-9.58057e-08
0.000109569
-1.10522e-07
-1.26153e-07
0.000109595
0.000112006
4.60551e-09
0.000112012
1.32224e-08
0.00011202
2.33597e-08
0.000112031
3.23725e-08
0.000112045
3.92903e-08
0.000112061
4.39361e-08
0.000112078
4.65133e-08
0.000112097
4.72886e-08
0.000112117
4.65424e-08
0.000112137
4.45472e-08
0.000112159
4.15467e-08
0.00011218
3.77454e-08
0.000112203
3.33068e-08
0.000112225
2.83554e-08
0.000112248
2.29812e-08
0.000112272
1.72441e-08
0.000112295
1.11789e-08
0.000112319
4.7991e-09
0.000112343
-1.89963e-09
0.000112367
-8.93673e-09
0.000112391
-1.63438e-08
0.000112416
-2.41623e-08
0.000112441
-3.24414e-08
0.000112467
-4.1235e-08
0.000112492
-5.0599e-08
0.000112518
-6.05869e-08
0.000112544
-7.1246e-08
0.00011257
-8.26138e-08
0.000112595
-9.47135e-08
0.000112621
-1.0755e-07
0.000112646
-1.21108e-07
0.000112671
-1.35338e-07
-1.50307e-07
0.000112695
0.000115206
2.82836e-09
0.000115211
8.02178e-09
0.00011522
1.5023e-08
0.000115231
2.1252e-08
0.000115244
2.57579e-08
0.00011526
2.83565e-08
0.000115277
2.92273e-08
0.000115296
2.86022e-08
0.000115316
2.67209e-08
0.000115337
2.38151e-08
0.000115358
2.00889e-08
0.00011538
1.5711e-08
0.000115403
1.08128e-08
0.000115425
5.49162e-09
0.000115449
-1.85896e-10
0.000115472
-6.17889e-09
0.000115496
-1.24679e-08
0.000115519
-1.90512e-08
0.000115544
-2.59411e-08
0.000115568
-3.31613e-08
0.000115592
-4.07448e-08
0.000115617
-4.873e-08
0.000115641
-5.71604e-08
0.000115666
-6.608e-08
0.000115691
-7.55327e-08
0.000115716
-8.55566e-08
0.000115741
-9.61832e-08
0.000115766
-1.07433e-07
0.000115791
-1.19312e-07
0.000115815
-1.31813e-07
0.000115839
-1.4491e-07
0.000115862
-1.58548e-07
-1.72781e-07
0.000115884
0.000118498
1.08554e-09
0.000118503
2.92e-09
0.000118511
6.81062e-09
0.000118522
1.02489e-08
0.000118535
1.23124e-08
0.000118551
1.28193e-08
0.000118568
1.19338e-08
0.000118587
9.85803e-09
0.000118607
6.79541e-09
0.000118628
2.93949e-09
0.000118649
-1.54268e-09
0.000118672
-6.51743e-09
0.000118694
-1.18845e-08
0.000118717
-1.75736e-08
0.000118741
-2.35409e-08
0.000118764
-2.97643e-08
0.000118788
-3.62393e-08
0.000118812
-4.2975e-08
0.000118836
-4.99914e-08
0.00011886
-5.73167e-08
0.000118884
-6.4984e-08
0.000118909
-7.30303e-08
0.000118933
-8.14925e-08
0.000118957
-9.04079e-08
0.000118982
-9.98087e-08
0.000119006
-1.09723e-07
0.00011903
-1.20168e-07
0.000119054
-1.31152e-07
0.000119077
-1.42671e-07
0.0001191
-1.54709e-07
0.000119122
-1.67233e-07
0.000119144
-1.80188e-07
-1.93616e-07
0.000119165
0.000121883
-6.28069e-10
0.000121888
-2.0976e-09
0.000121896
-1.30551e-09
0.000121907
-6.81164e-10
0.00012192
-1.10546e-09
0.000121936
-2.74356e-09
0.000121953
-5.43869e-09
0.000121972
-9.01381e-09
0.000121992
-1.32988e-08
0.000122013
-1.81359e-08
0.000122035
-2.33942e-08
0.000122058
-2.89744e-08
0.000122081
-3.48075e-08
0.000122104
-4.08502e-08
0.000122128
-4.70814e-08
0.000122151
-5.34976e-08
0.000122175
-6.01091e-08
0.000122199
-6.69358e-08
0.000122223
-7.40054e-08
0.000122247
-8.13497e-08
0.000122271
-8.90036e-08
0.000122295
-9.70014e-08
0.000122319
-1.05377e-07
0.000122343
-1.1416e-07
0.000122366
-1.23375e-07
0.00012239
-1.33041e-07
0.000122413
-1.43168e-07
0.000122435
-1.53753e-07
0.000122457
-1.64787e-07
0.000122479
-1.76247e-07
0.0001225
-1.88099e-07
0.00012252
-2.00289e-07
-2.12852e-07
0.000122539
0.000125365
-2.31455e-09
0.00012537
-7.03821e-09
0.000125378
-9.3457e-09
0.000125389
-1.15792e-08
0.000125402
-1.45568e-08
0.000125418
-1.84069e-08
0.000125436
-2.29713e-08
0.000125455
-2.80949e-08
0.000125475
-3.36391e-08
0.000125496
-3.94805e-08
0.000125519
-4.55244e-08
0.000125541
-5.17067e-08
0.000125564
-5.79902e-08
0.000125588
-6.43593e-08
0.000125612
-7.08159e-08
0.000125636
-7.73755e-08
0.00012566
-8.40628e-08
0.000125684
-9.09094e-08
0.000125707
-9.795e-08
0.000125731
-1.05221e-07
0.000125755
-1.12759e-07
0.000125779
-1.20598e-07
0.000125802
-1.28767e-07
0.000125825
-1.37293e-07
0.000125848
-1.46194e-07
0.00012587
-1.55483e-07
0.000125892
-1.65163e-07
0.000125914
-1.75228e-07
0.000125935
-1.85662e-07
0.000125955
-1.9644e-07
0.000125974
-2.07529e-07
0.000125993
-2.18878e-07
-2.30516e-07
0.000126011
0.000128947
-3.97083e-09
0.000128952
-1.18952e-08
0.00012896
-1.7317e-08
0.00012897
-2.24812e-08
0.000128984
-2.81066e-08
0.000129
-3.42552e-08
0.000129018
-4.07583e-08
0.000129037
-4.74826e-08
0.000129058
-5.43197e-08
0.000129079
-6.11805e-08
0.000129102
-6.8008e-08
0.000129125
-7.47757e-08
0.000129148
-8.148e-08
0.000129172
-8.81342e-08
0.000129196
-9.47641e-08
0.00012922
-1.01405e-07
0.000129244
-1.08096e-07
0.000129268
-1.14882e-07
0.000129292
-1.21803e-07
0.000129316
-1.28903e-07
0.000129339
-1.36219e-07
0.000129362
-1.43786e-07
0.000129385
-1.51631e-07
0.000129408
-1.59778e-07
0.00012943
-1.68243e-07
0.000129451
-1.77032e-07
0.000129472
-1.86146e-07
0.000129493
-1.95576e-07
0.000129512
-2.05304e-07
0.000129531
-2.15306e-07
0.000129549
-2.2555e-07
0.000129566
-2.3599e-07
-2.4665e-07
0.000129582
0.000132631
-5.58392e-09
0.000132635
-1.6637e-08
0.000132643
-2.52039e-08
0.000132654
-3.3416e-08
0.000132668
-4.18269e-08
0.000132684
-5.03873e-08
0.000132702
-5.89125e-08
0.000132722
-6.72947e-08
0.000132743
-7.54558e-08
0.000132765
-8.3343e-08
0.000132788
-9.0941e-08
0.000132812
-9.82645e-08
0.000132836
-1.05346e-07
0.00013286
-1.1223e-07
0.000132884
-1.18967e-07
0.000132908
-1.25613e-07
0.000132932
-1.32226e-07
0.000132956
-1.38858e-07
0.00013298
-1.45563e-07
0.000133004
-1.52386e-07
0.000133027
-1.5937e-07
0.000133049
-1.66549e-07
0.000133072
-1.73953e-07
0.000133094
-1.81601e-07
0.000133115
-1.89509e-07
0.000133135
-1.97681e-07
0.000133155
-2.06117e-07
0.000133175
-2.14805e-07
0.000133193
-2.23729e-07
0.000133211
-2.32865e-07
0.000133227
-2.42183e-07
0.000133243
-2.5164e-07
-2.61259e-07
0.000133258
0.00013642
-7.12164e-09
0.000136424
-2.1184e-08
0.000136432
-3.29521e-08
0.000136443
-4.44025e-08
0.000136457
-5.58e-08
0.000136474
-6.69235e-08
0.000136492
-7.75759e-08
0.000136513
-8.76804e-08
0.000136534
-9.71903e-08
0.000136557
-1.06095e-07
0.000136581
-1.14431e-07
0.000136605
-1.22261e-07
0.000136629
-1.29658e-07
0.000136653
-1.36699e-07
0.000136678
-1.43464e-07
0.000136702
-1.5003e-07
0.000136727
-1.5647e-07
0.000136751
-1.62851e-07
0.000136774
-1.69234e-07
0.000136798
-1.75673e-07
0.00013682
-1.82212e-07
0.000136843
-1.88889e-07
0.000136864
-1.95733e-07
0.000136886
-2.02767e-07
0.000136906
-2.10002e-07
0.000136926
-2.17445e-07
0.000136945
-2.25094e-07
0.000136963
-2.3294e-07
0.00013698
-2.40967e-07
0.000136997
-2.49153e-07
0.000137012
-2.57474e-07
0.000137026
-2.65895e-07
-2.74437e-07
0.000137039
0.000140317
-8.51126e-09
0.000140321
-2.53621e-08
0.000140329
-4.04435e-08
0.00014034
-5.54524e-08
0.000140354
-7.01241e-08
0.000140371
-8.40037e-08
0.000140391
-9.69194e-08
0.000140412
-1.08836e-07
0.000140434
-1.1973e-07
0.000140458
-1.2964e-07
0.000140482
-1.38666e-07
0.000140507
-1.46931e-07
0.000140532
-1.54556e-07
0.000140557
-1.61657e-07
0.000140582
-1.68343e-07
0.000140606
-1.74718e-07
0.000140631
-1.80872e-07
0.000140655
-1.86886e-07
0.000140678
-1.9283e-07
0.000140701
-1.98765e-07
0.000140724
-2.0474e-07
0.000140746
-2.10797e-07
0.000140767
-2.16964e-07
0.000140787
-2.23267e-07
0.000140807
-2.29717e-07
0.000140826
-2.36323e-07
0.000140844
-2.43082e-07
0.000140861
-2.49989e-07
0.000140877
-2.57028e-07
0.000140892
-2.64181e-07
0.000140906
-2.71424e-07
0.000140919
-2.78724e-07
-2.86099e-07
0.000140931
0.000144326
-9.59426e-09
0.000144329
-2.88019e-08
0.000144336
-4.74423e-08
0.000144347
-6.65844e-08
0.000144362
-8.49611e-08
0.00014438
-1.01829e-07
0.0001444
-1.17131e-07
0.000144422
-1.30907e-07
0.000144446
-1.43177e-07
0.00014447
-1.5405e-07
0.000144495
-1.6371e-07
0.000144521
-1.72339e-07
0.000144546
-1.80109e-07
0.000144572
-1.87175e-07
0.000144597
-1.93683e-07
0.000144622
-1.99759e-07
0.000144647
-2.05515e-07
0.000144671
-2.11045e-07
0.000144694
-2.16432e-07
0.000144717
-2.21742e-07
0.00014474
-2.27032e-07
0.000144761
-2.32346e-07
0.000144782
-2.37717e-07
0.000144802
-2.43171e-07
0.000144821
-2.48724e-07
0.000144839
-2.54383e-07
0.000144856
-2.60152e-07
0.000144872
-2.66024e-07
0.000144887
-2.7199e-07
0.000144901
-2.78037e-07
0.000144914
-2.84149e-07
0.000144925
-2.90303e-07
-2.96522e-07
0.000144936
0.000148448
-1.00102e-08
0.00014845
-3.07764e-08
0.000148456
-5.35174e-08
0.000148468
-7.77181e-08
0.000148483
-1.00468e-07
0.000148502
-1.20815e-07
0.000148524
-1.38841e-07
0.000148547
-1.54594e-07
0.000148572
-1.6817e-07
0.000148598
-1.79842e-07
0.000148624
-1.89933e-07
0.000148651
-1.9872e-07
0.000148677
-2.06433e-07
0.000148703
-2.13279e-07
0.000148729
-2.19438e-07
0.000148754
-2.25061e-07
0.000148779
-2.30276e-07
0.000148803
-2.35191e-07
0.000148827
-2.39896e-07
0.000148849
-2.44465e-07
0.000148871
-2.48956e-07
0.000148892
-2.53419e-07
0.000148913
-2.5789e-07
0.000148932
-2.62395e-07
0.00014895
-2.66954e-07
0.000148967
-2.71576e-07
0.000148983
-2.76266e-07
0.000148998
-2.81022e-07
0.000149012
-2.85836e-07
0.000149025
-2.90696e-07
0.000149036
-2.95584e-07
0.000149046
-3.00472e-07
-3.05377e-07
0.000149055
0.000152688
-8.74579e-09
0.000152687
-2.98433e-08
0.000152692
-5.84397e-08
0.000152703
-8.89222e-08
0.000152719
-1.16212e-07
0.000152738
-1.40175e-07
0.000152761
-1.61255e-07
0.000152785
-1.79309e-07
0.000152812
-1.94419e-07
0.000152839
-2.07022e-07
0.000152866
-2.17586e-07
0.000152894
-2.26492e-07
0.000152922
-2.34054e-07
0.000152949
-2.40546e-07
0.000152976
-2.462e-07
0.000153002
-2.51204e-07
0.000153027
-2.55708e-07
0.000153052
-2.5984e-07
0.000153076
-2.63699e-07
0.000153099
-2.67369e-07
0.000153121
-2.70915e-07
0.000153142
-2.74387e-07
0.000153162
-2.77826e-07
0.00015318
-2.81262e-07
0.000153198
-2.84714e-07
0.000153215
-2.88197e-07
0.00015323
-2.91717e-07
0.000153245
-2.95275e-07
0.000153258
-2.9887e-07
0.000153269
-3.02498e-07
0.00015328
-3.06154e-07
0.000153289
-3.09835e-07
-3.13558e-07
0.000153297
0.000157046
-3.32641e-09
0.000157038
-2.17063e-08
0.000157041
-6.17756e-08
0.000157055
-1.02806e-07
0.000157075
-1.36199e-07
0.000157099
-1.63853e-07
0.000157125
-1.87192e-07
0.000157152
-2.06433e-07
0.00015718
-2.22091e-07
0.000157207
-2.34907e-07
0.000157235
-2.45463e-07
0.000157263
-2.54181e-07
0.00015729
-2.61418e-07
0.000157317
-2.67477e-07
0.000157344
-2.72607e-07
0.000157369
-2.77006e-07
0.000157395
-2.80834e-07
0.000157419
-2.8422e-07
0.000157443
-2.87273e-07
0.000157465
-2.90076e-07
0.000157487
-2.92701e-07
0.000157508
-2.95201e-07
0.000157528
-2.97618e-07
0.000157546
-2.99984e-07
0.000157564
-3.02323e-07
0.00015758
-3.04653e-07
0.000157596
-3.06983e-07
0.00015761
-3.09318e-07
0.000157623
-3.11656e-07
0.000157634
-3.13989e-07
0.000157644
-3.16308e-07
0.000157653
-3.18587e-07
-3.20852e-07
0.00015766
0.000161526
9.33781e-09
0.000161505
-6.69879e-10
0.000161497
-5.36185e-08
0.0001615
-1.06482e-07
0.000161515
-1.5061e-07
0.000161538
-1.87408e-07
0.000161568
-2.16719e-07
0.0001616
-2.39016e-07
0.000161634
-2.55953e-07
0.000161668
-2.69067e-07
0.000161702
-2.79337e-07
0.000161735
-2.87418e-07
0.000161768
-2.93827e-07
0.000161799
-2.98968e-07
0.00016183
-3.03134e-07
0.000161859
-3.06547e-07
0.000161888
-3.09374e-07
0.000161915
-3.11747e-07
0.000161942
-3.13767e-07
0.000161967
-3.15519e-07
0.000161992
-3.17064e-07
0.000162015
-3.18457e-07
0.000162037
-3.19734e-07
0.000162058
-3.20928e-07
0.000162078
-3.22061e-07
0.000162096
-3.23153e-07
0.000162114
-3.24217e-07
0.00016213
-3.25262e-07
0.000162144
-3.26295e-07
0.000162158
-3.27321e-07
0.00016217
-3.28348e-07
0.00016218
-3.29394e-07
-3.30483e-07
0.00016219
0.0001661
6.33739e-08
0.000166096
3.37219e-09
0.000166112
-7.00657e-08
0.000166127
-1.21963e-07
0.000166143
-1.65867e-07
0.000166161
-2.05356e-07
0.000166182
-2.37952e-07
0.000166206
-2.63442e-07
0.000166234
-2.83399e-07
0.000166264
-2.99168e-07
0.000166296
-3.11588e-07
0.00016633
-3.21313e-07
0.000166365
-3.28909e-07
0.000166401
-3.34827e-07
0.000166437
-3.39406e-07
0.000166474
-3.42911e-07
0.00016651
-3.45553e-07
0.000166546
-3.47504e-07
0.000166581
-3.48898e-07
0.000166615
-3.49847e-07
0.000166648
-3.50439e-07
0.000166681
-3.50748e-07
0.000166712
-3.50832e-07
0.000166742
-3.50737e-07
0.00016677
-3.505e-07
0.000166797