/*--------------------------------*- C++ -*----------------------------------*\
  =========                 |
  \\      /  F ield         | OpenFOAM: The Open Source CFD Toolbox
   \\    /   O peration     | Website:  https://openfoam.org
    \\  /    A nd           | Version:  10
     \\/     M anipulation  |
\*---------------------------------------------------------------------------*/
FoamFile
{
    format      ascii;
    class       volVectorField;
    location    "200";
    object      U;
}
// * * * * * * * * * * * * * * * * * * * * * * * * * * * * * * * * * * * * * //

dimensions      [0 1 -1 0 0 0 0];

internalField   nonuniform List<vector> 
6820
(
(7.31669 -0.387302 0)
(7.31542 -0.335166 0)
(7.28423 -0.203516 0)
(7.22633 -0.111108 0)
(7.16207 -0.0567819 0)
(7.10109 -0.027022 0)
(7.0454 -0.0112942 0)
(6.99519 -0.00310482 0)
(6.95023 0.00110996 0)
(6.90987 0.00323187 0)
(6.87339 0.00426124 0)
(6.84013 0.004732 0)
(6.8096 0.00492567 0)
(6.7814 0.00498843 0)
(6.7552 0.00499532 0)
(6.73073 0.00498427 0)
(6.70777 0.00497407 0)
(6.68614 0.00497402 0)
(6.66566 0.00498923 0)
(6.64619 0.00502343 0)
(6.62757 0.00508097 0)
(6.60966 0.00516881 0)
(6.59229 0.00529832 0)
(6.57526 0.00548826 0)
(6.55831 0.00577221 0)
(6.5411 0.0061898 0)
(6.52304 0.00688716 0)
(6.50318 0.00803142 0)
(6.48073 0.00990731 0)
(6.44779 0.0127335 0)
(6.41792 0.0261049 0)
(6.33105 0.0088214 0)
(6.26184 0.0837194 0)
(7.33961 0.100776 0)
(7.3543 0.149916 0)
(7.35851 0.123239 0)
(7.35877 0.089846 0)
(7.35942 0.0660317 0)
(7.35815 0.0501049 0)
(7.35287 0.0395165 0)
(7.34385 0.0325478 0)
(7.33224 0.0278949 0)
(7.31901 0.0246669 0)
(7.3048 0.0223295 0)
(7.29009 0.0205682 0)
(7.27519 0.0191895 0)
(7.26033 0.0180714 0)
(7.24564 0.0171375 0)
(7.23122 0.0163406 0)
(7.2171 0.0156512 0)
(7.20331 0.015052 0)
(7.18985 0.0145335 0)
(7.17673 0.0140925 0)
(7.16391 0.0137314 0)
(7.15138 0.0134598 0)
(7.13911 0.0132964 0)
(7.12704 0.0132731 0)
(7.11513 0.0134425 0)
(7.10331 0.0139011 0)
(7.09156 0.0148041 0)
(7.07971 0.0164857 0)
(7.06846 0.0196101 0)
(7.05484 0.0244949 0)
(7.05544 0.0395301 0)
(7.03166 0.0542519 0)
(7.05904 0.103555 0)
(7.32714 0.00611686 0)
(7.32431 -0.00160845 0)
(7.33135 -0.00619296 0)
(7.3398 -0.000792914 0)
(7.34686 0.00702973 0)
(7.35223 0.0127448 0)
(7.35548 0.0162357 0)
(7.35668 0.018307 0)
(7.35621 0.01946 0)
(7.35445 0.0199972 0)
(7.35164 0.0201458 0)
(7.34798 0.0200664 0)
(7.34366 0.0198598 0)
(7.33884 0.0195872 0)
(7.33364 0.0192875 0)
(7.32814 0.018986 0)
(7.32242 0.0186999 0)
(7.31654 0.0184418 0)
(7.31052 0.0182227 0)
(7.30439 0.0180534 0)
(7.29816 0.0179478 0)
(7.29184 0.0179251 0)
(7.2854 0.0180132 0)
(7.27881 0.0182532 0)
(7.27203 0.0187101 0)
(7.26497 0.0194833 0)
(7.25758 0.0207606 0)
(7.24968 0.022792 0)
(7.24142 0.026222 0)
(7.23189 0.0312272 0)
(7.22569 0.0431541 0)
(7.21872 0.0538841 0)
(7.21568 0.0771635 0)
(7.32977 -0.00401826 0)
(7.32632 0.00243109 0)
(7.33115 0.0106547 0)
(7.33684 0.0167895 0)
(7.34151 0.0203342 0)
(7.34586 0.0218249 0)
(7.3497 0.022282 0)
(7.35273 0.0223734 0)
(7.35496 0.0223177 0)
(7.3565 0.0221697 0)
(7.35742 0.0219659 0)
(7.35776 0.0217358 0)
(7.3576 0.0214961 0)
(7.35701 0.0212558 0)
(7.35606 0.0210222 0)
(7.35478 0.0208025 0)
(7.35322 0.020604 0)
(7.35142 0.0204351 0)
(7.3494 0.0203057 0)
(7.34718 0.0202286 0)
(7.34477 0.0202214 0)
(7.34217 0.0203087 0)
(7.33936 0.0205255 0)
(7.33633 0.0209225 0)
(7.33306 0.0215767 0)
(7.32949 0.0226034 0)
(7.32561 0.0241941 0)
(7.32139 0.0266176 0)
(7.31696 0.03038 0)
(7.31234 0.0358974 0)
(7.30946 0.0454739 0)
(7.3091 0.0560952 0)
(7.31085 0.071199 0)
(7.33182 -0.00100881 0)
(7.33003 0.00668916 0)
(7.33264 0.0122895 0)
(7.33618 0.0150696 0)
(7.33951 0.0170739 0)
(7.34306 0.0185399 0)
(7.34655 0.0194821 0)
(7.34965 0.0200974 0)
(7.35233 0.0205052 0)
(7.35463 0.0207515 0)
(7.35659 0.020877 0)
(7.35821 0.0209211 0)
(7.35952 0.0209125 0)
(7.36054 0.0208706 0)
(7.3613 0.0208107 0)
(7.36182 0.0207465 0)
(7.36211 0.0206906 0)
(7.36221 0.0206558 0)
(7.3621 0.0206559 0)
(7.36182 0.0207081 0)
(7.36135 0.0208339 0)
(7.36069 0.021062 0)
(7.35985 0.0214319 0)
(7.35882 0.0219991 0)
(7.35757 0.0228442 0)
(7.35612 0.0240829 0)
(7.35448 0.0258902 0)
(7.35271 0.0285004 0)
(7.35102 0.032279 0)
(7.34973 0.0375665 0)
(7.34996 0.0452248 0)
(7.35279 0.0540593 0)
(7.35863 0.0642361 0)
(7.33247 0.000671035 0)
(7.33167 0.00629472 0)
(7.33352 0.0105308 0)
(7.33637 0.0131521 0)
(7.33919 0.0154108 0)
(7.34215 0.0171635 0)
(7.34514 0.0182915 0)
(7.34793 0.0190106 0)
(7.35047 0.0194945 0)
(7.35282 0.0198146 0)
(7.35498 0.0200156 0)
(7.35694 0.0201371 0)
(7.35872 0.0202074 0)
(7.36031 0.0202456 0)
(7.36174 0.0202665 0)
(7.363 0.0202834 0)
(7.36411 0.0203089 0)
(7.36507 0.0203562 0)
(7.36588 0.0204402 0)
(7.36654 0.0205793 0)
(7.36706 0.0207963 0)
(7.36744 0.0211216 0)
(7.36767 0.0215956 0)
(7.36776 0.0222741 0)
(7.3677 0.023234 0)
(7.36754 0.0245801 0)
(7.36732 0.0264577 0)
(7.36716 0.0290476 0)
(7.36729 0.0325854 0)
(7.36811 0.037265 0)
(7.37032 0.0433243 0)
(7.37481 0.0501347 0)
(7.38215 0.0570006 0)
(7.33271 0.00109385 0)
(7.33243 0.00545506 0)
(7.33402 0.00940511 0)
(7.33656 0.0121817 0)
(7.33911 0.0143939 0)
(7.34171 0.0160607 0)
(7.34435 0.0171653 0)
(7.34688 0.0178979 0)
(7.34924 0.0184121 0)
(7.35148 0.0187727 0)
(7.3536 0.0190197 0)
(7.3556 0.0191889 0)
(7.35748 0.0193078 0)
(7.35925 0.0193951 0)
(7.36091 0.0194657 0)
(7.36246 0.019533 0)
(7.3639 0.01961 0)
(7.36525 0.0197104 0)
(7.36648 0.0198498 0)
(7.36762 0.0200469 0)
(7.36865 0.0203248 0)
(7.36958 0.0207138 0)
(7.37042 0.0212529 0)
(7.37117 0.021994 0)
(7.37185 0.0230051 0)
(7.37252 0.0243732 0)
(7.37324 0.0262082 0)
(7.37415 0.0286335 0)
(7.37549 0.0317791 0)
(7.3776 0.0357131 0)
(7.38097 0.0404051 0)
(7.38624 0.0454193 0)
(7.39383 0.0499377 0)
(7.33286 0.00125562 0)
(7.3329 0.0049991 0)
(7.3343 0.00863722 0)
(7.33655 0.0113104 0)
(7.3389 0.0133662 0)
(7.34129 0.0149458 0)
(7.34372 0.0160557 0)
(7.34607 0.0168201 0)
(7.3483 0.0173644 0)
(7.35043 0.0177534 0)
(7.35247 0.0180281 0)
(7.35443 0.0182238 0)
(7.3563 0.018368 0)
(7.3581 0.0184804 0)
(7.35982 0.0185765 0)
(7.36146 0.0186702 0)
(7.36304 0.0187748 0)
(7.36455 0.0189044 0)
(7.36598 0.0190745 0)
(7.36735 0.0193036 0)
(7.36865 0.0196142 0)
(7.3699 0.0200346 0)
(7.37109 0.0206006 0)
(7.37225 0.0213572 0)
(7.37341 0.0223602 0)
(7.37462 0.0236758 0)
(7.37598 0.0253793 0)
(7.37761 0.0275426 0)
(7.37972 0.0302178 0)
(7.38261 0.0333876 0)
(7.38659 0.0369157 0)
(7.39208 0.0404486 0)
(7.39937 0.0432599 0)
(7.33295 0.00132217 0)
(7.33317 0.00463336 0)
(7.33442 0.00789333 0)
(7.33641 0.0104092 0)
(7.33858 0.0123558 0)
(7.34081 0.0138797 0)
(7.34308 0.0149921 0)
(7.34531 0.015777 0)
(7.34745 0.0163404 0)
(7.3495 0.0167478 0)
(7.35147 0.0170402 0)
(7.35338 0.0172519 0)
(7.35522 0.0174103 0)
(7.357 0.0175357 0)
(7.35873 0.0176441 0)
(7.3604 0.0177499 0)
(7.36203 0.0178669 0)
(7.3636 0.0180089 0)
(7.36514 0.0181913 0)
(7.36662 0.0184317 0)
(7.36808 0.0187513 0)
(7.3695 0.0191753 0)
(7.37092 0.0197346 0)
(7.37235 0.0204658 0)
(7.37382 0.0214114 0)
(7.37541 0.0226173 0)
(7.3772 0.0241279 0)
(7.3793 0.0259742 0)
(7.3819 0.0281556 0)
(7.3852 0.0306062 0)
(7.38943 0.0331573 0)
(7.39485 0.0355116 0)
(7.40159 0.0370852 0)
(7.333 0.00131462 0)
(7.33332 0.00427717 0)
(7.33445 0.00719401 0)
(7.33622 0.00955395 0)
(7.33822 0.0114052 0)
(7.3403 0.0128657 0)
(7.34243 0.0139599 0)
(7.34455 0.0147503 0)
(7.34661 0.0153246 0)
(7.34859 0.0157443 0)
(7.35052 0.0160491 0)
(7.35239 0.0162716 0)
(7.3542 0.0164385 0)
(7.35597 0.0165704 0)
(7.35769 0.0166838 0)
(7.35937 0.0167933 0)
(7.36101 0.0169126 0)
(7.36262 0.0170555 0)
(7.3642 0.0172367 0)
(7.36576 0.0174725 0)
(7.36731 0.0177818 0)
(7.36886 0.0181864 0)
(7.37042 0.0187112 0)
(7.37203 0.0193843 0)
(7.37373 0.0202349 0)
(7.37558 0.0212906 0)
(7.37765 0.0225712 0)
(7.38006 0.0240779 0)
(7.38293 0.025778 0)
(7.38643 0.0275829 0)
(7.39068 0.0293261 0)
(7.39584 0.0307617 0)
(7.40197 0.0314427 0)
(7.33302 0.00126079 0)
(7.3334 0.00393403 0)
(7.33442 0.00655456 0)
(7.33601 0.008752 0)
(7.33785 0.0105018 0)
(7.33979 0.0118907 0)
(7.34179 0.012953 0)
(7.34381 0.0137375 0)
(7.34578 0.0143144 0)
(7.34771 0.0147396 0)
(7.3496 0.015051 0)
(7.35143 0.0152793 0)
(7.35322 0.0154503 0)
(7.35497 0.0155842 0)
(7.35668 0.0156975 0)
(7.35837 0.0158048 0)
(7.36002 0.0159195 0)
(7.36165 0.0160548 0)
(7.36327 0.0162244 0)
(7.36488 0.016443 0)
(7.3665 0.0167268 0)
(7.36813 0.0170936 0)
(7.36981 0.0175623 0)
(7.37155 0.0181523 0)
(7.37341 0.0188814 0)
(7.37543 0.019762 0)
(7.37769 0.0207954 0)
(7.38028 0.021963 0)
(7.38328 0.0232152 0)
(7.38682 0.0244581 0)
(7.39096 0.0255423 0)
(7.39579 0.0262705 0)
(7.4013 0.0263096 0)
(7.33303 0.00118277 0)
(7.33342 0.00360495 0)
(7.33437 0.00596543 0)
(7.3358 0.00799627 0)
(7.33748 0.00963945 0)
(7.33929 0.0109529 0)
(7.34118 0.0119732 0)
(7.34309 0.0127405 0)
(7.34499 0.0133109 0)
(7.34686 0.0137339 0)
(7.3487 0.0140454 0)
(7.3505 0.0142741 0)
(7.35227 0.0144444 0)
(7.35401 0.0145758 0)
(7.35571 0.0146844 0)
(7.3574 0.0147844 0)
(7.35906 0.0148886 0)
(7.36071 0.0150093 0)
(7.36236 0.0151589 0)
(7.36401 0.0153501 0)
(7.36568 0.0155962 0)
(7.36738 0.0159106 0)
(7.36914 0.0163068 0)
(7.37099 0.0167964 0)
(7.37296 0.0173874 0)
(7.3751 0.0180805 0)
(7.37747 0.0188644 0)
(7.38014 0.0197088 0)
(7.38319 0.0205578 0)
(7.38667 0.0213219 0)
(7.39062 0.0218745 0)
(7.39509 0.0220621 0)
(7.40004 0.02164 0)
(7.33304 0.0010934 0)
(7.33342 0.00328855 0)
(7.33429 0.00541746 0)
(7.33559 0.0072833 0)
(7.33714 0.00881642 0)
(7.33883 0.0100507 0)
(7.3406 0.0110206 0)
(7.34242 0.0117603 0)
(7.34425 0.0123152 0)
(7.34606 0.0127285 0)
(7.34785 0.0130334 0)
(7.34962 0.0132567 0)
(7.35136 0.0134211 0)
(7.35308 0.0135452 0)
(7.35478 0.0136444 0)
(7.35646 0.0137321 0)
(7.35814 0.0138202 0)
(7.3598 0.0139199 0)
(7.36147 0.0140421 0)
(7.36316 0.0141973 0)
(7.36487 0.0143956 0)
(7.36663 0.0146467 0)
(7.36845 0.0149587 0)
(7.37037 0.0153367 0)
(7.37242 0.0157811 0)
(7.37463 0.0162842 0)
(7.37706 0.0168267 0)
(7.37976 0.0173732 0)
(7.38278 0.0178675 0)
(7.38614 0.0182302 0)
(7.38988 0.0183578 0)
(7.39398 0.018134 0)
(7.39842 0.0173805 0)
(7.33304 0.0009998 0)
(7.33341 0.0029845 0)
(7.33422 0.00490426 0)
(7.3354 0.00660965 0)
(7.33683 0.00802996 0)
(7.33841 0.00918141 0)
(7.34008 0.0100938 0)
(7.34181 0.010797 0)
(7.34356 0.0113281 0)
(7.34531 0.0117244 0)
(7.34705 0.0120162 0)
(7.34878 0.0122283 0)
(7.3505 0.0123814 0)
(7.3522 0.0124932 0)
(7.35389 0.012578 0)
(7.35557 0.0126483 0)
(7.35725 0.012715 0)
(7.35893 0.0127879 0)
(7.36062 0.0128761 0)
(7.36233 0.0129879 0)
(7.36408 0.0131306 0)
(7.36588 0.0133101 0)
(7.36775 0.0135301 0)
(7.36971 0.0137906 0)
(7.37181 0.0140862 0)
(7.37406 0.0144039 0)
(7.3765 0.0147201 0)
(7.37918 0.0149982 0)
(7.38212 0.0151863 0)
(7.38534 0.0152164 0)
(7.38884 0.0150067 0)
(7.3926 0.0144709 0)
(7.3966 0.0134795 0)
(7.33304 0.000905933 0)
(7.33339 0.00269275 0)
(7.33414 0.00442071 0)
(7.33522 0.0059712 0)
(7.33655 0.00727691 0)
(7.33802 0.00834214 0)
(7.3396 0.00919127 0)
(7.34124 0.00985023 0)
(7.34292 0.01035 0)
(7.34462 0.0107224 0)
(7.34631 0.0109948 0)
(7.34801 0.0111898 0)
(7.3497 0.0113265 0)
(7.35138 0.0114209 0)
(7.35306 0.0114865 0)
(7.35473 0.0115345 0)
(7.35641 0.0115746 0)
(7.3581 0.0116152 0)
(7.3598 0.0116637 0)
(7.36153 0.0117261 0)
(7.3633 0.0118071 0)
(7.36512 0.0119095 0)
(7.36702 0.0120333 0)
(7.36902 0.0121745 0)
(7.37113 0.012324 0)
(7.37339 0.0124657 0)
(7.37582 0.0125745 0)
(7.37844 0.0126155 0)
(7.38127 0.0125428 0)
(7.38433 0.0123002 0)
(7.38758 0.0118244 0)
(7.39103 0.0110525 0)
(7.39463 0.00989068 0)
(7.33304 0.000813876 0)
(7.33337 0.00241309 0)
(7.33406 0.00396257 0)
(7.33507 0.0053638 0)
(7.33629 0.00655408 0)
(7.33768 0.00753008 0)
(7.33917 0.00831099 0)
(7.34073 0.0089192 0)
(7.34235 0.00938077 0)
(7.34398 0.00972292 0)
(7.34563 0.00996993 0)
(7.34729 0.0101423 0)
(7.34895 0.0102573 0)
(7.35061 0.0103295 0)
(7.35228 0.0103711 0)
(7.35394 0.0103921 0)
(7.35562 0.010401 0)
(7.3573 0.0104046 0)
(7.35901 0.0104085 0)
(7.36075 0.0104169 0)
(7.36254 0.010432 0)
(7.36438 0.0104541 0)
(7.36629 0.0104803 0)
(7.36829 0.010504 0)
(7.3704 0.0105137 0)
(7.37264 0.010492 0)
(7.37502 0.0104144 0)
(7.37757 0.010249 0)
(7.38028 0.00995679 0)
(7.38316 0.00949248 0)
(7.38618 0.00880787 0)
(7.38934 0.00785836 0)
(7.39259 0.00657532 0)
(7.33303 0.000724602 0)
(7.33334 0.00214498 0)
(7.33399 0.00352637 0)
(7.33492 0.00478358 0)
(7.33607 0.00585827 0)
(7.33737 0.00674247 0)
(7.33878 0.00745088 0)
(7.34027 0.00800264 0)
(7.34182 0.00841985 0)
(7.34341 0.00872577 0)
(7.34501 0.00894177 0)
(7.34663 0.00908619 0)
(7.34827 0.00917458 0)
(7.3499 0.00922001 0)
(7.35155 0.00923324 0)
(7.3532 0.00922305 0)
(7.35487 0.00919649 0)
(7.35655 0.00915906 0)
(7.35826 0.00911472 0)
(7.36001 0.00906578 0)
(7.36179 0.00901266 0)
(7.36363 0.00895342 0)
(7.36554 0.00888324 0)
(7.36753 0.00879375 0)
(7.36962 0.00867244 0)
(7.37182 0.00850189 0)
(7.37414 0.00825936 0)
(7.37659 0.00791688 0)
(7.37916 0.00744189 0)
(7.38186 0.00679886 0)
(7.38467 0.00595175 0)
(7.38756 0.00486944 0)
(7.3905 0.00350146 0)
(7.33303 0.000638445 0)
(7.33332 0.00188768 0)
(7.33392 0.00310916 0)
(7.33479 0.00422697 0)
(7.33587 0.00518631 0)
(7.33709 0.00597653 0)
(7.33843 0.00660872 0)
(7.33986 0.00709908 0)
(7.34135 0.00746642 0)
(7.34289 0.00773064 0)
(7.34445 0.00791042 0)
(7.34603 0.00802201 0)
(7.34763 0.00807921 0)
(7.34925 0.00809354 0)
(7.35087 0.00807439 0)
(7.35251 0.00802923 0)
(7.35417 0.00796379 0)
(7.35584 0.0078822 0)
(7.35755 0.00778694 0)
(7.35928 0.00767881 0)
(7.36106 0.00755664 0)
(7.36289 0.00741697 0)
(7.36479 0.00725366 0)
(7.36675 0.00705747 0)
(7.3688 0.00681569 0)
(7.37094 0.00651183 0)
(7.37318 0.00612551 0)
(7.37552 0.00563287 0)
(7.37796 0.00500747 0)
(7.38048 0.00422182 0)
(7.38307 0.00324944 0)
(7.38572 0.00206903 0)
(7.38839 0.000643091 0)
(7.33303 0.000555392 0)
(7.3333 0.00164025 0)
(7.33386 0.00270838 0)
(7.33468 0.00369069 0)
(7.33569 0.00453512 0)
(7.33685 0.00522953 0)
(7.33812 0.00578224 0)
(7.33949 0.00620686 0)
(7.34093 0.00651943 0)
(7.34242 0.006737 0)
(7.34394 0.00687579 0)
(7.34549 0.00695003 0)
(7.34706 0.00697183 0)
(7.34865 0.00695119 0)
(7.35025 0.00689613 0)
(7.35187 0.00681282 0)
(7.35351 0.00670574 0)
(7.35517 0.00657774 0)
(7.35686 0.00643003 0)
(7.35859 0.00626211 0)
(7.36035 0.00607162 0)
(7.36216 0.00585406 0)
(7.36402 0.00560255 0)
(7.36595 0.0053076 0)
(7.36795 0.00495696 0)
(7.37002 0.00453557 0)
(7.37217 0.00402571 0)
(7.37439 0.00340748 0)
(7.37668 0.00265981 0)
(7.37904 0.00176172 0)
(7.38143 0.000694086 0)
(7.38385 -0.00055725 0)
(7.38628 -0.00202042 0)
(7.33303 0.000475241 0)
(7.33328 0.00140167 0)
(7.33381 0.00232175 0)
(7.33458 0.00317175 0)
(7.33553 0.00390174 0)
(7.33663 0.00449876 0)
(7.33785 0.0049691 0)
(7.33917 0.00532416 0)
(7.34055 0.00557762 0)
(7.34199 0.0057441 0)
(7.34348 0.00583756 0)
(7.34499 0.00587039 0)
(7.34653 0.00585304 0)
(7.34809 0.00579405 0)
(7.34968 0.00570009 0)
(7.35128 0.00557611 0)
(7.3529 0.00542539 0)
(7.35454 0.00524964 0)
(7.35621 0.00504897 0)
(7.35791 0.00482188 0)
(7.35965 0.00456512 0)
(7.36143 0.00427358 0)
(7.36326 0.00394008 0)
(7.36513 0.00355534 0)
(7.36707 0.00310798 0)
(7.36906 0.00258464 0)
(7.37111 0.00197024 0)
(7.37321 0.0012485 0)
(7.37537 0.000402885 0)
(7.37755 -0.000582313 0)
(7.37976 -0.00172064 0)
(7.38198 -0.00302113 0)
(7.38418 -0.00450516 0)
(7.33303 0.000397699 0)
(7.33327 0.00117088 0)
(7.33376 0.00194721 0)
(7.33449 0.00266742 0)
(7.33539 0.00328332 0)
(7.33644 0.00378154 0)
(7.33761 0.00416694 0)
(7.33888 0.00444906 0)
(7.34022 0.00463956 0)
(7.34162 0.00475098 0)
(7.34306 0.00479529 0)
(7.34454 0.00478312 0)
(7.34605 0.00472337 0)
(7.34759 0.00462318 0)
(7.34915 0.00448794 0)
(7.35072 0.00432144 0)
(7.35232 0.00412586 0)
(7.35394 0.0039019 0)
(7.35559 0.00364879 0)
(7.35726 0.00336424 0)
(7.35897 0.00304442 0)
(7.36071 0.0026839 0)
(7.36249 0.00227555 0)
(7.36431 0.00181061 0)
(7.36617 0.00127878 0)
(7.36808 0.000668486 0)
(7.37002 -3.28716e-05 0)
(7.37201 -0.000838347 0)
(7.37402 -0.00176072 0)
(7.37605 -0.00281154 0)
(7.37808 -0.00400021 0)
(7.38011 -0.00533211 0)
(7.38211 -0.00682381 0)
(7.33303 0.000322433 0)
(7.33325 0.000946809 0)
(7.33372 0.00158285 0)
(7.33441 0.00217517 0)
(7.33527 0.00267712 0)
(7.33627 0.00307523 0)
(7.3374 0.00337332 0)
(7.33862 0.00357947 0)
(7.33992 0.00370364 0)
(7.34128 0.00375652 0)
(7.34269 0.00374833 0)
(7.34414 0.00368808 0)
(7.34562 0.00358322 0)
(7.34713 0.00343956 0)
(7.34866 0.0032613 0)
(7.35021 0.00305113 0)
(7.35179 0.00281026 0)
(7.35338 0.00253853 0)
(7.355 0.00223442 0)
(7.35664 0.00189508 0)
(7.3583 0.00151634 0)
(7.36 0.00109267 0)
(7.36172 0.000617237 0)
(7.36348 8.1982e-05 0)
(7.36526 -0.000522188 0)
(7.36708 -0.00120514 0)
(7.36892 -0.00197719 0)
(7.37078 -0.00284866 0)
(7.37266 -0.00382926 0)
(7.37454 -0.00492735 0)
(7.3764 -0.0061493 0)
(7.37825 -0.00749796 0)
(7.38007 -0.00898638 0)
(7.33302 0.000249106 0)
(7.33324 0.000728428 0)
(7.33369 0.00122688 0)
(7.33434 0.00169264 0)
(7.33516 0.00208052 0)
(7.33613 0.00237715 0)
(7.33721 0.00258574 0)
(7.33839 0.0027132 0)
(7.33966 0.00276802 0)
(7.34098 0.00275934 0)
(7.34236 0.00269581 0)
(7.34378 0.00258495 0)
(7.34524 0.00243283 0)
(7.34672 0.00224405 0)
(7.34822 0.00202168 0)
(7.34974 0.00176741 0)
(7.35129 0.0014816 0)
(7.35285 0.00116334 0)
(7.35443 0.000810513 0)
(7.35603 0.000419878 0)
(7.35766 -1.2914e-05 0)
(7.3593 -0.000493267 0)
(7.36097 -0.00102758 0)
(7.36265 -0.00162312 0)
(7.36436 -0.00228778 0)
(7.36608 -0.00302983 0)
(7.36782 -0.0038576 0)
(7.36956 -0.00477916 0)
(7.3713 -0.00580177 0)
(7.37303 -0.00693138 0)
(7.37474 -0.00817211 0)
(7.37643 -0.00952512 0)
(7.37808 -0.0110009 0)
(7.33302 0.000177394 0)
(7.33323 0.000514771 0)
(7.33365 0.000877695 0)
(7.33428 0.00121763 0)
(7.33507 0.00149093 0)
(7.336 0.00168462 0)
(7.33705 0.00180158 0)
(7.3382 0.00184783 0)
(7.33943 0.00183066 0)
(7.34073 0.00175783 0)
(7.34207 0.0016366 0)
(7.34347 0.00147311 0)
(7.34489 0.00127219 0)
(7.34634 0.00103727 0)
(7.34782 0.000770378 0)
(7.34932 0.000472299 0)
(7.35083 0.000142614 0)
(7.35236 -0.000220205 0)
(7.3539 -0.000618716 0)
(7.35546 -0.00105643 0)
(7.35704 -0.00153773 0)
(7.35862 -0.00206779 0)
(7.36023 -0.00265249 0)
(7.36184 -0.00329828 0)
(7.36346 -0.00401194 0)
(7.36509 -0.00480031 0)
(7.36672 -0.00567006 0)
(7.36834 -0.00662738 0)
(7.36996 -0.00767764 0)
(7.37156 -0.00882498 0)
(7.37312 -0.0100719 0)
(7.37466 -0.0114185 0)
(7.37614 -0.0128732 0)
(7.33302 0.000107006 0)
(7.33322 0.00030497 0)
(7.33362 0.000533792 0)
(7.33423 0.000748041 0)
(7.33499 0.000905823 0)
(7.33589 0.000994878 0)
(7.33691 0.00101805 0)
(7.33803 0.000980727 0)
(7.33923 0.000889196 0)
(7.3405 0.000750032 0)
(7.34182 0.000569216 0)
(7.34319 0.000351649 0)
(7.34459 0.000100964 0)
(7.34601 -0.000180504 0)
(7.34746 -0.000491664 0)
(7.34893 -0.000832577 0)
(7.35041 -0.00120435 0)
(7.3519 -0.00160903 0)
(7.35341 -0.00204952 0)
(7.35492 -0.00252949 0)
(7.35645 -0.00305327 0)
(7.35798 -0.00362573 0)
(7.35951 -0.00425224 0)
(7.36105 -0.00493847 0)
(7.36259 -0.00569016 0)
(7.36412 -0.00651294 0)
(7.36565 -0.00741208 0)
(7.36716 -0.00839229 0)
(7.36865 -0.00945747 0)
(7.37012 -0.0106104 0)
(7.37155 -0.0118525 0)
(7.37294 -0.0131831 0)
(7.37428 -0.0146093 0)
(7.33302 3.77055e-05 0)
(7.33321 9.83046e-05 0)
(7.3336 0.000193868 0)
(7.33418 0.000281909 0)
(7.33492 0.000322666 0)
(7.33579 0.000305017 0)
(7.33679 0.000232103 0)
(7.33789 0.000108903 0)
(7.33907 -5.91297e-05 0)
(7.34031 -0.000266465 0)
(7.34161 -0.000508276 0)
(7.34295 -0.000780844 0)
(7.34433 -0.00108166 0)
(7.34573 -0.00140942 0)
(7.34715 -0.00176391 0)
(7.34859 -0.00214597 0)
(7.35003 -0.00255731 0)
(7.35149 -0.00300042 0)
(7.35295 -0.00347848 0)
(7.35442 -0.00399526 0)
(7.35589 -0.00455497 0)
(7.35736 -0.00516219 0)
(7.35883 -0.00582175 0)
(7.36029 -0.00653862 0)
(7.36174 -0.00731766 0)
(7.36319 -0.00816347 0)
(7.36461 -0.00908019 0)
(7.36601 -0.0100714 0)
(7.36739 -0.0111398 0)
(7.36873 -0.0122873 0)
(7.37003 -0.0135145 0)
(7.37129 -0.0148203 0)
(7.37249 -0.0162107 0)
(7.33302 -3.06494e-05 0)
(7.3332 -0.000105709 0)
(7.33357 -0.000143129 0)
(7.33414 -0.000182601 0)
(7.33485 -0.000261144 0)
(7.33571 -0.000388095 0)
(7.33669 -0.000559662 0)
(7.33777 -0.00077109 0)
(7.33893 -0.00101761 0)
(7.34015 -0.00129462 0)
(7.34143 -0.00159836 0)
(7.34276 -0.00192627 0)
(7.34411 -0.00227696 0)
(7.34549 -0.00265011 0)
(7.34688 -0.00304639 0)
(7.34829 -0.00346736 0)
(7.3497 -0.00391528 0)
(7.35112 -0.00439304 0)
(7.35254 -0.00490404 0)
(7.35396 -0.0054521 0)
(7.35538 -0.00604129 0)
(7.35679 -0.00667587 0)
(7.35819 -0.00736021 0)
(7.35957 -0.00809862 0)
(7.36095 -0.00889523 0)
(7.3623 -0.00975378 0)
(7.36362 -0.0106775 0)
(7.36492 -0.0116691 0)
(7.36618 -0.0127305 0)
(7.36741 -0.0138628 0)
(7.36859 -0.0150663 0)
(7.36972 -0.0163393 0)
(7.3708 -0.0176873 0)
(7.33302 -9.80394e-05 0)
(7.33319 -0.000307147 0)
(7.33355 -0.000477851 0)
(7.33409 -0.000647165 0)
(7.3348 -0.000848336 0)
(7.33564 -0.00108794 0)
(7.3366 -0.00136114 0)
(7.33767 -0.00166328 0)
(7.33881 -0.00199019 0)
(7.34003 -0.0023381 0)
(7.3413 -0.0027043 0)
(7.3426 -0.00308734 0)
(7.34394 -0.00348689 0)
(7.34529 -0.00390361 0)
(7.34666 -0.00433903 0)
(7.34804 -0.00479539 0)
(7.34942 -0.00527552 0)
(7.35081 -0.00578268 0)
(7.35218 -0.0063205 0)
(7.35356 -0.00689284 0)
(7.35492 -0.00750368 0)
(7.35627 -0.00815701 0)
(7.3576 -0.00885679 0)
(7.35891 -0.00960681 0)
(7.3602 -0.0104106 0)
(7.36146 -0.0112711 0)
(7.3627 -0.0121911 0)
(7.36389 -0.0131725 0)
(7.36505 -0.0142166 0)
(7.36617 -0.0153241 0)
(7.36723 -0.0164948 0)
(7.36825 -0.0177273 0)
(7.36921 -0.0190262 0)
(7.33302 -0.000164146 0)
(7.33318 -0.000505363 0)
(7.33353 -0.000810275 0)
(7.33405 -0.00111321 0)
(7.33474 -0.00144184 0)
(7.33557 -0.00179855 0)
(7.33653 -0.00217701 0)
(7.33759 -0.00257257 0)
(7.33873 -0.00298157 0)
(7.33993 -0.00340115 0)
(7.34119 -0.00382989 0)
(7.34249 -0.00426766 0)
(7.34381 -0.00471534 0)
(7.34515 -0.00517457 0)
(7.3465 -0.00564768 0)
(7.34785 -0.00613755 0)
(7.3492 -0.00664747 0)
(7.35055 -0.007181 0)
(7.35188 -0.00774189 0)
(7.35321 -0.008334 0)
(7.35452 -0.00896118 0)
(7.35581 -0.00962718 0)
(7.35707 -0.0103356 0)
(7.35831 -0.0110898 0)
(7.35953 -0.0118927 0)
(7.36071 -0.012747 0)
(7.36185 -0.0136547 0)
(7.36295 -0.0146172 0)
(7.36401 -0.0156357 0)
(7.36502 -0.0167103 0)
(7.36598 -0.0178408 0)
(7.36689 -0.0190256 0)
(7.36773 -0.0202687 0)
(7.33302 -0.000228076 0)
(7.33317 -0.000698352 0)
(7.33349 -0.00113927 0)
(7.334 -0.00158188 0)
(7.33468 -0.00204485 0)
(7.33551 -0.00252445 0)
(7.33646 -0.00301288 0)
(7.33752 -0.00350551 0)
(7.33866 -0.00399867 0)
(7.33987 -0.00448997 0)
(7.34112 -0.00497909 0)
(7.34241 -0.00546735 0)
(7.34372 -0.00595707 0)
(7.34505 -0.00645121 0)
(7.34638 -0.00695326 0)
(7.34771 -0.00746702 0)
(7.34903 -0.00799649 0)
(7.35034 -0.00854569 0)
(7.35164 -0.00911869 0)
(7.35292 -0.00971941 0)
(7.35418 -0.0103516 0)
(7.35541 -0.011019 0)
(7.35661 -0.0117247 0)
(7.35779 -0.0124718 0)
(7.35892 -0.0132629 0)
(7.36002 -0.0141002 0)
(7.36108 -0.0149852 0)
(7.3621 -0.0159191 0)
(7.36306 -0.0169026 0)
(7.36398 -0.0179358 0)
(7.36483 -0.0190185 0)
(7.36564 -0.0201491 0)
(7.36638 -0.0213314 0)
(7.33302 -0.000287782 0)
(7.33315 -0.000881456 0)
(7.33345 -0.00146169 0)
(7.33393 -0.00205424 0)
(7.3346 -0.0026618 0)
(7.33543 -0.0032712 0)
(7.33639 -0.00387386 0)
(7.33746 -0.00446693 0)
(7.33862 -0.00504835 0)
(7.33983 -0.00561723 0)
(7.34109 -0.00617457 0)
(7.34238 -0.00672266 0)
(7.34369 -0.00726445 0)
(7.34501 -0.00780346 0)
(7.34632 -0.00834363 0)
(7.34763 -0.0088892 0)
(7.34893 -0.00944448 0)
(7.35021 -0.0100138 0)
(7.35147 -0.0106014 0)
(7.35271 -0.0112112 0)
(7.35392 -0.0118472 0)
(7.35509 -0.0125128 0)
(7.35624 -0.0132112 0)
(7.35734 -0.0139453 0)
(7.35841 -0.0147175 0)
(7.35943 -0.0155298 0)
(7.36041 -0.0163835 0)
(7.36134 -0.0172796 0)
(7.36222 -0.0182187 0)
(7.36304 -0.019201 0)
(7.36381 -0.0202259 0)
(7.36452 -0.0212922 0)
(7.36516 -0.0224029 0)
(7.33301 -0.000338824 0)
(7.33312 -0.00104511 0)
(7.33337 -0.00177043 0)
(7.33382 -0.00252925 0)
(7.33449 -0.00329877 0)
(7.33533 -0.00405229 0)
(7.33631 -0.00477642 0)
(7.3374 -0.00546521 0)
(7.33857 -0.0061166 0)
(7.3398 -0.0067336 0)
(7.34107 -0.00732265 0)
(7.34236 -0.00789071 0)
(7.34367 -0.00844428 0)
(7.34498 -0.00898949 0)
(7.34628 -0.00953213 0)
(7.34758 -0.0100776 0)
(7.34885 -0.0106307 0)
(7.35011 -0.0111961 0)
(7.35134 -0.011778 0)
(7.35253 -0.0123801 0)
(7.3537 -0.0130059 0)
(7.35483 -0.0136584 0)
(7.35592 -0.0143404 0)
(7.35696 -0.0150542 0)
(7.35797 -0.0158019 0)
(7.35892 -0.016585 0)
(7.35983 -0.0174046 0)
(7.36068 -0.0182614 0)
(7.36148 -0.0191556 0)
(7.36222 -0.0200874 0)
(7.3629 -0.0210563 0)
(7.36353 -0.0220617 0)
(7.36409 -0.0231065 0)
(7.33301 -0.000370759 0)
(7.33305 -0.00117138 0)
(7.33323 -0.00205797 0)
(7.33364 -0.00300288 0)
(7.3343 -0.00394304 0)
(7.33518 -0.00485775 0)
(7.3362 -0.00574759 0)
(7.33733 -0.00660416 0)
(7.33855 -0.00741545 0)
(7.33982 -0.0081772 0)
(7.34112 -0.00889227 0)
(7.34243 -0.00956614 0)
(7.34374 -0.0102052 0)
(7.34505 -0.0108166 0)
(7.34634 -0.0114077 0)
(7.34762 -0.0119857 0)
(7.34887 -0.0125574 0)
(7.35009 -0.0131288 0)
(7.35128 -0.0137056 0)
(7.35243 -0.0142928 0)
(7.35355 -0.014895 0)
(7.35463 -0.015516 0)
(7.35566 -0.0161591 0)
(7.35664 -0.016827 0)
(7.35758 -0.0175222 0)
(7.35847 -0.0182464 0)
(7.3593 -0.0190011 0)
(7.36008 -0.0197871 0)
(7.3608 -0.0206047 0)
(7.36146 -0.0214541 0)
(7.36206 -0.0223348 0)
(7.36261 -0.0232458 0)
(7.36307 -0.0241896 0)
(7.33299 -0.000357388 0)
(7.33292 -0.00121132 0)
(7.33296 -0.00232017 0)
(7.33332 -0.00353286 0)
(7.33399 -0.00464891 0)
(7.33487 -0.00561664 0)
(7.33589 -0.0064665 0)
(7.33703 -0.00723023 0)
(7.33827 -0.00792959 0)
(7.33957 -0.00858313 0)
(7.3409 -0.0092056 0)
(7.34224 -0.00980715 0)
(7.34358 -0.0103949 0)
(7.34492 -0.0109745 0)
(7.34623 -0.0115504 0)
(7.34751 -0.0121265 0)
(7.34876 -0.012706 0)
(7.34997 -0.0132922 0)
(7.35115 -0.0138878 0)
(7.35229 -0.0144954 0)
(7.35337 -0.0151176 0)
(7.35442 -0.0157567 0)
(7.35541 -0.0164145 0)
(7.35636 -0.0170929 0)
(7.35725 -0.0177931 0)
(7.35808 -0.0185165 0)
(7.35886 -0.0192641 0)
(7.35958 -0.0200364 0)
(7.36024 -0.0208338 0)
(7.36085 -0.0216563 0)
(7.36139 -0.022504 0)
(7.36187 -0.0233763 0)
(7.36229 -0.0242764 0)
(7.33295 -0.000254516 0)
(7.3326 -0.00105541 0)
(7.33237 -0.00237334 0)
(7.3327 -0.00402694 0)
(7.33355 -0.00579425 0)
(7.33464 -0.0075321 0)
(7.33582 -0.00912795 0)
(7.33707 -0.0105183 0)
(7.33836 -0.0117004 0)
(7.33968 -0.0127019 0)
(7.34099 -0.0135546 0)
(7.3423 -0.0142868 0)
(7.34359 -0.0149246 0)
(7.34487 -0.0154915 0)
(7.34613 -0.016007 0)
(7.34736 -0.0164875 0)
(7.34856 -0.0169458 0)
(7.34973 -0.0173925 0)
(7.35086 -0.0178363 0)
(7.35195 -0.0182838 0)
(7.353 -0.0187406 0)
(7.35401 -0.0192111 0)
(7.35497 -0.0196988 0)
(7.35588 -0.0202063 0)
(7.35674 -0.0207357 0)
(7.35754 -0.0212884 0)
(7.35829 -0.0218653 0)
(7.35898 -0.0224673 0)
(7.35961 -0.0230947 0)
(7.36019 -0.0237474 0)
(7.36069 -0.0244249 0)
(7.36114 -0.025126 0)
(7.36151 -0.0258522 0)
(7.33289 8.43772e-05 0)
(7.33205 -0.00100114 0)
(7.3312 -0.00235514 0)
(7.33102 -0.0030509 0)
(7.33148 -0.003357 0)
(7.33239 -0.00373966 0)
(7.33362 -0.00431024 0)
(7.33506 -0.00500613 0)
(7.3366 -0.00577975 0)
(7.33817 -0.00661073 0)
(7.33973 -0.00747917 0)
(7.34126 -0.00836397 0)
(7.34277 -0.00924931 0)
(7.34423 -0.0101254 0)
(7.34565 -0.0109867 0)
(7.34702 -0.01183 0)
(7.34835 -0.0126546 0)
(7.34963 -0.0134611 0)
(7.35087 -0.0142512 0)
(7.35206 -0.0150271 0)
(7.3532 -0.0157913 0)
(7.35429 -0.0165465 0)
(7.35533 -0.0172953 0)
(7.35632 -0.0180404 0)
(7.35725 -0.0187841 0)
(7.35813 -0.0195282 0)
(7.35894 -0.0202746 0)
(7.3597 -0.0210245 0)
(7.3604 -0.0217796 0)
(7.36104 -0.0225412 0)
(7.36162 -0.0233105 0)
(7.36214 -0.0240879 0)
(7.3626 -0.0248765 0)
(7.33241 0.00204394 0)
(7.33044 -0.000669832 0)
(7.33026 -0.007412 0)
(7.33132 -0.0138627 0)
(7.33228 -0.0185781 0)
(7.33297 -0.0217639 0)
(7.33376 -0.0238365 0)
(7.33477 -0.0251004 0)
(7.33594 -0.0257935 0)
(7.33723 -0.0261047 0)
(7.33862 -0.0261728 0)
(7.34009 -0.026095 0)
(7.34163 -0.0259384 0)
(7.34321 -0.0257485 0)
(7.34481 -0.0255553 0)
(7.34643 -0.0253783 0)
(7.34804 -0.0252298 0)
(7.34964 -0.0251171 0)
(7.35122 -0.0250447 0)
(7.35276 -0.0250147 0)
(7.35427 -0.0250275 0)
(7.35573 -0.0250829 0)
(7.35714 -0.0251798 0)
(7.35849 -0.0253171 0)
(7.35978 -0.0254937 0)
(7.36102 -0.0257081 0)
(7.36218 -0.0259584 0)
(7.36328 -0.0262426 0)
(7.36431 -0.026559 0)
(7.36526 -0.0269062 0)
(7.36614 -0.0272832 0)
(7.36695 -0.0276893 0)
(7.36766 -0.0281261 0)
(7.32877 0.00626259 0)
(7.31723 0.0178943 0)
(7.31237 0.0250772 0)
(7.31387 0.0271168 0)
(7.31768 0.0257938 0)
(7.32182 0.0229597 0)
(7.32599 0.0195709 0)
(7.33017 0.0159854 0)
(7.33427 0.0123862 0)
(7.33822 0.00891298 0)
(7.34203 0.00565115 0)
(7.3457 0.0026335 0)
(7.34923 -0.000136833 0)
(7.35262 -0.00266898 0)
(7.35589 -0.0049779 0)
(7.35902 -0.00708204 0)
(7.36204 -0.00900119 0)
(7.36493 -0.0107549 0)
(7.36771 -0.0123617 0)
(7.37036 -0.0138388 0)
(7.3729 -0.0152019 0)
(7.37532 -0.016465 0)
(7.37763 -0.0176401 0)
(7.37982 -0.0187383 0)
(7.3819 -0.0197696 0)
(7.38387 -0.0207431 0)
(7.38573 -0.0216664 0)
(7.38748 -0.0225458 0)
(7.38912 -0.0233862 0)
(7.39066 -0.0241926 0)
(7.39209 -0.0249697 0)
(7.39343 -0.0257212 0)
(7.39466 -0.0264553 0)
(7.33378 -0.0333077 0)
(7.33299 -0.0723403 0)
(7.32809 -0.0857325 0)
(7.32652 -0.0871851 0)
(7.33008 -0.0848115 0)
(7.33732 -0.0808666 0)
(7.3463 -0.0760537 0)
(7.35583 -0.0710291 0)
(7.36536 -0.0662484 0)
(7.37464 -0.0618833 0)
(7.3835 -0.057962 0)
(7.39185 -0.0544751 0)
(7.39963 -0.0514004 0)
(7.40686 -0.0487048 0)
(7.41354 -0.0463495 0)
(7.4197 -0.0442964 0)
(7.42536 -0.0425106 0)
(7.43056 -0.0409605 0)
(7.43531 -0.0396182 0)
(7.43966 -0.038459 0)
(7.44361 -0.0374618 0)
(7.44721 -0.036608 0)
(7.45048 -0.035881 0)
(7.45342 -0.0352663 0)
(7.45608 -0.0347517 0)
(7.45845 -0.0343269 0)
(7.46056 -0.0339829 0)
(7.46243 -0.0337112 0)
(7.46407 -0.0335038 0)
(7.4655 -0.0333538 0)
(7.46671 -0.0332552 0)
(7.46773 -0.0332041 0)
(7.46856 -0.0331975 0)
(7.33141 0.164994 0)
(7.34784 0.185173 0)
(7.36029 0.152127 0)
(7.35667 0.118008 0)