/*--------------------------------*- C++ -*----------------------------------*\
  =========                 |
  \\      /  F ield         | OpenFOAM: The Open Source CFD Toolbox
   \\    /   O peration     | Website:  https://openfoam.org
    \\  /    A nd           | Version:  10
     \\/     M anipulation  |
\*---------------------------------------------------------------------------*/
FoamFile
{
    format      ascii;
    class       volScalarField;
    location    "200";
    object      yPlus;
}
// * * * * * * * * * * * * * * * * * * * * * * * * * * * * * * * * * * * * * //

dimensions      [0 0 0 0 0 0 0];

internalField   uniform 0;

boundaryField
{
    outlet
    {
        type            calculated;
        value           uniform 0;
    }
    inlet
    {
        type            calculated;
        value           uniform 0;
    }
    lowerWall
    {
        type            calculated;
        value           nonuniform List<scalar> 
148
(
9.9937
9.87583
9.76655
9.65577
9.54325
9.43227
9.32602
9.22676
9.13583
9.05375
8.98051
8.91588
8.85934
8.81031
8.76823
8.73248
8.70246
8.6776
8.65738
8.64133
8.62901
8.61999
8.6139
8.61046
8.60935
8.61035
8.61293
8.61796
8.62252
8.63505
8.6064
8.95104
6.08374
5.82875
8.66172
10.3893
11.3152
11.2534
10.9198
11.6999
11.4601
11.6365
11.9032
11.8485
11.9008
12.091
12.0011
15.4896
5.82875
12.9025
13.4113
13.587
13.4922
13.3048
13.14
13.1464
13.5858
15.0179
17.8795
21.4146
25.0145
28.4861
31.7748
34.872
37.7866
40.5334
43.1278
45.5852
47.9191
50.1421
52.2652
54.2986
56.251
58.1299
59.9416
61.6914
63.3833
65.021
66.6075
68.1458
69.6381
71.0866
72.4926
73.857
75.181
76.4668
77.7201
78.9519
80.1738
81.3694
82.542
83.6909
84.8132
85.9036
86.9553
87.9598
88.907
89.7848
90.5784
91.2701
91.8385
92.2587
92.504
92.5486
92.3797
92.0078
91.476
90.8814
90.1287
89.0183
87.5878
85.9186
84.0861
82.1579
80.1917
78.2356
76.3283
74.5007
72.773
71.1493
69.6692
68.3561
67.207
66.2257
65.4121
64.7595
64.2553
63.8834
63.6245
63.4533
63.3359
63.2512
63.2145
63.2097
63.2156
63.219
63.211
63.1875
63.1502
63.1049
63.0545
62.9901
62.889
62.7179
62.4554
62.0664
61.6576
60.8297
)
;
    }
    upperWall
    {
        type            calculated;
        value           nonuniform List<scalar> 
133
(
30.6045
31.4255
32.2163
32.9719
33.693
34.3806
35.0365
35.6619
36.2578
36.8253
37.3657
37.8797
38.3686
38.8332
39.2747
39.694
40.092
40.4697
40.8281
41.1679
41.4901
41.7954
42.0848
42.3591
42.6188
42.8648
43.0977
43.3182
43.527
43.7245
43.9115
44.0884
44.2559
44.4398
44.6408
44.8347
45.0212
45.2002
45.3715
45.5349
45.6903
45.8375
45.9764
46.1068
46.2286
46.3417
46.4458
46.5409
46.6268
46.7033
46.7702
46.8275
46.8748
46.9121
46.9392
46.9557
46.9616
46.9566
46.9404
46.9128
46.8736
46.8223
46.7588
46.6828
46.5937
46.4915
46.3758
46.246
46.1021
45.9436
45.7702
45.5817
45.3779
45.1585
44.9237
44.6734
44.4078
44.1273
43.8326
43.5243
43.2037
42.8719
42.531
42.1828
41.8297
41.4745
41.1202
40.7699
40.4271
40.0951
39.7773
39.4768
39.1963
38.938
38.7037
38.4943
38.3102
38.1507
38.0149
37.9011
37.8071
37.7302
37.6675
37.6163
37.5733
37.536
37.5014
37.4671
37.4309
37.391
37.3457
37.2939
37.2347
37.1675
37.0921
37.0086
36.9171
36.8182
36.7126
36.6009
36.4841
36.3629
36.2382
36.1106
35.9808
35.8491
35.7158
35.5813
35.4446
35.308
35.1619
35.0416
34.8064
)
;
    }
    frontAndBack
    {
        type            empty;
    }
}


// ************************************************************************* //
