/*--------------------------------*- C++ -*----------------------------------*\
  =========                 |
  \\      /  F ield         | OpenFOAM: The Open Source CFD Toolbox
   \\    /   O peration     | Website:  https://openfoam.org
    \\  /    A nd           | Version:  10
     \\/     M anipulation  |
\*---------------------------------------------------------------------------*/
FoamFile
{
    format      ascii;
    class       volScalarField;
    location    "0.14";
    object      nut;
}
// * * * * * * * * * * * * * * * * * * * * * * * * * * * * * * * * * * * * * //

dimensions      [0 2 -1 0 0 0 0];

internalField   nonuniform List<scalar> 
6820
(
0.000503208
0.000397078
0.000324524
0.000269396
0.000236549
0.000214189
0.000197604
0.000184923
0.000174684
0.000166092
0.000158697
0.000152207
0.000146424
0.00014121
0.000136464
0.000132109
0.000128087
0.00012435
0.000120863
0.000117594
0.000114518
0.000111612
0.000108858
0.000106237
0.000103732
0.000101327
9.90033e-05
9.67476e-05
9.45227e-05
9.23518e-05
9.00859e-05
8.7914e-05
8.48174e-05
8.18488e-05
0.000143716
0.000196402
0.00021082
0.000206404
0.000197561
0.000187324
0.000177451
0.000168528
0.000160538
0.00015338
0.000146935
0.000141094
0.000135767
0.000130882
0.000126379
0.000122208
0.000118328
0.000114705
0.000111308
0.000108114
0.000105102
0.000102253
9.95528e-05
9.69889e-05
9.455e-05
9.22287e-05
9.00146e-05
8.79148e-05
8.58941e-05
8.40539e-05
8.2174e-05
8.11504e-05
3.85897e-05
2.73946e-05
4.30267e-05
7.44203e-05
9.58029e-05
0.000109141
0.000116369
0.000119654
0.000120573
0.00012003
0.000118583
0.000116583
0.000114249
0.000111725
0.000109104
0.000106445
0.000103789
0.000101163
9.85829e-05
9.60607e-05
9.36032e-05
9.12143e-05
8.88962e-05
8.66503e-05
8.44773e-05
8.23778e-05
8.03522e-05
7.84033e-05
7.65357e-05
7.47569e-05
7.30855e-05
7.15179e-05
7.02266e-05
1.99664e-05
2.35298e-05
2.20781e-05
1.28116e-05
2.91354e-06
1.23311e-05
2.28063e-05
3.14097e-05
3.83266e-05
4.38114e-05
4.81066e-05
5.14272e-05
5.39482e-05
5.58076e-05
5.71249e-05
5.7998e-05
5.85068e-05
5.87169e-05
5.86823e-05
5.84474e-05
5.80489e-05
5.75176e-05
5.68793e-05
5.6156e-05
5.53666e-05
5.4528e-05
5.36568e-05
5.27696e-05
5.18842e-05
5.10199e-05
5.02027e-05
4.94692e-05
4.88889e-05
1.32431e-05
1.50858e-05
1.99362e-05
2.20307e-05
2.14813e-05
1.95455e-05
1.69341e-05
1.40149e-05
1.10047e-05
8.03175e-06
5.17901e-06
2.51613e-06
5.78259e-07
2.40475e-06
4.43115e-06
6.26061e-06
7.88569e-06
9.31449e-06
1.05591e-05
1.16329e-05
1.25501e-05
1.33248e-05
1.39709e-05
1.45022e-05
1.49321e-05
1.52746e-05
1.55439e-05
1.57556e-05
1.5926e-05
1.6076e-05
1.62251e-05
1.64116e-05
1.66451e-05
1.01891e-05
1.10261e-05
1.18566e-05
1.26582e-05
1.32914e-05
1.38299e-05
1.42198e-05
1.44279e-05
1.44676e-05
1.43618e-05
1.41331e-05
1.3805e-05
1.34002e-05
1.29333e-05
1.24231e-05
1.18852e-05
1.1333e-05
1.07773e-05
1.02268e-05
9.68834e-06
9.16668e-06
8.66515e-06
8.18559e-06
7.72862e-06
7.29366e-06
6.87905e-06
6.48147e-06
6.097e-06
5.71909e-06
5.34368e-06
4.96057e-06
4.57834e-06
4.18949e-06
7.53296e-06
8.25785e-06
8.6896e-06
8.92905e-06
8.82919e-06
8.62764e-06
8.46749e-06
8.37966e-06
8.35751e-06
8.37654e-06
8.40989e-06
8.43911e-06
8.45452e-06
8.45448e-06
8.4363e-06
8.39887e-06
8.34256e-06
8.26839e-06
8.1777e-06
8.07191e-06
7.95239e-06
7.82036e-06
7.67684e-06
7.52262e-06
7.35819e-06
7.18375e-06
6.99906e-06
6.80433e-06
6.59908e-06
6.38678e-06
6.16841e-06
5.96812e-06
5.7903e-06
5.74978e-06
6.61955e-06
7.02474e-06
7.14173e-06
6.89435e-06
6.53738e-06
6.21188e-06
5.94231e-06
5.72707e-06
5.55684e-06
5.41945e-06
5.30523e-06
5.20704e-06
5.11951e-06
5.03905e-06
4.96323e-06
4.89002e-06
4.81773e-06
4.74498e-06
4.67064e-06
4.59381e-06
4.51369e-06
4.42959e-06
4.34091e-06
4.24707e-06
4.14767e-06
4.04241e-06
3.93183e-06
3.81706e-06
3.70337e-06
3.5961e-06
3.51868e-06
3.47868e-06
4.4751e-06
5.2569e-06
5.5631e-06
5.72248e-06
5.64554e-06
5.44231e-06
5.20357e-06
4.96381e-06
4.74251e-06
4.54767e-06
4.37764e-06
4.22811e-06
4.09508e-06
3.97523e-06
3.86593e-06
3.76497e-06
3.67062e-06
3.58146e-06
3.49635e-06
3.41432e-06
3.3345e-06
3.25613e-06
3.17848e-06
3.10098e-06
3.02312e-06
2.94477e-06
2.86612e-06
2.78847e-06
2.7142e-06
2.64918e-06
2.60032e-06
2.58633e-06
2.61417e-06
3.54548e-06
4.24703e-06
4.53814e-06
4.70806e-06
4.67956e-06
4.52384e-06
4.32877e-06
4.13331e-06
3.95417e-06
3.79614e-06
3.65677e-06
3.53232e-06
3.41981e-06
3.3169e-06
3.22174e-06
3.13296e-06
3.04952e-06
2.97055e-06
2.8953e-06
2.82308e-06
2.75329e-06
2.6854e-06
2.619e-06
2.55379e-06
2.48972e-06
2.42717e-06
2.36697e-06
2.31108e-06
2.26251e-06
2.22707e-06
2.21117e-06
2.22771e-06
2.28011e-06
2.85463e-06
3.46942e-06
3.74169e-06
3.89987e-06
3.90754e-06
3.80932e-06
3.66936e-06
3.51802e-06
3.36996e-06
3.23253e-06
3.10741e-06
2.99394e-06
2.89096e-06
2.79707e-06
2.71093e-06
2.63136e-06
2.55732e-06
2.48791e-06
2.42238e-06
2.36006e-06
2.30045e-06
2.24316e-06
2.18794e-06
2.13477e-06
2.08395e-06
2.03612e-06
1.99256e-06
1.9555e-06
1.92803e-06
1.91501e-06
1.92131e-06
1.95511e-06
2.01763e-06
2.32777e-06
2.86158e-06
3.13102e-06
3.29388e-06
3.33406e-06
3.27494e-06
3.16586e-06
3.03748e-06
2.90709e-06
2.78398e-06
2.67122e-06
2.56885e-06
2.47601e-06
2.39156e-06
2.31432e-06
2.24325e-06
2.17746e-06
2.11621e-06
2.05889e-06
2.00501e-06
1.9542e-06
1.90622e-06
1.86101e-06
1.81876e-06
1.77992e-06
1.74534e-06
1.71644e-06
1.6953e-06
1.68455e-06
1.68784e-06
1.70836e-06
1.75054e-06
1.81395e-06
1.91627e-06
2.38138e-06
2.65144e-06
2.81745e-06
2.87779e-06
2.84893e-06
2.77009e-06
2.66891e-06
2.56113e-06
2.45547e-06
2.35569e-06
2.26303e-06
2.17769e-06
2.09938e-06
2.02752e-06
1.96151e-06
1.90073e-06
1.84464e-06
1.79275e-06
1.74466e-06
1.70012e-06
1.65898e-06
1.62131e-06
1.58736e-06
1.55767e-06
1.53313e-06
1.51501e-06
1.50501e-06
1.50509e-06
1.51762e-06
1.54429e-06
1.58716e-06
1.64521e-06
1.58733e-06
1.99679e-06
2.26895e-06
2.44205e-06
2.52117e-06
2.51887e-06
2.46516e-06
2.38455e-06
2.29251e-06
2.19852e-06
2.10763e-06
2.02213e-06
1.94294e-06
1.87017e-06
1.80352e-06
1.74254e-06
1.68674e-06
1.63567e-06
1.58893e-06
1.54624e-06
1.50741e-06
1.4724e-06
1.44133e-06
1.41451e-06
1.39246e-06
1.37595e-06
1.366e-06
1.36383e-06
1.37073e-06
1.38801e-06
1.41636e-06
1.45633e-06
1.50674e-06
1.3185e-06
1.68541e-06
1.96039e-06
2.14194e-06
2.23607e-06
2.25428e-06
2.22098e-06
2.15844e-06
2.08168e-06
2.00013e-06
1.91914e-06
1.84149e-06
1.76854e-06
1.70082e-06
1.63841e-06
1.58116e-06
1.52882e-06
1.48113e-06
1.43785e-06
1.39881e-06
1.3639e-06
1.33312e-06
1.30662e-06
1.28468e-06
1.26774e-06
1.25637e-06
1.25129e-06
1.25324e-06
1.26293e-06
1.28091e-06
1.30721e-06
1.34157e-06
1.38291e-06
1.09414e-06
1.43065e-06
1.70895e-06
1.89982e-06
2.00754e-06
2.04366e-06
2.02849e-06
1.98189e-06
1.91809e-06
1.8465e-06
1.77294e-06
1.70085e-06
1.63216e-06
1.56789e-06
1.50843e-06
1.45387e-06
1.40415e-06
1.35912e-06
1.31861e-06
1.28249e-06
1.25072e-06
1.22331e-06
1.20036e-06
1.18209e-06
1.16878e-06
1.16082e-06
1.1586e-06
1.16249e-06
1.17274e-06
1.18941e-06
1.21215e-06
1.2403e-06
1.27294e-06
9.0314e-07
1.22045e-06
1.50301e-06
1.70347e-06
1.82344e-06
1.87465e-06
1.87474e-06
1.84165e-06
1.78908e-06
1.72645e-06
1.65988e-06
1.5932e-06
1.52871e-06
1.4677e-06
1.41085e-06
1.35844e-06
1.31058e-06
1.26725e-06
1.22839e-06
1.19395e-06
1.1639e-06
1.13828e-06
1.11714e-06
1.10062e-06
1.08887e-06
1.08208e-06
1.08039e-06
1.08389e-06
1.09251e-06
1.10603e-06
1.12391e-06
1.14533e-06
1.16956e-06
7.37529e-07
1.04612e-06
1.33425e-06
1.54415e-06
1.67538e-06
1.73982e-06
1.75338e-06
1.73237e-06
1.68984e-06
1.63509e-06
1.57444e-06
1.51205e-06
1.45059e-06
1.3917e-06
1.33633e-06
1.28501e-06
1.23801e-06
1.19542e-06
1.15727e-06
1.12357e-06
1.09429e-06
1.06943e-06
1.04902e-06
1.03308e-06
1.02164e-06
1.01472e-06
1.01227e-06
1.01417e-06
1.02019e-06
1.02991e-06
1.04276e-06
1.05787e-06
1.07471e-06
5.91721e-07
9.01798e-07
1.19693e-06
1.41585e-06
1.55738e-06
1.6334e-06
1.65862e-06
1.64802e-06
1.61407e-06
1.56596e-06
1.5102e-06
1.45125e-06
1.39208e-06
1.3346e-06
1.28e-06
1.22898e-06
1.18196e-06
1.13914e-06
1.10063e-06
1.06647e-06
1.03665e-06
1.01117e-06
9.90001e-07
9.73101e-07
9.60408e-07
9.5182e-07
9.47175e-07
9.46234e-07
9.48652e-07
9.53965e-07
9.61596e-07
9.70744e-07
9.80991e-07
4.6231e-07
7.84082e-07
1.08733e-06
1.31454e-06
1.46539e-06
1.55163e-06
1.58713e-06
1.58581e-06
1.55955e-06
1.51743e-06
1.46606e-06
1.4101e-06
1.35277e-06
1.29623e-06
1.24186e-06
1.19057e-06
1.14289e-06
1.09914e-06
1.05951e-06
1.02406e-06
9.92829e-07
9.65783e-07
9.42868e-07
9.23997e-07
9.09042e-07
8.97831e-07
8.90134e-07
8.8565e-07
8.84001e-07
8.84718e-07
8.87273e-07
8.90942e-07
8.95456e-07
3.48855e-07
6.91952e-07
1.00331e-06
1.23765e-06
1.39659e-06
1.49167e-06
1.53595e-06
1.54242e-06
1.52243e-06
1.48491e-06
1.43653e-06
1.38218e-06
1.32531e-06
1.26831e-06
1.21281e-06
1.15986e-06
1.11014e-06
1.06408e-06
1.02194e-06
9.83825e-07
9.49791e-07
9.19817e-07
8.93836e-07
8.71737e-07
8.53365e-07
8.38516e-07
8.26937e-07
8.18315e-07
8.12283e-07
8.08403e-07
8.06209e-07
8.05092e-07
8.04813e-07
2.57091e-07
6.26676e-07
9.4414e-07
1.184e-06
1.34984e-06
1.4527e-06
1.50485e-06
1.51849e-06
1.50446e-06
1.47151e-06
1.42633e-06
1.37393e-06
1.31791e-06
1.26084e-06
1.20447e-06
1.15002e-06
1.09827e-06
1.04973e-06
1.00473e-06
9.63441e-07
9.25942e-07
8.92243e-07
8.62295e-07
8.36e-07
8.13217e-07
7.93757e-07
7.77393e-07
7.63844e-07
7.52793e-07
7.43864e-07
7.36678e-07
7.30705e-07
7.25853e-07
2.06541e-07
5.91143e-07
9.09925e-07
1.15294e-06
1.32398e-06
1.43281e-06
1.49087e-06
1.50957e-06
1.49925e-06
1.46851e-06
1.4241e-06
1.37118e-06
1.31357e-06
1.25405e-06
1.19457e-06
1.13649e-06
1.08074e-06
1.02791e-06
9.78401e-07
9.32422e-07
8.9009e-07
8.51435e-07
8.16427e-07
7.84992e-07
7.57015e-07
7.32344e-07
7.10795e-07
6.92149e-07
6.76153e-07
6.62512e-07
6.50925e-07
6.40985e-07
6.32573e-07
2.24308e-07
5.88588e-07
9.01824e-07
1.14563e-06
1.32078e-06
1.43532e-06
1.49964e-06
1.52431e-06
1.51914e-06
1.49241e-06
1.45078e-06
1.39939e-06
1.34214e-06
1.28189e-06
1.22073e-06
1.16012e-06
1.10108e-06
1.04432e-06
9.90307e-07
9.39323e-07
8.91547e-07
8.47066e-07
8.05908e-07
7.68056e-07
7.33462e-07
7.02051e-07
6.73727e-07
6.48367e-07
6.2583e-07
6.05936e-07
5.88501e-07
5.73208e-07
5.60122e-07
3.02594e-07
6.20396e-07
9.20478e-07
1.16151e-06
1.33773e-06
1.4546e-06
1.52109e-06
1.54709e-06
1.54204e-06
1.5142e-06
1.47033e-06
1.41579e-06
1.35466e-06
1.28998e-06
1.22398e-06
1.15822e-06
1.0938e-06
1.03146e-06
9.71676e-07
9.14755e-07
8.60874e-07
8.10127e-07
7.62556e-07
7.18169e-07
6.76963e-07
6.38923e-07
6.04036e-07
5.72286e-07
5.43649e-07
5.18084e-07
4.95539e-07
4.75872e-07
4.59128e-07
4.15455e-07
6.86125e-07
9.68575e-07
1.20599e-06
1.38475e-06
1.50712e-06
1.58042e-06
1.61337e-06
1.61457e-06
1.59172e-06
1.55129e-06
1.49855e-06
1.43762e-06
1.37166e-06
1.30307e-06
1.23359e-06
1.16449e-06
1.09665e-06
1.0307e-06
9.67037e-07
9.05915e-07
8.47492e-07
7.91861e-07
7.39075e-07
6.89171e-07
6.42187e-07
5.98171e-07
5.57187e-07
5.1932e-07
4.84662e-07
4.53331e-07
4.25353e-07
4.01057e-07
5.5136e-07
7.83714e-07
1.04488e-06
1.27327e-06
1.44711e-06
1.56531e-06
1.63403e-06
1.66182e-06
1.65744e-06
1.62885e-06
1.58273e-06
1.52445e-06
1.45818e-06
1.38709e-06
1.3135e-06
1.23909e-06
1.16506e-06
1.09223e-06
1.02115e-06
9.52178e-07
8.85535e-07
8.2135e-07
7.59697e-07
7.00616e-07
6.44141e-07
5.90313e-07
5.39194e-07
4.90876e-07
4.4549e-07
4.03213e-07
3.64265e-07
3.28908e-07
2.9751e-07
7.08912e-07
9.13985e-07
1.15826e-06
1.38502e-06
1.56618e-06
1.69621e-06
1.77815e-06
1.8183e-06
1.82401e-06
1.80247e-06
1.76022e-06
1.70283e-06
1.6349e-06
1.56004e-06
1.48108e-06
1.40011e-06
1.31867e-06
1.23786e-06
1.15843e-06
1.08088e-06
1.00552e-06
9.32531e-07
8.62011e-07
7.94002e-07
7.2852e-07
6.65573e-07
6.05172e-07
5.47342e-07
4.9213e-07
4.39607e-07
3.89872e-07
3.43081e-07
2.99386e-07
8.91697e-07
1.07673e-06
1.29823e-06
1.50597e-06
1.66823e-06
1.77902e-06
1.84282e-06
1.86748e-06
1.86108e-06
1.83082e-06
1.78274e-06
1.72176e-06
1.65174e-06
1.57571e-06
1.49596e-06
1.41425e-06
1.3319e-06
1.24987e-06
1.16887e-06
1.0894e-06
1.0118e-06
9.363e-07
8.63053e-07
7.92151e-07
7.23658e-07
6.57615e-07
5.9406e-07
5.3303e-07
4.74567e-07
4.18725e-07
3.65542e-07
3.15164e-07
2.67283e-07
1.10599e-06
1.28244e-06
1.50332e-06
1.73119e-06
1.92621e-06
2.07161e-06
2.16466e-06
2.20992e-06
2.21485e-06
2.18764e-06
2.1361e-06
2.06697e-06
1.98579e-06
1.89687e-06
1.80351e-06
1.7081e-06
1.61238e-06
1.51754e-06
1.42439e-06
1.33347e-06
1.24511e-06
1.15951e-06
1.07679e-06
9.97003e-07
9.20199e-07
8.46401e-07
7.75638e-07
7.07945e-07
6.43366e-07
5.81946e-07
5.23723e-07
4.68805e-07
4.1688e-07
1.363e-06
1.52828e-06
1.70845e-06
1.87941e-06
2.01415e-06
2.10803e-06
2.16517e-06
2.1911e-06
2.1905e-06
2.16746e-06
2.12582e-06
2.06918e-06
2.00085e-06
1.9238e-06
1.84064e-06
1.75356e-06
1.66438e-06
1.57455e-06
1.48518e-06
1.39713e-06
1.31103e-06
1.22732e-06
1.14633e-06
1.06828e-06
9.93348e-07
9.21653e-07
8.5331e-07
7.88427e-07
7.2712e-07
6.69531e-07
6.15771e-07
5.66212e-07
5.20134e-07
1.67506e-06
1.86073e-06
2.10345e-06
2.38105e-06
2.62205e-06
2.7903e-06
2.88395e-06
2.91496e-06
2.89745e-06
2.84453e-06
2.76722e-06
2.67394e-06
2.57082e-06
2.46214e-06
2.35089e-06
2.23906e-06
2.12801e-06
2.01866e-06
1.91163e-06
1.80736e-06
1.70614e-06
1.6082e-06
1.51369e-06
1.42272e-06
1.33539e-06
1.25178e-06
1.17195e-06
1.09596e-06
1.02388e-06
9.55754e-07
8.91616e-07
8.31525e-07
7.75083e-07
2.07253e-06
2.21595e-06
2.29757e-06
2.38029e-06
2.47378e-06
2.57075e-06
2.65953e-06
2.72876e-06
2.77034e-06
2.78118e-06
2.76247e-06
2.71794e-06
2.65242e-06
2.57089e-06
2.47789e-06
2.37732e-06
2.27231e-06
2.16531e-06
2.05819e-06
1.95229e-06
1.84858e-06
1.74775e-06
1.65025e-06
1.55636e-06
1.46628e-06
1.38012e-06
1.29795e-06
1.21983e-06
1.14582e-06
1.07606e-06
1.0106e-06
9.50024e-07
8.92981e-07
2.57524e-06
2.88979e-06
3.31357e-06
3.73592e-06
4.01432e-06
4.13721e-06
4.15139e-06
4.09775e-06
4.00278e-06
3.88378e-06
3.751e-06
3.61003e-06
3.46407e-06
3.31524e-06
3.16518e-06
3.01536e-06
2.86715e-06
2.7218e-06
2.58041e-06
2.44388e-06
2.31291e-06
2.18802e-06
2.06951e-06
1.95755e-06
1.85217e-06
1.7533e-06
1.66077e-06
1.57438e-06
1.49393e-06
1.4192e-06
1.35001e-06
1.28655e-06
1.22809e-06
3.28037e-06
3.19824e-06
2.93412e-06
2.89623e-06
3.08399e-06
3.35284e-06
3.59793e-06
3.77208e-06
3.86523e-06
3.88913e-06
3.86386e-06
3.8092e-06
3.7411e-06
3.67094e-06
3.60573e-06
3.54902e-06
3.50194e-06
3.46407e-06
3.43423e-06
3.41089e-06
3.39254e-06
3.37777e-06
3.3654e-06
3.35444e-06
3.34409e-06
3.33367e-06
3.32267e-06
3.31064e-06
3.29731e-06
3.28261e-06
3.26657e-06
3.25092e-06
3.23337e-06
4.31765e-06
5.54877e-06
6.30684e-06
6.55303e-06
6.44785e-06
6.22402e-06
6.07376e-06
6.08292e-06
6.25996e-06
6.56691e-06
6.94993e-06
7.36093e-06
7.76453e-06
8.13771e-06
8.46738e-06
8.74758e-06
8.97707e-06
9.15752e-06
9.29222e-06
9.38532e-06
9.44125e-06
9.46441e-06
9.45892e-06
9.42855e-06
9.37663e-06
9.306e-06
9.21905e-06
9.11761e-06
9.00336e-06
8.87701e-06
8.74059e-06
8.59495e-06
8.44354e-06
5.64476e-06
3.59084e-06
2.76439e-06
4.61728e-06
7.3354e-06
9.90722e-06
1.20944e-05
1.38306e-05
1.51267e-05
1.60232e-05
1.65663e-05
1.68038e-05
1.67835e-05
1.65507e-05
1.61469e-05
1.56091e-05
1.49698e-05
1.42566e-05
1.34929e-05
1.26979e-05
1.18872e-05
1.1073e-05
1.0265e-05
9.47042e-06
8.69445e-06
7.94063e-06
7.21114e-06
6.5064e-06
5.8267e-06
5.16825e-06
4.53378e-06
3.90832e-06
3.31289e-06
1.14443e-05
1.65148e-05
1.82743e-05
1.97757e-05
2.02307e-05
1.94604e-05
1.7687e-05
1.51881e-05
1.23304e-05
9.68655e-06
8.2082e-06
8.81869e-06
1.11341e-05
1.41693e-05
1.73589e-05
2.04579e-05
2.33601e-05
2.60203e-05
2.84237e-05
3.05709e-05
3.24715e-05
3.41397e-05
3.55919e-05
3.68452e-05
3.79167e-05
3.8823e-05
3.95798e-05
4.02024e-05
4.07064e-05
4.1107e-05
4.14255e-05
4.1681e-05
4.19262e-05
2.48994e-05
2.86785e-05
3.90502e-05
5.35274e-05
6.78382e-05
8.18191e-05
9.47314e-05
0.000105967
0.000115476
0.000123334
0.000129645
0.000134562
0.000138255
0.000140887
0.00014261
0.000143563
0.000143869
0.000143635
0.000142954
0.000141905
0.000140558
0.000138967
0.000137183
0.000135244
0.000133184
0.00013103
0.000128806
0.000126525
0.000124208
0.000121854
0.000119484
0.000117105
0.000114935
0.000543336
0.000510581
0.000491587
0.000467855
0.000443769
0.000421349
0.000399755
0.000379052
0.000359513
0.000341157
0.000323973
0.000307949
0.000293043
0.000279194
0.000266335
0.000254392
0.000243292
0.000232963
0.000223337
0.000214349
0.00020594
0.000198056
0.000190647
0.000183669
0.000177081
0.00017085
0.000164938
0.000159321
0.000153952
0.000148838
0.000143803
0.000139423
0.000135358
7.73659e-05
6.98364e-05
6.28847e-05
5.88426e-05
5.69474e-05
5.77402e-05
6.13509e-05
6.69617e-05
7.31881e-05
7.86796e-05
8.2607e-05
8.46472e-05
8.50832e-05
8.45835e-05
8.33603e-05
7.69071e-05
5.99359e-05
4.17855e-05
3.55051e-05
3.47904e-05
3.17698e-05
2.67436e-05
2.21055e-05
2.01479e-05
2.19796e-05
2.51019e-05
2.24116e-05
1.46539e-05
1.59249e-05
2.16239e-05
2.96837e-05
3.537e-05
3.55919e-05
3.32469e-05
3.1304e-05
3.09673e-05
3.21492e-05
3.39912e-05
3.67135e-05
3.86306e-05
3.80311e-05
3.54067e-05
3.18439e-05
2.7909e-05
2.36604e-05
1.9001e-05
1.38902e-05
8.4182e-06
3.98531e-06
5.6716e-06
1.09332e-05
1.93356e-05
2.93393e-05
3.58994e-05
3.59659e-05
3.1707e-05
2.68711e-05
2.30573e-05
2.00746e-05
1.75253e-05
1.52581e-05
1.3263e-05
1.15795e-05
1.02565e-05
9.33338e-06
8.80546e-06
8.58092e-06
8.64317e-06
9.45625e-06
1.15331e-05
1.60185e-05
2.5201e-05
3.56969e-05
4.23565e-05
4.38032e-05
4.09659e-05
3.48966e-05
2.64088e-05
1.65485e-05
7.55165e-06
1.14995e-05
2.84211e-05
4.41146e-05
4.97157e-05
4.39906e-05
3.27373e-05
2.21501e-05
1.48774e-05
1.04265e-05
7.45906e-06
5.22659e-06
3.50887e-06
2.2555e-06
1.42757e-06
9.18714e-07
6.14059e-07
3.6994e-07
2.34549e-07
1.0182e-07
2.37134e-07
0.000104657
0.000100064
9.27199e-05
8.56536e-05
7.976e-05
7.64761e-05
7.63415e-05
7.80761e-05
7.91978e-05
7.85908e-05
7.65852e-05
7.39095e-05
7.11926e-05
6.91322e-05
6.8213e-05
6.91194e-05
6.73108e-05
5.55154e-05
3.74115e-05
2.6192e-05
2.56801e-05
2.67476e-05
2.61647e-05
2.49826e-05
2.39195e-05
2.01564e-05
1.18271e-05
1.21852e-05
1.69893e-05
2.29848e-05
3.14381e-05
3.51818e-05
3.40241e-05
3.16657e-05
3.0157e-05
2.98855e-05
3.10828e-05
3.29363e-05
3.53951e-05
3.77458e-05
3.78373e-05
3.55408e-05
3.19932e-05
2.79741e-05
2.367e-05
1.90393e-05
1.40959e-05
9.24098e-06
6.31534e-06
7.51451e-06
1.32326e-05
2.29288e-05
3.27228e-05
3.72864e-05
3.55026e-05
3.07345e-05
2.62015e-05
2.27027e-05
1.98806e-05
1.74396e-05
1.52844e-05
1.34039e-05
1.18196e-05
1.05619e-05
9.66109e-06
9.12597e-06
8.8922e-06
8.93998e-06
9.69202e-06
1.17249e-05
1.58529e-05
2.47419e-05
3.58625e-05
4.33947e-05
4.53632e-05
4.27101e-05
3.66736e-05
2.81938e-05
1.87319e-05
1.12519e-05
1.54067e-05
3.22799e-05
4.75429e-05
5.16623e-05
4.44932e-05
3.26987e-05
2.23522e-05
1.54673e-05
1.11152e-05
7.98509e-06
5.52218e-06
3.63509e-06
2.3099e-06
1.47768e-06
9.74377e-07
6.59951e-07
3.95937e-07
2.49029e-07
1.02606e-07
2.47178e-07
9.30597e-05
9.40262e-05
9.29949e-05
9.06356e-05
8.71896e-05
8.37652e-05
8.0688e-05
7.6847e-05
7.12468e-05
6.43212e-05
5.76212e-05
5.23717e-05
4.86948e-05
4.63472e-05
4.50579e-05
4.58178e-05
4.93629e-05
5.17015e-05
4.68247e-05
3.44552e-05
2.08027e-05
1.27592e-05
1.19046e-05
1.17457e-05
8.96026e-06
4.58409e-06
1.04256e-05
1.49043e-05
1.74429e-05
2.61271e-05
3.32203e-05
3.42828e-05
3.21312e-05
3.00284e-05
2.89449e-05
2.87379e-05
2.96861e-05
3.153e-05
3.382e-05
3.64739e-05
3.74789e-05
3.58039e-05
3.23983e-05
2.83137e-05
2.39621e-05
1.94154e-05
1.47518e-05
1.06378e-05
8.46309e-06
1.00108e-05
1.71031e-05
2.76126e-05
3.59529e-05
3.789e-05
3.44737e-05
2.95632e-05
2.54585e-05
2.2295e-05
1.96664e-05
1.73673e-05
1.53395e-05
1.35716e-05
1.20747e-05
1.08703e-05
9.98277e-06
9.43432e-06
9.18344e-06
9.19501e-06
9.84465e-06
1.18004e-05
1.56097e-05
2.4009e-05
3.56392e-05
4.41978e-05
4.69064e-05
4.46228e-05
3.87887e-05
3.05177e-05
2.16746e-05
1.53683e-05
2.0083e-05
3.69993e-05
5.12889e-05
5.33846e-05
4.46001e-05
3.24244e-05
2.25436e-05
1.61271e-05
1.18387e-05
8.50687e-06
5.80378e-06
3.759e-06
2.37918e-06
1.5484e-06
1.04149e-06
7.0687e-07
4.18487e-07
2.57087e-07
9.21466e-08
2.45467e-07
6.50171e-05
6.63231e-05
6.66748e-05
6.61239e-05
6.4337e-05
6.12132e-05
5.65453e-05
5.00392e-05
4.19451e-05
3.39348e-05
2.8227e-05
2.51653e-05
2.31638e-05
2.14384e-05
2.06592e-05
2.15572e-05
2.43433e-05
2.88551e-05
3.3449e-05
3.45461e-05
3.05584e-05
2.35709e-05
1.66985e-05
1.26258e-05
1.26554e-05
1.49571e-05
1.50844e-05
1.39551e-05
2.13196e-05
3.03289e-05
3.36099e-05
3.23074e-05
2.99752e-05
2.83916e-05
2.76573e-05
2.75469e-05
2.82542e-05
2.99181e-05
3.20714e-05
3.481e-05
3.68173e-05
3.62116e-05
3.3251e-05
2.91648e-05
2.4733e-05
2.0239e-05
1.59051e-05
1.25144e-05
1.11814e-05
1.42356e-05
2.28113e-05
3.27439e-05
3.82592e-05
3.739e-05
3.2928e-05
2.83198e-05
2.47344e-05
2.18911e-05
1.94552e-05
1.73068e-05
1.54103e-05
1.37506e-05
1.2333e-05
1.11752e-05
1.02981e-05
9.7348e-06
9.47409e-06
9.46094e-06
9.98881e-06
1.1802e-05
1.53289e-05
2.30909e-05
3.51149e-05
4.49058e-05
4.86249e-05
4.68758e-05
4.13262e-05
3.33522e-05
2.51972e-05
1.99826e-05
2.56852e-05
4.24394e-05
5.49972e-05
5.45522e-05
4.41855e-05
3.19857e-05
2.28505e-05
1.6925e-05
1.26133e-05
9.02208e-06
6.06925e-06
3.88514e-06
2.47193e-06
1.64644e-06
1.12513e-06
7.60967e-07
4.44368e-07
2.68611e-07
8.66986e-08
2.5378e-07
2.28464e-05
2.38653e-05
2.40822e-05
2.34358e-05
2.1674e-05
1.86396e-05
1.44356e-05
9.54935e-06
6.68193e-06
9.14893e-06
1.21529e-05
1.27393e-05
1.08094e-05
7.57471e-06
5.51999e-06
7.65651e-06
1.16657e-05
1.43277e-05
1.5045e-05
1.60906e-05
1.79736e-05
1.90795e-05
1.86725e-05
1.72392e-05
1.51122e-05
1.18044e-05
1.09239e-05
1.90775e-05
2.82298e-05
3.24218e-05
3.18895e-05
2.96577e-05
2.78276e-05
2.67388e-05
2.62047e-05
2.61593e-05
2.67257e-05
2.81501e-05
3.0161e-05
3.27458e-05
3.54886e-05
3.63703e-05
3.45084e-05
3.08159e-05
2.6439e-05
2.20447e-05
1.81453e-05
1.56048e-05
1.57517e-05
2.07724e-05
2.9637e-05
3.70861e-05
3.89578e-05
3.58215e-05
3.11051e-05
2.70992e-05
2.40233e-05
2.14747e-05
1.92368e-05
1.72483e-05
1.54827e-05
1.39234e-05
1.25748e-05
1.14554e-05
1.05851e-05
1.00027e-05
9.72677e-06
9.70142e-06
1.01235e-05
1.1746e-05
1.5017e-05
2.2e-05
3.41396e-05
4.52894e-05
5.03479e-05
4.93772e-05
4.42445e-05
3.67117e-05
2.93539e-05
2.53114e-05
3.22406e-05
4.83994e-05
5.83432e-05
5.49191e-05
4.31753e-05
3.13914e-05
2.32196e-05
1.7743e-05
1.33358e-05
9.46912e-06
6.29021e-06
4.00351e-06
2.58188e-06
1.7618e-06
1.21567e-06
8.15924e-07
4.69732e-07
2.78161e-07
7.68287e-08
2.55628e-07
5.2794e-06
5.77649e-06
6.82445e-06
8.17709e-06
9.67811e-06
1.1274e-05
1.29864e-05
1.46927e-05
1.5977e-05
1.62239e-05
1.49989e-05
1.23651e-05
8.83374e-06
5.18218e-06
3.27385e-06
5.84596e-06
1.03014e-05
1.48968e-05
1.77476e-05
1.74318e-05
1.44044e-05
1.01791e-05
5.90548e-06
3.48718e-06
6.78546e-06
1.34618e-05
2.14981e-05
2.82256e-05
3.13e-05
3.07956e-05
2.87624e-05
2.69669e-05
2.57989e-05
2.50491e-05
2.46423e-05
2.46642e-05
2.51954e-05
2.63912e-05
2.81957e-05
3.04852e-05
3.33931e-05
3.56799e-05
3.56344e-05
3.32091e-05
2.94919e-05
2.5578e-05
2.23871e-05
2.10095e-05
2.29014e-05
2.88027e-05
3.57896e-05
3.93056e-05
3.78e-05
3.35142e-05
2.92565e-05
2.59648e-05
2.33411e-05
2.1062e-05
1.90221e-05
1.71936e-05
1.5553e-05
1.40849e-05
1.27965e-05
1.17093e-05
1.08437e-05
1.02402e-05
9.94311e-06
9.90944e-06
1.02478e-05
1.16489e-05
1.46726e-05
2.08041e-05
3.26464e-05
4.51434e-05
5.19148e-05
5.20965e-05
4.7625e-05
4.07328e-05
3.42395e-05
3.15277e-05
3.97287e-05
5.45074e-05
6.08641e-05
5.42267e-05
4.15681e-05
3.07212e-05
2.36433e-05
1.85225e-05
1.39639e-05
9.83327e-06
6.47249e-06
4.12862e-06
2.71881e-06
1.89623e-06
1.31306e-06
8.72674e-07
4.95656e-07
2.88309e-07
6.64155e-08
2.65349e-07
7.71589e-06
8.40372e-06
9.48951e-06
1.07698e-05
1.201e-05
1.30652e-05
1.37862e-05
1.40574e-05
1.37441e-05
1.27361e-05
1.10691e-05
8.98046e-06
6.85157e-06
5.22293e-06
4.88685e-06
6.11155e-06
8.42306e-06
1.18219e-05
1.59989e-05
1.9717e-05
2.18507e-05
2.24242e-05
2.22721e-05
2.25108e-05
2.39912e-05
2.65777e-05
2.89789e-05
2.98036e-05
2.88351e-05
2.70833e-05
2.55986e-05
2.46075e-05
2.38871e-05
2.33435e-05
2.30534e-05
2.31456e-05
2.36921e-05
2.47317e-05
2.62946e-05
2.82625e-05
3.08311e-05
3.37754e-05
3.56066e-05
3.5299e-05
3.32553e-05
3.06163e-05
2.86061e-05
2.84869e-05
3.11812e-05
3.58086e-05
3.91516e-05
3.87224e-05
3.51905e-05
3.09887e-05
2.7578e-05
2.49363e-05
2.26828e-05
2.06495e-05
1.88057e-05
1.71344e-05
1.56125e-05
1.4229e-05
1.29951e-05
1.19362e-05
1.10739e-05
1.04482e-05
1.01225e-05
1.00775e-05
1.03531e-05
1.15243e-05
1.42857e-05
1.95924e-05
3.06541e-05
4.42831e-05
5.31252e-05
5.49561e-05
5.15147e-05
4.55052e-05
3.99726e-05
3.88286e-05
4.79306e-05
6.01528e-05
6.20176e-05
5.22958e-05
3.94655e-05
3.00568e-05
2.4059e-05
1.91712e-05
1.44419e-05
1.00982e-05
6.62393e-06
4.273e-06
2.88587e-06
2.04663e-06
1.41529e-06
9.31079e-07
5.23052e-07
2.98404e-07
5.4927e-08
2.70364e-07
4.77727e-06
5.39893e-06
6.30197e-06
7.34689e-06
8.36673e-06
9.2047e-06
9.76027e-06
9.97277e-06
9.79612e-06
9.21036e-06
8.24401e-06
6.99551e-06
5.66933e-06
4.65948e-06
4.55257e-06
5.58223e-06
7.33454e-06
9.48444e-06
1.21563e-05
1.53738e-05
1.8636e-05
2.13896e-05
2.34998e-05
2.50354e-05
2.6148e-05
2.67595e-05
2.66203e-05
2.5751e-05
2.46162e-05
2.36997e-05
2.30751e-05
2.25576e-05
2.20628e-05
2.16739e-05
2.15089e-05
2.16679e-05
2.22262e-05
2.31756e-05
2.45242e-05
2.62082e-05
2.82741e-05
3.09826e-05
3.37867e-05
3.55111e-05
3.57251e-05
3.50237e-05
3.45091e-05
3.51774e-05
3.71576e-05
3.8999e-05
3.86819e-05
3.58493e-05
3.2026e-05
2.86992e-05
2.61359e-05
2.3989e-05
2.20343e-05
2.02328e-05
1.85827e-05
1.70647e-05
1.56572e-05
1.4355e-05
1.31734e-05
1.21405e-05
1.12808e-05
1.06322e-05
1.02705e-05
1.02072e-05
1.04367e-05
1.13905e-05
1.38492e-05
1.84358e-05
2.82525e-05
4.25056e-05
5.36327e-05
5.7696e-05
5.58167e-05
5.10264e-05
4.66535e-05
4.71886e-05
5.62446e-05
6.44681e-05
6.12619e-05
4.91005e-05
3.70745e-05
2.94592e-05
2.43931e-05
1.96303e-05
1.47566e-05
1.02812e-05
6.77164e-06
4.45442e-06
3.08562e-06
2.21081e-06
1.52192e-06
9.92342e-07
5.5306e-07
3.10066e-07
4.29403e-08
2.83446e-07
3.67971e-06
4.2285e-06
4.96124e-06
5.77198e-06
6.54893e-06
7.20104e-06
7.66047e-06
7.87705e-06
7.80681e-06
7.41038e-06
6.67893e-06
5.67493e-06
4.57236e-06
3.73734e-06
3.73183e-06
4.73349e-06
6.35707e-06
8.23975e-06
1.02202e-05
1.23261e-05
1.45757e-05
1.68234e-05
1.88333e-05
2.04197e-05
2.14704e-05
2.19498e-05
2.19549e-05
2.17224e-05
2.14763e-05
2.12661e-05
2.10134e-05
2.06792e-05
2.03298e-05
2.00811e-05
2.00267e-05
2.02344e-05
2.07763e-05
2.16608e-05
2.28583e-05
2.43345e-05
2.60162e-05
2.81001e-05
3.07127e-05
3.33046e-05
3.517e-05
3.6192e-05
3.68859e-05
3.76512e-05
3.81902e-05
3.75615e-05
3.5293e-05
3.21205e-05
2.91653e-05
2.6829e-05
2.48779e-05
2.30769e-05
2.13802e-05
1.98057e-05
1.83473e-05
1.69801e-05
1.56859e-05
1.44651e-05
1.33358e-05
1.23278e-05
1.14693e-05
1.07971e-05
1.03915e-05
1.02974e-05
1.04915e-05
1.12611e-05
1.33734e-05
1.73663e-05
2.56383e-05
3.969e-05
5.29816e-05
5.98267e-05
6.01903e-05
5.70753e-05
5.41473e-05
5.60956e-05
6.35723e-05
6.64101e-05
5.82127e-05
4.48547e-05
3.46718e-05
2.89377e-05
2.45767e-05
1.988e-05
1.49302e-05
1.04208e-05
6.94823e-06
4.68532e-06
3.31569e-06
2.3858e-06
1.63294e-06
1.05773e-06
5.87182e-07
3.23284e-07
3.50294e-08
2.94557e-07
3.22892e-06
3.68333e-06
4.26159e-06
4.89653e-06
5.50844e-06
6.02236e-06
6.37808e-06
6.52958e-06
6.43798e-06
6.07527e-06
5.44119e-06
4.58616e-06
3.6474e-06
2.94077e-06
2.99288e-06
3.94372e-06
5.40746e-06
7.10285e-06
8.8808e-06
1.06546e-05
1.23861e-05
1.40303e-05
1.55281e-05
1.68026e-05
1.77868e-05
1.84689e-05
1.89014e-05
1.91596e-05
1.92844e-05
1.92752e-05
1.91381e-05
1.89195e-05
1.86997e-05
1.85664e-05
1.85904e-05
1.88278e-05
1.93406e-05
2.01587e-05
2.12473e-05
2.25783e-05
2.40552e-05
2.56645e-05
2.75935e-05
2.98436e-05
3.20191e-05
3.37126e-05
3.48393e-05
3.53333e-05
3.49133e-05
3.33969e-05
3.11503e-05
2.88758e-05
2.69513e-05
2.5284e-05
2.36983e-05
2.21619e-05
2.07134e-05
1.93657e-05
1.80973e-05
1.68807e-05
1.57015e-05
1.45639e-05
1.34874e-05
1.25032e-05
1.16437e-05
1.09462e-05
1.04896e-05
1.03485e-05
1.05092e-05
1.11384e-05
1.28905e-05
1.63715e-05
2.30836e-05
3.59216e-05
5.07201e-05
6.06162e-05
6.39041e-05
6.29906e-05
6.17551e-05
6.42852e-05
6.83478e-05
6.49992e-05
5.28554e-05
4.00454e-05
3.25115e-05
2.84538e-05
2.45876e-05
1.99644e-05
1.50322e-05
1.05787e-05
7.18889e-06
4.97274e-06
3.57255e-06
2.57038e-06
1.74985e-06
1.12949e-06
6.26912e-07
3.39255e-07
3.25652e-08
3.14317e-07
2.8644e-06
3.24498e-06
3.7104e-06
4.20959e-06
4.68164e-06
5.07058e-06
5.32984e-06
5.42193e-06
5.31606e-06
4.98946e-06
4.43782e-06
3.69577e-06
2.87392e-06
2.25922e-06
2.36761e-06
3.28646e-06
4.61912e-06
6.12359e-06
7.6958e-06
9.27291e-06
1.07997e-05
1.22325e-05
1.35296e-05
1.46548e-05
1.55832e-05
1.63079e-05
1.68392e-05
1.71946e-05
1.73911e-05
1.74482e-05
1.73973e-05
1.72839e-05
1.71676e-05
1.71161e-05
1.71911e-05
1.74451e-05
1.79299e-05
1.86799e-05
1.96743e-05
2.08858e-05
2.22482e-05
2.36561e-05
2.51107e-05
2.66972e-05
2.83361e-05
2.97547e-05
3.0692e-05
3.09581e-05
3.04377e-05
2.92902e-05
2.7892e-05
2.65215e-05
2.52006e-05
2.38632e-05
2.25203e-05
2.12334e-05
2.00354e-05
1.8913e-05
1.78335e-05
1.67692e-05
1.57081e-05
1.46555e-05
1.3632e-05
1.26699e-05
1.18054e-05
1.10793e-05
1.05656e-05
1.03589e-05
1.04772e-05
1.10078e-05
1.24384e-05
1.54289e-05
2.08264e-05
3.15824e-05
4.66118e-05
5.92078e-05
6.57925e-05
6.75051e-05
6.79473e-05
6.9746e-05
6.88829e-05
5.97357e-05
4.5741e-05
3.53419e-05
3.07235e-05
2.79646e-05
2.44714e-05
1.99811e-05
1.51561e-05
1.08171e-05
7.51695e-06
5.31557e-06
3.85247e-06
2.76514e-06
1.87535e-06
1.20996e-06
6.73615e-07
3.57975e-07
4.25175e-08
3.3552e-07
2.57098e-06
2.88469e-06
3.25411e-06
3.64249e-06
4.00541e-06
4.3e-06
4.48817e-06
4.53745e-06
4.42056e-06
4.11773e-06
3.62474e-06
2.9668e-06
2.22879e-06
1.66433e-06
1.80406e-06
2.69003e-06
3.90618e-06
5.25299e-06
6.65023e-06
8.05062e-06
9.41592e-06
1.07074e-05
1.18866e-05
1.29231e-05
1.37969e-05
1.45011e-05
1.50382e-05
1.54182e-05
1.5657e-05
1.57755e-05
1.58002e-05
1.57661e-05
1.5722e-05
1.57266e-05
1.5836e-05
1.60977e-05
1.65569e-05
1.72443e-05
1.81505e-05
1.9252e-05
2.05064e-05
2.18289e-05
2.31229e-05
2.43563e-05
2.55117e-05