/*--------------------------------*- C++ -*----------------------------------*\
  =========                 |
  \\      /  F ield         | OpenFOAM: The Open Source CFD Toolbox
   \\    /   O peration     | Website:  https://openfoam.org
    \\  /    A nd           | Version:  10
     \\/     M anipulation  |
\*---------------------------------------------------------------------------*/
FoamFile
{
    format      ascii;
    class       volScalarField;
    location    "0.14";
    object      p;
}
// * * * * * * * * * * * * * * * * * * * * * * * * * * * * * * * * * * * * * //

dimensions      [0 2 -2 0 0 0 0];

internalField   nonuniform List<scalar> 
6820
(
6.58424
-7.74645
-9.74434
-9.92337
-10.0758
-10.0114
-9.97346
-9.98527
-10.0202
-10.0683
-10.123
-10.1805
-10.239
-10.2977
-10.3559
-10.4133
-10.4694
-10.5239
-10.5764
-10.6265
-10.6737
-10.7176
-10.7576
-10.7931
-10.8234
-10.8478
-10.8652
-10.8744
-10.8747
-10.8625
-10.8435
-10.7934
-10.7777
1.20684
-7.54345
-9.54914
-9.80173
-10.0062
-10.0055
-9.9889
-10.0071
-10.0423
-10.0876
-10.1392
-10.1939
-10.2501
-10.307
-10.3639
-10.4204
-10.4758
-10.5299
-10.5822
-10.6321
-10.6793
-10.7233
-10.7635
-10.7992
-10.8299
-10.8547
-10.8728
-10.8829
-10.8843
-10.8744
-10.8564
-10.8182
-10.8062
-0.872642
-6.33072
-8.75512
-9.34593
-9.7254
-9.86769
-9.91326
-9.95863
-10.0096
-10.0649
-10.1234
-10.1834
-10.2437
-10.3035
-10.3625
-10.4204
-10.4769
-10.5317
-10.5845
-10.635
-10.6826
-10.7271
-10.7679
-10.8044
-10.836
-10.8622
-10.8821
-10.8948
-10.8996
-10.8946
-10.8823
-10.8544
-10.8282
-2.4394
-6.14679
-8.45712
-9.10607
-9.48678
-9.69227
-9.7881
-9.86553
-9.93964
-10.0101
-10.0784
-10.1452
-10.2105
-10.2745
-10.3371
-10.398
-10.4572
-10.5143
-10.5693
-10.6218
-10.6715
-10.718
-10.761
-10.8
-10.8346
-10.8644
-10.8887
-10.9071
-10.9195
-10.9255
-10.927
-10.9235
-10.9265
-3.72348
-6.18974
-8.14831
-8.8305
-9.23954
-9.51088
-9.66067
-9.76876
-9.8625
-9.9462
-10.0239
-10.098
-10.169
-10.2373
-10.3033
-10.3672
-10.4289
-10.4883
-10.5454
-10.5998
-10.6515
-10.7002
-10.7456
-10.7875
-10.8258
-10.8601
-10.8904
-10.9169
-10.9399
-10.9606
-10.9819
-11.0073
-11.0491
-4.67977
-6.31131
-7.96258
-8.67578
-9.09433
-9.38789
-9.56377
-9.68842
-9.79428
-9.88757
-9.97251
-10.0521
-10.1277
-10.1999
-10.2691
-10.3357
-10.3996
-10.4611
-10.5201
-10.5764
-10.6301
-10.6811
-10.7291
-10.7742
-10.8163
-10.8557
-10.8925
-10.9274
-10.9616
-10.997
-11.0378
-11.0887
-11.1632
-5.4238
-6.52172
-7.8731
-8.5566
-8.96154
-9.26375
-9.46376
-9.60787
-9.72787
-9.83186
-9.92463
-10.0101
-10.0903
-10.1661
-10.2383
-10.3074
-10.3737
-10.4373
-10.4983
-10.5567
-10.6125
-10.6657
-10.7163
-10.7646
-10.8105
-10.8546
-10.8973
-10.9397
-10.9833
-11.0305
-11.0855
-11.1533
-11.2446
-6.0061
-6.74978
-7.8333
-8.47019
-8.86385
-9.16841
-9.38322
-9.54001
-9.66909
-9.78041
-9.87908
-9.96928
-10.0534
-10.1325
-10.2077
-10.2794
-10.348
-10.4137
-10.4767
-10.5371
-10.595
-10.6506
-10.7039
-10.7552
-10.8048
-10.8533
-10.9015
-10.9506
-11.0023
-11.0591
-11.1249
-11.2041
-11.305
-6.46764
-6.97963
-7.84109
-8.41854
-8.7919
-9.08744
-9.30769
-9.47324
-9.6101
-9.72845
-9.83317
-9.92837
-10.0166
-10.0993
-10.1775
-10.2518
-10.3228
-10.3907
-10.4558
-10.5184
-10.5785
-10.6364
-10.6924
-10.7467
-10.8
-10.8527
-10.9059
-10.9607
-11.0191
-11.0833
-11.1567
-11.2428
-11.3475
-6.83823
-7.19716
-7.87722
-8.38881
-8.73826
-9.02178
-9.24348
-9.41513
-9.55777
-9.6814
-9.7908
-9.88998
-9.98164
-10.0674
-10.1482
-10.2249
-10.2981
-10.3682
-10.4353
-10.4999
-10.5622
-10.6224
-10.6809
-10.7381
-10.7946
-10.8511
-10.9085
-10.9682
-11.0318
-11.1014
-11.1796
-11.2692
-11.3741
-7.13911
-7.39603
-7.93208
-8.37878
-8.70215
-8.97041
-9.18835
-9.36212
-9.5081
-9.6355
-9.7488
-9.85162
-9.94659
-10.0353
-10.1189
-10.1981
-10.2736
-10.3457
-10.415
-10.4817
-10.5461
-10.6086
-10.6696
-10.7295
-10.789
-10.8488
-10.9099
-10.9735
-11.041
-11.1141
-11.1951
-11.2858
-11.3886
-7.38581
-7.5739
-7.99713
-8.38268
-8.67854
-8.92995
-9.14131
-9.31502
-9.46301
-9.59322
-9.70966
-9.81555
-9.91337
-10.0047
-10.0907
-10.1722
-10.2498
-10.324
-10.3952
-10.4639
-10.5304
-10.595
-10.6582
-10.7205
-10.7826
-10.8452
-10.9092
-10.9756
-11.0458
-11.121
-11.2029
-11.2928
-11.3922
-7.58961
-7.73051
-8.06625
-8.39673
-8.66527
-8.89936
-9.10213
-9.27351
-9.42176
-9.55343
-9.67204
-9.78036
-9.88063
-9.97436
-10.0626
-10.1463
-10.226
-10.3022
-10.3754
-10.446
-10.5144
-10.5811
-10.6464
-10.7109
-10.7752
-10.8401
-10.9063
-10.9748
-11.0467
-11.1228
-11.2045
-11.2924
-11.3874
-7.75881
-7.86677
-8.13509
-8.41736
-8.65954
-8.87634
-9.06929
-9.2368
-9.38417
-9.51649
-9.63666
-9.74699
-9.8494
-9.94529
-10.0357
-10.1214
-10.203
-10.2811
-10.3562
-10.4286
-10.4988
-10.5672
-10.6343
-10.7007
-10.7669
-10.8335
-10.9013
-10.971
-11.0436
-11.1197
-11.2001
-11.2852
-11.3755
-7.89957
-7.9841
-8.20059
-8.44162
-8.65918
-8.85935
-9.04201
-9.2046
-9.35011
-9.48223
-9.60325
-9.71503
-9.81917
-9.91692
-10.0092
-10.0968
-10.1802
-10.2601
-10.3369
-10.411
-10.4829
-10.5529
-10.6217
-10.6896
-10.7572
-10.8251
-10.8939
-10.9643
-11.0369
-11.1122
-11.1907
-11.2727
-11.3582
-8.01646
-8.08403
-8.26073
-8.46708
-8.6622
-8.84673
-9.01909
-9.1761
-9.31905
-9.45038
-9.57178
-9.68464
-9.79025
-9.88965
-9.98367
-10.073
-10.1582
-10.2397
-10.3181
-10.3937
-10.4671
-10.5385
-10.6086
-10.6777
-10.7464
-10.8151
-10.8844
-10.9549
-11.0269
-11.1008
-11.177
-11.2556
-11.3363
-8.11292
-8.168
-8.31414
-8.49175
-8.66689
-8.83704
-8.9995
-9.1507
-9.29067
-9.42079
-9.54216
-9.65575
-9.76254
-9.86337
-9.95892
-10.0498
-10.1366
-10.2196
-10.2995
-10.3765
-10.4512
-10.5238
-10.595
-10.665
-10.7344
-10.8036
-10.873
-10.943
-11.014
-11.0862
-11.1599
-11.2349
-11.3111
-8.19153
-8.23729
-8.35994
-8.51402
-8.67174
-8.82895
-8.98218
-9.12764
-9.26443
-9.39308
-9.51416
-9.62825
-9.73602
-9.8381
-9.93506
-10.0274
-10.1156
-10.2001
-10.2812
-10.3595
-10.4353
-10.5089
-10.5809
-10.6515
-10.7213
-10.7905
-10.8596
-10.9288
-10.9985
-11.0687
-11.1396
-11.2111
-11.283
-8.2542
-8.29295
-8.39755
-8.5326
-8.67542
-8.82126
-8.96616
-9.1062
-9.23987
-9.367
-9.48767
-9.60211
-9.71073
-9.81395
-9.9122
-10.0059
-10.0954
-10.1812
-10.2635
-10.3429
-10.4196
-10.494
-10.5666
-10.6376
-10.7075
-10.7765
-10.8449
-10.9131
-10.9811
-11.0492
-11.1173
-11.1854
-11.2532
-8.30232
-8.33578
-8.42655
-8.5464
-8.67678
-8.81287
-8.95049
-9.08566
-9.21643
-9.3421
-9.46234
-9.57709
-9.68647
-9.79073
-9.89017
-9.9851
-10.0758
-10.1627
-10.2461
-10.3264
-10.4039
-10.4789
-10.5517
-10.6229
-10.6925
-10.761
-10.8285
-10.8954
-10.9617
-11.0274
-11.0927
-11.1574
-11.2214
-8.33687
-8.36634
-8.4466
-8.55454
-8.6748
-8.80279
-8.9343
-9.06533
-9.19365
-9.31814
-9.43813
-9.55326
-9.66347
-9.76881
-9.86944
-9.96559
-10.0575
-10.1455
-10.2299
-10.3109
-10.389
-10.4644
-10.5375
-10.6085
-10.6777
-10.7455
-10.812
-10.8773
-10.9417
-11.0051
-11.0676
-11.1291
-11.1894
-8.35846
-8.38496
-8.45738
-8.55621
-8.66851
-8.79007
-8.91671
-9.04447
-9.17089
-9.29454
-9.41448
-9.53012
-9.64118
-9.74758
-9.84935
-9.94663
-10.0396
-10.1286
-10.2137
-10.2954
-10.3739
-10.4495
-10.5225
-10.5932
-10.6618
-10.7286
-10.7937
-10.8574
-10.9197
-10.9807
-11.0404
-11.0988
-11.1557
-8.36737
-8.39175
-8.45851
-8.55067
-8.65709
-8.77392
-8.89706
-9.0226
-9.14792
-9.27135
-9.39172
-9.50824
-9.62045
-9.72813
-9.83121
-9.92975
-10.0239
-10.1138
-10.1998
-10.282
-10.3608
-10.4365
-10.5093
-10.5795
-10.6474
-10.7131
-10.7769
-10.8388
-10.899
-10.9576
-11.0146
-11.0699
-11.1235
-8.36359
-8.38654
-8.4495
-8.53717
-8.63964
-8.75338
-8.87438
-8.99874
-9.12373
-9.24749
-9.36866
-9.48628
-9.59977
-9.70878
-9.81315
-9.91288
-10.008
-10.0988
-10.1854
-10.2681
-10.347
-10.4226
-10.495
-10.5645
-10.6314
-10.6958
-10.758
-10.818
-10.876
-10.9321
-10.9864
-11.0388
-11.0893
-8.34681
-8.36895
-8.42976
-8.51498
-8.61548
-8.72796
-8.84847
-8.97308
-9.09897
-9.2241
-9.34694
-9.46639
-9.58175
-9.69256
-9.7986
-9.89979
-9.9962
-10.0879
-10.1752
-10.2583
-10.3374
-10.4128
-10.4847
-10.5535
-10.6192
-10.6823
-10.7428
-10.8009
-10.8567
-10.9103
-10.9618
-11.0113
-11.0586
-8.31639
-8.33827
-8.39844
-8.48307
-8.5834
-8.69624
-8.81764
-8.94361
-9.07123
-9.19834
-9.32329
-9.44487
-9.56227
-9.67497
-9.7827
-9.88533
-9.98289
-10.0755
-10.1634
-10.2467
-10.3257
-10.4007
-10.472
-10.5398
-10.6043
-10.6658
-10.7245
-10.7805
-10.834
-10.8851
-10.9339
-10.9804
-11.0248
-8.27134
-8.29356
-8.35471
-8.44086
-8.5433
-8.65882
-8.78336
-8.91279
-9.04402
-9.17475
-9.30319
-9.42804
-9.54841
-9.66373
-9.77368
-9.87815
-9.97715
-10.0708
-10.1593
-10.2429
-10.3219
-10.3965
-10.467
-10.5337
-10.5969
-10.6567
-10.7135
-10.7673
-10.8185
-10.867
-10.913
-10.9566
-10.9979
-8.21019
-8.23327
-8.29682
-8.38625
-8.49241
-8.61202
-8.74089
-8.87471
-9.01029
-9.14522
-9.27761
-9.40609
-9.5297
-9.64785
-9.76019
-9.86659
-9.96707
-10.0618
-10.1509
-10.2347
-10.3134
-10.3875
-10.4571
-10.5226
-10.5842
-10.6423
-10.697
-10.7485
-10.7972
-10.843
-10.8863
-10.927
-10.9654
-8.13108
-8.15592
-8.2242
-8.32006
-8.43352
-8.56095
-8.69775
-8.83926
-8.98202
-9.1235
-9.26173
-9.39528
-9.52323
-9.64498
-9.76023
-9.86889
-9.97103
-10.0668
-10.1565
-10.2405
-10.3189
-10.3923
-10.4608
-10.5249
-10.5849
-10.6409
-10.6934
-10.7426
-10.7885
-10.8316
-10.8718
-10.9094
-10.9445
-8.03113
-8.05805
-8.13225
-8.23572
-8.35725
-8.49308
-8.6384
-8.78822
-8.93889
-9.08771
-9.23259
-9.37205
-9.50509
-9.63112
-9.74985
-9.86124
-9.96538
-10.0625
-10.153
-10.237
-10.3152
-10.3878
-10.4552
-10.5177
-10.5758
-10.6298
-10.68
-10.7266
-10.7698
-10.81
-10.8474
-10.882
-10.9142
-7.90744
-7.93882
-8.02429
-8.14228
-8.27913
-8.43021
-8.58994
-8.75276
-8.91484
-9.0735
-9.22672
-9.37311
-9.51181
-9.64236
-9.76459
-9.87857
-9.98449
-10.0827
-10.1735
-10.2575
-10.335
-10.4064
-10.4723
-10.533
-10.589
-10.6405
-10.688
-10.7317
-10.7719
-10.8088
-10.8428
-10.8739
-10.9023
-7.75342
-7.78773
-7.88324
-8.01385
-8.16413
-8.32973
-8.50447
-8.68191
-8.85768
-9.02879
-9.19298
-9.34878
-9.49532
-9.63222
-9.75942
-9.8771
-9.98561
-10.0854
-10.177
-10.261
-10.3379
-10.4083
-10.4726
-10.5314
-10.5851
-10.6342
-10.6789
-10.7197
-10.7568
-10.7907
-10.8215
-10.8495
-10.875
-7.56696
-7.61412
-7.73664
-7.89745
-8.07552
-8.26594
-8.46219
-8.6577
-8.84853
-9.03214
-9.20662
-9.37076
-9.52399
-9.6661
-9.79721
-9.91766
-10.0279
-10.1286
-10.2203
-10.3036
-10.3793
-10.4478
-10.5099
-10.5661
-10.6168
-10.6626
-10.7038
-10.7409
-10.7742
-10.804
-10.8307
-10.8544
-10.8754
-7.32643
-7.3727
-7.50895
-7.69012
-7.89294
-8.11196
-8.33728
-8.55988
-8.77495
-8.97951
-9.17147
-9.34977
-9.51413
-9.66473
-9.80205
-9.9268
-10.0398
-10.1419
-10.234
-10.3168
-10.3914
-10.4583
-10.5182
-10.5719
-10.6199
-10.6627
-10.7007
-10.7345
-10.7644
-10.7907
-10.8139
-10.8343
-10.8522
-7.04989
-7.14386
-7.34797
-7.58235
-7.82256
-8.0713
-8.32069
-8.56276
-8.7942
-9.01274
-9.21655
-9.40474
-9.57713
-9.73398
-9.87587
-10.0036
-10.1182
-10.2206
-10.3118
-10.3929
-10.4649
-10.5286
-10.5849
-10.6344
-10.6779
-10.7159
-10.749
-10.7777
-10.8022
-10.8231
-10.8407
-10.8554
-10.8675
-6.62745
-6.69543
-6.93015
-7.2216
-7.52909
-7.84564
-8.1546
-8.44615
-8.7176
-8.96733
-9.19465
-9.4001
-9.58482
-9.75017
-9.89762
-10.0287
-10.145
-10.2478
-10.3385
-10.4183
-10.4884
-10.5499
-10.6035
-10.6502
-10.6906
-10.7254
-10.755
-10.78
-10.8008
-10.8177
-10.8312
-10.8418
-10.85
-6.26352
-6.51604
-6.87184
-7.18996
-7.50897
-7.84346
-8.17009
-8.48009
-8.77174
-9.04147
-9.28698
-9.50795
-9.70501
-9.87932
-10.0325
-10.1664
-10.2829
-10.3838
-10.471
-10.546
-10.6103
-10.6652
-10.7119
-10.7514
-10.7844
-10.8117
-10.8339
-10.8513
-10.8644
-10.8734
-10.8784
-10.8802
-10.8787
-5.20985
-5.47551
-6.0854
-6.63028
-7.1305
-7.60491
-8.0291
-8.40559
-8.74189
-9.04081
-9.30538
-9.53903
-9.74471
-9.92506
-10.0825
-10.2193
-10.3376
-10.4394
-10.5264
-10.6005
-10.6632
-10.7159
-10.7598
-10.7961
-10.8255
-10.849
-10.8669
-10.8798
-10.8877
-10.8906
-10.888
-10.8809
-10.8652
-5.26051
-5.82002
-6.2604
-6.62308
-7.09719
-7.59023
-8.05213
-8.48566
-8.88231
-9.23378
-9.53989
-9.80327
-10.0272
-10.2156
-10.3728
-10.5029
-10.6098
-10.6971
-10.7677
-10.8244
-10.8693
-10.9046
-10.9317
-10.9521
-10.9669
-10.9768
-10.9827
-10.9847
-10.9829
-10.9764
-10.9632
-10.9408
-10.8983
-0.317837
-4.00933
-5.33287
-6.00044
-6.79636
-7.47028
-8.01079
-8.48398
-8.89728
-9.25205
-9.55596
-9.81503
-10.0341
-10.218
-10.3715
-10.4985
-10.603
-10.6883
-10.7573
-10.8127
-10.8566
-10.8909
-10.9173
-10.9371
-10.9514
-10.9611
-10.9672
-10.9701
-10.9707
-10.9684
-10.9657
-10.958
-10.955
-10.5111
-10.7576
-11.6232
-12.7882
-14.1313
-15.3246
-16.0846
-16.3375
-16.0436
-15.0149
-13.1725
-10.8836
-8.8458
-7.64065
-7.61099
-8.75728
-10.9577
-14.007
-17.5496
-21.2396
-24.7378
-27.6702
-29.657
-30.4152
-29.8142
-27.9634
-25.15
-21.6965
-17.8034
-13.5641
-9.21522
-5.27815
-2.19638
-0.0453211
1.31495
2.01248
2.09293
1.51724
0.124008
-2.285
-5.82009
-10.3975
-15.7275
-21.3883
-26.8949
-31.725
-35.377
-37.4214
-37.6078
-35.8242
-32.2684
-27.3946
-21.8724
-16.4794
-11.8333
-8.17291
-5.42841
-3.42246
-1.98599
-0.982185
-0.301648
0.142923
0.420053
0.581472
0.663636
0.690151
0.675264
0.624555
0.537077
0.404106
0.201358
-0.146335
-0.905905
-2.65275
-6.10424
-11.644
-18.79
-25.9255
-30.8336
-31.8347
-28.4116
-21.5549
-13.8724
-7.84097
-4.16952
-2.18589
-1.09913
-0.472219
-0.111943
0.0844663
0.185533
0.234016
0.251103
0.248464
0.229165
0.202614
0.160851
0.127752
0.0637607
0.0491888
-10.658
-10.8522
-11.6445
-12.7692
-14.0572
-15.2102
-15.9679
-16.2356
-15.9534
-14.9601
-13.226
-11.1218
-9.27504
-8.18279
-8.13932
-9.2172
-11.2733
-14.0458
-17.2509
-20.5695
-23.6686
-26.2336
-27.9664
-28.6321
-28.1204
-26.5092
-23.9951
-20.7962
-17.0856
-13.0282
-8.94652
-5.31722
-2.46948
-0.4454
0.859129
1.53735
1.61854
1.06786
-0.243521
-2.48636
-5.76933
-10.03
-15.0089
-20.3099
-25.4699
-29.9935
-33.4082
-35.3146
-35.4821
-33.8074
-30.4768
-25.9309
-20.8197
-15.8593
-11.574
-8.15301
-5.54161
-3.59965
-2.1875
-1.18572
-0.494955
-0.0341227
0.261299
0.440571
0.538877
0.579358
0.576189
0.535237
0.455188
0.327071
0.127494
-0.208364
-0.916507
-2.52958
-5.72696
-10.8824
-17.547
-24.207
-28.7872
-29.7232
-26.529
-20.1593
-13.074
-7.53481
-4.13427
-2.2492
-1.18267
-0.552344
-0.182809
0.0251107
0.138522
0.198733
0.225859
0.231259
0.217981
0.195854
0.15698
0.125917
0.0630194
0.0490284
-10.7713
-11.0492
-11.809
-12.8459
-14.0049
-15.0489
-15.7387
-15.9674
-15.665
-14.717
-13.1536
-11.3267
-9.76687
-8.88648
-8.90491
-9.84905
-11.6501
-14.1366
-17.0295
-20.0144
-22.7831
-25.0509
-26.5675
-27.1394
-26.6739
-25.2158
-22.8891
-19.8579
-16.307
-12.4734
-8.70838
-5.39827
-2.77669
-0.875806
0.371128
1.02667
1.10833
0.583392
-0.650532
-2.73207
-5.76051
-9.69226
-14.3031
-19.2285
-24.0302
-28.2398
-31.4138
-33.1827
-33.3295
-31.7626
-28.664
-24.4655
-19.7859
-15.2615
-11.326
-8.13423
-5.65222
-3.77497
-2.38914
-1.39123
-0.691582
-0.215382
0.0977904
0.294655
0.409052
0.46359
0.472241
0.441138
0.368802
0.246065
0.0499968
-0.27619
-0.937246
-2.41702
-5.35012
-10.1
-16.2577
-22.4216
-26.664
-27.535
-24.5835
-18.7301
-12.2692
-7.23129
-4.09865
-2.30936
-1.26324
-0.630835
-0.253134
-0.0342183
0.0914031
0.163349
0.200551
0.214022
0.206781
0.189084
0.153088
0.124063
0.0621968
0.0488927
-10.9601
-11.2581
-11.9193
-12.8214
-13.8203
-14.711
-15.297
-15.4652
-15.1532
-14.3068
-13.0005
-11.5329
-10.3109
-9.64712
-9.71002
-10.5384
-12.0857
-14.2346
-16.7786
-19.4443
-21.9295
-23.961
-25.3054
-25.7929
-25.3321
-23.9417
-21.7201
-18.8278
-15.4788
-11.9405
-8.52503
-5.52325
-3.11095
-1.32826
-0.141234
0.488477
0.570044
0.0729343
-1.08594
-3.01253
-5.79009
-9.38857
-13.6195
-18.1563
-22.5904
-26.4814
-29.4138
-31.0447
-31.1692
-29.7129
-26.8608
-23.0325
-18.7967
-14.6975
-11.0915
-8.11535
-5.75871
-3.94725
-2.59005
-1.59805
-0.891074
-0.400598
-0.0703703
0.143725
0.274112
0.342794
0.363476
0.342446
0.278147
0.16118
-0.0309242
-0.348315
-0.964921
-2.31188
-4.9736
-9.30178
-14.9346
-20.5905
-24.4917
-25.3022
-22.6101
-17.2995
-11.4802
-6.94013
-4.06518
-2.36668
-1.34092
-0.707886
-0.323063
-0.0935272
0.0442916
0.128057
0.175418
0.197015
0.195843
0.182584
0.149439
0.122431
0.061479
0.0489218
-11.1418
-11.4363
-11.9971
-12.7422
-13.544
-14.2456
-14.6992
-14.8084
-14.528
-13.842
-12.8278
-11.7101
-10.79
-10.3129
-10.4239
-11.1634
-12.4917
-14.3161
-16.4833
-18.7829
-20.9618
-22.7531
-23.9242
-24.3212
-23.8505
-22.5195
-20.4244
-17.733
-14.6662
-11.4719
-8.40233
-5.68341
-3.46418
-1.7969
-0.672333
-0.0707275
0.0100869
-0.457039
-1.54133
-3.32093
-5.85801
-9.12844
-12.9753
-17.1137
-21.1712
-24.7386
-27.4273
-28.9187
-29.0227
-27.6879
-25.1028
-21.6624
-17.8669
-14.1701
-10.8698
-8.09626
-5.86148
-4.11664
-2.79007
-1.80597
-1.09329
-0.589747
-0.24326
-0.0123632
0.133872
0.216764
0.249655
0.238909
0.183021
0.0724172
-0.114953
-0.423974
-0.999152
-2.21628
-4.60515
-8.5036
-13.6015
-18.7434
-22.3022
-23.0574
-20.6412
-15.8946
-10.723
-6.66806
-4.0369
-2.42353
-1.41781
-0.784945
-0.393328
-0.153059
-0.00283311
0.0928918
0.150471
0.180209
0.185091
0.176244
0.145893
0.120878
0.0607144
0.0490304
-11.2918
-11.5689
-12.0309
-12.6226
-13.2514
-13.8055
-14.1647
-14.2513
-14.0299
-13.4974
-12.7214
-11.873
-11.1816
-10.8437
-10.9817
-11.6399
-12.7892
-14.3455
-16.1774
-18.1117
-19.943
-21.4455
-22.4239
-22.7206
-22.2506
-21.0174
-19.1108
-16.6874
-13.944
-11.0907
-8.33599
-5.87038
-3.82977
-2.2752
-1.21467
-0.642408
-0.562662
-0.998834
-2.00884
-3.64972
-5.96168
-8.91893
-12.3883
-16.1254
-19.7994
-23.0376
-25.4797
-26.8328
-26.9261
-25.7314
-23.4327
-20.3837
-17.0074
-13.6801
-10.6599
-8.07647
-5.96022
-4.28276
-2.98878
-2.01463
-1.29799
-0.782707
-0.420844
-0.173631
-0.0117138
0.0854565
0.130797
0.130619
0.0835179
-0.0201134
-0.201867
-0.502657
-1.04058
-2.13483
-4.25623
-7.72479
-12.2847
-16.9111
-20.1298
-20.8388
-18.7157
-14.5467
-10.0152
-6.42146
-4.01601
-2.48136
-1.4951
-0.862796
-0.464272
-0.212859
-0.0498669
0.0580267
0.125926
0.163842
0.174777
0.170315
0.142688
0.119626
0.0600735
0.049361
-11.3872
-11.6444
-12.0347
-12.5206
-13.0291
-13.4715
-13.7582
-13.827
-13.6504
-13.2349
-12.6412
-12.002
-11.492
-11.267
-11.4289
-12.0166
-13.0079
-14.3348
-15.8833
-17.5029
-19.0197
-20.254
-21.0377
-21.2327
-20.7685
-19.6468
-17.9418
-15.7849
-13.3416
-10.7908
-8.31276
-6.07483
-4.20132
-2.75682
-1.76112
-1.21904
-1.14039
-1.54522
-2.48133
-3.99039
-6.09413
-8.76048
-11.8716
-15.2172
-18.5093
-21.4168
-23.6127
-24.8348
-24.9331
-23.8956
-21.8887
-19.2129
-16.2193
-13.2247
-10.4603
-8.05588
-6.05515
-4.44563
-3.18605
-2.22385
-1.50506
-0.979423
-0.603127
-0.340125
-0.162716
-0.0512091
0.00681833
0.0175399
-0.0203331
-0.116282
-0.291379
-0.583494
-1.0884
-2.06975
-3.93591
-6.98354
-11.0109
-15.1271
-18.0131
-18.6884
-16.8737
-13.285
-9.3702
-6.20442
-4.00421
-2.54189
-1.57441
-0.94254
-0.536421
-0.27307
-0.0967698
0.0235553
0.101864
0.14796
0.164899
0.164756
0.139742
0.118576
0.0594307
0.0498392
-11.453
-11.692
-12.0255
-12.4247
-12.8338
-13.1871
-13.4176
-13.477
-13.3447
-13.0305
-12.5859
-12.1135
-11.7477
-11.6115
-11.7887
-12.3135
-13.1694
-14.2995
-15.6072
-16.9641
-18.2237
-19.2327
-19.8469
-19.9542
-19.4967
-18.4742
-16.9462
-15.0209
-12.8379
-10.5515
-8.31986
-6.28967
-4.57324
-3.23561
-2.30471
-1.79336
-1.71558
-2.08924
-2.95266
-4.33581
-6.24705
-8.64785
-11.4298
-14.4088
-17.3354
-19.9223
-21.8815
-22.9855
-23.1018
-22.2241
-20.492
-18.1527
-15.4977
-12.8001
-10.27
-8.0347
-6.14651
-4.60525
-3.38172
-2.4335
-1.71437
-1.17981
-0.790066
-0.511829
-0.319127
-0.193213
-0.122217
-0.100192
-0.128352
-0.215867
-0.383165
-0.665652
-1.14126
-2.02175
-3.65143
-6.29752
-9.80847
-13.4278
-15.9946
-16.6513
-15.1558
-12.1355
-8.798
-6.01907
-4.00252
-2.60645
-1.65696
-1.02487
-0.610015
-0.333669
-0.143405
-0.0103374
0.0784979
0.132791
0.15569
0.159796
0.13727
0.117928
0.0589369
0.050602
-11.4938
-11.7127
-11.9984
-12.3295
-12.6637
-12.951
-13.1408
-13.1959
-13.1015
-12.8685
-12.5409
-12.1993
-11.9471
-11.8806
-12.0674
-12.5362
-13.2747
-14.2351
-15.3361
-16.4693
-17.5096
-18.3268
-18.8016
-18.8407
-18.3936
-17.4588
-16.0848
-14.3616
-12.4078
-10.3575
-8.34865
-6.50935
-4.94056
-3.70617
-2.83957
-2.35933
-2.28236
-2.62508
-3.41757
-4.68041
-6.41276
-8.57214
-11.0573
-13.7047
-16.2975
-18.5884
-20.3301
-21.3294
-21.4656
-20.7322
-19.2407
-17.193
-14.8344
-12.4028
-10.0884
-8.01345
-6.23473
-4.76181
-3.57585
-2.64352
-1.92585
-1.38382
-0.981626
-0.688725
-0.480932
-0.340533
-0.256264
-0.222461
-0.24033
-0.318593
-0.476863
-0.748383
-1.19756
-1.99032
-3.40789
-5.68253
-8.70548
-11.851
-14.1188
-14.7733
-13.5989
-11.1174
-8.30288
-5.86522
-4.01137
-2.67623
-1.74381
-1.1104
-0.685253
-0.394637
-0.189653
-0.0434957
0.0559745
0.118452
0.147224
0.155463
0.13525
0.117631
0.0584983
0.0515902
-11.5155
-11.7153
-11.9624
-12.2396
-12.5149
-12.7504
-12.9088
-12.9622
-12.9007
-12.7352
-12.5023
-12.2647
-12.1019
-12.0889
-12.2797
-12.6978
-13.3337
-14.1469
-15.0693
-16.0094
-16.8617
-17.5173
-17.876
-17.8592
-17.4237
-16.5673
-15.3295
-13.7857
-12.0373
-10.2
-8.39338
-6.72958
-5.29925
-4.16411
-3.36072
-2.91161
-2.83547
-3.14763
-3.87136
-5.01961
-6.58508
-8.52392
-10.7423
-13.0945
-15.3909
-17.4189
-18.9677
-19.8699
-20.019
-19.4053
-18.1168
-16.3197
-14.2219
-12.0305
-9.91597
-7.9928
-6.32033
-4.91558
-3.76852
-2.85391
-2.13948
-1.5914
-1.17776
-0.870773
-0.648081
-0.493086
-0.395188
-0.349058
-0.355956
-0.424094
-0.572046
-0.831009
-1.25544
-1.97335
-3.20691
-5.14985
-7.7262
-10.4326
-12.429
-13.0957
-12.2311
-10.2401
-7.88347
-5.74089
-4.03082
-2.75219
-1.83569
-1.19937
-0.762119
-0.455835
-0.235324
-0.0756975
0.0345288
0.105183
0.139733
0.151975
0.133877
0.117866
0.0582448
0.0529293
-11.523
-11.7047
-11.9194
-12.1534
-12.3828
-12.5791
-12.7147
-12.7691
-12.7356
-12.6247
-12.4661
-12.3091
-12.2148
-12.2414
-12.4314
-12.8034
-13.3495
-14.0358
-14.8048
-15.5799
-16.2725
-16.7912
-17.0519
-16.9891
-16.5661
-15.7804
-14.6644
-13.2815
-11.7175
-10.0723
-8.44937
-6.9468
-5.64603
-4.60574
-3.86396
-3.44561
-3.37035
-3.65257
-4.30996
-5.34957
-6.75931
-8.49566
-10.4727
-12.5611
-14.5951
-16.391
-17.7666
-18.5786
-18.7326
-18.2163
-17.0998
-15.5209
-13.6554
-11.6824
-9.75302
-7.9735
-6.40389
-5.06693
-3.95993
-3.06476
-2.35527
-1.80256
-1.37847
-1.05794
-0.820519
-0.650781
-0.538859
-0.479767
-0.474882
-0.531923
-0.668223
-0.912908
-1.3131
-1.96744
-3.04618
-4.70396
-6.88715
-9.2012
-10.9596
-11.6476
-11.0657
-9.50142
-7.53331
-5.64298
-4.06086
-2.83513
-1.93311
-1.29192
-0.840543
-0.517117
-0.280233
-0.106729
0.0143762
0.0931748
0.133362
0.149428
0.133188
0.118629
0.0581166
0.0545794
-11.5187
-11.6837
-11.8717
-12.0715
-12.2652
-12.4316
-12.5502
-12.6064
-12.5962
-12.5289
-12.4289
-12.3345
-12.2925
-12.3477
-12.5331
-12.863
-13.3305
-13.9069
-14.5442
-15.178
-15.7344
-16.137
-16.3157
-16.2159
-15.8067
-15.0854
-14.0788
-12.8397
-11.4412
-9.96899
-8.51275
-7.15817
-5.97823
-5.02803
-4.34573
-3.95742
-3.88306
-4.13619
-4.72994
-5.66694
-6.93179
-8.48201
-10.2396
-12.09
-13.8889
-15.4772
-16.6971
-17.4251
-17.5786
-17.1437
-16.1762
-14.7897
-13.1325
-11.3581
-9.60008
-7.95625
-6.48607
-5.21636
-4.15039
-3.27624
-2.57332
-2.01733
-1.58375
-1.25022
-0.998183
-0.81349
-0.687072
-0.614297
-0.596693
-0.641546
-0.764824
-0.993463
-1.36897
-1.96846
-2.91971
-4.3411
-6.19264
-8.17072
-9.72687
-10.4377
-10.0976
-8.88813
-7.24264
-5.56824
-4.10171
-2.9258
-2.03638
-1.38804
-0.920398
-0.578302
-0.324153
-0.136325
-0.00420116
0.0827019
0.128363
0.148045
0.133373
0.120089
0.0582249
0.0566513
-11.5059
-11.6559
-11.8216
-11.9941
-12.1598
-12.3032
-12.4093
-12.4679
-12.4766
-12.4439
-12.3892
-12.3423
-12.3389
-12.4133
-12.5907
-12.8818
-13.2802
-13.7618
-14.2862
-14.7998
-15.2409
-15.5461
-15.6569
-15.5281
-15.1335
-14.4708
-13.562
-12.4517
-11.2017
-9.8854
-8.58034
-7.36138
-6.29372
-5.42856
-4.80315
-4.44386
-4.37037
-4.59545
-5.12852
-5.969
-7.09942
-8.47891
-10.0368
-11.6721
-13.2593
-14.6604
-15.7403
-16.3911
-16.5411
-16.1753
-15.3377
-14.1214
-12.6507
-11.057
-9.45752
-7.94181
-6.5676
-5.36442
-4.34031
-3.48864
-2.79382
-2.23585
-1.79367
-1.4476
-1.18101
-0.981069
-0.839584
-0.752311
-0.720932
-0.752355
-0.861183
-1.07201
-1.42175
-1.97221
-2.81892
-4.0496
-5.63219
-7.3344
-8.72235
-9.45042
-9.3039
-8.37972
-7.00082
-5.51423
-4.154
-3.02502
-2.14588
-1.48782
-1.00164
-0.639245
-0.366843
-0.164206
-0.0209103
0.0740315
0.124953
0.147982
0.134521
0.122285
0.0585431
0.059126
-11.4861
-11.6227
-11.7698
-11.9203
-12.0643
-12.19
-12.2869
-12.3477
-12.3715
-12.3656
-12.3453
-12.3339
-12.3583
-12.4446
-12.6117
-12.8673
-13.2051
-13.6049
-14.0327
-14.4442
-14.7879
-15.0113
-15.0661
-14.9147
-14.5355
-13.9263
-13.1056
-12.1106
-10.9937
-9.81779
-8.64965
-7.55467
-6.5909
-5.80547
-5.23401
-4.90244
-4.82975
-5.02794
-5.50347
-6.25352
-7.25958
-8.48286
-9.85959
-11.3009
-12.6976
-13.9306
-14.8844
-15.4645
-15.6088
-15.3018
-14.5773
-13.5115
-12.2078
-10.7784
-9.3257
-7.93095
-6.64931
-5.51183
-4.53024
-3.70236
-3.01706
-2.45831
-2.00836
-1.65013
-1.36893
-1.15335
-0.9961
-0.893401
-0.847076
-0.863687
-0.956549
-1.14784
-1.47039
-1.97504
-2.73431
-3.81226
-5.18195
-6.66444
-7.92106
-8.64931
-8.64996
-7.95339
-6.79884
-5.47993
-4.21896
-3.13384
-2.26222
-1.59156
-1.08434
-0.699842
-0.408036
-0.190039
-0.0353975
0.067496
0.123421
0.149485
0.136828
0.12538
0.059168
0.062101
-11.4613
-11.5861
-11.7176
-11.8506
-11.9772
-12.0893
-12.179
-12.2416
-12.2771
-12.2914
-12.2968
-12.311
-12.3546
-12.4468
-12.6016
-12.8243
-13.1089
-13.4381
-13.7836
-14.1086
-14.3706
-14.5261
-14.5353
-14.3672
-14.0039
-13.4438
-12.7022
-11.8103
-10.8127
-9.76294
-8.7186
-7.73663
-6.86857
-6.15741
-5.63668
-5.3313
-5.25931
-5.43182
-5.8531
-6.5188
-7.41013
-8.49075
-9.70341
-10.97
-12.196
-13.2784
-14.1184
-14.6341
-14.7712
-14.5139
-13.8881
-12.9553
-11.8015
-10.5217
-9.20501
-7.92448
-6.7321
-5.65941
-4.72085
-3.91796
-3.2435
-2.68505
-2.22802
-1.85787
-1.56191
-1.33013
-1.15628
-1.03709
-0.974531
-0.974822
-1.0501
-1.22014
-1.51398
-1.97417
-2.6573
-3.61056
-4.81109
-6.11885
-7.26213
-7.98661
-8.09924
-7.58972
-6.63107
-5.46591
-4.29836
-3.25377
-2.38642
-1.69988
-1.16874
-0.76003
-0.447463
-0.213451
-0.0472741
0.0634476
0.124055
0.152768
0.140433
0.129454
0.0601028
0.0655777
-11.4324
-11.5468
-11.6653
-11.7839
-11.8968
-11.9981
-12.0822
-12.146
-12.19
-12.2192
-12.2431
-12.2752
-12.3309
-12.4244
-12.5658
-12.7583
-12.9962
-13.2647
-13.5404
-13.7924
-13.986
-14.0853
-14.0577
-13.8777
-13.5308
-13.0156
-12.3451
-11.5456
-10.6548
-9.71822
-8.78555
-7.90627
-7.12596
-6.48353
-6.01009
-5.7292
-5.65771
-5.80578
-6.17622
-6.76354
-7.54937
-8.5
-9.56425
-10.6737
-11.7466
-12.6943
-13.4322
-13.8892
-14.0181
-13.8032
-13.2636
-12.4487
-11.4296
-10.2863
-9.09584
-7.92328
-6.81696
-5.80811
-4.91301
-4.13616
-3.4737
-2.91652
-2.45295
-2.07098
-1.7599
-1.51123
-1.31974
-1.18285
-1.10263
-1.08499
-1.14096
-1.28808
-1.55176
-1.96782
-2.58159
-3.42879
-4.49046
-5.6553
-6.70306
-7.41918
-7.62326
-7.27647
-6.49558
-5.47401
-4.39469
-3.38694
-2.52009
-1.81372
-1.25521
-0.819714
-0.484814
-0.234007
-0.0560877
0.062298
0.127203
0.158114
0.145552
0.134672
0.0614359
0.0696428
-11.4008
-11.506
-11.6135
-11.7203
-11.8222
-11.9147
-11.9941
-12.0584
-12.1083
-12.1478
-12.1844
-12.2281
-12.2905
-12.3818
-12.509
-12.6737
-12.8706
-13.087
-13.3033
-13.4941
-13.6309
-13.6842
-13.6273
-13.4396
-13.1092
-12.6354
-12.0288
-11.3119
-10.5165
-9.68137
-8.84917
-8.06287
-7.36262
-6.78336
-6.35365
-6.09539
-6.02418
-6.1491
-6.47212
-6.98692
-7.67599
-8.50845
-9.43874
-10.4071
-11.3429
-12.1703
-12.8166
-13.2205
-13.3406
-13.1619
-12.6979
-11.988
-11.0902
-10.0717
-8.99861
-7.92826
-6.905
-5.95905
-5.10775
-4.35789
-3.70846
-3.15332
-2.68358
-2.28969
-1.96293
-1.69645
-1.4861
-1.33007
-1.23061
-1.19333
-1.22823
-1.35078
-1.58299
-1.95499
-2.50357
-3.25669
-4.1994
-5.24289
-6.21009
-6.91978
-7.20629
-7.00827
-6.39285
-5.50695
-4.51116
-3.5363
-2.66538
-1.93435
-1.34427
-0.878805
-0.519721
-0.251202
-0.0613282
0.0645
0.133235
0.165798
0.152371
0.141148
0.0631952
0.0743157
-11.3667
-11.4639
-11.5621
-11.6591
-11.7518
-11.837
-11.9122
-11.9761
-12.0296
-12.0758
-12.1204
-12.171
-12.2358
-12.3223
-12.435
-12.5744
-12.7353
-12.9071
-13.0732
-13.213
-13.3027
-13.3186
-13.239
-13.047
-12.7332
-12.2972
-11.7483
-11.1052
-10.3949
-9.65045
-8.90841
-8.20598
-7.57839
-7.05684
-6.66721
-6.42964
-6.35839
-6.46156
-6.74044
-7.18841
-7.78904
-8.5143
-9.32389
-10.1658
-10.9792
-11.6991
-12.2634
-12.6194
-12.7308
-12.5831
-12.1857
-11.5694
-10.7814
-9.87744
-8.91371
-7.94036
-6.99743
-6.11352
-5.30633
-4.5843
-3.94879
-3.39629
-2.92053
-2.51434
-2.17108
-1.88558
-1.65491
-1.47811
-1.35768
-1.29895
-1.31098
-1.40734
-1.60697
-1.93511
-2.4218
-3.08956
-3.92769
-4.86674
-5.76728
-6.476
-6.84122
-6.78307
-6.32435
-5.56824
-4.65195
-3.70561
-2.82504
-2.06333
-1.43645
-0.937231
-0.551729
-0.26445
-0.0624079
0.0705716
0.142574
0.176152
0.161135
0.149058
0.0654667
0.0796765
-11.3315
-11.4215
-11.5117
-11.6003
-11.6853
-11.7643
-11.8355
-11.8983
-11.9533
-12.0032
-12.0522
-12.1058
-12.1699
-12.2496
-12.3478
-12.464
-12.5935
-12.7271
-12.851
-12.9481
-12.9994
-12.9852
-12.8882
-12.6948
-12.3975
-11.9963
-11.4991
-10.9219
-10.2874
-9.62388
-8.96248
-8.33539
-7.77341
-7.30418
-6.951
-6.73212
-6.66049
-6.74325
-6.9812
-7.3678
-7.88781
-8.51611
-9.21718
-9.94592
-10.6501
-11.2743
-11.7654
-12.0783
-12.1812
-12.0606
-11.7221
-11.1897
-10.5014
-9.70291
-8.84157
-7.9606
-7.09559
-6.273
-5.51025
-4.81684
-4.19599
-3.64651
-3.16458
-2.74542
-2.38452
-2.07849
-1.82573
-1.62627
-1.48291
-1.40082
-1.38816
-1.45678
-1.62289
-1.90759
-2.33558
-2.9256
-3.67149
-4.52099
-5.36711
-6.08064
-6.52317
-6.59948
-6.29218
-5.66233
-4.82235
-3.89963
-3.00248
-2.20261
-1.53233
-0.994872
-0.580284
-0.273057
-0.0586538
0.0810923
0.155684
0.189517
0.172079
0.158543
0.0682979
0.0857566
-11.2948
-11.3784
-11.4615
-11.5429
-11.6212
-11.6946
-11.7619
-11.8227
-11.8778
-11.929
-11.9795
-12.0332
-12.0942
-12.1659
-12.25
-12.3452
-12.4473
-12.5482
-12.6367
-12.6987
-12.7186
-12.6806
-12.5708
-12.3782
-12.0972
-11.7279
-11.2773
-10.7588
-10.1918
-9.6002
-9.01071
-8.45102
-7.94795
-7.52587
-7.20552
-7.00334
-6.93093
-6.99459
-7.19475
-7.52515
-7.97191
-8.51264
-9.11629
-9.74392
-10.3509
-10.89
-11.3159
-11.5902
-11.6853
-11.5883