/*--------------------------------*- C++ -*----------------------------------*\
  =========                 |
  \\      /  F ield         | OpenFOAM: The Open Source CFD Toolbox
   \\    /   O peration     | Website:  https://openfoam.org
    \\  /    A nd           | Version:  10
     \\/     M anipulation  |
\*---------------------------------------------------------------------------*/
FoamFile
{
    format      ascii;
    class       surfaceScalarField;
    location    "0.14";
    object      phi;
}
// * * * * * * * * * * * * * * * * * * * * * * * * * * * * * * * * * * * * * //

dimensions      [0 3 -1 0 0 0 0];

internalField   nonuniform List<scalar> 
13452
(
4.01928e-05
2.00756e-05
2.59364e-05
1.42564e-05
1.85349e-05
7.40146e-06
1.51654e-05
3.36951e-06
1.37546e-05
1.4108e-06
1.30511e-05
7.03546e-07
1.26024e-05
4.48727e-07
1.22565e-05
3.45862e-07
1.19638e-05
2.92709e-07
1.17122e-05
2.51573e-07
1.14976e-05
2.14661e-07
1.13159e-05
1.81635e-07
1.11632e-05
1.52775e-07
1.10351e-05
1.28029e-07
1.09282e-05
1.06971e-07
1.08391e-05
8.90261e-08
1.07655e-05
7.36498e-08
1.07051e-05
6.0389e-08
1.06562e-05
4.8901e-08
1.06172e-05
3.89508e-08
1.05869e-05
3.03872e-08
1.05637e-05
2.3124e-08
1.05465e-05
1.7183e-08
1.05338e-05
1.27716e-08
1.05236e-05
1.01689e-08
1.05138e-05
9.78736e-09
1.0502e-05
1.17931e-08
1.04843e-05
1.77682e-08
1.04575e-05
2.67136e-08
1.04089e-05
4.86276e-08
1.03441e-05
6.48509e-08
1.01788e-05
1.65265e-07
6.28603e-08
1.01159e-05
6.59033e-05
1.61626e-05
6.18999e-05
1.82599e-05
5.56446e-05
1.36568e-05
4.97845e-05
9.22958e-06
4.52995e-05
5.89577e-06
4.20999e-05
3.90315e-06
3.98087e-05
2.73992e-06
3.81268e-05
2.0278e-06
3.68486e-05
1.57092e-06
3.5843e-05
1.25716e-06
3.50296e-05
1.02805e-06
3.43579e-05
8.53358e-07
3.37948e-05
7.15866e-07
3.33178e-05
6.04988e-07
3.2911e-05
5.13769e-07
3.25626e-05
4.37407e-07
3.22638e-05
3.72505e-07
3.20075e-05
3.1663e-07
3.17884e-05
2.6804e-07
3.16019e-05
2.25505e-07
3.14441e-05
1.88158e-07
3.13118e-05
1.55425e-07
3.12019e-05
1.27081e-07
3.11114e-05
1.03254e-07
3.10374e-05
8.42051e-08
3.09768e-05
7.03966e-08
3.0926e-05
6.24991e-08
3.08811e-05
6.27132e-08
3.08358e-05
7.199e-08
3.07852e-05
9.92713e-08
3.07151e-05
1.34892e-07
3.06548e-05
2.25583e-07
2.89552e-07
3.04281e-05
6.91812e-05
1.07428e-05
7.25081e-05
1.4933e-05
7.30636e-05
1.31012e-05
7.16941e-05
1.05991e-05
6.94568e-05
8.13307e-06
6.70884e-05
6.27151e-06
6.48722e-05
4.95621e-06
6.28985e-05
4.00144e-06
6.11779e-05
3.29153e-06
5.96881e-05
2.74694e-06
5.83999e-05
2.31626e-06
5.72851e-05
1.96818e-06
5.63186e-05
1.68233e-06
5.54791e-05
1.44449e-06
5.47486e-05
1.24429e-06
5.4112e-05
1.07399e-06
5.35568e-05
9.27735e-07
5.30724e-05
8.01037e-07
5.265e-05
6.90473e-07
5.2282e-05
5.93442e-07
5.19622e-05
5.07997e-07
5.16849e-05
4.32748e-07
5.14451e-05
3.6683e-07
5.12385e-05
3.09855e-07
5.10609e-05
2.61808e-07
5.09081e-05
2.23158e-07
5.07757e-05
1.94916e-07
5.0659e-05
1.79422e-07
5.05521e-05
1.78944e-07
5.04507e-05
2.006e-07
5.03411e-05
2.44509e-07
5.02289e-05
3.37857e-07
4.66993e-07
5.00514e-05
6.88456e-05
7.48033e-06
7.216e-05
1.16185e-05
7.45342e-05
1.07271e-05
7.59437e-05
9.1896e-06
7.65219e-05
7.55489e-06
7.65862e-05
6.20721e-06
7.6345e-05
5.19745e-06
7.5924e-05
4.42236e-06
7.54042e-05
3.81134e-06
7.48344e-05
3.31679e-06
7.42451e-05
2.9055e-06
7.36566e-05
2.55671e-06
7.30826e-05
2.25635e-06
7.25325e-05
1.99461e-06
7.20119e-05
1.76485e-06
7.1524e-05
1.56186e-06
7.10703e-05
1.38144e-06
7.06511e-05
1.22026e-06
7.02659e-05
1.07567e-06
6.99137e-05
9.4559e-07
6.95933e-05
8.28435e-07
6.9303e-05
7.23078e-07
6.9041e-05
6.28841e-07
6.88053e-05
5.45494e-07
6.85939e-05
4.73207e-07
6.84044e-05
4.12663e-07
6.82342e-05
3.65147e-07
6.80805e-05
3.33076e-07
6.79401e-05
3.19414e-07
6.78107e-05
3.30018e-07
6.76859e-05
3.69225e-07
6.75713e-05
4.5247e-07
5.85413e-07
6.74529e-05
6.95586e-05
5.37849e-06
7.18349e-05
9.34225e-06
7.35358e-05
9.02621e-06
7.48051e-05
7.92029e-06
7.56959e-05
6.66405e-06
7.63457e-05
5.55742e-06
7.68407e-05
4.70249e-06
7.72227e-05
4.04033e-06
7.752e-05
3.51406e-06
7.77511e-05
3.08565e-06
7.7929e-05
2.72762e-06
7.80638e-05
2.42185e-06
7.81631e-05
2.15712e-06
7.82323e-05
1.92535e-06
7.82771e-05
1.72003e-06
7.83025e-05
1.53645e-06
7.83129e-05
1.37113e-06
7.83117e-05
1.22141e-06
7.83021e-05
1.08525e-06
7.82866e-05
9.61092e-07
7.82672e-05
8.47832e-07
7.82456e-05
7.44739e-07
7.82229e-05
6.51473e-07
7.82004e-05
5.68079e-07
7.81786e-05
4.94976e-07
7.81582e-05
4.33049e-07
7.81396e-05
3.8373e-07
7.81234e-05
3.49304e-07
7.81102e-05
3.32626e-07
7.8102e-05
3.38175e-07
7.8101e-05
3.70269e-07
7.81158e-05
4.37699e-07
5.43174e-07
7.8158e-05
7.084e-05
3.92248e-06
7.26271e-05
7.55522e-06
7.3934e-05
7.71928e-06
7.48648e-05
6.98948e-06
7.5496e-05
6.03291e-06
7.59467e-05
5.10673e-06
7.63039e-05
4.34521e-06
7.66081e-05
3.73615e-06
7.68795e-05
3.24267e-06
7.71279e-05
2.83723e-06
7.73576e-05
2.49794e-06
7.75707e-05
2.20873e-06
7.77693e-05
1.95855e-06
7.7955e-05
1.73963e-06
7.81288e-05
1.54622e-06
7.82914e-05
1.37388e-06
7.84433e-05
1.21919e-06
7.85852e-05
1.0795e-06
7.87177e-05
9.52795e-07
7.88412e-05
8.37553e-07
7.89564e-05
7.32671e-07
7.90637e-05
6.3743e-07
7.91637e-05
5.51469e-07
7.9257e-05
4.7478e-07
7.93443e-05
4.07693e-07
7.94264e-05
3.50925e-07
7.95045e-05
3.056e-07
7.95804e-05
2.73407e-07
7.96567e-05
2.56353e-07
7.97376e-05
2.57257e-07
7.98296e-05
2.78322e-07
7.99439e-05
3.23352e-07
3.88642e-07
8.00985e-05
7.23887e-05
2.90011e-06
7.3841e-05
6.10297e-06
7.49692e-05
6.59102e-06
7.57886e-05
6.17008e-06
7.63487e-05
5.47284e-06
7.67332e-05
4.72218e-06
7.70187e-05
4.05981e-06
7.72471e-05
3.50774e-06
7.74419e-05
3.04785e-06
7.76165e-05
2.66265e-06
7.77778e-05
2.33657e-06
7.79297e-05
2.05683e-06
7.80743e-05
1.814e-06
7.82127e-05
1.60117e-06
7.83459e-05
1.41306e-06
7.84742e-05
1.24555e-06
7.8598e-05
1.09541e-06
7.87174e-05
9.60134e-07
7.88324e-05
8.37751e-07
7.89432e-05
7.2676e-07
7.90498e-05
6.26052e-07
7.91524e-05
5.34869e-07
7.92511e-05
4.52777e-07
7.93462e-05
3.79646e-07
7.94383e-05
3.15632e-07
7.9528e-05
2.61182e-07
7.96166e-05
2.1702e-07
7.97058e-05
1.84179e-07
7.97984e-05
1.63738e-07
7.98987e-05
1.56968e-07
8.00129e-05
1.64133e-07
8.01507e-05
1.85601e-07
2.15178e-07
8.03241e-05
7.41251e-05
2.18025e-06
7.52924e-05
4.93567e-06
7.62743e-05
5.60916e-06
7.70271e-05
5.41727e-06
7.75739e-05
4.92602e-06
7.79642e-05
4.33186e-06
7.82558e-05
3.76825e-06
7.84861e-05
3.27747e-06
7.86776e-05
2.85634e-06
7.88444e-05
2.49584e-06
7.89948e-05
2.18616e-06
7.91337e-05
1.91794e-06
7.92641e-05
1.68362e-06
7.93879e-05
1.47735e-06
7.95064e-05
1.29452e-06
7.96206e-05
1.13142e-06
7.97309e-05
9.85109e-07
7.98378e-05
8.5324e-07
7.99415e-05
7.33956e-07
8.00425e-05
6.25812e-07
8.01408e-05
5.27719e-07
8.02368e-05
4.389e-07
8.03307e-05
3.58855e-07
8.0423e-05
2.87339e-07
8.05143e-05
2.24327e-07
8.06055e-05
1.69998e-07
8.06979e-05
1.24663e-07
8.07933e-05
8.87296e-08
8.08946e-05
6.24662e-08
8.10056e-05
4.59459e-08
8.11317e-05
3.80802e-08
8.12802e-05
3.70461e-08
3.61946e-08
8.14592e-05
7.60166e-05
1.66614e-06
7.69529e-05
3.99938e-06
7.78016e-05
4.7604e-06
7.84833e-05
4.73559e-06
7.90045e-05
4.40484e-06
7.93938e-05
3.94258e-06
7.96934e-05
3.46867e-06
7.99346e-05
3.03628e-06
8.0137e-05
2.65392e-06
8.03134e-05
2.3194e-06
8.04719e-05
2.02767e-06
8.06174e-05
1.77241e-06
8.07532e-05
1.54782e-06
8.08815e-05
1.34912e-06
8.10036e-05
1.17237e-06
8.11207e-05
1.0143e-06
8.12336e-05
8.72274e-07
8.13427e-05
7.44118e-07
8.14485e-05
6.28102e-07
8.15515e-05
5.22846e-07
8.16519e-05
4.27283e-07
8.17502e-05
3.40613e-07
8.18468e-05
2.62266e-07
8.19423e-05
1.91876e-07
8.20374e-05
1.29233e-07
8.21331e-05
7.42422e-08
8.22309e-05
2.68406e-08
8.23328e-05
-1.30952e-08
8.24412e-05
-4.59367e-08
8.25596e-05
-7.24987e-08
8.26924e-05
-9.47087e-08
8.28449e-05
-1.15463e-07
-1.40943e-07
8.30221e-05
7.80328e-05
1.2929e-06
7.87837e-05
3.2485e-06
7.95151e-05
4.02899e-06
8.013e-05
4.12067e-06
8.06222e-05
3.91271e-06
8.10053e-05
3.55941e-06
8.13084e-05
3.1656e-06
8.15565e-05
2.78819e-06
8.17665e-05
2.44385e-06
8.19502e-05
2.13573e-06
8.21153e-05
1.86262e-06
8.22667e-05
1.62094e-06
8.24079e-05
1.40661e-06
8.25412e-05
1.21592e-06
8.26679e-05
1.04561e-06
8.27893e-05
8.92875e-07
8.29062e-05
7.55364e-07
8.30193e-05
6.31108e-07
8.31289e-05
5.18488e-07
8.32355e-05
4.16187e-07
8.33397e-05
3.23148e-07
8.34417e-05
2.38543e-07
8.35423e-05
1.6173e-07
8.36419e-05
9.22166e-08
8.37416e-05
2.96069e-08
8.38422e-05
-2.6435e-08
8.39454e-05
-7.63058e-08
8.40528e-05
-1.20533e-07
8.41669e-05
-1.59984e-07
8.42904e-05
-1.96026e-07
8.44267e-05
-2.31006e-07
8.45794e-05
-2.68187e-07
-3.12897e-07
8.47514e-05
8.01544e-05
1.01678e-06
8.07584e-05
2.64454e-06
8.13881e-05
3.39924e-06
8.19421e-05
3.56675e-06
8.24038e-05
3.45092e-06
8.27771e-05
3.18613e-06
8.30804e-05
2.86237e-06
8.3333e-05
2.53553e-06
8.35495e-05
2.22742e-06
8.37399e-05
1.9453e-06
8.39115e-05
1.69102e-06
8.40691e-05
1.46334e-06
8.4216e-05
1.25973e-06
8.43544e-05
1.07747e-06
8.4486e-05
9.13984e-07
8.4612e-05
7.66909e-07
8.47332e-05
6.34181e-07
8.48503e-05
5.14023e-07
8.49638e-05
4.04935e-07
8.50744e-05
3.05659e-07
8.51824e-05
2.15153e-07
8.52883e-05
1.32558e-07
8.53929e-05
5.71614e-08
8.54968e-05
-1.16458e-08
8.56008e-05
-7.44132e-08
8.5706e-05
-1.31692e-07
8.58139e-05
-1.84128e-07
8.59259e-05
-2.32553e-07
8.6044e-05
-2.78147e-07
8.61706e-05
-3.22561e-07
8.63078e-05
-3.68217e-07
8.64579e-05
-4.1827e-07
-4.77061e-07
8.6622e-05
8.2369e-05
8.08255e-07
8.28571e-05
2.15643e-06
8.33988e-05
2.85754e-06
8.38968e-05
3.06876e-06
8.43281e-05
3.01964e-06
8.46894e-05
2.82476e-06
8.49912e-05
2.56059e-06
8.52475e-05
2.27919e-06
8.547e-05
2.00501e-06
8.56671e-05
1.74815e-06
8.58454e-05
1.51272e-06
8.60094e-05
1.29935e-06
8.61623e-05
1.10686e-06
8.63063e-05
9.3346e-07
8.64431e-05
7.77179e-07
8.65739e-05
6.36097e-07
8.66996e-05
5.08436e-07
8.68211e-05
3.9261e-07
8.69388e-05
2.87235e-07
8.70533e-05
1.91114e-07
8.71652e-05
1.03222e-07
8.72751e-05
2.26722e-08
8.73836e-05
-5.131e-08
8.74914e-05
-1.19424e-07
8.75993e-05
-1.82349e-07
8.77084e-05
-2.40798e-07
8.78199e-05
-2.95597e-07
8.79351e-05
-3.47764e-07
8.80556e-05
-3.98631e-07
8.81829e-05
-4.49921e-07
8.83186e-05
-5.03925e-07
8.84638e-05
-5.63458e-07
-6.3191e-07
8.86187e-05
8.46686e-05
6.47386e-07
8.50659e-05
1.7592e-06
8.55322e-05
2.3912e-06
8.59796e-05
2.62134e-06
8.63812e-05
2.61806e-06
8.6729e-05
2.47693e-06
8.70273e-05
2.2623e-06
8.72856e-05
2.02092e-06
8.75128e-05
1.77786e-06
8.77159e-05
1.54497e-06
8.79007e-05
1.32796e-06
8.80711e-05
1.1289e-06
8.82302e-05
9.47755e-07
8.83802e-05
7.83509e-07
8.85226e-05
6.34771e-07
8.86587e-05
5.00015e-07
8.87894e-05
3.77733e-07
8.89155e-05
2.66519e-07
8.90376e-05
1.651e-07
8.91564e-05
7.23393e-08
8.92724e-05
-1.27741e-08
8.93862e-05
-9.11398e-08
8.94985e-05
-1.63577e-07
8.96099e-05
-2.3086e-07
8.97213e-05
-2.93761e-07
8.98336e-05
-3.531e-07
8.99478e-05
-4.0981e-07
9.00651e-05
-4.64994e-07
9.01864e-05
-5.20011e-07
9.0313e-05
-5.76513e-07
9.04456e-05
-6.3653e-07
9.05846e-05
-7.02421e-07
-7.76717e-07
9.07294e-05
8.70489e-05
5.20606e-07
8.7375e-05
1.4331e-06
8.77774e-05
1.98883e-06
8.81795e-05
2.2193e-06
8.85526e-05
2.24493e-06
8.88859e-05
2.1436e-06
8.91792e-05
1.96898e-06
8.94382e-05
1.76194e-06
8.96693e-05
1.54679e-06
8.9878e-05
1.33622e-06
9.00691e-05
1.13693e-06
9.0246e-05
9.52011e-07
9.04114e-05
7.82307e-07
9.05674e-05
6.27476e-07
9.07156e-05
4.86604e-07
9.08571e-05
3.58515e-07
9.09929e-05
2.41947e-07
9.11237e-05
1.3566e-07
9.12504e-05
3.84859e-08
9.13734e-05
-5.06534e-08
9.14933e-05
-1.32743e-07
9.16109e-05
-2.08688e-07
9.17266e-05
-2.7934e-07
9.18413e-05
-3.45517e-07
9.19556e-05
-4.08051e-07
9.20703e-05
-4.67818e-07
9.21863e-05
-5.25791e-07
9.23044e-05
-5.8308e-07
9.24253e-05
-6.40977e-07
9.25498e-05
-7.00974e-07
9.2678e-05
-7.64782e-07
9.28099e-05
-8.34286e-07
-9.11298e-07
9.29445e-05
8.95076e-05
4.18592e-07
8.97781e-05
1.16257e-06
9.01267e-05
1.64026e-06
9.04885e-05
1.85748e-06
9.0835e-05
1.89837e-06
9.11537e-05
1.82497e-06
9.1441e-05
1.68163e-06
9.16996e-05
1.50337e-06
9.19336e-05
1.31278e-06
9.21472e-05
1.12262e-06
9.2344e-05
9.40095e-07
9.25271e-05
7.68941e-07
9.26988e-05
6.10638e-07
9.28609e-05
4.65367e-07
9.30149e-05
3.32614e-07
9.31619e-05
2.11498e-07
9.33029e-05
1.00972e-07
9.34386e-05
-5.8575e-11
9.35697e-05
-9.26634e-08
9.36969e-05
-1.77863e-07
9.38208e-05
-2.56615e-07
9.39419e-05
-3.29821e-07
9.40609e-05
-3.98343e-07
9.41784e-05
-4.63024e-07
9.42951e-05
-5.24715e-07
9.44116e-05
-5.84308e-07
9.45286e-05
-6.42761e-07
9.46466e-05
-7.01131e-07
9.47662e-05
-7.60587e-07
9.48877e-05
-8.22413e-07
9.50109e-05
-8.8799e-07
9.51353e-05
-9.58753e-07
-1.03593e-06
9.526e-05
9.20436e-05
3.34838e-07
9.22707e-05
9.35446e-07
9.25745e-05
1.3365e-06
9.29011e-05
1.5309e-06
9.32233e-05
1.57616e-06
9.35275e-05
1.52073e-06
9.38083e-05
1.40084e-06
9.40657e-05
1.24599e-06
9.43019e-05
1.07652e-06
9.45199e-05
9.04686e-07
9.47222e-05
7.37766e-07
9.49113e-05
5.79831e-07
9.50892e-05
4.32771e-07
9.52574e-05
2.97142e-07
9.54173e-05
1.72732e-07
9.55699e-05
5.88948e-08
9.57161e-05
-4.52431e-08
9.58567e-05
-1.40649e-07
9.59923e-05
-2.28309e-07
9.61237e-05
-3.09188e-07
9.62513e-05
-3.84214e-07
9.63757e-05
-4.54275e-07
9.64976e-05
-5.20228e-07
9.66175e-05
-5.82915e-07
9.6736e-05
-6.4318e-07
9.68536e-05
-7.01891e-07
9.69707e-05
-7.59956e-07
9.7088e-05
-8.18335e-07
9.72054e-05
-8.78045e-07
9.73231e-05
-9.40146e-07
9.74409e-05
-1.0057e-06
9.75579e-05
-1.07577e-06
-1.15111e-06
9.76731e-05
9.46573e-05
2.64724e-07
9.48505e-05
7.42193e-07
9.51173e-05
1.06973e-06
9.54134e-05
1.23475e-06
9.57138e-05
1.27582e-06
9.60045e-05
1.23005e-06
9.62786e-05
1.12668e-06
9.65344e-05
9.90235e-07
9.67724e-05
8.38501e-07
9.69942e-05
6.82836e-07
9.72017e-05
5.3026e-07
9.73967e-05
3.84894e-07
9.75806e-05
2.48832e-07
9.77549e-05
1.22863e-07
9.79207e-05
6.97927e-09
9.80788e-05
-9.92933e-08
9.82303e-05
-1.96694e-07
9.83757e-05
-2.86089e-07
9.85158e-05
-3.68395e-07
9.86512e-05
-4.44528e-07
9.87823e-05
-5.15383e-07
9.89099e-05
-5.81825e-07
9.90343e-05
-6.44694e-07
9.91562e-05
-7.0481e-07
9.9276e-05
-7.62987e-07
9.93942e-05
-8.20043e-07
9.9511e-05
-8.76808e-07
9.96268e-05
-9.34125e-07
9.97416e-05
-9.92848e-07
9.98553e-05
-1.05382e-06
9.99674e-05
-1.11782e-06
0.000100077
-1.18558e-06
-1.25753e-06
0.000100184
9.73493e-05
2.04897e-07
9.75162e-05
5.75327e-07
9.77528e-05
8.33167e-07
9.8023e-05
9.64482e-07
9.83042e-05
9.94684e-07
9.85825e-05
9.51701e-07
9.88504e-05
8.58849e-07
9.91044e-05
7.36198e-07
9.93439e-05
5.98963e-07
9.95695e-05
4.57314e-07
9.9782e-05
3.17753e-07
9.99826e-05
1.84228e-07
0.000100173
5.88543e-08
0.000100353
-5.74824e-08
0.000100525
-1.64674e-07
0.000100688
-2.63092e-07
0.000100845
-3.53383e-07
0.000100995
-4.36347e-07
0.00010114
-5.12842e-07
0.000101279
-5.83745e-07
0.000101414
-6.49918e-07
0.000101544
-7.12198e-07
0.000101671
-7.71397e-07
0.000101794
-8.28298e-07
0.000101915
-8.83668e-07
0.000102033
-9.38257e-07
0.000102149
-9.92803e-07
0.000102263
-1.04802e-06
0.000102375
-1.10461e-06
0.000102484
-1.16321e-06
0.000102591
-1.22437e-06
0.000102694
-1.28856e-06
-1.35596e-06
0.000102792
0.000100121
1.52863e-07
0.000100268
4.28921e-07
0.00010048
6.20935e-07
0.000100728
7.15784e-07
0.000100993
7.29938e-07
0.000101261
6.84096e-07
0.000101523
5.96588e-07
0.000101776
4.83597e-07
0.000102017
3.57833e-07
0.000102246
2.2812e-07
0.000102463
1.00251e-07
0.00010267
-2.21825e-08
0.000102866
-1.372e-07
0.000103052
-2.43941e-07
0.00010323
-3.42277e-07
0.000103399
-4.32536e-07
0.000103561
-5.15326e-07
0.000103716
-5.91401e-07
0.000103865
-6.61587e-07
0.000104008
-7.26727e-07
0.000104146
-7.87655e-07
0.000104279
-8.45175e-07
0.000104408
-9.00064e-07
0.000104532
-9.53059e-07
0.000104654
-1.00487e-06
0.000104771
-1.05617e-06
0.000104886
-1.10759e-06
0.000104998
-1.15974e-06
0.000105106
-1.21315e-06
0.000105212
-1.2683e-06
0.000105313
-1.32554e-06
0.000105409
-1.38515e-06
-1.44713e-06
0.000105501
0.000102974
1.06716e-07
0.000103105
2.9822e-07
0.000103298
4.27948e-07
0.000103529
4.84594e-07
0.00010378
4.78692e-07
0.000104039
4.25368e-07
0.000104297
3.38802e-07
0.000104549
2.3182e-07
0.000104792
1.14772e-07
0.000105025
-4.94408e-09
0.000105247
-1.22378e-07
0.00010546
-2.34441e-07
0.000105662
-3.3942e-07
0.000105855
-4.36591e-07
0.000106038
-5.25886e-07
0.000106213
-6.07658e-07
0.00010638
-6.82515e-07
0.00010654
-7.51205e-07
0.000106693
-8.14535e-07
0.00010684
-8.7333e-07
0.000106981
-9.28396e-07
0.000107116
-9.8051e-07
0.000107246
-1.0304e-06
0.000107372
-1.07877e-06
0.000107493
-1.12625e-06
0.000107611
-1.17344e-06
0.000107724
-1.22088e-06
0.000107833
-1.26905e-06
0.000107938
-1.31836e-06
0.000108039
-1.36914e-06
0.000108135
-1.42161e-06
0.000108226
-1.47587e-06
-1.53184e-06
0.000108311
0.00010591
6.4954e-08
0.000106029
1.79339e-07
0.000106208
2.49743e-07
0.000106425
2.67055e-07
0.000106666
2.37959e-07
0.000106918
1.73354e-07
0.000107173
8.40032e-08
0.000107425
-2.01564e-08
0.00010767
-1.30952e-07
0.000107908
-2.4243e-07
0.000108136
-3.50583e-07
0.000108355
-4.52928e-07
0.000108563
-5.48135e-07
0.000108762
-6.35713e-07
0.000108952
-7.15735e-07
0.000109133
-7.88639e-07
0.000109306
-8.5508e-07
0.00010947
-9.15827e-07
0.000109628
-9.71696e-07
0.000109778
-1.0235e-06
0.000109921
-1.07204e-06
0.000110059
-1.11804e-06
0.000110191
-1.16222e-06
0.000110317
-1.20521e-06
0.000110438
-1.24758e-06
0.000110555
-1.28985e-06
0.000110666
-1.33248e-06
0.000110773
-1.37584e-06
0.000110875
-1.42023e-06
0.000110972
-1.46587e-06
0.000111063
-1.51285e-06
0.000111148
-1.56117e-06
-1.61067e-06
0.000111227
0.000108932
2.6351e-08
0.000109042
6.90157e-08
0.00010921
8.23456e-08
0.000109417
5.94796e-08
0.000109651
4.66896e-09
0.000109898
-7.43372e-08
0.000110152
-1.69591e-07
0.000110405
-2.73636e-07
0.000110655
-3.80296e-07
0.000110897
-4.85052e-07
0.000111132
-5.84899e-07
0.000111357
-6.78051e-07
0.000111572
-7.63655e-07
0.000111778
-8.41537e-07
0.000111974
-9.11986e-07
0.000112161
-9.75579e-07
0.000112339
-1.03306e-06
0.000112509
-1.08525e-06
0.00011267
-1.133e-06
0.000112824
-1.17713e-06
0.00011297
-1.21842e-06
0.00011311
-1.25759e-06
0.000113243
-1.2953e-06
0.00011337
-1.33214e-06
0.000113491
-1.36863e-06
0.000113606
-1.40522e-06
0.000113716
-1.44227e-06
0.00011382
-1.48007e-06
0.000113919
-1.51883e-06
0.000114011
-1.55867e-06
0.000114098
-1.59961e-06
0.000114179
-1.64158e-06
-1.68437e-06
0.000114252
0.000112041
-1.01392e-08
0.000112146
-3.55846e-08
0.000112306
-7.79017e-08
0.000112507
-1.41773e-07
0.000112736
-2.24419e-07
0.000112982
-3.20466e-07
0.000113237
-4.24251e-07
0.000113494
-5.30478e-07
0.000113748
-6.34797e-07
0.000113997
-7.34096e-07
0.000114239
-8.26414e-07
0.000114472
-9.10736e-07
0.000114695
-9.86763e-07
0.000114908
-1.05472e-06
0.000115111
-1.11518e-06
0.000115304
-1.1689e-06
0.000115488
-1.21677e-06
0.000115663
-1.2597e-06
0.000115828
-1.29858e-06
0.000115985
-1.33425e-06
0.000116134
-1.36751e-06
0.000116276
-1.39905e-06
0.00011641
-1.42951e-06
0.000116537
-1.45943e-06
0.000116658
-1.48927e-06
0.000116772
-1.51941e-06
0.00011688
-1.55014e-06
0.000116982
-1.58169e-06
0.000117077
-1.61419e-06
0.000117166
-1.64767e-06
0.000117248
-1.6821e-06
0.000117324
-1.71735e-06
-1.75319e-06
0.000117393
0.00011524
-4.5448e-08
0.000115341
-1.37023e-07
0.000115498
-2.34433e-07
0.000115696
-3.40284e-07
0.000115924
-4.52653e-07
0.000116172
-5.67946e-07
0.00011643
-6.82411e-07
0.000116692
-7.92656e-07
0.000116954
-8.96034e-07
0.00011721
-9.90812e-07
0.00011746
-1.07611e-06
0.000117701
-1.15175e-06
0.000117932
-1.21806e-06
0.000118153
-1.27572e-06
0.000118364
-1.32565e-06
0.000118564
-1.36885e-06
0.000118753
-1.40637e-06
0.000118933
-1.43925e-06
0.000119103
-1.46845e-06
0.000119263
-1.49485e-06
0.000119415
-1.51925e-06
0.000119558
-1.54235e-06
0.000119694
-1.56475e-06
0.000119821
-1.58696e-06
0.000119941
-1.60938e-06
0.000120054
-1.63235e-06
0.00012016
-1.65609e-06
0.000120259
-1.68076e-06
0.000120351
-1.70643e-06
0.000120437
-1.73309e-06
0.000120515
-1.76066e-06
0.000120587
-1.789e-06
-1.81785e-06
0.000120652
0.000118531
-8.04613e-08
0.000118632
-2.37784e-07
0.000118788
-3.90735e-07
0.000118988
-5.39927e-07
0.000119219
-6.83904e-07
0.000119471
-8.20443e-07
0.000119736
-9.47422e-07
0.000120007
-1.06317e-06
0.000120277
-1.16665e-06
0.000120544
-1.25751e-06
0.000120804
-1.33598e-06
0.000121055
-1.40279e-06
0.000121296
-1.45895e-06
0.000121526
-1.50569e-06
0.000121745
-1.54432e-06
0.000121952
-1.57613e-06
0.000122148
-1.60239e-06
0.000122333
-1.62427e-06
0.000122507
-1.64284e-06
0.000122672
-1.65903e-06
0.000122826
-1.67366e-06
0.000122971
-1.68742e-06
0.000123107
-1.70091e-06
0.000123235
-1.71459e-06
0.000123354
-1.72883e-06
0.000123466
-1.7439e-06
0.00012357
-1.75999e-06
0.000123666
-1.77719e-06
0.000123755
-1.79553e-06
0.000123837
-1.81494e-06
0.000123912
-1.83532e-06
0.000123979
-1.85648e-06
-1.87814e-06
0.000124039
0.000121917
-1.16049e-07
0.000122019
-3.40309e-07
0.000122179
-5.50256e-07
0.000122384
-7.44543e-07
0.000122622
-9.21966e-07
0.000122883
-1.08145e-06
0.000123158
-1.22234e-06
0.000123439
-1.34462e-06
0.000123721
-1.44882e-06
0.000124
-1.53598e-06
0.000124271
-1.60751e-06
0.000124533
-1.66508e-06
0.000124785
-1.71046e-06
0.000125025
-1.74547e-06
0.000125252
-1.77187e-06
0.000125467
-1.7913e-06
0.00012567
-1.80527e-06
0.000125861
-1.81511e-06
0.00012604
-1.82201e-06
0.000126208
-1.82697e-06
0.000126365
-1.83084e-06
0.000126512
-1.83434e-06
0.000126649
-1.83802e-06
0.000126777
-1.84234e-06
0.000126896
-1.84762e-06
0.000127006
-1.8541e-06
0.000127108
-1.8619e-06
0.000127202
-1.87109e-06
0.000127288
-1.88164e-06
0.000127367
-1.89346e-06
0.000127438
-1.90641e-06
0.000127502
-1.92031e-06
-1.93487e-06
0.000127558
0.000125401
-1.53221e-07
0.000125508
-4.47447e-07
0.000125675
-7.17217e-07
0.000125889
-9.59172e-07
0.00012614
-1.17225e-06
0.000126415
-1.35641e-06
0.000126705
-1.5124e-06
0.000127002
-1.64182e-06
0.0001273
-1.74683e-06
0.000127594
-1.82994e-06
0.00012788
-1.89383e-06
0.000128156
-1.94118e-06
0.00012842
-1.97464e-06
0.000128672
-1.99667e-06
0.000128909
-2.00953e-06
0.000129133
-2.01524e-06
0.000129344
-2.0156e-06
0.000129541
-2.01212e-06
0.000129725
-2.00613e-06
0.000129896
-1.9987e-06
0.000130056
-1.99073e-06
0.000130205
-1.98293e-06
0.000130343
-1.97587e-06
0.00013047
-1.96997e-06
0.000130588
-1.96551e-06
0.000130697
-1.96268e-06
0.000130797
-1.96158e-06
0.000130888
-1.96222e-06
0.000130971
-1.96453e-06
0.000131045
-1.96838e-06
0.000131113
-1.97361e-06
0.000131172
-1.98e-06
-1.98723e-06
0.000131225
0.000128985
-1.92939e-07
0.000129099
-5.61959e-07
0.000129278
-8.95489e-07
0.000129507
-1.1881e-06
0.000129773
-1.439e-06
0.000130066
-1.64926e-06
0.000130375
-1.82114e-06
0.000130691
-1.95795e-06
0.000131008
-2.06355e-06
0.00013132
-2.142e-06
0.000131623
-2.19728e-06
0.000131915
-2.23323e-06
0.000132194
-2.2534e-06
0.000132458
-2.26096e-06
0.000132708
-2.25875e-06
0.000132942
-2.24922e-06
0.00013316
-2.23445e-06
0.000133364
-2.2162e-06
0.000133554
-2.19592e-06
0.00013373
-2.1748e-06
0.000133893
-2.15377e-06
0.000134044
-2.13356e-06
0.000134183
-2.11473e-06
0.000134311
-2.09767e-06
0.000134428
-2.08264e-06
0.000134535
-2.06979e-06
0.000134632
-2.05916e-06
0.000134721
-2.05072e-06
0.000134801
-2.04438e-06
0.000134872
-2.03999e-06
0.000134936
-2.03733e-06
0.000134992
-2.03622e-06
-2.03631e-06
0.000135041
0.000132673
-2.369e-07
0.0001328
-6.88487e-07
0.000132996
-1.09206e-06
0.000133248
-1.43984e-06
0.00013354
-1.73142e-06
0.00013386
-1.96919e-06
0.000134196
-2.15712e-06
0.000134539
-2.30055e-06
0.000134881
-2.40533e-06
0.000135216
-2.47727e-06
0.00013554
-2.52189e-06
0.000135851
-2.54426e-06
0.000136147
-2.54893e-06
0.000136426
-2.53988e-06
0.000136688
-2.52053e-06
0.000136932
-2.49379e-06
0.00013716
-2.46206e-06
0.000137371
-2.42733e-06
0.000137566
-2.39121e-06
0.000137746
-2.35495e-06
0.000137912
-2.31956e-06
0.000138064
-2.28576e-06
0.000138204
-2.25409e-06
0.000138331
-2.22493e-06
0.000138447
-2.19849e-06
0.000138552
-2.17488e-06
0.000138647
-2.15409e-06
0.000138732
-2.13605e-06
0.000138809
-2.12062e-06
0.000138876
-2.1076e-06
0.000138936
-2.09675e-06
0.000138987
-2.08782e-06
-2.08043e-06
0.000139031
0.000136467
-2.85945e-07
0.000136609
-8.29914e-07
0.000136827
-1.31068e-06
0.000137106
-1.71827e-06
0.000137428
-2.05344e-06
0.000137779
-2.32028e-06
0.000138147
-2.52472e-06
0.00013852
-2.6743e-06
0.000138892
-2.77704e-06
0.000139255
-2.84069e-06
0.000139606
-2.87244e-06
0.00013994
-2.87878e-06
0.000140257
-2.86537e-06
0.000140554
-2.8371e-06
0.000140832
-2.79806e-06
0.00014109
-2.75167e-06
0.000141328
-2.70069e-06
0.000141548
-2.64737e-06
0.00014175
-2.59347e-06
0.000141936
-2.54033e-06
0.000142105
-2.489e-06
0.00014226
-2.44021e-06
0.0001424
-2.39448e-06
0.000142527
-2.35214e-06
0.000142642
-2.31336e-06
0.000142746
-2.2782e-06
0.000142838
-2.24659e-06
0.00014292
-2.21843e-06
0.000142993
-2.19351e-06
0.000143057
-2.17162e-06
0.000143113
-2.15247e-06
0.000143161
-2.13582e-06
-2.12125e-06
0.000143202
0.000140375
-3.44727e-07
0.000140542
-9.97469e-07
0.000140799
-1.56723e-06
0.000141122
-2.04133e-06
0.000141491
-2.42268e-06
0.000141889
-2.71813e-06
0.000142301
-2.93662e-06
0.000142715
-3.08885e-06
0.000143124
-3.18561e-06
0.00014352
-3.23693e-06
0.000143899
-3.25187e-06
0.000144259
-3.23843e-06
0.000144597
-3.20346e-06
0.000144913
-3.15274e-06
0.000145206
-3.09106e-06
0.000145477
-3.02232e-06
0.000145726
-2.94966e-06
0.000145954
-2.87554e-06
0.000146162
-2.80186e-06
0.000146352
-2.73007e-06
0.000146524
-2.66121e-06
0.00014668
-2.59602e-06
0.00014682
-2.53499e-06
0.000146947
-2.47839e-06
0.00014706
-2.42634e-06
0.00014716
-2.37882e-06
0.000147249
-2.33573e-06
0.000147328
-2.29687e-06
0.000147396
-2.262e-06
0.000147455
-2.23083e-06
0.000147506
-2.20302e-06
0.000147548
-2.17825e-06
-2.15603e-06
0.000147583
0.000144391
-4.1108e-07
0.000144584
-1.19004e-06
0.000144877
-1.86062e-06
0.000145245
-2.40931e-06
0.000145665
-2.84249e-06
0.000146116
-3.16959e-06
0.000146582
-3.40261e-06
0.000147049
-3.55586e-06
0.000147507
-3.64346e-06
0.000147948
-3.67824e-06
0.000148368
-3.67161e-06
0.000148763
-3.63344e-06
0.000149132
-3.57203e-06
0.000149473
-3.49424e-06
0.000149788
-3.40564e-06
0.000150076
-3.31068e-06
0.000150339
-3.21287e-06
0.000150579
-3.11489e-06
0.000150796
-3.01878e-06
0.000150992
-2.92602e-06
0.000151168
-2.83764e-06
0.000151326
-2.75435e-06
0.000151468
-2.67655e-06
0.000151594
-2.60445e-06
0.000151706
-2.53808e-06
0.000151804
-2.47734e-06
0.00015189
-2.42204e-06
0.000151966
-2.37193e-06
0.00015203
-2.32671e-06
0.000152085
-2.28603e-06
0.000152132
-2.24952e-06
0.000152171
-2.21684e-06
-2.18744e-06
0.000152202
0.000148541
-5.04403e-07
0.000148796
-1.44429e-06
0.000149168
-2.23349e-06
0.00014962
-2.86054e-06
0.000150119
-3.34188e-06
0.000150643
-3.69349e-06
0.000151173
-3.933e-06
0.000151697
-4.07963e-06
0.000152205
-4.15114e-06
0.00015269
-4.16314e-06
0.000153147
-4.12931e-06
0.000153575
-4.06128e-06
0.000153972
-3.96872e-06
0.000154337
-3.85952e-06
0.000154672
-3.74001e-06
0.000154976
-3.61517e-06
0.000155252
-3.48887e-06
0.000155501
-3.36402e-06
0.000155725
-3.24275e-06
0.000155926
-3.12658e-06
0.000156105
-3.01653e-06
0.000156263
-2.91324e-06
0.000156404
-2.81702e-06
0.000156527
-2.72798e-06
0.000156635
-2.64604e-06
0.000156729
-2.571e-06
0.00015681
-2.50259e-06
0.000156878
-2.44045e-06
0.000156936
-2.3842e-06
0.000156983
-2.33343e-06
0.000157021
-2.28767e-06
0.000157051
-2.2465e-06
-2.20925e-06
0.000157073
0.000152785
-6.00162e-07
0.000153075
-1.73468e-06
0.00015351
-2.66775e-06
0.000154044
-3.39482e-06
0.000154641
-3.93896e-06
0.000155268
-4.32014e-06
0.000155898
-4.56354e-06
0.000156515
-4.69619e-06
0.000157105
-4.74154e-06
0.000157661
-4.71956e-06
0.000158179
-4.64726e-06
0.000158657
-4.53872e-06
0.000159093
-4.40529e-06
0.00015949
-4.25606e-06
0.000159848
-4.09813e-06
0.00016017
-3.93699e-06
0.000160458
-3.77674e-06
0.000160714
-3.62042e-06
0.000160942
-3.47016e-06
0.000161142
-3.32742e-06
0.000161319
-3.19308e-06
0.000161473
-3.06762e-06
0.000161608
-2.95122e-06
0.000161723
-2.84379e-06
0.000161822
-2.74512e-06
0.000161906
-2.65484e-06
0.000161976
-2.57257e-06
0.000162034
-2.49785e-06
0.00016208
-2.43022e-06
0.000162115
-2.36921e-06
0.000162142
-2.31435e-06
0.000162161
-2.26521e-06
-2.22101e-06
0.000162173
0.000157246
-7.95003e-07
0.000157697
-2.18583e-06
0.00015829
-3.26071e-06
0.000158958
-4.06266e-06
0.000159665
-4.64586e-06
0.000160383
-5.03768e-06
0.00016109
-5.27066e-06
0.000161772
-5.37804e-06
0.000162418
-5.38745e-06
0.000163021
-5.32254e-06
0.000163577
-5.20348e-06
0.000164085
-5.04678e-06
0.000164545
-4.8656e-06
0.000164959
-4.6703e-06
0.00016533
-4.46882e-06
0.00016566
-4.26713e-06
0.000165953
-4.06956e-06
0.000166212
-3.87919e-06
0.00016644
-3.69807e-06
0.00016664
-3.52747e-06
0.000166815
-3.36808e-06
0.000166967
-3.22012e-06
0.0001671
-3.08351e-06
0.000167214
-2.95794e-06
0.000167312
-2.84295e-06
0.000167395
-2.73799e-06
0.000167465
-2.64248e-06
0.000167523
-2.55583e-06
0.00016757
-2.47749e-06
0.000167608
-2.40693e-06
0.000167637
-2.34368e-06
0.000167659
-2.28727e-06
-2.23689e-06
0.000167675
0.000161693
-9.49088e-07
0.000162216
-2.7094e-06
0.000162957
-4.0018e-06
0.000163822
-4.92793e-06
0.000164735
-5.55875e-06
0.00016564
-5.94187e-06
0.000166506
-6.13723e-06
0.000167322
-6.19419e-06
0.000168083
-6.14819e-06
0.000168788
-6.0276e-06
0.00016944
-5.85504e-06
0.000170041
-5.64799e-06
0.000170595
-5.41988e-06
0.000171106
-5.18101e-06
0.000171576
-4.93911e-06
0.000172009
-4.69993e-06
0.000172407
-4.46761e-06
0.000172773
-4.24505e-06
0.000173109
-4.03415e-06
0.000173417
-3.83606e-06
0.000173701
-3.65132e-06
0.000173961
-3.48001e-06
0.000174199
-3.32191e-06
0.000174418
-3.17655e-06
0.000174618
-3.04331e-06
0.000174802
-2.92152e-06
0.00017497
-2.81046e-06
0.000175123
-2.70946e-06
0.000175264
-2.61797e-06
0.000175392
-2.53548e-06
0.00017551
-2.46186e-06
0.00017562
-2.39669e-06
-2.34029e-06
0.000175723
0.00016669
-1.48548e-06
0.000167549
-3.56818e-06
0.000168493
-4.94619e-06
0.000169515
-5.94967e-06
0.000170616
-6.65939e-06
0.000171775
-7.10158e-06
0.000172975
-7.33712e-06
0.000174193
-7.41201e-06
0.000175405
-7.36006e-06
0.000176589
-7.21214e-06
0.000177729
-6.99482e-06
0.000178811
-6.7299e-06
0.000179826
-6.43503e-06
0.000180769
-6.12417e-06
0.000181638
-5.80816e-06
0.000182434
-5.49515e-06