/*--------------------------------*- C++ -*----------------------------------*\
  =========                 |
  \\      /  F ield         | OpenFOAM: The Open Source CFD Toolbox
   \\    /   O peration     | Website:  https://openfoam.org
    \\  /    A nd           | Version:  10
     \\/     M anipulation  |
\*---------------------------------------------------------------------------*/
FoamFile
{
    format      ascii;
    class       volVectorField;
    location    "0.14";
    object      U;
}
// * * * * * * * * * * * * * * * * * * * * * * * * * * * * * * * * * * * * * //

dimensions      [0 1 -1 0 0 0 0];

internalField   nonuniform List<vector> 
6820
(
(5.57355 0.459157 0)
(3.88295 0.245932 0)
(2.58914 0.00881667 0)
(1.95723 -0.064167 0)
(1.73195 -0.059474 0)
(1.62095 -0.0340107 0)
(1.55619 -0.0153512 0)
(1.51052 -0.00527894 0)
(1.47226 -0.000681214 0)
(1.43929 0.000829908 0)
(1.41104 0.000893763 0)
(1.38705 0.000395276 0)
(1.36682 -0.000256835 0)
(1.34984 -0.000881887 0)
(1.33564 -0.00140989 0)
(1.32379 -0.00182446 0)
(1.31395 -0.00213268 0)
(1.30585 -0.00234937 0)
(1.29924 -0.00248938 0)
(1.29393 -0.00256487 0)
(1.28974 -0.00258358 0)
(1.28652 -0.00254937 0)
(1.28411 -0.00246842 0)
(1.28233 -0.00234528 0)
(1.28099 -0.00217291 0)
(1.27985 -0.00192693 0)
(1.27858 -0.00160102 0)
(1.27701 -0.00112831 0)
(1.27416 -0.000586861 0)
(1.27084 0.000598021 0)
(1.26132 0.00115432 0)
(1.25823 0.00874841 0)
(1.21001 -0.011751 0)
(7.6698 0.863921 0)
(7.71722 0.890828 0)
(7.00005 0.598436 0)
(6.19765 0.347482 0)
(5.58461 0.179509 0)
(5.14043 0.0929589 0)
(4.82411 0.0525455 0)
(4.59622 0.0340115 0)
(4.42575 0.0254898 0)
(4.29344 0.0211218 0)
(4.18757 0.0184363 0)
(4.10082 0.0164931 0)
(4.02851 0.0149184 0)
(3.96749 0.0135485 0)
(3.91557 0.0123008 0)
(3.87116 0.0111323 0)
(3.83308 0.0100218 0)
(3.8004 0.00895982 0)
(3.7724 0.00794378 0)
(3.74851 0.00697667 0)
(3.72823 0.00606416 0)
(3.71115 0.0052139 0)
(3.69689 0.00444814 0)
(3.68512 0.00381074 0)
(3.67546 0.00334179 0)
(3.66758 0.00307911 0)
(3.66109 0.00305936 0)
(3.65558 0.00346379 0)
(3.6504 0.00431201 0)
(3.64503 0.00646935 0)
(3.63799 0.00871528 0)
(3.63021 0.0162686 0)
(3.61811 0.020726 0)
(7.56352 0.520339 0)
(8.22514 0.663601 0)
(8.46477 0.576169 0)
(8.364 0.458531 0)
(8.12857 0.344349 0)
(7.85239 0.259358 0)
(7.58324 0.199586 0)
(7.34096 0.156641 0)
(7.12884 0.12536 0)
(6.9449 0.102051 0)
(6.78588 0.0842201 0)
(6.64837 0.0702813 0)
(6.52927 0.059187 0)
(6.4259 0.0502208 0)
(6.33603 0.0428649 0)
(6.25775 0.036733 0)
(6.18949 0.031538 0)
(6.12994 0.0270682 0)
(6.07799 0.0231694 0)
(6.0327 0.0197305 0)
(5.99329 0.016674 0)
(5.95908 0.0139515 0)
(5.92945 0.0115416 0)
(5.90389 0.00944746 0)
(5.88189 0.00769644 0)
(5.863 0.00635241 0)
(5.84672 0.00551605 0)
(5.83253 0.00538208 0)
(5.81982 0.00613248 0)
(5.80802 0.00837375 0)
(5.79626 0.0119934 0)
(5.78346 0.0195677 0)
(5.76939 0.0282615 0)
(7.43336 0.341123 0)
(7.88461 0.514552 0)
(8.24322 0.489642 0)
(8.44169 0.429765 0)
(8.5413 0.358438 0)
(8.57142 0.297725 0)
(8.55665 0.251477 0)
(8.51663 0.215825 0)
(8.46244 0.187763 0)
(8.40051 0.165028 0)
(8.33503 0.14603 0)
(8.26874 0.129805 0)
(8.20341 0.115727 0)
(8.14035 0.103353 0)
(8.08035 0.0923873 0)
(8.0239 0.0826075 0)
(7.97121 0.073834 0)
(7.92239 0.0659189 0)
(7.87742 0.0587421 0)
(7.83621 0.0522091 0)
(7.79863 0.0462488 0)
(7.76452 0.0408136 0)
(7.73367 0.0358831 0)
(7.70589 0.0314674 0)
(7.68094 0.0276025 0)
(7.65859 0.0243583 0)
(7.63854 0.0218512 0)
(7.62051 0.0203007 0)
(7.60415 0.0199714 0)
(7.58914 0.0214257 0)
(7.57513 0.0250267 0)
(7.56153 0.0324199 0)
(7.54968 0.0442171 0)
(7.39681 0.251078 0)
(7.67992 0.421156 0)
(7.92322 0.404107 0)
(8.07701 0.354109 0)
(8.18727 0.299328 0)
(8.26927 0.253561 0)
(8.32981 0.219494 0)
(8.37627 0.193458 0)
(8.41263 0.17271 0)
(8.44099 0.155598 0)
(8.46293 0.141028 0)
(8.47969 0.128329 0)
(8.49229 0.117088 0)
(8.50131 0.107008 0)
(8.50737 0.0978687 0)
(8.51107 0.0894986 0)
(8.51292 0.0817699 0)
(8.51333 0.0745846 0)
(8.51268 0.0678695 0)
(8.51126 0.0615728 0)
(8.50931 0.055662 0)
(8.50704 0.0501251 0)
(8.5046 0.0449726 0)
(8.50212 0.0402392 0)
(8.49969 0.0359874 0)
(8.49739 0.0323184 0)
(8.49526 0.0293829 0)
(8.49336 0.0274105 0)
(8.49173 0.0266946 0)
(8.49054 0.0277075 0)
(8.48996 0.0309418 0)
(8.4905 0.0374685 0)
(8.49337 0.047848 0)
(7.37402 0.180746 0)
(7.57405 0.336265 0)
(7.76067 0.342506 0)
(7.87502 0.313327 0)
(7.95107 0.274118 0)
(8.00624 0.235888 0)
(8.04745 0.20444 0)
(8.08136 0.179241 0)
(8.11139 0.158817 0)
(8.13872 0.142023 0)
(8.16391 0.127905 0)
(8.18726 0.115755 0)
(8.20896 0.105113 0)
(8.22925 0.0956683 0)
(8.24823 0.0871681 0)
(8.266 0.0794232 0)
(8.28261 0.0722945 0)
(8.29813 0.0656793 0)
(8.31262 0.0595027 0)
(8.32613 0.0537123 0)
(8.33874 0.0482768 0)
(8.35048 0.0431846 0)
(8.36143 0.0384465 0)
(8.37163 0.0340972 0)
(8.38116 0.0301976 0)
(8.39009 0.0268415 0)
(8.39853 0.0241626 0)
(8.40663 0.0223562 0)
(8.41459 0.0216682 0)
(8.4228 0.0224507 0)
(8.43171 0.0250647 0)
(8.44241 0.0301 0)
(8.45584 0.0376772 0)
(7.35904 0.132837 0)
(7.50324 0.273345 0)
(7.6555 0.295261 0)
(7.75536 0.278543 0)
(7.82128 0.248973 0)
(7.86802 0.21703 0)
(7.9012 0.189275 0)
(7.92657 0.166452 0)
(7.94782 0.147583 0)
(7.96658 0.131796 0)
(7.98371 0.118356 0)
(7.99973 0.106699 0)
(8.01492 0.0964248 0)
(8.02944 0.0872476 0)
(8.04338 0.0789596 0)
(8.0568 0.0714052 0)
(8.06975 0.0644642 0)
(8.08224 0.0580425 0)
(8.09428 0.0520686 0)
(8.10589 0.046491 0)
(8.11706 0.0412769 0)
(8.1278 0.0364122 0)
(8.13814 0.0319022 0)
(8.14809 0.0277731 0)
(8.1577 0.0240728 0)
(8.16702 0.0208759 0)
(8.17615 0.018286 0)
(8.18524 0.0164445 0)
(8.1945 0.015515 0)
(8.20431 0.0157078 0)
(8.21513 0.0171807 0)
(8.22789 0.0201586 0)
(8.24335 0.024281 0)
(7.34964 0.0991507 0)
(7.45335 0.220774 0)
(7.57628 0.250703 0)
(7.66481 0.244044 0)
(7.7264 0.224394 0)
(7.77188 0.200212 0)
(7.80506 0.177296 0)
(7.83023 0.157283 0)
(7.8508 0.139973 0)
(7.86846 0.125003 0)
(7.88414 0.111985 0)
(7.89849 0.100541 0)
(7.91188 0.0903722 0)
(7.92454 0.0812498 0)
(7.93663 0.0729951 0)
(7.94823 0.0654624 0)
(7.95943 0.058535 0)
(7.97027 0.0521216 0)
(7.98079 0.0461524 0)
(7.99101 0.040577 0)
(8.00096 0.0353622 0)
(8.01066 0.0304918 0)
(8.02014 0.025966 0)
(8.02943 0.0218026 0)
(8.03859 0.0180364 0)
(8.04768 0.0147212 0)
(8.05682 0.0119277 0)
(8.06615 0.00974528 0)
(8.0759 0.00826518 0)
(8.08641 0.00758093 0)
(8.09809 0.00770605 0)
(8.11166 0.00861862 0)
(8.12767 0.00984097 0)
(7.3438 0.0752044 0)
(7.41912 0.178849 0)
(7.5178 0.213312 0)
(7.59499 0.214265 0)
(7.65128 0.201728 0)
(7.69448 0.183051 0)
(7.72731 0.163633 0)
(7.75287 0.145821 0)
(7.77397 0.129977 0)
(7.79214 0.116015 0)
(7.80825 0.103716 0)
(7.82292 0.0928039 0)
(7.83651 0.0830376 0)
(7.8493 0.0742222 0)
(7.86143 0.0662005 0)
(7.87302 0.0588446 0)
(7.88418 0.0520532 0)
(7.89495 0.0457462 0)
(7.90538 0.0398614 0)
(7.91551 0.0343525 0)
(7.92538 0.0291876 0)
(7.93502 0.0243487 0)
(7.94448 0.0198314 0)
(7.95379 0.0156442 0)
(7.96303 0.0118077 0)
(7.97227 0.00835459 0)
(7.98163 0.0053232 0)
(7.99128 0.00275627 0)
(8.00142 0.000680405 0)
(8.01235 -0.000899928 0)
(8.02443 -0.00207029 0)
(8.03818 -0.00300122 0)
(8.05396 -0.00420285 0)
(7.34016 0.05797 0)
(7.39545 0.1452 0)
(7.47446 0.180761 0)
(7.54119 0.186693 0)
(7.59223 0.1795 0)
(7.63282 0.165676 0)
(7.66481 0.149884 0)
(7.6903 0.134592 0)
(7.71154 0.120474 0)
(7.72992 0.107662 0)
(7.74624 0.0961171 0)
(7.76109 0.0857052 0)
(7.77485 0.0762723 0)
(7.78776 0.067681 0)
(7.8 0.0598122 0)
(7.8117 0.0525629 0)
(7.82294 0.0458465 0)
(7.83378 0.0395912 0)
(7.84428 0.0337392 0)
(7.85449 0.0282455 0)
(7.86443 0.0230772 0)
(7.87416 0.0182128 0)
(7.88371 0.0136413 0)
(7.89315 0.0093607 0)
(7.90253 0.00537682 0)
(7.91197 0.00169876 0)
(7.92155 -0.0016643 0)
(7.93145 -0.00470983 0)
(7.94185 -0.00746105 0)
(7.953 -0.00998076 0)
(7.96517 -0.0124209 0)
(7.97875 -0.0150233 0)
(7.99394 -0.0182565 0)
(7.33787 0.0453269 0)
(7.37897 0.118139 0)
(7.44227 0.152768 0)
(7.49968 0.162066 0)
(7.54574 0.15898 0)
(7.58358 0.149067 0)
(7.61438 0.136266 0)
(7.6395 0.123035 0)
(7.66071 0.110327 0)
(7.67919 0.0984802 0)
(7.69568 0.0876069 0)
(7.7107 0.0776768 0)
(7.72461 0.068601 0)
(7.73767 0.0602807 0)
(7.75004 0.0526211 0)
(7.76184 0.0455349 0)
(7.77317 0.0389455 0)
(7.78409 0.0327881 0)
(7.79467 0.0270091 0)
(7.80495 0.0215652 0)
(7.81497 0.0164227 0)
(7.82478 0.0115568 0)
(7.83443 0.0069498 0)
(7.84398 0.0025898 0)
(7.8535 -0.00153193 0)
(7.86308 -0.00542536 0)
(7.87283 -0.00910596 0)
(7.88289 -0.012605 0)
(7.8934 -0.0159832 0)
(7.90459 -0.0193439 0)
(7.91663 -0.0228667 0)
(7.92978 -0.0268134 0)
(7.94412 -0.0315934 0)
(7.33642 0.03587 0)
(7.3674 0.0963161 0)
(7.41823 0.128682 0)
(7.46741 0.139851 0)
(7.50875 0.13962 0)
(7.54383 0.132719 0)
(7.57329 0.122474 0)
(7.59792 0.111189 0)
(7.61903 0.0999324 0)
(7.63759 0.0891558 0)
(7.65423 0.0790608 0)
(7.66942 0.0696968 0)
(7.6835 0.0610343 0)
(7.69671 0.0530167 0)
(7.70921 0.0455792 0)
(7.72113 0.0386561 0)
(7.73257 0.0321857 0)
(7.74358 0.0261127 0)
(7.75424 0.0203891 0)
(7.7646 0.0149736 0)
(7.77469 0.00983204 0)
(7.78458 0.00493577 0)
(7.79431 0.000260658 0)
(7.80395 -0.00421484 0)
(7.81356 -0.00851252 0)
(7.82322 -0.0126577 0)
(7.83304 -0.0166871 0)
(7.84312 -0.0206549 0)
(7.8536 -0.0246454 0)
(7.86463 -0.028783 0)
(7.87633 -0.0332549 0)
(7.88885 -0.038313 0)
(7.90219 -0.044296 0)
(7.33548 0.0286457 0)
(7.35918 0.0786053 0)
(7.40018 0.107952 0)
(7.44222 0.1199 0)
(7.47921 0.121623 0)
(7.51159 0.117048 0)
(7.53957 0.10893 0)
(7.56354 0.0993238 0)
(7.58441 0.0893322 0)
(7.60294 0.0794898 0)
(7.61968 0.0700759 0)
(7.63501 0.0612108 0)
(7.64926 0.0529192 0)
(7.66263 0.0451817 0)
(7.67529 0.0379586 0)
(7.68735 0.031201 0)
(7.69891 0.0248583 0)
(7.71004 0.0188819 0)
(7.72079 0.0132269 0)
(7.73124 0.00785317 0)
(7.74141 0.00272492 0)
(7.75137 -0.00219014 0)
(7.76117 -0.00692173 0)
(7.77086 -0.0114993 0)
(7.78051 -0.0159549 0)
(7.7902 -0.0203275 0)
(7.8 -0.0246678 0)
(7.81002 -0.0290449 0)
(7.82034 -0.0335549 0)
(7.83108 -0.0383283 0)
(7.8423 -0.0435423 0)
(7.85409 -0.0494216 0)
(7.86638 -0.0562362 0)
(7.33486 0.023008 0)
(7.35328 0.0641216 0)
(7.38655 0.0900892 0)
(7.42249 0.101979 0)
(7.4555 0.104876 0)
(7.48528 0.101965 0)
(7.51172 0.0955167 0)
(7.53492 0.0873261 0)
(7.55545 0.0784689 0)
(7.5739 0.0695184 0)
(7.59068 0.0607964 0)
(7.60614 0.0524663 0)
(7.62053 0.0445901 0)
(7.63406 0.0371766 0)
(7.64686 0.0302067 0)
(7.65906 0.023647 0)
(7.67074 0.0174577 0)
(7.68198 0.0115974 0)
(7.69283 0.0060257 0)
(7.70334 0.000703968 0)
(7.71358 -0.00440433 0)
(7.72359 -0.00933405 0)
(7.73342 -0.0141195 0)
(7.74313 -0.0187967 0)
(7.75277 -0.0234056 0)
(7.76241 -0.027994 0)
(7.77212 -0.0326213 0)
(7.78198 -0.0373638 0)
(7.79205 -0.0423206 0)
(7.80239 -0.0476174 0)
(7.81304 -0.0534129 0)
(7.82402 -0.0598978 0)
(7.83526 -0.0672794 0)
(7.33443 0.0185153 0)
(7.34899 0.0521622 0)
(7.37621 0.0746449 0)
(7.40699 0.0858662 0)
(7.43642 0.0893264 0)
(7.46376 0.0875486 0)
(7.48867 0.0823863 0)
(7.51102 0.0753672 0)
(7.53113 0.06749 0)
(7.5494 0.0593308 0)
(7.56618 0.0512326 0)
(7.5817 0.0433891 0)
(7.59621 0.0358931 0)
(7.60987 0.0287779 0)
(7.62281 0.0220436 0)
(7.63514 0.0156705 0)
(7.64693 0.00962829 0)
(7.65827 0.00388176 0)
(7.6692 -0.00160638 0)
(7.67978 -0.00687353 0)
(7.69007 -0.0119568 0)
(7.70011 -0.0168933 0)
(7.70994 -0.0217211 0)
(7.71963 -0.026481 0)
(7.72922 -0.0312185 0)
(7.73877 -0.0359865 0)
(7.74833 -0.0408487 0)
(7.75796 -0.0458827 0)
(7.7677 -0.0511839 0)
(7.77758 -0.0568667 0)
(7.78761 -0.0630667 0)
(7.79778 -0.0699386 0)
(7.80801 -0.0776362 0)
(7.33413 0.0148613 0)
(7.34583 0.0421763 0)
(7.36832 0.0612256 0)
(7.39478 0.0713478 0)
(7.42105 0.0748811 0)
(7.44614 0.0737773 0)
(7.46956 0.0695338 0)
(7.49102 0.0634298 0)
(7.51065 0.0563654 0)
(7.5287 0.0488969 0)
(7.54541 0.0413715 0)
(7.56098 0.0339978 0)
(7.57558 0.026887 0)
(7.58935 0.0200888 0)
(7.60242 0.0136161 0)
(7.61486 0.00745913 0)
(7.62676 0.00159462 0)
(7.63818 -0.00400807 0)
(7.64918 -0.00938348 0)
(7.65982 -0.014568 0)
(7.67013 -0.019599 0)
(7.68017 -0.0245155 0)
(7.68998 -0.0293578 0)
(7.69961 -0.0341697 0)
(7.70911 -0.0389994 0)
(7.71851 -0.043902 0)
(7.72786 -0.0489414 0)
(7.7372 -0.0541922 0)
(7.74655 -0.0597415 0)
(7.75593 -0.0656892 0)
(7.76532 -0.0721467 0)
(7.7747 -0.0792348 0)
(7.78398 -0.0870636 0)
(7.33392 0.0118304 0)
(7.34348 0.0337322 0)
(7.36227 0.0494851 0)
(7.38516 0.0582152 0)
(7.40867 0.0614374 0)
(7.43172 0.0606296 0)
(7.45373 0.0569888 0)
(7.4743 0.0515704 0)
(7.49342 0.0451625 0)
(7.51122 0.0382819 0)
(7.52783 0.0312633 0)
(7.54341 0.0243176 0)
(7.55807 0.0175652 0)
(7.57193 0.0110668 0)
(7.5851 0.00484466 0)
(7.59764 -0.00110309 0)
(7.60963 -0.00679377 0)
(7.62113 -0.0122539 0)
(7.63219 -0.0175154 0)
(7.64285 -0.0226136 0)
(7.65318 -0.027586 0)
(7.6632 -0.0324722 0)
(7.67296 -0.037314 0)
(7.6825 -0.0421562 0)
(7.69186 -0.047048 0)
(7.70108 -0.0520439 0)
(7.71018 -0.0572051 0)
(7.71919 -0.0626003 0)
(7.72813 -0.0683062 0)
(7.73699 -0.0744065 0)
(7.74576 -0.0809896 0)
(7.75438 -0.0881464 0)
(7.76278 -0.0959521 0)
(7.33376 0.00926788 0)
(7.34172 0.0264913 0)
(7.35762 0.0391231 0)
(7.37757 0.0462704 0)
(7.39871 0.0488832 0)
(7.41996 0.0480582 0)
(7.44067 0.0447405 0)
(7.46039 0.0397897 0)
(7.479 0.0338807 0)
(7.49651 0.0274795 0)
(7.51301 0.020899 0)
(7.52856 0.014343 0)
(7.54327 0.0079338 0)
(7.55721 0.00173656 0)
(7.57046 -0.00422133 0)
(7.58309 -0.00993749 0)
(7.59516 -0.0154258 0)
(7.60671 -0.0207105 0)
(7.61781 -0.0258223 0)
(7.62849 -0.0307962 0)
(7.6388 -0.0356697 0)
(7.64878 -0.0404829 0)
(7.65846 -0.0452781 0)
(7.66788 -0.0501001 0)
(7.67708 -0.0549973 0)
(7.68608 -0.0600219 0)
(7.6949 -0.0652305 0)
(7.70356 -0.0706844 0)
(7.71207 -0.0764488 0)
(7.72041 -0.0825917 0)
(7.72856 -0.0891809 0)
(7.73647 -0.0962823 0)
(7.74408 -0.103944 0)
(7.33365 0.00705976 0)
(7.34038 0.0201865 0)
(7.35404 0.0298798 0)
(7.37161 0.0353257 0)
(7.39075 0.0370992 0)
(7.41042 0.0359996 0)
(7.42996 0.0327647 0)
(7.4489 0.0280858 0)
(7.46701 0.022529 0)
(7.48425 0.0165025 0)
(7.50062 0.0102887 0)
(7.51614 0.00407592 0)
(7.53088 -0.00201937 0)
(7.54488 -0.00793292 0)
(7.55821 -0.0136363 0)
(7.57092 -0.0191253 0)
(7.58305 -0.0244123 0)
(7.59466 -0.0295201 0)
(7.60578 -0.0344785 0)
(7.61646 -0.0393218 0)
(7.62674 -0.0440874 0)
(7.63665 -0.0488148 0)
(7.64623 -0.0535458 0)
(7.65551 -0.0583241 0)
(7.66452 -0.0631958 0)
(7.67328 -0.0682095 0)
(7.6818 -0.0734159 0)
(7.6901 -0.078868 0)
(7.69818 -0.0846197 0)
(7.70601 -0.0907245 0)
(7.71358 -0.0972325 0)
(7.72084 -0.104189 0)
(7.72774 -0.111622 0)
(7.33356 0.00512015 0)
(7.33937 0.0146048 0)
(7.35129 0.0215304 0)
(7.36696 0.0252044 0)
(7.38442 0.0259623 0)
(7.40275 0.0243783 0)
(7.42128 0.0210215 0)
(7.43952 0.0164411 0)
(7.45719 0.0111029 0)
(7.47416 0.00535504 0)
(7.49041 -0.000555789 0)
(7.5059 -0.00646187 0)
(7.52066 -0.0122578 0)
(7.53472 -0.0178849 0)
(7.54812 -0.0233173 0)
(7.56089 -0.0285523 0)
(7.57308 -0.0336028 0)
(7.58472 -0.0384923 0)
(7.59585 -0.0432508 0)
(7.60652 -0.047913 0)
(7.61675 -0.0525163 0)
(7.62658 -0.0571001 0)
(7.63604 -0.0617055 0)
(7.64515 -0.0663744 0)
(7.65395 -0.0711503 0)
(7.66245 -0.0760774 0)
(7.67066 -0.0812005 0)
(7.6786 -0.0865644 0)
(7.68624 -0.0922126 0)
(7.69359 -0.098186 0)
(7.70061 -0.10452 0)
(7.70728 -0.111245 0)
(7.71354 -0.118374 0)
(7.33349 0.00338236 0)
(7.33861 0.00957384 0)
(7.3492 0.0138788 0)
(7.36336 0.0157391 0)
(7.37948 0.015344 0)
(7.3967 0.0131019 0)
(7.41438 0.00944637 0)
(7.43202 0.00480739 0)
(7.44931 -0.000440531 0)
(7.46607 -0.00600929 0)
(7.48222 -0.0116913 0)
(7.4977 -0.0173443 0)
(7.5125 -0.0228787 0)
(7.52662 -0.0282454 0)
(7.54009 -0.0334246 0)
(7.55293 -0.0384173 0)
(7.56517 -0.0432386 0)
(7.57684 -0.0479134 0)
(7.58798 -0.0524726 0)
(7.59862 -0.0569512 0)
(7.60879 -0.0613865 0)
(7.61852 -0.0658172 0)
(7.62785 -0.0702828 0)
(7.63679 -0.0748232 0)
(7.64537 -0.0794783 0)
(7.6536 -0.0842878 0)
(7.6615 -0.0892902 0)
(7.66906 -0.0945228 0)
(7.67629 -0.10002 0)
(7.68318 -0.105811 0)
(7.68969 -0.111921 0)
(7.69582 -0.118367 0)
(7.70151 -0.125152 0)
(7.33344 0.00179286 0)
(7.33805 0.00495078 0)
(7.34763 0.00675215 0)
(7.36064 0.00677177 0)
(7.3757 0.00511664 0)
(7.39204 0.00207611 0)
(7.40905 -0.00202187 0)
(7.42622 -0.00684581 0)
(7.44321 -0.0121018 0)
(7.45981 -0.0175596 0)
(7.47589 -0.0230522 0)
(7.49138 -0.0284658 0)
(7.50622 -0.033731 0)
(7.52042 -0.0388121 0)
(7.53395 -0.0436991 0)
(7.54686 -0.0483995 0)
(7.55914 -0.0529336 0)
(7.57083 -0.0573294 0)
(7.58196 -0.0616205 0)
(7.59256 -0.0658432 0)
(7.60266 -0.0700354 0)
(7.61228 -0.0742356 0)
(7.62146 -0.0784823 0)
(7.63021 -0.0828132 0)
(7.63856 -0.087265 0)
(7.64652 -0.091873 0)
(7.6541 -0.0966702 0)
(7.66131 -0.101687 0)
(7.66814 -0.10695 0)
(7.67459 -0.11248 0)
(7.68064 -0.118294 0)
(7.68628 -0.124399 0)
(7.69148 -0.130792 0)
(7.33341 0.000307009 0)
(7.33764 0.000613524 0)
(7.3465 -6.68456e-06 0)
(7.35866 -0.00185414 0)
(7.37294 -0.00486301 0)
(7.38864 -0.00882713 0)
(7.40516 -0.0135027 0)
(7.422 -0.018641 0)
(7.4388 -0.0240202 0)
(7.45533 -0.0294656 0)
(7.47142 -0.0348513 0)
(7.48697 -0.0400942 0)
(7.5019 -0.0451467 0)
(7.51619 -0.049989 0)
(7.52983 -0.0546222 0)
(7.54281 -0.0590623 0)
(7.55515 -0.0633351 0)
(7.56687 -0.0674728 0)
(7.578 -0.0715117 0)
(7.58856 -0.0754896 0)
(7.59858 -0.0794452 0)
(7.60809 -0.0834167 0)
(7.61711 -0.0874413 0)
(7.62566 -0.0915545 0)
(7.63378 -0.0957901 0)
(7.64146 -0.100179 0)
(7.64873 -0.104749 0)
(7.65559 -0.109526 0)
(7.66204 -0.114528 0)
(7.66808 -0.119772 0)
(7.6737 -0.125265 0)
(7.67889 -0.13101 0)
(7.68363 -0.136998 0)
(7.33338 -0.00111376 0)
(7.33737 -0.00354539 0)
(7.34574 -0.00654129 0)
(7.35733 -0.0102848 0)
(7.37108 -0.0147225 0)
(7.38636 -0.0197014 0)
(7.40258 -0.0250422 0)
(7.41923 -0.030564 0)
(7.43596 -0.0361083 0)
(7.4525 -0.0415533 0)
(7.46865 -0.0468159 0)
(7.4843 -0.0518468 0)
(7.49935 -0.0566248 0)
(7.51375 -0.0611505 0)
(7.52749 -0.0654406 0)
(7.54056 -0.0695228 0)
(7.55295 -0.0734317 0)
(7.5647 -0.077206 0)
(7.57582 -0.0808865 0)
(7.58633 -0.0845138 0)
(7.59627 -0.0881281 0)
(7.60566 -0.0917679 0)
(7.61452 -0.0954695 0)
(7.62288 -0.0992668 0)
(7.63076 -0.10319 0)
(7.63817 -0.107268 0)
(7.64514 -0.111524 0)
(7.65166 -0.115977 0)
(7.65775 -0.120642 0)
(7.66341 -0.12553 0)
(7.66863 -0.130643 0)
(7.67342 -0.135982 0)
(7.67776 -0.141533 0)
(7.33337 -0.00250543 0)
(7.33721 -0.00762809 0)
(7.34531 -0.0129979 0)
(7.35659 -0.0186903 0)
(7.37008 -0.0246492 0)
(7.38518 -0.0307606 0)
(7.40132 -0.0368972 0)
(7.41799 -0.0429372 0)
(7.43481 -0.0487792 0)
(7.45149 -0.054351 0)
(7.46783 -0.0596095 0)
(7.48367 -0.0645379 0)
(7.49891 -0.0691408 0)
(7.51349 -0.0734388 0)
(7.52738 -0.0774642 0)
(7.54056 -0.0812567 0)
(7.55305 -0.0848601 0)
(7.56483 -0.0883201 0)
(7.57595 -0.0916824 0)
(7.58643 -0.0949913 0)
(7.59628 -0.0982888 0)
(7.60554 -0.101614 0)
(7.61424 -0.105004 0)
(7.6224 -0.10849 0)
(7.63004 -0.112102 0)
(7.63719 -0.115864 0)
(7.64386 -0.119797 0)
(7.65005 -0.123917 0)
(7.6558 -0.128235 0)
(7.66109 -0.132756 0)
(7.66593 -0.137481 0)
(7.67033 -0.142407 0)
(7.67429 -0.147519 0)
(7.33337 -0.00390278 0)
(7.33716 -0.0117308 0)
(7.34518 -0.0195076 0)
(7.35639 -0.0271997 0)
(7.36986 -0.034732 0)
(7.385 -0.0420107 0)
(7.40125 -0.048948 0)
(7.41809 -0.0554743 0)
(7.43513 -0.0615444 0)
(7.45205 -0.0671388 0)
(7.46864 -0.0722613 0)
(7.48474 -0.0769349 0)
(7.50022 -0.081197 0)
(7.51501 -0.0850945 0)
(7.52908 -0.0886804 0)
(7.5424 -0.0920103 0)
(7.55498 -0.09514 0)
(7.56682 -0.0981239 0)
(7.57795 -0.101014 0)
(7.58839 -0.103858 0)
(7.59817 -0.1067 0)
(7.60731 -0.109581 0)
(7.61585 -0.112537 0)
(7.62382 -0.115598 0)
(7.63123 -0.118792 0)
(7.63812 -0.122141 0)
(7.6445 -0.125661 0)
(7.65039 -0.129367 0)
(7.6558 -0.133265 0)
(7.66075 -0.13736 0)
(7.66525 -0.141649 0)
(7.66931 -0.146128 0)
(7.67294 -0.15078 0)
(7.33337 -0.00534269 0)
(7.33723 -0.0159657 0)
(7.34538 -0.0262544 0)
(7.35679 -0.0360761 0)
(7.37054 -0.04534 0)
(7.38604 -0.053972 0)
(7.40269 -0.0619192 0)
(7.41998 -0.0691568 0)
(7.43747 -0.075686 0)
(7.45485 -0.0815306 0)
(7.47187 -0.0867334 0)
(7.48836 -0.0913516 0)
(7.50418 -0.0954515 0)
(7.51927 -0.0991051 0)
(7.53358 -0.102386 0)
(7.54709 -0.105366 0)
(7.55979 -0.108115 0)
(7.5717 -0.110699 0)
(7.58285 -0.113176 0)
(7.59325 -0.115602 0)
(7.60295 -0.118024 0)
(7.61196 -0.120486 0)
(7.62034 -0.123024 0)
(7.6281 -0.12567 0)
(7.63527 -0.128449 0)
(7.64189 -0.131384 0)
(7.64798 -0.134488 0)
(7.65356 -0.137773 0)
(7.65865 -0.141245 0)
(7.66326 -0.144906 0)
(7.66742 -0.14875 0)
(7.67113 -0.152772 0)
(7.67441 -0.156956 0)
(7.33339 -0.00686339 0)
(7.33739 -0.0204281 0)
(7.34586 -0.0333365 0)
(7.35771 -0.0453344 0)
(7.37196 -0.0562987 0)
(7.38801 -0.0661671 0)
(7.40525 -0.0749267 0)
(7.42313 -0.0826124 0)
(7.44121 -0.0892917 0)
(7.45916 -0.095052 0)
(7.47672 -0.099992 0)
(7.49369 -0.104216 0)
(7.50995 -0.10783 0)
(7.52541 -0.110936 0)
(7.54002 -0.11363 0)
(7.55376 -0.116003 0)
(7.56664 -0.118137 0)
(7.57867 -0.120107 0)
(7.58986 -0.121978 0)
(7.60026 -0.123811 0)
(7.6099 -0.125654 0)
(7.61881 -0.127553 0)
(7.62704 -0.129544 0)
(7.63461 -0.131657 0)
(7.64157 -0.133918 0)
(7.64794 -0.136344 0)
(7.65376 -0.138951 0)
(7.65905 -0.141746 0)
(7.66383 -0.144735 0)
(7.66814 -0.147915 0)
(7.67198 -0.151284 0)
(7.67539 -0.154834 0)
(7.67838 -0.158549 0)
(7.33342 -0.00851855 0)
(7.33772 -0.0253078 0)
(7.34681 -0.0411375 0)
(7.3595 -0.0556554 0)
(7.37472 -0.0687253 0)
(7.3918 -0.0802937 0)
(7.41008 -0.090365 0)
(7.42896 -0.0990044 0)
(7.44797 -0.106318 0)
(7.46676 -0.112435 0)
(7.48506 -0.117499 0)
(7.50267 -0.121656 0)
(7.51947 -0.12505 0)
(7.53536 -0.127819 0)
(7.55032 -0.130089 0)
(7.56432 -0.131976 0)
(7.57738 -0.133583 0)
(7.58951 -0.135 0)
(7.60074 -0.136306 0)
(7.61111 -0.137568 0)
(7.62067 -0.138843 0)
(7.62945 -0.14018 0)
(7.63751 -0.141616 0)
(7.64487 -0.143185 0)
(7.65158 -0.144909 0)
(7.65769 -0.146808 0)
(7.66321 -0.148895 0)
(7.66819 -0.151175 0)
(7.67265 -0.153653 0)
(7.67662 -0.156326 0)
(7.68013 -0.159189 0)
(7.6832 -0.162234 0)
(7.68584 -0.165442 0)
(7.33345 -0.0103531 0)
(7.33813 -0.0306462 0)
(7.34799 -0.049484 0)
(7.36168 -0.0663564 0)
(7.37801 -0.0811214 0)
(7.39626 -0.0937852 0)
(7.41573 -0.104445 0)
(7.43579 -0.113271 0)
(7.45593 -0.120466 0)
(7.47576 -0.126241 0)
(7.49501 -0.130801 0)
(7.51347 -0.134343 0)
(7.53099 -0.137048 0)
(7.5475 -0.139082 0)
(7.56296 -0.140592 0)
(7.57735 -0.141709 0)
(7.59069 -0.142547 0)
(7.60302 -0.143204 0)
(7.61436 -0.143766 0)
(7.62477 -0.144302 0)
(7.6343 -0.144874 0)
(7.643 -0.14553 0)
(7.65092 -0.146309 0)
(7.6581 -0.147243 0)
(7.6646 -0.148356 0)
(7.67046 -0.149665 0)
(7.67571 -0.151181 0)
(7.68041 -0.152911 0)
(7.68457 -0.154857 0)
(7.68825 -0.157015 0)
(7.69146 -0.15938 0)
(7.69424 -0.161944 0)
(7.69663 -0.164687 0)
(7.33353 -0.0124872 0)
(7.33896 -0.0369946 0)
(7.35028 -0.0597081 0)
(7.36583 -0.0799987 0)
(7.38415 -0.0976846 0)
(7.40438 -0.112722 0)
(7.42572 -0.125183 0)
(7.44745 -0.135262 0)
(7.46906 -0.143218 0)
(7.49017 -0.149331 0)
(7.5105 -0.153885 0)
(7.52985 -0.15715 0)
(7.54811 -0.159376 0)
(7.5652 -0.160785 0)
(7.58111 -0.161573 0)
(7.59584 -0.161907 0)
(7.60942 -0.161929 0)
(7.62188 -0.161761 0)
(7.63328 -0.1615 0)
(7.64367 -0.161228 0)
(7.65312 -0.161011 0)
(7.66168 -0.160901 0)
(7.66942 -0.160938 0)
(7.67638 -0.161155 0)
(7.68262 -0.161575 0)
(7.68819 -0.162212 0)
(7.69315 -0.163076 0)
(7.69752 -0.164173 0)
(7.70135 -0.165502 0)
(7.70468 -0.167059 0)
(7.70754 -0.168835 0)
(7.70997 -0.170822 0)
(7.71198 -0.172998 0)
(7.33356 -0.0149288 0)
(7.33958 -0.0438555 0)
(7.35223 -0.0698886 0)
(7.36949 -0.0923085 0)
(7.38976 -0.111174 0)
(7.41209 -0.126704 0)
(7.43561 -0.139186 0)
(7.45947 -0.148978 0)
(7.48309 -0.156444 0)
(7.50602 -0.161929 0)
(7.52795 -0.165757 0)
(7.54869 -0.168227 0)
(7.56811 -0.169608 0)
(7.58616 -0.170138 0)
(7.60284 -0.170025 0)
(7.61815 -0.16945 0)
(7.63215 -0.168565 0)
(7.64491 -0.167499 0)
(7.65649 -0.16636 0)
(7.66697 -0.165234 0)
(7.67641 -0.164191 0)
(7.68491 -0.163288 0)
(7.69251 -0.162567 0)
(7.6993 -0.16206 0)
(7.70533 -0.161791 0)
(7.71066 -0.161774 0)
(7.71535 -0.162019 0)
(7.71944 -0.162529 0)
(7.72298 -0.163304 0)
(7.72602 -0.164339 0)
(7.7286 -0.165625 0)
(7.73075 -0.167153 0)
(7.73252 -0.168897 0)
(7.33382 -0.0181279 0)
(7.34182 -0.0537001 0)
(7.35782 -0.0860756 0)
(7.37882 -0.114142 0)
(7.40261 -0.13766 0)
(7.42811 -0.156644 0)
(7.45436 -0.171391 0)
(7.48055 -0.182415 0)
(7.50613 -0.190279 0)
(7.53072 -0.195525 0)
(7.55406 -0.198658 0)
(7.57596 -0.200125 0)
(7.59635 -0.200312 0)
(7.61518 -0.199544 0)
(7.63246 -0.198093 0)
(7.64823 -0.196179 0)
(7.66256 -0.193984 0)
(7.67552 -0.191653 0)
(7.68719 -0.189301 0)
(7.69766 -0.187018 0)
(7.70701 -0.184875 0)
(7.71534 -0.182924 0)
(7.72272 -0.181205 0)
(7.72923 -0.179746 0)
(7.73493 -0.178566 0)
(7.7399 -0.177677 0)
(7.74419 -0.177085 0)
(7.74786 -0.176791 0)
(7.75097 -0.176793 0)
(7.75355 -0.177083 0)
(7.75566 -0.177651 0)
(7.75732 -0.178486 0)
(7.75859 -0.17956 0)
(7.33371 -0.0215902 0)
(7.34215 -0.0621496 0)
(7.3601 -0.0966613 0)
(7.38411 -0.125086 0)
(7.41165 -0.148327 0)
(7.44135 -0.166884 0)
(7.47183 -0.18121 0)
(7.50198 -0.191849 0)
(7.53109 -0.199317 0)
(7.55872 -0.2041 0)
(7.58457 -0.206665 0)
(7.6085 -0.207441 0)
(7.63046 -0.206819 0)
(7.65046 -0.20514 0)
(7.66857 -0.202699 0)
(7.68488 -0.199746 0)
(7.6995 -0.196489 0)
(7.71255 -0.193095 0)
(7.72415 -0.1897 0)
(7.73441 -0.186408 0)
(7.74345 -0.1833 0)
(7.75138 -0.180436 0)
(7.75829 -0.177858 0)
(7.76428 -0.175596 0)
(7.76942 -0.173668 0)
(7.7738 -0.172086 0)
(7.77748 -0.170852 0)
(7.78053 -0.169967 0)
(7.783 -0.169426 0)
(7.78496 -0.169222 0)
(7.78645 -0.169343 0)
(7.78752 -0.169779 0)
(7.78825 -0.170494 0)
(7.33482 -0.0279792 0)
(7.34956 -0.0829149 0)
(7.37529 -0.130674 0)
(7.40571 -0.169392 0)
(7.43806 -0.199398 0)
(7.47154 -0.221474 0)
(7.50505 -0.236854 0)
(7.53765 -0.246855 0)
(7.56876 -0.252604 0)
(7.59799 -0.255049 0)
(7.6251 -0.254985 0)
(7.64997 -0.253054 0)
(7.67258 -0.249771 0)
(7.69298 -0.245549 0)
(7.71129 -0.240716 0)
(7.72762 -0.235529 0)
(7.74214 -0.230192 0)
(7.75499 -0.224864 0)
(7.76632 -0.219665 0)
(7.77629 -0.214689 0)
(7.78502 -0.210001 0)
(7.79264 -0.20565 0)
(7.79927 -0.201668 0)
(7.805 -0.198075 0)
(7.80994 -0.194881 0)
(7.81415 -0.192091 0)
(7.81771 -0.189705 0)
(7.82068 -0.187719 0)
(7.82313 -0.186129 0)
(7.8251 -0.184929 0)
(7.82665 -0.184111 0)
(7.82784 -0.183667 0)
(7.82871 -0.183557 0)
(7.3338 -0.0317881 0)
(7.3477 -0.0864981 0)
(7.37787 -0.129631 0)
(7.41591 -0.165301 0)
(7.45691 -0.194764 0)
(7.49861 -0.217683 0)
(7.53911 -0.234482 0)
(7.57742 -0.245911 0)
(7.61325 -0.252702 0)
(7.64653 -0.255638 0)
(7.67731 -0.255513 0)
(7.70572 -0.253055 0)
(7.73193 -0.248896 0)
(7.75607 -0.243572 0)
(7.77832 -0.237517 0)
(7.79879 -0.231077 0)
(7.81763 -0.224518 0)
(7.83494 -0.218043 0)
(7.85086 -0.211798 0)
(7.86547 -0.205889 0)
(7.87889 -0.200385 0)
(7.8912 -0.195331 0)
(7.90249 -0.190751 0)
(7.91285 -0.186657 0)
(7.92235 -0.183046 0)
(7.93105 -0.179913 0)
(7.93902 -0.177248 0)
(7.94631 -0.175038 0)
(7.95297 -0.173278 0)
(7.95907 -0.17196 0)
(7.96465 -0.171089 0)
(7.9698 -0.170667 0)
(7.9746 -0.170669 0)
(7.33892 -0.0543361 0)
(7.37191 -0.151473 0)
(7.41459 -0.220679 0)
(7.45804 -0.267625 0)
(7.5044 -0.298486 0)
(7.55454 -0.31723 0)
(7.60695 -0.327561 0)
(7.66054 -0.332166 0)
(7.71441 -0.332746 0)
(7.76754 -0.330458 0)
(7.81902 -0.326111 0)
(7.86818 -0.32028 0)
(7.91456 -0.313391 0)
(7.95783 -0.305781 0)
(7.99785 -0.297718 0)
(8.03458 -0.28943 0)
(8.06808 -0.281103 0)
(8.09847 -0.272892 0)
(8.12594 -0.264921 0)
(8.15067 -0.257288 0)
(8.17287 -0.250064 0)
(8.19274 -0.243299 0)
(8.2105 -0.237026 0)
(8.22633 -0.231262 0)
(8.24039 -0.226011 0)
(8.25286 -0.221273 0)
(8.26386 -0.21704 0)
(8.27352 -0.213307 0)
(8.28195 -0.210077 0)
(8.28922 -0.207353 0)
(8.29545 -0.205191 0)
(8.30071 -0.203592 0)
(8.30517 -0.20274 0)
(7.33755 -0.0403697 0)
(7.38845 -0.105683 0)
(7.47758 -0.163464 0)
(7.57906 -0.219317 0)
(7.6868 -0.266979 0)
(7.79565 -0.304101 0)
(7.89959 -0.33132 0)
(7.99514 -0.349322 0)
(8.08029 -0.359175 0)
(8.15395 -0.362336 0)
(8.2159 -0.360259 0)
(8.26653 -0.354254 0)
(8.3066 -0.34545 0)
(8.33709 -0.334783 0)
(8.35909 -0.322999 0)
(8.37368 -0.310677 0)
(8.38193 -0.298257 0)
(8.38478 -0.286064 0)
(8.3831 -0.274325 0)
(8.37764 -0.263196 0)
(8.36906 -0.252772 0)
(8.35791 -0.243104 0)
(8.34466 -0.23421 0)
(8.32969 -0.226082 0)
(8.31334 -0.218693 0)
(8.29586 -0.212005 0)
(8.27745 -0.205971 0)
(8.25826 -0.200545 0)
(8.23842 -0.19569 0)
(8.21794 -0.191382 0)
(8.19695 -0.187707 0)
(8.17516 -0.184615 0)
(8.15323 -0.183072 0)
(7.39946 -0.196846 0)
(7.59555 -0.376323 0)
(7.76809 -0.459454 0)
(7.89491 -0.513589 0)
(7.97797 -0.54257 0)
(8.01533 -0.552228 0)
(8.01121 -0.549181 0)
(7.97397 -0.53677 0)
(7.91125 -0.517495 0)
(7.82964 -0.493614 0)
(7.73491 -0.466923 0)
(7.63183 -0.438819 0)
(7.52412 -0.410388 0)
(7.41461 -0.382444 0)
(7.30543 -0.355564 0)
(7.19808 -0.330136 0)
(7.0936 -0.306392 0)
(6.99267 -0.284448 0)
(6.8957 -0.264335 0)
(6.80286 -0.246023 0)
(6.71422 -0.22944 0)
(6.6297 -0.214485 0)
(6.54918 -0.201043 0)
(6.47249 -0.188988 0)
(6.39941 -0.178187 0)
(6.32974 -0.168508 0)
(6.26325 -0.159811 0)
(6.19969 -0.151963 0)
(6.1388 -0.144799 0)
(6.08021 -0.138176 0)
(6.02361 -0.131984 0)
(5.968 -0.125437 0)
(5.91373 -0.121881 0)
(7.16011 -0.185955 0)
(6.91078 -0.345396 0)
(6.49931 -0.392872 0)
(6.03513 -0.3945 0)
(5.59432 -0.366535 0)
(5.17712 -0.322797 0)
(4.7876 -0.274201 0)
(4.43257 -0.226369 0)
(4.11258 -0.182291 0)
(3.82599 -0.143453 0)
(3.57077 -0.110259 0)
(3.34438 -0.0825251 0)
(3.14398 -0.0597733 0)
(2.96678 -0.0413835 0)
(2.81009 -0.0267038 0)
(2.67144 -0.015117 0)
(2.54856 -0.00607107 0)
(2.43943 0.00091036 0)
(2.34225 0.00622791 0)
(2.25543 0.0102129 0)
(2.17758 0.0131365 0)
(2.1075 0.0152189 0)
(2.04415 0.0166392 0)
(1.98662 0.0175436 0)
(1.93414 0.0180567 0)
(1.88607 0.0182858 0)
(1.84183 0.0183495 0)
(1.80105 0.018366 0)
(1.76322 0.0185558 0)
(1.72854 0.0192163 0)
(1.69609 0.0206907 0)
(1.66796 0.0254709 0)
(1.64204 0.0209487 0)
(1.28421 0.0354694 0)
(1.55323 0.180607 0)
(1.95077 0.316994 0)
(2.36318 0.404975 0)
(2.7428 0.403876 0)
(3.05097 0.31665 0)
(3.28192 0.180018 0)
(3.48196 0.0106581 0)