/*--------------------------------*- C++ -*----------------------------------*\
  =========                 |
  \\      /  F ield         | OpenFOAM: The Open Source CFD Toolbox
   \\    /   O peration     | Website:  https://openfoam.org
    \\  /    A nd           | Version:  10
     \\/     M anipulation  |
\*---------------------------------------------------------------------------*/
FoamFile
{
    format      ascii;
    class       volScalarField;
    location    "800";
    object      k;
}
// * * * * * * * * * * * * * * * * * * * * * * * * * * * * * * * * * * * * * //

dimensions      [0 2 -2 0 0 0 0];

internalField   nonuniform List<scalar> 
6820
(
0.318932
0.614648
0.847396
0.983377
1.04836
1.06927
1.06475
1.0465
1.0217
0.994573
0.96746
0.941557
0.917415
0.895217
0.874954
0.856516
0.839753
0.824505
0.810612
0.797929
0.786322
0.775674
0.76588
0.756848
0.748497
0.740755
0.733559
0.726853
0.720568
0.714753
0.708778
0.705788
0.691013
0.838908
1.45739
1.5306
1.40689
1.25037
1.11087
0.996111
0.903238
0.827887
0.76631
0.715544
0.673419
0.638187
0.608546
0.583483
0.562195
0.54404
0.528503
0.515163
0.50368
0.493771
0.485203
0.477783
0.47135
0.465766
0.460919
0.456713
0.453069
0.449917
0.447226
0.444901
0.443162
0.441269
0.379893
0.662258
0.793337
0.827975
0.818185
0.790402
0.756381
0.721169
0.686891
0.654427
0.624111
0.596043
0.570195
0.546474
0.524757
0.504903
0.486769
0.470214
0.4551
0.441303
0.428702
0.417191
0.406671
0.397051
0.388251
0.380196
0.37282
0.366063
0.359872
0.354202
0.349004
0.344258
0.339899
0.246132
0.3393
0.411878
0.458885
0.485704
0.49888
0.503287
0.502158
0.497535
0.490704
0.482486
0.473435
0.46393
0.454239
0.44455
0.434992
0.425659
0.41661
0.407887
0.399514
0.391503
0.383859
0.376578
0.369655
0.363079
0.356841
0.350925
0.34532
0.340011
0.334984
0.330225
0.325724
0.321455
0.216724
0.25341
0.285799
0.312244
0.332455
0.347125
0.357301
0.364011
0.368096
0.370197
0.370789
0.37023
0.368792
0.366686
0.364075
0.361089
0.357829
0.354377
0.350797
0.347142
0.343452
0.339759
0.33609
0.332464
0.328898
0.325402
0.321986
0.318658
0.315421
0.312279
0.309234
0.306288
0.303441
0.2067
0.22375
0.239981
0.254416
0.266684
0.276738
0.28477
0.291069
0.295923
0.299585
0.302262
0.304127
0.305322
0.305962
0.306143
0.305944
0.305432
0.304663
0.303682
0.30253
0.30124
0.299841
0.298355
0.296804
0.295204
0.29357
0.291915
0.290249
0.28858
0.286917
0.285265
0.283631
0.282019
0.202776
0.211442
0.220463
0.228911
0.236465
0.243012
0.248579
0.253258
0.257157
0.260378
0.263011
0.265139
0.26683
0.268145
0.269136
0.269846
0.270314
0.270573
0.270652
0.270575
0.270366
0.270042
0.26962
0.269115
0.268539
0.267905
0.267222
0.266497
0.265741
0.264958
0.264155
0.263338
0.262512
0.201168
0.205683
0.210952
0.216189
0.221064
0.22544
0.229296
0.232659
0.235575
0.238089
0.240245
0.242083
0.243642
0.244952
0.246042
0.246939
0.247664
0.248237
0.248675
0.248995
0.249208
0.249329
0.249367
0.249332
0.249234
0.24908
0.248876
0.24863
0.248347
0.248032
0.24769
0.247324
0.246941
0.200484
0.202809
0.205913
0.20924
0.212483
0.215494
0.218222
0.220663
0.222834
0.224755
0.226448
0.227934
0.229235
0.230369
0.231352
0.232201
0.232928
0.233546
0.234066
0.234497
0.234849
0.23513
0.235347
0.235505
0.235612
0.235673
0.235692
0.235674
0.235624
0.235544
0.235438
0.235309
0.235162
0.200184
0.20134
0.203132
0.205234
0.207404
0.209501
0.211457
0.21325
0.214879
0.216348
0.217669
0.218852
0.219908
0.220849
0.221684
0.222423
0.223075
0.223648
0.224148
0.224583
0.224958
0.225279
0.225551
0.225778
0.225964
0.226113
0.226229
0.226315
0.226373
0.226407
0.226419
0.226411
0.226386
0.200051
0.200588
0.201579
0.202869
0.204298
0.205746
0.207146
0.208465
0.209689
0.210815
0.211845
0.212781
0.213631
0.214399
0.215093
0.215717
0.216278
0.21678
0.217229
0.217628
0.217983
0.218295
0.21857
0.21881
0.219018
0.219197
0.219349
0.219477
0.219583
0.219669
0.219737
0.219789
0.219826
0.199992
0.200208
0.200718
0.201471
0.202377
0.203351
0.204335
0.205293
0.206205
0.207061
0.207858
0.208595
0.209273
0.209895
0.210464
0.210983
0.211456
0.211885
0.212274
0.212626
0.212943
0.213229
0.213485
0.213714
0.213918
0.214099
0.214259
0.2144
0.214523
0.21463
0.214722
0.2148
0.214867
0.199966
0.200017
0.200248
0.200654
0.201196
0.201823
0.202489
0.203165
0.203829
0.204469
0.205076
0.205648
0.206182
0.206679
0.20714
0.207565
0.207957
0.208317
0.208647
0.208949
0.209225
0.209477
0.209706
0.209915
0.210103
0.210274
0.210428
0.210566
0.21069
0.210802
0.210901
0.21099
0.211068
0.199954
0.199924
0.199997
0.200187
0.200483
0.200858
0.201286
0.201741
0.202206
0.202669
0.203119
0.203552
0.203964
0.204353
0.204718
0.20506
0.205379
0.205675
0.20595
0.206204
0.206439
0.206655
0.206855
0.207038
0.207206
0.207359
0.2075
0.207629
0.207746
0.207853
0.207951
0.20804
0.208121
0.199949
0.199879
0.199866
0.199926
0.200061
0.200262
0.200513
0.200799
0.201107
0.201425
0.201744
0.20206
0.202367
0.202662
0.202944
0.203212
0.203464
0.203702
0.203925
0.204134
0.204329
0.20451
0.204678
0.204835
0.20498
0.205114
0.205239
0.205354
0.20546
0.205558
0.205649
0.205732
0.20581
0.199947
0.199858
0.199799
0.199785
0.19982
0.199903
0.200029
0.200189
0.200374
0.200577
0.200789
0.201006
0.201223
0.201437
0.201646
0.201847
0.202041
0.202225
0.202401
0.202566
0.202723
0.20287
0.203009
0.203138
0.20326
0.203373
0.20348
0.203579
0.203672
0.203758
0.203839
0.203914
0.203985
0.199947
0.199848
0.199766
0.19971
0.199685
0.199693
0.199734
0.199804
0.199898
0.20001
0.200137
0.200273
0.200415
0.20056
0.200704
0.200848
0.200988
0.201124
0.201256
0.201382
0.201503
0.201618
0.201727
0.201831
0.201929
0.202021
0.202109
0.202191
0.202269
0.202343
0.202412
0.202478
0.202539
0.199946
0.199843
0.19975
0.199672
0.199612
0.199575
0.19956
0.199568
0.199596
0.199642
0.199702
0.199774
0.199855
0.199941
0.200032
0.200125
0.200219
0.200312
0.200404
0.200494
0.200582
0.200667
0.200749
0.200827
0.200903
0.200975
0.201044
0.20111
0.201172
0.201232
0.201289
0.201344
0.201396
0.199946
0.199841
0.199743
0.199652
0.199574
0.199509
0.19946
0.199428
0.199411
0.199409
0.19942
0.199443
0.199475
0.199515
0.199562
0.199612
0.199666
0.199723
0.19978
0.199838
0.199896
0.199954
0.20001
0.200066
0.20012
0.200172
0.200223
0.200273
0.200321
0.200367
0.200412
0.200455
0.200497
0.199946
0.199841
0.199739
0.199643
0.199554
0.199474
0.199405
0.199347
0.199301
0.199266
0.199243
0.19923
0.199226
0.19923
0.199241
0.199257
0.199279
0.199304
0.199332
0.199363
0.199395
0.199428
0.199462
0.199497
0.199532
0.199567
0.199601
0.199635
0.199669
0.199703
0.199736
0.199768
0.1998
0.199946
0.19984
0.199737
0.199638
0.199544
0.199456
0.199375
0.199302
0.199237
0.199181
0.199135
0.199097
0.199067
0.199044
0.199029
0.199019
0.199015
0.199016
0.19902
0.199028
0.199039
0.199052
0.199067
0.199084
0.199102
0.199121
0.199141
0.199162
0.199183
0.199205
0.199227
0.19925
0.199272
0.199946
0.19984
0.199736
0.199636
0.199539
0.199446
0.199359
0.199277
0.199202
0.199133
0.199071
0.199017
0.19897
0.198929
0.198895
0.198866
0.198843
0.198825
0.198812
0.198802
0.198796
0.198793
0.198793
0.198796
0.1988
0.198807
0.198815
0.198825
0.198836
0.198848
0.198861
0.198875
0.19889
0.199946
0.19984
0.199736
0.199635
0.199536
0.199441
0.19935
0.199264
0.199182
0.199106
0.199036
0.198972
0.198914
0.198861
0.198815
0.198774
0.198739
0.198708
0.198682
0.198661
0.198643
0.198629
0.198618
0.19861
0.198605
0.198602
0.198602
0.198603
0.198607
0.198611
0.198618
0.198625
0.198634
0.199946
0.19984
0.199736
0.199634
0.199535
0.199439
0.199346
0.199257
0.199173
0.199093
0.199019
0.19895
0.198886
0.198828
0.198775
0.198728
0.198686
0.198648
0.198616
0.198587
0.198563
0.198543
0.198526
0.198512
0.198501
0.198493
0.198488
0.198484
0.198483
0.198483
0.198485
0.198489
0.198494
0.199946
0.19984
0.199735
0.199633
0.199534
0.199438
0.199345
0.199255
0.19917
0.19909
0.199015
0.198945
0.19888
0.198821
0.198767
0.198719
0.198676
0.198637
0.198603
0.198574
0.198549
0.198527
0.198509
0.198494
0.198482
0.198473
0.198466
0.198462
0.198459
0.198459
0.19846
0.198462
0.198466
0.199946
0.199839
0.199735
0.199633
0.199534
0.199438
0.199346
0.199258
0.199175
0.199097
0.199024
0.198958
0.198897
0.198842
0.198793
0.198749
0.19871
0.198676
0.198647
0.198622
0.198601
0.198584
0.19857
0.198559
0.198551
0.198545
0.198541
0.198539
0.19854
0.198541
0.198544
0.198549
0.198554
0.199946
0.19984
0.199735
0.199634
0.199536
0.199442
0.199352
0.199268
0.19919
0.199118
0.199053
0.198995
0.198944
0.198899
0.198861
0.198828
0.198801
0.198778
0.19876
0.198746
0.198736
0.198728
0.198724
0.198722
0.198722
0.198724
0.198728
0.198733
0.198739
0.198747
0.198755
0.198764
0.198774
0.199946
0.19984
0.199736
0.199636
0.199541
0.199451
0.199368
0.199292
0.199225
0.199167
0.199117
0.199075
0.199042
0.199016
0.198996
0.198983
0.198975
0.198971
0.198971
0.198975
0.198981
0.19899
0.199001
0.199013
0.199026
0.199041
0.199056
0.199072
0.199088
0.199104
0.19912
0.199136
0.199153
0.199946
0.199841
0.199739
0.199643
0.199554
0.199475
0.199405
0.199348
0.199302
0.199268
0.199245
0.199232
0.199229
0.199233
0.199243
0.19926
0.19928
0.199304
0.199331
0.19936
0.19939
0.199421
0.199452
0.199483
0.199514
0.199544
0.199574
0.199603
0.199631
0.199658
0.199684
0.19971
0.199734
0.199947
0.199843
0.199747
0.19966
0.199587
0.19953
0.199491
0.199468
0.199463
0.199472
0.199495
0.199529
0.199572
0.199622
0.199677
0.199736
0.199796
0.199858
0.199919
0.19998
0.20004
0.200098
0.200154
0.200208
0.200259
0.200308
0.200354
0.200398
0.20044
0.200479
0.200515
0.200549
0.200582
0.199948
0.19985
0.199767
0.199705
0.199669
0.199661
0.19968
0.199725
0.199791
0.199875
0.199972
0.200078
0.200189
0.200304
0.20042
0.200534
0.200645
0.200753
0.200857
0.200955
0.201049
0.201137
0.20122
0.201298
0.20137
0.201438
0.201501
0.201559
0.201612
0.201662
0.201708
0.20175
0.201788
0.199951
0.199869
0.199823
0.199821
0.199868
0.199962
0.200096
0.200262
0.200449
0.20065
0.200858
0.201067
0.201273
0.201472
0.201663
0.201844
0.202015
0.202175
0.202324
0.202462
0.202589
0.202707
0.202815
0.202914
0.203005
0.203088
0.203164
0.203232
0.203295
0.203351
0.203402
0.203447
0.203488
0.199959
0.199926
0.199977
0.200121
0.200351
0.200649
0.200993
0.201362
0.201739
0.202113
0.202473
0.202816
0.203137
0.203435
0.20371
0.203963
0.204193
0.204403
0.204593
0.204765
0.204921
0.205061
0.205187
0.205301
0.205402
0.205492
0.205573
0.205644
0.205707
0.205762
0.205811
0.205853
0.205889
0.199987
0.200103
0.200415
0.200903
0.201515
0.202193
0.20289
0.203572
0.204217
0.204816
0.205363
0.205858
0.206302
0.206698
0.207052
0.207365
0.207643
0.207888
0.208104
0.208295
0.208463
0.208609
0.208738
0.208849
0.208946
0.209029
0.2091
0.20916
0.20921
0.209252
0.209285
0.209311
0.20933
0.200091
0.200674
0.201674
0.202931
0.204281
0.205607
0.206838
0.207945
0.208922
0.209772
0.210508
0.211141
0.211683
0.212148
0.212546
0.212885
0.213174
0.213421
0.213629
0.213806
0.213954
0.214077
0.214179
0.214261
0.214327
0.214377
0.214415
0.21444
0.214455
0.21446
0.214457
0.214446
0.214429
0.200506
0.202612
0.20538
0.20823
0.210863
0.213156
0.215082
0.216669
0.217964
0.219015
0.219866
0.220552
0.221105
0.22155
0.221907
0.222191
0.222416
0.222592
0.222726
0.222824
0.222893
0.222937
0.222958
0.22296
0.222946
0.222917
0.222875
0.222821
0.222758
0.222686
0.222606
0.222518
0.222425
0.202133
0.209236
0.216717
0.222799
0.227378
0.23075
0.233208
0.234988
0.236273
0.237193
0.237847
0.238306
0.238619
0.238825
0.238946
0.239003
0.239008
0.238971
0.2389
0.238799
0.238674
0.238527
0.238362
0.238181
0.237986
0.237778
0.237559
0.237331
0.237094
0.23685
0.236599
0.236343
0.236082
0.208298
0.22678
0.244129
0.257372
0.266317
0.271773
0.274802
0.276303
0.276882
0.276921
0.276649
0.276201
0.275653
0.275051
0.274417
0.273765
0.273101
0.272428
0.271747
0.27106
0.270365
0.269665
0.268959
0.268248
0.267533
0.266815
0.266095
0.265374
0.264653
0.263933
0.263215
0.2625
0.261789
0.245775
0.310442
0.343758
0.358932
0.365582
0.368297
0.368993
0.368462
0.367138
0.3653
0.363136
0.360774
0.358305
0.355793
0.353284
0.350808
0.348387
0.346036
0.343763
0.341573
0.339469
0.337451
0.33552
0.333674
0.33191
0.330227
0.328621
0.32709
0.32563
0.32424
0.322916
0.321656
0.320455
0.214305
0.253643
0.294732
0.333812
0.370031
0.403432
0.434077
0.462012
0.487322
0.510132
0.530592
0.548864
0.565116
0.579516
0.592227
0.603409
0.613209
0.621766
0.629207
0.63565
0.641202
0.64596
0.650011
0.653433
0.656298
0.658668
0.660601
0.662146
0.663349
0.66425
0.664885
0.665284
0.665483
0.747978
0.847976
1.00712
1.19406
1.38611
1.56964
1.73797
1.88472
2.00412
2.09383
2.15541
2.19332
2.2133
2.22076
2.22011
2.21446
2.20582
2.1953
2.18351
2.17077
2.15732
2.14333
2.12898
2.11438
2.09961
2.08468
2.06955
2.05412
2.03824
2.02175
2.00448
1.98624
1.96687
1.94614
1.92389
1.89997
1.87425
1.84664
1.81708
1.78552
1.75197
1.71643
1.67899
1.63975
1.59888
1.55659
1.51312
1.46875
1.42378
1.37853
1.33334
1.28853
1.24445
1.20142
1.15973
1.11969
1.08157
1.04562
1.01208
0.98112
0.952913
0.927566
0.905139
0.885642
0.869038
0.855245
0.844148
0.835611
0.829483
0.825606
0.823826
0.823986
0.825932
0.829508
0.834556
0.840913
0.848412
0.856882
0.866145
0.876021
0.886326
0.896875
0.907485
0.917979
0.928192
0.937975
0.947194
0.955736
0.963504
0.97042
0.976417
0.981449
0.985469
0.988465
0.990396
0.991285
0.991119
0.989846
0.988032
0.983745
0.440579
0.450289
0.471144
0.505941
0.554941
0.618168
0.695653
0.786561
0.888865
0.998571
1.10969
1.21735
1.31766
1.40779
1.48613
1.55202
1.60569
1.64793
1.68005
1.70353
1.71977
1.73001
1.73535
1.73666
1.73461
1.72974
1.72245
1.71302
1.70166
1.68851
1.67364
1.65712
1.63896
1.61916
1.5977
1.57457
1.54975
1.52326
1.4951
1.46533
1.43401
1.40122
1.36709
1.33177
1.29545
1.25833
1.22066
1.1827
1.14472
1.10699
1.0698
1.03341
0.998065
0.964012
0.931469
0.900639
0.871705
0.844832
0.82016
0.797804
0.777851
0.76035
0.745317
0.732729
0.72253
0.714634
0.708937
0.70532
0.70366
0.703834
0.705723
0.709208
0.714175
0.720509
0.728089
0.736792
0.746487
0.75704
0.768305
0.78013
0.792359
0.804829
0.817375
0.829832
0.842047
0.853877
0.865192
0.87588
0.88584
0.89499
0.903256
0.910585
0.91692
0.922241
0.926498
0.929703
0.931836
0.932853
0.93317
0.931919
0.335321
0.330804
0.327075
0.324849
0.325126
0.328863
0.33701
0.350585
0.370813
0.398941
0.435618
0.480997
0.534617
0.595389
0.661687
0.731445
0.802255
0.871598
0.937329
0.997295
1.05034
1.09602
1.13437
1.16574
1.19064
1.20979
1.22379
1.23318
1.23845
1.24005
1.23836
1.2337
1.22632
1.21645
1.20428
1.18995
1.17362
1.15543
1.13551
1.11399
1.09104
1.0668
1.04146
1.01518
0.988184
0.960675
0.932881
0.905032
0.877359
0.850086
0.823429
0.797587
0.772744
0.749067
0.726705
0.705791
0.686444
0.668767
0.652847
0.638754
0.626537
0.616221
0.607806
0.601269
0.596561
0.593615
0.592355
0.592693
0.594545
0.597826
0.602458
0.608364
0.61547
0.623699
0.632971
0.643199
0.654291
0.666149
0.678659
0.6917
0.705144
0.718852
0.732676
0.74647
0.760092
0.773408
0.786292
0.798631
0.810325
0.821284
0.831428
0.840697
0.849023
0.856373
0.862691
0.867976
0.872199
0.875321
0.877612
0.879206
0.316776
0.311657
0.306654
0.301816
0.297286
0.293225
0.289831
0.287355
0.286158
0.286567
0.289027
0.294041
0.302136
0.313807
0.329515
0.34958
0.374173
0.403127
0.436077
0.472139
0.510277
0.54918
0.587738
0.624651
0.659196
0.690571
0.718243
0.742119
0.762161
0.778489
0.791262
0.800659
0.806896
0.810193
0.810771
0.808847
0.804631
0.798324
0.790124
0.780224
0.768815
0.756088
0.742237
0.727457
0.711944
0.695899
0.67952
0.663003
0.646536
0.630298
0.614455
0.599156
0.584537
0.570717
0.557803
0.545888
0.535055
0.525378
0.516922
0.509739
0.503868
0.499335
0.496147
0.494294
0.493751
0.494479
0.496431
0.499558
0.503811
0.509143
0.515512
0.522879
0.531203
0.540443
0.550555
0.561486
0.573178
0.585564
0.598563
0.612085
0.626027
0.640274
0.654701
0.669182
0.683585
0.697787
0.711668
0.725119
0.738035
0.750325
0.761904
0.772698
0.782634
0.791666
0.799728
0.806803
0.812857
0.817848
0.821912
0.826101
0.30024
0.296664
0.293113
0.289572
0.286047
0.282566
0.279167
0.275898
0.272829
0.270045
0.26764
0.265719
0.264419
0.263903
0.264367
0.266024
0.26912
0.273879
0.280531
0.289214
0.300007
0.312819
0.327512
0.343732
0.361154
0.379289
0.397639
0.415673
0.433009
0.449239
0.464019
0.477165
0.488537
0.498064
0.505736
0.511581
0.515662
0.518066
0.518901
0.518285
0.516351
0.513235
0.509083
0.504042
0.498263
0.491898
0.485096
0.478006
0.470768
0.463517
0.456374
0.449454
0.442858
0.436674
0.430986
0.425865
0.421379
0.417589
0.414551
0.412314
0.41092
0.4104
0.410773
0.412047
0.414216
0.417268
0.421182
0.425937
0.431513
0.437891
0.445057
0.453
0.461706
0.471162
0.48135
0.492247
0.503824
0.516039
0.528843
0.542172
0.555948
0.57008
0.584466
0.599002
0.613572
0.628062
0.642362
0.656367
0.669972
0.683087
0.695619
0.707489
0.718613
0.728934
0.738377
0.74691
0.75449
0.761071
0.766667
0.773147
0.280167
0.278052
0.275911
0.273734
0.271512
0.269248
0.266958
0.264655
0.262357
0.260086
0.257866
0.255726
0.253696
0.251818
0.250139
0.248719
0.247628
0.246949
0.246775
0.247203
0.248331
0.25024
0.253001
0.256644
0.261183
0.266579
0.272767
0.279608
0.286974
0.294682
0.302534
0.310336
0.317907
0.325089
0.331744
0.337766
0.343077
0.347628
0.351396
0.354382
0.356609
0.358113
0.358947
0.359174
0.358868
0.358107
0.356975
0.355557
0.353939
0.352204
0.350433
0.348701
0.347078
0.345628
0.344412
0.343484
0.342897
0.342703
0.342948
0.343678
0.344933
0.346746
0.349142
0.352138
0.35574
0.359951
0.364766
0.370182
0.376197
0.382809
0.390022
0.397843
0.406275
0.415324
0.424993
0.43528
0.446181
0.457669
0.469722
0.482303
0.495356
0.508815
0.522601
0.536631
0.550807
0.565031
0.579201
0.593223
0.606995
0.620426
0.633423
0.6459
0.657769
0.66896
0.679392
0.689016
0.697784
0.705641
0.712491
0.720908
0.261538
0.260397
0.259215
0.257985
0.2567
0.255359
0.253968
0.252533
0.251061
0.24956
0.248039
0.246507
0.244974
0.243452
0.241956
0.240502
0.239109
0.237803
0.236613
0.235573
0.234721
0.234097
0.233743
0.233699
0.234
0.234676
0.235746
0.237218
0.239084
0.241321
0.243893
0.246747
0.249817
0.253035
0.256327
0.259619
0.262845
0.265944
0.268866
0.271574
0.274041
0.276253
0.278205
0.279904
0.281365
0.282611
0.283671
0.284579
0.285375
0.286098
0.28679
0.287492
0.288246
0.289089
0.290061
0.291199
0.29254
0.29412
0.295976
0.298142
0.300652
0.303533
0.306809
0.310495
0.314604
0.319141
0.324111
0.329515
0.335362
0.341659
0.348419
0.355656
0.363384
0.371621
0.380387
0.389685
0.399532
0.409917
0.420835
0.432272
0.444194
0.456559
0.469309
0.482382
0.495701
0.509185
0.522747
0.536303
0.549759
0.56303
0.576022
0.588649
0.60082
0.612456
0.623472
0.633805
0.643401
0.652197
0.659997
0.669956
0.246471
0.245902
0.245293
0.24464
0.243938
0.243185
0.242383
0.241534
0.240643
0.239713
0.238749
0.237753
0.236732
0.235689
0.234631
0.233563
0.232492
0.231425
0.230373
0.229345
0.228358
0.227426
0.226568
0.225803
0.225151
0.224633
0.22427
0.224078
0.224073
0.224264
0.224656
0.225249
0.226035
0.227
0.228126
0.229389
0.230764
0.232224
0.233743
0.235295
0.236861
0.238421
0.239963
0.241479
0.242964
0.244418
0.245848
0.247261
0.248671
0.250093
0.251543
0.253041
0.254607
0.256262
0.258027
0.259924
0.261976
0.264205
0.266637
0.269295
0.272201
0.275376
0.278836
0.282593
0.286657
0.291032
0.295724
0.300738
0.306082
0.311768
0.317812
0.324227
0.33104
0.338269
0.34594
0.354065
0.362668
0.371754
0.381331
0.3914
0.401947
0.41295
0.424374
0.436175
0.448298
0.460681
0.473255
0.485948
0.49868
0.511373
0.523939
0.536296
0.548352
0.560025
0.571229
0.581888
0.591945
0.601332
0.609769
0.620846
0.234967
0.234714
0.234429
0.234108
0.233748
0.233347
0.232904
0.232421
0.2319
0.231343
0.230752
0.230129
0.229478
0.2288
0.2281
0.227379
0.22664
0.225887
0.225122
0.22435
0.223576
0.222806
0.222049
0.221313
0.220607
0.219943
0.219333
0.218789
0.218322
0.217945
0.217667
0.217496
0.217441
0.217503
0.217685
0.217986
0.218402
0.218927
0.219556
0.22028
0.221091
0.221982
0.222947
0.223979
0.225075
0.226232
0.22745
0.228731
0.230078
0.231496
0.232992
0.234573
0.23625
0.238032
0.23993
0.241956
0.244124
0.246446
0.248938
0.251613
0.254486
0.257568
0.260868
0.264394
0.268149
0.272138
0.276362
0.280827
0.28554
0.29051
0.295754
0.301288
0.307137
0.31332
0.319862
0.326783
0.334108
0.341854
0.350036
0.358666
0.367747
0.377272
0.387224
0.39758
0.408303
0.419351
0.430673
0.442214
0.453909
0.46569
0.477482
0.489208
0.500782
0.512124
0.523148
0.533771
0.543936
0.55357
0.562332
0.574094
0.226336
0.226255
0.226149
0.226015
0.225851
0.225654
0.225426
0.225164
0.224871
0.224548
0.224196
0.223817
0.223412
0.222984
0.222535
0.222066
0.221579
0.221074
0.220555
0.220022
0.219478
0.218924
0.218366
0.217806
0.21725
0.216703
0.216173
0.215665
0.215187
0.214748
0.214355
0.214017
0.213742
0.213535
0.213405
0.213355
0.21339
0.213514
0.213728
0.214035
0.214434
0.214925
0.21551
0.216186
0.216954
0.217814
0.218767
0.219814
0.220956
0.222197
0.223539
0.224987
0.226545
0.228218
0.230012
0.231933
0.233989
0.236188
0.238536
0.241042
0.243713
0.246554
0.249567
0.252756
0.25612
0.259659
0.263374
0.267268
0.271346
0.275615
0.280091
0.284788
0.289725
0.294924
0.300407
0.306196
0.312317
0.31879
0.325638
0.332876
0.34052
0.348573
0.357036
0.365899
0.375144
0.384746
0.394673
0.404886
0.415336
0.425972
0.43673
0.447544
0.45834
0.469039
0.479564
0.48983
0.499781
0.509339
0.518129
0.530153
0.219851
0.219862
0.219853
0.219823
0.21977
0.219692
0.219589
0.219461
0.219308
0.21913
0.218929
0.218707
0.218463
0.218201
0.217921
0.217625
0.217315
0.21699
0.216651
0.216301
0.215939
0.215567
0.215187
0.214801
0.214412
0.214022
0.213636
0.213257
0.21289
0.21254
0.212213
0.211915
0.211651
0.211429
0.211255
0.211134
0.211073
0.211077
0.211152
0.211302
0.211531
0.211844
0.212243
0.212732
0.213313
0.213989
0.214762
0.215634
0.216608
0.217687
0.218873
0.220168
0.221576
0.2231
0.224743
0.226509
0.228401
0.230423
0.23258
0.234873
0.237306
0.239878
0.242589
0.245436
0.248416
0.251527
0.254768
0.258137
0.26164
0.265282
0.269073
0.273027
0.277159
0.281488
0.286034
0.290819
0.295866
0.301198
0.306837
0.312806
0.319122
0.325799
0.332848
0.34027
0.348062
0.356214
0.36471
0.373526
0.382631
0.391987
0.401547
0.411258
0.421057
0.430876
0.440648
0.450288
0.459748
0.468946
0.477496
0.489388
0.214931
0.214988
0.215031
0.215057
0.215067
0.215058
0.215029
0.214981
0.214913
0.214826
0.214721
0.214599
0.21446
0.214308
0.214141
0.213963
0.213773
0.213573
0.213363
0.213145
0.212917
0.212683
0.212442
0.212196
0.211947
0.211696
0.211446
0.2112
0.210959
0.210729
0.210511
0.210312
0.210135
0.209985
0.209869
0.20979
0.209755
0.209769
0.209839
0.209969
0.210165
0.210431
0.210773
0.211194
0.211699
0.212292
0.212975
0.213753
0.214628
0.215604
0.216683
0.217867
0.219159
0.22056
0.222074
0.223702
0.225445
0.227306
0.229286
0.231383
0.233598
0.235926
0.238364
0.240907
0.24355
0.246288
0.249117
0.252036
0.255047
0.258153
0.261361
0.264683
0.268131
0.27172
0.275468
0.279395
0.28352
0.287867
0.292457
0.297312
0.302454
0.307902
0.31367
0.319769
0.326207
0.332985
0.340099
0.347538
0.355287
0.363322
0.371611
0.380114
0.388785
0.397565
0.4064
0.415213
0.423962
0.432568
0.44065
0.452066
0.211148
0.211228
0.211297
0.211353
0.211397
0.211426
0.211441
0.21144
0.211425
0.211395
0.21135
0.211293
0.211224
0.211143
0.211053
0.210954
0.210848
0.210734
0.210615
0.210489
0.210359
0.210225
0.210088
0.209948
0.209808
0.209668
0.20953
0.209396
0.209267
0.209147
0.209038
0.208944
0.208867
0.208812
0.208783
0.208784
0.208821
0.208898
0.20902
0.209193
0.209421
0.20971
0.210065
0.210489
0.210987
0.211564
0.212224
0.21297
0.213805
0.214732
0.215754
0.216874
0.218093
0.219414
0.220836
0.222362
0.223992
0.225726
0.227563
0.2295
0.231534
0.233659
0.23587
0.238159
0.24052
0.242946
0.245433
0.247978
0.25058
0.253241
0.255967
0.258765
0.261645
0.26462
0.267704
0.270914
0.274269
0.277787
0.28149
0.285399
0.289534
0.293917
0.298566
0.303497
0.308722
0.314251
0.32009
0.326237
0.332691
0.339437
0.34646
0.353731
0.361219
0.368879
0.376668
0.38452
0.392404
0.400243
0.407678
0.418337
0.208206
0.208294
0.208373
0.208444
0.208504
0.208554
0.208593
0.208621
0.208637
0.208642
0.208636
0.208621
0.208597
0.208565
0.208526
0.208481
0.208432
0.208378
0.208322
0.208263
0.208202
0.208141
0.20808
0.208019
0.207961
0.207906
0.207855
0.20781
0.207773
0.207745
0.20773
0.207728
0.207744
0.20778
0.20784
0.207928
0.208047
0.208202
0.208397
0.208637
0.208926
0.209268
0.209669
0.210132
0.210662
0.211263
0.211938
0.21269
0.213525
0.214443
0.215448
0.216541
0.217724
0.218999
0.220365
0.221824
0.223375
0.225016
0.226745
0.228558
0.230449
0.232412
0.23444
0.236524
0.238656
0.240829
0.243037
0.245276
0.247544
0.249842
0.252173
0.254543
0.256959
0.259431
0.261971
0.264593
0.267312
0.270146
0.273113
0.276232
0.279524
0.283008
0.286704
0.29063
0.294801
0.299233
0.303936
0.308918
0.314182
0.319727
0.325547
0.331625
0.337943
0.344467
0.35117
0.357995
0.364922
0.371882
0.378545
0.388235
0.205893
0.20598
0.206062
0.206137
0.206204
0.206264
0.206316
0.206359
0.206393
0.20642
0.206438
0.20645
0.206455
0.206455
0.20645
0.206443
0.206433
0.206421
0.206409
0.206397
0.206386
0.206377
0.206371
0.206369
0.206372
0.206381
0.206397
0.206422
0.206457
0.206504
0.206564
0.20664
0.206735
0.206851
0.20699
0.207157
0.207354
0.207586
0.207855
0.208166
0.208523
0.208929
0.209389
0.209907
0.210485
0.211128
0.211839
0.212622
0.213478
0.214411
0.215423
0.216514
0.217687
0.218942
0.220279
0.221698
0.223197
0.224773
0.226424
0.228143
0.229924
0.231761
0.233643
0.235562
0.23751
0.239479
0.241462
0.243453
0.245451
0.247455
0.249467
0.251489
0.253528
0.255591
0.257689
0.259832
0.262033
0.264308
0.266671
0.269141
0.271736
0.274473
0.277373
0.280453
0.28373
0.287221
0.29094
0.294899
0.299108
0.303571
0.30829
0.313259
0.318469
0.323898
0.32953
0.335319
0.341257
0.347283
0.353103
0.361686
0.204062
0.204144
0.204222
0.204295
0.204363
0.204426
0.204482
0.204533
0.204577
0.204616
0.204649
0.204677
0.204702
0.204723
0.204741
0.204758
0.204775
0.204793
0.204812
0.204833
0.204858
0.204887
0.204921
0.204962
0.20501
0.205067
0.205134
0.205212
0.205303
0.205407
0.205528
0.205667
0.205826
0.206008
0.206215
0.206449
0.206715
0.207015
0.207352
0.20773
0.208152
0.208622
0.209142
0.209716
0.210348
0.21104
0.211796
0.212617
0.213507
0.214467
0.215499
0.216604
0.217782
0.219033
0.220358
0.221754
0.22322
0.224752
0.226345
0.227994
0.229691
0.231428
0.233195
0.234983
0.236783
0.238587
0.240388
0.24218
0.243959
0.245725
0.247477
0.249218
0.250952
0.252684
0.254423
0.256178
0.257959
0.259779
0.261652
0.263593
0.265618
0.267743
0.269986
0.272364
0.274895
0.277595
0.280479
0.283563
0.286857
0.290372
0.294115
0.298085
0.302282
0.306694
0.311313
0.316106
0.32107
0.326157
0.331112
0.338519
0.202607
0.202681
0.202752
0.20282
0.202885
0.202946
0.203002
0.203055
0.203104
0.203148
0.20319
0.203228
0.203264
0.203298
0.203332
0.203365
0.203401
0.203438
0.203478
0.203523
0.203573
0.203629
0.203693
0.203765
0.203846
0.203939
0.204044
0.204162
0.204295
0.204444
0.204612
0.2048
0.20501
0.205245
0.205507
0.205797
0.20612
0.206478
0.206873
0.20731
0.207789
0.208315
0.208891
0.209519
0.210202
0.210942
0.211742
0.212604
0.21353
0.214521
0.215579
0.216703
0.217893
0.21915
0.220472
0.221857
0.223301
0.224802
0.226352
0.227947
0.229577
0.231234
0.232908
0.23459
0.236271
0.237941
0.239593
0.241223
0.242825
0.244397
0.245938
0.247451
0.248937
0.250401
0.25185
0.25329
0.254731
0.256184
0.25766
0.259172
0.260733
0.26236
0.264067
0.26587
0.267786
0.26983
0.272018
0.274365
0.276883
0.279586
0.282482
0.285577
0.288875
0.29237
0.296063
0.29993
0.303973
0.308157
0.312264
0.318487
0.201453
0.201517
0.201579
0.20164
0.201698
0.201754
0.201808
0.20186
0.201909
0.201955
0.202
0.202043
0.202086
0.202128
0.202171
0.202216
0.202263
0.202313
0.202368
0.202429
0.202496
0.202572
0.202656
0.20275
0.202856
0.202974
0.203107
0.203254
0.203419
0.203602
0.203806
0.204032
0.204282
0.204558
0.204862
0.205198
0.205566
0.205971
0.206414
0.206898
0.207426
0.208
0.208623
0.209297
0.210025
0.210808
0.211648
0.212547
0.213507
0.214528
0.21561
0.216754
0.217958
0.219223
0.220545
0.221922
0.223352
0.224827
0.226344
0.227894
0.229469
0.23106
0.232657
0.234251
0.235832
0.237392
0.238922
0.240418
0.241873
0.243286
0.244656
0.245982
0.247266
0.248512
0.249725
0.250911
0.252078
0.253233
0.254388
0.255553
0.256741
0.257964
0.259236
0.260572
0.261985
0.263491
0.265105
0.26684
0.268711
0.270729
0.272906
0.27525
0.277767
0.280459
0.283328
0.286359
0.28956
0.292903
0.296212
0.301291
0.200544
0.200596
0.200649
0.2007
0.200751
0.200801
0.20085
0.200898
0.200944
0.20099
0.201036
0.201081
0.201126
0.201173
0.201221
0.201272
0.201326
0.201385
0.20145
0.201521
0.2016
0.201688
0.201787
0.201896
0.202019
0.202155
0.202307
0.202476
0.202664
0.202871
0.203101
0.203355
0.203634
0.203941
0.204278
0.204648
0.205052
0.205493
0.205973
0.206495
0.207061
0.207673
0.208334
0.209045
0.209809
0.210626
0.2115
0.21243
0.213417
0.214462
0.215564
0.216724
0.21794
0.21921
0.220532
0.221902
0.223316
0.22477
0.226255
0.227766
0.229292
0.230826
0.232356
0.233874
0.23537
0.236836
0.238263
0.239646
0.240979
0.242261
0.243487
0.24466
0.245778
0.246846
0.247867
0.248846
0.249789
0.250704
0.251599
0.252485
0.253371
0.254268
0.255189
0.256147
0.257153
0.258222
0.259367
0.260601
0.261937
0.263387
0.264962
0.266672
0.268525
0.270525
0.272678
0.274975
0.277425
0.280008
0.282587
0.286599
0.199836
0.199878
0.19992
0.199962
0.200005
0.200048
0.200091
0.200134
0.200176
0.20022
0.200263
0.200308
0.200354
0.200402
0.200453
0.200507
0.200565
0.200629
0.200699
0.200777
0.200863
0.200959
0.201066
0.201186
0.201319
0.201467
0.201632
0.201815
0.202018
0.202243
0.202491
0.202764
0.203063
0.203392
0.203753
0.204146
0.204576
0.205043
0.20555
0.206099
0.206693
0.207333
0.208022
0.208761
0.209551
0.210394
0.211291
0.212243
0.21325
0.214312
0.215428
0.216597
0.217818
0.219088
0.220405
0.221764
0.223161
0.22459
0.226045
0.227516
0.228997
0.230476
0.231946
0.233395
0.234815
0.236198
0.237535
0.238821
0.24005
0.241219
0.242326
0.243369
0.24435
0.24527
0.246133
0.246942
0.247704
0.248423
0.249109
0.249768
0.250411
0.251046
0.251685
0.252338
0.253016
0.253732
0.254497
0.255324
0.256223
0.257206
0.258285
0.259468
0.260764
0.26218
0.263722