/*--------------------------------*- C++ -*----------------------------------*\
  =========                 |
  \\      /  F ield         | OpenFOAM: The Open Source CFD Toolbox
   \\    /   O peration     | Website:  https://openfoam.org
    \\  /    A nd           | Version:  10
     \\/     M anipulation  |
\*---------------------------------------------------------------------------*/
FoamFile
{
    format      ascii;
    class       volScalarField;
    location    "800";
    object      omega;
}
// * * * * * * * * * * * * * * * * * * * * * * * * * * * * * * * * * * * * * //

dimensions      [0 0 -1 0 0 0 0];

internalField   nonuniform List<scalar> 
6820
(
6119.65
8495.53
9975.17
10745.8
11095.1
11205.2
11181.5
11085.3
10953.1
10806.8
10658.4
10514.8
10379.1
10252.8
10136.1
10028.7
9930.09
9839.52
9756.27
9679.65
9608.99
9543.71
9483.27
9427.18
9375.03
9326.43
9281.02
9238.51
9198.5
9161.32
9123.15
9103.16
8991.66
563.863
1593.66
2118.99
2485.29
2810.04
3047.21
3202.64
3297.98
3354.17
3382.65
3395.35
3394.49
3390.56
3382.29
3371.89
3361.05
3350.52
3340.7
3331.85
3324.04
3317.31
3311.6
3306.89
3303.06
3300.12
3297.89
3296.44
3295.64
3295.85
3296.58
3298.37
3301.26
3311.48
97.8512
383.671
612.514
783.211
925.912
1044.15
1139.72
1215.41
1275.18
1321.46
1357.37
1384.53
1405.16
1420.61
1432.05
1440.37
1446.35
1450.52
1453.37
1455.22
1456.38
1457.03
1457.37
1457.5
1457.53
1457.56
1457.63
1457.79
1458.13
1458.57
1459.52
1460.36
1462.81
35.0872
109.689
194.406
270.89
340.029
401.75
456.059
503.312
544.328
579.675
610.092
636.128
658.405
677.423
693.68
707.536
719.395
729.496
738.174
745.561
751.953
757.384
762.144
766.169
769.778
772.793
775.609
777.908
780.208
782.025
784.035
785.6
787.576
22.8645
46.9745
78.9735
111.645
143.697
174.308
202.955
229.405
253.675
275.804
295.908
314.1
330.538
345.355
358.716
370.736
381.575
391.321
400.123
408.038
415.209
421.658
427.529
432.808
437.648
441.995
446.02
449.63
453.018
456.057
458.956
461.579
464.131
19.4482
28.8211
42.7198
57.8276
73.3611
88.8415
103.932
118.422
132.214
145.247
157.503
168.976
179.69
189.667
198.948
207.564
215.565
222.981
229.864
236.24
242.161
247.645
252.747
257.473
261.879
265.964
269.785
273.331
276.661
279.76
282.686
285.421
288.021
18.2937
22.3026
29.0894
36.8342
45.0409
53.4275
61.8036
70.042
78.0648
85.8188
93.2711
100.401
107.199
113.664
119.8
125.611
131.111
136.309
141.22
145.854
150.231
154.358
158.255
161.93
165.402
168.677
171.775
174.699
177.47
180.09
182.578
184.937
187.183
17.8628
19.6407
23.1435
27.4253
32.1054
36.9869
41.946
46.901
51.7981
56.5996
61.2794
65.8192
70.2076
74.4371
78.5044
82.4079
86.1493
89.7299
93.1546
96.4262
99.5512
102.533
105.38
108.095
110.685
113.156
115.514
117.764
119.912
121.964
123.925
125.799
127.594
17.6921
18.5022
20.2904
22.7591
25.5623
28.5575
31.6531
34.789
37.925
41.0328
44.0924
47.0892
50.0133
52.8576
55.6174
58.2897
60.8733
63.3674
65.7726
68.0899
70.3209
72.4673
74.5316
76.5159
78.4232
80.2557
82.0167
83.7085
85.3343
86.8966
88.3986
89.8425
91.2312
17.6213
17.9912
18.8824
20.3079
22.0195
23.9107
25.9093
27.9667
30.05
32.1359
34.2079
36.254
38.2654
40.2358
42.1607
44.0369
45.8624
47.6356
49.3561
51.0236
52.6383
54.2008
55.7119
57.1726
58.5839
59.9472
61.2638
62.535
63.7624
64.9473
66.0914
67.1958
68.2621
17.591
17.7573
18.1874
18.9891
20.029
21.2312
22.54
23.916
25.3312
26.7655
28.2045
29.6375
31.0565
32.4559
33.8312
35.1793
36.4979
37.7854
39.0406
40.2629
41.452
42.6076
43.7301
44.8197
45.8767
46.9019
47.8957
48.8589
49.7923
50.6966
51.5725
52.4209
53.2425
17.5777
17.6499
17.8528
18.2782
18.8974
19.6531
20.5077
21.4311
22.4002
23.3977
24.4109
25.43
26.4478
27.4588
28.4588
29.4446
30.4138
31.3647
32.296
33.2066
34.0961
34.9639
35.8098
36.6338
37.436
38.2164
38.9755
39.7134
40.4305
41.1273
41.804
42.4612
43.0993
17.5717
17.6008
17.6934
17.9051
18.2597
18.7223
19.2706
19.8837
20.5439
21.2371
21.9523
22.6808
23.416
24.1527
24.8868
25.6153
26.3357
27.0461
27.7452
28.4317
29.105
29.7643
30.4092
31.0395
31.655
32.2557
32.8416
33.4126
33.9691
34.5111
35.0388
35.5524
36.0522
17.5685
17.5785
17.6181
17.7167
17.9085
18.1807
18.5221
18.92
19.3623
19.8384
20.3392
20.8575
21.3874
21.9242
22.4641
23.0041
23.5418
24.0753
24.6031
25.124
25.6371
26.1416
26.6369
27.1227
27.5986
28.0645
28.5201
28.9655
29.4006
29.8254
30.2399
30.6443
31.0387
17.5667
17.5684
17.5829
17.6262
17.7205
17.8733
18.0775
18.3273
18.6156
18.9354
19.2799
19.6435
20.0213
20.4092
20.8038
21.2024
21.6026
22.0027
22.4011
22.7965
23.1881
23.5749
23.9563
24.3318
24.7011
25.0637
25.4195
25.7683
26.11
26.4444
26.7716
27.0915
27.4041
17.5661
17.5629
17.5666
17.5833
17.6249
17.7047
17.8205
17.9706
18.1518
18.3599
18.5907
18.8401
19.1043
19.38
19.6645
19.9553
20.2503
20.5479
20.8466
21.1452
21.4427
21.7382
22.0312
22.321
22.6071
22.8892
23.167
23.4402
23.7087
23.9723
24.2308
24.4843
24.7326
17.5661
17.5601
17.5585
17.5631
17.5791
17.6155
17.6769
17.7623
17.8709
18.001
18.1502
18.3159
18.4957
18.6871
18.8878
19.096
19.31
19.5281
19.7492
19.9721
20.1959
20.4197
20.643
20.865
21.0854
21.3037
21.5196
21.7328
21.9431
22.1502
22.3541
22.5545
22.7514
17.5661
17.5591
17.5541
17.5533
17.5575
17.5711
17.5997
17.6448
17.7061
17.7833
17.8755
17.9813
18.0994
18.228
18.3657
18.511
18.6625
18.8191
18.9796
19.1431
19.3088
19.476
19.6439
19.8121
19.98
20.1473
20.3136
20.4787
20.6421
20.8039
20.9636
21.1213
21.2767
17.5662
17.5588
17.5523
17.5479
17.5469
17.5501
17.5603
17.5811
17.6128
17.6556
17.7093
17.7736
17.8477
17.9307
18.0218
18.1198
18.224
18.3333
18.4469
18.5641
18.6842
18.8066
18.9306
19.0559
19.1819
19.3083
19.4348
19.561
19.6867
19.8117
19.9357
20.0587
20.1804
17.5662
17.5587
17.5517
17.5456
17.5413
17.5397
17.5415
17.5482
17.5621
17.5834
17.6122
17.6487
17.6926
17.7435
17.801
17.8645
17.9334
18.0072
18.0851
18.1667
18.2515
18.3389
18.4285
18.5198
18.6126
18.7064
18.801
18.8961
18.9915
19.0869
19.1821
19.2769
19.3713
17.5662
17.5587
17.5515
17.5447
17.5388
17.5344
17.5319
17.5324
17.5359
17.5442
17.5577
17.5764
17.6003
17.6295
17.6637
17.7028
17.7463
17.794
17.8455
17.9005
17.9585
18.0192
18.0822
18.1473
18.2142
18.2825
18.3521
18.4226
18.4938
18.5657
18.6379
18.7104
18.7829
17.5662
17.5587
17.5514
17.5444
17.5378
17.532
17.5272
17.5241
17.5231
17.5243
17.5283
17.5362
17.5475
17.5627
17.5815
17.604
17.63
17.6595
17.6921
17.7278
17.7663
17.8073
17.8507
17.8961
17.9434
17.9923
18.0428
18.0944
18.1472
18.2009
18.2553
18.3103
18.3659
17.5662
17.5587
17.5514
17.5442
17.5374
17.531
17.5251
17.5202
17.5164
17.5141
17.5138
17.5151
17.5189
17.5255
17.5347
17.5466
17.5613
17.5787
17.5987
17.6213
17.6464
17.6737
17.7032
17.7347
17.7681
17.8031
17.8398
17.8778
17.917
17.9574
17.9988
18.041
18.084
17.5662
17.5587
17.5514
17.5442
17.5372
17.5306
17.5243
17.5185
17.5135
17.5094
17.5065
17.505
17.5052
17.5068
17.5105
17.5164
17.5245
17.5348
17.5473
17.5619
17.5787
17.5975
17.6184
17.6411
17.6656
17.6917
17.7195
17.7486
17.7791
17.8108
17.8436
17.8775
17.9121
17.5662
17.5587
17.5513
17.5442
17.5372
17.5304
17.524
17.518
17.5126
17.5078
17.5041
17.5014
17.5002
17.5004
17.5018
17.5051
17.5104
17.5177
17.5269
17.5381
17.5511
17.5661
17.583
17.6016
17.622
17.644
17.6675
17.6924
17.7187
17.7462
17.7749
17.8046
17.8352
17.5662
17.5587
17.5513
17.5442
17.5372
17.5305
17.5242
17.5183
17.5132
17.5088
17.5055
17.5034
17.5028
17.5035
17.5056
17.5097
17.5158
17.5238
17.5337
17.5456
17.5594
17.575
17.5925
17.6117
17.6326
17.6551
17.6791
17.7045
17.7311
17.759
17.788
17.8181
17.849
17.5662
17.5587
17.5513
17.5442
17.5374
17.5309
17.5251
17.52
17.5159
17.5131
17.5117
17.5122
17.5141
17.5183
17.5246
17.5331
17.5437
17.5566
17.5716
17.5888
17.608
17.6292
17.6522
17.677
17.7035
17.7316
17.7611
17.7919
17.824
17.8572
17.8913
17.9264
17.9624
17.5662
17.5587
17.5514
17.5444
17.5379
17.5322
17.5276
17.5243
17.523
17.5238
17.5267
17.5327
17.5416
17.5534
17.5681
17.5857
17.6061
17.6292
17.6549
17.6831
17.7135
17.7461
17.7806
17.817
17.855
17.8944
17.9353
17.9773
18.0204
18.0644
18.1093
18.1548
18.201
17.5662
17.5587
17.5516
17.5451
17.5396
17.5357
17.5342
17.5354
17.5395
17.5482
17.5612
17.5785
17.6003
17.6263
17.6565
17.6905
17.7282
17.7692
17.8134
17.8603
17.9097
17.9613
18.015
18.0703
18.1272
18.1853
18.2446
18.3048
18.3657
18.4273
18.4893
18.5516
18.6142
17.5662
17.5589
17.5522
17.5473
17.5446
17.5455
17.5504
17.5615
17.5798
17.605
17.6371
17.6761
17.7215
17.7729
17.8299
17.8918
17.9581
18.0284
18.102
18.1786
18.2577
18.3389
18.4218
18.506
18.5914
18.6776
18.7644
18.8516
18.939
19.0265
19.1138
19.2008
19.2875
17.5662
17.5594
17.5546
17.5542
17.558
17.5696
17.5932
17.6282
17.6749
17.7329
17.8016
17.8801
17.9674
18.0624
18.164
18.2714
18.3835
18.4996
18.6189
18.7408
18.8645
18.9897
19.1159
19.2426
19.3696
19.4965
19.6231
19.7491
19.8744
19.9987
20.122
20.2442
20.3651
17.5663
17.5617
17.563
17.5718
17.595
17.6401
17.7055
17.7911
17.8954
18.0165
18.1523
18.3006
18.4593
18.6266
18.8007
18.9802
19.1638
19.3502
19.5387
19.7283
19.9185
20.1085
20.2979
20.4864
20.6735
20.859
21.0426
21.2241
21.4034
21.5803
21.7548
21.9268
22.0961
17.5672
17.57
17.5859
17.6276
17.711
17.8336
17.9919
18.1815
18.3976
18.6351
18.8897
19.1574
19.435
19.7198
20.0094
20.302
20.596
20.8902
21.1836
21.4753
21.7646
22.0511
22.3342
22.6137
22.8892
23.1606
23.4277
23.6903
23.9484
24.2019
24.4508
24.6951
24.9348
17.5716
17.5953
17.6662
17.8177
18.053
18.3543
18.7087
19.1036
19.5285
19.9745
20.4349
20.9044
21.3787
21.8548
22.3301
22.8027
23.2712
23.7345
24.1917
24.6422
25.0854
25.521
25.9488
26.3685
26.7802
27.1836
27.5788
27.9659
28.3448
28.7157
29.0787
29.4338
29.7812
17.5854
17.6974
17.9699
18.4419
19.0444
19.7381
20.4917
21.2821
22.0933
22.9141
23.7367
24.5557
25.3673
26.1688
26.9583
27.7344
28.4962
29.243
29.9745
30.6904
31.3907
32.0753
32.7443
33.3978
34.0361
34.6594
35.2678
35.8618
36.4415
37.0072
37.5593
38.0981
38.6239
17.6522
18.1438
19.1451
20.4574
21.9286
23.4776
25.0548
26.6331
28.1966
29.7371
31.25
32.7323
34.182
35.5983
36.9807
38.3291
39.6436
40.9246
42.1725
43.3878
44.5711
45.723
46.8442
47.9355
48.9974
50.0307
51.0362
52.0146
52.9667
53.8931
54.7945
55.6718
56.5256
18.0423
20.3419
23.6954
27.3243
30.9671
34.5343
37.9952
41.351
44.6032
47.7618
50.8283
53.8045
56.6925
59.4942
62.2115
64.8462
67.4002
69.8754
72.2738
74.5973
76.8479
79.0277
81.1387
83.183
85.1628
87.0799
88.9366
90.7348
92.4765
94.1636
95.7982
97.3819
98.9168
21.0783
32.2377
43.8848
55.0827
65.2654
74.723
83.6609
92.2515
100.529
108.499
116.17
123.546
130.634
137.44
143.973
150.24
156.25
162.01
167.532
172.822
177.893
182.751
187.407
191.869
196.147
200.248
204.182
207.956
211.578
215.055
218.394
221.602
224.685
63.2893
131.146
179.994
220.948
253.72
286.904
320.749
353.551
384.646
413.765
440.836
465.898
489.061
510.454
530.221
548.493
565.404
581.067
595.602
609.099
621.661
633.357
644.278
654.475
664.027
672.969
681.375
689.264
696.707
703.709
710.341
716.591
722.537
1672.14
1819.15
1960.96
2086.92
2197.23
2294.25
2379.79
2455.18
2521.53
2579.87
2631.09
2676.01
2715.34
2749.72
2779.71
2805.83
2828.53
2848.19
2865.18
2879.82
2892.37
2903.08
2912.17
2919.82
2926.22
2931.49
2935.79
2939.22
2941.89
2943.89
2945.3
2946.18
2946.62
8845.2
8360.97
7920.17
7383.29
6869.44
6392.41
5954.79
5557.22
5196.83
4869.23
4573.87
4306.61
4064.15
3843.91
3643.16
3459.8
3291.54
3137.06
2994.55
2863.04
2741.43
2628.85
2524.25
2426.84
2335.75
2250.17
2169.47
2093.04
2020.38
1950.97
1884.4
1820.31
1757.96
1697.3
1638.16
1580.32
1523.57
1467.72
1412.7
1358.28
1304.4
1251.03
1198.18
1145.9
1094.23
1043.23
992.991
943.617
895.246
848.024
802.1
757.623
714.73
673.545
634.173
596.704
561.21
527.755
496.389
467.149
440.055
415.101
392.253
371.451
352.599
335.586
320.279
306.543
294.238
283.236
273.412
264.657
256.863
249.941
243.788
238.333
233.475
229.151
225.287
221.811
218.672
215.812
213.191
210.754
208.469
206.297
204.214
202.183
200.2
198.229
196.279
194.31
192.37
190.364
188.447
186.339
184.518
182.135
180.634
177.482
3307.97
3347.28
3423.66
3488.88
3559.33
3637.83
3709.22
3767.3
3790.43
3782.29
3754.3
3694.02
3607.87
3503.72
3386.75
3262.33
3134.32
3007.16
2881.93
2761.96
2647.43
2538.65
2435.05
2336.83
2243.5
2154.6
2069.98
1989.26
1912.07
1838.05
1766.86
1698.25
1631.86
1567.46
1504.83
1443.79
1384.2
1325.91
1268.82
1212.85
1157.96
1104.11
1051.32
999.632
949.098
899.786
851.778
805.167
760.058
716.557
674.772
634.795
596.708
560.572
526.429
494.304
464.21
436.148
410.108
386.073
364.01
343.872
325.591
309.08
294.234
280.938
269.063
258.487
249.085
240.75
233.371
226.861
221.13
216.106
211.701
207.863
204.498
201.566
199.001
196.739
194.743
192.961
191.361
189.889
188.523
187.226
185.978
184.744
183.523
182.281
181.026
179.725
178.418
177.028
175.679
174.151
172.816
171.015
169.86
167.404
1464.69
1470.28
1481.79
1494.12
1507.4
1525.8
1550.6
1583.79
1625.95
1675.33
1731.41
1790.46
1849.72
1906.49
1956.72
1996.79
2024.3
2037.38
2034.38
2023.17
1998.46
1962.99
1918.88
1870.11
1816.74
1760.88
1704.13
1646.67
1589.01
1531.44
1474.37
1417.94
1362.3
1307.51
1253.6
1200.58
1148.47
1097.27
1047.01
997.712
949.424
902.201
856.105
811.21
767.591
725.33
684.506
645.202
607.496
571.461
537.161
504.644
473.943
445.071
418.027
392.794
369.346
347.65
327.664
309.346
292.642
277.491
263.819
251.546
240.575
230.809
222.144
214.481
207.723
201.787
196.588
192.063
188.14
184.771
181.878
179.434
177.351
175.618
174.166
172.947
171.937
171.089
170.378
169.747
169.19
168.67
168.167
167.651
167.124
166.549
165.936
165.257
164.541
163.732
162.92
161.947
161.075
159.838
159.021
157.243
789.428
792.186
795.793
799.144
801.724
804.332
807.152
810.906
815.8
822.977
832.859
846.57
863.951
885.928
911.457
940.952
971.931
1004.55
1034.76
1063.5
1087.62
1108.6
1121.87
1131.91
1131.81
1128.72
1120.67
1105.97
1086.44
1063.04
1036.82
1008.1
977.48
945.375
912.149
878.117
843.551
808.69
773.745
738.909
704.36
670.261
636.762
603.999
572.096
541.164
511.303
482.6
455.129
428.953
404.119
380.66
358.589
337.908
318.603
300.652
284.024
268.686
254.599
241.724
230.016
219.428
209.903
201.382
193.795
187.075
181.147
175.944
171.397
167.453
164.049
161.148
158.697
156.664
154.99
153.666
152.607
151.837
151.276
150.894
150.681
150.595
150.609
150.67
150.789
150.922
151.053
151.154
151.23
151.243
151.199
151.078
150.896
150.618
150.301
149.842
149.403
148.699
148.204
147.071
466.868
469.978
473.137
476.09
478.535
480.649
482.374
483.926
485.231
486.668
488.221
490.395
493.104
496.917
501.61
507.817
515.099
524.091
534.021
545.335
556.937
569.295
580.862
592.143
601.486
609.237
614.393
618.485
618.737
617.527
614.267
607.987
599.458
588.679
575.931
561.493
545.633
528.608
510.662
492.024
472.91
453.518
434.03
414.611
395.407
376.551
358.155
340.318
323.122
306.635
290.912
275.989
261.892
248.633
236.213
224.628
213.865
203.912
194.75
186.361
178.723
171.813
165.598
160.046
155.117
150.77
146.96
143.65
140.794
138.364
136.318
134.639
133.288
132.25
131.478
130.979
130.672
130.618
130.706
130.943
131.328
131.807
132.368
132.971
133.61
134.256
134.893
135.496
136.064
136.567
137.006
137.365
137.65
137.84
137.962
137.967
137.918
137.706
137.514
136.974
290.873
294.015
297.078
299.996
302.634
305.028
307.135
309.024
310.644
312.116
313.405
314.668
315.844
317.101
318.347
319.765
321.246
322.985
324.857
327.112
329.547
332.374
335.32
338.531
341.653
344.771
347.416
349.788
351.375
352.238
352.066
351.253
349.42
346.535
342.692
337.892
332.169
325.584
318.217
310.167
301.537
292.44
282.987
273.288
263.447
253.561
243.721
234.005
224.487
215.227
206.277
197.679
189.465
181.658
174.274
167.325
160.817
154.754
149.139
143.97
139.245
134.958
131.099
127.655
124.607
121.936
119.619
117.636
115.961
114.585
113.476
112.639
112.039
111.673
111.506
111.556
111.746
112.148
112.686
113.341
114.114
114.974
115.905
116.88
117.886
118.902
119.91
120.89
121.835
122.722
123.546
124.296
124.966
125.55
126.046
126.45
126.751
126.957
127.057
127.038
189.673
192.417
195.089
197.668
200.096
202.375
204.482
206.437
208.219
209.864
211.358
212.745
214.001
215.168
216.208
217.165
217.993
218.745
219.374
219.947
220.418
220.851
221.209
221.528
221.777
221.984
222.085
222.06
221.945
221.68
221.138
220.343
219.246
217.796
216.007
213.857
211.333
208.431
205.157
201.528
197.573
193.323
188.82
184.108
179.234
174.244
169.185
164.104
159.043
154.042
149.136
144.357
139.73
135.279
131.02
126.969
123.139
119.54
116.182
113.073
110.219
107.624
105.288
103.21
101.381
99.7967
98.4447
97.3176
96.4022
95.6985
95.1843
94.8759
94.7375
94.7774
94.9519
95.326
95.8295
96.4845
97.2657
98.1542
99.1446
100.218
101.361
102.554
103.782
105.028
106.277
107.509
108.714
109.876
110.983
112.027
112.995
113.892
114.69
115.423
116.015
116.583
116.918
117.377
129.597
131.814
133.988
136.105
138.143
140.094
141.948
143.708
145.365
146.929
148.394
149.772
151.052
152.242
153.326
154.311
155.173
155.924
156.54
157.038
157.395
157.637
157.734
157.703
157.589
157.345
156.988
156.517
155.94
155.265
154.475
153.568
152.539
151.376
150.075
148.63
147.037
145.292
143.394
141.346
139.153
136.824
134.371
131.808
129.153
126.424
123.642
120.828
118.002
115.185
112.398
109.657
106.981
104.383
101.876
99.4732
97.1849
95.0218
92.9935
91.1094
89.3769
87.8028
86.3904
85.1422
84.0572
83.1338
82.3682
81.7582
81.2985
80.993
80.8251
80.82
80.9141
81.1607
81.5438
82.0663
82.7064
83.4695
84.346
85.323
86.3942
87.5471
88.7714
90.0527
91.3777
92.7319
94.1018
95.4714
96.8277
98.1585
99.4479
100.692
101.869
102.994
104.018
105.007
105.827
106.693
107.214
108.083
92.7889
94.5234
96.233
97.9116
99.5483
101.137
102.672
104.151
105.57
106.931
108.23
109.47
110.646
111.756
112.793
113.754
114.628
115.413
116.096
116.679
117.148
117.511
117.752
117.885
117.872
117.792
117.599
117.282
116.868
116.354
115.75
115.053
114.271
113.403
112.451
111.418
110.305
109.115
107.848
106.508
105.1
103.626
102.094
100.509
98.8791
97.2128
95.5192
93.8084
92.0906
90.3765
88.6766
87.001
85.3593
83.7604
82.2127
80.7244
79.3032
77.9572
76.694
75.5211
74.445
73.4719
72.6055
71.8494
71.2045
70.6715
70.2498
69.9397
69.7415
69.658
69.6785
69.7913
70.0271
70.3729
70.8257
71.3909
72.0597
72.8326
73.7062
74.6732
75.7286
76.8644
78.0731
79.3445
80.6681
82.0325
83.4257
84.835
86.247
87.6521
89.0328
90.388
91.6895
92.9604
94.1351
95.3056
96.2895
97.3837
98.0431
99.245
69.4628
70.806
72.1366
73.4511
74.7438
76.0106
77.2477
78.4529
79.6236
80.7589
81.8567
82.9165
83.935
84.9102
85.837
86.7121
87.5284
88.2826
88.9666
89.5782
90.1086
90.5588
90.9182
91.1946
91.3699
91.4611
91.446
91.3733
91.2043
90.9406
90.6018
90.1824
89.6914
89.1302
88.5026
87.8129
87.0642
86.2604
85.4054
84.5031
83.5575
82.573
81.554
80.5053
79.4319
78.3389
77.2319
76.1169
74.9998
73.8871
72.7848
71.6992
70.6359
69.6008
68.5993
67.6369
66.7189
65.8512
65.0391
64.2883
63.6038
62.9907
62.4515
61.9904
61.6081
61.3063
61.0862
60.9493
60.8996
60.9259
61.0241
61.2203
61.502
61.8718
62.3292
62.8779
63.5155
64.242
65.0565
65.9559
66.9371
67.9956
69.1261
70.3223
71.5763
72.88
74.2234
75.597
76.9882
78.3901
79.7845
81.1732
82.5238
83.8659
85.1213
86.4017
87.4879
88.7406
89.4944
90.9462
54.1704
55.2125
56.249
57.278
58.2961
59.3007
60.2894
61.2601
62.2111
63.1411
64.0485
64.9322
65.7898
66.6196
67.4181
68.1824
68.9082
69.5922
70.2292
70.8163
71.3479
71.8227
72.2338
72.5834
72.8624
73.0776
73.2153
73.2945
73.2871
73.2377
73.1179
72.9228
72.6736
72.3628
71.9971
71.5799
71.1136
70.6021
70.0493
69.4588
68.8344
68.1801
67.4999
66.7979
66.0781
65.3446
64.6016
63.8533
63.1042
62.3585
61.6207
60.8949
60.1851
59.4954
58.8297
58.1918
57.5856
57.0154
56.485
55.9986
55.5601
55.1729
54.8391
54.5627
54.3436
54.1845
54.0872
54.055
54.0792
54.1598
54.3134
54.5343
54.8235
55.1833
55.6145
56.1198
56.6996
57.3547
58.0855
58.8912
59.7706
60.7215
61.7411
62.8257
63.9701
65.169
66.4147
67.7009
69.0164
70.3569
71.7049
73.0648
74.4022
75.7514
77.0264
78.3522
79.4851
80.8289
81.6384
83.2558
43.8217
44.6355
45.448
46.2575
47.0623
47.8605
48.6506
49.431
50.2004
50.9576
51.7014
52.4307
53.1438
53.8392
54.5147
55.168
55.7961
56.3966
56.966
57.5017
58
58.4589
58.8742
59.2455
59.5677
59.843
60.0639
60.2386
60.3533
60.4271
60.434
60.4071
60.3351
60.2017
60.0282
59.8119
59.5535
59.2579
58.9277
58.5653
58.1738
57.7572
57.3185
56.861
56.3882
55.9033
55.4099
54.9114
54.4112
53.9128
53.4194
52.9343
52.4607
52.0016
51.5599
51.1388
50.741
50.3699
50.0282
49.7191
49.4458
49.21
49.0138
48.8611
48.7502
48.6857
48.6699
48.6944
48.7647
48.8885
49.0629
49.2899
49.571
49.9084
50.3034
50.7584
51.2746
51.8534
52.496
53.203
53.9743
54.8097
55.7078
56.6672
57.6848
58.7575
59.8802
61.049
62.2549
63.4958
64.7557
66.0415
67.3184
68.6244
69.8693
71.1864
72.3184
73.6928
74.526
76.2273
36.6193
37.26
37.9015
38.5428
39.1827
39.8201
40.4538
41.0827
41.7058
42.3222
42.9309
43.531
44.1213
44.7006
45.2673
45.8198
46.3561
46.8743
47.372
47.8471
48.2973
48.7205
49.1141
49.4768
49.8056
50.1007
50.3581
50.5803
50.7613
50.9077
51.011
51.0788
51.109
51.0991
51.0632
50.986
50.8734
50.733
50.5632
50.3654
50.1433
49.8999
49.6373
49.358
49.0648
48.7605
48.4479
48.1298
47.809
47.4883
47.1703
46.8578
46.5531
46.2589
45.9776
45.7114
45.4626
45.234
45.0274
44.8456
44.6909
44.5635
44.4664
44.4029
44.3694
44.3743
44.4064
44.478
44.5863
44.7329
44.919
45.1461
45.4158
45.73
46.0901
46.4982
46.9558
47.4646
48.0261
48.6414
49.3116
50.0371
50.818
51.6541
52.5441
53.4868
54.4787
55.5183
56.5985
57.7195
58.8669
60.05
61.2347
62.4615
63.6396
64.9059
65.9996
67.3537
68.1834
69.898
31.487
31.9949
32.5048
33.0162
33.528
34.0397
34.5503
35.0591
35.5653
36.0682
36.567
37.061
37.5493
38.0311
38.5052
38.9703
39.4252
39.8684
40.2983
40.7133
41.1116
41.4919
41.8521
42.191
42.5067
42.7986
43.0643
43.3043
43.5158
43.7004
43.8557
43.9825
44.0817
44.1506
44.1961
44.2098
44.2001
44.1703
44.1124
44.0307
43.931
43.8138
43.6797
43.5311
43.3705
43.1998
43.0213
42.8375
42.6505
42.4625
42.2756
42.0921
41.914
41.7437
41.5826
41.4329
41.2964
41.1754
41.0707
40.9858
40.9212
40.8759
40.8553
40.8607
40.8847
40.939
41.0187
41.1259
41.2613
41.4261
41.6215
41.8489
42.1094
42.4047
42.7362
43.1056
43.5146
43.9646
44.4573
44.9941
45.5764
46.2052
46.8814
47.6056
48.3775
49.1974
50.0632
50.975
51.9274
52.9225
53.9477
55.0139
56.089
57.2146
58.3022
59.4879
60.5164
61.8116
62.6141
64.2872
27.7603
28.1649
28.5723
28.9819
29.3933
29.8059
30.2189
30.632
31.0445
31.4559
31.8655
32.2728
32.6773
33.078
33.4744
33.8654
34.2502
34.6277
34.9967
35.3561
35.7047
36.0413
36.3645
36.6733
36.9664
37.243
37.5016
37.7419
37.9625
38.1634
38.3438
38.5031
38.6421
38.7592
38.8571
38.9336
38.9903
39.0294
39.0508
39.0501
39.0395
39.0136
38.9722
38.9194
38.8569
38.7857
38.7078
38.6255
38.5399
38.4528
38.3662
38.2818
38.2013
38.1268
38.0589
37.9997
37.951
37.9143
37.89
37.8822
37.8884
37.9082
37.9485
38.0081
38.084
38.1805
38.2973
38.435
38.5944
38.7763
38.9818
39.2118
39.4676
39.7502
40.0611
40.4015
40.7729
41.1768
41.6146
42.0878
42.5979
43.1461
43.7337
44.3618
45.0308
45.7416
46.4934
47.2872
48.1192
48.9927
49.8967
50.8436
51.8034
52.8179
53.8028
54.8904
55.8367
57.0464
57.8039
59.3952
25.0161
25.3392
25.6654
25.9945
26.326
26.6594
26.9945
27.3307
27.6675
28.0047
28.3417
28.6782
29.0135
29.3472
29.6787
30.0075
30.3326
30.6536
30.9694
31.2794
31.5825
31.8779
32.1647
32.4421
32.709
32.9648
33.2085
33.4395
33.6572
33.8609
34.0504
34.225
34.3849
34.5295
34.6595
34.7745
34.8748
34.9613
35.0351
35.0941
35.1423
35.1799
35.2069
35.2246
35.2348
35.2376
35.2358
35.2308
35.2225
35.2132
35.2043
35.1971
35.1932
35.1944
35.2
35.213
35.2347
35.2658
35.3068
35.3599
35.4249
35.5013
35.5917
35.697
35.8159
35.9499
36.0995
36.2652
36.4473
36.6467
36.8641
37.1002
37.356
37.6324
37.9304
38.2512
38.5959
38.9657
39.362
39.7862
40.2396
40.7236
41.2394
41.7885
42.3715
42.9899
43.6434
44.3338
45.0583
45.821
46.6125
47.4458
48.2934
49.1964
50.0757
51.0579
51.914
53.0231
53.7239
55.2064
22.9769
23.2347
23.4959
23.7602
24.0274
24.2971
24.569
24.8428
25.1182
25.3949
25.6724
25.9505
26.2288
26.5069
26.7844
27.0609
27.3357
27.6084
27.8785
28.1452
28.408
28.6662
28.9192
29.1662
29.4067
29.64
29.8654
30.0826
30.2909
30.4898
30.6792
30.8584
31.0276
31.1862
31.3346
31.4726
31.6004
31.7182
31.8269
31.9259
32.0165
32.0995
32.1752
32.2443
32.3081
32.3671
32.4225
32.4757
32.5273
32.5785
32.6304
32.6842
32.741
32.8021
32.8679
32.9396
33.0184
33.1051
33.2001
33.3044
33.4185
33.5422
33.6764
33.8218
33.9782
34.1462
34.3261
34.5182
34.7228
34.9406
35.1719
35.4175
35.6778
35.9538
36.246
36.5554
36.8829
37.2295
37.5964
37.9847
38.3957
38.8306
39.2906
39.7771
40.291
40.834
41.4061
42.0094
42.6419
43.3082
44.0001
44.7308
45.4751
46.273
47.0508
47.9283
48.6934
49.6963
50.3348
51.6937
21.4552
21.6601
21.8686
22.0804
22.2953
22.5131
22.7335
22.9564
23.1814
23.4083
23.6369
23.8668
24.0979
24.3298
24.5622
24.7949
25.0273
25.2592
25.4901
25.7196
25.9473
26.1726
26.3951
26.6143
26.8298
27.041
27.2476
27.4491
27.6452
27.8354
28.0196
28.1974
28.3686
28.5332
28.691
28.8422
28.9867
29.1247
29.2566
29.3825
29.5029
29.6182
29.7291
29.836
29.9396
30.0406
30.1397
30.2379
30.3359
30.4344
30.5345
30.6369
30.7426
30.8524
30.967
31.0871
31.2134
31.3466
31.4871
31.6351
31.7914
31.9557
32.1285
32.31
32.5003
32.6995
32.908
33.1257
33.353
33.5901
33.8374
34.0954
34.3644
34.6449
34.9374
35.2426
35.5612
35.894
36.2418
36.6056
36.9866
37.3857
37.8042
38.2432
38.7037
39.1873
39.6943
40.2269
40.7835
41.369
41.976
42.6179
43.2712
43.9747
44.6598
45.4392
46.1177
47.0164
47.5914
48.8226
20.3208
20.4827
20.6482
20.8171
20.9893
21.1646
21.3428
21.5238
21.7074
21.8933
22.0814
22.2716
22.4635
22.657
22.8519
23.0479
23.2448
23.4422
23.64
23.8378
24.0352
24.232
24.4278
24.6223
24.8152
25.006
25.1946
25.3806
25.5637
25.7436
25.9203
26.0934
26.2629
26.4286
26.5905
26.7486
26.903
27.0538
27.2012
27.3454
27.4867
27.6254
27.762
27.8968
28.0305
28.1635
28.2963
28.4296
28.5641
28.7003
28.839
28.9809
29.1265
29.2765
29.4316
29.5921
29.7586
29.9315
30.1108
30.297
30.4902
30.6905
30.8979
31.1124
31.334
31.5628
31.7987
32.0417
32.2918
32.5494
32.8147
33.0878
33.3689
33.6583
33.9563
34.2633
34.5799
34.9067
35.2442
35.5934
35.955
36.3299
36.7192
37.1239
37.5449
37.9837
38.4405
38.9178
39.4139
39.9341
40.4713
41.0389
41.615
42.2369
42.8409
43.5324
44.1323
44.9341
45.4485
46.5557
19.4807
19.6077
19.7382
19.8722
20.0095
20.1501
20.2937
20.4404
20.5899
20.7422
20.897
21.0543
21.214
21.3757
21.5395
21.7051
21.8724
22.0411
22.2111
22.3822
22.5542
22.7267
22.8997
23.0728
23.2459
23.4187
23.591
23.7626
23.9334
24.1031
24.2717
24.4389
24.6048
24.7693
24.9323
25.0939
25.2542
25.4132
25.5711
25.7281
25.8845
26.0404
26.1963
26.3525
26.5094
26.6673
26.8268
26.9881
27.152
27.3189
27.4894
27.6638
27.8428
28.0268
28.2162
28.4113
28.6125
28.82
29.0335
29.2535
29.48
29.7129
29.9521
30.1974
30.4486
30.7057
30.9686
31.2365
31.5101
31.7895
32.0746
32.3653
32.6616
32.9637
33.2716
33.5857
33.9063
34.2337
34.5684
34.9111
35.2624
35.623
35.9937
36.3755
36.769
37.1757
37.5957
38.0314
38.4813
38.9505
39.4324
39.9403
40.4531
41.0072
41.5425
42.1584
42.6899
43.4054
43.8647
44.8574
18.8675
18.9663
19.0687
19.1745
19.2836
19.3961
19.5118
19.6307
19.7526
19.8775
20.0053
20.1359
20.2691
20.405
20.5434
20.6842
20.8272
20.9724
21.1196
21.2688
21.4196
21.5721
21.726
21.8813
22.0378
22.1953
22.3537
22.513
22.6729
22.8335
22.9946
23.1561
23.3181
23.4806
23.6436
23.807
23.9711
24.1358
24.3015
24.4682
24.6361
24.8055
24.9766
25.1498
25.3254
25.5037
25.6849
25.8695
26.0579
26.2507
26.4481
26.6505
26.8582
27.0717
27.2912
27.5169
27.7489
27.9872
28.2314
28.4824
28.7397
29.0032
29.2724
29.5471
29.8271
30.112
30.4016
30.6963
30.9958
31.2998
31.6078
31.9195
32.2349
32.5539
32.8765
33.2028
33.533
33.8673
34.206
34.5495
34.8983
35.2529
35.614
35.9823
36.3585
36.7437
37.1381
37.544
37.9596
38.3903
38.8294
39.2902
39.7524
40.2514
40.7299
41.2822
41.7552
42.3961
42.8063
43.6977
18.431
18.5079
18.5882
18.6719
18.7589
18.8492
18.9429
19.0398
19.1399
19.2431
19.3495
19.4589
19.5714
19.6868
19.805
19.9261
20.0499
20.1765
20.3056
20.4373
20.5714
20.708
20.8468
20.9879
21.1311
21.2765
21.4238
21.5732
21.7245
21.8777
22.0329
22.1899
22.3489
22.5098
22.6728
22.8379
23.0052
23.1748
23.347
23.5218
23.6995
23.8804
24.0646
24.2524
24.4441
24.6398
24.8398
25.0447
25.2548
25.4703
25.6917
25.9191
26.1527
26.3929
26.6397
26.8934
27.1538
27.4214
27.6961
27.9782
28.2666
28.561
28.861
29.1661
29.4761
29.7905
30.1088
30.4311
30.7562
31.0835
31.4134
31.7457
32.0804
32.4173
32.7562
33.0972
33.4402
33.7853
34.1326
34.4825
34.835
35.1909
35.5503
35.914
36.2823
36.6565
37.0362
37.424
37.8177
38.223
38.6327
39.0607
39.4862
39.9447
40.3804
40.8844
41.3119
41.8929
42.2622
43.0674
18.1349
18.1955
18.2593
18.3265
18.397
18.4709
18.548
18.6285
18.7122
18.7993
18.8896
18.9832
19.08
19.1801
19.2833
19.3897
19.4992
19.6118
19.7275
19.8463
19.968
20.0928
20.2206
20.3513
20.485
20.6216
20.7611
20.9035
21.0489
21.1973
21.3487
21.5032
21.6608
21.8217
21.9858
22.1534
22.3246
22.4995
22.6783
22.8612
23.0484
23.2402
23.4367
23.6382
23.8449
24.0574
24.2758
24.5007
24.7322
24.9704
25.2155
25.4677
25.7272
25.9941
26.2686
26.5506
26.84
27.1369
27.4411
27.7507
28.0664
28.3881
28.7153
29.0476
29.3846
29.7258
30.0707
30.419
30.7704
31.1243
31.4802
31.8376
32.1963
32.556
32.9164
33.2773
33.6386
34.0002
34.3621
34.7245
35.0874
35.4512
35.816
36.1825
36.5507
36.922
37.2955
37.6741
38.0552
38.4447
38.8348
39.24
39.6391
40.0679
40.471
40.9379
41.329
41.8638
42.2013
42.9399
17.9535
18.0033
18.0563
18.1125
18.172
18.2348
18.3009
18.3704
18.4432
18.5195
18.5991
18.6821
18.7686
18.8584
18.9517
19.0484
19.1486
19.2522
19.3592
19.4698
19.5838
19.7013
19.8223
19.9469
20.075
20.2068
20.3423
20.4815
20.6245
20.7713
20.9222
21.0771
21.2361
21.3996
21.5674
21.7399
21.9172
22.0995
22.2869
22.4798
22.6782
22.8826
23.093
23.3098
23.5331
23.7633
24.0008
24.245
24.4963
24.7551
25.0216
25.2961
25.5787
25.8696
26.1686
26.4758
26.7912
27.1144
27.4455
27.7841
28.1296
28.4815
28.8392
29.2023
29.5702
29.9422
30.3179
30.6967
31.078
31.4614
31.8462
32.2319
32.6181
33.0044
33.3902
33.7754
34.1596
34.5426
34.9243
35.3047
35.6838
36.0617
36.4384
36.8146
37.1899
37.5659
37.9412
38.3191
38.6961
39.0791
39.459
39.8517
40.2342
40.6442
41.0249
41.4662
41.8308