/*--------------------------------*- C++ -*----------------------------------*\
  =========                 |
  \\      /  F ield         | OpenFOAM: The Open Source CFD Toolbox
   \\    /   O peration     | Website:  https://openfoam.org
    \\  /    A nd           | Version:  10
     \\/     M anipulation  |
\*---------------------------------------------------------------------------*/
FoamFile
{
    format      ascii;
    class       volScalarField;
    location    "800";
    object      p;
}
// * * * * * * * * * * * * * * * * * * * * * * * * * * * * * * * * * * * * * //

dimensions      [0 2 -2 0 0 0 0];

internalField   nonuniform List<scalar> 
6820
(
6.39606
-4.49376
-8.01298
-8.74657
-9.14789
-9.48645
-9.67895
-9.77543
-9.84089
-9.89538
-9.93964
-9.97541
-10.006
-10.0334
-10.0584
-10.0814
-10.1028
-10.123
-10.1421
-10.1605
-10.178
-10.195
-10.2113
-10.2271
-10.2424
-10.257
-10.2709
-10.284
-10.296
-10.3065
-10.3139
-10.3196
-10.3067
-15.4919
-11.8139
-11.0691
-10.2999
-9.93509
-9.86871
-9.86699
-9.87085
-9.88896
-9.91817
-9.94897
-9.97766
-10.0045
-10.03
-10.054
-10.0765
-10.0977
-10.1179
-10.1372
-10.1556
-10.1733
-10.1905
-10.207
-10.223
-10.2384
-10.2533
-10.2676
-10.2811
-10.2937
-10.3054
-10.3151
-10.3249
-10.3289
-13.3433
-9.7692
-9.51391
-9.51582
-9.50959
-9.60804
-9.70874
-9.77651
-9.83103
-9.88093
-9.92425
-9.96089
-9.99282
-10.0215
-10.0476
-10.0715
-10.0937
-10.1146
-10.1343
-10.1531
-10.1711
-10.1885
-10.2052
-10.2213
-10.237
-10.2521
-10.2666
-10.2805
-10.2937
-10.3063
-10.3178
-10.3301
-10.3404
-10.8542
-9.39508
-9.54578
-9.6619
-9.64655
-9.70189
-9.77248
-9.8212
-9.86125
-9.90021
-9.93603
-9.96775
-9.99639
-10.0228
-10.0474
-10.0703
-10.0918
-10.1122
-10.1317
-10.1503
-10.1683
-10.1856
-10.2023
-10.2186
-10.2343
-10.2496
-10.2645
-10.2789
-10.2928
-10.3064
-10.3197
-10.3339
-10.3482
-10.3948
-9.69741
-9.73789
-9.75411
-9.70988
-9.73756
-9.78991
-9.83101
-9.86718
-9.90333
-9.93738
-9.96816
-9.99626
-10.0223
-10.0466
-10.0694
-10.0908
-10.1111
-10.1305
-10.1491
-10.167
-10.1843
-10.2011
-10.2174
-10.2333
-10.2488
-10.2639
-10.2787
-10.2932
-10.3077
-10.3224
-10.338
-10.3548
-10.3294
-9.85426
-9.80816
-9.7862
-9.74742
-9.76595
-9.80768
-9.8442
-9.87773
-9.91124
-9.94311
-9.97236
-9.99934
-10.0245
-10.0481
-10.0703
-10.0913
-10.1113
-10.1304
-10.1488
-10.1666
-10.1838
-10.2005
-10.2168
-10.2328
-10.2484
-10.2637
-10.2789
-10.294
-10.3092
-10.3249
-10.3417
-10.36
-10.2141
-9.88805
-9.83594
-9.8132
-9.7843
-9.79695
-9.82941
-9.86073
-9.89082
-9.92119
-9.95053
-9.97795
-10.0036
-10.0277
-10.0505
-10.072
-10.0926
-10.1122
-10.131
-10.1492
-10.1668
-10.1839
-10.2005
-10.2168
-10.2328
-10.2485
-10.264
-10.2795
-10.2951
-10.3109
-10.3273
-10.3449
-10.364
-10.108
-9.90291
-9.86045
-9.84026
-9.81797
-9.82626
-9.85127
-9.87776
-9.90448
-9.93189
-9.9588
-9.98441
-10.0087
-10.0317
-10.0537
-10.0746
-10.0945
-10.1137
-10.1322
-10.1501
-10.1675
-10.1845
-10.201
-10.2172
-10.2332
-10.249
-10.2647
-10.2804
-10.2963
-10.3126
-10.3295
-10.3475
-10.3669
-10.039
-9.91613
-9.8806
-9.86258
-9.84578
-9.85177
-9.87151
-9.89413
-9.91794
-9.94274
-9.96746
-9.99137
-10.0143
-10.0363
-10.0574
-10.0776
-10.097
-10.1158
-10.1339
-10.1515
-10.1687
-10.1854
-10.2019
-10.218
-10.234
-10.2498
-10.2656
-10.2815
-10.2976
-10.3141
-10.3313
-10.3495
-10.3689
-9.99665
-9.92475
-9.89533
-9.88021
-9.86837
-9.87344
-9.88963
-9.90929
-9.93069
-9.95326
-9.97605
-9.9984
-10.0201
-10.0411
-10.0613
-10.0808
-10.0997
-10.118
-10.1358
-10.1531
-10.17
-10.1866
-10.2029
-10.219
-10.2349
-10.2507
-10.2666
-10.2825
-10.2988
-10.3154
-10.3327
-10.3508
-10.3699
-9.97081
-9.92978
-9.90662
-9.89464
-9.88689
-9.89174
-9.90555
-9.92297
-9.94239
-9.96309
-9.98422
-10.0052
-10.0257
-10.0458
-10.0652
-10.0841
-10.1025
-10.1203
-10.1378
-10.1548
-10.1714
-10.1878
-10.204
-10.2199
-10.2358
-10.2516
-10.2674
-10.2834
-10.2996
-10.3163
-10.3335
-10.3513
-10.37
-9.95598
-9.93335
-9.91601
-9.90693
-9.90233
-9.90724
-9.91942
-9.93512
-9.95292
-9.97204
-9.99174
-10.0115
-10.031
-10.0502
-10.0689
-10.0872
-10.1051
-10.1225
-10.1396
-10.1563
-10.1727
-10.1889
-10.2049
-10.2207
-10.2365
-10.2522
-10.268
-10.2839
-10.3001
-10.3166
-10.3336
-10.3511
-10.3693
-9.94863
-9.93668
-9.92425
-9.91769
-9.91545
-9.92052
-9.93153
-9.94587
-9.9623
-9.98007
-9.99853
-10.0172
-10.0358
-10.0542
-10.0723
-10.09
-10.1074
-10.1244
-10.1412
-10.1576
-10.1738
-10.1898
-10.2056
-10.2213
-10.2369
-10.2525
-10.2682
-10.284
-10.3
-10.3163
-10.333
-10.3501
-10.3676
-9.94623
-9.94027
-9.93176
-9.92735
-9.92685
-9.93207
-9.9422
-9.9554
-9.97065
-9.98725
-10.0046
-10.0223
-10.04
-10.0577
-10.0752
-10.0924
-10.1093
-10.126
-10.1424
-10.1585
-10.1745
-10.1902
-10.2059
-10.2214
-10.2368
-10.2523
-10.2678
-10.2834
-10.2992
-10.3152
-10.3315
-10.3481
-10.3651
-9.94702
-9.9443
-9.93879
-9.93616
-9.93695
-9.94229
-9.9517
-9.96394
-9.97813
-9.99366
-10.01
-10.0268
-10.0438
-10.0607
-10.0776
-10.0943
-10.1108
-10.1271
-10.1432
-10.159
-10.1747
-10.1903
-10.2057
-10.221
-10.2363
-10.2516
-10.2669
-10.2822
-10.2978
-10.3134
-10.3293
-10.3453
-10.3616
-9.94984
-9.94879
-9.94549
-9.94429
-9.94603
-9.95143
-9.96025
-9.97162
-9.98486
-9.99942
-10.0148
-10.0308
-10.047
-10.0633
-10.0796
-10.0958
-10.1119
-10.1278
-10.1435
-10.1591
-10.1745
-10.1898
-10.205
-10.2201
-10.2352
-10.2502
-10.2653
-10.2804
-10.2955
-10.3108
-10.3262
-10.3417
-10.3573
-9.9539
-9.95366
-9.95195
-9.95186
-9.95427
-9.95968
-9.96799
-9.9786
-9.99095
-10.0046
-10.0192
-10.0343
-10.0498
-10.0654
-10.0812
-10.0969
-10.1125
-10.128
-10.1434
-10.1587
-10.1738
-10.1889
-10.2038
-10.2187
-10.2335
-10.2483
-10.263
-10.2778
-10.2926
-10.3074
-10.3223
-10.3372
-10.3521
-9.9587
-9.95882
-9.9582
-9.95893
-9.9618
-9.96718
-9.97502
-9.98493
-9.99648
-10.0093
-10.023
-10.0374
-10.0521
-10.0672
-10.0823
-10.0975
-10.1127
-10.1279
-10.1429
-10.1579
-10.1727
-10.1875
-10.2021
-10.2167
-10.2312
-10.2457
-10.2601
-10.2745
-10.2889
-10.3033
-10.3176
-10.3319
-10.3462
-9.96389
-9.96414
-9.96426
-9.96556
-9.96871
-9.97399
-9.9814
-9.99067
-10.0015
-10.0135
-10.0264
-10.0401
-10.0541
-10.0686
-10.0832
-10.0979
-10.1126
-10.1273
-10.142
-10.1566
-10.1711
-10.1856
-10.1999
-10.2142
-10.2284
-10.2426
-10.2566
-10.2706
-10.2846
-10.2985
-10.3123
-10.326
-10.3396
-9.96925
-9.96953
-9.97011
-9.97178
-9.97506
-9.98018
-9.98717
-9.99584
-10.0059
-10.0172
-10.0294
-10.0423
-10.0558
-10.0696
-10.0836
-10.0978
-10.1121
-10.1264
-10.1407
-10.155
-10.1692
-10.1833
-10.1973
-10.2113
-10.2251
-10.2389
-10.2526
-10.2662
-10.2796
-10.293
-10.3063
-10.3194
-10.3324
-9.97464
-9.97491
-9.97574
-9.97762
-9.9809
-9.9858
-9.99236
-10.0005
-10.0099
-10.0205
-10.032
-10.0442
-10.057
-10.0703
-10.0838
-10.0975
-10.1113
-10.1252
-10.1391
-10.153
-10.1668
-10.1806
-10.1943
-10.2079
-10.2214
-10.2348
-10.248
-10.2612
-10.2742
-10.2871
-10.2998
-10.3123
-10.3247
-9.97997
-9.98022
-9.98116
-9.98307
-9.98624
-9.99086
-9.99697
-10.0045
-10.0133
-10.0232
-10.0341
-10.0457
-10.0579
-10.0706
-10.0836
-10.0968
-10.1102
-10.1236
-10.1372
-10.1507
-10.1641
-10.1776
-10.1909
-10.2041
-10.2172
-10.2302
-10.243
-10.2558
-10.2683
-10.2807
-10.2928
-10.3048
-10.3166
-9.98519
-9.98541
-9.98634
-9.98816
-9.99111
-9.99537
-10.001
-10.008
-10.0162
-10.0255
-10.0357
-10.0467
-10.0584
-10.0705
-10.083
-10.0957
-10.1087
-10.1217
-10.1349
-10.148
-10.1611
-10.1742
-10.1871
-10.2
-10.2127
-10.2253
-10.2377
-10.2499
-10.262
-10.2739
-10.2855
-10.2969
-10.3081
-9.99028
-9.99047
-9.9913
-9.9929
-9.99551
-9.99934
-10.0045
-10.0109
-10.0185
-10.0272
-10.0368
-10.0472
-10.0583
-10.0699
-10.082
-10.0943
-10.1068
-10.1195
-10.1322
-10.145
-10.1578
-10.1704
-10.183
-10.1955
-10.2078
-10.22
-10.232
-10.2438
-10.2554
-10.2667
-10.2778
-10.2887
-10.2993
-9.99526
-9.99543
-9.99604
-9.99729
-9.99945
-10.0028
-10.0073
-10.0131
-10.0201
-10.0282
-10.0373
-10.0472
-10.0578
-10.0689
-10.0805
-10.0924
-10.1046
-10.1169
-10.1293
-10.1417
-10.1541
-10.1664
-10.1786
-10.1907
-10.2027
-10.2144
-10.226
-10.2373
-10.2485
-10.2593
-10.2699
-10.2802
-10.2903
-10.0002
-10.0003
-10.0006
-10.0014
-10.0029
-10.0056
-10.0095
-10.0147
-10.0211
-10.0286
-10.0371
-10.0465
-10.0567
-10.0674
-10.0786
-10.0901
-10.1019
-10.1139
-10.1259
-10.138
-10.15
-10.162
-10.1739
-10.1856
-10.1972
-10.2086
-10.2197
-10.2306
-10.2413
-10.2517
-10.2618
-10.2716
-10.2811
-10.0051
-10.0052
-10.0051
-10.0051
-10.0059
-10.0078
-10.011
-10.0155
-10.0212
-10.0282
-10.0363
-10.0452
-10.0549
-10.0653
-10.0761
-10.0873
-10.0988
-10.1104
-10.1221
-10.1339
-10.1457
-10.1573
-10.1689
-10.1802
-10.1915
-10.2024
-10.2132
-10.2237
-10.2339
-10.2439
-10.2535
-10.2628
-10.2718
-10.0102
-10.0103
-10.0095
-10.0086
-10.0084
-10.0094
-10.0117
-10.0154
-10.0206
-10.027
-10.0346
-10.0431
-10.0524
-10.0625
-10.073
-10.0839
-10.0951
-10.1065
-10.1179
-10.1294
-10.1409
-10.1523
-10.1635
-10.1746
-10.1854
-10.196
-10.2064
-10.2165
-10.2263
-10.2358
-10.245
-10.2538
-10.2623
-10.0158
-10.0158
-10.0141
-10.0118
-10.0103
-10.0101
-10.0115
-10.0144
-10.0189
-10.0248
-10.0319
-10.0401
-10.0492
-10.0589
-10.0692
-10.0799
-10.0908
-10.102
-10.1132
-10.1245
-10.1357
-10.1468
-10.1578
-10.1685
-10.1791
-10.1894
-10.1994
-10.2091
-10.2185
-10.2276
-10.2364
-10.2448
-10.2528
-10.0223
-10.0222
-10.019
-10.0148
-10.0116
-10.01
-10.0102
-10.0122
-10.016
-10.0214
-10.0282
-10.0361
-10.0449
-10.0545
-10.0646
-10.0751
-10.0859
-10.0969
-10.1079
-10.119
-10.13
-10.1409
-10.1516
-10.1621
-10.1723
-10.1823
-10.192
-10.2014
-10.2105
-10.2192
-10.2275
-10.2355
-10.2431
-10.0303
-10.03
-10.0244
-10.0174
-10.012
-10.0087
-10.0075
-10.0086
-10.0118
-10.0168
-10.0232
-10.0309
-10.0396
-10.049
-10.059
-10.0694
-10.0801
-10.091
-10.1019
-10.1128
-10.1237
-10.1343
-10.1448
-10.1551
-10.1651
-10.1749
-10.1843
-10.1934
-10.2021
-10.2105
-10.2185
-10.2261
-10.2333
-10.0413
-10.0402
-10.0307
-10.0197
-10.0113
-10.0058
-10.0031
-10.0032
-10.0058
-10.0104
-10.0166
-10.0242
-10.0328
-10.0422
-10.0522
-10.0626
-10.0733
-10.0841
-10.095
-10.1058
-10.1165
-10.1271
-10.1374
-10.1475
-10.1573
-10.1668
-10.176
-10.1848
-10.1933
-10.2014
-10.2091
-10.2164
-10.2233
-10.0578
-10.0542
-10.0378
-10.0211
-10.009
-10.0008
-9.99641
-9.99557
-9.9976
-10.0019
-10.008
-10.0156
-10.0243
-10.0338
-10.0439
-10.0543
-10.0651
-10.0759
-10.0868
-10.0976
-10.1083
-10.1188
-10.1291
-10.139
-10.1487
-10.1581
-10.1671
-10.1757
-10.184
-10.1919
-10.1993
-10.2064
-10.213
-10.086
-10.0748
-10.0452
-10.0202
-10.0035
-9.99228
-9.9862
-9.98459
-9.98631
-9.99054
-9.99675
-10.0045
-10.0134
-10.023
-10.0333
-10.044
-10.0548
-10.0658
-10.0768
-10.0877
-10.0985
-10.109
-10.1193
-10.1292
-10.1389
-10.1482
-10.1572
-10.1657
-10.1739
-10.1816
-10.189
-10.1959
-10.2024
-10.138
-10.1098
-10.0561
-10.0174
-9.99327
-9.97762
-9.9697
-9.96775
-9.96968
-9.97444
-9.98138
-9.9899
-9.99954
-10.0099
-10.0209
-10.0321
-10.0435
-10.0549
-10.0662
-10.0774
-10.0883
-10.099
-10.1094
-10.1195
-10.1291
-10.1384
-10.1473
-10.1558
-10.1639
-10.1715
-10.1787
-10.1855
-10.1918
-10.2173
-10.1545
-10.0723
-10.0216
-9.98527
-9.95922
-9.94597
-9.94132
-9.94148
-9.94531
-9.95215
-9.96113
-9.97155
-9.98296
-9.99502
-10.0075
-10.0201
-10.0327
-10.0453
-10.0576
-10.0696
-10.0813
-10.0926
-10.1036
-10.114
-10.124
-10.1336
-10.1427
-10.1512
-10.1593
-10.167
-10.1741
-10.1807
-10.3616
-10.1284
-10.003
-9.99591
-9.98607
-9.97185
-9.96838
-9.97008
-9.97237
-9.9757
-9.98069
-9.98706
-9.99444
-10.0027
-10.0116
-10.0211
-10.0309
-10.041
-10.0511
-10.0614
-10.0715
-10.0815
-10.0913
-10.1008
-10.1101
-10.119
-10.1276
-10.1358
-10.1437
-10.1511
-10.1582
-10.1648
-10.171
-11.3104
-10.0771
-9.48581
-9.41312
-9.43222
-9.47339
-9.53147
-9.59067
-9.64503
-9.69517
-9.74144
-9.78347
-9.82138
-9.85565
-9.88676
-9.91508
-9.94091
-9.96456
-9.98627
-10.0063
-10.0247
-10.0418
-10.0577
-10.0724
-10.086
-10.0987
-10.1104
-10.1214
-10.1315
-10.1409
-10.1495
-10.1574
-10.1646
-15.0763
-12.8658
-11.8528
-11.2332
-10.8155
-10.5675
-10.4047
-10.281
-10.189
-10.1254
-10.0828
-10.0547
-10.0369
-10.0269
-10.0227
-10.0228
-10.0259
-10.0313
-10.0382
-10.0462
-10.0549
-10.0641
-10.0735
-10.0829
-10.0922
-10.1014
-10.1103
-10.1189
-10.1272
-10.1351
-10.1426
-10.1497
-10.1565
-1.21641
-5.30325
-7.41503
-8.17821
-8.60955
-8.97016
-9.23823
-9.41731
-9.54384
-9.64219
-9.72043
-9.78231
-9.832
-9.87312
-9.90798
-9.93798
-9.96415
-9.9873
-10.008
-10.0267
-10.0438
-10.0594
-10.0738
-10.087
-10.0993
-10.1107
-10.1212
-10.131
-10.1401
-10.1484
-10.1562
-10.1632
-10.1698
-10.303
-10.0552
-10.37
-10.6694
-10.7923
-10.8308
-10.8465
-10.8525
-10.855
-10.8627
-10.8819
-10.9142
-10.9586
-11.0131
-11.0751
-11.1417
-11.2098
-11.277
-11.3407
-11.3991
-11.4506
-11.4942
-11.5289
-11.5541
-11.5696
-11.5751
-11.5706
-11.5563
-11.5322
-11.4983
-11.4546
-11.4012
-11.3382
-11.2653
-11.1824
-11.0895
-10.9863
-10.8727
-10.7483
-10.613
-10.4667
-10.309
-10.1398
-9.95915
-9.76689
-9.56312
-9.34804
-9.12192
-8.88507
-8.63795
-8.38118
-8.11544
-7.84149
-7.56021
-7.27257
-6.97959
-6.6824
-6.38221
-6.0803
-5.778
-5.47671
-5.17782
-4.88272
-4.59273
-4.3091
-4.03293
-3.7652
-3.50678
-3.25833
-3.02044
-2.79351
-2.57784
-2.37358
-2.18081
-1.99944
-1.82934
-1.67023
-1.52177
-1.38359
-1.2552
-1.13614
-1.02589
-0.923944
-0.829777
-0.742853
-0.66269
-0.588802
-0.520743
-0.458061
-0.400429
-0.34733
-0.298673
-0.25358
-0.212792
-0.173696
-0.140509
-0.103315
-0.0808703
-0.0335076
-0.0411807
-10.3538
-10.3404
-10.543
-10.7008
-10.7425
-10.7424
-10.7427
-10.7467
-10.7554
-10.7737
-10.8045
-10.8472
-10.8995
-10.9594
-11.0248
-11.0931
-11.162
-11.2293
-11.2928
-11.3507
-11.402
-11.4454
-11.4799
-11.505
-11.5204
-11.5259
-11.5216
-11.5074
-11.4835
-11.4497
-11.4063
-11.3531
-11.2902
-11.2174
-11.1348
-11.0421
-10.9392
-10.8259
-10.702
-10.5672
-10.4214
-10.2643
-10.096
-9.91624
-9.72508
-9.52257
-9.30891
-9.08437
-8.84928
-8.6041
-8.34943
-8.08594
-7.81437
-7.53558
-7.25053
-6.96022
-6.66575
-6.36831
-6.06915
-5.76958
-5.47095
-5.17465
-4.88201
-4.59434
-4.31284
-4.03861
-3.77263
-3.51572
-3.26857
-3.03177
-2.80571
-2.59071
-2.38694
-2.19448
-2.01325
-1.84315
-1.6839
-1.53519
-1.39666
-1.26785
-1.14829
-1.03751
-0.93499
-0.84022
-0.752674
-0.671877
-0.597345
-0.528636
-0.465302
-0.407013
-0.353251
-0.303937
-0.25816
-0.216735
-0.176881
-0.143223
-0.104913
-0.0830156
-0.0324436
-0.0464751
-10.3667
-10.3758
-10.4675
-10.5821
-10.6521
-10.6899
-10.717
-10.7374
-10.7532
-10.7707
-10.7951
-10.8284
-10.8707
-10.9216
-10.9797
-11.0427
-11.1082
-11.1735
-11.236
-11.2938
-11.3451
-11.3884
-11.423
-11.4484
-11.4641
-11.4699
-11.466
-11.4523
-11.4288
-11.3954
-11.3524
-11.2996
-11.2371
-11.1647
-11.0825
-10.9903
-10.8878
-10.7751
-10.6517
-10.5175
-10.3725
-10.2163
-10.049
-9.87038
-9.68052
-9.47948
-9.26746
-9.04472
-8.8116
-8.56856
-8.31618
-8.05512
-7.7861
-7.50999
-7.22768
-6.94019
-6.64859
-6.35404
-6.05777
-5.76105
-5.46522
-5.1716
-4.88152
-4.59625
-4.31697
-4.04476
-3.78058
-3.52524
-3.27946
-3.04378
-2.81864
-2.60435
-2.40109
-2.20896
-2.02789
-1.85779
-1.69839
-1.54942
-1.41053
-1.28127
-1.16119
-1.04984
-0.946708
-0.851292
-0.763084
-0.68161
-0.606389
-0.536988
-0.472958
-0.413969
-0.359502
-0.309488
-0.262992
-0.220884
-0.180252
-0.146057
-0.10666
-0.0851659
-0.0315737
-0.0515431
-10.3726
-10.3961
-10.4681
-10.5724
-10.6466
-10.6842
-10.7061
-10.7225
-10.7371
-10.755
-10.78
-10.8134
-10.8549
-10.9036
-10.9579
-11.0159
-11.0754
-11.1344
-11.1912
-11.2441
-11.2914
-11.3318
-11.3644
-11.3886
-11.4038
-11.4096
-11.4059
-11.3924
-11.3692
-11.3363
-11.2937
-11.2414
-11.1794
-11.1077
-11.026
-10.9343
-10.8325
-10.7204
-10.5978
-10.4645
-10.3203
-10.1652
-9.99904
-9.82178
-9.6334
-9.43401
-9.2238
-9.00304
-8.77206
-8.53133
-8.28139
-8.02291
-7.75659
-7.48327
-7.20385
-6.91931
-6.6307
-6.33916
-6.04589
-5.75214
-5.45921
-5.16839
-4.88098
-4.59822
-4.32125
-4.05115
-3.78885
-3.53517
-3.29081
-3.05634
-2.83218
-2.61865
-2.41595
-2.22418
-2.0433
-1.87321
-1.71368
-1.56445
-1.42518
-1.29545
-1.17484
-1.06289
-0.959112
-0.86301
-0.7741
-0.691905
-0.615951
-0.545815
-0.481044
-0.421308
-0.366096
-0.315339
-0.268087
-0.225253
-0.183818
-0.149031
-0.108554
-0.0873575
-0.0308628
-0.0564239
-10.3797
-10.4117
-10.4718
-10.5525
-10.6147
-10.6509
-10.676
-10.6979
-10.7186
-10.7408
-10.7678
-10.8009
-10.8404
-10.8856
-10.9357
-10.989
-11.0439
-11.0985
-11.1511
-11.1999
-11.2436
-11.2808
-11.3108
-11.3326
-11.3458
-11.3504
-11.3456
-11.3315
-11.308
-11.2751
-11.2326
-11.1806
-11.119
-11.0476
-10.9664
-10.8753
-10.7741
-10.6627
-10.5409
-10.4085
-10.2654
-10.1114
-9.94652
-9.77069
-9.58392
-9.3863
-9.17802
-8.95935
-8.73064
-8.49231
-8.24493
-7.98913
-7.72562
-7.4552
-7.17877
-6.89728
-6.61177
-6.32334
-6.03319
-5.74252
-5.45261
-5.16471
-4.88008
-4.59993
-4.32539
-4.0575
-3.79719
-3.54528
-3.30244
-3.06926
-2.84616
-2.63346
-2.43139
-2.24004
-2.05938
-1.88933
-1.72969
-1.58022
-1.44057
-1.31038
-1.18922
-1.07666
-0.972201
-0.875383
-0.785735
-0.70278
-0.62605
-0.555135
-0.489579
-0.429053
-0.373053
-0.321511
-0.273464
-0.229859
-0.187595
-0.152157
-0.110612
-0.0895962
-0.0303388
-0.061066
-10.3854
-10.4197
-10.4706
-10.5351
-10.5908
-10.6293
-10.6581
-10.6829
-10.7057
-10.7291
-10.7559
-10.7877
-10.8249
-10.8671
-10.9134
-10.9626
-11.0131
-11.0632
-11.1115
-11.1564
-11.1965
-11.2306
-11.2578
-11.2774
-11.2888
-11.2918
-11.2859
-11.2709
-11.2467
-11.2134
-11.1708
-11.1187
-11.0571
-10.9859
-10.905
-10.8143
-10.7136
-10.6028
-10.4817
-10.3502
-10.2081
-10.0553
-9.89169
-9.71733
-9.5322
-9.3364
-9.13011
-8.91359
-8.68719
-8.45135
-8.2066
-7.95356
-7.69293
-7.42551
-7.15215
-6.87381
-6.5915
-6.3063
-6.01938
-5.73191
-5.44512
-5.16026
-4.87854
-4.60113
-4.32914
-4.06359
-3.80539
-3.55536
-3.31416
-3.08236
-2.86041
-2.64865
-2.44728
-2.2564
-2.07602
-1.90605
-1.74635
-1.59667
-1.45666
-1.32601
-1.2043
-1.09111
-0.985959
-0.888404
-0.797985
-0.714236
-0.636695
-0.56496
-0.498578
-0.437222
-0.380392
-0.32802
-0.279141
-0.234719
-0.191599
-0.15545
-0.112851
-0.0918802
-0.0300359
-0.0654022
-10.3894
-10.4235
-10.4683
-10.5223
-10.5721
-10.6102
-10.6401
-10.6662
-10.6905
-10.7152
-10.7424
-10.7736
-10.8091
-10.8487
-10.8916
-10.9369
-10.9831
-11.029
-11.073
-11.1139
-11.1502
-11.181
-11.2054
-11.2225
-11.2319
-11.2331
-11.2259
-11.2099
-11.1849
-11.151
-11.1079
-11.0555
-10.9938
-10.9227
-10.842
-10.7515
-10.6513
-10.541
-10.4206
-10.2898
-10.1487
-9.997
-9.83471
-9.66181
-9.47831
-9.28432
-9.08003
-8.8657
-8.64166
-8.40834
-8.16627
-7.91606
-7.65839
-7.39403
-7.12384
-6.84875
-6.56974
-6.28788
-6.0043
-5.72014
-5.43661
-5.1549
-4.87621
-4.60166
-4.33235
-4.06927
-3.81331
-3.56526
-3.32581
-3.09552
-2.87483
-2.66408
-2.46348
-2.27315
-2.09311
-1.9233
-1.76357
-1.61371
-1.47338
-1.34229
-1.22003
-1.1062
-1.00036
-0.90205
-0.810838
-0.726267
-0.647883
-0.575292
-0.508046
-0.445823
-0.388124
-0.334881
-0.285131
-0.239847
-0.195844
-0.158922
-0.115283
-0.0942074
-0.0299814
-0.0693776
-10.392
-10.4249
-10.4653
-10.5117
-10.5561
-10.5928
-10.6231
-10.6501
-10.6756
-10.7011
-10.7285
-10.7589
-10.7927
-10.8297
-10.8695
-10.9111
-10.9535
-10.9953
-11.0353
-11.0723
-11.105
-11.1325
-11.1539
-11.1685
-11.1756
-11.175
-11.1661
-11.1488
-11.1228
-11.0881
-11.0444
-10.9916
-10.9296
-10.8584
-10.7777
-10.6874
-10.5874
-10.4776
-10.3577
-10.2277
-10.0875
-9.93685
-9.77581
-9.60433
-9.42245
-9.23028
-9.02799
-8.81585
-8.59419
-8.36344
-8.12409
-7.87676
-7.6221
-7.36089
-7.09395
-6.82219
-6.54658
-6.26816
-5.98801
-5.70728
-5.4271
-5.14867
-4.87311
-4.60154
-4.33501
-4.0745
-3.82089
-3.57495
-3.33735
-3.10867
-2.88933
-2.67968
-2.47992
-2.29021
-2.11059
-1.941
-1.7813
-1.63129
-1.49067
-1.35915
-1.23637
-1.12191
-1.01536
-0.916296
-0.824274
-0.738859
-0.659606
-0.586128
-0.517987
-0.45486
-0.396255
-0.342102
-0.291446
-0.245253
-0.20034
-0.162583
-0.117921
-0.0965761
-0.0301977
-0.0729498
-10.3933
-10.4248
-10.4615
-10.5023
-10.5421
-10.577
-10.6072
-10.6346
-10.6607
-10.6866
-10.7138
-10.7432
-10.7753
-10.81
-10.8469
-10.8851
-10.9238
-10.9618
-10.998
-11.0313
-11.0605
-11.0848
-11.1032
-11.1152
-11.1201
-11.1174
-11.1069
-11.0881
-11.061
-11.0252
-10.9808
-10.9274
-10.865
-10.7935
-10.7127
-10.6224
-10.5226
-10.4131
-10.2938
-10.1644
-10.025
-9.87537
-9.71551
-9.54542
-9.36513
-9.17475
-8.97446
-8.76452
-8.54525
-8.31707
-8.08048
-7.83606
-7.58447
-7.32645
-7.06282
-6.79446
-6.52232
-6.2474
-5.97078
-5.69354
-5.41681
-5.14172
-4.86938
-4.60087
-4.33723
-4.07938
-3.8282
-3.58446
-3.34881
-3.12181
-2.9039
-2.6954
-2.49657
-2.30756
-2.12842
-1.9591
-1.79947
-1.64936
-1.50848
-1.37656
-1.25326
-1.13819
-1.03094
-0.93111
-0.838268
-0.751992
-0.671851
-0.597461
-0.528395
-0.464333
-0.404789
-0.349688
-0.298091
-0.250947
-0.205098
-0.166441
-0.120776
-0.0989859
-0.0307043
-0.0760811
-10.3936
-10.4235
-10.4572
-10.4936
-10.5297
-10.5627
-10.5923
-10.6195
-10.6456
-10.6716
-10.6983
-10.7268
-10.7572
-10.7897
-10.8237
-10.8588
-10.8939
-10.9283
-10.9609
-10.9905
-11.0164
-11.0375
-11.0531
-11.0624
-11.065
-11.0603
-11.048
-11.0278
-10.9994
-10.9626
-10.9173
-10.8632
-10.8003
-10.7285
-10.6474
-10.5572
-10.4575
-10.3482
-10.2292
-10.1005
-9.96181
-9.81314
-9.65443
-9.48568
-9.30695
-9.11834
-8.92002
-8.71226
-8.49538
-8.26978
-8.03595
-7.79447
-7.54597
-7.29118
-7.0309
-6.76597
-6.49734
-6.22598
-5.95292
-5.67923
-5.40599
-5.1343
-4.86525
-4.59986
-4.33916
-4.08404
-3.83537
-3.59389
-3.36025
-3.13499
-2.91855
-2.71129
-2.51346
-2.3252
-2.14659
-1.97757
-1.81806
-1.66788
-1.52677
-1.39448
-1.27068
-1.15501
-1.04707
-0.946465
-0.852796
-0.765648
-0.684601
-0.609279
-0.539263
-0.474237
-0.413724
-0.357641
-0.305072
-0.256935
-0.210124
-0.170503
-0.123856
-0.101438
-0.0315154
-0.0787397
-10.3929
-10.4211
-10.4522
-10.4853
-10.5183
-10.5493
-10.5779
-10.6047
-10.6305
-10.6561
-10.6823
-10.7096
-10.7384
-10.7686
-10.8
-10.832
-10.8638
-10.8947
-10.9238
-10.95
-10.9725
-10.9905
-11.0032
-11.01
-11.0103
-11.0036
-10.9895
-10.9677
-10.938
-10.9001
-10.8539
-10.7991
-10.7357
-10.6634
-10.5821
-10.4917
-10.3921
-10.2831
-10.1645
-10.0363
-9.89833
-9.75058
-9.59299
-9.42557
-9.24836
-9.0615
-8.86515
-8.65956
-8.44505
-8.22203
-7.99098
-7.75243
-7.50704
-7.25549
-6.99857
-6.7371
-6.47201
-6.20422
-5.93476
-5.66464
-5.39492
-5.12668
-4.86093
-4.59871
-4.34098
-4.08864
-3.84252
-3.60335
-3.37175
-3.14827
-2.93338
-2.72741
-2.53062
-2.34315
-2.1651
-1.99643
-1.83706
-1.68684
-1.54553
-1.41289
-1.28861
-1.17233
-1.06371
-0.962338
-0.867838
-0.779808
-0.697841
-0.621568
-0.550581
-0.484566
-0.423057
-0.36596
-0.312388
-0.263219
-0.215423
-0.174774
-0.127167
-0.103933
-0.0326396
-0.0809016
-10.3912
-10.4179
-10.4468
-10.4771
-10.5074
-10.5365
-10.5639
-10.59
-10.6153
-10.6402
-10.6655
-10.6916
-10.7187
-10.7468
-10.7756
-10.8047
-10.8334
-10.861
-10.8867
-10.9096
-10.9289
-10.9438
-10.9537
-10.9579
-10.9559
-10.9471
-10.9312
-10.9079
-10.8768
-10.8378
-10.7906
-10.7351
-10.6711
-10.5984
-10.5168
-10.4263
-10.3267
-10.2179
-10.0997
-9.97199
-9.83477
-9.68793
-9.53145
-9.36534
-9.18967
-9.00455
-8.81015
-8.60673
-8.39461
-8.17417
-7.94588
-7.71028
-7.46799
-7.21969
-6.96614
-6.70815
-6.4466
-6.1824
-5.91654
-5.65001
-5.38384
-5.11904
-4.85663
-4.59759
-4.34287
-4.09333
-3.84978
-3.61294
-3.38342
-3.16178
-2.94846
-2.74381
-2.54809
-2.36145
-2.18399
-2.01569
-1.85649
-1.70625
-1.56476
-1.43178
-1.30702
-1.19016
-1.08085
-0.978713
-0.883376
-0.794456
-0.711556
-0.634315
-0.562338
-0.495311
-0.432781
-0.374642
-0.320039
-0.269802
-0.220996
-0.179258
-0.13071
-0.106476
-0.0340795
-0.0825521
-10.3886
-10.4139
-10.4407
-10.4687
-10.4968
-10.5241
-10.5502
-10.5754
-10.5998
-10.6239
-10.6482
-10.673
-10.6984
-10.7243
-10.7507
-10.777
-10.8026
-10.8271
-10.8495
-10.8692
-10.8854
-10.8974
-10.9045
-10.9062
-10.9018
-10.891
-10.8733
-10.8483
-10.8159
-10.7757
-10.7276
-10.6712
-10.6066
-10.5334
-10.4516
-10.361
-10.2614
-10.1527
-10.0349
-9.90778
-9.77129
-9.62536
-9.47
-9.30522
-9.13107
-8.94769
-8.75526
-8.55401
-8.34427
-8.12641
-7.90089
-7.66825
-7.42907
-7.18402
-6.93385
-6.67933
-6.42133
-6.16073
-5.89848
-5.63554
-5.37291
-5.11157
-4.8525
-4.59666
-4.34495
-4.09823
-3.85727
-3.62277
-3.39536
-3.17558
-2.96387
-2.76056
-2.56592
-2.38013
-2.20328
-2.03537
-1.87636
-1.72612
-1.58446
-1.45115
-1.32593
-1.20849
-1.09849
-0.995579
-0.8994
-0.809579
-0.725735
-0.647512
-0.574525
-0.506466
-0.442891
-0.383683
-0.328021
-0.276681
-0.226844
-0.183956
-0.134484
-0.109069
-0.0358301
-0.0836869
-10.3851
-10.409
-10.4341
-10.46
-10.4861
-10.5117
-10.5365
-10.5606
-10.584
-10.6072
-10.6303
-10.6537
-10.6773
-10.7012
-10.7252
-10.7488
-10.7716
-10.793
-10.8123
-10.8289
-10.8421
-10.8512
-10.8556
-10.8548
-10.8481
-10.8352
-10.8157
-10.7891
-10.7553
-10.7139
-10.6648
-10.6077
-10.5424
-10.4687
-10.3866
-10.2958
-10.1963
-10.0878
-9.97038
-9.8438
-9.70804
-9.56305
-9.40881
-9.24535
-9.07275
-8.89113
-8.70066
-8.5016
-8.29424
-8.07897
-7.85623
-7.62653
-7.39046
-7.14867
-6.90188
-6.65084
-6.39638
-6.13937
-5.88073
-5.62138
-5.36229
-5.1044
-4.84868
-4.59603
-4.34733
-4.10343
-3.86507
-3.63294
-3.40766
-3.18975
-2.97964
-2.77769
-2.58416
-2.39923
-2.223
-2.05551
-1.8967
-1.74646
-1.60463
-1.47101
-1.34532
-1.2273
-1.11661
-1.01293
-0.915902
-0.825171
-0.740369
-0.661148
-0.587135
-0.518022
-0.45338
-0.393078
-0.336333
-0.283857
-0.232964
-0.188872
-0.138487
-0.111718
-0.0378799
-0.0843146
-10.3807
-10.4033
-10.4269
-10.451
-10.4753
-10.4993
-10.5228
-10.5456
-10.568
-10.59
-10.6119
-10.6337
-10.6556
-10.6775
-10.6991
-10.7202
-10.7402
-10.7587
-10.7751
-10.7888
-10.7991
-10.8054
-10.8072
-10.8038
-10.7949
-10.78
-10.7586
-10.7304
-10.6952
-10.6526
-10.6025
-10.5445
-10.4786
-10.4044
-10.322
-10.2311
-10.1316
-10.0233
-9.90625
-9.78023
-9.64521
-9.50115
-9.34805
-9.18594
-9.01489
-8.83503
-8.64654
-8.44966
-8.2447
-8.03202
-7.81205
-7.58531
-7.35236
-7.11382
-6.87039
-6.62282
-6.3719
-6.11848
-5.86344
-5.60767
-5.3521
-5.09766
-4.84527
-4.59581
-4.35013
-4.10904
-3.87328
-3.64353
-3.42037
-3.20433
-2.99584
-2.79526
-2.60284
-2.41878
-2.2432
-2.07611
-1.91751
-1.76729
-1.6253
-1.49136
-1.36521
-1.2466
-1.13523
-1.03076
-0.932877
-0.841224
-0.755451
-0.675217
-0.60016
-0.529973
-0.464243
-0.402822
-0.344969
-0.291327
-0.239355
-0.194004
-0.142713
-0.114424
-0.0402112
-0.0844561
-10.3755
-10.3969
-10.419
-10.4415
-10.4642
-10.4867
-10.5088
-10.5304
-10.5516
-10.5724
-10.5929
-10.6132
-10.6334
-10.6532
-10.6726
-10.6912
-10.7086
-10.7243
-10.7379
-10.7487
-10.7563
-10.7599
-10.7591
-10.7534
-10.7423
-10.7253
-10.7021
-10.6724
-10.6357
-10.5919
-10.5407
-10.4819
-10.4153
-10.3407
-10.258
-10.167
-10.0675
-9.95942
-9.84272
-9.71726
-9.583
-9.43989
-9.28794
-9.12718
-8.95769
-8.7796
-8.59309
-8.39841
-8.19584
-7.98575
-7.76856
-7.54477
-7.31492
-7.07963
-6.83957
-6.59545
-6.34806
-6.09821
-5.84675
-5.59454
-5.34248
-5.09147
-4.8424
-4.5961
-4.35343
-4.11515
-3.88198
-3.65459
-3.43356
-3.21939
-3.01253
-2.81331
-2.62201
-2.43882
-2.26388
-2.09721
-1.93882
-1.78862
-1.64647
-1.5122
-1.3856
-1.2664
-1.15433
-1.04907
-0.950319
-0.857733
-0.770974
-0.689711
-0.613592
-0.542313
-0.475473
-0.41291
-0.353924
-0.299088
-0.246012
-0.199353
-0.147157
-0.117192
-0.0428012
-0.0841424
-10.3695
-10.3897
-10.4105
-10.4316
-10.4528
-10.4739
-10.4946
-10.515
-10.5349
-10.5543
-10.5735
-10.5922
-10.6106
-10.6285
-10.6457
-10.662
-10.6768
-10.69
-10.7008
-10.709
-10.7138
-10.7149
-10.7116
-10.7036
-10.6903
-10.6714
-10.6464
-10.6151
-10.577
-10.532
-10.4798
-10.4202
-10.3529
-10.2778
-10.1948
-10.1036
-10.0041
-9.89632
-9.78
-9.65512
-9.52162
-9.37947
-9.22868
-9.06928
-8.90136
-8.72505
-8.54053
-8.34804
-8.14787
-7.94037
-7.72595
-7.5051
-7.27835
-7.04629
-6.80958
-6.5689
-6.32502
-6.07871
-5.8308
-5.58213
-5.33356
-5.08596
-4.84017
-4.59703
-4.35733
-4.12184
-3.89126
-3.66621
-3.44729
-3.23499
-3.02974
-2.83188
-2.64169
-2.45938
-2.28507
-2.11883
-1.96064
-1.81045
-1.66814
-1.53355
-1.40648
-1.28669
-1.17391
-1.06785
-0.96822
-0.874689
-0.786931
-0.704623
-0.627424
-0.555033
-0.487062
-0.423336
-0.363193
-0.307133
-0.252929
-0.204914
-0.15181
-0.120023
-0.0456217
-0.0834127
-10.3627
-10.3818
-10.4014
-10.4212
-10.441
-10.4608
-10.4802
-10.4992
-10.5178
-10.5359
-10.5536
-10.5708
-10.5875
-10.6035
-10.6186
-10.6325
-10.645
-10.6557
-10.664
-10.6695
-10.6719
-10.6704
-10.6648
-10.6545
-10.6392
-10.6183
-10.5916
-10.5587
-10.5193
-10.4731
-10.4199
-10.3594
-10.2915
-10.2159
-10.1326
-10.0413
-9.94185
-9.83424
-9.71833
-9.59404
-9.46131
-9.32013
-9.17051
-9.01248
-8.84614
-8.67162
-8.48909
-8.29879
-8.10101
-7.89609
-7.68444
-7.46651
-7.24284
-7.014
-6.7806
-6.54335
-6.30294
-6.06015
-5.81576
-5.5706
-5.32548
-5.08124
-4.83871
-4.59869
-4.36194
-4.12921
-3.90118
-3.67847
-3.46164
-3.25118
-3.04752
-2.85101
-2.66193
-2.48048
-2.3068
-2.14096
-1.98298
-1.8328
-1.69032
-1.55539
-1.42785
-1.30745
-1.19396
-1.0871
-0.986571
-0.89208
-0.803307
-0.719939
-0.641642
-0.568121
-0.498999
-0.434087
-0.372765
-0.315456
-0.260099
-0.210684
-0.156661
-0.12292
-0.0486407
-0.082313
-10.3553
-10.3734
-10.3918
-10.4103
-10.4289
-10.4473
-10.4654
-10.4832
-10.5005
-10.5172
-10.5335
-10.5491
-10.5641
-10.5782
-10.5913
-10.603
-10.6133
-10.6215
-10.6274
-10.6305
-10.6304
-10.6266
-10.6188
-10.6063
-10.589
-10.5662
-10.5378
-10.5034
-10.4626
-10.4153
-10.3611
-10.2998
-10.2312
-10.1552
-10.0716
-9.98015
-9.88081
-9.77344
-9.65794
-9.53425
-9.40232
-9.26212
-9.11368
-8.95703
-8.79227
-8.61953
-8.43899
-8.25088
-8.05548
-7.85314
-7.64423
-7.42922
-7.2086
-6.98294
-6.75285
-6.51897
-6.28201
-6.04269
-5.80179
-5.56009
-5.31838
-5.07747
-4.83815
-4.6012
-4.36737
-4.13736
-3.91185
-3.69143
-3.47666
-3.26802
-3.06594
-2.87076
-2.68276
-2.50216
-2.32909
-2.16365
-2.00585
-1.85566
-1.713
-1.57774
-1.4497
-1.32869
-1.21447
-1.10679
-1.00536
-0.909893
-0.82009
-0.735644
-0.656233
-0.581562
-0.511269
-0.445153
-0.382628
-0.324045
-0.267508
-0.216655
-0.161694
-0.125884
-0.0518219
-0.0808934
-10.3473
-10.3644
-10.3817
-10.3991
-10.4164
-10.4336
-10.4505
-10.4669
-10.4829
-10.4983
-10.5131
-10.5272
-10.5404
-10.5527
-10.5639
-10.5736
-10.5816
-10.5876
-10.5912
-10.592
-10.5896
-10.5836
-10.5736
-10.5591
-10.5398
-10.5153
-10.4853
-10.4493
-10.4073
-10.3588
-10.3036
-10.2416
-10.1724
-10.096
-10.012
-9.92052
-9.82126
-9.71414
-9.59908
-9.476
-9.34488