/*--------------------------------*- C++ -*----------------------------------*\
  =========                 |
  \\      /  F ield         | OpenFOAM: The Open Source CFD Toolbox
   \\    /   O peration     | Website:  https://openfoam.org
    \\  /    A nd           | Version:  10
     \\/     M anipulation  |
\*---------------------------------------------------------------------------*/
FoamFile
{
    format      ascii;
    class       volVectorField;
    location    "800";
    object      U;
}
// * * * * * * * * * * * * * * * * * * * * * * * * * * * * * * * * * * * * * //

dimensions      [0 1 -1 0 0 0 0];

internalField   nonuniform List<vector> 
6820
(
(7.13228 -2.83247 0)
(7.73434 -2.22097 0)
(7.93448 -1.24474 0)
(7.85772 -0.6306 0)
(7.69324 -0.300931 0)
(7.51792 -0.135203 0)
(7.34936 -0.0534971 0)
(7.19463 -0.013061 0)
(7.05694 0.00686759 0)
(6.93549 0.0163323 0)
(6.82783 0.0203891 0)
(6.73175 0.021666 0)
(6.64553 0.0215368 0)
(6.56773 0.0207165 0)
(6.49714 0.0195831 0)
(6.43278 0.0183397 0)
(6.37383 0.0170937 0)
(6.31964 0.0158992 0)
(6.26963 0.0147813 0)
(6.22336 0.0137492 0)
(6.18041 0.0128043 0)
(6.14044 0.011944 0)
(6.10314 0.0111639 0)
(6.06826 0.01046 0)
(6.03554 0.00982919 0)
(6.00476 0.00927039 0)
(5.97571 0.00878659 0)
(5.94815 0.00838498 0)
(5.92186 0.00809412 0)
(5.8964 0.00792286 0)
(5.87161 0.00800591 0)
(5.84466 0.00835798 0)
(5.82761 0.0058983 0)
(7.57676 0.619468 0)
(7.41857 0.759314 0)
(7.35518 0.51949 0)
(7.35368 0.338997 0)
(7.40446 0.233423 0)
(7.46266 0.167014 0)
(7.5028 0.124256 0)
(7.52296 0.0970541 0)
(7.52874 0.0793567 0)
(7.52455 0.0672658 0)
(7.51318 0.0586454 0)
(7.49676 0.0523013 0)
(7.47704 0.0474911 0)
(7.45521 0.0437269 0)
(7.43207 0.0406888 0)
(7.40818 0.0381714 0)
(7.38394 0.0360389 0)
(7.35964 0.034198 0)
(7.33549 0.0325834 0)
(7.31163 0.0311493 0)
(7.28816 0.0298628 0)
(7.26516 0.0287005 0)
(7.24266 0.0276458 0)
(7.22072 0.0266876 0)
(7.19933 0.0258198 0)
(7.17852 0.0250412 0)
(7.15828 0.0243587 0)
(7.13859 0.0237843 0)
(7.11949 0.023363 0)
(7.10085 0.0231056 0)
(7.08303 0.0232717 0)
(7.06535 0.0235752 0)
(7.05249 0.0276192 0)
(7.26194 -0.0479144 0)
(7.1598 -0.0718987 0)
(7.19681 -0.0845019 0)
(7.23914 -0.0533683 0)
(7.27631 -0.0172224 0)
(7.31445 0.00633774 0)
(7.34736 0.0206572 0)
(7.37268 0.0300112 0)
(7.39197 0.0360111 0)
(7.4065 0.0394932 0)
(7.41687 0.0412593 0)
(7.42373 0.0419559 0)
(7.42779 0.0419924 0)
(7.42964 0.0416135 0)
(7.4297 0.0409777 0)
(7.42834 0.0401928 0)
(7.42582 0.0393292 0)
(7.42239 0.0384312 0)
(7.41822 0.037527 0)
(7.41347 0.0366347 0)
(7.40824 0.0357665 0)
(7.40265 0.0349305 0)
(7.39676 0.0341329 0)
(7.39064 0.0333794 0)
(7.38435 0.0326764 0)
(7.37792 0.0320325 0)
(7.37139 0.0314622 0)
(7.36477 0.0309828 0)
(7.3581 0.0306392 0)
(7.35135 0.03045 0)
(7.34465 0.0305997 0)
(7.33776 0.031006 0)
(7.33201 0.0329644 0)
(7.29243 -0.0887254 0)
(7.22392 -0.0614724 0)
(7.23482 -0.0268998 0)
(7.25115 -0.00103421 0)
(7.2656 0.0189096 0)
(7.28496 0.0304699 0)
(7.30449 0.0362731 0)
(7.32129 0.0394556 0)
(7.33582 0.0412403 0)
(7.3485 0.0420187 0)
(7.35931 0.0421303 0)
(7.36832 0.0418673 0)
(7.37578 0.0413977 0)
(7.3819 0.0408051 0)
(7.38688 0.04014 0)
(7.39087 0.039438 0)
(7.39402 0.0387223 0)
(7.39646 0.0380071 0)
(7.39827 0.0373014 0)
(7.39956 0.0366118 0)
(7.4004 0.035943 0)
(7.40085 0.0352994 0)
(7.40097 0.0346854 0)
(7.4008 0.034106 0)
(7.40038 0.0335685 0)
(7.39974 0.0330826 0)
(7.39891 0.0326639 0)
(7.39791 0.0323322 0)
(7.39678 0.0321274 0)
(7.39551 0.0320788 0)
(7.39421 0.0323135 0)
(7.39286 0.0327994 0)
(7.39201 0.0340779 0)
(7.31244 -0.0515031 0)
(7.26793 -0.0318756 0)
(7.26467 -0.0126196 0)
(7.26769 -5.89119e-05 0)
(7.27322 0.0130522 0)
(7.28436 0.0226471 0)
(7.29691 0.0282828 0)
(7.30832 0.0318828 0)
(7.31873 0.0343755 0)
(7.32833 0.0359785 0)
(7.337 0.0368998 0)
(7.34469 0.0373693 0)
(7.35151 0.0375401 0)
(7.35755 0.0374999 0)
(7.36289 0.0373082 0)
(7.36762 0.0370111 0)
(7.3718 0.0366423 0)
(7.3755 0.0362254 0)
(7.37877 0.0357777 0)
(7.38167 0.0353122 0)
(7.38425 0.0348396 0)
(7.38653 0.0343688 0)
(7.38855 0.0339079 0)
(7.39035 0.0334654 0)
(7.39194 0.033051 0)
(7.39334 0.0326763 0)
(7.39459 0.0323577 0)
(7.3957 0.0321151 0)
(7.3967 0.0319808 0)
(7.39762 0.0319839 0)
(7.39853 0.0321987 0)
(7.3995 0.0326211 0)
(7.40079 0.0334464 0)
(7.3203 -0.0314404 0)
(7.28849 -0.0238378 0)
(7.28204 -0.0120245 0)
(7.2814 -0.00207311 0)
(7.28395 0.00926623 0)
(7.29103 0.0182364 0)
(7.2996 0.0239832 0)
(7.30776 0.027858 0)
(7.31545 0.0306253 0)
(7.32275 0.0325009 0)
(7.32954 0.0336863 0)
(7.33577 0.0343984 0)
(7.34146 0.0347877 0)
(7.34668 0.0349448 0)
(7.35146 0.0349323 0)
(7.35585 0.0347982 0)
(7.35988 0.0345775 0)
(7.3636 0.0342954 0)
(7.36703 0.0339704 0)
(7.37021 0.0336169 0)
(7.37316 0.0332464 0)
(7.3759 0.0328688 0)
(7.37846 0.0324931 0)
(7.38086 0.0321282 0)
(7.38311 0.0317842 0)
(7.38522 0.0314725 0)
(7.38723 0.0312078 0)
(7.38914 0.0310074 0)
(7.39098 0.0308954 0)
(7.3928 0.0308939 0)
(7.39465 0.0310422 0)
(7.39661 0.0313363 0)
(7.39882 0.0318293 0)
(7.32446 -0.0216666 0)
(7.30104 -0.0195811 0)
(7.29416 -0.0109334 0)
(7.2922 -0.00220323 0)
(7.29331 0.00755118 0)
(7.29804 0.0155701 0)
(7.30422 0.021064 0)
(7.3104 0.0249123 0)
(7.3164 0.0277072 0)
(7.32221 0.0296629 0)
(7.32772 0.0309674 0)
(7.33286 0.0318109 0)
(7.33766 0.0323296 0)
(7.34214 0.0326101 0)
(7.34632 0.0327139 0)
(7.35024 0.0326874 0)
(7.35391 0.0325654 0)
(7.35736 0.0323732 0)
(7.36062 0.0321297 0)
(7.36369 0.0318501 0)
(7.36661 0.0315462 0)
(7.36937 0.0312284 0)
(7.37201 0.030906 0)
(7.37454 0.0305881 0)
(7.37695 0.0302842 0)
(7.37929 0.0300048 0)
(7.38154 0.0297622 0)
(7.38375 0.0295701 0)
(7.38593 0.0294445 0)
(7.38811 0.029399 0)
(7.39036 0.0294495 0)
(7.39273 0.0295847 0)
(7.39532 0.0297986 0)
(7.32737 -0.0149948 0)
(7.31004 -0.0151756 0)
(7.30324 -0.00892423 0)
(7.30059 -0.00165365 0)
(7.30082 0.00655889 0)
(7.30407 0.0136068 0)
(7.3087 0.0187432 0)
(7.31359 0.02248 0)
(7.31849 0.0252459 0)
(7.32331 0.027234 0)
(7.32795 0.028612 0)
(7.33235 0.0295434 0)
(7.3365 0.0301502 0)
(7.34043 0.0305148 0)
(7.34414 0.0306969 0)
(7.34765 0.0307422 0)
(7.35099 0.0306848 0)
(7.35416 0.0305503 0)
(7.35719 0.0303581 0)
(7.36008 0.0301237 0)
(7.36286 0.0298593 0)
(7.36553 0.0295756 0)
(7.36811 0.0292817 0)
(7.37061 0.0289864 0)
(7.37303 0.0286985 0)
(7.37539 0.028427 0)
(7.37771 0.0281814 0)
(7.38001 0.0279715 0)
(7.38231 0.0278065 0)
(7.38463 0.0276919 0)
(7.38703 0.0276293 0)
(7.38956 0.0276011 0)
(7.39226 0.0275798 0)
(7.3294 -0.00997831 0)
(7.31672 -0.0111227 0)
(7.3103 -0.0067992 0)
(7.30731 -0.000927427 0)
(7.30696 0.00594311 0)
(7.30918 0.0121026 0)
(7.31272 0.0168437 0)
(7.31668 0.0204193 0)
(7.32079 0.0231192 0)
(7.32491 0.0251044 0)
(7.32892 0.0265203 0)
(7.33278 0.0275067 0)
(7.33647 0.0281722 0)
(7.33998 0.0285942 0)
(7.34333 0.0288303 0)
(7.34654 0.0289247 0)
(7.3496 0.028911 0)
(7.35254 0.0288148 0)
(7.35536 0.0286557 0)
(7.35809 0.0284492 0)
(7.36072 0.0282078 0)
(7.36328 0.0279419 0)
(7.36576 0.0276608 0)
(7.36818 0.0273724 0)
(7.37056 0.0270847 0)
(7.37289 0.0268048 0)
(7.3752 0.0265398 0)
(7.37751 0.0262954 0)
(7.37983 0.0260757 0)
(7.38219 0.0258802 0)
(7.38463 0.025702 0)
(7.38717 0.0255204 0)
(7.38986 0.0253021 0)
(7.33075 -0.00639643 0)
(7.32165 -0.00775592 0)
(7.31591 -0.00477867 0)
(7.31286 -8.65063e-05 0)
(7.31212 0.00562711 0)
(7.31358 0.0109689 0)
(7.3163 0.0152854 0)
(7.31955 0.0186537 0)
(7.32304 0.0212503 0)
(7.32661 0.0231997 0)
(7.33015 0.024623 0)
(7.33359 0.025638 0)
(7.33692 0.0263399 0)
(7.34012 0.0268001 0)
(7.34319 0.0270732 0)
(7.34615 0.0272016 0)
(7.349 0.0272179 0)
(7.35174 0.0271472 0)
(7.3544 0.0270092 0)
(7.35698 0.0268192 0)
(7.35949 0.0265899 0)
(7.36193 0.0263313 0)
(7.36432 0.0260522 0)
(7.36667 0.0257602 0)
(7.36898 0.0254617 0)
(7.37126 0.0251626 0)
(7.37354 0.0248672 0)
(7.37582 0.0245785 0)
(7.37812 0.0242965 0)
(7.38046 0.0240166 0)
(7.38287 0.0237277 0)
(7.38538 0.0234085 0)
(7.38799 0.0230269 0)
(7.33162 -0.0039313 0)
(7.32523 -0.00506115 0)
(7.32037 -0.00292751 0)
(7.31748 0.000818197 0)
(7.31653 0.00553869 0)
(7.31744 0.0101297 0)
(7.31951 0.014006 0)
(7.32219 0.0171301 0)
(7.32517 0.0195908 0)
(7.32829 0.0214751 0)
(7.33144 0.0228793 0)
(7.33455 0.0239001 0)
(7.33758 0.0246197 0)
(7.34053 0.0251024 0)
(7.34338 0.025399 0)
(7.34613 0.0255496 0)
(7.34881 0.0255853 0)
(7.3514 0.0255308 0)
(7.35392 0.0254051 0)
(7.35637 0.0252235 0)
(7.35877 0.0249983 0)
(7.36112 0.0247394 0)
(7.36342 0.024455 0)
(7.36569 0.0241517 0)
(7.36794 0.0238352 0)
(7.37017 0.0235096 0)
(7.37239 0.0231775 0)
(7.37463 0.0228393 0)
(7.37689 0.0224924 0)
(7.37919 0.02213 0)
(7.38155 0.0217394 0)
(7.38398 0.0213004 0)
(7.3865 0.0207847 0)
(7.33218 -0.00226258 0)
(7.32778 -0.00295804 0)
(7.32388 -0.00130683 0)
(7.32132 0.00171336 0)
(7.3203 0.00560249 0)
(7.32082 0.00951815 0)
(7.32241 0.012956 0)
(7.32461 0.0158115 0)
(7.32717 0.0181098 0)
(7.32992 0.0199037 0)
(7.33274 0.021265 0)
(7.33556 0.0222712 0)
(7.33834 0.0229914 0)
(7.34107 0.0234825 0)
(7.34373 0.0237907 0)
(7.34632 0.0239531 0)
(7.34884 0.0239995 0)
(7.3513 0.0239533 0)
(7.3537 0.023833 0)
(7.35605 0.0236533 0)
(7.35835 0.0234263 0)
(7.36061 0.0231612 0)
(7.36284 0.0228659 0)
(7.36504 0.0225461 0)
(7.36722 0.0222065 0)
(7.3694 0.02185 0)
(7.37157 0.0214776 0)
(7.37375 0.0210882 0)
(7.37596 0.0206776 0)
(7.3782 0.0202379 0)
(7.38049 0.0197563 0)
(7.38283 0.0192151 0)
(7.38524 0.0185901 0)
(7.33252 -0.00115094 0)
(7.32957 -0.00136593 0)
(7.32658 4.14072e-05 0)
(7.32445 0.00253188 0)
(7.3235 0.00574848 0)
(7.32378 0.00907364 0)
(7.325 0.0120914 0)
(7.32682 0.0146671 0)
(7.32903 0.0167838 0)
(7.33145 0.0184662 0)
(7.33399 0.0197641 0)
(7.33656 0.0207371 0)
(7.33913 0.0214422 0)
(7.34166 0.0219284 0)
(7.34416 0.0222371 0)
(7.3466 0.0224022 0)
(7.34899 0.0224513 0)
(7.35134 0.0224064 0)
(7.35364 0.0222854 0)
(7.35589 0.0221023 0)
(7.35811 0.0218684 0)
(7.36029 0.0215927 0)
(7.36245 0.0212823 0)
(7.36458 0.0209423 0)
(7.3667 0.0205764 0)
(7.36882 0.0201864 0)
(7.37093 0.0197726 0)
(7.37306 0.0193325 0)
(7.37521 0.0188614 0)
(7.37738 0.018351 0)
(7.37959 0.0177899 0)
(7.38184 0.0171625 0)
(7.38413 0.0164492 0)
(7.33273 -0.00042547 0)
(7.3308 -0.000200727 0)
(7.32861 0.0011069 0)
(7.32695 0.00322597 0)
(7.32615 0.00591567 0)
(7.32632 0.00873961 0)
(7.32729 0.0113695 0)
(7.32882 0.0136672 0)
(7.33073 0.0155914 0)
(7.33288 0.0171464 0)
(7.33516 0.0183636 0)
(7.33752 0.0192873 0)
(7.33989 0.0199629 0)
(7.34226 0.0204321 0)
(7.34461 0.020731 0)
(7.34692 0.02089 0)
(7.3492 0.0209343 0)
(7.35144 0.0208846 0)
(7.35364 0.0207573 0)
(7.35581 0.020566 0)
(7.35795 0.0203212 0)
(7.36006 0.0200312 0)
(7.36215 0.0197025 0)
(7.36423 0.0193396 0)
(7.36629 0.0189454 0)
(7.36835 0.0185211 0)
(7.37041 0.0180661 0)
(7.37247 0.0175775 0)
(7.37455 0.0170503 0)
(7.37665 0.016477 0)
(7.37878 0.0158471 0)
(7.38093 0.015148 0)
(7.38311 0.0143638 0)
(7.33285 3.63956e-05 0)
(7.33162 0.000621352 0)
(7.3301 0.0019051 0)
(7.32889 0.00376917 0)
(7.3283 0.00605585 0)
(7.32845 0.0084656 0)
(7.32926 0.0107494 0)
(7.33058 0.0127814 0)
(7.33225 0.0145108 0)
(7.33417 0.0159283 0)
(7.33625 0.0170517 0)
(7.33841 0.0179125 0)
(7.34061 0.0185463 0)
(7.34283 0.0189874 0)
(7.34505 0.0192669 0)
(7.34724 0.0194116 0)
(7.34941 0.0194443 0)
(7.35156 0.0193838 0)
(7.35368 0.0192455 0)
(7.35577 0.0190417 0)
(7.35783 0.0187823 0)
(7.35988 0.018475 0)
(7.36191 0.0181256 0)
(7.36392 0.0177381 0)
(7.36592 0.0173148 0)
(7.36792 0.0168562 0)
(7.36992 0.0163615 0)
(7.37192 0.0158275 0)
(7.37394 0.0152496 0)
(7.37596 0.0146208 0)
(7.378 0.0139325 0)
(7.38006 0.0131743 0)
(7.38212 0.0123337 0)
(7.33292 0.000321251 0)
(7.33217 0.00117671 0)
(7.33117 0.00246706 0)
(7.33036 0.00415449 0)
(7.32999 0.00613624 0)
(7.33019 0.00821032 0)
(7.33092 0.0101937 0)
(7.33209 0.0119805 0)
(7.33358 0.0135197 0)
(7.33532 0.0147957 0)
(7.33721 0.0158165 0)
(7.33921 0.0166041 0)
(7.34126 0.0171855 0)
(7.34334 0.0175889 0)
(7.34544 0.0178404 0)
(7.34752 0.0179634 0)
(7.3496 0.0179781 0)
(7.35166 0.0179015 0)
(7.3537 0.0177475 0)
(7.35571 0.0175274 0)
(7.35771 0.0172504 0)
(7.35969 0.0169235 0)
(7.36166 0.0165517 0)
(7.36361 0.0161386 0)
(7.36556 0.0156859 0)
(7.3675 0.0151941 0)
(7.36944 0.0146618 0)
(7.37137 0.0140863 0)
(7.37332 0.0134631 0)
(7.37527 0.0127864 0)
(7.37722 0.0120491 0)
(7.37918 0.0112427 0)
(7.38114 0.0103578 0)
(7.33296 0.000488893 0)
(7.33253 0.00153051 0)
(7.33192 0.00283095 0)
(7.33145 0.00439003 0)
(7.33129 0.00613957 0)
(7.33157 0.00794384 0)
(7.33227 0.00967124 0)
(7.33334 0.0112373 0)
(7.3347 0.0125967 0)
(7.33628 0.013732 0)
(7.33803 0.0146457 0)
(7.33988 0.0153527 0)
(7.3418 0.0158737 0)
(7.34377 0.0162313 0)
(7.34575 0.0164474 0)
(7.34774 0.0165421 0)
(7.34973 0.0165331 0)
(7.3517 0.0164354 0)
(7.35367 0.0162617 0)
(7.35562 0.0160222 0)
(7.35755 0.015725 0)
(7.35947 0.0153765 0)
(7.36138 0.0149812 0)
(7.36327 0.014542 0)
(7.36516 0.0140607 0)
(7.36704 0.0135371 0)
(7.36891 0.0129701 0)
(7.37079 0.0123571 0)
(7.37266 0.0116943 0)
(7.37453 0.0109768 0)
(7.3764 0.0101989 0)
(7.37826 0.00935399 0)
(7.38012 0.00843486 0)
(7.33299 0.000579888 0)
(7.33276 0.00173593 0)
(7.33244 0.00303609 0)
(7.33222 0.00449378 0)
(7.33226 0.00606183 0)
(7.33262 0.00764804 0)
(7.33332 0.00915884 0)
(7.33433 0.0105294 0)
(7.33559 0.0117224 0)
(7.33706 0.0127217 0)
(7.33868 0.0135272 0)
(7.34042 0.0141493 0)
(7.34222 0.0146039 0)
(7.34408 0.0149094 0)
(7.34597 0.0150839 0)
(7.34787 0.0151447 0)
(7.34977 0.015107 0)
(7.35167 0.0149841 0)
(7.35356 0.0147871 0)
(7.35545 0.0145253 0)
(7.35732 0.0142058 0)
(7.35918 0.0138343 0)
(7.36102 0.0134149 0)
(7.36286 0.0129499 0)
(7.36469 0.0124408 0)
(7.36651 0.0118876 0)
(7.36832 0.011289 0)
(7.37013 0.0106428 0)
(7.37193 0.00994587 0)
(7.37372 0.00919429 0)
(7.37551 0.00838346 0)
(7.37728 0.00750841 0)
(7.37904 0.0065636 0)
(7.333 0.000621438 0)
(7.33291 0.00183495 0)
(7.33278 0.00311931 0)
(7.33276 0.00448886 0)
(7.33294 0.00590896 0)
(7.33338 0.00731556 0)
(7.33409 0.00864217 0)
(7.33507 0.00984036 0)
(7.33626 0.0108811 0)
(7.33764 0.0117511 0)
(7.33916 0.0124499 0)
(7.34079 0.0129851 0)
(7.3425 0.0133696 0)
(7.34426 0.0136183 0)
(7.34606 0.0137464 0)
(7.34787 0.0137685 0)
(7.3497 0.013698 0)
(7.35153 0.0135462 0)
(7.35335 0.0133231 0)
(7.35517 0.0130366 0)
(7.35698 0.0126932 0)
(7.35878 0.0122978 0)
(7.36057 0.011854 0)
(7.36235 0.0113638 0)
(7.36412 0.0108285 0)
(7.36588 0.0102479 0)
(7.36763 0.009621 0)
(7.36937 0.00894601 0)
(7.3711 0.00822034 0)
(7.37281 0.00744085 0)
(7.37452 0.00660407 0)
(7.37621 0.00570618 0)
(7.37787 0.00474307 0)
(7.333 0.000631689 0)
(7.333 0.00186011 0)
(7.33301 0.00311311 0)
(7.33312 0.00440002 0)
(7.3334 0.00569353 0)
(7.3339 0.00694772 0)
(7.33462 0.00811516 0)
(7.33557 0.0091604 0)
(7.33671 0.0100619 0)
(7.33801 0.0108101 0)
(7.33945 0.011405 0)
(7.34099 0.0118531 0)
(7.34261 0.0121652 0)
(7.34429 0.0123537 0)
(7.346 0.0124317 0)
(7.34774 0.0124115 0)
(7.3495 0.0123046 0)
(7.35126 0.012121 0)
(7.35302 0.0118692 0)
(7.35477 0.0115563 0)
(7.35652 0.0111878 0)
(7.35827 0.010768 0)
(7.36 0.0103 0)
(7.36172 0.00978558 0)
(7.36343 0.00922571 0)
(7.36512 0.00862033 0)
(7.36681 0.00796863 0)
(7.36848 0.00726911 0)
(7.37014 0.00651975 0)
(7.37178 0.00571812 0)
(7.37341 0.00486163 0)
(7.37501 0.00394741 0)
(7.37659 0.00297244 0)
(7.33301 0.000622802 0)
(7.33305 0.00183639 0)
(7.33314 0.00304535 0)
(7.33333 0.00425152 0)
(7.33368 0.00543184 0)
(7.33421 0.00655228 0)
(7.33494 0.00757888 0)
(7.33585 0.0084863 0)
(7.33694 0.00925954 0)
(7.33818 0.00989263 0)
(7.33954 0.0103868 0)
(7.341 0.0107484 0)
(7.34254 0.0109868 0)
(7.34414 0.0111129 0)
(7.34578 0.0111378 0)
(7.34745 0.0110724 0)
(7.34913 0.0109264 0)
(7.35083 0.0107085 0)
(7.35252 0.010426 0)
(7.35422 0.0100852 0)
(7.35591 0.0096907 0)
(7.35759 0.00924629 0)
(7.35927 0.00875453 0)
(7.36093 0.00821704 0)
(7.36258 0.00763457 0)
(7.36422 0.00700711 0)
(7.36584 0.006334 0)
(7.36744 0.00561409 0)
(7.36903 0.0048458 0)
(7.3706 0.00402736 0)
(7.37215 0.00315678 0)
(7.37367 0.00223206 0)
(7.37516 0.00125091 0)
(7.33301 0.000603101 0)
(7.33307 0.00178315 0)
(7.33321 0.00293967 0)
(7.33344 0.00406624 0)
(7.33382 0.00514216 0)
(7.33435 0.00614151 0)
(7.33506 0.00704014 0)
(7.33594 0.00782075 0)
(7.33698 0.00847398 0)
(7.33815 0.00899727 0)
(7.33944 0.00939347 0)
(7.34082 0.00966909 0)
(7.34228 0.00983292 0)
(7.34381 0.0098947 0)
(7.34537 0.00986427 0)
(7.34697 0.00975104 0)
(7.34858 0.00956353 0)
(7.35021 0.00930922 0)
(7.35185 0.00899446 0)
(7.35349 0.00862448 0)
(7.35512 0.0082034 0)
(7.35674 0.00773434 0)
(7.35836 0.00721948 0)
(7.35996 0.00666018 0)
(7.36155 0.00605708 0)
(7.36313 0.00541017 0)
(7.36468 0.00471896 0)
(7.36622 0.00398255 0)
(7.36774 0.00319978 0)
(7.36924 0.00236934 0)
(7.37071 0.00148982 0)
(7.37216 0.000559758 0)
(7.37358 -0.000422499 0)
(7.33301 0.000578572 0)
(7.33308 0.00171594 0)
(7.33322 0.00281663 0)
(7.33346 0.00386578 0)
(7.33383 0.00484385 0)
(7.33435 0.00573087 0)
(7.33502 0.00651031 0)
(7.33584 0.00717159 0)
(7.33681 0.00771033 0)
(7.33791 0.00812728 0)
(7.33913 0.00842703 0)
(7.34043 0.00861669 0)
(7.34182 0.00870482 0)
(7.34326 0.00870042 0)
(7.34475 0.00861238 0)
(7.34628 0.00844899 0)
(7.34783 0.00821771 0)
(7.34939 0.00792499 0)
(7.35097 0.0075763 0)
(7.35254 0.00717606 0)
(7.35412 0.00672777 0)
(7.35568 0.00623404 0)
(7.35724 0.00569668 0)
(7.35878 0.00511681 0)
(7.36032 0.00449493 0)
(7.36183 0.00383105 0)
(7.36333 0.0031248 0)
(7.3648 0.00237549 0)
(7.36626 0.00158228 0)
(7.36769 0.000744218 0)
(7.36909 -0.000139677 0)
(7.37046 -0.00107044 0)
(7.3718 -0.00204929 0)
(7.33301 0.000553936 0)
(7.33307 0.00164813 0)
(7.3332 0.0026951 0)
(7.33341 0.00367122 0)
(7.33374 0.00455741 0)
(7.3342 0.00533859 0)
(7.33481 0.00600468 0)
(7.33556 0.00655115 0)
(7.33645 0.00697838 0)
(7.33747 0.00729038 0)
(7.3386 0.00749368 0)
(7.33982 0.00759628 0)
(7.34113 0.00760679 0)
(7.34249 0.00753381 0)
(7.34391 0.00738548 0)
(7.34536 0.00716925 0)
(7.34684 0.00689166 0)
(7.34834 0.00655832 0)
(7.34985 0.00617386 0)
(7.35136 0.00574204 0)
(7.35288 0.00526576 0)
(7.35438 0.00474716 0)
(7.35588 0.00418769 0)
(7.35737 0.00358825 0)
(7.35885 0.00294919 0)
(7.3603 0.00227053 0)
(7.36174 0.00155195 0)
(7.36316 0.000792948 0)
(7.36455 -7.11685e-06 0)
(7.36591 -0.00084891 0)
(7.36725 -0.00173313 0)
(7.36855 -0.00266049 0)
(7.36982 -0.00363189 0)
(7.33301 0.000533477 0)
(7.33305 0.00159262 0)
(7.33313 0.00259407 0)
(7.33329 0.00350466 0)
(7.33354 0.00430549 0)
(7.33392 0.00498607 0)
(7.33443 0.00554247 0)
(7.33509 0.00597615 0)
(7.33588 0.00629235 0)
(7.3368 0.00649857 0)
(7.33784 0.00660352 0)
(7.33897 0.00661632 0)
(7.34018 0.00654594 0)
(7.34146 0.00640083 0)
(7.34279 0.00618862 0)
(7.34417 0.00591607 0)
(7.34558 0.00558897 0)
(7.34701 0.00521216 0)
(7.34846 0.00478959 0)
(7.34991 0.00432437 0)
(7.35137 0.00381886 0)
(7.35282 0.00327476 0)
(7.35426 0.00269318 0)
(7.3557 0.00207475 0)
(7.35712 0.00141973 0)
(7.35852 0.000728042 0)
(7.3599 -5.74094e-07 0)
(7.36126 -0.000766552 0)
(7.36259 -0.00157036 0)
(7.3639 -0.00241252 0)
(7.36517 -0.00329351 0)
(7.36641 -0.00421384 0)
(7.36762 -0.00517421 0)
(7.333 0.000521825 0)
(7.33301 0.00156368 0)
(7.33303 0.00253498 0)
(7.33309 0.00339147 0)
(7.33323 0.00411466 0)
(7.33348 0.00469915 0)
(7.33387 0.0051476 0)
(7.3344 0.005468 0)
(7.33507 0.00567097 0)
(7.33587 0.00576791 0)
(7.33679 0.00577009 0)
(7.33782 0.00568812 0)
(7.33893 0.0055316 0)
(7.34012 0.00530904 0)
(7.34137 0.0050278 0)
(7.34267 0.00469411 0)
(7.34401 0.00431311 0)
(7.34537 0.00388899 0)
(7.34676 0.00342506 0)
(7.34815 0.00292383 0)
(7.34955 0.00238714 0)
(7.35095 0.00181626 0)
(7.35235 0.00121196 0)
(7.35373 0.000574613 0)
(7.3551 -9.57e-05 0)
(7.35645 -0.000799146 0)
(7.35778 -0.00153603 0)
(7.35909 -0.00230674 0)
(7.36037 -0.00311171 0)
(7.36163 -0.00395135 0)
(7.36285 -0.00482603 0)
(7.36403 -0.00573615 0)
(7.36519 -0.00668228 0)
(7.333 0.000524883 0)
(7.33296 0.00157947 0)
(7.33286 0.00254492 0)
(7.33278 0.00336357 0)
(7.33276 0.0040183 0)
(7.33285 0.00451031 0)
(7.33308 0.00485019 0)
(7.33345 0.00505362 0)
(7.33396 0.00513759 0)
(7.33462 0.00511816 0)
(7.33541 0.00500973 0)
(7.33632 0.00482481 0)
(7.33733 0.00457401 0)
(7.33842 0.00426617 0)
(7.33958 0.00390853 0)
(7.34081 0.00350692 0)
(7.34207 0.00306596 0)
(7.34338 0.00258924 0)
(7.3447 0.00207945 0)
(7.34604 0.00153854 0)
(7.3474 0.00096781 0)
(7.34875 0.00036809 0)
(7.3501 -0.000260235 0)
(7.35144 -0.000917067 0)
(7.35277 -0.00160257 0)
(7.35408 -0.00231705 0)
(7.35537 -0.00306093 0)
(7.35664 -0.00383463 0)
(7.35788 -0.00463862 0)
(7.35909 -0.00547327 0)
(7.36027 -0.00633896 0)
(7.36141 -0.00723604 0)
(7.36252 -0.00816504 0)
(7.33299 0.000551252 0)
(7.33287 0.0016658 0)
(7.33262 0.00266155 0)
(7.33233 0.00346425 0)
(7.33209 0.00406082 0)
(7.33196 0.00446191 0)
(7.33197 0.00468853 0)
(7.33213 0.00476628 0)
(7.33247 0.00472011 0)
(7.33296 0.00457188 0)
(7.33361 0.00433997 0)
(7.33438 0.0040394 0)
(7.33528 0.00368217 0)
(7.33628 0.00327769 0)
(7.33736 0.00283326 0)
(7.33851 0.00235444 0)
(7.33971 0.00184535 0)
(7.34096 0.00130897 0)
(7.34224 0.000747378 0)
(7.34354 0.000161885 0)
(7.34486 -0.000446737 0)
(7.34618 -0.0010782 0)
(7.3475 -0.00173253 0)
(7.34881 -0.00241001 0)
(7.35011 -0.0031111 0)
(7.35139 -0.00383634 0)
(7.35266 -0.00458632 0)
(7.35389 -0.00536163 0)
(7.3551 -0.00616281 0)
(7.35628 -0.00699032 0)
(7.35743 -0.00784458 0)
(7.35854 -0.00872599 0)
(7.35962 -0.00963509 0)
(7.33299 0.00061477 0)
(7.33274 0.00186258 0)
(7.33225 0.00294069 0)
(7.33167 0.0037554 0)
(7.33112 0.00430343 0)
(7.33069 0.00461005 0)
(7.33042 0.00471113 0)
(7.33033 0.00464583 0)
(7.33045 0.00444969 0)
(7.33076 0.0041521 0)
(7.33125 0.00377653 0)
(7.33189 0.00334122 0)
(7.33268 0.00285997 0)
(7.33359 0.00234301 0)
(7.3346 0.00179775 0)
(7.33569 0.00122946 0)
(7.33685 0.000641681 0)
(7.33807 3.67296e-05 0)
(7.33932 -0.000584082 0)
(7.3406 -0.00122014 0)
(7.34189 -0.00187137 0)
(7.3432 -0.0025381 0)
(7.34451 -0.00322091 0)
(7.34581 -0.00392055 0)
(7.3471 -0.00463789 0)
(7.34837 -0.0053738 0)
(7.34962 -0.00612916 0)
(7.35085 -0.00690478 0)
(7.35204 -0.0077014 0)
(7.35321 -0.00851964 0)
(7.35434 -0.00936005 0)
(7.35544 -0.0102231 0)
(7.35649 -0.0111095 0)
(7.33297 0.00073937 0)
(7.33253 0.00223499 0)
(7.33168 0.00346876 0)
(7.33067 0.00432816 0)
(7.32969 0.00483177 0)
(7.32886 0.00502865 0)
(7.32823 0.00497729 0)
(7.32785 0.00473668 0)
(7.32773 0.00435688 0)
(7.32784 0.00387714 0)
(7.32817 0.00332742 0)
(7.3287 0.00272987 0)
(7.3294 0.00210036 0)
(7.33025 0.00144987 0)
(7.33121 0.000785775 0)
(7.33228 0.000112785 0)
(7.33342 -0.000566369 0)
(7.33463 -0.00125033 0)
(7.33588 -0.00193877 0)
(7.33717 -0.00263203 0)
(7.33847 -0.00333094 0)
(7.33979 -0.00403661 0)
(7.34111 -0.00475037 0)
(7.34242 -0.00547357 0)
(7.34373 -0.00620763 0)
(7.34501 -0.00695389 0)
(7.34627 -0.00771363 0)
(7.34751 -0.008488 0)
(7.34871 -0.00927801 0)
(7.34989 -0.0100845 0)
(7.35102 -0.0109084 0)
(7.35212 -0.0117502 0)
(7.35317 -0.0126107 0)
(7.33295 0.00096912 0)
(7.33217 0.00289366 0)
(7.33075 0.00438229 0)
(7.32911 0.00531753 0)
(7.32754 0.00576417 0)
(7.32618 0.00581121 0)
(7.32513 0.00555377 0)
(7.32442 0.00508084 0)
(7.32404 0.0044626 0)
(7.32397 0.00375088 0)
(7.32418 0.00298328 0)
(7.32463 0.00218612 0)
(7.32529 0.00137692 0)
(7.32611 0.000566842 0)
(7.32708 -0.000237455 0)
(7.32817 -0.00103247 0)
(7.32934 -0.00181686 0)
(7.33059 -0.00259078 0)
(7.33188 -0.00335527 0)
(7.33321 -0.00411206 0)
(7.33457 -0.00486315 0)
(7.33593 -0.00561076 0)
(7.3373 -0.00635712 0)
(7.33866 -0.00710447 0)
(7.34001 -0.00785489 0)
(7.34133 -0.00861036 0)
(7.34263 -0.00937265 0)
(7.3439 -0.0101434 0)
(7.34514 -0.010924 0)
(7.34634 -0.0117156 0)
(7.3475 -0.0125194 0)
(7.34862 -0.0133362 0)
(7.3497 -0.0141671 0)
(7.3329 0.00139204 0)
(7.33153 0.00403365 0)
(7.32919 0.00589795 0)
(7.32662 0.00691848 0)
(7.32425 0.00725477 0)
(7.32225 0.00706376 0)
(7.32072 0.00650121 0)
(7.31968 0.00570164 0)
(7.31908 0.00476165 0)
(7.31889 0.00374732 0)
(7.31904 0.00270372 0)
(7.31948 0.00166008 0)
(7.32017 0.000633961 0)
(7.32106 -0.000364971 0)
(7.3221 -0.00133222 0)
(7.32328 -0.0022667 0)
(7.32455 -0.00316947 0)
(7.32589 -0.00404296 0)
(7.32729 -0.00489032 0)
(7.32872 -0.00571511 0)
(7.33017 -0.00652097 0)
(7.33163 -0.00731155 0)
(7.33309 -0.0080903 0)
(7.33453 -0.0088605 0)
(7.33596 -0.00962515 0)
(7.33737 -0.010387 0)
(7.33874 -0.0111484 0)
(7.34008 -0.0119117 0)
(7.34138 -0.0126787 0)
(7.34264 -0.013451 0)
(7.34385 -0.0142301 0)
(7.34502 -0.0150172 0)
(7.34614 -0.0158136 0)
(7.33278 0.00219542 0)
(7.33032 0.006017 0)
(7.32651 0.00836799 0)
(7.32261 0.00940439 0)
(7.3192 0.00948185 0)
(7.31647 0.00887479 0)
(7.31447 0.00783753 0)
(7.31316 0.006568 0)
(7.31246 0.00519124 0)
(7.31226 0.00378457 0)
(7.31248 0.00239645 0)
(7.31305 0.00105483 0)
(7.31389 -0.000226533 0)
(7.31495 -0.00144255 0)
(7.31617 -0.00259327 0)
(7.31753 -0.00368177 0)
(7.31899 -0.00471291 0)
(7.32051 -0.00569239 0)
(7.32208 -0.00662623 0)
(7.32369 -0.00752042 0)
(7.3253 -0.00838071 0)
(7.32692 -0.00921248 0)
(7.32852 -0.0100207 0)
(7.33011 -0.0108099 0)
(7.33167 -0.0115842 0)
(7.33319 -0.0123472 0)
(7.33468 -0.0131022 0)
(7.33613 -0.0138519 0)
(7.33753 -0.0145989 0)
(7.33888 -0.0153452 0)
(7.34019 -0.0160929 0)
(7.34144 -0.0168433 0)
(7.34263 -0.0175982 0)
(7.33249 0.00374045 0)
(7.32795 0.00949144 0)
(7.32175 0.0123737 0)
(7.31603 0.0131782 0)
(7.31142 0.0126534 0)
(7.30798 0.0112901 0)
(7.30567 0.00950222 0)
(7.30431 0.00755995 0)
(7.30371 0.00560188 0)
(7.30373 0.00370194 0)
(7.30422 0.00190089 0)
(7.3051 0.000216324 0)
(7.30626 -0.00134882 0)
(7.30765 -0.00279902 0)
(7.3092 -0.00414225 0)
(7.31087 -0.00538822 0)
(7.31264 -0.00654724 0)
(7.31445 -0.00762959 0)
(7.31631 -0.00864498 0)
(7.31817 -0.00960247 0)
(7.32004 -0.0105103 0)
(7.32189 -0.011376 0)
(7.32372 -0.0122062 0)
(7.32552 -0.0130068 0)
(7.32727 -0.0137832 0)
(7.32899 -0.01454 0)
(7.33065 -0.0152811 0)
(7.33226 -0.0160102 0)
(7.33381 -0.0167303 0)
(7.33531 -0.0174441 0)
(7.33674 -0.0181537 0)
(7.33811 -0.0188612 0)
(7.33942 -0.0195685 0)
(7.33193 0.00664026 0)
(7.32329 0.0152929 0)
(7.31325 0.0184839 0)
(7.30522 0.0185717 0)
(7.29944 0.0168801 0)
(7.29558 0.0142364 0)
(7.29334 0.0113067 0)
(7.29234 0.00842268 0)
(7.29223 0.00569482 0)
(7.29281 0.00316763 0)
(7.29389 0.000860136 0)
(7.29536 -0.00123052 0)
(7.2971 -0.0031204 0)
(7.29905 -0.00482922 0)
(7.30114 -0.00637678 0)
(7.30333 -0.00778218 0)
(7.30557 -0.00906346 0)
(7.30785 -0.0102371 0)
(7.31014 -0.011318 0)
(7.31241 -0.0123193 0)
(7.31466 -0.0132526 0)
(7.31687 -0.0141283 0)
(7.31903 -0.0149552 0)
(7.32114 -0.0157413 0)
(7.3232 -0.0164933 0)
(7.32518 -0.0172171 0)
(7.3271 -0.0179178 0)
(7.32896 -0.0186 0)
(7.33074 -0.0192673 0)
(7.33244 -0.0199232 0)
(7.33408 -0.0205704 0)
(7.33564 -0.0212116 0)
(7.33712 -0.021849 0)
(7.33069 0.0134352 0)
(7.31368 0.0252086 0)
(7.29797 0.0267158 0)
(7.28753 0.0249955 0)
(7.28098 0.0216495 0)
(7.27735 0.0175192 0)
(7.27593 0.0134375 0)
(7.27598 0.00969586 0)
(7.27699 0.00629536 0)
(7.27869 0.00321673 0)
(7.28089 0.000447898 0)
(7.28343 -0.002034 0)
(7.2862 -0.00425955 0)
(7.28913 -0.00625821 0)
(7.29214 -0.00805619 0)
(7.29519 -0.00967745 0)
(7.29825 -0.011144 0)
(7.30129 -0.0124758 0)
(7.30428 -0.0136904 0)
(7.30722 -0.0148034 0)
(7.31009 -0.0158285 0)
(7.31288 -0.0167779 0)
(7.31558 -0.0176621 0)
(7.3182 -0.0184904 0)
(7.32072 -0.0192708 0)
(7.32315 -0.0200105 0)
(7.32548 -0.0207156 0)
(7.32771 -0.0213914 0)
(7.32985 -0.0220425 0)
(7.33189 -0.0226728 0)
(7.33383 -0.0232857 0)
(7.33568 -0.0238839 0)
(7.33744 -0.0244694 0)
(7.32456 0.0347131 0)
(7.28958 0.0467055 0)
(7.26765 0.0370835 0)
(7.25765 0.0262583 0)
(7.25264 0.0167248 0)
(7.25096 0.00874635 0)
(7.25187 0.00250159 0)
(7.25427 -0.0023435 0)
(7.2575 -0.00618373 0)
(7.26132 -0.00925615 0)
(7.26556 -0.0117299 0)
(7.27004 -0.0137453 0)
(7.27465 -0.0154126 0)
(7.27931 -0.0168112 0)
(7.28395 -0.0179986 0)
(7.28854 -0.0190189 0)
(7.29303 -0.019907 0)
(7.29741 -0.0206899 0)
(7.30166 -0.0213889 0)
(7.30576 -0.0220209 0)
(7.30971 -0.0225991 0)
(7.31351 -0.0231345 0)
(7.31716 -0.0236355 0)
(7.32065 -0.0241092 0)
(7.32399 -0.0245613 0)
(7.32717 -0.0249965 0)
(7.33021 -0.0254187 0)
(7.33309 -0.0258309 0)
(7.33584 -0.026236 0)
(7.33845 -0.0266362 0)
(7.34092 -0.0270339 0)
(7.34326 -0.0274313 0)
(7.34548 -0.0278311 0)
(7.29575 0.0823964 0)
(7.21821 0.127207 0)
(7.1868 0.128807 0)
(7.18645 0.114378 0)
(7.19338 0.0947844 0)
(7.20248 0.0767453 0)
(7.21295 0.0615374 0)
(7.22374 0.0483326 0)
(7.23444 0.0367074 0)
(7.24497 0.0265727 0)
(7.25523 0.0178499 0)
(7.26511 0.0103844 0)
(7.27454 0.00400857 0)
(7.28351 -0.00142612 0)
(7.292 -0.00605161 0)
(7.30004 -0.00998708 0)
(7.30763 -0.0133379 0)
(7.31479 -0.0161948 0)
(7.32153 -0.0186347 0)
(7.32787 -0.0207228 0)
(7.33385 -0.0225146 0)
(7.33946 -0.0240566 0)
(7.34474 -0.0253881 0)
(7.3497 -0.0265422 0)
(7.35436 -0.0275468 0)
(7.35873 -0.0284255 0)
(7.36283 -0.029198 0)
(7.36667 -0.029881 0)
(7.37027 -0.0304886 0)
(7.37363 -0.0310324 0)
(7.37677 -0.0315223 0)
(7.3797 -0.0319655 0)
(7.38242 -0.0323708 0)
(7.32909 -0.158987 0)
(7.19612 -0.292899 0)
(7.13085 -0.292311 0)
(7.10898 -0.259649 0)
(7.10972 -0.22668 0)
(7.13037 -0.195751 0)
(7.16107 -0.167841 0)
(7.19443 -0.144107 0)
(7.22758 -0.124636 0)
(7.25931 -0.108757 0)
(7.28884 -0.095777 0)
(7.31576 -0.0851761 0)
(7.34003 -0.0765327 0)
(7.36177 -0.0694813 0)
(7.38117 -0.0637152 0)
(7.39842 -0.058987 0)
(7.41372 -0.0550999 0)
(7.42726 -0.0518957 0)
(7.43923 -0.0492467 0)
(7.44978 -0.0470503 0)
(7.45907 -0.0452241 0)
(7.46723 -0.0437017 0)
(7.47437 -0.0424293 0)
(7.48061 -0.0413637 0)
(7.48603 -0.0404697 0)
(7.49072 -0.0397186 0)
(7.49476 -0.0390872 0)
(7.4982 -0.0385563 0)
(7.50111 -0.0381103 0)
(7.50355 -0.0377362 0)
(7.50556 -0.0374227 0)
(7.50718 -0.0371611 0)
(7.50848 -0.0369393 0)
(7.33045 1.21807 0)
(7.6376 1.24116 0)
(7.81729 0.934087 0)
(7.87343 0.662121 0)
(7.88532 0.462339 0)
(7.87662 0.320594 0)
(7.85215 0.220101 0)
(7.81687 0.148062 0)
(7.77613 0.0958192 0)
(7.7334 0.0576534 0)
(7.69028 0.0296473 0)
(7.64755 0.00902562 0)
(7.60575 -0.00618965 0)
(7.56522 -0.0174095 0)
(7.52614 -0.0256508 0)
(7.48857 -0.0316576 0)
(7.4525 -0.03598 0)