/*--------------------------------*- C++ -*----------------------------------*\
  =========                 |
  \\      /  F ield         | OpenFOAM: The Open Source CFD Toolbox
   \\    /   O peration     | Website:  https://openfoam.org
    \\  /    A nd           | Version:  10
     \\/     M anipulation  |
\*---------------------------------------------------------------------------*/
FoamFile
{
    format      ascii;
    class       volScalarField;
    location    "800";
    object      yPlus;
}
// * * * * * * * * * * * * * * * * * * * * * * * * * * * * * * * * * * * * * //

dimensions      [0 0 0 0 0 0 0];

internalField   uniform 0;

boundaryField
{
    outlet
    {
        type            calculated;
        value           uniform 0;
    }
    inlet
    {
        type            calculated;
        value           uniform 0;
    }
    lowerWall
    {
        type            calculated;
        value           nonuniform List<scalar> 
148
(
12.7112
17.6462
20.7196
22.3203
23.0459
23.2746
23.2254
23.0255
22.751
22.447
22.1389
21.8405
21.5587
21.2963
21.0539
20.8308
20.626
20.4379
20.265
20.1058
19.959
19.8234
19.6979
19.5814
19.4731
19.3721
19.2778
19.1894
19.1063
19.029
18.9493
18.9093
18.7104
0.397335
2.16254
3.90041
5.23249
6.33024
7.24749
8.11369
8.98413
9.85471
10.8736
11.2164
11.3891
11.7294
11.7541
25.576
0.397335
3.35803
4.97784
5.74435
5.92847
5.79645
5.49357
5.09949
4.58077
3.53426
6.72149
5.14068
11.4312
13.8252
18.5248
22.0835
25.0987
27.7381
30.0934
32.216
34.1372
35.8788
37.459
38.8951
40.2053
41.4078
42.5197
43.5572
44.5338
45.461
46.3479
47.2015
48.0271
48.829
49.6108
50.3768
51.1321
51.8831
52.6347
53.3708
54.0974
54.8147
55.5219
56.2178
56.9011
57.5702
58.2235
58.8592
59.4756
60.0708
60.643
61.1901
61.7101
62.201
62.6606
63.087
63.4776
63.8306
64.1436
64.415
64.643
64.8258
64.9614
65.0494
65.0881
65.0767
65.0148
64.9017
64.7364
64.5148
64.2757
64.0346
63.7448
63.4069
63.0309
62.6246
62.1941
61.7429
61.2746
60.7923
60.2988
59.797
59.2898
58.78
58.2699
57.7617
57.2573
56.7586
56.2671
55.7845
55.3118
54.8511
54.4025
53.9698
53.5514
53.1554
52.7782
52.4375
52.1403
51.9068
)
;
    }
    upperWall
    {
        type            calculated;
        value           nonuniform List<scalar> 
133
(
31.2591
34.0073
36.6584
39.0132
41.0752
42.889
44.4881
45.8973
47.1377
48.2283
49.1859
50.0256
50.7609
51.4035
51.9642
52.4525
52.8767
53.2444
53.562
53.8356
54.0702
54.2704
54.4403
54.5834
54.703
54.8016
54.882
54.9461
54.996
55.0334
55.0597
55.0762
55.0844
55.0838
55.0724
55.05
55.0172
54.9744
54.9222
54.8612
54.7918
54.7145
54.6297
54.5378
54.4391
54.3342
54.2231
54.1062
53.9837
53.8559
53.7228
53.5847
53.4416
53.2936
53.1407
52.9829
52.8203
52.6527
52.4802
52.3024
52.1194
51.931
51.7368
51.5369
51.3309
51.1186
50.8997
50.674
50.4412
50.201
49.9533
49.6976
49.4338
49.1617
48.881
48.5914
48.293
47.9856
47.6691
47.3435
47.0087
46.6651
46.3126
45.9516
45.5825
45.2056
44.8215
44.4308
44.0343
43.6328
43.2273
42.8189
42.4088
41.9982
41.5886
41.1814
40.7782
40.3805
39.99
39.6082
39.2369
38.8774
38.5314
38.2
37.8845
37.5858
37.3048
37.0419
36.7977
36.5719
36.3645
36.1752
36.0031
35.8475
35.7074
35.5814
35.4683
35.3668
35.2754
35.1926
35.1171
35.0473
34.9821
34.9199
34.86
34.8007
34.7415
34.6808
34.6179
34.553
34.4792
34.4195
34.2872
)
;
    }
    frontAndBack
    {
        type            empty;
    }
}


// ************************************************************************* //
