# y+ ()       
# Time        	patch         	min           	max           	average       
400           	lowerWall	5.562478e+00	8.178504e+01	4.315787e+01
400           	upperWall	3.060454e+01	4.721376e+01	4.148342e+01
