/*--------------------------------*- C++ -*----------------------------------*\
  =========                 |
  \\      /  F ield         | OpenFOAM: The Open Source CFD Toolbox
   \\    /   O peration     | Website:  https://openfoam.org
    \\  /    A nd           | Version:  10
     \\/     M anipulation  |
\*---------------------------------------------------------------------------*/
FoamFile
{
    format      ascii;
    class       volScalarField;
    location    "0.2";
    object      epsilon;
}
// * * * * * * * * * * * * * * * * * * * * * * * * * * * * * * * * * * * * * //

dimensions      [0 2 -3 0 0 0 0];

internalField   nonuniform List<scalar> 
6820
(
23.2969
22.5752
21.9094
21.2853
20.7018
20.1632
19.6734
19.2344
18.8457
18.5051
18.2094
17.9549
17.7377
17.5542
17.4007
17.274
17.1711
17.0894
17.0263
16.9797
16.9476
16.9284
16.9205
16.9225
16.9332
16.9515
16.9761
17.0089
17.0357
17.1188
16.9643
17.9447
13.6234
5.03386
6.81832
7.83937
8.46766
8.89815
9.23163
9.52193
9.7955
10.0644
10.3336
10.6049
10.8788
11.1549
11.4329
11.712
11.9918
12.2716
12.5509
12.829
13.1057
13.3804
13.6527
13.9226
14.1898
14.4545
14.7171
14.9786
15.2408
15.5064
15.7936
16.0682
16.5942
16.6072
3.7036
4.14719
4.56526
4.91423
5.19796
5.43125
5.62814
5.79986
5.95484
6.0992
6.23722
6.37183
6.50495
6.6378
6.77112
6.90533
7.04061
7.17701
7.31448
7.45292
7.59217
7.73209
7.87253
8.01337
8.15454
8.29608
8.43807
8.58115
8.7253
8.87446
9.02382
9.19292
9.35579
3.54009
3.61094
3.72474
3.85373
3.98118
4.09944
4.20624
4.30203
4.38827
4.46676
4.53922
4.60713
4.67176
4.73409
4.7949
4.85479
4.91419
4.97343
5.03272
5.09223
5.15206
5.21228
5.27291
5.33399
5.39555
5.45763
5.52031
5.58377
5.64816
5.7142
5.782
5.85276
5.92838
3.52064
3.50151
3.50498
3.52611
3.55868
3.59721
3.63781
3.67805
3.71667
3.75312
3.7873
3.81937
3.84959
3.87825
3.90567
3.93213
3.95786
3.98308
4.00797
4.03265
4.05726
4.08187
4.10657
4.13142
4.15646
4.18176
4.20738
4.2334
4.25992
4.28713
4.31517
4.34416
4.37439
3.5194
3.48247
3.45303
3.43232
3.41995
3.4145
3.41422
3.41751
3.42308
3.42999
3.43759
3.44548
3.4534
3.46122
3.46888
3.47637
3.48372
3.49095
3.49812
3.50526
3.51241
3.51963
3.52693
3.53436
3.54195
3.54973
3.55773
3.566
3.57459
3.58356
3.59298
3.60288
3.61329
3.51943
3.47974
3.44283
3.40949
3.38025
3.35523
3.3342
3.31668
3.30212
3.28998
3.27976
3.27107
3.26356
3.257
3.25118
3.24598
3.24129
3.23702
3.23314
3.22959
3.22637
3.22344
3.22081
3.21845
3.21638
3.21458
3.21308
3.21187
3.21097
3.2104
3.21019
3.21034
3.21084
3.51947
3.47943
3.44109
3.40466
3.37041
3.33851
3.30907
3.28204
3.25734
3.23478
3.21417
3.19528
3.17792
3.1619
3.14705
3.13323
3.12032
3.10822
3.09684
3.0861
3.07596
3.06636
3.05727
3.04864
3.04045
3.03269
3.02532
3.01835
3.01176
3.00555
2.99971
2.99425
2.98913
3.51948
3.47941
3.44085
3.40382
3.36835
3.33447
3.30224
3.27168
3.24278
3.21551
3.18981
3.1656
3.1428
3.1213
3.10102
3.08185
3.06371
3.04652
3.03019
3.01468
2.9999
2.98582
2.97238
2.95954
2.94726
2.93552
2.92428
2.91352
2.90322
2.89336
2.88393
2.87492
2.86631
3.51948
3.47941
3.44082
3.40368
3.36796
3.33361
3.30062
3.26897
3.23863
3.20959
3.18182
3.15528
3.12994
3.10574
3.08264
3.06057
3.03949
3.01934
3.00007
2.98163
2.96398
2.94706
2.93083
2.91527
2.90032
2.88597
2.87218
2.85892
2.84617
2.83391
2.82212
2.81079
2.79989
3.51948
3.4794
3.44081
3.40365
3.36788
3.33344
3.30027
3.26833
3.23758
3.20798
3.1795
3.1521
3.12575
3.10042
3.07606
3.05265
3.03014
3.0085
2.98769
2.96768
2.94842
2.92989
2.91205
2.89487
2.87833
2.86238
2.84701
2.83219
2.8179
2.80413
2.79084
2.77802
2.76565
3.51948
3.4794
3.4408
3.40364
3.36786
3.33339
3.30018
3.26818
3.23732
3.20757
3.17888
3.15121
3.12452
3.09878
3.07395
3.05
3.02689
3.0046
2.98309
2.96233
2.9423
2.92297
2.9043
2.88627
2.86886
2.85204
2.83579
2.82008
2.80491
2.79024
2.77607
2.76237
2.74912
3.51948
3.4794
3.44079
3.40363
3.36784
3.33337
3.30015
3.26813
3.23724
3.20745
3.17871
3.15096
3.12417
3.0983
3.07331
3.04917
3.02585
3.00331
2.98153
2.96047
2.9401
2.92041
2.90137
2.88295
2.86513
2.84788
2.83119
2.81504
2.79941
2.78428
2.76963
2.75545
2.74171
3.51948
3.47939
3.44079
3.40362
3.36783
3.33335
3.30013
3.2681
3.23721
3.2074
3.17864
3.15087
3.12405
3.09815
3.07311
3.04892
3.02552
3.0029
2.98102
2.95985
2.93936
2.91954
2.90034
2.88176
2.86377
2.84634
2.82946
2.8131
2.79726
2.78191
2.76703
2.75261
2.73863
3.51947
3.47939
3.44079
3.40362
3.36782
3.33334
3.30011
3.26808
3.23718
3.20737
3.1786
3.15082
3.124
3.09808
3.07303
3.04881
3.0254
3.00275
2.98084
2.95963
2.9391
2.91923
2.89998
2.88134
2.86328
2.84578
2.82883
2.81239
2.79646
2.78101
2.76603
2.75151
2.73743
3.51947
3.47939
3.44078
3.40361
3.36781
3.33333
3.3001
3.26806
3.23716
3.20734
3.17857
3.15079
3.12395
3.09803
3.07298
3.04875
3.02533
3.00267
2.98075
2.95953
2.93899
2.9191
2.89984
2.88118
2.86309
2.84557
2.82858
2.81212
2.79615
2.78067
2.76565
2.75108
2.73695
3.51947
3.47939
3.44078
3.40361
3.36781
3.33332
3.30008
3.26804
3.23714
3.20732
3.17854
3.15076
3.12392
3.09799
3.07293
3.04871
3.02528
3.00262
2.98069
2.95947
2.93892
2.91902
2.89975
2.88108
2.86299
2.84546
2.82846
2.81198
2.796
2.7805
2.76547
2.75088
2.73673
3.51947
3.47939
3.44078
3.4036
3.3678
3.33331
3.30007
3.26803
3.23712
3.2073
3.17852
3.15073
3.12389
3.09796
3.07289
3.04867
3.02523
3.00257
2.98064
2.95941
2.93886
2.91896
2.89969
2.88101
2.86292
2.84538
2.82838
2.81189
2.79591
2.7804
2.76536
2.75076
2.73659
3.51947
3.47939
3.44078
3.4036
3.3678
3.3333
3.30006
3.26801
3.2371
3.20728
3.1785
3.1507
3.12386
3.09793
3.07286
3.04863
3.02519
3.00253
2.98059
2.95936
2.93881
2.91891
2.89963
2.88095
2.86285
2.84531
2.82831
2.81182
2.79583
2.78031
2.76526
2.75066
2.73649
3.51947
3.47939
3.44077
3.4036
3.36779
3.3333
3.30005
3.268
3.23709
3.20726
3.17848
3.15068
3.12384
3.0979
3.07283
3.04859
3.02516
3.00249
2.98055
2.95932
2.93876
2.91886
2.89958
2.8809
2.86279
2.84525
2.82824
2.81175
2.79575
2.78023
2.76518
2.75057
2.73639
3.51947
3.47939
3.44077
3.40359
3.36779
3.33329
3.30005
3.26799
3.23708
3.20725
3.17846
3.15066
3.12381
3.09787
3.0728
3.04856
3.02513
3.00245
2.98051
2.95928
2.93872
2.91881
2.89953
2.88084
2.86274
2.84519
2.82818
2.81168
2.79568
2.78016
2.7651
2.75048
2.73629
3.51947
3.47938
3.44077
3.40359
3.36779
3.33329
3.30004
3.26799
3.23707
3.20724
3.17845
3.15065
3.12379
3.09785
3.07278
3.04854
3.0251
3.00242
2.98048
2.95924
2.93868
2.91877
2.89948
2.88079
2.86269
2.84513
2.82812
2.81162
2.79561
2.78008
2.76502
2.7504
2.73621
3.51947
3.47938
3.44077
3.40359
3.36778
3.33329
3.30004
3.26798
3.23706
3.20723
3.17843
3.15063
3.12378
3.09783
3.07276
3.04851
3.02507
3.00239
2.98045
2.95921
2.93864
2.91873
2.89944
2.88075
2.86264
2.84508
2.82806
2.81156
2.79555
2.78001
2.76494
2.75032
2.73612
3.51947
3.47938
3.44077
3.40359
3.36778
3.33328
3.30003
3.26797
3.23705
3.20722
3.17842
3.15062
3.12376
3.09782
3.07274
3.04849
3.02505
3.00237
2.98042
2.95917
2.93861
2.91869
2.8994
2.88071
2.86259
2.84503
2.82801
2.8115
2.79549
2.77995
2.76487
2.75024
2.73604
3.51947
3.47938
3.44077
3.40359
3.36778
3.33328
3.30003
3.26797
3.23705
3.20721
3.17841
3.15061
3.12375
3.0978
3.07272
3.04847
3.02503
3.00234
2.98039
2.95915
2.93858
2.91866
2.89936
2.88067
2.86255
2.84499
2.82796
2.81145
2.79543
2.77989
2.76481
2.75017
2.73596
3.51947
3.47938
3.44077
3.40359
3.36778
3.33328
3.30003
3.26797
3.23704
3.20721
3.17841
3.1506
3.12374
3.09779
3.07271
3.04846
3.02501
3.00232
2.98037
2.95912
2.93855
2.91863
2.89933
2.88063
2.86251
2.84495
2.82792
2.8114
2.79538
2.77983
2.76475
2.75011
2.73589
3.51947
3.47938
3.44077
3.40359
3.36778
3.33328
3.30002
3.26796
3.23704
3.2072
3.1784
3.15059
3.12373
3.09778
3.07269
3.04844
3.02499
3.0023
2.98035
2.9591
2.93853
2.9186
2.8993
2.8806
2.86248
2.84491
2.82787
2.81135
2.79533
2.77978
2.76469
2.75005
2.73583
3.51947
3.47938
3.44077
3.40359
3.36778
3.33328
3.30002
3.26796
3.23704
3.2072
3.1784
3.15059
3.12373
3.09777
3.07269
3.04844
3.02499
3.0023
2.98034
2.95909
2.93851
2.91859
2.89928
2.88058
2.86245
2.84488
2.82784
2.81132
2.79529
2.77974
2.76464
2.74999
2.73577
3.51947
3.47938
3.44077
3.40359
3.36778
3.33327
3.30002
3.26796
3.23703
3.20719
3.17839
3.15058
3.12372
3.09776
3.07268
3.04843
3.02497
3.00228
2.98032
2.95907
2.93849
2.91856
2.89926
2.88055
2.86243
2.84485
2.82781
2.81128
2.79525
2.77969
2.7646
2.74995
2.73572
3.51947
3.47938
3.44077
3.40359
3.36778
3.33328
3.30003
3.26797
3.23704
3.2072
3.1784
3.15059
3.12373
3.09778
3.07269
3.04844
3.02498
3.00229
2.98033
2.95908
2.9385
2.91857
2.89926
2.88055
2.86242
2.84484
2.8278
2.81127
2.79523
2.77967
2.76458
2.74992
2.73569
3.51947
3.47939
3.44077
3.40359
3.36778
3.33328
3.30002
3.26796
3.23703
3.20719
3.17839
3.15058
3.12372
3.09776
3.07268
3.04843
3.02497
3.00228
2.98032
2.95907
2.93849
2.91856
2.89925
2.88055
2.86242
2.84484
2.8278
2.81127
2.79523
2.77967
2.76457
2.74992
2.73568
3.51947
3.47938
3.44077
3.40359
3.36779
3.3333
3.30006
3.268
3.23708
3.20725
3.17845
3.15065
3.12379
3.09783
3.07275
3.0485
3.02504
3.00235
2.9804
2.95914
2.93857
2.91864
2.89933
2.88063
2.8625
2.84493
2.82789
2.81137
2.79534
2.77979
2.7647
2.75006
2.73584
3.51948
3.4794
3.44079
3.40362
3.36782
3.33332
3.30007
3.26801
3.23709
3.20725
3.17846
3.15066
3.1238
3.09786
3.07279
3.04856
3.02512
3.00245
2.98052
2.9593
2.93875
2.91886
2.89959
2.88092
2.86284
2.84531
2.82833
2.81185
2.79588
2.78039
2.76536
2.75078
2.73662
3.51947
3.47939
3.44079
3.40365
3.36789
3.33344
3.30023
3.26822
3.23734
3.20754
3.17879
3.15103
3.12423
3.09835
3.07335
3.0492
3.02586
3.0033
2.98149
2.9604
2.94
2.92027
2.90118
2.8827
2.86482
2.8475
2.83074
2.8145
2.79877
2.78352
2.76875
2.75443
2.74055
3.51949
3.47947
3.44095
3.40384
3.3681
3.33368
3.30054
3.26862
3.23789
3.2083
3.17981
3.15238
3.12596
3.10051
3.07601
3.05241
3.02967
3.00776
2.98665
2.9663
2.94668
2.92777
2.90952
2.89192
2.87494
2.85854
2.84271
2.82742
2.81265
2.79838
2.78458
2.77124
2.75833
3.5195
3.47953
3.44117
3.40446
3.36934
3.33573
3.3036
3.27292
3.24364
3.21573
3.18914
3.16383
3.13972
3.11677
3.09492
3.07412
3.05429
3.0354
3.01738
3.00019
2.98377
2.96808
2.95308
2.93872
2.92497
2.91179
2.89914
2.887
2.87534
2.86413
2.85334
2.84296
2.83295
3.51968
3.48122
3.44561
3.41286
3.38296
3.35589
3.33153
3.3097
3.29019
3.27278
3.25727
3.24344
3.23111
3.22009
3.21025
3.20142
3.19349
3.18635
3.17989
3.17402
3.16868
3.16378
3.15928
3.15511
3.15124
3.14762
3.14422
3.14101
3.13795
3.13504
3.13224
3.12955
3.12693
3.52527
3.5137
3.51625
3.52955
3.55082
3.57803
3.60957
3.64415
3.68082
3.71882
3.75758
3.79664
3.83565
3.87431
3.91244
3.94985
3.98643
4.02209
4.05677
4.09041
4.12301
4.15453
4.18499
4.21438
4.24272
4.27003
4.29632
4.32163
4.34598
4.36939
4.3919
4.41354
4.43435
3.83318
4.36504
4.84908
5.31387
5.774
6.22487
6.66218
7.08409
7.49022
7.88095
8.25703
8.61936
8.96883
9.30625
9.63237
9.94783
10.2532
10.549
10.8357
11.1137
11.3833
11.6448
11.8986
12.1448
12.3839
12.616
12.8413
13.0602
13.2727
13.4792
13.6799
13.8748
14.0643
30.2663
32.7713
35.3126
37.865
40.4147
42.9529
45.4713
47.9624
50.4193
52.8357
55.2061
57.5259
59.7907
61.9974
64.143
66.2255
68.2433
70.1951
72.0805
73.899
75.6508
77.3364
78.9564
80.5117
82.0035
83.4331
84.802
86.1116
87.3637
88.5599
89.7021
90.7918
91.8321
84.587
235.002
412.771
576.133
699.79
775.073
805.835
802.524
776.984
739.376
697.002
654.403
614.002
576.822
543.076
512.582
485.012
460.025
437.316
416.63
397.754
380.502
364.703
350.2
336.841
324.486
313.001
302.262
292.152
282.563
273.395
264.558
255.97
247.563
239.278
231.07
222.9
214.741
206.566
198.356
190.089
181.749
173.326
164.816
156.225
147.57
138.879
130.189
121.544
112.993
104.587
96.3766
88.4138
80.7485
73.4282
66.4962
59.9898
53.9387
48.3638
43.2757
38.6753
34.5536
30.8934
27.6701
24.8538
22.4111
20.307
18.5064
16.9753
15.6822
14.5982
13.6977
12.9582
12.3603
11.8877
11.5265
11.2652
11.0942
11.0054
10.9919
11.0474
11.1661
11.342
11.5684
11.8382
12.1428
12.4728
12.8169
13.1631
13.4981
13.8078
14.0778
14.2939
14.4424
14.5108
14.4869
14.3649
14.1219
13.8307
13.0749
19.6829
28.8523
45.6037
70.4452
102.449
139.558
179.139
218.474
255.146
287.156
313.173
332.581
345.427
352.276
354.033
351.754
346.491
339.178
330.579
321.264
311.633
301.948
292.367
282.977
273.824
264.925
256.28
247.879
239.697
231.704
223.864
216.138
208.487
200.88
193.292
185.705
178.11
170.505
162.889
155.26
147.618
139.96
132.286
124.602
116.921
109.265
101.666
94.1656
86.8076
79.6397
72.7082
66.0571
59.7266
53.7523
48.1645
42.9873
38.2371
33.9224
30.0424
26.5877
23.5412
20.8789
18.5718
16.5877
14.8933
13.4552
12.2415
11.2228
10.3728
9.66839
9.08967
8.61998
8.24554
7.95509
7.73963
7.59211
7.50709
7.48046
7.50919
7.59099
7.724
7.90648
8.13636
8.41095
8.72647
9.07775
9.45795
9.85835
10.2683
10.6756
11.0662
11.4254
11.7381
11.989
12.1643
12.2503
12.2392
12.109
11.9213
11.3258
9.51961
9.86923
10.7954
12.6859
15.8264
20.3905
26.4608
34.0323
43.0144
53.3395
64.8868
77.4146
90.5566
103.868
116.87
129.101
140.158
149.732
157.626
163.765
168.174
170.968
172.315
172.413
171.466
169.663
167.168
164.113
160.603
156.711
152.491
147.979
143.203
138.187
132.959
127.548
121.985
116.306
110.542
104.723
98.8717
93.0066
87.1442
81.3015
75.5
69.7676
64.1385
58.652
53.3495
48.2708
43.4519
38.9229
34.7074
30.8222
27.2774
24.0763
21.2155
18.6849
16.4686
14.5454
12.8907
11.4776
10.2785
9.26645
8.41617
7.70459
7.11131
6.61871
6.21188
5.87843
5.60827
5.3933
5.22716
5.10499
5.02321
4.97937
4.97195
5.00028
5.06437
5.16476
5.30234
5.47815
5.69305
5.94741
6.2407
6.57108
6.93494
7.32659
7.73799
8.15871
8.57611
8.97577
9.34203
9.6588
9.91044
10.0819
10.1628
10.1319
10.0379
9.59817
6.01099
6.09501
6.19835
6.37124
6.67351
7.16327
7.88874
8.8866
10.183
11.8085
13.7653
16.0717
18.7583
21.8515
25.3642
29.2881
33.5881
38.1991
43.0263
47.9502
52.8339
57.5348
61.916
65.8574
69.2648
72.0737
74.2498
75.7853
76.6928
76.9989
76.7387
75.9519
74.6815
72.9733
70.8767
68.4446
65.732
62.7945
59.685
56.451
53.1332
49.7651
46.3748
42.9879
39.6298
36.328
33.1123
30.0138
27.062
24.2829
21.697
19.3182
17.1536
15.2047
13.4676
11.9343
10.5934
9.43058
8.42979
7.57396
6.84593
6.22912
5.70817
5.26919
4.9
4.59011
4.33061
4.11413
3.93459
3.7871
3.66779
3.5737
3.5026
3.45299
3.42396
3.41515
3.42674
3.4594
3.51429
3.59296
3.69735
3.82969
3.99228
4.18732
4.41656
4.68093
4.98
5.3115
5.67088
6.05092
6.44163
6.83045
7.20265
7.54217
7.83251
8.05739
8.20409
8.25178
8.23586
7.93929
4.40985
4.44881
4.48765
4.53073
4.58581
4.66391
4.77756
4.93885
5.15808
5.44457
5.80484
6.23736
6.74529
7.33372
8.00874
8.77687
9.64432
10.6161
11.6949
12.8798
14.1648
15.5372
16.9776
18.4592
19.9487
21.4084
22.7983
24.0782
25.2102
26.1605
26.9007
27.4092
27.6723
27.6852
27.4526
26.9884
26.3149
25.4602
24.4557
23.333
22.1214
20.8469
19.532
18.1964
16.8585
15.5361
14.2469
13.0077
11.8334
10.736
9.72352
8.80035
7.96728
7.22228
6.56131
5.97897
5.469
5.02474
4.63936
4.30621
4.01893
3.77165
3.5591
3.37658
3.22001
3.0859
2.97129
2.87372
2.79118
2.72205
2.66511
2.61943
2.58444
2.55983
2.54559
2.54198
2.54956
2.56922
2.60212
2.64982
2.71416
2.79736
2.90188
3.03037
3.1855
3.36963
3.58448
3.83062
4.1069
4.40989
4.73342
5.06841
5.40288
5.72262
6.01181
6.25414
6.43534
6.5353
6.57648
6.40194
3.62587
3.64024
3.6547
3.66953
3.68549
3.70414
3.72799
3.76018
3.80407
3.86306
3.93998
4.03602
4.15207
4.28881
4.44678
4.6265
4.82844
5.05303
5.30053
5.57088
5.86358
6.1774
6.51026
6.85897
7.21915
7.58516
7.95012
8.30602
8.64391
8.95413
9.22672
9.4519
9.62075
9.72598
9.76268
9.72894
9.62611
9.45857
9.23314
8.95812
8.6424
8.29458
7.9227
7.53409
7.13558
6.73375
6.33497
5.94526
5.57001
5.21363
4.87935
4.56914
4.28388
4.02353
3.78742
3.57444
3.38322
3.21223
3.05984
2.92438
2.80422
2.69778
2.6036
2.52032
2.44673
2.38175
2.32446
2.27407
2.22994
2.19155
2.15854
2.13065
2.10779
2.08998
2.07739
2.07034
2.06932
2.07503
2.08834
2.1104
2.14261
2.18665
2.24448
2.31838
2.41079
2.52426
2.6612
2.82357
3.01241
3.22728
3.46569
3.72258
3.99
4.25727
4.51122
4.73726
4.92128
5.04469
5.11891
5.03813
3.21183
3.21319
3.2147
3.21638
3.21827
3.22053
3.22352
3.22788
3.23445
3.24429
3.25838
3.27762
3.30271
3.33419
3.37236
3.41742
3.46938
3.52817
3.59358
3.66531
3.74291
3.82578
3.91315
4.00405
4.09725
4.19134
4.28465
4.37529
4.46115
4.53996
4.60933
4.66681
4.71006
4.73697
4.74589
4.73579
4.70635
4.65808
4.59216
4.51033
4.41464
4.30728
4.1904
4.06607
3.93627
3.80292
3.66794
3.53321
3.4005
3.27141
3.14724
3.02901
2.91738
2.81274
2.71524
2.62486
2.54143
2.46471
2.39434
2.32996
2.27112
2.21741
2.16837
2.12358
2.08264
2.0452
2.01093
1.97955
1.95085
1.92466
1.90084
1.87936
1.86022
1.8435
1.82935
1.81802
1.80984
1.80527
1.80491
1.80949
1.81994
1.83742
1.86328
1.89913
1.94683
2.00842
2.08607
2.18187
2.29758
2.43427
2.59177
2.7682
2.95941
3.15875
3.35694
3.54268
3.70387
3.82471
3.90868
3.88982
2.9836
2.97754
2.97161
2.96578
2.96007
2.95446
2.94901
2.9438
2.939
2.93486
2.93165
2.92969
2.92931
2.9308
2.93441
2.94031
2.94862
2.95937
2.97253
2.98799
3.00556
3.02498
3.04595
3.06804
3.09081
3.11371
3.13616
3.1575
3.17705
3.19406
3.2078
3.21749
3.22242
3.22193
3.21546
3.20264
3.1833
3.15746
3.1254
3.08757
3.04454
2.997
2.94562
2.89111
2.83416
2.77541
2.71555
2.65521
2.59504
2.53564
2.47755
2.42122
2.367
2.31514
2.2658
2.21906
2.17494
2.13338
2.09431
2.05761
2.02314
1.99074
1.96025
1.9315
1.90432
1.87859
1.85416
1.83091
1.80877
1.78767
1.76757
1.74845
1.73035
1.71333
1.69749
1.68299
1.67004
1.65892
1.65
1.64374
1.64071
1.64164
1.64741
1.65906
1.67785
1.70521
1.74275
1.79215
1.85505
1.93283
2.02628
2.13525
2.25811
2.39145
2.5297
2.66529
2.78929
2.88962
2.96543
2.97858
2.85673
2.84608
2.83555
2.82511
2.81477
2.8045
2.79432
2.78421
2.77421
2.76434
2.75469
2.74531
2.73631
2.7278
2.71989
2.71268
2.70624
2.70064
2.6959
2.69203
2.68899
2.6867
2.68505
2.68389
2.68304
2.68229
2.6814
2.68012
2.67816
2.67524
2.67106
2.66534
2.6578
2.64817
2.63625
2.62185
2.60489
2.58534
2.56326
2.53879
2.51214
2.48355
2.45331
2.4217
2.38901
2.35552
2.32152
2.28725
2.25297
2.21893
2.18536
2.15244
2.12035
2.08921
2.05912
2.03012
2.00222
1.97542
1.94967
1.92491
1.90109
1.8781
1.85589
1.83436
1.81342
1.79302
1.77309
1.75356
1.7344
1.71558
1.69708
1.67891
1.66108
1.64364
1.62664
1.61019
1.59441
1.57946
1.56556
1.55298
1.54207
1.53326
1.52709
1.52421
1.5254
1.53161
1.54391
1.56349
1.5916
1.62943
1.67792
1.73755
1.80799
1.8878
1.97404
2.06225
2.14664
2.21887
2.27674
2.2991
2.78769
2.77405
2.76052
2.74708
2.73372
2.72045
2.70724
2.69411
2.68104
2.66803
2.6551
2.64225
2.62951
2.61689
2.60443
2.59216
2.58012
2.56833
2.55682
2.54561
2.5347
2.52408
2.51371
2.50356
2.49356
2.48364
2.4737
2.46365
2.45337
2.44275
2.43167
2.42
2.40762
2.39443
2.38033
2.36523
2.34907
2.33183
2.31351
2.29416
2.27386
2.25271
2.23084
2.20839
2.18549
2.16229
2.1389
2.11543
2.09201
2.06871
2.04563
2.02286
2.00046
1.9785
1.95701
1.93601
1.91551
1.89547
1.87588
1.85669
1.83786
1.81932
1.80104
1.78295
1.76501
1.74718
1.72942
1.71169
1.69397
1.67625
1.65851
1.64077
1.62303
1.60531
1.58767
1.57014
1.55281
1.53577
1.51914
1.50308
1.4878
1.47354
1.46062
1.44942
1.44042
1.4342
1.43143
1.4329
1.43946
1.45198
1.47128
1.49794
1.53214
1.57343
1.62046
1.67081
1.72112
1.76608
1.80381
1.82187
2.75176
2.73619
2.72071
2.70531
2.68999
2.67474
2.65956
2.64445
2.6294
2.6144
2.59947
2.58459
2.56977
2.55501
2.54031
2.52568
2.51113
2.49666
2.48228
2.46801
2.45384
2.43978
2.42582
2.41196
2.39817
2.38443
2.37071
2.35698
2.34319
2.32931
2.31529
2.30108
2.28663
2.2719
2.25683
2.24139
2.22555
2.20927
2.19256
2.17543
2.15791
2.14005
2.12192
2.10357
2.08509
2.06654
2.04798
2.02946
2.01102
1.99269
1.9745
1.95648
1.93866
1.92105
1.90366
1.8865
1.86954
1.85278
1.83617
1.81969
1.80329
1.78693
1.77058
1.7542
1.73774
1.72119
1.70451
1.68769
1.6707
1.65354
1.63621
1.61869
1.60101
1.58318
1.56522
1.54716
1.52904
1.51093
1.4929
1.47503
1.45744
1.44028
1.42373
1.408
1.39337
1.38019
1.36886
1.35986
1.35374
1.35109
1.3525
1.35848
1.36935
1.38509
1.40518
1.42844
1.45306
1.47585
1.49593
1.50411
2.7342
2.71745
2.70075
2.68412
2.66756
2.65105
2.6346
2.61821
2.60187
2.58559
2.56937
2.5532
2.53709
2.52103
2.50502
2.48906
2.47316
2.45731
2.44151
2.42577
2.41009
2.39446
2.3789
2.36339
2.34793
2.33251
2.31714
2.3018
2.28648
2.27117
2.25585
2.24051
2.22513
2.2097
2.19419
2.17858
2.16286
2.14701
2.13102
2.1149
2.09867
2.08234
2.06594
2.04953
2.03313
2.01679
2.00052
1.98435
1.96828
1.95233
1.93649
1.92077
1.90516
1.88966
1.87427
1.85898
1.84376
1.82859
1.81345
1.79829
1.78309
1.76781
1.75242
1.73689
1.72118
1.70527
1.68915
1.6728
1.65619
1.63934
1.62222
1.60485
1.58723
1.56937
1.55128
1.53298
1.51451
1.4959
1.47718
1.45843
1.4397
1.42108
1.40267
1.3846
1.36703
1.35015
1.3342
1.31946
1.30627
1.29498
1.28601
1.27971
1.2764
1.27622
1.27903
1.28432
1.29126
1.29791
1.30451
1.30216
2.72622
2.70879
2.6914
2.67405
2.65674
2.63948
2.62226
2.60508
2.58795
2.57087
2.55383
2.53685
2.51991
2.50303
2.48621
2.46943
2.45271
2.43605
2.41944
2.40288
2.38638
2.36993
2.35355
2.33722
2.32095
2.30473
2.28858
2.27248
2.25645
2.24047
2.22454
2.20868
2.19286
2.17709
2.16135
2.14565
2.12997
2.1143
2.09863
2.08297
2.06732
2.0517
2.03613
2.02062
2.0052
1.9899
1.97471
1.95965
1.94471
1.92988
1.91515
1.90052
1.88596
1.87147
1.85704
1.84264
1.82825
1.81384
1.7994
1.78488
1.77026
1.7555
1.74058
1.72546
1.71012
1.69454
1.6787
1.66259
1.64619
1.62951
1.61253
1.59525
1.57769
1.55984
1.54173
1.52335
1.50474
1.48592
1.46691
1.44776
1.4285
1.4092
1.3899
1.3707
1.35167
1.33294
1.31463
1.29691
1.27998
1.26405
1.24938
1.23621
1.22477
1.21523
1.20761
1.20175
1.19732
1.19314
1.19036
1.17914
2.72285
2.70507
2.68731
2.66957
2.65186
2.63418
2.61652
2.59889
2.5813
2.56374
2.54622
2.52875
2.51131
2.49393
2.4766
2.45931
2.44208
2.42491
2.4078
2.39074
2.37375
2.35682
2.33995
2.32315
2.30643
2.28978
2.2732
2.2567
2.24028
2.22395
2.2077
2.19155
2.17549
2.15953
2.14366
2.12787
2.11217
2.09654
2.08099
2.06552
2.05012
2.0348
2.01959
2.00448
1.9895
1.97465
1.95995
1.94538
1.93093
1.9166
1.90237
1.88822
1.87413
1.86009
1.84608
1.83207
1.81805
1.80399
1.78985
1.77562
1.76125
1.74673
1.73202
1.71709
1.70192
1.6865
1.6708
1.65482
1.63854
1.62196
1.60506
1.58786
1.57036
1.55255
1.53445
1.51607
1.49743
1.47854
1.45944
1.44013
1.42067
1.40108
1.3814
1.36169
1.34199
1.32239
1.30296
1.28379
1.26501
1.24673
1.22912
1.21233
1.19651
1.18181
1.16829
1.15593
1.14468
1.13373
1.12492
1.10717
2.72151
2.70356
2.68562
2.66769
2.64977
2.63187
2.61398
2.59612
2.57827
2.56046
2.54267
2.52491
2.50719
2.48951
2.47187
2.45428
2.43674
2.41926
2.40183
2.38446
2.36715
2.34992
2.33275
2.31566
2.29864
2.28171
2.26487
2.24811
2.23145
2.2149
2.19845
2.1821
2.16588
2.14977
2.13377
2.1179
2.10213
2.08648
2.07093
2.05549
2.04017
2.02495
2.00986
1.9949
1.98008
1.9654
1.95087
1.93648
1.92221
1.90806
1.89401
1.88004
1.86612
1.85224
1.83839
1.82452
1.81063
1.79669
1.78267
1.76854
1.75427
1.73983
1.7252
1.71035
1.69525
1.6799
1.66428
1.64836
1.63215
1.61563
1.59879
1.58165
1.5642
1.54644
1.52838
1.51004
1.49142
1.47254
1.45343
1.4341
1.41458
1.3949
1.37509
1.35518
1.33522
1.31526
1.29534
1.27553
1.2559
1.23652
1.2175
1.19893
1.18091
1.16354
1.14691
1.13102
1.11595
1.10109
1.0887
1.06663
2.72097
2.70295
2.68492
2.6669
2.64888
2.63088
2.61288
2.59489
2.57692
2.55896
2.54103
2.52312
2.50524
2.48739
2.46958
2.45181
2.43409
2.41641
2.39879
2.38123
2.36372
2.34629
2.32892
2.31163
2.29442
2.2773
2.26027
2.24333
2.2265
2.20977
2.19316
2.17667
2.1603
2.14406
2.12795
2.11197
2.09611
2.08038
2.06478
2.0493
2.03394
2.01872
2.00363
1.98868
1.97388
1.95922
1.94471
1.93034
1.9161
1.90198
1.88795
1.874
1.8601
1.84625
1.83241
1.81856
1.80469
1.79076
1.77674
1.76262
1.74836
1.73394
1.71932
1.70449
1.68942
1.6741
1.65851
1.64263
1.62645
1.60998
1.59319
1.5761
1.55869
1.54098
1.52298
1.50468
1.48611
1.46728
1.44821
1.42891
1.40941
1.38974
1.36991
1.34997
1.32994
1.30987
1.28978
1.26972
1.24975
1.22992
1.21029
1.19092
1.17188
1.15325
1.13509
1.11743
1.1004
1.08343
1.06908
1.04443
2.72072
2.70267
2.6846
2.66654
2.64847
2.63041
2.61235
2.5943
2.57626
2.55824
2.54023
2.52223
2.50427
2.48633
2.46842
2.45054
2.43271
2.41492
2.39717
2.37949
2.36185
2.34429
2.32679
2.30936
2.29202
2.27476
2.25759
2.24051
2.22354
2.20668
2.18994
2.17331
2.15682
2.14045
2.12422
2.10812
2.09215
2.07633
2.06063
2.04507
2.02964
2.01435
1.9992
1.9842
1.96934
1.95463
1.94007
1.92565
1.91135
1.89717
1.88309
1.86908
1.85514
1.84123
1.82734
1.81345
1.79953
1.78556
1.77151
1.75735
1.74306
1.72862
1.71398
1.69915
1.68408
1.66876
1.65318
1.63732
1.62118
1.60473
1.58799
1.57094
1.55358
1.53593
1.51797
1.49974
1.48123
1.46246
1.44344
1.4242
1.40476
1.38514
1.36536
1.34546
1.32545
1.30538
1.28528
1.26517
1.24511
1.22513
1.20528
1.18561
1.16617
1.14701
1.12818
1.10972
1.09175
1.07376
1.05844
1.03239
2.72058
2.7025
2.68441
2.66632
2.64823
2.63014
2.61205
2.59396
2.57589
2.55782
2.53976
2.52172
2.5037
2.4857
2.46773
2.44979
2.43189
2.41403
2.3962
2.37843
2.36071
2.34306
2.32546
2.30794
2.29049
2.27312
2.25585
2.23866
2.22158
2.2046
2.18774
2.171
2.15439
2.1379
2.12155
2.10534
2.08926
2.07332
2.05752
2.04185
2.02633
2.01095
1.99571
1.98061
1.96567
1.95087
1.93622
1.9217
1.90732
1.89304
1.87887
1.86478
1.85075
1.83676
1.82279
1.80882
1.79483
1.78079
1.76668
1.75247
1.73813
1.72365
1.70898
1.69412
1.67904
1.66372
1.64815
1.6323
1.61618
1.59976
1.58305
1.56604
1.54873
1.53113
1.51324
1.49506
1.47662
1.45791
1.43897
1.4198
1.40043
1.38089
1.36118
1.34135
1.32141
1.3014
1.28135
1.26129
1.24125
1.22127
1.2014
1.18166
1.1621
1.14277
1.12371
1.10493
1.0866
1.06817
1.05242
1.02572
2.72046
2.70237
2.68427
2.66616
2.64805
2.62994
2.61182
2.59372
2.57561
2.55751
2.53943
2.52135
2.5033
2.48526
2.46725
2.44926
2.43131
2.41339
2.39551
2.37768
2.3599
2.34217
2.3245
2.3069
2.28937
2.27192
2.25455
2.23728
2.2201
2.20303
2.18606
2.16922
2.15249
2.1359
2.11943
2.10311
2.08691
2.07086
2.05495
2.03917
2.02354
2.00805
1.99271
1.97751
1.96247
1.94756
1.93281
1.91818
1.90369
1.88931
1.87503
1.86083
1.8467
1.83261
1.81855
1.8045
1.79042
1.77631
1.76212
1.74785
1.73346
1.71892
1.70422
1.68933
1.67423
1.6589
1.64333
1.62749
1.61138
1.59499
1.57832
1.56135
1.54409
1.52654
1.5087
1.49059
1.47221
1.45358
1.43471
1.41562
1.39634
1.37687
1.35725
1.3375
1.31765
1.29773
1.27777
1.25779
1.23783
1.21792
1.1981
1.1784
1.15887
1.13953
1.12044
1.1016
1.08316
1.06459
1.04869
1.02174
2.72035
2.70225
2.68414
2.66602
2.64789
2.62976
2.61163
2.5935
2.57537
2.55725
2.53914
2.52104
2.50296
2.48489
2.46684
2.44882
2.43082
2.41286
2.39494
2.37706
2.35922
2.34143
2.32371
2.30604
2.28844
2.27092
2.25348
2.23612
2.21886
2.20169
2.18464
2.1677
2.15087
2.13417
2.1176
2.10117
2.08486
2.0687
2.05267
2.03679
2.02105
2.00545
1.99
1.9747
1.95954
1.94453
1.92966
1.91492
1.90031
1.88582
1.87143
1.85712
1.84289
1.8287
1.81454
1.80039
1.78623
1.77203
1.75777
1.74343
1.72898
1.71439
1.69965
1.68473
1.66961
1.65427
1.63869
1.62286
1.60677
1.5904
1.57376
1.55683
1.53961
1.52212
1.50434
1.48629
1.46798
1.44943
1.43064
1.41163
1.39243
1.37305
1.35352
1.33387
1.31412
1.29429
1.27443
1.25455
1.23469
1.21488
1.19515
1.17555
1.15609
1.13683
1.11779
1.09899
1.08057
1.062
1.04609
1.01909
2.72025
2.70214
2.68401
2.66588
2.64774
2.6296
2.61145
2.5933
2.57516
2.55702
2.53888
2.52076
2.50265
2.48455
2.46647
2.44842
2.43039
2.41239
2.39442
2.37649
2.35861
2.34077
2.32299
2.30527
2.28761
2.27002
2.25251
2.23508
2.21774
2.20049
2.18335
2.16632
2.1494
2.13261
2.11594
2.0994
2.08299
2.06672
2.05059
2.0346
2.01875
2.00304
1.98748
1.97207
1.9568
1.94168
1.9267
1.91185
1.89713
1.88252
1.86802
1.8536
1.83926
1.82496
1.81071
1.79646
1.78221
1.76793
1.7536
1.73919
1.72468
1.71004
1.69526
1.6803
1.66516
1.6498
1.63422
1.6184
1.60232
1.58598
1.56937
1.55248
1.53531
1.51786
1.50015
1.48216
1.46393
1.44544
1.42673
1.40781
1.3887
1.36941
1.34998
1.33042
1.31077
1.29105
1.27129
1.25152
1.23177
1.21207
1.19245
1.17295
1.15361
1.13444
1.11549
1.09677
1.07843
1.05992
1.04405
1.01709
2.72015
2.70203
2.6839
2.66575
2.6476
2.62944
2.61128
2.59311
2.57495
2.55679
2.53864
2.52049
2.50235
2.48423
2.46612
2.44804
2.42998
2.41194
2.39394
2.37597
2.35804
2.34016
2.32233
2.30455
2.28683
2.26918
2.2516
2.23411
2.2167
2.19938
2.18216
2.16504
2.14804
2.13115
2.11438
2.09775
2.08124
2.06487
2.04863
2.03254
2.01658
2.00077
1.98511
1.96959
1.95421
1.93898
1.92389
1.90893
1.8941
1.87938
1.86477
1.85024
1.83579
1.8214
1.80704
1.79271
1.77837
1.76401
1.7496
1.73512
1.72055
1.70586
1.69104
1.67605
1.66088
1.64551
1.62993
1.61411
1.59805
1.58173
1.56515
1.5483
1.53118
1.51378
1.49613
1.47821
1.46005
1.44164
1.42301
1.40417
1.38515
1.36596
1.34663
1.32717
1.30762
1.28801
1.26836
1.2487
1.22906
1.20947
1.18997
1.17058
1.15135
1.13229
1.11344
1.09482
1.07656
1.05813
1.04232
1.01544
2.72006
2.70193
2.68378
2.66563
2.64746
2.62929
2.61111
2.59294
2.57476
2.55658
2.5384
2.52023
2.50207
2.48393
2.46579
2.44768
2.42959
2.41152
2.39348
2.37547
2.3575
2.33958
2.3217
2.30387
2.2861
2.26839
2.25076
2.2332
2.21572
2.19833
2.18103
2.16384
2.14675
2.12978
2.11292
2.09619
2.07959
2.06312
2.04679
2.0306
2.01454
1.99863
1.98286
1.96724
1.95176
1.93642
1.92122
1.90615
1.89121
1.87639
1.86167
1.84704
1.83249
1.818
1.80355
1.78912
1.77469
1.76025
1.74577
1.73122
1.71659
1.70186
1.68699
1.67197
1.65678
1.6414
1.62581
1.61
1.59396
1.57766
1.56111
1.54431
1.52724
1.5099
1.49231
1.47446
1.45637
1.43804
1.4195
1.40075
1.38182
1.36273
1.34349
1.32414
1.3047
1.2852
1.26565
1.2461
1.22658
1.2071
1.18771
1.16843
1.1493
1.13035
1.11161
1.09308
1.0749
1.05655
1.0408
1.01398
2.71997
2.70183
2.68368
2.66551
2.64734
2.62915
2.61096
2.59277
2.57457
2.55637
2.53818
2.51999
2.50181
2.48364
2.46548
2.44734
2.42922
2.41112
2.39304
2.375
2.35699
2.33903
2.3211
2.30323
2.28541
2.26765
2.24996
2.23233
2.21479
2.19734
2.17997
2.1627
2.14554
2.12848
2.11155
2.09473
2.07804
2.06148
2.04505
2.02876
2.01261
1.9966
1.98074
1.96501
1.94943
1.93399
1.91869
1.90352
1.88848
1.87355
1.85873
1.844
1.82935
1.81476
1.80021
1.7857
1.77119
1.75667
1.74212
1.72751
1.71282
1.69804
1.68313
1.66809
1.65288
1.63749
1.6219
1.6061
1.59008
1.57381
1.5573
1.54054
1.52353
1.50626
1.48873
1.47096
1.45295
1.43471
1.41625
1.3976
1.37876
1.35977
1.34063
1.32139
1.30205
1.28265
1.26322
1.24378
1.22436
1.20499
1.18571
1.16653
1.1475
1.12865
1.10999
1.09155
1.07345
1.05516
1.03947
1.0127