/*--------------------------------*- C++ -*----------------------------------*\
  =========                 |
  \\      /  F ield         | OpenFOAM: The Open Source CFD Toolbox
   \\    /   O peration     | Website:  https://openfoam.org
    \\  /    A nd           | Version:  10
     \\/     M anipulation  |
\*---------------------------------------------------------------------------*/
FoamFile
{
    format      ascii;
    class       volScalarField;
    location    "0.2";
    object      nut;
}
// * * * * * * * * * * * * * * * * * * * * * * * * * * * * * * * * * * * * * //

dimensions      [0 2 -1 0 0 0 0];

internalField   nonuniform List<scalar> 
6820
(
0.000149484
0.000144853
0.000140581
0.000136577
0.000132833
0.000129376
0.000126234
0.000123417
0.000120923
0.000118737
0.00011684
0.000115207
0.000113814
0.000112636
0.000111651
0.000110838
0.000110178
0.000109653
0.000109248
0.00010895
0.000108744
0.000108621
0.00010857
0.000108583
0.000108651
0.000108769
0.000108927
0.000109137
0.000109309
0.000109842
0.000108851
0.000115141
8.74146e-05
0.000729198
0.000532389
0.000448006
0.000399699
0.00036837
0.000346719
0.000331074
0.000319344
0.000310256
0.000303007
0.000297075
0.000292115
0.00028789
0.000284236
0.000281036
0.000278202
0.00027567
0.000273391
0.000271325
0.000269441
0.000267715
0.000266127
0.00026466
0.0002633
0.000262037
0.000260859
0.000259761
0.000258733
0.000257779
0.000256896
0.000256112
0.000255255
0.000256837
0.000976776
0.000872181
0.00078162
0.000711259
0.000657309
0.000615265
0.000581688
0.000554222
0.000531279
0.000511775
0.000494952
0.000480261
0.000467298
0.000455758
0.000445407
0.00043606
0.000427572
0.000419826
0.000412724
0.00040619
0.000400155
0.000394565
0.000389372
0.000384535
0.000380017
0.000375787
0.000371813
0.000368071
0.000364521
0.000361152
0.000357865
0.000354629
0.000351057
0.00101349
0.000988231
0.000949374
0.000906191
0.00086442
0.000826373
0.000792537
0.000762643
0.0007362
0.000712695
0.000691676
0.000672758
0.000655626
0.00064002
0.00062573
0.00061258
0.000600428
0.000589154
0.000578657
0.000568854
0.000559673
0.000551052
0.00054294
0.000535288
0.000528056
0.000521209
0.000514711
0.000508533
0.00050264
0.000497013
0.000491588
0.000486387
0.000481185
0.00101671
0.00101241
0.00100191
0.00098566
0.000965601
0.000943707
0.000921413
0.000899597
0.000878727
0.000859012
0.000840511
0.000823201
0.000807021
0.000791889
0.00077772
0.00076443
0.000751942
0.000740184
0.000729091
0.000718604
0.000708673
0.00069925
0.000690294
0.000681767
0.000673637
0.000665871
0.00065844
0.00065132
0.000644481
0.000637901
0.000631543
0.000625394
0.000619397
0.00101676
0.00101592
0.0010136
0.00100903
0.00100204
0.000992917
0.000982187
0.00097039
0.000957993
0.000945357
0.000932739
0.000920313
0.000908193
0.000896447
0.000885113
0.000874206
0.000863729
0.000853675
0.000844031
0.000834781
0.000825906
0.000817387
0.000809206
0.000801343
0.00079378
0.000786499
0.000779482
0.000772711
0.000766168
0.000759838
0.0007537
0.00074774
0.000741941
0.00101671
0.00101623
0.00101553
0.00101428
0.00101219
0.00100909
0.00100496
0.000999888
0.000994014
0.000987511
0.000980545
0.000973263
0.000965787
0.000958217
0.00095063
0.000943088
0.000935633
0.000928298
0.000921108
0.000914077
0.000907215
0.000900529
0.00089402
0.000887688
0.000881531
0.000875544
0.000869724
0.000864063
0.000858554
0.000853192
0.000847967
0.000842872
0.000837904
0.0010167
0.00101622
0.00101574
0.00101518
0.00101442
0.00101335
0.00101188
0.00100995
0.00100755
0.0010047
0.00100144
0.000997817
0.000993896
0.000989734
0.000985382
0.000980892
0.000976304
0.000971655
0.000966975
0.00096229
0.000957621
0.000952983
0.000948391
0.000943855
0.000939382
0.000934978
0.000930648
0.000926393
0.000922215
0.000918114
0.000914091
0.000910146
0.000906279
0.0010167
0.00101621
0.00101575
0.00101528
0.0010148
0.00101425
0.00101359
0.00101278
0.00101179
0.00101059
0.00100917
0.00100753
0.00100568
0.00100364
0.00100142
0.000999048
0.000996541
0.000993923
0.000991214
0.000988431
0.000985592
0.000982712
0.000979804
0.000976879
0.000973949
0.00097102
0.0009681
0.000965196
0.000962312
0.000959453
0.000956623
0.000953825
0.000951063
0.0010167
0.00101621
0.00101574
0.00101529
0.00101484
0.00101439
0.00101393
0.00101344
0.0010129
0.00101229
0.0010116
0.00101081
0.00100993
0.00100895
0.00100786
0.00100667
0.00100539
0.00100402
0.00100256
0.00100104
0.000999455
0.000997812
0.000996123
0.000994394
0.000992632
0.000990844
0.000989036
0.000987213
0.000985381
0.000983545
0.000981708
0.000979875
0.00097805
0.0010167
0.00101621
0.00101574
0.00101528
0.00101484
0.0010144
0.00101398
0.00101356
0.00101313
0.0010127
0.00101224
0.00101176
0.00101125
0.00101069
0.0010101
0.00100946
0.00100877
0.00100804
0.00100726
0.00100644
0.00100557
0.00100466
0.00100372
0.00100274
0.00100173
0.0010007
0.000999639
0.000998559
0.000997462
0.000996352
0.00099523
0.000994101
0.000992968
0.0010167
0.00101621
0.00101574
0.00101528
0.00101484
0.0010144
0.00101398
0.00101357
0.00101317
0.00101277
0.00101238
0.00101199
0.00101159
0.00101119
0.00101077
0.00101035
0.00100991
0.00100945
0.00100897
0.00100848
0.00100797
0.00100743
0.00100688
0.0010063
0.00100571
0.00100511
0.00100448
0.00100385
0.0010032
0.00100254
0.00100186
0.00100118
0.0010005
0.0010167
0.00101621
0.00101574
0.00101528
0.00101483
0.0010144
0.00101398
0.00101357
0.00101317
0.00101278
0.0010124
0.00101203
0.00101166
0.0010113
0.00101095
0.00101059
0.00101024
0.00100988
0.00100952
0.00100916
0.00100879
0.00100842
0.00100804
0.00100766
0.00100727
0.00100688
0.00100647
0.00100607
0.00100565
0.00100524
0.00100481
0.00100439
0.00100396
0.0010167
0.00101621
0.00101574
0.00101528
0.00101483
0.0010144
0.00101398
0.00101357
0.00101317
0.00101278
0.0010124
0.00101203
0.00101167
0.00101132
0.00101098
0.00101065
0.00101032
0.00100999
0.00100967
0.00100936
0.00100904
0.00100873
0.00100842
0.00100812
0.00100781
0.00100751
0.00100721
0.0010069
0.0010066
0.0010063
0.001006
0.0010057
0.0010054
0.0010167
0.00101621
0.00101574
0.00101528
0.00101483
0.0010144
0.00101398
0.00101357
0.00101317
0.00101278
0.0010124
0.00101203
0.00101167
0.00101132
0.00101098
0.00101065
0.00101033
0.00101001
0.0010097
0.0010094
0.00100911
0.00100882
0.00100853
0.00100825
0.00100798
0.00100771
0.00100744
0.00100718
0.00100692
0.00100667
0.00100642
0.00100617
0.00100593
0.0010167
0.00101621
0.00101574
0.00101528
0.00101483
0.0010144
0.00101397
0.00101356
0.00101316
0.00101278
0.0010124
0.00101203
0.00101167
0.00101132
0.00101098
0.00101065
0.00101033
0.00101001
0.00100971
0.00100941
0.00100912
0.00100883
0.00100856
0.00100829
0.00100802
0.00100776
0.00100751
0.00100726
0.00100702
0.00100679
0.00100656
0.00100633
0.00100611
0.0010167
0.00101621
0.00101574
0.00101528
0.00101483
0.0010144
0.00101397
0.00101356
0.00101316
0.00101277
0.0010124
0.00101203
0.00101167
0.00101132
0.00101098
0.00101065
0.00101033
0.00101001
0.00100971
0.00100941
0.00100912
0.00100883
0.00100856
0.00100829
0.00100803
0.00100777
0.00100752
0.00100728
0.00100704
0.00100681
0.00100659
0.00100637
0.00100616
0.0010167
0.00101621
0.00101574
0.00101528
0.00101483
0.00101439
0.00101397
0.00101356
0.00101316
0.00101277
0.00101239
0.00101202
0.00101167
0.00101132
0.00101098
0.00101065
0.00101032
0.00101001
0.0010097
0.0010094
0.00100911
0.00100883
0.00100856
0.00100829
0.00100803
0.00100777
0.00100752
0.00100728
0.00100705
0.00100682
0.00100659
0.00100638
0.00100617
0.0010167
0.00101621
0.00101574
0.00101528
0.00101483
0.00101439
0.00101397
0.00101356
0.00101316
0.00101277
0.00101239
0.00101202
0.00101166
0.00101131
0.00101097
0.00101064
0.00101032
0.00101001
0.0010097
0.0010094
0.00100911
0.00100883
0.00100855
0.00100828
0.00100802
0.00100777
0.00100752
0.00100728
0.00100704
0.00100681
0.00100659
0.00100637
0.00100616
0.0010167
0.00101621
0.00101574
0.00101528
0.00101483
0.00101439
0.00101397
0.00101356
0.00101316
0.00101277
0.00101239
0.00101202
0.00101166
0.00101131
0.00101097
0.00101064
0.00101032
0.00101
0.0010097
0.0010094
0.00100911
0.00100882
0.00100855
0.00100828
0.00100802
0.00100776
0.00100752
0.00100727
0.00100704
0.00100681
0.00100659
0.00100637
0.00100616
0.0010167
0.00101621
0.00101574
0.00101528
0.00101483
0.00101439
0.00101397
0.00101356
0.00101316
0.00101277
0.00101239
0.00101202
0.00101166
0.00101131
0.00101097
0.00101064
0.00101032
0.00101
0.00100969
0.0010094
0.00100911
0.00100882
0.00100855
0.00100828
0.00100802
0.00100776
0.00100751
0.00100727
0.00100703
0.0010068
0.00100658
0.00100636
0.00100615
0.0010167
0.00101621
0.00101574
0.00101528
0.00101483
0.00101439
0.00101397
0.00101356
0.00101316
0.00101277
0.00101239
0.00101202
0.00101166
0.00101131
0.00101097
0.00101064
0.00101031
0.00101
0.00100969
0.00100939
0.0010091
0.00100882
0.00100854
0.00100827
0.00100801
0.00100776
0.00100751
0.00100727
0.00100703
0.0010068
0.00100657
0.00100636
0.00100614
0.0010167
0.00101621
0.00101574
0.00101528
0.00101483
0.00101439
0.00101397
0.00101356
0.00101316
0.00101277
0.00101239
0.00101202
0.00101166
0.00101131
0.00101097
0.00101064
0.00101031
0.00101
0.00100969
0.00100939
0.0010091
0.00100882
0.00100854
0.00100827
0.00100801
0.00100775
0.0010075
0.00100726
0.00100702
0.00100679
0.00100657
0.00100635
0.00100614
0.0010167
0.00101621
0.00101574
0.00101528
0.00101483
0.00101439
0.00101397
0.00101356
0.00101316
0.00101277
0.00101239
0.00101202
0.00101166
0.00101131
0.00101097
0.00101063
0.00101031
0.00101
0.00100969
0.00100939
0.0010091
0.00100881
0.00100854
0.00100827
0.00100801
0.00100775
0.0010075
0.00100726
0.00100702
0.00100679
0.00100656
0.00100635
0.00100613
0.0010167
0.00101621
0.00101574
0.00101528
0.00101483
0.00101439
0.00101397
0.00101356
0.00101316
0.00101277
0.00101239
0.00101202
0.00101166
0.00101131
0.00101097
0.00101063
0.00101031
0.00100999
0.00100969
0.00100939
0.0010091
0.00100881
0.00100854
0.00100827
0.001008
0.00100775
0.0010075
0.00100725
0.00100702
0.00100679
0.00100656
0.00100634
0.00100613
0.0010167
0.00101621
0.00101574
0.00101528
0.00101483
0.00101439
0.00101397
0.00101356
0.00101316
0.00101277
0.00101239
0.00101202
0.00101166
0.00101131
0.00101097
0.00101063
0.00101031
0.00100999
0.00100969
0.00100939
0.0010091
0.00100881
0.00100853
0.00100826
0.001008
0.00100774
0.00100749
0.00100725
0.00100701
0.00100678
0.00100656
0.00100634
0.00100612
0.0010167
0.00101621
0.00101574
0.00101528
0.00101483
0.00101439
0.00101397
0.00101356
0.00101316
0.00101277
0.00101239
0.00101202
0.00101166
0.00101131
0.00101096
0.00101063
0.00101031
0.00100999
0.00100969
0.00100939
0.00100909
0.00100881
0.00100853
0.00100826
0.001008
0.00100774
0.00100749
0.00100725
0.00100701
0.00100678
0.00100655
0.00100633
0.00100612
0.0010167
0.00101621
0.00101574
0.00101528
0.00101483
0.00101439
0.00101397
0.00101356
0.00101316
0.00101277
0.00101239
0.00101202
0.00101166
0.00101131
0.00101096
0.00101063
0.00101031
0.00100999
0.00100968
0.00100939
0.00100909
0.00100881
0.00100853
0.00100826
0.001008
0.00100774
0.00100749
0.00100725
0.00100701
0.00100677
0.00100655
0.00100633
0.00100611
0.0010167
0.00101621
0.00101574
0.00101528
0.00101483
0.00101439
0.00101397
0.00101356
0.00101316
0.00101277
0.00101239
0.00101202
0.00101166
0.00101131
0.00101096
0.00101063
0.00101031
0.00100999
0.00100968
0.00100938
0.00100909
0.00100881
0.00100853
0.00100826
0.001008
0.00100774
0.00100749
0.00100724
0.00100701
0.00100677
0.00100655
0.00100632
0.00100611
0.0010167
0.00101621
0.00101574
0.00101528
0.00101483
0.00101439
0.00101397
0.00101356
0.00101316
0.00101277
0.00101239
0.00101202
0.00101166
0.00101131
0.00101097
0.00101063
0.00101031
0.00100999
0.00100969
0.00100939
0.00100909
0.00100881
0.00100853
0.00100826
0.001008
0.00100774
0.00100749
0.00100724
0.001007
0.00100677
0.00100654
0.00100632
0.00100611
0.0010167
0.00101621
0.00101574
0.00101528
0.00101483
0.00101439
0.00101397
0.00101356
0.00101316
0.00101277
0.00101239
0.00101202
0.00101166
0.00101131
0.00101097
0.00101063
0.00101031
0.00101
0.00100969
0.00100939
0.0010091
0.00100881
0.00100853
0.00100826
0.001008
0.00100774
0.00100749
0.00100724
0.001007
0.00100677
0.00100654
0.00100631
0.0010061
0.0010167
0.00101621
0.00101574
0.00101528
0.00101483
0.0010144
0.00101397
0.00101356
0.00101316
0.00101277
0.00101239
0.00101203
0.00101167
0.00101131
0.00101097
0.00101064
0.00101032
0.00101
0.00100969
0.00100939
0.0010091
0.00100881
0.00100853
0.00100825
0.00100799
0.00100772
0.00100747
0.00100722
0.00100697
0.00100673
0.0010065
0.00100627
0.00100604
0.0010167
0.00101621
0.00101574
0.00101528
0.00101483
0.0010144
0.00101398
0.00101357
0.00101317
0.00101278
0.0010124
0.00101203
0.00101167
0.00101132
0.00101097
0.00101064
0.00101031
0.00100998
0.00100967
0.00100936
0.00100905
0.00100875
0.00100846
0.00100817
0.00100788
0.0010076
0.00100732
0.00100705
0.00100678
0.00100651
0.00100624
0.00100598
0.00100572
0.0010167
0.00101621
0.00101574
0.00101529
0.00101484
0.00101441
0.00101399
0.00101358
0.00101318
0.00101279
0.0010124
0.00101202
0.00101164
0.00101127
0.0010109
0.00101053
0.00101016
0.00100979
0.00100942
0.00100906
0.00100869
0.00100832
0.00100794
0.00100757
0.00100719
0.00100681
0.00100643
0.00100604
0.00100566
0.00100527
0.00100488
0.00100448
0.00100408
0.0010167
0.00101622
0.00101575
0.0010153
0.00101485
0.00101441
0.00101397
0.00101352
0.00101307
0.00101262
0.00101214
0.00101166
0.00101115
0.00101062
0.00101008
0.00100951
0.00100891
0.00100829
0.00100765
0.00100698
0.0010063
0.00100559
0.00100485
0.0010041
0.00100333
0.00100255
0.00100175
0.00100093
0.0010001
0.000999258
0.000998407
0.000997547
0.00099668
0.00101671
0.00101622
0.00101574
0.00101524
0.00101469
0.00101407
0.00101337
0.00101257
0.00101167
0.00101066
0.00100954
0.0010083
0.00100697
0.00100552
0.00100398
0.00100235
0.00100063
0.000998836
0.000996971
0.000995045
0.000993065
0.000991037
0.00098897
0.00098687
0.000984742
0.000982594
0.00098043
0.000978256
0.000976076
0.000973895
0.000971716
0.000969543
0.00096738
0.00101671
0.001016
0.00101488
0.00101325
0.00101112
0.00100847
0.00100531
0.00100168
0.000997609
0.000993153
0.000988365
0.000983297
0.000978002
0.000972526
0.000966913
0.000961203
0.00095543
0.000949624
0.000943811
0.000938014
0.000932251
0.000926539
0.000920892
0.00091532
0.000909832
0.000904436
0.000899138
0.000893942
0.000888851
0.000883869
0.000878997
0.000874236
0.000869586
0.0010153
0.00100706
0.000995498
0.00098139
0.000965355
0.000948005
0.000929898
0.000911484
0.000893096
0.000874972
0.000857279
0.000840124
0.000823575
0.000807669
0.000792419
0.000777824
0.000763875
0.000750552
0.000737834
0.000725695
0.000714109
0.00070305
0.00069249
0.000682405
0.000672768
0.000663557
0.000654748
0.00064632
0.000638251
0.000630524
0.000623119
0.00061602
0.000609208
0.000935928
0.00081556
0.000728202
0.000659318
0.000602486
0.000555285
0.000515816
0.000482494
0.000454069
0.000429576
0.000408276
0.000389595
0.000373089
0.000358408
0.000345274
0.000333462
0.00032279
0.000313108
0.000304292
0.000296238
0.000288857
0.000282074
0.000275826
0.000270056
0.000264716
0.000259765
0.000255166
0.000250886
0.000246897
0.000243172
0.000239691
0.000236432
0.000233376
0.000125477
0.000128847
0.000132096
0.000135204
0.000138173
0.000141007
0.000143711
0.000146289
0.000148745
0.000151085
0.000153311
0.000155429
0.000157443
0.000159356
0.000161174
0.0001629
0.000164537
0.000166091
0.000167565
0.000168963
0.000170287
0.000171543
0.000172732
0.000173859
0.000174926
0.000175937
0.000176894
0.0001778
0.000178658
0.000179469
0.000180238
0.000180965
0.000181653
0.000107506
0.00015177
0.000194413
0.000233845
0.000270174
0.000303106
0.000332529
0.000358876
0.000383007
0.000405888
0.000428305
0.000450722
0.000473313
0.000496058
0.000518873
0.000541693
0.000564521
0.000587422
0.000610503
0.000633881
0.000657656
0.0006819
0.000706657
0.000731946
0.000757767
0.0007841
0.000810908
0.000838123
0.000865645
0.000893338
0.000921037
0.000948557
0.000975706
0.0010023
0.00102817
0.00105316
0.00107713
0.00109994
0.00112143
0.0011414
0.00115965
0.00117594
0.00119003
0.00120172
0.00121082
0.00121722
0.00122085
0.0012217
0.0012198
0.00121523
0.00120812
0.00119861
0.00118693
0.00117334
0.00115816
0.00114179
0.00112464
0.00110719
0.00108991
0.00107328
0.00105775
0.00104373
0.00103158
0.00102158
0.00101391
0.00100871
0.00100601
0.00100578
0.00100794
0.00101238
0.00101897
0.00102757
0.00103807
0.00105036
0.00106438
0.0010801
0.00109754
0.00111676
0.00113782
0.00116086
0.00118598
0.00121333
0.00124301
0.00127509
0.0013096
0.00134649
0.00138562
0.00142673
0.00146945
0.00151326
0.00155751
0.00160141
0.00164404
0.00168435
0.00172121
0.00175343
0.0017798
0.00179913
0.00181061
0.00180994
0.000245153
0.000212537
0.000183879
0.000169861
0.000169074
0.000178174
0.000194401
0.000215608
0.000240011
0.000266159
0.000292909
0.000319457
0.000345335
0.000370366
0.000394594
0.000418187
0.000441359
0.000464303
0.000487158
0.000510004
0.000532876
0.000555782
0.000578725
0.000601714
0.000624765
0.000647898
0.00067112
0.000694416
0.000717739
0.000741003
0.000764085
0.00078684
0.000809108
0.000830735
0.000851579
0.000871522
0.000890459
0.000908293
0.000924915
0.000940191
0.000953962
0.000966042
0.000976238
0.000984371
0.0009903
0.00099394
0.000995269
0.000994331
0.00099122
0.000986079
0.000979092
0.000970485
0.000960529
0.000949547
0.000937913
0.000926045
0.00091439
0.000903402
0.000893519
0.000885137
0.000878589
0.000874127
0.000871907
0.00087199
0.00087434
0.000878843
0.000885324
0.000893568
0.000903345
0.000914433
0.000926629
0.000939771
0.000953738
0.000968463
0.000983928
0.00100017
0.00101729
0.00103541
0.00105471
0.00107541
0.00109774
0.00112194
0.00114825
0.00117686
0.00120791
0.0012415
0.00127757
0.00131598
0.00135642
0.00139845
0.00144145
0.00148462
0.00152705
0.00156767
0.00160531
0.00163874
0.00166672
0.00168801
0.0017017
0.00170463
0.000348571
0.000344298
0.000330125
0.000303112
0.000269563
0.000238247
0.000214176
0.000198589
0.000190972
0.000190056
0.000194735
0.000204123
0.000217435
0.00023392
0.000252843
0.000273506
0.000295286
0.000317659
0.000340229
0.000362729
0.000385007
0.000407003
0.000428715
0.000450171
0.000471406
0.000492445
0.000513295
0.000533938
0.000554333
0.000574409
0.000594074
0.000613216
0.000631715
0.000649456
0.000666337
0.00068228
0.000697226
0.000711132
0.000723949
0.000735616
0.000746044
0.000755121
0.000762725
0.000768742
0.000773098
0.000775775
0.000776825
0.000776366
0.000774581
0.000771695
0.000767974
0.000763714
0.000759242
0.000754912
0.000751102
0.000748196
0.000746562
0.000746525
0.000748338
0.000752164
0.000758063
0.000765988
0.000775797
0.000787268
0.000800125
0.000814063
0.000828778
0.000843983
0.000859432
0.000874925
0.000890315
0.000905511
0.000920473
0.000935216
0.0009498
0.000964334
0.00097897
0.000993906
0.00100938
0.00102566
0.00104305
0.00106189
0.0010825
0.0011052
0.00113029
0.00115798
0.0011884
0.00122153
0.00125721
0.00129509
0.00133463
0.00137509
0.00141557
0.00145497
0.00149212
0.00152572
0.0015545
0.00157717
0.00159267
0.00159911
0.000475485
0.000469965
0.000464234
0.000455697
0.000441576
0.000420495
0.000393369
0.000362891
0.000332284
0.000303924
0.000279759
0.000260406
0.000245825
0.000235802
0.000230063
0.000228299
0.000230174
0.000235327
0.000243367
0.000253882
0.000266445
0.000280633
0.000296044
0.000312316
0.000329138
0.000346258
0.00036348
0.000380655
0.000397666
0.000414411
0.000430794
0.000446718
0.000462083
0.000476799
0.000490787
0.000503997
0.000516402
0.000528
0.000538798
0.000548803
0.000558007
0.000566391
0.000573928
0.000580603
0.000586438
0.000591509
0.000595954
0.000599974
0.000603818
0.000607762
0.000612097
0.000617106
0.000623064
0.000630222
0.000638796
0.00064895
0.000660779
0.000674287
0.000689389
0.000705908
0.000723597
0.000742158
0.000761268
0.000780608
0.000799876
0.000818813
0.000837203
0.000854884
0.000871747
0.000887729
0.00090281
0.000917008
0.000930373
0.000942982
0.00095494
0.000966374
0.000977441
0.000988323
0.000999237
0.00101043
0.0010222
0.00103486
0.00104878
0.00106433
0.00108192
0.00110189
0.00112455
0.00115009
0.00117854
0.00120975
0.00124335
0.00127871
0.00131502
0.00135122
0.00138614
0.00141846
0.00144684
0.00146998
0.00148658
0.00149611
0.000612516
0.000604939
0.000597712
0.000590561
0.000582741
0.000573184
0.000560825
0.000544944
0.000525412
0.000502614
0.000477496
0.000451624
0.000426067
0.000401625
0.000378901
0.000358337
0.000340238
0.000324797
0.000312117
0.000302221
0.00029507
0.000290567
0.000288566
0.000288881
0.000291291
0.000295557
0.000301425
0.000308643
0.000316965
0.00032616
0.000336014
0.00034633
0.000356939
0.000367695
0.000378484
0.000389229
0.000399887
0.000410448
0.000420925
0.000431346
0.000441745
0.000452159
0.000462631
0.000473221
0.000484016
0.000495137
0.000506739
0.000518998
0.000532094
0.000546184
0.000561392
0.000577791
0.000595402
0.000614194
0.000634081
0.000654927
0.000676544
0.000698702
0.000721143
0.000743593
0.000765785
0.000787473
0.000808443
0.000828523
0.000847585
0.000865544
0.000882353
0.000898004
0.000912515
0.000925929
0.000938305
0.000949718
0.000960248
0.000969984
0.000979021
0.00098746
0.000995409
0.00100299
0.00101034
0.00101763
0.00102503
0.00103279
0.00104118
0.00105052
0.0010612
0.00107361
0.00108817
0.00110525
0.00112511
0.00114788
0.00117345
0.00120148
0.00123133
0.00126213
0.00129277
0.00132197
0.00134838
0.00137071
0.00138741
0.00139921
0.000735331
0.000727885
0.000720545
0.000713339
0.000706193
0.000698895
0.000691096
0.000682352
0.000672214
0.000660296
0.000646396
0.000630648
0.000613313
0.00059474
0.000575326
0.000555477
0.000535589
0.000516028
0.000497125
0.000479173
0.000462423
0.000447087
0.000433334
0.000421291
0.000411042
0.00040263
0.000396058
0.000391299
0.000388295
0.00038697
0.000387234
0.00038899
0.000392139
0.000396582
0.000402226
0.000408989
0.000416798
0.000425595
0.000435335
0.000445984
0.000457519
0.00046993
0.000483219
0.000497399
0.000512497
0.000528544
0.000545568
0.000563576
0.000582547
0.000602422
0.000623101
0.000644448
0.000666301
0.00068848
0.000710796
0.000733052
0.000755054
0.000776615
0.000797558
0.00081773
0.000837002
0.000855277
0.000872488
0.0008886
0.000903604
0.000917515
0.000930369
0.000942214
0.000953113
0.000963133
0.000972348
0.000980832
0.000988659
0.000995901
0.00100263
0.00100891
0.00101482
0.00102042
0.00102578
0.00103097
0.00103609
0.00104125
0.00104658
0.00105226
0.00105855
0.00106572
0.00107415
0.00108421
0.00109632
0.00111079
0.00112783
0.00114743
0.00116932
0.00119292
0.00121737
0.00124159
0.0012643
0.0012843
0.00129984
0.00131265
0.000832246
0.000825839
0.000819441
0.000813075
0.000806753
0.000800459
0.000794137
0.000787678
0.000780924
0.000773676
0.000765751
0.000757001
0.000747331
0.000736713
0.000725181
0.00071282
0.000699761
0.000686164
0.000672212
0.000658099
0.000644024
0.000630185
0.000616778
0.000603988
0.000591985
0.000580927
0.00057095
0.00056217
0.000554687
0.00054858
0.000543913
0.000540734
0.000539078
0.000538964
0.000540394
0.000543353
0.000547808
0.000553711
0.000560999
0.000569602
0.000579446
0.000590457
0.000602571
0.000615726
0.000629863
0.00064492
0.000660823
0.00067748
0.000694775
0.000712571
0.000730715
0.000749042
0.000767391
0.000785604
0.000803537
0.000821057
0.000838048
0.000854408
0.000870051
0.000884912
0.000898945
0.000912122
0.000924436
0.000935895
0.000946522
0.000956352
0.00096543
0.000973804
0.00098153
0.000988665
0.000995268
0.0010014
0.00100711
0.00101246
0.00101751
0.0010223
0.00102688
0.0010313
0.0010356
0.00103983
0.00104402
0.00104822
0.00105246
0.00105682
0.00106137
0.00106624
0.00107161
0.00107772
0.00108487
0.0010934
0.00110363
0.0011158
0.00112998
0.00114598
0.00116336
0.00118137
0.001199
0.00121524
0.00122836
0.00124064
0.000901858
0.000896823
0.000891751
0.000886653
0.000881543
0.00087643
0.000871315
0.000866187
0.000861017
0.000855755
0.000850339
0.000844697
0.000838755
0.000832449
0.000825729
0.00081857
0.000810969
0.00080295
0.000794556
0.000785856
0.000776935
0.000767892
0.000758841
0.000749901
0.000741197
0.000732854
0.000724998
0.000717748
0.000711218
0.000705515
0.000700737
0.000696973
0.000694302
0.000692787
0.000692476
0.000693396
0.000695552
0.000698927
0.000703485
0.000709173
0.000715924
0.000723668
0.000732333
0.000741845
0.000752129
0.000763108
0.000774695
0.000786794
0.000799298
0.00081209
0.000825048
0.00083805
0.000850979
0.00086373
0.000876208
0.000888332
0.000900034
0.000911256
0.000921955
0.0009321
0.00094167
0.000950657
0.000959064
0.000966903
0.000974193
0.00098096
0.000987236
0.000993057
0.000998458
0.00100348
0.00100817
0.00101255
0.00101669
0.00102061
0.00102436
0.00102798
0.00103151
0.001035
0.00103849
0.00104201
0.0010456
0.0010493
0.00105312
0.00105709
0.00106122
0.00106554
0.00107008
0.0010749
0.00108011
0.00108587
0.0010924
0.00109991
0.00110861
0.00111858
0.00112974
0.00114173
0.00115396
0.00116577
0.00117566
0.00118597
0.000947883
0.000944232
0.000940519
0.000936753
0.00093294
0.000929089
0.000925206
0.000921299
0.000917367
0.00091341
0.000909418
0.000905376
0.000901263
0.000897053
0.000892721
0.000888243
0.000883601
0.000878784
0.000873792
0.000868637
0.00086334
0.000857936
0.000852472
0.000847004
0.000841595
0.000836317
0.000831247
0.000826462
0.000822045
0.000818074
0.000814626
0.000811777
0.000809593
0.000808134
0.000807448
0.00080757
0.00080852
0.0008103
0.000812897
0.000816284
0.000820425
0.000825273
0.000830779
0.000836891
0.000843552
0.000850703
0.000858281
0.000866213
0.000874425
0.000882837
0.000891367
0.000899936
0.000908468
0.000916894
0.000925155
0.000933198
0.00094098
0.000948465
0.000955626
0.000962442
0.0009689
0.000974993
0.000980723
0.000986093
0.000991115
0.000995802
0.00100017
0.00100425
0.00100805
0.00101161
0.00101494
0.00101807
0.00102104
0.00102387
0.00102659
0.00102924
0.00103186
0.00103448
0.00103714
0.00103988
0.00104276
0.00104581
0.00104906
0.00105256
0.00105633
0.00106037
0.00106468
0.00106926
0.0010741
0.00107918
0.00108455
0.00109026
0.00109641
0.00110308
0.00111032
0.00111805
0.00112601
0.00113391
0.00114067
0.00114833
0.000975929
0.000973471
0.000970945
0.000968354
0.000965705
0.000963
0.000960247
0.000957451
0.000954616
0.00095175
0.000948855
0.000945936
0.000942992
0.000940022
0.00093702
0.000933984
0.000930906
0.000927783
0.000924611
0.000921393
0.000918132
0.000914839
0.00091153
0.000908228
0.000904961
0.000901761
0.000898669
0.000895725
0.000892977
0.000890471
0.000888256
0.000886379
0.000884887
0.00088382
0.000883215
0.000883099
0.00088349
0.000884398
0.000885823
0.000887755
0.000890177
0.000893067
0.000896398
0.00090014
0.000904261
0.000908722
0.000913482
0.000918498
0.00092372
0.000929099
0.000934582
0.000940121
0.000945667
0.000951177
0.000956611
0.000961937
0.000967123
0.000972146
0.000976984
0.000981622
0.000986048
0.000990254
0.000994236
0.000997993
0.00100153
0.00100485
0.00100796
0.00101087
0.0010136
0.00101615
0.00101855
0.0010208
0.00102292
0.00102494
0.00102688
0.00102876
0.0010306
0.00103245
0.00103433
0.00103628
0.00103835
0.00104059
0.00104304
0.00104576
0.00104879
0.00105217
0.00105593
0.00106008
0.00106458
0.00106942
0.00107453
0.00107985
0.00108533
0.00109093
0.00109662
0.00110235
0.001108
0.00111348
0.00111811
0.00112351
0.000991638
0.000990081
0.000988465
0.00098679
0.000985058
0.000983271
0.000981433
0.000979547
0.000977617
0.000975648
0.000973644
0.000971611
0.000969553
0.000967474
0.000965379
0.00096327
0.00096115
0.000959023
0.00095689
0.000954754
0.000952621
0.000950495
0.000948385
0.0009463
0.000944254
0.000942263
0.000940345
0.000938521
0.000936815
0.000935254
0.000933863
0.000932671
0.000931703
0.000930986
0.000930542
0.000930389
0.00093054
0.000931004
0.000931785
0.000932881
0.000934287
0.000935994
0.000937991
0.000940262
0.000942792
0.00094556
0.000948541
0.000951711
0.000955038
0.000958493
0.000962044
0.00096566
0.00096931
0.000972968
0.000976608
0.000980207
0.000983743
0.000987198
0.000990557
0.000993804
0.00099693
0.000999925
0.00100278
0.0010055
0.00100807
0.0010105
0.00101278
0.00101493
0.00101694
0.00101882
0.00102058
0.00102222
0.00102376
0.0010252
0.00102657
0.00102787
0.00102912
0.00103035
0.00103158
0.00103285
0.00103418
0.00103563
0.00103724
0.00103906
0.00104116
0.00104358
0.00104639
0.00104962
0.0010533
0.00105743
0.00106197
0.00106686
0.001072
0.00107728
0.00108255
0.00108771
0.0010926
0.00109714
0.00110086
0.00110507
0.00099969
0.000998736
0.000997738
0.000996695
0.000995607
0.000994475
0.0009933
0.000992082
0.000990826
0.000989532
0.000988204
0.000986845
0.000985459
0.00098405
0.000982623
0.00098118
0.000979728
0.00097827
0.000976811
0.000975357
0.000973911
0.00097248
0.000971071
0.000969689
0.000968342
0.000967041
0.000965795
0.000964616
0.000963517
0.000962511
0.000961615
0.000960843
0.00096021
0.000959731
0.000959419
0.000959285
0.000959337
0.000959582
0.000960023
0.000960661
0.000961496
0.000962527
0.000963748
0.000965156
0.000966743
0.000968499
0.000970411
0.000972465
0.000974643
0.000976926
0.000979294
0.000981729
0.000984212
0.000986725
0.00098925
0.000991772
0.000994276
0.000996746
0.000999172
0.00100154
0.00100384
0.00100606
0.0010082
0.00101024
0.00101219
0.00101404
0.00101578
0.00101742
0.00101896
0.00102039
0.00102173
0.00102296
0.0010241
0.00102516
0.00102613
0.00102702
0.00102786
0.00102864
0.0010294
0.00103014
0.0010309
0.00103171
0.0010326
0.00103363
0.00103484
0.00103629
0.00103804
0.00104015
0.00104268
0.00104567
0.00104913
0.00105304
0.00105735
0.00106196
0.00106673
0.0010715
0.00107606
0.0010803
0.00108376
0.00108764
0.00100345
0.00100285
0.00100223
0.00100157
0.00100089
0.00100017
0.000999429
0.000998653
0.000997847
0.000997012
0.00099615
0.000995262
0.000994351
0.000993418
0.000992467
0.0009915
0.000990522
0.000989535
0.000988545
0.000987554
0.000986568
0.000985592
0.000984631
0.00098369
0.000982776
0.000981895
0.000981054
0.00098026
0.000979522
0.000978848
0.000978247
0.000977729
0.000977302
0.000976976
0.000976758
0.000976654
0.000976669
0.000976809
0.000977075
0.000977469
0.000977993
0.000978648
0.000979434
0.00098035
0.000981394
0.000982562
0.000983848
0.000985244
0.000986739
0.000988322
0.000989981
0.000991704
0.000993477
0.00099529
0.000997131
0.000998988
0.00100085
0.00100271
0.00100455
0.00100636
0.00100813
0.00100986