/*--------------------------------*- C++ -*----------------------------------*\
  =========                 |
  \\      /  F ield         | OpenFOAM: The Open Source CFD Toolbox
   \\    /   O peration     | Website:  https://openfoam.org
    \\  /    A nd           | Version:  10
     \\/     M anipulation  |
\*---------------------------------------------------------------------------*/
FoamFile
{
    format      ascii;
    class       volScalarField;
    location    "0.2";
    object      p;
}
// * * * * * * * * * * * * * * * * * * * * * * * * * * * * * * * * * * * * * //

dimensions      [0 2 -2 0 0 0 0];

internalField   nonuniform List<scalar> 
6820
(
-8.03836
-9.40239
-9.81576
-9.91106
-9.99168
-10.0428
-10.0734
-10.0975
-10.118
-10.136
-10.1526
-10.1682
-10.183
-10.1973
-10.2111
-10.2245
-10.2375
-10.2502
-10.2624
-10.2743
-10.2858
-10.2967
-10.307
-10.3165
-10.3249
-10.3319
-10.3365
-10.3377
-10.3333
-10.317
-10.2853
-10.2078
-10.0283
-10.8385
-10.4341
-10.14
-10.0445
-10.0458
-10.0623
-10.08
-10.0993
-10.1184
-10.1361
-10.1526
-10.1681
-10.1828
-10.1967
-10.2102
-10.2231
-10.2357
-10.2479
-10.2597
-10.2712
-10.2823
-10.2929
-10.303
-10.3125
-10.321
-10.3284
-10.3341
-10.3381
-10.3381
-10.34
-10.3272
-10.3632
-10.366
-9.69553
-9.56729
-9.79214
-9.92963
-9.99098
-10.0351
-10.0669
-10.0919
-10.1131
-10.1317
-10.1486
-10.1643
-10.1792
-10.1934
-10.2072
-10.2205
-10.2335
-10.246
-10.2583
-10.2702
-10.2817
-10.2927
-10.3032
-10.3131
-10.3222
-10.3303
-10.3369
-10.3421
-10.3448
-10.3469
-10.3438
-10.3529
-10.3475
-10.0621
-10.0788
-10.0543
-10.0314
-10.0393
-10.0595
-10.0793
-10.0982
-10.1164
-10.1336
-10.1498
-10.1651
-10.1798
-10.1939
-10.2075
-10.2207
-10.2336
-10.246
-10.2582
-10.2699
-10.2814
-10.2924
-10.303
-10.3131
-10.3225
-10.3313
-10.3391
-10.3462
-10.3522
-10.3597
-10.3667
-10.3881
-10.4153
-9.95222
-9.89822
-9.942
-9.98657
-10.0215
-10.0513
-10.0756
-10.0967
-10.1158
-10.1333
-10.1495
-10.1648
-10.1794
-10.1935
-10.2071
-10.2203
-10.2331
-10.2456
-10.2578
-10.2697
-10.2813
-10.2926
-10.3035
-10.3139
-10.3239
-10.3335
-10.3425
-10.3514
-10.3602
-10.3708
-10.3832
-10.4048
-10.4331
-9.99292
-9.98604
-10.0043
-10.0212
-10.0393
-10.0605
-10.0808
-10.0998
-10.1176
-10.1344
-10.1503
-10.1653
-10.1798
-10.1938
-10.2073
-10.2204
-10.2332
-10.2457
-10.2579
-10.2699
-10.2816
-10.293
-10.3041
-10.3149
-10.3254
-10.3358
-10.346
-10.3564
-10.3675
-10.3807
-10.3966
-10.4195
-10.4495
-9.99224
-9.98144
-9.99612
-10.0175
-10.0393
-10.0615
-10.082
-10.1008
-10.1184
-10.135
-10.1507
-10.1656
-10.1799
-10.1938
-10.2073
-10.2203
-10.2331
-10.2457
-10.2579
-10.2699
-10.2818
-10.2933
-10.3047
-10.316
-10.327
-10.3381
-10.3494
-10.3612
-10.374
-10.3889
-10.4068
-10.4298
-10.4583
-10.0019
-9.99882
-10.0118
-10.0296
-10.0476
-10.0667
-10.0853
-10.103
-10.1199
-10.136
-10.1513
-10.166
-10.1802
-10.1939
-10.2073
-10.2203
-10.2331
-10.2456
-10.2579
-10.27
-10.2819
-10.2937
-10.3054
-10.317
-10.3286
-10.3403
-10.3525
-10.3653
-10.3794
-10.3954
-10.4142
-10.4368
-10.4636
-10.0105
-10.0093
-10.0197
-10.0353
-10.0522
-10.0701
-10.0879
-10.1049
-10.1212
-10.1369
-10.1519
-10.1664
-10.1804
-10.194
-10.2073
-10.2203
-10.233
-10.2455
-10.2578
-10.27
-10.2821
-10.294
-10.3059
-10.3178
-10.3299
-10.3422
-10.355
-10.3687
-10.3836
-10.4003
-10.4193
-10.4412
-10.4662
-10.0191
-10.0196
-10.0288
-10.0428
-10.0581
-10.0745
-10.091
-10.1071
-10.1228
-10.1379
-10.1526
-10.1668
-10.1806
-10.1941
-10.2072
-10.2202
-10.2329
-10.2454
-10.2577
-10.2699
-10.2821
-10.2942
-10.3063
-10.3185
-10.3309
-10.3437
-10.3571
-10.3713
-10.3866
-10.4036
-10.4224
-10.4434
-10.4667
-10.0274
-10.0287
-10.0369
-10.0493
-10.0633
-10.0785
-10.094
-10.1093
-10.1244
-10.1391
-10.1534
-10.1673
-10.1809
-10.1942
-10.2072
-10.22
-10.2327
-10.2452
-10.2575
-10.2698
-10.282
-10.2942
-10.3065
-10.319
-10.3317
-10.3448
-10.3585
-10.373
-10.3886
-10.4055
-10.4239
-10.444
-10.4657
-10.0354
-10.0372
-10.0446
-10.0557
-10.0686
-10.0825
-10.0971
-10.1116
-10.1261
-10.1402
-10.1542
-10.1678
-10.1811
-10.1943
-10.2072
-10.2199
-10.2324
-10.2449
-10.2572
-10.2695
-10.2818
-10.2941
-10.3065
-10.3191
-10.332
-10.3454
-10.3593
-10.3739
-10.3895
-10.4062
-10.4241
-10.4432
-10.4635
-10.043
-10.0449
-10.0517
-10.0618
-10.0735
-10.0865
-10.1001
-10.1139
-10.1277
-10.1414
-10.155
-10.1683
-10.1814
-10.1943
-10.2071
-10.2197
-10.2321
-10.2445
-10.2568
-10.2691
-10.2814
-10.2938
-10.3063
-10.319
-10.332
-10.3454
-10.3594
-10.374
-10.3894
-10.4058
-10.423
-10.4412
-10.4603
-10.0501
-10.052
-10.0583
-10.0674
-10.0782
-10.0903
-10.1031
-10.1162
-10.1294
-10.1427
-10.1558
-10.1688
-10.1816
-10.1943
-10.2069
-10.2194
-10.2318
-10.2441
-10.2563
-10.2686
-10.2809
-10.2933
-10.3058
-10.3185
-10.3316
-10.345
-10.3589
-10.3734
-10.3885
-10.4044
-10.421
-10.4383
-10.4561
-10.0568
-10.0586
-10.0643
-10.0727
-10.0827
-10.0939
-10.1059
-10.1184
-10.1311
-10.1438
-10.1566
-10.1692
-10.1818
-10.1943
-10.2067
-10.219
-10.2313
-10.2435
-10.2557
-10.2679
-10.2801
-10.2925
-10.305
-10.3177
-10.3307
-10.344
-10.3578
-10.372
-10.3868
-10.4021
-10.418
-10.4344
-10.4512
-10.0629
-10.0646
-10.0699
-10.0776
-10.0869
-10.0973
-10.1087
-10.1205
-10.1326
-10.1449
-10.1573
-10.1696
-10.1819
-10.1942
-10.2064
-10.2186
-10.2307
-10.2428
-10.2549
-10.267
-10.2792
-10.2914
-10.3039
-10.3165
-10.3293
-10.3425
-10.356
-10.3699
-10.3843
-10.3991
-10.4142
-10.4298
-10.4456
-10.0684
-10.0701
-10.075
-10.0821
-10.0907
-10.1005
-10.1112
-10.1225
-10.1341
-10.146
-10.1579
-10.1699
-10.182
-10.194
-10.206
-10.218
-10.23
-10.2419
-10.2539
-10.2659
-10.2779
-10.2901
-10.3024
-10.3149
-10.3275
-10.3405
-10.3537
-10.3672
-10.3811
-10.3953
-10.4098
-10.4245
-10.4394
-10.0735
-10.0751
-10.0796
-10.0862
-10.0942
-10.1034
-10.1135
-10.1243
-10.1354
-10.1468
-10.1585
-10.1702
-10.1819
-10.1937
-10.2055
-10.2173
-10.2291
-10.2409
-10.2527
-10.2645
-10.2765
-10.2885
-10.3006
-10.3128
-10.3253
-10.3379
-10.3508
-10.3639
-10.3773
-10.3909
-10.4046
-10.4186
-10.4326
-10.078
-10.0795
-10.0837
-10.0899
-10.0974
-10.1061
-10.1156
-10.1259
-10.1366
-10.1476
-10.1588
-10.1702
-10.1817
-10.1933
-10.2048
-10.2164
-10.228
-10.2396
-10.2513
-10.263
-10.2747
-10.2865
-10.2984
-10.3105
-10.3226
-10.3349
-10.3474
-10.3601
-10.3729
-10.3859
-10.3989
-10.4121
-10.4252
-10.082
-10.0834
-10.0873
-10.0931
-10.1001
-10.1083
-10.1174
-10.1272
-10.1375
-10.1481
-10.1591
-10.1701
-10.1814
-10.1926
-10.204
-10.2154
-10.2268
-10.2382
-10.2496
-10.2611
-10.2727
-10.2843
-10.2959
-10.3077
-10.3195
-10.3315
-10.3435
-10.3557
-10.368
-10.3803
-10.3927
-10.4051
-10.4174
-10.0854
-10.0867
-10.0904
-10.0958
-10.1025
-10.1103
-10.1189
-10.1283
-10.1382
-10.1485
-10.1591
-10.1699
-10.1808
-10.1919
-10.203
-10.2141
-10.2253
-10.2365
-10.2478
-10.259
-10.2703
-10.2817
-10.2931
-10.3045
-10.316
-10.3276
-10.3392
-10.3509
-10.3626
-10.3743
-10.386
-10.3976
-10.4092
-10.0883
-10.0895
-10.093
-10.0981
-10.1044
-10.1118
-10.1201
-10.1291
-10.1386
-10.1486
-10.1589
-10.1694
-10.1801
-10.1909
-10.2017
-10.2127
-10.2236
-10.2346
-10.2456
-10.2567
-10.2677
-10.2788
-10.2899
-10.301
-10.3121
-10.3232
-10.3344
-10.3456
-10.3567
-10.3678
-10.3788
-10.3898
-10.4006
-10.0906
-10.0917
-10.095
-10.0999
-10.1059
-10.1129
-10.1209
-10.1295
-10.1388
-10.1484
-10.1584
-10.1687
-10.1791
-10.1897
-10.2003
-10.211
-10.2218
-10.2325
-10.2433
-10.2541
-10.2649
-10.2756
-10.2864
-10.2971
-10.3079
-10.3186
-10.3293
-10.3399
-10.3505
-10.3609
-10.3713
-10.3816
-10.3916
-10.0923
-10.0934
-10.0965
-10.1011
-10.1068
-10.1136
-10.1212
-10.1296
-10.1385
-10.1479
-10.1576
-10.1676
-10.1778
-10.1881
-10.1986
-10.2091
-10.2196
-10.2301
-10.2406
-10.2511
-10.2616
-10.2721
-10.2825
-10.2929
-10.3032
-10.3135
-10.3237
-10.3338
-10.3438
-10.3537
-10.3634
-10.373
-10.3824
-10.0933
-10.0944
-10.0974
-10.1018
-10.1073
-10.1138
-10.1212
-10.1293
-10.138
-10.1472
-10.1567
-10.1665
-10.1764
-10.1865
-10.1967
-10.207
-10.2173
-10.2276
-10.2378
-10.2481
-10.2583
-10.2684
-10.2785
-10.2885
-10.2984
-10.3082
-10.3179
-10.3275
-10.337
-10.3463
-10.3554
-10.3643
-10.373
-10.0938
-10.0948
-10.0976
-10.1018
-10.1071
-10.1133
-10.1205
-10.1283
-10.1368
-10.1458
-10.1551
-10.1646
-10.1744
-10.1843
-10.1943
-10.2044
-10.2145
-10.2245
-10.2345
-10.2445
-10.2544
-10.2642
-10.274
-10.2836
-10.2931
-10.3025
-10.3117
-10.3208
-10.3297
-10.3384
-10.347
-10.3552
-10.3633
-10.0936
-10.0945
-10.0973
-10.1014
-10.1066
-10.1128
-10.1198
-10.1275
-10.1358
-10.1446
-10.1537
-10.1631
-10.1727
-10.1824
-10.1922
-10.2021
-10.2119
-10.2217
-10.2314
-10.2411
-10.2507
-10.2602
-10.2696
-10.2788
-10.2879
-10.2968
-10.3056
-10.3141
-10.3225
-10.3306
-10.3386
-10.3462
-10.3536
-10.0926
-10.0935
-10.096
-10.0997
-10.1046
-10.1105
-10.1173
-10.1249
-10.133
-10.1417
-10.1507
-10.16
-10.1695
-10.1791
-10.1888
-10.1985
-10.2081
-10.2178
-10.2273
-10.2368
-10.2461
-10.2553
-10.2644
-10.2733
-10.282
-10.2905
-10.2988
-10.3069
-10.3148
-10.3224
-10.3298
-10.3369
-10.3437
-10.0911
-10.0922
-10.095
-10.099
-10.104
-10.11
-10.1168
-10.1243
-10.1324
-10.1409
-10.1498
-10.1589
-10.1681
-10.1775
-10.1869
-10.1964
-10.2058
-10.2151
-10.2243
-10.2334
-10.2424
-10.2513
-10.2599
-10.2684
-10.2767
-10.2847
-10.2926
-10.3002
-10.3075
-10.3146
-10.3214
-10.3279
-10.3342
-10.0883
-10.0886
-10.0904
-10.0935
-10.098
-10.1037
-10.1104
-10.1179
-10.1261
-10.1348
-10.1438
-10.1531
-10.1625
-10.172
-10.1815
-10.191
-10.2004
-10.2097
-10.2189
-10.2279
-10.2368
-10.2454
-10.2539
-10.2621
-10.2701
-10.2778
-10.2853
-10.2925
-10.2995
-10.3061
-10.3125
-10.3185
-10.3242
-10.0866
-10.0886
-10.0919
-10.096
-10.1009
-10.1067
-10.1134
-10.1207
-10.1285
-10.1368
-10.1454
-10.1542
-10.1632
-10.1722
-10.1813
-10.1903
-10.1993
-10.2081
-10.2169
-10.2254
-10.2338
-10.242
-10.25
-10.2577
-10.2652
-10.2725
-10.2795
-10.2862
-10.2926
-10.2987
-10.3045
-10.3099
-10.3151
-10.0787
-10.0766
-10.0764
-10.0787
-10.0833
-10.0895
-10.0969
-10.1053
-10.1142
-10.1236
-10.1332
-10.1429
-10.1527
-10.1625
-10.1722
-10.1817
-10.1911
-10.2003
-10.2093
-10.218
-10.2265
-10.2348
-10.2428
-10.2504
-10.2578
-10.2649
-10.2717
-10.2782
-10.2843
-10.2901
-10.2956
-10.3007
-10.3054
-10.0848
-10.0903
-10.0946
-10.0977
-10.1015
-10.1064
-10.1122
-10.1188
-10.1261
-10.1338
-10.1419
-10.1502
-10.1587
-10.1673
-10.1759
-10.1845
-10.193
-10.2013
-10.2095
-10.2175
-10.2253
-10.2329
-10.2402
-10.2472
-10.254
-10.2605
-10.2667
-10.2726
-10.2781
-10.2834
-10.2883
-10.2928
-10.297
-10.0553
-10.0441
-10.0409
-10.0449
-10.0525
-10.0618
-10.0721
-10.0831
-10.0944
-10.1058
-10.1171
-10.1283
-10.1392
-10.1498
-10.1602
-10.1703
-10.18
-10.1895
-10.1985
-10.2073
-10.2157
-10.2237
-10.2314
-10.2388
-10.2458
-10.2524
-10.2586
-10.2645
-10.27
-10.2751
-10.2799
-10.2843
-10.2882
-10.1034
-10.1197
-10.1211
-10.1156
-10.1132
-10.1143
-10.1174
-10.1218
-10.1273
-10.1336
-10.1406
-10.148
-10.1557
-10.1635
-10.1714
-10.1793
-10.1872
-10.1949
-10.2025
-10.2099
-10.2171
-10.2241
-10.2308
-10.2372
-10.2433
-10.2491
-10.2546
-10.2597
-10.2646
-10.2691
-10.2732
-10.277
-10.2804
-9.99353
-9.95533
-9.94963
-9.97348
-9.99399
-10.0124
-10.0306
-10.0481
-10.0647
-10.0803
-10.095
-10.1089
-10.122
-10.1344
-10.1462
-10.1573
-10.1679
-10.178
-10.1875
-10.1966
-10.2052
-10.2133
-10.221
-10.2282
-10.235
-10.2413
-10.2473
-10.2528
-10.2578
-10.2625
-10.2667
-10.2705
-10.2739
-10.2062
-10.2308
-10.2018
-10.1651
-10.1418
-10.1339
-10.1309
-10.1304
-10.1324
-10.1361
-10.1411
-10.1468
-10.1532
-10.1599
-10.1669
-10.174
-10.1811
-10.1881
-10.1951
-10.2019
-10.2085
-10.2149
-10.221
-10.2269
-10.2324
-10.2377
-10.2426
-10.2472
-10.2515
-10.2554
-10.259
-10.2622
-10.2651
-9.79053
-9.70875
-9.76583
-9.8467
-9.90323
-9.94194
-9.97555
-10.0049
-10.0302
-10.0524
-10.0721
-10.0898
-10.1059
-10.1206
-10.1342
-10.1467
-10.1583
-10.1692
-10.1794
-10.1888
-10.1977
-10.206
-10.2137
-10.2209
-10.2276
-10.2338
-10.2396
-10.2448
-10.2496
-10.2539
-10.2577
-10.2611
-10.264
-10.7672
-10.4891
-10.2834
-10.1924
-10.1554
-10.1348
-10.1222
-10.1169
-10.1164
-10.1188
-10.1231
-10.1288
-10.1353
-10.1424
-10.1497
-10.1572
-10.1648
-10.1722
-10.1796
-10.1867
-10.1936
-10.2003
-10.2067
-10.2127
-10.2185
-10.2238
-10.2289
-10.2335
-10.2378
-10.2417
-10.2453
-10.2485
-10.2512
-8.80915
-9.37076
-9.67551
-9.79164
-9.87337
-9.93696
-9.98224
-10.0165
-10.0441
-10.0669
-10.0861
-10.1028
-10.1176
-10.1309
-10.1431
-10.1543
-10.1647
-10.1745
-10.1835
-10.192
-10.2
-10.2075
-10.2144
-10.2209
-10.2269
-10.2324
-10.2376
-10.2422
-10.2464
-10.2502
-10.2536
-10.2565
-10.259
-9.92414
-10.4347
-10.5089
-10.576
-10.6865
-10.7653
-10.823
-10.8713
-10.9155
-10.9585
-11.0026
-11.0488
-11.0973
-11.1475
-11.1984
-11.2492
-11.299
-11.3471
-11.3927
-11.4353
-11.4744
-11.5094
-11.5399
-11.5653
-11.5851
-11.5988
-11.6056
-11.6049
-11.5959
-11.5778
-11.5497
-11.5105
-11.4592
-11.395
-11.3171
-11.2248
-11.1178
-10.9958
-10.8587
-10.7064
-10.5391
-10.3567
-10.1592
-9.94685
-9.7197
-9.47805
-9.22239
-8.95335
-8.67178
-8.37866
-8.07515
-7.7625
-7.44206
-7.11526
-6.78364
-6.44877
-6.11229
-5.77587
-5.44115
-5.10976
-4.78328
-4.46317
-4.15083
-3.84749
-3.55428
-3.27217
-3.00196
-2.74431
-2.49971
-2.26853
-2.05098
-1.84713
-1.65694
-1.48027
-1.31686
-1.16637
-1.02841
-0.902509
-0.788161
-0.684827
-0.591948
-0.508948
-0.43525
-0.370272
-0.313444
-0.264183
-0.221944
-0.186115
-0.156214
-0.131484
-0.111656
-0.095442
-0.0834056
-0.0723836
-0.0661363
-0.0549093
-0.0541955
-0.0313463
-0.0429329
0.0196649
-10.7085
-10.9466
-10.8615
-10.8095
-10.7923
-10.7946
-10.8061
-10.8281
-10.8599
-10.9002
-10.9472
-10.9988
-11.053
-11.108
-11.1624
-11.2152
-11.2656
-11.3133
-11.3579
-11.3991
-11.4367
-11.4702
-11.4993
-11.5233
-11.5419
-11.5543
-11.5599
-11.558
-11.5478
-11.5286
-11.4994
-11.4593
-11.4072
-11.3424
-11.2641
-11.1716
-11.0646
-10.9427
-10.806
-10.6544
-10.488
-10.3068
-10.1108
-9.90009
-9.67491
-9.43552
-9.18237
-8.9161
-8.63753
-8.34765
-8.04757
-7.73851
-7.42179
-7.09881
-6.77105
-6.44006
-6.10742
-5.77475
-5.44366
-5.11573
-4.79251
-4.47544
-4.16587
-3.86505
-3.57408
-3.29391
-3.02536
-2.76908
-2.52558
-2.29522
-2.07822
-1.87468
-1.68456
-1.50774
-1.34397
-1.19295
-1.05428
-0.927527
-0.812203
-0.707787
-0.613735
-0.529492
-0.454498
-0.388185
-0.329998
-0.27937
-0.235768
-0.198593
-0.167368
-0.14136
-0.12028
-0.102899
-0.0896791
-0.077677
-0.0702219
-0.0584378
-0.0560608
-0.0340615
-0.0415904
0.0141932
-10.4014
-10.5003
-10.5405
-10.5896
-10.6572
-10.72
-10.7705
-10.8144
-10.8555
-10.8961
-10.9376
-10.9813
-11.0271
-11.0747
-11.1234
-11.1724
-11.2208
-11.2677
-11.3123
-11.3539
-11.3917
-11.4253
-11.4541
-11.4776
-11.4952
-11.5064
-11.5107
-11.5075
-11.496
-11.4755
-11.4451
-11.4039
-11.3511
-11.2856
-11.2069
-11.1142
-11.0073
-10.8858
-10.7496
-10.5989
-10.4335
-10.2536
-10.0592
-9.85043
-9.62743
-9.39049
-9.14007
-8.87677
-8.60142
-8.31495
-8.01846
-7.71313
-7.40025
-7.08118
-6.75735
-6.43028
-6.1015
-5.77261
-5.44516
-5.12073
-4.8008
-4.48683
-4.18013
-3.88192
-3.5933
-3.31521
-3.04846
-2.79369
-2.55142
-2.32201
-2.10568
-1.90255
-1.71261
-1.53572
-1.37167
-1.22018
-1.08087
-0.953321
-0.837063
-0.731596
-0.636396
-0.550924
-0.474635
-0.406978
-0.347413
-0.295386
-0.250375
-0.2118
-0.179187
-0.151828
-0.129415
-0.110785
-0.0962928
-0.0832259
-0.0744732
-0.0620604
-0.0579347
-0.0367476
-0.040159
0.0088421
-10.506
-10.6538
-10.7125
-10.7317
-10.7554
-10.7792
-10.8009
-10.8251
-10.8539
-10.8875
-10.9256
-10.9676
-11.0122
-11.0583
-11.1047
-11.1504
-11.1948
-11.2372
-11.2772
-11.3144
-11.3484
-11.3787
-11.4048
-11.4261
-11.442
-11.4519
-11.455
-11.4506
-11.4381
-11.4167
-11.3854
-11.3434
-11.2898
-11.2239
-11.1449
-11.0523
-10.9456
-10.8246
-10.6892
-10.5394
-10.3753
-10.1969
-10.0042
-9.79747
-9.57676
-9.34239
-9.09478
-8.83456
-8.56248
-8.27949
-7.98664
-7.68508
-7.37607
-7.06094
-6.7411
-6.41801
-6.0932
-5.76819
-5.44454
-5.12377
-4.80734
-4.49667
-4.19304
-3.89766
-3.6116
-3.33579
-3.07102
-2.81793
-2.57704
-2.34871
-2.13319
-1.93059
-1.7409
-1.56403
-1.39978
-1.24788
-1.10798
-0.979684
-0.862534
-0.756055
-0.659739
-0.573064
-0.4955
-0.426511
-0.365569
-0.312134
-0.265695
-0.225686
-0.191638
-0.16287
-0.139055
-0.119099
-0.103252
-0.089036
-0.0789
-0.0657775
-0.0598321
-0.0393835
-0.038694
0.00370389
-10.4882
-10.5656
-10.6031
-10.631
-10.6704
-10.7124
-10.7516
-10.7895
-10.8277
-10.8666
-10.9068
-10.9484
-10.9909
-11.0341
-11.0776
-11.1206
-11.1627
-11.2031
-11.2413
-11.2768
-11.3089
-11.337
-11.3608
-11.3795
-11.3928
-11.3999
-11.4004
-11.3937
-11.3789
-11.3554
-11.3224
-11.279
-11.2243
-11.1576
-11.0782
-10.9855
-10.879
-10.7586
-10.624
-10.4753
-10.3125
-10.1357
-9.94484
-9.74016
-9.52179
-9.29003
-9.0453
-8.78822
-8.51952
-8.24012
-7.95103
-7.6534
-7.34844
-7.03745
-6.7218
-6.40294
-6.08232
-5.76147
-5.44188
-5.12503
-4.81236
-4.50524
-4.20493
-3.9126
-3.6293
-3.35595
-3.09332
-2.84205
-2.60267
-2.37553
-2.16089
-1.95887
-1.76951
-1.59271
-1.42829
-1.27602
-1.13555
-1.00653
-0.888505
-0.781031
-0.683617
-0.595757
-0.516935
-0.44663
-0.384323
-0.329486
-0.281616
-0.240161
-0.204655
-0.17444
-0.149175
-0.12783
-0.110559
-0.0951162
-0.0835185
-0.0696059
-0.0617792
-0.0419814
-0.0372537
-0.00116581
-10.4972
-10.5679
-10.6202
-10.6577
-10.6941
-10.7287
-10.7604
-10.7915
-10.8238
-10.8581
-10.8937
-10.9319
-10.9715
-11.012
-11.0528
-11.093
-11.1322
-11.1696
-11.2047
-11.2371
-11.2661
-11.2915
-11.3126
-11.3289
-11.3398
-11.3449
-11.3433
-11.3346
-11.3179
-11.2926
-11.2579
-11.2129
-11.1569
-11.0892
-11.009
-10.9159
-10.8095
-10.6893
-10.5554
-10.4077
-10.2462
-10.0709
-9.88184
-9.67923
-9.46323
-9.23414
-8.99238
-8.73854
-8.47336
-8.19769
-7.91256
-7.61904
-7.31833
-7.0117
-6.70049
-6.38608
-6.06992
-5.75346
-5.43817
-5.12548
-4.81679
-4.51341
-4.21659
-3.92746
-3.64705
-3.37626
-3.11585
-2.86648
-2.62864
-2.40273
-2.189
-1.9876
-1.79857
-1.62184
-1.45727
-1.30462
-1.1636
-1.03384
-0.914946
-0.806476
-0.707962
-0.618915
-0.538836
-0.467216
-0.403547
-0.347313
-0.298015
-0.255113
-0.21814
-0.186462
-0.159717
-0.136944
-0.118195
-0.101462
-0.0883364
-0.0735578
-0.063799
-0.044552
-0.0358926
-0.00570765
-10.4987
-10.5535
-10.5977
-10.6317
-10.6659
-10.7008
-10.7346
-10.7681
-10.8022
-10.8371
-10.8737
-10.9109
-10.9489
-10.9873
-11.0256
-11.0633
-11.0998
-11.1345
-11.1671
-11.1969
-11.2234
-11.2462
-11.2648
-11.2785
-11.2869
-11.2894
-11.2853
-11.2742
-11.2553
-11.2278
-11.1912
-11.1446
-11.0872
-11.0184
-10.9375
-10.844
-10.7376
-10.6178
-10.4845
-10.3378
-10.1775
-10.0038
-9.81658
-9.61611
-9.40256
-9.17622
-8.93753
-8.68705
-8.42551
-8.15375
-7.87272
-7.58351
-7.28725
-6.98519
-6.6786
-6.36885
-6.05732
-5.74542
-5.43456
-5.12614
-4.8215
-4.52194
-4.22865
-3.94275
-3.66525
-3.39703
-3.13885
-2.89136
-2.65508
-2.43039
-2.21757
-2.01678
-1.82808
-1.65143
-1.4867
-1.33367
-1.19208
-1.06159
-0.941823
-0.832351
-0.732729
-0.642487
-0.561141
-0.488196
-0.423158
-0.365518
-0.314787
-0.270432
-0.231988
-0.198837
-0.170598
-0.146373
-0.126115
-0.108049
-0.0933462
-0.0776375
-0.0659113
-0.0471082
-0.0346628
-0.00987514
-10.4991
-10.5457
-10.5878
-10.6236
-10.6583
-10.6924
-10.7251
-10.7572
-10.7895
-10.8225
-10.8565
-10.8913
-10.9269
-10.9628
-10.9985
-11.0336
-11.0674
-11.0995
-11.1293
-11.1564
-11.1802
-11.2004
-11.2163
-11.2274
-11.2333
-11.2333
-11.2269
-11.2135
-11.1924
-11.1629
-11.1244
-11.0761
-11.0173
-10.9474
-10.8657
-10.7718
-10.6652
-10.5457
-10.4131
-10.2673
-10.1082
-9.93606
-9.75077
-9.55251
-9.34148
-9.11798
-8.88246
-8.63546
-8.37767
-8.10991
-7.83312
-7.5483
-7.25658
-6.95914
-6.65724
-6.35217
-6.04529
-5.73795
-5.43152
-5.12735
-4.82675
-4.53096
-4.24118
-3.95849
-3.68386
-3.41819
-3.16223
-2.91661
-2.68187
-2.4584
-2.24648
-2.04631
-1.85794
-1.68137
-1.51648
-1.36308
-1.22093
-1.08971
-0.969062
-0.858586
-0.757853
-0.666411
-0.583791
-0.509513
-0.443093
-0.384037
-0.331859
-0.286041
-0.246113
-0.21148
-0.181734
-0.156043
-0.134256
-0.114829
-0.0985206
-0.0818332
-0.0681246
-0.0496597
-0.0336055
-0.0136407
-10.498
-10.5382
-10.5767
-10.611
-10.644
-10.6766
-10.7083
-10.7397
-10.7713
-10.8035
-10.8363
-10.8696
-10.9032
-10.937
-10.9703
-11.0029
-11.0342
-11.0637
-11.0909
-11.1154
-11.1366
-11.1542
-11.1676
-11.1762
-11.1797
-11.1773
-11.1686
-11.1529
-11.1296
-11.0982
-11.0578
-11.0079
-10.9477
-10.8767
-10.7943
-10.6999
-10.5933
-10.474
-10.3421
-10.1973
-10.0396
-9.86898
-9.68561
-9.48959
-9.28111
-9.0605
-8.82817
-8.58466
-8.33063
-8.06688
-7.79429
-7.51386
-7.22664
-6.9338
-6.63654
-6.33611
-6.03382
-5.73099
-5.42893
-5.12896
-4.83235
-4.54031
-4.254
-3.97447
-3.70271
-3.43956
-3.1858
-2.94205
-2.70885
-2.4866
-2.27559
-2.07604
-1.88801
-1.71153
-1.54649
-1.39273
-1.25003
-1.11809
-0.99657
-0.885096
-0.783255
-0.690613
-0.606718
-0.531102
-0.463295
-0.402813
-0.349178
-0.301883
-0.260458
-0.224327
-0.193062
-0.165889
-0.142558
-0.121751
-0.103822
-0.0861213
-0.0704352
-0.052208
-0.0327448
-0.017
-10.4956
-10.5313
-10.5667
-10.5997
-10.6316
-10.6631
-10.694
-10.7244
-10.7548
-10.7855
-10.8166
-10.8479
-10.8795
-10.9109
-10.9419
-10.9719
-11.0006
-11.0276
-11.0522
-11.0741
-11.0928
-11.1078
-11.1187
-11.1249
-11.1259
-11.1212
-11.1102
-11.0923
-11.067
-11.0336
-10.9915
-10.9401
-10.8786
-10.8066
-10.7234
-10.6287
-10.522
-10.4032
-10.2719
-10.128
-9.97162
-9.80267
-9.62124
-9.42747
-9.22157
-9.00383
-8.77468
-8.53464
-8.28435
-8.02457
-7.75615
-7.48005
-7.19729
-6.90899
-6.61631
-6.32047
-6.02272
-5.72434
-5.4266
-5.13079
-4.83812
-4.54979
-4.26692
-3.99054
-3.72162
-3.461
-3.20943
-2.96755
-2.73589
-2.51486
-2.30479
-2.10586
-1.91819
-1.74181
-1.57664
-1.42253
-1.27929
-1.14664
-1.02426
-0.911801
-0.80886
-0.715023
-0.629855
-0.552902
-0.483705
-0.421792
-0.366692
-0.317911
-0.274977
-0.237335
-0.204536
-0.175868
-0.150981
-0.128778
-0.109219
-0.0904787
-0.0728357
-0.0547511
-0.0320873
-0.0199746
-10.4922
-10.5244
-10.557
-10.5883
-10.6188
-10.6489
-10.6784
-10.7077
-10.7369
-10.7662
-10.7957
-10.8253
-10.8549
-10.8841
-10.9128
-10.9405
-10.9667
-10.9911
-11.0132
-11.0326
-11.0488
-11.0613
-11.0697
-11.0734
-11.0721
-11.0651
-11.0519
-11.0319
-11.0046
-10.9693
-10.9256
-10.8726
-10.81
-10.737
-10.6532
-10.5581
-10.4515
-10.3329
-10.2023
-10.0595
-9.9044
-9.73708
-9.55759
-9.36607
-9.16273
-8.94786
-8.72187
-8.48527
-8.23867
-7.98282
-7.71852
-7.4467
-7.16835
-6.88453
-6.59639
-6.30507
-6.01181
-5.71784
-5.42439
-5.13269
-4.84393
-4.55928
-4.27983
-4.00659
-3.74049
-3.48239
-3.23302
-2.99302
-2.76291
-2.54312
-2.33398
-2.1357
-1.94841
-1.77214
-1.60686
-1.45242
-1.30866
-1.17531
-1.05208
-0.938642
-0.834608
-0.739583
-0.653146
-0.574857
-0.504271
-0.440924
-0.384356
-0.334082
-0.289631
-0.250469
-0.216126
-0.185949
-0.159496
-0.135883
-0.114694
-0.0948906
-0.0753225
-0.0572888
-0.0316282
-0.0226097
-10.488
-10.5174
-10.5475
-10.577
-10.606
-10.6347
-10.663
-10.691
-10.7189
-10.7467
-10.7746
-10.8023
-10.8299
-10.857
-10.8834
-10.9087
-10.9325
-10.9544
-10.974
-10.9909
-11.0046
-11.0147
-11.0206
-11.022
-11.0183
-11.009
-10.9937
-10.9716
-10.9424
-10.9054
-10.86
-10.8056
-10.7418
-10.6679
-10.5835
-10.4882
-10.3815
-10.2634
-10.1334
-9.99158
-9.83781
-9.67212
-9.49457
-9.30529
-9.10449
-8.89247
-8.66961
-8.43642
-8.19349
-7.94151
-7.68129
-7.4137
-7.1397
-6.86033
-6.57666
-6.28983
-6.00101
-5.7114
-5.42219
-5.13457
-4.8497
-4.56871
-4.29265
-4.02254
-3.75927
-3.50369
-3.25651
-3.01839
-2.78985
-2.57132
-2.36312
-2.16551
-1.97861
-1.80248
-1.63709
-1.48235
-1.33807
-1.20404
-1.07998
-0.965572
-0.860455
-0.764248
-0.676546
-0.596925
-0.524949
-0.460169
-0.40213
-0.350359
-0.304386
-0.263697
-0.227802
-0.19611
-0.168084
-0.143052
-0.120234
-0.0993491
-0.0778945
-0.0598241
-0.0313551
-0.0249642
-10.483
-10.5101
-10.538
-10.5657
-10.5932
-10.6204
-10.6473
-10.6739
-10.7004
-10.7267
-10.7529
-10.7788
-10.8044
-10.8295
-10.8536
-10.8766
-10.898
-10.9175
-10.9347
-10.9491
-10.9604
-10.968
-10.9716
-10.9706
-10.9647
-10.9532
-10.9357
-10.9116
-10.8805
-10.8417
-10.7948
-10.7391
-10.6741
-10.5994
-10.5144
-10.4188
-10.3122
-10.1944
-10.0651
-9.92429
-9.77184
-9.60777
-9.43214
-9.24509
-9.04682
-8.83762
-8.61787
-8.38805
-8.14873
-7.90059
-7.6444
-7.381
-7.1113
-6.83632
-6.55708
-6.27468
-5.99027
-5.70497
-5.41996
-5.13639
-4.85538
-4.57802
-4.30535
-4.03834
-3.7779
-3.52483
-3.27986
-3.04363
-2.81666
-2.5994
-2.39217
-2.19524
-2.00875
-1.83278
-1.66731
-1.51227
-1.3675
-1.2328
-1.10792
-0.992553
-0.886362
-0.78898
-0.700019
-0.619069
-0.545706
-0.479492
-0.41998
-0.36671
-0.319212
-0.276991
-0.239541
-0.206327
-0.176726
-0.150269
-0.12583
-0.103848
-0.080549
-0.0623594
-0.0312486
-0.0270974
-10.4773
-10.5025
-10.5284
-10.5543
-10.5802
-10.6059
-10.6314
-10.6566
-10.6816
-10.7063
-10.7309
-10.755
-10.7787
-10.8016
-10.8236
-10.8443
-10.8634
-10.8805
-10.8953
-10.9073
-10.9162
-10.9214
-10.9227
-10.9194
-10.9112
-10.8975
-10.878
-10.8519
-10.819
-10.7785
-10.73
-10.673
-10.607
-10.5314
-10.4459
-10.3501
-10.2435
-10.1261
-9.99748
-9.85765
-9.7065
-9.54403
-9.37031
-9.18547
-8.9897
-8.7833
-8.56662
-8.34013
-8.10439
-7.86005
-7.60783
-7.34856
-7.08313
-6.81247
-6.53762
-6.25961
-5.97954
-5.69853
-5.41768
-5.13812
-4.86094
-4.58719
-4.31788
-4.05398
-3.79634
-3.54579
-3.30303
-3.06869
-2.84331
-2.62732
-2.42108
-2.22485
-2.03879
-1.86299
-1.69746
-1.54214
-1.3969
-1.26155
-1.13586
-1.01955
-0.912291
-0.813744
-0.723531
-0.641256
-0.566508
-0.498861
-0.437877
-0.383106
-0.334081
-0.290326
-0.251319
-0.216581
-0.185407
-0.157521
-0.131471
-0.10838
-0.0832803
-0.0648959
-0.0312858
-0.0290608
-10.4711
-10.4944
-10.5185
-10.5428
-10.5671
-10.5913
-10.6153
-10.639
-10.6625
-10.6857
-10.7085
-10.7308
-10.7525
-10.7734
-10.7933
-10.8118
-10.8286
-10.8434
-10.8558
-10.8655
-10.872
-10.8749
-10.8739
-10.8683
-10.8579
-10.8422
-10.8206
-10.7926
-10.7579
-10.7158
-10.6658
-10.6076
-10.5405
-10.4641
-10.3781
-10.282
-10.1755
-10.0584
-9.93054
-9.79168
-9.64182
-9.48095
-9.30912
-9.12646
-8.93317
-8.72953
-8.51589
-8.29269
-8.06048
-7.81988
-7.5716
-7.3164
-7.05517
-6.7888
-6.51827
-6.24459
-5.96883
-5.69204
-5.41532
-5.13974
-4.86635
-4.59618
-4.33023
-4.0694
-3.81457
-3.56653
-3.32598
-3.09354
-2.86975
-2.65506
-2.44982
-2.2543
-2.06868
-1.89307
-1.7275
-1.57192
-1.42622
-1.29024
-1.16376
-1.04652
-0.938208
-0.838505
-0.747047
-0.663453
-0.587325
-0.518248
-0.455792
-0.399521
-0.348968
-0.303679
-0.263114
-0.226852
-0.194108
-0.164794
-0.137146
-0.112936
-0.0860794
-0.0674331
-0.0314433
-0.0308958
-10.4642
-10.486
-10.5084
-10.5311
-10.5538
-10.5765
-10.599
-10.6212
-10.6431
-10.6647
-10.6858
-10.7064
-10.7262
-10.7451
-10.7628
-10.7791
-10.7937
-10.8063
-10.8164
-10.8238
-10.828
-10.8286
-10.8253
-10.8176
-10.805
-10.7872
-10.7636
-10.7338
-10.6973
-10.6536
-10.6022
-10.5427
-10.4746
-10.3975
-10.311
-10.2147
-10.1083
-9.99157
-9.86433
-9.72645
-9.57787
-9.41856
-9.2486
-9.0681
-8.87726
-8.67634
-8.4657
-8.24575
-8.01703
-7.78012
-7.5357
-7.28453
-7.02744
-6.76529
-6.49903
-6.22964
-5.95812
-5.68552
-5.41288
-5.14123
-4.8716
-4.60499
-4.34235
-4.0846
-3.83256
-3.58702
-3.34867
-3.11814
-2.89595
-2.68256
-2.47833
-2.28354
-2.09839
-1.92299
-1.7574
-1.60157
-1.45544
-1.31884
-1.19158
-1.07342
-0.964073
-0.863224
-0.770531
-0.685626
-0.608123
-0.53762
-0.473696
-0.415926
-0.363847
-0.317025
-0.274905
-0.237121
-0.202812
-0.172073
-0.142842
-0.117509
-0.0889353
-0.06997
-0.0317003
-0.0326354
-10.4568
-10.4771
-10.498
-10.5191
-10.5404
-10.5615
-10.5825
-10.6032
-10.6236
-10.6435
-10.6629
-10.6817
-10.6996
-10.7165
-10.7322
-10.7464
-10.7588
-10.7692
-10.777
-10.7821
-10.7841
-10.7825
-10.777
-10.7671
-10.7524
-10.7326
-10.7071
-10.6754
-10.6372
-10.592
-10.5393
-10.4786
-10.4096
-10.3317
-10.2447
-10.1482
-10.0419
-9.92552
-9.79895
-9.66203
-9.5147
-9.35694
-9.18882
-9.01046
-8.82203
-8.6238
-8.4161
-8.19936
-7.97406
-7.74078
-7.50018
-7.25298
-6.99996
-6.74198
-6.47993
-6.21476
-5.94744
-5.67896
-5.41035
-5.14259
-4.87668
-4.61359
-4.35425
-4.09954
-3.85028
-3.60723
-3.37108
-3.14245
-2.92187
-2.70979
-2.50659
-2.31254
-2.12787
-1.9527
-1.78709
-1.63105
-1.48449
-1.34729
-1.21928
-1.10022
-0.989844
-0.887864
-0.793946
-0.707739
-0.628869
-0.556946
-0.491559
-0.432294
-0.378693
-0.33034
-0.286669
-0.247366
-0.2115
-0.179341
-0.148545
-0.122085
-0.0918348
-0.0725052
-0.0320377
-0.0343056
-10.4489
-10.4678
-10.4873
-10.5069
-10.5267
-10.5463
-10.5658
-10.585
-10.6038
-10.6221
-10.6398
-10.6568
-10.6729
-10.6879
-10.7016
-10.7137
-10.724
-10.7321
-10.7378
-10.7407
-10.7405
-10.7367
-10.729
-10.717
-10.7003
-10.6785
-10.6511
-10.6177
-10.5779
-10.5311
-10.4771
-10.4153
-10.3453
-10.2668
-10.1793
-10.0826
-9.97636
-9.86037
-9.73445
-9.59848
-9.45238
-9.29616
-9.12985
-8.95358
-8.76753
-8.57194
-8.36715
-8.15355
-7.93163
-7.70193
-7.46507
-7.22177
-6.97276
-6.71888
-6.46097
-6.19996
-5.93677
-5.67237
-5.40773
-5.14381
-4.88158
-4.62198
-4.3659
-4.1142
-3.8677
-3.62713
-3.39318
-3.16645
-2.94748
-2.73672
-2.53454
-2.34125
-2.15707
-1.98214
-1.81655
-1.6603
-1.51334
-1.37556
-1.24681
-1.12686
-1.01548
-0.91238
-0.817251
-0.729753
-0.649525
-0.576191
-0.509347
-0.448594
-0.393475
-0.343598
-0.298382
-0.257568
-0.220154
-0.186582
-0.154237
-0.126655
-0.0947629
-0.0750367
-0.0324379
-0.0359278
-10.4405
-10.4582
-10.4762
-10.4945
-10.5128
-10.531
-10.549
-10.5667
-10.5839
-10.6006
-10.6166
-10.6319
-10.6461
-10.6592
-10.6709
-10.681
-10.6892
-10.6952
-10.6988
-10.6996
-10.6972
-10.6913
-10.6815
-10.6675
-10.6488
-10.625
-10.5958
-10.5607
-10.5192
-10.4711
-10.4157
-10.3528
-10.2819
-10.2027
-10.1148
-10.018
-9.91182
-9.7962
-9.67093
-9.53589
-9.39101
-9.23628
-9.07176
-8.89755
-8.71383
-8.52084
-8.3189
-8.1084
-7.88978
-7.66359
-7.43042
-7.19094
-6.94588
-6.69602
-6.44219
-6.18526
-5.92614
-5.66575
-5.40502
-5.1449
-4.8863
-4.63014
-4.37728
-4.12858
-3.88481
-3.6467
-3.41493
-3.1901
-2.97273
-2.76329
-2.56215
-2.36963
-2.18595
-2.01128
-1.84572
-1.68928
-1.54194
-1.4036
-1.27411
-1.1533
-1.04093
-0.936728
-0.840402
-0.751627
-0.670053
-0.595317
-0.527026
-0.464793
-0.408165
-0.356771
-0.310019
-0.267701
-0.228752
-0.193777
-0.159902
-0.131205
-0.0977021
-0.0775617
-0.0328822
-0.0375207
-10.4317
-10.4482
-10.4649
-10.4818
-10.4987
-10.5155
-10.532
-10.5482
-10.5639
-10.579
-10.5933
-10.6068
-10.6193
-10.6305
-10.6403
-10.6484
-10.6546
-10.6586
-10.6601
-10.6587
-10.6542