/*--------------------------------*- C++ -*----------------------------------*\
  =========                 |
  \\      /  F ield         | OpenFOAM: The Open Source CFD Toolbox
   \\    /   O peration     | Website:  https://openfoam.org
    \\  /    A nd           | Version:  10
     \\/     M anipulation  |
\*---------------------------------------------------------------------------*/
FoamFile
{
    format      ascii;
    class       surfaceScalarField;
    location    "0.2";
    object      phi;
}
// * * * * * * * * * * * * * * * * * * * * * * * * * * * * * * * * * * * * * //

dimensions      [0 3 -1 0 0 0 0];

internalField   nonuniform List<scalar> 
13452
(
6.0577e-05
-3.08525e-07
6.03703e-05
2.06719e-07
5.98977e-05
4.72556e-07
5.92831e-05
6.1461e-07
5.86765e-05
6.06559e-07
5.81382e-05
5.38295e-07
5.76709e-05
4.67391e-07
5.72643e-05
4.06604e-07
5.69071e-05
3.57156e-07
5.65894e-05
3.17677e-07
5.63034e-05
2.8599e-07
5.60433e-05
2.60139e-07
5.58046e-05
2.38646e-07
5.55842e-05
2.20442e-07
5.53794e-05
2.04768e-07
5.51883e-05
1.91087e-07
5.50093e-05
1.79019e-07
5.4841e-05
1.68295e-07
5.46823e-05
1.58724e-07
5.45321e-05
1.50176e-07
5.43896e-05
1.42573e-07
5.42537e-05
1.35886e-07
5.41235e-05
1.30147e-07
5.39981e-05
1.25476e-07
5.38759e-05
1.22114e-07
5.37553e-05
1.20622e-07
5.36335e-05
1.21842e-07
5.35052e-05
1.28233e-07
5.33615e-05
1.43793e-07
5.31859e-05
1.75526e-07
5.29188e-05
2.67094e-07
5.253e-05
3.88837e-07
7.48918e-07
5.17811e-05
6.18026e-05
-1.20775e-07
6.17623e-05
2.47013e-07
6.18788e-05
3.56002e-07
6.20398e-05
4.53608e-07
6.21458e-05
5.00569e-07
6.21743e-05
5.09837e-07
6.21398e-05
5.01934e-07
6.2063e-05
4.83378e-07
6.19604e-05
4.59739e-07
6.18432e-05
4.34862e-07
6.17186e-05
4.10572e-07
6.15911e-05
3.87626e-07
6.14635e-05
3.66296e-07
6.13373e-05
3.46614e-07
6.12136e-05
3.28502e-07
6.10928e-05
3.11844e-07
6.09753e-05
2.9652e-07
6.08612e-05
2.82423e-07
6.07505e-05
2.69466e-07
6.06431e-05
2.57587e-07
6.05389e-05
2.46755e-07
6.04378e-05
2.36978e-07
6.03396e-05
2.28316e-07
6.02442e-05
2.20907e-07
6.01513e-05
2.15019e-07
6.00608e-05
2.11101e-07
5.99726e-05
2.10065e-07
5.98878e-05
2.1304e-07
5.98074e-05
2.24123e-07
5.97405e-05
2.42438e-07
5.97132e-05
2.94438e-07
5.97632e-05
3.38839e-07
5.08638e-07
6.00035e-05
6.36612e-05
-2.05347e-08
6.37525e-05
1.55667e-07
6.38141e-05
2.94375e-07
6.38664e-05
4.01348e-07
6.39088e-05
4.58144e-07
6.39397e-05
4.78924e-07
6.39593e-05
4.82373e-07
6.3966e-05
4.76714e-07
6.39601e-05
4.65568e-07
6.39435e-05
4.51495e-07
6.39181e-05
4.36016e-07
6.38857e-05
4.20006e-07
6.3848e-05
4.04004e-07
6.38062e-05
3.88337e-07
6.37615e-05
3.73195e-07
6.37147e-05
3.58686e-07
6.36664e-05
3.44875e-07
6.3617e-05
3.31801e-07
6.35669e-05
3.19499e-07
6.35165e-05
3.08005e-07
6.34659e-05
2.97373e-07
6.34152e-05
2.87689e-07
6.33644e-05
2.79087e-07
6.33136e-05
2.71778e-07
6.32625e-05
2.66113e-07
6.3211e-05
2.62593e-07
6.31588e-05
2.62235e-07
6.31059e-05
2.65958e-07
6.30525e-05
2.77537e-07
6.29991e-05
2.95758e-07
6.29557e-05
3.3793e-07
6.29149e-05
3.79624e-07
4.81209e-07
6.29423e-05
6.55758e-05
-1.33126e-08
6.55533e-05
1.78199e-07
6.55638e-05
2.83904e-07
6.56041e-05
3.61049e-07
6.56525e-05
4.09713e-07
6.56968e-05
4.34592e-07
6.57335e-05
4.45745e-07
6.57621e-05
4.48114e-07
6.57832e-05
4.44455e-07
6.57976e-05
4.37085e-07
6.58061e-05
4.27504e-07
6.58095e-05
4.16601e-07
6.58086e-05
4.04966e-07
6.58039e-05
3.92998e-07
6.57961e-05
3.80968e-07
6.57857e-05
3.69067e-07
6.57732e-05
3.57437e-07
6.57588e-05
3.46192e-07
6.57429e-05
3.35429e-07
6.57256e-05
3.25247e-07
6.57072e-05
3.15756e-07
6.56878e-05
3.07092e-07
6.56675e-05
2.99442e-07
6.56462e-05
2.9306e-07
6.5624e-05
2.88337e-07
6.56008e-05
2.85786e-07
6.55767e-05
2.86338e-07
6.55518e-05
2.90827e-07
6.55275e-05
3.01843e-07
6.55043e-05
3.18923e-07
6.54921e-05
3.50153e-07
6.54887e-05
3.83037e-07
4.34932e-07
6.5535e-05
6.74264e-05
1.70278e-08
6.74512e-05
1.53466e-07
6.74792e-05
2.55923e-07
6.75097e-05
3.30545e-07
6.75399e-05
3.79517e-07
6.7569e-05
4.05475e-07
6.75969e-05
4.17811e-07
6.7623e-05
4.2207e-07
6.76464e-05
4.20965e-07
6.76671e-05
4.1644e-07
6.76848e-05
4.09743e-07
6.76998e-05
4.01629e-07
6.77122e-05
3.92608e-07
6.77221e-05
3.83043e-07
6.77299e-05
3.73195e-07
6.77357e-05
3.63261e-07
6.77398e-05
3.53397e-07
6.77422e-05
3.43735e-07
6.77432e-05
3.34399e-07
6.7743e-05
3.25509e-07
6.77415e-05
3.17202e-07
6.7739e-05
3.09639e-07
6.77354e-05
3.03029e-07
6.77308e-05
2.97639e-07
6.77253e-05
2.93853e-07
6.77189e-05
2.92147e-07
6.7712e-05
2.93289e-07
6.77049e-05
2.97948e-07
6.7699e-05
3.0775e-07
6.76955e-05
3.22415e-07
6.77003e-05
3.4534e-07
6.77136e-05
3.69704e-07
3.99149e-07
6.77494e-05
6.93767e-05
2.43067e-08
6.93862e-05
1.44031e-07
6.94042e-05
2.37887e-07
6.943e-05
3.04793e-07
6.94592e-05
3.50262e-07
6.94882e-05
3.76527e-07
6.95156e-05
3.90394e-07
6.95412e-05
3.96478e-07
6.95649e-05
3.97239e-07
6.95869e-05
3.94498e-07
6.96071e-05
3.89499e-07
6.96257e-05
3.83011e-07
6.96428e-05
3.75543e-07
6.96584e-05
3.67455e-07
6.96726e-05
3.59004e-07
6.96854e-05
3.50384e-07
6.96971e-05
3.41753e-07
6.97076e-05
3.33246e-07
6.9717e-05
3.24992e-07
6.97254e-05
3.1712e-07
6.97328e-05
3.09773e-07
6.97393e-05
3.03118e-07
6.9745e-05
2.97361e-07
6.97499e-05
2.92759e-07
6.97541e-05
2.89655e-07
6.97578e-05
2.8845e-07
6.97613e-05
2.89721e-07
6.97653e-05
2.93938e-07
6.97711e-05
3.01985e-07
6.978e-05
3.13551e-07
6.97957e-05
3.29581e-07
6.98194e-05
3.46007e-07
3.61707e-07
6.98569e-05
7.13592e-05
3.13962e-08
7.13707e-05
1.32561e-07
7.13915e-05
2.17122e-07
7.1417e-05
2.79277e-07
7.14441e-05
3.23149e-07
7.14705e-05
3.50123e-07
7.14957e-05
3.65198e-07
7.15197e-05
3.72507e-07
7.15424e-05
3.74485e-07
7.1564e-05
3.72898e-07
7.15846e-05
3.68975e-07
7.16041e-05
3.63497e-07
7.16226e-05
3.56988e-07
7.16403e-05
3.49815e-07
7.1657e-05
3.42241e-07
7.1673e-05
3.34464e-07
7.16881e-05
3.26644e-07
7.17024e-05
3.18918e-07
7.1716e-05
3.11414e-07
7.17288e-05
3.04262e-07
7.1741e-05
2.97603e-07
7.17525e-05
2.91595e-07
7.17634e-05
2.8643e-07
7.17739e-05
2.82336e-07
7.17839e-05
2.79596e-07
7.17939e-05
2.7852e-07
7.18041e-05
2.79499e-07
7.18152e-05
2.8281e-07
7.18284e-05
2.88828e-07
7.18448e-05
2.97157e-07
7.18667e-05
3.07622e-07
7.18951e-05
3.17576e-07
3.24878e-07
7.1932e-05
7.34033e-05
3.34194e-08
7.34138e-05
1.2206e-07
7.34321e-05
1.9875e-07
7.34551e-05
2.5632e-07
7.34804e-05
2.97824e-07
7.35059e-05
3.24627e-07
7.35306e-05
3.40467e-07
7.35543e-05
3.48824e-07
7.35769e-05
3.5191e-07
7.35984e-05
3.51355e-07
7.36191e-05
3.48342e-07
7.36389e-05
3.43668e-07
7.3658e-05
3.37878e-07
7.36765e-05
3.3136e-07
7.36943e-05
3.24394e-07
7.37116e-05
3.17191e-07
7.37283e-05
3.09918e-07
7.37445e-05
3.02716e-07
7.37602e-05
2.95715e-07
7.37754e-05
2.89042e-07
7.37902e-05
2.82832e-07
7.38046e-05
2.7723e-07
7.38186e-05
2.72405e-07
7.38324e-05
2.68545e-07
7.38461e-05
2.65867e-07
7.386e-05
2.6459e-07
7.38746e-05
2.64944e-07
7.38904e-05
2.67042e-07
7.39083e-05
2.70939e-07
7.39292e-05
2.76174e-07
7.39547e-05
2.82136e-07
7.39853e-05
2.86995e-07
2.88799e-07
7.40214e-05
7.55022e-05
3.36931e-08
7.5512e-05
1.12226e-07
7.55294e-05
1.81396e-07
7.55512e-05
2.34545e-07
7.55753e-05
2.73692e-07
7.55999e-05
3.00054e-07
7.56239e-05
3.1638e-07
7.56472e-05
3.25536e-07
7.56696e-05
3.29523e-07
7.56911e-05
3.29838e-07
7.57119e-05
3.2761e-07
7.57319e-05
3.23626e-07
7.57514e-05
3.18442e-07
7.57703e-05
3.12459e-07
7.57887e-05
3.05972e-07
7.58067e-05
2.99204e-07
7.58243e-05
2.92329e-07
7.58415e-05
2.85497e-07
7.58583e-05
2.78837e-07
7.58749e-05
2.72474e-07
7.58912e-05
2.66532e-07
7.59073e-05
2.61144e-07
7.59233e-05
2.56448e-07
7.59392e-05
2.52594e-07
7.59553e-05
2.49733e-07
7.59719e-05
2.48001e-07
7.59894e-05
2.47503e-07
7.60082e-05
2.48227e-07
7.60291e-05
2.50045e-07
7.60528e-05
2.52475e-07
7.60801e-05
2.5481e-07
7.61114e-05
2.55738e-07
2.5378e-07
7.61464e-05
7.76607e-05
3.26165e-08
7.76701e-05
1.02826e-07
7.76862e-05
1.65228e-07
7.77065e-05
2.14223e-07
7.77293e-05
2.50945e-07
7.77529e-05
2.76472e-07
7.77764e-05
2.92886e-07
7.77994e-05
3.0254e-07
7.78217e-05
3.07206e-07
7.78433e-05
3.08243e-07
7.78642e-05
3.06695e-07
7.78845e-05
3.03325e-07
7.79043e-05
2.98683e-07
7.79235e-05
2.93173e-07
7.79424e-05
2.87101e-07
7.79609e-05
2.80696e-07
7.79791e-05
2.74142e-07
7.7997e-05
2.67591e-07
7.80147e-05
2.61172e-07
7.80321e-05
2.55006e-07
7.80495e-05
2.49208e-07
7.80667e-05
2.43892e-07
7.8084e-05
2.39169e-07
7.81014e-05
2.35149e-07
7.81192e-05
2.31928e-07
7.81377e-05
2.29572e-07
7.81571e-05
2.28093e-07
7.81779e-05
2.27399e-07
7.82007e-05
2.27269e-07
7.82259e-05
2.27242e-07
7.82541e-05
2.26661e-07
7.82852e-05
2.24575e-07
2.19949e-07
7.83191e-05
7.98801e-05
3.08095e-08
7.9889e-05
9.39029e-08
7.99041e-05
1.50159e-07
7.99232e-05
1.95139e-07
7.99448e-05
2.29378e-07
7.99674e-05
2.53799e-07
7.99903e-05
2.70002e-07
8.0013e-05
2.79897e-07
8.00351e-05
2.85031e-07
8.00568e-05
2.86622e-07
8.00778e-05
2.85632e-07
8.00984e-05
2.82783e-07
8.01184e-05
2.78612e-07
8.01381e-05
2.7352e-07
8.01574e-05
2.67813e-07
8.01764e-05
2.61724e-07
8.01951e-05
2.55439e-07
8.02135e-05
2.49111e-07
8.02318e-05
2.42867e-07
8.025e-05
2.36823e-07
8.02681e-05
2.31081e-07
8.02863e-05
2.25737e-07
8.03046e-05
2.20877e-07
8.03232e-05
2.16574e-07
8.03422e-05
2.12879e-07
8.0362e-05
2.09803e-07
8.03828e-05
2.073e-07
8.0405e-05
2.0523e-07
8.04289e-05
2.03338e-07
8.04549e-05
2.01212e-07
8.04833e-05
1.98298e-07
8.05139e-05
1.93905e-07
1.87345e-07
8.05465e-05
8.21626e-05
2.86077e-08
8.21711e-05
8.54039e-08
8.21852e-05
1.36064e-07
8.22032e-05
1.77188e-07
8.22236e-05
2.08926e-07
8.22454e-05
2.32033e-07
8.22677e-05
2.47759e-07
8.22899e-05
2.57648e-07
8.23119e-05
2.63038e-07
8.23335e-05
2.65015e-07
8.23547e-05
2.64453e-07
8.23754e-05
2.62029e-07
8.23958e-05
2.58254e-07
8.24158e-05
2.53521e-07
8.24355e-05
2.48129e-07
8.24549e-05
2.42311e-07
8.24741e-05
2.36252e-07
8.24931e-05
2.30101e-07
8.2512e-05
2.23983e-07
8.25308e-05
2.18003e-07
8.25496e-05
2.12253e-07
8.25685e-05
2.06811e-07
8.25877e-05
2.01738e-07
8.26072e-05
1.9708e-07
8.26272e-05
1.92849e-07
8.2648e-05
1.89021e-07
8.26698e-05
1.85512e-07
8.26928e-05
1.82162e-07
8.27175e-05
1.78722e-07
8.27438e-05
1.74838e-07
8.27721e-05
1.70068e-07
8.28021e-05
1.63915e-07
1.55935e-07
8.28335e-05
8.45102e-05
2.62267e-08
8.45182e-05
7.73156e-08
8.45315e-05
1.22848e-07
8.45484e-05
1.6026e-07
8.45678e-05
1.89484e-07
8.45887e-05
2.11115e-07
8.46104e-05
2.2614e-07
8.46322e-05
2.35808e-07
8.4654e-05
2.41266e-07
8.46755e-05
2.43469e-07
8.46968e-05
2.43208e-07
8.47177e-05
2.41106e-07
8.47383e-05
2.37648e-07
8.47586e-05
2.33208e-07
8.47787e-05
2.28077e-07
8.47985e-05
2.22484e-07
8.48181e-05
2.16607e-07
8.48376e-05
2.10592e-07
8.48571e-05
2.04556e-07
8.48765e-05
1.98595e-07
8.48959e-05
1.92789e-07
8.49156e-05
1.87198e-07
8.49354e-05
1.81866e-07
8.49557e-05
1.76811e-07
8.49765e-05
1.72024e-07
8.49981e-05
1.67453e-07
8.50206e-05
1.62999e-07
8.50443e-05
1.58501e-07
8.50693e-05
1.53732e-07
8.50957e-05
1.484e-07
8.51236e-05
1.42166e-07
8.51528e-05
1.34677e-07
1.25652e-07
8.51831e-05
8.69246e-05
2.37947e-08
8.69323e-05
6.96171e-08
8.69447e-05
1.1041e-07
8.69607e-05
1.4425e-07
8.69793e-05
1.70958e-07
8.69994e-05
1.9099e-07
8.70204e-05
2.05129e-07
8.70418e-05
2.14387e-07
8.70634e-05
2.19736e-07
8.70848e-05
2.22016e-07
8.71061e-05
2.2193e-07
8.71271e-05
2.20049e-07
8.7148e-05
2.16825e-07
8.71686e-05
2.12612e-07
8.71889e-05
2.07688e-07
8.72092e-05
2.02272e-07
8.72292e-05
1.96535e-07
8.72492e-05
1.90615e-07
8.72691e-05
1.84623e-07
8.72891e-05
1.78643e-07
8.73091e-05
1.72744e-07
8.73294e-05
1.66972e-07
8.73499e-05
1.61353e-07
8.73708e-05
1.55889e-07
8.73923e-05
1.50553e-07
8.74144e-05
1.45281e-07
8.74375e-05
1.39969e-07
8.74615e-05
1.34468e-07
8.74867e-05
1.28582e-07
8.7513e-05
1.22079e-07
8.75404e-05
1.14703e-07
8.75689e-05
1.06208e-07
9.6425e-08
8.75981e-05
8.94079e-05
2.13848e-08
8.94153e-05
6.22875e-08
8.9427e-05
9.86649e-08
8.94422e-05
1.29063e-07
8.94599e-05
1.5326e-07
8.94793e-05
1.71596e-07
8.94997e-05
1.84695e-07
8.95207e-05
1.93376e-07
8.9542e-05
1.9846e-07
8.95634e-05
2.00674e-07
8.95846e-05
2.00645e-07
8.96058e-05
1.98887e-07
8.96268e-05
1.95817e-07
8.96477e-05
1.91765e-07
8.96684e-05
1.86992e-07
8.96889e-05
1.81705e-07
8.97094e-05
1.76067e-07
8.97298e-05
1.70206e-07
8.97502e-05
1.64223e-07
8.97707e-05
1.58195e-07
8.97912e-05
1.52177e-07
8.9812e-05
1.46205e-07
8.9833e-05
1.4029e-07
8.98545e-05
1.34424e-07
8.98765e-05
1.28569e-07
8.98991e-05
1.22658e-07
8.99225e-05
1.16591e-07
8.99467e-05
1.10236e-07
8.99719e-05
1.03431e-07
8.9998e-05
9.59964e-08
9.00249e-05
8.77454e-08
9.00526e-05
7.85079e-08
6.81895e-08
9.00809e-05
9.19622e-05
1.90361e-08
9.19692e-05
5.5303e-08
9.19803e-05
8.75321e-08
9.19948e-05
1.14608e-07
9.20117e-05
1.36307e-07
9.20305e-05
1.52872e-07
9.20503e-05
1.64802e-07
9.2071e-05
1.72761e-07
9.2092e-05
1.77436e-07
9.21132e-05
1.79456e-07
9.21345e-05
1.79371e-07
9.21557e-05
1.77642e-07
9.21769e-05
1.74648e-07
9.2198e-05
1.70691e-07
9.22189e-05
1.66015e-07
9.22398e-05
1.60812e-07
9.22607e-05
1.55234e-07
9.22815e-05
1.494e-07
9.23023e-05
1.434e-07
9.23232e-05
1.37301e-07
9.23442e-05
1.31149e-07
9.23655e-05
1.24969e-07
9.2387e-05
1.18766e-07
9.24089e-05
1.12521e-07
9.24313e-05
1.06193e-07
9.24542e-05
9.97181e-08
9.24778e-05
9.30051e-08
9.25021e-05
8.59426e-08
9.25271e-05
7.84014e-08
9.25529e-05
7.02445e-08
9.25793e-05
6.13396e-08
9.26062e-05
5.15724e-08
4.08974e-08
9.26335e-05
9.45894e-05
1.67663e-08
9.45961e-05
4.86371e-08
9.46067e-05
7.69403e-08
9.46205e-05
1.00804e-07
9.46368e-05
1.20018e-07
9.46549e-05
1.34755e-07
9.46743e-05
1.45409e-07
9.46945e-05
1.52519e-07
9.47153e-05
1.56658e-07
9.47364e-05
1.58366e-07
9.47576e-05
1.5812e-07
9.4779e-05
1.5633e-07
9.48003e-05
1.53336e-07
9.48216e-05
1.49412e-07
9.48428e-05
1.44782e-07
9.4864e-05
1.39621e-07
9.48851e-05
1.3407e-07
9.49063e-05
1.28234e-07
9.49275e-05
1.22196e-07
9.49488e-05
1.16013e-07
9.49702e-05
1.09722e-07
9.49919e-05
1.03341e-07
9.50138e-05
9.68674e-08
9.5036e-05
9.02804e-08
9.50586e-05
8.35389e-08
9.50818e-05
7.65831e-08
9.51055e-05
6.93358e-08
9.51297e-05
6.17056e-08
9.51545e-05
5.35922e-08
9.51798e-05
4.48951e-08
9.52057e-05
3.55226e-08
9.52318e-05
2.54012e-08
1.45168e-08
9.52582e-05
9.72917e-05
1.45809e-08
9.72981e-05
4.22616e-08
9.73082e-05
6.68247e-08
9.73214e-05
8.75746e-08
9.73371e-05
1.04321e-07
9.73547e-05
1.17182e-07
9.73736e-05
1.26471e-07
9.73935e-05
1.32623e-07
9.74141e-05
1.36113e-07
9.7435e-05
1.374e-07
9.74563e-05
1.36897e-07
9.74776e-05
1.34963e-07
9.74991e-05
1.31897e-07
9.75205e-05
1.27949e-07
9.7542e-05
1.23316e-07
9.75635e-05
1.1816e-07
9.75849e-05
1.12605e-07
9.76064e-05
1.06747e-07
9.7628e-05
1.00656e-07
9.76496e-05
9.43839e-08
9.76713e-05
8.79587e-08
9.76933e-05
8.13924e-08
9.77155e-05
7.46793e-08
9.7738e-05
6.77972e-08
9.77608e-05
6.07083e-08
9.7784e-05
5.33604e-08
9.78077e-05
4.56895e-08
9.78317e-05
3.76235e-08
9.78562e-05
2.9087e-08
9.78811e-05
2.00085e-08
9.79063e-05
1.03272e-08
9.79317e-05
3.81072e-14
-1.09698e-08
9.79572e-05
0.000100071
1.2478e-08
0.000100077
3.61477e-08
0.000100087
5.71266e-08
0.0001001
7.48484e-08
0.000100115
8.91444e-08
0.000100132
1.00094e-07
0.000100151
1.07942e-07
0.00010017
1.1304e-07
0.00010019
1.15782e-07
0.000100211
1.16551e-07
0.000100232
1.15702e-07
0.000100254
1.13546e-07
0.000100275
1.10345e-07
0.000100297
1.06317e-07
0.000100319
1.0164e-07
0.00010034
9.64547e-08
0.000100362
9.08718e-08
0.000100384
8.49755e-08
0.000100406
7.88271e-08
0.000100428
7.24681e-08
0.00010045
6.59219e-08
0.000100472
5.91959e-08
0.000100494
5.22824e-08
0.000100517
4.51604e-08
0.00010054
3.77962e-08
0.000100563
3.01464e-08
0.000100587
2.216e-08
0.00010061
1.37817e-08
0.000100635
4.95731e-09
0.000100659
-4.36212e-09
0.000100684
-1.42142e-08
0.000100708
-2.46232e-08
-3.55675e-08
0.000100733
0.00010293
1.04521e-08
0.000102936
3.02662e-08
0.000102945
4.77921e-08
0.000102958
6.25604e-08
0.000102972
7.44229e-08
0.000102989
8.34307e-08
0.000103007
8.9774e-08
0.000103026
9.37369e-08
0.000103047
9.56395e-08
0.000103067
9.58044e-08
0.000103089
9.45308e-08
0.00010311
9.20829e-08
0.000103132
8.8687e-08
0.000103153
8.45324e-08
0.000103175
7.97728e-08
0.000103197
7.45308e-08
0.000103219
6.89022e-08
0.000103241
6.29591e-08
0.000103263
5.67532e-08
0.000103285
5.03184e-08
0.000103308
4.36728e-08
0.00010333
3.68206e-08
0.000103353
2.97535e-08
0.000103375
2.24523e-08
0.000103398
1.48887e-08
0.000103421
7.02768e-09
0.000103445
-1.17004e-09
0.000103468
-9.74486e-09
0.000103492
-1.87344e-08
0.000103516
-2.81699e-08
0.00010354
-3.8072e-08
0.000103563
-4.84505e-08
-5.92744e-08
0.000103587
0.000105871
8.49552e-09
0.000105876
2.45886e-08
0.000105885
3.87714e-08
0.000105897
5.06491e-08
0.000105912
6.00924e-08
0.000105928
6.71323e-08
0.000105946
7.19159e-08
0.000105965
7.46719e-08
0.000105985
7.56579e-08
0.000106005
7.51415e-08
0.000106027
7.3372e-08
0.000106048
7.05705e-08
0.00010607
6.6928e-08
0.000106092
6.26051e-08
0.000106114
5.77319e-08
0.000106136
5.24121e-08
0.000106158
4.67263e-08
0.00010618
4.07346e-08
0.000106203
3.44791e-08
0.000106225
2.79867e-08
0.000106247
2.12707e-08
0.00010627
1.43327e-08
0.000106292
7.16444e-09
0.000106315
-2.50396e-10
0.000106338
-7.93595e-09
0.000106361
-1.59183e-08
0.000106384
-2.42271e-08
0.000106407
-3.28904e-08
0.00010643
-4.19325e-08
0.000106454
-5.13713e-08
0.000106477
-6.12151e-08
0.0001065
-7.14637e-08
-8.20805e-08
0.000106523
0.000108895
6.59988e-09
0.000108901
1.90875e-08
0.00010891
3.00188e-08
0.000108921
3.90579e-08
0.000108935
4.60926e-08
0.000108951
5.11408e-08
0.000108969
5.43165e-08
0.000108988
5.58034e-08
0.000109007
5.58027e-08
0.000109028
5.45369e-08
0.000109049
5.22095e-08
0.000109071
4.90005e-08
0.000109093
4.50668e-08
0.000109115
4.05413e-08
0.000109137
3.55303e-08
0.000109159
3.01184e-08
0.000109182
2.43711e-08
0.000109204
1.8336e-08
0.000109226
1.20461e-08
0.000109249
5.52141e-09
0.000109271
-1.22942e-09
0.000109294
-8.20668e-09
0.000109316
-1.54187e-08
0.000109339
-2.28794e-08
0.000109362
-3.06074e-08
0.000109384
-3.86229e-08
0.000109407
-4.69464e-08
0.00010943
-5.55965e-08
0.000109453
-6.45873e-08
0.000109475
-7.39266e-08
0.000109498
-8.36141e-08
0.00010952
-9.36426e-08
-1.03973e-07
0.000109542
0.000112006
4.7565e-09
0.000112012
1.37363e-08
0.00011202
2.14904e-08
0.000112032
2.77304e-08
0.000112045
3.2361e-08
0.000112061
3.53938e-08
0.000112078
3.69171e-08
0.000112097
3.70819e-08
0.000112117
3.60339e-08
0.000112137
3.39608e-08
0.000112159
3.10221e-08
0.00011218
2.736e-08
0.000112202
2.30989e-08
0.000112224
1.8345e-08
0.000112247
1.31791e-08
0.000112269
7.66816e-09
0.000112292
1.86229e-09
0.000112314
-4.20401e-09
0.000112337
-1.05064e-08
0.000112359
-1.70318e-08
0.000112382
-2.37759e-08
0.000112405
-3.07411e-08
0.000112427
-3.79357e-08
0.00011245
-4.53715e-08
0.000112472
-5.30628e-08
0.000112494
-6.10247e-08
0.000112517
-6.92706e-08
0.000112539
-7.78117e-08
0.000112561
-8.66544e-08
0.000112583
-9.57993e-08
0.000112604
-1.0524e-07
0.000112626
-1.14965e-07
-1.24934e-07
0.000112647
0.000115206
2.95854e-09
0.000115211
8.51377e-09
0.00011522
1.31513e-08
0.000115231
1.66214e-08
0.000115244
1.88463e-08
0.00011526
1.98368e-08
0.000115277
1.96665e-08
0.000115296
1.84558e-08
0.000115316
1.62976e-08
0.000115336
1.33695e-08
0.000115357
9.77562e-09
0.000115379
5.62411e-09
0.000115401
1.00502e-09
0.000115424
-3.99391e-09
0.000115446
-9.3226e-09
0.000115469
-1.49311e-08
0.000115491
-2.07854e-08
0.000115514
-2.68624e-08
0.000115537
-3.31478e-08
0.000115559
-3.96354e-08
0.000115582
-4.63252e-08
0.000115604
-5.32221e-08
0.000115627
-6.03344e-08
0.000115649
-6.76726e-08
0.000115671
-7.5248e-08
0.000115693
-8.3071e-08
0.000115715
-9.11503e-08
0.000115737
-9.94912e-08
0.000115758
-1.08095e-07
0.000115779
-1.16957e-07
0.0001158
-1.26067e-07
0.000115821
-1.35411e-07
-1.44948e-07
0.000115841
0.000118498
1.19462e-09
0.000118503
3.38991e-09
0.000118511
4.95211e-09
0.000118522
5.66477e-09
0.000118535
5.47207e-09
0.000118551
4.3874e-09
0.000118568
2.47966e-09
0.000118586
-1.11808e-10
0.000118606
-3.44899e-09
0.000118627
-7.27362e-09
0.000118648
-1.15616e-08
0.00011867
-1.62299e-08
0.000118692
-2.12188e-08
0.000118715
-2.64771e-08
0.000118737
-3.19694e-08
0.00011876
-3.76673e-08
0.000118783
-4.35521e-08
0.000118806
-4.96134e-08
0.000118828
-5.58467e-08
0.000118851
-6.2253e-08
0.000118874
-6.88368e-08
0.000118896
-7.56056e-08
0.000118918
-8.25687e-08
0.00011894
-8.97358e-08
0.000118962
-9.7116e-08
0.000118984
-1.04717e-07
0.000119005
-1.12543e-07
0.000119026
-1.20597e-07
0.000119047
-1.28875e-07
0.000119067
-1.37371e-07
0.000119087
-1.4607e-07
0.000119107
-1.54959e-07
-1.63997e-07
0.000119126
0.000121883
-5.25204e-10
0.000121888
-1.62291e-09
0.000121896
-3.09799e-09
0.000121907
-5.14235e-09
0.00012192
-7.78272e-09
0.000121936
-1.09829e-08
0.000121953
-1.46798e-08
0.000121971
-1.87944e-08
0.000121991
-2.3288e-08
0.000122012
-2.80548e-08
0.000122033
-3.30609e-08
0.000122056
-3.82651e-08
0.000122078
-4.36359e-08
0.000122101
-4.915e-08
0.000122123
-5.4794e-08
0.000122146
-6.05603e-08
0.000122169
-6.64466e-08
0.000122192
-7.24554e-08
0.000122215
-7.85921e-08
0.000122237
-8.48651e-08
0.00012226
-9.12841e-08
0.000122282
-9.78599e-08
0.000122304
-1.04603e-07
0.000122326
-1.11523e-07
0.000122347
-1.18628e-07
0.000122369
-1.25924e-07
0.00012239
-1.33414e-07
0.00012241
-1.41097e-07
0.00012243
-1.48967e-07
0.00012245
-1.57016e-07
0.000122469
-1.65231e-07
0.000122488
-1.73595e-07
-1.82071e-07
0.000122506
0.000125365
-2.25789e-09
0.00012537
-6.62139e-09
0.000125378
-1.11258e-08
0.000125389
-1.59357e-08
0.000125402
-2.10418e-08
0.000125418
-2.6386e-08
0.000125435
-3.19055e-08
0.000125454
-3.75323e-08
0.000125474
-4.3238e-08
0.000125495
-4.89748e-08
0.000125516
-5.47234e-08
0.000125538
-6.04766e-08
0.000125561
-6.62332e-08
0.000125584
-7.19979e-08
0.000125607
-7.77804e-08
0.00012563
-8.35933e-08
0.000125653
-8.94508e-08
0.000125676
-9.53684e-08
0.000125699
-1.01362e-07
0.000125721
-1.07449e-07
0.000125743
-1.13643e-07
0.000125766
-1.19959e-07
0.000125787
-1.26411e-07
0.000125809
-1.33009e-07
0.00012583
-1.3976e-07
0.000125851
-1.46671e-07
0.000125871
-1.53742e-07
0.000125891
-1.60972e-07
0.00012591
-1.68355e-07
0.000125929
-1.75881e-07
0.000125948
-1.83536e-07
0.000125965
-1.91305e-07
-1.99153e-07
0.000125982
0.000128947
-3.82905e-09
0.000128951
-1.13601e-08
0.000128959
-1.88959e-08
0.00012897
-2.65743e-08
0.000128983
-3.42934e-08
0.000128999
-4.19258e-08
0.000129016
-4.93811e-08
0.000129035
-5.66022e-08
0.000129055
-6.35751e-08
0.000129077
-7.02961e-08
0.000129099
-7.67834e-08
0.000129121
-8.30671e-08
0.000129144
-8.91804e-08
0.000129168
-9.51578e-08
0.000129191
-1.01034e-07
0.000129214
-1.06844e-07
0.000129237
-1.12617e-07
0.00012926
-1.18384e-07
0.000129283
-1.24171e-07
0.000129306
-1.30003e-07
0.000129328
-1.35901e-07
0.00012935
-1.41884e-07
0.000129371
-1.47967e-07
0.000129393
-1.54162e-07
0.000129413
-1.60479e-07
0.000129433
-1.66923e-07
0.000129453
-1.73495e-07
0.000129472
-1.80193e-07
0.000129491
-1.87011e-07
0.000129509
-1.93941e-07
0.000129527
-2.00968e-07
0.000129543
-2.0808e-07
-2.15243e-07
0.000129559
0.000132631
-5.76255e-09
0.000132636
-1.64487e-08
0.000132644
-2.69391e-08
0.000132655
-3.73738e-08
0.000132668
-4.76168e-08
0.000132684
-5.74951e-08
0.000132701
-6.68887e-08
0.00013272
-7.57317e-08
0.000132741
-8.4015e-08
0.000132762
-9.17633e-08
0.000132785
-9.90261e-08
0.000132807
-1.05866e-07
0.000132831
-1.12348e-07
0.000132854
-1.18537e-07
0.000132877
-1.24493e-07
0.000132901
-1.30273e-07
0.000132924
-1.35926e-07
0.000132947
-1.41497e-07
0.00013297
-1.47024e-07
0.000132993
-1.52541e-07
0.000133015
-1.58076e-07
0.000133037
-1.63654e-07
0.000133058
-1.69293e-07
0.000133079
-1.75008e-07
0.000133099
-1.80811e-07
0.000133119
-1.86707e-07
0.000133138
-1.92699e-07
0.000133157
-1.98786e-07
0.000133175
-2.04963e-07
0.000133192
-2.11221e-07
0.000133208
-2.17548e-07
0.000133224
-2.23933e-07
-2.30345e-07
0.000133239
0.000136419
-6.53186e-09
0.000136423
-2.03042e-08
0.00013643
-3.41664e-08
0.000136441
-4.80377e-08
0.000136455
-6.14034e-08
0.000136471
-7.3924e-08
0.00013649
-8.5457e-08
0.00013651
-9.59798e-08
0.000136531
-1.05543e-07
0.000136554
-1.14235e-07
0.000136577
-1.22163e-07
0.000136601
-1.29438e-07
0.000136624
-1.36167e-07
0.000136648
-1.4245e-07
0.000136672
-1.48376e-07
0.000136696
-1.54022e-07
0.000136719
-1.59456e-07
0.000136743
-1.64737e-07
0.000136766
-1.69913e-07
0.000136788
-1.75027e-07
0.00013681
-1.80113e-07
0.000136832
-1.85201e-07
0.000136853
-1.90312e-07
0.000136873
-1.95465e-07
0.000136893
-2.00672e-07
0.000136912
-2.05942e-07
0.000136931
-2.11277e-07
0.000136949
-2.16679e-07
0.000136966
-2.22143e-07
0.000136982
-2.27662e-07
0.000136998
-2.33227e-07
0.000137013
-2.38828e-07
-2.44438e-07
0.000137027
0.000140319
-9.97056e-09
0.000140325
-2.61044e-08
0.000140333
-4.22205e-08
0.000140343
-5.84722e-08
0.000140356
-7.44004e-08
0.000140372
-8.94319e-08
0.00014039
-1.03218e-07
0.000140409
-1.15637e-07
0.000140431
-1.26717e-07
0.000140453
-1.36569e-07
0.000140476
-1.45339e-07
0.0001405
-1.53182e-07
0.000140524
-1.6025e-07
0.000140548
-1.66681e-07
0.000140572
-1.72596e-07
0.000140596
-1.78103e-07
0.00014062
-1.8329e-07
0.000140644
-1.88235e-07
0.000140667
-1.93002e-07
0.00014069
-1.97645e-07
0.000140712
-2.02207e-07
0.000140733
-2.06723e-07
0.000140754
-2.11223e-07
0.000140774
-2.15727e-07
0.000140794
-2.20251e-07
0.000140813
-2.24807e-07
0.000140831
-2.29399e-07
0.000140848
-2.34031e-07
0.000140865
-2.38701e-07
0.000140881
-2.43404e-07
0.000140895
-2.48131e-07
0.000140909
-2.52874e-07
-2.57612e-07
0.000140923
0.000144322
-7.02492e-09
0.000144323
-2.70243e-08
0.000144329
-4.85861e-08
0.000144341
-7.0263e-08
0.000144357
-9.04749e-08
0.000144376
-1.08603e-07
0.000144397
-1.24575e-07
0.00014442
-1.38515e-07
0.000144444
-1.50624e-07
0.000144469
-1.61133e-07
0.000144494
-1.70278e-07
0.000144519
-1.78281e-07
0.000144544
-1.8534e-07
0.000144569
-1.91629e-07
0.000144593
-1.97296e-07
0.000144618
-2.02466e-07
0.000144642
-2.07244e-07
0.000144665
-2.11718e-07
0.000144688
-2.15959e-07
0.000144711
-2.20029e-07
0.000144732
-2.23975e-07
0.000144753
-2.27837e-07
0.000144774
-2.31647e-07
0.000144794
-2.3543e-07
0.000144813
-2.39202e-07
0.000144831
-2.42978e-07
0.000144848
-2.46765e-07
0.000144865
-2.50567e-07
0.00014488
-2.54385e-07
0.000144895
-2.58217e-07
0.000144909
-2.62056e-07
0.000144922
-2.65897e-07
-2.6972e-07
0.000144934
0.000148457
-1.59223e-08
0.000148464
-3.3862e-08
0.000148469
-5.42432e-08
0.000148476
-7.73457e-08
0.000148487
-1.00902e-07
0.000148501
-1.22854e-07
0.000148519
-1.42219e-07
0.000148539
-1.58876e-07
0.000148562
-1.73048e-07
0.000148585
-1.85041e-07
0.00014861
-1.95183e-07
0.000148636
-2.03787e-07
0.000148662
-2.11131e-07
0.000148687
-2.17455e-07
0.000148713
-2.22959e-07
0.000148738
-2.27812e-07
0.000148763
-2.3215e-07
0.000148788
-2.36088e-07
0.000148812
-2.39715e-07
0.000148835
-2.43108e-07
0.000148857
-2.46325e-07
0.000148879
-2.49415e-07
0.000148899
-2.52416e-07
0.000148919
-2.55357e-07
0.000148938
-2.5826e-07
0.000148956
-2.61142e-07
0.000148974
-2.64014e-07
0.00014899
-2.66883e-07
0.000149005
-2.69752e-07
0.00014902
-2.7262e-07
0.000149033
-2.75484e-07
0.000149046
-2.78341e-07
-2.81176e-07
0.000149057
0.000152671
2.36793e-09
0.000152666
-2.90421e-08
0.000152675
-6.28586e-08
0.000152693
-9.58858e-08
0.000152717
-1.24486e-07
0.000152743
-1.48775e-07
0.00015277
-1.69196e-07
0.000152797
-1.86273e-07
0.000152825
-2.00503e-07
0.000152852
-2.12332e-07
0.000152879
-2.2218e-07
0.000152905
-2.30409e-07
0.000152932
-2.37321e-07
0.000152957
-2.43165e-07
0.000152983
-2.48147e-07
0.000153007
-2.52438e-07
0.000153031
-2.56177e-07
0.000153055
-2.59476e-07
0.000153077
-2.6243e-07
0.000153099
-2.65112e-07
0.000153121
-2.67586e-07
0.000153141
-2.69899e-07
0.000153161
-2.72092e-07
0.00015318
-2.74196e-07
0.000153197
-2.76235e-07
0.000153215
-2.78228e-07
0.000153231
-2.80187e-07
0.000153246
-2.82122e-07
0.00015326
-2.84038e-07
0.000153274
-2.85936e-07
0.000153286
-2.87817e-07
0.000153297
-2.89677e-07
-2.91506e-07
0.000153308
0.000157077
-2.35942e-08
0.000157077
-2.86145e-08
0.000157065
-5.05183e-08
0.000157056
-8.75357e-08
0.000157058
-1.26058e-07
0.000157069
-1.59992e-07
0.000157087
-1.87347e-07
0.00015711
-2.09173e-07
0.000157136
-2.26587e-07
0.000157164
-2.40424e-07
0.000157194
-2.51405e-07
0.000157223
-2.60134e-07
0.000157253
-2.67094e-07
0.000157283
-2.72664e-07
0.000157312
-2.77147e-07
0.00015734
-2.80779e-07
0.000157367
-2.83745e-07
0.000157394
-2.86191e-07
0.00015742
-2.88234e-07
0.000157445
-2.89963e-07
0.000157469
-2.91452e-07
0.000157492
-2.92755e-07
0.000157513
-2.93919e-07
0.000157534
-2.94978e-07
0.000157554
-2.95958e-07
0.000157573
-2.96882e-07
0.00015759
-2.97763e-07
0.000157607
-2.98614e-07
0.000157622
-2.9944e-07
0.000157636
-3.00248e-07
0.00015765
-3.01039e-07
0.000157662
-3.01816e-07
-3.02569e-07
0.000157673
0.00016147
4.53216e-08
0.000161456
-1.47761e-08
0.000161492
-8.71237e-08
0.000161536
-1.31595e-07
0.000161579
-1.69132e-07
0.000161617
-1.97938e-07
0.000161651
-2.21268e-07
0.000161682
-2.4035e-07
0.000161712
-2.55728e-07
0.000161739
-2.68094e-07
0.000161766
-2.78058e-07
0.000161792
-2.86081e-07
0.000161817
-2.92529e-07
0.000161842
-2.977e-07
0.000161867
-3.01834e-07
0.000161891
-3.05127e-07
0.000161915
-3.07735e-07
0.000161939
-3.09785e-07
0.000161962
-3.11381e-07
0.000161985
-3.12607e-07
0.000162007
-3.13532e-07
0.000162028
-3.14212e-07
0.000162049
-3.14694e-07
0.000162069
-3.15016e-07
0.000162088
-3.15207e-07
0.000162107
-3.15292e-07
0.000162124
-3.15291e-07
0.000162141
-3.15218e-07
0.000162157
-3.15084e-07
0.000162171
-3.14897e-07
0.000162185
-3.14661e-07
0.000162197
-3.14378e-07
-3.1405e-07
0.000162209
0.000166191
8.12372e-09
0.000166127
4.85729e-08
0.000166047
-7.02565e-09
0.000165992
-7.59562e-08
0.000165979
-1.56685e-07
0.000165993
-2.11926e-07
0.000166023
-2.5079e-07
0.000166061
-2.7848e-07
0.000166104
-2.98716e-07
0.000166149
-3.13688e-07
0.000166196
-3.24792e-07
0.000166243
-3.33022e-07
0.00016629
-3.3909e-07
0.000166336
-3.43508e-07
0.00016638
-3.4665e-07
0.000166424
-3.48796e-07
0.000166466
-3.50154e-07
0.000166508
-3.50886e-07
0.000166547
-3.51117e-07
0.000166586
-3.50944e-07
0.000166623
-3.50445e-07
0.000166658
-3.49682e-07
0.000166692
-3.48707e-07
0.000166725
-3.47559e-07