/*--------------------------------*- C++ -*----------------------------------*\
  =========                 |
  \\      /  F ield         | OpenFOAM: The Open Source CFD Toolbox
   \\    /   O peration     | Website:  https://openfoam.org
    \\  /    A nd           | Version:  10
     \\/     M anipulation  |
\*---------------------------------------------------------------------------*/
FoamFile
{
    format      ascii;
    class       volVectorField;
    location    "0.2";
    object      U;
}
// * * * * * * * * * * * * * * * * * * * * * * * * * * * * * * * * * * * * * //

dimensions      [0 1 -1 0 0 0 0];

internalField   nonuniform List<vector> 
6820
(
(7.33663 -0.254709 0)
(7.37111 -0.152738 0)
(7.32899 -0.0594682 0)
(7.25211 -0.0117162 0)
(7.17469 0.00797499 0)
(7.1048 0.0139822 0)
(7.0437 0.0144732 0)
(6.9908 0.0130988 0)
(6.94465 0.0113506 0)
(6.90384 0.00977591 0)
(6.86729 0.00851525 0)
(6.8342 0.00755588 0)
(6.80396 0.00684154 0)
(6.7761 0.00631298 0)
(6.75029 0.00592065 0)
(6.72625 0.00562694 0)
(6.70377 0.00540449 0)
(6.68267 0.00523414 0)
(6.66281 0.00510302 0)
(6.64404 0.00500294 0)
(6.62625 0.00492953 0)
(6.60933 0.00488188 0)
(6.59317 0.00486281 0)
(6.57765 0.00488034 0)
(6.56263 0.00495008 0)
(6.54792 0.00510344 0)
(6.53326 0.00540398 0)
(6.51826 0.00593454 0)
(6.50196 0.00722695 0)
(6.48335 0.00854531 0)
(6.45867 0.0169667 0)
(6.41784 0.0190048 0)
(6.37016 0.0413181 0)
(7.32387 0.121388 0)
(7.30439 0.12328 0)
(7.30895 0.0779816 0)
(7.32917 0.0528053 0)
(7.34723 0.0392073 0)
(7.35527 0.0314038 0)
(7.35427 0.0269535 0)
(7.34713 0.0242096 0)
(7.33615 0.0223145 0)
(7.32291 0.0208768 0)
(7.30845 0.0197011 0)
(7.29344 0.0186871 0)
(7.27829 0.0177845 0)
(7.26324 0.0169673 0)
(7.24843 0.0162206 0)
(7.23396 0.0155357 0)
(7.21986 0.0149067 0)
(7.20615 0.0143295 0)
(7.19285 0.0138017 0)
(7.17995 0.0133223 0)
(7.16744 0.0128919 0)
(7.1553 0.0125136 0)
(7.14351 0.012194 0)
(7.13207 0.0119457 0)
(7.12093 0.0117907 0)
(7.11008 0.0117737 0)
(7.09953 0.0119588 0)
(7.08915 0.0125412 0)
(7.07964 0.0136974 0)
(7.06967 0.0163759 0)
(7.06548 0.0214718 0)
(7.06007 0.0321493 0)
(7.08597 0.0577625 0)
(7.32565 -0.0437901 0)
(7.32324 -0.051725 0)
(7.33515 -0.02619 0)
(7.34297 -0.00270367 0)
(7.34788 0.0104515 0)
(7.35204 0.0169085 0)
(7.35502 0.0199865 0)
(7.35652 0.0212797 0)
(7.35654 0.0216299 0)
(7.3552 0.0215108 0)
(7.35272 0.0211692 0)
(7.34935 0.0207322 0)
(7.34528 0.0202657 0)
(7.34068 0.0198029 0)
(7.33569 0.0193594 0)
(7.3304 0.0189419 0)
(7.32491 0.0185532 0)
(7.31928 0.0181943 0)
(7.31356 0.0178661 0)
(7.30777 0.0175703 0)
(7.30196 0.0173097 0)
(7.29613 0.0170899 0)
(7.2903 0.01692 0)
(7.28445 0.0168143 0)
(7.27859 0.0167981 0)
(7.2727 0.0169065 0)
(7.26676 0.0172202 0)
(7.26068 0.0177917 0)
(7.25465 0.0189921 0)
(7.24826 0.0204929 0)
(7.24283 0.0243968 0)
(7.23734 0.0266131 0)
(7.23538 0.0351143 0)
(7.33338 0.0117918 0)
(7.33034 0.0329289 0)
(7.32952 0.0333655 0)
(7.33251 0.0276671 0)
(7.33791 0.0242897 0)
(7.3434 0.0228249 0)
(7.34798 0.0222749 0)
(7.35161 0.0220601 0)
(7.35438 0.021924 0)
(7.35635 0.021785 0)
(7.35761 0.0216177 0)
(7.35826 0.0214165 0)
(7.35838 0.0211856 0)
(7.35805 0.0209326 0)
(7.35734 0.0206654 0)
(7.35631 0.0203912 0)
(7.35502 0.020117 0)
(7.35351 0.0198488 0)
(7.35181 0.019593 0)
(7.34995 0.019356 0)
(7.34795 0.0191458 0)
(7.34584 0.0189725 0)
(7.34361 0.01885 0)
(7.34128 0.0187984 0)
(7.33885 0.0188486 0)
(7.33631 0.0190441 0)
(7.33368 0.0194638 0)
(7.33091 0.0201945 0)
(7.32818 0.0214753 0)
(7.32539 0.023352 0)
(7.32333 0.0266744 0)
(7.32219 0.0305849 0)
(7.32363 0.0374959 0)
(7.33122 -0.00351771 0)
(7.33003 -0.00431403 0)
(7.33357 0.00130298 0)
(7.33713 0.00876434 0)
(7.34039 0.014142 0)
(7.34363 0.0171612 0)
(7.34675 0.0188141 0)
(7.3497 0.0197435 0)
(7.3524 0.0202541 0)
(7.35481 0.0205168 0)
(7.3569 0.0206274 0)
(7.35867 0.0206396 0)
(7.36015 0.0205868 0)
(7.36136 0.0204911 0)
(7.36232 0.0203676 0)
(7.36305 0.0202272 0)
(7.36358 0.0200785 0)
(7.36393 0.019929 0)
(7.36412 0.0197858 0)
(7.36416 0.0196566 0)
(7.36406 0.0195504 0)
(7.36385 0.0194786 0)
(7.36351 0.0194568 0)
(7.36307 0.0195059 0)
(7.36252 0.0196573 0)
(7.36187 0.0199517 0)
(7.36114 0.0204587 0)
(7.36035 0.0212452 0)
(7.35963 0.0224806 0)
(7.35903 0.0241623 0)
(7.35901 0.0267139 0)
(7.35988 0.029444 0)
(7.36219 0.0329476 0)
(7.33264 0.00208959 0)
(7.33222 0.00992614 0)
(7.3339 0.0141376 0)
(7.33637 0.0160279 0)
(7.33933 0.0171543 0)
(7.34248 0.0179477 0)
(7.34549 0.0185755 0)
(7.34829 0.0190576 0)
(7.3509 0.0193932 0)
(7.35331 0.0196114 0)
(7.35554 0.0197426 0)
(7.35759 0.0198077 0)
(7.35948 0.0198225 0)
(7.3612 0.0197997 0)
(7.36277 0.0197492 0)
(7.3642 0.0196792 0)
(7.36549 0.0195971 0)
(7.36666 0.0195103 0)
(7.36771 0.019426 0)
(7.36865 0.0193525 0)
(7.36949 0.0192997 0)
(7.37022 0.0192797 0)
(7.37087 0.0193086 0)
(7.37142 0.0194074 0)
(7.3719 0.0196054 0)
(7.37231 0.0199398 0)
(7.37269 0.0204665 0)
(7.37307 0.0212392 0)
(7.37356 0.0223611 0)
(7.37427 0.0238358 0)
(7.37549 0.0258229 0)
(7.37752 0.0279623 0)
(7.38057 0.0302885 0)
(7.33258 0.000841068 0)
(7.33241 0.00454892 0)
(7.33425 0.00812061 0)
(7.33682 0.0113419 0)
(7.33957 0.0139465 0)
(7.34236 0.01574 0)
(7.34502 0.0169127 0)
(7.34754 0.017679 0)
(7.34994 0.0181738 0)
(7.35222 0.0184905 0)
(7.35438 0.0186892 0)
(7.35644 0.0188063 0)
(7.3584 0.0188655 0)
(7.36025 0.0188833 0)
(7.36202 0.0188715 0)
(7.3637 0.0188394 0)
(7.36529 0.0187951 0)
(7.36681 0.0187457 0)
(7.36824 0.0186988 0)
(7.3696 0.0186627 0)
(7.37088 0.0186471 0)
(7.3721 0.0186638 0)
(7.37325 0.0187282 0)
(7.37435 0.0188594 0)
(7.37539 0.0190831 0)
(7.37641 0.0194298 0)
(7.37744 0.0199409 0)
(7.37852 0.0206531 0)
(7.37974 0.0216216 0)
(7.38121 0.0228356 0)
(7.38313 0.024324 0)
(7.38569 0.0258505 0)
(7.38896 0.027254 0)
(7.33284 0.00134478 0)
(7.333 0.00538993 0)
(7.33454 0.0089673 0)
(7.33674 0.0116781 0)
(7.33919 0.0136763 0)
(7.34177 0.0150631 0)
(7.3443 0.0160243 0)
(7.34672 0.0167005 0)
(7.34903 0.0171682 0)
(7.35123 0.0174844 0)
(7.35334 0.0176929 0)
(7.35536 0.0178237 0)
(7.3573 0.017898 0)
(7.35918 0.0179312 0)
(7.36099 0.017935 0)
(7.36274 0.0179185 0)
(7.36444 0.0178897 0)
(7.36608 0.0178559 0)
(7.36768 0.0178244 0)
(7.36922 0.0178034 0)
(7.37072 0.0178022 0)
(7.37217 0.017832 0)
(7.37359 0.0179065 0)
(7.37498 0.0180425 0)
(7.37635 0.0182608 0)
(7.37772 0.018585 0)
(7.37913 0.019043 0)
(7.38063 0.0196565 0)
(7.38229 0.0204485 0)
(7.3842 0.021397 0)
(7.38649 0.0224739 0)
(7.38927 0.0235166 0)
(7.39257 0.0243525 0)
(7.33291 0.00134574 0)
(7.33319 0.00471705 0)
(7.33457 0.00778294 0)
(7.33658 0.0102762 0)
(7.33885 0.0122636 0)
(7.34125 0.0137433 0)
(7.34363 0.0148039 0)
(7.34594 0.0155547 0)
(7.34816 0.0160755 0)
(7.35029 0.0164292 0)
(7.35234 0.0166641 0)
(7.35432 0.0168136 0)
(7.35623 0.016901 0)
(7.35809 0.0169437 0)
(7.3599 0.0169543 0)
(7.36167 0.016943 0)
(7.3634 0.0169182 0)
(7.36509 0.0168876 0)
(7.36674 0.0168586 0)
(7.36837 0.0168392 0)
(7.36996 0.016838 0)
(7.37153 0.0168654 0)
(7.37309 0.0169331 0)
(7.37463 0.0170549 0)
(7.37619 0.0172468 0)
(7.37777 0.0175253 0)
(7.37941 0.017907 0)
(7.38116 0.0184014 0)
(7.38307 0.019011 0)
(7.38521 0.0197067 0)
(7.38767 0.0204395 0)
(7.39051 0.021091 0)
(7.39372 0.0215187 0)
(7.33297 0.00132389 0)
(7.33334 0.00436627 0)
(7.33458 0.00719149 0)
(7.33639 0.009521 0)
(7.33846 0.0113739 0)
(7.34067 0.0127677 0)
(7.34291 0.0137828 0)
(7.34512 0.0145156 0)
(7.34726 0.015036 0)
(7.34933 0.0153974 0)
(7.35134 0.0156418 0)
(7.35328 0.0157995 0)
(7.35517 0.015893 0)
(7.35701 0.0159392 0)
(7.35881 0.0159511 0)
(7.36058 0.0159391 0)
(7.36231 0.0159119 0)
(7.36401 0.0158772 0)
(7.36569 0.0158424 0)
(7.36735 0.0158151 0)
(7.36899 0.0158034 0)
(7.37062 0.0158162 0)
(7.37225 0.0158633 0)
(7.37389 0.0159554 0)
(7.37555 0.0161039 0)
(7.37725 0.016319 0)
(7.37903 0.0166086 0)
(7.38091 0.0169731 0)
(7.38296 0.0174032 0)
(7.38521 0.0178669 0)
(7.38772 0.0183126 0)
(7.39052 0.018652 0)
(7.39359 0.0187801 0)
(7.333 0.00126381 0)
(7.3334 0.00398827 0)
(7.33453 0.00652418 0)
(7.33616 0.00865128 0)
(7.33806 0.0103747 0)
(7.34011 0.0117096 0)
(7.34222 0.0127091 0)
(7.34432 0.013445 0)
(7.34638 0.0139757 0)
(7.34839 0.0143488 0)
(7.35035 0.014603 0)
(7.35226 0.014768 0)
(7.35412 0.0148657 0)
(7.35595 0.0149133 0)
(7.35773 0.0149239 0)
(7.35949 0.0149081 0)
(7.36122 0.0148747 0)
(7.36292 0.0148314 0)
(7.36461 0.0147857 0)
(7.36628 0.0147444 0)
(7.36795 0.0147149 0)
(7.36961 0.0147047 0)
(7.37128 0.0147215 0)
(7.37297 0.0147732 0)
(7.37469 0.014867 0)
(7.37647 0.015008 0)
(7.37832 0.0151978 0)
(7.38028 0.0154305 0)
(7.38239 0.0156909 0)
(7.38468 0.0159476 0)
(7.38717 0.0161535 0)
(7.38988 0.0162424 0)
(7.39279 0.0161404 0)
(7.33302 0.00118193 0)
(7.33343 0.00363475 0)
(7.33445 0.00592449 0)
(7.33593 0.00787673 0)
(7.33767 0.00947838 0)
(7.33958 0.0107395 0)
(7.34156 0.011699 0)
(7.34355 0.0124144 0)
(7.34553 0.0129365 0)
(7.34748 0.0133075 0)
(7.34939 0.0135621 0)
(7.35126 0.0137274 0)
(7.3531 0.0138244 0)
(7.3549 0.0138694 0)
(7.35667 0.0138753 0)
(7.35841 0.0138526 0)
(7.36013 0.0138099 0)
(7.36184 0.0137548 0)
(7.36353 0.0136941 0)
(7.36521 0.0136343 0)
(7.36688 0.0135816 0)
(7.36857 0.0135423 0)
(7.37026 0.013522 0)
(7.37198 0.0135259 0)
(7.37374 0.0135579 0)
(7.37556 0.0136191 0)
(7.37745 0.0137066 0)
(7.37945 0.0138113 0)
(7.38157 0.0139153 0)
(7.38384 0.0139898 0)
(7.38627 0.0139952 0)
(7.38888 0.0138816 0)
(7.39162 0.0135982 0)
(7.33303 0.00108963 0)
(7.33342 0.0032978 0)
(7.33436 0.00535854 0)
(7.33571 0.00713691 0)
(7.33731 0.00861222 0)
(7.33908 0.00979153 0)
(7.34094 0.0107034 0)
(7.34284 0.0113922 0)
(7.34473 0.0119004 0)
(7.34662 0.0122641 0)
(7.34847 0.0125143 0)
(7.3503 0.0126758 0)
(7.35211 0.0127683 0)
(7.35388 0.0128075 0)
(7.35563 0.0128058 0)
(7.35736 0.0127733 0)
(7.35907 0.0127185 0)
(7.36077 0.0126484 0)
(7.36246 0.0125695 0)
(7.36414 0.0124875 0)
(7.36583 0.0124076 0)
(7.36752 0.0123345 0)
(7.36923 0.0122723 0)
(7.37097 0.0122238 0)
(7.37275 0.0121902 0)
(7.37458 0.0121698 0)
(7.37649 0.012157 0)
(7.37849 0.0121408 0)
(7.3806 0.0121034 0)
(7.38282 0.0120195 0)
(7.38518 0.0118569 0)
(7.38766 0.0115783 0)
(7.39025 0.0111489 0)
(7.33303 0.000993286 0)
(7.33341 0.00297735 0)
(7.33427 0.00482764 0)
(7.33551 0.00644058 0)
(7.33698 0.00779209 0)
(7.33863 0.00888541 0)
(7.34038 0.00974118 0)
(7.34218 0.0103938 0)
(7.34399 0.0108786 0)
(7.34581 0.0112267 0)
(7.34761 0.0114655 0)
(7.3494 0.0116175 0)
(7.35117 0.0117009 0)
(7.35291 0.0117304 0)
(7.35464 0.0117176 0)
(7.35635 0.0116723 0)
(7.35805 0.0116023 0)
(7.35974 0.0115144 0)
(7.36142 0.0114143 0)
(7.3631 0.0113068 0)
(7.36479 0.0111963 0)
(7.36649 0.0110862 0)
(7.3682 0.0109788 0)
(7.36995 0.0108754 0)
(7.37173 0.0107749 0)
(7.37357 0.0106738 0)
(7.37547 0.010565 0)
(7.37745 0.010437 0)
(7.37953 0.0102735 0)
(7.3817 0.0100527 0)
(7.38396 0.00974912 0)
(7.38633 0.00933494 0)
(7.38876 0.00878656 0)
(7.33303 0.000896713 0)
(7.33339 0.00267244 0)
(7.33418 0.00432701 0)
(7.33532 0.00578049 0)
(7.33668 0.0070085 0)
(7.33822 0.00801132 0)
(7.33986 0.00880392 0)
(7.34157 0.00941289 0)
(7.34331 0.00986711 0)
(7.34506 0.0101933 0)
(7.34681 0.0104152 0)
(7.34855 0.0105529 0)
(7.35028 0.010623 0)
(7.352 0.010639 0)
(7.3537 0.010612 0)
(7.35539 0.0105508 0)
(7.35708 0.010463 0)
(7.35875 0.0103545 0)
(7.36042 0.0102305 0)
(7.3621 0.0100949 0)
(7.36378 0.00995126 0)
(7.36547 0.00980168 0)
(7.36718 0.00964734 0)
(7.36893 0.00948789 0)
(7.37071 0.00932104 0)
(7.37253 0.00914208 0)
(7.37442 0.00894333 0)
(7.37637 0.00871369 0)
(7.37839 0.00843853 0)
(7.38049 0.00809998 0)
(7.38267 0.00767792 0)
(7.38491 0.00715169 0)
(7.38721 0.00650532 0)
(7.33303 0.000802003 0)
(7.33337 0.00238211 0)
(7.3341 0.00385337 0)
(7.33514 0.00515338 0)
(7.33641 0.00625916 0)
(7.33784 0.00716871 0)
(7.33939 0.00789264 0)
(7.34102 0.00845136 0)
(7.34268 0.00886835 0)
(7.34437 0.0091662 0)
(7.34607 0.00936543 0)
(7.34776 0.00948383 0)
(7.34946 0.00953633 0)
(7.35114 0.00953523 0)
(7.35282 0.00949064 0)
(7.35449 0.00941078 0)
(7.35615 0.00930237 0)
(7.35781 0.00917084 0)
(7.35947 0.00902055 0)
(7.36113 0.00885484 0)
(7.3628 0.0086761 0)
(7.36448 0.00848564 0)
(7.36619 0.00828357 0)
(7.36792 0.00806849 0)
(7.36968 0.00783724 0)
(7.37148 0.00758454 0)
(7.37334 0.00730275 0)
(7.37524 0.00698164 0)
(7.37721 0.00660859 0)
(7.37923 0.00616902 0)
(7.38132 0.00564733 0)
(7.38345 0.00502814 0)
(7.38561 0.0043007 0)
(7.33303 0.000710198 0)
(7.33334 0.00210532 0)
(7.33402 0.00340356 0)
(7.33499 0.00455546 0)
(7.33617 0.00554018 0)
(7.33751 0.00635416 0)
(7.33897 0.00700469 0)
(7.34052 0.00750738 0)
(7.34211 0.00788118 0)
(7.34374 0.008145 0)
(7.34538 0.0083164 0)
(7.34703 0.00841092 0)
(7.34869 0.00844178 0)
(7.35034 0.00842005 0)
(7.35199 0.00835482 0)
(7.35363 0.00825351 0)
(7.35527 0.00812212 0)
(7.35691 0.00796538 0)
(7.35855 0.00778696 0)
(7.3602 0.00758946 0)
(7.36186 0.00737451 0)
(7.36352 0.0071426 0)
(7.36521 0.00689306 0)
(7.36692 0.00662379 0)
(7.36866 0.00633115 0)
(7.37043 0.00600974 0)
(7.37224 0.0056523 0)
(7.3741 0.00524976 0)
(7.376 0.00479143 0)
(7.37795 0.0042656 0)
(7.37993 0.00366024 0)
(7.38195 0.00296391 0)
(7.38399 0.00216945 0)
(7.33303 0.000621708 0)
(7.33332 0.00184092 0)
(7.33395 0.00297478 0)
(7.33485 0.00398341 0)
(7.33595 0.00484837 0)
(7.33721 0.00556511 0)
(7.3386 0.00613843 0)
(7.34007 0.00658018 0)
(7.34159 0.00690551 0)
(7.34316 0.0071301 0)
(7.34476 0.00726884 0)
(7.34636 0.00733512 0)
(7.34798 0.00734053 0)
(7.34959 0.00729482 0)
(7.35121 0.00720605 0)
(7.35283 0.0070808 0)
(7.35445 0.00692427 0)
(7.35607 0.00674053 0)
(7.35769 0.00653254 0)
(7.35931 0.00630225 0)
(7.36095 0.0060506 0)
(7.36259 0.00577746 0)
(7.36426 0.00548157 0)
(7.36594 0.00516043 0)
(7.36765 0.00481021 0)
(7.36938 0.00442568 0)
(7.37115 0.00400019 0)
(7.37294 0.00352588 0)
(7.37477 0.00299386 0)
(7.37664 0.0023948 0)
(7.37853 0.00171946 0)
(7.38043 0.00095929 0)
(7.38235 0.000109809 0)
(7.33302 0.000536572 0)
(7.3333 0.00158773 0)
(7.33389 0.00256447 0)
(7.33472 0.00343412 0)
(7.33575 0.00418056 0)
(7.33694 0.00479877 0)
(7.33826 0.00529166 0)
(7.33966 0.00566817 0)
(7.34113 0.00594029 0)
(7.34264 0.00612091 0)
(7.34418 0.00622251 0)
(7.34575 0.0062565 0)
(7.34732 0.00623285 0)
(7.3489 0.00616003 0)
(7.35049 0.00604506 0)
(7.35208 0.0058936 0)
(7.35367 0.00571011 0)
(7.35527 0.00549793 0)
(7.35686 0.00525939 0)
(7.35847 0.00499584 0)
(7.36008 0.00470764 0)
(7.3617 0.00439418 0)
(7.36333 0.00405382 0)
(7.36498 0.00368385 0)
(7.36665 0.00328046 0)
(7.36834 0.00283875 0)
(7.37005 0.00235284 0)
(7.37178 0.00181598 0)
(7.37354 0.00122092 0)
(7.37532 0.000560251 0)
(7.37711 -0.000173068 0)
(7.37892 -0.000985413 0)
(7.38072 -0.00187948 0)
(7.33302 0.000454624 0)
(7.33328 0.00134457 0)
(7.33383 0.00217031 0)
(7.33461 0.00290473 0)
(7.33558 0.00353387 0)
(7.33671 0.00405259 0)
(7.33796 0.00446244 0)
(7.3393 0.00477008 0)
(7.34071 0.00498494 0)
(7.34217 0.00511748 0)
(7.34366 0.00517802 0)
(7.34518 0.00517613 0)
(7.34672 0.00512025 0)
(7.34827 0.00501759 0)
(7.34982 0.00487411 0)
(7.35138 0.00469457 0)
(7.35295 0.00448268 0)
(7.35452 0.00424109 0)
(7.35609 0.00397152 0)
(7.35766 0.00367478 0)
(7.35924 0.00335077 0)
(7.36083 0.00299852 0)
(7.36243 0.00261616 0)
(7.36404 0.00220093 0)
(7.36567 0.00174915 0)
(7.3673 0.0012564 0)
(7.36896 0.000717525 0)
(7.37063 0.00012687 0)
(7.37231 -0.000521468 0)
(7.374 -0.0012333 0)
(7.3757 -0.00201398 0)
(7.3774 -0.00286822 0)
(7.3791 -0.00379757 0)
(7.33302 0.000375588 0)
(7.33326 0.00111026 0)
(7.33378 0.00179014 0)
(7.33452 0.0023925 0)
(7.33543 0.00290533 0)
(7.3365 0.00332364 0)
(7.33769 0.00364801 0)
(7.33897 0.0038834 0)
(7.34033 0.00403707 0)
(7.34174 0.0041175 0)
(7.34319 0.00413316 0)
(7.34467 0.0040919 0)
(7.34617 0.00400071 0)
(7.34768 0.0038656 0)
(7.34921 0.00369148 0)
(7.35074 0.00348224 0)
(7.35227 0.00324082 0)
(7.35381 0.00296922 0)
(7.35535 0.0026686 0)
(7.3569 0.00233928 0)
(7.35844 0.00198079 0)
(7.36 0.00159189 0)
(7.36156 0.00117057 0)
(7.36313 0.000714119 0)
(7.3647 0.000219148 0)
(7.36629 -0.000318329 0)
(7.36788 -0.000902746 0)
(7.36948 -0.0015388 0)
(7.37109 -0.00223125 0)
(7.3727 -0.00298464 0)
(7.3743 -0.00380301 0)
(7.3759 -0.00468987 0)
(7.37749 -0.00564581 0)
(7.33302 0.00029914 0)
(7.33325 0.000883658 0)
(7.33373 0.00142205 0)
(7.33443 0.00189515 0)
(7.3353 0.00229274 0)
(7.33631 0.00261022 0)
(7.33745 0.00284756 0)
(7.33868 0.00300847 0)
(7.33999 0.00309834 0)
(7.34136 0.0031239 0)
(7.34276 0.00309192 0)
(7.34421 0.00300873 0)
(7.34567 0.00288 0)
(7.34715 0.00271056 0)
(7.34864 0.0025043 0)
(7.35014 0.00226427 0)
(7.35164 0.00199268 0)
(7.35315 0.00169091 0)
(7.35466 0.00135961 0)
(7.35617 0.000998693 0)
(7.35769 0.000607387 0)
(7.3592 0.000184259 0)
(7.36072 -0.00027273 0)
(7.36224 -0.0007662 0)
(7.36377 -0.00129923 0)
(7.3653 -0.00187534 0)
(7.36683 -0.0024983 0)
(7.36836 -0.00317199 0)
(7.36989 -0.00390022 0)
(7.37141 -0.00468651 0)
(7.37292 -0.00553391 0)
(7.37443 -0.006445 0)
(7.37591 -0.00741972 0)
(7.33302 0.000224937 0)
(7.33324 0.000663618 0)
(7.33369 0.00106393 0)
(7.33435 0.00140958 0)
(7.33518 0.00169194 0)
(7.33615 0.00190694 0)
(7.33724 0.00205433 0)
(7.33843 0.00213687 0)
(7.33969 0.00215858 0)
(7.34101 0.00212529 0)
(7.34238 0.0020421 0)
(7.34379 0.00191382 0)
(7.34522 0.00174482 0)
(7.34666 0.00153899 0)
(7.34812 0.00129919 0)
(7.34959 0.00102757 0)
(7.35106 0.000725628 0)
(7.35254 0.000394179 0)
(7.35402 3.33561e-05 0)
(7.35549 -0.000357314 0)
(7.35697 -0.000778869 0)
(7.35844 -0.00123288 0)
(7.35992 -0.00172138 0)
(7.36139 -0.00224685 0)
(7.36286 -0.00281212 0)
(7.36433 -0.00342023 0)
(7.3658 -0.00407438 0)
(7.36726 -0.00477776 0)
(7.36871 -0.0055334 0)
(7.37015 -0.00634403 0)
(7.37157 -0.00721191 0)
(7.37298 -0.00813893 0)
(7.37436 -0.00912458 0)
(7.33302 0.000152675 0)
(7.33322 0.000449377 0)
(7.33366 0.000715021 0)
(7.33429 0.000935956 0)
(7.33507 0.00110512 0)
(7.336 0.0012192 0)
(7.33705 0.00127769 0)
(7.3382 0.00128348 0)
(7.33942 0.00123702 0)
(7.34071 0.00114399 0)
(7.34205 0.00100853 0)
(7.34342 0.000834153 0)
(7.34481 0.000624121 0)
(7.34623 0.00038087 0)
(7.34766 0.000106608 0)
(7.34909 -0.000197193 0)
(7.35053 -0.000529725 0)
(7.35198 -0.000890709 0)
(7.35342 -0.00128043 0)
(7.35486 -0.00169968 0)
(7.3563 -0.00214968 0)
(7.35773 -0.00263209 0)
(7.35916 -0.00314891 0)
(7.36058 -0.00370245 0)
(7.362 -0.00429525 0)
(7.3634 -0.00492996 0)
(7.3648 -0.00560928 0)
(7.36619 -0.00633581 0)
(7.36756 -0.00711196 0)
(7.36892 -0.00793984 0)
(7.37026 -0.00882113 0)
(7.37157 -0.00975719 0)
(7.37286 -0.0107472 0)
(7.33302 8.19508e-05 0)
(7.33321 0.000239069 0)
(7.33363 0.000370554 0)
(7.33423 0.000464587 0)
(7.33499 0.000515742 0)
(7.33588 0.000521807 0)
(7.3369 0.000483233 0)
(7.33801 0.000400764 0)
(7.3392 0.000280659 0)
(7.34045 0.000123249 0)
(7.34175 -6.87847e-05 0)
(7.34309 -0.000292549 0)
(7.34446 -0.000545856 0)
(7.34584 -0.000827367 0)
(7.34724 -0.00113584 0)
(7.34864 -0.00147066 0)
(7.35005 -0.00183174 0)
(7.35146 -0.00221944 0)
(7.35287 -0.00263451 0)
(7.35427 -0.00307806 0)
(7.35567 -0.00355156 0)
(7.35706 -0.00405676 0)
(7.35844 -0.00459566 0)
(7.35981 -0.00517043 0)
(7.36117 -0.00578337 0)
(7.36252 -0.00643679 0)
(7.36385 -0.00713298 0)
(7.36516 -0.00787408 0)
(7.36646 -0.008662 0)
(7.36774 -0.00949836 0)
(7.36899 -0.0103844 0)
(7.37021 -0.011321 0)
(7.37141 -0.0123072 0)
(7.33302 1.28966e-05 0)
(7.3332 3.52486e-05 0)
(7.3336 3.95897e-05 0)
(7.33417 1.61126e-05 0)
(7.3349 -3.95993e-05 0)
(7.33576 -0.000129672 0)
(7.33675 -0.000254226 0)
(7.33783 -0.000413438 0)
(7.33899 -0.000601929 0)
(7.34022 -0.000820332 0)
(7.34149 -0.00106689 0)
(7.3428 -0.00133958 0)
(7.34414 -0.00163713 0)
(7.3455 -0.00195851 0)
(7.34687 -0.00230338 0)
(7.34825 -0.00267174 0)
(7.34963 -0.00306393 0)
(7.351 -0.00348069 0)
(7.35238 -0.00392305 0)
(7.35374 -0.00439235 0)
(7.3551 -0.00489016 0)
(7.35644 -0.00541828 0)
(7.35777 -0.00597864 0)
(7.35909 -0.00657328 0)
(7.3604 -0.00720425 0)
(7.36168 -0.00787362 0)
(7.36295 -0.0085833 0)
(7.36419 -0.00933508 0)
(7.36541 -0.0101305 0)
(7.36661 -0.0109708 0)
(7.36778 -0.0118569 0)
(7.36892 -0.0127894 0)
(7.37002 -0.0137673 0)
(7.33302 -5.61195e-05 0)
(7.3332 -0.000173806 0)
(7.33358 -0.000311041 0)
(7.33414 -0.00047542 0)
(7.33484 -0.00066682 0)
(7.33569 -0.000882604 0)
(7.33664 -0.00112003 0)
(7.3377 -0.00137569 0)
(7.33884 -0.00165054 0)
(7.34003 -0.00194183 0)
(7.34128 -0.00224884 0)
(7.34257 -0.00257172 0)
(7.34388 -0.00291088 0)
(7.34521 -0.00326695 0)
(7.34655 -0.00364086 0)
(7.3479 -0.00403369 0)
(7.34925 -0.00444674 0)
(7.35059 -0.00488145 0)
(7.35193 -0.00533943 0)
(7.35326 -0.0058224 0)
(7.35457 -0.00633221 0)
(7.35587 -0.00687077 0)
(7.35716 -0.00744001 0)
(7.35842 -0.00804188 0)
(7.35967 -0.00867829 0)
(7.3609 -0.00935105 0)
(7.3621 -0.0100618 0)
(7.36327 -0.010812 0)
(7.36442 -0.0116029 0)
(7.36554 -0.0124355 0)
(7.36663 -0.0133103 0)
(7.36768 -0.0142278 0)
(7.3687 -0.0151867 0)
(7.33301 -0.000119833 0)
(7.33318 -0.000352307 0)
(7.33353 -0.000588294 0)
(7.33406 -0.000838539 0)
(7.33474 -0.00110741 0)
(7.33557 -0.00139615 0)
(7.33651 -0.0017041 0)
(7.33755 -0.00202943 0)
(7.33868 -0.00237046 0)
(7.33986 -0.00272503 0)
(7.3411 -0.00309236 0)
(7.34237 -0.00347214 0)
(7.34367 -0.00386447 0)
(7.34498 -0.00426983 0)
(7.3463 -0.00468915 0)
(7.34763 -0.00512361 0)
(7.34895 -0.00557464 0)
(7.35026 -0.00604387 0)
(7.35157 -0.00653305 0)
(7.35286 -0.00704403 0)
(7.35413 -0.00757874 0)
(7.35539 -0.00813914 0)
(7.35663 -0.00872715 0)
(7.35784 -0.00934468 0)
(7.35903 -0.00999353 0)
(7.3602 -0.0106754 0)
(7.36134 -0.0113917 0)
(7.36245 -0.0121437 0)
(7.36352 -0.0129326 0)
(7.36457 -0.0137591 0)
(7.36558 -0.0146238 0)
(7.36655 -0.0155268 0)
(7.36749 -0.0164672 0)
(7.33302 -0.000197474 0)
(7.3332 -0.000611726 0)
(7.33357 -0.00105586 0)
(7.33409 -0.00152299 0)
(7.33476 -0.00199682 0)
(7.33556 -0.00246492 0)
(7.33648 -0.00292125 0)
(7.3375 -0.00336401 0)
(7.3386 -0.00379449 0)
(7.33976 -0.00421521 0)
(7.34097 -0.00462947 0)
(7.34222 -0.00504087 0)
(7.34349 -0.00545299 0)
(7.34478 -0.00586923 0)
(7.34607 -0.0062928 0)
(7.34737 -0.00672667 0)
(7.34867 -0.0071736 0)
(7.34995 -0.00763618 0)
(7.35122 -0.00811682 0)
(7.35248 -0.00861781 0)
(7.35371 -0.00914131 0)
(7.35493 -0.00968937 0)
(7.35612 -0.0102639 0)
(7.35729 -0.0108666 0)
(7.35843 -0.0114993 0)
(7.35954 -0.0121632 0)
(7.36062 -0.0128596 0)
(7.36166 -0.0135896 0)
(7.36267 -0.014354 0)
(7.36365 -0.0151533 0)
(7.36458 -0.0159878 0)
(7.36548 -0.0168576 0)
(7.36634 -0.0177616 0)
(7.333 -0.000221292 0)
(7.3331 -0.000621905 0)
(7.33339 -0.00101283 0)
(7.33388 -0.00142902 0)
(7.33454 -0.00188037 0)
(7.33535 -0.0023623 0)
(7.3363 -0.00286519 0)
(7.33735 -0.0033794 0)
(7.33848 -0.00389776 0)
(7.33966 -0.0044156 0)
(7.34089 -0.00493053 0)
(7.34215 -0.00544194 0)
(7.34343 -0.00595048 0)
(7.34471 -0.00645766 0)
(7.346 -0.00696551 0)
(7.34728 -0.00747644 0)
(7.34855 -0.00799299 0)
(7.34981 -0.00851778 0)
(7.35105 -0.00905343 0)
(7.35227 -0.00960249 0)
(7.35347 -0.0101674 0)
(7.35464 -0.0107505 0)
(7.35579 -0.0113539 0)
(7.3569 -0.0119797 0)
(7.35798 -0.0126295 0)
(7.35904 -0.0133052 0)
(7.36005 -0.0140079 0)
(7.36103 -0.0147388 0)
(7.36198 -0.0154989 0)
(7.36288 -0.0162887 0)
(7.36375 -0.0171086 0)
(7.36457 -0.0179589 0)
(7.36535 -0.0188386 0)
(7.33305 -0.000401867 0)
(7.3333 -0.0012733 0)
(7.33366 -0.00219636 0)
(7.33414 -0.0031028 0)
(7.33475 -0.00394194 0)
(7.3355 -0.00469778 0)
(7.33637 -0.00537383 0)
(7.33735 -0.00598061 0)
(7.33842 -0.00653075 0)
(7.33956 -0.0070368 0)
(7.34076 -0.00751029 0)
(7.34199 -0.00796128 0)
(7.34324 -0.00839827 0)
(7.3445 -0.00882834 0)
(7.34577 -0.00925736 0)
(7.34704 -0.00969021 0)
(7.34829 -0.0101309 0)
(7.34953 -0.010583 0)
(7.35075 -0.0110494 0)
(7.35194 -0.0115326 0)
(7.35311 -0.0120348 0)
(7.35425 -0.012558 0)
(7.35536 -0.0131039 0)
(7.35644 -0.013674 0)
(7.35748 -0.0142695 0)
(7.35848 -0.0148915 0)
(7.35945 -0.0155409 0)
(7.36038 -0.0162184 0)
(7.36126 -0.0169244 0)
(7.36211 -0.0176592 0)
(7.36291 -0.0184229 0)
(7.36367 -0.0192154 0)
(7.36438 -0.0200356 0)
(7.33293 -0.000136775 0)
(7.33282 -0.000325844 0)
(7.33298 -0.000577439 0)
(7.33345 -0.00101581 0)
(7.33417 -0.00162885 0)
(7.33508 -0.00235483 0)
(7.33612 -0.0031379 0)
(7.33725 -0.00393934 0)
(7.33845 -0.0047347 0)
(7.33968 -0.00550959 0)
(7.34094 -0.00625682 0)
(7.34222 -0.0069742 0)
(7.34349 -0.00766273 0)
(7.34477 -0.0083253 0)
(7.34603 -0.00896586 0)
(7.34728 -0.00958882 0)
(7.34851 -0.0101987 0)
(7.34971 -0.0108 0)
(7.35089 -0.0113969 0)
(7.35204 -0.0119933 0)
(7.35317 -0.0125928 0)
(7.35426 -0.0131986 0)
(7.35531 -0.0138137 0)
(7.35633 -0.0144406 0)
(7.35732 -0.0150816 0)
(7.35826 -0.0157387 0)
(7.35916 -0.0164133 0)
(7.36002 -0.017107 0)
(7.36084 -0.0178206 0)
(7.36162 -0.0185552 0)
(7.36235 -0.019311 0)
(7.36303 -0.0200886 0)
(7.36367 -0.0208872 0)
(7.33316 -0.000850618 0)
(7.33362 -0.0028382 0)
(7.33393 -0.0047853 0)
(7.3342 -0.00642306 0)
(7.33461 -0.00771085 0)
(7.33522 -0.0087122 0)
(7.33602 -0.00949671 0)
(7.33696 -0.0101217 0)
(7.33803 -0.0106333 0)
(7.33918 -0.0110674 0)
(7.34039 -0.0114511 0)
(7.34164 -0.0118045 0)
(7.34291 -0.0121422 0)
(7.34419 -0.0124747 0)
(7.34546 -0.0128097 0)
(7.34672 -0.0131525 0)
(7.34797 -0.0135073 0)
(7.34918 -0.013877 0)
(7.35037 -0.0142639 0)
(7.35153 -0.0146697 0)
(7.35265 -0.0150956 0)
(7.35374 -0.0155429 0)
(7.35479 -0.0160123 0)
(7.35579 -0.0165045 0)
(7.35676 -0.01702 0)
(7.35768 -0.0175593 0)
(7.35855 -0.0181225 0)
(7.35938 -0.01871 0)
(7.36016 -0.0193216 0)
(7.3609 -0.0199573 0)
(7.36159 -0.0206169 0)
(7.36223 -0.0213003 0)
(7.36282 -0.0220062 0)
(7.33266 0.000543388 0)
(7.33187 0.0018234 0)
(7.33191 0.00249542 0)
(7.33264 0.00222188 0)
(7.33371 0.0012957 0)
(7.33492 4.56467e-05 0)
(7.3362 -0.00132792 0)
(7.33751 -0.00271905 0)
(7.33883 -0.00406835 0)
(7.34015 -0.00534356 0)
(7.34146 -0.00653152 0)
(7.34275 -0.00763076 0)
(7.34401 -0.0086461 0)
(7.34526 -0.00958556 0)
(7.34648 -0.0104585 0)
(7.34768 -0.0112747 0)
(7.34885 -0.0120434 0)
(7.34999 -0.0127733 0)
(7.3511 -0.0134722 0)
(7.35217 -0.014147 0)
(7.35321 -0.014804 0)
(7.35421 -0.0154485 0)
(7.35518 -0.0160852 0)
(7.3561 -0.0167182 0)
(7.35699 -0.0173508 0)
(7.35783 -0.0179861 0)
(7.35863 -0.0186265 0)
(7.35939 -0.019274 0)
(7.36009 -0.0199304 0)
(7.36076 -0.0205968 0)
(7.36137 -0.0212743 0)
(7.36194 -0.0219636 0)
(7.36246 -0.0226646 0)
(7.33353 -0.00200409 0)
(7.33444 -0.00679001 0)
(7.33405 -0.0112535 0)
(7.33334 -0.0140454 0)
(7.33312 -0.015636 0)
(7.33345 -0.0165339 0)
(7.33417 -0.0169974 0)
(7.33515 -0.0171974 0)
(7.33631 -0.0172519 0)
(7.33759 -0.0172367 0)
(7.33893 -0.0171993 0)
(7.34032 -0.0171684 0)
(7.34171 -0.0171606 0)
(7.3431 -0.0171847 0)
(7.34447 -0.0172453 0)
(7.34581 -0.0173436 0)
(7.34711 -0.0174794 0)
(7.34838 -0.0176517 0)
(7.34961 -0.017859 0)
(7.35079 -0.0180995 0)
(7.35193 -0.0183717 0)
(7.35302 -0.018674 0)
(7.35406 -0.019005 0)
(7.35506 -0.0193634 0)
(7.35601 -0.0197481 0)
(7.3569 -0.020158 0)
(7.35775 -0.0205922 0)
(7.35854 -0.0210499 0)
(7.35929 -0.0215302 0)
(7.35998 -0.0220324 0)
(7.36063 -0.0225559 0)
(7.36122 -0.0231 0)
(7.36176 -0.0236636 0)
(7.33179 0.00340768 0)
(7.32899 0.00924873 0)
(7.32947 0.0119083 0)
(7.33184 0.0116495 0)
(7.33397 0.00959322 0)
(7.33576 0.00693342 0)
(7.33738 0.00417208 0)
(7.33885 0.00149914 0)
(7.34021 -0.000983971 0)
(7.3415 -0.00323494 0)
(7.34273 -0.00525072 0)
(7.34392 -0.00704627 0)
(7.34508 -0.00864371 0)
(7.34623 -0.0100675 0)
(7.34735 -0.0113417 0)
(7.34847 -0.0124886 0)
(7.34956 -0.0135283 0)
(7.35065 -0.0144781 0)
(7.35171 -0.0153532 0)
(7.35275 -0.0161666 0)
(7.35376 -0.0169293 0)
(7.35475 -0.0176509 0)
(7.35571 -0.0183393 0)
(7.35664 -0.0190013 0)
(7.35753 -0.0196425 0)
(7.35839 -0.020268 0)
(7.3592 -0.0208817 0)
(7.35998 -0.0214869 0)
(7.36071 -0.0220866 0)
(7.3614 -0.0226829 0)
(7.36204 -0.0232778 0)
(7.36264 -0.0238725 0)
(7.36318 -0.0244678 0)
(7.33408 -0.00611409 0)
(7.33406 -0.0189185 0)
(7.33032 -0.0269302 0)
(7.32666 -0.0304122 0)
(7.32511 -0.0311611 0)
(7.32535 -0.0307028 0)
(7.32645 -0.0297094 0)
(7.32799 -0.0285063 0)
(7.3298 -0.0272905 0)
(7.33178 -0.026165 0)
(7.33383 -0.0251736 0)
(7.33591 -0.0243305 0)
(7.33797 -0.0236343 0)
(7.34002 -0.0230757 0)
(7.34202 -0.0226419 0)
(7.34397 -0.0223192 0)
(7.34587 -0.0220943 0)
(7.34772 -0.0219549 0)
(7.3495 -0.0218901 0)
(7.35123 -0.0218903 0)
(7.35289 -0.0219474 0)
(7.35449 -0.0220544 0)
(7.35602 -0.0222052 0)
(7.35749 -0.022395 0)
(7.35889 -0.0226195 0)
(7.36023 -0.0228751 0)
(7.3615 -0.0231587 0)
(7.36271 -0.0234678 0)
(7.36385 -0.0238003 0)
(7.36493 -0.0241542 0)
(7.36595 -0.024528 0)
(7.3669 -0.0249205 0)
(7.36779 -0.02533 0)
(7.32967 0.0198646 0)
(7.32498 0.0370194 0)
(7.32933 0.0377124 0)
(7.33514 0.0323187 0)
(7.33883 0.0259138 0)
(7.34107 0.0196208 0)
(7.34293 0.0137453 0)
(7.34473 0.00848696 0)
(7.34654 0.00389134 0)
(7.34843 -8.80104e-05 0)
(7.35042 -0.00352033 0)
(7.3525 -0.00647709 0)
(7.35466 -0.00902709 0)
(7.35688 -0.0112327 0)
(7.35913 -0.0131482 0)
(7.3614 -0.0148199 0)
(7.36368 -0.0162871 0)
(7.36594 -0.0175828 0)
(7.36817 -0.0187345 0)
(7.37037 -0.0197654 0)
(7.37252 -0.020695 0)
(7.37461 -0.0215393 0)
(7.37665 -0.0223121 0)
(7.37861 -0.0230247 0)
(7.3805 -0.0236867 0)
(7.38232 -0.0243062 0)
(7.38407 -0.0248902 0)
(7.38573 -0.0254444 0)
(7.38732 -0.0259738 0)
(7.38882 -0.0264827 0)
(7.39024 -0.0269747 0)
(7.39158 -0.0274526 0)
(7.39283 -0.0279202 0)
(7.32507 -0.0330732 0)
(7.29738 -0.0587447 0)
(7.2781 -0.0616576 0)
(7.27379 -0.0592645 0)
(7.2804 -0.0557398 0)
(7.29184 -0.0516777 0)
(7.3051 -0.0477203 0)
(7.31885 -0.044197 0)
(7.33231 -0.0411562 0)
(7.34508 -0.0385793 0)
(7.357 -0.0364288 0)
(7.368 -0.0346527 0)
(7.37811 -0.0331969 0)
(7.38735 -0.0320119 0)
(7.39579 -0.0310543 0)
(7.40348 -0.0302867 0)
(7.41048 -0.0296777 0)
(7.41685 -0.029201 0)
(7.42263 -0.0288349 0)
(7.42788 -0.0285615 0)
(7.43264 -0.028366 0)
(7.43694 -0.0282362 0)
(7.44083 -0.0281623 0)
(7.44434 -0.0281359 0)
(7.4475 -0.0281501 0)
(7.45032 -0.0281993 0)
(7.45284 -0.0282787 0)
(7.45508 -0.0283843 0)
(7.45706 -0.0285127 0)
(7.45879 -0.028661 0)
(7.4603 -0.0288265 0)
(7.46159 -0.0290069 0)
(7.4627 -0.0291992 0)
(7.33915 0.134727 0)
(7.37621 0.127078 0)
(7.39344 0.0872191 0)
(7.38983 0.0533447 0)