/*--------------------------------*- C++ -*----------------------------------*\
  =========                 |
  \\      /  F ield         | OpenFOAM: The Open Source CFD Toolbox
   \\    /   O peration     | Website:  https://openfoam.org
    \\  /    A nd           | Version:  10
     \\/     M anipulation  |
\*---------------------------------------------------------------------------*/
FoamFile
{
    format      ascii;
    class       volScalarField;
    location    "0.015";
    object      epsilon;
}
// * * * * * * * * * * * * * * * * * * * * * * * * * * * * * * * * * * * * * //

dimensions      [0 2 -3 0 0 0 0];

internalField   nonuniform List<scalar> 
6820
(
23.2969
22.5752
21.9096
21.286
20.7031
20.165
19.6754
19.236
18.8459
18.5028
18.203
17.9427
17.7176
17.5238
17.3573
17.2147
17.0926
16.9881
16.8982
16.8208
16.7542
16.6967
16.6471
16.6041
16.5667
16.5344
16.5059
16.4852
16.4569
16.4986
16.2696
17.3436
12.5464
5.03371
6.81688
7.83603
8.46156
8.88765
9.2142
9.49421
9.75336
10.003
10.2474
10.4877
10.7235
10.9538
11.1772
11.3923
11.5976
11.7914
11.9724
12.1395
12.2924
12.4322
12.5605
12.6787
12.7878
12.8879
12.979
13.0606
13.1321
13.1915
13.2464
13.2597
13.3748
13.1042
3.70362
4.1474
4.56521
4.91349
5.19593
5.42714
5.62096
5.7884
5.93766
6.07459
6.2032
6.32611
6.44491
6.56049
6.67324
6.78321
6.8902
6.99389
7.09388
7.18981
7.28132
7.36779
7.44866
7.52345
7.59171
7.65303
7.7069
7.75331
7.79127
7.82307
7.84251
7.86035
7.85087
3.54004
3.61082
3.72447
3.85327
3.98038
4.09799
4.20379
4.2981
4.38235
4.45823
4.52736
4.59114
4.65069
4.70689
4.76036
4.81156
4.86076
4.90821
4.95396
4.99779
5.03961
5.07929
5.11663
5.15134
5.18312
5.21164
5.23663
5.25804
5.27586
5.29066
5.30264
5.31194
5.32051
3.52064
3.50153
3.50501
3.5261
3.55853
3.59681
3.63698
3.67662
3.71439
3.74973
3.78249
3.81278
3.84083
3.86687
3.89117
3.91395
3.93543
3.95568
3.97478
3.99281
4.0098
4.02576
4.04065
4.05439
4.06685
4.07792
4.08755
4.09584
4.10309
4.10986
4.11702
4.12487
4.13568
3.51939
3.48243
3.45298
3.43229
3.41993
3.41446
3.41408
3.41718
3.42244
3.42892
3.43594
3.44307
3.45006
3.45674
3.46306
3.46897
3.47446
3.47953
3.48421
3.48852
3.4925
3.49615
3.49949
3.50248
3.5051
3.50733
3.50922
3.51098
3.51305
3.51603
3.5209
3.52829
3.53987
3.51943
3.47973
3.44284
3.40955
3.38036
3.35541
3.33442
3.31692
3.30235
3.29014
3.2798
3.27091
3.26314
3.25625
3.25002
3.24431
3.23902
3.23406
3.2294
3.22502
3.2209
3.21704
3.21344
3.21007
3.20693
3.20404
3.20151
3.19957
3.19869
3.19952
3.20303
3.21004
3.22188
3.51947
3.47942
3.44108
3.4047
3.37052
3.33873
3.3094
3.28252
3.25796
3.23555
3.21508
3.19634
3.17912
3.16323
3.14852
3.13485
3.1221
3.11018
3.09904
3.08864
3.07893
3.06993
3.06159
3.05392
3.0469
3.04057
3.03503
3.03056
3.0276
3.02684
3.02919
3.03562
3.04727
3.51947
3.4794
3.44085
3.40386
3.36846
3.3347
3.30261
3.27222
3.24354
3.21652
3.1911
3.16722
3.14478
3.1237
3.10389
3.08526
3.06775
3.05128
3.03583
3.02135
3.00784
2.99527
2.98364
2.97294
2.96317
2.95435
2.94661
2.94021
2.93561
2.93346
2.93469
2.9403
2.95139
3.51947
3.4794
3.44082
3.40372
3.36806
3.33382
3.30097
3.26951
3.2394
3.21065
3.18323
3.15709
3.13223
3.10858
3.08613
3.06482
3.04463
3.02552
3.00749
2.99051
2.97459
2.95973
2.94594
2.93321
2.92154
2.91097
2.90162
2.89375
2.88781
2.88446
2.8846
2.88926
2.89954
3.51947
3.47939
3.44081
3.40369
3.36798
3.33363
3.3006
3.26884
3.23833
3.20902
3.18089
3.15392
3.12809
3.10337
3.07974
3.05718
3.03569
3.01524
2.99584
2.9775
2.96022
2.94404
2.92895
2.91495
2.90207
2.89034
2.87987
2.87092
2.86393
2.85957
2.85871
2.86242
2.87177
3.51947
3.47939
3.4408
3.40367
3.36795
3.33358
3.3005
3.26866
3.23803
3.20856
3.18022
3.15298
3.12681
3.10168
3.0776
3.05453
3.03247
3.01141
2.99138
2.97236
2.9544
2.93751
2.9217
2.90698
2.89337
2.88089
2.86967
2.85995
2.85216
2.84696
2.84523
2.84802
2.85641
3.51947
3.47939
3.4408
3.40366
3.36793
3.33354
3.30045
3.26859
3.23792
3.2084
3.17999
3.15265
3.12636
3.1011
3.07684
3.05357
3.03128
3.00997
2.98965
2.97033
2.95202
2.93476
2.91857
2.90343
2.88937
2.87642
2.86468
2.85438
2.84597
2.84007
2.83756
2.83951
2.84696
3.51947
3.47939
3.4408
3.40366
3.36792
3.33352
3.30041
3.26853
3.23784
3.2083
3.17985
3.15248
3.12614
3.10082
3.07649
3.05313
3.03074
3.0093
2.98884
2.96935
2.95087
2.9334
2.91697
2.90157
2.8872
2.8739
2.86177
2.85101
2.84207
2.83556
2.83236
2.83351
2.84007
3.51947
3.47939
3.44079
3.40365
3.3679
3.3335
3.30038
3.26849
3.23778
3.20821
3.17975
3.15234
3.12597
3.10061
3.07623
3.05282
3.03036
3.00885
2.9883
2.9687
2.95009
2.93247
2.91587
2.90026
2.88565
2.87207
2.85959
2.84843
2.839
2.83194
2.82809
2.8285
2.83422
3.51947
3.47939
3.44079
3.40365
3.3679
3.33348
3.30035
3.26844
3.23772
3.20814
3.17965
3.15222
3.12582
3.10042
3.076
3.05254
3.03003
3.00845
2.98782
2.96813
2.94941
2.93166
2.9149
2.89911
2.88428
2.87043
2.85763
2.84609
2.83622
2.82862
2.82417
2.82388
2.82881
3.51947
3.47939
3.44079
3.40364
3.36789
3.33347
3.30032
3.26841
3.23767
3.20807
3.17955
3.1521
3.12567
3.10024
3.07578
3.05227
3.0297
3.00806
2.98735
2.96758
2.94875
2.93087
2.91396
2.89799
2.88294
2.86883
2.85573
2.84383
2.83352
2.82543
2.8204
2.81946
2.82365
3.51947
3.47939
3.44079
3.40364
3.36788
3.33345
3.3003
3.26837
3.23762
3.208
3.17947
3.15199
3.12553
3.10006
3.07556
3.052
3.02938
3.00768
2.98689
2.96702
2.94809
2.93009
2.91302
2.89688
2.88162
2.86726
2.85385
2.8416
2.83088
2.82231
2.81674
2.8152
2.81871
3.51947
3.47939
3.44079
3.40364
3.36788
3.33344
3.30028
3.26834
3.23757
3.20793
3.17938
3.15188
3.12539
3.09989
3.07534
3.05174
3.02906
3.00729
2.98643
2.96647
2.94743
2.92931
2.9121
2.89577
2.88031
2.8657
2.852
2.83941
2.8283
2.81928
2.81321
2.81111
2.81399
3.51948
3.47939
3.4408
3.40364
3.36787
3.33343
3.30026
3.26831
3.23753
3.20788
3.1793
3.15177
3.12525
3.09972
3.07514
3.05149
3.02875
3.00692
2.98598
2.96593
2.94679
2.92854
2.91118
2.89468
2.87902
2.86417
2.85019
2.83727
2.82579
2.81635
2.80982
2.8072
2.80952
3.51948
3.4794
3.4408
3.40364
3.36787
3.33343
3.30025
3.26829
3.23749
3.20782
3.17923
3.15167
3.12513
3.09955
3.07493
3.05124
3.02845
3.00655
2.98553
2.9654
2.94615
2.92778
2.91028
2.89362
2.87776
2.86268
2.84844
2.83521
2.82337
2.81354
2.80658
2.8035
2.80531
3.51948
3.4794
3.4408
3.40364
3.36787
3.33342
3.30024
3.26826
3.23746
3.20777
3.17915
3.15158
3.125
3.0994
3.07474
3.05099
3.02815
3.00619
2.9851
2.96488
2.94553
2.92705
2.90941
2.89259
2.87654
2.86124
2.84674
2.83322
2.82106
2.81087
2.80351
2.80001
2.80137
3.51948
3.4794
3.4408
3.40364
3.36787
3.33341
3.30022
3.26824
3.23742
3.20772
3.17909
3.15149
3.12488
3.09925
3.07455
3.05076
3.02786
3.00584
2.98468
2.96438
2.94493
2.92634
2.90857
2.89159
2.87537
2.85986
2.84512
2.83133
2.81886
2.80834
2.80062
2.79673
2.79769
3.51948
3.4794
3.4408
3.40365
3.36787
3.33341
3.30021
3.26822
3.23739
3.20767
3.17902
3.1514
3.12477
3.0991
3.07436
3.05053
3.02759
3.00551
2.98428
2.9639
2.94436
2.92565
2.90776
2.89064
2.87424
2.85855
2.84358
2.82954
2.81679
2.80596
2.79791
2.79368
2.79427
3.51948
3.4794
3.44081
3.40365
3.36787
3.3334
3.3002
3.2682
3.23736
3.20763
3.17896
3.15131
3.12466
3.09896
3.07419
3.05032
3.02732
3.00518
2.98389
2.96343
2.94381
2.925
2.90699
2.88973
2.87318
2.8573
2.84213
2.82785
2.81484
2.80373
2.79538
2.79084
2.7911
3.51948
3.47941
3.44081
3.40365
3.36786
3.3334
3.30019
3.26818
3.23733
3.20758
3.1789
3.15123
3.12456
3.09883
3.07402
3.05011
3.02707
3.00488
2.98352
2.96299
2.94329
2.92438
2.90626
2.88888
2.87218
2.85613
2.84077
2.82628
2.81303
2.80166
2.79305
2.78822
2.78818
3.51948
3.47941
3.44081
3.40365
3.36786
3.33339
3.30018
3.26817
3.2373
3.20754
3.17884
3.15116
3.12446
3.0987
3.07386
3.04991
3.02683
3.00459
2.98317
2.96258
2.94279
2.9238
2.90558
2.88808
2.87124
2.85504
2.83951
2.82481
2.81135
2.79975
2.79089
2.7858
2.78549
3.51948
3.47941
3.44081
3.40365
3.36786
3.33339
3.30017
3.26815
3.23727
3.2075
3.17879
3.15108
3.12436
3.09858
3.07371
3.04973
3.0266
3.00431
2.98285
2.96219
2.94233
2.92326
2.90494
2.88733
2.87037
2.85403
2.83834
2.82347
2.80981
2.798
2.78891
2.78359
2.78303
3.51948
3.47941
3.44081
3.40365
3.36786
3.33338
3.30016
3.26813
3.23725
3.20747
3.17874
3.15102
3.12427
3.09847
3.07357
3.04955
3.02639
3.00406
2.98254
2.96182
2.9419
2.92275
2.90435
2.88664
2.86957
2.8531
2.83726
2.82223
2.8084
2.79639
2.7871
2.78157
2.78079
3.51948
3.47941
3.44081
3.40364
3.36785
3.33337
3.30014
3.26811
3.23722
3.20742
3.17868
3.15095
3.12418
3.09836
3.07344
3.04939
3.02619
3.00382
2.98225
2.96149
2.9415
2.92228
2.9038
2.88601
2.86884
2.85226
2.83629
2.82112
2.80713
2.79495
2.78548
2.77975
2.77876
3.51948
3.47941
3.44081
3.40365
3.36786
3.33338
3.30015
3.26811
3.23721
3.20741
3.17865
3.1509
3.12412
3.09827
3.07333
3.04925
3.02602
3.00361
2.98201
2.96119
2.94115
2.92188
2.90333
2.88545
2.86819
2.85151
2.83543
2.82013
2.806
2.79367
2.78403
2.77812
2.77695
3.51948
3.4794
3.4408
3.40363
3.36784
3.33335
3.30012
3.26808
3.23718
3.20737
3.1786
3.15084
3.12405
3.09819
3.07323
3.04913
3.02587
3.00344
2.9818
2.96094
2.94086
2.92153
2.90293
2.88499
2.86766
2.85089
2.83472
2.81932
2.80507
2.79262
2.78284
2.77678
2.77544
3.51948
3.47942
3.44084
3.4037
3.36792
3.33344
3.30021
3.26817
3.23726
3.20744
3.17867
3.1509
3.1241
3.09823
3.07325
3.04914
3.02587
3.00341
2.98176
2.96088
2.94077
2.92142
2.90278
2.8848
2.86742
2.8506
2.83437
2.8189
2.80457
2.79203
2.78216
2.77599
2.77452
3.51947
3.47939
3.4408
3.40365
3.36788
3.33343
3.30022
3.2682
3.23732
3.20753
3.17879
3.15105
3.12428
3.09845
3.07351
3.04946
3.02625
3.00386
2.98227
2.96147
2.94145
2.92217
2.90362
2.88573
2.86845
2.85172
2.83558
2.8202
2.80596
2.79349
2.78368
2.77757
2.77612
3.5195
3.47952
3.44104
3.40399
3.36829
3.33389
3.30076
3.26884
3.23809
3.20846
3.17992
3.15244
3.12596
3.10047
3.07591
3.05228
3.02952
3.00762
2.98655
2.96629
2.94682
2.92812
2.91014
2.89284
2.87613
2.85998
2.8444
2.82956
2.81585
2.80388
2.79454
2.78885
2.78778
3.51949
3.4795
3.44114
3.40442
3.36925
3.33556
3.30333
3.27249
3.24302
3.21488
3.188
3.16235
3.13786
3.11449
3.09217
3.07084
3.05047
3.03098
3.01235
2.99452
2.97745
2.96112
2.94545
2.93039
2.91585
2.90179
2.88821
2.87528
2.86337
2.85309
2.84532
2.84106
2.84131
3.51972
3.48135
3.44573
3.4128
3.38258
3.35502
3.33
3.30732
3.28677
3.26814
3.25121
3.23577
3.22163
3.20862
3.19658
3.18537
3.17487
3.16497
3.15558
3.14662
3.13806
3.12983
3.1219
3.11421
3.1067
3.09933
3.09212
3.08525
3.07907
3.0742
3.0715
3.07202
3.07676
3.52533
3.51306
3.51434
3.52628
3.54592
3.57123
3.60061
3.63285
3.66705
3.70252
3.73875
3.77534
3.812
3.84853
3.8848
3.92073
3.95629
3.99152
4.02646
4.06119
4.09583
4.13047
4.16518
4.20002
4.23496
4.26994
4.30488
4.33977
4.37476
4.41021
4.44679
4.48547
4.52728
3.83323
4.36656
4.85213
5.32505
5.79695
6.26316
6.71966
7.16516
7.59983
8.02468
8.44109
8.85058
9.25466
9.65473
10.052
10.4476
10.8423
11.2368
11.6314
12.0262
12.4209
12.8148
13.2071
13.5961
13.9802
14.357
14.7243
15.0796
15.421
15.7468
16.0563
16.3499
16.6286
30.2663
32.7714
35.3134
37.8661
40.4156
42.953
45.4698
47.958
50.4102
52.8197
55.1804
57.4868
59.7339
61.9175
64.034
66.0801
68.0532
69.951
71.7716
73.5136
75.1759
76.7577
78.2583
79.6773
81.0147
82.271
83.448
84.5484
85.5755
86.5326
87.4218
88.2415
88.9902
76.005
240.432
466.549
684.409
826.76
865.656
816.741
709.813
567.348
404.696
242.548
113.054
41.093
18.551
16.8233
19.5935
22.447
24.5564
25.9145
26.6715
26.9615
26.8615
26.3911
25.5307
24.2485
22.5319
20.4166
18.0058
15.4658
12.9948
10.7723
8.91297
7.4473
6.33644
5.50732
4.88553
4.41258
4.0479
3.76382
3.54038
3.36269
3.21967
3.10341
3.00827
2.9302
2.86608
2.81347
2.77037
2.73516
2.7065
2.68327
2.66452
2.64947
2.63747
2.62797
2.6205
2.61468
2.61019
2.60677
2.6042
2.60231
2.60095
2.60001
2.59938
2.599
2.59879
2.59872
2.59875
2.59883
2.59896
2.59911
2.59926
2.59942
2.59957
2.5997
2.59982
2.59992
2.6
2.60006
2.6001
2.60012
2.60012
2.60011
2.60008
2.60004
2.59999
2.59993
2.59985
2.59977
2.59968
2.59958
2.59948
2.59937
2.59926
2.59915
2.59903
2.59891
2.59879
2.59869
2.59846
13.7977
19.8856
36.2617
67.2875
110.986
154.452
180.088
175.931
142.46
92.8589
47.5182
21.7333
13.827
13.6196
15.4733
17.6992
19.6856
21.2023
22.2332
22.8523
23.1396
23.1424
22.8652
22.2788
21.3417
20.0272
18.3507
16.3874
14.2706
12.1671
10.235
8.5832
7.25192
6.22131
5.43811
4.84305
4.38676
4.03324
3.75699
3.5392
3.36569
3.22582
3.11191
3.01846
2.94148
2.87795
2.8255
2.78223
2.74658
2.7173
2.69331
2.67374
2.65784
2.64498
2.63464
2.62636
2.61977
2.61458
2.6105
2.60733
2.6049
2.60304
2.60165
2.60062
2.59988
2.59935
2.59899
2.59875
2.59861
2.59853
2.59849
2.59849
2.5985
2.59852
2.59854
2.59856
2.59857
2.59857
2.59856
2.59853
2.5985
2.59846
2.5984
2.59834
2.59826
2.59818
2.59809
2.598
2.59789
2.59779
2.59767
2.59756
2.59744
2.59732
2.5972
2.59707
2.59694
2.59681
2.59671
2.59647
7.77638
7.93925
8.80108
10.8205
14.1085
17.8959
20.4991
20.2345
17.0714
13.1905
10.8643
10.3639
10.9211
12.151
13.7926
15.5082
17.0207
18.1945
19.0196
19.547
19.8338
19.9137
19.7853
19.4166
18.7619
17.785
16.4844
14.9106
13.1675
11.3928
9.724
8.2634
7.05839
6.10483
5.36667
4.79818
4.35844
4.0159
3.74725
3.53493
3.36547
3.22874
3.11728
3.02571
2.9501
2.88747
2.83553
2.79243
2.75668
2.72707
2.7026
2.68243
2.66586
2.65228
2.6412
2.63219
2.6249
2.61902
2.61431
2.61054
2.60754
2.60517
2.60331
2.60185
2.60071
2.59983
2.59914
2.59862
2.59821
2.5979
2.59765
2.59746
2.5973
2.59717
2.59706
2.59696
2.59686
2.59677
2.59667
2.59658
2.59648
2.59638
2.59627
2.59616
2.59605
2.59593
2.59581
2.59569
2.59556
2.59543
2.5953
2.59517
2.59504
2.5949
2.59477
2.59463
2.5945
2.59436
2.59425
2.594
5.30915
5.31331
5.38874
5.5922
5.96305
6.45602
6.92833
7.23782
7.38749
7.53351
7.85365
8.47518
9.44597
10.705
12.1076
13.4773
14.6655
15.5988
16.2764
16.7356
17.019
17.1521
17.1319
16.9283
16.4955
15.7924
14.805
13.5632
12.1447
10.6609
9.23002
7.94616
6.86102
5.98284
5.29004
4.74889
4.32627
3.995
3.73405
3.52718
3.36176
3.22815
3.11919
3.02962
2.95556
2.8941
2.84296
2.80035
2.76482
2.7352
2.71054
2.69004
2.67303
2.65894
2.64731
2.63772
2.62983
2.62337
2.61809
2.61377
2.61026
2.60741
2.60509
2.60321
2.60168
2.60044
2.59944
2.59862
2.59794
2.59739
2.59692
2.59653
2.5962
2.59591
2.59566
2.59543
2.59522
2.59502
2.59484
2.59466
2.5945
2.59433
2.59417
2.59401
2.59385
2.5937
2.59354
2.59339
2.59324
2.59309
2.59294
2.59279
2.59264
2.59249
2.59234
2.5922
2.59205
2.59191
2.59179
2.59153
4.14492
4.16268
4.2115
4.31043
4.4682
4.68335
4.94805
5.25813
5.62659
6.08627
6.68084
7.44776
8.39379
9.47928
10.6189
11.7049
12.6474
13.4024
13.9706
14.378
14.6556
14.8228
14.8772
14.7928
14.5274
14.039
13.3053
12.3401
11.1986
9.96921
8.75124
7.62994
6.65847
5.85421
5.20738
4.6946
4.28994
3.97043
3.71743
3.5161
3.35473
3.22422
3.11775
3.0302
2.9578
2.89764
2.8475
2.80561
2.77056
2.74121
2.71664
2.69607
2.67887
2.6645
2.65252
2.64253
2.63423
2.62732
2.62159
2.61684
2.6129
2.60963
2.60692
2.60468
2.60281
2.60125
2.59995
2.59885
2.59793
2.59715
2.59648
2.5959
2.5954
2.59496
2.59457
2.59421
2.5939
2.5936
2.59333
2.59308
2.59284
2.59261
2.5924
2.59219
2.59199
2.5918
2.59161
2.59143
2.59125
2.59108
2.59091
2.59074
2.59058
2.59042
2.59026
2.5901
2.58995
2.58979
2.58967
2.5894
3.55634
3.58324
3.63152
3.71497
3.84449
4.02801
4.2713
4.58019
4.96426
5.43876
6.02072
6.7202
7.53032
8.41871
9.32757
10.1883
10.9443
11.5664
12.0534
12.4216
12.6923
12.88
12.9832
12.9809
12.8368
12.5112
11.9776
11.2377
10.3287
9.31842
8.28902
7.31594
6.45155
5.71937
5.11888
4.63547
4.24962
3.94247
3.69775
3.50213
3.34483
3.21741
3.11337
3.02781
2.95705
2.89824
2.84919
2.80815
2.77375
2.74486
2.72059
2.70017
2.68301
2.66858
2.65645
2.64627
2.63771
2.63053
2.6245
2.61944
2.61519
2.61161
2.60861
2.60607
2.60393
2.60211
2.60057
2.59925
2.59812
2.59715
2.5963
2.59556
2.59492
2.59434
2.59383
2.59337
2.59296
2.59258
2.59223
2.59191
2.59161
2.59133
2.59107
2.59082
2.59058
2.59035
2.59014
2.58993
2.58973
2.58953
2.58935
2.58916
2.58899
2.58881
2.58864
2.58848
2.58832
2.58816
2.58802
2.58775
3.24159
3.27472
3.32816
3.41305
3.53849
3.71147
3.93829
4.2257
4.58137
5.0131
5.52658
6.12176
6.78817
7.50115
8.22267
8.90918
9.52393
10.0461
10.4719
10.8099
11.0733
11.2722
11.4056
11.4573
11.3978
11.1919
10.812
10.2518
9.53434
8.7102
7.84578
7.00648
6.24198
5.57945
5.02525
4.57196
4.20573
3.91152
3.67547
3.48576
3.33264
3.20828
3.10662
3.02299
2.9538
2.89631
2.84834
2.8082
2.77452
2.74621
2.72236
2.70225
2.68529
2.67096
2.65887
2.64864
2.64
2.6327
2.62651
2.62128
2.61684
2.61307
2.60987
2.60714
2.6048
2.60281
2.60109
2.59961
2.59832
2.59721
2.59623
2.59537
2.59461
2.59394
2.59333
2.59279
2.5923
2.59185
2.59145
2.59107
2.59072
2.5904
2.5901
2.58981
2.58955
2.58929
2.58905
2.58882
2.5886
2.58839
2.58819
2.588
2.58781
2.58763
2.58745
2.58728
2.58711
2.58694
2.5868
2.58653
3.06823
3.10444
3.16027
3.2443
3.36422
3.52624
3.73562
3.99687
4.31383
4.68928
5.12384
5.61432
6.15161
6.719
7.29254
7.84491
8.35176
8.79714
9.17517
9.48836
9.7437
9.94713
10.0977
10.1835
10.1809
10.0604
9.79581
9.37623
8.81409
8.14584
7.42403
6.70414
6.03188
5.43591
4.92743
4.50469
4.15874
3.87802
3.65104
3.4675
3.31867
3.19742
3.09811
3.01632
2.94863
2.89238
2.84546
2.80619
2.77324
2.74552
2.72216
2.70244
2.68577
2.67166
2.65971
2.64958
2.64097
2.63367
2.62745
2.62216
2.61764
2.61378
2.61048
2.60764
2.6052
2.6031
2.60128
2.59969
2.59831
2.5971
2.59604
2.5951
2.59427
2.59353
2.59286
2.59226
2.59172
2.59123
2.59078
2.59036
2.58998
2.58963
2.5893
2.58899
2.5887
2.58843
2.58817
2.58793
2.5877
2.58748
2.58726
2.58706
2.58686
2.58668
2.58649
2.58631
2.58614
2.58597
2.58583
2.58555
2.97245
3.00975
3.06635
3.14883
3.2631
3.41367
3.60382
3.83576
4.11067
4.42851
4.7877
5.18466
5.61312
6.06316
6.52087
6.96953
7.39263
7.77724
8.11595
8.40709
8.65288
8.85596
9.01497
9.12081
9.15536
9.09441
8.91468
8.60325
8.16519
7.62583
7.02586
6.41142
5.82341
5.29033
4.82646
4.43435
4.10912
3.84238
3.62485
3.44775
3.30338
3.18532
3.08836
3.00838
2.94213
2.88705
2.84109
2.80264
2.77037
2.74324
2.72036
2.70105
2.68472
2.67088
2.65914
2.64917
2.64069
2.63346
2.6273
2.62203
2.61752
2.61366
2.61033
2.60746
2.60499
2.60284
2.60097
2.59934
2.59791
2.59666
2.59555
2.59457
2.5937
2.59292
2.59222
2.59159
2.59102
2.5905
2.59002
2.58959
2.58918
2.58881
2.58847
2.58815
2.58785
2.58756
2.5873
2.58704
2.5868
2.58658
2.58636
2.58615
2.58595
2.58575
2.58557
2.58539
2.58521
2.58504
2.5849
2.58461
2.91999
2.95704
3.01297
3.09279
3.20072
3.3396
3.51081
3.71447
3.94961
4.21447
4.50681
4.82412
5.16335
5.52008
5.88732
6.2552
6.61213
6.94711
7.25187
7.52203
7.75653
7.95549
8.1169
8.23356
8.29148
8.2713
8.15313
7.92381
7.58371
7.14974
6.65279
6.1305
5.61861
5.14428
4.7234
4.36162
4.05734
3.80495
3.59722
3.42683
3.28713
3.17236
3.07781
2.99963
2.93478
2.88081
2.83576
2.79806
2.76643
2.73984
2.71743
2.69851
2.68251
2.66895
2.65745
2.64768
2.63936
2.63226
2.6262
2.62101
2.61656
2.61274
2.60945
2.6066
2.60413
2.60199
2.60012
2.59849
2.59705
2.59579
2.59467
2.59368
2.59279
2.592
2.59129
2.59065
2.59006
2.58953
2.58905
2.5886
2.58819
2.58782
2.58746
2.58714
2.58683
2.58654
2.58627
2.58602
2.58577
2.58554
2.58532
2.58511
2.58491
2.58471
2.58452
2.58434
2.58416
2.58399
2.58385
2.58356
2.89122
2.9272
2.98153
3.05801
3.15943
3.28702
3.44044
3.61803
3.81734
4.03574
4.27118
4.52272
4.79028
5.07353
5.37012
5.67451
5.97823
6.27161
6.54607
6.79567
7.01728
7.20924
7.3689
7.49023
7.56226
7.5696
7.49569
7.32822
7.0648
6.71626
6.30562
5.86311
5.41932
4.99926
4.61932
4.28721
4.00388
3.76605
3.5684
3.405
3.27015
3.15882
3.06675
2.99041
2.92695
2.87407
2.82989
2.7929
2.76186
2.73576
2.71378
2.69522
2.67954
2.66626
2.65499
2.64542
2.63727
2.63033
2.62439
2.61931
2.61495
2.6112
2.60797
2.60517
2.60275
2.60064
2.5988
2.59719
2.59577
2.59452
2.59341
2.59243
2.59155
2.59076
2.59005
2.58941
2.58883
2.58831
2.58782
2.58738
2.58697
2.58659
2.58624
2.58591
2.5856
2.58532
2.58505
2.58479
2.58454
2.58431
2.58409
2.58388
2.58368
2.58348
2.58329
2.58311
2.58293
2.58276
2.58261
2.58233
2.8747
2.90918
2.96137
3.03416
3.12912
3.24611
3.38332
3.53771
3.7058
3.88465
4.07285
4.27105
4.48163
4.70719
4.9484
5.20239
5.46265
5.72054
5.96753
6.19695
6.4045
6.58737
6.74244
6.86438
6.94433
6.97001
6.9278
6.80674
6.60306
6.32336
5.98454
5.61054
5.2271
4.85665
4.51525
4.2118
3.94916
3.726
3.53863
3.38242
3.25262
3.14488
3.05539
2.98094
2.91891
2.86711
2.82379
2.78748
2.757
2.73137
2.70977
2.69156
2.67616
2.66313
2.65209
2.64271
2.63474
2.62794
2.62214
2.61717
2.61291
2.60925
2.60609
2.60336
2.601
2.59894
2.59714
2.59557
2.59418
2.59296
2.59188
2.59091
2.59005
2.58928
2.58859
2.58796
2.58739
2.58687
2.58639
2.58596
2.58555
2.58518
2.58483
2.58451
2.5842
2.58392
2.58365
2.58339
2.58315
2.58292
2.5827
2.58249
2.58229
2.58209
2.5819
2.58172
2.58154
2.58137
2.58122
2.58094
2.86403
2.89682
2.94665
3.01568
3.10447
3.21175
3.33448
3.4686
3.60998
3.75571
3.90517
4.06051
4.226
4.40623
4.60374
4.8173
5.04163
5.26891
5.49091
5.70077
5.89363
6.06605
6.2146
6.33443
6.41817
6.45586
6.43634
6.35012
6.19292
5.9685
5.68912
5.37358
5.04317
4.71764
4.41212
4.13607
3.89365
3.68507
3.5081
3.35925
3.23467
3.13065
3.04384
2.97136
2.91079
2.86011
2.81764
2.78201
2.75207
2.72688
2.70566
2.68776
2.67264
2.65985
2.64901
2.63982
2.632
2.62535
2.61968
2.61482
2.61067
2.6071
2.60402
2.60136
2.59906
2.59706
2.59531
2.59378
2.59243
2.59125
2.59019
2.58926
2.58842
2.58767
2.587
2.58638
2.58583
2.58532
2.58486
2.58443
2.58403
2.58367
2.58332
2.58301
2.58271
2.58242
2.58216
2.58191
2.58167
2.58144
2.58122
2.58101
2.58081
2.58061
2.58042
2.58024
2.58007
2.57989
2.57975
2.57946
2.85593
2.88701
2.93444
2.9998
3.08287
3.18138
3.29136
3.40797
3.52672
3.64492
3.76282
3.8838
4.01356
4.15798
4.32074
4.5015
4.69584
4.89658
5.09592
5.28714
5.46523
5.62644
5.76726
5.88317
5.96789
6.0132
6.0099
5.9499
5.82892
5.64884
5.41853
5.15257
4.86846
4.58323
4.3108
4.06064
3.83777
3.64357
3.477
3.33562
3.21639
3.11621
3.03219
2.96175
2.9027
2.85316
2.81156
2.77661
2.74722
2.72247
2.70161
2.68401
2.66915
2.65658
2.64594
2.63691
2.62925
2.62273
2.61718
2.61244
2.60838
2.6049
2.6019
2.59931
2.59708
2.59513
2.59344
2.59195
2.59065
2.5895
2.58848
2.58757
2.58676
2.58604
2.58538
2.58479
2.58425
2.58375
2.5833
2.58289
2.5825
2.58214
2.58181
2.58149
2.5812
2.58092
2.58066
2.58041
2.58017
2.57995
2.57973
2.57952
2.57932
2.57913
2.57894
2.57876
2.57859
2.57841
2.57827
2.57798
2.84891
2.87833
2.92344
2.98537
3.0632
3.15389
3.25271
3.35426
3.45389
3.54928
3.64144
3.73483
3.83613
3.95208
4.08693
4.24088
4.41
4.58767
4.76658
4.94032
5.10397
5.25373
5.38612
5.49694
5.58072
5.63056
5.63882
5.59862
5.50592
5.36145
5.17155
4.94752
4.70358
4.45425
4.21205
3.98613
3.78195
3.60178
3.44553
3.31165
3.19786
3.10163
3.02047
2.95215
2.89466
2.8463
2.8056
2.77135
2.7425
2.71819
2.69769
2.68039
2.66577
2.65342
2.64297
2.63411
2.62659
2.6202
2.61476
2.61013
2.60616
2.60276
2.59984
2.59733
2.59515
2.59326
2.59162
2.59018
2.58892
2.58781
2.58682
2.58594
2.58516
2.58446
2.58382
2.58325
2.58272
2.58225
2.58181
2.5814
2.58102
2.58067
2.58035
2.58004
2.57975
2.57948
2.57922
2.57898
2.57874
2.57852
2.5783
2.5781
2.5779
2.57771
2.57752
2.57734
2.57716
2.57699
2.57684
2.57656
2.84241
2.87026
2.91321
2.97197
3.04506
3.12881
3.21788
3.30649
3.38997
3.4664
3.53751
3.60862
3.68714
3.78026
3.89252
4.02434
4.17214
4.32975
4.49035
4.64792
4.79776
4.9362
5.05986
5.16488
5.24641
5.2986
5.315
5.28977
5.21924
5.1034
4.94678
4.75809
4.54884
4.33128
4.11648
3.91304
3.72659
3.55997
3.41386
3.28747
3.17916
3.08694
3.00873
2.94258
2.88671
2.83956
2.79979
2.76625
2.73795
2.71409
2.69394
2.67694
2.66257
2.65043
2.64015
2.63145
2.62407
2.61781
2.61248
2.60794
2.60407
2.60075
2.5979
2.59545
2.59334
2.5915
2.58991
2.58852
2.58729
2.58622
2.58526
2.58442
2.58366
2.58298
2.58237
2.58181
2.5813
2.58084
2.58041
2.58002
2.57965
2.57931
2.57899
2.57869
2.57841
2.57814
2.57788
2.57764
2.57741
2.57719
2.57698
2.57677
2.57657
2.57638
2.5762
2.57602
2.57584
2.57567
2.57552
2.57524
2.83624
2.86264
2.90361
2.9595
3.02835
3.10595
3.1865
3.26396
3.33375
3.39435
3.44817
3.50119
3.56133
3.63602
3.72984
3.84329
3.97297
4.11313
4.25739
4.40015
4.53702
4.66453
4.77947
4.8783
4.95672
5.00968
5.0317
5.0178
4.96468
4.87192
4.7427
4.58376
4.40436
4.21475
4.02462
3.84187
3.67207
3.51842
3.38219
3.26319
3.16036
3.07219
2.99698
2.93305
2.87884
2.83294
2.79412
2.7613
2.73358
2.71016
2.69038
2.67367
2.65955
2.64761
2.63751
2.62896
2.62172
2.61557
2.61035
2.60591
2.60212
2.59888
2.5961
2.59372
2.59166
2.58988
2.58833
2.58698
2.5858
2.58475
2.58383
2.58301
2.58228
2.58162
2.58103
2.58049
2.58
2.57955
2.57913
2.57875
2.57839
2.57806
2.57775
2.57745
2.57718
2.57691
2.57666
2.57642
2.5762
2.57598
2.57577
2.57556
2.57536
2.57517
2.57499
2.57481
2.57464
2.57446
2.57432
2.57403
2.83038
2.85547
2.89465
2.94795
3.01301
3.08517
3.15827
3.22611
3.28424
3.33157
3.3711
3.40936
3.45458
3.51427
3.59294
3.69102
3.80526
3.93021
4.05994
4.18925
4.31408
4.43121
4.53765
4.63017
4.70493
4.75753
4.7833
4.77795
4.73854
4.6644
4.55777
4.42383
4.27003
4.10491
3.93685
3.773
3.61872
3.4774
3.3507
3.23894
3.14156
3.05745
2.98526
2.92359
2.87107
2.82644
2.78859
2.75652
2.72938
2.70641
2.687
2.67058
2.6567
2.64497
2.63504
2.62664
2.61953
2.6135
2.60838
2.60403
2.60032
2.59716
2.59445
2.59212
2.59012
2.58839
2.58688
2.58557
2.58443
2.58342
2.58253
2.58173
2.58102
2.58039
2.57981
2.57929
2.57882
2.57838
2.57798
2.5776
2.57725
2.57693
2.57662
2.57634
2.57606
2.5758
2.57556
2.57532
2.5751
2.57488
2.57467
2.57447
2.57427
2.57408
2.5739
2.57372
2.57355
2.57337
2.57323
2.57294
2.82484
2.84875
2.88632
2.93731
2.999
3.06636
3.13293
3.19243
3.2406
3.27677
3.30445
3.33058
3.36362
3.41103
3.47716
3.56232
3.66334
3.77503
3.89185
4.00901
4.12277
4.23017
4.32848
4.41473
4.48552
4.53699
4.56509
4.56615
4.53753
4.47845
4.39045
4.27752
4.14563
4.00188
3.85345
3.70677
3.56685
3.43714
3.31957
3.21485
3.12283
3.04276
2.9736
2.9142
2.8634
2.82007
2.7832
2.75189
2.72533
2.70283
2.68378
2.66766
2.65402
2.64249
2.63274
2.62448
2.6175
2.61158
2.60656
2.60229
2.59866
2.59557
2.59292
2.59066
2.58871
2.58702
2.58556
2.58429
2.58318
2.5822
2.58134
2.58057
2.57989
2.57927
2.57871
2.57821
2.57774
2.57732
2.57693
2.57656
2.57623
2.57591
2.57561
2.57533
2.57506
2.57481
2.57456
2.57433
2.57411
2.57389
2.57368
2.57348
2.57329
2.5731
2.57292
2.57274
2.57256
2.57239
2.57225
2.57196
2.81963
2.84249
2.87864
2.92758
2.98627
3.04938
3.11023
3.1625
3.20215
3.22889
3.24669
3.26283
3.28587
3.32316
3.37883
3.45306
3.54271
3.64282
3.7482
3.85443
3.95809
4.05646
4.14708
4.22724
4.29392
4.34371
4.37311
4.37891
4.35879
4.31189
4.23926
4.14398
4.03081
3.90565
3.77463
3.64343
3.51671
3.39786
3.28897
3.19105
3.10426
3.02817
2.96204
2.90492
2.85584
2.81382
2.77795
2.7474
2.72144
2.6994
2.68072
2.6649
2.6515
2.64017
2.63058
2.62247
2.61561
2.6098
2.60487
2.60069
2.59714
2.59411
2.59153
2.58931
2.58741
2.58577
2.58435
2.58312
2.58204
2.58109
2.58026
2.57951
2.57885
2.57825
2.57771
2.57722
2.57678
2.57636
2.57598
2.57563
2.5753
2.57499
2.57469
2.57442
2.57415
2.5739
2.57366
2.57343
2.57321
2.573
2.5728
2.5726
2.5724
2.57221
2.57203
2.57185
2.57168
2.57151
2.57136
2.57108
2.81475
2.83669
2.87158
2.9187
2.97474
3.03409
3.08993
3.13593
3.16828
3.18705
3.19659
3.20445
3.21924
3.24815
3.29506
3.35999
3.43982
3.5298
3.62504
3.72145
3.81592
3.90599
3.9894
4.06375
4.1263
4.17406
4.20398
4.21324
4.1998
4.16277
4.10283
4.02235
3.92517
3.81612
3.70046
3.58317
3.46852
3.35976
3.25907
3.16765
3.08593
3.01375
2.9506
2.89576
2.8484
2.8077
2.77283
2.74306
2.71769
2.69612
2.67781
2.66228
2.64913
2.63799
2.62857
2.6206
2.61385
2.60815
2.60331
2.59921
2.59573
2.59277
2.59024
2.58808
2.58623
2.58463
2.58325
2.58205
2.581
2.58008
2.57927
2.57855
2.57791
2.57733
2.57681
2.57633
2.5759
2.5755
2.57512
2.57478
2.57446
2.57415
2.57387
2.57359
2.57334
2.57309
2.57285
2.57263
2.57241
2.5722
2.57199
2.57179
2.5716
2.57142
2.57123
2.57106
2.57088
2.57071
2.57056
2.57028
2.81022
2.83133
2.86511
2.91062
2.96432
3.02037
3.07181
3.11238
3.13846
3.15048
3.15312
3.15412
3.16207
3.18398
3.2235
3.28047
3.35179
3.43288
3.51914
3.60676
3.69291
3.77537
3.8521
3.92094
3.97944
4.02497
4.05483
4.06657
4.05834
4.0293
3.97985
3.9118
3.82823
3.73315
3.63099
3.52614
3.42246
3.32302
3.23001
3.14478
3.06793
2.99955
2.93934
2.88674
2.84111
2.80171
2.76785
2.73885
2.71409
2.69298
2.67504
2.6598
2.64688
2.63594
2.62668
2.61885
2.61222
2.60661
2.60187
2.59784
2.59443
2.59153
2.58906
2.58695
2.58514
2.58358
2.58224
2.58107
2.58005
2.57916
2.57837
2.57768
2.57705
2.57649
2.57598
2.57552
2.5751
2.57471
2.57435
2.57401
2.57369
2.5734
2.57311
2.57285
2.57259
2.57235
2.57212
2.57189
2.57168
2.57147
2.57127
2.57107
2.57088
2.57069
2.57051
2.57033
2.57016
2.56999
2.56984
2.56956
2.80601
2.8264
2.8592
2.90328
2.95491
3.00806
3.05567
3.09154
3.11226
3.11857
3.11542
3.11071
3.11298
3.12903
3.16227
3.2124
3.27632
3.34959
3.42787
3.50763
3.58627
3.66179
3.73235
3.79603
3.85063
3.89381
3.9232
3.93664
3.93249
3.90991
3.86911
3.8115
3.73952
3.65649
3.56619
3.47241
3.37864
3.28776
3.20192
3.12252
3.05035
2.98564
2.92829
2.8779
2.83396
2.79587
2.76301
2.73479
2.71061
2.68998
2.6724
2.65745
2.64477
2.63402
2.62492
2.61721
2.6107
2.60519
2.60052
2.59658
2.59323
2.59039
2.58797
2.5859
2.58414
2.58262
2.58131
2.58017
2.57918
2.57832
2.57755
2.57687
2.57627
2.57572
2.57523
2.57478
2.57437
2.57399
2.57364
2.57331
2.573
2.57271
2.57243
2.57217
2.57192
2.57168
2.57145
2.57123
2.57101
2.57081
2.5706
2.57041
2.57022
2.57003
2.56985
2.56968
2.5695
2.56933
2.56919
2.5689
2.80212
2.82188
2.8538
2.89663
2.94644
2.99704
3.04131
3.07313
3.08928
3.09077
3.08278
3.07331
3.07084
3.08195
3.10983
3.15404
3.21148
3.27787
3.34907
3.4218
3.49367
3.56288
3.62779
3.68666
3.73755
3.77835
3.80699
3.82153
3.82053
3.80317
3.76953
3.72066
3.65855
3.58592
3.50597
3.42202
3.33718
3.25412
3.17491
3.101
3.03326
2.97208
2.91749
2.86926
2.82699
2.79018
2.75832
2.73085
2.70728
2.6871
2.66988
2.65522
2.64277
2.63221
2.62326
2.61568
2.60928
2.60386
2.59928
2.5954
2.59211
2.58933
2.58696
2.58494
2.58321
2.58173
2.58045
2.57935
2.57838
2.57754
2.5768
2.57614
2.57555
2.57502
2.57454
2.5741
2.5737
2.57333
2.57299
2.57266
2.57236
2.57208
2.57181
2.57155
2.5713
2.57107
2.57084
2.57062
2.57041
2.5702
2.57
2.56981
2.56962
2.56943
2.56925
2.56908
2.56891
2.56873
2.56859
2.5683
2.79854
2.81772
2.84888
2.8906
2.9388