/*--------------------------------*- C++ -*----------------------------------*\
  =========                 |
  \\      /  F ield         | OpenFOAM: The Open Source CFD Toolbox
   \\    /   O peration     | Website:  https://openfoam.org
    \\  /    A nd           | Version:  10
     \\/     M anipulation  |
\*---------------------------------------------------------------------------*/
FoamFile
{
    format      ascii;
    class       volScalarField;
    location    "0.015";
    object      k;
}
// * * * * * * * * * * * * * * * * * * * * * * * * * * * * * * * * * * * * * //

dimensions      [0 2 -2 0 0 0 0];

internalField   nonuniform List<scalar> 
6820
(
0.196709
0.190616
0.184996
0.17973
0.174809
0.170265
0.166131
0.162421
0.159127
0.15623
0.153699
0.151501
0.149601
0.147965
0.14656
0.145356
0.144326
0.143444
0.142687
0.142034
0.141473
0.140989
0.140571
0.14021
0.139898
0.139628
0.13939
0.139218
0.138979
0.139327
0.137387
0.14643
0.105948
0.20195
0.200829
0.197546
0.193926
0.190832
0.188539
0.187042
0.186213
0.1859
0.185966
0.186302
0.186823
0.187465
0.188178
0.188926
0.189675
0.190402
0.191087
0.191713
0.192274
0.192767
0.193205
0.193606
0.193979
0.194331
0.19466
0.194964
0.195244
0.195487
0.195769
0.195775
0.19675
0.194772
0.200489
0.200482
0.199128
0.197083
0.194855
0.1927
0.190725
0.188969
0.187445
0.186151
0.185074
0.184197
0.1835
0.18296
0.182555
0.182267
0.182076
0.181966
0.18192
0.181925
0.18197
0.182039
0.182119
0.182203
0.182282
0.182352
0.182409
0.182459
0.182495
0.182563
0.182581
0.182743
0.182634
0.19966
0.199117
0.198213
0.19698
0.195548
0.194021
0.192472
0.190949
0.189484
0.188095
0.186795
0.185591
0.184484
0.183475
0.182558
0.181731
0.180988
0.180322
0.179729
0.179201
0.178733
0.178318
0.177948
0.177617
0.177319
0.177048
0.176803
0.176591
0.176417
0.176307
0.17627
0.176345
0.176533
0.199429
0.198466
0.197533
0.196515
0.195405
0.194225
0.193003
0.191765
0.190529
0.189311
0.188124
0.186976
0.185875
0.184823
0.183825
0.182881
0.181993
0.18116
0.180381
0.179656
0.178984
0.178362
0.17779
0.177263
0.176781
0.176342
0.175951
0.175616
0.175353
0.175186
0.175145
0.175254
0.175564
0.199398
0.198266
0.1972
0.196166
0.195136
0.194096
0.193044
0.191982
0.190918
0.18986
0.188813
0.187785
0.18678
0.185803
0.184859
0.183948
0.183075
0.18224
0.181446
0.180693
0.179984
0.179319
0.178698
0.178122
0.177592
0.17711
0.176684
0.176327
0.176058
0.175906
0.175906
0.176086
0.176496
0.199394
0.19822
0.197099
0.196023
0.194983
0.193966
0.192967
0.191981
0.191007
0.190044
0.189094
0.188161
0.187246
0.186351
0.18548
0.184635
0.183818
0.183031
0.182277
0.181558
0.180875
0.180231
0.179627
0.179066
0.178549
0.178082
0.177674
0.17734
0.177103
0.176994
0.17705
0.177305
0.177803
0.199395
0.19821
0.197069
0.19597
0.194912
0.19389
0.192899
0.191934
0.190993
0.190074
0.189176
0.188298
0.18744
0.186604
0.185791
0.185001
0.184238
0.183501
0.182794
0.182118
0.181476
0.18087
0.180302
0.179774
0.179289
0.178854
0.178478
0.178179
0.177981
0.177916
0.178023
0.17834
0.178909
0.199395
0.198209
0.197063
0.195956
0.194889
0.193858
0.192862
0.191899
0.190966
0.19006
0.189182
0.188329
0.1875
0.186697
0.185918
0.185164
0.184437
0.183737
0.183065
0.182425
0.181817
0.181245
0.180709
0.180212
0.179758
0.179353
0.179007
0.178738
0.178571
0.178539
0.178682
0.17904
0.179656
0.199395
0.198209
0.197061
0.195952
0.194881
0.193846
0.192846
0.19188
0.190946
0.190043
0.18917
0.188325
0.187508
0.186719
0.185956
0.185221
0.184513
0.183834
0.183184
0.182566
0.181981
0.181431
0.180917
0.180442
0.180009
0.179623
0.179297
0.179046
0.178897
0.178883
0.179044
0.179422
0.18006
0.199395
0.198209
0.197061
0.195951
0.194878
0.193842
0.19284
0.191872
0.190936
0.190032
0.189159
0.188316
0.187501
0.186716
0.185959
0.185231
0.184532
0.183862
0.183223
0.182616
0.182042
0.181503
0.181001
0.180536
0.180114
0.179738
0.179419
0.179175
0.179031
0.17902
0.179183
0.179562
0.1802
0.199395
0.198208
0.19706
0.19595
0.194877
0.19384
0.192837
0.191867
0.190931
0.190025
0.189151
0.188307
0.187493
0.186708
0.185952
0.185225
0.184528
0.183861
0.183225
0.182621
0.182051
0.181516
0.181017
0.180556
0.180135
0.17976
0.17944
0.179193
0.179044
0.179024
0.179176
0.179541
0.180162
0.199395
0.198208
0.19706
0.19595
0.194877
0.193839
0.192835
0.191865
0.190927
0.190021
0.189146
0.1883
0.187485
0.186699
0.185943
0.185215
0.184518
0.18385
0.183213
0.182609
0.182038
0.181502
0.181001
0.180538
0.180114
0.179733
0.179407
0.17915
0.178988
0.178953
0.179085
0.179427
0.180021
0.199395
0.198208
0.19706
0.19595
0.194876
0.193838
0.192834
0.191863
0.190924
0.190017
0.189141
0.188295
0.187478
0.186691
0.185933
0.185205
0.184505
0.183836
0.183197
0.18259
0.182017
0.181477
0.180972
0.180504
0.180073
0.179684
0.179347
0.179077
0.178898
0.178843
0.178951
0.179265
0.179825
0.199395
0.198208
0.19706
0.19595
0.194875
0.193837
0.192832
0.191861
0.190922
0.190014
0.189137
0.18829
0.187472
0.186684
0.185924
0.185194
0.184492
0.183821
0.183179
0.18257
0.181992
0.181448
0.180938
0.180462
0.180023
0.179625
0.179276
0.178991
0.178794
0.178716
0.178798
0.179082
0.179607
0.199395
0.198208
0.19706
0.195949
0.194875
0.193836
0.192831
0.191859
0.19092
0.190011
0.189133
0.188285
0.187466
0.186677
0.185916
0.185183
0.18448
0.183806
0.183161
0.182548
0.181966
0.181417
0.180901
0.180418
0.179971
0.179562
0.179199
0.178899
0.178683
0.178583
0.178639
0.178893
0.179383
0.199395
0.198208
0.19706
0.195949
0.194875
0.193836
0.19283
0.191858
0.190918
0.190008
0.18913
0.188281
0.187461
0.18667
0.185907
0.185173
0.184467
0.18379
0.183143
0.182526
0.18194
0.181386
0.180863
0.180373
0.179917
0.179497
0.179122
0.178805
0.178571
0.17845
0.17848
0.178705
0.179162
0.199395
0.198208
0.19706
0.195949
0.194875
0.193835
0.192829
0.191857
0.190916
0.190006
0.189126
0.188276
0.187455
0.186663
0.185898
0.185162
0.184455
0.183775
0.183125
0.182504
0.181914
0.181354
0.180825
0.180328
0.179862
0.179432
0.179044
0.178712
0.17846
0.178318
0.178325
0.178522
0.178948
0.199395
0.198209
0.19706
0.195949
0.194875
0.193835
0.192829
0.191856
0.190914
0.190004
0.189123
0.188272
0.18745
0.186656
0.18589
0.185152
0.184442
0.18376
0.183107
0.182482
0.181887
0.181323
0.180788
0.180283
0.179809
0.179368
0.178967
0.178621
0.178351
0.17819
0.178174
0.178346
0.178744
0.199395
0.198209
0.19706
0.195949
0.194874
0.193834
0.192828
0.191855
0.190913
0.190001
0.18912
0.188268
0.187445
0.18665
0.185882
0.185142
0.18443
0.183745
0.183089
0.182461
0.181862
0.181292
0.180751
0.180239
0.179756
0.179305
0.178892
0.178532
0.178246
0.178066
0.17803
0.178179
0.178551
0.199395
0.198209
0.19706
0.195949
0.194874
0.193834
0.192828
0.191854
0.190911
0.189999
0.189117
0.188264
0.18744
0.186643
0.185874
0.185133
0.184418
0.183731
0.183071
0.18244
0.181836
0.181261
0.180715
0.180196
0.179704
0.179243
0.178819
0.178446
0.178145
0.177948
0.177893
0.178021
0.178369
0.199395
0.198209
0.19706
0.195949
0.194874
0.193834
0.192827
0.191853
0.19091
0.189998
0.189115
0.188261
0.187435
0.186638
0.185867
0.185124
0.184407
0.183717
0.183054
0.182419
0.181812
0.181232
0.180679
0.180154
0.179655
0.179184
0.178749
0.178364
0.178049
0.177836
0.177763
0.177872
0.1782
0.199395
0.198209
0.197061
0.195949
0.194874
0.193834
0.192827
0.191852
0.190909
0.189996
0.189112
0.188258
0.187431
0.186632
0.18586
0.185115
0.184396
0.183704
0.183038
0.182399
0.181788
0.181204
0.180646
0.180113
0.179607
0.179128
0.178683
0.178285
0.177957
0.17773
0.177641
0.177733
0.178042
0.199395
0.198209
0.197061
0.19595
0.194874
0.193834
0.192826
0.191851
0.190908
0.189994
0.18911
0.188254
0.187427
0.186626
0.185853
0.185106
0.184385
0.183691
0.183022
0.182381
0.181765
0.181177
0.180613
0.180075
0.179561
0.179074
0.17862
0.178211
0.177871
0.177631
0.177528
0.177604
0.177895
0.199395
0.198209
0.197061
0.19595
0.194874
0.193834
0.192826
0.191851
0.190907
0.189993
0.189108
0.188251
0.187423
0.186621
0.185847
0.185098
0.184375
0.183678
0.183007
0.182363
0.181744
0.181151
0.180583
0.180039
0.179518
0.179024
0.17856
0.178142
0.177791
0.177538
0.177422
0.177484
0.177759
0.199395
0.198209
0.197061
0.19595
0.194874
0.193833
0.192826
0.19185
0.190906
0.189991
0.189106
0.188249
0.187419
0.186616
0.18584
0.18509
0.184366
0.183667
0.182993
0.182346
0.181723
0.181126
0.180554
0.180005
0.179478
0.178976
0.178505
0.178078
0.177716
0.177452
0.177324
0.177373
0.177635
0.199395
0.198209
0.197061
0.19595
0.194874
0.193833
0.192825
0.19185
0.190905
0.18999
0.189104
0.188246
0.187415
0.186612
0.185834
0.185083
0.184357
0.183656
0.18298
0.182329
0.181704
0.181103
0.180527
0.179973
0.17944
0.178932
0.178453
0.178018
0.177647
0.177373
0.177234
0.177271
0.17752
0.199395
0.198209
0.197061
0.19595
0.194874
0.193833
0.192825
0.191849
0.190904
0.189988
0.189102
0.188243
0.187412
0.186607
0.185829
0.185076
0.184348
0.183645
0.182967
0.182314
0.181686
0.181082
0.180502
0.179943
0.179406
0.178891
0.178406
0.177963
0.177584
0.177301
0.177151
0.177178
0.177415
0.199395
0.198209
0.197061
0.19595
0.194874
0.193833
0.192825
0.191848
0.190903
0.189987
0.1891
0.188241
0.187409
0.186603
0.185824
0.185069
0.18434
0.183636
0.182956
0.1823
0.181669
0.181062
0.180478
0.179916
0.179374
0.178854
0.178363
0.177913
0.177526
0.177235
0.177076
0.177092
0.177319
0.199395
0.198209
0.197061
0.19595
0.194874
0.193832
0.192824
0.191848
0.190902
0.189985
0.189098
0.188238
0.187406
0.186599
0.185819
0.185063
0.184333
0.183627
0.182945
0.182288
0.181654
0.181045
0.180457
0.179891
0.179345
0.17882
0.178324
0.177868
0.177475
0.177175
0.177009
0.177016
0.177232
0.199395
0.198209
0.197061
0.19595
0.194874
0.193833
0.192824
0.191848
0.190902
0.189985
0.189097
0.188237
0.187403
0.186596
0.185815
0.185059
0.184327
0.183619
0.182936
0.182277
0.181641
0.181029
0.180439
0.179869
0.179319
0.178791
0.178289
0.177828
0.177429
0.177123
0.176949
0.176947
0.177154
0.199395
0.198209
0.197061
0.195949
0.194873
0.193832
0.192824
0.191847
0.190901
0.189984
0.189096
0.188235
0.187401
0.186594
0.185812
0.185054
0.184322
0.183613
0.182928
0.182268
0.18163
0.181016
0.180423
0.179851
0.179298
0.178766
0.17826
0.177794
0.177389
0.177077
0.176896
0.176887
0.177085
0.199395
0.19821
0.197062
0.195952
0.194876
0.193835
0.192827
0.19185
0.190904
0.189987
0.189098
0.188237
0.187403
0.186595
0.185812
0.185054
0.184321
0.183611
0.182925
0.182263
0.181624
0.181007
0.180412
0.179837
0.179281
0.178745
0.178235
0.177764
0.177353
0.177034
0.176846
0.176827
0.177015
0.199395
0.198209
0.197061
0.19595
0.194876
0.193836
0.192828
0.191852
0.190907
0.18999
0.189102
0.188241
0.187407
0.186599
0.185815
0.185057
0.184322
0.183611
0.182924
0.18226
0.181618
0.180999
0.180401
0.179822
0.179261
0.17872
0.178204
0.177726
0.177308
0.17698
0.176779
0.176747
0.176919
0.199396
0.198214
0.19707
0.195963
0.19489
0.193851
0.192844
0.191868
0.190923
0.190006
0.189118
0.188256
0.187421
0.186611
0.185826
0.185065
0.184327
0.183612
0.18292
0.18225
0.181602
0.180975
0.180368
0.179779
0.179207
0.178654
0.178124
0.17763
0.177193
0.176843
0.176618
0.176556
0.176693
0.199396
0.198213
0.197071
0.195968
0.194902
0.193869
0.192867
0.191894
0.190949
0.190032
0.18914
0.188274
0.187432
0.186614
0.185818
0.185045
0.184294
0.183564
0.182855
0.182166
0.181498
0.18085
0.180221
0.179608
0.179012
0.178432
0.177875
0.177351
0.17688
0.176491
0.176219
0.176103
0.176176
0.199403
0.198246
0.197123
0.19603
0.194966
0.193931
0.192923
0.191941
0.190982
0.190047
0.189134
0.188243
0.187373
0.186523
0.185695
0.184886
0.184098
0.18333
0.182583
0.181855
0.181148
0.180461
0.179794
0.179144
0.17851
0.177894
0.177297
0.176731
0.17621
0.175759
0.175411
0.175202
0.175166
0.19942
0.198282
0.19721
0.196174
0.195145
0.194117
0.19309
0.192071
0.191065
0.190078
0.189114
0.188173
0.18726
0.186373
0.185513
0.184682
0.183878
0.183103
0.182355
0.181634
0.180942
0.180276
0.179636
0.179019
0.178423
0.177846
0.177287
0.176748
0.176239
0.175777
0.175387
0.175099
0.174947
0.199658
0.198893
0.198086
0.197315
0.196624
0.19601
0.195459
0.194965
0.194524
0.194138
0.193806
0.193532
0.193318
0.193165
0.193076
0.193051
0.193091
0.193195
0.193365
0.193597
0.193889
0.194239
0.19464
0.195085
0.195567
0.196074
0.196596
0.197122
0.197647
0.198172
0.198706
0.199268
0.199884
0.205419
0.216603
0.227664
0.238507
0.249096
0.259416
0.269453
0.279195
0.288634
0.297759
0.306567
0.315051
0.323208
0.331038
0.33854
0.345714
0.352562
0.359087
0.365292
0.37118
0.376755
0.382023
0.386988
0.391653
0.396026
0.400111
0.40392
0.407464
0.410757
0.413814
0.416644
0.419247
0.421622
0.324361
0.69212
1.14275
1.61769
2.01966
2.26705
2.33498
2.2316
1.96932
1.56719
1.08511
0.658728
0.441063
0.440883
0.531242
0.633612
0.721461
0.787339
0.832762
0.861577
0.876845
0.880127
0.871724
0.851268
0.818408
0.773414
0.71766
0.653858
0.585927
0.518404
0.455518
0.400285
0.354058
0.316688
0.28709
0.26385
0.245618
0.231262
0.21988
0.210771
0.203407
0.197399
0.192465
0.1884
0.185046
0.18228
0.180003
0.178132
0.176601
0.175351
0.174337
0.173517
0.172858
0.172332
0.171914
0.171585
0.171329
0.171131
0.170979
0.170866
0.170782
0.170721
0.170679
0.170652
0.170635
0.170626
0.170623
0.170624
0.170628
0.170634
0.170641
0.170649
0.170657
0.170664
0.170671
0.170678
0.170683
0.170688
0.170692
0.170695
0.170697
0.170699
0.1707
0.1707
0.170699
0.170699
0.170697
0.170695
0.170693
0.170691
0.170688
0.170685
0.170682
0.170678
0.170675
0.170671
0.170667
0.170663
0.17066
0.170652
0.19908
0.224055
0.275189
0.361643
0.48538
0.622007
0.724918
0.749029
0.677068
0.535794
0.396606
0.336597
0.364216
0.433661
0.516152
0.596402
0.664323
0.716231
0.753072
0.777412
0.791441
0.796229
0.791741
0.777272
0.75206
0.715895
0.669601
0.6153
0.556316
0.496669
0.440243
0.389957
0.347296
0.312373
0.284399
0.262213
0.244659
0.230745
0.21966
0.210763
0.203558
0.197671
0.192828
0.188826
0.185512
0.182766
0.180493
0.178613
0.177063
0.175788
0.174743
0.17389
0.173197
0.172636
0.172185
0.171824
0.171538
0.171311
0.171134
0.170997
0.170891
0.170811
0.170751
0.170708
0.170676
0.170654
0.17064
0.170631
0.170626
0.170623
0.170623
0.170624
0.170626
0.170629
0.170631
0.170633
0.170635
0.170637
0.170638
0.170638
0.170639
0.170638
0.170637
0.170636
0.170634
0.170632
0.17063
0.170627
0.170624
0.170621
0.170618
0.170614
0.17061
0.170606
0.170602
0.170598
0.170594
0.17059
0.170586
0.170578
0.182228
0.184161
0.190304
0.201057
0.215814
0.232567
0.247099
0.254386
0.254462
0.257494
0.276456
0.313632
0.364894
0.426882
0.493197
0.555773
0.608724
0.649803
0.679688
0.700226
0.713051
0.718922
0.717622
0.708251
0.689763
0.661551
0.623942
0.57849
0.527932
0.475765
0.425514
0.379974
0.340733
0.308151
0.281723
0.26054
0.243636
0.230146
0.219349
0.210658
0.203607
0.197841
0.193091
0.189159
0.185895
0.18318
0.180922
0.179045
0.177486
0.176195
0.175128
0.174249
0.173527
0.172937
0.172456
0.172065
0.17175
0.171496
0.171293
0.171131
0.171003
0.170902
0.170824
0.170762
0.170715
0.170679
0.170652
0.170631
0.170616
0.170604
0.170596
0.170589
0.170584
0.170581
0.170578
0.170575
0.170573
0.170571
0.170568
0.170566
0.170563
0.170561
0.170558
0.170555
0.170551
0.170548
0.170544
0.170541
0.170537
0.170533
0.170528
0.170524
0.17052
0.170515
0.170511
0.170507
0.170502
0.170497
0.170494
0.170485
0.176681
0.177465
0.179431
0.182932
0.188293
0.195575
0.204703
0.216007
0.230842
0.251371
0.279546
0.316504
0.361963
0.41329
0.465893
0.514765
0.556204
0.588822
0.613155
0.630555
0.642254
0.648817
0.649957
0.644716
0.631895
0.610597
0.58073
0.543327
0.500563
0.455414
0.411031
0.370054
0.334129
0.303833
0.278925
0.258736
0.242479
0.229417
0.21891
0.210425
0.203529
0.197884
0.193231
0.189375
0.186168
0.183494
0.181262
0.179399
0.177844
0.176548
0.17547
0.174574
0.173831
0.173218
0.172712
0.172297
0.171956
0.171678
0.171451
0.171266
0.171117
0.170997
0.170899
0.170821
0.170758
0.170708
0.170667
0.170634
0.170608
0.170587
0.17057
0.170555
0.170543
0.170533
0.170525
0.170517
0.17051
0.170504
0.170498
0.170492
0.170487
0.170482
0.170477
0.170472
0.170467
0.170462
0.170457
0.170452
0.170447
0.170442
0.170437
0.170432
0.170427
0.170422
0.170417
0.170412
0.170407
0.170402
0.170398
0.170389
0.176046
0.177032
0.179048
0.182563
0.187814
0.194984
0.204447
0.216882
0.233238
0.254527
0.281576
0.314672
0.353031
0.394575
0.436186
0.474551
0.507279
0.533498
0.553598
0.568551
0.579287
0.586242
0.589147
0.58709
0.578844
0.563345
0.540176
0.509918
0.474222
0.435559
0.396697
0.360082
0.327379
0.299333
0.275941
0.256756
0.241161
0.228539
0.218332
0.210057
0.203318
0.197795
0.193239
0.189462
0.186317
0.183692
0.181495
0.179656
0.178116
0.176825
0.175745
0.174842
0.174089
0.17346
0.172938
0.172503
0.172143
0.171845
0.171599
0.171396
0.171228
0.17109
0.170976
0.170882
0.170805
0.170741
0.170688
0.170645
0.170608
0.170577
0.170552
0.17053
0.170511
0.170494
0.17048
0.170467
0.170456
0.170446
0.170436
0.170428
0.170419
0.170412
0.170404
0.170397
0.170391
0.170384
0.170378
0.170372
0.170365
0.17036
0.170354
0.170348
0.170343
0.170337
0.170332
0.170326
0.170321
0.170316
0.170312
0.170302
0.1772
0.178431
0.180528
0.183977
0.189199
0.19656
0.206413
0.21915
0.235246
0.255206
0.279373
0.307654
0.339277
0.372679
0.405693
0.436118
0.462386
0.483901
0.5009
0.514051
0.524032
0.531188
0.5353
0.535579
0.530874
0.520066
0.50252
0.478447
0.449029
0.416263
0.382526
0.350045
0.320455
0.294627
0.272755
0.25459
0.239678
0.227515
0.217619
0.209563
0.202983
0.197582
0.193124
0.189426
0.186345
0.183771
0.181615
0.179807
0.178288
0.177012
0.17594
0.175039
0.174282
0.173648
0.173116
0.17267
0.172298
0.171986
0.171725
0.171508
0.171326
0.171174
0.171047
0.17094
0.170851
0.170776
0.170713
0.170659
0.170614
0.170575
0.170541
0.170513
0.170488
0.170466
0.170447
0.170429
0.170414
0.1704
0.170387
0.170376
0.170365
0.170355
0.170346
0.170337
0.170328
0.170321
0.170313
0.170306
0.170299
0.170292
0.170285
0.170279
0.170273
0.170267
0.170261
0.170255
0.17025
0.170244
0.17024
0.17023
0.178682
0.180174
0.182517
0.186134
0.191394
0.198598
0.208032
0.219987
0.234746
0.252525
0.27337
0.297028
0.322829
0.349637
0.375995
0.40045
0.421946
0.440031
0.454801
0.466667
0.476092
0.483331
0.488228
0.490142
0.488063
0.480916
0.467951
0.449098
0.425141
0.39764
0.368593
0.339983
0.313377
0.289723
0.269371
0.252247
0.23804
0.226355
0.216785
0.208957
0.202541
0.197262
0.1929
0.18928
0.186263
0.183742
0.181629
0.179854
0.178362
0.177106
0.176047
0.175155
0.174403
0.17377
0.173236
0.172785
0.172406
0.172087
0.171818
0.171591
0.171399
0.171238
0.171101
0.170985
0.170887
0.170804
0.170732
0.170671
0.170619
0.170574
0.170534
0.1705
0.17047
0.170444
0.170421
0.1704
0.170381
0.170364
0.170349
0.170335
0.170322
0.17031
0.170299
0.170289
0.170279
0.17027
0.170261
0.170253
0.170245
0.170238
0.170231
0.170224
0.170217
0.170211
0.170204
0.170198
0.170193
0.170187
0.170182
0.170172
0.179911
0.181591
0.184095
0.187755
0.192876
0.19971
0.208468
0.219321
0.232394
0.247736
0.265271
0.284736
0.305618
0.327144
0.348353
0.368291
0.386223
0.401776
0.414919
0.425857
0.434867
0.442116
0.447491
0.450494
0.450289
0.445905
0.436565
0.422009
0.402704
0.37982
0.354998
0.329968
0.306193
0.284652
0.265813
0.249743
0.236263
0.225076
0.215848
0.208257
0.20201
0.196856
0.19259
0.189046
0.186091
0.18362
0.181549
0.17981
0.178346
0.177112
0.176072
0.175193
0.17445
0.173823
0.173292
0.172843
0.172463
0.172141
0.171868
0.171636
0.17144
0.171273
0.17113
0.171009
0.170905
0.170816
0.170739
0.170673
0.170616
0.170566
0.170523
0.170485
0.170451
0.170422
0.170395
0.170372
0.170351
0.170331
0.170314
0.170298
0.170284
0.170271
0.170258
0.170247
0.170236
0.170226
0.170217
0.170208
0.1702
0.170192
0.170184
0.170177
0.17017
0.170163
0.170157
0.17015
0.170144
0.170138
0.170133
0.170123
0.180734
0.182531
0.185129
0.188777
0.193702
0.200077
0.208027
0.217632
0.228923
0.241873
0.256372
0.272205
0.289025
0.30634
0.323548
0.340023
0.355238
0.368857
0.380754
0.390972
0.399638
0.406836
0.412473
0.416167
0.417249
0.414888
0.408343
0.397248
0.381825
0.362921
0.341848
0.320085
0.298964
0.279457
0.26211
0.247102
0.234365
0.223694
0.214824
0.207482
0.201411
0.196385
0.192215
0.188745
0.18585
0.183428
0.181398
0.179692
0.178256
0.177046
0.176024
0.175161
0.17443
0.173812
0.173288
0.172844
0.172467
0.172146
0.171874
0.171641
0.171444
0.171274
0.17113
0.171006
0.170899
0.170807
0.170727
0.170658
0.170598
0.170546
0.1705
0.17046
0.170424
0.170392
0.170364
0.170339
0.170316
0.170296
0.170277
0.17026
0.170244
0.17023
0.170217
0.170205
0.170194
0.170183
0.170173
0.170164
0.170155
0.170147
0.170139
0.170131
0.170124
0.170117
0.17011
0.170104
0.170098
0.170092
0.170087
0.170077
0.181172
0.183019
0.18564
0.189215
0.193896
0.199782
0.206922
0.215322
0.224947
0.235732
0.247579
0.260351
0.273855
0.287822
0.301898
0.315675
0.328758
0.340832
0.351704
0.361302
0.369639
0.376726
0.38247
0.386574
0.388513
0.387598
0.383163
0.374799
0.36256
0.347031
0.329238
0.310417
0.291756
0.274186
0.258295
0.244346
0.232365
0.222226
0.213728
0.206646
0.200759
0.195865
0.191793
0.188398
0.185561
0.183187
0.181194
0.179521
0.178111
0.176924
0.175921
0.175073
0.174356
0.173749
0.173234
0.172796
0.172424
0.172108
0.171838
0.171608
0.171412
0.171243
0.171098
0.170974
0.170867
0.170774
0.170694
0.170624
0.170563
0.170509
0.170462
0.170421
0.170384
0.170351
0.170322
0.170296
0.170273
0.170251
0.170232
0.170215
0.170199
0.170184
0.17017
0.170158
0.170146
0.170135
0.170125
0.170115
0.170106
0.170098
0.17009
0.170082
0.170075
0.170068
0.170061
0.170054
0.170048
0.170042
0.170037
0.170027
0.181312
0.183158
0.185748
0.189208
0.193625
0.199034
0.205416
0.212716
0.220859
0.229766
0.239372
0.249621
0.260452
0.271761
0.283365
0.295002
0.306362
0.317146
0.327118
0.336132
0.344118
0.351032
0.356769
0.361091
0.363582
0.363682
0.360815
0.354578
0.344914
0.332209
0.317246
0.301043
0.284635
0.268889
0.254404
0.241503
0.230282
0.220686
0.212572
0.205762
0.200067
0.195311
0.19134
0.188021
0.185243
0.182914
0.180958
0.179315
0.177931
0.176764
0.17578
0.174947
0.174243
0.173647
0.173141
0.172712
0.172346
0.172035
0.17177
0.171544
0.17135
0.171184
0.171041
0.170918
0.170812
0.17072
0.17064
0.17057
0.170509
0.170456
0.170409
0.170367
0.170331
0.170298
0.170269
0.170242
0.170219
0.170197
0.170178
0.17016
0.170144
0.170129
0.170115
0.170103
0.170091
0.17008
0.17007
0.17006
0.170051
0.170042
0.170034
0.170026
0.170019
0.170012
0.170005
0.169998
0.169992
0.169986
0.169981
0.16997
0.181251
0.183061
0.185583
0.188901
0.193051
0.198011
0.203708
0.210041
0.216907
0.224228
0.231977
0.240174
0.248861
0.258054
0.267688
0.277598
0.287529
0.297197
0.306345
0.314781
0.322383
0.329064
0.334709
0.339115
0.341946
0.34275
0.341041
0.336443
0.32884
0.318473
0.305929
0.29203
0.277663
0.263615
0.250474
0.238596
0.228132
0.219086
0.211368
0.204839
0.199344
0.194733
0.190867
0.187626
0.184906
0.182623
0.180704
0.17909
0.17773
0.176583
0.175616
0.174798
0.174106
0.173521
0.173024
0.172603
0.172244
0.171939
0.171679
0.171457
0.171267
0.171104
0.170964
0.170844
0.17074
0.170649
0.170571
0.170502
0.170442
0.17039
0.170344
0.170303
0.170266
0.170234
0.170205
0.170179
0.170156
0.170135
0.170115
0.170098
0.170082
0.170067
0.170053
0.170041
0.170029
0.170018
0.170008
0.169998
0.169989
0.16998
0.169972
0.169965
0.169957
0.16995
0.169943
0.169937
0.16993
0.169924
0.169919
0.169909
0.181071
0.182823
0.185255
0.188419
0.19231
0.19686
0.20195
0.207446
0.213227
0.219225
0.22545
0.231985
0.238953
0.246455
0.254504
0.262997
0.27172
0.280402
0.28878
0.296638
0.303824
0.310223
0.315711
0.320107
0.323132
0.324418
0.323559
0.320221
0.31426
0.305815
0.295319
0.283429
0.270893
0.258411
0.246541
0.235652
0.225935
0.217441
0.210124
0.203884
0.198598
0.194137
0.190381
0.187221
0.184562
0.182326
0.180443
0.178857
0.17752
0.176393
0.175441
0.174637
0.173957
0.173382
0.172894
0.172481
0.172129
0.17183
0.171576
0.171359
0.171173
0.171013
0.170877
0.170759
0.170657
0.170569
0.170492
0.170426
0.170367
0.170316
0.170271
0.170231
0.170196
0.170164
0.170136
0.17011
0.170087
0.170067
0.170048
0.170031
0.170015
0.17
0.169987
0.169974
0.169963
0.169952
0.169942
0.169932
0.169923
0.169915
0.169907
0.169899
0.169892
0.169885
0.169878
0.169871
0.169865
0.169859
0.169853
0.169843
0.180829
0.182513
0.184845
0.187854
0.191501
0.19568
0.200238
0.205015
0.20988
0.214779
0.219755
0.224945
0.23053
0.236669
0.243428
0.250744
0.258431
0.266234
0.27389
0.281177
0.287925
0.294005
0.299287
0.303605
0.306722
0.308332
0.308098
0.305728
0.301072
0.2942
0.28543
0.275279
0.264371
0.253318
0.242637
0.232695
0.223708
0.215761
0.208848
0.202904
0.197833
0.193528
0.189886
0.18681
0.184215
0.182026
0.18018
0.178624
0.17731
0.176202
0.175265
0.174475
0.173806
0.17324
0.172761
0.172355
0.17201
0.171717
0.171468
0.171255
0.171073
0.170918
0.170784
0.17067
0.170571
0.170485
0.170411
0.170346
0.170289
0.170239
0.170196
0.170157
0.170123
0.170092
0.170064
0.17004
0.170018
0.169997
0.169979
0.169962
0.169947
0.169933
0.169919
0.169907
0.169896
0.169885
0.169875
0.169866
0.169857
0.169849
0.16984
0.169833
0.169825
0.169818
0.169812
0.169805
0.169799
0.169793
0.169787
0.169777
0.180562
0.182174
0.184405
0.187265
0.190686
0.194532
0.198626
0.202785
0.206877
0.210861
0.214813
0.218908
0.223373
0.228406
0.234107
0.240436
0.247229
0.254244
0.261227
0.267956
0.274257
0.279994
0.285036
0.289227
0.292361
0.294182
0.294406
0.292782
0.289164
0.283579
0.276257
0.267603
0.258132
0.248374
0.238795
0.22975
0.221467
0.214059
0.20755
0.201905
0.197053
0.19291
0.189386
0.186398
0.183868
0.181729
0.179921
0.178394
0.177104
0.176014
0.175093
0.174315
0.173657
0.173101
0.17263
0.172231
0.171892
0.171605
0.171361
0.171153
0.170975
0.170823
0.170693
0.170581
0.170485
0.170402
0.17033
0.170267
0.170212
0.170164
0.170122
0.170084
0.170051
0.170021
0.169995
0.169971
0.169949
0.16993
0.169912
0.169896
0.169881
0.169867
0.169854
0.169842
0.169831
0.16982
0.169811
0.169801
0.169793
0.169784
0.169776
0.169769
0.169761
0.169754
0.169748
0.169741
0.169735
0.169729
0.169723
0.169713
0.18029
0.181831
0.183966
0.186685
0.1899
0.193451
0.197138
0.200766
0.204203
0.207423
0.210529
0.21373
0.217282
0.221411
0.226234
0.23173
0.237747
0.244057
0.250417
0.256611
0.262468
0.26785
0.272629
0.276658
0.279757
0.281706
0.282264
0.281215
0.278424
0.273892
0.267782
0.260412
0.252203
0.243606
0.23504
0.226838
0.21923
0.212347
0.206237
0.200891
0.196262
0.192284
0.188883
0.185985
0.183523
0.181435
0.179667
0.17817
0.176903
0.175832
0.174927
0.174162
0.173514
0.172967
0.172504
0.172112
0.171779
0.171498
0.171258
0.171054
0.170881
0.170733
0.170606
0.170497
0.170403
0.170323
0.170253
0.170192
0.170139
0.170092
0.170051
0.170015
0.169983
0.169954
0.169929
0.169906
0.169885
0.169866
0.169849
0.169833
0.169818
0.169805
0.169792
0.169781
0.16977
0.16976
0.16975
0.169741
0.169732
0.169724
0.169716
0.169708
0.169701
0.169694
0.169688
0.169681
0.169675
0.169669
0.169663
0.169653
0.180023
0.181498
0.183542
0.186132
0.189161
0.192449
0.19578
0.19895
0.20183
0.20441
0.206814
0.209279
0.212083
0.215466
0.219559
0.224346
0.229688
0.235369
0.241157
0.246846
0.252269
0.257295
0.261798
0.265643
0.268668
0.270682
0.27148
0.270876
0.268746
0.265075
0.259979
0.253706
0.246599
0.23904
0.231398
0.22398
0.217012
0.210636
0.204918
0.19987
0.195465
0.191653
0.188377
0.185573
0.183181
0.181146
0.179418
0.177952
0.17671
0.175658
0.174768
0.174016
0.173379
0.172841
0.172385
0.172
0.171673
0.171397
0.171162
0.170962
0.170793
0.170648
0.170524
0.170418
0.170327
0.170249
0.170181
0.170122
0.17007
0.170025
0.169986
0.169951
0.16992
0.169892
0.169868
0.169845
0.169825
0.169807
0.16979
0.169775
0.169761
0.169748
0.169736
0.169724
0.169714
0.169704
0.169694
0.169685
0.169677
0.169668
0.169661
0.169653
0.169646
0.169639
0.169632
0.169626
0.16962
0.169613
0.169608
0.169598
0.179766
0.181181
0.183142
0.185615
0.188476
0.191532
0.19455
0.197324
0.199728
0.201767
0.203587
0.205443
0.20763
0.210397
0.213876
0.21806
0.222814
0.227933
0.233198
0.238414
0.243423
0.248098
0.252322
0.255968
0.258892
0.260925
0.261891
0.26163
0.260029
0.257064
0.252816
0.247479
0.241331
0.234693
0.227887
0.221193
0.214828
0.208937
0.2036
0.198845
0.194663
0.191021
0.187871
0.185162
0.182842
0.180861
0.179174
0.17774
0.176523
0.175491
0.174617
0.173877
0.173251
0.172722
0.172274
0.171895
0.171574
0.171303
0.171072
0.170877
0.170711
0.170569
0.170449
0.170345
0.170257
0.17018
0.170115
0.170057
0.170008
0.169964
0.169926
0.169892
0.169863
0.169836
0.169812
0.169791
0.169771
0.169753
0.169737
0.169722
0.169709
0.169696
0.169684
0.169673
0.169662
0.169653
0.169643
0.169635
0.169626
0.169618
0.16961
0.169603
0.169596
0.169589
0.169582
0.169576
0.16957
0.169563
0.169558
0.169548
0.179524
0.180883
0.182769
0.185136
0.187848
0.190697
0.193441
0.195871
0.197868
0.19945
0.20078
0.202131
0.203806
0.206059
0.209022
0.212688
0.216928
0.221547
0.226337
0.231115
0.235732
0.240069
0.244016
0.247457
0.25026
0.252278
0.253358
0.253359
0.252182
0.249795
0.246257
0.241717
0.2364
0.230576
0.224524
0.218494
0.212691
0.20726
0.202291
0.197823
0.193862
0.190388
0.187366
0.184753
0.182506
0.180581
0.178937
0.177535
0.176344
0.175332
0.174473
0.173746
0.173131
0.17261
0.17217
0.171797
0.171482
0.171215
0.170989
0.170798
0.170635
0.170497
0.170379
0.170278
0.170192
0.170118
0.170054
0.169999
0.169951
0.169909
0.169872
0.169839
0.16981
0.169785
0.169761
0.169741
0.169722
0.169705
0.169689
0.169675
0.169661
0.169649
0.169637
0.169627
0.169616
0.169607
0.169598
0.169589
0.169581
0.169573
0.169565
0.169558
0.169551
0.169544
0.169537
0.169531
0.169524
0.169518
0.169513
0.169503
0.179296
0.180605
0.182423
0.184696
0.187275
0.18994
0.192444
0.194575
0.196222
0.197417
0.198337
0.199266
0.200515
0.202337
0.204863
0.208084
0.211874
0.216048
0.220408
0.224783
0.229033
0.233048
0.236726
0.239959
0.24263
0.244609
0.245759
0.24596
0.245121
0.24321
0.240265
0.236402
0.231804
0.226697
0.221319
0.215895
0.210614
0.205617
0.200999
0.196809
0.193065
0.189758
0.186863
0.184348
0.182175
0.180306
0.178705
0.177337
0.176171
0.175179
0.174337
0.173623
0.173018
0.172506
0.172072
0.171706
0.171396
0.171134
0.170913
0.170725
0.170566
0.17043
0.170315
0.170217
0.170133
0.170061
0.169999
0.169945
0.169898
0.169858
0.169822
0.169791
0.169763
0.169738
0.169716
0.169696
0.169677
0.169661
0.169646
0.169632
0.169619