/*--------------------------------*- C++ -*----------------------------------*\
  =========                 |
  \\      /  F ield         | OpenFOAM: The Open Source CFD Toolbox
   \\    /   O peration     | Website:  https://openfoam.org
    \\  /    A nd           | Version:  10
     \\/     M anipulation  |
\*---------------------------------------------------------------------------*/
FoamFile
{
    format      ascii;
    class       volScalarField;
    location    "0.015";
    object      p;
}
// * * * * * * * * * * * * * * * * * * * * * * * * * * * * * * * * * * * * * //

dimensions      [0 2 -2 0 0 0 0];

internalField   nonuniform List<scalar> 
6820
(
-6.72555
-8.09164
-8.51054
-8.61499
-8.70688
-8.77205
-8.81954
-8.86334
-8.90668
-8.95063
-8.99637
-9.04466
-9.09593
-9.15057
-9.20894
-9.27139
-9.33828
-9.40994
-9.48652
-9.56831
-9.6571
-9.75373
-9.85847
-9.97201
-10.0953
-10.2297
-10.3765
-10.5378
-10.7163
-10.9145
-11.1413
-11.3902
-11.6671
-9.5251
-9.12277
-8.83623
-8.74784
-8.76012
-8.79079
-8.82555
-8.86471
-8.90662
-8.95034
-8.99612
-9.04439
-9.09552
-9.14991
-9.20795
-9.27005
-9.33663
-9.40814
-9.48521
-9.56869
-9.65844
-9.75538
-9.8601
-9.97355
-10.0968
-10.231
-10.3774
-10.5387
-10.7149
-10.9168
-11.1291
-11.4288
-11.695
-8.38158
-8.25506
-8.48344
-8.63238
-8.70528
-8.7635
-8.81216
-8.85692
-8.90092
-8.94538
-8.99139
-9.03973
-9.09093
-9.14542
-9.20358
-9.26581
-9.3325
-9.40405
-9.48092
-9.56359
-9.6527
-9.7488
-9.85281
-9.96551
-10.0878
-10.2207
-10.3655
-10.5243
-10.6978
-10.8919
-11.1007
-11.3512
-11.5702
-8.7473
-8.7664
-8.75073
-8.73358
-8.75246
-8.78665
-8.82324
-8.86182
-8.90272
-8.94565
-8.99082
-9.03862
-9.08938
-9.14343
-9.20114
-9.26286
-9.329
-9.39996
-9.47625
-9.55844
-9.64698
-9.74239
-9.84547
-9.95694
-10.0776
-10.2086
-10.3508
-10.506
-10.6746
-10.8609
-11.0591
-11.2864
-11.4958
-8.63561
-8.58236
-8.63158
-8.68621
-8.73279
-8.77661
-8.81769
-8.8583
-8.89989
-8.94291
-8.98788
-9.03533
-9.08566
-9.13924
-9.19644
-9.25761
-9.32315
-9.39344
-9.46894
-9.55012
-9.63746
-9.7315
-9.83294
-9.94247
-10.0608
-10.1889
-10.3276
-10.4781
-10.6408
-10.8181
-11.006
-11.2127
-11.4104
-8.67539
-8.67116
-8.69454
-8.71965
-8.74855
-8.78339
-8.82025
-8.85849
-8.89855
-8.94054
-8.98473
-9.0315
-9.08118
-9.13409
-9.19056
-9.25093
-9.31557
-9.38486
-9.4592
-9.53906
-9.6249
-9.71722
-9.81662
-9.9237
-10.0391
-10.1636
-10.2979
-10.4428
-10.5986
-10.7665
-10.9439
-11.1343
-11.3229
-8.67095
-8.66226
-8.68244
-8.71257
-8.74535
-8.78115
-8.81796
-8.85576
-8.89519
-8.93653
-8.98005
-9.0261
-9.07501
-9.12708
-9.18264
-9.242
-9.30551
-9.37351
-9.44641
-9.5246
-9.60851
-9.6986
-9.79538
-9.8994
-10.0112
-10.1313
-10.2604
-10.3989
-10.5471
-10.7054
-10.8722
-11.0489
-11.2279
-8.67835
-8.67737
-8.69572
-8.72169
-8.75034
-8.78263
-8.81716
-8.8534
-8.8916
-8.93189
-8.97444
-9.01954
-9.06746
-9.11849
-9.17291
-9.23102
-9.29312
-9.35956
-9.43067
-9.50682
-9.5884
-9.67582
-9.7695
-9.86989
-9.97745
-10.0926
-10.2158
-10.3473
-10.4872
-10.6358
-10.7919
-10.9559
-11.1244
-8.68331
-8.684
-8.69964
-8.72334
-8.7506
-8.78146
-8.81474
-8.84984
-8.88694
-8.92616
-8.96765
-9.01167
-9.05845
-9.10824
-9.16131
-9.21793
-9.27837
-9.34294
-9.41194
-9.4857
-9.56456
-9.64885
-9.73894
-9.8352
-9.93795
-10.0475
-10.1642
-10.2882
-10.4194
-10.5579
-10.7031
-10.8548
-11.0116
-8.68784
-8.69016
-8.70456
-8.72634
-8.75173
-8.78062
-8.81216
-8.8458
-8.88157
-8.91953
-8.9598
-9.00256
-9.04801
-9.09637
-9.14788
-9.20277
-9.2613
-9.32371
-9.3903
-9.46132
-9.53707
-9.61783
-9.70389
-9.79552
-9.89297
-9.99646
-10.1061
-10.2221
-10.3442
-10.4725
-10.6063
-10.7457
-10.8899
-8.69152
-8.69456
-8.70774
-8.72766
-8.75137
-8.77857
-8.80856
-8.8408
-8.87522
-8.91185
-8.95078
-8.99213
-9.03609
-9.08284
-9.13258
-9.18552
-9.24188
-9.30187
-9.36574
-9.4337
-9.50599
-9.58283
-9.66444
-9.75101
-9.84271
-9.93966
-10.0419
-10.1495
-10.2622
-10.3798
-10.5022
-10.6289
-10.7596
-8.6942
-8.69758
-8.7098
-8.72815
-8.75029
-8.77585
-8.80425
-8.83498
-8.86794
-8.90312
-8.94055
-8.98035
-9.02265
-9.0676
-9.11538
-9.16615
-9.2201
-9.27741
-9.33826
-9.40285
-9.47135
-9.54392
-9.62071
-9.70184
-9.7874
-9.87743
-9.9719
-10.0707
-10.1737
-10.2806
-10.3911
-10.5049
-10.6216
-8.6958
-8.69925
-8.7106
-8.72753
-8.74816
-8.77214
-8.79896
-8.82817
-8.8596
-8.89322
-8.92905
-8.96716
-9.00764
-9.05061
-9.09623
-9.14462
-9.19592
-9.2503
-9.30788
-9.36881
-9.43321
-9.50118
-9.57282
-9.64817
-9.72726
-9.81004
-9.89643
-9.98625
-10.0793
-10.1752
-10.2737
-10.3745
-10.4769
-8.69623
-8.69961
-8.71017
-8.7258
-8.74501
-8.76746
-8.79271
-8.82034
-8.85017
-8.88214
-8.91624
-8.95251
-8.99101
-9.03184
-9.0751
-9.1209
-9.16935
-9.22055
-9.2746
-9.3316
-9.39162
-9.45471
-9.5209
-9.59019
-9.66252
-9.7378
-9.81587
-9.89653
-9.97948
-10.0644
-10.1509
-10.2385
-10.3267
-8.69546
-8.6987
-8.70849
-8.72293
-8.74077
-8.76173
-8.7854
-8.81141
-8.83957
-8.8698
-8.90206
-8.93636
-8.97274
-9.01125
-9.05198
-9.095
-9.14037
-9.18817
-9.23846
-9.29128
-9.34667
-9.40462
-9.46511
-9.52809
-9.59345
-9.66103
-9.73064
-9.80201
-9.87482
-9.94869
-10.0232
-10.0978
-10.172
-8.69345
-8.6965
-8.70557
-8.71888
-8.7354
-8.7549
-8.77699
-8.80135
-8.82778
-8.85617
-8.88648
-8.91868
-8.95279
-8.98884
-9.02686
-9.06691
-9.10901
-9.1532
-9.19951
-9.24794
-9.29847
-9.35107
-9.40566
-9.46214
-9.52036
-9.58012
-9.64117
-9.70322
-9.76591
-9.82884
-9.89154
-9.95351
-10.0141
-8.69019
-8.69303
-8.70138
-8.71363
-8.72888
-8.74692
-8.76744
-8.79011
-8.81474
-8.84122
-8.86947
-8.89946
-8.93116
-8.96459
-8.99975
-9.03666
-9.07531
-9.11572
-9.15786
-9.2017
-9.2472
-9.29426
-9.34279
-9.39263
-9.4436
-9.49546
-9.54795
-9.60072
-9.65342
-9.70561
-9.7568
-9.80651
-9.85402
-8.68565
-8.68827
-8.69594
-8.70716
-8.72116
-8.73777
-8.7567
-8.77765
-8.80043
-8.82492
-8.85103
-8.87869
-8.90787
-8.93854
-8.97069
-9.0043
-9.03935
-9.0758
-9.11361
-9.15271
-9.19302
-9.23442
-9.27677
-9.31988
-9.36356
-9.40753
-9.45149
-9.49512
-9.53801
-9.57975
-9.61983
-9.65779
-9.69292
-8.67985
-8.68224
-8.68924
-8.69946
-8.71224
-8.72743
-8.74476
-8.76396
-8.78484
-8.80727
-8.83114
-8.85638
-8.88292
-8.91072
-8.93973
-8.96992
-9.00122
-9.03358
-9.06693
-9.10116
-9.13617
-9.17181
-9.20792
-9.24428
-9.28067
-9.3168
-9.35238
-9.38704
-9.42041
-9.45206
-9.48151
-9.50832
-9.5318
-8.67277
-8.67494
-8.68127
-8.69052
-8.7021
-8.71587
-8.7316
-8.74902
-8.76796
-8.78827
-8.80983
-8.83256
-8.85637
-8.88118
-8.90695
-8.9336
-8.96104
-8.98921
-9.01799
-9.04727
-9.07691
-9.10675
-9.13659
-9.16622
-9.19539
-9.22381
-9.25118
-9.27714
-9.30132
-9.32331
-9.34267
-9.35899
-9.37162
-8.66443
-8.66638
-8.67206
-8.68036
-8.69074
-8.70311
-8.71722
-8.73285
-8.74981
-8.76794
-8.78714
-8.80728
-8.82827
-8.85003
-8.87246
-8.89547
-8.91898
-8.94287
-8.96702
-8.99129
-9.01553
-9.03956
-9.06318
-9.08615
-9.10821
-9.1291
-9.1485
-9.16607
-9.18146
-9.1943
-9.20415
-9.21068
-9.21328
-8.65484
-8.65658
-8.66162
-8.66897
-8.67818
-8.68914
-8.70164
-8.71545
-8.7304
-8.74633
-8.7631
-8.7806
-8.79871
-8.81734
-8.83636
-8.85569
-8.87519
-8.89476
-8.91425
-8.9335
-8.95236
-8.97062
-8.98808
-9.00451
-9.01965
-9.03323
-9.04495
-9.0545
-9.06155
-9.06575
-9.06672
-9.06417
-9.05756
-8.64404
-8.64556
-8.64996
-8.6564
-8.66444
-8.674
-8.68489
-8.69688
-8.7098
-8.72349
-8.73781
-8.75263
-8.76782
-8.78327
-8.79885
-8.81445
-8.82993
-8.84515
-8.85998
-8.87424
-8.88775
-8.90033
-8.91177
-8.92182
-8.93025
-8.9368
-8.94118
-8.94311
-8.94228
-8.9384
-8.93114
-8.92023
-8.90522
-8.63205
-8.63336
-8.63714
-8.64265
-8.64954
-8.65771
-8.66698
-8.67715
-8.68803
-8.69946
-8.71131
-8.72342
-8.73567
-8.74792
-8.76004
-8.7719
-8.78335
-8.79426
-8.80446
-8.81379
-8.82206
-8.82908
-8.83465
-8.83854
-8.84052
-8.84034
-8.83776
-8.8325
-8.82431
-8.81293
-8.79807
-8.77953
-8.75691
-8.61893
-8.62002
-8.62319
-8.6278
-8.63356
-8.64037
-8.64805
-8.65641
-8.66527
-8.67446
-8.68384
-8.69325
-8.70256
-8.71161
-8.72028
-8.72841
-8.73588
-8.74251
-8.74815
-8.75264
-8.75579
-8.75741
-8.75731
-8.75527
-8.75108
-8.74453
-8.73537
-8.72339
-8.70835
-8.69003
-8.66822
-8.64273
-8.61327
-8.60472
-8.60561
-8.60815
-8.61187
-8.61649
-8.62192
-8.628
-8.63455
-8.64138
-8.64833
-8.65525
-8.66197
-8.66835
-8.67424
-8.67949
-8.68397
-8.6875
-8.68996
-8.69116
-8.69095
-8.68915
-8.68558
-8.68005
-8.67237
-8.66236
-8.6498
-8.6345
-8.61627
-8.59491
-8.57025
-8.54211
-8.51037
-8.47478
-8.58952
-8.5902
-8.59216
-8.59503
-8.5986
-8.60276
-8.60734
-8.61216
-8.61704
-8.62182
-8.62633
-8.63041
-8.63391
-8.63668
-8.63857
-8.63944
-8.63913
-8.63749
-8.63436
-8.62959
-8.62301
-8.61446
-8.60375
-8.59072
-8.5752
-8.55701
-8.53598
-8.51196
-8.4848
-8.45435
-8.42048
-8.38312
-8.34205
-8.57337
-8.57382
-8.57511
-8.57702
-8.57941
-8.58218
-8.58517
-8.58822
-8.59114
-8.59377
-8.59591
-8.59743
-8.59814
-8.59791
-8.59657
-8.59399
-8.59
-8.58447
-8.57724
-8.56816
-8.55707
-8.54383
-8.52827
-8.51026
-8.48963
-8.46625
-8.43998
-8.41068
-8.37826
-8.3426
-8.3036
-8.26125
-8.21538
-8.55646
-8.55679
-8.55766
-8.55894
-8.56051
-8.56224
-8.56394
-8.56543
-8.56655
-8.56712
-8.56697
-8.56595
-8.5639
-8.56068
-8.55613
-8.55013
-8.54251
-8.53316
-8.52192
-8.50865
-8.49322
-8.47549
-8.45532
-8.43259
-8.40717
-8.37894
-8.34781
-8.31366
-8.27643
-8.23604
-8.19244
-8.14563
-8.09549
-8.53871
-8.53851
-8.53826
-8.53816
-8.53828
-8.53851
-8.53865
-8.53851
-8.53788
-8.53656
-8.53435
-8.53109
-8.52661
-8.52075
-8.51337
-8.50432
-8.49348
-8.4807
-8.46586
-8.44884
-8.4295
-8.40774
-8.38343
-8.35648
-8.32678
-8.29424
-8.25879
-8.22037
-8.17891
-8.13439
-8.08678
-8.03612
-7.98233
-8.52094
-8.5214
-8.52163
-8.52172
-8.52164
-8.5212
-8.52025
-8.51866
-8.51626
-8.51288
-8.50836
-8.50257
-8.49534
-8.48655
-8.47606
-8.46374
-8.44948
-8.43314
-8.41461
-8.39378
-8.37055
-8.34481
-8.31647
-8.28544
-8.25165
-8.21503
-8.17553
-8.13311
-8.08774
-8.03944
-7.98819
-7.93405
-7.877
-8.50104
-8.49873
-8.49561
-8.49299
-8.49103
-8.48927
-8.4873
-8.48479
-8.48145
-8.47703
-8.47131
-8.4641
-8.45526
-8.44462
-8.43206
-8.41746
-8.40072
-8.38171
-8.36036
-8.33656
-8.31024
-8.28131
-8.2497
-8.21535
-8.17822
-8.13826
-8.09545
-8.04976
-8.00122
-7.94982
-7.89562
-7.83867
-7.77897
-8.48713
-8.49034
-8.49094
-8.48984
-8.48777
-8.48483
-8.481
-8.4762
-8.47026
-8.46302
-8.45432
-8.44402
-8.43198
-8.41809
-8.4022
-8.38423
-8.36405
-8.34158
-8.31672
-8.28939
-8.25951
-8.22701
-8.19185
-8.15396
-8.11332
-8.06991
-8.02372
-7.97475
-7.92303
-7.86861
-7.81153
-7.7519
-7.68972
-8.45448
-8.44459
-8.43618
-8.43232
-8.43076
-8.42947
-8.42765
-8.42486
-8.42071
-8.4149
-8.40721
-8.39749
-8.38562
-8.37148
-8.35501
-8.33611
-8.31473
-8.29081
-8.26429
-8.23513
-8.20329
-8.16873
-8.13142
-8.09136
-8.04852
-8.00292
-7.95456
-7.90346
-7.84968
-7.79327
-7.73428
-7.67282
-7.60892
-8.47714
-8.48766
-8.48567
-8.47767
-8.46953
-8.46164
-8.45333
-8.4442
-8.434
-8.4225
-8.40948
-8.39476
-8.37818
-8.35959
-8.33888
-8.31593
-8.29065
-8.26296
-8.23278
-8.20006
-8.16474
-8.12678
-8.08615
-8.04283
-7.99683
-7.94815
-7.89681
-7.84287
-7.78638
-7.72742
-7.66609
-7.60249
-7.53671
-8.37029
-8.33437
-8.3287
-8.33763
-8.346
-8.35174
-8.35534
-8.35659
-8.3551
-8.35072
-8.34343
-8.33324
-8.32017
-8.30422
-8.28541
-8.26376
-8.23927
-8.21197
-8.18186
-8.14895
-8.11327
-8.07481
-8.0336
-7.98966
-7.94301
-7.89368
-7.8417
-7.78712
-7.72999
-7.67036
-7.60832
-7.54395
-7.47732
-8.56293
-8.58297
-8.54408
-8.50098
-8.47655
-8.45921
-8.4429
-8.42705
-8.41125
-8.39482
-8.37723
-8.35817
-8.33736
-8.31461
-8.28977
-8.26268
-8.23326
-8.20142
-8.16709
-8.13021
-8.09075
-8.04868
-8.00399
-7.95667
-7.90676
-7.85427
-7.79927
-7.74183
-7.68202
-7.61997
-7.5558
-7.48966
-7.42165
-8.14707
-8.06523
-8.11919
-8.19653
-8.23338
-8.25654
-8.27491
-8.28661
-8.29203
-8.29225
-8.28787
-8.27926
-8.26674
-8.25057
-8.23094
-8.20802
-8.18194
-8.15283
-8.12078
-8.08588
-8.0482
-8.00781
-7.96478
-7.91914
-7.87092
-7.82017
-7.76689
-7.7111
-7.65282
-7.59206
-7.52885
-7.46324
-7.39525
-9.11522
-8.83461
-8.62471
-8.52399
-8.48137
-8.44964
-8.42254
-8.40034
-8.38056
-8.36125
-8.34146
-8.32059
-8.29816
-8.27384
-8.2474
-8.21867
-8.18752
-8.15387
-8.11765
-8.07883
-8.0374
-7.99336
-7.94673
-7.89754
-7.84585
-7.79173
-7.73524
-7.6765
-7.6156
-7.55269
-7.48788
-7.42138
-7.35319
-7.15414
-7.71368
-8.01044
-8.11904
-8.1876
-8.23769
-8.26725
-8.28303
-8.28977
-8.28923
-8.28272
-8.27127
-8.25556
-8.23603
-8.21301
-8.18676
-8.15751
-8.12542
-8.09065
-8.05336
-8.01365
-7.97165
-7.92742
-7.88103
-7.83249
-7.78177
-7.72881
-7.67351
-7.61574
-7.55533
-7.49214
-7.42604
-7.35701
-12.1642
-10.8122
-11.1197
-12.4471
-14.2655
-16.2736
-18.1891
-19.894
-21.2449
-22.0888
-22.2678
-21.6776
-20.3534
-18.3861
-16.0029
-13.5822
-11.364
-9.41694
-7.73654
-6.2911
-5.05382
-3.99988
-3.1056
-2.35038
-1.71631
-1.1877
-0.750841
-0.39355
-0.10492
0.124941
0.305104
0.443985
0.549324
0.627886
0.685083
0.724976
0.750677
0.764785
0.769574
0.767019
0.758779
0.746214
0.730419
0.71228
0.692513
0.67169
0.65027
0.628615
0.607005
0.585659
0.564737
0.544357
0.524603
0.505527
0.487159
0.469513
0.452584
0.43636
0.420818
0.405929
0.39166
0.377976
0.364839
0.352209
0.340047
0.328315
0.316975
0.30599
0.295325
0.284947
0.274823
0.264924
0.255221
0.245689
0.236301
0.227037
0.217873
0.208792
0.199775
0.190805
0.181867
0.172947
0.164033
0.155112
0.146174
0.13721
0.12821
0.119166
0.110071
0.100918
0.0917006
0.0824131
0.0730498
0.0636068
0.0540771
0.0444616
0.0347458
0.0249462
0.0150213
0.00503666
-12.3796
-11.926
-12.0424
-12.933
-14.2298
-15.8031
-17.4072
-18.8619
-19.9964
-20.6534
-20.7232
-20.1627
-18.9655
-17.2194
-15.1573
-13.0324
-11.0172
-9.21067
-7.62866
-6.25297
-5.065
-4.04545
-3.1747
-2.43497
-1.81028
-1.28644
-0.850828
-0.492151
-0.200191
0.0343871
0.220197
0.365244
0.476879
0.561541
0.624454
0.66964
0.700251
0.718927
0.727962
0.729335
0.72471
0.715454
0.702678
0.687286
0.670012
0.651448
0.632071
0.612263
0.592321
0.572478
0.552913
0.533755
0.515102
0.497018
0.479543
0.4627
0.446494
0.43092
0.415962
0.401599
0.387802
0.374541
0.361784
0.349494
0.337637
0.326178
0.315082
0.304315
0.293845
0.28364
0.273671
0.263909
0.254329
0.244905
0.235614
0.226434
0.217347
0.208332
0.199373
0.190455
0.181563
0.172683
0.163804
0.154914
0.146004
0.137063
0.128084
0.119058
0.109979
0.10084
0.0916342
0.0823573
0.0730035
0.0635687
0.0540468
0.0444372
0.0347293
0.0249318
0.0150202
0.00502392
-11.935
-11.7015
-11.856
-12.6929
-13.8978
-15.277
-16.651
-17.8676
-18.7946
-19.3172
-19.3445
-18.8136
-17.7232
-16.1922
-14.3885
-12.4926
-10.6656
-8.9988
-7.51539
-6.21012
-5.07232
-4.08797
-3.24148
-2.51785
-1.90315
-1.38462
-0.950765
-0.591143
-0.296218
-0.0572093
0.134028
0.285074
0.402886
0.493581
0.562197
0.612707
0.648286
0.671601
0.684959
0.690341
0.689411
0.683546
0.67387
0.661305
0.646601
0.630371
0.61311
0.595216
0.577005
0.558726
0.540571
0.522687
0.505181
0.488131
0.471588
0.455583
0.440132
0.425237
0.410889
0.397074
0.38377
0.370952
0.358591
0.346657
0.335118
0.323945
0.313103
0.302564
0.292297
0.282274
0.272466
0.262849
0.253396
0.244085
0.234895
0.225805
0.216796
0.207851
0.198954
0.19009
0.181245
0.172407
0.163565
0.154707
0.145825
0.136909
0.127952
0.118945
0.109882
0.100757
0.0915649
0.0822991
0.0729552
0.0635289
0.0540152
0.0444118
0.0347121
0.0249169
0.0150188
0.00501123
-11.8089
-11.8852
-12.1627
-12.8753
-13.8434
-14.9369
-16.0368
-17.0174
-17.7599
-18.1539
-18.1081
-17.5844
-16.6101
-15.261
-13.6642
-11.9732
-10.3201
-8.785
-7.39767
-6.16252
-5.07531
-4.12685
-3.30533
-2.5985
-1.99441
-1.48178
-1.05022
-0.69012
-0.392631
-0.149524
0.0468699
0.203697
0.327524
0.42415
0.498429
0.554271
0.594855
0.622865
0.640609
0.650066
0.652904
0.650503
0.644003
0.634338
0.622279
0.608455
0.593378
0.577464
0.561046
0.544389
0.5277
0.511139
0.494827
0.478853
0.46328
0.44815
0.433486
0.419299
0.405589
0.392346
0.379557
0.367201
0.355254
0.343691
0.332486
0.32161
0.311036
0.300735
0.29068
0.280847
0.271208
0.26174
0.252421
0.243229
0.234144
0.225147
0.21622
0.207348
0.198515
0.189708
0.180913
0.172119
0.163315
0.154492
0.145639
0.136749
0.127814
0.118827
0.109782
0.100672
0.0914925
0.0822383
0.0729047
0.0634874
0.0539822
0.0443854
0.0346941
0.0249016
0.015017
0.00499873
-11.6727
-11.8398
-12.1244
-12.7227
-13.5415
-14.4655
-15.3884
-16.1978
-16.7889
-17.0721
-16.982
-16.4892
-15.6101
-14.4095
-12.9928
-11.4816
-9.98405
-8.57122
-7.27633
-6.11011
-5.07348
-4.16142
-3.36556
-2.67624
-2.08344
-1.57735
-1.14865
-0.788597
-0.488999
-0.242188
-0.0409741
0.121357
0.250986
0.353403
0.433271
0.494425
0.540031
0.572771
0.594949
0.608539
0.615205
0.616335
0.613078
0.606385
0.59704
0.58569
0.572864
0.558994
0.544431
0.529453
0.514283
0.499096
0.484025
0.469171
0.454608
0.440389
0.426545
0.413097
0.400051
0.387407
0.375154
0.36328
0.351766
0.340592
0.329735
0.31917
0.308874
0.298822
0.28899
0.279354
0.269892
0.260582
0.251402
0.242334
0.233359
0.224459
0.215619
0.206823
0.198057
0.189309
0.180566
0.171818
0.163054
0.154266
0.145444
0.136581
0.12767
0.118703
0.109676
0.100582
0.0914169
0.0821749
0.0728521
0.0634441
0.0539478
0.0443578
0.0346753
0.0248857
0.0150148
0.00498652
-11.5614
-11.7886
-12.1018
-12.6287
-13.3158
-14.073
-14.817
-15.4586
-15.9114
-16.1014
-15.9735
-15.5036
-14.7064
-13.6348
-12.3725
-11.0174
-9.65856
-8.35879
-7.15194
-6.05288
-5.06646
-4.19116
-3.42161
-2.75052
-2.16974
-1.67086
-1.24565
-0.886202
-0.584995
-0.334918
-0.129262
0.0382561
0.173438
0.281474
0.366832
0.433256
0.483879
0.521368
0.548015
0.565783
0.576331
0.581051
0.581101
0.577443
0.570878
0.562067
0.551556
0.539793
0.527143
0.513901
0.500305
0.486542
0.472759
0.459069
0.445557
0.432285
0.419296
0.406618
0.394265
0.382244
0.370552
0.359182
0.34812
0.337351
0.326857
0.316618
0.306613
0.296821
0.287221
0.277793
0.268515
0.259369
0.250336
0.241398
0.232537
0.22374
0.214989
0.206273
0.197578
0.188891
0.180203
0.171503
0.162781
0.15403
0.14524
0.136406
0.127519
0.118574
0.109566
0.100489
0.0913379
0.0821086
0.0727971
0.0633989
0.0539118
0.044329
0.0346555
0.0248692
0.0150119
0.00497471
-11.4492
-11.6953
-12.0048
-12.4579
-13.0278
-13.6475
-14.249
-14.7579
-15.1013
-15.2171
-15.061
-14.6142
-13.8888
-12.9277
-11.7981
-10.5791
-9.34433
-8.14856
-7.02498
-5.9909
-5.05403
-4.21566
-3.47298
-2.82086
-2.25284
-1.76189
-1.34083
-0.982578
-0.680297
-0.427429
-0.217749
-0.045396
0.0950597
0.208514
0.299237
0.370864
0.426479
0.468719
0.499855
0.521833
0.536307
0.544668
0.54808
0.547517
0.543793
0.537583
0.529448
0.519851
0.509173
0.497724
0.485754
0.473465
0.461016
0.448534
0.436113
0.423827
0.411727
0.39985
0.38822
0.376849
0.365742
0.354897
0.344307
0.333962
0.323848
0.313949
0.304248
0.294728
0.285371
0.276159
0.267075
0.258101
0.24922
0.240417
0.231678
0.222986
0.214331
0.205698
0.197076
0.188454
0.179823
0.171173
0.162496
0.153783
0.145027
0.136222
0.127361
0.118439
0.109451
0.100391
0.0912553
0.0820392
0.0727396
0.0633515
0.0538742
0.044299
0.0346346
0.0248522
0.0150083
0.00496339
-11.3307
-11.5766
-11.8722
-12.2645
-12.7378
-13.2417
-13.7205
-14.114
-14.3626
-14.4154
-14.2364
-13.8102
-13.1468
-12.2806
-11.2656
-10.1656
-9.04155
-7.94117
-6.89597
-5.9244
-5.03614
-4.23468
-3.51934
-2.88685
-2.33233
-1.85004
-1.4338
-1.07738
-0.774596
-0.519447
-0.306189
-0.129382
0.0160413
0.134688
0.230624
0.307364
0.367922
0.414895
0.450525
0.476735
0.495168
0.507211
0.514035
0.516621
0.515793
0.512241
0.50654
0.499167
0.490516
0.480912
0.47062
0.459855
0.448788
0.437556
0.426268
0.415005
0.403829
0.392786
0.381907
0.371214
0.360716
0.350419
0.340322
0.330419
0.3207
0.311156
0.301774
0.292538
0.283435
0.27445
0.265567
0.256773
0.248052
0.239391
0.230778
0.222198
0.213641
0.205095
0.19655
0.187997
0.179425
0.170828
0.162197
0.153524
0.144804
0.13603
0.127196
0.118298
0.10933
0.100289
0.0911688
0.0819666
0.0726794
0.063302
0.0538347
0.0442675
0.0346127
0.0248345
0.015004
0.00495263
-11.2028
-11.4366
-11.7089
-12.0451
-12.4345
-12.8395
-13.2151
-13.5125
-13.6829
-13.6846
-13.488
-13.0811
-12.4715
-11.6871
-10.7711
-9.77542
-8.75035
-7.7373
-6.76555
-5.8538
-5.01296
-4.24818
-3.56049
-2.94822
-2.4079
-1.93498
-1.52426
-1.17031
-0.867603
-0.610704
-0.394339
-0.213483
-0.0634199
0.0601685
0.161142
0.242879
0.308312
0.359983
0.400094
0.430543
0.452956
0.468715
0.478991
0.484772
0.486892
0.486051
0.482837
0.477742
0.471172
0.463466
0.454902
0.445707
0.436067
0.42613
0.416013
0.405811
0.395594
0.385417
0.37532
0.365331
0.355468
0.345742
0.336158
0.326715
0.317411
0.308237
0.299186
0.290248
0.28141
0.272661
0.26399
0.255383
0.24683
0.238318
0.229836
0.221373
0.212919
0.204464
0.196
0.187518
0.179009
0.170466
0.161883
0.153253
0.14457
0.135829
0.127024
0.11815
0.109204
0.100181
0.0910782
0.0818907
0.0726163
0.0632502
0.0537934
0.0442346
0.0345895
0.0248161
0.0149987
0.00494247
-11.0647
-11.2799
-11.5241
-11.8095
-12.1272
-12.4486
-12.7374
-12.9541
-13.059
-13.0183
-12.8081
-12.4184
-11.8556
-11.1417
-10.3117
-9.40746
-8.47088
-7.53762
-6.63445
-5.77969
-4.98486
-4.2563
-3.59639
-3.00481
-2.47932
-2.01644
-1.61192
-1.26108
-0.959049
-0.700944
-0.481959
-0.297473
-0.14312
-0.0148608
0.0909506
0.177547
0.247764
0.304077
0.348641
0.383322
0.409725
0.429222
0.442982
0.451998
0.45711
0.459028
0.458352
0.455584
0.451145
0.445386
0.438598
0.431021
0.422852
0.41425
0.405346
0.396241
0.387018
0.377739
0.368454
0.359196
0.349993
0.340861
0.331811
0.322849
0.313975
0.305188
0.296483
0.287854
0.279293
0.270792
0.262341
0.253931
0.245552
0.237195
0.22885
0.220509
0.212164
0.203805
0.195425
0.187017
0.178573
0.170088
0.161556
0.15297
0.144326
0.135618
0.126843
0.117995
0.109072
0.100069
0.0909835
0.0818111
0.0725503
0.0631959
0.05375
0.0442002
0.0345651
0.024797
0.0149924
0.00493294
-10.9171
-11.1102
-11.3239
-11.5627
-11.8184
-12.0687
-12.2844
-12.4336
-12.4843
-12.4091
-12.1886
-11.8147
-11.2926
-10.6398
-9.88452
-9.06079
-8.20333
-7.34285
-6.5035
-5.70275
-4.95233
-4.25932
-3.62715
-3.05658
-2.54644
-2.09422
-1.69654
-1.34944
-1.04868
-0.789923
-0.568813
-0.381131
-0.222849
-0.0902099
0.0202191
0.111515
0.186404
0.247284
0.296256
0.335147
0.365537
0.388784
0.406053
0.418335
0.426476
0.431195
0.433101
0.432707
0.430446
0.426681
0.421715
0.4158
0.409144
0.401919
0.394265
0.386295
0.378099
0.369751
0.361306
0.352807
0.344289
0.335774
0.327279
0.318816
0.310391
0.302006
0.293662
0.285356
0.277083
0.26884
0.260618
0.252413
0.244216
0.236021
0.227821
0.219607
0.211374
0.203115
0.194823
0.186493
0.178118
0.169693
0.161213
0.152674
0.14407
0.135398
0.126654
0.117834
0.108934
0.0999519
0.0908844
0.081728
0.0724813
0.0631392
0.0537047
0.0441641
0.0345394
0.0247771
0.0149851
0.00492404
-10.7612
-10.9305
-11.1133
-11.3096
-11.5115
-11.7013
-11.8557
-11.9486
-11.9546
-11.8512
-11.6231
-11.2638
-10.7772
-10.1775
-9.48737
-8.73455
-7.94788
-7.15367
-6.37351
-5.62375
-4.91596
-4.25764
-3.65296
-3.10357
-2.6092
-2.16819
-1.77794
-1.43518
-1.13628
-0.877408
-0.65467
-0.464231
-0.302396
-0.165683
-0.0508757
0.0449382
0.124366
0.189721
0.243039
0.286104
0.320465
0.347463
0.368253
0.383824
0.395026
0.402583
0.40711
0.409131
0.409091
0.407363
0.404262
0.400051
0.39495
0.389141
0.382775
0.375974
0.368839
0.361452
0.353876
0.346164
0.338355
0.330479
0.322561
0.314617
0.306657
0.298691
0.290722
0.282751
0.274779
0.266804
0.258822
0.25083
0.242823
0.234797
0.226746
0.218666
0.21055
0.202395
0.194195
0.185946
0.177642
0.16928
0.160855
0.152364
0.143803
0.135168
0.126456
0.117665
0.10879
0.0998294
0.0907809
0.0816411
0.0724091
0.0630799
0.0536572
0.0441265
0.0345123
0.0247565
0.0149767
0.00491572
-10.5984
-10.7434
-10.8959
-11.0536
-11.2088
-11.3473
-11.45
-11.4962
-11.4653
-11.3394
-11.106
-10.7601
-10.3047
-9.75131
-9.11817
-8.42795
-7.70463
-6.97069
-6.24527
-5.54344
-4.87637
-4.25169
-3.6741
-3.14591
-2.6676
-2.23825
-1.85596
-1.51811
-1.22163
-0.96318
-0.739306
-0.546553
-0.381547
-0.241078
-0.12215
-0.0220186
0.061797
0.131514
0.1891
0.236287
0.27459
0.305328
0.329642
0.348518
0.362804
0.373226
0.380409
0.384883
0.387103
0.387452
0.386255
0.383788
0.38028
0.375924
0.370881
0.365284
0.359242
0.352846
0.346168
0.339268
0.332193
0.32498
0.317658
0.310251
0.302775
0.295242
0.287662
0.280041
0.272381
0.264684
0.256951
0.249181
0.241372
0.233522
0.225627
0.217685
0.209692
0.201645
0.193541
0.185376
0.177146
0.16885
0.160482
0.152042
0.143525
0.134929
0.126251
0.117488
0.10864
0.0997017
0.0906729
0.0815505
0.0723339
0.063018
0.0536076
0.0440872
0.0344838
0.0247352
0.0149674
0.00490792
-10.4301
-10.5513
-10.6749
-10.7976
-10.9123
-11.007
-11.0664
-11.0739
-11.0128
-10.8689
-10.6322
-10.2987
-9.87098
-9.35814
-8.77503
-8.1402
-7.4736
-6.79441
-6.11947
-5.46253
-4.83416
-4.24195
-3.69088
-3.18376
-2.72168
-2.30436
-1.9305
-1.59808
-1.30454
-1.04703
-0.822505
-0.627877
-0.460088
-0.316194
-0.193416
-0.0891841
-0.001151
0.0727993
0.134558
0.185801
0.228004
0.262459
0.29029
0.312475
0.329859
0.34317
0.353035
0.359994
0.364507
0.366969
0.367714
0.367027
0.365148
0.36228
0.358594
0.354233
0.349315
0.343939
0.338187
0.332124
0.325806
0.319277
0.312573
0.305721
0.298745
0.291662
0.284485
0.277225
0.269889
0.262482
0.255007
0.247468
0.239864
0.232196
0.224463
0.216664
0.208799
0.200865
0.19286
0.184782
0.17663
0.168402
0.160094
0.151706
0.143235
0.134679
0.126036
0.117305
0.108483
0.0995687
0.0905606
0.0814562
0.0722555
0.0629536
0.053556
0.0440463
0.034454
0.024713
0.014957
0.00490057
-10.2578
-10.356
-10.4527
-10.5439
-10.6232
-10.6807
-10.7039
-10.6793
-10.5937
-10.4357
-10.1974
-9.87557
-9.47237
-8.99523
-8.4562
-7.87047
-7.2547
-6.6252
-5.99672
-5.38167
-4.78993
-4.22888
-3.70362
-3.21732
-2.77153
-2.3665
-2.00147
-1.67493
-1.38484
-1.12876
-0.904055
-0.707988
-0.537806
-0.390823
-0.26448
-0.156381
-0.0643164
0.0137215
0.0795419
0.13476
0.180807
0.218943
0.250274
0.275763
0.296251
0.312464
0.325034
0.334502
0.341339
0.345944
0.348663
0.349788
0.349572
0.348225
0.345928
0.342833
0.339068
0.33474
0.329938
0.324738
0.3192
0.313376
0.307308
0.30103
0.294571
0.287952
0.281193
0.274306
0.267305
0.260198
0.252991
0.24569
0.238298
0.230819
0.223255
0.215605
0.207872
0.200055
0.192153
0.184167
0.176095
0.167937
0.159691
0.151358
0.142934
0.13442
0.125814
0.117114
0.10832
0.0994306
0.0904439
0.0813582
0.0721741
0.0628867
0.0535022
0.0440038
0.0344228
0.0246901
0.0149458
0.00489358
-10.0829
-10.1594
-10.2311
-10.2942
-10.3428
-10.3687
-10.3615
-10.3105
-10.2051
-10.0362
-9.79766
-9.48687
-9.10566
-8.6601
-8.16002
-7.61794
-7.04773
-6.4633
-5.87749
-5.30142
-4.74422
-4.21294
-3.71268
-3.24682
-2.81726
-2.42469
-2.06881
-1.74857
-1.46237
-1.20819
-0.983759
-0.78668
-0.614491
-0.464763
-0.335148
-0.223426
-0.127531
-0.045567
0.0241895
0.0832872
0.133108
0.174878
0.209678
0.238457
0.262046
0.281168
0.296455
0.308453
0.317635
0.324411
0.329131
0.3321
0.333575
0.333778
0.332899
0.331099
0.328514
0.32526
0.321434
0.317118
0.312382
0.307283
0.30187
0.296184
0.290257
0.284117
0.277788
0.271287
0.264632
0.257834
0.250903
0.243849
0.236678
0.229394
0.222004
0.214509
0.206912
0.199215
0.191421
0.183529
0.17554
0.167455
0.159274
0.150996
0.142622
0.134152
0.125583
0.116917
0.108152
0.0992874
0.0903229
0.0812567
0.0720897
0.0628173
0.0534464
0.0439597
0.0343904
0.0246664
0.0149337
0.00488685
-9.90671
-9.96289
-10.0117
-10.0498
-10.0718
-10.0708
-10.0384
-9.96574
-9.84449
-9.66745
-9.42972
-9.12938
-8.76797
-8.35048
-7.88496
-7.38174
-6.85244
-6.30886
-5.76217
-5.22228
-4.69753
-4.19457
-3.71839
-3.27249
-2.85901
-2.47898
-2.13249
-1.81891
-1.537
-1.28515
-1.06143
-0.86375
-0.689938
-0.537807
-0.405221
-0.290133
-0.190622
-0.104906
-0.0313536
0.0315144
0.0850269
0.130371
0.168599
0.200642
0.227318
0.249348
0.267358
0.281897
0.293443
0.302409
0.309155
0.313991
0.317183
0.318964
0.319529
0.319049
0.317669
0.315512
0.312684
0.309275
0.305361
0.301007
0.296267
0.291187
0.285808
0.280161
0.274274
0.268172
0.261872
0.255393
0.248748
0.241948
0.235004
0.227922
0.220711
0.213375
0.20592
0.198348
0.190664
0.182869
0.174966
0.166957
0.158842
0.150623
0.1423
0.133874
0.125345
0.116713
0.107978
0.0991394
0.0901978
0.0811517
0.0720024
0.0627455
0.0533887
0.0439141
0.0343567
0.024642
0.0149209
0.0048803
-9.73047
-9.76783
-9.796
-9.81187
-9.81091
-9.78708
-9.73356
-9.64329
-9.50951
-9.32656
-9.0906
-8.80022
-8.45674
-8.06431
-7.62955
-7.16103
-6.66848
-6.16193
-5.65107
-5.14468
-4.65032
-4.17419
-3.72111
-3.29459
-2.89694
-2.52945
-2.19252
-1.88587
-1.60862
-1.3595
-1.13689
-0.93901
-0.763949
-0.609757
-0.474502
-0.356313
-0.25341
-0.16413
-0.0869342
-0.0204183
0.0366902
0.085535
0.127138
0.162409
0.192152
0.217077
0.237808
0.254894
0.268813
0.279986
0.288775
0.295498
0.30043
0.303809
0.305842
0.306705
0.306552
0.305514
0.303706
0.301223
0.29815
0.294557
0.290506
0.286049
0.281231
0.27609
0.270658
0.264964
0.259031
0.25288
0.246528
0.23999
0.233279
0.226405
0.219379
0.212207
0.204897
0.197454
0.189883
0.182189
0.174375
0.166443
0.158397
0.150238
0.141968
0.133588
0.125099
0.116502
0.107798
0.0989868
0.0900688
0.0810434
0.0719124
0.0626715
0.0533292
0.0438671
0.0343218
0.024617
0.0149075
0.00487384
-9.55527
-9.57537
-9.58492
-9.58125
-9.56043
-9.51733
-9.44633
-9.34174
-9.19818
-9.01117
-8.77774
-8.49685
-8.1697
-7.79973
-7.39245
-6.95498
-6.49548
-6.0225
-5.54441
-5.06896
-4.60298
-4.1522
-3.72118
-3.31339
-2.93123
-2.57619
-2.24892
-1.94943
-1.67715
-1.4311
-1.20998
-1.01228
-0.83633
-0.680415
-0.542797
-0.421775
-0.315713
-0.223066
-0.142392
-0.0723625
-0.0117661
0.0404955
0.08541
0.123861
0.156637
0.184437
0.207879
0.227508
0.243806
0.257192
0.268037
0.276663
0.283351
0.288348
0.291867
0.294092
0.295186
0.295287
0.294516
0.292977
0.290762
0.287946
0.2846
0.280779
0.276535
0.271912
0.266946
0.26167
0.256113
0.250298
0.244247
0.237977
0.231506
0.224846
0.218009
0.211006
0.203845
0.196534
0.189081
0.18149
0.173766
0.165915
0.157939
0.149842
0.141626
0.133293
0.124846
0.116286
0.107613
0.0988298
0.0899361
0.080932
0.0718198
0.0625954
0.0532678
0.0438187
0.0342858
0.0245912
0.0148934
0.0048674
-9.38209
-9.38647
-9.3794
-9.35859
-9.32069
-9.26133
-9.17589
-9.05979
-8.90872
-8.71917
-8.48885
-8.21704
-7.90481
-7.55507
-7.17241
-6.76278
-6.33304
-5.89049
-5.44236
-4.99545
-4.5559
-4.12896
-3.71893
-3.32916
-2.96209
-2.61933
-2.30174
-2.00957
-1.7425
-1.49985
-1.28056
-1.08339
-0.9069
-0.749589
-0.60991
-0.486326
-0.377345
-0.281537