/*--------------------------------*- C++ -*----------------------------------*\
  =========                 |
  \\      /  F ield         | OpenFOAM: The Open Source CFD Toolbox
   \\    /   O peration     | Website:  https://openfoam.org
    \\  /    A nd           | Version:  10
     \\/     M anipulation  |
\*---------------------------------------------------------------------------*/
FoamFile
{
    format      ascii;
    class       surfaceScalarField;
    location    "0.015";
    object      phi;
}
// * * * * * * * * * * * * * * * * * * * * * * * * * * * * * * * * * * * * * //

dimensions      [0 3 -1 0 0 0 0];

internalField   nonuniform List<scalar> 
13452
(
6.05793e-05
-3.10867e-07
6.03808e-05
1.98519e-07
5.99223e-05
4.58512e-07
5.93267e-05
5.95594e-07
5.87446e-05
5.82116e-07
5.82363e-05
5.08296e-07
5.78047e-05
4.31549e-07
5.74401e-05
3.6463e-07
5.71314e-05
3.08705e-07
5.68691e-05
2.62335e-07
5.66458e-05
2.23265e-07
5.64563e-05
1.89463e-07
5.6297e-05
1.59376e-07
5.61651e-05
1.31864e-07
5.6059e-05
1.06106e-07
5.59775e-05
8.1527e-08
5.59196e-05
5.78421e-08
5.58847e-05
3.49063e-08
5.58708e-05
1.38935e-08
5.5874e-05
-3.16874e-09
5.58915e-05
-1.74698e-08
5.59236e-05
-3.21046e-08
5.59717e-05
-4.81228e-08
5.60376e-05
-6.59095e-08
5.61234e-05
-8.57709e-08
5.62314e-05
-1.07986e-07
5.63645e-05
-1.33116e-07
5.65263e-05
-1.61824e-07
5.67203e-05
-1.93987e-07
5.69591e-05
-2.38798e-07
5.72193e-05
-2.60242e-07
5.76019e-05
-3.82577e-07
-3.09126e-07
5.7911e-05
6.18035e-05
-1.24025e-07
6.17662e-05
2.35863e-07
6.18865e-05
3.38153e-07
6.20551e-05
4.27006e-07
6.21719e-05
4.65316e-07
6.22146e-05
4.65564e-07
6.21979e-05
4.48293e-07
6.21427e-05
4.19863e-07
6.20656e-05
3.8574e-07
6.19783e-05
3.49684e-07
6.18881e-05
3.13432e-07
6.17999e-05
2.77647e-07
6.17168e-05
2.42506e-07
6.16407e-05
2.07942e-07
6.1573e-05
1.73777e-07
6.15148e-05
1.39794e-07
6.14668e-05
1.05814e-07
6.14301e-05
7.1614e-08
6.14069e-05
3.70756e-08
6.14011e-05
2.60233e-09
6.14161e-05
-3.24684e-08
6.1452e-05
-6.79891e-08
6.15089e-05
-1.05047e-07
6.15873e-05
-1.4428e-07
6.1688e-05
-1.86411e-07
6.18123e-05
-2.32295e-07
6.1962e-05
-2.82853e-07
6.21401e-05
-3.39934e-07
6.23502e-05
-4.04115e-07
6.25963e-05
-4.84846e-07
6.29057e-05
-5.6962e-07
6.32637e-05
-7.40648e-07
-8.58224e-07
6.38128e-05
6.36626e-05
-2.52309e-08
6.37582e-05
1.40315e-07
6.38292e-05
2.67085e-07
6.38924e-05
3.6387e-07
6.39488e-05
4.08843e-07
6.39971e-05
4.17349e-07
6.40376e-05
4.07736e-07
6.40692e-05
3.8825e-07
6.40925e-05
3.62413e-07
6.41096e-05
3.32659e-07
6.41226e-05
3.00385e-07
6.41339e-05
2.66338e-07
6.41455e-05
2.30927e-07
6.41591e-05
1.94342e-07
6.41763e-05
1.5663e-07
6.41983e-05
1.17752e-07
6.42265e-05
7.76252e-08
6.4262e-05
3.61453e-08
6.43059e-05
-6.85789e-09
6.43601e-05
-5.16483e-08
6.44264e-05
-9.87288e-08
6.45066e-05
-1.48151e-07
6.46021e-05
-2.00584e-07
6.47145e-05
-2.56675e-07
6.48453e-05
-3.17218e-07
6.49963e-05
-3.833e-07
6.51695e-05
-4.56072e-07
6.53675e-05
-5.37923e-07
6.55932e-05
-6.29777e-07
6.58495e-05
-7.41218e-07
6.61439e-05
-8.63988e-07
6.64563e-05
-1.05303e-06
-1.2183e-06
6.68164e-05
6.5578e-05
-2.02001e-08
6.55619e-05
1.5649e-07
6.55796e-05
2.49347e-07
6.56323e-05
3.11161e-07
6.56967e-05
3.44474e-07
6.57607e-05
3.53342e-07
6.58207e-05
3.47707e-07
6.58767e-05
3.32288e-07
6.59294e-05
3.09678e-07
6.598e-05
2.82049e-07
6.60297e-05
2.50749e-07
6.60795e-05
2.16513e-07
6.61307e-05
1.79764e-07
6.61843e-05
1.40726e-07
6.62414e-05
9.94829e-08
6.63031e-05
5.60301e-08
6.63705e-05
1.03022e-08
6.64444e-05
-3.78311e-08
6.65262e-05
-8.86004e-08
6.66168e-05
-1.42309e-07
6.67176e-05
-1.99448e-07
6.68297e-05
-2.60333e-07
6.69548e-05
-3.25604e-07
6.70941e-05
-3.96022e-07
6.72494e-05
-4.72476e-07
6.74222e-05
-5.56169e-07
6.76146e-05
-6.48424e-07
6.78283e-05
-7.51654e-07
6.80659e-05
-8.6735e-07
6.83276e-05
-1.00288e-06
6.86185e-05
-1.15491e-06
6.89204e-05
-1.35493e-06
-1.55368e-06
6.92558e-05
6.74278e-05
8.75155e-09
6.74585e-05
1.25861e-07
6.74967e-05
2.11154e-07
6.75403e-05
2.67526e-07
6.75871e-05
2.97634e-07
6.76367e-05
3.03814e-07
6.7689e-05
2.95344e-07
6.77437e-05
2.776e-07
6.78003e-05
2.53102e-07
6.78587e-05
2.236e-07
6.79193e-05
1.90149e-07
6.79825e-05
1.53305e-07
6.80489e-05
1.13375e-07
6.81191e-05
7.05069e-08
6.81939e-05
2.47307e-08
6.82739e-05
-2.40026e-08
6.836e-05
-7.58142e-08
6.84531e-05
-1.30885e-07
6.8554e-05
-1.89487e-07
6.86637e-05
-2.51979e-07
6.87831e-05
-3.18878e-07
6.89134e-05
-3.90652e-07
6.90558e-05
-4.67986e-07
6.92115e-05
-5.51723e-07
6.93819e-05
-6.42846e-07
6.95683e-05
-7.42631e-07
6.97724e-05
-8.52496e-07
6.99955e-05
-9.74707e-07
7.02391e-05
-1.11096e-06
7.05028e-05
-1.26661e-06
7.07884e-05
-1.44053e-06
7.10831e-05
-1.64958e-06
-1.86663e-06
7.1396e-05
6.9379e-05
1.3823e-08
6.93938e-05
1.11011e-07
6.94214e-05
1.83538e-07
6.94606e-05
2.28302e-07
6.95073e-05
2.50979e-07
6.95576e-05
2.53553e-07
6.96103e-05
2.42566e-07
6.96656e-05
2.22389e-07
6.97234e-05
1.95245e-07
6.97843e-05
1.6273e-07
6.98486e-05
1.2586e-07
6.99167e-05
8.51708e-08
6.99891e-05
4.09322e-08
7.00664e-05
-6.75117e-09
7.0149e-05
-5.78958e-08
7.02376e-05
-1.12602e-07
7.03329e-05
-1.71044e-07
7.04354e-05
-2.3346e-07
7.05461e-05
-3.00177e-07
7.06657e-05
-3.71605e-07
7.07952e-05
-4.48285e-07
7.09353e-05
-5.30787e-07
7.10872e-05
-6.19847e-07
7.12518e-05
-7.16367e-07
7.14303e-05
-8.21389e-07
7.16239e-05
-9.3621e-07
7.18337e-05
-1.06226e-06
7.20606e-05
-1.20158e-06
7.23054e-05
-1.35583e-06
7.25676e-05
-1.52877e-06
7.28474e-05
-1.72031e-06
7.31368e-05
-1.93903e-06
-2.17036e-06
7.34406e-05
7.13614e-05
1.87474e-08
7.13787e-05
9.37013e-08
7.14094e-05
1.52875e-07
7.14486e-05
1.8911e-07
7.14933e-05
2.06303e-07
7.15412e-05
2.05569e-07
7.15922e-05
1.91601e-07
7.16463e-05
1.68261e-07
7.17039e-05
1.37718e-07
7.17651e-05
1.01472e-07
7.18305e-05
6.04888e-08
7.19004e-05
1.52803e-08
7.19752e-05
-3.39083e-08
7.20555e-05
-8.70023e-08
7.21416e-05
-1.44051e-07
7.22342e-05
-2.05196e-07
7.23338e-05
-2.70654e-07
7.24411e-05
-3.40716e-07
7.25567e-05
-4.15752e-07
7.26813e-05
-4.96219e-07
7.28157e-05
-5.82687e-07
7.29607e-05
-6.75791e-07
7.31171e-05
-7.76307e-07
7.32859e-05
-8.85162e-07
7.3468e-05
-1.00342e-06
7.36641e-05
-1.13235e-06
7.38752e-05
-1.27334e-06
7.41017e-05
-1.42814e-06
7.43442e-05
-1.59832e-06
7.46019e-05
-1.78645e-06
7.48745e-05
-1.99288e-06
7.51574e-05
-2.22191e-06
-2.46587e-06
7.54529e-05
7.34054e-05
1.85763e-08
7.34218e-05
7.73321e-08
7.345e-05
1.24664e-07
7.34867e-05
1.52402e-07
7.35298e-05
1.63235e-07
7.35771e-05
1.58237e-07
7.36279e-05
1.40797e-07
7.36821e-05
1.14076e-07
7.37399e-05
7.99849e-08
7.38015e-05
3.98485e-08
7.38674e-05
-5.44568e-09
7.39381e-05
-5.54047e-08
7.4014e-05
-1.09794e-07
7.40955e-05
-1.68553e-07
7.41832e-05
-2.31748e-07
7.42776e-05
-2.99548e-07
7.43791e-05
-3.72199e-07
7.44884e-05
-4.50027e-07
7.46061e-05
-5.33438e-07
7.47328e-05
-6.22921e-07
7.48692e-05
-7.19066e-07
7.5016e-05
-8.22547e-07
7.51738e-05
-9.34155e-07
7.53435e-05
-1.05482e-06
7.55256e-05
-1.18558e-06
7.57209e-05
-1.32766e-06
7.59299e-05
-1.48233e-06
7.61529e-05
-1.65112e-06
7.639e-05
-1.83538e-06
7.66405e-05
-2.03693e-06
7.69039e-05
-2.2563e-06
7.71776e-05
-2.49568e-06
-2.75122e-06
7.7463e-05
7.55042e-05
1.67977e-08
7.552e-05
6.15618e-08
7.55473e-05
9.73953e-08
7.55829e-05
1.16793e-07
7.56248e-05
1.21299e-07
7.56713e-05
1.1177e-07
7.57215e-05
9.05679e-08
7.57754e-05
6.02039e-08
7.5833e-05
2.23394e-08
7.58948e-05
-2.18571e-08
7.59609e-05
-7.15877e-08
7.60319e-05
-1.26396e-07
7.61082e-05
-1.86069e-07
7.61902e-05
-2.50561e-07
7.62784e-05
-3.19957e-07
7.63733e-05
-3.94441e-07
7.64754e-05
-4.74282e-07
7.65852e-05
-5.59829e-07
7.67032e-05
-6.51509e-07
7.68301e-05
-7.49829e-07
7.69665e-05
-8.55389e-07
7.71128e-05
-9.68873e-07
7.72697e-05
-1.09107e-06
7.74378e-05
-1.22288e-06
7.76175e-05
-1.36531e-06
7.78093e-05
-1.51947e-06
7.80135e-05
-1.68654e-06
7.82302e-05
-1.8678e-06
7.84592e-05
-2.06441e-06
7.87e-05
-2.27769e-06
7.89519e-05
-2.50824e-06
7.92135e-05
-2.7573e-06
-3.02305e-06
7.94854e-05
7.76627e-05
1.36714e-08
7.7678e-05
4.6228e-08
7.77041e-05
7.13695e-08
7.77382e-05
8.26962e-08
7.77787e-05
8.08086e-08
7.78241e-05
6.63591e-08
7.78736e-05
4.10098e-08
7.79271e-05
6.72085e-09
7.79845e-05
-3.51058e-08
7.80462e-05
-8.34737e-08
7.81123e-05
-1.37694e-07
7.81832e-05
-1.97365e-07
7.82595e-05
-2.62304e-07
7.83414e-05
-3.32486e-07
7.84295e-05
-4.0801e-07
7.85241e-05
-4.89075e-07
7.86258e-05
-5.75965e-07
7.8735e-05
-6.6904e-07
7.88522e-05
-7.68738e-07
7.8978e-05
-8.75571e-07
7.91127e-05
-9.90133e-07
7.92569e-05
-1.1131e-06
7.94111e-05
-1.24523e-06
7.95756e-05
-1.38739e-06
7.97508e-05
-1.5405e-06
7.99369e-05
-1.70558e-06
8.0134e-05
-1.88366e-06
8.03421e-05
-2.07582e-06
8.05607e-05
-2.28305e-06
8.07893e-05
-2.50634e-06
8.10274e-05
-2.74627e-06
8.12738e-05
-3.00368e-06
-3.27779e-06
8.15285e-05
7.98821e-05
9.85308e-09
7.98969e-05
3.14138e-08
7.99218e-05
4.65232e-08
7.99545e-05
4.99479e-08
7.99937e-05
4.16419e-08
8.0038e-05
2.20455e-08
8.00867e-05
-7.69951e-09
8.01396e-05
-4.61124e-08
8.01965e-05
-9.20467e-08
8.02577e-05
-1.44673e-07
8.03234e-05
-2.03413e-07
8.0394e-05
-2.67925e-07
8.04697e-05
-3.38063e-07
8.05511e-05
-4.13826e-07
8.06384e-05
-4.95328e-07
8.07321e-05
-5.8278e-07
8.08326e-05
-6.76475e-07
8.09404e-05
-7.76777e-07
8.10557e-05
-8.84122e-07
8.11792e-05
-9.99017e-07
8.13111e-05
-1.12204e-06
8.14518e-05
-1.25383e-06
8.16017e-05
-1.39512e-06
8.1761e-05
-1.54668e-06
8.19299e-05
-1.70937e-06
8.21084e-05
-1.88408e-06
8.22964e-05
-2.07171e-06
8.24937e-05
-2.27315e-06
8.26999e-05
-2.48921e-06
8.29142e-05
-2.72066e-06
8.3136e-05
-2.96803e-06
8.33643e-05
-3.23197e-06
-3.51216e-06
8.35986e-05
8.21646e-05
5.67613e-09
8.21789e-05
1.70958e-08
8.22027e-05
2.2787e-08
8.22341e-05
1.85279e-08
8.22719e-05
3.84751e-09
8.2315e-05
-2.10356e-08
8.23626e-05
-5.53674e-08
8.24146e-05
-9.80625e-08
8.24708e-05
-1.48213e-07
8.25312e-05
-2.05147e-07
8.25962e-05
-2.68395e-07
8.2666e-05
-3.37684e-07
8.27408e-05
-4.12905e-07
8.28211e-05
-4.94083e-07
8.29071e-05
-5.81348e-07
8.29992e-05
-6.74919e-07
8.30978e-05
-7.75091e-07
8.32033e-05
-8.82225e-07
8.33159e-05
-9.96748e-07
8.3436e-05
-1.11915e-06
8.3564e-05
-1.24997e-06
8.37e-05
-1.38981e-06
8.38442e-05
-1.53934e-06
8.39968e-05
-1.69927e-06
8.41577e-05
-1.87033e-06
8.43269e-05
-2.0533e-06
8.45042e-05
-2.24893e-06
8.4689e-05
-2.45794e-06
8.48807e-05
-2.68099e-06
8.50787e-05
-2.91866e-06
8.52821e-05
-3.17141e-06
8.54899e-05
-3.43974e-06
-3.72348e-06
8.57012e-05
8.45121e-05
1.3656e-09
8.45259e-05
3.30247e-09
8.45485e-05
1.2787e-10
8.45787e-05
-1.15872e-08
8.46151e-05
-3.25696e-08
8.46568e-05
-6.28049e-08
8.47033e-05
-1.01838e-07
8.47542e-05
-1.48907e-07
8.48093e-05
-2.03324e-07
8.48687e-05
-2.64567e-07
8.49326e-05
-3.3227e-07
8.50011e-05
-4.06226e-07
8.50746e-05
-4.86367e-07
8.51532e-05
-5.72743e-07
8.52374e-05
-6.65497e-07
8.53273e-05
-7.64852e-07
8.54233e-05
-8.711e-07
8.55257e-05
-9.84592e-07
8.56347e-05
-1.10574e-06
8.57505e-05
-1.23499e-06
8.58734e-05
-1.37285e-06
8.60035e-05
-1.51988e-06
8.61408e-05
-1.67666e-06
8.62853e-05
-1.8438e-06
8.64369e-05
-2.02194e-06
8.65953e-05
-2.21172e-06
8.67601e-05
-2.41374e-06
8.69308e-05
-2.62857e-06
8.71065e-05
-2.85672e-06
8.72865e-05
-3.0986e-06
8.74696e-05
-3.35458e-06
8.76549e-05
-3.62499e-06
-3.90968e-06
8.78411e-05
8.69265e-05
-2.93965e-09
8.69397e-05
-9.94534e-09
8.69613e-05
-2.14887e-08
8.69902e-05
-4.04083e-08
8.70252e-05
-6.7577e-08
8.70655e-05
-1.03161e-07
8.71106e-05
-1.4694e-07
8.71601e-05
-1.98418e-07
8.72139e-05
-2.57102e-07
8.72719e-05
-3.22605e-07
8.73343e-05
-3.94661e-07
8.74012e-05
-4.73128e-07
8.74729e-05
-5.57977e-07
8.75494e-05
-6.4928e-07
8.76311e-05
-7.47191e-07
8.77182e-05
-8.51932e-07
8.78109e-05
-9.63788e-07
8.79093e-05
-1.08309e-06
8.80138e-05
-1.21022e-06
8.81244e-05
-1.3456e-06
8.82413e-05
-1.48967e-06
8.83643e-05
-1.64292e-06
8.84935e-05
-1.80587e-06
8.86287e-05
-1.97901e-06
8.87697e-05
-2.16288e-06
8.89159e-05
-2.35797e-06
8.90669e-05
-2.56474e-06
8.9222e-05
-2.78362e-06
8.93802e-05
-3.01495e-06
8.95406e-05
-3.25902e-06
8.97021e-05
-3.51604e-06
8.98633e-05
-3.78624e-06
-4.06932e-06
9.0023e-05
8.94098e-05
-7.15328e-09
8.94224e-05
-2.26234e-08
8.9443e-05
-4.20753e-08
8.94705e-05
-6.79279e-08
8.95041e-05
-1.0113e-07
8.95429e-05
-1.42e-07
8.95865e-05
-1.90506e-07
8.96344e-05
-2.46368e-07
8.96866e-05
-3.09261e-07
8.97429e-05
-3.78926e-07
8.98034e-05
-4.55185e-07
8.98683e-05
-5.37956e-07
8.99375e-05
-6.27248e-07
9.00114e-05
-7.23153e-07
9.00901e-05
-8.25831e-07
9.01736e-05
-9.35501e-07
9.02623e-05
-1.05243e-06
9.03561e-05
-1.17693e-06
9.04552e-05
-1.30934e-06
9.05597e-05
-1.45004e-06
9.06694e-05
-1.59942e-06
9.07844e-05
-1.75789e-06
9.09044e-05
-1.92586e-06
9.10291e-05
-2.10374e-06
9.11582e-05
-2.29194e-06
9.1291e-05
-2.49081e-06
9.1427e-05
-2.70069e-06
9.15652e-05
-2.92183e-06
9.17047e-05
-3.15446e-06
9.18444e-05
-3.39871e-06
9.1983e-05
-3.65467e-06
9.21192e-05
-3.92241e-06
-4.20152e-06
9.22514e-05
9.19639e-05
-1.1221e-08
9.1976e-05
-3.47076e-08
9.19956e-05
-6.16329e-08
9.20218e-05
-9.41248e-08
9.20538e-05
-1.33169e-07
9.2091e-05
-1.79206e-07
9.21329e-05
-2.32358e-07
9.2179e-05
-2.92518e-07
9.22293e-05
-3.59511e-07
9.22835e-05
-4.33185e-07
9.23418e-05
-5.13445e-07
9.24041e-05
-6.00263e-07
9.24705e-05
-6.93682e-07
9.25412e-05
-7.9381e-07
9.26162e-05
-9.00809e-07
9.26955e-05
-1.01489e-06
9.27794e-05
-1.1363e-06
9.28678e-05
-1.26532e-06
9.29607e-05
-1.40225e-06
9.30581e-05
-1.54741e-06
9.31598e-05
-1.70113e-06
9.32657e-05
-1.86374e-06
9.33754e-05
-2.03556e-06
9.34885e-05
-2.21689e-06
9.36046e-05
-2.408e-06
9.37229e-05
-2.60914e-06
9.38427e-05
-2.82047e-06
9.3963e-05
-3.04215e-06
9.40828e-05
-3.27424e-06
9.42008e-05
-3.51675e-06
9.43158e-05
-3.76964e-06
9.44262e-05
-4.03285e-06
-4.30585e-06
9.45306e-05
9.4591e-05
-1.51086e-08
9.46025e-05
-4.61728e-08
9.4621e-05
-8.01481e-08
9.46459e-05
-1.18963e-07
9.46763e-05
-1.63618e-07
9.47118e-05
-2.14652e-07
9.47517e-05
-2.7231e-07
9.47958e-05
-3.36628e-07
9.48439e-05
-4.07552e-07
9.48957e-05
-4.8503e-07
9.49513e-05
-5.69036e-07
9.50106e-05
-6.59592e-07
9.50737e-05
-7.56768e-07
9.51406e-05
-8.60687e-07
9.52113e-05
-9.71508e-07
9.52858e-05
-1.08943e-06
9.53642e-05
-1.21467e-06
9.54464e-05
-1.34748e-06
9.55322e-05
-1.48811e-06
9.56216e-05
-1.63683e-06
9.57144e-05
-1.79388e-06
9.58102e-05
-1.95953e-06
9.59086e-05
-2.13398e-06
9.60091e-05
-2.31744e-06
9.61112e-05
-2.51006e-06
9.6214e-05
-2.71195e-06
9.63167e-05
-2.92315e-06
9.64182e-05
-3.14368e-06
9.65175e-05
-3.37348e-06
9.66132e-05
-3.61245e-06
9.6704e-05
-3.86044e-06
9.67884e-05
-4.11725e-06
-4.38227e-06
9.68648e-05
9.72932e-05
-1.87927e-08
9.7304e-05
-5.6993e-08
9.73215e-05
-9.7596e-08
9.73449e-05
-1.42394e-07
9.73737e-05
-1.92391e-07
9.74072e-05
-2.48201e-07
9.74451e-05
-3.1017e-07
9.74869e-05
-3.78445e-07
9.75324e-05
-4.53079e-07
9.75815e-05
-5.341e-07
9.7634e-05
-6.21546e-07
9.76899e-05
-7.15478e-07
9.77491e-05
-8.15991e-07
9.78116e-05
-9.23215e-07
9.78774e-05
-1.03731e-06
9.79465e-05
-1.15844e-06
9.80186e-05
-1.28682e-06
9.80938e-05
-1.42264e-06
9.81718e-05
-1.56611e-06
9.82523e-05
-1.71742e-06
9.83352e-05
-1.87678e-06
9.842e-05
-2.04432e-06
9.85063e-05
-2.2202e-06
9.85933e-05
-2.40448e-06
9.86804e-05
-2.59722e-06
9.87669e-05
-2.79839e-06
9.88517e-05
-3.00793e-06
9.89337e-05
-3.22572e-06
9.90118e-05
-3.45161e-06
9.90848e-05
-3.68539e-06
9.91511e-05
-3.9268e-06
9.92095e-05
-4.17559e-06
-4.43107e-06
9.92583e-05
0.000100073
-2.22561e-08
0.000100083
-6.714e-08
0.000100099
-1.13941e-07
0.000100121
-1.64356e-07
0.000100148
-2.19387e-07
0.00010018
-2.79705e-07
0.000100215
-3.45735e-07
0.000100254
-4.17715e-07
0.000100297
-4.95782e-07
0.000100343
-5.80033e-07
0.000100392
-6.70558e-07
0.000100444
-7.67453e-07
0.000100499
-8.70832e-07
0.000100556
-9.80827e-07
0.000100617
-1.09759e-06
0.00010068
-1.22126e-06
0.000100745
-1.35203e-06
0.000100812
-1.49004e-06
0.000100881
-1.63544e-06
0.000100952
-1.78839e-06
0.000101025
-1.94897e-06
0.000101098
-2.11729e-06
0.000101171
-2.29336e-06
0.000101243
-2.47719e-06
0.000101315
-2.66869e-06
0.000101384
-2.86774e-06
0.000101451
-3.07416e-06
0.000101513
-3.28774e-06
0.000101569
-3.50823e-06
0.000101619
-3.73533e-06
0.000101661
-3.96873e-06
0.000101694
-4.20811e-06
-4.45275e-06
0.000101715
0.000102931
-2.54845e-08
0.000102941
-7.65833e-08
0.000102956
-1.29139e-07
0.000102976
-1.84778e-07
0.000103001
-2.44498e-07
0.000103031
-3.0901e-07
0.000103064
-3.788e-07
0.0001031
-4.54177e-07
0.00010314
-5.35346e-07
0.000103182
-6.22462e-07
0.000103227
-7.15655e-07
0.000103275
-8.15051e-07
0.000103325
-9.20775e-07
0.000103377
-1.03296e-06
0.000103431
-1.15174e-06
0.000103487
-1.27725e-06
0.000103545
-1.40962e-06
0.000103604
-1.54896e-06
0.000103664
-1.69538e-06
0.000103724
-1.84895e-06
0.000103785
-2.00971e-06
0.000103845
-2.17766e-06
0.000103905
-2.35274e-06
0.000103962
-2.53485e-06
0.000104017
-2.72382e-06
0.000104069
-2.91942e-06
0.000104116
-3.12138e-06
0.000104158
-3.32939e-06
0.000104193
-3.54314e-06
0.00010422
-3.76227e-06
0.000104238
-3.98643e-06
0.000104245
-4.21525e-06
-4.44806e-06
0.00010424
0.000105872
-2.8465e-08
0.00010588
-8.52902e-08
0.000105894
-1.43138e-07
0.000105913
-2.03581e-07
0.000105936
-2.67607e-07
0.000105963
-3.35955e-07
0.000105994
-4.09154e-07
0.000106027
-4.8757e-07
0.000106063
-5.7146e-07
0.000106102
-6.61024e-07
0.000106142
-7.56426e-07
0.000106185
-8.57812e-07
0.00010623
-9.65316e-07
0.000106276
-1.07907e-06
0.000106323
-1.19918e-06
0.000106372
-1.32578e-06
0.000106421
-1.45894e-06
0.000106471
-1.59874e-06
0.000106521
-1.74523e-06
0.00010657
-1.89842e-06
0.000106619
-2.05828e-06
0.000106666
-2.22474e-06
0.000106711
-2.39767e-06
0.000106753
-2.57687e-06
0.000106791
-2.76208e-06
0.000106825
-2.95299e-06
0.000106853
-3.14926e-06
0.000106874
-3.3505e-06
0.000106887
-3.55633e-06
0.000106891
-3.76638e-06
0.000106885
-3.98028e-06
0.000106867
-4.19764e-06
-4.41784e-06
0.000106837
0.000108896
-3.11846e-08
0.000108904
-9.32251e-08
0.000108917
-1.55881e-07
0.000108934
-2.20677e-07
0.000108955
-2.88591e-07
0.000108979
-3.60374e-07
0.000109007
-4.36588e-07
0.000109037
-5.17635e-07
0.000109069
-6.03817e-07
0.000109103
-6.95365e-07
0.00010914
-7.92469e-07
0.000109177
-8.9529e-07
0.000109216
-1.00397e-06
0.000109255
-1.11862e-06
0.000109295
-1.23935e-06
0.000109336
-1.36625e-06
0.000109376
-1.49936e-06
0.000109416
-1.63873e-06
0.000109455
-1.78434e-06
0.000109493
-1.93615e-06
0.000109529
-2.09407e-06
0.000109562
-2.25797e-06
0.000109592
-2.42762e-06
0.000109618
-2.60277e-06
0.000109639
-2.78308e-06
0.000109654
-2.96817e-06
0.000109663
-3.15762e-06
0.000109663
-3.35102e-06
0.000109655
-3.54794e-06
0.000109636
-3.74799e-06
0.000109607
-3.9508e-06
0.000109565
-4.15602e-06
-4.36308e-06
0.00010951
0.000112007
-3.36305e-08
0.000112014
-1.00351e-07
0.000112025
-1.67306e-07
0.000112041
-2.35978e-07
0.00011206
-3.07327e-07
0.000112081
-3.82106e-07
0.000112106
-4.60894e-07
0.000112132
-5.44123e-07
0.00011216
-6.32119e-07
0.00011219
-7.25141e-07
0.000112221
-8.23398e-07
0.000112253
-9.27058e-07
0.000112285
-1.03626e-06
0.000112318
-1.15112e-06
0.00011235
-1.27172e-06
0.000112382
-1.39812e-06
0.000112413
-1.53034e-06
0.000112442
-1.66837e-06
0.00011247
-1.81215e-06
0.000112496
-1.9616e-06
0.000112518
-2.11657e-06
0.000112537
-2.27684e-06
0.000112552
-2.44216e-06
0.000112561
-2.6122e-06
0.000112565
-2.78655e-06
0.000112561
-2.9648e-06
0.00011255
-3.14646e-06
0.00011253
-3.33109e-06
0.0001125
-3.51825e-06
0.00011246
-3.70755e-06
0.000112408
-3.89866e-06
0.000112343
-4.09125e-06
-4.28483e-06
0.000112265
0.000115207
-3.57887e-08
0.000115213
-1.06626e-07
0.000115223
-1.77347e-07
0.000115236
-2.49389e-07
0.000115253
-3.23687e-07
0.000115272
-4.00986e-07
0.000115293
-4.81872e-07
0.000115315
-5.66789e-07
0.000115339
-6.56084e-07
0.000115364
-7.50032e-07
0.00011539
-8.48852e-07
0.000115415
-9.52722e-07
0.000115441
-1.06178e-06
0.000115466
-1.17612e-06
0.00011549
-1.29582e-06
0.000115513
-1.42091e-06
0.000115534
-1.55137e-06
0.000115552
-1.68716e-06
0.000115568
-1.82819e-06
0.000115581
-1.97431e-06
0.00011559
-2.12533e-06
0.000115594
-2.28099e-06
0.000115593
-2.44099e-06
0.000115586
-2.60493e-06
0.000115571
-2.77237e-06
0.00011555
-2.94285e-06
0.000115519
-3.11587e-06
0.000115479
-3.29096e-06
0.000115428
-3.46767e-06
0.000115366
-3.64565e-06
0.000115292
-3.82459e-06
0.000115205
-4.00424e-06
-4.18418e-06
0.000115105
0.000118498
-3.76462e-08
0.000118503
-1.12013e-07
0.000118512
-1.85941e-07
0.000118523
-2.60823e-07
0.000118537
-3.3756e-07
0.000118553
-4.16873e-07
0.00011857
-4.99341e-07
0.000118589
-5.85416e-07
0.000118608
-6.75453e-07
0.000118628
-7.69737e-07
0.000118648
-8.68497e-07
0.000118667
-9.71912e-07
0.000118685
-1.08011e-06
0.000118702
-1.1932e-06
0.000118718
-1.31121e-06
0.000118731
-1.43416e-06
0.000118742
-1.56201e-06
0.000118749
-1.69468e-06
0.000118753
-1.83203e-06
0.000118753
-1.9739e-06
0.000118747
-2.12004e-06
0.000118736
-2.27015e-06
0.000118719
-2.4239e-06
0.000118695
-2.58084e-06
0.000118663
-2.74053e-06
0.000118623
-2.90245e-06
0.000118573
-3.06609e-06
0.000118513
-3.23099e-06
0.000118442
-3.39672e-06
0.00011836
-3.56295e-06
0.000118264
-3.72943e-06
0.000118156
-3.89596e-06
-4.06224e-06
0.000118034
0.000121883
-3.91829e-08
0.000121887
-1.16456e-07
0.000121894
-1.93004e-07
0.000121904
-2.70172e-07
0.000121915
-3.48811e-07
0.000121928
-4.29608e-07
0.000121941
-5.13124e-07
0.000121956
-5.99802e-07
0.00012197
-6.9e-07
0.000121985
-7.84007e-07
0.000121998
-8.82056e-07
0.000122011
-9.84328e-07
0.000122021
-1.09095e-06
0.00012203
-1.20201e-06
0.000122037
-1.31754e-06
0.00012204
-1.43753e-06
0.00012204
-1.56191e-06
0.000122036
-1.69058e-06
0.000122027
-1.82338e-06
0.000122013
-1.9601e-06
0.000121994
-2.10047e-06
0.000121968
-2.24417e-06
0.000121935
-2.39081e-06
0.000121894
-2.53996e-06
0.000121844
-2.69112e-06
0.000121786
-2.84379e-06
0.000121717
-2.99745e-06
0.000121638
-3.15165e-06
0.000121547
-3.30599e-06
0.000121444
-3.46018e-06
0.000121329
-3.61403e-06
0.0001212
-3.76741e-06
-3.92012e-06
0.000121058
0.000125365
-4.03983e-08
0.000125368
-1.19939e-07
0.000125374
-1.98513e-07
0.000125381
-2.77402e-07
0.000125389
-3.57389e-07
0.000125399
-4.39107e-07
0.000125409
-5.23091e-07
0.000125419
-6.09772e-07
0.000125428
-6.99506e-07
0.000125437
-7.92584e-07
0.000125444
-8.89242e-07
0.00012545
-9.89661e-07
0.000125453
-1.09397e-06
0.000125453
-1.20224e-06
0.00012545
-1.31449e-06
0.000125443
-1.4307e-06
0.000125432
-1.55079e-06
0.000125416
-1.67462e-06
0.000125394
-1.80202e-06
0.000125367
-1.93275e-06
0.000125333
-2.06652e-06
0.000125292
-2.20299e-06
0.000125243
-2.34177e-06
0.000125185
-2.48239e-06
0.000125119
-2.62437e-06
0.000125042
-2.7672e-06
0.000124955
-2.91039e-06
0.000124857
-3.05348e-06
0.000124747
-3.19615e-06
0.000124625
-3.33813e-06
0.00012449
-3.47929e-06
0.000124342
-3.61958e-06
-3.75888e-06
0.000124181
0.000128946
-4.12147e-08
0.000128948
-1.22304e-07
0.000128952
-2.0226e-07
0.000128957
-2.82302e-07
0.000128963
-3.63109e-07
0.000128969
-4.4523e-07
0.000128975
-5.29143e-07
0.00012898
-6.15254e-07
0.000128985
-7.03909e-07
0.000128988
-7.95401e-07
0.000128988
-8.89972e-07
0.000128986
-9.87808e-07
0.000128981
-1.08904e-06
0.000128973
-1.19373e-06
0.00012896
-1.30191e-06
0.000128943
-1.41352e-06
0.000128921
-1.52849e-06
0.000128893
-1.64667e-06
0.000128859
-1.76785e-06
0.000128818
-1.89178e-06
0.000128769
-2.01818e-06
0.000128713
-2.14669e-06
0.000128648
-2.2769e-06
0.000128574
-2.40836e-06
0.00012849
-2.54059e-06
0.000128396
-2.6731e-06
0.000128291
-2.80541e-06
0.000128175
-2.93711e-06
0.000128047
-3.0679e-06
0.000127906
-3.19759e-06
0.000127753
-3.32609e-06
0.000127587
-3.45343e-06
-3.57957e-06
0.000127408
0.00013263
-4.17915e-08
0.000132631
-1.23771e-07
0.000132633
-2.04497e-07
0.000132636
-2.8508e-07
0.000132639
-3.66069e-07
0.000132642
-4.47933e-07
0.000132644
-5.31111e-07
0.000132644
-6.15984e-07
0.000132643
-7.02885e-07
0.00013264
-7.92106e-07
0.000132634
-8.83891e-07
0.000132625
-9.78426e-07
0.000132612
-1.07584e-06
0.000132594
-1.17621e-06
0.000132572
-1.27955e-06
0.000132544
-1.3858e-06
0.00013251
-1.49488e-06
0.00013247
-1.60662e-06
0.000132423
-1.72083e-06
0.000132369
-1.83724e-06
0.000132306
-1.95556e-06
0.000132235
-2.07544e-06
0.000132154
-2.19647e-06
0.000132064
-2.31822e-06
0.000131964
-2.44022e-06
0.000131853
-2.562e-06
0.000131731
-2.68313e-06
0.000131597
-2.80322e-06
0.000131451
-2.92203e-06
0.000131293
-3.03942e-06
0.000131122
-3.15536e-06
0.000130938
-3.26994e-06
-3.3832e-06
0.000130742
0.000136418
-4.14836e-08
0.000136418
-1.23409e-07
0.000136417
-2.04319e-07
0.000136417
-2.85138e-07
0.000136418
-3.66074e-07
0.000136417
-4.47381e-07
0.000136415
-5.29401e-07
0.000136412
-6.12487e-07
0.000136406
-6.96984e-07
0.000136397
-7.83211e-07
0.000136384
-8.71436e-07
0.000136368
-9.61869e-07
0.000136347
-1.05466e-06
0.00013632
-1.14988e-06
0.000136288
-1.24756e-06
0.00013625
-1.34764e-06
0.000136205
-1.45004e-06
0.000136153
-1.55459e-06
0.000136094
-1.66108e-06
0.000136026
-1.76927e-06
0.000135949
-1.87885e-06
0.000135863
-1.98949e-06
0.000135767
-2.10079e-06
0.000135661
-2.21235e-06
0.000135545
-2.32371e-06
0.000135417
-2.43444e-06
0.000135278
-2.54413e-06
0.000135128
-2.65248e-06
0.000134965
-2.75926e-06
0.00013479
-2.86439e-06
0.000134602
-2.96791e-06
0.000134402
-3.06995e-06
-3.17062e-06
0.00013419
0.000140316
-4.20502e-08
0.000140316
-1.23151e-07
0.000140315
-2.03248e-07
0.000140313
-2.8314e-07
0.00014031
-3.62927e-07
0.000140305
-4.42757e-07
0.000140299
-5.22865e-07
0.00014029
-6.03516e-07
0.000140278
-6.85012e-07
0.000140262
-7.67658e-07
0.000140242
-8.51729e-07
0.000140218
-9.37445e-07
0.000140188
-1.02497e-06
0.000140153
-1.11439e-06
0.000140111
-1.20574e-06
0.000140062
-1.29898e-06
0.000140006
-1.39402e-06
0.000139943
-1.49071e-06
0.00013987
-1.58885e-06
0.000139789
-1.68819e-06
0.000139699
-1.78846e-06
0.000139599
-1.88933e-06
0.000139488
-1.99043e-06
0.000139367
-2.09137e-06
0.000139235
-2.19174e-06
0.000139092
-2.29115e-06
0.000138937
-2.38924e-06
0.00013877
-2.48574e-06
0.000138592
-2.58048e-06
0.000138401
-2.67343e-06
0.000138197
-2.76468e-06
0.000137982
-2.85441e-06
-2.9428e-06
0.000137754
0.000144321
-3.80999e-08
0.000144315
-1.17714e-07
0.00014431
-1.98041e-07
0.000144305
-2.78611e-07
0.000144301
-3.58266e-07
0.000144295
-4.36845e-07
0.000144287
-5.14653e-07
0.000144275
-5.92105e-07
0.00014426
-6.69636e-07
0.00014424
-7.47651e-07
0.000144215
-8.26499e-07
0.000144184
-9.06453e-07
0.000144146
-9.87708e-07
0.000144102
-1.07038e-06
0.000144051
-1.15451e-06
0.000143992
-1.24008e-06
0.000143925
-1.32699e-06
0.00014385
-1.41511e-06
0.000143765
-1.50424e-06
0.000143671
-1.59415e-06
0.000143567
-1.68457e-06
0.000143453
-1.77519e-06
0.000143328
-1.86567e-06
0.000143193
-1.95565e-06
0.000143046
-2.04477e-06
0.000142887
-2.13265e-06
0.000142717
-2.219e-06
0.000142535
-2.30359e-06
0.00014234
-2.3863e-06
0.000142134
-2.46715e-06
0.000141916
-2.54628e-06
0.000141685
-2.62392e-06
-2.70029e-06
0.000141443
0.000148453
-4.28215e-08
0.000148452
-1.16769e-07
0.000148446
-1.92519e-07
0.000148437
-2.69562e-07
0.000148426
-3.468e-07
0.000148412
-4.23269e-07
0.000148396
-4.98612e-07
0.000148377
-5.72934e-07
0.000148354
-6.4658e-07
0.000148326
-7.19966e-07
0.000148293
-7.93477e-07
0.000148254
-8.67436e-07
0.000148209
-9.42086e-07
0.000148156
-1.01759e-06
0.000148095
-1.09402e-06
0.000148027
-1.17138e-06
0.000147949
-1.24963e-06
0.000147863
-1.32863e-06
0.000147767
-1.40821e-06
0.000147661
-1.48817e-06
0.000147544
-1.56827e-06
0.000147417
-1.64821e-06
0.000147279
-1.7277e-06
0.00014713
-1.8064e-06
0.000146969
-1.884e-06
0.000146797
-1.96017e-06
0.000146613
-2.03467e-06
0.000146416
-2.1073e-06
0.000146208
-2.17802e-06
0.000145988
-2.24687e-06
0.000145755
-2.31404e-06
0.000145511
-2.37981e-06
-2.44444e-06
0.000145256
0.000152671
-2.51867e-08
0.000152656
-1.00838e-07
0.000152646
-1.82963e-07
0.000152641
-2.64558e-07
0.000152636
-3.42232e-07
0.000152629
-4.16092e-07
0.000152618
-4.87071e-07
0.000152601
-5.55943e-07
0.000152578
-6.23376e-07
0.000152548
-6.89974e-07
0.00015251
-7.56237e-07
0.000152465
-8.22551e-07
0.000152413
-8.89191e-07
0.000152351
-9.56331e-07
0.000152281
-1.02406e-06
0.000152202
-1.09238e-06
0.000152114
-1.16125e-06
0.000152016
-1.23053e-06
0.000151908
-1.30008e-06
0.000151789
-1.3697e-06
0.00015166
-1.43914e-06
0.00015152
-1.50816e-06
0.000151369
-1.57646e-06
0.000151206
-1.64375e-06
0.000151032
-1.70974e-06
0.000150846
-1.77415e-06
0.000150648
-1.83677e-06
0.000150438
-1.89747e-06
0.000150216
-1.95623e-06
0.000149983
-2.01315e-06
0.000149737
-2.06849e-06
0.00014948
-2.12254e-06
-2.17565e-06
0.000149211
0.000157068
-4.12435e-08
0.000157059
-9.25727e-08
0.000157038
-1.61377e-07
0.000157012
-2.38872e-07
0.000156987
-3.17249e-07
0.000156963
-3.919e-07
0.000156938
-4.61968e-07
0.00015691
-5.28162e-07
0.000156878
-5.9144e-07
0.000156841
-6.52655e-07
0.000156797
-7.12515e-07
0.000156746
-7.71586e-07
0.000156687
-8.30288e-07
0.00015662
-8.88906e-07
0.000156543
-9.47612e-07
0.000156457
-1.00648e-06
0.000156362
-1.06549e-06
0.000156256
-1.12459e-06
0.000156139
-1.18364e-06
0.000156012
-1.24246e-06
0.000155874
-1.30087e-06
0.000155724
-1.35862e-06
0.000155563
-1.41547e-06
0.000155391
-1.47117e-06
0.000155206
-1.52545e-06
0.00015501
-1.57809e-06
0.000154802
-1.62892e-06
0.000154583
-1.67785e-06
0.000154351
-1.72491e-06
0.000154109
-1.77027e-06
0.000153854
-1.81419e-06
0.000153589
-1.85705e-06
-1.89918e-06
0.000153312
0.000161474
2.36583e-08
0.000161454
-7.33975e-08
0.000161459
-1.65973e-07
0.00016147
-2.49885e-07
0.000161475
-3.22447e-07
0.000161471
-3.87704e-07
0.000161457
-4.48244e-07
0.000161434
-5.05013e-07
0.000161402
-5.58977e-07
0.00016136
-6.11013e-07
0.000161309
-6.61796e-07
0.00016125
-7.1182e-07
0.000161181
-7.61432e-07
0.000161103
-8.10861e-07
0.000161015
-8.60239e-07
0.000160918
-9.0961e-07
0.000160812
-9.5895e-07
0.000160695
-1.00817e-06
0.000160569
-1.05715e-06
0.000160432
-1.10572e-06
0.000160285
-1.15367e-06
0.000160127
-1.2008e-06
0.000159959
-1.24684e-06
0.000159779
-1.29158e-06
0.000159588
-1.33476e-06
0.000159386
-1.37619e-06
0.000159173
-1.41572e-06
0.000158949
-1.45332e-06
0.000158713
-1.48906e-06
0.000158466
-1.52315e-06
0.000158207
-1.55592e-06
0.000157938
-1.58779e-06
-1.61919e-06
0.000157658
0.000166181
-3.45626e-09