/*--------------------------------*- C++ -*----------------------------------*\
  =========                 |
  \\      /  F ield         | OpenFOAM: The Open Source CFD Toolbox
   \\    /   O peration     | Website:  https://openfoam.org
    \\  /    A nd           | Version:  10
     \\/     M anipulation  |
\*---------------------------------------------------------------------------*/
FoamFile
{
    format      ascii;
    class       volVectorField;
    location    "0.015";
    object      U;
}
// * * * * * * * * * * * * * * * * * * * * * * * * * * * * * * * * * * * * * //

dimensions      [0 1 -1 0 0 0 0];

internalField   nonuniform List<vector> 
6820
(
(7.33662 -0.254761 0)
(7.37171 -0.15301 0)
(7.33095 -0.059617 0)
(7.25609 -0.0120371 0)
(7.18131 0.00738138 0)
(7.11471 0.0131147 0)
(7.05761 0.0133423 0)
(7.00943 0.0117056 0)
(6.96876 0.00968463 0)
(6.93425 0.00781759 0)
(6.90486 0.00623723 0)
(6.87987 0.00492428 0)
(6.85872 0.00381636 0)
(6.84105 0.00284826 0)
(6.82659 0.00196476 0)
(6.81519 0.00112326 0)
(6.80672 0.000299734 0)
(6.80108 -0.000525441 0)
(6.7982 -0.00129287 0)
(6.7977 -0.0018079 0)
(6.79895 -0.00214608 0)
(6.80192 -0.00244114 0)
(6.80675 -0.00279705 0)
(6.81362 -0.00326699 0)
(6.82277 -0.00387811 0)
(6.83447 -0.00464939 0)
(6.84903 -0.00558463 0)
(6.86685 -0.00680029 0)
(6.88837 -0.00786384 0)
(6.91416 -0.0108891 0)
(6.94608 -0.00789737 0)
(6.97776 -0.0237173 0)
(7.04159 -0.00904533 0)
(7.32391 0.121267 0)
(7.30461 0.122892 0)
(7.30956 0.0770482 0)
(7.33042 0.0515947 0)
(7.34956 0.0377526 0)
(7.35909 0.0296602 0)
(7.35998 0.0248689 0)
(7.35516 0.0217351 0)
(7.34695 0.0194027 0)
(7.33697 0.0174788 0)
(7.3263 0.0157639 0)
(7.31564 0.0141524 0)
(7.30543 0.0125872 0)
(7.29596 0.0110346 0)
(7.28742 0.00947212 0)
(7.27994 0.00788336 0)
(7.27363 0.00625955 0)
(7.26858 0.0045937 0)
(7.26493 0.00292462 0)
(7.26306 0.00132096 0)
(7.26357 -0.000238499 0)
(7.26657 -0.0019 0)
(7.27204 -0.00373098 0)
(7.28001 -0.00576492 0)
(7.29056 -0.00804243 0)
(7.3038 -0.0106117 0)
(7.31997 -0.013559 0)
(7.33914 -0.0169471 0)
(7.36229 -0.0210463 0)
(7.38829 -0.0258221 0)
(7.42238 -0.0321131 0)
(7.45729 -0.0406765 0)
(7.51705 -0.0457536 0)
(7.32568 -0.043935 0)
(7.32354 -0.0522274 0)
(7.33622 -0.0269532 0)
(7.34525 -0.00392232 0)
(7.35158 0.00872614 0)
(7.35753 0.014648 0)
(7.36269 0.0171519 0)
(7.36683 0.0178242 0)
(7.36995 0.0174974 0)
(7.37221 0.0166352 0)
(7.37387 0.0154746 0)
(7.37521 0.0141324 0)
(7.37647 0.0126641 0)
(7.37787 0.0110915 0)
(7.3796 0.00941782 0)
(7.38181 0.00763638 0)
(7.38466 0.0057359 0)
(7.38829 0.00370162 0)
(7.39281 0.0015053 0)
(7.39839 -0.000922375 0)
(7.40527 -0.00353824 0)
(7.41363 -0.00637967 0)
(7.42368 -0.00947594 0)
(7.43559 -0.0128778 0)
(7.44952 -0.0166567 0)
(7.46565 -0.0209082 0)
(7.48425 -0.0257273 0)
(7.50545 -0.0313264 0)
(7.52985 -0.0377297 0)
(7.55709 -0.045937 0)
(7.58943 -0.054741 0)
(7.62275 -0.0709086 0)
(7.66523 -0.0851088 0)
(7.33341 0.0115543 0)
(7.33084 0.0321197 0)
(7.33081 0.0321647 0)
(7.33486 0.025852 0)
(7.34183 0.0218209 0)
(7.34933 0.0196657 0)
(7.35631 0.0183689 0)
(7.36277 0.0173379 0)
(7.36882 0.0163044 0)
(7.37457 0.0151749 0)
(7.38014 0.0139126 0)
(7.38567 0.0124992 0)
(7.39129 0.0109252 0)
(7.39711 0.00918294 0)
(7.40327 0.00726364 0)
(7.40989 0.0051566 0)
(7.41707 0.0028489 0)
(7.42494 0.000325979 0)
(7.43361 -0.00243127 0)
(7.44321 -0.00543924 0)
(7.45387 -0.00875071 0)
(7.46573 -0.0123983 0)
(7.47894 -0.0164434 0)
(7.49367 -0.0209572 0)
(7.51009 -0.0260206 0)
(7.52837 -0.0317395 0)
(7.54874 -0.0382375 0)
(7.57134 -0.045727 0)
(7.59658 -0.0543751 0)
(7.62425 -0.0648374 0)
(7.65551 -0.0769436 0)
(7.68803 -0.0937741 0)
(7.7254 -0.11061 0)
(7.33122 -0.003801 0)
(7.33037 -0.00515175 0)
(7.3348 -0.000496732 0)
(7.33965 0.00626384 0)
(7.34452 0.010912 0)
(7.34976 0.0131005 0)
(7.35531 0.0138266 0)
(7.36114 0.0137317 0)
(7.36719 0.013112 0)
(7.37344 0.0121266 0)
(7.37989 0.0108574 0)
(7.38661 0.00934262 0)
(7.39363 0.00759833 0)
(7.40104 0.0056277 0)
(7.40889 0.00342493 0)
(7.41728 0.000977795 0)
(7.42629 -0.00173113 0)
(7.436 -0.00472325 0)
(7.44651 -0.00802942 0)
(7.45793 -0.0116888 0)
(7.47035 -0.0157519 0)
(7.48388 -0.0202629 0)
(7.49867 -0.0252863 0)
(7.51483 -0.0309001 0)
(7.53251 -0.0371984 0)
(7.55185 -0.0443043 0)
(7.57303 -0.052359 0)
(7.59618 -0.061585 0)
(7.62154 -0.0721661 0)
(7.64901 -0.0846539 0)
(7.67908 -0.0990058 0)
(7.71041 -0.117105 0)
(7.74432 -0.136378 0)
(7.33269 0.00166057 0)
(7.33264 0.00880102 0)
(7.3351 0.0122418 0)
(7.3388 0.0131795 0)
(7.34338 0.0132806 0)
(7.34857 0.0129958 0)
(7.35404 0.0124696 0)
(7.35974 0.0116974 0)
(7.36571 0.0106579 0)
(7.37197 0.00936209 0)
(7.37857 0.00782169 0)
(7.38555 0.00603835 0)
(7.39297 0.00400705 0)
(7.40086 0.00171741 0)
(7.40929 -0.000845843 0)
(7.41832 -0.00370261 0)
(7.42801 -0.00687705 0)
(7.43844 -0.0103986 0)
(7.44969 -0.0143028 0)
(7.46183 -0.0186323 0)
(7.47496 -0.0234409 0)
(7.48918 -0.0287872 0)
(7.50457 -0.0347462 0)
(7.52126 -0.0414088 0)
(7.53936 -0.0488819 0)
(7.55899 -0.0572982 0)
(7.58027 -0.06681 0)
(7.6033 -0.0776312 0)
(7.62822 -0.0899614 0)
(7.65497 -0.104216 0)
(7.68373 -0.120474 0)
(7.71375 -0.139755 0)
(7.74549 -0.160687 0)
(7.33262 0.000321776 0)
(7.33283 0.00297678 0)
(7.33547 0.00554705 0)
(7.33925 0.00773297 0)
(7.34361 0.00922474 0)
(7.3484 0.00979907 0)
(7.35349 0.00963244 0)
(7.35888 0.00892762 0)
(7.3646 0.00780481 0)
(7.3707 0.00633921 0)
(7.37719 0.00457101 0)
(7.38413 0.00251443 0)
(7.39155 0.000168927 0)
(7.3995 -0.0024756 0)
(7.40803 -0.0054366 0)
(7.4172 -0.00873756 0)
(7.42706 -0.0124075 0)
(7.43766 -0.0164814 0)
(7.44909 -0.0210009 0)
(7.46141 -0.0260162 0)
(7.47469 -0.0315875 0)
(7.48902 -0.037783 0)
(7.50448 -0.0446844 0)
(7.52116 -0.0523894 0)
(7.53915 -0.0610121 0)
(7.55855 -0.0706903 0)
(7.57944 -0.0815808 0)
(7.6019 -0.0938851 0)
(7.62599 -0.1078 0)
(7.65167 -0.123644 0)
(7.67898 -0.14154 0)
(7.70751 -0.162056 0)
(7.73739 -0.184514 0)
(7.33288 0.000824376 0)
(7.33341 0.00374369 0)
(7.33573 0.00614972 0)
(7.33911 0.00760048 0)
(7.34313 0.0082488 0)
(7.34768 0.0081868 0)
(7.3526 0.00758061 0)
(7.35784 0.006549 0)
(7.36342 0.00514575 0)
(7.36937 0.00340504 0)
(7.37573 0.0013466 0)
(7.38254 -0.00102517 0)
(7.38985 -0.00371686 0)
(7.39769 -0.0067432 0)
(7.40613 -0.010126 0)
(7.41521 -0.013893 0)
(7.42498 -0.0180782 0)
(7.43549 -0.0227215 0)
(7.44681 -0.0278703 0)
(7.459 -0.0335798 0)
(7.47211 -0.0399153 0)
(7.48623 -0.0469513 0)
(7.50142 -0.0547756 0)
(7.51776 -0.0634913 0)
(7.53531 -0.0732173 0)
(7.55414 -0.0840931 0)
(7.57432 -0.096275 0)
(7.59588 -0.10995 0)
(7.61885 -0.125307 0)
(7.6432 -0.142596 0)
(7.66891 -0.161958 0)
(7.69575 -0.183732 0)
(7.72373 -0.207625 0)
(7.33294 0.000711031 0)
(7.33358 0.00276444 0)
(7.33573 0.00448184 0)
(7.33889 0.00555685 0)
(7.34269 0.00603105 0)
(7.34701 0.00588002 0)
(7.35172 0.00516882 0)
(7.35678 0.00398481 0)
(7.36218 0.00238488 0)
(7.36797 0.00040774 0)
(7.37417 -0.00192455 0)
(7.38081 -0.00460682 0)
(7.38795 -0.00764631 0)
(7.39562 -0.0110594 0)
(7.40388 -0.0148702 0)
(7.41275 -0.0191096 0)
(7.4223 -0.0238151 0)
(7.43257 -0.0290306 0)
(7.44362 -0.0348078 0)
(7.4555 -0.0412064 0)
(7.46827 -0.0482959 0)
(7.48197 -0.0561557 0)
(7.49668 -0.0648774 0)
(7.51244 -0.0745672 0)
(7.52931 -0.0853455 0)
(7.54734 -0.0973501 0)
(7.56656 -0.110733 0)
(7.58699 -0.125668 0)
(7.60863 -0.142331 0)
(7.63145 -0.160928 0)
(7.6554 -0.181606 0)
(7.68035 -0.204598 0)
(7.70627 -0.229821 0)
(7.333 0.000611521 0)
(7.33371 0.00219037 0)
(7.3357 0.00350492 0)
(7.33862 0.00423903 0)
(7.34218 0.00438697 0)
(7.34626 0.00394518 0)
(7.35075 0.0029705 0)
(7.35562 0.00153452 0)
(7.36085 -0.000318543 0)
(7.36646 -0.00256271 0)
(7.37248 -0.00518526 0)
(7.37894 -0.00818678 0)
(7.38588 -0.0115785 0)
(7.39334 -0.0153801 0)
(7.40135 -0.0196187 0)
(7.40996 -0.0243283 0)
(7.41921 -0.0295496 0)
(7.42915 -0.0353302 0)
(7.43983 -0.0417249 0)
(7.45128 -0.048797 0)
(7.46357 -0.0566189 0)
(7.47672 -0.0652729 0)
(7.49079 -0.0748529 0)
(7.50583 -0.0854656 0)
(7.52185 -0.0972307 0)
(7.5389 -0.110282 0)
(7.55699 -0.124766 0)
(7.57611 -0.140842 0)
(7.59626 -0.158673 0)
(7.61739 -0.178437 0)
(7.63944 -0.200281 0)
(7.66232 -0.224392 0)
(7.68598 -0.250794 0)
(7.33303 0.000470715 0)
(7.33376 0.00156871 0)
(7.3356 0.00242283 0)
(7.33831 0.00277869 0)
(7.34164 0.0026141 0)
(7.34549 0.00191867 0)
(7.34978 0.000718455 0)
(7.35444 -0.000942351 0)
(7.35947 -0.00303319 0)
(7.36489 -0.00553622 0)
(7.37071 -0.00844402 0)
(7.37695 -0.0117606 0)
(7.38366 -0.0155 0)
(7.39086 -0.0196844 0)
(7.39859 -0.0243435 0)
(7.40688 -0.029514 0)
(7.41579 -0.0352391 0)
(7.42533 -0.0415691 0)
(7.43556 -0.0485614 0)
(7.44651 -0.0562816 0)
(7.45822 -0.0648038 0)
(7.47072 -0.0742119 0)
(7.48405 -0.0845999 0)
(7.49823 -0.0960735 0)
(7.51328 -0.108749 0)
(7.52922 -0.122756 0)
(7.54605 -0.138231 0)
(7.56374 -0.155322 0)
(7.58227 -0.174179 0)
(7.60158 -0.194959 0)
(7.62161 -0.217807 0)
(7.64229 -0.242885 0)
(7.66353 -0.270271 0)
(7.33305 0.000309584 0)
(7.33377 0.000977741 0)
(7.33549 0.00142159 0)
(7.338 0.00143094 0)
(7.34111 0.000962651 0)
(7.34474 -1.25396e-06 0)
(7.3488 -0.00145092 0)
(7.35325 -0.00335818 0)
(7.35807 -0.00570248 0)
(7.36327 -0.00847354 0)
(7.36886 -0.0116702 0)
(7.37487 -0.0153012 0)
(7.38131 -0.019384 0)
(7.38822 -0.0239438 0)
(7.39563 -0.0290129 0)
(7.40357 -0.0346302 0)
(7.41207 -0.0408414 0)
(7.42117 -0.0476987 0)
(7.43089 -0.0552613 0)
(7.44126 -0.063596 0)
(7.45232 -0.0727777 0)
(7.46409 -0.0828901 0)
(7.47659 -0.094026 0)
(7.48983 -0.106288 0)
(7.50382 -0.119788 0)
(7.51855 -0.134648 0)
(7.53401 -0.150996 0)
(7.55018 -0.168967 0)
(7.56699 -0.1887 0)
(7.5844 -0.210334 0)
(7.60233 -0.234007 0)
(7.6207 -0.259866 0)
(7.63942 -0.288009 0)
(7.33305 0.000139692 0)
(7.33375 0.000406465 0)
(7.33535 0.000458825 0)
(7.33768 0.000124555 0)
(7.34059 -0.000648889 0)
(7.34399 -0.00188494 0)
(7.34783 -0.00358629 0)
(7.35206 -0.00574001 0)
(7.35665 -0.00833625 0)
(7.36162 -0.0113725 0)
(7.36696 -0.0148536 0)
(7.3727 -0.0187925 0)
(7.37885 -0.0232097 0)
(7.38544 -0.0281331 0)
(7.3925 -0.0335971 0)
(7.40004 -0.0396428 0)
(7.4081 -0.0463171 0)
(7.4167 -0.0536738 0)
(7.42586 -0.0617729 0)
(7.43561 -0.0706815 0)
(7.44596 -0.0804742 0)
(7.45693 -0.0912329 0)
(7.46852 -0.103048 0)
(7.48075 -0.116018 0)
(7.4936 -0.130248 0)
(7.50705 -0.145851 0)
(7.52108 -0.162947 0)
(7.53565 -0.181657 0)
(7.55069 -0.202107 0)
(7.56614 -0.224423 0)
(7.58192 -0.248732 0)
(7.59792 -0.275166 0)
(7.61407 -0.303821 0)
(7.33305 -3.22447e-05 0)
(7.33372 -0.000142739 0)
(7.3352 -0.000458833 0)
(7.33737 -0.0011235 0)
(7.34008 -0.00219444 0)
(7.34327 -0.00370145 0)
(7.34688 -0.005657 0)
(7.35087 -0.00806004 0)
(7.35523 -0.0109097 0)
(7.35994 -0.0142101 0)
(7.36502 -0.0179715 0)
(7.37047 -0.0222107 0)
(7.3763 -0.0269515 0)
(7.38255 -0.032224 0)
(7.38921 -0.0380647 0)
(7.39633 -0.044516 0)
(7.4039 -0.051626 0)
(7.41196 -0.0594489 0)
(7.42052 -0.0680451 0)
(7.42958 -0.0774809 0)
(7.43917 -0.0878292 0)
(7.44929 -0.0991695 0)
(7.45993 -0.111588 0)
(7.47108 -0.125177 0)
(7.48274 -0.140036 0)
(7.49486 -0.156267 0)
(7.50741 -0.173979 0)
(7.52033 -0.193282 0)
(7.53356 -0.214288 0)
(7.54702 -0.237108 0)
(7.56063 -0.261855 0)
(7.57426 -0.288647 0)
(7.58784 -0.317568 0)
(7.33305 -0.000201911 0)
(7.33368 -0.000669157 0)
(7.33506 -0.00133379 0)
(7.33706 -0.00231747 0)
(7.33958 -0.00367981 0)
(7.34255 -0.00545549 0)
(7.34594 -0.0076645 0)
(7.3497 -0.0103154 0)
(7.35381 -0.0134151 0)
(7.35825 -0.0169742 0)
(7.36304 -0.0210076 0)
(7.36818 -0.025536 0)
(7.37367 -0.0305857 0)
(7.37954 -0.0361892 0)
(7.38579 -0.0423842 0)
(7.39243 -0.0492142 0)
(7.39949 -0.0567278 0)
(7.40697 -0.0649791 0)
(7.41488 -0.0740275 0)
(7.42322 -0.0839381 0)
(7.43201 -0.094781 0)
(7.44122 -0.106632 0)
(7.45086 -0.119572 0)
(7.4609 -0.133688 0)
(7.47132 -0.149068 0)
(7.48207 -0.165808 0)
(7.4931 -0.184002 0)
(7.50436 -0.203748 0)
(7.51577 -0.225145 0)
(7.52725 -0.248288 0)
(7.53869 -0.273277 0)
(7.54998 -0.300212 0)
(7.56104 -0.32916 0)
(7.33305 -0.000366664 0)
(7.33364 -0.00117193 0)
(7.33491 -0.00216625 0)
(7.33676 -0.00345583 0)
(7.33909 -0.00510057 0)
(7.34186 -0.00713918 0)
(7.34502 -0.00959764 0)
(7.34853 -0.0124922 0)
(7.35238 -0.0158365 0)
(7.35654 -0.0196464 0)
(7.36103 -0.0239413 0)
(7.36583 -0.028745 0)
(7.37096 -0.0340864 0)
(7.37642 -0.0399994 0)
(7.38223 -0.0465229 0)
(7.38838 -0.0537008 0)
(7.39488 -0.0615816 0)
(7.40175 -0.0702187 0)
(7.40898 -0.0796699 0)
(7.41656 -0.0899979 0)
(7.4245 -0.101269 0)
(7.43278 -0.113556 0)
(7.44138 -0.126931 0)
(7.45027 -0.141475 0)
(7.45942 -0.157268 0)
(7.46878 -0.174392 0)
(7.47829 -0.192933 0)
(7.48788 -0.212973 0)
(7.49748 -0.234596 0)
(7.50698 -0.257886 0)
(7.5163 -0.282924 0)
(7.52532 -0.309794 0)
(7.53393 -0.338545 0)
(7.33305 -0.000524823 0)
(7.33359 -0.00165002 0)
(7.33476 -0.00295582 0)
(7.33646 -0.00453752 0)
(7.33862 -0.00645434 0)
(7.34118 -0.00874807 0)
(7.34411 -0.0114494 0)
(7.34737 -0.0145805 0)
(7.35094 -0.0181609 0)
(7.35482 -0.0222109 0)
(7.35898 -0.0267536 0)
(7.36343 -0.0318156 0)
(7.36818 -0.0374278 0)
(7.37321 -0.0436254 0)
(7.37854 -0.0504479 0)
(7.38417 -0.057939 0)
(7.3901 -0.0661467 0)
(7.39632 -0.0751227 0)
(7.40283 -0.0849228 0)
(7.40963 -0.0956064 0)
(7.41669 -0.107236 0)
(7.42401 -0.119878 0)
(7.43154 -0.133599 0)
(7.43926 -0.148471 0)
(7.44713 -0.164563 0)
(7.45509 -0.181949 0)
(7.46307 -0.2007 0)
(7.47101 -0.220886 0)
(7.47881 -0.242577 0)
(7.48639 -0.265842 0)
(7.49365 -0.290746 0)
(7.50047 -0.317358 0)
(7.50676 -0.345709 0)
(7.33304 -0.000675297 0)
(7.33354 -0.00210244 0)
(7.33462 -0.00370174 0)
(7.33618 -0.0055607 0)
(7.33815 -0.00773747 0)
(7.34051 -0.010276 0)
(7.34321 -0.0132108 0)
(7.34621 -0.0165686 0)
(7.34951 -0.0203736 0)
(7.35307 -0.02465 0)
(7.3569 -0.0294238 0)
(7.36099 -0.0347242 0)
(7.36532 -0.0405833 0)
(7.36991 -0.0470373 0)
(7.37475 -0.0541257 0)
(7.37983 -0.0618917 0)
(7.38515 -0.0703819 0)
(7.3907 -0.0796462 0)
(7.39647 -0.0897374 0)
(7.40245 -0.100711 0)
(7.40862 -0.112625 0)
(7.41495 -0.125539 0)
(7.4214 -0.139514 0)
(7.42794 -0.154611 0)
(7.43452 -0.170891 0)
(7.44108 -0.188415 0)
(7.44755 -0.207243 0)
(7.45386 -0.227431 0)
(7.45992 -0.249036 0)
(7.46564 -0.272114 0)
(7.47092 -0.296715 0)
(7.47564 -0.322891 0)
(7.47973 -0.350661 0)
(7.33304 -0.000817309 0)
(7.3335 -0.0025281 0)
(7.33447 -0.00440272 0)
(7.33589 -0.00652302 0)
(7.3377 -0.0089459 0)
(7.33985 -0.0117169 0)
(7.34231 -0.014873 0)
(7.34506 -0.0184449 0)
(7.34806 -0.0224602 0)
(7.35131 -0.0269463 0)
(7.35479 -0.0319318 0)
(7.35849 -0.0374473 0)
(7.36241 -0.0435264 0)
(7.36653 -0.0502052 0)
(7.37085 -0.057523 0)
(7.37536 -0.0655221 0)
(7.38005 -0.0742472 0)
(7.38492 -0.0837456 0)
(7.38993 -0.0940667 0)
(7.39508 -0.105262 0)
(7.40033 -0.117383 0)
(7.40566 -0.130485 0)
(7.41102 -0.144619 0)
(7.41638 -0.159839 0)
(7.42168 -0.176195 0)
(7.42685 -0.193736 0)
(7.43184 -0.212511 0)
(7.43656 -0.232564 0)
(7.44093 -0.25394 0)
(7.44486 -0.276679 0)
(7.44826 -0.30082 0)
(7.45101 -0.326403 0)
(7.45304 -0.353434 0)
(7.33304 -0.000950255 0)
(7.33345 -0.00292582 0)
(7.33433 -0.0050571 0)
(7.33562 -0.00742165 0)
(7.33725 -0.0100751 0)
(7.33919 -0.0130637 0)
(7.34142 -0.0164267 0)
(7.3439 -0.0201973 0)
(7.34661 -0.0244058 0)
(7.34954 -0.0290821 0)
(7.35266 -0.0342565 0)
(7.35596 -0.0399611 0)
(7.35944 -0.0462298 0)
(7.36307 -0.0530988 0)
(7.36686 -0.0606065 0)
(7.37079 -0.0687936 0)
(7.37484 -0.0777027 0)
(7.37899 -0.087378 0)
(7.38323 -0.0978651 0)
(7.38753 -0.109211 0)
(7.39186 -0.121461 0)
(7.39619 -0.134664 0)
(7.40046 -0.148863 0)
(7.40465 -0.164104 0)
(7.40868 -0.180426 0)
(7.4125 -0.197868 0)
(7.41605 -0.216466 0)
(7.41923 -0.236255 0)
(7.42198 -0.257265 0)
(7.42421 -0.279528 0)
(7.42583 -0.303071 0)
(7.42674 -0.327921 0)
(7.42687 -0.354079 0)
(7.33303 -0.0010736 0)
(7.3334 -0.00329432 0)
(7.3342 -0.00566287 0)
(7.33535 -0.00825339 0)
(7.3368 -0.0111201 0)
(7.33854 -0.0143098 0)
(7.34053 -0.0178627 0)
(7.34274 -0.0218139 0)
(7.34516 -0.0261959 0)
(7.34775 -0.0310402 0)
(7.3505 -0.0363783 0)
(7.35339 -0.042243 0)
(7.35642 -0.0486684 0)
(7.35956 -0.0556899 0)
(7.3628 -0.063345 0)
(7.36613 -0.0716723 0)
(7.36953 -0.0807118 0)
(7.37296 -0.0905044 0)
(7.37642 -0.101092 0)
(7.37987 -0.112515 0)
(7.38327 -0.124815 0)
(7.3866 -0.138032 0)
(7.3898 -0.152204 0)
(7.39282 -0.167364 0)
(7.39562 -0.183546 0)
(7.39812 -0.200776 0)
(7.40027 -0.219082 0)
(7.40199 -0.238484 0)
(7.4032 -0.259006 0)
(7.40382 -0.280668 0)
(7.40378 -0.303489 0)
(7.40297 -0.327489 0)
(7.40136 -0.352661 0)
(7.33303 -0.00118684 0)
(7.33336 -0.00363222 0)
(7.33406 -0.00621774 0)
(7.33508 -0.00901462 0)
(7.33636 -0.0120757 0)
(7.3379 -0.0154474 0)
(7.33965 -0.0191708 0)
(7.34159 -0.023282 0)
(7.3437 -0.0278148 0)
(7.34595 -0.0328017 0)
(7.34832 -0.0382751 0)
(7.3508 -0.0442678 0)
(7.35337 -0.0508137 0)
(7.35601 -0.0579474 0)
(7.35869 -0.0657046 0)
(7.36142 -0.0741217 0)
(7.36415 -0.0832358 0)
(7.36686 -0.0930841 0)
(7.36953 -0.103704 0)
(7.37213 -0.115131 0)
(7.37461 -0.127401 0)
(7.37695 -0.140547 0)
(7.37909 -0.154599 0)
(7.38099 -0.169583 0)
(7.38258 -0.185522 0)
(7.38382 -0.202435 0)
(7.38463 -0.220338 0)
(7.38495 -0.239244 0)
(7.38471 -0.259166 0)
(7.38382 -0.280117 0)
(7.38224 -0.302111 0)
(7.37986 -0.325158 0)
(7.37665 -0.349252 0)
(7.33303 -0.00128946 0)
(7.33331 -0.00393803 0)
(7.33392 -0.0067193 0)
(7.33481 -0.00970182 0)
(7.33593 -0.0129369 0)
(7.33726 -0.0164704 0)
(7.33877 -0.0203432 0)
(7.34044 -0.0245921 0)
(7.34224 -0.0292513 0)
(7.34415 -0.0343539 0)
(7.34614 -0.0399323 0)
(7.3482 -0.0460193 0)
(7.3503 -0.0526478 0)
(7.35242 -0.0598511 0)
(7.35455 -0.0676631 0)
(7.35666 -0.0761177 0)
(7.35873 -0.0852487 0)
(7.36072 -0.0950898 0)
(7.36261 -0.105673 0)
(7.36436 -0.117031 0)
(7.36594 -0.129191 0)
(7.36731 -0.142181 0)
(7.36842 -0.156024 0)
(7.36922 -0.170738 0)
(7.36965 -0.186337 0)
(7.36968 -0.202833 0)
(7.36922 -0.220232 0)
(7.36822 -0.23854 0)
(7.36661 -0.257764 0)
(7.36434 -0.277908 0)
(7.36133 -0.298982 0)
(7.35751 -0.320994 0)
(7.35287 -0.343936 0)
(7.33302 -0.00138093 0)
(7.33327 -0.00421013 0)
(7.33379 -0.00716461 0)
(7.33455 -0.0103103 0)
(7.3355 -0.0136967 0)
(7.33663 -0.0173684 0)
(7.3379 -0.0213659 0)
(7.3393 -0.0257259 0)
(7.34079 -0.0304828 0)
(7.34235 -0.0356697 0)
(7.34395 -0.0413189 0)
(7.34559 -0.0474624 0)
(7.34722 -0.0541321 0)
(7.34884 -0.0613597 0)
(7.3504 -0.069177 0)
(7.3519 -0.0776151 0)
(7.35331 -0.0867045 0)
(7.35458 -0.0964749 0)
(7.3557 -0.106954 0)
(7.35662 -0.118169 0)
(7.35732 -0.130142 0)
(7.35774 -0.142895 0)
(7.35785 -0.156443 0)
(7.3576 -0.170799 0)
(7.35693 -0.185969 0)
(7.3558 -0.201956 0)
(7.35414 -0.21876 0)
(7.35191 -0.236381 0)
(7.34904 -0.254818 0)
(7.34547 -0.274074 0)
(7.34117 -0.294153 0)
(7.33605 -0.315062 0)
(7.33011 -0.336795 0)
(7.33302 -0.00146072 0)
(7.33322 -0.00444712 0)
(7.33366 -0.00755192 0)
(7.33429 -0.0108387 0)
(7.33508 -0.0143548 0)
(7.336 -0.0181433 0)
(7.33704 -0.0222434 0)
(7.33816 -0.0266909 0)
(7.33935 -0.0315194 0)
(7.34056 -0.0367614 0)
(7.34179 -0.0424483 0)
(7.34299 -0.0486112 0)
(7.34416 -0.0552806 0)
(7.34526 -0.0624865 0)
(7.34627 -0.0702581 0)
(7.34717 -0.0786241 0)
(7.34792 -0.0876115 0)
(7.34849 -0.0972463 0)
(7.34885 -0.107552 0)
(7.34897 -0.11855 0)
(7.3488 -0.130259 0)
(7.34831 -0.142694 0)
(7.34746 -0.155865 0)
(7.3462 -0.169777 0)
(7.34449 -0.184431 0)
(7.34227 -0.199824 0)
(7.33949 -0.21595 0)
(7.33611 -0.232802 0)
(7.33207 -0.250377 0)
(7.32734 -0.268673 0)
(7.32185 -0.287693 0)
(7.31556 -0.307445 0)
(7.30847 -0.327922 0)
(7.33302 -0.00152815 0)
(7.33318 -0.00464631 0)
(7.33353 -0.00787513 0)
(7.33403 -0.0112751 0)
(7.33466 -0.0148911 0)
(7.33538 -0.0187641 0)
(7.33619 -0.0229323 0)
(7.33704 -0.0274309 0)
(7.33792 -0.0322931 0)
(7.33879 -0.0375506 0)
(7.33964 -0.043234 0)
(7.34042 -0.0493731 0)
(7.34113 -0.0559967 0)
(7.34173 -0.0631327 0)
(7.34219 -0.0708078 0)
(7.34249 -0.0790474 0)
(7.3426 -0.0878753 0)
(7.34248 -0.0973135 0)
(7.34211 -0.107381 0)
(7.34144 -0.118096 0)
(7.34045 -0.12947 0)
(7.33909 -0.141514 0)
(7.33733 -0.154233 0)
(7.33512 -0.167626 0)
(7.33241 -0.18169 0)
(7.32918 -0.196414 0)
(7.32536 -0.21179 0)
(7.32092 -0.227806 0)
(7.31582 -0.244456 0)
(7.31001 -0.261736 0)
(7.30346 -0.279649 0)
(7.29613 -0.298202 0)
(7.28801 -0.317394 0)
(7.33301 -0.00158295 0)
(7.33314 -0.00480909 0)
(7.3334 -0.00814194 0)
(7.33378 -0.0116398 0)
(7.33425 -0.0153439 0)
(7.33479 -0.0192912 0)
(7.33536 -0.0235162 0)
(7.33595 -0.0280512 0)
(7.33653 -0.0329269 0)
(7.33706 -0.0381738 0)
(7.33753 -0.0438212 0)
(7.3379 -0.0498975 0)
(7.33816 -0.0564302 0)
(7.33826 -0.0634453 0)
(7.33818 -0.0709677 0)
(7.3379 -0.07902 0)
(7.33739 -0.0876232 0)
(7.33661 -0.0967958 0)
(7.33552 -0.106554 0)
(7.33411 -0.116909 0)
(7.33233 -0.127872 0)
(7.33014 -0.139448 0)
(7.32751 -0.151636 0)
(7.32441 -0.164432 0)
(7.32079 -0.177828 0)
(7.31661 -0.191811 0)
(7.31183 -0.206366 0)
(7.30643 -0.221481 0)
(7.30036 -0.237146 0)
(7.29358 -0.253359 0)
(7.28609 -0.270121 0)
(7.27783 -0.287441 0)
(7.26881 -0.305323 0)
(7.33301 -0.00162301 0)
(7.33309 -0.00492238 0)
(7.33327 -0.00831626 0)
(7.33352 -0.0118594 0)
(7.33382 -0.0155911 0)
(7.33417 -0.0195484 0)
(7.33452 -0.0237662 0)
(7.33485 -0.0282767 0)
(7.33514 -0.03311 0)
(7.33536 -0.0382949 0)
(7.33546 -0.0438589 0)
(7.33544 -0.0498281 0)
(7.33526 -0.0562271 0)
(7.33488 -0.0630794 0)
(7.33429 -0.0704064 0)
(7.33345 -0.0782277 0)
(7.33234 -0.0865605 0)
(7.33092 -0.0954197 0)
(7.32916 -0.104817 0)
(7.32704 -0.114762 0)
(7.32451 -0.12526 0)
(7.32154 -0.136311 0)
(7.31811 -0.147913 0)
(7.31417 -0.160057 0)
(7.30969 -0.172731 0)
(7.30465 -0.18592 0)
(7.299 -0.199606 0)
(7.29271 -0.213776 0)
(7.28577 -0.228418 0)
(7.27814 -0.243531 0)
(7.26979 -0.259117 0)
(7.26072 -0.275187 0)
(7.25091 -0.291748 0)
(7.33301 -0.0016523 0)
(7.33306 -0.00501952 0)
(7.33316 -0.00849512 0)
(7.33331 -0.012127 0)
(7.33347 -0.0159402 0)
(7.33363 -0.0199577 0)
(7.33377 -0.0242051 0)
(7.33385 -0.0287092 0)
(7.33385 -0.0334979 0)
(7.33374 -0.0385997 0)
(7.33349 -0.0440424 0)
(7.33307 -0.0498525 0)
(7.33245 -0.0560549 0)
(7.33161 -0.0626726 0)
(7.33052 -0.069726 0)
(7.32914 -0.0772333 0)
(7.32746 -0.0852096 0)
(7.32543 -0.0936674 0)
(7.32303 -0.102616 0)
(7.32023 -0.112061 0)
(7.31701 -0.122004 0)
(7.31331 -0.132445 0)
(7.30913 -0.143376 0)
(7.30443 -0.154786 0)
(7.29917 -0.166661 0)
(7.29333 -0.178983 0)
(7.28689 -0.191735 0)
(7.27982 -0.204899 0)
(7.27209 -0.218467 0)
(7.2637 -0.232436 0)
(7.25461 -0.24681 0)
(7.24482 -0.261603 0)
(7.23434 -0.276825 0)
(7.33299 -0.00165203 0)
(7.33297 -0.00498217 0)
(7.33296 -0.00838133 0)
(7.33295 -0.0119095 0)
(7.33296 -0.0156068 0)
(7.33295 -0.0195075 0)
(7.3329 -0.0236407 0)
(7.33277 -0.028031 0)
(7.33253 -0.0327011 0)
(7.33214 -0.0376732 0)
(7.33157 -0.0429691 0)
(7.3308 -0.0486094 0)
(7.32979 -0.0546138 0)
(7.32853 -0.0610003 0)
(7.32697 -0.0677852 0)
(7.32509 -0.0749826 0)
(7.32287 -0.0826041 0)
(7.32027 -0.0906587 0)
(7.31728 -0.0991524 0)
(7.31385 -0.108088 0)
(7.30997 -0.117465 0)
(7.30561 -0.127279 0)
(7.30074 -0.137522 0)
(7.29533 -0.14818 0)
(7.28936 -0.159237 0)
(7.28281 -0.170676 0)
(7.27566 -0.182476 0)
(7.26788 -0.194624 0)
(7.25946 -0.207109 0)
(7.25038 -0.21993 0)
(7.24065 -0.233094 0)
(7.23024 -0.246616 0)
(7.21916 -0.260509 0)
(7.33302 -0.00168191 0)
(7.33303 -0.00516108 0)
(7.333 -0.00879292 0)
(7.33292 -0.0125697 0)
(7.33279 -0.0164672 0)
(7.33259 -0.0204858 0)
(7.33231 -0.0246461 0)
(7.33191 -0.0289772 0)
(7.33137 -0.0335111 0)
(7.33066 -0.0382804 0)
(7.32975 -0.0433158 0)
(7.3286 -0.0486451 0)
(7.3272 -0.0542931 0)
(7.3255 -0.060281 0)
(7.32349 -0.0666267 0)
(7.32114 -0.0733443 0)
(7.31841 -0.0804448 0)
(7.31528 -0.0879356 0)
(7.31174 -0.0958206 0)
(7.30774 -0.1041 0)
(7.30327 -0.112772 0)
(7.2983 -0.121829 0)
(7.2928 -0.13126 0)
(7.28677 -0.141052 0)
(7.28016 -0.151186 0)
(7.27298 -0.161643 0)
(7.26519 -0.172405 0)
(7.2568 -0.183458 0)
(7.24777 -0.194791 0)
(7.23812 -0.206405 0)
(7.22782 -0.218309 0)
(7.21688 -0.23052 0)
(7.20531 -0.243054 0)
(7.33294 -0.00152031 0)
(7.33268 -0.00448833 0)
(7.33239 -0.00752699 0)
(7.33214 -0.0107637 0)
(7.33192 -0.0142402 0)
(7.33166 -0.0179616 0)
(7.33132 -0.0219218 0)
(7.33083 -0.0261168 0)
(7.33016 -0.0305487 0)
(7.32927 -0.0352253 0)
(7.32813 -0.0401579 0)
(7.32671 -0.0453596 0)
(7.32498 -0.050844 0)
(7.32293 -0.0566246 0)
(7.32052 -0.0627134 0)
(7.31773 -0.0691203 0)
(7.31454 -0.0758531 0)
(7.31092 -0.082917 0)
(7.30686 -0.0903143 0)
(7.30233 -0.0980443 0)
(7.29731 -0.106103 0)
(7.29178 -0.114484 0)
(7.28571 -0.123175 0)
(7.2791 -0.132163 0)
(7.27193 -0.14143 0)
(7.26418 -0.15096 0)
(7.25583 -0.160733 0)
(7.24688 -0.170737 0)
(7.23733 -0.180964 0)
(7.22716 -0.191416 0)
(7.21637 -0.202105 0)
(7.20497 -0.213048 0)
(7.19296 -0.224264 0)
(7.33311 -0.00187782 0)
(7.33327 -0.00589529 0)
(7.33311 -0.0100718 0)
(7.33273 -0.0141895 0)
(7.33221 -0.0181691 0)
(7.33159 -0.0220492 0)
(7.33087 -0.0259 0)
(7.33001 -0.0297881 0)
(7.32898 -0.0337723 0)
(7.32773 -0.0379037 0)
(7.32625 -0.0422249 0)
(7.32448 -0.0467699 0)
(7.32239 -0.0515657 0)
(7.31997 -0.0566329 0)
(7.31718 -0.0619868 0)
(7.314 -0.0676378 0)
(7.3104 -0.0735922 0)
(7.30636 -0.0798526 0)
(7.30186 -0.0864181 0)
(7.29688 -0.0932843 0)
(7.2914 -0.100444 0)
(7.28539 -0.107887 0)
(7.27886 -0.1156 0)
(7.27177 -0.123566 0)
(7.26412 -0.131767 0)
(7.25589 -0.140184 0)
(7.24708 -0.148801 0)
(7.23769 -0.157604 0)
(7.2277 -0.166588 0)
(7.21712 -0.175757 0)
(7.20594 -0.185122 0)
(7.19418 -0.194707 0)
(7.18184 -0.204531 0)
(7.33271 -0.000598322 0)
(7.33176 -0.0018128 0)
(7.33107 -0.00361355 0)
(7.33076 -0.00622893 0)
(7.33059 -0.00948661 0)
(7.33034 -0.0131657 0)
(7.32991 -0.0171253 0)
(7.32923 -0.0212888 0)
(7.32828 -0.0256168 0)
(7.32701 -0.0300934 0)
(7.3254 -0.0347175 0)
(7.32344 -0.0394966 0)
(7.3211 -0.0444428 0)
(7.31836 -0.0495689 0)
(7.31522 -0.0548876 0)
(7.31165 -0.0604094 0)
(7.30763 -0.0661424 0)
(7.30316 -0.0720922 0)
(7.29822 -0.078261 0)
(7.29278 -0.0846481 0)
(7.28684 -0.0912499 0)
(7.28038 -0.0980592 0)
(7.2734 -0.105066 0)
(7.26586 -0.112257 0)
(7.25778 -0.119618 0)
(7.24913 -0.127133 0)
(7.23992 -0.134786 0)
(7.23013 -0.142569 0)
(7.21977 -0.150476 0)
(7.20883 -0.158515 0)
(7.19733 -0.166698 0)
(7.18525 -0.175048 0)
(7.17263 -0.183589 0)
(7.33337 -0.00292356 0)
(7.33379 -0.00957492 0)
(7.33303 -0.0155371 0)
(7.33178 -0.0202284 0)
(7.33056 -0.0239773 0)
(7.32943 -0.027185 0)
(7.3283 -0.030111 0)
(7.32708 -0.0329254 0)
(7.32571 -0.0357525 0)
(7.32411 -0.0386805 0)
(7.32223 -0.0417693 0)
(7.32003 -0.0450578 0)
(7.31747 -0.0485714 0)
(7.31453 -0.0523254 0)
(7.31118 -0.0563278 0)
(7.3074 -0.060581 0)
(7.30316 -0.0650831 0)
(7.29846 -0.0698288 0)
(7.29327 -0.0748098 0)
(7.28759 -0.0800152 0)
(7.2814 -0.0854319 0)
(7.27468 -0.091045 0)
(7.26744 -0.0968373 0)
(7.25966 -0.102791 0)
(7.25133 -0.108886 0)
(7.24245 -0.115104 0)
(7.23303 -0.121431 0)
(7.22305 -0.127857 0)
(7.21252 -0.13438 0)
(7.20145 -0.141009 0)
(7.18985 -0.147763 0)
(7.17771 -0.15467 0)
(7.16506 -0.161759 0)
(7.33185 0.00272899 0)
(7.32923 0.00728967 0)
(7.32893 0.0082859 0)
(7.32963 0.00599241 0)
(7.33012 0.00210784 0)
(7.33014 -0.00238195 0)
(7.32973 -0.0071006 0)
(7.3289 -0.0118719 0)
(7.32764 -0.016605 0)
(7.32596 -0.0212691 0)
(7.32386 -0.0258687 0)
(7.32136 -0.0304246 0)
(7.31844 -0.0349629 0)
(7.31511 -0.0395106 0)
(7.31136 -0.0440929 0)
(7.30718 -0.0487312 0)
(7.30257 -0.0534428 0)
(7.29751 -0.0582406 0)
(7.292 -0.0631335 0)
(7.28604 -0.0681259 0)
(7.2796 -0.0732186 0)
(7.27268 -0.0784087 0)
(7.26527 -0.0836897 0)
(7.25737 -0.089052 0)
(7.24897 -0.0944838 0)
(7.24006 -0.0999728 0)
(7.23065 -0.105508 0)
(7.22071 -0.111082 0)
(7.21027 -0.116694 0)
(7.19931 -0.122353 0)
(7.18784 -0.128077 0)
(7.17586 -0.133889 0)
(7.1634 -0.13982 0)
(7.33398 -0.00687541 0)
(7.33326 -0.0212664 0)
(7.32853 -0.031119 0)
(7.3243 -0.0356889 0)
(7.32202 -0.0377986 0)
(7.32076 -0.0389249 0)
(7.31982 -0.0395865 0)
(7.31893 -0.0401285 0)
(7.31795 -0.0407755 0)
(7.31677 -0.0416405 0)
(7.3153 -0.0427766 0)
(7.3135 -0.044206 0)
(7.31132 -0.0459327 0)
(7.30875 -0.0479493 0)
(7.30577 -0.0502424 0)
(7.30236 -0.0527951 0)
(7.29851 -0.055588 0)
(7.29421 -0.0586002 0)
(7.28946 -0.0618101 0)
(7.28424 -0.0651951 0)
(7.27856 -0.0687322 0)
(7.27242 -0.072398 0)
(7.2658 -0.0761689 0)
(7.25872 -0.080022 0)
(7.25116 -0.0839354 0)
(7.24313 -0.0878905 0)
(7.23463 -0.091874 0)
(7.22567 -0.0958806 0)
(7.21626 -0.0999159 0)
(7.20639 -0.103997 0)
(7.19608 -0.108154 0)
(7.18533 -0.112425 0)
(7.17414 -0.116848 0)
(7.32969 0.0195292 0)
(7.32481 0.0360155 0)
(7.32878 0.0363048 0)
(7.3333 0.0303469 0)
(7.33484 0.0230215 0)
(7.33509 0.0156043 0)
(7.33494 0.00848273 0)
(7.3345 0.00186555 0)
(7.33381 -0.00419719 0)
(7.33295 -0.00974917 0)
(7.33192 -0.0148618 0)
(7.33071 -0.0196105 0)
(7.3293 -0.024068 0)
(7.32768 -0.0283004 0)
(7.32583 -0.0323648 0)
(7.32373 -0.0363093 0)
(7.32137 -0.040173 0)
(7.31874 -0.0439872 0)
(7.31582 -0.0477754 0)
(7.31261 -0.0515547 0)
(7.30909 -0.0553355 0)
(7.30524 -0.0591226 0)
(7.30106 -0.0629154 0)
(7.29651 -0.0667084 0)
(7.29158 -0.0704929 0)
(7.28622 -0.0742582 0)
(7.2804 -0.077994 0)
(7.27408 -0.0816918 0)
(7.2672 -0.0853471 0)
(7.25973 -0.08896 0)
(7.25161 -0.0925362 0)
(7.24279 -0.0960819 0)
(7.23324 -0.0996121 0)
(7.32501 -0.033481 0)
(7.29704 -0.0600442 0)
(7.27679 -0.0640971 0)
(7.27252 -0.0631634 0)
(7.27949 -0.0607767 0)
(7.29106 -0.05767 0)
(7.30427 -0.0546767 0)
(7.31785 -0.0521835 0)
(7.33107 -0.0502626 0)
(7.34352 -0.0489147 0)
(7.35504 -0.048114 0)
(7.36557 -0.0478145 0)
(7.37512 -0.0479643 0)
(7.38372 -0.0485127 0)
(7.39139 -0.0494118 0)
(7.39819 -0.0506165 0)
(7.40413 -0.0520837 0)
(7.40924 -0.0537716 0)
(7.41352 -0.0556386 0)
(7.41696 -0.0576425 0)
(7.41953 -0.0597397 0)
(7.42121 -0.0618856 0)
(7.42194 -0.0640348 0)
(7.42165 -0.0661415 0)
(7.42029 -0.0681621 0)
(7.41779 -0.0700563 0)
(7.41405 -0.071791 0)
(7.40903 -0.0733432 0)
(7.40264 -0.0747044 0)
(7.39485 -0.0758844 0)
(7.38561 -0.0769123 0)
(7.3749 -0.0778417 0)
(7.36281 -0.0787278 0)
(7.33915 0.13461 0)
(7.37571 0.126798 0)
(7.39231 0.0865031 0)
(7.38652 0.0523251 0)
(7.36857 0.0266266 0)
(7.34397 0.00796664 0)
(7.31516 -0.00559731 0)
(7.2838 -0.015692 0)
(7.25091 -0.0234077 0)
(7.21698 -0.0294688 0)
(7.18229 -0.0343714 0)