# y+ ()       
# Time        	patch         	min           	max           	average       
1500          	lowerWall	5.292989e+00	7.936700e+01	4.326097e+01
1500          	upperWall	3.060454e+01	4.713107e+01	4.146378e+01
