/*--------------------------------*- C++ -*----------------------------------*\
  =========                 |
  \\      /  F ield         | OpenFOAM: The Open Source CFD Toolbox
   \\    /   O peration     | Website:  https://openfoam.org
    \\  /    A nd           | Version:  10
     \\/     M anipulation  |
\*---------------------------------------------------------------------------*/
FoamFile
{
    format      ascii;
    class       volScalarField;
    location    "100";
    object      k;
}
// * * * * * * * * * * * * * * * * * * * * * * * * * * * * * * * * * * * * * //

dimensions      [0 2 -2 0 0 0 0];

internalField   nonuniform List<scalar> 
6820
(
0.318928
0.614644
0.84742
0.983459
1.04857
1.0697
1.0655
1.04769
1.02345
0.997024
0.970819
0.946062
0.923291
0.902689
0.8843
0.868094
0.853964
0.841726
0.831174
0.82214
0.814503
0.808166
0.803021
0.79895
0.795769
0.793311
0.791462
0.790158
0.78937
0.789149
0.789162
0.791365
0.784546
0.838866
1.45722
1.53032
1.40668
1.25029
1.1109
0.996245
0.903405
0.828086
0.76645
0.715624
0.673321
0.63781
0.607829
0.582369
0.560598
0.541838
0.525572
0.511411
0.499057
0.488239
0.478733
0.470318
0.462837
0.456203
0.450363
0.445214
0.440661
0.436581
0.432875
0.429319
0.425896
0.421749
0.379907
0.662296
0.793351
0.827882
0.817994
0.790109
0.756013
0.720722
0.686372
0.653847
0.623508
0.595437
0.56961
0.545914
0.52427
0.50451
0.486511
0.470126
0.455229
0.441701
0.429425
0.418298
0.408205
0.399066
0.390764
0.383213
0.376322
0.370029
0.364241
0.358892
0.353862
0.349072
0.344336
0.246133
0.339281
0.411824
0.458764
0.485495
0.498562
0.50285
0.501587
0.496812
0.489821
0.481443
0.472225
0.462548
0.452679
0.44283
0.433137
0.423698
0.414575
0.405814
0.397452
0.389512
0.382001
0.374915
0.36825
0.361993
0.35613
0.350631
0.345475
0.340624
0.336048
0.331708
0.327577
0.323654
0.21672
0.253377
0.285735
0.312142
0.332307
0.346917
0.357014
0.363626
0.36759
0.369552
0.369984
0.369241
0.3676
0.365272
0.362431
0.359214
0.355723
0.352046
0.348257
0.344424
0.340607
0.336842
0.333158
0.329575
0.326104
0.322745
0.319506
0.31639
0.31341
0.31061
0.308084
0.305997
0.304714
0.206696
0.223717
0.239921
0.254326
0.266565
0.276588
0.284578
0.290825
0.295611
0.299189
0.301766
0.303514
0.304576
0.305069
0.305095
0.304737
0.304067
0.303151
0.302044
0.300798
0.299453
0.29804
0.296577
0.295073
0.293538
0.291982
0.290444
0.289014
0.287883
0.287403
0.288169
0.29098
0.297069
0.202773
0.211412
0.220404
0.228825
0.236357
0.242887
0.248436
0.253094
0.256965
0.260153
0.262748
0.264832
0.266479
0.26775
0.268704
0.269393
0.269861
0.270149
0.270293
0.270318
0.270242
0.270069
0.269796
0.26942
0.268964
0.268514
0.268301
0.268794
0.270813
0.275576
0.28461
0.299421
0.321305
0.201166
0.205654
0.210895
0.216105
0.220961
0.225327
0.229177
0.232539
0.235455
0.237974
0.240141
0.242002
0.243596
0.244963
0.246141
0.247165
0.248063
0.248861
0.249571
0.250196
0.250724
0.251134
0.251411
0.251587
0.251823
0.252543
0.254611
0.259462
0.269045
0.285404
0.310026
0.343303
0.384217
0.200482
0.202782
0.205857
0.209157
0.212382
0.215386
0.218115
0.220568
0.22276
0.224716
0.22646
0.228023
0.229431
0.230715
0.231901
0.233017
0.23408
0.235098
0.236064
0.236952
0.237725
0.238353
0.238872
0.239505
0.240873
0.24425
0.25171
0.265847
0.288966
0.322157
0.364922
0.415502
0.470757
0.200183
0.201317
0.20308
0.205154
0.207306
0.209396
0.211358
0.213172
0.214837
0.216365
0.217771
0.219077
0.220304
0.221478
0.22262
0.22375
0.224875
0.225983
0.227044
0.228007
0.228825
0.229518
0.230329
0.23199
0.236083
0.245211
0.262526
0.290542
0.330012
0.379789
0.437527
0.500396
0.564504
0.20005
0.200569
0.201533
0.202795
0.204204
0.205645
0.207054
0.2084
0.209673
0.210875
0.212019
0.213119
0.214196
0.21527
0.21636
0.217476
0.218611
0.219734
0.22079
0.221715
0.222496
0.223328
0.224924
0.228965
0.238381
0.256843
0.28727
0.33042
0.38481
0.447719
0.516148
0.58711
0.656602
0.199991
0.200192
0.200678
0.201405
0.202291
0.203258
0.204251
0.20524
0.206209
0.207158
0.208093
0.209028
0.209981
0.210969
0.212006
0.21309
0.2142
0.215283
0.216266
0.217097
0.217882
0.21918
0.222516
0.23085
0.24827
0.278386
0.322474
0.379123
0.445378
0.517982
0.593942
0.670369
0.743278
0.199965
0.200005
0.200215
0.200598
0.20112
0.20174
0.202417
0.203126
0.203854
0.204598
0.205363
0.206161
0.207008
0.207918
0.208898
0.209934
0.210988
0.211988
0.212857
0.213602
0.214559
0.216882
0.223192
0.237692
0.264821
0.306945
0.36329
0.430921
0.506271
0.586057
0.667455
0.747697
0.822835
0.199954
0.199915
0.199971
0.200141
0.20042
0.200789
0.201228
0.201719
0.202254
0.202829
0.203452
0.204133
0.204885
0.20572
0.206636
0.207608
0.208579
0.209467
0.21021
0.210931
0.212327
0.216355
0.226815
0.248711
0.285904
0.339
0.405574
0.481868
0.564167
0.649341
0.734749
0.817715
0.89433
0.199949
0.199873
0.199847
0.199891
0.200013
0.20021
0.200474
0.200798
0.201178
0.201616
0.202119
0.202697
0.203363
0.204123
0.204967
0.205859
0.206729
0.207489
0.208119
0.208916
0.211059
0.217415
0.232816
0.262458
0.309036
0.371495
0.446306
0.529344
0.616967
0.706228
0.794634
0.879568
0.957158
0.199947
0.199853
0.199786
0.19976
0.199786
0.199869
0.20001
0.200211
0.200472
0.200799
0.201202
0.20169
0.202276
0.20296
0.203727
0.204528
0.205284
0.205914
0.20646
0.207445
0.210596
0.219685
0.240274
0.277247
0.331971
0.402073
0.483357
0.571602
0.663305
0.755679
0.846332
0.932688
1.01091
0.199946
0.199845
0.199758
0.199695
0.199665
0.199677
0.199737
0.19985
0.200022
0.200263
0.200583
0.200995
0.201506
0.202117
0.202802
0.203507
0.204147
0.204653
0.20515
0.206409
0.210714
0.222626
0.248122
0.291495
0.352897
0.429003
0.515258
0.607468
0.702267
0.79699
0.889314
0.976681
1.05529
0.199946
0.199842
0.199746
0.199664
0.199604
0.199575
0.199583
0.199637
0.199747
0.199923
0.200177
0.200523
0.200969
0.201508
0.202112
0.202721
0.203249
0.203647
0.204122
0.205691
0.211136
0.22564
0.255344
0.30389
0.370455
0.451071
0.541014
0.636155
0.733241
0.82969
0.923221
1.01128
1.09011
0.199946
0.199841
0.199741
0.199651
0.199576
0.199524
0.199501
0.199518
0.199585
0.199714
0.199919
0.200211
0.200598
0.201071
0.2016
0.202118
0.202544
0.202849
0.203318
0.20517
0.211582
0.228168
0.261095
0.313442
0.383689
0.467464
0.559975
0.657158
0.755837
0.853484
0.947834
1.03633
1.11525
0.199946
0.199841
0.19974
0.199646
0.199565
0.1995
0.199461
0.199455
0.199495
0.199591
0.199758
0.200008
0.200345
0.20076
0.201219
0.201658
0.201995
0.202225
0.202686
0.204737
0.211809
0.229771
0.264764
0.319491
0.391996
0.477693
0.571765
0.670192
0.769845
0.868218
0.963045
1.05176
1.13065
0.199946
0.199841
0.19974
0.199645
0.199561
0.199491
0.199443
0.199424
0.199446
0.199521
0.199661
0.199877
0.200173
0.200539
0.200939
0.20131
0.201577
0.201746
0.202185
0.204312
0.211654
0.230176
0.265998
0.321676
0.395076
0.481533
0.576227
0.675157
0.775205
0.873864
0.968849
1.05758
1.13634
0.199946
0.199841
0.19974
0.199646
0.19956
0.199488
0.199436
0.19941
0.199422
0.199482
0.199603
0.199794
0.200058
0.200383
0.200735
0.201053
0.201267
0.201389
0.201787
0.203852
0.211051
0.229288
0.264695
0.319916
0.392889
0.478988
0.573398
0.67211
0.77199
0.870504
0.965334
1.05386
1.13239
0.199946
0.199842
0.199741
0.199647
0.199561
0.199489
0.199434
0.199405
0.199411
0.199463
0.19957
0.199742
0.199982
0.200276
0.200592
0.200872
0.201051
0.20114
0.201478
0.203354
0.21003
0.22719
0.26099
0.314381
0.385626
0.470256
0.563478
0.66125
0.760391
0.858319
0.952666
1.04077
1.11893
0.199947
0.199842
0.199742
0.199648
0.199563
0.19949
0.199436
0.199406
0.199409
0.199456
0.199555
0.199715
0.199937
0.200209
0.200501
0.200759
0.20092
0.200989
0.201256
0.202851
0.208699
0.22411
0.255223
0.305469
0.37369
0.45572
0.546821
0.6429
0.740703
0.837577
0.931087
1.01852
1.09615
0.199947
0.199842
0.199742
0.199649
0.199564
0.199493
0.19944
0.199411
0.199415
0.19946
0.199556
0.199709
0.199921
0.200181
0.20046
0.200709
0.200869
0.200934
0.201131
0.202395
0.207223
0.220392
0.247908
0.29378
0.357678
0.43593
0.523917
0.617496
0.713313
0.80862
0.900899
0.98737
1.06427
0.199947
0.199842
0.199743
0.19965
0.199567
0.199498
0.199448
0.199423
0.19943
0.199479
0.199576
0.199729
0.199938
0.200195
0.200473
0.200727
0.200902
0.200979
0.201121
0.202052
0.205791
0.216439
0.239686
0.280091
0.338373
0.411597
0.495393
0.585578
0.678687
0.77185
0.862449
0.947621
1.02355
0.199947
0.199842
0.199743
0.199652
0.199572
0.199508
0.199464
0.199446
0.199462
0.199519
0.199625
0.199785
0.2
0.200263
0.200551
0.200823
0.201029
0.201137
0.201249
0.201886
0.204583
0.212668
0.231274
0.265336
0.316744
0.383611
0.462007
0.547786
0.637358
0.727715
0.816115
0.899593
0.97426
0.199947
0.199843
0.199745
0.199657
0.199583
0.199526
0.199494
0.19949
0.199523
0.199597
0.19972
0.199897
0.200128
0.200407
0.200715
0.201018
0.201268
0.201427
0.201543
0.201958
0.203755
0.209458
0.223399
0.25056
0.293958
0.353059
0.424688
0.504873
0.589932
0.676697
0.76228
0.843596
0.916657
0.199946
0.199843
0.199749
0.199667
0.199604
0.199564
0.199552
0.199574
0.199635
0.19974
0.199893
0.200099
0.200357
0.200664
0.201003
0.201347
0.201654
0.201881
0.202037
0.202318
0.203422
0.207105
0.216729
0.236874
0.271394
0.321304
0.384602
0.457766
0.537113
0.619321
0.701331
0.779914
0.850958
0.199946
0.199845
0.199758
0.199691
0.19965
0.199641
0.199668
0.199734
0.199843
0.199997
0.200199
0.20045
0.200751
0.201098
0.201478
0.201871
0.202242
0.20255
0.202778
0.203015
0.203658
0.205805
0.211792
0.225363
0.250638
0.290081
0.343306
0.407697
0.479804
0.556208
0.633673
0.7088
0.777318
0.199947
0.199852
0.199782
0.199746
0.199751
0.199802
0.199899
0.200043
0.200231
0.200463
0.200738
0.201056
0.201415
0.201813
0.202243
0.202689
0.203125
0.203518
0.203837
0.204105
0.204508
0.205638
0.208909
0.216944
0.233392
0.261617
0.30302
0.356515
0.419365
0.488264
0.559844
0.630526
0.695842
0.199949
0.199872
0.199844
0.199878
0.199979
0.200145
0.200369
0.200641
0.200955
0.201304
0.201684
0.202092
0.202526
0.202987
0.203469
0.203965
0.204459
0.204925
0.205336
0.205679
0.206014
0.2066
0.208142
0.212153
0.221203
0.238557
0.266945
0.307238
0.35819
0.417154
0.48086
0.545607
0.606718
0.199957
0.199932
0.200011
0.200204
0.200503
0.200885
0.201328
0.201808
0.20231
0.202822
0.20334
0.20386
0.204382
0.204908
0.205438
0.205972
0.206502
0.207016
0.207493
0.207914
0.208279
0.208665
0.209341
0.210975
0.214924
0.223411
0.239221
0.264729
0.300798
0.346424
0.399151
0.455499
0.510694
0.199984
0.200114
0.200469
0.201023
0.201717
0.202489
0.203286
0.204075
0.204835
0.205556
0.206236
0.206878
0.207486
0.208066
0.208626
0.209171
0.209703
0.21022
0.210714
0.211171
0.211578
0.21194
0.212319
0.212918
0.214228
0.217233
0.223574
0.235459
0.255073
0.283655
0.320852
0.364543
0.410552
0.200087
0.200697
0.201759
0.203097
0.204537
0.205956
0.207282
0.208483
0.209554
0.210502
0.211341
0.212084
0.212748
0.213347
0.213895
0.214405
0.214887
0.215346
0.215785
0.216201
0.216588
0.216938
0.217249
0.217552
0.21795
0.218697
0.220317
0.223735
0.23035
0.241887
0.259917
0.285082
0.315859
0.200504
0.202658
0.205507
0.208445
0.211162
0.213533
0.215533
0.217189
0.21855
0.219664
0.220578
0.221332
0.221959
0.222486
0.222936
0.223328
0.223676
0.223993
0.224288
0.224567
0.224831
0.22508
0.225308
0.225511
0.225693
0.225881
0.226151
0.226674
0.227776
0.230012
0.234201
0.241402
0.252536
0.202134
0.209309
0.216893
0.223069
0.227733
0.231178
0.233697
0.235528
0.236852
0.237807
0.238493
0.238984
0.239334
0.239582
0.239754
0.239871
0.239948
0.239999
0.240032
0.240056
0.240075
0.240092
0.240106
0.240117
0.240121
0.240115
0.240095
0.240064
0.240039
0.24007
0.240257
0.240769
0.241918
0.208278
0.226746
0.244095
0.257329
0.266277
0.271731
0.274758
0.276255
0.276837
0.276887
0.276636
0.276221
0.275722
0.275183
0.274626
0.274064
0.273506
0.272959
0.272428
0.271913
0.27141
0.270916
0.27043
0.269953
0.269486
0.269028
0.268579
0.268129
0.26767
0.267193
0.266689
0.266156
0.2656
0.245812
0.310545
0.343948
0.359156
0.365828
0.368504
0.369124
0.368509
0.367103
0.365191
0.362969
0.360576
0.358112
0.355646
0.353221
0.350871
0.348618
0.346482
0.344466
0.342573
0.340799
0.33914
0.337592
0.336143
0.334785
0.333496
0.332267
0.331079
0.329922
0.328786
0.327659
0.32654
0.325417
0.214306
0.253646
0.294734
0.333804
0.370004
0.40337
0.433957
0.461808
0.487001
0.509653
0.529907
0.547921
0.563862
0.577893
0.590168
0.600834
0.610035
0.617909
0.624589
0.63019
0.634815
0.638554
0.641493
0.643714
0.645295
0.646312
0.64683
0.646909
0.646602
0.645957
0.645021
0.643838
0.642447
0.827795
0.899143
0.987545
1.10001
1.22106
1.33221
1.41243
1.44547
1.42163
1.34125
1.20863
1.03722
0.847417
0.679059
0.593272
0.644856
0.841389
1.1297
1.45531
1.79814
2.14994
2.50129
2.83957
3.14904
3.41104
3.60264
3.69753
3.67582
3.5436
3.3407
3.11723
2.90698
2.72231
2.56316
2.42555
2.30559
2.20041
2.10814
2.02752
1.95766
1.89787
1.84754
1.80614
1.77316
1.7481
1.73045
1.71971
1.71534
1.71681
1.72361
1.73521
1.75109
1.77077
1.79377
1.81962
1.84789
1.87819
1.91015
1.94342
1.9777
2.01272
2.04824
2.08406
2.11998
2.15583
2.19147
2.22675
2.26155
2.29575
2.32924
2.36197
2.39386
2.42488
2.45501
2.48422
2.5125
2.53983
2.56617
2.59153
2.61587
2.63918
2.66146
2.68274
2.70303
2.72238
2.74084
2.75845
2.77524
2.79124
2.8065
2.82104
2.83487
2.84802
2.86053
2.87243
2.88383
2.89481
2.90549
2.91593
2.92528
0.415272
0.413014
0.41793
0.430841
0.452196
0.479977
0.508322
0.528918
0.533685
0.518378
0.485722
0.450852
0.4418
0.493683
0.62949
0.8389
1.08993
1.36278
1.65187
1.95506
2.26805
2.58411
2.89312
3.18135
3.4306
3.61664
3.71072
3.6907
3.56172
3.36384
3.14697
2.94378
2.76552
2.61157
2.47791
2.36076
2.25747
2.16632
2.08619
2.01631
1.95606
1.90492
1.86241
1.82806
1.80139
1.78194
1.76922
1.76273
1.76197
1.76641
1.77556
1.78894
1.80605
1.82644
1.84968
1.87533
1.90303
1.93241
1.96313
1.99491
2.02749
2.06063
2.09412
2.12779
2.16146
2.19499
2.22823
2.26107
2.29339
2.3251
2.35611
2.38637
2.41584
2.4445
2.47232
2.49928
2.52536
2.55053
2.57477
2.59806
2.62039
2.64176
2.66219
2.68171
2.70034
2.71815
2.73516
2.75141
2.76693
2.78178
2.79596
2.80952
2.82248
2.83485
2.84671
2.85811
2.86917
2.87998
2.89061
2.90031
0.338625
0.332414
0.326778
0.321994
0.318355
0.315988
0.314968
0.315883
0.320846
0.335119
0.36833
0.433799
0.542503
0.6951
0.880659
1.08813
1.31218
1.55192
1.80652
2.07499
2.35432
2.6395
2.9228
3.19276
3.4324
3.6172
3.71701
3.70723
3.59011
3.40366
3.19687
3.00203
2.83035
2.68135
2.55122
2.43642
2.33448
2.24385
2.16356
2.09295
2.03149
1.97875
1.9343
1.89771
1.86857
1.84644
1.83086
1.82139
1.81752
1.81877
1.82465
1.83471
1.84849
1.86555
1.88547
1.90785
1.93233
1.95855
1.98619
2.01498
2.04465
2.07499
2.10578
2.13684
2.16802
2.19915
2.23011
2.26077
2.29102
2.32076
2.34992
2.37843
2.40625
2.43336
2.45972
2.48531
2.5101
2.53407
2.55718
2.57943
2.60079
2.62126
2.64087
2.65963
2.67758
2.69476
2.71121
2.72695
2.74204
2.7565
2.77038
2.78371
2.79651
2.80881
2.82065
2.83211
2.84328
2.85425
2.86508
2.87514
0.31928
0.314763
0.311202
0.309386
0.310436
0.316078
0.328918
0.352505
0.391379
0.450721
0.534881
0.645101
0.778858
0.932873
1.10377
1.28963
1.48869
1.70108
1.92689
2.16578
2.41598
2.67388
2.93399
3.18737
3.41886
3.60478
3.71465
3.72174
3.62395
3.45509
3.26221
3.07764
2.91334
2.76956
2.64299
2.53041
2.4296
2.33918
2.25834
2.18654
2.12337
2.06846
2.02146
1.98201
1.94973
1.92424
1.90512
1.89196
1.8843
1.88166
1.88359
1.88967
1.89947
1.91257
1.92858
1.94711
1.96782
1.99037
2.01446
2.0398
2.06616
2.09331
2.12105
2.14919
2.17757
2.20605
2.23449
2.26277
2.29076
2.31839
2.34556
2.37221
2.39829
2.42378
2.44862
2.4728
2.49628
2.51902
2.54101
2.56221
2.58261
2.60221
2.62102
2.63907
2.65637
2.67297
2.68889
2.70417
2.71885
2.73298
2.74659
2.75974
2.77243
2.7847
2.79658
2.80813
2.81944
2.83061
2.84165
2.85207
0.304479
0.307062
0.314096
0.327356
0.348589
0.379532
0.421944
0.477482
0.547481
0.632893
0.734196
0.850954
0.981999
1.12628
1.28249
1.45
1.62829
1.81795
2.0196
2.23337
2.45819
2.69182
2.93078
3.16855
3.39231
3.58027
3.70267
3.73134
3.65912
3.51368
3.33886
3.16702
3.01145
2.87361
2.75097
2.6408
2.54116
2.45091
2.36937
2.29615
2.23097
2.17355
2.12361
2.08087
2.04501
2.01567
1.9925
1.97513
1.96313
1.95607
1.95352
1.95508
1.96037
1.96899
1.98058
1.99478
2.01126
2.02969
2.04979
2.07129
2.09396
2.11757
2.14192
2.16684
2.19217
2.21774
2.24344
2.26914
2.29471
2.32007
2.34513
2.36981
2.39407
2.41787
2.44115
2.46388
2.48602
2.50753
2.52838
2.54855
2.56801
2.58677
2.60482
2.62218
2.63888
2.65494
2.67038
2.68524
2.69956
2.71339
2.72679
2.73979
2.75242
2.76471
2.77667
2.78835
2.79984
2.81121
2.82248
2.83328
0.308406
0.329041
0.358586
0.39709
0.444129
0.499327
0.562836
0.635306
0.717501
0.810012
0.913109
1.02677
1.15059
1.28402
1.4266
1.57813
1.73878
1.9092
2.09023
2.28227
2.48489
2.6969
2.91643
3.13919
3.35502
3.54482
3.68063
3.73379
3.692
3.57531
3.42292
3.26676
3.12175
2.99098
2.87301
2.76573
2.66758
2.57766
2.4955
2.42087
2.35361
2.29354
2.24048
2.19422
2.15449
2.12101
2.09346
2.07152
2.0548
2.04293
2.0355
2.03215
2.03251
2.03625
2.043
2.05246
2.0643
2.07823
2.09398
2.11128
2.12992
2.14968
2.17035
2.19178
2.21378
2.23622
2.25897
2.28189
2.30488
2.32783
2.35065
2.37326
2.39561
2.41764
2.43931
2.46055
2.48133
2.5016
2.52132
2.54046
2.55901
2.57694
2.59426
2.61098
2.62711
2.64267
2.65768
2.67216
2.68616
2.69974
2.71296
2.72587
2.73849
2.75083
2.7629
2.77476
2.78645
2.79806
2.80956
2.82072
0.352826
0.397512
0.449808
0.50796
0.570961
0.638589
0.711299
0.789898
0.875156
0.967673
1.06782
1.17566
1.29104
1.41375
1.54372
1.68106
1.82618
1.97987
2.143
2.31616
2.4993
2.69202
2.89366
3.10185
3.30916
3.49979
3.64856
3.72738
3.71937
3.63606
3.5105
3.3734
3.24127
3.11914
3.00692
2.90331
2.80722
2.71806
2.63559
2.55976
2.49053
2.42788
2.3717
2.32187
2.2782
2.24045
2.20836
2.18164
2.15999
2.14305
2.13048
2.12194
2.11709
2.11563
2.11724
2.12164
2.12853
2.13764
2.14871
2.16152
2.17583
2.19144
2.20817
2.22584
2.24428
2.26337
2.28296
2.30292
2.32315
2.34354
2.364
2.38443
2.40478
2.42497
2.44496
2.46467
2.48406
2.50307
2.52165
2.53978
2.55741
2.57455
2.59117
2.60728
2.62288
2.63798
2.65259
2.66673
2.68046
2.69383
2.70691
2.71975
2.73239
2.74482
2.75705
2.7691
2.78103
2.79288
2.80463
2.81614
0.434497
0.496615
0.56252
0.630967
0.701555
0.774516
0.85052
0.930408
1.01494
1.10468
1.20002
1.3011
1.40791
1.52047
1.6389
1.76354
1.89494
2.03395
2.18146
2.3381
2.50411
2.67959
2.86475
3.05877
3.25682
3.44674
3.60695
3.71094
3.73842
3.69214
3.59765
3.48332
3.36687
3.2554
3.15039
3.05154
2.95835
2.87062
2.78836
2.71174
2.64089
2.5759
2.51679
2.46353
2.41599
2.37401
2.33738
2.30587
2.2792
2.2571
2.23925
2.22536
2.21513
2.20828
2.20454
2.20364
2.20534
2.20938
2.21552
2.22356
2.23329
2.24451
2.25704
2.27071
2.28538
2.30089
2.31712
2.33395
2.35125
2.36893
2.38688
2.40501
2.42325
2.44152
2.45976
2.47788
2.49584
2.51356
2.53099
2.54809
2.56483
2.58117
2.59711
2.61264
2.62774
2.64241
2.65666
2.6705
2.68398
2.69717
2.71014
2.72295
2.73564
2.74818
2.76059
2.77287
2.78505
2.79717
2.80916
2.82101
0.532773
0.604507
0.677393
0.750836
0.824805
0.899707
0.976234
1.05518
1.13725
1.22298
1.31277
1.40684
1.50531
1.60835
1.71624
1.82946
1.94867
2.07472
2.20849
2.35064
2.50155
2.66164
2.83165
3.01193
3.2
3.38734
3.55663
3.68388
3.74685
3.74002
3.68042
3.59273
3.49518
3.39682
3.30087
3.2082
3.11904
3.03364
2.95237
2.87558
2.80363
2.73675
2.67509
2.61869
2.56754
2.52153
2.48052
2.44433
2.41274
2.3855
2.36237
2.3431
2.32742
2.31509
2.30588
2.29956
2.2959
2.29468
2.29571
2.29879
2.30372
2.31033
2.31844
2.3279
2.33857
2.3503
2.36298
2.37648
2.39069
2.40549
2.42079
2.43649
2.45251
2.46875
2.48514
2.50161
2.51807
2.53446
2.55071
2.56677
2.58259
2.59815
2.61341
2.62836
2.64297
2.65724
2.67115
2.68471
2.69797
2.711
2.72389
2.73669
2.74944
2.76213
2.77473
2.78725
2.7997
2.81209
2.82432
2.83649
0.633096
0.709929
0.786344
0.862104
0.937321
1.01242
1.08806
1.16493
1.24369
1.32487
1.40887
1.49601
1.58652
1.68071
1.779
1.88194
1.99027
2.10485
2.22653
2.35594
2.49353
2.63986
2.79599
2.96306
3.14053
3.32337
3.49878
3.64619
3.74296
3.77656
3.75495
3.69772
3.62258
3.54019
3.45555
3.37082
3.28711
3.20523
3.12591
3.04981
2.97749
2.90935
2.84567
2.78663
2.73228
2.6826
2.63752
2.59691
2.5606
2.52841
2.50014
2.47557
2.4545
2.43671
2.42201
2.41021
2.40112
2.39455
2.39033
2.3883
2.38827
2.39009
2.3936
2.39866
2.40513
2.4129
2.42183
2.43182
2.44274
2.4545
2.46699
2.48011
2.49377
2.50786
2.52231
2.53703
2.55192
2.56691
2.58192
2.5969
2.61178
2.62652
2.6411
2.65546
2.66959
2.68346
2.69703
2.71033
2.72338
2.73627
2.74907
2.76188
2.7747
2.78753
2.80034
2.81311
2.82582
2.83849
2.85096
2.86343
0.728935
0.808475
0.886576
0.963186
1.03846
1.11278
1.18673
1.26093
1.33598
1.41242
1.49069
1.57116
1.65421
1.74025
1.8298
1.92351
2.02215
2.12658
2.2376
2.3558
2.48163
2.6157
2.75915
2.91363
3.0801
3.25659
3.43484
3.59839
3.72573
3.79912
3.81755
3.79426
3.7452
3.68198
3.61126
3.5366
3.46007
3.38315
3.30702
3.23267
3.1609
3.09232
3.02735
2.9663
2.90932
2.85649
2.80779
2.76316
2.7225
2.68567
2.65251
2.62287
2.59657
2.57344
2.55335
2.53612
2.5216
2.50966
2.50014
2.49291
2.48781
2.48471
2.48347
2.48397
2.48608
2.48969
2.4947
2.50099
2.50845
2.51699
2.5265
2.53688
2.54802
2.55982
2.5722
2.58504
2.59826
2.61176
2.62547
2.63929
2.65318
2.66707
2.68091
2.69467
2.7083
2.72174
2.73498
2.74801
2.76085
2.77359
2.78631
2.79911
2.812
2.82497
2.83798
2.85099
2.86398
2.87691
2.88962
2.90235
0.81776
0.898654
0.977367
1.05395
1.12854
1.20149
1.27329
1.34451
1.41573
1.48746
1.5602
1.63442
1.71056
1.78916
1.87083
1.95628
2.04632
2.14178
2.24341
2.35175
2.46721
2.59034
2.72227
2.86487
3.02016
3.18868
3.36643
3.54153
3.69486
3.80572
3.86489
3.87836
3.85895
3.81834
3.7645
3.70236
3.63507
3.56483
3.49337
3.42206
3.35197
3.28394
3.21859
3.15634
3.09746
3.04213
2.99041
2.94231
2.89779
2.85675
2.8191
2.78471
2.75347
2.72526
2.69995
2.67743
2.65759
2.64033
2.62554
2.6131
2.60288
2.59478
2.58869
2.58449
2.5821
2.58141
2.58232
2.58474
2.58857
2.5937
2.60005
2.6075
2.61596
2.62531
2.63545
2.64629
2.65771
2.66961
2.6819
2.69448
2.70729
2.72025
2.73332
2.74641
2.75949
2.77249
2.78536
2.79809
2.81071
2.82328
2.83591
2.84867
2.86161
2.8747
2.88789
2.90113
2.91437
2.92755
2.94049
2.95345
0.898547
0.979997
1.05867
1.13467
1.20814
1.27936
1.34879
1.41693
1.48434
1.55156
1.61911
1.68754
1.7574
1.82928
1.9039
1.98201
2.06444
2.152
2.24537
2.34505
2.45137
2.56478
2.68628
2.81777
2.96193
3.12119
3.29525
3.47702
3.65077
3.79512
3.89415
3.94622
3.95967
3.94514
3.91139
3.86455
3.80885
3.74731
3.68225
3.61548
3.54841
3.48213
3.41746
3.35497
3.29509
3.23806
3.18406
3.13317
3.0854
3.04072
2.99908
2.96041
2.92464
2.89168
2.86147
2.83391
2.80895
2.78652
2.76656
2.74896
2.73365
2.72053
2.70954
2.70058
2.69357
2.68845
2.68512
2.68351
2.68353
2.68508
2.68808
2.69242
2.698
2.70472
2.71247
2.72113
2.73059
2.74075
2.75149
2.76272
2.77434
2.78628
2.79847
2.81082
2.82328
2.83577
2.84823
2.86063
2.87298
2.88535
2.89784
2.91053
2.92348
2.93665
2.94999
2.96343
2.9769
2.99031
3.00345
3.01661
0.970723
1.05227
1.13052
1.20563
1.27773
1.34708
1.41408
1.47921
1.543
1.60601
1.66881
1.732
1.79621
1.86213
1.93051
2.00215
2.0779
2.15853
2.24467
2.33674
2.435
2.53976
2.65186
2.77306
2.90633
3.05542
3.22301
3.40658
3.59457
3.76694
3.90322
3.99437
4.04319
4.05807
4.04774
4.01921
3.97773
3.92717
3.87049
3.81
3.7475
3.68435
3.6216
3.56001
3.50014
3.44237
3.38697
3.33409
3.28382
3.23619
3.19119
3.14882
3.10903
3.07179
3.03708
3.00485
2.97507
2.94773
2.92278
2.90018
2.87987
2.86179
2.84591
2.83216
2.82049
2.81084
2.80316
2.79738
2.79343
2.79123
2.7907
2.79175
2.79427
2.79816
2.80332
2.80962
2.81695
2.82519
2.83424
2.84396
2.85427
2.86506
2.87625
2.88776
2.8995
2.9114
2.92337
2.93536
2.94739
2.9595
2.9718
2.98437
2.99726
3.01046
3.0239
3.03749
3.05115
3.06477
3.07808
3.0914
1.03389
1.11527
1.19291
1.26699
1.33765
1.40513
1.4698
1.53211
1.59259
1.65181
1.71038
1.76895
1.82821
1.88891
1.95185
2.01786
2.08778
2.16237
2.24218
2.32758
2.41873
2.51581
2.61945
2.73119
2.85401
2.9924
3.15122
3.33204
3.52791
3.72165
3.89083
4.01993
4.10559
4.15271
4.16905
4.16201
4.13761
4.10055
4.05449
4.00225
3.94605
3.88759
3.82818
3.76878
3.71011
3.65268
3.59688
3.54295
3.49105
3.44128
3.39367
3.34828
3.3051
3.26416
3.22547
3.18903
3.15485
3.12293
3.0933
3.06594
3.04082
3.01792
2.99724
2.97874
2.9624
2.9482
2.9361
2.92606
2.91802
2.91192
2.90769
2.90526
2.90453
2.9054
2.90776
2.91151
2.91651
2.92266
2.92982
2.93787
2.9467
2.95618
2.96624
2.97677
2.98768
2.99887
3.01025
3.02175
3.03337
3.04515
3.05718
3.06954
3.08231
3.09546
3.10893
3.12262
3.13642
3.15018
3.16363
3.17706
1.08776
1.16885
1.24582
1.31887
1.38814
1.45388
1.51643
1.57623
1.63381
1.68974
1.74466
1.79926
1.85428
1.91051
1.96879
2.02997
2.09487
2.1642
2.2385
2.31805
2.40292
2.49317
2.58921
2.69232
2.80525
2.93278
3.08117
3.25526
3.45282
3.66059
3.85668
4.02081
4.14337
4.22477
4.27071
4.28829
4.28397
4.26315
4.23014
4.18832
4.14038
4.08836
4.03387
3.97809
3.92194
3.86608
3.81103
3.75712
3.70458
3.65358
3.60423
3.55661
3.5108
3.46684
3.4248
3.38471
3.34663
3.31061
3.27669
3.2449
3.21525
3.18777
3.16246
3.13934
3.11842
3.09969
3.08316
3.06881
3.05659
3.04648
3.03842
3.03235
3.02819
3.02585
3.02523
3.02621
3.02869
3.03253
3.03761
3.0438
3.05096
3.05897
3.06773
3.07712
3.08705
3.09739
3.10805
3.11894
3.13005
3.1414
3.15306
3.16513
3.17767
3.19068
3.20409
3.21779
3.23166
3.24552
3.25906
3.27254
1.13214
1.21288
1.28922
1.36134
1.42939
1.4936
1.55433
1.612
1.66713
1.72031
1.7722
1.82351
1.875
1.92751
1.98188
2.03897
2.09958
2.1644
2.23389
2.3083
2.38762
2.47179
2.56102
2.65627
2.76
2.87684
3.01375
3.17791
3.37146
3.58578
3.80148
3.99588
4.15371
4.27023
4.34809
4.39318
4.41195
4.41022
4.39287
4.36385
4.32628
4.28263
4.2348
4.18424
4.13207
4.07914
4.0261
3.97338
3.92131
3.87012
3.81999
3.77107
3.72347
3.67729
3.63263
3.58957
3.54821
3.50864
3.47093
3.43516
3.40138
3.36963
3.33997
3.31245
3.28709
3.26396
3.24306
3.2244
3.20799
3.1938
3.18182
3.17199
3.16425
3.15853
3.15473
3.15276
3.1525
3.15384
3.15664
3.16076
3.16605
3.1724
3.17966
3.18774
3.19651
3.20585
3.21563
3.22578
3.23625
3.24704
3.25823
3.26989
3.28209
3.29485
3.30809
3.32171
3.33556
3.34943
3.363
3.37648
1.16687
1.24728
1.32307
1.39443
1.46148
1.52446
1.58372
1.63969
1.69287
1.74387
1.79334
1.84202
1.89069
1.94018
1.99135
2.04504
2.10203
2.16297
2.22829
2.29817
2.37257
2.45131
2.53442
2.62257
2.71781
2.82441
2.94939
3.10135
3.286
3.49971
3.72693
3.94512
4.13472
4.28571
4.39679
4.47178
4.51643
4.53664
4.53767
4.52394
4.49905
4.46584
4.42657
4.38296
4.33639
4.28789
4.23823
4.18798
4.13757
4.08733
4.0375
3.98829
3.93985
3.89235
3.84592
3.80068
3.75677
3.71431
3.67342
3.63421
3.59677
3.5612
3.52756
3.49594
3.46642
3.43907
3.41395
3.3911
3.37053
3.35228
3.33633
3.32267
3.31124
3.30201
3.29488
3.28978
3.2866
3.28523
3.28554
3.28738
3.29061
3.29508
3.30066
3.30723
3.31465
3.3228
3.33154
3.34079
3.35047
3.36057
3.37114
3.38226
3.39401
3.40638
3.41933
3.43274
3.44646
3.46026
3.47378
3.48718
1.19189
1.272
1.34737
1.41815
1.48446
1.54654
1.60471
1.65941
1.71116
1.76053
1.80819
1.85487
1.90137
1.94849
1.9971
2.04801
2.10197
2.1596
2.22129
2.28719
2.35719
2.43107
2.50868
2.59043
2.67794
2.77492
2.88805
3.02647
3.19841
3.40502
3.63556
3.86968
4.08565
4.26865
4.41294
4.51936
4.59224
4.63706
4.65916
4.66331
4.65349
4.63294
4.60425
4.56948
4.53024
4.48775
4.44295
4.39656
4.34913
4.30106
4.25269
4.20429
4.15608
4.10826
4.061
4.01447
3.96884
3.92427
3.88091
3.83892
3.79842
3.75954
3.72239
3.6871
3.65378
3.62252
3.59341
3.56655
3.54197
3.51973
3.49985
3.48235
3.46719
3.45436
3.44379
3.43542
3.42916
3.42491
3.42255
3.42192
3.42288
3.42527
3.42896
3.43381
3.43968
3.44644
3.45397
3.46213
3.47085
3.4801
3.48991
3.50036
3.5115
3.52335
3.53586
3.54893
3.5624
3.57601
3.58939
3.60263
1.20715
1.28703
1.36208
1.43248
1.49833
1.55982
1.61729
1.67116
1.72195
1.77022
1.81663
1.8619
1.9068
1.95215
1.99877
2.04744
2.0989
2.1537
2.21222
2.27458
2.34065
2.41013
2.48279
2.55877
2.63929
2.72745
2.82922
2.95358
3.11027
3.30436
3.53043
3.77187
4.00707
4.2177
4.39348
4.53167
4.63439
4.70605
4.75174
4.77629
4.78398
4.77839
4.76244
4.73849
4.7084
4.67362
4.63527
4.59422
4.55115
4.50658
4.46092
4.41453
4.36767
4.3206
4.27355
4.22671
4.18029
4.13449
4.08949
4.04548
4.00262
3.96108
3.92101
3.88256
3.84588
3.81111
3.77838
3.74779
3.71943
3.69338
3.6697
3.64842
3.62956
3.61312
3.59905
3.58733
3.57787
3.57061
3.56541
3.56214
3.56064
3.56077
3.56237
3.5653
3.56943
3.57461
3.58071
3.5876
3.59518
3.60341
3.6123
3.62191
3.63229
3.64347
3.6554
3.66798
3.68105
3.69435
3.7075
3.72049
1.21267
1.29235
1.36721
1.4374
1.50302
1.56424
1.62137
1.67482
1.72507
1.77271
1.81836
1.86273
1.90656
1.95063
1.99575
2.04265
2.09203
2.14441
2.20015
2.25935
2.32186
2.38736
2.45552
2.52632
2.60056
2.68072
2.77193
2.88247
3.02257
3.20014
3.41483
3.65494
3.90093
4.13287
4.33655
4.50529
4.63834
4.73841
4.80977
4.85707
4.88464
4.89631
4.89529
4.88421
4.86519
4.8399
4.80966
4.77551
4.73828
4.6986
4.65699
4.61386
4.56956
4.52441
4.47866
4.43257
4.38638
4.34031
4.29459
4.24943
4.20503
4.16158
4.11927
4.0783
4.03883
4.00106
3.96514
3.93121
3.89941
3.86982
3.84256
3.81768
3.79523
3.77524
3.7577
3.7426
3.72989
3.71952
3.71137
3.70533
3.70123
3.69893
3.69826
3.6991
3.70128
3.70469
3.70917
3.7146
3.72086
3.72789
3.73569
3.7443
3.75376
3.7641
3.77528
3.78721
3.79974
3.81259
3.82539
3.83805
1.2085
1.28799
1.36275
1.43288
1.49846
1.55967
1.61676
1.67013
1.72023
1.76763
1.81294
1.85683
1.90002
1.94324
1.98725
2.03276
2.08041
2.13071
2.18398
2.24032
2.29958
2.36144
2.42551
2.49162
2.56025
2.63327
2.7149
2.81241
2.93569
3.09427
3.29203
3.52271
3.7705
4.01578
4.24178
4.43804
4.60045
4.72943
4.8279
4.89986
4.94947
4.98061
4.99667
5.00054
4.99454
4.98057
4.96018
4.93456
4.9047
4.87137
4.83518
4.79665
4.75618
4.71415
4.67089
4.62667
4.58179
4.53649
4.49104
4.44568
4.40064
4.35613
4.31239
4.26963
4.22807
4.18791
4.14936
4.11258
4.07776
4.04502
4.01449
3.98627
3.96044
3.93706
3.91615
3.89773
3.8818
3.8683
3.85716
3.84826
3.84146
3.8366
3.83353
3.83211
3.83219
3.83364
3.83632
3.8401
3.84486
3.85052
3.85706
3.8645
3.87288
3.88222
3.89249
3.90361
3.91543
3.92769
3.94003
3.95224
1.19474
1.27404
1.34871
1.41887
1.48457
1.54594
1.60323
1.65679
1.70706
1.75455
1.79985
1.8436
1.88647
1.92916
1.97238
2.01679
2.063
2.11147
2.16252
2.21624