/*--------------------------------*- C++ -*----------------------------------*\
  =========                 |
  \\      /  F ield         | OpenFOAM: The Open Source CFD Toolbox
   \\    /   O peration     | Website:  https://openfoam.org
    \\  /    A nd           | Version:  10
     \\/     M anipulation  |
\*---------------------------------------------------------------------------*/
FoamFile
{
    format      ascii;
    class       volScalarField;
    location    "100";
    object      nut;
}
// * * * * * * * * * * * * * * * * * * * * * * * * * * * * * * * * * * * * * //

dimensions      [0 2 -1 0 0 0 0];

internalField   nonuniform List<scalar> 
6820
(
5.21158e-05
7.23494e-05
8.49517e-05
9.15168e-05
9.44975e-05
9.54446e-05
9.52566e-05
9.44564e-05
9.33562e-05
9.2142e-05
9.09212e-05
8.97519e-05
8.86619e-05
8.76633e-05
8.67615e-05
8.5958e-05
8.52498e-05
8.46302e-05
8.40912e-05
8.3626e-05
8.32304e-05
8.29003e-05
8.26311e-05
8.24171e-05
8.22492e-05
8.21191e-05
8.20211e-05
8.19522e-05
8.19109e-05
8.18998e-05
8.19016e-05
8.20138e-05
8.16105e-05
0.00148773
0.000914477
0.000722299
0.000566176
0.000445345
0.000364937
0.000311668
0.000274511
0.000247777
0.000227504
0.000212133
0.000199853
0.000189944
0.000181998
0.000175517
0.000170158
0.000165718
0.000162041
0.000158977
0.000156447
0.000154304
0.000152538
0.000150982
0.000149708
0.000148521
0.00014747
0.000146464
0.000145571
0.000144727
0.00014398
0.00014328
0.000142748
0.00014209
0.00388246
0.00172619
0.00129544
0.00105727
0.000884117
0.000757528
0.000664503
0.000594453
0.000540115
0.000497083
0.000462237
0.000433418
0.00040968
0.000389044
0.000372298
0.000356964
0.00034435
0.000333326
0.000323906
0.000315815
0.000308739
0.000302719
0.000297265
0.00029277
0.000288549
0.000285085
0.000281626
0.00027889
0.000275965
0.000273852
0.000271395
0.000270018
0.000268239
0.0070149
0.00309317
0.00211875
0.00169424
0.00142895
0.0012427
0.0011047
0.000999504
0.000916217
0.000849485
0.000794659
0.000748923
0.000710735
0.000677864
0.000650022
0.000625899
0.000604952
0.000586934
0.000571124
0.000557555
0.000545437
0.00053427
0.000524957
0.000517176
0.000510256
0.000504343
0.000498789
0.000494169
0.000489535
0.000485981
0.000482405
0.000480259
0.000478333
0.00947862
0.0053943
0.00361895
0.00279714
0.00231444
0.00199325
0.00176267
0.00159007
0.00145512
0.0013476
0.00125983
0.00118704
0.0011262
0.00107456
0.00103055
0.000992884
0.000960375
0.000932406
0.000908259
0.000887337
0.00086943
0.000853755
0.000840011
0.000828045
0.000817889
0.000806618
0.000798895
0.000791301
0.000785415
0.000781031
0.000777694
0.000777331
0.000778912
0.0106282
0.00776301
0.00561756
0.00440018
0.00363657
0.00311781
0.00274372
0.00246338
0.00224521
0.00207166
0.00193057
0.00181406
0.00171683
0.0016348
0.0015651
0.00150565
0.00145474
0.00141108
0.00137368
0.00134154
0.00131399
0.00129034
0.00126979
0.0012518
0.00123638
0.00122203
0.00121032
0.00119997
0.00119425
0.00118805
0.00119358
0.00120748
0.00123471
0.0110844
0.00948018
0.00757871
0.00621534
0.00525177
0.00455217
0.00402745
0.00362367
0.00330457
0.00304766
0.00283727
0.00266266
0.00251629
0.00239257
0.00228733
0.0021975
0.00212066
0.00205479
0.0019984
0.00195
0.00190839
0.00187248
0.00184121
0.00181371
0.00178982
0.00176922
0.00175388
0.00174571
0.00175057
0.00177252
0.00182227
0.00190419
0.00202507
0.0112619
0.0104718
0.00911462
0.00788343
0.00688745
0.00609932
0.00547303
0.0049705
0.00456151
0.00422466
0.00394403
0.00370804
0.00350807
0.00333765
0.00319178
0.00306659
0.00295903
0.00286651
0.0027869
0.0027182
0.00265861
0.00260654
0.0025607
0.00252054
0.00248717
0.0024638
0.00245787
0.0024802
0.00254577
0.00266672
0.0028514
0.00309238
0.00337964
0.0113318
0.0109608
0.0101477
0.00919388
0.00831398
0.00755004
0.00690122
0.00635392
0.00589146
0.00549916
0.00516464
0.00487801
0.0046314
0.00441859
0.00423455
0.00407524
0.00393729
0.00381773
0.00371392
0.00362334
0.00354367
0.0034731
0.00341107
0.0033597
0.00332614
0.00332467
0.00337759
0.00350993
0.00373965
0.00406533
0.0044662
0.00490484
0.00534617
0.0113604
0.0111905
0.0107569
0.0101059
0.00942018
0.00876526
0.00816819
0.00763635
0.00716753
0.00675617
0.00639572
0.00607992
0.00580318
0.00556067
0.00534826
0.00516232
0.00499963
0.0048571
0.00473177
0.00462074
0.00452162
0.00443362
0.00435997
0.00431184
0.00431294
0.00439989
0.00461235
0.00497141
0.00546342
0.00604369
0.00665439
0.00724013
0.00775572
0.0113724
0.0112956
0.0110826
0.0106828
0.0102005
0.00969331
0.009196
0.00872702
0.00829447
0.00790078
0.00754534
0.00722615
0.00694064
0.0066861
0.00645984
0.00625916
0.00608131
0.00592336
0.00578225
0.00565512
0.0055407
0.00544236
0.00537406
0.00536796
0.00547707
0.00576011
0.00624703
0.00691195
0.00768128
0.00847191
0.00921077
0.0098432
0.010339
0.0113776
0.0113428
0.011242
0.0110215
0.0107091
0.0103486
0.00996842
0.0095883
0.00922077
0.00887311
0.00854908
0.0082503
0.00797707
0.00772888
0.00750465
0.00730279
0.00712119
0.00695721
0.00680799
0.00667161
0.0065504
0.00645799
0.00643054
0.00653481
0.00685368
0.00743812
0.00825975
0.00922021
0.0101903
0.0110816
0.0118415
0.0124432
0.0128732
0.01138
0.0113638
0.0113168
0.0112056
0.011018
0.0107806
0.010511
0.0102252
0.00993505
0.00964944
0.00937428
0.00911343
0.00886926
0.00864301
0.00843498
0.00824456
0.00807022
0.0079097
0.00776079
0.00762404
0.00750959
0.00745047
0.00751817
0.0078185
0.00843894
0.00937357
0.0105002
0.0116637
0.012737
0.0136486
0.0143713
0.014903
0.0152489
0.0113814
0.0113729
0.0113511
0.0112984
0.0111941
0.0110481
0.0108696
0.0106687
0.0104546
0.0102351
0.0100163
0.00980282
0.00959814
0.00940448
0.00922303
0.00905382
0.00889572
0.00874688
0.0086064
0.00847951
0.00838998
0.00840062
0.00862636
0.00919764
0.0101615
0.0114141
0.0127706
0.0140569
0.0151638
0.0160472
0.0167053
0.017155
0.0174174
0.0113823
0.011377
0.0113665
0.0113417
0.0112891
0.0112045
0.0110935
0.010961
0.0108126
0.0106541
0.0104906
0.0103264
0.010165
0.010009
0.00985989
0.00971785
0.00958197
0.00945085
0.00932574
0.0092193
0.00917515
0.00929408
0.00973145
0.01061
0.0118984
0.013414
0.0149306
0.0162803
0.0173811
0.0182166
0.018805
0.0191779
0.0193675
0.0113825
0.0113795
0.0113734
0.0113616
0.0113367
0.0112909
0.0112259
0.0111436
0.0110469
0.0109392
0.0108242
0.0107054
0.0105857
0.0104674
0.0103518
0.010239
0.0101281
0.0100182
0.00991364
0.00983702
0.0098569
0.0101148
0.0107912
0.0119709
0.0135453
0.015266
0.0168906
0.0182702
0.0193507
0.0201379
0.0206657
0.0209757
0.0211077
0.0113825
0.0113807
0.011377
0.0113706
0.0113588
0.0113363
0.0113004
0.0112522
0.0111928
0.0111239
0.011048
0.0109672
0.0108839
0.0107996
0.0107153
0.0106307
0.0105447
0.0104571
0.0103758
0.0103354
0.0104315
0.0108426
0.0117553
0.0132099
0.0150232
0.0169021
0.0186038
0.0200016
0.0210645
0.0218153
0.0222987
0.0225635
0.0226549
0.0113825
0.0113811
0.011379
0.011375
0.0113689
0.0113584
0.0113401
0.0113136
0.0112793
0.0112381
0.0111912
0.01114
0.0110859
0.01103
0.0109724
0.0109126
0.0108492
0.0107828
0.0107253
0.0107231
0.0108977
0.011456
0.0125835
0.0142728
0.0162808
0.0182861
0.0200522
0.0214715
0.0225299
0.0232623
0.0237209
0.0239595
0.0240271
0.0113824
0.0113813
0.0113798
0.0113776
0.0113738
0.0113685
0.0113601
0.0113466
0.0113283
0.0113054
0.0112787
0.0112489
0.0112167
0.0111826
0.0111464
0.0111069
0.0110625
0.0110148
0.010979
0.011012
0.0112563
0.0119414
0.0132467
0.0151251
0.0172902
0.019403
0.0212333
0.0226862
0.0237589
0.0244938
0.0249483
0.0251798
0.0252399
0.0113824
0.0113813
0.0113801
0.0113786
0.0113766
0.0113734
0.0113694
0.0113635
0.0113547
0.0113433
0.0113297
0.0113144
0.0112976
0.0112793
0.0112589
0.0112348
0.0112055
0.011173
0.0111551
0.0112157
0.0115111
0.0122923
0.0137283
0.0157487
0.0180393
0.0202496
0.0221511
0.0236546
0.0247628
0.0255223
0.0259935
0.0262363
0.0263043
0.0113824
0.0113813
0.0113802
0.011379
0.0113778
0.0113762
0.0113739
0.0113714
0.0113682
0.0113636
0.0113581
0.0113519
0.0113452
0.0113376
0.0113281
0.0113152
0.0112971
0.0112762
0.0112712
0.0113485
0.0116738
0.012509
0.0140243
0.0161384
0.018526
0.0208276
0.0228101
0.0243828
0.0255486
0.0263548
0.0268632
0.0271353
0.0272259
0.0113824
0.0113813
0.0113802
0.0113792
0.0113783
0.0113774
0.0113764
0.0113752
0.0113745
0.011374
0.0113731
0.0113724
0.0113718
0.0113709
0.0113686
0.0113631
0.0113528
0.01134
0.0113427
0.011426
0.0117578
0.0126014
0.0141406
0.0162982
0.0187537
0.0211398
0.0232127
0.0248727
0.0261174
0.0269918
0.0275574
0.0278762
0.0280038
0.0113824
0.0113813
0.0113802
0.0113793
0.0113785
0.0113779
0.0113775
0.0113773
0.0113775
0.0113787
0.0113806
0.0113829
0.0113857
0.0113887
0.0113907
0.0113899
0.0113847
0.0113769
0.0113826
0.0114631
0.0117783
0.0125867
0.0140919
0.0162395
0.0187289
0.0211882
0.0233571
0.02512
0.0264633
0.0274265
0.0280687
0.0284512
0.0286297
0.0113824
0.0113813
0.0113802
0.0113793
0.0113786
0.0113781
0.011378
0.0113784
0.0113789
0.0113808
0.0113839
0.0113877
0.0113922
0.0113972
0.0114014
0.0114031
0.0114008
0.0113958
0.0114012
0.0114716
0.0117512
0.0124863
0.0139003
0.0159801
0.0184611
0.0209736
0.0232374
0.0251139
0.0265728
0.0276437
0.028381
0.028844
0.0290873
0.0113824
0.0113813
0.0113803
0.0113794
0.0113787
0.0113783
0.0113782
0.0113788
0.0113796
0.0113816
0.0113851
0.0113894
0.0113944
0.0113999
0.0114048
0.0114075
0.0114065
0.0114023
0.0114054
0.0114605
0.0116912
0.0123233
0.0135938
0.0155436
0.0179628
0.0204959
0.0228429
0.0248367
0.0264237
0.0276189
0.0284687
0.0290285
0.0293504
0.0113824
0.0113813
0.0113803
0.0113794
0.0113787
0.0113784
0.0113784
0.0113789
0.0113797
0.0113817
0.011385
0.0113888
0.0113933
0.0113982
0.0114025
0.0114047
0.0114033
0.0113984
0.0113977
0.0114351
0.0116103
0.01212
0.0132034
0.0149594
0.0172512
0.0197559
0.02216
0.024264
0.0259849
0.0273171
0.028295
0.0289671
0.0293814
0.0113824
0.0113813
0.0113803
0.0113795
0.0113788
0.0113784
0.0113784
0.0113786
0.0113793
0.0113809
0.011383
0.0113854
0.0113883
0.0113911
0.0113932
0.0113931
0.0113893
0.0113816
0.0113753
0.0113947
0.0115137
0.0118935
0.0127599
0.0142621
0.0163499
0.0187581
0.0211736
0.0233654
0.0252154
0.0266911
0.0278093
0.028608
0.0291282
0.0113824
0.0113813
0.0113804
0.0113795
0.0113789
0.0113784
0.011378
0.0113776
0.0113776
0.0113776
0.0113772
0.0113767
0.0113758
0.0113744
0.0113717
0.0113666
0.0113577
0.0113443
0.0113297
0.0113305
0.0113979
0.0116518
0.0122885
0.0134895
0.0152915
0.0175149
0.0198712
0.022107
0.0240656
0.0256811
0.026946
0.0278827
0.0285212
0.0113825
0.0113814
0.0113804
0.0113796
0.0113787
0.0113776
0.0113763
0.0113748
0.011372
0.011368
0.0113627
0.0113561
0.0113481
0.0113386
0.011327
0.0113126
0.0112942
0.011271
0.0112445
0.0112249
0.0112452
0.0113876
0.011803
0.0126772
0.0141188
0.0160527
0.0182509
0.0204572
0.0224805
0.0242154
0.0256233
0.0267037
0.0274705
0.0113825
0.0113814
0.0113804
0.0113793
0.0113775
0.0113753
0.0113718
0.0113652
0.0113558
0.0113435
0.0113281
0.0113098
0.0112886
0.0112645
0.0112376
0.0112072
0.0111729
0.0111337
0.0110903
0.0110479
0.0110256
0.0110738
0.0112965
0.0118501
0.0128818
0.0144205
0.0163343
0.0184007
0.0204101
0.0222177
0.0237464
0.0249654
0.0258647
0.0113825
0.0113815
0.0113801
0.0113776
0.0113744
0.0113678
0.0113554
0.0113376
0.0113139
0.0112845
0.0112496
0.0112097
0.0111653
0.011117
0.011065
0.0110096
0.0109505
0.0108874
0.0108203
0.0107514
0.0106903
0.0106638
0.0107332
0.0110081
0.0116282
0.012694
0.0141871
0.015965
0.017835
0.0196265
0.0212225
0.0225537
0.0235774
0.0113826
0.011381
0.0113781
0.0113733
0.0113623
0.0113402
0.0113077
0.0112645
0.0112113
0.011149
0.0110789
0.0110024
0.0109205
0.0108346
0.0107456
0.010654
0.0105603
0.0104643
0.0103662
0.0102666
0.0101695
0.0100865
0.0100471
0.0101122
0.0103811
0.0109658
0.0119358
0.0132605
0.0148174
0.0164467
0.0180045
0.0193819
0.0204954
0.0113824
0.0113789
0.0113725
0.011355
0.0113159
0.0112564
0.011178
0.0110829
0.0109741
0.0108546
0.0107274
0.0105947
0.0104587
0.0103211
0.0101832
0.0100457
0.00990938
0.00977432
0.00964054
0.00950813
0.00937809
0.00925433
0.0091477
0.00908326
0.00910973
0.00930387
0.00975431
0.0105137
0.0115681
0.0128303
0.0141736
0.0154677
0.0165893
0.0113811
0.0113728
0.0113461
0.0112784
0.0111666
0.0110214
0.0108505
0.0106619
0.0104622
0.010257
0.0100502
0.00984479
0.0096429
0.0094459
0.00925466
0.00906965
0.00889102
0.00871868
0.00855234
0.00839163
0.00823635
0.00808704
0.00794628
0.00782114
0.00772735
0.00769497
0.00777203
0.00801915
0.00848953
0.00919538
0.0100892
0.0110813
0.012045
0.011378
0.0113398
0.011225
0.0110071
0.0107306
0.0104209
0.0100973
0.00977282
0.00945561
0.0091503
0.00885933
0.00858369
0.00832349
0.00807832
0.00784746
0.00763007
0.00742518
0.00723186
0.00704913
0.00687611
0.00671193
0.00655597
0.00640805
0.006269
0.00614173
0.00603287
0.00595518
0.00593003
0.00598813
0.00616444
0.00648638
0.00695606
0.00752658
0.0113585
0.0111681
0.0107301
0.0101818
0.00961865
0.00908102
0.00858459
0.00813276
0.00772344
0.0073531
0.00701774
0.00671335
0.00643627
0.00618323
0.0059513
0.00573802
0.00554113
0.00535884
0.00518943
0.00503156
0.00488399
0.00474568
0.00461585
0.00449382
0.00437953
0.00427329
0.00417676
0.00409305
0.00402795
0.00399015
0.00399183
0.00404714
0.00416719
0.0112032
0.0102871
0.009149
0.00815639
0.00734477
0.00668328
0.00613712
0.00567869
0.00528818
0.00495179
0.00465933
0.00440279
0.00417601
0.00397412
0.00379306
0.00362986
0.00348164
0.00334661
0.00322267
0.00310869
0.0030033
0.00290552
0.00281475
0.00272994
0.00265111
0.00257727
0.00250885
0.00244528
0.00238733
0.00233545
0.00229093
0.00225585
0.00223266
0.00988252
0.00703179
0.00556256
0.00466924
0.00407805
0.00363395
0.00327816
0.00298491
0.00274076
0.00253525
0.00236077
0.00221111
0.00208156
0.00196845
0.00186864
0.00178021
0.00170071
0.00162946
0.00156443
0.00150549
0.00145126
0.00140135
0.00135553
0.00131263
0.00127359
0.0012366
0.00120318
0.0011715
0.00114295
0.00111625
0.00109227
0.00107045
0.00105134
0.00388415
0.00236635
0.00191103
0.00162327
0.00144196
0.00128146
0.00114569
0.00103533
0.000945805
0.000872394
0.000811561
0.000760444
0.000716967
0.000679644
0.000647063
0.000618691
0.00059327
0.000570979
0.000550578
0.000532581
0.000516003
0.000501065
0.000487571
0.000474926
0.000463921
0.000453281
0.0004442
0.000435535
0.000427921
0.000421179
0.000414901
0.000409702
0.000404994
0.000128163
0.000139431
0.0001503
0.000159952
0.000168402
0.000175832
0.000182377
0.000188139
0.000193203
0.000197646
0.000201536
0.000204934
0.000207895
0.000210468
0.000212693
0.000214609
0.000216248
0.000217643
0.00021882
0.000219802
0.000220611
0.000221264
0.000221777
0.000222165
0.000222443
0.000222623
0.000222717
0.000222735
0.000222686
0.000222579
0.00022242
0.000222219
0.000221981
8.87961e-05
0.000102045
0.000120849
0.000145433
0.00017415
0.000205271
0.000235879
0.000262964
0.00028315
0.000296264
0.000299443
0.000300641
0.000302248
0.000321682
0.000417851
0.000633888
0.00106672
0.00171156
0.00245788
0.00326026
0.00406879
0.00484811
0.00557435
0.0062395
0.00684204
0.00740683
0.00802697
0.00892302
0.0102063
0.0118899
0.0138535
0.0158728
0.0177099
0.0192046
0.0203081
0.0210522
0.021507
0.0217468
0.0218393
0.0218357
0.0217742
0.0216815
0.0215799
0.0214823
0.0213978
0.0213318
0.0212873
0.0212598
0.0212461
0.0212442
0.0212657
0.021306
0.0213612
0.0214278
0.0215026
0.0215834
0.0216678
0.0217538
0.0218395
0.0219236
0.0220053
0.0220841
0.0221592
0.0222303
0.0222966
0.0223581
0.0224145
0.0224661
0.0225126
0.0225538
0.0225894
0.022619
0.0226421
0.0226585
0.0226681
0.022671
0.0226677
0.0226588
0.0226452
0.0226274
0.0226058
0.0225802
0.0225503
0.0225156
0.0224764
0.0224333
0.0223875
0.0223402
0.0222924
0.0222442
0.0221954
0.022146
0.0220957
0.0220445
0.0219924
0.0219395
0.0218865
0.0218349
0.0217861
0.0217431
0.000142586
0.000145227
0.000149859
0.000156655
0.000165452
0.000176855
0.000190484
0.000205923
0.000223293
0.000243869
0.000268059
0.00030444
0.000373164
0.000520953
0.000814524
0.00128188
0.00188326
0.00255704
0.00327488
0.00402232
0.00475263
0.00545229
0.00609639
0.00669423
0.00724723
0.0077794
0.00839037
0.00933965
0.0107371
0.0125893
0.0147453
0.0169356
0.0188903
0.0204401
0.0215487
0.0222653
0.0226732
0.0228574
0.0228936
0.0228354
0.0227218
0.0225794
0.0224329
0.022293
0.022168
0.0220636
0.0219826
0.0219196
0.0218721
0.021838
0.02183
0.0218426
0.0218719
0.0219145
0.0219676
0.0220284
0.0220948
0.0221647
0.0222358
0.022307
0.0223778
0.0224472
0.0225147
0.0225796
0.0226413
0.0226993
0.0227536
0.0228042
0.0228509
0.0228934
0.0229313
0.022964
0.022991
0.0230119
0.0230265
0.0230348
0.0230372
0.0230345
0.0230274
0.0230164
0.0230018
0.0229834
0.0229606
0.022933
0.0229008
0.0228645
0.0228256
0.0227852
0.0227442
0.0227029
0.0226612
0.0226185
0.0225748
0.0225301
0.0224843
0.0224377
0.022391
0.0223458
0.0223036
0.022268
0.000267889
0.000269568
0.000272004
0.000275061
0.000278673
0.000283696
0.000291611
0.00030533
0.000329553
0.000374026
0.000454422
0.000598994
0.000837313
0.0011917
0.00165719
0.002203
0.00279945
0.00344168
0.00410776
0.00479216
0.00543565
0.00604555
0.00661438
0.00714489
0.00765644
0.00815991
0.0087575
0.00973647
0.0112244
0.0132176
0.0155416
0.0178861
0.0199518
0.0215605
0.0226862
0.0233897
0.023766
0.0239094
0.0239033
0.0238011
0.0236435
0.0234577
0.0232682
0.0230863
0.0229206
0.0227766
0.0226574
0.0225583
0.0224762
0.022409
0.0223693
0.022352
0.0223533
0.02237
0.0223992
0.0224381
0.0224849
0.0225371
0.0225929
0.0226508
0.0227101
0.02277
0.0228296
0.0228882
0.0229452
0.0229999
0.0230523
0.0231023
0.0231498
0.0231942
0.023235
0.0232716
0.0233034
0.0233297
0.0233503
0.0233652
0.0233747
0.0233793
0.0233797
0.0233767
0.0233703
0.0233602
0.0233458
0.0233265
0.0233023
0.0232741
0.023243
0.0232104
0.0231773
0.0231438
0.0231098
0.0230747
0.0230384
0.0230009
0.0229621
0.0229224
0.0228826
0.0228442
0.022809
0.0227813
0.000478096
0.00048103
0.000486728
0.000496571
0.000511505
0.00053553
0.00057473
0.000637464
0.000735303
0.000881892
0.00109282
0.00138293
0.00174721
0.00218105
0.00266637
0.00320446
0.00376401
0.00435263
0.00495994
0.0055473
0.00611257
0.00664388
0.0071388
0.00760321
0.00806396
0.00855074
0.00913346
0.0101146
0.0116677
0.0137701
0.0162246
0.0186938
0.0208614
0.0225357
0.023699
0.0244122
0.0247785
0.0248988
0.0248615
0.024724
0.0245289
0.0243057
0.024077
0.0238557
0.0236506
0.0234675
0.0233098
0.0231747
0.0230581
0.0229577
0.0228847
0.0228359
0.0228076
0.0227967
0.0228003
0.0228162
0.0228421
0.0228756
0.0229147
0.0229578
0.0230046
0.0230542
0.0231055
0.0231578
0.02321
0.0232615
0.0233119
0.0233614
0.0234098
0.0234564
0.0235007
0.0235418
0.023579
0.0236116
0.0236392
0.0236616
0.0236791
0.0236921
0.0237014
0.0237074
0.0237103
0.0237097
0.0237049
0.023695
0.0236802
0.023661
0.0236388
0.023615
0.0235907
0.023566
0.0235406
0.023514
0.0234859
0.0234562
0.0234252
0.023393
0.0233607
0.0233297
0.023302
0.0232822
0.000786375
0.00080428
0.00083583
0.00088577
0.000955722
0.00105263
0.00118287
0.00135259
0.00157131
0.00182198
0.00211335
0.00246643
0.0028571
0.00331163
0.00377346
0.00426952
0.00476524
0.00528199
0.00580458
0.00631372
0.00679915
0.00725291
0.00767501
0.00807474
0.00847873
0.00894912
0.0095174
0.0104797
0.0120691
0.0142434
0.0167762
0.0193486
0.0216155
0.0233691
0.0245846
0.025325
0.0256987
0.0258135
0.0257583
0.025596
0.0253716
0.0251167
0.0248535
0.0245961
0.024354
0.0241333
0.0239375
0.0237668
0.0236166
0.0234845
0.0233772
0.0232958
0.0232367
0.023197
0.0231739
0.0231653
0.023169
0.0231825
0.0232035
0.0232309
0.0232643
0.0233028
0.0233448
0.0233896
0.0234362
0.0234839
0.0235323
0.0235813
0.0236307
0.0236797
0.0237276
0.0237735
0.0238166
0.0238561
0.0238914
0.0239223
0.0239487
0.0239712
0.0239902
0.0240064
0.0240197
0.0240298
0.0240356
0.0240365
0.0240321
0.0240231
0.024011
0.0239971
0.0239824
0.0239674
0.0239516
0.0239344
0.0239153
0.0238943
0.0238716
0.0238477
0.0238234
0.0238004
0.0237806
0.0237689
0.00128597
0.0013731
0.00149432
0.00164761
0.0018254
0.00202453
0.00224481
0.00248673
0.00275363
0.00304303
0.0033583
0.00370839
0.00408243
0.00448991
0.00490975
0.00534843
0.00578731
0.00622994
0.0066699
0.00709643
0.00750062
0.00787693
0.00822722
0.00856301
0.00891184
0.00935349
0.00990887
0.010837
0.0124333
0.0146383
0.0172157
0.0198625
0.0222173
0.0240582
0.0253395
0.0261242
0.0265227
0.0266464
0.0265866
0.0264102
0.0261652
0.0258849
0.0255925
0.0253032
0.0250272
0.0247713
0.0245393
0.0243326
0.0241499
0.0239878
0.0238471
0.0237326
0.0236419
0.0235726
0.0235217
0.0234874
0.0234678
0.0234598
0.0234615
0.0234719
0.0234906
0.0235166
0.0235483
0.0235849
0.0236251
0.0236683
0.0237136
0.0237613
0.023811
0.0238621
0.0239137
0.0239646
0.024014
0.0240609
0.0241046
0.0241445
0.0241807
0.0242134
0.0242432
0.0242704
0.0242952
0.024317
0.0243347
0.0243474
0.0243546
0.0243571
0.0243561
0.024353
0.0243491
0.0243448
0.0243395
0.0243326
0.0243233
0.0243117
0.0242982
0.0242832
0.0242676
0.0242532
0.0242417
0.0242383
0.00219508
0.00242502
0.0026782
0.00294049
0.00320088
0.00345653
0.00370995
0.00396496
0.00422666
0.0044987
0.00478484
0.00509104
0.00541319
0.00575496
0.00610743
0.00647077
0.00683485
0.00719733
0.00755352
0.00789646
0.00821952
0.0085192
0.00879876
0.00907104
0.0093637
0.00976147
0.0103095
0.0111925
0.0127668
0.014961
0.0175599
0.0202546
0.0226823
0.0246066
0.025963
0.0268067
0.0272459
0.0273928
0.0273412
0.0271615
0.0269045
0.0266058
0.0262898
0.0259732
0.0256672
0.0253791
0.0251133
0.0248722
0.0246573
0.0244651
0.0242942
0.0241464
0.0240239
0.0239244
0.0238448
0.023784
0.0237399
0.0237091
0.0236901
0.0236822
0.0236848
0.0236969
0.023717
0.023744
0.0237766
0.0238138
0.0238552
0.0239009
0.0239503
0.0240028
0.0240575
0.0241129
0.0241682
0.0242224
0.0242745
0.0243241
0.0243707
0.0244145
0.0244558
0.024495
0.0245322
0.0245668
0.0245975
0.024623
0.0246429
0.024658
0.0246692
0.024678
0.0246858
0.0246931
0.0246993
0.0247035
0.0247051
0.0247037
0.0247
0.0246945
0.0246884
0.024683
0.0246804
0.0246853
0.0037021
0.00406161
0.00439944
0.00470757
0.00498404
0.00523311
0.00546238
0.00567987
0.00589323
0.006109
0.00633213
0.00656759
0.00681489
0.00707571
0.00734606
0.00762432
0.0079044
0.00818242
0.00845405
0.00871395
0.0089572
0.00918182
0.009392
0.00960114
0.00983564
0.0101787
0.0107177
0.0115521
0.0130766
0.0152352
0.0178224
0.0205371
0.0230196
0.0250212
0.0264582
0.0273728
0.0278663
0.0280498
0.0280186
0.0278461
0.0275858
0.0272758
0.0269422
0.0266031
0.026271
0.0259541
0.0256575
0.0253842
0.0251361
0.024914
0.0247151
0.0245369
0.0243824
0.0242525
0.0241436
0.0240556
0.0239859
0.0239312
0.0238901
0.0238624
0.0238474
0.0238443
0.0238511
0.0238667
0.0238902
0.0239202
0.0239563
0.0239987
0.0240466
0.0240995
0.0241562
0.0242155
0.0242764
0.0243376
0.0243981
0.0244572
0.0245143
0.0245693
0.0246226
0.0246743
0.0247245
0.0247727
0.0248173
0.0248568
0.0248906
0.0249192
0.0249438
0.0249656
0.024986
0.0250058
0.0250244
0.0250408
0.025054
0.0250637
0.0250705
0.0250753
0.0250791
0.0250835
0.0250901
0.0251036
0.00576101
0.00616922
0.00651367
0.00679894
0.00703283
0.00722595
0.00738991
0.00753555
0.00767223
0.00780768
0.00794756
0.00809656
0.00825598
0.00842701
0.00860783
0.00879658
0.00898907
0.00918132
0.00936913
0.00954791
0.00971377
0.00986565
0.0100082
0.0101546
0.0103299
0.0106119
0.0111338
0.0119248
0.0133657
0.0154721
0.0180167
0.0207243
0.0232418
0.0253116
0.0268308
0.0278244
0.0283839
0.0286161
0.0286167
0.0284613
0.0282063
0.027892
0.0275467
0.0271903
0.0268363
0.0264941
0.0261697
0.0258669
0.025588
0.0253343
0.0251067
0.0249007
0.0247168
0.0245565
0.0244181
0.0243023
0.0242063
0.0241264
0.024062
0.024013
0.023979
0.0239589
0.0239506
0.0239531
0.0239655
0.0239865
0.0240157
0.0240531
0.0240981
0.0241499
0.0242075
0.0242696
0.024335
0.0244024
0.0244707
0.0245389
0.0246063
0.0246728
0.0247382
0.0248027
0.0248664
0.0249286
0.0249878
0.025042
0.0250903
0.0251332
0.025172
0.0252077
0.0252415
0.0252746
0.0253065
0.0253361
0.0253619
0.0253834
0.0254015
0.0254171
0.0254316
0.0254463
0.0254627
0.0254849
0.00817476
0.00855312
0.00884247
0.00905669
0.00921014
0.00931753
0.0093928
0.00944816
0.00949368
0.00953728
0.00958475
0.00964066
0.00970728
0.00978583
0.00987553
0.00997472
0.0100802
0.0101883
0.010295
0.0103959
0.0104878
0.01057
0.0106471
0.010731
0.0108479
0.0110734
0.0115551
0.01231
0.0136461
0.0156732
0.0181556
0.0208312
0.0233631
0.025489
0.027088
0.0281656
0.0287997
0.029091
0.0291337
0.0290051
0.0287636
0.0284521
0.0281012
0.0277324
0.0273609
0.0269971
0.026648
0.0263183
0.0260109
0.0257276
0.0254692
0.0252337
0.0250235
0.0248358
0.024668
0.0245242
0.024401
0.0242945
0.0242059
0.0241344
0.0240795
0.0240409
0.0240155
0.0240027
0.0240021
0.0240122
0.0240325
0.024063
0.0241032
0.0241522
0.0242089
0.0242722
0.0243407
0.024413
0.024488
0.0245645
0.0246417
0.024719
0.0247964
0.0248736
0.0249507
0.025027
0.0251013
0.0251709
0.0252342
0.0252921
0.0253459
0.0253962
0.0254442
0.0254912
0.0255371
0.0255805
0.0256198
0.025654
0.0256839
0.025711
0.0257367
0.0257622
0.0257889
0.02582
0.0107126
0.0110161
0.0112168
0.011336
0.0113925
0.011403
0.0113824
0.0113432
0.0112953
0.0112463
0.0112014
0.0111653
0.011141
0.0111299
0.0111317
0.0111451
0.0111677
0.0111959
0.011226
0.0112537
0.011276
0.0112923
0.0113063
0.0113298
0.0113909
0.0115598
0.0119811
0.0127075
0.0139294
0.0158539
0.0182522
0.0208726
0.023398
0.0255656
0.0272382
0.028401
0.029116
0.0294749
0.029569
0.0294758
0.0292558
0.0289542
0.0286036
0.0282275
0.0278428
0.0274612
0.0270905
0.0267366
0.0264031
0.0260922
0.025805
0.0255409
0.0253011
0.0250844
0.024891
0.0247212
0.0245695
0.0244354
0.024322
0.0242269
0.0241492
0.0240901
0.0240458
0.0240156
0.0239999
0.0239969
0.0240062
0.0240277
0.0240607
0.0241047
0.0241585
0.0242209
0.0242906
0.0243662
0.0244463
0.0245297
0.0246155
0.0247029
0.0247914
0.0248807
0.0249708
0.0250611
0.0251504
0.0252357
0.0253143
0.0253873
0.0254566
0.0255222
0.0255849
0.0256461
0.0257064
0.0257644
0.025818
0.0258656
0.0259079
0.025947
0.0259843
0.0260212
0.0260587
0.026099
0.013176
0.0133852
0.0134873
0.0135088
0.0134703
0.013389
0.0132794
0.0131535
0.0130205
0.0128872
0.0127579
0.0126375
0.0125298
0.0124366
0.012358
0.0122929
0.0122394
0.0121944
0.0121542
0.0121145
0.0120723
0.0120272
0.0119832
0.0119516
0.0119597
0.0120729
0.0124201
0.0131143
0.0142246
0.0160255
0.0183196
0.020863
0.0233609
0.0255538
0.0272907
0.0285365
0.0293355
0.0297684
0.0299218
0.0298721
0.0296812
0.0293962
0.029052
0.0286738
0.0282804
0.0278846
0.0274956
0.0271201
0.026763
0.0264266
0.0261123
0.0258208
0.0255527
0.0253074
0.0250849
0.0248859
0.0247074
0.024548
0.0244107
0.024291
0.0241881
0.0241069
0.0240417
0.0239923
0.0239594
0.0239411
0.023937
0.023947
0.0239705
0.024007
0.0240554
0.0241145
0.024183
0.0242596
0.0243428
0.0244313
0.024524
0.0246199
0.0247182
0.0248187
0.0249209
0.0250244
0.0251281
0.0252291
0.025323
0.0254106
0.0254956
0.0255769
0.0256547
0.0257304
0.0258052
0.0258782
0.0259468
0.0260086
0.0260638
0.0261152
0.0261646
0.0262131
0.0262619
0.0263116
0.0154648
0.0155773
0.0155848
0.0155157
0.0153907
0.0152266
0.0150374
0.0148342
0.0146258
0.0144184
0.0142168
0.0140252
0.0138466
0.013683
0.0135348
0.0134014
0.0132812
0.0131715
0.0130691
0.0129703
0.0128719
0.0127734
0.012678
0.0125967
0.0125553
0.0126141
0.0128826
0.0135294
0.0145419
0.0161925
0.0183695
0.0208156
0.0232657
0.025466
0.0272551
0.0285784
0.0294617
0.029973
0.0301919
0.030193
0.0300383
0.0297766
0.0294446
0.0290696
0.0286719
0.0282659
0.0278617
0.0274674
0.0270891
0.0267294
0.02639
0.0260723
0.0257771
0.0255042
0.0252534
0.0250258
0.0248197
0.0246335
0.0244683
0.0243227
0.0241965
0.0240913
0.0240039
0.0239339
0.0238817
0.0238459
0.023826
0.0238219
0.0238333
0.0238596
0.0238998
0.0239528
0.0240175
0.0240924
0.0241762
0.0242674
0.0243648
0.0244671
0.0245736
0.0246834
0.0247964
0.0249117
0.0250286
0.025145
0.0252537
0.0253551
0.0254554
0.0255524
0.0256457
0.0257358
0.0258249
0.0259131
0.0259972
0.0260737
0.0261422
0.0262061
0.0262678
0.0263284
0.0263888
0.0264483
0.0175499
0.0175744
0.0174985
0.0173507
0.0171512
0.0169162
0.0166588
0.0163895
0.0161164
0.0158456
0.015582
0.0153292
0.0150901
0.0148666
0.0146594
0.0144681
0.0142913
0.014127
0.0139718
0.0138225
0.013676
0.0135313
0.0133912
0.0132655
0.0131784
0.0131848
0.0133874
0.0139434
0.0148855
0.016366
0.0184081
0.0207419
0.0231251
0.0253144
0.0271412
0.0285335
0.0294986
0.0300901
0.0303794
0.0304374
0.0303255
0.0300934
0.0297795
0.029413
0.0290158
0.0286034
0.0281874
0.0277769
0.0273804
0.0269997
0.0266368
0.0262947
0.0259739
0.0256744
0.025396
0.0251405
0.0249067
0.024693
0.0245002
0.0243279
0.0241763
0.0240458
0.0239345
0.0238422
0.0237687
0.0237132
0.0236751
0.0236544
0.0236509
0.0236641
0.0236932
0.0237372
0.023795
0.0238653
0.0239467
0.0240377
0.0241371
0.0242434
0.0243556
0.0244728
0.0245945
0.0247199
0.0248477
0.0249752
0.0250974
0.0252148
0.0253301
0.0254424
0.0255516
0.0256558
0.0257584
0.0258615
0.0259614
0.0260533
0.0261351
0.0262116
0.0262857
0.0263586
0.026431
0.0265005
0.0194292
0.0193801
0.0192352
0.0190225
0.0187617
0.0184681
0.0181543
0.0178299
0.0175028
0.0171791
0.0168633
0.016559
0.0162691
0.0159954
0.0157387
0.0154988
0.0152748
0.0150646
0.0148652
0.0146734
0.014486
0.0143018
0.0141229
0.0139579
0.013829
0.0137856
0.0139206
0.0143738
0.0152446
0.016561
0.0184447
0.0206535
0.0229513
0.0251105
0.0269587
0.0284091
0.0294506
0.0301219
0.0304846
0.0306044
0.0305411
0.0303446
0.0300548
0.0297021
0.0293101
0.0288955
0.0284709
0.028047
0.0276359
0.0272367
0.0268514
0.0264866
0.0261424
0.025818
0.0255123
0.0252298
0.0249689
0.0247275
0.0245071
0.0243078
0.0241295
0.0239726
0.023836
0.0237195
0.0236229
0.0235455
0.0234869
0.0234472
0.0234261
0.0234234
0.0234384
0.0234703
0.023518
0.0235804
0.0236562
0.023744
0.0238422
0.0239496
0.0240647
0.0241867
0.0243146
0.0244477
0.0245843
0.0247215
0.0248558
0.024987
0.0251159
0.0252416
0.0253636
0.0254823
0.0256001
0.0257175
0.0258335
0.0259413
0.0260364
0.0261251
0.0262115
0.0262967
0.0263816
0.0264613
0.0211146
0.0210084
0.0208099
0.0205463
0.020237
0.0198968
0.0195376
0.0191688
0.0187978
0.0184307
0.0180719
0.0177251
0.0173932
0.0170778
0.01678
0.0165
0.0162367
0.0159883
0.015752
0.0155246
0.0153029
0.0150852
0.014873
0.0146737
0.0145069
0.0144166
0.0144857
0.0148393
0.0156095
0.0167895
0.0184891
0.0205606
0.0227551
0.0248653