/*--------------------------------*- C++ -*----------------------------------*\
  =========                 |
  \\      /  F ield         | OpenFOAM: The Open Source CFD Toolbox
   \\    /   O peration     | Website:  https://openfoam.org
    \\  /    A nd           | Version:  10
     \\/     M anipulation  |
\*---------------------------------------------------------------------------*/
FoamFile
{
    format      ascii;
    class       volScalarField;
    location    "100";
    object      p;
}
// * * * * * * * * * * * * * * * * * * * * * * * * * * * * * * * * * * * * * //

dimensions      [0 2 -2 0 0 0 0];

internalField   nonuniform List<scalar> 
6820
(
27.4025
16.5115
12.989
12.2499
11.8417
11.4941
11.2874
11.1731
11.0916
11.0164
10.9378
10.8598
10.7909
10.7269
10.6525
10.5589
10.4529
10.3481
10.2493
10.1486
10.0343
9.90143
9.7539
9.59988
9.44541
9.29096
9.13166
8.95935
8.76648
8.54747
8.29803
7.99985
7.65121
5.51455
9.19126
9.93313
10.6978
11.0554
11.1122
11.1003
11.0805
11.0459
10.9941
10.9298
10.8623
10.7988
10.7349
10.6587
10.5653
10.4623
10.3606
10.2622
10.1591
10.0415
9.90679
9.75958
9.60701
9.45349
9.29893
9.13852
8.9651
8.77303
8.55835
8.31864
8.04542
7.75187
7.66341
11.2361
11.4887
11.4821
11.481
11.3727
11.2596
11.1771
11.1042
11.0298
10.9555
10.8844
10.8161
10.7446
10.6631
10.5702
10.4717
10.3732
10.2734
10.1654
10.0434
9.90761
9.76278
9.61393
9.46336
9.31007
9.14975
8.97697
8.78851
8.58274
8.36025
8.12011
7.88446
10.1528
11.6108
11.4572
11.336
11.3442
11.2795
11.1973
11.1337
11.0739
11.011
10.9477
10.8837
10.8166
10.7438
10.6636
10.576
10.4833
10.3864
10.2834
10.1706
10.0462
9.91189
9.77102
9.62624
9.47806
9.32505
9.1642
8.99252
8.80896
8.61376
8.40906
8.19746
7.99557
10.6126
11.3089
11.2653
11.2443
11.2818
11.245
11.1812
11.1247
11.0691
11.0109
10.9509
10.8875
10.8192
10.7464
10.6686
10.5849
10.4942
10.3959
10.2893
10.174
10.0499
9.9183
9.78068
9.63805
9.49034
9.33681
9.17634
9.00809
8.83227
8.64975
8.46276
8.27455
8.09607
10.6783
11.1524
11.1954
11.2127
11.2447
11.2172
11.164
11.1123
11.0606
11.006
10.9481
10.8857
10.819
10.7486
10.6737
10.5916
10.5009
10.4013
10.2936
10.1783
10.0557
9.92599
9.78969
9.6475
9.4999
9.34731
9.19005
9.02832
8.86252
8.69335
8.52242
8.35251
8.19001
10.7941
11.1193
11.1682
11.1861
11.2082
11.1866
11.1426
11.0968
11.0493
10.998
10.9423
10.8823
10.8185
10.7506
10.677
10.5953
10.5045
10.405
10.2978
10.1834
10.0616
9.93236
9.79638
9.65482
9.50899
9.36011
9.20902
9.05603
8.9012
8.74468
8.58737
8.4312
8.27962
10.9009
11.1053
11.1445
11.1595
11.1749
11.1576
11.1212
11.0806
11.0367
10.9882
10.9352
10.8782
10.817
10.7507
10.6778
10.5965
10.5064
10.4081
10.3019
10.188
10.0665
9.93763
9.80283
9.66383
9.52244
9.38005
9.23738
9.09433
8.95049
8.80553
8.65996
8.51504
8.37282
10.9709
11.0933
11.1254
11.1382
11.1479
11.1327
11.1016
11.0649
11.0239
10.978
10.9278
10.8734
10.8141
10.749
10.6769
10.5967
10.508
10.411
10.3058
10.1927
10.072
9.94497
9.81347
9.67963
9.54529
9.41161
9.27883
9.14642
9.01361
8.87989
8.74563
8.61141
8.47838
11.0147
11.0863
11.1122
11.122
11.1266
11.1121
11.0844
11.0506
11.0119
10.9685
10.9207
10.8682
10.8106
10.7468
10.676
10.5974
10.5104
10.4149
10.3112
10.1997
10.0816
9.95865
9.83296
9.70675
9.58164
9.45833
9.33657
9.21548
9.09407
8.9717
8.84839
8.72395
8.59891
11.0424
11.0832
11.1029
11.1095
11.1099
11.0955
11.07
11.0383
11.0016
10.9603
10.9144
10.8637
10.8076
10.7455
10.6764
10.5997
10.5147
10.4215
10.3204
10.2124
10.099
9.98243
9.86487
9.74835
9.63411
9.52238
9.41244
9.30302
9.19287
9.08107
8.96724
8.85052
8.73104
11.0597
11.0821
11.0961
11.0997
11.0969
11.0823
11.0584
11.0284
10.9934
10.9539
10.9097
10.8607
10.8064
10.7461
10.6792
10.6049
10.5227
10.4328
10.3359
10.2333
10.1268
10.0187
9.91114
9.80579
9.7035
9.60394
9.50583
9.40748
9.30734
9.2043
9.09778
8.98641
8.87009
11.07
11.0818
11.0909
11.092
11.0869
11.0722
11.0495
11.0209
10.9875
10.9495
10.9071
10.8599
10.8076
10.7497
10.6854
10.6142
10.5358
10.4505
10.3594
10.264
10.1663
10.0683
9.972
9.87865
9.78859
9.70083
9.6135
9.52463
9.43256
9.33625
9.23513
9.12742
9.01312
11.0761
11.0819
11.0871
11.0861
11.0794
11.0647
11.043
11.0158
10.9839
10.9476
10.9069
10.8618
10.8119
10.7567
10.6956
10.6283
10.5548
10.4755
10.3917
10.3051
10.2175
10.1307
10.0462
9.96486
9.88638
9.80907
9.73075
9.64943
9.56366
9.47253
9.37557
9.2707
9.15823
11.0796
11.0821
11.0845
11.0819
11.074
11.0594
11.0387
11.0129
10.9825
10.948
10.9094
10.8666
10.8194
10.7674
10.7103
10.6477
10.58
10.5078
10.4325
10.3558
10.2791
10.2039
10.1311
10.0611
9.99282
9.92416
9.85301
9.77763
9.69686
9.61
9.51665
9.41454
9.30431
11.0817
11.0827
11.0829
11.079
11.0705
11.0562
11.0365
11.0121
10.9835
10.951
10.9146
10.8745
10.8304
10.7821
10.7294
10.6724
10.6113
10.547
10.4811
10.4148
10.3493
10.2855
10.2238
10.1638
10.1039
10.0422
9.97673
9.90619
9.8297
9.74677
9.65705
9.5581
9.45093
11.0834
11.0835
11.0824
11.0776
11.0688
11.0549
11.0363
11.0135
10.9867
10.9564
10.9225
10.8853
10.8447
10.8005
10.7529
10.7018
10.6479
10.5921
10.5358
10.4802
10.4258
10.3728
10.321
10.2695
10.2165
10.1603
10.0995
10.0332
9.96078
9.88186
9.79616
9.70113
9.59805
11.0852
11.0849
11.0829
11.0776
11.0687
11.0555
11.0381
11.0169
10.9922
10.9642
10.9331
10.8991
10.8623
10.8226
10.7803
10.7356
10.6891
10.6419
10.5953
10.55
10.5061
10.463
10.42
10.3757
10.3283
10.2768
10.2201
10.1578
10.0895
10.015
9.9339
9.84375
9.74592
11.0873
11.0869
11.0844
11.0789
11.0703
11.0578
11.0418
11.0224
10.9998
10.9744
10.9463
10.9157
10.8829
10.848
10.8112
10.7729
10.7339
10.6952
10.6578
10.6223
10.5881
10.5541
10.5188
10.4805
10.438
10.3906
10.3379
10.2797
10.2159
10.1462
10.0705
9.98625
9.89488
11.0901
11.0897
11.0869
11.0815
11.0734
11.0619
11.0474
11.0299
11.0096
10.9869
10.9619
10.935
10.9063
10.8763
10.8451
10.8133
10.7815
10.7508
10.7221
10.6955
10.6702
10.6443
10.6158
10.583
10.545
10.5016
10.453
10.3991
10.3401
10.2759
10.2063
10.129
10.0453
11.0937
11.0932
11.0905
11.0854
11.078
11.0677
11.0548
11.0393
11.0215
11.0016
10.9799
10.9567
10.9324
10.9072
10.8815
10.8559
10.831
10.8077
10.7868
10.7683
10.751
10.7324
10.7102
10.6826
10.6491
10.6099
10.5655
10.5164
10.4626
10.4045
10.3419
10.2726
10.1976
11.098
11.0976
11.0952
11.0906
11.0841
11.0751
11.0639
11.0506
11.0353
11.0184
11.0001
10.9807
10.9607
10.9403
10.92
10.9002
10.8817
10.8651
10.8512
10.8398
10.8296
10.8178
10.8015
10.7792
10.7504
10.7158
10.6761
10.632
10.5841
10.5326
10.4776
10.4172
10.3521
11.1033
11.1029
11.1008
11.097
11.0915
11.084
11.0747
11.0637
11.0511
11.0372
11.0223
11.0067
10.9909
10.9753
10.9601
10.9459
10.9331
10.9226
10.9147
10.9095
10.9055
10.8999
10.8896
10.8728
10.8492
10.8196
10.7851
10.7466
10.7049
10.6605
10.6138
10.5631
10.5088
11.1093
11.1089
11.1074
11.1044
11.1002
11.0944
11.0871
11.0784
11.0685
11.0577
11.0462
11.0345
11.0229
11.0117
11.0015
10.9924
10.985
10.9798
10.9772
10.9772
10.9787
10.9789
10.9745
10.9636
10.9458
10.9218
10.893
10.8606
10.8255
10.7887
10.7506
10.7104
10.6677
11.116
11.1157
11.1148
11.1129
11.1101
11.1061
11.1009
11.0946
11.0875
11.0798
11.0718
11.0638
11.0562
11.0494
11.0438
11.0395
11.037
11.0366
11.0386
11.0431
11.0493
11.0548
11.0563
11.0517
11.0402
11.0226
11.0001
10.9742
10.9462
10.9172
10.8882
10.859
10.8284
11.1233
11.1231
11.1229
11.1222
11.121
11.1189
11.1159
11.1122
11.1079
11.1032
11.0986
11.0942
11.0906
11.088
11.0867
11.087
11.0891
11.093
11.0992
11.1077
11.118
11.1282
11.1355
11.1373
11.1327
11.122
11.1065
11.0875
11.0669
11.046
11.0263
11.0083
10.9901
11.131
11.1308
11.1314
11.1323
11.1328
11.1328
11.1321
11.131
11.1295
11.1278
11.1264
11.1256
11.1257
11.1271
11.13
11.1346
11.141
11.1492
11.1593
11.1715
11.1855
11.2
11.2127
11.221
11.2235
11.2202
11.2121
11.2006
11.1875
11.1749
11.1644
11.1576
11.152
11.1386
11.1385
11.1403
11.1428
11.1453
11.1475
11.1493
11.1508
11.152
11.1533
11.1551
11.1576
11.1613
11.1665
11.1733
11.1821
11.1927
11.2051
11.2193
11.2351
11.2527
11.2711
11.2887
11.3033
11.313
11.3174
11.317
11.3132
11.3079
11.3033
11.3018
11.3058
11.3124
11.1459
11.1459
11.149
11.1537
11.1585
11.1631
11.1674
11.1714
11.1754
11.1795
11.1843
11.19
11.1971
11.2058
11.2164
11.2291
11.2439
11.2606
11.279
11.299
11.3203
11.3426
11.3648
11.3852
11.4018
11.4138
11.4213
11.4253
11.4278
11.431
11.4379
11.4519
11.4698
11.1522
11.1524
11.1574
11.1646
11.1721
11.1793
11.1862
11.1928
11.1994
11.2062
11.2138
11.2225
11.2326
11.2446
11.2588
11.2753
11.2942
11.3153
11.3382
11.3627
11.3884
11.415
11.4418
11.4676
11.4908
11.5102
11.5255
11.5374
11.5474
11.558
11.5722
11.5949
11.6225
11.1565
11.157
11.1647
11.1754
11.186
11.1962
11.2058
11.2149
11.2239
11.2332
11.2434
11.2547
11.2677
11.2827
11.3001
11.3201
11.3429
11.3682
11.3959
11.4254
11.4563
11.4879
11.5198
11.5511
11.5805
11.6071
11.63
11.6497
11.6671
11.6844
11.7049
11.7342
11.7693
11.1573
11.1587
11.1707
11.186
11.2004
11.2138
11.2262
11.2377
11.249
11.2605
11.2728
11.2864
11.3019
11.3195
11.3397
11.3629
11.3891
11.4183
11.4505
11.4852
11.5216
11.5592
11.5971
11.6344
11.6702
11.7037
11.7342
11.7616
11.7865
11.8103
11.836
11.8698
11.9094
11.1517
11.1557
11.1749
11.1965
11.2154
11.2324
11.2476
11.2614
11.2746
11.288
11.3021
11.3175
11.3349
11.3546
11.3772
11.4028
11.4318
11.4642
11.5001
11.5393
11.5811
11.6247
11.6691
11.7133
11.7562
11.7968
11.8348
11.87
11.9026
11.9333
11.9639
12.0005
12.0418
11.1334
11.1449
11.1777
11.2082
11.2323
11.2531
11.2709
11.2866
11.3012
11.3159
11.3313
11.3479
11.3666
11.3877
11.4118
11.4392
11.4701
11.5047
11.543
11.5851
11.6308
11.6793
11.7297
11.7808
11.831
11.8793
11.9248
11.9674
12.0073
12.045
12.0814
12.1206
12.1623
11.0897
11.1185
11.1756
11.2203
11.2524
11.2782
11.2986
11.3153
11.3306
11.3456
11.3613
11.3783
11.3971
11.4183
11.4428
11.4708
11.5026
11.5381
11.5774
11.6205
11.6675
11.7183
11.7721
11.8279
11.8843
11.9398
11.9929
12.0427
12.089
12.1322
12.1731
12.2147
12.2571
11.0171
11.0808
11.1667
11.2235
11.2681
11.3046
11.3307
11.3504
11.3678
11.3842
11.4006
11.418
11.4367
11.4575
11.4809
11.5078
11.5388
11.5738
11.6124
11.6545
11.7
11.749
11.8015
11.857
11.9146
11.9728
12.0303
12.0856
12.1373
12.1846
12.2274
12.2674
12.3064
10.8775
11.112
11.2416
11.2548
11.2728
11.2974
11.3139
11.3277
11.3433
11.3605
11.3789
11.3993
11.422
11.4469
11.4738
11.5031
11.5358
11.5725
11.6133
11.6577
11.705
11.7546
11.8063
11.86
11.9158
11.9733
12.0317
12.0896
12.1455
12.1979
12.2452
12.2868
12.3231
9.93158
11.1668
11.7623
11.8413
11.83
11.8
11.7562
11.7131
11.6774
11.6487
11.6261
11.6105
11.6027
11.603
11.6103
11.6225
11.6386
11.659
11.6851
11.7179
11.7568
11.7997
11.8444
11.8896
11.9349
11.981
12.0287
12.0779
12.1277
12.1761
12.2212
12.2614
12.2963
6.16808
8.38089
9.3976
10.0229
10.4461
10.7032
10.8801
11.0199
11.1308
11.2175
11.2856
11.3396
11.3846
11.4272
11.4713
11.5163
11.5586
11.5968
11.6336
11.6738
11.7206
11.7733
11.8284
11.8818
11.9313
11.9773
12.0221
12.0679
12.1154
12.1634
12.2091
12.25
12.2844
20.0293
15.9447
13.8373
13.081
12.6617
12.3156
12.0611
11.8964
11.7885
11.7155
11.6669
11.6337
11.6106
11.5998
11.6049
11.6236
11.6479
11.6705
11.6909
11.7146
11.7473
11.7901
11.8391
11.8879
11.9317
11.9694
12.0037
12.0382
12.0751
12.1146
12.1545
12.1921
12.2252
7.1279
7.6771
7.71277
7.44066
7.06818
6.52597
5.77769
4.94653
4.1323
3.36838
2.71801
2.26068
2.02556
2.00588
2.20019
2.60413
3.20369
3.97315
4.86938
5.8323
6.7964
7.69936
8.4913
9.14513
9.65951
10.0443
10.3081
10.4717
10.5788
10.6724
10.7739
10.8834
10.9902
11.0831
11.1549
11.2026
11.2262
11.2273
11.2082
11.171
11.1179
11.0506
10.9708
10.88
10.7794
10.6702
10.5534
10.4297
10.3001
10.1652
10.0256
9.88167
9.7339
9.58265
9.4282
9.27079
9.11067
8.94796
8.78283
8.61537
8.44567
8.27382
8.09983
7.92374
7.74556
7.56525
7.38281
7.19819
7.01132
6.82217
6.63072
6.43695
6.24089
6.04253
5.84192
5.63904
5.43389
5.22642
5.01657
4.80427
4.58948
4.37215
4.15236
3.93016
3.70565
3.47889
3.24998
3.01887
2.78556
2.54993
2.31207
2.07192
1.82986
1.58586
1.34058
1.0941
0.847013
0.599898
0.352697
0.103343
7.39986
7.50063
7.49667
7.32925
7.06229
6.61948
5.98301
5.27246
4.57236
3.91161
3.35405
2.97216
2.78722
2.78853
2.9782
3.3641
3.93536
4.65923
5.49156
6.38069
7.26896
8.10147
8.83308
9.43942
9.92065
10.2863
10.5387
10.6867
10.7666
10.8219
10.8798
10.9478
11.02
11.0868
11.1405
11.1766
11.1934
11.1912
11.1711
11.1345
11.083
11.018
10.9409
10.853
10.7555
10.6492
10.5351
10.4141
10.2869
10.1543
10.0167
9.8746
9.72844
9.57858
9.4253
9.26885
9.10951
8.9474
8.78269
8.61549
8.44592
8.27405
8.09993
7.9236
7.74507
7.56436
7.38145
7.19634
7.00899
6.81937
6.6275
6.43336
6.23698
6.03837
5.83756
5.63456
5.42937
5.22196
5.01228
4.80028
4.58592
4.36916
4.15007
3.92865
3.70497
3.47907
3.251
3.02068
2.78812
2.55319
2.316
2.07648
1.83501
1.59152
1.34655
1.10023
0.852781
0.605444
0.356292
0.10744
7.62059
7.57987
7.58562
7.44982
7.1737
6.75434
6.20742
5.60547
5.00601
4.44313
3.9708
3.64438
3.48692
3.50166
3.69606
4.07205
4.61252
5.2876
6.05834
6.88
7.70089
8.47179
9.15135
9.71773
10.1717
10.5221
10.7669
10.904
10.9606
10.9797
10.9941
11.019
11.0546
11.0937
11.1281
11.1518
11.1614
11.1555
11.1343
11.0982
11.0483
10.9856
10.9113
10.8264
10.7318
10.6285
10.5172
10.3988
10.2742
10.1439
10.0084
9.86815
9.72361
9.57514
9.42304
9.26755
9.10897
8.94744
8.78314
8.61617
8.44669
8.27478
8.1005
7.92389
7.74499
7.56384
7.38044
7.19481
7.00694
6.81683
6.62449
6.42994
6.23321
6.03431
5.83328
5.63013
5.42488
5.21751
5.008
4.79628
4.58235
4.36615
4.14773
3.9271
3.70426
3.47921
3.25199
3.02248
2.79068
2.55647
2.31995
2.08108
1.8402
1.59722
1.35257
1.1064
0.858571
0.611007
0.359772
0.1116
7.77948
7.6741
7.63006
7.48346
7.21506
6.85692
6.41611
5.91568
5.40406
4.92662
4.52793
4.25271
4.12807
4.16306
4.36109
4.72152
5.22839
5.85737
6.57245
7.33361
8.09537
8.8126
9.44754
9.98028
10.4113
10.7482
10.9861
11.1144
11.1509
11.1369
11.1099
11.0929
11.0921
11.1031
11.1176
11.1282
11.1301
11.1203
11.0977
11.062
11.0137
10.9533
10.8817
10.7998
10.7082
10.6078
10.4994
10.3837
10.2616
10.1336
10.0002
9.8618
9.71889
9.57181
9.42088
9.26636
9.10853
8.94759
8.78368
8.61696
8.44756
8.27561
8.10117
7.92429
7.74504
7.56346
7.37959
7.19345
7.00507
6.81446
6.62166
6.4267
6.2296
6.0304
5.82913
5.62583
5.42051
5.21317
5.0038
4.79236
4.57882
4.36315
4.14538
3.92548
3.70344
3.47921
3.2528
3.02408
2.79303
2.55952
2.32367
2.08542
1.84511
1.60261
1.35825
1.11221
0.863984
0.616193
0.362803
0.115438
7.90896
7.77889
7.69653
7.54787
7.31054
7.00854
6.6354
6.20412
5.76505
5.36271
5.03117
4.80719
4.71658
4.7699
4.96903
5.31373
5.7897
6.37561
7.04039
7.74746
8.45667
9.12674
9.72334
10.2277
10.6395
10.9647
11.1962
11.3171
11.3359
11.2918
11.2263
11.1693
11.1327
11.1153
11.1092
11.1062
11.0997
11.0856
11.0613
11.0258
10.9789
10.9208
10.8519
10.7729
10.6844
10.587
10.4815
10.3685
10.2488
10.1232
9.99187
9.8554
9.71413
9.56848
9.41873
9.26517
9.10812
8.94777
8.78427
8.61778
8.44848
8.2765
8.10191
7.92477
7.74517
7.56318
7.37884
7.19221
7.00333
6.81224
6.61898
6.4236
6.22613
6.02662
5.82511
5.62164
5.41624
5.20893
4.9997
4.78852
4.57537
4.3602
4.14305
3.92387
3.70259
3.47915
3.25353
3.02559
2.79527
2.56245
2.32725
2.08962
1.84986
1.60781
1.36371
1.11777
0.869121
0.621099
0.365486
0.11906
8.02083
7.88295
7.77605
7.62937
7.42072
7.15685
6.83309
6.46635
6.09847
5.76442
5.49263
5.31516
5.25579
5.32522
5.52591
5.85596
6.30427
6.85077
7.46949
8.12747
8.78867
9.41617
9.9789
10.459
10.8544
11.1695
11.3951
11.5097
11.5136
11.4431
11.3428
11.2481
11.1767
11.1307
11.1034
11.0859
11.0704
11.0513
11.025
10.9895
10.9439
10.8879
10.8217
10.7456
10.6601
10.5658
10.4632
10.3529
10.2358
10.1124
9.9833
9.84874
9.70915
9.56494
9.41642
9.26385
9.1076
8.94785
8.78477
8.61855
8.44936
8.27737
8.10265
7.92527
7.74533
7.56294
7.37816
7.19106
7.00169
6.81012
6.61642
6.42062
6.22278
6.02295
5.82119
5.61755
5.41207
5.20478
4.99569
4.78476
4.57199
4.35732
4.14076
3.92227
3.70173
3.47906
3.25421
3.02703
2.79744
2.56531
2.33075
2.09372
1.85449
1.61288
1.36902
1.12316
0.874052
0.625788
0.367916
0.122534
8.12398
7.9891
7.87293
7.73188
7.54495
7.31134
7.03257
6.72501
6.41934
6.14369
5.92403
5.78802
5.75643
5.83911
6.04002
6.35619
6.77871
7.28938
7.86538
8.47775
9.09446
9.68275
10.2147
10.6733
11.0543
11.3603
11.5805
11.69
11.6822
11.5895
11.4586
11.3291
11.2241
11.1495
11.1003
11.0675
11.0422
11.0176
10.9888
10.9529
10.9083
10.8543
10.7907
10.7175
10.6351
10.5438
10.4441
10.3366
10.2221
10.1011
9.97413
9.84154
9.70367
9.56096
9.41369
9.26216
9.10675
8.94765
8.78504
8.61911
8.45007
8.2781
8.10328
7.92568
7.74545
7.5627
7.3775
7.18995
7.00012
6.8081
6.61395
6.41774
6.21954
6.0194
5.81739
5.61357
5.408
5.20073
4.99177
4.7811
4.56869
4.3545
4.13853
3.9207
3.70088
3.47895
3.25487
3.02844
2.79957
2.56811
2.33419
2.09774
1.85903
1.61783
1.37418
1.12838
0.878793
0.630274
0.370143
0.125879
8.23057
8.10572
7.98958
7.85464
7.68495
7.47913
7.24126
6.98444
6.7316
6.50667
6.33286
6.23337
6.22588
6.31958
6.51871
6.82088
7.21838
7.69536
8.23146
8.80127
9.37649
9.92821
10.4315
10.8703
11.2384
11.5357
11.7505
11.8561
11.84
11.7297
11.5726
11.4117
11.2747
11.172
11.1005
11.0515
11.0156
10.9846
10.9527
10.916
10.8722
10.82
10.7589
10.6885
10.609
10.5208
10.4241
10.3194
10.2075
10.0889
9.96411
9.8335
9.69741
9.55626
9.41031
9.25987
9.10536
8.94697
8.78486
8.61928
8.45045
8.27854
8.10368
7.92592
7.74543
7.56236
7.37679
7.18883
6.99858
6.80613
6.61157
6.41497
6.21642
6.01597
5.81371
5.60972
5.40407
5.19681
4.98798
4.77756
4.56551
4.35179
4.13638
3.91919
3.70006
3.47887
3.25552
3.02983
2.80167
2.57089
2.33758
2.10171
1.86349
1.62268
1.37922
1.13345
0.883368
0.634569
0.37221
0.129097
8.34912
8.2363
8.12396
7.99559
7.84173
7.66148
7.45893
7.24459
7.03675
6.85579
6.72166
6.65353
6.66646
6.76899
6.96517
7.25333
7.6267
8.07174
8.57039
9.10034
9.63666
10.1539
10.6301
11.05
11.4058
11.6947
11.9043
12.0069
11.9857
11.8624
11.6838
11.4951
11.3285
11.1983
11.1042
11.0384
10.9909
10.9527
10.917
10.879
10.8356
10.7849
10.726
10.6583
10.5818
10.4965
10.4027
10.301
10.1917
10.0756
9.95298
9.82436
9.69011
9.55056
9.40598
9.25672
9.10318
8.94555
8.78404
8.61888
8.45032
8.27855
8.10369
7.92583
7.74516
7.56182
7.37594
7.18763
6.99701
6.80418
6.60924
6.41229
6.21341
6.01268
5.81019
5.60603
5.4003
5.19307
4.98437
4.7742
4.56251
4.34924
4.13437
3.9178
3.69934
3.47885
3.25623
3.03126
2.8038
2.57367
2.34098
2.10565
1.86791
1.62747
1.38416
1.1384
0.887805
0.638694
0.374165
0.132194
8.48071
8.37916
8.27236
8.15165
8.01282
7.85526
7.68274
7.50433
7.33501
7.19177
7.09137
7.04972
7.07964
7.18894
7.38133
7.65564
8.00596
8.42074
8.88417
9.37669
9.87642
10.3611
10.8111
11.2124
11.5563
11.8368
12.0411
12.1414
12.118
11.9861
11.7907
11.5785
11.385
11.2286
11.1119
11.0285
10.9685
10.9223
10.882
10.8419
10.7984
10.7489
10.692
10.6268
10.5531
10.4707
10.3799
10.281
10.1744
10.0607
9.94043
9.81388
9.68149
9.54358
9.40044
9.25246
9.09995
8.94315
8.7823
8.61766
8.44947
8.27791
8.10314
7.92527
7.74449
7.56097
7.37485
7.18626
6.99533
6.80218
6.60693
6.40967
6.2105
6.00952
5.80682
5.60252
5.39672
5.18952
4.98097
4.77105
4.55972
4.3469
4.13256
3.91659
3.69878
3.47896
3.25704
3.03278
2.80601
2.57652
2.34442
2.10962
1.87232
1.63221
1.38905
1.14325
0.892142
0.642676
0.376055
0.135172
8.6213
8.53001
8.43009
8.31806
8.19339
8.05589
7.90929
7.76162
7.62519
7.51397
7.44198
7.42247
7.46634
7.58056
7.76847
8.02919
8.35761
8.74389
9.17424
9.63161
10.0968
10.5504
10.975
11.3578
11.6897
11.9619
12.1608
12.2594
12.2359
12.0997
11.8924
11.6611
11.4438
11.2628
11.1239
11.0224
10.949
10.8937
10.8479
10.8051
10.7608
10.712
10.6568
10.5939
10.5228
10.4433
10.3553
10.2591
10.1553
10.0441
9.92616
9.80174
9.67128
9.53504
9.39343
9.24681
9.09538
8.93946
8.7794
8.6154
8.44767
8.27642
8.10182
7.92403
7.74324
7.55963
7.37337
7.18459
6.99344
6.80005
6.60455
6.40705
6.20765
6.00646
5.8036
5.59918
5.39335
5.18621
4.97781
4.76816
4.55719
4.34483
4.13101
3.91561
3.69842
3.47926
3.25803
3.03445
2.80835
2.57949
2.34796
2.11367
1.87678
1.63698
1.39392
1.14805
0.896419
0.646543
0.37793
0.138033
8.76652
8.6846
8.59244
8.4897
8.37838
8.25888
8.13495
8.01368
7.9052
7.82104
7.77287
7.77177
7.82695
7.94451
8.12739
8.37492
8.68266
9.04219
9.44158
9.86598
10.2987
10.7225
11.1224
11.4867
11.8062
12.0701
12.2633
12.3606
12.339
12.2024
11.9878
11.7419
11.5044
11.3008
11.1403
11.0205
10.9329
10.8674
10.8151
10.7687
10.723
10.6744
10.6204
10.5596
10.4909
10.414
10.3288
10.2353
10.1341
10.0255
9.90985
9.78761
9.65912
9.52466
9.38466
9.23946
9.08919
8.93424
8.77506
8.61182
8.44467
8.27382
8.09949
7.92189
7.7412
7.55762
7.37133
7.18247
6.9912
6.79767
6.60201
6.40435
6.20479
6.00347
5.8005
5.59602
5.39019
5.18313
4.97492
4.76555
4.55497
4.34307
4.12977
3.91492
3.69833
3.47983
3.25925
3.03634
2.81088
2.58264
2.35167
2.11786
1.88134
1.64179
1.39881
1.15284
0.900678
0.650328
0.379837
0.140772
8.91427
8.84061
8.7564
8.66308
8.56431
8.46102
8.35688
8.25818
8.17333
8.11187
8.08357
8.09765
8.16184
8.28141
8.45887
8.69368
8.98199
9.31655
9.68707
10.0806
10.4827
10.8783
11.2541
11.5998
11.9064
12.1618
12.3492
12.4453
12.4269
12.2934
12.076
11.8199
11.566
11.3423
11.1613
11.023
10.9205
10.844
10.7841
10.7332
10.6852
10.6362
10.583
10.5238
10.4572
10.3828
10.3001
10.2093
10.1106
10.0045
9.89126
9.77121
9.64474
9.51211
9.37377
9.23005
9.08106
8.92722
8.76901
8.60661
8.44016
8.26984
8.0959
7.91861
7.73814
7.55472
7.36852
7.17971
6.98844
6.79488
6.59917
6.40145
6.20184
6.00046
5.79746
5.59298
5.38721
5.18029
4.97229
4.76324
4.55308
4.34167
4.12888
3.91456
3.69857
3.48071
3.26077
3.03849
2.81365
2.58602
2.3556
2.12224
1.88606
1.64672
1.40376
1.15766
0.904964
0.654068
0.381826
0.143386
9.06357
8.99725
8.92081
8.83669
8.74961
8.66084
8.57389
8.49436
8.42931
8.38673
8.37478
8.40114
8.47227
8.59262
8.76435
8.98692
9.257
9.56833
9.91199
10.2768
10.6501
11.0188
11.3713
11.6982
11.9911
12.2373
12.419
12.514
12.4997
12.3721
12.1561
11.8943
11.6278
11.3867
11.1866
11.0302
10.9123
10.8238
10.7554
10.6988
10.6478
10.5976
10.5447
10.4866
10.4218
10.3495
10.2692
10.1808
10.0847
9.98105
9.87013
9.75229
9.62785
9.49711
9.36048
9.21828
9.07068
8.91807
8.76093
8.59946
8.43382
8.26416
8.09077
7.91393
7.73383
7.55069
7.36472
7.17608
6.98495
6.79149
6.59586
6.3982
6.19864
5.99732
5.79438
5.59
5.38436
5.17762
4.9699
4.76122
4.55151
4.34062
4.12837
3.91459
3.6992
3.48197
3.26264
3.04096
2.81672
2.58969
2.35981
2.12689
1.89098
1.65179
1.40883
1.16254
0.909319
0.6578
0.383943
0.145863
9.21385
9.15421
9.08522
9.0099
8.93364
8.85783
8.78581
8.72255
8.67407
8.64707
8.6484
8.68446
8.76063
8.88065
9.04629
9.25704
9.50996
9.79962
10.1183
10.4562
10.8025
11.1456
11.4752
11.7831
12.0614
12.2976
12.4734
12.5672
12.5576
12.438
12.2271
11.9638
11.6887
11.4333
11.216
11.0422
10.9086
10.8073
10.7293
10.6662
10.6112
10.5589
10.5056
10.4481
10.3847
10.3141
10.2359
10.1498
10.0561
9.95486
9.84625
9.7306
9.60821
9.47937
9.34449
9.20388
9.05774
8.90645
8.75048
8.59006
8.42533
8.25649
8.0838
7.90756
7.72796
7.54526
7.35966
7.17134
6.98048
6.78727
6.59186
6.3944
6.19504
5.9939
5.79114
5.58695
5.38153
5.17507
4.96769
4.75943
4.55022
4.33989
4.12822
3.91503
3.70024
3.48363
3.2649
3.0438
2.82014
2.5937
2.36435
2.13184
1.89617
1.65706
1.41405
1.16754
0.913785
0.661564
0.386235
0.148198
9.3649
9.31137
9.24947
9.18241
9.11602
9.05179
8.99274
8.94333
8.90872
8.89456
8.90659
8.95015
9.02972
9.14842
9.30765
9.50691
9.74358
10.0129
10.3081
10.6209
10.9415
11.2601
11.5673
11.8559
12.1185
12.3436
12.5132
12.6057
12.6011
12.4908
12.2884
12.0275
11.7477
11.4814
11.2489
11.0586
10.9094
10.7949
10.7064
10.6357
10.5757
10.5206
10.466
10.4086
10.3459
10.2766
10.2001
10.1162
10.0248
9.92578
9.81942
9.70593
9.58557
9.45865
9.32555
9.18658
9.04195
8.89208
8.73737
8.57809
8.4144
8.2465
8.07466
7.89916
7.72023
7.53811
7.35303
7.16519
6.97477
6.78196
6.58693
6.38983
6.19081
5.99
5.78755
5.58367
5.37859
5.1725
4.96556
4.75781
4.54916
4.33944
4.12839
3.91584
3.70169
3.4857
3.26757
3.04704
2.82396
2.59808
2.36924
2.13712
1.90166
1.66259
1.41947
1.17268
0.918401
0.6654
0.388745
0.150374
9.51684
9.46886
9.41356
9.35416
9.29667
9.24265
9.19488
9.15726
9.13424
9.13061
9.15119
9.20042
9.28202
9.39854
9.5511
9.73914
9.96031
10.2104
10.4836
10.7726
11.0688
11.3636
11.6489
11.9178
12.1638
12.3765
12.5391
12.63
12.6303
12.5302
12.3388
12.0842
11.8036
11.5296
11.2846
11.0792
10.9149
10.7867
10.687
10.6078
10.5419
10.483
10.4263
10.368
10.3054
10.2369
10.1619
10.0799
9.99053
9.8937
9.78948
9.67807
9.55973
9.43472
9.30341
9.16611
9.02307
8.87466
8.7213
8.56325
8.40071
8.23388
8.06303
7.88843
7.71031
7.52893
7.34454
7.15734
6.96752
6.77528
6.58079
6.38422
6.18571
5.98538
5.7834
5.57998
5.37536
5.16977
4.96337
4.75622
4.54822
4.33918
4.12882
3.91697
3.7035
3.48814
3.27062
3.05069
2.82818
2.60283
2.37447
2.14273
1.90748
1.66844
1.42517
1.17803
0.923207
0.669351
0.391518
0.152382
9.66994
9.62694
9.57767
9.52526
9.4757
9.43059
9.39251
9.36488
9.35151
9.35644
9.38373
9.43708
9.51954
9.63318
9.77882
9.95589
10.1622
10.3941
10.6465
10.9128
11.1857
11.4575
11.7209
11.9699
12.1984
12.3975
12.5518
12.6408
12.6457
12.5563
12.3776
12.1327
11.855
11.5769
11.322
11.1034
10.9247
10.7828
10.6714
10.5829
10.5101
10.4465
10.3867
10.3266
10.2634
10.1954
10.1215
10.041
9.95345
9.85854
9.7563
9.64688
9.53048
9.40736
9.27785
9.14225
9.00084
8.85398
8.70203
8.54529
8.38399
8.21834
8.04861
7.87504
7.69788
7.51741
7.33387
7.14747
6.95842
6.76692
6.57315
6.37729
6.17946
5.97979
5.77845
5.57563
5.37162
5.16666
4.96094
4.75451
4.54726
4.33899
4.12942
3.91834
3.70559
3.49091
3.27403
3.05471
2.83276
2.60794
2.38002
2.14864
1.9136
1.67459
1.43116
1.18363
0.928246
0.673454
0.394577
0.154199
9.82459
9.78592
9.74202
9.69587
9.65331
9.61591
9.58604
9.56676
9.56133
9.57313
9.60556
9.66168
9.74399
9.85411
9.99265
10.1589
10.351
10.5656
10.798
11.0427
11.2932
11.5426
11.7845
12.0132
12.2235
12.4077
12.5523
12.6386
12.6478
12.5689
12.4041
12.1715
11.9004
11.6217
11.36
11.1302
10.9383
10.7832
10.6598
10.5614
10.4807
10.4113
10.3474
10.2847
10.2203
10.1522
10.079
9.99968
9.91355
9.82031
9.71985
9.61225
9.4977
9.3764
9.24867
9.11479
8.97505
8.82978
8.67933
8.52399
8.36402
8.19964
8.03112
7.85871
7.68266
7.50323
7.32069
7.13526
6.94715
6.75656
6.5637
6.36872
6.17176
5.97294
5.7724
5.57036
5.36712
5.16295
4.95805
4.75247
4.54611
4.33872
4.13003
3.91981
3.70786
3.49392
3.27772
3.05903
2.83766
2.61335
2.38586
2.15482
1.92
1.68103
1.43744
1.18949
0.93356
0.677732
0.397931
0.155808
9.98112
9.9461
9.90685
9.8662
9.82971
9.79888
9.77589
9.76348
9.76444
9.78162
9.81781
9.87554
9.95681
10.0629
10.1941
10.3498
10.5281
10.7259
10.9394
11.1633
11.3921
11.6197
11.8403
12.0487
12.2402
12.4083
12.5418
12.6239
12.6367
12.568
12.4176
12.1994
11.9381
11.6623
11.397
11.1586
10.955
10.7874
10.6522
10.5432
10.454
10.3777
10.3087
10.2427
10.1766
10.1078
10.0347
9.95603
9.87096
9.77906
9.68013
9.57417
9.46132
9.34175
9.21573
9.08355
8.94548
8.80184
8.65295
8.4991
8.34056
8.17756
8.01035
7.8392
7.66437
7.48612
7.30473
7.12042
6.93341
6.74391
6.55212
6.35821
6.1623
5.96451
5.76497
5.5639
5.36159
5.15838
4.95446
4.74988
4.54454
4.33817
4.13048
3.92122
3.71015
3.49702
3.28156
3.06355
2.84278
2.61899
2.39194
2.16122
1.92661
1.68769
1.44397
1.19561
0.939142
0.682178
0.401568
0.157183
10.1399
10.1077
10.0723
10.0364
10.0051
9.97975
9.96243
9.95554
9.96151
9.98273
10.0215
10.0798
10.1592
10.2608
10.3845
10.5297
10.6946
10.8764
11.0715
11.2756
11.4834
11.6897
11.8892
12.0772
12.2495
12.4006
12.5215
12.5978
12.6128
12.5536
12.4178
12.2151
11.9663
11.697
11.4313
11.187
10.9739
10.7949
10.6481
10.5285
10.4299
10.346
10.2712
10.2011
10.1325
10.0624
9.98882
9.91028
9.82584
9.73493
9.63723
9.53268
9.42134
9.30337
9.17898
9.04844
8.91202
8.77001
8.62271
8.47042
8.31339
8.15187
7.98609
7.81631
7.64281
7.46586
7.28574
7.10268
6.91691
6.72866
6.53812
6.34546
6.15079
5.95423
5.75587
5.55593
5.35475
5.15266
4.94989
4.74649
4.54231
4.3371
4.13055
3.92236
3.71229
3.50005
3.28541
3.06813
2.84801
2.62476
2.39815
2.16778
1.93338
1.69454
1.45069
1.20193
0.944954
0.68678
0.405483
0.158307
10.301
10.271
10.2386
10.2065
10.1794
10.1587
10.1459
10.1434
10.1531
10.1772
10.2174
10.2754
10.3523
10.4488
10.5649
10.6997
10.8515
11.0178
11.1954
11.3802
11.5677
11.7532
11.932
12.0996
12.2525
12.386
12.4928
12.5612
12.5765
12.5257
12.4039
12.2177
11.9834
11.7236
11.461
11.2138
10.9934
10.8046
10.647
10.5167
10.4084
10.3163
10.2351
10.1604
10.0886
10.0164
9.94167
9.86271
9.77843
9.68809
9.5913
9.48788
9.37785
9.2613
9.13842
9.00943
8.8746
8.73419
8.58849
8.43779
8.28233
8.12235
7.9581
7.78982
7.61777
7.44224
7.26351
7.08182
6.89744
6.71057
6.52143
6.33019
6.13694
5.94179
5.7448
5.54618
5.34629
5.14551
4.94407
4.74201
4.53918
4.33528
4.13
3.92301
3.71404
3.50281
3.28907
3.0726
2.85317
2.63052
2.40438
2.17438
1.94022
1.70147
1.45752
1.20839
0.950939
0.691507
0.40965
0.159149
10.4646
10.4358
10.4056
10.3766
10.3528
10.3356
10.3264
10.3272
10.3396
10.3655
10.4062
10.463
10.5368
10.6279
10.7362
10.8606
10.9997
11.1511
11.3116
11.4778
11.6457
11.811
11.9694
12.117
12.2503
12.3655
12.4571
12.5158
12.5289
12.4845
12.3758
12.2061
11.9878
11.7402
11.4839
11.2371
11.012
10.8152
10.6478
10.5074
10.3894
10.2889
10.2008
10.1209
10.0451
9.97012
9.89358
9.81362
9.72897
9.63878
9.54252
9.43995
9.33097
9.21564
9.09411
8.96656
8.83323
8.69437
8.55025
8.40113
8.24727
8.08888
7.92622
7.75953
7.58905
7.41507
7.23787
7.0577
6.87481
6.68946
6.50185
6.31216
6.12051
5.92694
5.73151
5.53439
5.33597
5.13667
4.93674
4.7362
4.53487
4.33245
4.12857
3.92291
3.71517
3.50505
3.29232
3.07674
2.85808
2.63607
2.41046
2.18087
1.94699
1.70836
1.46436
1.21489
0.957019
0.696316
0.414029
0.159686
10.6304
10.602
10.573
10.5463
10.525
10.5105
10.504
10.5071
10.5213
10.548
10.5883
10.6433
10.7134
10.7987
10.8991
11.0133
11.14
11.2767
11.4209
11.5692
11.7181
11.8636
12.0021
12.1299
12.2438
12.3406
12.4161
12.4631
12.4716
12.4309
12.3335
12.1797
11.9782
11.7448
11.4978
11.2544
11.0275
10.8249
10.6493
10.4996
10.3725
10.2636
10.1685
10.0827
10.0022
9.92384
9.84485
9.7633
9.67776
9.58725
9.49114
9.38906
9.28087
9.16654
9.04617
8.91992
8.78799
8.6506
8.50801
8.36046
8.20818
8.05141
7.89038
7.72533
7.55651
7.38419
7.20863
7.03012
6.84889
6.66517
6.47922
6.29123
6.10132
5.90949
5.71577
5.52033
5.32355
5.1259
4.92766
4.72881
4.52915
4.32835
4.12603
3.92182
3.71542