/*--------------------------------*- C++ -*----------------------------------*\
  =========                 |
  \\      /  F ield         | OpenFOAM: The Open Source CFD Toolbox
   \\    /   O peration     | Website:  https://openfoam.org
    \\  /    A nd           | Version:  10
     \\/     M anipulation  |
\*---------------------------------------------------------------------------*/
FoamFile
{
    format      ascii;
    class       surfaceScalarField;
    location    "100";
    object      phi;
}
// * * * * * * * * * * * * * * * * * * * * * * * * * * * * * * * * * * * * * //

dimensions      [0 3 -1 0 0 0 0];

internalField   nonuniform List<scalar> 
13452
(
6.29966e-05
-2.72816e-06
6.37641e-05
-7.67458e-07
6.45399e-05
-7.75799e-07
6.38741e-05
6.6581e-07
6.25468e-05
1.32726e-06
6.11313e-05
1.41547e-06
5.98251e-05
1.30621e-06
5.86647e-05
1.16047e-06
5.7647e-05
1.01766e-06
5.67593e-05
8.87691e-07
5.5987e-05
7.72315e-07
5.53179e-05
6.6907e-07
5.47416e-05
5.76366e-07
5.42473e-05
4.94298e-07
5.38256e-05
4.21704e-07
5.34699e-05
3.55632e-07
5.31762e-05
2.93738e-07
5.29401e-05
2.36046e-07
5.27561e-05
1.84068e-07
5.26173e-05
1.38749e-07
5.25179e-05
9.94803e-08
5.2453e-05
6.48399e-08
5.24193e-05
3.37608e-08
5.24116e-05
7.6155e-09
5.24248e-05
-1.31264e-08
5.24561e-05
-3.13738e-08
5.25061e-05
-4.99714e-08
5.25773e-05
-7.11763e-08
5.26744e-05
-9.71263e-08
5.28077e-05
-1.33247e-07
5.29889e-05
-1.81217e-07
5.32639e-05
-2.74972e-07
-3.93783e-07
5.36576e-05
6.28943e-05
-3.63211e-06
6.27399e-05
-6.1305e-07
6.21219e-05
-1.57807e-07
6.23993e-05
3.88397e-07
6.28859e-05
8.40674e-07
6.32858e-05
1.01559e-06
6.35395e-05
1.05248e-06
6.36624e-05
1.03756e-06
6.36857e-05
9.94423e-07
6.3639e-05
9.34399e-07
6.35458e-05
8.65428e-07
6.3424e-05
7.90865e-07
6.32865e-05
7.13874e-07
6.31427e-05
6.38137e-07
6.29994e-05
5.65006e-07
6.28618e-05
4.93252e-07
6.27338e-05
4.21762e-07
6.26183e-05
3.51545e-07
6.25174e-05
2.84955e-07
6.24325e-05
2.2357e-07
6.23648e-05
1.67266e-07
6.23146e-05
1.15002e-07
6.22824e-05
6.60002e-08
6.227e-05
1.99509e-08
6.22803e-05
-2.34175e-08
6.2314e-05
-6.50659e-08
6.23712e-05
-1.0715e-07
6.24529e-05
-1.52874e-07
6.25621e-05
-2.06339e-07
6.27042e-05
-2.75314e-07
6.28897e-05
-3.66702e-07
6.31297e-05
-5.15017e-07
-7.10408e-07
6.34463e-05
6.2335e-05
-2.20566e-06
6.26311e-05
-9.0919e-07
6.27934e-05
-3.20083e-07
6.31088e-05
7.29477e-08
6.34681e-05
4.81354e-07
6.37806e-05
7.03088e-07
6.40401e-05
7.93022e-07
6.42521e-05
8.25541e-07
6.44215e-05
8.25035e-07
6.45552e-05
8.0069e-07
6.46613e-05
7.59375e-07
6.4747e-05
7.05107e-07
6.48189e-05
6.41973e-07
6.48824e-05
5.74645e-07
6.49419e-05
5.05548e-07
6.50008e-05
4.34313e-07
6.50622e-05
3.60383e-07
6.51286e-05
2.85189e-07
6.52019e-05
2.11631e-07
6.52835e-05
1.41923e-07
6.53743e-05
7.65518e-08
6.54743e-05
1.49807e-08
6.55836e-05
-4.33624e-08
6.57026e-05
-9.90503e-08
6.5832e-05
-1.52762e-07
6.59726e-05
-2.05652e-07
6.61255e-05
-2.60027e-07
6.62921e-05
-3.19512e-07
6.64747e-05
-3.88968e-07
6.66755e-05
-4.76109e-07
6.68975e-05
-5.88645e-07
6.71316e-05
-7.49153e-07
-9.54332e-07
6.73755e-05
6.47921e-05
-1.41464e-06
6.47418e-05
-8.58967e-07
6.47945e-05
-3.72726e-07
6.49135e-05
-4.60328e-08
6.50958e-05
2.98982e-07
6.52811e-05
5.17779e-07
6.54544e-05
6.19746e-07
6.5615e-05
6.6492e-07
6.57623e-05
6.77795e-07
6.58972e-05
6.65764e-07
6.60225e-05
6.34084e-07
6.61409e-05
5.86699e-07
6.62551e-05
5.27775e-07
6.63679e-05
4.61802e-07
6.64822e-05
3.91311e-07
6.66002e-05
3.16335e-07
6.67238e-05
2.36735e-07
6.68547e-05
1.54314e-07
6.6994e-05
7.2355e-08
6.71423e-05
-6.38837e-09
6.72997e-05
-8.0841e-08
6.74658e-05
-1.5117e-07
6.76402e-05
-2.17713e-07
6.7822e-05
-2.80908e-07
6.80109e-05
-3.41591e-07
6.82064e-05
-4.01216e-07
6.84087e-05
-4.62273e-07
6.86176e-05
-5.28465e-07
6.88333e-05
-6.04626e-07
6.90545e-05
-6.97286e-07
6.92785e-05
-8.127e-07
6.9493e-05
-9.6366e-07
-1.14583e-06
6.96845e-05
6.70188e-05
-9.76655e-07
6.68739e-05
-7.14038e-07
6.68523e-05
-3.51171e-07
6.68874e-05
-8.1102e-08
6.69863e-05
2.00082e-07
6.71086e-05
3.95472e-07
6.72328e-05
4.95563e-07
6.73549e-05
5.42849e-07
6.74741e-05
5.58516e-07
6.7591e-05
5.4885e-07
6.77068e-05
5.18295e-07
6.78228e-05
4.70783e-07
6.79403e-05
4.1022e-07
6.80617e-05
3.40434e-07
6.81893e-05
2.6369e-07
6.83252e-05
1.80465e-07
6.84706e-05
9.13404e-08
6.86262e-05
-1.34907e-09
6.87926e-05
-9.40323e-08
6.89698e-05
-1.83623e-07
6.91575e-05
-2.68473e-07
6.93544e-05
-3.48092e-07
6.9559e-05
-4.22348e-07
6.97695e-05
-4.91379e-07
6.99838e-05
-5.55892e-07
7.02e-05
-6.17391e-07
7.0416e-05
-6.78293e-07
7.06297e-05
-7.42129e-07
7.08382e-05
-8.13137e-07
7.10371e-05
-8.9619e-07
7.12197e-05
-9.95322e-07
7.13722e-05
-1.11618e-06
-1.25228e-06
7.14787e-05
6.90897e-05
-6.82376e-07
6.89469e-05
-5.71178e-07
6.89087e-05
-3.12965e-07
6.89197e-05
-9.20723e-08
6.89818e-05
1.37935e-07
6.90703e-05
3.06927e-07
6.9166e-05
3.99946e-07
6.92639e-05
4.44946e-07
6.93638e-05
4.5862e-07
6.9466e-05
4.46637e-07
6.95712e-05
4.13085e-07
6.96803e-05
3.61654e-07
6.97948e-05
2.95726e-07
6.99168e-05
2.18437e-07
7.00486e-05
1.319e-07
7.01919e-05
3.72058e-08
7.03474e-05
-6.42051e-08
7.05155e-05
-1.69452e-07
7.06962e-05
-2.74697e-07
7.0889e-05
-3.76429e-07
7.10927e-05
-4.72192e-07
7.13051e-05
-5.60455e-07
7.15229e-05
-6.40217e-07
7.17425e-05
-7.10995e-07
7.19597e-05
-7.73091e-07
7.21701e-05
-8.2776e-07
7.23689e-05
-8.77101e-07
7.25509e-05
-9.24072e-07
7.27097e-05
-9.71968e-07
7.28377e-05
-1.02422e-06
7.2926e-05
-1.08356e-06
7.29625e-05
-1.15274e-06
-1.22777e-06
7.2938e-05
7.11547e-05
-4.70693e-07
7.10316e-05
-4.48132e-07
7.09892e-05
-2.70537e-07
7.099e-05
-9.28937e-08
7.1033e-05
9.49623e-08
7.11016e-05
2.38321e-07
7.11802e-05
3.21315e-07
7.1264e-05
3.61194e-07
7.13523e-05
3.70266e-07
7.14454e-05
3.53545e-07
7.15438e-05
3.14701e-07
7.16485e-05
2.56936e-07
7.17612e-05
1.83073e-07
7.18838e-05
9.57675e-08
7.20186e-05
-2.82993e-09
7.21668e-05
-1.10981e-07
7.2329e-05
-2.26425e-07
7.25052e-05
-3.45683e-07
7.26949e-05
-4.64402e-07
7.28967e-05
-5.78254e-07
7.31081e-05
-6.83554e-07
7.3325e-05
-7.77346e-07
7.35421e-05
-8.57356e-07
7.37532e-05
-9.22095e-07
7.39512e-05
-9.71075e-07
7.41283e-05
-1.00487e-06
7.42762e-05
-1.02498e-06
7.43861e-05
-1.03398e-06
7.44497e-05
-1.03558e-06
7.44604e-05
-1.03491e-06
7.44149e-05
-1.03805e-06
7.43133e-05
-1.05111e-06
-1.07702e-06
7.41625e-05
7.32535e-05
-3.18958e-07
7.31493e-05
-3.43852e-07
7.31054e-05
-2.26703e-07
7.31004e-05
-8.78237e-08
7.31319e-05
6.3389e-08
7.31879e-05
1.82332e-07
7.32559e-05
2.53329e-07
7.33311e-05
2.85962e-07
7.34127e-05
2.88712e-07
7.35006e-05
2.65679e-07
7.35953e-05
2.19921e-07
7.36982e-05
1.54066e-07
7.38108e-05
7.04761e-08
7.39351e-05
-2.84798e-08
7.40727e-05
-1.40513e-07
7.4225e-05
-2.63267e-07
7.43923e-05
-3.93652e-07
7.45739e-05
-5.27357e-07
7.47686e-05
-6.59074e-07
7.49735e-05
-7.83172e-07
7.51843e-05
-8.9429e-07
7.53945e-05
-9.87636e-07
7.55964e-05
-1.05918e-06
7.57802e-05
-1.1059e-06
7.59351e-05
-1.126e-06
7.60495e-05
-1.1193e-06
7.61124e-05
-1.08782e-06
7.61154e-05
-1.03702e-06
7.60561e-05
-9.76269e-07
7.5939e-05
-9.17841e-07
7.57748e-05
-8.73797e-07
7.55763e-05
-8.52645e-07
-8.59065e-07
7.53584e-05
7.53955e-05
-2.1203e-07
7.53087e-05
-2.57009e-07
7.52659e-05
-1.83924e-07
7.52575e-05
-7.93559e-08
7.52816e-05
3.92396e-08
7.5329e-05
1.3495e-07
7.53897e-05
1.92593e-07
7.54594e-05
2.16313e-07
7.55367e-05
2.11377e-07
7.56216e-05
1.80762e-07
7.57147e-05
1.26801e-07
7.58172e-05
5.15591e-08
7.59307e-05
-4.29726e-08
7.60568e-05
-1.5459e-07
7.61971e-05
-2.80798e-07
7.63524e-05
-4.18587e-07
7.65227e-05
-5.63899e-07
7.67066e-05
-7.1125e-07
7.69014e-05
-8.53909e-07
7.71027e-05
-9.84452e-07
7.73037e-05
-1.09537e-06
7.74956e-05
-1.17951e-06
7.76669e-05
-1.23046e-06
7.78041e-05
-1.2431e-06
7.78926e-05
-1.21451e-06
7.79191e-05
-1.14581e-06
7.78758e-05
-1.04449e-06
7.77641e-05
-9.25351e-07
7.75955e-05
-8.07666e-07
7.73871e-05
-7.09452e-07
7.71562e-05
-6.42856e-07
7.69164e-05
-6.12865e-07
-6.21117e-07
7.66785e-05
7.75856e-05
-1.38057e-07
7.75156e-05
-1.86996e-07
7.74764e-05
-1.44712e-07
7.74665e-05
-6.94992e-08
7.74857e-05
2.00738e-08
7.75269e-05
9.37519e-08
7.75823e-05
1.3716e-07
7.7648e-05
1.50653e-07
7.77225e-05
1.36869e-07
7.78056e-05
9.76044e-08
7.7898e-05
3.44332e-08
7.80007e-05
-5.11078e-08
7.8115e-05
-1.57334e-07
7.82426e-05
-2.82112e-07
7.83844e-05
-4.22642e-07
7.8541e-05
-5.7514e-07
7.87114e-05
-7.34359e-07
7.88935e-05
-8.933e-07
7.90829e-05
-1.04336e-06
7.92733e-05
-1.17484e-06
7.94555e-05
-1.27752e-06
7.96172e-05
-1.34124e-06
7.97434e-05
-1.35665e-06
7.9817e-05
-1.31671e-06
7.98224e-05
-1.2199e-06
7.97511e-05
-1.07449e-06
7.96068e-05
-9.0024e-07
7.94054e-05
-7.23905e-07
7.9168e-05
-5.70343e-07
7.89143e-05
-4.55732e-07
7.86581e-05
-3.86599e-07
7.84078e-05
-3.6255e-07
-3.81899e-07
7.81685e-05
7.98282e-05
-8.79703e-08
7.9774e-05
-1.32756e-07
7.97404e-05
-1.11104e-07
7.9731e-05
-6.00885e-08
7.9747e-05
4.01616e-09
7.97838e-05
5.70269e-08
7.98352e-05
8.57568e-08
7.98978e-05
8.80484e-08
7.99702e-05
6.44751e-08
8.0052e-05
1.57164e-08
8.01439e-05
-5.73873e-08
8.02465e-05
-1.53785e-07
8.03612e-05
-2.72037e-07
8.04891e-05
-4.09971e-07
8.06308e-05
-5.64346e-07
8.07861e-05
-7.30441e-07
8.09533e-05
-9.01594e-07
8.1129e-05
-1.06897e-06
8.13073e-05
-1.22167e-06
8.14797e-05
-1.34723e-06
8.16343e-05
-1.43211e-06
8.17556e-05
-1.46254e-06
8.18252e-05
-1.42624e-06
8.1825e-05
-1.31654e-06
8.17443e-05
-1.13912e-06
8.1586e-05
-9.16255e-07
8.13677e-05
-6.81928e-07
8.11131e-05
-4.69346e-07
8.08437e-05
-3.00881e-07
8.05739e-05
-1.85981e-07
8.03121e-05
-1.24735e-07
8.00621e-05
-1.12629e-07
-1.45798e-07
7.9826e-05
8.21274e-05
-5.49312e-08
8.20872e-05
-9.25744e-08
8.20605e-05
-8.43669e-08
8.20531e-05
-5.27232e-08
8.20677e-05
-1.0547e-08
8.21013e-05
2.33968e-08
8.21496e-05
3.74406e-08
8.22098e-05
2.79239e-08
8.22803e-05
-6.10712e-09
8.2361e-05
-6.49405e-08
8.2452e-05
-1.48401e-07
8.25541e-05
-2.5586e-07
8.26681e-05
-3.86039e-07
8.27947e-05
-5.36606e-07
8.29341e-05
-7.03732e-07
8.30853e-05
-8.81592e-07
8.32456e-05
-1.06191e-06
8.34103e-05
-1.23371e-06
8.35721e-05
-1.38346e-06
8.37203e-05
-1.49541e-06
8.38403e-05
-1.55217e-06
8.39139e-05
-1.53613e-06
8.39212e-05
-1.43355e-06
8.38477e-05
-1.24299e-06
8.36926e-05
-9.84052e-07
8.34719e-05
-6.95571e-07
8.32106e-05
-4.20554e-07
8.29318e-05
-1.90564e-07
8.26517e-05
-2.07979e-08
8.23794e-05
8.63562e-08
8.2119e-05
1.35629e-07
8.18723e-05
1.34101e-07
8.69914e-08
8.16395e-05
8.44867e-05
-3.3843e-08
8.44585e-05
-6.4342e-08
8.4439e-05
-6.49471e-08
8.44349e-05
-4.85871e-08
8.44493e-05
-2.49699e-08
8.4481e-05
-8.29198e-09
8.4527e-05
-8.52985e-09
8.4585e-05
-3.00743e-08
8.46538e-05
-7.49143e-08
8.4733e-05
-1.44106e-07
8.48226e-05
-2.38031e-07
8.49231e-05
-3.56391e-07
8.5035e-05
-4.97965e-07
8.51586e-05
-6.60141e-07
8.52932e-05
-8.38368e-07
8.54372e-05
-1.02558e-06
8.5587e-05
-1.21171e-06
8.57367e-05
-1.38345e-06
8.58776e-05
-1.52428e-06
8.59969e-05
-1.61477e-06
8.60781e-05
-1.63337e-06
8.61012e-05
-1.55925e-06
8.60482e-05
-1.38047e-06
8.59119e-05
-1.10676e-06
8.57033e-05
-7.75454e-07
8.54461e-05
-4.3838e-07
8.51654e-05
-1.3981e-07
8.48796e-05
9.52517e-08
8.45995e-05
2.59325e-07
8.43302e-05
3.55606e-07
8.40738e-05
3.91992e-07
8.38309e-05
3.77076e-07
3.16974e-07
8.36009e-05
8.69093e-05
-2.09761e-08
8.68908e-05
-4.5847e-08
8.68784e-05
-5.25869e-08
8.68782e-05
-4.8332e-08
8.68935e-05
-4.0259e-08
8.69241e-05
-3.89544e-08
8.69683e-05
-5.27218e-08
8.70244e-05
-8.61346e-08
8.70913e-05
-1.41797e-07
8.71685e-05
-2.21313e-07
8.72559e-05
-3.25477e-07
8.73538e-05
-4.5421e-07
8.7462e-05
-6.06238e-07
8.75804e-05
-7.78561e-07
8.77079e-05
-9.65798e-07
8.78418e-05
-1.15955e-06
8.7978e-05
-1.34786e-06
8.81095e-05
-1.51492e-06
8.82262e-05
-1.64103e-06
8.83143e-05
-1.70287e-06
8.83558e-05
-1.67482e-06
8.8331e-05
-1.53448e-06
8.82265e-05
-1.27598e-06
8.80446e-05
-9.24838e-07
8.78043e-05
-5.3515e-07
8.75311e-05
-1.65186e-07
8.72462e-05
1.45053e-07
8.6963e-05
3.78448e-07
8.66883e-05
5.34033e-07
8.6425e-05
6.18969e-07
8.61738e-05
6.43148e-07
8.59348e-05
6.16038e-07
5.44391e-07
8.57074e-05
8.93982e-05
-1.36627e-08
8.93874e-05
-3.49904e-08
8.93813e-05
-4.6528e-08
8.93851e-05
-5.20784e-08
8.94018e-05
-5.70087e-08
8.94321e-05
-6.92192e-08
8.94749e-05
-9.55105e-08
8.9529e-05
-1.40295e-07
8.95937e-05
-2.06462e-07
8.96683e-05
-2.95944e-07
8.97526e-05
-4.09794e-07
8.98464e-05
-5.48024e-07
8.99494e-05
-7.09208e-07
9.00607e-05
-8.89867e-07
9.01787e-05
-1.08373e-06
9.03001e-05
-1.28104e-06
9.04202e-05
-1.4679e-06
9.05313e-05
-1.62599e-06
9.06226e-05
-1.73236e-06
9.06795e-05
-1.7598e-06
9.0684e-05
-1.67929e-06
9.06187e-05
-1.4692e-06
9.04765e-05
-1.13373e-06
9.02673e-05
-7.15638e-07
9.00137e-05
-2.8161e-07
8.97391e-05
1.0946e-07
8.94598e-05
4.24328e-07
8.91851e-05
6.53166e-07
8.89192e-05
7.99953e-07
8.86636e-05
8.74527e-07
8.84187e-05
8.88017e-07
8.81844e-05
8.50404e-07
7.68905e-07
8.79598e-05
9.19562e-05
-1.00315e-08
9.19511e-05
-2.99086e-08
9.19503e-05
-4.57273e-08
9.19578e-05
-5.9504e-08
9.19762e-05
-7.53938e-08
9.20063e-05
-9.93931e-08
9.20479e-05
-1.37051e-07
9.21e-05
-1.92438e-07
9.2162e-05
-2.6849e-07
9.22334e-05
-3.67275e-07
9.23135e-05
-4.89951e-07
9.2402e-05
-6.36502e-07
9.24981e-05
-8.05263e-07
9.26004e-05
-9.92222e-07
9.27069e-05
-1.19022e-06
9.2814e-05
-1.38813e-06
9.29163e-05
-1.57025e-06
9.30061e-05
-1.71578e-06
9.30725e-05
-1.79868e-06
9.31008e-05
-1.78818e-06
9.30744e-05
-1.65285e-06
9.29795e-05
-1.37427e-06
9.28148e-05
-9.69084e-07
9.25952e-05
-4.95965e-07
9.23428e-05
-2.92145e-08
9.2077e-05
3.75276e-07
9.18099e-05
6.91386e-07
9.15478e-05
9.15244e-07
9.12934e-05
1.05438e-06
9.10475e-05
1.12041e-06
9.08103e-05
1.12521e-06
9.05817e-05
1.07906e-06
9.89542e-07
9.0361e-05
9.45859e-05
-8.78979e-09
9.4585e-05
-2.90249e-08
9.45883e-05
-4.90368e-08
9.45988e-05
-6.99777e-08
9.46186e-05
-9.52228e-08
9.46487e-05
-1.29465e-07
9.46889e-05
-1.77265e-07
9.47388e-05
-2.42288e-07
9.47976e-05
-3.27354e-07
9.48649e-05
-4.34514e-07
9.49398e-05
-5.64897e-07
9.50217e-05
-7.1836e-07
9.51094e-05
-8.92932e-07
9.52012e-05
-1.08406e-06
9.52947e-05
-1.28373e-06
9.53862e-05
-1.47959e-06
9.54702e-05
-1.65425e-06
9.55391e-05
-1.78473e-06
9.55826e-05
-1.84217e-06
9.55872e-05
-1.7928e-06
9.55383e-05
-1.60398e-06
9.54263e-05
-1.26223e-06
9.52543e-05
-7.97049e-07
9.50383e-05
-2.80025e-07
9.47981e-05
2.10965e-07
9.45488e-05
6.24603e-07
9.42991e-05
9.41099e-07
9.40532e-05
1.16111e-06
9.3813e-05
1.29463e-06
9.3579e-05
1.35443e-06
9.33513e-05
1.35284e-06
9.31301e-05
1.30032e-06
1.2047e-06
9.29149e-05
9.72898e-05
-9.05273e-09
9.72918e-05
-3.10471e-08
9.72981e-05
-5.53237e-08
9.73108e-05
-8.26876e-08
9.73316e-05
-1.16023e-07
9.73613e-05
-1.59144e-07
9.73999e-05
-2.15858e-07
9.7447e-05
-2.89418e-07
9.75021e-05
-3.82437e-07
9.75644e-05
-4.96836e-07
9.76331e-05
-6.33612e-07
9.77072e-05
-7.92419e-07
9.77852e-05
-9.70956e-07
9.78653e-05
-1.16415e-06
9.79448e-05
-1.36324e-06
9.80201e-05
-1.55485e-06
9.8086e-05
-1.72017e-06
9.81357e-05
-1.83438e-06
9.81598e-05
-1.86635e-06
9.8147e-05
-1.77999e-06
9.80855e-05
-1.54243e-06
9.7969e-05
-1.14579e-06
9.78031e-05
-6.3115e-07
9.76026e-05
-7.95468e-08
9.73835e-05
4.30119e-07
9.71569e-05
8.51193e-07
9.69291e-05
1.16892e-06
9.6703e-05
1.38721e-06
9.64799e-05
1.51773e-06
9.62603e-05
1.57397e-06
9.60447e-05
1.56851e-06
9.58331e-05
1.51192e-06
1.41221e-06
9.56256e-05
0.00010007
-1.02159e-08
0.000100074
-3.49378e-08
0.000100082
-6.35407e-08
0.000100096
-9.67486e-08
0.000100118
-1.37138e-07
0.000100146
-1.87928e-07
0.000100183
-2.52351e-07
0.000100227
-3.33276e-07
0.000100277
-4.3306e-07
0.000100334
-5.53419e-07
0.000100395
-6.9515e-07
0.000100461
-8.57665e-07
0.000100528
-1.03834e-06
0.000100596
-1.23165e-06
0.000100661
-1.42825e-06
0.00010072
-1.61399e-06
0.000100769
-1.76902e-06
0.000100801
-1.86718e-06
0.000100811
-1.87564e-06
0.000100787
-1.7568e-06
0.000100723
-1.47814e-06
0.000100614
-1.03686e-06
0.000100466
-4.83119e-07
0.000100291
9.56951e-08
0.0001001
6.20824e-07
9.9902e-05
1.04944e-06
9.97005e-05
1.37038e-06
9.9498e-05
1.58974e-06
9.92955e-05
1.72028e-06
9.90935e-05
1.77589e-06
9.88928e-05
1.76928e-06
9.86937e-05
1.71103e-06
1.60934e-06
9.84965e-05
0.00010293
-1.18619e-08
0.000102935
-3.98687e-08
0.000102944
-7.27511e-08
0.000102958
-1.11272e-07
0.000102979
-1.5781e-07
0.000103006
-2.15167e-07
0.00010304
-2.86132e-07
0.00010308
-3.73217e-07
0.000103125
-4.78506e-07
0.000103176
-6.0347e-07
0.000103229
-7.4867e-07
0.000103285
-9.13265e-07
0.000103341
-1.09434e-06
0.000103395
-1.28606e-06
0.000103445
-1.47869e-06
0.000103489
-1.65759e-06
0.000103522
-1.80236e-06
0.000103541
-1.88602e-06
0.00010354
-1.8748e-06
0.000103514
-1.73025e-06
0.000103456
-1.42035e-06
0.000103365
-9.45891e-07
0.000103245
-3.62929e-07
0.000103103
2.3734e-07
0.000102948
7.76413e-07
0.000102783
1.21389e-06
0.000102613
1.54079e-06
0.000102438
1.76452e-06
0.00010226
1.89839e-06
0.000102079
1.95652e-06
0.000101897
1.95164e-06
0.000101714
1.89433e-06
1.79288e-06
0.00010153
0.000105871
-1.36965e-08
0.000105876
-4.5176e-08
0.000105885
-8.21306e-08
0.000105899
-1.25404e-07
0.000105919
-1.7724e-07
0.000105944
-2.4013e-07
0.000105974
-3.16503e-07
0.000106009
-4.08545e-07
0.000106049
-5.18056e-07
0.000106092
-6.46252e-07
0.000106137
-7.93448e-07
0.000106182
-9.58576e-07
0.000106226
-1.13851e-06
0.000106267
-1.32722e-06
0.000106303
-1.51484e-06
0.000106332
-1.68661e-06
0.000106352
-1.822e-06
0.00010636
-1.8939e-06
0.000106353
-1.8683e-06
0.00010633
-1.70655e-06
0.000106286
-1.37689e-06
0.000106222
-8.81556e-07
0.000106138
-2.78923e-07
0.000106037
3.38049e-07
0.000105923
8.90582e-07
0.000105798
1.33901e-06
0.000105664
1.67515e-06
0.000105521
1.90686e-06
0.000105372
2.04766e-06
0.000105217
2.11169e-06
0.000105057
2.11162e-06
0.000104893
2.05799e-06
1.95913e-06
0.000104727
0.000108895
-1.55025e-08
0.0001089
-5.03134e-08
0.000108909
-9.09491e-08
0.000108922
-1.3834e-07
0.000108939
-1.94627e-07
0.000108961
-2.62047e-07
0.000108988
-3.42722e-07
0.000109018
-4.38534e-07
0.000109051
-5.51003e-07
0.000109085
-6.81089e-07
0.000109121
-8.28881e-07
0.000109155
-9.93125e-07
0.000109187
-1.17058e-06
0.000109215
-1.3552e-06
0.000109238
-1.53721e-06
0.000109253
-1.70211e-06
0.000109261
-1.82976e-06
0.000109261
-1.89349e-06
0.000109252
-1.85983e-06
0.000109236
-1.69051e-06
0.000109213
-1.35366e-06
0.000109182
-8.50438e-07
0.000109141
-2.37858e-07
0.000109087
3.91305e-07
0.000109021
9.57201e-07
0.000108941
1.41905e-06
0.000108848
1.768e-06
0.000108743
2.0116e-06
0.000108628
2.16317e-06
0.000108503
2.23669e-06
0.00010837
2.24472e-06
0.00010823
2.1977e-06
2.10401e-06
0.000108085
0.000112006
-1.71086e-08
0.000112011
-5.48141e-08
0.000112018
-9.85451e-08
0.000112029
-1.49316e-07
0.000112044
-2.09175e-07
0.000112062
-2.80132e-07
0.000112083
-3.64029e-07
0.000112107
-4.62459e-07
0.000112133
-5.76667e-07
0.000112159
-7.07372e-07
0.000112185
-8.54468e-07
0.000112208
-1.01658e-06
0.000112228
-1.19045e-06
0.000112243
-1.3702e-06
0.000112252
-1.54639e-06
0.000112255
-1.70514e-06
0.000112252
-1.82714e-06
0.000112246
-1.88682e-06
0.000112238
-1.8519e-06
0.000112232
-1.68511e-06
0.000112233
-1.35414e-06
0.000112239
-8.56735e-07
0.000112246
-2.44746e-07
0.000112246
3.91457e-07
0.000112233
9.70316e-07
0.000112204
1.44802e-06
0.000112158
1.81349e-06
0.000112097
2.07307e-06
0.000112021
2.23947e-06
0.000111931
2.32632e-06
0.00011183
2.34598e-06
0.000111719
2.30878e-06
2.22304e-06
0.0001116
0.000115206
-1.83663e-08
0.000115209
-5.8249e-08
0.000115215
-1.04288e-07
0.000115223
-1.57582e-07
0.000115234
-2.20087e-07
0.000115248
-2.93589e-07
0.000115263
-3.79655e-07
0.00011528
-4.79596e-07
0.000115298
-5.94394e-07
0.000115315
-7.24546e-07
0.000115331
-8.69789e-07
0.000115343
-1.0287e-06
0.00011535
-1.19811e-06
0.000115353
-1.37247e-06
0.000115349
-1.54292e-06
0.00011534
-1.6965e-06
0.000115329
-1.81518e-06
0.000115317
-1.875e-06
0.00011531
-1.84557e-06
0.000115316
-1.69119e-06
0.000115341
-1.3791e-06
0.000115387
-9.01835e-07
0.000115444
-3.0243e-07
0.000115502
3.3405e-07
0.000115548
9.24351e-07
0.000115576
1.4198e-06
0.000115584
1.80538e-06
0.000115572
2.08513e-06
0.000115541
2.27062e-06
0.000115492
2.3749e-06
0.000115428
2.41001e-06
0.000115351
2.38608e-06
2.31136e-06
0.000115262
0.000118497
-1.91306e-08
0.000118499
-6.01878e-08
0.000118502
-1.07533e-07
0.000118507
-1.62367e-07
0.000118513
-2.26537e-07
0.000118521
-3.0159e-07
0.00011853
-3.8881e-07
0.00011854
-4.89221e-07
0.000118549
-6.03552e-07
0.000118557
-7.32099e-07
0.000118561
-8.74484e-07
0.000118562
-1.0293e-06
0.000118557
-1.19358e-06
0.000118547
-1.36223e-06
0.000118531
-1.52719e-06
0.000118512
-1.67667e-06
0.000118491
-1.79428e-06
0.000118474
-1.85814e-06
0.000118468
-1.8403e-06
0.000118485
-1.7073e-06
0.000118532
-1.42633e-06
0.000118614
-9.83817e-07
0.000118722
-4.10868e-07
0.00011884
2.16496e-07
0.00011895
8.14583e-07
0.000119041
1.32846e-06
0.000119109
1.73721e-06
0.000119153
2.04123e-06
0.000119173
2.25022e-06
0.000119172
2.37628e-06
0.000119151
2.43096e-06
0.000119113
2.42411e-06
2.36383e-06
0.000119061
0.000121881
-1.92398e-08
0.000121881
-6.01457e-08
0.000121881
-1.07557e-07
0.000121882
-1.62813e-07
0.000121883
-2.27618e-07
0.000121885
-3.0324e-07
0.000121886
-3.90658e-07
0.000121888
-4.90596e-07
0.000121888
-6.03524e-07
0.000121885
-7.29557e-07
0.000121879
-8.68242e-07
0.000121868
-1.01824e-06
0.000121851
-1.17689e-06
0.000121829
-1.33963e-06
0.000121801
-1.49938e-06
0.00012177
-1.64573e-06
0.00012174
-1.76418e-06
0.000121717
-1.83529e-06
0.000121711
-1.83402e-06
0.000121733
-1.7298e-06
0.000121797
-1.49056e-06
0.000121911
-1.09696e-06
0.000122066
-5.66166e-07
0.000122243
3.91778e-08
0.00012242
6.38e-07
0.000122579
1.16875e-06
0.000122714
1.6026e-06
0.000122821
1.93459e-06
0.000122899
2.17147e-06
0.000122952
2.32387e-06
0.00012298
2.40257e-06
0.000122987
2.41698e-06
2.37491e-06
0.000122976
0.000125363
-1.84871e-08
0.00012536
-5.75105e-08
0.000125356
-1.03465e-07
0.000125351
-1.57885e-07
0.000125346
-2.22265e-07
0.00012534
-2.97527e-07
0.000125334
-3.84292e-07
0.000125326
-4.8295e-07
0.000125316
-5.93704e-07
0.000125303
-7.16496e-07
0.000125286
-8.50819e-07
0.000125263
-9.9545e-07
0.000125234
-1.14807e-06
0.000125199
-1.30478e-06
0.000125159
-1.45952e-06
0.000125117
-1.60341e-06
0.000125077
-1.724e-06
0.000125046
-1.80456e-06
0.000125035
-1.82328e-06
0.000125059
-1.75305e-06
0.000125132
-1.56364e-06
0.000125266
-1.23144e-06
0.00012546
-7.59505e-07
0.000125692
-1.9299e-07
0.000125935
3.94727e-07
0.000126167
9.3709e-07
0.000126373
1.39582e-06
0.00012655
1.75845e-06
0.000126694
2.0273e-06
0.000126807
2.21067e-06
0.000126891
2.31812e-06
0.00012695
2.35837e-06
2.33876e-06
0.000126986
0.000128943
-1.65737e-08
0.000128937
-5.14188e-08
0.000128928
-9.40442e-08
0.000128916
-1.46239e-07
0.000128903
-2.09152e-07
0.000128889
-2.83246e-07
0.000128873
-3.68693e-07
0.000128856
-4.65489e-07
0.000128835
-5.73536e-07
0.000128812
-6.9259e-07
0.000128783
-8.22103e-07
0.000128748
-9.60987e-07
0.000128708
-1.10729e-06
0.000128661
-1.25781e-06
0.000128609
-1.40755e-06
0.000128554
-1.54921e-06
0.000128503
-1.67247e-06
0.000128462
-1.76338e-06
0.000128442
-1.8036e-06
0.000128459
-1.76991e-06
0.00012853
-1.63506e-06
0.000128672
-1.37353e-06
0.000128889
-9.76294e-07
0.000129165
-4.68648e-07
0.000129469
9.02048e-08
0.000129773
6.33308e-07
0.000130056
1.11287e-06
0.000130308
1.50673e-06
0.000130524
1.8107e-06
0.000130706
2.02942e-06
0.000130853
2.17052e-06
0.00013097
2.24157e-06
2.24911e-06
0.00013106
0.000132626
-1.30175e-08
0.000132615
-4.05455e-08
0.000132598
-7.75297e-08
0.000132578
-1.26019e-07
0.000132555
-1.86552e-07
0.000132531
-2.58934e-07
0.000132505
-3.42735e-07
0.000132477
-4.37444e-07
0.000132446
-5.42595e-07
0.000132411
-6.57731e-07
0.000132371
-7.82251e-07
0.000132326
-9.152e-07
0.000132273
-1.055e-06
0.000132215
-1.19911e-06
0.000132151
-1.34361e-06
0.000132084
-1.48271e-06
0.00013202
-1.60823e-06
0.000131965
-1.70896e-06
0.000131932
-1.77007e-06
0.000131934
-1.77246e-06
0.000131992
-1.69283e-06
0.000132125
-1.50641e-06
0.000132345
-1.1961e-06
0.000132644
-7.68188e-07
0.000132996
-2.61815e-07
0.000133366
2.63476e-07
0.000133726
7.53545e-07
0.000134057
1.17522e-06
0.000134353
1.51532e-06
0.000134609
1.77289e-06
0.000134827
1.95234e-06
0.000135009
2.05939e-06
2.09923e-06
0.000135159
0.000136412
-6.97197e-09
0.000136394
-2.27143e-08
0.000136368
-5.12206e-08
0.000136337
-9.45721e-08
0.000136302
-1.52177e-07
0.000136266
-2.22835e-07
0.000136229
-3.0525e-07
0.000136189
-3.98209e-07
0.000136148
-5.00776e-07
0.000136102
-6.12235e-07
0.000136052
-7.31906e-07
0.000135996
-8.58949e-07
0.000135933
-9.92133e-07
0.000135863
-1.12954e-06
0.000135788
-1.26825e-06
0.000135709
-1.40391e-06
0.000135631
-1.5303e-06
0.000135561
-1.63884e-06
0.000135509
-1.71806e-06
0.000135489
-1.753e-06
0.000135522
-1.72488e-06
0.000135627
-1.61196e-06
0.000135825
-1.39404e-06
0.00013612
-1.0631e-06
0.000136494
-6.35988e-07
0.000136913
-1.55682e-07
0.000137342
3.25173e-07
0.000137753
7.64144e-07
0.000138131
1.13702e-06
0.000138469
1.4346e-06
0.000138765
1.65616e-06
0.000139021
1.80429e-06
1.88191e-06
0.000139238
0.000140306
3.15777e-09
0.000140277
5.81889e-09
0.000140237
-1.08706e-08
0.00014019
-4.8087e-08
0.000140141
-1.03066e-07
0.000140091
-1.73002e-07
0.000140041
-2.55267e-07
0.000139991
-3.4765e-07
0.000139939
-4.4862e-07
0.000139884
-5.57158e-07
0.000139824
-6.72495e-07
0.000139759
-7.93894e-07
0.000139687
-9.20437e-07
0.000139609
-1.05078e-06
0.000139523
-1.18287e-06
0.000139433
-1.31364e-06
0.000139341
-1.43864e-06
0.000139254
-1.55165e-06
0.00013918
-1.64425e-06
0.000139133
-1.70537e-06
0.000139129
-1.72084e-06
0.00013919
-1.67339e-06
0.00013934
-1.54419e-06
0.000139595
-1.31812e-06
0.000139953
-9.93637e-07
0.000140389
-5.91309e-07
0.000140865
-1.50927e-07
0.000141345
2.83339e-07
0.000141805
6.77187e-07
0.000142229
1.01076e-06
0.00014261
1.27548e-06
0.000142945
1.46867e-06
1.5894e-06
0.000143238
0.000144307
2.05715e-08
0.000144261
5.16869e-08
0.0001442
5.02133e-08
0.000144133
1.87703e-08
0.000144066
-3.56742e-08
0.000144001
-1.07679e-07
0.000143938
-1.92529e-07
0.000143877
-2.86638e-07
0.000143816
-3.87796e-07
0.000143754
-4.94712e-07
0.000143688
-6.06572e-07
0.000143617
-7.22775e-07
0.000143539
-8.4271e-07
0.000143454
-9.6554e-07
0.000143361
-1.08997e-06
0.000143261
-1.21401e-06
0.000143157
-1.33471e-06
0.000143053
-1.44784e-06
0.000142957
-1.54762e-06
0.000142878
-1.62638e-06
0.000142831
-1.67417e-06
0.000142836
-1.67857e-06
0.000142917
-1.62486e-06
0.000143097
-1.49777e-06
0.000143389
-1.28624e-06
0.000143789
-9.91076e-07
0.000144269
-6.3067e-07
0.00014479
-2.37997e-07
0.000145317
1.5048e-07
0.000145822
5.05271e-07
0.00014629
8.07458e-07
0.000146713
1.04618e-06
1.214e-06
0.000147088
0.000148416
5.21156e-08
0.000148341
1.26778e-07
0.000148249
1.42267e-07
0.000148155
1.12892e-07
0.000148066
5.35124e-08
0.000147985
-2.62239e-08
0.00014791
-1.1843e-07
0.000147842
-2.17827e-07
0.000147775
-3.21694e-07
0.000147709
-4.28691e-07
0.000147641
-5.38126e-07
0.000147568
-6.49645e-07
0.000147488
-7.62992e-07
0.0001474
-8.77801e-07
0.000147304
-9.93419e-07
0.000147199
-1.10873e-06
0.000147086
-1.22194e-06
0.000146968
-1.33043e-06
0.000146851
-1.43052e-06
0.000146742
-1.51725e-06
0.000146652
-1.58423e-06
0.000146597
-1.62333e-06
0.000146597
-1.62466e-06
0.000146676
-1.57678e-06
0.000146858
-1.46808e-06
0.000147157
-1.29003e-06
0.000147568
-1.04234e-06
0.000148068
-7.37443e-07
0.000148618
-3.99457e-07
0.000149181
-5.76226e-08
0.000149727
2.61322e-07
0.000150236
5.36421e-07
7.50305e-07
0.0001507
0.000152629
1.12701e-07
0.000152503
2.52598e-07
0.000152365
2.80177e-07
0.000152236
2.41794e-07
0.000152123
1.66239e-07
0.000152028
6.91322e-08
0.000151947
-3.7395e-08
0.000151876
-1.46618e-07
0.00015181
-2.5606e-07
0.000151746
-3.64895e-07
0.000151681
-4.72878e-07
0.000151611
-5.80094e-07
0.000151535
-6.86743e-07
0.00015145
-7.92948e-07
0.000151355
-8.98615e-07
0.00015125
-1.0033e-06
0.000151134
-1.10608e-06
0.000151009
-1.20545e-06
0.000150878
-1.29926e-06
0.000150745
-1.3846e-06
0.000150619
-1.4577e-06
0.000150509
-1.51378e-06
0.000150431
-1.54696e-06
0.000150405
-1.5503e-06
0.000150453
-1.51595e-06
0.000150599
-1.43591e-06
0.00015086
-1.30355e-06
0.000151239
-1.11641e-06
0.000151719
-8.79363e-07
0.000152267
-6.06257e-07
0.000152847
-3.17961e-07
0.000153422
-3.85691e-08
2.0516e-07
0.000153967
0.000156932
2.325e-07
0.000156716
4.68612e-07
0.000156511
4.84932e-07
0.000156341
4.11545e-07
0.000156208
2.99429e-07
0.000156107
1.7055e-07
0.000156028
4.11507e-08
0.000155964
-8.25003e-08
0.000155908
-1.99971e-07
0.000155855
-3.11907e-07
0.000155801
-4.18978e-07
0.000155743
-5.21926e-07
0.000155677
-6.21501e-07
0.000155603
-7.18352e-07
0.000155517
-8.1295e-07
0.000155419
-9.05433e-07
0.000155309
-9.95468e-07
0.000155186
-1.08224e-06
0.000155051
-1.16452e-06
0.000154907
-1.24076e-06
0.000154758
-1.30897e-06
0.000154611
-1.36669e-06
0.000154475
-1.41082e-06
0.000154362
-1.43769e-06
0.00015429
-1.44313e-06
0.000154276
-1.42267e-06
0.000154345
-1.37175e-06
0.000154514
-1.28616e-06
0.000154798
-1.16288e-06
0.000155193
-1.00158e-06
0.000155681
-8.06273e-07
0.00015623
-5.86905e-07
-3.63903e-07
0.000156799
0.00016129
4.80971e-07
0.000160917
8.41731e-07
0.000160623
7.78954e-07
0.000160412
6.22483e-07
0.00016027
4.41549e-07
0.000160179
2.61508e-07
0.00016012
1.00379e-07
0.000160078
-4.1238e-08
0.000160046
-1.68082e-07
0.000160018
-2.8343e-07
0.000159988
-3.8937e-07
0.000159954
-4.87582e-07
0.000159912
-5.79376e-07
0.000159859
-6.65861e-07
0.000159795
-7.48095e-07
0.000159716
-8.26898e-07
0.000159623
-9.02504e-07
0.000159515
-9.74495e-07
0.000159393
-1.04204e-06
0.000159256
-1.10424e-06
0.000159107
-1.16017e-06
0.00015895
-1.2088e-06
0.000158788
-1.24876e-06
0.000158628
-1.27838e-06
0.000158481
-1.29564e-06
0.000158357
-1.29851e-06
0.00015827
-1.28501e-06
0.000158237
-1.25336e-06
0.000158276
-1.20194e-06
0.000158404
-1.12924e-06
0.000158632
-1.03414e-06
0.000158961
-9.16105e-07
-7.78311e-07
0.000159375
0.000165512
1.12213e-06
0.000164902
1.45203e-06
0.000164551
1.12995e-06
0.00016434
8.33405e-07
0.000164233
5.49114e-07
0.000164192
3.02337e-07
0.000164185
1.07018e-07
0.000164196
-5.16941e-08
0.000164214
-1.86798e-07
0.000164235
-3.04157e-07
0.000164253
-4.07307e-07
0.000164265