/*--------------------------------*- C++ -*----------------------------------*\
  =========                 |
  \\      /  F ield         | OpenFOAM: The Open Source CFD Toolbox
   \\    /   O peration     | Website:  https://openfoam.org
    \\  /    A nd           | Version:  10
     \\/     M anipulation  |
\*---------------------------------------------------------------------------*/
FoamFile
{
    format      ascii;
    class       volVectorField;
    location    "100";
    object      U;
}
// * * * * * * * * * * * * * * * * * * * * * * * * * * * * * * * * * * * * * //

dimensions      [0 1 -1 0 0 0 0];

internalField   nonuniform List<vector> 
6820
(
(7.13228 -2.83249 0)
(7.73451 -2.22098 0)
(7.93496 -1.24477 0)
(7.85917 -0.630877 0)
(7.69612 -0.301452 0)
(7.52286 -0.135893 0)
(7.35721 -0.0543423 0)
(7.20612 -0.0142991 0)
(7.07285 0.00515196 0)
(6.95723 0.0143515 0)
(6.85739 0.018192 0)
(6.77072 0.018888 0)
(6.69497 0.0178041 0)
(6.62925 0.0160699 0)
(6.57354 0.0143527 0)
(6.52739 0.012705 0)
(6.48931 0.0108644 0)
(6.45756 0.00870794 0)
(6.43123 0.00643882 0)
(6.41037 0.00440665 0)
(6.3953 0.00281735 0)
(6.38577 0.00161365 0)
(6.38083 0.000576944 0)
(6.37936 -0.000454381 0)
(6.37985 -0.00149553 0)
(6.38178 -0.00251219 0)
(6.38555 -0.00345233 0)
(6.39198 -0.00431479 0)
(6.40201 -0.00522816 0)
(6.41612 -0.00658605 0)
(6.43684 -0.00857295 0)
(6.46197 -0.0130217 0)
(6.50953 -0.0202765 0)
(7.57676 0.619444 0)
(7.41872 0.759203 0)
(7.35572 0.519186 0)
(7.3545 0.338507 0)
(7.40574 0.232687 0)
(7.4647 0.166097 0)
(7.50594 0.122985 0)
(7.52742 0.095017 0)
(7.53473 0.0765945 0)
(7.53279 0.0642031 0)
(7.52462 0.0551046 0)
(7.51192 0.047434 0)
(7.49602 0.0407851 0)
(7.47865 0.0355489 0)
(7.4616 0.0316808 0)
(7.44573 0.028373 0)
(7.43081 0.0247474 0)
(7.41639 0.0206116 0)
(7.40272 0.0164913 0)
(7.39073 0.0130296 0)
(7.38131 0.0104225 0)
(7.3747 0.00834285 0)
(7.37054 0.00628602 0)
(7.36823 0.00395704 0)
(7.36791 0.00137509 0)
(7.36983 -0.00131289 0)
(7.37435 -0.0039753 0)
(7.38196 -0.00665474 0)
(7.39314 -0.0096742 0)
(7.4082 -0.0137994 0)
(7.42816 -0.019638 0)
(7.45259 -0.0308011 0)
(7.48488 -0.0451804 0)
(7.26194 -0.0479633 0)
(7.15995 -0.0721144 0)
(7.19733 -0.0849202 0)
(7.24027 -0.0540537 0)
(7.27829 -0.018213 0)
(7.31755 0.00498792 0)
(7.35188 0.018727 0)
(7.37897 0.0272714 0)
(7.40051 0.0326433 0)
(7.41794 0.0356419 0)
(7.43188 0.0363645 0)
(7.44285 0.0351845 0)
(7.45161 0.033194 0)
(7.45917 0.0313542 0)
(7.46644 0.0296298 0)
(7.47377 0.0272591 0)
(7.48103 0.0237512 0)
(7.48815 0.0194822 0)
(7.49554 0.0153438 0)
(7.50392 0.011955 0)
(7.51377 0.00924747 0)
(7.52509 0.00668384 0)
(7.53754 0.00374883 0)
(7.55076 0.00025067 0)
(7.5647 -0.00367409 0)
(7.57959 -0.00775958 0)
(7.59583 -0.0118464 0)
(7.61384 -0.0160834 0)
(7.63394 -0.0209455 0)
(7.65618 -0.0272906 0)
(7.68093 -0.0360741 0)
(7.70696 -0.0497662 0)
(7.73468 -0.0686802 0)
(7.29243 -0.088794 0)
(7.22405 -0.0617777 0)
(7.23533 -0.0274806 0)
(7.25231 -0.00193892 0)
(7.26769 0.0175676 0)
(7.28828 0.028573 0)
(7.3094 0.0336567 0)
(7.32829 0.0360309 0)
(7.34543 0.0369818 0)
(7.36127 0.0366609 0)
(7.37589 0.0351189 0)
(7.38951 0.0327915 0)
(7.40251 0.0303015 0)
(7.41529 0.027871 0)
(7.42819 0.0251234 0)
(7.44139 0.0215573 0)
(7.45495 0.0171634 0)
(7.469 0.0125132 0)
(7.48383 0.00824964 0)
(7.49976 0.00455455 0)
(7.51693 0.00110169 0)
(7.53519 -0.00257475 0)
(7.55432 -0.00672073 0)
(7.5741 -0.0112808 0)
(7.59447 -0.0160226 0)
(7.61552 -0.0207241 0)
(7.63742 -0.0254002 0)
(7.6603 -0.0303894 0)
(7.68415 -0.0362813 0)
(7.70877 -0.0438769 0)
(7.73396 -0.0539662 0)
(7.75851 -0.068042 0)
(7.78167 -0.0857509 0)
(7.31244 -0.0515926 0)
(7.26807 -0.0322632 0)
(7.26518 -0.0133837 0)
(7.26884 -0.00129158 0)
(7.27532 0.0112405 0)
(7.28774 0.0201351 0)
(7.30198 0.0249421 0)
(7.3156 0.0275697 0)
(7.3287 0.0288309 0)
(7.34156 0.0288436 0)
(7.35425 0.027844 0)
(7.36694 0.0261554 0)
(7.37976 0.0239579 0)
(7.39287 0.0212168 0)
(7.40647 0.0177905 0)
(7.42083 0.01365 0)
(7.43614 0.00901997 0)
(7.45249 0.00427201 0)
(7.46998 -0.000353533 0)
(7.48866 -0.00489625 0)
(7.50851 -0.00955912 0)
(7.5294 -0.014485 0)
(7.55114 -0.0196346 0)
(7.57352 -0.0248458 0)
(7.59639 -0.0299697 0)
(7.61958 -0.034987 0)
(7.64297 -0.0400993 0)
(7.66634 -0.0457173 0)
(7.68941 -0.0523498 0)
(7.71173 -0.0605406 0)
(7.73271 -0.0707537 0)
(7.75115 -0.0836388 0)
(7.76573 -0.0986519 0)
(7.3203 -0.031556 0)
(7.28865 -0.0243214 0)
(7.28259 -0.0129863 0)
(7.2826 -0.00361512 0)
(7.28613 0.00702255 0)
(7.29452 0.0151491 0)
(7.30485 0.0198913 0)
(7.31524 0.022522 0)
(7.32569 0.0237115 0)
(7.33638 0.0236935 0)
(7.3474 0.0226989 0)
(7.35886 0.0208541 0)
(7.37079 0.0181818 0)
(7.38334 0.0147265 0)
(7.39675 0.010588 0)
(7.41132 0.00588995 0)
(7.42719 0.000766088 0)
(7.44439 -0.00465656 0)
(7.46288 -0.0102901 0)
(7.48261 -0.0160864 0)
(7.50351 -0.021995 0)
(7.52542 -0.027924 0)
(7.54807 -0.0337457 0)
(7.57109 -0.0393491 0)
(7.59409 -0.0447095 0)
(7.61665 -0.0499226 0)
(7.63829 -0.0551908 0)
(7.6585 -0.0608 0)
(7.67667 -0.067034 0)
(7.69206 -0.0741638 0)
(7.70377 -0.082376 0)
(7.7107 -0.0918833 0)
(7.71154 -0.102213 0)
(7.32447 -0.0218169 0)
(7.30124 -0.0201774 0)
(7.29478 -0.0121045 0)
(7.29351 -0.00407032 0)
(7.29562 0.00484108 0)
(7.30172 0.0118484 0)
(7.3097 0.0161208 0)
(7.31816 0.0184558 0)
(7.32701 0.0193926 0)
(7.33636 0.0191511 0)
(7.34627 0.0178592 0)
(7.3568 0.0155599 0)
(7.36803 0.0122995 0)
(7.38014 0.00820189 0)
(7.39338 0.00340697 0)
(7.40798 -0.00200471 0)
(7.42404 -0.00798908 0)
(7.44154 -0.0144667 0)
(7.46039 -0.0212875 0)
(7.48049 -0.0282525 0)
(7.50167 -0.0351562 0)
(7.52363 -0.0418141 0)
(7.5459 -0.0480791 0)
(7.56791 -0.0538558 0)
(7.58896 -0.0591157 0)
(7.60831 -0.0638902 0)
(7.62513 -0.0682499 0)
(7.63857 -0.0722976 0)
(7.64771 -0.0761589 0)
(7.65173 -0.0800256 0)
(7.65005 -0.0841512 0)
(7.64253 -0.0888612 0)
(7.62914 -0.0942153 0)
(7.32738 -0.0151892 0)
(7.31028 -0.015903 0)
(7.30395 -0.0103279 0)
(7.30204 -0.00387963 0)
(7.30333 0.00333897 0)
(7.308 0.00919366 0)
(7.31449 0.012883 0)
(7.32174 0.0148479 0)
(7.3296 0.015464 0)
(7.33809 0.0148769 0)
(7.34727 0.0131518 0)
(7.3572 0.0103293 0)
(7.36799 0.00648247 0)
(7.37984 0.00172451 0)
(7.39297 -0.00385139 0)
(7.40753 -0.0101981 0)
(7.4236 -0.0172555 0)
(7.44111 -0.0248776 0)
(7.45996 -0.0328168 0)
(7.47993 -0.0407729 0)
(7.5007 -0.0484509 0)
(7.52175 -0.0555867 0)
(7.5424 -0.0619519 0)
(7.56175 -0.067352 0)
(7.57881 -0.0716293 0)
(7.59246 -0.0746651 0)
(7.60154 -0.0764004 0)
(7.60502 -0.0769076 0)
(7.60226 -0.0764795 0)
(7.59333 -0.0756883 0)
(7.57902 -0.075281 0)
(7.56063 -0.0759681 0)
(7.53923 -0.078272 0)
(7.32942 -0.0102265 0)
(7.31699 -0.0120043 0)
(7.3111 -0.00846801 0)
(7.30891 -0.00355149 0)
(7.30968 0.00216725 0)
(7.31339 0.0069415 0)
(7.31887 0.0100039 0)
(7.32529 0.0115365 0)
(7.33246 0.0117555 0)
(7.34037 0.0107386 0)
(7.34905 0.00852341 0)
(7.35858 0.00514875 0)
(7.36909 0.000671755 0)
(7.38076 -0.00483737 0)
(7.39375 -0.0113165 0)
(7.40818 -0.0186995 0)
(7.42408 -0.026861 0)
(7.44136 -0.0355703 0)
(7.45982 -0.0444956 0)
(7.47911 -0.053247 0)
(7.49872 -0.0614189 0)
(7.5179 -0.0686053 0)
(7.53567 -0.0744073 0)
(7.55085 -0.0784425 0)
(7.56207 -0.0803748 0)
(7.5679 -0.0799841 0)
(7.56721 -0.0773077 0)
(7.55959 -0.0728247 0)
(7.54568 -0.0674971 0)
(7.52698 -0.0625517 0)
(7.50532 -0.0591023 0)
(7.48222 -0.0578735 0)
(7.45859 -0.0593279 0)
(7.33077 -0.00670677 0)
(7.32195 -0.00881586 0)
(7.31679 -0.00674797 0)
(7.31461 -0.00315095 0)
(7.31507 0.00124451 0)
(7.3181 0.00499935 0)
(7.32283 0.0073951 0)
(7.32863 0.00842861 0)
(7.33528 0.00818404 0)
(7.34276 0.00668476 0)
(7.35107 0.00394275 0)
(7.3603 -2.57332e-05 0)
(7.37057 -0.00519584 0)
(7.38202 -0.0115273 0)
(7.39479 -0.0189574 0)
(7.40896 -0.0273762 0)
(7.42448 -0.0365857 0)
(7.44121 -0.0462711 0)
(7.45885 -0.0560052 0)
(7.47688 -0.0652746 0)
(7.49459 -0.0735051 0)
(7.511 -0.0800792 0)
(7.52484 -0.0843606 0)
(7.53456 -0.0857466 0)
(7.53857 -0.0837922 0)
(7.53555 -0.078449 0)
(7.52519 -0.0703522 0)
(7.50847 -0.0608741 0)
(7.48731 -0.0517264 0)
(7.46378 -0.0443834 0)
(7.4395 -0.0397616 0)
(7.41547 -0.0382272 0)
(7.39207 -0.0399744 0)
(7.33164 -0.00431091 0)
(7.32555 -0.00632192 0)
(7.32132 -0.00523252 0)
(7.31936 -0.0027319 0)
(7.31968 0.000494453 0)
(7.32224 0.00328754 0)
(7.32641 0.00498922 0)
(7.33172 0.00547012 0)
(7.33795 0.00471352 0)
(7.34506 0.00269373 0)
(7.35305 -0.000610727 0)
(7.362 -0.00521488 0)
(7.372 -0.0111204 0)
(7.38317 -0.0182978 0)
(7.3956 -0.0266661 0)
(7.4093 -0.0360649 0)
(7.4242 -0.0462207 0)
(7.44004 -0.0567216 0)
(7.45641 -0.0670132 0)
(7.47265 -0.0764099 0)
(7.48784 -0.0841124 0)
(7.50077 -0.0892363 0)
(7.50986 -0.0908776 0)
(7.51335 -0.0882749 0)
(7.50975 -0.0811471 0)
(7.49858 -0.0701354 0)
(7.48086 -0.0569309 0)
(7.45868 -0.0437423 0)
(7.43428 -0.0324779 0)
(7.40932 -0.0242876 0)
(7.38484 -0.0196226 0)
(7.36129 -0.0185017 0)
(7.33877 -0.0209236 0)
(7.33219 -0.00271713 0)
(7.32812 -0.00443909 0)
(7.32488 -0.00398077 0)
(7.3233 -0.00236754 0)
(7.32362 -0.000158513 0)
(7.32586 0.0017391 0)
(7.32961 0.00273818 0)
(7.33451 0.00263179 0)
(7.34038 0.00132899 0)
(7.34715 -0.00124172 0)
(7.35483 -0.0051376 0)
(7.36347 -0.0104021 0)
(7.37314 -0.0170533 0)
(7.38392 -0.0250598 0)
(7.39584 -0.0343138 0)
(7.40889 -0.0445994 0)
(7.42288 -0.0555572 0)
(7.43751 -0.0666557 0)
(7.45222 -0.0771781 0)
(7.46623 -0.0862224 0)
(7.47846 -0.0927184 0)
(7.48744 -0.0954813 0)
(7.49139 -0.0933735 0)
(7.48862 -0.0856961 0)
(7.47827 -0.072811 0)
(7.46108 -0.056503 0)
(7.43908 -0.0394414 0)
(7.41461 -0.0240775 0)
(7.38945 -0.011972 0)
(7.3647 -0.00377965 0)
(7.3409 0.000447628 0)
(7.31824 0.000922712 0)
(7.29665 -0.00223073 0)
(7.33254 -0.00168471 0)
(7.32991 -0.003083 0)
(7.32761 -0.00303017 0)
(7.3265 -0.00212051 0)
(7.32692 -0.00077991 0)
(7.32898 0.000298402 0)
(7.33242 0.000605856 0)
(7.33698 -0.000104067 0)
(7.34251 -0.00197432 0)
(7.34895 -0.00511577 0)
(7.3563 -0.00961722 0)
(7.36457 -0.0155438 0)
(7.37382 -0.0229216 0)
(7.38407 -0.0317094 0)
(7.39533 -0.0417659 0)
(7.4075 -0.052811 0)
(7.42035 -0.0643853 0)
(7.43347 -0.0758157 0)
(7.44624 -0.086193 0)
(7.45775 -0.0943652 0)
(7.46677 -0.0989593 0)
(7.47167 -0.0984951 0)
(7.47064 -0.0917403 0)
(7.46241 -0.0784429 0)
(7.4471 -0.0600646 0)
(7.42641 -0.0395386 0)
(7.40267 -0.0199734 0)
(7.37784 -0.00354557 0)
(7.35316 0.00870518 0)
(7.32928 0.0165531 0)
(7.30647 0.020208 0)
(7.28478 0.0200164 0)
(7.26409 0.0161823 0)
(7.33275 -0.00104142 0)
(7.33114 -0.00216522 0)
(7.32965 -0.00238428 0)
(7.32902 -0.00203052 0)
(7.32962 -0.00142179 0)
(7.33159 -0.00108047 0)
(7.33479 -0.00143639 0)
(7.33906 -0.00274865 0)
(7.34427 -0.00519308 0)
(7.35038 -0.00891029 0)
(7.35734 -0.0140132 0)
(7.36518 -0.0205813 0)
(7.37391 -0.0286421 0)
(7.38351 -0.038138 0)
(7.39394 -0.0488865 0)
(7.40505 -0.0605342 0)
(7.41655 -0.0725092 0)
(7.42797 -0.0839801 0)
(7.43862 -0.0938254 0)
(7.44753 -0.10062 0)
(7.45335 -0.10268 0)
(7.4544 -0.0982914 0)
(7.44909 -0.0863779 0)
(7.43681 -0.0675476 0)
(7.41856 -0.0445086 0)
(7.39647 -0.0209431 0)
(7.37264 0.000118803 0)
(7.34852 0.0169809 0)
(7.32491 0.0290708 0)
(7.30219 0.0364754 0)
(7.28049 0.0395719 0)
(7.2598 0.038784 0)
(7.23995 0.0343711 0)
(7.33287 -0.0006634 0)
(7.33196 -0.00159741 0)
(7.33112 -0.0020196 0)
(7.33094 -0.00211324 0)
(7.33175 -0.00211923 0)
(7.33369 -0.00243198 0)
(7.33671 -0.00340975 0)
(7.34072 -0.00530697 0)
(7.34562 -0.00831644 0)
(7.35135 -0.0125978 0)
(7.3579 -0.0182796 0)
(7.36523 -0.0254489 0)
(7.37333 -0.0341281 0)
(7.38216 -0.0442369 0)
(7.39163 -0.055545 0)
(7.40153 -0.0676186 0)
(7.41154 -0.079766 0)
(7.42115 -0.0909889 0)
(7.42964 -0.0999435 0)
(7.43601 -0.104925 0)
(7.4389 -0.103957 0)
(7.43668 -0.095219 0)
(7.42818 -0.0780887 0)
(7.41346 -0.054285 0)
(7.39406 -0.0275689 0)
(7.37205 -0.00190314 0)
(7.34912 0.0200282 0)
(7.3263 0.0370171 0)
(7.30409 0.0488587 0)
(7.28269 0.0558527 0)
(7.26217 0.0584804 0)
(7.24249 0.0572107 0)
(7.22351 0.0523438 0)
(7.33294 -0.000462758 0)
(7.3325 -0.00129856 0)
(7.33216 -0.00189648 0)
(7.33236 -0.00236302 0)
(7.33335 -0.00288852 0)
(7.33529 -0.00377678 0)
(7.33817 -0.00532622 0)
(7.34193 -0.0077771 0)
(7.3465 -0.011327 0)
(7.35184 -0.0161445 0)
(7.35791 -0.0223657 0)
(7.36466 -0.0300783 0)
(7.37205 -0.0392936 0)
(7.38001 -0.0499033 0)
(7.3884 -0.0616248 0)
(7.39699 -0.0739413 0)
(7.40544 -0.0860402 0)
(7.41323 -0.0967567 0)
(7.41965 -0.104527 0)
(7.42373 -0.107377 0)
(7.42415 -0.103089 0)
(7.41951 -0.0898973 0)
(7.40907 -0.0678761 0)
(7.39341 -0.0398658 0)
(7.37422 -0.0103435 0)
(7.35329 0.0167747 0)
(7.3319 0.039236 0)
(7.31073 0.05625 0)
(7.29011 0.0678793 0)
(7.27015 0.0745652 0)
(7.25089 0.0768531 0)
(7.23229 0.0752386 0)
(7.21422 0.0700531 0)
(7.33298 -0.000378372 0)
(7.33284 -0.00119882 0)
(7.33287 -0.00196791 0)
(7.33335 -0.00275807 0)
(7.3345 -0.00372828 0)
(7.33643 -0.00512091 0)
(7.33917 -0.00718733 0)
(7.34268 -0.0101496 0)
(7.34691 -0.0142015 0)
(7.35182 -0.0195126 0)
(7.35735 -0.0262188 0)
(7.36346 -0.0344022 0)
(7.37007 -0.044058 0)
(7.37707 -0.0550461 0)
(7.38432 -0.067031 0)
(7.39155 -0.0794151 0)
(7.39844 -0.0912707 0)
(7.40449 -0.101276 0)
(7.40904 -0.107663 0)
(7.4112 -0.108216 0)
(7.40979 -0.10055 0)
(7.40368 -0.0831042 0)
(7.39253 -0.0567567 0)
(7.37718 -0.0253155 0)
(7.35919 0.00634273 0)
(7.34002 0.0345168 0)
(7.32057 0.0573677 0)
(7.30131 0.0744295 0)
(7.28244 0.0859535 0)
(7.26405 0.0924732 0)
(7.24615 0.0945725 0)
(7.22872 0.0927627 0)
(7.21165 0.0873985 0)
(7.333 -0.000368288 0)
(7.33305 -0.00124024 0)
(7.33332 -0.00218556 0)
(7.334 -0.00326634 0)
(7.33524 -0.00462286 0)
(7.33714 -0.00645685 0)
(7.33972 -0.00898399 0)
(7.34297 -0.0124075 0)
(7.34684 -0.0169122 0)
(7.35128 -0.0226621 0)
(7.35625 -0.0297867 0)
(7.36165 -0.0383575 0)
(7.36742 -0.0483499 0)
(7.37342 -0.0595912 0)
(7.37949 -0.0716955 0)
(7.38538 -0.0839919 0)
(7.39077 -0.0954509 0)
(7.39522 -0.104614 0)
(7.39818 -0.109533 0)
(7.39888 -0.107797 0)
(7.39634 -0.0969287 0)
(7.38973 -0.0756634 0)
(7.37895 -0.0456602 0)
(7.36487 -0.0114698 0)
(7.34882 0.0218536 0)
(7.33187 0.0508774 0)
(7.31467 0.0741074 0)
(7.29752 0.0913164 0)
(7.28057 0.102884 0)
(7.26388 0.109403 0)
(7.24747 0.111479 0)
(7.23134 0.109631 0)
(7.2154 0.104231 0)
(7.33301 -0.000403856 0)
(7.33317 -0.00137605 0)
(7.33359 -0.00250364 0)
(7.33438 -0.00385076 0)
(7.33566 -0.00554656 0)
(7.33748 -0.00776597 0)
(7.33988 -0.0106978 0)
(7.34284 -0.0145274 0)
(7.34632 -0.0194277 0)
(7.35026 -0.0255523 0)
(7.35461 -0.0330202 0)
(7.35929 -0.0418883 0)
(7.36418 -0.0521109 0)
(7.36916 -0.0634841 0)
(7.37405 -0.0755785 0)
(7.37864 -0.0876621 0)
(7.38265 -0.098623 0)
(7.38571 -0.106893 0)
(7.3874 -0.110384 0)
(7.38713 -0.10654 0)
(7.38415 -0.0928505 0)
(7.37789 -0.0683638 0)
(7.36837 -0.0353946 0)
(7.35632 0.000985991 0)
(7.34273 0.0356696 0)
(7.32836 0.0654705 0)
(7.31366 0.0891534 0)
(7.29882 0.106657 0)
(7.28396 0.118444 0)
(7.26913 0.125144 0)
(7.25437 0.127371 0)
(7.23968 0.125646 0)
(7.22502 0.120354 0)
(7.33302 -0.000465417 0)
(7.33323 -0.00156883 0)
(7.33372 -0.0028808 0)
(7.33455 -0.00447298 0)
(7.3358 -0.0064677 0)
(7.3375 -0.00902171 0)
(7.33968 -0.0123033 0)
(7.34232 -0.016481 0)
(7.34538 -0.0217141 0)
(7.3488 -0.0281436 0)
(7.35251 -0.0358748 0)
(7.35642 -0.0449479 0)
(7.36042 -0.0552967 0)
(7.36439 -0.066691 0)
(7.36815 -0.0786671 0)
(7.37153 -0.0904489 0)
(7.37429 -0.100867 0)
(7.37619 -0.108277 0)
(7.37694 -0.110499 0)
(7.37616 -0.104882 0)
(7.37336 -0.0889191 0)
(7.36817 -0.0619126 0)
(7.36059 -0.0266472 0)
(7.35112 0.0114741 0)
(7.34041 0.0473353 0)
(7.32892 0.0779299 0)
(7.31694 0.102194 0)
(7.30461 0.120169 0)
(7.29202 0.132371 0)
(7.27922 0.139443 0)
(7.26628 0.142002 0)
(7.25322 0.140569 0)
(7.24002 0.135532 0)
(7.33302 -0.000539254 0)
(7.33325 -0.0017886 0)
(7.33375 -0.00328059 0)
(7.33456 -0.00509568 0)
(7.33571 -0.00735187 0)
(7.33725 -0.0101927 0)
(7.33918 -0.0137699 0)
(7.34146 -0.0182363 0)
(7.34407 -0.0237372 0)
(7.34694 -0.0303989 0)
(7.34999 -0.0383115 0)
(7.35313 -0.0474992 0)
(7.35625 -0.0578775 0)
(7.35923 -0.0691965 0)
(7.36193 -0.0809709 0)
(7.36419 -0.0924 0)
(7.36588 -0.102285 0)
(7.36683 -0.108946 0)
(7.36694 -0.110159 0)
(7.36604 -0.103231 0)
(7.3639 -0.0856666 0)
(7.36031 -0.0569095 0)
(7.35519 -0.019996 0)
(7.34872 0.0194925 0)
(7.3412 0.0564266 0)
(7.33285 0.0878867 0)
(7.32382 0.112893 0)
(7.3142 0.13154 0)
(7.30408 0.144362 0)
(7.29351 0.152008 0)
(7.28258 0.155089 0)
(7.27134 0.15412 0)
(7.25979 0.14949 0)
(7.33302 -0.00061547 0)
(7.33324 -0.00201117 0)
(7.33371 -0.00367084 0)
(7.33443 -0.00568352 0)
(7.33545 -0.00816399 0)
(7.33678 -0.011245 0)
(7.3384 -0.0150644 0)
(7.34031 -0.0197602 0)
(7.34244 -0.0254627 0)
(7.34474 -0.0322837 0)
(7.34712 -0.040298 0)
(7.3495 -0.0495149 0)
(7.35176 -0.0598362 0)
(7.3538 -0.0710007 0)
(7.3555 -0.0825153 0)
(7.35677 -0.0935766 0)
(7.35752 -0.102987 0)
(7.35773 -0.109072 0)
(7.35744 -0.109614 0)
(7.3567 -0.101927 0)
(7.35555 -0.0835177 0)
(7.3539 -0.0538309 0)
(7.35157 -0.0159187 0)
(7.3484 0.0245944 0)
(7.34433 0.0625327 0)
(7.33935 0.0949579 0)
(7.33349 0.120888 0)
(7.3268 0.140418 0)
(7.31936 0.154078 0)
(7.31123 0.162508 0)
(7.30253 0.166308 0)
(7.29331 0.165982 0)
(7.28361 0.161917 0)
(7.33302 -0.000686513 0)
(7.33321 -0.00221623 0)
(7.3336 -0.00402284 0)
(7.33421 -0.00620327 0)
(7.33504 -0.00886927 0)
(7.33611 -0.012144 0)
(7.33741 -0.0161526 0)
(7.3389 -0.0210187 0)
(7.34053 -0.0268579 0)
(7.34225 -0.0337672 0)
(7.34396 -0.0418076 0)
(7.34558 -0.0509758 0)
(7.34702 -0.0611654 0)
(7.34816 -0.0721133 0)
(7.34895 -0.0833339 0)
(7.34933 -0.0940423 0)
(7.34929 -0.103073 0)
(7.34892 -0.108797 0)
(7.34839 -0.109053 0)
(7.34798 -0.101208 0)
(7.34796 -0.0827617 0)
(7.34839 -0.0530137 0)
(7.349 -0.0147903 0)
(7.34932 0.0263831 0)
(7.34891 0.0652504 0)
(7.34751 0.0987424 0)
(7.34504 0.125784 0)
(7.34151 0.146417 0)
(7.33696 0.161141 0)
(7.3315 0.170574 0)
(7.32523 0.175299 0)
(7.31824 0.175805 0)
(7.31061 0.172472 0)
(7.33301 -0.000746137 0)
(7.33316 -0.0023858 0)
(7.33345 -0.00431006 0)
(7.33389 -0.00662304 0)
(7.3345 -0.00943328 0)
(7.33528 -0.0128546 0)
(7.33621 -0.0169998 0)
(7.33726 -0.0219784 0)
(7.33838 -0.0278914 0)
(7.33951 -0.0348218 0)
(7.34055 -0.0428182 0)
(7.34144 -0.0518685 0)
(7.34208 -0.061864 0)
(7.34239 -0.0725493 0)
(7.34234 -0.0834604 0)
(7.34192 -0.0938524 0)
(7.3412 -0.10262 0)
(7.34034 -0.108217 0)
(7.33966 -0.108586 0)
(7.33961 -0.101192 0)
(7.34069 -0.0835301 0)
(7.34314 -0.0546337 0)
(7.34668 -0.0168653 0)
(7.35053 0.024524 0)
(7.35391 0.0641905 0)
(7.35628 0.0988247 0)
(7.35742 0.127157 0)
(7.35726 0.149114 0)
(7.35584 0.165135 0)
(7.35327 0.1758 0)
(7.34966 0.181667 0)
(7.34513 0.183205 0)
(7.33977 0.180783 0)
(7.33301 -0.000788605 0)
(7.33309 -0.00250269 0)
(7.33325 -0.00450644 0)
(7.33349 -0.00691095 0)
(7.33384 -0.00982114 0)
(7.33429 -0.013341 0)
(7.33482 -0.0175708 0)
(7.33541 -0.0226058 0)
(7.336 -0.0285329 0)
(7.33653 -0.035422 0)
(7.33692 -0.0433113 0)
(7.3371 -0.0521836 0)
(7.33698 -0.0619337 0)
(7.33652 -0.0723229 0)
(7.33569 -0.0829223 0)
(7.33455 -0.0930453 0)
(7.33321 -0.101672 0)
(7.33192 -0.107373 0)
(7.33109 -0.108233 0)
(7.33131 -0.101863 0)
(7.33329 -0.0857784 0)
(7.3375 -0.0586763 0)
(7.34371 -0.022241 0)
(7.35099 0.0187766 0)
(7.3582 0.0590006 0)
(7.36448 0.0947873 0)
(7.36941 0.12456 0)
(7.37285 0.148055 0)
(7.3748 0.165608 0)
(7.37534 0.177743 0)
(7.37462 0.184982 0)
(7.37276 0.187769 0)
(7.3699 0.186452 0)
(7.333 -0.000807948 0)
(7.33301 -0.00254872 0)
(7.333 -0.00458422 0)
(7.33301 -0.00703306 0)
(7.33305 -0.00999581 0)
(7.33313 -0.0135656 0)
(7.33324 -0.0178292 0)
(7.33334 -0.0228675 0)
(7.33339 -0.0287533 0)
(7.33333 -0.0355444 0)
(7.33307 -0.0432707 0)
(7.33256 -0.0519135 0)
(7.33172 -0.0613763 0)
(7.33053 -0.0714449 0)
(7.32899 -0.0817363 0)
(7.32718 -0.0916371 0)
(7.32526 -0.100234 0)
(7.32353 -0.10624 0)
(7.32248 -0.107919 0)
(7.32279 -0.10307 0)
(7.32533 -0.0892777 0)
(7.33081 -0.0649054 0)
(7.33923 -0.0308029 0)
(7.34962 0.0090517 0)
(7.36054 0.0494066 0)
(7.37078 0.0862369 0)
(7.37966 0.117538 0)
(7.3869 0.142759 0)
(7.39244 0.162078 0)
(7.39634 0.175929 0)
(7.39873 0.184784 0)
(7.39977 0.189052 0)
(7.3996 0.189054 0)
(7.333 -0.000797056 0)
(7.33291 -0.00250227 0)
(7.3327 -0.00451076 0)
(7.33242 -0.0069503 0)
(7.33211 -0.00991544 0)
(7.33179 -0.0134866 0)
(7.33144 -0.0177359 0)
(7.33103 -0.0227286 0)
(7.33053 -0.0285235 0)
(7.32987 -0.035167 0)
(7.32898 -0.0426825 0)
(7.32781 -0.0510525 0)
(7.3263 -0.0601935 0)
(7.32443 -0.0699214 0)
(7.32222 -0.0799069 0)
(7.31977 -0.0896212 0)
(7.31727 -0.0982724 0)
(7.31506 -0.104735 0)
(7.31365 -0.10748 0)
(7.31379 -0.104534 0)
(7.31645 -0.0936167 0)
(7.32257 -0.0728367 0)
(7.33247 -0.0421573 0)
(7.34536 -0.00450194 0)
(7.35965 0.0352866 0)
(7.37375 0.0728529 0)
(7.38666 0.105655 0)
(7.39786 0.132737 0)
(7.40719 0.154033 0)
(7.41467 0.169848 0)
(7.42041 0.180577 0)
(7.42456 0.18658 0)
(7.42731 0.188136 0)
(7.33299 -0.000746305 0)
(7.33278 -0.00233467 0)
(7.33232 -0.00424397 0)
(7.3317 -0.00661377 0)
(7.33098 -0.00952948 0)
(7.33019 -0.0130558 0)
(7.32934 -0.0172475 0)
(7.32841 -0.0221529 0)
(7.32734 -0.0278157 0)
(7.3261 -0.0342711 0)
(7.32461 -0.041537 0)
(7.32281 -0.0495991 0)
(7.32067 -0.0583892 0)
(7.31816 -0.0677567 0)
(7.31532 -0.0774307 0)
(7.31226 -0.0869726 0)
(7.30918 -0.0957202 0)
(7.30642 -0.102723 0)
(7.3045 -0.106677 0)
(7.30417 -0.105866 0)
(7.30644 -0.0982211 0)
(7.31244 -0.0817317 0)
(7.32285 -0.0555642 0)
(7.3373 -0.0213805 0)
(7.35427 0.016787 0)
(7.3719 0.0544727 0)
(7.38875 0.0885497 0)
(7.404 0.117516 0)
(7.41729 0.140953 0)
(7.42856 0.158965 0)
(7.43786 0.171835 0)
(7.44536 0.179845 0)
(7.45123 0.183216 0)
(7.33298 -0.000641036 0)
(7.3326 -0.00200383 0)
(7.33181 -0.00372483 0)
(7.33076 -0.00595797 0)
(7.32956 -0.00877333 0)
(7.32825 -0.0122147 0)
(7.32685 -0.0163155 0)
(7.32536 -0.0211033 0)
(7.32374 -0.0266052 0)
(7.32192 -0.0328443 0)
(7.31986 -0.0398332 0)
(7.3175 -0.0475609 0)
(7.31478 -0.0559757 0)
(7.3117 -0.0649611 0)
(7.30829 -0.0743049 0)
(7.30464 -0.0836598 0)
(7.30096 -0.0924949 0)
(7.29758 -0.100039 0)
(7.29497 -0.10522 0)
(7.29387 -0.106605 0)
(7.29526 -0.102393 0)
(7.30034 -0.0906261 0)
(7.31014 -0.069902 0)
(7.32485 -0.0405966 0)
(7.34338 -0.00550471 0)
(7.36379 0.031239 0)
(7.38423 0.0660274 0)
(7.40344 0.0966979 0)
(7.42079 0.122333 0)
(7.43601 0.142732 0)
(7.44909 0.157999 0)
(7.46014 0.168305 0)
(7.46935 0.17378 0)
(7.33296 -0.000456724 0)
(7.33234 -0.00144314 0)
(7.33111 -0.00286533 0)
(7.3295 -0.00489059 0)
(7.3277 -0.00756155 0)
(7.32579 -0.0108921 0)
(7.3238 -0.0148863 0)
(7.32174 -0.0195457 0)
(7.31956 -0.0248766 0)
(7.31722 -0.0308885 0)
(7.31465 -0.0375872 0)
(7.31179 -0.0449648 0)
(7.30859 -0.0529846 0)
(7.30502 -0.0615625 0)
(7.3011 -0.070542 0)
(7.29693 -0.0796623 0)
(7.29266 -0.0885189 0)
(7.28859 -0.0965156 0)
(7.28517 -0.10281 0)
(7.28304 -0.106258 0)
(7.2831 -0.105375 0)
(7.28652 -0.0984065 0)
(7.29455 -0.0836997 0)
(7.30797 -0.0605796 0)
(7.32641 -0.0303351 0)
(7.34827 0.00384055 0)
(7.37146 0.0382506 0)
(7.39425 0.0700772 0)
(7.41555 0.0977494 0)
(7.43481 0.120613 0)
(7.45182 0.138494 0)
(7.46664 0.151383 0)
(7.4794 0.15927 0)
(7.33294 -0.000148977 0)
(7.33194 -0.000541576 0)
(7.33006 -0.0015292 0)
(7.3277 -0.00327864 0)
(7.32516 -0.00578091 0)
(7.32255 -0.00900367 0)
(7.31993 -0.0129079 0)
(7.3173 -0.0174585 0)
(7.31462 -0.0226356 0)
(7.31182 -0.0284324 0)
(7.30884 -0.0348462 0)
(7.30559 -0.0418701 0)
(7.30202 -0.0494806 0)
(7.29808 -0.0576222 0)
(7.29378 -0.0661877 0)
(7.28916 -0.0749941 0)
(7.28436 -0.0837509 0)
(7.27962 -0.0920233 0)
(7.27531 -0.0991863 0)
(7.27197 -0.104375 0)
(7.27039 -0.106439 0)
(7.2716 -0.103938 0)
(7.27688 -0.0952808 0)
(7.28741 -0.0791953 0)
(7.30368 -0.0555762 0)
(7.3249 -0.0261286 0)
(7.34924 0.00607502 0)
(7.37462 0.0378814 0)
(7.39939 0.0670071 0)
(7.42255 0.0921672 0)
(7.44356 0.112754 0)
(7.4623 0.128472 0)
(7.47882 0.139086 0)
(7.33288 0.000370244 0)
(7.33126 0.000894988 0)
(7.32839 0.000497167 0)
(7.32501 -0.000933906 0)
(7.32153 -0.00328897 0)
(7.31813 -0.00646132 0)
(7.31487 -0.0103446 0)
(7.31173 -0.0148509 0)
(7.30864 -0.0199278 0)
(7.30552 -0.0255494 0)
(7.30227 -0.0317038 0)
(7.2988 -0.0383836 0)
(7.29502 -0.0455761 0)
(7.29088 -0.0532501 0)
(7.28634 -0.06134 0)
(7.28143 -0.0697276 0)
(7.27622 -0.0782192 0)
(7.2709 -0.0865184 0)
(7.26573 -0.0941922 0)
(7.26115 -0.100631 0)
(7.25779 -0.105008 0)
(7.2565 -0.106244 0)
(7.25841 -0.103032 0)
(7.26481 -0.0940081 0)
(7.27678 -0.0782073 0)
(7.29464 -0.0557779 0)
(7.31746 -0.0283859 0)
(7.34339 0.00126809 0)
(7.37037 0.0304803 0)
(7.39678 0.057246 0)
(7.42157 0.0803298 0)
(7.44426 0.0989778 0)
(7.46471 0.112586 0)
(7.33276 0.00128782 0)
(7.33001 0.00322565 0)
(7.32561 0.00355829 0)
(7.32082 0.00240264 0)
(7.31622 7.07222e-05 0)
(7.31198 -0.00320603 0)
(7.30814 -0.00721591 0)
(7.30463 -0.0117998 0)
(7.30131 -0.0168692 0)
(7.29807 -0.022382 0)
(7.29476 -0.0283197 0)
(7.29128 -0.0346754 0)
(7.28751 -0.0414455 0)
(7.28337 -0.0486186 0)
(7.27881 -0.0561635 0)
(7.27381 -0.0640136 0)
(7.2684 -0.0720508 0)
(7.26267 -0.0800877 0)
(7.25683 -0.087846 0)
(7.25117 -0.0949303 0)
(7.24615 -0.100797 0)
(7.24241 -0.104718 0)
(7.24084 -0.105768 0)
(7.24254 -0.102842 0)
(7.24878 -0.0948047 0)
(7.2606 -0.0808578 0)
(7.27836 -0.0610787 0)
(7.30129 -0.0367596 0)
(7.32768 -0.0101054 0)
(7.35553 0.0165222 0)
(7.38311 0.0411876 0)
(7.40935 0.0624626 0)
(7.43369 0.0791459 0)
(7.33247 0.00296393 0)
(7.32762 0.00709197 0)
(7.32078 0.00822118 0)
(7.31413 0.00710969 0)
(7.30828 0.00447173 0)
(7.30329 0.000764728 0)
(7.29909 -0.00363332 0)
(7.29547 -0.00848321 0)
(7.29221 -0.0136746 0)
(7.28913 -0.0191633 0)
(7.28605 -0.024935 0)
(7.28283 -0.0309903 0)
(7.27933 -0.0373345 0)
(7.27546 -0.043972 0)
(7.27114 -0.0508982 0)
(7.26632 -0.058088 0)
(7.26098 -0.0654803 0)
(7.25517 -0.0729658 0)
(7.24898 -0.0803763 0)
(7.2426 -0.087474 0)
(7.23632 -0.0939347 0)
(7.23056 -0.0993249 0)
(7.22596 -0.103078 0)
(7.22331 -0.104479 0)
(7.22363 -0.102675 0)
(7.22808 -0.0967611 0)
(7.23772 -0.0860027 0)
(7.25315 -0.0702085 0)
(7.27408 -0.0500584 0)
(7.2992 -0.0270979 0)
(7.32666 -0.0033357 0)
(7.35472 0.019188 0)
(7.38216 0.0384297 0)
(7.3319 0.00600925 0)
(7.32295 0.0133176 0)
(7.31226 0.0150301 0)
(7.30329 0.0134851 0)
(7.29628 0.00998432 0)
(7.29088 0.00533234 0)
(7.28675 0.000165264 0)
(7.28349 -0.00520692 0)
(7.28073 -0.0106937 0)
(7.27822 -0.0162755 0)
(7.27574 -0.0219581 0)
(7.27313 -0.0277614 0)
(7.27026 -0.0337044 0)
(7.267 -0.0398012 0)
(7.26325 -0.0460626 0)
(7.25894 -0.0524929 0)
(7.25405 -0.059076 0)
(7.24856 -0.0657604 0)
(7.24252 -0.0724513 0)
(7.23599 -0.0790091 0)
(7.22913 -0.0852496 0)
(7.22219 -0.090938 0)
(7.21552 -0.0957774 0)
(7.20965 -0.0993932 0)
(7.20525 -0.101318 0)
(7.20313 -0.100986 0)
(7.20426 -0.0977513 0)
(7.20963 -0.0909723 0)
(7.22008 -0.0802074 0)
(7.23595 -0.0654916 0)
(7.25678 -0.0475263 0)
(7.28141 -0.0277072 0)
(7.30843 -0.00831414 0)
(7.33066 0.0129577 0)
(7.31334 0.0236661 0)
(7.29702 0.0239619 0)
(7.28569 0.0208883 0)
(7.27796 0.0160435 0)
(7.27282 0.0102504 0)
(7.26955 0.00430966 0)
(7.26738 -0.00150056 0)
(7.26579 -0.00719053 0)
(7.26445 -0.0127935 0)
(7.26314 -0.0183378 0)
(7.26169 -0.0238649 0)
(7.25995 -0.0294147 0)
(7.25782 -0.0350083 0)
(7.25515 -0.0406508 0)
(7.25188 -0.0463425 0)
(7.24795 -0.0520826 0)
(7.24334 -0.0578613 0)
(7.23808 -0.0636444 0)
(7.23219 -0.0693628 0)
(7.22571 -0.074909 0)
(7.21875 -0.0801434 0)
(7.21148 -0.0849039 0)
(7.20417 -0.0890101 0)
(7.19719 -0.0922636 0)
(7.191 -0.0944384 0)
(7.1862 -0.0952632 0)
(7.18343 -0.0944011 0)
(7.18348 -0.0914402 0)
(7.18709 -0.0859315 0)
(7.19494 -0.0775006 0)
(7.20741 -0.066042 0)
(7.22491 -0.0523204 0)
(7.32454 0.0343817 0)
(7.28928 0.0455676 0)
(7.2668 0.034993 0)
(7.25598 0.0230919 0)
(7.24986 0.0123807 0)
(7.24671 0.0030901 0)
(7.24581 -0.00464784 0)
(7.24606 -0.0111429 0)
(7.24677 -0.016788 0)
(7.24766 -0.0218621 0)
(7.24852 -0.0265324 0)
(7.24916 -0.0309287 0)
(7.24944 -0.0351782 0)
(7.24928 -0.0393931 0)
(7.24858 -0.0436353 0)
(7.24726 -0.0478984 0)
(7.24521 -0.0521329 0)
(7.24241 -0.0562978 0)
(7.23886 -0.060392 0)
(7.23458 -0.0644381 0)
(7.22965 -0.0684328 0)
(7.22411 -0.0723104 0)
(7.21804 -0.0759448 0)
(7.21153 -0.0791776 0)
(7.20473 -0.0818624 0)
(7.19783 -0.0838954 0)
(7.19111 -0.0852177 0)
(7.18491 -0.0857927 0)
(7.17964 -0.085567 0)
(7.17574 -0.084436 0)
(7.17371 -0.0822209 0)
(7.17402 -0.0786271 0)
(7.17758 -0.0733504 0)
(7.29574 0.0821814 0)
(7.21798 0.12643 0)
(7.18606 0.127326 0)
(7.18495 0.112133 0)
(7.19079 0.0917587 0)
(7.19849 0.0729136 0)
(7.20722 0.0566859 0)
(7.21602 0.0423077 0)
(7.22443 0.0293504 0)
(7.23235 0.0177024 0)
(7.23968 0.00728865 0)
(7.24625 -0.00195064 0)
(7.25191 -0.0101134 0)
(7.25663 -0.0174166 0)
(7.26045 -0.0241453 0)
(7.26349 -0.0304936 0)
(7.26575 -0.0364616 0)
(7.26717 -0.0419274 0)
(7.26764 -0.0468072 0)
(7.26712 -0.0511614 0)
(7.2657 -0.0551542 0)
(7.26356 -0.0589337 0)
(7.26089 -0.0625363 0)
(7.25779 -0.0658612 0)
(7.2543 -0.0687321 0)
(7.25041 -0.0709829 0)
(7.24612 -0.0725332 0)
(7.24154 -0.0734001 0)
(7.23685 -0.0736649 0)
(7.2323 -0.073419 0)
(7.22816 -0.0727206 0)
(7.22464 -0.0715875 0)
(7.22204 -0.0699336 0)
(7.32909 -0.159089 0)
(7.19591 -0.293423 0)
(7.13018 -0.293282 0)
(7.10766 -0.261232 0)
(7.1074 -0.229052 0)
(7.12774 -0.199099 0)
(7.15809 -0.172126 0)
(7.19095 -0.149306 0)
(7.22339 -0.130791 0)
(7.25418 -0.116054 0)
(7.28269 -0.104507 0)
(7.30863 -0.0955345 0)
(7.33178 -0.0884901 0)
(7.35195 -0.0829149 0)
(7.36923 -0.0786575 0)
(7.38404 -0.0757104 0)
(7.39692 -0.0739413 0)
(7.40812 -0.0729998 0)
(7.41757 -0.0724657 0)
(7.42502 -0.0720525 0)
(7.4304 -0.0716999 0)
(7.43393 -0.0714936 0)
(7.43601 -0.0715089 0)
(7.43704 -0.071705 0)
(7.4372 -0.0719066 0)
(7.4365 -0.0718841 0)
(7.43477 -0.0714476 0)
(7.4319 -0.0705081 0)
(7.42792 -0.0690833 0)
(7.42302 -0.0672483 0)
(7.4175 -0.0650952 0)
(7.41165 -0.0627118 0)
(7.40564 -0.0600689 0)
(7.33044 1.21802 0)
(7.63736 1.24108 0)
(7.81656 0.93384 0)
(7.87181 0.661739 0)
(7.88258 0.461542 0)
(7.87142 0.318929 0)
(7.84393 0.217483 0)
(7.80506 0.144555 0)
(7.75985 0.0914607 0)
(7.71159 0.0523923 0)
(7.66207 0.0233361 0)
(7.61239 0.00151441 0)
(7.56304 -0.0149409 0)