/*--------------------------------*- C++ -*----------------------------------*\
  =========                 |
  \\      /  F ield         | OpenFOAM: The Open Source CFD Toolbox
   \\    /   O peration     | Website:  https://openfoam.org
    \\  /    A nd           | Version:  10
     \\/     M anipulation  |
\*---------------------------------------------------------------------------*/
FoamFile
{
    format      ascii;
    class       volScalarField;
    location    "100";
    object      yPlus;
}
// * * * * * * * * * * * * * * * * * * * * * * * * * * * * * * * * * * * * * //

dimensions      [0 0 0 0 0 0 0];

internalField   uniform 0;

boundaryField
{
    outlet
    {
        type            calculated;
        value           uniform 0;
    }
    inlet
    {
        type            calculated;
        value           uniform 0;
    }
    lowerWall
    {
        type            calculated;
        value           nonuniform List<scalar> 
148
(
12.7112
17.6462
20.7199
22.3212
23.0482
23.2793
23.2336
23.0386
22.7705
22.4746
22.1773
21.8927
21.6276
21.3849
21.166
20.9712
20.7998
20.6502
20.5204
20.4085
20.3135
20.2344
20.1698
20.1187
20.0786
20.0475
20.0242
20.0076
19.9977
19.9949
19.995
20.0229
19.9365
11.1527
13.7753
18.9865
22.0383
23.0434
22.6309
21.2308
19.2971
17.2279
15.1422
13.3265
12.3977
12.2166
13.6446
13.5288
11.1527
24.4195
24.3392
18.7621
12.6854
30.8612
46.3292
54.9502
60.8567
65.3203
68.922
71.9679
74.6313
77.0258
79.2435
81.3759
83.515
85.7253
87.995
90.394
92.9394
95.5937
98.2442
100.692
102.693
104.073
104.722
104.709
104.172
102.965
100.901
98.2468
95.2586
92.1256
88.9866
85.9409
83.0566
80.3759
77.9209
75.6987
73.7045
71.926
70.3454
68.9425
67.6959
66.5848
65.5896
64.6932
63.8804
63.139
62.4591
61.8328
61.2546
60.7204
60.2274
59.7742
59.36
58.9848
58.6491
58.3535
58.0992
57.8871
57.7185
57.5946
57.5163
57.4833
57.4968
57.5589
57.6669
57.8189
58.013
58.2468
58.5173
58.821
59.1541
59.5123
59.891
60.2857
60.6917
61.1049
61.5209
61.9359
62.3464
62.7494
63.1421
63.5222
63.8879
64.2374
64.5695
64.8835
65.1786
65.4544
65.7106
65.9471
66.1639
66.3602
66.5375
66.6975
66.8235
67.0303
)
;
    }
    upperWall
    {
        type            calculated;
        value           nonuniform List<scalar> 
133
(
31.2592
34.0075
36.6586
39.0127
41.0737
42.8857
44.4819
45.8871
47.1222
48.2056
49.1541
49.9827
50.7045
51.3315
51.8738
52.3405
52.7397
53.079
53.3651
53.6039
53.8002
53.9584
54.0824
54.176
54.2425
54.2852
54.3069
54.3103
54.2974
54.2703
54.231
54.1812
54.1226
54.0471
53.9508
53.844
53.7288
53.607
53.48
53.3497
53.2175
53.0852
52.9541
52.8256
52.7007
52.5806
52.4665
52.3593
52.2608
52.172
52.0919
52.0212
51.9607
51.9119
51.8761
51.8557
51.8529
51.8708
51.9126
51.982
52.0819
52.2148
52.3821
52.5844
52.8213
53.0916
53.393
53.7226
54.0768
54.4514
54.8417
55.243
55.6501
56.0585
56.4633
56.8607
57.2471
57.6195
57.976
58.315
58.6358
58.9383
59.2229
59.4905
59.7421
59.9793
60.2036
60.4165
60.6196
60.8141
61.0014
61.1822
61.3573
61.527
61.6913
61.85
62.0026
62.1484
62.2867
62.4164
62.5366
62.6464
62.7454
62.8319
62.9041
62.9611
63.0022
63.0277
63.0381
63.0347
63.0193
62.9935
62.9586
62.9155
62.8649
62.8078
62.7448
62.6766
62.6042
62.5285
62.45
62.3694
62.2873
62.2048
62.122
62.0394
61.9577
61.8781
61.8014
61.7289
61.6588
61.6021
61.5113
)
;
    }
    frontAndBack
    {
        type            empty;
    }
}


// ************************************************************************* //
