/*--------------------------------*- C++ -*----------------------------------*\
  =========                 |
  \\      /  F ield         | OpenFOAM: The Open Source CFD Toolbox
   \\    /   O peration     | Website:  https://openfoam.org
    \\  /    A nd           | Version:  10
     \\/     M anipulation  |
\*---------------------------------------------------------------------------*/
FoamFile
{
    format      ascii;
    class       volScalarField;
    location    "0.095";
    object      nut;
}
// * * * * * * * * * * * * * * * * * * * * * * * * * * * * * * * * * * * * * //

dimensions      [0 2 -1 0 0 0 0];

internalField   nonuniform List<scalar> 
6820
(
0.000503208
0.000397072
0.000324505
0.000269362
0.0002365
0.000214124
0.000197521
0.000184822
0.000174562
0.000165945
0.000158523
0.000152001
0.000146181
0.000140927
0.000136136
0.000131731
0.000127655
0.000123861
0.000120312
0.000116978
0.000113832
0.000110851
0.000108017
0.000105308
0.000102706
0.000100189
9.77336e-05
9.53173e-05
9.28927e-05
9.04568e-05
8.78555e-05
8.51633e-05
8.18203e-05
8.18507e-05
0.000143721
0.000196408
0.000210824
0.000206404
0.000197557
0.000187316
0.000177437
0.000168507
0.00016051
0.000153342
0.000146884
0.000141027
0.000135681
0.000130773
0.000126244
0.000122044
0.000118132
0.000114473
0.000111039
0.000107805
0.000104751
0.00010186
9.91184e-05
9.65139e-05
9.40375e-05
9.16838e-05
8.94462e-05
8.73387e-05
8.53382e-05
8.35974e-05
8.1903e-05
8.1655e-05
3.85887e-05
2.73908e-05
4.30341e-05
7.44348e-05
9.5822e-05
0.000109163
0.000116394
0.000119682
0.000120605
0.000120067
0.000118626
0.000116632
0.000114304
0.000111787
0.000109172
0.000106519
0.000103868
0.000101245
9.86674e-05
9.61468e-05
9.369e-05
9.13013e-05
8.89836e-05
8.6739e-05
8.45696e-05
8.24782e-05
8.04688e-05
7.85501e-05
7.67353e-05
7.50548e-05
7.35495e-05
7.23106e-05
7.15596e-05
1.9966e-05
2.35265e-05
2.20726e-05
1.28014e-05
2.9067e-06
1.23507e-05
2.2835e-05
3.14485e-05
3.83777e-05
4.38778e-05
4.81921e-05
5.15358e-05
5.40842e-05
5.5975e-05
5.73278e-05
5.824e-05
5.87911e-05
5.90461e-05
5.90587e-05
5.88729e-05
5.85251e-05
5.80462e-05
5.74622e-05
5.67959e-05
5.60676e-05
5.52967e-05
5.45035e-05
5.37105e-05
5.29458e-05
5.22435e-05
5.16523e-05
5.12288e-05
5.10641e-05
1.32434e-05
1.50817e-05
1.9933e-05
2.20283e-05
2.14783e-05
1.95403e-05
1.69247e-05
1.39997e-05
1.09814e-05
7.99754e-06
5.13065e-06
2.45093e-06
5.95156e-07
2.52043e-06
4.58313e-06
6.45346e-06
8.12512e-06
9.60622e-06
1.09086e-05
1.20456e-05
1.30309e-05
1.38786e-05
1.46028e-05
1.52177e-05
1.57381e-05
1.61797e-05
1.65602e-05
1.69002e-05
1.7223e-05
1.75591e-05
1.79349e-05
1.83903e-05
1.89115e-05
1.01899e-05
1.10214e-05
1.18516e-05
1.26548e-05
1.32898e-05
1.38295e-05
1.422e-05
1.44282e-05
1.44676e-05
1.43611e-05
1.41313e-05
1.38014e-05
1.33936e-05
1.29223e-05
1.24058e-05
1.18595e-05
1.12963e-05
1.07268e-05
1.01595e-05
9.60062e-06
9.05491e-06
8.52527e-06
8.0131e-06
7.51834e-06
7.03938e-06
6.57313e-06
6.11432e-06
5.65693e-06
5.19225e-06
4.71924e-06
4.23594e-06
3.8065e-06
3.49221e-06
7.53456e-06
8.25313e-06
8.68338e-06
8.92324e-06
8.82424e-06
8.6235e-06
8.46396e-06
8.3766e-06
8.3549e-06
8.37456e-06
8.40895e-06
8.43981e-06
8.45772e-06
8.46115e-06
8.44736e-06
8.41522e-06
8.36498e-06
8.29749e-06
8.21386e-06
8.11516e-06
8.00238e-06
7.87627e-06
7.73726e-06
7.5855e-06
7.42069e-06
7.24228e-06
7.04931e-06
6.84215e-06
6.62149e-06
6.39784e-06
6.18216e-06
6.0371e-06
5.98866e-06
5.75221e-06
6.61504e-06
7.01806e-06
7.13512e-06
6.88826e-06
6.53171e-06
6.20632e-06
5.93656e-06
5.72094e-06
5.55027e-06
5.41249e-06
5.29804e-06
5.19987e-06
5.11266e-06
5.03295e-06
4.95828e-06
4.88663e-06
4.81622e-06
4.74554e-06
4.67329e-06
4.59832e-06
4.51952e-06
4.43586e-06
4.34634e-06
4.25005e-06
4.14647e-06
4.03564e-06
3.9198e-06
3.80351e-06
3.70106e-06
3.63023e-06
3.64345e-06
3.76122e-06
4.47844e-06
5.25284e-06
5.55612e-06
5.71526e-06
5.63875e-06
5.43593e-06
5.19733e-06
4.95742e-06
4.73572e-06
4.54032e-06
4.36963e-06
4.21941e-06
4.08569e-06
3.9652e-06
3.85529e-06
3.75377e-06
3.65882e-06
3.56898e-06
3.48301e-06
3.39981e-06
3.31839e-06
3.2378e-06
3.15721e-06
3.07597e-06
2.99375e-06
2.91091e-06
2.82894e-06
2.75187e-06
2.68672e-06
2.64816e-06
2.65345e-06
2.73773e-06
2.9101e-06
3.54976e-06
4.24355e-06
4.53101e-06
4.70029e-06
4.67212e-06
4.51689e-06
4.32215e-06
4.12677e-06
3.94749e-06
3.78916e-06
3.64941e-06
3.52452e-06
3.41158e-06
3.30822e-06
3.21261e-06
3.12335e-06
3.03936e-06
2.95972e-06
2.88361e-06
2.81027e-06
2.73904e-06
2.66937e-06
2.60091e-06
2.53357e-06
2.4678e-06
2.40489e-06
2.34744e-06
2.30036e-06
2.27102e-06
2.2717e-06
2.31504e-06
2.42102e-06
2.59091e-06
2.85987e-06
3.46665e-06
3.73462e-06
3.89176e-06
3.89957e-06
3.80181e-06
3.66226e-06
3.51114e-06
3.36313e-06
3.22561e-06
3.10032e-06
2.98665e-06
2.88344e-06
2.78932e-06
2.70296e-06
2.62315e-06
2.54885e-06
2.47912e-06
2.41318e-06
2.35036e-06
2.29019e-06
2.23236e-06
2.17683e-06
2.12397e-06
2.07472e-06
2.03095e-06
1.99567e-06
1.97368e-06
1.97138e-06
1.99764e-06
2.06024e-06
2.1692e-06
2.32317e-06
2.33399e-06
2.8596e-06
3.12419e-06
3.28558e-06
3.32571e-06
3.267e-06
3.15839e-06
3.03039e-06
2.90024e-06
2.77728e-06
2.66459e-06
2.56226e-06
2.46945e-06
2.38502e-06
2.3078e-06
2.23674e-06
2.17094e-06
2.10968e-06
2.05233e-06
1.99848e-06
1.94782e-06
1.9003e-06
1.85618e-06
1.81612e-06
1.78134e-06
1.75385e-06
1.73652e-06
1.73337e-06
1.74917e-06
1.78956e-06
1.85857e-06
1.96029e-06
2.09215e-06
1.92346e-06
2.38024e-06
2.64498e-06
2.80915e-06
2.86922e-06
2.84071e-06
2.76238e-06
2.66168e-06
2.55432e-06
2.44899e-06
2.3495e-06
2.2571e-06
2.17201e-06
2.09395e-06
2.02235e-06
1.95661e-06
1.89612e-06
1.84036e-06
1.78889e-06
1.7414e-06
1.69778e-06
1.65814e-06
1.62287e-06
1.59275e-06
1.56901e-06
1.55346e-06
1.54848e-06
1.55702e-06
1.58213e-06
1.62691e-06
1.69289e-06
1.7809e-06
1.88848e-06
1.59547e-06
1.99648e-06
2.26298e-06
2.43389e-06
2.51255e-06
2.51049e-06
2.4573e-06
2.37727e-06
2.28579e-06
2.19234e-06
2.10195e-06
2.01696e-06
1.93828e-06
1.86602e-06
1.79991e-06
1.7395e-06
1.68432e-06
1.63396e-06
1.58809e-06
1.54654e-06
1.50931e-06
1.47658e-06
1.44881e-06
1.42677e-06
1.41155e-06
1.40459e-06
1.40761e-06
1.4225e-06
1.45096e-06
1.49434e-06
1.55277e-06
1.62545e-06
1.71033e-06
1.32759e-06
1.68588e-06
1.95496e-06
2.13406e-06
2.22752e-06
2.24588e-06
2.21308e-06
2.15117e-06
2.0751e-06
1.99423e-06
1.91394e-06
1.837e-06
1.76477e-06
1.69779e-06
1.63616e-06
1.57973e-06
1.52829e-06
1.48162e-06
1.43959e-06
1.40211e-06
1.36927e-06
1.34129e-06
1.31862e-06
1.30188e-06
1.29191e-06
1.28971e-06
1.29637e-06
1.3129e-06
1.34003e-06
1.378e-06
1.42621e-06
1.48316e-06
1.5473e-06
1.10413e-06
1.43182e-06
1.70408e-06
1.8923e-06
1.99918e-06
2.03534e-06
2.02064e-06
1.9747e-06
1.91166e-06
1.84088e-06
1.76817e-06
1.69696e-06
1.62919e-06
1.56587e-06
1.5074e-06
1.45391e-06
1.40534e-06
1.3616e-06
1.32261e-06
1.28835e-06
1.25892e-06
1.23452e-06
1.21548e-06
1.20225e-06
1.19537e-06
1.19544e-06
1.20298e-06
1.21839e-06
1.24174e-06
1.27267e-06
1.31025e-06
1.35278e-06
1.3991e-06
9.1398e-07
1.22219e-06
1.49866e-06
1.69635e-06
1.81537e-06
1.86651e-06
1.86701e-06
1.83457e-06
1.7828e-06
1.72105e-06
1.65543e-06
1.58975e-06
1.52631e-06
1.46639e-06
1.41068e-06
1.35948e-06
1.31292e-06
1.27102e-06
1.23381e-06
1.20131e-06
1.17363e-06
1.15093e-06
1.13341e-06
1.12135e-06
1.11504e-06
1.11473e-06
1.12055e-06
1.13247e-06
1.15018e-06
1.17302e-06
1.19996e-06
1.22937e-06
1.26035e-06
7.49115e-07
1.04825e-06
1.33034e-06
1.53746e-06
1.66765e-06
1.73193e-06
1.74582e-06
1.72542e-06
1.68368e-06
1.62984e-06
1.57017e-06
1.50884e-06
1.4485e-06
1.39078e-06
1.33664e-06
1.28661e-06
1.24097e-06
1.19986e-06
1.16337e-06
1.13156e-06
1.10449e-06
1.08224e-06
1.06491e-06
1.05259e-06
1.04534e-06
1.04316e-06
1.04591e-06
1.0533e-06
1.0648e-06
1.07965e-06
1.09685e-06
1.11493e-06
1.13321e-06
6.03867e-07
9.04035e-07
1.19335e-06
1.40958e-06
1.55003e-06
1.62581e-06
1.65127e-06
1.64121e-06
1.60798e-06
1.56073e-06
1.50594e-06
1.44803e-06
1.38997e-06
1.33366e-06
1.28026e-06
1.2305e-06
1.18479e-06
1.14337e-06
1.10637e-06
1.07387e-06
1.0459e-06
1.02251e-06
1.00369e-06
9.89395e-07
9.79548e-07
9.73968e-07
9.72367e-07
9.74311e-07
9.79214e-07
9.8629e-07
9.94643e-07
1.00304e-06
1.01089e-06
4.74644e-07
7.8605e-07
1.08392e-06
1.30864e-06
1.45843e-06
1.54437e-06
1.58001e-06
1.57911e-06
1.55347e-06
1.51211e-06
1.46161e-06
1.40661e-06
1.35031e-06
1.29483e-06
1.24157e-06
1.19142e-06
1.14492e-06
1.10239e-06
1.06403e-06
1.02992e-06
1.0001e-06
9.74544e-07
9.53186e-07
9.35902e-07
9.225e-07
9.12708e-07
9.06158e-07
9.02367e-07
9.00748e-07
9.00572e-07
9.01064e-07
9.01206e-07
9.00514e-07
3.60534e-07
6.93131e-07
9.99875e-07
1.23207e-06
1.39005e-06
1.48477e-06
1.52908e-06
1.53583e-06
1.5163e-06
1.47939e-06
1.43171e-06
1.37813e-06
1.32209e-06
1.26597e-06
1.21137e-06
1.15933e-06
1.11054e-06
1.06541e-06
1.02419e-06
9.86981e-07
9.53827e-07
9.24683e-07
8.99443e-07
8.7794e-07
8.59938e-07
8.45132e-07
8.33136e-07
8.23483e-07
8.15632e-07
8.08947e-07
8.02772e-07
7.96317e-07
7.89081e-07
2.66052e-07
6.26445e-07
9.40472e-07
1.17866e-06
1.34369e-06
1.44617e-06
1.49823e-06
1.51201e-06
1.49824e-06
1.46566e-06
1.42095e-06
1.36907e-06
1.31363e-06
1.25716e-06
1.20142e-06
1.14759e-06
1.09645e-06
1.0485e-06
1.00404e-06
9.63211e-07
9.26074e-07
8.92592e-07
8.62663e-07
8.36121e-07
8.12739e-07
7.9223e-07
7.74248e-07
7.58383e-07
7.44178e-07
7.31107e-07
7.18644e-07
7.06153e-07
6.93266e-07
2.08268e-07
5.88865e-07
9.05825e-07
1.14777e-06
1.31815e-06
1.42662e-06
1.4845e-06
1.50314e-06
1.49284e-06
1.46219e-06
1.41794e-06
1.36522e-06
1.30784e-06
1.24856e-06
1.18933e-06
1.13149e-06
1.07595e-06
1.02328e-06
9.73847e-07
9.27842e-07
8.85335e-07
8.46308e-07
8.10673e-07
7.78287e-07
7.48956e-07
7.22442e-07
6.98464e-07
6.76697e-07
6.56783e-07
6.38317e-07
6.20882e-07
6.04025e-07
5.87328e-07
2.15833e-07
5.83806e-07
8.97123e-07
1.14056e-06
1.31532e-06
1.42954e-06
1.49355e-06
1.51796e-06
1.51255e-06
1.48562e-06
1.44379e-06
1.39223e-06
1.33483e-06
1.27443e-06
1.21312e-06
1.15234e-06
1.09311e-06
1.03611e-06
9.81776e-07
9.30358e-07
8.8199e-07
8.36709e-07
7.94481e-07
7.55226e-07
7.18823e-07
6.8512e-07
6.53939e-07
6.25076e-07
5.98302e-07
5.7335e-07
5.49944e-07
5.27741e-07
5.0653e-07
2.87685e-07
6.13088e-07
9.15086e-07
1.15649e-06
1.33263e-06
1.44919e-06
1.51526e-06
1.54076e-06
1.53517e-06
1.50676e-06
1.4623e-06
1.40714e-06
1.3454e-06
1.2801e-06
1.21348e-06
1.14708e-06
1.082e-06
1.01896e-06
9.5842e-07
9.00641e-07
8.45768e-07
7.93848e-07
7.44874e-07
6.98802e-07
6.55568e-07
6.15101e-07
5.77322e-07
5.42149e-07
5.09487e-07
4.79225e-07
4.51225e-07
4.25324e-07
4.01301e-07
3.97512e-07
6.76612e-07
9.62497e-07
1.20105e-06
1.38004e-06
1.50219e-06
1.57498e-06
1.60724e-06
1.60762e-06
1.58386e-06
1.54247e-06
1.48872e-06
1.42675e-06
1.35977e-06
1.29016e-06
1.21967e-06
1.14957e-06
1.08075e-06
1.01378e-06
9.49065e-07
8.86817e-07
8.27158e-07
7.70142e-07
7.1578e-07
6.64068e-07
6.14997e-07
5.68565e-07
5.24782e-07
4.83666e-07
4.45236e-07
4.09512e-07
3.76465e-07
3.46169e-07
5.31786e-07
7.72438e-07
1.03815e-06
1.26836e-06
1.44273e-06
1.56076e-06
1.62885e-06
1.65571e-06
1.65019e-06
1.6203e-06
1.57276e-06
1.51301e-06
1.44524e-06
1.37265e-06
1.29758e-06
1.22174e-06
1.14633e-06
1.07217e-06
9.99807e-07
9.29585e-07
8.61707e-07
7.96283e-07
7.33367e-07
6.72983e-07
6.15147e-07
5.59882e-07
5.0723e-07
4.57251e-07
4.10032e-07
3.65678e-07
3.24302e-07
2.86038e-07
2.5096e-07
6.88331e-07
9.01453e-07
1.15111e-06
1.38037e-06
1.56243e-06
1.69242e-06
1.77371e-06
1.8128e-06
1.81714e-06
1.79403e-06
1.75007e-06
1.69091e-06
1.62118e-06
1.54456e-06
1.46389e-06
1.38133e-06
1.29841e-06
1.21627e-06
1.13564e-06
1.05704e-06
9.80766e-07
9.07001e-07
8.35844e-07
7.67345e-07
7.01535e-07
6.38443e-07
5.78106e-07
5.20577e-07
4.65926e-07
4.14238e-07
3.65589e-07
3.20134e-07
2.77772e-07
8.70457e-07
1.06329e-06
1.29068e-06
1.50141e-06
1.66483e-06
1.77562e-06
1.83867e-06
1.86203e-06
1.85396e-06
1.82178e-06
1.77164e-06
1.7085e-06
1.63634e-06
1.55821e-06
1.47649e-06
1.39298e-06
1.30902e-06
1.2256e-06
1.14345e-06
1.06309e-06
9.84858e-07
9.09014e-07
8.35727e-07
7.65126e-07
6.97318e-07
6.32405e-07
5.70495e-07
5.11711e-07
4.56188e-07
4.04093e-07
3.55559e-07
3.10931e-07
2.69835e-07
1.08434e-06
1.26858e-06
1.49598e-06
1.72752e-06
1.92413e-06
2.06976e-06
2.16212e-06
2.20606e-06
2.20924e-06
2.18e-06
2.12626e-06
2.05489e-06
1.97148e-06
1.88046e-06
1.78517e-06
1.68808e-06
1.59094e-06
1.49499e-06
1.40107e-06
1.30972e-06
1.2213e-06
1.13601e-06
1.05401e-06
9.75388e-07
9.00223e-07
8.28595e-07
7.60594e-07
6.96318e-07
6.3587e-07
5.79361e-07
5.26829e-07
4.78515e-07
4.33781e-07
1.3412e-06
1.51411e-06
1.70092e-06
1.87577e-06
2.01228e-06
2.10647e-06
2.16291e-06
2.18742e-06
2.18493e-06
2.15971e-06
2.11574e-06
2.05673e-06
1.98611e-06
1.90693e-06
1.82187e-06
1.7332e-06
1.64276e-06
1.55204e-06
1.46218e-06
1.37403e-06
1.28824e-06
1.20527e-06
1.12545e-06
1.04901e-06
9.76151e-07
9.07013e-07
8.41726e-07
7.80409e-07
7.23168e-07
6.70137e-07
6.21315e-07
5.77163e-07
5.36366e-07
1.65333e-06
1.84713e-06
2.09758e-06
2.3799e-06
2.62311e-06
2.79187e-06
2.88492e-06
2.91459e-06
2.89524e-06
2.84021e-06
2.76066e-06
2.66514e-06
2.55988e-06
2.44928e-06
2.33638e-06
2.22323e-06
2.11122e-06
2.0013e-06
1.89409e-06
1.79002e-06
1.6894e-06
1.59243e-06
1.49927e-06
1.41003e-06
1.32478e-06
1.24361e-06
1.16657e-06
1.09369e-06
1.02501e-06
9.6053e-07
9.0015e-07
8.44039e-07
7.91172e-07
2.0512e-06
2.2023e-06
2.29111e-06
2.37861e-06
2.47475e-06
2.57273e-06
2.66126e-06
2.7294e-06
2.76936e-06
2.77829e-06
2.75755e-06
2.71103e-06
2.64368e-06
2.56056e-06
2.4663e-06
2.36483e-06
2.25933e-06
2.15226e-06
2.04547e-06
1.9403e-06
1.83769e-06
1.73828e-06
1.64249e-06
1.55059e-06
1.46272e-06
1.37894e-06
1.2993e-06
1.22379e-06
1.15242e-06
1.08527e-06
1.02223e-06
9.64058e-07
9.08633e-07
2.55463e-06
2.879e-06
3.31213e-06
3.73976e-06
4.0206e-06
4.1443e-06
4.15825e-06
4.1037e-06
4.00743e-06
3.88694e-06
3.75266e-06
3.61029e-06
3.46311e-06
3.31331e-06
3.16255e-06
3.01233e-06
2.864e-06
2.7188e-06
2.57778e-06
2.4418e-06
2.31149e-06
2.1873e-06
2.06947e-06
1.95809e-06
1.85313e-06
1.75443e-06
1.66176e-06
1.57485e-06
1.49342e-06
1.4172e-06
1.3459e-06
1.27987e-06
1.21771e-06
3.26093e-06
3.1865e-06
2.93047e-06
2.89917e-06
3.09133e-06
3.3624e-06
3.6082e-06
3.78215e-06
3.8746e-06
3.89746e-06
3.87094e-06
3.81483e-06
3.74507e-06
3.67296e-06
3.60542e-06
3.5459e-06
3.49537e-06
3.45331e-06
3.4184e-06
3.38906e-06
3.3637e-06
3.34089e-06
3.31946e-06
3.29845e-06
3.2771e-06
3.25484e-06
3.23122e-06
3.20593e-06
3.17878e-06
3.14988e-06
3.11928e-06
3.08913e-06
3.0565e-06
4.30055e-06
5.5455e-06
6.31269e-06
6.56386e-06
6.46205e-06
6.24046e-06
6.09106e-06
6.09951e-06
6.27421e-06
6.57717e-06
6.95468e-06
7.35869e-06
7.75394e-06
8.1175e-06
8.43641e-06
8.70486e-06
8.9218e-06
9.08906e-06
9.21013e-06
9.28932e-06
9.33124e-06
9.34043e-06
9.32116e-06
9.27733e-06
9.21239e-06
9.12928e-06
9.0305e-06
8.91795e-06
8.79341e-06
8.65771e-06
8.51276e-06
8.36001e-06
8.20174e-06
5.62929e-06
3.58484e-06
2.77473e-06
4.63493e-06
7.35136e-06
9.91944e-06
1.21024e-05
1.38345e-05
1.51271e-05
1.60212e-05
1.65634e-05
1.68021e-05
1.67855e-05
1.65594e-05
1.61654e-05
1.56408e-05
1.50182e-05
1.43253e-05
1.35854e-05
1.28175e-05
1.2037e-05
1.12558e-05
1.04834e-05
9.72651e-06
8.99006e-06
8.27721e-06
7.58973e-06
6.92771e-06
6.29109e-06
5.67586e-06
5.0842e-06
4.50183e-06
3.94606e-06
1.14403e-05
1.65226e-05
1.8287e-05
1.9792e-05
2.02517e-05
1.94883e-05
1.77238e-05
1.52339e-05
1.23794e-05
9.71696e-06
8.16898e-06
8.66946e-06
1.08899e-05
1.38477e-05
1.69643e-05
1.99889e-05
2.28135e-05
2.53929e-05
2.77124e-05
2.97733e-05
3.15861e-05
3.31657e-05
3.45295e-05
3.56954e-05
3.66813e-05
3.75046e-05
3.81819e-05
3.87291e-05
3.91624e-05
3.94979e-05
3.97569e-05
3.99597e-05
4.01566e-05
2.48884e-05
2.86709e-05
3.90335e-05
5.34933e-05
6.77816e-05
8.17349e-05
9.46153e-05
0.000105815
0.000115284
0.000123099
0.000129364
0.000134233
0.000137877
0.000140459
0.000142132
0.000143037
0.000143297
0.000143019
0.000142298
0.000141213
0.000139832
0.000138214
0.000136406
0.000134449
0.000132375
0.000130212
0.000127984
0.000125704
0.000123392
0.000121049
0.000118694
0.000116333
0.000114185
0.000543325
0.000510578
0.000491594
0.00046788
0.000443819
0.000421431
0.000399873
0.000379216
0.000359729
0.000341433
0.000324317
0.000308369
0.000293547
0.000279788
0.000267025
0.000255183
0.000244188
0.000233968
0.000224452
0.000215575
0.000207277
0.000199502
0.000192202
0.000185329
0.000178845
0.000172712
0.000166895
0.000161367
0.000156081
0.000151044
0.000146082
0.000141766
0.00013777
7.58555e-05
6.46996e-05
5.38879e-05
4.60222e-05
4.29944e-05
4.66927e-05
5.46487e-05
6.30294e-05
6.94817e-05
7.31599e-05
7.44178e-05
7.41296e-05
7.33118e-05
7.3596e-05
7.03149e-05
5.4285e-05
4.03915e-05
3.98465e-05
3.82715e-05
3.25595e-05
2.52614e-05
1.77372e-05
1.03622e-05
3.29692e-06
3.86827e-06
1.05934e-05
1.74423e-05
2.50424e-05
3.12729e-05
3.1685e-05
2.83172e-05
2.95689e-05
3.59218e-05
4.09964e-05
4.17406e-05
3.98518e-05
3.96669e-05
4.21418e-05
4.62642e-05
5.23996e-05
5.25826e-05
4.5453e-05
3.56919e-05
2.69199e-05
2.01499e-05
1.47165e-05
9.59496e-06
3.9685e-06
3.55165e-06
1.43988e-05
2.71335e-05
3.66005e-05
3.89632e-05
3.55043e-05
3.01938e-05
2.55628e-05
2.19714e-05
1.90688e-05
1.66114e-05
1.44898e-05
1.26354e-05
1.09913e-05
9.51418e-06
8.17596e-06
6.96123e-06
5.86301e-06
4.87882e-06
4.00795e-06
3.24964e-06
2.60175e-06
2.05998e-06
1.61769e-06
1.26609e-06
9.95169e-07
7.94329e-07
6.52608e-07
5.58081e-07
4.97139e-07
4.55734e-07
4.22098e-07
3.88916e-07
3.53425e-07
3.16237e-07
2.79567e-07
2.45836e-07
2.16743e-07
1.93225e-07
1.75874e-07
1.65801e-07
1.64956e-07
1.75948e-07
2.00224e-07
2.37959e-07
2.86689e-07
3.43739e-07
4.02136e-07
4.63909e-07
5.09487e-07
5.87982e-07
5.8885e-07
0.000106358
9.56939e-05
8.08276e-05
6.98525e-05
6.42621e-05
6.49719e-05
6.87864e-05
7.08073e-05
6.91633e-05
6.5589e-05
6.22638e-05
5.97656e-05
5.78951e-05
5.74081e-05
6.05026e-05
5.94944e-05
4.52779e-05
3.36953e-05
3.55183e-05
3.53552e-05
3.01007e-05
2.27889e-05
1.55018e-05
9.71173e-06
8.55222e-06
1.28049e-05
1.92643e-05
2.68031e-05
3.14943e-05
2.92084e-05
2.53671e-05
2.85162e-05
3.57895e-05
4.04849e-05
4.06012e-05
3.84531e-05
3.76539e-05
4.01306e-05
4.3812e-05
4.98477e-05
5.28014e-05
4.80604e-05
3.88717e-05
2.94044e-05
2.14622e-05
1.49167e-05
9.12463e-06
4.6533e-06
9.38902e-06
2.08141e-05
3.26128e-05
3.9339e-05
3.9026e-05
3.44184e-05
2.92116e-05
2.49875e-05
2.16795e-05
1.89479e-05
1.66096e-05
1.45735e-05
1.27738e-05
1.11579e-05
9.68902e-06
8.34591e-06
7.11838e-06
6.00307e-06
5.00004e-06
4.1103e-06
3.33415e-06
2.67003e-06
2.1139e-06
1.65916e-06
1.29708e-06
1.01767e-06
8.10533e-07
6.64853e-07
5.68692e-07
5.08026e-07
4.67978e-07
4.35921e-07
4.03881e-07
3.68706e-07
3.30829e-07
2.9252e-07
2.56467e-07
2.24886e-07
1.9942e-07
1.81471e-07
1.72781e-07
1.75303e-07
1.90704e-07
2.19159e-07
2.59811e-07
3.09983e-07
3.66583e-07
4.23053e-07
4.80969e-07
5.23599e-07
5.95845e-07
6.0088e-07
9.62791e-05
9.62143e-05
9.08297e-05
8.42266e-05
7.9011e-05
7.55954e-05
7.12855e-05
6.38101e-05
5.43348e-05
4.65589e-05
4.23049e-05
4.00796e-05
3.87143e-05
3.81849e-05
4.06197e-05
4.66704e-05
4.71247e-05
3.56023e-05
2.72609e-05
3.12468e-05
3.30278e-05
2.95867e-05
2.396e-05
1.89674e-05
1.69333e-05
1.87325e-05
2.36313e-05
2.94665e-05
3.05537e-05
2.5016e-05
2.23217e-05
2.79405e-05
3.58114e-05
3.97915e-05
3.91382e-05
3.6876e-05
3.57647e-05
3.7699e-05
4.11949e-05
4.64446e-05
5.15029e-05
5.01004e-05
4.27312e-05
3.34135e-05
2.48229e-05
1.77213e-05
1.25146e-05
1.13636e-05
1.75959e-05
2.83798e-05
3.76993e-05
4.09534e-05
3.8211e-05
3.2982e-05
2.8146e-05
2.43825e-05
2.13735e-05
1.88295e-05
1.66195e-05
1.46706e-05
1.29244e-05
1.13355e-05
9.87489e-06
8.52739e-06
7.28743e-06
6.15496e-06
5.1325e-06
4.22289e-06
3.42767e-06
2.74597e-06
2.17401e-06
1.70519e-06
1.3307e-06
1.04058e-06
8.2456e-07
6.72286e-07
5.72101e-07
5.09791e-07
4.6971e-07
4.38278e-07
4.06755e-07
3.71597e-07
3.3316e-07
2.93939e-07
2.57032e-07
2.25206e-07
2.00647e-07
1.85155e-07
1.80423e-07
1.87693e-07
2.07407e-07
2.38804e-07
2.80557e-07
3.30273e-07
3.85122e-07
4.39346e-07
4.9459e-07
5.36356e-07
6.04516e-07
6.15942e-07
6.85382e-05
6.95285e-05
6.78392e-05
6.4543e-05
5.99939e-05
5.38543e-05
4.53848e-05
3.49801e-05
2.6261e-05
2.33041e-05
2.35828e-05
2.28763e-05
2.11843e-05
2.03719e-05
2.20906e-05
2.70511e-05
3.42097e-05
3.5779e-05
2.71214e-05
2.09924e-05
2.63549e-05
3.05491e-05
3.02166e-05
2.77871e-05
2.59715e-05
2.62473e-05
2.87748e-05
3.05524e-05
2.62394e-05
1.91002e-05
2.01776e-05
2.80609e-05
3.59227e-05
3.87488e-05
3.73116e-05
3.5102e-05
3.41183e-05
3.54522e-05
3.85454e-05
4.27289e-05
4.85481e-05
5.07422e-05
4.6614e-05
3.88151e-05
3.05821e-05
2.37768e-05
1.98183e-05
2.06265e-05
2.71183e-05
3.58555e-05
4.1365e-05
4.09842e-05
3.65229e-05
3.13337e-05
2.70972e-05
2.37998e-05
2.10709e-05
1.87105e-05
1.66314e-05
1.47723e-05
1.30815e-05
1.15214e-05
1.00706e-05
8.71987e-06
7.46797e-06
6.31814e-06
5.27549e-06
4.34486e-06
3.52918e-06
2.82845e-06
2.23936e-06
1.75555e-06
1.36836e-06
1.068e-06
8.44345e-07
6.87115e-07
5.84594e-07
5.22056e-07
4.82973e-07
4.52909e-07
4.22542e-07
3.88019e-07
3.49591e-07
3.09826e-07
2.72083e-07
2.39567e-07
2.14994e-07
2.00588e-07
1.98048e-07
2.08104e-07
2.3044e-07
2.63843e-07
3.06641e-07
3.56459e-07
4.10106e-07
4.62127e-07
5.13423e-07
5.52368e-07
6.12691e-07
6.28022e-07
2.61918e-05
2.68471e-05
2.54907e-05
2.25562e-05
1.8077e-05
1.23251e-05
6.6022e-06
8.44601e-06
1.47409e-05
1.8558e-05
1.86571e-05
1.59999e-05
1.26049e-05
1.0671e-05
1.21611e-05
1.5767e-05
1.90329e-05
2.4058e-05
2.6056e-05
2.00804e-05
1.43751e-05
1.94268e-05
2.55789e-05
2.85212e-05
2.91929e-05
2.92152e-05
2.89628e-05
2.54633e-05
1.73832e-05
1.41923e-05
1.97851e-05
2.90144e-05
3.60007e-05
3.72462e-05
3.51554e-05
3.31533e-05
3.2464e-05
3.33708e-05
3.5882e-05
3.91269e-05
4.42108e-05
4.89183e-05
4.88399e-05
4.4158e-05
3.77248e-05
3.21361e-05
2.94137e-05
3.09591e-05
3.6233e-05
4.14491e-05
4.2647e-05
3.93917e-05
3.42838e-05
2.96735e-05
2.61001e-05
2.32226e-05
2.07544e-05
1.85787e-05
1.66346e-05
1.48684e-05
1.32357e-05
1.17076e-05
1.02696e-05
8.91785e-06
7.65521e-06
6.48835e-06
5.42518e-06
4.47275e-06
3.6356e-06
2.91478e-06
2.30754e-06
1.80779e-06
1.40696e-06
1.0953e-06
8.62913e-07
6.99729e-07
5.94044e-07
5.30656e-07
4.921e-07
4.63e-07
4.33416e-07
3.99228e-07
3.60682e-07
3.20567e-07
2.82641e-07
2.50613e-07
2.2764e-07
2.16071e-07
2.17196e-07
2.30962e-07
2.56273e-07
2.91528e-07
3.348e-07
3.8386e-07
4.3546e-07
4.84691e-07
5.31963e-07
5.68486e-07
6.21161e-07
6.41519e-07
5.0964e-06
6.92213e-06
8.99898e-06
1.10397e-05
1.31665e-05
1.54979e-05
1.78756e-05
1.96842e-05
2.01243e-05
1.8808e-05
1.61447e-05
1.30698e-05
1.05878e-05
9.48554e-06
1.03371e-05
1.37988e-05
1.68921e-05
1.63915e-05
1.65726e-05
1.78091e-05
1.44107e-05
8.16117e-06
9.59165e-06
1.56266e-05
1.94976e-05
2.06242e-05
1.87197e-05
1.30205e-05
9.64724e-06
1.3489e-05
2.1192e-05
3.07655e-05
3.56944e-05
3.518e-05
3.27762e-05
3.11361e-05
3.07455e-05
3.14136e-05
3.32746e-05
3.58116e-05
3.94795e-05
4.4652e-05
4.79348e-05
4.72317e-05
4.38701e-05
4.02969e-05
3.86654e-05
3.98605e-05
4.25692e-05
4.36575e-05
4.12988e-05
3.6634e-05
3.19006e-05
2.81341e-05
2.51672e-05
2.26507e-05
2.04267e-05
1.84359e-05
1.66297e-05
1.49598e-05
1.33895e-05
1.18975e-05
1.04755e-05
9.1247e-06
7.85207e-06
6.66801e-06
5.58354e-06
4.60816e-06
3.74819e-06
3.00587e-06
2.37918e-06
1.86236e-06
1.44708e-06
1.12381e-06
8.82888e-07
7.14495e-07
6.06858e-07
5.44048e-07
5.074e-07
4.80492e-07
4.52792e-07
4.1996e-07
3.82245e-07
3.42594e-07
3.05049e-07
2.73673e-07
2.51906e-07
2.42115e-07
2.45264e-07
2.60861e-07
2.87466e-07
3.23403e-07
3.6661e-07
4.14888e-07
4.6469e-07
5.11243e-07
5.54076e-07
5.87207e-07
6.30174e-07
6.53856e-07
8.48141e-06
1.01102e-05
1.21186e-05
1.39727e-05
1.54511e-05
1.64273e-05
1.68491e-05
1.66314e-05
1.57207e-05
1.42814e-05
1.26918e-05
1.13383e-05
1.04601e-05
1.02588e-05
1.07271e-05
1.2299e-05
1.59999e-05
1.8758e-05
1.68254e-05
1.25622e-05
1.08743e-05
9.64496e-06
6.05746e-06
1.3926e-06
2.97031e-06
5.4022e-06
6.09544e-06
7.95133e-06
1.06274e-05
1.50989e-05
2.47463e-05
3.25827e-05
3.44624e-05
3.25629e-05
3.03119e-05
2.91003e-05
2.88867e-05
2.94275e-05
3.07737e-05
3.27653e-05
3.52629e-05
3.92481e-05
4.37645e-05
4.62727e-05
4.6241e-05
4.50363e-05
4.43113e-05
4.44661e-05
4.42715e-05
4.21081e-05
3.80046e-05
3.34847e-05
2.97183e-05
2.6765e-05
2.42804e-05
2.20711e-05
2.00824e-05
1.8279e-05
1.66147e-05
1.50461e-05
1.35436e-05
1.20924e-05
1.06898e-05
9.34163e-06
8.05961e-06
6.85805e-06
5.75138e-06
4.75177e-06
3.86756e-06
3.1023e-06
2.45475e-06
1.91962e-06
1.4888e-06
1.15295e-06
9.02674e-07
7.28455e-07
6.18508e-07
5.56156e-07
5.21436e-07
4.96777e-07
4.71013e-07
4.39592e-07
4.02812e-07
3.63844e-07
3.27072e-07
2.96916e-07
2.77013e-07
2.69615e-07
2.75274e-07
2.93068e-07
3.21225e-07
3.57914e-07
4.00901e-07
4.47977e-07
4.95477e-07
5.38835e-07
5.77004e-07
6.06584e-07
6.39549e-07
6.6664e-07
5.57601e-06
6.86932e-06
8.41649e-06
9.88987e-06
1.10532e-05
1.18096e-05
1.21631e-05
1.21458e-05
1.18041e-05
1.12089e-05
1.04805e-05
9.80724e-06
9.39784e-06
9.43476e-06
1.00465e-05
1.11168e-05
1.32483e-05
1.71291e-05
2.00246e-05
1.86846e-05
1.34787e-05
7.56484e-06
4.34865e-06
4.87261e-06
6.36367e-06
7.78107e-06
8.84204e-06
9.17898e-06
1.17564e-05
2.04662e-05
2.92401e-05
3.29227e-05
3.19882e-05
2.96213e-05
2.78835e-05
2.704e-05
2.68829e-05
2.73347e-05
2.8379e-05
2.99727e-05
3.18121e-05
3.43274e-05
3.7995e-05
4.15776e-05
4.37002e-05
4.43731e-05
4.42713e-05
4.34652e-05
4.142e-05
3.80104e-05
3.40932e-05
3.06403e-05
2.78719e-05
2.55255e-05
2.34065e-05
2.1475e-05
1.97207e-05
1.81081e-05
1.65906e-05
1.51295e-05
1.37007e-05
1.22951e-05
1.09148e-05
9.57084e-06
8.27972e-06
7.06008e-06
5.93004e-06
4.90469e-06
3.99453e-06
3.2046e-06
2.53455e-06
1.97962e-06
1.532e-06
1.1827e-06
9.22694e-07
7.42909e-07
6.31548e-07
5.70943e-07
5.39483e-07
5.18254e-07
4.95449e-07
4.66351e-07
4.31329e-07
3.93742e-07
3.58216e-07
3.29388e-07
3.10965e-07
3.05067e-07
3.11999e-07
3.30645e-07
3.59126e-07
3.95602e-07
4.37778e-07
4.83406e-07
5.28673e-07
5.68935e-07
6.02441e-07
6.28074e-07
6.49837e-07
6.79302e-07
4.38983e-06
5.39219e-06
6.55254e-06
7.65436e-06
8.55888e-06
9.21178e-06
9.60458e-06
9.73472e-06
9.59703e-06
9.2204e-06
8.70606e-06
8.22809e-06
7.99625e-06
8.16446e-06
8.82741e-06
9.92701e-06
1.13528e-05
1.3755e-05
1.75025e-05
2.06395e-05
2.08198e-05
1.77363e-05
1.28268e-05
7.77702e-06
4.13741e-06
4.03466e-06
6.81675e-06
1.21858e-05
2.00483e-05
2.74534e-05
3.11546e-05
3.08077e-05
2.8638e-05
2.67071e-05
2.55413e-05
2.49353e-05
2.47885e-05
2.51685e-05
2.60646e-05
2.74088e-05
2.89515e-05
3.06015e-05
3.28352e-05
3.56138e-05
3.80268e-05
3.93922e-05
3.95841e-05
3.85249e-05
3.63009e-05
3.3461e-05
3.07178e-05
2.8366e-05
2.62854e-05
2.43393e-05
2.25218e-05
2.08601e-05
1.93421e-05
1.79242e-05
1.65593e-05
1.52123e-05
1.38635e-05
1.25079e-05
1.11528e-05
9.81436e-06
8.51421e-06
7.27568e-06
6.12085e-06
5.06799e-06
4.12993e-06
3.31334e-06
2.61891e-06
2.04246e-06
1.5766e-06
1.21266e-06
9.42147e-07
7.56494e-07
6.43923e-07
5.85607e-07
5.58014e-07
5.40736e-07
5.21298e-07
4.94852e-07
4.61882e-07
4.2596e-07
3.91966e-07
3.64727e-07
3.4799e-07
3.43744e-07
3.52087e-07
3.71749e-07
4.00736e-07
4.37112e-07
4.78462e-07
5.22421e-07
5.65115e-07
6.01797e-07
6.30232e-07
6.51346e-07
6.60909e-07
6.92073e-07
3.87268e-06
4.64077e-06
5.51913e-06
6.37258e-06
7.09201e-06
7.61632e-06
7.9237e-06
8.01045e-06
7.88617e-06
7.58895e-06
7.2045e-06
6.8711e-06
6.76108e-06
7.01532e-06
7.68048e-06
8.73479e-06
1.00353e-05
1.15705e-05
1.38891e-05
1.72114e-05
2.04078e-05
2.2061e-05
2.18002e-05
2.03523e-05
1.8795e-05
1.83711e-05
2.00383e-05
2.36395e-05
2.74688e-05
2.94465e-05
2.89212e-05
2.70343e-05
2.52469e-05
2.40512e-05
2.32804e-05
2.28122e-05
2.26964e-05
2.30386e-05
2.38464e-05
2.50239e-05
2.64175e-05
2.7781e-05
2.91745e-05
3.08005e-05
3.2427e-05
3.35267e-05
3.37789e-05
3.30692e-05
3.16356e-05
2.9916e-05
2.81956e-05
2.65016e-05
2.48049e-05
2.31543e-05
2.16218e-05
2.02298e-05
1.89491e-05
1.77295e-05
1.65237e-05
1.5298e-05
1.40351e-05
1.27339e-05
1.14066e-05
1.00747e-05
8.76536e-06
7.50681e-06
6.32543e-06
5.24291e-06
4.27466e-06
3.42911e-06
2.70811e-06
2.10817e-06
1.6224e-06
1.24258e-06
9.60848e-07
7.69386e-07
6.56499e-07
6.01869e-07
5.79554e-07
5.67395e-07
5.52241e-07
5.29171e-07
4.9882e-07
4.64968e-07
4.32682e-07
4.06909e-07
3.91404e-07
3.88082e-07
3.96962e-07
4.16737e-07
4.45402e-07
4.80989e-07
5.21061e-07
5.63124e-07
6.03308e-07
6.36534e-07
6.60119e-07
6.76606e-07
6.73196e-07
7.05413e-07
3.43661e-06
4.03475e-06
4.70613e-06
5.35561e-06
5.90151e-06
6.2971e-06
6.52407e-06
6.57903e-06
6.4702e-06
6.23031e-06
5.93569e-06
5.70964e-06
5.69613e-06
6.00805e-06
6.67781e-06
7.66362e-06
8.89361e-06
1.02334e-05
1.17143e-05
1.37025e-05
1.63609e-05
1.91748e-05
2.14363e-05
2.29031e-05
2.38046e-05
2.46111e-05
2.56527e-05
2.66726e-05
2.69512e-05
2.61219e-05
2.46547e-05
2.33128e-05
2.23709e-05
2.16709e-05
2.11071e-05
2.07435e-05
2.06872e-05
2.10181e-05
2.17455e-05
2.27847e-05
2.40377e-05
2.53266e-05
2.65029e-05
2.7583e-05
2.85614e-05
2.92648e-05
2.95029e-05
2.91961e-05
2.84516e-05
2.74161e-05
2.61716e-05
2.4779e-05
2.33393e-05
2.19635e-05
2.07135e-05
1.95877e-05
1.85438e-05
1.75268e-05
1.6487e-05
1.53897e-05
1.42188e-05
1.29764e-05
1.16793e-05
1.03549e-05
9.03578e-06
7.7557e-06
6.54559e-06
5.43086e-06
4.42971e-06
3.55253e-06
2.80243e-06
2.17674e-06
1.66909e-06
1.27187e-06
9.77991e-07
7.80591e-07
6.68124e-07
6.18423e-07
6.0261e-07
5.96556e-07
5.86443e-07
5.67353e-07
5.40116e-07
5.08737e-07
4.7847e-07
4.54372e-07
4.40213e-07
4.37872e-07
4.47337e-07
4.67294e-07
4.95715e-07
5.30543e-07
5.69276e-07
6.09206e-07
6.46529e-07
6.75748e-07
6.93927e-07
7.04883e-07
6.87034e-07
7.19059e-07
3.05759e-06
3.52002e-06
4.02905e-06
4.51954e-06
4.9321e-06
5.22815e-06
5.38853e-06
5.40829e-06
5.29763e-06
5.09107e-06
4.85882e-06
4.70802e-06
4.76097e-06
5.10569e-06
5.76049e-06
6.67985e-06
7.80812e-06
9.07622e-06
1.03822e-05
1.17366e-05
1.33208e-05
1.52294e-05
1.72868e-05
1.92006e-05
2.07802e-05
2.19549e-05
2.26722e-05
2.28243e-05
2.24031e-05
2.16704e-05
2.09835e-05
2.04616e-05
1.99908e-05
1.9497e-05
1.90551e-05
1.8791e-05
1.87934e-05
1.91131e-05
1.97592e-05
2.06745e-05
2.17839e-05
2.29821e-05
2.41315e-05
2.51269e-05
2.59241e-05
2.64893e-05