/*--------------------------------*- C++ -*----------------------------------*\
  =========                 |
  \\      /  F ield         | OpenFOAM: The Open Source CFD Toolbox
   \\    /   O peration     | Website:  https://openfoam.org
    \\  /    A nd           | Version:  10
     \\/     M anipulation  |
\*---------------------------------------------------------------------------*/
FoamFile
{
    format      ascii;
    class       volScalarField;
    location    "0.095";
    object      p;
}
// * * * * * * * * * * * * * * * * * * * * * * * * * * * * * * * * * * * * * //

dimensions      [0 2 -2 0 0 0 0];

internalField   nonuniform List<scalar> 
6820
(
6.71226
-7.61801
-9.61477
-9.7923
-9.94275
-9.87594
-9.83499
-9.84331
-9.87425
-9.91785
-9.96756
-10.0195
-10.072
-10.124
-10.1749
-10.2241
-10.2712
-10.3157
-10.3569
-10.3942
-10.4269
-10.4541
-10.4749
-10.488
-10.4921
-10.4857
-10.4667
-10.4327
-10.3814
-10.3075
-10.2138
-10.0738
-9.95274
1.3347
-7.41517
-9.41973
-9.67079
-9.87324
-9.87009
-9.85051
-9.86527
-9.89642
-9.93728
-9.98385
-10.033
-10.0832
-10.1335
-10.1831
-10.2314
-10.2779
-10.322
-10.363
-10.4003
-10.4332
-10.4606
-10.4818
-10.4954
-10.5003
-10.4949
-10.4773
-10.4452
-10.3963
-10.3266
-10.2368
-10.1154
-10.0075
-0.745021
-6.20271
-8.626
-9.21526
-9.59274
-9.73254
-9.77514
-9.81704
-9.86409
-9.91487
-9.96844
-10.023
-10.0772
-10.1305
-10.1822
-10.2321
-10.2798
-10.3248
-10.3665
-10.4046
-10.4382
-10.4666
-10.4889
-10.5041
-10.511
-10.5084
-10.4946
-10.4678
-10.4266
-10.3685
-10.2969
-10.2079
-10.1406
-2.31205
-6.01908
-8.32836
-8.97579
-9.35455
-9.55759
-9.6505
-9.72454
-9.79477
-9.8608
-9.92425
-9.98566
-10.0451
-10.1026
-10.1581
-10.2112
-10.2617
-10.3093
-10.3536
-10.3941
-10.4303
-10.4615
-10.4871
-10.5062
-10.5179
-10.5215
-10.5158
-10.5001
-10.4744
-10.439
-10.4
-10.3646
-10.3692
-3.59646
-6.06238
-8.01994
-8.70065
-9.10778
-9.37674
-9.52369
-9.62849
-9.71848
-9.79797
-9.871
-9.93989
-10.0052
-10.0672
-10.1264
-10.1827
-10.2361
-10.2863
-10.3332
-10.3763
-10.4153
-10.4498
-10.4792
-10.5032
-10.5213
-10.5331
-10.5386
-10.5382
-10.5334
-10.5274
-10.5289
-10.5501
-10.6258
-4.55316
-6.18435
-7.83465
-8.5464
-8.96308
-9.25432
-9.42745
-9.5489
-9.65112
-9.74034
-9.82074
-9.89534
-9.96544
-10.0316
-10.0943
-10.1536
-10.2097
-10.2625
-10.3118
-10.3576
-10.3997
-10.4377
-10.4714
-10.5008
-10.5259
-10.5468
-10.5644
-10.58
-10.5966
-10.619
-10.6569
-10.7233
-10.8481
-5.29766
-6.39525
-7.7457
-8.42779
-8.83091
-9.13087
-9.32821
-9.46922
-9.58571
-9.68576
-9.77417
-9.85484
-9.92973
-9.99978
-10.0657
-10.1279
-10.1867
-10.2421
-10.2942
-10.3428
-10.3879
-10.4295
-10.4676
-10.5023
-10.534
-10.5635
-10.5919
-10.6213
-10.6554
-10.6994
-10.7626
-10.8563
-11.0027
-5.88051
-6.62388
-7.70649
-8.34202
-8.73391
-9.03631
-9.24853
-9.40234
-9.52803
-9.63556
-9.73003
-9.81563
-9.89466
-9.96836
-10.0375
-10.1027
-10.1643
-10.2224
-10.2772
-10.3287
-10.377
-10.4223
-10.4647
-10.5047
-10.543
-10.5804
-10.6187
-10.6602
-10.7088
-10.7696
-10.8505
-10.9609
-11.1158
-6.34269
-6.85437
-7.71497
-8.2911
-8.66277
-8.95621
-9.17398
-9.33666
-9.47028
-9.58501
-9.68573
-9.77653
-9.85998
-9.9375
-10.01
-10.0783
-10.1427
-10.2036
-10.2612
-10.3157
-10.3673
-10.4164
-10.4632
-10.5084
-10.5528
-10.5976
-10.6446
-10.6964
-10.7564
-10.8294
-10.9217
-11.0401
-11.1947
-6.71401
-7.07264
-7.75187
-8.2622
-8.61002
-8.89154
-9.11086
-9.27977
-9.41931
-9.53949
-9.64509
-9.74012
-9.82726
-9.9081
-9.98368
-10.0548
-10.122
-10.1856
-10.246
-10.3035
-10.3583
-10.411
-10.462
-10.5121
-10.5621
-10.6135
-10.6679
-10.7279
-10.7966
-10.8778
-10.9764
-11.097
-11.2456
-7.01571
-7.27235
-7.8076
-8.2531
-8.57491
-8.84127
-9.05693
-9.22811
-9.37115
-9.49529
-9.605
-9.70392
-9.79466
-9.87882
-9.95752
-10.0316
-10.1016
-10.168
-10.2313
-10.2917
-10.3499
-10.4062
-10.4612
-10.5157
-10.5708
-10.6279
-10.6885
-10.7548
-10.8296
-10.9159
-11.0171
-11.1363
-11.2769
-7.26333
-7.45115
-7.87362
-8.25804
-8.55242
-8.80202
-9.01124
-9.18249
-9.32771
-9.45485
-9.56793
-9.67018
-9.76407
-9.85122
-9.93275
-10.0095
-10.0822
-10.1513
-10.2173
-10.2807
-10.3419
-10.4015
-10.4602
-10.5188
-10.5783
-10.64
-10.7055
-10.7765
-10.8552
-10.944
-11.0451
-11.1604
-11.2915
-7.46815
-7.60879
-7.94382
-8.27323
-8.54038
-8.77276
-8.97351
-9.14258
-9.28825
-9.41706
-9.53255
-9.6375
-9.73416
-9.82406
-9.90831
-9.98775
-10.0631
-10.1349
-10.2036
-10.2698
-10.334
-10.3967
-10.4588
-10.521
-10.5842
-10.6497
-10.7188
-10.793
-10.874
-10.9633
-11.0626
-11.1727
-11.2941
-7.63849
-7.7462
-8.01384
-8.29511
-8.53599
-8.7512
-8.94226
-9.10763
-9.2526
-9.38227
-9.49957
-9.60681
-9.70593
-9.79837
-9.88515
-9.96711
-10.0449
-10.1192
-10.1905
-10.2594
-10.3263
-10.3919
-10.4569
-10.5221
-10.5884
-10.6568
-10.7285
-10.8046
-10.8863
-10.9749
-11.0711
-11.1752
-11.2872
-7.78048
-7.86479
-8.08065
-8.32074
-8.53709
-8.73579
-8.91671
-9.07732
-9.22062
-9.35032
-9.46872
-9.5777
-9.67889
-9.77355
-9.86265
-9.94698
-10.0272
-10.1039
-10.1776
-10.2489
-10.3184
-10.3866
-10.4542
-10.5219
-10.5906
-10.6612
-10.7345
-10.8114
-10.893
-10.9798
-11.0723
-11.1704
-11.2736
-7.89872
-7.96608
-8.14221
-8.34769
-8.5417
-8.72487
-8.89564
-9.05084
-9.19178
-9.32092
-9.43996
-9.55032
-9.65331
-9.75001
-9.84127
-9.92782
-10.0103
-10.0892
-10.1652
-10.2388
-10.3105
-10.3809
-10.4507
-10.5204
-10.5909
-10.6629
-10.737
-10.8141
-10.8946
-10.979
-11.0674
-11.1596
-11.2549
-7.99665
-8.05154
-8.19715
-8.37397
-8.5481
-8.71701
-8.87803
-9.0276
-9.16576
-9.29393
-9.4132
-9.52459
-9.6291
-9.7276
-9.82082
-9.90941
-9.99395
-10.075
-10.1531
-10.2287
-10.3024
-10.3747
-10.4463
-10.5176
-10.5894
-10.6622
-10.7366
-10.8131
-10.892
-10.9737
-11.058
-11.1446
-11.2328
-8.07684
-8.12243
-8.2446
-8.39797
-8.55477
-8.71088
-8.86283
-9.00683
-9.14202
-9.26896
-9.38821
-9.50039
-9.60621
-9.70634
-9.80137
-9.89186
-9.97835
-10.0613
-10.1413
-10.2187
-10.2941
-10.368
-10.441
-10.5135
-10.586
-10.6591
-10.7332
-10.8087
-10.8857
-10.9644
-11.0447
-11.126
-11.208
-8.1412
-8.1798
-8.28397
-8.41839
-8.56041
-8.70527
-8.84905
-8.98782
-9.1201
-9.24574
-9.36485
-9.47769
-9.58469
-9.68631
-9.78303
-9.8753
-9.96358
-10.0483
-10.13
-10.209
-10.2859
-10.3611
-10.4351
-10.5084
-10.5813
-10.6543
-10.7277
-10.8019
-10.8768
-10.9525
-11.0288
-11.1055
-11.1818
-8.19113
-8.22445
-8.31485
-8.43416
-8.56384
-8.69909
-8.83573
-8.96982
-9.09942
-9.22384
-9.34279
-9.45621
-9.5643
-9.66731
-9.76559
-9.8595
-9.94943
-10.0358
-10.1189
-10.1993
-10.2774
-10.3536
-10.4283
-10.502
-10.5749
-10.6474
-10.7199
-10.7924
-10.865
-10.9377
-11.0103
-11.0826
-11.1541
-8.2276
-8.25695
-8.3369
-8.44437
-8.56404
-8.69133
-8.82203
-8.95217
-9.07952
-9.20299
-9.32194
-9.43605
-9.54526
-9.64969
-9.74952
-9.84503
-9.93653
-10.0244
-10.1089
-10.1905
-10.2696
-10.3466
-10.4217
-10.4955
-10.5682
-10.64
-10.7112
-10.7819
-10.8522
-10.9221
-10.9912
-11.0595
-11.1266
-8.25121
-8.27762
-8.34978
-8.44823
-8.56006
-8.68105
-8.80704
-8.93408
-9.05974
-9.18261
-9.30177
-9.41665
-9.52702
-9.63282
-9.73412
-9.83111
-9.92404
-10.0132
-10.0989
-10.1815
-10.2613
-10.3387
-10.414
-10.4876
-10.5597
-10.6306
-10.7003
-10.7692
-10.8371
-10.904
-10.9699
-11.0345
-11.0977
-8.26225
-8.28656
-8.35312
-8.445
-8.55105
-8.66744
-8.7901
-8.9151
-9.03987
-9.16275
-9.28258
-9.39861
-9.5104
-9.61778
-9.72071
-9.81928
-9.91366
-10.0041
-10.0909
-10.1744
-10.2548
-10.3326
-10.4079
-10.4811
-10.5525
-10.6222
-10.6905
-10.7573
-10.8229
-10.887
-10.9498
-11.011
-11.0706
-8.26071
-8.2836
-8.34642
-8.43389
-8.53611
-8.64955
-8.77022
-8.89422
-9.01886
-9.14228
-9.26315
-9.38054
-9.49388
-9.60286
-9.70736
-9.80741
-9.90312
-9.9947
-10.0824
-10.1665
-10.2473
-10.3251
-10.4001
-10.4727
-10.5431
-10.6115
-10.6781
-10.7428
-10.8059
-10.8674
-10.9271
-10.9851
-11.0413
-8.24625
-8.26836
-8.32909
-8.41419
-8.51455
-8.62687
-8.7472
-8.87164
-8.99737
-9.12237
-9.24514
-9.36461
-9.48007
-9.59111
-9.69754
-9.79931
-9.89652
-9.98932
-10.0779
-10.1627
-10.2438
-10.3215
-10.3962
-10.4681
-10.5374
-10.6044
-10.6692
-10.7318
-10.7925
-10.8513
-10.9081
-10.963
-11.0159
-8.21824
-8.24011
-8.30026
-8.38485
-8.48515
-8.59796
-8.71934
-8.84531
-8.97296
-9.10016
-9.22525
-9.34706
-9.46479
-9.57796
-9.68631
-9.78975
-9.88833
-9.9822
-10.0716
-10.1567
-10.2379
-10.3153
-10.3894
-10.4604
-10.5284
-10.5937
-10.6565
-10.717
-10.7752
-10.8312
-10.8852
-10.9371
-10.9869
-8.17567
-8.1979
-8.25909
-8.3453
-8.44782
-8.56344
-8.68812
-8.81772
-8.94917
-9.08018
-9.20897
-9.33427
-9.45519
-9.57119
-9.68199
-9.78747
-9.88769
-9.98279
-10.073
-10.1585
-10.2397
-10.3169
-10.3902
-10.4601
-10.5268
-10.5904
-10.6512
-10.7094
-10.7651
-10.8184
-10.8694
-10.9182
-10.9649
-8.11707
-8.14018
-8.20383
-8.2934
-8.39975
-8.51959
-8.64874
-8.7829
-8.91887
-9.05426
-9.1872
-9.31632
-9.44068
-9.5597
-9.67306
-9.78065
-9.8825
-9.97876
-10.0697
-10.1555
-10.2366
-10.3132
-10.3856
-10.4542
-10.5193
-10.581
-10.6396
-10.6954
-10.7484
-10.7989
-10.847
-10.8929
-10.9365
-8.04055
-8.06545
-8.13389
-8.22998
-8.34374
-8.47153
-8.60877
-8.75079
-8.89413
-9.03625
-9.17522
-9.30961
-9.43849
-9.5613
-9.67775
-9.78775
-9.89141
-9.98891
-10.0805
-10.1666
-10.2474
-10.3233
-10.3947
-10.4618
-10.5251
-10.5848
-10.6411
-10.6943
-10.7446
-10.7921
-10.8371
-10.8796
-10.9199
-7.94323
-7.97022
-8.04464
-8.14843
-8.27037
-8.40669
-8.55259
-8.70307
-8.85447
-9.00411
-9.14991
-9.29036
-9.4245
-9.55173
-9.6718
-9.78464
-9.8904
-9.98931
-10.0817
-10.1679
-10.2484
-10.3235
-10.3937
-10.4592
-10.5205
-10.578
-10.6317
-10.6822
-10.7296
-10.7741
-10.816
-10.8554
-10.8926
-7.82217
-7.85366
-7.93941
-8.05782
-8.19519
-8.34691
-8.50738
-8.67103
-8.83403
-8.99369
-9.14799
-9.29556
-9.43553
-9.56744
-9.69115
-9.80671
-9.91434
-10.0144
-10.1072
-10.1934
-10.2732
-10.3472
-10.4157
-10.4794
-10.5384
-10.5932
-10.6442
-10.6915
-10.7357
-10.7767
-10.815
-10.8507
-10.8839
-7.67078
-7.70522
-7.80106
-7.93218
-8.08309
-8.24945
-8.42508
-8.6035
-8.78034
-8.95261
-9.11804
-9.27516
-9.4231
-9.56148
-9.69024
-9.80958
-9.91985
-10.0215
-10.1151
-10.2013
-10.2804
-10.3532
-10.4201
-10.4816
-10.5382
-10.5903
-10.6383
-10.6825
-10.7234
-10.761
-10.7959
-10.8282
-10.8582
-7.48692
-7.53424
-7.65719
-7.81862
-7.99745
-8.18879
-8.38609
-8.58276
-8.77486
-8.95982
-9.13572
-9.30136
-9.45614
-9.59988
-9.73268
-9.85488
-9.96697
-10.0695
-10.1632
-10.2487
-10.3265
-10.3974
-10.462
-10.5207
-10.5742
-10.6228
-10.6671
-10.7073
-10.744
-10.7774
-10.8077
-10.8354
-10.8606
-7.24891
-7.29535
-7.43208
-7.61396
-7.81767
-8.03774
-8.26427
-8.4882
-8.7047
-8.91077
-9.1043
-9.28423
-9.45027
-9.60258
-9.74165
-9.8682
-9.98303
-10.087
-10.181
-10.2659
-10.3425
-10.4116
-10.4738
-10.5299
-10.5803
-10.6257
-10.6664
-10.7031
-10.7359
-10.7654
-10.7919
-10.8158
-10.8375
-6.97483
-7.06902
-7.27372
-7.50893
-7.7502
-8.00018
-8.25098
-8.49461
-8.7277
-8.94796
-9.15356
-9.34356
-9.5178
-9.6765
-9.82025
-9.94987
-10.0663
-10.1706
-10.2637
-10.3468
-10.4208
-10.4865
-10.5448
-10.5965
-10.6422
-10.6825
-10.718
-10.7491
-10.7762
-10.7998
-10.8203
-10.838
-10.8534
-6.5546
-6.62283
-6.85822
-7.15064
-7.45933
-7.77729
-8.08784
-8.38112
-8.65442
-8.90606
-9.13534
-9.34276
-9.52946
-9.69677
-9.84617
-9.97918
-10.0973
-10.202
-10.2945
-10.3762
-10.4481
-10.5114
-10.5669
-10.6154
-10.6577
-10.6943
-10.7259
-10.7529
-10.7758
-10.7949
-10.8107
-10.8238
-10.8347
-6.19285
-6.44564
-6.80222
-7.12149
-7.44194
-7.77811
-8.10661
-8.41865
-8.71243
-8.98435
-9.23206
-9.45523
-9.65443
-9.83083
-9.98603
-10.1219
-10.2402
-10.343
-10.4319
-10.5086
-10.5745
-10.6311
-10.6793
-10.7203
-10.7549
-10.7837
-10.8074
-10.8264
-10.841
-10.8517
-10.8585
-10.8621
-10.8627
-5.1409
-5.40696
-6.01774
-6.56387
-7.06566
-7.54193
-7.96823
-8.347
-8.68571
-8.98711
-9.25419
-9.49032
-9.69843
-9.88112
-10.0408
-10.1798
-10.3001
-10.4037
-10.4926
-10.5683
-10.6326
-10.6867
-10.732
-10.7694
-10.8
-10.8245
-10.8434
-10.8571
-10.8659
-10.8697
-10.868
-10.8619
-10.8476
-5.19291
-5.75289
-6.19455
-6.55899
-7.03522
-7.53071
-7.99533
-8.43178
-8.83145
-9.18598
-9.49511
-9.76141
-9.98809
-10.1791
-10.3387
-10.471
-10.58
-10.669
-10.7413
-10.7994
-10.8457
-10.882
-10.9102
-10.9314
-10.9468
-10.9572
-10.9634
-10.9656
-10.9637
-10.957
-10.9432
-10.9203
-10.8768
-0.252315
-3.9441
-5.26896
-5.93838
-6.73654
-7.41308
-7.95647
-8.43271
-8.84916
-9.20708
-9.51407
-9.77607
-9.9979
-10.1844
-10.3401
-10.4693
-10.5756
-10.6625
-10.733
-10.7896
-10.8346
-10.8699
-10.897
-10.9173
-10.932
-10.942
-10.9481
-10.9509
-10.9512
-10.9486
-10.9454
-10.9372
-10.9336
-9.50718
-10.3485
-12.5327
-14.897
-16.7963
-17.7985
-17.9795
-17.4746
-16.0042
-13.3607
-10.068
-7.12278
-5.24553
-4.76036
-5.61624
-7.60578
-10.5703
-14.2786
-18.5234
-23.0727
-27.5891
-31.6507
-34.8324
-36.7653
-37.2137
-36.0738
-33.4199
-29.5051
-24.8069
-19.9211
-15.1027
-10.2409
-5.49747
-1.52413
1.21633
2.79144
3.40503
3.14175
1.86164
-0.89401
-5.47128
-11.6782
-18.7426
-25.7061
-31.7763
-36.3816
-39.0855
-39.6332
-37.8871
-34.0755
-28.7855
-22.9014
-17.3214
-12.5956
-8.85292
-5.98748
-3.836
-2.24776
-1.09606
-0.27735
0.290939
0.673295
0.919438
1.0673
1.1455
1.17545
1.17293
1.14944
1.11319
1.06988
1.02334
0.976
0.929281
0.883945
0.840301
0.798372
0.758016
0.718994
0.681011
0.643773
0.607019
0.570565
0.534324
0.498327
0.462695
0.427633
0.393345
0.360046
0.327793
0.2967
0.266462
0.237349
0.208298
0.180871
0.151343
0.126786
0.0922728
0.077957
0.0211574
0.0522155
-9.76683
-10.4861
-12.4946
-14.7377
-16.5477
-17.5641
-17.7917
-17.2837
-15.8158
-13.2966
-10.2736
-7.63632
-5.97619
-5.52012
-6.28079
-8.13063
-10.8399
-14.2044
-18.0262
-22.0894
-26.1242
-29.7747
-32.6553
-34.4186
-34.8371
-33.8075
-31.3973
-27.8528
-23.6152
-19.1682
-14.6706
-10.0406
-5.51844
-1.76282
0.818864
2.30714
2.88926
2.62525
1.40861
-1.10573
-5.23436
-10.8633
-17.3629
-23.8678
-29.5977
-33.965
-36.526
-37.049
-35.4178
-31.8879
-27.046
-21.7081
-16.644
-12.3061
-8.80928
-6.08308
-4.00341
-2.44635
-1.30173
-0.476206
0.106334
0.506463
0.771576
0.938275
1.03446
1.08115
1.09391
1.08416
1.06004
1.02729
0.989757
0.94997
0.909471
0.869155
0.829475
0.790608
0.752566
0.715254
0.678514
0.64217
0.606065
0.570095
0.534234
0.498549
0.463181
0.428336
0.394215
0.361029
0.328831
0.297741
0.267465
0.238286
0.209144
0.18163
0.151967
0.127341
0.0925891
0.0783616
0.0210634
0.0527156
-10.1046
-10.8902
-12.6611
-14.6388
-16.2504
-17.1678
-17.3442
-16.7919
-15.3641
-13.0857
-10.4726
-8.24457
-6.8644
-6.4997
-7.14692
-8.76494
-11.2065
-14.2492
-17.6818
-21.2903
-24.8392
-28.0469
-30.5902
-32.155
-32.5257
-31.6004
-29.4405
-26.2785
-22.4974
-18.4566
-14.2455
-9.83916
-5.56226
-2.05215
0.359061
1.76012
2.31192
2.05586
0.901719
-1.40138
-5.11382
-10.1696
-16.0666
-22.0532
-27.3887
-31.4833
-33.8916
-34.3964
-32.9097
-29.7044
-25.3466
-20.5623
-15.9966
-12.0256
-8.76275
-6.17271
-4.16592
-2.64227
-1.50679
-0.67606
-0.0803381
0.336953
0.620786
0.806333
0.920675
0.984357
1.01271
1.017
1.00532
0.983393
0.955111
0.923079
0.888958
0.853783
0.818164
0.78244
0.746777
0.711229
0.675773
0.640356
0.604921
0.569451
0.53398
0.498616
0.463521
0.428908
0.394976
0.361925
0.329807
0.298742
0.268439
0.239197
0.209961
0.182349
0.152551
0.127849
0.0928911
0.0787224
0.0210423
0.0531034
-10.483
-11.2154
-12.6806
-14.3415
-15.6996
-16.4706
-16.5752
-16.0047
-14.7069
-12.787
-10.6697
-8.88972
-7.79435
-7.52223
-8.08649
-9.47418
-11.6162
-14.3417
-17.4222
-20.6327
-23.7478
-26.5277
-28.7181
-30.0621
-30.3685
-29.538
-27.6278
-24.8413
-21.4794
-17.785
-13.8188
-9.63607
-5.63414
-2.39033
-0.153246
1.16367
1.68721
1.44416
0.354367
-1.76193
-5.09424
-9.60051
-14.8836
-20.3109
-25.2069
-28.9982
-31.2454
-31.7435
-30.4337
-27.5902
-23.7334
-19.4867
-15.3859
-11.7544
-8.71247
-6.25563
-4.32301
-2.83503
-1.71083
-0.876561
-0.268802
0.164973
0.46722
0.671577
0.804214
0.885138
0.929377
0.948016
0.949073
0.938237
0.919447
0.895386
0.867831
0.837961
0.806539
0.774064
0.740863
0.707141
0.673016
0.638559
0.603822
0.568869
0.533798
0.498758
0.463932
0.429542
0.395782
0.362851
0.330798
0.299746
0.269414
0.240113
0.210792
0.18309
0.15317
0.128381
0.0932351
0.0790628
0.0210894
0.0533369
-10.8285
-11.4727
-12.623
-13.9186
-14.9738
-15.563
-15.6041
-15.0903
-14.022
-12.508
-10.8597
-9.46819
-8.61251
-8.43139
-8.95384
-10.1632
-12.0187
-14.4176
-17.1721
-20.0452
-22.8054
-25.2295
-27.1028
-28.2284
-28.46
-27.7086
-26.0255
-23.5703
-20.553
-17.1321
-13.3765
-9.43408
-5.73888
-2.77214
-0.706632
0.52975
1.02652
0.798635
-0.222598
-2.16906
-5.16258
-9.16286
-13.8512
-18.7041
-23.129
-26.5908
-28.6698
-29.1735
-28.0653
-25.6005
-22.2342
-18.4885
-14.8118
-11.4924
-8.65931
-6.33268
-4.47504
-3.02469
-1.91377
-1.0776
-0.458961
-0.00939869
0.310942
0.534066
0.685139
0.783556
0.843979
0.877283
0.891374
0.891907
0.88285
0.866958
0.84613
0.821686
0.794554
0.7654
0.734715
0.70286
0.670097
0.636622
0.602595
0.568167
0.5335
0.498786
0.464233
0.430071
0.396495
0.363699
0.331728
0.300707
0.27036
0.241007
0.211605
0.183809
0.153768
0.12888
0.0935773
0.0793578
0.0212057
0.0534395
-11.0884
-11.6312
-12.5031
-13.4821
-14.2945
-14.7552
-14.7856
-14.3702
-13.5207
-12.3339
-11.0462
-9.95536
-9.29052
-9.18098
-9.67025
-10.7457
-12.3667
-14.4574
-16.8846
-19.4494
-21.9187
-24.0696
-25.7057
-26.6673
-26.834
-26.1449
-24.6434
-22.4429
-19.6782
-16.4646
-12.9107
-9.24506
-5.88221
-3.19031
-1.28846
-0.129344
0.341888
0.12987
-0.820095
-2.60718
-5.30156
-8.85078
-12.9899
-17.2849
-21.2304
-24.3489
-26.2571
-26.7752
-25.8758
-23.779
-20.8659
-17.5699
-14.2731
-11.2393
-8.60359
-6.40415
-4.62205
-3.21113
-2.11544
-1.27901
-0.650667
-0.186036
0.152058
0.393893
0.563535
0.679693
0.756604
0.804886
0.832312
0.844487
0.845396
0.837874
0.823937
0.805056
0.782323
0.756573
0.728466
0.698525
0.667157
0.634688
0.601388
0.567497
0.533241
0.498855
0.464573
0.430633
0.397232
0.364561
0.332664
0.301667
0.271301
0.241896
0.212419
0.184531
0.154383
0.129386
0.093951
0.0796245
0.0213944
0.0533901
-11.2492
-11.713
-12.3988
-13.1606
-13.7939
-14.1535
-14.17
-13.8271
-13.1463
-12.2146
-11.2124
-10.3661
-9.86189
-9.81319
-10.2674
-11.2236
-12.645
-14.4623
-16.5705
-18.819
-21.0128
-22.9381
-24.4007
-25.2521
-25.3869
-24.7581
-23.3937
-21.3697
-18.7838
-15.7517
-12.4324
-9.08837
-6.06642
-3.63494
-1.88649
-0.802623
-0.356609
-0.552111
-1.42962
-3.06362
-5.49013
-8.64309
-12.2934
-16.0759
-19.5637
-22.3457
-24.0859
-24.6167
-23.91
-22.1431
-19.6278
-16.7251
-13.7666
-10.9949
-8.54619
-6.47075
-4.76443
-3.39448
-2.31584
-1.48073
-0.843854
-0.364873
-0.00936576
0.251125
0.439478
0.573636
0.667347
0.730933
0.772001
0.79609
0.807199
0.808236
0.801338
0.788129
0.769871
0.747579
0.722088
0.694085
0.664126
0.632673
0.600104
0.56675
0.532903
0.498843
0.464829
0.431113
0.397893
0.365357
0.333545
0.302586
0.272216
0.242769
0.213223
0.185242
0.154992
0.129871
0.094334
0.0798465
0.0216534
0.053196
-11.3558
-11.756
-12.3015
-12.8907
-13.38
-13.6596
-13.6709
-13.3988
-12.8645
-12.1414
-11.369
-10.7221
-10.3512
-10.3548
-10.7782
-11.6269
-12.87
-14.4446
-16.2597
-18.1936
-20.0937
-21.7828
-23.0818
-23.8382
-23.9511
-23.3756
-22.1188
-20.2358
-17.8198
-15.0056
-11.9787
-8.9836
-6.28834
-4.09504
-2.4898
-1.47993
-1.05904
-1.23674
-2.04181
-3.52822
-5.71018
-8.51386
-11.7367
-15.0665
-18.1414
-20.6119
-22.1904
-22.7219
-22.1743
-20.6851
-18.5077
-15.9463
-13.29
-10.7595
-8.48802
-6.53319
-4.90254
-3.5749
-2.51502
-1.68277
-1.03848
-0.545857
-0.17327
0.105835
0.313055
0.465485
0.576324
0.655548
0.710569
0.746845
0.76838
0.778157
0.778438
0.771006
0.757301
0.73852
0.71568
0.689637
0.661102
0.630671
0.598838
0.566022
0.532584
0.498847
0.4651
0.431603
0.398557
0.366149
0.334418
0.303492
0.273115
0.243624
0.214015
0.185942
0.155602
0.130347
0.094739
0.080031
0.0219865
0.052848
-11.4193
-11.7628
-12.2009
-12.6631
-13.0471
-13.2685
-13.2791
-13.0662
-12.6505
-12.0943
-11.5067
-11.0227
-10.7628
-10.8103
-11.2072
-11.9612
-13.0479
-14.4109
-15.9686
-17.6158
-19.226
-20.6571
-21.7604
-22.3981
-22.4726
-21.931
-20.7709
-19.0409
-16.8359
-14.2949
-11.5944
-8.93914
-6.53899
-4.55996
-3.0891
-2.152
-1.75593
-1.91413
-2.64746
-3.99239
-5.94843
-8.44003
-11.2875
-14.2223
-16.9349
-19.1269
-20.5519
-21.0685
-20.6427
-19.3806
-17.4894
-15.226
-12.8414
-10.5339
-8.43016
-6.59229
-5.03691
-3.75269
-2.71314
-1.88518
-1.23458
-0.728992
-0.33963
-0.0419281
0.184343
0.355346
0.483663
0.578876
0.648172
0.696908
0.729091
0.747777
0.755361
0.753787
0.744685
0.729442
0.709263
0.68518
0.658063
0.628647
0.597541
0.565253
0.532215
0.498796
0.465309
0.43203
0.399163
0.366889
0.335249
0.304369
0.273997
0.244473
0.214808
0.186642
0.156221
0.130813
0.0951644
0.0801731
0.0223943
0.0523448
-11.4525
-11.7485
-12.1047
-12.4706
-12.773
-12.9492
-12.9616
-12.8006
-12.485
-12.0658
-11.6282
-11.2766
-11.1073
-11.1901
-11.5626
-12.2327
-13.1812
-14.3597
-15.6956
-17.0958
-18.4506
-19.64
-20.5423
-21.0457
-21.0624
-20.5408
-19.4778
-17.9169
-15.9456
-13.689
-11.2996
-8.9474
-6.80628
-5.02048
-3.67632
-2.81014
-2.43808
-2.57562
-3.23834
-4.44866
-6.19553
-8.40487
-10.9183
-13.5044
-15.8979
-17.8407
-19.1213
-19.6116
-19.2788
-18.2047
-16.5594
-14.5593
-12.4203
-10.3189
-8.37369
-6.64893
-5.16817
-3.92828
-2.91045
-2.08814
-1.43225
-0.914331
-0.508456
-0.192127
0.0534212
0.243337
0.389512
0.501086
0.584987
0.64646
0.689505
0.717258
0.73225
0.736602
0.732138
0.720447
0.702928
0.680796
0.655085
0.626669
0.596274
0.564504
0.531856
0.498745
0.465512
0.432445
0.399749
0.367605
0.336052
0.305214
0.274847
0.245288
0.215572
0.187314
0.156824
0.131256
0.0956022
0.0802675
0.0228767
0.0516821
-11.4646
-11.7197
-12.0123
-12.3054
-12.5471
-12.691
-12.7083
-12.592
-12.3583
-12.0491
-11.7313
-11.486
-11.3896
-11.4998
-11.8492
-12.4452
-13.2722
-14.2889
-15.4327
-16.6222
-17.7619
-18.7485
-19.4799
-19.8654
-19.8261
-19.3214
-18.3503
-16.9505
-15.1973
-13.1972
-11.0803
-8.99129
-7.07873
-5.46901
-4.24436
-3.44658
-3.09754
-3.21405
-3.808
-4.89101
-6.44472
-8.39775
-10.6109
-12.8852
-14.993
-16.71
-17.8559
-18.3151
-18.0557
-17.1408
-15.7095
-13.9432
-12.0265
-10.1153
-8.31967
-6.70408
-5.29707
-4.10219
-3.10735
-2.29194
-1.6317
-1.102
-0.679806
-0.344755
-0.07964
0.129581
0.294037
0.422372
0.521227
0.595713
0.649827
0.686787
0.709272
0.71959
0.719771
0.711618
0.696733
0.676519
0.65218
0.624733
0.595025
0.563751
0.531476
0.498663
0.465677
0.432818
0.400295
0.368288
0.336831
0.306046
0.275696
0.246112
0.216353
0.188001
0.157452
0.131701
0.0960727
0.0803238
0.0234412
0.0508553
-11.4609
-11.6818
-11.925
-12.1634
-12.3598
-12.4803
-12.5035
-12.4249
-12.2585
-12.0382
-11.8165
-11.6562
-11.618
-11.7485
-12.0753
-12.6051
-13.3247
-14.1992
-15.1751
-16.1824
-17.1391
-17.9569
-18.5496
-18.8349
-18.7537
-18.2706
-17.385
-16.1296
-14.5682
-12.7921
-10.9128
-9.05567
-7.34791
-5.89964
-4.78726
-4.05491
-3.72793
-3.82369
-4.35147
-5.31477
-6.69068
-8.4113
-10.3542
-12.3484
-14.1987
-15.712
-16.733
-17.1587
-16.9578
-16.1786
-14.9341
-13.3752
-11.6595
-9.92381
-8.26916
-6.75878
-5.42448
-4.27512
-3.30438
-2.49697
-1.83323
-1.29221
-0.853796
-0.499837
-0.214781
0.0142093
0.197425
0.34296
0.457133
0.544914
0.610295
0.656584
0.686624
0.702923
0.707732
0.703077
0.690777
0.67243
0.649413
0.622892
0.593833
0.563025
0.5311
0.498565
0.465813
0.433152
0.400797
0.368919
0.337556
0.306821
0.276488
0.246879
0.217083
0.18864
0.158047
0.132106
0.0965448
0.0803212
0.0240795
0.0498597
-11.4467
-11.6389
-11.8436
-12.0406
-12.2035
-12.3077
-12.3377
-12.2909
-12.1793
-12.0301
-11.8843
-11.7909
-11.7976
-11.9419
-12.2466
-12.7171
-13.3422
-14.0923
-14.9216
-15.7704
-16.5689
-17.242
-17.7152
-17.9213
-17.8097
-17.351
-16.5446
-15.4183
-14.027
-12.449
-10.7812
-9.13123
-7.60827
-6.30797
-5.3005
-4.63028
-4.32443
-4.40017
-4.86497
-5.71634
-6.92903
-8.43937
-10.1397
-11.8828
-13.5019
-14.8315
-15.7371
-16.1276
-15.973
-15.3093
-14.2275
-12.8528
-11.3188
-9.74505
-8.22326
-6.81415
-5.5514
-4.44792
-3.50223
-2.70382
-2.03728
-1.48529
-1.03062
-0.657439
-0.351958
-0.102639
0.0998857
0.263105
0.392987
0.49435
0.571182
0.626901
0.664526
0.686785
0.696168
0.694941
0.685147
0.66859
0.646825
0.62117
0.592713
0.562334
0.530734
0.498462
0.465934
0.43347
0.401283
0.369543
0.338282
0.307609
0.277305
0.247678
0.217854
0.189316
0.158687
0.13253
0.0970644
0.0802868
0.0248099
0.0486912
-11.4249
-11.5934
-11.768
-11.9338
-12.0719
-12.1649
-12.2019
-12.1815
-12.1139
-12.021
-11.935
-11.8937
-11.9344
-12.0871
-12.3699
-12.7871
-13.3287
-13.9699
-14.6716
-15.383
-16.0449
-16.5937
-16.9663
-17.1066
-16.9719
-16.5378
-15.8038
-14.7939
-13.555
-12.1547
-10.6763
-9.21217
-7.85591
-6.69086
-5.7809
-5.16926
-4.88348
-4.94021
-5.34547
-6.09288
-7.1562
-8.47659
-9.95936
-11.4782
-12.8901
-14.0541
-14.8535
-15.2084
-15.09
-14.5244
-13.5845
-12.3734
-11.0039
-9.57966
-8.18307
-6.87143
-5.679
-4.62162
-3.70181
-2.91323
-2.24447
-1.68166
-1.21055
-0.817683
-0.491145
-0.220819
0.00165697
0.183107
0.329119
0.444355
0.532812
0.598034
0.64324
0.671403
0.685269
0.687361
0.679961
0.665086
0.644477
0.619606
0.591683
0.561681
0.530365
0.498326
0.466001
0.433718
0.401691
0.370081
0.338919
0.308307
0.278032
0.248391
0.218545
0.189918
0.159274
0.132894
0.0975737
0.0801819
0.0256136
0.0473401
-11.3982
-11.5471
-11.6981
-11.8404
-11.9605
-12.046
-12.0894
-12.0907
-12.0582
-12.0096
-11.9697
-11.9681
-12.0336
-12.1897
-12.4507
-12.8198
-13.288
-13.8342
-14.4252
-15.0181
-15.5627
-16.0052
-16.2929
-16.3784
-16.2263
-15.8167
-15.1493
-14.2445
-13.1425
-11.9012
-10.592
-9.29417
-8.08803
-7.04618
-6.22634
-5.6695
-5.40261
-5.4415
-5.79086
-6.44236
-7.36946
-8.51858
-9.80661
-11.1252
-12.352
-13.3669
-14.069
-14.3886
-14.2983
-13.8161
-13.0001
-11.9346
-10.7143
-9.42824
-8.14975
-6.93192
-5.80858
-4.79746
-3.90421
-3.12618
-2.45558
-1.88195
-1.39399
-0.980754
-0.632344
-0.340176
-0.0969951
0.103304
0.265904
0.395309
0.495546
0.570311
0.623053
0.657016
0.675228
0.68049
0.675336
0.662007
0.642437
0.618254
0.59079
0.561111
0.530043
0.498214
0.466083
0.433979
0.402115
0.370645
0.339594
0.309053
0.27882
0.24917
0.219309
0.190585
0.159931
0.133297
0.0981475
0.0800536
0.0265238
0.045807
-11.3681
-11.5009
-11.6335
-11.7579
-11.8647
-11.9452
-11.9945
-12.0131
-12.0083
-11.9938
-11.9891
-12.0169
-12.0995
-12.2551
-12.4947
-12.8202
-13.2237
-13.687
-14.1821
-14.6728
-15.1169
-15.4691
-15.6853
-15.7261
-15.5621
-15.1769
-14.5704
-13.7602
-12.7806
-11.6812
-10.523
-9.37376
-8.3026
-7.37265
-6.63561
-6.12962
-5.88037
-5.90263
-6.20004
-6.76342
-7.56681
-8.56181
-9.67581
-10.8157
-11.8774
-12.7585
-13.3721
-13.6573
-13.5884
-13.1774
-12.4698
-11.5342
-10.4494
-9.29134
-8.12443
-6.99706
-5.94166
-4.97692
-4.11084
-3.34389
-2.67164
-2.08692
-1.58145
-1.14692
-0.775582
-0.460548
-0.195763
0.0240959
0.203787
0.347669
0.459821
0.544129
0.604312
0.643914
0.666283
0.674512
0.671407
0.659444
0.640756
0.61713
0.590021
0.560583
0.529703
0.498042
0.466073
0.434129
0.402416
0.371077
0.340133
0.309663
0.279474
0.249821
0.219958
0.191145
0.160512
0.13362
0.0986984
0.0798426
0.0275061
0.044074
-11.3363
-11.4558
-11.5739
-11.6847
-11.7816
-11.8588
-11.913
-11.9454
-11.9618
-11.9731
-11.9946
-12.0435
-12.137
-12.2887
-12.5071
-12.7931
-13.1395
-13.5308
-13.9432
-14.3462
-14.7045
-14.9803
-15.1368
-15.1413
-14.9695
-14.6081
-14.0572
-13.332
-12.4619
-11.4889
-10.4651
-9.44852
-8.49843
-7.66968
-7.00826
-6.54908
-6.31614
-6.32304
-6.5726
-7.05538
-7.74681
-8.6035
-9.56221
-10.5432
-11.4578
-12.219
-12.7522
-13.0045
-12.952
-12.6018
-11.9893
-11.1699
-10.2086
-9.16946
-8.10831
-7.06838
-6.07994
-5.16173
-4.32338
-3.5679
-2.89396
-2.29759
-1.77363
-1.31653
-0.920931
-0.581765
-0.294305
-0.0540682
0.143269
0.301938
0.426115
0.51992
0.587387
0.632412
0.658687
0.66963
0.668334
0.657526
0.639542
0.61633
0.589468
0.560197
0.529455
0.497934
0.466117
0.434332
0.402777
0.371582
0.340758
0.310372
0.280238
0.250585
0.220721
0.191808
0.161197
0.134006
0.0993337
0.0796209
0.0286129
0.0421509
-11.3031
-11.4117
-11.5182
-11.6185
-11.7081
-11.7828
-11.841
-11.8837
-11.916
-11.9465
-11.9867
-12.0499
-12.1491
-12.2945
-12.4922
-12.7423
-13.0384
-13.3669
-13.708
-14.0361
-14.3217
-14.5332
-14.6401
-14.6157
-14.4397
-14.1014
-13.6014
-12.9525
-12.1799
-11.3192
-10.415
-9.51658
-8.67483
-7.93724
-7.34446
-6.92807
-6.71006
-6.70284
-6.9086
-7.31809
-7.90855
-8.64141
-9.4618
-10.3016
-11.0855
-11.7396
-12.2001
-12.4213
-12.3811
-12.0832
-11.5546
-10.8395
-9.99119
-9.06305
-8.10256
-7.14754
-6.22537
-5.35399
-4.54389
-3.80014
-3.1242
-2.51528
-1.97141
-1.49009
-1.0685
-0.703634
-0.392207
-0.130637
0.0849627
0.258735
0.395009
0.498201
0.572724
0.622871
0.652722
0.666049
0.666255
0.656326
0.638811
0.615823
0.58906
0.559841
0.529157
0.497719
0.466015
0.434365
0.402954
0.371894
0.341188
0.310887
0.280815
0.251173
0.221326
0.192326
0.161683
0.134291
0.0999323
0.0793044
0.0297887
0.0400096
-11.2698
-11.3694
-11.4666
-11.5586
-11.6424
-11.7153
-11.7762
-11.8266
-11.8704
-11.9143
-11.9674
-12.0395
-12.1403
-12.2775
-12.4551
-12.6726
-12.9242
-13.1983
-13.4782
-13.7425
-13.9665
-14.1242
-14.1904
-14.143
-13.9657
-13.6497
-13.1959
-12.6153
-11.9294
-11.1685
-10.3702
-9.57679
-8.83162
-8.17578
-7.64495
-7.26736
-7.06291
-7.04277
-7.20866
-7.55183
-8.05159
-8.67388
-9.37136
-10.0859
-10.7538
-11.3125
-11.7076
-11.8997
-11.8688
-11.616
-11.1617
-10.5409
-9.79651
-8.9725
-8.10843
-7.2364
-6.3802
-5.55617
-4.77491
-4.043
-3.36445
-2.74162
-2.17595
-1.66821
-1.21847
-0.825972
-0.48903
-0.205013
0.0295395
0.218739
0.36714
0.479544
0.560814
0.615705
0.648729
0.664047
0.665396
0.656038
0.638739
0.615775
0.588963
0.559695
0.529004
0.497615
0.466013
0.434501
0.403246
0.372338
0.341767
0.311563
0.281561
0.25193
0.222097
0.192989
0.162396
0.134669
0.100639
0.078996
0.0311091
0.0376733
-11.2359
-11.3278
-11.4174
-11.5028
-11.5819
-11.6529
-11.7155
-11.771
-11.8226
-11.8756
-11.9367
-12.0133
-12.1126
-12.2401
-12.3983
-12.5863
-12.7988
-13.0259
-13.2533
-13.4634
-13.6356
-13.7486
-13.7816
-13.7166
-13.5402
-13.2457
-12.8339
-12.3145
-11.7057
-11.033
-10.3286
-9.62824
-8.96893
-8.38609
-7.91085
-7.56819
-7.37592
-7.34399
-7.47378
-7.75721
-8.17576
-8.69963
-9.28812
-9.89185
-10.457
-10.9308
-11.2672
-11.4324
-11.4086
-11.1949
-10.8069
-10.2717
-9.62365
-8.8981
-8.12716
-7.33695
-6.54702
-5.77126
-5.01955
-4.29948
-3.61736
-2.97874
-2.38872
-1.85173
-1.37106
-0.948518
-0.584182