/*--------------------------------*- C++ -*----------------------------------*\
  =========                 |
  \\      /  F ield         | OpenFOAM: The Open Source CFD Toolbox
   \\    /   O peration     | Website:  https://openfoam.org
    \\  /    A nd           | Version:  10
     \\/     M anipulation  |
\*---------------------------------------------------------------------------*/
FoamFile
{
    format      ascii;
    class       surfaceScalarField;
    location    "0.095";
    object      phi;
}
// * * * * * * * * * * * * * * * * * * * * * * * * * * * * * * * * * * * * * //

dimensions      [0 3 -1 0 0 0 0];

internalField   nonuniform List<scalar> 
13452
(
4.01923e-05
2.00762e-05
2.59348e-05
1.42575e-05
1.85319e-05
7.40282e-06
1.51609e-05
3.37101e-06
1.37484e-05
1.41247e-06
1.3043e-05
7.05417e-07
1.25922e-05
4.50808e-07
1.2244e-05
3.48195e-07
1.19487e-05
2.95338e-07
1.16941e-05
2.54543e-07
1.14761e-05
2.1801e-07
1.12907e-05
1.854e-07
1.11337e-05
1.56987e-07
1.1001e-05
1.32717e-07
1.08889e-05
1.1216e-07
1.07941e-05
9.47431e-08
1.07142e-05
7.99282e-08
1.06469e-05
6.7276e-08
1.05905e-05
5.6469e-08
1.05431e-05
4.73109e-08
1.05034e-05
3.97095e-08
1.04698e-05
3.36807e-08
1.04404e-05
2.93894e-08
1.04131e-05
2.72126e-08
1.03855e-05
2.76928e-08
1.03538e-05
3.16478e-08
1.03139e-05
3.99033e-08
1.02589e-05
5.49708e-08
1.01814e-05
7.75836e-08
1.00601e-05
1.21293e-07
9.88885e-06
1.71211e-07
9.53885e-06
3.49998e-07
3.26593e-07
9.21226e-06
6.59028e-05
1.61637e-05
6.1898e-05
1.82624e-05
5.56406e-05
1.36602e-05
4.97782e-05
9.23345e-06
4.52906e-05
5.89999e-06
4.20882e-05
3.90781e-06
3.97939e-05
2.7452e-06
3.81081e-05
2.03391e-06
3.68254e-05
1.57809e-06
3.58143e-05
1.26563e-06
3.49943e-05
1.03802e-06
3.43147e-05
8.65013e-07
3.37423e-05
7.29359e-07
3.32546e-05
6.20449e-07
3.28354e-05
5.31298e-07
3.24731e-05
4.57084e-07
3.21586e-05
3.944e-07
3.18851e-05
3.40822e-07
3.16469e-05
2.94643e-07
3.14395e-05
2.54696e-07
3.1259e-05
2.20222e-07
3.11018e-05
1.90831e-07
3.09647e-05
1.66554e-07
3.0844e-05
1.47846e-07
3.07362e-05
1.35513e-07
3.0637e-05
1.30869e-07
3.05411e-05
1.35856e-07
3.04416e-05
1.54466e-07
3.0328e-05
1.91159e-07
3.01889e-05
2.60405e-07
2.99958e-05
3.64296e-07
2.97674e-05
5.7836e-07
8.43044e-07
2.9251e-05
6.9181e-05
1.07441e-05
7.25071e-05
1.49363e-05
7.3061e-05
1.31062e-05
7.16892e-05
1.06052e-05
6.94492e-05
8.14004e-06
6.70777e-05
6.27934e-06
6.48578e-05
4.96511e-06
6.28799e-05
4.01177e-06
6.11543e-05
3.30374e-06
5.96584e-05
2.76148e-06
5.83629e-05
2.33356e-06
5.72392e-05
1.98865e-06
5.62623e-05
1.70633e-06
5.54104e-05
1.47231e-06
5.46655e-05
1.27616e-06
5.40125e-05
1.1101e-06
5.34387e-05
9.68233e-07
5.29334e-05
8.46058e-07
5.24879e-05
7.40183e-07
5.20945e-05
6.48083e-07
5.17468e-05
5.67951e-07
5.1439e-05
4.98631e-07
5.11659e-05
4.39605e-07
5.09228e-05
3.90978e-07
5.07048e-05
3.53494e-07
5.05069e-05
3.28743e-07
5.03234e-05
3.19389e-07
5.01476e-05
3.30233e-07
4.99711e-05
3.67692e-07
4.97863e-05
4.45253e-07
4.95767e-05
5.73901e-07
4.9354e-05
8.01014e-07
1.12405e-06
4.9073e-05
6.88454e-05
7.48181e-06
7.21593e-05
1.16224e-05
7.45327e-05
1.07329e-05
7.5941e-05
9.19692e-06
7.65175e-05
7.56352e-06
7.65797e-05
6.21713e-06
7.6336e-05
5.20886e-06
7.59121e-05
4.43565e-06
7.53888e-05
3.82704e-06
7.48148e-05
3.33551e-06
7.42205e-05
2.92787e-06
7.36258e-05
2.58335e-06
7.30443e-05
2.28782e-06
7.24852e-05
2.0314e-06
7.1954e-05
1.80739e-06
7.14536e-05
1.6105e-06
7.09853e-05
1.43647e-06
7.05494e-05
1.28194e-06
7.01454e-05
1.14425e-06
6.97721e-05
1.02141e-06
6.9428e-05
9.11972e-07
6.91116e-05
8.15076e-07
6.88208e-05
7.3043e-07
6.85534e-05
6.58378e-07
6.83069e-05
5.99952e-07
6.80786e-05
5.57085e-07
6.78651e-05
5.32865e-07
6.7663e-05
5.32293e-07
6.74685e-05
5.62191e-07
6.72798e-05
6.33949e-07
6.70945e-05
7.59191e-07
6.69307e-05
9.64811e-07
1.25408e-06
6.68007e-05
6.95584e-05
5.38023e-06
7.1834e-05
9.34673e-06
7.35341e-05
9.03282e-06
7.48024e-05
7.92857e-06
7.56922e-05
6.67374e-06
7.63408e-05
5.5685e-06
7.68346e-05
4.7151e-06
7.72154e-05
4.05479e-06
7.75116e-05
3.53083e-06
7.77418e-05
3.1053e-06
7.7919e-05
2.75075e-06
7.80532e-05
2.44913e-06
7.81518e-05
2.18919e-06
7.82204e-05
1.96283e-06
7.82643e-05
1.76345e-06
7.82885e-05
1.5863e-06
7.82971e-05
1.42787e-06
7.82936e-05
1.28545e-06
7.82808e-05
1.15703e-06
7.82611e-05
1.04112e-06
7.82364e-05
9.36745e-07
7.8208e-05
8.43435e-07
7.81772e-05
7.61231e-07
7.81448e-05
6.9074e-07
7.81116e-05
6.33205e-07
7.8078e-05
5.90674e-07
7.80447e-05
5.66185e-07
7.80128e-05
5.6421e-07
7.79844e-05
5.90504e-07
7.79652e-05
6.53224e-07
7.79643e-05
7.60069e-07
7.80055e-05
9.23619e-07
1.13695e-06
7.81226e-05
7.08398e-05
3.92449e-06
7.26261e-05
7.5604e-06
7.3932e-05
7.72687e-06
7.48617e-05
6.99893e-06
7.54915e-05
6.04388e-06
7.59409e-05
5.11911e-06
7.6297e-05
4.35907e-06
7.66001e-05
3.75171e-06
7.68706e-05
3.26028e-06
7.71186e-05
2.85734e-06
7.73483e-05
2.52105e-06
7.7562e-05
2.23537e-06
7.77619e-05
1.98926e-06
7.79498e-05
1.77495e-06
7.81266e-05
1.58666e-06
7.8293e-05
1.41991e-06
7.84496e-05
1.27128e-06
7.85969e-05
1.13812e-06
7.87355e-05
1.01846e-06
7.88657e-05
9.10841e-07
7.89882e-05
8.1432e-07
7.91032e-05
7.28413e-07
7.92113e-05
6.53107e-07
7.93132e-05
5.88889e-07
7.94096e-05
5.36773e-07
7.95019e-05
4.98397e-07
7.9592e-05
4.76067e-07
7.96832e-05
4.72956e-07
7.9781e-05
4.92708e-07
7.98944e-05
5.3983e-07
8.00377e-05
6.16797e-07
8.02347e-05
7.26633e-07
8.54152e-07
8.05175e-05
7.23884e-05
2.90239e-06
7.384e-05
6.10886e-06
7.49672e-05
6.59963e-06
7.57854e-05
6.18078e-06
7.6344e-05
5.48521e-06
7.67271e-05
4.73601e-06
7.70111e-05
4.0751e-06
7.72382e-05
3.52464e-06
7.74318e-05
3.06663e-06
7.76055e-05
2.68366e-06
7.77663e-05
2.36024e-06
7.79181e-05
2.08361e-06
7.8063e-05
1.84436e-06
7.82023e-05
1.63559e-06
7.8337e-05
1.452e-06
7.84675e-05
1.28946e-06
7.8594e-05
1.14476e-06
7.87167e-05
1.0154e-06
7.88357e-05
8.99462e-07
7.8951e-05
7.9553e-07
7.90627e-05
7.0264e-07
7.91708e-05
6.20246e-07
7.92757e-05
5.48209e-07
7.93778e-05
4.86801e-07
7.94779e-05
4.36692e-07
7.95773e-05
3.98975e-07
7.96783e-05
3.75107e-07
7.97843e-05
3.66905e-07
7.9901e-05
3.7601e-07
8.0037e-05
4.0383e-07
8.02049e-05
4.48972e-07
8.0423e-05
5.08489e-07
5.65489e-07
8.07117e-05
7.41249e-05
2.18281e-06
7.52914e-05
4.94227e-06
7.62723e-05
5.61881e-06
7.70238e-05
5.42923e-06
7.75692e-05
4.93978e-06
7.79581e-05
4.34715e-06
7.82482e-05
3.78499e-06
7.84771e-05
3.29573e-06
7.86674e-05
2.87632e-06
7.88333e-05
2.51782e-06
7.8983e-05
2.21052e-06
7.91215e-05
1.94507e-06
7.92519e-05
1.71395e-06
7.93762e-05
1.51132e-06
7.94957e-05
1.33257e-06
7.96111e-05
1.17401e-06
7.97232e-05
1.0327e-06
7.98322e-05
9.06328e-07
7.99386e-05
7.93078e-07
8.00426e-05
6.9159e-07
8.01443e-05
6.00896e-07
8.02442e-05
5.20388e-07
8.03426e-05
4.49794e-07
8.04402e-05
3.8915e-07
8.05382e-05
3.38768e-07
8.06379e-05
2.99188e-07
8.0742e-05
2.71051e-07
8.08539e-05
2.54955e-07
8.0979e-05
2.50912e-07
8.11248e-05
2.58062e-07
8.13011e-05
2.72699e-07
8.15209e-05
2.88703e-07
2.90609e-07
8.17958e-05
7.60163e-05
1.66897e-06
7.69519e-05
4.0067e-06
7.77996e-05
4.77109e-06
7.848e-05
4.7488e-06
7.89998e-05
4.41999e-06
7.93877e-05
3.9593e-06
7.96859e-05
3.48681e-06
7.99257e-05
3.05585e-06
8.0127e-05
2.67503e-06
8.03025e-05
2.3423e-06
8.04604e-05
2.05265e-06
8.06057e-05
1.79982e-06
8.07416e-05
1.57805e-06
8.08703e-05
1.38259e-06
8.09934e-05
1.2095e-06
8.11118e-05
1.05556e-06
8.12264e-05
9.18108e-07
8.13377e-05
7.95029e-07
8.14462e-05
6.84629e-07
8.15521e-05
5.85595e-07
8.16561e-05
4.9695e-07
8.17585e-05
4.18012e-07
8.18599e-05
3.48356e-07
8.19613e-05
2.87776e-07
8.20638e-05
2.36219e-07
8.21693e-05
1.93698e-07
8.22802e-05
1.60125e-07
8.24001e-05
1.35113e-07
8.25335e-05
1.17482e-07
8.26867e-05
1.0492e-07
8.28668e-05
9.2608e-08
8.30821e-05
7.33287e-08
3.4348e-08
8.33384e-05
7.80325e-05
1.29601e-06
7.87827e-05
3.25654e-06
7.95131e-05
4.04072e-06
8.01267e-05
4.13513e-06
8.06175e-05
3.92923e-06
8.09992e-05
3.57755e-06
8.13009e-05
3.18513e-06
8.15477e-05
2.80903e-06
8.17567e-05
2.46606e-06
8.19395e-05
2.15948e-06
8.2104e-05
1.88815e-06
8.22553e-05
1.64857e-06
8.23966e-05
1.43669e-06
8.25304e-05
1.24883e-06
8.26581e-05
1.08177e-06
8.2781e-05
9.32727e-07
8.28997e-05
7.99363e-07
8.3015e-05
6.79742e-07
8.31273e-05
5.72282e-07
8.32372e-05
4.75708e-07
8.33451e-05
3.89023e-07
8.34517e-05
3.11458e-07
8.35576e-05
2.42434e-07
8.36639e-05
1.81506e-07
8.37718e-05
1.28279e-07
8.38832e-05
8.23023e-08
8.40005e-05
4.29004e-08
8.41266e-05
8.96718e-09
8.42655e-05
-2.14426e-08
8.44219e-05
-5.14124e-08
8.46005e-05
-8.60317e-08
8.48062e-05
-1.32334e-07
-2.00519e-07
8.5041e-05
8.01542e-05
1.02017e-06
8.07574e-05
2.6533e-06
8.13861e-05
3.412e-06
8.19388e-05
3.58245e-06
8.23992e-05
3.4688e-06
8.27711e-05
3.20565e-06
8.3073e-05
2.88324e-06
8.33245e-05
2.5576e-06
8.35398e-05
2.25069e-06
8.37294e-05
1.96986e-06
8.39005e-05
1.71708e-06
8.40579e-05
1.49115e-06
8.4205e-05
1.28962e-06
8.4344e-05
1.1098e-06
8.44767e-05
9.49148e-07
8.46041e-05
8.05333e-07
8.47271e-05
6.76312e-07
8.48465e-05
5.60337e-07
8.49629e-05
4.55927e-07
8.50767e-05
3.61849e-07
8.51887e-05
2.77079e-07
8.52994e-05
2.00769e-07
8.54096e-05
1.32193e-07
8.55204e-05
7.06859e-08
8.56331e-05
1.55635e-08
8.57494e-05
-3.39848e-08
8.58714e-05
-7.90583e-08
8.60016e-05
-1.21231e-07
8.6143e-05
-1.6285e-07
8.62988e-05
-2.07248e-07
8.6472e-05
-2.59217e-07
8.66646e-05
-3.24936e-07
-4.12096e-07
8.68762e-05
8.23687e-05
8.11914e-07
8.28561e-05
2.16589e-06
8.33968e-05
2.87131e-06
8.38936e-05
3.08568e-06
8.43235e-05
3.03885e-06
8.46835e-05
2.84565e-06
8.4984e-05
2.58277e-06
8.52391e-05
2.30246e-06
8.54605e-05
2.02929e-06
8.56569e-05
1.77349e-06
8.58347e-05
1.53926e-06
8.59986e-05
1.32732e-06
8.61516e-05
1.13654e-06
8.62963e-05
9.65187e-07
8.64341e-05
8.11331e-07
8.65663e-05
6.73083e-07
8.66939e-05
5.48688e-07
8.68177e-05
4.36582e-07
8.69382e-05
3.35389e-07
8.70562e-05
2.43912e-07
8.71721e-05
1.6111e-07
8.72869e-05
8.60606e-08
8.74011e-05
1.791e-08
8.7516e-05
-4.41792e-08
8.76327e-05
-1.01109e-07
8.77526e-05
-1.5395e-07
8.78776e-05
-2.04071e-07
8.80097e-05
-2.53283e-07
8.81509e-05
-3.04038e-07
8.83032e-05
-3.59551e-07
8.8468e-05
-4.24012e-07
8.86455e-05
-5.02494e-07
-6.00524e-07
8.8834e-05
8.46684e-05
6.51312e-07
8.50649e-05
1.76936e-06
8.55302e-05
2.40596e-06
8.59765e-05
2.63945e-06
8.63768e-05
2.63857e-06
8.67233e-05
2.49915e-06
8.70203e-05
2.28576e-06
8.72774e-05
2.04534e-06
8.75036e-05
1.80311e-06
8.7706e-05
1.57105e-06
8.78903e-05
1.35496e-06
8.80606e-05
1.157e-06
8.82199e-05
9.77207e-07
8.83705e-05
8.14626e-07
8.85139e-05
6.6791e-07
8.86514e-05
5.35567e-07
8.8784e-05
4.16113e-07
8.89124e-05
3.08156e-07
8.90374e-05
2.10419e-07
8.91596e-05
1.21745e-07
8.92796e-05
4.10773e-08
8.93982e-05
-3.2562e-08
8.95163e-05
-1.00119e-07
8.96346e-05
-1.62557e-07
8.97545e-05
-2.2093e-07
8.9877e-05
-2.76463e-07
9.00036e-05
-3.30652e-07
9.01356e-05
-3.8536e-07
9.02745e-05
-4.42936e-07
9.04212e-05
-5.06258e-07
9.0576e-05
-5.78782e-07
9.0738e-05
-6.64432e-07
-7.66979e-07
9.09044e-05
8.70487e-05
5.24793e-07
8.73741e-05
1.44392e-06
8.77755e-05
2.00457e-06
8.81764e-05
2.23858e-06
8.85482e-05
2.26671e-06
8.88803e-05
2.16711e-06
8.91724e-05
1.99368e-06
8.94302e-05
1.78749e-06
8.96603e-05
1.573e-06
8.98684e-05
1.36301e-06
9.0059e-05
1.16436e-06
9.02357e-05
9.80235e-07
9.04014e-05
8.1154e-07
9.0558e-05
6.58002e-07
9.07072e-05
5.1876e-07
9.08501e-05
3.92674e-07
9.09877e-05
2.78506e-07
9.11208e-05
1.75021e-07
9.12502e-05
8.10397e-08
9.13765e-05
-4.55604e-09
9.15004e-05
-8.28204e-08
9.16226e-05
-1.54766e-07
9.17439e-05
-2.214e-07
9.18651e-05
-2.83766e-07
9.19871e-05
-3.42997e-07
9.21111e-05
-4.00381e-07
9.22378e-05
-4.57426e-07
9.23684e-05
-5.15913e-07
9.25034e-05
-5.77952e-07
9.26431e-05
-6.45975e-07
9.2787e-05
-7.22691e-07
9.29336e-05
-8.10978e-07
-9.13254e-07
9.30798e-05
8.95073e-05
4.2303e-07
8.97772e-05
1.17405e-06
9.01248e-05
1.65694e-06
9.04855e-05
1.87789e-06
9.08308e-05
1.92138e-06
9.11482e-05
1.84974e-06
9.14344e-05
1.70754e-06
9.16918e-05
1.53001e-06
9.19249e-05
1.33991e-06
9.21378e-05
1.15012e-06
9.23342e-05
9.67971e-07
9.25171e-05
7.97303e-07
9.2689e-05
6.39677e-07
9.28517e-05
4.95344e-07
9.30066e-05
3.63845e-07
9.31549e-05
2.4434e-07
9.32976e-05
1.35802e-07
9.34355e-05
3.71411e-08
9.35693e-05
-5.27376e-08
9.36996e-05
-1.34904e-07
9.38272e-05
-2.104e-07
9.39527e-05
-2.80252e-07
9.40768e-05
-3.45495e-07
9.42002e-05
-4.07206e-07
9.43238e-05
-4.66538e-07
9.44481e-05
-5.24767e-07
9.4574e-05
-5.83325e-07
9.4702e-05
-6.43824e-07
9.48321e-05
-7.08068e-07
9.49641e-05
-7.78009e-07
9.50971e-05
-8.55671e-07
9.52292e-05
-9.43043e-07
-1.04153e-06
9.53574e-05
9.20434e-05
3.39515e-07
9.22699e-05
9.47545e-07
9.25727e-05
1.35408e-06
9.28982e-05
1.55239e-06
9.32192e-05
1.60036e-06
9.35223e-05
1.54671e-06
9.38019e-05
1.42791e-06
9.40582e-05
1.2737e-06
9.42936e-05
1.10455e-06
9.45108e-05
9.32884e-07
9.47127e-05
7.66096e-07
9.49016e-05
6.08364e-07
9.50796e-05
4.6167e-07
9.52483e-05
3.26646e-07
9.5409e-05
2.03138e-07
9.55628e-05
9.05426e-08
9.57106e-05
-1.1991e-08
9.58532e-05
-1.05432e-07
9.59912e-05
-1.90793e-07
9.61254e-05
-2.69097e-07
9.62564e-05
-3.41363e-07
9.63848e-05
-4.08612e-07
9.65111e-05
-4.71877e-07
9.66362e-05
-5.32226e-07
9.67604e-05
-5.90785e-07
9.68844e-05
-6.48759e-07
9.70085e-05
-7.07449e-07
9.7133e-05
-7.6825e-07
9.72575e-05
-8.32635e-07
9.73816e-05
-9.02104e-07
9.7504e-05
-9.78085e-07
9.76228e-05
-1.06186e-06
-1.15411e-06
9.77354e-05
9.4657e-05
2.69628e-07
9.48497e-05
7.54883e-07
9.51156e-05
1.08817e-06
9.54107e-05
1.25728e-06
9.57099e-05
1.30116e-06
9.59994e-05
1.25719e-06
9.62725e-05
1.15489e-06
9.65272e-05
1.01898e-06
9.67643e-05
8.67432e-07
9.69854e-05
7.11745e-07
9.71925e-05
5.59074e-07
9.73872e-05
4.13652e-07
9.75712e-05
2.77672e-07
9.77458e-05
1.52e-07
9.79123e-05
3.66956e-08
9.80715e-05
-6.86721e-08
9.82243e-05
-1.64818e-07
9.83715e-05
-2.52611e-07
9.85137e-05
-3.32995e-07
9.86515e-05
-4.06945e-07
9.87856e-05
-4.75449e-07
9.89165e-05
-5.39503e-07
9.90448e-05
-6.00115e-07
9.91708e-05
-6.58311e-07
9.92952e-05
-7.15153e-07
9.94182e-05
-7.71739e-07
9.95399e-05
-8.29207e-07
9.96604e-05
-8.8872e-07
9.97792e-05
-9.51432e-07
9.98955e-05
-1.01844e-06
0.000100008
-1.09068e-06
0.000100115
-1.1689e-06
-1.25329e-06
0.000100214
9.73491e-05
2.10013e-07
9.75154e-05
5.88571e-07
9.77512e-05
8.5241e-07
9.80205e-05
9.87993e-07
9.83006e-05
1.0211e-06
9.85778e-05
9.79958e-07
9.88445e-05
8.88153e-07
9.90975e-05
7.65965e-07
9.93362e-05
6.2879e-07
9.9561e-05
4.86955e-07
9.9773e-05
3.47099e-07
9.99733e-05
2.13289e-07
0.000100163
8.77433e-08
0.000100344
-2.85677e-08
0.000100516
-1.35468e-07
0.000100681
-2.33278e-07
0.000100838
-3.22621e-07
0.00010099
-4.04293e-07
0.000101136
-4.79181e-07
0.000101278
-5.48217e-07
0.000101414
-6.12352e-07
0.000101547
-6.72545e-07
0.000101677
-7.29756e-07
0.000101804
-7.84953e-07
0.000101928
-8.39105e-07
0.000102049
-8.93185e-07
0.000102168
-9.48158e-07
0.000102284
-1.00496e-06
0.000102397
-1.06445e-06
0.000102506
-1.1274e-06
0.00010261
-1.19436e-06
0.000102707
-1.26569e-06
-1.34126e-06
0.000102795
0.000100121
1.58173e-07
0.000100267
4.42677e-07
0.000100478
6.4093e-07
0.000100726
7.40214e-07
0.00010099
7.57372e-07
0.000101256
7.1342e-07
0.000101518
6.26951e-07
0.000101769
5.14367e-07
0.000102009
3.88564e-07
0.000102238
2.58529e-07
0.000102455
1.30197e-07
0.000102661
7.2842e-09
0.000102857
-1.08122e-07
0.000103043
-2.15071e-07
0.000103221
-3.1336e-07
0.000103391
-4.03264e-07
0.000103554
-4.8536e-07
0.00010371
-5.60397e-07
0.00010386
-6.29223e-07
0.000104004
-6.92732e-07
0.000104144
-7.51836e-07
0.000104279
-8.07448e-07
0.000104409
-8.60471e-07
0.000104536
-9.11796e-07
0.000104659
-9.62292e-07
0.000104779
-1.0128e-06
0.000104895
-1.06411e-06
0.000105007
-1.11696e-06
0.000105115
-1.17196e-06
0.000105217
-1.2296e-06
0.000105313
-1.29017e-06
0.000105401
-1.35373e-06
-1.41998e-06
0.000105479
0.000102974
1.12202e-07
0.000103104
3.12442e-07
0.000103297
4.48632e-07
0.000103527
5.09876e-07
0.000103777
5.07085e-07
0.000104035
4.55705e-07
0.000104292
3.70188e-07
0.000104542
2.6358e-07
0.000104785
1.46424e-07
0.000105017
2.62831e-08
0.000105239
-9.17456e-08
0.000105451
-2.04442e-07
0.000105652
-3.09984e-07
0.000105845
-4.07549e-07
0.000106028
-4.96992e-07
0.000106204
-5.78608e-07
0.000106371
-6.52968e-07
0.000106532
-7.20809e-07
0.000106686
-7.82956e-07
0.000106833
-8.40272e-07
0.000106975
-8.93634e-07
0.000107111
-9.43904e-07
0.000107243
-9.91924e-07
0.00010737
-1.0385e-06
0.000107492
-1.08441e-06
0.000107609
-1.13035e-06
0.000107722
-1.17696e-06
0.00010783
-1.22479e-06
0.000107932
-1.27428e-06
0.000108028
-1.32568e-06
0.000108117
-1.37911e-06
0.000108198
-1.43443e-06
-1.49126e-06
0.000108269
0.00010591
7.05937e-08
0.000106029
1.93975e-07
0.000106206
2.7105e-07
0.000106423
2.93116e-07
0.000106663
2.67242e-07
0.000106914
2.04649e-07
0.000107168
1.16377e-07
0.000107419
1.25845e-08
0.000107664
-9.8355e-08
0.0001079
-2.10323e-07
0.000108128
-3.19159e-07
0.000108345
-4.22248e-07
0.000108554
-5.18141e-07
0.000108752
-6.06248e-07
0.000108942
-6.8656e-07
0.000109123
-7.5945e-07
0.000109295
-8.2553e-07
0.00010946
-8.85555e-07
0.000109617
-9.40345e-07
0.000109768
-9.90749e-07
0.000109912
-1.03761e-06
0.00011005
-1.08174e-06
0.000110182
-1.12393e-06
0.000110308
-1.1649e-06
0.000110429
-1.20531e-06
0.000110544
-1.24577e-06
0.000110654
-1.28677e-06
0.000110758
-1.32872e-06
0.000110856
-1.37187e-06
0.000110946
-1.41637e-06
0.00011103
-1.46216e-06
0.000111104
-1.50902e-06
-1.55652e-06
0.000111169
0.000108932
3.21221e-08
0.000109042
8.40121e-08
0.000109209
1.042e-07
0.000109416
8.62392e-08
0.000109648
3.47714e-08
0.000109895
-4.21447e-08
0.000110147
-1.36266e-07
0.0001104
-2.39916e-07
0.000110648
-3.46722e-07
0.00011089
-4.5199e-07
0.000111123
-5.52562e-07
0.000111348
-6.46514e-07
0.000111562
-7.32873e-07
0.000111768
-8.11363e-07
0.000111963
-8.82181e-07
0.00011215
-9.45838e-07
0.000112327
-1.00303e-06
0.000112496
-1.05456e-06
0.000112657
-1.10126e-06
0.00011281
-1.14399e-06
0.000112956
-1.18356e-06
0.000113095
-1.22074e-06
0.000113227
-1.25627e-06
0.000113353
-1.29079e-06
0.000113473
-1.32488e-06
0.000113586
-1.35903e-06
0.000113693
-1.39363e-06
0.000113793
-1.42896e-06
0.000113887
-1.46518e-06
0.000113973
-1.50231e-06
0.000114051
-1.54021e-06
0.00011412
-1.57863e-06
-1.61712e-06
0.000114181
0.000112041
-4.25993e-09
0.000112145
-2.02888e-08
0.000112305
-5.55778e-08
0.000112506
-1.14398e-07
0.000112734
-1.93584e-07
0.000112979
-2.87437e-07
0.000113233
-3.9001e-07
0.000113489
-4.95783e-07
0.000113742
-6.00207e-07
0.00011399
-6.99992e-07
0.000114231
-7.93024e-07
0.000114462
-8.78146e-07
0.000114684
-9.5494e-07
0.000114897
-1.02352e-06
0.000115099
-1.08436e-06
0.000115291
-1.13817e-06
0.000115474
-1.18576e-06
0.000115647
-1.22802e-06
0.000115812
-1.26583e-06
0.000115968
-1.30004e-06
0.000116116
-1.33147e-06
0.000116256
-1.36086e-06
0.000116389
-1.38889e-06
0.000116514
-1.41614e-06
0.000116632
-1.44311e-06
0.000116743
-1.4702e-06
0.000116847
-1.49772e-06
0.000116944
-1.52584e-06
0.000117034
-1.55465e-06
0.000117116
-1.58409e-06
0.000117189
-1.61398e-06
0.000117255
-1.64403e-06
-1.67382e-06
0.000117311
0.00011524
-3.94909e-08
0.000115341
-1.21492e-07
0.000115497
-2.11726e-07
0.000115695
-3.12387e-07
0.000115923
-4.21168e-07
0.000116169
-5.34147e-07
0.000116427
-6.47292e-07
0.000116688
-7.56985e-07
0.000116948
-8.60379e-07
0.000117204
-9.55566e-07
0.000117452
-1.04151e-06
0.000117692
-1.11789e-06
0.000117922
-1.18491e-06
0.000118141
-1.24314e-06
0.00011835
-1.29341e-06
0.000118549
-1.33664e-06
0.000118737
-1.37383e-06
0.000118915
-1.40597e-06
0.000119083
-1.43401e-06
0.000119242
-1.45883e-06
0.000119392
-1.48125e-06
0.000119533
-1.50199e-06
0.000119666
-1.52168e-06
0.00011979
-1.54086e-06
0.000119907
-1.55996e-06
0.000120016
-1.57932e-06
0.000120118
-1.59916e-06
0.000120211
-1.6196e-06
0.000120297
-1.64065e-06
0.000120376
-1.66222e-06
0.000120446
-1.68411e-06
0.000120508
-1.70605e-06
-1.72763e-06
0.000120562
0.000118531
-7.44542e-08
0.000118631
-2.22087e-07
0.000118787
-3.67738e-07
0.000118987
-5.11609e-07
0.000119217
-6.51863e-07
0.000119469
-7.85948e-07
0.000119733
-9.11468e-07
0.000120003
-1.02653e-06
0.000120272
-1.12989e-06
0.000120538
-1.22102e-06
0.000120796
-1.30001e-06
0.000121046
-1.36743e-06
0.000121285
-1.42418e-06
0.000121513
-1.47137e-06
0.00012173
-1.51022e-06
0.000121935
-1.54195e-06
0.000122129
-1.56776e-06
0.000122312
-1.58878e-06
0.000122484
-1.60605e-06
0.000122646
-1.6205e-06
0.000122798
-1.63296e-06
0.00012294
-1.64414e-06
0.000123073
-1.65464e-06
0.000123197
-1.66496e-06
0.000123312
-1.67548e-06
0.00012342
-1.68647e-06
0.000123518
-1.6981e-06
0.000123609
-1.71044e-06
0.000123692
-1.72346e-06
0.000123767
-1.73703e-06
0.000123834
-1.75094e-06
0.000123893
-1.76492e-06
-1.77858e-06
0.000123944
0.000121917
-1.10022e-07
0.000122019
-3.24522e-07
0.000122179
-5.2707e-07
0.000122383
-7.15911e-07
0.000122621
-8.89466e-07
0.000122881
-1.04633e-06
0.000123155
-1.1856e-06
0.000123436
-1.307e-06
0.000123717
-1.41089e-06
0.000123994
-1.49813e-06
0.000124264
-1.56998e-06
0.000124524
-1.62796e-06
0.000124774
-1.67373e-06
0.000125011
-1.70901e-06
0.000125237
-1.73544e-06
0.000125449
-1.7546e-06
0.000125649
-1.76793e-06
0.000125837
-1.77672e-06
0.000126013
-1.78214e-06
0.000126178
-1.78516e-06
0.000126332
-1.78666e-06
0.000126475
-1.78734e-06
0.000126608
-1.78778e-06
0.000126732
-1.78845e-06
0.000126846
-1.78968e-06
0.000126951
-1.79171e-06
0.000127048
-1.79465e-06
0.000127136
-1.79854e-06
0.000127216
-1.80331e-06
0.000127287
-1.80882e-06
0.000127351
-1.81487e-06
0.000127408
-1.82121e-06
-1.82749e-06
0.000127456
0.000125401
-1.47208e-07
0.000125508
-4.31651e-07
0.000125675
-6.9395e-07
0.000125889
-9.30346e-07
0.000126139
-1.13941e-06
0.000126413
-1.32077e-06
0.000126703
-1.47492e-06
0.000126999
-1.60323e-06
0.000127296
-1.70769e-06
0.000127588
-1.79062e-06
0.000127873
-1.85456e-06
0.000128147
-1.90206e-06
0.000128409
-1.93564e-06
0.000128658
-1.95766e-06
0.000128892
-1.9703e-06
0.000129113
-1.97549e-06
0.00012932
-1.97497e-06
0.000129514
-1.97021e-06
0.000129694
-1.96251e-06
0.000129862
-1.95293e-06
0.000130018
-1.94236e-06
0.000130162
-1.93153e-06
0.000130295
-1.92101e-06
0.000130418
-1.91122e-06
0.000130531
-1.90247e-06
0.000130634
-1.89495e-06
0.000130728
-1.88874e-06
0.000130813
-1.88384e-06
0.00013089
-1.88016e-06
0.000130959
-1.87753e-06
0.00013102
-1.87574e-06
0.000131073
-1.87453e-06
-1.87355e-06
0.000131119
0.000128985
-1.86973e-07
0.000129099
-5.46239e-07
0.000129278
-8.72258e-07
0.000129507
-1.15921e-06
0.000129773
-1.40593e-06
0.000130066
-1.61319e-06
0.000130374
-1.78299e-06
0.000130689
-1.91841e-06
0.000131004
-2.02315e-06
0.000131315
-2.10109e-06
0.000131616
-2.15608e-06
0.000131906
-2.19183e-06
0.000132182
-2.21176e-06
0.000132443
-2.21897e-06
0.000132689
-2.2162e-06
0.00013292
-2.20582e-06
0.000133135
-2.18986e-06
0.000133334
-2.17004e-06
0.00013352
-2.14779e-06
0.000133691
-2.12427e-06
0.000133849
-2.10041e-06
0.000133995
-2.07697e-06
0.000134128
-2.05449e-06
0.00013425
-2.03338e-06
0.000134362
-2.01392e-06
0.000134463
-1.99625e-06
0.000134555
-1.98043e-06
0.000134637
-1.96641e-06
0.000134711
-1.95409e-06
0.000134777
-1.94329e-06
0.000134835
-1.9338e-06
0.000134886
-1.92538e-06
-1.91768e-06
0.00013493
0.000132673
-2.31021e-07
0.0001328
-6.7294e-07
0.000132997
-1.069e-06
0.000133248
-1.41103e-06
0.000133541
-1.69828e-06
0.00013386
-1.93281e-06
0.000134196
-2.11839e-06
0.000134537
-2.26011e-06
0.000134878
-2.36365e-06
0.000135212
-2.43469e-06
0.000135534
-2.4786e-06
0.000135843
-2.50033e-06
0.000136135
-2.50434e-06
0.000136411
-2.49451e-06
0.000136669
-2.47419e-06
0.000136909
-2.4462e-06
0.000137132
-2.41292e-06
0.000137338
-2.37629e-06
0.000137528
-2.33789e-06
0.000137703
-2.29897e-06
0.000137863
-2.26052e-06
0.00013801
-2.2233e-06
0.000138143
-2.18784e-06
0.000138264
-2.15454e-06
0.000138374
-2.12362e-06
0.000138473
-2.09519e-06
0.000138562
-2.06928e-06
0.000138641
-2.0458e-06
0.000138712
-2.02461e-06
0.000138774
-2.0055e-06
0.000138828
-1.98822e-06
0.000138875
-1.97252e-06
-1.95801e-06
0.000138916
0.000136467
-2.8019e-07
0.000136609
-8.14637e-07
0.000136828
-1.28792e-06
0.000137107
-1.68969e-06
0.000137429
-2.02037e-06
0.00013778
-2.28373e-06
0.000138147
-2.48549e-06
0.00013852
-2.63298e-06
0.00013889
-2.73406e-06
0.000139252
-2.79633e-06
0.0001396
-2.82687e-06
0.000139932
-2.83204e-06
0.000140245
-2.81745e-06
0.000140538
-2.78788e-06
0.000140811
-2.74736e-06
0.000141064
-2.69925e-06
0.000141298
-2.64628e-06
0.000141512
-2.59066e-06
0.000141708
-2.53413e-06
0.000141887
-2.47804e-06
0.00014205
-2.42342e-06
0.000142198
-2.37103e-06
0.000142332
-2.32141e-06
0.000142452
-2.27489e-06
0.00014256
-2.23167e-06
0.000142657
-2.19181e-06
0.000142743
-2.15529e-06
0.000142819
-2.12197e-06
0.000142886
-2.0917e-06
0.000142945
-2.06423e-06
0.000142996
-2.0393e-06
0.00014304
-2.01666e-06
-1.99589e-06
0.000143078
0.000140375
-3.39145e-07
0.000140543
-9.82587e-07
0.0001408
-1.54495e-06
0.000141123
-2.01319e-06
0.000141493
-2.38988e-06
0.000141891
-2.6816e-06
0.000142302
-2.89705e-06
0.000142716
-3.04677e-06
0.000143123
-3.14137e-06
0.000143518
-3.19077e-06
0.000143895
-3.20391e-06
0.000144251
-3.1887e-06
0.000144586
-3.15193e-06
0.000144897
-3.0993e-06
0.000145185
-3.03555e-06
0.000145451
-2.96455e-06
0.000145694
-2.88938e-06
0.000145916
-2.8125e-06
0.000146117
-2.7358e-06
0.0001463
-2.66073e-06
0.000146465
-2.58834e-06
0.000146613
-2.51939e-06
0.000146746
-2.45439e-06
0.000146865
-2.39362e-06
0.000146971
-2.33723e-06
0.000147064
-2.28523e-06
0.000147146
-2.23752e-06
0.000147218
-2.19394e-06
0.000147281
-2.15424e-06
0.000147335
-2.11816e-06
0.000147381
-2.08536e-06
0.00014742
-2.05552e-06
-2.02817e-06
0.000147452
0.000144391
-4.05711e-07
0.000144584
-1.17566e-06
0.000144878
-1.83897e-06
0.000145247
-2.38178e-06
0.000145667
-2.81016e-06
0.000146119
-3.13325e-06
0.000146585
-3.36285e-06
0.000147051
-3.51311e-06
0.000147508
-3.59799e-06
0.000147947
-3.63022e-06
0.000148364
-3.62111e-06
0.000148756
-3.58047e-06
0.000149121
-3.51653e-06
0.000149457
-3.43611e-06
0.000149767
-3.34474e-06
0.000150049
-3.24686e-06
0.000150305
-3.14594e-06
0.000150538
-3.04468e-06
0.000150747
-2.94509e-06
0.000150935
-2.84867e-06
0.000151103
-2.75649e-06
0.000151253
-2.66925e-06
0.000151386
-2.5874e-06
0.000151503
-2.51117e-06
0.000151607
-2.44061e-06
0.000151697
-2.37566e-06
0.000151776
-2.31615e-06
0.000151844
-2.26184e-06
0.000151902
-2.21246e-06
0.000151951
-2.16766e-06
0.000151993
-2.1271e-06
0.000152028
-2.09045e-06
-2.05714e-06
0.000152057
0.000148542
-4.9932e-07
0.000148796
-1.43059e-06
0.00014917
-2.21272e-06
0.000149622
-2.83392e-06
0.000150123
-3.31032e-06
0.000150647
-3.65765e-06
0.000151177
-3.89333e-06
0.000151701
-4.03644e-06
0.000152207
-4.1046e-06
0.00015269
-4.11334e-06
0.000153146
-4.07625e-06
0.00015357
-4.00494e-06
0.000153963
-3.90903e-06
0.000154323
-3.79638e-06
0.000154651
-3.6733e-06
0.000154949
-3.54479e-06
0.000155218
-3.41469e-06
0.000155459
-3.28592e-06
0.000155675
-3.16065e-06
0.000155867
-3.0404e-06
0.000156036
-2.92623e-06
0.000156186
-2.8188e-06
0.000156317
-2.71846e-06
0.000156431
-2.62535e-06
0.00015653
-2.53942e-06
0.000156615
-2.4605e-06
0.000156687
-2.38835e-06
0.000156748
-2.32262e-06
0.000156798
-2.26297e-06
0.00015684
-2.20898e-06
0.000156873
-2.16022e-06
0.000156899
-2.11626e-06
-2.07642e-06
0.000156918
0.000152785
-5.95393e-07
0.000153076
-1.72177e-06
0.000153512
-2.64805e-06
0.000154047
-3.36935e-06
0.000154645
-3.90844e-06
0.000155273
-4.28507e-06
0.000155904
-4.52421e-06
0.00015652
-4.65276e-06
0.000157109
-4.69408e-06
0.000157664
-4.66806e-06
0.000158179
-4.59165e-06
0.000158653
-4.47892e-06
0.000159086
-4.34121e-06
0.000159477
-4.18761e-06
0.000159829
-4.02523e-06
0.000160144
-3.85956e-06
0.000160424
-3.69475e-06
0.000160672
-3.53385e-06
0.00016089
-3.37902e-06
0.000161081
-3.23175e-06
0.000161248
-3.09296e-06
0.000161392
-2.96317e-06
0.000161516
-2.84259e-06
0.000161622
-2.73118e-06
0.000161712
-2.62875e-06
0.000161786
-2.53498e-06
0.000161847
-2.4495e-06
0.000161897
-2.37188e-06
0.000161935
-2.30168e-06
0.000161965
-2.23845e-06
0.000161986
-2.18171e-06
0.000162001
-2.13106e-06
-2.08567e-06
0.00016201
0.000157247
-7.90671e-07
0.000157699
-2.17397e-06
0.000158293
-3.24244e-06
0.000158963
-4.03878e-06
0.000159671
-4.61688e-06
0.00016039
-5.00389e-06
0.000161098
-5.2322e-06
0.00016178
-5.33491e-06
0.000162426
-5.33957e-06
0.000163027
-5.26979e-06
0.000163581
-5.1457e-06
0.000164086
-4.98382e-06
0.000164542
-4.79732e-06
0.000164951
-4.59659e-06
0.000165316
-4.38961e-06
0.000165639
-4.18237e-06
0.000165923
-3.97928e-06
0.000166173
-3.78343e-06
0.000166391
-3.59693e-06
0.00016658
-3.42109e-06
0.000166744
-3.25665e-06
0.000166884
-3.10387e-06
0.000167004
-2.96273e-06
0.000167106
-2.83293e-06
0.000167192
-2.71408e-06
0.000167262
-2.60566e-06
0.00016732
-2.50712e-06
0.000167366
-2.41789e-06
0.000167402
-2.33745e-06
0.000167428
-2.26527e-06
0.000167448
-2.20089e-06
0.00016746
-2.14384e-06
-2.09326e-06
0.000167468
0.000161693
-9.45238e-07
0.000162218
-2.69877e-06
0.000162961
-3.98527e-06
0.000163828
-4.90605e-06
0.000164743
-5.53181e-06
0.000165649
-5.90993e-06
0.000166517
-6.10018e-06
0.000167334
-6.15179e-06
0.000168094
-6.10013e-06
0.000168798
-5.97351e-06
0.000169447
-5.79458e-06
0.000170044
-5.58081e-06
0.000170592
-5.34571e-06
0.000171095
-5.09962e-06
0.000171556
-4.85037e-06
0.000171977
-4.60376e-06
0.000172362
-4.36402e-06
0.000172713
-4.13412e-06
0.000173032
-3.91604e-06
0.000173322
-3.711e-06
0.000173585
-3.51959e-06
0.000173823
-3.34198e-06
0.000174038
-3.178e-06
0.000174233
-3.02725e-06
0.000174408
-2.88917e-06
0.000174565
-2.76312e-06
0.000174706
-2.64846e-06
0.000174833
-2.54455e-06
0.000174947
-2.45086e-06
0.000175048
-2.36692e-06
0.00017514
-2.29258e-06
0.000175223
-2.22745e-06
-2.17172e-06
0.000175302
0.000166691
-1.48221e-06
0.000167551
-3.55912e-06
0.000168498
-4.93188e-06
0.000169522
-5.93023e-06
0.000170625
-6.63467e-06
0.000171786
-7.07121e-06
0.000172986
-7.30059e-06
0.000174203
-7.3687e-06
0.000175412
-7.30931e-06
0.000176592
-7.15329e-06
0.000177725
-6.92728e-06
0.000178797
-6.65316e-06
0.0001798
-6.34872e-06
0.000180729
-6.02807e-06
0.00018158
-5.70215e-06
0.000182356
-5.37929e-06
0.000183058
-5.06558e-06