/*--------------------------------*- C++ -*----------------------------------*\
  =========                 |
  \\      /  F ield         | OpenFOAM: The Open Source CFD Toolbox
   \\    /   O peration     | Website:  https://openfoam.org
    \\  /    A nd           | Version:  10
     \\/     M anipulation  |
\*---------------------------------------------------------------------------*/
FoamFile
{
    format      ascii;
    class       volVectorField;
    location    "0.095";
    object      U;
}
// * * * * * * * * * * * * * * * * * * * * * * * * * * * * * * * * * * * * * //

dimensions      [0 1 -1 0 0 0 0];

internalField   nonuniform List<vector> 
6820
(
(5.57352 0.459166 0)
(3.88284 0.245946 0)
(2.58886 0.00883477 0)
(1.95677 -0.0641434 0)
(1.73131 -0.0594449 0)
(1.62009 -0.0339796 0)
(1.55509 -0.0153218 0)
(1.50915 -0.00525234 0)
(1.4706 -0.000657633 0)
(1.43728 0.000850099 0)
(1.40865 0.000909905 0)
(1.38423 0.000406498 0)
(1.36351 -0.000251193 0)
(1.346 -0.000882037 0)
(1.33119 -0.00141558 0)
(1.31868 -0.00183489 0)
(1.30811 -0.00214636 0)
(1.29921 -0.00236389 0)
(1.29172 -0.00250104 0)
(1.28545 -0.00256856 0)
(1.28019 -0.0025718 0)
(1.27577 -0.00251174 0)
(1.27198 -0.00239057 0)
(1.2686 -0.00220373 0)
(1.26534 -0.00193018 0)
(1.26185 -0.00152931 0)
(1.25762 -0.000965757 0)
(1.25217 -0.000130641 0)
(1.24415 0.000966646 0)
(1.2336 0.00307538 0)
(1.21366 0.00499743 0)
(1.19524 0.0167098 0)
(1.11627 -0.00282096 0)
(7.66979 0.863955 0)
(7.71711 0.890901 0)
(6.99972 0.598529 0)
(6.19705 0.347586 0)
(5.58372 0.179626 0)
(5.13923 0.0930952 0)
(4.82256 0.0527066 0)
(4.59426 0.0342032 0)
(4.42331 0.0257181 0)
(4.29041 0.0213929 0)
(4.18383 0.0187566 0)
(4.09622 0.0168689 0)
(4.0229 0.0153557 0)
(3.96069 0.0140529 0)
(3.90741 0.0128772 0)
(3.86145 0.0117853 0)
(3.82162 0.0107565 0)
(3.78699 0.00978205 0)
(3.75685 0.00886155 0)
(3.7306 0.00800159 0)
(3.70774 0.00721345 0)
(3.68786 0.00651546 0)
(3.67053 0.00594528 0)
(3.65537 0.00556328 0)
(3.64196 0.00544101 0)
(3.62984 0.00567504 0)
(3.61846 0.00638806 0)
(3.60714 0.00787432 0)
(3.59488 0.0103747 0)
(3.58041 0.0151581 0)
(3.56165 0.0217277 0)
(3.53651 0.0380689 0)
(3.50294 0.0560428 0)
(7.56352 0.520387 0)
(8.22509 0.663729 0)
(8.46458 0.576357 0)
(8.36359 0.458757 0)
(8.12787 0.3446 0)
(7.85134 0.259638 0)
(7.58181 0.199906 0)
(7.33909 0.15702 0)
(7.12644 0.125818 0)
(6.94187 0.102608 0)
(6.78209 0.0848959 0)
(6.64365 0.0710948 0)
(6.52345 0.0601563 0)
(6.41877 0.0513629 0)
(6.32736 0.0441952 0)
(6.24732 0.0382658 0)
(6.17705 0.0332873 0)
(6.11524 0.0290492 0)
(6.06076 0.0254 0)
(6.01268 0.0222343 0)
(5.97021 0.0194838 0)
(5.93264 0.0171157 0)
(5.89936 0.0151309 0)
(5.86979 0.0135663 0)
(5.8434 0.0125008 0)
(5.81962 0.0120727 0)
(5.79785 0.0124987 0)
(5.7774 0.0141539 0)
(5.75739 0.0175529 0)
(5.73693 0.0238095 0)
(5.71472 0.0338617 0)
(5.68985 0.0522318 0)
(5.66296 0.0784122 0)
(7.43336 0.341176 0)
(7.88457 0.514696 0)
(8.24311 0.489866 0)
(8.44146 0.430057 0)
(8.54092 0.358787 0)
(8.57082 0.298133 0)
(8.5558 0.251956 0)
(8.51548 0.216396 0)
(8.46093 0.188454 0)
(8.39857 0.165871 0)
(8.33259 0.14706 0)
(8.26567 0.131058 0)
(8.19959 0.117235 0)
(8.13561 0.105147 0)
(8.07453 0.0944966 0)
(8.01678 0.0850585 0)
(7.96259 0.0766513 0)
(7.91203 0.0691264 0)
(7.86507 0.0623659 0)
(7.82163 0.0562808 0)
(7.78155 0.0508104 0)
(7.74466 0.0459253 0)
(7.71075 0.0416326 0)
(7.67959 0.0379831 0)
(7.65092 0.035076 0)
(7.62445 0.0330784 0)
(7.59984 0.0322499 0)
(7.57671 0.0330233 0)
(7.55465 0.0360005 0)
(7.53333 0.0422721 0)
(7.51249 0.0529823 0)
(7.49257 0.0711785 0)
(7.47626 0.0979216 0)
(7.39681 0.251142 0)
(7.67986 0.421324 0)
(7.92308 0.404363 0)
(8.07678 0.354439 0)
(8.18692 0.299726 0)
(8.2688 0.254031 0)
(8.32922 0.220046 0)
(8.37554 0.194113 0)
(8.41178 0.173496 0)
(8.44003 0.156553 0)
(8.46188 0.142191 0)
(8.47857 0.129746 0)
(8.4911 0.118803 0)
(8.50005 0.109067 0)
(8.50604 0.100314 0)
(8.50963 0.0923717 0)
(8.51131 0.0851112 0)
(8.51151 0.0784338 0)
(8.51056 0.0722684 0)
(8.50874 0.0665686 0)
(8.50628 0.0613131 0)
(8.50336 0.0565084 0)
(8.50012 0.0521942 0)
(8.49667 0.0484492 0)
(8.49308 0.0454023 0)
(8.48944 0.0432515 0)
(8.48579 0.0422883 0)
(8.48222 0.0429464 0)
(8.47888 0.045815 0)
(8.47619 0.0517756 0)
(8.47477 0.0618133 0)
(8.47647 0.0776674 0)
(8.4839 0.0995276 0)
(7.37401 0.180821 0)
(7.574 0.336461 0)
(7.76053 0.3428 0)
(7.87475 0.313701 0)
(7.95067 0.274562 0)
(8.00571 0.236402 0)
(8.04678 0.205033 0)
(8.08056 0.179927 0)
(8.11049 0.159619 0)
(8.13775 0.142971 0)
(8.16291 0.129031 0)
(8.18629 0.117095 0)
(8.20809 0.106708 0)
(8.22856 0.0975584 0)
(8.24782 0.0893955 0)
(8.26594 0.0820296 0)
(8.283 0.0753229 0)
(8.29905 0.0691745 0)
(8.31415 0.0635131 0)
(8.32835 0.0582937 0)
(8.34169 0.0534964 0)
(8.35423 0.0491287 0)
(8.36601 0.0452296 0)
(8.3771 0.0418754 0)
(8.38755 0.0391869 0)
(8.3975 0.0373435 0)
(8.40708 0.0365963 0)
(8.41658 0.037299 0)
(8.42641 0.0398984 0)
(8.43735 0.0449929 0)
(8.45043 0.0531313 0)
(8.46799 0.0650526 0)
(8.49188 0.0800553 0)
(7.35904 0.132923 0)
(7.50318 0.27357 0)
(7.65536 0.295597 0)
(7.75509 0.27897 0)
(7.82087 0.249479 0)
(7.86747 0.217612 0)
(7.9005 0.189935 0)
(7.92572 0.167203 0)
(7.94684 0.148443 0)
(7.9655 0.132789 0)
(7.98254 0.11951 0)
(7.99853 0.108044 0)
(8.01373 0.0979946 0)
(8.02831 0.0890765 0)
(8.04237 0.0810835 0)
(8.05598 0.0738612 0)
(8.06918 0.067291 0)
(8.08198 0.0612818 0)
(8.0944 0.0557669 0)
(8.10644 0.0507026 0)
(8.1181 0.0460683 0)
(8.1294 0.0418681 0)
(8.14034 0.0381331 0)
(8.15096 0.0349254 0)
(8.16133 0.0323421 0)
(8.17154 0.0305229 0)
(8.18178 0.0296535 0)
(8.19232 0.0299757 0)
(8.20361 0.0317555 0)
(8.21638 0.0352957 0)
(8.23159 0.0407208 0)
(8.25108 0.0480984 0)
(8.27617 0.0561838 0)
(7.34963 0.0992468 0)
(7.4533 0.221028 0)
(7.57613 0.251082 0)
(7.66455 0.244525 0)
(7.72601 0.22496 0)
(7.77134 0.200858 0)
(7.80437 0.17802 0)
(7.82941 0.158096 0)
(7.84985 0.140888 0)
(7.86739 0.12604 0)
(7.88299 0.113168 0)
(7.89729 0.101898 0)
(7.91066 0.0919319 0)
(7.92335 0.0830451 0)
(7.93549 0.0750602 0)
(7.94721 0.0678333 0)
(7.95856 0.0612503 0)
(7.9696 0.0552234 0)
(7.98036 0.0496883 0)
(7.99086 0.0446022 0)
(8.00113 0.0399434 0)
(8.01119 0.0357114 0)
(8.02108 0.0319282 0)
(8.03086 0.0286397 0)
(8.0406 0.0259171 0)
(8.05044 0.0238581 0)
(8.06056 0.0225825 0)
(8.07125 0.0222281 0)
(8.08295 0.0229121 0)
(8.0963 0.0247105 0)
(8.11208 0.027479 0)
(8.13163 0.0308822 0)
(8.15577 0.0336397 0)
(7.3438 0.0753114 0)
(7.41907 0.179132 0)
(7.51766 0.213734 0)
(7.59474 0.214799 0)
(7.65089 0.202354 0)
(7.69395 0.18376 0)
(7.72665 0.164423 0)
(7.75207 0.146696 0)
(7.77305 0.13095 0)
(7.79112 0.117101 0)
(7.80716 0.104935 0)
(7.82178 0.0941812 0)
(7.83537 0.0846006 0)
(7.84818 0.076001 0)
(7.86037 0.0682272 0)
(7.87208 0.061154 0)
(7.88339 0.0546826 0)
(7.89435 0.0487367 0)
(7.90501 0.0432593 0)
(7.91541 0.0382108 0)
(7.9256 0.033569 0)
(7.93561 0.0293284 0)
(7.94549 0.0255006 0)
(7.95532 0.022114 0)
(7.96519 0.0192117 0)
(7.97525 0.0168494 0)
(7.9857 0.0150847 0)
(7.99682 0.0139641 0)
(8.00899 0.0134825 0)
(8.02277 0.0135533 0)
(8.03873 0.013873 0)
(8.0578 0.0139092 0)
(8.08037 0.0124954 0)
(7.34016 0.0580881 0)
(7.3954 0.145512 0)
(7.47432 0.181226 0)
(7.54094 0.18728 0)
(7.59185 0.180187 0)
(7.63232 0.166448 0)
(7.66417 0.150737 0)
(7.68953 0.135526 0)
(7.71066 0.121498 0)
(7.72895 0.108788 0)
(7.7452 0.0973628 0)
(7.76001 0.0870917 0)
(7.77376 0.0778243 0)
(7.78671 0.0694262 0)
(7.79902 0.0617809 0)
(7.81083 0.0547885 0)
(7.82222 0.0483653 0)
(7.83326 0.0424435 0)
(7.844 0.0369699 0)
(7.85448 0.0319054 0)
(7.86475 0.0272247 0)
(7.87487 0.0229149 0)
(7.88488 0.0189754 0)
(7.89488 0.0154153 0)
(7.90496 0.0122497 0)
(7.91527 0.00949365 0)
(7.92601 0.00714921 0)
(7.93742 0.00519004 0)
(7.94984 0.00352498 0)
(7.96367 0.00196481 0)
(7.97934 0.000127795 0)
(7.99742 -0.00257526 0)
(8.01804 -0.00712419 0)
(7.33787 0.045456 0)
(7.37892 0.11848 0)
(7.44214 0.153276 0)
(7.49944 0.162705 0)
(7.54538 0.159726 0)
(7.58309 0.149902 0)
(7.61376 0.13718 0)
(7.63876 0.124028 0)
(7.65987 0.111402 0)
(7.67826 0.0996472 0)
(7.69469 0.0888804 0)
(7.70968 0.0790754 0)
(7.72359 0.0701468 0)
(7.73668 0.0619993 0)
(7.74912 0.0545411 0)
(7.76103 0.047688 0)
(7.77251 0.0413666 0)
(7.78363 0.0355156 0)
(7.79444 0.0300851 0)
(7.805 0.0250363 0)
(7.81535 0.0203404 0)
(7.82555 0.0159773 0)
(7.83568 0.0119342 0)
(7.8458 0.00820167 0)
(7.85603 0.00476917 0)
(7.8665 0.0016172 0)
(7.87739 -0.00129517 0)
(7.8889 -0.00404715 0)
(7.9013 -0.0067861 0)
(7.91487 -0.00975368 0)
(7.92989 -0.0133443 0)
(7.94666 -0.0181167 0)
(7.96514 -0.0248516 0)
(7.33642 0.03601 0)
(7.36735 0.0966862 0)
(7.4181 0.129232 0)
(7.46718 0.140543 0)
(7.50841 0.140424 0)
(7.54337 0.133614 0)
(7.5727 0.123449 0)
(7.59722 0.112238 0)
(7.61823 0.101056 0)
(7.63671 0.0903607 0)
(7.65329 0.0803583 0)
(7.66845 0.0711026 0)
(7.68254 0.0625681 0)
(7.69578 0.0547017 0)
(7.70835 0.0474419 0)
(7.72038 0.0407264 0)
(7.73196 0.0344966 0)
(7.74317 0.0287004 0)
(7.75406 0.0232928 0)
(7.76469 0.0182356 0)
(7.77512 0.0134967 0)
(7.7854 0.00904916 0)
(7.7956 0.00486841 0)
(7.8058 0.000928529 0)
(7.81611 -0.00280267 0)
(7.82663 -0.00637156 0)
(7.83753 -0.00985044 0)
(7.84895 -0.0133524 0)
(7.8611 -0.0170531 0)
(7.87415 -0.0212097 0)
(7.88826 -0.0261931 0)
(7.90355 -0.0324929 0)
(7.91987 -0.0407075 0)
(7.33547 0.0287964 0)
(7.35914 0.0790037 0)
(7.40006 0.108544 0)
(7.44201 0.120643 0)
(7.47888 0.122484 0)
(7.51114 0.118003 0)
(7.53901 0.109963 0)
(7.56288 0.100427 0)
(7.58365 0.0905027 0)
(7.60211 0.0807312 0)
(7.61879 0.0713968 0)
(7.6341 0.0626241 0)
(7.64835 0.0544423 0)
(7.66175 0.0468358 0)
(7.67448 0.0397683 0)
(7.68665 0.0331945 0)
(7.69835 0.0270666 0)
(7.70966 0.0213388 0)
(7.72064 0.0159682 0)
(7.73135 0.0109161 0)
(7.74185 0.00614687 0)
(7.75219 0.00162627 0)
(7.76244 -0.00268042 0)
(7.77268 -0.00681223 0)
(7.78299 -0.0108179 0)
(7.79347 -0.0147631 0)
(7.80425 -0.0187403 0)
(7.81544 -0.02288 0)
(7.82717 -0.027365 0)
(7.83954 -0.032442 0)
(7.85261 -0.0384359 0)
(7.86638 -0.0457491 0)
(7.88066 -0.0548224 0)
(7.33485 0.0231693 0)
(7.35324 0.0645477 0)
(7.38644 0.0907224 0)
(7.42228 0.102772 0)
(7.45519 0.105793 0)
(7.48486 0.102978 0)
(7.51119 0.0966069 0)
(7.53429 0.0884819 0)
(7.55473 0.0796848 0)
(7.57311 0.0707948 0)
(7.58984 0.0621391 0)
(7.60527 0.0538856 0)
(7.61967 0.046101 0)
(7.63323 0.0387979 0)
(7.6461 0.0319612 0)
(7.6584 0.0255608 0)
(7.67022 0.0195596 0)
(7.68162 0.0139186 0)
(7.69268 0.0085986 0)
(7.70346 0.00356105 0)
(7.714 -0.00123232 0)
(7.72437 -0.00582089 0)
(7.73462 -0.0102469 0)
(7.74483 -0.0145591 0)
(7.75508 -0.018818 0)
(7.76543 -0.0231008 0)
(7.77598 -0.0275096 0)
(7.78682 -0.0321784 0)
(7.79801 -0.0372824 0)
(7.80959 -0.0430424 0)
(7.82157 -0.049729 0)
(7.83386 -0.0576574 0)
(7.84626 -0.0671391 0)
(7.33443 0.0186867 0)
(7.34895 0.0526152 0)
(7.3761 0.0753178 0)
(7.40679 0.0867081 0)
(7.43613 0.0902972 0)
(7.46337 0.0886178 0)
(7.48817 0.0835318 0)
(7.51042 0.0765741 0)
(7.53045 0.06875 0)
(7.54866 0.0606414 0)
(7.56538 0.0525968 0)
(7.58089 0.044815 0)
(7.5954 0.0373932 0)
(7.60908 0.0303693 0)
(7.62208 0.023747 0)
(7.6345 0.0175101 0)
(7.64642 0.0116311 0)
(7.65791 0.00607651 0)
(7.66904 0.000809582 0)
(7.67986 -0.0042082 0)
(7.69043 -0.00901723 0)
(7.7008 -0.0136606 0)
(7.71102 -0.0181864 0)
(7.72116 -0.0226505 0)
(7.73127 -0.0271197 0)
(7.74142 -0.0316767 0)
(7.75167 -0.0364249 0)
(7.76207 -0.0414926 0)
(7.77265 -0.0470378 0)
(7.78341 -0.0532483 0)
(7.7943 -0.0603388 0)
(7.80521 -0.0685447 0)
(7.81594 -0.0780758 0)
(7.33413 0.0150424 0)
(7.34579 0.0426552 0)
(7.36822 0.0619367 0)
(7.3946 0.0722367 0)
(7.42077 0.0759042 0)
(7.44577 0.0749011 0)
(7.46909 0.070733 0)
(7.49046 0.0646866 0)
(7.51001 0.0576685 0)
(7.528 0.0502413 0)
(7.54467 0.0427575 0)
(7.56021 0.0354312 0)
(7.57481 0.0283782 0)
(7.5886 0.0216527 0)
(7.60172 0.0152717 0)
(7.61424 0.00922874 0)
(7.62625 0.00350324 0)
(7.63781 -0.00193401 0)
(7.64899 -0.00711753 0)
(7.65984 -0.0120854 0)
(7.6704 -0.0168794 0)
(7.68073 -0.0215451 0)
(7.69087 -0.0261341 0)
(7.70089 -0.0307052 0)
(7.71081 -0.0353278 0)
(7.7207 -0.0400843 0)
(7.73059 -0.045073 0)
(7.7405 -0.0504105 0)
(7.75043 -0.0562324 0)
(7.76036 -0.062691 0)
(7.77021 -0.0699499 0)
(7.77987 -0.0781766 0)
(7.78915 -0.0875035 0)
(7.33392 0.0120209 0)
(7.34345 0.0342357 0)
(7.36218 0.0502327 0)
(7.38499 0.059149 0)
(7.40841 0.0625108 0)
(7.43138 0.061806 0)
(7.4533 0.05824 0)
(7.47379 0.0528757 0)
(7.49283 0.0465082 0)
(7.51056 0.0396601 0)
(7.52713 0.0326722 0)
(7.54267 0.0257606 0)
(7.55733 0.0190509 0)
(7.57121 0.0126082 0)
(7.58441 0.00645913 0)
(7.59702 0.000605137 0)
(7.60911 -0.00496851 0)
(7.62073 -0.010287 0)
(7.63193 -0.0153826 0)
(7.64278 -0.0202925 0)
(7.65331 -0.0250591 0)
(7.66357 -0.0297291 0)
(7.67361 -0.0343551 0)
(7.68346 -0.0389967 0)
(7.69316 -0.043722 0)
(7.70275 -0.0486093 0)
(7.71223 -0.0537481 0)
(7.72162 -0.0592399 0)
(7.73091 -0.0651961 0)
(7.74004 -0.0717354 0)
(7.74894 -0.0789765 0)
(7.75749 -0.0870319 0)
(7.76553 -0.0959772 0)
(7.33376 0.00946703 0)
(7.34169 0.0270181 0)
(7.35754 0.0399053 0)
(7.37742 0.047247 0)
(7.39848 0.0500047 0)
(7.41964 0.0492851 0)
(7.44027 0.046042 0)
(7.45991 0.0411425 0)
(7.47844 0.0352686 0)
(7.4959 0.0288924 0)
(7.51234 0.0223328 0)
(7.52786 0.0157992 0)
(7.54256 0.00941894 0)
(7.5565 0.00326215 0)
(7.56978 -0.00263954 0)
(7.58246 -0.0082802 0)
(7.5946 -0.0136711 0)
(7.60626 -0.0188352 0)
(7.61747 -0.0238034 0)
(7.6283 -0.0286128 0)
(7.63877 -0.0333056 0)
(7.64894 -0.0379287 0)
(7.65883 -0.0425344 0)
(7.66849 -0.0471806 0)
(7.67793 -0.0519319 0)
(7.68717 -0.0568599 0)
(7.69623 -0.0620432 0)
(7.7051 -0.0675664 0)
(7.71376 -0.0735181 0)
(7.72214 -0.0799868 0)
(7.73018 -0.0870542 0)
(7.73777 -0.0947902 0)
(7.74477 -0.10323 0)
(7.33364 0.00726697 0)
(7.34035 0.020735 0)
(7.35396 0.0306944 0)
(7.37148 0.0363426 0)
(7.39054 0.0382663 0)
(7.41013 0.0372749 0)
(7.4296 0.0341149 0)
(7.44846 0.0294853 0)
(7.4665 0.0239593 0)
(7.48368 0.0179515 0)
(7.49999 0.0117502 0)
(7.51548 0.0055496 0)
(7.53019 -0.000528506 0)
(7.54419 -0.00641488 0)
(7.55753 -0.0120766 0)
(7.57027 -0.0175059 0)
(7.58245 -0.0227122 0)
(7.59413 -0.0277169 0)
(7.60534 -0.0325499 0)
(7.61612 -0.0372475 0)
(7.62652 -0.041851 0)
(7.63657 -0.0464063 0)
(7.6463 -0.0509637 0)
(7.65573 -0.0555778 0)
(7.66489 -0.060308 0)
(7.67379 -0.0652176 0)
(7.68242 -0.0703732 0)
(7.69078 -0.0758432 0)
(7.69884 -0.0816954 0)
(7.70654 -0.0879924 0)
(7.71381 -0.0947868 0)
(7.72058 -0.102117 0)
(7.72672 -0.10999 0)
(7.33356 0.00533471 0)
(7.33935 0.0151732 0)
(7.35123 0.0223749 0)
(7.36684 0.0262589 0)
(7.38424 0.0271724 0)
(7.40249 0.0256996 0)
(7.42095 0.0224187 0)
(7.43911 0.0178866 0)
(7.45671 0.0125762 0)
(7.47363 0.00684224 0)
(7.48982 0.000937375 0)
(7.50527 -0.00496467 0)
(7.51999 -0.010753 0)
(7.53404 -0.0163636 0)
(7.54743 -0.0217661 0)
(7.56021 -0.0269538 0)
(7.57242 -0.0319367 0)
(7.5841 -0.0367363 0)
(7.59528 -0.0413826 0)
(7.60601 -0.0459117 0)
(7.61631 -0.0503641 0)
(7.62622 -0.0547845 0)
(7.63576 -0.0592208 0)
(7.64495 -0.0637237 0)
(7.65382 -0.0683465 0)
(7.66235 -0.0731439 0)
(7.67057 -0.0781711 0)
(7.67844 -0.0834818 0)
(7.68593 -0.0891258 0)
(7.69302 -0.0951453 0)
(7.69963 -0.101571 0)
(7.70569 -0.108417 0)
(7.71113 -0.115675 0)
(7.33349 0.00360347 0)
(7.33859 0.0101601 0)
(7.34914 0.0147505 0)
(7.36325 0.0168282 0)
(7.37931 0.0165942 0)
(7.39647 0.0144668 0)
(7.41408 0.010889 0)
(7.43166 0.00629856 0)
(7.44888 0.00107679 0)
(7.46558 -0.00448134 0)
(7.48166 -0.0101621 0)
(7.49709 -0.015817 0)
(7.51185 -0.0213509 0)
(7.52594 -0.0267093 0)
(7.53938 -0.0318675 0)
(7.55221 -0.0368224 0)
(7.56444 -0.0415858 0)
(7.57612 -0.0461805 0)
(7.58727 -0.0506367 0)
(7.59793 -0.0549902 0)
(7.60812 -0.0592806 0)
(7.61788 -0.0635505 0)
(7.62722 -0.0678447 0)
(7.63617 -0.0722094 0)
(7.64473 -0.0766913 0)
(7.65292 -0.0813368 0)
(7.66073 -0.0861905 0)
(7.66814 -0.0912933 0)
(7.67512 -0.09668 0)
(7.68166 -0.102377 0)
(7.68769 -0.108398 0)
(7.69317 -0.114744 0)
(7.69803 -0.121394 0)
(7.33344 0.00201972 0)
(7.33803 0.00555286 0)
(7.34759 0.00764822 0)
(7.36055 0.00789227 0)
(7.37556 0.00640347 0)
(7.39184 0.00348212 0)
(7.40879 -0.000535288 0)
(7.42589 -0.00530931 0)
(7.44281 -0.010539 0)
(7.45935 -0.0159874 0)
(7.47537 -0.0214808 0)
(7.4908 -0.0268996 0)
(7.50559 -0.0321682 0)
(7.51973 -0.0372457 0)
(7.53322 -0.0421168 0)
(7.54608 -0.0467846 0)
(7.55833 -0.0512657 0)
(7.56999 -0.0555858 0)
(7.5811 -0.059777 0)
(7.59167 -0.0638756 0)
(7.60174 -0.0679211 0)
(7.61134 -0.0719544 0)
(7.62047 -0.0760175 0)
(7.62916 -0.0801522 0)
(7.63743 -0.0843996 0)
(7.64527 -0.0887985 0)
(7.65269 -0.0933843 0)
(7.65967 -0.0981875 0)
(7.66619 -0.103231 0)
(7.67224 -0.108531 0)
(7.67777 -0.114089 0)
(7.68275 -0.119896 0)
(7.68715 -0.125926 0)
(7.33341 0.000538396 0)
(7.33763 0.0012289 0)
(7.34646 0.000910473 0)
(7.35859 -0.000705792 0)
(7.37282 -0.00354258 0)
(7.38847 -0.00738275 0)
(7.40493 -0.0119739 0)
(7.42171 -0.0170597 0)
(7.43845 -0.0224107 0)
(7.45491 -0.0278455 0)
(7.47093 -0.033232 0)
(7.48641 -0.0384807 0)
(7.50127 -0.0435379 0)
(7.51549 -0.0483784 0)
(7.52906 -0.0529979 0)
(7.54198 -0.0574076 0)
(7.55425 -0.0616295 0)
(7.56591 -0.065693 0)
(7.57697 -0.0696323 0)
(7.58747 -0.0734847 0)
(7.59741 -0.0772893 0)
(7.60684 -0.0810857 0)
(7.61577 -0.0849129 0)
(7.62421 -0.088809 0)
(7.63218 -0.0928095 0)
(7.63969 -0.0969469 0)
(7.64674 -0.101249 0)
(7.65333 -0.105738 0)
(7.65943 -0.110429 0)
(7.66505 -0.115328 0)
(7.67015 -0.120431 0)
(7.67471 -0.125722 0)
(7.67872 -0.131175 0)
(7.33338 -0.000878703 0)
(7.33736 -0.00291915 0)
(7.34571 -0.00560641 0)
(7.35727 -0.00911225 0)
(7.37099 -0.0133715 0)
(7.38622 -0.0182213 0)
(7.40238 -0.0234728 0)
(7.41898 -0.0289373 0)
(7.43564 -0.0344492 0)
(7.45211 -0.03988 0)
(7.46819 -0.04514 0)
(7.48376 -0.0501737 0)
(7.49872 -0.0549536 0)
(7.51304 -0.0594747 0)
(7.52669 -0.0637483 0)
(7.53966 -0.0677969 0)
(7.55196 -0.071651 0)
(7.56361 -0.075346 0)
(7.57463 -0.0789202 0)
(7.58503 -0.0824129 0)
(7.59485 -0.0858639 0)
(7.6041 -0.0893117 0)
(7.61282 -0.0927935 0)
(7.62101 -0.0963439 0)
(7.6287 -0.0999941 0)
(7.63589 -0.103771 0)
(7.6426 -0.107697 0)
(7.64881 -0.111788 0)
(7.65454 -0.116052 0)
(7.65977 -0.120491 0)
(7.66449 -0.125095 0)
(7.6687 -0.129849 0)
(7.67239 -0.134725 0)
(7.33337 -0.00226761 0)
(7.33721 -0.00699359 0)
(7.34529 -0.012049 0)
(7.35655 -0.0174978 0)
(7.37001 -0.0232723 0)
(7.38507 -0.0292482 0)
(7.40116 -0.0352892 0)
(7.41778 -0.0412658 0)
(7.43453 -0.0470696 0)
(7.45114 -0.0526212 0)
(7.46739 -0.0578714 0)
(7.48314 -0.062797 0)
(7.49829 -0.0673964 0)
(7.51277 -0.0716845 0)
(7.52655 -0.0756881 0)
(7.53961 -0.0794417 0)
(7.55197 -0.0829848 0)
(7.56362 -0.0863595 0)
(7.5746 -0.0896086 0)
(7.58492 -0.0927744 0)
(7.59462 -0.095898 0)
(7.60371 -0.0990181 0)
(7.61222 -0.102171 0)
(7.62017 -0.105388 0)
(7.62758 -0.108698 0)
(7.63447 -0.112124 0)
(7.64085 -0.115683 0)
(7.64672 -0.119388 0)
(7.6521 -0.123243 0)
(7.65698 -0.127245 0)
(7.66136 -0.131385 0)
(7.66525 -0.135644 0)
(7.66865 -0.139996 0)
(7.33337 -0.00366361 0)
(7.33716 -0.0110912 0)
(7.34517 -0.0185487 0)
(7.35637 -0.0259915 0)
(7.36981 -0.0333329 0)
(7.38492 -0.0404688 0)
(7.40113 -0.0473025 0)
(7.41792 -0.0537569 0)
(7.43489 -0.0597795 0)
(7.45174 -0.0653441 0)
(7.46824 -0.0704481 0)
(7.48423 -0.0751084 0)
(7.4996 -0.0793561 0)
(7.51427 -0.0832323 0)
(7.52821 -0.0867846 0)
(7.54138 -0.0900631 0)
(7.55381 -0.0931193 0)
(7.56548 -0.0960035 0)
(7.57643 -0.0987643 0)
(7.58668 -0.101448 0)
(7.59625 -0.104096 0)
(7.60518 -0.106749 0)
(7.61349 -0.10944 0)
(7.62121 -0.112201 0)
(7.62835 -0.115056 0)
(7.63495 -0.118026 0)
(7.64102 -0.121125 0)
(7.64658 -0.124361 0)
(7.65163 -0.127738 0)
(7.65619 -0.131249 0)
(7.66027 -0.134886 0)
(7.66389 -0.138631 0)
(7.66705 -0.14246 0)
(7.33337 -0.00510336 0)
(7.33723 -0.015324 0)
(7.34538 -0.0252899 0)
(7.35679 -0.0348572 0)
(7.37052 -0.0439237 0)
(7.38599 -0.0524053 0)
(7.40261 -0.0602403 0)
(7.41984 -0.0673963 0)
(7.43727 -0.0738674 0)
(7.45457 -0.079671 0)
(7.4715 -0.0848435 0)
(7.48788 -0.0894359 0)
(7.50358 -0.0935088 0)
(7.51853 -0.0971284 0)
(7.53268 -0.100363 0)
(7.54602 -0.103279 0)
(7.55853 -0.105942 0)
(7.57025 -0.108414 0)
(7.58118 -0.11075 0)
(7.59136 -0.113002 0)
(7.60081 -0.115218 0)
(7.60958 -0.117437 0)
(7.61769 -0.119697 0)
(7.62517 -0.122026 0)
(7.63206 -0.124449 0)
(7.63837 -0.126986 0)
(7.64414 -0.129647 0)
(7.64939 -0.132441 0)
(7.65413 -0.135368 0)
(7.65838 -0.138424 0)
(7.66217 -0.141596 0)
(7.66551 -0.144871 0)
(7.66841 -0.148225 0)
(7.33339 -0.00662527 0)
(7.3374 -0.0197877 0)
(7.34587 -0.0323709 0)
(7.35771 -0.0441095 0)
(7.37196 -0.0548692 0)
(7.38799 -0.0645778 0)
(7.4052 -0.0732137 0)
(7.42304 -0.0808042 0)
(7.44106 -0.0874103 0)
(7.45892 -0.0931127 0)
(7.47638 -0.0980042 0)
(7.49323 -0.102183 0)
(7.50935 -0.10575 0)
(7.52465 -0.1088 0)
(7.53908 -0.111426 0)
(7.55263 -0.113712 0)
(7.56529 -0.115737 0)
(7.57708 -0.11757 0)
(7.58803 -0.119276 0)
(7.59817 -0.12091 0)
(7.60753 -0.122521 0)
(7.61615 -0.124151 0)
(7.62408 -0.125835 0)
(7.63134 -0.127602 0)
(7.63798 -0.129476 0)
(7.64402 -0.131474 0)
(7.64951 -0.133607 0)
(7.65446 -0.13588 0)
(7.6589 -0.138294 0)
(7.66287 -0.140844 0)
(7.66639 -0.14352 0)
(7.66948 -0.146309 0)
(7.67217 -0.14919 0)
(7.33342 -0.00828309 0)
(7.33773 -0.0246724 0)
(7.34683 -0.0401763 0)
(7.35953 -0.0544314 0)
(7.37475 -0.0672906 0)
(7.39182 -0.0786905 0)
(7.41007 -0.0886273 0)
(7.42891 -0.0971585 0)
(7.44787 -0.104384 0)
(7.46658 -0.110427 0)
(7.48477 -0.115424 0)
(7.50225 -0.119516 0)
(7.5189 -0.122843 0)
(7.53462 -0.125536 0)
(7.54938 -0.127718 0)
(7.56316 -0.129499 0)
(7.57597 -0.130978 0)
(7.58784 -0.132241 0)
(7.59879 -0.133366 0)
(7.60887 -0.134415 0)
(7.61812 -0.135446 0)
(7.62658 -0.136503 0)
(7.63431 -0.137625 0)
(7.64134 -0.138842 0)
(7.64771 -0.140178 0)
(7.65348 -0.141649 0)
(7.65866 -0.143266 0)
(7.66331 -0.145034 0)
(7.66744 -0.146953 0)
(7.67111 -0.149017 0)
(7.67433 -0.151218 0)
(7.67713 -0.153544 0)
(7.67954 -0.155972 0)
(7.33345 -0.0101218 0)
(7.33814 -0.0300196 0)
(7.34802 -0.0485319 0)
(7.36173 -0.0651375 0)
(7.37807 -0.0796835 0)
(7.39631 -0.0921667 0)
(7.41577 -0.102676 0)
(7.43579 -0.111374 0)
(7.45587 -0.118458 0)
(7.47562 -0.124133 0)
(7.49476 -0.128599 0)
(7.51308 -0.132046 0)
(7.53044 -0.134653 0)
(7.54676 -0.136578 0)
(7.56199 -0.137966 0)
(7.57614 -0.138942 0)
(7.58921 -0.139617 0)
(7.60124 -0.140087 0)
(7.61227 -0.140433 0)
(7.62235 -0.140724 0)
(7.63153 -0.141018 0)
(7.63987 -0.141364 0)
(7.64742 -0.1418 0)
(7.65424 -0.142356 0)
(7.66037 -0.143056 0)
(7.66586 -0.143916 0)
(7.67076 -0.144947 0)
(7.67512 -0.146153 0)
(7.67896 -0.147535 0)
(7.68233 -0.149088 0)
(7.68528 -0.150804 0)
(7.68783 -0.152673 0)
(7.69003 -0.154673 0)
(7.33353 -0.0122618 0)
(7.33897 -0.0363818 0)
(7.35032 -0.0587733 0)
(7.3659 -0.0787965 0)
(7.38424 -0.096259 0)
(7.40448 -0.111108 0)
(7.42581 -0.123406 0)
(7.44752 -0.133342 0)
(7.46907 -0.141168 0)
(7.4901 -0.14716 0)
(7.51032 -0.151595 0)
(7.52953 -0.15474 0)
(7.54762 -0.15684 0)
(7.56451 -0.158113 0)
(7.58018 -0.158751 0)
(7.59465 -0.158918 0)
(7.60793 -0.158754 0)
(7.62007 -0.158376 0)
(7.63113 -0.157881 0)
(7.64116 -0.157348 0)
(7.65023 -0.156843 0)
(7.65841 -0.156418 0)
(7.66575 -0.156112 0)
(7.67232 -0.155957 0)
(7.67817 -0.155975 0)
(7.68336 -0.156183 0)
(7.68794 -0.15659 0)
(7.69196 -0.1572 0)
(7.69546 -0.158011 0)
(7.6985 -0.15902 0)
(7.7011 -0.160217 0)
(7.70332 -0.161592 0)
(7.70517 -0.163122 0)
(7.33356 -0.014711 0)
(7.3396 -0.0432599 0)
(7.35228 -0.0689742 0)
(7.36958 -0.0911232 0)
(7.38987 -0.109755 0)
(7.41223 -0.12508 0)
(7.43574 -0.137379 0)
(7.45959 -0.147001 0)
(7.48315 -0.154306 0)
(7.506 -0.159634 0)
(7.52783 -0.163304 0)
(7.54842 -0.165612 0)
(7.56766 -0.166821 0)
(7.58549 -0.167168 0)
(7.60191 -0.166857 0)
(7.61693 -0.166066 0)
(7.63061 -0.164946 0)
(7.64302 -0.163623 0)
(7.65422 -0.162203 0)
(7.6643 -0.160773 0)
(7.67333 -0.159402 0)
(7.68139 -0.158146 0)
(7.68857 -0.157047 0)
(7.69492 -0.15614 0)
(7.70052 -0.155447 0)
(7.70543 -0.154985 0)
(7.70972 -0.154764 0)
(7.71343 -0.154787 0)
(7.71662 -0.155054 0)
(7.71935 -0.155561 0)
(7.72166 -0.1563 0)
(7.72359 -0.157261 0)
(7.72521 -0.158418 0)
(7.33382 -0.0179202 0)
(7.34184 -0.0531301 0)
(7.35789 -0.085197 0)
(7.37894 -0.112997 0)
(7.40277 -0.136282 0)
(7.4283 -0.155055 0)
(7.45456 -0.169608 0)
(7.48075 -0.180446 0)
(7.50629 -0.188128 0)
(7.53082 -0.193192 0)
(7.55405 -0.196137 0)
(7.57581 -0.197409 0)
(7.59601 -0.197391 0)
(7.61461 -0.196405 0)
(7.63162 -0.194721 0)
(7.64709 -0.192558 0)
(7.66107 -0.190097 0)
(7.67366 -0.187481 0)
(7.68492 -0.184826 0)
(7.69497 -0.182221 0)
(7.70388 -0.179738 0)
(7.71175 -0.17743 0)
(7.71866 -0.175337 0)
(7.7247 -0.17349 0)
(7.72995 -0.171909 0)
(7.73447 -0.170606 0)
(7.73834 -0.169591 0)
(7.74161 -0.168864 0)
(7.74435 -0.168424 0)
(7.74661 -0.168267 0)
(7.74844 -0.168381 0)
(7.74988 -0.168759 0)
(7.75099 -0.169369 0)
(7.33371 -0.0213937 0)
(7.34218 -0.0616059 0)
(7.36017 -0.0958149 0)
(7.38424 -0.123971 0)
(7.41184 -0.146967 0)
(7.44158 -0.165293 0)
(7.47209 -0.179397 0)
(7.50225 -0.189814 0)
(7.53133 -0.197058 0)
(7.55889 -0.201611 0)
(7.58465 -0.203935 0)
(7.60843 -0.204459 0)
(7.6302 -0.20357 0)
(7.64997 -0.201608 0)
(7.66781 -0.198868 0)
(7.6838 -0.1956 0)
(7.69806 -0.192011 0)
(7.71072 -0.188268 0)
(7.72189 -0.184508 0)
(7.73171 -0.180837 0)
(7.74028 -0.177336 0)
(7.74773 -0.174067 0)
(7.75416 -0.171075 0)
(7.75967 -0.168391 0)
(7.76434 -0.166036 0)
(7.76825 -0.164024 0)
(7.7715 -0.162361 0)
(7.77413 -0.161048 0)
(7.77623 -0.160083 0)
(7.77786 -0.159462 0)
(7.77907 -0.159174 0)
(7.77993 -0.15921 0)
(7.78049 -0.159535 0)
(7.33483 -0.0277988 0)
(7.3496 -0.0824141 0)
(7.37539 -0.129891 0)
(7.40588 -0.168354 0)
(7.4383 -0.198122 0)
(7.47185 -0.219969 0)
(7.50542 -0.235119 0)
(7.53805 -0.244886 0)
(7.56915 -0.250391 0)
(7.59835 -0.25258 0)
(7.62538 -0.252243 0)
(7.65012 -0.250023 0)
(7.67256 -0.246436 0)
(7.69275 -0.241892 0)
(7.71078 -0.23672 0)
(7.7268 -0.231181 0)
(7.74095 -0.225477 0)
(7.75339 -0.21977 0)
(7.76427 -0.214183 0)
(7.77375 -0.208809 0)
(7.78197 -0.203719 0)
(7.78905 -0.198962 0)
(7.79512 -0.194574 0)
(7.80028 -0.190578 0)
(7.80463 -0.186988 0)
(7.80825 -0.183811 0)
(7.81124 -0.181051 0)
(7.81364 -0.178705 0)
(7.81554 -0.176773 0)
(7.81699 -0.175252 0)
(7.81805 -0.174133 0)
(7.81878 -0.173411 0)
(7.81924 -0.173047 0)
(7.3338 -0.0316228 0)
(7.34774 -0.0860352 0)
(7.37799 -0.128898 0)
(7.41611 -0.164311 0)
(7.45721 -0.193523 0)
(7.499 -0.216188 0)
(7.53958 -0.232725 0)
(7.57794 -0.243878 0)
(7.61378 -0.250374 0)
(7.64703 -0.252994 0)
(7.67772 -0.252532 0)
(7.70598 -0.249712 0)
(7.73195 -0.245169 0)
(7.75579 -0.239439 0)
(7.77765 -0.232958 0)
(7.79765 -0.226074 0)
(7.81592 -0.219055 0)
(7.83259 -0.212107 0)
(7.84778 -0.205378 0)
(7.86158 -0.198976 0)
(7.87411 -0.192976 0)
(7.88547 -0.187424 0)
(7.89574 -0.182349 0)
(7.90502 -0.177765 0)
(7.91339 -0.173675 0)
(7.92092 -0.170077 0)
(7.92769 -0.166964 0)
(7.93376 -0.164331 0)
(7.9392 -0.162173 0)
(7.94407 -0.160488 0)
(7.94844 -0.159283 0)
(7.9524 -0.158563 0)
(7.95604 -0.158301 0)
(7.33893 -0.0541942 0)
(7.37196 -0.151072 0)
(7.41473 -0.220042 0)
(7.45829 -0.266766 0)
(7.50475 -0.297404 0)
(7.55498 -0.315913 0)
(7.60745 -0.325984 0)
(7.66103 -0.330301 0)
(7.71483 -0.330555 0)
(7.76779 -0.327902 0)
(7.81901 -0.323149 0)
(7.86781 -0.31687 0)
(7.91371 -0.309494 0)
(7.95639 -0.301359 0)
(7.9957 -0.29274 0)
(8.03162 -0.283865 0)
(8.06419 -0.274929 0)
(8.09358 -0.266089 0)
(8.11994 -0.257476 0)
(8.14349 -0.249193 0)
(8.16445 -0.241317 0)
(8.18303 -0.233904 0)
(8.19946 -0.226994 0)
(8.21393 -0.220609 0)
(8.22663 -0.214763 0)
(8.23773 -0.209459 0)
(8.24739 -0.204698 0)
(8.25573 -0.20048 0)
(8.26288 -0.196815 0)
(8.26894 -0.193711 0)
(8.27402 -0.191227 0)
(8.27822 -0.189369 0)
(8.28171 -0.188312 0)
(7.33756 -0.0402599 0)
(7.3885 -0.10536 0)
(7.4777 -0.162916 0)
(7.57924 -0.218521 0)
(7.68702 -0.265901 0)
(7.79588 -0.302703 0)
(7.89982 -0.329556 0)
(7.99534 -0.347139 0)
(8.08044 -0.35652 0)
(8.15403 -0.359154 0)
(8.21591 -0.356497 0)
(8.26648 -0.349864 0)
(8.3065 -0.340391 0)
(8.33697 -0.329021 0)
(8.35899 -0.316508 0)
(8.37368 -0.303441 0)
(8.38208 -0.290267 0)
(8.38518 -0.277317 0)
(8.38385 -0.264828 0)
(8.37884 -0.25296 0)
(8.37083 -0.241815 0)
(8.36037 -0.231452 0)
(8.34794 -0.221894 0)
(8.33393 -0.21314 0)
(8.31865 -0.205171 0)
(8.30237 -0.197954 0)
(8.2853 -0.191453 0)
(8.26757 -0.185627 0)
(8.2493 -0.180449 0)
(8.23051 -0.175901 0)
(8.21132 -0.17208 0)
(8.19146 -0.16895 0)
(8.17156 -0.167451 0)
(7.39945 -0.196727 0)
(7.59554 -0.375997 0)
(7.76816 -0.458923 0)
(7.89515 -0.512841 0)
(7.97847 -0.541587 0)
(8.01621 -0.550986 0)
(8.0126 -0.547651 0)
(7.976 -0.534925 0)
(7.91408 -0.515303 0)
(7.83345 -0.491049 0)
(7.73988 -0.463962 0)
(7.63815 -0.435445 0)
(7.532 -0.406592 0)
(7.42427 -0.378223 0)
(7.31709 -0.350923 0)
(7.21197 -0.325086 0)
(7.10995 -0.300949 0)
(7.0117 -0.278635 0)
(6.91762 -0.25818 0)
(6.82789 -0.239555 0)
(6.74255 -0.222691 0)
(6.66152 -0.207493 0)
(6.58465 -0.193844 0)
(6.51175 -0.181621 0)
(6.44261 -0.170695 0)
(6.37696 -0.160935 0)
(6.31458 -0.152204 0)
(6.25517 -0.144372 0)
(6.19847 -0.137279 0)
(6.14407 -0.130785 0)
(6.09163 -0.124791 0)
(6.04009 -0.118526 0)
(5.98986 -0.115274 0)
(7.16014 -0.185885 0)
(6.91099 -0.345218 0)
(6.49986 -0.392608 0)
(6.03615 -0.394165 0)
(5.59593 -0.366135 0)
(5.17946 -0.322331 0)
(4.79081 -0.273665 0)
(4.43678 -0.225756 0)
(4.11796 -0.181595 0)
(3.8327 -0.14267 0)
(3.57898 -0.109389 0)
(3.35426 -0.0815708 0)
(3.15569 -0.0587434 0)
(2.98047 -0.0402906 0)
(2.8259 -0.0255638 0)
(2.6895 -0.0139473 0)
(2.56898 -0.00488908 0)
(2.4623 0.00208847 0)
(2.36763 0.0073881 0)
(2.28337 0.0113438 0)
(2.20812 0.0142295 0)
(2.14066 0.016268 0)
(2.07993 0.0176407 0)
(2.02501 0.0184955 0)
(1.97511 0.0189585 0)
(1.92958 0.0191383 0)
(1.88783 0.019154 0)
(1.84947 0.0191254 0)
(1.814 0.0192708 0)
(1.78158 0.0198919 0)
(1.75132 0.0213075 0)
(1.72519 0.0260538 0)
(1.70127 0.0213313 0)
(1.1767 0.142296 0)
(1.74581 0.475353 0)
(2.50453 0.66225 0)
(3.12761 0.626608 0)
(3.54151 0.421808 0)
(3.76751 0.17089 0)
(3.92525 -0.0879316 0)
(4.16404 -0.416465 0)