/*--------------------------------*- C++ -*----------------------------------*\
  =========                 |
  \\      /  F ield         | OpenFOAM: The Open Source CFD Toolbox
   \\    /   O peration     | Website:  https://openfoam.org
    \\  /    A nd           | Version:  10
     \\/     M anipulation  |
\*---------------------------------------------------------------------------*/
FoamFile
{
    format      ascii;
    class       volScalarField;
    location    "0.155";
    object      nut;
}
// * * * * * * * * * * * * * * * * * * * * * * * * * * * * * * * * * * * * * //

dimensions      [0 2 -1 0 0 0 0];

internalField   nonuniform List<scalar> 
6820
(
0.000503208
0.000397088
0.000324552
0.000269441
0.000236608
0.000214258
0.000197677
0.000184995
0.000174752
0.000166152
0.000158748
0.000152246
0.00014645
0.000141224
0.000136468
0.000132105
0.000128079
0.000124344
0.000120866
0.000117615
0.000114569
0.000111707
0.000109013
0.000106475
0.000104078
0.000101812
9.9663e-05
9.76232e-05
9.56641e-05
9.38234e-05
9.19697e-05
9.02998e-05
8.7747e-05
8.18462e-05
0.000143711
0.000196397
0.000210819
0.000206407
0.000197567
0.000187329
0.00017745
0.000168516
0.000160511
0.000153333
0.000146865
0.000140996
0.000135639
0.00013072
0.000126181
0.000121971
0.000118051
0.000114384
0.000110943
0.000107703
0.000104643
0.000101744
9.89904e-05
9.6373e-05
9.38765e-05
9.1498e-05
8.92264e-05
8.70678e-05
8.49885e-05
8.30955e-05
8.11764e-05
8.02335e-05
3.85914e-05
2.74007e-05
4.30191e-05
7.44081e-05
9.57943e-05
0.000109142
0.000116383
0.000119682
0.000120615
0.000120085
0.000118649
0.000116657
0.000114328
0.000111807
0.000109185
0.000106522
0.00010386
0.000101224
9.86322e-05
9.60953e-05
9.36202e-05
9.12108e-05
8.88692e-05
8.6595e-05
8.4389e-05
8.22508e-05
8.01764e-05
7.81704e-05
7.6234e-05
7.43733e-05
7.26006e-05
7.09117e-05
6.94076e-05
1.99672e-05
2.35353e-05
2.2086e-05
1.28234e-05
2.92979e-06
1.23323e-05
2.28182e-05
3.14414e-05
3.83853e-05
4.39033e-05
4.82364e-05
5.15981e-05
5.4162e-05
5.60648e-05
5.74252e-05
5.83402e-05
5.88889e-05
5.91363e-05
5.91357e-05
5.89308e-05
5.85578e-05
5.80466e-05
5.74219e-05
5.67046e-05
5.59118e-05
5.50602e-05
5.41625e-05
5.32315e-05
5.22814e-05
5.13235e-05
5.03726e-05
4.94549e-05
4.86062e-05
1.32428e-05
1.50928e-05
1.99415e-05
2.2034e-05
2.14837e-05
1.95474e-05
1.69336e-05
1.40086e-05
1.09878e-05
7.99864e-06
5.12453e-06
2.44032e-06
6.53433e-07
2.58062e-06
4.65082e-06
6.52902e-06
8.20589e-06
9.68805e-06
1.09862e-05
1.21127e-05
1.308e-05
1.39008e-05
1.45875e-05
1.51517e-05
1.56047e-05
1.59577e-05
1.6222e-05
1.64084e-05
1.65284e-05
1.6598e-05
1.66269e-05
1.66356e-05
1.66098e-05
1.01879e-05
1.10343e-05
1.18651e-05
1.26635e-05
1.32938e-05
1.38309e-05
1.42215e-05
1.44321e-05
1.44754e-05
1.43736e-05
1.41485e-05
1.3823e-05
1.3419e-05
1.29509e-05
1.2437e-05
1.18933e-05
1.1333e-05
1.07676e-05
1.02063e-05
9.65643e-06
9.12377e-06
8.61263e-06
8.12613e-06
7.66639e-06
7.23449e-06
6.83061e-06
6.45376e-06
6.10313e-06
5.77524e-06
5.46934e-06
5.17916e-06
4.92498e-06
4.69644e-06
7.53058e-06
8.26636e-06
8.70068e-06
8.93891e-06
8.83669e-06
8.63296e-06
8.47163e-06
8.38415e-06
8.3641e-06
8.38709e-06
8.42631e-06
8.46329e-06
8.48845e-06
8.5e-06
8.49504e-06
8.47233e-06
8.43215e-06
8.37548e-06
8.30368e-06
8.21827e-06
8.12079e-06
8.01273e-06
7.89549e-06
7.77032e-06
7.63822e-06
7.50013e-06
7.35649e-06
7.2088e-06
7.05718e-06
6.90774e-06
6.7649e-06
6.64948e-06
6.56473e-06
5.746e-06
6.62793e-06
7.03722e-06
7.15401e-06
6.90511e-06
6.54648e-06
6.21983e-06
5.9499e-06
5.73519e-06
5.56644e-06
5.43153e-06
5.32088e-06
5.22741e-06
5.14585e-06
5.07278e-06
5.00584e-06
4.94315e-06
4.88311e-06
4.82449e-06
4.76634e-06
4.70796e-06
4.64882e-06
4.58856e-06
4.52694e-06
4.46385e-06
4.39934e-06
4.33397e-06
4.26928e-06
4.20714e-06
4.1526e-06
4.10882e-06
4.0935e-06
4.11232e-06
4.46976e-06
5.26469e-06
5.57661e-06
5.73671e-06
5.65885e-06
5.45438e-06
5.21476e-06
4.97475e-06
4.75387e-06
4.56013e-06
4.3919e-06
4.2449e-06
4.11518e-06
3.99953e-06
3.8954e-06
3.80072e-06
3.71387e-06
3.63364e-06
3.55907e-06
3.48944e-06
3.42415e-06
3.36273e-06
3.30482e-06
3.25018e-06
3.19874e-06
3.15069e-06
3.10659e-06
3.06743e-06
3.03504e-06
3.01406e-06
3.00903e-06
3.03147e-06
3.08714e-06
3.53847e-06
4.25389e-06
4.55234e-06
4.72406e-06
4.69531e-06
4.53874e-06
4.343e-06
4.14747e-06
3.96897e-06
3.8123e-06
3.67503e-06
3.55342e-06
3.44453e-06
3.34604e-06
3.2562e-06
3.17374e-06
3.09775e-06
3.02753e-06
2.96248e-06
2.90215e-06
2.84614e-06
2.79418e-06
2.74608e-06
2.7018e-06
2.66148e-06
2.62548e-06
2.59453e-06
2.57018e-06
2.55449e-06
2.55103e-06
2.56323e-06
2.59759e-06
2.65885e-06
2.84589e-06
3.47503e-06
3.75604e-06
3.91716e-06
3.92534e-06
3.82679e-06
3.68651e-06
3.53529e-06
3.38799e-06
3.25199e-06
3.12901e-06
3.01845e-06
2.91915e-06
2.82979e-06
2.7491e-06
2.676e-06
2.60955e-06
2.54898e-06
2.49366e-06
2.44308e-06
2.3969e-06
2.35485e-06
2.31682e-06
2.28286e-06
2.25318e-06
2.2283e-06
2.20903e-06
2.19672e-06
2.19303e-06
2.20058e-06
2.22195e-06
2.26043e-06
2.32004e-06
2.31726e-06
2.86573e-06
3.1451e-06
3.31197e-06
3.35345e-06
3.29458e-06
3.18557e-06
3.05757e-06
2.9281e-06
2.80655e-06
2.69602e-06
2.5966e-06
2.50746e-06
2.42751e-06
2.35562e-06
2.29081e-06
2.2323e-06
2.17942e-06
2.13166e-06
2.08862e-06
2.05001e-06
2.01561e-06
1.98541e-06
1.95946e-06
1.93802e-06
1.92156e-06
1.91081e-06
1.90686e-06
1.91104e-06
1.92503e-06
1.95041e-06
1.98816e-06
2.04171e-06
1.90399e-06
2.38394e-06
2.66482e-06
2.83581e-06
2.89819e-06
2.87016e-06
2.79179e-06
2.69128e-06
2.58459e-06
2.48056e-06
2.38302e-06
2.29325e-06
2.21149e-06
2.13747e-06
2.07068e-06
2.01056e-06
1.95656e-06
1.90817e-06
1.86497e-06
1.82659e-06
1.79275e-06
1.76331e-06
1.7382e-06
1.71746e-06
1.70132e-06
1.69016e-06
1.68453e-06
1.68518e-06
1.69294e-06
1.70872e-06
1.73332e-06
1.76645e-06
1.81132e-06
1.57329e-06
1.99772e-06
2.28133e-06
2.46018e-06
2.54201e-06
2.54106e-06
2.48823e-06
2.40855e-06
2.31776e-06
2.22548e-06
2.13682e-06
2.05413e-06
1.97835e-06
1.90961e-06
1.84765e-06
1.79204e-06
1.74232e-06
1.69805e-06
1.65883e-06
1.62435e-06
1.59437e-06
1.56874e-06
1.54739e-06
1.53035e-06
1.51776e-06
1.50988e-06
1.50706e-06
1.50973e-06
1.51833e-06
1.5332e-06
1.55468e-06
1.58171e-06
1.61737e-06
1.30275e-06
1.68475e-06
1.97153e-06
2.1594e-06
2.25675e-06
2.27676e-06
2.24469e-06
2.1833e-06
2.10791e-06
2.02807e-06
1.94922e-06
1.87418e-06
1.80432e-06
1.74021e-06
1.68191e-06
1.6293e-06
1.58212e-06
1.5401e-06
1.50295e-06
1.47043e-06
1.44233e-06
1.4185e-06
1.39887e-06
1.38341e-06
1.37219e-06
1.36531e-06
1.36294e-06
1.36522e-06
1.37231e-06
1.38415e-06
1.40076e-06
1.4207e-06
1.44702e-06
1.07675e-06
1.42853e-06
1.71875e-06
1.91623e-06
2.02753e-06
2.06577e-06
2.0521e-06
2.00681e-06
1.94443e-06
1.87449e-06
1.80291e-06
1.73314e-06
1.66716e-06
1.60595e-06
1.54993e-06
1.49917e-06
1.45356e-06
1.41291e-06
1.37699e-06
1.34558e-06
1.31849e-06
1.29556e-06
1.27666e-06
1.26172e-06
1.2507e-06
1.24359e-06
1.24037e-06
1.24099e-06
1.24539e-06
1.25326e-06
1.26448e-06
1.27745e-06
1.29517e-06
8.84241e-07
1.21711e-06
1.51144e-06
1.71856e-06
1.84227e-06
1.89578e-06
1.8975e-06
1.86579e-06
1.8146e-06
1.75348e-06
1.68862e-06
1.62389e-06
1.56157e-06
1.50297e-06
1.44872e-06
1.3991e-06
1.35414e-06
1.31378e-06
1.27786e-06
1.24624e-06
1.21875e-06
1.19523e-06
1.17554e-06
1.15957e-06
1.1472e-06
1.13832e-06
1.1328e-06
1.13044e-06
1.13104e-06
1.13417e-06
1.13962e-06
1.14579e-06
1.15558e-06
7.17346e-07
1.04191e-06
1.3414e-06
1.55773e-06
1.69266e-06
1.75941e-06
1.7746e-06
1.75492e-06
1.71364e-06
1.66016e-06
1.60087e-06
1.53995e-06
1.48006e-06
1.42282e-06
1.36916e-06
1.31955e-06
1.2742e-06
1.23314e-06
1.19632e-06
1.16361e-06
1.13487e-06
1.10993e-06
1.08864e-06
1.07083e-06
1.05632e-06
1.04493e-06
1.03644e-06
1.03056e-06
1.02701e-06
1.02529e-06
1.02518e-06
1.02515e-06
1.02798e-06
5.70654e-07
8.97245e-07
1.203e-06
1.42783e-06
1.57279e-06
1.65096e-06
1.67768e-06
1.66824e-06
1.63528e-06
1.58812e-06
1.53328e-06
1.47524e-06
1.41695e-06
1.36029e-06
1.30642e-06
1.25598e-06
1.20933e-06
1.1666e-06
1.12782e-06
1.09291e-06
1.06178e-06
1.03427e-06
1.01023e-06
9.89462e-07
9.71776e-07
9.56936e-07
9.44678e-07
9.34686e-07
9.26627e-07
9.20006e-07
9.14604e-07
9.09004e-07
9.05813e-07
4.41138e-07
7.79896e-07
1.09257e-06
1.32488e-06
1.47868e-06
1.56675e-06
1.60347e-06
1.60302e-06
1.57742e-06
1.53582e-06
1.48485e-06
1.42917e-06
1.37198e-06
1.3154e-06
1.26077e-06
1.20894e-06
1.16039e-06
1.11538e-06
1.074e-06
1.03624e-06
1.00204e-06
9.71287e-07
9.43818e-07
9.19453e-07
8.97978e-07
8.79148e-07
8.62686e-07
8.48266e-07
8.35555e-07
8.24078e-07
8.13646e-07
8.02941e-07
7.94456e-07
3.29313e-07
6.89086e-07
1.00806e-06
1.2464e-06
1.40762e-06
1.50404e-06
1.54912e-06
1.55606e-06
1.53629e-06
1.49878e-06
1.45023e-06
1.39549e-06
1.338e-06
1.2801e-06
1.22336e-06
1.1688e-06
1.11705e-06
1.06848e-06
1.02326e-06
9.81474e-07
9.43093e-07
9.08039e-07
8.76186e-07
8.47369e-07
8.21391e-07
7.98018e-07
7.76988e-07
7.57993e-07
7.40722e-07
7.24746e-07
7.09897e-07
6.95015e-07
6.82323e-07
2.43356e-07
6.26236e-07
9.48739e-07
1.19121e-06
1.35848e-06
1.46203e-06
1.51445e-06
1.52806e-06
1.51373e-06
1.48025e-06
1.43429e-06
1.38082e-06
1.32344e-06
1.26464e-06
1.20615e-06
1.14912e-06
1.0943e-06
1.04217e-06
9.92986e-07
9.4689e-07
9.03921e-07
8.64055e-07
8.27213e-07
7.93276e-07
7.62089e-07
7.33465e-07
7.07186e-07
6.82996e-07
6.60634e-07
6.39734e-07
6.20172e-07
6.00894e-07
5.84017e-07
2.06562e-07
5.94162e-07
9.14687e-07
1.15868e-06
1.33006e-06
1.43885e-06
1.49657e-06
1.51468e-06
1.50352e-06
1.47167e-06
1.42587e-06
1.37124e-06
1.31157e-06
1.24957e-06
1.18717e-06
1.1257e-06
1.06603e-06
1.00873e-06
9.54173e-07
9.02545e-07
8.53945e-07
8.08393e-07
7.65853e-07
7.26252e-07
6.89483e-07
6.55411e-07
6.23876e-07
5.94687e-07
5.67646e-07
5.42469e-07
5.19063e-07
4.9657e-07
4.76768e-07
2.40485e-07
5.95668e-07
9.06976e-07
1.14992e-06
1.32425e-06
1.4379e-06
1.50117e-06
1.52462e-06
1.51803e-06
1.48963e-06
1.44604e-06
1.39238e-06
1.33248e-06
1.26919e-06
1.20453e-06
1.13994e-06
1.07643e-06
1.01467e-06
9.55105e-07
8.98025e-07
8.43595e-07
7.91903e-07
7.4298e-07
6.96816e-07
6.53374e-07
6.12593e-07
5.74392e-07
5.38671e-07
5.05325e-07
4.74174e-07
4.45204e-07
4.17698e-07
3.93353e-07
3.27656e-07
6.31356e-07
9.26077e-07
1.16434e-06
1.33853e-06
1.45358e-06
1.5183e-06
1.54246e-06
1.53543e-06
1.5054e-06
1.45909e-06
1.40178e-06
1.33753e-06
1.26936e-06
1.19943e-06
1.12932e-06
1.06009e-06
9.92473e-07
9.26963e-07
8.63861e-07
8.03353e-07
7.45544e-07
6.90482e-07
6.38184e-07
5.88646e-07
5.41853e-07
4.97782e-07
4.56408e-07
4.17707e-07
3.81619e-07
3.48188e-07
3.17002e-07
2.8933e-07
4.44312e-07
7.00162e-07
9.74459e-07
1.20722e-06
1.38263e-06
1.50223e-06
1.57301e-06
1.60351e-06
1.60224e-06
1.5768e-06
1.5336e-06
1.47786e-06
1.41365e-06
1.34411e-06
1.27161e-06
1.19788e-06
1.12419e-06
1.05144e-06
9.80243e-07
9.11034e-07
8.44086e-07
7.79575e-07
7.17605e-07
6.58234e-07
6.01489e-07
5.47381e-07
4.95911e-07
4.47076e-07
4.00875e-07
3.57289e-07
3.16371e-07
2.77874e-07
2.42714e-07
5.81842e-07
7.99833e-07
1.05081e-06
1.27282e-06
1.44208e-06
1.55659e-06
1.62211e-06
1.64692e-06
1.63966e-06
1.60814e-06
1.55898e-06
1.49751e-06
1.42786e-06
1.35318e-06
1.27578e-06
1.19736e-06
1.11913e-06
1.04195e-06
9.66402e-07
8.92887e-07
8.21674e-07
7.52937e-07
6.86787e-07
6.23292e-07
5.62498e-07
5.04433e-07
4.49121e-07
3.96581e-07
3.46831e-07
2.99891e-07
2.55776e-07
2.14506e-07
1.761e-07
7.39935e-07
9.31118e-07
1.16365e-06
1.38239e-06
1.55771e-06
1.68315e-06
1.76127e-06
1.79807e-06
1.8007e-06
1.77624e-06
1.73111e-06
1.67085e-06
1.6e-06
1.52218e-06
1.44018e-06
1.35614e-06
1.27164e-06
1.18781e-06
1.10547e-06
1.02519e-06
9.47353e-07
8.7223e-07
7.99997e-07
7.30775e-07
6.64656e-07
6.01714e-07
5.42021e-07
4.85651e-07
4.32694e-07
3.83248e-07
3.37442e-07
2.95466e-07
2.57143e-07
9.22547e-07
1.09408e-06
1.30284e-06
1.5013e-06
1.65671e-06
1.76216e-06
1.82161e-06
1.84256e-06
1.83287e-06
1.7996e-06
1.74871e-06
1.68505e-06
1.61247e-06
1.53398e-06
1.4519e-06
1.36803e-06
1.28374e-06
1.20006e-06
1.11778e-06
1.03751e-06
9.59682e-07
8.84649e-07
8.12678e-07
7.43987e-07
6.78766e-07
6.17184e-07
5.59413e-07
5.05623e-07
4.56004e-07
4.10753e-07
3.70071e-07
3.34303e-07
3.02837e-07
1.1361e-06
1.29902e-06
1.50597e-06
1.72318e-06
1.91036e-06
2.0499e-06
2.13846e-06
2.18016e-06
2.1822e-06
2.15259e-06
2.099e-06
2.02811e-06
1.94541e-06
1.85521e-06
1.76082e-06
1.66468e-06
1.56857e-06
1.47377e-06
1.38118e-06
1.29143e-06
1.20495e-06
1.12206e-06
1.04297e-06
9.67867e-07
8.96879e-07
8.30126e-07
7.67715e-07
7.09736e-07
6.56275e-07
6.07355e-07
5.63011e-07
5.23164e-07
4.87185e-07
1.39182e-06
1.54376e-06
1.70974e-06
1.86941e-06
1.99559e-06
2.08298e-06
2.13521e-06
2.15741e-06
2.15399e-06
2.12884e-06
2.08564e-06
2.0279e-06
1.95888e-06
1.88154e-06
1.79849e-06
1.71197e-06
1.62383e-06
1.53558e-06
1.44842e-06
1.36329e-06
1.28089e-06
1.20175e-06
1.12627e-06
1.05473e-06
9.87331e-07
9.24224e-07
8.65501e-07
8.11219e-07
7.6141e-07
7.16063e-07
6.75153e-07
6.38737e-07
6.05633e-07
1.70211e-06
1.87363e-06
2.10055e-06
2.36583e-06
2.59817e-06
2.76042e-06
2.84993e-06
2.87814e-06
2.85881e-06
2.80484e-06
2.72709e-06
2.63388e-06
2.53126e-06
2.42352e-06
2.3136e-06
2.20355e-06
2.09474e-06
1.98814e-06
1.88443e-06
1.7841e-06
1.68751e-06
1.59491e-06
1.5065e-06
1.42241e-06
1.34273e-06
1.2675e-06
1.19674e-06
1.13042e-06
1.06851e-06
1.01087e-06
9.57448e-07
9.07946e-07
8.61764e-07
2.09722e-06
2.22723e-06
2.29398e-06
2.36418e-06
2.44807e-06
2.53827e-06
2.62271e-06
2.68946e-06
2.7299e-06
2.74056e-06
2.72239e-06
2.67898e-06
2.61508e-06
2.53562e-06
2.44514e-06
2.34754e-06
2.24598e-06
2.14293e-06
2.04027e-06
1.93939e-06
1.84126e-06
1.74657e-06
1.65575e-06
1.56907e-06
1.48666e-06
1.40857e-06
1.33478e-06
1.26521e-06
1.19983e-06
1.13859e-06
1.08146e-06
1.02868e-06
9.78739e-07
2.59711e-06
2.89551e-06
3.30226e-06
3.71293e-06
3.98377e-06
4.10181e-06
4.11315e-06
4.0582e-06
3.96316e-06
3.84503e-06
3.7139e-06
3.57521e-06
3.43203e-06
3.28642e-06
3.13998e-06
2.99414e-06
2.85022e-06
2.70946e-06
2.57291e-06
2.44147e-06
2.31579e-06
2.19633e-06
2.08337e-06
1.977e-06
1.87719e-06
1.78377e-06
1.69649e-06
1.61504e-06
1.5391e-06
1.46834e-06
1.40257e-06
1.34166e-06
1.28495e-06
3.2989e-06
3.20388e-06
2.92477e-06
2.87359e-06
3.05217e-06
3.3162e-06
3.5595e-06
3.73373e-06
3.82823e-06
3.85439e-06
3.832e-06
3.78051e-06
3.71558e-06
3.64827e-06
3.58534e-06
3.53017e-06
3.48374e-06
3.4456e-06
3.41457e-06
3.3892e-06
3.36805e-06
3.34981e-06
3.3334e-06
3.31791e-06
3.30265e-06
3.287e-06
3.27053e-06
3.25283e-06
3.23372e-06
3.21312e-06
3.19124e-06
3.16958e-06
3.14613e-06
4.33167e-06
5.5438e-06
6.2881e-06
6.52568e-06
6.41501e-06
6.18882e-06
6.03918e-06
6.05094e-06
6.23102e-06
6.53991e-06
6.92285e-06
7.33146e-06
7.73053e-06
8.0974e-06
8.4194e-06
8.69102e-06
8.91143e-06
9.08264e-06
9.20825e-06
9.29266e-06
9.3405e-06
9.3563e-06
9.34431e-06
9.30835e-06
9.25179e-06
9.17747e-06
9.08779e-06
8.98451e-06
8.8693e-06
8.7428e-06
8.60704e-06
8.4627e-06
8.31321e-06
5.65558e-06
3.58933e-06
2.74574e-06
4.59409e-06
7.31395e-06
9.88653e-06
1.20728e-05
1.3807e-05
1.51005e-05
1.59948e-05
1.65367e-05
1.67748e-05
1.67575e-05
1.65307e-05
1.6136e-05
1.56105e-05
1.49868e-05
1.42924e-05
1.35504e-05
1.27797e-05
1.19956e-05
1.12099e-05
1.04319e-05
9.66837e-06
8.92419e-06
8.20251e-06
7.50514e-06
6.83219e-06
6.18365e-06
5.5555e-06
4.95026e-06
4.35293e-06
3.78358e-06
1.1444e-05
1.65014e-05
1.82554e-05
1.97543e-05
2.02083e-05
1.94383e-05
1.76658e-05
1.51676e-05
1.23063e-05
9.64391e-06
8.11701e-06
8.66235e-06
1.09229e-05
1.39082e-05
1.70459e-05
2.00899e-05
2.29343e-05
2.5535e-05
2.7878e-05
2.99649e-05
3.1806e-05
3.34163e-05
3.48126e-05
3.60127e-05
3.70342e-05
3.78939e-05
3.8608e-05
3.9192e-05
3.96618e-05
4.00329e-05
4.03266e-05
4.0562e-05
4.07915e-05
2.49013e-05
2.8671e-05
3.90364e-05
5.35058e-05
6.7804e-05
8.17659e-05
9.4653e-05
0.000105857
0.000115331
0.000123151
0.000129423
0.000134301
0.000137956
0.000140553
0.000142243
0.000143168
0.000143448
0.000143193
0.000142495
0.000141433
0.000140075
0.000138479
0.00013669
0.000134751
0.000132693
0.000130543
0.000128324
0.000126052
0.000123745
0.000121404
0.000119047
0.000116683
0.000114528
0.000543337
0.000510576
0.000491573
0.000467832
0.000443741
0.000421321
0.000399732
0.000379044
0.000359527
0.000341202
0.000324056
0.000308077
0.000293222
0.00027943
0.00026663
0.000254749
0.000243714
0.000233452
0.000223893
0.000214972
0.000206629
0.00019881
0.000191466
0.00018455
0.000178024
0.000171851
0.000165996
0.000160433
0.000155114
0.000150047
0.000145058
0.000140719
0.000136701
7.77809e-05
6.58298e-05
5.64448e-05
5.41589e-05
5.67518e-05
6.11058e-05
6.52555e-05
6.8624e-05
7.10246e-05
7.2563e-05
7.37498e-05
7.52759e-05
7.76469e-05
8.10559e-05
8.54723e-05
9.08208e-05
8.95622e-05
6.87834e-05
4.92474e-05
4.52936e-05
4.32725e-05
3.98631e-05
3.54778e-05
3.03177e-05
2.46641e-05
1.88499e-05
1.36485e-05
1.01361e-05
9.78177e-06
1.52459e-05
1.32568e-05
2.01305e-06
1.09589e-05
8.9108e-06
2.48755e-05
3.40482e-05
3.26302e-05
2.76004e-05
2.33547e-05
2.0523e-05
1.8668e-05
1.74515e-05
1.67324e-05
1.65068e-05
1.67826e-05
1.74609e-05
1.94189e-05
2.3954e-05
3.16472e-05
4.53987e-05
5.66907e-05
5.60553e-05
4.61203e-05
3.41482e-05
2.43983e-05
1.72443e-05
1.15026e-05
6.11334e-06
1.5522e-06
1.29429e-05
2.7066e-05
3.74291e-05
3.99924e-05
3.63658e-05
3.06632e-05
2.55633e-05
2.16447e-05
1.86052e-05
1.61193e-05
1.40062e-05
1.21796e-05
1.05999e-05
9.25022e-06
8.127e-06
7.2431e-06
6.61547e-06
6.24948e-06
6.15549e-06
6.39838e-06
7.25782e-06
9.56414e-06
1.51446e-05
2.51556e-05
3.67562e-05
4.41826e-05
4.39285e-05
3.68028e-05
2.53462e-05
1.22334e-05
9.2203e-06
2.29e-05
3.5866e-05
4.39026e-05
4.51096e-05
3.99911e-05
3.16974e-05
2.3466e-05
1.71602e-05
1.33683e-05
7.69219e-06
0.000103035
9.59515e-05
8.76306e-05
8.37353e-05
8.2952e-05
8.3133e-05
8.26858e-05
8.09094e-05
7.78217e-05
7.39545e-05
7.02701e-05
6.7936e-05
6.76792e-05
6.94751e-05
7.3087e-05
7.88488e-05
8.72551e-05
8.62997e-05
6.43799e-05
4.55235e-05
4.17785e-05
3.9298e-05
3.50884e-05
3.01657e-05
2.50249e-05
1.98711e-05
1.55214e-05
1.22956e-05
1.33454e-05
1.70509e-05
7.50353e-06
1.02928e-05
1.17408e-05
1.24337e-05
2.96024e-05
3.51947e-05
3.18769e-05
2.68459e-05
2.3047e-05
2.05181e-05
1.88148e-05
1.76772e-05
1.7009e-05
1.68128e-05
1.71265e-05
1.78247e-05
1.95495e-05
2.39504e-05
3.11485e-05
4.39765e-05
5.68799e-05
5.86375e-05
4.99485e-05
3.78946e-05
2.72684e-05
1.90172e-05
1.23216e-05
6.12907e-06
4.03712e-06
1.64706e-05
3.06794e-05
3.96961e-05
4.05909e-05
3.60342e-05
3.02095e-05
2.53139e-05
2.15911e-05
1.86737e-05
1.62616e-05
1.41947e-05
1.23939e-05
1.08228e-05
9.46843e-06
8.33102e-06
7.4284e-06
6.78943e-06
6.42825e-06
6.34399e-06
6.57196e-06
7.35349e-06
9.48191e-06
1.47695e-05
2.46569e-05
3.66837e-05
4.50631e-05
4.58375e-05
3.94261e-05
2.84796e-05
1.65997e-05
1.38865e-05
2.5138e-05
3.73502e-05
4.49682e-05
4.57271e-05
4.02166e-05
3.17472e-05
2.3621e-05
1.75044e-05
1.404e-05
8.32151e-06
9.15688e-05
9.09087e-05
8.81777e-05
8.62137e-05
8.45925e-05
8.23974e-05
7.89019e-05
7.37362e-05
6.706e-05
5.97331e-05
5.32929e-05
4.93367e-05
4.84076e-05
4.99547e-05
5.35645e-05
5.9434e-05
6.85595e-05
7.97293e-05
7.83315e-05
5.79831e-05
4.07814e-05
3.71636e-05
3.50037e-05
3.08423e-05
2.59213e-05
2.1217e-05
1.73733e-05
1.50286e-05
1.73984e-05
1.43989e-05
4.51837e-06
1.74437e-05
8.62742e-06
1.94262e-05
3.39052e-05
3.53694e-05
3.07199e-05
2.60192e-05
2.27211e-05
2.04804e-05
1.89132e-05
1.78473e-05
1.72274e-05
1.70572e-05
1.73957e-05
1.81451e-05
1.96503e-05
2.36463e-05
3.04494e-05
4.20455e-05
5.60502e-05
6.05948e-05
5.37944e-05
4.21372e-05
3.09272e-05
2.17717e-05
1.4365e-05
8.38758e-06
9.18984e-06
2.15447e-05
3.49245e-05
4.18866e-05
4.08513e-05
3.54329e-05
2.96156e-05
2.49962e-05
2.15032e-05
1.87306e-05
1.64085e-05
1.43969e-05
1.26251e-05
1.1062e-05
9.69972e-06
8.54371e-06
7.61494e-06
6.94576e-06
6.56452e-06
6.48204e-06
6.71327e-06
7.43997e-06
9.38746e-06
1.43209e-05
2.39576e-05
3.63214e-05
4.57138e-05
4.77462e-05
4.23937e-05
3.2321e-05
2.17091e-05
1.89786e-05
2.80254e-05
3.91809e-05
4.61328e-05
4.6252e-05
4.02562e-05
3.16216e-05
2.36516e-05
1.77292e-05
1.45743e-05
8.82422e-06
6.39766e-05
6.38972e-05
6.2608e-05
6.12206e-05
5.94363e-05
5.65265e-05
5.19781e-05
4.56621e-05
3.81185e-05
3.08421e-05
2.60352e-05
2.48259e-05
2.58585e-05
2.76037e-05
3.02664e-05
3.52572e-05
4.36643e-05
5.67648e-05
7.02011e-05
6.98228e-05
5.27814e-05
3.62524e-05
3.13695e-05
3.01037e-05
2.73634e-05
2.39242e-05
2.06446e-05
1.90678e-05
1.67384e-05
4.31118e-06
1.89297e-05
1.87628e-05
7.39382e-06
2.78479e-05
3.65623e-05
3.43577e-05
2.9295e-05
2.52217e-05
2.24056e-05
2.04046e-05
1.89566e-05
1.79639e-05
1.73965e-05
1.72567e-05
1.76095e-05
1.84199e-05
1.98126e-05
2.32939e-05
2.966e-05
3.98879e-05
5.42868e-05
6.18714e-05
5.77041e-05
4.70304e-05
3.55703e-05
2.57308e-05
1.7941e-05
1.29327e-05
1.58474e-05
2.7838e-05
3.93393e-05
4.35709e-05
4.05561e-05
3.45292e-05
2.89165e-05
2.46441e-05
2.14002e-05
1.87844e-05
1.65629e-05
1.46135e-05
1.28734e-05
1.13181e-05
9.94595e-06
8.76827e-06
7.81227e-06
7.11283e-06
6.69991e-06
6.59816e-06
6.82644e-06
7.51486e-06
9.29553e-06
1.38417e-05
2.31252e-05
3.57549e-05
4.62229e-05
4.97123e-05
4.56771e-05
3.66871e-05
2.72238e-05
2.44358e-05
3.14708e-05
4.12311e-05
4.72496e-05
4.6575e-05
4.00787e-05
3.13702e-05
2.36514e-05
1.79218e-05
1.50341e-05
9.24476e-06
2.22174e-05
2.21925e-05
2.1232e-05
1.99808e-05
1.83436e-05
1.58438e-05
1.22441e-05
7.96496e-06
5.73857e-06
8.83361e-06
1.29202e-05
1.54422e-05
1.59412e-05
1.50368e-05
1.4228e-05
1.56327e-05
2.0878e-05
3.0113e-05
4.44608e-05
5.88574e-05
6.13941e-05
4.96294e-05
3.40976e-05
2.49976e-05
2.19599e-05
2.00782e-05
1.71674e-05
1.26795e-05
6.89162e-06
2.15047e-05
2.68732e-05
9.82609e-06
1.87793e-05
3.4758e-05
3.68677e-05
3.24851e-05
2.78462e-05
2.44819e-05
2.20698e-05
2.02669e-05
1.89317e-05
1.80141e-05
1.74989e-05
1.73895e-05
1.77447e-05
1.85937e-05
1.99413e-05
2.29071e-05
2.87473e-05
3.76701e-05
5.14891e-05
6.19052e-05
6.11186e-05
5.2254e-05
4.11319e-05
3.10507e-05
2.33297e-05
1.95929e-05
2.39048e-05
3.48113e-05
4.33864e-05
4.4451e-05
3.96574e-05
3.33606e-05
2.81247e-05
2.42434e-05
2.12631e-05
1.88187e-05
1.67102e-05
1.48301e-05
1.31246e-05
1.15766e-05
1.01921e-05
8.98861e-06
7.99829e-06
7.26206e-06
6.81443e-06
6.68604e-06
6.90409e-06
7.56239e-06
9.19401e-06
1.33339e-05
2.21348e-05
3.48766e-05
4.63925e-05
5.14779e-05
4.89968e-05
4.13091e-05
3.29863e-05
3.01084e-05
3.52798e-05
4.34263e-05
4.82574e-05
4.66249e-05
3.9629e-05
3.09623e-05
2.35935e-05
1.80443e-05
1.53481e-05
9.50939e-06
6.24093e-06
6.96455e-06
7.91086e-06
8.83788e-06
9.80895e-06
1.10102e-05
1.25462e-05
1.43053e-05
1.59437e-05
1.69964e-05
1.70834e-05
1.60969e-05
1.42569e-05
1.20223e-05
1.0089e-05
9.38799e-06
1.16894e-05
1.66675e-05
2.27606e-05
3.32086e-05
4.624e-05
5.22681e-05
4.77626e-05
3.74097e-05
2.72684e-05
2.00467e-05
1.63662e-05
1.9932e-05
2.97934e-05
3.28879e-05
1.7575e-05
1.04736e-05
3.10959e-05
3.77446e-05
3.50343e-05
3.02953e-05
2.65355e-05
2.3798e-05
2.16989e-05
2.00654e-05
1.88409e-05
1.80001e-05
1.75365e-05
1.74573e-05
1.78091e-05
1.86688e-05
2.00165e-05
2.25399e-05
2.77052e-05
3.55182e-05
4.78415e-05
6.02579e-05
6.33837e-05
5.73581e-05
4.74588e-05
3.77842e-05
3.0565e-05
2.80531e-05
3.291e-05
4.16483e-05
4.64045e-05
4.42567e-05
3.81618e-05
3.19909e-05
2.72734e-05
2.38082e-05
2.11017e-05
1.8841e-05
1.68558e-05
1.50512e-05
1.33824e-05
1.18414e-05
1.0442e-05
9.20831e-06
8.17754e-06
7.39601e-06
6.90533e-06
6.74318e-06
6.94588e-06
7.58008e-06
9.0797e-06
1.28118e-05
2.10035e-05
3.36457e-05
4.60992e-05
5.28685e-05
5.21675e-05
4.59955e-05
3.88008e-05
3.57789e-05
3.92426e-05
4.56384e-05
4.90359e-05
4.63078e-05
3.88799e-05
3.04288e-05
2.35196e-05
1.81288e-05
1.55349e-05
9.59499e-06
8.87541e-06
9.63159e-06
1.05248e-05
1.13299e-05
1.20004e-05
1.26014e-05
1.31722e-05
1.36503e-05
1.38956e-05
1.37749e-05
1.32521e-05
1.24373e-05
1.15508e-05
1.08236e-05
1.04664e-05
1.06648e-05
1.15889e-05
1.44626e-05
1.87972e-05
2.14126e-05
2.4622e-05
3.26467e-05
4.01527e-05
4.25187e-05
4.07605e-05
3.79199e-05
3.7073e-05
3.77796e-05
3.39269e-05
1.82101e-05
7.05851e-06
2.83957e-05
3.75156e-05
3.65225e-05
3.21605e-05
2.82958e-05
2.54107e-05
2.31312e-05
2.12738e-05
1.97973e-05
1.86845e-05
1.7921e-05
1.7507e-05
1.74556e-05
1.78017e-05
1.86424e-05
1.9999e-05
2.2205e-05
2.65917e-05
3.34625e-05
4.38043e-05
5.67939e-05
6.37671e-05
6.15636e-05
5.39819e-05
4.5518e-05
3.92007e-05
3.76349e-05
4.1885e-05
4.72539e-05
4.77536e-05
4.28822e-05
3.61876e-05
3.05093e-05
2.63888e-05
2.33418e-05
2.09154e-05
1.88506e-05
1.69987e-05
1.52755e-05
1.36462e-05
1.21121e-05
1.06953e-05
9.42716e-06
8.34935e-06
7.51268e-06
6.96752e-06
6.76215e-06
6.94522e-06
7.56343e-06
8.95021e-06
1.22908e-05
1.97717e-05
3.20682e-05
4.5267e-05
5.37292e-05
5.49753e-05
5.04844e-05
4.44118e-05
4.12295e-05
4.31324e-05
4.76909e-05
4.94265e-05
4.55206e-05
3.78205e-05
2.9809e-05
2.34559e-05
1.81866e-05
1.5607e-05
9.49926e-06
5.67424e-06
6.27722e-06
6.98691e-06
7.65513e-06
8.23344e-06
8.75037e-06
9.23332e-06
9.66186e-06
9.97861e-06
1.01343e-05
1.01252e-05
1.00044e-05
9.87831e-06
9.88328e-06
1.01537e-05
1.08415e-05
1.193e-05
1.35179e-05
1.67318e-05
2.11604e-05
2.31837e-05
2.17395e-05
2.11079e-05
2.39108e-05
2.70791e-05
2.84152e-05
2.72211e-05
2.09855e-05
7.33908e-06
1.25163e-05
2.94497e-05
3.73403e-05
3.688e-05
3.30564e-05
2.94384e-05
2.66738e-05
2.43987e-05
2.24371e-05
2.07894e-05
1.94673e-05
1.84655e-05
1.77779e-05
1.7411e-05
1.73834e-05
1.77234e-05
1.85231e-05
1.98662e-05
2.18797e-05
2.55121e-05
3.14656e-05
3.98836e-05
5.18094e-05
6.16045e-05
6.37096e-05
5.95145e-05
5.31401e-05
4.80834e-05
4.69288e-05
4.92806e-05
5.0466e-05
4.70528e-05
4.04671e-05
3.39353e-05
2.89995e-05
2.54869e-05
2.28463e-05
2.07062e-05
1.88493e-05
1.71404e-05
1.5505e-05
1.39183e-05
1.23914e-05
1.09548e-05
9.64712e-06
8.51547e-06
7.61459e-06
7.00332e-06
6.74289e-06
6.89911e-06
7.50949e-06
8.80579e-06
1.17842e-05
1.84867e-05
3.01673e-05
4.3821e-05
5.38734e-05
5.71506e-05
5.44682e-05
4.95324e-05
4.6199e-05
4.66937e-05
4.93492e-05
4.92215e-05
4.416e-05
3.64741e-05
2.91652e-05
2.34311e-05
1.82353e-05
1.56016e-05
9.26094e-06
4.31408e-06
4.80719e-06
5.38166e-06
5.93834e-06
6.4391e-06
6.89876e-06
7.33548e-06
7.73946e-06
8.07548e-06
8.30611e-06
8.41863e-06
8.44592e-06
8.47449e-06
8.63055e-06
9.0476e-06
9.82842e-06
1.10574e-05
1.26485e-05
1.46912e-05
1.80626e-05
2.25531e-05
2.5562e-05
2.51937e-05
2.21212e-05
1.83626e-05
1.52848e-05
1.36821e-05
1.6657e-05
2.51371e-05
3.35674e-05
3.72652e-05
3.60395e-05
3.2732e-05
2.96985e-05
2.73508e-05
2.53061e-05
2.34037e-05
2.16991e-05
2.02523e-05
1.90809e-05
1.81865e-05
1.75722e-05
1.72493e-05
1.72404e-05
1.75729e-05
1.83209e-05
1.96097e-05
2.15066e-05
2.45377e-05
2.95387e-05
3.63975e-05
4.61314e-05
5.67934e-05
6.26548e-05
6.241e-05
5.88249e-05
5.52446e-05
5.38372e-05
5.33766e-05
5.05125e-05
4.44167e-05
3.73977e-05
3.16295e-05
2.75172e-05
2.45702e-05
2.23206e-05
2.0475e-05
1.88383e-05
1.72825e-05
1.57416e-05
1.42012e-05
1.26817e-05
1.12224e-05
9.86978e-06
8.67654e-06
7.70132e-06
7.01181e-06
6.68412e-06
6.80502e-06
7.41562e-06
8.64927e-06
1.13059e-05
1.72079e-05
2.80069e-05
4.17299e-05
5.31348e-05
5.84219e-05
5.76259e-05
5.38409e-05
5.04056e-05
4.96423e-05
5.03068e-05
4.81727e-05
4.21545e-05
3.49188e-05
2.85723e-05
2.34636e-05
1.82898e-05
1.5566e-05
8.9455e-06
3.71598e-06
4.10891e-06
4.56286e-06
5.01474e-06
5.4338e-06
5.82168e-06
6.184e-06
6.51119e-06
6.77991e-06
6.96915e-06
7.07981e-06
7.14866e-06
7.25205e-06
7.49281e-06
7.97929e-06
8.78775e-06
9.95715e-06
1.14908e-05
1.32854e-05
1.544e-05
1.85509e-05
2.26167e-05
2.63291e-05
2.85228e-05
2.92792e-05
2.97206e-05
3.10221e-05
3.33075e-05
3.53267e-05
3.54981e-05
3.36818e-05
3.11527e-05
2.90046e-05
2.7298e-05
2.56738e-05
2.40062e-05
2.23888e-05
2.09271e-05
1.96721e-05
1.86432e-05
1.7851e-05
1.73062e-05
1.70237e-05
1.70285e-05
1.73495e-05
1.8044e-05
1.92429e-05
2.10361e-05
2.36547e-05
2.77645e-05
3.33953e-05
4.07941e-05
5.02197e-05
5.80401e-05
6.12431e-05
6.05669e-05
5.84274e-05
5.63126e-05
5.31086e-05
4.75167e-05
4.052e-05
3.41755e-05
2.94347e-05
2.60752e-05
2.36311e-05
2.17633e-05
2.02235e-05
1.88201e-05
1.7428e-05
1.59892e-05
1.44988e-05
1.29868e-05
1.15013e-05
1.00974e-05
8.83393e-06
7.77369e-06
6.99339e-06
6.58598e-06
6.66213e-06
7.27953e-06
8.48438e-06
1.08699e-05
1.5998e-05
2.5695e-05
3.9033e-05
5.14042e-05
5.85438e-05
5.96322e-05
5.69968e-05
5.35497e-05
5.16362e-05
5.0172e-05
4.60242e-05
3.95169e-05
3.32984e-05
2.81031e-05
2.35624e-05
1.83701e-05
1.55616e-05
8.64319e-06
3.23907e-06
3.55836e-06
3.92373e-06
4.29171e-06
4.63561e-06
4.95018e-06
5.23598e-06
5.48729e-06
5.6923e-06
5.84306e-06
5.94869e-06
6.04596e-06
6.20225e-06
6.50335e-06
7.03073e-06
7.84259e-06
8.95555e-06
1.03568e-05
1.201e-05
1.38206e-05
1.58482e-05
1.84023e-05
2.15325e-05
2.47243e-05
2.73717e-05
2.93186e-05
3.06705e-05
3.13226e-05
3.10138e-05
2.99186e-05
2.86225e-05
2.75159e-05
2.65181e-05
2.53996e-05
2.41011e-05
2.27188e-05
2.13705e-05
2.01347e-05
1.90554e-05
1.81588e-05
1.74628e-05
1.69828e-05
1.67369e-05
1.67505e-05
1.70543e-05
1.76956e-05
1.87867e-05
2.04484e-05
2.27855e-05
2.61894e-05
3.0812e-05
3.64181e-05
4.35185e-05
5.09633e-05
5.59319e-05
5.74193e-05
5.64037e-05
5.36796e-05
4.89491e-05
4.2654e-05
3.63344e-05
3.11949e-05
2.74006e-05
2.46512e-05
2.26597e-05
2.11755e-05
1.99548e-05
1.87983e-05
1.75813e-05
1.62524e-05
1.48157e-05
1.33109e-05
1.1795e-05
1.03325e-05
8.98909e-06
7.83186e-06
6.94669e-06
6.44634e-06
6.4686e-06
7.09808e-06
8.31319e-06
1.04902e-05
1.49136e-05
2.33726e-05
3.58506e-05
4.86574e-05
5.73287e-05
6.01857e-05
5.86706e-05
5.53154e-05
5.22426e-05
4.84837e-05
4.25948e-05
3.64113e-05
3.18084e-05
2.78059e-05
2.37297e-05
1.85032e-05
1.56517e-05
8.4439e-06
2.84242e-06
3.09973e-06
3.38962e-06
3.68228e-06
3.95743e-06
4.20815e-06
4.43221e-06
4.62518e-06
4.78099e-06
4.89908e-06
4.99422e-06
5.1042e-06
5.29009e-06
5.62394e-06
6.16841e-06
6.95944e-06
8.00716e-06
9.2917e-06
1.07891e-05
1.24487e-05
1.41886e-05
1.60024e-05
1.79831e-05
2.01199e-05
2.22016e-05
2.39238e-05
2.50993e-05
2.568e-05
2.58139e-05
2.5724e-05
2.55099e-05
2.51229e-05
2.44921e-05
2.36218e-05
2.2584e-05
2.14703e-05
2.03635e-05
1.93275e-05
1.84072e-05
1.76329e-05
1.70263e-05
1.66061e-05
1.63922e-05
1.64104e-05
1.66913e-05
1.72775e-05
1.82586e-05