/*--------------------------------*- C++ -*----------------------------------*\
  =========                 |
  \\      /  F ield         | OpenFOAM: The Open Source CFD Toolbox
   \\    /   O peration     | Website:  https://openfoam.org
    \\  /    A nd           | Version:  10
     \\/     M anipulation  |
\*---------------------------------------------------------------------------*/
FoamFile
{
    format      ascii;
    class       volScalarField;
    location    "0.155";
    object      p;
}
// * * * * * * * * * * * * * * * * * * * * * * * * * * * * * * * * * * * * * //

dimensions      [0 2 -2 0 0 0 0];

internalField   nonuniform List<scalar> 
6820
(
5.994
-8.33732
-10.3369
-10.5183
-10.6739
-10.6137
-10.5809
-10.599
-10.6414
-10.6983
-10.7631
-10.8322
-10.904
-10.9776
-11.0528
-11.1292
-11.2067
-11.2851
-11.3645
-11.4445
-11.5253
-11.6065
-11.6882
-11.7702
-11.8524
-11.9345
-12.0161
-12.0965
-12.1761
-12.2514
-12.329
-12.3841
-12.4833
0.616813
-8.1341
-10.1415
-10.3965
-10.6041
-10.6076
-10.5962
-10.6207
-10.6633
-10.7174
-10.779
-10.8453
-10.9147
-10.9865
-11.0603
-11.1357
-11.2124
-11.2904
-11.3693
-11.4491
-11.5297
-11.6109
-11.6925
-11.7744
-11.8566
-11.9388
-12.0207
-12.1015
-12.1815
-12.2588
-12.3377
-12.4079
-12.5253
-1.46231
-6.92099
-9.34711
-9.94038
-10.3231
-10.4695
-10.5203
-10.5719
-10.6303
-10.6942
-10.7627
-10.8342
-10.9075
-10.9821
-11.0578
-11.1345
-11.212
-11.2904
-11.3696
-11.4494
-11.5299
-11.6109
-11.6925
-11.7744
-11.8567
-11.9389
-12.0209
-12.1027
-12.1843
-12.2644
-12.3465
-12.4232
-12.5185
-3.02867
-6.73664
-9.04865
-9.70009
-10.0841
-10.2938
-10.3948
-10.4784
-10.5598
-10.6388
-10.7169
-10.795
-10.8732
-10.9517
-11.0306
-11.1099
-11.1896
-11.2698
-11.3504
-11.4315
-11.5131
-11.595
-11.6773
-11.7599
-11.8429
-11.926
-12.0094
-12.0932
-12.1776
-12.2628
-12.3522
-12.4459
-12.5608
-4.31225
-6.77907
-8.73929
-9.42398
-9.8363
-10.1118
-10.2668
-10.381
-10.482
-10.5742
-10.6616
-10.7467
-10.8302
-10.9126
-10.9945
-11.0762
-11.1578
-11.2394
-11.3211
-11.4029
-11.4849
-11.5672
-11.6497
-11.7325
-11.8158
-11.8996
-11.9842
-12.0698
-12.1575
-12.2483
-12.3453
-12.4522
-12.5818
-5.26793
-6.90002
-8.55292
-9.26859
-9.69041
-9.98811
-10.1691
-10.2998
-10.4128
-10.5143
-10.6087
-10.6991
-10.7868
-10.8727
-10.9573
-11.041
-11.1241
-11.2068
-11.2892
-11.3715
-11.4538
-11.5362
-11.6187
-11.7016
-11.7849
-11.8691
-11.9543
-12.0414
-12.1315
-12.2263
-12.33
-12.4455
-12.5846
-6.01123
-7.1097
-8.46266
-9.1486
-9.55675
-9.86305
-10.0681
-10.2181
-10.3451
-10.4571
-10.5591
-10.655
-10.7469
-10.836
-10.9229
-11.0084
-11.0929
-11.1767
-11.2599
-11.3427
-11.4253
-11.5077
-11.5903
-11.6731
-11.7565
-11.8408
-11.9266
-12.0147
-12.1065
-12.2036
-12.3094
-12.4272
-12.5651
-6.59267
-7.33688
-8.42195
-9.06122
-9.45803
-9.76659
-9.98626
-10.1488
-10.2847
-10.4038
-10.5113
-10.6116
-10.7069
-10.7988
-10.888
-10.9754
-11.0613
-11.146
-11.2299
-11.3131
-11.3959
-11.4784
-11.5609
-11.6436
-11.7268
-11.811
-11.8967
-11.9849
-12.0768
-12.174
-12.2795
-12.3958
-12.5282
-7.0532
-7.56571
-8.42868
-9.00844
-9.38487
-9.68427
-9.90925
-10.0804
-10.2238
-10.3496
-10.4628
-10.5677
-10.6667
-10.7615
-10.853
-10.9421
-11.0293
-11.115
-11.1995
-11.2831
-11.3661
-11.4486
-11.5309
-11.6132
-11.696
-11.7797
-11.8649
-11.9525
-12.0437
-12.1397
-12.2427
-12.3545
-12.4783
-7.42262
-7.78207
-8.46358
-8.97741
-9.32981
-9.61707
-9.8433
-10.0203
-10.1692
-10.3
-10.4175
-10.5258
-10.6277
-10.7248
-10.8182
-10.9087
-10.997
-11.0835
-11.1686
-11.2524
-11.3354
-11.4177
-11.4996
-11.5814
-11.6635
-11.7464
-11.8306
-11.9168
-12.006
-12.0994
-12.1982
-12.3037
-12.4175
-7.72219
-7.9796
-8.51705
-8.96589
-9.29209
-9.56392
-9.78618
-9.96507
-10.117
-10.2512
-10.3721
-10.4836
-10.5881
-10.6874
-10.7827
-10.8747
-10.9641
-11.0514
-11.1369
-11.2209
-11.3038
-11.3858
-11.4672
-11.5483
-11.6295
-11.7111
-11.7938
-11.878
-11.9645
-12.0542
-12.1478
-12.246
-12.3493
-7.9674
-8.15597
-8.58052
-8.96811
-9.26666
-9.52144
-9.73691
-9.91544
-10.069
-10.2056
-10.3292
-10.4431
-10.5499
-10.651
-10.7478
-10.8409
-10.9312
-11.019
-11.1048
-11.1889
-11.2716
-11.3531
-11.4338
-11.5139
-11.5938
-11.6738
-11.7545
-11.8361
-11.9193
-12.0045
-12.0922
-12.1825
-12.2754
-8.16953
-8.31088
-8.64788
-8.98028
-9.25135
-9.48861
-9.69522
-9.87111
-10.0246
-10.1622
-10.2874
-10.4031
-10.5116
-10.6143
-10.7123
-10.8066
-10.8976
-10.9859
-11.0719
-11.156
-11.2383
-11.3192
-11.3991
-11.478
-11.5564
-11.6346
-11.7128
-11.7914
-11.8708
-11.9511
-12.0326
-12.115
-12.1979
-8.33689
-8.44527
-8.71476
-8.99882
-9.24335
-9.4631
-9.6596
-9.83128
-9.98345
-10.1212
-10.2475
-10.3645
-10.4743
-10.5783
-10.6774
-10.7725
-10.8641
-10.9528
-11.0388
-11.1226
-11.2045
-11.2847
-11.3634
-11.441
-11.5176
-11.5936
-11.6691
-11.7444
-11.8196
-11.8948
-11.9699
-12.0447
-12.1183
-8.47561
-8.56053
-8.77811
-9.02079
-9.2405
-9.44337
-9.62929
-9.79567
-9.94554
-10.0826
-10.2091
-10.3269
-10.4376
-10.5425
-10.6425
-10.7382
-10.8302
-10.9191
-11.0051
-11.0886
-11.1698
-11.2491
-11.3267
-11.4027
-11.4774
-11.551
-11.6236
-11.6953
-11.7663
-11.8363
-11.9053
-11.9727
-12.0379
-8.59027
-8.6582
-8.8359
-9.04374
-9.24081
-9.42777
-9.60305
-9.76347
-9.91031
-10.046
-10.1722
-10.2904
-10.4018
-10.5074
-10.6079
-10.7041
-10.7965
-10.8854
-10.9712
-11.0543
-11.1348
-11.2131
-11.2892
-11.3636
-11.4361
-11.5072
-11.5767
-11.6448
-11.7114
-11.7764
-11.8394
-11.9001
-11.9577
-8.68432
-8.73972
-8.88675
-9.06568
-9.24256
-9.41486
-9.5799
-9.73409
-9.87745
-10.0114
-10.1369
-10.2551
-10.3667
-10.4727
-10.5737
-10.6703
-10.7628
-10.8516
-10.9372
-11.0197
-11.0993
-11.1765
-11.2512
-11.3237
-11.394
-11.4624
-11.5289
-11.5933
-11.6557
-11.7158
-11.7734
-11.8279
-11.8788
-8.76033
-8.80637
-8.92979
-9.08502
-9.24424
-9.40331
-9.55876
-9.70677
-9.84644
-9.9783
-10.1029
-10.2207
-10.3325
-10.4387
-10.54
-10.6367
-10.7293
-10.818
-10.9031
-10.9849
-11.0637
-11.1395
-11.2127
-11.2832
-11.3513
-11.417
-11.4803
-11.5412
-11.5995
-11.655
-11.7074
-11.7565
-11.8014
-8.82021
-8.8592
-8.96444
-9.10046
-9.24454
-9.39193
-9.53867
-9.68082
-9.81684
-9.94656
-10.07
-10.1874
-10.2991
-10.4055
-10.507
-10.6038
-10.6963
-10.7847
-10.8694
-10.9505
-11.0282
-11.1028
-11.1743
-11.2429
-11.3087
-11.3717
-11.4319
-11.4893
-11.5438
-11.595
-11.6429
-11.687
-11.7269
-8.86536
-8.89901
-8.9903
-9.11094
-9.24232
-9.37964
-9.5187
-9.65551
-9.7881
-9.91574
-10.0381
-10.155
-10.2665
-10.373
-10.4745
-10.5713
-10.6636
-10.7517
-10.8358
-10.9161
-10.9928
-11.0659
-11.1358
-11.2024
-11.2658
-11.3262
-11.3834
-11.4375
-11.4882
-11.5356
-11.5792
-11.619
-11.6544
-8.89677
-8.92638
-9.00704
-9.11556
-9.23656
-9.36546
-9.49801
-9.63022
-9.7598
-9.88562
-10.007
-10.1235
-10.2349
-10.3414
-10.443
-10.5399
-10.6321
-10.7199
-10.8034
-10.8829
-10.9584
-11.0302
-11.0984
-11.1631
-11.2243
-11.2821
-11.3364
-11.3874
-11.4348
-11.4786
-11.5185
-11.5544
-11.5861
-8.91506
-8.94166
-9.01434
-9.11355
-9.22633
-9.34846
-9.47574
-9.60419
-9.73132
-9.85567
-9.97625
-10.0924
-10.2039
-10.3105
-10.4121
-10.5089
-10.6009
-10.6883
-10.7712
-10.8498
-10.9242
-10.9946
-11.061
-11.1237
-11.1826
-11.2379
-11.2895
-11.3375
-11.3818
-11.4222
-11.4588
-11.4914
-11.5198
-8.92053
-8.94496
-9.01184
-9.10418
-9.21081
-9.32787
-9.45125
-9.57699
-9.70247
-9.82597
-9.94628
-10.0626
-10.1743
-10.2812
-10.3831
-10.48
-10.572
-10.6591
-10.7415
-10.8193
-10.8926
-10.9616
-11.0264
-11.0872
-11.144
-11.1969
-11.246
-11.2912
-11.3326
-11.3701
-11.4037
-11.4333
-11.4588
-8.9132
-8.93614
-8.99908
-9.08672
-9.18913
-9.30277
-9.42359
-9.54768
-9.67227
-9.79548
-9.91589
-10.0325
-10.1447
-10.252
-10.3542
-10.4512
-10.5431
-10.6299
-10.7116
-10.7885
-10.8607
-10.9283
-10.9915
-11.0504
-11.105
-11.1556
-11.2022
-11.2448
-11.2834
-11.3182
-11.3491
-11.3761
-11.3991
-8.89276
-8.91484
-8.9755
-9.06048
-9.16065
-9.27269
-9.39262
-9.51649
-9.64145
-9.76541
-9.88681
-10.0045
-10.1177
-10.226
-10.3289
-10.4264
-10.5185
-10.6052
-10.6865
-10.7627
-10.8339
-10.9002
-10.9618
-11.0189
-11.0716
-11.12
-11.1642
-11.2044
-11.2406
-11.2728
-11.3012
-11.3258
-11.3466
-8.85861
-8.88038
-8.94026
-9.02445
-9.12418
-9.23625
-9.35668
-9.48145
-9.6076
-9.73296
-9.85581
-9.97491
-10.0894
-10.1987
-10.3024
-10.4004
-10.4927
-10.5792
-10.6601
-10.7355
-10.8056
-10.8706
-10.9306
-10.9859
-11.0366
-11.0828
-11.1248
-11.1626
-11.1964
-11.2262
-11.2523
-11.2747
-11.2935
-8.80978
-8.83185
-8.89257
-8.97809
-9.07967
-9.1941
-9.31728
-9.44507
-9.57433
-9.70274
-9.82847
-9.95016
-10.0669
-10.178
-10.2832
-10.3822
-10.475
-10.5617
-10.6423
-10.7171
-10.7863
-10.8501
-10.9086
-10.9622
-11.0109
-11.0551
-11.0949
-11.1305
-11.162
-11.1896
-11.2134
-11.2337
-11.2504
-8.74485
-8.76774
-8.83073
-8.91932
-9.02439
-9.1426
-9.26973
-9.40148
-9.53461
-9.66667
-9.79575
-9.92042
-10.0397
-10.1529
-10.2597
-10.3598
-10.4533
-10.5402
-10.6207
-10.6949
-10.7631
-10.8256
-10.8827
-10.9344
-10.9813
-11.0234
-11.061
-11.0943
-11.1235
-11.1489
-11.1706
-11.1888
-11.2038
-8.662
-8.6866
-8.7542
-8.84905
-8.96116
-9.08689
-9.22162
-9.36066
-9.50052
-9.63863
-9.773
-9.90216
-10.0251
-10.1413
-10.2503
-10.352
-10.4465
-10.5338
-10.6142
-10.6879
-10.7552
-10.8164
-10.8719
-10.922
-10.9668
-11.0068
-11.0422
-11.0733
-11.1002
-11.1233
-11.1427
-11.1587
-11.1714
-8.55838
-8.58501
-8.65842
-8.76071
-8.88068
-9.01454
-9.15745
-9.30442
-9.45175
-9.59672
-9.73722
-9.87172
-9.9992
-10.119
-10.2309
-10.3347
-10.4305
-10.5185
-10.599
-10.6723
-10.7388
-10.7988
-10.8528
-10.901
-10.9438
-10.9817
-11.0148
-11.0435
-11.0681
-11.0889
-11.1061
-11.1201
-11.131
-8.43114
-8.4622
-8.54677
-8.66341
-8.79849
-8.94736
-9.10439
-9.26402
-9.42238
-9.57677
-9.72516
-9.86611
-9.99874
-10.1226
-10.2374
-10.3432
-10.4403
-10.5288
-10.6093
-10.682
-10.7474
-10.806
-10.8582
-10.9044
-10.945
-10.9804
-11.011
-11.0372
-11.0591
-11.0773
-11.0918
-11.1032
-11.1114
-8.27374
-8.30769
-8.40221
-8.53135
-8.67968
-8.84282
-9.01459
-9.18851
-9.3602
-9.52663
-9.68556
-9.83545
-9.97544
-10.1051
-10.2244
-10.3334
-10.4326
-10.5223
-10.6031
-10.6754
-10.7399
-10.7972
-10.8476
-10.8917
-10.9301
-10.9631
-10.9911
-11.0147
-11.034
-11.0496
-11.0617
-11.0708
-11.077
-8.08411
-8.13087
-8.25233
-8.41154
-8.5875
-8.77529
-8.96834
-9.16007
-9.34654
-9.52516
-9.69402
-9.8519
-9.99818
-10.1327
-10.2555
-10.3669
-10.4674
-10.5576
-10.6381
-10.7095
-10.7725
-10.8278
-10.8759
-10.9173
-10.9528
-10.9827
-11.0075
-11.0276
-11.0436
-11.0557
-11.0643
-11.0697
-11.0723
-7.84069
-7.88657
-8.02169
-8.20115
-8.40174
-8.61793
-8.83983
-9.0584
-9.26881
-9.46807
-9.65408
-9.82576
-9.98282
-10.1254
-10.2541
-10.3694
-10.4723
-10.5637
-10.6442
-10.715
-10.7767
-10.8301
-10.876
-10.9149
-10.9477
-10.9747
-10.9965
-11.0137
-11.0265
-11.0356
-11.0413
-11.0441
-11.0443
-7.56156
-7.65509
-7.85803
-8.09065
-8.32855
-8.57438
-8.82023
-9.05812
-9.28473
-9.49775
-9.69537
-9.87668
-10.0415
-10.1901
-10.323
-10.4411
-10.5453
-10.6367
-10.7163
-10.7851
-10.8441
-10.8942
-10.9364
-10.9712
-10.9996
-11.022
-11.0391
-11.0513
-11.0592
-11.0633
-11.0638
-11.0614
-11.0564
-7.13695
-7.2045
-7.43802
-7.72765
-8.03272
-8.34623
-8.65151
-8.9387
-9.20513
-9.44915
-9.67007
-9.86843
-10.0454
-10.2022
-10.3405
-10.4617
-10.5674
-10.659
-10.7379
-10.8053
-10.8623
-10.9101
-10.9496
-10.9816
-11.0069
-11.0262
-11.04
-11.0488
-11.0531
-11.0535
-11.0503
-11.0442
-11.0358
-6.77114
-7.02324
-7.37788
-7.69422
-8.01087
-8.34236
-8.66532
-8.97095
-9.25751
-9.52142
-9.76038
-9.97408
-10.1631
-10.3288
-10.4726
-10.5964
-10.7022
-10.7918
-10.867
-10.9295
-10.9807
-11.022
-11.0546
-11.0795
-11.0975
-11.1094
-11.1159
-11.1174
-11.1143
-11.107
-11.0956
-11.081
-11.0632
-5.71625
-5.98145
-6.59016
-7.13323
-7.63103
-8.10236
-8.5228
-8.89484
-9.22601
-9.51909
-9.77711
-10.0035
-10.2012
-10.3728
-10.5209
-10.6476
-10.7552
-10.8456
-10.9207
-10.9823
-11.0319
-11.071
-11.1008
-11.1225
-11.137
-11.1452
-11.1475
-11.1445
-11.1363
-11.123
-11.1042
-11.0808
-11.0491
-5.7659
-6.32501
-6.76429
-7.12535
-7.59735
-8.08767
-8.54619
-8.9756
-9.36737
-9.71315
-10.0128
-10.2689
-10.4848
-10.6645
-10.8123
-10.9323
-11.0285
-11.1044
-11.1631
-11.2073
-11.2393
-11.261
-11.2741
-11.28
-11.2799
-11.2746
-11.2648
-11.2509
-11.2328
-11.2099
-11.1799
-11.1407
-11.0811
-0.822685
-4.51393
-5.83657
-6.50274
-7.2967
-7.96802
-8.50521
-8.97431
-9.38271
-9.73175
-10.0291
-10.2808
-10.4918
-10.6669
-10.8107
-10.9275
-11.0211
-11.0949
-11.1518
-11.1946
-11.2253
-11.246
-11.2582
-11.2635
-11.2628
-11.2573
-11.2477
-11.2347
-11.2191
-11.2005
-11.1814
-11.1573
-11.1378
-12.3379
-12.9847
-14.1444
-14.9643
-15.5018
-15.991
-16.5813
-17.2174
-17.6439
-17.4434
-16.2489
-13.9621
-10.8738
-7.55564
-4.63032
-2.56686
-1.62706
-1.86754
-3.2863
-5.82418
-9.40155
-13.8966
-19.021
-24.3381
-29.3537
-33.6001
-36.7024
-38.4333
-38.7737
-37.8997
-36.1909
-33.8433
-30.6379
-26.2709
-21.1186
-16.2343
-12.2581
-9.17646
-6.77236
-4.87103
-3.35814
-2.15397
-1.20006
-0.45324
0.116083
0.526064
0.784118
0.860368
0.718761
0.189318
-1.38871
-5.03857
-11.2471
-19.1309
-27.1884
-34.0673
-38.7261
-40.4596
-39.0275
-34.4818
-27.8596
-20.8271
-14.7927
-10.2416
-6.98932
-4.69575
-3.08641
-1.96845
-1.20484
-0.695253
-0.365184
-0.159241
-0.0368653
0.030643
0.0624924
0.0699886
0.0578956
0.0247684
-0.037158
-0.143836
-0.320791
-0.619326
-1.16554
-2.29551
-4.71697
-9.12892
-15.2893
-21.6659
-25.9019
-26.2547
-22.5107
-16.2693
-9.94457
-5.17275
-2.31758
-0.875934
-0.275437
0.0129801
-0.0438216
0.276434
-12.5528
-13.0774
-14.1091
-14.9192
-15.4731
-15.9687
-16.5229
-17.0669
-17.3498
-17.0047
-15.7333
-13.4963
-10.588
-7.51754
-4.80942
-2.87594
-1.99365
-2.26414
-3.63735
-6.09364
-9.49441
-13.6837
-18.4228
-23.3353
-27.9802
-31.9373
-34.8678
-36.5593
-36.9971
-36.3443
-34.8736
-32.6395
-29.4249
-25.087
-20.189
-15.6785
-11.9989
-9.09529
-6.78952
-4.94258
-3.45903
-2.26869
-1.31853
-0.568774
0.00796772
0.428209
0.699104
0.792289
0.664374
0.179971
-1.23328
-4.53289
-10.2343
-17.6129
-25.2667
-31.8537
-36.3304
-38.0014
-36.6593
-32.4005
-26.2657
-19.8134
-14.2796
-10.061
-6.99338
-4.79102
-3.22119
-2.11503
-1.34843
-0.828291
-0.484282
-0.263531
-0.126999
-0.0468887
-0.00451865
0.011087
0.00456783
-0.0256696
-0.0874503
-0.196751
-0.378605
-0.680885
-1.21694
-2.2842
-4.51917
-8.57259
-14.2538
-20.1699
-24.1359
-24.5312
-21.1328
-15.3902
-9.52843
-5.06729
-2.35863
-0.954866
-0.340637
-0.0312708
-0.0524187
0.253458
-12.6191
-13.1541
-14.0696
-14.8268
-15.3638
-15.8378
-16.3194
-16.7276
-16.8401
-16.3614
-15.0756
-12.9929
-10.3836
-7.6702
-5.27614
-3.53451
-2.68392
-2.89914
-4.21414
-6.53164
-9.72853
-13.6153
-17.9616
-22.4601
-26.7297
-30.3928
-33.1402
-34.7784
-35.3035
-34.8432
-33.5373
-31.3451
-28.0839
-23.8274
-19.2589
-15.1404
-11.7475
-9.01414
-6.80554
-5.01494
-3.56339
-2.38941
-1.44536
-0.694976
-0.113139
0.314852
0.595342
0.702322
0.586336
0.13389
-1.13447
-4.09086
-9.25875
-16.0729
-23.257
-29.5033
-33.7735
-35.3831
-34.1525
-30.2272
-24.6313
-18.7904
-13.7644
-9.87658
-6.99307
-4.88357
-3.35556
-2.26314
-1.49486
-0.964879
-0.607233
-0.371685
-0.220817
-0.127808
-0.0745739
-0.0504797
-0.0509953
-0.0778613
-0.138926
-0.250079
-0.435813
-0.740835
-1.26679
-2.27412
-4.32737
-8.02341
-13.2174
-18.6601
-22.3482
-22.7846
-19.7358
-14.5014
-9.11125
-4.9661
-2.40528
-1.03924
-0.410069
-0.0799812
-0.06246
0.225815
-12.7308
-13.2095
-13.9524
-14.6155
-15.114
-15.5361
-15.9154
-16.1732
-16.1313
-15.5731
-14.3587
-12.5238
-10.2916
-7.99084
-5.94993
-4.43399
-3.65469
-3.79324
-4.96201
-7.11008
-10.0765
-13.6699
-17.6482
-21.7346
-25.6183
-28.9777
-31.5324
-33.1151
-33.7145
-33.3897
-32.1552
-29.9182
-26.6165
-22.5407
-18.3646
-14.6309
-11.5039
-8.93172
-6.81996
-5.08814
-3.67126
-2.51617
-1.5806
-0.831925
-0.247396
0.185814
0.472612
0.589797
0.483863
0.0537715
-1.08735
-3.71117
-8.33132
-14.5335
-21.1898
-27.0509
-31.0935
-32.6458
-31.5545
-28.0115
-22.9979
-17.7823
-13.2568
-9.6907
-6.98826
-4.97281
-3.48902
-2.41241
-1.64385
-1.10486
-0.733945
-0.483651
-0.318273
-0.212045
-0.147519
-0.11446
-0.108516
-0.131515
-0.191232
-0.303382
-0.491913
-0.798465
-1.31367
-2.26288
-4.13968
-7.48364
-12.1908
-17.1575
-20.5666
-21.0438
-18.3454
-13.6212
-8.70374
-4.87357
-2.4583
-1.12858
-0.483207
-0.132832
-0.0739136
0.19376
-12.7749
-13.1782
-13.7625
-14.3133
-14.7422
-15.0876
-15.3595
-15.4892
-15.3443
-14.776
-13.6948
-12.1364
-10.2724
-8.35706
-6.65495
-5.38909
-4.73142
-4.83346
-5.8299
-7.75527
-10.4821
-13.7918
-17.4415
-21.1634
-24.6826
-27.7343
-30.0947
-31.6216
-32.2567
-31.9587
-30.6646
-28.3254
-25.0591
-21.2776
-17.5232
-14.1507
-11.2681
-8.84939
-6.8341
-5.16295
-3.78315
-2.64939
-1.72472
-0.980166
-0.395426
0.0404785
0.330501
0.454215
0.356807
-0.0568885
-1.09017
-3.40233
-7.47995
-13.0408
-19.1199
-24.5525
-28.3448
-29.8439
-28.9213
-25.8039
-21.3995
-16.8058
-12.763
-9.50569
-6.98013
-5.05945
-3.62195
-2.56306
-1.79558
-1.24838
-0.864566
-0.599556
-0.419471
-0.299681
-0.223448
-0.180955
-0.168037
-0.186594
-0.244275
-0.35651
-0.546649
-0.853415
-1.35715
-2.25047
-3.95858
-6.9621
-11.1922
-15.6881
-18.82
-19.3357
-16.9827
-12.7636
-8.31322
-4.79258
-2.51857
-1.22314
-0.560288
-0.189973
-0.0870455
0.157542
-12.7827
-13.1215
-13.577
-14.0204
-14.3756
-14.6494
-14.8359
-14.8778
-14.6782
-14.1326
-13.181
-11.8555
-10.2907
-8.68938
-7.26834
-6.22738
-5.71513
-5.84292
-6.71754
-8.40426
-10.8541
-13.8867
-17.2461
-20.6641
-23.8841
-26.6718
-28.8552
-30.2864
-30.8332
-30.4045
-28.963
-26.5774
-23.4901
-20.0893
-16.7468
-13.6997
-11.0399
-8.76763
-6.84842
-5.23961
-3.89913
-2.7891
-1.87773
-1.1397
-0.557215
-0.121087
0.169397
0.296048
0.20521
-0.19544
-1.14191
-3.17463
-6.73551
-11.6471
-17.1116
-22.0761
-25.5961
-27.048
-26.3228
-23.6619
-19.8723
-15.877
-12.2885
-9.32331
-6.96932
-5.14371
-3.7544
-2.7151
-1.95007
-1.39549
-0.999136
-0.719433
-0.524418
-0.390679
-0.302252
-0.249782
-0.229343
-0.242871
-0.297816
-0.409198
-0.599723
-0.905383
-1.39713
-2.23772
-3.78779
-6.46841
-10.2391
-14.2762
-17.1361
-17.6876
-15.6707
-11.9439
-7.94777
-4.72609
-2.58652
-1.32264
-0.641015
-0.251097
-0.101782
0.117602
-12.7534
-13.0398
-13.4023
-13.7608
-14.0527
-14.2666
-14.3879
-14.3688
-14.1369
-13.6194
-12.7788
-11.6461
-10.329
-8.98961
-7.80617
-6.94814
-6.54836
-6.70901
-7.50942
-8.99592
-11.1506
-13.8613
-16.9196
-20.0638
-23.0324
-25.6001
-27.5851
-28.814
-29.1636
-28.564
-27.0509
-24.7812
-22.0056
-19.0059
-16.0346
-13.2749
-10.8192
-8.68751
-6.86367
-5.31843
-4.01929
-2.93529
-2.03959
-1.31047
-0.732687
-0.298757
-0.010236
0.116152
0.029755
-0.358922
-1.23671
-3.0286
-6.11666
-10.3971
-15.231
-19.6995
-22.9308
-24.3418
-23.8344
-21.64
-18.4445
-15.0064
-11.8366
-9.145
-6.95676
-5.22618
-3.88672
-2.86875
-2.10748
-1.54633
-1.1378
-0.84339
-0.633175
-0.485057
-0.383919
-0.320902
-0.292333
-0.300169
-0.351615
-0.461167
-0.650805
-0.953992
-1.43321
-2.2246
-3.62916
-6.0092
-9.34576
-12.9436
-15.5408
-16.1248
-14.4295
-11.1752
-7.61384
-4.67614
-2.66239
-1.42691
-0.725305
-0.316047
-0.118146
0.0743919
-12.7029
-12.9484
-13.2411
-13.5288
-13.7626
-13.9234
-13.9924
-13.9305
-13.6842
-13.2031
-12.4651
-11.4992
-10.3925
-9.27563
-8.29521
-7.59301
-7.28519
-7.46392
-8.19401
-9.50652
-11.3834
-13.7436
-16.435
-19.2415
-21.9176
-24.229
-25.9566
-26.9635
-27.1532
-26.5055
-25.1011
-23.0918
-20.6676
-18.0308
-15.3795
-12.8739
-10.6068
-8.60992
-6.88028
-5.39949
-4.14351
-3.08774
-2.21003
-1.49212
-0.921365
-0.49193
-0.207386
-0.0838668
-0.167968
-0.544601
-1.36647
-2.95728
-5.62965
-9.32439
-13.5405
-17.5038
-20.4384
-21.8123
-21.528
-19.7832
-17.1356
-14.1997
-11.4092
-8.97192
-6.94337
-5.30745
-4.01926
-3.02424
-2.26802
-1.70109
-1.28069
-0.971513
-0.745769
-0.582772
-0.46833
-0.394118
-0.356762
-0.358208
-0.405368
-0.512097
-0.69955
-0.998868
-1.46499
-2.21083
-3.48361
-5.58922
-8.52362
-11.7091
-14.057
-14.6697
-13.2774
-10.469
-7.31677
-4.64417
-2.74614
-1.53565
-0.812938
-0.384481
-0.135979
0.0285208
-12.6366
-12.846
-13.0827
-13.3118
-13.4955
-13.6124
-13.6421
-13.5529
-13.305
-12.8642
-12.219
-11.3969
-10.4693
-9.54215
-8.73559
-8.16831
-7.93998
-8.13028
-8.79297
-9.94954
-11.579
-13.6097
-15.9179
-18.331
-20.6425
-22.6351
-24.1132
-24.9611
-25.1061
-24.5437
-23.3358
-21.5991
-19.4816
-17.1496
-14.7735
-12.4952
-10.4033
-8.53567
-6.89864
-5.48283
-4.2716
-3.24611
-2.38858
-1.68412
-1.12256
-0.699755
-0.420882
-0.302046
-0.38562
-0.749895
-1.52324
-2.94896
-5.26853
-8.44464
-12.0857
-15.5592
-18.1997
-19.5345
-19.4579
-18.1183
-15.9529
-13.4574
-11.0065
-8.80513
-6.93018
-5.38824
-4.1525
-3.18195
-2.43201
-1.86003
-1.42801
-1.10393
-0.862253
-0.6838
-0.555394
-0.469281
-0.42241
-0.416698
-0.458732
-0.561627
-0.745589
-1.03962
-1.49207
-2.19598
-3.3513
-5.21125
-7.78082
-10.5868
-12.7023
-13.3401
-12.2282
-9.83382
-7.05997
-4.63071
-2.83755
-1.64864
-0.903807
-0.456122
-0.15517
-0.0194023
-12.559
-12.7377
-12.9301
-13.1117
-13.2533
-13.3338
-13.3338
-13.2277
-12.9867
-12.5879
-12.0273
-11.3305
-10.5563
-9.79072
-9.13242
-8.68027
-8.51881
-8.71592
-9.31651
-10.3358
-11.7515
-13.4989
-15.4697
-17.5192
-19.4775
-21.1715
-22.4465
-23.1882
-23.3237
-22.8447
-21.8008
-20.2849
-18.4193
-16.3461
-14.2114
-12.1387
-10.2097
-8.46533
-6.91893
-5.56835
-4.40322
-3.40988
-2.57461
-1.88566
-1.3353
-0.920993
-0.64917
-0.53606
-0.620206
-0.971849
-1.70019
-2.98905
-5.01603
-7.75077
-10.8835
-13.9063
-16.2662
-17.5526
-17.6489
-16.6505
-14.8926
-12.7765
-10.6283
-8.64572
-6.91833
-5.46939
-4.28706
-3.34237
-2.59984
-2.02347
-1.58002
-1.2408
-0.982674
-0.788082
-0.644954
-0.546143
-0.488963
-0.475272
-0.511306
-0.609349
-0.788527
-1.07585
-1.51397
-2.17934
-3.2314
-4.87563
-7.1212
-9.58525
-11.4887
-12.1482
-11.2917
-9.27483
-6.84499
-4.6356
-2.93633
-1.76577
-0.997835
-0.530649
-0.175554
-0.0687037
-12.4745
-12.6264
-12.7826
-12.9251
-13.0315
-13.0828
-13.0616
-12.9473
-12.7193
-12.3629
-11.8788
-11.2905
-10.647
-10.0184
-9.48578
-9.13106
-9.02531
-9.22587
-9.76968
-10.6677
-11.8986
-13.405
-15.0941
-16.843
-18.5104
-19.9553
-21.0444
-21.6729
-21.7811
-21.3607
-20.4464
-19.1116
-17.4595
-15.6113
-13.6907
-11.8042
-10.0264
-8.39929
-6.94129
-5.65584
-4.53792
-3.57841
-2.76729
-2.09577
-1.55837
-1.15415
-0.890459
-0.783486
-0.868403
-1.207
-1.89175
-3.06332
-4.84842
-7.21623
-9.91739
-12.5444
-14.6453
-15.8691
-16.0922
-15.3653
-13.9432
-12.1521
-10.2742
-8.49483
-6.90901
-5.55185
-4.42369
-3.50612
-2.77206
-2.19187
-1.73702
-1.38232
-1.1071
-0.895561
-0.736849
-0.62445
-0.556084
-0.53353
-0.562641
-0.65481
-0.827942
-1.10715
-1.53021
-2.15998
-3.1222
-4.58035
-6.54422
-8.70707
-10.4214
-11.0997
-10.472
-8.79356
-6.67135
-4.65809
-3.0423
-1.88712
-1.09507
-0.607803
-0.197041
-0.118746
-12.3853
-12.5141
-12.6408
-12.7519
-12.8299
-12.8586
-12.8228
-12.7066
-12.4952
-12.1799
-11.7644
-11.2703
-10.7383
-10.2258
-9.79927
-9.52635
-9.46596
-9.66617
-10.1573
-10.9469
-12.0155
-13.313
-14.7603
-16.2535
-17.6736
-18.8987
-19.8184
-20.3457
-20.4273
-20.05
-19.2397
-18.0576
-16.5904
-14.9394
-13.2091
-11.4912
-9.85346
-8.33781
-6.96573
-5.74506
-4.67517
-3.75092
-2.96564
-2.31325
-1.79035
-1.39748
-1.14265
-1.04178
-1.12685
-1.45158
-2.09328
-3.16028
-4.74187
-6.80497
-9.14577
-11.4345
-13.3017
-14.4492
-14.7544
-14.2372
-13.0908
-11.5796
-9.94418
-8.35362
-6.90346
-5.63669
-4.56331
-3.67401
-2.94935
-2.36577
-1.89945
-1.52873
-1.2356
-1.00616
-0.830862
-0.703873
-0.623361
-0.590999
-0.61223
-0.697505
-0.863383
-1.13309
-1.5403
-2.13691
-3.02135
-4.32144
-6.04527
-7.94867
-9.49823
-10.1937
-9.76771
-8.38778
-6.53687
-4.69721
-3.15562
-2.01305
-1.1957
-0.687362
-0.219573
-0.168897
-12.294
-12.4027
-12.5053
-12.5911
-12.6464
-12.658
-12.613
-12.4993
-12.3067
-12.0306
-11.6765
-11.2638
-10.8266
-10.4119
-10.0741
-9.86879
-9.84485
-10.0419
-10.4844
-11.1773
-12.1026
-13.2173
-14.4538
-15.7244
-16.9289
-17.9641
-18.7377
-19.1741
-19.2262
-18.8812
-18.1592
-17.1094
-15.803
-14.3251
-12.7639
-11.1989
-9.6911
-8.28105
-6.99221
-5.83565
-4.81434
-3.92655
-3.16856
-2.53676
-2.02964
-1.64905
-1.40348
-1.30833
-1.39236
-1.70192
-2.30068
-3.2717
-4.67722
-6.48282
-8.52018
-10.5201
-12.1777
-13.2412
-13.595
-13.2407
-12.3235
-11.0552
-9.63819
-8.22323
-6.90298
-5.72511
-4.70701
-3.84701
-3.13257
-2.54589
-2.06781
-1.68035
-1.36829
-1.11978
-0.926732
-0.784041
-0.69033
-0.647155
-0.659512
-0.736882
-0.894369
-1.15329
-1.54375
-2.10904
-2.92609
-4.09335
-5.61626
-7.30102
-8.71105
-9.42261
-9.17212
-8.05196
-6.43831
-4.75229
-3.27694
-2.14425
-1.30003
-0.769194
-0.243188
-0.218617
-12.2019
-12.2935
-12.3763
-12.4419
-12.4798
-12.4789
-12.4291
-12.3211
-12.1483
-11.9088
-11.6092
-11.2665
-10.9097
-10.5771
-10.3131
-10.1632
-10.1677
-10.3589
-10.7561
-11.3625
-12.1616
-13.1162
-14.169
-15.246
-16.263
-17.1331
-17.7778
-18.133
-18.158
-17.8397
-17.1924
-16.2558
-15.089
-13.7633
-12.353
-10.9268
-9.53928
-8.22911
-7.02062
-5.92724
-4.95476
-4.10434
-3.37484
-2.76483
-2.2745
-1.90683
-1.67054
-1.58042
-1.66193
-1.95467
-2.51043
-3.39197
-4.64152
-6.22465
-8.00145
-9.75112
-11.2211
-12.1998
-12.5814
-12.3566
-11.6324
-10.5763
-9.35628
-8.10472
-6.9089
-5.8185
-4.85612
-4.02636
-3.3228
-2.73312
-2.24277
-1.83758
-1.50531
-1.23634
-1.02414
-0.86451
-0.756445
-0.701395
-0.703867
-0.772338
-0.920382
-1.16734
-1.54016
-2.07539
-2.83347
-3.88964
-5.24663
-6.75072
-8.0467
-8.77304
-8.67382
-7.77824
-6.37224
-4.82338
-3.4076
-2.28176
-1.40856
-0.853253
-0.267991
-0.267425
-12.1105
-12.1876
-12.2544
-12.3041
-12.3286
-12.3192
-12.2677
-12.1676
-12.0146
-11.8088
-11.5571
-11.2746
-10.9855
-10.7213
-10.5182
-10.4131
-10.4391
-10.6221
-10.9774
-11.5065
-12.1944
-13.0093
-13.9024
-14.8115
-15.6655
-16.3919
-16.9241
-17.2076
-17.2069
-16.9091
-16.325
-15.4863
-14.4414
-13.2498
-11.9743
-10.6741
-9.39789
-8.18198
-7.05082
-6.01939
-5.09571
-4.28327
-3.58318
-2.9959
-2.52308
-2.16868
-1.94141
-1.85537
-1.9327
-2.20691
-2.71954
-3.51713
-4.62681
-6.01496
-7.56488
-9.09538
-10.3978
-11.2953
-11.692
-11.5713
-11.0104
-10.1402
-9.0983
-7.99908
-6.92267
-5.91841
-5.0122
-4.21356
-3.52141
-2.92859
-2.42517
-2.00092
-1.64683
-1.35573
-1.12276
-0.944769
-0.821088
-0.753045
-0.74461
-0.80322
-0.940869
-1.17485
-1.52919
-2.03512
-2.74073
-3.70356
-4.92444
-6.28141
-7.48537
-8.227
-8.25839
-7.55801
-6.3362
-4.91175
-3.54966
-2.42696
-1.52199
-0.939623
-0.294087
-0.31492
-12.0206
-12.0856
-12.1393
-12.1767
-12.1914
-12.1765
-12.126
-12.035
-11.9012
-11.7259
-11.516
-11.2849
-11.0526
-10.8451
-10.6917
-10.6223
-10.6637
-10.8366
-11.1529
-11.6128
-12.2029
-12.8956
-13.6498
-14.4132
-15.1261
-15.7278
-16.1618
-16.3821
-16.3578
-16.0769
-15.5466
-14.7924
-13.8539
-12.7807
-11.6258
-10.4401
-9.26677
-8.13961
-7.08262
-6.11168
-5.23645
-4.46233
-3.79227
-3.22837
-2.77351
-2.43242
-2.2137
-2.13064
-2.20198
-2.45601
-2.92547
-3.6441
-4.62772
-5.84402
-7.19553
-8.53378
-9.68679
-10.5079
-10.9105
-10.8736
-10.4513
-9.74427
-8.86399
-7.90729
-6.94583
-6.02665
-5.17715
-4.41044
-3.73008
-3.13372
-2.61606
-2.17103
-1.79309
-1.47785
-1.2222
-1.02423
-0.883548
-0.801346
-0.780985
-0.828823
-0.955239
-1.17541
-1.51057
-1.98763
-2.64553
-3.52883
-4.63762
-5.8754
-7.00656
-7.76429
-7.91075
-7.38399
-6.32967
-5.01998
-3.70583
-2.58163
-1.64121
-1.02853
-0.321561
-0.360702
-11.9334
-11.9881
-12.0315
-12.0595
-12.0672
-12.0493
-12.0013
-11.92
-11.8043
-11.6565
-11.4829
-11.2952
-11.1103
-10.9492
-10.8359
-10.7943
-10.8461
-11.0075
-11.2876
-11.6856
-12.1896
-12.7758
-13.4095
-14.0466
-14.6375
-15.131
-15.4798
-15.6446
-15.5989
-15.3315
-14.8473
-14.1663
-13.321
-12.3526
-11.3057
-10.2239
-9.14567
-8.10191
-7.11581
-6.20365
-5.37625
-4.64046
-4.00077
-3.46062
-3.0239
-2.69593
-2.48503
-2.40347
-2.46727
-2.69967
-3.12607
-3.77028
-4.63988
-5.70427
-6.88202
-8.0516
-9.07138
-9.82108
-10.2226
-10.2531
-9.94885
-9.38597
-8.65299
-7.83029
-6.98005
-6.14528
-5.3532
-4.61927
-3.95091
-3.35028
-2.81677
-2.34872
-1.94443
-1.60258
-1.32204
-1.10221
-0.943017
-0.845442
-0.812162
-0.848389
-0.962861
-1.16861
-1.48411
-1.93258
-2.54616
-3.36017
-4.3753
-5.5155
-6.58944
-7.36589
-7.61837
-7.252
-6.35436
-5.15184
-3.87955
-2.74801
-1.76741
-1.12026
-0.35058
-0.404329
-11.8489
-11.8952
-11.9304
-11.9512
-11.9541
-11.9351
-11.8908
-11.8193
-11.7205
-11.5968
-11.4544
-11.3033
-11.1575
-11.0342
-10.9528
-10.9324
-10.9902
-11.139
-11.3854
-11.7281
-12.1562
-12.6496
-13.1788
-13.7069
-14.1925
-14.5926
-14.8676
-14.9841
-14.9194
-14.6632
-14.2186
-13.6013
-12.8379
-11.9622
-11.0121
-10.0248
-9.03431
-8.06875
-7.15017
-6.29488
-5.51439
-4.81667
-4.20738
-3.69108
-3.27242
-2.95713
-2.75319
-2.6717
-2.72634
-2.93583
-3.31951
-3.8935
-4.65956
-5.58918
-6.61435
-7.63572
-8.53758
-9.22011
-9.61582
-9.70057
-9.49747
-9.06264
-8.46487
-7.76904
-7.02715
-6.27669
-5.54307
-4.84284
-4.18652
-3.58052
-3.02898
-2.53504
-2.10127
-1.72976
-1.42176
-1.17794
-0.998578
-0.884377
-0.837225
-0.861106
-0.963073
-1.154
-1.44964
-1.86992
-2.44173
-3.19397
-4.1291
-5.188
-6.21768
-7.01808
-7.37396
-7.16154
-6.41392
-5.31216
-4.07506
-2.92893
-1.90212
-1.21519
-0.381328
-0.445283
-11.7682
-11.8077
-11.8364
-11.852
-11.8519
-11.833
-11.7931
-11.7311
-11.6474
-11.5449
-11.429
-11.3084
-11.1946
-11.1017
-11.0451
-11.0403
-11.1006
-11.236
-11.4513
-11.7444
-12.1059
-12.5185
-12.9572
-13.3913
-13.786
-14.1057
-14.3169
-14.3916
-14.3103
-14.0636
-13.6532
-13.0915
-12.3999
-11.6067
-10.7434
-9.84203
-8.93238
-8.03997
-7.1855
-6.38496
-5.65022
-4.99001
-4.41089
-3.91823
-3.51732
-3.21409
-3.01611
-2.93327
-2.97726
-3.16278
-3.50424
-4.01195
-4.6837
-5.49329
-6.38404
-7.27475
-8.07137
-8.69218
-9.07877
-9.20751
-9.09173
-8.77163
-8.29908
-7.7245
-7.08918
-6.42369
-5.75004
-5.08461
-4.44022
-3.82727
-3.25485
-2.73133
-2.26418
-1.85933
-1.52078
-1.25052
-1.04919
-0.91708
-0.85517
-0.866097
-0.955171
-1.1311
-1.40698
-1.79969
-2.33196
-3.0283
-3.89366
-4.88482
-5.88217
-6.71387
-7.17494
-7.11457
-6.51335
-5.50698
-4.29777
-3.12801
-2.04711
-1.31387
-0.413964
-0.483019
-11.6907
-11.7245
-11.7482
-11.7601
-11.7581
-11.7403
-11.705
-11.6519
-11.5819
-11.4976
-11.404
-11.3085
-11.2206
-11.1517
-11.1142
-11.1201
-11.1802
-11.3018
-11.4881
-11.737
-12.0401
-12.3823
-12.743
-13.0962
-13.413
-13.6636
-13.8201
-13.8589
-13.7633
-13.5249
-13.1444
-12.6314
-12.0033
-11.2833
-10.498
-9.67473
-8.83955
-8.01543
-7.22161
-6.47353
-5.78314
-5.15962
-4.61014