/*--------------------------------*- C++ -*----------------------------------*\
  =========                 |
  \\      /  F ield         | OpenFOAM: The Open Source CFD Toolbox
   \\    /   O peration     | Website:  https://openfoam.org
    \\  /    A nd           | Version:  10
     \\/     M anipulation  |
\*---------------------------------------------------------------------------*/
FoamFile
{
    format      ascii;
    class       volVectorField;
    location    "0.155";
    object      U;
}
// * * * * * * * * * * * * * * * * * * * * * * * * * * * * * * * * * * * * * //

dimensions      [0 1 -1 0 0 0 0];

internalField   nonuniform List<vector> 
6820
(
(5.57358 0.459143 0)
(3.88313 0.245911 0)
(2.58953 0.00879088 0)
(1.95784 -0.0642001 0)
(1.73277 -0.059515 0)
(1.62196 -0.0340579 0)
(1.55737 -0.015404 0)
(1.51184 -0.00534068 0)
(1.47371 -0.000756206 0)
(1.44085 0.000737183 0)
(1.41273 0.000778923 0)
(1.38888 0.000254087 0)
(1.36883 -0.000428302 0)
(1.35207 -0.00108744 0)
(1.33816 -0.00165387 0)
(1.32671 -0.00211235 0)
(1.31739 -0.00247153 0)
(1.30996 -0.00274794 0)
(1.30423 -0.00295848 0)
(1.30005 -0.00311613 0)
(1.2973 -0.00323249 0)
(1.29592 -0.00329797 0)
(1.29582 -0.00337947 0)
(1.29693 -0.0035009 0)
(1.29916 -0.00358754 0)
(1.30249 -0.00366572 0)
(1.30675 -0.00366308 0)
(1.31199 -0.0035859 0)
(1.31748 -0.00353145 0)
(1.32441 -0.0028773 0)
(1.3271 -0.00288557 0)
(1.33874 0.00522426 0)
(1.30453 -0.015507 0)
(7.66981 0.863872 0)
(7.71739 0.890727 0)
(7.00052 0.598318 0)
(6.19843 0.34737 0)
(5.58563 0.179412 0)
(5.14159 0.0928796 0)
(4.82529 0.0524864 0)
(4.59729 0.0339734 0)
(4.4266 0.0254716 0)
(4.29395 0.0211206 0)
(4.18765 0.0184469 0)
(4.10037 0.0165078 0)
(4.02744 0.0149265 0)
(3.96576 0.0135355 0)
(3.91314 0.0122479 0)
(3.86804 0.0110165 0)
(3.82927 0.00981532 0)
(3.79598 0.00862893 0)
(3.76748 0.00744727 0)
(3.74325 0.00626448 0)
(3.72286 0.00507399 0)
(3.70596 0.00387895 0)
(3.69227 0.00267076 0)
(3.68157 0.00144277 0)
(3.67365 0.000218583 0)
(3.66837 -0.000949193 0)
(3.66553 -0.0021563 0)
(3.66491 -0.00318997 0)
(3.66621 -0.0041119 0)
(3.66933 -0.00412443 0)
(3.67331 -0.00453521 0)
(3.68018 0.000345129 0)
(3.68783 0.00108139 0)
(7.56352 0.520266 0)
(8.22522 0.663418 0)
(8.46507 0.575928 0)
(8.36462 0.458295 0)
(8.12951 0.344165 0)
(7.85357 0.259252 0)
(7.58455 0.199569 0)
(7.34222 0.156713 0)
(7.12987 0.125517 0)
(6.94553 0.102283 0)
(6.78594 0.084516 0)
(6.6477 0.0706274 0)
(6.52773 0.0595675 0)
(6.42339 0.0506167 0)
(6.33245 0.0432517 0)
(6.25304 0.0370791 0)
(6.18363 0.0318033 0)
(6.12293 0.0272023 0)
(6.06988 0.0231085 0)
(6.0236 0.0193946 0)
(5.98336 0.0159621 0)
(5.94855 0.0127357 0)
(5.91867 0.00966952 0)
(5.89328 0.00673633 0)
(5.87202 0.00389817 0)
(5.85455 0.00117988 0)
(5.84054 -0.00145522 0)
(5.82978 -0.00387392 0)
(5.82194 -0.00601882 0)
(5.8169 -0.00741459 0)
(5.81411 -0.00834005 0)
(5.81346 -0.00637072 0)
(5.81498 -0.00535192 0)
(7.43337 0.341041 0)
(7.88468 0.514338 0)
(8.24343 0.489332 0)
(8.44213 0.429421 0)
(8.54206 0.358123 0)
(8.57256 0.297496 0)
(8.55819 0.251377 0)
(8.51853 0.215882 0)
(8.46461 0.187991 0)
(8.40283 0.16543 0)
(8.33734 0.146599 0)
(8.27088 0.130526 0)
(8.20521 0.116574 0)
(8.14166 0.104295 0)
(8.08106 0.0933833 0)
(8.02387 0.0836093 0)
(7.97039 0.0747817 0)
(7.92072 0.0667389 0)
(7.8749 0.0593438 0)
(7.83289 0.0524806 0)
(7.79462 0.0460511 0)
(7.75998 0.039976 0)
(7.72886 0.0341919 0)
(7.70114 0.0286478 0)
(7.67669 0.0233092 0)
(7.65539 0.0181599 0)
(7.63711 0.0132586 0)
(7.62173 0.00866491 0)
(7.6091 0.00444955 0)
(7.59914 0.00096457 0)
(7.59181 -0.00175242 0)
(7.58733 -0.00231113 0)
(7.58713 -0.00105586 0)
(7.39682 0.25098 0)
(7.68001 0.420899 0)
(7.92346 0.403733 0)
(8.07747 0.353667 0)
(8.18801 0.298874 0)
(8.27039 0.253148 0)
(8.33142 0.219171 0)
(8.37847 0.193267 0)
(8.41551 0.172681 0)
(8.44462 0.155753 0)
(8.46737 0.141376 0)
(8.48498 0.128871 0)
(8.49843 0.117811 0)
(8.5083 0.107889 0)
(8.5152 0.0988689 0)
(8.51973 0.0905673 0)
(8.52239 0.0828396 0)
(8.52362 0.0755694 0)
(8.52381 0.0686611 0)
(8.52327 0.0620361 0)
(8.52228 0.055629 0)
(8.52108 0.0493872 0)
(8.51986 0.0432709 0)
(8.51881 0.0372529 0)
(8.51807 0.0313183 0)
(8.51777 0.0254759 0)
(8.51803 0.0197601 0)
(8.519 0.0142334 0)
(8.52079 0.00899703 0)
(8.52366 0.00430445 0)
(8.5277 0.00030547 0)
(8.53362 -0.00240427 0)
(8.54233 -0.00416167 0)
(7.37403 0.18063 0)
(7.57415 0.335958 0)
(7.76094 0.342057 0)
(7.87553 0.312786 0)
(7.95187 0.273536 0)
(8.00741 0.235308 0)
(8.04907 0.203899 0)
(8.08349 0.178769 0)
(8.11415 0.158438 0)
(8.14221 0.141752 0)
(8.16823 0.127749 0)
(8.19254 0.115712 0)
(8.21531 0.105172 0)
(8.23679 0.095807 0)
(8.25709 0.0873504 0)
(8.2763 0.0795977 0)
(8.29449 0.0723925 0)
(8.31171 0.0656113 0)
(8.32805 0.0591544 0)
(8.34356 0.05294 0)
(8.35832 0.0469008 0)
(8.37238 0.0409822 0)
(8.3858 0.0351418 0)
(8.39867 0.0293484 0)
(8.41104 0.023583 0)
(8.42299 0.0178435 0)
(8.43462 0.0121513 0)
(8.44605 0.00655838 0)
(8.45743 0.00112464 0)
(8.46904 -0.0040087 0)
(8.48133 -0.00878396 0)
(8.49514 -0.0130203 0)
(8.51102 -0.0171417 0)
(7.35905 0.132703 0)
(7.50333 0.272985 0)
(7.65577 0.294728 0)
(7.75587 0.277889 0)
(7.8221 0.248248 0)
(7.86921 0.216279 0)
(7.90283 0.188534 0)
(7.92868 0.16575 0)
(7.95049 0.14694 0)
(7.96986 0.131224 0)
(7.98767 0.117857 0)
(8.00445 0.106262 0)
(8.02047 0.0960311 0)
(8.03591 0.0868651 0)
(8.05086 0.0785432 0)
(8.06541 0.0708947 0)
(8.07958 0.0637816 0)
(8.09341 0.057089 0)
(8.10691 0.0507207 0)
(8.12011 0.0445957 0)
(8.13301 0.0386457 0)
(8.14563 0.0328145 0)
(8.15799 0.0270562 0)
(8.1701 0.0213353 0)
(8.18201 0.0156258 0)
(8.19375 0.00991553 0)
(8.2054 0.00420074 0)
(8.21706 -0.00150557 0)
(8.22892 -0.00719383 0)
(8.24126 -0.0128513 0)
(8.25435 -0.0185826 0)
(8.26884 -0.024428 0)
(8.28508 -0.0309536 0)
(7.34965 0.0989969 0)
(7.45344 0.22036 0)
(7.57654 0.250084 0)
(7.66533 0.243273 0)
(7.72723 0.223523 0)
(7.77307 0.199287 0)
(7.80667 0.176351 0)
(7.83232 0.156347 0)
(7.85342 0.139064 0)
(7.87165 0.12413 0)
(7.88797 0.111147 0)
(7.903 0.0997272 0)
(7.91712 0.0895595 0)
(7.93057 0.0804041 0)
(7.94351 0.072068 0)
(7.95603 0.0643895 0)
(7.96822 0.0572335 0)
(7.98014 0.0504871 0)
(7.99181 0.0440558 0)
(8.00329 0.0378593 0)
(8.01458 0.0318296 0)
(8.02573 0.0259088 0)
(8.03676 0.0200482 0)
(8.0477 0.0142065 0)
(8.05859 0.00834944 0)
(8.06947 0.00244822 0)
(8.08044 -0.00352322 0)
(8.09157 -0.00959068 0)
(8.103 -0.0157994 0)
(8.11495 -0.0222028 0)
(8.12765 -0.0289457 0)
(8.14152 -0.0362267 0)
(8.15678 -0.0445772 0)
(7.34381 0.0750311 0)
(7.41922 0.17838 0)
(7.51806 0.212606 0)
(7.5955 0.213377 0)
(7.65209 0.20071 0)
(7.69565 0.181949 0)
(7.72889 0.162484 0)
(7.75492 0.144652 0)
(7.77653 0.128809 0)
(7.79525 0.114856 0)
(7.81197 0.102564 0)
(7.82728 0.0916478 0)
(7.84157 0.081852 0)
(7.85509 0.0729691 0)
(7.86801 0.064827 0)
(7.88045 0.0572813 0)
(7.8925 0.0502116 0)
(7.90422 0.0435161 0)
(7.91567 0.0371075 0)
(7.92689 0.0309102 0)
(7.93791 0.0248581 0)
(7.94877 0.0188933 0)
(7.95949 0.012965 0)
(7.97012 0.0070275 0)
(7.9807 0.00103897 0)
(7.99127 -0.00504132 0)
(8.00192 -0.0112548 0)
(8.01271 -0.0176501 0)
(8.02379 -0.0243007 0)
(8.0353 -0.0313109 0)
(8.0474 -0.0388727 0)
(8.06037 -0.047262 0)
(8.07428 -0.0569328 0)
(7.34017 0.0577769 0)
(7.39554 0.144674 0)
(7.47472 0.179965 0)
(7.54169 0.185685 0)
(7.59302 0.178334 0)
(7.63397 0.164397 0)
(7.66636 0.14853 0)
(7.69229 0.133192 0)
(7.71403 0.119047 0)
(7.73293 0.106215 0)
(7.74982 0.094649 0)
(7.76528 0.0842013 0)
(7.77967 0.0747062 0)
(7.79327 0.0660129 0)
(7.80624 0.0579873 0)
(7.8187 0.0505099 0)
(7.83075 0.0434748 0)
(7.84245 0.0367889 0)
(7.85384 0.0303698 0)
(7.86498 0.0241441 0)
(7.87591 0.0180467 0)
(7.88664 0.0120185 0)
(7.89722 0.00600617 0)
(7.90768 -4.07565e-05 0)
(7.91807 -0.00617134 0)
(7.92842 -0.0124355 0)
(7.93881 -0.0188896 0)
(7.94931 -0.0256041 0)
(7.96 -0.0326771 0)
(7.97101 -0.0402414 0)
(7.98242 -0.0484968 0)
(7.99438 -0.057724 0)
(8.00685 -0.068279 0)
(7.33788 0.0451139 0)
(7.37906 0.117557 0)
(7.44253 0.151882 0)
(7.50017 0.160938 0)
(7.54651 0.157665 0)
(7.58469 0.147613 0)
(7.61587 0.134711 0)
(7.64142 0.121409 0)
(7.66309 0.108649 0)
(7.68208 0.0967589 0)
(7.6991 0.08584 0)
(7.71468 0.0758501 0)
(7.72919 0.0666873 0)
(7.74287 0.0582392 0)
(7.75589 0.0503955 0)
(7.76837 0.0430522 0)
(7.78041 0.0361137 0)
(7.79208 0.0294942 0)
(7.80342 0.0231162 0)
(7.81447 0.0169097 0)
(7.82529 0.0108109 0)
(7.83589 0.00476077 0)
(7.84632 -0.00129608 0)
(7.8566 -0.0074133 0)
(7.86677 -0.0136452 0)
(7.87689 -0.0200499 0)
(7.88698 -0.0266943 0)
(7.89712 -0.0336602 0)
(7.90735 -0.0410539 0)
(7.91776 -0.0490148 0)
(7.92838 -0.0577328 0)
(7.93925 -0.0674661 0)
(7.95029 -0.0784823 0)
(7.33643 0.0356372 0)
(7.36748 0.0956781 0)
(7.41847 0.127707 0)
(7.46788 0.138604 0)
(7.50949 0.138158 0)
(7.5449 0.131092 0)
(7.57472 0.120722 0)
(7.59975 0.109342 0)
(7.6213 0.0980104 0)
(7.64032 0.0871684 0)
(7.65746 0.0770057 0)
(7.67317 0.0675594 0)
(7.68779 0.0587873 0)
(7.70156 0.0506189 0)
(7.71464 0.0429742 0)
(7.72716 0.0357709 0)
(7.73921 0.0289293 0)
(7.75085 0.0223738 0)
(7.76214 0.0160342 0)
(7.77313 0.00984457 0)
(7.78384 0.00374312 0)
(7.79431 -0.00232826 0)
(7.80457 -0.00842636 0)
(7.81466 -0.0146071 0)
(7.82461 -0.0209284 0)
(7.83444 -0.0274529 0)
(7.8442 -0.0342528 0)
(7.85392 -0.0414139 0)
(7.86363 -0.0490437 0)
(7.87337 -0.0572769 0)
(7.88314 -0.0662825 0)
(7.8929 -0.076279 0)
(7.90255 -0.0874541 0)
(7.33549 0.0283934 0)
(7.35926 0.077912 0)
(7.40041 0.10689 0)
(7.44267 0.118536 0)
(7.47991 0.120017 0)
(7.5126 0.115252 0)
(7.54092 0.106985 0)
(7.56527 0.0972633 0)
(7.58654 0.0871769 0)
(7.60551 0.0772498 0)
(7.6227 0.0677501 0)
(7.6385 0.0587856 0)
(7.65323 0.0503681 0)
(7.6671 0.0424643 0)
(7.68027 0.0350196 0)
(7.69284 0.0279692 0)
(7.70492 0.0212447 0)
(7.71656 0.0147786 0)
(7.72782 0.00850547 0)
(7.73874 0.00236276 0)
(7.74936 -0.00370957 0)
(7.7597 -0.00976867 0)
(7.7698 -0.0158714 0)
(7.77969 -0.022075 0)
(7.78939 -0.0284388 0)
(7.79892 -0.0350274 0)
(7.80831 -0.0419137 0)
(7.81758 -0.0491822 0)
(7.82673 -0.0569339 0)
(7.83578 -0.0652893 0)
(7.84468 -0.0743891 0)
(7.85338 -0.084408 0)
(7.86176 -0.0954672 0)
(7.33486 0.0227367 0)
(7.35336 0.0633746 0)
(7.38677 0.0889421 0)
(7.42291 0.100502 0)
(7.45616 0.103131 0)
(7.48622 0.100007 0)
(7.51299 0.0933886 0)
(7.53653 0.0850623 0)
(7.55743 0.0760923 0)
(7.57627 0.0670408 0)
(7.59347 0.0582178 0)
(7.60934 0.0497745 0)
(7.62416 0.0417599 0)
(7.63812 0.0341691 0)
(7.65136 0.0269688 0)
(7.66399 0.0201102 0)
(7.67609 0.0135369 0)
(7.68773 0.00719028 0)
(7.69895 0.0010112 0)
(7.7098 -0.00505844 0)
(7.72032 -0.0110754 0)
(7.73053 -0.0170956 0)
(7.74045 -0.0231745 0)
(7.75012 -0.0293685 0)
(7.75955 -0.0357365 0)
(7.76875 -0.0423416 0)
(7.77775 -0.0492535 0)
(7.78654 -0.0565511 0)
(7.79513 -0.0643238 0)
(7.80347 -0.072674 0)
(7.81154 -0.0817128 0)
(7.81924 -0.0915726 0)
(7.82647 -0.102321 0)
(7.33444 0.0182257 0)
(7.34906 0.0513636 0)
(7.37641 0.0734162 0)
(7.40737 0.0842803 0)
(7.43703 0.0874487 0)
(7.46463 0.0854357 0)
(7.48984 0.0800845 0)
(7.5125 0.0729124 0)
(7.53294 0.0649071 0)
(7.55157 0.0566335 0)
(7.5687 0.0484229 0)
(7.5846 0.0404569 0)
(7.59948 0.0328154 0)
(7.6135 0.0255187 0)
(7.6268 0.018553 0)
(7.63947 0.0118841 0)
(7.65159 0.00546667 0)
(7.66322 -0.000750472 0)
(7.67441 -0.00682076 0)
(7.68519 -0.0127983 0)
(7.6956 -0.0187369 0)
(7.70566 -0.0246905 0)
(7.7154 -0.0307128 0)
(7.72484 -0.0368584 0)
(7.73399 -0.043184 0)
(7.74286 -0.0497492 0)
(7.75146 -0.0566183 0)
(7.75977 -0.0638611 0)
(7.76779 -0.0715535 0)
(7.77546 -0.0797777 0)
(7.78275 -0.0886164 0)
(7.78955 -0.0981639 0)
(7.79576 -0.108447 0)
(7.33414 0.0145544 0)
(7.3459 0.0413289 0)
(7.3685 0.0599198 0)
(7.39513 0.0696597 0)
(7.4216 0.0728788 0)
(7.44693 0.0715201 0)
(7.47061 0.0670704 0)
(7.49235 0.0607986 0)
(7.51228 0.0535935 0)
(7.53064 0.0460004 0)
(7.54767 0.0383547 0)
(7.56355 0.0308531 0)
(7.57846 0.0235945 0)
(7.59253 0.0166159 0)
(7.60588 0.00991712 0)
(7.61858 0.00347488 0)
(7.63071 -0.00274771 0)
(7.64232 -0.0087952 0)
(7.65346 -0.014716 0)
(7.66416 -0.0205601 0)
(7.67446 -0.0263784 0)
(7.68437 -0.0322218 0)
(7.69391 -0.0381413 0)
(7.70311 -0.0441885 0)
(7.71197 -0.0504162 0)
(7.7205 -0.0568787 0)
(7.72869 -0.0636328 0)
(7.73653 -0.0707379 0)
(7.74399 -0.0782551 0)
(7.75104 -0.0862468 0)
(7.75761 -0.0947705 0)
(7.76361 -0.103888 0)
(7.76896 -0.113597 0)
(7.33393 0.0115075 0)
(7.34354 0.0328394 0)
(7.36243 0.0481079 0)
(7.38547 0.0564324 0)
(7.40916 0.0593203 0)
(7.43243 0.05824 0)
(7.45466 0.0543782 0)
(7.47548 0.0487796 0)
(7.49486 0.0422215 0)
(7.51292 0.0352091 0)
(7.5298 0.0280662 0)
(7.54563 0.0209916 0)
(7.56054 0.0140941 0)
(7.57464 0.00742214 0)
(7.58801 0.000985993 0)
(7.60073 -0.00522853 0)
(7.61286 -0.0112508 0)
(7.62445 -0.0171195 0)
(7.63553 -0.022878 0)
(7.64615 -0.0285725 0)
(7.65632 -0.0342506 0)
(7.66607 -0.0399597 0)
(7.67542 -0.0457477 0)
(7.68437 -0.0516622 0)
(7.69295 -0.0577512 0)
(7.70114 -0.064063 0)
(7.70893 -0.0706458 0)
(7.71632 -0.077548 0)
(7.72327 -0.0848165 0)
(7.72973 -0.0924957 0)
(7.73567 -0.100622 0)
(7.74098 -0.10923 0)
(7.7456 -0.118297 0)
(7.33377 0.00893034 0)
(7.34177 0.0255573 0)
(7.35776 0.0376811 0)
(7.37785 0.0444021 0)
(7.39914 0.0466628 0)
(7.42057 0.0455502 0)
(7.44147 0.0419993 0)
(7.46141 0.0368587 0)
(7.48023 0.0307928 0)
(7.49796 0.0242563 0)
(7.51466 0.017551 0)
(7.53042 0.0108694 0)
(7.54531 0.00432249 0)
(7.55942 -0.00203585 0)
(7.5728 -0.00818941 0)
(7.58553 -0.0141467 0)
(7.59765 -0.0199324 0)
(7.60921 -0.0255806 0)
(7.62023 -0.0311316 0)
(7.63075 -0.0366282 0)
(7.64079 -0.0421148 0)
(7.65038 -0.0476358 0)
(7.65952 -0.0532353 0)
(7.66824 -0.058957 0)
(7.67652 -0.0648434 0)
(7.68438 -0.070936 0)
(7.6918 -0.0772747 0)
(7.69875 -0.0838973 0)
(7.70523 -0.0908376 0)
(7.71117 -0.0981244 0)
(7.71655 -0.105776 0)
(7.72127 -0.113809 0)
(7.72531 -0.122185 0)
(7.33365 0.00670926 0)
(7.34042 0.0192161 0)
(7.35416 0.0283807 0)
(7.37184 0.0333825 0)
(7.39111 0.0347888 0)
(7.41093 0.0333893 0)
(7.43063 0.0299116 0)
(7.44974 0.0250364 0)
(7.46802 0.019319 0)
(7.48543 0.0131569 0)
(7.50195 0.00682143 0)
(7.51762 0.000490297 0)
(7.53248 -0.00573077 0)
(7.54659 -0.011788 0)
(7.55998 -0.0176631 0)
(7.57271 -0.0233617 0)
(7.58482 -0.0289051 0)
(7.59633 -0.0343245 0)
(7.60729 -0.0396568 0)
(7.61771 -0.0449418 0)
(7.62763 -0.0502207 0)
(7.63705 -0.0555345 0)
(7.64599 -0.0609235 0)
(7.65447 -0.0664265 0)
(7.66248 -0.0720807 0)
(7.67002 -0.0779208 0)
(7.67708 -0.0839785 0)
(7.68365 -0.0902818 0)
(7.68969 -0.096853 0)
(7.69518 -0.103708 0)
(7.70008 -0.110852 0)
(7.70432 -0.118287 0)
(7.70788 -0.125965 0)
(7.33356 0.00475861 0)
(7.33941 0.0136034 0)
(7.35139 0.0199829 0)
(7.36714 0.0231981 0)
(7.38471 0.0235767 0)
(7.40316 0.0216835 0)
(7.42181 0.0180773 0)
(7.44017 0.0132971 0)
(7.45797 0.00779789 0)
(7.47506 0.0019174 0)
(7.49141 -0.00410804 0)
(7.50699 -0.010121 0)
(7.52182 -0.0160262 0)
(7.53591 -0.0217745 0)
(7.54931 -0.0273492 0)
(7.56203 -0.0327561 0)
(7.57411 -0.0380156 0)
(7.58558 -0.0431577 0)
(7.59647 -0.0482176 0)
(7.60679 -0.0532333 0)
(7.61658 -0.0582435 0)
(7.62583 -0.0632865 0)
(7.63458 -0.068399 0)
(7.64282 -0.0736159 0)
(7.65056 -0.0789689 0)
(7.6578 -0.0844868 0)
(7.66453 -0.0901941 0)
(7.67074 -0.0961102 0)
(7.67641 -0.102248 0)
(7.6815 -0.108615 0)
(7.686 -0.115204 0)
(7.68985 -0.122009 0)
(7.69305 -0.128976 0)
(7.33349 0.00301197 0)
(7.33864 0.00854766 0)
(7.34927 0.0122928 0)
(7.3635 0.0136831 0)
(7.37969 0.0129 0)
(7.39699 0.0103424 0)
(7.41476 0.00643419 0)
(7.43249 0.00159482 0)
(7.44986 -0.00381135 0)
(7.46669 -0.00950648 0)
(7.48289 -0.0152929 0)
(7.4984 -0.021038 0)
(7.5132 -0.0266617 0)
(7.5273 -0.0321236 0)
(7.5407 -0.0374122 0)
(7.55342 -0.0425357 0)
(7.56549 -0.0475154 0)
(7.57692 -0.0523811 0)
(7.58774 -0.057167 0)
(7.59797 -0.0619096 0)
(7.60763 -0.0666455 0)
(7.61673 -0.0714101 0)
(7.62529 -0.0762368 0)
(7.63331 -0.0811563 0)
(7.6408 -0.0861956 0)
(7.64777 -0.0913778 0)
(7.6542 -0.0967211 0)
(7.66009 -0.102238 0)
(7.66542 -0.107934 0)
(7.67018 -0.113809 0)
(7.67435 -0.119849 0)
(7.67789 -0.126041 0)
(7.6808 -0.13233 0)
(7.33344 0.00141586 0)
(7.33806 0.00390644 0)
(7.34768 0.00513846 0)
(7.36073 0.00468049 0)
(7.37583 0.00263182 0)
(7.39223 -0.000726673 0)
(7.40928 -0.00507738 0)
(7.42649 -0.0100989 0)
(7.44351 -0.0155071 0)
(7.46014 -0.0210815 0)
(7.47622 -0.0266646 0)
(7.49168 -0.0321518 0)
(7.50648 -0.0374822 0)
(7.52058 -0.0426283 0)
(7.53399 -0.0475869 0)
(7.54672 -0.052372 0)
(7.55876 -0.0570085 0)
(7.57016 -0.0615282 0)
(7.58091 -0.0659663 0)
(7.59104 -0.0703591 0)
(7.60057 -0.0747422 0)
(7.60952 -0.0791493 0)
(7.61789 -0.0836113 0)
(7.6257 -0.0881556 0)
(7.63296 -0.0928054 0)
(7.63967 -0.0975793 0)
(7.64583 -0.10249 0)
(7.65144 -0.107546 0)
(7.65649 -0.112746 0)
(7.66096 -0.118085 0)
(7.66486 -0.123546 0)
(7.66816 -0.129111 0)
(7.67087 -0.134728 0)
(7.33341 -7.3808e-05 0)
(7.33765 -0.000441389 0)
(7.34652 -0.00163619 0)
(7.3587 -0.00396468 0)
(7.373 -0.00736855 0)
(7.38871 -0.0116499 0)
(7.40524 -0.016575 0)
(7.42208 -0.0219049 0)
(7.43887 -0.0274272 0)
(7.45537 -0.0329767 0)
(7.47141 -0.0384366 0)
(7.48688 -0.0437324 0)
(7.50171 -0.0488243 0)
(7.51586 -0.0536999 0)
(7.52931 -0.0583666 0)
(7.54205 -0.0628453 0)
(7.55411 -0.0671658 0)
(7.56547 -0.0713628 0)
(7.57618 -0.0754729 0)
(7.58623 -0.0795328 0)
(7.59565 -0.0835775 0)
(7.60445 -0.0876394 0)
(7.61266 -0.0917473 0)
(7.62028 -0.0959261 0)
(7.62732 -0.100196 0)
(7.6338 -0.104571 0)
(7.63972 -0.109061 0)
(7.64508 -0.113669 0)
(7.64988 -0.118392 0)
(7.65412 -0.123221 0)
(7.6578 -0.128136 0)
(7.6609 -0.133118 0)
(7.66346 -0.138119 0)
(7.33338 -0.0014956 0)
(7.33737 -0.00460292 0)
(7.34574 -0.00817394 0)
(7.35732 -0.0123976 0)
(7.37106 -0.0172273 0)
(7.38631 -0.0225193 0)
(7.4025 -0.028103 0)
(7.41912 -0.0338071 0)
(7.43579 -0.0394822 0)
(7.45225 -0.0450157 0)
(7.4683 -0.0503327 0)
(7.48382 -0.055392 0)
(7.49871 -0.0601796 0)
(7.51292 -0.0647028 0)
(7.52642 -0.0689835 0)
(7.53921 -0.0730538 0)
(7.55127 -0.0769511 0)
(7.56262 -0.0807156 0)
(7.57327 -0.0843874 0)
(7.58324 -0.0880054 0)
(7.59256 -0.0916052 0)
(7.60123 -0.0952188 0)
(7.60927 -0.098874 0)
(7.61671 -0.102594 0)
(7.62356 -0.106395 0)
(7.62983 -0.110292 0)
(7.63553 -0.114289 0)
(7.64067 -0.118387 0)
(7.64526 -0.122582 0)
(7.6493 -0.126861 0)
(7.6528 -0.131206 0)
(7.65576 -0.135598 0)
(7.65822 -0.13999 0)
(7.33337 -0.00288553 0)
(7.3372 -0.00867995 0)
(7.34528 -0.0146204 0)
(7.35653 -0.0207874 0)
(7.36998 -0.0271318 0)
(7.38502 -0.0335479 0)
(7.40109 -0.0399172 0)
(7.41768 -0.0461271 0)
(7.4344 -0.0520853 0)
(7.45095 -0.0577277 0)
(7.46714 -0.0630197 0)
(7.48281 -0.067952 0)
(7.49785 -0.0725356 0)
(7.51219 -0.0767973 0)
(7.5258 -0.080774 0)
(7.53866 -0.0845089 0)
(7.55077 -0.0880482 0)
(7.56213 -0.091438 0)
(7.57275 -0.0947229 0)
(7.58267 -0.0979445 0)
(7.59189 -0.10114 0)
(7.60044 -0.104342 0)
(7.60834 -0.107579 0)
(7.61562 -0.110871 0)
(7.62229 -0.114237 0)
(7.62836 -0.117685 0)
(7.63387 -0.121222 0)
(7.63881 -0.124846 0)
(7.64321 -0.128552 0)
(7.64708 -0.132326 0)
(7.65043 -0.136151 0)
(7.65327 -0.140008 0)
(7.65564 -0.143855 0)
(7.33336 -0.00427786 0)
(7.33714 -0.012768 0)
(7.34512 -0.0211056 0)
(7.35628 -0.0292623 0)
(7.36968 -0.0371691 0)
(7.38473 -0.0447404 0)
(7.40087 -0.0518967 0)
(7.41759 -0.0585773 0)
(7.43448 -0.0647453 0)
(7.45124 -0.0703893 0)
(7.46764 -0.0755206 0)
(7.48351 -0.0801692 0)
(7.49874 -0.0843784 0)
(7.51325 -0.0882007 0)
(7.527 -0.0916931 0)
(7.53996 -0.0949142 0)
(7.55213 -0.0979214 0)
(7.56352 -0.100769 0)
(7.57413 -0.103508 0)
(7.584 -0.106182 0)
(7.59314 -0.108833 0)
(7.60159 -0.111492 0)
(7.60936 -0.114188 0)
(7.61649 -0.116942 0)
(7.62299 -0.11977 0)
(7.62889 -0.122681 0)
(7.63422 -0.12568 0)
(7.63899 -0.128764 0)
(7.64322 -0.131926 0)
(7.64695 -0.135156 0)
(7.65018 -0.138436 0)
(7.65293 -0.14175 0)
(7.65525 -0.14506 0)
(7.33337 -0.00570952 0)
(7.3372 -0.0169789 0)
(7.3453 -0.0278134 0)
(7.35663 -0.0380845 0)
(7.37029 -0.0477076 0)
(7.38566 -0.056616 0)
(7.40217 -0.0647653 0)
(7.41929 -0.072139 0)
(7.4366 -0.0787464 0)
(7.45377 -0.0846192 0)
(7.47056 -0.0898073 0)
(7.48678 -0.0943744 0)
(7.50232 -0.0983929 0)
(7.51709 -0.101939 0)
(7.53105 -0.105091 0)
(7.54416 -0.107922 0)
(7.55644 -0.110504 0)
(7.56787 -0.112902 0)
(7.5785 -0.115174 0)
(7.58833 -0.11737 0)
(7.59741 -0.119535 0)
(7.60575 -0.121704 0)
(7.6134 -0.123909 0)
(7.62038 -0.12617 0)
(7.62672 -0.128503 0)
(7.63245 -0.13092 0)
(7.63761 -0.133423 0)
(7.64221 -0.136011 0)
(7.64629 -0.138678 0)
(7.64986 -0.141413 0)
(7.65296 -0.144201 0)
(7.65561 -0.147025 0)
(7.65785 -0.149852 0)
(7.33338 -0.00721863 0)
(7.33736 -0.021408 0)
(7.34575 -0.0348415 0)
(7.3575 -0.0472689 0)
(7.37163 -0.0585727 0)
(7.38752 -0.0686978 0)
(7.40459 -0.077639 0)
(7.42227 -0.085439 0)
(7.44013 -0.092173 0)
(7.45783 -0.0979355 0)
(7.47511 -0.102832 0)
(7.49178 -0.106973 0)
(7.50771 -0.11047 0)
(7.52282 -0.113428 0)
(7.53704 -0.115948 0)
(7.55037 -0.118123 0)
(7.5628 -0.120036 0)
(7.57433 -0.121762 0)
(7.585 -0.123364 0)
(7.59484 -0.124899 0)
(7.60387 -0.126412 0)
(7.61214 -0.127943 0)
(7.61968 -0.12952 0)
(7.62653 -0.131168 0)
(7.63273 -0.132902 0)
(7.63831 -0.134731 0)
(7.64331 -0.13666 0)
(7.64776 -0.138688 0)
(7.65169 -0.140809 0)
(7.65514 -0.143012 0)
(7.65814 -0.145285 0)
(7.66071 -0.147615 0)
(7.66291 -0.14997 0)
(7.33341 -0.00885881 0)
(7.33768 -0.0262445 0)
(7.34668 -0.0425731 0)
(7.35925 -0.0574953 0)
(7.37432 -0.0708805 0)
(7.39121 -0.0826816 0)
(7.40929 -0.0929111 0)
(7.42793 -0.101641 0)
(7.44669 -0.108986 0)
(7.4652 -0.115083 0)
(7.48319 -0.120079 0)
(7.50047 -0.124129 0)
(7.51691 -0.12738 0)
(7.53243 -0.129976 0)
(7.54698 -0.132044 0)
(7.56054 -0.133704 0)
(7.57313 -0.135058 0)
(7.58477 -0.136197 0)
(7.59548 -0.137198 0)
(7.6053 -0.138125 0)
(7.61428 -0.139032 0)
(7.62246 -0.139962 0)
(7.62988 -0.140947 0)
(7.63659 -0.142013 0)
(7.64263 -0.143177 0)
(7.64804 -0.14445 0)
(7.65287 -0.145836 0)
(7.65714 -0.147334 0)
(7.66091 -0.14894 0)
(7.6642 -0.150645 0)
(7.66705 -0.152435 0)
(7.66949 -0.154299 0)
(7.67156 -0.156208 0)
(7.33344 -0.010675 0)
(7.33808 -0.0315305 0)
(7.34784 -0.0508356 0)
(7.36139 -0.0680829 0)
(7.37754 -0.0831352 0)
(7.39559 -0.0960047 0)
(7.41482 -0.106795 0)
(7.43461 -0.115684 0)
(7.45445 -0.122882 0)
(7.47397 -0.128605 0)
(7.49288 -0.133065 0)
(7.51097 -0.136465 0)
(7.52811 -0.13899 0)
(7.54421 -0.14081 0)
(7.55923 -0.142076 0)
(7.57317 -0.14292 0)
(7.58604 -0.143458 0)
(7.59787 -0.143787 0)
(7.6087 -0.143992 0)
(7.61857 -0.144142 0)
(7.62755 -0.144292 0)
(7.63567 -0.144487 0)
(7.64301 -0.144764 0)
(7.6496 -0.145147 0)
(7.6555 -0.145654 0)
(7.66076 -0.146297 0)
(7.66542 -0.147081 0)
(7.66954 -0.148006 0)
(7.67315 -0.149069 0)
(7.6763 -0.15026 0)
(7.67903 -0.15157 0)
(7.68137 -0.152988 0)
(7.68339 -0.154486 0)
(7.33352 -0.0127873 0)
(7.3389 -0.0378166 0)
(7.35011 -0.0609597 0)
(7.3655 -0.0815898 0)
(7.38363 -0.0995296 0)
(7.40363 -0.114741 0)
(7.4247 -0.127305 0)
(7.44614 -0.13742 0)
(7.46744 -0.145353 0)
(7.4882 -0.151392 0)
(7.50816 -0.155825 0)
(7.52713 -0.158928 0)
(7.54498 -0.160955 0)
(7.56165 -0.162133 0)
(7.57711 -0.162659 0)
(7.59138 -0.162704 0)
(7.60448 -0.162411 0)
(7.61645 -0.1619 0)
(7.62734 -0.16127 0)
(7.63722 -0.160599 0)
(7.64615 -0.15995 0)
(7.65418 -0.159374 0)
(7.66138 -0.158907 0)
(7.66781 -0.158575 0)
(7.67353 -0.158398 0)
(7.6786 -0.158387 0)
(7.68306 -0.158546 0)
(7.68697 -0.158876 0)
(7.69037 -0.159372 0)
(7.69331 -0.160026 0)
(7.69584 -0.160828 0)
(7.69798 -0.161767 0)
(7.6998 -0.162814 0)
(7.33356 -0.0152041 0)
(7.33952 -0.0446071 0)
(7.35204 -0.0710286 0)
(7.36913 -0.0937503 0)
(7.38918 -0.112834 0)
(7.41127 -0.128504 0)
(7.43449 -0.141055 0)
(7.45804 -0.150849 0)
(7.4813 -0.158257 0)
(7.50386 -0.163631 0)
(7.5254 -0.1673 0)
(7.54573 -0.169569 0)
(7.56472 -0.170712 0)
(7.58232 -0.17097 0)
(7.59853 -0.170555 0)
(7.61337 -0.16965 0)
(7.6269 -0.168408 0)
(7.63916 -0.166959 0)
(7.65024 -0.165411 0)
(7.66022 -0.163848 0)
(7.66917 -0.162339 0)
(7.67716 -0.160938 0)
(7.68428 -0.159684 0)
(7.69059 -0.158607 0)
(7.69617 -0.157727 0)
(7.70106 -0.157055 0)
(7.70535 -0.156597 0)
(7.70907 -0.156355 0)
(7.71229 -0.156325 0)
(7.71506 -0.1565 0)
(7.71743 -0.156869 0)
(7.71944 -0.157424 0)
(7.72116 -0.158134 0)
(7.33381 -0.018375 0)
(7.34175 -0.0543709 0)
(7.35761 -0.0870857 0)
(7.37844 -0.115408 0)
(7.402 -0.139103 0)
(7.42722 -0.15819 0)
(7.45317 -0.172973 0)
(7.47902 -0.183971 0)
(7.50424 -0.191753 0)
(7.52845 -0.196869 0)
(7.55138 -0.199827 0)
(7.57286 -0.20108 0)
(7.5928 -0.201019 0)
(7.61117 -0.199972 0)
(7.62798 -0.198214 0)
(7.64327 -0.195968 0)
(7.65712 -0.193417 0)
(7.66959 -0.190707 0)
(7.68077 -0.187953 0)
(7.69076 -0.185245 0)
(7.69965 -0.182652 0)
(7.70752 -0.180225 0)
(7.71445 -0.178003 0)
(7.72054 -0.176011 0)
(7.72585 -0.174266 0)
(7.73046 -0.172778 0)
(7.73443 -0.17155 0)
(7.73783 -0.170583 0)
(7.74071 -0.169872 0)
(7.74314 -0.169408 0)
(7.74515 -0.169182 0)
(7.7468 -0.169183 0)
(7.74814 -0.169378 0)
(7.3337 -0.0218073 0)
(7.34208 -0.0627363 0)
(7.35989 -0.0975392 0)
(7.3837 -0.126176 0)
(7.411 -0.149553 0)
(7.44042 -0.16817 0)
(7.47058 -0.18249 0)
(7.50037 -0.193059 0)
(7.5291 -0.200401 0)
(7.55632 -0.205008 0)
(7.58174 -0.207353 0)
(7.60523 -0.207871 0)
(7.62673 -0.206957 0)
(7.64626 -0.204957 0)
(7.6639 -0.202169 0)
(7.67973 -0.198847 0)
(7.69388 -0.195199 0)
(7.70646 -0.191395 0)
(7.7176 -0.18757 0)
(7.72742 -0.183829 0)
(7.73603 -0.180253 0)
(7.74355 -0.1769 0)
(7.75008 -0.173813 0)
(7.75572 -0.17102 0)
(7.76055 -0.168538 0)
(7.76465 -0.166377 0)
(7.76811 -0.16454 0)
(7.77098 -0.163027 0)
(7.77334 -0.161833 0)
(7.77525 -0.16095 0)
(7.77677 -0.160367 0)
(7.77794 -0.160075 0)
(7.77887 -0.160036 0)
(7.33482 -0.0281619 0)
(7.34948 -0.083403 0)
(7.37507 -0.131395 0)
(7.40529 -0.170271 0)
(7.43739 -0.200366 0)
(7.47059 -0.222464 0)
(7.50378 -0.237805 0)
(7.53602 -0.247711 0)
(7.56674 -0.253316 0)
(7.59556 -0.255572 0)
(7.62224 -0.255279 0)
(7.64667 -0.253086 0)
(7.66882 -0.249513 0)
(7.68877 -0.244976 0)
(7.70661 -0.239806 0)
(7.72248 -0.234265 0)
(7.73653 -0.228559 0)
(7.74892 -0.222846 0)
(7.75981 -0.217251 0)
(7.76933 -0.211864 0)
(7.77764 -0.206754 0)
(7.78485 -0.201968 0)
(7.79109 -0.197538 0)
(7.79646 -0.193483 0)
(7.80105 -0.189815 0)
(7.80496 -0.186536 0)
(7.80825 -0.183647 0)
(7.811 -0.181145 0)
(7.81327 -0.179026 0)
(7.81512 -0.177283 0)
(7.81662 -0.175909 0)
(7.81781 -0.174898 0)
(7.81877 -0.174209 0)
(7.33379 -0.0319388 0)
(7.34762 -0.0868964 0)
(7.37765 -0.13021 0)
(7.41548 -0.16599 0)
(7.45623 -0.195492 0)
(7.49764 -0.218381 0)
(7.53781 -0.235087 0)
(7.57576 -0.246366 0)
(7.6112 -0.252957 0)
(7.64406 -0.255651 0)
(7.67439 -0.25525 0)
(7.70232 -0.252485 0)
(7.72801 -0.247994 0)
(7.75162 -0.242315 0)
(7.77328 -0.235886 0)
(7.79315 -0.229055 0)
(7.81135 -0.22209 0)
(7.828 -0.215194 0)
(7.84323 -0.208516 0)
(7.85713 -0.20216 0)
(7.86982 -0.196199 0)
(7.8814 -0.190678 0)
(7.89196 -0.185622 0)
(7.90159 -0.181042 0)
(7.91037 -0.17694 0)
(7.91837 -0.173308 0)
(7.92566 -0.170139 0)
(7.93231 -0.167424 0)
(7.93839 -0.165156 0)
(7.94394 -0.163331 0)
(7.94905 -0.161956 0)
(7.95379 -0.161035 0)
(7.95827 -0.160541 0)
(7.33892 -0.0544475 0)
(7.37183 -0.15176 0)
(7.41438 -0.221081 0)
(7.45764 -0.268082 0)
(7.50375 -0.29894 0)
(7.55361 -0.317627 0)
(7.60569 -0.327845 0)
(7.65887 -0.332286 0)
(7.71227 -0.332649 0)
(7.76484 -0.330093 0)
(7.81568 -0.325433 0)
(7.86413 -0.319246 0)
(7.90972 -0.311967 0)
(7.95214 -0.303936 0)
(7.99126 -0.295429 0)
(8.02704 -0.286677 0)
(8.05957 -0.277873 0)
(8.08898 -0.269176 0)
(8.11546 -0.260714 0)
(8.13921 -0.252586 0)
(8.16045 -0.244868 0)
(8.1794 -0.237611 0)
(8.19627 -0.230851 0)
(8.21127 -0.224606 0)
(8.22456 -0.218884 0)
(8.23633 -0.213685 0)
(8.2467 -0.209006 0)
(8.25582 -0.204843 0)
(8.2638 -0.201202 0)
(8.27073 -0.198088 0)
(8.27672 -0.195559 0)
(8.28185 -0.193619 0)
(8.2863 -0.192446 0)
(7.33754 -0.0404472 0)
(7.38838 -0.105882 0)
(7.47738 -0.163733 0)
(7.57867 -0.219591 0)
(7.68615 -0.267179 0)
(7.79465 -0.304142 0)
(7.89819 -0.331118 0)
(7.99325 -0.348798 0)
(8.07787 -0.358263 0)
(8.15099 -0.360982 0)
(8.21239 -0.358423 0)
(8.2625 -0.351909 0)
(8.30211 -0.342581 0)
(8.33222 -0.331385 0)
(8.35393 -0.319072 0)
(8.36835 -0.306229 0)
(8.37654 -0.2933 0)
(8.37946 -0.280612 0)
(8.37799 -0.268395 0)
(8.37286 -0.256806 0)
(8.36474 -0.245942 0)
(8.35419 -0.235856 0)
(8.34165 -0.226565 0)
(8.32752 -0.218062 0)
(8.31212 -0.210324 0)
(8.29569 -0.203313 0)
(8.27844 -0.196987 0)
(8.26051 -0.1913 0)
(8.24201 -0.186222 0)
(8.22296 -0.18173 0)
(8.20348 -0.177917 0)
(8.18329 -0.174742 0)
(8.16303 -0.173156 0)
(7.39946 -0.196896 0)
(7.59549 -0.376425 0)
(7.7679 -0.459545 0)
(7.89454 -0.513601 0)
(7.97741 -0.542434 0)
(8.0146 -0.551885 0)
(8.01038 -0.548581 0)
(7.97315 -0.535882 0)
(7.91057 -0.516302 0)
(7.82928 -0.492116 0)
(7.73507 -0.46513 0)
(7.63271 -0.43675 0)
(7.52592 -0.408067 0)
(7.41754 -0.379897 0)
(7.30967 -0.352819 0)
(7.20382 -0.327215 0)
(7.10102 -0.303317 0)
(7.00192 -0.281239 0)
(6.90691 -0.261007 0)
(6.81616 -0.24259 0)
(6.72971 -0.225911 0)
(6.64747 -0.210871 0)
(6.5693 -0.197351 0)
(6.49502 -0.185224 0)
(6.42441 -0.174359 0)
(6.35722 -0.164623 0)
(6.29323 -0.155878 0)
(6.23216 -0.147992 0)
(6.17376 -0.140805 0)
(6.11763 -0.134175 0)
(6.06345 -0.127998 0)
(6.01018 -0.121501 0)
(5.95822 -0.117993 0)
(7.16009 -0.18597 0)
(6.91072 -0.345408 0)
(6.49919 -0.392846 0)
(6.03501 -0.39441 0)
(5.59428 -0.366366 0)
(5.17729 -0.322548 0)
(4.78812 -0.27388 0)
(4.43357 -0.225993 0)
(4.11421 -0.18188 0)
(3.82837 -0.143026 0)
(3.57403 -0.109833 0)
(3.3486 -0.0821123 0)
(3.14925 -0.0593809 0)
(2.97314 -0.0410142 0)
(2.81761 -0.0263561 0)
(2.68014 -0.014786 0)
(2.55849 -0.00574941 0)
(2.4506 0.00123178 0)
(2.35467 0.00655931 0)
(2.26912 0.0105651 0)
(2.19256 0.0135206 0)
(2.12378 0.0156459 0)
(2.06174 0.0171198 0)
(2.00554 0.018088 0)
(1.9544 0.0186746 0)
(1.90768 0.0189862 0)
(1.8648 0.0191405 0)
(1.82538 0.0192556 0)
(1.78894 0.0195498 0)
(1.75564 0.0203225 0)
(1.7246 0.0219008 0)
(1.69782 0.0268023 0)
(1.67332 0.0222967 0)
(1.40868 0.0380982 0)
(1.79596 0.166931 0)
(2.2388 0.188685 0)
(2.54028 0.144654 0)
(2.7382 0.0921808 0)
(2.9252 0.0456708 0)