/*--------------------------------*- C++ -*----------------------------------*\
  =========                 |
  \\      /  F ield         | OpenFOAM: The Open Source CFD Toolbox
   \\    /   O peration     | Website:  https://openfoam.org
    \\  /    A nd           | Version:  10
     \\/     M anipulation  |
\*---------------------------------------------------------------------------*/
FoamFile
{
    format      ascii;
    class       volScalarField;
    location    "0.005";
    object      k;
}
// * * * * * * * * * * * * * * * * * * * * * * * * * * * * * * * * * * * * * //

dimensions      [0 2 -2 0 0 0 0];

internalField   nonuniform List<scalar> 
6820
(
0.196708
0.190615
0.185013
0.179758
0.17475
0.170025
0.165957
0.163193
0.162153
0.162498
0.163173
0.163068
0.161707
0.159411
0.156936
0.154957
0.153776
0.153325
0.153358
0.153621
0.153953
0.154287
0.154618
0.154969
0.155366
0.155838
0.156401
0.157131
0.157918
0.15948
0.159258
0.169223
0.137359
0.201944
0.200827
0.197569
0.193942
0.190696
0.188148
0.186726
0.186996
0.18912
0.192323
0.195073
0.195996
0.194676
0.191754
0.188401
0.185631
0.183923
0.183231
0.183238
0.183603
0.184101
0.18464
0.185216
0.185871
0.186663
0.187661
0.188951
0.190665
0.192981
0.196287
0.201081
0.208634
0.222426
0.200489
0.200495
0.199162
0.197097
0.194716
0.192391
0.190787
0.190747
0.192637
0.195771
0.198593
0.199597
0.198232
0.195098
0.191414
0.188295
0.186304
0.185439
0.185384
0.185779
0.186375
0.187063
0.18784
0.18876
0.189906
0.191384
0.193336
0.195977
0.19962
0.204834
0.21254
0.2242
0.244427
0.199657
0.199116
0.198226
0.196962
0.19537
0.193718
0.192715
0.193248
0.195645
0.199129
0.20209
0.203033
0.201459
0.198033
0.194042
0.190655
0.18847
0.187497
0.18741
0.187835
0.188507
0.189311
0.190243
0.191368
0.192783
0.194618
0.197048
0.20033
0.204849
0.211202
0.220459
0.233865
0.255259
0.199427
0.198471
0.197555
0.196498
0.195215
0.193929
0.193359
0.194388
0.197286
0.201186
0.204402
0.205424
0.203789
0.200212
0.196033
0.192464
0.190132
0.189064
0.188935
0.189363
0.190075
0.190946
0.191971
0.193217
0.194788
0.196823
0.199509
0.203107
0.208007
0.214776
0.224353
0.237847
0.257829
0.199397
0.198269
0.197219
0.196142
0.194934
0.1938
0.193458
0.194789
0.198029
0.202246
0.205701
0.206858
0.205255
0.201627
0.197344
0.193649
0.191201
0.190046
0.189866
0.190275
0.190991
0.191884
0.192944
0.194233
0.195856
0.19795
0.200694
0.204335
0.209225
0.215855
0.224977
0.237485
0.255026
0.199393
0.198224
0.197121
0.196002
0.194779
0.193669
0.193403
0.194868
0.198291
0.202711
0.206352
0.207648
0.206118
0.202494
0.198155
0.19437
0.191826
0.190589
0.190352
0.190728
0.191427
0.192311
0.193364
0.194643
0.196247
0.198303
0.200977
0.204485
0.209127
0.215303
0.223587
0.234654
0.24954
0.199393
0.198215
0.197091
0.195949
0.194707
0.193587
0.193329
0.194834
0.198335
0.202871
0.206646
0.208065
0.206618
0.203021
0.198652
0.194799
0.192173
0.190862
0.190568
0.190904
0.191574
0.192433
0.193456
0.194694
0.196238
0.198204
0.200736
0.20402
0.208299
0.21389
0.221214
0.230761
0.243181
0.199393
0.198214
0.197086
0.195936
0.194685
0.193551
0.193277
0.194777
0.198303
0.202902
0.206773
0.208296
0.20693
0.203365
0.198978
0.195069
0.192373
0.190996
0.19065
0.190946
0.191583
0.192409
0.193392
0.194576
0.196042
0.197893
0.200254
0.203278
0.20716
0.212144
0.218534
0.226675
0.236975
0.199394
0.198213
0.197084
0.195934
0.194678
0.193534
0.193242
0.194724
0.198253
0.202892
0.206837
0.208449
0.207154
0.203621
0.199219
0.195263
0.192506
0.19107
0.190677
0.190936
0.191541
0.192332
0.193272
0.194396
0.195777
0.197506
0.199688
0.20245
0.205943
0.210352
0.215896
0.222814
0.23136
0.199394
0.198213
0.197084
0.195934
0.194677
0.193526
0.193217
0.194681
0.198208
0.202877
0.206884
0.208571
0.207339
0.203832
0.199418
0.195419
0.192609
0.191122
0.190687
0.190912
0.191487
0.192244
0.19314
0.194203
0.195499
0.197105
0.199112
0.201621
0.204751
0.208639
0.213442
0.219323
0.226442
0.199394
0.198213
0.197084
0.195934
0.194677
0.19352
0.193198
0.194646
0.198171
0.202866
0.206928
0.208681
0.207501
0.204016
0.199588
0.195551
0.192693
0.191163
0.190691
0.190887
0.191433
0.192158
0.19301
0.194013
0.195225
0.196713
0.198552
0.200825
0.203622
0.207046
0.211209
0.216221
0.22218
0.199394
0.198213
0.197084
0.195935
0.194678
0.193516
0.193181
0.194617
0.198141
0.20286
0.20697
0.20878
0.207644
0.204174
0.199732
0.195661
0.192761
0.191193
0.190691
0.19086
0.19138
0.192073
0.192883
0.193829
0.194959
0.196333
0.198015
0.200069
0.202566
0.205581
0.209193
0.213477
0.218492
0.199394
0.198213
0.197084
0.195936
0.194679
0.193512
0.193168
0.194592
0.198116
0.202857
0.207009
0.208867
0.207766
0.204307
0.199849
0.195746
0.192811
0.191211
0.190682
0.190829
0.191326
0.191989
0.192758
0.193647
0.194699
0.195966
0.197501
0.199355
0.201582
0.204238
0.207378
0.21105
0.21529
0.199394
0.198214
0.197085
0.195937
0.19468
0.193509
0.193156
0.194571
0.198096
0.202855
0.207043
0.208941
0.207868
0.204413
0.199939
0.195807
0.192841
0.191214
0.190663
0.190791
0.191266
0.191901
0.192631
0.193466
0.194444
0.195611
0.197009
0.198681
0.200667
0.203008
0.205742
0.2089
0.212501
0.199394
0.198214
0.197085
0.195938
0.19468
0.193507
0.193147
0.194554
0.198079
0.202854
0.207072
0.209002
0.207948
0.204494
0.200002
0.195844
0.192851
0.191201
0.190633
0.190744
0.1912
0.191808
0.192501
0.193285
0.194193
0.195265
0.196538
0.198045
0.199817
0.201882
0.204267
0.206991
0.210063
0.199394
0.198214
0.197085
0.195938
0.194681
0.193505
0.193138
0.194539
0.198064
0.202854
0.207097
0.209051
0.20801
0.204551
0.20004
0.195857
0.192841
0.191173
0.190591
0.190688
0.191126
0.191709
0.192367
0.193102
0.193945
0.19493
0.196088
0.197447
0.199028
0.200852
0.202936
0.205293
0.207924
0.199394
0.198214
0.197086
0.195939
0.194682
0.193504
0.193132
0.194526
0.198052
0.202854
0.207117
0.209089
0.208055
0.204587
0.200056
0.19585
0.192814
0.191131
0.190537
0.190622
0.191044
0.191604
0.192229
0.192918
0.1937
0.194605
0.195659
0.196883
0.198295
0.199909
0.201735
0.203781
0.206043
0.199394
0.198214
0.197086
0.19594
0.194683
0.193503
0.193126
0.194516
0.198043
0.202854
0.207133
0.209118
0.208085
0.204605
0.200054
0.195826
0.192772
0.191076
0.190473
0.190548
0.190956
0.191494
0.192088
0.192734
0.193459
0.19429
0.19525
0.196354
0.197617
0.199047
0.200651
0.202432
0.204385
0.199394
0.198215
0.197087
0.195941
0.194684
0.193503
0.193122
0.194507
0.198035
0.202855
0.207146
0.209139
0.208103
0.204608
0.200036
0.195787
0.192718
0.191013
0.190402
0.190469
0.190862
0.19138
0.191945
0.192552
0.193224
0.193987
0.194861
0.195859
0.19699
0.19826
0.199673
0.201229
0.202922
0.199394
0.198215
0.197087
0.195941
0.194685
0.193502
0.193118
0.1945
0.198029
0.202856
0.207156
0.209154
0.208111
0.2046
0.200006
0.195738
0.192656
0.190943
0.190327
0.190385
0.190766
0.191264
0.191801
0.192371
0.192996
0.193698
0.194495
0.195397
0.196412
0.197543
0.198791
0.200155
0.201628
0.199394
0.198215
0.197087
0.195942
0.194685
0.193502
0.193115
0.194494
0.198024
0.202856
0.207164
0.209163
0.208112
0.204583
0.199968
0.195683
0.192589
0.190869
0.190248
0.1903
0.190669
0.191149
0.19166
0.192196
0.192776
0.193423
0.19415
0.194968
0.195881
0.19689
0.197996
0.199196
0.200483
0.199395
0.198215
0.197087
0.195942
0.194686
0.193502
0.193112
0.194489
0.198019
0.202857
0.20717
0.209168
0.208107
0.20456
0.199926
0.195624
0.19252
0.190796
0.190171
0.190216
0.190574
0.191036
0.191523
0.192027
0.192567
0.193163
0.193828
0.194571
0.195394
0.196297
0.19728
0.19834
0.19947
0.199395
0.198215
0.197088
0.195943
0.194687
0.193502
0.19311
0.194484
0.198015
0.202856
0.207173
0.20917
0.208099
0.204534
0.199881
0.195565
0.192453
0.190724
0.190096
0.190135
0.190482
0.190928
0.191392
0.191867
0.192369
0.19292
0.19353
0.194205
0.194949
0.19576
0.196637
0.197577
0.198574
0.199395
0.198215
0.197088
0.195943
0.194687
0.193502
0.193108
0.19448
0.19801
0.202854
0.207174
0.209169
0.208088
0.204508
0.199838
0.195509
0.19239
0.190657
0.190026
0.190059
0.190395
0.190826
0.191269
0.191716
0.192185
0.192694
0.193254
0.19387
0.194544
0.195275
0.196061
0.196898
0.197781
0.199395
0.198216
0.197088
0.195943
0.194687
0.193501
0.193105
0.194475
0.198004
0.20285
0.207172
0.209167
0.208077
0.204482
0.199798
0.195458
0.192333
0.190597
0.189963
0.18999
0.190316
0.190731
0.191154
0.191576
0.192014
0.192486
0.193001
0.193565
0.194178
0.194839
0.195545
0.196294
0.197079
0.199395
0.198216
0.197088
0.195943
0.194688
0.193501
0.193103
0.194469
0.197997
0.202844
0.207169
0.209162
0.208065
0.20446
0.199763
0.195414
0.192283
0.190546
0.189908
0.189929
0.190245
0.190645
0.19105
0.191448
0.191858
0.192296
0.192771
0.193289
0.193848
0.194448
0.195085
0.195758
0.196461
0.199395
0.198215
0.197088
0.195943
0.194688
0.193501
0.1931
0.194463
0.197988
0.202835
0.207162
0.209156
0.208055
0.204441
0.199735
0.195378
0.192243
0.190503
0.189862
0.189877
0.190183
0.190569
0.190956
0.191333
0.191717
0.192124
0.192564
0.19304
0.193552
0.194099
0.194677
0.195284
0.195915
0.199395
0.198215
0.197087
0.195943
0.194688
0.1935
0.193097
0.194456
0.197978
0.202824
0.207153
0.209149
0.208046
0.204426
0.199713
0.195351
0.192212
0.19047
0.189825
0.189834
0.19013
0.190504
0.190874
0.191231
0.191592
0.191971
0.192379
0.192819
0.193289
0.193789
0.194315
0.194866
0.195437
0.199395
0.198215
0.197087
0.195942
0.194687
0.193499
0.193094
0.194448
0.197965
0.202811
0.207142
0.209141
0.208039
0.204416
0.199698
0.195332
0.192191
0.190446
0.189798
0.1898
0.190087
0.190448
0.190803
0.191142
0.191481
0.191836
0.192216
0.192622
0.193056
0.193515
0.193997
0.194499
0.195017
0.199395
0.198215
0.197087
0.195943
0.194688
0.193499
0.193091
0.19444
0.197952
0.202795
0.207129
0.209132
0.208033
0.204411
0.199691
0.195322
0.192178
0.190431
0.189779
0.189775
0.190053
0.190403
0.190743
0.191066
0.191386
0.191718
0.192073
0.192451
0.192852
0.193276
0.193719
0.194178
0.194652
0.199394
0.198214
0.197086
0.195941
0.194686
0.193497
0.193086
0.194429
0.197936
0.202777
0.207113
0.209123
0.20803
0.20441
0.19969
0.195319
0.192174
0.190424
0.189768
0.189759
0.190028
0.190367
0.190695
0.191002
0.191305
0.191617
0.191949
0.192302
0.192675
0.193067
0.193477
0.1939
0.194335
0.199395
0.198215
0.197087
0.195944
0.194691
0.193501
0.193088
0.194425
0.197924
0.202761
0.207099
0.209113
0.208027
0.204411
0.199692
0.195321
0.192174
0.190423
0.189764
0.18975
0.190012
0.190342
0.190658
0.190951
0.191238
0.191533
0.191845
0.192175
0.192524
0.19289
0.19327
0.193662
0.194065
0.199394
0.198213
0.197084
0.19594
0.194686
0.193497
0.193082
0.194415
0.197909
0.202745
0.207086
0.209108
0.20803
0.204419
0.199702
0.195331
0.192183
0.19043
0.189768
0.189749
0.190005
0.190325
0.19063
0.190912
0.191184
0.191463
0.191757
0.192068
0.192396
0.192738
0.193093
0.193459
0.193834
0.199395
0.198219
0.197096
0.195957
0.194708
0.193521
0.193105
0.194434
0.19792
0.202746
0.20708
0.209098
0.208019
0.204411
0.199697
0.19533
0.192186
0.190435
0.189774
0.189753
0.190004
0.190318
0.190614
0.190885
0.191145
0.19141
0.191689
0.191983
0.192293
0.192616
0.19295
0.193295
0.193647
0.199394
0.198215
0.197092
0.195956
0.194711
0.193529
0.193115
0.194441
0.19792
0.202737
0.207065
0.209083
0.208008
0.204406
0.199697
0.195334
0.192191
0.19044
0.189775
0.189747
0.18999
0.190293
0.190577
0.190836
0.191083
0.191334
0.191599
0.191878
0.192172
0.192479
0.192797
0.193124
0.193459
0.199403
0.198254
0.197153
0.19603
0.194792
0.193611
0.193184
0.194473
0.19789
0.20263
0.206885
0.208856
0.207767
0.204178
0.199498
0.195167
0.192051
0.190316
0.189657
0.189625
0.189857
0.190145
0.190413
0.190654
0.190884
0.191118
0.191365
0.191627
0.191904
0.192194
0.192496
0.192807
0.193127
0.199418
0.198283
0.197227
0.196156
0.194948
0.193746
0.19322
0.19432
0.197492
0.202016
0.206164
0.208157
0.207177
0.203715
0.199132
0.194849
0.191743
0.189993
0.189306
0.18924
0.189435
0.189686
0.189918
0.190124
0.190321
0.190524
0.19074
0.190972
0.191219
0.19148
0.191753
0.192037
0.19233
0.199659
0.198902
0.198111
0.197325
0.196491
0.195702
0.195517
0.196791
0.19996
0.204382
0.208449
0.210483
0.2097
0.206568
0.202389
0.198525
0.195798
0.19435
0.19387
0.193923
0.194171
0.194432
0.194651
0.194832
0.194995
0.195155
0.19532
0.195489
0.195662
0.195838
0.196014
0.19619
0.196366
0.205419
0.216604
0.227673
0.238509
0.249068
0.259388
0.269558
0.279551
0.288992
0.297126
0.303116
0.306499
0.307448
0.306682
0.305104
0.303442
0.302074
0.301066
0.300313
0.299676
0.299057
0.29841
0.297724
0.297005
0.296261
0.295496
0.294714
0.293915
0.293102
0.292274
0.291433
0.290584
0.289708
0.331308
0.514667
0.507367
0.644959
1.05601
1.51292
1.92188
2.23002
2.39163
2.37403
2.17532
1.83452
1.42905
1.05022
0.759519
0.564705
0.441587
0.364903
0.316865
0.285718
0.264344
0.24882
0.237057
0.2279
0.220651
0.214844
0.210151
0.206332
0.203209
0.200646
0.198539
0.196805
0.195378
0.194206
0.193243
0.192455
0.191811
0.191288
0.190864
0.190522
0.190249
0.190032
0.189861
0.189728
0.189626
0.189549
0.189492
0.189452
0.189425
0.189409
0.1894
0.189397
0.1894
0.189405
0.189414
0.189424
0.189435
0.189446
0.189458
0.18947
0.189482
0.189493
0.189503
0.189513
0.189522
0.18953
0.189537
0.189544
0.18955
0.189555
0.18956
0.189564
0.189567
0.18957
0.189572
0.189574
0.189576
0.189577
0.189578
0.189579
0.189579
0.189579
0.189579
0.189578
0.189578
0.189577
0.189576
0.189576
0.189575
0.189573
0.189572
0.189571
0.18957
0.189569
0.189567
0.189566
0.189565
0.189563
0.189562
0.189558
0.244286
0.295081
0.441178
0.699796
1.02855
1.3705
1.67628
1.91046
2.03642
2.02317
1.86381
1.58657
1.25349
0.938961
0.694001
0.527518
0.421717
0.355282
0.312484
0.283619
0.263227
0.248245
0.236874
0.228021
0.221001
0.21536
0.210782
0.207038
0.203959
0.201413
0.199304
0.197552
0.196096
0.194885
0.193879
0.193044
0.192352
0.191779
0.191307
0.190919
0.190601
0.190341
0.190131
0.18996
0.189824
0.189715
0.189629
0.189561
0.189509
0.18947
0.18944
0.189419
0.189404
0.189394
0.189388
0.189385
0.189385
0.189386
0.189388
0.189392
0.189395
0.189399
0.189403
0.189407
0.189411
0.189415
0.189418
0.189421
0.189424
0.189426
0.189428
0.189429
0.189431
0.189432
0.189432
0.189433
0.189433
0.189433
0.189433
0.189432
0.189432
0.189431
0.18943
0.189429
0.189428
0.189427
0.189425
0.189424
0.189423
0.189421
0.18942
0.189419
0.189417
0.189415
0.189414
0.189412
0.189411
0.189409
0.189408
0.189404
0.280104
0.346837
0.470281
0.673028
0.93204
1.19765
1.43278
1.61305
1.71132
1.70256
1.57855
1.35899
1.09185
0.83612
0.633481
0.493458
0.403415
0.345902
0.307668
0.280954
0.261612
0.24724
0.236294
0.227762
0.220986
0.215531
0.211093
0.207453
0.204447
0.201952
0.199872
0.198133
0.196677
0.195455
0.19443
0.19357
0.192848
0.192243
0.191736
0.191312
0.190959
0.190664
0.190419
0.190215
0.190047
0.189908
0.189794
0.1897
0.189623
0.18956
0.18951
0.189468
0.189435
0.189409
0.189387
0.18937
0.189357
0.189346
0.189338
0.189331
0.189326
0.189322
0.189319
0.189316
0.189314
0.189312
0.189311
0.189309
0.189308
0.189307
0.189306
0.189304
0.189303
0.189302
0.1893
0.189299
0.189297
0.189296
0.189294
0.189293
0.189291
0.189289
0.189288
0.189286
0.189284
0.189283
0.189281
0.189279
0.189277
0.189275
0.189274
0.189272
0.18927
0.189268
0.189267
0.189265
0.189263
0.189261
0.18926
0.189256
0.29152
0.355094
0.462328
0.623559
0.821006
1.0234
1.20427
1.34359
1.42083
1.41682
1.32364
1.15456
0.94556
0.742221
0.577965
0.462179
0.386257
0.33652
0.302353
0.277735
0.259527
0.245837
0.23535
0.227152
0.220628
0.215366
0.211079
0.207556
0.204641
0.202214
0.200185
0.198482
0.197049
0.195839
0.194818
0.193954
0.193223
0.192604
0.19208
0.191637
0.191262
0.190945
0.190676
0.19045
0.190259
0.190098
0.189962
0.189847
0.189751
0.189669
0.189601
0.189543
0.189495
0.189454
0.189419
0.18939
0.189365
0.189344
0.189326
0.18931
0.189297
0.189286
0.189276
0.189267
0.189259
0.189253
0.189246
0.189241
0.189236
0.189231
0.189227
0.189223
0.189219
0.189216
0.189213
0.189209
0.189206
0.189204
0.189201
0.189198
0.189195
0.189193
0.18919
0.189188
0.189186
0.189183
0.189181
0.189179
0.189177
0.189175
0.189173
0.18917
0.189168
0.189166
0.189164
0.189163
0.189161
0.189159
0.189157
0.189153
0.291209
0.34726
0.434063
0.557492
0.706269
0.859493
0.997897
1.10575
1.16748
1.16846
1.10161
0.97543
0.816198
0.658266
0.52786
0.433641
0.37012
0.327143
0.296645
0.27408
0.257074
0.244126
0.234129
0.226275
0.220006
0.214939
0.210803
0.2074
0.204579
0.202228
0.200258
0.198601
0.197203
0.19602
0.195017
0.194164
0.193439
0.192822
0.192296
0.191847
0.191465
0.191138
0.190859
0.190621
0.190418
0.190244
0.190095
0.189968
0.189859
0.189766
0.189686
0.189617
0.189558
0.189507
0.189463
0.189425
0.189392
0.189363
0.189338
0.189317
0.189297
0.189281
0.189266
0.189252
0.189241
0.18923
0.189221
0.189212
0.189204
0.189197
0.189191
0.189185
0.189179
0.189174
0.189169
0.189165
0.18916
0.189157
0.189153
0.189149
0.189146
0.189143
0.18914
0.189137
0.189134
0.189131
0.189129
0.189126
0.189124
0.189121
0.189119
0.189117
0.189114
0.189112
0.18911
0.189108
0.189106
0.189104
0.189103
0.189098
0.283555
0.329904
0.397809
0.490404
0.600442
0.714472
0.819142
0.902525
0.952706
0.958357
0.913211
0.822383
0.704474
0.584755
0.483313
0.407735
0.354921
0.317835
0.290678
0.270118
0.254355
0.242194
0.232715
0.225219
0.21921
0.214337
0.210351
0.207063
0.204336
0.202059
0.200149
0.198541
0.197182
0.19603
0.195051
0.194218
0.193507
0.1929
0.192381
0.191937
0.191556
0.191229
0.190948
0.190707
0.1905
0.190322
0.190168
0.190035
0.189921
0.189822
0.189736
0.189662
0.189597
0.189541
0.189492
0.18945
0.189412
0.189379
0.18935
0.189325
0.189302
0.189282
0.189264
0.189248
0.189234
0.189221
0.18921
0.189199
0.18919
0.189181
0.189173
0.189166
0.18916
0.189153
0.189148
0.189142
0.189138
0.189133
0.189129
0.189125
0.189121
0.189117
0.189114
0.189111
0.189107
0.189104
0.189102
0.189099
0.189096
0.189094
0.189091
0.189089
0.189087
0.189084
0.189082
0.18908
0.189078
0.189076
0.189074
0.189069
0.273038
0.310045
0.36183
0.429984
0.510057
0.59361
0.671709
0.735752
0.776776
0.785936
0.75775
0.694926
0.610192
0.521615
0.444171
0.384267
0.340589
0.308665
0.284577
0.265959
0.251454
0.240111
0.231173
0.22405
0.218307
0.213632
0.209794
0.206622
0.203984
0.201779
0.199927
0.198366
0.197045
0.195924
0.194972
0.194159
0.193466
0.192873
0.192364
0.191928
0.191554
0.191232
0.190955
0.190717
0.190511
0.190333
0.190179
0.190046
0.189931
0.18983
0.189743
0.189667
0.189601
0.189543
0.189493
0.189448
0.189409
0.189375
0.189344
0.189317
0.189293
0.189272
0.189253
0.189236
0.18922
0.189206
0.189194
0.189183
0.189173
0.189163
0.189155
0.189147
0.18914
0.189133
0.189127
0.189121
0.189116
0.189111
0.189107
0.189102
0.189098
0.189095
0.189091
0.189088
0.189084
0.189081
0.189078
0.189076
0.189073
0.18907
0.189068
0.189065
0.189063
0.189061
0.189058
0.189056
0.189054
0.189052
0.189051
0.189046
0.262198
0.291254
0.330364
0.380236
0.438095
0.498704
0.556286
0.604938
0.638142
0.649119
0.63322
0.591539
0.532404
0.468299
0.410082
0.363026
0.327069
0.299696
0.278443
0.261692
0.248435
0.237924
0.229545
0.222809
0.217342
0.212869
0.209182
0.206125
0.203576
0.201442
0.199646
0.19813
0.196846
0.195756
0.194828
0.194036
0.19336
0.192781
0.192285
0.191859
0.191493
0.191178
0.190907
0.190673
0.190471
0.190296
0.190145
0.190014
0.1899
0.189801
0.189715
0.18964
0.189574
0.189516
0.189466
0.189422
0.189382
0.189348
0.189317
0.18929
0.189266
0.189245
0.189225
0.189208
0.189193
0.189179
0.189166
0.189155
0.189144
0.189135
0.189126
0.189118
0.189111
0.189104
0.189098
0.189092
0.189087
0.189082
0.189077
0.189073
0.189069
0.189065
0.189062
0.189058
0.189055
0.189052
0.189049
0.189046
0.189043
0.18904
0.189038
0.189035
0.189033
0.189031
0.189029
0.189026
0.189024
0.189022
0.189021
0.189016
0.252297
0.275052
0.304685
0.341432
0.3835
0.427575
0.469915
0.506566
0.532968
0.544143
0.536369
0.509771
0.469506
0.423882
0.380567
0.343815
0.314341
0.290993
0.272358
0.257386
0.245349
0.235669
0.22786
0.221521
0.216339
0.212074
0.208543
0.205603
0.203145
0.20108
0.19934
0.197869
0.196621
0.19556
0.194656
0.193884
0.193225
0.19266
0.192176
0.19176
0.191403
0.191095
0.19083
0.190602
0.190404
0.190233
0.190086
0.189958
0.189846
0.18975
0.189666
0.189592
0.189528
0.189472
0.189422
0.189379
0.189341
0.189307
0.189277
0.18925
0.189227
0.189206
0.189187
0.18917
0.189155
0.189141
0.189129
0.189117
0.189107
0.189098
0.189089
0.189081
0.189074
0.189068
0.189062
0.189056
0.189051
0.189046
0.189041
0.189037
0.189033
0.189029
0.189025
0.189022
0.189019
0.189016
0.189013
0.18901
0.189007
0.189004
0.189002
0.188999
0.188997
0.188995
0.188992
0.18899
0.188988
0.188986
0.188984
0.18898
0.243747
0.261676
0.284385
0.311895
0.343001
0.375533
0.406978
0.434639
0.45538
0.465698
0.462802
0.44635
0.419362
0.387176
0.355092
0.326472
0.302412
0.282618
0.26639
0.253096
0.242234
0.233373
0.226135
0.220201
0.215311
0.21126
0.207889
0.20507
0.202704
0.200711
0.199027
0.1976
0.196388
0.195356
0.194476
0.193724
0.193081
0.19253
0.192057
0.191651
0.191302
0.191002
0.190743
0.19052
0.190327
0.190161
0.190017
0.189892
0.189784
0.18969
0.189608
0.189537
0.189474
0.18942
0.189372
0.18933
0.189293
0.18926
0.189231
0.189205
0.189182
0.189162
0.189144
0.189127
0.189113
0.189099
0.189087
0.189077
0.189067
0.189058
0.189049
0.189042
0.189035
0.189028
0.189022
0.189017
0.189012
0.189007
0.189002
0.188998
0.188994
0.18899
0.188987
0.188983
0.18898
0.188977
0.188974
0.188971
0.188969
0.188966
0.188963
0.188961
0.188959
0.188956
0.188954
0.188952
0.18895
0.188947
0.188946
0.188941
0.236526
0.250793
0.26845
0.289432
0.312913
0.337426
0.361212
0.382357
0.398666
0.407718
0.407514
0.397571
0.379581
0.356895
0.333125
0.310864
0.291303
0.274628
0.260594
0.248868
0.239125
0.23106
0.224389
0.218861
0.214267
0.210435
0.207227
0.204532
0.202261
0.200342
0.198715
0.197333
0.196157
0.195154
0.194297
0.193565
0.192938
0.1924
0.191938
0.191542
0.191201
0.190908
0.190656
0.190438
0.19025
0.190088
0.189948
0.189826
0.189721
0.18963
0.18955
0.189481
0.18942
0.189368
0.189321
0.189281
0.189245
0.189213
0.189185
0.189161
0.189139
0.189119
0.189101
0.189086
0.189071
0.189059
0.189047
0.189037
0.189027
0.189018
0.18901
0.189003
0.188996
0.18899
0.188984
0.188979
0.188974
0.188969
0.188965
0.18896
0.188956
0.188953
0.188949
0.188946
0.188943
0.18894
0.188937
0.188934
0.188931
0.188929
0.188926
0.188924
0.188921
0.188919
0.188917
0.188914
0.188912
0.18891
0.188909
0.188903
0.230454
0.241928
0.255856
0.272143
0.290212
0.309049
0.327391
0.343831
0.356788
0.364569
0.365761
0.359894
0.347891
0.331841
0.314183
0.296876
0.281036
0.267075
0.255019
0.244739
0.23605
0.22875
0.222634
0.217511
0.213214
0.209603
0.206562
0.203993
0.201818
0.199973
0.198405
0.197069
0.19593
0.194956
0.194124
0.19341
0.192799
0.192275
0.191825
0.191438
0.191105
0.190819
0.190572
0.19036
0.190177
0.190019
0.189882
0.189764
0.189661
0.189572
0.189495
0.189428
0.18937
0.189318
0.189274
0.189234
0.1892
0.189169
0.189142
0.189119
0.189097
0.189078
0.189062
0.189046
0.189033
0.189021
0.189009
0.188999
0.18899
0.188982
0.188974
0.188967
0.18896
0.188954
0.188949
0.188943
0.188938
0.188934
0.18893
0.188925
0.188922
0.188918
0.188915
0.188911
0.188908
0.188905
0.188902
0.188899
0.188897
0.188894
0.188891
0.188889
0.188887
0.188884
0.188882
0.18888
0.188878
0.188875
0.188874
0.188869
0.225331
0.234652
0.245778
0.258615
0.272746
0.287456
0.301825
0.314802
0.325223
0.331874
0.333744
0.330424
0.32241
0.311003
0.297849
0.284399
0.271618
0.259995
0.249701
0.240742
0.233037
0.226464
0.220885
0.216159
0.212158
0.208768
0.205894
0.203453
0.201377
0.199608
0.198099
0.19681
0.195708
0.194764
0.193955
0.193262
0.192667
0.192156
0.191716
0.191339
0.191014
0.190735
0.190494
0.190287
0.190108
0.189954
0.189821
0.189705
0.189606
0.189519
0.189444
0.189379
0.189323
0.189273
0.18923
0.189192
0.189158
0.189129
0.189103
0.18908
0.18906
0.189042
0.189025
0.189011
0.188998
0.188986
0.188975
0.188966
0.188957
0.188949
0.188941
0.188934
0.188928
0.188922
0.188917
0.188911
0.188907
0.188902
0.188898
0.188894
0.18889
0.188887
0.188883
0.18888
0.188877
0.188874
0.188871
0.188868
0.188865
0.188863
0.18886
0.188858
0.188855
0.188853
0.188851
0.188849
0.188846
0.188844
0.188843
0.188838
0.220982
0.228621
0.237608
0.247855
0.259055
0.270693
0.282088
0.292454
0.300921
0.306601
0.308755
0.307041
0.301712
0.293584
0.283766
0.27332
0.263041
0.253412
0.244671
0.236905
0.230107
0.224219
0.219153
0.214813
0.211103
0.207934
0.205227
0.202915
0.200938
0.199246
0.197797
0.196556
0.195491
0.194577
0.193793
0.193119
0.19254
0.192042
0.191614
0.191246
0.190929
0.190656
0.190421
0.190219
0.190044
0.189894
0.189764
0.189652
0.189555
0.189471
0.189398
0.189335
0.18928
0.189232
0.18919
0.189153
0.189121
0.189093
0.189068
0.189046
0.189026
0.189008
0.188993
0.188979
0.188966
0.188955
0.188945
0.188935
0.188927
0.188919
0.188912
0.188905
0.188899
0.188893
0.188888
0.188883
0.188878
0.188874
0.18887
0.188866
0.188862
0.188859
0.188855
0.188852
0.188849
0.188846
0.188843
0.18884
0.188838
0.188835
0.188832
0.18883
0.188828
0.188825
0.188823
0.188821
0.188819
0.188816
0.188815
0.18881
0.217268
0.223578
0.230907
0.239175
0.248153
0.257459
0.266588
0.274946
0.28188
0.286732
0.28895
0.288251
0.284752
0.278962
0.271628
0.263522
0.255279
0.247334
0.239948
0.233249
0.22728
0.22203
0.217452
0.213484
0.210057
0.207104
0.204564
0.20238
0.200502
0.198887
0.197499
0.196305
0.195279
0.194395
0.193635
0.192981
0.192418
0.191934
0.191516
0.191157
0.190848
0.190582
0.190353
0.190155
0.189985
0.189838
0.189712
0.189602
0.189508
0.189426
0.189355
0.189294
0.18924
0.189194
0.189153
0.189118
0.189087
0.18906
0.189035
0.189014
0.188995
0.188978
0.188963
0.18895
0.188938
0.188927
0.188917
0.188908
0.1889
0.188892
0.188885
0.188879
0.188873
0.188867
0.188862
0.188857
0.188853
0.188849
0.188845
0.188841
0.188837
0.188834
0.18883
0.188827
0.188824
0.188821
0.188818
0.188815
0.188813
0.18881
0.188808
0.188805
0.188803
0.1888
0.188798
0.188796
0.188794
0.188792
0.18879
0.188785
0.214077
0.219326
0.225353
0.232088
0.239354
0.246867
0.254245
0.261039
0.266756
0.270904
0.273063
0.273002
0.270758
0.266646
0.26117
0.254887
0.248292
0.24176
0.235543
0.22979
0.224573
0.219912
0.215791
0.212177
0.209024
0.206283
0.203906
0.201849
0.20007
0.198533
0.197206
0.19606
0.195071
0.194219
0.193483
0.192849
0.192302
0.19183
0.191424
0.191074
0.190772
0.190513
0.190289
0.190096
0.18993
0.189787
0.189663
0.189556
0.189464
0.189385
0.189316
0.189256
0.189205
0.189159
0.18912
0.189086
0.189056
0.189029
0.189006
0.188986
0.188968
0.188951
0.188937
0.188924
0.188912
0.188902
0.188892
0.188884
0.188876
0.188868
0.188862
0.188855
0.18885
0.188844
0.188839
0.188834
0.18883
0.188826
0.188822
0.188818
0.188815
0.188811
0.188808
0.188805
0.188802
0.188799
0.188796
0.188793
0.18879
0.188788
0.188785
0.188783
0.18878
0.188778
0.188776
0.188774
0.188771
0.188769
0.188768
0.188762
0.211322
0.215717
0.22071
0.226242
0.232175
0.238291
0.244302
0.249866
0.254609
0.258159
0.260195
0.260526
0.259146
0.256245
0.252162
0.247297
0.242031
0.236677
0.231463
0.22654
0.221997
0.217875
0.214181
0.210902
0.208011
0.205474
0.203257
0.201325
0.199644
0.198184
0.196917
0.195819
0.194869
0.194047
0.193335
0.192721
0.19219
0.191732
0.191336
0.190995
0.190701
0.190447
0.190229
0.190041
0.189878
0.189739
0.189618
0.189514
0.189425
0.189347
0.18928
0.189222
0.189172
0.189128
0.18909
0.189057
0.189028
0.189002
0.18898
0.18896
0.188942
0.188927
0.188913
0.1889
0.188889
0.188879
0.18887
0.188861
0.188854
0.188847
0.18884
0.188834
0.188829
0.188823
0.188818
0.188814
0.18881
0.188805
0.188802
0.188798
0.188794
0.188791
0.188788
0.188785
0.188782
0.188779
0.188776
0.188773
0.18877
0.188768
0.188765
0.188763
0.188761
0.188758
0.188756
0.188754
0.188751
0.188749
0.188748
0.188742
0.208935
0.212636
0.216802
0.22138
0.226263
0.231281
0.236215
0.240804
0.244762
0.247806
0.249689
0.250251
0.249463
0.247439
0.244403
0.240641
0.236443
0.232064
0.227703
0.223505
0.219562
0.215929
0.212629
0.209664
0.207022
0.204682
0.20262
0.200809
0.199224
0.19784
0.196634
0.195584
0.194671
0.193879
0.193192
0.192597
0.192082
0.191637
0.191252
0.19092
0.190633
0.190386
0.190173
0.189989
0.189831
0.189694
0.189577
0.189475
0.189388
0.189312
0.189247
0.18919
0.189141
0.189099
0.189062
0.18903
0.189002
0.188977
0.188955
0.188936
0.188919
0.188904
0.188891
0.188879
0.188868
0.188858
0.188849
0.188841
0.188834
0.188827
0.188821
0.188815
0.18881
0.188805
0.1888
0.188795
0.188791
0.188787
0.188783
0.18878
0.188776
0.188773
0.18877
0.188766
0.188763
0.188761
0.188758
0.188755
0.188752
0.18875
0.188747
0.188745
0.188743
0.18874
0.188738
0.188736
0.188733
0.188731
0.18873
0.188724
0.206857
0.209992
0.21349
0.217307
0.221355
0.225503
0.229583
0.233393
0.236715
0.239332
0.24105
0.241738
0.241357
0.239967
0.237718
0.234814
0.231472
0.227897
0.224258
0.220686
0.217274
0.214082
0.211143
0.208469
0.206061
0.203909
0.201996
0.200303
0.198813
0.197503
0.196356
0.195353
0.194478
0.193716
0.193054
0.192478
0.191979
0.191547
0.191173
0.190849
0.19057
0.190328
0.19012
0.189941
0.189786
0.189653
0.189538
0.189439
0.189353
0.18928
0.189216
0.189161
0.189114
0.189072
0.189037
0.189005
0.188978
0.188954
0.188933
0.188915
0.188898
0.188884
0.188871
0.188859
0.188849
0.18884
0.188831
0.188823
0.188816
0.188809
0.188803
0.188798
0.188792
0.188788
0.188783
0.188778
0.188774
0.18877
0.188767
0.188763
0.18876
0.188756
0.188753
0.18875
0.188747
0.188744
0.188742
0.188739
0.188736
0.188734
0.188731
0.188729
0.188726
0.188724
0.188722
0.188719
0.188717
0.188715
0.188713
0.188708
0.205045
0.207715
0.21067
0.213873
0.217252
0.220707
0.224104
0.227288
0.230093
0.232349
0.233904
0.234651
0.234543
0.233613
0.231957
0.229719
0.227061
0.224146
0.221114
0.218082
0.215136
0.212338
0.209727
0.207323
0.205134
0.203158
0.201388
0.19981
0.19841
0.197173
0.196084
0.195128
0.19429
0.193558
0.19292
0.192363
0.19188
0.19146
0.191096
0.190781
0.190509
0.190274
0.190071
0.189895
0.189744
0.189614
0.189502
0.189405
0.189322
0.18925
0.189188
0.189134
0.189088
0.189048
0.189013
0.188983
0.188956
0.188933
0.188913
0.188895
0.188879
0.188865
0.188853
0.188842
0.188832
0.188822
0.188814
0.188807
0.1888
0.188793
0.188787
0.188782
0.188777
0.188772
0.188767
0.188763
0.188759
0.188755
0.188752
0.188748
0.188745
0.188741
0.188738