/*--------------------------------*- C++ -*----------------------------------*\
  =========                 |
  \\      /  F ield         | OpenFOAM: The Open Source CFD Toolbox
   \\    /   O peration     | Website:  https://openfoam.org
    \\  /    A nd           | Version:  10
     \\/     M anipulation  |
\*---------------------------------------------------------------------------*/
FoamFile
{
    format      ascii;
    class       volScalarField;
    location    "0.005";
    object      nut;
}
// * * * * * * * * * * * * * * * * * * * * * * * * * * * * * * * * * * * * * //

dimensions      [0 2 -1 0 0 0 0];

internalField   nonuniform List<scalar> 
6820
(
0.000149483
0.000144852
0.000140594
0.000136604
0.000132807
0.000129216
0.000126085
0.000123892
0.000122991
0.000123192
0.00012374
0.000123769
0.000122853
0.000121172
0.000119279
0.00011771
0.000116734
0.00011633
0.00011632
0.000116509
0.000116762
0.00011702
0.000117276
0.000117544
0.000117846
0.000118202
0.000118628
0.000119177
0.00011977
0.000120939
0.00012077
0.000128274
0.000104064
0.000729185
0.00053261
0.00044848
0.000400406
0.000369179
0.000347566
0.00033253
0.000323114
0.000318862
0.00031852
0.000319806
0.000320384
0.000319027
0.000316038
0.000312616
0.000309933
0.000308581
0.000308543
0.000309455
0.000310916
0.000312659
0.000314585
0.000316717
0.000319145
0.000321996
0.000325429
0.000329649
0.000334954
0.000341793
0.000350892
0.000363665
0.000381565
0.000415577
0.000976795
0.00087224
0.000781821
0.000711658
0.000657902
0.000616244
0.0005842
0.000561036
0.00054643
0.000538908
0.000535475
0.00053285
0.000529171
0.000524526
0.0005201
0.000517069
0.000515944
0.00051657
0.000518468
0.000521157
0.000524335
0.00052791
0.000531946
0.000536604
0.000542115
0.000548778
0.000556997
0.000567362
0.000580726
0.000598543
0.000622989
0.000658049
0.000712071
0.00101348
0.000988223
0.000949378
0.000906239
0.000864574
0.000827106
0.000795462
0.000771054
0.000754564
0.000744912
0.000739185
0.000734147
0.000728155
0.000721625
0.000715987
0.000712423
0.000711261
0.000712142
0.000714462
0.000717696
0.000721541
0.000725917
0.000730913
0.000736727
0.000743645
0.000752043
0.000762434
0.000775551
0.000792454
0.000814789
0.000845066
0.000886905
0.000947731
0.00101671
0.00101243
0.00100191
0.000985553
0.000965412
0.000944175
0.000924677
0.000909349
0.000899347
0.000893802
0.000890037
0.000885217
0.000878287
0.000870296
0.000863222
0.000858523
0.000856555
0.000856878
0.000858807
0.000861766
0.00086542
0.000869665
0.00087458
0.000880363
0.00088731
0.000895816
0.000906417
0.000919863
0.000937221
0.000960041
0.000990621
0.00103186
0.00108941
0.00101676
0.00101593
0.00101359
0.00100883
0.0010016
0.000993159
0.000985729
0.000981313
0.000980449
0.00098169
0.000982149
0.000979243
0.000972436
0.000963458
0.000954931
0.00094876
0.000945515
0.000944804
0.000945905
0.000948177
0.00095122
0.000954881
0.000959203
0.000964365
0.000970649
0.000978434
0.000988233
0.00100074
0.00101693
0.00103813
0.00106623
0.00110345
0.00115369
0.00101671
0.00101625
0.00101554
0.00101406
0.00101163
0.0010092
0.00100869
0.00101165
0.00101781
0.00102488
0.0010294
0.0010287
0.0010225
0.001013
0.00100334
0.000995853
0.000991385
0.000989648
0.000989919
0.000991501
0.000993927
0.000996986
0.00100068
0.00100517
0.0010107
0.00101763
0.00102641
0.00103767
0.00105223
0.00107118
0.00109598
0.00112828
0.00117066
0.0010167
0.00101625
0.00101576
0.00101495
0.00101381
0.0010134
0.00101569
0.00102214
0.00103212
0.0010427
0.00104995
0.00105092
0.00104537
0.00103569
0.00102534
0.00101696
0.0010116
0.0010091
0.00100876
0.00100983
0.00101181
0.00101443
0.00101767
0.00102164
0.00102658
0.00103279
0.00104068
0.00105079
0.00106378
0.00108052
0.0011021
0.0011297
0.001165
0.0010167
0.00101624
0.00101577
0.00101505
0.00101417
0.00101425
0.00101739
0.00102509
0.00103663
0.00104887
0.00105758
0.00105959
0.00105454
0.00104488
0.00103419
0.00102528
0.00101937
0.00101639
0.00101564
0.0010164
0.0010181
0.00102044
0.00102338
0.001027
0.0010315
0.00103717
0.00104434
0.00105346
0.00106507
0.00107982
0.00109853
0.00112202
0.00115137
0.0010167
0.00101624
0.00101576
0.00101506
0.00101421
0.00101437
0.00101767
0.00102568
0.00103773
0.00105062
0.00106003
0.00106263
0.00105795
0.00104838
0.00103754
0.00102834
0.0010221
0.00101881
0.00101782
0.00101837
0.00101989
0.00102206
0.0010248
0.00102816
0.00103234
0.00103756
0.00104412
0.00105238
0.00106276
0.00107577
0.00109199
0.00111199
0.00113645
0.0010167
0.00101624
0.00101576
0.00101506
0.00101421
0.00101436
0.00101764
0.00102567
0.00103783
0.00105098
0.00106073
0.00106371
0.0010593
0.00104983
0.00103893
0.00102955
0.00102309
0.00101959
0.00101842
0.00101883
0.00102023
0.00102227
0.00102485
0.00102801
0.0010319
0.00103673
0.00104274
0.00105022
0.00105951
0.00107098
0.00108505
0.00110211
0.00112258
0.0010167
0.00101624
0.00101576
0.00101507
0.00101421
0.00101433
0.00101756
0.00102554
0.00103771
0.00105096
0.00106095
0.00106419
0.00106
0.00105063
0.00103968
0.00103017
0.00102354
0.00101988
0.00101858
0.00101888
0.00102018
0.00102211
0.00102454
0.00102752
0.00103115
0.00103561
0.00104112
0.00104789
0.00105619
0.0010663
0.00107851
0.0010931
0.00111031
0.0010167
0.00101624
0.00101576
0.00101507
0.00101421
0.00101431
0.00101749
0.0010254
0.00103755
0.00105088
0.00106103
0.0010645
0.00106049
0.0010512
0.00104023
0.00103061
0.00102384
0.00102004
0.00101862
0.00101882
0.00102003
0.00102186
0.00102417
0.00102696
0.00103035
0.00103447
0.0010395
0.00104562
0.00105303
0.00106194
0.00107255
0.00108505
0.00109959
0.0010167
0.00101624
0.00101577
0.00101507
0.00101422
0.0010143
0.00101743
0.00102528
0.0010374
0.00105079
0.00106109
0.00106474
0.00106089
0.00105168
0.00104067
0.00103095
0.00102405
0.00102013
0.00101861
0.00101873
0.00101986
0.0010216
0.00102378
0.0010264
0.00102955
0.00103335
0.00103794
0.00104346
0.00105007
0.00105792
0.00106716
0.0010779
0.00109023
0.0010167
0.00101624
0.00101577
0.00101508
0.00101422
0.00101429
0.00101737
0.00102517
0.00103727
0.00105071
0.00106114
0.00106495
0.00106123
0.00105207
0.00104103
0.00103122
0.00102421
0.00102018
0.00101858
0.00101862
0.00101967
0.00102132
0.00102339
0.00102585
0.00102877
0.00103227
0.00103644
0.00104142
0.00104732
0.00105424
0.0010623
0.00107155
0.00108205
0.0010167
0.00101624
0.00101577
0.00101508
0.00101423
0.00101428
0.00101732
0.00102508
0.00103715
0.00105063
0.00106117
0.00106512
0.00106152
0.00105239
0.00104132
0.00103143
0.00102431
0.00102019
0.00101851
0.00101849
0.00101947
0.00102104
0.00102299
0.00102529
0.00102801
0.00103122
0.00103502
0.00103951
0.00104476
0.00105087
0.0010579
0.0010659
0.00107487
0.0010167
0.00101624
0.00101577
0.00101508
0.00101423
0.00101427
0.00101728
0.00102499
0.00103705
0.00105056
0.00106119
0.00106526
0.00106174
0.00105265
0.00104154
0.00103156
0.00102436
0.00102015
0.0010184
0.00101832
0.00101925
0.00102073
0.00102258
0.00102474
0.00102726
0.0010302
0.00103366
0.0010377
0.00104239
0.00104779
0.00105394
0.00106086
0.00106856
0.0010167
0.00101624
0.00101577
0.00101509
0.00101423
0.00101426
0.00101725
0.00102491
0.00103695
0.00105049
0.0010612
0.00106537
0.00106192
0.00105284
0.00104169
0.00103164
0.00102435
0.00102008
0.00101826
0.00101813
0.001019
0.00102041
0.00102216
0.00102418
0.00102652
0.00102922
0.00103237
0.00103601
0.00104019
0.00104497
0.00105035
0.00105637
0.00106299
0.0010167
0.00101624
0.00101577
0.00101509
0.00101424
0.00101426
0.00101721
0.00102484
0.00103686
0.00105042
0.0010612
0.00106545
0.00106206
0.00105298
0.00104179
0.00103167
0.0010243
0.00101996
0.0010181
0.00101792
0.00101874
0.00102008
0.00102173
0.00102363
0.00102579
0.00102828
0.00103113
0.00103442
0.00103816
0.00104239
0.00104712
0.00105236
0.00105808
0.0010167
0.00101624
0.00101577
0.00101509
0.00101424
0.00101425
0.00101718
0.00102478
0.00103677
0.00105035
0.00106119
0.00106551
0.00106216
0.00105307
0.00104184
0.00103165
0.00102422
0.00101982
0.00101791
0.00101769
0.00101846
0.00101974
0.0010213
0.00102308
0.00102509
0.00102737
0.00102997
0.00103293
0.00103628
0.00104003
0.0010442
0.00104878
0.00105374
0.0010167
0.00101624
0.00101577
0.0010151
0.00101425
0.00101425
0.00101716
0.00102472
0.0010367
0.00105029
0.00106118
0.00106555
0.00106223
0.00105314
0.00104185
0.0010316
0.0010241
0.00101965
0.0010177
0.00101744
0.00101817
0.00101939
0.00102088
0.00102254
0.0010244
0.0010265
0.00102887
0.00103155
0.00103455
0.00103789
0.00104157
0.00104558
0.00104989
0.0010167
0.00101624
0.00101578
0.0010151
0.00101425
0.00101425
0.00101714
0.00102467
0.00103662
0.00105023
0.00106116
0.00106558
0.00106228
0.00105317
0.00104184
0.00103153
0.00102397
0.00101947
0.00101748
0.00101719
0.00101788
0.00101905
0.00102045
0.00102202
0.00102375
0.00102567
0.00102784
0.00103026
0.00103296
0.00103593
0.00103919
0.00104272
0.00104649
0.0010167
0.00101624
0.00101578
0.0010151
0.00101426
0.00101425
0.00101712
0.00102462
0.00103656
0.00105017
0.00106113
0.00106559
0.00106231
0.00105318
0.00104181
0.00103145
0.00102384
0.00101929
0.00101727
0.00101695
0.00101759
0.00101871
0.00102004
0.00102151
0.00102312
0.0010249
0.00102687
0.00102907
0.0010315
0.00103416
0.00103706
0.00104017
0.00104348
0.0010167
0.00101624
0.00101578
0.0010151
0.00101426
0.00101425
0.0010171
0.00102458
0.00103649
0.00105011
0.0010611
0.0010656
0.00106233
0.00105319
0.00104178
0.00103136
0.0010237
0.00101912
0.00101706
0.00101671
0.00101732
0.00101838
0.00101965
0.00102104
0.00102253
0.00102417
0.00102598
0.00102798
0.00103017
0.00103256
0.00103514
0.00103789
0.00104081
0.0010167
0.00101624
0.00101578
0.00101511
0.00101426
0.00101424
0.00101708
0.00102453
0.00103643
0.00105005
0.00106107
0.0010656
0.00106234
0.00105319
0.00104174
0.00103128
0.00102357
0.00101895
0.00101686
0.00101648
0.00101706
0.00101808
0.00101928
0.00102059
0.00102198
0.0010235
0.00102516
0.00102697
0.00102896
0.00103111
0.00103342
0.00103587
0.00103845
0.0010167
0.00101624
0.00101578
0.00101511
0.00101427
0.00101424
0.00101706
0.00102449
0.00103636
0.00104999
0.00106104
0.00106559
0.00106235
0.00105319
0.00104171
0.0010312
0.00102346
0.0010188
0.00101669
0.00101628
0.00101682
0.00101779
0.00101894
0.00102017
0.00102147
0.00102288
0.0010244
0.00102606
0.00102787
0.00102981
0.00103188
0.00103407
0.00103636
0.0010167
0.00101624
0.00101578
0.00101511
0.00101427
0.00101424
0.00101704
0.00102444
0.0010363
0.00104993
0.001061
0.00106558
0.00106236
0.0010532
0.00104169
0.00103115
0.00102337
0.00101868
0.00101653
0.00101609
0.0010166
0.00101754
0.00101863
0.00101979
0.00102101
0.00102231
0.00102372
0.00102524
0.00102688
0.00102864
0.00103051
0.00103247
0.00103452
0.0010167
0.00101624
0.00101578
0.00101511
0.00101427
0.00101424
0.00101702
0.0010244
0.00103623
0.00104986
0.00106095
0.00106557
0.00106238
0.00105321
0.00104169
0.00103111
0.0010233
0.00101857
0.0010164
0.00101594
0.00101641
0.00101731
0.00101835
0.00101945
0.00102059
0.0010218
0.0010231
0.0010245
0.001026
0.0010276
0.00102929
0.00103106
0.0010329
0.0010167
0.00101624
0.00101578
0.00101511
0.00101427
0.00101424
0.001017
0.00102435
0.00103616
0.00104979
0.0010609
0.00106556
0.00106239
0.00105324
0.0010417
0.0010311
0.00102325
0.0010185
0.0010163
0.00101581
0.00101625
0.00101711
0.00101811
0.00101915
0.00102022
0.00102135
0.00102255
0.00102384
0.00102521
0.00102667
0.00102821
0.00102982
0.00103147
0.0010167
0.00101624
0.00101578
0.00101511
0.00101427
0.00101423
0.00101698
0.0010243
0.00103609
0.00104971
0.00106085
0.00106554
0.00106241
0.00105327
0.00104173
0.00103111
0.00102323
0.00101845
0.00101623
0.00101571
0.00101612
0.00101695
0.0010179
0.00101888
0.00101989
0.00102095
0.00102206
0.00102325
0.00102452
0.00102586
0.00102726
0.00102873
0.00103023
0.0010167
0.00101624
0.00101578
0.00101511
0.00101428
0.00101423
0.00101696
0.00102426
0.00103601
0.00104963
0.00106079
0.00106553
0.00106244
0.00105332
0.00104177
0.00103114
0.00102323
0.00101843
0.00101618
0.00101563
0.00101602
0.00101681
0.00101772
0.00101866
0.00101961
0.0010206
0.00102164
0.00102274
0.00102392
0.00102515
0.00102644
0.00102777
0.00102914
0.0010167
0.00101624
0.00101577
0.00101511
0.00101427
0.00101422
0.00101694
0.0010242
0.00103594
0.00104955
0.00106073
0.00106551
0.00106246
0.00105337
0.00104184
0.00103118
0.00102326
0.00101842
0.00101615
0.00101558
0.00101595
0.0010167
0.00101758
0.00101847
0.00101937
0.0010203
0.00102127
0.0010223
0.00102339
0.00102453
0.00102571
0.00102694
0.0010282
0.0010167
0.00101624
0.00101578
0.00101512
0.00101428
0.00101423
0.00101693
0.00102417
0.00103587
0.00104947
0.00106067
0.00106549
0.00106249
0.00105343
0.0010419
0.00103124
0.0010233
0.00101844
0.00101615
0.00101556
0.0010159
0.00101663
0.00101747
0.00101832
0.00101917
0.00102005
0.00102096
0.00102192
0.00102293
0.00102399
0.00102509
0.00102622
0.00102738
0.0010167
0.00101624
0.00101577
0.00101511
0.00101428
0.00101423
0.00101692
0.00102413
0.0010358
0.0010494
0.00106062
0.00106549
0.00106253
0.00105351
0.001042
0.00103133
0.00102337
0.0010185
0.00101619
0.00101559
0.00101591
0.00101661
0.00101742
0.00101824
0.00101906
0.00101988
0.00102075
0.00102165
0.0010226
0.00102359
0.00102462
0.00102568
0.00102675
0.0010167
0.00101625
0.0010158
0.00101515
0.00101433
0.00101427
0.00101693
0.00102408
0.0010357
0.00104924
0.00106046
0.00106536
0.00106246
0.00105351
0.00104206
0.00103144
0.00102352
0.00101868
0.00101639
0.00101581
0.00101616
0.00101688
0.00101772
0.00101856
0.00101939
0.00102024
0.00102112
0.00102204
0.00102301
0.00102401
0.00102505
0.00102612
0.00102721
0.0010167
0.00101624
0.00101577
0.00101508
0.00101417
0.00101397
0.00101639
0.0010232
0.00103442
0.00104764
0.00105868
0.0010636
0.00106089
0.00105223
0.0010411
0.00103079
0.00102313
0.00101852
0.00101645
0.00101609
0.00101667
0.00101765
0.00101877
0.00101991
0.00102106
0.00102225
0.00102348
0.00102477
0.00102611
0.00102751
0.00102894
0.00103041
0.00103189
0.00101672
0.00101606
0.00101501
0.00101335
0.00101108
0.00100906
0.00100913
0.00101312
0.0010214
0.00103207
0.00104141
0.00104566
0.00104323
0.00103548
0.0010256
0.00101657
0.00101007
0.00100646
0.00100528
0.00100579
0.00100726
0.00100919
0.00101131
0.00101351
0.00101576
0.00101808
0.00102046
0.00102291
0.00102541
0.00102795
0.00103052
0.0010331
0.00103567
0.00101525
0.00100739
0.000996387
0.000982764
0.000967147
0.000950687
0.000935287
0.000923183
0.000915972
0.000913457
0.000913233
0.000911996
0.000907733
0.000900772
0.00089301
0.00088638
0.00088191
0.000879706
0.000879345
0.000880224
0.000881796
0.000883677
0.000885654
0.000887639
0.000889605
0.000891548
0.000893465
0.000895355
0.000897209
0.000899022
0.000900789
0.000902499
0.000904186
0.00093596
0.000815129
0.000727438
0.000656656
0.000597455
0.000547291
0.00050503
0.000471343
0.000447501
0.000433235
0.000425968
0.000422028
0.00041845
0.000413943
0.0004087
0.000403557
0.000399229
0.000395967
0.000393608
0.000391804
0.000390231
0.000388698
0.000387138
0.000385554
0.000383978
0.000382437
0.000380953
0.000379538
0.000378199
0.000376945
0.000375779
0.000374697
0.000373745
0.000125477
0.000128848
0.000132099
0.000135208
0.000138169
0.000140996
0.00014372
0.000146361
0.00014886
0.000151061
0.000152762
0.00015382
0.000154236
0.000154153
0.000153792
0.000153355
0.000152971
0.00015268
0.000152466
0.000152294
0.000152134
0.000151969
0.000151794
0.00015161
0.000151417
0.000151219
0.000151016
0.000150809
0.000150597
0.000150381
0.000150162
0.00014994
0.00014971
0.000117416
0.000170557
0.000291029
0.000897263
0.00166914
0.00229309
0.00285757
0.00321185
0.00334272
0.00329045
0.00309649
0.00280781
0.00249301
0.00223893
0.00209577
0.00198845
0.00178532
0.00153717
0.00135992
0.00126345
0.00121055
0.00117413
0.00114453
0.0011201
0.00110036
0.00108451
0.00107168
0.00106121
0.00105263
0.00104559
0.00103979
0.00103502
0.0010311
0.00102787
0.00102522
0.00102305
0.00102127
0.00101983
0.00101866
0.00101771
0.00101695
0.00101634
0.00101586
0.00101548
0.00101519
0.00101496
0.0010148
0.00101468
0.0010146
0.00101454
0.00101451
0.0010145
0.0010145
0.00101451
0.00101453
0.00101455
0.00101458
0.00101461
0.00101464
0.00101467
0.0010147
0.00101473
0.00101476
0.00101479
0.00101482
0.00101484
0.00101487
0.00101489
0.00101491
0.00101493
0.00101494
0.00101496
0.00101497
0.00101498
0.00101499
0.001015
0.00101501
0.00101502
0.00101503
0.00101503
0.00101504
0.00101504
0.00101505
0.00101505
0.00101505
0.00101506
0.00101506
0.00101506
0.00101506
0.00101506
0.00101506
0.00101507
0.00101507
0.00101507
0.00101507
0.00101507
0.00101507
0.00101507
0.00101507
0.00101507
0.000454101
0.000561669
0.000865777
0.00135907
0.00192497
0.00243739
0.0028449
0.00310602
0.00320418
0.00315186
0.00297507
0.00271179
0.00242097
0.00217514
0.00201196
0.00187577
0.0016879
0.00148827
0.0013451
0.0012609
0.00120998
0.00117358
0.00114443
0.00112068
0.00110151
0.00108602
0.0010734
0.00106305
0.00105451
0.00104745
0.00104161
0.00103676
0.00103274
0.0010294
0.00102664
0.00102435
0.00102247
0.00102091
0.00101963
0.00101858
0.00101773
0.00101703
0.00101647
0.00101602
0.00101565
0.00101537
0.00101514
0.00101497
0.00101484
0.00101474
0.00101467
0.00101461
0.00101458
0.00101456
0.00101455
0.00101455
0.00101456
0.00101457
0.00101458
0.00101459
0.00101461
0.00101463
0.00101464
0.00101466
0.00101468
0.00101469
0.00101471
0.00101472
0.00101473
0.00101474
0.00101475
0.00101476
0.00101477
0.00101478
0.00101479
0.0010148
0.0010148
0.00101481
0.00101481
0.00101482
0.00101482
0.00101482
0.00101483
0.00101483
0.00101483
0.00101483
0.00101483
0.00101483
0.00101484
0.00101484
0.00101484
0.00101484
0.00101484
0.00101484
0.00101484
0.00101484
0.00101484
0.00101484
0.00101484
0.00101484
0.000805928
0.000975257
0.00125404
0.00164012
0.00206985
0.00246578
0.00277775
0.00297717
0.00305072
0.00300149
0.00284484
0.00260968
0.00234466
0.00210876
0.00193158
0.00177883
0.00160899
0.00144788
0.00133098
0.00125668
0.00120791
0.00117203
0.00114357
0.00112059
0.00110203
0.00108697
0.00107465
0.0010645
0.00105608
0.00104908
0.00104324
0.00103837
0.0010343
0.0010309
0.00102805
0.00102567
0.00102369
0.00102203
0.00102065
0.00101951
0.00101856
0.00101778
0.00101713
0.0010166
0.00101617
0.00101581
0.00101552
0.00101529
0.0010151
0.00101496
0.00101484
0.00101474
0.00101467
0.00101462
0.00101458
0.00101455
0.00101453
0.00101451
0.0010145
0.0010145
0.00101449
0.00101449
0.0010145
0.0010145
0.0010145
0.00101451
0.00101451
0.00101452
0.00101452
0.00101453
0.00101453
0.00101454
0.00101454
0.00101454
0.00101455
0.00101455
0.00101455
0.00101456
0.00101456
0.00101456
0.00101456
0.00101456
0.00101456
0.00101456
0.00101457
0.00101457
0.00101457
0.00101457
0.00101457
0.00101457
0.00101457
0.00101457
0.00101457
0.00101457
0.00101457
0.00101457
0.00101457
0.00101457
0.00101457
0.00101456
0.00104597
0.00120948
0.00145152
0.00176131
0.00209667
0.00240818
0.00265679
0.00281766
0.00287826
0.00283741
0.00270362
0.0024982
0.00226017
0.00203696
0.00185409
0.00169629
0.00154496
0.00141344
0.00131655
0.00125049
0.00120418
0.00116929
0.00114173
0.00111959
0.00110169
0.00108712
0.00107516
0.00106527
0.00105705
0.00105018
0.00104443
0.0010396
0.00103554
0.00103212
0.00102924
0.00102681
0.00102477
0.00102304
0.0010216
0.00102038
0.00101936
0.0010185
0.00101778
0.00101718
0.00101668
0.00101626
0.00101592
0.00101563
0.00101539
0.00101519
0.00101503
0.00101489
0.00101478
0.00101469
0.00101462
0.00101456
0.00101451
0.00101447
0.00101444
0.00101441
0.00101439
0.00101437
0.00101436
0.00101435
0.00101434
0.00101434
0.00101433
0.00101433
0.00101432
0.00101432
0.00101432
0.00101432
0.00101431
0.00101431
0.00101431
0.00101431
0.00101431
0.00101431
0.00101431
0.00101431
0.00101431
0.00101431
0.00101431
0.0010143
0.0010143
0.0010143
0.0010143
0.0010143
0.0010143
0.0010143
0.0010143
0.0010143
0.0010143
0.0010143
0.0010143
0.0010143
0.0010143
0.0010143
0.0010143
0.00101429
0.00117975
0.00132255
0.00152151
0.00176898
0.00203581
0.00228692
0.00249197
0.00262928
0.00268616
0.00265831
0.00254933
0.00237438
0.00216432
0.0019576
0.00177844
0.00162557
0.00149248
0.00138345
0.00130167
0.00124258
0.00119899
0.0011655
0.001139
0.00111774
0.00110052
0.00108647
0.0010749
0.00106532
0.00105733
0.00105064
0.00104503
0.00104029
0.00103629
0.00103291
0.00103004
0.00102761
0.00102555
0.0010238
0.00102232
0.00102106
0.00102
0.00101909
0.00101832
0.00101768
0.00101713
0.00101666
0.00101627
0.00101594
0.00101566
0.00101542
0.00101522
0.00101505
0.00101491
0.00101478
0.00101468
0.0010146
0.00101452
0.00101446
0.00101441
0.00101436
0.00101433
0.00101429
0.00101427
0.00101424
0.00101422
0.00101421
0.00101419
0.00101418
0.00101417
0.00101416
0.00101415
0.00101414
0.00101413
0.00101413
0.00101412
0.00101412
0.00101411
0.00101411
0.00101411
0.0010141
0.0010141
0.0010141
0.0010141
0.00101409
0.00101409
0.00101409
0.00101409
0.00101409
0.00101409
0.00101409
0.00101408
0.00101408
0.00101408
0.00101408
0.00101408
0.00101408
0.00101408
0.00101408
0.00101408
0.00101407
0.00123115
0.00135012
0.00151024
0.0017068
0.00191996
0.00212466
0.00229744
0.00241943
0.00247759
0.00246501
0.00238135
0.00223691
0.00205602
0.00187058
0.00170429
0.00156405
0.00144853
0.00135674
0.00128649
0.00123338
0.0011927
0.00116089
0.0011356
0.00111524
0.00109871
0.00108518
0.00107401
0.00106474
0.00105701
0.00105052
0.00104505
0.00104044
0.00103654
0.00103322
0.0010304
0.00102801
0.00102597
0.00102423
0.00102274
0.00102147
0.00102039
0.00101947
0.00101868
0.00101801
0.00101743
0.00101694
0.00101652
0.00101616
0.00101585
0.00101559
0.00101536
0.00101517
0.00101501
0.00101486
0.00101474
0.00101464
0.00101455
0.00101447
0.0010144
0.00101434
0.00101429
0.00101425
0.00101421
0.00101418
0.00101415
0.00101412
0.0010141
0.00101408
0.00101406
0.00101405
0.00101404
0.00101402
0.00101401
0.001014
0.001014
0.00101399
0.00101398
0.00101398
0.00101397
0.00101397
0.00101396
0.00101396
0.00101395
0.00101395
0.00101395
0.00101394
0.00101394
0.00101394
0.00101394
0.00101394
0.00101393
0.00101393
0.00101393
0.00101393
0.00101393
0.00101393
0.00101393
0.00101393
0.00101393
0.00101392
0.00123481
0.00133123
0.00145772
0.00161166
0.00178023
0.00194597
0.00209129
0.00220036
0.00226033
0.00226223
0.00220269
0.00208819
0.00193789
0.00177854
0.00163242
0.00150958
0.00141056
0.00133236
0.00127117
0.00122331
0.00118563
0.00115571
0.00113171
0.0011123
0.00109647
0.00108346
0.0010727
0.00106374
0.00105625
0.00104996
0.00104466
0.00104017
0.00103637
0.00103314
0.00103039
0.00102804
0.00102604
0.00102432
0.00102286
0.00102161
0.00102053
0.00101961
0.00101882
0.00101814
0.00101756
0.00101706
0.00101663
0.00101626
0.00101594
0.00101566
0.00101543
0.00101522
0.00101505
0.00101489
0.00101476
0.00101464
0.00101454
0.00101446
0.00101438
0.00101432
0.00101426
0.00101421
0.00101416
0.00101412
0.00101409
0.00101406
0.00101403
0.00101401
0.00101399
0.00101397
0.00101395
0.00101394
0.00101393
0.00101392
0.0010139
0.0010139
0.00101389
0.00101388
0.00101387
0.00101387
0.00101386
0.00101386
0.00101385
0.00101385
0.00101385
0.00101384
0.00101384
0.00101384
0.00101383
0.00101383
0.00101383
0.00101383
0.00101383
0.00101382
0.00101382
0.00101382
0.00101382
0.00101382
0.00101382
0.00101381
0.00121734
0.00129439
0.00139314
0.00151203
0.00164294
0.00177422
0.00189347
0.00198833
0.00204713
0.00206003
0.00202169
0.00193559
0.00181651
0.00168627
0.00156427
0.00146063
0.00137667
0.00130956
0.00125584
0.00121272
0.00117806
0.00115012
0.0011275
0.00110908
0.00109396
0.00108149
0.00107113
0.00106248
0.00105524
0.00104914
0.00104399
0.00103963
0.00103593
0.00103279
0.0010301
0.00102781
0.00102586
0.00102418
0.00102275
0.00102152
0.00102046
0.00101955
0.00101877
0.0010181
0.00101753
0.00101703
0.0010166
0.00101623
0.00101591
0.00101563
0.00101539
0.00101519
0.00101501
0.00101485
0.00101471
0.0010146
0.00101449
0.0010144
0.00101432
0.00101426
0.0010142
0.00101414
0.0010141
0.00101405
0.00101402
0.00101399
0.00101396
0.00101393
0.00101391
0.00101389
0.00101387
0.00101386
0.00101384
0.00101383
0.00101382
0.00101381
0.0010138
0.00101379
0.00101378
0.00101378
0.00101377
0.00101377
0.00101376
0.00101376
0.00101375
0.00101375
0.00101375
0.00101374
0.00101374
0.00101374
0.00101374
0.00101374
0.00101373
0.00101373
0.00101373
0.00101373
0.00101373
0.00101373
0.00101373
0.00101372
0.00119394
0.0012553
0.00133225
0.00142359
0.00152405
0.00162591
0.00172075
0.00179971
0.00185327
0.00187226
0.00185066
0.00178977
0.00170028
0.00159891
0.00150124
0.00141614
0.00134559
0.00128787
0.0012406
0.00120186
0.00117016
0.00114427
0.00112308
0.00110567
0.0010913
0.00107937
0.00106942
0.00106109
0.00105409
0.00104819
0.0010432
0.00103896
0.00103536
0.0010323
0.00102968
0.00102745
0.00102554
0.0010239
0.0010225
0.00102129
0.00102026
0.00101937
0.00101861
0.00101795
0.00101738
0.00101689
0.00101647
0.00101611
0.00101579
0.00101552
0.00101529
0.00101508
0.0010149
0.00101475
0.00101462
0.0010145
0.0010144
0.00101431
0.00101423
0.00101416
0.0010141
0.00101405
0.001014
0.00101396
0.00101392
0.00101389
0.00101386
0.00101384
0.00101381
0.00101379
0.00101378
0.00101376
0.00101375
0.00101373
0.00101372
0.00101371
0.0010137
0.00101369
0.00101369
0.00101368
0.00101367
0.00101367
0.00101366
0.00101366
0.00101366
0.00101365
0.00101365
0.00101365
0.00101364
0.00101364
0.00101364
0.00101364
0.00101364
0.00101363
0.00101363
0.00101363
0.00101363
0.00101363
0.00101363
0.00101362
0.00117118
0.00122025
0.00128056
0.00135114
0.00142836
0.00150692
0.00158102
0.00164449
0.00169026
0.0017109
0.00170096
0.00166034
0.0015961
0.00152014
0.00144415
0.00137549
0.00131661
0.00126707
0.00122556
0.0011909
0.00116209
0.00113824
0.0011185
0.00110214
0.00108853
0.00107717
0.00106765
0.00105964
0.00105289
0.00104718
0.00104234
0.00103823
0.00103473
0.00103175
0.0010292
0.00102702
0.00102515
0.00102355
0.00102218
0.00102101
0.00102
0.00101913
0.00101838
0.00101774
0.00101719
0.00101671
0.0010163
0.00101594
0.00101564
0.00101537
0.00101514
0.00101494
0.00101477
0.00101462
0.00101449
0.00101437
0.00101427
0.00101418
0.00101411
0.00101404
0.00101398
0.00101393
0.00101389
0.00101384
0.00101381
0.00101378
0.00101375
0.00101373
0.0010137
0.00101368
0.00101367
0.00101365
0.00101364
0.00101363
0.00101361
0.0010136
0.0010136
0.00101359
0.00101358
0.00101357
0.00101357
0.00101356
0.00101356
0.00101355
0.00101355
0.00101355
0.00101354
0.00101354
0.00101354
0.00101354
0.00101353
0.00101353
0.00101353
0.00101353
0.00101353
0.00101352
0.00101352
0.00101352
0.00101352
0.00101351
0.00115109
0.00119063
0.00123839
0.00129355
0.00135357
0.00141467
0.00147267
0.0015231
0.00156089
0.00158056
0.0015778
0.00155188
0.00150708
0.00145137
0.00139314
0.00133827
0.00128944
0.0012471
0.00121081
0.00117997
0.00115395
0.00113211
0.00111383
0.00109852
0.0010857
0.00107491
0.00106583
0.00105816
0.00105167
0.00104616
0.00104148
0.00103749
0.00103409
0.00103118
0.0010287
0.00102658
0.00102476
0.00102319
0.00102186
0.00102071
0.00101972
0.00101887
0.00101814
0.00101751
0.00101697
0.00101651
0.00101611
0.00101576
0.00101546
0.0010152
0.00101498
0.00101479
0.00101462
0.00101447
0.00101434
0.00101423
0.00101414
0.00101405
0.00101398
0.00101392
0.00101386
0.00101381
0.00101377
0.00101373
0.00101369
0.00101366
0.00101364
0.00101361
0.00101359
0.00101357
0.00101356
0.00101354
0.00101353
0.00101352
0.00101351
0.0010135
0.00101349
0.00101348
0.00101347
0.00101347
0.00101346
0.00101346
0.00101345
0.00101345
0.00101344
0.00101344
0.00101344
0.00101344
0.00101343
0.00101343
0.00101343
0.00101343
0.00101342
0.00101342
0.00101342
0.00101342
0.00101342
0.00101342
0.00101342
0.00101341
0.00113387
0.00116601
0.00120424
0.0012479
0.00129519
0.00134336
0.0013893
0.00142964
0.00146065
0.0014784
0.0014797
0.0014637
0.00143284
0.00139229
0.0013479
0.00130427
0.00126398
0.00122801
0.00119648
0.0011692
0.00114582
0.00112593
0.00110909
0.00109485
0.00108281
0.00107263
0.00106399
0.00105667
0.00105044
0.00104513
0.00104061
0.00103675
0.00103345
0.00103063
0.00102821
0.00102614
0.00102436
0.00102284
0.00102153
0.00102041
0.00101945
0.00101862
0.0010179
0.00101729
0.00101676
0.00101631
0.00101592
0.00101558
0.00101529
0.00101504
0.00101482
0.00101463
0.00101447
0.00101433
0.00101421
0.0010141
0.00101401
0.00101393
0.00101386
0.00101379
0.00101374
0.00101369
0.00101365
0.00101361
0.00101358
0.00101355
0.00101353
0.00101351
0.00101349
0.00101347
0.00101345
0.00101344
0.00101343
0.00101341
0.0010134
0.0010134
0.00101339
0.00101338
0.00101337
0.00101337
0.00101336
0.00101336
0.00101335
0.00101335
0.00101334
0.00101334
0.00101334
0.00101334
0.00101333
0.00101333
0.00101333
0.00101333
0.00101332
0.00101332
0.00101332
0.00101332
0.00101332
0.00101332
0.00101332
0.00101331
0.00111918
0.00114552
0.00117644
0.00121141
0.00124912
0.00128758
0.00132442
0.00135705
0.00138267
0.0013984
0.00140192
0.0013924
0.00137123
0.00134173
0.00130793
0.00127334
0.00124027
0.00120989
0.00118266
0.00115866
0.00113778
0.00111978
0.00110434
0.00109115
0.0010799
0.00107032
0.00106214
0.00105516
0.0010492
0.00104411
0.00103975
0.00103602
0.00103282
0.00103008
0.00102773
0.00102572
0.00102399
0.0010225
0.00102122
0.00102013
0.00101918
0.00101837
0.00101768
0.00101708
0.00101656
0.00101612
0.00101574
0.00101541
0.00101513
0.00101488
0.00101467
0.00101449
0.00101433
0.0010142
0.00101408
0.00101398
0.00101389
0.00101381
0.00101374
0.00101368
0.00101363
0.00101359
0.00101355
0.00101351
0.00101348
0.00101345
0.00101343
0.00101341
0.00101339
0.00101337
0.00101336
0.00101334
0.00101333
0.00101332
0.00101331
0.0010133
0.00101329
0.00101329
0.00101328
0.00101328
0.00101327
0.00101327
0.00101326
0.00101326
0.00101325
0.00101325
0.00101325
0.00101324
0.00101324
0.00101324
0.00101324
0.00101324
0.00101323
0.00101323
0.00101323
0.00101323
0.00101323
0.00101323
0.00101322
0.00101322
0.00110663
0.00112838
0.0011536
0.00118189
0.00121226
0.00124327
0.0012731
0.00129976
0.00132109
0.00133495
0.00133961
0.00133434
0.0013199
0.00129842
0.00127269
0.00124534
0.00121832
0.00119281
0.00116944
0.00114846
0.00112991
0.00111368
0.0010996
0.00108745
0.00107699
0.00106799
0.00106028
0.00105365
0.00104797
0.00104309
0.0010389
0.0010353
0.00103221
0.00102955
0.00102727
0.00102531
0.00102362
0.00102217
0.00102093
0.00101986
0.00101894
0.00101815
0.00101747
0.00101688
0.00101638
0.00101595
0.00101558
0.00101526
0.00101498