/*--------------------------------*- C++ -*----------------------------------*\
  =========                 |
  \\      /  F ield         | OpenFOAM: The Open Source CFD Toolbox
   \\    /   O peration     | Website:  https://openfoam.org
    \\  /    A nd           | Version:  10
     \\/     M anipulation  |
\*---------------------------------------------------------------------------*/
FoamFile
{
    format      ascii;
    class       volScalarField;
    location    "0.005";
    object      p;
}
// * * * * * * * * * * * * * * * * * * * * * * * * * * * * * * * * * * * * * //

dimensions      [0 2 -2 0 0 0 0];

internalField   nonuniform List<scalar> 
6820
(
-5.59039
-6.95892
-7.38422
-7.49943
-7.60451
-7.68687
-7.75648
-7.82724
-7.901
-7.97668
-8.05458
-8.13684
-8.22823
-8.33158
-8.4476
-8.57676
-8.71973
-8.87761
-9.05228
-9.24638
-9.4632
-9.70668
-9.98158
-10.2938
-10.6508
-11.0626
-11.5424
-12.1097
-12.7913
-13.6331
-14.704
-16.1569
-18.2264
-8.38919
-7.9893
-7.71172
-7.63132
-7.65652
-7.70366
-7.7575
-7.81823
-7.88517
-7.95928
-8.04221
-8.13435
-8.23494
-8.3427
-8.45946
-8.5869
-8.7273
-8.88309
-9.05671
-9.25072
-9.46802
-9.71218
-9.98766
-10.3002
-10.6572
-11.0683
-11.5462
-12.11
-12.7817
-13.6107
-14.622
-16.0123
-17.6401
-7.24507
-7.12047
-7.35233
-7.5151
-7.60158
-7.67643
-7.74532
-7.81393
-7.88552
-7.96126
-8.04226
-8.13014
-8.22633
-8.33256
-8.44954
-8.57843
-8.72053
-8.87754
-9.05154
-9.24509
-9.46122
-9.70357
-9.97658
-10.2858
-10.638
-11.0424
-11.5105
-12.0585
-12.7057
-13.4872
-14.4241
-15.6139
-16.9495
-7.60982
-7.63201
-7.62734
-7.61593
-7.64734
-7.6978
-7.75375
-7.81475
-7.88145
-7.95431
-8.03457
-8.12326
-8.22124
-8.32837
-8.44535
-8.57343
-8.7142
-8.86959
-9.04179
-9.23325
-9.44683
-9.6859
-9.95454
-10.2578
-10.6019
-10.9948
-11.4461
-11.9693
-12.5784
-13.2976
-14.1351
-15.1424
-16.2239
-7.49598
-7.44308
-7.49814
-7.56498
-7.62525
-7.68536
-7.74587
-7.80906
-7.87663
-7.94957
-8.02911
-8.11661
-8.2124
-8.31779
-8.43335
-8.56011
-8.6994
-8.85289
-9.02254
-9.21063
-9.41984
-9.65326
-9.9146
-10.2083
-10.5397
-10.9153
-11.3428
-11.832
-12.3921
-13.0369
-13.7666
-14.6001
-15.4634
-7.53468
-7.53478
-7.5634
-7.59754
-7.6387
-7.68918
-7.74494
-7.80524
-7.87074
-7.94207
-8.0202
-8.10624
-8.20071
-8.30445
-8.41807
-8.54249
-8.679
-8.82912
-8.9947
-9.1778
-9.38081
-9.60646
-9.85792
-10.1389
-10.4537
-10.8074
-11.2055
-11.6541
-12.1584
-12.7242
-13.3461
-14.0246
-14.7035
-7.5259
-7.51911
-7.54565
-7.58592
-7.63146
-7.68278
-7.73821
-7.79768
-7.86213
-7.93226
-8.00897
-8.0932
-8.18559
-8.28689
-8.39775
-8.51904
-8.65189
-8.79769
-8.95804
-9.13477
-9.32992
-9.54582
-9.78507
-10.0506
-10.3456
-10.6736
-11.0381
-11.4424
-11.8878
-12.3747
-12.8943
-13.4383
-13.9634
-7.53144
-7.53242
-7.55693
-7.59205
-7.63264
-7.67973
-7.7322
-7.78948
-7.85201
-7.9203
-7.99506
-8.07707
-8.16697
-8.26538
-8.37291
-8.49037
-8.61874
-8.75924
-8.91325
-9.08234
-9.26819
-9.47265
-9.69775
-9.9456
-10.2184
-10.5182
-10.8467
-11.2048
-11.5912
-12.0027
-12.4289
-12.8579
-13.256
-7.53168
-7.53433
-7.5558
-7.58857
-7.62747
-7.67295
-7.7236
-7.77906
-7.83969
-7.90596
-7.97847
-8.05792
-8.14488
-8.23989
-8.34353
-8.45649
-8.57964
-8.71399
-8.86071
-9.02103
-9.19631
-9.38792
-9.59729
-9.82579
-10.0746
-10.3447
-10.6361
-10.9479
-11.2772
-11.6186
-11.9614
-12.2931
-12.5872
-7.53178
-7.53607
-7.55625
-7.58653
-7.62305
-7.66583
-7.714
-7.76716
-7.82548
-7.88935
-7.95924
-8.03572
-8.1193
-8.21046
-8.30968
-8.41755
-8.53478
-8.6622
-8.80072
-8.9513
-9.11491
-9.2925
-9.48491
-9.69284
-9.91666
-10.1562
-10.4105
-10.6774
-10.9527
-11.2302
-11.4997
-11.7497
-11.9591
-7.53011
-7.53496
-7.55361
-7.58169
-7.61604
-7.6565
-7.70238
-7.7532
-7.80908
-7.87031
-7.93727
-8.01043
-8.09024
-8.17709
-8.27138
-8.37357
-8.48424
-8.604
-8.73354
-8.87352
-9.02457
-9.18719
-9.36175
-9.54834
-9.74662
-9.95567
-10.1737
-10.3977
-10.623
-10.8433
-11.0493
-11.231
-11.3717
-7.52678
-7.5319
-7.54932
-7.57541
-7.60761
-7.64569
-7.68908
-7.73736
-7.79054
-7.84882
-7.91253
-7.98202
-8.05766
-8.13977
-8.22864
-8.32463
-8.42814
-8.53961
-8.65948
-8.78814
-8.92589
-9.07287
-9.22901
-9.39389
-9.56665
-9.74578
-9.92897
-10.1128
-10.2927
-10.4623
-10.6137
-10.7386
-10.8238
-7.52163
-7.52672
-7.54295
-7.56714
-7.59722
-7.63293
-7.6738
-7.71939
-7.76968
-7.8248
-7.88496
-7.95046
-8.02157
-8.09853
-8.18154
-8.27084
-8.36666
-8.46926
-8.57888
-8.69565
-8.81958
-8.95049
-9.08794
-9.23113
-9.37881
-9.52912
-9.67945
-9.82632
-9.96519
-10.0905
-10.1955
-10.2733
-10.3139
-7.51459
-7.5195
-7.53459
-7.55698
-7.58496
-7.61829
-7.65654
-7.69931
-7.7465
-7.7982
-7.85455
-7.91574
-7.98199
-8.05343
-8.13017
-8.21233
-8.30001
-8.39329
-8.4922
-8.59666
-8.70644
-8.82108
-8.93987
-9.06173
-9.18515
-9.30807
-9.42781
-9.541
-9.64345
-9.73037
-9.79601
-9.83519
-9.84009
-7.50558
-7.51023
-7.5242
-7.54484
-7.57072
-7.60164
-7.63719
-7.677
-7.72093
-7.769
-7.82128
-7.87789
-7.93896
-8.00455
-8.07467
-8.14933
-8.22848
-8.31207
-8.39995
-8.49185
-8.58733
-8.68574
-8.78616
-8.88732
-8.98759
-9.08484
-9.17647
-9.25933
-9.32972
-9.38358
-9.41626
-9.42381
-9.40026
-7.49458
-7.49891
-7.51175
-7.53069
-7.55448
-7.58295
-7.61573
-7.65245
-7.69296
-7.73719
-7.78517
-7.83695
-7.89258
-7.95203
-8.01523
-8.08208
-8.15242
-8.22607
-8.30272
-8.38195
-8.46318
-8.5456
-8.62816
-8.7095
-8.78794
-8.86141
-8.92747
-8.98331
-9.02572
-9.05137
-9.05657
-9.03839
-8.99234
-7.48156
-7.48554
-7.49726
-7.51451
-7.5362
-7.56219
-7.59212
-7.62565
-7.66258
-7.7028
-7.74629
-7.79302
-7.84297
-7.89604
-7.95209
-8.0109
-8.07224
-8.13579
-8.20114
-8.26776
-8.33495
-8.4018
-8.4672
-8.52977
-8.58785
-8.63953
-8.68258
-8.71454
-8.73275
-8.7345
-8.71694
-8.67796
-8.61426
-7.46652
-7.47014
-7.48073
-7.49629
-7.51587
-7.53934
-7.56636
-7.59659
-7.62981
-7.66588
-7.7047
-7.74621
-7.79029
-7.83681
-7.88552
-7.93616
-7.98838
-8.0418
-8.09591
-8.1501
-8.2036
-8.25546
-8.30455
-8.34953
-8.38884
-8.42073
-8.44324
-8.4543
-8.45171
-8.43336
-8.39709
-8.34144
-8.26401
-7.44947
-7.45271
-7.46217
-7.47605
-7.49351
-7.51443
-7.53848
-7.56532
-7.59473
-7.62651
-7.66053
-7.69666
-7.73475
-7.77458
-7.81586
-7.85825
-7.90134
-7.94469
-7.98773
-8.0298
-8.0701
-8.10767
-8.14142
-8.17008
-8.19222
-8.2063
-8.21065
-8.20354
-8.18323
-8.1481
-8.09655
-8.02765
-7.93969
-7.43044
-7.43329
-7.44162
-7.45382
-7.46914
-7.48748
-7.50851
-7.5319
-7.5574
-7.58481
-7.61393
-7.64459
-7.67658
-7.70965
-7.74346
-7.77761
-7.81165
-7.84509
-7.87734
-7.9077
-7.93539
-7.95948
-7.97892
-7.99258
-7.99917
-7.99737
-7.98577
-7.963
-7.92769
-7.87864
-7.81474
-7.73542
-7.63952
-7.40946
-7.41193
-7.41912
-7.42964
-7.44282
-7.45855
-7.47652
-7.49641
-7.51795
-7.54091
-7.56506
-7.5902
-7.61607
-7.64237
-7.66872
-7.69471
-7.71986
-7.74364
-7.76546
-7.78463
-7.80039
-7.81186
-7.8181
-7.81807
-7.81069
-7.79483
-7.76935
-7.73317
-7.68527
-7.62479
-7.55097
-7.46356
-7.36182
-7.38661
-7.3887
-7.39475
-7.40358
-7.41462
-7.42773
-7.44263
-7.45899
-7.47653
-7.49501
-7.51416
-7.53376
-7.55351
-7.57308
-7.59209
-7.61007
-7.62655
-7.64101
-7.65284
-7.6614
-7.66596
-7.66574
-7.65988
-7.64749
-7.62764
-7.59943
-7.56195
-7.51439
-7.45599
-7.38619
-7.30454
-7.21096
-7.10505
-7.36198
-7.36368
-7.36859
-7.37575
-7.38465
-7.39514
-7.40695
-7.41977
-7.43332
-7.44731
-7.46148
-7.47557
-7.48926
-7.50221
-7.51401
-7.52421
-7.53233
-7.53784
-7.5402
-7.53879
-7.53295
-7.52196
-7.50511
-7.48163
-7.45076
-7.41178
-7.36401
-7.30684
-7.23978
-7.16248
-7.07469
-6.97653
-6.8678
-7.33566
-7.33697
-7.34076
-7.34625
-7.35302
-7.36091
-7.36965
-7.37895
-7.38851
-7.39805
-7.4073
-7.41595
-7.4237
-7.43018
-7.43498
-7.43767
-7.43778
-7.43482
-7.42826
-7.41755
-7.40211
-7.38132
-7.35455
-7.3212
-7.28065
-7.23236
-7.17582
-7.11063
-7.03648
-6.9532
-6.86071
-6.75924
-6.64877
-7.30779
-7.30872
-7.31139
-7.31523
-7.3199
-7.32522
-7.33094
-7.33676
-7.34239
-7.34756
-7.35196
-7.35529
-7.35724
-7.35745
-7.35552
-7.35103
-7.34353
-7.33259
-7.31771
-7.29841
-7.27418
-7.24451
-7.20888
-7.1668
-7.11782
-7.06153
-6.9976
-6.92576
-6.84587
-6.75789
-6.66189
-6.55815
-6.44678
-7.27853
-7.27908
-7.28065
-7.28285
-7.28544
-7.28822
-7.29095
-7.29336
-7.29515
-7.29604
-7.29573
-7.29391
-7.29028
-7.28447
-7.27612
-7.26482
-7.25018
-7.23178
-7.20921
-7.18203
-7.14983
-7.11219
-7.06869
-7.01897
-6.96269
-6.89959
-6.82946
-6.75217
-6.6677
-6.57611
-6.47756
-6.37238
-6.26077
-7.24806
-7.24824
-7.24874
-7.24937
-7.24996
-7.25031
-7.25017
-7.24928
-7.24735
-7.24409
-7.23922
-7.23244
-7.22344
-7.21188
-7.19743
-7.17972
-7.15839
-7.13309
-7.10344
-7.0691
-7.02972
-6.98497
-6.93453
-6.87816
-6.81562
-6.74677
-6.6715
-6.58979
-6.50171
-6.4074
-6.30709
-6.20113
-6.0898
-7.21658
-7.21638
-7.21577
-7.21478
-7.21334
-7.21124
-7.20827
-7.20417
-7.19867
-7.19147
-7.18229
-7.17084
-7.1568
-7.13988
-7.11976
-7.09611
-7.06864
-7.03702
-7.00096
-6.96017
-6.91438
-6.86335
-6.80687
-6.74476
-6.6769
-6.60322
-6.52373
-6.43849
-6.34762
-6.25134
-6.14991
-6.0437
-5.93302
-7.18439
-7.18389
-7.18236
-7.18002
-7.17687
-7.17264
-7.1671
-7.15999
-7.15107
-7.14005
-7.12668
-7.11068
-7.0918
-7.06974
-7.04425
-7.01504
-6.98186
-6.94445
-6.90256
-6.85598
-6.8045
-6.74795
-6.68621
-6.61918
-6.54682
-6.46915
-6.38623
-6.2982
-6.20523
-6.10758
-6.00554
-5.89946
-5.78972
-7.15163
-7.15054
-7.1476
-7.14337
-7.13806
-7.13144
-7.12329
-7.11336
-7.10137
-7.08703
-7.07004
-7.05014
-7.02704
-7.00051
-6.97031
-6.93621
-6.89799
-6.85547
-6.80846
-6.7568
-6.70036
-6.63905
-6.57281
-6.50162
-6.42552
-6.34458
-6.25893
-6.16874
-6.07424
-5.9757
-5.87344
-5.76782
-5.6592
-7.11907
-7.11827
-7.11519
-7.11045
-7.10413
-7.0959
-7.08553
-7.07283
-7.0576
-7.03961
-7.01863
-6.99447
-6.96692
-6.93577
-6.90086
-6.86199
-6.81899
-6.77171
-6.72001
-6.66379
-6.60297
-6.53751
-6.4674
-6.3927
-6.31348
-6.22988
-6.14206
-6.05023
-5.95466
-5.85562
-5.75344
-5.64846
-5.54108
-7.08552
-7.08237
-7.07593
-7.06802
-7.05915
-7.0488
-7.03654
-7.02205
-7.00498
-6.98501
-6.96183
-6.93517
-6.90482
-6.87056
-6.83226
-6.7898
-6.74305
-6.69195
-6.63641
-6.57642
-6.51195
-6.44303
-6.36973
-6.29215
-6.21042
-6.12471
-6.03523
-5.94221
-5.84594
-5.74671
-5.64485
-5.54069
-5.43462
-7.05686
-7.05816
-7.05494
-7.04831
-7.03902
-7.02692
-7.01194
-6.99399
-6.97289
-6.94847
-6.9206
-6.88918
-6.85408
-6.81522
-6.77248
-6.72575
-6.67493
-6.61993
-6.56069
-6.49718
-6.42943
-6.35749
-6.28144
-6.20144
-6.11763
-6.03023
-5.93947
-5.84559
-5.74889
-5.64967
-5.54824
-5.44494
-5.34014
-7.0157
-7.00458
-6.99177
-6.98106
-6.97109
-6.95969
-6.94597
-6.92957
-6.91007
-6.88707
-6.86026
-6.82938
-6.7942
-6.75459
-6.71049
-6.6619
-6.60884
-6.55137
-6.48954
-6.42345
-6.35319
-6.27889
-6.20071
-6.11882
-6.03343
-5.94478
-5.8531
-5.75869
-5.66182
-5.56281
-5.46198
-5.35963
-5.25616
-7.01908
-7.02864
-7.02359
-7.01019
-6.99464
-6.97684
-6.95611
-6.93214
-6.90465
-6.87351
-6.8387
-6.80032
-6.75843
-6.71304
-6.66407
-6.61137
-6.5548
-6.49424
-6.42963
-6.361
-6.28843
-6.21206
-6.13203
-6.04856
-5.96186
-5.87219
-5.77979
-5.68497
-5.588
-5.48919
-5.38886
-5.2873
-5.18489
-6.91286
-6.87686
-6.86461
-6.86411
-6.86293
-6.85729
-6.84791
-6.83485
-6.81764
-6.79599
-6.76964
-6.73825
-6.7015
-6.65928
-6.61168
-6.55895
-6.50139
-6.4393
-6.37293
-6.3025
-6.22821
-6.15027
-6.06887
-5.98424
-5.89663
-5.8063
-5.71351
-5.61857
-5.52176
-5.42339
-5.32378
-5.22319
-5.12204
-7.08866
-7.10478
-7.06183
-7.01394
-6.98441
-6.95699
-6.92734
-6.895
-6.85912
-6.81929
-6.77588
-6.72966
-6.68134
-6.63108
-6.57851
-6.52295
-6.46373
-6.40045
-6.33298
-6.26139
-6.18591
-6.10679
-6.02429
-5.93868
-5.85024
-5.75923
-5.66594
-5.57066
-5.4737
-5.37534
-5.27592
-5.17568
-5.07505
-6.67116
-6.5886
-6.63999
-6.70716
-6.7305
-6.74158
-6.74718
-6.74549
-6.73752
-6.72411
-6.70472
-6.67812
-6.6434
-6.60037
-6.5498
-6.49294
-6.43095
-6.36471
-6.29472
-6.22124
-6.14442
-6.06439
-5.9813
-5.89537
-5.80683
-5.71594
-5.62298
-5.52825
-5.43202
-5.33461
-5.23631
-5.13741
-5.03834
-7.63253
-7.34995
-7.13621
-7.03338
-6.98463
-6.94271
-6.90183
-6.86006
-6.81412
-6.76406
-6.71292
-6.66373
-6.61763
-6.57329
-6.52774
-6.478
-6.42228
-6.36011
-6.29206
-6.21908
-6.14208
-6.06167
-5.97826
-5.89211
-5.80345
-5.71251
-5.61955
-5.52485
-5.42871
-5.33141
-5.23326
-5.1345
-5.03558
-5.66768
-6.22507
-6.5141
-6.61276
-6.66949
-6.70754
-6.72509
-6.73147
-6.73297
-6.72962
-6.71806
-6.69422
-6.6558
-6.60392
-6.54228
-6.47512
-6.40543
-6.33447
-6.2622
-6.18795
-6.11111
-6.03136
-5.94869
-5.86331
-5.77547
-5.68549
-5.59365
-5.50022
-5.40544
-5.30958
-5.21284
-5.11549
-5.0175
-22.2054
-22.6318
-26.8849
-28.7097
-26.0288
-21.1989
-16.8731
-13.5029
-10.6202
-8.17895
-6.18999
-4.59857
-3.35106
-2.39544
-1.68927
-1.19138
-0.826125
-0.515285
-0.241216
-0.0160034
0.16176
0.301028
0.409972
0.494758
0.559965
0.609167
0.645266
0.670646
0.687269
0.696756
0.700452
0.699474
0.694754
0.687066
0.677056
0.665263
0.652131
0.638029
0.623262
0.608077
0.592677
0.577224
0.561848
0.54665
0.531708
0.517079
0.502806
0.488917
0.475428
0.462346
0.449672
0.437399
0.425518
0.414012
0.402866
0.392059
0.381572
0.371382
0.361467
0.351806
0.342376
0.333156
0.324124
0.315262
0.306548
0.297965
0.289494
0.28112
0.272827
0.264599
0.256424
0.248288
0.240179
0.232085
0.223998
0.215906
0.207802
0.199676
0.191522
0.183332
0.1751
0.16682
0.158487
0.150095
0.14164
0.133117
0.124523
0.115854
0.107105
0.0982759
0.0893612
0.0803592
0.0712672
0.0620818
0.0528033
0.0434236
0.0339533
0.0243634
0.0147117
0.00486304
-20.8266
-22.0318
-24.2883
-25.2271
-22.9919
-19.2664
-15.7581
-12.7871
-10.1874
-7.95812
-6.11025
-4.60819
-3.41333
-2.48617
-1.79262
-1.29224
-0.914027
-0.592502
-0.31385
-0.08531
0.0965199
0.240347
0.353919
0.443164
0.512574
0.565705
0.605458
0.634223
0.653972
0.666341
0.672689
0.674149
0.671666
0.666031
0.657904
0.647834
0.636281
0.623624
0.610178
0.5962
0.581904
0.567458
0.553001
0.538641
0.524463
0.510531
0.496891
0.483579
0.470614
0.458008
0.445767
0.433887
0.422361
0.411178
0.400324
0.389781
0.379533
0.369559
0.359839
0.350353
0.34108
0.332002
0.323098
0.31435
0.305739
0.297248
0.28886
0.28056
0.272332
0.264163
0.25604
0.24795
0.239882
0.231825
0.22377
0.215707
0.207628
0.199524
0.19139
0.183217
0.175
0.166734
0.158412
0.15003
0.141584
0.133069
0.124481
0.115818
0.107075
0.0982503
0.0893396
0.0803411
0.0712521
0.0620695
0.0527936
0.0434158
0.0339484
0.0243589
0.0147123
0.00485792
-19.0783
-20.202
-21.6059
-22.1651
-20.5102
-17.6044
-14.6913
-12.0917
-9.76323
-7.73437
-6.02412
-4.61276
-3.47398
-2.57845
-1.89793
-1.39354
-1.00236
-0.671445
-0.388783
-0.156933
0.0290363
0.177487
0.295752
0.389535
0.463246
0.520416
0.563939
0.596207
0.6192
0.634565
0.643674
0.647674
0.647527
0.644036
0.637875
0.629608
0.619706
0.608559
0.596495
0.583781
0.570638
0.557246
0.54375
0.530267
0.516888
0.503684
0.490708
0.477998
0.465581
0.453474
0.441685
0.430215
0.419062
0.408216
0.397667
0.387401
0.377402
0.367653
0.358136
0.348834
0.339726
0.330797
0.322026
0.313398
0.304894
0.296499
0.288197
0.279974
0.271815
0.263707
0.255638
0.247597
0.239572
0.231553
0.223532
0.215499
0.207446
0.199366
0.191252
0.183097
0.174896
0.166643
0.158334
0.149963
0.141526
0.133019
0.124439
0.115782
0.107044
0.0982238
0.0893172
0.0803224
0.0712367
0.0620568
0.0527836
0.043408
0.0339433
0.0243545
0.0147128
0.00485349
-17.7544
-18.7967
-19.6624
-19.8252
-18.4641
-16.1423
-13.7064
-11.4352
-9.35465
-7.51221
-5.93381
-4.61219
-3.53103
-2.66884
-2.00158
-1.49322
-1.09064
-0.751938
-0.465689
-0.230531
-0.0404081
0.112671
0.235646
0.334006
0.412081
0.473369
0.520753
0.55662
0.582956
0.601416
0.613383
0.620019
0.622297
0.621037
0.616924
0.610536
0.602356
0.592787
0.582166
0.570772
0.558836
0.546546
0.534057
0.521491
0.508949
0.496507
0.484225
0.472147
0.460304
0.448719
0.437404
0.426365
0.415601
0.405109
0.39488
0.384904
0.375166
0.365654
0.35635
0.34724
0.338306
0.329532
0.320902
0.312399
0.304008
0.295714
0.287502
0.279359
0.271272
0.263229
0.255217
0.247226
0.239246
0.231268
0.223282
0.21528
0.207255
0.199199
0.191107
0.182971
0.174787
0.166549
0.158252
0.149892
0.141465
0.132967
0.124394
0.115743
0.107011
0.0981961
0.0892939
0.0803029
0.0712206
0.0620437
0.0527733
0.0433999
0.033938
0.0243502
0.0147132
0.00484984
-16.5666
-17.3987
-17.9152
-17.8587
-16.736
-14.8607
-12.8089
-10.8232
-8.96629
-7.29524
-5.84129
-4.60677
-3.58309
-2.75472
-2.10094
-1.58989
-1.17844
-0.833695
-0.544258
-0.305823
-0.11159
0.0460676
0.173722
0.276666
0.35914
0.424603
0.475918
0.515465
0.545229
0.566872
0.581787
0.591146
0.595936
0.596989
0.595004
0.59057
0.584183
0.576259
0.567144
0.557129
0.546454
0.535317
0.52388
0.512276
0.50061
0.488967
0.477413
0.465997
0.454758
0.44372
0.432903
0.422316
0.411962
0.401841
0.391948
0.382276
0.372814
0.36355
0.354471
0.345563
0.336811
0.328201
0.319717
0.311347
0.303074
0.294887
0.28677
0.278712
0.270701
0.262725
0.254773
0.246836
0.238904
0.230968
0.223019
0.21505
0.207054
0.199025
0.190955
0.182839
0.174672
0.166449
0.158166
0.149818
0.141401
0.132912
0.124347
0.115703
0.106977
0.0981672
0.0892696
0.0802826
0.0712039
0.06203
0.0527626
0.0433915
0.0339324
0.0243458
0.0147132
0.004847
-15.5056
-16.1383
-16.431
-16.2398
-15.2825
-13.7381
-11.9956
-10.2572
-8.60034
-7.08565
-5.74801
-4.59673
-3.62909
-2.83407
-2.1942
-1.68261
-1.26529
-0.916249
-0.624064
-0.382467
-0.184244
-0.0221227
0.110137
0.217632
0.304509
0.374178
0.429474
0.472764
0.506028
0.530931
0.548873
0.561037
0.568419
0.571863
0.572081
0.569675
0.565152
0.558938
0.551392
0.542815
0.533456
0.523523
0.513187
0.502589
0.491841
0.481035
0.470244
0.459524
0.448917
0.438455
0.428161
0.418048
0.408126
0.398396
0.388857
0.379505
0.370333
0.36133
0.352488
0.343793
0.335233
0.326795
0.318467
0.310236
0.302089
0.294013
0.285997
0.278029
0.270098
0.262193
0.254305
0.246424
0.238542
0.230651
0.222741
0.214808
0.206842
0.19884
0.190794
0.182699
0.174551
0.166344
0.158075
0.14974
0.141334
0.132854
0.124297
0.115661
0.106941
0.0981368
0.089244
0.0802612
0.0711863
0.0620157
0.0527513
0.0433827
0.0339265
0.0243413
0.0147127
0.00484499
-14.5448
-15.0002
-15.1376
-14.8693
-14.0385
-12.748
-11.2585
-9.73428
-8.25583
-6.88347
-5.65394
-4.58145
-3.6676
-2.90519
-2.28011
-1.7707
-1.35061
-0.998975
-0.704591
-0.460068
-0.258067
-0.0916599
0.0450784
0.157054
0.248306
0.322185
0.38149
0.428566
0.465387
0.493615
0.514654
0.529694
0.539742
0.545651
0.548144
0.547836
0.545243
0.540804
0.534889
0.527808
0.51982
0.511143
0.501957
0.492409
0.482621
0.472692
0.4627
0.452709
0.442766
0.432908
0.423163
0.41355
0.404081
0.394762
0.385596
0.376581
0.367714
0.358987
0.350394
0.341923
0.333566
0.325311
0.317147
0.309063
0.301047
0.29309
0.28518
0.277306
0.26946
0.26163
0.25381
0.245989
0.23816
0.230315
0.222448
0.214551
0.206618
0.198644
0.190624
0.182551
0.174423
0.166233
0.157979
0.149657
0.141262
0.132793
0.124245
0.115616
0.106903
0.0981046
0.0892169
0.0802386
0.0711676
0.0620006
0.0527394
0.0433734
0.0339201
0.0243367
0.0147116
0.00484374
-13.6716
-13.9796
-14.0071
-13.6965
-12.9634
-11.8687
-10.5869
-9.24843
-7.92923
-6.68657
-5.55745
-4.55923
-3.69693
-2.96668
-2.35787
-1.85366
-1.43373
-1.08117
-0.785266
-0.538193
-0.332718
-0.162273
-0.0212327
0.0951094
0.190674
0.268739
0.332057
0.382945
0.423362
0.454966
0.479161
0.49714
0.509919
0.51836
0.523196
0.52505
0.524452
0.521851
0.517625
0.512097
0.505535
0.498165
0.490176
0.481724
0.472939
0.463926
0.454771
0.445542
0.436294
0.42707
0.417901
0.408812
0.399818
0.390931
0.382157
0.373497
0.364951
0.356515
0.348183
0.33995
0.331806
0.323743
0.315752
0.307823
0.299947
0.292114
0.284316
0.276542
0.268785
0.261036
0.253286
0.245528
0.237755
0.22996
0.222137
0.214279
0.206381
0.198438
0.190444
0.182395
0.174287
0.166116
0.157878
0.149569
0.141187
0.132728
0.124189
0.115569
0.106863
0.0980705
0.0891883
0.0802147
0.0711479
0.0619845
0.0527267
0.0433636
0.0339132
0.0243318
0.0147098
0.00484321
-12.8757
-13.0648
-13.0124
-12.6802
-12.0239
-11.0818
-9.97123
-8.79347
-7.61626
-6.4919
-5.45614
-4.5282
-3.7157
-3.01778
-2.42714
-1.9311
-1.51404
-1.16215
-0.86551
-0.616391
-0.407839
-0.233666
-0.0885528
0.0320003
0.13178
0.213976
0.281285
0.335989
0.380026
0.415041
0.442438
0.463411
0.478978
0.490011
0.49725
0.501329
0.502786
0.502081
0.499603
0.495682
0.490598
0.484585
0.477841
0.47053
0.462789
0.454731
0.446449
0.438017
0.429496
0.420935
0.412369
0.403829
0.395334
0.3869
0.378537
0.37025
0.362041
0.35391
0.345855
0.33787
0.32995
0.322089
0.31428
0.306515
0.298786
0.291085
0.283404
0.275736
0.268073
0.260408
0.252733
0.245042
0.237328
0.229586
0.221809
0.213992
0.20613
0.198219
0.190254
0.18223
0.174144
0.165992
0.157771
0.149477
0.141107
0.13266
0.124131
0.115519
0.106821
0.0980345
0.089158
0.0801894
0.071127
0.0619675
0.0527132
0.0433531
0.0339057
0.0243268
0.0147073
0.00484328
-12.1487
-12.2441
-12.1335
-11.7918
-11.1971
-10.375
-9.40524
-8.36568
-7.31436
-6.29755
-5.34862
-4.48743
-3.72351
-3.05852
-2.48803
-2.00282
-1.59097
-1.24124
-0.944762
-0.694208
-0.483057
-0.305529
-0.15662
-0.0320534
0.0718065
0.158049
0.229302
0.287804
0.335465
0.373914
0.404545
0.428553
0.446958
0.460634
0.470332
0.476691
0.48026
0.481506
0.48083
0.47857
0.475014
0.470407
0.464953
0.458826
0.452171
0.445106
0.437733
0.430132
0.42237
0.4145
0.406565
0.398598
0.390626
0.382666
0.374734
0.366837
0.358982
0.351171
0.343405
0.335681
0.327998
0.320349
0.312731
0.305138
0.297563
0.290001
0.282444
0.274887
0.267323
0.259746
0.25215
0.244529
0.236878
0.229191
0.221463
0.213689
0.205866
0.197989
0.190053
0.182056
0.173993
0.165861
0.157657
0.149379
0.141023
0.132588
0.124069
0.115466
0.106776
0.0979966
0.0891261
0.0801627
0.071105
0.0619495
0.0526989
0.0433421
0.0338976
0.0243214
0.014704
0.00484386
-11.484
-11.5062
-11.3536
-11.0101
-10.4661
-9.73951
-8.8857
-7.96424
-7.02366
-6.10397
-5.23545
-4.43761
-3.72114
-3.0896
-2.54093
-2.06874
-1.66406
-1.3179
-1.02251
-0.771206
-0.557998
-0.377539
-0.225158
-0.0968166
0.0109537
0.101127
0.176251
0.23851
0.289779
0.331666
0.365552
0.392625
0.413905
0.43027
0.442473
0.451163
0.456895
0.460145
0.46132
0.46077
0.458791
0.455636
0.451517
0.446617
0.441087
0.435054
0.428625
0.421888
0.414915
0.407766
0.400488
0.393121
0.385693
0.378229
0.370746
0.363258
0.355773
0.348297
0.340834
0.333384
0.325948
0.318522
0.311105
0.303691
0.296279
0.288862
0.281435
0.273994
0.266535
0.25905
0.251537
0.24399
0.236404
0.228775
0.221099
0.213371
0.205588
0.197746
0.189842
0.181872
0.173833
0.165723
0.157538
0.149276
0.140935
0.132512
0.124004
0.115411
0.106728
0.0979566
0.0890924
0.0801346
0.0710817
0.0619306
0.0526837
0.0433303
0.033889
0.0243157
0.0147002
0.00484484
-10.8756
-10.8415
-10.659
-10.3187
-9.81735
-9.16822
-8.41046
-7.5897
-6.74596
-5.91334
-5.11871
-4.3806
-3.71011
-3.11211
-2.58641
-2.12888
-1.73299
-1.39164
-1.09828
-0.846971
-0.632294
-0.449372
-0.293883
-0.162043
-0.0505662
0.0433908
0.122285
0.188239
0.243081
0.288393
0.325538
0.355695
0.379878
0.398966
0.413716
0.424779
0.432719
0.438019
0.441094
0.4423
0.441943
0.440283
0.437542
0.433909
0.429543
0.424578
0.419128
0.413288
0.407135
0.400735
0.394141
0.387396
0.380536
0.373588
0.366575
0.359513
0.352414
0.345288
0.338142
0.330978
0.3238
0.316607
0.3094
0.302175
0.294932
0.287667
0.280377
0.273058
0.265707
0.258321
0.250894
0.243424
0.235907
0.228339
0.220717
0.213037
0.205296
0.197492
0.189621
0.18168
0.173666
0.165578
0.157413
0.149168
0.140842
0.132432
0.123936
0.115352
0.106679
0.0979146
0.089057
0.0801051
0.0710573
0.0619106
0.0526678
0.043318
0.0338797
0.0243098
0.0146957
0.00484613
-10.3182
-10.2414
-10.0382
-9.70439
-9.23976
-8.65452
-7.97702
-7.24229
-6.48304
-5.72806
-5.00085
-4.31852
-3.69208
-3.12719
-2.62505
-2.18336
-1.79753
-1.46212
-1.17169
-0.921118
-0.70559
-0.520706
-0.362506
-0.227477
-0.11253
-0.0149648
0.0675739
0.137134
0.195495
0.244202
0.284595
0.317839
0.344942
0.366778
0.384106
0.39758
0.407768
0.415158
0.420175
0.42318
0.424487
0.424364
0.423041
0.420714
0.417548
0.413687
0.40925
0.404337
0.399033
0.39341
0.387525
0.381428
0.375158
0.368747
0.362222
0.355603
0.348907
0.342146
0.335329
0.328464
0.321555
0.314605
0.307617
0.30059
0.293523
0.286417
0.27927
0.272079
0.264842
0.257557
0.250221
0.242832
0.235387
0.227882
0.220317
0.212687
0.204991
0.197225
0.189389
0.181478
0.173492
0.165427
0.157282
0.149055
0.140745
0.132348
0.123864
0.115291
0.106627
0.0978706
0.08902
0.0800741
0.0710317
0.0618897
0.052651
0.043305
0.0338699
0.0243036
0.0146908
0.00484761
-9.80737
-9.69825
-9.4816
-9.15627
-8.72382
-8.19218
-7.58235
-6.9214
-6.23587
-5.5499
-4.88386
-4.25321
-3.66853
-3.13587
-2.65744
-2.23234
-1.85756
-1.52904
-1.24241
-0.993305
-0.777552
-0.591226
-0.43074
-0.29286
-0.174708
-0.073737
0.0122942
0.0853512
0.147154
0.199208
0.242823
0.279145
0.309172
0.333772
0.353699
0.369612
0.38208
0.391598
0.398593
0.403435
0.406445
0.407898
0.40803
0.407044
0.405115
0.402391
0.398997
0.395043
0.390617
0.385797
0.380647
0.37522
0.369561
0.363707
0.357689
0.351531
0.345253
0.338871
0.332397
0.325843
0.319214
0.312518
0.305757
0.298935
0.292053
0.285113
0.278114
0.271056
0.263938
0.256759
0.249518
0.242213
0.234843
0.227406
0.219899
0.212322
0.204672
0.196947
0.189146
0.181267
0.173309
0.165269
0.157145
0.148937
0.140643
0.132261
0.123789
0.115227
0.106573
0.0978246
0.0889813
0.0800418
0.0710049
0.0618679
0.0526334
0.0432914
0.0338595
0.0242971
0.0146855
0.0048492
-9.3388
-9.20576
-8.98096
-8.66542
-8.26151
-7.77547
-7.22319
-6.62574
-6.00461
-5.37991
-4.76914
-4.1861
-3.64068
-3.13907
-2.68414
-2.27605
-1.91305
-1.59222
-1.31015
-1.06323
-0.847869
-0.660632
-0.498301
-0.357932
-0.236864
-0.132715
-0.0433665
0.0330556
0.0982054
0.153538
0.200333
0.23971
0.272652
0.300018
0.32256
0.340932
0.355705
0.367379
0.376384
0.383098
0.387845
0.390907
0.392529
0.392919
0.392258
0.390702
0.388383
0.385415
0.381894
0.377903
0.373511
0.368777
0.363751
0.358474
0.35298
0.347299
0.341455
0.335466
0.329348
0.323116
0.316779
0.310345
0.303822
0.297213
0.290523
0.283755
0.27691
0.269991
0.262997
0.255928
0.248786
0.241569
0.234277
0.226909
0.219464
0.211941
0.204339
0.196657
0.188894
0.181048
0.173118
0.165104
0.157003
0.148814
0.140537
0.13217
0.123712
0.115161
0.106516
0.0977767
0.088941
0.0800081
0.0709769
0.061845
0.0526151
0.0432773
0.0338487
0.0242902
0.0146798
0.00485081
-8.90876
-8.75831
-8.52938
-8.22439
-7.84601
-7.39923
-6.8963
-6.35374
-5.78894
-5.2186
-4.65764
-4.11826
-3.60955
-3.13759
-2.70567
-2.31475
-1.96403
-1.65154
-1.37471
-1.13063
-0.916262
-0.72864
-0.564916
-0.422435
-0.29876
-0.191682
-0.0992136
-0.0195789
0.0488022
0.107331
0.157245
0.199639
0.235476
0.265601
0.290758
0.3116
0.328698
0.342549
0.353591
0.362204
0.368717
0.37342
0.376562
0.378358
0.378996
0.378637
0.377421
0.375466
0.372876
0.369739
0.366128
0.362108
0.357735
0.353052
0.348101
0.342913
0.337517
0.331934
0.326186
0.320287
0.314252
0.30809
0.301812
0.295425
0.288934
0.282345
0.27566
0.268884
0.262019
0.255065
0.248025
0.240899
0.233688
0.226392
0.219011
0.211545
0.203993
0.196355
0.188631
0.18082
0.17292
0.164932
0.156854
0.148686
0.140427
0.132076
0.123631
0.115092
0.106457
0.0977269
0.088899
0.079973
0.0709479
0.0618213
0.052596
0.0432625
0.0338373
0.0242831
0.0146738
0.00485237
-8.51384
-8.35106
-8.12103
-7.82696
-7.47159
-7.05894
-6.59862
-6.10372
-5.58828
-5.06616
-4.55003
-4.05054
-3.57597
-3.13214
-2.72255
-2.34872
-2.01058
-1.70695
-1.43595
-1.19529
-0.982482
-0.79499
-0.630324
-0.486117
-0.36016
-0.250419
-0.155046
-0.0723707
-0.000892013
0.0607303
0.11369
0.159049
0.197745
0.230609
0.258375
0.281689
0.301119
0.317164
0.330262
0.340796
0.349101
0.35547
0.360159
0.363388
0.365352
0.366217
0.366129
0.365213
0.363577
0.361315
0.358507
0.355222
0.35152
0.34745
0.343057
0.338378
0.333444
0.328281
0.322913
0.317359
0.311635
0.305756
0.299732
0.293573
0.287288
0.280884
0.274365
0.267738
0.261005
0.25417
0.247236
0.240205
0.233078
0.225857
0.218542
0.211134
0.203634
0.196043
0.188359
0.180583
0.172715
0.164754
0.156701
0.148554
0.140313
0.131977
0.123547
0.11502
0.106396
0.0976753
0.0888556
0.0799367
0.0709178
0.0617967
0.0525762
0.0432472
0.0338255
0.0242757
0.0146676
0.00485381
-8.15097
-7.97982
-7.75091
-7.46786
-7.13334
-6.75062
-6.32735
-5.87397
-5.40189
-4.92256
-4.44671
-3.9836
-3.54066
-3.12336
-2.73528
-2.37828
-2.05285
-1.75843
-1.49374
-1.25704
-1.04631
-0.859444
-0.69428
-0.548736
-0.420829
-0.308707
-0.210661
-0.125133
-0.0507067
0.0138917
0.0698069
0.118062
0.159571
0.195143
0.225499
0.251277
0.27304
0.291285
0.306451
0.318923
0.329038
0.337095
0.343353
0.348039
0.351352
0.353465
0.354528
0.354673
0.354013
0.352648
0.350662
0.34813
0.345117
0.341677
0.337858
0.333701
0.329242
0.324512
0.319536
0.314337
0.308934
0.303345
0.297583
0.29166
0.285587
0.279374
0.273027
0.266553
0.259957
0.253246
0.246421
0.239487
0.232447
0.225303
0.218057
0.21071
0.203264
0.195719
0.188077
0.180338
0.172502
0.16457
0.156542
0.148417
0.140195
0.131876
0.12346
0.114946
0.106333
0.097622
0.0888107
0.0798991
0.0708867
0.0617713
0.0525557
0.0432313
0.0338132
0.024268
0.0146613
0.00485509
-7.8174
-7.64095
-7.41477
-7.14266
-6.8271
-6.4708
-6.07994
-5.6629
-5.22898
-4.78765
-4.34798
-3.91796
-3.50422
-3.11184
-2.74431
-2.40375
-2.09102
-1.80604
-1.54804
-1.31575
-1.10758
-0.921791
-0.756557
-0.610061
-0.480541
-0.366326
-0.265852
-0.177673
-0.100465
-0.0330237
0.0257419
0.0768138
0.121073
0.15931
0.192226
0.22045
0.244538
0.264982
0.282221
0.29664
0.30858
0.318341
0.326186
0.332347
0.337029
0.340409
0.342644
0.343869
0.344205
0.343754
0.342609
0.340847
0.338539
0.335743
0.332512
0.328892
0.324921
0.320633
0.31606
0.311226
0.306153
0.300862
0.295369
0.289689
0.283835
0.277818
0.271647
0.265331
0.258878
0.252292
0.245581
0.238747
0.231797
0.224732
0.217556
0.210272
0.202881
0.195386
0.187787
0.180086
0.172283
0.164381
0.156378
0.148275
0.140073
0.131772
0.12337
0.11487
0.106268
0.0975671
0.0887644
0.0798605
0.0708546
0.0617452
0.0525346
0.043215
0.0338006
0.02426
0.0146549
0.00485615
-7.51065
-7.33127
-7.10898
-6.84756
-6.54931
-6.21648
-5.8541
-5.46899
-5.06874
-4.6612
-4.254
-3.85405
-3.4672
-3.09809
-2.75012
-2.42547
-2.12529
-1.84987
-1.59884
-1.37133
-1.16613
-0.981848
-0.816949
-0.669875
-0.539078
-0.423064
-0.320414
-0.229798
-0.149986
-0.0798479
-0.0183502
0.035444
0.0823821
0.123227
0.158663