/*--------------------------------*- C++ -*----------------------------------*\
  =========                 |
  \\      /  F ield         | OpenFOAM: The Open Source CFD Toolbox
   \\    /   O peration     | Website:  https://openfoam.org
    \\  /    A nd           | Version:  10
     \\/     M anipulation  |
\*---------------------------------------------------------------------------*/
FoamFile
{
    format      ascii;
    class       volVectorField;
    location    "0.005";
    object      U;
}
// * * * * * * * * * * * * * * * * * * * * * * * * * * * * * * * * * * * * * //

dimensions      [0 1 -1 0 0 0 0];

internalField   nonuniform List<vector> 
6820
(
(7.3366 -0.254822 0)
(7.37242 -0.153348 0)
(7.33336 -0.0597833 0)
(7.26119 -0.0125103 0)
(7.1902 0.00634221 0)
(7.12878 0.0114665 0)
(7.07876 0.0112013 0)
(7.04046 0.00908355 0)
(7.01344 0.00617635 0)
(6.99685 0.00280653 0)
(6.98916 -0.000414467 0)
(6.98758 -0.00280034 0)
(6.99001 -0.0043986 0)
(6.99665 -0.00550247 0)
(7.00799 -0.00616233 0)
(7.0242 -0.00653583 0)
(7.04526 -0.00691875 0)
(7.07098 -0.00756405 0)
(7.10128 -0.00857251 0)
(7.13621 -0.00991933 0)
(7.17599 -0.0115418 0)
(7.22104 -0.0134085 0)
(7.27198 -0.0155447 0)
(7.32966 -0.018027 0)
(7.39521 -0.0209753 0)
(7.47011 -0.024561 0)
(7.55637 -0.028992 0)
(7.65667 -0.0347676 0)
(7.77526 -0.0419059 0)
(7.91721 -0.0539251 0)
(8.09657 -0.0638345 0)
(8.31614 -0.108943 0)
(8.67026 -0.116796 0)
(7.32396 0.121122 0)
(7.30487 0.12242 0)
(7.31021 0.0758237 0)
(7.33168 0.0499451 0)
(7.35195 0.0356942 0)
(7.36302 0.0269976 0)
(7.36532 0.0211696 0)
(7.36067 0.0164126 0)
(7.35049 0.0120487 0)
(7.33666 0.00814745 0)
(7.32205 0.00498766 0)
(7.3107 0.00245751 0)
(7.30577 -0.000149148 0)
(7.30794 -0.00336065 0)
(7.31706 -0.0072067 0)
(7.33252 -0.0113838 0)
(7.3536 -0.0155762 0)
(7.37962 -0.0196348 0)
(7.41018 -0.0236071 0)
(7.4452 -0.0276744 0)
(7.48489 -0.0320697 0)
(7.5297 -0.037028 0)
(7.58026 -0.0427804 0)
(7.63743 -0.0495782 0)
(7.70228 -0.0577366 0)
(7.77616 -0.0676835 0)
(7.86102 -0.0800657 0)
(7.95902 -0.0958335 0)
(8.07445 -0.116662 0)
(8.20986 -0.145336 0)
(8.37894 -0.187004 0)
(8.57647 -0.256361 0)
(8.85236 -0.362063 0)
(7.32572 -0.0441049 0)
(7.32387 -0.0528068 0)
(7.33747 -0.0277988 0)
(7.34794 -0.00541527 0)
(7.35599 0.00642312 0)
(7.36419 0.0115553 0)
(7.37198 0.0135364 0)
(7.37841 0.0140594 0)
(7.3825 0.0136622 0)
(7.38376 0.012107 0)
(7.38297 0.00896264 0)
(7.38218 0.00413636 0)
(7.38385 -0.00195124 0)
(7.38976 -0.00861988 0)
(7.40074 -0.0153624 0)
(7.4169 -0.0218731 0)
(7.43796 -0.0281016 0)
(7.46362 -0.0342067 0)
(7.49366 -0.0404578 0)
(7.52811 -0.0471517 0)
(7.56718 -0.0545768 0)
(7.61128 -0.0630192 0)
(7.661 -0.0727924 0)
(7.7171 -0.0842794 0)
(7.78056 -0.0979788 0)
(7.85261 -0.11459 0)
(7.93489 -0.135079 0)
(8.02932 -0.161019 0)
(8.13903 -0.194482 0)
(8.26628 -0.240151 0)
(8.41842 -0.302152 0)
(8.59146 -0.400245 0)
(8.80384 -0.533471 0)
(7.33346 0.0112746 0)
(7.33147 0.0311346 0)
(7.33235 0.0306873 0)
(7.33762 0.0235456 0)
(7.34652 0.0185437 0)
(7.35651 0.015381 0)
(7.36641 0.0132896 0)
(7.37581 0.0118908 0)
(7.38422 0.0107768 0)
(7.39123 0.00927574 0)
(7.39702 0.00656172 0)
(7.40254 0.00202213 0)
(7.40924 -0.00445393 0)
(7.41854 -0.0124557 0)
(7.43147 -0.021275 0)
(7.44854 -0.0302831 0)
(7.46988 -0.0391565 0)
(7.49544 -0.0479153 0)
(7.52518 -0.056827 0)
(7.55917 -0.0662781 0)
(7.59766 -0.0766856 0)
(7.641 -0.0884705 0)
(7.68973 -0.102079 0)
(7.74455 -0.118033 0)
(7.8063 -0.136998 0)
(7.87604 -0.159877 0)
(7.9551 -0.187914 0)
(8.04499 -0.222984 0)
(8.14786 -0.26767 0)
(8.26505 -0.326577 0)
(8.40013 -0.40497 0)
(8.54911 -0.516627 0)
(8.71688 -0.66518 0)
(7.33122 -0.00414433 0)
(7.33075 -0.00606232 0)
(7.33625 -0.00264382 0)
(7.34266 0.00315447 0)
(7.34949 0.00671057 0)
(7.35718 0.00773961 0)
(7.36564 0.00761605 0)
(7.3746 0.00730295 0)
(7.38363 0.0069685 0)
(7.39237 0.00602416 0)
(7.40084 0.00346318 0)
(7.40952 -0.00151986 0)
(7.41928 -0.00905656 0)
(7.43109 -0.0185897 0)
(7.44574 -0.0292553 0)
(7.46377 -0.0403003 0)
(7.48546 -0.0513377 0)
(7.51094 -0.0623847 0)
(7.54031 -0.0737484 0)
(7.57372 -0.0858764 0)
(7.61142 -0.0992575 0)
(7.65374 -0.114393 0)
(7.70117 -0.131821 0)
(7.75427 -0.152174 0)
(7.81377 -0.176244 0)
(7.8805 -0.205088 0)
(7.95546 -0.240125 0)
(8.03968 -0.283392 0)
(8.13442 -0.337606 0)
(8.24014 -0.407105 0)
(8.35787 -0.496811 0)
(8.48354 -0.616768 0)
(8.61605 -0.770624 0)
(7.33277 0.00116928 0)
(7.33317 0.00748879 0)
(7.3365 0.010018 0)
(7.34163 0.00969119 0)
(7.34817 0.00832084 0)
(7.35583 0.00656555 0)
(7.36422 0.00495176 0)
(7.37317 0.00381857 0)
(7.38251 0.00302935 0)
(7.39213 0.00180419 0)
(7.40208 -0.00103505 0)
(7.41267 -0.00646632 0)
(7.42441 -0.0147608 0)
(7.43793 -0.025454 0)
(7.45382 -0.0376628 0)
(7.47256 -0.0505567 0)
(7.49447 -0.0636693 0)
(7.51979 -0.0769707 0)
(7.54867 -0.0907644 0)
(7.58133 -0.105531 0)
(7.61799 -0.121818 0)
(7.65898 -0.140197 0)
(7.70468 -0.161286 0)
(7.75556 -0.185802 0)
(7.81218 -0.21463 0)
(7.87513 -0.248915 0)
(7.94507 -0.290154 0)
(8.02255 -0.34039 0)
(8.10809 -0.402261 0)
(8.20136 -0.479556 0)
(8.30185 -0.576522 0)
(8.40544 -0.700105 0)
(8.50875 -0.853258 0)
(7.33266 -0.000214146 0)
(7.33328 0.00109841 0)
(7.33687 0.0024206 0)
(7.34211 0.00326593 0)
(7.34836 0.00321463 0)
(7.35554 0.00218298 0)
(7.36348 0.000765451 0)
(7.37216 -0.000444862 0)
(7.38155 -0.00143067 0)
(7.39164 -0.0029385 0)
(7.40251 -0.00618505 0)
(7.41434 -0.0122172 0)
(7.42742 -0.0213715 0)
(7.44214 -0.0332087 0)
(7.45891 -0.0468409 0)
(7.47812 -0.0614094 0)
(7.5001 -0.0764168 0)
(7.52509 -0.0918148 0)
(7.55331 -0.107908 0)
(7.58498 -0.125199 0)
(7.62033 -0.14427 0)
(7.65963 -0.165741 0)
(7.70317 -0.190282 0)
(7.75132 -0.218663 0)
(7.80443 -0.251816 0)
(7.86289 -0.290915 0)
(7.92701 -0.337445 0)
(7.99693 -0.393336 0)
(8.07254 -0.460984 0)
(8.15297 -0.543534 0)
(8.23678 -0.644384 0)
(8.31998 -0.768177 0)
(8.39862 -0.916892 0)
(7.33291 0.000232398 0)
(7.33384 0.00185652 0)
(7.33708 0.00284602 0)
(7.34184 0.00265621 0)
(7.3477 0.00144062 0)
(7.35456 -0.000511013 0)
(7.36228 -0.00264132 0)
(7.37085 -0.00444733 0)
(7.38033 -0.00598695 0)
(7.39079 -0.00806294 0)
(7.40234 -0.0119347 0)
(7.41507 -0.01869 0)
(7.42911 -0.0287161 0)
(7.44468 -0.0416179 0)
(7.46205 -0.0565386 0)
(7.4815 -0.0726275 0)
(7.50334 -0.0893793 0)
(7.52783 -0.106734 0)
(7.5552 -0.124992 0)
(7.58566 -0.144662 0)
(7.61942 -0.166348 0)
(7.65668 -0.190696 0)
(7.69767 -0.218403 0)
(7.74262 -0.250262 0)
(7.79172 -0.287211 0)
(7.84512 -0.330395 0)
(7.90285 -0.381215 0)
(7.96469 -0.441409 0)
(8.03011 -0.513035 0)
(8.09784 -0.598586 0)
(8.16601 -0.700613 0)
(8.2309 -0.822083 0)
(8.28875 -0.964061 0)
(7.33297 -5.23843e-05 0)
(7.334 0.000461961 0)
(7.33703 0.000542712 0)
(7.34153 -0.0002062 0)
(7.34711 -0.00176529 0)
(7.35366 -0.00400135 0)
(7.36109 -0.00647518 0)
(7.36945 -0.00873427 0)
(7.37889 -0.0108387 0)
(7.38957 -0.0135759 0)
(7.40157 -0.0181852 0)
(7.41494 -0.0257457 0)
(7.42966 -0.0366632 0)
(7.44581 -0.0505801 0)
(7.46353 -0.066682 0)
(7.48302 -0.0841481 0)
(7.50454 -0.102485 0)
(7.52835 -0.121633 0)
(7.55467 -0.141886 0)
(7.5837 -0.163752 0)
(7.6156 -0.187838 0)
(7.65054 -0.214798 0)
(7.68865 -0.245332 0)
(7.73002 -0.280224 0)
(7.77472 -0.320382 0)
(7.82269 -0.366877 0)
(7.87371 -0.420975 0)
(7.92732 -0.484171 0)
(7.98266 -0.558152 0)
(8.0383 -0.644803 0)
(8.09221 -0.74592 0)
(8.14103 -0.863275 0)
(8.18154 -0.997202 0)
(7.33304 -0.000199196 0)
(7.33413 -0.00031726 0)
(7.33695 -0.000822649 0)
(7.34116 -0.00211743 0)
(7.34641 -0.00423144 0)
(7.35261 -0.00702559 0)
(7.35973 -0.0100692 0)
(7.36784 -0.0129634 0)
(7.37717 -0.0157983 0)
(7.38792 -0.019354 0)
(7.40019 -0.0248338 0)
(7.41395 -0.0332839 0)
(7.42911 -0.0451091 0)
(7.44561 -0.0599884 0)
(7.46345 -0.0771624 0)
(7.48279 -0.09586 0)
(7.50382 -0.115617 0)
(7.52677 -0.136379 0)
(7.55186 -0.158436 0)
(7.57925 -0.182285 0)
(7.60908 -0.208522 0)
(7.64145 -0.237788 0)
(7.67641 -0.270767 0)
(7.71396 -0.308209 0)
(7.75401 -0.350958 0)
(7.79634 -0.399982 0)
(7.84057 -0.456378 0)
(7.88604 -0.521381 0)
(7.93175 -0.596308 0)
(7.97618 -0.682514 0)
(8.01736 -0.781166 0)
(8.05237 -0.893201 0)
(8.07854 -1.01843 0)
(7.33306 -0.000436446 0)
(7.33415 -0.00123877 0)
(7.3368 -0.00240865 0)
(7.34073 -0.00427597 0)
(7.34568 -0.00690392 0)
(7.35155 -0.0101732 0)
(7.35832 -0.0137329 0)
(7.36613 -0.0172614 0)
(7.37523 -0.0208817 0)
(7.38589 -0.0253484 0)
(7.39822 -0.0317959 0)
(7.41216 -0.041202 0)
(7.42753 -0.0539468 0)
(7.44414 -0.0697375 0)
(7.46191 -0.0878773 0)
(7.4809 -0.107659 0)
(7.50126 -0.128662 0)
(7.52319 -0.150847 0)
(7.54687 -0.174497 0)
(7.57245 -0.20009 0)
(7.60003 -0.2282 0)
(7.62964 -0.259439 0)
(7.66126 -0.294455 0)
(7.69481 -0.333942 0)
(7.73008 -0.378662 0)
(7.76674 -0.429455 0)
(7.80427 -0.487239 0)
(7.84191 -0.552988 0)
(7.8786 -0.627681 0)
(7.91286 -0.712229 0)
(7.94287 -0.807304 0)
(7.96613 -0.91327 0)
(7.98056 -1.0296 0)
(7.33307 -0.000682602 0)
(7.33414 -0.00208581 0)
(7.33662 -0.00384929 0)
(7.34029 -0.00625772 0)
(7.34493 -0.0093909 0)
(7.35046 -0.0131573 0)
(7.35686 -0.0172739 0)
(7.36431 -0.0214949 0)
(7.3731 -0.0259811 0)
(7.38354 -0.0314554 0)
(7.39575 -0.0389633 0)
(7.40965 -0.0493879 0)
(7.42499 -0.0630627 0)
(7.4415 -0.0797148 0)
(7.459 -0.0987146 0)
(7.47745 -0.119432 0)
(7.49697 -0.141501 0)
(7.51771 -0.164904 0)
(7.53983 -0.189919 0)
(7.56345 -0.216999 0)
(7.58861 -0.246684 0)
(7.61532 -0.279545 0)
(7.64349 -0.316176 0)
(7.67295 -0.357202 0)
(7.70341 -0.403287 0)
(7.73447 -0.455136 0)
(7.76554 -0.513484 0)
(7.7958 -0.579067 0)
(7.82419 -0.652566 0)
(7.84934 -0.734536 0)
(7.86966 -0.825275 0)
(7.88305 -0.924765 0)
(7.88791 -1.03229 0)
(7.33308 -0.000935553 0)
(7.3341 -0.00291419 0)
(7.33641 -0.00525308 0)
(7.33983 -0.00819501 0)
(7.34417 -0.0118258 0)
(7.34935 -0.0160803 0)
(7.35538 -0.0207471 0)
(7.36242 -0.0256709 0)
(7.37082 -0.0310609 0)
(7.3809 -0.0376049 0)
(7.39283 -0.0462406 0)
(7.4065 -0.0577303 0)
(7.42161 -0.0723381 0)
(7.43779 -0.0897996 0)
(7.45481 -0.109554 0)
(7.47255 -0.131056 0)
(7.49106 -0.154005 0)
(7.51046 -0.178415 0)
(7.53088 -0.204556 0)
(7.5524 -0.232853 0)
(7.57504 -0.263803 0)
(7.59875 -0.297924 0)
(7.6234 -0.335747 0)
(7.64875 -0.377817 0)
(7.67448 -0.424692 0)
(7.70011 -0.476944 0)
(7.72502 -0.535134 0)
(7.74842 -0.599786 0)
(7.76929 -0.671332 0)
(7.7864 -0.75005 0)
(7.79839 -0.835971 0)
(7.80354 -0.928829 0)
(7.80064 -1.02782 0)
(7.33308 -0.00118744 0)
(7.33404 -0.00370952 0)
(7.33619 -0.00659146 0)
(7.33937 -0.0100434 0)
(7.3434 -0.014153 0)
(7.34823 -0.0188826 0)
(7.35386 -0.0240944 0)
(7.36047 -0.0297295 0)
(7.36841 -0.0360518 0)
(7.37804 -0.0437118 0)
(7.38954 -0.0535255 0)
(7.40279 -0.0661129 0)
(7.41746 -0.0816481 0)
(7.43313 -0.0998635 0)
(7.44947 -0.120265 0)
(7.46631 -0.1424 0)
(7.48366 -0.166044 0)
(7.50157 -0.191244 0)
(7.52016 -0.218265 0)
(7.53948 -0.247502 0)
(7.55951 -0.2794 0)
(7.58017 -0.31442 0)
(7.60128 -0.35302 0)
(7.62258 -0.395661 0)
(7.6437 -0.442796 0)
(7.66414 -0.494867 0)
(7.6833 -0.55228 0)
(7.7004 -0.615376 0)
(7.71453 -0.684387 0)
(7.72461 -0.759386 0)
(7.72949 -0.840217 0)
(7.72781 -0.926468 0)
(7.71867 -1.01731 0)
(7.33308 -0.00143314 0)
(7.33398 -0.00447024 0)
(7.33597 -0.00786709 0)
(7.33889 -0.0118086 0)
(7.34263 -0.0163794 0)
(7.3471 -0.0215672 0)
(7.35231 -0.0273086 0)
(7.35846 -0.0336467 0)
(7.36589 -0.0409075 0)
(7.37498 -0.0497049 0)
(7.38592 -0.0607229 0)
(7.3986 -0.0744214 0)
(7.41264 -0.0908658 0)
(7.42759 -0.109773 0)
(7.44307 -0.130714 0)
(7.45885 -0.153332 0)
(7.47488 -0.177483 0)
(7.49119 -0.203254 0)
(7.50785 -0.230909 0)
(7.52489 -0.260806 0)
(7.54226 -0.293339 0)
(7.55985 -0.328903 0)
(7.57746 -0.367884 0)
(7.59481 -0.410654 0)
(7.6115 -0.457568 0)
(7.62705 -0.508948 0)
(7.64088 -0.565064 0)
(7.65227 -0.626109 0)
(7.66042 -0.692159 0)
(7.6644 -0.763137 0)
(7.66328 -0.838767 0)
(7.65596 -0.91856 0)
(7.64183 -1.00172 0)
(7.33307 -0.00166929 0)
(7.33391 -0.00519291 0)
(7.33573 -0.00907516 0)
(7.33842 -0.0134813 0)
(7.34185 -0.0184903 0)
(7.34595 -0.0241135 0)
(7.35075 -0.030362 0)
(7.3564 -0.0373848 0)
(7.36328 -0.0455749 0)
(7.37175 -0.0555108 0)
(7.38202 -0.0677376 0)
(7.39398 -0.082541 0)
(7.40723 -0.0998628 0)
(7.42129 -0.119394 0)
(7.43573 -0.140763 0)
(7.45029 -0.163714 0)
(7.46487 -0.188186 0)
(7.47946 -0.214313 0)
(7.49411 -0.242355 0)
(7.50881 -0.272638 0)
(7.52351 -0.305499 0)
(7.53806 -0.341268 0)
(7.55224 -0.380257 0)
(7.56578 -0.422755 0)
(7.57827 -0.469021 0)
(7.58927 -0.519275 0)
(7.59822 -0.573672 0)
(7.60449 -0.632285 0)
(7.60737 -0.695075 0)
(7.60611 -0.761864 0)
(7.59994 -0.832302 0)
(7.58803 -0.905871 0)
(7.56993 -0.981825 0)
(7.33307 -0.00189344 0)
(7.33383 -0.00587415 0)
(7.33549 -0.0102114 0)
(7.33794 -0.0150549 0)
(7.34106 -0.0204762 0)
(7.3448 -0.0265081 0)
(7.34915 -0.033235 0)
(7.3543 -0.0409134 0)
(7.36058 -0.0500075 0)
(7.36838 -0.0610617 0)
(7.37788 -0.0744786 0)
(7.38898 -0.0903599 0)
(7.4013 -0.108512 0)
(7.41431 -0.128589 0)
(7.42756 -0.150275 0)
(7.44076 -0.173409 0)
(7.45377 -0.198022 0)
(7.46656 -0.224293 0)
(7.47913 -0.252484 0)
(7.49147 -0.282887 0)
(7.50349 -0.315783 0)
(7.51505 -0.351438 0)
(7.52593 -0.390092 0)
(7.53583 -0.431955 0)
(7.54439 -0.477205 0)
(7.55118 -0.52597 0)
(7.55571 -0.578313 0)
(7.55742 -0.634216 0)
(7.55571 -0.693555 0)
(7.54997 -0.756087 0)
(7.53961 -0.821429 0)
(7.52396 -0.889063 0)
(7.50276 -0.958309 0)
(7.33306 -0.00210369 0)
(7.33375 -0.00651045 0)
(7.33525 -0.0112706 0)
(7.33746 -0.0165212 0)
(7.34027 -0.0223253 0)
(7.34363 -0.0287346 0)
(7.34754 -0.0359051 0)
(7.35215 -0.0442006 0)
(7.35781 -0.0541584 0)
(7.36487 -0.0662911 0)
(7.37353 -0.0808571 0)
(7.38367 -0.0977687 0)
(7.39491 -0.116688 0)
(7.40673 -0.137225 0)
(7.41867 -0.159112 0)
(7.43039 -0.182285 0)
(7.44173 -0.206863 0)
(7.45264 -0.233075 0)
(7.46309 -0.261186 0)
(7.47306 -0.291455 0)
(7.48246 -0.324112 0)
(7.49111 -0.359358 0)
(7.49882 -0.397367 0)
(7.50529 -0.43828 0)
(7.51019 -0.4822 0)
(7.51314 -0.529182 0)
(7.51369 -0.579215 0)
(7.51137 -0.632213 0)
(7.5057 -0.687997 0)
(7.49617 -0.746287 0)
(7.48233 -0.806689 0)
(7.46369 -0.868707 0)
(7.44008 -0.931734 0)
(7.33305 -0.00229846 0)
(7.33367 -0.00709819 0)
(7.33501 -0.0122472 0)
(7.33697 -0.0178718 0)
(7.33947 -0.0240255 0)
(7.34245 -0.0307768 0)
(7.3459 -0.0383506 0)
(7.34997 -0.0472158 0)
(7.35498 -0.0579832 0)
(7.36126 -0.0711354 0)
(7.369 -0.0867879 0)
(7.37809 -0.104662 0)
(7.38815 -0.12427 0)
(7.39866 -0.145172 0)
(7.40915 -0.167143 0)
(7.41929 -0.190213 0)
(7.42889 -0.214588 0)
(7.43787 -0.240547 0)
(7.44619 -0.268363 0)
(7.45382 -0.298262 0)
(7.46064 -0.330425 0)
(7.4665 -0.364996 0)
(7.47119 -0.402087 0)
(7.47446 -0.441777 0)
(7.47599 -0.484108 0)
(7.47545 -0.529075 0)
(7.47245 -0.576612 0)
(7.46662 -0.626584 0)
(7.45754 -0.678779 0)
(7.44482 -0.732898 0)
(7.42813 -0.788558 0)
(7.40711 -0.845295 0)
(7.38167 -0.902575 0)
(7.33305 -0.00247633 0)
(7.33359 -0.00763369 0)
(7.33477 -0.0131353 0)
(7.33649 -0.0190974 0)
(7.33867 -0.0255642 0)
(7.34126 -0.0326184 0)
(7.34425 -0.0405498 0)
(7.34777 -0.0499289 0)
(7.3521 -0.0614386 0)
(7.35757 -0.0755333 0)
(7.36433 -0.0921889 0)
(7.37229 -0.110937 0)
(7.38107 -0.131141 0)
(7.39017 -0.152305 0)
(7.39913 -0.174243 0)
(7.4076 -0.197072 0)
(7.4154 -0.221085 0)
(7.42242 -0.246611 0)
(7.42862 -0.273929 0)
(7.43394 -0.303241 0)
(7.43826 -0.334682 0)
(7.44146 -0.368341 0)
(7.44332 -0.404276 0)
(7.44361 -0.442515 0)
(7.44206 -0.483049 0)
(7.43838 -0.525826 0)
(7.43225 -0.570739 0)
(7.42335 -0.617624 0)
(7.41137 -0.666249 0)
(7.396 -0.716314 0)
(7.37699 -0.767455 0)
(7.3541 -0.819248 0)
(7.3273 -0.871228 0)
(7.33304 -0.00263596 0)
(7.33351 -0.00811316 0)
(7.33452 -0.0139284 0)
(7.336 -0.020189 0)
(7.33786 -0.0269289 0)
(7.34006 -0.0342431 0)
(7.34258 -0.0424816 0)
(7.34554 -0.052311 0)
(7.34918 -0.0644833 0)
(7.35381 -0.0794265 0)
(7.35955 -0.0969824 0)
(7.36631 -0.116499 0)
(7.37374 -0.137191 0)
(7.38135 -0.158506 0)
(7.38871 -0.180291 0)
(7.39546 -0.202748 0)
(7.40142 -0.22625 0)
(7.40647 -0.251177 0)
(7.41057 -0.277815 0)
(7.41363 -0.306344 0)
(7.41557 -0.336856 0)
(7.41623 -0.369397 0)
(7.41544 -0.403976 0)
(7.41299 -0.440577 0)
(7.40865 -0.479152 0)
(7.40217 -0.519613 0)
(7.39328 -0.561828 0)
(7.38174 -0.605612 0)
(7.3673 -0.650727 0)
(7.34973 -0.696885 0)
(7.32886 -0.743746 0)
(7.30453 -0.790927 0)
(7.27675 -0.838028 0)
(7.33304 -0.00277605 0)
(7.33343 -0.0085328 0)
(7.33428 -0.0146202 0)
(7.33551 -0.0211369 0)
(7.33705 -0.0281068 0)
(7.33886 -0.0356348 0)
(7.34091 -0.0441255 0)
(7.3433 -0.0543346 0)
(7.34625 -0.0670783 0)
(7.35001 -0.08276 0)
(7.3547 -0.101095 0)
(7.36022 -0.121256 0)
(7.36623 -0.142316 0)
(7.3723 -0.163664 0)
(7.37799 -0.18518 0)
(7.38299 -0.207138 0)
(7.38709 -0.229992 0)
(7.39019 -0.254167 0)
(7.39222 -0.279962 0)
(7.39311 -0.307533 0)
(7.39276 -0.33694 0)
(7.39104 -0.368185 0)
(7.38779 -0.401242 0)
(7.38284 -0.436057 0)
(7.37598 -0.472553 0)
(7.36701 -0.510617 0)
(7.35572 -0.550099 0)
(7.34191 -0.590806 0)
(7.3254 -0.632505 0)
(7.30603 -0.674922 0)
(7.28369 -0.717745 0)
(7.25827 -0.760636 0)
(7.22983 -0.803252 0)
(7.33303 -0.00289536 0)
(7.33335 -0.00888886 0)
(7.33403 -0.0152044 0)
(7.33502 -0.0219322 0)
(7.33624 -0.0290861 0)
(7.33766 -0.0367786 0)
(7.33924 -0.045463 0)
(7.34107 -0.0559748 0)
(7.34331 -0.0691884 0)
(7.3462 -0.0854838 0)
(7.34982 -0.104459 0)
(7.35406 -0.125124 0)
(7.35862 -0.14642 0)
(7.3631 -0.16768 0)
(7.3671 -0.188808 0)
(7.37031 -0.21015 0)
(7.37256 -0.23223 0)
(7.37373 -0.255519 0)
(7.37375 -0.280324 0)
(7.37255 -0.306786 0)
(7.37004 -0.334935 0)
(7.3661 -0.36474 0)
(7.36059 -0.396141 0)
(7.35336 -0.429058 0)
(7.34424 -0.463391 0)
(7.33307 -0.499012 0)
(7.3197 -0.535762 0)
(7.30396 -0.573447 0)
(7.28573 -0.611844 0)
(7.2649 -0.650697 0)
(7.2414 -0.689727 0)
(7.21518 -0.728634 0)
(7.18632 -0.767128 0)
(7.33302 -0.00299267 0)
(7.33327 -0.00917761 0)
(7.33379 -0.0156745 0)
(7.33453 -0.0225655 0)
(7.33544 -0.0298543 0)
(7.33647 -0.0376591 0)
(7.33758 -0.0464747 0)
(7.33884 -0.0572062 0)
(7.34039 -0.0707785 0)
(7.3424 -0.0875491 0)
(7.34493 -0.10701 0)
(7.34788 -0.128025 0)
(7.35097 -0.149413 0)
(7.35384 -0.170458 0)
(7.35613 -0.191085 0)
(7.35757 -0.211701 0)
(7.35798 -0.232896 0)
(7.35727 -0.25518 0)
(7.35535 -0.278869 0)
(7.35216 -0.304094 0)
(7.34761 -0.330858 0)
(7.3416 -0.359103 0)
(7.33401 -0.388745 0)
(7.32472 -0.419684 0)
(7.3136 -0.451803 0)
(7.30051 -0.484966 0)
(7.28533 -0.519012 0)
(7.26796 -0.553752 0)
(7.2483 -0.588976 0)
(7.2263 -0.62445 0)
(7.20192 -0.659924 0)
(7.17514 -0.695137 0)
(7.14606 -0.729843 0)
(7.33302 -0.00306679 0)
(7.33319 -0.00939562 0)
(7.33355 -0.0160252 0)
(7.33405 -0.0230297 0)
(7.33465 -0.0304032 0)
(7.33529 -0.0382672 0)
(7.33594 -0.0471503 0)
(7.33665 -0.0580149 0)
(7.33751 -0.0718268 0)
(7.33864 -0.0889223 0)
(7.34009 -0.1087 0)
(7.34174 -0.129896 0)
(7.34335 -0.151224 0)
(7.3446 -0.171923 0)
(7.34519 -0.191936 0)
(7.34487 -0.211725 0)
(7.34349 -0.231935 0)
(7.34095 -0.25311 0)
(7.33717 -0.275578 0)
(7.33209 -0.299457 0)
(7.32564 -0.324734 0)
(7.31772 -0.351327 0)
(7.30825 -0.379134 0)
(7.2971 -0.40804 0)
(7.2842 -0.437922 0)
(7.26943 -0.468638 0)
(7.25271 -0.500029 0)
(7.23396 -0.531917 0)
(7.21314 -0.564106 0)
(7.19021 -0.596385 0)
(7.16517 -0.628533 0)
(7.13802 -0.660324 0)
(7.10887 -0.69155 0)
(7.33301 -0.00311656 0)
(7.33311 -0.00953899 0)
(7.33331 -0.016249 0)
(7.33357 -0.0233128 0)
(7.33386 -0.0307152 0)
(7.33413 -0.0385791 0)
(7.33433 -0.0474593 0)
(7.33449 -0.0583632 0)
(7.33468 -0.0722872 0)
(7.33495 -0.0895473 0)
(7.33532 -0.109462 0)
(7.33569 -0.130662 0)
(7.33583 -0.151772 0)
(7.33548 -0.171995 0)
(7.33439 -0.191288 0)
(7.33235 -0.210159 0)
(7.32922 -0.229296 0)
(7.32492 -0.249277 0)
(7.31937 -0.270436 0)
(7.31252 -0.292885 0)
(7.30429 -0.316593 0)
(7.29463 -0.341465 0)
(7.28344 -0.367385 0)
(7.27064 -0.394231 0)
(7.25616 -0.421873 0)
(7.23994 -0.450172 0)
(7.2219 -0.478975 0)
(7.20201 -0.508115 0)
(7.18024 -0.537412 0)
(7.15658 -0.566678 0)
(7.13106 -0.59572 0)
(7.1037 -0.624341 0)
(7.07459 -0.652368 0)
(7.333 -0.00314111 0)
(7.33303 -0.00960637 0)
(7.33308 -0.0163471 0)
(7.33311 -0.023422 0)
(7.3331 -0.0308069 0)
(7.33299 -0.0386225 0)
(7.33276 -0.0474386 0)
(7.3324 -0.0582919 0)
(7.33192 -0.0721967 0)
(7.33135 -0.0894496 0)
(7.33068 -0.109307 0)
(7.32978 -0.130317 0)
(7.32848 -0.151037 0)
(7.32656 -0.170645 0)
(7.32383 -0.18911 0)
(7.32011 -0.206974 0)
(7.3153 -0.224963 0)
(7.30932 -0.243676 0)
(7.3021 -0.263452 0)
(7.29359 -0.2844 0)
(7.28373 -0.306478 0)
(7.27246 -0.32958 0)
(7.25973 -0.353583 0)
(7.24546 -0.378358 0)
(7.2296 -0.403778 0)
(7.21211 -0.429706 0)
(7.19296 -0.455998 0)
(7.17212 -0.4825 0)
(7.14959 -0.509049 0)
(7.12537 -0.535479 0)
(7.09952 -0.561621 0)
(7.07207 -0.587306 0)
(7.0431 -0.612388 0)
(7.333 -0.0031385 0)
(7.33295 -0.00958787 0)
(7.33284 -0.0162939 0)
(7.33265 -0.0233075 0)
(7.33234 -0.0305974 0)
(7.33188 -0.0382843 0)
(7.33123 -0.0469492 0)
(7.33036 -0.0576455 0)
(7.32925 -0.0713939 0)
(7.32788 -0.0884704 0)
(7.32619 -0.108083 0)
(7.32407 -0.128719 0)
(7.32137 -0.148894 0)
(7.31793 -0.167764 0)
(7.31361 -0.185311 0)
(7.30828 -0.202101 0)
(7.30187 -0.218885 0)
(7.29429 -0.236276 0)
(7.2855 -0.254619 0)
(7.27545 -0.274018 0)
(7.26409 -0.294425 0)
(7.25137 -0.315728 0)
(7.23724 -0.3378 0)
(7.22166 -0.360513 0)
(7.2046 -0.383742 0)
(7.18603 -0.407357 0)
(7.16593 -0.431224 0)
(7.14431 -0.455202 0)
(7.12117 -0.479146 0)
(7.09654 -0.502909 0)
(7.07047 -0.526344 0)
(7.04302 -0.549307 0)
(7.01426 -0.571678 0)
(7.33299 -0.00311074 0)
(7.33289 -0.00950374 0)
(7.33263 -0.0161523 0)
(7.33223 -0.0230979 0)
(7.33164 -0.0302934 0)
(7.33084 -0.0378447 0)
(7.32978 -0.0463236 0)
(7.32842 -0.0567788 0)
(7.3267 -0.0702243 0)
(7.32455 -0.0869203 0)
(7.32187 -0.106051 0)
(7.31857 -0.12608 0)
(7.31453 -0.145503 0)
(7.30963 -0.163474 0)
(7.3038 -0.179984 0)
(7.29695 -0.195612 0)
(7.28901 -0.211121 0)
(7.27995 -0.227132 0)
(7.2697 -0.24399 0)
(7.25823 -0.261796 0)
(7.24549 -0.280499 0)
(7.23146 -0.299985 0)
(7.21609 -0.320125 0)
(7.19935 -0.340795 0)
(7.18124 -0.361874 0)
(7.16174 -0.383241 0)
(7.14085 -0.404772 0)
(7.11859 -0.42634 0)
(7.09497 -0.447816 0)
(7.07004 -0.469072 0)
(7.04385 -0.48998 0)
(7.01646 -0.510418 0)
(6.98795 -0.530286 0)
(7.33298 -0.00304491 0)
(7.33278 -0.00927224 0)
(7.33236 -0.0157118 0)
(7.33172 -0.0224081 0)
(7.33086 -0.0293247 0)
(7.32975 -0.036577 0)
(7.32834 -0.0447366 0)
(7.32655 -0.0548374 0)
(7.32429 -0.067868 0)
(7.32143 -0.0840606 0)
(7.31784 -0.102578 0)
(7.31343 -0.121873 0)
(7.30811 -0.140443 0)
(7.30184 -0.157445 0)
(7.29457 -0.172876 0)
(7.28627 -0.18732 0)
(7.27691 -0.201541 0)
(7.26645 -0.216158 0)
(7.25484 -0.231517 0)
(7.24206 -0.247717 0)
(7.22808 -0.264709 0)
(7.21285 -0.282379 0)
(7.19637 -0.300604 0)
(7.17862 -0.319264 0)
(7.1596 -0.338245 0)
(7.1393 -0.357436 0)
(7.11775 -0.376723 0)
(7.09496 -0.395994 0)
(7.07097 -0.415135 0)
(7.04583 -0.434034 0)
(7.01959 -0.452582 0)
(6.99232 -0.470674 0)
(6.96409 -0.488228 0)
(7.33299 -0.0029794 0)
(7.33278 -0.00913845 0)
(7.33227 -0.0155735 0)
(7.33146 -0.0222722 0)
(7.33035 -0.0291347 0)
(7.3289 -0.0362308 0)
(7.32708 -0.0440975 0)
(7.32481 -0.0537364 0)
(7.32196 -0.0661139 0)
(7.31838 -0.0814652 0)
(7.31391 -0.0989834 0)
(7.30846 -0.117167 0)
(7.30197 -0.134553 0)
(7.29442 -0.150324 0)
(7.28584 -0.164482 0)
(7.27623 -0.177599 0)
(7.26556 -0.190428 0)
(7.25383 -0.203574 0)
(7.24099 -0.217376 0)
(7.22703 -0.23193 0)
(7.21192 -0.247187 0)
(7.19563 -0.263037 0)
(7.17817 -0.27936 0)
(7.15953 -0.296042 0)
(7.13972 -0.312976 0)
(7.11875 -0.330061 0)
(7.09664 -0.347194 0)
(7.07343 -0.364275 0)
(7.04916 -0.381203 0)
(7.02388 -0.397883 0)
(6.99764 -0.41422 0)
(6.97052 -0.430126 0)
(6.94258 -0.445535 0)
(7.33293 -0.00276638 0)
(7.33247 -0.00832248 0)
(7.33166 -0.0140417 0)
(7.33061 -0.020029 0)
(7.32931 -0.0262612 0)
(7.32771 -0.0328286 0)
(7.32571 -0.0402373 0)
(7.32319 -0.0494211 0)
(7.31997 -0.0612667 0)
(7.31585 -0.075951 0)
(7.31063 -0.0926518 0)
(7.30424 -0.109891 0)
(7.29665 -0.126244 0)
(7.28791 -0.14092 0)
(7.27808 -0.153923 0)
(7.26721 -0.165814 0)
(7.25532 -0.177326 0)
(7.24238 -0.189056 0)
(7.2284 -0.201339 0)
(7.21334 -0.214275 0)
(7.19719 -0.227824 0)
(7.17995 -0.241884 0)
(7.16161 -0.256343 0)
(7.14218 -0.271096 0)
(7.12168 -0.286047 0)
(7.10013 -0.301102 0)
(7.07756 -0.316172 0)
(7.05401 -0.331167 0)
(7.02953 -0.346002 0)
(7.00415 -0.360592 0)
(6.97796 -0.374859 0)
(6.95101 -0.388728 0)
(6.92335 -0.402143 0)
(7.33307 -0.00289444 0)
(7.33294 -0.00906645 0)
(7.33221 -0.015549 0)
(7.33097 -0.0221068 0)
(7.32928 -0.0285535 0)
(7.32716 -0.0349602 0)
(7.32458 -0.0418376 0)
(7.32145 -0.0501063 0)
(7.31758 -0.0606576 0)
(7.31277 -0.0737298 0)
(7.30681 -0.0886203 0)
(7.29959 -0.103989 0)
(7.2911 -0.118519 0)
(7.28141 -0.13147 0)
(7.2706 -0.142841 0)
(7.25873 -0.153157 0)
(7.24582 -0.163108 0)
(7.23189 -0.173251 0)
(7.21693 -0.183901 0)
(7.20093 -0.195149 0)
(7.18388 -0.206952 0)
(7.1658 -0.219212 0)
(7.1467 -0.231821 0)
(7.1266 -0.244678 0)
(7.10551 -0.257695 0)
(7.08348 -0.270786 0)
(7.06053 -0.283871 0)
(7.0367 -0.296872 0)
(7.01205 -0.309714 0)
(6.98663 -0.322326 0)
(6.9605 -0.33464 0)
(6.93372 -0.346595 0)
(6.90635 -0.358144 0)
(7.3327 -0.0017428 0)
(7.33148 -0.0051916 0)
(7.33015 -0.00918044 0)
(7.32888 -0.0139715 0)
(7.32748 -0.0193566 0)
(7.32572 -0.0252201 0)
(7.32346 -0.0318905 0)
(7.32053 -0.0401133 0)
(7.31666 -0.0506067 0)
(7.31158 -0.0634713 0)
(7.30509 -0.0779378 0)
(7.29712 -0.0926723 0)
(7.28771 -0.106399 0)
(7.27699 -0.118416 0)
(7.26509 -0.128735 0)
(7.25212 -0.137878 0)
(7.23812 -0.14653 0)
(7.22313 -0.155254 0)
(7.20716 -0.164376 0)
(7.19021 -0.174007 0)
(7.1723 -0.18412 0)
(7.15343 -0.19463 0)
(7.13363 -0.205441 0)
(7.11292 -0.216461 0)
(7.09131 -0.227611 0)
(7.06885 -0.238814 0)
(7.04558 -0.25 0)
(7.02153 -0.261103 0)
(6.99675 -0.272057 0)
(6.97131 -0.282803 0)
(6.94525 -0.293284 0)
(6.91865 -0.303449 0)
(6.89154 -0.31326 0)
(7.33337 -0.00370829 0)
(7.33359 -0.0119015 0)
(7.3323 -0.0195763 0)
(7.33013 -0.0261716 0)
(7.3276 -0.0318267 0)
(7.32472 -0.0369279 0)
(7.32137 -0.0420369 0)
(7.31741 -0.0479755 0)
(7.31263 -0.0555569 0)
(7.30683 -0.06508 0)
(7.29982 -0.0760596 0)
(7.29149 -0.0874409 0)
(7.28184 -0.0981376 0)
(7.27089 -0.107514 0)
(7.2587 -0.115551 0)
(7.24531 -0.122682 0)
(7.23078 -0.129493 0)
(7.21516 -0.136468 0)
(7.1985 -0.143876 0)
(7.18085 -0.151794 0)
(7.16225 -0.160179 0)
(7.14274 -0.168936 0)
(7.12235 -0.177968 0)
(7.10113 -0.187185 0)
(7.07909 -0.196511 0)
(7.05628 -0.205878 0)
(7.03273 -0.215224 0)
(7.00849 -0.224491 0)
(6.98362 -0.233625 0)
(6.95816 -0.242575 0)
(6.93217 -0.251296 0)
(6.90572 -0.259744 0)
(6.87884 -0.26789 0)
(7.33188 0.00210849 0)
(7.32897 0.00517888 0)
(7.32776 0.00454003 0)
(7.32725 0.000639326 0)
(7.3264 -0.00462397 0)
(7.32485 -0.0104642 0)
(7.32261 -0.016975 0)
(7.31953 -0.0247355 0)
(7.31532 -0.0343351 0)
(7.30969 -0.0458136 0)
(7.30244 -0.0584212 0)
(7.29349 -0.0708972 0)
(7.28291 -0.0820487 0)
(7.27082 -0.0912376 0)
(7.25737 -0.0985245 0)
(7.2427 -0.104477 0)
(7.22693 -0.109829 0)
(7.21016 -0.115188 0)
(7.19247 -0.120912 0)
(7.17392 -0.127122 0)
(7.15455 -0.133789 0)
(7.13438 -0.140821 0)
(7.11345 -0.148114 0)
(7.09177 -0.15558 0)
(7.06936 -0.163146 0)
(7.04627 -0.170751 0)
(7.02253 -0.178339 0)
(6.99817 -0.185865 0)
(6.97325 -0.193282 0)
(6.94783 -0.200549 0)
(6.92195 -0.20763 0)
(6.89567 -0.214489 0)
(6.86904 -0.221101 0)
(7.33388 -0.00757032 0)
(7.33272 -0.0234353 0)
(7.32743 -0.0344932 0)
(7.32253 -0.0402151 0)
(7.31916 -0.043625 0)
(7.3161 -0.0460031 0)
(7.31268 -0.0479042 0)
(7.30865 -0.0500154 0)
(7.30392 -0.0530219 0)
(7.29847 -0.0572959 0)
(7.29222 -0.0626774 0)
(7.28495 -0.0685313 0)
(7.27635 -0.074092 0)
(7.26611 -0.078862 0)
(7.25404 -0.082796 0)
(7.24014 -0.0862166 0)
(7.22458 -0.0895789 0)
(7.20763 -0.0932526 0)
(7.18956 -0.0974229 0)
(7.17057 -0.102106 0)
(7.15079 -0.10722 0)
(7.1303 -0.112651 0)
(7.10913 -0.118295 0)
(7.08729 -0.124069 0)
(7.0648 -0.129913 0)
(7.0417 -0.135777 0)
(7.01801 -0.14162 0)
(6.99378 -0.147405 0)
(6.96905 -0.1531 0)
(6.94388 -0.158674 0)
(6.9183 -0.164098 0)
(6.8924 -0.169346 0)
(6.86617 -0.174398 0)
(7.32967 0.019198 0)
(7.32467 0.0350824 0)
(7.32795 0.0347309 0)
(7.33105 0.0283055 0)
(7.33102 0.0206215 0)
(7.33 0.0129764 0)
(7.3291 0.00528429 0)
(7.32854 -0.00329694 0)
(7.32802 -0.0136644 0)
(7.32662 -0.025836 0)
(7.32297 -0.0386052 0)
(7.31593 -0.0501056 0)
(7.30506 -0.0587813 0)
(7.29078 -0.0640867 0)
(7.27408 -0.0665729 0)
(7.25605 -0.0674477 0)
(7.23747 -0.0679675 0)
(7.21875 -0.069004 0)
(7.19995 -0.0709204 0)
(7.18097 -0.0736907 0)
(7.16165 -0.0771044 0)
(7.14188 -0.0809293 0)
(7.12157 -0.0849887 0)
(7.1007 -0.089172 0)
(7.07927 -0.0934158 0)
(7.05729 -0.0976809 0)
(7.03478 -0.101938 0)
(7.01178 -0.106163 0)
(6.98833 -0.11033 0)
(6.96445 -0.114418 0)
(6.9402 -0.118406 0)
(6.91564 -0.122275 0)
(6.89077 -0.126011 0)
(7.32496 -0.0338619 0)
(7.29673 -0.0612315 0)
(7.27594 -0.0664452 0)
(7.27246 -0.0667269 0)
(7.28059 -0.0656706 0)
(7.29396 -0.0643476 0)
(7.3101 -0.0635738 0)
(7.32773 -0.0630532 0)
(7.34492 -0.0617526 0)
(7.35894 -0.0588006 0)
(7.36695 -0.0541319 0)
(7.36709 -0.0485938 0)
(7.35931 -0.0435229 0)
(7.34527 -0.0400776 0)
(7.32756 -0.038771 0)
(7.30866 -0.0394223 0)
(7.2902 -0.0414368 0)
(7.27279 -0.0441598 0)
(7.25631 -0.0471093 0)
(7.24031 -0.0500363 0)
(7.22431 -0.0528681 0)
(7.20798 -0.0556201 0)
(7.19113 -0.0583274 0)
(7.17367 -0.0610125 0)
(7.15558 -0.0636786 0)
(7.13685 -0.066316 0)
(7.11751 -0.0689095 0)
(7.09755 -0.0714437 0)
(7.07701 -0.0739061 0)
(7.05591 -0.0762862 0)
(7.03428 -0.0785809 0)
(7.01218 -0.0807821 0)
(6.98959 -0.0829101 0)
(7.33915 0.13448 0)
(7.37522 0.126356 0)
(7.39106 0.0855191 0)
(7.38269 0.0502605 0)
(7.36101 0.0229613 0)
(7.33132 0.00207877 0)
(7.29535 -0.0147028 0)
(7.25433 -0.0287976 0)
(7.20974 -0.0398569 0)
(7.16393 -0.0463215 0)
(7.12002 -0.0469158 0)
(7.08087 -0.0420385 0)
(7.04794 -0.0340135 0)
(7.02084 -0.0259943 0)
(6.99776 -0.0204372 0)
(6.97645 -0.0182299 0)
(6.95503 -0.018829 0)
(6.93242 -0.0210109 0)
(6.9083 -0.0236309 0)
(6.88277 -0.0260106 0)
(6.8561 -0.0279371 0)
(6.82854 -0.0294699 0)
(6.80025 -0.030748 0)
(6.77136 -0.031882 0)
(6.74194 -0.0329278 0)
(6.71205 -0.0338999 0)
(6.68175 -0.0347948 0)