/*--------------------------------*- C++ -*----------------------------------*\
  =========                 |
  \\      /  F ield         | OpenFOAM: The Open Source CFD Toolbox
   \\    /   O peration     | Website:  https://openfoam.org
    \\  /    A nd           | Version:  10
     \\/     M anipulation  |
\*---------------------------------------------------------------------------*/
FoamFile
{
    format      ascii;
    class       volScalarField;
    location    "0.095";
    object      epsilon;
}
// * * * * * * * * * * * * * * * * * * * * * * * * * * * * * * * * * * * * * //

dimensions      [0 2 -3 0 0 0 0];

internalField   nonuniform List<scalar> 
6820
(
23.2969
22.5752
21.9094
21.2853
20.7019
20.1632
19.6735
19.2344
18.8457
18.505
18.2093
17.9548
17.7376
17.5539
17.4004
17.2736
17.1706
17.0887
17.0254
16.9787
16.9466
16.9273
16.9192
16.9211
16.9317
16.95
16.9744
17.007
17.0337
17.1169
16.9605
17.9483
13.5876
5.03385
6.81829
7.83929
8.46753
8.89794
9.2313
9.52144
9.7948
10.0634
10.3323
10.6033
10.8767
11.1524
11.4299
11.7085
11.9878
12.267
12.5456
12.8231
13.0991
13.373
13.6446
13.9135
14.1797
14.443
14.7038
14.9626
15.2208
15.4803
15.7543
16.0149
16.4773
16.4854
3.7036
4.14719
4.56525
4.91421
5.19792
5.43117
5.62801
5.79966
5.95456
6.09881
6.23672
6.37119
6.50416
6.63684
6.76997
6.90396
7.03902
7.17518
7.31239
7.45055
7.58949
7.72908
7.86914
8.00954
8.15017
8.291
8.43205
8.5737
8.7158
8.86128
9.00543
9.16367
9.30654
3.54009
3.61093
3.72473
3.85371
3.98117
4.09941
4.2062
4.30195
4.38817
4.46662
4.53903
4.60689
4.67146
4.73373
4.79447
4.85427
4.91359
4.97272
5.03191
5.09131
5.15101
5.21108
5.27155
5.33244
5.39377
5.45555
5.51781
5.58069
5.64424
5.70894
5.77471
5.84246
5.91271
3.52064
3.50151
3.50498
3.52611
3.55867
3.59721
3.63779
3.67802
3.71662
3.75305
3.78722
3.81926
3.84945
3.87809
3.90547
3.93189
3.95758
3.98275
4.00758
4.03221
4.05675
4.0813
4.10592
4.13067
4.1556
4.18075
4.20617
4.23193
4.25807
4.28473
4.31196
4.33983
4.36837
3.5194
3.48247
3.45303
3.43232
3.41995
3.4145
3.41422
3.4175
3.42306
3.42996
3.43756
3.44543
3.45334
3.46114
3.46878
3.47625
3.48358
3.49079
3.49792
3.50503
3.51215
3.51933
3.52659
3.53397
3.54149
3.54919
3.5571
3.56524
3.57365
3.58237
3.59144
3.60088
3.61067
3.51943
3.47974
3.44283
3.40949
3.38025
3.35523
3.3342
3.31668
3.30212
3.28998
3.27976
3.27105
3.26354
3.25697
3.25115
3.24593
3.24122
3.23695
3.23305
3.22949
3.22624
3.22329
3.22063
3.21825
3.21614
3.21431
3.21275
3.21147
3.21048
3.2098
3.20943
3.20937
3.20961
3.51947
3.47943
3.44109
3.40466
3.37041
3.33852
3.30907
3.28205
3.25735
3.23479
3.21417
3.19529
3.17793
3.1619
3.14705
3.13322
3.12031
3.1082
3.09681
3.08607
3.07592
3.06631
3.0572
3.04855
3.04035
3.03256
3.02517
3.01816
3.01153
3.00525
2.99934
2.99377
2.98854
3.51948
3.47941
3.44085
3.40382
3.36835
3.33448
3.30225
3.27169
3.24279
3.21552
3.18982
3.16562
3.14282
3.12132
3.10103
3.08187
3.06372
3.04653
3.0302
3.01468
2.99991
2.98582
2.97237
2.95953
2.94724
2.93549
2.92423
2.91345
2.90313
2.89324
2.88377
2.8747
2.86602
3.51948
3.4794
3.44082
3.40368
3.36796
3.33361
3.30062
3.26897
3.23864
3.2096
3.18184
3.1553
3.12996
3.10576
3.08266
3.0606
3.03952
3.01937
3.0001
2.98167
2.96401
2.94709
2.93087
2.9153
2.90035
2.88599
2.87219
2.85893
2.84616
2.83389
2.82207
2.81071
2.79976
3.51948
3.4794
3.44081
3.40365
3.36788
3.33344
3.30027
3.26833
3.23759
3.20799
3.17951
3.15212
3.12577
3.10044
3.07609
3.05268
3.03018
3.00854
2.98773
2.96772
2.94847
2.92994
2.9121
2.89493
2.87838
2.86243
2.84706
2.83224
2.81794
2.80415
2.79085
2.77801
2.76562
3.51948
3.4794
3.4408
3.40364
3.36786
3.33339
3.30019
3.26818
3.23733
3.20758
3.17889
3.15122
3.12454
3.0988
3.07398
3.05003
3.02693
3.00464
2.98313
2.96238
2.94236
2.92302
2.90436
2.88633
2.86892
2.85211
2.83586
2.82015
2.80497
2.7903
2.77612
2.7624
2.74914
3.51948
3.4794
3.44079
3.40363
3.36784
3.33337
3.30015
3.26813
3.23725
3.20746
3.17872
3.15097
3.12419
3.09832
3.07334
3.04921
3.02589
3.00335
2.98157
2.96052
2.94016
2.92047
2.90143
2.88302
2.8652
2.84796
2.83127
2.81512
2.79949
2.78435
2.7697
2.75551
2.74176
3.51948
3.47939
3.44079
3.40362
3.36783
3.33336
3.30013
3.2681
3.23721
3.20741
3.17865
3.15089
3.12407
3.09817
3.07314
3.04895
3.02556
3.00294
2.98106
2.9599
2.93942
2.9196
2.90041
2.88183
2.86384
2.84642
2.82954
2.81319
2.79734
2.78199
2.76711
2.75269
2.73871
3.51947
3.47939
3.44079
3.40362
3.36782
3.33334
3.30011
3.26808
3.23719
3.20738
3.17861
3.15084
3.12401
3.0981
3.07305
3.04884
3.02543
3.00279
2.98088
2.95968
2.93916
2.91929
2.90005
2.88141
2.86336
2.84586
2.82891
2.81248
2.79655
2.7811
2.76613
2.75161
2.73753
3.51947
3.47939
3.44078
3.40361
3.36782
3.33333
3.3001
3.26806
3.23716
3.20735
3.17858
3.1508
3.12397
3.09805
3.073
3.04878
3.02536
3.00271
2.98079
2.95958
2.93904
2.91916
2.8999
2.88124
2.86316
2.84565
2.82867
2.8122
2.79624
2.78076
2.76575
2.75119
2.73706
3.51947
3.47939
3.44078
3.40361
3.36781
3.33332
3.30009
3.26804
3.23714
3.20733
3.17855
3.15077
3.12393
3.09801
3.07295
3.04873
3.02531
3.00265
2.98073
2.95951
2.93897
2.91908
2.89981
2.88115
2.86306
2.84554
2.82854
2.81207
2.7961
2.78061
2.76558
2.75101
2.73686
3.51947
3.47939
3.44078
3.4036
3.3678
3.33331
3.30007
3.26803
3.23712
3.20731
3.17853
3.15074
3.1239
3.09797
3.07291
3.04869
3.02526
3.0026
2.98067
2.95945
2.93891
2.91901
2.89974
2.88108
2.86299
2.84546
2.82846
2.81198
2.796
2.78051
2.76547
2.75089
2.73674
3.51947
3.47939
3.44078
3.4036
3.3678
3.33331
3.30006
3.26802
3.23711
3.20729
3.1785
3.15071
3.12387
3.09794
3.07288
3.04865
3.02522
3.00256
2.98063
2.9594
2.93885
2.91895
2.89968
2.88101
2.86292
2.84539
2.82839
2.81191
2.79592
2.78042
2.76539
2.7508
2.73664
3.51947
3.47939
3.44077
3.4036
3.36779
3.3333
3.30006
3.26801
3.23709
3.20727
3.17848
3.15069
3.12385
3.09791
3.07285
3.04861
3.02518
3.00251
2.98058
2.95935
2.9388
2.9189
2.89963
2.88095
2.86286
2.84532
2.82832
2.81183
2.79585
2.78034
2.7653
2.75071
2.73655
3.51947
3.47939
3.44077
3.40359
3.36779
3.33329
3.30005
3.268
3.23708
3.20725
3.17847
3.15067
3.12382
3.09789
3.07282
3.04858
3.02515
3.00248
2.98054
2.95931
2.93875
2.91885
2.89957
2.8809
2.8628
2.84526
2.82825
2.81177
2.79578
2.78027
2.76522
2.75062
2.73645
3.51947
3.47938
3.44077
3.40359
3.36779
3.33329
3.30004
3.26799
3.23707
3.20724
3.17845
3.15065
3.1238
3.09786
3.07279
3.04855
3.02511
3.00244
2.9805
2.95927
2.93871
2.91881
2.89952
2.88084
2.86274
2.8452
2.82819
2.8117
2.7957
2.78019
2.76514
2.75054
2.73636
3.51947
3.47938
3.44077
3.40359
3.36778
3.33329
3.30004
3.26798
3.23706
3.20723
3.17844
3.15064
3.12378
3.09784
3.07277
3.04853
3.02509
3.00241
2.98047
2.95923
2.93867
2.91876
2.89948
2.88079
2.86269
2.84514
2.82813
2.81163
2.79564
2.78012
2.76506
2.75045
2.73627
3.51947
3.47938
3.44077
3.40359
3.36778
3.33328
3.30003
3.26797
3.23705
3.20722
3.17843
3.15062
3.12377
3.09782
3.07275
3.0485
3.02506
3.00238
2.98044
2.9592
2.93863
2.91872
2.89943
2.88075
2.86264
2.84509
2.82807
2.81157
2.79557
2.78004
2.76498
2.75037
2.73618
3.51947
3.47938
3.44077
3.40359
3.36778
3.33328
3.30003
3.26797
3.23705
3.20721
3.17842
3.15061
3.12375
3.09781
3.07273
3.04848
3.02504
3.00235
2.98041
2.95916
2.9386
2.91868
2.89939
2.8807
2.86259
2.84503
2.82801
2.81151
2.7955
2.77997
2.76491
2.75029
2.73609
3.51947
3.47938
3.44077
3.40359
3.36778
3.33328
3.30003
3.26797
3.23704
3.20721
3.17841
3.1506
3.12374
3.09779
3.07271
3.04847
3.02502
3.00233
2.98038
2.95914
2.93857
2.91865
2.89936
2.88066
2.86255
2.84499
2.82796
2.81145
2.79544
2.77991
2.76483
2.75021
2.73601
3.51947
3.47938
3.44077
3.40359
3.36778
3.33328
3.30002
3.26796
3.23704
3.2072
3.1784
3.15059
3.12373
3.09778
3.0727
3.04845
3.025
3.00231
2.98036
2.95911
2.93854
2.91862
2.89932
2.88062
2.8625
2.84494
2.82791
2.8114
2.79538
2.77984
2.76476
2.75013
2.73592
3.51947
3.47938
3.44077
3.40359
3.36778
3.33328
3.30002
3.26796
3.23704
3.2072
3.1784
3.15059
3.12373
3.09777
3.07269
3.04844
3.02499
3.0023
2.98034
2.95909
2.93852
2.91859
2.89929
2.88059
2.86247
2.8449
2.82787
2.81135
2.79533
2.77978
2.7647
2.75006
2.73585
3.51947
3.47938
3.44077
3.40359
3.36778
3.33327
3.30002
3.26796
3.23703
3.20719
3.17839
3.15058
3.12371
3.09776
3.07268
3.04842
3.02497
3.00228
2.98032
2.95907
2.93849
2.91856
2.89926
2.88056
2.86243
2.84486
2.82782
2.8113
2.79527
2.77972
2.76464
2.74999
2.73577
3.51947
3.47938
3.44077
3.40359
3.36778
3.33328
3.30003
3.26796
3.23704
3.2072
3.1784
3.15059
3.12373
3.09777
3.07269
3.04843
3.02498
3.00228
2.98032
2.95907
2.93849
2.91856
2.89925
2.88055
2.86242
2.84484
2.8278
2.81127
2.79524
2.77969
2.76459
2.74994
2.73572
3.51947
3.47939
3.44077
3.40359
3.36778
3.33328
3.30002
3.26796
3.23703
3.20719
3.17839
3.15058
3.12371
3.09776
3.07267
3.04842
3.02496
3.00227
2.98031
2.95906
2.93848
2.91855
2.89924
2.88053
2.8624
2.84482
2.82778
2.81125
2.79522
2.77966
2.76457
2.74992
2.73569
3.51947
3.47938
3.44077
3.40359
3.36779
3.3333
3.30005
3.268
3.23708
3.20725
3.17845
3.15064
3.12378
3.09783
3.07274
3.04849
3.02503
3.00234
2.98038
2.95912
2.93854
2.91862
2.89931
2.88061
2.86248
2.84491
2.82787
2.81135
2.79532
2.77977
2.76468
2.75004
2.73582
3.51948
3.4794
3.44079
3.40362
3.36782
3.33332
3.30007
3.26801
3.23708
3.20725
3.17845
3.15065
3.1238
3.09785
3.07278
3.04854
3.0251
3.00243
2.9805
2.95927
2.93872
2.91882
2.89955
2.88089
2.8628
2.84527
2.82828
2.81181
2.79584
2.78034
2.76531
2.75073
2.73658
3.51947
3.47939
3.44079
3.40365
3.36789
3.33343
3.30023
3.26821
3.23733
3.20754
3.17878
3.15102
3.12422
3.09834
3.07334
3.04918
3.02584
3.00327
2.98146
2.96036
2.93996
2.92023
2.90113
2.88265
2.86476
2.84745
2.83068
2.81443
2.7987
2.78345
2.76868
2.75436
2.74048
3.51949
3.47947
3.44095
3.40385
3.36811
3.33369
3.30054
3.26862
3.23789
3.2083
3.1798
3.15237
3.12594
3.1005
3.07599
3.05238
3.02963
3.00772
2.9866
2.96625
2.94662
2.9277
2.90945
2.89184
2.87485
2.85845
2.84261
2.82731
2.81254
2.79825
2.78445
2.7711
2.75819
3.5195
3.47953
3.44117
3.40446
3.36933
3.33572
3.30359
3.2729
3.24362
3.21571
3.18911
3.16379
3.13967
3.11672
3.09486
3.07404
3.0542
3.03529
3.01726
3.00005
2.98362
2.96791
2.95289
2.93851
2.92474
2.91154
2.89887
2.88671
2.87502
2.86378
2.85297
2.84255
2.8325
3.51969
3.48122
3.44561
3.41286
3.38295
3.35587
3.33149
3.30964
3.29011
3.27268
3.25714
3.24328
3.23091
3.21986
3.20997
3.20111
3.19313
3.18593
3.17941
3.17349
3.16807
3.1631
3.15852
3.15426
3.15029
3.14657
3.14305
3.13971
3.13652
3.13345
3.13049
3.12762
3.12482
3.52527
3.51369
3.5162
3.52947
3.5507
3.57787
3.60936
3.64389
3.6805
3.71844
3.75714
3.79613
3.83507
3.87366
3.91171
3.94904
3.98553
4.02109
4.05565
4.08919
4.12165
4.15304
4.18335
4.21258
4.24075
4.26787
4.29396
4.31905
4.34317
4.36634
4.3886
4.40997
4.4305
3.83318
4.36508
4.84916
5.31414
5.77453
6.22572
6.66341
7.08576
7.49239
7.88369
8.26042
8.62349
8.9738
9.31216
9.63934
9.956
10.2627
10.5601
10.8484
11.1282
11.3999
11.6637
11.9201
12.1692
12.4114
12.647
12.8762
13.0993
13.3165
13.5281
13.7343
13.9353
14.1314
30.2663
32.7713
35.3126
37.865
40.4147
42.9529
45.4712
47.9622
50.419
52.8353
55.2055
57.525
59.7895
61.9957
64.1408
66.2227
68.2397
70.1907
72.075
73.8924
75.643
77.3271
78.9454
80.499
81.9888
83.4162
84.7826
86.0895
87.3387
88.5317
89.6704
90.7563
91.7925
86.0525
234.253
413.145
585.031
722.43
812.343
854.974
858.656
834.855
794.622
746.724
697.167
649.529
605.559
565.832
530.311
498.738
470.821
446.281
424.844
406.213
390.064
376.053
363.834
353.07
343.44
334.646
326.406
318.453
310.537
302.421
293.881
284.705
274.694
263.662
251.432
237.848
222.774
206.112
187.816
167.926
146.597
124.158
101.167
78.4661
57.1979
38.6992
24.1868
14.2465
8.44935
5.57282
4.32883
3.86093
3.73432
3.75156
3.82343
3.90813
3.98574
4.04726
4.08955
4.11272
4.11858
4.10975
4.0891
4.05946
4.0234
3.98317
3.94069
3.89754
3.85496
3.81392
3.77512
3.73906
3.70602
3.67615
3.64946
3.62585
3.60514
3.58709
3.57137
3.55761
3.54534
3.53399
3.52282
3.51095
3.49728
3.48049
3.45914
3.43163
3.39642
3.35208
3.29748
3.23188
3.15503
3.06712
2.96854
2.86054
2.73975
2.62692
2.41044
19.016
27.364
43.5806
68.9509
103.816
147.216
196.912
249.585
301.261
347.924
386.205
413.986
430.682
437.139
435.015
426.674
414.483
400.38
385.719
371.317
357.601
344.757
332.83
321.792
311.563
302.021
293.015
284.364
275.873
267.339
258.56
249.341
239.495
228.852
217.254
204.567
190.683
175.535
159.11
141.475
122.808
103.436
83.875
64.8575
47.3163
32.2712
20.572
12.544
7.77222
5.30615
4.17098
3.70399
3.55271
3.54774
3.60718
3.68938
3.77234
3.84454
3.90055
3.93857
3.959
3.96353
3.95444
3.93427
3.90549
3.8704
3.83105
3.78918
3.74628
3.70353
3.66186
3.62202
3.58451
3.54972
3.51786
3.48902
3.46321
3.44034
3.42022
3.40261
3.3872
3.37359
3.36125
3.34953
3.33761
3.32449
3.30895
3.28964
3.26506
3.23373
3.19427
3.14555
3.08679
3.01765
2.9382
2.84871
2.75028
2.63965
2.5362
2.33595
9.44899
9.8093
10.7183
12.547
15.6556
20.4484
27.4379
37.2146
50.2808
66.8258
86.5587
108.677
131.973
155.068
176.77
195.885
211.453
222.989
230.525
234.497
235.572
234.472
231.848
228.21
223.914
219.172
214.085
208.671
202.892
196.673
189.916
182.514
174.356
165.342
155.385
144.425
132.443
119.471
105.615
91.077
76.176
61.3697
47.2514
34.5087
23.813
15.6355
10.0502
6.67224
4.84392
3.93849
3.52953
3.37812
3.35921
3.40625
3.48214
3.56543
3.64363
3.70975
3.76036
3.79443
3.81246
3.81593
3.80683
3.78733
3.75961
3.72571
3.68748
3.64652
3.60418
3.5616
3.51968
3.47914
3.44053
3.40426
3.37061
3.33975
3.31177
3.28663
3.26426
3.24447
3.22704
3.21161
3.19775
3.18488
3.17228
3.15904
3.14405
3.12606
3.10371
3.07558
3.04036
2.99693
2.94448
2.88258
2.81121
2.7305
2.6414
2.54076
2.4466
2.26257
5.99027
6.07899
6.19114
6.36593
6.64988
7.09312
7.75914
8.74287
10.1845
12.2688
15.2049
19.1889
24.3541
30.7226
38.1923
46.5284
55.5607
64.9547
74.2918
83.143
91.1337
97.9895
103.557
107.795
110.751
112.527
113.238
112.994
111.875
109.926
107.163
103.576
99.1409
93.8372
87.6577
80.6248
72.8044
64.3199
55.3649
46.2115
37.2095
28.7672
21.3035
15.1677
10.5419
7.37198
5.39301
4.25103
3.63429
3.32838
3.20346
3.1832
3.22161
3.29001
3.37001
3.44977
3.52181
3.58168
3.62714
3.65754
3.67341
3.67599
3.66698
3.64824
3.62168
3.5891
3.55216
3.5123
3.47079
3.42868
3.38682
3.34593
3.30655
3.26912
3.23396
3.2013
3.17126
3.14392
3.11924
3.09714
3.07743
3.05987
3.04408
3.02959
3.01576
3.00179
2.9867
2.96937
2.94854
2.92291
2.89123
2.85242
2.80565
2.75043
2.68664
2.61427
2.53415
2.44324
2.35815
2.19018
4.40141
4.43928
4.47955
4.52597
4.58417
4.66105
4.76447
4.90419
5.09469
5.35907
5.73236
6.26156
7.00063
8.00152
9.30165
10.931
12.8258
14.9733
17.3601
19.9548
22.7035
25.5318
28.3508
31.0647
33.5795
35.8101
37.6843
39.1438
40.1428
40.6452
40.6212
40.0469
38.9051
37.19
34.9145
32.1182
28.8754
25.301
21.5505
17.8129
14.2918
11.176
8.60242
6.62588
5.212
4.26318
3.6617
3.30354
3.11052
3.02781
3.0174
3.05263
3.11447
3.18925
3.26713
3.34116
3.40657
3.46037
3.501
3.52805
3.54194
3.54374
3.53486
3.51691
3.49153
3.46031
3.42473
3.38612
3.34561
3.3042
3.26269
3.22175
3.18193
3.14367
3.10731
3.07312
3.04126
3.01186
2.98496
2.96052
2.93845
2.91856
2.90058
2.8841
2.86861
2.85341
2.83766
2.82036
2.80039
2.77656
2.74771
2.71281
2.67104
2.62186
2.56506
2.50054
2.42895
2.34741
2.2711
2.11889
3.62238
3.63622
3.65097
3.66703
3.6852
3.70672
3.73318
3.7664
3.80854
3.86267
3.93364
4.02906
4.1597
4.33903
4.58105
4.89901
5.28003
5.71775
6.20707
6.74241
7.31671
7.9209
8.54349
9.17053
9.7858
10.3711
10.9069
11.3727
11.7479
12.0121
12.1461
12.1323
11.9565
11.6096
11.0905
10.4093
9.58957
8.66915
7.69828
6.73387
5.83105
5.03403
4.36946
3.8451
3.45354
3.17851
3.00041
2.89984
2.85922
2.8633
2.89915
2.95596
3.02482
3.09851
3.17128
3.23871
3.29756
3.34568
3.38191
3.4059
3.41801
3.41911
3.41038
3.39318
3.36895
3.33908
3.3049
3.26759
3.22822
3.18767
3.14672
3.106
3.06604
3.02727
2.99003
2.95461
2.92121
2.88999
2.86104
2.83438
2.80997
2.7877
2.76738
2.74871
2.73124
2.71443
2.69755
2.67974
2.66001
2.63731
2.6106
2.57889
2.54141
2.49757
2.44711
2.38984
2.32627
2.25363
2.18574
2.04885
3.21023
3.2113
3.21283
3.215
3.21798
3.22205
3.22753
3.23483
3.24442
3.25685
3.27291
3.29386
3.32166
3.35918
3.41035
3.47813
3.56309
3.66453
3.78077
3.90949
4.04792
4.19289
4.34083
4.48784
4.62972
4.76208
4.88034
4.9799
5.05619
5.10482
5.12177
5.10353
5.04744
4.952
4.81734
4.64578
4.44223
4.2144
3.97245
3.72817
3.49366
3.27987
3.09539
2.94581
2.8336
2.75852
2.71817
2.70867
2.72516
2.76236
2.81488
2.87754
2.94555
3.01462
3.08106
3.1418
3.19447
3.23741
3.26966
3.29091
3.30144
3.30191
3.29333
3.27685
3.25372
3.22516
3.19235
3.15637
3.11819
3.07863
3.0384
2.99812
2.95827
2.91926
2.88145
2.84512
2.81049
2.77774
2.74699
2.7183
2.6917
2.66713
2.64447
2.6235
2.60389
2.58519
2.56682
2.54805
2.52804
2.50587
2.48062
2.4514
2.41746
2.37825
2.33343
2.28275
2.22659
2.16232
2.10238
1.98023
2.98283
2.97661
2.97066
2.96503
2.95981
2.95511
2.95104
2.94773
2.94531
2.94388
2.9436
2.94463
2.94729
2.95208
2.95984
2.97129
2.98712
3.0077
3.03299
3.06256
3.09565
3.13125
3.16812
3.20485
3.23995
3.27189
3.29911
3.32011
3.33347
3.33792
3.33239
3.31605
3.28841
3.24939
3.19936
3.13929
3.07081
2.99621
2.91846
2.84102
2.76767
2.70215
2.64784
2.60746
2.58283
2.57477
2.58308
2.60665
2.64362
2.69156
2.74768
2.80906
2.87271
2.93579
2.99566
3.05004
3.09705
3.13532
3.16402
3.18284
3.19194
3.19187
3.18344
3.16764
3.14554
3.11823
3.08676
3.0521
3.01514
2.97663
2.93725
2.89756
2.85802
2.81904
2.78094
2.744
2.70845
2.67448
2.64223
2.61179
2.58322
2.55652
2.53162
2.50838
2.48658
2.46585
2.44575
2.42568
2.40496
2.3828
2.3584
2.33098
2.29988
2.26454
2.22463
2.17983
2.13043
2.07391
2.0214
1.91327
2.85635
2.8456
2.83502
2.82465
2.81454
2.80475
2.79532
2.78631
2.77779
2.76979
2.76234
2.75546
2.74916
2.74353
2.73863
2.7346
2.7316
2.72981
2.72932
2.73014
2.73217
2.73518
2.73883
2.74268
2.74623
2.74891
2.75016
2.7494
2.74611
2.73983
2.73019
2.71694
2.70001
2.6795
2.65572
2.62922
2.60081
2.57155
2.54276
2.51595
2.49277
2.47488
2.46385
2.461
2.46726
2.48315
2.50863
2.54317
2.58577
2.635
2.68915
2.74626
2.80427
2.86107
2.91465
2.96317
3.00507
3.03917
3.06471
3.08136
3.08921
3.08867
3.08039
3.06523
3.04411
3.01798
2.9878
2.95443
2.91868
2.88127
2.84281
2.80383
2.76477
2.72601
2.68786
2.65059
2.61443
2.57955
2.54611
2.51422
2.48397
2.45538
2.42845
2.40309
2.37915
2.35638
2.33444
2.31286
2.29109
2.2685
2.24443
2.21821
2.18924
2.15706
2.1213
2.08165
2.03827
1.98882
1.94315
1.8482
2.7875
2.7738
2.76022
2.7468
2.73355
2.72052
2.70774
2.69526
2.68312
2.67133
2.65993
2.64892
2.63828
2.62801
2.61808
2.60847
2.5992
2.59026
2.58167
2.57345
2.56558
2.55804
2.55074
2.5436
2.53647
2.52919
2.52159
2.51349
2.50473
2.49516
2.48469
2.47329
2.461
2.44797
2.43445
2.42081
2.40755
2.3953
2.38479
2.37686
2.37239
2.37226
2.3773
2.38821
2.40549
2.42938
2.45982
2.49646
2.5386
2.58528
2.63526
2.68712
2.73927
2.79005
2.83782
2.88104
2.91836
2.94874
2.97146
2.98618
2.99291
2.99194
2.98383
2.96927
2.94906
2.92406
2.8951
2.86298
2.82844
2.79214
2.75465
2.71647
2.67801
2.63963
2.60164
2.56427
2.52776
2.49227
2.45796
2.42494
2.39332
2.36315
2.33445
2.30719
2.28128
2.25656
2.23277
2.20958
2.18657
2.16324
2.13905
2.11348
2.08604
2.0563
2.02396
1.9887
1.95061
1.90751
1.86802
1.7853
2.75169
2.73607
2.72056
2.70516
2.68989
2.67479
2.65987
2.64519
2.63076
2.61661
2.60277
2.58926
2.57606
2.56317
2.55058
2.53825
2.52617
2.51431
2.50264
2.49115
2.47984
2.46868
2.45767
2.44678
2.43601
2.42532
2.4147
2.40412
2.39358
2.38306
2.37262
2.3623
2.35223
2.34255
2.33349
2.32533
2.31844
2.31322
2.31016
2.30978
2.31263
2.31923
2.33008
2.34559
2.36603
2.39152
2.42198
2.45711
2.49641
2.53911
2.58429
2.63078
2.67733
2.72255
2.76506
2.80352
2.83675
2.8638
2.88399
2.89698
2.9027
2.90135
2.89339
2.87939
2.86005
2.8361
2.80831
2.7774
2.74404
2.70884
2.67235
2.63502
2.59726
2.5594
2.52171
2.48446
2.44782
2.41198
2.37709
2.34326
2.31059
2.27916
2.249
2.22012
2.19248
2.16598
2.14047
2.11569
2.09134
2.06706
2.04244
2.01708
1.9906
1.96268
1.93306
1.90144
1.86789
1.83036
1.79639
1.72485
2.7342
2.71741
2.7007
2.68407
2.66754
2.65113
2.63488
2.61879
2.60292
2.58728
2.57189
2.55679
2.54197
2.52745
2.51321
2.49925
2.48555
2.4721
2.45887
2.44585
2.43303
2.4204
2.40795
2.39569
2.38363
2.37177
2.36016
2.34881
2.33777
2.32711
2.31689
2.30723
2.29826
2.29013
2.28304
2.27725
2.27301
2.27065
2.27052
2.27296
2.27837
2.28709
2.29944
2.3157
2.33602
2.36046
2.38893
2.42119
2.45682
2.4952
2.53557
2.57698
2.61836
2.65854
2.6963
2.7305
2.76006
2.78412
2.80204
2.81345
2.81824
2.81655
2.80872
2.79524
2.7767
2.75376
2.72708
2.69733
2.66511
2.63101
2.59553
2.55909
2.52209
2.48483
2.44759
2.41059
2.37403
2.33808
2.30286
2.2685
2.23509
2.20271
2.17142
2.14123
2.11216
2.08413
2.05707
2.03081
2.00515
1.97983
1.95457
1.92909
1.90313
1.87645
1.8489
1.82022
1.79046
1.75775
1.72858
1.66712
2.72626
2.70882
2.69142
2.67408
2.65681
2.63964
2.62258
2.60566
2.5889
2.57233
2.55599
2.53988
2.52402
2.50844
2.49313
2.4781
2.46335
2.44887
2.43465
2.42069
2.40699
2.39353
2.38032
2.36738
2.35472
2.34236
2.33033
2.3187
2.3075
2.29683
2.28676
2.27741
2.26891
2.26142
2.25512
2.25021
2.24692
2.2455
2.24622
2.24935
2.25519
2.26398
2.27595
2.2913
2.31013
2.33246
2.35822
2.38718
2.41899
2.45314
2.48897
2.52569
2.56237
2.59799
2.6315
2.66186
2.68812
2.70947
2.72532
2.73529
2.73923
2.73721
2.72949
2.71648
2.69869
2.67668
2.65106
2.62241
2.59132
2.55829
2.52381
2.48828
2.45208
2.41549
2.37879
2.34218
2.30586
2.26997
2.23465
2.20001
2.16614
2.13312
2.101
2.06983
2.03962
2.01036
1.982
1.95445
1.92758
1.90123
1.87523
1.84941
1.82362
1.79774
1.77169
1.74529
1.71862
1.68996
1.6649
1.61237
2.72293
2.70515
2.68739
2.66968
2.65201
2.63442
2.61691
2.59951
2.58224
2.56513
2.5482
2.53147
2.51497
2.49871
2.48271
2.46697
2.4515
2.43631
2.4214
2.40678
2.39244
2.37839
2.36464
2.35121
2.33812
2.32539
2.31306
2.30118
2.28982
2.27904
2.26894
2.25962
2.2512
2.24382
2.23765
2.23287
2.22967
2.22825
2.22885
2.23168
2.23696
2.2449
2.25568
2.26942
2.28623
2.3061
2.32894
2.35458
2.3827
2.41288
2.44453
2.47697
2.50939
2.54089
2.57056
2.59746
2.62072
2.63962
2.65357
2.66221
2.66534
2.663
2.65537
2.64279
2.62568
2.60455
2.57992
2.55233
2.52231
2.49033
2.45684
2.42224
2.38686
2.351
2.3149
2.27878
2.24281
2.20714
2.1719
2.13719
2.10309
2.06969
2.03704
2.00518
1.97415
1.94395
1.91457
1.88597
1.85808
1.8308
1.80407
1.77779
1.75193
1.72648
1.70145
1.67677
1.65252
1.6272
1.60556
1.56081
2.72161
2.70367
2.68575
2.66785
2.64999
2.63219
2.61445
2.59679
2.57924
2.56182
2.54455
2.52746
2.51055
2.49387
2.47741
2.46119
2.44524
2.42955
2.41414
2.39902
2.38419
2.36968
2.35549
2.34164
2.32816
2.31508
2.30243
2.29027
2.27865
2.26764
2.25734
2.24782
2.23922
2.23164
2.22525
2.22019
2.21663
2.21476
2.21475
2.2168
2.22109
2.22778
2.23703
2.24893
2.26355
2.28089
2.30087
2.32333
2.348
2.37449
2.40231
2.43085
2.45941
2.48719
2.51338
2.53713
2.55767
2.57432
2.58652
2.59391
2.59629
2.59362
2.58606
2.57385
2.55738
2.53705
2.51336
2.48678
2.45778
2.42682
2.39431
2.36062
2.32608
2.29097
2.25553
2.21997
2.18445
2.14912
2.11409
2.07948
2.04536
2.0118
1.97886
1.94659
1.91503
1.88419
1.85407
1.82468
1.79598
1.76794
1.74055
1.7138
1.68774
1.66246
1.63809
1.61462
1.59223
1.56958
1.55073
1.51262
2.7211
2.70309
2.6851
2.66712
2.64917
2.63126
2.6134
2.59561
2.57791
2.56032
2.54285
2.52553
2.50838
2.49142
2.47466
2.45812
2.44183
2.42578
2.41
2.3945
2.37929
2.36439
2.34983
2.33561
2.32177
2.30834
2.29535
2.28286
2.27093
2.25961
2.24898
2.23914
2.23019
2.22224
2.21542
2.20986
2.20573
2.20316
2.20233
2.20339
2.2065
2.2118
2.21941
2.22941
2.24186
2.25675
2.274
2.29348
2.31494
2.33804
2.36236
2.38735
2.4124
2.4368
2.45981
2.4807
2.49875
2.51332
2.5239
2.53012
2.53177
2.52879
2.52126
2.50939
2.49348
2.47391
2.45109
2.42545
2.39744
2.36746
2.33591
2.30313
2.26943
2.23509
2.20034
2.16538
2.13038
2.09547
2.06078
2.0264
1.99241
1.95888
1.92587
1.89342
1.86157
1.83034
1.79976
1.76984
1.74057
1.71197
1.68405
1.65688
1.63059
1.60533
1.58133
1.55871
1.53768
1.51711
1.50045
1.46791
2.72087
2.70284
2.68481
2.66679
2.6488
2.63084
2.61292
2.59506
2.57728
2.55958
2.54199
2.52454
2.50722
2.49007
2.47311
2.45634
2.43979
2.42347
2.4074
2.3916
2.37609
2.36087
2.34597
2.33143
2.31725
2.30348
2.29016
2.27733
2.26505
2.25337
2.24237
2.23213
2.22275
2.21433
2.20698
2.20083
2.19601
2.19265
2.1909
2.1909
2.19277
2.19665
2.20262
2.21077
2.22113
2.23369
2.24839
2.26509
2.28358
2.30357
2.32468
2.34643
2.36828
2.38959
2.40972
2.42798
2.44373
2.45638
2.46546
2.47058
2.47153
2.46823
2.4607
2.44911
2.43372
2.41484
2.39284
2.3681
2.34102
2.31199
2.28136
2.24947
2.21662
2.18306
2.14902
2.1147
2.08026
2.04584
2.01156
1.97751
1.94378
1.91042
1.8775
1.84506
1.81313
1.78175
1.75095
1.72073
1.69113
1.66216
1.63389
1.60641
1.57991
1.55461
1.53081
1.50873
1.48866
1.46967
1.45471
1.42673
2.72074
2.70269
2.68464
2.66661
2.64859
2.6306
2.61265
2.59475
2.5769
2.55914
2.54147
2.52391
2.50648
2.4892
2.47207
2.45513
2.43838
2.42185
2.40555
2.3895
2.37372
2.35823
2.34304
2.3282
2.31371
2.29963
2.28598
2.27281
2.26017
2.24812
2.23672
2.22606
2.21622
2.20729
2.19938
2.19259
2.18705
2.18287
2.18018
2.1791
2.17975
2.18223
2.18662
2.19299
2.20137
2.21175
2.22406
2.23819
2.25395
2.27109
2.28925
2.30804
2.32695
2.34544
2.36291
2.37876
2.3924
2.40327
2.41094
2.41503
2.41531
2.41167
2.40413
2.39279
2.37786
2.35961
2.33836
2.31447
2.28828
2.26015
2.23042
2.1994
2.16738
2.1346
2.10128
2.06762
2.03379
1.9999
1.9661
1.93246
1.89907
1.866
1.83329
1.801
1.76917
1.73782
1.70698
1.67668
1.64695
1.61782
1.58937
1.56172
1.53508
1.50973
1.48603
1.4643
1.4449
1.42707
1.41337
1.38908
2.72063
2.70257
2.68452
2.66647
2.64843
2.63042
2.61244
2.5945
2.57662
2.55881
2.54107
2.52343
2.50591
2.48851
2.47126
2.45417
2.43726
2.42055
2.40405
2.38779
2.37177
2.35604
2.3406
2.32548
2.31071
2.29632
2.28236
2.26886
2.25587
2.24345
2.23166
2.22057
2.21026
2.20082
2.19233
2.1849
2.17864
2.17365
2.17003
2.16791
2.16737
2.16851
2.1714
2.1761
2.18262
2.19095
2.20105
2.2128
2.22604
2.24054
2.25601
2.27207
2.28829
2.30419
2.31923
2.33285
2.34453
2.35376
2.3601
2.36321
2.36285
2.35888
2.35129
2.34016
2.32565
2.30798
2.28744
2.26434
2.23899
2.21173
2.18287
2.15269
2.12148
2.08948
2.05689
2.02391
1.99069
1.95738
1.92409
1.89091
1.85794
1.82523
1.79284
1.76081
1.72919
1.69802
1.66731
1.63709
1.6074
1.57829
1.54982
1.52214
1.49546
1.4701
1.44648
1.42497
1.40601
1.38902
1.37624
1.35487
2.72053
2.70247
2.6844
2.66634
2.64829
2.63026
2.61225
2.59428
2.57636
2.5585
2.54071
2.52301
2.5054
2.48791
2.47055
2.45333
2.43628
2.41941
2.40273
2.38628
2.37006
2.3541
2.33842
2.32305
2.30802
2.29335
2.27909
2.26528
2.25195
2.23917
2.22699
2.21549
2.20472
2.19477
2.18572
2.17767
2.1707
2.16492
2.16042
2.15729
2.15562
2.1555
2.15697
2.16009
2.16487
2.1713
2.17934
2.18889
2.1998
2.21188
2.22486
2.23841
2.25217
2.26568
2.27848
2.29006
2.29993
2.30762
2.31273
2.31491
2.31392
2.30963
2.30198
2.29102
2.27688
2.25975
2.23986
2.2175
2.19295
2.16652
2.13849
2.10914
2.07873
2.04749
2.01563
1.98333
1.95075
1.91803
1.88529
1.85262
1.8201
1.78781
1.7558
1.72413
1.69282
1.66192
1.63145
1.60145
1.57195
1.54299
1.51464
1.48705
1.46044
1.43514
1.41159
1.39024
1.37158
1.35519
1.34306
1.32397
2.72043
2.70236
2.68428
2.66621
2.64814
2.63009
2.61206
2.59407
2.57611
2.55821
2.54037
2.5226
2.50492
2.48735
2.46989
2.45256
2.43538
2.41836
2.40153
2.3849
2.36849
2.35233
2.33643
2.32083
2.30555
2.29062
2.27607
2.26196
2.24831
2.23519
2.22264
2.21073
2.19951
2.18908
2.17949
2.17084
2.1632
2.15666
2.15131
2.14723
2.1445
2.14317
2.14331
2.14496
2.14812
2.15278
2.15891
2.16642
2.17518
2.18502
2.19571
2.20696
2.21845
2.22977
2.2405
2.25019
2.25838
2.26464
2.26859
2.2699
2.26832
2.26371
2.25598
2.24517
2.23136
2.21471
2.19544
2.17377
2.14998
2.12434
2.09711
2.06856
2.03893
2.00845
1.97731
1.9457
1.91378
1.88167
1.84949
1.81736
1.78534
1.75351
1.72194
1.69066
1.65973
1.62918
1.59904
1.56935
1.54013
1.51143
1.48332
1.45592
1.42947
1.40429
1.38086
1.35964
1.34119
1.32522
1.31354
1.29623
2.72034
2.70225
2.68416
2.66607
2.64799
2.62992
2.61188
2.59385
2.57587
2.55792
2.54003
2.52221
2.50447
2.48681
2.46926
2.45183
2.43453
2.41739
2.40041
2.38362
2.36704
2.35069
2.33459
2.31877
2.30325
2.28807
2.27327
2.25886
2.24491
2.23146
2.21855
2.20625
2.19462
2.18372
2.17361
2.16439
2.15611
2.14886
2.1427
2.13773
2.13398
2.13154
2.13043
2.1307
2.13234
2.13536
2.13972
2.14533
2.1521
2.15988
2.16846
2.17759
2.18698
2.19628
2.20511
2.21305
2.21969
2.22463
2.2275
2.22798
2.22584
2.22091
2.2131
2.20241
2.1889
2.1727
2.15399
2.13298
2.1099
2.08502
2.05857
2.0308
2.00194
1.97221
1.9418
1.91089
1.87962
1.84814
1.81655
1.78497
1.75348
1.72215
1.69104
1.66021
1.6297
1.59955
1.5698
1.54047
1.51161
1.48324
1.45544
1.42832
1.40211
1.37711
1.35382
1.33273
1.31443
1.29877
1.2874
1.27144
2.72024
2.70214
2.68404
2.66594
2.64784
2.62976
2.61169
2.59364
2.57562
2.55764
2.53971
2.52183
2.50402
2.48629
2.46866
2.45114
2.43373
2.41647
2.39936
2.38243
2.36569
2.34916
2.33287
2.31685
2.30112
2.2857
2.27064
2.25597
2.24173
2.22797
2.21472
2.20205
2.19001
2.17867
2.16808
2.15831
2.14942
2.14149
2.13459
2.12876
2.12407
2.12057
2.1183
2.11728
2.11752
2.11901
2.12171
2.12558
2.13051
2.13637
2.143
2.15018
2.15764
2.16508
2.17215
2.17848
2.18369
2.1874
2.18926
2.18898
2.18631
2.18107
2.17317
2.16257
2.14933
2.13354
2.11535
2.09495
2.07256
2.0484
2.02271
1.99571
1.96762
1.93865
1.90897
1.87876
1.84817
1.81734
1.78636
1.75536
1.72442
1.69361
1.66299
1.63264
1.60258
1.57287
1.54354
1.51462
1.48614
1.45816
1.43072
1.40393
1.378
1.35324
1.33011
1.30914
1.29096
1.27551
1.26435
1.24943
2.72014
2.70204
2.68392
2.66581
2.6477
2.62959
2.6115
2.59342
2.57537
2.55736
2.53938
2.52146
2.50359
2.4858
2.46809
2.45048
2.43298
2.4156
2.39837
2.3813
2.36442
2.34773
2.33127
2.31506
2.29912
2.28349
2.26819
2.25327
2.23875
2.22469
2.21113
2.19811
2.18569
2.17393
2.16287
2.15259
2.14313
2.13457
2.12695
2.12033
2.11476
2.11027
2.10691
2.10469
2.10361
2.10368
2.10486
2.10709
2.11031
2.11441
2.11924
2.12461
2.13029
2.13601
2.14147
2.14632
2.15021
2.15279
2.15374
2.15274
2.14957
2.14403
2.13602
2.1255
2.11248
2.09706
2.07935
2.05953
2.03779
2.01434
1.9894
1.96317
1.93586
1.90765
1.87873
1.84926
1.81937
1.78921
1.75888
1.72848
1.69812
1.66785
1.63776
1.6079
1.57832
1.54906
1.52017
1.49168
1.46363
1.43604
1.40899
1.38256
1.35693
1.33242
1.30947
1.28862