/*--------------------------------*- C++ -*----------------------------------*\
  =========                 |
  \\      /  F ield         | OpenFOAM: The Open Source CFD Toolbox
   \\    /   O peration     | Website:  https://openfoam.org
    \\  /    A nd           | Version:  10
     \\/     M anipulation  |
\*---------------------------------------------------------------------------*/
FoamFile
{
    format      ascii;
    class       volScalarField;
    location    "0.095";
    object      nut;
}
// * * * * * * * * * * * * * * * * * * * * * * * * * * * * * * * * * * * * * //

dimensions      [0 2 -1 0 0 0 0];

internalField   nonuniform List<scalar> 
6820
(
0.000149484
0.000144853
0.000140581
0.000136577
0.000132833
0.000129377
0.000126234
0.000123417
0.000120923
0.000118737
0.00011684
0.000115206
0.000113813
0.000112634
0.000111649
0.000110835
0.000110174
0.000109649
0.000109243
0.000108943
0.000108737
0.000108613
0.000108562
0.000108574
0.000108641
0.000108758
0.000108915
0.000109125
0.000109296
0.000109829
0.000108825
0.000115164
8.72028e-05
0.000729198
0.000532391
0.000448011
0.000399706
0.000368378
0.000346728
0.000331085
0.000319355
0.000310268
0.000303019
0.000297088
0.000292127
0.000287903
0.000284249
0.000281049
0.000278215
0.000275684
0.000273405
0.000271339
0.000269456
0.000267731
0.000266143
0.000264677
0.000263318
0.000262055
0.000260878
0.000259781
0.000258753
0.000257799
0.000256906
0.000256112
0.000255235
0.000256356
0.000976777
0.000872181
0.000781622
0.000711263
0.000657317
0.000615275
0.000581702
0.000554239
0.0005313
0.000511801
0.000494982
0.000480295
0.000467337
0.000455803
0.000445456
0.000436114
0.000427631
0.000419889
0.000412793
0.000406263
0.000400234
0.000394649
0.000389462
0.00038463
0.00038012
0.000375898
0.000371936
0.000368209
0.000364682
0.000361342
0.000358113
0.000354945
0.000351576
0.00101349
0.00098823
0.000949374
0.000906193
0.000864424
0.000826381
0.000792548
0.000762658
0.000736219
0.00071272
0.000691706
0.000672794
0.000655668
0.000640068
0.000625784
0.000612641
0.000600495
0.000589228
0.000578738
0.000568942
0.000559769
0.000551156
0.000543051
0.000535408
0.000528186
0.000521349
0.000514864
0.000508703
0.000502833
0.000497233
0.000491854
0.000486708
0.000481624
0.00101671
0.00101241
0.00100191
0.000985661
0.000965603
0.000943711
0.00092142
0.000899607
0.000878741
0.000859031
0.000840535
0.000823231
0.000807057
0.000791931
0.000777769
0.000764486
0.000752005
0.000740254
0.000729169
0.00071869
0.000708767
0.000699353
0.000690406
0.00068189
0.00067377
0.000666016
0.000658601
0.000651499
0.000644682
0.000638132
0.000631814
0.00062572
0.00061979
0.00101676
0.00101592
0.0010136
0.00100903
0.00100204
0.000992919
0.00098219
0.000970396
0.000958002
0.00094537
0.000932755
0.000920334
0.000908219
0.000896479
0.00088515
0.00087425
0.00086378
0.000853733
0.000844096
0.000834854
0.000825987
0.000817477
0.000809306
0.000801453
0.000793901
0.000786632
0.000779629
0.000772875
0.000766353
0.000760049
0.000753943
0.000748024
0.000742272
0.00101671
0.00101623
0.00101553
0.00101428
0.00101219
0.0010091
0.00100497
0.000999891
0.000994018
0.000987518
0.000980555
0.000973276
0.000965803
0.000958237
0.000950656
0.000943118
0.000935669
0.00092834
0.000921156
0.000914132
0.000907277
0.000900599
0.000894098
0.000887775
0.000881627
0.000875651
0.000869843
0.000864196
0.000858703
0.00085336
0.000848156
0.000843088
0.000838146
0.0010167
0.00101622
0.00101574
0.00101518
0.00101442
0.00101335
0.00101188
0.00100995
0.00100755
0.0010047
0.00100144
0.000997824
0.000993905
0.000989745
0.000985397
0.00098091
0.000976326
0.000971681
0.000967007
0.000962327
0.000957663
0.000953032
0.000948446
0.000943917
0.000939451
0.000935056
0.000930734
0.000926489
0.000922322
0.000918233
0.000914223
0.000910291
0.000906436
0.0010167
0.00101621
0.00101575
0.00101528
0.0010148
0.00101425
0.00101359
0.00101279
0.00101179
0.00101059
0.00100917
0.00100753
0.00100569
0.00100365
0.00100143
0.000999058
0.000996554
0.000993939
0.000991233
0.000988454
0.000985618
0.000982742
0.000979839
0.000976919
0.000973994
0.00097107
0.000968157
0.000965259
0.000962382
0.00095953
0.000956706
0.000953913
0.000951155
0.0010167
0.00101621
0.00101574
0.00101529
0.00101484
0.00101439
0.00101393
0.00101344
0.0010129
0.00101229
0.0010116
0.00101082
0.00100993
0.00100895
0.00100786
0.00100668
0.00100539
0.00100402
0.00100258
0.00100105
0.00099947
0.00099783
0.000996144
0.000994418
0.000992659
0.000990875
0.00098907
0.000987251
0.000985423
0.00098359
0.000981756
0.000979924
0.000978099
0.0010167
0.00101621
0.00101574
0.00101528
0.00101484
0.00101441
0.00101398
0.00101356
0.00101313
0.0010127
0.00101224
0.00101176
0.00101125
0.0010107
0.0010101
0.00100946
0.00100878
0.00100805
0.00100727
0.00100645
0.00100558
0.00100467
0.00100373
0.00100276
0.00100175
0.00100072
0.000999659
0.000998581
0.000997486
0.000996377
0.000995256
0.000994127
0.000992992
0.0010167
0.00101621
0.00101574
0.00101528
0.00101484
0.0010144
0.00101398
0.00101357
0.00101317
0.00101277
0.00101238
0.00101199
0.00101159
0.00101119
0.00101078
0.00101035
0.00100991
0.00100945
0.00100898
0.00100848
0.00100797
0.00100744
0.00100689
0.00100631
0.00100572
0.00100512
0.0010045
0.00100386
0.00100321
0.00100255
0.00100188
0.0010012
0.00100051
0.0010167
0.00101621
0.00101574
0.00101528
0.00101483
0.0010144
0.00101398
0.00101357
0.00101317
0.00101278
0.0010124
0.00101203
0.00101167
0.00101131
0.00101095
0.00101059
0.00101024
0.00100988
0.00100952
0.00100916
0.0010088
0.00100843
0.00100805
0.00100767
0.00100728
0.00100688
0.00100648
0.00100608
0.00100566
0.00100525
0.00100482
0.0010044
0.00100397
0.0010167
0.00101621
0.00101574
0.00101528
0.00101483
0.0010144
0.00101398
0.00101357
0.00101317
0.00101278
0.0010124
0.00101204
0.00101168
0.00101133
0.00101098
0.00101065
0.00101032
0.00100999
0.00100967
0.00100936
0.00100905
0.00100874
0.00100843
0.00100812
0.00100782
0.00100752
0.00100721
0.00100691
0.00100661
0.00100631
0.001006
0.0010057
0.0010054
0.0010167
0.00101621
0.00101574
0.00101528
0.00101483
0.0010144
0.00101398
0.00101357
0.00101317
0.00101278
0.0010124
0.00101203
0.00101167
0.00101133
0.00101099
0.00101066
0.00101033
0.00101002
0.00100971
0.00100941
0.00100911
0.00100882
0.00100854
0.00100826
0.00100798
0.00100772
0.00100745
0.00100719
0.00100693
0.00100668
0.00100643
0.00100618
0.00100594
0.0010167
0.00101621
0.00101574
0.00101528
0.00101483
0.0010144
0.00101397
0.00101356
0.00101316
0.00101278
0.0010124
0.00101203
0.00101167
0.00101132
0.00101098
0.00101065
0.00101033
0.00101002
0.00100971
0.00100941
0.00100912
0.00100884
0.00100856
0.00100829
0.00100803
0.00100777
0.00100752
0.00100727
0.00100703
0.00100679
0.00100656
0.00100634
0.00100612
0.0010167
0.00101621
0.00101574
0.00101528
0.00101483
0.0010144
0.00101397
0.00101356
0.00101316
0.00101277
0.0010124
0.00101203
0.00101167
0.00101132
0.00101098
0.00101065
0.00101033
0.00101001
0.00100971
0.00100941
0.00100912
0.00100884
0.00100856
0.00100829
0.00100803
0.00100778
0.00100753
0.00100729
0.00100705
0.00100682
0.0010066
0.00100638
0.00100617
0.0010167
0.00101621
0.00101574
0.00101528
0.00101483
0.0010144
0.00101397
0.00101356
0.00101316
0.00101277
0.00101239
0.00101203
0.00101167
0.00101132
0.00101098
0.00101065
0.00101033
0.00101001
0.00100971
0.00100941
0.00100912
0.00100884
0.00100856
0.00100829
0.00100803
0.00100778
0.00100753
0.00100729
0.00100705
0.00100683
0.0010066
0.00100639
0.00100618
0.0010167
0.00101621
0.00101574
0.00101528
0.00101483
0.00101439
0.00101397
0.00101356
0.00101316
0.00101277
0.00101239
0.00101202
0.00101167
0.00101132
0.00101098
0.00101064
0.00101032
0.00101001
0.0010097
0.0010094
0.00100911
0.00100883
0.00100856
0.00100829
0.00100803
0.00100777
0.00100753
0.00100729
0.00100705
0.00100682
0.0010066
0.00100639
0.00100618
0.0010167
0.00101621
0.00101574
0.00101528
0.00101483
0.00101439
0.00101397
0.00101356
0.00101316
0.00101277
0.00101239
0.00101202
0.00101166
0.00101131
0.00101097
0.00101064
0.00101032
0.00101001
0.0010097
0.0010094
0.00100911
0.00100883
0.00100855
0.00100829
0.00100802
0.00100777
0.00100752
0.00100728
0.00100705
0.00100682
0.0010066
0.00100638
0.00100617
0.0010167
0.00101621
0.00101574
0.00101528
0.00101483
0.00101439
0.00101397
0.00101356
0.00101316
0.00101277
0.00101239
0.00101202
0.00101166
0.00101131
0.00101097
0.00101064
0.00101032
0.00101
0.0010097
0.0010094
0.00100911
0.00100883
0.00100855
0.00100828
0.00100802
0.00100777
0.00100752
0.00100728
0.00100704
0.00100681
0.00100659
0.00100638
0.00100617
0.0010167
0.00101621
0.00101574
0.00101528
0.00101483
0.00101439
0.00101397
0.00101356
0.00101316
0.00101277
0.00101239
0.00101202
0.00101166
0.00101131
0.00101097
0.00101064
0.00101032
0.00101
0.00100969
0.0010094
0.00100911
0.00100882
0.00100855
0.00100828
0.00100802
0.00100776
0.00100751
0.00100727
0.00100704
0.00100681
0.00100659
0.00100637
0.00100616
0.0010167
0.00101621
0.00101574
0.00101528
0.00101483
0.00101439
0.00101397
0.00101356
0.00101316
0.00101277
0.00101239
0.00101202
0.00101166
0.00101131
0.00101097
0.00101064
0.00101031
0.00101
0.00100969
0.00100939
0.0010091
0.00100882
0.00100854
0.00100828
0.00100801
0.00100776
0.00100751
0.00100727
0.00100703
0.0010068
0.00100658
0.00100636
0.00100615
0.0010167
0.00101621
0.00101574
0.00101528
0.00101483
0.00101439
0.00101397
0.00101356
0.00101316
0.00101277
0.00101239
0.00101202
0.00101166
0.00101131
0.00101097
0.00101064
0.00101031
0.00101
0.00100969
0.00100939
0.0010091
0.00100882
0.00100854
0.00100827
0.00100801
0.00100776
0.00100751
0.00100726
0.00100703
0.0010068
0.00100658
0.00100636
0.00100615
0.0010167
0.00101621
0.00101574
0.00101528
0.00101483
0.00101439
0.00101397
0.00101356
0.00101316
0.00101277
0.00101239
0.00101202
0.00101166
0.00101131
0.00101097
0.00101063
0.00101031
0.00101
0.00100969
0.00100939
0.0010091
0.00100882
0.00100854
0.00100827
0.00100801
0.00100775
0.0010075
0.00100726
0.00100702
0.00100679
0.00100657
0.00100635
0.00100614
0.0010167
0.00101621
0.00101574
0.00101528
0.00101483
0.00101439
0.00101397
0.00101356
0.00101316
0.00101277
0.00101239
0.00101202
0.00101166
0.00101131
0.00101097
0.00101063
0.00101031
0.00100999
0.00100969
0.00100939
0.0010091
0.00100881
0.00100854
0.00100827
0.001008
0.00100775
0.0010075
0.00100726
0.00100702
0.00100679
0.00100657
0.00100635
0.00100613
0.0010167
0.00101621
0.00101574
0.00101528
0.00101483
0.00101439
0.00101397
0.00101356
0.00101316
0.00101277
0.00101239
0.00101202
0.00101166
0.00101131
0.00101096
0.00101063
0.00101031
0.00100999
0.00100969
0.00100939
0.0010091
0.00100881
0.00100853
0.00100826
0.001008
0.00100775
0.0010075
0.00100725
0.00100702
0.00100679
0.00100656
0.00100634
0.00100613
0.0010167
0.00101621
0.00101574
0.00101528
0.00101483
0.00101439
0.00101397
0.00101356
0.00101316
0.00101277
0.00101239
0.00101202
0.00101166
0.00101131
0.00101096
0.00101063
0.00101031
0.00100999
0.00100969
0.00100939
0.00100909
0.00100881
0.00100853
0.00100826
0.001008
0.00100774
0.00100749
0.00100725
0.00100701
0.00100678
0.00100656
0.00100634
0.00100612
0.0010167
0.00101621
0.00101574
0.00101528
0.00101483
0.00101439
0.00101397
0.00101356
0.00101316
0.00101277
0.00101239
0.00101202
0.00101166
0.00101131
0.00101096
0.00101063
0.00101031
0.00100999
0.00100968
0.00100939
0.00100909
0.00100881
0.00100853
0.00100826
0.001008
0.00100774
0.00100749
0.00100725
0.00100701
0.00100678
0.00100655
0.00100633
0.00100612
0.0010167
0.00101621
0.00101574
0.00101528
0.00101483
0.00101439
0.00101397
0.00101356
0.00101316
0.00101277
0.00101239
0.00101202
0.00101166
0.00101131
0.00101097
0.00101063
0.00101031
0.00100999
0.00100969
0.00100939
0.00100909
0.00100881
0.00100853
0.00100826
0.001008
0.00100774
0.00100749
0.00100725
0.00100701
0.00100677
0.00100655
0.00100633
0.00100611
0.0010167
0.00101621
0.00101574
0.00101528
0.00101483
0.00101439
0.00101397
0.00101356
0.00101316
0.00101277
0.00101239
0.00101202
0.00101166
0.00101131
0.00101097
0.00101063
0.00101031
0.00101
0.00100969
0.00100939
0.0010091
0.00100881
0.00100853
0.00100826
0.001008
0.00100774
0.00100749
0.00100724
0.001007
0.00100677
0.00100654
0.00100632
0.0010061
0.0010167
0.00101621
0.00101574
0.00101528
0.00101483
0.0010144
0.00101397
0.00101356
0.00101316
0.00101277
0.00101239
0.00101202
0.00101167
0.00101131
0.00101097
0.00101064
0.00101032
0.00101
0.00100969
0.00100939
0.00100909
0.00100881
0.00100853
0.00100825
0.00100799
0.00100772
0.00100747
0.00100722
0.00100697
0.00100673
0.0010065
0.00100627
0.00100604
0.0010167
0.00101621
0.00101574
0.00101528
0.00101483
0.0010144
0.00101398
0.00101357
0.00101317
0.00101278
0.0010124
0.00101203
0.00101167
0.00101132
0.00101097
0.00101064
0.00101031
0.00100998
0.00100967
0.00100936
0.00100905
0.00100875
0.00100846
0.00100817
0.00100788
0.0010076
0.00100732
0.00100705
0.00100678
0.00100651
0.00100625
0.00100598
0.00100572
0.0010167
0.00101621
0.00101574
0.00101529
0.00101484
0.00101441
0.00101399
0.00101358
0.00101318
0.00101279
0.0010124
0.00101202
0.00101164
0.00101127
0.0010109
0.00101053
0.00101016
0.00100979
0.00100942
0.00100906
0.00100869
0.00100832
0.00100794
0.00100757
0.00100719
0.00100681
0.00100643
0.00100605
0.00100566
0.00100527
0.00100488
0.00100448
0.00100409
0.0010167
0.00101622
0.00101575
0.0010153
0.00101485
0.00101441
0.00101397
0.00101352
0.00101308
0.00101262
0.00101215
0.00101166
0.00101115
0.00101063
0.00101008
0.00100951
0.00100891
0.0010083
0.00100765
0.00100699
0.0010063
0.00100559
0.00100486
0.00100411
0.00100334
0.00100255
0.00100175
0.00100094
0.00100011
0.000999265
0.000998413
0.000997552
0.000996685
0.00101671
0.00101622
0.00101574
0.00101524
0.00101469
0.00101407
0.00101337
0.00101257
0.00101167
0.00101066
0.00100954
0.00100831
0.00100698
0.00100553
0.001004
0.00100236
0.00100065
0.000998857
0.000996995
0.000995071
0.000993094
0.000991069
0.000989004
0.000986907
0.000984783
0.000982637
0.000980477
0.000978306
0.000976129
0.000973951
0.000971776
0.000969606
0.000967447
0.00101671
0.001016
0.00101488
0.00101325
0.00101112
0.00100848
0.00100533
0.0010017
0.000997632
0.000993183
0.000988401
0.00098334
0.000978052
0.000972585
0.000966981
0.00096128
0.000955517
0.000949722
0.000943921
0.000938137
0.000932388
0.000926691
0.000921059
0.000915505
0.000910036
0.00090466
0.000899384
0.000894212
0.000889148
0.000884194
0.000879353
0.000874624
0.00087001
0.0010153
0.00100706
0.000995512
0.000981411
0.000965385
0.000948044
0.000929946
0.000911541
0.000893162
0.000875047
0.000857362
0.000840216
0.000823676
0.000807778
0.000792537
0.000777952
0.000764013
0.0007507
0.000737993
0.000725866
0.000714292
0.000703246
0.0006927
0.00068263
0.000673009
0.000663814
0.000655022
0.000646612
0.000638563
0.000630855
0.000623471
0.000616393
0.000609603
0.000935928
0.000815555
0.000728191
0.000659287
0.000602434
0.000555213
0.000515727
0.000482389
0.000453948
0.000429442
0.000408127
0.000389433
0.000372913
0.000358219
0.000345071
0.000333245
0.000322558
0.000312861
0.00030403
0.000295959
0.00028856
0.000281759
0.000275491
0.000269701
0.00026434
0.000259366
0.000254742
0.000250436
0.00024642
0.000242667
0.000239156
0.000235865
0.000232776
0.000125477
0.000128847
0.000132096
0.000135204
0.000138173
0.000141007
0.000143711
0.000146289
0.000148745
0.000151084
0.000153311
0.000155428
0.000157442
0.000159355
0.000161172
0.000162897
0.000164535
0.000166088
0.000167561
0.000168958
0.000170281
0.000171536
0.000172724
0.00017385
0.000174916
0.000175925
0.00017688
0.000177785
0.00017864
0.00017945
0.000180216
0.000180941
0.000181627
0.000106054
0.000150223
0.000196411
0.000243676
0.000290383
0.000334441
0.000374709
0.000411324
0.00044536
0.00047824
0.000511203
0.000545027
0.000580002
0.000616109
0.000653244
0.000691462
0.000731048
0.000772449
0.000816157
0.000862603
0.000912115
0.000964906
0.00102107
0.00108055
0.00114312
0.00120834
0.00127552
0.00134375
0.00141191
0.00147871
0.00154268
0.00160227
0.00165581
0.00170157
0.00173774
0.00176253
0.0017741
0.0017707
0.00175064
0.00171238
0.00165467
0.00157667
0.00147827
0.0013606
0.00122697
0.00108452
0.000946822
0.000836409
0.000783599
0.000812719
0.000912549
0.0010317
0.00113034
0.00120385
0.00126038
0.00130628
0.00134479
0.00137747
0.00140525
0.00142882
0.00144884
0.00146593
0.0014807
0.00149369
0.0015054
0.00151628
0.00152672
0.00153703
0.00154746
0.00155818
0.00156931
0.00158087
0.00159282
0.00160508
0.00161753
0.00163002
0.00164241
0.00165454
0.00166629
0.00167755
0.00168823
0.00169828
0.00170765
0.00171634
0.00172435
0.00173172
0.00173851
0.00174474
0.00175044
0.00175552
0.00175978
0.0017628
0.00176393
0.00176225
0.00175661
0.00174571
0.00172834
0.00170276
0.00167303
0.00160686
0.000246017
0.000213492
0.000183317
0.000168972
0.00016995
0.000183264
0.000206305
0.000236787
0.000272454
0.000311066
0.000350623
0.000389644
0.000427359
0.000463675
0.000498962
0.000533942
0.000569309
0.000605564
0.000643015
0.000681882
0.0007224
0.000764852
0.000809538
0.000856688
0.000906388
0.000958515
0.0010127
0.00106834
0.00112457
0.00118032
0.00123432
0.00128509
0.00133105
0.00137047
0.00140156
0.0014225
0.00143147
0.00142672
0.00140668
0.00137004
0.00131595
0.0012443
0.0011563
0.00105526
0.000948039
0.000846865
0.000770849
0.000743939
0.000783156
0.000877425
0.000987448
0.00108217
0.00115581
0.00121368
0.00126105
0.00130104
0.00133527
0.00136468
0.00138988
0.00141142
0.00142982
0.00144561
0.00145929
0.00147133
0.00148217
0.00149221
0.00150178
0.0015112
0.00152071
0.0015305
0.00154069
0.00155136
0.0015625
0.00157409
0.00158602
0.00159818
0.00161044
0.00162266
0.0016347
0.00164644
0.00165777
0.00166861
0.00167887
0.00168853
0.00169756
0.00170596
0.00171377
0.00172099
0.00172763
0.0017336
0.0017387
0.00174251
0.00174442
0.00174351
0.00173866
0.00172861
0.00171218
0.00168766
0.00165905
0.0015948
0.000348721
0.000343184
0.00032871
0.0003028
0.000270613
0.000239781
0.000215527
0.00020021
0.00019449
0.000198114
0.000210306
0.000229944
0.000255646
0.000285881
0.000319078
0.000353738
0.000388676
0.00042326
0.000457369
0.000491258
0.000525377
0.000560212
0.000596176
0.000633562
0.000672536
0.000713123
0.000755202
0.000798478
0.000842447
0.000886376
0.000929292
0.000969993
0.00100708
0.00103898
0.00106404
0.00108056
0.00108689
0.00108151
0.00106323
0.00103134
0.00098598
0.000928634
0.000862881
0.000795445
0.000737288
0.000703778
0.000711353
0.000767401
0.000858676
0.000957724
0.0010448
0.00111532
0.00117225
0.00121948
0.00125976
0.00129464
0.001325
0.00135139
0.00137422
0.0013939
0.00141084
0.00142546
0.00143816
0.00144936
0.00145942
0.0014687
0.00147751
0.00148613
0.00149479
0.00150368
0.00151295
0.00152269
0.00153296
0.00154373
0.00155497
0.00156659
0.00157849
0.00159054
0.00160261
0.00161456
0.00162629
0.00163768
0.00164864
0.00165909
0.00166899
0.00167831
0.00168704
0.00169519
0.00170272
0.00170955
0.00171547
0.00172009
0.00172279
0.0017227
0.00171874
0.00170965
0.00169432
0.00167104
0.00164374
0.00158173
0.000476123
0.000470443
0.000464264
0.000455692
0.000442991
0.000425218
0.000402227
0.000374474
0.000343287
0.000311236
0.000281752
0.00025799
0.000241884
0.000234019
0.00023397
0.00024096
0.000253818
0.000271434
0.000292717
0.000316659
0.000342417
0.000369383
0.000397193
0.000425704
0.00045492
0.000484908
0.000515714
0.000547286
0.000579414
0.000611693
0.000643498
0.000673981
0.000702096
0.000726638
0.000746308
0.000759811
0.000765982
0.000763956
0.000753409
0.000734882
0.000710224
0.000683157
0.000659835
0.000649023
0.000660855
0.000702708
0.000772891
0.000858786
0.00094465
0.00102071
0.00108456
0.00113782
0.00118299
0.00122213
0.00125655
0.00128699
0.0013139
0.00133758
0.00135828
0.00137629
0.00139191
0.00140547
0.00141731
0.00142776
0.00143715
0.00144577
0.00145391
0.00146181
0.00146969
0.00147776
0.00148614
0.00149497
0.00150431
0.0015142
0.00152462
0.00153553
0.00154685
0.00155848
0.00157032
0.00158223
0.00159409
0.00160578
0.0016172
0.00162824
0.00163883
0.00164891
0.00165845
0.00166742
0.00167578
0.00168343
0.00169015
0.00169557
0.0016991
0.00169989
0.00169689
0.0016889
0.0016748
0.00165295
0.00162715
0.00156772
0.000613067
0.000605637
0.000598404
0.000591136
0.000583368
0.000574554
0.00056418
0.000551746
0.000536609
0.000517869
0.000494541
0.000466191
0.000433693
0.000399407
0.000366521
0.000337504
0.000315252
0.000299645
0.000290064
0.000285846
0.000286344
0.000290926
0.00029899
0.000309979
0.000323401
0.000338837
0.000355938
0.000374405
0.000393956
0.000414291
0.000435044
0.000455764
0.000475899
0.000494823
0.000511897
0.000526579
0.000538576
0.000548053
0.000555883
0.000563922
0.000575202
0.000593862
0.000624428
0.000670141
0.000730781
0.000801726
0.000875724
0.000946163
0.00100921
0.00106394
0.00111121
0.00115249
0.00118908
0.0012219
0.0012515
0.00127816
0.00130207
0.00132336
0.00134217
0.00135869
0.00137313
0.00138575
0.00139682
0.00140661
0.0014154
0.00142344
0.00143099
0.00143826
0.00144546
0.00145276
0.00146033
0.00146828
0.00147671
0.00148567
0.00149519
0.00150526
0.00151583
0.00152684
0.0015382
0.0015498
0.00156153
0.00157326
0.00158488
0.00159627
0.00160734
0.001618
0.0016282
0.00163787
0.00164696
0.00165535
0.00166283
0.00166904
0.00167341
0.00167512
0.00167316
0.00166636
0.00165365
0.0016334
0.0016093
0.00155277
0.000735748
0.000728409
0.00072112
0.000713864
0.000706567
0.000699107
0.000691329
0.000683058
0.000674095
0.000664148
0.000652735
0.000639118
0.000622393
0.000601751
0.000576951
0.000548491
0.000519447
0.000491607
0.000466098
0.000443599
0.000424481
0.000408895
0.000396838
0.000388207
0.000382833
0.000380513
0.000381036
0.000384195
0.000389797
0.000397668
0.000407653
0.000419616
0.000433446
0.000449075
0.000466515
0.000485915
0.000507629
0.000532279
0.00056077
0.000594195
0.000633576
0.000679442
0.000731372
0.000787774
0.000846106
0.000903537
0.000957715
0.00100727
0.00105186
0.00109188
0.00112802
0.00116097
0.00119123
0.00121912
0.00124479
0.00126829
0.00128964
0.00130886
0.00132601
0.00134121
0.0013546
0.00136639
0.00137677
0.00138597
0.00139423
0.00140177
0.00140879
0.00141551
0.0014221
0.00142873
0.00143555
0.00144268
0.00145023
0.00145828
0.00146686
0.00147601
0.00148571
0.00149593
0.00150661
0.00151767
0.001529
0.00154051
0.00155206
0.00156355
0.00157485
0.00158588
0.00159654
0.00160676
0.00161644
0.00162548
0.00163366
0.00164062
0.00164581
0.00164847
0.0016476
0.0016421
0.0016309
0.00161241
0.00159017
0.00153686
0.000832526
0.000826158
0.000819768
0.000813357
0.000806912
0.000800409
0.00079381
0.00078707
0.00078014
0.000772958
0.000765427
0.000757374
0.000748499
0.000738365
0.000726409
0.000712334
0.000696359
0.000678972
0.000660813
0.000642549
0.000624797
0.000608095
0.000592885
0.000579517
0.000568253
0.000559284
0.000552746
0.000548741
0.000547348
0.000548639
0.000552691
0.000559591
0.000569446
0.000582385
0.000598561
0.000618138
0.000641279
0.000668106
0.000698645
0.000732755
0.000770045
0.000809835
0.00085117
0.000892931
0.00093401
0.000973499
0.00101082
0.00104575
0.00107836
0.00110888
0.00113756
0.00116462
0.00119016
0.0012142
0.0012367
0.00125757
0.00127675
0.0012942
0.00130992
0.00132396
0.00133643
0.00134746
0.00135723
0.00136591
0.0013737
0.00138079
0.00138735
0.00139359
0.00139964
0.00140567
0.00141182
0.00141821
0.00142494
0.0014321
0.00143975
0.00144795
0.00145671
0.00146603
0.00147587
0.00148619
0.0014969
0.00150793
0.00151915
0.00153047
0.00154175
0.0015529
0.00156381
0.00157437
0.0015845
0.00159405
0.00160282
0.00161046
0.00161645
0.00162005
0.00162032
0.00161618
0.0016066
0.00159002
0.0015698
0.00152
0.000902028
0.000896998
0.000891911
0.000886767
0.000881564
0.000876298
0.000870964
0.000865557
0.000860072
0.000854504
0.00084885
0.000843095
0.000837194
0.000831061
0.000824529
0.000817458
0.000809723
0.00080128
0.000792192
0.000782614
0.000772773
0.000762944
0.000753425
0.000744516
0.000736507
0.000729665
0.000724231
0.000720425
0.000718441
0.000718453
0.000720619
0.000725077
0.000731954
0.000741354
0.000753357
0.000768005
0.000785288
0.00080512
0.000827325
0.00085162
0.000877622
0.000904859
0.000932815
0.000960986
0.000988936
0.00101634
0.00104302
0.0010689
0.00109397
0.00111828
0.00114185
0.00116464
0.00118659
0.00120759
0.00122751
0.00124621
0.00126357
0.00127951
0.00129399
0.00130703
0.00131869
0.00132906
0.00133827
0.00134648
0.00135385
0.00136054
0.0013667
0.00137251
0.00137809
0.0013836
0.00138915
0.00139486
0.00140084
0.00140718
0.00141395
0.00142121
0.00142901
0.00143736
0.00144626
0.00145568
0.00146559
0.00147592
0.00148658
0.00149746
0.00150847
0.00151948
0.00153038
0.00154108
0.00155145
0.00156135
0.00157058
0.0015788
0.00158551
0.00159003
0.00159144
0.00158871
0.00158084
0.00156629
0.00154823
0.0015022
0.000947975
0.000944317
0.000940584
0.000936779
0.000932903
0.000928957
0.000924943
0.000920865
0.000916729
0.000912545
0.000908324
0.000904081
0.000899829
0.000895567
0.000891296
0.000886993
0.000882623
0.000878154
0.000873565
0.000868862
0.000864085
0.000859308
0.000854636
0.000850201
0.000846154
0.000842658
0.000839882
0.000837992
0.000837151
0.000837513
0.00083922
0.000842396
0.000847149
0.000853561
0.000861689
0.000871557
0.000883148
0.0008964
0.000911201
0.000927392
0.000944773
0.000963117
0.000982192
0.00100178
0.0010217
0.0010418
0.00106199
0.0010822
0.00110238
0.00112245
0.00114235
0.00116195
0.00118113
0.00119971
0.00121754
0.00123444
0.00125027
0.00126493
0.00127834
0.0012905
0.00130144
0.00131122
0.00131995
0.00132774
0.00133473
0.00134106
0.00134686
0.00135229
0.00135746
0.0013625
0.00136753
0.00137265
0.00137795
0.00138354
0.00138948
0.00139585
0.0014027
0.00141007
0.00141798
0.00142642
0.0014354
0.00144486
0.00145474
0.00146496
0.00147543
0.00148605
0.00149671
0.00150729
0.00151768
0.00152774
0.00153725
0.00154591
0.00155326
0.00155862
0.00156116
0.00155985
0.00155375
0.00154132
0.00152553
0.0014835
0.000975975
0.000973507
0.000970964
0.000968347
0.000965659
0.000962902
0.000960081
0.000957201
0.000954271
0.0009513
0.000948299
0.000945285
0.000942273
0.000939282
0.000936331
0.000933439
0.000930614
0.000927866
0.000925198
0.000922617
0.000920135
0.000917773
0.000915563
0.000913553
0.000911804
0.000910388
0.000909389
0.000908899
0.000909014
0.000909834
0.000911453
0.000913962
0.000917442
0.000921963
0.000927577
0.00093432
0.000942204
0.000951218
0.000961329
0.000972477
0.000984589
0.000997575
0.00101134
0.00102581
0.00104088
0.0010565
0.00107259
0.00108908
0.00110591
0.00112297
0.00114015
0.00115731
0.00117431
0.00119094
0.00120705
0.00122245
0.00123699
0.00125055
0.00126305
0.00127445
0.00128475
0.00129401
0.0013023
0.00130972
0.00131636
0.00132237
0.00132786
0.00133294
0.00133775
0.00134238
0.00134695
0.00135154
0.00135625
0.00136117
0.00136636
0.0013719
0.00137786
0.00138427
0.00139118
0.00139861
0.00140657
0.00141505
0.001424
0.00143337
0.0014431
0.00145309
0.00146325
0.00147347
0.00148364
0.00149363
0.00150323
0.00151217
0.00152
0.00152612
0.00152971
0.00152981
0.00152549
0.00151524
0.00150178
0.00146396
0.000991658
0.000990094
0.000988466
0.000986775
0.000985024
0.000983214
0.000981349
0.000979436
0.00097748
0.000975489
0.000973474
0.000971444
0.000969413
0.000967397
0.000965413
0.000963478
0.000961609
0.000959825
0.000958141
0.000956572
0.000955135
0.000953846
0.000952724
0.000951793
0.000951082
0.000950625
0.000950462
0.000950642
0.000951215
0.000952238
0.000953771
0.000955871
0.000958598
0.000962005
0.000966141
0.000971046
0.000976753
0.000983281
0.000990642
0.000998833
0.00100785
0.00101766
0.00102825
0.00103959
0.00105164
0.00106438
0.00107774
0.00109167
0.0011061
0.00112094
0.00113605
0.00115131
0.00116656
0.00118161
0.00119629
0.00121043
0.00122387
0.00123649
0.00124818
0.00125891
0.00126866
0.00127746
0.00128536
0.00129243
0.00129877
0.00130449
0.00130969
0.00131447
0.00131895
0.00132323
0.00132739
0.00133152
0.00133571
0.00134003
0.00134455
0.00134935
0.00135448
0.00136
0.00136596
0.00137238
0.00137931
0.00138674
0.00139466
0.00140305
0.00141186
0.00142103
0.00143047
0.0014401
0.00144981
0.0014595
0.00146897
0.00147798
0.00148613
0.00149286
0.0014974
0.00149885
0.00149628
0.00148823
0.00147714
0.00144365
0.000999699
0.00099874
0.000997736
0.000996686
0.000995591
0.000994453
0.000993275
0.000992061
0.000990817
0.000989547
0.000988259
0.000986962
0.000985664
0.000984376
0.000983109
0.000981876
0.00098069
0.000979566
0.000978519
0.000977562
0.000976713
0.000975987
0.000975401
0.000974973
0.000974723
0.000974674
0.00097485
0.000975281
0.000975998
0.000977037
0.000978435
0.000980233
0.000982474
0.0009852
0.000988454
0.000992276
0.000996705
0.00100177
0.00100751
0.00101395
0.0010211
0.00102898
0.00103759
0.00104694
0.00105702
0.00106781
0.00107927
0.00109137
0.00110403
0.00111717
0.00113067
0.00114441
0.00115823
0.00117197
0.00118546
0.00119853
0.00121102
0.00122282
0.00123381
0.00124395
0.0012532
0.00126158
0.00126912
0.00127589
0.00128196
0.00128741
0.00129235
0.00129687
0.00130107
0.00130502
0.00130883
0.00131256
0.00131629
0.00132009
0.00132402
0.00132816
0.00133255
0.00133725
0.00134232
0.0013478
0.00135372
0.0013601
0.00136697
0.0013743
0.00138208
0.00139027
0.00139882
0.00140765
0.00141669
0.00142584
0.00143496
0.00144383
0.00145209
0.00145925
0.00146461
0.00146728
0.00146639
0.0014605
0.00145176
0.00142268
0.00100346
0.00100286
0.00100223
0.00100157
0.00100089
0.00100018
0.000999442
0.000998685
0.000997909
0.000997119
0.000996321
0.00099552
0.000994723
0.000993936
0.000993167
0.000992426
0.000991719
0.000991058
0.000990452
0.000989914
0.000989455
0.000989088
0.000988827
0.000988687
0.000988685
0.000988837
0.000989164
0.000989688
0.000990431
0.000991421
0.000992686
0.000994258
0.00099617
0.000998459
0.00100116
0.00100432
0.00100797
0.00101214
0.00101689
0.00102223
0.00102821
0.00103485
0.00104217
0.00105019
0.00105891
0.00106832
0.00107841
0.00108914
0.00110045
0.00111226
0.00112448
0.00113698
0.00114962
0.00116226
0.00117473
0.00118687
0.00119854
0.00120961
0.00121998
0.00122959
0.00123839
0.00124639
0.00125361
0.0012601
0.00126592
0.00127114
0.00127585
0.00128013
0.00128407
0.00128774
0.00129123
0.00129461
0.00129794
0.00130129
0.00130471
0.00130827
0.00131201
0.00131599
0.00132026
0.00132486
0.00132984
0.00133522
0.00134104
0.0013473
0.00135401
0.00136114
0.00136867
0.00137655
0.00138474