/*--------------------------------*- C++ -*----------------------------------*\
  =========                 |
  \\      /  F ield         | OpenFOAM: The Open Source CFD Toolbox
   \\    /   O peration     | Website:  https://openfoam.org
    \\  /    A nd           | Version:  10
     \\/     M anipulation  |
\*---------------------------------------------------------------------------*/
FoamFile
{
    format      ascii;
    class       volScalarField;
    location    "0.095";
    object      p;
}
// * * * * * * * * * * * * * * * * * * * * * * * * * * * * * * * * * * * * * //

dimensions      [0 2 -2 0 0 0 0];

internalField   nonuniform List<scalar> 
6820
(
-8.83285
-10.1969
-10.6105
-10.706
-10.7869
-10.8384
-10.8695
-10.894
-10.9152
-10.9339
-10.9512
-10.9676
-10.9834
-10.9987
-11.0137
-11.0283
-11.0426
-11.0567
-11.0706
-11.0842
-11.0975
-11.1106
-11.1232
-11.1354
-11.1469
-11.1574
-11.1665
-11.1732
-11.1766
-11.1703
-11.1568
-11.1026
-10.9833
-11.633
-11.2287
-10.9348
-10.8395
-10.841
-10.8579
-10.8761
-10.8959
-10.9155
-10.934
-10.9512
-10.9676
-10.9831
-10.9981
-11.0127
-11.0269
-11.0407
-11.0544
-11.0678
-11.081
-11.094
-11.1067
-11.1191
-11.1312
-11.1426
-11.1534
-11.1632
-11.172
-11.1782
-11.1871
-11.1862
-11.2327
-11.2578
-10.49
-10.3618
-10.5868
-10.7245
-10.7862
-10.8307
-10.8629
-10.8884
-10.9103
-10.9295
-10.9471
-10.9637
-10.9795
-10.9948
-11.0097
-11.0242
-11.0385
-11.0525
-11.0663
-11.0799
-11.0933
-11.1064
-11.1192
-11.1316
-11.1435
-11.1548
-11.1653
-11.1748
-11.1829
-11.191
-11.1959
-11.2097
-11.2034
-10.8565
-10.8733
-10.849
-10.8262
-10.8345
-10.8551
-10.8753
-10.8947
-10.9135
-10.9314
-10.9483
-10.9645
-10.9801
-10.9952
-11.01
-11.0244
-11.0385
-11.0524
-11.0661
-11.0795
-11.0928
-11.1059
-11.1187
-11.1311
-11.1433
-11.1549
-11.1661
-11.1769
-11.187
-11.1985
-11.2095
-11.2313
-11.2528
-10.7466
-10.6926
-10.7366
-10.7814
-10.8166
-10.8468
-10.8716
-10.8931
-10.9128
-10.931
-10.948
-10.9641
-10.9797
-10.9947
-11.0094
-11.0238
-11.0379
-11.0518
-11.0655
-11.0791
-11.0925
-11.1057
-11.1187
-11.1314
-11.1439
-11.1562
-11.1682
-11.1801
-11.1919
-11.205
-11.2189
-11.2386
-11.2589
-10.7873
-10.7805
-10.7989
-10.816
-10.8344
-10.8559
-10.8767
-10.8962
-10.9146
-10.9321
-10.9486
-10.9645
-10.9799
-10.9948
-11.0094
-11.0237
-11.0378
-11.0517
-11.0654
-11.079
-11.0924
-11.1057
-11.1188
-11.1318
-11.1446
-11.1573
-11.17
-11.1828
-11.196
-11.2106
-11.2264
-11.2464
-11.2687
-10.7865
-10.7758
-10.7906
-10.8122
-10.8343
-10.8568
-10.8778
-10.8971
-10.9153
-10.9325
-10.9489
-10.9647
-10.9799
-10.9947
-11.0092
-11.0235
-11.0375
-11.0514
-11.0651
-11.0787
-11.0922
-11.1056
-11.1189
-11.1321
-11.1452
-11.1585
-11.1718
-11.1855
-11.1997
-11.2153
-11.2323
-11.2521
-11.2741
-10.7961
-10.7931
-10.8062
-10.8242
-10.8425
-10.862
-10.881
-10.8992
-10.9166
-10.9333
-10.9494
-10.9649
-10.9799
-10.9946
-11.009
-11.0232
-11.0372
-11.051
-11.0648
-11.0784
-11.0919
-11.1054
-11.1188
-11.1323
-11.1457
-11.1594
-11.1733
-11.1876
-11.2027
-11.2189
-11.2365
-11.2563
-11.2779
-10.8046
-10.8035
-10.814
-10.8298
-10.847
-10.8652
-10.8834
-10.9009
-10.9178
-10.9341
-10.9498
-10.9651
-10.9799
-10.9945
-11.0088
-11.0228
-11.0368
-11.0506
-11.0643
-11.0779
-11.0915
-11.105
-11.1186
-11.1322
-11.146
-11.16
-11.1743
-11.1892
-11.2048
-11.2215
-11.2395
-11.2591
-11.2802
-10.813
-10.8136
-10.823
-10.8372
-10.8528
-10.8695
-10.8864
-10.903
-10.9192
-10.935
-10.9503
-10.9653
-10.9799
-10.9943
-11.0084
-11.0224
-11.0362
-11.05
-11.0637
-11.0773
-11.0909
-11.1045
-11.1182
-11.132
-11.146
-11.1603
-11.175
-11.1902
-11.2062
-11.2231
-11.2412
-11.2606
-11.2814
-10.8213
-10.8226
-10.831
-10.8436
-10.8579
-10.8733
-10.8892
-10.905
-10.9206
-10.9359
-10.9508
-10.9655
-10.9799
-10.994
-11.008
-11.0219
-11.0356
-11.0493
-11.0629
-11.0765
-11.0901
-11.1038
-11.1176
-11.1315
-11.1457
-11.1602
-11.1751
-11.1905
-11.2067
-11.2238
-11.2419
-11.2611
-11.2814
-10.8292
-10.8309
-10.8385
-10.8498
-10.8629
-10.8772
-10.8921
-10.9071
-10.9221
-10.9368
-10.9514
-10.9657
-10.9798
-10.9938
-11.0076
-11.0213
-11.0349
-11.0485
-11.062
-11.0756
-11.0892
-11.1029
-11.1167
-11.1307
-11.145
-11.1596
-11.1746
-11.1902
-11.2065
-11.2236
-11.2416
-11.2605
-11.2803
-10.8366
-10.8385
-10.8454
-10.8557
-10.8677
-10.8809
-10.8949
-10.9092
-10.9235
-10.9377
-10.9519
-10.9659
-10.9797
-10.9934
-11.0071
-11.0206
-11.0341
-11.0475
-11.061
-11.0745
-11.0881
-11.1017
-11.1155
-11.1296
-11.1439
-11.1585
-11.1736
-11.1893
-11.2055
-11.2225
-11.2403
-11.2588
-11.2782
-10.8435
-10.8455
-10.8518
-10.8611
-10.8722
-10.8845
-10.8977
-10.9112
-10.9249
-10.9386
-10.9523
-10.966
-10.9795
-10.993
-11.0064
-11.0198
-11.0331
-11.0465
-11.0598
-11.0732
-11.0867
-11.1003
-11.1141
-11.1281
-11.1424
-11.157
-11.172
-11.1876
-11.2037
-11.2205
-11.238
-11.2561
-11.2751
-10.8499
-10.8518
-10.8577
-10.8662
-10.8764
-10.8879
-10.9003
-10.9131
-10.9262
-10.9395
-10.9527
-10.966
-10.9793
-10.9925
-11.0057
-11.0188
-11.032
-11.0452
-11.0584
-11.0717
-11.0851
-11.0986
-11.1123
-11.1262
-11.1404
-11.1549
-11.1698
-11.1852
-11.2011
-11.2176
-11.2347
-11.2524
-11.2708
-10.8558
-10.8576
-10.863
-10.8709
-10.8803
-10.8911
-10.9027
-10.9149
-10.9274
-10.9402
-10.9531
-10.966
-10.9789
-10.9919
-11.0048
-11.0178
-11.0307
-11.0437
-11.0568
-11.0699
-11.0831
-11.0965
-11.1101
-11.1238
-11.1379
-11.1522
-11.167
-11.1821
-11.1977
-11.2139
-11.2305
-11.2477
-11.2655
-10.8612
-10.8629
-10.8679
-10.8751
-10.8839
-10.894
-10.9049
-10.9165
-10.9285
-10.9408
-10.9533
-10.9658
-10.9784
-10.9911
-11.0038
-11.0165
-11.0292
-11.042
-11.0549
-11.0678
-11.0809
-11.0941
-11.1075
-11.121
-11.1349
-11.149
-11.1635
-11.1783
-11.1936
-11.2092
-11.2254
-11.242
-11.2591
-10.866
-10.8675
-10.8722
-10.8789
-10.8871
-10.8965
-10.9069
-10.9179
-10.9294
-10.9413
-10.9533
-10.9655
-10.9778
-10.9901
-11.0026
-11.015
-11.0275
-11.0401
-11.0528
-11.0655
-11.0783
-11.0913
-11.1045
-11.1178
-11.1314
-11.1452
-11.1593
-11.1738
-11.1886
-11.2037
-11.2193
-11.2353
-11.2516
-10.8702
-10.8717
-10.876
-10.8823
-10.8899
-10.8988
-10.9086
-10.9191
-10.9301
-10.9415
-10.9532
-10.965
-10.977
-10.989
-11.0012
-11.0134
-11.0256
-11.038
-11.0504
-11.0628
-11.0754
-11.0881
-11.101
-11.1141
-11.1273
-11.1408
-11.1545
-11.1685
-11.1828
-11.1974
-11.2123
-11.2275
-11.2431
-10.8739
-10.8753
-10.8793
-10.8852
-10.8924
-10.9007
-10.91
-10.9201
-10.9306
-10.9416
-10.9528
-10.9643
-10.9759
-10.9877
-10.9995
-11.0115
-11.0234
-11.0355
-11.0476
-11.0599
-11.0722
-11.0846
-11.0971
-11.1098
-11.1227
-11.1357
-11.149
-11.1625
-11.1762
-11.1902
-11.2044
-11.2189
-11.2336
-10.877
-10.8783
-10.8821
-10.8876
-10.8943
-10.9022
-10.9111
-10.9207
-10.9308
-10.9414
-10.9523
-10.9634
-10.9747
-10.9861
-10.9977
-11.0093
-11.021
-11.0328
-11.0446
-11.0565
-11.0685
-11.0806
-11.0928
-11.1051
-11.1175
-11.1301
-11.1429
-11.1558
-11.1689
-11.1822
-11.1957
-11.2093
-11.2231
-10.8795
-10.8807
-10.8843
-10.8894
-10.8958
-10.9034
-10.9118
-10.921
-10.9307
-10.9409
-10.9514
-10.9622
-10.9732
-10.9843
-10.9955
-11.0069
-11.0183
-11.0297
-11.0413
-11.0528
-11.0645
-11.0762
-11.088
-11.0999
-11.1118
-11.1239
-11.1361
-11.1484
-11.1608
-11.1734
-11.1861
-11.1989
-11.2118
-10.8814
-10.8826
-10.8859
-10.8908
-10.8969
-10.904
-10.9121
-10.9209
-10.9303
-10.9401
-10.9503
-10.9608
-10.9714
-10.9822
-10.9932
-11.0042
-11.0153
-11.0264
-11.0376
-11.0488
-11.0601
-11.0714
-11.0828
-11.0942
-11.1056
-11.1172
-11.1287
-11.1404
-11.1521
-11.1639
-11.1757
-11.1876
-11.1996
-10.8827
-10.8838
-10.887
-10.8916
-10.8974
-10.9042
-10.9119
-10.9204
-10.9294
-10.9389
-10.9488
-10.9589
-10.9693
-10.9798
-10.9905
-11.0012
-11.0119
-11.0227
-11.0336
-11.0444
-11.0553
-11.0662
-11.0771
-11.088
-11.0989
-11.1098
-11.1208
-11.1317
-11.1427
-11.1537
-11.1647
-11.1756
-11.1866
-10.8834
-10.8844
-10.8875
-10.8919
-10.8974
-10.9039
-10.9114
-10.9196
-10.9283
-10.9375
-10.9471
-10.957
-10.967
-10.9772
-10.9876
-10.998
-11.0084
-11.0189
-11.0293
-11.0398
-11.0502
-11.0606
-11.071
-11.0814
-11.0918
-11.1021
-11.1124
-11.1226
-11.1328
-11.143
-11.1531
-11.1631
-11.173
-10.8834
-10.8844
-10.8872
-10.8914
-10.8967
-10.903
-10.9101
-10.918
-10.9265
-10.9354
-10.9447
-10.9543
-10.9641
-10.974
-10.9841
-10.9942
-11.0043
-11.0144
-11.0245
-11.0346
-11.0446
-11.0545
-11.0645
-11.0743
-11.0841
-11.0938
-11.1034
-11.1129
-11.1223
-11.1316
-11.1408
-11.1498
-11.1587
-10.8828
-10.8837
-10.8865
-10.8906
-10.8957
-10.9019
-10.9089
-10.9165
-10.9248
-10.9335
-10.9426
-10.9519
-10.9615
-10.9711
-10.9809
-10.9906
-11.0004
-11.0101
-11.0198
-11.0295
-11.039
-11.0485
-11.0578
-11.0671
-11.0763
-11.0853
-11.0942
-11.1029
-11.1115
-11.12
-11.1282
-11.1363
-11.1442
-10.8814
-10.8822
-10.8847
-10.8885
-10.8933
-10.8991
-10.9058
-10.9133
-10.9214
-10.9299
-10.9388
-10.9479
-10.9573
-10.9667
-10.9762
-10.9858
-10.9953
-11.0047
-11.0141
-11.0233
-11.0325
-11.0415
-11.0504
-11.0591
-11.0677
-11.0761
-11.0843
-11.0923
-11.1001
-11.1077
-11.1151
-11.1222
-11.1291
-10.8795
-10.8805
-10.8832
-10.8871
-10.8921
-10.898
-10.9047
-10.9121
-10.92
-10.9283
-10.937
-10.9459
-10.9549
-10.9641
-10.9732
-10.9824
-10.9915
-11.0005
-11.0094
-11.0182
-11.0268
-11.0353
-11.0436
-11.0517
-11.0596
-11.0673
-11.0747
-11.082
-11.0889
-11.0957
-11.1021
-11.1083
-11.1142
-10.8763
-10.8765
-10.8782
-10.8813
-10.8856
-10.8912
-10.8978
-10.9051
-10.9131
-10.9215
-10.9303
-10.9393
-10.9484
-10.9575
-10.9667
-10.9757
-10.9847
-10.9936
-11.0023
-11.0108
-11.0191
-11.0272
-11.0351
-11.0427
-11.0501
-11.0573
-11.0641
-11.0706
-11.0769
-11.0829
-11.0885
-11.0938
-11.0987
-10.874
-10.8759
-10.8791
-10.8831
-10.8879
-10.8936
-10.9001
-10.9071
-10.9147
-10.9227
-10.931
-10.9394
-10.948
-10.9566
-10.9652
-10.9737
-10.9821
-10.9904
-10.9985
-11.0064
-11.0141
-11.0216
-11.0288
-11.0357
-11.0424
-11.0488
-11.0548
-11.0606
-11.066
-11.071
-11.0757
-11.0801
-11.084
-10.8659
-10.8638
-10.8635
-10.8657
-10.87
-10.876
-10.8832
-10.8912
-10.8998
-10.9088
-10.918
-10.9273
-10.9366
-10.9458
-10.9549
-10.9638
-10.9726
-10.981
-10.9892
-10.9972
-11.0048
-11.0121
-11.0191
-11.0258
-11.0321
-11.038
-11.0436
-11.0488
-11.0536
-11.0581
-11.0621
-11.0657
-11.0688
-10.8712
-10.8766
-10.8808
-10.8838
-10.8875
-10.8921
-10.8977
-10.904
-10.9109
-10.9182
-10.9259
-10.9337
-10.9416
-10.9496
-10.9575
-10.9653
-10.973
-10.9805
-10.9878
-10.9948
-11.0016
-11.008
-11.0142
-11.02
-11.0255
-11.0306
-11.0353
-11.0396
-11.0436
-11.0471
-11.0502
-11.0528
-11.055
-10.8418
-10.8307
-10.8274
-10.8311
-10.8384
-10.8474
-10.8574
-10.8679
-10.8788
-10.8897
-10.9004
-10.9109
-10.9212
-10.9311
-10.9407
-10.95
-10.9588
-10.9672
-10.9753
-10.9829
-10.9901
-10.9968
-11.0031
-11.009
-11.0145
-11.0194
-11.024
-11.028
-11.0316
-11.0347
-11.0373
-11.0394
-11.041
-10.889
-10.9052
-10.9064
-10.9006
-10.8982
-10.8991
-10.9018
-10.9059
-10.9109
-10.9168
-10.9232
-10.9299
-10.9369
-10.9439
-10.9509
-10.9579
-10.9647
-10.9714
-10.9778
-10.9839
-10.9898
-10.9952
-11.0004
-11.0052
-11.0095
-11.0135
-11.017
-11.0201
-11.0227
-11.0249
-11.0265
-11.0277
-11.0285
-10.7792
-10.7411
-10.7355
-10.7591
-10.7791
-10.7971
-10.8149
-10.8319
-10.8479
-10.8629
-10.877
-10.8901
-10.9024
-10.9139
-10.9247
-10.9349
-10.9443
-10.9532
-10.9614
-10.969
-10.9761
-10.9826
-10.9886
-10.994
-10.9988
-11.0031
-11.0068
-11.0099
-11.0126
-11.0146
-11.0161
-11.017
-11.0174
-10.9913
-11.0158
-10.9865
-10.9497
-10.9261
-10.918
-10.9146
-10.9137
-10.9151
-10.9182
-10.9225
-10.9275
-10.933
-10.9388
-10.9447
-10.9507
-10.9566
-10.9623
-10.9679
-10.9732
-10.9782
-10.9828
-10.9871
-10.991
-10.9944
-10.9975
-11
-11.0021
-11.0037
-11.0048
-11.0055
-11.0056
-11.0052
-10.5757
-10.4939
-10.5508
-10.6316
-10.6878
-10.7259
-10.7591
-10.7879
-10.8126
-10.834
-10.853
-10.8699
-10.8851
-10.8988
-10.9112
-10.9226
-10.933
-10.9424
-10.9511
-10.9589
-10.966
-10.9725
-10.9782
-10.9833
-10.9877
-10.9915
-10.9946
-10.9971
-10.999
-11.0003
-11.0009
-11.0009
-11.0003
-11.552
-11.2739
-11.0681
-10.9767
-10.9395
-10.9186
-10.9056
-10.8997
-10.8986
-10.9004
-10.9039
-10.9088
-10.9144
-10.9204
-10.9266
-10.9329
-10.9391
-10.9451
-10.9509
-10.9564
-10.9616
-10.9663
-10.9706
-10.9745
-10.9779
-10.9808
-10.9832
-10.9851
-10.9864
-10.9872
-10.9875
-10.9872
-10.9863
-9.59395
-10.1555
-10.46
-10.576
-10.6573
-10.7205
-10.7653
-10.799
-10.826
-10.8481
-10.8665
-10.8823
-10.8961
-10.9084
-10.9194
-10.9293
-10.9383
-10.9465
-10.954
-10.9607
-10.9668
-10.9722
-10.9769
-10.9811
-10.9846
-10.9875
-10.9897
-10.9914
-10.9924
-10.9929
-10.9927
-10.9919
-10.9905
-10.8137
-11.0064
-11.1234
-11.2151
-11.2988
-11.3689
-11.4466
-11.5477
-11.6792
-11.8384
-12.0194
-12.2151
-12.4175
-12.6185
-12.8108
-12.9891
-13.1488
-13.2875
-13.4039
-13.4979
-13.5705
-13.623
-13.6568
-13.6736
-13.6751
-13.6626
-13.6373
-13.6001
-13.5516
-13.4921
-13.4215
-13.3393
-13.2448
-13.1366
-13.0129
-12.8715
-12.7097
-12.5242
-12.3113
-12.0668
-11.7864
-11.4652
-11.0985
-10.6818
-10.2112
-9.68353
-9.09727
-8.45306
-7.75467
-7.00989
-6.23196
-5.44033
-4.65697
-3.90147
-3.19023
-2.53715
-1.95267
-1.44278
-1.00894
-0.648664
-0.356486
-0.125144
0.0534313
0.187348
0.284256
0.351072
0.393854
0.417788
0.427224
0.425756
0.416304
0.401204
0.382301
0.361024
0.338459
0.315415
0.292479
0.270059
0.248428
0.227754
0.208132
0.189599
0.172155
0.155768
0.140397
0.125989
0.112492
0.0998592
0.0880374
0.0770123
0.0667135
0.0572028
0.0483091
0.0402724
0.0326273
0.0260021
0.0195055
0.0137485
0.00975382
0.00017419
-11.5784
-11.651
-11.5602
-11.481
-11.43
-11.4173
-11.4444
-11.5145
-11.6265
-11.7765
-11.9555
-12.1521
-12.3554
-12.5563
-12.7462
-12.9204
-13.075
-13.2087
-13.3209
-13.4117
-13.4821
-13.533
-13.5659
-13.582
-13.5829
-13.5699
-13.5441
-13.5065
-13.4576
-13.3977
-13.3267
-13.2441
-13.149
-13.04
-12.9154
-12.7728
-12.6095
-12.4223
-12.2074
-11.9609
-11.6782
-11.3548
-10.9863
-10.5681
-10.0967
-9.56903
-8.98421
-8.34385
-7.65309
-6.92148
-6.1637
-5.39754
-4.64061
-3.90947
-3.2196
-2.58437
-2.01373
-1.51356
-1.08553
-0.727619
-0.435038
-0.201208
-0.0186942
0.120073
0.22232
0.294647
0.342885
0.372067
0.386447
0.389561
0.384304
0.373009
0.35753
0.339316
0.319478
0.298853
0.278057
0.257526
0.23756
0.218351
0.200018
0.182616
0.166162
0.150641
0.136026
0.122276
0.109347
0.0972026
0.0857984
0.0751234
0.0651218
0.0558434
0.0471628
0.0392464
0.0318113
0.0251365
0.0190896
0.0127552
0.0102876
-0.00193803
-11.2225
-11.2089
-11.2224
-11.2699
-11.3264
-11.3855
-11.4541
-11.5419
-11.6538
-11.7897
-11.9463
-12.1184
-12.2994
-12.4819
-12.6601
-12.8275
-12.9795
-13.113
-13.2259
-13.3174
-13.3879
-13.4385
-13.4706
-13.4859
-13.4859
-13.472
-13.4454
-13.407
-13.3572
-13.2963
-13.2243
-13.1405
-13.0441
-12.9337
-12.8074
-12.6629
-12.4975
-12.308
-12.0906
-11.8414
-11.556
-11.23
-10.8589
-10.4387
-9.96586
-9.43854
-8.85699
-8.22409
-7.54608
-6.83329
-6.09923
-5.3586
-4.6266
-3.91869
-3.24955
-2.63176
-2.07476
-1.58425
-1.16209
-0.80672
-0.513949
-0.277847
-0.0915897
0.0518712
0.159345
0.237111
0.290773
0.325202
0.344549
0.352288
0.351284
0.34386
0.331877
0.3168
0.299764
0.281631
0.263045
0.244468
0.226228
0.208542
0.191549
0.175325
0.159904
0.145289
0.131465
0.118403
0.106071
0.0944403
0.0834765
0.0731721
0.063486
0.0544556
0.0460026
0.0382174
0.0310024
0.0242836
0.0186894
0.011783
0.010824
-0.00401343
-11.3266
-11.4129
-11.4417
-11.4463
-11.4546
-11.476
-11.5175
-11.585
-11.6803
-11.802
-11.9457
-12.105
-12.2726
-12.4414
-12.6053
-12.7581
-12.8971
-13.0199
-13.1249
-13.2114
-13.2793
-13.3292
-13.3618
-13.3779
-13.3787
-13.3653
-13.3388
-13.3
-13.2494
-13.1874
-13.114
-13.0285
-12.9301
-12.8175
-12.6888
-12.5417
-12.3734
-12.1807
-11.96
-11.7073
-11.4184
-11.0889
-10.7149
-10.2928
-9.82046
-9.29682
-8.72279
-8.10185
-7.44077
-6.74926
-6.03886
-5.32254
-4.6144
-3.92898
-3.27999
-2.67922
-2.13562
-1.65471
-1.2385
-0.885836
-0.593092
-0.354945
-0.165151
-0.017167
0.0954046
0.178526
0.237565
0.277227
0.301555
0.313954
0.317251
0.313759
0.305339
0.293469
0.279307
0.263737
0.24743
0.230874
0.214422
0.198315
0.182714
0.167717
0.153374
0.139704
0.126707
0.114366
0.102661
0.0915704
0.0810714
0.0711593
0.0618083
0.0530433
0.0448332
0.0371919
0.0302072
0.0234518
0.0183106
0.010841
0.0113636
-0.00603976
-11.2965
-11.3271
-11.3375
-11.3573
-11.3927
-11.4402
-11.5016
-11.5811
-11.6806
-11.7995
-11.9347
-12.0819
-12.2358
-12.3909
-12.5423
-12.6855
-12.817
-12.9337
-13.0336
-13.1158
-13.18
-13.2265
-13.2562
-13.27
-13.269
-13.2541
-13.2262
-13.1861
-13.1342
-13.0706
-12.9952
-12.9075
-12.8065
-12.6909
-12.5589
-12.4082
-12.236
-12.0392
-11.8143
-11.5576
-11.265
-10.933
-10.558
-10.1372
-9.66873
-9.15199
-8.58852
-7.98234
-7.33989
-6.66964
-5.98199
-5.28901
-4.60392
-3.94026
-3.31083
-2.72667
-2.19622
-1.72483
-1.31464
-0.964846
-0.672343
-0.432379
-0.239262
-0.0869341
0.0305964
0.118975
0.183332
0.228203
0.257514
0.274597
0.282237
0.282729
0.277933
0.269338
0.258117
0.245179
0.231216
0.216744
0.20214
0.187669
0.173514
0.15979
0.146569
0.133884
0.12175
0.110163
0.099113
0.0885899
0.0785793
0.0690808
0.0600841
0.0516013
0.0436489
0.0361641
0.029419
0.0226355
0.0179459
0.00992726
0.0118959
-0.00800917
-11.3033
-11.3451
-11.3776
-11.4076
-11.4414
-11.4829
-11.5369
-11.6076
-11.697
-11.8043
-11.9271
-12.0613
-12.2021
-12.3446
-12.484
-12.6159
-12.737
-12.8447
-12.9372
-13.0138
-13.074
-13.1179
-13.1459
-13.1586
-13.1566
-13.1408
-13.1118
-13.0702
-13.0164
-12.9505
-12.8724
-12.7816
-12.677
-12.5576
-12.4213
-12.2662
-12.0896
-11.8886
-11.6598
-11.3999
-11.1052
-10.7723
-10.3981
-9.98019
-9.51722
-9.00928
-8.45824
-7.86783
-7.24383
-6.59407
-5.92831
-5.25786
-4.59504
-3.95246
-3.34201
-2.77403
-2.25649
-1.79454
-1.39041
-1.04364
-0.751595
-0.510043
-0.31382
-0.157338
-0.0349989
0.0585281
0.128133
0.178177
0.212464
0.234247
0.246265
0.250788
0.249672
0.244412
0.236197
0.225955
0.214402
0.202076
0.18938
0.176601
0.163942
0.151541
0.139485
0.127825
0.11659
0.10579
0.0954259
0.0854965
0.0759986
0.0669352
0.0583123
0.0501288
0.0424492
0.0351338
0.0286375
0.021836
0.0175944
0.00904505
0.0124153
-0.00991067
-11.304
-11.3392
-11.3681
-11.3969
-11.4327
-11.4781
-11.5355
-11.6071
-11.694
-11.7958
-11.9104
-12.0345
-12.1641
-12.295
-12.4232
-12.5448
-12.6568
-12.7567
-12.8429
-12.9141
-12.9699
-13.0102
-13.0351
-13.0452
-13.0411
-13.0233
-12.9925
-12.9491
-12.8934
-12.8253
-12.7447
-12.6509
-12.5431
-12.42
-12.28
-12.1208
-11.9403
-11.7354
-11.5033
-11.2407
-10.9444
-10.6114
-10.239
-9.82537
-9.36942
-8.87144
-8.33321
-7.75828
-7.15214
-6.5222
-5.8776
-5.22892
-4.58764
-3.96546
-3.37344
-2.82123
-2.31633
-1.86373
-1.46571
-1.12212
-0.830738
-0.587829
-0.388723
-0.228283
-0.101295
-0.00273936
0.0720323
0.127203
0.166449
0.192939
0.20936
0.217954
0.220569
0.218702
0.213553
0.20607
0.196988
0.18687
0.17614
0.165107
0.153997
0.142966
0.132119
0.121525
0.111226
0.101246
0.0915971
0.0822886
0.0733278
0.0647216
0.056492
0.0486254
0.0412336
0.0341011
0.0278624
0.0210541
0.0172548
0.00819766
0.0129161
-0.011733
-11.3056
-11.3393
-11.3715
-11.4048
-11.4436
-11.4899
-11.5459
-11.6139
-11.695
-11.7889
-11.8939
-12.0073
-12.1257
-12.2454
-12.3627
-12.4744
-12.5774
-12.6694
-12.7488
-12.8144
-12.8655
-12.902
-12.9239
-12.9315
-12.9253
-12.9056
-12.8728
-12.8274
-12.7695
-12.6989
-12.6155
-12.5187
-12.4076
-12.2809
-12.137
-11.9741
-11.7899
-11.5817
-11.3468
-11.0824
-10.7854
-10.4533
-10.0838
-9.67519
-9.22667
-8.73868
-8.21304
-7.65322
-7.06447
-6.45375
-5.82967
-5.20207
-4.58162
-3.97918
-3.40504
-2.86818
-2.37568
-1.93232
-1.54046
-1.20019
-0.909665
-0.665628
-0.463864
-0.299669
-0.168201
-0.0647472
0.0150989
0.0753385
0.119517
0.150712
0.171555
0.184254
0.190644
0.192221
0.190196
0.185531
0.17898
0.171129
0.162421
0.153189
0.143678
0.134063
0.12447
0.114981
0.105655
0.0965281
0.0876252
0.0789648
0.0705659
0.0624388
0.0546224
0.0470903
0.0400016
0.0330658
0.0270931
0.0202905
0.0169259
0.0073879
0.0133927
-0.0134652
-11.3066
-11.3387
-11.3712
-11.4055
-11.4446
-11.4908
-11.5459
-11.6115
-11.6882
-11.7757
-11.8727
-11.9767
-12.085
-12.1944
-12.3017
-12.4038
-12.4982
-12.5826
-12.6553
-12.7153
-12.7618
-12.7945
-12.8131
-12.818
-12.8093
-12.7874
-12.7525
-12.7049
-12.6447
-12.5717
-12.4856
-12.3859
-12.2716
-12.1416
-11.9943
-11.828
-11.6405
-11.4296
-11.1925
-10.9268
-10.6298
-10.2991
-9.93282
-9.52945
-9.08849
-8.61049
-8.09731
-7.55233
-6.98055
-6.38854
-5.78435
-5.17715
-4.57687
-3.99354
-3.43673
-2.91481
-2.43445
-2.00024
-1.61456
-1.27773
-0.988273
-0.743333
-0.539139
-0.371396
-0.235624
-0.127412
-0.0425938
0.0226474
0.0717211
0.107612
0.132885
0.149716
0.159919
0.164988
0.166139
0.164348
0.160386
0.154856
0.148226
0.140847
0.132985
0.124835
0.116537
0.108194
0.0998771
0.0916363
0.0835095
0.0755245
0.067712
0.0600863
0.0527029
0.0455233
0.0387527
0.0320278
0.0263292
0.019546
0.0166062
0.00661833
0.0138398
-0.0150967
-11.3068
-11.3379
-11.3706
-11.4058
-11.4455
-11.4915
-11.5451
-11.6077
-11.6796
-11.7607
-11.8497
-11.9448
-12.0435
-12.1431
-12.2407
-12.3337
-12.4197
-12.4966
-12.5628
-12.6172
-12.6588
-12.6874
-12.7027
-12.7046
-12.6934
-12.6692
-12.6321
-12.5823
-12.5197
-12.4443
-12.3556
-12.253
-12.1357
-12.0026
-11.8522
-11.6828
-11.4926
-11.2792
-11.0404
-10.7739
-10.4773
-10.1484
-9.78568
-9.38784
-8.9546
-8.48661
-7.98578
-7.4554
-6.9002
-6.32641
-5.74152
-5.15408
-4.57329
-4.00846
-3.46845
-2.96107
-2.49258
-2.0674
-1.68793
-1.35467
-1.06646
-0.82084
-0.614442
-0.443361
-0.303468
-0.190647
-0.100969
-0.0308034
0.0231194
0.0636847
0.0933921
0.114374
0.128422
0.137025
0.141401
0.142534
0.141214
0.138062
0.133562
0.128087
0.121923
0.115282
0.108323
0.101164
0.0938923
0.0865708
0.0792499
0.0719675
0.064766
0.0576638
0.0507333
0.0439241
0.0374867
0.030987
0.0255701
0.0188208
0.0162946
0.00589115
0.0142526
-0.0166174
-11.3061
-11.3363
-11.3689
-11.4041
-11.4436
-11.4886
-11.5404
-11.5997
-11.6671
-11.7422
-11.824
-11.9108
-12.0006
-12.0911
-12.1796
-12.264
-12.3419
-12.4115
-12.4712
-12.5199
-12.5567
-12.5812
-12.5929
-12.5918
-12.5778
-12.5511
-12.5116
-12.4595
-12.3946
-12.3167
-12.2254
-12.1202
-12.0001
-11.864
-11.7108
-11.5387
-11.346
-11.1306
-10.8906
-10.6236
-10.3278
-10.0011
-9.64226
-9.25021
-8.82482
-8.36688
-7.8783
-7.36227
-6.82331
-6.26723
-5.70107
-5.13276
-4.57081
-4.02387
-3.50013
-3.00688
-2.55002
-2.13375
-1.7605
-1.43092
-1.14413
-0.898046
-0.689667
-0.515463
-0.371637
-0.254361
-0.159944
-0.0849421
-0.0262262
0.0189849
0.0531196
0.0782637
0.0961841
0.108357
0.116
0.120108
0.121481
0.120756
0.118437
0.114916
0.110496
0.105409
0.0998305
0.0938944
0.087703
0.081333
0.0748475
0.0682946
0.0617284
0.0551717
0.0487137
0.0422927
0.0362033
0.0299437
0.0248156
0.0181154
0.0159898
0.00520829
0.0146265
-0.0180179
-11.3044
-11.3339
-11.3659
-11.4008
-11.4396
-11.4834
-11.533
-11.5892
-11.652
-11.7214
-11.7963
-11.8753
-11.9568
-12.0386
-12.1186
-12.1947
-12.2648
-12.3273
-12.3806
-12.4237
-12.4556
-12.4758
-12.4838
-12.4794
-12.4626
-12.4333
-12.3914
-12.3368
-12.2695
-12.1892
-12.0954
-11.9875
-11.8647
-11.726
-11.5702
-11.3956
-11.2008
-10.9839
-10.7429
-10.476
-10.1813
-9.85721
-9.50251
-9.11646
-8.69907
-8.2512
-7.77477
-7.27286
-6.74975
-6.21092
-5.6629
-5.11309
-4.56936
-4.0397
-3.53173
-3.05222
-2.60671
-2.19923
-1.83219
-1.50638
-1.2212
-0.97485
-0.764712
-0.587598
-0.440031
-0.318463
-0.219436
-0.139693
-0.0762492
-0.02643
0.0121174
0.0414285
0.06324
0.0790132
0.0899635
0.0970891
0.101202
0.102954
0.102865
0.101344
0.0987142
0.0952233
0.0910653
0.0863895
0.0813129
0.075926
0.0703049
0.0645076
0.0586004
0.0526108
0.0466446
0.0406296
0.0349026
0.0288978
0.0240651
0.0174301
0.0156907
0.00457113
0.0149576
-0.0192902
-11.3017
-11.3304
-11.3617
-11.3959
-11.4336
-11.4758
-11.5231
-11.5758
-11.6343
-11.6981
-11.7665
-11.8383
-11.9119
-11.9856
-12.0575
-12.1257
-12.1884
-12.244
-12.2911
-12.3286
-12.3556
-12.3714
-12.3756
-12.3679
-12.348
-12.3159
-12.2714
-12.2144
-12.1447
-12.0619
-11.9656
-11.8552
-11.7299
-11.5887
-11.4305
-11.2538
-11.0572
-10.8391
-10.5975
-10.331
-10.0379
-9.71667
-9.36642
-8.98659
-8.57731
-8.13951
-7.67512
-7.18707
-6.67944
-6.15737
-5.62694
-5.09501
-4.56887
-4.05592
-3.5632
-3.09703
-2.6626
-2.26378
-1.90294
-1.581
-1.29756
-1.05116
-0.839475
-0.659662
-0.508548
-0.382856
-0.279356
-0.194976
-0.126879
-0.0724976
-0.0295605
0.00391445
0.0296297
0.0490282
0.0633188
0.073502
0.080398
0.0846717
0.0868583
0.0873839
0.086587
0.0847341
0.0820354
0.0786558
0.0747275
0.0703544
0.0656254
0.0606093
0.0553843
0.0499828
0.0445272
0.0389355
0.0335851
0.0278497
0.0233184
0.016765
0.0153963
0.0039808
0.0152428
-0.0204276
-11.2978
-11.3257
-11.3561
-11.3892
-11.4257
-11.466
-11.5107
-11.5601
-11.6142
-11.6727
-11.735
-11.7999
-11.8662
-11.9323
-11.9965
-12.0572
-12.1128
-12.1617
-12.2026
-12.2346
-12.2566
-12.268
-12.2683
-12.2571
-12.2341
-12.1992
-12.152
-12.0925
-12.0203
-11.935
-11.8363
-11.7235
-11.5958
-11.4523
-11.292
-11.1135
-10.9154
-10.6963
-10.4546
-10.1888
-9.89753
-9.57954
-9.23402
-8.86059
-8.45951
-8.03177
-7.57926
-7.10483
-6.6123
-6.10651
-5.59311
-5.07846
-4.5693
-4.07247
-3.59451
-3.14128
-2.71767
-2.32736
-1.97269
-1.65468
-1.37314
-1.12687
-0.913854
-0.731553
-0.577088
-0.447444
-0.339613
-0.250708
-0.178039
-0.119151
-0.0718551
-0.0342271
-0.00460244
0.0184399
0.0360991
0.049375
0.059094
0.0659315
0.0704364
0.0730505
0.0741284
0.073953
0.0727508
0.0707023
0.0679543
0.0646244
0.0608146
0.0566041
0.0520836
0.0472904
0.0423634
0.0372118
0.0322514
0.0267999
0.0225752
0.0161203
0.0151058
0.00343782
0.0154796
-0.0214252
-11.2929
-11.3198
-11.3491
-11.381
-11.4159
-11.4541
-11.4961
-11.5421
-11.5919
-11.6454
-11.7018
-11.7603
-11.8197
-11.8786
-11.9356
-11.9892
-12.0378
-12.0803
-12.1153
-12.1417
-12.1588
-12.1658
-12.1621
-12.1473
-12.1211
-12.0832
-12.0333
-11.9712
-11.8964
-11.8088
-11.7077
-11.5925
-11.4626
-11.317
-11.1548
-10.9746
-10.7754
-10.5557
-10.3142
-10.0495
-9.7604
-9.4459
-9.10532
-8.73845
-8.34563
-7.92792
-7.48715
-7.02605
-6.54826
-6.05826
-5.56134
-5.06337
-4.5706
-4.08933
-3.62563
-3.18495
-2.77188
-2.38992
-2.04139
-1.72737
-1.44786
-1.20189
-0.98775
-0.803168
-0.645548
-0.512125
-0.400111
-0.306801
-0.22965
-0.166318
-0.114703
-0.0729399
-0.0394072
-0.0127088
0.00834154
0.0247404
0.0373176
0.0467573
0.0536205
0.0583629
0.0613547
0.0628943
0.0632241
0.0625397
0.0610027
0.0587441
0.0558793
0.0524978
0.0487028
0.0445373
0.0401559
0.0354604
0.0309028
0.025749
0.0218359
0.0154961
0.0148185
0.00294251
0.0156667
-0.0222798
-11.2868
-11.3126
-11.3407
-11.3712
-11.4043
-11.4404
-11.4796
-11.5221
-11.5678
-11.6163
-11.6672
-11.7196
-11.7725
-11.8246
-11.8747
-11.9215
-11.9636
-11.9998
-12.029
-12.05
-12.0622
-12.0647
-12.057
-12.0386
-12.0091
-11.9682
-11.9155
-11.8507
-11.7734
-11.6833
-11.5799
-11.4625
-11.3305
-11.183
-11.019
-10.8376
-10.6375
-10.4175
-10.1765
-9.91315
-9.62654
-9.31578
-8.98036
-8.62018
-8.23567
-7.82792
-7.39873
-6.95069
-6.48724
-6.01256
-5.53157
-5.0497
-4.57272
-4.10647
-3.65654
-3.22801
-2.8252
-2.45144
-2.10898
-1.799
-1.52164
-1.27615
-1.06107
-0.874403
-0.713822
-0.576798
-0.460753
-0.363163
-0.281627
-0.213923
-0.158034
-0.112163
-0.0747304
-0.0443702
-0.0199119
-0.000365146
0.0151011
0.0271776
0.0364354
0.0433431
0.0482852
0.0515752
0.0534704
0.0541815
0.0538845
0.0527239
0.0508281
0.0482978
0.0452482
0.0417285
0.0379088
0.0336844
0.0295413
0.0246984
0.0211009
0.0148927
0.0145341
0.00249459
0.0158035
-0.0229908
-11.2795
-11.3042
-11.331
-11.3599
-11.3911
-11.4248
-11.4612
-11.5002
-11.5419
-11.5857
-11.6313
-11.6779
-11.7246
-11.7704
-11.814
-11.8543
-11.8901
-11.9203
-11.9438
-11.9596
-11.9669
-11.965
-11.9532
-11.9311
-11.8983
-11.8542
-11.7986
-11.7312
-11.6514
-11.5589
-11.4532
-11.3337
-11.1997
-11.0505
-10.885
-10.7025
-10.5018
-10.2818
-10.0415
-9.77989
-9.49602
-9.18923
-8.85914
-8.50576
-8.1296
-7.73174
-7.31394
-6.87868
-6.42918
-5.96936
-5.50376
-5.03741
-4.57565
-4.12386
-3.68722
-3.27046
-2.87762
-2.51188
-2.17544
-1.86952
-1.5944
-1.34954
-1.1337
-0.945158
-0.781808
-0.641359
-0.521439
-0.419698
-0.333882
-0.261883
-0.201776
-0.151829
-0.110513
-0.0764915
-0.0486145
-0.0259002
-0.00751896
0.00722447
0.0189096
0.0280165
0.0349426
0.0400155
0.0435074
0.0456433
0.0466134
0.0465757
0.0456717
0.044013
0.0417273
0.0388702
0.0356268
0.0318874
0.0281696
0.0236499
0.0203714
0.0143104
0.0142527
0.00209371
0.0158911
-0.0235596
-11.2711
-11.2946
-11.3199
-11.3471
-11.3763
-11.4076
-11.4411
-11.4767
-11.5144
-11.5537
-11.5943
-11.6354
-11.6763
-11.716
-11.7534
-11.7876
-11.8174
-11.8417
-11.8597
-11.8703
-11.8729
-11.8665
-11.8507
-11.8249
-11.7887
-11.7415
-11.683
-11.6128
-11.5306
-11.4357
-11.3278
-11.2063
-11.0704
-10.9196
-10.7529
-10.5695
-10.3684
-10.1487
-9.90948
-9.6498
-9.36892
-9.06632
-8.74171
-8.39522
-8.02739
-7.63933
-7.23274
-6.80997
-6.37403
-5.92859
-5.47785
-5.02647
-4.57936
-4.14149
-3.71766
-3.31228
-2.92912
-2.57121
-2.24071
-1.93887
-1.66608
-1.42199
-1.20557
-1.01533
-0.849398
-0.705702
-0.582065
-0.476308
-0.386321
-0.310112
-0.245848
-0.191867
-0.146689
-0.109015
-0.0777144
-0.0518185
-0.0305013
-0.0130652
0.00107602
0.0124122
0.0213528
0.0282386
0.0333558
0.0369435
0.0392058
0.0403139
0.0404226
0.0396545
0.0381495
0.0359703
0.0333165
0.0300745
0.0267913
0.0226061
0.0196488
0.0137499
0.013975
0.00173909
0.0159315
-0.0239906
-11.2616
-11.2838
-11.3075
-11.3329
-11.36
-11.3888
-11.4194
-11.4517
-11.4855
-11.5205
-11.5563
-11.5922
-11.6275
-11.6614
-11.693
-11.7213
-11.7454
-11.7642
-11.7768
-11.7824
-11.7802
-11.7695
-11.7497
-11.7202
-11.6805
-11.6302
-11.5688
-11.4959
-11.4111
-11.3139
-11.2039
-11.0804
-10.9429
-10.7906
-10.6228
-10.4388
-10.2376
-10.0184
-9.78047
-9.52297
-9.24531
-8.94707
-8.62808
-8.28854
-7.92904
-7.55067
-7.15508
-6.7445
-6.32174
-5.89022
-5.45382
-5.01685
-4.58383
-4.15936
-3.74788
-3.35347
-2.9797
-2.62943
-2.30477
-2.007
-1.73661
-1.49341
-1.27658
-1.08482
-0.916489
-0.76972
-0.642525
-0.532891
-0.438847
-0.35852
-0.290167
-0.232199
-0.18319
-0.141876
-0.107154
-0.0780687
-0.0537998
-0.0336501
-0.0170285
-0.00343667
0.00754534
0.0162709
0.0230392
0.0281032
0.0316804
0.0339552
0.0350954
0.0352348
0.0345258
0.033038
0.0309855
0.028252
0.0254113
0.0215704
0.0189355
0.0132127
0.0137022
0.00143009
0.0159281
-0.0242903
-11.251
-11.2718
-11.294
-11.3175
-11.3424
-11.3687
-11.3964
-11.4254