/*--------------------------------*- C++ -*----------------------------------*\
  =========                 |
  \\      /  F ield         | OpenFOAM: The Open Source CFD Toolbox
   \\    /   O peration     | Website:  https://openfoam.org
    \\  /    A nd           | Version:  10
     \\/     M anipulation  |
\*---------------------------------------------------------------------------*/
FoamFile
{
    format      ascii;
    class       surfaceScalarField;
    location    "0.095";
    object      phi;
}
// * * * * * * * * * * * * * * * * * * * * * * * * * * * * * * * * * * * * * //

dimensions      [0 3 -1 0 0 0 0];

internalField   nonuniform List<scalar> 
13452
(
6.0577e-05
-3.08582e-07
6.03705e-05
2.06529e-07
5.98983e-05
4.72246e-07
5.92841e-05
6.14209e-07
5.8678e-05
6.06069e-07
5.81403e-05
5.37723e-07
5.76735e-05
4.66741e-07
5.72676e-05
4.05881e-07
5.69113e-05
3.56361e-07
5.65945e-05
3.16812e-07
5.63094e-05
2.85057e-07
5.60503e-05
2.59137e-07
5.58127e-05
2.37573e-07
5.55934e-05
2.19297e-07
5.53899e-05
2.03547e-07
5.52001e-05
1.89785e-07
5.50224e-05
1.77629e-07
5.48556e-05
1.66806e-07
5.46985e-05
1.5712e-07
5.45501e-05
1.48432e-07
5.44094e-05
1.40651e-07
5.42757e-05
1.33729e-07
5.4148e-05
1.27663e-07
5.40255e-05
1.22519e-07
5.39071e-05
1.18446e-07
5.37912e-05
1.15848e-07
5.3676e-05
1.15255e-07
5.35573e-05
1.18659e-07
5.34286e-05
1.28704e-07
5.3277e-05
1.51613e-07
5.30546e-05
2.2237e-07
5.27362e-05
3.1846e-07
5.83447e-07
5.21527e-05
6.18026e-05
-1.20856e-07
6.17624e-05
2.46746e-07
6.18791e-05
3.55587e-07
6.20402e-05
4.53014e-07
6.21465e-05
4.99814e-07
6.21753e-05
5.08927e-07
6.21412e-05
5.00877e-07
6.20649e-05
4.82179e-07
6.19628e-05
4.58401e-07
6.18462e-05
4.33386e-07
6.17223e-05
4.08959e-07
6.15956e-05
3.85875e-07
6.14688e-05
3.64405e-07
6.13435e-05
3.4458e-07
6.12207e-05
3.26321e-07
6.1101e-05
3.09508e-07
6.09846e-05
2.9402e-07
6.08717e-05
2.79745e-07
6.07622e-05
2.66589e-07
6.06562e-05
2.54479e-07
6.05534e-05
2.43371e-07
6.04539e-05
2.33247e-07
6.03574e-05
2.24131e-07
6.02639e-05
2.16106e-07
6.0173e-05
2.09337e-07
6.00847e-05
2.04141e-07
5.99988e-05
2.01102e-07
5.99164e-05
2.01092e-07
5.98383e-05
2.06792e-07
5.97723e-05
2.17626e-07
5.97431e-05
2.51577e-07
5.97861e-05
2.75464e-07
3.80848e-07
5.99887e-05
6.36612e-05
-2.06524e-08
6.37527e-05
1.55296e-07
6.38145e-05
2.93738e-07
6.3867e-05
4.00501e-07
6.39098e-05
4.57072e-07
6.3941e-05
4.77635e-07
6.39611e-05
4.80871e-07
6.39682e-05
4.75002e-07
6.3963e-05
4.63649e-07
6.3947e-05
4.4937e-07
6.39223e-05
4.33686e-07
6.38907e-05
4.17468e-07
6.38538e-05
4.01255e-07
6.3813e-05
3.85373e-07
6.37693e-05
3.70009e-07
6.37236e-05
3.55268e-07
6.36764e-05
3.41211e-07
6.36283e-05
3.27872e-07
6.35796e-05
3.15275e-07
6.35306e-05
3.03446e-07
6.34816e-05
2.92419e-07
6.34326e-05
2.82249e-07
6.33837e-05
2.73027e-07
6.33349e-05
2.64893e-07
6.32861e-05
2.58085e-07
6.32373e-05
2.52949e-07
6.31883e-05
2.50165e-07
6.3139e-05
2.5036e-07
6.30897e-05
2.56126e-07
6.30411e-05
2.66236e-07
6.29995e-05
2.93098e-07
6.29583e-05
3.16693e-07
3.85047e-07
6.29541e-05
6.55759e-05
-1.34836e-08
6.55535e-05
1.77677e-07
6.55642e-05
2.83093e-07
6.56047e-05
3.5992e-07
6.56535e-05
4.08288e-07
6.56983e-05
4.32882e-07
6.57354e-05
4.43758e-07
6.57645e-05
4.45853e-07
6.57863e-05
4.41923e-07
6.58014e-05
4.34282e-07
6.58106e-05
4.24428e-07
6.58148e-05
4.1325e-07
6.58148e-05
4.01335e-07
6.58111e-05
3.8908e-07
6.58043e-05
3.76753e-07
6.5795e-05
3.64543e-07
6.57837e-05
3.52587e-07
6.57705e-05
3.40991e-07
6.5756e-05
3.29843e-07
6.57402e-05
3.19227e-07
6.57234e-05
3.09229e-07
6.57057e-05
2.99954e-07
6.56872e-05
2.91536e-07
6.56679e-05
2.8416e-07
6.56479e-05
2.78095e-07
6.56271e-05
2.73698e-07
6.56057e-05
2.71598e-07
6.55837e-05
2.72336e-07
6.55622e-05
2.77668e-07
6.55415e-05
2.86914e-07
6.55289e-05
3.05755e-07
6.55222e-05
3.23356e-07
3.54274e-07
6.5553e-05
6.74265e-05
1.68198e-08
6.74514e-05
1.52801e-07
6.74796e-05
2.54876e-07
6.75104e-05
3.29119e-07
6.75409e-05
3.77728e-07
6.75705e-05
4.03332e-07
6.75989e-05
4.15322e-07
6.76255e-05
4.19241e-07
6.76497e-05
4.17799e-07
6.7671e-05
4.12936e-07
6.76895e-05
4.059e-07
6.77053e-05
3.97442e-07
6.77186e-05
3.88071e-07
6.77295e-05
3.78149e-07
6.77384e-05
3.67932e-07
6.77453e-05
3.57613e-07
6.77505e-05
3.47345e-07
6.77543e-05
3.37251e-07
6.77567e-05
3.27443e-07
6.77579e-05
3.18027e-07
6.7758e-05
3.09116e-07
6.77571e-05
3.00836e-07
6.77553e-05
2.93345e-07
6.77526e-05
2.86841e-07
6.77491e-05
2.81596e-07
6.77449e-05
2.77943e-07
6.774e-05
2.76409e-07
6.7735e-05
2.7742e-07
6.77306e-05
2.82082e-07
6.77275e-05
2.89938e-07
6.77298e-05
3.03468e-07
6.77364e-05
3.16789e-07
3.34562e-07
6.77561e-05
6.93768e-05
2.40443e-08
6.93864e-05
1.43235e-07
6.94046e-05
2.36614e-07
6.94307e-05
3.03062e-07
6.94603e-05
3.48092e-07
6.94897e-05
3.73933e-07
6.95177e-05
3.87387e-07
6.95438e-05
3.93064e-07
6.95682e-05
3.9342e-07
6.95909e-05
3.90275e-07
6.96119e-05
3.84869e-07
6.96314e-05
3.77969e-07
6.96494e-05
3.70083e-07
6.96659e-05
3.61567e-07
6.96812e-05
3.52674e-07
6.96952e-05
3.43596e-07
6.97081e-05
3.34485e-07
6.97199e-05
3.25468e-07
6.97306e-05
3.16663e-07
6.97405e-05
3.08182e-07
6.97495e-05
3.00147e-07
6.97576e-05
2.92691e-07
6.9765e-05
2.85975e-07
6.97716e-05
2.80192e-07
6.97776e-05
2.75592e-07
6.97831e-05
2.72462e-07
6.97883e-05
2.71204e-07
6.97936e-05
2.72126e-07
6.97998e-05
2.7584e-07
6.98078e-05
2.81992e-07
6.98199e-05
2.91379e-07
6.9836e-05
3.00672e-07
3.10476e-07
6.98601e-05
7.13593e-05
3.10816e-08
7.13709e-05
1.31623e-07
7.13919e-05
2.15617e-07
7.14177e-05
2.77235e-07
7.14452e-05
3.20593e-07
7.14721e-05
3.47072e-07
7.14978e-05
3.61663e-07
7.15224e-05
3.68496e-07
7.15458e-05
3.70001e-07
7.15681e-05
3.67941e-07
7.15895e-05
3.63543e-07
7.16098e-05
3.57585e-07
7.16293e-05
3.50588e-07
7.1648e-05
3.42916e-07
7.16658e-05
3.34829e-07
7.16829e-05
3.26522e-07
7.16993e-05
3.18148e-07
7.17149e-05
3.09838e-07
7.17298e-05
3.01709e-07
7.17441e-05
2.93877e-07
7.17578e-05
2.8646e-07
7.17709e-05
2.7959e-07
7.17835e-05
2.73421e-07
7.17955e-05
2.68127e-07
7.18072e-05
2.63923e-07
7.18186e-05
2.61039e-07
7.18301e-05
2.59761e-07
7.18419e-05
2.60283e-07
7.18549e-05
2.62892e-07
7.18696e-05
2.67275e-07
7.18875e-05
2.73475e-07
7.19086e-05
2.79531e-07
2.84909e-07
7.19342e-05
7.34033e-05
3.30513e-08
7.34139e-05
1.20979e-07
7.34326e-05
1.97013e-07
7.34558e-05
2.53964e-07
7.34815e-05
2.94877e-07
7.35075e-05
3.2111e-07
7.35328e-05
3.36395e-07
7.35571e-05
3.44205e-07
7.35803e-05
3.4675e-07
7.36026e-05
3.45653e-07
7.3624e-05
3.42096e-07
7.36448e-05
3.36873e-07
7.36648e-05
3.30525e-07
7.36843e-05
3.23437e-07
7.37032e-05
3.15888e-07
7.37217e-05
3.08083e-07
7.37396e-05
3.00185e-07
7.37572e-05
2.92329e-07
7.37742e-05
2.84635e-07
7.37909e-05
2.77219e-07
7.38071e-05
2.70196e-07
7.3823e-05
2.63692e-07
7.38386e-05
2.57845e-07
7.38539e-05
2.52807e-07
7.38691e-05
2.48752e-07
7.38843e-05
2.45853e-07
7.38998e-05
2.44296e-07
7.39159e-05
2.44181e-07
7.39332e-05
2.45598e-07
7.39522e-05
2.48257e-07
7.39737e-05
2.51908e-07
7.39979e-05
2.55348e-07
2.57876e-07
7.4025e-05
7.55022e-05
3.32738e-08
7.55122e-05
1.11001e-07
7.55298e-05
1.79424e-07
7.55519e-05
2.31872e-07
7.55764e-05
2.7035e-07
7.56015e-05
2.96067e-07
7.56261e-05
3.11765e-07
7.565e-05
3.20304e-07
7.56731e-05
3.23679e-07
7.56953e-05
3.23383e-07
7.57169e-05
3.20541e-07
7.57378e-05
3.15938e-07
7.57582e-05
3.10125e-07
7.57782e-05
3.03503e-07
7.57977e-05
2.96362e-07
7.58169e-05
2.88921e-07
7.58357e-05
2.81354e-07
7.58542e-05
2.738e-07
7.58725e-05
2.66385e-07
7.58905e-05
2.59224e-07
7.59082e-05
2.52428e-07
7.59258e-05
2.46113e-07
7.59433e-05
2.40403e-07
7.59606e-05
2.35423e-07
7.59781e-05
2.31307e-07
7.59958e-05
2.28177e-07
7.60139e-05
2.26142e-07
7.60329e-05
2.25233e-07
7.6053e-05
2.25426e-07
7.60748e-05
2.26458e-07
7.60987e-05
2.28005e-07
7.61248e-05
2.29301e-07
2.2977e-07
7.61529e-05
7.76607e-05
3.2146e-08
7.76703e-05
1.01454e-07
7.76867e-05
1.63022e-07
7.77073e-05
2.11232e-07
7.77304e-05
2.47207e-07
7.77545e-05
2.72014e-07
7.77785e-05
2.87727e-07
7.78021e-05
2.96691e-07
7.78251e-05
3.00675e-07
7.78475e-05
3.01029e-07
7.78692e-05
2.98798e-07
7.78904e-05
2.94738e-07
7.79112e-05
2.89396e-07
7.79315e-05
2.83177e-07
7.79515e-05
2.7638e-07
7.79712e-05
2.69235e-07
7.79906e-05
2.61921e-07
7.80098e-05
2.54585e-07
7.80288e-05
2.47354e-07
7.80477e-05
2.40341e-07
7.80665e-05
2.33656e-07
7.80852e-05
2.27403e-07
7.81039e-05
2.21687e-07
7.81227e-05
2.16612e-07
7.81418e-05
2.12275e-07
7.81612e-05
2.08756e-07
7.81812e-05
2.06105e-07
7.82021e-05
2.04309e-07
7.82243e-05
2.03286e-07
7.82479e-05
2.02803e-07
7.82734e-05
2.02556e-07
7.83007e-05
2.02041e-07
2.00843e-07
7.83296e-05
7.98802e-05
3.02884e-08
7.98892e-05
9.23863e-08
7.99045e-05
1.47718e-07
7.99239e-05
1.91831e-07
7.99459e-05
2.25244e-07
7.99691e-05
2.48869e-07
7.99925e-05
2.64298e-07
8.00157e-05
2.73431e-07
8.00386e-05
2.77811e-07
8.0061e-05
2.78649e-07
8.00829e-05
2.76904e-07
8.01043e-05
2.73295e-07
8.01254e-05
2.68355e-07
8.01461e-05
2.62482e-07
8.01665e-05
2.55981e-07
8.01866e-05
2.49083e-07
8.02066e-05
2.41972e-07
8.02263e-05
2.34799e-07
8.0246e-05
2.27689e-07
8.02656e-05
2.20755e-07
8.02852e-05
2.14098e-07
8.03047e-05
2.07814e-07
8.03244e-05
2.0199e-07
8.03443e-05
1.96708e-07
8.03646e-05
1.92036e-07
8.03853e-05
1.88019e-07
8.04068e-05
1.84669e-07
8.04291e-05
1.81944e-07
8.04527e-05
1.7974e-07
8.04776e-05
1.77858e-07
8.05041e-05
1.7604e-07
8.05322e-05
1.73945e-07
1.71293e-07
8.05618e-05
8.21627e-05
2.80363e-08
8.21713e-05
8.37427e-08
8.21857e-05
1.3339e-07
8.22039e-05
1.73564e-07
8.22248e-05
2.04398e-07
8.2247e-05
2.26634e-07
8.22698e-05
2.41512e-07
8.22927e-05
2.50567e-07
8.23153e-05
2.55133e-07
8.23377e-05
2.56286e-07
8.23597e-05
2.54899e-07
8.23814e-05
2.51643e-07
8.24027e-05
2.47028e-07
8.24237e-05
2.41443e-07
8.24445e-05
2.35188e-07
8.24651e-05
2.28493e-07
8.24855e-05
2.21544e-07
8.25059e-05
2.14488e-07
8.25261e-05
2.07452e-07
8.25463e-05
2.00542e-07
8.25666e-05
1.93852e-07
8.25869e-05
1.87467e-07
8.26074e-05
1.81459e-07
8.26282e-05
1.75891e-07
8.26495e-05
1.70806e-07
8.26713e-05
1.66224e-07
8.26938e-05
1.62133e-07
8.27173e-05
1.58475e-07
8.27419e-05
1.55144e-07
8.27678e-05
1.5197e-07
8.2795e-05
1.48749e-07
8.28238e-05
1.45243e-07
1.41263e-07
8.28538e-05
8.45102e-05
2.5606e-08
8.45184e-05
7.55114e-08
8.45319e-05
1.19943e-07
8.45491e-05
1.56324e-07
8.4569e-05
1.84566e-07
8.45903e-05
2.05251e-07
8.46125e-05
2.19355e-07
8.46349e-05
2.28119e-07
8.46574e-05
2.3268e-07
8.46797e-05
2.3399e-07
8.47018e-05
2.32832e-07
8.47236e-05
2.29828e-07
8.47451e-05
2.25459e-07
8.47665e-05
2.20098e-07
8.47876e-05
2.14035e-07
8.48086e-05
2.07497e-07
8.48295e-05
2.00666e-07
8.48503e-05
1.93687e-07
8.48711e-05
1.8668e-07
8.48919e-05
1.79747e-07
8.49128e-05
1.72975e-07
8.49338e-05
1.66435e-07
8.49551e-05
1.60187e-07
8.49767e-05
1.54277e-07
8.49988e-05
1.48729e-07
8.50214e-05
1.43546e-07
8.50449e-05
1.38701e-07
8.50692e-05
1.34129e-07
8.50946e-05
1.29731e-07
8.51212e-05
1.25368e-07
8.51491e-05
1.20877e-07
8.51783e-05
1.16088e-07
1.10875e-07
8.52086e-05
8.69246e-05
2.31255e-08
8.69325e-05
6.76724e-08
8.69451e-05
1.0728e-07
8.69615e-05
1.40008e-07
8.69804e-05
1.65657e-07
8.7001e-05
1.84669e-07
8.70225e-05
1.97816e-07
8.70445e-05
2.06098e-07
8.70667e-05
2.10481e-07
8.70889e-05
2.11796e-07
8.7111e-05
2.10744e-07
8.71329e-05
2.07891e-07
8.71547e-05
2.03686e-07
8.71763e-05
1.98482e-07
8.71978e-05
1.92556e-07
8.72192e-05
1.86128e-07
8.72405e-05
1.79372e-07
8.72617e-05
1.72428e-07
8.7283e-05
1.65411e-07
8.73043e-05
1.58415e-07
8.73258e-05
1.51517e-07
8.73474e-05
1.4478e-07
8.73694e-05
1.38251e-07
8.73917e-05
1.3196e-07
8.74145e-05
1.2592e-07
8.74379e-05
1.20122e-07
8.74621e-05
1.14529e-07
8.74871e-05
1.09079e-07
8.75132e-05
1.03681e-07
8.75403e-05
9.82218e-08
8.75686e-05
9.2574e-08
8.75981e-05
8.66112e-08
8.02469e-08
8.76288e-05
8.9408e-05
2.06685e-08
8.94155e-05
6.0206e-08
8.94274e-05
9.53141e-08
8.94429e-05
1.24521e-07
8.9461e-05
1.47585e-07
8.94808e-05
1.64829e-07
8.95018e-05
1.76865e-07
8.95234e-05
1.84501e-07
8.95453e-05
1.88548e-07
8.95674e-05
1.8973e-07
8.95895e-05
1.88665e-07
8.96115e-05
1.85866e-07
8.96334e-05
1.81745e-07
8.96553e-05
1.76632e-07
8.9677e-05
1.70788e-07
8.96987e-05
1.64421e-07
8.97204e-05
1.57697e-07
8.97421e-05
1.50749e-07
8.97638e-05
1.43685e-07
8.97856e-05
1.3659e-07
8.98076e-05
1.29532e-07
8.98298e-05
1.22565e-07
8.98524e-05
1.15725e-07
8.98753e-05
1.09032e-07
8.98987e-05
1.02488e-07
8.99228e-05
9.60762e-08
8.99475e-05
8.97584e-08
8.99732e-05
8.3475e-08
8.99997e-05
7.7147e-08
9.00272e-05
7.06812e-08
9.00558e-05
6.39775e-08
9.00855e-05
5.69393e-08
4.95069e-08
9.01162e-05
9.19623e-05
1.82741e-08
9.19694e-05
5.30892e-08
9.19807e-05
8.39681e-08
9.19955e-05
1.09777e-07
9.20128e-05
1.30269e-07
9.20319e-05
1.45672e-07
9.20523e-05
1.56471e-07
9.20735e-05
1.63316e-07
9.20952e-05
1.66888e-07
9.21171e-05
1.67808e-07
9.21391e-05
1.66619e-07
9.21612e-05
1.6378e-07
9.21833e-05
1.59665e-07
9.22054e-05
1.54577e-07
9.22274e-05
1.48761e-07
9.22494e-05
1.42409e-07
9.22714e-05
1.35678e-07
9.22935e-05
1.28691e-07
9.23156e-05
1.21547e-07
9.23379e-05
1.14323e-07
9.23603e-05
1.0708e-07
9.2383e-05
9.98598e-08
9.24061e-05
9.26915e-08
9.24295e-05
8.55865e-08
9.24535e-05
7.85405e-08
9.2478e-05
7.15323e-08
9.25032e-05
6.45236e-08
9.25293e-05
5.74601e-08
9.25561e-05
5.02741e-08
9.25839e-05
4.28891e-08
9.26127e-05
3.52258e-08
9.26424e-05
2.72086e-08
1.87963e-08
9.26731e-05
9.45895e-05
1.59608e-08
9.45963e-05
4.62968e-08
9.46071e-05
7.31724e-08
9.46211e-05
9.56966e-08
9.46378e-05
1.13634e-07
9.46563e-05
1.27141e-07
9.46762e-05
1.36596e-07
9.4697e-05
1.42527e-07
9.47184e-05
1.45498e-07
9.47401e-05
1.46039e-07
9.47621e-05
1.44623e-07
9.47842e-05
1.41655e-07
9.48064e-05
1.37472e-07
9.48287e-05
1.32349e-07
9.48509e-05
1.26508e-07
9.48732e-05
1.20129e-07
9.48955e-05
1.13353e-07
9.49179e-05
1.06296e-07
9.49404e-05
9.90449e-08
9.49631e-05
9.167e-08
9.49859e-05
8.42223e-08
9.50091e-05
7.67373e-08
9.50325e-05
6.92353e-08
9.50564e-05
6.17221e-08
9.50807e-05
5.41889e-08
9.51056e-05
4.66129e-08
9.51312e-05
3.89575e-08
9.51575e-05
3.11745e-08
9.51846e-05
2.32064e-08
9.52125e-05
1.49906e-08
9.52412e-05
6.46397e-09
9.52709e-05
-2.43404e-09
-1.17303e-08
9.53014e-05
9.72917e-05
1.37343e-08
9.72982e-05
3.9802e-08
9.73085e-05
6.28644e-08
9.7322e-05
8.22052e-08
9.73381e-05
9.76087e-08
9.7356e-05
1.09176e-07
9.73754e-05
1.17203e-07
9.73958e-05
1.22112e-07
9.7417e-05
1.24371e-07
9.74386e-05
1.24428e-07
9.74605e-05
1.2269e-07
9.74827e-05
1.19511e-07
9.75049e-05
1.15191e-07
9.75273e-05
1.09974e-07
9.75498e-05
1.04061e-07
9.75723e-05
9.76141e-08
9.75949e-05
9.07626e-08
9.76175e-05
8.36084e-08
9.76404e-05
7.62308e-08
9.76633e-05
6.86899e-08
9.76865e-05
6.1029e-08
9.771e-05
5.32765e-08
9.77338e-05
4.54466e-08
9.7758e-05
3.75404e-08
9.77826e-05
2.95468e-08
9.78078e-05
2.14424e-08
9.78335e-05
1.3194e-08
9.786e-05
4.7592e-09
9.78871e-05
-3.91015e-09
9.79149e-05
-1.28652e-08
9.79436e-05
-2.21565e-08
9.7973e-05
-3.18325e-08
-4.19086e-08
9.80031e-05
0.000100071
1.15934e-08
0.000100077
3.35772e-08
0.000100087
5.29875e-08
0.0001001
6.92357e-08
0.000100116
8.21271e-08
0.000100133
9.17218e-08
0.000100152
9.82481e-08
0.000100172
1.02045e-07
0.000100193
1.03494e-07
0.000100215
1.02972e-07
0.000100236
1.00827e-07
0.000100259
9.73631e-08
0.000100281
9.2841e-08
0.000100303
8.74774e-08
0.000100326
8.14499e-08
0.000100349
7.49018e-08
0.000100372
6.79477e-08
0.000100395
6.06774e-08
0.000100418
5.316e-08
0.000100441
4.54466e-08
0.000100464
3.75729e-08
0.000100488
2.95608e-08
0.000100512
2.14196e-08
0.000100536
1.31471e-08
0.000100561
4.73059e-09
0.000100587
-3.85215e-09
0.000100612
-1.26312e-08
0.000100639
-2.16428e-08
0.000100666
-3.09271e-08
0.000100693
-4.05255e-08
0.000100722
-5.04782e-08
0.000100751
-6.08238e-08
-7.15678e-08
0.00010078
0.00010293
9.5328e-09
0.000102936
2.7595e-08
0.000102946
4.34903e-08
0.000102958
5.6726e-08
0.000102973
6.71271e-08
0.00010299
7.47239e-08
0.000103009
7.96903e-08
0.000103028
8.22957e-08
0.000103049
8.28507e-08
0.00010307
8.16677e-08
0.000103092
7.90382e-08
0.000103114
7.52218e-08
0.000103137
7.04417e-08
0.000103159
6.48851e-08
0.000103182
5.87059e-08
0.000103205
5.20285e-08
0.000103228
4.49519e-08
0.000103251
3.75533e-08
0.000103274
2.9891e-08
0.000103298
2.20074e-08
0.000103321
1.39309e-08
0.000103345
5.67755e-09
0.000103369
-2.74757e-09
0.000103394
-1.13491e-08
0.000103419
-2.01405e-08
0.000103444
-2.91422e-08
0.00010347
-3.83809e-08
0.000103496
-4.78871e-08
0.000103523
-5.7694e-08
0.00010355
-6.78345e-08
0.000103578
-7.834e-08
0.000103606
-8.9241e-08
-1.00534e-07
0.000103635
0.000105871
7.54557e-09
0.000105876
2.18283e-08
0.000105886
3.43256e-08
0.000105898
4.46184e-08
0.000105912
5.25493e-08
0.000105929
5.8128e-08
0.000105947
6.14848e-08
0.000105967
6.2832e-08
0.000105987
6.24195e-08
0.000106008
6.05026e-08
0.00010603
5.73223e-08
0.000106052
5.3095e-08
0.000106074
4.8008e-08
0.000106097
4.22193e-08
0.00010612
3.58588e-08
0.000106143
2.90313e-08
0.000106166
2.182e-08
0.000106189
1.42889e-08
0.000106213
6.48536e-09
0.000106236
-1.55681e-09
0.00010626
-9.81645e-09
0.000106284
-1.82827e-08
0.000106308
-2.6954e-08
0.000106333
-3.58372e-08
0.000106358
-4.49453e-08
0.000106383
-5.42975e-08
0.000106408
-6.39165e-08
0.000106434
-7.38281e-08
0.000106461
-8.40589e-08
0.000106487
-9.46346e-08
0.000106515
-1.05579e-07
0.000106542
-1.16916e-07
-1.28633e-07
0.00010657
0.000108895
5.62391e-09
0.000108901
1.62516e-08
0.00010891
2.54507e-08
0.000108922
3.28599e-08
0.000108936
3.83382e-08
0.000108952
4.18816e-08
0.00010897
4.35866e-08
0.000108989
4.36184e-08
0.000109009
4.21751e-08
0.00010903
3.94617e-08
0.000109052
3.56733e-08
0.000109074
3.09855e-08
0.000109097
2.55513e-08
0.000109119
1.94994e-08
0.000109142
1.29359e-08
0.000109165
5.94592e-09
0.000109189
-1.40411e-09
0.000109212
-9.0632e-09
0.000109235
-1.6995e-08
0.000109259
-2.51746e-08
0.000109283
-3.35876e-08
0.000109307
-4.2228e-08
0.000109331
-5.10977e-08
0.000109355
-6.02047e-08
0.00010938
-6.95623e-08
0.000109405
-7.91875e-08
0.00010943
-8.90999e-08
0.000109455
-9.93205e-08
0.000109481
-1.0987e-07
0.000109507
-1.20769e-07
0.000109534
-1.32034e-07
0.000109561
-1.43682e-07
-1.55694e-07
0.000109588
0.000112006
3.75978e-09
0.000112012
1.084e-08
0.00011202
1.68246e-08
0.000112032
2.13984e-08
0.000112046
2.44369e-08
0.000112062
2.59289e-08
0.000112079
2.59453e-08
0.000112098
2.46129e-08
0.000112118
2.20857e-08
0.000112139
1.85242e-08
0.000112161
1.40809e-08
0.000112183
8.89295e-09
0.000112206
3.08065e-09
0.000112228
-3.25606e-09
0.000112251
-1.00353e-08
0.000112274
-1.71915e-08
0.000112298
-2.46748e-08
0.000112321
-3.24482e-08
0.000112345
-4.04861e-08
0.000112368
-4.87722e-08
0.000112392
-5.72988e-08
0.000112416
-6.60649e-08
0.00011244
-7.50753e-08
0.000112464
-8.43394e-08
0.000112488
-9.387e-08
0.000112513
-1.03683e-07
0.000112537
-1.13794e-07
0.000112562
-1.2422e-07
0.000112587
-1.34979e-07
0.000112613
-1.46083e-07
0.000112638
-1.57544e-07
0.000112664
-1.69374e-07
-1.81549e-07
0.00011269
0.000115206
1.94699e-09
0.000115212
5.57415e-09
0.00011522
8.41551e-09
0.000115231
1.01923e-08
0.000115245
1.07981e-08
0.000115261
1.02209e-08
0.000115278
8.51351e-09
0.000115297
5.77255e-09
0.000115317
2.1135e-09
0.000115338
-2.34116e-09
0.000115359
-7.47712e-09
0.000115381
-1.31954e-08
0.000115404
-1.94073e-08
0.000115427
-2.60408e-08
0.00011545
-3.3038e-08
0.000115473
-4.03537e-08
0.000115496
-4.79549e-08
0.000115519
-5.58182e-08
0.000115543
-6.3929e-08
0.000115566
-7.22802e-08
0.00011559
-8.08703e-08
0.000115614
-8.97032e-08
0.000115637
-9.87866e-08
0.000115661
-1.08131e-07
0.000115685
-1.1775e-07
0.000115709
-1.27656e-07
0.000115733
-1.37864e-07
0.000115757
-1.48388e-07
0.000115781
-1.59239e-07
0.000115806
-1.70426e-07
0.00011583
-1.81957e-07
0.000115855
-1.93838e-07
-2.0604e-07
0.000115879
0.000118498
1.748e-10
0.000118503
4.25781e-10
0.000118511
1.78625e-10
0.000118522
-8.17877e-10
0.000118535
-2.64605e-09
0.000118551
-5.31118e-09
0.000118568
-8.77211e-09
0.000118587
-1.29566e-08
0.000118607
-1.77807e-08
0.000118628
-2.31597e-08
0.000118649
-2.90163e-08
0.000118671
-3.52839e-08
0.000118694
-4.1906e-08
0.000118717
-4.88381e-08
0.00011874
-5.60461e-08
0.000118763
-6.35053e-08
0.000118786
-7.11994e-08
0.000118809
-7.91191e-08
0.000118833
-8.72608e-08
0.000118856
-9.56262e-08
0.000118879
-1.04221e-07
0.000118903
-1.13052e-07
0.000118926
-1.22133e-07
0.000118949
-1.31473e-07
0.000118973
-1.41086e-07
0.000118996
-1.50986e-07
0.000119019
-1.61183e-07
0.000119043
-1.71689e-07
0.000119066
-1.82511e-07
0.000119089
-1.93656e-07
0.000119112
-2.05125e-07
0.000119135
-2.16921e-07
-2.29012e-07
0.000119158
0.000121883
-1.54658e-09
0.000121888
-4.5902e-09
0.000121896
-7.87943e-09
0.000121907
-1.16362e-08
0.00012192
-1.5917e-08
0.000121936
-2.07089e-08
0.000121953
-2.59701e-08
0.000121971
-3.1644e-08
0.000121991
-3.76734e-08
0.000122012
-4.40071e-08
0.000122034
-5.06028e-08
0.000122056
-5.74276e-08
0.000122078
-6.44573e-08
0.000122101
-7.16753e-08
0.000122124
-7.90722e-08
0.000122147
-8.66439e-08
0.000122171
-9.43915e-08
0.000122194
-1.0232e-07
0.000122217
-1.10437e-07
0.00012224
-1.18753e-07
0.000122263
-1.2728e-07
0.000122286
-1.36032e-07
0.000122309
-1.45022e-07
0.000122332
-1.54264e-07
0.000122355
-1.63771e-07
0.000122377
-1.73555e-07
0.0001224
-1.83627e-07
0.000122422
-1.93994e-07
0.000122444
-2.04663e-07
0.000122466
-2.15635e-07
0.000122488
-2.2691e-07
0.000122509
-2.38487e-07
-2.50331e-07
0.000122531
0.000125365
-3.26874e-09
0.00012537
-9.56471e-09
0.000125378
-1.58737e-08
0.000125389
-2.23884e-08
0.000125402
-2.91289e-08
0.000125417
-3.60596e-08
0.000125435
-4.31371e-08
0.000125453
-5.03188e-08
0.000125473
-5.75713e-08
0.000125494
-6.48737e-08
0.000125516
-7.22166e-08
0.000125538
-7.95997e-08
0.00012556
-8.70293e-08
0.000125583
-9.45167e-08
0.000125606
-1.02077e-07
0.000125629
-1.09726e-07
0.000125652
-1.17483e-07
0.000125675
-1.25367e-07
0.000125698
-1.33398e-07
0.000125721
-1.41595e-07
0.000125744
-1.49978e-07
0.000125767
-1.58564e-07
0.000125789
-1.6737e-07
0.000125811
-1.76413e-07
0.000125833
-1.85707e-07
0.000125855
-1.95262e-07
0.000125876
-2.05089e-07
0.000125897
-2.15194e-07
0.000125918
-2.2558e-07
0.000125939
-2.36247e-07
0.000125959
-2.47191e-07
0.000125979
-2.5841e-07
-2.69866e-07
0.000125999
0.000128947
-4.83099e-09
0.000128951
-1.42636e-08
0.000128959
-2.35732e-08
0.00012897
-3.29284e-08
0.000128983
-4.22585e-08
0.000128998
-5.14578e-08
0.000129015
-6.0455e-08
0.000129034
-6.92126e-08
0.000129054
-7.77231e-08
0.000129076
-8.60016e-08
0.000129097
-9.40777e-08
0.00012912
-1.01989e-07
0.000129143
-1.09776e-07
0.000129166
-1.1748e-07
0.000129189
-1.25144e-07
0.000129212
-1.32804e-07
0.000129235
-1.40499e-07
0.000129258
-1.48262e-07
0.00012928
-1.56123e-07
0.000129303
-1.64113e-07
0.000129325
-1.72256e-07
0.000129347
-1.80576e-07
0.000129369
-1.89094e-07
0.00012939
-1.97828e-07
0.000129411
-2.06792e-07
0.000129432
-2.15998e-07
0.000129452
-2.25455e-07
0.000129472
-2.35168e-07
0.000129492
-2.4514e-07
0.000129511
-2.55368e-07
0.00012953
-2.65848e-07
0.000129548
-2.76574e-07
-2.87508e-07
0.000129566
0.000132631
-6.71829e-09
0.000132636
-1.92671e-08
0.000132644
-3.14978e-08
0.000132655
-4.35788e-08
0.000132668
-5.54001e-08
0.000132683
-6.68105e-08
0.0001327
-7.77118e-08
0.000132719
-8.80581e-08
0.000132739
-9.78519e-08
0.00013276
-1.07132e-07
0.000132782
-1.15961e-07
0.000132805
-1.24407e-07
0.000132827
-1.32546e-07
0.00013285
-1.4045e-07
0.000132873
-1.48185e-07
0.000132896
-1.55813e-07
0.000132919
-1.63389e-07
0.000132942
-1.70963e-07
0.000132965
-1.78579e-07
0.000132987
-1.86276e-07
0.000133009
-1.94086e-07
0.00013303
-2.02039e-07
0.000133051
-2.1016e-07
0.000133072
-2.18469e-07
0.000133092
-2.26983e-07
0.000133112
-2.35715e-07
0.000133131
-2.44673e-07
0.00013315
-2.53862e-07
0.000133168
-2.63283e-07
0.000133185
-2.72935e-07
0.000133202
-2.82809e-07
0.000133219
-2.929e-07
-3.03171e-07
0.000133234
0.000136419
-7.48237e-09
0.000136423
-2.30343e-08
0.00013643
-3.85537e-08
0.00013644
-5.40044e-08
0.000136454
-6.8895e-08
0.00013647
-8.29008e-08
0.000136488
-9.58991e-08
0.000136508
-1.07884e-07
0.000136529
-1.18919e-07
0.000136551
-1.29105e-07
0.000136574
-1.38561e-07
0.000136597
-1.47408e-07
0.00013662
-1.55761e-07
0.000136643
-1.63727e-07
0.000136666
-1.71402e-07
0.000136689
-1.78871e-07
0.000136712
-1.86206e-07
0.000136735
-1.93473e-07
0.000136757
-2.00725e-07
0.000136779
-2.08011e-07
0.0001368
-2.1537e-07
0.000136821
-2.22837e-07
0.000136841
-2.30439e-07
0.000136861
-2.38201e-07
0.00013688
-2.46139e-07
0.000136898
-2.54268e-07
0.000136916
-2.62596e-07
0.000136934
-2.71129e-07
0.00013695
-2.79867e-07
0.000136966
-2.88808e-07
0.000136981
-2.97946e-07
0.000136995
-3.07272e-07
-3.16753e-07
0.000137009
0.000140319
-1.08177e-08
0.000140325
-2.86907e-08
0.000140333
-4.64081e-08
0.000140343
-6.41837e-08
0.000140355
-8.15673e-08
0.000140371
-9.80072e-08
0.000140388
-1.13185e-07
0.000140407
-1.26997e-07
0.000140428
-1.39484e-07
0.000140449
-1.50769e-07
0.000140472
-1.61008e-07
0.000140495
-1.70367e-07
0.000140518
-1.79004e-07
0.000140541
-1.87064e-07
0.000140564
-1.94678e-07
0.000140588
-2.01957e-07
0.00014061
-2.08999e-07
0.000140633
-2.15886e-07
0.000140655
-2.22687e-07
0.000140676
-2.29461e-07
0.000140697
-2.36259e-07
0.000140717
-2.4312e-07
0.000140737
-2.50078e-07
0.000140756
-2.57161e-07
0.000140774
-2.64387e-07
0.000140792
-2.71774e-07
0.000140808
-2.79331e-07
0.000140824
-2.87064e-07
0.000140839
-2.94974e-07
0.000140854
-3.0306e-07
0.000140867
-3.11314e-07
0.00014088
-3.1973e-07
-3.28274e-07
0.000140891
0.000144322
-7.84173e-09
0.000144322
-2.94467e-08
0.000144328
-5.2457e-08
0.00014434
-7.557e-08
0.000144355
-9.71617e-08
0.000144374
-1.16627e-07
0.000144395
-1.33922e-07
0.000144417
-1.49184e-07
0.00014444
-1.62627e-07
0.000144464
-1.74495e-07
0.000144488
-1.85034e-07
0.000144512
-1.94475e-07
0.000144536
-2.03026e-07
0.00014456
-2.10868e-07
0.000144583
-2.18156e-07
0.000144606
-2.25022e-07
0.000144629
-2.31577e-07
0.000144651
-2.37915e-07
0.000144672
-2.44113e-07
0.000144693
-2.50238e-07
0.000144713
-2.56343e-07
0.000144733
-2.62473e-07
0.000144751
-2.68665e-07
0.000144769
-2.74946e-07
0.000144786
-2.8134e-07
0.000144802
-2.87863e-07
0.000144817
-2.94527e-07
0.000144831
-3.01339e-07
0.000144845
-3.08299e-07
0.000144857
-3.15408e-07
0.000144868
-3.2266e-07
0.000144879
-3.30049e-07
-3.37543e-07
0.000144888
0.000148457
-1.66567e-08
0.000148463
-3.61231e-08
0.000148469
-5.7838e-08
0.000148476
-8.23072e-08
0.000148486
-1.07111e-07
0.000148499
-1.30262e-07
0.000148516
-1.50826e-07
0.000148536
-1.68693e-07
0.000148557
-1.84094e-07
0.00014858
-1.97346e-07
0.000148604
-2.08784e-07
0.000148628
-2.18729e-07
0.000148652
-2.27468e-07
0.000148677
-2.35245e-07
0.000148701
-2.4227e-07
0.000148725
-2.48716e-07
0.000148748
-2.54727e-07
0.00014877
-2.60422e-07
0.000148792
-2.65897e-07
0.000148813
-2.71232e-07
0.000148833
-2.76493e-07
0.000148852
-2.81731e-07
0.000148871
-2.8699e-07
0.000148888
-2.92302e-07
0.000148904
-2.97695e-07
0.00014892
-3.03186e-07
0.000148934
-3.08789e-07
0.000148947
-3.14513e-07
0.000148959
-3.20362e-07
0.00014897
-3.26335e-07
0.00014898
-3.32429e-07
0.000148988
-3.38637e-07
-3.44935e-07
0.000148996
0.000152671
1.53774e-09
0.000152666
-3.10936e-08
0.000152674
-6.58609e-08
0.000152692
-1.00203e-07
0.000152715
-1.29958e-07
0.00015274
-1.55381e-07
0.000152766
-1.7692e-07
0.000152792
-1.9511e-07
0.000152819
-2.10463e-07
0.000152845
-2.23439e-07
0.00015287
-2.34464e-07
0.000152896
-2.43912e-07
0.00015292
-2.52092e-07
0.000152944
-2.5926e-07
0.000152968
-2.65629e-07
0.00015299
-2.71377e-07
0.000153012
-2.76647e-07
0.000153033
-2.81558e-07
0.000153054
-2.86209e-07
0.000153073
-2.90679e-07
0.000153092
-2.95036e-07
0.000153109
-2.99331e-07
0.000153126
-3.03609e-07
0.000153141
-3.07905e-07
0.000153156
-3.12245e-07
0.000153169
-3.1665e-07
0.000153182
-3.21135e-07
0.000153193
-3.2571e-07
0.000153203
-3.30381e-07
0.000153212
-3.35147e-07
0.000153219
-3.40008e-07
0.000153226
-3.4496e-07
-3.49978e-07
0.000153231
0.000157077
-2.41011e-08
0.000157076
-3.02052e-08
0.000157063
-5.30686e-08
0.000157055
-9.16773e-08
0.000157056
-1.31013e-07
0.000157066
-1.65849e-07
0.000157084
-1.94104e-07
0.000157105
-2.16867e-07
0.00015713
-2.3525e-07
0.000157157
-2.50086e-07
0.000157184
-2.62102e-07
0.000157212
-2.71907e-07
0.00015724
-2.79988e-07
0.000157268
-2.86733e-07
0.000157295
-2.92448e-07
0.000157321
-2.97375e-07
0.000157346
-3.01705e-07
0.00015737
-3.05589e-07
0.000157393
-3.09147e-07
0.000157414
-3.12474e-07
0.000157435
-3.15647e-07
0.000157454
-3.18725e-07
0.000157473
-3.21757e-07
0.000157489
-3.2478e-07
0.000157505
-3.27824e-07
0.000157519
-3.30912e-07
0.000157532
-3.34058e-07
0.000157544
-3.37276e-07
0.000157554
-3.40571e-07
0.000157563
-3.43948e-07
0.00015757
-3.47406e-07
0.000157576
-3.50945e-07
-3.54544e-07
0.000157581
0.00016147
4.47114e-08
0.000161456
-1.64048e-08
0.000161492
-8.9157e-08
0.000161535
-1.346e-07
0.000161577
-1.7304e-07
0.000161614
-2.02672e-07
0.000161646
-2.26838e-07
0.000161676
-2.46753e-07
0.000161704
-2.62967e-07
0.00016173
-2.76185e-07
0.000161755
-2.87026e-07
0.000161779
-2.95958e-07
0.000161802
-3.03354e-07
0.000161825
-3.09519e-07
0.000161847
-3.14697e-07
0.000161869
-3.1909e-07
0.00016189
-3.22857e-07
0.000161911
-3.26131e-07
0.000161931
-3.2902e-07
0.00016195
-3.31612e-07
0.000161968
-3.33979e-07
0.000161986
-3.36181e-07
0.000162002
-3.38267e-07
0.000162018
-3.40276e-07
0.000162032
-3.42241e-07
0.000162045
-3.44189e-07
0.000162057
-3.46139e-07
0.000162068
-3.48106e-07
0.000162078
-3.50101e-07
0.000162086
-3.5213e-07
0.000162093
-3.54196e-07
0.000162098
-3.56299e-07
-3.58431e-07
0.000162102
0.000166191
7.79833e-09
0.000166127
4.75285e-08
0.000166046
-8.66236e-09
0.00016599
-7.83092e-08
0.000165977
-1.60078e-07
0.00016599
-2.15755e-07
0.000166018
-2.55195e-07
0.000166055
-2.83486e-07
0.000166096
-3.04359e-07
0.00016614
-3.19999e-07
0.000166185
-3.318e-07
0.00016623
-3.40758e-07
0.000166274
-3.47589e-07
0.000166317
-3.52808e-07
0.000166359
-3.56794e-07
0.0001664
-3.59829e-07
0.000166439
-3.62127e-07
0.000166477
-3.63853e-07
0.000166513
-3.65134e-07
0.000166548
-3.66072e-07
0.00016658
-3.66748e-07
0.000166612
-3.67226e-07
0.000166641
-3.6756e-07
0.000166668