/*--------------------------------*- C++ -*----------------------------------*\
  =========                 |
  \\      /  F ield         | OpenFOAM: The Open Source CFD Toolbox
   \\    /   O peration     | Website:  https://openfoam.org
    \\  /    A nd           | Version:  10
     \\/     M anipulation  |
\*---------------------------------------------------------------------------*/
FoamFile
{
    format      ascii;
    class       volVectorField;
    location    "0.095";
    object      U;
}
// * * * * * * * * * * * * * * * * * * * * * * * * * * * * * * * * * * * * * //

dimensions      [0 1 -1 0 0 0 0];

internalField   nonuniform List<vector> 
6820
(
(7.33663 -0.25471 0)
(7.37112 -0.152745 0)
(7.32904 -0.0594714 0)
(7.2522 -0.0117227 0)
(7.17484 0.0079637 0)
(7.10501 0.0139665 0)
(7.04398 0.014454 0)
(6.99117 0.0130765 0)
(6.94511 0.0113254 0)
(6.9044 0.009748 0)
(6.86796 0.0084846 0)
(6.83499 0.00752243 0)
(6.80487 0.00680517 0)
(6.77715 0.00627352 0)
(6.75148 0.00587789 0)
(6.7276 0.00558059 0)
(6.70528 0.00535415 0)
(6.68436 0.00517925 0)
(6.66468 0.00504274 0)
(6.64611 0.00493601 0)
(6.62854 0.00485401 0)
(6.61187 0.00479474 0)
(6.59599 0.00475921 0)
(6.5808 0.00475245 0)
(6.56617 0.00478479 0)
(6.55197 0.00487857 0)
(6.53796 0.00507983 0)
(6.52392 0.00544145 0)
(6.50896 0.0064204 0)
(6.49281 0.00720086 0)
(6.4712 0.0143402 0)
(6.43901 0.0148757 0)
(6.39636 0.0303382 0)
(7.32387 0.121385 0)
(7.3044 0.123271 0)
(7.30896 0.0779607 0)
(7.3292 0.0527792 0)
(7.34729 0.0391772 0)
(7.35537 0.0313693 0)
(7.35441 0.026914 0)
(7.34733 0.0241647 0)
(7.33641 0.022264 0)
(7.32323 0.0208205 0)
(7.30884 0.0196386 0)
(7.29392 0.0186182 0)
(7.27886 0.0177089 0)
(7.26391 0.0168845 0)
(7.24922 0.0161302 0)
(7.23486 0.015437 0)
(7.22089 0.0147988 0)
(7.20732 0.0142113 0)
(7.19416 0.0136718 0)
(7.18142 0.0131783 0)
(7.16907 0.0127308 0)
(7.15711 0.0123304 0)
(7.14552 0.0119812 0)
(7.13428 0.0116915 0)
(7.12337 0.0114756 0)
(7.11277 0.011367 0)
(7.10249 0.0114031 0)
(7.09242 0.0117491 0)
(7.08313 0.0124623 0)
(7.07357 0.0144629 0)
(7.06895 0.0178831 0)
(7.06403 0.0265055 0)
(7.08651 0.0451446 0)
(7.32565 -0.0437938 0)
(7.32324 -0.0517372 0)
(7.33518 -0.0262083 0)
(7.34302 -0.00273159 0)
(7.34796 0.0104137 0)
(7.35217 0.0168611 0)
(7.35519 0.0199295 0)
(7.35675 0.021213 0)
(7.35683 0.0215534 0)
(7.35556 0.0214241 0)
(7.35316 0.0210721 0)
(7.34988 0.0206241 0)
(7.3459 0.0201461 0)
(7.34141 0.0196712 0)
(7.33652 0.0192148 0)
(7.33136 0.0187835 0)
(7.326 0.0183798 0)
(7.32051 0.0180044 0)
(7.31493 0.0176577 0)
(7.30931 0.0173404 0)
(7.30367 0.0170544 0)
(7.29803 0.0168033 0)
(7.2924 0.0165933 0)
(7.28678 0.0164343 0)
(7.28117 0.0163436 0)
(7.27556 0.0163459 0)
(7.26995 0.0164967 0)
(7.26427 0.0168283 0)
(7.25866 0.0176122 0)
(7.25283 0.0185336 0)
(7.24779 0.0211925 0)
(7.24248 0.0219056 0)
(7.23979 0.026766 0)
(7.33338 0.0117859 0)
(7.33035 0.0329097 0)
(7.32955 0.0333375 0)
(7.33257 0.0276263 0)
(7.338 0.024236 0)
(7.34354 0.0227587 0)
(7.34817 0.022196 0)
(7.35186 0.0219683 0)
(7.35469 0.0218189 0)
(7.35673 0.0216661 0)
(7.35807 0.0214843 0)
(7.35881 0.0212681 0)
(7.35902 0.0210213 0)
(7.35879 0.0207514 0)
(7.3582 0.0204662 0)
(7.35729 0.0201728 0)
(7.35612 0.0198776 0)
(7.35475 0.0195864 0)
(7.35319 0.0193048 0)
(7.35149 0.0190383 0)
(7.34966 0.0187932 0)
(7.34773 0.0185773 0)
(7.34571 0.0184011 0)
(7.34359 0.018279 0)
(7.3414 0.0182329 0)
(7.33912 0.0182935 0)
(7.33677 0.0185145 0)
(7.33432 0.0189559 0)
(7.3319 0.0197771 0)
(7.32943 0.020995 0)
(7.32754 0.0231858 0)
(7.32617 0.025658 0)
(7.32711 0.0303763 0)
(7.33122 -0.00352493 0)
(7.33004 -0.00433479 0)
(7.3336 0.00126092 0)
(7.33719 0.0087078 0)
(7.34048 0.0140715 0)
(7.34377 0.0170756 0)
(7.34694 0.0187128 0)
(7.34994 0.0196259 0)
(7.35272 0.0201196 0)
(7.35519 0.0203646 0)
(7.35736 0.0204567 0)
(7.35922 0.0204496 0)
(7.3608 0.0203764 0)
(7.36211 0.020259 0)
(7.36318 0.0201125 0)
(7.36403 0.0199474 0)
(7.36469 0.019772 0)
(7.36517 0.0195933 0)
(7.3655 0.0194175 0)
(7.36569 0.0192512 0)
(7.36576 0.0191019 0)
(7.36572 0.0189784 0)
(7.36557 0.0188925 0)
(7.36533 0.0188597 0)
(7.36499 0.0189022 0)
(7.36457 0.019049 0)
(7.36407 0.0193479 0)
(7.36352 0.0198426 0)
(7.36299 0.0206492 0)
(7.36252 0.0217395 0)
(7.36245 0.0234155 0)
(7.36283 0.02505 0)
(7.36418 0.0272221 0)
(7.33264 0.00207929 0)
(7.33223 0.00989889 0)
(7.33393 0.0140928 0)
(7.33643 0.0159632 0)
(7.33942 0.0170696 0)
(7.34262 0.0178433 0)
(7.34568 0.0184513 0)
(7.34854 0.0189134 0)
(7.35121 0.0192282 0)
(7.3537 0.0194249 0)
(7.356 0.0195336 0)
(7.35814 0.019575 0)
(7.36012 0.019565 0)
(7.36195 0.0195158 0)
(7.36363 0.0194372 0)
(7.36517 0.0193372 0)
(7.36659 0.0192228 0)
(7.36789 0.0191006 0)
(7.36908 0.0189772 0)
(7.37017 0.0188598 0)
(7.37116 0.0187563 0)
(7.37207 0.0186765 0)
(7.37289 0.0186328 0)
(7.37363 0.0186409 0)
(7.37429 0.0187223 0)
(7.3749 0.0189034 0)
(7.37546 0.0192234 0)
(7.376 0.019718 0)
(7.37659 0.020458 0)
(7.3773 0.0214317 0)
(7.37832 0.0227584 0)
(7.37977 0.0241318 0)
(7.38185 0.0257126 0)
(7.33258 0.000828507 0)
(7.33242 0.00451145 0)
(7.33427 0.00806078 0)
(7.33687 0.0112605 0)
(7.33966 0.0138434 0)
(7.34249 0.0156147 0)
(7.34521 0.0167646 0)
(7.34779 0.0175072 0)
(7.35025 0.0179776 0)
(7.3526 0.0182688 0)
(7.35485 0.0184409 0)
(7.35699 0.0185302 0)
(7.35904 0.0185599 0)
(7.36099 0.0185465 0)
(7.36287 0.0185017 0)
(7.36466 0.0184343 0)
(7.36638 0.018352 0)
(7.36802 0.0182614 0)
(7.36959 0.0181694 0)
(7.37109 0.0180828 0)
(7.37253 0.01801 0)
(7.37391 0.0179604 0)
(7.37522 0.0179461 0)
(7.37649 0.0179817 0)
(7.37771 0.0180864 0)
(7.37889 0.0182826 0)
(7.38006 0.0186001 0)
(7.38124 0.0190644 0)
(7.3825 0.0197154 0)
(7.38389 0.0205398 0)
(7.38554 0.0215697 0)
(7.38753 0.0226214 0)
(7.38992 0.0236728 0)
(7.33284 0.00133162 0)
(7.33301 0.00534984 0)
(7.33457 0.00890098 0)
(7.3368 0.0115855 0)
(7.33929 0.0135574 0)
(7.3419 0.0149178 0)
(7.34448 0.0158522 0)
(7.34696 0.016501 0)
(7.34934 0.0169403 0)
(7.35161 0.017227 0)
(7.35379 0.0174047 0)
(7.3559 0.0175033 0)
(7.35793 0.0175436 0)
(7.3599 0.0175409 0)
(7.36182 0.0175066 0)
(7.36369 0.0174496 0)
(7.36551 0.0173774 0)
(7.36728 0.0172967 0)
(7.36901 0.0172143 0)
(7.37069 0.017137 0)
(7.37233 0.017073 0)
(7.37394 0.0170312 0)
(7.37551 0.017023 0)
(7.37705 0.0170614 0)
(7.37857 0.0171627 0)
(7.38009 0.0173449 0)
(7.38161 0.0176295 0)
(7.38318 0.0180333 0)
(7.38483 0.0185759 0)
(7.38663 0.0192433 0)
(7.38864 0.0200302 0)
(7.39092 0.0208263 0)
(7.39347 0.021577 0)
(7.33291 0.00133004 0)
(7.3332 0.00466998 0)
(7.3346 0.00770565 0)
(7.33664 0.0101693 0)
(7.33894 0.0121271 0)
(7.34138 0.013577 0)
(7.34381 0.0146072 0)
(7.34618 0.0153268 0)
(7.34846 0.0158154 0)
(7.35066 0.0161356 0)
(7.35278 0.0163355 0)
(7.35485 0.0164483 0)
(7.35685 0.0164972 0)
(7.35881 0.0164991 0)
(7.36072 0.0164667 0)
(7.3626 0.0164097 0)
(7.36445 0.0163362 0)
(7.36626 0.0162533 0)
(7.36805 0.0161678 0)
(7.36981 0.0160869 0)
(7.37154 0.0160181 0)
(7.37326 0.01597 0)
(7.37496 0.0159526 0)
(7.37665 0.0159774 0)
(7.37833 0.0160574 0)
(7.38004 0.0162063 0)
(7.38177 0.0164388 0)
(7.38356 0.0167645 0)
(7.38545 0.0171906 0)
(7.38748 0.0177024 0)
(7.38969 0.018281 0)
(7.39211 0.0188567 0)
(7.39474 0.019377 0)
(7.33297 0.00130621 0)
(7.33335 0.00431357 0)
(7.33461 0.00710486 0)
(7.33644 0.00940097 0)
(7.33855 0.0112205 0)
(7.3408 0.0125807 0)
(7.34309 0.0135616 0)
(7.34535 0.0142593 0)
(7.34755 0.0147435 0)
(7.34969 0.0150673 0)
(7.35177 0.0152724 0)
(7.3538 0.015389 0)
(7.35578 0.0154393 0)
(7.35771 0.01544 0)
(7.35962 0.0154039 0)
(7.36149 0.0153411 0)
(7.36333 0.0152599 0)
(7.36516 0.0151676 0)
(7.36696 0.0150712 0)
(7.36875 0.0149777 0)
(7.37053 0.0148941 0)
(7.3723 0.0148285 0)
(7.37406 0.0147896 0)
(7.37583 0.0147868 0)
(7.37762 0.0148304 0)
(7.37943 0.0149302 0)
(7.38129 0.0150954 0)
(7.38321 0.0153305 0)
(7.38524 0.0156354 0)
(7.38739 0.0159958 0)
(7.3897 0.0163903 0)
(7.39219 0.0167733 0)
(7.39484 0.0171051 0)
(7.333 0.00124411 0)
(7.33341 0.00392961 0)
(7.33455 0.0064277 0)
(7.33621 0.00851765 0)
(7.33814 0.010204 0)
(7.34024 0.0115016 0)
(7.34239 0.0124632 0)
(7.34454 0.0131601 0)
(7.34666 0.0136506 0)
(7.34874 0.013982 0)
(7.35077 0.0141927 0)
(7.35276 0.0143121 0)
(7.35471 0.014362 0)
(7.35663 0.0143593 0)
(7.35851 0.0143169 0)
(7.36037 0.0142451 0)
(7.36221 0.0141526 0)
(7.36404 0.0140468 0)
(7.36585 0.0139345 0)
(7.36765 0.0138225 0)
(7.36944 0.0137175 0)
(7.37124 0.0136266 0)
(7.37304 0.0135572 0)
(7.37485 0.013517 0)
(7.37669 0.0135135 0)
(7.37857 0.0135535 0)
(7.3805 0.0136418 0)
(7.38251 0.0137796 0)
(7.38461 0.0139627 0)
(7.38683 0.014178 0)
(7.38918 0.0144059 0)
(7.39169 0.0146152 0)
(7.39434 0.0147781 0)
(7.33302 0.00116021 0)
(7.33343 0.00357021 0)
(7.33448 0.00581833 0)
(7.33598 0.0077297 0)
(7.33776 0.00929062 0)
(7.3397 0.0105107 0)
(7.34173 0.0114285 0)
(7.34377 0.0121011 0)
(7.34581 0.012579 0)
(7.34782 0.0129041 0)
(7.3498 0.0131108 0)
(7.35175 0.0132261 0)
(7.35367 0.0132706 0)
(7.35556 0.0132605 0)
(7.35742 0.0132085 0)
(7.35927 0.0131248 0)
(7.3611 0.0130179 0)
(7.36291 0.0128952 0)
(7.36472 0.0127633 0)
(7.36653 0.0126286 0)
(7.36833 0.0124971 0)
(7.37014 0.012375 0)
(7.37196 0.0122685 0)
(7.37381 0.0121834 0)
(7.37568 0.0121252 0)
(7.3776 0.0120979 0)
(7.37957 0.0121035 0)
(7.38162 0.0121406 0)
(7.38376 0.0122034 0)
(7.38601 0.0122801 0)
(7.38838 0.012354 0)
(7.39088 0.0124031 0)
(7.39349 0.0124082 0)
(7.33303 0.00106594 0)
(7.33343 0.00322741 0)
(7.33439 0.00524275 0)
(7.33576 0.00697655 0)
(7.33739 0.00840745 0)
(7.3392 0.00954203 0)
(7.3411 0.0104084 0)
(7.34305 0.0110506 0)
(7.345 0.0115105 0)
(7.34694 0.0118243 0)
(7.34887 0.0120223 0)
(7.35077 0.0121293 0)
(7.35266 0.0121648 0)
(7.35452 0.0121441 0)
(7.35636 0.0120795 0)
(7.35819 0.0119811 0)
(7.36001 0.011857 0)
(7.36181 0.0117144 0)
(7.36362 0.0115596 0)
(7.36542 0.0113985 0)
(7.36722 0.0112364 0)
(7.36904 0.0110785 0)
(7.37087 0.0109298 0)
(7.37273 0.0107945 0)
(7.37463 0.0106762 0)
(7.37656 0.0105769 0)
(7.37856 0.0104966 0)
(7.38063 0.0104323 0)
(7.38278 0.0103777 0)
(7.38504 0.0103222 0)
(7.3874 0.010252 0)
(7.38987 0.010151 0)
(7.39245 0.0100056 0)
(7.33303 0.000967649 0)
(7.33342 0.00290119 0)
(7.3343 0.00470237 0)
(7.33555 0.00626709 0)
(7.33706 0.00757055 0)
(7.33874 0.00861549 0)
(7.34053 0.00942204 0)
(7.34238 0.0100242 0)
(7.34425 0.0104568 0)
(7.34612 0.0107509 0)
(7.34799 0.0109333 0)
(7.34985 0.0110263 0)
(7.35169 0.011048 0)
(7.35352 0.0110128 0)
(7.35534 0.0109323 0)
(7.35715 0.010816 0)
(7.35895 0.0106718 0)
(7.36074 0.0105064 0)
(7.36253 0.0103257 0)
(7.36433 0.0101349 0)
(7.36613 0.00993863 0)
(7.36795 0.00974118 0)
(7.36979 0.00954625 0)
(7.37165 0.00935681 0)
(7.37355 0.00917481 0)
(7.3755 0.00900075 0)
(7.3775 0.00883323 0)
(7.37958 0.00866842 0)
(7.38173 0.00849982 0)
(7.38397 0.00831818 0)
(7.38631 0.00811213 0)
(7.38875 0.00786918 0)
(7.39128 0.00757923 0)
(7.33303 0.000869175 0)
(7.3334 0.00259065 0)
(7.33421 0.00419247 0)
(7.33536 0.00559414 0)
(7.33675 0.00677053 0)
(7.33832 0.00772136 0)
(7.34001 0.00846108 0)
(7.34176 0.0090158 0)
(7.34355 0.009414 0)
(7.34536 0.00968203 0)
(7.34717 0.00984329 0)
(7.34898 0.00991766 0)
(7.35078 0.0099215 0)
(7.35258 0.00986812 0)
(7.35437 0.00976843 0)
(7.35615 0.00963133 0)
(7.35793 0.00946421 0)
(7.35971 0.00927326 0)
(7.36148 0.00906378 0)
(7.36327 0.00884034 0)
(7.36506 0.00860689 0)
(7.36688 0.00836675 0)
(7.36871 0.00812256 0)
(7.37057 0.00787613 0)
(7.37247 0.00762818 0)
(7.37441 0.00737805 0)
(7.37641 0.0071234 0)
(7.37848 0.00685997 0)
(7.38061 0.00658143 0)
(7.38283 0.00627959 0)
(7.38513 0.0059449 0)
(7.38752 0.00556724 0)
(7.38999 0.00513876 0)
(7.33303 0.000772621 0)
(7.33337 0.00229485 0)
(7.33412 0.00370981 0)
(7.33518 0.00495453 0)
(7.33648 0.00600522 0)
(7.33794 0.00685927 0)
(7.33953 0.00752673 0)
(7.3412 0.00802751 0)
(7.34291 0.00838466 0)
(7.34465 0.00862038 0)
(7.34641 0.00875485 0)
(7.34817 0.00880559 0)
(7.34993 0.00878729 0)
(7.35169 0.00871208 0)
(7.35345 0.00858995 0)
(7.3552 0.0084291 0)
(7.35696 0.0082363 0)
(7.35871 0.00801715 0)
(7.36047 0.00777636 0)
(7.36224 0.00751779 0)
(7.36403 0.00724466 0)
(7.36582 0.00695942 0)
(7.36765 0.00666379 0)
(7.3695 0.00635858 0)
(7.37139 0.00604357 0)
(7.37332 0.00571723 0)
(7.3753 0.00537664 0)
(7.37734 0.00501731 0)
(7.37945 0.00463323 0)
(7.38163 0.00421708 0)
(7.38388 0.00376065 0)
(7.38621 0.00325536 0)
(7.38862 0.00269486 0)
(7.33303 0.000679045 0)
(7.33335 0.00201279 0)
(7.33404 0.00325134 0)
(7.33503 0.00434459 0)
(7.33623 0.00527087 0)
(7.3376 0.00602594 0)
(7.3391 0.00661652 0)
(7.34068 0.00705769 0)
(7.34232 0.00736793 0)
(7.344 0.00756574 0)
(7.3457 0.00766832 0)
(7.34741 0.00769092 0)
(7.34913 0.00764653 0)
(7.35085 0.00754602 0)
(7.35258 0.00739839 0)
(7.3543 0.00721104 0)
(7.35603 0.00699005 0)
(7.35776 0.00674038 0)
(7.3595 0.00646607 0)
(7.36125 0.00617031 0)
(7.36302 0.00585557 0)
(7.3648 0.00552354 0)
(7.3666 0.00517513 0)
(7.36843 0.00481033 0)
(7.3703 0.00442817 0)
(7.37221 0.00402653 0)
(7.37416 0.0036021 0)
(7.37617 0.00315035 0)
(7.37824 0.0026656 0)
(7.38037 0.00214122 0)
(7.38256 0.00157 0)
(7.38483 0.00094445 0)
(7.38716 0.000259234 0)
(7.33303 0.000588872 0)
(7.33333 0.00174339 0)
(7.33397 0.00281432 0)
(7.33488 0.0037611 0)
(7.33601 0.00456441 0)
(7.3373 0.00521899 0)
(7.33871 0.00572903 0)
(7.34022 0.0061058 0)
(7.34179 0.00636399 0)
(7.3434 0.00651881 0)
(7.34505 0.00658479 0)
(7.34671 0.00657501 0)
(7.34839 0.00650078 0)
(7.35007 0.00637169 0)
(7.35176 0.00619568 0)
(7.35345 0.00597931 0)
(7.35515 0.00572789 0)
(7.35686 0.0054457 0)
(7.35857 0.00513608 0)
(7.3603 0.00480157 0)
(7.36204 0.00444393 0)
(7.36379 0.00406416 0)
(7.36557 0.00366245 0)
(7.36738 0.00323816 0)
(7.36922 0.00278973 0)
(7.37109 0.00231463 0)
(7.37301 0.00180933 0)
(7.37498 0.00126933 0)
(7.37699 0.000689281 0)
(7.37906 6.31474e-05 0)
(7.38119 -0.000615526 0)
(7.38338 -0.00135346 0)
(7.38562 -0.00215518 0)
(7.33303 0.000502161 0)
(7.33331 0.00148553 0)
(7.3339 0.00239629 0)
(7.33476 0.00320108 0)
(7.33581 0.00388285 0)
(7.33702 0.00443583 0)
(7.33836 0.00486228 0)
(7.3398 0.00517052 0)
(7.3413 0.00537208 0)
(7.34286 0.00547935 0)
(7.34445 0.0055044 0)
(7.34606 0.0054583 0)
(7.34769 0.00535076 0)
(7.34934 0.00519004 0)
(7.35099 0.00498303 0)
(7.35265 0.00473537 0)
(7.35432 0.00445159 0)
(7.356 0.00413524 0)
(7.35768 0.00378899 0)
(7.35938 0.00341471 0)
(7.36109 0.00301352 0)
(7.36281 0.00258578 0)
(7.36456 0.0021311 0)
(7.36634 0.0016483 0)
(7.36814 0.0011354 0)
(7.36997 0.000589568 0)
(7.37184 7.18188e-06 0)
(7.37376 -0.000616155 0)
(7.37571 -0.0012855 0)
(7.37772 -0.00200637 0)
(7.37977 -0.00278463 0)
(7.38187 -0.00362637 0)
(7.38401 -0.00453543 0)
(7.33302 0.000418765 0)
(7.33329 0.00123806 0)
(7.33384 0.00199503 0)
(7.33464 0.00266181 0)
(7.33563 0.00322348 0)
(7.33678 0.0036741 0)
(7.33805 0.00401455 0)
(7.33942 0.00425086 0)
(7.34086 0.00439193 0)
(7.34236 0.00444771 0)
(7.3439 0.00442809 0)
(7.34547 0.00434227 0)
(7.34705 0.0041984 0)
(7.34866 0.00400344 0)
(7.35027 0.0037632 0)
(7.3519 0.00348241 0)
(7.35353 0.00316477 0)
(7.35517 0.00281312 0)
(7.35683 0.00242944 0)
(7.35849 0.00201498 0)
(7.36017 0.00157024 0)
(7.36186 0.00109504 0)
(7.36357 0.000588499 0)
(7.3653 4.90055e-05 0)
(7.36706 -0.000525742 0)
(7.36885 -0.00113874 0)
(7.37066 -0.00179366 0)
(7.37251 -0.00249475 0)
(7.3744 -0.00324677 0)
(7.37633 -0.00405481 0)
(7.37829 -0.00492419 0)
(7.3803 -0.00586047 0)
(7.38234 -0.00686689 0)
(7.33302 0.000338429 0)
(7.33327 0.000999882 0)
(7.33379 0.00160848 0)
(7.33454 0.00214069 0)
(7.33547 0.00258351 0)
(7.33656 0.00293112 0)
(7.33777 0.00318341 0)
(7.33908 0.00334463 0)
(7.34046 0.00342159 0)
(7.34191 0.00342214 0)
(7.3434 0.00335425 0)
(7.34492 0.00322542 0)
(7.34646 0.00304233 0)
(7.34802 0.00281068 0)
(7.3496 0.00253521 0)
(7.35119 0.00221971 0)
(7.35279 0.00186708 0)
(7.35439 0.00147942 0)
(7.35601 0.00105806 0)
(7.35764 0.000603618 0)
(7.35927 0.000116074 0)
(7.36093 -0.000405258 0)
(7.36259 -0.000961693 0)
(7.36428 -0.00155516 0)
(7.36598 -0.0021882 0)
(7.36771 -0.00286392 0)
(7.36947 -0.00358595 0)
(7.37125 -0.00435839 0)
(7.37306 -0.00518568 0)
(7.3749 -0.00607254 0)
(7.37677 -0.00702381 0)
(7.37868 -0.00804456 0)
(7.38061 -0.00913745 0)
(7.33302 0.000260854 0)
(7.33325 0.000769929 0)
(7.33374 0.00123484 0)
(7.33445 0.0016356 0)
(7.33533 0.00196094 0)
(7.33636 0.00220541 0)
(7.33752 0.00236824 0)
(7.33877 0.00245233 0)
(7.3401 0.00246275 0)
(7.3415 0.00240556 0)
(7.34294 0.00228697 0)
(7.34441 0.00211289 0)
(7.34591 0.00188862 0)
(7.34744 0.00161865 0)
(7.34897 0.00130666 0)
(7.35052 0.000955541 0)
(7.35208 0.000567389 0)
(7.35365 0.000143572 0)
(7.35523 -0.000315199 0)
(7.35681 -0.000808855 0)
(7.35841 -0.00133792 0)
(7.36002 -0.00190351 0)
(7.36163 -0.00250728 0)
(7.36327 -0.00315142 0)
(7.36492 -0.00383862 0)
(7.36658 -0.00457204 0)
(7.36827 -0.00535523 0)
(7.36997 -0.00619211 0)
(7.3717 -0.00708684 0)
(7.37345 -0.00804375 0)
(7.37522 -0.00906724 0)
(7.37701 -0.0101619 0)
(7.37882 -0.0113299 0)
(7.33302 0.000185718 0)
(7.33324 0.000547113 0)
(7.3337 0.000872127 0)
(7.33437 0.00114361 0)
(7.3352 0.00135186 0)
(7.33619 0.00149196 0)
(7.33729 0.00156286 0)
(7.3385 0.00156654 0)
(7.33978 0.00150674 0)
(7.34113 0.0013881 0)
(7.34252 0.00121543 0)
(7.34395 0.000993171 0)
(7.34541 0.000725316 0)
(7.3469 0.000415213 0)
(7.34839 6.55196e-05 0)
(7.3499 -0.000321823 0)
(7.35142 -0.000745515 0)
(7.35295 -0.0012049 0)
(7.35448 -0.0016999 0)
(7.35603 -0.00223098 0)
(7.35757 -0.00279914 0)
(7.35913 -0.00340587 0)
(7.3607 -0.00405314 0)
(7.36227 -0.00474333 0)
(7.36386 -0.00547925 0)
(7.36545 -0.00626405 0)
(7.36706 -0.00710121 0)
(7.36869 -0.00799441 0)
(7.37032 -0.00894756 0)
(7.37197 -0.00996461 0)
(7.37364 -0.0110496 0)
(7.37531 -0.0122065 0)
(7.377 -0.0134372 0)
(7.33302 0.000112751 0)
(7.33322 0.000330762 0)
(7.33366 0.000519745 0)
(7.3343 0.000665062 0)
(7.33509 0.000758551 0)
(7.33603 0.00079598 0)
(7.33709 0.000776119 0)
(7.33825 0.000700103 0)
(7.33949 0.000570497 0)
(7.34079 0.000390475 0)
(7.34214 0.000163381 0)
(7.34354 -0.000107519 0)
(7.34496 -0.000419436 0)
(7.3464 -0.000770109 0)
(7.34786 -0.00115784 0)
(7.34933 -0.00158152 0)
(7.3508 -0.00204061 0)
(7.35229 -0.00253505 0)
(7.35378 -0.00306532 0)
(7.35527 -0.00363239 0)
(7.35677 -0.00423763 0)
(7.35828 -0.00488285 0)
(7.35978 -0.00557023 0)
(7.36129 -0.00630232 0)
(7.36281 -0.00708197 0)
(7.36433 -0.0079123 0)
(7.36586 -0.00879664 0)
(7.3674 -0.00973851 0)
(7.36894 -0.0107415 0)
(7.37049 -0.0118092 0)
(7.37204 -0.0129452 0)
(7.37359 -0.0141533 0)
(7.37515 -0.0154346 0)
(7.33302 4.15429e-05 0)
(7.33321 0.000119066 0)
(7.33363 0.000172917 0)
(7.33423 0.000190552 0)
(7.335 0.000165348 0)
(7.3359 9.4219e-05 0)
(7.33692 -2.33909e-05 0)
(7.33803 -0.000186306 0)
(7.33923 -0.000392474 0)
(7.3405 -0.000639623 0)
(7.34181 -0.000925539 0)
(7.34316 -0.00124818 0)
(7.34454 -0.00160596 0)
(7.34595 -0.00199781 0)
(7.34737 -0.00242308 0)
(7.34879 -0.00288161 0)
(7.35023 -0.00337366 0)
(7.35167 -0.00389993 0)
(7.35311 -0.00446151 0)
(7.35456 -0.00505985 0)
(7.356 -0.00569676 0)
(7.35745 -0.00637435 0)
(7.35889 -0.00709504 0)
(7.36034 -0.00786148 0)
(7.36178 -0.00867658 0)
(7.36323 -0.00954339 0)
(7.36467 -0.0104651 0)
(7.36611 -0.0114451 0)
(7.36755 -0.0124866 0)
(7.36899 -0.0135928 0)
(7.37043 -0.0147671 0)
(7.37186 -0.0160128 0)
(7.37329 -0.0173304 0)
(7.33302 -2.77273e-05 0)
(7.3332 -8.55533e-05 0)
(7.3336 -0.000159635 0)
(7.33417 -0.000260432 0)
(7.3349 -0.00039344 0)
(7.33577 -0.000561594 0)
(7.33675 -0.000766023 0)
(7.33784 -0.00100647 0)
(7.339 -0.00128192 0)
(7.34023 -0.00159104 0)
(7.34151 -0.00193253 0)
(7.34283 -0.00230538 0)
(7.34417 -0.00270887 0)
(7.34554 -0.00314269 0)
(7.34692 -0.0036069 0)
(7.34831 -0.00410195 0)
(7.34971 -0.00462868 0)
(7.3511 -0.00518827 0)
(7.3525 -0.00578225 0)
(7.35389 -0.00641241 0)
(7.35528 -0.00708085 0)
(7.35666 -0.00778989 0)
(7.35804 -0.00854209 0)
(7.35942 -0.00934017 0)
(7.36079 -0.010187 0)
(7.36215 -0.0110856 0)
(7.3635 -0.0120391 0)
(7.36485 -0.0130504 0)
(7.36619 -0.0141227 0)
(7.36752 -0.0152589 0)
(7.36883 -0.0164619 0)
(7.37014 -0.0177346 0)
(7.37143 -0.0190774 0)
(7.33302 -9.64678e-05 0)
(7.3332 -0.000293525 0)
(7.33358 -0.000508005 0)
(7.33413 -0.000748713 0)
(7.33484 -0.00101681 0)
(7.33568 -0.00131065 0)
(7.33663 -0.00162829 0)
(7.33768 -0.00196809 0)
(7.33881 -0.002329 0)
(7.34001 -0.00271065 0)
(7.34126 -0.0031132 0)
(7.34254 -0.00353725 0)
(7.34385 -0.00398373 0)
(7.34518 -0.00445383 0)
(7.34652 -0.00494901 0)
(7.34787 -0.00547093 0)
(7.34922 -0.00602142 0)
(7.35057 -0.0066025 0)
(7.35192 -0.00721635 0)
(7.35326 -0.00786531 0)
(7.35459 -0.00855186 0)
(7.35591 -0.00927859 0)
(7.35723 -0.0100482 0)
(7.35853 -0.0108636 0)
(7.35982 -0.0117276 0)
(7.36109 -0.012643 0)
(7.36236 -0.0136128 0)
(7.36361 -0.0146399 0)
(7.36484 -0.015727 0)
(7.36605 -0.0168768 0)
(7.36725 -0.0180917 0)
(7.36843 -0.0193743 0)
(7.36958 -0.0207247 0)
(7.33301 -0.000160088 0)
(7.33318 -0.000472477 0)
(7.33353 -0.00078668 0)
(7.33405 -0.00111403 0)
(7.33473 -0.00145986 0)
(7.33554 -0.00182631 0)
(7.33648 -0.0022137 0)
(7.33751 -0.00262118 0)
(7.33863 -0.00304761 0)
(7.3398 -0.00349221 0)
(7.34103 -0.00395469 0)
(7.34229 -0.0044353 0)
(7.34357 -0.00493479 0)
(7.34488 -0.0054543 0)
(7.34619 -0.00599538 0)
(7.3475 -0.00655983 0)
(7.34881 -0.00714972 0)
(7.35012 -0.00776729 0)
(7.35142 -0.00841498 0)
(7.3527 -0.00909534 0)
(7.35398 -0.00981106 0)
(7.35524 -0.0105649 0)
(7.35648 -0.0113597 0)
(7.35771 -0.0121983 0)
(7.35892 -0.0130835 0)
(7.36011 -0.0140183 0)
(7.36128 -0.0150053 0)
(7.36242 -0.0160474 0)
(7.36355 -0.0171471 0)
(7.36465 -0.0183067 0)
(7.36572 -0.0195287 0)
(7.36677 -0.0208152 0)
(7.36779 -0.022166 0)
(7.33302 -0.000235615 0)
(7.3332 -0.000724786 0)
(7.33356 -0.00124224 0)
(7.33407 -0.00178272 0)
(7.33473 -0.00233107 0)
(7.33553 -0.00287554 0)
(7.33643 -0.00341068 0)
(7.33743 -0.00393547 0)
(7.33851 -0.0044516 0)
(7.33966 -0.00496232 0)
(7.34085 -0.00547165 0)
(7.34208 -0.00598386 0)
(7.34333 -0.00650319 0)
(7.3446 -0.00703374 0)
(7.34587 -0.00757936 0)
(7.34714 -0.00814371 0)
(7.34841 -0.00873025 0)
(7.34967 -0.00934228 0)
(7.35092 -0.00998298 0)
(7.35216 -0.0106554 0)
(7.35337 -0.0113626 0)
(7.35457 -0.0121075 0)
(7.35575 -0.0128929 0)
(7.3569 -0.0137217 0)
(7.35803 -0.0145967 0)
(7.35913 -0.0155204 0)
(7.36021 -0.0164954 0)
(7.36126 -0.0175242 0)
(7.36228 -0.0186089 0)
(7.36327 -0.0197518 0)
(7.36422 -0.0209547 0)
(7.36514 -0.0222194 0)
(7.36603 -0.0235455 0)
(7.333 -0.000261615 0)
(7.3331 -0.000742012 0)
(7.33338 -0.00120963 0)
(7.33386 -0.00170012 0)
(7.3345 -0.00222469 0)
(7.3353 -0.0027801 0)
(7.33623 -0.00335809 0)
(7.33726 -0.00395021 0)
(7.33836 -0.00455014 0)
(7.33952 -0.0051541 0)
(7.34072 -0.00576049 0)
(7.34195 -0.00636937 0)
(7.3432 -0.00698209 0)
(7.34445 -0.0076008 0)
(7.3457 -0.00822824 0)
(7.34694 -0.00886749 0)
(7.34818 -0.00952183 0)
(7.3494 -0.0101946 0)
(7.3506 -0.0108893 0)
(7.35178 -0.0116092 0)
(7.35294 -0.0123576 0)
(7.35407 -0.0131378 0)
(7.35517 -0.0139531 0)
(7.35625 -0.0148063 0)
(7.35729 -0.0157006 0)
(7.35831 -0.0166386 0)
(7.35929 -0.0176229 0)
(7.36023 -0.0186562 0)
(7.36114 -0.0197405 0)
(7.36202 -0.020878 0)
(7.36285 -0.0220704 0)
(7.36365 -0.0233196 0)
(7.3644 -0.024625 0)
(7.33305 -0.000433158 0)
(7.33329 -0.00136898 0)
(7.33364 -0.00235738 0)
(7.33411 -0.00333187 0)
(7.33471 -0.00424155 0)
(7.33543 -0.00507017 0)
(7.33628 -0.0058216 0)
(7.33724 -0.00650681 0)
(7.33828 -0.00713893 0)
(7.33939 -0.00773116 0)
(7.34054 -0.00829572 0)
(7.34173 -0.00884337 0)
(7.34294 -0.00938334 0)
(7.34416 -0.00992344 0)
(7.34538 -0.0104703 0)
(7.3466 -0.0110295 0)
(7.3478 -0.011606 0)
(7.34898 -0.012204 0)
(7.35014 -0.0128272 0)
(7.35127 -0.0134791 0)
(7.35238 -0.0141629 0)
(7.35346 -0.0148814 0)
(7.3545 -0.0156374 0)
(7.35551 -0.0164334 0)
(7.35648 -0.0172719 0)
(7.35742 -0.0181549 0)
(7.35831 -0.0190847 0)
(7.35917 -0.0200632 0)
(7.35998 -0.021092 0)
(7.36075 -0.0221728 0)
(7.36147 -0.0233067 0)
(7.36215 -0.0244953 0)
(7.36277 -0.0257377 0)
(7.33293 -0.000178026 0)
(7.33282 -0.000444574 0)
(7.33297 -0.000767364 0)
(7.33342 -0.00127406 0)
(7.33412 -0.00195292 0)
(7.335 -0.00274415 0)
(7.33601 -0.00359408 0)
(7.33711 -0.0044653 0)
(7.33826 -0.00533426 0)
(7.33946 -0.00618739 0)
(7.34067 -0.00701821 0)
(7.3419 -0.00782521 0)
(7.34312 -0.00861003 0)
(7.34434 -0.00937623 0)
(7.34554 -0.0101284 0)
(7.34673 -0.0108718 0)
(7.34789 -0.0116115 0)
(7.34902 -0.0123528 0)
(7.35013 -0.0131007 0)
(7.3512 -0.0138601 0)
(7.35224 -0.0146353 0)
(7.35324 -0.0154305 0)
(7.35421 -0.0162497 0)
(7.35513 -0.0170964 0)
(7.35601 -0.017974 0)
(7.35685 -0.0188854 0)
(7.35765 -0.0198334 0)
(7.3584 -0.0208205 0)
(7.3591 -0.0218489 0)
(7.35975 -0.0229205 0)
(7.36036 -0.0240368 0)
(7.36091 -0.0251996 0)
(7.36141 -0.0264082 0)
(7.33316 -0.000880271 0)
(7.33361 -0.00292205 0)
(7.33391 -0.0049205 0)
(7.33417 -0.0066167 0)
(7.33456 -0.00796671 0)
(7.33514 -0.00903311 0)
(7.3359 -0.00988546 0)
(7.33681 -0.0105811 0)
(7.33783 -0.0111665 0)
(7.33893 -0.0116783 0)
(7.34009 -0.0121441 0)
(7.34128 -0.0125848 0)
(7.34248 -0.0130157 0)
(7.34369 -0.0134479 0)
(7.34489 -0.0138899 0)
(7.34608 -0.014348 0)
(7.34723 -0.0148269 0)
(7.34836 -0.0153305 0)
(7.34946 -0.0158618 0)
(7.35052 -0.0164233 0)
(7.35153 -0.0170173 0)
(7.35251 -0.0176459 0)
(7.35344 -0.0183108 0)
(7.35432 -0.0190136 0)
(7.35515 -0.0197559 0)
(7.35593 -0.0205392 0)
(7.35667 -0.0213646 0)
(7.35734 -0.0222335 0)
(7.35797 -0.0231468 0)
(7.35854 -0.0241054 0)
(7.35905 -0.0251101 0)
(7.3595 -0.0261617 0)
(7.3599 -0.0272591 0)
(7.33266 0.000518439 0)
(7.33187 0.00174215 0)
(7.33189 0.00235108 0)
(7.33259 0.00200901 0)
(7.33363 0.00102413 0)
(7.3348 -0.000281694 0)
(7.33604 -0.00171239 0)
(7.33731 -0.00316319 0)
(7.33858 -0.00457556 0)
(7.33984 -0.00591801 0)
(7.34109 -0.00717804 0)
(7.34231 -0.00835477 0)
(7.34351 -0.00945363 0)
(7.34468 -0.0104832 0)
(7.34582 -0.0114536 0)
(7.34692 -0.0123752 0)
(7.34799 -0.0132578 0)
(7.34903 -0.0141109 0)
(7.35002 -0.0149431 0)
(7.35098 -0.0157621 0)
(7.35189 -0.0165748 0)
(7.35276 -0.0173876 0)
(7.35358 -0.018206 0)
(7.35436 -0.0190348 0)
(7.35508 -0.0198785 0)
(7.35576 -0.0207409 0)
(7.35638 -0.0216253 0)
(7.35694 -0.0225348 0)
(7.35745 -0.0234718 0)
(7.3579 -0.0244385 0)
(7.3583 -0.0254368 0)
(7.35863 -0.0264681 0)
(7.35891 -0.0275323 0)
(7.33352 -0.00203335 0)
(7.33442 -0.00687752 0)
(7.334 -0.0113892 0)
(7.33328 -0.0142166 0)
(7.33305 -0.0158542 0)
(7.33335 -0.0168036 0)
(7.33403 -0.0173207 0)
(7.33496 -0.0175771 0)
(7.33606 -0.0176909 0)
(7.33727 -0.0177384 0)
(7.33855 -0.0177676 0)
(7.33985 -0.0178078 0)
(7.34116 -0.0178763 0)
(7.34246 -0.0179826 0)
(7.34373 -0.0181317 0)
(7.34496 -0.0183257 0)
(7.34616 -0.018565 0)
(7.3473 -0.0188493 0)
(7.3484 -0.0191778 0)
(7.34945 -0.0195496 0)
(7.35044 -0.0199637 0)
(7.35137 -0.0204195 0)
(7.35225 -0.0209163 0)
(7.35307 -0.0214537 0)
(7.35383 -0.0220314 0)
(7.35452 -0.022649 0)
(7.35516 -0.0233066 0)
(7.35573 -0.024004 0)
(7.35624 -0.0247411 0)
(7.35668 -0.025518 0)
(7.35706 -0.0263347 0)
(7.35737 -0.0271913 0)
(7.35762 -0.0280864 0)
(7.33179 0.00338745 0)
(7.329 0.009192 0)
(7.32947 0.0118098 0)
(7.3318 0.0115183 0)
(7.33388 0.00941443 0)
(7.33562 0.00670837 0)
(7.33718 0.00390167 0)
(7.3386 0.0011812 0)
(7.3399 -0.00135228 0)
(7.34112 -0.00365673 0)
(7.34227 -0.00572961 0)
(7.34338 -0.00758639 0)
(7.34446 -0.00924965 0)
(7.3455 -0.0107444 0)
(7.34653 -0.0120952 0)
(7.34752 -0.0133249 0)
(7.3485 -0.0144541 0)
(7.34944 -0.0155008 0)
(7.35036 -0.0164809 0)
(7.35125 -0.0174079 0)
(7.3521 -0.0182935 0)
(7.35291 -0.019148 0)
(7.35369 -0.01998 0)
(7.35441 -0.0207969 0)
(7.35509 -0.0216052 0)
(7.35572 -0.0224105 0)
(7.3563 -0.0232175 0)
(7.35682 -0.0240302 0)
(7.35728 -0.0248521 0)
(7.35769 -0.0256862 0)
(7.35803 -0.0265347 0)
(7.3583 -0.0273997 0)
(7.35851 -0.028282 0)
(7.33408 -0.0061351 0)
(7.33404 -0.0189821 0)
(7.33027 -0.0270425 0)
(7.32659 -0.0305689 0)
(7.32501 -0.0313454 0)
(7.32523 -0.0309196 0)
(7.32628 -0.0299619 0)
(7.32776 -0.0287957 0)
(7.32951 -0.0276187 0)
(7.33141 -0.0265347 0)
(7.33338 -0.0255881 0)
(7.33537 -0.0247934 0)
(7.33734 -0.0241498 0)
(7.33927 -0.0236485 0)
(7.34116 -0.0232771 0)
(7.34299 -0.0230224 0)
(7.34475 -0.0228716 0)
(7.34645 -0.0228129 0)
(7.34808 -0.0228359 0)
(7.34964 -0.0229318 0)
(7.35113 -0.0230928 0)
(7.35254 -0.0233125 0)
(7.35387 -0.0235856 0)
(7.35512 -0.0239077 0)
(7.3563 -0.0242752 0)
(7.35739 -0.024685 0)
(7.35841 -0.0251347 0)
(7.35934 -0.0256222 0)
(7.36019 -0.026146 0)
(7.36096 -0.0267047 0)
(7.36165 -0.0272971 0)
(7.36226 -0.0279225 0)
(7.36278 -0.028579 0)
(7.32967 0.0198551 0)
(7.32497 0.0369907 0)
(7.32931 0.0376763 0)
(7.3351 0.0322624 0)
(7.33875 0.0258432 0)
(7.34092 0.0195268 0)
(7.34273 0.0136217 0)
(7.34447 0.00833139 0)
(7.34622 0.00370177 0)
(7.34803 -0.000313779 0)
(7.34995 -0.00378447 0)
(7.35194 -0.00678195 0)
(7.35401 -0.0093753 0)
(7.35613 -0.0116272 0)
(7.35827 -0.0135923 0)
(7.36043 -0.0153174 0)
(7.36257 -0.016842 0)
(7.36469 -0.0181996 0)
(7.36678 -0.0194183 0)
(7.36881 -0.0205216 0)
(7.37079 -0.0215295 0)
(7.3727 -0.0224586 0)
(7.37454 -0.023323 0)
(7.37629 -0.0241346 0)
(7.37796 -0.0249035 0)
(7.37954 -0.0256384 0)
(7.38103 -0.0263466 0)
(7.38243 -0.0270345 0)
(7.38373 -0.0277074 0)
(7.38493 -0.0283699 0)
(7.38604 -0.0290263 0)
(7.38704 -0.0296796 0)
(7.38795 -0.0303334 0)
(7.32507 -0.0330843 0)
(7.29737 -0.0587788 0)
(7.27806 -0.0617206 0)
(7.27375 -0.0593588 0)
(7.28035 -0.055868 0)
(7.29179 -0.0518294 0)
(7.30504 -0.0478909 0)
(7.31876 -0.0443864 0)
(7.3322 -0.041365 0)
(7.34493 -0.0388092 0)
(7.35681 -0.0366817 0)
(7.36777 -0.0349312 0)
(7.37782 -0.0335037 0)
(7.387 -0.0323503 0)
(7.39537 -0.0314276 0)
(7.40298 -0.0306987 0)
(7.4099 -0.0301325 0)
(7.41617 -0.029703 0)
(7.42186 -0.029389 0)
(7.427 -0.0291727 0)
(7.43165 -0.02904 0)
(7.43583 -0.0289791 0)
(7.4396 -0.0289803 0)
(7.44297 -0.029036 0)
(7.44598 -0.0291395 0)
(7.44865 -0.0292858 0)
(7.45101 -0.0294705 0)
(7.45307 -0.02969 0)
(7.45487 -0.0299414 0)
(7.45642 -0.0302223 0)
(7.45773 -0.0305304 0)
(7.45881 -0.0308638 0)
(7.4597 -0.0312198 0)
(7.33915 0.134724 0)
(7.3762 0.127071 0)
(7.39341 0.0872002 0)
(7.38975 0.0533244 0)