/*--------------------------------*- C++ -*----------------------------------*\
  =========                 |
  \\      /  F ield         | OpenFOAM: The Open Source CFD Toolbox
   \\    /   O peration     | Website:  https://openfoam.org
    \\  /    A nd           | Version:  10
     \\/     M anipulation  |
\*---------------------------------------------------------------------------*/
FoamFile
{
    format      ascii;
    class       volScalarField;
    location    "0.16";
    object      epsilon;
}
// * * * * * * * * * * * * * * * * * * * * * * * * * * * * * * * * * * * * * //

dimensions      [0 2 -3 0 0 0 0];

internalField   nonuniform List<scalar> 
6820
(
23.2969
22.5752
21.9094
21.2853
20.7019
20.1632
19.6734
19.2344
18.8457
18.505
18.2093
17.9547
17.7374
17.5538
17.4001
17.2732
17.17
17.0879
17.0245
16.9775
16.945
16.9253
16.9168
16.9181
16.9281
16.9457
16.9694
17.0013
17.0271
17.1093
16.9529
17.9345
13.597
5.03386
6.8183
7.83931
8.46756
8.89799
9.23135
9.5215
9.79486
10.0634
10.3322
10.6031
10.8765
11.152
11.4292
11.7074
11.9862
12.2648
12.5427
12.8194
13.0944
13.3673
13.6377
13.9053
14.1701
14.4322
14.6919
14.9503
15.2095
15.4719
15.7566
16.0286
16.5596
16.5739
3.7036
4.14719
4.56526
4.91422
5.19793
5.43119
5.62803
5.79968
5.95457
6.09882
6.2367
6.37114
6.50404
6.63664
6.76966
6.90352
7.0384
7.17434
7.31129
7.44913
7.58772
7.7269
7.86651
8.00644
8.14661
8.28707
8.42789
8.56975
8.71261
8.86062
9.0087
9.17749
9.34045
3.54009
3.61093
3.72473
3.85372
3.98117
4.09941
4.2062
4.30196
4.38818
4.46663
4.53903
4.60688
4.67143
4.73367
4.79438
4.85413
4.91339
4.97245
5.03155
5.09083
5.15041
5.21034
5.27065
5.33138
5.39255
5.4542
5.51641
5.57938
5.64326
5.7088
5.77611
5.84647
5.92201
3.52064
3.50151
3.50498
3.52611
3.55867
3.59721
3.63779
3.67803
3.71663
3.75306
3.78722
3.81926
3.84944
3.87807
3.90544
3.93183
3.9575
3.98264
4.00743
4.03202
4.05651
4.08099
4.10555
4.13023
4.15509
4.18019
4.20559
4.23138
4.25766
4.28461
4.3124
4.34115
4.37118
3.5194
3.48247
3.45303
3.43232
3.41995
3.4145
3.41422
3.4175
3.42307
3.42997
3.43756
3.44543
3.45333
3.46113
3.46877
3.47623
3.48354
3.49074
3.49786
3.50494
3.51204
3.51918
3.52641
3.53376
3.54125
3.54892
3.55681
3.56496
3.57342
3.58225
3.59152
3.60128
3.61155
3.51943
3.47974
3.44283
3.40949
3.38025
3.35523
3.3342
3.31668
3.30212
3.28998
3.27976
3.27105
3.26354
3.25697
3.25114
3.24592
3.24121
3.23692
3.23302
3.22945
3.22619
3.22323
3.22055
3.21815
3.21602
3.21417
3.2126
3.21132
3.21035
3.20971
3.20941
3.20947
3.20989
3.51947
3.47943
3.44109
3.40466
3.37041
3.33852
3.30907
3.28205
3.25735
3.23479
3.21417
3.19529
3.17792
3.1619
3.14705
3.13322
3.1203
3.10819
3.0968
3.08605
3.0759
3.06628
3.05716
3.04851
3.0403
3.0325
3.02511
3.0181
3.01147
3.00521
2.99933
2.99383
2.98867
3.51948
3.47941
3.44085
3.40382
3.36835
3.33448
3.30225
3.27169
3.24279
3.21552
3.18982
3.16562
3.14281
3.12132
3.10104
3.08187
3.06373
3.04653
3.0302
3.01468
2.99991
2.98582
2.97237
2.95952
2.94723
2.93548
2.92422
2.91345
2.90313
2.89326
2.88381
2.87479
2.86615
3.51948
3.4794
3.44082
3.40368
3.36796
3.33361
3.30062
3.26897
3.23864
3.2096
3.18183
3.1553
3.12996
3.10576
3.08266
3.0606
3.03952
3.01938
3.00011
2.98167
2.96402
2.9471
2.93088
2.91531
2.90037
2.88601
2.87222
2.85896
2.84621
2.83395
2.82216
2.81083
2.79993
3.51948
3.4794
3.44081
3.40365
3.36788
3.33344
3.30027
3.26833
3.23758
3.20799
3.17951
3.15212
3.12577
3.10044
3.07609
3.05268
3.03018
3.00855
2.98774
2.96773
2.94848
2.92996
2.91212
2.89495
2.87841
2.86247
2.84711
2.8323
2.81802
2.80425
2.79097
2.77817
2.76582
3.51948
3.4794
3.4408
3.40364
3.36786
3.33339
3.30019
3.26818
3.23733
3.20758
3.17889
3.15122
3.12454
3.0988
3.07398
3.05003
3.02693
3.00464
2.98314
2.96239
2.94237
2.92304
2.90438
2.88636
2.86896
2.85215
2.83591
2.82022
2.80506
2.79041
2.77625
2.76257
2.74934
3.51948
3.4794
3.44079
3.40363
3.36784
3.33337
3.30015
3.26813
3.23725
3.20746
3.17872
3.15097
3.12419
3.09832
3.07334
3.04921
3.02589
3.00336
2.98158
2.96053
2.94017
2.92049
2.90146
2.88305
2.86524
2.848
2.83133
2.81519
2.79957
2.78446
2.76983
2.75567
2.74196
3.51948
3.47939
3.44079
3.40362
3.36783
3.33336
3.30013
3.2681
3.23721
3.20741
3.17865
3.15089
3.12407
3.09817
3.07314
3.04895
3.02556
3.00294
2.98107
2.95991
2.93943
2.91961
2.90043
2.88186
2.86387
2.84646
2.82959
2.81325
2.79742
2.78209
2.76723
2.75284
2.73888
3.51947
3.47939
3.44079
3.40362
3.36782
3.33334
3.30011
3.26808
3.23719
3.20738
3.17861
3.15084
3.12401
3.0981
3.07305
3.04884
3.02543
3.00279
2.98088
2.95969
2.93917
2.9193
2.90006
2.88143
2.86339
2.8459
2.82895
2.81253
2.79662
2.78119
2.76623
2.75173
2.73767
3.51947
3.47939
3.44078
3.40361
3.36782
3.33333
3.3001
3.26806
3.23716
3.20735
3.17858
3.1508
3.12397
3.09805
3.073
3.04878
3.02536
3.00271
2.98079
2.95958
2.93905
2.91917
2.89991
2.88126
2.86319
2.84568
2.8287
2.81225
2.7963
2.78083
2.76583
2.75129
2.73717
3.51947
3.47939
3.44078
3.40361
3.36781
3.33332
3.30009
3.26804
3.23714
3.20733
3.17855
3.15077
3.12393
3.09801
3.07295
3.04873
3.02531
3.00265
2.98073
2.95951
2.93897
2.91908
2.89982
2.88116
2.86308
2.84556
2.82857
2.81211
2.79614
2.78066
2.76564
2.75107
2.73694
3.51947
3.47939
3.44078
3.4036
3.3678
3.33331
3.30007
3.26803
3.23712
3.2073
3.17852
3.15074
3.1239
3.09797
3.07291
3.04869
3.02526
3.0026
2.98067
2.95945
2.93891
2.91902
2.89975
2.88108
2.863
2.84547
2.82848
2.81201
2.79603
2.78054
2.76551
2.75093
2.73678
3.51947
3.47939
3.44078
3.4036
3.3678
3.33331
3.30006
3.26802
3.23711
3.20728
3.1785
3.15071
3.12387
3.09794
3.07288
3.04865
3.02522
3.00255
2.98062
2.9594
2.93885
2.91896
2.89969
2.88102
2.86293
2.84539
2.8284
2.81192
2.79594
2.78044
2.7654
2.75081
2.73666
3.51947
3.47939
3.44077
3.4036
3.36779
3.3333
3.30006
3.26801
3.23709
3.20727
3.17848
3.15069
3.12384
3.09791
3.07284
3.04861
3.02518
3.00251
2.98058
2.95935
2.9388
2.9189
2.89963
2.88095
2.86286
2.84532
2.82832
2.81184
2.79585
2.78034
2.7653
2.7507
2.73654
3.51947
3.47939
3.44077
3.40359
3.36779
3.33329
3.30005
3.268
3.23708
3.20725
3.17846
3.15067
3.12382
3.09788
3.07281
3.04858
3.02514
3.00247
2.98054
2.9593
2.93875
2.91885
2.89957
2.88089
2.86279
2.84525
2.82825
2.81176
2.79576
2.78025
2.7652
2.7506
2.73642
3.51947
3.47938
3.44077
3.40359
3.36779
3.33329
3.30004
3.26799
3.23707
3.20724
3.17845
3.15065
3.1238
3.09786
3.07279
3.04855
3.02511
3.00244
2.9805
2.95926
2.93871
2.9188
2.89952
2.88083
2.86273
2.84519
2.82817
2.81168
2.79568
2.78016
2.76511
2.7505
2.73631
3.51947
3.47938
3.44077
3.40359
3.36778
3.33329
3.30004
3.26798
3.23706
3.20723
3.17844
3.15063
3.12378
3.09784
3.07276
3.04852
3.02508
3.0024
2.98046
2.95922
2.93866
2.91875
2.89947
2.88078
2.86267
2.84512
2.82811
2.81161
2.7956
2.78008
2.76502
2.7504
2.73621
3.51947
3.47938
3.44077
3.40359
3.36778
3.33328
3.30003
3.26797
3.23705
3.20722
3.17842
3.15062
3.12377
3.09782
3.07274
3.0485
3.02506
3.00238
2.98043
2.95919
2.93862
2.91871
2.89942
2.88073
2.86262
2.84506
2.82804
2.81154
2.79553
2.78
2.76493
2.75031
2.73611
3.51947
3.47938
3.44077
3.40359
3.36778
3.33328
3.30003
3.26797
3.23705
3.20721
3.17841
3.15061
3.12375
3.0978
3.07272
3.04848
3.02503
3.00235
2.9804
2.95916
2.93859
2.91867
2.89938
2.88068
2.86257
2.84501
2.82798
2.81147
2.79546
2.77992
2.76485
2.75022
2.73601
3.51947
3.47938
3.44077
3.40359
3.36778
3.33328
3.30003
3.26797
3.23704
3.20721
3.17841
3.1506
3.12374
3.09779
3.07271
3.04846
3.02501
3.00233
2.98038
2.95913
2.93856
2.91864
2.89934
2.88064
2.86252
2.84496
2.82793
2.81141
2.79539
2.77985
2.76477
2.75013
2.73592
3.51947
3.47938
3.44077
3.40359
3.36778
3.33328
3.30002
3.26796
3.23704
3.2072
3.1784
3.15059
3.12373
3.09778
3.07269
3.04844
3.02499
3.0023
2.98035
2.9591
2.93853
2.9186
2.8993
2.8806
2.86248
2.84491
2.82788
2.81136
2.79533
2.77978
2.7647
2.75005
2.73584
3.51947
3.47938
3.44077
3.40359
3.36778
3.33328
3.30002
3.26796
3.23704
3.2072
3.1784
3.15059
3.12373
3.09777
3.07269
3.04844
3.02498
3.00229
2.98034
2.95908
2.93851
2.91858
2.89928
2.88057
2.86244
2.84487
2.82783
2.81131
2.79528
2.77973
2.76463
2.74998
2.73576
3.51947
3.47938
3.44077
3.40359
3.36778
3.33327
3.30002
3.26796
3.23703
3.20719
3.17839
3.15058
3.12371
3.09776
3.07267
3.04842
3.02496
3.00227
2.98031
2.95906
2.93848
2.91855
2.89925
2.88054
2.86241
2.84483
2.82779
2.81126
2.79523
2.77967
2.76457
2.74992
2.73569
3.51947
3.47938
3.44077
3.40359
3.36778
3.33328
3.30003
3.26796
3.23704
3.2072
3.1784
3.15059
3.12373
3.09777
3.07268
3.04843
3.02497
3.00228
2.98032
2.95906
2.93848
2.91855
2.89924
2.88053
2.86239
2.84481
2.82777
2.81124
2.7952
2.77964
2.76454
2.74988
2.73564
3.51947
3.47939
3.44077
3.40359
3.36778
3.33328
3.30002
3.26796
3.23703
3.20719
3.17839
3.15058
3.12371
3.09776
3.07267
3.04842
3.02496
3.00227
2.98031
2.95905
2.93847
2.91854
2.89923
2.88052
2.86238
2.8448
2.82775
2.81122
2.79518
2.77962
2.76452
2.74986
2.73562
3.51947
3.47938
3.44077
3.40359
3.36779
3.3333
3.30005
3.268
3.23708
3.20725
3.17845
3.15064
3.12378
3.09783
3.07274
3.04848
3.02503
3.00233
2.98037
2.95912
2.93854
2.91861
2.8993
2.88059
2.86246
2.84489
2.82784
2.81132
2.79529
2.77973
2.76464
2.74999
2.73576
3.51948
3.4794
3.44079
3.40362
3.36782
3.33332
3.30007
3.26801
3.23709
3.20725
3.17845
3.15065
3.1238
3.09785
3.07278
3.04854
3.0251
3.00243
2.9805
2.95927
2.93872
2.91882
2.89955
2.88088
2.86279
2.84526
2.82826
2.81179
2.79581
2.78031
2.76528
2.75069
2.73653
3.51947
3.47939
3.44079
3.40365
3.36789
3.33343
3.30023
3.26821
3.23733
3.20754
3.17878
3.15103
3.12422
3.09834
3.07334
3.04918
3.02584
3.00327
2.98146
2.96036
2.93996
2.92022
2.90113
2.88264
2.86475
2.84743
2.83066
2.81441
2.79868
2.78343
2.76865
2.75432
2.74043
3.51949
3.47947
3.44095
3.40384
3.36811
3.33369
3.30054
3.26862
3.23789
3.2083
3.17981
3.15237
3.12594
3.1005
3.07599
3.05238
3.02964
3.00772
2.9866
2.96625
2.94662
2.9277
2.90945
2.89184
2.87484
2.85844
2.8426
2.8273
2.81252
2.79823
2.78442
2.77107
2.75816
3.5195
3.47953
3.44117
3.40446
3.36933
3.33572
3.30359
3.27291
3.24363
3.21571
3.18912
3.16379
3.13968
3.11672
3.09486
3.07404
3.05421
3.0353
3.01727
3.00006
2.98362
2.96791
2.95289
2.93851
2.92474
2.91154
2.89887
2.88671
2.87502
2.86378
2.85297
2.84255
2.83251
3.51969
3.48122
3.44561
3.41286
3.38296
3.35588
3.3315
3.30966
3.29013
3.2727
3.25716
3.24331
3.23094
3.2199
3.21001
3.20115
3.19318
3.18598
3.17947
3.17355
3.16814
3.16319
3.15861
3.15438
3.15043
3.14673
3.14324
3.13994
3.13679
3.13378
3.13088
3.12807
3.12535
3.52527
3.51369
3.51621
3.52949
3.55074
3.57792
3.60942
3.64396
3.68058
3.71854
3.75725
3.79625
3.8352
3.87382
3.91188
3.94924
3.98576
4.02136
4.05597
4.08956
4.12208
4.15355
4.18394
4.21326
4.24154
4.26878
4.29502
4.32026
4.34455
4.36791
4.39037
4.41196
4.43272
3.83318
4.36506
4.84913
5.31406
5.77438
6.22551
6.66314
7.08544
7.49203
7.88331
8.26003
8.62311
8.97343
9.31183
9.63906
9.95577
10.2625
10.5599
10.8483
11.1281
11.3997
11.6635
11.9197
12.1685
12.4104
12.6454
12.874
13.0962
13.3123
13.5225
13.7271
13.9262
14.1201
30.2663
32.7713
35.3126
37.865
40.4147
42.9529
45.4713
47.9623
50.4191
52.8354
55.2057
57.5252
59.7898
61.9961
64.1413
66.2232
68.2402
70.1913
72.0756
73.893
75.6435
77.3275
78.9458
80.4992
81.9888
83.416
84.7822
86.0889
87.3377
88.5305
89.6688
90.7544
91.7903
83.6099
235.416
416.461
583.534
709.972
786.501
817.157
812.895
786.075
747.148
703.526
659.767
618.278
580.062
545.334
513.924
485.522
459.803
436.47
415.265
395.964
378.359
362.258
347.477
333.839
321.175
309.326
298.145
287.495
277.255
267.313
257.573
247.949
238.368
228.77
219.107
209.343
199.456
189.436
179.286
169.024
158.679
148.295
137.928
127.645
117.52
107.636
98.0751
88.9208
80.2508
72.1339
64.627
57.7717
51.5926
46.0965
41.2733
37.0978
33.5329
30.5329
28.0467
26.0217
24.4052
23.1467
22.1981
21.5139
21.0506
20.7656
20.6163
20.5596
20.5514
20.5473
20.5034
20.3784
20.1353
19.7431
19.1787
18.4286
17.4895
16.3691
15.0868
13.6731
12.1691
10.6248
9.09658
7.64247
6.3161
5.15969
4.19776
3.43424
2.85438
2.43095
2.13183
1.92627
1.78823
1.69758
1.63931
1.60329
1.58175
1.57086
1.56799
19.7067
28.958
45.9798
71.4482
104.446
142.841
183.84
224.562
262.275
294.817
320.799
339.64
351.474
356.984
357.2
353.293
346.412
337.559
327.532
316.917
306.109
295.354
284.796
274.504
264.506
254.798
245.362
236.164
227.166
218.322
209.588
200.918
192.272
183.614
174.916
166.159
157.333
148.441
139.493
130.511
121.529
112.588
103.742
95.0504
86.5795
78.3987
70.5771
63.1804
56.267
49.8849
44.069
38.8394
34.2008
30.1422
26.6391
23.656
21.1494
19.072
17.3753
16.0127
14.9414
14.1228
13.5234
13.1138
12.8682
12.7627
12.7742
12.8788
13.0504
13.2603
13.4768
13.6663
13.7944
13.828
13.7381
13.5014
13.1031
12.5378
11.8111
10.9394
9.95044
8.8812
7.77634
6.6844
5.653
4.72308
3.92345
3.2674
2.75267
2.36491
2.08303
1.88435
1.74807
1.6569
1.59755
1.55998
1.53749
1.52467
1.51912
1.52002
9.50546
9.85649
10.8146
12.7847
16.0543
20.7863
27.0712
34.8314
44.0472
54.6765
66.5406
79.3135
92.5527
105.741
118.343
129.863
139.899
148.18
154.578
159.094
161.835
162.978
162.741
161.349
159.016
155.928
152.239
148.069
143.507
138.619
133.452
128.04
122.411
116.587
110.592
104.451
98.1918
91.8477
85.4565
79.0611
72.7091
66.4518
60.3439
54.4411
48.7985
43.4678
38.4943
33.9149
29.7553
26.0293
22.738
19.8706
17.4058
15.314
13.5603
12.1068
10.9155
9.95067
9.17991
8.57519
8.11302
7.77423
7.5435
7.40862
7.35968
7.38805
7.48535
7.64221
7.84712
8.08544
8.33875
8.58494
8.799
8.9546
9.02633
8.9922
8.83613
8.54997
8.13504
7.60271
6.9741
6.27874
5.55199
4.83144
4.15242
3.54353
3.02321
2.59848
2.26617
2.01591
1.8338
1.70534
1.61738
1.55889
1.52136
1.49815
1.48498
1.47802
1.47597
1.47887
6.00393
6.08597
6.1901
6.37048
6.68977
7.20593
7.96623
9.00164
10.3436
11.9909
13.9578
16.2699
18.9496
22.0069
25.4308
29.1838
33.1985
37.38
41.6106
45.7592
49.6918
53.2825
56.4241
59.0352
61.064
62.4875
63.3074
63.5451
63.2353
62.4208
61.149
59.4686
57.4285
55.0769
52.4616
49.6298
46.6289
43.5063
40.3094
37.0854
33.8806
30.7394
27.7038
24.8119
22.0968
19.5848
17.295
15.238
13.4162
11.8243
10.4507
9.27886
8.28938
7.46132
6.77389
6.20749
5.74445
5.36945
5.06961
4.83448
4.6558
4.52726
4.44421
4.40337
4.40246
4.43982
4.51391
4.62266
4.76276
4.92881
5.11259
5.30261
5.48406
5.63956
5.75047
5.79894
5.77013
5.65445
5.44926
5.15986
4.79944
4.3879
3.94965
3.5105
3.09428
2.71976
2.39873
2.13567
1.92887
1.77235
1.65803
1.5773
1.52224
1.48604
1.46335
1.44986
1.44288
1.43971
1.43979
1.44342
4.40632
4.44445
4.48223
4.52474
4.58063
4.66156
4.78044
4.94882
5.17773
5.47117
5.8297
6.25569
6.75207
7.32176
7.96709
8.68911
9.48696
10.3571
11.2927
12.2828
13.3116
14.3587
15.399
16.4043
17.3447
18.1909
18.9154
19.4948
19.9104
20.1496
20.2058
20.0788
19.7742
19.3031
18.6809
17.9273
17.0646
16.1168
15.1091
14.0664
13.0127
11.9701
10.9582
9.99343
9.08893
8.25405
7.49446
6.8124
6.2071
5.67542
5.21257
4.81269
4.46951
4.1767
3.92822
3.71853
3.54269
3.39646
3.27627
3.17927
3.10323
3.04657
3.00824
2.9877
2.98482
2.99975
3.03277
3.08401
3.1531
3.2387
3.33803
3.44633
3.55656
3.65944
3.74394
3.79835
3.81174
3.77573
3.68597
3.54332
3.35408
3.12944
2.88392
2.63333
2.39244
2.17309
1.98302
1.82568
1.70086
1.60571
1.53594
1.48675
1.45349
1.43205
1.41913
1.41196
1.40889
1.40796
1.40919
1.41269
3.62393
3.63789
3.65173
3.66584
3.68112
3.69937
3.72328
3.75604
3.80129
3.86136
3.93794
4.0321
4.14437
4.2749
4.42351
4.58965
4.77247
4.97071
5.1827
5.40625
5.63859
5.87624
6.11499
6.34996
6.57567
6.78626
6.97563
7.1378
7.2671
7.35854
7.40809
7.41296
7.37182
7.28491
7.15406
6.98261
6.77521
6.53758
6.27613
5.99763
5.70885
5.41621
5.12559
4.84208
4.5699
4.31234
4.07172
3.84952
3.6464
3.46237
3.29692
3.14917
3.018
2.90212
2.80023
2.71103
2.63329
2.56591
2.50793
2.45857
2.41722
2.3835
2.35722
2.33839
2.3272
2.324
2.32924
2.34336
2.36666
2.39905
2.43982
2.48733
2.53871
2.58975
2.63495
2.66792
2.68211
2.6718
2.63315
2.5651
2.46981
2.35254
2.22087
2.08353
1.94906
1.82462
1.71522
1.62352
1.55005
1.49368
1.4523
1.42328
1.404
1.39197
1.38522
1.38191
1.38113
1.38135
1.38303
1.38581
3.21077
3.21195
3.21317
3.21446
3.21588
3.21764
3.22016
3.22411
3.23041
3.23994
3.25353
3.2719
3.29556
3.3248
3.35969
3.40008
3.44565
3.49589
3.55012
3.60753
3.66716
3.72789
3.78846
3.84748
3.90348
3.95489
4.00013
4.03764
4.06596
4.08372
4.08978
4.08328
4.06366
4.03075
3.98477
3.92636
3.85652
3.77659
3.68816
3.593
3.49298
3.38995
3.2857
3.18188
3.07995
2.98114
2.88646
2.79667
2.71229
2.63362
2.56077
2.49369
2.4322
2.37602
2.32483
2.27824
2.23589
2.19742
2.16249
2.13084
2.10225
2.07662
2.0539
2.03416
2.01755
2.00432
1.99479
1.98931
1.9882
1.99167
1.99966
2.01173
2.02686
2.04333
2.0587
2.06989
2.0735
2.06625
2.04558
2.01023
1.96056
1.89868
1.82817
1.75347
1.67921
1.60949
1.54739
1.49477
1.45228
1.41957
1.39562
1.37903
1.36832
1.36201
1.35889
1.35776
1.35812
1.35874
1.36038
1.36208
2.98309
2.97694
2.97087
2.96485
2.95888
2.95298
2.9472
2.94165
2.93649
2.93194
2.92828
2.92577
2.92466
2.92517
2.92743
2.9315
2.93735
2.94488
2.95388
2.96408
2.97514
2.98665
2.99814
3.00911
3.01901
3.02728
3.03336
3.0367
3.03679
3.03316
3.02541
3.01321
2.99636
2.97475
2.94842
2.91752
2.88235
2.8433
2.80089
2.7557
2.70835
2.65952
2.60986
2.55999
2.51048
2.46184
2.41451
2.36884
2.32507
2.28339
2.24388
2.20656
2.17137
2.13823
2.10698
2.07747
2.04954
2.02302
1.99774
1.97357
1.95043
1.92823
1.90697
1.88669
1.86748
1.84949
1.83291
1.81797
1.80493
1.79399
1.7853
1.77881
1.77425
1.77103
1.76818
1.76437
1.758
1.74743
1.73123
1.70848
1.67906
1.64368
1.60392
1.56191
1.51999
1.48039
1.44487
1.41459
1.39004
1.37115
1.35744
1.34813
1.34238
1.33927
1.33809
1.33798
1.33871
1.33921
1.34051
1.34091
2.85656
2.84588
2.8353
2.82478
2.81433
2.80393
2.79357
2.78328
2.77305
2.76294
2.753
2.74331
2.73393
2.72495
2.71644
2.70845
2.701
2.6941
2.68771
2.68176
2.67615
2.67075
2.66538
2.65987
2.654
2.64754
2.64028
2.632
2.62247
2.61152
2.59896
2.58467
2.56854
2.55052
2.53062
2.50887
2.48538
2.46029
2.4338
2.40612
2.37753
2.34827
2.31863
2.28887
2.25923
2.22994
2.20117
2.17308
2.14578
2.11933
2.09376
2.06906
2.0452
2.02209
1.99966
1.9778
1.95641
1.93537
1.91459
1.89398
1.87349
1.85306
1.83268
1.81237
1.79219
1.77221
1.75258
1.73343
1.71494
1.69728
1.68062
1.66505
1.65059
1.63709
1.62427
1.61162
1.5985
1.5842
1.56802
1.54946
1.52836
1.50495
1.47986
1.45409
1.42876
1.405
1.38374
1.36563
1.35096
1.33972
1.33165
1.3263
1.32315
1.32162
1.32125
1.32141
1.322
1.32208
1.32283
1.32183
2.78774
2.77411
2.76057
2.74711
2.73373
2.72041
2.70714
2.69393
2.68077
2.66766
2.65461
2.64163
2.62873
2.61592
2.60322
2.59066
2.57823
2.56595
2.55382
2.54182
2.52992
2.51809
2.50628
2.49443
2.48245
2.47028
2.45781
2.44497
2.43167
2.41782
2.40337
2.38825
2.37241
2.35583
2.33851
2.32047
2.30173
2.28237
2.26245
2.24208
2.22136
2.20041
2.17934
2.15827
2.1373
2.11651
2.09599
2.07579
2.05593
2.03643
2.01728
1.99844
1.97987
1.9615
1.94326
1.92507
1.90685
1.88851
1.86999
1.85122
1.83215
1.81274
1.793
1.77292
1.75254
1.73192
1.71115
1.69032
1.66958
1.64905
1.62888
1.60921
1.59012
1.57168
1.55386
1.53654
1.51955
1.50263
1.48553
1.46804
1.45009
1.43175
1.41331
1.39519
1.37792
1.36204
1.34799
1.3361
1.32651
1.31918
1.31393
1.31048
1.30848
1.3075
1.30724
1.30719
1.30735
1.30679
1.3069
1.30446
2.75195
2.7364
2.72095
2.70557
2.69026
2.67502
2.65984
2.64473
2.62967
2.61467
2.59972
2.58483
2.57
2.55522
2.54049
2.52581
2.51119
2.49661
2.48208
2.46759
2.45314
2.43872
2.42431
2.40988
2.39543
2.38092
2.36633
2.35162
2.33676
2.32174
2.30651
2.29107
2.2754
2.25949
2.24334
2.22696
2.21036
2.19358
2.17664
2.15959
2.14247
2.12533
2.10822
2.09119
2.07426
2.05747
2.04084
2.02436
2.00805
1.99187
1.97579
1.95978
1.94378
1.92772
1.91154
1.89516
1.87853
1.86157
1.84422
1.82644
1.80818
1.78942
1.77015
1.75037
1.73011
1.70943
1.68837
1.66704
1.64552
1.62395
1.60243
1.58111
1.56011
1.53953
1.51947
1.49996
1.48103
1.46265
1.44479
1.42741
1.41053
1.3942
1.37856
1.36382
1.3502
1.33795
1.32726
1.31827
1.31102
1.30542
1.30135
1.29857
1.29683
1.2958
1.29523
1.2947
1.29424
1.29296
1.29237
1.28853
2.73446
2.71773
2.70108
2.68449
2.66796
2.65149
2.63508
2.61873
2.60244
2.58621
2.57004
2.55394
2.53789
2.52191
2.50599
2.49013
2.47431
2.45855
2.44283
2.42716
2.41153
2.39593
2.38036
2.36482
2.3493
2.33379
2.3183
2.3028
2.28729
2.27178
2.25625
2.2407
2.22514
2.20956
2.19396
2.17836
2.16276
2.14718
2.13164
2.11614
2.10071
2.08536
2.07011
2.05498
2.03996
2.02507
2.01028
1.99558
1.98096
1.96636
1.95176
1.9371
1.92233
1.90738
1.89221
1.87673
1.86089
1.84464
1.82791
1.81068
1.7929
1.77455
1.75563
1.73614
1.71611
1.69558
1.67461
1.65327
1.63164
1.60983
1.58796
1.56614
1.5445
1.52318
1.50227
1.48191
1.46217
1.44313
1.42487
1.40743
1.39087
1.37527
1.36071
1.34731
1.33518
1.32441
1.31508
1.30722
1.30081
1.29577
1.29195
1.28916
1.28719
1.28575
1.28465
1.28349
1.28233
1.28029
1.27898
1.27379
2.7265
2.70911
2.69176
2.67446
2.6572
2.63999
2.62283
2.60572
2.58866
2.57165
2.55471
2.53783
2.52101
2.50426
2.48758
2.47097
2.45442
2.43794
2.42153
2.40518
2.38888
2.37265
2.35648
2.34037
2.32432
2.30833
2.29239
2.27652
2.26071
2.24496
2.22929
2.21369
2.19817
2.18273
2.16738
2.15213
2.13699
2.12195
2.10703
2.09224
2.07757
2.06304
2.04864
2.03438
2.02023
2.00619
1.99224
1.97835
1.96449
1.95061
1.93667
1.92262
1.90841
1.89398
1.87927
1.86422
1.84877
1.83287
1.81647
1.79955
1.78206
1.76399
1.74534
1.72611
1.70633
1.68603
1.66527
1.64411
1.62264
1.60094
1.57913
1.55732
1.53563
1.51418
1.49311
1.47253
1.45258
1.43335
1.41495
1.39748
1.38103
1.36566
1.35146
1.33851
1.32685
1.31653
1.30757
1.29996
1.29364
1.28852
1.28447
1.28131
1.27885
1.27683
1.27508
1.27322
1.27134
1.26854
1.26654
1.26009
2.72313
2.70539
2.68768
2.66999
2.65233
2.63471
2.61712
2.59956
2.58205
2.56459
2.54717
2.52982
2.51252
2.49529
2.47813
2.46104
2.44402
2.42708
2.41021
2.39342
2.37671
2.36008
2.34353
2.32706
2.31068
2.29439
2.27819
2.26208
2.24608
2.23018
2.21439
2.19872
2.18318
2.16777
2.15249
2.13736
2.12238
2.10755
2.09287
2.07835
2.06399
2.04978
2.03572
2.0218
2.008
1.9943
1.98068
1.9671
1.95354
1.93993
1.92625
1.91244
1.89845
1.88422
1.8697
1.85482
1.83955
1.82382
1.8076
1.79086
1.77356
1.75569
1.73725
1.71825
1.6987
1.67865
1.65814
1.63724
1.61602
1.59457
1.57299
1.55139
1.52988
1.50858
1.48763
1.46714
1.44724
1.42805
1.40969
1.39225
1.37584
1.36054
1.34641
1.33352
1.3219
1.31157
1.30254
1.29475
1.28816
1.28267
1.27815
1.27444
1.27137
1.26869
1.26625
1.26369
1.26109
1.25755
1.25489
1.24727
2.72178
2.70387
2.68597
2.66809
2.65023
2.63238
2.61456
2.59677
2.57901
2.56129
2.54361
2.52598
2.5084
2.49087
2.47342
2.45602
2.43871
2.42146
2.4043
2.38721
2.37022
2.35331
2.3365
2.31978
2.30316
2.28665
2.27024
2.25395
2.23778
2.22174
2.20583
2.19007
2.17444
2.15898
2.14367
2.12852
2.11355
2.09874
2.08411
2.06965
2.05535
2.04122
2.02724
2.0134
1.99968
1.98605
1.97251
1.959
1.94549
1.93194
1.91831
1.90455
1.8906
1.87641
1.86194
1.84712
1.83191
1.81626
1.80014
1.78351
1.76634
1.74863
1.73037
1.71156
1.69224
1.67243
1.65218
1.63155
1.61061
1.58945
1.56816
1.54684
1.5256
1.50456
1.48384
1.46355
1.44383
1.42478
1.40653
1.38917
1.37279
1.35749
1.34333
1.33036
1.3186
1.30807
1.29876
1.29062
1.2836
1.27761
1.27253
1.2682
1.26447
1.26111
1.25798
1.25473
1.25144
1.2472
1.24393
1.23523
2.72122
2.70324
2.68525
2.66728
2.64931
2.63136
2.61342
2.59551
2.57761
2.55975
2.54192
2.52413
2.50639
2.4887
2.47106
2.45348
2.43597
2.41853
2.40117
2.38389
2.3667
2.34959
2.33259
2.31568
2.29888
2.28219
2.26561
2.24916
2.23284
2.21666
2.20061
2.18472
2.16899
2.15342
2.13802
2.12279
2.10773
2.09286
2.07816
2.06364
2.04928
2.0351
2.02106
2.00717
1.9934
1.97972
1.96612
1.95255
1.93899
1.92539
1.9117
1.89789
1.8839
1.86969
1.85519
1.84037
1.82517
1.80956
1.79349
1.77694
1.75987
1.74229
1.72418
1.70556
1.68644
1.66686
1.64687
1.62651
1.60586
1.585
1.56401
1.54299
1.52205
1.50129
1.48084
1.46079
1.44128
1.42241
1.40429
1.38702
1.37069
1.35538
1.34114
1.32803
1.31607
1.30526
1.2956
1.28705
1.27954
1.273
1.26732
1.26236
1.25798
1.25395
1.25015
1.24623
1.2423
1.23741
1.23357
1.22389
2.72096
2.70293
2.6849
2.66688
2.64886
2.63085
2.61285
2.59487
2.57691
2.55897
2.54105
2.52317
2.50533
2.48754
2.46979
2.45209
2.43446
2.41689
2.3994
2.38198
2.36464
2.3474
2.33024
2.31319
2.29624
2.2794
2.26268
2.24609
2.22963
2.2133
2.19713
2.1811
2.16524
2.14954
2.13401
2.11866
2.10348
2.08849
2.07367
2.05904
2.04457
2.03026
2.01611
2.0021
1.98821
1.97442
1.9607
1.94702
1.93334
1.91964
1.90585
1.89195
1.87788
1.8636
1.84905
1.8342
1.81899
1.80339
1.78735
1.77086
1.75388
1.73641
1.71845
1.69999
1.68107
1.66171
1.64196
1.62186
1.60149
1.58092
1.56023
1.53951
1.51887
1.4984
1.47821
1.45842
1.43913
1.42045
1.40247
1.38529
1.369
1.35366
1.33934
1.32607
1.31388
1.30278
1.29275
1.28376
1.27575
1.26866
1.26239
1.2568
1.25178
1.24711
1.24267
1.23812
1.23358
1.2281
1.22374
1.21318
2.72079
2.70274
2.68469
2.66663
2.64858
2.63054
2.6125
2.59448
2.57647
2.55848
2.54052
2.52258
2.50467
2.48681
2.46899
2.45121
2.43349
2.41584
2.39824
2.38072
2.36328
2.34592
2.32865
2.31148
2.29441
2.27745
2.2606
2.24388
2.22729
2.21083
2.19452
2.17837
2.16237
2.14653
2.13087
2.11538
2.10007
2.08493
2.06997
2.05519
2.04058
2.02613
2.01184
1.99768
1.98364
1.96971
1.95584
1.94202
1.92821
1.91438
1.90047
1.88646
1.8723
1.85793
1.84332
1.82842
1.81319
1.79758
1.78157
1.76513
1.74823
1.73086
1.71303
1.69474
1.676
1.65685
1.63733
1.61749
1.59738
1.57709
1.55669
1.53626
1.51591
1.49572
1.4758
1.45625
1.43717
1.41866
1.40082
1.38374
1.36748
1.35211
1.3377
1.32427
1.31185
1.30044
1.29004
1.28061
1.27212
1.26448
1.25763
1.25144
1.2458
1.24052
1.23547
1.23034
1.22524
1.21921
1.21438
1.20305
2.72065
2.70258
2.68451
2.66644
2.64836
2.6303
2.61223
2.59418
2.57614
2.55811
2.5401
2.52212
2.50417
2.48625
2.46838
2.45054
2.43276
2.41503
2.39736
2.37976
2.36223
2.34478
2.32741
2.31014
2.29296
2.27589
2.25894
2.2421
2.22539
2.20881
2.19238
2.17609
2.15996
2.14399
2.12819
2.11255
2.0971
2.08182
2.06671
2.05178
2.03701
2.02241
2.00796
1.99365
1.97945
1.96536
1.95134
1.93738
1.92342
1.90945
1.89542
1.8813
1.86703
1.85258
1.8379
1.82295
1.80768
1.79207
1.77608
1.75968
1.74285
1.72558
1.70788
1.68973
1.67117
1.65223
1.63293
1.61332
1.59348
1.57345
1.55332
1.53318
1.51309
1.49317
1.4735
1.45419
1.43531
1.41698
1.39926
1.38226
1.36602
1.35063
1.33612
1.32252
1.30987
1.29817
1.2874
1.27755
1.26857
1.26041
1.253
1.24623
1.24
1.23413
1.22852
1.22285
1.21723
1.2107
1.20546
1.19343
2.72052
2.70244
2.68435
2.66626
2.64817
2.63008
2.61199
2.59391
2.57584
2.55778
2.53975
2.52173
2.50374
2.48578
2.46785
2.44996
2.43212
2.41433
2.3966
2.37892
2.36132
2.34379
2.32634
2.30898
2.29171
2.27454
2.25748
2.24054
2.22372
2.20703
2.19047
2.17406
2.15781
2.14171
2.12577
2.11
2.0944
2.07897
2.06372
2.04863
2.03372
2.01896
2.00435
1.98988
1.97553
1.96128
1.94711
1.933
1.9189
1.90479
1.89064
1.87639
1.86202
1.84748
1.83273
1.81773
1.80244
1.78682
1.77084
1.75448
1.73772
1.72054
1.70295
1.68496
1.66656
1.64781
1.62872
1.60934
1.58974
1.56997
1.55011
1.53022
1.5104
1.49073
1.4713
1.4522
1.43352
1.41534
1.39775
1.38081
1.3646
1.34917
1.33456
1.3208
1.30792
1.29592
1.2848
1.27453
1.26508
1.25642
1.24846
1.24113
1.23434
1.22791
1.22176
1.21558
1.2095
1.20252
1.19691
1.1843
2.72039
2.7023
2.6842
2.66609
2.64798
2.62987
2.61176
2.59366
2.57556
2.55748
2.53941
2.52136
2.50333
2.48533
2.46736
2.44943
2.43154
2.41369
2.3959
2.37816
2.36049
2.34289
2.32536
2.30792
2.29057
2.27331
2.25615
2.23911
2.22219
2.20539
2.18872
2.1722
2.15582
2.13959
2.12352
2.10762
2.09188
2.07632
2.06092
2.04569
2.03062
2.01571
2.00095
1.98632
1.97182
1.95742
1.9431
1.92884
1.91461
1.90037
1.88609
1.87173
1.85726
1.84263
1.82781
1.81276
1.79744
1.78181
1.76584
1.74952
1.73282
1.71573
1.69825
1.68039
1.66216
1.64358
1.62469
1.60554
1.58617
1.56664
1.54702
1.52739
1.50782
1.48839
1.46919
1.45029
1.43179
1.41376
1.39627
1.3794
1.3632
1.34772
1.33301
1.31909
1.30598
1.29369
1.28221
1.27153
1.26163
1.25246
1.24398
1.23611
1.22876
1.22181
1.21515
1.2085
1.20198
1.19462
1.18868
1.17559
2.72027
2.70217
2.68405
2.66593
2.6478
2.62967
2.61155
2.59342
2.5753
2.55719
2.53909
2.52101
2.50295
2.48491
2.4669
2.44893
2.43099
2.41309
2.39524
2.37745
2.35971
2.34204
2.32445
2.30693
2.28949
2.27215
2.25491
2.23778
2.22075
2.20385
2.18708
2.17045
2.15395
2.13761
2.12142
2.10539
2.08952
2.07382
2.05828
2.04291
2.0277
2.01264
1.99773
1.98296
1.96831
1.95376
1.9393
1.9249
1.91053
1.89616
1.88176
1.8673
1.85273
1.83802
1.82313
1.80803
1.79267
1.77703
1.76108
1.74479
1.72815
1.71115
1.69377
1.67604
1.65796
1.63955
1.62085
1.60191
1.58276
1.56346
1.54408
1.52469
1.50535
1.48615
1.46716
1.44846
1.43013
1.41223
1.39484
1.37802
1.36183
1.3463
1.33148
1.31739
1.30405
1.29147
1.27963
1.26855
1.25818
1.24852
1.23951
1.2311
1.22322
1.21574
1.2086
1.20152
1.19462
1.18692
1.18072
1.16726
2.72016
2.70204
2.68391
2.66578
2.64763
2.62949
2.61134
2.59319
2.57505
2.55692
2.53879
2.52068
2.50259
2.48451
2.46647
2.44845
2.43047
2.41252
2.39462
2.37677
2.35898
2.34125
2.32359
2.306
2.28849
2.27107
2.25374
2.23652
2.2194
2.20241
2.18554
2.1688
2.1522
2.13574
2.11943
2.10328
2.08729
2.07146
2.05579
2.04028
2.02493
2.00974
1.99469
1.97977
1.96498
1.9503
1.9357
1.92116
1.90666
1.89217
1.87766
1.86309
1.84842
1.83364
1.81868
1.80353
1.78815
1.7725
1.75656
1.7403
1.72372
1.70679
1.68952
1.6719
1.65397
1.63573
1.61721
1.59846
1.57952
1.56045
1.5413
1.52213
1.50302
1.48404
1.46525
1.44673
1.42855
1.41078
1.39348
1.37671
1.36051
1.34492
1.32999
1.31572
1.30214
1.28925
1.27705
1.26554
1.25471
1.24453
1.23498
1.22602
1.2176
1.20962
1.20202
1.19454
1.18731
1.17934
1.17296
1.15929
2.72005
2.70192
2.68378
2.66563
2.64747
2.62931
2.61114
2.59298
2.57481
2.55665
2.5385
2.52036
2.50224
2.48413
2.46605
2.448
2.42997
2.41198
2.39404
2.37614
2.35829
2.3405
2.32277
2.30512
2.28754
2.27004
2.25264
2.23534
2.21814
2.20105
2.18408
2.16724
2.15054
2.13398
2.11756
2.10129
2.08518
2.06923
2.05344
2.0378
2.02232
2.007
1.99181
1.97676
1.96184
1.94702
1.93229
1.91762
1.903
1.88839
1.87377
1.8591
1.84435
1.82949
1.81447
1.79928
1.78387
1.76821
1.75228
1.73606
1.71952
1.70267
1.6855
1.668
1.6502
1.63212
1.61378
1.59523
1.57649
1.55763
1.5387
1.51975
1.50086
1.48208
1.46349
1.44514
1.42711
1.40946
1.39223
1.37549
1.35927
1.34362
1.32854
1.31408
1.30024
1.28702
1.27442
1.26245
1.25111
1.24038
1.23026
1.22073
1.21176
1.20328
1.19526