/*--------------------------------*- C++ -*----------------------------------*\
  =========                 |
  \\      /  F ield         | OpenFOAM: The Open Source CFD Toolbox
   \\    /   O peration     | Website:  https://openfoam.org
    \\  /    A nd           | Version:  10
     \\/     M anipulation  |
\*---------------------------------------------------------------------------*/
FoamFile
{
    format      ascii;
    class       volScalarField;
    location    "0.16";
    object      k;
}
// * * * * * * * * * * * * * * * * * * * * * * * * * * * * * * * * * * * * * //

dimensions      [0 2 -2 0 0 0 0];

internalField   nonuniform List<scalar> 
6820
(
0.196709
0.190616
0.184994
0.179724
0.174798
0.17025
0.166114
0.162407
0.159125
0.156249
0.153752
0.151602
0.149768
0.148217
0.146919
0.145848
0.144977
0.144283
0.143748
0.143351
0.143077
0.14291
0.142838
0.14285
0.142934
0.143083
0.143283
0.143552
0.14377
0.144464
0.143144
0.151433
0.114801
0.201954
0.200832
0.197543
0.193922
0.19084
0.188584
0.187154
0.186429
0.18626
0.186513
0.187084
0.187892
0.188876
0.189992
0.191205
0.19249
0.193827
0.195199
0.196593
0.198
0.199411
0.200819
0.20222
0.203612
0.204992
0.206363
0.207731
0.209109
0.210515
0.212081
0.213573
0.216734
0.217471
0.200488
0.200474
0.199118
0.19707
0.194841
0.19269
0.190724
0.188986
0.187488
0.186231
0.185204
0.184392
0.183775
0.183334
0.18305
0.182903
0.182877
0.182957
0.183129
0.18338
0.183701
0.184082
0.184515
0.184993
0.18551
0.186062
0.186646
0.187266
0.187912
0.188629
0.189333
0.190239
0.190945
0.199662
0.199121
0.198219
0.196983
0.195545
0.194012
0.192458
0.190931
0.189463
0.188073
0.186776
0.185577
0.184479
0.183482
0.182583
0.181778
0.181063
0.180432
0.179879
0.179399
0.178987
0.178636
0.178343
0.178103
0.177912
0.177766
0.177663
0.177604
0.177584
0.177615
0.177687
0.177823
0.178013
0.199429
0.198466
0.197531
0.196513
0.195399
0.194214
0.192986
0.19174
0.190495
0.189267
0.188069
0.186909
0.185793
0.184727
0.183713
0.182753
0.181846
0.180992
0.180191
0.17944
0.178739
0.178084
0.177474
0.176907
0.17638
0.175893
0.175443
0.175029
0.174652
0.174312
0.174007
0.173738
0.173505
0.199398
0.198267
0.197202
0.196166
0.195133
0.194088
0.193029
0.191959
0.190884
0.189812
0.18875
0.187704
0.186678
0.185677
0.184704
0.183761
0.182849
0.181971
0.181126
0.180314
0.179537
0.178792
0.178079
0.177399
0.176749
0.17613
0.17554
0.174979
0.174446
0.173942
0.173466
0.173017
0.172595
0.199395
0.19822
0.197098
0.196021
0.194978
0.193957
0.192952
0.191958
0.190973
0.189997
0.189032
0.188079
0.18714
0.186218
0.185314
0.18443
0.183567
0.182726
0.181908
0.181114
0.180343
0.179596
0.178873
0.178173
0.177498
0.176845
0.176215
0.175608
0.175024
0.174461
0.173921
0.173403
0.172906
0.199395
0.198211
0.197069
0.195969
0.194908
0.193881
0.192884
0.191912
0.190961
0.190029
0.189115
0.188218
0.187337
0.186472
0.185625
0.184795
0.183982
0.183188
0.182411
0.181654
0.180915
0.180195
0.179494
0.178812
0.178148
0.177504
0.176878
0.17627
0.175681
0.17511
0.174557
0.174022
0.173506
0.199395
0.198209
0.197063
0.195955
0.194884
0.19385
0.192848
0.191877
0.190934
0.190017
0.189123
0.188251
0.1874
0.186568
0.185756
0.184961
0.184185
0.183427
0.182685
0.181961
0.181255
0.180565
0.179892
0.179235
0.178595
0.177971
0.177364
0.176772
0.176196
0.175637
0.175093
0.174564
0.174052
0.199395
0.198209
0.197061
0.195951
0.194877
0.193838
0.192833
0.191859
0.190916
0.190001
0.189113
0.18825
0.187411
0.186594
0.185799
0.185023
0.184268
0.183531
0.182813
0.182112
0.181428
0.180762
0.180111
0.179477
0.178858
0.178255
0.177667
0.177094
0.176535
0.175992
0.175462
0.174947
0.174447
0.199395
0.198209
0.197061
0.19595
0.194875
0.193834
0.192827
0.191852
0.190907
0.189992
0.189104
0.188243
0.187407
0.186595
0.185807
0.18504
0.184294
0.183568
0.182862
0.182174
0.181504
0.180852
0.180216
0.179597
0.178993
0.178405
0.177832
0.177274
0.17673
0.1762
0.175684
0.175182
0.174694
0.199395
0.198209
0.19706
0.195949
0.194874
0.193833
0.192825
0.191849
0.190903
0.189987
0.189099
0.188237
0.187402
0.186592
0.185805
0.185041
0.184298
0.183577
0.182876
0.182195
0.181531
0.180886
0.180259
0.179648
0.179053
0.178474
0.177911
0.177362
0.176828
0.176307
0.175801
0.175309
0.174829
0.199395
0.198209
0.19706
0.195949
0.194873
0.193832
0.192824
0.191847
0.190901
0.189984
0.189096
0.188234
0.187398
0.186588
0.185801
0.185038
0.184297
0.183577
0.182878
0.182198
0.181538
0.180896
0.180272
0.179665
0.179075
0.178501
0.177942
0.177399
0.17687
0.176355
0.175855
0.175368
0.174894
0.199395
0.198209
0.19706
0.195949
0.194873
0.193831
0.192823
0.191846
0.1909
0.189983
0.189094
0.188232
0.187396
0.186585
0.185798
0.185035
0.184294
0.183574
0.182876
0.182197
0.181537
0.180897
0.180274
0.179669
0.17908
0.178508
0.177952
0.177411
0.176885
0.176373
0.175875
0.175391
0.174921
0.199395
0.198208
0.19706
0.195948
0.194872
0.193831
0.192822
0.191845
0.190899
0.189981
0.189092
0.18823
0.187394
0.186583
0.185796
0.185032
0.184291
0.183572
0.182873
0.182194
0.181535
0.180895
0.180272
0.179668
0.17908
0.178508
0.177953
0.177413
0.176888
0.176377
0.17588
0.175398
0.174928
0.199395
0.198208
0.19706
0.195948
0.194872
0.19383
0.192822
0.191845
0.190898
0.18998
0.189091
0.188229
0.187392
0.186581
0.185794
0.18503
0.184289
0.183569
0.18287
0.182192
0.181532
0.180892
0.18027
0.179665
0.179077
0.178506
0.177951
0.177411
0.176886
0.176375
0.175879
0.175397
0.174927
0.199395
0.198208
0.19706
0.195948
0.194872
0.19383
0.192821
0.191844
0.190897
0.189979
0.18909
0.188227
0.187391
0.18658
0.185793
0.185029
0.184287
0.183567
0.182868
0.182189
0.18153
0.180889
0.180267
0.179662
0.179074
0.178503
0.177948
0.177408
0.176883
0.176372
0.175876
0.175393
0.174924
0.199395
0.198208
0.19706
0.195948
0.194872
0.19383
0.192821
0.191843
0.190896
0.189979
0.189089
0.188226
0.18739
0.186578
0.185791
0.185027
0.184285
0.183565
0.182866
0.182187
0.181528
0.180887
0.180265
0.17966
0.179072
0.1785
0.177945
0.177405
0.176879
0.176369
0.175872
0.175389
0.17492
0.199395
0.198208
0.197059
0.195948
0.194871
0.193829
0.19282
0.191843
0.190896
0.189978
0.189088
0.188225
0.187389
0.186577
0.18579
0.185026
0.184284
0.183564
0.182864
0.182185
0.181526
0.180885
0.180262
0.179657
0.179069
0.178497
0.177942
0.177401
0.176876
0.176365
0.175868
0.175385
0.174915
0.199395
0.198208
0.197059
0.195948
0.194871
0.193829
0.19282
0.191842
0.190895
0.189977
0.189087
0.188225
0.187388
0.186576
0.185789
0.185024
0.184282
0.183562
0.182863
0.182183
0.181524
0.180883
0.18026
0.179655
0.179066
0.178495
0.177939
0.177398
0.176873
0.176362
0.175864
0.175381
0.17491
0.199395
0.198208
0.197059
0.195947
0.194871
0.193829
0.19282
0.191842
0.190895
0.189977
0.189087
0.188224
0.187387
0.186575
0.185787
0.185023
0.184281
0.183561
0.182861
0.182182
0.181522
0.180881
0.180258
0.179652
0.179064
0.178492
0.177936
0.177395
0.176869
0.176358
0.175861
0.175377
0.174906
0.199395
0.198208
0.197059
0.195947
0.194871
0.193829
0.19282
0.191842
0.190894
0.189976
0.189086
0.188223
0.187386
0.186574
0.185787
0.185022
0.18428
0.183559
0.18286
0.18218
0.18152
0.180879
0.180256
0.17965
0.179062
0.17849
0.177933
0.177392
0.176866
0.176355
0.175857
0.175373
0.174902
0.199395
0.198208
0.197059
0.195947
0.194871
0.193829
0.192819
0.191842
0.190894
0.189976
0.189086
0.188223
0.187386
0.186574
0.185786
0.185021
0.184279
0.183558
0.182858
0.182179
0.181519
0.180877
0.180254
0.179648
0.17906
0.178487
0.177931
0.17739
0.176863
0.176352
0.175854
0.175369
0.174898
0.199395
0.198208
0.197059
0.195947
0.194871
0.193829
0.192819
0.191841
0.190894
0.189976
0.189085
0.188222
0.187385
0.186573
0.185785
0.18502
0.184278
0.183557
0.182857
0.182178
0.181517
0.180876
0.180252
0.179647
0.179058
0.178485
0.177928
0.177387
0.176861
0.176349
0.17585
0.175366
0.174894
0.199395
0.198208
0.197059
0.195947
0.194871
0.193829
0.192819
0.191841
0.190894
0.189975
0.189085
0.188222
0.187385
0.186572
0.185784
0.185019
0.184277
0.183556
0.182856
0.182176
0.181516
0.180874
0.180251
0.179645
0.179056
0.178483
0.177926
0.177385
0.176858
0.176346
0.175847
0.175362
0.17489
0.199395
0.198208
0.197059
0.195947
0.194871
0.193828
0.192819
0.191841
0.190894
0.189975
0.189085
0.188221
0.187384
0.186572
0.185784
0.185019
0.184276
0.183555
0.182855
0.182175
0.181515
0.180873
0.180249
0.179643
0.179054
0.178481
0.177924
0.177382
0.176855
0.176343
0.175844
0.175359
0.174887
0.199395
0.198208
0.197059
0.195947
0.194871
0.193828
0.192819
0.191841
0.190893
0.189975
0.189085
0.188221
0.187384
0.186571
0.185783
0.185018
0.184276
0.183555
0.182854
0.182174
0.181514
0.180872
0.180248
0.179642
0.179052
0.178479
0.177922
0.17738
0.176853
0.17634
0.175841
0.175356
0.174883
0.199395
0.198208
0.197059
0.195947
0.194871
0.193828
0.192819
0.191841
0.190893
0.189975
0.189084
0.188221
0.187384
0.186571
0.185783
0.185018
0.184275
0.183554
0.182854
0.182174
0.181513
0.180871
0.180247
0.179641
0.179051
0.178478
0.17792
0.177378
0.176851
0.176338
0.175839
0.175353
0.174881
0.199395
0.198208
0.197059
0.195947
0.194871
0.193828
0.192819
0.191841
0.190893
0.189975
0.189084
0.188221
0.187383
0.186571
0.185782
0.185017
0.184275
0.183554
0.182853
0.182173
0.181512
0.18087
0.180246
0.179639
0.17905
0.178476
0.177919
0.177377
0.176849
0.176336
0.175837
0.175351
0.174878
0.199395
0.198208
0.197059
0.195947
0.194871
0.193828
0.192819
0.191841
0.190894
0.189975
0.189085
0.188221
0.187384
0.186571
0.185783
0.185018
0.184275
0.183554
0.182853
0.182173
0.181512
0.18087
0.180246
0.179639
0.179049
0.178476
0.177918
0.177376
0.176848
0.176335
0.175835
0.175349
0.174876
0.199395
0.198208
0.197059
0.195947
0.194871
0.193828
0.192819
0.191841
0.190893
0.189975
0.189084
0.188221
0.187383
0.186571
0.185783
0.185018
0.184275
0.183554
0.182853
0.182173
0.181512
0.18087
0.180246
0.179639
0.179049
0.178475
0.177918
0.177375
0.176847
0.176334
0.175834
0.175348
0.174875
0.199395
0.198208
0.197059
0.195948
0.194871
0.193829
0.19282
0.191843
0.190895
0.189977
0.189087
0.188223
0.187386
0.186574
0.185785
0.18502
0.184277
0.183556
0.182856
0.182175
0.181514
0.180872
0.180247
0.17964
0.17905
0.178477
0.177919
0.177376
0.176848
0.176334
0.175834
0.175348
0.174874
0.199395
0.198209
0.19706
0.195949
0.194872
0.19383
0.192821
0.191843
0.190896
0.189977
0.189087
0.188224
0.187387
0.186575
0.185786
0.185021
0.184279
0.183558
0.182857
0.182177
0.181516
0.180873
0.180249
0.179642
0.179052
0.178478
0.177919
0.177376
0.176847
0.176333
0.175833
0.175345
0.174871
0.199395
0.198208
0.19706
0.19595
0.194875
0.193835
0.192827
0.191851
0.190905
0.189987
0.189097
0.188234
0.187397
0.186585
0.185796
0.185031
0.184288
0.183566
0.182865
0.182183
0.181521
0.180878
0.180252
0.179644
0.179052
0.178476
0.177916
0.177371
0.17684
0.176323
0.17582
0.17533
0.174853
0.199396
0.198212
0.197066
0.195957
0.194883
0.193842
0.192834
0.191857
0.190911
0.189993
0.189104
0.188241
0.187403
0.186591
0.185801
0.185035
0.18429
0.183566
0.182862
0.182178
0.181512
0.180864
0.180234
0.179621
0.179024
0.178442
0.177876
0.177324
0.176787
0.176263
0.175753
0.175255
0.174771
0.199396
0.198213
0.197071
0.195969
0.194902
0.193869
0.192866
0.191893
0.190947
0.190029
0.189137
0.18827
0.187426
0.186606
0.185808
0.185032
0.184276
0.18354
0.182824
0.182125
0.181445
0.180783
0.180137
0.179507
0.178893
0.178294
0.17771
0.177141
0.176585
0.176043
0.175514
0.174998
0.174494
0.199402
0.19824
0.197114
0.196018
0.194952
0.193916
0.192908
0.191927
0.190972
0.19004
0.189131
0.188245
0.18738
0.186536
0.185712
0.184908
0.184123
0.183357
0.182609
0.181879
0.181166
0.18047
0.179791
0.179127
0.178479
0.177847
0.177229
0.176625
0.176035
0.175459
0.174896
0.174346
0.173808
0.199421
0.198284
0.197214
0.196182
0.195158
0.194136
0.193118
0.19211
0.191116
0.190141
0.189187
0.188255
0.187346
0.186461
0.185598
0.184758
0.18394
0.183142
0.182365
0.181607
0.180867
0.180146
0.179442
0.178755
0.178084
0.177429
0.17679
0.176165
0.175554
0.174958
0.174375
0.173806
0.173249
0.199655
0.198885
0.198077
0.197302
0.196604
0.195976
0.195405
0.194881
0.194398
0.193952
0.193543
0.193168
0.192828
0.192521
0.192245
0.192
0.191785
0.191596
0.191434
0.191297
0.191182
0.191089
0.191016
0.190962
0.190926
0.190906
0.190902
0.190912
0.190935
0.190971
0.191019
0.191077
0.191146
0.205419
0.216602
0.227661
0.238503
0.249093
0.259416
0.269459
0.279212
0.288667
0.297818
0.30666
0.315191
0.323409
0.331317
0.338917
0.346211
0.353206
0.359907
0.36632
0.372452
0.378311
0.383905
0.389243
0.394332
0.399182
0.403801
0.408198
0.412382
0.41636
0.420142
0.423736
0.427149
0.430394
0.318627
0.635591
0.958685
1.24748
1.48159
1.65328
1.76577
1.82971
1.85865
1.86513
1.85881
1.84607
1.83065
1.81445
1.79836
1.78279
1.76798
1.75416
1.74151
1.7302
1.72032
1.71188
1.7048
1.69893
1.69405
1.68986
1.68604
1.6822
1.67795
1.67286
1.66651
1.65845
1.64827
1.63558
1.61999
1.60118
1.57887
1.55282
1.52287
1.48892
1.45096
1.40906
1.36341
1.31428
1.26207
1.20728
1.1505
1.09243
1.0338
0.975411
0.918084
0.862617
0.809766
0.760204
0.7145
0.673091
0.636281
0.604237
0.577001
0.554512
0.536618
0.523103
0.513696
0.50808
0.505897
0.506739
0.510137
0.515555
0.522376
0.529907
0.537388
0.544011
0.548955
0.551422
0.550676
0.546089
0.537171
0.523609
0.505296
0.482356
0.455167
0.424378
0.39091
0.35594
0.320841
0.287073
0.256021
0.22879
0.206038
0.187906
0.174088
0.163985
0.156893
0.152131
0.149119
0.147386
0.146599
0.146485
0.146805
0.148179
0.231831
0.262158
0.307781
0.369451
0.44674
0.53764
0.638447
0.744171
0.849183
0.948293
1.03747
1.11422
1.17757
1.2279
1.26653
1.29531
1.31623
1.33115
1.34158
1.34872
1.35341
1.35621
1.35753
1.35762
1.35663
1.35463
1.3516
1.34748
1.34212
1.33531
1.32683
1.31642
1.3038
1.2887
1.27089
1.25015
1.2263
1.19923
1.16889
1.13527
1.09848
1.05869
1.01617
0.971298
0.924532
0.87642
0.827582
0.778685
0.730425
0.683494
0.638551
0.596194
0.556928
0.521143
0.489105
0.460953
0.43671
0.416303
0.39959
0.386385
0.37648
0.369661
0.365719
0.36445
0.365642
0.36907
0.374468
0.381511
0.389798
0.398833
0.408029
0.416719
0.424183
0.429688
0.432532
0.432093
0.427879
0.419566
0.407036
0.390408
0.370055
0.346615
0.320974
0.294225
0.267591
0.242289
0.21938
0.199615
0.18335
0.170557
0.160916
0.153948
0.149134
0.145987
0.144101
0.143137
0.142865
0.143084
0.143603
0.145092
0.191943
0.194278
0.1991
0.207076
0.218493
0.233642
0.252977
0.276966
0.306199
0.341117
0.381699
0.427362
0.476999
0.529071
0.581798
0.633374
0.682193
0.727008
0.767012
0.801827
0.831437
0.856089
0.876187
0.892201
0.904591
0.91376
0.920029
0.923624
0.924686
0.923282
0.919422
0.913075
0.904187
0.892694
0.87854
0.861689
0.842136
0.81992
0.795127
0.767904
0.738458
0.707068
0.674081
0.639912
0.605035
0.569966
0.535245
0.501406
0.468956
0.438348
0.409958
0.384066
0.360854
0.3404
0.322689
0.307631
0.295085
0.284882
0.276843
0.270804
0.266616
0.26416
0.263343
0.26409
0.26634
0.270032
0.275081
0.281363
0.288688
0.296779
0.305262
0.313661
0.321415
0.327909
0.332517
0.334655
0.333836
0.329718
0.322153
0.311215
0.297218
0.280716
0.262477
0.24342
0.224529
0.206728
0.190765
0.177123
0.165989
0.157295
0.150796
0.146159
0.143028
0.14107
0.140008
0.139602
0.139695
0.14014
0.140786
0.142315
0.178178
0.178353
0.178747
0.17956
0.180936
0.182987
0.185813
0.189519
0.19426
0.200173
0.20747
0.216409
0.22725
0.240211
0.255423
0.27289
0.292464
0.313831
0.336532
0.359996
0.383584
0.406653
0.428606
0.448936
0.467248
0.483267
0.496823
0.507826
0.51625
0.522105
0.525423
0.526249
0.524639
0.520654
0.514372
0.505887
0.495319
0.482816
0.468562
0.452774
0.435705
0.417644
0.398908
0.379836
0.360778
0.342079
0.324058
0.306997
0.291122
0.276598
0.263523
0.251936
0.241819
0.233116
0.22574
0.21959
0.214561
0.210555
0.207486
0.205288
0.203911
0.203326
0.203523
0.204504
0.206287
0.208887
0.212317
0.216567
0.221586
0.227269
0.23343
0.239797
0.246006
0.251619
0.256148
0.259106
0.260053
0.258655
0.254728
0.248279
0.239516
0.228852
0.216868
0.204251
0.191718
0.179919
0.16936
0.160356
0.153028
0.147332
0.143115
0.140163
0.138247
0.137146
0.136673
0.136661
0.137003
0.137593
0.138309
0.139819
0.173236
0.172913
0.172616
0.172394
0.172283
0.172314
0.172517
0.172912
0.173524
0.174371
0.175473
0.176869
0.178611
0.180758
0.183373
0.186518
0.190248
0.194607
0.199617
0.20527
0.211527
0.218306
0.225486
0.232912
0.2404
0.247751
0.254763
0.261239
0.266999
0.271887
0.275776
0.278569
0.280204
0.280653
0.279918
0.278036
0.275072
0.271119
0.266293
0.260731
0.254583
0.248011
0.241178
0.234247
0.22737
0.220685
0.214308
0.208328
0.202808
0.197788
0.193281
0.189287
0.185788
0.182758
0.18017
0.177989
0.176188
0.174739
0.173624
0.17283
0.172354
0.1722
0.172384
0.172926
0.173857
0.175211
0.177019
0.179308
0.182085
0.185329
0.188973
0.192892
0.196894
0.20072
0.204055
0.206555
0.207884
0.207758
0.205992
0.202534
0.197486
0.191099
0.183756
0.175914
0.168054
0.160609
0.153919
0.148202
0.143554
0.139964
0.137351
0.135585
0.134524
0.134023
0.133957
0.13421
0.134712
0.135382
0.136127
0.137574
0.172124
0.171587
0.171055
0.170538
0.170047
0.169591
0.169182
0.168832
0.168548
0.168333
0.168191
0.168125
0.168142
0.168248
0.168455
0.168775
0.16922
0.169801
0.17053
0.171415
0.172457
0.173655
0.174997
0.176465
0.178032
0.179662
0.181314
0.182938
0.184481
0.185892
0.187117
0.188109
0.188828
0.189242
0.189331
0.189087
0.188515
0.187631
0.186462
0.185043
0.183417
0.181628
0.179726
0.177757
0.175767
0.173796
0.171879
0.170046
0.168317
0.166707
0.165225
0.163875
0.162656
0.161565
0.160596
0.159743
0.159
0.158363
0.157828
0.157397
0.157075
0.156869
0.156795
0.156869
0.157116
0.157561
0.158235
0.159163
0.160367
0.161853
0.163606
0.165581
0.16769
0.169803
0.171744
0.173309
0.174277
0.174448
0.173672
0.171874
0.169083
0.165426
0.161123
0.156452
0.151712
0.147182
0.143088
0.139584
0.136747
0.13459
0.133071
0.132116
0.131637
0.131539
0.131742
0.132161
0.132753
0.133456
0.134196
0.135551
0.17235
0.171723
0.171097
0.170476
0.169861
0.169256
0.168665
0.168091
0.16754
0.167013
0.166514
0.166043
0.165602
0.165192
0.164815
0.164473
0.164167
0.1639
0.163674
0.163493
0.163356
0.163265
0.163219
0.163215
0.163249
0.163315
0.163403
0.163503
0.163604
0.163693
0.163757
0.163781
0.163755
0.163666
0.163508
0.163273
0.162959
0.162568
0.162102
0.161569
0.160978
0.160338
0.159662
0.158962
0.15825
0.157537
0.156833
0.156146
0.155483
0.154848
0.154244
0.153672
0.15313
0.152616
0.152129
0.151664
0.15122
0.150793
0.150384
0.149992
0.149622
0.149278
0.148969
0.148707
0.148507
0.148387
0.148367
0.148467
0.148708
0.149102
0.149654
0.150352
0.151163
0.152028
0.15286
0.153549
0.153971
0.154
0.153534
0.152509
0.150918
0.148817
0.14632
0.143582
0.140783
0.138093
0.135659
0.133586
0.131933
0.130717
0.12992
0.129498
0.129399
0.129559
0.129926
0.130437
0.131069
0.131767
0.13248
0.133723
0.172924
0.172268
0.171611
0.170954
0.170298
0.169644
0.168994
0.168349
0.167712
0.167083
0.166466
0.16586
0.165267
0.164688
0.164123
0.163574
0.16304
0.162522
0.162021
0.161538
0.161072
0.160626
0.160198
0.159789
0.159398
0.159023
0.158664
0.158319
0.157983
0.157656
0.157332
0.15701
0.156685
0.156354
0.156015
0.155666
0.155306
0.154933
0.15455
0.154156
0.153753
0.153346
0.152935
0.152525
0.152118
0.151715
0.15132
0.150934
0.150555
0.150185
0.149822
0.149464
0.149107
0.148748
0.148385
0.148013
0.147629
0.147231
0.146816
0.146383
0.145935
0.145472
0.144999
0.144524
0.144055
0.143603
0.143182
0.142806
0.142491
0.14225
0.142092
0.142019
0.142024
0.142085
0.142163
0.142206
0.142149
0.141924
0.141469
0.14074
0.139722
0.138437
0.136939
0.135314
0.133661
0.132082
0.130667
0.129485
0.128576
0.127955
0.127614
0.127527
0.12766
0.127971
0.128425
0.128975
0.129607
0.130276
0.130946
0.132065
0.173472
0.172818
0.172161
0.171503
0.170842
0.170181
0.16952
0.168859
0.168199
0.167542
0.166889
0.16624
0.165597
0.16496
0.164331
0.163709
0.163095
0.16249
0.161895
0.161308
0.160732
0.160166
0.159611
0.159068
0.158535
0.158014
0.157504
0.157006
0.156519
0.156043
0.155577
0.155122
0.154675
0.154238
0.153808
0.153387
0.152973
0.152567
0.152169
0.151779
0.151397
0.151025
0.150661
0.150308
0.149964
0.149629
0.149302
0.148983
0.148668
0.148356
0.148044
0.147728
0.147404
0.147069
0.146718
0.146347
0.145952
0.145531
0.14508
0.144597
0.144082
0.143536
0.142959
0.142356
0.141732
0.141094
0.14045
0.139811
0.139188
0.138592
0.138032
0.137518
0.13705
0.136625
0.136231
0.135846
0.135441
0.134984
0.134442
0.13379
0.133017
0.132129
0.131155
0.130137
0.12913
0.128193
0.127378
0.126725
0.126262
0.125998
0.125927
0.126035
0.126296
0.126683
0.127169
0.127719
0.128326
0.128948
0.129563
0.130552
0.17388
0.173238
0.172594
0.171947
0.171297
0.170644
0.16999
0.169334
0.168678
0.168021
0.167365
0.166711
0.166058
0.165408
0.164762
0.164119
0.163481
0.162849
0.162221
0.1616
0.160985
0.160378
0.159778
0.159185
0.158601
0.158027
0.157461
0.156905
0.15636
0.155825
0.155302
0.15479
0.15429
0.153803
0.153328
0.152866
0.152416
0.15198
0.151558
0.151148
0.150752
0.15037
0.15
0.149643
0.149298
0.148962
0.148635
0.148314
0.147996
0.147679
0.147359
0.147032
0.146694
0.146341
0.145968
0.145573
0.145149
0.144695
0.144207
0.143682
0.143119
0.142518
0.141878
0.141202
0.140492
0.139753
0.138991
0.138213
0.137427
0.136642
0.135867
0.135111
0.134381
0.13368
0.133007
0.13236
0.131728
0.131099
0.130459
0.129799
0.129112
0.128403
0.127685
0.12698
0.126318
0.125731
0.125248
0.124892
0.124678
0.12461
0.124686
0.124891
0.12521
0.125619
0.126101
0.126626
0.12719
0.127753
0.128307
0.129165
0.17414
0.173513
0.172883
0.17225
0.171614
0.170976
0.170334
0.169691
0.169046
0.1684
0.167753
0.167105
0.166459
0.165813
0.165168
0.164526
0.163887
0.16325
0.162617
0.161988
0.161364
0.160744
0.16013
0.159523
0.158922
0.158328
0.157742
0.157164
0.156596
0.156038
0.15549
0.154953
0.154428
0.153916
0.153416
0.15293
0.152458
0.151999
0.151555
0.151125
0.15071
0.150308
0.149919
0.149543
0.149178
0.148822
0.148475
0.148132
0.147792
0.147451
0.147106
0.146753
0.146388
0.146008
0.145607
0.145182
0.144729
0.144245
0.143725
0.143169
0.142573
0.141937
0.14126
0.140544
0.139789
0.138998
0.138177
0.13733
0.136464
0.135585
0.134703
0.133824
0.132957
0.132109
0.131285
0.130488
0.12972
0.128979
0.128264
0.127572
0.126903
0.126263
0.125658
0.125102
0.12461
0.124198
0.123884
0.123678
0.123589
0.123616
0.123755
0.123995
0.124324
0.124722
0.125175
0.125657
0.126167
0.126666
0.127157
0.127886
0.174286
0.17367
0.173052
0.172432
0.171808
0.171182
0.170553
0.169922
0.169289
0.168654
0.168019
0.167382
0.166745
0.166109
0.165473
0.164838
0.164205
0.163573
0.162944
0.162318
0.161695
0.161076
0.160461
0.159851
0.159247
0.158648
0.158056
0.157472
0.156895
0.156328
0.155769
0.155221
0.154684
0.154158
0.153644
0.153143
0.152655
0.15218
0.151719
0.151271
0.150836
0.150415
0.150006
0.149608
0.149221
0.148842
0.14847
0.148102
0.147736
0.147368
0.146996
0.146616
0.146224
0.145816
0.145388
0.144937
0.144459
0.14395
0.143407
0.142828
0.14221
0.141553
0.140855
0.140117
0.13934
0.138526
0.137679
0.136802
0.1359
0.134981
0.13405
0.133115
0.132184
0.131266
0.130366
0.129492
0.128651
0.127845
0.12708
0.126359
0.125685
0.125063
0.124501
0.124005
0.123586
0.123251
0.12301
0.122867
0.122826
0.122883
0.123035
0.123271
0.12358
0.123945
0.124355
0.124784
0.125235
0.125667
0.126094
0.126699
0.174357
0.17375
0.173139
0.172527
0.171912
0.171295
0.170675
0.170053
0.16943
0.168805
0.168179
0.167552
0.166924
0.166296
0.165669
0.165042
0.164416
0.163791
0.163168
0.162548
0.16193
0.161315
0.160703
0.160095
0.159493
0.158895
0.158302
0.157717
0.157138
0.156566
0.156004
0.15545
0.154906
0.154372
0.153849
0.153338
0.152838
0.152351
0.151876
0.151413
0.150962
0.150524
0.150096
0.149678
0.14927
0.14887
0.148475
0.148083
0.147693
0.147301
0.146905
0.1465
0.146084
0.145653
0.145202
0.14473
0.144231
0.143703
0.143144
0.142549
0.141918
0.141248
0.140539
0.139792
0.139006
0.138184
0.137328
0.136441
0.135529
0.134596
0.133649
0.132694
0.131739
0.130793
0.129861
0.128954
0.128078
0.12724
0.126447
0.125705
0.12502
0.124399
0.123845
0.123367
0.12297
0.122658
0.122437
0.122308
0.12227
0.122322
0.122456
0.122664
0.122936
0.123255
0.123612
0.123984
0.124373
0.124738
0.125102
0.12559
0.174387
0.173783
0.173177
0.172569
0.171959
0.171347
0.170733
0.170118
0.1695
0.168882
0.168262
0.167641
0.16702
0.166398
0.165777
0.165156
0.164536
0.163917
0.163299
0.162683
0.162069
0.161458
0.16085
0.160245
0.159645
0.159048
0.158457
0.157871
0.157292
0.156719
0.156154
0.155597
0.155048
0.154509
0.15398
0.153461
0.152952
0.152455
0.151968
0.151493
0.151029
0.150575
0.150132
0.149697
0.149271
0.148852
0.148437
0.148026
0.147616
0.147203
0.146786
0.146361
0.145925
0.145474
0.145006
0.144517
0.144003
0.143461
0.142889
0.142284
0.141645
0.140969
0.140255
0.139505
0.138718
0.137896
0.13704
0.136155
0.135245
0.134313
0.133366
0.13241
0.131452
0.1305
0.129561
0.128644
0.127756
0.126905
0.1261
0.125347
0.124653
0.124025
0.123467
0.122987
0.122587
0.122271
0.122042
0.1219
0.121843
0.121867
0.121967
0.122134
0.122358
0.122625
0.122926
0.123238
0.123565
0.123865
0.124169
0.124548
0.174396
0.173794
0.17319
0.172584
0.171976
0.171366
0.170755
0.170142
0.169528
0.168913
0.168296
0.167679
0.167061
0.166443
0.165825
0.165208
0.164591
0.163975
0.16336
0.162747
0.162136
0.161527
0.160921
0.160317
0.159718
0.159122
0.158531
0.157945
0.157365
0.156791
0.156223
0.155663
0.15511
0.154566
0.154031
0.153506
0.15299
0.152484
0.151988
0.151502
0.151026
0.15056
0.150103
0.149655
0.149213
0.148778
0.148347
0.147919
0.147492
0.147062
0.146628
0.146187
0.145735
0.145269
0.144787
0.144284
0.143759
0.143207
0.142627
0.142016
0.141372
0.140693
0.139979
0.13923
0.138446
0.137628
0.136779
0.135901
0.134998
0.134075
0.133136
0.132189
0.131238
0.130292
0.129357
0.128442
0.127554
0.126703
0.125894
0.125137
0.124437
0.123801
0.123235
0.122743
0.12233
0.121997
0.121747
0.121578
0.121489
0.121476
0.121533
0.121652
0.121824
0.122036
0.12228
0.122533
0.1228
0.123037
0.123285
0.123563
0.174395
0.173794
0.17319
0.172585
0.171977
0.171369
0.170758
0.170146
0.169533
0.168919
0.168304
0.167688
0.167071
0.166454
0.165837
0.165221
0.164605
0.16399
0.163376
0.162764
0.162153
0.161544
0.160938
0.160335
0.159735
0.159139
0.158546
0.157959
0.157377
0.1568
0.156229
0.155666
0.155109
0.15456
0.15402
0.153488
0.152965
0.152451
0.151947
0.151452
0.150966
0.150489
0.15002
0.149559
0.149105
0.148656
0.148212
0.14777
0.147328
0.146884
0.146436
0.145981
0.145516
0.145039
0.144545
0.144033
0.143499
0.14294
0.142354
0.141739
0.141093
0.140414
0.139702
0.138956
0.138177
0.137367
0.136526
0.135658
0.134767
0.133855
0.132929
0.131994
0.131055
0.13012
0.129195
0.128289
0.127408
0.126561
0.125754
0.124996
0.124293
0.12365
0.123074
0.122569
0.122137
0.121782
0.121504
0.121303
0.121177
0.121121
0.121131
0.121199
0.121318
0.121474
0.121661
0.121857
0.122066
0.122245
0.12244
0.122626
0.174392
0.17379
0.173186
0.17258
0.171973
0.171364
0.170753
0.170141
0.169528
0.168913
0.168298
0.167681
0.167065
0.166448
0.16583
0.165213
0.164597
0.163981
0.163366
0.162753
0.162141
0.161531
0.160924
0.160319
0.159717
0.159118
0.158524
0.157934
0.157348
0.156768
0.156194
0.155626
0.155064
0.15451
0.153964
0.153426
0.152896
0.152375
0.151862
0.151358
0.150863
0.150376
0.149897
0.149425
0.14896
0.148499
0.148043
0.147589
0.147135
0.146679
0.14622
0.145753
0.145278
0.144791
0.144288
0.143768
0.143227
0.142663
0.142074
0.141457
0.14081
0.140132
0.139423
0.138683
0.13791
0.137108
0.136277
0.13542
0.134541
0.133643
0.132731
0.131809
0.130885
0.129963
0.129051
0.128156
0.127284
0.126444
0.125642
0.124885
0.12418
0.123531
0.122945
0.122424
0.121973
0.121593
0.121286
0.121049
0.120883
0.120782
0.120744
0.120761
0.120826
0.120927
0.121059
0.1212
0.121356
0.12148
0.121628
0.121731
0.174387
0.173784
0.17318
0.172574
0.171966
0.171356
0.170745
0.170132
0.169518
0.168902
0.168286
0.167669
0.167051
0.166433
0.165814
0.165196
0.164578
0.16396
0.163344
0.162728
0.162114
0.161502
0.160892
0.160284
0.159679
0.159078
0.15848
0.157886
0.157297
0.156712
0.156133
0.15556
0.154994
0.154434
0.153882
0.153337
0.1528
0.152271
0.151751
0.151239
0.150734
0.150238
0.14975
0.149268
0.148792
0.148321
0.147854
0.147389
0.146925
0.146459
0.145989
0.145513
0.145028
0.144532
0.144023
0.143496
0.14295
0.142382
0.14179
0.141172
0.140526
0.13985
0.139145
0.13841
0.137645
0.136851
0.136031
0.135186
0.134319
0.133434
0.132536
0.131629
0.130719
0.129812
0.128913
0.12803
0.127168
0.126336
0.125539
0.124784
0.124077
0.123422
0.122825
0.122289
0.121818
0.121412
0.121073
0.1208
0.120593
0.120447
0.12036
0.120325
0.120338
0.120386
0.120465
0.120555
0.120661
0.120736
0.12084
0.12087
0.174382
0.173779
0.173174
0.172567
0.171958
0.171348
0.170735
0.170122
0.169506
0.16889
0.168273
0.167654
0.167035
0.166415
0.165795
0.165175
0.164555
0.163935
0.163316
0.162698
0.162081
0.161466
0.160853
0.160241
0.159633
0.159028
0.158426
0.157828
0.157234
0.156645
0.156061
0.155482
0.15491
0.154345
0.153786
0.153234
0.15269
0.152154
0.151626
0.151105
0.150593
0.150088
0.14959
0.149098
0.148613
0.148132
0.147656
0.147181
0.146707
0.146231
0.145752
0.145267
0.144775
0.144272
0.143755
0.143223
0.142673
0.142102
0.141508
0.140889
0.140244
0.139571
0.13887
0.138141
0.137383
0.136598
0.135788
0.134954
0.1341
0.133229
0.132344
0.131452
0.130556
0.129662
0.128776
0.127904
0.127053
0.126228
0.125436
0.124683
0.123973
0.123312
0.122704
0.122152
0.121659
0.121226
0.120855
0.120545
0.120296
0.120105
0.119969
0.119885
0.119846
0.119843
0.119873
0.119915
0.119976
0.120007
0.120074
0.120041
0.174377
0.173773
0.173168
0.17256
0.17195
0.171339
0.170726
0.170111
0.169495
0.168877
0.168259
0.167639
0.167018
0.166397
0.165775
0.165152
0.16453
0.163908
0.163286
0.162666
0.162046
0.161427
0.160811
0.160196
0.159584
0.158974
0.158368
0.157766
0.157167
0.156573
0.155984
0.1554
0.154822
0.15425
0.153685
0.153126
0.152575
0.152032
0.151496
0.150967
0.150446
0.149933
0.149426
0.148926
0.148431
0.147941
0.147455
0.146971
0.146488
0.146004
0.145516
0.145023
0.144523
0.144013
0.143491
0.142954
0.1424
0.141826
0.141231
0.140612
0.139968
0.139298
0.138601
0.137877
0.137127
0.136351
0.13555
0.134727
0.133885
0.133026
0.132155
0.131275
0.130393
0.129512
0.128638
0.127777
0.126934
0.126116
0.125328
0.124574
0.123861
0.123193
0.122572
0.122003
0.121487
0.121027
0.120623