/*--------------------------------*- C++ -*----------------------------------*\
  =========                 |
  \\      /  F ield         | OpenFOAM: The Open Source CFD Toolbox
   \\    /   O peration     | Website:  https://openfoam.org
    \\  /    A nd           | Version:  10
     \\/     M anipulation  |
\*---------------------------------------------------------------------------*/
FoamFile
{
    format      ascii;
    class       volScalarField;
    location    "0.16";
    object      nut;
}
// * * * * * * * * * * * * * * * * * * * * * * * * * * * * * * * * * * * * * //

dimensions      [0 2 -1 0 0 0 0];

internalField   nonuniform List<scalar> 
6820
(
0.000149484
0.000144853
0.000140581
0.000136577
0.000132833
0.000129377
0.000126234
0.000123417
0.000120923
0.000118737
0.000116839
0.000115206
0.000113812
0.000112633
0.000111647
0.000110833
0.000110171
0.000109644
0.000109237
0.000108936
0.000108727
0.000108601
0.000108546
0.000108555
0.000108619
0.000108732
0.000108884
0.000109088
0.000109254
0.000109781
0.000108778
0.000115078
8.72344e-05
0.000729198
0.00053239
0.00044801
0.000399704
0.000368376
0.000346726
0.000331083
0.000319353
0.000310266
0.000303018
0.000297087
0.000292127
0.000287902
0.000284248
0.000281048
0.000278215
0.000275683
0.000273404
0.000271338
0.000269455
0.000267729
0.000266141
0.000264674
0.000263314
0.00026205
0.000260872
0.000259774
0.000258746
0.000257791
0.000256911
0.000256118
0.000255297
0.000256815
0.000976776
0.000872181
0.000781621
0.000711262
0.000657315
0.000615273
0.0005817
0.000554237
0.000531298
0.0005118
0.000494981
0.000480296
0.00046734
0.000455808
0.000445465
0.000436126
0.000427647
0.00041991
0.00041282
0.000406296
0.000400273
0.000394696
0.000389516
0.000384692
0.000380189
0.000375974
0.000372016
0.00036829
0.000364755
0.000361404
0.000358125
0.00035491
0.00035131
0.00101349
0.00098823
0.000949374
0.000906192
0.000864423
0.000826379
0.000792546
0.000762656
0.000736217
0.000712718
0.000691705
0.000672794
0.00065567
0.000640073
0.000625792
0.000612653
0.000600512
0.00058925
0.000578767
0.000568979
0.000559813
0.00055121
0.000543115
0.000535482
0.000528271
0.000521445
0.00051497
0.000508816
0.000502947
0.000497346
0.000491945
0.000486772
0.000481589
0.00101671
0.00101241
0.00100191
0.00098566
0.000965603
0.00094371
0.000921419
0.000899606
0.000878739
0.000859029
0.000840534
0.000823231
0.000807058
0.000791934
0.000777774
0.000764495
0.000752018
0.000740272
0.000729192
0.000718721
0.000708805
0.0006994
0.000690462
0.000681956
0.000673846
0.000666103
0.000658698
0.000651603
0.00064479
0.000638239
0.000631909
0.000625791
0.000619824
0.00101676
0.00101592
0.0010136
0.00100903
0.00100204
0.000992919
0.000982189
0.000970395
0.000958001
0.000945368
0.000932754
0.000920334
0.000908219
0.00089648
0.000885154
0.000874256
0.000863789
0.000853746
0.000844114
0.000834877
0.000826017
0.000817514
0.00080935
0.000801506
0.000793963
0.000786704
0.000779709
0.000772963
0.000766447
0.000760145
0.000754036
0.000748107
0.000742343
0.00101671
0.00101623
0.00101553
0.00101428
0.00101219
0.0010091
0.00100497
0.00099989
0.000994018
0.000987517
0.000980554
0.000973275
0.000965804
0.000958238
0.000950658
0.000943122
0.000935675
0.000928349
0.000921168
0.000914148
0.000907299
0.000900626
0.000894131
0.000887815
0.000881675
0.000875707
0.000869907
0.000864268
0.000858783
0.000853446
0.000848248
0.000843183
0.000838248
0.0010167
0.00101622
0.00101574
0.00101518
0.00101442
0.00101335
0.00101188
0.00100995
0.00100755
0.0010047
0.00100144
0.000997824
0.000993906
0.000989746
0.000985399
0.000980913
0.00097633
0.000971687
0.000967014
0.000962338
0.000957677
0.00095305
0.000948469
0.000943945
0.000939486
0.000935097
0.000930783
0.000926545
0.000922387
0.000918308
0.000914308
0.000910388
0.00090655
0.0010167
0.00101621
0.00101575
0.00101528
0.0010148
0.00101425
0.00101359
0.00101279
0.00101179
0.00101059
0.00100917
0.00100753
0.00100569
0.00100365
0.00100143
0.000999059
0.000996557
0.000993943
0.000991238
0.00098846
0.000985627
0.000982754
0.000979854
0.000976938
0.000974017
0.000971099
0.000968192
0.000965301
0.000962432
0.000959589
0.000956777
0.000953999
0.00095126
0.0010167
0.00101621
0.00101574
0.00101529
0.00101484
0.00101439
0.00101393
0.00101344
0.0010129
0.00101229
0.0010116
0.00101082
0.00100993
0.00100895
0.00100786
0.00100668
0.00100539
0.00100403
0.00100258
0.00100106
0.000999475
0.000997838
0.000996153
0.00099443
0.000992674
0.000990894
0.000989094
0.000987281
0.000985459
0.000983635
0.000981811
0.000979993
0.000978185
0.0010167
0.00101621
0.00101574
0.00101528
0.00101484
0.00101441
0.00101398
0.00101356
0.00101313
0.0010127
0.00101224
0.00101176
0.00101125
0.0010107
0.0010101
0.00100946
0.00100878
0.00100805
0.00100727
0.00100645
0.00100558
0.00100468
0.00100374
0.00100276
0.00100176
0.00100073
0.000999675
0.000998601
0.000997512
0.000996409
0.000995297
0.000994178
0.000993056
0.0010167
0.00101621
0.00101574
0.00101528
0.00101484
0.0010144
0.00101398
0.00101357
0.00101317
0.00101277
0.00101238
0.00101199
0.00101159
0.00101119
0.00101078
0.00101035
0.00100991
0.00100946
0.00100898
0.00100849
0.00100797
0.00100744
0.00100689
0.00100632
0.00100573
0.00100513
0.00100451
0.00100387
0.00100323
0.00100257
0.00100191
0.00100124
0.00100056
0.0010167
0.00101621
0.00101574
0.00101528
0.00101483
0.0010144
0.00101398
0.00101357
0.00101317
0.00101278
0.0010124
0.00101203
0.00101167
0.00101131
0.00101095
0.00101059
0.00101024
0.00100988
0.00100953
0.00100916
0.0010088
0.00100843
0.00100805
0.00100767
0.00100728
0.00100689
0.00100649
0.00100609
0.00100568
0.00100526
0.00100484
0.00100442
0.001004
0.0010167
0.00101621
0.00101574
0.00101528
0.00101483
0.0010144
0.00101398
0.00101357
0.00101317
0.00101278
0.0010124
0.00101204
0.00101168
0.00101133
0.00101098
0.00101065
0.00101032
0.00100999
0.00100968
0.00100936
0.00100905
0.00100874
0.00100843
0.00100813
0.00100782
0.00100752
0.00100722
0.00100692
0.00100662
0.00100632
0.00100602
0.00100572
0.00100543
0.0010167
0.00101621
0.00101574
0.00101528
0.00101483
0.0010144
0.00101398
0.00101357
0.00101317
0.00101278
0.0010124
0.00101203
0.00101167
0.00101133
0.00101099
0.00101066
0.00101033
0.00101002
0.00100971
0.00100941
0.00100911
0.00100882
0.00100854
0.00100826
0.00100799
0.00100772
0.00100746
0.0010072
0.00100694
0.00100669
0.00100644
0.0010062
0.00100596
0.0010167
0.00101621
0.00101574
0.00101528
0.00101483
0.0010144
0.00101397
0.00101356
0.00101316
0.00101278
0.0010124
0.00101203
0.00101167
0.00101132
0.00101098
0.00101065
0.00101033
0.00101002
0.00100971
0.00100941
0.00100912
0.00100884
0.00100856
0.00100829
0.00100803
0.00100777
0.00100752
0.00100728
0.00100704
0.0010068
0.00100657
0.00100635
0.00100613
0.0010167
0.00101621
0.00101574
0.00101528
0.00101483
0.0010144
0.00101397
0.00101356
0.00101316
0.00101277
0.0010124
0.00101203
0.00101167
0.00101132
0.00101098
0.00101065
0.00101033
0.00101001
0.00100971
0.00100941
0.00100912
0.00100884
0.00100856
0.0010083
0.00100804
0.00100778
0.00100753
0.00100729
0.00100706
0.00100683
0.00100661
0.00100639
0.00100618
0.0010167
0.00101621
0.00101574
0.00101528
0.00101483
0.0010144
0.00101397
0.00101356
0.00101316
0.00101277
0.00101239
0.00101203
0.00101167
0.00101132
0.00101098
0.00101065
0.00101033
0.00101001
0.00100971
0.00100941
0.00100912
0.00100884
0.00100856
0.00100829
0.00100803
0.00100778
0.00100753
0.00100729
0.00100706
0.00100683
0.00100661
0.0010064
0.00100619
0.0010167
0.00101621
0.00101574
0.00101528
0.00101483
0.00101439
0.00101397
0.00101356
0.00101316
0.00101277
0.00101239
0.00101202
0.00101167
0.00101132
0.00101098
0.00101064
0.00101032
0.00101001
0.0010097
0.0010094
0.00100911
0.00100883
0.00100856
0.00100829
0.00100803
0.00100778
0.00100753
0.00100729
0.00100705
0.00100683
0.00100661
0.00100639
0.00100618
0.0010167
0.00101621
0.00101574
0.00101528
0.00101483
0.00101439
0.00101397
0.00101356
0.00101316
0.00101277
0.00101239
0.00101202
0.00101166
0.00101131
0.00101097
0.00101064
0.00101032
0.00101001
0.0010097
0.0010094
0.00100911
0.00100883
0.00100855
0.00100829
0.00100802
0.00100777
0.00100752
0.00100728
0.00100705
0.00100682
0.0010066
0.00100638
0.00100617
0.0010167
0.00101621
0.00101574
0.00101528
0.00101483
0.00101439
0.00101397
0.00101356
0.00101316
0.00101277
0.00101239
0.00101202
0.00101166
0.00101131
0.00101097
0.00101064
0.00101032
0.00101
0.0010097
0.0010094
0.00100911
0.00100883
0.00100855
0.00100828
0.00100802
0.00100777
0.00100752
0.00100728
0.00100704
0.00100681
0.00100659
0.00100638
0.00100616
0.0010167
0.00101621
0.00101574
0.00101528
0.00101483
0.00101439
0.00101397
0.00101356
0.00101316
0.00101277
0.00101239
0.00101202
0.00101166
0.00101131
0.00101097
0.00101064
0.00101032
0.00101
0.00100969
0.0010094
0.00100911
0.00100882
0.00100855
0.00100828
0.00100802
0.00100776
0.00100751
0.00100727
0.00100704
0.00100681
0.00100658
0.00100637
0.00100616
0.0010167
0.00101621
0.00101574
0.00101528
0.00101483
0.00101439
0.00101397
0.00101356
0.00101316
0.00101277
0.00101239
0.00101202
0.00101166
0.00101131
0.00101097
0.00101064
0.00101031
0.00101
0.00100969
0.00100939
0.0010091
0.00100882
0.00100854
0.00100827
0.00100801
0.00100776
0.00100751
0.00100727
0.00100703
0.0010068
0.00100658
0.00100636
0.00100615
0.0010167
0.00101621
0.00101574
0.00101528
0.00101483
0.00101439
0.00101397
0.00101356
0.00101316
0.00101277
0.00101239
0.00101202
0.00101166
0.00101131
0.00101097
0.00101064
0.00101031
0.00101
0.00100969
0.00100939
0.0010091
0.00100882
0.00100854
0.00100827
0.00100801
0.00100775
0.0010075
0.00100726
0.00100703
0.0010068
0.00100657
0.00100635
0.00100614
0.0010167
0.00101621
0.00101574
0.00101528
0.00101483
0.00101439
0.00101397
0.00101356
0.00101316
0.00101277
0.00101239
0.00101202
0.00101166
0.00101131
0.00101097
0.00101063
0.00101031
0.00101
0.00100969
0.00100939
0.0010091
0.00100881
0.00100854
0.00100827
0.00100801
0.00100775
0.0010075
0.00100726
0.00100702
0.00100679
0.00100657
0.00100635
0.00100613
0.0010167
0.00101621
0.00101574
0.00101528
0.00101483
0.00101439
0.00101397
0.00101356
0.00101316
0.00101277
0.00101239
0.00101202
0.00101166
0.00101131
0.00101097
0.00101063
0.00101031
0.00100999
0.00100969
0.00100939
0.0010091
0.00100881
0.00100854
0.00100827
0.001008
0.00100775
0.0010075
0.00100725
0.00100702
0.00100679
0.00100656
0.00100634
0.00100613
0.0010167
0.00101621
0.00101574
0.00101528
0.00101483
0.00101439
0.00101397
0.00101356
0.00101316
0.00101277
0.00101239
0.00101202
0.00101166
0.00101131
0.00101096
0.00101063
0.00101031
0.00100999
0.00100969
0.00100939
0.00100909
0.00100881
0.00100853
0.00100826
0.001008
0.00100774
0.00100749
0.00100725
0.00100701
0.00100678
0.00100655
0.00100633
0.00100612
0.0010167
0.00101621
0.00101574
0.00101528
0.00101483
0.00101439
0.00101397
0.00101356
0.00101316
0.00101277
0.00101239
0.00101202
0.00101166
0.00101131
0.00101096
0.00101063
0.00101031
0.00100999
0.00100968
0.00100939
0.00100909
0.00100881
0.00100853
0.00100826
0.001008
0.00100774
0.00100749
0.00100725
0.00100701
0.00100678
0.00100655
0.00100633
0.00100611
0.0010167
0.00101621
0.00101574
0.00101528
0.00101483
0.00101439
0.00101397
0.00101356
0.00101316
0.00101277
0.00101239
0.00101202
0.00101166
0.00101131
0.00101096
0.00101063
0.00101031
0.00100999
0.00100968
0.00100938
0.00100909
0.00100881
0.00100853
0.00100826
0.001008
0.00100774
0.00100749
0.00100724
0.00100701
0.00100677
0.00100655
0.00100632
0.00100611
0.0010167
0.00101621
0.00101574
0.00101528
0.00101483
0.00101439
0.00101397
0.00101356
0.00101316
0.00101277
0.00101239
0.00101202
0.00101166
0.00101131
0.00101097
0.00101063
0.00101031
0.00100999
0.00100969
0.00100939
0.00100909
0.00100881
0.00100853
0.00100826
0.001008
0.00100774
0.00100749
0.00100724
0.001007
0.00100677
0.00100654
0.00100632
0.00100611
0.0010167
0.00101621
0.00101574
0.00101528
0.00101483
0.00101439
0.00101397
0.00101356
0.00101316
0.00101277
0.00101239
0.00101202
0.00101166
0.00101131
0.00101097
0.00101063
0.00101031
0.00100999
0.00100969
0.00100939
0.00100909
0.00100881
0.00100853
0.00100826
0.001008
0.00100774
0.00100749
0.00100724
0.001007
0.00100677
0.00100654
0.00100631
0.0010061
0.0010167
0.00101621
0.00101574
0.00101528
0.00101483
0.0010144
0.00101397
0.00101356
0.00101316
0.00101277
0.00101239
0.00101202
0.00101167
0.00101131
0.00101097
0.00101064
0.00101032
0.00101
0.00100969
0.00100939
0.00100909
0.00100881
0.00100853
0.00100825
0.00100798
0.00100772
0.00100747
0.00100722
0.00100697
0.00100673
0.00100649
0.00100626
0.00100604
0.0010167
0.00101621
0.00101574
0.00101528
0.00101483
0.0010144
0.00101398
0.00101357
0.00101317
0.00101278
0.0010124
0.00101203
0.00101167
0.00101132
0.00101097
0.00101064
0.00101031
0.00100998
0.00100967
0.00100936
0.00100905
0.00100875
0.00100846
0.00100817
0.00100788
0.0010076
0.00100732
0.00100705
0.00100678
0.00100651
0.00100624
0.00100598
0.00100572
0.0010167
0.00101621
0.00101574
0.00101529
0.00101484
0.00101441
0.00101399
0.00101358
0.00101318
0.00101279
0.0010124
0.00101202
0.00101164
0.00101127
0.0010109
0.00101053
0.00101016
0.00100979
0.00100942
0.00100906
0.00100869
0.00100832
0.00100794
0.00100757
0.00100719
0.00100681
0.00100643
0.00100605
0.00100566
0.00100527
0.00100488
0.00100448
0.00100409
0.0010167
0.00101622
0.00101575
0.0010153
0.00101485
0.00101441
0.00101397
0.00101352
0.00101308
0.00101262
0.00101214
0.00101166
0.00101115
0.00101063
0.00101008
0.00100951
0.00100891
0.0010083
0.00100765
0.00100699
0.0010063
0.00100559
0.00100486
0.00100411
0.00100334
0.00100256
0.00100175
0.00100094
0.00100011
0.000999268
0.000998417
0.000997557
0.00099669
0.00101671
0.00101622
0.00101574
0.00101524
0.00101469
0.00101407
0.00101337
0.00101257
0.00101167
0.00101066
0.00100954
0.00100831
0.00100697
0.00100553
0.00100399
0.00100236
0.00100065
0.000998857
0.000996995
0.000995072
0.000993095
0.000991071
0.000989007
0.00098691
0.000984786
0.000982642
0.000980482
0.000978312
0.000976136
0.000973958
0.000971784
0.000969615
0.000967456
0.00101671
0.001016
0.00101488
0.00101325
0.00101112
0.00100847
0.00100532
0.00100169
0.000997627
0.000993177
0.000988394
0.000983333
0.000978045
0.000972577
0.000966973
0.000961272
0.000955509
0.000949713
0.000943912
0.000938126
0.000932377
0.000926679
0.000921045
0.000915489
0.000910017
0.000904638
0.000899357
0.00089418
0.000889109
0.000884148
0.000879297
0.000874558
0.000869931
0.0010153
0.00100706
0.000995507
0.000981404
0.000965375
0.000948032
0.000929933
0.000911526
0.000893145
0.000875028
0.000857342
0.000840194
0.000823653
0.000807753
0.00079251
0.000777923
0.000763981
0.000750665
0.000737954
0.000725822
0.000714244
0.000703191
0.000692639
0.000682561
0.000672931
0.000663727
0.000654924
0.000646502
0.00063844
0.000630718
0.000623319
0.000616224
0.000609417
0.000935928
0.000815557
0.000728195
0.000659296
0.000602448
0.000555231
0.000515746
0.000482409
0.000453968
0.000429461
0.000408145
0.000389449
0.000372927
0.00035823
0.00034508
0.000333252
0.000322563
0.000312865
0.000304033
0.000295962
0.000288564
0.000281764
0.000275499
0.000269711
0.000264355
0.000259387
0.000254771
0.000250474
0.000246468
0.000242727
0.000239229
0.000235954
0.000232882
0.000125477
0.000128847
0.000132096
0.000135204
0.000138173
0.000141007
0.000143711
0.000146289
0.000148745
0.000151084
0.000153311
0.000155429
0.000157442
0.000159355
0.000161172
0.000162898
0.000164535
0.000166088
0.000167562
0.000168958
0.000170282
0.000171536
0.000172725
0.00017385
0.000174916
0.000175925
0.00017688
0.000177785
0.00017864
0.00017945
0.000180216
0.00018094
0.000181626
0.000109283
0.000154441
0.000198619
0.000240016
0.000278263
0.000312778
0.000343403
0.000370658
0.000395523
0.00041904
0.00044201
0.00046489
0.000487832
0.000510809
0.000533744
0.0005566
0.000579415
0.000602293
0.000625373
0.000648795
0.000672673
0.000697082
0.000722058
0.0007476
0.000773672
0.000800207
0.000827102
0.000854221
0.000881393
0.000908415
0.000935053
0.000961053
0.000986141
0.00101003
0.00103245
0.0010531
0.00107171
0.00108803
0.00110181
0.00111286
0.001121
0.00112612
0.00112815
0.0011271
0.00112307
0.00111621
0.00110678
0.00109514
0.00108171
0.00106701
0.00105164
0.00103625
0.00102152
0.00100813
0.000996732
0.000987919
0.000982182
0.000979907
0.00098136
0.000986692
0.000995951
0.0010091
0.00102604
0.00104663
0.00107065
0.00109786
0.0011279
0.00116033
0.00119452
0.0012297
0.00126493
0.00129907
0.0013309
0.0013591
0.00138236
0.00139942
0.00140921
0.00141085
0.00140381
0.00138797
0.00136369
0.00133196
0.00129442
0.00125348
0.00121224
0.0011743
0.00114333
0.00112227
0.00111251
0.0011133
0.00112202
0.00113526
0.00115009
0.0011648
0.00117891
0.0011926
0.0012064
0.00122094
0.00123477
0.0012603
0.000245455
0.0002136
0.000185421
0.000171935
0.000171974
0.000182126
0.000199551
0.000221948
0.00024745
0.000274521
0.00030197
0.000328976
0.000355078
0.00038012
0.00040417
0.00042742
0.000450106
0.000472437
0.000494565
0.000516585
0.000538546
0.000560473
0.000582385
0.000604298
0.000626226
0.000648165
0.000670093
0.00069195
0.000713642
0.00073504
0.000755979
0.000776268
0.000795696
0.000814037
0.000831059
0.000846532
0.000860234
0.00087196
0.000881525
0.000888778
0.000893606
0.000895951
0.00089582
0.000893292
0.000888528
0.000881777
0.000873374
0.000863741
0.000853375
0.000842836
0.000832725
0.000823655
0.000816214
0.000810926
0.000808215
0.00080838
0.000811579
0.000817836
0.000827067
0.000839107
0.000853757
0.00087082
0.00089013
0.000911566
0.000935054
0.00096054
0.000987952
0.00101714
0.00104785
0.00107962
0.00111183
0.00114361
0.00117395
0.00120168
0.00122561
0.00124457
0.00125751
0.00126363
0.00126246
0.00125396
0.00123861
0.00121749
0.00119236
0.00116558
0.00114001
0.00111863
0.001104
0.00109756
0.00109914
0.00110705
0.00111878
0.00113195
0.00114509
0.00115765
0.00116983
0.00118204
0.00119476
0.0012085
0.00122172
0.00124647
0.00034883
0.000344642
0.000329897
0.000301864
0.000267625
0.000236356
0.000212763
0.00019821
0.000191571
0.000191535
0.000197059
0.000207247
0.000221252
0.000238246
0.000257421
0.000278022
0.000299394
0.000321019
0.000342531
0.000363706
0.000384441
0.000404716
0.000424559
0.000444017
0.000463133
0.000481928
0.000500402
0.000518524
0.000536238
0.000553462
0.000570095
0.000586015
0.000601089
0.000615172
0.000628117
0.000639781
0.000650028
0.000658745
0.000665841
0.000671263
0.000675003
0.000677108
0.000677693
0.000676949
0.000675145
0.000672626
0.000669808
0.000667161
0.000665185
0.000664383
0.000665224
0.000668104
0.000673307
0.000680976
0.000691099
0.000703517
0.000717949
0.000734038
0.000751401
0.000769675
0.000788556
0.000807831
0.000827393
0.000847242
0.000867476
0.000888263
0.00090981
0.000932303
0.000955847
0.000980405
0.00100574
0.0010314
0.00105667
0.0010807
0.00110245
0.00112091
0.00113513
0.00114436
0.00114817
0.00114655
0.00114
0.00112955
0.0011168
0.00110377
0.00109266
0.00108544
0.00108336
0.00108661
0.00109423
0.00110459
0.00111602
0.00112741
0.00113834
0.00114894
0.00115963
0.00117077
0.00118273
0.00119588
0.0012086
0.00123257
0.000475899
0.000470408
0.000464541
0.000455502
0.000440434
0.000418209
0.000390069
0.00035911
0.00032835
0.000300747
0.000277546
0.000259064
0.000245273
0.000235977
0.000230888
0.000229656
0.000231882
0.000237134
0.000244959
0.000254894
0.000266489
0.000279323
0.000293018
0.000307255
0.000321775
0.000336376
0.000350906
0.00036525
0.000379318
0.000393032
0.000406322
0.000419119
0.000431356
0.000442967
0.000453896
0.000464096
0.000473541
0.000482231
0.000490197
0.00049751
0.000504287
0.000510694
0.00051695
0.000523328
0.000530145
0.000537743
0.000546471
0.000556651
0.000568545
0.000582326
0.00059805
0.000615641
0.000634896
0.000655499
0.000677052
0.000699119
0.000721265
0.000743092
0.00076427
0.000784547
0.000803764
0.000821851
0.000838828
0.000854797
0.00086994
0.000884505
0.000898794
0.000913131
0.000927833
0.00094315
0.000959213
0.000975979
0.000993192
0.00101038
0.00102689
0.00104196
0.00105483
0.00106486
0.00107167
0.00107518
0.00107577
0.00107423
0.0010717
0.00106955
0.00106907
0.00107119
0.00107617
0.00108363
0.00109265
0.00110226
0.00111178
0.00112096
0.00112997
0.00113914
0.00114884
0.00115931
0.00117077
0.00118348
0.00119577
0.00121893
0.000612975
0.000605451
0.000598286
0.000591142
0.000583178
0.000573263
0.00056032
0.000543738
0.000523387
0.00050016
0.000475351
0.000450061
0.00042523
0.000401628
0.000379852
0.000360336
0.000343366
0.000329095
0.000317568
0.000308744
0.000302513
0.000298717
0.000297161
0.000297625
0.000299877
0.000303682
0.000308815
0.000315064
0.000322241
0.000330182
0.000338749
0.000347832
0.000357349
0.000367244
0.000377491
0.000388088
0.000399063
0.000410473
0.000422401
0.000434955
0.000448264
0.000462472
0.000477727
0.000494169
0.000511914
0.000531035
0.000551541
0.000573371
0.000596383
0.000620359
0.000645017
0.000670031
0.000695049
0.000719721
0.00074372
0.000766759
0.000788606
0.000809089
0.000828097
0.000845578
0.000861528
0.000875989
0.00088904
0.000900797
0.000911403
0.000921038
0.000929911
0.000938262
0.000946356
0.000954464
0.000962837
0.000971662
0.000981023
0.000990856
0.00100094
0.00101093
0.00102037
0.00102886
0.00103608
0.00104191
0.0010465
0.00105026
0.00105376
0.00105765
0.00106243
0.00106832
0.00107522
0.00108274
0.00109045
0.00109802
0.00110542
0.00111283
0.00112055
0.00112886
0.00113802
0.00114812
0.00115925
0.00117159
0.00118348
0.00120578
0.000735774
0.000728387
0.00072113
0.000714023
0.000706965
0.000699711
0.000691875
0.000683002
0.000672603
0.000660454
0.000646516
0.000630925
0.000613952
0.00059596
0.000577359
0.000558572
0.000540008
0.000522042
0.000504998
0.00048915
0.000474716
0.000461866
0.000450721
0.000441356
0.000433809
0.000428082
0.000424151
0.000421972
0.000421489
0.000422641
0.000425366
0.000429606
0.00043531
0.000442437
0.000450954
0.000460839
0.000472078
0.000484659
0.000498577
0.000513818
0.000530361
0.000548167
0.000567179
0.000587306
0.000608429
0.00063039
0.000652998
0.000676032
0.00069925
0.000722397
0.000745223
0.000767488
0.000788978
0.000809508
0.000828929
0.000847132
0.000864048
0.000879642
0.000893915
0.000906894
0.000918629
0.000929188
0.000938651
0.000947108
0.000954658
0.000961404
0.000967458
0.000972943
0.000977991
0.00098275
0.000987379
0.00099204
0.000996882
0.00100201
0.00100748
0.00101323
0.00101917
0.00102511
0.00103092
0.00103648
0.00104178
0.00104692
0.00105205
0.00105731
0.00106281
0.00106851
0.00107431
0.00108007
0.00108577
0.00109146
0.00109736
0.00110372
0.00111078
0.00111872
0.00112764
0.00113754
0.00114841
0.00116041
0.0011719
0.00119329
0.000832634
0.000826287
0.000819964
0.000813692
0.000807478
0.000801298
0.000795085
0.000788717
0.000782022
0.000774831
0.000766986
0.000758373
0.000748936
0.000738681
0.000727677
0.000716046
0.00070395
0.00069158
0.000679143
0.000666851
0.000654912
0.000643527
0.000632881
0.000623143
0.00061446
0.000606958
0.00060074
0.00059589
0.000592474
0.00059054
0.000590121
0.000591239
0.000593901
0.000598104
0.000603831
0.000611054
0.000619733
0.000629814
0.000641226
0.000653887
0.000667695
0.000682531
0.000698262
0.000714737
0.00073179
0.000749246
0.00076692
0.000784626
0.000802181
0.000819413
0.000836162
0.000852292
0.000867687
0.000882257
0.000895934
0.000908678
0.00092047
0.000931311
0.000941221
0.000950236
0.000958402
0.000965776
0.000972422
0.000978411
0.000983813
0.000988704
0.000993157
0.000997244
0.00100104
0.0010046
0.00100801
0.00101133
0.00101464
0.00101801
0.0010215
0.00102516
0.001029
0.001033
0.00103713
0.00104133
0.00104555
0.00104977
0.00105398
0.00105815
0.00106228
0.00106635
0.00107039
0.00107446
0.0010787
0.0010833
0.00108849
0.00109445
0.00110133
0.00110918
0.00111802
0.00112778
0.00113842
0.00115006
0.00116113
0.00118156
0.000902168
0.000897185
0.000892174
0.000887152
0.00088213
0.000877119
0.000872118
0.00086711
0.000862068
0.000856946
0.000851684
0.000846222
0.0008405
0.000834475
0.000828124
0.000821445
0.000814465
0.000807232
0.00079982
0.000792319
0.000784833
0.000777479
0.000770379
0.000763655
0.000757429
0.000751817
0.000746926
0.000742855
0.000739691
0.000737508
0.000736368
0.00073632
0.0007374
0.000739625
0.000743
0.000747512
0.000753133
0.000759818
0.000767506
0.000776121
0.000785573
0.00079576
0.000806568
0.000817876
0.000829556
0.000841477
0.000853509
0.000865524
0.000877402
0.000889031
0.000900314
0.000911165
0.000921514
0.000931309
0.000940508
0.000949089
0.00095704
0.000964361
0.000971066
0.000977175
0.000982719
0.000987736
0.00099227
0.000996372
0.0010001
0.0010035
0.00100665
0.0010096
0.00101241
0.00101514
0.00101782
0.00102049
0.00102318
0.00102591
0.0010287
0.00103155
0.00103446
0.00103742
0.00104042
0.00104343
0.00104643
0.00104937
0.00105224
0.00105505
0.00105781
0.0010606
0.00106352
0.00106672
0.00107037
0.00107465
0.00107973
0.00108571
0.00109264
0.00110052
0.00110932
0.00111894
0.00112932
0.00114058
0.00115121
0.00117062
0.000948111
0.000944501
0.000940837
0.000937128
0.000933381
0.000929608
0.000925814
0.000922007
0.000918191
0.000914365
0.000910522
0.00090665
0.000902734
0.000898757
0.000894705
0.000890568
0.000886341
0.000882033
0.000877659
0.000873247
0.000868836
0.000864476
0.000860223
0.000856142
0.000852301
0.000848771
0.000845624
0.000842929
0.00084075
0.000839149
0.000838178
0.000837883
0.000838298
0.000839449
0.000841349
0.000843999
0.000847388
0.000851491
0.000856272
0.000861683
0.000867667
0.000874156
0.000881076
0.000888347
0.000895886
0.000903607
0.000911425
0.000919259
0.000927028
0.000934663
0.000942098
0.000949276
0.00095615
0.00096268
0.000968838
0.0009746
0.000979954
0.000984894
0.000989421
0.000993542
0.000997273
0.00100063
0.00100365
0.00100635
0.00100878
0.00101098
0.001013
0.00101489
0.00101671
0.0010185
0.00102032
0.00102219
0.00102415
0.0010262
0.00102834
0.00103056
0.00103284
0.00103514
0.00103744
0.0010397
0.00104191
0.00104405
0.00104614
0.00104822
0.00105037
0.00105268
0.00105529
0.00105837
0.00106205
0.00106648
0.00107175
0.00107791
0.00108496
0.00109287
0.00110159
0.00111101
0.00112109
0.00113192
0.00114209
0.00116048
0.000976087
0.000973658
0.000971168
0.000968619
0.000966017
0.000963368
0.000960679
0.000957957
0.00095521
0.000952445
0.000949668
0.000946884
0.000944096
0.000941308
0.000938519
0.000935732
0.000932947
0.000930169
0.000927403
0.000924659
0.000921953
0.000919303
0.000916735
0.000914276
0.00091196
0.000909823
0.000907904
0.000906242
0.000904876
0.000903844
0.000903182
0.000902921
0.000903087
0.000903703
0.000904781
0.000906329
0.000908344
0.000910817
0.000913731
0.00091706
0.000920771
0.000924828
0.000929185
0.000933795
0.000938607
0.000943567
0.000948624
0.000953723
0.000958814
0.00096385
0.000968786
0.000973583
0.000978204
0.000982618
0.000986801
0.000990731
0.000994392
0.000997772
0.00100087
0.00100367
0.00100619
0.00100843
0.0010104
0.00101213
0.00101363
0.00101494
0.00101609
0.00101712
0.00101808
0.00101901
0.00101996
0.00102097
0.00102208
0.00102331
0.00102467
0.00102615
0.00102774
0.0010294
0.00103112
0.00103287
0.00103463
0.00103639
0.0010382
0.00104011
0.00104219
0.00104457
0.00104735
0.00105068
0.00105465
0.00105937
0.00106488
0.00107121
0.00107833
0.0010862
0.00109477
0.00110394
0.00111366
0.00112403
0.00113371
0.00115107
0.000991742
0.000990207
0.000988615
0.000986969
0.00098527
0.000983522
0.000981728
0.000979895
0.000978027
0.000976131
0.000974212
0.000972278
0.000970335
0.00096839
0.000966451
0.000964522
0.000962611
0.000960724
0.000958868
0.00095705
0.000955279
0.000953566
0.000951924
0.000950366
0.000948909
0.000947571
0.000946372
0.000945332
0.000944474
0.000943819
0.000943387
0.000943199
0.000943272
0.00094362
0.000944255
0.000945182
0.000946405
0.000947921
0.000949724
0.0009518
0.000954134
0.000956705
0.000959488
0.000962457
0.000965581
0.000968828
0.000972164
0.000975556
0.00097897
0.000982375
0.000985738
0.00098903
0.000992223
0.000995293
0.000998215
0.00100097
0.00100354
0.00100592
0.00100808
0.00101003
0.00101176
0.00101326
0.00101455
0.00101563
0.00101651
0.00101721
0.00101776
0.00101819
0.00101853
0.00101882
0.00101909
0.00101941
0.00101979
0.00102027
0.00102089
0.00102166
0.00102257
0.00102362
0.00102481
0.00102613
0.00102756
0.00102913
0.00103085
0.00103279
0.00103502
0.00103761
0.00104068
0.0010443
0.00104856
0.00105351
0.00105918
0.00106558
0.00107267
0.00108041
0.00108875
0.0010976
0.00110692
0.0011168
0.00112599
0.00114234
0.000999759
0.00099882
0.000997839
0.000996815
0.00099575
0.000994644
0.0009935
0.000992319
0.000991105
0.000989862
0.000988593
0.000987304
0.000986
0.000984687
0.00098337
0.000982056
0.000980752
0.000979463
0.000978197
0.00097696
0.000975761
0.000974608
0.000973507
0.00097247
0.000971505
0.000970623
0.000969836
0.000969155
0.000968592
0.000968161
0.000967873
0.000967741
0.000967776
0.000967986
0.00096838
0.000968964
0.00096974
0.00097071
0.000971871
0.000973218
0.000974743
0.000976436
0.000978283
0.000980269
0.000982377
0.000984585
0.000986874
0.000989222
0.000991605
0.000994
0.000996386
0.000998738
0.00100104
0.00100326
0.00100538
0.00100739
0.00100927
0.001011
0.00101257
0.00101397
0.00101519
0.00101623
0.00101708
0.00101775
0.00101824
0.00101856
0.00101874
0.00101879
0.00101873
0.0010186
0.00101844
0.00101828
0.00101815
0.00101811
0.00101817
0.00101838
0.00101875
0.00101931
0.00102005
0.001021
0.00102217
0.00102356
0.00102523
0.0010272
0.00102953
0.00103229
0.00103555
0.00103936
0.00104377
0.00104882
0.00105453
0.00106087
0.00106782
0.00107534
0.00108338
0.00109186
0.00110076
0.00111014
0.00111883
0.0011342
0.0010035
0.00100291
0.0010023
0.00100166
0.00100099
0.00100029
0.000999568
0.000998817
0.000998041
0.000997242
0.000996421
0.000995583
0.000994729
0.000993864
0.000992991
0.000992116
0.000991242
0.000990375
0.00098952
0.000988683
0.00098787
0.000987086
0.000986339
0.000985634
0.00098498
0.000984382
0.00098385
0.00098339
0.000983011
0.000982721
0.000982528
0.000982439
0.000982463
0.000982606
0.000982873
0.000983269
0.000983798
0.00098446
0.000985256
0.000986185
0.000987243
0.000988425
0.000989723
0.000991129
0.000992632
0.000994219
0.000995877
0.000997591
0.000999345
0.00100112
0.0010029
0.00100467
0.00100641
0.0010081
0.00100972
0.00101126
0.0010127
0.00101402
0.00101521
0.00101627
0.00101717
0.00101791
0.0010185
0.00101892
0.00101917
0.00101928
0.00101924