/*--------------------------------*- C++ -*----------------------------------*\
  =========                 |
  \\      /  F ield         | OpenFOAM: The Open Source CFD Toolbox
   \\    /   O peration     | Website:  https://openfoam.org
    \\  /    A nd           | Version:  10
     \\/     M anipulation  |
\*---------------------------------------------------------------------------*/
FoamFile
{
    format      ascii;
    class       volScalarField;
    location    "0.16";
    object      p;
}
// * * * * * * * * * * * * * * * * * * * * * * * * * * * * * * * * * * * * * //

dimensions      [0 2 -2 0 0 0 0];

internalField   nonuniform List<scalar> 
6820
(
-8.6548
-10.0189
-10.4323
-10.5277
-10.6085
-10.6599
-10.6907
-10.715
-10.7359
-10.7543
-10.7713
-10.7873
-10.8027
-10.8175
-10.8319
-10.8459
-10.8596
-10.873
-10.886
-10.8987
-10.911
-10.9228
-10.934
-10.9444
-10.9537
-10.9614
-10.9667
-10.9682
-10.9636
-10.9463
-10.9114
-10.8274
-10.6239
-11.455
-11.0506
-10.7566
-10.6612
-10.6626
-10.6793
-10.6973
-10.7169
-10.7363
-10.7544
-10.7713
-10.7872
-10.8024
-10.8169
-10.8309
-10.8445
-10.8578
-10.8707
-10.8833
-10.8956
-10.9075
-10.9191
-10.9301
-10.9404
-10.9498
-10.9581
-10.9645
-10.9692
-10.9693
-10.9712
-10.9571
-10.9936
-10.9899
-10.312
-10.1837
-10.4086
-10.5463
-10.6078
-10.6522
-10.6842
-10.7094
-10.731
-10.75
-10.7672
-10.7834
-10.7988
-10.8136
-10.8279
-10.8419
-10.8555
-10.8688
-10.8819
-10.8945
-10.9069
-10.9188
-10.9303
-10.9411
-10.9511
-10.96
-10.9675
-10.9734
-10.9765
-10.9791
-10.976
-10.9859
-10.9816
-10.6785
-10.6952
-10.6708
-10.648
-10.6562
-10.6765
-10.6965
-10.7157
-10.7343
-10.7518
-10.7684
-10.7842
-10.7994
-10.8141
-10.8283
-10.8421
-10.8556
-10.8688
-10.8817
-10.8943
-10.9066
-10.9185
-10.9301
-10.9411
-10.9515
-10.9612
-10.9699
-10.978
-10.9848
-10.9934
-11.0015
-11.0254
-11.0566
-10.5686
-10.5146
-10.5585
-10.6032
-10.6383
-10.6683
-10.6929
-10.7142
-10.7336
-10.7515
-10.7681
-10.7839
-10.799
-10.8136
-10.8278
-10.8416
-10.8551
-10.8683
-10.8813
-10.894
-10.9065
-10.9186
-10.9305
-10.9419
-10.9529
-10.9635
-10.9736
-10.9836
-10.9936
-11.0057
-11.0199
-11.0444
-11.0772
-10.6093
-10.6025
-10.6208
-10.6378
-10.6561
-10.6774
-10.698
-10.7173
-10.7355
-10.7526
-10.7688
-10.7844
-10.7993
-10.8138
-10.8279
-10.8416
-10.8551
-10.8683
-10.8813
-10.8941
-10.9067
-10.919
-10.931
-10.9429
-10.9545
-10.9659
-10.9773
-10.989
-11.0015
-11.0165
-11.0347
-11.0609
-11.0953
-10.6086
-10.5978
-10.6125
-10.6341
-10.656
-10.6784
-10.6992
-10.7182
-10.7362
-10.7531
-10.7692
-10.7845
-10.7994
-10.8138
-10.8278
-10.8415
-10.855
-10.8682
-10.8812
-10.8941
-10.9067
-10.9193
-10.9316
-10.9439
-10.9561
-10.9683
-10.9809
-10.9941
-11.0085
-11.0255
-11.0458
-11.072
-11.1048
-10.6182
-10.6151
-10.6282
-10.6461
-10.6643
-10.6836
-10.7024
-10.7204
-10.7376
-10.754
-10.7697
-10.7848
-10.7995
-10.8138
-10.8277
-10.8414
-10.8548
-10.868
-10.8811
-10.894
-10.9068
-10.9195
-10.9321
-10.9448
-10.9575
-10.9705
-10.984
-10.9984
-11.0142
-11.0323
-11.0536
-11.0793
-11.11
-10.6267
-10.6256
-10.636
-10.6518
-10.6688
-10.6869
-10.7049
-10.7222
-10.7388
-10.7548
-10.7702
-10.7851
-10.7996
-10.8137
-10.8276
-10.8411
-10.8545
-10.8678
-10.8808
-10.8938
-10.9067
-10.9196
-10.9325
-10.9455
-10.9587
-10.9723
-10.9865
-11.0018
-11.0185
-11.0373
-11.0588
-11.0836
-11.1121
-10.6352
-10.6357
-10.6451
-10.6592
-10.6746
-10.6912
-10.708
-10.7243
-10.7403
-10.7558
-10.7708
-10.7854
-10.7997
-10.8137
-10.8274
-10.8409
-10.8542
-10.8674
-10.8805
-10.8935
-10.9065
-10.9196
-10.9327
-10.946
-10.9596
-10.9736
-10.9884
-11.0042
-11.0214
-11.0404
-11.0617
-11.0854
-11.1118
-10.6435
-10.6449
-10.6531
-10.6657
-10.6798
-10.6951
-10.7108
-10.7264
-10.7418
-10.7568
-10.7714
-10.7858
-10.7998
-10.8136
-10.8272
-10.8406
-10.8538
-10.867
-10.8801
-10.8931
-10.9062
-10.9193
-10.9326
-10.9461
-10.96
-10.9744
-10.9895
-11.0056
-11.023
-11.0419
-11.0627
-11.0853
-11.1098
-10.6514
-10.6532
-10.6607
-10.672
-10.6849
-10.6991
-10.7138
-10.7286
-10.7433
-10.7578
-10.7721
-10.7861
-10.7999
-10.8135
-10.8269
-10.8402
-10.8533
-10.8664
-10.8795
-10.8926
-10.9057
-10.9189
-10.9323
-10.9459
-10.96
-10.9746
-10.9899
-11.0061
-11.0234
-11.042
-11.062
-11.0835
-11.1063
-10.6589
-10.6609
-10.6677
-10.6779
-10.6898
-10.7029
-10.7167
-10.7308
-10.7449
-10.7589
-10.7727
-10.7864
-10.8
-10.8133
-10.8266
-10.8397
-10.8528
-10.8658
-10.8788
-10.8918
-10.9049
-10.9182
-10.9316
-10.9454
-10.9595
-10.9742
-10.9895
-11.0056
-11.0227
-11.0408
-11.06
-11.0804
-11.1017
-10.666
-10.6679
-10.6742
-10.6834
-10.6944
-10.7066
-10.7196
-10.7329
-10.7464
-10.7599
-10.7734
-10.7867
-10.8
-10.8131
-10.8262
-10.8392
-10.8521
-10.865
-10.8779
-10.8909
-10.904
-10.9172
-10.9306
-10.9444
-10.9585
-10.9731
-10.9883
-11.0042
-11.0209
-11.0384
-11.0568
-11.0761
-11.096
-10.6725
-10.6743
-10.6801
-10.6886
-10.6987
-10.7101
-10.7223
-10.735
-10.7479
-10.7609
-10.7739
-10.787
-10.7999
-10.8128
-10.8257
-10.8385
-10.8513
-10.8641
-10.8769
-10.8898
-10.9028
-10.9159
-10.9293
-10.9429
-10.9569
-10.9714
-10.9864
-11.0019
-11.0181
-11.035
-11.0526
-11.0707
-11.0893
-10.6785
-10.6802
-10.6856
-10.6934
-10.7027
-10.7134
-10.7249
-10.7369
-10.7493
-10.7618
-10.7744
-10.7871
-10.7998
-10.8124
-10.8251
-10.8377
-10.8503
-10.8629
-10.8756
-10.8884
-10.9012
-10.9143
-10.9275
-10.941
-10.9549
-10.9691
-10.9837
-10.9989
-11.0145
-11.0307
-11.0474
-11.0645
-11.0819
-10.6839
-10.6856
-10.6906
-10.6977
-10.7064
-10.7164
-10.7272
-10.7387
-10.7505
-10.7626
-10.7748
-10.7872
-10.7995
-10.8119
-10.8243
-10.8367
-10.8491
-10.8616
-10.8741
-10.8867
-10.8994
-10.9123
-10.9254
-10.9386
-10.9522
-10.9661
-10.9804
-10.995
-11.0101
-11.0255
-11.0413
-11.0574
-11.0737
-10.6888
-10.6904
-10.695
-10.7017
-10.7098
-10.7191
-10.7294
-10.7403
-10.7516
-10.7632
-10.7751
-10.7871
-10.7991
-10.8112
-10.8234
-10.8356
-10.8478
-10.8601
-10.8724
-10.8848
-10.8973
-10.91
-10.9228
-10.9358
-10.949
-10.9626
-10.9764
-10.9905
-11.0049
-11.0196
-11.0345
-11.0496
-11.0648
-10.6932
-10.6947
-10.699
-10.7052
-10.7128
-10.7215
-10.7313
-10.7416
-10.7525
-10.7637
-10.7752
-10.7868
-10.7986
-10.8104
-10.8223
-10.8343
-10.8462
-10.8583
-10.8704
-10.8826
-10.8948
-10.9072
-10.9198
-10.9325
-10.9453
-10.9584
-10.9717
-10.9853
-10.999
-11.0129
-11.0269
-11.0411
-11.0553
-10.697
-10.6984
-10.7024
-10.7082
-10.7153
-10.7236
-10.7328
-10.7427
-10.7532
-10.764
-10.7751
-10.7864
-10.7978
-10.8094
-10.821
-10.8327
-10.8445
-10.8563
-10.8681
-10.88
-10.892
-10.9041
-10.9163
-10.9287
-10.9411
-10.9538
-10.9665
-10.9794
-10.9924
-11.0056
-11.0188
-11.032
-11.0452
-10.7002
-10.7015
-10.7053
-10.7107
-10.7175
-10.7253
-10.7341
-10.7436
-10.7536
-10.764
-10.7748
-10.7858
-10.7969
-10.8082
-10.8195
-10.831
-10.8424
-10.854
-10.8656
-10.8772
-10.8889
-10.9007
-10.9125
-10.9244
-10.9364
-10.9486
-10.9607
-10.973
-10.9853
-10.9977
-11.01
-11.0224
-11.0346
-10.7029
-10.7041
-10.7077
-10.7128
-10.7192
-10.7266
-10.735
-10.7441
-10.7537
-10.7638
-10.7742
-10.7849
-10.7957
-10.8067
-10.8178
-10.8289
-10.8402
-10.8514
-10.8627
-10.874
-10.8854
-10.8968
-10.9083
-10.9198
-10.9313
-10.9429
-10.9545
-10.9661
-10.9777
-10.9893
-11.0008
-11.0122
-11.0235
-10.705
-10.7061
-10.7095
-10.7143
-10.7204
-10.7275
-10.7355
-10.7442
-10.7535
-10.7633
-10.7734
-10.7838
-10.7943
-10.805
-10.8158
-10.8267
-10.8376
-10.8486
-10.8596
-10.8706
-10.8816
-10.8926
-10.9037
-10.9147
-10.9257
-10.9368
-10.9478
-10.9587
-10.9696
-10.9804
-10.9911
-11.0017
-11.0121
-10.7065
-10.7076
-10.7107
-10.7153
-10.7211
-10.7279
-10.7356
-10.744
-10.753
-10.7624
-10.7722
-10.7823
-10.7926
-10.803
-10.8135
-10.8241
-10.8348
-10.8454
-10.8561
-10.8668
-10.8774
-10.888
-10.8986
-10.9092
-10.9197
-10.9302
-10.9406
-10.9509
-10.9611
-10.9711
-10.9811
-10.9908
-11.0003
-10.7073
-10.7084
-10.7114
-10.7158
-10.7213
-10.7278
-10.7353
-10.7434
-10.7521
-10.7613
-10.7708
-10.7807
-10.7907
-10.8008
-10.8111
-10.8214
-10.8318
-10.8421
-10.8524
-10.8628
-10.873
-10.8832
-10.8934
-10.9035
-10.9135
-10.9234
-10.9331
-10.9428
-10.9523
-10.9616
-10.9707
-10.9796
-10.9883
-10.7075
-10.7085
-10.7114
-10.7156
-10.7208
-10.7271
-10.7342
-10.7421
-10.7506
-10.7595
-10.7688
-10.7784
-10.7882
-10.7981
-10.8081
-10.8181
-10.8282
-10.8382
-10.8483
-10.8582
-10.8681
-10.8779
-10.8876
-10.8972
-10.9067
-10.9161
-10.9252
-10.9342
-10.9431
-10.9517
-10.96
-10.9681
-10.976
-10.7071
-10.7081
-10.7108
-10.7149
-10.7201
-10.7262
-10.7332
-10.7409
-10.7492
-10.758
-10.767
-10.7764
-10.7859
-10.7956
-10.8053
-10.8151
-10.8249
-10.8346
-10.8443
-10.8539
-10.8633
-10.8727
-10.882
-10.8911
-10.9
-10.9088
-10.9173
-10.9257
-10.9338
-10.9417
-10.9493
-10.9567
-10.9637
-10.7059
-10.7067
-10.7092
-10.713
-10.7178
-10.7237
-10.7304
-10.7379
-10.7461
-10.7546
-10.7636
-10.7728
-10.7822
-10.7917
-10.8012
-10.8108
-10.8204
-10.8298
-10.8392
-10.8485
-10.8577
-10.8667
-10.8755
-10.8842
-10.8926
-10.9008
-10.9089
-10.9166
-10.9241
-10.9314
-10.9383
-10.9449
-10.9512
-10.7042
-10.7052
-10.7079
-10.7119
-10.7169
-10.7228
-10.7296
-10.737
-10.745
-10.7534
-10.7622
-10.7712
-10.7803
-10.7895
-10.7988
-10.808
-10.8172
-10.8263
-10.8353
-10.8442
-10.8529
-10.8614
-10.8698
-10.8779
-10.8858
-10.8935
-10.9009
-10.908
-10.9149
-10.9214
-10.9276
-10.9335
-10.9391
-10.7012
-10.7014
-10.7032
-10.7063
-10.7106
-10.7163
-10.7229
-10.7303
-10.7384
-10.7469
-10.7558
-10.7649
-10.7741
-10.7834
-10.7927
-10.802
-10.8111
-10.8201
-10.829
-10.8377
-10.8462
-10.8544
-10.8625
-10.8702
-10.8778
-10.885
-10.8919
-10.8985
-10.9049
-10.9108
-10.9165
-10.9218
-10.9267
-10.6991
-10.7011
-10.7043
-10.7083
-10.7132
-10.719
-10.7255
-10.7327
-10.7404
-10.7485
-10.7569
-10.7655
-10.7742
-10.783
-10.7918
-10.8005
-10.8092
-10.8177
-10.826
-10.8342
-10.8421
-10.8498
-10.8573
-10.8645
-10.8714
-10.8781
-10.8844
-10.8904
-10.896
-10.9014
-10.9063
-10.9109
-10.9151
-10.6911
-10.689
-10.6888
-10.691
-10.6955
-10.7016
-10.7088
-10.717
-10.7257
-10.7349
-10.7443
-10.7538
-10.7633
-10.7727
-10.7821
-10.7913
-10.8003
-10.809
-10.8176
-10.8258
-10.8338
-10.8415
-10.8489
-10.8559
-10.8626
-10.869
-10.875
-10.8806
-10.8859
-10.8908
-10.8953
-10.8994
-10.9031
-10.6967
-10.7022
-10.7064
-10.7095
-10.7132
-10.718
-10.7237
-10.7301
-10.7372
-10.7447
-10.7525
-10.7606
-10.7688
-10.777
-10.7852
-10.7934
-10.8014
-10.8093
-10.8169
-10.8244
-10.8316
-10.8385
-10.8451
-10.8515
-10.8575
-10.8632
-10.8685
-10.8734
-10.878
-10.8822
-10.8861
-10.8895
-10.8925
-10.6673
-10.6562
-10.653
-10.6568
-10.6642
-10.6733
-10.6835
-10.6942
-10.7053
-10.7164
-10.7274
-10.7382
-10.7487
-10.759
-10.7689
-10.7785
-10.7878
-10.7967
-10.8052
-10.8133
-10.821
-10.8283
-10.8353
-10.8418
-10.8479
-10.8536
-10.8589
-10.8638
-10.8682
-10.8722
-10.8758
-10.879
-10.8817
-10.7149
-10.7312
-10.7324
-10.7267
-10.7244
-10.7253
-10.7283
-10.7325
-10.7378
-10.7438
-10.7505
-10.7575
-10.7648
-10.7722
-10.7796
-10.787
-10.7943
-10.8015
-10.8084
-10.8152
-10.8216
-10.8278
-10.8336
-10.8392
-10.8443
-10.8492
-10.8536
-10.8577
-10.8613
-10.8646
-10.8675
-10.8699
-10.872
-10.6051
-10.567
-10.5613
-10.5851
-10.6053
-10.6235
-10.6415
-10.6587
-10.6749
-10.6902
-10.7045
-10.718
-10.7307
-10.7426
-10.7539
-10.7645
-10.7744
-10.7839
-10.7927
-10.801
-10.8088
-10.8161
-10.8228
-10.8291
-10.8349
-10.8402
-10.845
-10.8493
-10.8532
-10.8565
-10.8594
-10.8618
-10.8637
-10.8175
-10.842
-10.8128
-10.776
-10.7526
-10.7446
-10.7414
-10.7407
-10.7423
-10.7458
-10.7504
-10.7557
-10.7616
-10.7678
-10.7743
-10.7807
-10.7872
-10.7936
-10.7998
-10.8058
-10.8116
-10.8171
-10.8222
-10.8271
-10.8316
-10.8358
-10.8395
-10.8429
-10.8459
-10.8484
-10.8506
-10.8524
-10.8537
-10.4018
-10.32
-10.3771
-10.4579
-10.5142
-10.5526
-10.5859
-10.615
-10.64
-10.6617
-10.681
-10.6983
-10.7139
-10.7281
-10.741
-10.753
-10.7639
-10.7741
-10.7834
-10.7921
-10.8001
-10.8074
-10.8141
-10.8203
-10.8259
-10.8309
-10.8354
-10.8393
-10.8427
-10.8456
-10.848
-10.8498
-10.8512
-11.3783
-11.1002
-10.8945
-10.8032
-10.7661
-10.7454
-10.7326
-10.727
-10.7261
-10.7282
-10.7321
-10.7373
-10.7434
-10.7499
-10.7566
-10.7635
-10.7703
-10.7771
-10.7836
-10.7899
-10.7959
-10.8016
-10.807
-10.8119
-10.8165
-10.8207
-10.8245
-10.8278
-10.8307
-10.8332
-10.8353
-10.8369
-10.838
-9.42024
-9.98182
-10.2864
-10.4025
-10.484
-10.5473
-10.5924
-10.6263
-10.6536
-10.676
-10.6947
-10.7109
-10.7252
-10.738
-10.7495
-10.7601
-10.7697
-10.7787
-10.7869
-10.7945
-10.8015
-10.808
-10.8139
-10.8192
-10.824
-10.8283
-10.8321
-10.8354
-10.8382
-10.8404
-10.8422
-10.8435
-10.8444
-10.5525
-11.1531
-11.2103
-11.2701
-11.3746
-11.4514
-11.5108
-11.5654
-11.6214
-11.6797
-11.7419
-11.8079
-11.8765
-11.9458
-12.014
-12.0794
-12.1404
-12.1959
-12.2452
-12.2876
-12.3227
-12.3501
-12.3695
-12.3806
-12.383
-12.3763
-12.36
-12.3335
-12.2962
-12.2473
-12.1863
-12.1122
-12.0244
-11.9221
-11.8046
-11.6713
-11.5216
-11.355
-11.1712
-10.9698
-10.7509
-10.5144
-10.2606
-9.99007
-9.70342
-9.40164
-9.08593
-8.75773
-8.41873
-8.07081
-7.71606
-7.35671
-6.99512
-6.6337
-6.27488
-5.92109
-5.57462
-5.23767
-4.91224
-4.60008
-4.30271
-4.02134
-3.75686
-3.50986
-3.28058
-3.06897
-2.87467
-2.69707
-2.53528
-2.38822
-2.25463
-2.13307
-2.02201
-1.91983
-1.82487
-1.73546
-1.64996
-1.56681
-1.48457
-1.40195
-1.31785
-1.23145
-1.14219
-1.04988
-0.954689
-0.857179
-0.75832
-0.659472
-0.562289
-0.468704
-0.380589
-0.299965
-0.227929
-0.166477
-0.114013
-0.0752922
-0.0389713
-0.0284441
0.01311
-0.0385159
-11.371
-11.6482
-11.5496
-11.486
-11.4733
-11.4761
-11.4907
-11.5191
-11.5634
-11.6193
-11.684
-11.7547
-11.828
-11.9011
-11.9718
-12.0381
-12.0989
-12.1535
-12.2013
-12.2421
-12.2756
-12.3014
-12.3195
-12.3293
-12.3304
-12.3226
-12.3051
-12.2775
-12.2392
-12.1895
-12.1276
-12.0529
-11.9646
-11.862
-11.7444
-11.6113
-11.462
-11.2962
-11.1134
-10.9134
-10.6962
-10.4619
-10.2106
-9.94298
-9.65962
-9.3615
-9.0498
-8.72593
-8.39151
-8.04839
-7.69858
-7.34424
-6.98765
-6.63115
-6.27711
-5.92787
-5.58568
-5.25266
-4.93076
-4.6217
-4.32696
-4.04773
-3.78488
-3.539
-3.31035
-3.0989
-2.90433
-2.72606
-2.56329
-2.41499
-2.27995
-2.1568
-2.04407
-1.94018
-1.84352
-1.75245
-1.66538
-1.58076
-1.49717
-1.41334
-1.32819
-1.24089
-1.15091
-1.05806
-0.962493
-0.864795
-0.765923
-0.667229
-0.570335
-0.477133
-0.38938
-0.30905
-0.236998
-0.175413
-0.122104
-0.0829437
-0.044358
-0.0342646
0.0128183
-0.0440902
-11.0525
-11.1754
-11.2197
-11.2707
-11.3413
-11.4048
-11.4577
-11.5095
-11.5597
-11.6134
-11.6706
-11.7313
-11.7946
-11.8591
-11.9232
-11.9852
-12.0437
-12.0973
-12.145
-12.1859
-12.2196
-12.2455
-12.2632
-12.2724
-12.2728
-12.264
-12.2455
-12.2169
-12.1775
-12.1268
-12.0641
-11.9888
-11.9
-11.7971
-11.6796
-11.5467
-11.398
-11.233
-11.0514
-10.8531
-10.6378
-10.4058
-10.1573
-9.89283
-9.61299
-9.31875
-9.01125
-8.69185
-8.36216
-8.02395
-7.67917
-7.32993
-6.97846
-6.62702
-6.27791
-5.93342
-5.59571
-5.26687
-4.94877
-4.64308
-4.35123
-4.07439
-3.81341
-3.56886
-3.34101
-3.12986
-2.93513
-2.75627
-2.59254
-2.44296
-2.30639
-2.18154
-2.06699
-1.96123
-1.86269
-1.76979
-1.68097
-1.59472
-1.50963
-1.42445
-1.33814
-1.24987
-1.15912
-1.06571
-0.969808
-0.871996
-0.773226
-0.674828
-0.578369
-0.485675
-0.398364
-0.31836
-0.246293
-0.184551
-0.13038
-0.0907388
-0.0499122
-0.0401385
0.0122613
-0.0494673
-11.161
-11.3296
-11.3934
-11.4112
-11.4362
-11.4621
-11.4875
-11.5185
-11.5569
-11.6022
-11.6546
-11.7122
-11.7726
-11.8338
-11.894
-11.9514
-12.0048
-12.0533
-12.0962
-12.1328
-12.1629
-12.1858
-12.2013
-12.2088
-12.2078
-12.1979
-12.1785
-12.1491
-12.109
-12.0577
-11.9945
-11.9187
-11.8296
-11.7267
-11.6093
-11.4768
-11.3288
-11.1648
-10.9846
-10.7879
-10.5747
-10.3452
-10.0995
-9.83824
-9.56199
-9.2717
-8.96848
-8.65368
-8.32885
-7.99571
-7.65619
-7.31231
-6.96622
-6.62014
-6.27629
-5.93686
-5.60397
-5.2796
-4.96559
-4.66354
-4.37485
-4.10062
-3.84172
-3.59871
-3.37185
-3.16117
-2.96641
-2.78707
-2.62245
-2.47164
-2.33356
-2.20697
-2.09053
-1.98279
-1.88225
-1.78738
-1.69666
-1.60863
-1.52192
-1.4353
-1.34773
-1.25844
-1.16691
-1.07297
-0.976802
-0.878977
-0.780431
-0.682455
-0.586537
-0.494418
-0.407577
-0.327893
-0.255792
-0.193863
-0.138815
-0.0986527
-0.0556136
-0.0460522
0.0114659
-0.0546514
-11.1417
-11.232
-11.275
-11.305
-11.3479
-11.3936
-11.437
-11.4815
-11.5279
-11.5801
-11.6325
-11.6874
-11.7439
-11.8005
-11.8562
-11.9096
-11.9597
-12.0054
-12.0458
-12.0803
-12.1082
-12.129
-12.1422
-12.1474
-12.1443
-12.1322
-12.1108
-12.0796
-12.0379
-11.9852
-11.9208
-11.8441
-11.7545
-11.6512
-11.5338
-11.4016
-11.2542
-11.0912
-10.9123
-10.7173
-10.5063
-10.2793
-10.0366
-9.77864
-9.50618
-9.22006
-8.92139
-8.61146
-8.29178
-7.96404
-7.63008
-7.29187
-6.9515
-6.61109
-6.27279
-5.93871
-5.6109
-5.29126
-4.98155
-4.68334
-4.39796
-4.12651
-3.86981
-3.62843
-3.40267
-3.19254
-2.99783
-2.81809
-2.65265
-2.50066
-2.36109
-2.23278
-2.11443
-2.00468
-1.90207
-1.80515
-1.71244
-1.62253
-1.5341
-1.44596
-1.35711
-1.26678
-1.17448
-1.08006
-0.983699
-0.885956
-0.787731
-0.690257
-0.59493
-0.503403
-0.417022
-0.337631
-0.265467
-0.203319
-0.147381
-0.10666
-0.0614418
-0.0519827
0.0104544
-0.05963
-11.1506
-11.2316
-11.2905
-11.3314
-11.3712
-11.4096
-11.4458
-11.4836
-11.5247
-11.5669
-11.6146
-11.665
-11.717
-11.7694
-11.8209
-11.8703
-11.9164
-11.9581
-11.9948
-12.0258
-12.0505
-12.0684
-12.079
-12.082
-12.0768
-12.0629
-12.0398
-12.007
-11.9639
-11.9099
-11.8444
-11.7668
-11.6765
-11.5728
-11.4552
-11.3232
-11.1763
-11.0143
-10.8367
-10.6435
-10.4346
-10.2102
-9.97053
-9.7161
-9.44756
-9.16578
-8.87183
-8.56698
-8.25268
-7.93058
-7.60243
-7.27016
-6.93576
-6.60126
-6.26873
-5.9402
-5.61761
-5.30281
-4.9975
-4.70319
-4.42117
-4.15251
-3.89804
-3.65831
-3.43364
-3.22408
-3.02943
-2.8493
-2.68305
-2.52989
-2.38885
-2.25882
-2.13857
-2.02678
-1.92208
-1.82306
-1.72832
-1.63649
-1.5463
-1.45661
-1.36645
-1.27509
-1.18206
-1.08721
-0.990715
-0.893118
-0.795263
-0.69832
-0.603587
-0.512632
-0.426681
-0.347548
-0.275292
-0.212897
-0.156062
-0.114744
-0.0673859
-0.0579189
0.00924042
-0.0644047
-11.1512
-11.214
-11.264
-11.3017
-11.3395
-11.3785
-11.4171
-11.4562
-11.4991
-11.5431
-11.5897
-11.6379
-11.6868
-11.7357
-11.7834
-11.829
-11.8713
-11.9096
-11.943
-11.971
-11.9928
-12.0081
-12.0162
-12.0168
-12.0092
-11.9932
-11.968
-11.9334
-11.8886
-11.8331
-11.7663
-11.6877
-11.5966
-11.4925
-11.3747
-11.2429
-11.0966
-10.9355
-10.7593
-10.568
-10.3613
-10.1397
-9.90319
-9.65241
-9.38798
-9.11074
-8.82172
-8.52215
-8.21344
-7.89715
-7.57499
-7.24878
-6.92043
-6.5919
-6.26516
-5.94216
-5.62478
-5.31479
-5.01384
-4.72338
-4.44469
-4.1788
-3.92652
-3.68844
-3.46485
-3.25584
-3.06126
-2.88073
-2.71368
-2.55935
-2.41684
-2.28509
-2.16293
-2.04911
-1.94231
-1.84118
-1.74439
-1.65062
-1.55867
-1.46742
-1.37597
-1.28359
-1.18985
-1.0946
-0.998003
-0.900571
-0.803093
-0.706667
-0.612501
-0.522084
-0.436525
-0.357617
-0.285246
-0.222577
-0.164842
-0.122892
-0.0734354
-0.0638511
0.00783927
-0.0689784
-11.1507
-11.2037
-11.2513
-11.2914
-11.3301
-11.3686
-11.4063
-11.4447
-11.4834
-11.5245
-11.5676
-11.612
-11.6571
-11.7021
-11.746
-11.7877
-11.8264
-11.8612
-11.8914
-11.9162
-11.935
-11.9475
-11.953
-11.9511
-11.9413
-11.9231
-11.896
-11.8595
-11.8131
-11.7562
-11.6882
-11.6086
-11.5168
-11.4122
-11.2943
-11.1628
-11.0171
-10.857
-10.6823
-10.4928
-10.2885
-10.0697
-9.8365
-9.58947
-9.32922
-9.05658
-8.77254
-8.47829
-8.17516
-7.86467
-7.54844
-7.22822
-6.90585
-6.5832
-6.26216
-5.94461
-5.63235
-5.3271
-5.03043
-4.74377
-4.46835
-4.2052
-3.9551
-3.71864
-3.49613
-3.28769
-3.09318
-2.91227
-2.74444
-2.58897
-2.44501
-2.31155
-2.1875
-2.07166
-1.96277
-1.85955
-1.76072
-1.66503
-1.57131
-1.47852
-1.38577
-1.29239
-1.19796
-1.10231
-1.00562
-0.908343
-0.81122
-0.715281
-0.621646
-0.531728
-0.446529
-0.367815
-0.29531
-0.232344
-0.173709
-0.131093
-0.0795811
-0.0697716
0.00626597
-0.0733565
-11.1483
-11.194
-11.2375
-11.276
-11.313
-11.3499
-11.3865
-11.4235
-11.4615
-11.5011
-11.5419
-11.5837
-11.6257
-11.6673
-11.7076
-11.7458
-11.781
-11.8124
-11.8393
-11.8611
-11.8771
-11.8869
-11.8899
-11.8856
-11.8736
-11.8533
-11.8243
-11.786
-11.738
-11.6797
-11.6105
-11.53
-11.4375
-11.3325
-11.2146
-11.0834
-10.9384
-10.7794
-10.6062
-10.4187
-10.2168
-10.0008
-9.77093
-9.52766
-9.27159
-9.00352
-8.72442
-8.43541
-8.13779
-7.83301
-7.52261
-7.20829
-6.89179
-6.57492
-6.25948
-5.94729
-5.64007
-5.33947
-5.04703
-4.76412
-4.49195
-4.2315
-3.98357
-3.74873
-3.52732
-3.31945
-3.12504
-2.94378
-2.7752
-2.61862
-2.47324
-2.33812
-2.21222
-2.09439
-1.98344
-1.87815
-1.7773
-1.6797
-1.58424
-1.48992
-1.3959
-1.30153
-1.2064
-1.11036
-1.01356
-0.916413
-0.819617
-0.724131
-0.630992
-0.541541
-0.456673
-0.378128
-0.305472
-0.242189
-0.182654
-0.139338
-0.0858148
-0.0756744
0.00453532
-0.077546
-11.1446
-11.185
-11.2249
-11.2621
-11.2981
-11.3338
-11.3693
-11.405
-11.4413
-11.4785
-11.5167
-11.5554
-11.5941
-11.6323
-11.6691
-11.7037
-11.7355
-11.7636
-11.7873
-11.8061
-11.8193
-11.8264
-11.8268
-11.8202
-11.806
-11.7836
-11.7528
-11.7128
-11.6633
-11.6036
-11.5333
-11.4519
-11.3588
-11.2536
-11.1357
-11.0049
-10.8606
-10.7028
-10.5311
-10.3456
-10.1461
-9.93297
-9.7064
-9.46684
-9.21491
-8.95137
-8.67713
-8.3933
-8.10111
-7.80193
-7.49728
-7.18875
-6.87803
-6.56683
-6.25691
-5.94998
-5.64772
-5.35172
-5.06346
-4.78426
-4.5153
-4.25754
-4.01178
-3.77857
-3.55826
-3.351
-3.15672
-2.97514
-2.80584
-2.64819
-2.50144
-2.3647
-2.23698
-2.1172
-2.00423
-1.89692
-1.79408
-1.69461
-1.59743
-1.50161
-1.40633
-1.31097
-1.21515
-1.11871
-1.02178
-0.924747
-0.828252
-0.733191
-0.64052
-0.551506
-0.466945
-0.388546
-0.315725
-0.252105
-0.191673
-0.147623
-0.0921297
-0.0815555
0.00266173
-0.0815559
-11.1398
-11.1761
-11.2128
-11.248
-11.2824
-11.3165
-11.3505
-11.3846
-11.4191
-11.4543
-11.49
-11.5259
-11.5616
-11.5966
-11.6301
-11.6614
-11.6898
-11.7147
-11.7353
-11.7511
-11.7615
-11.766
-11.7639
-11.755
-11.7386
-11.7143
-11.6815
-11.6399
-11.5889
-11.528
-11.4567
-11.3744
-11.2808
-11.1753
-11.0575
-10.9271
-10.7837
-10.627
-10.4569
-10.2733
-10.0763
-9.86602
-9.64273
-9.40687
-9.15903
-8.89995
-8.63052
-8.35178
-8.06493
-7.77128
-7.47227
-7.16944
-6.8644
-6.55879
-6.25429
-5.95256
-5.6552
-5.36373
-5.0796
-4.80408
-4.5383
-4.28323
-4.03963
-3.80806
-3.58888
-3.38225
-3.18812
-3.00627
-2.83629
-2.67762
-2.52954
-2.39122
-2.26173
-2.14004
-2.0251
-1.91579
-1.81101
-1.7097
-1.61084
-1.51353
-1.417
-1.32068
-1.22416
-1.12732
-1.03025
-0.933323
-0.837108
-0.742448
-0.650218
-0.561617
-0.47734
-0.399065
-0.326065
-0.262087
-0.20076
-0.155942
-0.0985196
-0.0874119
0.000659075
-0.0853959
-11.1339
-11.167
-11.2008
-11.234
-11.2667
-11.2992
-11.3316
-11.364
-11.3967
-11.4297
-11.4629
-11.4961
-11.5288
-11.5606
-11.5908
-11.6189
-11.6441
-11.6658
-11.6834
-11.6963
-11.7039
-11.7058
-11.7013
-11.69
-11.6715
-11.6452
-11.6107
-11.5674
-11.515
-11.4528
-11.3805
-11.2975
-11.2034
-11.0977
-10.98
-10.8501
-10.7074
-10.552
-10.3835
-10.2019
-10.0073
-9.79987
-9.57983
-9.34763
-9.10384
-8.84917
-8.58448
-8.31076
-8.02916
-7.74095
-7.44749
-7.15027
-6.85081
-6.55071
-6.25156
-5.95494
-5.66241
-5.37543
-5.09538
-4.8235
-4.5609
-4.3085
-4.06706
-3.83714
-3.61911
-3.41313
-3.2192
-3.03711
-2.8665
-2.70684
-2.55748
-2.41763
-2.28641
-2.16287
-2.046
-1.93474
-1.82805
-1.72493
-1.62442
-1.52565
-1.42791
-1.33062
-1.23343
-1.13619
-1.03898
-0.94213
-0.846177
-0.751895
-0.660084
-0.571871
-0.487856
-0.409683
-0.336489
-0.272134
-0.209912
-0.164292
-0.104979
-0.0932422
-0.00145942
-0.0890768
-11.1272
-11.1576
-11.1888
-11.2199
-11.2508
-11.2815
-11.3122
-11.3428
-11.3735
-11.4043
-11.4351
-11.4656
-11.4955
-11.5242
-11.5514
-11.5763
-11.5983
-11.617
-11.6316
-11.6417
-11.6466
-11.6459
-11.639
-11.6254
-11.6048
-11.5765
-11.5402
-11.4954
-11.4415
-11.3782
-11.3049
-11.2212
-11.1266
-11.0208
-10.9033
-10.7738
-10.632
-10.4777
-10.3109
-10.1313
-9.93913
-9.73449
-9.51768
-9.2891
-9.04931
-8.79898
-8.53895
-8.27017
-7.99375
-7.71088
-7.42289
-7.13118
-6.83722
-6.54253
-6.24864
-5.95707
-5.6693
-5.38675
-5.11074
-4.84248
-4.58302
-4.33329
-4.09402
-3.86576
-3.6489
-3.44361
-3.2499
-3.06761
-2.89641
-2.73582
-2.58522
-2.44389
-2.311
-2.18566
-2.06689
-1.95373
-1.84519
-1.7403
-1.63816
-1.53797
-1.43903
-1.3408
-1.24294
-1.1453
-1.04794
-0.951164
-0.855457
-0.761533
-0.670116
-0.582267
-0.498492
-0.420399
-0.346997
-0.282244
-0.219128
-0.172672
-0.111504
-0.099046
-0.0036814
-0.0926098
-11.1196
-11.1477
-11.1766
-11.2057
-11.2347
-11.2636
-11.2924
-11.3212
-11.3499
-11.3785
-11.4068
-11.4347
-11.4618
-11.4876
-11.5118
-11.5336
-11.5527
-11.5683
-11.5801
-11.5873
-11.5896
-11.5863
-11.577
-11.5612
-11.5385
-11.5083
-11.4703
-11.4239
-11.3686
-11.3041
-11.2299
-11.1455
-11.0505
-10.9446
-10.8272
-10.6983
-10.5574
-10.4043
-10.2391
-10.0615
-9.87173
-9.66989
-9.45626
-9.23126
-8.99541
-8.74937
-8.49393
-8.23002
-7.95868
-7.68106
-7.39844
-7.11215
-6.8236
-6.53424
-6.24552
-5.95892
-5.67585
-5.39767
-5.12565
-4.86097
-4.60464
-4.35756
-4.12046
-3.89387
-3.67819
-3.47362
-3.28018
-3.09773
-2.92599
-2.76451
-2.61273
-2.46997
-2.33547
-2.20836
-2.08777
-1.97275
-1.86239
-1.75578
-1.65206
-1.55047
-1.45036
-1.35121
-1.25269
-1.15465
-1.05714
-0.960426
-0.864947
-0.77136
-0.680316
-0.592806
-0.509249
-0.431213
-0.35759
-0.292417
-0.228407
-0.181081
-0.11809
-0.104824
-0.00599542
-0.0960065
-11.1114
-11.1373
-11.1641
-11.1912
-11.2183
-11.2453
-11.2723
-11.2991
-11.3258
-11.3522
-11.3781
-11.4035
-11.4278
-11.4508
-11.472
-11.491
-11.5071
-11.5198
-11.5287
-11.5333
-11.5329
-11.5271
-11.5155
-11.4975
-11.4727
-11.4407
-11.4009
-11.353
-11.2964
-11.2308
-11.1556
-11.0706
-10.9752
-10.8691
-10.752
-10.6236
-10.4836
-10.3318
-10.1681
-9.99255
-9.80515
-9.60608
-9.39561
-9.17414
-8.94217
-8.70034
-8.44942
-8.19028
-7.92394
-7.65149
-7.37414
-7.09317
-6.80993
-6.5258
-6.24218
-5.96046
-5.68202
-5.40815
-5.14008
-4.87893
-4.62571
-4.38127
-4.14633
-3.92143
-3.70696
-3.50313
-3.30999
-3.12743
-2.95519
-2.79288
-2.63997
-2.49584
-2.35977
-2.23096
-2.10859
-1.99177
-1.87964
-1.77135
-1.66609
-1.56314
-1.46188
-1.36184
-1.26267
-1.16423
-1.06657
-0.969911
-0.874646
-0.781375
-0.690681
-0.603487
-0.520127
-0.442127
-0.368267
-0.302653
-0.237748
-0.18952
-0.124735
-0.110578
-0.00839126
-0.099278
-11.1024
-11.1265
-11.1513
-11.1764
-11.2016
-11.2268
-11.2519
-11.2767
-11.3013
-11.3255
-11.3491
-11.3719
-11.3937
-11.4139
-11.4323
-11.4484
-11.4616
-11.4716
-11.4777
-11.4796
-11.4767
-11.4684
-11.4545
-11.4344
-11.4076
-11.3736
-11.3322
-11.2827
-11.2249
-11.1581
-11.0821
-10.9965
-10.9007
-10.7946
-10.6777
-10.5498
-10.4107
-10.2601
-10.0981
-9.9245
-9.73946
-9.54312
-9.33576
-9.11776
-8.88961
-8.65193
-8.40544
-8.151
-7.88955
-7.62216
-7.34999
-7.07424
-6.7962
-6.51721
-6.23859
-5.96168
-5.68779
-5.41816
-5.15399
-4.89634
-4.64619
-4.40438
-4.1716
-3.9484
-3.73515
-3.53209
-3.33929
-3.15666
-2.98397
-2.82088
-2.6669
-2.52145
-2.38387
-2.25343
-2.12933
-2.01076
-1.89692
-1.78699
-1.68023
-1.57596
-1.47359
-1.37267
-1.27287
-1.17405
-1.07623
-0.979615
-0.884549
-0.791576
-0.70121
-0.61431
-0.531126
-0.45314
-0.379029
-0.312954
-0.247154
-0.19799
-0.131438
-0.116311
-0.0108598
-0.102436
-11.0928
-11.1151
-11.138
-11.1613
-11.1846
-11.2079
-11.2311
-11.254
-11.2765
-11.2985
-11.3198
-11.3402
-11.3593
-11.3769
-11.3926
-11.4059
-11.4164
-11.4236
-11.4271
-11.4263
-11.4209
-11.4103
-11.3941
-11.3718
-11.343
-11.3073
-11.2642
-11.2133
-11.1542
-11.0864
-11.0095
-10.9233
-10.8272
-10.721
-10.6044
-10.477
-10.3388
-10.1895
-10.029
-9.85741
-9.6747
-9.48106
-9.27677
-9.06218
-8.83778
-8.60417
-8.36203
-8.11218
-7.85553
-7.5931
-7.32599
-7.05535
-6.78243
-6.50847
-6.23475
-5.96256
-5.69314
-5.4277
-5.16736
-4.91317
-4.66606
-4.42686
-4.19624
-3.97473
-3.76273
-3.56047
-3.36804
-3.18537
-3.01229
-2.84847
-2.69347
-2.54677
-2.40774
-2.27571
-2.14995
-2.02969
-1.91419
-1.80268
-1.69447
-1.58891
-1.48546
-1.38369
-1.28327
-1.18408
-1.0861
-0.989527
-0.894647
-0.801956
-0.711899
-0.625271
-0.542244
-0.464252
-0.389879
-0.323323
-0.256626
-0.206494
-0.138198
-0.122027
-0.0133936
-0.10549
-11.0825
-11.1032
-11.1244
-11.1458
-11.1674
-11.1888
-11.2101
-11.231
-11.2514
-11.2713
-11.2903
-11.3083
-11.3249
-11.34
-11.353
-11.3636
-11.3714
-11.376
-11.3769
-11.3736
-11.3657
-11.3528
-11.3344
-11.31
-11.2793
-11.2418
-11.1971
-11.1447
-11.0843
-11.0155
-10.9379
-10.8511
-10.7547
-10.6485
-10.5321
-10.4053
-10.268
-10.1199
-9.96103
-9.79135
-9.61093
-9.41996
-9.21867
-9.00744
-8.78672
-8.55709
-8.31921
-8.07385
-7.82191
-7.56433
-7.30217
-7.03653
-6.7686
-6.49957
-6.23066
-5.96309
-5.69806
-5.43672
-5.18016
-4.92938
-4.68529
-4.44867
-4.2202
-4.00039
-3.78965
-3.58821
-3.39619
-3.21354
-3.0401
-2.87561
-2.71965
-2.57175
-2.43134
-2.29778
-2.17042
-2.04853
-1.93142
-1.81838
-1.70876
-1.60197
-1.49747
-1.39487
-1.29386
-1.1943
-1.09618
-0.999634
-0.904932
-0.812506
-0.722742
-0.636367
-0.55348
-0.475466
-0.400818
-0.333764
-0.266169
-0.215039
-0.145018
-0.127731
-0.0159861
-0.108452
-11.0717
-11.0908
-11.1103
-11.1301
-11.1498
-11.1694
-11.1888
-11.2077
-11.2262
-11.2439
-11.2606
-11.2763
-11.2905
-11.3031
-11.3135
-11.3216
-11.3268
-11.3288
-11.3272
-11.3214
-11.3112
-11.296
-11.2754
-11.249
-11.2164
-11.1771
-11.1308
-11.0771
-11.0155
-10.9457
-10.8673
-10.7799
-10.6833
-10.577
-10.461
-10.3348
-10.1983
-10.0515
-9.89416
-9.72639
-9.54824
-9.35987
-9.16154
-8.9536
-8.73648
-8.51074
-8.27702
-8.03607
-7.78871
-7.53586
-7.27854
-7.01779
-6.75473
-6.49052
-6.22631
-5.96327
-5.70254
-5.44523
-5.19238
-4.94496
-4.70384
-4.46978
-4.24344
-4.02534
-3.81587
-3.61528
-3.4237
-3.2411
-3.06737
-2.90225
-2.74539
-2.59635
-2.45461
-2.3196
-2.19069
-2.06723
-1.94857
-1.83406
-1.72309
-1.61509
-1.50959
-1.40619
-1.30461
-1.2047
-1.10643
-1.00992
-0.915389
-0.823218
-0.733732
-0.647595
-0.564834
-0.486782
-0.411851
-0.344282
-0.275788
-0.223629
-0.151901
-0.133429
-0.0186326
-0.111332
-11.0604
-11.078
-11.0959
-11.114
-11.132
-11.1498
-11.1673
-11.1843
-11.2007
-11.2163
-11.2309
-11.2443
-11.2562
-11.2663
-11.2743
-11.2799
-11.2826
-11.2821
-11.278
-11.2699
-11.2573
-11.2399
-11.2172
-11.1889
-11.1544
-11.1135
-11.0656
-11.0106
-10.9478
-10.877
-10.7979
-10.71
-10.6131
-10.5069
-10.3911
-10.2655
-10.1299
-9.98428
-9.82851
-9.66262
-9.48669