/*--------------------------------*- C++ -*----------------------------------*\
  =========                 |
  \\      /  F ield         | OpenFOAM: The Open Source CFD Toolbox
   \\    /   O peration     | Website:  https://openfoam.org
    \\  /    A nd           | Version:  10
     \\/     M anipulation  |
\*---------------------------------------------------------------------------*/
FoamFile
{
    format      ascii;
    class       surfaceScalarField;
    location    "0.16";
    object      phi;
}
// * * * * * * * * * * * * * * * * * * * * * * * * * * * * * * * * * * * * * //

dimensions      [0 3 -1 0 0 0 0];

internalField   nonuniform List<scalar> 
13452
(
6.0577e-05
-3.08562e-07
6.03704e-05
2.0659e-07
5.98981e-05
4.72336e-07
5.92838e-05
6.14313e-07
5.86776e-05
6.06179e-07
5.81398e-05
5.37833e-07
5.76729e-05
4.66843e-07
5.7267e-05
4.0597e-07
5.69105e-05
3.56432e-07
5.65937e-05
3.1686e-07
5.63086e-05
2.85078e-07
5.60495e-05
2.59126e-07
5.58119e-05
2.37527e-07
5.55927e-05
2.19212e-07
5.53893e-05
2.03422e-07
5.51997e-05
1.89618e-07
5.50223e-05
1.77423e-07
5.48557e-05
1.66565e-07
5.46988e-05
1.56856e-07
5.45507e-05
1.48164e-07
5.44103e-05
1.40414e-07
5.42767e-05
1.3358e-07
5.4149e-05
1.27698e-07
5.40261e-05
1.22895e-07
5.39067e-05
1.1943e-07
5.37888e-05
1.17887e-07
5.36696e-05
1.19173e-07
5.35438e-05
1.25852e-07
5.34015e-05
1.42209e-07
5.32259e-05
1.75615e-07
5.29541e-05
2.71818e-07
5.25539e-05
4.00254e-07
7.98593e-07
5.17553e-05
6.18026e-05
-1.20826e-07
6.17624e-05
2.46837e-07
6.1879e-05
3.5572e-07
6.20401e-05
4.5319e-07
6.21463e-05
5.00018e-07
6.21749e-05
5.09149e-07
6.21407e-05
5.01105e-07
6.20642e-05
4.82405e-07
6.19621e-05
4.58615e-07
6.18453e-05
4.33582e-07
6.17213e-05
4.09129e-07
6.15944e-05
3.86011e-07
6.14674e-05
3.64502e-07
6.1342e-05
3.44632e-07
6.12191e-05
3.26323e-07
6.10993e-05
3.09459e-07
6.09828e-05
2.9392e-07
6.08697e-05
2.79599e-07
6.07602e-05
2.6641e-07
6.0654e-05
2.54292e-07
6.05512e-05
2.43216e-07
6.04516e-05
2.33192e-07
6.0355e-05
2.24288e-07
6.02613e-05
2.1665e-07
6.01702e-05
2.10563e-07
6.00815e-05
2.06499e-07
5.99953e-05
2.05441e-07
5.99126e-05
2.08549e-07
5.98345e-05
2.20293e-07
5.97706e-05
2.39512e-07
5.97472e-05
2.95193e-07
5.9805e-05
3.42513e-07
5.2842e-07
6.00751e-05
6.36612e-05
-2.06096e-08
6.37526e-05
1.55424e-07
6.38144e-05
2.93945e-07
6.38668e-05
4.00758e-07
6.39095e-05
4.57372e-07
6.39406e-05
4.77965e-07
6.39605e-05
4.81218e-07
6.39676e-05
4.75356e-07
6.39622e-05
4.63997e-07
6.39461e-05
4.49702e-07
6.39212e-05
4.33992e-07
6.38895e-05
4.17738e-07
6.38525e-05
4.01481e-07
6.38116e-05
3.85547e-07
6.37678e-05
3.70125e-07
6.37219e-05
3.55323e-07
6.36746e-05
3.41206e-07
6.36264e-05
3.27814e-07
6.35777e-05
3.15182e-07
6.35286e-05
3.03347e-07
6.34794e-05
2.92368e-07
6.34303e-05
2.82333e-07
6.33812e-05
2.73386e-07
6.33321e-05
2.65745e-07
6.32829e-05
2.59787e-07
6.32333e-05
2.56035e-07
6.31832e-05
2.55579e-07
6.31324e-05
2.59376e-07
6.30812e-05
2.7152e-07
6.30301e-05
2.90571e-07
6.29898e-05
3.35519e-07
6.29528e-05
3.7947e-07
4.88634e-07
6.29926e-05
6.55759e-05
-1.34219e-08
6.55535e-05
1.77856e-07
6.5564e-05
2.83358e-07
6.56045e-05
3.60265e-07
6.56532e-05
4.08691e-07
6.56979e-05
4.33326e-07
6.57348e-05
4.44227e-07
6.57639e-05
4.46333e-07
6.57855e-05
4.424e-07
6.58004e-05
4.34743e-07
6.58096e-05
4.2486e-07
6.58137e-05
4.13642e-07
6.58135e-05
4.01676e-07
6.58096e-05
3.89361e-07
6.58028e-05
3.76966e-07
6.57934e-05
3.64684e-07
6.5782e-05
3.52656e-07
6.57688e-05
3.40997e-07
6.57542e-05
3.29805e-07
6.57383e-05
3.1918e-07
6.57215e-05
3.09236e-07
6.57037e-05
3.00113e-07
6.56851e-05
2.92007e-07
6.56656e-05
2.85184e-07
6.56454e-05
2.80056e-07
6.56242e-05
2.77163e-07
6.56023e-05
2.77496e-07
6.55798e-05
2.81928e-07
6.5558e-05
2.93261e-07
6.55377e-05
3.109e-07
6.55295e-05
3.43754e-07
6.55309e-05
3.77993e-07
4.32541e-07
6.5587e-05
6.74265e-05
1.68951e-08
6.74513e-05
1.53029e-07
6.74794e-05
2.55216e-07
6.75101e-05
3.29553e-07
6.75406e-05
3.78234e-07
6.757e-05
4.0389e-07
6.75984e-05
4.15913e-07
6.76248e-05
4.19847e-07
6.76488e-05
4.18404e-07
6.76701e-05
4.13524e-07
6.76885e-05
4.06456e-07
6.77042e-05
3.97952e-07
6.77173e-05
3.88522e-07
6.77281e-05
3.78528e-07
6.77369e-05
3.68231e-07
6.77437e-05
3.57827e-07
6.77489e-05
3.47472e-07
6.77526e-05
3.37299e-07
6.7755e-05
3.27432e-07
6.77562e-05
3.17995e-07
6.77563e-05
3.09126e-07
6.77554e-05
3.00993e-07
6.77536e-05
2.9381e-07
6.77509e-05
2.8786e-07
6.77474e-05
2.83543e-07
6.77432e-05
2.81359e-07
6.77386e-05
2.82122e-07
6.7734e-05
2.86531e-07
6.77309e-05
2.96336e-07
6.77307e-05
3.11163e-07
6.77397e-05
3.34763e-07
6.77581e-05
3.59531e-07
3.89389e-07
6.78013e-05
6.93768e-05
2.41389e-08
6.93863e-05
1.43508e-07
6.94045e-05
2.37028e-07
6.94305e-05
3.03589e-07
6.946e-05
3.48706e-07
6.94893e-05
3.74609e-07
6.95171e-05
3.88102e-07
6.95431e-05
3.93798e-07
6.95674e-05
3.94153e-07
6.95899e-05
3.90989e-07
6.96108e-05
3.85547e-07
6.96302e-05
3.78594e-07
6.96481e-05
3.70639e-07
6.96645e-05
3.6204e-07
6.96797e-05
3.53053e-07
6.96937e-05
3.43873e-07
6.97065e-05
3.34656e-07
6.97183e-05
3.2554e-07
6.9729e-05
3.16652e-07
6.97389e-05
3.08126e-07
6.97479e-05
3.00105e-07
6.97562e-05
2.92763e-07
6.97637e-05
2.86312e-07
6.97705e-05
2.8102e-07
6.97768e-05
2.77245e-07
6.97827e-05
2.75405e-07
6.97888e-05
2.76109e-07
6.97954e-05
2.79841e-07
6.98042e-05
2.87543e-07
6.98166e-05
2.9883e-07
6.98366e-05
3.14745e-07
6.98654e-05
3.30744e-07
3.45574e-07
6.99092e-05
7.13593e-05
3.11951e-08
7.13708e-05
1.31944e-07
7.13918e-05
2.16106e-07
7.14175e-05
2.77857e-07
7.14449e-05
3.21316e-07
7.14716e-05
3.47866e-07
7.14972e-05
3.62504e-07
7.15217e-05
3.6936e-07
7.1545e-05
3.70865e-07
7.15672e-05
3.68784e-07
7.15884e-05
3.64344e-07
7.16086e-05
3.58325e-07
7.1628e-05
3.51249e-07
7.16466e-05
3.43481e-07
7.16643e-05
3.35283e-07
7.16814e-05
3.26855e-07
7.16977e-05
3.18353e-07
7.17133e-05
3.09918e-07
7.17283e-05
3.01676e-07
7.17426e-05
2.9376e-07
7.17564e-05
2.86313e-07
7.17697e-05
2.79497e-07
7.17825e-05
2.73511e-07
7.17949e-05
2.68589e-07
7.18071e-05
2.65024e-07
7.18194e-05
2.63141e-07
7.18322e-05
2.63345e-07
7.18461e-05
2.65914e-07
7.18624e-05
2.71241e-07
7.18824e-05
2.7886e-07
7.19085e-05
2.88578e-07
7.19418e-05
2.97453e-07
3.03139e-07
7.19843e-05
7.34033e-05
3.31839e-08
7.34139e-05
1.21349e-07
7.34324e-05
1.97578e-07
7.34556e-05
2.54681e-07
7.34812e-05
2.9571e-07
7.3507e-05
3.22027e-07
7.35322e-05
3.37365e-07
7.35563e-05
3.45201e-07
7.35794e-05
3.47747e-07
7.36016e-05
3.46626e-07
7.36229e-05
3.43023e-07
7.36435e-05
3.3773e-07
7.36635e-05
3.31292e-07
7.36829e-05
3.24094e-07
7.37017e-05
3.16416e-07
7.37201e-05
3.08468e-07
7.37381e-05
3.00417e-07
7.37556e-05
2.92404e-07
7.37727e-05
2.84559e-07
7.37894e-05
2.77011e-07
7.38059e-05
2.69895e-07
7.3822e-05
2.63361e-07
7.38379e-05
2.57581e-07
7.38538e-05
2.52748e-07
7.38697e-05
2.49086e-07
7.3886e-05
2.46818e-07
7.39032e-05
2.4618e-07
7.39218e-05
2.47277e-07
7.39429e-05
2.50152e-07
7.39675e-05
2.54284e-07
7.39971e-05
2.59001e-07
7.40322e-05
2.62282e-07
2.62006e-07
7.40734e-05
7.55022e-05
3.34248e-08
7.55122e-05
1.1142e-07
7.55297e-05
1.80065e-07
7.55517e-05
2.32687e-07
7.55761e-05
2.71296e-07
7.5601e-05
2.97108e-07
7.56255e-05
3.12867e-07
7.56493e-05
3.21436e-07
7.56722e-05
3.24812e-07
7.56943e-05
3.2449e-07
7.57158e-05
3.21596e-07
7.57366e-05
3.16915e-07
7.57569e-05
3.11001e-07
7.57767e-05
3.04253e-07
7.57962e-05
2.96965e-07
7.58153e-05
2.89358e-07
7.58341e-05
2.81608e-07
7.58526e-05
2.73862e-07
7.58709e-05
2.6625e-07
7.5889e-05
2.58898e-07
7.5907e-05
2.51932e-07
7.59249e-05
2.45484e-07
7.59428e-05
2.39697e-07
7.59608e-05
2.34722e-07
7.59792e-05
2.30712e-07
7.59982e-05
2.27802e-07
7.60183e-05
2.26096e-07
7.604e-05
2.25565e-07
7.60641e-05
2.26058e-07
7.60913e-05
2.27041e-07
7.61226e-05
2.27738e-07
7.61581e-05
2.26713e-07
2.2237e-07
7.61978e-05
7.76607e-05
3.23155e-08
7.76702e-05
1.01924e-07
7.76865e-05
1.6374e-07
7.77071e-05
2.12144e-07
7.77301e-05
2.48267e-07
7.7754e-05
2.7318e-07
7.77779e-05
2.88962e-07
7.78014e-05
2.97961e-07
7.78243e-05
3.01947e-07
7.78465e-05
3.02274e-07
7.78681e-05
2.99986e-07
7.78892e-05
2.9584e-07
7.79098e-05
2.90385e-07
7.793e-05
2.84025e-07
7.79499e-05
2.77062e-07
7.79695e-05
2.69725e-07
7.79889e-05
2.62197e-07
7.80082e-05
2.54629e-07
7.80273e-05
2.4715e-07
7.80463e-05
2.39882e-07
7.80653e-05
2.32939e-07
7.80843e-05
2.26434e-07
7.81036e-05
2.20482e-07
7.81231e-05
2.15191e-07
7.81431e-05
2.10655e-07
7.8164e-05
2.06936e-07
7.81861e-05
2.04039e-07
7.82098e-05
2.01852e-07
7.82357e-05
2.00128e-07
7.82644e-05
1.98359e-07
7.82963e-05
1.95831e-07
7.83315e-05
1.9151e-07
1.84291e-07
7.83696e-05
7.98802e-05
3.04763e-08
7.98892e-05
9.29059e-08
7.99044e-05
1.48513e-07
7.99237e-05
1.92841e-07
7.99456e-05
2.26418e-07
7.99686e-05
2.50162e-07
7.99919e-05
2.65669e-07
8.0015e-05
2.74842e-07
8.00377e-05
2.79226e-07
8.00599e-05
2.80035e-07
8.00817e-05
2.78229e-07
8.0103e-05
2.74526e-07
8.01239e-05
2.69461e-07
8.01445e-05
2.63433e-07
8.01648e-05
2.56746e-07
8.01849e-05
2.49632e-07
8.02049e-05
2.42275e-07
8.02247e-05
2.34827e-07
8.02444e-05
2.27417e-07
8.02641e-05
2.20156e-07
8.02839e-05
2.13148e-07
8.03039e-05
2.06488e-07
8.03241e-05
2.0026e-07
8.03447e-05
1.94537e-07
8.0366e-05
1.89365e-07
8.03882e-05
1.84748e-07
8.04116e-05
1.80628e-07
8.04366e-05
1.76846e-07
8.04636e-05
1.73124e-07
8.0493e-05
1.69009e-07
8.05249e-05
1.63903e-07
8.05594e-05
1.57064e-07
1.47761e-07
8.05959e-05
8.21627e-05
2.82425e-08
8.21713e-05
8.43125e-08
8.21855e-05
1.34262e-07
8.22037e-05
1.74673e-07
8.22244e-05
2.05687e-07
8.22465e-05
2.28055e-07
8.22692e-05
2.43019e-07
8.22919e-05
2.5212e-07
8.23144e-05
2.56692e-07
8.23367e-05
2.57816e-07
8.23585e-05
2.56364e-07
8.238e-05
2.53008e-07
8.24012e-05
2.48259e-07
8.24222e-05
2.42505e-07
8.24429e-05
2.36044e-07
8.24634e-05
2.29109e-07
8.24838e-05
2.21881e-07
8.25041e-05
2.1451e-07
8.25244e-05
2.07118e-07
8.25447e-05
1.99809e-07
8.25652e-05
1.92675e-07
8.25859e-05
1.8579e-07
8.2607e-05
1.79216e-07
8.26285e-05
1.72992e-07
8.26507e-05
1.67128e-07
8.26739e-05
1.61588e-07
8.26983e-05
1.5628e-07
8.27241e-05
1.51024e-07
8.27517e-05
1.45549e-07
8.27812e-05
1.39471e-07
8.28128e-05
1.32316e-07
8.28463e-05
1.23555e-07
1.12724e-07
8.28813e-05
8.45102e-05
2.58302e-08
8.45184e-05
7.61311e-08
8.45317e-05
1.20892e-07
8.45489e-05
1.57531e-07
8.45686e-05
1.8597e-07
8.45899e-05
2.068e-07
8.46119e-05
2.21e-07
8.46342e-05
2.29815e-07
8.46565e-05
2.34387e-07
8.46786e-05
2.35668e-07
8.47005e-05
2.34443e-07
8.47222e-05
2.31334e-07
8.47437e-05
2.26822e-07
8.47649e-05
2.21278e-07
8.47859e-05
2.14993e-07
8.48069e-05
2.08191e-07
8.48277e-05
2.01051e-07
8.48485e-05
1.93716e-07
8.48693e-05
1.86302e-07
8.48902e-05
1.78903e-07
8.49113e-05
1.71597e-07
8.49326e-05
1.64442e-07
8.49544e-05
1.57478e-07
8.49766e-05
1.5072e-07
8.49996e-05
1.44152e-07
8.50235e-05
1.37713e-07
8.50485e-05
1.31294e-07
8.50748e-05
1.24718e-07
8.51026e-05
1.17739e-07
8.5132e-05
1.10045e-07
8.51631e-05
1.01274e-07
8.51956e-05
9.10536e-08
7.90988e-08
8.52292e-05
8.69246e-05
2.33675e-08
8.69324e-05
6.83414e-08
8.6945e-05
1.08305e-07
8.69612e-05
1.41312e-07
8.698e-05
1.67176e-07
8.70005e-05
1.86346e-07
8.70219e-05
1.99598e-07
8.70437e-05
2.0794e-07
8.70658e-05
2.12337e-07
8.70878e-05
2.13626e-07
8.71098e-05
2.12505e-07
8.71316e-05
2.09544e-07
8.71532e-05
2.05189e-07
8.71747e-05
1.99792e-07
8.71961e-05
1.93629e-07
8.72173e-05
1.86917e-07
8.72386e-05
1.79825e-07
8.72598e-05
1.7249e-07
8.72811e-05
1.65018e-07
8.73025e-05
1.57495e-07
8.73241e-05
1.49985e-07
8.7346e-05
1.42532e-07
8.73683e-05
1.35159e-07
8.73912e-05
1.27862e-07
8.74147e-05
1.20608e-07
8.74391e-05
1.13327e-07
8.74645e-05
1.05903e-07
8.7491e-05
9.81748e-08
8.75188e-05
8.99333e-08
8.7548e-05
8.09306e-08
8.75783e-05
7.08986e-08
8.76098e-05
5.95799e-08
4.68086e-08
8.76421e-05
8.9408e-05
2.09279e-08
8.94154e-05
6.09234e-08
8.94273e-05
9.64135e-08
8.94427e-05
1.25922e-07
8.94606e-05
1.49218e-07
8.94803e-05
1.66633e-07
8.95012e-05
1.78786e-07
8.95226e-05
1.86488e-07
8.95444e-05
1.90556e-07
8.95663e-05
1.91714e-07
8.95882e-05
1.90582e-07
8.96101e-05
1.87672e-07
8.96319e-05
1.83397e-07
8.96536e-05
1.78083e-07
8.96752e-05
1.71991e-07
8.96968e-05
1.65323e-07
8.97184e-05
1.58243e-07
8.974e-05
1.50874e-07
8.97617e-05
1.43317e-07
8.97836e-05
1.35645e-07
8.98057e-05
1.27912e-07
8.9828e-05
1.20149e-07
8.98508e-05
1.12366e-07
8.98741e-05
1.04548e-07
8.98981e-05
9.66522e-08
8.99228e-05
8.86048e-08
8.99484e-05
8.0298e-08
8.9975e-05
7.159e-08
9.00026e-05
6.23096e-08
9.00313e-05
5.22664e-08
9.00609e-05
4.12671e-08
9.00914e-05
2.91376e-08
1.57905e-08
9.01224e-05
9.19622e-05
1.85505e-08
9.19693e-05
5.38538e-08
9.19806e-05
8.51405e-08
9.19952e-05
1.11272e-07
9.20124e-05
1.32014e-07
9.20315e-05
1.47602e-07
9.20517e-05
1.58529e-07
9.20728e-05
1.6545e-07
9.20943e-05
1.69049e-07
9.2116e-05
1.69949e-07
9.21379e-05
1.68696e-07
9.21598e-05
1.65747e-07
9.21818e-05
1.61476e-07
9.22037e-05
1.56184e-07
9.22255e-05
1.50112e-07
9.22474e-05
1.4345e-07
9.22693e-05
1.36346e-07
9.22913e-05
1.28918e-07
9.23133e-05
1.21254e-07
9.23356e-05
1.13418e-07
9.2358e-05
1.05454e-07
9.23808e-05
9.73831e-08
9.24039e-05
8.92068e-08
9.24276e-05
8.09031e-08
9.24518e-05
7.24261e-08
9.24767e-05
6.37049e-08
9.25024e-05
5.46436e-08
9.25288e-05
4.51235e-08
9.25561e-05
3.50094e-08
9.25842e-05
2.41591e-08
9.26131e-05
1.24374e-08
9.26425e-05
-2.69639e-10
-1.39982e-08
9.26723e-05
9.45895e-05
1.62536e-08
9.45962e-05
4.7107e-08
9.46069e-05
7.44155e-08
9.46209e-05
9.7283e-08
9.46374e-05
1.15487e-07
9.46558e-05
1.29194e-07
9.46756e-05
1.3879e-07
9.46962e-05
1.44807e-07
9.47175e-05
1.47812e-07
9.47391e-05
1.48341e-07
9.47609e-05
1.46865e-07
9.47829e-05
1.43791e-07
9.48049e-05
1.39454e-07
9.48269e-05
1.34127e-07
9.4849e-05
1.28029e-07
9.48711e-05
1.21334e-07
9.48933e-05
1.1418e-07
9.49156e-05
1.06671e-07
9.49379e-05
9.88854e-08
9.49605e-05
9.08798e-08
9.49832e-05
8.26884e-08
9.50063e-05
7.43258e-08
9.50297e-05
6.57872e-08
9.50536e-05
5.70476e-08
9.50779e-05
4.80626e-08
9.51029e-05
3.87682e-08
9.51284e-05
2.90829e-08
9.51546e-05
1.89112e-08
9.51815e-05
8.14986e-09
9.5209e-05
-3.30376e-09
9.52369e-05
-1.55409e-08
9.52653e-05
-2.86327e-08
-4.25807e-08
9.52939e-05
9.72917e-05
1.40427e-08
9.72982e-05
4.06557e-08
9.73084e-05
6.41752e-08
9.73218e-05
8.38797e-08
9.73377e-05
9.95675e-08
9.73556e-05
1.11349e-07
9.73748e-05
1.19529e-07
9.73951e-05
1.24535e-07
9.74161e-05
1.26839e-07
9.74375e-05
1.26891e-07
9.74593e-05
1.25102e-07
9.74813e-05
1.21824e-07
9.75034e-05
1.17355e-07
9.75256e-05
1.11939e-07
9.75478e-05
1.05773e-07
9.75701e-05
9.90147e-08
9.75925e-05
9.17864e-08
9.7615e-05
8.4182e-08
9.76376e-05
7.62704e-08
9.76604e-05
6.8099e-08
9.76834e-05
5.96951e-08
9.77067e-05
5.10681e-08
9.77302e-05
4.22098e-08
9.77542e-05
3.30955e-08
9.77786e-05
2.36846e-08
9.78034e-05
1.39224e-08
9.78288e-05
3.74245e-09
9.78546e-05
-6.92917e-09
9.78809e-05
-1.81686e-08
9.79077e-05
-3.00467e-08
9.79347e-05
-4.26217e-08
9.7962e-05
-5.59341e-08
-6.99633e-08
9.79894e-05
0.000100071
1.19163e-08
0.000100077
3.4472e-08
0.000100087
5.43623e-08
0.0001001
7.09939e-08
0.000100115
8.41867e-08
0.000100133
9.40111e-08
0.000100152
1.00703e-07
0.000100172
1.04609e-07
0.000100192
1.06114e-07
0.000100214
1.05599e-07
0.000100235
1.03412e-07
0.000100257
9.98585e-08
0.000100279
9.51985e-08
0.000100302
8.96465e-08
0.000100324
8.33769e-08
0.000100347
7.65287e-08
0.000100369
6.92103e-08
0.000100392
6.1504e-08
0.000100415
5.3469e-08
0.000100438
4.51448e-08
0.000100461
3.6553e-08
0.000100484
2.76992e-08
0.000100508
1.85741e-08
0.000100532
9.15463e-09
0.000100556
-5.93884e-10
0.000100581
-1.07165e-08
0.000100606
-2.12649e-08
0.000100631
-3.22941e-08
0.000100657
-4.38575e-08
0.000100683
-5.60014e-08
0.000100709
-6.87594e-08
0.000100735
-8.21502e-08
-9.61391e-08
0.000100761
0.00010293
9.86929e-09
0.000102936
2.85277e-08
0.000102945
4.49245e-08
0.000102958
5.85625e-08
0.000102973
6.92817e-08
0.00010299
7.71231e-08
0.000103008
8.22691e-08
0.000103028
8.49961e-08
0.000103048
8.562e-08
0.000103069
8.4456e-08
0.000103091
8.1798e-08
0.000103113
7.7906e-08
0.000103135
7.30028e-08
0.000103158
6.72741e-08
0.00010318
6.08706e-08
0.000103203
5.39133e-08
0.000103225
4.64958e-08
0.000103248
3.86883e-08
0.000103271
3.05409e-08
0.000103294
2.20859e-08
0.000103317
1.33399e-08
0.000103341
4.30597e-09
0.000103364
-5.02528e-09
0.000103388
-1.46737e-08
0.000103412
-2.4668e-08
0.000103437
-3.50433e-08
0.000103461
-4.5838e-08
0.000103486
-5.7091e-08
0.000103511
-6.88376e-08
0.000103536
-8.11049e-08
0.000103561
-9.39085e-08
0.000103586
-1.07252e-07
-1.21091e-07
0.000103611
0.000105871
7.89421e-09
0.000105876
2.27953e-08
0.000105886
3.58139e-08
0.000105898
4.65265e-08
0.000105912
5.47919e-08
0.000105929
6.06297e-08
0.000105947
6.41802e-08
0.000105966
6.5663e-08
0.000105986
6.53336e-08
0.000106007
6.34504e-08
0.000106029
6.02576e-08
0.000106051
5.59721e-08
0.000106073
5.07814e-08
0.000106095
4.48428e-08
0.000106118
3.82828e-08
0.000106141
3.12044e-08
0.000106164
2.3686e-08
0.000106186
1.57862e-08
0.000106209
7.54559e-09
0.000106233
-1.01005e-09
0.000106256
-9.86845e-09
0.000106279
-1.90284e-08
0.000106303
-2.84984e-08
0.000106326
-3.82952e-08
0.00010635
-4.84411e-08
0.000106374
-5.89621e-08
0.000106398
-6.98856e-08
0.000106422
-8.12369e-08
0.000106446
-9.30368e-08
0.00010647
-1.05298e-07
0.000106495
-1.18024e-07
0.000106518
-1.31206e-07
-1.44796e-07
0.000106542
0.000108895
5.98316e-09
0.000108901
1.72486e-08
0.00010891
2.69865e-08
0.000108921
3.48317e-08
0.000108936
4.06603e-08
0.000108952
4.44768e-08
0.000108969
4.63895e-08
0.000108989
4.65718e-08
0.000109009
4.52273e-08
0.00010903
4.25642e-08
0.000109051
3.87819e-08
0.000109073
3.4057e-08
0.000109095
2.85429e-08
0.000109118
2.23692e-08
0.00010914
1.56373e-08
0.000109163
8.43395e-09
0.000109186
8.20926e-10
0.000109209
-7.15445e-09
0.000109232
-1.5461e-08
0.000109255
-2.40792e-08
0.000109278
-3.30007e-08
0.000109301
-4.22257e-08
0.000109325
-5.17621e-08
0.000109348
-6.16229e-08
0.000109371
-7.1825e-08
0.000109395
-8.23867e-08
0.000109418
-9.33257e-08
0.000109442
-1.04657e-07
0.000109465
-1.16389e-07
0.000109488
-1.28526e-07
0.000109511
-1.4106e-07
0.000109534
-1.53977e-07
-1.67226e-07
0.000109556
0.000112006
4.12781e-09
0.000112012
1.18621e-08
0.00011202
1.84002e-08
0.000112032
2.34242e-08
0.000112046
2.68285e-08
0.000112061
2.86064e-08
0.000112079
2.88448e-08
0.000112098
2.76782e-08
0.000112118
2.52663e-08
0.000112139
2.17733e-08
0.00011216
1.73578e-08
0.000112182
1.21566e-08
0.000112204
6.29163e-09
0.000112227
-1.30927e-10
0.000112249
-7.04332e-09
0.000112272
-1.43675e-08
0.000112295
-2.20605e-08
0.000112318
-3.00871e-08
0.000112341
-3.84247e-08
0.000112364
-4.70602e-08
0.000112387
-5.5989e-08
0.00011241
-6.52129e-08
0.000112433
-7.47389e-08
0.000112456
-8.45772e-08
0.000112479
-9.47399e-08
0.000112502
-1.05239e-07
0.000112524
-1.16084e-07
0.000112547
-1.27283e-07
0.000112569
-1.38835e-07
0.000112592
-1.50737e-07
0.000112614
-1.62975e-07
0.000112635
-1.7553e-07
-1.8835e-07
0.000112656
0.000115206
2.32167e-09
0.000115212
6.61553e-09
0.00011522
1.00219e-08
0.000115231
1.22621e-08
0.000115245
1.32481e-08
0.00011526
1.29659e-08
0.000115278
1.14954e-08
0.000115296
8.93619e-09
0.000115316
5.41114e-09
0.000115337
1.04216e-09
0.000115358
-4.04134e-09
0.00011538
-9.74562e-09
0.000115403
-1.59778e-08
0.000115425
-2.26637e-08
0.000115448
-2.97472e-08
0.000115471
-3.71799e-08
0.000115493
-4.493e-08
0.000115516
-5.29747e-08
0.000115539
-6.13005e-08
0.000115562
-6.99006e-08
0.000115585
-7.87744e-08
0.000115608
-8.79256e-08
0.00011563
-9.73606e-08
0.000115653
-1.07088e-07
0.000115675
-1.17115e-07
0.000115697
-1.2745e-07
0.000115719
-1.38096e-07
0.000115741
-1.49055e-07
0.000115763
-1.60321e-07
0.000115784
-1.71884e-07
0.000115804
-1.83727e-07
0.000115825
-1.95829e-07
-2.08138e-07
0.000115845
0.000118498
5.53984e-10
0.000118503
1.48043e-09
0.000118511
1.80312e-09
0.000118522
1.27858e-09
0.000118535
-1.44082e-10
0.000118551
-2.51449e-09
0.000118568
-5.72404e-09
0.000118587
-9.71235e-09
0.000118607
-1.43855e-08
0.000118627
-1.96547e-08
0.000118649
-2.54357e-08
0.000118671
-3.16602e-08
0.000118693
-3.82685e-08
0.000118715
-4.5213e-08
0.000118738
-5.24588e-08
0.000118761
-5.99787e-08
0.000118784
-6.77553e-08
0.000118806
-7.57782e-08
0.000118829
-8.40428e-08
0.000118852
-9.25493e-08
0.000118874
-1.01301e-07
0.000118897
-1.10304e-07
0.000118919
-1.19566e-07
0.000118941
-1.29092e-07
0.000118963
-1.38888e-07
0.000118984
-1.48959e-07
0.000119005
-1.59305e-07
0.000119026
-1.69921e-07
0.000119047
-1.80799e-07
0.000119067
-1.91925e-07
0.000119086
-2.03281e-07
0.000119105
-2.14842e-07
-2.2656e-07
0.000119124
0.000121883
-1.16567e-09
0.000121888
-3.53021e-09
0.000121896
-6.24073e-09
0.000121907
-9.51854e-09
0.00012192
-1.34015e-08
0.000121935
-1.78768e-08
0.000121953
-2.28756e-08
0.000121971
-2.83382e-08
0.000121991
-3.41992e-08
0.000122012
-4.04018e-08
0.000122033
-4.68971e-08
0.000122055
-5.36487e-08
0.000122078
-6.06285e-08
0.0001221
-6.78165e-08
0.000122123
-7.52005e-08
0.000122146
-8.27735e-08
0.000122169
-9.05337e-08
0.000122191
-9.84833e-08
0.000122214
-1.06627e-07
0.000122236
-1.14973e-07
0.000122258
-1.23529e-07
0.00012228
-1.32303e-07
0.000122302
-1.41304e-07
0.000122324
-1.50537e-07
0.000122345
-1.60007e-07
0.000122366
-1.69715e-07
0.000122386
-1.7966e-07
0.000122406
-1.89834e-07
0.000122425
-2.00227e-07
0.000122444
-2.10824e-07
0.000122462
-2.21603e-07
0.00012248
-2.32543e-07
-2.43595e-07
0.000122497
0.000125365
-2.88985e-09
0.00012537
-8.50806e-09
0.000125378
-1.4237e-08
0.000125389
-2.02706e-08
0.000125402
-2.66095e-08
0.000125417
-3.32123e-08
0.000125435
-4.00185e-08
0.000125453
-4.6976e-08
0.000125473
-5.40438e-08
0.000125494
-6.11944e-08
0.000125515
-6.84119e-08
0.000125537
-7.56913e-08
0.00012556
-8.30347e-08
0.000125582
-9.0449e-08
0.000125605
-9.79448e-08
0.000125628
-1.05535e-07
0.000125651
-1.13234e-07
0.000125673
-1.21057e-07
0.000125696
-1.2902e-07
0.000125718
-1.37136e-07
0.00012574
-1.4542e-07
0.000125761
-1.53883e-07
0.000125783
-1.62536e-07
0.000125803
-1.71384e-07
0.000125824
-1.80433e-07
0.000125844
-1.89683e-07
0.000125863
-1.99129e-07
0.000125882
-2.08765e-07
0.0001259
-2.18579e-07
0.000125918
-2.28555e-07
0.000125935
-2.38671e-07
0.000125952
-2.48907e-07
-2.59217e-07
0.000125967
0.000128947
-4.45477e-09
0.000128951
-1.32176e-08
0.000128959
-2.19527e-08
0.00012897
-3.08291e-08
0.000128983
-3.9758e-08
0.000128998
-4.86236e-08
0.000129016
-5.7341e-08
0.000129034
-6.58627e-08
0.000129055
-7.4173e-08
0.000129076
-8.228e-08
0.000129097
-9.02067e-08
0.00012912
-9.79848e-08
0.000129142
-1.0565e-07
0.000129165
-1.1324e-07
0.000129188
-1.20789e-07
0.000129211
-1.28332e-07
0.000129233
-1.359e-07
0.000129256
-1.43522e-07
0.000129278
-1.51223e-07
0.0001293
-1.59027e-07
0.000129322
-1.66951e-07
0.000129343
-1.75013e-07
0.000129363
-1.83224e-07
0.000129384
-1.91592e-07
0.000129403
-2.00123e-07
0.000129422
-2.08817e-07
0.000129441
-2.1767e-07
0.000129459
-2.26674e-07
0.000129476
-2.35818e-07
0.000129493
-2.45085e-07
0.000129508
-2.54458e-07
0.000129523
-2.63915e-07
-2.73415e-07
0.000129538
0.000132631
-6.35651e-09
0.000132636
-1.82462e-08
0.000132644
-2.99088e-08
0.000132655
-4.15144e-08
0.000132668
-5.29369e-08
0.000132683
-6.40126e-08
0.0001327
-7.46301e-08
0.000132719
-8.47328e-08
0.00013274
-9.43146e-08
0.000132761
-1.03407e-07
0.000132782
-1.12064e-07
0.000132805
-1.20352e-07
0.000132828
-1.28336e-07
0.00013285
-1.36085e-07
0.000132873
-1.4366e-07
0.000132896
-1.51115e-07
0.000132919
-1.58501e-07
0.000132941
-1.65861e-07
0.000132963
-1.73232e-07
0.000132985
-1.80646e-07
0.000133006
-1.88129e-07
0.000133026
-1.95701e-07
0.000133047
-2.0338e-07
0.000133066
-2.11174e-07
0.000133085
-2.19092e-07
0.000133104
-2.27134e-07
0.000133121
-2.35298e-07
0.000133138
-2.43577e-07
0.000133154
-2.5196e-07
0.00013317
-2.60433e-07
0.000133184
-2.68977e-07
0.000133198
-2.77575e-07
-2.86188e-07
0.00013321
0.000136419
-7.12331e-09
0.000136423
-2.20444e-08
0.00013643
-3.70186e-08
0.00013644
-5.2007e-08
0.000136454
-6.65051e-08
0.00013647
-8.01769e-08
0.000136488
-9.28881e-08
0.000136508
-1.04623e-07
0.000136529
-1.15435e-07
0.000136551
-1.2542e-07
0.000136574
-1.34686e-07
0.000136597
-1.4335e-07
0.00013662
-1.5152e-07
0.000136643
-1.59298e-07
0.000136667
-1.66772e-07
0.00013669
-1.7402e-07
0.000136712
-1.81109e-07
0.000136734
-1.88097e-07
0.000136756
-1.95031e-07
0.000136777
-2.01952e-07
0.000136798
-2.08891e-07
0.000136818
-2.15874e-07
0.000136838
-2.2292e-07
0.000136857
-2.30043e-07
0.000136875
-2.37251e-07
0.000136892
-2.44548e-07
0.000136909
-2.51931e-07
0.000136925
-2.59397e-07
0.00013694
-2.66935e-07
0.000136954
-2.74533e-07
0.000136967
-2.82176e-07
0.000136979
-2.89847e-07
-2.97513e-07
0.000136991
0.000140319
-1.04942e-08
0.000140325
-2.77481e-08
0.000140333
-4.49326e-08
0.000140343
-6.22579e-08
0.000140356
-7.92631e-08
0.000140371
-9.5381e-08
0.000140388
-1.10279e-07
0.000140408
-1.23841e-07
0.000140428
-1.36103e-07
0.00014045
-1.47177e-07
0.000140473
-1.57214e-07
0.000140496
-1.66372e-07
0.000140519
-1.74803e-07
0.000140542
-1.82647e-07
0.000140565
-1.90026e-07
0.000140588
-1.97045e-07
0.000140611
-2.03795e-07
0.000140633
-2.10351e-07
0.000140655
-2.16775e-07
0.000140676
-2.23119e-07
0.000140697
-2.29422e-07
0.000140717
-2.35719e-07
0.000140736
-2.42033e-07
0.000140754
-2.48383e-07
0.000140772
-2.54779e-07
0.000140788
-2.61229e-07
0.000140804
-2.67732e-07
0.000140819
-2.74287e-07
0.000140833
-2.80886e-07
0.000140846
-2.8752e-07
0.000140858
-2.94174e-07
0.000140869
-3.00835e-07
-3.07473e-07
0.000140879
0.000144322
-7.52897e-09
0.000144322
-2.85709e-08
0.000144329
-5.10905e-08
0.00014434
-7.37693e-08
0.000144356
-9.49932e-08
0.000144375
-1.14144e-07
0.000144395
-1.31162e-07
0.000144418
-1.46176e-07
0.000144441
-1.59392e-07
0.000144465
-1.71046e-07
0.000144489
-1.81375e-07
0.000144513
-1.90605e-07
0.000144538
-1.98936e-07
0.000144561
-2.06543e-07
0.000144585
-2.13573e-07
0.000144608
-2.20152e-07
0.000144631
-2.26383e-07
0.000144653
-2.32354e-07
0.000144674
-2.38134e-07
0.000144695
-2.43782e-07
0.000144715
-2.49343e-07
0.000144734
-2.54854e-07
0.000144752
-2.60343e-07
0.000144769
-2.65831e-07
0.000144786
-2.71332e-07
0.000144802
-2.76854e-07
0.000144816
-2.82401e-07
0.00014483
-2.87972e-07
0.000144843
-2.93563e-07
0.000144854
-2.99166e-07
0.000144865
-3.04771e-07
0.000144874
-3.10368e-07
-3.15929e-07
0.000144883
0.000148457
-1.63774e-08
0.000148464
-3.53021e-08
0.000148469
-5.65563e-08
0.000148476
-8.06163e-08
0.000148486
-1.05089e-07
0.0001485
-1.27955e-07
0.000148517
-1.48264e-07
0.000148537
-1.65896e-07
0.000148558
-1.81077e-07
0.000148581
-1.94117e-07
0.000148605
-2.05344e-07
0.00014863
-2.15073e-07
0.000148654
-2.23583e-07
0.000148679
-2.31114e-07
0.000148703
-2.37868e-07
0.000148727
-2.44012e-07
0.00014875
-2.49681e-07
0.000148773
-2.54989e-07
0.000148795
-2.60023e-07
0.000148816
-2.64857e-07
0.000148836
-2.69548e-07
0.000148856
-2.74142e-07
0.000148874
-2.78672e-07
0.000148891
-2.83165e-07
0.000148908
-2.8764e-07
0.000148923
-2.92108e-07
0.000148937
-2.96576e-07
0.00014895
-3.01048e-07
0.000148962
-3.05521e-07
0.000148973
-3.09991e-07
0.000148982
-3.14449e-07
0.000148991
-3.18889e-07
-3.23289e-07
0.000148998
0.000152671
1.86599e-09
0.000152666
-3.04211e-08
0.000152674
-6.47724e-08
0.000152692
-9.87152e-08
0.000152715
-1.28151e-07
0.000152741
-1.53295e-07
0.000152767
-1.74588e-07
0.000152794
-1.92554e-07
0.00015282
-2.07698e-07
0.000152847
-2.20471e-07
0.000152873
-2.31294e-07
0.000152898
-2.40532e-07
0.000152923
-2.48489e-07
0.000152947
-2.55415e-07
0.000152971
-2.61516e-07
0.000152994
-2.66962e-07
0.000153016
-2.71891e-07
0.000153038
-2.76415e-07
0.000153058
-2.80626e-07
0.000153078
-2.84597e-07
0.000153097
-2.88387e-07
0.000153115
-2.92042e-07
0.000153132
-2.95599e-07
0.000153147
-2.99087e-07
0.000153162
-3.02526e-07
0.000153176
-3.05931e-07
0.000153189
-3.0931e-07
0.000153201
-3.1267e-07
0.000153211
-3.16011e-07
0.00015322
-3.19331e-07
0.000153229
-3.22626e-07
0.000153236
-3.2589e-07
-3.29105e-07
0.000153241
0.000157077
-2.39066e-08
0.000157076
-2.96184e-08
0.000157064
-5.21447e-08
0.000157055
-9.02495e-08
0.000157057
-1.29378e-07
0.000157067
-1.63998e-07
0.000157085
-1.92057e-07
0.000157107
-2.1463e-07
0.000157132
-2.32826e-07
0.000157159
-2.47477e-07
0.000157187
-2.59304e-07
0.000157215
-2.68911e-07
0.000157244
-2.76782e-07
0.000157272
-2.83296e-07
0.000157299
-2.88755e-07
0.000157325
-2.93395e-07
0.000157351
-2.974e-07
0.000157375
-3.00916e-07
0.000157399
-3.04055e-07
0.000157421
-3.06908e-07
0.000157442
-3.09544e-07
0.000157462
-3.12016e-07
0.000157481
-3.14368e-07
0.000157498
-3.16631e-07
0.000157515
-3.1883e-07
0.00015753
-3.2098e-07
0.000157544
-3.23096e-07
0.000157556
-3.25183e-07
0.000157567
-3.27247e-07
0.000157577
-3.29287e-07
0.000157586
-3.31303e-07
0.000157593
-3.33294e-07
-3.35245e-07
0.000157599
0.00016147
4.49458e-08
0.000161456
-1.58148e-08
0.000161492
-8.84443e-08
0.000161535
-1.33556e-07
0.000161578
-1.71738e-07
0.000161615
-2.01158e-07
0.000161648
-2.25129e-07
0.000161678
-2.44866e-07
0.000161706
-2.60914e-07
0.000161733
-2.7397e-07
0.000161758
-2.84647e-07
0.000161783
-2.93408e-07
0.000161806
-3.0062e-07
0.00016183
-3.06583e-07
0.000161853
-3.11537e-07
0.000161875
-3.15676e-07
0.000161897
-3.19156e-07
0.000161918
-3.22104e-07
0.000161938
-3.24622e-07
0.000161958
-3.26793e-07
0.000161977
-3.28684e-07
0.000161996
-3.30348e-07
0.000162013
-3.31831e-07
0.00016203
-3.33166e-07
0.000162045
-3.34383e-07
0.00016206
-3.35502e-07
0.000162073
-3.3654e-07
0.000162086
-3.37509e-07
0.000162097
-3.38418e-07
0.000162107
-3.39269e-07
0.000162115
-3.40067e-07
0.000162123
-3.4081e-07
-3.41493e-07
0.000162129
0.000166191
7.92463e-09
0.000166127
4.79153e-08
0.000166047
-8.07125e-09
0.00016599
-7.74924e-08
0.000165978
-1.58952e-07
0.000165991
-2.14537e-07
0.00016602
-2.5385e-07
0.000166057
-2.82017e-07
0.000166099
-3.02763e-07
0.000166143
-3.18276e-07
0.000166188
-3.29945e-07
0.000166234
-3.38764e-07
0.000166279
-3.45446e-07
0.000166322
-3.50501e-07
0.000166365
-3.54305e-07
0.000166407
-3.57135e-07
0.000166447
-3.59199e-07
0.000166485
-3.60659e-07
0.000166522
-3.61638e-07
0.000166558
-3.62231e-07
0.000166592
-3.62516e-07
0.000166624
-3.62553e-07
0.000166654