/*--------------------------------*- C++ -*----------------------------------*\
  =========                 |
  \\      /  F ield         | OpenFOAM: The Open Source CFD Toolbox
   \\    /   O peration     | Website:  https://openfoam.org
    \\  /    A nd           | Version:  10
     \\/     M anipulation  |
\*---------------------------------------------------------------------------*/
FoamFile
{
    format      ascii;
    class       volVectorField;
    location    "0.16";
    object      U;
}
// * * * * * * * * * * * * * * * * * * * * * * * * * * * * * * * * * * * * * //

dimensions      [0 1 -1 0 0 0 0];

internalField   nonuniform List<vector> 
6820
(
(7.33663 -0.25471 0)
(7.37112 -0.152743 0)
(7.32902 -0.0594707 0)
(7.25217 -0.0117215 0)
(7.1748 0.00796563 0)
(7.10495 0.0139687 0)
(7.04392 0.014456 0)
(6.99109 0.0130779 0)
(6.94502 0.0113259 0)
(6.9043 0.00974735 0)
(6.86786 0.00848255 0)
(6.83489 0.00751873 0)
(6.80477 0.00679959 0)
(6.77706 0.00626582 0)
(6.7514 0.00586784 0)
(6.72754 0.005568 0)
(6.70524 0.00533892 0)
(6.68435 0.00516142 0)
(6.6647 0.00502258 0)
(6.64617 0.00491425 0)
(6.62863 0.00483206 0)
(6.61199 0.00477518 0)
(6.59612 0.00474661 0)
(6.5809 0.00475473 0)
(6.5662 0.00481585 0)
(6.55183 0.00496285 0)
(6.5375 0.00526228 0)
(6.52281 0.00580337 0)
(6.50678 0.00713403 0)
(6.48825 0.00853846 0)
(6.46347 0.0172698 0)
(6.42141 0.0194816 0)
(6.37373 0.0453564 0)
(7.32387 0.121386 0)
(7.3044 0.123274 0)
(7.30896 0.0779672 0)
(7.32919 0.0527865 0)
(7.34727 0.0391848 0)
(7.35533 0.0313769 0)
(7.35436 0.0269215 0)
(7.34726 0.0241719 0)
(7.33632 0.0222706 0)
(7.32313 0.0208262 0)
(7.30873 0.0196431 0)
(7.29378 0.0186212 0)
(7.27871 0.01771 0)
(7.26374 0.0168835 0)
(7.24903 0.0161269 0)
(7.23466 0.0154312 0)
(7.22068 0.0147905 0)
(7.2071 0.0142008 0)
(7.19393 0.0136596 0)
(7.18117 0.013166 0)
(7.16881 0.0127207 0)
(7.15684 0.0123268 0)
(7.14524 0.0119913 0)
(7.13399 0.0117274 0)
(7.12306 0.0115582 0)
(7.11241 0.0115306 0)
(7.1021 0.0117136 0)
(7.09195 0.0123085 0)
(7.08272 0.0135182 0)
(7.07296 0.0163038 0)
(7.06937 0.0217276 0)
(7.06407 0.032942 0)
(7.09274 0.0603475 0)
(7.32565 -0.0437924 0)
(7.32324 -0.051733 0)
(7.33517 -0.0262023 0)
(7.34301 -0.00272306 0)
(7.34793 0.0104243 0)
(7.35213 0.0168732 0)
(7.35514 0.0199426 0)
(7.35669 0.0212266 0)
(7.35675 0.021567 0)
(7.35546 0.0214372 0)
(7.35305 0.0210842 0)
(7.34975 0.0206348 0)
(7.34576 0.0201549 0)
(7.34125 0.0196776 0)
(7.33635 0.0192185 0)
(7.33117 0.0187841 0)
(7.3258 0.0183773 0)
(7.3203 0.0179989 0)
(7.31471 0.0176498 0)
(7.30908 0.0173318 0)
(7.30343 0.0170478 0)
(7.29777 0.0168035 0)
(7.29213 0.0166083 0)
(7.28648 0.0164773 0)
(7.28083 0.0164371 0)
(7.27515 0.0165244 0)
(7.26945 0.0168251 0)
(7.2636 0.0173937 0)
(7.25782 0.0186292 0)
(7.25166 0.0201741 0)
(7.24657 0.0243128 0)
(7.24144 0.026637 0)
(7.24023 0.03604 0)
(7.33338 0.011788 0)
(7.33035 0.0329163 0)
(7.32954 0.0333467 0)
(7.33255 0.0276387 0)
(7.33797 0.0242511 0)
(7.3435 0.0227757 0)
(7.34812 0.0222145 0)
(7.35179 0.0219875 0)
(7.35461 0.0218384 0)
(7.35663 0.0216852 0)
(7.35796 0.0215026 0)
(7.35868 0.0212848 0)
(7.35888 0.0210359 0)
(7.35864 0.0207635 0)
(7.35803 0.0204752 0)
(7.35711 0.0201783 0)
(7.35594 0.0198796 0)
(7.35456 0.0195852 0)
(7.353 0.0193013 0)
(7.35129 0.0190345 0)
(7.34946 0.0187928 0)
(7.34752 0.0185864 0)
(7.34548 0.0184299 0)
(7.34335 0.018344 0)
(7.34113 0.0183611 0)
(7.33882 0.0185267 0)
(7.33642 0.0189248 0)
(7.3339 0.0196458 0)
(7.33144 0.0209486 0)
(7.32894 0.0228721 0)
(7.32726 0.0263525 0)
(7.32661 0.0304321 0)
(7.32876 0.0377112 0)
(7.33122 -0.00352231 0)
(7.33003 -0.00432765 0)
(7.33359 0.00127457 0)
(7.33717 0.00872504 0)
(7.34045 0.0140914 0)
(7.34373 0.0170979 0)
(7.34689 0.0187368 0)
(7.34988 0.019651 0)
(7.35263 0.0201452 0)
(7.3551 0.02039 0)
(7.35725 0.0204812 0)
(7.3591 0.0204724 0)
(7.36066 0.0203969 0)
(7.36196 0.0202766 0)
(7.36302 0.0201265 0)
(7.36386 0.0199574 0)
(7.36451 0.0197778 0)
(7.36499 0.0195951 0)
(7.36532 0.0194164 0)
(7.36551 0.0192494 0)
(7.36558 0.0191031 0)
(7.36554 0.0189893 0)
(7.36539 0.0189239 0)
(7.36514 0.0189287 0)
(7.36481 0.0190362 0)
(7.36439 0.0192893 0)
(7.3639 0.0197613 0)
(7.36338 0.0205221 0)
(7.36294 0.0217538 0)
(7.36267 0.023447 0)
(7.36304 0.0260674 0)
(7.36441 0.0288465 0)
(7.36736 0.0324311 0)
(7.33264 0.00208299 0)
(7.33223 0.00990824 0)
(7.33392 0.0141074 0)
(7.33641 0.0159829 0)
(7.33939 0.0170936 0)
(7.34258 0.0178705 0)
(7.34563 0.0184808 0)
(7.34847 0.0189443 0)
(7.35113 0.0192598 0)
(7.3536 0.0194564 0)
(7.35589 0.019564 0)
(7.35802 0.0196036 0)
(7.35999 0.019591 0)
(7.3618 0.0195383 0)
(7.36347 0.0194555 0)
(7.36501 0.0193507 0)
(7.36643 0.0192313 0)
(7.36772 0.0191042 0)
(7.36891 0.0189769 0)
(7.37 0.0188575 0)
(7.371 0.018756 0)
(7.37191 0.0186848 0)
(7.37274 0.0186602 0)
(7.3735 0.0187039 0)
(7.37419 0.0188465 0)
(7.37483 0.0191265 0)
(7.37545 0.0196026 0)
(7.3761 0.0203307 0)
(7.37689 0.0214204 0)
(7.37794 0.0228706 0)
(7.37957 0.0248556 0)
(7.38208 0.0269716 0)
(7.38572 0.0292495 0)
(7.33258 0.00083301 0)
(7.33242 0.00452424 0)
(7.33426 0.0080802 0)
(7.33685 0.0112852 0)
(7.33963 0.0138725 0)
(7.34245 0.0156473 0)
(7.34516 0.0167998 0)
(7.34772 0.0175442 0)
(7.35017 0.0180154 0)
(7.35251 0.0183064 0)
(7.35474 0.0184774 0)
(7.35687 0.0185646 0)
(7.3589 0.0185913 0)
(7.36085 0.0185739 0)
(7.36272 0.0185241 0)
(7.36451 0.0184512 0)
(7.36622 0.0183627 0)
(7.36786 0.018266 0)
(7.36943 0.0181684 0)
(7.37093 0.0180781 0)
(7.37238 0.0180049 0)
(7.37377 0.0179607 0)
(7.37511 0.0179612 0)
(7.3764 0.0180261 0)
(7.37766 0.0181817 0)
(7.37891 0.0184595 0)
(7.38019 0.0189026 0)
(7.38154 0.0195484 0)
(7.38306 0.0204549 0)
(7.38488 0.021606 0)
(7.38719 0.0230324 0)
(7.39022 0.0244691 0)
(7.39402 0.0257367 0)
(7.33284 0.00133637 0)
(7.33301 0.00536356 0)
(7.33456 0.00892254 0)
(7.33678 0.0116137 0)
(7.33926 0.013591 0)
(7.34186 0.0149557 0)
(7.34443 0.0158932 0)
(7.3469 0.016544 0)
(7.34926 0.0169842 0)
(7.35152 0.0172708 0)
(7.35369 0.0174474 0)
(7.35578 0.0175436 0)
(7.3578 0.0175804 0)
(7.35977 0.017573 0)
(7.36168 0.0175331 0)
(7.36354 0.0174694 0)
(7.36535 0.0173898 0)
(7.36712 0.0173013 0)
(7.36885 0.0172112 0)
(7.37054 0.0171276 0)
(7.3722 0.0170597 0)
(7.37382 0.0170188 0)
(7.37542 0.0170186 0)
(7.377 0.0170763 0)
(7.37859 0.0172131 0)
(7.38019 0.017453 0)
(7.38185 0.0178245 0)
(7.38362 0.0183491 0)
(7.38558 0.0190497 0)
(7.38783 0.0198993 0)
(7.3905 0.0208658 0)
(7.39372 0.0217675 0)
(7.39749 0.0224145 0)
(7.33291 0.00133569 0)
(7.3332 0.00468608 0)
(7.33459 0.00773076 0)
(7.33662 0.0102018 0)
(7.33891 0.0121657 0)
(7.34134 0.0136204 0)
(7.34376 0.0146541 0)
(7.34611 0.0153761 0)
(7.34838 0.0158657 0)
(7.35057 0.0161859 0)
(7.35268 0.0163844 0)
(7.35473 0.0164945 0)
(7.35672 0.0165395 0)
(7.35867 0.0165361 0)
(7.36058 0.0164971 0)
(7.36245 0.0164323 0)
(7.36429 0.0163499 0)
(7.3661 0.0162572 0)
(7.36789 0.0161617 0)
(7.36966 0.0160711 0)
(7.37141 0.015994 0)
(7.37315 0.0159405 0)
(7.37488 0.0159224 0)
(7.37662 0.0159537 0)
(7.37839 0.0160502 0)
(7.38019 0.0162284 0)
(7.38208 0.0165048 0)
(7.3841 0.0168878 0)
(7.3863 0.0173783 0)
(7.38877 0.0179424 0)
(7.39159 0.0185253 0)
(7.39483 0.0189955 0)
(7.39847 0.0191974 0)
(7.33297 0.00131258 0)
(7.33334 0.00433161 0)
(7.3346 0.00713303 0)
(7.33642 0.00943755 0)
(7.33852 0.0112639 0)
(7.34076 0.0126295 0)
(7.34304 0.0136145 0)
(7.34528 0.0143148 0)
(7.34747 0.0148003 0)
(7.3496 0.0151241 0)
(7.35167 0.0153277 0)
(7.35368 0.0154414 0)
(7.35565 0.0154873 0)
(7.35758 0.015482 0)
(7.35947 0.0154384 0)
(7.36134 0.0153665 0)
(7.36318 0.0152747 0)
(7.365 0.0151706 0)
(7.36681 0.0150613 0)
(7.36861 0.0149542 0)
(7.3704 0.0148571 0)
(7.3722 0.0147788 0)
(7.374 0.0147289 0)
(7.37583 0.0147179 0)
(7.37769 0.0147569 0)
(7.37961 0.0148556 0)
(7.38163 0.0150213 0)
(7.38378 0.0152528 0)
(7.38611 0.0155383 0)
(7.38867 0.0158416 0)
(7.39152 0.0161052 0)
(7.39469 0.0162319 0)
(7.39815 0.0161076 0)
(7.333 0.00125121 0)
(7.33341 0.0039497 0)
(7.33455 0.0064591 0)
(7.33619 0.00855842 0)
(7.33811 0.0102524 0)
(7.3402 0.0115561 0)
(7.34234 0.0125222 0)
(7.34448 0.0132221 0)
(7.34659 0.0137141 0)
(7.34865 0.0140455 0)
(7.35067 0.0142547 0)
(7.35265 0.0143709 0)
(7.35459 0.0144159 0)
(7.35649 0.0144066 0)
(7.35837 0.0143557 0)
(7.36022 0.0142736 0)
(7.36206 0.0141688 0)
(7.36388 0.0140487 0)
(7.36569 0.0139204 0)
(7.3675 0.0137907 0)
(7.36931 0.0136664 0)
(7.37114 0.0135547 0)
(7.37298 0.0134632 0)
(7.37485 0.0133993 0)
(7.37677 0.0133696 0)
(7.37876 0.0133784 0)
(7.38084 0.0134263 0)
(7.38306 0.0135057 0)
(7.38543 0.0135985 0)
(7.38801 0.0136697 0)
(7.39082 0.0136672 0)
(7.39387 0.0135184 0)
(7.39713 0.0131436 0)
(7.33302 0.00116804 0)
(7.33343 0.00359233 0)
(7.33447 0.00585292 0)
(7.33597 0.00777464 0)
(7.33773 0.00934401 0)
(7.33966 0.0105708 0)
(7.34168 0.0114936 0)
(7.34371 0.0121696 0)
(7.34573 0.0126493 0)
(7.34773 0.0129745 0)
(7.3497 0.0131796 0)
(7.35164 0.0132915 0)
(7.35354 0.0133308 0)
(7.35542 0.0133134 0)
(7.35728 0.013252 0)
(7.35912 0.0131567 0)
(7.36094 0.0130357 0)
(7.36276 0.0128965 0)
(7.36457 0.0127453 0)
(7.36638 0.0125884 0)
(7.3682 0.0124315 0)
(7.37004 0.0122806 0)
(7.3719 0.0121407 0)
(7.37379 0.0120167 0)
(7.37574 0.0119115 0)
(7.37776 0.0118254 0)
(7.37987 0.0117541 0)
(7.38211 0.0116866 0)
(7.38448 0.0116027 0)
(7.38703 0.0114702 0)
(7.38975 0.0112454 0)
(7.39266 0.0108741 0)
(7.39572 0.0103018 0)
(7.33303 0.00107449 0)
(7.33343 0.00325157 0)
(7.33438 0.00528054 0)
(7.33574 0.00702566 0)
(7.33737 0.00846584 0)
(7.33916 0.0096078 0)
(7.34105 0.0104797 0)
(7.34299 0.0111257 0)
(7.34493 0.0115877 0)
(7.34686 0.0119017 0)
(7.34877 0.0120982 0)
(7.35066 0.0122017 0)
(7.35253 0.0122315 0)
(7.35438 0.012203 0)
(7.35622 0.0121282 0)
(7.35804 0.0120169 0)
(7.35985 0.0118771 0)
(7.36165 0.0117156 0)
(7.36346 0.0115384 0)
(7.36527 0.0113508 0)
(7.36708 0.0111575 0)
(7.36892 0.0109628 0)
(7.37079 0.0107702 0)
(7.3727 0.0105818 0)
(7.37465 0.0103979 0)
(7.37668 0.0102158 0)
(7.3788 0.0100286 0)
(7.38102 0.00982322 0)
(7.38336 0.00957989 0)
(7.38584 0.00927055 0)
(7.38846 0.00885977 0)
(7.39123 0.00830724 0)
(7.3941 0.007576 0)
(7.33303 0.000976914 0)
(7.33342 0.00292737 0)
(7.33429 0.00474333 0)
(7.33554 0.00632036 0)
(7.33703 0.00763393 0)
(7.3387 0.00868693 0)
(7.34048 0.0094996 0)
(7.34232 0.010106 0)
(7.34418 0.010541 0)
(7.34604 0.0108355 0)
(7.3479 0.0110164 0)
(7.34974 0.0111059 0)
(7.35157 0.0111218 0)
(7.35339 0.0110782 0)
(7.3552 0.0109868 0)
(7.357 0.0108565 0)
(7.35879 0.0106951 0)
(7.36058 0.0105087 0)
(7.36237 0.0103026 0)
(7.36417 0.0100814 0)
(7.36598 0.0098486 0)
(7.36781 0.00960722 0)
(7.36968 0.00935901 0)
(7.37158 0.00910426 0)
(7.37353 0.00884119 0)
(7.37555 0.0085651 0)
(7.37765 0.00826755 0)
(7.37984 0.00793538 0)
(7.38213 0.0075502 0)
(7.38453 0.00708827 0)
(7.38703 0.00652161 0)
(7.38965 0.00582025 0)
(7.39234 0.00495931 0)
(7.33303 0.000879141 0)
(7.3334 0.00261881 0)
(7.3342 0.00423656 0)
(7.33534 0.00565152 0)
(7.33673 0.00683885 0)
(7.33829 0.00779846 0)
(7.33996 0.00854489 0)
(7.3417 0.00910435 0)
(7.34348 0.0095053 0)
(7.34528 0.00977408 0)
(7.34708 0.00993401 0)
(7.34887 0.0100048 0)
(7.35066 0.0100027 0)
(7.35245 0.00994068 0)
(7.35423 0.00982946 0)
(7.356 0.00967756 0)
(7.35777 0.00949191 0)
(7.35954 0.00927815 0)
(7.36131 0.00904085 0)
(7.3631 0.00878363 0)
(7.3649 0.00850919 0)
(7.36672 0.00821921 0)
(7.36857 0.00791413 0)
(7.37046 0.00759278 0)
(7.37239 0.00725197 0)
(7.37439 0.00688588 0)
(7.37645 0.00648554 0)
(7.37859 0.0060384 0)
(7.38081 0.00552817 0)
(7.38312 0.00493525 0)
(7.38551 0.00423779 0)
(7.38797 0.00341356 0)
(7.3905 0.00244593 0)
(7.33303 0.00078327 0)
(7.33337 0.00232496 0)
(7.33411 0.00375697 0)
(7.33517 0.00501595 0)
(7.33645 0.00607843 0)
(7.33791 0.00694198 0)
(7.33949 0.00761678 0)
(7.34114 0.00812281 0)
(7.34284 0.00848316 0)
(7.34457 0.00871997 0)
(7.34631 0.00885335 0)
(7.34806 0.00890067 0)
(7.34981 0.0088764 0)
(7.35156 0.00879244 0)
(7.3533 0.00865845 0)
(7.35505 0.00848222 0)
(7.35679 0.00826999 0)
(7.35854 0.00802671 0)
(7.36029 0.00775623 0)
(7.36206 0.00746136 0)
(7.36384 0.00714388 0)
(7.36564 0.00680447 0)
(7.36747 0.00644249 0)
(7.36933 0.00605576 0)
(7.37124 0.0056402 0)
(7.3732 0.0051895 0)
(7.37521 0.00469484 0)
(7.37729 0.00414475 0)
(7.37943 0.00352521 0)
(7.38164 0.00282031 0)
(7.38391 0.00201315 0)
(7.38624 0.00108725 0)
(7.3886 3.16035e-05 0)
(7.33303 0.000690356 0)
(7.33335 0.00204478 0)
(7.33403 0.00330148 0)
(7.33501 0.00440995 0)
(7.33621 0.00534886 0)
(7.33757 0.00611418 0)
(7.33906 0.00671275 0)
(7.34063 0.00715974 0)
(7.34226 0.00747368 0)
(7.34393 0.00767301 0)
(7.34561 0.00777486 0)
(7.34731 0.00779431 0)
(7.34902 0.00774415 0)
(7.35072 0.00763497 0)
(7.35244 0.00747542 0)
(7.35415 0.00727246 0)
(7.35587 0.00703159 0)
(7.35759 0.00675705 0)
(7.35931 0.00645196 0)
(7.36105 0.00611838 0)
(7.36281 0.0057573 0)
(7.36458 0.00536857 0)
(7.36638 0.00495079 0)
(7.36822 0.00450109 0)
(7.37008 0.00401494 0)
(7.37199 0.003486 0)
(7.37395 0.00290598 0)
(7.37595 0.00226473 0)
(7.37801 0.00155046 0)
(7.38012 0.000750375 0)
(7.38227 -0.000148479 0)
(7.38446 -0.00115834 0)
(7.38667 -0.00228635 0)
(7.33303 0.000600818 0)
(7.33333 0.0017772 0)
(7.33396 0.00286734 0)
(7.33487 0.00383028 0)
(7.33599 0.00464705 0)
(7.33727 0.00531263 0)
(7.33867 0.00583133 0)
(7.34017 0.00621455 0)
(7.34173 0.006477 0)
(7.34333 0.00663387 0)
(7.34496 0.00669959 0)
(7.34661 0.0066871 0)
(7.34828 0.00660749 0)
(7.34994 0.00647006 0)
(7.35162 0.00628241 0)
(7.3533 0.0060506 0)
(7.35498 0.00577938 0)
(7.35668 0.00547226 0)
(7.35837 0.00513167 0)
(7.36008 0.00475899 0)
(7.36181 0.00435452 0)
(7.36355 0.00391751 0)
(7.36531 0.00344598 0)
(7.3671 0.00293668 0)
(7.36893 0.00238498 0)
(7.37078 0.00178478 0)
(7.37267 0.00112856 0)
(7.3746 0.000407533 0)
(7.37656 -0.000388055 0)
(7.37857 -0.00126837 0)
(7.3806 -0.00224333 0)
(7.38265 -0.00332199 0)
(7.38471 -0.00450883 0)
(7.33302 0.000514709 0)
(7.3333 0.00152105 0)
(7.3339 0.00245205 0)
(7.33474 0.00327391 0)
(7.33579 0.00396997 0)
(7.33699 0.0045347 0)
(7.33833 0.00497051 0)
(7.33975 0.00528587 0)
(7.34125 0.00549232 0)
(7.34279 0.00560225 0)
(7.34437 0.00562765 0)
(7.34597 0.00557946 0)
(7.34759 0.00546715 0)
(7.34922 0.00529872 0)
(7.35085 0.00508068 0)
(7.3525 0.00481824 0)
(7.35415 0.00451532 0)
(7.35581 0.00417475 0)
(7.35747 0.00379831 0)
(7.35915 0.00338675 0)
(7.36084 0.00293985 0)
(7.36254 0.00245635 0)
(7.36426 0.00193395 0)
(7.36601 0.00136924 0)
(7.36777 0.000757666 0)
(7.36956 9.35903e-05 0)
(7.37138 -0.000629652 0)
(7.37323 -0.00141953 0)
(7.3751 -0.00228402 0)
(7.37699 -0.00323113 0)
(7.3789 -0.00426841 0)
(7.38082 -0.00540259 0)
(7.38274 -0.00663621 0)
(7.33302 0.000431872 0)
(7.33328 0.00127519 0)
(7.33384 0.00205335 0)
(7.33463 0.00273808 0)
(7.33561 0.00331485 0)
(7.33675 0.00377797 0)
(7.33802 0.00412852 0)
(7.33938 0.00437263 0)
(7.34081 0.0045193 0)
(7.3423 0.00457846 0)
(7.34382 0.00455995 0)
(7.34538 0.00447282 0)
(7.34695 0.00432503 0)
(7.34854 0.00412329 0)
(7.35014 0.00387305 0)
(7.35175 0.00357861 0)
(7.35336 0.00324313 0)
(7.35498 0.00286877 0)
(7.35661 0.00245669 0)
(7.35825 0.00200712 0)
(7.3599 0.00151939 0)
(7.36156 0.000991923 0)
(7.36323 0.000422207 0)
(7.36492 -0.000193164 0)
(7.36663 -0.000858486 0)
(7.36835 -0.00157886 0)
(7.37009 -0.00236009 0)
(7.37185 -0.00320842 0)
(7.37363 -0.00413032 0)
(7.37541 -0.00513205 0)
(7.3772 -0.00621931 0)
(7.37899 -0.00739709 0)
(7.38078 -0.00866659 0)
(7.33302 0.000352047 0)
(7.33327 0.00103848 0)
(7.33379 0.00166916 0)
(7.33453 0.00222015 0)
(7.33546 0.00267886 0)
(7.33653 0.00303971 0)
(7.33774 0.00330281 0)
(7.33904 0.00347259 0)
(7.34042 0.00355593 0)
(7.34185 0.00356068 0)
(7.34333 0.00349478 0)
(7.34483 0.00336562 0)
(7.34636 0.0031797 0)
(7.34791 0.00294251 0)
(7.34947 0.00265845 0)
(7.35104 0.00233096 0)
(7.35262 0.00196244 0)
(7.3542 0.00155439 0)
(7.35579 0.00110743 0)
(7.35739 0.000621315 0)
(7.35899 9.50337e-05 0)
(7.3606 -0.000473234 0)
(7.36222 -0.00108607 0)
(7.36385 -0.00174676 0)
(7.36549 -0.0024593 0)
(7.36715 -0.0032282 0)
(7.36881 -0.00405843 0)
(7.37048 -0.00495519 0)
(7.37215 -0.00592364 0)
(7.37383 -0.00696866 0)
(7.3755 -0.00809454 0)
(7.37717 -0.00930492 0)
(7.37882 -0.0106001 0)
(7.33302 0.000274925 0)
(7.33325 0.000809839 0)
(7.33374 0.00129764 0)
(7.33444 0.00171794 0)
(7.33532 0.00205993 0)
(7.33634 0.00231836 0)
(7.33749 0.00249276 0)
(7.33874 0.00258618 0)
(7.34006 0.00260381 0)
(7.34145 0.00255172 0)
(7.34287 0.00243616 0)
(7.34434 0.00226291 0)
(7.34583 0.00203714 0)
(7.34733 0.00176323 0)
(7.34885 0.00144444 0)
(7.35038 0.00108345 0)
(7.35192 0.000681972 0)
(7.35346 0.000240858 0)
(7.35501 -0.000239766 0)
(7.35656 -0.000760504 0)
(7.35812 -0.00132266 0)
(7.35968 -0.00192818 0)
(7.36124 -0.00257965 0)
(7.36281 -0.00328018 0)
(7.36438 -0.00403338 0)
(7.36596 -0.00484322 0)
(7.36754 -0.00571389 0)
(7.36912 -0.00664967 0)
(7.37069 -0.00765467 0)
(7.37226 -0.00873265 0)
(7.37382 -0.0098868 0)
(7.37536 -0.0111198 0)
(7.37689 -0.0124312 0)
(7.33302 0.000200176 0)
(7.33324 0.00058815 0)
(7.3337 0.000936756 0)
(7.33436 0.00122848 0)
(7.33519 0.00145406 0)
(7.33617 0.00160874 0)
(7.33727 0.00169195 0)
(7.33847 0.00170578 0)
(7.33974 0.00165411 0)
(7.34108 0.00154152 0)
(7.34247 0.00137301 0)
(7.34389 0.00115293 0)
(7.34533 0.00088514 0)
(7.3468 0.000572791 0)
(7.34828 0.00021859 0)
(7.34977 -0.000175939 0)
(7.35127 -0.000609797 0)
(7.35277 -0.00108267 0)
(7.35427 -0.00159491 0)
(7.35577 -0.00214746 0)
(7.35728 -0.00274186 0)
(7.35878 -0.00338015 0)
(7.36029 -0.00406485 0)
(7.36179 -0.0047989 0)
(7.36329 -0.00558551 0)
(7.36479 -0.00642815 0)
(7.36629 -0.00733035 0)
(7.36777 -0.00829559 0)
(7.36925 -0.00932713 0)
(7.37071 -0.0104278 0)
(7.37216 -0.0116001 0)
(7.37358 -0.0128457 0)
(7.37498 -0.0141639 0)
(7.33302 0.000127512 0)
(7.33322 0.00037269 0)
(7.33366 0.000585805 0)
(7.33429 0.000751965 0)
(7.33508 0.000863784 0)
(7.33602 0.000916402 0)
(7.33707 0.000909451 0)
(7.33823 0.000844336 0)
(7.33946 0.0007237 0)
(7.34075 0.000550945 0)
(7.3421 0.000329226 0)
(7.34348 6.19054e-05 0)
(7.34489 -0.000248222 0)
(7.34631 -0.000599066 0)
(7.34775 -0.000988805 0)
(7.3492 -0.00141666 0)
(7.35066 -0.00188227 0)
(7.35211 -0.00238581 0)
(7.35357 -0.002928 0)
(7.35503 -0.00351009 0)
(7.35648 -0.00413376 0)
(7.35793 -0.0048011 0)
(7.35937 -0.00551452 0)
(7.36081 -0.00627672 0)
(7.36224 -0.0070906 0)
(7.36366 -0.00795912 0)
(7.36506 -0.00888524 0)
(7.36646 -0.00987179 0)
(7.36784 -0.0109213 0)
(7.36919 -0.012036 0)
(7.37053 -0.0132176 0)
(7.37184 -0.0144674 0)
(7.37311 -0.0157841 0)
(7.33302 5.65463e-05 0)
(7.33321 0.000161693 0)
(7.33363 0.0002402 0)
(7.33423 0.000279013 0)
(7.33499 0.000271657 0)
(7.33589 0.000216718 0)
(7.3369 0.000112998 0)
(7.33802 -3.81304e-05 0)
(7.33921 -0.000234339 0)
(7.34047 -0.000473065 0)
(7.34177 -0.000752247 0)
(7.34312 -0.00106968 0)
(7.34449 -0.00142374 0)
(7.34587 -0.00181328 0)
(7.34728 -0.00223788 0)
(7.34869 -0.00269729 0)
(7.3501 -0.00319184 0)
(7.35151 -0.00372234 0)
(7.35292 -0.00428997 0)
(7.35433 -0.00489629 0)
(7.35572 -0.00554316 0)
(7.35711 -0.00623272 0)
(7.35849 -0.00696734 0)
(7.35986 -0.0077495 0)
(7.36122 -0.00858181 0)
(7.36256 -0.00946682 0)
(7.36388 -0.010407 0)
(7.36518 -0.0114047 0)
(7.36646 -0.0124619 0)
(7.36772 -0.0135802 0)
(7.36894 -0.0147608 0)
(7.37014 -0.0160046 0)
(7.3713 -0.0173101 0)
(7.33302 -1.25948e-05 0)
(7.3332 -4.24922e-05 0)
(7.3336 -9.15355e-05 0)
(7.33417 -0.000170697 0)
(7.3349 -0.000285364 0)
(7.33576 -0.000436778 0)
(7.33675 -0.000626693 0)
(7.33783 -0.000854628 0)
(7.33899 -0.00111921 0)
(7.34021 -0.00141901 0)
(7.34148 -0.00175243 0)
(7.34279 -0.00211841 0)
(7.34413 -0.00251618 0)
(7.34548 -0.00294534 0)
(7.34685 -0.00340592 0)
(7.34822 -0.00389828 0)
(7.34959 -0.00442323 0)
(7.35096 -0.00498191 0)
(7.35232 -0.00557576 0)
(7.35368 -0.00620651 0)
(7.35502 -0.00687609 0)
(7.35635 -0.00758664 0)
(7.35767 -0.00834041 0)
(7.35897 -0.00913969 0)
(7.36025 -0.0099868 0)
(7.36151 -0.010884 0)
(7.36275 -0.0118333 0)
(7.36396 -0.0128366 0)
(7.36514 -0.0138955 0)
(7.3663 -0.0150112 0)
(7.36742 -0.0161845 0)
(7.3685 -0.017416 0)
(7.36955 -0.0187042 0)
(7.33302 -8.13797e-05 0)
(7.3332 -0.000250628 0)
(7.33358 -0.000440261 0)
(7.33413 -0.000659225 0)
(7.33484 -0.000907829 0)
(7.33568 -0.00118499 0)
(7.33663 -0.00148787 0)
(7.33768 -0.00181449 0)
(7.33881 -0.00216364 0)
(7.34 -0.00253474 0)
(7.34124 -0.00292779 0)
(7.34252 -0.00334325 0)
(7.34382 -0.00378192 0)
(7.34514 -0.00424484 0)
(7.34647 -0.00473333 0)
(7.3478 -0.0052489 0)
(7.34913 -0.0057932 0)
(7.35046 -0.00636809 0)
(7.35177 -0.00697553 0)
(7.35308 -0.0076176 0)
(7.35436 -0.00829646 0)
(7.35564 -0.00901431 0)
(7.35689 -0.00977336 0)
(7.35812 -0.0105758 0)
(7.35933 -0.0114237 0)
(7.36051 -0.012319 0)
(7.36166 -0.0132635 0)
(7.36279 -0.0142586 0)
(7.36388 -0.0153057 0)
(7.36494 -0.0164055 0)
(7.36595 -0.0175587 0)
(7.36693 -0.0187654 0)
(7.36787 -0.020024 0)
(7.33301 -0.000145001 0)
(7.33318 -0.000429331 0)
(7.33353 -0.000718248 0)
(7.33405 -0.00102348 0)
(7.33473 -0.00134989 0)
(7.33555 -0.00169934 0)
(7.33648 -0.00207156 0)
(7.33752 -0.00246538 0)
(7.33863 -0.00287942 0)
(7.3398 -0.00331264 0)
(7.34103 -0.0037645 0)
(7.34228 -0.00423506 0)
(7.34356 -0.00472485 0)
(7.34486 -0.00523483 0)
(7.34615 -0.00576631 0)
(7.34745 -0.00632087 0)
(7.34875 -0.00690029 0)
(7.35003 -0.00750654 0)
(7.3513 -0.0081417 0)
(7.35256 -0.00880795 0)
(7.35379 -0.00950749 0)
(7.35501 -0.0102425 0)
(7.3562 -0.0110152 0)
(7.35736 -0.0118276 0)
(7.3585 -0.0126817 0)
(7.3596 -0.0135792 0)
(7.36067 -0.0145216 0)
(7.36171 -0.0155104 0)
(7.36271 -0.0165464 0)
(7.36367 -0.0176304 0)
(7.36459 -0.0187628 0)
(7.36547 -0.0199437 0)
(7.3663 -0.0211715 0)
(7.33302 -0.000221197 0)
(7.3332 -0.000683803 0)
(7.33356 -0.00117724 0)
(7.33408 -0.00169633 0)
(7.33474 -0.0022254 0)
(7.33553 -0.00275248 0)
(7.33644 -0.00327184 0)
(7.33744 -0.00378217 0)
(7.33853 -0.00428489 0)
(7.33967 -0.004783 0)
(7.34086 -0.00528026 0)
(7.34209 -0.00578068 0)
(7.34334 -0.00628828 0)
(7.3446 -0.00680686 0)
(7.34586 -0.00733997 0)
(7.34713 -0.00789095 0)
(7.34838 -0.0084629 0)
(7.34963 -0.00905872 0)
(7.35085 -0.00968114 0)
(7.35206 -0.0103327 0)
(7.35324 -0.0110158 0)
(7.3544 -0.0117328 0)
(7.35553 -0.0124857 0)
(7.35663 -0.0132764 0)
(7.3577 -0.0141067 0)
(7.35873 -0.014978 0)
(7.35972 -0.0158917 0)
(7.36068 -0.0168486 0)
(7.36159 -0.0178497 0)
(7.36246 -0.0188953 0)
(7.36329 -0.0199854 0)
(7.36407 -0.0211203 0)
(7.3648 -0.022298 0)
(7.333 -0.000246459 0)
(7.3331 -0.000698654 0)
(7.33339 -0.00114116 0)
(7.33386 -0.00160998 0)
(7.33451 -0.00211565 0)
(7.33532 -0.00265434 0)
(7.33625 -0.00321721 0)
(7.33728 -0.00379534 0)
(7.33839 -0.00438205 0)
(7.33955 -0.00497327 0)
(7.34075 -0.00556709 0)
(7.34198 -0.00616331 0)
(7.34323 -0.00676296 0)
(7.34447 -0.00736791 0)
(7.34572 -0.00798053 0)
(7.34696 -0.00860352 0)
(7.34818 -0.00923975 0)
(7.34939 -0.00989209 0)
(7.35057 -0.0105634 0)
(7.35173 -0.0112565 0)
(7.35287 -0.0119741 0)
(7.35397 -0.0127185 0)
(7.35503 -0.0134922 0)
(7.35607 -0.0142972 0)
(7.35706 -0.0151355 0)
(7.35802 -0.0160085 0)
(7.35894 -0.0169177 0)
(7.35981 -0.0178641 0)
(7.36064 -0.0188486 0)
(7.36142 -0.0198717 0)
(7.36215 -0.0209335 0)
(7.36284 -0.0220342 0)
(7.36347 -0.0231722 0)
(7.33305 -0.00042117 0)
(7.33329 -0.0013341 0)
(7.33365 -0.00230068 0)
(7.33412 -0.00325462 0)
(7.33472 -0.00414522 0)
(7.33545 -0.00495624 0)
(7.33631 -0.00569135 0)
(7.33727 -0.00636126 0)
(7.33832 -0.00697882 0)
(7.33943 -0.00755693 0)
(7.34059 -0.00810749 0)
(7.34178 -0.00864091 0)
(7.34299 -0.00916609 0)
(7.34422 -0.00969044 0)
(7.34544 -0.0102202 0)
(7.34665 -0.0107604 0)
(7.34784 -0.0113157 0)
(7.34902 -0.0118895 0)
(7.35017 -0.0124852 0)
(7.35129 -0.0131054 0)
(7.35238 -0.0137526 0)
(7.35344 -0.0144289 0)
(7.35446 -0.0151361 0)
(7.35544 -0.0158757 0)
(7.35637 -0.0166491 0)
(7.35727 -0.0174574 0)
(7.35812 -0.0183014 0)
(7.35892 -0.0191817 0)
(7.35967 -0.0200987 0)
(7.36038 -0.0210526 0)
(7.36103 -0.0220431 0)
(7.36163 -0.0230701 0)
(7.36218 -0.024132 0)
(7.33293 -0.000162414 0)
(7.33282 -0.000401116 0)
(7.33297 -0.000700186 0)
(7.33343 -0.0011868 0)
(7.33414 -0.00184849 0)
(7.33503 -0.00262451 0)
(7.33604 -0.0034604 0)
(7.33715 -0.00431826 0)
(7.33831 -0.00517416 0)
(7.33951 -0.00601419 0)
(7.34074 -0.00683156 0)
(7.34197 -0.00762444 0)
(7.3432 -0.00839414 0)
(7.34442 -0.00914385 0)
(7.34563 -0.00987776 0)
(7.34682 -0.0106005 0)
(7.34798 -0.011317 0)
(7.34911 -0.0120317 0)
(7.35021 -0.012749 0)
(7.35128 -0.0134732 0)
(7.35231 -0.0142078 0)
(7.35331 -0.0149562 0)
(7.35426 -0.0157215 0)
(7.35517 -0.0165063 0)
(7.35603 -0.0173128 0)
(7.35685 -0.0181429 0)
(7.35762 -0.0189982 0)
(7.35834 -0.0198801 0)
(7.35901 -0.0207893 0)
(7.35963 -0.0217267 0)
(7.3602 -0.0226924 0)
(7.36071 -0.0236868 0)
(7.36117 -0.0247086 0)
(7.33316 -0.00086911 0)
(7.33362 -0.00289308 0)
(7.33392 -0.00487325 0)
(7.33418 -0.00655093 0)
(7.33458 -0.00788351 0)
(7.33517 -0.00893344 0)
(7.33594 -0.00977017 0)
(7.33686 -0.0104509 0)
(7.33789 -0.0110219 0)
(7.339 -0.0115193 0)
(7.34017 -0.0119706 0)
(7.34137 -0.0123962 0)
(7.34258 -0.0128109 0)
(7.3438 -0.0132256 0)
(7.34501 -0.0136482 0)
(7.3462 -0.0140844 0)
(7.34737 -0.0145385 0)
(7.3485 -0.0150137 0)
(7.3496 -0.0155125 0)
(7.35067 -0.0160366 0)
(7.35169 -0.0165876 0)
(7.35266 -0.0171666 0)
(7.35359 -0.0177746 0)
(7.35447 -0.0184123 0)
(7.35531 -0.0190802 0)
(7.35609 -0.0197787 0)
(7.35681 -0.020508 0)
(7.35749 -0.0212681 0)
(7.35811 -0.0220591 0)
(7.35867 -0.0228806 0)
(7.35918 -0.0237324 0)
(7.35963 -0.0246139 0)
(7.36002 -0.0255238 0)
(7.33266 0.000528439 0)
(7.33187 0.00177454 0)
(7.3319 0.00240363 0)
(7.33261 0.00208219 0)
(7.33366 0.00111346 0)
(7.33484 -0.000178705 0)
(7.33609 -0.00159665 0)
(7.33737 -0.00303511 0)
(7.33866 -0.00443518 0)
(7.33993 -0.00576506 0)
(7.34119 -0.00701189 0)
(7.34242 -0.00817449 0)
(7.34363 -0.00925793 0)
(7.34482 -0.0102704 0)
(7.34597 -0.0112217 0)
(7.34709 -0.0121214 0)
(7.34817 -0.0129792 0)
(7.34922 -0.0138038 0)
(7.35023 -0.0146032 0)
(7.3512 -0.0153845 0)
(7.35213 -0.0161539 0)
(7.35301 -0.0169169 0)
(7.35385 -0.0176782 0)
(7.35464 -0.0184419 0)
(7.35538 -0.0192114 0)
(7.35607 -0.0199897 0)
(7.35671 -0.020779 0)
(7.35729 -0.0215815 0)
(7.35782 -0.0223986 0)
(7.3583 -0.0232315 0)
(7.35872 -0.024081 0)
(7.35909 -0.0249477 0)
(7.35939 -0.0258311 0)
(7.33353 -0.00202196 0)
(7.33443 -0.00684305 0)
(7.33402 -0.0113401 0)
(7.33329 -0.0141578 0)
(7.33307 -0.0157826 0)
(7.33338 -0.0167191 0)
(7.33408 -0.0172238 0)
(7.33502 -0.017468 0)
(7.33614 -0.0175697 0)
(7.33736 -0.0176049 0)
(7.33866 -0.0176213 0)
(7.33998 -0.0176479 0)
(7.34131 -0.0177015 0)
(7.34262 -0.0177914 0)
(7.34391 -0.017922 0)
(7.34517 -0.0180949 0)
(7.34638 -0.0183102 0)
(7.34755 -0.0185669 0)
(7.34867 -0.0188636 0)
(7.34974 -0.0191988 0)
(7.35075 -0.0195709 0)
(7.35171 -0.0199784 0)
(7.35262 -0.02042 0)
(7.35347 -0.0208943 0)
(7.35426 -0.0214003 0)
(7.35499 -0.0219369 0)
(7.35566 -0.022503 0)
(7.35628 -0.0230978 0)
(7.35683 -0.0237202 0)
(7.35733 -0.0243696 0)
(7.35776 -0.0250449 0)
(7.35814 -0.0257456 0)
(7.35846 -0.02647 0)
(7.33179 0.00339518 0)
(7.329 0.00921157 0)
(7.32947 0.0118452 0)
(7.33181 0.0115645 0)
(7.33391 0.00947475 0)
(7.33567 0.00678131 0)
(7.33725 0.00398586 0)
(7.33868 0.00127636 0)
(7.34 -0.00124612 0)
(7.34123 -0.00353933 0)
(7.3424 -0.00560046 0)
(7.34353 -0.00744466 0)
(7.34463 -0.00909423 0)
(7.3457 -0.0105738 0)
(7.34674 -0.0119076 0)
(7.34776 -0.013118 0)
(7.34876 -0.0142252 0)
(7.34974 -0.0152468 0)
(7.35069 -0.0161979 0)
(7.35161 -0.0170917 0)
(7.35249 -0.0179394 0)
(7.35335 -0.0187502 0)
(7.35416 -0.0195325 0)
(7.35493 -0.0202928 0)
(7.35566 -0.021037 0)
(7.35634 -0.0217698 0)
(7.35698 -0.0224953 0)
(7.35757 -0.0232167 0)
(7.3581 -0.0239369 0)
(7.35858 -0.0246579 0)
(7.35901 -0.0253816 0)
(7.35938 -0.026109 0)
(7.35969 -0.0268408 0)
(7.33408 -0.00612702 0)
(7.33405 -0.0189585 0)
(7.33028 -0.0270021 0)
(7.32662 -0.0305156 0)
(7.32504 -0.0312857 0)
(7.32527 -0.0308525 0)
(7.32634 -0.0298871 0)
(7.32783 -0.0287135 0)
(7.3296 -0.0275291 0)
(7.33153 -0.0264373 0)
(7.33352 -0.0254822 0)
(7.33553 -0.0246782 0)
(7.33752 -0.0240241 0)
(7.33948 -0.0235108 0)
(7.3414 -0.0231257 0)
(7.34326 -0.0228551 0)
(7.34506 -0.0226859 0)
(7.3468 -0.0226058 0)
(7.34846 -0.022604 0)
(7.35006 -0.0226711 0)
(7.35159 -0.022799 0)
(7.35305 -0.0229805 0)
(7.35444 -0.0232098 0)
(7.35575 -0.0234819 0)
(7.35699 -0.0237925 0)
(7.35815 -0.024138 0)
(7.35924 -0.0245154 0)
(7.36026 -0.0249219 0)
(7.3612 -0.0253552 0)
(7.36207 -0.0258135 0)
(7.36287 -0.0262951 0)
(7.3636 -0.0267986 0)
(7.36425 -0.0273221 0)
(7.32967 0.0198589 0)
(7.32497 0.0370015 0)
(7.32932 0.0376899 0)
(7.33512 0.0322834 0)
(7.33878 0.025869 0)
(7.34097 0.01956 0)
(7.3428 0.0136634 0)
(7.34455 0.00838175 0)
(7.34632 0.00376069 0)
(7.34816 -0.000246236 0)
(7.3501 -0.00370818 0)
(7.35212 -0.00669663 0)
(7.35421 -0.00928047 0)
(7.35636 -0.0115222 0)
(7.35854 -0.0134761 0)
(7.36073 -0.0151887 0)
(7.36292 -0.0166993 0)
(7.36508 -0.0180409 0)
(7.36722 -0.0192413 0)
(7.3693 -0.0203237 0)
(7.37134 -0.0213076 0)
(7.37331 -0.0222091 0)
(7.37521 -0.023042 0)
(7.37704 -0.0238176 0)
(7.37879 -0.0245457 0)
(7.38046 -0.0252342 0)
(7.38205 -0.0258901 0)
(7.38354 -0.0265192 0)
(7.38496 -0.0271263 0)
(7.38628 -0.0277157 0)
(7.38751 -0.028291 0)
(7.38865 -0.0288548 0)
(7.38971 -0.0294108 0)
(7.32507 -0.0330802 0)
(7.29738 -0.0587666 0)
(7.27808 -0.0616992 0)
(7.27377 -0.0593284 0)
(7.28038 -0.055829 0)
(7.29182 -0.0517863 0)
(7.30509 -0.0478459 0)
(7.31882 -0.04434 0)
(7.33228 -0.0413175 0)
(7.34504 -0.0387605 0)
(7.35695 -0.0366317 0)
(7.36794 -0.0348793 0)
(7.37803 -0.0334493 0)
(7.38725 -0.0322923 0)
(7.39567 -0.0313651 0)
(7.40333 -0.0306303 0)
(7.4103 -0.0300565 0)
(7.41663 -0.0296175 0)
(7.42238 -0.0292916 0)
(7.42759 -0.0290609 0)
(7.4323 -0.0289107 0)
(7.43656 -0.0288288 0)
(7.4404 -0.0288052 0)
(7.44384 -0.0288316 0)
(7.44693 -0.0289011 0)
(7.44969 -0.0290081 0)
(7.45213 -0.0291477 0)
(7.45429 -0.0293159 0)
(7.45618 -0.0295092 0)
(7.45782 -0.0297247 0)
(7.45923 -0.0299596 0)
(7.46041 -0.0302116 0)
(7.46141 -0.0304776 0)
(7.33915 0.134725 0)
(7.3762 0.127073 0)