/*--------------------------------*- C++ -*----------------------------------*\
  =========                 |
  \\      /  F ield         | OpenFOAM: The Open Source CFD Toolbox
   \\    /   O peration     | Website:  https://openfoam.org
    \\  /    A nd           | Version:  10
     \\/     M anipulation  |
\*---------------------------------------------------------------------------*/
FoamFile
{
    format      ascii;
    class       volScalarField;
    location    "0.045";
    object      nut;
}
// * * * * * * * * * * * * * * * * * * * * * * * * * * * * * * * * * * * * * //

dimensions      [0 2 -1 0 0 0 0];

internalField   nonuniform List<scalar> 
6820
(
0.000503209
0.000397064
0.000324472
0.000269285
0.000236366
0.00021392
0.000197237
0.000184447
0.00017409
0.000165369
0.000157838
0.000151203
0.000145268
0.000139896
0.000134985
0.00013046
0.000126262
0.000122347
0.000118678
0.000115228
0.000111972
0.000108893
0.000105975
0.000103205
0.000100574
9.80751e-05
9.56994e-05
9.34508e-05
9.13129e-05
8.93473e-05
8.74141e-05
8.58106e-05
8.35404e-05
8.18542e-05
0.000143732
0.000196429
0.000210845
0.000206412
0.000197541
0.000187266
0.000177345
0.000168367
0.000160318
0.000153094
0.000146579
0.000140665
0.000135262
0.000130297
0.000125712
0.000121456
0.000117488
0.000113774
0.000110283
0.000106991
0.000103876
0.000100921
9.81106e-05
9.5431e-05
9.28704e-05
9.0421e-05
8.80684e-05
8.58164e-05
8.36253e-05
8.16016e-05
7.94852e-05
7.82114e-05
3.85899e-05
2.73902e-05
4.3063e-05
7.45009e-05
9.59288e-05
0.000109309
0.000116574
0.000119888
0.000120829
0.000120301
0.000118861
0.000116863
0.000114526
0.000111996
0.000109365
0.000106695
0.000104025
0.000101384
9.87885e-05
9.62495e-05
9.37737e-05
9.13647e-05
8.90237e-05
8.67502e-05
8.45429e-05
8.23996e-05
8.03169e-05
7.82926e-05
7.63203e-05
7.43967e-05
7.25085e-05
7.06394e-05
6.88183e-05
1.99679e-05
2.35257e-05
2.20628e-05
1.27697e-05
2.9121e-06
1.248e-05
2.3035e-05
3.17268e-05
3.87385e-05
4.43217e-05
4.87165e-05
5.2136e-05
5.47529e-05
5.67049e-05
5.81117e-05
5.90712e-05
5.96631e-05
5.99532e-05
5.99956e-05
5.98343e-05
5.95058e-05
5.90396e-05
5.84602e-05
5.77873e-05
5.70368e-05
5.62214e-05
5.53512e-05
5.4433e-05
5.34728e-05
5.24697e-05
5.14269e-05
5.0334e-05
4.92051e-05
1.32455e-05
1.50804e-05
1.99307e-05
2.20253e-05
2.14703e-05
1.95182e-05
1.68768e-05
1.39127e-05
1.08423e-05
7.79483e-06
4.8549e-06
2.10089e-06
8.05081e-07
3.03308e-06
5.19509e-06
7.1576e-06
8.9182e-06
1.04848e-05
1.18687e-05
1.30821e-05
1.41379e-05
1.50483e-05
1.58248e-05
1.64783e-05
1.70181e-05
1.74526e-05
1.77886e-05
1.80316e-05
1.81847e-05
1.82501e-05
1.82238e-05
1.81106e-05
1.78855e-05
1.01922e-05
1.10207e-05
1.1847e-05
1.26499e-05
1.32893e-05
1.38369e-05
1.42372e-05
1.44549e-05
1.45018e-05
1.43991e-05
1.41682e-05
1.38318e-05
1.34106e-05
1.29195e-05
1.23776e-05
1.18009e-05
1.12032e-05
1.05963e-05
9.98976e-06
9.3915e-06
8.80777e-06
8.24355e-06
7.7028e-06
7.18875e-06
6.70401e-06
6.25104e-06
5.83183e-06
5.44943e-06
5.10532e-06
4.80612e-06
4.54983e-06
4.35273e-06
4.19735e-06
7.53691e-06
8.25348e-06
8.67838e-06
8.91363e-06
8.81223e-06
8.61226e-06
8.457e-06
8.37731e-06
8.36635e-06
8.39933e-06
8.44907e-06
8.49674e-06
8.53302e-06
8.55547e-06
8.56074e-06
8.54748e-06
8.51593e-06
8.46717e-06
8.40269e-06
8.32426e-06
8.23379e-06
8.13321e-06
8.02448e-06
7.90956e-06
7.79035e-06
7.66885e-06
7.54687e-06
7.42691e-06
7.31036e-06
7.20168e-06
7.10029e-06
7.01852e-06
6.95278e-06
5.75454e-06
6.61628e-06
7.01409e-06
7.12596e-06
6.87483e-06
6.51522e-06
6.18802e-06
5.91764e-06
5.70255e-06
5.53363e-06
5.39884e-06
5.28854e-06
5.19562e-06
5.1149e-06
5.04301e-06
4.97758e-06
4.91673e-06
4.85892e-06
4.80302e-06
4.74827e-06
4.69419e-06
4.64056e-06
4.58735e-06
4.5347e-06
4.48291e-06
4.43244e-06
4.38377e-06
4.33782e-06
4.29506e-06
4.25745e-06
4.22478e-06
4.20176e-06
4.18817e-06
4.48064e-06
5.25489e-06
5.55302e-06
5.70646e-06
5.62495e-06
5.41805e-06
5.17622e-06
4.93369e-06
4.70983e-06
4.51257e-06
4.34031e-06
4.18875e-06
4.05401e-06
3.93292e-06
3.82292e-06
3.72199e-06
3.62858e-06
3.54156e-06
3.46009e-06
3.38359e-06
3.31161e-06
3.24386e-06
3.18012e-06
3.12032e-06
3.06441e-06
3.01249e-06
2.96463e-06
2.92108e-06
2.88187e-06
2.8475e-06
2.81774e-06
2.79245e-06
2.77397e-06
3.55176e-06
4.24626e-06
4.52871e-06
4.69183e-06
4.65804e-06
4.49815e-06
4.2997e-06
4.10132e-06
3.9195e-06
3.75889e-06
3.617e-06
3.49005e-06
3.3751e-06
3.26987e-06
3.17263e-06
3.08216e-06
2.99758e-06
2.91825e-06
2.84364e-06
2.77333e-06
2.707e-06
2.64439e-06
2.58533e-06
2.52966e-06
2.47728e-06
2.42807e-06
2.38189e-06
2.33856e-06
2.29775e-06
2.25894e-06
2.22152e-06
2.18284e-06
2.14512e-06
2.86159e-06
3.4699e-06
3.73319e-06
3.8838e-06
3.88525e-06
3.78184e-06
3.63744e-06
3.48217e-06
3.3305e-06
3.18965e-06
3.06127e-06
2.94468e-06
2.83871e-06
2.74204e-06
2.65339e-06
2.57168e-06
2.49596e-06
2.42547e-06
2.35956e-06
2.29773e-06
2.23955e-06
2.18468e-06
2.13281e-06
2.08366e-06
2.03692e-06
1.99224e-06
1.94921e-06
1.90723e-06
1.86558e-06
1.82301e-06
1.77848e-06
1.72826e-06
1.67372e-06
2.33538e-06
2.86326e-06
3.12355e-06
3.27816e-06
3.31131e-06
3.24611e-06
3.13173e-06
2.99859e-06
2.86378e-06
2.73646e-06
2.61958e-06
2.51317e-06
2.41636e-06
2.32803e-06
2.24703e-06
2.17239e-06
2.10327e-06
2.03899e-06
1.97898e-06
1.92275e-06
1.86984e-06
1.81985e-06
1.77239e-06
1.72702e-06
1.68328e-06
1.64063e-06
1.5984e-06
1.55571e-06
1.51152e-06
1.46419e-06
1.41233e-06
1.35213e-06
1.2838e-06
1.92449e-06
2.38419e-06
2.64509e-06
2.80237e-06
2.85499e-06
2.81925e-06
2.73421e-06
2.62733e-06
2.51417e-06
2.40328e-06
2.29838e-06
2.20063e-06
2.11023e-06
2.02688e-06
1.95004e-06
1.87908e-06
1.81341e-06
1.75244e-06
1.69562e-06
1.64243e-06
1.59237e-06
1.54496e-06
1.49969e-06
1.45602e-06
1.41334e-06
1.37095e-06
1.32799e-06
1.28339e-06
1.2359e-06
1.18371e-06
1.12523e-06
1.05703e-06
9.78157e-07
1.59612e-06
2.00061e-06
2.26372e-06
2.42776e-06
2.49863e-06
2.48876e-06
2.42807e-06
2.34096e-06
2.24274e-06
2.14275e-06
2.04592e-06
1.95451e-06
1.86936e-06
1.79056e-06
1.71778e-06
1.65052e-06
1.58823e-06
1.53036e-06
1.47637e-06
1.42573e-06
1.37792e-06
1.3324e-06
1.28861e-06
1.24594e-06
1.20368e-06
1.16103e-06
1.11705e-06
1.07057e-06
1.02028e-06
9.64413e-07
9.01351e-07
8.28163e-07
7.43052e-07
1.32785e-06
1.6901e-06
1.95621e-06
2.12857e-06
2.21408e-06
2.22422e-06
2.18331e-06
2.11357e-06
2.02988e-06
1.94154e-06
1.8538e-06
1.76937e-06
1.68953e-06
1.61477e-06
1.54511e-06
1.4803e-06
1.42001e-06
1.36379e-06
1.31118e-06
1.2617e-06
1.21483e-06
1.17001e-06
1.12666e-06
1.08412e-06
1.04166e-06
9.98429e-07
9.53484e-07
9.05696e-07
8.5382e-07
7.96309e-07
7.31668e-07
6.57836e-07
5.72688e-07
1.10402e-06
1.43604e-06
1.70571e-06
1.88741e-06
1.98634e-06
2.01405e-06
1.99083e-06
1.9365e-06
1.86521e-06
1.78624e-06
1.70533e-06
1.62581e-06
1.54957e-06
1.4775e-06
1.40993e-06
1.34684e-06
1.28797e-06
1.23299e-06
1.18146e-06
1.13291e-06
1.08682e-06
1.04264e-06
9.99784e-07
9.57592e-07
9.15354e-07
8.72281e-07
8.27506e-07
7.80062e-07
7.28942e-07
6.73035e-07
6.1139e-07
5.43271e-07
4.67682e-07
9.13508e-07
1.22631e-06
1.50048e-06
1.69197e-06
1.80319e-06
1.84588e-06
1.8377e-06
1.79658e-06
1.73616e-06
1.66575e-06
1.5914e-06
1.51683e-06
1.44426e-06
1.37489e-06
1.30927e-06
1.24756e-06
1.18967e-06
1.13537e-06
1.0843e-06
1.03607e-06
9.90223e-07
9.46251e-07
9.03616e-07
8.61734e-07
8.19983e-07
7.77707e-07
7.34233e-07
6.88892e-07
6.41101e-07
5.90433e-07
5.36883e-07
4.81422e-07
4.25369e-07
7.48321e-07
1.05216e-06
1.33217e-06
1.53344e-06
1.65615e-06
1.7122e-06
1.71751e-06
1.68842e-06
1.63794e-06
1.5753e-06
1.50672e-06
1.43631e-06
1.36663e-06
1.29921e-06
1.23489e-06
1.17403e-06
1.11671e-06
1.06281e-06
1.01208e-06
9.64186e-07
9.18736e-07
8.75298e-07
8.33409e-07
7.92593e-07
7.52371e-07
7.12288e-07
6.71947e-07
6.31071e-07
5.89617e-07
5.47927e-07
5.06998e-07
4.69121e-07
4.37068e-07
6.02803e-07
9.07603e-07
1.19494e-06
1.40573e-06
1.53918e-06
1.60717e-06
1.62443e-06
1.60598e-06
1.56427e-06
1.50845e-06
1.44495e-06
1.37814e-06
1.31094e-06
1.24513e-06
1.18176e-06
1.12141e-06
1.06431e-06
1.01045e-06
9.59697e-07
9.11826e-07
8.66545e-07
8.23525e-07
7.82428e-07
7.42924e-07
7.04719e-07
6.67587e-07
6.3143e-07
5.96349e-07
5.62757e-07
5.31532e-07
5.04158e-07
4.83129e-07
4.70853e-07
4.73392e-07
7.89079e-07
1.08499e-06
1.30474e-06
1.44814e-06
1.52696e-06
1.55507e-06
1.54642e-06
1.51294e-06
1.46365e-06
1.40511e-06
1.34193e-06
1.27726e-06
1.21315e-06
1.15087e-06
1.09118e-06
1.03448e-06
9.80901e-07
9.30436e-07
8.82967e-07
8.38313e-07
7.96268e-07
7.56627e-07
7.19214e-07
6.83915e-07
6.50718e-07
6.19764e-07
5.91413e-07
5.66312e-07
5.45476e-07
5.30289e-07
5.22661e-07
5.24027e-07
3.59228e-07
6.95355e-07
1.0001e-06
1.22785e-06
1.38021e-06
1.46868e-06
1.50637e-06
1.50633e-06
1.47993e-06
1.4361e-06
1.38146e-06
1.32088e-06
1.25771e-06
1.19428e-06
1.1321e-06
1.07215e-06
1.01496e-06
9.60856e-07
9.09937e-07
8.62212e-07
8.1762e-07
7.76075e-07
7.37496e-07
7.01838e-07
6.69122e-07
6.39474e-07
6.13154e-07
5.90596e-07
5.72437e-07
5.59525e-07
5.52858e-07
5.53659e-07
5.62572e-07
2.6495e-07
6.2753e-07
9.39505e-07
1.17387e-06
1.33418e-06
1.43147e-06
1.47812e-06
1.48639e-06
1.46716e-06
1.42918e-06
1.37916e-06
1.32204e-06
1.2614e-06
1.19973e-06
1.13874e-06
1.07953e-06
1.02283e-06
9.69054e-07
9.18454e-07
8.71151e-07
8.27199e-07
7.86623e-07
7.49452e-07
7.15742e-07
6.85607e-07
6.59233e-07
6.36901e-07
6.18999e-07
6.06012e-07
5.98515e-07
5.97099e-07
6.0243e-07
6.14653e-07
2.07878e-07
5.88467e-07
9.03344e-07
1.14213e-06
1.3088e-06
1.41332e-06
1.46717e-06
1.48183e-06
1.46771e-06
1.43342e-06
1.38573e-06
1.32977e-06
1.26936e-06
1.20722e-06
1.14528e-06
1.08485e-06
1.0268e-06
9.71718e-07
9.19952e-07
8.71728e-07
8.27185e-07
7.86421e-07
7.49523e-07
7.16589e-07
6.8775e-07
6.63179e-07
6.43097e-07
6.27774e-07
6.17513e-07
6.12636e-07
6.13431e-07
6.2022e-07
6.32869e-07
2.16494e-07
5.8168e-07
8.92879e-07
1.13388e-06
1.30607e-06
1.41778e-06
1.47946e-06
1.5018e-06
1.49466e-06
1.46639e-06
1.42363e-06
1.37156e-06
1.31404e-06
1.25393e-06
1.19329e-06
1.13357e-06
1.07578e-06
1.02063e-06
9.68594e-07
9.20006e-07
8.75097e-07
8.34041e-07
7.96983e-07
7.64055e-07
7.35392e-07
7.11137e-07
6.91443e-07
6.76468e-07
6.66362e-07
6.61265e-07
6.61255e-07
6.66445e-07
6.76544e-07
2.88911e-07
6.09205e-07
9.08939e-07
1.14861e-06
1.32334e-06
1.43887e-06
1.50432e-06
1.52965e-06
1.5244e-06
1.49686e-06
1.45383e-06
1.40067e-06
1.3415e-06
1.27936e-06
1.21648e-06
1.15445e-06
1.09438e-06
1.03705e-06
9.82977e-07
9.32529e-07
8.85954e-07
8.43429e-07
8.05086e-07
7.7103e-07
7.41353e-07
7.16135e-07
6.95449e-07
6.79353e-07
6.67885e-07
6.61067e-07
6.58865e-07
6.61294e-07
6.67983e-07
3.98806e-07
6.71141e-07
9.54487e-07
1.19202e-06
1.37093e-06
1.49381e-06
1.56809e-06
1.60258e-06
1.60595e-06
1.58594e-06
1.54903e-06
1.50049e-06
1.44446e-06
1.38412e-06
1.32186e-06
1.25947e-06
1.19826e-06
1.13916e-06
1.08286e-06
1.02983e-06
9.80407e-07
9.34832e-07
8.9327e-07
8.55836e-07
8.22605e-07
7.93629e-07
7.6893e-07
7.4851e-07
7.32344e-07
7.20389e-07
7.12553e-07
7.08811e-07
7.08731e-07
5.32879e-07
7.65621e-07
1.02837e-06
1.25814e-06
1.43357e-06
1.55384e-06
1.6252e-06
1.65626e-06
1.65586e-06
1.63198e-06
1.59132e-06
1.53929e-06
1.48007e-06
1.41683e-06
1.35194e-06
1.2871e-06
1.22356e-06
1.1622e-06
1.10363e-06
1.04827e-06
9.96435e-07
9.48303e-07
9.04003e-07
8.6361e-07
8.2716e-07
7.94664e-07
7.66106e-07
7.41457e-07
7.20668e-07
7.03686e-07
6.9042e-07
6.80885e-07
6.74604e-07
6.89043e-07
8.93541e-07
1.13994e-06
1.36951e-06
1.55416e-06
1.68846e-06
1.77545e-06
1.82145e-06
1.83376e-06
1.81959e-06
1.78545e-06
1.73691e-06
1.67854e-06
1.614e-06
1.54609e-06
1.47697e-06
1.40821e-06
1.34096e-06
1.27605e-06
1.21401e-06
1.15523e-06
1.09994e-06
1.04827e-06
1.00029e-06
9.55988e-07
9.15356e-07
8.7834e-07
8.44876e-07
8.14891e-07
7.88311e-07
7.65032e-07
7.45092e-07
7.27943e-07
8.70637e-07
1.05443e-06
1.27821e-06
1.48958e-06
1.65648e-06
1.77286e-06
1.84317e-06
1.8752e-06
1.87701e-06
1.85576e-06
1.81745e-06
1.76694e-06
1.70806e-06
1.64381e-06
1.57649e-06
1.50786e-06
1.43923e-06
1.37162e-06
1.30574e-06
1.24212e-06
1.18114e-06
1.12303e-06
1.06793e-06
1.01592e-06
9.67014e-07
9.21195e-07
8.7842e-07
8.38635e-07
8.01786e-07
7.67833e-07
7.36705e-07
7.08551e-07
6.82649e-07
1.08385e-06
1.25895e-06
1.48297e-06
1.71634e-06
1.91837e-06
2.07191e-06
2.17402e-06
2.22907e-06
2.24446e-06
2.22829e-06
2.1883e-06
2.13118e-06
2.06241e-06
1.98627e-06
1.90603e-06
1.82409e-06
1.74216e-06
1.66143e-06
1.58273e-06
1.50656e-06
1.43326e-06
1.36299e-06
1.29581e-06
1.23171e-06
1.17064e-06
1.11253e-06
1.05727e-06
1.00476e-06
9.54911e-07
9.07638e-07
8.62832e-07
8.20609e-07
7.80126e-07
1.3399e-06
1.50373e-06
1.68696e-06
1.8636e-06
2.00593e-06
2.10899e-06
2.17653e-06
2.21372e-06
2.22503e-06
2.21433e-06
2.1853e-06
2.14143e-06
2.08593e-06
2.0217e-06
1.9513e-06
1.87688e-06
1.80022e-06
1.72274e-06
1.64551e-06
1.56936e-06
1.49483e-06
1.42231e-06
1.35201e-06
1.28404e-06
1.21843e-06
1.15514e-06
1.09412e-06
1.03528e-06
9.78555e-07
9.23908e-07
8.71239e-07
8.20811e-07
7.71294e-07
1.65111e-06
1.83627e-06
2.08448e-06
2.37086e-06
2.62224e-06
2.80186e-06
2.90757e-06
2.95114e-06
2.94651e-06
2.90664e-06
2.84237e-06
2.76198e-06
2.67147e-06
2.57506e-06
2.47563e-06
2.37515e-06
2.27492e-06
2.17583e-06
2.07846e-06
1.9832e-06
1.89028e-06
1.79985e-06
1.71194e-06
1.62657e-06
1.54368e-06
1.46321e-06
1.38508e-06
1.3092e-06
1.2355e-06
1.16392e-06
1.09437e-06
1.027e-06
9.60629e-07
2.04793e-06
2.19077e-06
2.2768e-06
2.36764e-06
2.47229e-06
2.58246e-06
2.68529e-06
2.76866e-06
2.82409e-06
2.84831e-06
2.84241e-06
2.81008e-06
2.7561e-06
2.68539e-06
2.60248e-06
2.51122e-06
2.4147e-06
2.31534e-06
2.21493e-06
2.11476e-06
2.01572e-06
1.91838e-06
1.82308e-06
1.73e-06
1.63919e-06
1.55062e-06
1.46423e-06
1.37998e-06
1.29783e-06
1.21784e-06
1.13999e-06
1.06489e-06
9.90576e-07
2.55025e-06
2.86771e-06
3.3015e-06
3.73554e-06
4.0262e-06
4.16216e-06
4.19004e-06
4.15037e-06
4.06936e-06
3.96404e-06
3.84445e-06
3.716e-06
3.58175e-06
3.4437e-06
3.30338e-06
3.16212e-06
3.02117e-06
2.88166e-06
2.74455e-06
2.61062e-06
2.48046e-06
2.35447e-06
2.23286e-06
2.1157e-06
2.00294e-06
1.89443e-06
1.78998e-06
1.68938e-06
1.59246e-06
1.49912e-06
1.40932e-06
1.32354e-06
1.2404e-06
3.25537e-06
3.1744e-06
2.91745e-06
2.89247e-06
3.09673e-06
3.38252e-06
3.64358e-06
3.83266e-06
3.93964e-06
3.97593e-06
3.96109e-06
3.91427e-06
3.85089e-06
3.78191e-06
3.71417e-06
3.65125e-06
3.59447e-06
3.54373e-06
3.49819e-06
3.45672e-06
3.41814e-06
3.3814e-06
3.34556e-06
3.3099e-06
3.27382e-06
3.23684e-06
3.19863e-06
3.15892e-06
3.11764e-06
3.07493e-06
3.03109e-06
2.98805e-06
2.9433e-06
4.29393e-06
5.53613e-06
6.30704e-06
6.56568e-06
6.47512e-06
6.26731e-06
6.13123e-06
6.14926e-06
6.32761e-06
6.62799e-06
6.99771e-06
7.3903e-06
7.77194e-06
8.12089e-06
8.42507e-06
8.67928e-06
8.88289e-06
9.03799e-06
9.14822e-06
9.21793e-06
9.25171e-06
9.25401e-06
9.22899e-06
9.1804e-06
9.11151e-06
9.02508e-06
8.92345e-06
8.80835e-06
8.68143e-06
8.54338e-06
8.39623e-06
8.24104e-06
8.08053e-06
5.6218e-06
3.57496e-06
2.77431e-06
4.64671e-06
7.36601e-06
9.93177e-06
1.21099e-05
1.38367e-05
1.51249e-05
1.60166e-05
1.65596e-05
1.68026e-05
1.67939e-05
1.65789e-05
1.61988e-05
1.56903e-05
1.5085e-05
1.44098e-05
1.36873e-05
1.29357e-05
1.21696e-05
1.14005e-05
1.06371e-05
9.88594e-06
9.15159e-06
8.43696e-06
7.74371e-06
7.07186e-06
6.42138e-06
5.78841e-06
5.17561e-06
4.56892e-06
3.98899e-06
1.14345e-05
1.65182e-05
1.82861e-05
1.97964e-05
2.02649e-05
1.95146e-05
1.7768e-05
1.52996e-05
1.24645e-05
9.80133e-06
8.19372e-06
8.57079e-06
1.0677e-05
1.35515e-05
1.66046e-05
1.95787e-05
2.23632e-05
2.49121e-05
2.72105e-05
2.92596e-05
3.10697e-05
3.26554e-05
3.40336e-05
3.52219e-05
3.62377e-05
3.70977e-05
3.78179e-05
3.84134e-05
3.89e-05
3.92929e-05
3.96127e-05
3.98785e-05
4.01411e-05
2.48758e-05
2.86506e-05
3.8996e-05
5.34284e-05
6.76811e-05
8.15919e-05
9.44262e-05
0.00010558
0.000115006
0.000122784
0.000129019
0.000133868
0.0001375
0.000140079
0.000141758
0.000142676
0.000142954
0.0001427
0.000142007
0.000140952
0.000139605
0.000138021
0.000136247
0.000134324
0.000132285
0.000130155
0.000127959
0.000125711
0.000123429
0.000121115
0.000118788
0.000116454
0.000114331
0.000543312
0.000510566
0.000491588
0.000467892
0.000443863
0.00042152
0.000400022
0.000379437
0.000360031
0.000341824
0.0003248
0.000308946
0.000294216
0.000280549
0.000267872
0.000256113
0.000245196
0.000235046
0.000225596
0.000216777
0.000208531
0.000200802
0.000193539
0.000186698
0.000180237
0.000174121
0.000168313
0.000162788
0.000157498
0.00015245
0.000147471
0.000143133
0.000139116
7.68561e-05
7.14115e-05
6.96559e-05
7.34498e-05
8.20187e-05
9.13924e-05
9.70045e-05
9.3063e-05
7.20026e-05
5.93283e-05
5.69175e-05
5.20185e-05
4.55241e-05
3.94696e-05
3.44538e-05
3.03725e-05
2.66631e-05
2.26347e-05
1.78535e-05
1.26183e-05
7.36619e-06
1.01519e-05
1.85001e-05
1.55337e-05
8.63552e-06
1.67931e-05
1.48089e-05
1.66965e-05
2.49117e-05
2.70845e-05
2.45904e-05
2.14143e-05
1.90085e-05
1.7169e-05
1.55851e-05
1.41494e-05
1.28418e-05
1.16523e-05
1.05684e-05
9.57995e-06
8.67945e-06
7.86012e-06
7.11487e-06
6.4364e-06
5.81762e-06
5.2521e-06
4.73449e-06
4.26081e-06
3.82785e-06
3.43179e-06
3.0671e-06
2.72733e-06
2.4084e-06
2.11238e-06
1.84823e-06
1.62704e-06
1.45429e-06
1.32497e-06
1.22562e-06
1.14089e-06
1.05943e-06
9.76624e-07
8.94037e-07
8.16294e-07
7.47241e-07
6.87551e-07
6.34755e-07
5.85086e-07
5.35687e-07
4.85787e-07
4.36548e-07
3.89991e-07
3.47864e-07
3.10991e-07
2.79286e-07
2.52118e-07
2.28743e-07
2.08554e-07
1.91023e-07
1.75802e-07
1.63109e-07
1.52278e-07
1.4313e-07
1.35448e-07
1.29007e-07
1.23621e-07
1.19149e-07
1.15484e-07
1.12551e-07
1.10268e-07
1.08593e-07
1.07391e-07
1.06716e-07
1.0622e-07
1.06373e-07
1.06118e-07
1.07151e-07
1.06666e-07
1.08655e-07
1.06485e-07
9.95725e-05
9.26062e-05
8.64564e-05
8.42046e-05
8.64969e-05
9.21827e-05
9.89997e-05
0.000105
0.000102839
7.94704e-05
5.86918e-05
5.27649e-05
4.82216e-05
4.17359e-05
3.549e-05
3.04053e-05
2.60996e-05
2.18568e-05
1.74142e-05
1.32723e-05
1.27113e-05
1.87792e-05
1.83409e-05
5.95157e-06
1.43978e-05
1.59849e-05
1.30991e-05
2.24565e-05
2.79392e-05
2.6865e-05
2.35516e-05
2.0715e-05
1.86401e-05
1.69571e-05
1.54552e-05
1.40787e-05
1.28162e-05
1.16591e-05
1.05984e-05
9.62735e-06
8.73968e-06
7.929e-06
7.18862e-06
6.51184e-06
5.89229e-06
5.32416e-06
4.80264e-06
4.32415e-06
3.88586e-06
3.48439e-06
3.11454e-06
2.76995e-06
2.4463e-06
2.14544e-06
1.87647e-06
1.65125e-06
1.47626e-06
1.34685e-06
1.24889e-06
1.16574e-06
1.08486e-06
1.00108e-06
9.16125e-07
8.35231e-07
7.62991e-07
7.00626e-07
6.45864e-07
5.94825e-07
5.44375e-07
4.93474e-07
4.43137e-07
3.95371e-07
3.51999e-07
3.13938e-07
2.81163e-07
2.5307e-07
2.28891e-07
2.08013e-07
1.89996e-07
1.74694e-07
1.61362e-07
1.50172e-07
1.40749e-07
1.32849e-07
1.26245e-07
1.20738e-07
1.16159e-07
1.12367e-07
1.09251e-07
1.06707e-07
1.04684e-07
1.03064e-07
1.01904e-07
1.00916e-07
1.00532e-07
9.97801e-08
1.00324e-07
9.91768e-08
1.01095e-07
9.77886e-08
8.97608e-05
8.72842e-05
8.35746e-05
8.13063e-05
8.20057e-05
8.55327e-05
9.09438e-05
9.66772e-05
0.000102289
0.000100463
8.08313e-05
5.71847e-05
4.64268e-05
4.28365e-05
3.85962e-05
3.34583e-05
2.85413e-05
2.43096e-05
2.09286e-05
1.94072e-05
2.11507e-05
1.93761e-05
5.94588e-06
1.17815e-05
1.68987e-05
1.1092e-05
1.92783e-05
2.79924e-05
2.88904e-05
2.57539e-05
2.24718e-05
2.01026e-05
1.83139e-05
1.6763e-05
1.53344e-05
1.40117e-05
1.27915e-05
1.16669e-05
1.06314e-05
9.67929e-06
8.80519e-06
8.00333e-06
7.26779e-06
6.59268e-06
5.97237e-06
5.40166e-06
4.87622e-06
4.39283e-06
3.94906e-06
3.54194e-06
3.16663e-06
2.81683e-06
2.48803e-06
2.18177e-06
1.90725e-06
1.67716e-06
1.4991e-06
1.36901e-06
1.2722e-06
1.19069e-06
1.1106e-06
1.02603e-06
9.3874e-07
8.54599e-07
7.79026e-07
7.13891e-07
6.57198e-07
6.04998e-07
5.53881e-07
5.02528e-07
4.51772e-07
4.03584e-07
3.59832e-07
3.21503e-07
2.88607e-07
2.60526e-07
2.36453e-07
2.15728e-07
1.97841e-07
1.82563e-07
1.69288e-07
1.58207e-07
1.48876e-07
1.41063e-07
1.3456e-07
1.29172e-07
1.2473e-07
1.21087e-07
1.18123e-07
1.15725e-07
1.13824e-07
1.12309e-07
1.11199e-07
1.10277e-07
1.09819e-07
1.09176e-07
1.09372e-07
1.08652e-07
1.09557e-07
1.06903e-07
6.40505e-05
6.27003e-05
6.05843e-05
5.95188e-05
6.07524e-05
6.44966e-05
7.02276e-05
7.68064e-05
8.35191e-05
9.07021e-05
9.16835e-05
7.89416e-05
5.80469e-05
4.20613e-05
3.54347e-05
3.28139e-05
3.03215e-05
2.75592e-05
2.49056e-05
2.22537e-05
1.64341e-05
4.84446e-06
1.38406e-05
1.85543e-05
1.04119e-05
1.61295e-05
2.75484e-05
3.05102e-05
2.78699e-05
2.42498e-05
2.155e-05
1.96272e-05
1.80317e-05
1.65679e-05
1.52019e-05
1.39332e-05
1.27572e-05
1.16674e-05
1.06588e-05
9.72717e-06
8.86777e-06
8.07568e-06
7.3458e-06
6.67309e-06
6.05262e-06
5.47981e-06
4.95078e-06
4.46272e-06
4.01357e-06
3.60078e-06
3.21986e-06
2.86466e-06
2.53043e-06
2.21842e-06
1.93793e-06
1.70253e-06
1.52108e-06
1.39029e-06
1.29502e-06
1.21584e-06
1.13734e-06
1.05267e-06
9.63483e-07
8.76258e-07
7.97273e-07
7.29114e-07
6.70127e-07
6.16322e-07
5.64019e-07
5.11609e-07
4.59739e-07
4.10344e-07
3.65356e-07
3.25855e-07
2.91914e-07
2.62932e-07
2.38084e-07
2.1668e-07
1.98198e-07
1.82299e-07
1.68855e-07
1.57388e-07
1.47742e-07
1.39683e-07
1.32986e-07
1.2745e-07
1.229e-07
1.19183e-07
1.16174e-07
1.13754e-07
1.11849e-07
1.10341e-07
1.09247e-07
1.08343e-07
1.07909e-07
1.07276e-07
1.07501e-07
1.06727e-07
1.07773e-07
1.05093e-07
2.34692e-05
2.28513e-05
2.19683e-05
2.23027e-05
2.47019e-05
2.88782e-05
3.43236e-05
4.10598e-05
4.89847e-05
5.81864e-05
6.82705e-05
7.45009e-05
7.12688e-05
5.92755e-05
4.47546e-05
3.30662e-05
2.53946e-05
2.00423e-05
1.53631e-05
1.23136e-05
1.52915e-05
2.19672e-05
2.11754e-05
9.57062e-06
1.41613e-05
2.74123e-05
3.18399e-05
2.97442e-05
2.5937e-05
2.29342e-05
2.08635e-05
1.9226e-05
1.77439e-05
1.63539e-05
1.50542e-05
1.38422e-05
1.27118e-05
1.16583e-05
1.06784e-05
9.76867e-06
8.92518e-06
8.14391e-06
7.42067e-06
6.75122e-06
6.13136e-06
5.55707e-06
5.02496e-06
4.53261e-06
4.07834e-06
3.66002e-06
3.27355e-06
2.91292e-06
2.57319e-06
2.25528e-06
1.96856e-06
1.72741e-06
1.54209e-06
1.41025e-06
1.31646e-06
1.23987e-06
1.16337e-06
1.07899e-06
9.88184e-07
8.97958e-07
8.1551e-07
7.44234e-07
6.82902e-07
6.27542e-07
5.74236e-07
5.2108e-07
4.68522e-07
4.18436e-07
3.72801e-07
3.32774e-07
2.98473e-07
2.69298e-07
2.44389e-07
2.2301e-07
2.04603e-07
1.88811e-07
1.75339e-07
1.63855e-07
1.54259e-07
1.46234e-07
1.39571e-07
1.34074e-07
1.29573e-07
1.25912e-07
1.22964e-07
1.2061e-07
1.1877e-07
1.17332e-07
1.16295e-07
1.15466e-07
1.15049e-07
1.14535e-07
1.14644e-07
1.14205e-07
1.14772e-07
1.12739e-07
5.63838e-06
6.21085e-06
6.91345e-06
7.44332e-06
7.58265e-06
7.43044e-06
7.79775e-06
1.03693e-05
1.57553e-05
2.29351e-05
3.1496e-05
4.13897e-05
5.03976e-05
5.47849e-05
5.31646e-05
4.74494e-05
4.06658e-05
3.49461e-05
3.19073e-05
3.0966e-05
2.87778e-05
2.04004e-05
5.50756e-06
1.54142e-05
2.86123e-05
3.31006e-05
3.11884e-05
2.7327e-05
2.41541e-05
2.19825e-05
2.03189e-05
1.88336e-05
1.74371e-05
1.61246e-05
1.48943e-05
1.374e-05
1.26565e-05
1.1641e-05
1.06912e-05
9.80446e-06
8.97796e-06
8.20855e-06
7.49292e-06
6.8276e-06
6.20905e-06
5.63386e-06
5.09911e-06
4.60279e-06
4.1436e-06
3.71984e-06
3.32779e-06
2.96163e-06
2.61624e-06
2.29221e-06
1.99894e-06
1.75162e-06
1.56201e-06
1.42894e-06
1.3368e-06
1.26331e-06
1.18951e-06
1.1061e-06
1.01412e-06
9.21106e-07
8.35174e-07
7.60604e-07
6.96667e-07
6.39453e-07
5.84819e-07
5.30556e-07
4.76901e-07
4.25657e-07
3.78849e-07
3.37718e-07
3.02449e-07
2.72455e-07
2.46858e-07
2.24885e-07
2.05952e-07
1.89692e-07
1.75816e-07
1.64114e-07
1.5427e-07
1.46028e-07
1.39206e-07
1.3359e-07
1.28999e-07
1.25275e-07
1.22284e-07
1.19902e-07
1.18046e-07
1.16599e-07
1.15559e-07
1.14725e-07
1.14312e-07
1.13783e-07
1.13909e-07
1.13397e-07
1.14111e-07
1.11982e-07
9.34809e-06
9.83667e-06
1.01706e-05
9.97273e-06
8.98751e-06
7.12582e-06
4.43744e-06
2.4156e-06
5.72614e-06
1.08639e-05
1.56572e-05
1.92271e-05
2.23759e-05
2.65672e-05
3.08915e-05
3.33747e-05
3.33237e-05
3.12683e-05
2.74545e-05
2.03481e-05
8.80331e-06
6.74275e-06
2.17593e-05
3.15473e-05
3.42458e-05
3.1947e-05
2.81648e-05
2.50624e-05
2.29176e-05
2.1273e-05
1.98031e-05
1.84172e-05
1.71108e-05
1.5882e-05
1.47229e-05
1.36271e-05
1.25917e-05
1.16154e-05
1.06968e-05
9.8343e-06
9.02594e-06
8.26951e-06
7.5625e-06
6.90217e-06
6.28567e-06
5.71017e-06
5.17326e-06
4.67332e-06
4.20944e-06
3.78034e-06
3.38272e-06
3.01094e-06
2.65978e-06
2.32946e-06
2.02935e-06
1.77544e-06
1.58105e-06
1.44635e-06
1.35581e-06
1.28572e-06
1.21513e-06
1.1332e-06
1.04045e-06
9.44807e-07
8.55371e-07
7.77381e-07
7.10697e-07
6.51541e-07
5.95579e-07
5.40309e-07
4.85744e-07
4.33607e-07
3.85953e-07
3.44103e-07
3.08297e-07
2.77956e-07
2.52171e-07
2.30121e-07
2.11185e-07
1.94965e-07
1.81152e-07
1.69459e-07
1.59613e-07
1.51439e-07
1.44671e-07
1.39118e-07
1.34597e-07
1.30947e-07
1.28033e-07
1.25731e-07
1.23953e-07
1.22584e-07
1.21608e-07
1.20852e-07
1.20466e-07
1.20047e-07
1.20089e-07
1.19852e-07
1.20204e-07
1.18594e-07
5.63779e-06
5.89858e-06
6.04309e-06
5.85896e-06
5.24149e-06
4.28645e-06
3.48818e-06
3.86894e-06
5.89222e-06
9.30004e-06
1.37418e-05
1.82031e-05
2.11307e-05
2.15808e-05
2.00376e-05
1.77359e-05
1.54853e-05
1.34164e-05
1.24562e-05
1.56882e-05
2.29655e-05
3.03151e-05
3.44441e-05
3.44164e-05
3.16117e-05
2.82087e-05
2.55066e-05
2.35784e-05
2.20309e-05
2.06097e-05
1.92569e-05
1.79783e-05
1.67727e-05
1.56297e-05
1.45413e-05
1.35044e-05
1.2518e-05
1.15819e-05
1.06956e-05
9.85844e-06
9.06938e-06
8.32702e-06
7.62961e-06
6.97513e-06
6.36139e-06
5.78617e-06
5.24755e-06
4.74433e-06
4.27598e-06
3.84163e-06
3.43839e-06
3.06089e-06
2.70378e-06
2.36696e-06
2.05971e-06
1.79878e-06
1.5991e-06
1.46244e-06
1.3735e-06
1.30719e-06
1.24046e-06
1.16069e-06
1.06767e-06
9.69676e-07
8.76767e-07
7.95221e-07
7.25569e-07
6.64225e-07
6.06689e-07
5.50165e-07
4.94427e-07
4.411e-07
3.92265e-07
3.49322e-07
3.12572e-07
2.81454e-07
2.55038e-07
2.3246e-07
2.13069e-07
1.96444e-07
1.82278e-07
1.703e-07
1.60273e-07
1.51955e-07
1.45054e-07
1.3941e-07
1.34833e-07
1.31153e-07
1.28228e-07
1.25926e-07
1.24157e-07
1.22801e-07
1.21843e-07
1.21102e-07
1.20732e-07
1.20318e-07
1.20378e-07
1.20102e-07
1.20567e-07
1.18898e-07
3.70167e-06
3.81108e-06
3.83285e-06
3.65753e-06
3.29366e-06
2.99671e-06
3.32032e-06
4.55305e-06
6.42506e-06
8.7243e-06
1.15621e-05
1.51633e-05
1.92777e-05
2.30258e-05
2.55935e-05
2.6904e-05
2.75547e-05
2.84541e-05
3.01001e-05
3.22143e-05
3.38572e-05
3.40222e-05
3.24782e-05
2.99366e-05
2.74098e-05
2.54204e-05
2.38797e-05
2.25165e-05
2.1195e-05
1.99116e-05
1.86897e-05
1.75319e-05
1.64276e-05
1.53681e-05
1.43498e-05
1.33722e-05
1.24356e-05
1.15406e-05
1.06877e-05
9.87708e-06
9.10846e-06
8.38124e-06
7.6944e-06
7.04662e-06
6.43637e-06
5.86202e-06
5.32215e-06
4.816e-06
4.3434e-06
3.90388e-06
3.495e-06
3.11166e-06
2.74844e-06
2.40491e-06
2.09023e-06
1.82185e-06
1.61637e-06
1.47729e-06
1.38982e-06
1.32756e-06
1.26523e-06
1.18824e-06
1.09544e-06
9.95342e-07
8.9899e-07
8.13764e-07
7.40964e-07
6.77269e-07
6.18059e-07
5.60258e-07
5.03398e-07
4.48997e-07
3.99152e-07
3.55334e-07
3.17907e-07
2.86321e-07
2.59619e-07
2.36885e-07
2.17432e-07
2.00806e-07
1.86682e-07
1.74773e-07
1.64807e-07
1.56521e-07
1.49719e-07
1.44188e-07
1.39716e-07
1.36143e-07
1.33326e-07
1.31132e-07
1.29465e-07
1.2821e-07
1.27335e-07
1.26686e-07
1.26361e-07
1.2606e-07
1.26069e-07
1.26038e-07
1.26219e-07
1.24976e-07
2.80768e-06
2.80167e-06
2.71218e-06
2.48833e-06
2.20227e-06
2.18782e-06
2.89113e-06
4.29124e-06
6.13043e-06
8.21327e-06
1.04273e-05
1.28114e-05
1.55358e-05
1.86352e-05
2.18129e-05
2.46485e-05
2.68883e-05
2.85391e-05
2.96491e-05
3.01162e-05
2.978e-05
2.8738e-05
2.73571e-05
2.6013e-05
2.48404e-05
2.37536e-05
2.26421e-05
2.14861e-05
2.03273e-05
1.92032e-05
1.81236e-05
1.70831e-05
1.60754e-05
1.50975e-05
1.41492e-05
1.32313e-05
1.23451e-05
1.14921e-05
1.06736e-05
9.89057e-06
9.1435e-06
8.43245e-06
7.75713e-06
7.1169e-06
6.51085e-06
5.93796e-06
5.39731e-06
4.88854e-06
4.41189e-06
3.96729e-06
3.55271e-06
3.16337e-06
2.79384e-06
2.44338e-06
2.12096e-06
1.8447e-06
1.63286e-06
1.4909e-06
1.40474e-06
1.34682e-06
1.28948e-06
1.21596e-06
1.12395e-06
1.02208e-06
9.22354e-07
8.33336e-07
7.57173e-07
6.90884e-07
6.29767e-07
5.70475e-07
5.1229e-07
4.56605e-07
4.05518e-07
3.6057e-07
3.22184e-07
2.8983e-07
2.62522e-07
2.39304e-07
2.19446e-07
2.02472e-07
1.88047e-07
1.75889e-07
1.65739e-07
1.5734e-07
1.50471e-07
1.44874e-07
1.40374e-07
1.36798e-07
1.33997e-07
1.31831e-07
1.30198e-07
1.2898e-07
1.28144e-07
1.27529e-07
1.27239e-07
1.2696e-07
1.26999e-07
1.26946e-07
1.2724e-07
1.25954e-07
2.13894e-06
2.0559e-06
1.89271e-06
1.63309e-06
1.4145e-06
1.65726e-06
2.57775e-06
3.96378e-06
5.6429e-06
7.51424e-06
9.49114e-06
1.14979e-05
1.35148e-05
1.55873e-05
1.77353e-05
1.98551e-05
2.17611e-05
2.32566e-05
2.42581e-05
2.47551e-05
2.48452e-05
2.46665e-05
2.43133e-05
2.38106e-05
2.3149e-05
2.23367e-05
2.14178e-05
2.04496e-05
1.94738e-05
1.85096e-05
1.75619e-05
1.66309e-05
1.57164e-05
1.4819e-05
1.39403e-05
1.30822e-05
1.2247e-05
1.14368e-05
1.06537e-05
9.89931e-06
9.17482e-06
8.48098e-06
7.81812e-06
7.18627e-06
6.58514e-06
6.01428e-06
5.4733e-06
4.96225e-06
4.48175e-06
4.03211e-06
3.61178e-06
3.21628e-06
2.84023e-06
2.48258e-06
2.15213e-06
1.86754e-06
1.64878e-06
1.5034e-06
1.41831e-06
1.3649e-06
1.3131e-06
1.24371e-06
1.15306e-06
1.04975e-06
9.46751e-07
8.53837e-07
7.74114e-07
7.05022e-07
6.41833e-07
5.80954e-07
5.21416e-07
4.64479e-07
4.12236e-07
3.66286e-07
3.27113e-07
2.94201e-07
2.66538e-07
2.43114e-07
2.23158e-07
2.06161e-07
1.9177e-07
1.7969e-07
1.69646e-07
1.61373e-07
1.54622e-07
1.49157e-07
1.44818e-07
1.41407e-07
1.38761e-07
1.3674e-07
1.35247e-07
1.34157e-07
1.33431e-07
1.32927e-07
1.32704e-07
1.32545e-07
1.32563e-07
1.3274e-07
1.32801e-07
1.31871e-07
1.59011e-06
1.4525e-06
1.23574e-06
9.57896e-07
8.7238e-07
1.39714e-06
2.40173e-06
3.69671e-06
5.19912e-06
6.85253e-06
8.60429e-06
1.03988e-05
1.21812e-05
1.39148e-05
1.55856e-05
1.71774e-05
1.86418e-05
1.9904e-05
2.0916e-05
2.16721e-05
2.21638e-05
2.2383e-05
2.23387e-05
2.20576e-05
2.15803e-05
2.09567e-05
2.02363e-05
1.94587e-05
1.8651e-05
1.78291e-05
1.70023e-05
1.61755e-05
1.53518e-05
1.45338e-05
1.37241e-05
1.29259e-05
1.21419e-05
1.13753e-05
1.06285e-05
9.90376e-06
9.20289e-06
8.52723e-06
7.87777e-06
7.25512e-06