/*--------------------------------*- C++ -*----------------------------------*\
  =========                 |
  \\      /  F ield         | OpenFOAM: The Open Source CFD Toolbox
   \\    /   O peration     | Website:  https://openfoam.org
    \\  /    A nd           | Version:  10
     \\/     M anipulation  |
\*---------------------------------------------------------------------------*/
FoamFile
{
    format      ascii;
    class       volScalarField;
    location    "0.045";
    object      p;
}
// * * * * * * * * * * * * * * * * * * * * * * * * * * * * * * * * * * * * * //

dimensions      [0 2 -2 0 0 0 0];

internalField   nonuniform List<scalar> 
6820
(
7.69996
-6.63033
-8.62703
-8.80512
-8.95671
-8.89171
-8.85324
-8.86467
-8.89939
-8.94754
-9.00264
-9.06096
-9.12089
-9.18165
-9.24283
-9.30423
-9.36571
-9.42719
-9.48866
-9.55012
-9.61164
-9.67331
-9.73529
-9.79776
-9.86094
-9.92507
-9.99058
-10.0575
-10.1272
-10.1968
-10.2759
-10.3374
-10.4578
2.32224
-6.42767
-8.43221
-8.68377
-8.88731
-8.88587
-8.8687
-8.88651
-8.92139
-8.96674
-9.01864
-9.07412
-9.13171
-9.19065
-9.25048
-9.31088
-9.37162
-9.43257
-9.49365
-9.55482
-9.61611
-9.67761
-9.73944
-9.80177
-9.86482
-9.92884
-9.99421
-10.0609
-10.1299
-10.2006
-10.279
-10.3535
-10.4791
0.242265
-5.21554
-7.63898
-8.22877
-8.6073
-8.74871
-8.7936
-8.83847
-8.88919
-8.94439
-9.00322
-9.06394
-9.12546
-9.18722
-9.24897
-9.31063
-9.37216
-9.43353
-9.49477
-9.55591
-9.61702
-9.67821
-9.73961
-9.8014
-9.86378
-9.92698
-9.99134
-10.0569
-10.1248
-10.1941
-10.2693
-10.3407
-10.4331
-1.32492
-5.03213
-7.34181
-7.99003
-8.37002
-8.57477
-8.66997
-8.74691
-8.82069
-8.89101
-8.95957
-9.02701
-9.09358
-9.15944
-9.22462
-9.28915
-9.35307
-9.41646
-9.47936
-9.54185
-9.60401
-9.66595
-9.7278
-9.7897
-9.85183
-9.91439
-9.97761
-10.0416
-10.107
-10.1735
-10.2433
-10.3127
-10.3925
-2.60948
-5.07563
-7.03371
-7.71532
-8.12381
-8.39461
-8.54395
-8.65173
-8.74533
-8.82912
-8.90723
-8.98204
-9.0542
-9.12426
-9.19281
-9.26009
-9.32623
-9.39137
-9.4556
-9.51905
-9.5818
-9.64396
-9.70565
-9.76697
-9.82803
-9.88894
-9.94981
-10.0106
-10.0717
-10.1326
-10.1943
-10.2545
-10.3172
-3.56627
-5.19772
-6.84861
-7.56132
-7.97939
-8.27249
-8.44799
-8.57239
-8.67817
-8.77162
-8.85698
-8.93738
-9.01421
-9.08819
-9.15983
-9.22956
-9.29767
-9.36437
-9.42982
-9.49413
-9.55742
-9.61976
-9.68122
-9.74185
-9.80169
-9.8607
-9.91886
-9.97598
-10.032
-10.0863
-10.1389
-10.1882
-10.2359
-4.31084
-5.40869
-6.75979
-7.4429
-7.84746
-8.14931
-8.34902
-8.49294
-8.6129
-8.71705
-8.81025
-8.89647
-8.97775
-9.05516
-9.12953
-9.20148
-9.27138
-9.3395
-9.40601
-9.47106
-9.53474
-9.59712
-9.65825
-9.71813
-9.77671
-9.83389
-9.8895
-9.94322
-9.99467
-10.0431
-10.0878
-10.1271
-10.1597
-4.8937
-5.63734
-6.72064
-7.35721
-7.75054
-8.0548
-8.26935
-8.42598
-8.55503
-8.66651
-8.76556
-8.85644
-8.94154
-9.02217
-9.09924
-9.17343
-9.24515
-9.3147
-9.3823
-9.44811
-9.51223
-9.57471
-9.63558
-9.6948
-9.75226
-9.80778
-9.86109
-9.91173
-9.95912
-10.0023
-10.0401
-10.0706
-10.0911
-5.35583
-5.86778
-6.72908
-7.30627
-7.67937
-7.97465
-8.1947
-8.36011
-8.49696
-8.61546
-8.72051
-8.81629
-8.9054
-8.98932
-9.06909
-9.14545
-9.21893
-9.28988
-9.35853
-9.42507
-9.48961
-9.55218
-9.61279
-9.67137
-9.72777
-9.78175
-9.83294
-9.88083
-9.92467
-9.96342
-9.99563
-10.0193
-10.0313
-5.72704
-6.08594
-6.76586
-7.27724
-7.62647
-7.90978
-8.13128
-8.3028
-8.44541
-8.56913
-8.67879
-8.77843
-8.87079
-8.95746
-9.03956
-9.11788
-9.19298
-9.26522
-9.33488
-9.40213
-9.46707
-9.52976
-9.59017
-9.64821
-9.7037
-9.75636
-9.80579
-9.85141
-9.89242
-9.92775
-9.95589
-9.97501
-9.98204
-6.02856
-6.28546
-6.8214
-7.26792
-7.59109
-7.85916
-8.07692
-8.25056
-8.39648
-8.52392
-8.63739
-8.74054
-8.836
-8.92539
-9.00983
-9.09012
-9.16685
-9.24042
-9.31109
-9.37907
-9.44447
-9.50733
-9.56762
-9.62524
-9.68001
-9.73162
-9.77965
-9.82353
-9.86247
-9.89547
-9.92111
-9.93785
-9.94306
-6.27593
-6.46401
-6.88714
-7.27253
-7.56821
-7.81944
-8.03062
-8.20417
-8.35205
-8.48223
-8.59872
-8.70478
-8.80286
-8.89459
-8.98107
-9.06312
-9.14132
-9.21608
-9.28771
-9.35639
-9.42224
-9.4853
-9.54556
-9.6029
-9.65714
-9.70799
-9.75505
-9.79779
-9.83547
-9.86723
-9.89188
-9.90819
-9.91414
-6.48043
-6.62131
-6.95696
-7.2873
-7.55567
-7.78957
-7.99214
-8.16333
-8.31143
-8.44298
-8.56152
-8.66983
-8.77014
-8.86396
-8.95233
-9.03606
-9.1157
-9.19168
-9.26427
-9.3337
-9.40006
-9.46343
-9.52378
-9.58103
-9.63499
-9.68542
-9.73196
-9.77414
-9.81137
-9.84291
-9.86785
-9.88537
-9.89406
-6.65036
-6.7583
-7.02653
-7.30866
-7.55066
-7.76726
-7.95999
-8.12727
-8.27442
-8.40653
-8.52649
-8.63662
-8.73883
-8.83449
-8.92458
-9.00984
-9.09082
-9.16793
-9.24145
-9.3116
-9.37851
-9.44224
-9.50278
-9.56008
-9.61399
-9.66431
-9.71074
-9.75292
-9.79038
-9.82259
-9.84895
-9.86884
-9.88153
-6.79188
-6.87639
-7.09279
-7.33366
-7.55104
-7.75099
-7.9334
-8.0957
-8.24091
-8.37271
-8.49339
-8.60478
-8.70849
-8.8057
-8.89731
-8.98397
-9.06622
-9.14442
-9.21888
-9.2898
-9.35731
-9.4215
-9.48238
-9.53993
-9.59404
-9.64457
-9.6913
-9.73398
-9.77228
-9.80589
-9.83442
-9.85761
-9.87513
-6.90956
-6.9771
-7.1537
-7.35989
-7.55481
-7.73909
-7.91115
-8.06783
-8.21039
-8.3413
-8.4622
-8.57449
-8.67943
-8.77801
-8.87099
-8.95896
-9.0424
-9.12167
-9.19705
-9.26873
-9.33689
-9.4016
-9.46293
-9.52086
-9.57537
-9.62636
-9.67371
-9.71728
-9.75688
-9.79238
-9.82363
-9.85061
-9.87332
-7.00685
-7.0619
-7.20792
-7.38535
-7.56027
-7.73013
-7.89225
-8.04306
-8.18255
-8.31214
-8.43287
-8.54571
-8.65161
-8.75134
-8.84554
-8.93471
-9.01928
-9.09958
-9.17587
-9.24836
-9.31721
-9.38254
-9.44443
-9.50292
-9.55803
-9.60972
-9.65798
-9.70276
-9.74403
-9.78178
-9.81606
-9.84704
-9.87497
-7.08632
-7.13205
-7.25457
-7.40845
-7.56592
-7.7228
-7.87565
-8.02063
-8.15687
-8.28488
-8.40518
-8.51835
-8.62501
-8.72576
-8.82107
-8.91138
-8.99702
-9.07832
-9.15551
-9.22881
-9.29838
-9.36438
-9.4269
-9.48603
-9.54185
-9.5944
-9.64373
-9.68989
-9.73298
-9.77311
-9.81048
-9.84538
-9.87825
-7.1499
-7.18861
-7.29306
-7.42789
-7.57043
-7.71591
-7.86037
-7.99988
-8.1329
-8.25927
-8.37904
-8.49241
-8.59975
-8.70142
-8.79779
-8.88918
-8.97589
-9.05818
-9.1363
-9.21044
-9.28079
-9.34752
-9.41077
-9.47066
-9.52731
-9.58084
-9.63138
-9.67905
-9.72405
-9.76658
-9.80695
-9.84553
-9.88286
-7.19898
-7.23238
-7.323
-7.44261
-7.57267
-7.70836
-7.84548
-7.98005
-8.1101
-8.23491
-8.35413
-8.46767
-8.57561
-8.67814
-8.77551
-8.86793
-8.95565
-9.0389
-9.11791
-9.19287
-9.26399
-9.33144
-9.39541
-9.45606
-9.51355
-9.56806
-9.61978
-9.66892
-9.71571
-9.76047
-9.80355
-9.84538
-9.88654
-7.23454
-7.26395
-7.34404
-7.45171
-7.57162
-7.69917
-7.83013
-7.9605
-8.08803
-8.21157
-8.33043
-8.44425
-8.55288
-8.65636
-8.75478
-8.8483
-8.9371
-9.02137
-9.10133
-9.17717
-9.24911
-9.31735
-9.3821
-9.44355
-9.50192
-9.55744
-9.61033
-9.66086
-9.70934
-9.7561
-9.80154
-9.8461
-9.89037
-7.25719
-7.28363
-7.35586
-7.4544
-7.56633
-7.68741
-7.81345
-7.94048
-8.06604
-8.18867
-8.30739
-8.42161
-8.531
-8.63543
-8.7349
-8.82948
-8.9193
-9.00453
-9.08537
-9.16202
-9.2347
-9.30364
-9.36907
-9.43122
-9.49035
-9.54671
-9.60059
-9.65228
-9.70212
-9.75048
-9.79778
-9.84447
-9.8911
-7.26723
-7.29154
-7.3581
-7.44996
-7.55597
-7.67229
-7.79479
-7.91955
-8.04395
-8.16631
-8.2854
-8.40043
-8.51091
-8.61658
-8.71733
-8.81316
-8.90417
-8.9905
-9.07234
-9.14988
-9.22337
-9.29306
-9.35919
-9.42204
-9.48188
-9.53901
-9.59374
-9.6464
-9.69734
-9.74693
-9.79561
-9.84377
-9.89195
-7.26465
-7.28753
-7.35027
-7.43762
-7.53966
-7.65286
-7.77318
-7.89672
-8.02074
-8.14336
-8.2632
-8.37929
-8.491
-8.59796
-8.7
-8.79706
-8.88919
-8.97652
-9.05923
-9.13754
-9.21169
-9.28196
-9.3486
-9.41193
-9.47225
-9.52987
-9.58513
-9.63837
-9.68996
-9.74028
-9.78974
-9.83874
-9.88776
-7.24916
-7.27121
-7.3318
-7.41668
-7.51674
-7.62865
-7.74846
-7.87223
-7.99712
-8.12109
-8.24258
-8.36049
-8.47408
-8.58288
-8.68664
-8.78527
-8.87881
-8.96736
-9.05111
-9.1303
-9.20518
-9.27603
-9.34318
-9.40692
-9.4676
-9.52555
-9.58111
-9.63466
-9.68654
-9.73713
-9.78682
-9.83598
-9.88501
-7.2201
-7.24189
-7.30184
-7.38611
-7.48598
-7.59824
-7.71891
-7.84401
-7.9706
-8.09652
-8.2201
-8.34012
-8.45575
-8.56647
-8.67198
-8.77216
-8.86702
-8.95669
-9.04134
-9.12123
-9.19663
-9.26786
-9.33524
-9.39911
-9.45982
-9.51773
-9.57319
-9.62658
-9.67825
-9.72857
-9.77792
-9.82665
-9.87514
-7.1765
-7.19864
-7.25955
-7.34536
-7.44734
-7.56227
-7.68609
-7.81465
-7.94487
-8.07442
-8.20152
-8.32485
-8.44352
-8.55695
-8.66482
-8.76702
-8.86356
-8.95457
-9.04028
-9.12095
-9.19689
-9.26844
-9.33596
-9.39981
-9.46036
-9.51798
-9.57304
-9.62591
-9.67695
-9.72651
-9.77492
-9.82251
-9.86959
-7.1169
-7.1399
-7.20322
-7.29229
-7.39799
-7.517
-7.64513
-7.77808
-7.91263
-8.04637
-8.17743
-8.3044
-8.42635
-8.54268
-8.65304
-8.75731
-8.85552
-8.94784
-9.0345
-9.1158
-9.19209
-9.26372
-9.33109
-9.39459
-9.45461
-9.51154
-9.56576
-9.61764
-9.66755
-9.71584
-9.76284
-9.80887
-9.85425
-7.03946
-7.06421
-7.13227
-7.2278
-7.34082
-7.46768
-7.60379
-7.74447
-7.88626
-8.02661
-8.16357
-8.29571
-8.4221
-8.54215
-8.65559
-8.76232
-8.86245
-8.95618
-9.0438
-9.12567
-9.20216
-9.2737
-9.34069
-9.40357
-9.46274
-9.51861
-9.57158
-9.62202
-9.6703
-9.71674
-9.76167
-9.80535
-9.84803
-6.94126
-6.9681
-7.04208
-7.14523
-7.26633
-7.40159
-7.54622
-7.69521
-7.8449
-7.99261
-8.13626
-8.27434
-8.40588
-8.5303
-8.64733
-8.75693
-8.85925
-8.95456
-9.04319
-9.12558
-9.20216
-9.27339
-9.33974
-9.40167
-9.45963
-9.51405
-9.56535
-9.61393
-9.66015
-9.70436
-9.74689
-9.78804
-9.82808
-6.81944
-6.85076
-6.93605
-7.05378
-7.19025
-7.34085
-7.49998
-7.66206
-7.82326
-7.98091
-8.13299
-8.27811
-8.41543
-8.54451
-8.6652
-8.77758
-8.88189
-8.97849
-9.06782
-9.15037
-9.22664
-9.29714
-9.3624
-9.42291
-9.47915
-9.53157
-9.58062
-9.62669
-9.67016
-9.71138
-9.75065
-9.78823
-9.82435
-6.6674
-6.70164
-6.79698
-6.92734
-7.07727
-7.2424
-7.41656
-7.59329
-7.76822
-7.93835
-8.10146
-8.25606
-8.4013
-8.53682
-8.66257
-8.77877
-8.88581
-8.98419
-9.07447
-9.15725
-9.23315
-9.30278
-9.36672
-9.42553
-9.47975
-9.52986
-9.57635
-9.61964
-9.66013
-9.6982
-9.73418
-9.76842
-9.80115
-6.48304
-6.53017
-6.65261
-6.81328
-6.99111
-7.18121
-7.37701
-7.57193
-7.76206
-7.94482
-8.11833
-8.2814
-8.43344
-8.57429
-8.70408
-8.82318
-8.9321
-9.03146
-9.12193
-9.20421
-9.27899
-9.34695
-9.40876
-9.46502
-9.51631
-9.56317
-9.60609
-9.64553
-9.6819
-9.71558
-9.74692
-9.7762
-9.80368
-6.24467
-6.2909
-6.42709
-6.60815
-6.8108
-7.02954
-7.25448
-7.47659
-7.69104
-7.89485
-8.08595
-8.26326
-8.42654
-8.57596
-8.71204
-8.83552
-8.94723
-9.04808
-9.13897
-9.22081
-9.29445
-9.3607
-9.42032
-9.47399
-9.52236
-9.56601
-9.60546
-9.6412
-9.67368
-9.70332
-9.73051
-9.75566
-9.77909
-5.97044
-6.06444
-6.26863
-6.50308
-6.74331
-6.99198
-7.24119
-7.48296
-7.71395
-7.93189
-8.13496
-8.32228
-8.49369
-8.64945
-8.79018
-8.91671
-9.03002
-9.13118
-9.22124
-9.30127
-9.37227
-9.43518
-9.49086
-9.54012
-9.58365
-9.62211
-9.65606
-9.68601
-9.71243
-9.73575
-9.75638
-9.77471
-9.79115
-5.55023
-5.61826
-5.85314
-6.14479
-6.45241
-6.76903
-7.07798
-7.36938
-7.64056
-7.88988
-8.11663
-8.32137
-8.50523
-8.66959
-8.81594
-8.94584
-9.0608
-9.1623
-9.25169
-9.33026
-9.39918
-9.45952
-9.51224
-9.55818
-9.59811
-9.63268
-9.66247
-9.68799
-9.70968
-9.72802
-9.74343
-9.7565
-9.7678
-5.1887
-5.44131
-5.79747
-6.11611
-6.43564
-6.77057
-7.0975
-7.40763
-7.69919
-7.96865
-8.21368
-8.434
-8.63024
-8.80359
-8.95567
-9.08834
-9.20351
-9.30306
-9.38877
-9.46229
-9.52511
-9.57858
-9.62387
-9.66199
-9.69384
-9.72014
-9.7415
-9.7584
-9.7712
-9.78026
-9.78576
-9.78836
-9.78817
-4.13725
-4.40321
-5.01358
-5.55903
-6.05985
-6.53488
-6.95966
-7.33664
-7.6733
-7.9724
-8.23695
-8.47036
-8.67556
-8.85519
-9.01171
-9.14738
-9.26433
-9.36456
-9.44995
-9.52222
-9.58297
-9.63361
-9.67541
-9.70947
-9.73673
-9.75796
-9.77375
-9.78453
-9.79045
-9.79168
-9.78759
-9.77934
-9.76312
-4.18949
-4.74949
-5.19124
-5.55569
-6.03162
-6.52642
-6.98988
-7.42468
-7.82226
-8.17431
-8.48068
-8.744
-8.96757
-9.15537
-9.31167
-9.44064
-9.54614
-9.63165
-9.70026
-9.75462
-9.79704
-9.82947
-9.85356
-9.87069
-9.88199
-9.88836
-9.89046
-9.88864
-9.8828
-9.87228
-9.85482
-9.82836
-9.7815
0.749137
-2.94256
-4.26772
-4.93726
-5.73516
-6.41102
-6.9532
-7.42772
-7.84196
-8.19727
-8.50134
-8.7602
-8.97872
-9.1618
-9.31404
-9.43964
-9.54237
-9.62561
-9.69234
-9.74513
-9.78621
-9.81748
-9.84058
-9.85686
-9.86752
-9.8735
-9.87568
-9.87457
-9.87112
-9.86486
-9.8581
-9.84668
-9.83984
-10.345
-11.0674
-11.8694
-11.9109
-10.6882
-8.36994
-5.55346
-3.15111
-1.97152
-2.3421
-4.19979
-7.46828
-11.8138
-16.8119
-22.0797
-27.3349
-32.3574
-36.8997
-40.6359
-43.1995
-44.3171
-43.8882
-42.1287
-39.4326
-36.1025
-32.2862
-28.1206
-23.8515
-19.7691
-16.0631
-12.7889
-9.93735
-7.48591
-5.40977
-3.67906
-2.25853
-1.11021
-0.196196
0.519424
1.06943
1.48291
1.78509
1.99745
2.13808
2.22197
2.26151
2.26684
2.2462
2.20629
2.15251
2.08917
2.01974
1.94699
1.87313
1.79989
1.72854
1.65994
1.59454
1.53251
1.47379
1.41824
1.36564
1.31577
1.26839
1.22328
1.18019
1.1389
1.09919
1.06086
1.02373
0.987647
0.952476
0.918088
0.884365
0.851198
0.818491
0.786149
0.754082
0.722217
0.690485
0.65882
0.627165
0.595465
0.563674
0.53175
0.499655
0.467353
0.434818
0.402014
0.368931
0.335518
0.301813
0.267673
0.233346
0.198247
0.163563
0.126743
0.0930845
0.0515409
0.0251327
-10.5187
-11.0728
-11.7067
-11.5988
-10.3381
-8.08669
-5.44176
-3.23994
-2.09768
-2.34613
-4.22399
-7.36808
-11.4433
-16.1337
-21.1037
-26.0686
-30.7944
-35.0354
-38.4985
-40.8636
-41.9229
-41.6292
-40.1678
-37.7953
-34.6941
-31.0114
-26.973
-22.8992
-19.0677
-15.6065
-12.5344
-9.83716
-7.49937
-5.50399
-3.82767
-2.44082
-1.3104
-0.402685
0.314828
0.872256
1.29665
1.61174
1.83795
1.99262
2.09026
2.14296
2.16065
2.15152
2.12221
2.07813
2.02362
1.96218
1.89661
1.8292
1.7617
1.69544
1.63134
1.56991
1.51135
1.45568
1.40276
1.35245
1.30455
1.25887
1.21521
1.17338
1.13316
1.09437
1.05683
1.02037
0.984854
0.950164
0.91618
0.882798
0.849916
0.817447
0.785301
0.753398
0.721669
0.690052
0.658474
0.626889
0.595247
0.563503
0.531615
0.499548
0.467268
0.434748
0.401955
0.36888
0.335471
0.301769
0.267626
0.233303
0.198193
0.163523
0.126675
0.0930625
0.0514553
0.0251517
-10.5066
-10.9593
-11.4002
-11.1846
-9.97847
-7.92274
-5.52038
-3.50141
-2.49522
-2.84174
-4.56576
-7.53435
-11.3703
-15.7164
-20.3106
-24.9153
-29.2996
-33.2212
-36.4088
-38.5943
-39.6318
-39.4972
-38.2897
-36.136
-33.1686
-29.5948
-25.7343
-21.924
-18.3775
-15.1635
-12.2849
-9.73447
-7.50631
-5.59045
-3.96888
-2.61682
-1.50573
-0.605816
0.112201
0.675843
1.11016
1.4374
1.67689
1.8452
1.95635
2.02206
2.05208
2.05448
2.03584
2.00156
1.956
1.90269
1.84446
1.78363
1.72201
1.66099
1.60153
1.54418
1.48922
1.43669
1.38653
1.33859
1.29275
1.24884
1.20671
1.16619
1.12711
1.08929
1.05258
1.01683
0.981925
0.947751
0.914204
0.881191
0.84862
0.81641
0.784481
0.752759
0.721178
0.689683
0.658202
0.626695
0.595118
0.563424
0.531576
0.499539
0.467282
0.434779
0.401999
0.368932
0.335526
0.301829
0.267683
0.233363
0.198242
0.163584
0.126709
0.0931373
0.051469
0.0252529
-10.4902
-10.7933
-11.0248
-10.7155
-9.61638
-7.84832
-5.82826
-4.14207
-3.29234
-3.62893
-5.2496
-7.97401
-11.5143
-15.5437
-19.7694
-23.9767
-27.9744
-31.5502
-34.4702
-36.5178
-37.5628
-37.5445
-36.4592
-34.377
-31.4783
-28.0596
-24.4669
-20.9742
-17.717
-14.7355
-12.0374
-9.6269
-7.50573
-5.66877
-4.10235
-2.78614
-1.69577
-0.805118
-0.0880007
0.480616
0.923831
1.26239
1.51455
1.69607
1.82042
1.89898
1.94125
1.95516
1.94724
1.92285
1.88635
1.84129
1.79054
1.73643
1.68084
1.62519
1.57049
1.51737
1.46613
1.41687
1.36955
1.3241
1.2804
1.23834
1.19781
1.15867
1.12076
1.08395
1.04811
1.0131
0.978819
0.945176
0.912079
0.879443
0.84719
0.815245
0.783536
0.751997
0.720567
0.689194
0.657817
0.626394
0.594882
0.563241
0.531435
0.499431
0.467199
0.434715
0.401947
0.36889
0.33549
0.301796
0.267649
0.233333
0.198203
0.163557
0.126658
0.0931235
0.0514043
0.0252686
-10.39
-10.55
-10.616
-10.2756
-9.35785
-7.95664
-6.37583
-5.04611
-4.38958
-4.70976
-6.14256
-8.6002
-11.825
-15.5171
-19.4071
-23.2691
-26.9141
-30.1595
-32.8355
-34.758
-35.7364
-35.655
-34.5105
-32.4263
-29.6475
-26.4878
-23.2327
-20.0682
-17.0842
-14.3186
-11.7911
-9.51524
-7.49839
-5.73927
-4.22812
-2.94863
-1.88025
-1.00027
-0.28542
0.28694
0.738002
1.08704
1.3512
1.54545
1.68268
1.77388
1.82829
1.85369
1.85651
1.84207
1.81472
1.77802
1.73486
1.68762
1.63818
1.58804
1.53824
1.48946
1.44206
1.39618
1.35182
1.30893
1.26747
1.22734
1.18848
1.15076
1.11409
1.07835
1.04341
1.00918
0.975561
0.942483
0.909864
0.877633
0.84572
0.814061
0.782591
0.751251
0.719985
0.688747
0.657481
0.626147
0.594706
0.563123
0.531362
0.499394
0.467189
0.434725
0.401972
0.368925
0.335531
0.301842
0.267694
0.233381
0.198243
0.163607
0.126686
0.0931837
0.0514162
0.0253473
-10.2843
-10.3481
-10.3116
-9.97705
-9.23564
-8.15954
-6.98205
-6.02591
-5.59895
-5.93495
-7.16612
-9.28532
-12.1385
-15.4787
-19.0413
-22.5944
-25.9437
-28.9155
-31.338
-33.0098
-33.7596
-33.5098
-32.3069
-30.3178
-27.7892
-24.9739
-22.0715
-19.2132
-16.4776
-13.9116
-11.5456
-9.39949
-7.48432
-5.80194
-4.34608
-3.10406
-2.05886
-1.1909
-0.479664
0.0952027
0.553043
0.911681
1.18715
1.39361
1.54335
1.64693
1.71335
1.75017
1.76372
1.75928
1.74116
1.71292
1.67747
1.63721
1.59406
1.54954
1.50477
1.46046
1.41702
1.37463
1.33333
1.29312
1.25397
1.21586
1.17872
1.14251
1.10712
1.07248
1.03848
1.00506
0.972129
0.939634
0.907509
0.875694
0.844132
0.812766
0.78154
0.750404
0.719306
0.688205
0.657053
0.625812
0.594446
0.562923
0.53121
0.499279
0.467103
0.434661
0.401924
0.368889
0.335502
0.301818
0.26767
0.233361
0.198215
0.163589
0.126649
0.0931751
0.0513681
0.0253589
-10.1839
-10.1886
-10.0976
-9.78818
-9.19367
-8.37425
-7.50722
-6.83446
-6.59462
-6.9749
-8.07908
-9.90941
-12.3712
-15.2952
-18.4701
-21.6767
-24.7092
-27.3757
-29.4741
-30.8535
-31.4097
-31.0983
-29.99
-28.2415
-26.0427
-23.5759
-20.9915
-18.4035
-15.8927
-13.5133
-11.3013
-9.28029
-7.46395
-5.85698
-4.45625
-3.25233
-2.23137
-1.37671
-0.670386
-0.0942336
0.369308
0.736641
1.0227
1.2408
1.40264
1.51834
1.59658
1.64473
1.669
1.67457
1.66574
1.64605
1.61841
1.58524
1.54849
1.50973
1.4701
1.43038
1.39101
1.35222
1.31409
1.27664
1.2399
1.20387
1.16854
1.13388
1.09983
1.06633
1.03333
1.00075
0.968539
0.936657
0.905052
0.873678
0.842487
0.811433
0.780469
0.749551
0.718635
0.687682
0.656653
0.625512
0.594228
0.562769
0.531107
0.499216
0.467071
0.434654
0.401934
0.368912
0.335532
0.301855
0.267707
0.233401
0.198249
0.163631
0.126673
0.0932244
0.0513803
0.0254194
-10.0983
-10.0718
-9.95923
-9.68586
-9.2146
-8.59527
-7.96292
-7.50295
-7.40368
-7.81436
-8.81767
-10.4156
-12.5347
-15.0457
-17.7851
-20.5706
-23.2149
-25.5268
-27.3355
-28.5234
-29.0074
-28.7625
-27.8429
-26.3625
-24.4647
-22.2943
-19.9814
-17.6327
-15.3284
-13.1243
-11.059
-9.1581
-7.43757
-5.90456
-4.55865
-3.39333
-2.39757
-1.5574
-0.857248
-0.281012
0.187151
0.562258
0.858151
1.08731
1.26081
1.3883
1.47816
1.53752
1.57245
1.58804
1.58854
1.57746
1.55773
1.53175
1.50151
1.46862
1.43425
1.39923
1.36405
1.32897
1.2941
1.25952
1.22527
1.1914
1.15794
1.12489
1.09223
1.05993
1.02794
0.996237
0.964777
0.933529
0.902463
0.871544
0.840736
0.810003
0.779307
0.748613
0.717882
0.687082
0.656178
0.62514
0.593939
0.562548
0.53094
0.499091
0.466979
0.434587
0.401886
0.368877
0.335507
0.301836
0.267689
0.233387
0.19823
0.16362
0.126647
0.0932186
0.051345
0.0254261
-10.0277
-9.98642
-9.87165
-9.64
-9.27423
-8.81686
-8.37179
-8.08112
-8.09048
-8.51748
-9.4294
-10.8303
-12.6621
-14.8189
-17.1652
-19.5499
-21.8154
-23.8096
-25.3933
-26.4489
-26.899
-26.7213
-25.9549
-24.6867
-23.0305
-21.1072
-19.0308
-16.8983
-14.7849
-12.7455
-10.8193
-9.03345
-7.40559
-5.94493
-4.65341
-3.52702
-2.55729
-1.73272
-1.03994
-0.464799
0.00691415
0.388865
0.693818
0.933419
1.1181
1.25705
1.35828
1.42871
1.47422
1.49981
1.50966
1.50725
1.49548
1.47679
1.45317
1.42625
1.39725
1.36704
1.33615
1.30488
1.27337
1.24174
1.21007
1.17844
1.14692
1.11554
1.08432
1.05325
1.02233
0.991538
0.960855
0.93027
0.899766
0.869323
0.838918
0.808524
0.778113
0.747655
0.717122
0.686486
0.655717
0.62479
0.593679
0.562359
0.530809
0.499006
0.46693
0.434564
0.401884
0.36889
0.335529
0.301866
0.267721
0.233422
0.198261
0.163657
0.126671
0.0932605
0.0513594
0.0254727
-9.97346
-9.92909
-9.82505
-9.63759
-9.36254
-9.03569
-8.7381
-8.5785
-8.66975
-9.10445
-9.93658
-11.1708
-12.7619
-14.6243
-16.6451
-18.6971
-20.6483
-22.3715
-23.7445
-24.6615
-25.0597
-24.9202
-24.2681
-23.1685
-21.7127
-20.0025
-18.1364
-16.2001
-14.263
-12.3775
-10.5828
-8.90686
-7.36844
-5.97841
-4.74066
-3.6534
-2.71044
-1.90247
-1.2182
-0.64528
-0.171073
0.216786
0.53001
0.779411
0.97477
1.1248
1.23714
1.31846
1.37445
1.41
1.42919
1.43549
1.43176
1.42043
1.40352
1.38267
1.35914
1.33385
1.30735
1.27998
1.25194
1.22335
1.19433
1.16501
1.13549
1.10584
1.07611
1.04633
1.0165
0.986648
0.956768
0.926867
0.896944
0.866992
0.837002
0.806957
0.776837
0.746624
0.716293
0.685824
0.655193
0.624379
0.593359
0.562114
0.530622
0.498868
0.466828
0.434492
0.401833
0.368855
0.335505
0.301849
0.267707
0.233412
0.198247
0.163649
0.126652
0.0932553
0.0513332
0.0254732
-9.93407
-9.89414
-9.80772
-9.66375
-9.46507
-9.2434
-9.0617
-9.00368
-9.15628
-9.59153
-10.3521
-11.4425
-12.8275
-14.438
-16.1809
-17.9488
-19.6289
-21.1096
-22.2883
-23.0803
-23.4288
-23.3122
-22.7472
-21.7848
-20.4995
-18.9755
-17.2965
-15.5379
-13.7627
-12.0208
-10.3502
-8.7789
-7.32662
-6.00535
-4.82063
-3.77254
-2.85693
-2.06648
-1.39177
-0.822165
-0.3465
0.04634
0.367036
0.625575
0.831091
0.991794
1.11496
1.20696
1.27331
1.31875
1.34728
1.3623
1.36666
1.36276
1.35263
1.33793
1.31997
1.29968
1.27767
1.2543
1.2298
1.20434
1.17806
1.15113
1.12367
1.0958
1.0676
1.03914
1.01046
0.981576
0.952528
0.923336
0.894015
0.864575
0.835017
0.805336
0.775524
0.745567
0.71545
0.685158
0.654674
0.623981
0.59306
0.561894
0.530467
0.498763
0.466763
0.434458
0.401822
0.368862
0.335524
0.301876
0.267738
0.233446
0.19828
0.163686
0.126679
0.0932934
0.0513518
0.0255098
-9.90817
-9.87749
-9.81233
-9.70912
-9.57523
-9.43788
-9.34649
-9.36545
-9.56158
-9.99058
-10.6857
-11.6506
-12.8572
-14.2495
-15.7506
-17.2704
-18.7127
-19.9826
-20.9937
-21.6725
-21.969
-21.8639
-21.3684
-20.5217
-19.3829
-18.0216
-16.5089
-14.9108
-13.2843
-11.6758
-10.1219
-8.65022
-7.28067
-6.02616
-4.89356
-3.88456
-2.99675
-2.22462
-1.56046
-0.995197
-0.519075
-0.122172
0.205197
0.472203
0.687331
0.858286
0.991955
1.09442
1.17098
1.22622
1.26405
1.28779
1.30026
1.30384
1.30057
1.29211
1.27979
1.26459
1.24715
1.22788
1.20701
1.18476
1.16129
1.1368
1.11146
1.08543
1.05882
1.03172
1.0042
0.976324
0.948132
0.919669
0.890969
0.862055
0.832941
0.803635
0.774136
0.744442
0.714544
0.684434
0.654099
0.623528
0.592707
0.561623
0.530261
0.498609
0.466651
0.434377
0.401765
0.368823
0.335497
0.301859
0.267725
0.233436
0.198269
0.16368
0.126664
0.0932861
0.0513314
0.0255029
-9.89368
-9.87479
-9.83186
-9.76571
-9.68578
-9.61542
-9.59361
-9.6699
-9.89547
-10.313
-10.9479
-11.8026
-12.8543
-14.0575
-15.3484
-16.6518
-17.8863
-18.9714
-19.8335
-20.4099
-20.658
-20.5591
-20.1195
-19.3692
-18.3556
-17.1361
-15.7711
-14.318
-12.8277
-11.3431
-9.89873
-8.52146
-7.23115
-6.0413
-4.95978
-3.98962
-3.12994
-2.37682
-1.72409
-1.16415
-0.688533
-0.288462
0.0447831
0.319577
0.543761
0.724525
0.868359
0.981038
1.06764
1.13258
1.17965
1.2121
1.2327
1.2438
1.24743
1.24527
1.23868
1.22865
1.21586
1.20075
1.1836
1.16463
1.14404
1.12206
1.09891
1.07476
1.04978
1.02408
0.997759
0.970908
0.943597
0.915886
0.887826
0.859455
0.830802
0.801884
0.772713
0.743293
0.713624
0.683705
0.653529
0.623088
0.592374
0.561377
0.530085
0.498489
0.466575
0.434335
0.40175
0.368827
0.335516
0.301888
0.267759
0.233473
0.198306
0.163719
0.126697
0.093324
0.0513568
0.0255332
-9.88811
-9.88242
-9.8612
-9.82785
-9.79243
-9.77484
-9.80584
-9.92357
-10.167
-10.5686
-11.1475
-11.9047
-12.8216
-13.8605
-14.969
-16.0841
-17.1374
-18.0608
-18.7917
-19.2769
-19.4791
-19.3809
-18.9857
-18.3162
-17.4101
-16.3149
-15.0811
-13.7588
-12.393
-11.0231
-9.68124
-8.39327
-7.17869
-6.05127
-5.01965
-4.08795
-3.2566
-2.52305
-1.88256
-1.32883
-0.854639
-0.452268
-0.113928
0.167978
0.400652
0.59077
0.744414
0.867045
0.963499
1.03801
1.09426
1.13539
1.16411
1.18276
1.19333
1.19752
1.19671
1.19192
1.18386
1.17299
1.15962
1.14399
1.12635
1.10695
1.08602
1.06381
1.04049
1.01622
0.991129
0.965332
0.938922
0.911981
0.884575
0.85676
0.828577
0.800057
0.771219
0.742079
0.712644
0.682919
0.652903
0.622594
0.591988
0.561078
0.529857
0.498318
0.466448
0.434244
0.401686
0.368782
0.335486
0.301868
0.267745
0.23346
0.198297
0.163711
0.126684
0.0933119
0.051339
0.0255168
-9.88946
-9.89707
-9.89603
-9.89096
-9.89168
-9.91498
-9.98519
-10.1316
-10.3838
-10.7662
-11.2928
-11.9634
-12.7623
-13.6586
-14.6087
-15.5601
-16.4554
-17.2374
-17.8527
-18.2562
-18.4158
-18.3154
-17.9558
-17.3542
-16.5406
-15.5539
-14.4367
-13.2322
-11.9801
-10.7161
-9.47004
-8.26632
-7.12391
-6.05662
-5.0736
-4.17985
-3.37687
-2.66336
-2.03579
-1.48911
-1.01719
-0.613349
-0.270675
0.017674
0.258271
0.457279
0.620368
0.752671
0.858773
0.94272
1.00804
1.0578
1.09464
1.12084
1.13838
1.14897
1.15399
1.15449
1.15121
1.14464
1.13512
1.12291
1.10827
1.09149
1.07285
1.0526
1.03098
1.00817
0.984341
0.959622
0.934134
0.90798
0.881246
0.854003
0.826304
0.798193
0.769701
0.740851
0.71166
0.682137
0.65229
0.62212
0.591628
0.560812
0.529667
0.498188
0.466367
0.4342
0.401671
0.368791
0.335508
0.301902
0.267786
0.233502
0.198343
0.163758
0.126727
0.0933532
0.0513742
0.025544
-9.89552
-9.91581
-9.93279
-9.9515
-9.981
-10.0354
-10.1338
-10.2987
-10.5525
-10.9131
-11.3906
-11.9839
-12.6794
-13.4515
-14.264
-15.0732
-15.8312
-16.4898
-17.0038
-17.3349
-17.4554
-17.3504
-17.0193
-16.4749
-15.741
-14.8493
-13.8358
-12.7373
-11.5889
-10.4226
-9.26572
-8.14129
-7.06748
-6.05793
-5.12209
-4.26563
-3.49097
-2.79781
-2.18377
-1.64487
-1.17602
-0.771495
-0.42522
-0.131081
0.116879
0.324312
0.49647
0.638155
0.753688
0.846914
0.921215
0.979539
1.02445
1.0582
1.08273
1.09974
1.11062
1.11645
1.11801
1.1158
1.11018
1.10143
1.08985
1.07574
1.05941
1.04117
1.02128
0.999958
0.977403
0.953778
0.929227
0.903873
0.877821
0.851157
0.82395
0.796255
0.768113
0.739557
0.710611
0.681293
0.651615
0.621586
0.591209
0.560486
0.529416
0.497998
0.466225
0.434096
0.401596
0.368738
0.335472
0.301877
0.267769
0.23348
0.198332
0.163745
0.126713
0.0933323
0.0513561
0.0255156
-9.90474
-9.93661
-9.96915
-10.0073
-10.0592
-10.1365
-10.2543
-10.4297
-10.6795
-11.0167
-11.4482
-11.9721
-12.5768
-13.2407
-13.9337
-14.6195
-15.2582
-15.8092
-16.2344
-16.5013
-16.5861
-16.4754
-16.1674
-15.6714
-15.0062
-14.1979
-13.2764
-12.2732
-11.2192
-10.1427
-9.06881
-8.01885
-7.01007
-6.05581
-5.16564
-4.34571
-3.59915
-2.92657
-2.32654
-1.79606
-1.33101
-0.926532
-0.57735
-0.27805
-0.0232746
0.192122
0.372976
0.523746
0.648483
0.750822
0.833981
0.900792
0.953738
0.995004
1.02652
1.04996
1.06673
1.07793
1.08436
1.08655
1.08487
1.07963
1.07115
1.05975
1.04578
1.02957
1.01143
0.991621
0.970361
0.947847
0.924247
0.899708
0.874351
0.848279
0.821575
0.794305
0.766523
0.73827
0.709579
0.680473
0.650972
0.621089
0.590833
0.56021
0.52922
0.497867
0.466145
0.434056
0.401587
0.368753
0.335505
0.301923
0.267825
0.233582
0.198393
0.163803
0.126771
0.0933832
0.0514048
0.025542
-9.91495
-9.95695
-10.0025
-10.0561
-10.1248
-10.2183
-10.3483
-10.5279
-10.7693
-11.082
-11.4704
-11.9321
-12.4567
-13.0262
-13.6155
-14.1945
-14.7297
-15.1872
-15.5349
-15.7455
-15.7983
-15.6812
-15.3919
-14.9369
-14.3313
-13.5961
-12.7564
-11.839
-10.8707
-9.87675
-8.87985
-7.89963
-6.95237
-6.05092
-5.20481
-4.42052
-3.70174
-3.04982
-2.46418
-1.94269
-1.48208
-1.07832
-0.726881
-0.423016
-0.161952
0.0609607
0.250139
0.409697
0.543408
0.654683
0.746573
0.821781
0.8827
0.931452
0.96993
0.999797
1.02246
1.03905
1.05037
1.05699
1.05929
1.0576
1.05224
1.04358
1.03199
1.01783
1.00146
0.983167
0.963211
0.941815
0.919173
0.895453
0.870795
0.845318
0.81912
0.792278
0.764857
0.736908
0.708471
0.679578
0.650254
0.620517
0.590381
0.559856
0.528946
0.497657
0.465986
0.433938
0.4015
0.368689
0.335459
0.301889
0.267802
0.233554
0.198377
0.163784
0.126754
0.0933581
0.0513874
0.0254978
-9.92563
-9.97616
-10.0321
-10.0976
-10.1784
-10.2826
-10.4192
-10.5979
-10.8279
-11.1157
-11.4638
-11.8694
-12.3233
-12.8103
-13.3096
-13.7959
-14.2414
-14.6177
-14.8981
-15.0591
-15.0832
-14.9597
-14.6856
-14.2658
-13.7119
-13.0409
-12.2739
-11.4336
-10.5432
-9.62493
-8.69932
-7.78431
-6.89508
-6.04392
-5.2402
-4.49056
-3.79912
-3.16785
-2.59686
-2.08481
-1.62921
-1.22676
-0.873663
-0.56579
-0.298933
-0.0689332
0.128211
0.296266
0.438719
0.558753
0.659237
0.742742
0.811559
0.867747
0.913154
0.949429
0.977984
0.999954
1.01618
1.02724
1.03354
1.03542
1.03322
1.02732
1.01812
1.00604
0.991446
0.974681
0.956036
0.935766
0.91409
0.891196
0.867245
0.842372
0.816686
0.790281
0.763229
0.735591
0.707415
0.678742
0.6496
0.620015
0.590004
0.559582
0.528755
0.497533
0.465916
0.433911
0.401506
0.36872
0.335509
0.301952
0.267873
0.233624
0.198456
0.163857
0.12683
0.0934196
0.0514533
0.0255243
-9.93441
-9.99179
-10.0557
-10.1297
-10.2187
-10.329
-10.4676
-10.6418
-10.8582
-11.121
-11.4315
-11.7866
-12.1781
-12.5932
-13.0142
-13.4204
-13.7884
-14.0946
-14.3165
-14.4344
-14.4332
-14.3036
-14.0422
-13.6526
-13.1436
-12.5293
-11.827
-11.0559
-10.2362
-9.38737
-8.52768
-7.67349
-6.8389
-6.03552
-5.27245
-4.55638
-3.89174
-3.28097
-2.72479
-2.22254
-1.77241
-1.37182
-1.01759
-0.70621
-0.434019
-0.197331
0.00744181
0.183715
0.334686
0.463299
0.572238
0.66393
0.740562
0.804119
0.856406
0.89905
0.933466
0.960803
0.981923
0.997428
1.00774
1.0132
1.01416
1.01103
1.00423
0.994205
0.981385
0.966141
0.948802
0.929652
0.908936
0.886865
0.863617
0.839343
0.814168
0.788195
0.761509
0.734179
0.706263
0.677806
0.648846
0.619411
0.589523
0.559202
0.528458
0.497303
0.46574
0.433776
0.401405
0.368644
0.335452
0.301908
0.26784
0.233592
0.198433
0.163828
0.126808
0.0933738
0.0514308
0.0254602
-9.94221
-10.0048
-10.0744
-10.1541
-10.2478
-10.3605
-10.4977
-10.6646
-10.8658
-11.104
-11.3795