/*--------------------------------*- C++ -*----------------------------------*\
  =========                 |
  \\      /  F ield         | OpenFOAM: The Open Source CFD Toolbox
   \\    /   O peration     | Website:  https://openfoam.org
    \\  /    A nd           | Version:  10
     \\/     M anipulation  |
\*---------------------------------------------------------------------------*/
FoamFile
{
    format      ascii;
    class       volVectorField;
    location    "0.045";
    object      U;
}
// * * * * * * * * * * * * * * * * * * * * * * * * * * * * * * * * * * * * * //

dimensions      [0 1 -1 0 0 0 0];

internalField   nonuniform List<vector> 
6820
(
(5.57349 0.45918 0)
(3.88267 0.245965 0)
(2.58838 0.00886193 0)
(1.95584 -0.0641007 0)
(1.72979 -0.0593837 0)
(1.61782 -0.0339096 0)
(1.55191 -0.015257 0)
(1.50493 -0.00519828 0)
(1.46521 -0.000614267 0)
(1.43062 0.00088491 0)
(1.4006 0.000939404 0)
(1.37466 0.000434271 0)
(1.35234 -0.000221136 0)
(1.3331 -0.000846137 0)
(1.31647 -0.00137234 0)
(1.30204 -0.00178581 0)
(1.28947 -0.00209648 0)
(1.2785 -0.00232227 0)
(1.26893 -0.00248195 0)
(1.26059 -0.00259255 0)
(1.25335 -0.00266884 0)
(1.24714 -0.00272343 0)
(1.2419 -0.00276739 0)
(1.23759 -0.00280966 0)
(1.23422 -0.00285988 0)
(1.23183 -0.0029172 0)
(1.23041 -0.00300447 0)
(1.23034 -0.00305814 0)
(1.23103 -0.00339394 0)
(1.2345 -0.00322714 0)
(1.2351 -0.00419075 0)
(1.24945 0.00229044 0)
(1.22215 -0.020975 0)
(7.6698 0.864002 0)
(7.71699 0.891038 0)
(6.99912 0.598763 0)
(6.1956 0.347914 0)
(5.58106 0.180056 0)
(5.13504 0.0936427 0)
(4.81653 0.0533764 0)
(4.5861 0.0349978 0)
(4.41276 0.0266383 0)
(4.27722 0.022438 0)
(4.16777 0.0199255 0)
(4.0771 0.0181609 0)
(4.0005 0.016769 0)
(3.93484 0.0155844 0)
(3.87793 0.0145229 0)
(3.82817 0.0135406 0)
(3.78438 0.0126135 0)
(3.74563 0.0117274 0)
(3.71123 0.0108718 0)
(3.68062 0.0100372 0)
(3.65335 0.00921394 0)
(3.62907 0.00839091 0)
(3.6075 0.00755416 0)
(3.58844 0.00668747 0)
(3.57173 0.0057669 0)
(3.55728 0.00477492 0)
(3.54504 0.00364855 0)
(3.53505 0.00243049 0)
(3.52732 0.000810565 0)
(3.52237 -0.000541815 0)
(3.51991 -0.00355247 0)
(3.52324 -0.00294384 0)
(3.53064 -0.0106776 0)
(7.56353 0.520438 0)
(8.22513 0.663952 0)
(8.46448 0.576837 0)
(8.363 0.459528 0)
(8.1263 0.345663 0)
(7.84829 0.260979 0)
(7.57679 0.201506 0)
(7.33164 0.158862 0)
(7.11617 0.127892 0)
(6.92844 0.104905 0)
(6.7652 0.0874127 0)
(6.62306 0.0738315 0)
(6.49892 0.0631196 0)
(6.39011 0.054562 0)
(6.29439 0.0476367 0)
(6.20986 0.0419529 0)
(6.13496 0.0372173 0)
(6.06835 0.0332094 0)
(6.00896 0.0297613 0)
(5.95585 0.0267423 0)
(5.90829 0.0240476 0)
(5.86565 0.0215904 0)
(5.8274 0.0192945 0)
(5.79314 0.01709 0)
(5.76253 0.0149066 0)
(5.73532 0.0126735 0)
(5.71133 0.0102992 0)
(5.69047 0.00772204 0)
(5.67267 0.00477212 0)
(5.65818 0.00154195 0)
(5.6468 -0.00290571 0)
(5.63945 -0.00720729 0)
(5.63587 -0.0164907 0)
(7.43336 0.341214 0)
(7.88461 0.514885 0)
(8.24324 0.490332 0)
(8.44168 0.430911 0)
(8.5411 0.360106 0)
(8.5707 0.299961 0)
(8.555 0.254302 0)
(8.51355 0.21925 0)
(8.45739 0.191793 0)
(8.39292 0.169669 0)
(8.32435 0.15129 0)
(8.25441 0.135692 0)
(8.1849 0.122247 0)
(8.11717 0.11052 0)
(8.05204 0.100221 0)
(7.98998 0.0911282 0)
(7.93127 0.0830569 0)
(7.87601 0.0758498 0)
(7.82421 0.0693708 0)
(7.77582 0.0635007 0)
(7.73074 0.0581329 0)
(7.68886 0.0531695 0)
(7.65006 0.0485176 0)
(7.61422 0.044086 0)
(7.58123 0.0397793 0)
(7.551 0.035499 0)
(7.52347 0.0311227 0)
(7.49862 0.026546 0)
(7.47642 0.0215447 0)
(7.457 0.0160713 0)
(7.4404 0.00947077 0)
(7.42684 0.00225601 0)
(7.41702 -0.00751604 0)
(7.39681 0.251176 0)
(7.67989 0.421498 0)
(7.92315 0.404782 0)
(8.07697 0.355211 0)
(8.1873 0.30095 0)
(8.26944 0.255788 0)
(8.33012 0.222395 0)
(8.37666 0.197092 0)
(8.41299 0.177127 0)
(8.44114 0.160843 0)
(8.46267 0.147138 0)
(8.47876 0.135339 0)
(8.49037 0.12503 0)
(8.49804 0.115911 0)
(8.50241 0.107756 0)
(8.50405 0.100389 0)
(8.50349 0.0936773 0)
(8.50115 0.0875095 0)
(8.49742 0.0817941 0)
(8.49262 0.0764511 0)
(8.48702 0.0714076 0)
(8.48085 0.0665939 0)
(8.4743 0.0619399 0)
(8.46755 0.0573716 0)
(8.46073 0.0528066 0)
(8.45399 0.0481519 0)
(8.44743 0.043292 0)
(8.44116 0.0381014 0)
(8.43527 0.032385 0)
(8.42988 0.0259902 0)
(8.42502 0.0184808 0)
(8.42081 0.00981131 0)
(8.41727 -0.00112493 0)
(7.37402 0.180848 0)
(7.57403 0.336626 0)
(7.76058 0.343203 0)
(7.87484 0.314437 0)
(7.95079 0.275712 0)
(8.00588 0.238037 0)
(8.04704 0.207209 0)
(8.08091 0.182691 0)
(8.11095 0.163007 0)
(8.13831 0.14701 0)
(8.16355 0.133739 0)
(8.18695 0.122489 0)
(8.20872 0.112801 0)
(8.22908 0.104356 0)
(8.24813 0.0968952 0)
(8.26594 0.0902222 0)
(8.28257 0.084188 0)
(8.29808 0.078675 0)
(8.31255 0.073586 0)
(8.32603 0.0688377 0)
(8.33858 0.0643549 0)
(8.35027 0.0600667 0)
(8.36116 0.0559027 0)
(8.37128 0.0517893 0)
(8.38069 0.0476458 0)
(8.38941 0.0433818 0)
(8.39746 0.0388872 0)
(8.40484 0.03404 0)
(8.41152 0.0286648 0)
(8.41748 0.0225958 0)
(8.42255 0.0155004 0)
(8.42673 0.00721777 0)
(8.42953 -0.00294531 0)
(7.35904 0.132943 0)
(7.50322 0.273723 0)
(7.65542 0.295992 0)
(7.75518 0.27971 0)
(7.82095 0.250651 0)
(7.86749 0.219291 0)
(7.90042 0.192181 0)
(7.92548 0.170061 0)
(7.94639 0.151949 0)
(7.96475 0.136969 0)
(7.98143 0.124384 0)
(7.99696 0.113625 0)
(8.01162 0.10429 0)
(8.02558 0.0960887 0)
(8.03894 0.088811 0)
(8.05176 0.082294 0)
(8.06409 0.0764067 0)
(8.07595 0.0710393 0)
(8.08736 0.0660983 0)
(8.09833 0.0615017 0)
(8.10887 0.0571752 0)
(8.11897 0.0530492 0)
(8.12865 0.0490555 0)
(8.1379 0.0451244 0)
(8.1467 0.0411812 0)
(8.15504 0.0371443 0)
(8.16287 0.0329175 0)
(8.17015 0.0283946 0)
(8.17678 0.0234331 0)
(8.18267 0.0178914 0)
(8.1876 0.011523 0)
(8.19138 0.00416092 0)
(8.19356 -0.0047034 0)
(7.34964 0.0992599 0)
(7.45333 0.221169 0)
(7.57621 0.251466 0)
(7.66465 0.245262 0)
(7.72609 0.226145 0)
(7.77137 0.20257 0)
(7.80427 0.180326 0)
(7.8291 0.161048 0)
(7.84924 0.14453 0)
(7.86638 0.130406 0)
(7.88146 0.118284 0)
(7.89512 0.107785 0)
(7.90772 0.0986054 0)
(7.91951 0.0905148 0)
(7.93063 0.0833282 0)
(7.9412 0.0768916 0)
(7.95128 0.0710771 0)
(7.96093 0.0657781 0)
(7.97018 0.060904 0)
(7.97906 0.0563756 0)
(7.98759 0.0521218 0)
(7.99578 0.0480762 0)
(8.00363 0.0441745 0)
(8.01114 0.040352 0)
(8.01829 0.0365409 0)
(8.02505 0.0326689 0)
(8.03137 0.0286541 0)
(8.0372 0.0244074 0)
(8.04244 0.0198185 0)
(8.04695 0.0147758 0)
(8.05053 0.00911424 0)
(8.05288 0.0027064 0)
(8.05364 -0.00470075 0)
(7.3438 0.0753164 0)
(7.41911 0.179258 0)
(7.51773 0.214105 0)
(7.59483 0.215532 0)
(7.65098 0.203554 0)
(7.69398 0.185515 0)
(7.72655 0.16681 0)
(7.75176 0.149777 0)
(7.77244 0.134777 0)
(7.79011 0.121717 0)
(7.80562 0.110372 0)
(7.81958 0.100466 0)
(7.83239 0.0917513 0)
(7.84427 0.084029 0)
(7.85541 0.0771354 0)
(7.86592 0.0709352 0)
(7.87589 0.0653162 0)
(7.88537 0.0601839 0)
(7.89441 0.0554567 0)
(7.90305 0.0510624 0)
(7.9113 0.0469357 0)
(7.91918 0.0430157 0)
(7.92669 0.039244 0)
(7.93383 0.0355633 0)
(7.94057 0.031915 0)
(7.94689 0.0282388 0)
(7.95274 0.0244703 0)
(7.95804 0.0205424 0)
(7.96269 0.01638 0)
(7.96654 0.0119122 0)
(7.96939 0.00705316 0)
(7.97092 0.00175086 0)
(7.97083 -0.00404645 0)
(7.34016 0.0580847 0)
(7.39544 0.145623 0)
(7.4744 0.181584 0)
(7.54104 0.188012 0)
(7.59194 0.181404 0)
(7.63234 0.168247 0)
(7.66406 0.153202 0)
(7.6892 0.138727 0)
(7.71003 0.125494 0)
(7.72789 0.113628 0)
(7.74362 0.103088 0)
(7.75777 0.0937357 0)
(7.77073 0.085412 0)
(7.78275 0.0779758 0)
(7.79401 0.0713019 0)
(7.80462 0.0652799 0)
(7.81466 0.0598131 0)
(7.82421 0.0548167 0)
(7.83329 0.0502159 0)
(7.84195 0.0459439 0)
(7.85021 0.0419404 0)
(7.85807 0.0381498 0)
(7.86554 0.0345199 0)
(7.87261 0.031001 0)
(7.87925 0.0275445 0)
(7.88544 0.0241032 0)
(7.89111 0.0206305 0)
(7.8962 0.0170825 0)
(7.9006 0.0134182 0)
(7.90415 0.00960818 0)
(7.90668 0.00563496 0)
(7.90788 0.0015205 0)
(7.90752 -0.00265732 0)
(7.33787 0.045444 0)
(7.37896 0.118575 0)
(7.44222 0.153621 0)
(7.49954 0.163436 0)
(7.54546 0.160961 0)
(7.58311 0.151749 0)
(7.61364 0.139731 0)
(7.63842 0.127362 0)
(7.65921 0.115588 0)
(7.67718 0.104743 0)
(7.69307 0.0949335 0)
(7.7074 0.0861254 0)
(7.72052 0.078225 0)
(7.73268 0.0711287 0)
(7.74406 0.0647358 0)
(7.75476 0.058952 0)
(7.76488 0.0536919 0)
(7.77448 0.0488798 0)
(7.78361 0.0444483 0)
(7.79229 0.0403371 0)
(7.80055 0.0364919 0)
(7.8084 0.0328636 0)
(7.81584 0.029407 0)
(7.82286 0.0260807 0)
(7.82943 0.022847 0)
(7.83553 0.019672 0)
(7.8411 0.0165273 0)
(7.84606 0.0133917 0)
(7.85032 0.0102555 0)
(7.85375 0.00712741 0)
(7.85618 0.00404365 0)
(7.85736 0.00108686 0)
(7.85713 -0.00159152 0)
(7.33642 0.0359893 0)
(7.36738 0.0967654 0)
(7.41818 0.129565 0)
(7.46727 0.141272 0)
(7.50848 0.14168 0)
(7.54337 0.135513 0)
(7.57257 0.126091 0)
(7.59686 0.11571 0)
(7.61756 0.105434 0)
(7.63562 0.0957101 0)
(7.65167 0.086734 0)
(7.66617 0.0785507 0)
(7.67947 0.0711263 0)
(7.69179 0.0643997 0)
(7.70331 0.058301 0)
(7.71414 0.0527585 0)
(7.72437 0.0477038 0)
(7.73406 0.0430731 0)
(7.74325 0.0388085 0)
(7.75199 0.0348572 0)
(7.76029 0.0311717 0)
(7.76816 0.0277094 0)
(7.77561 0.0244326 0)
(7.78262 0.0213086 0)
(7.78917 0.0183099 0)
(7.79524 0.0154159 0)
(7.80077 0.0126143 0)
(7.80571 0.00990457 0)
(7.80996 0.00730252 0)
(7.81341 0.00484735 0)
(7.81594 0.00261246 0)
(7.81736 0.000720967 0)
(7.81758 -0.000644654 0)
(7.33548 0.0287673 0)
(7.35917 0.0790672 0)
(7.40013 0.108864 0)
(7.44209 0.121373 0)
(7.47895 0.123762 0)
(7.51114 0.119954 0)
(7.53887 0.112696 0)
(7.56252 0.104039 0)
(7.58298 0.0950779 0)
(7.60103 0.0863421 0)
(7.61719 0.0781064 0)
(7.63186 0.0704858 0)
(7.64534 0.0635009 0)
(7.65785 0.0571275 0)
(7.66954 0.0513217 0)
(7.68053 0.0460297 0)
(7.6909 0.0411958 0)
(7.70072 0.0367657 0)
(7.71002 0.0326887 0)
(7.71885 0.0289184 0)
(7.72723 0.0254135 0)
(7.73517 0.0221376 0)
(7.74266 0.01906 0)
(7.74972 0.0161559 0)
(7.75631 0.0134074 0)
(7.76241 0.0108055 0)
(7.76799 0.00835172 0)
(7.77299 0.00606209 0)
(7.77734 0.0039718 0)
(7.78097 0.00214135 0)
(7.78378 0.00066649 0)
(7.78565 -0.000310737 0)
(7.78654 -0.000604641 0)
(7.33486 0.0231319 0)
(7.35327 0.064596 0)
(7.3865 0.0910298 0)
(7.42236 0.103502 0)
(7.45525 0.107094 0)
(7.48485 0.104983 0)
(7.51105 0.099434 0)
(7.53393 0.0922357 0)
(7.55407 0.0844573 0)
(7.57205 0.0766663 0)
(7.58828 0.0691793 0)
(7.60309 0.0621549 0)
(7.61675 0.0556508 0)
(7.62945 0.0496717 0)
(7.64132 0.0441952 0)
(7.65248 0.0391846 0)
(7.66301 0.0345971 0)
(7.67297 0.0303889 0)
(7.6824 0.0265177 0)
(7.69135 0.0229445 0)
(7.69982 0.0196344 0)
(7.70785 0.0165577 0)
(7.71543 0.0136903 0)
(7.72255 0.0110151 0)
(7.72923 0.00852272 0)
(7.73542 0.00621365 0)
(7.74111 0.00410056 0)
(7.74625 0.00221139 0)
(7.7508 0.000594047 0)
(7.75472 -0.000679096 0)
(7.75794 -0.00150338 0)
(7.7604 -0.00173337 0)
(7.76211 -0.00119898 0)
(7.33443 0.0186415 0)
(7.34898 0.052649 0)
(7.37616 0.075614 0)
(7.40686 0.0874396 0)
(7.43618 0.0916215 0)
(7.46335 0.0906767 0)
(7.48803 0.0864517 0)
(7.51007 0.0804678 0)
(7.52981 0.0737171 0)
(7.54764 0.0667698 0)
(7.56388 0.0599637 0)
(7.5788 0.0534877 0)
(7.59261 0.0474305 0)
(7.60547 0.0418221 0)
(7.61752 0.0366597 0)
(7.62886 0.031922 0)
(7.63956 0.0275777 0)
(7.64967 0.0235919 0)
(7.65925 0.0199296 0)
(7.66833 0.0165576 0)
(7.67693 0.0134469 0)
(7.68507 0.010573 0)
(7.69275 0.0079177 0)
(7.7 0.0054697 0)
(7.70679 0.00322638 0)
(7.71312 0.00119534 0)
(7.71897 -0.000603311 0)
(7.72433 -0.00213437 0)
(7.72916 -0.00334375 0)
(7.73345 -0.00415549 0)
(7.73717 -0.00446691 0)
(7.74031 -0.00413986 0)
(7.74291 -0.00303105 0)
(7.33413 0.0149899 0)
(7.34582 0.0426757 0)
(7.36827 0.062223 0)
(7.39466 0.0729708 0)
(7.42082 0.0772524 0)
(7.44574 0.0770135 0)
(7.46894 0.0737444 0)
(7.49012 0.0687174 0)
(7.5094 0.0628258 0)
(7.52703 0.0566201 0)
(7.54325 0.0504417 0)
(7.55824 0.0444948 0)
(7.57218 0.0388865 0)
(7.58521 0.0336639 0)
(7.59743 0.0288382 0)
(7.60895 0.0243991 0)
(7.61981 0.0203247 0)
(7.63009 0.0165875 0)
(7.63982 0.0131588 0)
(7.64904 0.010011 0)
(7.65778 0.00712008 0)
(7.66605 0.00446642 0)
(7.67387 0.00203652 0)
(7.68125 -0.00017596 0)
(7.68819 -0.00216882 0)
(7.69469 -0.00392974 0)
(7.70075 -0.00543446 0)
(7.70637 -0.00664476 0)
(7.71153 -0.00750589 0)
(7.71625 -0.00794456 0)
(7.72053 -0.007867 0)
(7.72438 -0.00715202 0)
(7.72788 -0.00568565 0)
(7.33392 0.0119617 0)
(7.34347 0.0342442 0)
(7.36222 0.0505105 0)
(7.38504 0.0598868 0)
(7.40844 0.0638831 0)
(7.43135 0.0639709 0)
(7.45314 0.0613398 0)
(7.47346 0.0570382 0)
(7.49225 0.0518475 0)
(7.50965 0.0462779 0)
(7.5258 0.0406589 0)
(7.54084 0.0351966 0)
(7.5549 0.0300081 0)
(7.56807 0.0251516 0)
(7.58047 0.0206487 0)
(7.59215 0.0164985 0)
(7.60319 0.0126867 0)
(7.61364 0.00919223 0)
(7.62353 0.0059916 0)
(7.6329 0.00306193 0)
(7.64179 0.000383183 0)
(7.65021 -0.00206041 0)
(7.65818 -0.00427888 0)
(7.66572 -0.00627531 0)
(7.67283 -0.00804461 0)
(7.67954 -0.00957228 0)
(7.68584 -0.010833 0)
(7.69175 -0.0117892 0)
(7.69728 -0.0123899 0)
(7.70246 -0.0125693 0)
(7.7073 -0.0122473 0)
(7.71187 -0.0113238 0)
(7.71623 -0.00971423 0)
(7.33376 0.009402 0)
(7.3417 0.0270162 0)
(7.35757 0.0401764 0)
(7.37746 0.0479896 0)
(7.3985 0.0514011 0)
(7.4196 0.0515006 0)
(7.44012 0.0492262 0)
(7.4596 0.0454298 0)
(7.4779 0.0407796 0)
(7.49506 0.0357349 0)
(7.51113 0.0306032 0)
(7.5262 0.0255837 0)
(7.54035 0.0207954 0)
(7.55367 0.0163018 0)
(7.56622 0.0121304 0)
(7.57808 0.00828553 0)
(7.58929 0.00475788 0)
(7.5999 0.00153051 0)
(7.60996 -0.00141645 0)
(7.61949 -0.00410275 0)
(7.62853 -0.00654571 0)
(7.63711 -0.00875868 0)
(7.64524 -0.0107496 0)
(7.65295 -0.0125199 0)
(7.66026 -0.0140636 0)
(7.66718 -0.0153662 0)
(7.67374 -0.0164038 0)
(7.67995 -0.0171428 0)
(7.68586 -0.0175386 0)
(7.69148 -0.0175364 0)
(7.69688 -0.0170719 0)
(7.70211 -0.0160676 0)
(7.70726 -0.0144658 0)
(7.33365 0.00719696 0)
(7.34037 0.0207246 0)
(7.35399 0.0309606 0)
(7.3715 0.0370912 0)
(7.39054 0.0396863 0)
(7.41008 0.0395384 0)
(7.42945 0.0373777 0)
(7.44816 0.0338879 0)
(7.46601 0.0296279 0)
(7.48292 0.0249994 0)
(7.49891 0.0202788 0)
(7.514 0.0156502 0)
(7.52824 0.011227 0)
(7.54169 0.00707211 0)
(7.55441 0.00321444 0)
(7.56644 -0.000338935 0)
(7.57782 -0.00359471 0)
(7.58861 -0.00656714 0)
(7.59884 -0.00927369 0)
(7.60854 -0.0117319 0)
(7.61774 -0.0139575 0)
(7.62648 -0.0159623 0)
(7.63478 -0.0177532 0)
(7.64268 -0.0193315 0)
(7.65018 -0.0206916 0)
(7.65733 -0.0218208 0)
(7.66415 -0.0226989 0)
(7.67068 -0.0232977 0)
(7.67694 -0.0235814 0)
(7.683 -0.0235072 0)
(7.68891 -0.0230272 0)
(7.69474 -0.0220857 0)
(7.70058 -0.0206482 0)
(7.33356 0.00526073 0)
(7.33936 0.0151563 0)
(7.35125 0.0226384 0)
(7.36685 0.0270146 0)
(7.38423 0.0286154 0)
(7.40244 0.0280078 0)
(7.42081 0.0257533 0)
(7.43885 0.0223933 0)
(7.45627 0.0183861 0)
(7.47297 0.0140733 0)
(7.48888 0.00969575 0)
(7.50399 0.00541678 0)
(7.51833 0.0013386 0)
(7.53191 -0.00248096 0)
(7.54479 -0.00601519 0)
(7.55698 -0.00925787 0)
(7.56854 -0.0122157 0)
(7.5795 -0.0149027 0)
(7.58989 -0.0173358 0)
(7.59976 -0.0195325 0)
(7.60913 -0.0215082 0)
(7.61803 -0.023275 0)
(7.6265 -0.0248403 0)
(7.63457 -0.0262067 0)
(7.64227 -0.0273707 0)
(7.64964 -0.0283231 0)
(7.65671 -0.0290484 0)
(7.66352 -0.0295257 0)
(7.67012 -0.0297285 0)
(7.67657 -0.0296266 0)
(7.68292 -0.0291879 0)
(7.68927 -0.0283766 0)
(7.69568 -0.027177 0)
(7.33349 0.0035266 0)
(7.3386 0.0101389 0)
(7.34915 0.0150134 0)
(7.36326 0.017592 0)
(7.3793 0.018059 0)
(7.39641 0.0168151 0)
(7.41395 0.0142865 0)
(7.43142 0.0108949 0)
(7.4485 0.00700716 0)
(7.46502 0.00290443 0)
(7.48088 -0.00121156 0)
(7.49604 -0.00520316 0)
(7.51049 -0.00898405 0)
(7.52422 -0.0125061 0)
(7.53727 -0.0157483 0)
(7.54964 -0.0187082 0)
(7.56138 -0.0213945 0)
(7.57252 -0.0238224 0)
(7.58309 -0.0260099 0)
(7.59313 -0.0279751 0)
(7.60266 -0.029734 0)
(7.61173 -0.0312998 0)
(7.62037 -0.0326815 0)
(7.62862 -0.0338835 0)
(7.63651 -0.0349054 0)
(7.64409 -0.0357422 0)
(7.65139 -0.0363841 0)
(7.65846 -0.0368174 0)
(7.66536 -0.0370254 0)
(7.67214 -0.0369894 0)
(7.67887 -0.0366911 0)
(7.68563 -0.0361117 0)
(7.69248 -0.0352496 0)
(7.33344 0.00194113 0)
(7.33803 0.00552979 0)
(7.34759 0.00791277 0)
(7.36054 0.00866515 0)
(7.37553 0.00788847 0)
(7.39178 0.00586541 0)
(7.40866 0.00291531 0)
(7.42568 -0.000638439 0)
(7.4425 -0.00450964 0)
(7.4589 -0.00847522 0)
(7.47476 -0.0123742 0)
(7.48999 -0.0160978 0)
(7.50456 -0.0195792 0)
(7.51844 -0.0227844 0)
(7.53166 -0.0257021 0)
(7.54421 -0.0283366 0)
(7.55613 -0.0307018 0)
(7.56744 -0.0328168 0)
(7.57818 -0.0347026 0)
(7.58838 -0.0363799 0)
(7.59807 -0.0378673 0)
(7.6073 -0.0391803 0)
(7.61609 -0.0403308 0)
(7.6245 -0.0413263 0)
(7.63256 -0.0421705 0)
(7.64032 -0.042863 0)
(7.64782 -0.0434004 0)
(7.65511 -0.0437762 0)
(7.66225 -0.0439828 0)
(7.66929 -0.044012 0)
(7.67631 -0.0438574 0)
(7.68337 -0.0435145 0)
(7.69054 -0.0429917 0)
(7.33341 0.000459413 0)
(7.33763 0.00120637 0)
(7.34646 0.00117892 0)
(7.35857 7.67839e-05 0)
(7.37279 -0.00203971 0)
(7.3884 -0.00497119 0)
(7.40482 -0.00848268 0)
(7.42154 -0.012334 0)
(7.43821 -0.0163112 0)
(7.45458 -0.0202472 0)
(7.4705 -0.0240226 0)
(7.48586 -0.0275594 0)
(7.5006 -0.0308133 0)
(7.51468 -0.0337664 0)
(7.52809 -0.0364191 0)
(7.54085 -0.0387842 0)
(7.55297 -0.0408821 0)
(7.56447 -0.042737 0)
(7.57539 -0.0443738 0)
(7.58575 -0.0458167 0)
(7.59561 -0.0470872 0)
(7.60499 -0.048204 0)
(7.61393 -0.0491821 0)
(7.62249 -0.0500328 0)
(7.6307 -0.050764 0)
(7.63861 -0.0513804 0)
(7.64627 -0.0518841 0)
(7.65373 -0.0522758 0)
(7.66105 -0.0525555 0)
(7.66829 -0.0527239 0)
(7.6755 -0.0527839 0)
(7.68276 -0.0527414 0)
(7.69011 -0.052611 0)
(7.33338 -0.000956842 0)
(7.33735 -0.00293862 0)
(7.3457 -0.00533179 0)
(7.35725 -0.00831939 0)
(7.37094 -0.0118532 0)
(7.38615 -0.0157881 0)
(7.40229 -0.0199527 0)
(7.41886 -0.0241747 0)
(7.43548 -0.028304 0)
(7.45191 -0.0322265 0)
(7.46795 -0.0358658 0)
(7.48348 -0.0391779 0)
(7.49841 -0.0421455 0)
(7.51269 -0.0447713 0)
(7.52632 -0.047072 0)
(7.53928 -0.0490732 0)
(7.5516 -0.0508049 0)
(7.56328 -0.0522991 0)
(7.57437 -0.053587 0)
(7.58489 -0.0546979 0)
(7.59488 -0.0556581 0)
(7.60439 -0.0564902 0)
(7.61346 -0.0572131 0)
(7.62214 -0.0578424 0)
(7.63046 -0.0583903 0)
(7.63849 -0.0588664 0)
(7.64626 -0.0592781 0)
(7.65384 -0.0596323 0)
(7.66128 -0.0599355 0)
(7.66862 -0.0601953 0)
(7.67594 -0.0604221 0)
(7.6833 -0.0606297 0)
(7.69074 -0.0608362 0)
(7.33337 -0.00234363 0)
(7.3372 -0.00700745 0)
(7.34527 -0.0117662 0)
(7.35651 -0.0166947 0)
(7.36996 -0.0217424 0)
(7.38501 -0.0268031 0)
(7.40109 -0.0317578 0)
(7.4177 -0.0364941 0)
(7.43446 -0.0409192 0)
(7.45108 -0.044969 0)
(7.46736 -0.0486076 0)
(7.48315 -0.0518243 0)
(7.49836 -0.0546279 0)
(7.51292 -0.0570419 0)
(7.52681 -0.0590994 0)
(7.54002 -0.0608388 0)
(7.55256 -0.0623007 0)
(7.56445 -0.0635254 0)
(7.57571 -0.0645513 0)
(7.58639 -0.0654136 0)
(7.59653 -0.0661437 0)
(7.60616 -0.066769 0)
(7.61534 -0.067313 0)
(7.6241 -0.0677955 0)
(7.63251 -0.0682333 0)
(7.64061 -0.0686404 0)
(7.64845 -0.0690295 0)
(7.65609 -0.0694122 0)
(7.66357 -0.0698001 0)
(7.67095 -0.0702061 0)
(7.67828 -0.0706452 0)
(7.68562 -0.0711358 0)
(7.693 -0.0716964 0)
(7.33336 -0.00373608 0)
(7.33715 -0.0110968 0)
(7.34514 -0.0182554 0)
(7.35632 -0.0251778 0)
(7.36976 -0.0317942 0)
(7.38486 -0.0380185 0)
(7.40107 -0.0437711 0)
(7.41788 -0.0489918 0)
(7.43489 -0.0536441 0)
(7.45181 -0.0577167 0)
(7.4684 -0.0612212 0)
(7.48451 -0.0641869 0)
(7.50003 -0.0666564 0)
(7.5149 -0.0686802 0)
(7.52907 -0.070313 0)
(7.54254 -0.0716107 0)
(7.5553 -0.0726272 0)
(7.56739 -0.0734136 0)
(7.57883 -0.0740167 0)
(7.58966 -0.0744783 0)
(7.59992 -0.0748354 0)
(7.60965 -0.0751202 0)
(7.61891 -0.0753604 0)
(7.62774 -0.0755797 0)
(7.63619 -0.0757987 0)
(7.64432 -0.0760353 0)
(7.65218 -0.0763057 0)
(7.65981 -0.0766252 0)
(7.66727 -0.0770095 0)
(7.67461 -0.0774747 0)
(7.68188 -0.0780387 0)
(7.68913 -0.0787238 0)
(7.69639 -0.0795467 0)
(7.33337 -0.00517093 0)
(7.33721 -0.0153189 0)
(7.34534 -0.0249844 0)
(7.35673 -0.0340341 0)
(7.37046 -0.0423829 0)
(7.38593 -0.0499644 0)
(7.40258 -0.0567348 0)
(7.41987 -0.0626788 0)
(7.43738 -0.067807 0)
(7.4548 -0.072152 0)
(7.47188 -0.0757647 0)
(7.48846 -0.0787092 0)
(7.50441 -0.0810578 0)
(7.51967 -0.0828864 0)
(7.53418 -0.0842715 0)
(7.54795 -0.0852867 0)
(7.56098 -0.086001 0)
(7.57328 -0.0864781 0)
(7.5849 -0.086775 0)
(7.59587 -0.0869421 0)
(7.60623 -0.0870237 0)
(7.61604 -0.087058 0)
(7.62535 -0.0870778 0)
(7.6342 -0.0871115 0)
(7.64265 -0.0871835 0)
(7.65076 -0.0873155 0)
(7.65857 -0.0875267 0)
(7.66613 -0.0878353 0)
(7.67349 -0.0882592 0)
(7.6807 -0.0888163 0)
(7.68781 -0.0895252 0)
(7.69485 -0.0904082 0)
(7.70186 -0.0914792 0)
(7.33338 -0.00668656 0)
(7.33738 -0.0197694 0)
(7.34583 -0.0320509 0)
(7.35765 -0.0432763 0)
(7.37189 -0.0533273 0)
(7.38794 -0.0621493 0)
(7.40519 -0.0697381 0)
(7.4231 -0.0761378 0)
(7.44124 -0.0814258 0)
(7.45927 -0.0856984 0)
(7.47694 -0.0890631 0)
(7.49406 -0.0916322 0)
(7.51052 -0.0935175 0)
(7.52622 -0.0948267 0)
(7.54114 -0.0956607 0)
(7.55525 -0.0961126 0)
(7.56857 -0.0962663 0)
(7.58111 -0.0961966 0)
(7.59292 -0.0959694 0)
(7.60403 -0.095642 0)
(7.6145 -0.095264 0)
(7.62437 -0.094878 0)
(7.63371 -0.0945203 0)
(7.64256 -0.0942224 0)
(7.65098 -0.0940112 0)
(7.65902 -0.0939105 0)
(7.66674 -0.0939416 0)
(7.67418 -0.0941242 0)
(7.6814 -0.0944772 0)
(7.68843 -0.0950192 0)
(7.69533 -0.0957688 0)
(7.70212 -0.0967485 0)
(7.70886 -0.0979681 0)
(7.33341 -0.00833681 0)
(7.33771 -0.0246387 0)
(7.34679 -0.0398414 0)
(7.35946 -0.053592 0)
(7.37468 -0.0657598 0)
(7.39178 -0.0762992 0)
(7.4101 -0.0852242 0)
(7.42905 -0.0926095 0)
(7.44816 -0.0985712 0)
(7.46708 -0.103248 0)
(7.48555 -0.106792 0)
(7.50339 -0.109358 0)
(7.52046 -0.111097 0)
(7.53669 -0.112152 0)
(7.55204 -0.112655 0)
(7.56652 -0.112726 0)
(7.58012 -0.11247 0)
(7.59288 -0.111979 0)
(7.60485 -0.111334 0)
(7.61608 -0.110603 0)
(7.6266 -0.109845 0)
(7.63649 -0.109108 0)
(7.64581 -0.108434 0)
(7.6546 -0.107858 0)
(7.66292 -0.107411 0)
(7.67083 -0.107117 0)
(7.67838 -0.106999 0)
(7.68563 -0.107077 0)
(7.69261 -0.10737 0)
(7.69937 -0.107895 0)
(7.70595 -0.108669 0)
(7.71238 -0.10971 0)
(7.71869 -0.111024 0)
(7.33345 -0.0101666 0)
(7.33812 -0.0299678 0)
(7.34797 -0.0481788 0)
(7.36166 -0.064288 0)
(7.37799 -0.0781581 0)
(7.39627 -0.0898026 0)
(7.41581 -0.0993275 0)
(7.43595 -0.106913 0)
(7.45622 -0.112773 0)
(7.47622 -0.117127 0)
(7.49569 -0.120191 0)
(7.51442 -0.122171 0)
(7.53228 -0.123256 0)
(7.54919 -0.123619 0)
(7.56512 -0.123413 0)
(7.58007 -0.122775 0)
(7.59405 -0.121823 0)
(7.60711 -0.120659 0)
(7.6193 -0.119372 0)
(7.63067 -0.118035 0)
(7.64127 -0.116713 0)
(7.65119 -0.115456 0)
(7.66048 -0.114311 0)
(7.66919 -0.113314 0)
(7.6774 -0.112497 0)
(7.68516 -0.111886 0)
(7.69251 -0.111503 0)
(7.69953 -0.11137 0)
(7.70624 -0.111503 0)
(7.7127 -0.11192 0)
(7.71895 -0.112633 0)
(7.72502 -0.113662 0)
(7.73095 -0.115005 0)
(7.33353 -0.0122967 0)
(7.33895 -0.0363109 0)
(7.35027 -0.0584045 0)
(7.36583 -0.0779476 0)
(7.38418 -0.0947638 0)
(7.40447 -0.108817 0)
(7.4259 -0.120189 0)
(7.44776 -0.129083 0)
(7.46954 -0.135768 0)
(7.49087 -0.140536 0)
(7.51147 -0.143678 0)
(7.53116 -0.145475 0)
(7.54981 -0.146184 0)
(7.56738 -0.146036 0)
(7.58384 -0.145232 0)
(7.5992 -0.143946 0)
(7.6135 -0.142327 0)
(7.62678 -0.1405 0)
(7.63911 -0.138568 0)
(7.65054 -0.136617 0)
(7.66116 -0.134719 0)
(7.67102 -0.13293 0)
(7.6802 -0.131299 0)
(7.68876 -0.129863 0)
(7.69676 -0.128655 0)
(7.70428 -0.127699 0)
(7.71135 -0.127018 0)
(7.71804 -0.126629 0)
(7.72439 -0.126547 0)
(7.73045 -0.126786 0)
(7.73625 -0.127355 0)
(7.74182 -0.128268 0)
(7.74719 -0.129516 0)
(7.33356 -0.0147346 0)
(7.33958 -0.0431666 0)
(7.35222 -0.0685834 0)
(7.3695 -0.0902627 0)
(7.3898 -0.108267 0)
(7.41221 -0.122824 0)
(7.43582 -0.13423 0)
(7.45984 -0.142851 0)
(7.48365 -0.149065 0)
(7.50683 -0.153226 0)
(7.52908 -0.155671 0)
(7.55019 -0.156708 0)
(7.57006 -0.156614 0)
(7.58864 -0.155637 0)
(7.60591 -0.153993 0)
(7.62192 -0.151869 0)
(7.6367 -0.149426 0)
(7.65034 -0.146797 0)
(7.66291 -0.144097 0)
(7.67449 -0.141418 0)
(7.68516 -0.138837 0)
(7.695 -0.136417 0)
(7.70409 -0.134207 0)
(7.71251 -0.132249 0)
(7.72032 -0.130575 0)
(7.72759 -0.129212 0)
(7.73438 -0.128179 0)
(7.74075 -0.127494 0)
(7.74675 -0.12717 0)
(7.75241 -0.127218 0)
(7.7578 -0.127644 0)
(7.76293 -0.128459 0)
(7.76786 -0.129647 0)
(7.33382 -0.017932 0)
(7.34182 -0.0530161 0)
(7.35783 -0.0847934 0)
(7.37887 -0.11215 0)
(7.40273 -0.134851 0)
(7.42832 -0.152918 0)
(7.45471 -0.166658 0)
(7.48109 -0.176593 0)
(7.50691 -0.183297 0)
(7.5318 -0.187321 0)
(7.55549 -0.18918 0)
(7.57781 -0.189332 0)
(7.59869 -0.188172 0)
(7.61808 -0.186033 0)
(7.63601 -0.183196 0)
(7.65252 -0.179889 0)
(7.66768 -0.176302 0)
(7.68156 -0.172587 0)
(7.69426 -0.168865 0)
(7.70587 -0.165234 0)
(7.71649 -0.161772 0)
(7.72619 -0.158539 0)
(7.73507 -0.155583 0)
(7.74322 -0.152939 0)
(7.7507 -0.150637 0)
(7.75758 -0.148699 0)
(7.76394 -0.147142 0)
(7.76982 -0.145978 0)
(7.77529 -0.145217 0)
(7.78038 -0.144865 0)
(7.78515 -0.144924 0)
(7.78961 -0.1454 0)
(7.79382 -0.146269 0)
(7.3337 -0.0213926 0)
(7.34215 -0.0614663 0)
(7.36011 -0.095386 0)
(7.38416 -0.123108 0)
(7.41178 -0.14554 0)
(7.44159 -0.163186 0)
(7.47223 -0.176512 0)
(7.50258 -0.18607 0)
(7.53195 -0.192391 0)
(7.5599 -0.195972 0)
(7.58615 -0.19729 0)
(7.61054 -0.196787 0)
(7.63304 -0.194862 0)
(7.65366 -0.191867 0)
(7.67248 -0.188105 0)
(7.68959 -0.183835 0)
(7.7051 -0.179272 0)
(7.71915 -0.174591 0)
(7.73184 -0.169935 0)
(7.7433 -0.165418 0)
(7.75366 -0.161127 0)
(7.76302 -0.15713 0)
(7.77147 -0.153479 0)
(7.77913 -0.150213 0)
(7.78606 -0.147359 0)
(7.79235 -0.144937 0)
(7.79807 -0.142964 0)
(7.80327 -0.141447 0)
(7.80803 -0.140395 0)
(7.81239 -0.13981 0)
(7.8164 -0.139691 0)
(7.8201 -0.14004 0)
(7.82356 -0.140824 0)
(7.33482 -0.0277852 0)
(7.34958 -0.0822543 0)
(7.37534 -0.129455 0)
(7.40583 -0.167521 0)
(7.43829 -0.196784 0)
(7.47192 -0.218034 0)
(7.50564 -0.23251 0)
(7.53849 -0.241539 0)
(7.56991 -0.246258 0)
(7.59952 -0.247627 0)
(7.62708 -0.24645 0)
(7.65247 -0.243381 0)
(7.67568 -0.238945 0)
(7.69677 -0.233565 0)
(7.71584 -0.227578 0)
(7.73302 -0.22125 0)
(7.74846 -0.214793 0)
(7.76232 -0.208373 0)
(7.77474 -0.202119 0)
(7.78587 -0.196129 0)
(7.79584 -0.19048 0)
(7.8048 -0.185227 0)
(7.81284 -0.180409 0)
(7.82007 -0.176055 0)
(7.82658 -0.172185 0)
(7.83246 -0.168811 0)
(7.83777 -0.165943 0)
(7.84258 -0.163585 0)
(7.84695 -0.161743 0)
(7.85093 -0.160418 0)
(7.85456 -0.15961 0)
(7.85791 -0.159318 0)
(7.86101 -0.159505 0)
(7.3338 -0.0315969 0)
(7.34771 -0.0858544 0)
(7.37794 -0.128444 0)
(7.41606 -0.163467 0)
(7.4572 -0.192187 0)
(7.49909 -0.214275 0)
(7.53983 -0.230169 0)
(7.57843 -0.240635 0)
(7.6146 -0.246415 0)
(7.64825 -0.248305 0)
(7.67943 -0.247109 0)
(7.70827 -0.243562 0)
(7.73491 -0.238303 0)
(7.7595 -0.231875 0)
(7.7822 -0.22472 0)
(7.80314 -0.217191 0)
(7.82246 -0.209563 0)
(7.84027 -0.202046 0)
(7.8567 -0.194795 0)
(7.87186 -0.187926 0)
(7.88585 -0.181516 0)
(7.89879 -0.175621 0)
(7.91075 -0.170275 0)
(7.92184 -0.165497 0)
(7.93214 -0.161297 0)
(7.9417 -0.157677 0)
(7.95062 -0.154637 0)
(7.95893 -0.152174 0)
(7.96671 -0.15029 0)
(7.97401 -0.148987 0)
(7.9809 -0.148274 0)
(7.98744 -0.14816 0)
(7.99373 -0.148619 0)
(7.33892 -0.0541541 0)
(7.37194 -0.150868 0)
(7.4147 -0.219587 0)
(7.45828 -0.26598 0)
(7.50477 -0.296219 0)
(7.55504 -0.314264 0)
(7.60755 -0.323815 0)
(7.66117 -0.327562 0)
(7.715 -0.327208 0)
(7.76802 -0.323922 0)
(7.81933 -0.318524 0)
(7.86828 -0.311603 0)
(7.91441 -0.303601 0)
(7.95744 -0.294869 0)
(7.99722 -0.285693 0)
(8.03376 -0.276311 0)
(8.06712 -0.266924 0)
(8.09745 -0.257697 0)
(8.12494 -0.248765 0)
(8.1498 -0.240237 0)
(8.17224 -0.232192 0)
(8.19248 -0.224692 0)
(8.21073 -0.217778 0)
(8.22718 -0.211476 0)
(8.24202 -0.2058 0)
(8.25539 -0.200758 0)
(8.26745 -0.196351 0)
(8.2783 -0.192582 0)
(8.28806 -0.18946 0)
(8.2968 -0.186996 0)
(8.30464 -0.185246 0)
(8.31164 -0.184218 0)
(8.31797 -0.184078 0)
(7.33756 -0.040224 0)
(7.38849 -0.105177 0)
(7.47764 -0.162477 0)
(7.57909 -0.217704 0)
(7.68673 -0.264593 0)
(7.79544 -0.300808 0)
(7.89924 -0.327009 0)
(7.99468 -0.343909 0)
(8.07981 -0.352605 0)
(8.15359 -0.354583 0)
(8.21585 -0.35132 0)
(8.26703 -0.344145 0)
(8.3079 -0.334203 0)
(8.33947 -0.322443 0)
(8.36283 -0.30962 0)
(8.37907 -0.296322 0)
(8.38924 -0.282997 0)
(8.39427 -0.269973 0)
(8.39501 -0.257486 0)
(8.3922 -0.245697 0)
(8.38647 -0.234708 0)
(8.37835 -0.224576 0)
(8.36828 -0.215325 0)
(8.35664 -0.206953 0)
(8.34371 -0.199441 0)
(8.32974 -0.192756 0)
(8.31491 -0.186859 0)
(8.29934 -0.181711 0)
(8.28313 -0.177282 0)
(8.26628 -0.173554 0)
(8.24891 -0.17062 0)
(8.23072 -0.168441 0)
(8.21234 -0.167952 0)
(7.39943 -0.196639 0)
(7.59545 -0.375687 0)
(7.76801 -0.458311 0)
(7.89503 -0.511851 0)
(7.97856 -0.540168 0)
(8.01672 -0.54912 0)
(8.0138 -0.545354 0)
(7.9782 -0.532242 0)
(7.91757 -0.512302 0)
(7.83853 -0.487809 0)
(7.74682 -0.460565 0)
(7.64719 -0.43197 0)
(7.54331 -0.403106 0)
(7.43799 -0.374781 0)
(7.33331 -0.347568 0)
(7.23072 -0.321846 0)
(7.13123 -0.297845 0)
(7.03547 -0.27568 0)
(6.94379 -0.255381 0)
(6.85634 -0.236919 0)
(6.77314 -0.220225 0)
(6.69408 -0.205201 0)
(6.619 -0.191736 0)
(6.5477 -0.179709 0)
(6.47993 -0.168993 0)
(6.41545 -0.159462 0)
(6.35399 -0.150981 0)
(6.29529 -0.143423 0)
(6.23905 -0.136633 0)
(6.18487 -0.130471 0)
(6.13242 -0.124841 0)
(6.08063 -0.118976 0)
(6.02994 -0.11615 0)
(7.16016 -0.18581 0)
(6.91119 -0.344989 0)
(6.50045 -0.392223 0)
(6.03738 -0.393635 0)
(5.59802 -0.365492 0)
(5.18265 -0.321619 0)
(4.7953 -0.27293 0)
(4.44273 -0.225041 0)
(4.12547 -0.180933 0)
(3.84183 -0.14208 0)
(3.58975 -0.108874 0)
(3.36665 -0.0811211 0)
(3.16966 -0.0583351 0)
(2.99596 -0.0398928 0)
(2.84287 -0.0251416 0)
(2.70788 -0.0134657 0)
(2.58872 -0.00431583 0)
(2.48335 0.00278001 0)
(2.38996 0.00821763 0)
(2.30695 0.0123233 0)
(2.23291 0.0153631 0)
(2.16663 0.0175526 0)
(2.10705 0.0190667 0)
(2.05324 0.0200479 0)
(2.0044 0.0206176 0)
(1.95988 0.0208811 0)
(1.91906 0.0209541 0)
(1.88157 0.0209549 0)
(1.84686 0.0210973 0)
(1.8151 0.0216819 0)
(1.7854 0.0230087 0)
(1.75965 0.0276238 0)
(1.73605 0.0226491 0)
(1.34895 0.0368099 0)
(1.67386 0.0748395 0)
(1.94916 -0.0335782 0)
(2.06672 -0.252844 0)
(1.996 -0.485812 0)