/*--------------------------------*- C++ -*----------------------------------*\
  =========                 |
  \\      /  F ield         | OpenFOAM: The Open Source CFD Toolbox
   \\    /   O peration     | Website:  https://openfoam.org
    \\  /    A nd           | Version:  10
     \\/     M anipulation  |
\*---------------------------------------------------------------------------*/
FoamFile
{
    format      ascii;
    class       volScalarField;
    location    "0.1";
    object      k;
}
// * * * * * * * * * * * * * * * * * * * * * * * * * * * * * * * * * * * * * //

dimensions      [0 2 -2 0 0 0 0];

internalField   nonuniform List<scalar> 
6820
(
0.198343
0.194803
0.191197
0.187561
0.183942
0.180363
0.176835
0.173358
0.169932
0.166553
0.163218
0.15992
0.156653
0.153411
0.150186
0.146967
0.143746
0.140508
0.137239
0.133923
0.130537
0.127058
0.123458
0.119701
0.115751
0.111563
0.10709
0.10228
0.0970819
0.0914339
0.0852932
0.0786921
0.0707819
0.200926
0.200913
0.200497
0.200067
0.19964
0.199208
0.198766
0.198313
0.197848
0.197372
0.196887
0.196395
0.195898
0.195399
0.1949
0.194401
0.193905
0.193411
0.19292
0.19243
0.191938
0.191438
0.190923
0.19038
0.189791
0.189131
0.188365
0.187449
0.186331
0.184933
0.18321
0.180969
0.178489
0.236711
0.0168626
0.0579084
0.00654701
0.00789018
0.00815257
0.00976312
0.0118477
0.0141001
0.0164741
0.0189419
0.021489
0.0241092
0.0268002
0.0295635
0.0324035
0.0353276
0.0383462
0.0414727
0.0447236
0.0481188
0.0516811
0.0554359
0.0594107
0.0636332
0.0681296
0.0729215
0.0780218
0.0834301
0.0891296
0.0950771
0.101221
0.107442
0.210772
0.147982
0.104935
0.0796549
0.0640468
0.0534701
0.0456703
0.0395438
0.034519
0.0302754
0.0266197
0.0234289
0.0206217
0.0181436
0.0159585
0.0140435
0.0123853
0.0109766
0.00981353
0.0088925
0.00820838
0.00775478
0.00752608
0.00752055
0.00774352
0.00820988
0.00894558
0.00998871
0.0113875
0.0132005
0.0154776
0.0182943
0.0216005
0.223479
0.0825546
0.0208076
0.00396198
0.000593362
0.000396532
0.000750267
0.00109986
0.00139032
0.00164181
0.00186807
0.00207269
0.00225441
0.0024106
0.00253867
0.00263661
0.00270306
0.00273728
0.002739
0.00270834
0.00264558
0.00255116
0.00242567
0.00226989
0.00208515
0.0018735
0.00163919
0.00138765
0.00113117
0.00088725
0.00067674
0.000532991
0.000486012
0.217295
0.113876
0.0523698
0.0287116
0.0196759
0.0153038
0.0122231
0.00945448
0.00683638
0.00452902
0.00273256
0.00151589
0.00079132
0.000402867
0.000210058
0.00011935
7.89761e-05
6.34188e-05
6.07474e-05
6.52286e-05
7.38382e-05
8.45333e-05
9.51162e-05
0.000104136
0.000105993
0.000108439
2.33912e-05
0.000398943
0.000598551
0.000333523
1.88171e-05
3.14815e-05
1.33797e-05
0.213254
0.134191
0.0660011
0.0328311
0.0189704
0.0130732
0.010274
0.00877422
0.00789111
0.0074013
0.0071053
0.00687227
0.00666479
0.00647034
0.00627935
0.00608288
0.00587503
0.00565473
0.00542509
0.00519085
0.00495598
0.00472317
0.00449425
0.00427021
0.00405096
0.00383701
0.00362574
0.00342448
0.00322467
0.00301673
0.00280722
0.00259579
0.00236963
0.203647
0.182062
0.128917
0.0702087
0.035144
0.0189342
0.0118287
0.00854184
0.00687803
0.00611319
0.00581398
0.00567264
0.00559273
0.0055412
0.00550124
0.00546511
0.00543274
0.00540807
0.00539416
0.00539017
0.00539222
0.00539499
0.0053939
0.00538629
0.00537161
0.00535024
0.00532308
0.00528791
0.0052454
0.00519468
0.00513198
0.0050533
0.00496131
0.202212
0.18903
0.164945
0.12343
0.0787211
0.0464113
0.0274098
0.0170791
0.0115162
0.00894421
0.0080384
0.00768497
0.00752062
0.00743238
0.00736439
0.00729202
0.00722119
0.00717523
0.00717417
0.00722083
0.00730186
0.00739676
0.00748875
0.00757078
0.00764429
0.00771354
0.00777983
0.00783871
0.00788098
0.00789605
0.00787561
0.00781601
0.00771968
0.201517
0.192477
0.179869
0.160458
0.128137
0.0902471
0.0584322
0.0369929
0.0243966
0.018669
0.0168238
0.0161637
0.0159261
0.0158881
0.0159417
0.0160312
0.0161551
0.0163496
0.0166481
0.0170532
0.0175352
0.0180479
0.0185522
0.0190291
0.0194767
0.0198976
0.0202858
0.020622
0.020877
0.0210206
0.021031
0.0208981
0.0206301
0.201047
0.19481
0.186503
0.176419
0.161278
0.1389
0.111518
0.0850442
0.0647731
0.0541548
0.049819
0.0474954
0.0460061
0.045064
0.0445499
0.0443686
0.0444432
0.0447006
0.0451084
0.0456464
0.0462822
0.0469684
0.0476553
0.0483032
0.0488868
0.0493911
0.0498029
0.0501041
0.050272
0.0502836
0.0501199
0.0497658
0.0492226
0.200747
0.196299
0.190719
0.184843
0.177445
0.16673
0.151769
0.134212
0.118149
0.107194
0.101096
0.0968292
0.0934731
0.0908637
0.0889398
0.0875995
0.0867332
0.0861724
0.0858362
0.0856803
0.0856665
0.0857545
0.0859015
0.0860656
0.0862087
0.0862989
0.0863168
0.0862482
0.0860821
0.0858063
0.0854071
0.0848643
0.084163
0.200545
0.197299
0.193416
0.189732
0.185822
0.181015
0.174649
0.166581
0.157879
0.150073
0.143994
0.138908
0.134324
0.130256
0.12678
0.123849
0.121441
0.11949
0.117937
0.116716
0.115766
0.115026
0.114447
0.113977
0.113572
0.113194
0.112821
0.112438
0.112032
0.111592
0.111103
0.110545
0.109894
0.200412
0.197957
0.195155
0.192776
0.190643
0.188379
0.18554
0.181806
0.177318
0.172579
0.168028
0.163791
0.159672
0.155766
0.152204
0.14903
0.146264
0.143889
0.141866
0.14014
0.13866
0.137379
0.136256
0.135255
0.134347
0.133509
0.132721
0.131969
0.131241
0.130523
0.129801
0.129056
0.128265
0.200324
0.198395
0.196283
0.194665
0.193451
0.19238
0.191128
0.189388
0.187029
0.184136
0.180866
0.177352
0.173639
0.1699
0.166312
0.162999
0.160023
0.157401
0.155118
0.15314
0.151424
0.149926
0.148606
0.147428
0.146364
0.145393
0.144497
0.14366
0.142867
0.142102
0.141351
0.140595
0.13981
0.200266
0.198683
0.197003
0.195824
0.195085
0.194565
0.193982
0.193068
0.191662
0.189747
0.187333
0.18451
0.181411
0.178209
0.175058
0.172067
0.169303
0.166794
0.164544
0.16254
0.16076
0.159175
0.157759
0.156487
0.155336
0.154288
0.153324
0.15243
0.151591
0.15079
0.150013
0.149243
0.148458
0.20023
0.198864
0.197443
0.1965
0.195982
0.195692
0.19539
0.194849
0.193896
0.192443
0.190473
0.188061
0.185343
0.182475
0.179598
0.17682
0.174211
0.171812
0.169633
0.167673
0.165917
0.164346
0.16294
0.161678
0.16054
0.159508
0.158565
0.157694
0.156882
0.156113
0.155373
0.15465
0.153921
0.200209
0.198968
0.19768
0.196832
0.196381
0.196144
0.19591
0.195473
0.194676
0.193431
0.191734
0.189656
0.18731
0.184823
0.182309
0.179859
0.177532
0.175364
0.173368
0.171547
0.169891
0.168388
0.167023
0.165781
0.164645
0.163602
0.162638
0.16174
0.160897
0.160093
0.159315
0.158561
0.157815
0.200201
0.199011
0.197755
0.196896
0.196403
0.196109
0.195825
0.19537
0.194606
0.193459
0.191928
0.190068
0.187974
0.18575
0.183491
0.181274
0.179154
0.177164
0.17532
0.173625
0.172075
0.170659
0.169365
0.168181
0.167092
0.166085
0.165148
0.164269
0.163435
0.162623
0.161818
0.161037
0.160288
0.200202
0.199003
0.197699
0.196752
0.196142
0.195719
0.195315
0.194771
0.19397
0.192856
0.191431
0.189744
0.187872
0.185898
0.1839
0.181937
0.180054
0.178277
0.17662
0.175085
0.173668
0.172363
0.171158
0.170044
0.169008
0.168041
0.167131
0.166265
0.165418
0.164574
0.163727
0.162901
0.162138
0.200214
0.198947
0.197524
0.196424
0.195639
0.195033
0.194459
0.19378
0.192899
0.191773
0.190405
0.188838
0.187131
0.185352
0.183559
0.181802
0.180114
0.178517
0.177022
0.175631
0.174342
0.173147
0.172039
0.171008
0.170044
0.169136
0.168263
0.167405
0.166548
0.165685
0.164814
0.163962
0.163197
0.200236
0.198841
0.197226
0.195908
0.194893
0.19406
0.193278
0.192434
0.191446
0.190281
0.188946
0.187475
0.185914
0.184314
0.18272
0.181166
0.179678
0.17827
0.17695
0.175718
0.17457
0.173501
0.172502
0.171566
0.170679
0.169817
0.168962
0.168102
0.167232
0.166348
0.165451
0.164571
0.163781
0.200269
0.198676
0.196787
0.195182
0.193884
0.192784
0.191769
0.190741
0.189633
0.188417
0.187097
0.1857
0.18426
0.182812
0.181387
0.180011
0.178699
0.17746
0.176299
0.175215
0.174202
0.173255
0.172366
0.171522
0.170693
0.169863
0.169023
0.168169
0.167299
0.16641
0.165503
0.16461
0.163806
0.200317
0.19844
0.196176
0.194201
0.192559
0.191152
0.18988
0.188654
0.187418
0.186146
0.184838
0.18351
0.182185
0.180884
0.179628
0.178428
0.177295
0.176231
0.175237
0.174309
0.173442
0.172627
0.17184
0.17106
0.170272
0.169469
0.168648
0.167806
0.166942
0.166053
0.165143
0.164241
0.163425
0.200385
0.198106
0.195338
0.192894
0.190846
0.1891
0.18756
0.186141
0.184786
0.183465
0.182171
0.18091
0.179691
0.178525
0.17742
0.176381
0.175411
0.174508
0.173669
0.172889
0.172154
0.171444
0.170734
0.170011
0.16927
0.168507
0.16772
0.166908
0.166067
0.165197
0.1643
0.163408
0.162591
0.200483
0.197627
0.19417
0.191126
0.188588
0.186456
0.184627
0.18301
0.181541
0.180182
0.178916
0.177734
0.176634
0.175615
0.174675
0.17381
0.173016
0.172288
0.171619
0.170987
0.170365
0.169737
0.169094
0.168431
0.167745
0.167033
0.166292
0.16552
0.164715
0.163875
0.163004
0.16213
0.161322
0.200622
0.196941
0.192556
0.188764
0.185672
0.183146
0.18105
0.179269
0.177719
0.176347
0.175121
0.174022
0.173037
0.172154
0.171364
0.170658
0.170025
0.169452
0.168923
0.168408
0.167885
0.167347
0.166789
0.166207
0.165599
0.164959
0.164287
0.163577
0.16283
0.162043
0.161218
0.160383
0.1596
0.200829
0.195926
0.190239
0.185457
0.181674
0.178683
0.176294
0.17435
0.172736
0.17138
0.170232
0.169256
0.168428
0.167724
0.167126
0.166619
0.166174
0.165757
0.165352
0.164945
0.164528
0.164096
0.163644
0.163165
0.162656
0.162113
0.161531
0.160907
0.16024
0.159526
0.158767
0.157988
0.157245
0.201136
0.194415
0.186968
0.181012
0.176522
0.173125
0.170514
0.168465
0.166829
0.165508
0.16444
0.16358
0.162891
0.16234
0.161902
0.161556
0.16126
0.160986
0.16072
0.160452
0.160176
0.159882
0.159566
0.159221
0.158841
0.158422
0.157959
0.157449
0.156887
0.156272
0.155603
0.154904
0.154223
0.201631
0.191977
0.181896
0.174287
0.168861
0.164967
0.162126
0.160018
0.158435
0.157246
0.156365
0.155732
0.155285
0.154964
0.154731
0.154567
0.154449
0.15436
0.154286
0.154214
0.154135
0.154037
0.153913
0.153755
0.153556
0.153311
0.153014
0.152661
0.152247
0.151769
0.151226
0.150638
0.150045
0.202417
0.188104
0.17458
0.165225
0.158992
0.154727
0.151705
0.149518
0.14793
0.146798
0.146026
0.145541
0.145267
0.145141
0.145124
0.14519
0.145315
0.145479
0.145663
0.145851
0.146029
0.146184
0.146306
0.146386
0.146418
0.146393
0.146306
0.146152
0.145926
0.145625
0.145246
0.144804
0.144333
0.203854
0.181014
0.162034
0.15028
0.143159
0.138637
0.135596
0.133492
0.13205
0.131112
0.130571
0.130343
0.13036
0.130568
0.130921
0.131383
0.131921
0.132505
0.133111
0.133713
0.134294
0.134839
0.135334
0.13577
0.136139
0.136435
0.13665
0.13678
0.13682
0.136765
0.136612
0.136373
0.136073
0.207368
0.16369
0.134948
0.119795
0.111529
0.106627
0.103572
0.101681
0.100617
0.100183
0.100242
0.100685
0.101423
0.102387
0.103521
0.104782
0.10613
0.107528
0.108937
0.110323
0.111657
0.112917
0.114088
0.11516
0.116126
0.11698
0.117718
0.118336
0.118829
0.119193
0.119428
0.119538
0.119544
0.214591
0.127685
0.086407
0.06983
0.0627814
0.0594599
0.0578145
0.0570929
0.0569932
0.0573676
0.0581202
0.0591769
0.060479
0.0619814
0.0636495
0.0654529
0.0673589
0.0693294
0.0713229
0.0732986
0.0752214
0.0770639
0.0788065
0.0804357
0.0819416
0.0833162
0.0845528
0.0856455
0.0865894
0.087381
0.0880182
0.0885028
0.0888474
0.22173
0.0920169
0.0478376
0.0340187
0.0293338
0.0275396
0.026821
0.0266201
0.0267463
0.0271213
0.0277044
0.0284666
0.0293839
0.0304346
0.0315978
0.0328526
0.0341779
0.0355526
0.0369569
0.0383719
0.0397801
0.0411649
0.0425106
0.0438021
0.0450257
0.0461692
0.0472221
0.0481763
0.0490258
0.0497665
0.0503959
0.0509128
0.0513204
0.222114
0.0878947
0.0441541
0.0307179
0.0258281
0.0234143
0.0218111
0.020539
0.0194504
0.018502
0.0176853
0.017
0.0164444
0.0160113
0.015691
0.0154736
0.0153479
0.0153034
0.0153315
0.0154243
0.015574
0.0157721
0.0160093
0.0162754
0.0165599
0.0168529
0.0171453
0.0174287
0.0176957
0.0179396
0.0181553
0.0183344
0.0184909
0.21327
0.134506
0.089246
0.065323
0.0518305
0.0434349
0.0377073
0.0335141
0.0302808
0.0276921
0.0255614
0.0237665
0.0222256
0.020883
0.019698
0.0186396
0.017685
0.0168173
0.0160235
0.0152934
0.0146189
0.0139933
0.0134111
0.0128681
0.0123605
0.0118855
0.0114406
0.0110239
0.0106334
0.0102679
0.00992539
0.00960776
0.00930146
0.240254
0.000449372
0.0365967
4.64153e-05
0.0102972
0.00134341
0.0290954
0.00306211
0.00173672
0.000234133
0.00187411
0.00187335
0.00059562
0.000128047
0.000209044
0.000243056
0.000248397
0.000268061
0.000288074
0.000303849
0.0003184
0.000333094
0.000348257
0.000364314
0.000381189
0.000397546
0.000410912
0.000418889
0.00042078
0.000418398
0.000415232
0.000414716
0.000417965
0.200085
0.199941
0.199744
0.199548
0.199357
0.199169
0.198979
0.198786
0.198589
0.198384
0.198173
0.197954
0.197728
0.197494
0.197248
0.19699
0.196721
0.19644
0.196149
0.195849
0.195541
0.195227
0.194907
0.194583
0.194256
0.193929
0.193602
0.193276
0.192953
0.192635
0.192323
0.192021
0.191716
0.199876
0.19957
0.199242
0.198905
0.198567
0.198235
0.19791
0.197597
0.197294
0.197004
0.196726
0.196462
0.19621
0.19597
0.195743
0.195528
0.195324
0.19513
0.194947
0.194772
0.194606
0.194447
0.194294
0.194147
0.194005
0.193866
0.19373
0.193597
0.193464
0.193332
0.193199
0.193066
0.192931
0.064991
0.0633987
0.0662838
0.0802074
0.108352
0.119979
0.110422
0.104792
0.0944597
0.0778518
0.0616643
0.0523756
0.0521601
0.0594703
0.0708045
0.083145
0.0952977
0.105757
0.112613
0.114507
0.110486
0.0986483
0.0839059
0.0797234
0.0876629
0.0899047
0.0736699
0.045882
0.0212823
0.0079843
0.00599145
0.00408195
0.00387053
0.0409931
0.0961468
0.139017
0.169917
0.197533
0.226191
0.252519
0.272314
0.281955
0.280052
0.267382
0.246673
0.222572
0.19148
0.142266
0.0858268
0.0552187
0.061205
0.0848471
0.105367
0.115594
0.118066
0.117225
0.115771
0.114503
0.11313
0.110831
0.106496
0.0990534
0.088116
0.074721
0.0615737
0.0523573
0.0502951
0.05669
0.0702599
0.0876512
0.104805
0.118353
0.126412
0.12869
0.126115
0.120105
0.111836
0.101909
0.0905717
0.0781496
0.0653271
0.0531387
0.0427744
0.0353236
0.0315928
0.0319318
0.0361765
0.043678
0.0532588
0.0633086
0.0723167
0.0792035
0.0828583
0.08204
0.074719
0.060574
0.0465424
0.0394952
0.0444089
0.0523192
0.173332
0.165914
0.161985
0.163196
0.165028
0.164246
0.161816
0.159283
0.154261
0.128971
0.0908789
0.0633389
0.052095
0.0531679
0.0610444
0.0713498
0.0817494
0.0908934
0.0968357
0.0979898
0.0927287
0.0820433
0.0754551
0.0817711
0.0916084
0.0863459
0.0631117
0.0345912
0.0140034
0.00564287
0.00617296
0.00781158
0.00314545
0.0243085
0.0766215
0.125249
0.159381
0.185886
0.211509
0.235187
0.252835
0.261198
0.259749
0.248537
0.230426
0.208573
0.175085
0.121491
0.0701902
0.0522101
0.067044
0.0917479
0.109175
0.11623
0.11694
0.115494
0.113978
0.112802
0.111538
0.109345
0.105128
0.097811
0.0869943
0.0737054
0.0606738
0.0516414
0.0498801
0.0566765
0.0706503
0.0883052
0.105469
0.118771
0.126459
0.128439
0.12576
0.119822
0.111676
0.101827
0.0904912
0.0779973
0.065044
0.0527012
0.0422178
0.0347653
0.0312186
0.0319312
0.0366584
0.0446216
0.0545547
0.0648484
0.0739869
0.0808014
0.0840998
0.0826581
0.0745396
0.0596107
0.044967
0.0374017
0.0422722
0.0520168
0.114819
0.12233
0.12827
0.132661
0.136551
0.140806
0.145994
0.151723
0.158311
0.160711
0.14524
0.109637
0.0752809
0.0571306
0.0539799
0.0590533
0.0668044
0.0740563
0.0789054
0.0792134
0.0746834
0.0706756
0.0761019
0.0890445
0.0929218
0.0770264
0.0488324
0.0227056
0.00795961
0.00485505
0.00771296
0.0113961
0.00681167
0.0127335
0.0542441
0.106332
0.14596
0.173708
0.196695
0.217686
0.233511
0.24118
0.239997
0.229758
0.21422
0.193217
0.154138
0.0980533
0.0568235
0.0529639
0.0746613
0.0983246
0.111924
0.116011
0.115359
0.113566
0.112086
0.111014
0.109841
0.107736
0.103616
0.0964109
0.0857084
0.072541
0.0596678
0.0508831
0.049489
0.0567318
0.071114
0.0889984
0.106125
0.119146
0.12645
0.128125
0.12532
0.119391
0.111292
0.101487
0.0901706
0.0776522
0.0646243
0.052177
0.0416166
0.0342005
0.0308754
0.0320331
0.0373934
0.0460082
0.0563718
0.0667718
0.0758073
0.0825133
0.0858685
0.0846587
0.0767165
0.0615442
0.046231
0.0378167
0.0424389
0.053464
0.0263327
0.0325866
0.0389451
0.0447339
0.0506527
0.0581868
0.0683418
0.0814775
0.0984481
0.119905
0.139127
0.141558
0.121553
0.0922884
0.0700665
0.0598443
0.0582984
0.0605551
0.0630019
0.0640017
0.0655676
0.0731691
0.0871693
0.0957678
0.0862058
0.0607512
0.0322787
0.0121469
0.00448657
0.00621274
0.0109691
0.0152244
0.0128386
0.00858103
0.0329665
0.0819782
0.127435
0.159417
0.182118
0.2002
0.213995
0.221231
0.219965
0.211073
0.198
0.174061
0.127408
0.0741708
0.0482538
0.058087
0.0834752
0.104005
0.113433
0.114994
0.113422
0.111501
0.11011
0.109133
0.108031
0.105996
0.101963
0.0948596
0.0842725
0.0712434
0.0585698
0.050092
0.0491251
0.0568522
0.0716434
0.0897214
0.106756
0.119448
0.126333
0.127658
0.124636
0.118595
0.110487
0.100749
0.0895177
0.0770503
0.0640194
0.0515344
0.0409605
0.0336328
0.0305548
0.0321433
0.0380862
0.0473113
0.058135
0.0687439
0.0777765
0.0843994
0.0877653
0.086779
0.0791771
0.0640789
0.048347
0.0390796
0.0433256
0.055336
0.000632445
0.00116101
0.00210484
0.00339949
0.00513957
0.00774434
0.0119719
0.018933
0.0304553
0.0495409
0.0774395
0.107161
0.125074
0.123635
0.108319
0.0905119
0.0775673
0.0708732
0.0684343
0.0708167
0.0790188
0.0911989
0.0987083
0.0911194
0.0680265
0.0396056
0.0167178
0.00517299
0.00449258
0.00989069
0.0159651
0.0199239
0.0195634
0.0116709
0.0180948
0.0548335
0.102044
0.14008
0.165936
0.18351
0.195286
0.200996
0.199627
0.193077
0.17982
0.147505
0.0959378
0.0538686
0.0465357
0.0670172
0.0923238
0.108214
0.11368
0.113337
0.111247
0.109338
0.108047
0.107141
0.10609
0.104113
0.100159
0.0931542
0.0826846
0.0698125
0.057378
0.0492644
0.0487811
0.0570247
0.0722167
0.0904401
0.107313
0.119603
0.125994
0.126863
0.123493
0.117281
0.109195
0.0995915
0.0885154
0.0761672
0.0632021
0.0507504
0.0402287
0.033036
0.0302198
0.032206
0.0386524
0.0484033
0.0596384
0.070423
0.0793762
0.0857975
0.0891124
0.0884441
0.0814385
0.0667008
0.0507149
0.0405564
0.0442361
0.0569936
7.1996e-05
0.000391788
0.0003046
6.31928e-05
2.57012e-05
0.00031466
0.000443105
0.000590491
0.00202707
0.00710408
0.0201222
0.0439704
0.0738952
0.0992588
0.112374
0.113515
0.108299
0.102479
0.0997567
0.100785
0.103645
0.10267
0.0912227
0.0685804
0.0417195
0.0190796
0.00597111
0.00333961
0.0081422
0.015854
0.0226924
0.0262737
0.0265657
0.0195591
0.0134687
0.031194
0.071091
0.112718
0.14414
0.164656
0.176849
0.182025
0.181051
0.174178
0.153597
0.11179
0.064617
0.0419286
0.0523136
0.0782078
0.099979
0.110634
0.112809
0.111219
0.108916
0.107084
0.105876
0.105014
0.104
0.102076
0.0981989
0.0912919
0.0809457
0.0682503
0.056095
0.0483996
0.0484499
0.057233
0.072805
0.0911107
0.107732
0.119518
0.125302
0.125619
0.121901
0.115614
0.107637
0.098206
0.087291
0.0750676
0.062195
0.0498257
0.039416
0.0324116
0.029887
0.0322504
0.0391004
0.0492179
0.060754
0.0717644
0.0808355
0.0872618
0.090597
0.090149
0.083591
0.0691781
0.0530038
0.0419701
0.045004
0.0583025
0.00205573
0.00168298
0.00142899
0.00124438
0.00106221
0.000902205
0.000448037
0.000396323
0.000114343
0.000487815
0.0010465
0.00650618
0.0212463
0.0435318
0.066838
0.0850897
0.0961556
0.101377
0.103418
0.10159
0.0942942
0.0797437
0.0587817
0.0360806
0.0170549
0.00544384
0.00251074
0.00678567
0.0150648
0.0240995
0.03135
0.0348494
0.0347474
0.029598
0.0188392
0.018419
0.0413089
0.0779974
0.112708
0.137891
0.15296
0.159201
0.157483
0.14486
0.114436
0.0719698
0.041734
0.0415916
0.0640521
0.0894362
0.105469
0.111267
0.111078
0.108807
0.106472
0.104723
0.103566
0.102731
0.101748
0.099878
0.0960774
0.0892692
0.0790543
0.0665583
0.0547235
0.0475004
0.0481295
0.0574617
0.0733723
0.0916732
0.107932
0.119107
0.124216
0.124026
0.120104
0.113858
0.106029
0.096756
0.0859727
0.0738548
0.0610747
0.0488081
0.0385436
0.0317603
0.0295403
0.0322485
0.0393977
0.0497035
0.0613396
0.0724358
0.0815916
0.0880738
0.0915326
0.0914541
0.0855412
0.0716532
0.0554058
0.0434801
0.0457599
0.0592433
0.00482735
0.00459822
0.00431837
0.00406382
0.00381274
0.00353868
0.00319042
0.00275821
0.00225777
0.00161426
0.00029941
0.00054044
0.00173368
0.00770665
0.0194301
0.033802
0.0469
0.05599
0.0595431
0.0571728
0.0488316
0.0360948
0.0221115
0.0102621
0.00307956
0.00181425
0.00620881
0.0146766
0.0250009
0.0348704
0.0423413
0.0459156
0.0453177
0.0409037
0.030605
0.0197556
0.0228916
0.0441185
0.0734102
0.0995277
0.116831
0.123978
0.119396
0.100258
0.0686202
0.0404951
0.034561
0.0521582
0.0783192
0.0985883
0.108399
0.110416
0.108777
0.106211
0.103914
0.102223
0.101093
0.100276
0.0993255
0.0975121
0.0937901
0.0870826
0.0770083
0.0647369
0.0532668
0.0465711
0.0478247
0.0577104
0.0739046
0.0920978
0.107883
0.118388
0.122879
0.122303
0.118256
0.11206
0.104362
0.0952337
0.0845822
0.0725776
0.0599018
0.0477536
0.0376555
0.031114
0.029207
0.0322444
0.0396357
0.0499939
0.0615032
0.0724605
0.0816278
0.0882805
0.0920527
0.0924761
0.0872618
0.0739549
0.0577072
0.0448934
0.0464018
0.0597656
0.0075608
0.00731747
0.00700587
0.00666323
0.00630703
0.00592855
0.00552998
0.00508574
0.00459408
0.00400376
0.00318283
0.00227405
0.000437399
0.000833332
0.0018393
0.00491356
0.00959603
0.0137495
0.0154843
0.0144363
0.011087
0.00671258
0.00270734
0.000630661
0.00187507
0.00694779
0.0155301
0.0265308
0.0381657
0.0484705
0.0558663
0.0593455
0.0585993
0.054091
0.0453184
0.0321319
0.0220364
0.0242249
0.0384376
0.056688
0.0709403
0.076203
0.0693938
0.0521332
0.0340155
0.029424
0.043895
0.0688101
0.0912459
0.104439
0.108995
0.108531
0.106135
0.103471
0.101212
0.0995497
0.0984334
0.0976363
0.0967255
0.0949732
0.0913314
0.0847273
0.0748047
0.0627861
0.0517278
0.0456161
0.0475397
0.0579918
0.0744378
0.092458
0.107713
0.117544
0.121453
0.120518
0.116341
0.110183
0.102605
0.0936224
0.0831118
0.0712364
0.058686
0.0466831
0.0367823
0.0305098
0.0289269
0.032288
0.0399232
0.0503431
0.0616592
0.072256
0.0811216
0.0877004
0.0917282
0.092776
0.0884792
0.0759749
0.0598696
0.046198
0.0469267
0.0599536
0.0201361
0.0193575
0.0183614
0.0172095
0.0159416
0.014557
0.0130601
0.011483
0.00988911
0.00834856
0.00692891
0.00562028
0.00411444
0.00274582
0.00121914
0.000132623
4.21143e-05
0.000553421
0.000958932
0.000525875
0.000254222
0.000633767
0.00164665
0.00431417
0.00983552
0.0185674
0.0299386
0.0425781
0.0546863
0.064643
0.0713854
0.0744007
0.0736788
0.0693033
0.0615703
0.0498954
0.0359029
0.0255995
0.0234997
0.0279774
0.0335825
0.0348064
0.03035
0.0247101
0.0262594
0.0402631
0.0629922
0.0852498
0.100247
0.106939
0.10788
0.10602
0.103271
0.10057
0.0983254
0.0966747
0.0955733
0.0948037
0.093939
0.0922514
0.0886915
0.0821948
0.0724385
0.0607049
0.0501094
0.0446397
0.0472775
0.0583091
0.0749842
0.09279
0.107482
0.116628
0.119956
0.118667
0.114366
0.108242
0.100777
0.0919292
0.0815546
0.0698144
0.0574091
0.0455824
0.0359165
0.0299468
0.0287001
0.0323618
0.0402095
0.0507336
0.0619985
0.0723463
0.0808434
0.0871235
0.0911648
0.0926693
0.089222
0.0775602
0.0617028
0.0472417
0.0472546
0.0599508
0.0483083
0.0468854
0.0450324
0.0428093
0.0402761
0.037422
0.0342138
0.0306542
0.0268112
0.0228265
0.0189175
0.0153144
0.0121696
0.00949428
0.00720041
0.00529274
0.00392369
0.00314743
0.00289571
0.0031479
0.00406817
0.00607381
0.00986032
0.0161029
0.025142
0.0366715
0.049611
0.0624036
0.0735559
0.0820559
0.0874445
0.0896317
0.0888571
0.0851136
0.0785039
0.0690299
0.0566575
0.0433696
0.0327706
0.0267918
0.0243088
0.0232004
0.0240184
0.0298469
0.0433033
0.0627284
0.0824591
0.0970906
0.104776
0.106866
0.105707
0.103134
0.100201
0.0974636
0.0952167
0.0935774
0.0924971
0.0917609
0.0909459
0.0893257
0.0858511
0.0794702
0.0699006
0.058491
0.0484145
0.0436468
0.0470409
0.0586588
0.0755365
0.0930876
0.107187
0.115638
0.118393
0.116762
0.112342
0.106246
0.0988782
0.0901498
0.0799033
0.0683034
0.0560624
0.0444446
0.0350528
0.029421
0.0285265
0.032468
0.040468
0.0510507
0.0623287
0.0725959
0.0808394
0.0867591
0.0906046
0.0923222
0.0895655
0.0787412
0.0632399
0.0481185
0.0474729
0.059917
0.0830942
0.0814777
0.0793662
0.0767838
0.0737893
0.0703753
0.0664691
0.0619903
0.0569015
0.0512473
0.0451864
0.0389988
0.033052
0.0276782
0.0231151
0.019468
0.0167805
0.0150894
0.0145143
0.0152481
0.0175625
0.0218241
0.0283877
0.0373707
0.0484197
0.0606441
0.0728067
0.0836849
0.0923988
0.098547
0.102114
0.10326
0.102303
0.0993136
0.0942224
0.0870472
0.0778012
0.0669482
0.0561341
0.0474929
0.0423443
0.0414911
0.0455725
0.0552181
0.0692308
0.0841553
0.0961565
0.103254
0.105771
0.105184
0.102922
0.0999562
0.0968865
0.0941066
0.0918588
0.0902349
0.0891758
0.0884703
0.0877044
0.0861556
0.0827759
0.0765283
0.0671759
0.0561388
0.0466447
0.042642
0.0468322
0.0590376
0.0760853
0.0933388
0.106815
0.114567
0.116758
0.114797
0.11026
0.104183
0.0968951
0.088271
0.0781457
0.0666929
0.054639
0.0432665
0.0341912
0.0289308
0.0283974
0.0325919
0.040669
0.0511797
0.0623393
0.072509
0.0806415
0.0864119
0.0901788
0.0920433
0.089802
0.0797045
0.0645875
0.048858
0.0475722
0.059871
0.108997
0.107699
0.106032
0.103992
0.101621
0.0989269
0.0958495
0.0922842
0.08812
0.0832753
0.0777381
0.071611
0.0651396
0.0586896
0.0526863
0.0475224
0.0435192
0.0409065
0.0399709
0.0409742
0.0441169
0.049483
0.0569515
0.0660998
0.076188
0.0862746
0.0954329
0.102966
0.108521
0.112069
0.113786
0.113899
0.112681
0.110243
0.106574
0.101622
0.0954172
0.0881797
0.0806344
0.0741156
0.0701997
0.0701121
0.0740233
0.0813163
0.0900821
0.0978546
0.102929
0.104964
0.10457
0.102585
0.0997061
0.0964635
0.0932775
0.0904658
0.0882216
0.0866041
0.0855483
0.0848577
0.0841364
0.0826691
0.0794075
0.0733279
0.0642408
0.0536392
0.0448004
0.0416286
0.0466519
0.0594399
0.0766195
0.0935293
0.106354
0.1134
0.115039
0.112759
0.108106
0.102036
0.0948118
0.086276
0.0762657
0.0649688
0.0531289
0.042044
0.0333327
0.028479
0.0283119
0.0327277
0.0408181
0.0511587
0.0620615
0.0719911
0.0799394
0.0855992
0.089391
0.0914931
0.089824
0.0805302
0.0658894
0.0496153
0.0476236
0.05984
0.127304
0.126057
0.124586
0.122894
0.121017
0.118984
0.11678
0.114347
0.111601
0.108453
0.104827
0.10069
0.0960952
0.0912135
0.0863398
0.0818616
0.0781955
0.0757671
0.0748437
0.0756414
0.0782626
0.0826113
0.0883619
0.0949797
0.101802
0.108167
0.113539
0.1176
0.120261
0.121611
0.121835
0.121115
0.119623
0.117461
0.114692
0.111334
0.107418
0.103076
0.098675
0.0948981
0.0926889
0.092625
0.0945739
0.0978592
0.101287
0.103732
0.104641
0.104021
0.10215
0.0993753
0.0960681
0.0926084
0.0893377
0.0865052
0.0842468
0.0825965
0.0815004
0.0807951
0.0801144
0.0787523
0.0756552
0.0698065
0.0610599
0.0509784
0.0428806
0.0406094
0.0464988
0.0598574
0.0771242
0.0936412
0.105785
0.112123
0.113221
0.110632
0.105862
0.0997869
0.0926073
0.0841448
0.074245
0.0631165
0.0515221
0.0407721
0.0324756
0.0280629
0.0282594
0.0328502
0.0408783
0.050963
0.0615152
0.0711009
0.078775
0.084294
0.0881443
0.0905539
0.089553
0.0812061
0.0671913
0.0503964
0.0475687
0.0597609
0.138906
0.137784
0.136519
0.135113
0.133596
0.132005
0.130354
0.128631
0.126807
0.124842
0.122697
0.120342
0.117769
0.115025
0.112228
0.109581
0.107356
0.105857
0.105265
0.105726
0.107276
0.109802
0.113041
0.11662
0.120125
0.12318
0.125516
0.126999
0.127627
0.127486
0.126712
0.125429
0.123705
0.121613
0.11923
0.116641
0.113923
0.111174
0.108558
0.106354
0.104871
0.10424
0.104297
0.1047
0.104968
0.104681
0.103603
0.101665
0.0989337
0.0956035
0.0919714
0.0883585
0.0850287
0.0821521
0.0798164
0.0780542
0.0768491
0.076091
0.0754543
0.074243
0.0713908
0.065876
0.0575835
0.0481365
0.0408826
0.0395859
0.0463698
0.060278
0.0775802
0.0936525
0.105086
0.110713
0.111281
0.108392
0.103503
0.0974083
0.0902547
0.0818506
0.0720588
0.0611148
0.0498035
0.0394421
0.031615
0.0276759
0.028227
0.0329389
0.040827
0.0505841
0.0607339
0.0699323
0.077279
0.0825991
0.0864502
0.0891265
0.0887971
0.0815003
0.0682763
0.0511512
0.047419
0.0596638
0.147585
0.146539
0.145393
0.14415
0.142831
0.141467
0.140081
0.138682
0.137268
0.135831
0.134366
0.132872
0.131356
0.129838
0.128364
0.127009
0.125886
0.125118
0.124815
0.125025
0.125739
0.126875
0.128276
0.129733
0.131027
0.131972
0.132442
0.132384
0.131814
0.130793
0.12942
0.127784
0.125881
0.123751
0.12146
0.119097
0.116756
0.114523
0.112479
0.110695
0.109196
0.107993
0.106963
0.105971
0.104816
0.103266
0.101139
0.0983598
0.0949964
0.0912529
0.0873981
0.0836778
0.0802628
0.0772554
0.0747265
0.0727412
0.071347
0.0705021
0.0699288
0.068942
0.0664551
0.0614249
0.0537481
0.0450881
0.0388025
0.0385591
0.0462587
0.0606853
0.0779635
0.0935361
0.10423
0.109145
0.109194
0.106012
0.100998
0.0948686
0.0877229
0.0793652
0.0696839
0.058947
0.0479629
0.0380487
0.0307458
0.0273067
0.0281892
0.0329485
0.0405942
0.0499272
0.0596095
0.0683922
0.0754083
0.0805395
0.0843843
0.0872927
0.0876079
0.0814213
0.0691614
0.0518476
0.0471482
0.0595017
0.15314
0.152229
0.151258
0.150222
0.149135
0.148016
0.146887
0.145757
0.144631
0.143512
0.142403
0.141312
0.140253
0.139244
0.138312
0.13749
0.136817
0.136334
0.13608
0.136039
0.136182
0.136452
0.136758
0.136993
0.137049
0.136835
0.136289
0.135386
0.134137
0.132589
0.130832
0.128946
0.126884
0.124663
0.122337
0.11998
0.117667
0.115466
0.113423
0.111547
0.109821
0.108203
0.106585
0.104865
0.102895
0.100511
0.097605
0.094178
0.0903531
0.0863323
0.0823192
0.0784621
0.0748513
0.0715615
0.0686921
0.066373
0.0647286
0.0637873
0.06332
0.0626559
0.0606866
0.0563351
0.0494833
0.0418031
0.0366342
0.0375275
0.0461558
0.0610574
0.0782436
0.0932586
0.103186
0.107387
0.106927
0.103457
0.0983109
0.0921307
0.0849753
0.0766548
0.0670905
0.056589
0.0459823
0.0365777
0.0298531
0.0269317
0.028109
0.0328297
0.0401285
0.0489506
0.0581196
0.0664807
0.0731835
0.0781495
0.0819907
0.0850971
0.0859912
0.0808997
0.0696955
0.0524672
0.0468361
0.059351
0.157036
0.156155
0.155247
0.154308
0.153347
0.152377
0.151413
0.150464
0.149535
0.148629
0.147747
0.146895
0.146078
0.145307
0.144596
0.14396
0.143412
0.142964
0.142617
0.142331
0.142075
0.141812
0.141491
0.141055
0.140446
0.139607
0.138495
0.137088
0.135395
0.133462
0.131389
0.129272
0.127029
0.124667
0.122236
0.119793
0.117397
0.115091
0.112897
0.110809
0.108791
0.106773
0.104646
0.102309
0.0996527
0.0965823
0.0930703
0.0891799
0.0850461
0.0808181
0.0766065
0.0724751
0.0684845
0.064742
0.0614177
0.0587169
0.056826
0.055824
0.0555241