/*--------------------------------*- C++ -*----------------------------------*\
  =========                 |
  \\      /  F ield         | OpenFOAM: The Open Source CFD Toolbox
   \\    /   O peration     | Website:  https://openfoam.org
    \\  /    A nd           | Version:  10
     \\/     M anipulation  |
\*---------------------------------------------------------------------------*/
FoamFile
{
    format      ascii;
    class       volScalarField;
    location    "0.1";
    object      nut;
}
// * * * * * * * * * * * * * * * * * * * * * * * * * * * * * * * * * * * * * //

dimensions      [0 2 -1 0 0 0 0];

internalField   nonuniform List<scalar> 
6820
(
0
0
0
0
0
0
0
0
0
0
0
0
0
0
0
0
0
0
0
0
0
0
0
0
0
0
0
0
0
0
0
0
0
0
0
0
0
0
0
0
0
0
0
0
0
0
0
0
0
0
0
0
0
0
0
0
0
0
0
0
0
0
0
0
0
0
0
0
0
0
0
0
0
0
0
0
0
0
0
0
0
0
0
0
0
0
0
0
0
0
0
0
0
0
0
0
0
0
0
0
0
0
0
0
0
0
0
0
0
0
0
0
0
0
0
0
0
0
0
0
0
0
0
0
0
0
0
0
0
0
0
0
1.65944e-05
0
0
0
0
0
0
0
0
0
0
0
0
0
0
0
0
0
0
0
5.55234e-08
1.62731e-07
2.22722e-07
2.2475e-07
1.30025e-07
0
0
0
0
0
0
0
0
6.29924e-06
5.07837e-05
3.85267e-05
1.75892e-05
4.90102e-06
0
0
0
0
0
0
0
0
0
0
0
0
0
0
6.18281e-09
2.12867e-08
3.65548e-08
5.07451e-08
6.18669e-08
6.5997e-08
6.29343e-08
2.27696e-08
4.215e-08
0
0
0
0
0
0
1.471e-05
3.29652e-05
4.40466e-05
4.19272e-05
3.61886e-05
3.02238e-05
2.33432e-05
1.48188e-05
4.0664e-06
0
0
0
0
0
0
0
0
0
0
2.47037e-07
6.70681e-07
8.94363e-07
9.78012e-07
9.57023e-07
8.4925e-07
6.58177e-07
3.80656e-07
1.07916e-08
0
0
0
0
0
9.05069e-06
2.02681e-05
3.63143e-05
4.23388e-05
4.18755e-05
4.03857e-05
3.81329e-05
3.19806e-05
1.13265e-05
0
0
0
0
0
0
0
0
0
4.3993e-07
7.41328e-07
8.46901e-07
8.31017e-07
7.42559e-07
6.13808e-07
4.6659e-07
3.1535e-07
1.7127e-07
4.04582e-08
0
0
0
0
0
6.75109e-06
1.30741e-05
2.64307e-05
3.71626e-05
4.38297e-05
4.91259e-05
5.45219e-05
6.02916e-05
3.70914e-05
0
0
0
0
0
0
0
0
1.64183e-07
5.7713e-07
7.68303e-07
8.15871e-07
7.71669e-07
6.71359e-07
5.39933e-07
3.95235e-07
2.49586e-07
1.12916e-07
0
0
0
0
0
0
4.97028e-06
8.84057e-06
1.88165e-05
2.92195e-05
3.76903e-05
4.55736e-05
5.2346e-05
5.22205e-05
2.02016e-05
0
0
0
0
0
0
0
0
2.86063e-07
6.46198e-07
8.10739e-07
8.40021e-07
7.77732e-07
6.56861e-07
5.0272e-07
3.35029e-07
1.68667e-07
1.62524e-08
0
0
0
0
0
0
3.62899e-06
6.00403e-06
1.30264e-05
2.11428e-05
2.79874e-05
3.3656e-05
3.53154e-05
2.78279e-05
1.07602e-05
0
0
0
0
0
0
0
5.76134e-07
1.02964e-06
1.23185e-06
1.25416e-06
1.15265e-06
9.70683e-07
7.42203e-07
4.93943e-07
2.47359e-07
1.89548e-08
0
0
0
0
0
0
0
2.62893e-06
3.96704e-06
8.65234e-06
1.43736e-05
1.88522e-05
2.18811e-05
2.16071e-05
1.6202e-05
7.48438e-06
1.84873e-07
0
0
0
0
0
0
4.7503e-07
7.46609e-07
8.33334e-07
7.83276e-07
6.38798e-07
4.3547e-07
2.02702e-07
0
0
0
0
0
0
0
0
0
0
1.91151e-06
2.5817e-06
5.59441e-06
9.45653e-06
1.21839e-05
1.3641e-05
1.30726e-05
9.99918e-06
5.63536e-06
1.95278e-06
0
0
0
2.91156e-08
4.83115e-07
8.03035e-07
9.628e-07
9.77069e-07
8.76267e-07
6.93465e-07
4.59369e-07
2.00704e-07
0
0
0
0
0
0
0
0
0
0
0
1.40064e-06
1.64027e-06
3.47307e-06
5.96202e-06
7.50783e-06
8.07329e-06
7.45874e-06
5.60123e-06
3.19918e-06
1.16079e-06
0
0
0
0
0
0
0
0
0
0
0
0
0
0
0
0
0
0
0
0
0
0
0
1.03935e-06
1.00672e-06
2.04799e-06
3.60412e-06
4.44316e-06
4.607e-06
4.12794e-06
3.03839e-06
1.71913e-06
6.13458e-07
0
0
0
0
0
0
0
0
0
0
0
0
0
0
0
0
0
0
0
0
0
0
0
7.81959e-07
5.71539e-07
1.07387e-06
1.97245e-06
2.32802e-06
2.22135e-06
1.7627e-06
9.96999e-07
1.37167e-07
0
0
0
0
0
0
0
0
0
0
0
0
0
0
0
0
0
0
0
0
0
0
0
0
5.9722e-07
2.65951e-07
3.99337e-07
8.3863e-07
8.71121e-07
6.0459e-07
1.72621e-07
0
0
0
0
0
0
0
0
0
0
0
0
0
0
0
0
0
0
0
0
0
0
0
0
0
0
4.62139e-07
4.09833e-08
0
1.33391e-08
0
0
0
0
0
0
0
0
0
0
0
0
0
0
0
0
0
0
0
0
0
0
0
0
0
1.21177e-07
3.04214e-09
0
0
3.61091e-07
0
0
0
0
0
0
0
0
0
0
0
0
0
0
0
0
0
0
0
0
0
0
0
0
0
0
0
3.76676e-07
7.89323e-07
6.73525e-07
0
0
2.83226e-07
0
0
0
0
0
0
0
0
0
0
0
0
0
0
0
0
0
0
0
0
0
0
0
0
0
2.3393e-08
5.06143e-07
1.0198e-06
1.4985e-06
1.39677e-06
0
0
2.2014e-07
0
0
0
0
0
0
0
0
0
0
0
0
0
0
0
0
0
0
0
0
0
0
0
0
2.08628e-07
7.29029e-07
1.27567e-06
1.84921e-06
2.38036e-06
2.28479e-06
2.45525e-07
0
1.65831e-07
0
0
0
0
0
0
0
0
0
0
0
0
0
0
0
0
0
0
0
0
0
0
0
3.90293e-07
9.4853e-07
1.5328e-06
2.13955e-06
2.76917e-06
3.34906e-06
3.26107e-06
1.12324e-06
0
1.15007e-07
0
0
0
0
0
0
0
0
0
0
0
0
0
0
0
0
0
0
0
0
0
0
5.63375e-07
1.1606e-06
1.78105e-06
2.42313e-06
3.08329e-06
3.76143e-06
4.38211e-06
4.29935e-06
2.07765e-06
0
6.45958e-08
0
0
0
0
0
0
0
0
0
0
0
0
0
0
0
0
0
0
0
0
2.6549e-07
8.70577e-07
1.49808e-06
2.14668e-06
2.81448e-06
3.49965e-06
4.19833e-06
4.90973e-06
5.55607e-06
5.47014e-06
3.17125e-06
0
6.58608e-09
0
0
0
0
0
0
0
0
0
0
0
0
0
0
0
0
0
0
0
3.51589e-07
9.99855e-07
1.66783e-06
2.35424e-06
3.05747e-06
3.77525e-06
4.50516e-06
5.24309e-06
5.98773e-06
6.65974e-06
6.57486e-06
4.22307e-06
0
0
0
0
0
0
0
0
0
0
0
0
0
0
0
0
0
0
0
1.64784e-07
8.18315e-07
1.48844e-06
2.17474e-06
2.87652e-06
3.59266e-06
4.32143e-06
5.06031e-06
5.80661e-06
6.55605e-06
7.3066e-06
7.97773e-06
7.87558e-06
5.46563e-06
0
0
0
0
0
0
0
0
0
0
0
0
0
0
0
0
0
0
1.06615e-07
8.09613e-07
1.52691e-06
2.25763e-06
3.00092e-06
3.75559e-06
4.51985e-06
5.29143e-06
6.06742e-06
6.84474e-06
7.61895e-06
8.38757e-06
9.06982e-06
8.96448e-06
6.53048e-06
0
0
0
0
0
0
0
0
0
0
0
0
0
0
0
0
2.11313e-07
9.05654e-07
1.60878e-06
2.32131e-06
3.04364e-06
3.77589e-06
4.51775e-06
5.26822e-06
6.02557e-06
6.78754e-06
7.55108e-06
8.31274e-06
9.06776e-06
9.81279e-06
1.04668e-05
1.033e-05
7.8544e-06
0
0
0
0
0
0
0
0
0
0
0
0
0
0
0
0
6.9664e-07
1.45598e-06
2.22215e-06
2.9953e-06
3.77525e-06
4.56135e-06
5.35247e-06
6.14697e-06
6.94261e-06
7.73665e-06
8.52568e-06
9.30597e-06
1.00727e-05
1.08224e-05
1.1475e-05
1.13326e-05
8.85994e-06
0
0
0
0
0
0
0
0
0
0
0
0
1.39984e-07
8.34821e-07
1.52294e-06
2.20751e-06
2.89243e-06
3.58102e-06
4.27599e-06
4.97939e-06
5.69215e-06
6.41419e-06
7.14463e-06
7.88172e-06
8.6229e-06
9.36492e-06
1.01038e-05
1.08349e-05
1.15528e-05
1.22526e-05
1.28549e-05
1.26735e-05
1.01833e-05
0
0
0
0
0
0
0
0
0
0
0
0
4.50147e-07
1.18495e-06
1.9142e-06
2.64238e-06
3.37358e-06
4.11058e-06
4.85499e-06
5.60734e-06
6.36712e-06
7.13296e-06
7.90274e-06
8.67368e-06
9.44244e-06
1.02052e-05
1.09575e-05
1.16946e-05
1.24113e-05
1.31027e-05
1.36918e-05
1.35045e-05
1.10489e-05
0
2.27517e-07
0
0
0
1.84243e-07
9.52156e-07
1.69846e-06
2.36888e-06
2.95215e-06
3.46728e-06
3.93604e-06
4.37802e-06
4.81071e-06
5.24876e-06
5.70311e-06
6.18145e-06
6.6883e-06
7.22546e-06
7.79267e-06
8.38807e-06
9.00859e-06
9.65023e-06
1.03083e-05
1.09776e-05
1.16524e-05
1.23266e-05
1.29938e-05
1.36469e-05
1.42791e-05
1.48145e-05
1.46045e-05
1.21916e-05
0
0
0
0
5.91064e-07
1.51411e-06
2.24576e-06
2.84349e-06
3.30898e-06
3.67691e-06
3.9984e-06
4.30666e-06
4.62332e-06
4.96539e-06
5.34521e-06
5.76877e-06
6.23819e-06
6.75255e-06
7.30847e-06
7.90091e-06
8.52391e-06
9.17095e-06
9.83534e-06
1.05104e-05
1.11895e-05
1.18662e-05
1.2534e-05
1.31865e-05
1.38171e-05
1.44198e-05
1.49246e-05
1.47235e-05
1.24519e-05
9.64414e-06
1.21246e-05
1.05133e-05
1.05603e-05
1.06763e-05
1.04794e-05
1.01508e-05
9.75067e-06
9.27629e-06
8.78251e-06
8.33086e-06
7.95036e-06
7.65413e-06
7.45162e-06
7.35078e-06
7.35114e-06
7.44946e-06
7.63922e-06
7.91142e-06
8.2563e-06
8.66383e-06
9.12384e-06
9.62634e-06
1.01618e-05
1.07209e-05
1.12951e-05
1.18757e-05
1.24544e-05
1.30228e-05
1.35727e-05
1.40423e-05
1.39144e-05
1.20016e-05
1.18006e-05
1.75382e-05
1.44811e-05
1.31146e-05
1.22764e-05
1.13006e-05
1.02506e-05
9.20165e-06
8.20499e-06
7.35576e-06
6.67746e-06
6.1552e-06
5.77918e-06
5.5435e-06
5.44208e-06
5.4572e-06
5.57467e-06
5.78131e-06
6.06321e-06
6.40718e-06
6.80108e-06
7.23358e-06
7.69422e-06
8.17346e-06
8.66261e-06
9.1539e-06
9.64036e-06
1.01157e-05
1.05742e-05
1.10108e-05
1.13799e-05
1.12875e-05
9.82939e-06
7.82196e-05
4.83474e-05
2.889e-05
2.00645e-05
1.40861e-05
9.21485e-06
5.17109e-06
1.75195e-06
0
0
0
0
0
0
0
0
0
0
0
0
0
0
0
0
0
3.19275e-08
6.73858e-07
1.2823e-06
1.85325e-06
2.38345e-06
2.85185e-06
3.10865e-06
2.82866e-06
0
0
0
0
0
0
0
0
0
0
0
0
0
0
0
0
0
0
0
0
0
0
0
0
0
0
0
0
0
0
0
0
0
3.91275e-08
0
0
0
0
0
0
0
0
0
0
0
0
0
0
0
0
0
0
0
0
0
0
0
0
0
0
0
0
0
0
0
0
2.07676e-08
0
0
0
0
0
0
0
0
0
0
0
0
0
0
0
0
0
0
0
0
0
0
0
0
0
0
0
0
0
0
0
0
9.41052e-09
0
0
0
0
0
0
0
0
0
0
0
0
0
0
0
0
0
0
0
0
0
0
0
0
0
0
0
0
0
0
0
0
0
2.38322e-07
4.83155e-07
2.561e-07
0
0
0
0
0
0
0
0
0
0
0
0
7.56283e-06
2.5007e-05
5.61431e-05
7.53458e-05
0
0
0
1.59556e-06
0
0
5.72174e-06
8.94434e-06
6.40044e-06
3.29053e-06
2.06423e-06
7.86254e-07
0
0
0
0
0
0
4.31603e-05
0.000107406
0.000143078
0.000142785
0.00011079
3.38557e-05
0
0
1.35735e-05
3.19109e-05
2.66692e-05
2.02855e-05
1.92251e-05
1.9333e-05
1.78879e-05
1.54873e-05
1.28103e-05
1.0184e-05
7.77509e-06
5.64884e-06
3.79584e-06
2.15924e-06
6.62485e-07
0
0
0
0
0
0
0
0
0
0
0
0
0
0
0
0
0
0
0
0
0
0
3.57316e-07
1.43167e-06
2.68383e-06
3.90708e-06
4.86011e-06
5.28625e-06
4.94306e-06
3.63451e-06
1.41769e-06
0
0
0
1.28617e-06
9.63684e-06
1.45351e-05
0
0
0
0
9.42965e-07
1.1352e-06
5.67198e-07
0
0
0
0
0
0
0
0
0
0
0
3.00474e-07
1.45727e-05
3.2861e-05
1.55513e-05
0
0
0
0
0
2.74362e-07
8.77238e-06
9.72304e-06
5.97112e-06
3.10865e-06
2.23906e-06
1.23782e-06
0
0
0
0
0
0
1.43009e-05
9.17116e-05
0.000175617
0.0002247
0.000179532
0
0
0
2.78405e-05
3.30581e-05
2.58154e-05
2.12623e-05
2.18345e-05
2.21052e-05
2.05092e-05
1.78949e-05
1.49653e-05
1.21194e-05
9.55103e-06
7.3131e-06
5.37332e-06
3.65645e-06
2.07696e-06
5.67766e-07
0
0
0
0
0
0
0
0
0
0
0
0
0
0
0
5.75318e-07
9.41775e-07
8.38349e-07
5.3559e-07
3.55787e-07
5.25717e-07
1.10261e-06
2.04477e-06
3.2199e-06
4.38532e-06
5.20961e-06
5.42537e-06
4.89204e-06
3.50894e-06
1.31424e-06
0
0
0
1.46165e-06
9.93407e-06
1.49981e-05
0
0
0
0
7.46167e-07
1.22256e-06
1.01676e-06
0
0
0
0
0
0
0
0
0
0
0
0
1.49102e-06
8.49648e-06
2.08412e-06
0
0
0
0
0
4.06533e-06
1.10942e-05
8.86898e-06
4.78481e-06
2.99732e-06
2.48849e-06
1.39047e-06
0
0
0
0
0
0
0
3.92471e-05
0.000122374
0.000220378
0.00013577
0
0
1.39217e-05
3.30289e-05
3.07407e-05
2.37549e-05
2.20405e-05
2.38535e-05
2.40665e-05
2.23008e-05
1.9523e-05
1.64648e-05
1.35494e-05
1.0957e-05
8.71563e-06
6.77531e-06
5.05216e-06
3.45595e-06
1.91931e-06
4.25206e-07
0
0
0
0
0
0
0
0
0
0
0
0
0
9.55548e-07
1.902e-06
2.25387e-06
2.11441e-06
1.73696e-06
1.43341e-06
1.43835e-06
1.83716e-06
2.61372e-06
3.67183e-06
4.76176e-06
5.48358e-06
5.53362e-06
4.82879e-06
3.35671e-06
1.17176e-06
0
0
0
1.51206e-06
1.00537e-05
1.53869e-05
0
0
0
0
1.84538e-08
3.8415e-07
9.50012e-07
9.48628e-07
4.76225e-07
0
0
0
0
0
0
0
0
0
0
0
6.10233e-07
1.76529e-06
2.64939e-07
0
0
0
0
9.57389e-06
1.11502e-05
6.86303e-06
3.67183e-06
3.3777e-06
2.83352e-06
1.35401e-06
0
0
0
0
0
0
0
0
3.20596e-05
5.20791e-05
3.74097e-06
0
4.10358e-06
2.71858e-05
3.21636e-05
2.68044e-05
2.19738e-05
2.32798e-05
2.5653e-05
2.56283e-05
2.36544e-05
2.07455e-05
1.76405e-05
1.474e-05
1.21891e-05
9.99112e-06
8.08602e-06
6.38834e-06
4.80693e-06
3.27089e-06
1.76252e-06
3.2986e-07
0
0
0
0
0
0
0
0
0
0
0
8.58208e-07
2.31675e-06
3.23922e-06
3.56897e-06
3.39261e-06
2.94171e-06
2.51332e-06
2.34571e-06
2.55106e-06
3.14493e-06
4.05802e-06
5.03657e-06
5.64315e-06
5.55176e-06
4.71168e-06
3.17212e-06
1.0087e-06
0
0
0
1.54932e-06
1.01026e-05
1.57905e-05
0
0
0
0
0
1.47205e-07
8.51143e-07
1.24234e-06
6.31349e-07
0
0
0
0
0
0
0
0
0
0
0
0
1.73318e-06
0
0
0
0
7.00667e-06
1.21799e-05
8.74529e-06
4.56095e-06
3.66634e-06
4.13219e-06
3.19917e-06
1.25041e-06
0
0
0
0
0
0
0
0
0
1.94254e-06
0
5.51955e-06
2.02078e-05
2.90335e-05
2.79663e-05
2.26122e-05
2.15114e-05
2.50587e-05
2.73709e-05
2.6978e-05
2.47643e-05
2.1761e-05
1.86684e-05
1.58292e-05
1.33474e-05
1.12096e-05
9.35334e-06
7.695e-06
6.14348e-06
4.62347e-06
3.11112e-06
1.65615e-06
3.49396e-07
0
0
0
0
0
0
0
0
0
5.50551e-07
2.32176e-06
3.71632e-06
4.59312e-06
4.88698e-06
4.66543e-06
4.13482e-06
3.57395e-06
3.2225e-06
3.21764e-06
3.60849e-06
4.34335e-06
5.16387e-06
5.62035e-06
5.38983e-06
4.45045e-06
2.89543e-06
8.10804e-07
0
0
0
1.68058e-06
1.02178e-05
1.62639e-05
0
0
0
0
7.50905e-08
2.49459e-07
5.6709e-07
6.39693e-06
0
0
0
0
0
0
0
0
0
0
0
0
0
8.16342e-06
4.48113e-06
0
0
7.04104e-06
1.23435e-05
9.65694e-06
5.28911e-06
3.64181e-06
4.82017e-06
4.98084e-06
3.55893e-06
1.17139e-06
0
0
0
0
0
0
0
0
0
0
2.44389e-06
1.29754e-05
2.22282e-05
2.53041e-05
2.23787e-05
1.9631e-05
2.26195e-05
2.70574e-05
2.88903e-05
2.80549e-05
2.5626e-05
2.25955e-05
1.95724e-05
1.6827e-05
1.44306e-05
1.23637e-05
1.05678e-05
8.96167e-06
7.4531e-06
5.9616e-06
4.45587e-06
2.98329e-06
1.65037e-06
5.29838e-07
0
0
0
0
0
0
0
3.74489e-07
2.18621e-06
3.83525e-06
5.13644e-06
5.94884e-06
6.19685e-06
5.92561e-06
5.31494e-06
4.62535e-06
4.09935e-06
3.90104e-06
4.1101e-06
4.68488e-06
5.3522e-06
5.65528e-06
5.28716e-06
4.25296e-06
2.67588e-06
6.46084e-07
0
0
0
1.78487e-06
1.02927e-05
1.66664e-05
0
0
0
1.08325e-08
4.35881e-07
9.78802e-07
1.60565e-06
1.24534e-06
2.57244e-07
0
0
0
0
0
0
0
0
0
0
0
0
7.1483e-06
8.65397e-06
6.84425e-06
1.09125e-05
1.18798e-05
9.03401e-06
5.12927e-06
3.36601e-06
5.06947e-06
6.29776e-06
5.83965e-06
3.96499e-06
1.15343e-06
0
0
0
0
0
0
0
0
0
0
2.96894e-06
1.2571e-05
1.86225e-05
1.9339e-05
1.73694e-05
1.9161e-05
2.4723e-05
2.89142e-05
3.00629e-05
2.88013e-05
2.62442e-05
2.32669e-05
2.03591e-05
1.77277e-05
1.5427e-05
1.34412e-05
1.17178e-05
1.01778e-05
8.72547e-06
7.27361e-06
5.7835e-06
4.30028e-06
2.94571e-06
1.8358e-06
9.58073e-07
1.77452e-07
0
0
0
0
6.87372e-07
2.23146e-06
3.86125e-06
5.35747e-06
6.54959e-06
7.29302e-06
7.49422e-06
7.17136e-06
6.4764e-06
5.65325e-06
4.95074e-06
4.56209e-06
4.59213e-06
5.00107e-06
5.49549e-06
5.62069e-06
5.10268e-06
3.9808e-06
2.40319e-06
4.56286e-07
0
0
0
1.93386e-06
1.04178e-05
1.71162e-05
0
0
0
1.40656e-07
1.35785e-06
1.46411e-06
1.0842e-06
5.8437e-07
4.00063e-08
0
0
0
0
0
0
0
0
0
0
0
0
1.44721e-06
8.06222e-06
9.55716e-06
8.69797e-06
6.41429e-06
3.65372e-06
2.84553e-06
5.1391e-06
7.18862e-06
7.7842e-06
6.79432e-06
4.47361e-06
1.18812e-06
0
0
0
0
0
0
0
0
0
0
2.05967e-06
9.34882e-06
1.31709e-05
1.36281e-05
1.52316e-05
2.09587e-05
2.69817e-05
3.0348e-05
3.07921e-05
2.92192e-05
2.66506e-05
2.37941e-05
2.10288e-05
1.85213e-05
1.63244e-05
1.44306e-05
1.2793e-05
1.13329e-05
9.9499e-06
8.5483e-06
7.08129e-06
5.59347e-06
4.22479e-06
3.13748e-06
2.37395e-06
1.80935e-06
1.34045e-06
1.04777e-06
1.12633e-06
1.71086e-06
2.76439e-06
4.1091e-06
5.53599e-06
6.86806e-06
7.94847e-06
8.62415e-06
8.7806e-06
8.40756e-06
7.62948e-06
6.67557e-06
5.80391e-06
5.2385e-06
5.11028e-06
5.37226e-06
5.70477e-06
5.65378e-06
4.98029e-06
3.76125e-06
2.17041e-06
2.90429e-07
0
0
0
2.06786e-06
1.05236e-05
1.75157e-05
0
0
0
0
4.85596e-07
5.96017e-07
3.64309e-07
0
0
0
0
0
0
0
0
0
0
0
0
0
0
8.59634e-07
2.81422e-06
3.32379e-06
2.60336e-06
1.42709e-06
2.67651e-06
5.36593e-06
7.85155e-06
9.32418e-06
9.37263e-06
7.90149e-06
5.06443e-06
1.23184e-06
0
0
0
0
0
0
0
0
0
0
7.12589e-07
5.64313e-06
8.35205e-06
1.09311e-05
1.65504e-05
2.35136e-05
2.87871e-05
3.11906e-05
3.10736e-05
2.936e-05
2.68834e-05
2.41876e-05
2.1575e-05
1.91965e-05
1.71117e-05
1.53217e-05
1.37833e-05
1.24165e-05
1.1115e-05
9.77367e-06
8.33695e-06
6.84993e-06
5.47506e-06
4.42586e-06
3.79875e-06
3.46932e-06
3.27108e-06
3.20072e-06
3.38731e-06
3.94019e-06
4.84626e-06
5.9855e-06
7.20871e-06
8.3757e-06
9.34008e-06
9.94184e-06
1.00478e-05
9.62127e-06
8.76022e-06
7.67973e-06
6.64722e-06
5.91581e-06
5.64055e-06
5.75515e-06
5.90978e-06
5.65823e-06
4.80662e-06
3.47705e-06
1.87285e-06
7.24679e-08
0
0
0
2.22645e-06
1.0656e-05
1.79117e-05
0
0
0
0
5.54931e-08
1.33468e-07
0
0
0
0
0
0
0
0
0
0
0
0
0
0
0
1.4778e-07
3.32638e-07
8.45253e-07
1.79756e-06
3.48939e-06
5.90629e-06
8.50369e-06
1.05741e-05
1.15554e-05
1.10906e-05
9.06102e-06
5.63786e-06
1.23315e-06
0
0
0
0
0
0
0
0
0
0
0
3.15191e-06
6.66642e-06
1.21449e-05
1.92038e-05
2.56471e-05
2.98322e-05
3.14272e-05
3.09878e-05
2.92906e-05
2.69684e-05
2.44463e-05
2.19876e-05
1.97426e-05
1.77795e-05
1.61052e-05
1.46787e-05
1.34175e-05
1.22086e-05
1.09369e-05
9.53748e-06
8.05735e-06
6.68542e-06
5.69164e-06
5.22455e-06
5.14943e-06
5.22931e-06
5.37789e-06
5.66322e-06
6.17577e-06
6.93095e-06
7.8663e-06
8.88687e-06
9.88503e-06
1.07254e-05
1.12435e-05
1.12904e-05
1.08052e-05
9.86153e-06
8.66148e-06
7.48288e-06
6.60744e-06
6.20733e-06
6.18938e-06
6.17159e-06
5.72129e-06
4.69287e-06
3.24715e-06
1.61224e-06
0
0
0
0
2.38671e-06
1.07903e-05
1.82549e-05
0
0
0
0
0
0
0
0
0
0
0
0
0
0
0
0
0
0
0
0
0
3.36981e-07
1.20586e-06
2.43869e-06
4.22367e-06
6.5747e-06
9.21526e-06
1.16519e-05
1.33381e-05
1.37963e-05
1.27263e-05
1.00827e-05
6.08955e-06
1.16874e-06
0
0
0
0
0
0
0
0
0
0
0
2.87743e-06
8.00862e-06
1.46171e-05
2.14179e-05
2.685e-05
3.00875e-05
3.1181e-05
3.06442e-05
2.90606e-05
2.69136e-05
2.45627e-05
2.22574e-05
2.01517e-05
1.83195e-05
1.67717e-05
1.54681e-05
1.43237e-05
1.32177e-05
1.2024e-05
1.06689e-05
9.20275e-06
7.84537e-06
6.9274e-06
6.64511e-06
6.84183e-06
7.20477e-06
7.56726e-06
7.94293e-06
8.40997e-06
9.01417e-06
9.74701e-06
1.0564e-05
1.13888e-05
1.20977e-05
1.25233e-05
1.25029e-05
1.19539e-05
1.09271e-05
9.61326e-06
8.30119e-06
7.29991e-06
6.78997e-06
6.64226e-06
6.43881e-06
5.76768e-06
4.54403e-06
2.97154e-06
1.30056e-06
0
0
0
0
2.57093e-06
1.09748e-05
1.8619e-05
2.89524e-06
0
0
0
0
0
0
0
0
0
0
0
0
0
0
0
0
0
0
0
0
7.99244e-07
2.51838e-06
4.59859e-06
7.07655e-06
9.81288e-06
1.24852e-05
1.46515e-05
1.585e-05
1.57066e-05
1.40259e-05
1.08349e-05
6.37748e-06
1.0528e-06
0
0
0
0
0
0
0
0
0
0
0
3.60142e-06
9.78499e-06
1.64702e-05
2.25523e-05
2.7096e-05
2.97389e-05
3.06207e-05
3.01258e-05
2.86904e-05
2.67147e-05
2.45289e-05
2.23776e-05
2.04164e-05
1.87226e-05
1.73097e-05
1.61387e-05
1.51208e-05
1.41272e-05
1.30199e-05
1.17162e-05
1.02724e-05
8.94402e-06
8.12606e-06
8.0554e-06
8.54026e-06
9.18817e-06
9.75709e-06
1.02137e-05
1.06296e-05
1.10823e-05
1.16143e-05
1.22283e-05
1.28772e-05
1.34486e-05
1.37739e-05
1.36791e-05
1.30622e-05
1.19541e-05
1.05356e-05
9.10727e-06
8.00275e-06
7.40383e-06
7.13755e-06
6.7481e-06
5.8489e-06
4.42551e-06
2.72935e-06
1.0262e-06
0
0
0
0
2.7794e-06
1.12169e-05
1.90321e-05
1.59996e-05
0
0
0
0
0
0
0
0
0
0
0
0
0
0
0
0
0
0
0
0
1.4765e-06
4.04438e-06
6.84073e-06
9.79022e-06
1.2692e-05
1.52297e-05
1.70253e-05
1.77183e-05
1.70414e-05
1.48801e-05
1.12945e-05
6.5151e-06
9.12083e-07
0
0
0
0
0
0
0
0
0
0
0
4.26121e-06
1.08311e-05
1.72116e-05
2.26636e-05
2.66632e-05
2.903e-05
2.98717e-05
2.94695e-05
2.81803e-05
2.63654e-05
2.434e-05
2.23426e-05
2.0528e-05
1.8976e-05
1.77038e-05
1.6673e-05
1.57911e-05
1.49193e-05
1.39069e-05
1.26627e-05
1.12514e-05
9.97007e-06
9.28038e-06
9.44986e-06
1.02377e-05
1.11698e-05
1.1935e-05
1.24613e-05
1.28193e-05
1.31195e-05
1.34534e-05
1.38667e-05
1.43388e-05
1.47686e-05
1.4987e-05
1.48113e-05
1.41234e-05
1.29363e-05
1.14236e-05
9.89742e-06
8.71201e-06
8.04022e-06
7.65619e-06
7.06629e-06
5.91543e-06
4.27142e-06
2.44464e-06
7.17084e-07
0
0
0
0
2.98236e-06
1.14801e-05
1.94655e-05
2.89186e-05
0
0
0
0
0
0
0
0
0
0
0
0
0
0
0
0
0
0
0
0
2.17794e-06
5.36283e-06
8.62578e-06
1.18197e-05
1.47232e-05
1.70537e-05
1.85067e-05
1.88093e-05
1.77693e-05
1.53123e-05
1.14987e-05
6.5331e-06
7.64807e-07
0
0
0
0
0
0
0
0
0
0
0
4.48923e-06
1.10344e-05
1.70849e-05
2.21446e-05
2.58706e-05
2.81285e-05
2.89887e-05
2.8681e-05
2.75261e-05
2.58631e-05
2.39921e-05
2.21436e-05
2.04718e-05
1.90605e-05
1.79315e-05
1.70474e-05
1.63106e-05
1.5571e-05
1.46637e-05
1.3489e-05
1.21237e-05
1.09119e-05
1.0383e-05
1.08221e-05
1.19256e-05
1.31378e-05
1.40867e-05
1.46697e-05
1.49624e-05
1.51097e-05
1.5249e-05
1.54651e-05
1.57613e-05
1.60464e-05
1.61525e-05
1.58902e-05
1.51287e-05
1.38669e-05
1.2273e-05
1.06717e-05
9.43211e-06
8.70708e-06
8.21177e-06
7.41902e-06
6.01244e-06
4.14819e-06
2.19885e-06
4.60322e-07
0
0
0
0
3.2001e-06
1.17454e-05
1.98722e-05
4.10089e-05
0
0
0
0
0
0
0
0
0
0
0
0
0
0
0
0
0
0
0
0
2.74225e-06
6.21987e-06
9.67825e-06
1.29327e-05
1.57596e-05
1.79094e-05
1.91326e-05
1.92125e-05
1.7994e-05
1.54114e-05
1.15094e-05
6.46732e-06
6.22219e-07
0
0
0
0
0
0
0
0
0
0
0
4.40039e-06
1.07541e-05
1.65316e-05
2.13425e-05
2.49067e-05
2.71017e-05
2.79831e-05
2.77594e-05
2.67279e-05
2.52055e-05
2.34759e-05
2.1763e-05
2.0223e-05
1.89462e-05
1.79602e-05
1.72285e-05
1.6647e-05
1.60521e-05
1.52632e-05
1.41723e-05
1.28714e-05
1.17574e-05
1.14264e-05
1.21647e-05
1.35934e-05
1.50786e-05
1.6196e-05
1.68212e-05
1.70408e-05
1.70348e-05
1.69839e-05
1.70078e-05
1.71306e-05
1.727e-05
1.72601e-05
1.69075e-05
1.60718e-05
1.4741e-05
1.30816e-05
1.14299e-05
1.01627e-05
9.39945e-06
8.79018e-06
7.77907e-06
6.09644e-06
3.99487e-06
1.91607e-06
1.72165e-07
0
0
0
0
3.37749e-06
1.19314e-05
2.0132e-05
5.12767e-05
0
0
0
0
0
0
0
0
0
0
0
0
0
0
0
0
0
0
0
0
3.14648e-06
6.66203e-06
1.01134e-05
1.33053e-05
1.60222e-05
1.80398e-05
1.9141e-05
1.91351e-05
1.78769e-05
1.52908e-05
1.13994e-05
6.35789e-06
4.95205e-07
0
0
0
0
0
0
0
0
0
0
0
4.21218e-06
1.03052e-05
1.5823e-05
2.04168e-05
2.38341e-05
2.59639e-05
2.68582e-05
2.6708e-05
2.57852e-05
2.43826e-05
2.277e-05
2.11694e-05
1.97434e-05
1.85911e-05
1.7746e-05
1.7172e-05
1.67576e-05
1.63236e-05
1.56716e-05
1.46849e-05
1.34743e-05
1.24943e-05
1.2403e-05
1.34692e-05
1.52289e-05
1.6976e-05
1.82443e-05
1.88967e-05
1.90354e-05
1.88763e-05
1.86402e-05
1.84779e-05
1.84305e-05
1.84241e-05
1.82952e-05
1.78491e-05
1.69393e-05
1.55475e-05
1.38411e-05
1.21678e-05
1.09025e-05
1.01175e-05
9.3944e-06
8.15836e-06
6.19688e-06
3.86473e-06
1.67229e-06
0
0
0
0
0
3.59294e-06
1.21107e-05
2.03066e-05
5.94551e-05
0
0
0
0
0
0
0
0
0
0
0
0
0
0
0
0
0
0
0
1.1393e-07
3.43047e-06
6.83661e-06
1.01646e-05
1.32261e-05
1.58197e-05
1.77397e-05
1.87863e-05
1.87775e-05
1.75635e-05
1.50498e-05
1.12321e-05
6.24e-06
3.94461e-07
0
0
0
0
0
0
0
0
0
0
0
4.02002e-06
9.80817e-06
1.50435e-05
1.9406e-05
2.26661e-05
2.4723e-05
2.56211e-05
2.55276e-05
2.46855e-05
2.33666e-05
2.1834e-05
2.0315e-05
1.8982e-05
1.79427e-05
1.72359e-05
1.68254e-05
1.65913e-05
1.6338e-05
1.58473e-05
1.49938e-05
1.39094e-05
1.31093e-05
1.33048e-05
1.47255e-05
1.68171e-05
1.88111e-05
2.02106e-05
2.08742e-05
2.09242e-05
2.06128e-05
2.01977e-05
1.98562e-05
1.96442e-05
1.94945e-05
1.92469e-05
1.87074e-05
1.77272e-05
1.62857e-05
1.45549e-05
1.28916e-05
1.16575e-05
1.08623e-05
1.00172e-05
8.53667e-06
6.27569e-06
3.69949e-06
1.39125e-06
0
0
0
0
2.86876e-08
3.75123e-06
1.21981e-05
2.03184e-05
6.53993e-05
0
0
0
0
0
0
0
0
0
0
0
0
0
0
0
0
0
0
0
4.87982e-07
3.63193e-06
6.85633e-06
1.00049e-05
1.29038e-05
1.53681e-05
1.72077e-05
1.82336e-05
1.82654e-05
1.71431e-05
1.47494e-05
1.1048e-05
6.13853e-06
3.30805e-07
0
0
0
0
0
0
0
0
0
0
0
3.83688e-06
9.28212e-06
1.42072e-05
1.83214e-05
2.14146e-05
2.33891e-05
2.42722e-05
2.42013e-05
2.33925e-05
2.2106e-05
2.06092e-05
1.9141e-05
1.78835e-05
1.69496e-05
1.63801e-05
1.6138e-05
1.60965e-05
1.60445e-05
1.57441e-05
1.50612e-05
1.41508e-05
1.35885e-05
1.41226e-05
1.59209e-05
1.83398e-05
2.05621e-05
2.20717e-05
2.27305e-05
2.2685e-05
2.22224e-05
2.16341e-05
2.11201e-05
2.07482e-05
2.04569e-05
2.00901e-05
1.94568e-05
1.84099e-05
1.69319e-05
1.5203e-05
1.35851e-05
1.24131e-05
1.16195e-05
1.06466e-05
8.91114e-06
6.34883e-06
3.54361e-06
1.14865e-06
0
0
0
0
4.07576e-07
3.96821e-06
1.23216e-05
2.03117e-05
6.96469e-05
0
0
0
0
0
0
0
0
0
0
0
0
0
0
0
0
0
0
0
8.34268e-07
3.76651e-06
6.77504e-06
9.71855e-06
1.24401e-05
1.47719e-05
1.65382e-05
1.75591e-05
1.76552e-05
1.66554e-05
1.44179e-05
1.08694e-05
6.07146e-06
3.15833e-07
0
0
0
0
0
0
0
0
0
0
0
3.66035e-06
8.73127e-06
1.33237e-05
1.71749e-05
2.00883e-05
2.19586e-05
2.27869e-05
2.26807e-05
2.18401e-05
2.05297e-05
1.90319e-05
1.7598e-05
1.6413e-05
1.55862e-05
1.51552e-05
1.50822e-05
1.5238e-05
1.54016e-05
1.53189e-05
1.4849e-05
1.41712e-05
1.39164e-05
1.48444e-05
1.70382e-05
1.97731e-05
2.22004e-05
2.37971e-05
2.44353e-05
2.4288e-05
2.36766e-05
2.29225e-05
2.22452e-05
2.17218e-05
2.12952e-05
2.08137e-05
2.00913e-05
1.89868e-05
1.74905e-05
1.5794e-05
1.42599e-05
1.31802e-05
1.23979e-05
1.1287e-05
9.27478e-06
6.38907e-06
3.3459e-06
8.72229e-07
0
0
0
0
7.25057e-07
4.09563e-06
1.23339e-05
2.01576e-05
7.23317e-05
0
0
0
0
0
0
0
0
0
0
0
0
0
0
0
0
0
0
0
1.14544e-06
3.84804e-06
6.62501e-06
9.35113e-06
1.1887e-05
1.40817e-05
1.57746e-05
1.67966e-05
1.69711e-05
1.61188e-05
1.40726e-05
1.0716e-05
6.05999e-06
3.66821e-07
0
0
0
0
0
0
0
0
0
0
0
3.48812e-06
8.15914e-06
1.2399e-05
1.59687e-05
1.86752e-05
2.0395e-05
2.11009e-05
2.08824e-05
1.9945e-05
1.85738e-05
1.70699e-05
1.56871e-05
1.4598e-05
1.38945e-05
1.36036e-05
1.36885e-05
1.40269e-05
1.43996e-05
1.45467e-05
1.43267e-05
1.39452e-05
1.40758e-05
1.54532e-05
1.80536e-05
2.10871e-05
2.36937e-05
2.53548e-05
2.59581e-05
2.57036e-05
2.49447e-05
2.40295e-05
2.31938e-05
2.25219e-05
2.19609e-05
2.13641e-05
2.05533e-05
1.93979e-05
1.79015e-05
1.62692e-05
1.48586e-05
1.3902e-05
1.31423e-05
1.18902e-05
9.59283e-06
6.38482e-06
3.13138e-06
6.30355e-07
0
0
0
0
1.12487e-06
4.28904e-06
1.23993e-05
2.00235e-05
7.40123e-05
0
0
0
0
0
0
0
0
0
0
0
0
0
0
0
0
0
0
0
1.40763e-06
3.87331e-06
6.41204e-06
8.91469e-06
1.12592e-05
1.33124e-05
1.49298e-05
1.59558e-05
1.62206e-05
1.55399e-05
1.37231e-05
1.06046e-05
6.12779e-06
5.04881e-07
0
0
0
0
0
0
0
0
0
0
0
3.31303e-06
7.56075e-06
1.14239e-05
1.46783e-05
1.71235e-05
1.86156e-05
1.91135e-05
1.8715e-05
1.76539e-05
1.62427e-05
1.47883e-05
1.35244e-05
1.25885e-05
1.20391e-05
1.18848e-05
1.20925e-05
1.2561e-05
1.3094e-05
1.34459e-05
1.34884e-05
1.34575e-05
1.40487e-05
1.59227e-05
1.89298e-05
2.22357e-05
2.49904e-05
2.66917e-05
2.7247e-05
2.68828e-05
2.59813e-05
2.4914e-05
2.393e-05
2.31189e-05
2.24309e-05
2.1725e-05
2.08328e-05
1.96386e-05
1.81638e-05
1.66281e-05
1.53776e-05
1.45724e-05
1.38512e-05
1.2463e-05
9.8727e-06
6.32992e-06
2.87776e-06
3.88108e-07
0
0
0
0
1.46133e-06
4.37748e-06
1.23303e-05
1.97335e-05
7.45891e-05
0
0
0
0
0
0
0
0
0
0
0
0
0
0
0
0
0
0
0
1.62766e-06
3.85325e-06
6.15099e-06
8.42726e-06
1.0577e-05
1.24846e-05
1.40236e-05
1.5054e-05
1.54176e-05
1.49312e-05
1.33853e-05
1.05619e-05
6.31493e-06
7.7069e-07
0
0
0
0
0
0
0
0
0
0
0
3.12125e-06
6.91679e-06
1.03616e-05
1.32362e-05
1.53337e-05
1.65088e-05
1.67386e-05
1.61587e-05
1.50396e-05
1.37043e-05
1.24333e-05
1.14081e-05
1.0709e-05
1.03496e-05
1.03151e-05
1.05774e-05
1.107e-05
1.16479e-05
1.21131e-05
1.23776e-05
1.27177e-05
1.38231e-05
1.62219e-05
1.9623e-05
2.31699e-05
2.60416e-05
2.77612e-05
2.82568e-05
2.77782e-05
2.67321e-05
2.55106e-05
2.43745e-05
2.34184e-05
2.25961e-05
2.17741e-05
2.07975e-05
1.95701e-05
1.81331e-05
1.67202e-05
1.56527e-05
1.5009e-05
1.4329e-05
1.28121e-05
9.94455e-06
6.10646e-06
2.54812e-06
1.88883e-07
0
0
0
0
1.90351e-06
4.56233e-06
1.23331e-05
1.94629e-05
7.41925e-05
5.21318e-06
0
0
0
0
0
0
0
0
0
0
0
0
0
0
0
0
0
0
1.78336e-06
3.77094e-06
5.82977e-06
7.88071e-06
9.83503e-06
1.15948e-05
1.30518e-05
1.4085e-05
1.45526e-05
1.42812e-05
1.30522e-05
1.05987e-05
6.66134e-06
1.21819e-06
0
0
0
0
0
0
0
0
0
0
0
2.88806e-06
6.18183e-06
9.13469e-06
1.15379e-05
1.3204e-05
1.40255e-05
1.40322e-05
1.34055e-05
1.24259e-05
1.13781e-05
1.04686e-05
9.80151e-06
9.40057e-06
9.24592e-06
9.30308e-06
9.53942e-06
9.91669e-06
1.03594e-05
1.07599e-05
1.11189e-05
1.17801e-05
1.33982e-05
1.63077e-05
2.0064e-05
2.38058e-05
2.67556e-05
2.84697e-05
2.88976e-05
2.83069e-05
2.71234e-05
2.57557e-05
2.44747e-05
2.3379e-05
2.24268e-05
2.14934e-05
2.04392e-05
1.91887e-05
1.7802e-05
1.65192e-05
1.5625e-05
1.51107e-05
1.44301e-05
1.2756e-05
9.62643e-06
5.60197e-06
2.14527e-06
1.05625e-07
0
0
0
4.6614e-07
2.37651e-06
4.72115e-06
1.2202e-05
1.89519e-05
7.20273e-05
1.63404e-05
0
0
0
0
0
0
0
0
0
0
0
0
0
0
0
0
0
2.74899e-07
1.90148e-06
3.65456e-06
5.47815e-06
7.30648e-06
9.06598e-06
1.06755e-05
1.20457e-05
1.30758e-05
1.3646e-05
1.3603e-05
1.27362e-05
1.07467e-05
7.24712e-06
1.96721e-06
0
0
0
0
0
0
0
0
0
0
0
2.57404e-06
5.28747e-06
7.66208e-06
9.5333e-06
1.07787e-05
1.1365e-05
1.13757e-05
1.09904e-05
1.04196e-05
9.83727e-06
9.3547e-06
9.03068e-06
8.88504e-06
8.90356e-06
9.04138e-06
9.23711e-06
9.434e-06
9.5925e-06
9.71185e-06
9.94535e-06
1.07724e-05
1.28131e-05
1.61625e-05
2.02117e-05
2.40973e-05
2.70872e-05
2.8771e-05
2.91149e-05
2.83978e-05
2.70606e-05
2.55291e-05
2.40863e-05
2.28378e-05
2.17485e-05
2.07051e-05
1.9586e-05
1.83277e-05
1.70086e-05
1.58542e-05
1.50916e-05
1.46197e-05
1.38263e-05
1.19029e-05
8.53405e-06
4.57142e-06
1.58632e-06
1.06005e-07
0
0
3.66109e-07
1.10504e-06
2.91191e-06
4.94301e-06
1.19266e-05
1.80797e-05
6.74095e-05
2.60292e-05
1.08797e-06
0
0
0
0
0
0
0
0
0
0
0
0
0
0
0
0
5.24882e-07
1.93534e-06
3.46196e-06
5.05818e-06
6.67013e-06
8.2379e-06
9.69604e-06
1.09734e-05
1.19907e-05
1.26544e-05
1.28422e-05
1.23757e-05
1.09655e-05
8.1229e-06
3.20192e-06
0
0
0
0
0
0
0
0
0
0
0
2.13998e-06
4.21201e-06
6.00112e-06
7.43216e-06
8.47534e-06
9.1511e-06
9.51028e-06
9.60614e-06
9.49384e-06
9.25371e-06
8.99404e-06
8.82214e-06
8.80644e-06
8.95556e-06
9.21251e-06
9.46759e-06
9.59594e-06
9.5158e-06
9.26514e-06
9.15155e-06
9.88197e-06
1.21295e-05
1.57593e-05
1.99887e-05
2.39402e-05
2.69212e-05
2.85524e-05
2.88104e-05
2.7977e-05
2.65029e-05
2.48315e-05
2.32601e-05
2.19017e-05
2.07273e-05
1.96324e-05
1.8509e-05
1.72942e-05
1.6076e-05
1.50547e-05
1.43892e-05
1.38902e-05
1.28997e-05
1.06617e-05
7.08972e-06
3.38934e-06
1.06089e-06
1.49389e-07
2.86666e-08
2.32036e-07
8.55987e-07
1.57924e-06
3.23293e-06
4.92261e-06
1.10778e-05
1.6373e-05
5.97219e-05
3.18575e-05
2.36956e-06
1.84616e-07
0
0
0
0
0
0
0
0
0
0
0
0
0
0
0
7.5433e-07
1.95436e-06
3.26194e-06
4.63882e-06
6.04129e-06
7.42128e-06
8.72717e-06
9.90436e-06
1.08943e-05
1.16311e-05
1.20316e-05
1.19729e-05
1.12407e-05
9.3666e-06
5.29682e-06
0
0
0
0
0
0
0
0
0
0
1.5846e-08
1.63196e-06
3.14679e-06
4.55432e-06
5.8621e-06
7.0642e-06
8.10461e-06
8.87066e-06
9.25327e-06
9.24598e-06
8.98212e-06
8.66601e-06
8.47754e-06
8.51626e-06
8.79434e-06
9.23837e-06
9.69553e-06
9.96591e-06
9.88114e-06
9.4225e-06
8.93328e-06
9.32241e-06
1.14763e-05
1.51638e-05
1.94362e-05
2.33722e-05
2.62957e-05
2.78436e-05
2.79918e-05
2.70206e-05
2.53971e-05
2.35933e-05
2.19257e-05
2.05116e-05
1.93225e-05
1.82563e-05
1.72143e-05
1.61417e-05
1.51079e-05
1.4271e-05
1.37132e-05
1.31657e-05
1.19544e-05
9.41592e-06
5.70865e-06
2.31932e-06
5.48738e-07
1.31583e-08
2.74379e-08
2.56999e-07
8.67194e-07
1.56466e-06
3.08463e-06
4.51568e-06
9.83934e-06
1.43463e-05