/*--------------------------------*- C++ -*----------------------------------*\
  =========                 |
  \\      /  F ield         | OpenFOAM: The Open Source CFD Toolbox
   \\    /   O peration     | Website:  https://openfoam.org
    \\  /    A nd           | Version:  10
     \\/     M anipulation  |
\*---------------------------------------------------------------------------*/
FoamFile
{
    format      ascii;
    class       volScalarField;
    location    "0.1";
    object      p;
}
// * * * * * * * * * * * * * * * * * * * * * * * * * * * * * * * * * * * * * //

dimensions      [0 2 -2 0 0 0 0];

internalField   nonuniform List<scalar> 
6820
(
-9.90701
-10.2086
-10.2521
-10.2642
-10.2914
-10.3101
-10.3205
-10.3271
-10.3301
-10.3294
-10.3251
-10.3174
-10.3061
-10.2911
-10.2721
-10.249
-10.2215
-10.1893
-10.152
-10.1096
-10.0618
-10.0087
-9.95045
-9.88772
-9.82153
-9.75346
-9.68574
-9.62139
-9.56394
-9.51725
-9.48733
-9.468
-9.5032
-10.1089
-10.2331
-10.2672
-10.2793
-10.3009
-10.3166
-10.3257
-10.3314
-10.3341
-10.3333
-10.3292
-10.3218
-10.311
-10.2967
-10.2786
-10.2565
-10.2302
-10.1995
-10.164
-10.1236
-10.0781
-10.0276
-9.97226
-9.91255
-9.84941
-9.78426
-9.71911
-9.65676
-9.60053
-9.55487
-9.52373
-9.51464
-9.53347
-10.1091
-10.1936
-10.2498
-10.273
-10.2968
-10.3154
-10.327
-10.3345
-10.3386
-10.3391
-10.3362
-10.3301
-10.3207
-10.3079
-10.2916
-10.2716
-10.248
-10.2204
-10.1888
-10.1532
-10.1136
-10.0703
-10.0236
-9.97432
-9.92332
-9.87204
-9.82232
-9.77644
-9.73729
-9.70796
-9.69375
-9.69776
-9.74045
-10.1666
-10.2356
-10.2814
-10.2983
-10.3157
-10.3304
-10.3395
-10.3451
-10.3478
-10.3473
-10.3439
-10.3375
-10.328
-10.3155
-10.2997
-10.2805
-10.258
-10.2319
-10.2022
-10.1689
-10.1323
-10.0925
-10.0502
-10.006
-9.96099
-9.91668
-9.87488
-9.83783
-9.80829
-9.78919
-9.78497
-9.7984
-9.84154
-10.1974
-10.2354
-10.2723
-10.2921
-10.3108
-10.327
-10.3379
-10.345
-10.3492
-10.3502
-10.3482
-10.3432
-10.3352
-10.3243
-10.3103
-10.2932
-10.2729
-10.2495
-10.2229
-10.1933
-10.161
-10.1263
-10.0897
-10.0521
-10.0145
-9.97824
-9.94508
-9.91692
-9.89612
-9.88501
-9.88698
-9.90365
-9.94199
-10.2283
-10.2583
-10.2936
-10.3139
-10.3302
-10.3441
-10.3534
-10.3594
-10.3625
-10.3628
-10.3604
-10.3553
-10.3475
-10.337
-10.3238
-10.3078
-10.289
-10.2674
-10.2432
-10.2165
-10.1876
-10.1568
-10.1249
-10.0925
-10.0608
-10.0309
-10.0044
-9.98294
-9.96856
-9.9631
-9.96887
-9.98674
-10.0196
-10.2546
-10.2738
-10.3005
-10.3176
-10.3319
-10.3448
-10.3544
-10.3609
-10.3648
-10.3662
-10.365
-10.3612
-10.355
-10.3461
-10.3348
-10.3209
-10.3046
-10.2858
-10.2648
-10.2418
-10.2171
-10.1911
-10.1645
-10.1381
-10.1128
-10.0897
-10.0702
-10.0558
-10.0478
-10.0478
-10.057
-10.0756
-10.1041
-10.2783
-10.2923
-10.3154
-10.3328
-10.347
-10.3594
-10.3686
-10.3749
-10.3787
-10.3801
-10.379
-10.3756
-10.3699
-10.3619
-10.3516
-10.3392
-10.3247
-10.3081
-10.2897
-10.2698
-10.2486
-10.2267
-10.2047
-10.1833
-10.1635
-10.1461
-10.1325
-10.1236
-10.1208
-10.1249
-10.1366
-10.1558
-10.1818
-10.3002
-10.31
-10.3283
-10.3432
-10.3553
-10.3661
-10.3746
-10.3807
-10.3846
-10.3865
-10.3862
-10.3838
-10.3794
-10.373
-10.3646
-10.3543
-10.3422
-10.3284
-10.3132
-10.2969
-10.2798
-10.2624
-10.2454
-10.2293
-10.2151
-10.2035
-10.1957
-10.1924
-10.1946
-10.2029
-10.2175
-10.238
-10.2634
-10.3205
-10.3278
-10.3429
-10.3565
-10.3682
-10.3786
-10.3872
-10.3935
-10.3978
-10.4001
-10.4005
-10.399
-10.3956
-10.3904
-10.3835
-10.3749
-10.3649
-10.3535
-10.3411
-10.328
-10.3145
-10.3011
-10.2884
-10.277
-10.2677
-10.2612
-10.2583
-10.2599
-10.2664
-10.2783
-10.2956
-10.3178
-10.344
-10.3398
-10.3453
-10.3575
-10.3694
-10.3797
-10.3891
-10.3969
-10.403
-10.4073
-10.41
-10.4109
-10.4103
-10.408
-10.4043
-10.3991
-10.3926
-10.385
-10.3764
-10.3671
-10.3574
-10.3477
-10.3385
-10.3302
-10.3236
-10.3192
-10.3178
-10.3199
-10.3261
-10.337
-10.3527
-10.3732
-10.3981
-10.4265
-10.3582
-10.3625
-10.3726
-10.3831
-10.3927
-10.4016
-10.4094
-10.4157
-10.4204
-10.4238
-10.4256
-10.426
-10.4251
-10.4228
-10.4193
-10.4148
-10.4094
-10.4034
-10.3969
-10.3904
-10.3842
-10.3788
-10.3747
-10.3723
-10.3723
-10.3753
-10.3818
-10.3923
-10.4071
-10.4264
-10.4502
-10.478
-10.5095
-10.376
-10.3794
-10.3878
-10.3971
-10.4058
-10.4141
-10.4214
-10.4276
-10.4325
-10.4363
-10.4388
-10.4401
-10.4402
-10.4394
-10.4377
-10.4352
-10.4321
-10.4287
-10.4252
-10.4219
-10.4193
-10.4176
-10.4175
-10.4194
-10.4238
-10.4311
-10.4419
-10.4566
-10.4754
-10.4984
-10.5257
-10.5571
-10.5922
-10.3934
-10.3961
-10.4032
-10.4115
-10.4196
-10.4274
-10.4347
-10.441
-10.4464
-10.4508
-10.4542
-10.4566
-10.4582
-10.4589
-10.459
-10.4586
-10.4578
-10.457
-10.4563
-10.4561
-10.4568
-10.4587
-10.4623
-10.468
-10.4764
-10.4877
-10.5024
-10.5209
-10.5433
-10.5699
-10.6007
-10.6356
-10.6745
-10.4104
-10.4127
-10.4187
-10.4262
-10.4337
-10.4411
-10.4482
-10.4546
-10.4603
-10.4653
-10.4694
-10.4728
-10.4756
-10.4778
-10.4796
-10.4811
-10.4826
-10.4843
-10.4863
-10.4891
-10.4931
-10.4984
-10.5056
-10.515
-10.5271
-10.5422
-10.5607
-10.5829
-10.609
-10.6391
-10.6734
-10.7119
-10.7547
-10.4271
-10.429
-10.4344
-10.4411
-10.4481
-10.4553
-10.4624
-10.469
-10.4752
-10.4808
-10.4859
-10.4905
-10.4946
-10.4984
-10.502
-10.5056
-10.5093
-10.5134
-10.5182
-10.5239
-10.5308
-10.5394
-10.5499
-10.5628
-10.5783
-10.5969
-10.6188
-10.6444
-10.6738
-10.7072
-10.7448
-10.7866
-10.8329
-10.4435
-10.4453
-10.45
-10.4562
-10.4629
-10.4699
-10.477
-10.4839
-10.4905
-10.4967
-10.5026
-10.5083
-10.5137
-10.519
-10.5243
-10.5297
-10.5356
-10.5421
-10.5494
-10.5578
-10.5676
-10.5792
-10.5929
-10.609
-10.6277
-10.6496
-10.6747
-10.7034
-10.7359
-10.7723
-10.813
-10.8579
-10.9075
-10.4598
-10.4614
-10.4657
-10.4715
-10.4779
-10.4848
-10.492
-10.4992
-10.5063
-10.5133
-10.5201
-10.5269
-10.5336
-10.5405
-10.5475
-10.5549
-10.5629
-10.5716
-10.5814
-10.5924
-10.605
-10.6194
-10.636
-10.655
-10.6768
-10.7015
-10.7295
-10.761
-10.7963
-10.8355
-10.8787
-10.9263
-10.9786
-10.4759
-10.4774
-10.4814
-10.4869
-10.4932
-10.5001
-10.5074
-10.5149
-10.5226
-10.5303
-10.538
-10.5459
-10.5539
-10.5622
-10.5708
-10.5801
-10.59
-10.6009
-10.613
-10.6264
-10.6415
-10.6586
-10.6778
-10.6995
-10.7239
-10.7513
-10.7819
-10.8159
-10.8536
-10.8951
-10.9407
-10.9904
-11.0448
-10.4918
-10.4932
-10.4971
-10.5024
-10.5086
-10.5156
-10.5231
-10.531
-10.5392
-10.5476
-10.5563
-10.5653
-10.5746
-10.5843
-10.5946
-10.6056
-10.6175
-10.6304
-10.6447
-10.6604
-10.6779
-10.6973
-10.719
-10.7431
-10.7699
-10.7996
-10.8325
-10.8687
-10.9084
-10.9518
-10.9991
-11.0505
-11.1064
-10.5076
-10.5089
-10.5127
-10.5179
-10.5241
-10.5312
-10.539
-10.5473
-10.5561
-10.5653
-10.5749
-10.5849
-10.5954
-10.6066
-10.6184
-10.6311
-10.6448
-10.6596
-10.6759
-10.6937
-10.7133
-10.7349
-10.7587
-10.785
-10.8139
-10.8456
-10.8804
-10.9184
-10.9597
-11.0046
-11.0533
-11.1058
-11.1625
-10.5232
-10.5245
-10.5282
-10.5334
-10.5397
-10.5469
-10.555
-10.5638
-10.5732
-10.5831
-10.5936
-10.6047
-10.6165
-10.6289
-10.6422
-10.6565
-10.6719
-10.6885
-10.7066
-10.7264
-10.7479
-10.7714
-10.7972
-10.8253
-10.856
-10.8894
-10.9257
-10.9651
-11.0077
-11.0537
-11.1031
-11.1562
-11.2131
-10.5385
-10.5398
-10.5435
-10.5488
-10.5552
-10.5627
-10.5711
-10.5804
-10.5904
-10.6011
-10.6125
-10.6247
-10.6375
-10.6513
-10.666
-10.6818
-10.6987
-10.717
-10.7368
-10.7582
-10.7815
-10.8067
-10.8341
-10.8638
-10.896
-10.9308
-10.9683
-11.0087
-11.0522
-11.0987
-11.1485
-11.2016
-11.2583
-10.5536
-10.5549
-10.5586
-10.564
-10.5706
-10.5784
-10.5872
-10.597
-10.6076
-10.6191
-10.6313
-10.6444
-10.6584
-10.6734
-10.6894
-10.7065
-10.7249
-10.7447
-10.7659
-10.7889
-10.8136
-10.8403
-10.8691
-10.9001
-10.9335
-10.9693
-11.0077
-11.0488
-11.0927
-11.1394
-11.1891
-11.2418
-11.2976
-10.5683
-10.5697
-10.5735
-10.579
-10.5858
-10.5939
-10.6032
-10.6135
-10.6247
-10.637
-10.6501
-10.6642
-10.6792
-10.6953
-10.7125
-10.7309
-10.7506
-10.7718
-10.7944
-10.8187
-10.8447
-10.8727
-10.9026
-10.9346
-10.9689
-11.0054
-11.0444
-11.0858
-11.1297
-11.1763
-11.2254
-11.2772
-11.3318
-10.5827
-10.5841
-10.588
-10.5937
-10.6007
-10.6092
-10.6188
-10.6297
-10.6416
-10.6545
-10.6684
-10.6834
-10.6994
-10.7165
-10.7348
-10.7544
-10.7752
-10.7975
-10.8213
-10.8467
-10.8738
-10.9027
-10.9336
-10.9664
-11.0012
-11.0382
-11.0774
-11.1188
-11.1624
-11.2084
-11.2567
-11.3073
-11.3602
-10.5965
-10.598
-10.602
-10.6079
-10.6153
-10.6241
-10.6343
-10.6457
-10.6582
-10.6719
-10.6867
-10.7025
-10.7195
-10.7376
-10.7569
-10.7775
-10.7994
-10.8228
-10.8476
-10.8739
-10.9019
-10.9316
-10.9631
-10.9964
-11.0316
-11.0688
-11.1079
-11.149
-11.1921
-11.2371
-11.2842
-11.3333
-11.3843
-10.6098
-10.6113
-10.6155
-10.6217
-10.6293
-10.6385
-10.6491
-10.661
-10.6741
-10.6884
-10.7039
-10.7205
-10.7383
-10.7572
-10.7775
-10.7989
-10.8217
-10.8459
-10.8716
-10.8987
-10.9274
-10.9576
-10.9896
-11.0232
-11.0585
-11.0955
-11.1343
-11.1749
-11.2171
-11.2611
-11.3068
-11.354
-11.4029
-10.6224
-10.624
-10.6284
-10.6349
-10.6429
-10.6526
-10.6637
-10.6762
-10.69
-10.705
-10.7213
-10.7387
-10.7573
-10.7771
-10.7981
-10.8204
-10.844
-10.8689
-10.8952
-10.923
-10.9521
-10.9828
-11.0149
-11.0486
-11.0838
-11.1205
-11.1588
-11.1985
-11.2397
-11.2823
-11.3263
-11.3716
-11.4181
-10.6341
-10.6358
-10.6404
-10.6471
-10.6554
-10.6654
-10.677
-10.6899
-10.7042
-10.7198
-10.7366
-10.7547
-10.774
-10.7945
-10.8162
-10.8392
-10.8634
-10.889
-10.9158
-10.944
-10.9735
-11.0044
-11.0366
-11.0702
-11.1052
-11.1414
-11.179
-11.2178
-11.2578
-11.2989
-11.3412
-11.3844
-11.4285
-10.6449
-10.6467
-10.6517
-10.6589
-10.6678
-10.6784
-10.6906
-10.7042
-10.7192
-10.7355
-10.753
-10.7717
-10.7916
-10.8128
-10.8351
-10.8587
-10.8834
-10.9094
-10.9366
-10.965
-10.9947
-11.0256
-11.0577
-11.091
-11.1254
-11.161
-11.1977
-11.2354
-11.274
-11.3136
-11.3539
-11.395
-11.4367
-10.6544
-10.6562
-10.6613
-10.6687
-10.6778
-10.6887
-10.7013
-10.7153
-10.7308
-10.7476
-10.7657
-10.785
-10.8055
-10.8272
-10.8501
-10.8742
-10.8995
-10.9259
-10.9534
-10.9821
-11.0119
-11.0428
-11.0748
-11.1077
-11.1417
-11.1766
-11.2123
-11.2489
-11.2861
-11.3241
-11.3625
-11.4014
-11.4407
-10.6627
-10.665
-10.6709
-10.6791
-10.6891
-10.7008
-10.7141
-10.7288
-10.7448
-10.7622
-10.7808
-10.8005
-10.8215
-10.8436
-10.8669
-10.8912
-10.9167
-10.9432
-10.9709
-10.9995
-11.0292
-11.0598
-11.0913
-11.1238
-11.157
-11.1911
-11.2258
-11.2611
-11.2969
-11.3332
-11.3698
-11.4067
-11.4436
-10.6688
-10.6706
-10.6764
-10.6848
-10.695
-10.7071
-10.7209
-10.7361
-10.7528
-10.7708
-10.79
-10.8104
-10.832
-10.8547
-10.8785
-10.9034
-10.9293
-10.9562
-10.9841
-11.0129
-11.0426
-11.0731
-11.1044
-11.1363
-11.169
-11.2022
-11.2359
-11.27
-11.3044
-11.3391
-11.3738
-11.4086
-11.4433
-10.6744
-10.6777
-10.6852
-10.6949
-10.7061
-10.7188
-10.7332
-10.7489
-10.7658
-10.784
-10.8034
-10.824
-10.8457
-10.8684
-10.8922
-10.9171
-10.9429
-10.9697
-10.9974
-11.0259
-11.0553
-11.0854
-11.1161
-11.1475
-11.1794
-11.2117
-11.2444
-11.2774
-11.3106
-11.3439
-11.3771
-11.4102
-11.4431
-10.6734
-10.6756
-10.683
-10.6935
-10.7059
-10.7196
-10.7349
-10.7516
-10.7696
-10.7888
-10.8091
-10.8305
-10.853
-10.8765
-10.901
-10.9264
-10.9527
-10.9798
-11.0078
-11.0364
-11.0657
-11.0956
-11.1261
-11.1569
-11.1882
-11.2197
-11.2514
-11.2832
-11.3149
-11.3466
-11.3781
-11.4093
-11.4401
-10.6782
-10.6845
-10.6948
-10.7055
-10.7173
-10.7313
-10.7466
-10.7629
-10.7804
-10.7993
-10.8193
-10.8404
-10.8626
-10.8858
-10.9099
-10.9351
-10.9611
-10.9879
-11.0155
-11.0438
-11.0728
-11.1023
-11.1323
-11.1627
-11.1935
-11.2244
-11.2555
-11.2866
-11.3177
-11.3486
-11.3792
-11.4094
-11.4391
-10.66
-10.6653
-10.6793
-10.6938
-10.709
-10.7258
-10.7434
-10.762
-10.7816
-10.8019
-10.8232
-10.8454
-10.8686
-10.8927
-10.9175
-10.9432
-10.9697
-10.9968
-11.0246
-11.053
-11.0818
-11.1111
-11.1406
-11.1705
-11.2004
-11.2305
-11.2604
-11.2903
-11.3199
-11.3492
-11.378
-11.4064
-11.4341
-10.674
-10.6847
-10.6972
-10.7085
-10.7216
-10.7363
-10.752
-10.7689
-10.787
-10.8062
-10.8266
-10.848
-10.8705
-10.894
-10.9186
-10.944
-10.9701
-10.997
-11.0247
-11.0529
-11.0817
-11.111
-11.1406
-11.1705
-11.2006
-11.2308
-11.261
-11.2911
-11.321
-11.3506
-11.3798
-11.4084
-11.4364
-10.5783
-10.646
-10.6739
-10.6902
-10.7107
-10.731
-10.7502
-10.7698
-10.7902
-10.8112
-10.8329
-10.8555
-10.8789
-10.9031
-10.928
-10.9537
-10.98
-11.007
-11.0345
-11.0624
-11.0907
-11.1194
-11.1482
-11.1771
-11.2061
-11.235
-11.2637
-11.2922
-11.3203
-11.3479
-11.375
-11.4014
-11.4271
-9.45862
-10.2301
-10.909
-10.58
-9.11262
-8.10867
-7.93741
-7.57911
-6.76819
-6.53921
-7.84957
-10.6454
-14.695
-19.6392
-25.0744
-30.6036
-35.812
-40.2222
-43.2896
-44.509
-43.6
-40.6533
-36.1912
-30.9549
-25.5425
-20.1164
-14.616
-9.27946
-4.71509
-1.36578
0.778598
1.84186
1.83221
0.739949
-2.51
-8.85892
-17.9858
-28.3656
-38.3608
-46.8788
-53.2854
-57.1857
-58.3821
-56.8185
-52.5976
-46.1083
-38.1554
-29.9853
-22.7485
-16.92
-12.4236
-9.00156
-6.41568
-4.47949
-3.0445
-1.99194
-1.22861
-0.682431
-0.298195
-0.0338462
0.1424
0.25433
0.319666
0.35159
0.359905
0.352024
0.333692
0.309391
0.282523
0.255469
0.229679
0.205851
0.184182
0.164609
0.146971
0.131099
0.116834
0.104031
0.0925472
0.0822478
0.0729949
0.0646572
0.0571067
0.0502271
0.0439362
0.0381797
0.0329701
0.0283232
0.0242576
0.0207994
0.0178933
0.0154831
0.0134126
0.0115509
0.00983222
0.00783052
0.00646332
0.00316746
0.00416145
-0.00445016
-9.6883
-10.2206
-10.5612
-10.3459
-9.49497
-8.68861
-8.0035
-7.07432
-6.09224
-6.26963
-7.89136
-10.6006
-14.3459
-18.9247
-23.9774
-29.1074
-33.9063
-37.9348
-40.7121
-41.8044
-40.9777
-38.3373
-34.3596
-29.6456
-24.6217
-19.4272
-14.133
-9.09322
-4.85384
-1.73721
0.275102
1.28873
1.26378
0.174062
-2.68594
-8.22693
-16.3565
-25.905
-35.3659
-43.5896
-49.8383
-53.6687
-54.8692
-53.3806
-49.344
-43.232
-35.896
-28.4895
-21.9332
-16.5772
-12.3615
-9.09364
-6.58795
-4.6884
-3.26393
-2.20662
-1.43018
-0.866866
-0.464073
-0.181275
0.0124746
0.140578
0.220579
0.26565
0.285707
0.28828
0.279202
0.263024
0.243199
0.22217
0.201476
0.18193
0.163858
0.147312
0.132235
0.118535
0.10612
0.0948998
0.0847728
0.0756434
0.0674065
0.0599618
0.0532019
0.0470495
0.0413814
0.0361569
0.0313893
0.0270952
0.0232961
0.0200235
0.0172426
0.0149067
0.0128979
0.0110687
0.00942296
0.00743709
0.00620945
0.00286286
0.00410217
-0.00470361
-9.8329
-10.1325
-10.3799
-10.204
-9.41504
-8.55725
-7.98236
-7.43708
-6.88408
-6.87476
-8.04563
-10.6638
-14.2923
-18.4932
-23.0584
-27.7071
-32.0608
-35.6998
-38.1866
-39.1512
-38.4191
-36.1099
-32.6116
-28.3585
-23.6576
-18.6823
-13.6457
-8.95855
-5.06186
-2.1764
-0.291045
0.665432
0.638145
-0.43682
-3.00253
-7.82668
-14.9647
-23.5694
-32.3409
-40.1382
-46.1532
-49.8866
-51.0866
-49.7008
-45.9219
-40.2913
-33.667
-27.0467
-21.1463
-16.2356
-12.2877
-9.17247
-6.74988
-4.89061
-3.47981
-2.42018
-1.63241
-1.05316
-0.632551
-0.331687
-0.120566
0.0237389
0.118588
0.177076
0.209155
0.222458
0.222899
0.21508
0.202508
0.187692
0.17226
0.157143
0.142793
0.129383
0.116955
0.105504
0.0950049
0.0854167
0.0766829
0.0687442
0.0615254
0.0549489
0.0489302
0.0433907
0.0382757
0.0335525
0.0292372
0.0253524
0.0219198
0.0189619
0.0164442
0.0143104
0.0124645
0.0107341
0.00919187
0.00722171
0.00610966
0.0026973
0.0041575
-0.00484652
-9.9185
-10.1054
-10.2339
-10.0704
-9.56336
-9.02092
-8.59679
-8.14058
-7.6654
-7.71036
-8.87242
-11.1788
-14.4106
-18.2764
-22.4112
-26.5366
-30.3764
-33.5835
-35.7713
-36.6283
-36.0248
-34.0535
-30.9689
-27.0679
-22.6221
-17.8889
-13.1842
-8.89098
-5.33431
-2.67008
-0.906904
-0.0125607
-0.0419931
-1.08874
-3.43408
-7.63541
-13.829
-21.4262
-29.3818
-36.6219
-42.3133
-45.8948
-47.0873
-45.8538
-42.4336
-37.3935
-31.5382
-25.685
-20.3935
-15.8941
-12.2009
-9.23747
-6.90107
-5.08561
-3.69158
-2.63212
-1.83487
-1.24096
-0.803335
-0.48485
-0.256528
-0.0960112
0.0138053
0.0859395
0.130314
0.154608
0.164812
0.165581
0.160467
0.152045
0.14204
0.131497
0.120996
0.110828
0.101142
0.0920204
0.0835033
0.0756053
0.0683202
0.0616288
0.0554892
0.049854
0.0446611
0.0398641
0.0353995
0.0312401
0.0274034
0.0239126
0.0207921
0.0180672
0.0157198
0.0136988
0.0119433
0.0102645
0.00880492
0.00685716
0.00588012
0.00242584
0.00410262
-0.00504685
-10.003
-10.1168
-10.1834
-10.0615
-9.70537
-9.28542
-8.94717
-8.67473
-8.51388
-8.77578
-9.84215
-11.8582
-14.7276
-18.1818
-21.913
-25.616
-29.0005
-31.7822
-33.6833
-34.4623
-33.9646
-32.2167
-29.3825
-25.7121
-21.5052
-17.0853
-12.7803
-8.8933
-5.65963
-3.20596
-1.56387
-0.735011
-0.770018
-1.77157
-3.93993
-7.62627
-12.9702
-19.5681
-26.6212
-33.1902
-38.4576
-41.8303
-43.0209
-41.9976
-39.0203
-34.6398
-29.5534
-24.4149
-19.6752
-15.5532
-12.1026
-9.28956
-7.04168
-5.27315
-3.89884
-2.84204
-2.03719
-1.42995
-0.976185
-0.640573
-0.395264
-0.218545
-0.0936486
-0.00768831
0.0492338
0.0847861
0.104992
0.114565
0.117108
0.115259
0.110837
0.105008
0.0984745
0.091652
0.084798
0.0780793
0.0716038
0.0654479
0.0596545
0.0542425
0.0492017
0.0445102
0.0401297
0.0360224
0.0321637
0.0285407
0.0251781
0.0221059
0.0193518
0.0169369
0.014848
0.0130275
0.0114378
0.00986528
0.00851832
0.0065995
0.00574331
0.00224324
0.00412015
-0.00516353
-10.0683
-10.1415
-10.1759
-10.0797
-9.82693
-9.53258
-9.31282
-9.18778
-9.21565
-9.61437
-10.6421
-12.4294
-14.9503
-18.0281
-21.3872
-24.7292
-27.7721
-30.2486
-31.9305
-32.5888
-32.0748
-30.3906
-27.6927
-24.2401
-20.3472
-16.3291
-12.4572
-8.96081
-6.02608
-3.7729
-2.25251
-1.49015
-1.53485
-2.48026
-4.48684
-7.75985
-12.3816
-18.0604
-24.1927
-30.0119
-34.7726
-37.8956
-39.0841
-38.3086
-35.822
-32.1097
-27.7411
-23.2396
-18.9898
-15.2128
-11.9935
-9.32932
-7.17179
-5.45299
-4.10124
-3.04952
-2.239
-1.61982
-1.15082
-0.798627
-0.536586
-0.343711
-0.203635
-0.103675
-0.0340011
0.0130473
0.0434972
0.062087
0.0724711
0.0773638
0.0786773
0.0776936
0.0752447
0.0718721
0.0679365
0.0636898
0.059318
0.0549601
0.0507086
0.0466233
0.0427294
0.0390344
0.0355242
0.032188
0.0290066
0.025976
0.0231227
0.0204772
0.0180706
0.0159258
0.0140432
0.0123679
0.0108945
0.00939274
0.00813953
0.00625154
0.0055261
0.00199684
0.00406339
-0.0053105
-10.1432
-10.1928
-10.2112
-10.143
-9.97575
-9.78316
-9.65292
-9.62648
-9.76987
-10.248
-11.2486
-12.8575
-15.0497
-17.7145
-20.6605
-23.635
-26.3611
-28.5748
-30.0281
-30.5071
-29.9438
-28.3407
-25.8518
-22.7264
-19.2466
-15.6724
-12.2206
-9.0814
-6.42167
-4.36076
-2.9627
-2.26661
-2.32221
-3.20762
-5.05466
-7.98603
-12.0154
-16.9037
-22.1797
-27.2371
-31.4484
-34.2867
-35.4673
-34.9506
-32.9469
-29.847
-26.1047
-22.1516
-18.3336
-14.8734
-11.8752
-9.35774
-7.2917
-5.62502
-4.29848
-3.25425
-2.43996
-1.81026
-1.327
-0.958796
-0.680311
-0.471353
-0.316024
-0.201897
-0.119269
-0.0605167
-0.0196128
0.00819906
0.0266119
0.0384069
0.0455969
0.0495865
0.0513362
0.0515068
0.0505649
0.0488572
0.0466483
0.0441389
0.041472
0.038749
0.0360288
0.0333464
0.0307119
0.028131
0.0256051
0.0231485
0.0207968
0.0185871
0.0165562
0.0147259
0.0131047
0.0116335
0.0103309
0.00894313
0.00780999
0.00596298
0.00536097
0.00180513
0.00404737
-0.00539808
-10.2157
-10.2542
-10.2699
-10.2306
-10.1316
-10.0235
-9.97513
-10.0352
-10.2669
-10.7911
-11.7418
-13.1819
-15.0892
-17.3706
-19.8758
-22.4097
-24.7425
-26.6308
-27.8271
-28.2099
-27.6754
-26.2508
-24.0691
-21.339
-18.2895
-15.1332
-12.0585
-9.2407
-6.83563
-4.95937
-3.68211
-3.05056
-3.11527
-3.94049
-5.63005
-8.26209
-11.8056
-16.0424
-20.5847
-24.9459
-28.6194
-31.164
-32.3226
-32.0306
-30.439
-27.8494
-24.6264
-21.1392
-17.7035
-14.5363
-11.7493
-9.37574
-7.40174
-5.78923
-4.49038
-3.45593
-2.63979
-2.00099
-1.50444
-1.12085
-0.826241
-0.601295
-0.430661
-0.302223
-0.206444
-0.135782
-0.0842326
-0.0470185
-0.0204085
-0.00155798
0.0116457
0.0207289
0.0267782
0.0305752
0.0327007
0.0335976
0.0336083
0.0329971
0.03196
0.0306407
0.0291344
0.0275055
0.0257896
0.0240174
0.0221981
0.0203613
0.0185459
0.0167904
0.0151358
0.0136053
0.0122199
0.0109215
0.00975838
0.00845994
0.00743183
0.00562558
0.00515024
0.00158037
0.00398578
-0.00549199
-10.2952
-10.3306
-10.3512
-10.3393
-10.2961
-10.2584
-10.2803
-10.4091
-10.7017
-11.2482
-12.145
-13.438
-15.1047
-17.0646
-19.1897
-21.3166
-23.2584
-24.8192
-25.8152
-26.1218
-25.6478
-24.4161
-22.533
-20.1616
-17.4867
-14.6921
-11.9509
-9.42525
-7.2578
-5.55792
-4.39766
-3.82794
-3.89871
-4.66399
-6.20134
-8.56044
-11.6918
-15.3933
-19.3335
-23.1085
-26.3072
-28.5734
-29.6815
-29.5456
-28.2663
-26.0771
-23.2784
-20.1909
-17.0985
-14.2032
-11.6176
-9.38437
-7.50237
-5.94572
-4.6768
-3.65435
-2.83821
-2.19174
-1.68292
-1.28458
-0.974176
-0.733358
-0.54738
-0.404499
-0.295393
-0.212628
-0.150239
-0.103453
-0.068498
-0.0424558
-0.0231162
-0.00883609
0.00160092
0.009104
0.0143661
0.0179266
0.0202084
0.0215411
0.0221737
0.022293
0.0220295
0.0214763
0.0206934
0.019727
0.0186129
0.0173888
0.0161043
0.0148059
0.0135415
0.0123357
0.0112194
0.0101323
0.00914672
0.00797013
0.00706828
0.00531401
0.00496203
0.00138426
0.00393967
-0.00554982
-10.3767
-10.4141
-10.444
-10.4579
-10.4606
-10.4801
-10.5592
-10.7409
-11.0747
-11.6277
-12.4686
-13.6299
-15.0914
-16.7845
-18.6001
-20.3997
-22.0271
-23.3246
-24.1461
-24.3777
-23.9474
-22.8712
-21.2303
-19.1537
-16.7967
-14.3205
-11.8812
-9.62445
-7.67888
-6.14601
-5.0975
-4.58622
-4.6602
-5.36525
-6.75766
-8.86481
-11.6321
-14.8793
-18.3204
-21.6128
-24.4132
-26.4242
-27.4527
-27.4068
-26.3541
-24.4803
-22.037
-19.3002
-16.5189
-13.8763
-11.4817
-9.38464
-7.59414
-6.09468
-4.85773
-3.84936
-3.03503
-2.38231
-1.86222
-1.44976
-1.12391
-0.867348
-0.665999
-0.508556
-0.385956
-0.290907
-0.217508
-0.160993
-0.117552
-0.0841989
-0.0586209
-0.0390522
-0.0241466
-0.0128688
-0.00441028
0.00186705
0.00646719
0.00978612
0.0121272
0.013721
0.0147344
0.0152904
0.0154743
0.0153538
0.0149808
0.0144048
0.0136817
0.0128617
0.0119979
0.0111168
0.0102609
0.00937
0.00854427
0.00747445
0.00668826
0.00498549
0.00475585
0.00118048
0.00387295
-0.00559059
-10.462
-10.5046
-10.5461
-10.5835
-10.6236
-10.6887
-10.813
-11.0337
-11.392
-11.9384
-12.7209
-13.7613
-15.0416
-16.5043
-18.0582
-19.5868
-20.9584
-22.0399
-22.7085
-22.8715
-22.4748
-21.5261
-20.0879
-18.2659
-16.1911
-14.0031
-11.8397
-9.83046
-8.09097
-6.715
-5.77233
-5.3158
-5.39076
-6.03547
-7.29036
-9.16537
-11.6045
-14.4508
-17.4605
-20.3409
-22.7995
-24.5787
-25.5113
-25.5155
-24.6368
-23.0248
-20.8896
-18.4649
-15.9659
-13.5571
-11.3431
-9.37767
-7.67772
-6.23645
-5.03326
-4.04089
-3.2301
-2.57251
-2.04215
-1.61621
-1.27526
-1.00307
-0.786322
-0.614203
-0.477952
-0.370453
-0.285885
-0.219499
-0.167454
-0.126687
-0.094783
-0.0698506
-0.0504113
-0.0353007
-0.0235945
-0.014555
-0.00759554
-0.0022528
0.00183119
0.00493073
0.00724878
0.00893707
0.0101057
0.0108412
0.0112132
0.0112843
0.0111209
0.0107804
0.0103238
0.00978047
0.00920427
0.00853364
0.00789284
0.00695282
0.00629785
0.00465706
0.00454805
0.000982744
0.00379924
-0.00561806
-10.549
-10.5984
-10.652
-10.7102
-10.7804
-10.8812
-11.0399
-11.2874
-11.6574
-12.1875
-12.911
-13.8412
-14.961
-16.2219
-17.5479
-18.8416
-19.993
-20.8901
-21.4318
-21.5417
-21.1759
-20.3377
-19.0773
-17.4813
-15.6596
-13.7321
-11.8196
-10.037
-8.48782
-7.25827
-6.415
-6.00929
-6.08327
-6.66849
-7.79331
-9.45535
-11.598
-14.0853
-16.7101
-19.224
-21.3762
-22.9438
-23.7824
-23.8186
-23.0834
-21.6963
-19.8309
-17.6839
-15.4403
-13.2471
-11.2033
-9.36459
-7.75389
-6.37146
-5.20357
-4.22898
-3.42337
-2.76223
-2.22255
-1.78375
-1.42802
-1.14032
-0.908141
-0.721231
-0.571179
-0.451073
-0.355194
-0.278815
-0.218064
-0.169802
-0.131503
-0.101148
-0.0771253
-0.0581382
-0.0431451
-0.0313073
-0.0219547
-0.0145562
-0.00869888
-0.00406441
-0.00041364
0.00243453
0.00461526
0.00623534
0.00738138
0.00812824
0.00855024
0.00871025
0.00867564
0.008478
0.008183
0.00772856
0.00726499
0.00644763
0.00591763
0.00433927
0.00434721
0.000801791
0.00372438
-0.00560314
-10.6366
-10.6937
-10.759
-10.8351
-10.9293
-11.0572
-11.2405
-11.5047
-11.8764
-12.3834
-13.0482
-13.878
-14.8562
-15.9416
-17.0705
-18.1619
-19.1243
-19.8651
-20.3012
-20.368
-20.0299
-19.2891
-18.1854
-16.7896
-15.1937
-13.5004
-11.8149
-10.2387
-8.86443
-7.7706
-7.01985
-6.66077
-6.73193
-7.25938
-8.26189
-9.72922
-11.6054
-13.7718
-16.0528
-18.2378
-20.1136
-21.49
-22.2395
-22.2965
-21.6807
-20.4865
-18.8564
-16.9554
-14.9422
-12.9475
-11.0636
-9.34662
-7.82353
-6.50026
-5.36898
-4.41378
-3.61487
-2.95142
-2.40333
-1.95223
-1.58201
-1.27888
-1.03123
-0.82941
-0.665407
-0.532548
-0.425229
-0.338755
-0.26922
-0.213403
-0.168664
-0.132852
-0.104213
-0.0813212
-0.063014
-0.0483515
-0.0365793
-0.0270986
-0.0194416
-0.0132466
-0.0082392
-0.00420987
-0.000999478
0.00151777
0.00344508
0.00487035
0.0058782
0.00653904
0.00692866
0.00708253
0.00707859
0.00685393
0.0065825
0.00590243
0.00550715
0.00399969
0.00412265
0.000607406
0.00361752
-0.00559793
-10.724
-10.7885
-10.8645
-10.9552
-11.0679
-11.2153
-11.4152
-11.6875
-12.0532
-12.5324
-13.1399
-13.8782
-14.7316
-15.6647
-16.6242
-17.5428
-18.3448
-18.953
-19.3005
-19.3325
-19.0206
-18.3658
-17.3997
-16.1804
-14.785
-13.3012
-11.8202
-10.4313
-9.21681
-8.24788
-7.58243
-7.26568
-7.33244
-7.80432
-8.69261
-9.98234
-11.6197
-13.5011
-15.477
-17.3696
-18.9982
-20.2013
-20.866
-20.9338
-20.4159
-19.386
-17.9605
-16.2771
-14.4716
-12.6593
-10.9255
-9.32503
-7.8876
-6.62354
-5.52992
-4.59554
-3.80474
-3.14014
-2.58445
-2.12155
-1.73709
-1.41857
-1.15536
-0.938484
-0.760377
-0.614625
-0.495756
-0.399107
-0.320735
-0.25733
-0.206131
-0.164847
-0.131584
-0.104777
-0.0831452
-0.0656451
-0.051438
-0.0398574
-0.0303817
-0.0226058
-0.0162207
-0.0109886
-0.00672636
-0.00328895
-0.00055683
0.00157021
0.00318607
0.0043675
0.00519768
0.00571524
0.00600992
0.00601824
0.00593853
0.0053949
0.00513198
0.00369759
0.00393045
0.000457344
0.00352529
-0.00552207
-10.8092
-10.8807
-10.9659
-11.0684
-11.1947
-11.3555
-11.5649
-11.8386
-12.1925
-12.6409
-13.1931
-13.8482
-14.5914
-15.3923
-16.2064
-16.9777
-17.6438
-18.142
-18.4142
-18.4187
-18.1312
-17.552
-16.7066
-15.6429
-14.4252
-13.1283
-11.8309
-10.6112
-9.54195
-8.68711
-8.0996
-7.82087
-7.88196
-8.30081
-9.08311
-10.2113
-11.6348
-13.2633
-14.9696
-16.6036
-18.0119
-19.0579
-19.6425
-19.7135
-19.2755
-18.3853
-17.1376
-15.6467
-14.0284
-12.3837
-10.7903
-9.3011
-7.94718
-6.7421
-5.68698
-4.77467
-3.99323
-3.32852
-2.76595
-2.29167
-1.89311
-1.55917
-1.28027
-1.04818
-0.8558
-0.69702
-0.566505
-0.459626
-0.372393
-0.301399
-0.243751
-0.197012
-0.159137
-0.128426
-0.103474
-0.0831339
-0.0664842
-0.0527913
-0.0414807
-0.032106
-0.0243249
-0.0178729
-0.0125443
-0.00817606
-0.00463265
-0.00180115
0.000422704
0.00212341
0.00339298
0.00427457
0.00487063
0.00511742
0.00523586
0.00483581
0.0047092
0.00335335
0.00369234
0.000271503
0.00338126
-0.00548167
-10.8919
-10.9694
-11.0621
-11.1733
-11.309
-11.4779
-11.6911
-11.9607
-12.2986
-12.7146
-13.2138
-13.7934
-14.4394
-15.1258
-15.8151
-16.4609
-17.012
-17.4165
-17.6279
-17.611
-17.3464
-16.834
-16.0948
-15.168
-14.1075
-12.9767
-11.8435
-10.7758
-9.83772
-9.08634
-8.56942
-8.32448
-8.3789
-8.74756
-9.43207
-10.4139
-11.6463
-13.0506
-14.5188
-15.9243
-17.137
-18.0415
-18.5513
-18.62
-18.2469
-17.4758
-16.3827
-15.0622
-13.6124
-12.1214
-10.6593
-9.27617
-8.0034
-6.85688
-5.84089
-4.95173
-4.18076
-3.51682
-2.94797
-2.46259
-2.04996
-1.70049
-1.40571
-1.15817
-0.951346
-0.779405
-0.637167
-0.52003
-0.423945
-0.345394
-0.281342
-0.229194
-0.186753
-0.152175
-0.123929
-0.100768
-0.081685
-0.0658817
-0.0527322
-0.0417497
-0.0325601
-0.024873
-0.0184608
-0.0131424
-0.00876735
-0.00521094
-0.0023591
-0.000120271
0.00160567
0.0028658
0.00377447
0.00426773
0.00458916
0.00433678
0.00434741
0.00307458
0.00351412
0.000158775
0.00327454
-0.00534079
-10.9704
-11.053
-11.1513
-11.2687
-11.41
-11.5826
-11.7951
-12.0565
-12.3755
-12.7585
-13.2077
-13.719
-14.2793
-14.8663
-15.4486
-15.988
-16.442
-16.7685
-16.9295
-16.8964
-16.6532
-16.2001
-15.5541
-14.7475
-13.8256
-12.842
-11.8548
-10.9231
-10.1028
-9.44459
-8.99106
-8.7758
-8.82276
-9.14424
-9.73908
-10.5887
-11.6506
-12.8566
-14.1149
-15.3187
-16.3585
-17.136
-17.5768
-17.6392
-17.3192
-16.6495
-15.6909
-14.5214
-13.2234
-11.8733
-10.5338
-9.25158
-8.05753
-6.96894
-5.99253
-5.12743
-4.36788
-3.70547
-3.13076
-2.63439
-2.20759
-1.84234
-1.53138
-1.26814
-1.04665
-0.861413
-0.707394
-0.580003
-0.475116
-0.389084
-0.318713
-0.261241
-0.214306
-0.175918
-0.144423
-0.118468
-0.0969668
-0.079057
-0.0640647
-0.0514658
-0.0408569
-0.0319242
-0.0244199
-0.018146
-0.0129374
-0.00865709
-0.00518065
-0.00240857
-0.000231708
0.00140215
0.00261983
0.00335785
0.00388118
0.00377664
0.00392243
0.00273387
0.0032668
-1.64402e-05
0.00309737
-0.00526563
-11.0446
-11.1309
-11.2332
-11.3541
-11.498
-11.6706
-11.8786
-12.1288
-12.4269
-12.777
-13.1794
-13.629
-14.1139
-14.6149
-15.1057
-15.5547
-15.9272
-16.1887
-16.3085
-16.2633
-16.0403
-15.6396
-15.0753
-14.3743
-13.5742
-12.7204
-11.8627
-11.0518
-10.3367
-9.76167
-9.36454
-9.17504
-9.21395
-9.49133
-10.0044
-10.735
-11.6453
-12.6761
-13.7498
-14.7761
-15.6631
-16.3276
-16.7053
-16.759
-16.4823
-15.8992
-15.0579
-14.0221
-12.8609
-11.64
-10.415
-9.2287
-8.11089
-7.07951
-6.143
-5.30271
-4.55538
-3.89504
-3.3147
-2.80727
-2.36599
-1.98454
-1.65698
-1.37769
-1.14128
-0.942613
-0.776773
-0.639165
-0.525569
-0.432178
-0.355622
-0.292954
-0.241643
-0.199545
-0.164879
-0.13619
-0.112313
-0.0923236
-0.0755034
-0.0612929
-0.0492621
-0.0390752
-0.0304649
-0.0232182
-0.0171571
-0.0121333
-0.00801283
-0.00468867
-0.00204322
-1.94553e-05
0.00152077
0.0025149
0.00324888
0.00330032
0.00358489
0.00248795
0.0031097
-8.55682e-05
0.00298357
-0.00505664
-11.1133
-11.2021
-11.3066
-11.429
-11.5728
-11.7426
-11.9435
-12.1801
-12.4564
-12.7745
-13.1333
-13.5274
-13.9461
-14.3726
-14.7852
-15.1578
-15.4618
-15.6695
-15.7558
-15.702
-15.4978
-15.1435
-14.6508
-14.0421
-13.3487
-12.6091
-11.8654
-11.1614
-10.5394
-10.0381
-9.69071
-9.52325
-9.55366
-9.79007
-10.2289
-10.8529
-11.6286
-12.5052
-13.4166
-14.2873
-15.0399
-15.604
-15.9245
-15.9682
-15.727
-15.2181
-14.4793
-13.5623
-12.5246
-11.4222
-10.304
-9.20891
-8.16491
-7.18996
-6.29354
-5.47872
-4.74423
-4.08633
-3.50034
-2.98149
-2.52518
-2.12692
-1.78219
-1.48639
-1.23478
-1.02253