/*--------------------------------*- C++ -*----------------------------------*\
  =========                 |
  \\      /  F ield         | OpenFOAM: The Open Source CFD Toolbox
   \\    /   O peration     | Website:  https://openfoam.org
    \\  /    A nd           | Version:  10
     \\/     M anipulation  |
\*---------------------------------------------------------------------------*/
FoamFile
{
    format      ascii;
    class       surfaceScalarField;
    location    "0.1";
    object      phi;
}
// * * * * * * * * * * * * * * * * * * * * * * * * * * * * * * * * * * * * * //

dimensions      [0 3 -1 0 0 0 0];

internalField   nonuniform List<scalar> 
13452
(
5.9451e-05
8.17453e-07
5.84652e-05
9.85799e-07
5.7435e-05
1.03026e-06
5.63723e-05
1.06262e-06
5.53051e-05
1.06724e-06
5.4244e-05
1.06109e-06
5.31918e-05
1.05224e-06
5.21494e-05
1.04238e-06
5.11167e-05
1.03269e-06
5.00926e-05
1.02407e-06
4.90756e-05
1.01705e-06
4.80635e-05
1.01206e-06
4.7054e-05
1.0095e-06
4.60442e-05
1.00979e-06
4.50308e-05
1.01337e-06
4.40101e-05
1.02076e-06
4.29775e-05
1.03257e-06
4.1928e-05
1.04947e-06
4.08557e-05
1.07228e-06
3.97539e-05
1.10184e-06
3.86148e-05
1.13909e-06
3.74299e-05
1.18494e-06
3.61897e-05
1.24022e-06
3.48841e-05
1.30551e-06
3.35031e-05
1.38104e-06
3.20367e-05
1.46642e-06
3.04762e-05
1.56046e-06
2.8815e-05
1.66118e-06
2.70506e-05
1.76441e-06
2.51804e-05
1.87026e-06
2.32208e-05
1.95957e-06
2.11409e-05
2.07988e-06
2.12116e-06
1.90198e-05
6.24904e-05
3.17411e-07
6.2966e-05
5.10173e-07
6.34133e-05
5.82966e-07
6.38229e-05
6.5307e-07
6.41871e-05
7.02953e-07
6.45058e-05
7.42439e-07
6.47801e-05
7.77938e-07
6.50121e-05
8.10375e-07
6.52041e-05
8.4072e-07
6.53581e-05
8.70044e-07
6.5476e-05
8.99175e-07
6.55592e-05
9.28859e-07
6.56088e-05
9.5986e-07
6.56256e-05
9.92975e-07
6.56099e-05
1.02907e-06
6.55616e-05
1.06911e-06
6.548e-05
1.11419e-06
6.53639e-05
1.16558e-06
6.52114e-05
1.22472e-06
6.502e-05
1.29326e-06
6.47861e-05
1.37301e-06
6.45051e-05
1.46594e-06
6.41712e-05
1.57406e-06
6.37774e-05
1.69933e-06
6.33151e-05
1.8434e-06
6.27741e-05
2.00736e-06
6.21431e-05
2.19144e-06
6.14098e-05
2.39447e-06
6.05604e-05
2.6139e-06
5.95848e-05
2.84582e-06
5.84618e-05
3.08255e-06
5.72129e-05
3.32884e-06
3.55187e-06
5.57821e-05
6.38339e-05
2.4492e-07
6.39079e-05
4.36138e-07
6.39745e-05
5.16436e-07
6.40429e-05
5.84654e-07
6.41125e-05
6.3336e-07
6.41854e-05
6.69504e-07
6.42628e-05
7.00575e-07
6.43447e-05
7.28453e-07
6.4431e-05
7.54363e-07
6.45215e-05
7.79545e-07
6.46158e-05
8.04925e-07
6.47134e-05
8.31282e-07
6.48139e-05
8.5937e-07
6.49169e-05
8.89953e-07
6.50221e-05
9.23834e-07
6.51293e-05
9.61898e-07
6.52384e-05
1.00514e-06
6.53493e-05
1.0547e-06
6.54621e-05
1.11186e-06
6.55773e-05
1.1781e-06
6.56952e-05
1.25507e-06
6.58166e-05
1.34456e-06
6.59422e-05
1.4485e-06
6.60727e-05
1.56882e-06
6.62087e-05
1.70739e-06
6.63503e-05
1.86575e-06
6.64968e-05
2.04499e-06
6.6646e-05
2.24526e-06
6.67941e-05
2.46576e-06
6.69359e-05
2.70405e-06
6.70628e-05
2.95566e-06
6.71754e-05
3.21621e-06
3.46566e-06
6.72616e-05
6.564e-05
1.88038e-07
6.56903e-05
3.85816e-07
6.57236e-05
4.83092e-07
6.57485e-05
5.59801e-07
6.57657e-05
6.16176e-07
6.5777e-05
6.5812e-07
6.5784e-05
6.93566e-07
6.57874e-05
7.2511e-07
6.57876e-05
7.54148e-07
6.57851e-05
7.82044e-07
6.57802e-05
8.09838e-07
6.57731e-05
8.38374e-07
6.5764e-05
8.68447e-07
6.57531e-05
9.00837e-07
6.57406e-05
9.36339e-07
6.57267e-05
9.75796e-07
6.57118e-05
1.02012e-06
6.56961e-05
1.07033e-06
6.56805e-05
1.12752e-06
6.56657e-05
1.19288e-06
6.5653e-05
1.26772e-06
6.56442e-05
1.35337e-06
6.56416e-05
1.45116e-06
6.56481e-05
1.56233e-06
6.56675e-05
1.68794e-06
6.57046e-05
1.82869e-06
6.57648e-05
1.98479e-06
6.58543e-05
2.15574e-06
6.598e-05
2.34007e-06
6.61485e-05
2.53554e-06
6.63672e-05
2.73694e-06
6.66423e-05
2.94107e-06
3.12718e-06
6.69808e-05
6.74899e-05
1.54971e-07
6.7529e-05
3.46626e-07
6.75604e-05
4.51735e-07
6.75878e-05
5.32411e-07
6.76096e-05
5.94315e-07
6.76258e-05
6.4195e-07
6.7637e-05
6.82382e-07
6.76436e-05
7.18545e-07
6.76457e-05
7.5197e-07
6.76437e-05
7.84104e-07
6.76374e-05
8.16085e-07
6.7627e-05
8.48827e-07
6.76123e-05
8.83171e-07
6.75932e-05
9.19928e-07
6.75696e-05
9.59907e-07
6.75415e-05
1.00394e-06
6.75087e-05
1.05293e-06
6.74712e-05
1.1078e-06
6.74291e-05
1.16958e-06
6.73827e-05
1.23932e-06
6.73323e-05
1.3181e-06
6.72787e-05
1.407e-06
6.72228e-05
1.50701e-06
6.71662e-05
1.61894e-06
6.71108e-05
1.74333e-06
6.70592e-05
1.88029e-06
6.70147e-05
2.02934e-06
6.69811e-05
2.18928e-06
6.69634e-05
2.35782e-06
6.6967e-05
2.53198e-06
6.6998e-05
2.70593e-06
6.70638e-05
2.87525e-06
3.02349e-06
6.71675e-05
6.9411e-05
1.27961e-07
6.94479e-05
3.0979e-07
6.94781e-05
4.21499e-07
6.95034e-05
5.07121e-07
6.95232e-05
5.74468e-07
6.95378e-05
6.2739e-07
6.95479e-05
6.72256e-07
6.95541e-05
7.12396e-07
6.95565e-05
7.4958e-07
6.95552e-05
7.85332e-07
6.95504e-05
8.20884e-07
6.95421e-05
8.57221e-07
6.953e-05
8.95226e-07
6.95142e-05
9.35738e-07
6.94945e-05
9.79576e-07
6.94709e-05
1.02757e-06
6.94432e-05
1.08057e-06
6.94116e-05
1.13948e-06
6.93759e-05
1.20521e-06
6.93365e-05
1.27872e-06
6.92937e-05
1.36092e-06
6.9248e-05
1.45269e-06
6.92002e-05
1.5548e-06
6.91514e-05
1.66779e-06
6.91028e-05
1.7919e-06
6.90562e-05
1.92696e-06
6.90133e-05
2.07218e-06
6.89765e-05
2.22612e-06
6.8948e-05
2.38635e-06
6.89302e-05
2.54972e-06
6.89252e-05
2.71094e-06
6.89352e-05
2.86521e-06
3.00135e-06
6.89574e-05
7.13843e-05
1.09969e-07
7.14124e-05
2.81724e-07
7.14373e-05
3.96554e-07
7.14596e-05
4.84847e-07
7.14785e-05
5.55601e-07
7.14933e-05
6.12542e-07
7.15044e-05
6.61222e-07
7.15117e-05
7.0501e-07
7.15156e-05
7.45744e-07
7.15159e-05
7.84981e-07
7.15128e-05
8.24e-07
7.15062e-05
8.63814e-07
7.14961e-05
9.05324e-07
7.14825e-05
9.49372e-07
7.14653e-05
9.96769e-07
7.14445e-05
1.04832e-06
7.14203e-05
1.10485e-06
7.13926e-05
1.16717e-06
7.13617e-05
1.23611e-06
7.13279e-05
1.3125e-06
7.12917e-05
1.3971e-06
7.12538e-05
1.49061e-06
7.12151e-05
1.59356e-06
7.11766e-05
1.70627e-06
7.11397e-05
1.82876e-06
7.1106e-05
1.96063e-06
7.10773e-05
2.10096e-06
7.10551e-05
2.24824e-06
7.10413e-05
2.40015e-06
7.10373e-05
2.55378e-06
7.10434e-05
2.70483e-06
7.10594e-05
2.84915e-06
2.97981e-06
7.1081e-05
7.34188e-05
9.64205e-08
7.34433e-05
2.57267e-07
7.3467e-05
3.72792e-07
7.34887e-05
4.6321e-07
7.35071e-05
5.37176e-07
7.35216e-05
5.98087e-07
7.35322e-05
6.50593e-07
7.35392e-05
6.9797e-07
7.35428e-05
7.4216e-07
7.35431e-05
7.84743e-07
7.354e-05
8.27028e-07
7.35337e-05
8.70091e-07
7.35242e-05
9.14838e-07
7.35115e-05
9.62116e-07
7.34955e-05
1.01273e-06
7.34764e-05
1.06745e-06
7.34542e-05
1.12705e-06
7.34291e-05
1.19227e-06
7.34013e-05
1.26385e-06
7.33714e-05
1.34248e-06
7.33397e-05
1.42879e-06
7.3307e-05
1.52328e-06
7.32742e-05
1.62632e-06
7.32425e-05
1.73801e-06
7.32131e-05
1.85819e-06
7.31874e-05
1.98632e-06
7.3167e-05
2.12138e-06
7.31533e-05
2.2619e-06
7.31477e-05
2.40578e-06
7.3151e-05
2.55048e-06
7.31631e-05
2.69268e-06
7.31831e-05
2.8292e-06
2.95589e-06
7.3207e-05
7.55124e-05
8.64796e-08
7.55321e-05
2.37552e-07
7.55523e-05
3.52608e-07
7.55711e-05
4.44384e-07
7.55877e-05
5.20574e-07
7.56014e-05
5.84464e-07
7.56119e-05
6.40058e-07
7.56194e-05
6.90489e-07
7.56238e-05
7.37766e-07
7.56251e-05
7.83437e-07
7.56233e-05
8.28757e-07
7.56186e-05
8.74815e-07
7.56109e-05
9.22541e-07
7.56003e-05
9.72777e-07
7.55867e-05
1.0263e-06
7.55703e-05
1.08385e-06
7.55512e-05
1.14613e-06
7.55297e-05
1.21381e-06
7.5506e-05
1.28754e-06
7.54806e-05
1.36787e-06
7.54541e-05
1.4553e-06
7.54272e-05
1.55018e-06
7.54008e-05
1.65272e-06
7.53759e-05
1.76289e-06
7.53537e-05
1.88038e-06
7.53355e-05
2.00455e-06
7.53224e-05
2.13442e-06
7.53158e-05
2.26858e-06
7.53163e-05
2.40523e-06
7.53245e-05
2.54227e-06
7.534e-05
2.67724e-06
7.53612e-05
2.80795e-06
2.93205e-06
7.53851e-05
7.76671e-05
7.89121e-08
7.76837e-05
2.20991e-07
7.7702e-05
3.34288e-07
7.77198e-05
4.26585e-07
7.7736e-05
5.04411e-07
7.77496e-05
5.7087e-07
7.77603e-05
6.2935e-07
7.77681e-05
6.82712e-07
7.7773e-05
7.3288e-07
7.7775e-05
7.81382e-07
7.77742e-05
8.29532e-07
7.77707e-05
8.78396e-07
7.77643e-05
9.28883e-07
7.77553e-05
9.81809e-07
7.77437e-05
1.03792e-06
7.77296e-05
1.09791e-06
7.77133e-05
1.16243e-06
7.7695e-05
1.23208e-06
7.76752e-05
1.3074e-06
7.76542e-05
1.38886e-06
7.76327e-05
1.47681e-06
7.76113e-05
1.5715e-06
7.75911e-05
1.67299e-06
7.75728e-05
1.78113e-06
7.75577e-05
1.89555e-06
7.75466e-05
2.01557e-06
7.75408e-05
2.14026e-06
7.7541e-05
2.26836e-06
7.75479e-05
2.39837e-06
7.75615e-05
2.52863e-06
7.75814e-05
2.65741e-06
7.7606e-05
2.78329e-06
2.90504e-06
7.7633e-05
7.98842e-05
7.3032e-08
7.9898e-05
2.07211e-07
7.9914e-05
3.18241e-07
7.993e-05
4.10628e-07
7.99448e-05
4.89632e-07
7.99575e-05
5.58106e-07
7.99679e-05
6.18953e-07
7.99758e-05
6.74784e-07
7.99812e-05
7.27488e-07
7.99841e-05
7.78535e-07
7.99844e-05
8.29187e-07
7.99823e-05
8.80499e-07
7.99778e-05
9.33373e-07
7.9971e-05
9.88602e-07
7.99621e-05
1.0469e-06
7.99511e-05
1.10891e-06
7.99383e-05
1.17522e-06
7.9924e-05
1.24635e-06
7.99087e-05
1.32275e-06
7.98927e-05
1.40479e-06
7.98768e-05
1.49272e-06
7.98616e-05
1.58668e-06
7.9848e-05
1.68661e-06
7.98368e-05
1.79232e-06
7.9829e-05
1.90336e-06
7.98255e-05
2.01907e-06
7.98272e-05
2.1386e-06
7.98347e-05
2.26085e-06
7.98484e-05
2.38463e-06
7.98684e-05
2.50866e-06
7.98941e-05
2.63175e-06
7.99243e-05
2.75308e-06
2.87207e-06
7.99572e-05
8.21651e-05
6.83438e-08
8.21768e-05
1.95564e-07
8.21911e-05
3.0389e-07
8.2206e-05
3.95803e-07
8.22201e-05
4.75451e-07
8.22328e-05
5.4543e-07
8.22435e-05
6.08248e-07
8.22521e-05
6.66238e-07
8.22584e-05
7.21175e-07
8.22624e-05
7.74477e-07
8.22642e-05
8.27373e-07
8.22639e-05
8.8089e-07
8.22613e-05
9.35894e-07
8.22568e-05
9.93138e-07
8.22504e-05
1.05329e-06
8.22424e-05
1.11694e-06
8.2233e-05
1.18462e-06
8.22226e-05
1.25677e-06
8.22116e-05
1.33376e-06
8.22005e-05
1.41587e-06
8.21899e-05
1.50326e-06
8.21806e-05
1.59598e-06
8.21733e-05
1.69391e-06
8.21689e-05
1.79677e-06
8.21681e-05
1.90413e-06
8.21718e-05
2.01535e-06
8.21808e-05
2.12966e-06
8.21955e-05
2.24615e-06
8.22162e-05
2.36386e-06
8.22431e-05
2.48184e-06
8.22755e-05
2.59928e-06
8.23128e-05
2.71578e-06
2.83103e-06
8.23539e-05
8.45116e-05
6.4506e-08
8.45216e-05
1.85618e-07
8.45344e-05
2.91079e-07
8.4548e-05
3.82176e-07
8.45613e-05
4.62117e-07
8.45736e-05
5.33199e-07
8.45842e-05
5.97593e-07
8.45931e-05
6.5737e-07
8.46001e-05
7.14198e-07
8.46051e-05
7.69432e-07
8.46082e-05
8.24238e-07
8.46095e-05
8.79602e-07
8.46091e-05
9.36353e-07
8.4607e-05
9.95206e-07
8.46035e-05
1.05678e-06
8.45988e-05
1.12163e-06
8.45932e-05
1.1902e-06
8.45871e-05
1.26288e-06
8.45809e-05
1.33995e-06
8.45752e-05
1.42162e-06
8.45705e-05
1.50798e-06
8.45675e-05
1.59898e-06
8.45669e-05
1.69447e-06
8.45695e-05
1.79414e-06
8.45761e-05
1.89754e-06
8.45874e-05
2.00409e-06
8.4604e-05
2.1131e-06
8.46263e-05
2.22383e-06
8.46547e-05
2.33548e-06
8.46891e-05
2.44738e-06
8.47294e-05
2.55897e-06
8.47752e-05
2.67005e-06
2.78046e-06
8.48257e-05
8.69254e-05
6.12821e-08
8.6934e-05
1.76993e-07
8.69456e-05
2.79504e-07
8.69583e-05
3.69446e-07
8.69712e-05
4.49282e-07
8.69833e-05
5.21025e-07
8.69943e-05
5.86572e-07
8.7004e-05
6.47761e-07
8.7012e-05
7.06135e-07
8.70185e-05
7.62969e-07
8.70234e-05
8.19364e-07
8.70267e-05
8.76254e-07
8.70286e-05
9.34425e-07
8.70293e-05
9.94546e-07
8.70289e-05
1.05719e-06
8.70277e-05
1.12284e-06
8.7026e-05
1.19189e-06
8.70242e-05
1.26466e-06
8.70228e-05
1.34136e-06
8.70223e-05
1.42214e-06
8.70233e-05
1.507e-06
8.70264e-05
1.59587e-06
8.70323e-05
1.68853e-06
8.70418e-05
1.78466e-06
8.70555e-05
1.88383e-06
8.70741e-05
1.98551e-06
8.70981e-05
2.08908e-06
8.7128e-05
2.19392e-06
8.71641e-05
2.2994e-06
8.72065e-05
2.40499e-06
8.72551e-05
2.5103e-06
8.731e-05
2.61524e-06
2.71965e-06
8.73708e-05
8.94083e-05
5.85023e-08
8.94159e-05
1.69383e-07
8.94265e-05
2.68936e-07
8.94385e-05
3.57473e-07
8.94509e-05
4.36894e-07
8.94629e-05
5.08944e-07
8.94742e-05
5.75283e-07
8.94845e-05
6.37536e-07
8.94935e-05
6.97115e-07
8.95012e-05
7.55211e-07
8.95077e-05
8.1285e-07
8.95131e-05
8.70909e-07
8.95174e-05
9.30124e-07
8.95208e-05
9.91116e-07
8.95236e-05
1.0544e-06
8.9526e-05
1.12041e-06
8.95284e-05
1.18949e-06
8.95312e-05
1.26188e-06
8.95348e-05
1.33775e-06
8.95398e-05
1.41716e-06
8.95467e-05
1.50009e-06
8.95562e-05
1.5864e-06
8.95688e-05
1.67586e-06
8.95854e-05
1.76814e-06
8.96064e-05
1.86281e-06
8.96325e-05
1.9594e-06
8.96642e-05
2.05735e-06
8.9702e-05
2.15613e-06
8.97462e-05
2.25523e-06
8.9797e-05
2.35421e-06
8.98545e-05
2.45277e-06
8.99189e-05
2.55082e-06
2.64817e-06
8.99904e-05
9.19623e-05
5.60428e-08
9.19692e-05
1.62537e-07
9.1979e-05
2.59147e-07
9.19904e-05
3.46057e-07
9.20025e-05
4.24754e-07
9.20147e-05
4.96746e-07
9.20265e-05
5.63493e-07
9.20376e-05
6.26433e-07
9.20479e-05
6.8685e-07
9.20572e-05
7.45846e-07
9.20657e-05
8.04372e-07
9.20734e-05
8.63241e-07
9.20804e-05
9.23136e-07
9.20869e-05
9.84624e-07
9.20931e-05
1.04817e-06
9.20994e-05
1.11415e-06
9.2106e-05
1.18284e-06
9.21134e-05
1.25444e-06
9.21221e-05
1.32906e-06
9.21326e-05
1.4067e-06
9.21454e-05
1.48731e-06
9.21611e-05
1.5707e-06
9.21803e-05
1.65662e-06
9.22037e-05
1.74475e-06
9.22318e-05
1.83468e-06
9.22653e-05
1.92595e-06
9.23046e-05
2.01808e-06
9.23501e-05
2.1106e-06
9.24023e-05
2.20307e-06
9.24614e-05
2.2951e-06
9.25277e-05
2.38641e-06
9.26016e-05
2.4769e-06
2.56631e-06
9.26835e-05
9.45894e-05
5.38108e-08
9.45957e-05
1.5625e-07
9.46049e-05
2.49931e-07
9.46159e-05
3.35025e-07
9.4628e-05
4.12725e-07
9.46404e-05
4.84334e-07
9.46527e-05
5.51142e-07
9.46647e-05
6.14419e-07
9.46763e-05
6.75327e-07
9.46872e-05
7.34873e-07
9.46977e-05
7.93933e-07
9.47077e-05
8.53253e-07
9.47173e-05
9.13456e-07
9.47269e-05
9.75053e-07
9.47366e-05
1.03846e-06
9.47468e-05
1.10399e-06
9.47577e-05
1.17188e-06
9.47699e-05
1.24227e-06
9.47837e-05
1.31522e-06
9.47998e-05
1.39069e-06
9.48185e-05
1.46858e-06
9.48405e-05
1.5487e-06
9.48663e-05
1.63077e-06
9.48966e-05
1.71447e-06
9.49319e-05
1.7994e-06
9.49727e-05
1.88514e-06
9.50195e-05
1.97125e-06
9.50728e-05
2.05729e-06
9.5133e-05
2.14287e-06
9.52005e-05
2.22763e-06
9.52756e-05
2.31128e-06
9.53589e-05
2.39366e-06
2.47447e-06
9.54507e-05
9.72916e-05
5.17343e-08
9.72975e-05
1.5035e-07
9.73063e-05
2.41102e-07
9.73171e-05
3.24204e-07
9.73292e-05
4.00642e-07
9.7342e-05
4.7155e-07
9.73551e-05
5.38067e-07
9.73682e-05
6.01322e-07
9.73812e-05
6.62357e-07
9.73939e-05
7.2209e-07
9.74066e-05
7.81317e-07
9.74191e-05
8.40716e-07
9.74317e-05
9.00852e-07
9.74446e-05
9.62181e-07
9.7458e-05
1.02506e-06
9.74722e-05
1.08977e-06
9.74876e-05
1.15647e-06
9.75046e-05
1.22527e-06
9.75237e-05
1.29617e-06
9.75452e-05
1.36912e-06
9.75698e-05
1.44397e-06
9.7598e-05
1.52051e-06
9.76303e-05
1.59845e-06
9.76673e-05
1.67747e-06
9.77095e-05
1.7572e-06
9.77575e-05
1.83721e-06
9.78116e-05
1.91712e-06
9.78724e-05
1.9965e-06
9.79403e-05
2.07498e-06
9.80157e-05
2.15221e-06
9.80991e-05
2.22789e-06
9.8191e-05
2.30178e-06
2.37356e-06
9.82919e-05
0.000100071
4.9756e-08
0.000100077
1.44692e-07
0.000100085
2.32491e-07
0.000100096
3.1343e-07
0.000100108
3.88354e-07
0.000100122
4.58259e-07
0.000100136
5.24155e-07
0.00010015
5.87044e-07
0.000100164
6.47858e-07
0.000100179
7.07424e-07
0.000100194
7.66462e-07
0.000100209
8.25581e-07
0.000100225
8.85285e-07
0.000100241
9.45976e-07
0.000100258
1.00796e-06
0.000100276
1.07146e-06
0.000100296
1.1366e-06
0.000100318
1.20344e-06
0.000100342
1.27195e-06
0.000100369
1.34204e-06
0.0001004
1.41354e-06
0.000100434
1.48621e-06
0.000100473
1.55978e-06
0.000100516
1.6339e-06
0.000100565
1.70823e-06
0.00010062
1.78236e-06
0.000100681
1.85591e-06
0.000100749
1.92849e-06
0.000100824
1.99972e-06
0.000100907
2.06925e-06
0.000100999
2.13677e-06
0.000101098
2.20198e-06
2.26454e-06
0.000101207
0.00010293
4.78292e-08
0.000102936
1.39153e-07
0.000102944
2.23945e-07
0.000102955
3.02548e-07
0.000102968
3.75714e-07
0.000102982
4.4432e-07
0.000102996
5.09269e-07
0.000103012
5.71449e-07
0.000103028
6.3169e-07
0.000103045
6.90733e-07
0.000103062
7.49222e-07
0.00010308
8.077e-07
0.000103099
8.66612e-07
0.000103118
9.26304e-07
0.000103139
9.87034e-07
0.000103162
1.04897e-06
0.000103186
1.11221e-06
0.000103213
1.17676e-06
0.000103242
1.24257e-06
0.000103275
1.30951e-06
0.000103311
1.37738e-06
0.000103351
1.44596e-06
0.000103396
1.51495e-06
0.000103446
1.58402e-06
0.000103501
1.65281e-06
0.000103563
1.72095e-06
0.000103631
1.78805e-06
0.000103705
1.85375e-06
0.000103787
1.91766e-06
0.000103877
1.97945e-06
0.000103975
2.03877e-06
0.000104082
2.09529e-06
2.14867e-06
0.000104198
0.000105871
4.59142e-08
0.000105876
1.33628e-07
0.000105885
2.15325e-07
0.000105896
2.91413e-07
0.000105909
3.62574e-07
0.000105924
4.29594e-07
0.00010594
4.93278e-07
0.000105957
5.54416e-07
0.000105975
6.13743e-07
0.000105994
6.71919e-07
0.000106013
7.29513e-07
0.000106034
7.87005e-07
0.000106056
8.4478e-07
0.000106079
9.03131e-07
0.000106104
9.62269e-07
0.00010613
1.02232e-06
0.000106159
1.08334e-06
0.000106191
1.1453e-06
0.000106225
1.20812e-06
0.000106263
1.27164e-06
0.000106305
1.33568e-06
0.000106351
1.39996e-06
0.000106402
1.46421e-06
0.000106457
1.52809e-06
0.000106519
1.59125e-06
0.000106587
1.65333e-06
0.000106661
1.71397e-06
0.000106742
1.77278e-06
0.00010683
1.82942e-06
0.000106926
1.88352e-06
0.00010703
1.93475e-06
0.000107142
1.98275e-06
2.02719e-06
0.000107264
0.000108895
4.39773e-08
0.000108901
1.28024e-07
0.00010891
2.06506e-07
0.000108921
2.79885e-07
0.000108935
3.48795e-07
0.000108951
4.13946e-07
0.000108968
4.76057e-07
0.000108987
5.35827e-07
0.000109006
5.93909e-07
0.000109027
6.50881e-07
0.00010905
7.07244e-07
0.000109073
7.63415e-07
0.000109098
8.19721e-07
0.000109125
8.76407e-07
0.000109154
9.33637e-07
0.000109184
9.91497e-07
0.000109218
1.05e-06
0.000109254
1.10911e-06
0.000109293
1.16869e-06
0.000109336
1.2286e-06
0.000109384
1.28861e-06
0.000109435
1.34846e-06
0.000109491
1.40785e-06
0.000109553
1.46648e-06
0.00010962
1.52398e-06
0.000109694
1.58002e-06
0.000109773
1.63423e-06
0.00010986
1.68626e-06
0.000109954
1.73575e-06
0.000110055
1.78236e-06
0.000110164
1.82574e-06
0.000110281
1.86553e-06
1.90145e-06
0.000110407
0.000112006
4.19886e-08
0.000112012
1.22257e-07
0.000112021
1.97371e-07
0.000112033
2.67834e-07
0.000112048
3.34242e-07
0.000112065
3.9724e-07
0.000112083
4.57474e-07
0.000112104
5.15561e-07
0.000112125
5.72073e-07
0.000112149
6.27517e-07
0.000112174
6.82326e-07
0.0001122
7.36857e-07
0.000112229
7.91385e-07
0.000112259
8.46105e-07
0.000112291
9.01138e-07
0.000112326
9.56536e-07
0.000112364
1.01228e-06
0.000112405
1.0683e-06
0.000112449
1.12446e-06
0.000112497
1.18057e-06
0.000112549
1.23642e-06
0.000112606
1.29174e-06
0.000112668
1.34623e-06
0.000112735
1.39958e-06
0.000112807
1.45146e-06
0.000112886
1.50153e-06
0.00011297
1.54945e-06
0.000113062
1.59487e-06
0.00011316
1.63745e-06
0.000113266
1.67685e-06
0.000113379
1.71276e-06
0.000113499
1.74481e-06
1.77277e-06
0.000113628
0.000115207
3.99215e-08
0.000115213
1.16254e-07
0.000115222
1.87815e-07
0.000115235
2.55139e-07
0.00011525
3.18792e-07
0.000115268
3.79361e-07
0.000115288
4.37424e-07
0.00011531
4.93526e-07
0.000115334
5.48162e-07
0.00011536
6.01771e-07
0.000115387
6.54724e-07
0.000115417
7.07318e-07
0.000115449
7.59778e-07
0.000115482
8.12255e-07
0.000115519
8.64832e-07
0.000115558
9.17525e-07
0.0001156
9.70292e-07
0.000115645
1.02303e-06
0.000115694
1.0756e-06
0.000115747
1.1278e-06
0.000115804
1.1794e-06
0.000115865
1.23014e-06
0.000115932
1.27973e-06
0.000116004
1.32786e-06
0.000116081
1.37421e-06
0.000116164
1.41847e-06
0.000116253
1.46029e-06
0.000116348
1.49936e-06
0.000116451
1.53536e-06
0.000116559
1.56796e-06
0.000116675
1.59687e-06
0.000116798
1.62175e-06
1.64242e-06
0.000116929
0.000118498
3.77507e-08
0.000118504
1.09943e-07
0.000118514
1.77732e-07
0.000118528
2.41675e-07
0.000118544
3.02308e-07
0.000118564
3.60168e-07
0.000118585
4.15768e-07
0.000118609
4.69586e-07
0.000118635
5.22049e-07
0.000118664
5.73529e-07
0.000118694
6.24338e-07
0.000118727
6.74719e-07
0.000118761
7.2485e-07
0.000118799
7.74839e-07
0.000118839
8.24733e-07
0.000118882
8.7452e-07
0.000118928
9.24132e-07
0.000118978
9.73451e-07
0.000119031
1.02232e-06
0.000119088
1.07053e-06
0.00011915
1.11785e-06
0.000119216
1.16402e-06
0.000119287
1.20877e-06
0.000119363
1.25179e-06
0.000119444
1.29278e-06
0.000119531
1.33144e-06
0.000119624
1.36746e-06
0.000119723
1.40053e-06
0.000119828
1.43035e-06
0.000119939
1.45664e-06
0.000120057
1.47912e-06
0.000120181
1.49749e-06
1.51163e-06
0.000120312
0.000121884
3.54546e-08
0.00012189
1.03264e-07
0.000121901
1.67037e-07
0.000121915
2.27347e-07
0.000121933
2.847e-07
0.000121953
3.39583e-07
0.000121977
3.92449e-07
0.000122003
4.43708e-07
0.000122031
4.93724e-07
0.000122062
5.42806e-07
0.000122095
5.91209e-07
0.00012213
6.39126e-07
0.000122169
6.86689e-07
0.000122209
7.33971e-07
0.000122253
7.80984e-07
0.0001223
8.27691e-07
0.00012235
8.74005e-07
0.000122404
9.19792e-07
0.000122461
9.64883e-07
0.000122523
1.00907e-06
0.000122588
1.05213e-06
0.000122659
1.0938e-06
0.000122734
1.13381e-06
0.000122814
1.17189e-06
0.000122899
1.20775e-06
0.000122989
1.2411e-06
0.000123085
1.27165e-06
0.000123186
1.29912e-06
0.000123293
1.32325e-06
0.000123406
1.34378e-06
0.000123525
1.36046e-06
0.000123649
1.37304e-06
1.38143e-06
0.000123779
0.000125366
3.30062e-08
0.000125373
9.61404e-08
0.000125384
1.55613e-07
0.0001254
2.12005e-07
0.000125419
2.65794e-07
0.000125441
3.17417e-07
0.000125466
3.6727e-07
0.000125494
4.15699e-07
0.000125525
4.63006e-07
0.000125558
5.09439e-07
0.000125594
5.552e-07
0.000125633
6.00434e-07
0.000125674
6.4523e-07
0.000125719
6.89626e-07
0.000125766
7.33607e-07
0.000125817
7.77112e-07
0.000125871
8.20037e-07
0.000125928
8.62237e-07
0.000125989
9.03535e-07
0.000126055
9.4373e-07
0.000126124
9.82595e-07
0.000126198
1.01989e-06
0.000126277
1.05534e-06
0.00012636
1.08871e-06
0.000126448
1.11971e-06
0.000126541
1.14808e-06
0.000126639
1.17357e-06
0.000126742
1.19592e-06
0.000126851
1.21489e-06
0.000126964
1.23027e-06
0.000127083
1.24184e-06
0.000127206
1.24939e-06
1.2529e-06
0.000127335
0.000128948
3.0392e-08
0.000128955
8.85323e-08
0.000128968
1.43412e-07
0.000128984
1.95615e-07
0.000129004
2.45582e-07
0.000129028
2.93695e-07
0.000129055
3.40287e-07
0.000129085
3.85643e-07
0.000129118
4.30001e-07
0.000129154
4.73555e-07
0.000129193
5.16454e-07
0.000129234
5.58799e-07
0.000129279
6.00643e-07
0.000129326
6.41991e-07
0.000129377
6.82803e-07
0.000129431
7.23e-07
0.000129489
7.62463e-07
0.00012955
8.01044e-07
0.000129615
8.38565e-07
0.000129684
8.74827e-07
0.000129757
9.09609e-07
0.000129834
9.4268e-07
0.000129916
9.73797e-07
0.000130002
1.00272e-06
0.000130092
1.02919e-06
0.000130187
1.05298e-06
0.000130287
1.07386e-06
0.000130391
1.0916e-06
0.0001305
1.106e-06
0.000130614
1.11687e-06
0.000130731
1.12404e-06
0.000130853
1.12733e-06
1.12676e-06
0.00013098
0.000132632
2.75611e-08
0.00013264
8.03059e-08
0.000132653
1.30221e-07
0.000132671
1.77897e-07
0.000132693
2.23737e-07
0.000132719
2.68063e-07
0.000132748
3.11146e-07
0.00013278
3.53203e-07
0.000132816
3.94408e-07
0.000132854
4.34898e-07
0.000132896
4.7477e-07
0.000132941
5.14083e-07
0.000132989
5.52853e-07
0.000133039
5.91056e-07
0.000133094
6.2863e-07
0.000133151
6.65478e-07
0.000133212
7.01477e-07
0.000133277
7.36474e-07
0.000133345
7.70292e-07
0.000133417
8.02737e-07
0.000133493
8.33599e-07
0.000133573
8.62661e-07
0.000133657
8.89699e-07
0.000133745
9.14487e-07
0.000133838
9.36806e-07
0.000133934
9.56442e-07
0.000134035
9.73192e-07
0.00013414
9.86866e-07
0.000134248
9.97291e-07
0.000134361
1.00431e-06
0.000134477
1.0078e-06
0.000134597
1.00761e-06
1.00382e-06
0.00013472
0.000136421
2.45447e-08
0.00013643
7.15138e-08
0.000136444
1.16147e-07
0.000136463
1.59023e-07
0.000136486
2.00485e-07
0.000136514
2.40785e-07
0.000136545
2.80126e-07
0.000136579
3.18657e-07
0.000136617
3.56491e-07
0.000136658
3.93712e-07
0.000136703
4.30369e-07
0.00013675
4.66482e-07
0.000136801
5.02035e-07
0.000136855
5.3698e-07
0.000136913
5.71238e-07
0.000136973
6.04702e-07
0.000137038
6.3724e-07
0.000137105
6.68699e-07
0.000137177
6.98907e-07
0.000137252
7.27677e-07
0.000137331
7.54812e-07
0.000137413
7.8011e-07
0.000137499
8.03367e-07
0.00013759
8.24381e-07
0.000137683
8.42954e-07
0.000137781
8.589e-07
0.000137882
8.72044e-07
0.000137987
8.82226e-07
0.000138095
8.89304e-07
0.000138206
8.93155e-07
0.00013832
8.93682e-07
0.000138437
8.90772e-07
8.84522e-07
0.000138556
0.000140319
2.11524e-08
0.000140329
6.17411e-08
0.000140344
1.00584e-07
0.000140365
1.38275e-07
0.000140391
1.75076e-07
0.00014042
2.11143e-07
0.000140454
2.46581e-07
0.000140491
2.8146e-07
0.000140532
3.15821e-07
0.000140576
3.49687e-07
0.000140623
3.83061e-07
0.000140674
4.15923e-07
0.000140727
4.48225e-07
0.000140784
4.79901e-07
0.000140845
5.10856e-07
0.000140909
5.40973e-07
0.000140976
5.7012e-07
0.000141046
5.98144e-07
0.00014112
6.24881e-07
0.000141198
6.50155e-07
0.000141279
6.73786e-07
0.000141363
6.95587e-07
0.000141451
7.15377e-07
0.000141543
7.32975e-07
0.000141638
7.4821e-07
0.000141735
7.60923e-07
0.000141837
7.70966e-07
0.000141941
7.78208e-07
0.000142047
7.82538e-07
0.000142157
7.83861e-07
0.000142268
7.82115e-07
0.000142382
7.77217e-07
7.69289e-07
0.000142497
0.000144328
1.76884e-08
0.000144338
5.14869e-08
0.000144355
8.42075e-08
0.000144377
1.16396e-07
0.000144403
1.4823e-07
0.000144435
1.79769e-07
0.00014447
2.11034e-07
0.00014451
2.42016e-07
0.000144553
2.72681e-07
0.0001446
3.02998e-07
0.00014465
3.32928e-07
0.000144703
3.62409e-07
0.00014476
3.91371e-07
0.00014482
4.19722e-07
0.000144884
4.47358e-07
0.000144951
4.74157e-07
0.000145021
4.99984e-07
0.000145094
5.24692e-07
0.000145171
5.48125e-07
0.000145251
5.70119e-07
0.000145334
5.9051e-07
0.000145421
6.09132e-07
0.00014551
6.2582e-07
0.000145603
6.40419e-07
0.000145698
6.52781e-07
0.000145796
6.62771e-07
0.000145897
6.70268e-07
0.000146
6.75166e-07
0.000146105
6.77379e-07
0.000146212
6.76836e-07
0.000146321
6.73499e-07
0.000146431
6.67308e-07
6.58394e-07
0.000146542
0.000148452
1.32285e-08
0.000148465
3.92196e-08
0.000148484
6.52061e-08
0.000148508
9.16531e-08
0.000148538
1.18488e-07
0.000148572
1.45533e-07
0.000148611
1.72678e-07
0.000148653
1.99817e-07
0.000148699
2.26838e-07
0.000148748
2.53652e-07
0.000148801
2.80173e-07
0.000148857
3.06309e-07
0.000148916
3.31965e-07
0.000148979
3.57038e-07
0.000149045
3.81413e-07
0.000149114
4.04968e-07
0.000149187
4.27575e-07
0.000149262
4.49093e-07
0.000149341
4.69381e-07
0.000149423
4.88289e-07
0.000149508
5.0567e-07
0.000149595
5.21378e-07
0.000149686
5.35272e-07
0.000149779
5.47219e-07
0.000149875
5.57095e-07
0.000149973
5.64788e-07
0.000150073
5.70202e-07
0.000150175
5.73255e-07
0.000150278
5.73885e-07
0.000150383
5.72044e-07
0.000150489
5.67716e-07
0.000150595
5.60866e-07
5.51629e-07
0.000150702
0.000152693
9.43705e-09
0.000152705
2.69992e-08
0.000152725
4.56487e-08
0.000152751
6.56476e-08
0.000152782
8.69237e-08
0.000152819
1.09061e-07
0.00015286
1.31776e-07
0.000152905
1.54815e-07
0.000152954
1.77972e-07
0.000153006
2.01126e-07
0.000153062
2.24138e-07
0.000153122
2.46872e-07
0.000153184
2.69206e-07
0.00015325
2.91027e-07
0.000153319
3.1221e-07
0.000153392
3.32635e-07
0.000153467
3.52179e-07
0.000153546
3.70711e-07
0.000153627
3.881e-07
0.000153711
4.04213e-07
0.000153798
4.18921e-07
0.000153887
4.32096e-07
0.000153979
4.43618e-07
0.000154072
4.53375e-07
0.000154168
4.61263e-07
0.000154266
4.67195e-07
0.000154365
4.7109e-07
0.000154465
4.72888e-07
0.000154567
4.72543e-07
0.000154669
4.70024e-07
0.000154771
4.65326e-07
0.000154874
4.58426e-07
4.49452e-07
0.000154976
0.000157058
2.44718e-09
0.000157075
1.02495e-08
0.000157099
2.15554e-08
0.000157129
3.58447e-08
0.000157164
5.22236e-08
0.000157203
6.9818e-08
0.000157246
8.8418e-08
0.000157294
1.07621e-07
0.000157344
1.27084e-07
0.000157399
1.46676e-07
0.000157457
1.66232e-07
0.000157518
1.85594e-07
0.000157583
2.04632e-07
0.00015765
2.23223e-07
0.000157721
2.41233e-07
0.000157796
2.58559e-07
0.000157873
2.75094e-07
0.000157953
2.90717e-07
0.000158035
3.05311e-07
0.000158121
3.18761e-07
0.000158209
3.30957e-07
0.000158299
3.41793e-07
0.000158392
3.5117e-07
0.000158486
3.58997e-07
0.000158582
3.65191e-07
0.00015868
3.69683e-07
0.000158778
3.72414e-07
0.000158878
3.73339e-07
0.000158978
3.72431e-07
0.000159078
3.69673e-07
0.000159178
3.65074e-07
0.000159278
3.58628e-07
3.50454e-07
0.000159377
0.000161543
-2.40371e-09
0.00016156
-6.2831e-09
0.000161586
-4.35586e-09
0.000161619
2.3414e-09
0.000161658
1.36205e-08
0.000161701
2.64667e-08
0.000161749
4.0835e-08
0.0001618
5.60049e-08
0.000161856
7.16968e-08
0.000161915
8.7821e-08
0.000161977
1.04035e-07
0.000162042
1.20152e-07
0.000162111
1.36043e-07
0.000162182
1.51608e-07
0.000162257
1.66668e-07
0.000162334
1.81146e-07
0.000162415
1.94952e-07
0.000162497
2.07978e-07
0.000162583
2.20125e-07
0.00016267
2.31295e-07
0.00016276
2.41396e-07
0.000162851
2.50342e-07
0.000162944
2.5805e-07
0.000163039
2.64449e-07
0.000163134
2.69473e-07
0.000163231
2.73068e-07
0.000163328
2.75193e-07
0.000163426
2.75816e-07
0.000163523
2.74915e-07
0.00016362
2.72483e-07
0.000163717
2.68527e-07
0.000163813
2.63043e-07
2.56134e-07
0.000163907
0.000166167
-1.60807e-08
0.000166192
-3.11189e-08
0.000166222
-3.46631e-08
0.000166257
-3.24618e-08
0.000166297
-2.6562e-08
0.000166342
-1.79148e-08
0.00016639
-7.20862e-09
0.000166442
4.28059e-09
0.000166497
1.59457e-08
0.000166557
2.84784e-08
0.000166619
4.12169e-08
0.000166686
5.39885e-08
0.000166755
6.66229e-08
0.000166828
7.89945e-08
0.000166903
9.08966e-08
0.000166982
1.02409e-07
0.000167064
1.13388e-07
0.000167148
1.23733e-07
0.000167235
1.33369e-07
0.000167324
1.42222e-07
0.000167415
1.50219e-07
0.000167508
1.57294e-07
0.000167603
1.63385e-07
0.000167699
1.68437e-07
0.000167796
1.72405e-07
0.000167894
1.75249e-07
0.000167992
1.76941e-07
0.00016809
1.77461e-07
0.000168188
1.768e-07
0.000168286
1.74959e-07
0.000168382
1.71955e-07
0.000168478
1.67797e-07
1.6258e-07
0.000168571
0.000170913
-2.86368e-08
0.000170946
-6.42939e-08
0.000170987
-7.54907e-08
0.000171034
-7.95093e-08
0.000171086
-7.79937e-08
0.00017114
-7.25269e-08
0.000171198
-6.50901e-08
0.000171259
-5.66116e-08
0.000171322
-4.74517e-08
0.000171389
-3.77929e-08
0.000171458
-2.7969e-08
0.00017153
-1.81117e-08
0.000171605