/*--------------------------------*- C++ -*----------------------------------*\
  =========                 |
  \\      /  F ield         | OpenFOAM: The Open Source CFD Toolbox
   \\    /   O peration     | Website:  https://openfoam.org
    \\  /    A nd           | Version:  10
     \\/     M anipulation  |
\*---------------------------------------------------------------------------*/
FoamFile
{
    format      ascii;
    class       volVectorField;
    location    "0.1";
    object      U;
}
// * * * * * * * * * * * * * * * * * * * * * * * * * * * * * * * * * * * * * //

dimensions      [0 1 -1 0 0 0 0];

internalField   nonuniform List<vector> 
6820
(
(7.28172 0.0248765 0)
(7.17775 0.0401907 0)
(7.05425 0.0452498 0)
(6.92439 0.0480472 0)
(6.79453 0.0493008 0)
(6.66506 0.0496729 0)
(6.53638 0.0496099 0)
(6.40892 0.0493074 0)
(6.2827 0.0488859 0)
(6.15761 0.048428 0)
(6.03349 0.047988 0)
(5.91011 0.0476044 0)
(5.7872 0.0473086 0)
(5.66445 0.0471284 0)
(5.54148 0.0470912 0)
(5.41786 0.047226 0)
(5.29309 0.047565 0)
(5.1666 0.0481446 0)
(5.03773 0.0490056 0)
(4.90571 0.0501925 0)
(4.76965 0.051752 0)
(4.62858 0.0537291 0)
(4.48138 0.0561613 0)
(4.32687 0.05907 0)
(4.1638 0.0624493 0)
(3.99093 0.0662521 0)
(3.8071 0.0703696 0)
(3.61135 0.0746479 0)
(3.40302 0.0787442 0)
(3.1822 0.0827238 0)
(2.94768 0.0849823 0)
(2.70707 0.0893084 0)
(2.43606 0.0893595 0)
(7.35925 0.0259754 0)
(7.42107 0.0360304 0)
(7.47618 0.0380355 0)
(7.52643 0.0403108 0)
(7.57238 0.0420352 0)
(7.61289 0.0435412 0)
(7.6479 0.0451133 0)
(7.67779 0.0467669 0)
(7.70283 0.0485106 0)
(7.72327 0.0503655 0)
(7.73932 0.0523496 0)
(7.7512 0.0544846 0)
(7.75905 0.0567989 0)
(7.76298 0.0593283 0)
(7.76307 0.0621169 0)
(7.75931 0.0652195 0)
(7.75167 0.0687033 0)
(7.74004 0.0726498 0)
(7.72425 0.0771568 0)
(7.70402 0.0823394 0)
(7.67901 0.0883297 0)
(7.64874 0.0952755 0)
(7.6126 0.103335 0)
(7.56984 0.112669 0)
(7.51953 0.123424 0)
(7.46056 0.135716 0)
(7.39168 0.149601 0)
(7.31142 0.16505 0)
(7.21836 0.181885 0)
(7.1106 0.200006 0)
(6.98781 0.218381 0)
(6.84511 0.23915 0)
(6.69437 0.255201 0)
(7.3354 0.00702975 0)
(7.34543 0.0104499 0)
(7.35408 0.0132565 0)
(7.36137 0.0169269 0)
(7.36919 0.0200856 0)
(7.37743 0.0229073 0)
(7.38604 0.0256263 0)
(7.39518 0.02826 0)
(7.40487 0.0308391 0)
(7.41505 0.0334149 0)
(7.42568 0.036034 0)
(7.43672 0.038743 0)
(7.44812 0.0415926 0)
(7.45983 0.0446389 0)
(7.47181 0.0479453 0)
(7.48403 0.0515849 0)
(7.49647 0.0556437 0)
(7.50911 0.0602233 0)
(7.52197 0.0654445 0)
(7.53507 0.0714498 0)
(7.54846 0.0784055 0)
(7.5622 0.086503 0)
(7.57638 0.0959561 0)
(7.59109 0.106996 0)
(7.6064 0.119862 0)
(7.62237 0.134777 0)
(7.63898 0.151939 0)
(7.65607 0.171455 0)
(7.67331 0.193373 0)
(7.6902 0.217517 0)
(7.70588 0.243744 0)
(7.71981 0.271474 0)
(7.73133 0.300312 0)
(7.33492 0.00942604 0)
(7.3423 0.0205152 0)
(7.34751 0.0262845 0)
(7.35035 0.0302966 0)
(7.35256 0.0330646 0)
(7.3542 0.035116 0)
(7.3552 0.0368734 0)
(7.35575 0.0384894 0)
(7.35594 0.0400542 0)
(7.3558 0.041646 0)
(7.35538 0.0433227 0)
(7.3547 0.045131 0)
(7.3538 0.0471152 0)
(7.35268 0.0493212 0)
(7.35136 0.0517993 0)
(7.34988 0.0546068 0)
(7.34826 0.0578103 0)
(7.34653 0.0614875 0)
(7.34476 0.0657293 0)
(7.34303 0.0706414 0)
(7.34146 0.0763446 0)
(7.34021 0.0829757 0)
(7.33949 0.0906854 0)
(7.33961 0.0996355 0)
(7.34094 0.109993 0)
(7.34395 0.12192 0)
(7.34921 0.135563 0)
(7.3574 0.151035 0)
(7.3692 0.168389 0)
(7.38549 0.187627 0)
(7.4068 0.208502 0)
(7.43455 0.230948 0)
(7.46784 0.25317 0)
(7.33398 0.00655575 0)
(7.33856 0.0132163 0)
(7.34284 0.0163938 0)
(7.3459 0.0193428 0)
(7.34853 0.0220678 0)
(7.35064 0.0245519 0)
(7.35212 0.0269841 0)
(7.35306 0.0294133 0)
(7.35354 0.0318579 0)
(7.35354 0.0343511 0)
(7.35309 0.0369283 0)
(7.35219 0.0396274 0)
(7.35083 0.042491 0)
(7.34899 0.045567 0)
(7.34668 0.0489084 0)
(7.34387 0.0525757 0)
(7.34057 0.0566376 0)
(7.33675 0.0611725 0)
(7.33243 0.0662694 0)
(7.32761 0.0720282 0)
(7.32234 0.0785592 0)
(7.31667 0.0859809 0)
(7.31069 0.0944158 0)
(7.30453 0.103985 0)
(7.29839 0.114797 0)
(7.2925 0.12694 0)
(7.28717 0.140462 0)
(7.28281 0.155361 0)
(7.27987 0.171547 0)
(7.27896 0.188871 0)
(7.28058 0.206934 0)
(7.28579 0.225445 0)
(7.29452 0.242904 0)
(7.33373 0.00555736 0)
(7.33757 0.0137255 0)
(7.34156 0.0193858 0)
(7.34446 0.0240743 0)
(7.34677 0.0278686 0)
(7.3486 0.0309377 0)
(7.3499 0.0336081 0)
(7.35074 0.0360587 0)
(7.35119 0.0383932 0)
(7.35126 0.0407088 0)
(7.35094 0.0430786 0)
(7.35024 0.0455603 0)
(7.34917 0.0482103 0)
(7.3477 0.0510854 0)
(7.34583 0.0542447 0)
(7.34355 0.0577515 0)
(7.34084 0.0616751 0)
(7.33771 0.0660923 0)
(7.33415 0.0710873 0)
(7.33018 0.0767521 0)
(7.32583 0.0831852 0)
(7.32114 0.0904897 0)
(7.31618 0.0987691 0)
(7.31105 0.108121 0)
(7.30586 0.118631 0)
(7.30079 0.130357 0)
(7.296 0.143321 0)
(7.29174 0.157492 0)
(7.28821 0.172756 0)
(7.28571 0.188933 0)
(7.28441 0.205632 0)
(7.28468 0.222483 0)
(7.28631 0.238388 0)
(7.33345 0.00469471 0)
(7.33605 0.0118102 0)
(7.33911 0.0164145 0)
(7.34155 0.0199958 0)
(7.34362 0.0230214 0)
(7.34537 0.0256784 0)
(7.34671 0.0281959 0)
(7.34765 0.0306861 0)
(7.34822 0.033203 0)
(7.34844 0.0357839 0)
(7.3483 0.0384787 0)
(7.3478 0.0413415 0)
(7.34695 0.044418 0)
(7.34573 0.0477555 0)
(7.34415 0.0514055 0)
(7.3422 0.0554252 0)
(7.33989 0.059878 0)
(7.33722 0.0648342 0)
(7.33421 0.0703709 0)
(7.33088 0.0765719 0)
(7.32727 0.0835252 0)
(7.32345 0.0913208 0)
(7.31949 0.100046 0)
(7.31549 0.109779 0)
(7.31158 0.120582 0)
(7.30792 0.132492 0)
(7.30466 0.145505 0)
(7.302 0.15957 0)
(7.30011 0.174563 0)
(7.29916 0.190294 0)
(7.29923 0.206423 0)
(7.30041 0.222595 0)
(7.30239 0.238093 0)
(7.3333 0.00406426 0)
(7.33532 0.0109054 0)
(7.33801 0.0160887 0)
(7.34034 0.0204977 0)
(7.34232 0.0243738 0)
(7.34398 0.027772 0)
(7.34524 0.030859 0)
(7.34611 0.0337666 0)
(7.34664 0.0365783 0)
(7.34683 0.039392 0)
(7.34669 0.0422787 0)
(7.34623 0.0452801 0)
(7.34544 0.0484529 0)
(7.34433 0.0518566 0)
(7.3429 0.0555515 0)
(7.34115 0.0596008 0)
(7.33908 0.0640712 0)
(7.33672 0.0690337 0)
(7.33407 0.0745632 0)
(7.33118 0.0807369 0)
(7.32809 0.0876336 0)
(7.32485 0.0953306 0)
(7.32156 0.1039 0)
(7.31831 0.113404 0)
(7.31522 0.123885 0)
(7.31243 0.135364 0)
(7.31009 0.147825 0)
(7.30835 0.161208 0)
(7.30735 0.175397 0)
(7.30721 0.190223 0)
(7.30798 0.205423 0)
(7.30962 0.220715 0)
(7.31188 0.235666 0)
(7.3332 0.00361469 0)
(7.3347 0.00999663 0)
(7.33685 0.0149592 0)
(7.33882 0.0190434 0)
(7.34052 0.0225581 0)
(7.342 0.0256501 0)
(7.34319 0.0285107 0)
(7.34406 0.0312811 0)
(7.34464 0.0340493 0)
(7.34492 0.0368635 0)
(7.3449 0.0397779 0)
(7.34458 0.0428685 0)
(7.34398 0.0461883 0)
(7.34309 0.0497878 0)
(7.34192 0.0537189 0)
(7.34046 0.0580361 0)
(7.33873 0.0627971 0)
(7.33676 0.0680633 0)
(7.33455 0.0738989 0)
(7.33216 0.0803705 0)
(7.32963 0.0875445 0)
(7.32702 0.0954844 0)
(7.32441 0.104247 0)
(7.32189 0.113878 0)
(7.31957 0.124404 0)
(7.31758 0.13583 0)
(7.31603 0.148128 0)
(7.31504 0.161238 0)
(7.31472 0.175052 0)
(7.31513 0.189426 0)
(7.31629 0.204159 0)
(7.31811 0.219049 0)
(7.32037 0.233841 0)
(7.33314 0.00327082 0)
(7.33429 0.00927083 0)
(7.3361 0.014229 0)
(7.33788 0.0184964 0)
(7.33949 0.0223252 0)
(7.34091 0.0258091 0)
(7.34207 0.0290665 0)
(7.34294 0.0322027 0)
(7.34354 0.0352905 0)
(7.34387 0.0384098 0)
(7.34393 0.0416276 0)
(7.34372 0.0449863 0)
(7.34326 0.0485368 0)
(7.34253 0.0523331 0)
(7.34155 0.0564306 0)
(7.34034 0.0608866 0)
(7.3389 0.0657603 0)
(7.33726 0.0711124 0)
(7.33546 0.0770046 0)
(7.33352 0.0834982 0)
(7.33149 0.090652 0)
(7.32946 0.0985206 0)
(7.32747 0.10715 0)
(7.32563 0.116575 0)
(7.32403 0.126814 0)
(7.32276 0.137863 0)
(7.32194 0.149694 0)
(7.32165 0.16225 0)
(7.32197 0.175444 0)
(7.32294 0.189161 0)
(7.32453 0.203261 0)
(7.32666 0.217617 0)
(7.32915 0.232095 0)
(7.3331 0.00300837 0)
(7.334 0.00866439 0)
(7.33549 0.0135051 0)
(7.33703 0.0177048 0)
(7.33845 0.0214584 0)
(7.33973 0.0248658 0)
(7.3408 0.0280493 0)
(7.34164 0.0311251 0)
(7.34226 0.0341795 0)
(7.34264 0.0372757 0)
(7.34278 0.0404743 0)
(7.3427 0.043839 0)
(7.3424 0.0474265 0)
(7.34188 0.0512899 0)
(7.34115 0.0554813 0)
(7.34023 0.0600524 0)
(7.33914 0.0650556 0)
(7.33789 0.0705437 0)
(7.33652 0.0765693 0)
(7.33507 0.0831838 0)
(7.3336 0.0904354 0)
(7.33215 0.0983671 0)
(7.33081 0.107013 0)
(7.32965 0.116398 0)
(7.32876 0.126528 0)
(7.32821 0.137396 0)
(7.32811 0.14897 0)
(7.32851 0.161201 0)
(7.32948 0.174016 0)
(7.33102 0.18733 0)
(7.33313 0.201049 0)
(7.33572 0.2151 0)
(7.33865 0.229421 0)
(7.33308 0.00280122 0)
(7.33378 0.00815336 0)
(7.33504 0.0128816 0)
(7.3364 0.0170797 0)
(7.33771 0.0209099 0)
(7.33892 0.0244646 0)
(7.33998 0.0278397 0)
(7.34084 0.0311279 0)
(7.34151 0.0344007 0)
(7.34197 0.037722 0)
(7.34223 0.0411521 0)
(7.3423 0.0447433 0)
(7.34216 0.0485441 0)
(7.34185 0.0526031 0)
(7.34136 0.0569688 0)
(7.34071 0.0616904 0)
(7.33993 0.0668174 0)
(7.33904 0.072399 0)
(7.33807 0.0784833 0)
(7.33707 0.0851161 0)
(7.33609 0.0923394 0)
(7.33519 0.100189 0)
(7.33443 0.108692 0)
(7.33389 0.117865 0)
(7.33364 0.127712 0)
(7.33375 0.138223 0)
(7.33429 0.14937 0)
(7.33534 0.161113 0)
(7.33691 0.173397 0)
(7.33903 0.186162 0)
(7.34168 0.199352 0)
(7.34482 0.212932 0)
(7.34833 0.226882 0)
(7.33306 0.00263377 0)
(7.33363 0.00772015 0)
(7.33469 0.0123217 0)
(7.33589 0.0164721 0)
(7.33708 0.0202879 0)
(7.3382 0.0238471 0)
(7.3392 0.0272325 0)
(7.34005 0.0305308 0)
(7.34074 0.0338152 0)
(7.34127 0.0371491 0)
(7.34162 0.040591 0)
(7.34181 0.0441963 0)
(7.34185 0.0480168 0)
(7.34174 0.0521019 0)
(7.34149 0.0565001 0)
(7.34113 0.061258 0)
(7.34068 0.0664209 0)
(7.34016 0.0720326 0)
(7.33962 0.0781347 0)
(7.33909 0.0847654 0)
(7.33862 0.0919584 0)
(7.33827 0.099741 0)
(7.3381 0.108133 0)
(7.33817 0.117144 0)
(7.33856 0.126773 0)
(7.33931 0.137007 0)
(7.34051 0.147821 0)
(7.34218 0.159181 0)
(7.34437 0.171046 0)
(7.3471 0.183374 0)
(7.35034 0.196129 0)
(7.35409 0.209304 0)
(7.35826 0.222893 0)
(7.33305 0.00249484 0)
(7.33352 0.00734682 0)
(7.33442 0.0118191 0)
(7.3355 0.0159177 0)
(7.33659 0.0197324 0)
(7.33766 0.0233352 0)
(7.33865 0.0267992 0)
(7.33952 0.0302002 0)
(7.34027 0.0336042 0)
(7.34088 0.0370694 0)
(7.34136 0.0406504 0)
(7.34171 0.0443979 0)
(7.34193 0.0483584 0)
(7.34204 0.0525763 0)
(7.34204 0.0570943 0)
(7.34197 0.0619542 0)
(7.34184 0.0671962 0)
(7.34169 0.0728587 0)
(7.34154 0.0789776 0)
(7.34145 0.0855853 0)
(7.34145 0.0927093 0)
(7.34161 0.100371 0)
(7.34198 0.108585 0)
(7.34261 0.117357 0)
(7.34357 0.126684 0)
(7.34492 0.136553 0)
(7.3467 0.146943 0)
(7.34897 0.157827 0)
(7.35174 0.169175 0)
(7.35505 0.180957 0)
(7.35888 0.193156 0)
(7.36326 0.205773 0)
(7.36811 0.21881 0)
(7.33304 0.00237653 0)
(7.33344 0.00702024 0)
(7.33422 0.0113628 0)
(7.33519 0.015396 0)
(7.3362 0.019185 0)
(7.33722 0.0227897 0)
(7.33818 0.026272 0)
(7.33907 0.0296982 0)
(7.33986 0.0331295 0)
(7.34055 0.0366218 0)
(7.34114 0.0402272 0)
(7.34162 0.0439949 0)
(7.34202 0.0479707 0)
(7.34233 0.0521979 0)
(7.34258 0.056718 0)
(7.34279 0.0615703 0)
(7.34298 0.0667919 0)
(7.34318 0.0724169 0)
(7.34344 0.0784764 0)
(7.34378 0.0849971 0)
(7.34425 0.0920009 0)
(7.34491 0.0995037 0)
(7.3458 0.107515 0)
(7.34698 0.116036 0)
(7.34851 0.125061 0)
(7.35043 0.134576 0)
(7.35279 0.144564 0)
(7.35563 0.154999 0)
(7.35898 0.165858 0)
(7.36287 0.17712 0)
(7.3673 0.188771 0)
(7.3723 0.200818 0)
(7.37785 0.213257 0)
(7.33303 0.00227314 0)
(7.33338 0.00672917 0)
(7.33407 0.0109431 0)
(7.33495 0.0149025 0)
(7.3359 0.0186564 0)
(7.33688 0.0222575 0)
(7.33785 0.0257609 0)
(7.33877 0.0292263 0)
(7.33962 0.03271 0)
(7.34041 0.0362638 0)
(7.34112 0.0399361 0)
(7.34176 0.0437724 0)
(7.34234 0.0478146 0)
(7.34287 0.052102 0)
(7.34338 0.0566713 0)
(7.34387 0.0615569 0)
(7.34438 0.0667905 0)
(7.34493 0.072401 0)
(7.34556 0.0784139 0)
(7.34632 0.0848503 0)
(7.34723 0.0917269 0)
(7.34835 0.0990546 0)
(7.34973 0.106838 0)
(7.35142 0.115077 0)
(7.35346 0.123763 0)
(7.3559 0.132883 0)
(7.35879 0.142419 0)
(7.36216 0.15235 0)
(7.36604 0.162658 0)
(7.37047 0.173324 0)
(7.37546 0.184337 0)
(7.38106 0.1957 0)
(7.38723 0.207404 0)
(7.33303 0.00218046 0)
(7.33333 0.0064645 0)
(7.33396 0.0105512 0)
(7.33477 0.0144288 0)
(7.33568 0.0181345 0)
(7.33663 0.021713 0)
(7.3376 0.0252124 0)
(7.33855 0.0286845 0)
(7.33947 0.0321801 0)
(7.34034 0.0357469 0)
(7.34117 0.0394297 0)
(7.34196 0.043271 0)
(7.34272 0.0473099 0)
(7.34346 0.0515831 0)
(7.3442 0.0561245 0)
(7.34497 0.0609653 0)
(7.34578 0.066134 0)
(7.34667 0.0716556 0)
(7.34766 0.0775513 0)
(7.34881 0.0838382 0)
(7.35015 0.0905286 0)
(7.35171 0.0976293 0)
(7.35355 0.105142 0)
(7.35572 0.113062 0)
(7.35825 0.12138 0)
(7.36118 0.130083 0)
(7.36457 0.139152 0)
(7.36844 0.148568 0)
(7.37283 0.158311 0)
(7.37777 0.168365 0)
(7.38328 0.178716 0)
(7.38942 0.189359 0)
(7.39617 0.200279 0)
(7.33303 0.00209528 0)
(7.3333 0.00621866 0)
(7.33387 0.0101788 0)
(7.33464 0.0139675 0)
(7.33551 0.017614 0)
(7.33646 0.0211573 0)
(7.33744 0.0246401 0)
(7.33843 0.0281089 0)
(7.33942 0.03161 0)
(7.34039 0.0351874 0)
(7.34134 0.0388827 0)
(7.34229 0.0427345 0)
(7.34323 0.0467788 0)
(7.34419 0.0510485 0)
(7.34518 0.0555735 0)
(7.34621 0.0603808 0)
(7.34732 0.0654943 0)
(7.34853 0.0709342 0)
(7.34988 0.0767172 0)
(7.3514 0.0828554 0)
(7.35313 0.0893566 0)
(7.35511 0.0962238 0)
(7.35738 0.103455 0)
(7.35998 0.111043 0)
(7.36295 0.118977 0)
(7.36634 0.127241 0)
(7.37017 0.135818 0)
(7.37449 0.144687 0)
(7.37933 0.153829 0)
(7.38472 0.163225 0)
(7.39069 0.172856 0)
(7.39729 0.182713 0)
(7.40452 0.192773 0)
(7.33302 0.00201505 0)
(7.33328 0.00598531 0)
(7.33382 0.00981881 0)
(7.33455 0.0135115 0)
(7.3354 0.0170878 0)
(7.33635 0.0205814 0)
(7.33735 0.0240303 0)
(7.33839 0.0274756 0)
(7.33944 0.0309588 0)
(7.34051 0.0345194 0)
(7.34159 0.0381951 0)
(7.34269 0.0420212 0)
(7.34381 0.04603 0)
(7.34497 0.0502511 0)
(7.34619 0.0547111 0)
(7.34748 0.0594334 0)
(7.34887 0.0644384 0)
(7.35039 0.0697426 0)
(7.35207 0.0753589 0)
(7.35394 0.0812959 0)
(7.35603 0.0875579 0)
(7.35839 0.0941447 0)
(7.36106 0.101051 0)
(7.36406 0.108269 0)
(7.36744 0.115784 0)
(7.37123 0.123579 0)
(7.37547 0.131637 0)
(7.3802 0.139935 0)
(7.38543 0.148451 0)
(7.39122 0.157164 0)
(7.39759 0.166052 0)
(7.40458 0.175094 0)
(7.41219 0.184264 0)
(7.33302 0.00193773 0)
(7.33327 0.00575909 0)
(7.33378 0.00946443 0)
(7.33449 0.0130541 0)
(7.33533 0.0165494 0)
(7.33629 0.0199802 0)
(7.33732 0.0233805 0)
(7.33841 0.026787 0)
(7.33954 0.030237 0)
(7.34071 0.0337666 0)
(7.34192 0.0374099 0)
(7.34317 0.0411986 0)
(7.34447 0.045162 0)
(7.34583 0.049326 0)
(7.34727 0.0537136 0)
(7.34881 0.0583447 0)
(7.35047 0.0632355 0)
(7.35229 0.0683987 0)
(7.35427 0.0738433 0)
(7.35647 0.079574 0)
(7.35891 0.0855915 0)
(7.36162 0.0918921 0)
(7.36464 0.0984682 0)
(7.368 0.105308 0)
(7.37174 0.112396 0)
(7.3759 0.119714 0)
(7.38049 0.127242 0)
(7.38556 0.134955 0)
(7.39114 0.14283 0)
(7.39725 0.150842 0)
(7.40392 0.158964 0)
(7.41121 0.16717 0)
(7.4191 0.175428 0)
(7.33302 0.00186163 0)
(7.33326 0.00553541 0)
(7.33376 0.00910969 0)
(7.33445 0.0125889 0)
(7.3353 0.0159924 0)
(7.33627 0.0193469 0)
(7.33734 0.022683 0)
(7.33849 0.0260332 0)
(7.3397 0.0294307 0)
(7.34097 0.0329078 0)
(7.34231 0.0364947 0)
(7.3437 0.0402199 0)
(7.34517 0.0441087 0)
(7.34673 0.0481839 0)
(7.34838 0.0524649 0)
(7.35016 0.0569682 0)
(7.35207 0.0617066 0)
(7.35416 0.0666894 0)
(7.35643 0.0719224 0)
(7.35893 0.077407 0)
(7.36168 0.0831412 0)
(7.3647 0.0891186 0)
(7.36804 0.0953291 0)
(7.37173 0.101759 0)
(7.37579 0.108391 0)
(7.38025 0.115206 0)
(7.38515 0.12218 0)
(7.39051 0.129288 0)
(7.39636 0.136504 0)
(7.40273 0.143801 0)
(7.40964 0.151147 0)
(7.41714 0.158511 0)
(7.42521 0.165858 0)
(7.33302 0.0017853 0)
(7.33325 0.00531028 0)
(7.33375 0.00874915 0)
(7.33444 0.0121098 0)
(7.3353 0.0154107 0)
(7.3363 0.0186761 0)
(7.33741 0.0219334 0)
(7.33862 0.0252117 0)
(7.33991 0.0285408 0)
(7.34129 0.0319493 0)
(7.34274 0.0354642 0)
(7.34429 0.0391105 0)
(7.34592 0.0429104 0)
(7.34766 0.0468832 0)
(7.34952 0.0510453 0)
(7.35152 0.0554095 0)
(7.35367 0.0599854 0)
(7.356 0.0647792 0)
(7.35854 0.069793 0)
(7.36131 0.0750256 0)
(7.36434 0.0804717 0)
(7.36765 0.0861225 0)
(7.37127 0.0919654 0)
(7.37523 0.0979846 0)
(7.37957 0.104161 0)
(7.38429 0.110473 0)
(7.38944 0.116895 0)
(7.39503 0.123402 0)
(7.40108 0.129964 0)
(7.40764 0.136552 0)
(7.4147 0.143132 0)
(7.42232 0.149667 0)
(7.43047 0.156123 0)
(7.33302 0.00170747 0)
(7.33325 0.00508013 0)
(7.33375 0.00837774 0)
(7.33445 0.0116112 0)
(7.33533 0.014798 0)
(7.33636 0.0179606 0)
(7.33751 0.0211234 0)
(7.33879 0.0243125 0)
(7.34017 0.027554 0)
(7.34165 0.0308729 0)
(7.34323 0.0342931 0)
(7.34491 0.037836 0)
(7.3467 0.0415207 0)
(7.34862 0.0453632 0)
(7.35067 0.0493767 0)
(7.35287 0.053571 0)
(7.35525 0.0579528 0)
(7.35781 0.0625252 0)
(7.36059 0.0672878 0)
(7.3636 0.0722367 0)
(7.36687 0.0773643 0)
(7.37043 0.0826597 0)
(7.3743 0.0881085 0)
(7.3785 0.0936931 0)
(7.38305 0.0993929 0)
(7.38799 0.105185 0)
(7.39333 0.111043 0)
(7.39909 0.11694 0)
(7.40529 0.122845 0)
(7.41195 0.128726 0)
(7.4191 0.134548 0)
(7.42675 0.140274 0)
(7.43488 0.145867 0)
(7.33302 0.00162704 0)
(7.33326 0.00484183 0)
(7.33376 0.00799102 0)
(7.33448 0.0110879 0)
(7.33538 0.0141498 0)
(7.33644 0.0171973 0)
(7.33765 0.0202528 0)
(7.33899 0.0233393 0)
(7.34045 0.02648 0)
(7.34203 0.0296967 0)
(7.34373 0.0330101 0)
(7.34555 0.0364385 0)
(7.34749 0.0399977 0)
(7.34957 0.0437007 0)
(7.3518 0.0475577 0)
(7.35419 0.0515756 0)
(7.35676 0.055758 0)
(7.35953 0.0601054 0)
(7.36252 0.0646147 0)
(7.36575 0.0692796 0)
(7.36924 0.0740903 0)
(7.37301 0.0790339 0)
(7.37708 0.0840941 0)
(7.38147 0.0892518 0)
(7.38621 0.0944852 0)
(7.3913 0.0997702 0)
(7.39678 0.10508 0)
(7.40265 0.110386 0)
(7.40893 0.115656 0)
(7.41564 0.120859 0)
(7.42278 0.125958 0)
(7.43039 0.130914 0)
(7.43843 0.135694 0)
(7.33302 0.00154299 0)
(7.33326 0.00459237 0)
(7.33377 0.00758433 0)
(7.33451 0.0105339 0)
(7.33544 0.0134579 0)
(7.33655 0.0163751 0)
(7.33782 0.0193056 0)
(7.33923 0.0222697 0)
(7.34078 0.0252872 0)
(7.34246 0.0283772 0)
(7.34427 0.0315572 0)
(7.34622 0.0348426 0)
(7.34831 0.0382465 0)
(7.35054 0.041779 0)
(7.35294 0.0454477 0)
(7.3555 0.049257 0)
(7.35826 0.0532081 0)
(7.36121 0.0572992 0)
(7.36439 0.0615252 0)
(7.36781 0.0658779 0)
(7.37148 0.0703457 0)
(7.37542 0.0749142 0)
(7.37966 0.0795661 0)
(7.3842 0.0842813 0)
(7.38907 0.0890372 0)
(7.39427 0.093809 0)
(7.39983 0.0985694 0)
(7.40576 0.103289 0)
(7.41206 0.107937 0)
(7.41875 0.11248 0)
(7.42584 0.116884 0)
(7.43333 0.121108 0)
(7.4412 0.125125 0)
(7.33302 0.00145437 0)
(7.33327 0.00432929 0)
(7.3338 0.00715455 0)
(7.33456 0.00994698 0)
(7.33552 0.0127232 0)
(7.33667 0.015501 0)
(7.338 0.0182984 0)
(7.33948 0.0211334 0)
(7.34111 0.0240231 0)
(7.34289 0.0269835 0)
(7.34481 0.0300289 0)
(7.34687 0.0331718 0)
(7.34909 0.0364223 0)
(7.35146 0.0397877 0)
(7.354 0.0432726 0)
(7.35672 0.046879 0)
(7.35964 0.0506057 0)
(7.36275 0.0544486 0)
(7.36609 0.0584005 0)
(7.36966 0.0624516 0)
(7.37348 0.0665886 0)
(7.37757 0.070796 0)
(7.38193 0.0750557 0)
(7.38659 0.0793468 0)
(7.39154 0.0836464 0)
(7.39681 0.0879291 0)
(7.40241 0.092168 0)
(7.40834 0.096334 0)
(7.41461 0.100397 0)
(7.42122 0.104323 0)
(7.42818 0.108082 0)
(7.4355 0.111633 0)
(7.44315 0.114952 0)
(7.33302 0.00136023 0)
(7.33328 0.00404936 0)
(7.33383 0.0066955 0)
(7.33462 0.00931623 0)
(7.33562 0.0119272 0)
(7.33683 0.0145443 0)
(7.33821 0.0171836 0)
(7.33977 0.0198604 0)
(7.34149 0.0225894 0)
(7.34336 0.0253842 0)
(7.34539 0.0282567 0)
(7.34757 0.0312171 0)
(7.34992 0.0342731 0)
(7.35242 0.0374302 0)
(7.3551 0.0406908 0)
(7.35796 0.0440551 0)
(7.36102 0.0475202 0)
(7.36428 0.0510802 0)
(7.36775 0.0547267 0)
(7.37145 0.0584484 0)
(7.37539 0.0622315 0)
(7.37958 0.0660597 0)
(7.38404 0.069914 0)
(7.38876 0.0737734 0)
(7.39376 0.0776148 0)
(7.39906 0.0814131 0)
(7.40464 0.0851417 0)
(7.41053 0.0887723 0)
(7.41671 0.0922754 0)
(7.4232 0.0956202 0)
(7.42999 0.0987755 0)
(7.43708 0.101706 0)
(7.44444 0.104389 0)
(7.33303 0.00125981 0)
(7.33329 0.00375143 0)
(7.33386 0.00620861 0)
(7.33468 0.00865076 0)
(7.33572 0.0110936 0)
(7.33698 0.0135521 0)
(7.33842 0.01604 0)
(7.34004 0.0185701 0)
(7.34184 0.0211539 0)
(7.3438 0.0238018 0)
(7.34592 0.0265225 0)
(7.3482 0.029323 0)
(7.35065 0.0322083 0)
(7.35327 0.0351809 0)
(7.35607 0.0382413 0)
(7.35905 0.0413871 0)
(7.36222 0.0446135 0)
(7.36559 0.0479133 0)
(7.36918 0.0512767 0)
(7.37298 0.0546916 0)
(7.37701 0.0581435 0)
(7.38128 0.0616156 0)
(7.38579 0.0650889 0)
(7.39055 0.0685427 0)
(7.39557 0.0719544 0)
(7.40084 0.0752997 0)
(7.40638 0.0785531 0)
(7.41218 0.0816878 0)
(7.41824 0.0846762 0)
(7.42456 0.0874895 0)
(7.43114 0.0900991 0)
(7.43796 0.0924723 0)
(7.44501 0.0945919 0)
(7.33303 0.00115173 0)
(7.3333 0.00342909 0)
(7.3339 0.00567724 0)
(7.33477 0.00791513 0)
(7.33586 0.010157 0)
(7.33718 0.0124159 0)
(7.3387 0.0147043 0)
(7.3404 0.0170334 0)
(7.34228 0.0194131 0)
(7.34433 0.0218524 0)
(7.34655 0.0243584 0)
(7.34894 0.0269366 0)
(7.3515 0.0295905 0)
(7.35422 0.0323211 0)
(7.35713 0.0351273 0)
(7.36021 0.0380056 0)
(7.36349 0.0409499 0)
(7.36696 0.0439522 0)
(7.37062 0.0470018 0)
(7.3745 0.0500858 0)
(7.37859 0.0531893 0)
(7.38291 0.0562951 0)
(7.38744 0.0593844 0)
(7.3922 0.0624366 0)
(7.39719 0.0654297 0)
(7.40242 0.0683402 0)
(7.40787 0.0711439 0)
(7.41354 0.0738154 0)
(7.41945 0.0763288 0)
(7.42556 0.0786576 0)
(7.43189 0.0807758 0)
(7.43842 0.0826539 0)
(7.44512 0.0842779 0)
(7.33303 0.00103591 0)
(7.33332 0.00308806 0)
(7.33394 0.00512562 0)
(7.33483 0.0071703 0)
(7.33597 0.00923549 0)
(7.33733 0.0113314 0)
(7.3389 0.0134663 0)
(7.34066 0.0156471 0)
(7.34261 0.0178796 0)
(7.34474 0.0201686 0)
(7.34704 0.0225178 0)
(7.34951 0.0249296 0)
(7.35215 0.0274047 0)
(7.35497 0.029942 0)
(7.35796 0.0325385 0)
(7.36114 0.0351892 0)
(7.3645 0.0378874 0)
(7.36804 0.0406241 0)
(7.37178 0.0433884 0)
(7.37571 0.0461675 0)
(7.37985 0.0489466 0)
(7.38418 0.0517093 0)
(7.38872 0.0544376 0)
(7.39346 0.0571122 0)
(7.39841 0.0597124 0)
(7.40355 0.0622167 0)
(7.40889 0.0646028 0)
(7.41442 0.0668475 0)
(7.42014 0.0689277 0)
(7.42603 0.0708198 0)
(7.43208 0.0725008 0)
(7.4383 0.0739449 0)
(7.44464 0.0751418 0)
(7.33303 0.000908331 0)
(7.33334 0.00270293 0)
(7.33401 0.00448279 0)
(7.33497 0.00626921 0)
(7.33618 0.0080756 0)
(7.33763 0.00991295 0)
(7.33928 0.0117904 0)
(7.34113 0.013715 0)
(7.34317 0.015692 0)
(7.34538 0.0177258 0)
(7.34777 0.019819 0)
(7.35032 0.0219729 0)
(7.35305 0.0241869 0)
(7.35595 0.0264589 0)
(7.35901 0.0287845 0)
(7.36226 0.0311578 0)
(7.36567 0.0335707 0)
(7.36927 0.0360135 0)
(7.37305 0.0384745 0)
(7.377 0.0409405 0)
(7.38115 0.0433965 0)
(7.38547 0.0458261 0)
(7.38998 0.0482117 0)
(7.39467 0.0505346 0)
(7.39953 0.0527749 0)
(7.40457 0.0549124 0)
(7.40977 0.0569261 0)
(7.41513 0.0587948 0)
(7.42064 0.0604974 0)
(7.42629 0.0620127 0)
(7.43206 0.0633204 0)
(7.43795 0.0643979 0)
(7.44392 0.0652374 0)
(7.33303 0.00077421 0)
(7.33335 0.00232096 0)
(7.33403 0.00388851 0)
(7.33501 0.00549705 0)
(7.33626 0.0071513 0)
(7.33774 0.00885185 0)
(7.33944 0.0105994 0)
(7.34135 0.0123944 0)
(7.34345 0.0142371 0)
(7.34573 0.0161273 0)
(7.34819 0.0180646 0)
(7.35082 0.0200479 0)
(7.35363 0.022075 0)
(7.3566 0.0241426 0)
(7.35974 0.0262461 0)
(7.36305 0.0283793 0)
(7.36653 0.0305344 0)
(7.37017 0.0327023 0)
(7.37399 0.0348723 0)
(7.37797 0.0370324 0)
(7.38212 0.0391689 0)
(7.38643 0.0412672 0)
(7.3909 0.0433116 0)
(7.39553 0.0452853 0)
(7.40031 0.0471711 0)
(7.40523 0.0489509 0)
(7.41028 0.0506066 0)
(7.41546 0.0521199 0)
(7.42075 0.0534724 0)
(7.42614 0.0546462 0)
(7.43162 0.0556242 0)
(7.43718 0.0563873 0)
(7.44279 0.0569306 0)
(7.33304 0.000611392 0)
(7.33342 0.00180863 0)
(7.33421 0.00301236 0)
(7.3353 0.00425327 0)
(7.33666 0.0055469 0)
(7.33824 0.00690017 0)
(7.34004 0.00831554 0)
(7.34203 0.00979289 0)
(7.3442 0.0113313 0)
(7.34655 0.0129299 0)
(7.34908 0.0145863 0)
(7.35177 0.0162971 0)
(7.35462 0.0180577 0)
(7.35763 0.019863 0)
(7.36081 0.0217062 0)
(7.36415 0.0235794 0)
(7.36764 0.0254736 0)
(7.3713 0.0273784 0)
(7.37511 0.0292823 0)
(7.37908 0.0311726 0)
(7.38319 0.0330356 0)
(7.38746 0.0348565 0)
(7.39186 0.0366201 0)
(7.3964 0.0383103 0)
(7.40107 0.0399106 0)
(7.40585 0.0414045 0)
(7.41075 0.0427751 0)
(7.41574 0.044006 0)
(7.42081 0.0450807 0)
(7.42596 0.0459837 0)
(7.43116 0.0467002 0)
(7.43641 0.047214 0)
(7.44168 0.0475217 0)
(7.33303 0.00047115 0)
(7.33337 0.0014551 0)
(7.33414 0.00252418 0)
(7.33525 0.00367839 0)
(7.33664 0.00489947 0)
(7.33828 0.00617455 0)
(7.34015 0.0075005 0)
(7.34221 0.00887236 0)
(7.34447 0.010284 0)
(7.3469 0.0117323 0)
(7.34951 0.0132149 0)
(7.35228 0.014729 0)
(7.35522 0.0162711 0)
(7.35831 0.0178371 0)
(7.36156 0.0194219 0)
(7.36495 0.0210196 0)
(7.3685 0.0226231 0)
(7.37219 0.0242244 0)
(7.37603 0.0258141 0)
(7.38 0.027382 0)
(7.3841 0.0289171 0)
(7.38833 0.0304073 0)
(7.39268 0.0318401 0)
(7.39713 0.0332022 0)
(7.40169 0.0344803 0)
(7.40634 0.0356605 0)
(7.41106 0.0367291 0)
(7.41586 0.0376726 0)
(7.4207 0.0384776 0)
(7.42559 0.0391315 0)
(7.4305 0.0396224 0)
(7.43542 0.0399369 0)
(7.44034 0.0400736 0)
(7.33307 0.00018572 0)
(7.3336 0.000554264 0)
(7.33458 0.00100759 0)
(7.33586 0.00158963 0)
(7.33737 0.00231961 0)
(7.3391 0.00316326 0)
(7.34103 0.00410311 0)
(7.34315 0.00512879 0)
(7.34544 0.00623174 0)
(7.3479 0.00740396 0)
(7.35052 0.00863495 0)
(7.3533 0.00991569 0)
(7.35624 0.0112385 0)
(7.35933 0.0125959 0)
(7.36257 0.0139789 0)
(7.36596 0.015379 0)
(7.36949 0.0167871 0)
(7.37316 0.0181935 0)
(7.37696 0.0195878 0)
(7.38089 0.0209589 0)
(7.38494 0.0222951 0)
(7.3891 0.0235845 0)
(7.39337 0.0248146 0)
(7.39773 0.025973 0)
(7.40218 0.027047 0)
(7.4067 0.0280241 0)
(7.41128 0.0288918 0)
(7.41592 0.0296382 0)
(7.42058 0.0302518 0)
(7.42526 0.0307218 0)
(7.42995 0.0310384 0)
(7.43463 0.0311908 0)
(7.43927 0.0311782 0)
(7.33303 0.000122584 0)
(7.33346 0.000525113 0)
(7.33444 0.00112441 0)
(7.33583 0.00182611 0)
(7.33748 0.00256652 0)
(7.33934 0.00337095 0)
(7.34141 0.00423203 0)
(7.34366 0.00512658 0)
(7.34609 0.00604195 0)
(7.34869 0.00698673 0)
(7.35144 0.00795908 0)
(7.35433 0.00895397 0)
(7.35738 0.00996742 0)
(7.36056 0.0109956 0)
(7.36388 0.0120339 0)
(7.36733 0.0130792 0)
(7.3709 0.0141257 0)
(7.3746 0.0151666 0)
(7.37841 0.0161949 0)
(7.38233 0.0172033 0)
(7.38635 0.0181836 0)
(7.39046 0.0191273 0)
(7.39466 0.0200254 0)
(7.39892 0.0208686 0)
(7.40324 0.0216474 0)
(7.40761 0.0223524 0)
(7.41201 0.0229741 0)
(7.41643 0.0235035 0)
(7.42086 0.0239316 0)
(7.42529 0.0242502 0)
(7.42969 0.0244519 0)
(7.43405 0.0245278 0)
(7.43837 0.0244777 0)
(7.33314 -0.00051381 0)
(7.33402 -0.00139528 0)
(7.33531 -0.00183276 0)
(7.33676 -0.00193136 0)
(7.33839 -0.00180908 0)
(7.34027 -0.00147452 0)
(7.34232 -0.000971639 0)
(7.34452 -0.000340373 0)
(7.34688 0.000394665 0)
(7.34942 0.00119802 0)
(7.35212 0.00205202 0)
(7.35497 0.00294752 0)
(7.35796 0.003875 0)
(7.36109 0.00482797 0)
(7.36437 0.00578772 0)
(7.36778 0.00675182 0)
(7.37132 0.00771442 0)
(7.37498 0.00866679 0)
(7.37875 0.00960038 0)
(7.38263 0.0105067 0)
(7.38661 0.0113773 0)
(7.39068 0.0122035 0)
(7.39483 0.0129764 0)
(7.39904 0.0136876 0)
(7.4033 0.0143285 0)
(7.4076 0.0148907 0)
(7.41193 0.0153664 0)
(7.41628 0.0157482 0)
(7.42062 0.0160288 0)
(7.42494 0.0162016 0)
(7.42922 0.0162611 0)
(7.43346 0.0162008 0)
(7.43763 0.0160221 0)
(7.33309 -0.000202751 0)
(7.33404 -0.000352698 0)
(7.33574 -0.000292996 0)
(7.33767 -0.000172629 0)
(7.33978 3.96849e-05 0)
(7.34206 0.000311694 0)
(7.34448 0.000611902 0)
(7.34703 0.000943796 0)
(7.3497 0.00131329 0)
(7.35248 0.00170288 0)
(7.35538 0.00210894 0)
(7.35841 0.00253169 0)
(7.36157 0.00297046 0)
(7.36483 0.00342145 0)
(7.3682 0.00389349 0)
(7.37169 0.00437675 0)
(7.37529 0.00486555 0)
(7.37899 0.00535732 0)
(7.38278 0.00584841 0)
(7.38664 0.00633433 0)
(7.39058 0.00681035 0)
(7.39459 0.00727151 0)
(7.39864 0.00771261 0)
(7.40273 0.00812831 0)
(7.40685 0.00851314 0)
(7.41099 0.00886167 0)
(7.41512 0.00916854 0)
(7.41924 0.00942849 0)
(7.42333 0.00963662 0)
(7.42739 0.00978825 0)
(7.43139 0.00987958 0)
(7.43531 0.00990522 0)
(7.43917 0.00986683 0)
(7.33436 -0.00335894 0)
(7.33911 -0.00611941 0)
(7.34482 -0.00704312 0)
(7.35101 -0.00748221 0)
(7.35754 -0.00753009 0)
(7.36419 -0.00730026 0)
(7.37081 -0.00693051 0)
(7.37733 -0.00648493 0)
(7.38373 -0.00599483 0)
(7.38996 -0.00546839 0)
(7.39601 -0.0049173 0)
(7.40187 -0.004353 0)
(7.40754 -0.00378282 0)
(7.41304 -0.00321558 0)
(7.41836 -0.00264487 0)
(7.42349 -0.00208228 0)
(7.42847 -0.00153538 0)
(7.4333 -0.00100829 0)
(7.438 -0.000505585 0)
(7.44259 -3.21629e-05 0)
(7.44708 0.00040726 0)
(7.4515 0.000808079 0)
(7.45586 0.00116577 0)
(7.46018 0.00147596 0)
(7.46448 0.00173448 0)
(7.46876 0.00193739 0)
(7.47304 0.00208104 0)
(7.47734 0.00216211 0)
(7.48166 0.0021775 0)
(7.48602 0.00212448 0)
(7.49043 0.00200053 0)
(7.49488 0.00180324 0)
(7.49938 0.00153289 0)
(7.3298 -0.00382082 0)
(7.32481 -0.00785545 0)
(7.31664 -0.0100437 0)
(7.30704 -0.0115366 0)
(7.29744 -0.0124588 0)
(7.28795 -0.0129345 0)
(7.2787 -0.0131138 0)
(7.26987 -0.0130827 0)
(7.26154 -0.0128904 0)
(7.25375 -0.0125746 0)
(7.24653 -0.0121667 0)
(7.23989 -0.0116896 0)
(7.23384 -0.0111612 0)
(7.22837 -0.0105953 0)
(7.22346 -0.0100158 0)
(7.21908 -0.00943066 0)
(7.21522 -0.00884921 0)
(7.21185 -0.00828249 0)
(7.20892 -0.00774104 0)
(7.20639 -0.00723451 0)
(7.20423 -0.00677187 0)
(7.2024 -0.00636138 0)
(7.20084 -0.00601056 0)
(7.19951 -0.00572622 0)
(7.19836 -0.00551445 0)
(7.19736 -0.00538058 0)
(7.19644 -0.0053293 0)
(7.19556 -0.00536456 0)
(7.19468 -0.00548983 0)
(7.19376 -0.00570771 0)
(7.19275 -0.00602066 0)
(7.1916 -0.00642877 0)
(7.1903 -0.00693237 0)
(2.18044 0.063493 0)
(2.08428 0.086821 0)
(1.94987 0.100561 0)
(1.65596 -0.00171664 0)
(0.959423 -0.134761 0)
(0.0439868 -0.234052 0)
(-0.369168 -0.237455 0)
(-0.210614 -0.177593 0)
(0.363859 0.0768625 0)
(1.3659 0.676925 0)
(2.51792 1.40192 0)
(3.60417 2.03874 0)
(4.57121 2.49408 0)
(5.42201 2.72546 0)
(6.16624 2.71843 0)
(6.81371 2.47844 0)
(7.36923 2.01859 0)
(7.82284 1.35455 0)
(8.14331 0.520453 0)
(8.29385 -0.419358 0)
(8.26423 -1.38276 0)
(8.04846 -2.26061 0)
(7.59207 -2.91468 0)
(6.95349 -3.29982 0)