/*--------------------------------*- C++ -*----------------------------------*\
  =========                 |
  \\      /  F ield         | OpenFOAM: The Open Source CFD Toolbox
   \\    /   O peration     | Website:  https://openfoam.org
    \\  /    A nd           | Version:  10
     \\/     M anipulation  |
\*---------------------------------------------------------------------------*/
FoamFile
{
    format      ascii;
    class       volScalarField;
    location    "0.135";
    object      k;
}
// * * * * * * * * * * * * * * * * * * * * * * * * * * * * * * * * * * * * * //

dimensions      [0 2 -2 0 0 0 0];

internalField   nonuniform List<scalar> 
6820
(
0.198342
0.194797
0.191184
0.187539
0.183909
0.180322
0.176788
0.173311
0.169893
0.166532
0.163227
0.159974
0.15677
0.153609
0.150487
0.147394
0.144324
0.141265
0.138206
0.135132
0.132025
0.128866
0.125628
0.122281
0.11879
0.11511
0.111191
0.106971
0.102382
0.0973298
0.0917499
0.0855182
0.0781312
0.200927
0.20092
0.200513
0.200094
0.199679
0.199257
0.198823
0.198373
0.197905
0.19742
0.19692
0.196405
0.195878
0.195342
0.1948
0.194253
0.193704
0.193155
0.192608
0.192064
0.191523
0.190982
0.19044
0.18989
0.189321
0.188718
0.188057
0.187303
0.18641
0.185303
0.183925
0.182039
0.179953
0.236701
0.0169121
0.0579372
0.00660973
0.00796414
0.00824315
0.0098744
0.0119792
0.0142473
0.0166285
0.019091
0.0216169
0.0241961
0.0268234
0.0294972
0.0322193
0.0349945
0.037831
0.0407406
0.0437381
0.0468429
0.0500779
0.0534711
0.0570548
0.060866
0.0649457
0.0693379
0.0740869
0.0792342
0.0848123
0.0908354
0.097304
0.104127
0.210763
0.14804
0.105037
0.0797653
0.0641415
0.0535361
0.0457017
0.0395395
0.0344808
0.0302073
0.0265275
0.0233195
0.0205023
0.0180215
0.0158397
0.013932
0.0122817
0.0108772
0.00971036
0.00877315
0.00805714
0.00755352
0.0072549
0.00715786
0.0072658
0.0075917
0.00816084
0.00901377
0.0102091
0.0118294
0.0139607
0.0167477
0.0201858
0.223523
0.0823266
0.0205278
0.00380792
0.00051846
0.000369979
0.000753569
0.00112224
0.00142535
0.00168456
0.00191405
0.00211755
0.00229409
0.00244151
0.00255793
0.0026421
0.00269346
0.00271199
0.00269821
0.00265297
0.00257718
0.00247169
0.0023371
0.00217394
0.00198242
0.00176391
0.00152003
0.00125589
0.000968432
0.000690617
0.000442868
0.000179127
5.19642e-06
0.217412
0.113287
0.0512181
0.0276888
0.0188178
0.0145488
0.0116145
0.00904368
0.00660766
0.00445572
0.0027752
0.00162276
0.000916893
0.000519367
0.000306677
0.000195575
0.000138008
0.000108917
9.61934e-05
9.29918e-05
9.51465e-05
9.96401e-05
0.000104873
0.000104312
0.000108589
9.39744e-05
4.1293e-05
1.65179e-05
5.58876e-05
0.000127898
1.46268e-06
0.000414587
0.000257456
0.21305
0.13535
0.0651465
0.030646
0.0165891
0.0110326
0.00880091
0.00802981
0.00767352
0.00742744
0.00722036
0.00703761
0.00687424
0.00672273
0.00657333
0.00641846
0.00625546
0.00608503
0.00590803
0.00572596
0.00553973
0.00534995
0.00515732
0.00496189
0.00476509
0.00456427
0.00435635
0.00414894
0.00395009
0.00375819
0.00355031
0.00334046
0.00312626
0.203168
0.18464
0.128626
0.0650684
0.0291983
0.0142636
0.00874431
0.00711228
0.00655215
0.00627066
0.00608827
0.00597158
0.00591093
0.00589082
0.00589083
0.00589536
0.00589869
0.00590213
0.00590857
0.00591819
0.00592821
0.00593534
0.00593755
0.00593418
0.00592459
0.0059084
0.00588454
0.00584998
0.00580272
0.00574237
0.00567181
0.00558595
0.00548519
0.201739
0.191526
0.168279
0.121866
0.071278
0.0372303
0.0203856
0.0149989
0.012939
0.0116778
0.0106015
0.00967278
0.00896959
0.00849751
0.00817957
0.00792597
0.00768787
0.00746235
0.00726548
0.00710568
0.00697761
0.00687011
0.00677487
0.00668893
0.00661215
0.0065444
0.00648436
0.00642989
0.00637906
0.00633067
0.00628433
0.00623917
0.006194
0.201087
0.194731
0.184109
0.164098
0.127749
0.0862715
0.0557336
0.0435
0.0369984
0.0322638
0.0281264
0.0244609
0.0214566
0.0191726
0.0174494
0.0160543
0.0148278
0.0137266
0.012767
0.0119613
0.0112937
0.0107314
0.010245
0.00981695
0.00943879
0.00910455
0.00880749
0.00854039
0.00829713
0.00807328
0.00786591
0.00767289
0.00749215
0.200668
0.196786
0.190665
0.181514
0.165639
0.14226
0.119485
0.10524
0.0937372
0.0834921
0.0741493
0.0657643
0.0585491
0.0525466
0.0475279
0.043223
0.0394244
0.0360441
0.0330659
0.0304761
0.0282316
0.0262702
0.0245357
0.0229893
0.0216058
0.0203651
0.0192471
0.0182319
0.0173024
0.0164447
0.0156479
0.014903
0.0142016
0.200423
0.197977
0.194395
0.18978
0.182982
0.173096
0.161833
0.152039
0.142176
0.132144
0.122357
0.113209
0.104903
0.097375
0.0905138
0.0842743
0.0786099
0.0734778
0.0688378
0.0646431
0.0608393
0.057373
0.0541994
0.0512842
0.0485992
0.0461187
0.0438182
0.0416746
0.0396669
0.0377767
0.035988
0.034287
0.0326595
0.200273
0.198708
0.196545
0.194019
0.190693
0.186183
0.180738
0.175087
0.16858
0.161257
0.153507
0.145591
0.137738
0.130181
0.123146
0.116751
0.111006
0.105856
0.101218
0.0970092
0.093157
0.0896036
0.0863027
0.083217
0.0803154
0.0775709
0.0749607
0.0724632
0.0700602
0.0677369
0.0654811
0.0632811
0.0611243
0.200181
0.199149
0.197807
0.196389
0.194685
0.192398
0.189381
0.185722
0.181278
0.176094
0.170364
0.164192
0.157809
0.151538
0.145629
0.140211
0.135314
0.130907
0.126938
0.123344
0.120068
0.117059
0.114273
0.111672
0.109221
0.106884
0.104637
0.10246
0.100336
0.0982503
0.0961913
0.0941457
0.0921009
0.200125
0.199418
0.198558
0.197742
0.196835
0.195609
0.19386
0.19147
0.188344
0.184446
0.17984
0.174669
0.169215
0.163789
0.158632
0.15389
0.149616
0.145806
0.142421
0.139411
0.13672
0.134292
0.132081
0.130045
0.128142
0.126342
0.124622
0.122963
0.121346
0.119757
0.118186
0.116622
0.115055
0.200091
0.19958
0.198999
0.19851
0.198012
0.197312
0.196202
0.194524
0.192181
0.189163
0.185528
0.181429
0.177084
0.172721
0.168523
0.164607
0.161029
0.157798
0.154892
0.152277
0.149905
0.147712
0.145662
0.143735
0.141922
0.140215
0.138607
0.137088
0.135642
0.134256
0.13292
0.131623
0.130349
0.200072
0.199671
0.199243
0.198921
0.198623
0.198182
0.197414
0.196153
0.194293
0.191821
0.188807
0.185383
0.181714
0.177982
0.174341
0.170897
0.167707
0.164777
0.162076
0.159581
0.15728
0.155151
0.153176
0.151339
0.149627
0.14803
0.146537
0.145139
0.143824
0.142581
0.141401
0.140276
0.139186
0.200062
0.199717
0.199357
0.1991
0.198874
0.198532
0.197908
0.196848
0.195257
0.193123
0.190513
0.187549
0.184376
0.181134
0.177937
0.174865
0.171966
0.169257
0.166736
0.164393
0.162219
0.160205
0.158337
0.156601
0.154985
0.153478
0.152068
0.150745
0.149501
0.148324
0.147205
0.146142
0.145118
0.200059
0.19973
0.199378
0.199116
0.198879
0.198536
0.19794
0.196958
0.195506
0.193572
0.191211
0.188526
0.185643
0.182683
0.179745
0.176899
0.17419
0.171643
0.169264
0.167051
0.164999
0.163094
0.161327
0.159686
0.158158
0.156733
0.1554
0.154152
0.152974
0.15185
0.150767
0.149737
0.148762
0.200061
0.199716
0.199327
0.199007
0.1987
0.198287
0.197641
0.196649
0.195244
0.193419
0.191223
0.188748
0.186101
0.183385
0.180686
0.178064
0.175559
0.173194
0.170976
0.168906
0.166977
0.165181
0.163508
0.161948
0.160491
0.159129
0.157851
0.156646
0.155493
0.154375
0.153287
0.152247
0.151287
0.200069
0.199679
0.199213
0.198792
0.198366
0.197831
0.197079
0.196016
0.194592
0.192805
0.190704
0.188367
0.185886
0.183347
0.180823
0.178369
0.176018
0.173792
0.171699
0.169738
0.167907
0.166198
0.164602
0.163111
0.161718
0.16041
0.159171
0.157984
0.156832
0.155707
0.154604
0.153549
0.152593
0.200081
0.199618
0.199034
0.198469
0.197883
0.197184
0.196281
0.195102
0.193612
0.191818
0.189768
0.187529
0.18518
0.182793
0.180428
0.178129
0.175926
0.173835
0.171862
0.170008
0.16827
0.166641
0.165116
0.163686
0.162341
0.161059
0.159823
0.158621
0.157447
0.156294
0.155159
0.154067
0.153079
0.2001
0.199528
0.198781
0.198029
0.19724
0.196338
0.195249
0.193921
0.192331
0.190496
0.188458
0.186278
0.18402
0.181745
0.1795
0.177321
0.175231
0.173243
0.171363
0.169592
0.167926
0.16636
0.164888
0.163499
0.162168
0.160881
0.159627
0.158401
0.157199
0.156014
0.154847
0.153719
0.152693
0.200126
0.199402
0.198436
0.197443
0.196406
0.195262
0.193954
0.192449
0.190736
0.188837
0.186791
0.18465
0.182465
0.180284
0.178144
0.176071
0.174081
0.172186
0.170389
0.168689
0.167084
0.165568
0.164124
0.162732
0.161379
0.16006
0.158771
0.157507
0.156265
0.15504
0.15383
0.152658
0.151584
0.200162
0.199227
0.19797
0.196672
0.195336
0.193912
0.192362
0.190662
0.188812
0.186833
0.18476
0.182633
0.180493
0.178375
0.176307
0.174308
0.172389
0.170559
0.168818
0.167166
0.165597
0.164093
0.162637
0.161219
0.159834
0.158481
0.157157
0.155858
0.154581
0.15332
0.152075
0.150868
0.149751
0.200212
0.198984
0.197335
0.195645
0.193942
0.192189
0.190362
0.188447
0.186447
0.184379
0.18227
0.180148
0.178043
0.175976
0.173967
0.172026
0.170161
0.168377
0.166674
0.16504
0.163455
0.16191
0.160401
0.158927
0.157488
0.156081
0.154705
0.153356
0.152032
0.150727
0.14944
0.148191
0.147027
0.200283
0.198642
0.196466
0.19428
0.192145
0.19003
0.187914
0.185781
0.183628
0.181463
0.179302
0.17716
0.175056
0.173003
0.171012
0.169089
0.167238
0.165457
0.163741
0.162069
0.160432
0.158829
0.157263
0.155734
0.154243
0.152787
0.151366
0.149977
0.148615
0.147278
0.145961
0.144683
0.143484
0.200387
0.198143
0.195229
0.192382
0.189698
0.187145
0.184694
0.182318
0.179999
0.177729
0.175507
0.173336
0.17122
0.169162
0.167166
0.165234
0.163355
0.16151
0.159697
0.157914
0.156166
0.154458
0.152791
0.151169
0.149592
0.148058
0.146567
0.145116
0.143701
0.142316
0.14096
0.139647
0.138407
0.200539
0.197409
0.193487
0.189821
0.18652
0.183514
0.180734
0.17812
0.175625
0.173223
0.170899
0.168643
0.166452
0.164318
0.162239
0.160214
0.158222
0.156254
0.154313
0.152406
0.150537
0.148714
0.146939
0.145215
0.143545
0.141927
0.14036
0.138843
0.13737
0.135939
0.134543
0.133196
0.131919
0.200779
0.196257
0.190833
0.186006
0.181876
0.178294
0.175118
0.172231
0.169544
0.166999
0.164559
0.162198
0.1599
0.157629
0.15537
0.153125
0.150897
0.148694
0.146523
0.144394
0.142314
0.14029
0.138327
0.13643
0.134601
0.132842
0.13115
0.129525
0.127962
0.126455
0.125
0.123604
0.122279
0.201155
0.194459
0.186992
0.180806
0.175812
0.171654
0.168062
0.164842
0.161854
0.159016
0.156282
0.153623
0.151014
0.148421
0.145833
0.143258
0.140702
0.138176
0.135689
0.133251
0.130872
0.128559
0.126322
0.124168
0.122101
0.120127
0.118244
0.116453
0.11475
0.113127
0.111579
0.110109
0.108717
0.20183
0.191232
0.180415
0.172179
0.166016
0.161184
0.15718
0.153631
0.150292
0.147052
0.14386
0.140694
0.137546
0.134411
0.131292
0.128193
0.125123
0.12209
0.119107
0.116188
0.113346
0.110597
0.107955
0.105432
0.103038
0.100779
0.0986547
0.0966638
0.0948004
0.0930565
0.0914221
0.0898947
0.088464
0.203282
0.184329
0.167698
0.156235
0.148115
0.141908
0.136767
0.132144
0.127746
0.123443
0.119177
0.114936
0.110733
0.106594
0.102544
0.0986029
0.0947846
0.0910971
0.0875455
0.0841346
0.0808699
0.0777587
0.0748097
0.0720317
0.069433
0.0670192
0.0647926
0.0627518
0.0608912
0.0592019
0.0576712
0.0562894
0.0550338
0.207084
0.166168
0.137227
0.120489
0.110089
0.102727
0.0968072
0.0915667
0.0866533
0.0819122
0.0772904
0.0727941
0.0684595
0.0643289
0.0604356
0.0567977
0.0534188
0.0502909
0.0473989
0.0447248
0.0422513
0.0399638
0.0378519
0.0359082
0.0341276
0.0325055
0.0310365
0.0297142
0.0285301
0.0274747
0.0265367
0.0257063
0.0249654
0.214588
0.129362
0.0892446
0.0717386
0.0628669
0.0573343
0.0531697
0.0496126
0.0463635
0.043301
0.0403756
0.0375716
0.0348868
0.032326
0.0298991
0.02762
0.0255041
0.0235646
0.0218093
0.0202388
0.018847
0.0176224
0.0165497
0.015612
0.0147918
0.0140721
0.0134377
0.0128753
0.012374
0.0119248
0.0115206
0.0111563
0.0108243
0.218578
0.10721
0.0653381
0.0502506
0.04342
0.0391831
0.035865
0.0329611
0.03032
0.0278942
0.0256638
0.0236147
0.0217305
0.0199955
0.0183975
0.0169289
0.0155854
0.0143634
0.0132587
0.0122651
0.0113745
0.0105774
0.00986343
0.0092222
0.00864392
0.0081197
0.00764178
0.00720359
0.00679965
0.00642543
0.00607726
0.00575216
0.00544825
0.212639
0.137727
0.0943093
0.0705777
0.0565609
0.047475
0.0411105
0.0363972
0.0327647
0.0298819
0.0275425
0.0256075
0.0239804
0.0225929
0.0213947
0.0203479
0.0194238
0.0185998
0.0178584
0.0171861
0.0165722
0.0160085
0.0154884
0.0150064
0.0145579
0.0141389
0.0137463
0.013377
0.0130284
0.0126985
0.0123844
0.0120879
0.0117941
0.240256
0.00043906
0.0372465
4.82617e-05
0.0104108
0.00128487
0.0294819
0.00292561
0.00163531
0.000181342
0.0018036
0.00183291
0.000586799
0.000134042
0.000221785
0.000259076
0.000267591
0.000291767
0.000317282
0.00033899
0.00035937
0.000379236
0.000398413
0.000416963
0.000435057
0.000452801
0.000470284
0.000487598
0.000504838
0.000522095
0.000539439
0.000557018
0.000574632
0.200084
0.199935
0.199729
0.19952
0.199316
0.199113
0.198909
0.198704
0.198497
0.198284
0.198065
0.197838
0.197602
0.197359
0.197112
0.196859
0.196603
0.196343
0.196081
0.195817
0.195553
0.19529
0.195027
0.194766
0.194508
0.194253
0.194003
0.193757
0.193518
0.193285
0.193058
0.192841
0.19262
0.199875
0.199572
0.199249
0.19892
0.19859
0.198265
0.197948
0.197639
0.197339
0.197048
0.196766
0.196493
0.196229
0.195972
0.195724
0.195483
0.195249
0.195023
0.194803
0.194589
0.194381
0.194179
0.193982
0.193791
0.193603
0.19342
0.193241
0.193065
0.192893
0.192724
0.192557
0.192393
0.192231
0.0712608
0.0672571
0.0694422
0.0749634
0.0854284
0.0785656
0.0806518
0.0789128
0.0788594
0.0826523
0.0951608
0.120899
0.159782
0.200741
0.226551
0.215881
0.172754
0.133886
0.114407
0.0988843
0.0758655
0.0497368
0.0287424
0.0166747
0.0104116
0.0105894
0.0264746
0.0512757
0.0687893
0.0739918
0.0728185
0.0724965
0.0756327
0.0811359
0.0864198
0.0890822
0.0885851
0.0853954
0.081065
0.0778492
0.0780938
0.0828617
0.0881896
0.0878226
0.0794521
0.0655754
0.0498545
0.0361649
0.0265747
0.0134662
0.0319091
0.0986098
0.17303
0.226207
0.256894
0.271707
0.274022
0.264893
0.245596
0.208095
0.152359
0.105408
0.0904907
0.10233
0.122237
0.137211
0.143989
0.1447
0.14245
0.139382
0.136484
0.134017
0.131932
0.13008
0.128265
0.12622
0.123615
0.120097
0.11532
0.108785
0.099552
0.0854494
0.0623425
0.0361845
0.0300727
0.0427818
0.0579432
0.0664073
0.0675003
0.0635724
0.0580177
0.0539775
0.0517954
0.0489924
0.0435212
0.0360996
0.0275158
0.0189684
0.0107607
0.0101054
0.174843
0.167206
0.162358
0.161706
0.15796
0.153345
0.144217
0.111755
0.0836738
0.0781335
0.0872892
0.107099
0.137567
0.169303
0.186031
0.17095
0.139041
0.118854
0.10829
0.0903363
0.0633054
0.0369164
0.018469
0.00892933
0.00500706
0.0031057
0.0106954
0.0322574
0.0563441
0.0707796
0.0745234
0.0737328
0.0736811
0.0756519
0.078416
0.0800719
0.0799344
0.0784411
0.0768804
0.076894
0.0798459
0.0848153
0.0868526
0.0817333
0.0700144
0.0553023
0.0409258
0.0290016
0.0227384
0.0142819
0.0152646
0.0559483
0.1223
0.181862
0.220791
0.240439
0.242886
0.231318
0.204934
0.160983
0.113393
0.0876411
0.0913324
0.110736
0.129685
0.140815
0.144439
0.143606
0.140989
0.138057
0.135353
0.132977
0.130891
0.129007
0.127167
0.12511
0.12247
0.118836
0.113824
0.10704
0.0976846
0.0833775
0.060468
0.0359323
0.0314302
0.0440757
0.0580392
0.0654265
0.0658539
0.0616557
0.0562341
0.0525291
0.0506579
0.0480507
0.0427316
0.0354791
0.0270854
0.0186454
0.0103906
0.009013
0.112659
0.121699
0.129718
0.137127
0.14382
0.150317
0.156824
0.153188
0.126563
0.0952456
0.0832236
0.0899477
0.109408
0.130905
0.138639
0.126659
0.114395
0.110848
0.100713
0.0762827
0.0466793
0.023067
0.00937102
0.00339537
0.00147327
0.000353673
0.00181253
0.0144054
0.0373286
0.0591242
0.0715033
0.0751149
0.0749908
0.0747319
0.0751567
0.0755971
0.0756431
0.0756117
0.0762777
0.0784164
0.0821399
0.0847049
0.0817963
0.0720305
0.0581602
0.0438564
0.0314772
0.022007
0.0176486
0.0148852
0.0105899
0.0267786
0.0723572
0.126727
0.169343
0.193138
0.195957
0.181982
0.152445
0.113863
0.08529
0.0817817
0.0985591
0.120186
0.13571
0.142812
0.143948
0.142191
0.139513
0.136767
0.134189
0.131819
0.129671
0.127728
0.125869
0.123828
0.121199
0.117499
0.112238
0.10492
0.0947122
0.0795549
0.0574405
0.0363695
0.0338465
0.0456746
0.0579819
0.0642968
0.0643282
0.0600426
0.0546441
0.0510538
0.0494238
0.0471733
0.0422733
0.0353955
0.0272501
0.0188627
0.0104151
0.00836721
0.0254909
0.0330097
0.0418363
0.0516503
0.0632313
0.0778896
0.0978501
0.12228
0.136684
0.12801
0.107308
0.0935046
0.0937722
0.101557
0.103695
0.103689
0.108435
0.106148
0.0859809
0.0554314
0.0280078
0.0109195
0.00340484
0.00118579
0.000983996
0.000674937
0.000470541
0.00386608
0.0181974
0.0401139
0.0596454
0.071112
0.0754408
0.0762054
0.0759467
0.07568
0.0758691
0.0766951
0.0782863
0.0806117
0.0822966
0.0801615
0.0719056
0.0588816
0.0447676
0.0322981
0.0225403
0.0158525
0.0131321
0.0140292
0.012199
0.0145121
0.0362206
0.0736701
0.110238
0.133172
0.136627
0.124255
0.101053
0.0790529
0.0733135
0.0870593
0.109665
0.128924
0.139738
0.143307
0.142794
0.140651
0.138089
0.135493
0.132935
0.13047
0.128193
0.126161
0.124288
0.122296
0.119731
0.116034
0.110612
0.102837
0.0918298
0.0761218
0.0554377
0.0378386
0.0364004
0.0467047
0.0570744
0.0621835
0.0617983
0.0576384
0.0526233
0.049429
0.0481412
0.0462499
0.0417928
0.0353592
0.02754
0.019246
0.0107091
0.00779132
0.000414156
0.00167271
0.0034652
0.00587671
0.00980949
0.0168337
0.0296964
0.0530194
0.085022
0.111326
0.120103
0.115037
0.10822
0.105795
0.10713
0.11157
0.109076
0.0901343
0.0597962
0.0309029
0.0118816
0.00344938
0.00157665
0.00200261
0.0026385
0.00293154
0.00189249
0.000545724
0.00542355
0.0201631
0.0400584
0.0575944
0.0688954
0.0744933
0.0766508
0.0774109
0.0779257
0.0786124
0.0794004
0.0794568
0.0768057
0.0693656
0.0573245
0.0436348
0.0314716
0.022048
0.0152794
0.0112799
0.0103966
0.0130358
0.0153481
0.0148798
0.0204559
0.0378805
0.0605026
0.0770151
0.0812882
0.0754249
0.0661721
0.0644568
0.0770099
0.0993607
0.121114
0.135382
0.141651
0.142704
0.141331
0.139136
0.13671
0.134157
0.131494
0.128829
0.126347
0.124186
0.122299
0.120394
0.117959
0.11435
0.108875
0.100819
0.0893436
0.0735565
0.0544243
0.0394644
0.0383276
0.0468644
0.055366
0.0593736
0.0586694
0.0547551
0.0502166
0.0474449
0.0465035
0.0450255
0.0411232
0.0352573
0.0278652
0.0196983
0.0111592
0.00716953
6.21707e-06
5.77371e-06
0.000507338
0.000345252
1.90425e-05
0.000178471
0.00180417
0.00816849
0.0252667
0.0527285
0.0802246
0.0982102
0.10598
0.108314
0.109005
0.102023
0.0826915
0.0549308
0.0285332
0.0107401
0.00287944
0.00163201
0.00289443
0.00422066
0.00486076
0.00510747
0.00461698
0.00254392
0.00143883
0.00662568
0.0197238
0.0367074
0.0521847
0.0632754
0.0699891
0.0734978
0.0750007
0.0751948
0.0739972
0.0705141
0.0634954
0.0527267
0.0401397
0.028768
0.0203494
0.0145839
0.0107233
0.00899619
0.00996662
0.0137116
0.0187366
0.0209988
0.0215457
0.0259027
0.034851
0.0435962
0.0484464
0.0507915
0.0559467
0.0694627
0.0909282
0.113501
0.130258
0.139094
0.141904
0.141497
0.139806
0.137678
0.135307
0.132659
0.129756
0.126775
0.123999
0.121654
0.119746
0.117972
0.11575
0.112336
0.106936
0.0987711
0.0871026
0.071565
0.0539379
0.0409612
0.0396914
0.0464189
0.053162
0.0561228
0.0550649
0.0513594
0.0473479
0.0451273
0.0446582
0.0436614
0.0403331
0.0350486
0.0281156
0.0201192
0.0116163
0.00663131
0.0028448
0.00250847
0.00216998
0.00177625
0.00133206
0.000347445
0.00013991
0.00149391
0.00180651
0.0100047
0.0263699
0.0451511
0.0597055
0.0669938
0.0654855
0.0540742
0.0362662
0.0186297
0.0065634
0.00160345
0.00161062
0.00344805
0.00524484
0.00639621
0.00680408
0.00671874
0.00647932
0.00541641
0.00314362
0.00227482
0.00657123
0.0167539
0.0299599
0.0424897
0.052145
0.0582281
0.0610744
0.0611271
0.0584207
0.0527025
0.0440465
0.033705
0.0241008
0.0172925
0.0133841
0.0110268
0.00944753
0.00937014
0.0119029
0.0169128
0.0234045
0.0288064
0.031107
0.0321409
0.0345383
0.038772
0.0444042
0.0529268
0.0667907
0.0863635
0.107755
0.125305
0.135978
0.14047
0.141154
0.140073
0.138313
0.136219
0.13377
0.130877
0.127589
0.124161
0.12098
0.118382
0.116436
0.114837
0.112929
0.109848
0.104682
0.0966012
0.0849904
0.0699419
0.0537264
0.0422261
0.0405535
0.0455073
0.0506335
0.0526931
0.0513834
0.0479059
0.0443618
0.0426079
0.0425615
0.0420599
0.0393611
0.0347201
0.0282894
0.0205058
0.0119741
0.00626426
0.00534149
0.00513196
0.0048741
0.00455271
0.00418418
0.00360269
0.00286554
0.00210003
0.000152898
8.3782e-06
0.00261492
0.00819161
0.014749
0.0186072
0.0168562
0.0115672
0.00561286
0.00160264
0.000701509
0.00205654
0.00411677
0.00606451
0.00770354
0.00888165
0.00937199
0.00910955
0.00843162
0.00760656
0.00606583
0.00381891
0.00282728
0.00541242
0.0119107
0.0205097
0.0287818
0.0349764
0.038341
0.038711
0.0361435
0.0310018
0.0242609
0.0177017
0.0132888
0.0117172
0.0117517
0.0116703
0.0113054
0.012193
0.0159438
0.0224465
0.0303239
0.0378366
0.0432552
0.0464315
0.0491112
0.0533281
0.0603844
0.0716823
0.0874735
0.10553
0.12175
0.13293
0.138621
0.140361
0.139962
0.138611
0.136818
0.134651
0.131974
0.128672
0.124834
0.120806
0.1171
0.114166
0.112156
0.110775
0.10929
0.106704
0.101971
0.0941989
0.0828938
0.0685122
0.0535801
0.0431509
0.0409199
0.0441943
0.0478246
0.0490596
0.0475258
0.0442624
0.0411725
0.0399068
0.0403193
0.0403331
0.0382589
0.0342519
0.0283308
0.0208086
0.0122675
0.00601273
0.00613976
0.00606827
0.00597903
0.00586375
0.00570991
0.00550971
0.00516872
0.00471452
0.00371836
0.00247824
0.00109926
0.000192014
0.00013063
0.00043178
0.000706741
0.000953022
0.00132331
0.00216513
0.00349666
0.00511616
0.00702982
0.0093102
0.0117197
0.0136916
0.0146636
0.014418
0.0131189
0.0113719
0.00953772
0.00735749
0.00495493
0.00346355
0.00408044
0.00690944
0.0108292
0.0145337
0.016962
0.0175537
0.0162725
0.0136722
0.0109116
0.00951418
0.0104565
0.0130528
0.0152568
0.0157197
0.0153888
0.016718
0.0215748
0.0297144
0.0393669
0.0486582
0.0564356
0.0624552
0.067738
0.0739159
0.0823012
0.093693
0.107255
0.120476
0.130681
0.136742
0.139262
0.139528
0.13861
0.137108
0.135219
0.132847
0.129772
0.125869
0.121292
0.116506
0.112153
0.108808
0.106708
0.105579
0.104623
0.102706
0.0986284
0.0914193
0.0806739
0.0671118
0.0533462
0.0436856
0.0408194
0.0425447
0.0448142
0.045322
0.0436357
0.0406065
0.0379223
0.037064
0.0378801
0.0384102
0.0370021
0.0336852
0.0283338
0.0211281
0.0126324
0.00583647
0.00729663
0.00708401
0.00687817
0.00667978
0.00648635
0.00630357
0.0061191
0.005914
0.00564952
0.00515599
0.00437584
0.00336672
0.00245894
0.00209871
0.00244678
0.00310001
0.00394821
0.00498869
0.006408
0.0085986
0.0118131
0.0157925
0.0197957
0.0229397
0.0245459
0.0243918
0.0226103
0.0197038
0.0164342
0.013267
0.0102105
0.00736698
0.00522527
0.00424875
0.00438393
0.00513033
0.00591762
0.00637346
0.00651565
0.0068287
0.00816605
0.0112886
0.0159261
0.0202762
0.0222037
0.0214422
0.0203198
0.0220077
0.0282262
0.0382398
0.0498916
0.0610605
0.0706353
0.0785867
0.0857186
0.0931798
0.101736
0.111499
0.121382
0.129687
0.135268
0.138097
0.138871
0.138366
0.137137
0.135478
0.133397
0.130662
0.126977
0.122245
0.116732
0.111047
0.105963
0.102161
0.0999537
0.0990974
0.0987543
0.0976655
0.094472
0.0880968
0.078173
0.065578
0.0528929
0.0437891
0.0402731
0.0406027
0.0416468
0.0415006
0.0396935
0.0368946
0.0345892
0.034115
0.0353252
0.0363733
0.0356404
0.0330366
0.0283044
0.0214728
0.0131136
0.00575379
0.0134347
0.0125908
0.0117641
0.0109537
0.0101616
0.0093945
0.00866927
0.00800288
0.00743436
0.00694995
0.00652054
0.00610873
0.00575908
0.00562553
0.00580235
0.00626736
0.00717772
0.00889152
0.0118651
0.0163296
0.0219956
0.0280686
0.0335574
0.0376129
0.0397013
0.0396806
0.0376845
0.0340767
0.0294869
0.0246694
0.0201479
0.016117
0.0126823
0.0100145
0.00824149
0.00730874
0.00714161
0.0077373
0.00924931
0.0119918
0.0162736
0.0218789
0.0274009
0.030527
0.0298673
0.0267587
0.0248182
0.0274193
0.0356012
0.0478212
0.0614439
0.0742747
0.0852056
0.0942261
0.102035
0.109418
0.116737
0.123843
0.130016
0.134522
0.13714
0.138137
0.137947
0.136963
0.135482
0.13362
0.131216
0.127897
0.123335
0.117529
0.110912
0.104257
0.0984398
0.0941967
0.0918873
0.0913055
0.0916099
0.0914581
0.089345
0.0840647
0.075224
0.0637503
0.0521051
0.0434331
0.0393033
0.0384068
0.0383745
0.0376656
0.0357956
0.0332467
0.0312821
0.0311125
0.0326444
0.034185
0.0341527
0.0323233
0.0282904
0.0218998
0.0137294
0.00580194
0.0308539
0.028833
0.0268145
0.0247916
0.0227627
0.0207352
0.018733
0.0168023
0.0150162
0.0134624
0.0122175
0.0113314
0.0108383
0.0107826
0.0112474
0.0125532
0.0150654
0.0191363
0.0248753
0.0319419
0.0395594
0.0467628
0.0527082
0.0568526
0.0589551
0.0590027
0.0570956
0.0534754
0.0485333
0.0428423
0.0370523
0.0316852
0.0270545
0.0233349
0.0206847
0.0191928
0.018972
0.0201378
0.0227754
0.0268756
0.0321192
0.0374145
0.0407042
0.0400115
0.0354452
0.0300888
0.0283267
0.0329785
0.043868
0.0584693
0.073747
0.0875527
0.0989814
0.108116
0.115505
0.121705
0.126973
0.131309
0.134533
0.136554
0.137463
0.13743
0.136637
0.135294
0.13357
0.131415
0.128476
0.124269
0.118521
0.111425
0.103639
0.0960779
0.0896569
0.0850868
0.0827177
0.0823832
0.0832914
0.0840883
0.0831687
0.0791905
0.0716681
0.0614708
0.0508695
0.04258
0.0379177
0.0359805
0.0350312
0.0338515
0.0319628
0.0296729
0.0280233
0.0281091
0.0299117
0.0319095
0.0325675
0.0315326
0.0282515
0.0223701
0.0144439
0.00598628
0.0586752
0.0558589
0.0529614
0.0499683
0.0468737
0.0436841
0.040428
0.0371692
0.0340168
0.0311256
0.0286797
0.0268655
0.0258623
0.025824
0.0269483
0.0296263
0.0340477
0.04014
0.0474803
0.0553353
0.062851
0.069293
0.0742029
0.0774136
0.0789545
0.0789016
0.0773086
0.0742848
0.0700233
0.0648324
0.0591572
0.0535166
0.0483909
0.0441471
0.0410847
0.0393764
0.0391586
0.0404493
0.0430973
0.0467073
0.0504036
0.0525488
0.051135
0.0453519
0.0372026
0.0311297
0.0313794
0.0394065
0.0534813
0.070176
0.0863248
0.100067
0.110858
0.118966
0.124959
0.129375
0.132581
0.134807
0.1362
0.136865
0.136856
0.136193
0.134962
0.133316
0.131305
0.128667
0.12486
0.119387
0.112169
0.103694
0.0948603
0.0866638
0.0799469
0.0752847
0.0729442
0.0727929
0.074154
0.0757651
0.0760077
0.0734272
0.0673914
0.0586087
0.0490934
0.0412045
0.0361302
0.0333486
0.0316499
0.0301017
0.0282505
0.0262432
0.0248865
0.0251553
0.0271389
0.0295336
0.0308716
0.0306686
0.0282094
0.0229146
0.0152769
0.00631279
0.0897466
0.0869865
0.0840876
0.0810316
0.0778077
0.0744161
0.0708777
0.0672509
0.063648
0.0602466
0.0572853
0.0550424
0.0538072
0.0538434
0.0553761
0.0585216
0.0631545
0.0688829
0.075102
0.0811341
0.0863955
0.0905184
0.0933781
0.095043
0.0956762
0.0953436
0.0940595
0.0918474
0.0887721
0.0849547
0.080608
0.0760532
0.0716753
0.0678876
0.0649645
0.0631087
0.0624174
0.0627959
0.0639079
0.0650752
0.0650757
0.0621977
0.0552077
0.0450131
0.0353583
0.0311465
0.0354189
0.0476849
0.0647067
0.0825527
0.0983469
0.11081
0.119895
0.126169
0.130342
0.133041
0.134745
0.135752
0.136224
0.136197
0.135625
0.134493
0.132901
0.130952
0.128498
0.12503
0.119905
0.112789
0.103962
0.0942695
0.0847946
0.0764895
0.0699799
0.0655811
0.0633988
0.0633233
0.0648614
0.0669685
0.0681397
0.066874
0.0623689
0.0550834
0.0467113
0.0392941
0.0339672
0.0305532
0.0282799
0.0264641
0.024694
0.0229819
0.021903
0.022302
0.0243877
0.0271067
0.0290863
0.0297193
0.0281388
0.0235043
0.0161883
0.00684983
0.113277
0.111203
0.109028
0.106733
0.104306
0.101741
0.0990452
0.0962545
0.0934458
0.0907525
0.0883679
0.0865343
0.085507
0.0855181
0.0866895
0.0889178
0.0919678
0.0954657
0.0989712
0.102079
0.104502
0.106117
0.106952
0.107149
0.106908
0.106234
0.105087
0.103467
0.10139
0.0988855
0.0960251
0.0929438
0.0898481
0.0869634
0.0844747
0.0824968
0.0810216
0.0798587
0.0785598
0.0762825
0.071731
0.0636609
0.0522079
0.040105
0.0321234
0.0324396
0.0420163
0.0583375
0.0771563
0.0946744
0.108766
0.118949
0.125739
0.129998
0.132553
0.134047
0.134925
0.135353
0.135356
0.134873
0.133846
0.132318
0.130395
0.128022
0.124774
0.119957
0.113034
0.104063
0.0938061
0.0834341
0.0740675
0.0664335
0.0607902
0.057089
0.0552124
0.0550614
0.0563827
0.0584769
0.0601081
0.0598423
0.0567283
0.0509201
0.0437293
0.036883
0.031486
0.027655
0.0249768
0.0229847
0.0213272
0.0199179
0.0191073
0.0195856
0.0216804
0.0246318
0.0272044
0.0286894
0.0280505
0.0241814
0.0172725
0.00748423
0.128959
0.127387
0.125783
0.124135
0.122433
0.120676
0.11887
0.117037
0.115217
0.113481
0.111934
0.110708
0.10994
0.109749
0.110162
0.111046
0.112227
0.11349
0.114608
0.115386
0.115701
0.115522
0.114913
0.114034
0.11311
0.11211
0.11093
0.109562
0.108009
0.106264
0.104326
0.10222
0.0999991
0.0977309
0.0954692
0.0932035
0.090801
0.0879666
0.0841366
0.078391
0.0696871
0.0577741
0.0444553
0.0338543
0.0306358
0.0371337
0.0518943
0.0708965
0.0897064
0.105323
0.116685
0.124143
0.128663
0.131256
0.132711
0.133545
0.134033
0.134148
0.133797
0.132907
0.131482
0.129604
0.127259
0.124111
0.119488
0.112732
0.103709
0.0930742
0.0820662
0.0720027
0.0638029
0.0577741
0.0536964
0.0511132
0.0496639
0.0492508
0.0498881
0.051317
0.0527238
0.0528913
0.0507997
0.0462905
0.0402515
0.0340725
0.0288018
0.0247756
0.0218568
0.0197613
0.0182174
0.0170869
0.016524
0.0170439
0.0190682
0.0221513
0.0252397
0.0275573
0.0279182
0.0249208
0.0184913
0.00834884
0.138036
0.136767
0.135503
0.134235
0.132958
0.131674
0.130389
0.129118
0.127882
0.126713
0.125655
0.124759
0.124075
0.123643
0.123456
0.123424
0.123446
0.123406
0.123185
0.122671
0.121792
0.120538
0.118984
0.117312
0.115809
0.114454
0.113087
0.11169
0.110268
0.108794
0.107219
0.105499
0.103592
0.101465
0.0990581
0.0962483
0.0927821
0.0882438
0.0819709
0.0731525
0.0614153
0.047884
0.0358608
0.0299108
0.0333528
0.0460288
0.0644212
0.083969
0.100905
0.11347
0.121704
0.126595
0.129309
0.130786
0.131622
0.132117
0.132366
0.132201
0.1315
0.13024
0.128463
0.126151
0.123021
0.118453
0.111755
0.102672
0.0917617
0.0803072
0.0698132
0.0614218
0.0555778
0.0520293
0.050067
0.0488761
0.0478934
0.0470197
0.0465178
0.0465981
0.0469779
0.0468136
0.0451475
0.0415669
0.0365309
0.0310595
0.0260832
0.0220607
0.0190424
0.0168892
0.0154293
0.014526
0.0141785
0.0147107
0.0165933
0.0197001
0.0232076
0.0263273
0.0277389
0.0257432
0.0199316
0.00938622
0.144053
0.14289
0.141746
0.140613
0.139488
0.138372
0.13727
0.136192
0.13515
0.134162
0.133246
0.132423
0.131707
0.131115
0.130631
0.130164
0.129634
0.128956
0.128044
0.12681
0.125191
0.123178
0.120854
0.118434
0.116306
0.114503
0.112814
0.111216
0.109704
0.108224
0.106682
0.104978
0.103013
0.100678