/*--------------------------------*- C++ -*----------------------------------*\
  =========                 |
  \\      /  F ield         | OpenFOAM: The Open Source CFD Toolbox
   \\    /   O peration     | Website:  https://openfoam.org
    \\  /    A nd           | Version:  10
     \\/     M anipulation  |
\*---------------------------------------------------------------------------*/
FoamFile
{
    format      ascii;
    class       volScalarField;
    location    "0.135";
    object      nut;
}
// * * * * * * * * * * * * * * * * * * * * * * * * * * * * * * * * * * * * * //

dimensions      [0 2 -1 0 0 0 0];

internalField   nonuniform List<scalar> 
6820
(
0
0
0
0
0
0
0
0
0
0
0
0
0
0
0
0
0
0
0
0
0
0
0
0
0
0
0
0
0
0
0
0
0
0
0
0
0
0
0
0
0
0
0
0
0
0
0
0
0
0
0
0
0
0
0
0
0
0
0
0
0
0
0
0
0
0
0
0
0
0
0
0
0
0
0
0
0
0
0
0
0
0
0
0
0
0
0
0
0
0
0
0
0
0
0
0
0
0
0
0
0
0
0
0
0
0
0
0
0
0
0
0
0
0
0
0
0
0
0
0
0
0
0
0
0
0
0
0
0
0
0
0
1.69454e-05
0
0
0
0
0
0
0
0
0
0
0
0
0
0
0
1.82963e-07
5.02642e-07
7.46726e-07
9.35809e-07
1.08956e-06
1.22693e-06
1.36777e-06
1.53535e-06
1.75855e-06
2.07014e-06
2.48142e-06
2.83098e-06
2.20171e-06
1.87278e-08
0
0
0
6.28765e-06
5.33994e-05
3.97519e-05
1.5919e-05
2.96e-06
0
0
0
0
0
0
0
0
0
0
0
0
0
1.81864e-08
4.32407e-08
6.94791e-08
9.78712e-08
1.28522e-07
1.56866e-07
1.8969e-07
2.03604e-07
1.51657e-07
1.04301e-07
1.98997e-07
2.85723e-07
2.41016e-08
1.6863e-07
0
0
1.54675e-05
3.85914e-05
5.50246e-05
5.08011e-05
3.64383e-05
1.85813e-05
0
0
0
0
0
0
0
0
0
0
0
7.71159e-07
1.27287e-06
1.54666e-06
1.6663e-06
1.68278e-06
1.63082e-06
1.53429e-06
1.40895e-06
1.26504e-06
1.11136e-06
9.512e-07
7.89421e-07
6.12436e-07
4.4239e-07
2.75539e-07
0
9.44299e-06
2.39091e-05
4.65175e-05
5.93022e-05
5.98197e-05
4.10728e-05
0
0
0
0
0
0
0
0
0
0
7.47732e-07
1.23419e-06
1.48057e-06
1.5651e-06
1.54289e-06
1.45218e-06
1.31941e-06
1.16274e-06
9.95108e-07
8.25617e-07
6.62004e-07
5.09152e-07
3.75271e-07
2.58727e-07
1.76326e-07
1.20664e-07
0
6.61878e-06
1.49735e-05
3.28301e-05
5.0679e-05
6.72491e-05
6.90029e-05
0
0
0
0
0
0
0
0
0
6.2048e-07
1.17393e-06
1.45646e-06
1.56022e-06
1.54845e-06
1.46334e-06
1.33342e-06
1.17839e-06
1.01192e-06
8.4361e-07
6.80041e-07
5.26764e-07
3.86995e-07
2.66159e-07
1.61895e-07
7.66801e-08
0
0
4.50807e-06
9.17088e-06
2.08329e-05
3.33008e-05
3.99458e-05
2.42312e-05
0
0
0
0
0
0
0
0
3.64292e-07
1.11629e-06
1.51019e-06
1.66639e-06
1.67176e-06
1.58474e-06
1.44301e-06
1.27127e-06
1.08647e-06
9.00333e-07
7.21012e-07
5.53878e-07
4.03209e-07
2.7106e-07
1.60874e-07
6.84537e-08
0
0
0
3.04437e-06
5.51715e-06
1.24207e-05
1.93983e-05
2.05092e-05
1.01683e-05
0
0
0
0
0
0
0
1.26728e-06
2.20421e-06
2.66484e-06
2.80033e-06
2.72588e-06
2.52471e-06
2.25339e-06
1.94903e-06
1.63599e-06
1.33062e-06
1.04378e-06
7.82594e-07
5.51162e-07
3.5237e-07
1.86508e-07
5.53063e-08
0
0
0
0
2.04447e-06
3.20195e-06
7.05552e-06
1.07198e-05
1.04448e-05
5.11076e-06
0
0
0
0
0
0
1.23415e-06
2.31852e-06
2.92771e-06
3.17964e-06
3.17735e-06
3.00368e-06
2.72171e-06
2.37787e-06
2.00574e-06
1.62943e-06
1.26626e-06
9.28339e-07
6.24233e-07
3.59214e-07
1.37176e-07
0
0
0
0
0
0
1.38743e-06
1.836e-06
3.97231e-06
6.04396e-06
5.77678e-06
3.27218e-06
0
0
0
0
8.55304e-07
2.21068e-06
3.1522e-06
3.68674e-06
3.88694e-06
3.83694e-06
3.61136e-06
3.27023e-06
2.85993e-06
2.41547e-06
1.96307e-06
1.52222e-06
1.10743e-06
7.29291e-07
3.95828e-07
1.12146e-07
0
0
0
0
0
0
0
9.57415e-07
1.03006e-06
2.16803e-06
3.35392e-06
3.14189e-06
1.84284e-06
3.21699e-07
0
0
2.89161e-07
1.25626e-06
2.08713e-06
2.65337e-06
2.94593e-06
3.00632e-06
2.88894e-06
2.64506e-06
2.31785e-06
1.94179e-06
1.54378e-06
1.14484e-06
7.61261e-07
4.0579e-07
8.85023e-08
0
0
0
0
0
0
0
0
0
6.78034e-07
5.62404e-07
1.13791e-06
1.84956e-06
1.74327e-06
1.10499e-06
4.54672e-07
1.61668e-07
3.7576e-07
9.51918e-07
1.61646e-06
2.16513e-06
2.50983e-06
2.64219e-06
2.59262e-06
2.40418e-06
2.11902e-06
1.77333e-06
1.39639e-06
1.01129e-06
6.36494e-07
2.86536e-07
0
0
0
0
0
0
0
0
0
0
0
4.95077e-07
2.8479e-07
5.25041e-07
9.27601e-07
8.27839e-07
4.40372e-07
8.9989e-08
0
8.39411e-08
4.23642e-07
8.16647e-07
1.13863e-06
1.32895e-06
1.37662e-06
1.29884e-06
1.12432e-06
8.83179e-07
6.02685e-07
3.05934e-07
1.17069e-08
0
0
0
0
0
0
0
0
0
0
0
0
0
3.74409e-07
1.14989e-07
1.4823e-07
3.40664e-07
2.13659e-07
0
0
0
0
0
2.02703e-07
4.129e-07
5.32486e-07
5.50103e-07
4.75635e-07
3.29373e-07
1.34548e-07
0
0
0
0
0
0
0
0
0
0
0
0
0
0
0
0
2.93213e-07
2.11181e-09
0
0
0
0
0
0
0
0
0
0
0
0
0
0
0
0
0
0
0
0
0
0
0
0
0
0
0
7.5093e-08
0
0
0
2.371e-07
0
0
0
0
0
0
0
0
0
0
0
0
0
0
0
0
0
0
0
0
0
0
0
0
0
0
0
3.14065e-07
7.17878e-07
5.80897e-07
0
0
1.96652e-07
0
0
0
0
0
0
0
0
0
0
0
0
0
0
0
0
0
0
0
0
0
0
0
0
0
0
4.53963e-07
9.59184e-07
1.44281e-06
1.33767e-06
0
0
1.65422e-07
0
0
0
0
0
0
0
0
0
0
0
0
0
0
0
0
0
0
0
0
0
0
0
0
1.64694e-07
6.58534e-07
1.19433e-06
1.77273e-06
2.3201e-06
2.23751e-06
1.79158e-07
0
1.39204e-07
0
0
0
0
0
0
0
0
0
0
0
0
0
0
0
0
0
0
0
0
0
0
0
3.44744e-07
8.75594e-07
1.44596e-06
2.05171e-06
2.69272e-06
3.29302e-06
3.22821e-06
1.09578e-06
0
1.14538e-07
0
0
0
0
0
0
0
0
0
0
0
0
0
0
0
0
0
0
0
0
0
0
5.0969e-07
1.0792e-06
1.68313e-06
2.31971e-06
2.98447e-06
3.67642e-06
4.31784e-06
4.26547e-06
2.07304e-06
0
8.97107e-08
0
0
0
0
0
0
0
0
0
0
0
0
0
0
0
0
0
0
0
0
2.34768e-07
8.04453e-07
1.40483e-06
2.03496e-06
2.69286e-06
3.37631e-06
4.08032e-06
4.80299e-06
5.46557e-06
5.41297e-06
3.1648e-06
0
5.98272e-08
0
0
0
0
0
0
0
0
0
0
0
0
0
0
0
0
0
0
0
3.24483e-07
9.39168e-07
1.57936e-06
2.24424e-06
2.93241e-06
3.64136e-06
4.36812e-06
5.10736e-06
5.8566e-06
6.53686e-06
6.48556e-06
4.20393e-06
0
2.83032e-08
0
0
0
0
0
0
0
0
0
0
0
0
0
0
0
0
0
1.42315e-07
7.65083e-07
1.40677e-06
2.06759e-06
2.74735e-06
3.4452e-06
4.15951e-06
4.88746e-06
5.62578e-06
6.369e-06
7.11413e-06
7.78247e-06
7.71145e-06
5.39082e-06
0
0
0
0
0
0
0
0
0
0
0
0
0
0
0
0
0
0
9.94075e-08
7.74162e-07
1.46317e-06
2.1661e-06
2.8827e-06
3.61223e-06
4.35319e-06
5.10342e-06
5.85975e-06
6.61868e-06
7.37471e-06
8.12467e-06
8.79111e-06
8.71383e-06
6.38866e-06
0
0
0
0
0
0
0
0
0
0
0
0
0
0
0
0
1.51968e-07
8.34682e-07
1.52324e-06
2.21798e-06
2.91947e-06
3.62821e-06
4.34438e-06
5.0674e-06
5.79593e-06
6.52793e-06
7.26035e-06
7.98964e-06
8.71035e-06
9.41898e-06
1.00397e-05
9.92434e-06
7.57967e-06
0
0
0
0
0
0
0
0
0
0
0
0
0
0
0
0
6.44753e-07
1.38896e-06
2.1345e-06
2.88138e-06
3.62969e-06
4.37934e-06
5.12988e-06
5.88036e-06
6.62919e-06
7.3742e-06
8.11235e-06
8.84019e-06
9.55268e-06
1.02467e-05
1.08491e-05
1.07257e-05
8.41593e-06
0
0
0
0
0
0
0
0
0
0
0
0
0
5.561e-07
1.27856e-06
1.99177e-06
2.69621e-06
3.39313e-06
4.08418e-06
4.7712e-06
5.45543e-06
6.13759e-06
6.81782e-06
7.49556e-06
8.16947e-06
8.83756e-06
9.49692e-06
1.01442e-05
1.07744e-05
1.13843e-05
1.19039e-05
1.17268e-05
9.43661e-06
0
0
0
0
0
0
0
0
0
0
0
0
9.31883e-08
8.76188e-07
1.6453e-06
2.39973e-06
3.1404e-06
3.86852e-06
4.58529e-06
5.2918e-06
5.98873e-06
6.67638e-06
7.35459e-06
8.02273e-06
8.67963e-06
9.32365e-06
9.95247e-06
1.05634e-05
1.11527e-05
1.17178e-05
1.21945e-05
1.20111e-05
9.83481e-06
0
9.58158e-08
0
0
0
0
0
1.31353e-07
8.78735e-07
1.59513e-06
2.27443e-06
2.91621e-06
3.52378e-06
4.10319e-06
4.66069e-06
5.20188e-06
5.7314e-06
6.25261e-06
6.76783e-06
7.27851e-06
7.78534e-06
8.2884e-06
8.78727e-06
9.28111e-06
9.76866e-06
1.02482e-05
1.07176e-05
1.11741e-05
1.16141e-05
1.2035e-05
1.23791e-05
1.21355e-05
1.00965e-05
0
0
0
0
0
0
0
5.87619e-07
1.31427e-06
1.97127e-06
2.57418e-06
3.13403e-06
3.65941e-06
4.15855e-06
4.63772e-06
5.10126e-06
5.55194e-06
5.99129e-06
6.4199e-06
6.83769e-06
7.24428e-06
7.63913e-06
8.02179e-06
8.39193e-06
8.74932e-06
9.09381e-06
9.42507e-06
9.74271e-06
1.00456e-05
1.03335e-05
1.05624e-05
1.03307e-05
8.68942e-06
1.58865e-06
6.13362e-06
5.84358e-06
6.56114e-06
7.19739e-06
7.36159e-06
7.3611e-06
7.30016e-06
7.17806e-06
7.02175e-06
6.86386e-06
6.72212e-06
6.60666e-06
6.52381e-06
6.47563e-06
6.46106e-06
6.47725e-06
6.52038e-06
6.58603e-06
6.66968e-06
6.767e-06
6.8742e-06
6.98812e-06
7.10634e-06
7.22707e-06
7.34901e-06
7.47108e-06
7.5924e-06
7.71173e-06
7.82837e-06
7.9124e-06
7.6954e-06
6.53707e-06
0
9.12246e-06
9.82197e-06
9.98144e-06
9.38467e-06
8.48277e-06
7.70274e-06
7.05112e-06
6.48547e-06
6.0112e-06
5.63369e-06
5.34371e-06
5.12867e-06
4.97623e-06
4.87418e-06
4.81166e-06
4.78001e-06
4.77275e-06
4.78508e-06
4.81347e-06
4.85525e-06
4.90822e-06
4.97047e-06
5.04016e-06
5.11548e-06
5.19459e-06
5.27566e-06
5.35699e-06
5.43689e-06
5.51433e-06
5.56958e-06
5.42651e-06
4.6632e-06
5.77884e-05
4.00001e-05
2.63917e-05
1.93471e-05
1.37297e-05
9.14926e-06
5.69558e-06
3.07514e-06
1.09761e-06
0
0
0
0
0
0
0
0
0
0
0
0
0
0
1.97229e-07
4.37063e-07
6.54796e-07
8.50028e-07
1.02274e-06
1.17301e-06
1.30133e-06
1.39808e-06
1.39199e-06
1.13717e-06
0
0
0
0
0
0
0
0
0
0
0
0
0
0
0
0
0
0
0
0
0
0
0
0
0
0
0
0
0
0
0
0
0
3.8059e-08
0
0
0
0
0
0
0
0
0
0
0
0
0
0
0
0
0
0
0
0
0
0
0
0
0
0
0
0
0
0
0
0
1.98485e-08
0
0
0
0
0
0
0
0
0
0
0
0
0
0
0
0
0
0
0
0
0
0
0
0
0
0
0
0
0
0
0
0
8.54563e-09
0
0
0
0
0
0
0
0
0
0
0
0
0
0
0
0
0
0
0
0
0
0
0
0
0
0
0
0
0
0
0
0
0
0
5.93631e-07
2.25447e-07
0
0
0
0
0
0
0
0
6.46035e-06
1.60029e-05
2.31524e-05
1.7813e-05
1.67605e-06
0
0
5.99909e-07
2.39395e-06
2.69225e-06
1.45092e-06
0
0
0
0
0
0
0
0
6.90637e-06
1.89242e-05
3.76611e-05
7.10768e-05
8.41819e-05
0
0
0
0
0
9.58538e-06
1.84042e-05
1.99617e-05
1.70473e-05
1.21438e-05
6.48458e-06
1.35907e-06
0
0
0
0
0
0
0
0
0
1.30252e-05
3.00933e-05
3.56951e-05
3.31017e-05
2.93657e-05
2.91404e-05
2.95535e-05
2.49704e-05
1.96893e-05
1.61395e-05
1.35526e-05
1.13578e-05
9.55311e-06
8.32213e-06
7.76781e-06
7.83016e-06
8.28784e-06
8.79365e-06
8.94125e-06
8.36606e-06
6.85103e-06
4.38934e-06
1.19829e-06
0
0
0
0
8.50063e-06
1.96852e-05
2.65349e-05
3.04018e-05
3.18529e-05
3.10634e-05
2.75747e-05
2.10491e-05
1.20049e-05
1.07538e-06
0
0
0
0
0
0
0
0
1.08335e-06
1.24429e-06
0
0
0
0
0
0
0
0
6.48998e-06
1.86115e-05
2.81238e-05
1.65991e-05
0
0
0
1.79432e-06
5.01126e-06
4.76527e-06
2.56167e-06
5.61781e-07
0
0
0
0
0
0
0
2.39948e-06
1.87684e-05
4.08948e-05
8.0914e-05
0.000115752
0
0
0
0
2.5377e-06
1.71517e-05
2.30616e-05
2.21371e-05
1.78976e-05
1.22207e-05
6.21733e-06
9.26574e-07
0
0
0
0
0
0
0
0
0
1.44665e-05
2.64926e-05
3.02331e-05
2.93193e-05
2.9428e-05
3.2521e-05
3.22781e-05
2.77666e-05
2.32923e-05
1.95798e-05
1.63664e-05
1.36559e-05
1.15972e-05
1.03024e-05
9.7684e-06
9.86699e-06
1.03564e-05
1.09039e-05
1.11327e-05
1.07006e-05
9.39693e-06
7.22067e-06
4.41523e-06
1.49674e-06
0
0
2.41134e-06
1.33221e-05
2.31065e-05
2.92137e-05
3.26439e-05
3.37494e-05
3.24453e-05
2.83758e-05
2.14125e-05
1.20649e-05
8.65433e-07
0
0
0
0
0
0
0
0
8.6811e-07
1.48203e-06
7.62412e-07
0
0
0
0
0
0
0
6.2683e-06
2.05322e-05
3.5066e-05
1.37741e-05
0
0
0
4.82935e-06
7.74741e-06
5.60869e-06
2.64528e-06
6.73327e-07
0
0
0
0
0
0
0
0
8.05577e-06
3.30139e-05
7.3103e-05
9.93426e-05
0
0
0
0
1.33974e-05
2.30878e-05
2.47567e-05
2.19333e-05
1.70069e-05
1.11463e-05
5.37388e-06
5.56421e-07
0
0
0
0
0
0
0
0
0
1.22932e-05
2.11738e-05
2.46931e-05
2.64483e-05
3.07388e-05
3.51496e-05
3.41145e-05
3.02592e-05
2.60383e-05
2.19608e-05
1.83203e-05
1.53727e-05
1.32557e-05
1.19911e-05
1.15039e-05
1.16357e-05
1.21494e-05
1.27391e-05
1.3064e-05
1.28122e-05
1.17844e-05
9.97311e-06
7.61841e-06
5.24564e-06
3.70504e-06
4.04714e-06
7.40825e-06
1.72434e-05
2.56309e-05
3.08199e-05
3.37258e-05
3.45318e-05
3.29024e-05
2.84668e-05
2.12499e-05
1.18258e-05
6.53715e-07
0
0
0
0
0
0
0
0
2.05679e-07
6.62279e-07
1.11386e-06
3.24338e-07
0
0
0
0
0
0
5.01428e-06
1.95047e-05
4.10333e-05
2.16648e-05
0
0
1.95928e-06
9.25596e-06
8.41787e-06
4.68704e-06
1.88693e-06
5.04219e-07
0
0
0
0
0
0
0
0
0
4.96684e-06
2.22397e-05
1.51314e-05
0
0
0
1.14428e-05
2.16381e-05
2.50652e-05
2.38411e-05
2.00887e-05
1.50357e-05
9.46546e-06
4.32463e-06
2.73938e-07
0
0
0
0
0
0
0
0
0
9.39235e-06
1.63679e-05
2.07092e-05
2.59613e-05
3.32745e-05
3.70818e-05
3.58888e-05
3.24134e-05
2.80711e-05
2.36853e-05
1.98406e-05
1.68395e-05
1.47592e-05
1.35553e-05
1.31173e-05
1.32807e-05
1.3823e-05
1.44658e-05
1.49008e-05
1.48454e-05
1.41157e-05
1.27005e-05
1.08192e-05
8.96235e-06
7.89148e-06
8.4722e-06
1.19232e-05
2.03564e-05
2.7368e-05
3.16426e-05
3.39943e-05
3.4495e-05
3.26745e-05
2.81168e-05
2.08555e-05
1.1488e-05
4.65556e-07
0
0
0
0
0
0
0
0
2.03769e-08
6.4485e-08
6.582e-07
2.91497e-07
0
0
0
0
0
0
1.83217e-06
1.36528e-05
3.28591e-05
2.91191e-05
0
0
9.65578e-06
1.02637e-05
6.22877e-06
2.83211e-06
1.35113e-06
6.82379e-07
0
0
0
0
0
0
0
0
0
0
0
0
5.35184e-07
4.73365e-06
1.26064e-05
1.96427e-05
2.32774e-05
2.34375e-05
2.10991e-05
1.7224e-05
1.25077e-05
7.62189e-06
3.35542e-06
8.61481e-08
0
0
0
0
0
0
0
0
0
6.92806e-06
1.32171e-05
1.96557e-05
2.8282e-05
3.60462e-05
3.8892e-05
3.77144e-05
3.41717e-05
2.96051e-05
2.50626e-05
2.11837e-05
1.82267e-05
1.62142e-05
1.50703e-05
1.46755e-05
1.48713e-05
1.54519e-05
1.61634e-05
1.67258e-05
1.68803e-05
1.6456e-05
1.54369e-05
1.40163e-05
1.26271e-05
1.19189e-05
1.26212e-05
1.58835e-05
2.28069e-05
2.85488e-05
3.20115e-05
3.38517e-05
3.407e-05
3.21286e-05
2.75609e-05
2.0355e-05
1.11137e-05
2.96382e-07
0
0
0
0
0
0
0
0
1.02875e-06
4.26701e-06
2.53456e-07
0
0
0
0
0
0
0
0
7.17111e-06
2.19658e-05
1.77309e-05
3.80451e-06
1.05328e-05
1.04302e-05
6.54037e-06
3.11544e-06
1.95594e-06
1.7891e-06
9.51136e-07
0
0
0
0
0
0
0
0
0
0
0
0
3.83841e-06
9.94927e-06
1.53594e-05
1.90619e-05
2.04887e-05
1.97446e-05
1.73258e-05
1.38406e-05
9.88058e-06
6.00425e-06
2.66881e-06
0
0
0
0
0
0
0
0
0
0
5.61662e-06
1.27548e-05
2.18141e-05
3.1645e-05
3.83554e-05
4.06227e-05
3.91881e-05
3.54206e-05
3.07485e-05
2.62222e-05
2.24205e-05
1.95481e-05
1.7605e-05
1.65127e-05
1.61569e-05
1.63883e-05
1.70165e-05
1.78102e-05
1.85147e-05
1.88908e-05
1.87745e-05
1.81392e-05
1.71454e-05
1.61602e-05
1.57219e-05
1.64462e-05
1.93178e-05
2.48107e-05
2.93958e-05
3.2141e-05
3.35221e-05
3.34745e-05
3.14355e-05
2.6915e-05
1.9836e-05
1.07625e-05
1.59003e-07
0
0
0
0
0
0
2.72249e-07
5.08358e-07
1.00493e-06
9.3766e-07
3.22385e-07
0
0
0
0
0
0
0
0
0
0
4.26644e-06
8.21807e-06
7.73772e-06
4.9551e-06
2.43054e-06
2.26604e-06
2.74381e-06
2.30142e-06
1.16315e-06
0
0
0
0
0
0
0
0
0
0
0
0
3.09947e-06
8.33773e-06
1.25843e-05
1.52497e-05
1.6114e-05
1.53014e-05
1.32459e-05
1.05909e-05
7.83016e-06
5.07385e-06
2.42371e-06
0
0
0
0
0
0
0
0
0
0
5.83757e-06
1.47647e-05
2.51286e-05
3.43847e-05
4.02025e-05
4.1889e-05
4.01038e-05
3.62355e-05
3.16341e-05
2.72424e-05
2.35646e-05
2.0781e-05
1.88988e-05
1.78517e-05
1.7533e-05
1.78018e-05
1.84824e-05
1.93665e-05
2.02235e-05
2.08307e-05
2.10249e-05
2.07614e-05
2.01594e-05
1.95147e-05
1.92615e-05
1.99153e-05
2.22668e-05
2.64403e-05
2.99465e-05
3.20395e-05
3.3024e-05
3.2762e-05
3.06662e-05
2.62232e-05
1.92979e-05
1.04201e-05
5.3821e-08
0
0
0
0
0
0
1.55338e-07
1.56435e-07
2.06345e-07
1.08507e-07
0
0
0
0
0
0
0
0
0
0
0
1.94087e-06
2.82772e-06
1.97353e-06
1.46632e-06
2.59936e-06
3.47015e-06
3.49846e-06
2.76523e-06
1.47686e-06
0
0
0
0
0
0
0
0
0
0
0
0
2.0648e-06
5.88035e-06
9.033e-06
1.1007e-05
1.15955e-05
1.09734e-05
9.76566e-06
8.57864e-06
7.18036e-06
5.13041e-06
2.62125e-06
0
0
0
0
0
0
0
0
0
0
6.86382e-06
1.7214e-05
2.77284e-05
3.63075e-05
4.13547e-05
4.25071e-05
4.05512e-05
3.67718e-05
3.23597e-05
2.81475e-05
2.45961e-05
2.18919e-05
2.00634e-05
1.90573e-05
1.87725e-05
1.90751e-05
1.98058e-05
2.0781e-05
2.17954e-05
2.26403e-05
2.31475e-05
2.32457e-05
2.30046e-05
2.26444e-05
2.25017e-05
2.30001e-05
2.47475e-05
2.77156e-05
3.02223e-05
3.1715e-05
3.23529e-05
3.19197e-05
2.98047e-05
2.5478e-05
1.87491e-05
1.00992e-05
0
0
0
0
0
0
0
0
0
0
0
0
0
0
0
0
0
0
0
0
0
0
4.67205e-07
1.12789e-06
2.00865e-06
3.04309e-06
3.92117e-06
4.38767e-06
4.2983e-06
3.52224e-06
2.03362e-06
2.37283e-08
0
0
0
0
0
0
0
0
0
0
0
1.29981e-06
3.78884e-06
5.89649e-06
7.24304e-06
7.79835e-06
8.0587e-06
8.58435e-06
8.90575e-06
8.07142e-06
5.92777e-06
3.06884e-06
0
0
0
0
0
0
0
0
0
0
7.77822e-06
1.89276e-05
2.93362e-05
3.7295e-05
4.17393e-05
4.26224e-05
4.07149e-05
3.71428e-05
3.29578e-05
2.89208e-05
2.5482e-05
2.28479e-05
2.10674e-05
2.00965e-05
1.98372e-05
2.01628e-05
2.09328e-05
2.1992e-05
2.31619e-05
2.42467e-05
2.50681e-05
2.55198e-05
2.56136e-05
2.54905e-05
2.53964e-05
2.56693e-05
2.67669e-05
2.86364e-05
3.02204e-05
3.11558e-05
3.14923e-05
3.09388e-05
2.88535e-05
2.46788e-05
1.81747e-05
9.78413e-06
0
0
0
0
0
0
0
0
0
0
0
0
0
0
0
0
0
0
0
0
0
0
7.1329e-07
1.7365e-06
2.86088e-06
3.96191e-06
4.93851e-06
5.61183e-06
5.64361e-06
4.73341e-06
2.85044e-06
2.66502e-07
0
0
0
0
0
0
0
0
0
0
0
8.36376e-07
2.36746e-06
3.83497e-06
5.22863e-06
6.81438e-06
8.74294e-06
1.04609e-05
1.09706e-05
9.69346e-06
6.94746e-06
3.5568e-06
0
0
0
0
0
0
0
0
0
0
8.34489e-06
1.98276e-05
2.99868e-05
3.74766e-05
4.16103e-05
4.2461e-05
4.07201e-05
3.73852e-05
3.34145e-05
2.95315e-05
2.61903e-05
2.36171e-05
2.18765e-05
2.09299e-05
2.06812e-05
2.10122e-05
2.18036e-05
2.29311e-05
2.42464e-05
2.5567e-05
2.67004e-05
2.74984e-05
2.79068e-05
2.79846e-05
2.78922e-05
2.78901e-05
2.8329e-05
2.92066e-05
2.99497e-05
3.03705e-05
3.04435e-05
2.98116e-05
2.78005e-05
2.38201e-05
1.75792e-05
9.47701e-06
0
0
0
0
0
0
0
0
0
0
0
0
0
0
0
0
0
0
0
0
0
0
9.62561e-07
2.25831e-06
3.69564e-06
5.22389e-06
6.64419e-06
7.56253e-06
7.53111e-06
6.27769e-06
3.85226e-06
5.95175e-07
0
0
0
0
0
0
0
0
0
0
0
1.04268e-06
2.74816e-06
4.69754e-06
6.9966e-06
9.57804e-06
1.20299e-05
1.35638e-05
1.33744e-05
1.12437e-05
7.80338e-06
3.96137e-06
0
0
0
0
0
0
0
0
0
0
8.62938e-06
2.0123e-05
3.00064e-05
3.72104e-05
4.12288e-05
4.21537e-05
4.06041e-05
3.74882e-05
3.37031e-05
2.99505e-05
2.66896e-05
2.41633e-05
2.24483e-05
2.15098e-05
2.12531e-05
2.1569e-05
2.23595e-05
2.35331e-05
2.49743e-05
2.65164e-05
2.79525e-05
2.90873e-05
2.97946e-05
3.00486e-05
2.99282e-05
2.96258e-05
2.94268e-05
2.942e-05
2.94068e-05
2.93571e-05
2.92034e-05
2.85374e-05
2.66509e-05
2.29062e-05
1.69567e-05
9.1675e-06
0
0
0
0
0
0
0
0
0
0
0
0
0
0
0
0
0
0
0
0
0
0
1.3629e-06
3.16801e-06
5.20845e-06
7.28411e-06
9.01773e-06
9.94224e-06
9.64749e-06
7.94235e-06
4.94064e-06
1.01258e-06
0
0
0
0
0
0
0
0
0
0
0
1.80787e-06
4.49308e-06
7.3527e-06
1.03547e-05
1.32509e-05
1.55025e-05
1.63549e-05
1.52303e-05
1.22499e-05
8.3115e-06
4.26108e-06
0
0
0
0
0
0
0
0
0
0
8.7309e-06
2.00716e-05
2.97065e-05
3.67315e-05
4.07134e-05
4.17347e-05
4.03594e-05
3.74313e-05
3.37999e-05
3.01478e-05
2.69411e-05
2.44395e-05
2.27315e-05
2.17845e-05
2.15041e-05
2.17884e-05
2.25582e-05
2.37525e-05
2.529e-05
2.70249e-05
2.87403e-05
3.01941e-05
3.11849e-05
3.16001e-05
3.14399e-05
3.08378e-05
3.0047e-05
2.92683e-05
2.85913e-05
2.81224e-05
2.77778e-05
2.71153e-05
2.53982e-05
2.19345e-05
1.63102e-05
8.85404e-06
2.74295e-08
0
0
0
0
0
0
0
0
0
0
0
0
0
0
0
0
0
0
0
0
0
2.04891e-06
4.54845e-06
7.18648e-06
9.63746e-06
1.14653e-05
1.22325e-05
1.16096e-05
9.4777e-06
5.97969e-06
1.48613e-06
0
0
0
0
0
0
0
0
0
0
0
2.62516e-06
6.2676e-06
9.89541e-06
1.3339e-05
1.62468e-05
1.80485e-05
1.80987e-05
1.61e-05
1.25325e-05
8.48735e-06
4.52553e-06
0
0
0
0
0
0
0
0
0
0
8.71206e-06
1.98259e-05
2.92386e-05
3.61305e-05
4.00954e-05
4.12026e-05
3.99744e-05
3.71977e-05
3.36768e-05
3.0081e-05
2.68909e-05
2.43879e-05
2.26714e-05
2.17084e-05
2.14024e-05
2.16546e-05
2.23969e-05
2.35901e-05
2.51849e-05
2.70636e-05
2.90109e-05
3.07465e-05
3.19963e-05
3.2561e-05
3.23634e-05
3.14857e-05
3.01723e-05
2.87397e-05
2.74982e-05
2.66703e-05
2.6175e-05
2.55534e-05
2.40504e-05
2.09127e-05
1.56443e-05
8.53663e-06
8.10389e-08
0
0
0
0
0
0
0
0
0
0
0
0
0
0
0
0
0
0
0
0
0
2.78287e-06
5.88477e-06
8.94143e-06
1.15754e-05
1.33691e-05
1.39548e-05
1.30785e-05
1.06605e-05
6.83887e-06
1.96348e-06
0
0
0
0
0
0
0
0
0
0
0
3.33806e-06
7.64038e-06
1.17229e-05
1.53165e-05
1.80057e-05
1.92346e-05
1.85218e-05
1.58967e-05
1.21919e-05
8.53238e-06
4.87438e-06
0
0
0
0
0
0
0
0
0
0
8.64209e-06
1.94895e-05
2.86827e-05
3.54449e-05
3.9383e-05
4.05547e-05
3.9439e-05
3.67616e-05
3.32865e-05
2.96861e-05
2.64707e-05
2.39474e-05
2.22232e-05
2.12605e-05
2.0957e-05
2.12096e-05
2.1946e-05
2.31305e-05
2.47365e-05
2.66826e-05
2.87769e-05
3.07215e-05
3.2182e-05
3.28764e-05
3.26511e-05
3.15405e-05
2.97939e-05
2.78321e-05
2.61325e-05
2.50138e-05
2.44099e-05
2.38595e-05
2.26053e-05
1.98391e-05
1.49651e-05
8.21862e-06
1.38444e-07
0
0
0
0
0
0
0
0
0
0
0
0
0
0
0
0
0
0
0
0
0
3.30054e-06
6.72638e-06
9.9659e-06
1.26441e-05
1.43868e-05
1.48817e-05
1.39137e-05
1.14061e-05
7.46579e-06
2.40804e-06
0
0
0
0
0
0
0
0
0
0
0
3.87836e-06
8.464e-06
1.2658e-05
1.61243e-05
1.84137e-05
1.90287e-05
1.771e-05
1.48559e-05
1.15982e-05
8.7683e-06
5.40967e-06
0
0
0
0
0
0
0
0
0
0
8.57426e-06
1.91218e-05
2.80748e-05
3.46878e-05
3.85788e-05
3.97859e-05
3.87292e-05
3.60695e-05
3.25511e-05
2.88785e-05
2.56081e-05
2.30717e-05
2.13764e-05
2.04747e-05
2.02532e-05
2.05913e-05
2.13884e-05
2.2583e-05
2.41516e-05
2.60562e-05
2.81592e-05
3.0183e-05
3.17598e-05
3.25363e-05
3.22844e-05
3.09911e-05
2.8912e-05
2.65506e-05
2.45069e-05
2.31765e-05
2.2513e-05
2.20621e-05
2.10812e-05
1.87248e-05
1.42858e-05
7.91348e-06
2.06862e-07
0
0
0
0
0
0
0
0
0
0
0
0
0
0
0
0
0
0
0
0
1.16277e-07
3.52933e-06
7.00428e-06
1.02394e-05
1.28873e-05
1.46105e-05
1.51238e-05
1.42173e-05
1.17902e-05
7.90035e-06
2.81726e-06
0
0
0
0
0
0
0
0
0
0
0
4.21957e-06
8.75432e-06
1.27692e-05
1.58864e-05
1.76562e-05
1.76979e-05
1.60464e-05
1.35045e-05
1.13094e-05
9.46571e-06
6.15664e-06
0
0
0
0
0
0
0
0
0
0
8.52669e-06
1.87383e-05
2.74199e-05
3.38594e-05
3.76785e-05
3.88724e-05
3.77843e-05
3.50254e-05
3.13623e-05
2.75677e-05
2.42523e-05
2.17626e-05
2.0194e-05
1.94816e-05
1.94911e-05
2.00639e-05
2.10399e-05
2.22964e-05
2.3786e-05
2.55122e-05
2.74262e-05
2.93254e-05
3.08549e-05
3.16152e-05
3.13101e-05
2.98763e-05
2.75651e-05
2.49332e-05
2.26601e-05
2.11987e-05
2.05237e-05
2.01921e-05
1.94922e-05
1.75722e-05
1.36179e-05
7.64103e-06
2.93718e-07
0
0
0
0
0
0
0
0
0
0
0
0
0
0
0
0
0
0
0
0
2.3368e-07
3.53233e-06
6.88166e-06
1.00044e-05
1.25868e-05
1.43181e-05
1.49221e-05
1.41758e-05
1.19405e-05
8.21379e-06
3.20793e-06
0
0
0
0
0
0
0
0
0
0
0
4.39682e-06
8.64586e-06
1.22747e-05
1.48896e-05
1.60911e-05
1.56978e-05
1.41281e-05
1.25488e-05
1.17877e-05
1.06588e-05
7.067e-06
1.63723e-07
0
0
0
0
0
0
0
0
0
8.49801e-06
1.83352e-05
2.67136e-05
3.29528e-05
3.66557e-05
3.7744e-05
3.64854e-05
3.34891e-05
2.96029e-05
2.56951e-05
2.24218e-05
2.01223e-05
1.88632e-05
1.8548e-05
1.90004e-05
1.99972e-05
2.1294e-05
2.26851e-05
2.40746e-05
2.54894e-05
2.69837e-05
2.84859e-05
2.9722e-05
3.02938e-05
2.98557e-05
2.82915e-05
2.58307e-05
2.30471e-05
2.06566e-05
1.91482e-05
1.85164e-05
1.83232e-05
1.7893e-05
1.64073e-05
1.29771e-05
7.42529e-06
4.1463e-07
0
0
0
0
0
0
0
0
0
0
0
0
0
0
0
0
0
0
0
0
3.24115e-07
3.4102e-06
6.55656e-06
9.51785e-06
1.20139e-05
1.37576e-05
1.44789e-05
1.39396e-05
1.19601e-05
8.47062e-06
3.60923e-06
0
0
0
0
0
0
0
0
0
0
2.80921e-07
4.46223e-06
8.27752e-06
1.13866e-05
1.34172e-05
1.4095e-05
1.35458e-05
1.26343e-05
1.25541e-05
1.30637e-05
1.21729e-05
8.07239e-06
4.413e-07
0
0
0
0
0
0
0
0
0
8.4805e-06
1.7903e-05
2.59427e-05
3.19331e-05
3.54247e-05
3.6253e-05
3.46523e-05
3.13077e-05
2.72031e-05
2.33034e-05
2.02757e-05
1.84148e-05
1.77293e-05
1.80607e-05
1.91611e-05
2.07292e-05
2.24442e-05
2.4029e-05
2.53308e-05
2.63655e-05
2.72607e-05
2.80942e-05
2.87421e-05
2.88823e-05
2.81636e-05
2.64254e-05
2.38568e-05
2.10081e-05
1.8586e-05
1.70924e-05
1.65469e-05
1.6513e-05
1.63346e-05
1.52606e-05
1.23879e-05
7.31404e-06
6.11579e-07
0
0
0
0
0
0
0
0
0
0
0
0
0
0
0
0
0
0
0
0
3.83742e-07
3.21661e-06
6.12469e-06
8.89607e-06
1.12848e-05
1.30301e-05
1.38726e-05
1.35651e-05
1.189e-05
8.70427e-06
4.04965e-06
0
0
0
0
0
0
0
0
0
0
7.10085e-07
4.43912e-06
7.72363e-06
1.02355e-05
1.16806e-05
1.201e-05
1.17655e-05
1.21116e-05
1.35652e-05
1.48119e-05
1.37994e-05
9.12738e-06
8.25041e-07
0
0
0
0
0
0
0
0
0
8.46219e-06
1.74208e-05
2.50589e-05
3.06937e-05
3.38038e-05
3.41733e-05
3.20913e-05
2.84017e-05
2.42449e-05
2.06369e-05
1.81864e-05
1.70826e-05
1.72278e-05
1.83718e-05
2.01954e-05
2.23503e-05
2.4482e-05
2.62751e-05
2.75273e-05
2.82122e-05
2.84688e-05
2.84793e-05
2.82932e-05
2.77412e-05
2.65401e-05
2.45209e-05
2.18267e-05
1.89495e-05
1.65434e-05
1.50974e-05
1.46669e-05
1.48231e-05
1.48853e-05
1.41765e-05
1.1858e-05
7.31845e-06
8.97223e-07
0
0
0
0
0
0
0
0
0
0
0
0
0
0
0
0
0
0
0
0
4.11742e-07
2.97518e-06
5.62854e-06
8.19272e-06
1.04562e-05
1.21877e-05
1.31462e-05
1.30846e-05
1.17568e-05
8.9456e-06
4.56958e-06
0
0
0
0
0
0
0
0
0
0
1.11788e-06
4.32647e-06
7.01846e-06
8.91553e-06
9.88223e-06
1.02106e-05
1.08432e-05
1.2674e-05
1.51781e-05
1.66712e-05
1.53963e-05
1.02225e-05
1.32764e-06
0
0
0
0
0
0
0
0
0
8.41738e-06
1.6827e-05
2.39323e-05
2.90174e-05
3.1523e-05
3.12766e-05
2.8728e-05
2.49229e-05
2.11044e-05
1.8223e-05
1.67113e-05
1.65824e-05
1.7625e-05
1.95358e-05
2.19799e-05
2.46107e-05
2.7076e-05
2.9049e-05
3.02921e-05
3.07243e-05
3.04435e-05
2.9664e-05
2.85628e-05
2.71477e-05
2.5275e-05
2.28287e-05
1.99258e-05
1.69834e-05
1.457e-05
1.31369e-05
1.27996e-05
1.31953e-05
1.35417e-05
1.31793e-05
1.14158e-05
7.50381e-06
1.37984e-06
0
0
0
0
0
0
0
0
0
0
0
0
0
0
0
0
0
0
0
0
4.0934e-07
2.69576e-06
5.08486e-06
7.42854e-06
9.54921e-06
1.12481e-05
1.23102e-05
1.25018e-05
1.15641e-05
9.21568e-06
5.22695e-06
0
0
0
0
0
0
0
0
0
0
1.47408e-06
4.11647e-06
6.19664e-06
7.54585e-06
8.29026e-06
9.11578e-06
1.09776e-05
1.39412e-05
1.69144e-05
1.83852e-05
1.68931e-05
1.13827e-05
1.96757e-06
0
0
0
0
0
0
0
0
0
8.28358e-06
1.59796e-05
2.23256e-05
2.66126e-05
2.83497e-05
2.75354e-05
2.48442e-05
2.14565e-05
1.85292e-05
1.67419e-05
1.62655e-05
1.70016e-05
1.87432e-05
2.12132e-05
2.40932e-05
2.70494e-05
2.97403e-05
3.18404e-05
3.30927e-05
3.33663e-05
3.27038e-05
3.12967e-05
2.93777e-05
2.70915e-05
2.44545e-05
2.14571e-05
1.8232e-05
1.51335e-05
1.26315e-05
1.1114e-05
1.07615e-05
1.1407e-05
1.21177e-05
1.21173e-05
1.09177e-05
7.74692e-06
2.04671e-06
0
0
0
0
0
0
0
0
0
0
0
0
0
0
0
0
0
0
0
0
3.82633e-07
2.39104e-06
4.51224e-06
6.62675e-06
8.5894e-06
1.02352e-05
1.13814e-05
1.18216e-05
1.13081e-05
9.52369e-06
6.08838e-06
7.37081e-07
0
0
0
0
0
0
0
0
0
1.74791e-06
3.80614e-06
5.31704e-06
6.3056e-06
7.23805e-06
8.96251e-06
1.18639e-05
1.53708e-05
1.84147e-05
1.97957e-05
1.82678e-05
1.26669e-05
2.78163e-06
0
0
0
0
0
0
0
0
5.07766e-07
7.93924e-06
1.46604e-05
1.99795e-05
2.33136e-05
2.43918e-05
2.34708e-05
2.13537e-05
1.90483e-05
1.72951e-05
1.64448e-05
1.66295e-05
1.78672e-05
2.00355e-05
2.28698e-05
2.60379e-05
2.92017e-05
3.20268e-05
3.41965e-05
3.54469e-05
3.56203e-05
3.47089e-05
3.28595e-05
3.03076e-05
2.72738e-05
2.39027e-05
2.03023e-05
1.66543e-05
1.32781e-05
1.0553e-05
8.78356e-06
8.20242e-06
9.09606e-06
1.03075e-05
1.07172e-05
1.01276e-05
7.85389e-06
2.94042e-06
0
0
0
0
0
0
0
0
0
0
0
0
0
0
0
0
0
0
0
0
3.33864e-07
2.06983e-06
3.92561e-06
5.80692e-06
7.59832e-06
9.16815e-06
1.03704e-05
1.10387e-05
1.09665e-05
9.85709e-06
7.24818e-06
2.37824e-06
0
0
0
0
0
0
0
0
1.4554e-08
1.90643e-06
3.4062e-06
4.48333e-06
5.43847e-06
6.95689e-06
9.53705e-06
1.29597e-05
1.65417e-05
1.94573e-05
2.08091e-05
1.95185e-05
1.41648e-05
3.84238e-06
0
0
0
0
0
0
0
0
9.56552e-07
7.23656e-06
1.27196e-05
1.69054e-05
1.95048e-05
2.05687e-05
2.04644e-05
1.96382e-05
1.84479e-05
1.72863e-05
1.66632e-05
1.70056e-05
1.84716e-05
2.09285e-05
2.40429e-05
2.74296e-05
3.07333e-05
3.36245e-05
3.57983e-05
3.70079e-05
3.70906e-05
3.60052e-05
3.38537e-05
3.08484e-05
2.72378e-05
2.32461e-05
1.90765e-05
1.4969e-05
1.12333e-05
8.17121e-06
5.96414e-06
4.68598e-06
5.66475e-06
7.77999e-06
8.73175e-06
8.77641e-06
7.4335e-06
3.70365e-06
0
0
0
0
0
0
4.21483e-08
0
0
0
0
0
0
0
0
0
0
0
0
0
2.75851e-07
1.74687e-06
3.34208e-06
4.98852e-06
6.59677e-06
8.06584e-06
9.28616e-06
1.0138e-05
1.048e-05
1.0104e-05
8.62864e-06
4.97765e-06
0
0
0
0
0
0
0
0
5.72115e-07
1.93631e-06
2.97846e-06
3.88148e-06
5.16982e-06
7.33797e-06
1.03685e-05
1.38456e-05
1.72234e-05
1.99383e-05
2.13693e-05
2.06259e-05
1.5988e-05
5.30237e-06
0
0
0
0
0
0
0
0
1.24801e-06
6.1715e-06
1.04401e-05
1.3905e-05
1.66334e-05
1.87411e-05
2.00474e-05
2.01019e-05
1.89008e-05
1.72786e-05
1.6312e-05
1.66292e-05
1.83094e-05
2.10757e-05
2.44758e-05
2.80658e-05
3.14771e-05
3.43826e-05
3.64987e-05
3.76081e-05
3.75646e-05
3.63164e-05
3.39351e-05
3.06044e-05
2.65719e-05
2.21001e-05
1.7454e-05
1.29234e-05
8.82638e-06
5.42313e-06
2.82471e-06
4.06731e-07
1.75929e-06
5.4682e-06
6.85674e-06
7.31818e-06
6.64777e-06
4.05046e-06
0
0
0
0
0
0
1.14504e-06
0
0
0
0
0
0
0
0
0
0
0
0
0
2.08583e-07
1.42885e-06
2.77434e-06
4.18989e-06
5.60772e-06
6.95264e-06
8.14701e-06
9.1143e-06
9.7822e-06
1.00716e-05
9.79087e-06
8.39332e-06
0
0
0
0
0
0
0
0
9.35238e-07
1.84675e-06
2.63575e-06
3.69059e-06
5.44724e-06
7.98385e-06
1.10536e-05
1.42899e-05
1.73218e-05
1.98169e-05
2.14032e-05
2.14665e-05
1.8185e-05
7.49498e-06
0
0
0
0
0
0
0
0
1.38216e-06
5.23932e-06
8.99756e-06
1.27677e-05
1.65469e-05
1.98765e-05
2.17154e-05
2.11394e-05
1.86503e-05
1.60189e-05
1.47116e-05
1.51856e-05
1.7223e-05
2.03584e-05
2.40475e-05
2.78203e-05
3.13071e-05
3.41837e-05
3.61843e-05
3.71252e-05
3.68926e-05
3.5449e-05
3.28574e-05
2.92817e-05
2.49588e-05
2.01655e-05
1.52033e-05
1.04009e-05
6.09628e-06
2.554e-06
0
0
3.73123e-07
4.35751e-06
5.60885e-06
6.08703e-06
5.71887e-06
3.90047e-06
0
0
0
0
0
0
2.39085e-06
2.62239e-07
0
0
0
0
0
0
0
0
0
0
0
0
1.51261e-07
1.13254e-06
2.23889e-06
3.42908e-06
4.65204e-06
5.85237e-06
6.97597e-06
7.97509e-06
8.81924e-06
9.50095e-06
9.75974e-06
8.30218e-06
0
0
0
0
0
0
0
3.92778e-07
1.11062e-06
1.74803e-06
2.57943e-06
3.96185e-06
6.00752e-06
8.57279e-06
1.14051e-05
1.42414e-05
1.68626e-05
1.9116e-05
2.08352e-05
2.17617e-05
2.04855e-05
1.1215e-05
0
0
0
0
0
0
0
0
1.68622e-06
5.45731e-06
9.63539e-06
1.41552e-05
1.86311e-05
2.21333e-05
2.3167e-05
2.07902e-05
1.65101e-05
1.30672e-05
1.18502e-05
1.27774e-05
1.52395e-05
1.86803e-05
2.25715e-05
2.6463e-05
2.99896e-05
3.28157e-05
3.46704e-05
3.53927e-05
3.49095e-05
3.32211e-05
3.04094e-05
2.66386e-05
2.21413e-05
1.72008e-05
1.21414e-05
7.31912e-06
3.08536e-06
0
0
0
3.09667e-06
5.29097e-06
5.36718e-06
5.71772e-06
5.69821e-06
4.33263e-06
1.85283e-07
0
0
0
0
0
3.50624e-06
1.34156e-06
5.49674e-07
1.144e-07
0
0
0
0
0
0
0
0
0
0
9.41042e-08
8.56938e-07
1.74168e-06
2.71798e-06
3.74731e-06
4.78761e-06
5.79829e-06
6.74172e-06
7.58942e-06
8.28317e-06
8.28115e-06
5.59742e-06
0
0
0
0
0
0
2.01797e-07
6.77945e-07
1.14053e-06
1.76999e-06
2.83744e-06
4.4501e-06