/*--------------------------------*- C++ -*----------------------------------*\
  =========                 |
  \\      /  F ield         | OpenFOAM: The Open Source CFD Toolbox
   \\    /   O peration     | Website:  https://openfoam.org
    \\  /    A nd           | Version:  10
     \\/     M anipulation  |
\*---------------------------------------------------------------------------*/
FoamFile
{
    format      ascii;
    class       volScalarField;
    location    "0.135";
    object      p;
}
// * * * * * * * * * * * * * * * * * * * * * * * * * * * * * * * * * * * * * //

dimensions      [0 2 -2 0 0 0 0];

internalField   nonuniform List<scalar> 
6820
(
-10.0455
-10.3464
-10.3876
-10.3962
-10.4191
-10.4324
-10.4364
-10.4355
-10.4299
-10.4193
-10.4038
-10.3834
-10.3578
-10.3267
-10.2896
-10.2462
-10.1959
-10.1381
-10.0721
-9.99715
-9.91256
-9.81755
-9.71143
-9.59368
-9.46402
-9.32265
-9.17043
-9.00935
-8.84248
-8.67492
-8.51483
-8.36336
-8.26923
-10.2479
-10.3712
-10.403
-10.4117
-10.4288
-10.4392
-10.4418
-10.4399
-10.4338
-10.423
-10.4076
-10.3874
-10.3623
-10.3317
-10.2955
-10.2531
-10.204
-10.1477
-10.0835
-10.0107
-9.92867
-9.83668
-9.73408
-9.62036
-9.49521
-9.35876
-9.21168
-9.05565
-8.89327
-8.72964
-8.56987
-8.42787
-8.30719
-10.2483
-10.3319
-10.3858
-10.4056
-10.4251
-10.4383
-10.4435
-10.4435
-10.4388
-10.4294
-10.4152
-10.3962
-10.3723
-10.3432
-10.3086
-10.2682
-10.2215
-10.1682
-10.1077
-10.0395
-9.96332
-9.87861
-9.78511
-9.68272
-9.57157
-9.45224
-9.3258
-9.1941
-9.05993
-8.9272
-8.8023
-8.69146
-8.61526
-10.3062
-10.3744
-10.4179
-10.4315
-10.4445
-10.4539
-10.4566
-10.4546
-10.4485
-10.4381
-10.4234
-10.4042
-10.3803
-10.3516
-10.3176
-10.2782
-10.2328
-10.1812
-10.1229
-10.0576
-9.98495
-9.90465
-9.81661
-9.72093
-9.61801
-9.50867
-9.39426
-9.27688
-9.15951
-9.04596
-8.94199
-8.85241
-8.79133
-10.3376
-10.3748
-10.4094
-10.4259
-10.4404
-10.4512
-10.4557
-10.4554
-10.451
-10.4421
-10.4288
-10.4111
-10.3888
-10.3618
-10.3298
-10.2924
-10.2496
-10.2009
-10.1461
-10.0848
-10.0171
-9.94265
-9.86163
-9.7743
-9.68122
-9.58335
-9.48213
-9.37956
-9.27835
-9.18174
-9.0944
-9.01927
-8.9651
-10.3692
-10.3984
-10.4315
-10.4486
-10.4607
-10.4693
-10.4723
-10.4708
-10.4653
-10.4559
-10.4423
-10.4247
-10.4027
-10.3764
-10.3454
-10.3095
-10.2686
-10.2223
-10.1704
-10.1129
-10.0497
-9.98063
-9.90606
-9.82634
-9.74216
-9.65455
-9.56494
-9.47523
-9.38785
-9.30548
-9.2316
-9.16812
-9.11946
-10.3965
-10.415
-10.4394
-10.4534
-10.4635
-10.4712
-10.4745
-10.4738
-10.4693
-10.4611
-10.4489
-10.4328
-10.4126
-10.3881
-10.3594
-10.326
-10.288
-10.2451
-10.1972
-10.1444
-10.0865
-10.0238
-9.95657
-9.88533
-9.81086
-9.73421
-9.65678
-9.5803
-9.50684
-9.43856
-9.37793
-9.32608
-9.28492
-10.4214
-10.4346
-10.4556
-10.4698
-10.4799
-10.4872
-10.4904
-10.4895
-10.485
-10.4769
-10.4651
-10.4496
-10.4303
-10.4071
-10.3798
-10.3485
-10.3129
-10.273
-10.2288
-10.1802
-10.1274
-10.0707
-10.0105
-9.94725
-9.8819
-9.81547
-9.74928
-9.68491
-9.62411
-9.56865
-9.52032
-9.47985
-9.44806
-10.4446
-10.4537
-10.47
-10.4817
-10.4898
-10.4957
-10.4982
-10.4973
-10.4931
-10.4858
-10.4751
-10.4609
-10.4433
-10.4221
-10.3973
-10.3687
-10.3364
-10.3002
-10.2603
-10.2167
-10.1697
-10.1196
-10.0668
-10.0121
-9.95616
-9.90013
-9.84522
-9.79285
-9.74452
-9.70168
-9.66568
-9.63708
-9.61634
-10.4665
-10.4731
-10.4861
-10.4968
-10.5045
-10.5102
-10.5129
-10.5125
-10.5091
-10.5025
-10.4927
-10.4798
-10.4636
-10.4442
-10.4215
-10.3954
-10.366
-10.3334
-10.2976
-10.2588
-10.2173
-10.1735
-10.1279
-10.0812
-10.0342
-9.98801
-9.9437
-9.90255
-9.8659
-9.83496
-9.81088
-9.79419
-9.78541
-10.4876
-10.4924
-10.5027
-10.5117
-10.5183
-10.523
-10.5253
-10.5248
-10.5215
-10.5155
-10.5068
-10.4952
-10.4808
-10.4634
-10.4432
-10.4201
-10.3942
-10.3655
-10.3343
-10.3007
-10.2651
-10.2279
-10.1898
-10.1513
-10.1134
-10.077
-10.0431
-10.013
-9.98781
-9.96861
-9.95644
-9.95188
-9.9557
-10.5081
-10.5117
-10.5199
-10.5277
-10.5337
-10.5382
-10.5406
-10.5406
-10.5382
-10.5333
-10.5258
-10.5158
-10.5033
-10.4881
-10.4704
-10.4503
-10.4277
-10.403
-10.3762
-10.3477
-10.3178
-10.2871
-10.2561
-10.2255
-10.1962
-10.169
-10.145
-10.1253
-10.1108
-10.1028
-10.102
-10.1092
-10.1255
-10.5282
-10.531
-10.5376
-10.5443
-10.5496
-10.5536
-10.5559
-10.5561
-10.5541
-10.55
-10.5437
-10.5352
-10.5245
-10.5116
-10.4966
-10.4795
-10.4606
-10.4399
-10.4178
-10.3946
-10.3706
-10.3464
-10.3226
-10.2999
-10.279
-10.2609
-10.2465
-10.2368
-10.2328
-10.2354
-10.2457
-10.2644
-10.2927
-10.5482
-10.5503
-10.5557
-10.5615
-10.5664
-10.5702
-10.5726
-10.5734
-10.5723
-10.5694
-10.5646
-10.5579
-10.5493
-10.5388
-10.5266
-10.5128
-10.4975
-10.481
-10.4635
-10.4455
-10.4273
-10.4094
-10.3925
-10.3773
-10.3645
-10.3549
-10.3495
-10.3491
-10.3548
-10.3674
-10.388
-10.4172
-10.4566
-10.568
-10.5697
-10.5742
-10.5793
-10.5838
-10.5875
-10.5901
-10.5913
-10.591
-10.5892
-10.5857
-10.5807
-10.5741
-10.5661
-10.5567
-10.5461
-10.5345
-10.5222
-10.5094
-10.4965
-10.484
-10.4724
-10.4623
-10.4543
-10.4492
-10.4478
-10.451
-10.4595
-10.4743
-10.4963
-10.5264
-10.5654
-10.6147
-10.5878
-10.5892
-10.5931
-10.5977
-10.6019
-10.6057
-10.6086
-10.6105
-10.6111
-10.6105
-10.6087
-10.6056
-10.6012
-10.5958
-10.5894
-10.5821
-10.5743
-10.5662
-10.558
-10.5502
-10.5433
-10.5377
-10.5341
-10.533
-10.5352
-10.5415
-10.5525
-10.5692
-10.5923
-10.6228
-10.6614
-10.709
-10.7669
-10.6076
-10.6089
-10.6123
-10.6165
-10.6207
-10.6246
-10.6279
-10.6305
-10.6321
-10.6327
-10.6324
-10.6312
-10.6291
-10.6262
-10.6227
-10.6188
-10.6146
-10.6106
-10.607
-10.6042
-10.6026
-10.6029
-10.6054
-10.6109
-10.62
-10.6334
-10.6518
-10.676
-10.7067
-10.7448
-10.791
-10.846
-10.9112
-10.6276
-10.6287
-10.6319
-10.6359
-10.6401
-10.6442
-10.648
-10.6514
-10.6541
-10.6561
-10.6575
-10.6582
-10.6584
-10.6582
-10.6577
-10.6571
-10.6567
-10.6568
-10.6576
-10.6597
-10.6633
-10.6691
-10.6775
-10.6891
-10.7046
-10.7246
-10.7496
-10.7806
-10.818
-10.8627
-10.9154
-10.9766
-11.0475
-10.6476
-10.6487
-10.6517
-10.6557
-10.66
-10.6645
-10.6689
-10.673
-10.6769
-10.6803
-10.6834
-10.6861
-10.6886
-10.691
-10.6935
-10.6962
-10.6994
-10.7034
-10.7085
-10.7152
-10.7238
-10.7348
-10.7487
-10.766
-10.7874
-10.8133
-10.8444
-10.8813
-10.9247
-10.975
-11.0331
-11.0993
-11.1748
-10.6678
-10.6689
-10.6718
-10.6758
-10.6804
-10.6853
-10.6904
-10.6954
-10.7005
-10.7054
-10.7102
-10.715
-10.7198
-10.7249
-10.7302
-10.7362
-10.743
-10.7508
-10.7601
-10.7712
-10.7845
-10.8004
-10.8194
-10.842
-10.8687
-10.9
-10.9364
-10.9785
-11.0269
-11.082
-11.1444
-11.2144
-11.293
-10.688
-10.6891
-10.6921
-10.6963
-10.7011
-10.7066
-10.7124
-10.7185
-10.7247
-10.7312
-10.7377
-10.7446
-10.7517
-10.7593
-10.7676
-10.7767
-10.7869
-10.7985
-10.8117
-10.827
-10.8447
-10.8651
-10.8888
-10.9161
-10.9476
-10.9836
-11.0247
-11.0713
-11.1238
-11.1827
-11.2484
-11.3213
-11.4019
-10.7083
-10.7095
-10.7126
-10.717
-10.7222
-10.7283
-10.7349
-10.742
-10.7496
-10.7575
-10.7659
-10.7747
-10.7842
-10.7944
-10.8054
-10.8176
-10.8311
-10.8462
-10.8632
-10.8823
-10.9041
-10.9287
-10.9566
-10.9882
-11.0239
-11.0641
-11.1091
-11.1594
-11.2153
-11.2771
-11.3452
-11.4198
-11.5014
-10.7287
-10.7299
-10.7332
-10.7379
-10.7436
-10.7503
-10.7578
-10.766
-10.7748
-10.7843
-10.7945
-10.8053
-10.8171
-10.8297
-10.8435
-10.8586
-10.8753
-10.8937
-10.9142
-10.937
-10.9624
-10.9909
-11.0226
-11.058
-11.0974
-11.1411
-11.1894
-11.2427
-11.3012
-11.3651
-11.4348
-11.5104
-11.5921
-10.7489
-10.7502
-10.7537
-10.7588
-10.765
-10.7724
-10.7808
-10.7901
-10.8003
-10.8113
-10.8232
-10.8361
-10.85
-10.8651
-10.8815
-10.8994
-10.919
-10.9405
-10.9642
-10.9903
-11.0192
-11.051
-11.0861
-11.1248
-11.1673
-11.2139
-11.2649
-11.3205
-11.3809
-11.4463
-11.5169
-11.5926
-11.6737
-10.769
-10.7704
-10.7742
-10.7797
-10.7865
-10.7947
-10.804
-10.8145
-10.826
-10.8386
-10.8522
-10.8671
-10.8831
-10.9005
-10.9194
-10.94
-10.9623
-10.9868
-11.0135
-11.0426
-11.0745
-11.1094
-11.1475
-11.189
-11.2341
-11.2831
-11.3362
-11.3936
-11.4553
-11.5215
-11.5922
-11.6675
-11.7475
-10.7889
-10.7904
-10.7945
-10.8004
-10.8079
-10.8168
-10.8271
-10.8387
-10.8515
-10.8656
-10.8809
-10.8976
-10.9157
-10.9352
-10.9565
-10.9795
-11.0044
-11.0315
-11.0608
-11.0927
-11.1273
-11.1648
-11.2054
-11.2492
-11.2966
-11.3475
-11.4022
-11.4607
-11.5231
-11.5895
-11.66
-11.7343
-11.8127
-10.8084
-10.81
-10.8145
-10.8209
-10.829
-10.8387
-10.8501
-10.8628
-10.877
-10.8926
-10.9096
-10.9282
-10.9482
-10.9699
-10.9933
-11.0187
-11.046
-11.0755
-11.1073
-11.1417
-11.1786
-11.2184
-11.2611
-11.3069
-11.356
-11.4083
-11.4641
-11.5233
-11.5861
-11.6523
-11.7219
-11.7949
-11.8713
-10.8274
-10.8292
-10.8339
-10.8409
-10.8496
-10.8602
-10.8724
-10.8863
-10.9017
-10.9187
-10.9373
-10.9575
-10.9793
-11.0029
-11.0284
-11.0558
-11.0853
-11.1169
-11.1509
-11.1873
-11.2263
-11.268
-11.3125
-11.3599
-11.4102
-11.4636
-11.5201
-11.5796
-11.6422
-11.7079
-11.7764
-11.8478
-11.922
-10.8458
-10.8476
-10.8528
-10.8603
-10.8698
-10.8813
-10.8946
-10.9097
-10.9264
-10.9449
-10.9651
-10.9869
-11.0106
-11.036
-11.0634
-11.0927
-11.1242
-11.1578
-11.1937
-11.232
-11.2727
-11.316
-11.3619
-11.4105
-11.4618
-11.5159
-11.5727
-11.6322
-11.6944
-11.7591
-11.8263
-11.8959
-11.9677
-10.8632
-10.8652
-10.8707
-10.8788
-10.8889
-10.9011
-10.9153
-10.9314
-10.9493
-10.969
-10.9905
-11.0139
-11.0391
-11.0662
-11.0952
-11.1263
-11.1594
-11.1948
-11.2323
-11.2722
-11.3144
-11.359
-11.406
-11.4556
-11.5075
-11.562
-11.6188
-11.678
-11.7395
-11.8032
-11.869
-11.9366
-12.0061
-10.8796
-10.8818
-10.8879
-10.8967
-10.9077
-10.9209
-10.9362
-10.9535
-10.9727
-10.9938
-11.0168
-11.0416
-11.0683
-11.097
-11.1276
-11.1602
-11.1949
-11.2317
-11.2707
-11.3118
-11.3552
-11.4008
-11.4487
-11.4988
-11.5512
-11.6057
-11.6623
-11.721
-11.7816
-11.8441
-11.9082
-11.9738
-12.0408
-10.8946
-10.8969
-10.9032
-10.9124
-10.924
-10.9378
-10.954
-10.9722
-10.9924
-11.0146
-11.0388
-11.0649
-11.093
-11.123
-11.155
-11.189
-11.2251
-11.2632
-11.3034
-11.3457
-11.3901
-11.4366
-11.4852
-11.5357
-11.5883
-11.6428
-11.6991
-11.7572
-11.8168
-11.878
-11.9405
-12.0042
-12.069
-10.9081
-10.9109
-10.9181
-10.9284
-10.9411
-10.9561
-10.9734
-10.9928
-11.0142
-11.0376
-11.0629
-11.0902
-11.1195
-11.1507
-11.1839
-11.219
-11.2562
-11.2953
-11.3365
-11.3796
-11.4247
-11.4717
-11.5206
-11.5713
-11.6238
-11.678
-11.7338
-11.7911
-11.8497
-11.9095
-11.9703
-12.0321
-12.0946
-10.9192
-10.9216
-10.929
-10.9395
-10.9527
-10.9684
-10.9865
-11.0068
-11.0293
-11.0537
-11.0802
-11.1087
-11.1392
-11.1716
-11.206
-11.2423
-11.2806
-11.3207
-11.3628
-11.4068
-11.4525
-11.5001
-11.5493
-11.6003
-11.6527
-11.7066
-11.7619
-11.8184
-11.876
-11.9346
-11.9939
-12.0539
-12.1144
-10.929
-10.933
-10.9422
-10.9543
-10.9686
-10.9854
-11.0044
-11.0256
-11.0489
-11.0741
-11.1014
-11.1307
-11.1619
-11.195
-11.2301
-11.2671
-11.306
-11.3468
-11.3893
-11.4337
-11.4798
-11.5275
-11.5768
-11.6276
-11.6798
-11.7332
-11.7879
-11.8435
-11.9001
-11.9574
-12.0153
-12.0736
-12.1323
-10.9326
-10.9354
-10.9446
-10.9575
-10.9728
-10.9909
-11.0113
-11.0337
-11.0583
-11.0848
-11.1133
-11.1438
-11.1762
-11.2104
-11.2466
-11.2846
-11.3244
-11.366
-11.4093
-11.4542
-11.5008
-11.5488
-11.5983
-11.6491
-11.7011
-11.7542
-11.8083
-11.8632
-11.9188
-11.975
-12.0316
-12.0885
-12.1455
-10.9401
-10.947
-10.959
-10.9727
-10.9879
-11.0063
-11.0269
-11.0495
-11.0742
-11.1009
-11.1296
-11.1602
-11.1929
-11.2274
-11.2638
-11.3021
-11.3421
-11.3839
-11.4274
-11.4725
-11.5191
-11.5671
-11.6165
-11.6671
-11.7188
-11.7716
-11.8251
-11.8795
-11.9343
-11.9897
-12.0453
-12.101
-12.1568
-10.9245
-10.9309
-10.9469
-10.9644
-10.9839
-11.0051
-11.0279
-11.0524
-11.0788
-11.1071
-11.1372
-11.169
-11.2028
-11.2383
-11.2756
-11.3147
-11.3554
-11.3978
-11.4418
-11.4872
-11.5341
-11.5822
-11.6316
-11.6821
-11.7335
-11.7858
-11.8388
-11.8924
-11.9464
-12.0008
-12.0553
-12.1098
-12.1642
-10.94
-10.9514
-10.9659
-10.9802
-10.9974
-11.0168
-11.0381
-11.0616
-11.0872
-11.1148
-11.1444
-11.1761
-11.2096
-11.245
-11.2823
-11.3213
-11.3621
-11.4046
-11.4486
-11.4941
-11.5411
-11.5893
-11.6388
-11.6893
-11.7408
-11.7931
-11.8461
-11.8996
-11.9536
-12.0078
-12.0621
-12.1164
-12.1705
-10.847
-10.9154
-10.9452
-10.9645
-10.9888
-11.0136
-11.0382
-11.0641
-11.0915
-11.1206
-11.1513
-11.1838
-11.218
-11.254
-11.2917
-11.3311
-11.3721
-11.4147
-11.4588
-11.5043
-11.5511
-11.5991
-11.6482
-11.6982
-11.7491
-11.8007
-11.8529
-11.9055
-11.9585
-12.0117
-12.0649
-12.118
-12.171
-8.0911
-8.6646
-8.92588
-8.58894
-6.93567
-5.86068
-4.93806
-3.85293
-5.26718
-9.32729
-16.1255
-25.1642
-35.0527
-43.7145
-49.1863
-49.8404
-45.3963
-37.7184
-29.2865
-21.0899
-13.8057
-8.42079
-5.37372
-4.36165
-4.86964
-6.50081
-9.02019
-12.2641
-16.1072
-20.4007
-24.9576
-29.5531
-33.9017
-37.6389
-40.3514
-41.6432
-41.2704
-39.199
-35.667
-31.0585
-25.7882
-20.2479
-14.8426
-9.97957
-5.95089
-2.85991
-0.699227
0.51608
0.629565
-0.654601
-3.76428
-9.01882
-16.0328
-23.7788
-30.9145
-36.1411
-38.5943
-37.9977
-34.6545
-29.4085
-23.3884
-17.6621
-12.8777
-9.18558
-6.4515
-4.47543
-3.07515
-2.09807
-1.42476
-0.966497
-0.65813
-0.452407
-0.3155
-0.223683
-0.160863
-0.116444
-0.0836705
-0.0584821
-0.0385097
-0.0225042
-0.00992203
-0.000445434
0.0061361
0.0102613
0.012236
0.0121904
0.0103295
0.00686271
0.00200216
-0.00397108
-0.0103269
-0.0161002
-0.0198825
-0.0212731
-0.0188905
-0.0156236
-0.00987994
-0.00919091
-0.0047582
-0.0077921
-8.32251
-8.72036
-8.68522
-8.26872
-7.26287
-5.89794
-3.86363
-3.2697
-5.13481
-9.20542
-15.6626
-24.1566
-33.3958
-41.4486
-46.4635
-47.064
-43.1213
-36.264
-28.5198
-20.8616
-14.1115
-9.18969
-6.38972
-5.39809
-5.77879
-7.20189
-9.4561
-12.3839
-15.8836
-19.8359
-24.0679
-28.3508
-32.3983
-35.8597
-38.3569
-39.5397
-39.1884
-37.2704
-33.9898
-29.6886
-24.7554
-19.5808
-14.5603
-10.0552
-6.31093
-3.42095
-1.39693
-0.275993
-0.199497
-1.42821
-4.29656
-8.96376
-15.0933
-21.852
-28.1347
-32.8055
-35.0672
-34.65
-31.8435
-27.3812
-22.1843
-17.116
-12.7505
-9.28571
-6.66161
-4.72955
-3.33642
-2.34688
-1.65194
-1.16863
-0.834846
-0.604842
-0.445521
-0.333487
-0.252748
-0.192686
-0.146454
-0.109832
-0.0802628
-0.0562741
-0.037085
-0.0221903
-0.0111878
-0.0035237
0.00124139
0.00339747
0.00330728
0.00130059
-0.00231254
-0.00718448
-0.0125633
-0.0175126
-0.0206802
-0.0216963
-0.0192622
-0.0160617
-0.0105236
-0.00952407
-0.00524324
-0.00690454
-8.56827
-8.69741
-8.62748
-8.25459
-7.22446
-5.86972
-4.6188
-4.09106
-5.45407
-9.42957
-15.5624
-23.2631
-31.5455
-38.76
-43.2214
-43.812
-40.4853
-34.5089
-27.4844
-20.4498
-14.3389
-9.92682
-7.37369
-6.39996
-6.66373
-7.89503
-9.91092
-12.5556
-15.7267
-19.3214
-23.1918
-27.1265
-30.8516
-34.0341
-36.3229
-37.4019
-37.0711
-35.2995
-32.2664
-28.2803
-23.7074
-18.9291
-14.3105
-10.1638
-6.69737
-4.0028
-2.11211
-1.07944
-1.03737
-2.19939
-4.83386
-9.0105
-14.4009
-20.2918
-25.7668
-29.883
-31.9521
-31.7186
-29.4186
-25.6469
-21.1438
-16.6278
-12.6278
-9.37424
-6.85954
-4.97508
-3.59296
-2.59419
-1.87996
-1.37309
-1.01468
-0.760694
-0.578928
-0.446442
-0.347436
-0.271333
-0.211233
-0.162779
-0.123239
-0.0909411
-0.0648888
-0.0443864
-0.0288561
-0.0176183
-0.0100803
-0.00577207
-0.0041764
-0.00482369
-0.00726396
-0.0110388
-0.0153614
-0.0193468
-0.021742
-0.0222478
-0.0196732
-0.016492
-0.0111606
-0.00989194
-0.00582632
-0.00625073
-8.7423
-8.78459
-8.69556
-8.34803
-7.61162
-6.70734
-5.75998
-5.38773
-6.74459
-10.2271
-15.7149
-22.5966
-29.8193
-36.0293
-39.9053
-40.5511
-37.8077
-32.5694
-26.2234
-19.9053
-14.5163
-10.6221
-8.302
-7.34718
-7.50851
-8.57038
-10.3714
-12.7597
-15.6239
-18.8661
-22.3596
-25.9209
-29.2996
-32.189
-34.2642
-35.2369
-34.9252
-33.3003
-30.5203
-26.8659
-22.6806
-18.3182
-14.1023
-10.3016
-7.09987
-4.59302
-2.8321
-1.88275
-1.86931
-2.96408
-5.3784
-9.13283
-13.9033
-19.0628
-23.8366
-27.4527
-29.3437
-29.2641
-27.3852
-24.1736
-20.2305
-16.1757
-12.5009
-9.44879
-7.04488
-5.21187
-3.84461
-2.83982
-2.10863
-1.57973
-1.19755
-0.91991
-0.715681
-0.562501
-0.444858
-0.352286
-0.277879
-0.217187
-0.167326
-0.126433
-0.0933008
-0.0670297
-0.0468456
-0.0319215
-0.0215059
-0.0149438
-0.0115578
-0.0107421
-0.0119339
-0.0145963
-0.0179203
-0.0210516
-0.0228001
-0.02289
-0.0202022
-0.0170023
-0.0118188
-0.0102086
-0.00631757
-0.00544012
-8.91514
-8.90233
-8.79994
-8.52625
-8.02182
-7.42616
-6.91044
-6.91853
-8.24424
-11.3117
-16.0675
-22.0415
-28.2992
-33.6337
-36.9655
-37.5188
-35.0683
-30.3885
-24.7781
-19.3003
-14.665
-11.2621
-9.1608
-8.23639
-8.31583
-9.22751
-10.8311
-12.9846
-15.5693
-18.4824
-21.6071
-24.7853
-27.7995
-30.3776
-32.2259
-33.0855
-32.7913
-31.3168
-28.8006
-25.4956
-21.7122
-17.7644
-13.9357
-10.4609
-7.50906
-5.18265
-3.54796
-2.67754
-2.68592
-3.71216
-5.9159
-9.29283
-13.5369
-18.0921
-22.2903
-25.4847
-27.2075
-27.2315
-25.6716
-22.8964
-19.4074
-15.749
-12.3705
-9.51127
-7.21831
-5.43976
-4.091
-3.08342
-2.33773
-1.78839
-1.38332
-1.0824
-0.855718
-0.681614
-0.544969
-0.435503
-0.346358
-0.27302
-0.212476
-0.162688
-0.122242
-0.0900361
-0.0651014
-0.0464458
-0.0331399
-0.0243366
-0.0191942
-0.0169621
-0.0169474
-0.0185154
-0.0208226
-0.0230442
-0.0240624
-0.0236468
-0.0207735
-0.0175064
-0.0124572
-0.010525
-0.00684139
-0.00477842
-9.07182
-9.0359
-8.94296
-8.73676
-8.39488
-8.03624
-7.85289
-8.16247
-9.47067
-12.1469
-16.2089
-21.2885
-26.6059
-31.1324
-33.8609
-34.1535
-31.9654
-27.996
-23.3047
-18.7297
-14.8055
-11.8462
-9.95412
-9.07604
-9.09485
-9.87387
-11.2928
-13.2256
-15.5538
-18.1684
-20.9526
-23.7634
-26.4145
-28.6734
-30.2863
-31.0275
-30.7486
-29.4255
-27.1769
-24.2224
-20.8313
-17.2768
-13.8077
-10.6345
-7.91726
-5.7641
-4.25161
-3.45556
-3.47897
-4.43523
-6.43854
-9.46924
-13.2512
-17.2946
-21.0175
-23.8606
-25.4261
-25.5088
-24.1856
-21.7554
-18.6474
-15.3399
-12.2358
-9.5622
-7.38011
-5.65883
-4.33209
-3.3249
-2.56711
-1.99895
-1.57192
-1.24812
-0.998991
-0.803725
-0.647696
-0.520892
-0.416557
-0.330158
-0.258576
-0.199608
-0.151636
-0.113347
-0.0835606
-0.0610992
-0.0448442
-0.0337505
-0.0268053
-0.0231107
-0.0218542
-0.0223182
-0.0236342
-0.025001
-0.0253597
-0.0244955
-0.0214519
-0.018087
-0.0131277
-0.0108259
-0.00731841
-0.00404866
-9.24348
-9.20472
-9.13151
-8.99071
-8.78511
-8.61325
-8.63892
-9.11272
-10.3881
-12.7132
-16.0897
-20.2401
-24.5642
-28.2278
-30.3936
-30.6224
-28.9072
-25.7831
-22.0181
-18.2555
-14.943
-12.3761
-10.6867
-9.86834
-9.84396
-10.5067
-11.7542
-13.4776
-15.5656
-17.9089
-20.3894
-22.8704
-25.1871
-27.1431
-28.5275
-29.1506
-28.8829
-27.7023
-25.7069
-23.08
-20.05
-16.8536
-13.7112
-10.8151
-8.31838
-6.33167
-4.93691
-4.21017
-4.24287
-5.12714
-6.94147
-9.65315
-13.0175
-16.6083
-19.9178
-22.4576
-23.8759
-23.9894
-22.851
-20.7096
-17.936
-14.9468
-12.0986
-9.60319
-7.53108
-5.86931
-4.56785
-3.56412
-2.79663
-2.2113
-1.76327
-1.41701
-1.14545
-0.928773
-0.752964
-0.608363
-0.48838
-0.388501
-0.305524
-0.237093
-0.181387
-0.136876
-0.102158
-0.0758554
-0.0566427
-0.0432698
-0.0345463
-0.0294208
-0.0269541
-0.026337
-0.0266676
-0.0271618
-0.0268162
-0.0254433
-0.0221714
-0.0186634
-0.013773
-0.0111109
-0.0077921
-0.00341884
-9.41728
-9.38842
-9.34407
-9.26894
-9.17819
-9.15311
-9.33046
-9.90443
-11.1199
-13.1384
-15.9373
-19.2822
-22.7128
-25.6092
-27.3638
-27.674
-26.4171
-23.9943
-20.973
-17.8668
-15.0684
-12.8523
-11.358
-10.6068
-10.5522
-11.1136
-12.2049
-13.732
-15.5941
-17.687
-19.8957
-22.0889
-24.1161
-25.8071
-26.9881
-27.5031
-27.2416
-26.1849
-24.4118
-22.0734
-19.3626
-16.4849
-13.6374
-10.9967
-8.70801
-6.88082
-5.59863
-4.93571
-4.97264
-5.78384
-7.42039
-9.83931
-12.8234
-16.0037
-18.9386
-21.2029
-22.4826
-22.6131
-21.6301
-19.7425
-17.2691
-14.5706
-11.9607
-9.63544
-7.67191
-6.07159
-4.79842
-3.80109
-3.02627
-2.42541
-1.95735
-1.58903
-1.29505
-1.0567
-0.860683
-0.6978
-0.561691
-0.447904
-0.35318
-0.275014
-0.211381
-0.160523
-0.120804
-0.0906223
-0.068433
-0.052773
-0.0422657
-0.0357019
-0.0320188
-0.0303235
-0.0296867
-0.0293337
-0.0283327
-0.0264846
-0.0229898
-0.0193131
-0.014456
-0.0114024
-0.00824508
-0.00277539
-9.59886
-9.58721
-9.57544
-9.56011
-9.56283
-9.65183
-9.938
-10.568
-11.7113
-13.4732
-15.8186
-18.551
-21.312
-23.6418
-25.1021
-25.3763
-24.4333
-22.5302
-20.0899
-17.5252
-15.1716
-13.2719
-11.9622
-11.2816
-11.2074
-11.6813
-12.632
-13.9786
-15.6298
-17.4896
-19.45
-21.3885
-23.1668
-24.6349
-25.645
-26.0666
-25.8085
-24.8558
-23.2719
-21.1823
-18.751
-16.1576
-13.5785
-11.1749
-9.08276
-7.40785
-6.23246
-5.62783
-5.6648
-6.40288
-7.87272
-10.024
-12.6633
-15.4709
-18.0636
-20.0748
-21.2231
-21.3614
-20.5123
-18.8498
-16.6463
-14.2124
-11.8235
-9.6603
-7.80354
-6.26614
-5.02399
-4.03587
-3.25603
-2.64128
-2.15417
-1.7642
-1.44777
-1.18743
-0.970754
-0.789075
-0.636344
-0.508215
-0.40139
-0.313226
-0.241488
-0.184178
-0.139409
-0.105341
-0.0801904
-0.0622734
-0.0500186
-0.0420535
-0.0371878
-0.0344414
-0.0328534
-0.0316587
-0.0299714
-0.0276065
-0.0238429
-0.0199574
-0.0151099
-0.0116696
-0.00867463
-0.00219853
-9.78305
-9.79221
-9.81337
-9.85064
-9.92796
-10.1021
-10.4607
-11.1131
-12.1756
-13.7148
-15.6915
-17.9428
-20.1877
-22.072
-23.2522
-23.5012
-22.7896
-21.2926
-19.3258
-17.2185
-15.2509
-13.634
-12.4965
-11.8883
-11.8041
-12.2035
-13.0285
-14.2101
-15.6666
-17.3097
-19.0405
-20.7469
-22.3043
-23.5798
-24.4442
-24.7867
-24.5332
-23.6706
-22.251
-20.3796
-18.1972
-15.8611
-13.5288
-11.3466
-9.44004
-7.90956
-6.83477
-6.28316
-6.31685
-6.98294
-8.29685
-10.2038
-12.5316
-15.003
-17.2886
-19.0645
-20.0886
-20.2274
-19.493
-18.0292
-16.0668
-13.8728
-11.6884
-9.67902
-7.92689
-6.45354
-5.24489
-4.26863
-3.48603
-2.85901
-2.3538
-1.94255
-1.60361
-1.32092
-1.08307
-0.882036
-0.71216
-0.569241
-0.449966
-0.351553
-0.27155
-0.207702
-0.157853
-0.119904
-0.0918199
-0.0716805
-0.0577113
-0.0483711
-0.0423428
-0.0385634
-0.036045
-0.0340323
-0.0316865
-0.0288239
-0.0247901
-0.0206736
-0.0158056
-0.0119592
-0.00910164
-0.00164189
-9.96925
-10.0003
-10.0526
-10.1344
-10.2693
-10.504
-10.9064
-11.5569
-12.5336
-13.8752
-15.5415
-17.3989
-19.227
-20.7538
-21.7172
-21.9476
-21.4134
-20.2394
-18.6618
-16.9403
-15.306
-13.9404
-12.962
-12.426
-12.3395
-12.6764
-13.3898
-14.4219
-15.6999
-17.1435
-18.6626
-20.1559
-21.5121
-22.6145
-23.3504
-23.6256
-23.3779
-22.5959
-21.3226
-19.6469
-17.6899
-15.5893
-13.4853
-11.5097
-9.77751
-8.38316
-7.40262
-6.89915
-6.92707
-7.52314
-8.6918
-10.3759
-12.4224
-14.5909
-16.5966
-18.1604
-19.0685
-19.2024
-18.5658
-17.2762
-15.5287
-13.5518
-11.5563
-9.69293
-8.04302
-6.63449
-5.46154
-4.49965
-3.71648
-3.07877
-2.55638
-2.12418
-1.76258
-1.45712
-1.1975
-0.976514
-0.788935
-0.630768
-0.498697
-0.389799
-0.301393
-0.230948
-0.176019
-0.134223
-0.103263
-0.0809657
-0.065344
-0.0546827
-0.047536
-0.0427572
-0.0393306
-0.0365059
-0.0334894
-0.0301003
-0.0257597
-0.0213784
-0.0164662
-0.0122171
-0.00949112
-0.00112699
-10.1547
-10.207
-10.2871
-10.4051
-10.5828
-10.8581
-11.2828
-11.9147
-12.805
-13.973
-15.3795
-16.9153
-18.4084
-19.6505
-20.442
-20.654
-20.2581
-19.3433
-18.0851
-16.6869
-15.3384
-14.1942
-13.3611
-12.8956
-12.8128
-13.0973
-13.7127
-14.6099
-15.7257
-16.9872
-18.3131
-19.6122
-20.7857
-21.7318
-22.3533
-22.569
-22.327
-21.6172
-20.4751
-18.9761
-17.2242
-15.3395
-13.4461
-11.6623
-10.0931
-8.8263
-7.93366
-7.47386
-7.4942
-8.02297
-9.05673
-10.538
-12.3307
-14.2268
-15.9806
-17.3518
-18.1525
-18.2771
-17.7233
-16.5862
-15.03
-13.2496
-11.4285
-9.70335
-8.153
-6.80977
-5.67449
-4.72936
-3.94773
-3.30086
-2.76214
-2.30922
-1.92474
-1.59596
-1.31393
-1.07231
-0.866432
-0.692539
-0.547327
-0.427725
-0.330802
-0.25373
-0.193751
-0.148174
-0.114419
-0.0900481
-0.0728503
-0.0609302
-0.0527118
-0.0469688
-0.0426616
-0.0390478
-0.0353801
-0.0314746
-0.0268215
-0.0221561
-0.0171738
-0.0125111
-0.0098931
-0.000656768
-10.3368
-10.4086
-10.5126
-10.6591
-10.8671
-11.1672
-11.5979
-12.2
-13.006
-14.0224
-15.2121
-16.4863
-17.7107
-18.7258
-19.3804
-19.576
-19.2881
-18.5798
-17.582
-16.4539
-15.3495
-14.3992
-13.6975
-13.2991
-13.2242
-13.4655
-13.995
-14.7716
-15.7406
-16.837
-17.9878
-19.1116
-20.121
-20.9273
-21.4467
-21.6098
-21.3729
-20.7275
-19.7031
-18.3632
-16.7971
-15.1093
-13.4092
-11.8026
-10.3849
-9.2371
-8.42608
-8.00583
-8.01735
-8.48208
-9.39107
-10.6882
-12.2527
-13.9044
-15.4323
-16.6289
-17.3303
-17.4426
-16.9586
-15.955
-14.5688
-12.9661
-11.3061
-9.71161
-8.258
-6.98027
-5.88442
-4.9583
-4.18025
-3.52571
-2.97142
-2.49791
-2.09017
-1.73743
-1.4322
-1.1692
-0.944377
-0.754265
-0.595575
-0.465072
-0.359553
-0.27586
-0.210894
-0.16164
-0.125202
-0.0988683
-0.0801936
-0.0670949
-0.0578655
-0.0512011
-0.0460409
-0.0416493
-0.037325
-0.032883
-0.0278884
-0.0229111
-0.0178361
-0.0127632
-0.0102442
-0.000206039
-10.5142
-10.603
-10.7264
-10.8939
-11.1219
-11.4342
-11.8591
-12.4247
-13.1503
-14.0344
-15.043
-16.104
-17.1127
-17.9471
-18.4926
-18.6737
-18.4701
-17.9268
-17.1417
-16.2385
-15.3415
-14.5596
-13.9752
-13.6396
-13.5755
-13.7812
-14.2358
-14.9052
-15.7422
-16.6898
-17.6827
-18.6488
-19.5115
-20.1934
-20.6223
-20.7392
-20.5074
-19.9197
-19.0003
-17.8031
-16.4048
-14.8959
-13.3726
-11.9291
-10.6515
-9.61415
-8.8786
-8.4941
-8.49609
-8.90047
-9.69471
-10.8251
-12.1848
-13.6182
-14.9436
-15.9827
-16.5929
-16.6906
-16.2654
-15.3784
-14.1435
-12.7015
-11.1901
-9.71899
-8.3592
-7.14698
-6.09217
-5.18719
-4.41471
-3.75387
-3.18468
-2.69055
-2.25904
-1.8815
-1.55216
-1.26691
-1.02245
-0.815595
-0.64309
-0.501513
-0.387351
-0.297087
-0.227248
-0.174459
-0.135493
-0.107347
-0.0873258
-0.0731523
-0.0629884
-0.0554556
-0.0494779
-0.0443313
-0.0393648
-0.0343906
-0.0290464
-0.0237409
-0.0185517
-0.013065
-0.0106232
0.000180316
-10.6843
-10.7874
-10.9258
-11.1082
-11.3476
-11.6626
-12.0736
-12.5991
-13.2495
-14.0185
-14.8757
-15.7628
-16.5982
-17.2885
-17.7468
-17.9157
-17.7783
-17.367
-16.755
-16.0381
-15.3163
-14.6797
-14.1989
-13.9211
-13.8692
-14.0457
-14.4354
-15.0099
-15.7291
-16.5431
-17.3944
-18.2196
-18.9514
-19.5228
-19.8719
-19.9485
-19.7219
-19.1856
-18.36
-17.2908
-16.0435
-14.6966
-13.3344
-12.0405
-10.892
-9.95655
-9.29052
-8.93834
-8.93051
-9.27859
-9.96789
-10.948
-12.1244
-13.3629
-14.5075
-15.4051
-15.9318
-16.0137
-15.638
-14.8528
-13.7525
-12.4559
-11.0815
-9.72675
-8.45784
-7.311
-6.29871
-5.41694
-4.65195
-3.98612
-3.40253
-2.88757
-2.43153
-2.02817
-1.67362
-1.36517
-1.10028
-0.876147
-0.689509
-0.536719
-0.413916
-0.317175
-0.242618
-0.186479
-0.145176
-0.115394
-0.0941759
-0.0790434
-0.0680278
-0.0596821
-0.0529212
-0.0470357
-0.041427
-0.0359068
-0.0301894
-0.0245325
-0.0192075
-0.0133097
-0.0109362
0.000571994
-10.8464
-10.9608
-11.1102
-11.3017
-11.5457
-11.8563
-12.2479
-12.732
-13.313
-13.9823
-14.7129
-15.4579
-16.1537
-16.7289
-17.1178
-17.2762
-17.1909
-16.8851
-16.4136
-15.8507
-15.2761
-14.7636
-14.3736
-14.1478
-14.1088
-14.2613
-14.5948
-15.0858
-15.7003
-16.3952
-17.1202
-17.8197
-18.4353
-18.9091
-19.188
-19.2296
-19.0081
-18.5178
-17.7759
-16.8212
-15.7096
-14.509
-13.2931
-12.1357
-11.1056
-10.2639
-9.66171
-9.33877
-9.32123
-9.61729
-10.2112
-11.0562
-12.0692
-13.1343
-14.1179
-14.8887
-15.3397
-15.4051
-15.071
-14.3748
-13.3942
-12.229
-10.981
-9.7361
-8.55518
-7.47352
-6.50516
-5.64864
-4.89301
-4.22341
-3.62578
-3.08952
-2.60792
-2.17744
-1.79639
-1.46359
-1.17741
-0.935427
-0.734341
-0.570238
-0.43885
-0.335798
-0.256746
-0.197508
-0.154121
-0.122936
-0.100718
-0.0847803
-0.0730215
-0.0639327
-0.0564291
-0.0498257
-0.0435836
-0.0375171
-0.0314179
-0.0253981
-0.019922
-0.0136172
-0.0112945
0.000881272
-10.9988
-11.1218
-11.2784
-11.4744
-11.7178
-12.019
-12.3878
-12.8309
-13.3488
-13.9318
-14.5566
-15.1854
-15.7686
-16.2517
-16.585
-16.7347
-16.6903
-16.4687
-16.111
-15.6746
-15.2228
-14.8158
-14.5042
-14.3246
-14.2982
-14.431
-14.7159
-15.1337
-15.6557
-16.2449
-16.8577
-17.4458
-17.9587
-18.3464
-18.5638
-18.5752
-18.3587
-17.9095
-17.2422
-16.3896
-15.3997
-14.3309
-13.2474
-12.2141
-11.2922
-10.5364
-9.99256
-9.69607
-9.66926
-9.91771
-10.4254
-11.1496
-12.0172
-12.9286
-13.7694
-14.4272
-14.8095
-14.8585
-14.5594
-13.9411
-13.067
-12.0208
-10.8894
-9.74819
-8.65248
-7.63582
-6.7128
-5.8836
-5.13924
-4.46699
-3.85544
-3.29711
-2.78857
-2.32935
-1.92023
-1.56178
-1.25338
-0.992942
-0.777119
-0.601652
-0.461797
-0.352654
-0.269386
-0.20735
-0.162172
-0.129846
-0.106843
-0.0902607
-0.0778712
-0.0681125
-0.0599108
-0.0526119
-0.0457409
-0.039118
-0.0326154
-0.0262102
-0.0205599
-0.0138476
-0.0115681
0.00122663
-11.1413
-11.2703
-11.4308
-11.6274
-11.8662
-12.1545
-12.4988
-12.9023
-13.3633
-13.8719
-14.4081
-14.9416
-15.4338
-15.8431
-16.1316
-16.274
-16.2617
-16.1071
-15.8413
-15.5083
-15.1583
-14.8401
-14.5956
-14.4563
-14.4415
-14.558
-14.8008
-15.1546
-15.5954
-16.0913
-16.605
-17.0948
-17.5171
-17.8294
-17.9932
-17.9785
-17.7669
-17.3545
-16.7535
-15.992
-15.1108
-14.1603
-13.1962
-12.2754
-11.4519
-10.7744
-10.2838
-10.0113
-9.9759
-10.1812
-10.6115
-11.2281
-11.967
-12.7425
-13.457
-14.0144
-14.335
-14.368
-14.0986
-13.5484
-12.7693
-11.8309
-10.8073
-9.76408
-8.751
-7.79926
-6.9231
-6.1234
-5.39225
-4.71841
-4.09281
-3.51126
-2.97398
-2.48395
-2.04486
-1.65922
-1.3275
-1.04798
-0.817163
-0.630355
-0.48224
-0.367326
-0.280222
-0.215782
-0.169194
-0.136068
-0.112561
-0.0955442
-0.0826626
-0.072314
-0.0634519
-0.05547
-0.047971
-0.0407885
-0.0338773
-0.0270848
-0.0212561
-0.0141518
-0.0119065
0.0014708
-11.2729
-11.4056
-11.5674
-11.7617
-11.9928
-12.2661
-12.5853
-12.9516
-13.3617
-13.8062
-14.2683
-14.7235
-15.142
-15.4919
-15.7445
-15.8804
-15.8932
-15.7918
-15.5996
-15.3508
-15.0846
-14.8403
-14.6525
-14.5479
-14.5435
-14.6461
-14.8526
-15.1506
-15.5201
-15.9342
-16.3607
-16.7641
-17.1071
-17.3534
-17.4707
-17.4336
-17.2268
-16.8471
-16.3051
-15.6245
-14.8401
-13.9955
-13.1388
-12.3194
-11.585
-10.9786
-10.5365
-10.2858
-10.2428
-10.4094
-10.7707
-11.2919
-11.9173
-12.5733
-13.1765
-13.645
-13.9105
-13.9285
-13.6842
-13.1939
-12.4996
-11.6591
-10.7351
-9.78476
-8.85198
-7.96525
-7.13767
-6.36988
-5.65407
-4.97964
-4.33958
-3.73317
-3.16477
-2.6414
-2.17003
-1.75543
-1.39919
-1.09991
-0.853873
-0.655805
-0.499712
-0.379426
-0.288936
-0.22255
-0.17498
-0.141427