/*--------------------------------*- C++ -*----------------------------------*\
  =========                 |
  \\      /  F ield         | OpenFOAM: The Open Source CFD Toolbox
   \\    /   O peration     | Website:  https://openfoam.org
    \\  /    A nd           | Version:  10
     \\/     M anipulation  |
\*---------------------------------------------------------------------------*/
FoamFile
{
    format      ascii;
    class       surfaceScalarField;
    location    "0.135";
    object      phi;
}
// * * * * * * * * * * * * * * * * * * * * * * * * * * * * * * * * * * * * * //

dimensions      [0 3 -1 0 0 0 0];

internalField   nonuniform List<scalar> 
13452
(
5.94494e-05
8.1911e-07
5.84598e-05
9.89558e-07
5.74239e-05
1.03585e-06
5.63543e-05
1.06962e-06
5.52792e-05
1.07511e-06
5.421e-05
1.06921e-06
5.31501e-05
1.05992e-06
5.21012e-05
1.04891e-06
5.10638e-05
1.03735e-06
5.00377e-05
1.02612e-06
4.90219e-05
1.01581e-06
4.8015e-05
1.00689e-06
4.70152e-05
9.99819e-07
4.60201e-05
9.95057e-07
4.5027e-05
9.93104e-07
4.40325e-05
9.94517e-07
4.30326e-05
9.99936e-07
4.20225e-05
1.0101e-06
4.09966e-05
1.02587e-06
3.99483e-05
1.04825e-06
3.887e-05
1.07839e-06
3.77524e-05
1.1176e-06
3.6585e-05
1.16732e-06
3.53559e-05
1.22911e-06
3.40514e-05
1.30455e-06
3.26563e-05
1.39509e-06
3.11544e-05
1.50185e-06
2.95289e-05
1.6255e-06
2.77643e-05
1.76467e-06
2.58428e-05
1.92144e-06
2.37653e-05
2.0775e-06
2.14877e-05
2.27766e-06
2.39525e-06
1.90924e-05
6.24906e-05
3.18823e-07
6.29658e-05
5.14415e-07
6.34117e-05
5.89894e-07
6.38188e-05
6.62522e-07
6.41793e-05
7.14654e-07
6.44925e-05
7.56004e-07
6.47595e-05
7.92866e-07
6.49824e-05
8.26047e-07
6.51633e-05
8.56415e-07
6.53045e-05
8.84968e-07
6.54078e-05
9.12486e-07
6.5475e-05
9.3969e-07
6.55075e-05
9.67332e-07
6.55063e-05
9.96208e-07
6.54723e-05
1.02719e-06
6.54055e-05
1.06125e-06
6.5306e-05
1.09951e-06
6.51728e-05
1.14325e-06
6.50047e-05
1.19399e-06
6.47995e-05
1.25349e-06
6.4554e-05
1.32382e-06
6.42642e-05
1.4074e-06
6.39245e-05
1.50703e-06
6.35278e-05
1.62586e-06
6.30649e-05
1.76744e-06
6.25245e-05
1.9355e-06
6.18924e-05
2.1339e-06
6.11519e-05
2.36597e-06
6.0282e-05
2.63465e-06
5.92624e-05
2.94098e-06
5.80569e-05
3.28298e-06
5.66711e-05
3.66347e-06
4.0545e-06
5.50119e-05
6.38332e-05
2.47032e-07
6.39053e-05
4.42264e-07
6.3969e-05
5.26254e-07
6.40336e-05
5.97862e-07
6.40987e-05
6.49615e-07
6.41663e-05
6.88419e-07
6.42374e-05
7.21715e-07
6.43121e-05
7.51327e-07
6.43901e-05
7.78433e-07
6.44708e-05
8.04251e-07
6.45536e-05
8.297e-07
6.46378e-05
8.55556e-07
6.47225e-05
8.82585e-07
6.48072e-05
9.11565e-07
6.4891e-05
9.43327e-07
6.49735e-05
9.78788e-07
6.5054e-05
1.01899e-06
6.51321e-05
1.06513e-06
6.52075e-05
1.11861e-06
6.52799e-05
1.18107e-06
6.53493e-05
1.25444e-06
6.54157e-05
1.34098e-06
6.54794e-05
1.44332e-06
6.55408e-05
1.56451e-06
6.56002e-05
1.70797e-06
6.56582e-05
1.87752e-06
6.57148e-05
2.07728e-06
6.57695e-05
2.31127e-06
6.58205e-05
2.58366e-06
6.58646e-05
2.89691e-06
6.58945e-05
3.25312e-06
6.59079e-05
3.64998e-06
4.07349e-06
6.5889e-05
6.56392e-05
1.90863e-07
6.56875e-05
3.93989e-07
6.57176e-05
4.96201e-07
6.5738e-05
5.77446e-07
6.57497e-05
6.37927e-07
6.57546e-05
6.83529e-07
6.57541e-05
7.22156e-07
6.57491e-05
7.56369e-07
6.574e-05
7.87529e-07
6.57272e-05
8.17014e-07
6.5711e-05
8.45895e-07
6.56915e-05
8.75056e-07
6.56688e-05
9.05341e-07
6.56427e-05
9.37593e-07
6.56134e-05
9.72688e-07
6.55806e-05
1.01157e-06
6.55443e-05
1.05527e-06
6.55045e-05
1.10495e-06
6.54612e-05
1.16195e-06
6.54145e-05
1.22775e-06
6.53648e-05
1.30408e-06
6.5313e-05
1.39286e-06
6.526e-05
1.4963e-06
6.52077e-05
1.61679e-06
6.51587e-05
1.75696e-06
6.51167e-05
1.91954e-06
6.50867e-05
2.10732e-06
6.50751e-05
2.32281e-06
6.50907e-05
2.56808e-06
6.51432e-05
2.84444e-06
6.52456e-05
3.15069e-06
6.54089e-05
3.48665e-06
3.83195e-06
6.56505e-05
6.74891e-05
1.58514e-07
6.75263e-05
3.56869e-07
6.75543e-05
4.68165e-07
6.75772e-05
5.54531e-07
6.75935e-05
6.21624e-07
6.76031e-05
6.73946e-07
6.76067e-05
7.18563e-07
6.76046e-05
7.58403e-07
6.75972e-05
7.94978e-07
6.75845e-05
8.2976e-07
6.75664e-05
8.63934e-07
6.7543e-05
8.98477e-07
6.7514e-05
9.34303e-07
6.74793e-05
9.72319e-07
6.74385e-05
1.01345e-06
6.73914e-05
1.05868e-06
6.73376e-05
1.10906e-06
6.72768e-05
1.16578e-06
6.72086e-05
1.23013e-06
6.71328e-05
1.30357e-06
6.70492e-05
1.38772e-06
6.69577e-05
1.48434e-06
6.68586e-05
1.59539e-06
6.67525e-05
1.72291e-06
6.66404e-05
1.86903e-06
6.65241e-05
2.03581e-06
6.64063e-05
2.22511e-06
6.62907e-05
2.43842e-06
6.61824e-05
2.67638e-06
6.60881e-05
2.93879e-06
6.60165e-05
3.22228e-06
6.59779e-05
3.52522e-06
3.82931e-06
6.59805e-05
6.94103e-05
1.32249e-07
6.9445e-05
3.22149e-07
6.94719e-05
4.41302e-07
6.94926e-05
5.33789e-07
6.95068e-05
6.07436e-07
6.95146e-05
6.66106e-07
6.9517e-05
7.16197e-07
6.95144e-05
7.61018e-07
6.9507e-05
8.02377e-07
6.94949e-05
8.41843e-07
6.94781e-05
8.80716e-07
6.94565e-05
9.20061e-07
6.943e-05
9.6086e-07
6.93982e-05
1.00407e-06
6.9361e-05
1.05067e-06
6.9318e-05
1.10166e-06
6.9269e-05
1.15813e-06
6.92135e-05
1.22124e-06
6.91513e-05
1.29228e-06
6.90823e-05
1.37266e-06
6.90061e-05
1.46388e-06
6.89228e-05
1.56761e-06
6.88326e-05
1.68558e-06
6.8736e-05
1.81958e-06
6.86336e-05
1.97139e-06
6.85268e-05
2.14267e-06
6.84171e-05
2.33476e-06
6.8307e-05
2.54855e-06
6.81993e-05
2.78408e-06
6.80974e-05
3.04062e-06
6.80049e-05
3.31485e-06
6.79257e-05
3.60439e-06
3.89661e-06
6.78584e-05
7.13836e-05
1.14996e-07
7.14095e-05
2.96207e-07
7.14311e-05
4.19757e-07
7.14487e-05
5.1612e-07
7.14619e-05
5.94318e-07
7.14699e-05
6.58088e-07
7.14731e-05
7.13006e-07
7.14716e-05
7.62533e-07
7.14654e-05
8.08517e-07
7.14547e-05
8.5258e-07
7.14393e-05
8.96064e-07
7.14193e-05
9.40097e-07
7.13944e-05
9.85708e-07
7.13646e-05
1.0339e-06
7.13296e-05
1.08565e-06
7.12893e-05
1.142e-06
7.12434e-05
1.20403e-06
7.11918e-05
1.27287e-06
7.11343e-05
1.34976e-06
7.10709e-05
1.43603e-06
7.10017e-05
1.5331e-06
7.09269e-05
1.64243e-06
7.08469e-05
1.76557e-06
7.07624e-05
1.90405e-06
7.06745e-05
2.05929e-06
7.05846e-05
2.23259e-06
7.04945e-05
2.42488e-06
7.04063e-05
2.63667e-06
7.03227e-05
2.86769e-06
7.02464e-05
3.11701e-06
7.01793e-05
3.38194e-06
7.01232e-05
3.66042e-06
3.94448e-06
7.00753e-05
7.34181e-05
1.02195e-07
7.34404e-05
2.73907e-07
7.34607e-05
3.99465e-07
7.34776e-05
4.99174e-07
7.34902e-05
5.81724e-07
7.34977e-05
6.50546e-07
7.35004e-05
7.10335e-07
7.34985e-05
7.64475e-07
7.3492e-05
8.14994e-07
7.34811e-05
8.6351e-07
7.34657e-05
9.11427e-07
7.34459e-05
9.59928e-07
7.34215e-05
1.01008e-06
7.33925e-05
1.06292e-06
7.33587e-05
1.11946e-06
7.332e-05
1.18072e-06
7.32762e-05
1.24776e-06
7.32274e-05
1.3217e-06
7.31734e-05
1.4037e-06
7.31145e-05
1.495e-06
7.30507e-05
1.59687e-06
7.29825e-05
1.71062e-06
7.29105e-05
1.83757e-06
7.28356e-05
1.97899e-06
7.27589e-05
2.13599e-06
7.26819e-05
2.30953e-06
7.26066e-05
2.5002e-06
7.25351e-05
2.70819e-06
7.24697e-05
2.93307e-06
7.24129e-05
3.17387e-06
7.23663e-05
3.42851e-06
7.23313e-05
3.69544e-06
3.96957e-06
7.23062e-05
7.55117e-05
9.3003e-08
7.55292e-05
2.56352e-07
7.55459e-05
3.82745e-07
7.55601e-05
4.85023e-07
7.55709e-05
5.70943e-07
7.55775e-05
6.4387e-07
7.558e-05
7.07925e-07
7.55782e-05
7.66228e-07
7.55724e-05
8.20844e-07
7.55624e-05
8.7346e-07
7.55483e-05
9.25513e-07
7.553e-05
9.78211e-07
7.55075e-05
1.03264e-06
7.54806e-05
1.08983e-06
7.54492e-05
1.1508e-06
7.54134e-05
1.21655e-06
7.5373e-05
1.28812e-06
7.53282e-05
1.36656e-06
7.52789e-05
1.45296e-06
7.52255e-05
1.54845e-06
7.51682e-05
1.65416e-06
7.51076e-05
1.77124e-06
7.50443e-05
1.90079e-06
7.49795e-05
2.04381e-06
7.49143e-05
2.20118e-06
7.48503e-05
2.37353e-06
7.47893e-05
2.56122e-06
7.47333e-05
2.7642e-06
7.46844e-05
2.98195e-06
7.46447e-05
3.21358e-06
7.46157e-05
3.4575e-06
7.45985e-05
3.71263e-06
3.97561e-06
7.45925e-05
7.76664e-05
8.61847e-08
7.76808e-05
2.41954e-07
7.76956e-05
3.67908e-07
7.77087e-05
4.71947e-07
7.7719e-05
5.60678e-07
7.77256e-05
6.37281e-07
7.77283e-05
7.05212e-07
7.7727e-05
7.67458e-07
7.77218e-05
8.26066e-07
7.77126e-05
8.82672e-07
7.76994e-05
9.38698e-07
7.76823e-05
9.95368e-07
7.76611e-05
1.05379e-06
7.7636e-05
1.11499e-06
7.76068e-05
1.17997e-06
7.75736e-05
1.24973e-06
7.75365e-05
1.32523e-06
7.74956e-05
1.40749e-06
7.7451e-05
1.4975e-06
7.74032e-05
1.59627e-06
7.73525e-05
1.70481e-06
7.72997e-05
1.82408e-06
7.72455e-05
1.95497e-06
7.71911e-05
2.09828e-06
7.71376e-05
2.25462e-06
7.70867e-05
2.42441e-06
7.70402e-05
2.60778e-06
7.69998e-05
2.80454e-06
7.69677e-05
3.01413e-06
7.69455e-05
3.23575e-06
7.69348e-05
3.46814e-06
7.69369e-05
3.7106e-06
3.96067e-06
7.69518e-05
7.98835e-05
8.10482e-08
7.98951e-05
2.30322e-07
7.99077e-05
3.55318e-07
7.99189e-05
4.60673e-07
7.99279e-05
5.51742e-07
7.99337e-05
6.31471e-07
7.9936e-05
7.02862e-07
7.99349e-05
7.68634e-07
7.99301e-05
8.30794e-07
7.99218e-05
8.90967e-07
7.991e-05
9.50567e-07
7.98945e-05
1.01082e-06
7.98755e-05
1.07282e-06
7.98529e-05
1.13759e-06
7.98268e-05
1.2061e-06
7.97972e-05
1.27931e-06
7.97643e-05
1.35814e-06
7.97282e-05
1.44352e-06
7.96894e-05
1.53634e-06
7.96482e-05
1.63752e-06
7.96051e-05
1.74789e-06
7.95609e-05
1.86825e-06
7.95166e-05
1.99932e-06
7.94732e-05
2.14166e-06
7.94321e-05
2.29571e-06
7.93948e-05
2.46167e-06
7.93631e-05
2.6395e-06
7.93388e-05
2.8289e-06
7.93236e-05
3.02929e-06
7.93194e-05
3.23992e-06
7.93278e-05
3.45976e-06
7.93501e-05
3.68828e-06
3.92347e-06
7.93873e-05
8.21644e-05
7.70937e-08
8.21739e-05
2.20795e-07
8.21849e-05
3.4438e-07
8.21951e-05
4.50473e-07
8.22035e-05
5.4333e-07
8.22093e-05
6.25648e-07
8.22121e-05
7.00044e-07
8.22118e-05
7.6899e-07
8.22081e-05
8.3442e-07
8.22012e-05
8.97904e-07
8.2191e-05
9.60814e-07
8.21774e-05
1.02435e-06
8.21606e-05
1.0896e-06
8.21407e-05
1.15755e-06
8.21177e-05
1.22913e-06
8.20917e-05
1.30526e-06
8.2063e-05
1.3868e-06
8.2032e-05
1.47458e-06
8.19989e-05
1.56942e-06
8.19643e-05
1.67209e-06
8.19289e-05
1.7833e-06
8.18935e-05
1.90369e-06
8.1859e-05
2.03378e-06
8.18267e-05
2.17397e-06
8.17979e-05
2.32451e-06
8.17742e-05
2.48542e-06
8.17571e-05
2.65654e-06
8.17485e-05
2.83747e-06
8.17502e-05
3.02759e-06
8.1764e-05
3.22617e-06
8.17915e-05
3.4323e-06
8.18343e-05
3.64546e-06
3.86381e-06
8.18939e-05
8.45109e-05
7.39743e-08
8.45188e-05
2.12926e-07
8.45282e-05
3.3491e-07
8.45373e-05
4.41372e-07
8.4545e-05
5.35639e-07
8.45505e-05
6.20125e-07
8.45535e-05
6.97131e-07
8.45536e-05
7.68878e-07
8.45508e-05
8.37193e-07
8.45451e-05
9.03591e-07
8.45365e-05
9.69399e-07
8.45251e-05
1.03579e-06
8.45109e-05
1.10381e-06
8.4494e-05
1.17443e-06
8.44746e-05
1.24854e-06
8.44529e-05
1.32697e-06
8.44291e-05
1.41054e-06
8.44037e-05
1.49999e-06
8.43771e-05
1.59602e-06
8.43499e-05
1.6993e-06
8.43229e-05
1.81038e-06
8.42968e-05
1.92975e-06
8.42728e-05
2.0578e-06
8.4252e-05
2.19474e-06
8.42359e-05
2.34065e-06
8.42259e-05
2.49542e-06
8.42236e-05
2.65877e-06
8.42309e-05
2.8302e-06
8.42494e-05
3.00907e-06
8.4281e-05
3.19462e-06
8.43273e-05
3.38595e-06
8.43903e-05
3.58249e-06
3.78237e-06
8.44717e-05
8.69247e-05
7.14483e-08
8.69313e-05
2.06319e-07
8.69396e-05
3.26582e-07
8.6948e-05
4.3304e-07
8.69553e-05
5.28287e-07
8.6961e-05
6.14468e-07
8.69645e-05
6.93622e-07
8.69656e-05
7.67747e-07
8.69642e-05
8.38554e-07
8.69604e-05
9.07486e-07
8.69539e-05
9.75816e-07
8.69451e-05
1.04467e-06
8.69338e-05
1.11505e-06
8.69204e-05
1.18788e-06
8.69049e-05
1.26399e-06
8.68877e-05
1.34416e-06
8.68692e-05
1.42911e-06
8.68496e-05
1.51951e-06
8.68297e-05
1.61595e-06
8.681e-05
1.71897e-06
8.67914e-05
1.82901e-06
8.67747e-05
1.94642e-06
8.67611e-05
2.0714e-06
8.67518e-05
2.20406e-06
8.67481e-05
2.34433e-06
8.67516e-05
2.49197e-06
8.67638e-05
2.64658e-06
8.67864e-05
2.80761e-06
8.68211e-05
2.97434e-06
8.68697e-05
3.14598e-06
8.69341e-05
3.32158e-06
8.70161e-05
3.50047e-06
3.68073e-06
8.71178e-05
8.94076e-05
6.93399e-08
8.94133e-05
2.00651e-07
8.94208e-05
3.19138e-07
8.94285e-05
4.25298e-07
8.94356e-05
5.21173e-07
8.94414e-05
6.08651e-07
8.94455e-05
6.89549e-07
8.94476e-05
7.65657e-07
8.94476e-05
8.38559e-07
8.94455e-05
9.09619e-07
8.94412e-05
9.80043e-07
8.9435e-05
1.0509e-06
8.94269e-05
1.12315e-06
8.94171e-05
1.19765e-06
8.94059e-05
1.27518e-06
8.93936e-05
1.35646e-06
8.93806e-05
1.44211e-06
8.93674e-05
1.53272e-06
8.93546e-05
1.62878e-06
8.93429e-05
1.7307e-06
8.93331e-05
1.83881e-06
8.93262e-05
1.95332e-06
8.93233e-05
2.07432e-06
8.93255e-05
2.20178e-06
8.93344e-05
2.33549e-06
8.93512e-05
2.47512e-06
8.93776e-05
2.62019e-06
8.94152e-05
2.77005e-06
8.94656e-05
2.92393e-06
8.95306e-05
3.08099e-06
8.9612e-05
3.2402e-06
8.97117e-05
3.40077e-06
3.56078e-06
8.98316e-05
9.19617e-05
6.75191e-08
9.19667e-05
1.95652e-07
9.19735e-05
3.12319e-07
9.19809e-05
4.17905e-07
9.1988e-05
5.14045e-07
9.19943e-05
6.02402e-07
9.19992e-05
6.84602e-07
9.20026e-05
7.62252e-07
9.20044e-05
8.36813e-07
9.20044e-05
9.09563e-07
9.20028e-05
9.81636e-07
9.19997e-05
1.05404e-06
9.19952e-05
1.12767e-06
9.19895e-05
1.20333e-06
9.19829e-05
1.28173e-06
9.19759e-05
1.3635e-06
9.19688e-05
1.44921e-06
9.19622e-05
1.53934e-06
9.19567e-05
1.63427e-06
9.19531e-05
1.73432e-06
9.19522e-05
1.8397e-06
9.1955e-05
1.9505e-06
9.19626e-05
2.0667e-06
9.19763e-05
2.18813e-06
9.19972e-05
2.31452e-06
9.20269e-05
2.44542e-06
9.20668e-05
2.58027e-06
9.21185e-05
2.71837e-06
9.21836e-05
2.85888e-06
9.22637e-05
3.00091e-06
9.23605e-05
3.14337e-06
9.24759e-05
3.28537e-06
3.42499e-06
9.26117e-05
9.45888e-05
6.58863e-08
9.45933e-05
1.91098e-07
9.45998e-05
3.0589e-07
9.4607e-05
4.10644e-07
9.46144e-05
5.0671e-07
9.46212e-05
5.95556e-07
9.46272e-05
6.78641e-07
9.4632e-05
7.57412e-07
9.46356e-05
8.33204e-07
9.4638e-05
9.07206e-07
9.46391e-05
9.80474e-07
9.46392e-05
1.05395e-06
9.46385e-05
1.12845e-06
9.46371e-05
1.20473e-06
9.46354e-05
1.28342e-06
9.46338e-05
1.36508e-06
9.46328e-05
1.45019e-06
9.4633e-05
1.53914e-06
9.46351e-05
1.63223e-06
9.46397e-05
1.72968e-06
9.46478e-05
1.83157e-06
9.46604e-05
1.93791e-06
9.46786e-05
2.04857e-06
9.47034e-05
2.16329e-06
9.47362e-05
2.28171e-06
9.47783e-05
2.4033e-06
9.48312e-05
2.52743e-06
9.48962e-05
2.65336e-06
9.49748e-05
2.78021e-06
9.50687e-05
2.90703e-06
9.51794e-05
3.03271e-06
9.53085e-05
3.15626e-06
3.27584e-06
9.54576e-05
9.7291e-05
6.43624e-08
9.72953e-05
1.86795e-07
9.73016e-05
2.99629e-07
9.7309e-05
4.03296e-07
9.73167e-05
4.98946e-07
9.73244e-05
5.87883e-07
9.73316e-05
6.71423e-07
9.73382e-05
7.50869e-07
9.73439e-05
8.2744e-07
9.73489e-05
9.0223e-07
9.73532e-05
9.76216e-07
9.73568e-05
1.05026e-06
9.73601e-05
1.12514e-06
9.73634e-05
1.20149e-06
9.73669e-05
1.27991e-06
9.73711e-05
1.36087e-06
9.73765e-05
1.44478e-06
9.73837e-05
1.53192e-06
9.73934e-05
1.62253e-06
9.74064e-05
1.7167e-06
9.74235e-05
1.81446e-06
9.74457e-05
1.91571e-06
9.74741e-05
2.02022e-06
9.75097e-05
2.12768e-06
9.75538e-05
2.23762e-06
9.76076e-05
2.34949e-06
9.76724e-05
2.4626e-06
9.77496e-05
2.57616e-06
9.78406e-05
2.68928e-06
9.79466e-05
2.80098e-06
9.80692e-05
2.91015e-06
9.82097e-05
3.01576e-06
3.11609e-06
9.83694e-05
0.000100071
6.28825e-08
0.000100075
1.82577e-07
0.000100081
2.93332e-07
0.000100089
3.95649e-07
0.000100097
4.90541e-07
0.000100106
5.79178e-07
0.000100115
6.62749e-07
0.000100123
7.42431e-07
0.000100131
8.19332e-07
0.000100139
8.94451e-07
0.000100146
9.68684e-07
0.000100154
1.04282e-06
0.000100161
1.11755e-06
0.000100169
1.19347e-06
0.000100178
1.27107e-06
0.000100188
1.35076e-06
0.0001002
1.43287e-06
0.000100215
1.51761e-06
0.000100232
1.60512e-06
0.000100253
1.69544e-06
0.000100279
1.78848e-06
0.000100311
1.88408e-06
0.000100349
1.98196e-06
0.000100395
2.08171e-06
0.00010045
2.18283e-06
0.000100515
2.28472e-06
0.000100591
2.38667e-06
0.000100679
2.48787e-06
0.000100781
2.58742e-06
0.000100897
2.68436e-06
0.00010103
2.77759e-06
0.00010118
2.86608e-06
2.94828e-06
0.000101347
0.00010293
6.13919e-08
0.000102934
1.78299e-07
0.00010294
2.8681e-07
0.000102949
3.87497e-07
0.000102958
4.81283e-07
0.000102968
5.69222e-07
0.000102978
6.52397e-07
0.000102989
7.31868e-07
0.000102999
8.08638e-07
0.00010301
8.83617e-07
0.000103021
9.57617e-07
0.000103033
1.03135e-06
0.000103045
1.10544e-06
0.000103058
1.18039e-06
0.000103072
1.25665e-06
0.000103089
1.33454e-06
0.000103107
1.41431e-06
0.000103129
1.49612e-06
0.000103154
1.58001e-06
0.000103183
1.66596e-06
0.000103218
1.75382e-06
0.000103259
1.84335e-06
0.000103306
1.93421e-06
0.000103362
2.02597e-06
0.000103427
2.11809e-06
0.000103502
2.20993e-06
0.000103587
2.30077e-06
0.000103686
2.38982e-06
0.000103797
2.47619e-06
0.000103922
2.55894e-06
0.000104063
2.63705e-06
0.000104219
2.70952e-06
2.77497e-06
0.000104393
0.00010587
5.98433e-08
0.000105875
1.73832e-07
0.000105882
2.79886e-07
0.000105891
3.78644e-07
0.000105901
4.70963e-07
0.000105912
5.57804e-07
0.000105925
6.40152e-07
0.000105937
7.18966e-07
0.000105951
7.9515e-07
0.000105965
8.69525e-07
0.00010598
9.42821e-07
0.000105995
1.01567e-06
0.000106012
1.08863e-06
0.000106031
1.16214e-06
0.000106051
1.23655e-06
0.000106073
1.31215e-06
0.000106098
1.38909e-06
0.000106127
1.46748e-06
0.00010616
1.5473e-06
0.000106197
1.62845e-06
0.00010624
1.71074e-06
0.00010629
1.79388e-06
0.000106346
1.8775e-06
0.000106411
1.96111e-06
0.000106485
2.04417e-06
0.000106569
2.12604e-06
0.000106664
2.206e-06
0.00010677
2.28329e-06
0.000106889
2.35705e-06
0.000107022
2.42642e-06
0.000107169
2.49043e-06
0.00010733
2.54817e-06
2.59842e-06
0.000107506
0.000108895
5.81947e-08
0.0001089
1.69059e-07
0.000108907
2.72397e-07
0.000108917
3.68902e-07
0.000108929
4.5938e-07
0.000108942
5.44716e-07
0.000108956
6.25807e-07
0.000108972
7.03519e-07
0.000108988
7.78662e-07
0.000109006
8.51973e-07
0.000109024
9.24101e-07
0.000109044
9.95608e-07
0.000109066
1.06697e-06
0.00010909
1.13856e-06
0.000109115
1.21067e-06
0.000109144
1.28352e-06
0.000109176
1.35721e-06
0.000109212
1.43176e-06
0.000109252
1.50713e-06
0.000109297
1.58316e-06
0.000109348
1.65961e-06
0.000109406
1.73615e-06
0.000109471
1.8124e-06
0.000109544
1.88785e-06
0.000109627
1.96196e-06
0.000109719
2.03409e-06
0.000109821
2.10356e-06
0.000109935
2.16964e-06
0.00011006
2.23155e-06
0.000110198
2.28847e-06
0.000110349
2.33956e-06
0.000110513
2.38399e-06
2.42073e-06
0.000110691
0.000112006
5.64081e-08
0.000112011
1.63874e-07
0.00011202
2.6419e-07
0.00011203
3.58088e-07
0.000112044
4.46336e-07
0.000112058
5.29751e-07
0.000112075
6.09151e-07
0.000112093
6.85315e-07
0.000112113
7.58968e-07
0.000112134
8.30763e-07
0.000112157
9.01273e-07
0.000112182
9.70987e-07
0.000112208
1.04031e-06
0.000112237
1.10955e-06
0.000112269
1.17895e-06
0.000112304
1.24864e-06
0.000112342
1.3187e-06
0.000112385
1.38909e-06
0.000112433
1.45971e-06
0.000112485
1.53037e-06
0.000112544
1.60081e-06
0.00011261
1.67067e-06
0.000112683
1.73954e-06
0.000112763
1.80695e-06
0.000112853
1.87233e-06
0.000112952
1.9351e-06
0.000113061
1.99461e-06
0.00011318
2.05019e-06
0.000113311
2.10112e-06
0.000113453
2.14667e-06
0.000113606
2.18612e-06
0.000113771
2.21874e-06
2.24369e-06
0.000113948
0.000115206
5.44492e-08
0.000115212
1.58181e-07
0.000115221
2.55122e-07
0.000115233
3.46034e-07
0.000115248
4.3165e-07
0.000115265
5.12725e-07
0.000115284
5.90004e-07
0.000115305
6.64185e-07
0.000115328
7.35911e-07
0.000115353
8.05757e-07
0.00011538
8.7422e-07
0.00011541
9.41719e-07
0.000115441
1.00859e-06
0.000115476
1.07509e-06
0.000115513
1.1414e-06
0.000115554
1.2076e-06
0.000115599
1.27371e-06
0.000115649
1.33967e-06
0.000115703
1.40533e-06
0.000115763
1.47047e-06
0.000115829
1.53482e-06
0.000115902
1.59801e-06
0.000115982
1.65963e-06
0.000116069
1.7192e-06
0.000116165
1.77623e-06
0.00011627
1.83013e-06
0.000116385
1.88032e-06
0.000116509
1.9262e-06
0.000116643
1.96712e-06
0.000116787
2.00246e-06
0.000116941
2.03159e-06
0.000117106
2.05393e-06
2.0688e-06
0.000117281
0.000118498
5.22854e-08
0.000118504
1.51887e-07
0.000118514
2.45057e-07
0.000118528
3.32571e-07
0.000118544
4.1513e-07
0.000118564
4.93432e-07
0.000118586
5.68153e-07
0.00011861
6.39914e-07
0.000118636
7.09282e-07
0.000118665
7.76756e-07
0.000118697
8.42762e-07
0.000118731
9.07652e-07
0.000118768
9.71703e-07
0.000118808
1.03511e-06
0.000118851
1.09801e-06
0.000118898
1.16043e-06
0.00011895
1.22236e-06
0.000119006
1.28369e-06
0.000119067
1.34426e-06
0.000119133
1.40383e-06
0.000119206
1.46211e-06
0.000119285
1.51874e-06
0.000119372
1.57333e-06
0.000119465
1.62542e-06
0.000119567
1.67454e-06
0.000119677
1.72017e-06
0.000119796
1.76179e-06
0.000119923
1.79885e-06
0.000120059
1.83081e-06
0.000120205
1.85714e-06
0.000120359
1.87732e-06
0.000120522
1.89089e-06
1.89734e-06
0.000120693
0.000121884
4.98876e-08
0.000121891
1.44911e-07
0.000121902
2.33873e-07
0.000121917
3.1756e-07
0.000121935
3.96634e-07
0.000121957
4.71738e-07
0.000121982
5.43479e-07
0.000122009
6.12407e-07
0.00012204
6.79011e-07
0.000122073
7.43719e-07
0.000122108
8.06888e-07
0.000122147
8.6881e-07
0.000122189
9.29703e-07
0.000122235
9.89714e-07
0.000122284
1.04892e-06
0.000122337
1.10733e-06
0.000122394
1.16489e-06
0.000122457
1.22148e-06
0.000122524
1.2769e-06
0.000122597
1.33091e-06
0.000122676
1.38323e-06
0.000122761
1.43351e-06
0.000122853
1.48137e-06
0.000122952
1.5264e-06
0.000123058
1.56816e-06
0.000123172
1.60619e-06
0.000123294
1.64002e-06
0.000123424
1.6692e-06
0.000123561
1.69327e-06
0.000123707
1.71179e-06
0.00012386
1.72435e-06
0.00012402
1.7306e-06
1.73017e-06
0.000124187
0.000125366
4.7223e-08
0.000125374
1.37159e-07
0.000125386
2.21427e-07
0.000125403
3.00813e-07
0.000125424
3.75941e-07
0.000125448
4.47398e-07
0.000125476
5.15726e-07
0.000125507
5.81402e-07
0.000125541
6.44844e-07
0.000125578
7.06409e-07
0.000125619
7.66391e-07
0.000125663
8.25022e-07
0.00012571
8.82466e-07
0.000125761
9.38825e-07
0.000125816
9.94138e-07
0.000125874
1.04838e-06
0.000125938
1.10147e-06
0.000126006
1.15326e-06
0.000126079
1.20356e-06
0.000126158
1.25213e-06
0.000126243
1.29869e-06
0.000126333
1.34291e-06
0.00012643
1.38444e-06
0.000126534
1.4229e-06
0.000126644
1.45791e-06
0.000126761
1.48907e-06
0.000126885
1.51598e-06
0.000127016
1.53824e-06
0.000127154
1.5555e-06
0.000127298
1.56741e-06
0.000127449
1.57366e-06
0.000127606
1.57398e-06
1.56815e-06
0.000127768
0.000128948
4.42714e-08
0.000128957
1.28573e-07
0.00012897
2.07644e-07
0.000128989
2.82262e-07
0.000129012
3.53005e-07
0.000129039
4.20397e-07
0.00012907
4.84911e-07
0.000129104
5.46951e-07
0.000129142
6.06864e-07
0.000129184
6.64939e-07
0.000129229
7.21411e-07
0.000129277
7.76456e-07
0.000129329
8.30191e-07
0.000129386
8.82678e-07
0.000129446
9.3392e-07
0.00012951
9.83868e-07
0.000129579
1.03242e-06
0.000129653
1.07942e-06
0.000129732
1.12469e-06
0.000129816
1.16797e-06
0.000129906
1.20902e-06
0.000130001
1.24752e-06
0.000130103
1.28316e-06
0.00013021
1.31561e-06
0.000130323
1.34453e-06
0.000130443
1.36957e-06
0.000130568
1.39041e-06
0.0001307
1.40672e-06
0.000130837
1.41823e-06
0.00013098
1.42467e-06
0.000131128
1.42581e-06
0.00013128
1.42148e-06
1.41154e-06
0.000131437
0.000132632
4.09796e-08
0.000132642
1.19011e-07
0.000132657
1.92295e-07
0.000132678
2.61602e-07
0.000132703
3.27462e-07
0.000132734
3.90334e-07
0.000132768
4.50619e-07
0.000132806
5.08647e-07
0.000132848
5.64692e-07
0.000132894
6.18974e-07
0.000132944
6.71668e-07
0.000132998
7.22896e-07
0.000133055
7.72734e-07
0.000133117
8.21204e-07
0.000133182
8.68281e-07
0.000133252
9.13895e-07
0.000133327
9.57934e-07
0.000133406
1.00024e-06
0.00013349
1.04064e-06
0.000133579
1.07889e-06
0.000133673
1.11475e-06
0.000133773
1.14795e-06
0.000133878
1.17821e-06
0.000133988
1.20524e-06
0.000134104
1.22875e-06
0.000134225
1.24845e-06
0.000134351
1.26409e-06
0.000134483
1.27541e-06
0.000134619
1.28219e-06
0.000134759
1.28425e-06
0.000134903
1.28144e-06
0.000135051
1.27366e-06
1.26085e-06
0.000135202
0.000136422
3.73679e-08
0.000136432
1.08502e-07
0.000136449
1.75459e-07
0.000136472
2.38981e-07
0.0001365
2.99524e-07
0.000136533
3.57469e-07
0.00013657
4.13143e-07
0.000136612
4.66799e-07
0.000136658
5.18639e-07
0.000136708
5.6882e-07
0.000136762
6.17461e-07
0.000136821
6.64635e-07
0.000136883
7.10379e-07
0.00013695
7.54686e-07
0.00013702
7.9751e-07
0.000137095
8.38766e-07
0.000137175
8.78336e-07
0.000137259
9.16066e-07
0.000137348
9.51773e-07
0.000137442
9.85252e-07
0.00013754
1.01628e-06
0.000137644
1.04461e-06
0.000137752
1.07001e-06
0.000137865
1.09222e-06
0.000137982
1.11102e-06
0.000138105
1.12616e-06
0.000138231
1.13744e-06
0.000138362
1.14467e-06
0.000138497
1.14769e-06
0.000138635
1.14639e-06
0.000138775
1.14067e-06
0.000138918
1.13048e-06
1.11583e-06
0.000139063
0.00014032
3.32625e-08
0.000140332
9.6653e-08
0.000140351
1.56545e-07
0.000140376
2.13673e-07
0.000140407
2.684e-07
0.000140444
3.21013e-07
0.000140485
3.71743e-07
0.000140531
4.20751e-07
0.000140581
4.68153e-07
0.000140636
5.14038e-07
0.000140695
5.58466e-07
0.000140758
6.01467e-07
0.000140826
6.43037e-07
0.000140897
6.83148e-07
0.000140973
7.21735e-07
0.000141053
7.58703e-07
0.000141138
7.93932e-07
0.000141226
8.27272e-07
0.00014132
8.58554e-07
0.000141417
8.87591e-07
0.000141519
9.14185e-07
0.000141626
9.38128e-07
0.000141737
9.59214e-07
0.000141852
9.77237e-07
0.000141971
9.92005e-07
0.000142093
1.00334e-06
0.00014222
1.01108e-06
0.000142349
1.01509e-06
0.000142482
1.01526e-06
0.000142617
1.01154e-06
0.000142753
1.00386e-06
0.000142892
9.92254e-07
9.7674e-07
0.000143031
0.000144329
2.89152e-08
0.000144342
8.3903e-08
0.000144362
1.3619e-07
0.000144389
1.86437e-07
0.000144423
2.34875e-07
0.000144462
2.81706e-07
0.000144507
3.27081e-07
0.000144556
3.71066e-07
0.000144611
4.13699e-07
0.00014467
4.55003e-07
0.000144733
4.94983e-07
0.000144801
5.33626e-07
0.000144873
5.70897e-07
0.00014495
6.06742e-07
0.00014503
6.41083e-07
0.000145115
6.73818e-07
0.000145204
7.04826e-07
0.000145298
7.33967e-07
0.000145395
7.61085e-07
0.000145497
7.86014e-07
0.000145602
8.0858e-07
0.000145712
8.28608e-07
0.000145825
8.45926e-07
0.000145942
8.60367e-07
0.000146062
8.7178e-07
0.000146186
8.80027e-07
0.000146312
8.84994e-07
0.00014644
8.86589e-07
0.000146571
8.8475e-07
0.000146703
8.79444e-07
0.000146836
8.70667e-07
0.00014697
8.58453e-07
8.42862e-07
0.000147104
0.000148453
2.35148e-08
0.000148468
6.88173e-08
0.000148492
1.1263e-07
0.000148523
1.55491e-07
0.00014856
1.97342e-07
0.000148604
2.38215e-07
0.000148653
2.7812e-07
0.000148707
3.16998e-07
0.000148766
3.54793e-07
0.000148829
3.91463e-07
0.000148897
4.2696e-07
0.00014897
4.61232e-07
0.000149047
4.94218e-07
0.000149127
5.25846e-07
0.000149212
5.56028e-07
0.000149302
5.84662e-07
0.000149395
6.11633e-07
0.000149492
6.36811e-07
0.000149593
6.60058e-07
0.000149698
6.81231e-07
0.000149806
7.00182e-07
0.000149918
7.16766e-07
0.000150033
7.30843e-07
0.000150151
7.42283e-07
0.000150272
7.50969e-07
0.000150395
7.56802e-07
0.000150521
7.59702e-07
0.000150648
7.59615e-07
0.000150776
7.5651e-07
0.000150905
7.50385e-07
0.000151034
7.41264e-07
0.000151163
7.29203e-07
7.14279e-07
0.000151292
0.000152694
1.85028e-08
0.00015271
5.33349e-08
0.000152734
8.79594e-08
0.000152767
1.22664e-07
0.000152807
1.57179e-07
0.000152854
1.91488e-07
0.000152907
2.25463e-07
0.000152965
2.58872e-07
0.000153028
2.91546e-07
0.000153096
3.23363e-07
0.000153169
3.54218e-07
0.000153246
3.84014e-07
0.000153328
4.12665e-07
0.000153413
4.40083e-07
0.000153503
4.66173e-07
0.000153597
4.90832e-07
0.000153695
5.1395e-07
0.000153796
5.35411e-07
0.000153901
5.55093e-07
0.00015401
5.72874e-07
0.000154121
5.8863e-07
0.000154236
6.02243e-07
0.000154353
6.13604e-07
0.000154472
6.22611e-07
0.000154594
6.29178e-07
0.000154718
6.33236e-07
0.000154843
6.34735e-07
0.000154969
6.33645e-07
0.000155095
6.29958e-07
0.000155222
6.23691e-07
0.000155348
6.14883e-07
0.000155474
6.03598e-07
5.89917e-07
0.000155598
0.00015706
1.01763e-08
0.00015708
3.29087e-08
0.00015711
5.80739e-08
0.000157148
8.50349e-08
0.000157192
1.12597e-07
0.000157243
1.40629e-07
0.0001573
1.68858e-07
0.000157362
1.96898e-07
0.000157429
2.24498e-07
0.000157501
2.51485e-07
0.000157577
2.77702e-07
0.000157658
3.0303e-07
0.000157743
3.27368e-07
0.000157833
3.50624e-07
0.000157926
3.72702e-07
0.000158024
3.93505e-07
0.000158125
4.12932e-07
0.000158229
4.30882e-07
0.000158337
4.4725e-07
0.000158448
4.61935e-07
0.000158562
4.7484e-07
0.000158678
4.85871e-07
0.000158797
4.94944e-07
0.000158918
5.01987e-07
0.00015904
5.06939e-07
0.000159163
5.09754e-07
0.000159288
5.10404e-07
0.000159412
5.08879e-07
0.000159537
5.05187e-07
0.000159661
4.99357e-07
0.000159785
4.91435e-07
0.000159907
4.81489e-07
4.696e-07
0.000160027
0.000161545
4.07755e-09
0.000161565
1.22974e-08
0.000161597
2.6353e-08
0.000161638
4.38807e-08
0.000161687
6.3319e-08
0.000161743
8.46439e-08
0.000161805
1.06949e-07
0.000161873
1.29519e-07
0.000161945
1.51994e-07
0.000162022
1.74137e-07
0.000162104
1.95746e-07
0.000162191
2.16672e-07
0.000162281
2.36802e-07
0.000162376
2.56033e-07
0.000162474
2.74268e-07
0.000162576
2.9142e-07
0.000162682
3.074e-07
0.000162791
3.22122e-07
0.000162902
3.35505e-07
0.000163017
3.47467e-07
0.000163134
3.57934e-07
0.000163253
3.66835e-07
0.000163374
3.74109e-07
0.000163496
3.79704e-07
0.000163619
3.83577e-07
0.000163743
3.85701e-07
0.000163868
3.86061e-07
0.000163992
3.84656e-07
0.000164116
3.81502e-07
0.000164238
3.7663e-07
0.00016436
3.70085e-07
0.000164479
3.6193e-07
3.52236e-07
0.000164597
0.000166169
-1.08316e-08
0.000166197
-1.64851e-08
0.000166235
-1.09713e-08
0.000166279
-6.03546e-11
0.00016633
1.16173e-08
0.000166388
2.64436e-08
0.000166453
4.2828e-08
0.000166522
5.98795e-08
0.000166597
7.71436e-08
0.000166677
9.43246e-08
0.000166761
1.1116e-07
0.000166851
1.27517e-07
0.000166944
1.43293e-07
0.000167042
1.5839e-07
0.000167143
1.72724e-07
0.000167249
1.86218e-07
0.000167357
1.98796e-07
0.000167469
2.1039e-07
0.000167583
2.20934e-07
0.000167701
2.30365e-07
0.00016782
2.38627e-07
0.000167941
2.45667e-07
0.000168064
2.51443e-07
0.000168187
2.55917e-07
0.000168312
2.59065e-07
0.000168437
2.60869e-07
0.000168562
2.61325e-07
0.000168686
2.6044e-07
0.000168809
2.58231e-07
0.000168931
2.54729e-07
0.000169051
2.49975e-07
0.000169169
2.44023e-07
2.36932e-07
0.000169284
0.000170915
-2.55615e-08
0.000170953
-5.45046e-08
0.000171002
-5.95148e-08
0.00017106
-5.7874e-08
0.000171123
-5.16235e-08
0.000171191
-4.16321e-08
0.000171264
-2.9978e-08
0.000171341
-1.76361e-08
0.000171424
-5.0457e-09
0.00017151
7.70665e-09
0.000171601
2.01604e-08
0.000171696