/*--------------------------------*- C++ -*----------------------------------*\
  =========                 |
  \\      /  F ield         | OpenFOAM: The Open Source CFD Toolbox
   \\    /   O peration     | Website:  https://openfoam.org
    \\  /    A nd           | Version:  10
     \\/     M anipulation  |
\*---------------------------------------------------------------------------*/
FoamFile
{
    format      ascii;
    class       volVectorField;
    location    "0.135";
    object      U;
}
// * * * * * * * * * * * * * * * * * * * * * * * * * * * * * * * * * * * * * //

dimensions      [0 1 -1 0 0 0 0];

internalField   nonuniform List<vector> 
6820
(
(7.28167 0.0249198 0)
(7.17738 0.0403013 0)
(7.05331 0.0454179 0)
(6.92266 0.0482575 0)
(6.79188 0.04953 0)
(6.66142 0.0498919 0)
(6.53176 0.0497861 0)
(6.40341 0.0494061 0)
(6.27649 0.0488716 0)
(6.15097 0.0482661 0)
(6.02677 0.047646 0)
(5.90376 0.0470533 0)
(5.78174 0.0465232 0)
(5.66045 0.0460872 0)
(5.53959 0.0457759 0)
(5.41878 0.045621 0)
(5.29758 0.0456568 0)
(5.17546 0.045922 0)
(5.05179 0.0464609 0)
(4.92584 0.0473246 0)
(4.79674 0.0485718 0)
(4.66346 0.0502689 0)
(4.52483 0.0524889 0)
(4.37948 0.0553085 0)
(4.22584 0.058802 0)
(4.06215 0.0630317 0)
(3.88651 0.0680277 0)
(3.69687 0.0737918 0)
(3.4912 0.0801363 0)
(3.26775 0.087218 0)
(3.02365 0.0934023 0)
(2.76395 0.102224 0)
(2.46433 0.105571 0)
(7.35927 0.0260414 0)
(7.4211 0.0362047 0)
(7.4761 0.0383108 0)
(7.52613 0.0406783 0)
(7.57172 0.0424801 0)
(7.61169 0.0440432 0)
(7.64596 0.0456459 0)
(7.67488 0.0472973 0)
(7.69873 0.0490005 0)
(7.71774 0.0507713 0)
(7.73217 0.0526236 0)
(7.74223 0.054575 0)
(7.74811 0.0566505 0)
(7.74996 0.0588831 0)
(7.74788 0.0613146 0)
(7.74194 0.0639972 0)
(7.73213 0.066996 0)
(7.71842 0.070391 0)
(7.70067 0.0742804 0)
(7.67869 0.0787835 0)
(7.65217 0.0840449 0)
(7.62068 0.0902377 0)
(7.58366 0.0975672 0)
(7.54038 0.106272 0)
(7.48988 0.116623 0)
(7.43097 0.128917 0)
(7.36216 0.143464 0)
(7.28159 0.160561 0)
(7.18719 0.180427 0)
(7.07595 0.20335 0)
(6.9464 0.228698 0)
(6.79081 0.258593 0)
(6.62137 0.285861 0)
(7.33538 0.00709399 0)
(7.34528 0.0106403 0)
(7.35364 0.0135757 0)
(7.36055 0.0173766 0)
(7.36789 0.0206637 0)
(7.37557 0.0236078 0)
(7.38352 0.0264381 0)
(7.39189 0.0291651 0)
(7.40068 0.0318128 0)
(7.40983 0.0344271 0)
(7.41925 0.0370508 0)
(7.42886 0.0397266 0)
(7.43859 0.0425013 0)
(7.44835 0.0454272 0)
(7.45806 0.0485642 0)
(7.46764 0.0519822 0)
(7.47703 0.055764 0)
(7.48617 0.0600092 0)
(7.495 0.064838 0)
(7.50351 0.0703968 0)
(7.51166 0.0768632 0)
(7.51947 0.0844527 0)
(7.52695 0.093425 0)
(7.53413 0.10409 0)
(7.54107 0.116813 0)
(7.54782 0.132011 0)
(7.55443 0.150161 0)
(7.56087 0.171746 0)
(7.56704 0.197316 0)
(7.57267 0.227219 0)
(7.57719 0.262021 0)
(7.57989 0.30133 0)
(7.57991 0.345577 0)
(7.33491 0.00952426 0)
(7.34215 0.0208095 0)
(7.34705 0.026768 0)
(7.34946 0.0309587 0)
(7.35111 0.0338921 0)
(7.35208 0.0360933 0)
(7.3523 0.0379838 0)
(7.35196 0.0397161 0)
(7.35116 0.0413789 0)
(7.34993 0.0430484 0)
(7.34831 0.0447809 0)
(7.34631 0.0466232 0)
(7.34395 0.0486215 0)
(7.34123 0.0508238 0)
(7.33814 0.0532832 0)
(7.33467 0.0560601 0)
(7.33081 0.0592255 0)
(7.32656 0.0628635 0)
(7.32191 0.0670745 0)
(7.31687 0.0719787 0)
(7.31147 0.0777203 0)
(7.30578 0.0844713 0)
(7.29988 0.0924364 0)
(7.29394 0.101856 0)
(7.28819 0.113011 0)
(7.28299 0.126221 0)
(7.2788 0.141846 0)
(7.27628 0.160272 0)
(7.27622 0.1819 0)
(7.27977 0.207114 0)
(7.28789 0.236175 0)
(7.30283 0.269403 0)
(7.32382 0.305431 0)
(7.33397 0.00668277 0)
(7.33841 0.0135917 0)
(7.34239 0.0170086 0)
(7.34503 0.0201881 0)
(7.3471 0.023135 0)
(7.34856 0.0258323 0)
(7.34926 0.0284644 0)
(7.34933 0.0310728 0)
(7.34881 0.0336759 0)
(7.34772 0.0363107 0)
(7.34605 0.0390144 0)
(7.3438 0.0418239 0)
(7.34096 0.0447818 0)
(7.33751 0.0479373 0)
(7.33342 0.0513471 0)
(7.32865 0.0550772 0)
(7.32318 0.0592046 0)
(7.31697 0.0638194 0)
(7.30997 0.0690273 0)
(7.30215 0.0749518 0)
(7.29349 0.0817368 0)
(7.28398 0.089549 0)
(7.27362 0.0985791 0)
(7.26245 0.109042 0)
(7.25056 0.121175 0)
(7.2381 0.13523 0)
(7.2253 0.151469 0)
(7.21251 0.170141 0)
(7.20018 0.191457 0)
(7.18899 0.215573 0)
(7.17961 0.242411 0)
(7.17353 0.272021 0)
(7.17077 0.302897 0)
(7.33372 0.00571302 0)
(7.33741 0.0141828 0)
(7.34112 0.0201333 0)
(7.34359 0.0251016 0)
(7.34536 0.0291636 0)
(7.34654 0.0324877 0)
(7.34707 0.0354041 0)
(7.34704 0.0381012 0)
(7.34651 0.0406666 0)
(7.34549 0.0431882 0)
(7.34396 0.0457426 0)
(7.34194 0.048396 0)
(7.33941 0.0512113 0)
(7.33633 0.0542519 0)
(7.3327 0.0575842 0)
(7.32847 0.0612809 0)
(7.32362 0.0654233 0)
(7.31811 0.070104 0)
(7.3119 0.075429 0)
(7.30498 0.0815203 0)
(7.29731 0.0885168 0)
(7.28889 0.0965767 0)
(7.27972 0.105877 0)
(7.26984 0.116614 0)
(7.25931 0.128998 0)
(7.24822 0.143247 0)
(7.23674 0.159579 0)
(7.22506 0.178193 0)
(7.21346 0.199235 0)
(7.20231 0.222802 0)
(7.1919 0.24876 0)
(7.1828 0.277053 0)
(7.17489 0.30657 0)
(7.33343 0.00487973 0)
(7.3359 0.0123561 0)
(7.33868 0.01731 0)
(7.3407 0.0212323 0)
(7.34224 0.0245899 0)
(7.34335 0.0275665 0)
(7.34393 0.0303855 0)
(7.34401 0.0331351 0)
(7.34361 0.0359022 0)
(7.34275 0.0387435 0)
(7.34141 0.0417065 0)
(7.3396 0.0448354 0)
(7.3373 0.0481774 0)
(7.3345 0.0517859 0)
(7.33118 0.0557217 0)
(7.32731 0.0600537 0)
(7.32289 0.064861 0)
(7.31789 0.0702343 0)
(7.31229 0.0762773 0)
(7.30609 0.0831079 0)
(7.29928 0.0908597 0)
(7.29187 0.0996826 0)
(7.28391 0.109742 0)
(7.27544 0.121215 0)
(7.26656 0.134291 0)
(7.25739 0.149158 0)
(7.24809 0.165996 0)
(7.23888 0.184962 0)
(7.22999 0.20616 0)
(7.2217 0.229644 0)
(7.21425 0.255305 0)
(7.20792 0.283067 0)
(7.20257 0.312245 0)
(7.33329 0.00427896 0)
(7.33518 0.0115374 0)
(7.33758 0.0171225 0)
(7.3395 0.0219183 0)
(7.34096 0.026165 0)
(7.34198 0.0299201 0)
(7.34249 0.0333551 0)
(7.34252 0.0366428 0)
(7.3421 0.0398274 0)
(7.34123 0.0429824 0)
(7.33992 0.0461823 0)
(7.33817 0.049497 0)
(7.33596 0.0529945 0)
(7.3333 0.0567438 0)
(7.33017 0.0608165 0)
(7.32655 0.0652894 0)
(7.32244 0.0702475 0)
(7.31782 0.0757844 0)
(7.31269 0.0820045 0)
(7.30705 0.0890237 0)
(7.30092 0.0969703 0)
(7.29432 0.105984 0)
(7.2873 0.116216 0)
(7.27994 0.127826 0)
(7.27234 0.140975 0)
(7.26463 0.155825 0)
(7.25697 0.172522 0)
(7.24958 0.191191 0)
(7.24268 0.211913 0)
(7.23652 0.234725 0)
(7.23129 0.259556 0)
(7.2272 0.286369 0)
(7.22419 0.314765 0)
(7.33319 0.00385903 0)
(7.33456 0.0107164 0)
(7.33644 0.0161388 0)
(7.338 0.0206709 0)
(7.3392 0.0246238 0)
(7.34006 0.028144 0)
(7.34051 0.031423 0)
(7.34054 0.0345662 0)
(7.34017 0.0376933 0)
(7.33941 0.0408845 0)
(7.33824 0.0442053 0)
(7.33667 0.0477134 0)
(7.3347 0.0514651 0)
(7.3323 0.0555206 0)
(7.32947 0.0599454 0)
(7.32622 0.0648111 0)
(7.32252 0.0701968 0)
(7.31838 0.0761896 0)
(7.31381 0.0828862 0)
(7.30882 0.0903938 0)
(7.30344 0.0988297 0)
(7.2977 0.10832 0)
(7.29167 0.119001 0)
(7.28543 0.131008 0)
(7.27908 0.144483 0)
(7.27277 0.159558 0)
(7.26665 0.17635 0)
(7.26092 0.194957 0)
(7.25577 0.215438 0)
(7.25142 0.23782 0)
(7.24803 0.262062 0)
(7.24577 0.288154 0)
(7.24462 0.315866 0)
(7.33313 0.00354497 0)
(7.33415 0.0100785 0)
(7.3357 0.0155522 0)
(7.33709 0.0203195 0)
(7.33819 0.0246326 0)
(7.339 0.0285871 0)
(7.33945 0.0323053 0)
(7.33952 0.0359169 0)
(7.33922 0.0394858 0)
(7.33854 0.0430747 0)
(7.33748 0.0467491 0)
(7.33605 0.0505739 0)
(7.33425 0.0546143 0)
(7.33206 0.0589374 0)
(7.3295 0.0636131 0)
(7.32656 0.0687168 0)
(7.32324 0.0743294 0)
(7.31955 0.0805395 0)
(7.31551 0.087443 0)
(7.31115 0.0951429 0)
(7.30649 0.10375 0)
(7.30159 0.113379 0)
(7.29652 0.124152 0)
(7.29136 0.13619 0)
(7.28623 0.149611 0)
(7.28127 0.164526 0)
(7.27663 0.181032 0)
(7.27248 0.199205 0)
(7.269 0.219092 0)
(7.26639 0.240719 0)
(7.26479 0.264068 0)
(7.26437 0.289158 0)
(7.26513 0.315849 0)
(7.33309 0.00331219 0)
(7.33386 0.00955964 0)
(7.3351 0.0149727 0)
(7.33626 0.019729 0)
(7.3372 0.0240262 0)
(7.33789 0.0279662 0)
(7.33827 0.031673 0)
(7.33833 0.0352568 0)
(7.33806 0.0388101 0)
(7.33746 0.0424138 0)
(7.33654 0.0461411 0)
(7.33529 0.0500583 0)
(7.3337 0.054229 0)
(7.33179 0.058718 0)
(7.32956 0.0635931 0)
(7.327 0.0689252 0)
(7.32413 0.0747902 0)
(7.32096 0.0812694 0)
(7.31752 0.08845 0)
(7.31384 0.0964249 0)
(7.30995 0.105292 0)
(7.30593 0.115155 0)
(7.30185 0.126115 0)
(7.29779 0.138277 0)
(7.29389 0.151737 0)
(7.29025 0.166585 0)
(7.28704 0.182897 0)
(7.28442 0.200729 0)
(7.28256 0.220119 0)
(7.28163 0.241086 0)
(7.28178 0.263623 0)
(7.28316 0.28776 0)
(7.28583 0.313401 0)
(7.33306 0.0031344 0)
(7.33366 0.00913537 0)
(7.33466 0.0144918 0)
(7.33566 0.0193011 0)
(7.33651 0.0237274 0)
(7.33716 0.0278657 0)
(7.33755 0.0318149 0)
(7.33767 0.0356757 0)
(7.33749 0.0395263 0)
(7.33702 0.0434329 0)
(7.33626 0.0474588 0)
(7.3352 0.0516654 0)
(7.33384 0.0561147 0)
(7.33221 0.06087 0)
(7.33029 0.065997 0)
(7.3281 0.0715652 0)
(7.32566 0.0776488 0)
(7.32299 0.084326 0)
(7.32012 0.0916794 0)
(7.31709 0.0997953 0)
(7.31395 0.108763 0)
(7.31077 0.118673 0)
(7.30763 0.129616 0)
(7.30462 0.141679 0)
(7.30186 0.154942 0)
(7.29948 0.169478 0)
(7.29762 0.185344 0)
(7.29643 0.202585 0)
(7.29608 0.221226 0)
(7.29672 0.241282 0)
(7.29851 0.26275 0)
(7.30162 0.285658 0)
(7.30611 0.309921 0)
(7.33305 0.00299582 0)
(7.33351 0.00878747 0)
(7.33433 0.0140722 0)
(7.33519 0.0188879 0)
(7.33593 0.0233537 0)
(7.33652 0.0275508 0)
(7.33689 0.0315657 0)
(7.33703 0.035489 0)
(7.33692 0.0393996 0)
(7.33655 0.0433686 0)
(7.33593 0.0474642 0)
(7.33506 0.0517516 0)
(7.33395 0.0562944 0)
(7.3326 0.0611561 0)
(7.33102 0.0664019 0)
(7.32924 0.0720986 0)
(7.32726 0.0783154 0)
(7.32512 0.0851244 0)
(7.32285 0.0926 0)
(7.32051 0.100819 0)
(7.31814 0.109859 0)
(7.31581 0.119796 0)
(7.31361 0.130707 0)
(7.31164 0.142662 0)
(7.31001 0.155725 0)
(7.30884 0.169948 0)
(7.30827 0.185373 0)
(7.30845 0.20203 0)
(7.30952 0.219931 0)
(7.31165 0.239081 0)
(7.31498 0.259471 0)
(7.31969 0.281115 0)
(7.32587 0.303922 0)
(7.33304 0.00288505 0)
(7.33341 0.00849737 0)
(7.33408 0.0137065 0)
(7.33483 0.0185229 0)
(7.33551 0.0230394 0)
(7.33607 0.0273314 0)
(7.33647 0.0314764 0)
(7.33667 0.0355562 0)
(7.33666 0.0396441 0)
(7.33644 0.0438053 0)
(7.33601 0.0481021 0)
(7.33536 0.052594 0)
(7.33451 0.05734 0)
(7.33347 0.0623994 0)
(7.33224 0.0678325 0)
(7.33086 0.0737012 0)
(7.32935 0.0800697 0)
(7.32773 0.0870037 0)
(7.32606 0.0945706 0)
(7.32437 0.102838 0)
(7.32274 0.111874 0)
(7.32123 0.121744 0)
(7.31993 0.13251 0)
(7.31893 0.144228 0)
(7.31835 0.156947 0)
(7.31831 0.170706 0)
(7.31893 0.185531 0)
(7.32036 0.201438 0)
(7.32273 0.21843 0)
(7.32621 0.236498 0)
(7.33092 0.255623 0)
(7.33707 0.275802 0)
(7.34472 0.296931 0)
(7.33303 0.00279396 0)
(7.33333 0.00825129 0)
(7.33391 0.0133826 0)
(7.33457 0.0181845 0)
(7.33519 0.0227255 0)
(7.33573 0.0270696 0)
(7.33615 0.0312837 0)
(7.3364 0.0354399 0)
(7.33649 0.0396062 0)
(7.33641 0.0438459 0)
(7.33614 0.0482199 0)
(7.33571 0.0527878 0)
(7.33512 0.0576081 0)
(7.33439 0.0627388 0)
(7.33352 0.0682383 0)
(7.33255 0.0741655 0)
(7.33151 0.0805799 0)
(7.33042 0.0875411 0)
(7.32934 0.0951089 0)
(7.32832 0.103342 0)
(7.32742 0.112297 0)
(7.32671 0.122028 0)
(7.32629 0.132584 0)
(7.32623 0.144006 0)
(7.32666 0.156329 0)
(7.32768 0.169576 0)
(7.32942 0.183761 0)
(7.332 0.198884 0)
(7.33557 0.214935 0)
(7.34026 0.231892 0)
(7.34621 0.249719 0)
(7.35361 0.268395 0)
(7.36252 0.287798 0)
(7.33302 0.00271662 0)
(7.33328 0.00803726 0)
(7.33378 0.0130895 0)
(7.33438 0.0178663 0)
(7.33497 0.0224202 0)
(7.33551 0.0268083 0)
(7.33597 0.0310911 0)
(7.3363 0.0353344 0)
(7.33651 0.0396016 0)
(7.33658 0.0439525 0)
(7.33652 0.0484442 0)
(7.33633 0.0531323 0)
(7.33602 0.0580709 0)
(7.33561 0.0633133 0)
(7.33512 0.0689128 0)
(7.33457 0.0749223 0)
(7.334 0.0813948 0)
(7.33344 0.0883826 0)
(7.33294 0.0959371 0)
(7.33256 0.104108 0)
(7.33237 0.112941 0)
(7.33242 0.12248 0)
(7.33281 0.132759 0)
(7.33364 0.14381 0)
(7.33499 0.155654 0)
(7.33698 0.1683 0)
(7.33972 0.18175 0)
(7.34333 0.195991 0)
(7.34795 0.211001 0)
(7.3537 0.226744 0)
(7.3607 0.243172 0)
(7.36914 0.260241 0)
(7.37906 0.27782 0)
(7.33302 0.00264857 0)
(7.33324 0.00784539 0)
(7.33369 0.0128173 0)
(7.33425 0.0175581 0)
(7.33483 0.022109 0)
(7.33538 0.0265193 0)
(7.33589 0.0308427 0)
(7.33631 0.0351374 0)
(7.33664 0.0394612 0)
(7.33687 0.0438696 0)
(7.33701 0.0484163 0)
(7.33705 0.0531538 0)
(7.33702 0.0581332 0)
(7.33693 0.0634049 0)
(7.33681 0.0690184 0)
(7.33667 0.0750222 0)
(7.33656 0.0814641 0)
(7.33652 0.0883899 0)
(7.3366 0.0958437 0)
(7.33684 0.103866 0)
(7.33732 0.112495 0)
(7.3381 0.12176 0)
(7.33927 0.131689 0)
(7.34091 0.142299 0)
(7.34311 0.153599 0)
(7.34599 0.165587 0)
(7.34964 0.178251 0)
(7.35417 0.191569 0)
(7.35971 0.205504 0)
(7.36636 0.220009 0)
(7.37425 0.235022 0)
(7.38352 0.250481 0)
(7.39422 0.266247 0)
(7.33302 0.00258629 0)
(7.33322 0.00766729 0)
(7.33364 0.0125563 0)
(7.33417 0.0172507 0)
(7.33475 0.0217842 0)
(7.33534 0.0262005 0)
(7.33591 0.0305481 0)
(7.33643 0.0348798 0)
(7.3369 0.039249 0)
(7.3373 0.0437074 0)
(7.33765 0.0483051 0)
(7.33794 0.0530909 0)
(7.3382 0.0581119 0)
(7.33844 0.0634137 0)
(7.33869 0.0690406 0)
(7.33897 0.0750356 0)
(7.33933 0.0814394 0)
(7.33979 0.0882909 0)
(7.34041 0.0956257 0)
(7.34125 0.103476 0)
(7.34237 0.111869 0)
(7.34383 0.120827 0)
(7.34571 0.130365 0)
(7.3481 0.140489 0)
(7.35108 0.151198 0)
(7.35474 0.16248 0)
(7.35918 0.174312 0)
(7.36451 0.18666 0)
(7.37081 0.19948 0)
(7.3782 0.212713 0)
(7.38678 0.226285 0)
(7.39668 0.240124 0)
(7.40791 0.254086 0)
(7.33302 0.00252696 0)
(7.33321 0.00749575 0)
(7.33361 0.0122978 0)
(7.33414 0.016935 0)
(7.33473 0.0214361 0)
(7.33537 0.0258399 0)
(7.33601 0.03019 0)
(7.33664 0.0345339 0)
(7.33725 0.0389199 0)
(7.33783 0.0433951 0)
(7.33839 0.0480056 0)
(7.33893 0.0527959 0)
(7.33948 0.0578091 0)
(7.34005 0.0630865 0)
(7.34066 0.0686677 0)
(7.34134 0.0745903 0)
(7.34214 0.0808894 0)
(7.34309 0.0875975 0)
(7.34424 0.094743 0)
(7.34564 0.10235 0)
(7.34735 0.110438 0)
(7.34944 0.11902 0)
(7.35198 0.128101 0)
(7.35505 0.13768 0)
(7.35871 0.147744 0)
(7.36307 0.158273 0)
(7.3682 0.169235 0)
(7.37419 0.180589 0)
(7.38113 0.19228 0)
(7.38911 0.204242 0)
(7.3982 0.216394 0)
(7.40854 0.228653 0)
(7.4201 0.240879 0)
(7.33302 0.00246824 0)
(7.33321 0.00732451 0)
(7.3336 0.0120337 0)
(7.33414 0.0166021 0)
(7.33477 0.0210556 0)
(7.33546 0.025429 0)
(7.33618 0.0297619 0)
(7.33693 0.0340974 0)
(7.33769 0.0384792 0)
(7.33846 0.0429508 0)
(7.33923 0.0475541 0)
(7.34003 0.0523298 0)
(7.34087 0.0573165 0)
(7.34176 0.0625511 0)
(7.34273 0.068068 0)
(7.34381 0.0738993 0)
(7.34504 0.080074 0)
(7.34646 0.0866175 0)
(7.3481 0.0935513 0)
(7.35003 0.100892 0)
(7.3523 0.10865 0)
(7.35497 0.116831 0)
(7.3581 0.125431 0)
(7.36177 0.134441 0)
(7.36604 0.14384 0)
(7.37099 0.153601 0)
(7.37669 0.163684 0)
(7.38322 0.17404 0)
(7.39065 0.184609 0)
(7.39906 0.195321 0)
(7.40851 0.206091 0)
(7.41908 0.21683 0)
(7.43077 0.227405 0)
(7.33302 0.00240812 0)
(7.33321 0.00714804 0)
(7.33361 0.0117563 0)
(7.33417 0.0162435 0)
(7.33484 0.0206334 0)
(7.3356 0.0249577 0)
(7.33642 0.0292523 0)
(7.33729 0.0335561 0)
(7.33821 0.0379083 0)
(7.33916 0.0423481 0)
(7.34016 0.0469132 0)
(7.34121 0.0516398 0)
(7.34233 0.0565622 0)
(7.34354 0.0617125 0)
(7.34486 0.0671201 0)
(7.34633 0.0728119 0)
(7.34796 0.078811 0)
(7.34982 0.085137 0)
(7.35193 0.0918048 0)
(7.35435 0.0988244 0)
(7.35712 0.1062 0)
(7.36031 0.113929 0)
(7.36397 0.122001 0)
(7.36816 0.130401 0)
(7.37295 0.139101 0)
(7.3784 0.148067 0)
(7.38456 0.157256 0)
(7.39152 0.166613 0)
(7.39931 0.176076 0)
(7.40801 0.185571 0)
(7.41766 0.195013 0)
(7.42832 0.204312 0)
(7.43997 0.213343 0)
(7.33302 0.00234482 0)
(7.33322 0.00696139 0)
(7.33363 0.0114588 0)
(7.33423 0.0158511 0)
(7.33495 0.0201608 0)
(7.33578 0.0244172 0)
(7.33671 0.0286532 0)
(7.33772 0.0329034 0)
(7.33879 0.0372036 0)
(7.33994 0.0415886 0)
(7.34116 0.0460923 0)
(7.34246 0.0507467 0)
(7.34386 0.0555818 0)
(7.34538 0.0606251 0)
(7.34703 0.0659012 0)
(7.34886 0.0714317 0)
(7.35089 0.0772342 0)
(7.35315 0.0833224 0)
(7.3557 0.0897053 0)
(7.35856 0.0963865 0)
(7.36179 0.103364 0)
(7.36544 0.110629 0)
(7.36957 0.118165 0)
(7.37421 0.125951 0)
(7.37943 0.133955 0)
(7.38527 0.142139 0)
(7.3918 0.150454 0)
(7.39906 0.158844 0)
(7.4071 0.167246 0)
(7.41596 0.175586 0)
(7.42567 0.183781 0)
(7.43628 0.191743 0)
(7.44774 0.199358 0)
(7.33302 0.00227676 0)
(7.33323 0.00676006 0)
(7.33367 0.0111345 0)
(7.3343 0.0154168 0)
(7.33509 0.0196288 0)
(7.33601 0.0237974 0)
(7.33705 0.0279524 0)
(7.33819 0.0321251 0)
(7.33943 0.0363469 0)
(7.34077 0.0406489 0)
(7.34221 0.0450606 0)
(7.34376 0.0496099 0)
(7.34543 0.0543224 0)
(7.34725 0.0592211 0)
(7.34923 0.0643259 0)
(7.3514 0.0696535 0)
(7.35379 0.0752166 0)
(7.35644 0.0810237 0)
(7.35938 0.0870786 0)
(7.36265 0.0933797 0)
(7.36629 0.0999198 0)
(7.37034 0.106685 0)
(7.37486 0.113656 0)
(7.37988 0.120806 0)
(7.38545 0.128099 0)
(7.39161 0.135495 0)
(7.3984 0.142945 0)
(7.40587 0.150392 0)
(7.41403 0.157772 0)
(7.42294 0.165015 0)
(7.43259 0.172041 0)
(7.44303 0.178769 0)
(7.4542 0.185094 0)
(7.33302 0.00220253 0)
(7.33324 0.00654 0)
(7.33372 0.0107773 0)
(7.3344 0.0149337 0)
(7.33525 0.0190302 0)
(7.33627 0.023092 0)
(7.33742 0.0271462 0)
(7.3387 0.031221 0)
(7.34011 0.0353443 0)
(7.34164 0.0395433 0)
(7.34329 0.0438437 0)
(7.34508 0.0482693 0)
(7.34702 0.0528414 0)
(7.34912 0.0575787 0)
(7.3514 0.0624968 0)
(7.3539 0.0676076 0)
(7.35663 0.0729192 0)
(7.35962 0.0784353 0)
(7.36291 0.0841549 0)
(7.36654 0.0900719 0)
(7.37054 0.0961747 0)
(7.37494 0.102446 0)
(7.37978 0.108861 0)
(7.38511 0.115391 0)
(7.39095 0.121999 0)
(7.39734 0.128643 0)
(7.4043 0.135273 0)
(7.41188 0.141834 0)
(7.42008 0.148264 0)
(7.42893 0.154497 0)
(7.43843 0.160459 0)
(7.4486 0.166076 0)
(7.45938 0.171256 0)
(7.33302 0.00212078 0)
(7.33326 0.00629729 0)
(7.33377 0.0103813 0)
(7.33451 0.0143936 0)
(7.33544 0.0183544 0)
(7.33655 0.0222869 0)
(7.33783 0.0262155 0)
(7.33925 0.030165 0)
(7.34083 0.0341598 0)
(7.34255 0.0382233 0)
(7.34442 0.0423774 0)
(7.34644 0.046642 0)
(7.34863 0.0510347 0)
(7.35101 0.0555702 0)
(7.35358 0.06026 0)
(7.35638 0.0651121 0)
(7.35942 0.0701307 0)
(7.36273 0.0753155 0)
(7.36634 0.0806619 0)
(7.37028 0.0861601 0)
(7.37459 0.0917952 0)
(7.37928 0.0975469 0)
(7.38439 0.103389 0)
(7.38996 0.109291 0)
(7.396 0.115215 0)
(7.40254 0.121119 0)
(7.4096 0.126955 0)
(7.4172 0.13267 0)
(7.42535 0.138206 0)
(7.43407 0.143501 0)
(7.44333 0.14849 0)
(7.45316 0.153105 0)
(7.46349 0.157269 0)
(7.33302 0.00203031 0)
(7.33328 0.00602861 0)
(7.33383 0.00994191 0)
(7.33463 0.0137923 0)
(7.33564 0.0175998 0)
(7.33685 0.0213861 0)
(7.33825 0.0251734 0)
(7.33982 0.0289837 0)
(7.34156 0.0328379 0)
(7.34346 0.0367561 0)
(7.34553 0.0407563 0)
(7.34778 0.0448546 0)
(7.3502 0.0490644 0)
(7.35283 0.0533967 0)
(7.35567 0.0578589 0)
(7.35873 0.0624552 0)
(7.36205 0.067186 0)
(7.36565 0.0720475 0)
(7.36954 0.0770317 0)
(7.37375 0.0821257 0)
(7.37831 0.0873121 0)
(7.38324 0.0925686 0)
(7.38856 0.0978682 0)
(7.3943 0.103179 0)
(7.40047 0.108464 0)
(7.40709 0.113682 0)
(7.41418 0.118787 0)
(7.42174 0.12373 0)
(7.42977 0.128458 0)
(7.43828 0.132914 0)
(7.44726 0.137041 0)
(7.45669 0.14078 0)
(7.46652 0.144068 0)
(7.33303 0.00192987 0)
(7.3333 0.00572998 0)
(7.3339 0.00945175 0)
(7.33476 0.0131177 0)
(7.33586 0.0167465 0)
(7.33718 0.0203575 0)
(7.33871 0.0239705 0)
(7.34043 0.0276043 0)
(7.34233 0.031277 0)
(7.34442 0.0350051 0)
(7.3467 0.0388038 0)
(7.34916 0.0426859 0)
(7.35182 0.0466618 0)
(7.35468 0.0507394 0)
(7.35777 0.0549231 0)
(7.36109 0.0592143 0)
(7.36466 0.0636105 0)
(7.36851 0.0681053 0)
(7.37264 0.0726884 0)
(7.37708 0.077345 0)
(7.38185 0.0820565 0)
(7.38697 0.0867997 0)
(7.39245 0.0915472 0)
(7.39831 0.0962673 0)
(7.40455 0.100925 0)
(7.4112 0.10548 0)
(7.41825 0.10989 0)
(7.42571 0.11411 0)
(7.43356 0.118093 0)
(7.44182 0.121788 0)
(7.45045 0.125146 0)
(7.45945 0.128116 0)
(7.46875 0.130645 0)
(7.33303 0.00181846 0)
(7.33333 0.00539943 0)
(7.33397 0.00891067 0)
(7.3349 0.0123761 0)
(7.33608 0.0158144 0)
(7.3375 0.0192435 0)
(7.33915 0.0226808 0)
(7.34101 0.0261422 0)
(7.34307 0.0296422 0)
(7.34532 0.0331936 0)
(7.34778 0.0368077 0)
(7.35044 0.0404935 0)
(7.3533 0.0442578 0)
(7.35638 0.0481048 0)
(7.35969 0.0520358 0)
(7.36323 0.0560491 0)
(7.36702 0.0601394 0)
(7.37108 0.064298 0)
(7.37542 0.0685126 0)
(7.38005 0.0727672 0)
(7.38499 0.0770423 0)
(7.39024 0.0813144 0)
(7.39583 0.0855564 0)
(7.40176 0.089738 0)
(7.40803 0.0938255 0)
(7.41465 0.0977827 0)
(7.42162 0.101571 0)
(7.42893 0.105149 0)
(7.43657 0.108475 0)
(7.44454 0.111507 0)
(7.4528 0.114201 0)
(7.46135 0.116516 0)
(7.47013 0.118409 0)
(7.33303 0.00169453 0)
(7.33335 0.00503034 0)
(7.33405 0.00830241 0)
(7.33506 0.0115337 0)
(7.33634 0.0147408 0)
(7.33788 0.0179393 0)
(7.33966 0.0211447 0)
(7.34167 0.0243705 0)
(7.34389 0.0276292 0)
(7.34633 0.0309316 0)
(7.34897 0.0342865 0)
(7.35183 0.0377011 0)
(7.35489 0.0411799 0)
(7.35818 0.044725 0)
(7.36169 0.0483356 0)
(7.36543 0.0520081 0)
(7.36942 0.0557356 0)
(7.37367 0.0595082 0)
(7.37818 0.0633126 0)
(7.38296 0.0671322 0)
(7.38802 0.0709471 0)
(7.39338 0.0747342 0)
(7.39903 0.0784675 0)
(7.40498 0.0821182 0)
(7.41123 0.0856553 0)
(7.41778 0.0890456 0)
(7.42462 0.0922541 0)
(7.43175 0.095245 0)
(7.43914 0.0979817 0)
(7.44679 0.100428 0)
(7.45466 0.102547 0)
(7.46275 0.104306 0)
(7.47099 0.105669 0)
(7.33303 0.00155771 0)
(7.33338 0.00462674 0)
(7.33412 0.00764694 0)
(7.33519 0.0106438 0)
(7.33656 0.0136329 0)
(7.33819 0.0166273 0)
(7.34008 0.0196384 0)
(7.34222 0.0226754 0)
(7.34458 0.0257458 0)
(7.34717 0.028856 0)
(7.34997 0.0320109 0)
(7.35299 0.0352137 0)
(7.35623 0.0384658 0)
(7.35969 0.0417665 0)
(7.36338 0.0451124 0)
(7.3673 0.048498 0)
(7.37146 0.0519151 0)
(7.37586 0.0553529 0)
(7.3805 0.0587974 0)
(7.38541 0.062232 0)
(7.39057 0.0656373 0)
(7.39599 0.0689915 0)
(7.40167 0.0722703 0)
(7.40762 0.0754473 0)
(7.41382 0.0784945 0)
(7.42027 0.0813823 0)
(7.42697 0.0840804 0)
(7.43389 0.0865577 0)
(7.44102 0.0887834 0)
(7.44834 0.0907272 0)
(7.45584 0.0923596 0)
(7.46348 0.093653 0)
(7.47122 0.0945817 0)
(7.33304 0.00140426 0)
(7.33342 0.00416627 0)
(7.33423 0.00688154 0)
(7.3354 0.00957383 0)
(7.33688 0.0122573 0)
(7.33865 0.014945 0)
(7.34068 0.0176485 0)
(7.34297 0.020377 0)
(7.3455 0.0231372 0)
(7.34825 0.0259343 0)
(7.35122 0.0287719 0)
(7.35441 0.0316516 0)
(7.35782 0.0345733 0)
(7.36145 0.0375347 0)
(7.3653 0.0405314 0)
(7.36937 0.0435566 0)
(7.37366 0.046601 0)
(7.37819 0.0496529 0)
(7.38294 0.052698 0)
(7.38793 0.05572 0)
(7.39314 0.0587001 0)
(7.39859 0.0616174 0)
(7.40427 0.0644495 0)
(7.41017 0.0671723 0)
(7.41629 0.0697603 0)
(7.42261 0.0721876 0)
(7.42912 0.0744277 0)
(7.43581 0.0764539 0)
(7.44266 0.0782402 0)
(7.44965 0.0797616 0)
(7.45676 0.0809942 0)
(7.46395 0.0819162 0)
(7.47119 0.0825074 0)
(7.33304 0.00123787 0)
(7.33343 0.00368681 0)
(7.33428 0.00612493 0)
(7.33551 0.00857576 0)
(7.33705 0.0110454 0)
(7.33891 0.013538 0)
(7.34104 0.0160567 0)
(7.34344 0.018603 0)
(7.34609 0.0211776 0)
(7.34898 0.0237812 0)
(7.35209 0.0264137 0)
(7.35542 0.0290741 0)
(7.35898 0.0317599 0)
(7.36275 0.0344676 0)
(7.36674 0.0371918 0)
(7.37095 0.039925 0)
(7.37537 0.0426581 0)
(7.38 0.0453797 0)
(7.38484 0.0480765 0)
(7.3899 0.0507334 0)
(7.39516 0.0533334 0)
(7.40063 0.0558578 0)
(7.40629 0.0582869 0)
(7.41214 0.0605994 0)
(7.41816 0.0627738 0)
(7.42435 0.0647877 0)
(7.43069 0.066619 0)
(7.43716 0.0682458 0)
(7.44375 0.0696469 0)
(7.45043 0.0708023 0)
(7.45717 0.0716934 0)
(7.46396 0.0723038 0)
(7.47076 0.0726186 0)
(7.33305 0.00104111 0)
(7.33351 0.00307844 0)
(7.33448 0.00509337 0)
(7.33585 0.00711646 0)
(7.33755 0.00916051 0)
(7.33955 0.0112366 0)
(7.34184 0.0133517 0)
(7.34439 0.015507 0)
(7.34718 0.0177021 0)
(7.3502 0.0199358 0)
(7.35345 0.0222058 0)
(7.35692 0.0245088 0)
(7.3606 0.0268403 0)
(7.36449 0.0291947 0)
(7.36859 0.0315651 0)
(7.3729 0.0339428 0)
(7.3774 0.0363175 0)
(7.3821 0.0386774 0)
(7.387 0.0410093 0)
(7.39208 0.0432983 0)
(7.39735 0.0455283 0)
(7.40279 0.047682 0)
(7.40839 0.0497414 0)
(7.41415 0.0516878 0)
(7.42006 0.053502 0)
(7.42609 0.055165 0)
(7.43223 0.0566578 0)
(7.43847 0.0579623 0)
(7.44477 0.0590611 0)
(7.45113 0.0599382 0)
(7.45752 0.060579 0)
(7.46392 0.0609709 0)
(7.47028 0.0611027 0)
(7.33304 0.000849204 0)
(7.33348 0.00257392 0)
(7.33446 0.00436145 0)
(7.33586 0.00621133 0)
(7.33762 0.00810428 0)
(7.33971 0.0100335 0)
(7.3421 0.0119952 0)
(7.34477 0.0139843 0)
(7.34768 0.0159968 0)
(7.35084 0.0180294 0)
(7.35422 0.0200791 0)
(7.35782 0.0221422 0)
(7.36164 0.0242146 0)
(7.36565 0.0262916 0)
(7.36987 0.0283672 0)
(7.37428 0.0304339 0)
(7.37888 0.0324834 0)
(7.38366 0.0345055 0)
(7.38862 0.0364891 0)
(7.39374 0.0384218 0)
(7.39903 0.0402902 0)
(7.40446 0.0420798 0)
(7.41002 0.0437757 0)
(7.41572 0.0453624 0)
(7.42152 0.0468244 0)
(7.42741 0.0481462 0)
(7.43338 0.0493128 0)
(7.43941 0.0503097 0)
(7.44548 0.0511236 0)
(7.45157 0.0517422 0)
(7.45765 0.0521548 0)
(7.46371 0.0523524 0)
(7.46971 0.0523272 0)
(7.33308 0.000539395 0)
(7.33372 0.00158329 0)
(7.33492 0.00269027 0)
(7.33653 0.00389582 0)
(7.33845 0.00519638 0)
(7.34068 0.0065937 0)
(7.34319 0.00807557 0)
(7.34597 0.00962529 0)
(7.34898 0.0112308 0)
(7.35222 0.0128827 0)
(7.35569 0.0145716 0)
(7.35937 0.0162895 0)
(7.36325 0.0180283 0)
(7.36733 0.0197803 0)
(7.3716 0.0215371 0)
(7.37606 0.0232898 0)
(7.38069 0.0250288 0)
(7.38549 0.0267435 0)
(7.39045 0.0284227 0)
(7.39556 0.0300544 0)
(7.40081 0.0316262 0)
(7.40618 0.033125 0)
(7.41167 0.0345375 0)
(7.41726 0.0358506 0)
(7.42293 0.0370508 0)
(7.42868 0.0381254 0)
(7.43447 0.039062 0)
(7.44029 0.0398492 0)
(7.44612 0.0404763 0)
(7.45194 0.040934 0)
(7.45773 0.0412141 0)
(7.46347 0.04131 0)
(7.46912 0.0412165 0)
(7.33304 0.000409215 0)
(7.33358 0.00136554 0)
(7.33479 0.00248395 0)
(7.33648 0.00369586 0)
(7.33854 0.00493094 0)
(7.34094 0.00620809 0)
(7.34363 0.00752798 0)
(7.34656 0.0088774 0)
(7.34974 0.0102482 0)
(7.35314 0.0116355 0)
(7.35676 0.0130344 0)
(7.36058 0.0144407 0)
(7.3646 0.0158506 0)
(7.3688 0.0172595 0)
(7.37318 0.018662 0)
(7.37774 0.0200518 0)
(7.38245 0.0214219 0)
(7.38732 0.0227646 0)
(7.39232 0.0240715 0)
(7.39746 0.0253336 0)
(7.40271 0.0265414 0)
(7.40807 0.027685 0)
(7.41352 0.0287544 0)
(7.41904 0.0297394 0)
(7.42462 0.0306301 0)
(7.43024 0.0314167 0)
(7.43588 0.03209 0)
(7.44153 0.0326413 0)
(7.44716 0.0330629 0)
(7.45276 0.0333479 0)
(7.4583 0.0334904 0)
(7.46378 0.033486 0)
(7.46915 0.0333309 0)
(7.33315 -0.00031635 0)
(7.33413 -0.000789288 0)
(7.33566 -0.000828276 0)
(7.33747 -0.000533983 0)
(7.33956 3.59829e-05 0)
(7.34199 0.000802002 0)
(7.3447 0.00169735 0)
(7.34766 0.00268364 0)
(7.35085 0.00373617 0)
(7.35426 0.00483772 0)
(7.35789 0.00597246 0)
(7.36173 0.00712879 0)
(7.36576 0.00829763 0)
(7.36998 0.00947089 0)
(7.37437 0.010641 0)
(7.37894 0.0118006 0)
(7.38366 0.0129424 0)
(7.38852 0.0140588 0)
(7.39352 0.015142 0)
(7.39863 0.0161842 0)
(7.40385 0.017177 0)
(7.40916 0.0181122 0)
(7.41455 0.0189814 0)
(7.41999 0.0197764 0)
(7.42547 0.0204893 0)
(7.43098 0.0211123 0)
(7.43649 0.0216384 0)
(7.44199 0.0220612 0)
(7.44746 0.022375 0)
(7.45287 0.0225751 0)
(7.45822 0.0226577 0)
(7.46348 0.02262 0)
(7.46862 0.0224604 0)
(7.33311 -5.28176e-05 0)
(7.33421 9.26545e-05 0)
(7.33617 0.000451972 0)
(7.33851 0.000862289 0)
(7.34111 0.00137163 0)
(7.34394 0.00194263 0)
(7.34696 0.00253673 0)
(7.35018 0.00315193 0)
(7.35361 0.00379032 0)
(7.35723 0.00444695 0)
(7.36104 0.00512017 0)
(7.36504 0.00580762 0)
(7.36921 0.0065056 0)
(7.37356 0.00721 0)
(7.37806 0.00791659 0)
(7.38272 0.00862082 0)
(7.38752 0.00931783 0)
(7.39245 0.0100024 0)
(7.39749 0.0106692 0)
(7.40264 0.0113127 0)
(7.40787 0.011927 0)
(7.41318 0.0125066 0)
(7.41855 0.0130458 0)
(7.42395 0.0135389 0)
(7.42938 0.0139805 0)
(7.43482 0.0143655 0)
(7.44024 0.014689 0)
(7.44563 0.0149465 0)
(7.45098 0.0151341 0)
(7.45626 0.0152481 0)
(7.46145 0.0152855 0)
(7.46656 0.015244 0)
(7.47153 0.015121 0)
(7.33434 -0.00320616 0)
(7.33908 -0.00569966 0)
(7.34484 -0.00638527 0)
(7.35116 -0.00660709 0)
(7.35792 -0.00649184 0)
(7.3649 -0.00612437 0)
(7.37198 -0.00563183 0)
(7.37914 -0.0050747 0)
(7.38633 -0.0044798 0)
(7.39354 -0.0038686 0)
(7.40076 -0.00325161 0)
(7.40799 -0.0026353 0)
(7.41521 -0.00202462 0)
(7.42242 -0.00142327 0)
(7.42964 -0.000834269 0)
(7.43685 -0.000260447 0)
(7.44405 0.000295294 0)
(7.45124 0.000829896 0)
(7.45842 0.00134012 0)
(7.46557 0.00182255 0)
(7.47271 0.00227361 0)
(7.47982 0.00268966 0)
(7.4869 0.00306706 0)
(7.49394 0.00340229 0)
(7.50094 0.00369198 0)
(7.50788 0.00393307 0)
(7.51477 0.00412285 0)
(7.52158 0.00425902 0)
(7.52832 0.00433978 0)
(7.53497 0.00436378 0)
(7.54153 0.00433037 0)
(7.54798 0.004239 0)
(7.5543 0.00409087 0)
(7.32984 -0.00372437 0)
(7.32509 -0.00758841 0)
(7.31739 -0.00962575 0)
(7.30844 -0.0109987 0)
(7.2996 -0.0118418 0)
(7.29096 -0.0122796 0)
(7.2826 -0.0124674 0)
(7.27466 -0.0124956 0)
(7.2672 -0.0124145 0)
(7.26024 -0.0122576 0)
(7.25379 -0.0120505 0)
(7.24783 -0.0118097 0)
(7.24236 -0.0115465 0)
(7.23736 -0.0112691 0)
(7.2328 -0.0109835 0)
(7.22867 -0.0106948 0)
(7.22495 -0.0104074 0)
(7.22161 -0.0101252 0)
(7.21862 -0.00985222 0)
(7.21595 -0.00959209 0)
(7.21359 -0.00934843 0)
(7.21149 -0.00912468 0)
(7.20962 -0.00892407 0)
(7.20797 -0.00874957 0)
(7.20649 -0.0086038 0)
(7.20516 -0.00848896 0)
(7.20395 -0.00840683 0)
(7.20282 -0.00835865 0)
(7.20175 -0.00834508 0)
(7.2007 -0.00836627 0)
(7.19966 -0.00842141 0)
(7.19861 -0.00850972 0)
(7.1975 -0.00862755 0)
(2.16187 0.0841922 0)
(2.00713 0.0578163 0)
(1.75736 0.0849002 0)
(1.31661 0.00918502 0)
(0.514981 -0.211786 0)
(-0.67768 -0.413717 0)
(-0.3005 -0.127822 0)
(0.522693 0.716662 0)
(1.47326 1.74997 0)
(2.25289 2.66073 0)
(2.96924 3.27213 0)
(3.67896 3.4247 0)
(4.36873 3.03124 0)
(4.9896 2.135 0)
(5.50475 0.845669 0)
(5.8972 -0.636422 0)
(5.98108 -1.92144 0)
(5.75491 -2.74616 0)
(5.55471 -3.22383 0)
(5.4817 -3.43602 0)
(5.36992 -3.26724 0)
(5.16163 -2.68234 0)
(4.96177 -1.8332 0)
(4.88879 -0.915877 0)
(4.9918 -0.0571343 0)
(5.26096 0.701475 0)
(5.71837 1.36614 0)
(6.32119 1.9151 0)
(6.92766 2.28302 0)
(7.4315 2.43134 0)
(7.82581 2.37281 0)
(8.15612 2.13862 0)