/*--------------------------------*- C++ -*----------------------------------*\
  =========                 |
  \\      /  F ield         | OpenFOAM: The Open Source CFD Toolbox
   \\    /   O peration     | Website:  https://openfoam.org
    \\  /    A nd           | Version:  10
     \\/     M anipulation  |
\*---------------------------------------------------------------------------*/
FoamFile
{
    format      ascii;
    class       volScalarField;
    location    "0.14";
    object      k;
}
// * * * * * * * * * * * * * * * * * * * * * * * * * * * * * * * * * * * * * //

dimensions      [0 2 -2 0 0 0 0];

internalField   nonuniform List<scalar> 
6820
(
0.198342
0.194799
0.191186
0.187538
0.183903
0.180305
0.176753
0.173253
0.169804
0.166405
0.163055
0.159752
0.15649
0.153266
0.150074
0.146907
0.143755
0.14061
0.137458
0.134286
0.131074
0.127803
0.124448
0.120979
0.117361
0.113555
0.109514
0.105185
0.100511
0.0954089
0.0898372
0.0836625
0.076474
0.200926
0.200917
0.200514
0.200093
0.199681
0.199268
0.198847
0.198415
0.19797
0.19751
0.197037
0.196552
0.196056
0.195551
0.195039
0.194521
0.194
0.193476
0.192951
0.192424
0.191895
0.19136
0.190815
0.190253
0.189659
0.189018
0.188303
0.187481
0.186506
0.185311
0.183853
0.181903
0.179836
0.236703
0.0164976
0.0235058
0.0111859
0.0068677
0.00821965
0.00992522
0.012032
0.0143439
0.0167749
0.0192995
0.0219003
0.024567
0.0272937
0.0300784
0.0329219
0.0358285
0.0388053
0.0418625
0.0450139
0.0482764
0.0516703
0.0552193
0.0589504
0.0628929
0.0670775
0.0715351
0.0762931
0.0813733
0.0867883
0.092532
0.0985988
0.104896
0.210761
0.148037
0.1051
0.0798064
0.0642047
0.0536262
0.0458096
0.0396585
0.0346037
0.0303275
0.0266395
0.0234191
0.0205873
0.0180915
0.0158969
0.0139809
0.0123295
0.0109331
0.00978464
0.00887658
0.00819996
0.00774481
0.0075024
0.00746804
0.00764379
0.00804071
0.00868068
0.00959859
0.0108406
0.0124691
0.0145443
0.0171706
0.0203067
0.223484
0.0825565
0.0207183
0.00389936
0.000555475
0.000382705
0.000758368
0.00112777
0.00143684
0.00170544
0.00194657
0.002163
0.00235285
0.00251314
0.00264126
0.00273543
0.00279474
0.0028189
0.00280827
0.00276378
0.00268665
0.00257818
0.0024396
0.00227214
0.00207733
0.00185707
0.00161544
0.00135551
0.00108526
0.000821481
0.000585367
0.000403573
0.000302026
0.217318
0.113833
0.0519207
0.0281895
0.0191362
0.0147309
0.0116812
0.00903699
0.00657735
0.00442085
0.00274409
0.00159905
0.00090152
0.000511812
0.000305868
0.000200423
0.000148046
0.000123403
0.000114126
0.000113994
0.000119024
0.000126363
0.000133345
0.000138289
0.000134963
0.000139992
5.49535e-05
8.94576e-05
0.000300856
0.000404677
0.000161993
0.000368147
0.00029602
0.21301
0.135322
0.066149
0.0319098
0.0175433
0.0115498
0.00891263
0.00787558
0.0074779
0.00725179
0.00706306
0.00688509
0.00671574
0.00655405
0.00639629
0.00623754
0.0060737
0.00590226
0.00572172
0.00553199
0.00533488
0.00513284
0.00492833
0.00472352
0.00451931
0.00431686
0.00411062
0.00390872
0.00371622
0.0035135
0.00327951
0.00302192
0.00273475
0.203213
0.183989
0.130171
0.0683578
0.031895
0.0157636
0.00928055
0.00712211
0.00647867
0.00624117
0.00611415
0.00603274
0.00597917
0.0059435
0.0059193
0.00590343
0.00589459
0.00589118
0.00589034
0.00588826
0.00588123
0.00586687
0.005845
0.00581739
0.00578667
0.00575464
0.00572267
0.00568706
0.0056445
0.00559514
0.00553852
0.00546288
0.00536759
0.201805
0.190821
0.168505
0.125022
0.0761942
0.0413245
0.0224862
0.0162184
0.0143505
0.0135615
0.0130763
0.0126941
0.0123332
0.0119533
0.0115426
0.0111099
0.0106758
0.0102609
0.00987871
0.00953086
0.00920681
0.00889127
0.00857306
0.00825104
0.00793437
0.00763783
0.00737518
0.00715395
0.00697395
0.00682922
0.00671056
0.00660751
0.0065045
0.201147
0.194113
0.183762
0.165208
0.13108
0.0907655
0.0589157
0.0483665
0.0446717
0.0425962
0.0410443
0.0396524
0.038246
0.036739
0.0351027
0.0333523
0.0315244
0.029685
0.0279019
0.0262078
0.0245977
0.0230419
0.0215084
0.0199823
0.0184751
0.0170197
0.0156565
0.0144184
0.0133207
0.0123608
0.011523
0.0107871
0.0101225
0.200718
0.196271
0.190264
0.181955
0.16747
0.145183
0.121985
0.112628
0.106543
0.100964
0.0956962
0.0908786
0.0865496
0.0826343
0.0789024
0.0751911
0.0715115
0.0679288
0.0644883
0.0612
0.0580419
0.0549698
0.0519335
0.0488969
0.0458523
0.0428226
0.0398509
0.0369843
0.034259
0.0316937
0.029289
0.0270354
0.0248966
0.200463
0.197569
0.194052
0.189996
0.183988
0.174785
0.164239
0.1575
0.151477
0.145179
0.138936
0.133144
0.127896
0.123093
0.118453
0.113937
0.109636
0.105591
0.101791
0.0981978
0.0947586
0.0914124
0.0881011
0.0847794
0.0814214
0.0780219
0.0745917
0.0711492
0.0677131
0.0642965
0.0609035
0.0575328
0.0541476
0.200302
0.198389
0.196288
0.194195
0.191461
0.187537
0.182762
0.178569
0.174226
0.1692
0.163751
0.158235
0.152597
0.146965
0.141526
0.136504
0.131991
0.127973
0.124384
0.12114
0.118158
0.115362
0.112685
0.110075
0.107488
0.104893
0.102264
0.0995846
0.0968398
0.0940175
0.0911027
0.0880798
0.0849031
0.200204
0.198897
0.197613
0.196543
0.19529
0.193449
0.190903
0.187966
0.184655
0.180774
0.176464
0.17186
0.166939
0.161909
0.157045
0.152535
0.148458
0.144818
0.141572
0.138664
0.136031
0.133617
0.13137
0.129245
0.127202
0.125207
0.12323
0.121245
0.119227
0.117153
0.114998
0.112737
0.110319
0.200144
0.199213
0.198404
0.197868
0.197316
0.196427
0.195007
0.193048
0.190565
0.187499
0.183866
0.179724
0.17522
0.170606
0.166126
0.161952
0.15817
0.154802
0.151825
0.149194
0.146857
0.144762
0.142861
0.14111
0.139472
0.137915
0.136409
0.134932
0.133458
0.131966
0.130433
0.128837
0.127142
0.200108
0.199404
0.198861
0.198599
0.198383
0.197943
0.197073
0.195677
0.193736
0.191255
0.188261
0.184827
0.181105
0.177282
0.173536
0.17
0.166749
0.163812
0.161183
0.158838
0.156742
0.154858
0.153147
0.151578
0.150119
0.148745
0.147432
0.146156
0.144897
0.143636
0.142354
0.141039
0.139668
0.200087
0.199512
0.199105
0.198967
0.198899
0.198674
0.198107
0.197082
0.195539
0.193487
0.190973
0.188071
0.184908
0.181629
0.17838
0.175278
0.172399
0.169776
0.167417
0.165307
0.163419
0.161721
0.160181
0.158772
0.157466
0.156237
0.155061
0.153919
0.152796
0.151675
0.150541
0.149386
0.14819
0.200078
0.199564
0.199206
0.199099
0.199071
0.198926
0.198496
0.19766
0.196358
0.194598
0.192442
0.189987
0.187347
0.184617
0.181897
0.179275
0.176809
0.174531
0.172452
0.170563
0.16884
0.167254
0.165778
0.164392
0.163081
0.16183
0.160626
0.159459
0.158319
0.157193
0.156068
0.154943
0.153803
0.200076
0.199575
0.199204
0.199066
0.19901
0.198861
0.198471
0.197728
0.196577
0.195018
0.193102
0.190914
0.188558
0.186127
0.183705
0.181359
0.179131
0.177046
0.175111
0.173323
0.171671
0.170138
0.168707
0.167361
0.166086
0.164868
0.163697
0.162561
0.16145
0.160351
0.159256
0.15817
0.15709
0.20008
0.199553
0.199123
0.198908
0.198777
0.198572
0.198159
0.197441
0.196368
0.19494
0.193196
0.191211
0.189069
0.186857
0.184648
0.182497
0.180443
0.178505
0.176692
0.175002
0.173427
0.171957
0.170579
0.169281
0.168049
0.166872
0.16574
0.16464
0.163557
0.162484
0.161412
0.160354
0.159322
0.20009
0.199501
0.198973
0.198644
0.198401
0.198101
0.197624
0.196884
0.195838
0.194484
0.192858
0.191019
0.189039
0.186992
0.184941
0.182936
0.18101
0.179185
0.177468
0.175861
0.174356
0.172947
0.171623
0.170372
0.169185
0.168048
0.166947
0.165869
0.164803
0.163745
0.162689
0.161649
0.160656
0.200105
0.19942
0.198753
0.198276
0.197889
0.197462
0.196887
0.196091
0.195034
0.193718
0.192172
0.190447
0.188605
0.186707
0.184806
0.182944
0.181151
0.179444
0.177832
0.176315
0.174889
0.173546
0.172278
0.171076
0.169927
0.168813
0.167722
0.166645
0.165578
0.164514
0.163452
0.162407
0.161417
0.200127
0.199305
0.198453
0.19779
0.197228
0.196648
0.19595
0.19507
0.193976
0.192668
0.191171
0.18953
0.187795
0.186016
0.184239
0.182498
0.180818
0.179214
0.177693
0.176256
0.174898
0.173615
0.172397
0.171232
0.170102
0.168994
0.167901
0.166817
0.16574
0.164664
0.163589
0.162533
0.161535
0.200158
0.199145
0.198053
0.197158
0.196388
0.195626
0.194783
0.1938
0.19265
0.191332
0.189871
0.1883
0.186662
0.184997
0.18334
0.18172
0.180156
0.178658
0.177232
0.175877
0.174592
0.173368
0.172187
0.171036
0.169903
0.168785
0.167676
0.166573
0.165473
0.164373
0.163273
0.162192
0.161171
0.200199
0.198925
0.197519
0.196338
0.195321
0.194354
0.193349
0.192251
0.191033
0.189694
0.188251
0.186733
0.185172
0.183599
0.182043
0.180524
0.179057
0.177649
0.176305
0.175022
0.173793
0.172603
0.171436
0.170284
0.169143
0.168011
0.166885
0.165762
0.164639
0.163516
0.162391
0.161285
0.160238
0.200257
0.19862
0.196797
0.195253
0.193938
0.192731
0.191545
0.190323
0.189034
0.187675
0.186256
0.184795
0.183318
0.181845
0.180395
0.178983
0.177617
0.176304
0.175042
0.173819
0.172619
0.171433
0.170257
0.169089
0.167927
0.166771
0.165616
0.164463
0.163309
0.162153
0.160995
0.159855
0.158769
0.200338
0.198194
0.195815
0.19382
0.192158
0.190693
0.189322
0.187977
0.186621
0.185239
0.183834
0.182418
0.181005
0.179608
0.178241
0.176912
0.175626
0.17438
0.173166
0.171968
0.170774
0.169584
0.168398
0.167215
0.166035
0.164855
0.163676
0.162495
0.161313
0.160126
0.158937
0.157765
0.156642
0.200456
0.197574
0.194422
0.191831
0.189739
0.187972
0.186401
0.184937
0.183529
0.182149
0.180787
0.179441
0.178116
0.176818
0.175549
0.174315
0.173103
0.171895
0.170686
0.169473
0.168258
0.167042
0.165825
0.164608
0.16339
0.16217
0.160949
0.159724
0.158496
0.157263
0.156027
0.154805
0.153626
0.200628
0.196667
0.192471
0.189155
0.186597
0.184538
0.182789
0.181227
0.179775
0.178391
0.177053
0.175751
0.174482
0.173242
0.172025
0.170831
0.169637
0.16843
0.16721
0.16598
0.164741
0.163496
0.162246
0.16099
0.15973
0.158464
0.157193
0.155918
0.154636
0.153349
0.152058
0.150778
0.149533
0.200901
0.195228
0.189471
0.18514
0.181983
0.179594
0.177689
0.176083
0.174658
0.173344
0.172102
0.170906
0.169742
0.168577
0.167392
0.166186
0.164955
0.163703
0.162434
0.161148
0.159849
0.158538
0.157216
0.155884
0.154542
0.153191
0.151831
0.150463
0.149087
0.147704
0.146315
0.144934
0.143579
0.201321
0.193012
0.18518
0.179716
0.175995
0.173335
0.17131
0.169666
0.168236
0.166934
0.165707
0.164526
0.16337
0.162196
0.160987
0.159741
0.15846
0.157148
0.155807
0.154439
0.153047
0.151631
0.150193
0.148734
0.147257
0.145762
0.144251
0.142727
0.14119
0.139644
0.138089
0.13654
0.135008
0.202081
0.188987
0.177776
0.170693
0.166357
0.163579
0.161668
0.160222
0.158975
0.157804
0.156651
0.155485
0.154289
0.153051
0.151763
0.150425
0.149037
0.1476
0.146115
0.144582
0.143006
0.141387
0.139728
0.138033
0.136304
0.134547
0.132765
0.130962
0.129142
0.127308
0.125465
0.123624
0.121791
0.203727
0.180184
0.163344
0.154087
0.14903
0.146111
0.144273
0.142951
0.141824
0.140742
0.139631
0.138453
0.137186
0.13582
0.134351
0.132777
0.131099
0.12932
0.127441
0.125466
0.123399
0.121245
0.119012
0.116711
0.114354
0.111955
0.109531
0.107096
0.104663
0.102245
0.0998517
0.0974971
0.0951778
0.20788
0.158153
0.130185
0.117961
0.112748
0.110497
0.109452
0.108815
0.108225
0.107521
0.106635
0.10554
0.104232
0.102716
0.101006
0.0991155
0.0970605
0.094856
0.0925167
0.0900576
0.0874949
0.0848462
0.0821317
0.0793744
0.0765991
0.0738316
0.0710972
0.0684187
0.0658153
0.0633018
0.0608874
0.0585823
0.0563724
0.215589
0.119444
0.0816512
0.0691571
0.0652655
0.0642726
0.0642088
0.0643205
0.0643096
0.064062
0.0635463
0.062768
0.0617503
0.0605251
0.0591269
0.0575883
0.0559372
0.0541962
0.0523843
0.0505181
0.0486128
0.0466828
0.0447422
0.0428043
0.0408815
0.0389851
0.0371255
0.0353123
0.0335541
0.0318594
0.0302348
0.0286893
0.0272165
0.219345
0.100263
0.0597383
0.0476598
0.0438396
0.042298
0.0413275
0.0404301
0.0394739
0.038438
0.0373361
0.0361889
0.0350145
0.0338267
0.0326356
0.0314485
0.0302702
0.0291037
0.0279517
0.0268167
0.0257013
0.0246081
0.0235399
0.022499
0.0214866
0.0205035
0.0195497
0.0186254
0.0177309
0.0168671
0.0160351
0.0152378
0.0144732
0.212969
0.135424
0.0916072
0.0685426
0.055355
0.0469423
0.0410589
0.0366628
0.033223
0.0304382
0.0281276
0.0261735
0.0244961
0.0230391
0.0217608
0.0206302
0.0196236
0.0187224
0.0179119
0.0171797
0.0165158
0.0159125
0.0153627
0.01486
0.0143984
0.0139726
0.0135778
0.0132099
0.0128651
0.0125401
0.0122319
0.0119394
0.0116588
0.240258
0.000430713
0.0368913
0.0335463
0.000535346
0.000163663
0.00211984
0.000588811
0.00616421
0.00142192
0.0137689
0.00209492
4.64102e-06
0.000671841
0.000709714
0.000457683
0.00025394
0.000221589
0.000262111
0.000315361
0.000373817
0.000420091
0.000431264
0.000404166
0.000361581
0.000334136
0.000336255
0.000361586
0.000397317
0.000436301
0.000476504
0.000514555
0.000543238
0.200084
0.199936
0.199731
0.19952
0.19931
0.199097
0.19888
0.198655
0.198425
0.198179
0.197916
0.197635
0.19734
0.197031
0.196708
0.196373
0.196026
0.195672
0.19531
0.194943
0.194573
0.194202
0.193828
0.193453
0.193079
0.192708
0.192341
0.19198
0.191623
0.191274
0.190931
0.190598
0.19026
0.199876
0.199573
0.199251
0.198924
0.198599
0.198282
0.197976
0.197681
0.197399
0.19713
0.196872
0.196626
0.196392
0.196167
0.195952
0.195747
0.195549
0.19536
0.195177
0.195002
0.194831
0.194664
0.194501
0.194341
0.194183
0.194029
0.193877
0.193728
0.193581
0.193437
0.193295
0.193155
0.193016
0.0688377
0.0653654
0.0626962
0.0667284
0.0802205
0.114563
0.152253
0.170708
0.147886
0.0844099
0.0775745
0.0800055
0.0855518
0.0996609
0.127631
0.175114
0.243312
0.318209
0.352828
0.318289
0.240394
0.167774
0.121685
0.092971
0.0695351
0.0487374
0.0327367
0.0228885
0.018209
0.0189322
0.0269594
0.0399127
0.0522939
0.0608492
0.066018
0.0693466
0.0714749
0.072499
0.0727434
0.0724162
0.0711662
0.0684797
0.0634595
0.0554192
0.0452576
0.0353841
0.0280691
0.0243536
0.0239564
0.0276345
0.0359617
0.0381989
0.0613787
0.120957
0.185661
0.23222
0.258332
0.267108
0.259309
0.227744
0.161712
0.0862044
0.0489284
0.0600326
0.0923116
0.120397
0.136197
0.1423
0.143366
0.142519
0.141134
0.139578
0.137836
0.13585
0.133653
0.131369
0.129153
0.127095
0.125091
0.122708
0.119198
0.113765
0.106407
0.0961046
0.0740646
0.0400473
0.0145797
0.00763818
0.0157021
0.0309552
0.0440069
0.0491477
0.0465259
0.0404286
0.0360131
0.0354808
0.0386298
0.0391568
0.0364744
0.0257481
0.174573
0.16783
0.159889
0.155405
0.159784
0.165614
0.165607
0.16394
0.17728
0.140082
0.0836645
0.0785033
0.0870695
0.101976
0.130365
0.177978
0.244164
0.309786
0.33312
0.293478
0.218603
0.154233
0.114498
0.0870237
0.0621655
0.0402827
0.0242851
0.0148202
0.0103782
0.00938699
0.0132353
0.0232639
0.036772
0.0492458
0.0582223
0.0638046
0.0669949
0.0685565
0.0689213
0.0678311
0.0648604
0.0595784
0.0517143
0.0418759
0.0318647
0.0237506
0.0186973
0.0166576
0.0169369
0.0191713
0.0266145
0.0311586
0.04065
0.0800021
0.137857
0.187941
0.218336
0.228406
0.214888
0.170905
0.103616
0.051111
0.0428018
0.0688552
0.102412
0.126598
0.138679
0.142603
0.142685
0.141475
0.139986
0.138422
0.1367
0.134724
0.132504
0.130161
0.127866
0.125728
0.123642
0.121152
0.117432
0.111473
0.102862
0.0912037
0.0691904
0.035031
0.0110087
0.00657933
0.0163177
0.0320494
0.0446003
0.0488284
0.0454078
0.0389631
0.0346229
0.0342787
0.0375848
0.0381702
0.0355937
0.0250864
0.112704
0.120812
0.127293
0.131749
0.133429
0.129719
0.122253
0.117948
0.135121
0.159806
0.12178
0.0840752
0.0846353
0.100684
0.128005
0.17203
0.230346
0.282129
0.294615
0.253261
0.188268
0.137732
0.1055
0.0785931
0.0523888
0.0304616
0.0158066
0.00789901
0.00442877
0.00321286
0.00395458
0.00876437
0.0185673
0.0310245
0.0426777
0.0515164
0.0571082
0.0597421
0.0597787
0.0573325
0.0524492
0.0453014
0.0365074
0.0273937
0.0196444
0.0144888
0.0121412
0.0118692
0.012664
0.0138275
0.018203
0.0242469
0.028192
0.0473634
0.0878766
0.132014
0.162405
0.171031
0.150959
0.10461
0.0545182
0.0325285
0.0469758
0.0802391
0.111563
0.131309
0.140078
0.142282
0.141699
0.140316
0.138822
0.137282
0.135564
0.13355
0.13124
0.128769
0.126344
0.124102
0.121947
0.119397
0.115554
0.109245
0.0994799
0.0853001
0.0621338
0.029228
0.0082023
0.00657244
0.0177984
0.0337451
0.0457245
0.0492194
0.0451668
0.0382306
0.0336126
0.0331863
0.0366423
0.0374969
0.0352407
0.025008
0.0250082
0.0312242
0.0377135
0.0433162
0.0458683
0.0455802
0.0443128
0.0450574
0.0600017
0.10628
0.131731
0.106257
0.0868547
0.0943474
0.118773
0.157213
0.204223
0.241584
0.24377
0.204491
0.156034
0.121636
0.0947706
0.0668638
0.040026
0.0199215
0.008367
0.00317935
0.00127356
0.000627833
0.00034955
0.00121609
0.00516518
0.0127953
0.0224167
0.0315513
0.0383637
0.0419327
0.0422604
0.0396731
0.0347216
0.0281976
0.0211884
0.0149956
0.0107716
0.00903284
0.00940115
0.010781
0.0119346
0.012236
0.0131659
0.0174532
0.0206761
0.0272139
0.0473956
0.0760645
0.0985243
0.102015
0.0816977
0.0487489
0.0261896
0.0305554
0.0579718
0.092167
0.119268
0.134614
0.140588
0.141511
0.140527
0.139103
0.137653
0.136135
0.134382
0.132265
0.129788
0.127116
0.1245
0.122124
0.119908
0.117347
0.113467
0.106943
0.0963754
0.080007
0.0547661
0.023529
0.00636853
0.00737988
0.0197098
0.0353145
0.0460745
0.0483922
0.0437536
0.0367564
0.0323122
0.0320748
0.0357488
0.0368708
0.0349734
0.0251256
0.000375813
0.000806521
0.00163526
0.00272157
0.00374656
0.00449639
0.00537019
0.00716413
0.0125277
0.0421862
0.0931776
0.114239
0.101289
0.0929232
0.104914
0.133503
0.168173
0.191894
0.185989
0.156851
0.129363
0.10711
0.0809431
0.0515002
0.0263193
0.0104716
0.0033353
0.00129367
0.00117028
0.00133466
0.00111523
0.000433761
0.000312176
0.00223664
0.0065711
0.0120928
0.0172313
0.0205249
0.0214792
0.0202002
0.0172464
0.0134519
0.00980708
0.007329
0.00676672
0.00821216
0.010941
0.0136711
0.0150525
0.0145362
0.0128145
0.0130839
0.015254
0.0171589
0.0233204
0.0352286
0.045478
0.0443093
0.0316976
0.0188896
0.0197737
0.0395641
0.071432
0.103015
0.125328
0.136713
0.140429
0.140439
0.139242
0.137846
0.136447
0.134923
0.133079
0.130783
0.128054
0.125093
0.122214
0.119663
0.11739
0.114868
0.111041
0.104423
0.0933137
0.0755833
0.0490828
0.0195947
0.00574201
0.00865918
0.0215799
0.0364332
0.0457455
0.0469078
0.0418946
0.0350484
0.0308532
0.0307645
0.0345925
0.0360002
0.0345631
0.0252592
0.000270071
0.000461214
0.000309964
6.85689e-05
0.000111628
0.000321832
0.000458859
0.000158051
0.00146832
0.006752
0.0393805
0.0845079
0.104932
0.101957
0.100378
0.112162
0.131423
0.142922
0.136787
0.124526
0.111975
0.0913597
0.0621549
0.0335694
0.013654
0.00407625
0.00161889
0.00220256
0.00329128
0.00393492
0.00396735
0.00331351
0.00211079
0.00109255
0.00111042
0.00234169
0.00425848
0.00598511
0.00694671
0.00694794
0.00619038
0.00518866
0.00469113
0.00549591
0.00805642
0.0121089
0.0166579
0.0203244
0.0217716
0.0204721
0.0169805
0.013374
0.0122712
0.0124106
0.0130195
0.0151293
0.016802
0.0149747
0.011634
0.0135916
0.0272134
0.0531671
0.0847616
0.1123
0.129879
0.137807
0.139748
0.139145
0.137864
0.136527
0.135157
0.133577
0.131572
0.12901
0.12593
0.122585
0.119361
0.116585
0.114254
0.11183
0.108169
0.101622
0.0902325
0.0717894
0.0451623
0.0175805
0.00608452
0.0103174
0.0234672
0.0371939
0.0447877
0.0446933
0.0393348
0.0327697
0.0289894
0.0292076
0.0332827
0.0350123
0.0340433
0.025334
0.00212779
0.00177097
0.00163016
0.00155134
0.00149493
0.00143539
0.00133685
0.000873643
0.000117052
0.00160814
0.00789288
0.0385515
0.0762227
0.097446
0.102891
0.106281
0.112478
0.116016
0.11498
0.110417
0.0955838
0.0686059
0.0389652
0.0165571
0.00500404
0.00197258
0.00311638
0.00519018
0.00674271
0.00740322
0.0073465
0.00681414
0.00586974
0.00459962
0.00334796
0.00249628
0.00218478
0.00228261
0.00256613
0.00286818
0.00324203
0.0040438
0.00587508
0.00927977
0.0143059
0.0202861
0.0260068
0.0300904
0.0313291
0.0292739
0.0245396
0.018457
0.0136051
0.0111868
0.0100352
0.00933806
0.00885581
0.00903845
0.0117488
0.0209941
0.0400494
0.0676954
0.0970091
0.119946
0.13303
0.138031
0.138649
0.137679
0.136395
0.135109
0.133726
0.13202
0.129763
0.126829
0.123289
0.119456
0.115802
0.112745
0.110351
0.108086
0.104723
0.0984465
0.0870894
0.0685109
0.0425553
0.0170714
0.00725934
0.0123983
0.0253104
0.037558
0.0434316
0.0423086
0.0367918
0.0305414
0.0270932
0.0275106
0.0317598
0.0338187
0.0333667
0.025327
0.00504678
0.00456966
0.00440711
0.00433784
0.00425732
0.00413263
0.00393924
0.00351946
0.0027776
0.00126397
0.000930275
0.00885204
0.0335061
0.063565
0.0849477
0.0963787
0.102101
0.104036
0.10202
0.0901541
0.0665078
0.0389144
0.0169983
0.00522212
0.0021833
0.0038798
0.00698945
0.00975841
0.0115464
0.0122006
0.0118839
0.0109854
0.00985049
0.00864643
0.00745966
0.00638171
0.00552875
0.00499958
0.0048823
0.00526885
0.006381
0.00862585
0.0124531
0.0180125
0.0248585
0.031976
0.038079
0.0419276
0.0425379
0.0396308
0.0338987
0.0265172
0.0193031
0.0141265
0.0113237
0.0101553
0.0104352
0.0128981
0.0192466
0.0325451
0.0544511
0.0819592
0.107842
0.125874
0.134845
0.137506
0.137224
0.136071
0.134818
0.133549
0.132082
0.130155
0.12753
0.124099
0.119981
0.115558
0.111393
0.108003
0.105538
0.103489
0.100564
0.0947905
0.0838299
0.0656804
0.0409807
0.0177042
0.00915542
0.0148376
0.0269968
0.0374416
0.0416081
0.0396121
0.034042
0.0281399
0.0250401
0.0256923
0.0301342
0.0325242
0.0325714
0.0252167
0.00632729
0.0060801
0.00595721
0.00589821
0.00584878
0.00578178
0.00567348
0.00547147
0.00507715
0.00422219
0.00235339
0.000256853
0.00622421
0.0233588
0.0443705
0.0612985
0.0710274
0.0734752
0.0669803
0.0505074
0.0299176
0.0129725
0.00387412
0.00204721
0.00449573
0.00860842
0.0129061
0.0165349
0.0190011
0.0200761
0.0197996
0.0184995
0.0166737
0.0147732
0.0130895
0.0117641
0.010862
0.0104521
0.0106943
0.0118308
0.0142064
0.0181812
0.0239051
0.0310644
0.0388235
0.0460447
0.0515774
0.0544314
0.0538844
0.0498661
0.0431798
0.0350691
0.0269811
0.020397
0.0162865
0.0147907
0.0159289
0.0203494
0.0296544
0.0461089
0.0695655
0.0954036
0.116857
0.129962
0.135427
0.136377
0.135553
0.134333
0.1331
0.13178
0.130128
0.127849
0.12471
0.120643
0.115832
0.11074
0.10601
0.102253
0.0997102
0.0979238
0.0955689
0.0905424
0.0803653
0.063179
0.0401968
0.019216
0.0117382
0.0174748
0.0283379
0.0367864
0.0394053
0.0368039
0.0313596
0.0258364
0.0230078
0.023788
0.0283455
0.0310649
0.0316517
0.0250634
0.0094129
0.00867049
0.00807329
0.00761213
0.00724409
0.00693632
0.00666414
0.00641425
0.0061414
0.00586256
0.00502347
0.00275075
0.000699308
0.00308857
0.0109832
0.0207549
0.0278308
0.0289232
0.0229512
0.0135243
0.00537594
0.00148699
0.00192599
0.0052247
0.0101846
0.0160368
0.0219689
0.0270915
0.0307403
0.0326256
0.0327756
0.031485
0.0292378
0.0266027
0.0240984
0.022109
0.0208784
0.0205823
0.0214299
0.0236476
0.027453
0.0329179
0.0397841
0.047377
0.0547306
0.0608413
0.0648256
0.0659487
0.0637104
0.058239
0.0504866
0.04184
0.0336642
0.0271005
0.0229841
0.0218321
0.0240493
0.0304471
0.0424513
0.0611938
0.0846143
0.107216
0.123628
0.132224
0.134974
0.134805
0.133697
0.132451
0.131181
0.129704
0.127718
0.124916
0.121093
0.116254
0.110669
0.104875
0.099578
0.0954574
0.0928391
0.0913442
0.0896623
0.0856081
0.0765954
0.0608668
0.0399741
0.0213373
0.0148236
0.0200703
0.0291917
0.0355861
0.0368452
0.0338415
0.0286317
0.0235105
0.0209344
0.0218212
0.0264741
0.0295205
0.0306528
0.0248929
0.022562
0.020052
0.0177864
0.0157976
0.014032
0.0124273
0.010938
0.00955534
0.00831658
0.00731631
0.00656803
0.00562872
0.00375654
0.00158885
0.000829375
0.00188898
0.00330899
0.00322785
0.00167222
0.000461269
0.000814884
0.00292202
0.00669998
0.0123036
0.0196295
0.027881
0.0358439
0.0424554
0.0471279
0.0497291
0.0504093
0.0495011
0.0474447
0.044757
0.0419883
0.0396553
0.0381817
0.0378992
0.0390714
0.0418435
0.0462022
0.0518905
0.0583522
0.0647942
0.0703671
0.0743243
0.0760213
0.0748796
0.0705448
0.0633308
0.0543833
0.0452794
0.0373928
0.0316929
0.02878
0.0291136
0.0332388
0.0421135
0.0567261
0.0766883
0.0983942
0.116597
0.127987
0.132883
0.133746
0.132921
0.131669
0.130371
0.128958
0.12716
0.124638
0.121104
0.116427
0.110718
0.104346
0.0979034
0.0921207
0.0876978
0.0850241
0.0838211
0.0828566
0.0799386
0.0724191
0.0585785
0.0400734
0.0237812
0.0180607
0.0223547
0.0294635
0.0338821
0.0340202
0.0308363
0.0259985
0.0213182
0.0189445
0.0198398
0.0244987
0.0278508
0.0295638
0.0247347
0.0502324
0.0457533
0.0413785
0.0372307
0.033281
0.0294382
0.0256186
0.0217951
0.0180385
0.0145264
0.0115409
0.0092732
0.00742526
0.00548326
0.00349888
0.00196922
0.00111897
0.000965824
0.00169724
0.00320588
0.00569419
0.00976067
0.0161233
0.0248871
0.0351741
0.0455189
0.0545748
0.0615766
0.0663599
0.0690665
0.069995
0.0695276
0.0680612
0.0659923
0.0637397
0.061751
0.0604553
0.0602141
0.0612707
0.0636857
0.067294
0.0716895
0.0762688
0.0803506
0.0833114
0.084616
0.0837242
0.0800965
0.0734874
0.0644316
0.0543414
0.0449796
0.0377968
0.0336254
0.0328589
0.0357589
0.0428248
0.0547967
0.0716414
0.0913797
0.109836
0.123132
0.130116
0.132297
0.131978
0.130791
0.129428
0.127984
0.126253
0.1239
0.120589
0.116104
0.110447
0.10386
0.0968029
0.0898904
0.0838135
0.079228
0.0765439
0.0755953
0.0753022
0.0735702
0.0677615
0.056137
0.0402353
0.0262305
0.0210867
0.0241129
0.0291296
0.0317481
0.0309935
0.0277907
0.0234114
0.0192051
0.0170215
0.017882
0.0224903
0.0261133
0.0284001
0.024568
0.0810537
0.076408
0.0715683
0.0666772
0.0617436
0.0566624
0.0512956
0.0455498
0.0394427
0.0331433
0.0269938
0.0214624
0.01693
0.0134358
0.0107905
0.00890338
0.00787902
0.00790043
0.00904983
0.0116301
0.0162926
0.0236466
0.0336327
0.0452592
0.0569776
0.0673529
0.0755206
0.0812934
0.0850046
0.087009
0.0876489
0.0873184
0.0863807
0.085111
0.0837372
0.0825049
0.0816851
0.081516
0.0821503
0.083595
0.085666
0.0880027
0.090136
0.0915855
0.0919155
0.0906742
0.0872995
0.08125
0.0724446
0.061741
0.0508944
0.041866
0.0361107
0.0343138
0.0366099
0.0430094
0.053716
0.0686138
0.0863691
0.104084
0.118238
0.12686
0.130425
0.130818
0.129817
0.128402
0.126864
0.125093
0.12278
0.119567
0.115192
0.109591
0.102939
0.0956176
0.0881433
0.0810918
0.0750397
0.0705184
0.067899
0.0671241
0.0673387
0.0666761
0.0626173
0.053382
0.0402002
0.0283804
0.0236087
0.0252184
0.0282216
0.0292739
0.0278424
0.0247584
0.0209239
0.0172411
0.0152392
0.0159921
0.0204511
0.0242896
0.0271527
0.0244036
0.107353
0.10369
0.0997399
0.0955884
0.0912321
0.086557
0.0814037
0.0756319
0.0691576
0.0620038
0.0543692
0.0466647
0.0394632
0.0333163
0.0285716
0.0253746
0.0238233
0.0240081
0.0261252
0.030819
0.0383462
0.0483472
0.0597646
0.0711525
0.0811927
0.0890739
0.0945615
0.0978944
0.0996964
0.100426
0.100298
0.0996821
0.0989388
0.0982331
0.097599
0.0970702
0.0967253
0.0966231
0.0968115
0.0972695
0.0978593
0.0983351
0.0983889
0.0976983
0.0959112
0.0925484
0.0869849
0.0787462
0.0680583
0.0562368
0.0454249
0.0377277
0.0344647
0.0360263
0.0421812
0.0525152
0.06646
0.0828513
0.0995328
0.113748
0.123388
0.12817
0.129383
0.128705
0.127298
0.125646
0.123754
0.121361
0.118107
0.113699
0.108049
0.101313
0.0938548
0.0861547
0.0787225
0.072019
0.0664272
0.0622745
0.0598235
0.059101
0.0595324
0.059617
0.0571022
0.0502063
0.0397205
0.0299476
0.0254157
0.0256338
0.0268297
0.0265776
0.0246498
0.0217649
0.0185129
0.0153898
0.0135854
0.0141967
0.0184315
0.0224209
0.0258305
0.0242247
0.125101
0.122597
0.119882
0.116983
0.113892
0.110541
0.106815
0.102581
0.0976997
0.0920712
0.0857015
0.0787744
0.071692
0.0650353
0.0594378
0.0554519
0.053499
0.0538701
0.0567886
0.0623374
0.0700549
0.0789889
0.0879513
0.0958721
0.102058
0.106259
0.108559
0.109258
0.108976
0.10826
0.107098
0.10587
0.105046
0.104671
0.10455
0.10452
0.104512
0.104459
0.104345
0.104134
0.103726
0.102957
0.101617
0.0994524
0.0960992
0.0910022
0.0835245
0.0734113
0.0613747
0.049289
0.0396399
0.0345015
0.0348435
0.0405263
0.0507329
0.0643486
0.0799925
0.0958479
0.109764
0.119896
0.125598
0.12762
0.127375
0.126068
0.124326
0.122268
0.119695
0.116264
0.11167
0.105815
0.0988772
0.0912559
0.0834558
0.075975
0.069223
0.0634692
0.0588412
0.0554013
0.0532396
0.0524208
0.052676
0.0529828
0.0515264
0.0466374
0.0386336
0.0307275
0.0263891
0.0253819
0.0250605
0.0237719
0.0214978
0.018854
0.016193
0.0136606
0.0120825
0.0125204
0.0164399
0.0204989
0.0244277
0.0240474
0.138074
0.136163
0.134125
0.131978
0.129729
0.127361
0.124828
0.122055
0.118949
0.115413
0.111386
0.106888
0.102083
0.0973111
0.0930638
0.0898958
0.088303
0.0886304
0.0909673
0.094958
0.0999757
0.105237
0.110001
0.113739
0.116182
0.117278
0.117097
0.11574
0.113591
0.111351
0.108907
0.106771
0.105784
0.105767
0.10616
0.106589
0.106877
0.106903
0.106642
0.106057
0.105068
0.103547
0.101315
0.0981119
0.0935043
0.0868744
0.077694
0.0661188
0.0534981
0.0422634
0.0350572
0.0336273
0.0382929
0.0481572
0.0616671
0.0770463
0.092446
0.106047
0.116376
0.122719
0.125459
0.125711
0.124603
0.12283
0.120596
0.117768
0.114037
0.10911
0.102896
0.0956118
0.0877349
0.0798449
0.0724725
0.0660099
0.0606736
0.0564876
0.0533002
0.0508877
0.0491252
0.0480602
0.0477014
0.0475654
0.0464289
0.042906
0.0369272
0.0306328
0.0265164
0.0245655
0.0230789
0.0210201
0.0185145
0.0161025
0.0139819
0.0120285
0.010704
0.0109642
0.0145031
0.0185486
0.02294
0.0238508
0.146831
0.145226
0.143536
0.141782
0.139984
0.138152
0.136279
0.134344
0.132317
0.130159
0.12784
0.125351
0.122739
0.120134
0.117768
0.115936
0.114928
0.114933
0.115934
0.117642
0.119676
0.121638
0.123189
0.124097
0.124225
0.123495
0.121838
0.119105
0.115247
0.11091
0.106396
0.102838
0.101902
0.102672
0.103905
0.104987
0.10568
0.105897
0.105635
0.104872
0.103541
0.101527
0.0986435
0.094576
0.0888079
0.0807299
0.070092
0.0576473
0.0454455
0.0363223
0.0327455
0.0357687
0.0447939
0.0580723
0.0734208
0.0887328
0.102227
0.112642
0.119437
0.12279
0.123552
0.122723
0.120992
0.118604
0.115467
0.111324
0.105928
0.0992255
0.0914888
0.0832863
0.0753046
0.0681415
0.0621862
0.057603
0.0543558
0.0522193
0.0507929
0.0495984
0.0482931
0.046853
0.0454892
0.0442376
0.0425525
0.0395101
0.0348463
0.0297758
0.0259041
0.0233259
0.0210411
0.0184652
0.0158173
0.013596
0.0119251
0.010503
0.00945226
0.00954396
0.0126431
0.0165833
0.0213692
0.0236436
0.152542
0.151085
0.14958
0.148041
0.146488
0.144936
0.143389
0.14185
0.140314
0.138779
0.137242
0.135711
0.134207
0.132772
0.131481
0.13043
0.129712
0.129379
0.129401
0.129657
0.129982
0.130203
0.130158
0.129711
0.128738
0.127102
0.124622
0.120947
0.115447
0.107698
0.0981846
0.092024
0.0922719
0.0951415
0.0981037
0.100363
0.101772
0.102389
0.102293
0.101503
0.0999765
0.0976028