/*--------------------------------*- C++ -*----------------------------------*\
  =========                 |
  \\      /  F ield         | OpenFOAM: The Open Source CFD Toolbox
   \\    /   O peration     | Website:  https://openfoam.org
    \\  /    A nd           | Version:  10
     \\/     M anipulation  |
\*---------------------------------------------------------------------------*/
FoamFile
{
    format      ascii;
    class       volScalarField;
    location    "0.14";
    object      p;
}
// * * * * * * * * * * * * * * * * * * * * * * * * * * * * * * * * * * * * * //

dimensions      [0 2 -2 0 0 0 0];

internalField   nonuniform List<scalar> 
6820
(
-10.3737
-10.6751
-10.7178
-10.7289
-10.7548
-10.7721
-10.781
-10.7858
-10.7871
-10.7845
-10.7784
-10.7687
-10.7555
-10.7386
-10.7178
-10.693
-10.6639
-10.6304
-10.5922
-10.5493
-10.5015
-10.4489
-10.3917
-10.3306
-10.2664
-10.2007
-10.1356
-10.0742
-10.0202
-9.97815
-9.95596
-9.9469
-10.0061
-10.5759
-10.6998
-10.7332
-10.7443
-10.7647
-10.779
-10.7865
-10.7904
-10.7912
-10.7885
-10.7823
-10.7729
-10.76
-10.7436
-10.7235
-10.6996
-10.6715
-10.6393
-10.6027
-10.5615
-10.5157
-10.4655
-10.4109
-10.3526
-10.2915
-10.2289
-10.1667
-10.108
-10.0563
-10.0169
-9.9954
-10.0035
-10.0533
-10.5761
-10.6603
-10.7158
-10.738
-10.7606
-10.7779
-10.7879
-10.7937
-10.7959
-10.7945
-10.7896
-10.7813
-10.7697
-10.7547
-10.7361
-10.714
-10.6882
-10.6587
-10.6253
-10.5883
-10.5475
-10.5035
-10.4565
-10.4074
-10.3573
-10.3077
-10.2608
-10.2194
-10.1873
-10.1693
-10.174
-10.209
-10.3107
-10.6337
-10.7025
-10.7476
-10.7636
-10.7798
-10.7932
-10.8007
-10.8045
-10.8052
-10.8028
-10.7972
-10.7885
-10.7768
-10.7619
-10.7437
-10.7222
-10.6973
-10.669
-10.6372
-10.6022
-10.5639
-10.5229
-10.4797
-10.4351
-10.3904
-10.3471
-10.3075
-10.2746
-10.2523
-10.2454
-10.262
-10.3093
-10.4124
-10.6647
-10.7025
-10.7387
-10.7576
-10.7751
-10.7899
-10.7992
-10.8046
-10.8069
-10.8059
-10.8016
-10.7943
-10.784
-10.7705
-10.7539
-10.7342
-10.7113
-10.6852
-10.6561
-10.6241
-10.5895
-10.5527
-10.5144
-10.4754
-10.4371
-10.4009
-10.3691
-10.3444
-10.3304
-10.3312
-10.3536
-10.4028
-10.4954
-10.6958
-10.7256
-10.7603
-10.7797
-10.7948
-10.8073
-10.8151
-10.8192
-10.8203
-10.8185
-10.8138
-10.8063
-10.796
-10.7829
-10.7669
-10.748
-10.7263
-10.7018
-10.6747
-10.645
-10.6132
-10.5798
-10.5453
-10.5107
-10.4772
-10.4462
-10.4199
-10.4006
-10.3913
-10.3956
-10.4183
-10.463
-10.5386
-10.7224
-10.7414
-10.7675
-10.7837
-10.7968
-10.8083
-10.8163
-10.821
-10.823
-10.8223
-10.8187
-10.8124
-10.8035
-10.7919
-10.7775
-10.7605
-10.741
-10.7189
-10.6944
-10.6679
-10.6396
-10.6101
-10.58
-10.5502
-10.5218
-10.4963
-10.4753
-10.4609
-10.4554
-10.4614
-10.4821
-10.519
-10.5759
-10.7465
-10.7603
-10.7828
-10.7992
-10.8123
-10.8233
-10.831
-10.8354
-10.8372
-10.8364
-10.8329
-10.8269
-10.8183
-10.8074
-10.794
-10.7781
-10.76
-10.7397
-10.7175
-10.6934
-10.668
-10.6418
-10.6153
-10.5895
-10.5652
-10.5438
-10.5266
-10.5152
-10.5114
-10.5168
-10.5331
-10.5605
-10.5992
-10.7688
-10.7784
-10.7961
-10.8101
-10.821
-10.8305
-10.8374
-10.8416
-10.8435
-10.8431
-10.8403
-10.8353
-10.828
-10.8184
-10.8066
-10.7927
-10.7767
-10.7588
-10.7392
-10.7182
-10.6962
-10.6735
-10.651
-10.6291
-10.609
-10.5915
-10.5777
-10.5689
-10.5661
-10.5702
-10.5817
-10.5998
-10.6228
-10.7896
-10.7967
-10.8111
-10.8239
-10.8344
-10.8435
-10.8504
-10.8549
-10.8572
-10.8573
-10.8551
-10.8508
-10.8443
-10.8358
-10.8253
-10.8129
-10.7986
-10.7827
-10.7654
-10.747
-10.7278
-10.7083
-10.689
-10.6706
-10.6538
-10.6393
-10.6281
-10.6208
-10.6181
-10.6202
-10.6267
-10.6364
-10.6463
-10.8094
-10.8147
-10.8264
-10.8374
-10.8466
-10.8546
-10.8608
-10.865
-10.8672
-10.8675
-10.8659
-10.8624
-10.857
-10.8498
-10.8408
-10.8302
-10.8181
-10.8045
-10.7899
-10.7743
-10.7582
-10.742
-10.7261
-10.7111
-10.6976
-10.6861
-10.6773
-10.6714
-10.6688
-10.6692
-10.6717
-10.6748
-10.6753
-10.8285
-10.8325
-10.842
-10.8517
-10.8602
-10.8678
-10.8739
-10.8784
-10.8811
-10.882
-10.8812
-10.8787
-10.8745
-10.8686
-10.8612
-10.8523
-10.8421
-10.8307
-10.8184
-10.8055
-10.7922
-10.7789
-10.766
-10.754
-10.7434
-10.7344
-10.7274
-10.7227
-10.7201
-10.719
-10.7185
-10.7168
-10.711
-10.847
-10.8502
-10.858
-10.8665
-10.8741
-10.881
-10.8868
-10.8911
-10.8939
-10.8952
-10.895
-10.8933
-10.8902
-10.8856
-10.8798
-10.8727
-10.8645
-10.8555
-10.8457
-10.8355
-10.8251
-10.8148
-10.805
-10.796
-10.7882
-10.7817
-10.7768
-10.7734
-10.7712
-10.7696
-10.7675
-10.7632
-10.7544
-10.8651
-10.8677
-10.8742
-10.8817
-10.8887
-10.8952
-10.9009
-10.9054
-10.9087
-10.9107
-10.9114
-10.9108
-10.9089
-10.9058
-10.9016
-10.8964
-10.8903
-10.8835
-10.8762
-10.8686
-10.8609
-10.8535
-10.8465
-10.8403
-10.8351
-10.831
-10.828
-10.826
-10.8247
-10.8233
-10.8208
-10.8159
-10.8065
-10.883
-10.8851
-10.8906
-10.8972
-10.9037
-10.9099
-10.9154
-10.92
-10.9236
-10.9261
-10.9276
-10.9279
-10.9272
-10.9256
-10.923
-10.9196
-10.9156
-10.911
-10.9062
-10.9012
-10.8962
-10.8916
-10.8875
-10.8841
-10.8816
-10.8799
-10.8792
-10.8791
-10.8792
-10.879
-10.8776
-10.8738
-10.8662
-10.9006
-10.9025
-10.9072
-10.9132
-10.9192
-10.9251
-10.9307
-10.9356
-10.9396
-10.9429
-10.9453
-10.9468
-10.9474
-10.9473
-10.9465
-10.945
-10.9431
-10.9408
-10.9384
-10.936
-10.9337
-10.9319
-10.9305
-10.9299
-10.93
-10.9309
-10.9325
-10.9345
-10.9367
-10.9385
-10.9391
-10.9378
-10.9337
-10.9182
-10.9198
-10.924
-10.9294
-10.9351
-10.9409
-10.9465
-10.9517
-10.9562
-10.9602
-10.9634
-10.966
-10.968
-10.9693
-10.9702
-10.9706
-10.9708
-10.9707
-10.9707
-10.9708
-10.9712
-10.9721
-10.9736
-10.9757
-10.9785
-10.9821
-10.9864
-10.991
-10.9958
-11.0003
-11.004
-11.0065
-11.0069
-10.9356
-10.937
-10.9409
-10.9459
-10.9514
-10.9572
-10.9629
-10.9685
-10.9736
-10.9783
-10.9826
-10.9863
-10.9897
-10.9926
-10.9952
-10.9976
-10.9999
-11.0022
-11.0045
-11.0072
-11.0103
-11.0139
-11.0181
-11.023
-11.0287
-11.0351
-11.0422
-11.0497
-11.0575
-11.0654
-11.0729
-11.0797
-11.0856
-10.953
-10.9543
-10.9579
-10.9627
-10.9681
-10.9739
-10.9799
-10.9858
-10.9915
-10.9971
-11.0023
-11.0073
-11.012
-11.0165
-11.0208
-11.0251
-11.0295
-11.034
-11.0387
-11.0439
-11.0496
-11.0559
-11.0629
-11.0707
-11.0793
-11.0887
-11.0988
-11.1095
-11.1208
-11.1324
-11.1441
-11.1559
-11.1677
-10.9703
-10.9715
-10.9749
-10.9796
-10.985
-10.991
-10.9972
-11.0036
-11.0101
-11.0164
-11.0227
-11.0289
-11.0351
-11.0412
-11.0473
-11.0535
-11.06
-11.0668
-11.0739
-11.0816
-11.0899
-11.0989
-11.1087
-11.1194
-11.1309
-11.1434
-11.1567
-11.1708
-11.1858
-11.2014
-11.2176
-11.2346
-11.2523
-10.9875
-10.9887
-10.9921
-10.9967
-11.0022
-11.0083
-11.015
-11.0219
-11.0291
-11.0363
-11.0437
-11.0512
-11.0587
-11.0664
-11.0743
-11.0825
-11.091
-11.1
-11.1095
-11.1197
-11.1306
-11.1423
-11.1549
-11.1684
-11.183
-11.1986
-11.2152
-11.2329
-11.2516
-11.2713
-11.2922
-11.3143
-11.3379
-11.0047
-11.0059
-11.0092
-11.0139
-11.0195
-11.026
-11.033
-11.0406
-11.0485
-11.0567
-11.0652
-11.0739
-11.0829
-11.0922
-11.1019
-11.112
-11.1226
-11.1338
-11.1456
-11.1582
-11.1717
-11.1861
-11.2015
-11.2179
-11.2355
-11.2542
-11.2742
-11.2954
-11.3179
-11.3418
-11.3672
-11.3942
-11.4232
-11.0217
-11.0229
-11.0263
-11.0311
-11.037
-11.0438
-11.0513
-11.0595
-11.0682
-11.0774
-11.087
-11.097
-11.1075
-11.1184
-11.1299
-11.1419
-11.1545
-11.1679
-11.1821
-11.1971
-11.2131
-11.2301
-11.2482
-11.2675
-11.2881
-11.31
-11.3332
-11.3579
-11.3841
-11.412
-11.4417
-11.4734
-11.5074
-11.0386
-11.0398
-11.0433
-11.0483
-11.0544
-11.0616
-11.0697
-11.0786
-11.0882
-11.0983
-11.1091
-11.1204
-11.1323
-11.1448
-11.158
-11.1719
-11.1866
-11.202
-11.2184
-11.2358
-11.2543
-11.2739
-11.2947
-11.3168
-11.3403
-11.3652
-11.3916
-11.4197
-11.4494
-11.4811
-11.5148
-11.5506
-11.5891
-11.0552
-11.0565
-11.0601
-11.0654
-11.0718
-11.0795
-11.0882
-11.0978
-11.1082
-11.1194
-11.1314
-11.144
-11.1574
-11.1716
-11.1865
-11.2022
-11.2189
-11.2364
-11.2551
-11.2748
-11.2956
-11.3177
-11.3412
-11.366
-11.3923
-11.4201
-11.4496
-11.4808
-11.5139
-11.5489
-11.5862
-11.6258
-11.6681
-11.0715
-11.0729
-11.0767
-11.0822
-11.0891
-11.0972
-11.1065
-11.1169
-11.1282
-11.1404
-11.1535
-11.1675
-11.1823
-11.1979
-11.2145
-11.2321
-11.2506
-11.2702
-11.2909
-11.3129
-11.336
-11.3605
-11.3865
-11.4138
-11.4428
-11.4733
-11.5057
-11.5398
-11.5759
-11.6141
-11.6545
-11.6973
-11.7428
-11.0874
-11.0889
-11.0929
-11.0988
-11.1061
-11.1148
-11.1248
-11.136
-11.1482
-11.1615
-11.1758
-11.1911
-11.2073
-11.2246
-11.2428
-11.2622
-11.2826
-11.3042
-11.327
-11.351
-11.3764
-11.4032
-11.4315
-11.4613
-11.4928
-11.5259
-11.5608
-11.5976
-11.6364
-11.6773
-11.7204
-11.7659
-11.814
-11.1028
-11.1044
-11.1086
-11.1148
-11.1226
-11.1318
-11.1425
-11.1545
-11.1676
-11.1819
-11.1973
-11.2138
-11.2315
-11.2502
-11.27
-11.291
-11.3132
-11.3366
-11.3614
-11.3874
-11.4149
-11.4439
-11.4744
-11.5064
-11.5401
-11.5756
-11.6129
-11.652
-11.6932
-11.7364
-11.7818
-11.8295
-11.8797
-11.1176
-11.1192
-11.1238
-11.1304
-11.1387
-11.1487
-11.1601
-11.173
-11.1871
-11.2025
-11.2192
-11.237
-11.256
-11.2762
-11.2976
-11.3202
-11.3441
-11.3694
-11.396
-11.424
-11.4534
-11.4843
-11.5169
-11.551
-11.5868
-11.6243
-11.6637
-11.7049
-11.748
-11.7931
-11.8404
-11.8898
-11.9414
-11.1315
-11.1333
-11.1381
-11.1451
-11.1539
-11.1643
-11.1765
-11.1901
-11.2051
-11.2215
-11.2392
-11.2581
-11.2784
-11.3
-11.3228
-11.347
-11.3725
-11.3994
-11.4278
-11.4575
-11.4888
-11.5216
-11.556
-11.592
-11.6297
-11.6691
-11.7102
-11.7532
-11.798
-11.8448
-11.8935
-11.9441
-11.9969
-11.1445
-11.1464
-11.1517
-11.1593
-11.1688
-11.1801
-11.1931
-11.2077
-11.2238
-11.2412
-11.2601
-11.2803
-11.3018
-11.3247
-11.349
-11.3746
-11.4016
-11.4301
-11.46
-11.4914
-11.5243
-11.5587
-11.5947
-11.6324
-11.6716
-11.7126
-11.7553
-11.7997
-11.8458
-11.8938
-11.9435
-11.9951
-12.0485
-11.1562
-11.1582
-11.1637
-11.1716
-11.1815
-11.1933
-11.207
-11.2223
-11.2392
-11.2576
-11.2775
-11.2988
-11.3215
-11.3457
-11.3713
-11.3983
-11.4268
-11.4567
-11.4882
-11.5211
-11.5555
-11.5915
-11.6291
-11.6682
-11.7089
-11.7513
-11.7953
-11.8409
-11.8881
-11.937
-11.9876
-12.0397
-12.0935
-11.1666
-11.169
-11.1754
-11.1843
-11.1952
-11.208
-11.2226
-11.2389
-11.2567
-11.2761
-11.297
-11.3193
-11.3431
-11.3684
-11.3951
-11.4233
-11.4529
-11.4841
-11.5167
-11.5509
-11.5866
-11.6238
-11.6626
-11.7029
-11.7448
-11.7882
-11.8332
-11.8797
-11.9278
-11.9773
-12.0283
-12.0808
-12.1347
-11.1748
-11.1769
-11.1833
-11.1924
-11.2037
-11.2171
-11.2325
-11.2496
-11.2684
-11.2888
-11.3108
-11.3342
-11.3592
-11.3857
-11.4137
-11.4432
-11.4741
-11.5066
-11.5405
-11.576
-11.613
-11.6515
-11.6914
-11.7329
-11.7758
-11.8202
-11.866
-11.9133
-11.9619
-12.0119
-12.0632
-12.1157
-12.1695
-11.182
-11.1856
-11.1938
-11.2043
-11.2167
-11.231
-11.2471
-11.265
-11.2844
-11.3054
-11.328
-11.3521
-11.3778
-11.405
-11.4337
-11.4639
-11.4957
-11.5289
-11.5638
-11.6001
-11.6379
-11.6772
-11.718
-11.7603
-11.804
-11.8491
-11.8956
-11.9433
-11.9924
-12.0427
-12.0941
-12.1466
-12.2002
-11.1831
-11.1855
-11.1941
-11.2054
-11.2188
-11.2343
-11.2518
-11.2709
-11.2916
-11.3139
-11.3378
-11.3632
-11.3901
-11.4185
-11.4484
-11.4798
-11.5127
-11.5471
-11.583
-11.6204
-11.6592
-11.6994
-11.741
-11.784
-11.8283
-11.8739
-11.9208
-11.9689
-12.0182
-12.0685
-12.1199
-12.1722
-12.2254
-11.1891
-11.1956
-11.2061
-11.2181
-11.2318
-11.2471
-11.2646
-11.2838
-11.3044
-11.3267
-11.3506
-11.3761
-11.4031
-11.4318
-11.462
-11.4937
-11.527
-11.5619
-11.5982
-11.6362
-11.6756
-11.7165
-11.7588
-11.8024
-11.8473
-11.8935
-11.9408
-11.9893
-12.0388
-12.0893
-12.1407
-12.1928
-12.2458
-11.1723
-11.1782
-11.1932
-11.209
-11.226
-11.245
-11.2649
-11.286
-11.3086
-11.3325
-11.3579
-11.3848
-11.4131
-11.4429
-11.4741
-11.5068
-11.541
-11.5767
-11.6138
-11.6523
-11.6921
-11.7332
-11.7756
-11.8193
-11.8643
-11.9106
-11.9579
-12.0064
-12.0558
-12.1061
-12.1573
-12.2091
-12.2617
-11.1864
-11.1973
-11.2104
-11.2228
-11.2376
-11.2544
-11.2725
-11.2923
-11.3138
-11.337
-11.3618
-11.3882
-11.4163
-11.4459
-11.477
-11.5098
-11.5441
-11.58
-11.6175
-11.6567
-11.6978
-11.7402
-11.7835
-11.8279
-11.8735
-11.9202
-11.9679
-12.0166
-12.0662
-12.1167
-12.1678
-12.2196
-12.2719
-11.0929
-11.161
-11.1899
-11.2077
-11.23
-11.2524
-11.2742
-11.2966
-11.3203
-11.3451
-11.3712
-11.3986
-11.4275
-11.4577
-11.4895
-11.5226
-11.5572
-11.5931
-11.6303
-11.6687
-11.708
-11.7489
-11.7915
-11.8356
-11.8809
-11.9274
-11.975
-12.0236
-12.0731
-12.1234
-12.1745
-12.2261
-12.2783
-9.98294
-11.1125
-12.0532
-13.5346
-15.6347
-16.2702
-13.1777
-6.56524
-0.464802
2.58772
2.27784
-0.561196
-5.84834
-13.6
-23.4104
-34.2198
-44.4451
-52.3123
-55.8343
-53.739
-46.9003
-37.9455
-29.0282
-21.1985
-15.2588
-11.6469
-10.1939
-10.3918
-11.7518
-13.9427
-16.7512
-20.0094
-23.5495
-27.1548
-30.5403
-33.3643
-35.2694
-35.9577
-35.2494
-33.1781
-29.9586
-25.9235
-21.4555
-16.9093
-12.5657
-8.63104
-5.24383
-2.49527
-0.452297
0.805673
1.10288
0.191008
-2.35788
-7.10391
-13.902
-21.6102
-28.641
-33.5677
-35.5801
-34.5465
-31.0276
-26.0192
-20.5726
-15.5171
-11.3066
-8.03598
-5.60492
-3.8601
-2.6485
-1.83211
-1.29494
-0.945366
-0.716446
-0.562676
-0.454939
-0.375382
-0.313282
-0.262357
-0.219108
-0.181491
-0.14836
-0.118995
-0.0928459
-0.0697555
-0.0501353
-0.0344155
-0.0226171
-0.0143515
-0.00901673
-0.0061143
-0.00528418
-0.00649082
-0.00896672
-0.011493
-0.0160327
-0.0147024
-0.0224881
-0.00305799
-0.0321374
0.0490017
-10.3206
-11.2449
-12.0161
-13.1587
-14.5832
-14.7394
-11.6403
-5.6849
0.292403
3.2927
3.0509
-0.0219042
-5.38318
-13.2001
-23.0528
-33.8491
-44.0026
-51.744
-55.1405
-53.09
-46.4742
-37.8442
-29.2302
-21.6739
-15.9815
-12.5338
-11.1069
-11.2024
-12.3726
-14.3143
-16.8322
-19.7641
-22.9518
-26.1967
-29.2384
-31.7659
-33.456
-34.0371
-33.3503
-31.4249
-28.4539
-24.741
-20.6303
-16.4355
-12.4071
-8.7336
-5.55026
-2.95517
-1.02636
0.146243
0.40609
-0.476665
-2.85227
-7.10781
-13.0993
-19.8811
-26.1206
-30.5645
-32.4911
-31.7588
-28.8304
-24.5171
-19.6971
-15.1129
-11.2109
-8.12096
-5.78468
-4.08056
-2.87682
-2.0497
-1.4925
-1.11949
-0.867004
-0.691114
-0.563275
-0.465749
-0.387789
-0.323046
-0.267919
-0.220275
-0.178851
-0.142787
-0.111391
-0.0842899
-0.0616019
-0.0435072
-0.0298377
-0.0200704
-0.0135386
-0.00965236
-0.00799846
-0.00811058
-0.0102659
-0.0122171
-0.0162409
-0.0145441
-0.0218291
-0.00283551
-0.0306573
0.046527
-10.5147
-11.1215
-11.7815
-12.6213
-13.4342
-13.015
-10.1852
-5.28983
-0.227604
2.58254
2.74703
-0.0645442
-5.39043
-13.0131
-22.6196
-33.1227
-42.9428
-50.3507
-53.5274
-51.594
-45.3908
-37.2818
-29.1288
-21.9787
-16.6315
-13.3953
-12.007
-12.0015
-12.9869
-14.6909
-16.9341
-19.5587
-22.4089
-25.2996
-27.9966
-30.2238
-31.6947
-32.1688
-31.5071
-29.7341
-27.0201
-23.6331
-19.8727
-16.0145
-12.2837
-8.85726
-5.86979
-3.42551
-1.61055
-0.520216
-0.298904
-1.14468
-3.34871
-7.18214
-12.4855
-18.4519
-23.9606
-27.9507
-29.8001
-29.334
-26.9052
-23.1731
-18.8892
-14.7262
-11.1128
-8.19876
-5.95821
-4.29719
-3.10377
-2.26789
-1.69207
-1.29645
-1.02077
-0.822759
-0.674588
-0.558742
-0.464524
-0.385573
-0.318225
-0.260261
-0.210284
-0.167278
-0.130389
-0.0990529
-0.0731379
-0.0525863
-0.0370581
-0.0258857
-0.0183163
-0.0136463
-0.0113694
-0.0108739
-0.0123365
-0.0136104
-0.0169402
-0.0147134
-0.0213387
-0.00274252
-0.0292148
0.0440138
-10.5932
-11.028
-11.5005
-11.9462
-12.1858
-11.5545
-9.26121
-5.56802
-1.63581
1.06986
1.3034
-1.00928
-5.87914
-13.0551
-22.107
-32.0263
-41.276
-48.1823
-51.0876
-49.34
-43.7117
-36.2819
-28.7267
-22.1069
-17.1923
-14.2034
-12.8614
-12.7594
-13.5692
-15.0537
-17.0431
-19.3838
-21.9207
-24.4796
-26.8496
-28.7893
-30.0499
-30.4221
-29.7878
-28.1666
-25.7037
-22.6269
-19.1935
-15.6464
-12.1914
-8.99748
-6.19898
-3.90352
-2.20204
-1.19094
-1.00502
-1.81201
-3.85166
-7.31413
-12.0275
-17.296
-22.1699
-25.7538
-27.5142
-27.2437
-25.207
-21.9511
-18.1313
-14.3517
-11.0113
-8.26909
-6.12496
-4.5094
-3.32886
-2.4864
-1.89351
-1.47624
-1.17776
-0.957647
-0.788903
-0.654354
-0.54344
-0.449841
-0.369861
-0.301214
-0.242388
-0.192221
-0.149694
-0.114038
-0.0848433
-0.0617847
-0.0443316
-0.0316717
-0.0229469
-0.0173507
-0.0142997
-0.0131118
-0.0138862
-0.0145786
-0.0173447
-0.0147329
-0.0208171
-0.00272117
-0.027827
0.041537
-10.6457
-10.9433
-11.2531
-11.4782
-11.4688
-10.7311
-8.80392
-5.90854
-2.92844
-0.804169
-0.533511
-2.52
-6.79522
-13.3121
-21.5708
-30.6238
-39.07
-45.3349
-47.9613
-46.4709
-41.5396
-34.8936
-28.0457
-22.0677
-17.6528
-14.9314
-13.6433
-13.4577
-14.1091
-15.3936
-17.1501
-19.2315
-21.4848
-23.7439
-25.8177
-27.4962
-28.5647
-28.8441
-28.2364
-26.7558
-24.5215
-21.7246
-18.5866
-15.3232
-12.1245
-9.15186
-6.53729
-4.38887
-2.79951
-1.86445
-1.70862
-2.47427
-4.35389
-7.48018
-11.6795
-16.3511
-20.6844
-23.913
-25.5515
-25.4075
-23.6783
-20.8255
-17.4187
-13.9911
-10.9082
-8.33257
-6.285
-4.71706
-3.55192
-2.70505
-2.09671
-1.65874
-1.33791
-1.09573
-0.906184
-0.752551
-0.624502
-0.515821
-0.422818
-0.343157
-0.27521
-0.217655
-0.169298
-0.129155
-0.0965638
-0.0709473
-0.0515737
-0.0374821
-0.0276921
-0.0212773
-0.017562
-0.0157581
-0.0159257
-0.0159274
-0.0180515
-0.0149845
-0.0204291
-0.00279779
-0.0264811
0.0390822
-10.6548
-10.8518
-11.0381
-11.107
-10.9065
-10.1306
-8.52305
-6.269
-4.02541
-2.48943
-2.35111
-4.11877
-7.91428
-13.6949
-21.0508
-29.08
-36.5389
-42.0558
-44.429
-43.2645
-39.0463
-33.2024
-27.1436
-21.8962
-18.0168
-15.5686
-14.344
-14.094
-14.6087
-15.7126
-17.2549
-19.0968
-21.0919
-23.0829
-24.8957
-26.3447
-27.2441
-27.4422
-26.8574
-25.4985
-23.4635
-20.9136
-18.0404
-15.0369
-12.0785
-9.31783
-6.88243
-4.87854
-3.39892
-2.53628
-2.40492
-3.1262
-4.85032
-7.66552
-11.4047
-15.5509
-19.4078
-22.3049
-23.8151
-23.7564
-22.2828
-19.7836
-16.7487
-13.6447
-10.804
-8.38958
-6.43841
-4.92003
-3.77275
-2.92369
-2.30154
-1.84393
-1.50123
-1.23703
-1.02643
-0.853311
-0.707658
-0.583426
-0.476974
-0.385934
-0.308572
-0.24341
-0.189069
-0.144346
-0.108305
-0.0801004
-0.0587837
-0.0432305
-0.0323311
-0.0250409
-0.0205965
-0.0181311
-0.0176396
-0.0170569
-0.0186035
-0.015177
-0.0200456
-0.00294192
-0.0252078
0.0366739
-10.6576
-10.7763
-10.8626
-10.8213
-10.5317
-9.80014
-8.47888
-6.71276
-5.00141
-3.92221
-3.97645
-5.58954
-8.95143
-14.0323
-20.4781
-27.4919
-33.9664
-38.7499
-40.8637
-39.9346
-36.3263
-31.2889
-26.1053
-21.6388
-18.2924
-16.112
-14.963
-14.6706
-15.0706
-16.0121
-17.3569
-18.9754
-20.7316
-22.4788
-24.0588
-25.3054
-26.057
-26.1847
-25.6186
-24.3646
-22.5041
-20.1742
-17.5421
-14.7802
-12.0496
-9.49281
-7.23146
-5.36863
-3.99546
-3.20116
-3.08926
-3.76297
-5.33738
-7.8643
-11.1851
-14.8557
-18.2781
-20.8694
-22.2524
-22.2589
-21.007
-18.8215
-16.1212
-13.3134
-10.6999
-8.44088
-6.58547
-5.11834
-3.99127
-3.14223
-2.50797
-2.03179
-1.66771
-1.38154
-1.14963
-0.956592
-0.792844
-0.652577
-0.532245
-0.429469
-0.342412
-0.269429
-0.208946
-0.159523
-0.119959
-0.0891415
-0.0658985
-0.0489312
-0.0369861
-0.0288895
-0.0237804
-0.0207036
-0.0195809
-0.0184097
-0.0193493
-0.0155296
-0.0197662
-0.00315755
-0.0239814
0.0343298
-10.6504
-10.7099
-10.7239
-10.6154
-10.2901
-9.6253
-8.54837
-7.18906
-5.91455
-5.18437
-5.3944
-6.86883
-9.79528
-14.1755
-19.7219
-25.757
-31.3212
-35.4182
-37.2017
-36.4095
-33.4212
-29.2884
-25.0437
-21.3412
-18.4913
-16.5667
-15.5048
-15.1896
-15.4938
-16.2893
-17.4522
-18.8624
-20.3956
-21.9175
-23.2843
-24.3479
-24.9685
-25.0346
-24.4857
-23.3256
-21.6222
-19.4931
-17.0841
-14.5492
-12.035
-9.67367
-7.58025
-5.85392
-4.58317
-3.85279
-3.75585
-4.37966
-5.81052
-8.07172
-11.0128
-14.2521
-17.2781
-19.5893
-20.8506
-20.9069
-19.8457
-17.936
-15.5348
-12.9976
-10.5967
-8.48715
-6.72656
-5.3121
-4.20748
-3.36064
-2.71599
-2.22234
-1.83739
-1.52928
-1.27578
-1.06236
-0.879984
-0.723164
-0.588496
-0.473606
-0.376562
-0.295551
-0.228788
-0.174589
-0.131469
-0.0980359
-0.0728785
-0.0545135
-0.0415297
-0.0326227
-0.0268354
-0.0231366
-0.0213918
-0.0196564
-0.020023
-0.0158675
-0.0195156
-0.00343474
-0.0228397
0.0320439
-10.6486
-10.6653
-10.6308
-10.4855
-10.1607
-9.5829
-8.7253
-7.69905
-6.77813
-6.3158
-6.63562
-7.98014
-10.4952
-14.1795
-18.8079
-23.8445
-28.4983
-31.9164
-33.417
-32.8689
-30.615
-27.4252
-24.0617
-21.0341
-18.6232
-16.939
-15.9716
-15.6485
-15.8723
-16.5367
-17.5329
-18.7516
-20.0789
-21.393
-22.5643
-23.4624
-23.965
-23.9762
-23.4434
-22.3687
-20.8089
-18.8647
-16.6633
-14.3414
-12.0318
-9.85683
-7.92441
-6.32928
-5.15635
-4.48543
-4.39946
-4.97197
-6.26563
-8.28279
-10.8814
-13.7332
-16.4014
-18.4565
-19.6003
-19.6909
-18.791
-17.1222
-14.9881
-12.6977
-10.4955
-8.52924
-6.86216
-5.50155
-4.42149
-3.579
-2.92569
-2.41567
-2.01036
-1.68032
-1.40489
-1.17057
-0.968989
-0.795066
-0.645583
-0.5182
-0.410887
-0.321653
-0.248485
-0.189437
-0.142734
-0.106697
-0.079668
-0.0599662
-0.0460081
-0.0363518
-0.0299377
-0.0256575
-0.0233206
-0.0210319
-0.0208195
-0.0163162
-0.0193457
-0.0037591
-0.0217478
0.0298527
-10.6529
-10.6405
-10.5768
-10.4181
-10.1169
-9.63198
-8.9631
-8.20648
-7.57106
-7.3248
-7.72309
-8.95442
-11.1161
-14.1896
-17.9807
-22.0718
-25.8543
-28.6737
-30.0346
-29.8141
-28.2339
-25.8365
-23.1919
-20.7224
-18.693
-17.2326
-16.363
-16.0428
-16.2002
-16.7485
-17.5937
-18.6377
-19.7773
-20.9022
-21.8967
-22.6454
-23.0423
-23.0045
-22.4867
-21.4897
-20.061
-18.2867
-16.2775
-14.1543
-12.0374
-10.0389
-8.25997
-6.79013
-5.71002
-5.09405
-5.01558
-5.53619
-6.6994
-8.4927
-10.7832
-13.2882
-15.6346
-17.4554
-18.486
-18.5978
-17.8336
-16.3752
-14.4795
-12.4142
-10.3973
-8.56802
-6.99286
-5.68704
-4.63354
-3.79751
-3.13724
-2.61196
-2.18674
-1.83472
-1.53697
-1.28117
-1.05976
-0.868131
-0.703328
-0.563056
-0.445191
-0.347548
-0.267872
-0.203935
-0.153654
-0.115052
-0.0862065
-0.0652245
-0.0503405
-0.0399695
-0.0329485
-0.0280998
-0.0251853
-0.022362
-0.0215939
-0.0167783
-0.0192211
-0.00413853
-0.0207495
0.0277297
-10.6685
-10.6384
-10.561
-10.4055
-10.1411
-9.74791
-9.24058
-8.70168
-8.29175
-8.21494
-8.66785
-9.79738
-11.6695
-14.2501
-17.3704
-20.6995
-23.7784
-26.1259
-27.3675
-27.3777
-26.2871
-24.4846
-22.4049
-20.3986
-18.7039
-17.4506
-16.6788
-16.3703
-16.4742
-16.9213
-17.6314
-18.5175
-19.4869
-20.4407
-21.2759
-21.8911
-22.194
-22.1134
-21.6101
-20.6838
-19.3745
-17.7557
-15.9237
-13.9854
-12.049
-10.2171
-8.58366
-7.23277
-6.24022
-5.67477
-5.60087
-6.06963
-7.1095
-8.69766
-10.7109
-12.9057
-14.9631
-16.57
-17.493
-17.6157
-16.9657
-15.6908
-14.0079
-12.1474
-10.303
-8.60443
-7.11937
-5.86908
-4.84399
-4.01647
-3.35093
-2.81144
-2.36674
-1.99261
-1.67206
-1.39412
-1.15216
-0.942187
-0.761529
-0.607965
-0.479271
-0.373055
-0.286789
-0.217945
-0.164114
-0.123009
-0.0924309
-0.0702574
-0.0545306
-0.0435155
-0.0359422
-0.0305658
-0.0271042
-0.0237645
-0.0224454
-0.0173144
-0.0191579
-0.00454289
-0.0198009
0.0257253
-10.6961
-10.6574
-10.5778
-10.4366
-10.2159
-9.9092
-9.53863
-9.17433
-8.94021
-8.99169
-9.47871
-10.5129
-12.1407
-14.3231
-16.9162
-19.657
-22.1931
-24.1566
-25.258
-25.3963
-24.6534
-23.3046
-21.6798
-20.0637
-18.6621
-17.598
-16.9217
-16.6318
-16.6939
-17.0538
-17.644
-18.3885
-19.2047
-20.0045
-20.6971
-21.1933
-21.4133
-21.2956
-20.8063
-19.9446
-18.7441
-17.2676
-15.5988
-13.832
-12.0642
-10.3889
-8.8928
-7.65424
-6.74383
-6.22458
-6.15284
-6.57039
-7.49432
-8.89491
-10.6589
-12.576
-14.3747
-15.787
-16.6085
-16.7344
-16.1801
-15.0654
-13.572
-11.8976
-10.2135
-8.63943
-7.24249
-6.04827
-5.05334
-4.23632
-3.56715
-3.01447
-2.55063
-2.15418
-1.81022
-1.50936
-1.24606
-1.01703
-0.819939
-0.652666
-0.512872
-0.397934
-0.305028
-0.231293
-0.173977
-0.130463
-0.0982609
-0.0750002
-0.0585206
-0.0469307
-0.0388522
-0.032979
-0.0289923
-0.0251544
-0.0233025
-0.0178784
-0.019149
-0.0049947
-0.0189514
0.0237966
-10.7362
-10.696
-10.6226
-10.503
-10.3281
-10.1002
-9.84391
-9.61836
-9.51955
-9.66527
-10.1688
-11.113
-12.5291
-14.379
-16.542
-18.8096
-20.9085
-22.5557
-23.5278
-23.7468
-23.261
-22.2662
-21.0109
-19.7223
-18.5749
-17.6813
-17.0963
-16.8296
-16.8599
-17.1455
-17.6304
-18.2488
-18.9281
-19.5904
-20.1559
-20.5467
-20.6938
-20.5443
-20.0689
-19.2663
-18.165
-16.8187
-15.3
-13.6919
-12.0811
-10.5523
-9.18517
-8.05215
-7.21842
-6.74126
-6.66968
-7.03734
-7.85291
-9.08241
-10.6226
-12.2917
-13.859
-15.0951
-15.8217
-15.9447
-15.4706
-14.4953
-13.1704
-11.6651
-10.1298
-8.67405
-7.3631
-6.22536
-5.26224
-4.45766
-3.78647
-3.22154
-2.73879
-2.31965
-1.95154
-1.62684
-1.34129
-1.09241
-0.878281
-0.696871
-0.545721
-0.421943
-0.322379
-0.243805
-0.183103
-0.137307
-0.10362
-0.0794044
-0.0622878
-0.0502149
-0.0416981
-0.035375
-0.0308959
-0.026581
-0.0242071
-0.0184903
-0.019187
-0.00545301
-0.0181504
0.0220047
-10.7886
-10.7524
-10.6906
-10.5962
-10.4664
-10.3081
-10.1462
-10.0299
-10.0335
-10.246
-10.7519
-11.6119
-12.845
-14.4154
-16.2236
-18.1045
-19.8473
-21.2351
-22.0928
-22.3649
-22.0709
-21.3522
-20.3949
-19.3787
-18.4495
-17.7076
-17.208
-16.9674
-16.9742
-17.1971
-17.5903
-18.0974
-18.6552
-19.1955
-19.6484
-19.9464
-20.0298
-19.8534
-19.3917
-18.6434
-17.6326
-16.4053
-15.0243
-13.5626
-12.0975
-10.7055
-9.45892
-8.42457
-7.66209
-7.22316
-7.15019
-7.46994
-8.18479
-9.25873
-10.5982
-12.0465
-13.4072
-14.4841
-15.1226
-15.2383
-14.831
-13.9769
-12.8019
-11.45
-10.0527
-8.7093
-7.48218
-6.40123
-5.4715
-4.68126
-4.00961
-3.4333
-2.93172
-2.48935
-2.09615
-1.74651
-1.43766
-1.16804
-0.93621
-0.740225
-0.577474
-0.444768
-0.33857
-0.255257
-0.191314
-0.143408
-0.10841
-0.0834037
-0.0657883
-0.053338
-0.044455
-0.0377272
-0.0327829
-0.0280084
-0.0251268
-0.0191305
-0.0192773
-0.00594656
-0.017448
0.0202932
-10.8517
-10.8232
-10.7766
-10.7089
-10.6213
-10.5234
-10.4384
-10.4069
-10.4864
-10.7438
-11.2415
-12.0228
-13.0982
-14.435
-15.9514
-17.5175
-18.9708
-20.1463
-20.9155
-21.2055
-21.0515
-20.5462
-19.8274
-19.0362
-18.2925
-17.684
-17.2627
-17.0494
-17.0396
-17.2102
-17.5241
-17.9338
-18.3845
-18.8172
-19.1711
-19.3879
-19.4162
-19.2172
-18.7692
-18.071
-17.1427
-16.024
-14.7691
-13.4423
-12.1119
-10.8467
-9.71252
-8.77002
-8.07348
-7.66922
-7.59373
-7.86801
-8.48984
-9.42287
-10.5829
-11.8348
-13.0114
-13.945
-14.5022
-14.6075
-14.2557
-13.5069
-12.4652
-11.2524
-9.98297
-8.74622
-7.60077
-6.57688
-5.6821
-4.9081
-4.23752
-3.65057
-3.13006
-2.66368
-2.24419
-1.8683
-1.53494
-1.2436
-0.993347
-0.782341
-0.607771
-0.466091
-0.353331
-0.265427
-0.198436
-0.148633
-0.112536
-0.0869328
-0.06898
-0.0562754
-0.0471122
-0.0400373
-0.0346661
-0.0294563
-0.0260821
-0.0198074
-0.01941
-0.006437
-0.0167948
0.0187308
-10.9247
-10.9062
-10.8765
-10.8351
-10.7857
-10.7389
-10.7157
-10.749
-10.8832
-11.1682
-11.6498
-12.3581
-13.2975
-14.4387
-15.7152
-17.0248
-18.2422
-19.2411
-19.9206
-20.2257
-20.1743
-19.8332
-19.3043
-18.6974
-18.1101
-17.6173
-17.2668
-17.0807
-17.0596
-17.1869
-17.4329
-17.7579
-18.1151
-18.4535
-18.7209
-18.867
-18.848
-18.6306
-18.1964
-17.5441
-16.6912
-15.6714
-14.5319
-13.3288
-12.1226
-10.9749
-9.94483
-9.08746
-8.45174
-8.07889
-8.00015
-8.23174
-8.76827
-9.57416
-10.5741
-11.6516
-12.6644
-13.4697
-13.9522
-14.045
-13.7393
-13.0821
-12.1588
-11.0722
-9.92134
-8.78582
-7.71999
-6.75345
-5.89522
-5.13941
-4.47139
-3.87442
-3.33465
-2.84317
-2.39588
-1.99216
-1.63284
-1.31865
-1.0492
-0.822721
-0.636147
-0.485496
-0.36631
-0.274029
-0.204249
-0.152819
-0.115889
-0.0899267
-0.0718324
-0.0590184
-0.0496695
-0.0423011
-0.0365291
-0.0308954
-0.0270374
-0.0204903
-0.019573
-0.00693842
-0.0162278
0.0172517
-11.0049
-10.998
-10.9856
-10.9691
-10.9534
-10.9492
-10.9747
-11.0565
-11.2286
-11.5283
-11.9883
-12.6291
-13.451
-14.4283
-15.5071
-16.6071
-17.6318
-18.4841
-19.0854
-19.3939
-19.4164
-19.2006
-18.8218
-18.3647
-17.9079
-17.5143
-17.2266
-17.0667
-17.0383
-17.13
-17.3182
-17.5702
-17.8462
-18.1028
-18.2951
-18.3802
-18.3208
-18.0888
-17.6683
-17.0585
-16.2743
-15.3446
-14.3104
-13.2205
-12.1284
-11.0889
-10.155
-9.37625
-8.79645
-8.45208
-8.36972
-8.5617
-9.02052
-9.71219
-10.5697
-11.4928
-12.3604
-13.0509
-13.4654
-13.5444
-13.2771
-12.6994
-11.8814
-10.9094
-9.86845
-8.8291
-7.84098
-6.9322
-6.11224
-5.37664
-4.71269
-4.10617
-3.54651
-3.02846
-2.55149
-2.11799
-1.73105
-1.39274
-1.10326
-0.860856
-0.662125
-0.502569
-0.377159
-0.280785
-0.208533
-0.155804
-0.11835
-0.0923022
-0.0742891
-0.0615315
-0.0521107
-0.0445232
-0.0383987
-0.0323707
-0.0280471
-0.0212269
-0.019796
-0.00744558
-0.015719
0.0159248
-11.0913
-11.0963
-11.1008
-11.1068
-11.1201
-11.1505
-11.2136
-11.3307
-11.5277
-11.832
-12.2669
-12.8458
-13.5662
-14.4059
-15.3214
-16.2498
-17.1165
-17.8468
-18.3799
-18.6834
-18.7583
-18.6374
-18.3762
-18.0399
-17.6909
-17.3813
-17.1483
-17.0127
-16.9801
-17.0427
-17.1821
-17.3715
-17.5776
-17.7635
-17.8911
-17.9241
-17.8307
-17.5873
-17.1806
-16.61
-15.8884
-15.0407
-14.1022
-13.1157
-12.1281
-11.188
-10.3426
-9.6361
-9.1076
-8.78909
-8.70308
-8.85874
-9.24725
-9.83678
-10.5679
-11.3546
-12.0938
-12.6823
-13.0351
-13.0998
-12.8643
-12.3559
-11.6316
-10.7636
-9.82482
-8.87701
-7.96493
-7.11451
-6.33475
-5.62161
-4.96328
-4.3475
-3.76695
-3.22039
-2.71134
-2.24571
-1.82916
-1.46528
-1.15485
-0.896072
-0.685085
-0.516769
-0.385432
-0.285339
-0.211023
-0.1574
-0.119803
-0.0940025
-0.0763341
-0.0638172
-0.0544329
-0.0466753
-0.0402106
-0.0337849
-0.0289954
-0.0219041
-0.0199899
-0.0079145
-0.0152629
0.0146848
-11.1815
-11.1984
-11.2185
-11.2445
-11.2821
-11.3401
-11.4316
-11.5735
-11.7853
-12.0869
-12.4948
-13.017
-13.6497
-14.3738
-15.1541
-15.9415
-16.6783
-17.3072
-17.7809
-18.074
-18.1844
-18.1343
-17.9645
-17.7244
-17.4634
-17.2241
-17.0382
-16.9245
-16.8895
-16.9284
-17.0269
-17.163
-17.3093
-17.4347
-17.507
-17.4956
-17.374
-17.1222
-16.7292
-16.1948
-15.5302
-14.7569
-13.9054
-13.0129
-12.1207
-11.2714
-10.5072
-9.86702
-9.38551
-9.09059
-9.00119
-9.12392
-9.44932
-9.94795
-10.5675
-11.234
-11.8601
-12.358
-12.6552
-12.7057
-12.4966
-12.0487
-11.408
-10.6347
-9.79087
-8.9304
-8.09302
-7.30189
-6.56462
-5.87648
-5.22543
-4.6005
-3.99762
-3.42
-2.87586
-2.37524
-1.92676
-1.53565
-1.20329
-0.927693
-0.704411
-0.527562
-0.390684
-0.287337
-0.211443
-0.157403
-0.120102
-0.0949299
-0.0779118
-0.0658613
-0.0566687
-0.0488431
-0.0421035
-0.0353172
-0.0300799
-0.0227076
-0.020305