/*--------------------------------*- C++ -*----------------------------------*\
  =========                 |
  \\      /  F ield         | OpenFOAM: The Open Source CFD Toolbox
   \\    /   O peration     | Website:  https://openfoam.org
    \\  /    A nd           | Version:  10
     \\/     M anipulation  |
\*---------------------------------------------------------------------------*/
FoamFile
{
    format      ascii;
    class       surfaceScalarField;
    location    "0.14";
    object      phi;
}
// * * * * * * * * * * * * * * * * * * * * * * * * * * * * * * * * * * * * * //

dimensions      [0 3 -1 0 0 0 0];

internalField   nonuniform List<scalar> 
13452
(
5.94501e-05
8.18399e-07
5.84617e-05
9.88321e-07
5.7427e-05
1.03473e-06
5.63578e-05
1.06924e-06
5.52818e-05
1.07599e-06
5.421e-05
1.07177e-06
5.31456e-05
1.06446e-06
5.20899e-05
1.05563e-06
5.10436e-05
1.04633e-06
5.00062e-05
1.03736e-06
4.8977e-05
1.02925e-06
4.79546e-05
1.02241e-06
4.69373e-05
1.01726e-06
4.59231e-05
1.01423e-06
4.49093e-05
1.0138e-06
4.38928e-05
1.01649e-06
4.28699e-05
1.0229e-06
4.18362e-05
1.0337e-06
4.07865e-05
1.04966e-06
3.97149e-05
1.07161e-06
3.86145e-05
1.10047e-06
3.74772e-05
1.13723e-06
3.62944e-05
1.18287e-06
3.5056e-05
1.23836e-06
3.37515e-05
1.30448e-06
3.23698e-05
1.38177e-06
3.08995e-05
1.47026e-06
2.93298e-05
1.5697e-06
2.7652e-05
1.67776e-06
2.58543e-05
1.79778e-06
2.39424e-05
1.91186e-06
2.1863e-05
2.07939e-06
2.19206e-06
1.96709e-05
6.24908e-05
3.17939e-07
6.29669e-05
5.12194e-07
6.34147e-05
5.86914e-07
6.38246e-05
6.59366e-07
6.41887e-05
7.11903e-07
6.45063e-05
7.54206e-07
6.47782e-05
7.92518e-07
6.50063e-05
8.27577e-07
6.51924e-05
8.60157e-07
6.53386e-05
8.91165e-07
6.54466e-05
9.2129e-07
6.55178e-05
9.51163e-07
6.55536e-05
9.81457e-07
6.5555e-05
1.01289e-06
6.55225e-05
1.04626e-06
6.54566e-05
1.08246e-06
6.53569e-05
1.1225e-06
6.52231e-05
1.16755e-06
6.50538e-05
1.21895e-06
6.48472e-05
1.2782e-06
6.46007e-05
1.34703e-06
6.43105e-05
1.42735e-06
6.39721e-05
1.52126e-06
6.35795e-05
1.631e-06
6.31252e-05
1.75882e-06
6.26001e-05
1.90686e-06
6.19933e-05
2.07702e-06
6.12925e-05
2.27051e-06
6.04822e-05
2.48806e-06
5.95499e-05
2.73005e-06
5.84671e-05
2.9947e-06
5.72526e-05
3.29384e-06
3.60445e-06
5.58403e-05
6.38336e-05
2.45701e-07
6.39069e-05
4.38949e-07
6.39721e-05
5.21738e-07
6.40386e-05
5.9284e-07
6.41058e-05
6.44702e-07
6.41759e-05
6.84143e-07
6.42499e-05
7.18513e-07
6.43279e-05
7.49547e-07
6.44097e-05
7.78323e-07
6.44949e-05
8.05962e-07
6.45829e-05
8.33291e-07
6.46731e-05
8.61002e-07
6.47648e-05
8.89769e-07
6.48574e-05
9.20287e-07
6.49503e-05
9.5329e-07
6.50432e-05
9.89587e-07
6.51356e-05
1.03009e-06
6.52274e-05
1.07582e-06
6.53183e-05
1.12797e-06
6.54086e-05
1.18789e-06
6.54986e-05
1.25708e-06
6.55886e-05
1.33729e-06
6.56795e-05
1.43043e-06
6.57719e-05
1.53856e-06
6.58668e-05
1.66389e-06
6.59651e-05
1.80863e-06
6.60671e-05
1.97495e-06
6.6173e-05
2.16461e-06
6.62819e-05
2.37915e-06
6.63928e-05
2.61917e-06
6.65033e-05
2.8842e-06
6.66237e-05
3.17345e-06
3.46786e-06
6.67603e-05
6.56397e-05
1.89055e-07
6.56892e-05
3.89492e-07
6.57209e-05
4.9002e-07
6.57433e-05
5.70467e-07
6.57571e-05
6.30908e-07
6.57641e-05
6.77095e-07
6.57658e-05
7.1681e-07
6.57629e-05
7.52486e-07
6.57558e-05
7.85346e-07
6.57452e-05
8.16633e-07
6.57312e-05
8.47301e-07
6.57141e-05
8.78118e-07
6.5694e-05
9.09811e-07
6.56712e-05
9.431e-07
6.56458e-05
9.78728e-07
6.56179e-05
1.01748e-06
6.55877e-05
1.06022e-06
6.55557e-05
1.10789e-06
6.55221e-05
1.16151e-06
6.54878e-05
1.22223e-06
6.54536e-05
1.29127e-06
6.54209e-05
1.36997e-06
6.53916e-05
1.45973e-06
6.53682e-05
1.56195e-06
6.53541e-05
1.67801e-06
6.53536e-05
1.80912e-06
6.53723e-05
1.95623e-06
6.54171e-05
2.11984e-06
6.54966e-05
2.29964e-06
6.5621e-05
2.49477e-06
6.58045e-05
2.70068e-06
6.60629e-05
2.91508e-06
3.10947e-06
6.64213e-05
6.74896e-05
1.56233e-07
6.75279e-05
3.51179e-07
6.75576e-05
4.60298e-07
6.75825e-05
5.45562e-07
6.7601e-05
6.1245e-07
6.76128e-05
6.65291e-07
6.76186e-05
7.10991e-07
6.76188e-05
7.52331e-07
6.76135e-05
7.9066e-07
6.76028e-05
8.27293e-07
6.75868e-05
8.63274e-07
6.75655e-05
8.99432e-07
6.75388e-05
9.3654e-07
6.75065e-05
9.75349e-07
6.74687e-05
1.01662e-06
6.7425e-05
1.06113e-06
6.73755e-05
1.10973e-06
6.73201e-05
1.1633e-06
6.72588e-05
1.22281e-06
6.71917e-05
1.28927e-06
6.71193e-05
1.36374e-06
6.70419e-05
1.44731e-06
6.69606e-05
1.54106e-06
6.68766e-05
1.64596e-06
6.67918e-05
1.76284e-06
6.67087e-05
1.89219e-06
6.66309e-05
2.03406e-06
6.65629e-05
2.1878e-06
6.6511e-05
2.35157e-06
6.64831e-05
2.52262e-06
6.64898e-05
2.69398e-06
6.65452e-05
2.85976e-06
2.9942e-06
6.66604e-05
6.94108e-05
1.29474e-07
6.94467e-05
3.15235e-07
6.94753e-05
4.31717e-07
6.94981e-05
5.22788e-07
6.95145e-05
5.96058e-07
6.95246e-05
6.55179e-07
6.95292e-05
7.06365e-07
6.95288e-05
7.52741e-07
6.95236e-05
7.95896e-07
6.95136e-05
8.3725e-07
6.94989e-05
8.77935e-07
6.94795e-05
9.18849e-07
6.94553e-05
9.60803e-07
6.9426e-05
1.00458e-06
6.93917e-05
1.05094e-06
6.93522e-05
1.10068e-06
6.93073e-05
1.15461e-06
6.9257e-05
1.21359e-06
6.92013e-05
1.27849e-06
6.91403e-05
1.35024e-06
6.90743e-05
1.42977e-06
6.90037e-05
1.51797e-06
6.8929e-05
1.61567e-06
6.88514e-05
1.72356e-06
6.87722e-05
1.84207e-06
6.86931e-05
1.97125e-06
6.86166e-05
2.11059e-06
6.85456e-05
2.25881e-06
6.84838e-05
2.41333e-06
6.8436e-05
2.57046e-06
6.84072e-05
2.72281e-06
6.84042e-05
2.86272e-06
2.97086e-06
6.84275e-05
7.13841e-05
1.11731e-07
7.14113e-05
2.88062e-07
7.14345e-05
4.08438e-07
7.14543e-05
5.03064e-07
7.14696e-05
5.8071e-07
7.14799e-05
6.44872e-07
7.14854e-05
7.00886e-07
7.14861e-05
7.52008e-07
7.14822e-05
7.99866e-07
7.14735e-05
8.45876e-07
7.14603e-05
8.91207e-07
7.14423e-05
9.36793e-07
7.14196e-05
9.83468e-07
7.13922e-05
1.03202e-06
7.13599e-05
1.08323e-06
7.13227e-05
1.13785e-06
7.12807e-05
1.19668e-06
7.12338e-05
1.26051e-06
7.11821e-05
1.33015e-06
7.11259e-05
1.4064e-06
7.10657e-05
1.49005e-06
7.10018e-05
1.58181e-06
7.09352e-05
1.68228e-06
7.08669e-05
1.79188e-06
7.07983e-05
1.91071e-06
7.0731e-05
2.0385e-06
7.06673e-05
2.17433e-06
7.06095e-05
2.31657e-06
7.05605e-05
2.46234e-06
7.05233e-05
2.60767e-06
7.05002e-05
2.74586e-06
7.04936e-05
2.8694e-06
2.96496e-06
7.04995e-05
7.34186e-05
9.84347e-08
7.34421e-05
2.64518e-07
7.34642e-05
3.86392e-07
7.34832e-05
4.84051e-07
7.3498e-05
5.65892e-07
7.35078e-05
6.35061e-07
7.35127e-05
6.95968e-07
7.3513e-05
7.5174e-07
7.35086e-05
8.04215e-07
7.34997e-05
8.54773e-07
7.34863e-05
9.046e-07
7.34685e-05
9.54672e-07
7.34461e-05
1.00585e-06
7.34192e-05
1.05893e-06
7.33877e-05
1.11468e-06
7.33517e-05
1.17385e-06
7.33112e-05
1.23719e-06
7.32663e-05
1.30542e-06
7.32172e-05
1.37928e-06
7.31641e-05
1.45946e-06
7.31076e-05
1.54659e-06
7.30481e-05
1.64123e-06
7.29867e-05
1.74376e-06
7.29242e-05
1.85436e-06
7.2862e-05
1.9729e-06
7.28017e-05
2.09882e-06
7.2745e-05
2.23099e-06
7.2694e-05
2.36757e-06
7.26506e-05
2.50572e-06
7.26167e-05
2.64164e-06
7.25928e-05
2.76968e-06
7.25787e-05
2.88351e-06
2.97445e-06
7.25692e-05
7.55122e-05
8.87492e-08
7.55309e-05
2.45722e-07
7.55494e-05
3.67924e-07
7.55656e-05
4.67845e-07
7.55786e-05
5.52892e-07
7.55876e-05
6.26108e-07
7.55922e-05
6.91324e-07
7.55926e-05
7.51373e-07
7.55887e-05
8.0806e-07
7.55807e-05
8.62829e-07
7.55684e-05
9.16884e-07
7.55519e-05
9.7121e-07
7.5531e-05
1.02667e-06
7.55059e-05
1.08404e-06
7.54765e-05
1.14408e-06
7.54429e-05
1.20751e-06
7.5405e-05
1.27502e-06
7.53632e-05
1.34728e-06
7.53175e-05
1.42493e-06
7.52684e-05
1.50855e-06
7.52164e-05
1.59866e-06
7.51619e-05
1.69565e-06
7.5106e-05
1.79974e-06
7.50494e-05
1.91093e-06
7.49934e-05
2.0289e-06
7.49393e-05
2.15294e-06
7.48884e-05
2.28182e-06
7.48423e-05
2.41373e-06
7.4802e-05
2.54604e-06
7.47682e-05
2.67545e-06
7.47403e-05
2.79755e-06
7.47163e-05
2.90754e-06
3.00028e-06
7.46904e-05
7.76669e-05
8.14405e-08
7.76825e-05
2.30092e-07
7.76991e-05
3.51353e-07
7.77142e-05
4.52728e-07
7.77267e-05
5.40441e-07
7.77355e-05
6.17313e-07
7.77403e-05
6.86456e-07
7.77412e-05
7.50532e-07
7.77379e-05
8.11337e-07
7.77305e-05
8.70246e-07
7.77189e-05
9.28427e-07
7.77033e-05
9.86859e-07
7.76835e-05
1.0464e-06
7.76598e-05
1.10782e-06
7.7632e-05
1.17186e-06
7.76003e-05
1.23919e-06
7.75649e-05
1.31048e-06
7.75258e-05
1.38631e-06
7.74835e-05
1.46726e-06
7.74382e-05
1.55381e-06
7.73906e-05
1.64635e-06
7.7341e-05
1.74516e-06
7.72905e-05
1.85032e-06
7.72397e-05
1.9617e-06
7.71897e-05
2.07887e-06
7.71416e-05
2.20107e-06
7.70963e-05
2.32709e-06
7.70548e-05
2.45525e-06
7.70175e-05
2.58335e-06
7.69842e-05
2.70871e-06
7.69537e-05
2.82813e-06
7.69229e-05
2.93836e-06
3.03675e-06
7.68864e-05
7.98839e-05
7.58216e-08
7.98968e-05
2.17248e-07
7.99111e-05
3.37058e-07
7.99243e-05
4.39454e-07
7.99354e-05
5.29364e-07
7.99434e-05
6.09342e-07
7.99478e-05
6.82016e-07
7.99486e-05
7.49751e-07
7.99457e-05
8.14279e-07
7.9939e-05
8.76942e-07
7.99285e-05
9.38886e-07
7.99143e-05
1.00108e-06
7.98963e-05
1.06436e-06
7.98747e-05
1.12949e-06
7.98493e-05
1.19717e-06
7.98205e-05
1.26804e-06
7.97883e-05
1.34268e-06
7.97529e-05
1.42166e-06
7.97148e-05
1.50544e-06
7.96742e-05
1.59442e-06
7.96316e-05
1.68892e-06
7.95877e-05
1.78908e-06
7.95431e-05
1.8949e-06
7.94986e-05
2.00617e-06
7.94551e-05
2.12242e-06
7.94132e-05
2.24288e-06
7.93739e-05
2.36647e-06
7.93374e-05
2.49174e-06
7.93038e-05
2.61695e-06
7.92724e-05
2.7401e-06
7.92414e-05
2.85906e-06
7.92079e-05
2.97194e-06
3.07776e-06
7.91669e-05
8.21649e-05
7.1396e-08
8.21756e-05
2.0654e-07
8.21882e-05
3.24462e-07
8.22003e-05
4.27313e-07
8.22108e-05
5.18886e-07
8.22187e-05
6.01446e-07
8.22235e-05
6.77202e-07
8.2225e-05
7.48262e-07
8.2223e-05
8.16257e-07
8.22175e-05
8.82463e-07
8.22084e-05
9.47969e-07
8.21958e-05
1.01371e-06
8.21796e-05
1.08049e-06
8.21601e-05
1.14906e-06
8.21372e-05
1.22006e-06
8.21111e-05
1.29409e-06
8.20821e-05
1.37171e-06
8.20504e-05
1.45338e-06
8.20163e-05
1.53953e-06
8.19802e-05
1.63048e-06
8.19427e-05
1.72644e-06
8.19043e-05
1.8275e-06
8.18656e-05
1.9336e-06
8.18273e-05
2.04447e-06
8.17901e-05
2.15964e-06
8.17545e-05
2.27843e-06
8.17211e-05
2.39989e-06
8.169e-05
2.52289e-06
8.16608e-05
2.64611e-06
8.16327e-05
2.76819e-06
8.16039e-05
2.88789e-06
8.15715e-05
3.00435e-06
3.11764e-06
8.15316e-05
8.45113e-05
6.78215e-08
8.45204e-05
1.97531e-07
8.45314e-05
3.13395e-07
8.45424e-05
4.16351e-07
8.4552e-05
5.09223e-07
8.45595e-05
5.93959e-07
8.45643e-05
6.7243e-07
8.45661e-05
7.46474e-07
8.45648e-05
8.17592e-07
8.45602e-05
8.86987e-07
8.45525e-05
9.55693e-07
8.45416e-05
1.02461e-06
8.45276e-05
1.09452e-06
8.45105e-05
1.16611e-06
8.44906e-05
1.24002e-06
8.44679e-05
1.3168e-06
8.44426e-05
1.39693e-06
8.44152e-05
1.48084e-06
8.43858e-05
1.56888e-06
8.4355e-05
1.66131e-06
8.43232e-05
1.75828e-06
8.42909e-05
1.85982e-06
8.42586e-05
1.96582e-06
8.42271e-05
2.07602e-06
8.41967e-05
2.18999e-06
8.41681e-05
2.30712e-06
8.41413e-05
2.42666e-06
8.41164e-05
2.54776e-06
8.4093e-05
2.6695e-06
8.40702e-05
2.79106e-06
8.40462e-05
2.91184e-06
8.40188e-05
3.03173e-06
3.15135e-06
8.39851e-05
8.69251e-05
6.48605e-08
8.69328e-05
1.89835e-07
8.69427e-05
3.03549e-07
8.69528e-05
4.06257e-07
8.6962e-05
5.00017e-07
8.69694e-05
5.86479e-07
8.69747e-05
6.67227e-07
8.69773e-05
7.43859e-07
8.69771e-05
8.17738e-07
8.69741e-05
8.89988e-07
8.69682e-05
9.61579e-07
8.69595e-05
1.03336e-06
8.69479e-05
1.10607e-06
8.69337e-05
1.18036e-06
8.69169e-05
1.25681e-06
8.68977e-05
1.33593e-06
8.68765e-05
1.41816e-06
8.68535e-05
1.50387e-06
8.6829e-05
1.59335e-06
8.68035e-05
1.6868e-06
8.67775e-05
1.78433e-06
8.67514e-05
1.88593e-06
8.67257e-05
1.99148e-06
8.6701e-05
2.10073e-06
8.66777e-05
2.21329e-06
8.66561e-05
2.32867e-06
8.66365e-05
2.44631e-06
8.66187e-05
2.56559e-06
8.66022e-05
2.68594e-06
8.65863e-05
2.80695e-06
8.65697e-05
2.92845e-06
8.65506e-05
3.0508e-06
3.17484e-06
8.65271e-05
8.94081e-05
6.23419e-08
8.94147e-05
1.83143e-07
8.94236e-05
2.94682e-07
8.9433e-05
3.96874e-07
8.94418e-05
4.91193e-07
8.94493e-05
5.79005e-07
8.94549e-05
6.61652e-07
8.94582e-05
7.40508e-07
8.94592e-05
8.16792e-07
8.94576e-05
8.91537e-07
8.94536e-05
9.65643e-07
8.9447e-05
1.0399e-06
8.94381e-05
1.11501e-06
8.94269e-05
1.19158e-06
8.94135e-05
1.27013e-06
8.93983e-05
1.35114e-06
8.93815e-05
1.435e-06
8.93633e-05
1.52202e-06
8.93442e-05
1.61245e-06
8.93246e-05
1.70645e-06
8.93048e-05
1.80409e-06
8.92854e-05
1.90533e-06
8.92669e-05
2.01005e-06
8.92496e-05
2.11801e-06
8.92339e-05
2.22891e-06
8.92203e-05
2.34236e-06
8.92086e-05
2.45794e-06
8.9199e-05
2.57525e-06
8.91909e-05
2.69397e-06
8.91839e-05
2.81395e-06
8.91771e-05
2.93532e-06
8.91692e-05
3.05864e-06
3.18474e-06
8.91593e-05
9.19621e-05
6.01405e-08
9.1968e-05
1.77198e-07
9.19761e-05
2.86555e-07
9.1985e-05
3.87983e-07
9.19937e-05
4.82524e-07
9.20014e-05
5.71293e-07
9.20076e-05
6.55424e-07
9.2012e-05
7.36092e-07
9.20145e-05
8.14378e-07
9.20148e-05
8.91224e-07
9.2013e-05
9.67458e-07
9.2009e-05
1.04381e-06
9.20031e-05
1.12093e-06
9.19953e-05
1.19936e-06
9.19859e-05
1.27961e-06
9.19749e-05
1.36208e-06
9.19628e-05
1.44712e-06
9.19498e-05
1.535e-06
9.19364e-05
1.62593e-06
9.19228e-05
1.72002e-06
9.19096e-05
1.81732e-06
9.18971e-05
1.91778e-06
9.18859e-05
2.02127e-06
9.18763e-05
2.12761e-06
9.18687e-05
2.23653e-06
9.18633e-05
2.34773e-06
9.18603e-05
2.46094e-06
9.18597e-05
2.57589e-06
9.18612e-05
2.69244e-06
9.18646e-05
2.81061e-06
9.18692e-05
2.93064e-06
9.18747e-05
3.05317e-06
3.17886e-06
9.18806e-05
9.45891e-05
5.81614e-08
9.45945e-05
1.71787e-07
9.46022e-05
2.78948e-07
9.46107e-05
3.79389e-07
9.46194e-05
4.73841e-07
9.46275e-05
5.63203e-07
9.46345e-05
6.48426e-07
9.46401e-05
7.30512e-07
9.46441e-05
8.10408e-07
9.46463e-05
8.88961e-07
9.46469e-05
9.66921e-07
9.46457e-05
1.04496e-06
9.4643e-05
1.12366e-06
9.46388e-05
1.20352e-06
9.46334e-05
1.285e-06
9.46271e-05
1.36846e-06
9.462e-05
1.45421e-06
9.46125e-05
1.54247e-06
9.4605e-05
1.63341e-06
9.45979e-05
1.72712e-06
9.45916e-05
1.82361e-06
9.45865e-05
1.92284e-06
9.45831e-05
2.02469e-06
9.45817e-05
2.12899e-06
9.45827e-05
2.23553e-06
9.45864e-05
2.34409e-06
9.45928e-05
2.45447e-06
9.46022e-05
2.56652e-06
9.46145e-05
2.68018e-06
9.46295e-05
2.79555e-06
9.46472e-05
2.91291e-06
9.46676e-05
3.0328e-06
3.15568e-06
9.46908e-05
9.72913e-05
5.63305e-08
9.72964e-05
1.66728e-07
9.73037e-05
2.71659e-07
9.73122e-05
3.70894e-07
9.73211e-05
4.64944e-07
9.73298e-05
5.54527e-07
9.73378e-05
6.40435e-07
9.73447e-05
7.23519e-07
9.73506e-05
8.04603e-07
9.73551e-05
8.84435e-07
9.73583e-05
9.63693e-07
9.73603e-05
1.04298e-06
9.73611e-05
1.12282e-06
9.7361e-05
1.20368e-06
9.736e-05
1.28594e-06
9.73586e-05
1.36993e-06
9.73569e-05
1.45592e-06
9.73552e-05
1.54409e-06
9.73541e-05
1.63458e-06
9.73537e-05
1.72744e-06
9.73547e-05
1.82268e-06
9.73573e-05
1.92024e-06
9.7362e-05
2.02001e-06
9.73691e-05
2.12184e-06
9.73791e-05
2.22556e-06
9.73922e-05
2.331e-06
9.74086e-05
2.43801e-06
9.74287e-05
2.5465e-06
9.74524e-05
2.65644e-06
9.748e-05
2.76795e-06
9.75117e-05
2.88123e-06
9.75477e-05
2.99673e-06
3.11466e-06
9.75888e-05
0.000100071
5.45877e-08
0.000100076
1.61869e-07
0.000100083
2.645e-07
0.000100091
3.62305e-07
0.000100101
4.55642e-07
0.00010011
5.45078e-07
0.000100119
6.31271e-07
0.000100128
7.14936e-07
0.000100136
7.96781e-07
0.000100143
8.77464e-07
0.000100149
9.57583e-07
0.000100154
1.03768e-06
0.000100159
1.11821e-06
0.000100163
1.1996e-06
0.000100167
1.28218e-06
0.00010017
1.36623e-06
0.000100174
1.45199e-06
0.000100179
1.53959e-06
0.000100184
1.62914e-06
0.000100191
1.72069e-06
0.000100199
1.8142e-06
0.00010021
1.90963e-06
0.000100223
2.00686e-06
0.000100239
2.10576e-06
0.000100259
2.20618e-06
0.000100282
2.30797e-06
0.000100309
2.41101e-06
0.00010034
2.51523e-06
0.000100376
2.62059e-06
0.000100417
2.72717e-06
0.000100463
2.83508e-06
0.000100515
2.94461e-06
3.05576e-06
0.000100574
0.00010293
5.28831e-08
0.000102935
1.57075e-07
0.000102942
2.57297e-07
0.000102951
3.53436e-07
0.000102961
4.4574e-07
0.000102971
5.34655e-07
0.000102982
6.20722e-07
0.000102992
7.04537e-07
0.000103002
7.86702e-07
0.000103012
8.67786e-07
0.000103021
9.48314e-07
0.00010303
1.02875e-06
0.000103039
1.10952e-06
0.000103047
1.19097e-06
0.000103056
1.2734e-06
0.000103065
1.35705e-06
0.000103075
1.44209e-06
0.000103086
1.52866e-06
0.000103098
1.61681e-06
0.000103112
1.70657e-06
0.000103129
1.79791e-06
0.000103148
1.89075e-06
0.000103169
1.98498e-06
0.000103195
2.08048e-06
0.000103224
2.1771e-06
0.000103257
2.27471e-06
0.000103295
2.37318e-06
0.000103338
2.47242e-06
0.000103386
2.57238e-06
0.00010344
2.67306e-06
0.000103501
2.77447e-06
0.000103569
2.87674e-06
2.97967e-06
0.000103645
0.00010587
5.11735e-08
0.000105875
1.52228e-07
0.000105883
2.49891e-07
0.000105892
3.44105e-07
0.000105903
4.35045e-07
0.000105914
5.23058e-07
0.000105926
6.08582e-07
0.000105939
6.9211e-07
0.000105951
7.74147e-07
0.000105964
8.55179e-07
0.000105977
9.35655e-07
0.000105989
1.01598e-06
0.000106002
1.09651e-06
0.000106016
1.17756e-06
0.00010603
1.25937e-06
0.000106045
1.34213e-06
0.000106061
1.426e-06
0.000106079
1.51106e-06
0.000106098
1.59735e-06
0.00010612
1.68487e-06
0.000106144
1.77357e-06
0.000106171
1.86337e-06
0.000106202
1.95415e-06
0.000106237
2.04578e-06
0.000106276
2.13811e-06
0.00010632
2.231e-06
0.000106369
2.32432e-06
0.000106423
2.41794e-06
0.000106484
2.51176e-06
0.000106551
2.60571e-06
0.000106626
2.6997e-06
0.000106709
2.79371e-06
2.88741e-06
0.000106801
0.000108895
4.94211e-08
0.0001089
1.47221e-07
0.000108908
2.42128e-07
0.000108918
3.34137e-07
0.00010893
4.23368e-07
0.000108943
5.10086e-07
0.000108956
5.94644e-07
0.000108971
6.7744e-07
0.000108986
7.58893e-07
0.000109002
8.39408e-07
0.000109018
9.19365e-07
0.000109035
9.99107e-07
0.000109053
1.07894e-06
0.000109071
1.1591e-06
0.000109091
1.23982e-06
0.000109112
1.32123e-06
0.000109134
1.40346e-06
0.000109159
1.48656e-06
0.000109186
1.57054e-06
0.000109215
1.65538e-06
0.000109248
1.74101e-06
0.000109284
1.82733e-06
0.000109324
1.91422e-06
0.000109368
2.00154e-06
0.000109417
2.08913e-06
0.000109471
2.17683e-06
0.000109531
2.26447e-06
0.000109597
2.35191e-06
0.00010967
2.439e-06
0.00010975
2.52558e-06
0.000109838
2.61148e-06
0.000109935
2.69656e-06
2.78039e-06
0.000110042
0.000112006
4.75915e-08
0.000112012
1.41957e-07
0.00011202
2.33868e-07
0.000112031
3.23361e-07
0.000112043
4.10518e-07
0.000112058
4.95536e-07
0.000112074
5.78693e-07
0.000112091
6.60305e-07
0.000112109
7.40709e-07
0.000112128
8.20237e-07
0.000112149
8.99202e-07
0.00011217
9.77887e-07
0.000112192
1.05654e-06
0.000112216
1.13536e-06
0.000112241
1.21452e-06
0.000112268
1.29413e-06
0.000112298
1.37427e-06
0.000112329
1.45497e-06
0.000112364
1.5362e-06
0.000112401
1.61794e-06
0.000112442
1.70008e-06
0.000112487
1.78253e-06
0.000112536
1.86513e-06
0.00011259
1.94774e-06
0.000112649
2.03017e-06
0.000112713
2.11226e-06
0.000112784
2.19382e-06
0.000112861
2.27465e-06
0.000112945
2.35456e-06
0.000113038
2.43333e-06
0.000113138
2.51073e-06
0.000113248
2.58653e-06
2.66022e-06
0.000113369
0.000115206
4.56534e-08
0.000115212
1.36346e-07
0.000115221
2.24976e-07
0.000115233
3.11615e-07
0.000115247
3.96316e-07
0.000115263
4.7922e-07
0.000115281
5.60535e-07
0.000115301
6.40507e-07
0.000115322
7.19398e-07
0.000115345
7.9747e-07
0.000115369
8.74973e-07
0.000115395
9.52131e-07
0.000115423
1.02914e-06
0.000115452
1.10616e-06
0.000115483
1.18331e-06
0.000115516
1.26067e-06
0.000115552
1.33828e-06
0.000115591
1.41615e-06
0.000115633
1.49424e-06
0.000115679
1.57247e-06
0.000115728
1.65075e-06
0.000115782
1.72895e-06
0.00011584
1.80691e-06
0.000115903
1.88446e-06
0.000115972
1.96141e-06
0.000116047
2.03757e-06
0.000116128
2.11273e-06
0.000116216
2.18665e-06
0.000116311
2.2591e-06
0.000116415
2.32984e-06
0.000116527
2.39857e-06
0.000116648
2.465e-06
2.52862e-06
0.00011678
0.000118498
4.35763e-08
0.000118504
1.30301e-07
0.000118514
2.15319e-07
0.000118527
2.98733e-07
0.000118542
3.8057e-07
0.000118561
4.60924e-07
0.000118581
5.39944e-07
0.000118604
6.17809e-07
0.000118629
6.94712e-07
0.000118655
7.70853e-07
0.000118684
8.4642e-07
0.000118714
9.21585e-07
0.000118747
9.96492e-07
0.000118782
1.07126e-06
0.000118819
1.14596e-06
0.000118859
1.22065e-06
0.000118902
1.29533e-06
0.000118948
1.36998e-06
0.000118998
1.44454e-06
0.000119052
1.51892e-06
0.000119109
1.593e-06
0.000119172
1.66663e-06
0.000119239
1.73965e-06
0.000119311
1.81188e-06
0.00011939
1.88311e-06
0.000119474
1.95312e-06
0.000119565
2.02168e-06
0.000119663
2.08854e-06
0.000119769
2.15345e-06
0.000119883
2.21613e-06
0.000120005
2.27625e-06
0.000120137
2.3335e-06
2.38741e-06
0.000120278
0.000121884
4.1333e-08
0.00012189
1.23742e-07
0.000121901
2.0478e-07
0.000121915
2.84573e-07
0.000121932
3.63128e-07
0.000121953
4.40496e-07
0.000121976
5.16771e-07
0.000122002
5.92068e-07
0.00012203
6.6652e-07
0.00012206
7.40265e-07
0.000122093
8.13435e-07
0.000122129
8.86148e-07
0.000122167
9.58504e-07
0.000122207
1.03058e-06
0.000122251
1.10241e-06
0.000122298
1.17401e-06
0.000122348
1.24537e-06
0.000122401
1.31644e-06
0.000122459
1.38713e-06
0.00012252
1.45733e-06
0.000122586
1.52692e-06
0.000122657
1.59573e-06
0.000122733
1.66358e-06
0.000122815
1.73029e-06
0.000122902
1.79562e-06
0.000122996
1.85937e-06
0.000123096
1.92127e-06
0.000123204
1.98107e-06
0.000123319
2.0385e-06
0.000123442
2.09326e-06
0.000123573
2.14503e-06
0.000123713
2.1935e-06
2.23821e-06
0.000123862
0.000125366
3.88916e-08
0.000125373
1.16578e-07
0.000125385
1.93214e-07
0.0001254
2.68948e-07
0.00012542
3.43766e-07
0.000125442
4.17681e-07
0.000125468
4.90737e-07
0.000125498
5.62993e-07
0.00012553
6.34523e-07
0.000125564
7.05407e-07
0.000125602
7.75724e-07
0.000125643
8.45543e-07
0.000125686
9.1492e-07
0.000125733
9.83888e-07
0.000125783
1.05246e-06
0.000125836
1.12061e-06
0.000125893
1.1883e-06
0.000125954
1.25546e-06
0.00012602
1.32198e-06
0.000126089
1.38775e-06
0.000126163
1.45262e-06
0.000126243
1.51642e-06
0.000126327
1.57896e-06
0.000126418
1.64004e-06
0.000126514
1.69943e-06
0.000126616
1.7569e-06
0.000126725
1.8122e-06
0.000126841
1.86507e-06
0.000126965
1.91523e-06
0.000127095
1.9624e-06
0.000127234
2.00627e-06
0.000127381
2.04654e-06
2.0828e-06
0.000127537
0.000128948
3.62315e-08
0.000128956
1.08748e-07
0.000128968
1.8054e-07
0.000128985
2.51772e-07
0.000129007
3.2241e-07
0.000129032
3.92424e-07
0.000129061
4.61808e-07
0.000129093
5.30567e-07
0.000129129
5.98719e-07
0.000129168
6.66288e-07
0.000129211
7.33305e-07
0.000129256
7.99795e-07
0.000129306
8.65771e-07
0.000129358
9.31232e-07
0.000129415
9.96155e-07
0.000129475
1.0605e-06
0.000129539
1.12419e-06
0.000129607
1.18714e-06
0.00012968
1.24924e-06
0.000129757
1.31035e-06
0.00012984
1.37032e-06
0.000129927
1.42897e-06
0.00013002
1.48611e-06
0.000130118
1.54152e-06
0.000130223
1.59499e-06
0.000130333
1.64629e-06
0.00013045
1.69515e-06
0.000130574
1.74134e-06
0.000130705
1.78459e-06
0.000130843
1.82462e-06
0.000130988
1.86115e-06
0.00013114
1.89389e-06
1.92251e-06
0.000131301
0.000132632
3.33001e-08
0.000132641
1.00111e-07
0.000132655
1.66529e-07
0.000132674
2.32744e-07
0.000132697
2.98698e-07
0.000132725
3.64322e-07
0.000132758
4.29561e-07
0.000132794
4.94366e-07
0.000132834
5.58696e-07
0.000132878
6.22525e-07
0.000132925
6.85831e-07
0.000132976
7.48597e-07
0.000133031
8.108e-07
0.00013309
8.72402e-07
0.000133153
9.33352e-07
0.00013322
9.93583e-07
0.000133291
1.05301e-06
0.000133367
1.11153e-06
0.000133447
1.16901e-06
0.000133532
1.22532e-06
0.000133622
1.28028e-06
0.000133717
1.33372e-06
0.000133818
1.38545e-06
0.000133924
1.43526e-06
0.000134036
1.48294e-06
0.000134154
1.52824e-06
0.000134278
1.57095e-06
0.000134409
1.61082e-06
0.000134546
1.6476e-06
0.00013469
1.68105e-06
0.00013484
1.71092e-06
0.000134997
1.73695e-06
1.75888e-06
0.00013516
0.000136421
3.01131e-08
0.000136431
9.06829e-08
0.000136446
1.51236e-07
0.000136467
2.11969e-07
0.000136493
2.72784e-07
0.000136524
3.33562e-07
0.000136559
3.94199e-07
0.000136599
4.54594e-07
0.000136643
5.1465e-07
0.000136691
5.74294e-07
0.000136743
6.33461e-07
0.0001368
6.92091e-07
0.000136861
7.50128e-07
0.000136926
8.07506e-07
0.000136995
8.64151e-07
0.000137068
9.19978e-07
0.000137146
9.74884e-07
0.000137229
1.02875e-06
0.000137317
1.08145e-06
0.000137409
1.13283e-06
0.000137507
1.18272e-06
0.00013761
1.23095e-06
0.000137718
1.27733e-06
0.000137831
1.32166e-06
0.000137951
1.36372e-06
0.000138075
1.40332e-06
0.000138206
1.44022e-06
0.000138343
1.47421e-06
0.000138485
1.50506e-06
0.000138634
1.53256e-06
0.000138788
1.5565e-06
0.000138949
1.57665e-06
1.59281e-06
0.000139115
0.000140319
2.65e-08
0.00014033
8.00787e-08
0.000140347
1.34089e-07
0.00014037
1.88754e-07
0.000140399
2.43916e-07
0.000140433
2.99394e-07
0.000140473
3.55019e-07
0.000140517
4.1062e-07
0.000140565
4.6604e-07
0.000140618
5.21151e-07
0.000140676
5.75844e-07
0.000140738
6.30021e-07
0.000140805
6.83593e-07
0.000140876
7.36473e-07
0.000140951
7.88565e-07
0.000141031
8.3977e-07
0.000141116
8.89974e-07
0.000141206
9.39052e-07
0.000141301
9.86865e-07
0.0001414
1.03327e-06
0.000141505
1.07809e-06
0.000141615
1.12117e-06
0.00014173
1.16232e-06
0.00014185
1.20135e-06
0.000141976
1.23807e-06
0.000142107
1.27228e-06
0.000142243
1.30379e-06
0.000142385
1.3324e-06
0.000142532
1.35791e-06
0.000142684
1.38015e-06
0.000142842
1.39894e-06
0.000143004
1.4141e-06
1.42547e-06
0.000143172
0.000144328
2.27009e-08
0.00014434
6.86952e-08
0.000144358
1.1565e-07
0.000144383
1.63751e-07
0.000144414
2.12752e-07
0.000144451
2.62417e-07
0.000144494
3.12529e-07
0.000144542
3.62854e-07
0.000144594
4.13176e-07
0.000144652
4.63316e-07
0.000144715
5.13126e-07
0.000144783
5.62473e-07
0.000144855
6.1124e-07
0.000144932
6.59317e-07
0.000145014
7.06593e-07
0.000145101
7.52953e-07
0.000145193
7.98277e-07
0.000145289
8.42436e-07
0.000145391
8.85293e-07
0.000145497
9.26699e-07
0.000145609
9.665e-07
0.000145726
1.00453e-06
0.000145847
1.04063e-06
0.000145974
1.07461e-06
0.000146106
1.1063e-06
0.000146243
1.13553e-06
0.000146384
1.16211e-06
0.000146531
1.1859e-06
0.000146682
1.20671e-06
0.000146838
1.22439e-06
0.000146998
1.23881e-06
0.000147162
1.24983e-06
1.25733e-06
0.00014733
0.000148453
1.79102e-08
0.000148466
5.51454e-08
0.000148488
9.42545e-08
0.000148516
1.35309e-07
0.000148551
1.77828e-07
0.000148592
2.21437e-07
0.000148639
2.65821e-07
0.000148691
3.10655e-07
0.000148748
3.55655e-07
0.000148811
4.00596e-07
0.000148879
4.45288e-07
0.000148952
4.89572e-07
0.00014903
5.33309e-07
0.000149113
5.76372e-07
0.000149201
6.18642e-07
0.000149294
6.59998e-07
0.000149392
7.00319e-07
0.000149495
7.39477e-07
0.000149603
7.7734e-07
0.000149716
8.13768e-07
0.000149833
8.48616e-07
0.000149956
8.81734e-07
0.000150084
9.12967e-07
0.000150216
9.42158e-07
0.000150353
9.69152e-07
0.000150495
9.93795e-07
0.000150641
1.01594e-06
0.000150792
1.03544e-06
0.000150946
1.05217e-06
0.000151105
1.066e-06
0.000151267
1.07683e-06
0.000151432
1.08455e-06
1.08909e-06
0.0001516
0.000152693
1.35596e-08
0.000152707
4.12228e-08
0.00015273
7.17798e-08
0.00015276
1.05011e-07
0.000152798
1.40284e-07
0.000152842
1.77158e-07
0.000152893
2.15255e-07
0.000152949
2.54124e-07
0.000153011
2.93382e-07
0.000153079
3.32747e-07
0.000153153
3.71988e-07
0.000153231
4.10914e-07
0.000153315
4.49366e-07
0.000153404
4.87202e-07
0.000153499
5.24294e-07
0.000153598
5.6052e-07
0.000153703
5.95758e-07
0.000153812
6.29885e-07
0.000153927
6.62777e-07
0.000154046
6.94308e-07
0.000154171
7.24345e-07
0.0001543
7.52753e-07
0.000154433
7.79392e-07
0.000154571
8.04122e-07
0.000154713
8.26807e-07
0.00015486
8.47317e-07
0.00015501
8.65529e-07
0.000155164
8.81326e-07
0.000155322
8.94604e-07
0.000155483
9.05268e-07
0.000155646
9.13237e-07
0.000155813
9.1844e-07
9.20825e-07
0.000155981
0.000157059
5.98821e-09
0.000157078
2.26279e-08
0.000157105
4.44588e-08
0.00015714
7.01936e-08
0.000157181
9.85889e-08
0.00015723
1.28922e-07
0.000157284
1.60789e-07
0.000157345
1.93644e-07
0.000157411
2.27047e-07
0.000157483
2.60676e-07
0.000157561
2.94271e-07
0.000157644
3.27624e-07
0.000157733
3.60572e-07
0.000157827
3.92972e-07
0.000157927
4.24698e-07
0.000158032
4.55633e-07
0.000158142
4.85663e-07
0.000158257
5.14675e-07
0.000158377
5.42559e-07
0.000158502
5.69203e-07
0.000158632
5.94495e-07
0.000158766
6.18318e-07
0.000158905
6.40551e-07
0.000159048
6.61075e-07
0.000159195
6.79776e-07
0.000159346
6.96546e-07
0.0001595
7.11284e-07
0.000159658
7.23898e-07
0.000159818
7.34304e-07
0.000159981
7.42433e-07
0.000160146
7.48227e-07
0.000160313
7.51637e-07
7.52633e-07
0.000160481
0.000161544
5.29132e-10
0.000161563
3.31485e-09
0.000161592
1.5256e-08
0.000161631
3.19889e-08
0.000161677
5.23827e-08
0.00016173
7.55113e-08
0.00016179
1.00881e-07
0.000161856
1.27512e-07
0.000161928
1.54868e-07
0.000162007
1.82598e-07
0.00016209
2.10412e-07
0.00016218
2.38086e-07
0.000162275
2.65446e-07
0.000162376
2.92349e-07
0.000162482
3.18674e-07
0.000162593
3.4431e-07
0.00016271
3.69159e-07
0.000162831
3.93126e-07
0.000162958
4.1612e-07
0.000163089
4.38053e-07
0.000163224
4.58837e-07
0.000163364
4.78368e-07
0.000163508
4.96518e-07
0.000163656
5.1318e-07
0.000163808
5.28272e-07
0.000163963
5.41716e-07
0.00016412
5.53436e-07
0.000164281
5.63366e-07
0.000164444
5.71444e-07
0.000164609
5.77622e-07
0.000164775
5.8186e-07
0.000164942
5.8413e-07
5.84415e-07
0.000165111
0.000166168
-1.34545e-08
0.000166194
-2.27526e-08
0.000166228
-1.9409e-08
0.00016627
-9.51185e-09
0.000166318
4.27718e-09
0.000166373
1.99375e-08
0.000166436
3.87445e-08
0.000166504
5.89691e-08
0.000166579
8.00823e-08
0.00016666
1.01647e-07
0.000166747
1.2336e-07
0.00016684
1.45022e-07
0.000166939
1.66474e-07
0.000167044
1.87584e-07
0.000167154
2.08241e-07
0.00016727
2.28348e-07
0.000167391
2.47813e-07
0.000167518
2.66555e-07
0.00016765
2.845e-07
0.000167786
3.01582e-07
0.000167927
3.17771e-07
0.000168073
3.33035e-07
0.000168222
3.47241e-07
0.000168375
3.60269e-07
0.000168531
3.72047e-07
0.00016869
3.82514e-07
0.000168852
3.91611e-07
0.000169016
3.9929e-07
0.000169182
4.0551e-07
0.000169349
4.10238e-07
0.000169518
4.13446e-07
0.000169687
4.1512e-07
4.15249e-07
0.000169856
0.000170914
-2.72629e-08
0.000170951
-5.89444e-08
0.000170997
-6.53771e-08
0.000171051
-6.412e-08
0.000171113
-5.7193e-08
0.000171179
-4.61515e-08
0.00017125
-3.26758e-08
0.000171327
-1.79494e-08
0.00017141
-2.49029e-09
0.000171498
1.33488e-08
0.000171592
2.93187e-08
0.000171692
4.5255e-08