/*--------------------------------*- C++ -*----------------------------------*\
  =========                 |
  \\      /  F ield         | OpenFOAM: The Open Source CFD Toolbox
   \\    /   O peration     | Website:  https://openfoam.org
    \\  /    A nd           | Version:  10
     \\/     M anipulation  |
\*---------------------------------------------------------------------------*/
FoamFile
{
    format      ascii;
    class       volVectorField;
    location    "0.14";
    object      U;
}
// * * * * * * * * * * * * * * * * * * * * * * * * * * * * * * * * * * * * * //

dimensions      [0 1 -1 0 0 0 0];

internalField   nonuniform List<vector> 
6820
(
(7.2817 0.0249036 0)
(7.17754 0.0402748 0)
(7.05363 0.045405 0)
(6.92309 0.0482829 0)
(6.79229 0.0496164 0)
(6.66164 0.0500574 0)
(6.53155 0.0500433 0)
(6.40252 0.049762 0)
(6.27465 0.0493277 0)
(6.1479 0.0488196 0)
(6.0222 0.0482903 0)
(5.89743 0.0477797 0)
(5.77339 0.0473216 0)
(5.64987 0.0469468 0)
(5.52658 0.0466856 0)
(5.40317 0.0465691 0)
(5.27923 0.0466307 0)
(5.15427 0.0469067 0)
(5.0277 0.0474372 0)
(4.89886 0.048266 0)
(4.76697 0.0494405 0)
(4.63112 0.0510102 0)
(4.49029 0.0530244 0)
(4.34335 0.0555272 0)
(4.18904 0.0585501 0)
(4.02603 0.0621036 0)
(3.85294 0.066157 0)
(3.66841 0.0706634 0)
(3.47112 0.075383 0)
(3.26041 0.0805738 0)
(3.03337 0.0846657 0)
(2.7973 0.0919943 0)
(2.52102 0.0975924 0)
(7.35927 0.0260074 0)
(7.42115 0.036131 0)
(7.47632 0.0382242 0)
(7.52662 0.0406057 0)
(7.5726 0.0424479 0)
(7.61304 0.0440766 0)
(7.64786 0.0457683 0)
(7.67739 0.0475295 0)
(7.70186 0.0493602 0)
(7.72149 0.0512734 0)
(7.7365 0.0532793 0)
(7.74708 0.0553921 0)
(7.7534 0.0576336 0)
(7.75559 0.0600331 0)
(7.75376 0.0626291 0)
(7.74796 0.06547 0)
(7.7382 0.0686158 0)
(7.72444 0.0721397 0)
(7.70657 0.0761295 0)
(7.68443 0.0806901 0)
(7.65775 0.0859441 0)
(7.62616 0.0920332 0)
(7.58917 0.0991179 0)
(7.54617 0.107374 0)
(7.49637 0.116987 0)
(7.43878 0.128142 0)
(7.37226 0.141011 0)
(7.29537 0.155735 0)
(7.20663 0.172365 0)
(7.10384 0.191159 0)
(6.98637 0.211425 0)
(6.84791 0.236345 0)
(6.7022 0.258663 0)
(7.33539 0.00705089 0)
(7.34538 0.0105303 0)
(7.3539 0.0134177 0)
(7.361 0.0171908 0)
(7.36858 0.0204721 0)
(7.37651 0.0234332 0)
(7.38477 0.0263034 0)
(7.39349 0.0290923 0)
(7.4027 0.0318208 0)
(7.41232 0.0345319 0)
(7.42229 0.0372652 0)
(7.43255 0.0400601 0)
(7.44303 0.0429596 0)
(7.45364 0.0460118 0)
(7.46433 0.0492717 0)
(7.47502 0.0528034 0)
(7.48569 0.0566823 0)
(7.49628 0.0609983 0)
(7.50679 0.0658583 0)
(7.51721 0.0713894 0)
(7.52757 0.0777421 0)
(7.5379 0.0850932 0)
(7.54829 0.0936478 0)
(7.5588 0.103639 0)
(7.56956 0.115329 0)
(7.58065 0.128994 0)
(7.59216 0.144931 0)
(7.60415 0.16341 0)
(7.61654 0.184727 0)
(7.6293 0.209031 0)
(7.64202 0.236731 0)
(7.65538 0.267645 0)
(7.66907 0.302486 0)
(7.33492 0.00946257 0)
(7.34225 0.0206526 0)
(7.34732 0.0265499 0)
(7.34993 0.0307126 0)
(7.35182 0.0336477 0)
(7.35302 0.035876 0)
(7.35349 0.037814 0)
(7.35339 0.0396099 0)
(7.35282 0.0413485 0)
(7.35183 0.0431008 0)
(7.35044 0.0449177 0)
(7.34869 0.0468408 0)
(7.34661 0.0489107 0)
(7.34422 0.0511697 0)
(7.34152 0.0536643 0)
(7.33853 0.056447 0)
(7.33528 0.0595785 0)
(7.33179 0.0631291 0)
(7.32811 0.0671814 0)
(7.3243 0.0718313 0)
(7.32044 0.0771907 0)
(7.31666 0.0833884 0)
(7.31313 0.0905711 0)
(7.31011 0.0989032 0)
(7.30791 0.108565 0)
(7.30695 0.11975 0)
(7.3078 0.132655 0)
(7.31114 0.147477 0)
(7.3178 0.164385 0)
(7.32896 0.183547 0)
(7.34554 0.204887 0)
(7.37033 0.228578 0)
(7.4026 0.252405 0)
(7.33398 0.0066011 0)
(7.33851 0.0133826 0)
(7.34265 0.016713 0)
(7.34549 0.0198438 0)
(7.3478 0.0227753 0)
(7.34949 0.0254865 0)
(7.35044 0.0281595 0)
(7.35075 0.0308303 0)
(7.35047 0.0335084 0)
(7.3496 0.0362269 0)
(7.34816 0.0390184 0)
(7.34614 0.0419137 0)
(7.34353 0.0449482 0)
(7.34033 0.0481624 0)
(7.33652 0.0516031 0)
(7.3321 0.0553241 0)
(7.32704 0.0593877 0)
(7.32134 0.0638654 0)
(7.315 0.0688394 0)
(7.30803 0.0744025 0)
(7.30044 0.0806585 0)
(7.29228 0.0877222 0)
(7.28363 0.0957169 0)
(7.27461 0.104771 0)
(7.26538 0.115014 0)
(7.25618 0.126562 0)
(7.24733 0.139513 0)
(7.23928 0.153921 0)
(7.23256 0.169765 0)
(7.22803 0.186959 0)
(7.22645 0.205084 0)
(7.22971 0.223818 0)
(7.23789 0.240914 0)
(7.33373 0.00561257 0)
(7.33751 0.0139283 0)
(7.34138 0.0197743 0)
(7.34406 0.0246831 0)
(7.34605 0.0287249 0)
(7.34747 0.0320615 0)
(7.34824 0.0350147 0)
(7.34845 0.0377707 0)
(7.34815 0.040417 0)
(7.34735 0.0430273 0)
(7.34605 0.0456691 0)
(7.34426 0.0484005 0)
(7.34195 0.0512757 0)
(7.33913 0.0543484 0)
(7.33578 0.0576741 0)
(7.33188 0.0613116 0)
(7.32743 0.0653256 0)
(7.3224 0.0697868 0)
(7.31681 0.0747734 0)
(7.31064 0.0803722 0)
(7.30393 0.0866771 0)
(7.2967 0.0937887 0)
(7.289 0.101811 0)
(7.28094 0.110848 0)
(7.27261 0.120994 0)
(7.2642 0.132329 0)
(7.25591 0.144896 0)
(7.24804 0.158691 0)
(7.24091 0.173607 0)
(7.23501 0.189451 0)
(7.23075 0.205696 0)
(7.22902 0.221784 0)
(7.22973 0.235886 0)
(7.33344 0.00475973 0)
(7.336 0.0120497 0)
(7.33893 0.0168745 0)
(7.34116 0.0207184 0)
(7.34292 0.0240426 0)
(7.34426 0.0270255 0)
(7.34508 0.0298887 0)
(7.34539 0.0327065 0)
(7.34522 0.0355439 0)
(7.34458 0.0384638 0)
(7.34346 0.0415073 0)
(7.34186 0.0447091 0)
(7.33978 0.0481061 0)
(7.33721 0.0517398 0)
(7.33414 0.0556566 0)
(7.33058 0.0599089 0)
(7.32651 0.0645554 0)
(7.32194 0.069662 0)
(7.31687 0.0753018 0)
(7.31133 0.0815538 0)
(7.30534 0.0885024 0)
(7.29895 0.0962357 0)
(7.29223 0.104842 0)
(7.28527 0.114403 0)
(7.2782 0.124988 0)
(7.27117 0.136644 0)
(7.26439 0.149374 0)
(7.25808 0.163126 0)
(7.25252 0.177745 0)
(7.24802 0.192975 0)
(7.24482 0.208291 0)
(7.24331 0.22306 0)
(7.2432 0.235945 0)
(7.3333 0.00413932 0)
(7.33527 0.0111813 0)
(7.33783 0.0166168 0)
(7.33995 0.0213226 0)
(7.34162 0.025531 0)
(7.34287 0.0292893 0)
(7.34361 0.0327529 0)
(7.34386 0.0360952 0)
(7.34366 0.0393645 0)
(7.343 0.0426112 0)
(7.34189 0.0458994 0)
(7.34033 0.0492882 0)
(7.33832 0.0528341 0)
(7.33586 0.0565929 0)
(7.33295 0.0606218 0)
(7.32958 0.0649804 0)
(7.32576 0.0697318 0)
(7.32149 0.0749432 0)
(7.31679 0.0806854 0)
(7.31168 0.0870329 0)
(7.3062 0.0940628 0)
(7.30039 0.101852 0)
(7.29434 0.110472 0)
(7.28812 0.119987 0)
(7.28186 0.130443 0)
(7.2757 0.141858 0)
(7.26981 0.154209 0)
(7.26438 0.167415 0)
(7.25961 0.181303 0)
(7.25571 0.195607 0)
(7.25278 0.209862 0)
(7.25094 0.223497 0)
(7.24981 0.235597 0)
(7.3332 0.00369978 0)
(7.33465 0.0103098 0)
(7.33668 0.0155595 0)
(7.33843 0.0199846 0)
(7.33984 0.0238867 0)
(7.34092 0.0274039 0)
(7.3416 0.0307237 0)
(7.34184 0.0339335 0)
(7.34167 0.0371378 0)
(7.34109 0.0404132 0)
(7.34011 0.0438159 0)
(7.33871 0.0473931 0)
(7.3369 0.0511895 0)
(7.33467 0.0552507 0)
(7.33203 0.0596251 0)
(7.32897 0.0643637 0)
(7.32549 0.0695221 0)
(7.32162 0.0751594 0)
(7.31737 0.0813373 0)
(7.31276 0.0881204 0)
(7.30784 0.0955738 0)
(7.30265 0.10376 0)
(7.29727 0.112737 0)
(7.29179 0.122549 0)
(7.28629 0.133221 0)
(7.28091 0.144754 0)
(7.27578 0.157103 0)
(7.27103 0.170175 0)
(7.2668 0.183797 0)
(7.26319 0.19772 0)
(7.2602 0.211562 0)
(7.25774 0.224863 0)
(7.25544 0.237037 0)
(7.33314 0.00336615 0)
(7.33424 0.00962154 0)
(7.33593 0.0149009 0)
(7.3375 0.0195476 0)
(7.33881 0.0238033 0)
(7.33983 0.0277523 0)
(7.34049 0.0315028 0)
(7.34076 0.0351778 0)
(7.34065 0.0388328 0)
(7.34014 0.0425176 0)
(7.33925 0.046285 0)
(7.33797 0.0501867 0)
(7.3363 0.0542736 0)
(7.33425 0.0585977 0)
(7.33181 0.0632121 0)
(7.32901 0.0681725 0)
(7.32584 0.0735358 0)
(7.32232 0.0793609 0)
(7.31847 0.0857087 0)
(7.31433 0.09264 0)
(7.30993 0.100214 0)
(7.30533 0.108485 0)
(7.30058 0.117499 0)
(7.29578 0.127291 0)
(7.291 0.137874 0)
(7.28634 0.149235 0)
(7.28191 0.161327 0)
(7.27779 0.174056 0)
(7.27405 0.187272 0)
(7.27073 0.200765 0)
(7.26774 0.214248 0)
(7.26492 0.227394 0)
(7.26188 0.239867 0)
(7.3331 0.00311403 0)
(7.33395 0.00905304 0)
(7.33532 0.0142498 0)
(7.33666 0.0188709 0)
(7.33779 0.0231017 0)
(7.33868 0.0270328 0)
(7.33926 0.030777 0)
(7.3395 0.034429 0)
(7.3394 0.0380709 0)
(7.33896 0.0417719 0)
(7.33818 0.0455933 0)
(7.33705 0.0495894 0)
(7.33557 0.0538102 0)
(7.33375 0.0583046 0)
(7.3316 0.0631222 0)
(7.32911 0.068313 0)
(7.32631 0.0739278 0)
(7.3232 0.080019 0)
(7.31982 0.0866388 0)
(7.3162 0.0938392 0)
(7.31237 0.101669 0)
(7.30838 0.110172 0)
(7.30431 0.119384 0)
(7.3002 0.129327 0)
(7.29614 0.140006 0)
(7.2922 0.1514 0)
(7.28846 0.163463 0)
(7.28497 0.176111 0)
(7.28175 0.18922 0)
(7.27878 0.202631 0)
(7.27596 0.216146 0)
(7.27307 0.22956 0)
(7.26978 0.242718 0)
(7.33307 0.00291728 0)
(7.33374 0.00858011 0)
(7.33487 0.0136991 0)
(7.33604 0.0183594 0)
(7.33707 0.0227121 0)
(7.3379 0.0268388 0)
(7.33848 0.0308246 0)
(7.33877 0.0347576 0)
(7.33875 0.0387047 0)
(7.33842 0.0427198 0)
(7.33777 0.0468529 0)
(7.3368 0.0511513 0)
(7.33552 0.0556618 0)
(7.33393 0.0604316 0)
(7.33203 0.0655083 0)
(7.32984 0.0709406 0)
(7.32738 0.0767785 0)
(7.32467 0.0830721 0)
(7.32172 0.0898712 0)
(7.31858 0.0972232 0)
(7.31529 0.105172 0)
(7.31189 0.113756 0)
(7.30843 0.123004 0)
(7.30498 0.132934 0)
(7.3016 0.143546 0)
(7.29833 0.154823 0)
(7.29525 0.166724 0)
(7.29236 0.179183 0)
(7.28968 0.19211 0)
(7.28714 0.205398 0)
(7.28464 0.218929 0)
(7.28197 0.232599 0)
(7.27886 0.246377 0)
(7.33306 0.00276028 0)
(7.33359 0.00818499 0)
(7.33453 0.0132118 0)
(7.33554 0.0178653 0)
(7.33646 0.0222505 0)
(7.33721 0.0264342 0)
(7.33776 0.0304885 0)
(7.33805 0.0344901 0)
(7.33807 0.0385051 0)
(7.33782 0.0425916 0)
(7.33729 0.0468042 0)
(7.33648 0.0511946 0)
(7.3354 0.055812 0)
(7.33405 0.060704 0)
(7.33244 0.0659175 0)
(7.33059 0.0714991 0)
(7.32851 0.0774948 0)
(7.32622 0.0839496 0)
(7.32375 0.0909073 0)
(7.32113 0.0984091 0)
(7.3184 0.106492 0)
(7.3156 0.115187 0)
(7.31279 0.124517 0)
(7.31001 0.134494 0)
(7.30731 0.145118 0)
(7.30474 0.156372 0)
(7.30233 0.168225 0)
(7.30009 0.180629 0)
(7.298 0.193527 0)
(7.29602 0.206854 0)
(7.29402 0.220555 0)
(7.29184 0.234604 0)
(7.28928 0.249043 0)
(7.33304 0.00263182 0)
(7.33348 0.00784958 0)
(7.33427 0.0127813 0)
(7.33516 0.0174234 0)
(7.33599 0.0218532 0)
(7.33671 0.0261308 0)
(7.33726 0.0303184 0)
(7.33759 0.0344836 0)
(7.3377 0.0386865 0)
(7.33757 0.0429792 0)
(7.3372 0.0474098 0)
(7.33658 0.052024 0)
(7.33572 0.0568656 0)
(7.33463 0.0619778 0)
(7.33332 0.0674036 0)
(7.3318 0.0731857 0)
(7.3301 0.0793665 0)
(7.32822 0.0859873 0)
(7.32621 0.093088 0)
(7.3241 0.100705 0)
(7.32191 0.108872 0)
(7.3197 0.117616 0)
(7.31751 0.126955 0)
(7.31537 0.136903 0)
(7.31334 0.147458 0)
(7.31144 0.158611 0)
(7.30969 0.170343 0)
(7.30811 0.182625 0)
(7.30668 0.195426 0)
(7.30533 0.208721 0)
(7.30399 0.2225 0)
(7.30251 0.236793 0)
(7.30078 0.251678 0)
(7.33304 0.00252392 0)
(7.3334 0.00756056 0)
(7.33407 0.0123963 0)
(7.33486 0.0170127 0)
(7.33563 0.0214619 0)
(7.33631 0.0257917 0)
(7.33686 0.0300533 0)
(7.33723 0.0343038 0)
(7.33741 0.0385974 0)
(7.33739 0.0429834 0)
(7.33716 0.0475091 0)
(7.33672 0.05222 0)
(7.33609 0.0571604 0)
(7.33526 0.0623731 0)
(7.33425 0.0679 0)
(7.33308 0.0737822 0)
(7.33176 0.0800593 0)
(7.33032 0.0867694 0)
(7.32878 0.0939483 0)
(7.32718 0.101628 0)
(7.32556 0.109838 0)
(7.32394 0.118601 0)
(7.32238 0.127934 0)
(7.3209 0.137847 0)
(7.31954 0.148341 0)
(7.31833 0.159413 0)
(7.31729 0.171053 0)
(7.31641 0.183246 0)
(7.31569 0.195985 0)
(7.31509 0.209269 0)
(7.31454 0.22312 0)
(7.31395 0.237596 0)
(7.31326 0.25279 0)
(7.33303 0.00243086 0)
(7.33334 0.00730645 0)
(7.33393 0.0120465 0)
(7.33464 0.0166278 0)
(7.33536 0.021086 0)
(7.33602 0.0254611 0)
(7.33659 0.0297975 0)
(7.33702 0.0341455 0)
(7.3373 0.0385544 0)
(7.33741 0.0430698 0)
(7.33735 0.0477354 0)
(7.33712 0.0525929 0)
(7.33673 0.0576824 0)
(7.33618 0.0630429 0)
(7.33549 0.0687122 0)
(7.33467 0.0747273 0)
(7.33375 0.0811238 0)
(7.33274 0.0879355 0)
(7.33168 0.0951941 0)
(7.33059 0.102928 0)
(7.32951 0.111163 0)
(7.32848 0.119919 0)
(7.32753 0.12921 0)
(7.32669 0.139049 0)
(7.32599 0.149438 0)
(7.32547 0.160379 0)
(7.32513 0.171871 0)
(7.32499 0.183914 0)
(7.32503 0.196513 0)
(7.32522 0.209687 0)
(7.32555 0.223474 0)
(7.32596 0.237946 0)
(7.32643 0.253193 0)
(7.33303 0.00234834 0)
(7.3333 0.00707789 0)
(7.33382 0.0117225 0)
(7.33448 0.0162594 0)
(7.33517 0.020712 0)
(7.33583 0.0251121 0)
(7.33642 0.0294965 0)
(7.33691 0.0339079 0)
(7.33729 0.0383896 0)
(7.33753 0.0429829 0)
(7.33764 0.0477282 0)
(7.33762 0.0526647 0)
(7.33747 0.0578304 0)
(7.3372 0.0632623 0)
(7.33682 0.0689964 0)
(7.33636 0.0750671 0)
(7.33583 0.0815076 0)
(7.33526 0.0883488 0)
(7.33468 0.0956193 0)
(7.3341 0.103345 0)
(7.33357 0.111547 0)
(7.33312 0.120244 0)
(7.33279 0.129451 0)
(7.33259 0.139177 0)
(7.33257 0.149428 0)
(7.33274 0.16021 0)
(7.33313 0.171527 0)
(7.33374 0.183387 0)
(7.33458 0.195805 0)
(7.33563 0.208806 0)
(7.33691 0.222436 0)
(7.33838 0.236766 0)
(7.34007 0.251871 0)
(7.33302 0.00227306 0)
(7.33327 0.00686698 0)
(7.33375 0.0114157 0)
(7.33437 0.0158994 0)
(7.33504 0.0203334 0)
(7.33571 0.0247434 0)
(7.33635 0.0291608 0)
(7.33692 0.0336227 0)
(7.3374 0.0381678 0)
(7.33779 0.0428339 0)
(7.33809 0.0476581 0)
(7.33828 0.0526764 0)
(7.33839 0.0579238 0)
(7.33841 0.0634339 0)
(7.33836 0.069239 0)
(7.33827 0.07537 0)
(7.33814 0.0818564 0)
(7.33801 0.0887251 0)
(7.3379 0.0960013 0)
(7.33783 0.103707 0)
(7.33785 0.111861 0)
(7.33797 0.12048 0)
(7.33824 0.129576 0)
(7.33868 0.139158 0)
(7.33932 0.149236 0)
(7.34018 0.159815 0)
(7.34128 0.170905 0)
(7.34265 0.182516 0)
(7.3443 0.194668 0)
(7.34623 0.207389 0)
(7.34846 0.220722 0)
(7.351 0.234728 0)
(7.35389 0.249464 0)
(7.33302 0.0022024 0)
(7.33325 0.00666701 0)
(7.3337 0.0111178 0)
(7.3343 0.0155393 0)
(7.33497 0.0199412 0)
(7.33566 0.024344 0)
(7.33635 0.0287742 0)
(7.33701 0.0332631 0)
(7.33761 0.0378446 0)
(7.33815 0.0425522 0)
(7.33863 0.0474194 0)
(7.33905 0.0524789 0)
(7.33941 0.0577625 0)
(7.33973 0.0633009 0)
(7.34001 0.0691239 0)
(7.34028 0.0752594 0)
(7.34055 0.0817339 0)
(7.34086 0.0885716 0)
(7.34121 0.0957948 0)
(7.34165 0.103423 0)
(7.3422 0.111472 0)
(7.34289 0.119957 0)
(7.34375 0.128889 0)
(7.34482 0.138277 0)
(7.34611 0.148129 0)
(7.34765 0.158453 0)
(7.34948 0.169257 0)
(7.35161 0.180556 0)
(7.35406 0.192365 0)
(7.35686 0.204711 0)
(7.36003 0.217628 0)
(7.36362 0.231166 0)
(7.36766 0.245356 0)
(7.33302 0.00213419 0)
(7.33324 0.00647222 0)
(7.33367 0.0108216 0)
(7.33426 0.0151711 0)
(7.33494 0.0195272 0)
(7.33567 0.0239062 0)
(7.33643 0.0283305 0)
(7.33718 0.032827 0)
(7.33791 0.0374254 0)
(7.33861 0.0421555 0)
(7.33929 0.0470476 0)
(7.33994 0.0521313 0)
(7.34056 0.0574353 0)
(7.34118 0.0629873 0)
(7.34179 0.0688137 0)
(7.34243 0.0749393 0)
(7.3431 0.0813871 0)
(7.34384 0.0881781 0)
(7.34466 0.0953311 0)
(7.34559 0.102863 0)
(7.34667 0.110786 0)
(7.34791 0.119114 0)
(7.34935 0.127855 0)
(7.35103 0.137018 0)
(7.35295 0.146608 0)
(7.35516 0.156633 0)
(7.35769 0.1671 0)
(7.36055 0.178021 0)
(7.36378 0.189409 0)
(7.36742 0.201284 0)
(7.37149 0.213668 0)
(7.37605 0.226595 0)
(7.38115 0.240078 0)
(7.33302 0.0020666 0)
(7.33323 0.00627751 0)
(7.33366 0.0105201 0)
(7.33426 0.0147871 0)
(7.33496 0.0190829 0)
(7.33574 0.0234206 0)
(7.33657 0.0278189 0)
(7.33742 0.0323007 0)
(7.33829 0.0368914 0)
(7.33916 0.0416172 0)
(7.34003 0.0465046 0)
(7.34091 0.05158 0)
(7.3418 0.0568688 0)
(7.34272 0.0623955 0)
(7.34366 0.0681835 0)
(7.34466 0.0742544 0)
(7.34573 0.0806284 0)
(7.34689 0.0873236 0)
(7.34817 0.0943558 0)
(7.34958 0.101739 0)
(7.35117 0.109484 0)
(7.35295 0.117601 0)
(7.35496 0.126097 0)
(7.35722 0.134978 0)
(7.35976 0.144249 0)
(7.36262 0.153915 0)
(7.36582 0.16398 0)
(7.36938 0.174452 0)
(7.37336 0.185338 0)
(7.37778 0.19665 0)
(7.38268 0.208399 0)
(7.38813 0.220603 0)
(7.39417 0.233256 0)
(7.33302 0.00199804 0)
(7.33323 0.00607837 0)
(7.33367 0.0102068 0)
(7.33428 0.0143797 0)
(7.33501 0.0186001 0)
(7.33585 0.0228788 0)
(7.33676 0.0272313 0)
(7.33773 0.0316771 0)
(7.33873 0.0362379 0)
(7.33978 0.0409367 0)
(7.34086 0.0457966 0)
(7.34197 0.0508409 0)
(7.34313 0.0560918 0)
(7.34434 0.061571 0)
(7.34562 0.0672985 0)
(7.34697 0.0732931 0)
(7.34843 0.0795717 0)
(7.35001 0.0861491 0)
(7.35173 0.0930384 0)
(7.35362 0.10025 0)
(7.3557 0.107793 0)
(7.358 0.115675 0)
(7.36055 0.123898 0)
(7.36337 0.132468 0)
(7.3665 0.141385 0)
(7.36997 0.150653 0)
(7.3738 0.16027 0)
(7.37802 0.17024 0)
(7.38268 0.180564 0)
(7.38782 0.191244 0)
(7.39347 0.202281 0)
(7.3997 0.213676 0)
(7.40654 0.22541 0)
(7.33302 0.00192706 0)
(7.33323 0.00587067 0)
(7.33368 0.00987572 0)
(7.33432 0.0139414 0)
(7.3351 0.0180703 0)
(7.336 0.0222709 0)
(7.337 0.0265561 0)
(7.33809 0.0309419 0)
(7.33924 0.0354469 0)
(7.34047 0.0400903 0)
(7.34175 0.0448923 0)
(7.34311 0.0498725 0)
(7.34453 0.0550504 0)
(7.34604 0.0604443 0)
(7.34764 0.0660712 0)
(7.34935 0.0719471 0)
(7.35119 0.0780857 0)
(7.35317 0.0844992 0)
(7.35532 0.0911978 0)
(7.35766 0.0981894 0)
(7.36022 0.10548 0)
(7.36302 0.113074 0)
(7.36609 0.120973 0)
(7.36945 0.129177 0)
(7.37313 0.137687 0)
(7.37716 0.146498 0)
(7.38158 0.15561 0)
(7.38641 0.165017 0)
(7.39169 0.174715 0)
(7.39746 0.184696 0)
(7.40376 0.194953 0)
(7.41065 0.205474 0)
(7.41816 0.216227 0)
(7.33302 0.00185238 0)
(7.33324 0.00565064 0)
(7.33371 0.00952112 0)
(7.33437 0.0134656 0)
(7.3352 0.0174864 0)
(7.33618 0.0215903 0)
(7.33728 0.0257882 0)
(7.33849 0.0300933 0)
(7.3398 0.034521 0)
(7.3412 0.0390876 0)
(7.3427 0.0438102 0)
(7.34429 0.0487053 0)
(7.34598 0.0537893 0)
(7.34777 0.0590775 0)
(7.34969 0.064584 0)
(7.35175 0.0703214 0)
(7.35395 0.0763007 0)
(7.35633 0.0825311 0)
(7.35889 0.0890197 0)
(7.36167 0.0957716 0)
(7.36468 0.10279 0)
(7.36794 0.110076 0)
(7.37149 0.117628 0)
(7.37535 0.125444 0)
(7.37955 0.13352 0)
(7.3841 0.141849 0)
(7.38905 0.150424 0)
(7.39442 0.159236 0)
(7.40025 0.168273 0)
(7.40657 0.177521 0)
(7.41342 0.186964 0)
(7.42085 0.19658 0)
(7.42888 0.206329 0)
(7.33302 0.00177276 0)
(7.33325 0.00541465 0)
(7.33374 0.00913728 0)
(7.33445 0.0129445 0)
(7.33534 0.0168381 0)
(7.33639 0.0208235 0)
(7.3376 0.0249092 0)
(7.33894 0.0291057 0)
(7.34041 0.0334255 0)
(7.342 0.0378819 0)
(7.3437 0.0424888 0)
(7.34553 0.04726 0)
(7.34748 0.052209 0)
(7.34957 0.0573481 0)
(7.3518 0.0626889 0)
(7.35419 0.0682411 0)
(7.35675 0.0740131 0)
(7.35951 0.0800114 0)
(7.36247 0.0862404 0)
(7.36565 0.0927028 0)
(7.36909 0.0993988 0)
(7.3728 0.106327 0)
(7.3768 0.113483 0)
(7.38112 0.120863 0)
(7.38578 0.128457 0)
(7.39081 0.136258 0)
(7.39623 0.144252 0)
(7.40207 0.152426 0)
(7.40837 0.160763 0)
(7.41515 0.169244 0)
(7.42244 0.177843 0)
(7.43028 0.186536 0)
(7.4387 0.195276 0)
(7.33302 0.00168709 0)
(7.33326 0.00515949 0)
(7.33378 0.0087197 0)
(7.33453 0.0123736 0)
(7.33549 0.016123 0)
(7.33663 0.0199725 0)
(7.33794 0.0239289 0)
(7.33942 0.0280005 0)
(7.34104 0.032197 0)
(7.34281 0.036529 0)
(7.34472 0.0410074 0)
(7.34678 0.045643 0)
(7.34898 0.050446 0)
(7.35135 0.0554261 0)
(7.35388 0.0605916 0)
(7.35658 0.0659495 0)
(7.35949 0.0715052 0)
(7.36259 0.0772625 0)
(7.36593 0.083223 0)
(7.3695 0.0893865 0)
(7.37333 0.0957506 0)
(7.37745 0.102311 0)
(7.38186 0.109061 0)
(7.3866 0.115993 0)
(7.39168 0.123096 0)
(7.39712 0.130356 0)
(7.40295 0.137759 0)
(7.4092 0.145287 0)
(7.41588 0.152918 0)
(7.42303 0.160629 0)
(7.43066 0.16839 0)
(7.43882 0.176172 0)
(7.4475 0.183928 0)
(7.33302 0.00159416 0)
(7.33328 0.00488134 0)
(7.33383 0.00826133 0)
(7.33463 0.0117411 0)
(7.33566 0.015322 0)
(7.3369 0.019007 0)
(7.33833 0.0228009 0)
(7.33994 0.0267099 0)
(7.34173 0.0307411 0)
(7.34368 0.0349026 0)
(7.3458 0.039203 0)
(7.34809 0.0436507 0)
(7.35055 0.0482535 0)
(7.35319 0.0530187 0)
(7.35601 0.0579523 0)
(7.35903 0.0630591 0)
(7.36226 0.0683422 0)
(7.36571 0.0738028 0)
(7.36939 0.0794404 0)
(7.37332 0.0852525 0)
(7.37753 0.0912347 0)
(7.38201 0.0973802 0)
(7.3868 0.10368 0)
(7.39191 0.110124 0)
(7.39736 0.116698 0)
(7.40316 0.123387 0)
(7.40934 0.130172 0)
(7.41592 0.137032 0)
(7.42291 0.143944 0)
(7.43033 0.150881 0)
(7.43821 0.157812 0)
(7.44656 0.164703 0)
(7.45539 0.17151 0)
(7.33303 0.00149298 0)
(7.3333 0.0045781 0)
(7.33388 0.00776146 0)
(7.33474 0.0110522 0)
(7.33584 0.0144523 0)
(7.33716 0.0179638 0)
(7.33871 0.0215902 0)
(7.34045 0.0253351 0)
(7.34239 0.0292031 0)
(7.34452 0.0331991 0)
(7.34684 0.0373285 0)
(7.34935 0.0415966 0)
(7.35204 0.0460084 0)
(7.35494 0.0505682 0)
(7.35803 0.0552791 0)
(7.36134 0.0601432 0)
(7.36487 0.0651611 0)
(7.36863 0.0703316 0)
(7.37263 0.0756518 0)
(7.3769 0.0811172 0)
(7.38143 0.0867211 0)
(7.38626 0.0924547 0)
(7.39138 0.0983074 0)
(7.39681 0.104266 0)
(7.40258 0.110315 0)
(7.40869 0.116437 0)
(7.41516 0.122612 0)
(7.422 0.128817 0)
(7.42922 0.135027 0)
(7.43685 0.141213 0)
(7.44489 0.147345 0)
(7.45336 0.153387 0)
(7.46224 0.159297 0)
(7.33303 0.00138202 0)
(7.33332 0.00424329 0)
(7.33395 0.00720439 0)
(7.33487 0.0102746 0)
(7.33605 0.0134546 0)
(7.33749 0.0167453 0)
(7.33916 0.0201486 0)
(7.34105 0.0236672 0)
(7.34316 0.0273038 0)
(7.34547 0.031062 0)
(7.348 0.0349456 0)
(7.35072 0.0389581 0)
(7.35365 0.0431028 0)
(7.3568 0.0473821 0)
(7.36016 0.0517974 0)
(7.36374 0.0563487 0)
(7.36756 0.0610348 0)
(7.37161 0.0658529 0)
(7.37591 0.0707983 0)
(7.38048 0.0758645 0)
(7.38531 0.0810432 0)
(7.39043 0.0863237 0)
(7.39584 0.0916936 0)
(7.40156 0.0971381 0)
(7.40759 0.102641 0)
(7.41395 0.108182 0)
(7.42064 0.113741 0)
(7.42768 0.119293 0)
(7.43507 0.124813 0)
(7.44282 0.130273 0)
(7.45094 0.13564 0)
(7.45943 0.140883 0)
(7.46828 0.14596 0)
(7.33303 0.00126081 0)
(7.33333 0.00388039 0)
(7.334 0.00660837 0)
(7.33498 0.00945717 0)
(7.33624 0.0124274 0)
(7.33776 0.0155181 0)
(7.33954 0.0187282 0)
(7.34156 0.0220565 0)
(7.34382 0.0255019 0)
(7.3463 0.0290644 0)
(7.349 0.0327442 0)
(7.35193 0.0365418 0)
(7.35507 0.0404576 0)
(7.35845 0.0444914 0)
(7.36205 0.0486424 0)
(7.36588 0.0529084 0)
(7.36996 0.0572866 0)
(7.37428 0.0617726 0)
(7.37885 0.0663602 0)
(7.38369 0.0710415 0)
(7.38879 0.0758069 0)
(7.39418 0.080645 0)
(7.39984 0.0855422 0)
(7.4058 0.0904832 0)
(7.41205 0.0954505 0)
(7.41861 0.100425 0)
(7.42548 0.105385 0)
(7.43266 0.110306 0)
(7.44016 0.115165 0)
(7.44798 0.119932 0)
(7.45612 0.124579 0)
(7.46458 0.129074 0)
(7.47334 0.133383 0)
(7.33303 0.00112559 0)
(7.33337 0.00346727 0)
(7.3341 0.00591243 0)
(7.33516 0.00847316 0)
(7.33653 0.0111499 0)
(7.33818 0.0139424 0)
(7.3401 0.016851 0)
(7.34227 0.0198748 0)
(7.34469 0.0230127 0)
(7.34735 0.0262639 0)
(7.35024 0.0296277 0)
(7.35337 0.0331031 0)
(7.35673 0.0366891 0)
(7.36032 0.040384 0)
(7.36415 0.0441853 0)
(7.36822 0.0480895 0)
(7.37253 0.0520919 0)
(7.37709 0.0561864 0)
(7.3819 0.0603653 0)
(7.38697 0.0646196 0)
(7.39231 0.0689383 0)
(7.39791 0.0733088 0)
(7.40378 0.0777167 0)
(7.40993 0.0821461 0)
(7.41635 0.0865789 0)
(7.42306 0.0909957 0)
(7.43004 0.0953751 0)
(7.43731 0.0996941 0)
(7.44486 0.103928 0)
(7.45269 0.108052 0)
(7.46079 0.112037 0)
(7.46916 0.115855 0)
(7.47777 0.119475 0)
(7.33303 0.000979985 0)
(7.33338 0.00304125 0)
(7.33414 0.00523181 0)
(7.33526 0.00756362 0)
(7.33669 0.0100301 0)
(7.33842 0.0126232 0)
(7.34044 0.0153361 0)
(7.34273 0.0181616 0)
(7.34529 0.0210936 0)
(7.3481 0.0241274 0)
(7.35117 0.0272594 0)
(7.35448 0.0304864 0)
(7.35803 0.0338053 0)
(7.36182 0.0372133 0)
(7.36587 0.0407068 0)
(7.37015 0.0442816 0)
(7.37469 0.0479323 0)
(7.37947 0.0516524 0)
(7.3845 0.0554341 0)
(7.38979 0.0592682 0)
(7.39533 0.0631438 0)
(7.40112 0.0670486 0)
(7.40718 0.0709686 0)
(7.41349 0.0748884 0)
(7.42005 0.0787908 0)
(7.42687 0.0826575 0)
(7.43395 0.0864683 0)
(7.44127 0.090202 0)
(7.44883 0.0938361 0)
(7.45663 0.0973471 0)
(7.46466 0.10071 0)
(7.4729 0.103901 0)
(7.48134 0.106892 0)
(7.33304 0.000805732 0)
(7.33346 0.0024902 0)
(7.33433 0.00428483 0)
(7.33558 0.00621006 0)
(7.33714 0.00826644 0)
(7.33902 0.0104531 0)
(7.34119 0.0127674 0)
(7.34363 0.0152028 0)
(7.34634 0.0177524 0)
(7.34931 0.0204098 0)
(7.35254 0.0231694 0)
(7.35601 0.0260258 0)
(7.35974 0.0289738 0)
(7.36371 0.0320082 0)
(7.36793 0.0351231 0)
(7.3724 0.0383124 0)
(7.37711 0.041569 0)
(7.38207 0.0448848 0)
(7.38728 0.0482509 0)
(7.39273 0.0516569 0)
(7.39843 0.0550913 0)
(7.40438 0.0585412 0)
(7.41056 0.0619923 0)
(7.41699 0.0654292 0)
(7.42365 0.0688353 0)
(7.43054 0.0721927 0)
(7.43765 0.0754829 0)
(7.44497 0.078686 0)
(7.45251 0.0817818 0)
(7.46024 0.0847491 0)
(7.46815 0.0875664 0)
(7.47624 0.0902115 0)
(7.48448 0.092662 0)
(7.33303 0.000641526 0)
(7.33342 0.00205489 0)
(7.3343 0.00364571 0)
(7.33559 0.005403 0)
(7.33722 0.00730088 0)
(7.33919 0.00932161 0)
(7.34147 0.0114535 0)
(7.34404 0.0136854 0)
(7.3469 0.0160078 0)
(7.35002 0.0184134 0)
(7.35341 0.0208961 0)
(7.35706 0.0234509 0)
(7.36096 0.0260733 0)
(7.36512 0.028759 0)
(7.36953 0.0315033 0)
(7.37418 0.0343013 0)
(7.37908 0.0371469 0)
(7.38422 0.0400335 0)
(7.3896 0.042953 0)
(7.39522 0.0458965 0)
(7.40107 0.048854 0)
(7.40716 0.0518141 0)
(7.41346 0.0547642 0)
(7.41998 0.0576905 0)
(7.42672 0.0605783 0)
(7.43365 0.0634116 0)
(7.44078 0.0661738 0)
(7.4481 0.0688472 0)
(7.45559 0.0714141 0)
(7.46323 0.0738561 0)
(7.47102 0.0761547 0)
(7.47894 0.0782914 0)
(7.48697 0.0802476 0)
(7.33307 0.000351213 0)
(7.33365 0.00111683 0)
(7.33475 0.00207001 0)
(7.33622 0.00322035 0)
(7.33801 0.00455197 0)
(7.34011 0.00605543 0)
(7.34251 0.00771623 0)
(7.34519 0.00951145 0)
(7.34815 0.0114233 0)
(7.35139 0.0134384 0)
(7.35488 0.0155451 0)
(7.35864 0.0177333 0)
(7.36266 0.0199941 0)
(7.36693 0.0223195 0)
(7.37145 0.0247018 0)
(7.37623 0.0271333 0)
(7.38125 0.0296063 0)
(7.38651 0.0321123 0)
(7.392 0.0346426 0)
(7.39773 0.0371874 0)
(7.40368 0.0397363 0)
(7.40985 0.0422777 0)
(7.41623 0.0447991 0)
(7.42282 0.0472871 0)
(7.42959 0.0497287 0)
(7.43654 0.0521099 0)
(7.44367 0.0544165 0)
(7.45095 0.0566339 0)
(7.45837 0.058747 0)
(7.46591 0.0607406 0)
(7.47357 0.0625996 0)
(7.48132 0.0643085 0)
(7.48914 0.0658524 0)
(7.33303 0.000260107 0)
(7.33353 0.000996371 0)
(7.33466 0.00195822 0)
(7.33622 0.00309198 0)
(7.33814 0.00434586 0)
(7.3404 0.00568815 0)
(7.34298 0.00712902 0)
(7.34584 0.0086558 0)
(7.34898 0.0102552 0)
(7.35239 0.011919 0)
(7.35607 0.0136406 0)
(7.36 0.0154151 0)
(7.36419 0.0172381 0)
(7.36864 0.0191054 0)
(7.37333 0.0210127 0)
(7.37826 0.0229553 0)
(7.38343 0.0249279 0)
(7.38883 0.0269247 0)
(7.39446 0.0289396 0)
(7.40031 0.0309656 0)
(7.40637 0.0329954 0)
(7.41263 0.0350208 0)
(7.41907 0.0370315 0)
(7.4257 0.0390155 0)
(7.4325 0.0409607 0)
(7.43945 0.0428542 0)
(7.44655 0.0446831 0)
(7.45378 0.0464344 0)
(7.46113 0.0480951 0)
(7.46857 0.0496522 0)
(7.47609 0.051093 0)
(7.48367 0.0524053 0)
(7.49129 0.0535769 0)
(7.33315 -0.000409711 0)
(7.33404 -0.0010204 0)
(7.33544 -0.00115327 0)
(7.33714 -0.00088899 0)
(7.3391 -0.000308973 0)
(7.34138 0.000547876 0)
(7.34399 0.00159061 0)
(7.34688 0.00276986 0)
(7.35004 0.00405925 0)
(7.35347 0.00543724 0)
(7.35718 0.00688606 0)
(7.36115 0.00839231 0)
(7.36539 0.00994552 0)
(7.36989 0.0115371 0)
(7.37464 0.0131594 0)
(7.37963 0.0148058 0)
(7.38487 0.0164696 0)
(7.39034 0.0181444 0)
(7.39604 0.0198233 0)
(7.40196 0.0214988 0)
(7.40808 0.0231625 0)
(7.4144 0.0248045 0)
(7.42091 0.0264149 0)
(7.42758 0.027987 0)
(7.4344 0.0295144 0)
(7.44137 0.0309892 0)
(7.44846 0.0324029 0)
(7.45565 0.0337466 0)
(7.46294 0.0350111 0)
(7.4703 0.0361869 0)
(7.47771 0.0372648 0)
(7.48516 0.0382354 0)
(7.49262 0.0390899 0)
(7.3331 -0.000140351 0)
(7.33414 -0.00013196 0)
(7.33601 0.000147266 0)
(7.33821 0.000513048 0)
(7.3407 0.000984095 0)
(7.34345 0.00157192 0)
(7.3464 0.00221793 0)
(7.34957 0.00291321 0)
(7.35299 0.00366132 0)
(7.35666 0.00445905 0)
(7.36057 0.0053032 0)
(7.36472 0.00619095 0)
(7.36913 0.00711881 0)
(7.37377 0.00808273 0)
(7.37865 0.00907843 0)
(7.38377 0.0101015 0)
(7.38911 0.0111478 0)
(7.39467 0.0122134 0)
(7.40045 0.0132956 0)
(7.40642 0.0143937 0)
(7.41258 0.0155124 0)
(7.41891 0.0166499 0)
(7.4254 0.0177846 0)
(7.43206 0.0188997 0)
(7.43886 0.0199861 0)
(7.44579 0.0210358 0)
(7.45283 0.0220405 0)
(7.45996 0.0229924 0)
(7.46717 0.023884 0)
(7.47443 0.0247083 0)
(7.48173 0.025458 0)
(7.48905 0.0261266 0)
(7.49636 0.0267068 0)
(7.33434 -0.00326948 0)
(7.33901 -0.00583769 0)
(7.34461 -0.00654779 0)
(7.35068 -0.00674987 0)
(7.3571 -0.00655385 0)
(7.36364 -0.00608951 0)
(7.37021 -0.00547487 0)
(7.37676 -0.00476995 0)
(7.38329 -0.00400709 0)
(7.38978 -0.00320989 0)
(7.39624 -0.00239299 0)
(7.40268 -0.00156476 0)
(7.40911 -0.000730739 0)
(7.41555 0.000105016 0)
(7.42201 0.00093921 0)
(7.42851 0.00176865 0)
(7.43506 0.00258967 0)
(7.44167 0.0033977 0)
(7.44837 0.00418653 0)
(7.45518 0.00494819 0)
(7.46213 0.00567085 0)
(7.46926 0.00635235 0)
(7.47655 0.00700971 0)
(7.48401 0.00765006 0)
(7.49161 0.00827068 0)
(7.49934 0.00886795 0)
(7.50719 0.00943856 0)
(7.51513 0.00997847 0)
(7.52314 0.0104832 0)
(7.5312 0.010948 0)
(7.53929 0.0113687 0)
(7.54738 0.0117407 0)
(7.55546 0.0120609 0)
(7.32983 -0.00373674 0)
(7.32502 -0.00759016 0)
(7.31726 -0.0095671 0)
(7.3083 -0.0108282 0)
(7.29954 -0.0115158 0)
(7.29111 -0.0117637 0)
(7.2831 -0.011731 0)
(7.27568 -0.0115168 0)
(7.26891 -0.0111793 0)
(7.26281 -0.0107596 0)
(7.2574 -0.0102877 0)
(7.25265 -0.00978443 0)
(7.24855 -0.00926425 0)
(7.24508 -0.00873769 0)
(7.24221 -0.00821281 0)
(7.23991 -0.00769626 0)
(7.23815 -0.00719452 0)
(7.23689 -0.0067149 0)
(7.2361 -0.00626759 0)
(7.23572 -0.00586688 0)
(7.23571 -0.00553704 0)
(7.236 -0.00528736 0)
(7.23657 -0.00508538 0)
(7.23739 -0.00490889 0)
(7.23843 -0.00475247 0)
(7.23968 -0.00461373 0)
(7.24111 -0.00449005 0)
(7.2427 -0.00438027 0)
(7.24443 -0.00428461 0)
(7.24628 -0.00420403 0)
(7.24823 -0.00413925 0)
(7.25027 -0.00409195 0)
(7.25235 -0.00406192 0)
(2.26048 0.0793903 0)
(2.20967 0.0734696 0)
(2.20776 0.136156 0)
(2.25345 0.197447 0)
(2.40328 0.0435971 0)
(2.64387 -0.455312 0)
(2.63496 -1.02223 0)
(2.0623 -1.33702 0)
(0.687538 -1.38185 0)
(0.0368717 -0.60628 0)
(0.458532 0.89882 0)
(0.705994 2.29189 0)
(0.907095 3.44843 0)
(1.1321 4.23672 0)
(1.40134 4.53067 0)
(1.72386 4.28656 0)
(2.08583 3.5396 0)
(2.49802 2.33654 0)
(2.98212 0.799805 0)
(3.47368 -0.782792 0)
(3.84668 -2.03563 0)
(4.12383 -2.7968 0)
(4.40291 -3.14579 0)
(4.69202 -3.14143 0)
(4.94463 -2.79159 0)
(5.15205 -2.1703 0)
(5.35433 -1.42219 0)
(5.60245 -0.68317 0)
(5.92683 -0.0341359 0)
(6.32823 0.490414 0)
(6.8045 0.879176 0)
(7.33295 1.12108 0)
(7.86051 1.19702 0)