/*--------------------------------*- C++ -*----------------------------------*\
  =========                 |
  \\      /  F ield         | OpenFOAM: The Open Source CFD Toolbox
   \\    /   O peration     | Website:  https://openfoam.org
    \\  /    A nd           | Version:  10
     \\/     M anipulation  |
\*---------------------------------------------------------------------------*/
FoamFile
{
    format      ascii;
    class       volScalarField;
    location    "800";
    object      epsilon;
}
// * * * * * * * * * * * * * * * * * * * * * * * * * * * * * * * * * * * * * //

dimensions      [0 2 -3 0 0 0 0];

internalField   nonuniform List<scalar> 
6820
(
23.3479
22.8004
22.2986
21.7956
21.2906
20.7982
20.3323
19.9019
19.5116
19.1627
18.8542
18.5841
18.3496
18.1478
17.9757
17.8305
17.7094
17.6099
17.5299
17.4671
17.4199
17.3865
17.3654
17.3555
17.3555
17.3647
17.3818
17.4057
17.4408
17.5151
17.1878
18.9943
14.1539
5.24751
7.40636
8.54781
9.1634
9.54961
9.84098
10.0955
10.3388
10.5816
10.828
11.0791
11.3347
11.5945
11.8578
12.1238
12.3919
12.6616
12.9323
13.2038
13.4756
13.7477
14.0201
14.2928
14.5666
14.8422
15.1213
15.406
15.7012
16.0148
16.3738
16.6509
17.5135
18.1953
3.71892
4.27985
4.80503
5.21573
5.5268
5.76845
5.96464
6.13178
6.28069
6.41847
6.54981
6.67777
6.80438
6.93093
7.05822
7.18673
7.31671
7.44827
7.58144
7.71619
7.85249
7.99029
8.12962
8.27055
8.41327
8.55819
8.70598
8.85786
9.01495
9.18773
9.35655
9.56847
9.98164
3.53759
3.62335
3.7716
3.93761
4.09555
4.23614
4.35839
4.4645
4.55751
4.64031
4.71536
4.78469
4.84987
4.91214
4.97247
5.03156
5.08997
5.14812
5.20631
5.26478
5.3237
5.38321
5.44344
5.50452
5.56661
5.62993
5.6948
5.76171
5.83109
5.90585
5.98485
6.06428
6.18314
3.52015
3.50151
3.51115
3.54398
3.59069
3.64318
3.69619
3.74687
3.794
3.8373
3.87695
3.91336
3.94702
3.97841
4.00797
4.0361
4.06314
4.08939
4.11509
4.14045
4.16564
4.19081
4.2161
4.24164
4.26756
4.29401
4.32119
4.34935
4.37875
4.4102
4.44422
4.47946
4.52036
3.51931
3.48209
3.45346
3.43537
3.42736
3.42745
3.43326
3.44266
3.45402
3.46622
3.47856
3.49062
3.50219
3.51319
3.52361
3.53349
3.54292
3.55198
3.56074
3.56931
3.57775
3.58616
3.5946
3.60316
3.61191
3.62095
3.63038
3.64036
3.65102
3.66264
3.67556
3.68971
3.70539
3.51943
3.47964
3.44271
3.40975
3.38151
3.35815
3.33934
3.32445
3.31275
3.30354
3.29623
3.29034
3.28548
3.28139
3.27786
3.27476
3.272
3.2695
3.26724
3.2652
3.26336
3.26174
3.26035
3.2592
3.25833
3.25776
3.25755
3.25776
3.25847
3.2598
3.2619
3.26486
3.26873
3.51947
3.47942
3.44105
3.40466
3.37057
3.33904
3.31021
3.28405
3.26042
3.23912
3.21988
3.20244
3.18657
3.17203
3.15864
3.14625
3.1347
3.12391
3.11378
3.10424
3.09524
3.08674
3.0787
3.0711
3.06394
3.0572
3.0509
3.04506
3.0397
3.03487
3.03063
3.02706
3.02418
3.51948
3.47941
3.44084
3.40381
3.36835
3.33453
3.30243
3.27209
3.24351
3.21666
3.19148
3.16787
3.14573
3.12494
3.10541
3.08701
3.06965
3.05324
3.0377
3.02295
3.00894
2.99561
2.98291
2.97081
2.95927
2.94828
2.93781
2.92787
2.91845
2.90956
2.90123
2.89348
2.88633
3.51948
3.4794
3.44081
3.40368
3.36795
3.33361
3.30063
3.26902
3.23875
3.20982
3.1822
3.15586
3.13075
3.10682
3.08402
3.06229
3.04158
3.02181
3.00294
2.9849
2.96767
2.95117
2.93538
2.92026
2.90577
2.89188
2.87858
2.86585
2.85367
2.84204
2.83097
2.82045
2.81049
3.51948
3.4794
3.44081
3.40365
3.36788
3.33343
3.30025
3.26831
3.23757
3.20799
3.17953
3.15218
3.12589
3.10063
3.07637
3.05307
3.0307
3.0092
2.98855
2.96871
2.94963
2.9313
2.91366
2.8967
2.88039
2.86469
2.84959
2.83507
2.82111
2.80771
2.79485
2.78254
2.77076
3.51948
3.4794
3.4408
3.40364
3.36785
3.33338
3.30017
3.26816
3.23729
3.20753
3.17884
3.15117
3.12448
3.09875
3.07393
3.05
3.02692
3.00466
2.9832
2.96249
2.94251
2.92324
2.90464
2.8867
2.86938
2.85266
2.83654
2.82098
2.80597
2.79151
2.77758
2.76418
2.75129
3.51948
3.4794
3.44079
3.40363
3.36784
3.33336
3.30014
3.26811
3.23722
3.20742
3.17866
3.1509
3.1241
3.09822
3.07322
3.04907
3.02573
3.00319
2.9814
2.96033
2.93997
2.92028
2.90125
2.88284
2.86504
2.84783
2.83118
2.81509
2.79954
2.78451
2.77
2.75599
2.74248
3.51948
3.47939
3.44079
3.40362
3.36783
3.33335
3.30012
3.26808
3.23718
3.20737
3.1786
3.15082
3.12398
3.09806
3.07301
3.04879
3.02538
3.00274
2.98084
2.95965
2.93914
2.9193
2.90009
2.88149
2.86349
2.84606
2.82919
2.81286
2.79705
2.78176
2.76696
2.75265
2.73881
3.51947
3.47939
3.44079
3.40362
3.36782
3.33334
3.3001
3.26806
3.23716
3.20734
3.17856
3.15077
3.12393
3.098
3.07293
3.0487
3.02526
3.00259
2.98066
2.95943
2.93888
2.91898
2.89972
2.88106
2.86298
2.84548
2.82852
2.81209
2.79618
2.78076
2.76584
2.7514
2.73741
3.51947
3.47939
3.44078
3.40361
3.36781
3.33333
3.30009
3.26805
3.23714
3.20732
3.17854
3.15075
3.1239
3.09796
3.07289
3.04865
3.02521
3.00254
2.98059
2.95935
2.93879
2.91888
2.8996
2.88092
2.86282
2.84529
2.8283
2.81184
2.79589
2.78043
2.76546
2.75095
2.7369
3.51947
3.47939
3.44078
3.40361
3.36781
3.33332
3.30008
3.26803
3.23712
3.2073
3.17851
3.15072
3.12387
3.09793
3.07286
3.04862
3.02518
3.0025
2.98055
2.95931
2.93875
2.91884
2.89955
2.88087
2.86277
2.84523
2.82823
2.81176
2.7958
2.78032
2.76533
2.7508
2.73671
3.51947
3.47939
3.44078
3.4036
3.3678
3.33331
3.30007
3.26802
3.23711
3.20728
3.1785
3.1507
3.12385
3.09791
3.07284
3.04859
3.02515
3.00247
2.98053
2.95929
2.93872
2.91881
2.89952
2.88084
2.86274
2.8452
2.8282
2.81173
2.79576
2.78028
2.76527
2.75073
2.73662
3.51947
3.47939
3.44078
3.4036
3.3678
3.3333
3.30006
3.26801
3.2371
3.20727
3.17848
3.15068
3.12383
3.09789
3.07281
3.04857
3.02513
3.00245
2.9805
2.95926
2.9387
2.91879
2.89951
2.88082
2.86272
2.84518
2.82819
2.81171
2.79574
2.78025
2.76524
2.75068
2.73657
3.51947
3.47939
3.44077
3.4036
3.36779
3.3333
3.30005
3.268
3.23708
3.20725
3.17846
3.15066
3.12381
3.09787
3.07279
3.04855
3.02511
3.00243
2.98048
2.95924
2.93868
2.91877
2.89949
2.88081
2.86271
2.84517
2.82817
2.81169
2.79572
2.78023
2.76521
2.75065
2.73652
3.51947
3.47939
3.44077
3.40359
3.36779
3.33329
3.30005
3.26799
3.23707
3.20724
3.17845
3.15065
3.1238
3.09785
3.07278
3.04853
3.02509
3.00241
2.98047
2.95923
2.93867
2.91876
2.89947
2.88079
2.86269
2.84516
2.82816
2.81168
2.7957
2.78021
2.76518
2.75061
2.73647
3.51947
3.47938
3.44077
3.40359
3.36779
3.33329
3.30004
3.26798
3.23707
3.20723
3.17844
3.15064
3.12378
3.09784
3.07276
3.04852
3.02507
3.00239
2.98045
2.95921
2.93865
2.91874
2.89946
2.88078
2.86268
2.84514
2.82814
2.81166
2.79568
2.78018
2.76515
2.75057
2.73643
3.51947
3.47938
3.44077
3.40359
3.36778
3.33329
3.30004
3.26798
3.23706
3.20723
3.17843
3.15063
3.12377
3.09783
3.07275
3.04851
3.02506
3.00238
2.98044
2.9592
2.93864
2.91873
2.89945
2.88077
2.86267
2.84513
2.82813
2.81164
2.79566
2.78016
2.76512
2.75054
2.73638
3.51947
3.47938
3.44077
3.40359
3.36778
3.33328
3.30003
3.26797
3.23705
3.20722
3.17842
3.15062
3.12376
3.09782
3.07274
3.04849
3.02505
3.00237
2.98043
2.95919
2.93863
2.91872
2.89944
2.88076
2.86266
2.84512
2.82811
2.81162
2.79564
2.78013
2.76509
2.7505
2.73634
3.51947
3.47938
3.44077
3.40359
3.36778
3.33328
3.30003
3.26797
3.23705
3.20721
3.17842
3.15061
3.12375
3.09781
3.07273
3.04849
3.02504
3.00236
2.98042
2.95918
2.93862
2.91871
2.89943
2.88075
2.86265
2.8451
2.8281
2.81161
2.79562
2.78011
2.76506
2.75046
2.7363
3.51947
3.47938
3.44077
3.40359
3.36778
3.33328
3.30003
3.26797
3.23704
3.20721
3.17841
3.1506
3.12375
3.0978
3.07272
3.04848
3.02503
3.00236
2.98041
2.95917
2.93861
2.9187
2.89942
2.88074
2.86264
2.84509
2.82808
2.81159
2.7956
2.78008
2.76503
2.75043
2.73625
3.51947
3.47938
3.44077
3.40359
3.36778
3.33328
3.30002
3.26796
3.23704
3.2072
3.17841
3.1506
3.12374
3.0978
3.07272
3.04847
3.02503
3.00235
2.98041
2.95917
2.93861
2.9187
2.89941
2.88073
2.86263
2.84508
2.82807
2.81157
2.79558
2.78006
2.765
2.7504
2.73621
3.51947
3.47938
3.44077
3.40359
3.36778
3.33328
3.30002
3.26796
3.23704
3.2072
3.1784
3.1506
3.12374
3.09779
3.07272
3.04847
3.02503
3.00235
2.9804
2.95916
2.9386
2.91869
2.89941
2.88072
2.86262
2.84507
2.82806
2.81156
2.79556
2.78004
2.76498
2.75036
2.73618
3.51947
3.47938
3.44077
3.40359
3.36778
3.33327
3.30002
3.26796
3.23704
3.2072
3.1784
3.1506
3.12374
3.09779
3.07272
3.04847
3.02503
3.00235
2.9804
2.95916
2.9386
2.91869
2.89941
2.88072
2.86261
2.84506
2.82805
2.81155
2.79555
2.78002
2.76496
2.75034
2.73614
3.51947
3.47938
3.44077
3.40359
3.36778
3.33327
3.30002
3.26796
3.23704
3.2072
3.1784
3.1506
3.12374
3.09779
3.07272
3.04847
3.02503
3.00235
2.98041
2.95917
2.93861
2.91869
2.89941
2.88072
2.86261
2.84506
2.82805
2.81154
2.79554
2.78001
2.76494
2.75032
2.73612
3.51947
3.47938
3.44077
3.40359
3.36778
3.33327
3.30002
3.26796
3.23704
3.2072
3.1784
3.1506
3.12374
3.0978
3.07272
3.04848
3.02503
3.00235
2.98041
2.95917
2.93861
2.9187
2.89941
2.88073
2.86262
2.84507
2.82805
2.81155
2.79554
2.78001
2.76495
2.75032
2.73612
3.51947
3.47938
3.44077
3.40359
3.36778
3.33327
3.30002
3.26796
3.23704
3.2072
3.17841
3.1506
3.12375
3.09781
3.07273
3.04849
3.02505
3.00238
2.98044
2.95921
2.93865
2.91875
2.89947
2.88079
2.86269
2.84514
2.82813
2.81164
2.79564
2.78012
2.76507
2.75045
2.73626
3.51947
3.47938
3.44077
3.40359
3.36778
3.33328
3.30002
3.26796
3.23704
3.20721
3.17842
3.15062
3.12377
3.09784
3.07278
3.04855
3.02513
3.00247
2.98056
2.95935
2.93882
2.91895
2.89971
2.88107
2.86301
2.84551
2.82855
2.81211
2.79617
2.78071
2.76572
2.75117
2.73704
3.51947
3.47938
3.44077
3.40359
3.36778
3.33329
3.30005
3.26801
3.23711
3.20732
3.17857
3.15082
3.12404
3.09818
3.07321
3.04908
3.02577
3.00324
2.98146
2.9604
2.94004
2.92034
2.90129
2.88285
2.86501
2.84773
2.831
2.8148
2.79911
2.78391
2.76918
2.7549
2.74105
3.51947
3.47938
3.44078
3.40361
3.36785
3.33342
3.30028
3.26838
3.23767
3.20811
3.17964
3.15224
3.12585
3.10045
3.07598
3.05242
3.02972
3.00786
2.9868
2.96649
2.94693
2.92806
2.90987
2.89232
2.87538
2.85904
2.84326
2.82802
2.8133
2.79908
2.78533
2.77204
2.75918
3.51947
3.47942
3.44096
3.40413
3.36893
3.33533
3.30326
3.27268
3.24354
3.21576
3.18931
3.16412
3.14014
3.11731
3.09558
3.07487
3.05515
3.03635
3.01842
3.00131
2.98497
2.96937
2.95444
2.94017
2.9265
2.91339
2.90083
2.88877
2.87719
2.86606
2.85535
2.84504
2.8351
3.5195
3.48076
3.44539
3.41321
3.38396
3.35746
3.33353
3.31199
3.29267
3.27538
3.25992
3.24612
3.23381
3.22281
3.21299
3.2042
3.19633
3.18925
3.18288
3.17712
3.17189
3.16714
3.16279
3.1588
3.15511
3.15169
3.14849
3.14549
3.14266
3.13997
3.1374
3.13493
3.13255
3.52507
3.51485
3.52104
3.53653
3.55843
3.58521
3.61583
3.64939
3.68507
3.72218
3.76017
3.79859
3.83708
3.87536
3.9132
3.95042
3.9869
4.02253
4.05723
4.09096
4.12368
4.15537
4.18603
4.21564
4.24422
4.27179
4.29835
4.32392
4.34854
4.37222
4.39498
4.41687
4.43791
3.84201
4.38782
4.87751
5.34268
5.79478
6.23527
6.66206
7.07378
7.47039
7.85247
8.22075
8.57598
8.91891
9.25026
9.57066
9.88066
10.1808
10.4714
10.753
11.0259
11.2904
11.5468
11.7955
12.0367
12.2706
12.4976
12.7179
12.9317
13.1392
13.3408
13.5366
13.7269
13.9119
30.2673
32.7691
35.3054
37.8488
40.3863
42.9101
45.4132
47.8887
50.3299
52.7309
55.0865
57.3922
59.6439
61.8384
63.973
66.0457
68.0549
69.9994
71.8788
73.6927
75.4413
77.1249
78.7443
80.3004
81.7942
83.2271
84.6004
85.9157
87.1746
88.3787
89.5298
90.6294
91.6804
59.2786
274.946
561.515
753.376
839.565
893.433
943.211
962.989
939.825
888.242
825.991
762.193
701.018
644.679
594.114
549.288
509.639
474.474
443.218
415.5
391.126
369.984
351.935
336.712
323.89
312.913
303.176
294.119
285.295
276.395
267.25
257.819
248.175
238.481
228.954
219.814
211.23
203.285
195.965
189.169
182.739
176.487
170.215
163.729
156.856
149.458
141.45
132.822
123.654
114.125
104.51
95.1773
86.5882
79.3091
74.0042
71.3236
71.6183
74.6312
79.4752
84.9643
90.0215
93.9097
96.2588
96.9847
96.1857
94.0583
90.8414
86.7836
82.1262
77.0959
71.9006
66.7275
61.7418
57.0844
52.8714
49.1938
46.1174
43.6815
41.8938
40.7216
40.0856
39.8622
39.8999
40.0443
40.1598
40.1435
39.9273
39.4734
38.7667
37.809
36.6155
35.2157
33.6576
32.0181
30.4164
29.0098
27.9479
27.2766
26.9659
26.8254
18.0895
25.5936
65.1458
133.26
200.201
254.799
310.542
381.131
458.682
520.669
552.133
555.254
540.597
517.351
490.944
464.011
437.684
412.447
388.591
366.421
346.285
328.505
313.273
300.546
290.016
281.145
273.275
265.746
258.012
249.701
240.639
230.841
220.486
209.866
199.332
189.221
179.794
171.196
163.443
156.439
150.012
143.949
138.023
132.018
125.743
119.05
111.852
104.142
96.0007
87.6037
79.2091
71.1434
63.7898
57.5951
53.0933
50.8718
51.3596
54.4876
59.5502
65.4517
71.1149
75.7523
78.931
80.5124
80.556
79.2364
76.7832
73.4452
69.469
65.0881
60.5162
55.9444
51.5382
47.4367
43.7523
40.5718
37.9575
35.9471
34.5493
33.7358
33.433
33.524
33.8622
34.2964
34.6924
34.9476
34.994
34.7937
34.3326
33.6136
32.654
31.4864
30.1637
28.7682
27.4215
26.275
25.465
25.0256
24.907
24.9958
10.0761
9.00954
9.55069
15.9593
28.0596
41.3531
53.7521
68.2725
91.2498
126.811
172.316
219.297
258.672
285.889
301.085
306.654
305.253
299.076
289.842
278.962
267.635
256.845
247.296
239.341
232.95
227.754
223.156
218.489
213.162
206.764
199.119
190.287
180.523
170.218
159.824
149.773
140.406
131.935
124.423
117.805
111.919
106.554
101.478
96.4653
91.3217
85.897
80.1038
73.9315
67.4542
60.8265
54.2687
48.0418
42.4231
37.7028
34.2192
32.4064
32.7257
35.3746
39.9962
45.7332
51.5798
56.7064
60.5935
63.0151
63.9618
63.5601
62.011
59.548
56.4107
52.8299
49.0179
45.1639
41.4303
37.952
34.8368
32.1674
30.0034
28.3832
27.3204
26.7964
26.7515
27.0834
27.6579
28.3313
28.9728
29.4797
29.7821
29.8402
29.6382
29.1782
28.4777
27.5702
26.5107
25.3831
24.3055
23.4186
22.8433
22.6088
22.6539
22.9486
6.3546
6.27675
5.88805
5.8728
7.01121
9.12063
11.1945
12.7864
14.6553
18.4576
26.7043
41.3944
62.306
86.9786
111.783
133.361
149.744
160.466
166.111
167.815
166.903
164.64
162.069
159.895
158.419
157.545
156.862
155.789
153.752
150.326
145.319
138.794
131.036
122.478
113.616
104.924
96.7859
89.455
83.039
77.5144
72.7593
68.5912
64.804
61.1955
57.5885
53.847
49.8904
45.7037
41.3412
36.9193
32.5981
28.5547
24.9561
21.9473
19.6736
18.35
18.3229
19.9622
23.3494
28.0681
33.3488
38.3918
42.5951
45.6187
47.3492
47.8332
47.2154
45.6919
43.4786
40.7906
37.8291
34.7743
31.7804
28.9749
26.4586
24.3083
22.5804
21.3133
20.527
20.2166
20.3426
20.8253
21.551
22.3899
23.2179
23.9328
24.4622
24.7622
24.8133
24.6144
24.1806
23.5436
22.7568
21.9018
21.0907
20.4516
20.0914
20.0375
20.2219
20.7016
4.58523
4.64438
4.61839
4.53689
4.59118
4.93569
5.4493
5.80548
5.83761
5.7982
6.23855
7.80389
11.2434
17.1576
25.4908
35.6144
46.3252
56.3059
64.6058
70.838
75.1326
77.9616
79.9376
81.6326
83.4343
85.4538
87.5083
89.1927
90.0189
89.5706
87.6197
84.1759
79.4672
73.8723
67.8339
61.7764
56.0462
50.8785
46.3907
42.595
39.422
36.7504
34.435
32.3298
30.3053
28.2608
26.1339
23.9068
21.6064
19.2975
17.0681
15.01
13.2008
11.695
10.5309
9.76685
9.55186
10.1698
11.9247
14.8793
18.7119
22.8452
26.6911
29.8159
31.9842
33.132
33.3167
32.6705
31.3635
29.5783
27.4925
25.2676
23.0431
20.9335
19.0284
17.3956
16.0847
15.1318
14.5614
14.3829
14.5808
15.1056
15.873
16.7753
17.7008
18.5508
19.2501
19.7497
20.0239
20.0663
19.8866
19.5116
18.9888
18.3934
17.8291
17.4132
17.2417
17.343
17.6436
18.2872
3.72745
3.75792
3.77919
3.7764
3.77283
3.83051
3.97517
4.13054
4.17329
4.06838
3.92428
3.93111
4.29632
5.2165
6.83731
9.169
12.1202
15.456
18.8535
22.015
24.7584
27.0499
28.9835
30.7307
32.4731
34.3288
36.2876
38.1854
39.7411
40.647
40.6731
39.7388
37.9269
35.446
32.5663
29.5569
26.6408
23.9742
21.6436
19.6751
18.0485
16.7121
15.5974
14.6316
13.7473
12.8903
12.0242
11.1333
10.2226
9.31401
8.43952
7.63254
6.92086
6.32253
5.84678
5.50318
5.32808
5.43053
6.01284
7.28702
9.31024
11.8925
14.6662
17.2386
19.3088
20.7096
21.3964
21.4153
20.8693
19.8896
18.615
17.1772
15.692
14.2547
12.9392
11.8
10.8768
10.1992
9.79151
9.67235
9.84843
10.3033
10.9896
11.8315
12.7382
13.62
14.4021
15.03
15.4706
15.7096
15.7492
15.6077
15.3234
14.9597
14.6086
14.378
14.358
14.5822
14.9722
15.7544
3.27425
3.28332
3.29352
3.29927
3.29937
3.30764
3.34269
3.39925
3.43908
3.42237
3.34923
3.26836
3.25236
3.37188
3.68253
4.19746
4.90029
5.75395
6.69852
7.66411
8.58995
9.43959
10.2076
10.9174
11.6115
12.3341
13.1069
13.9069
14.6577
15.2466
15.5621
15.5332
15.1517
14.4691
13.5749
12.57
11.5446
10.5672
9.68164
8.90935
8.25414
7.70677
7.24945
6.85997
6.51555
6.19597
5.88597
5.5767
5.26599
4.95753
4.65897
4.37956
4.12795
3.91063
3.73135
3.59224
3.49938
3.47877
3.60005
3.98018
4.73492
5.8984
7.37579
8.9695
10.4538
11.6444
12.4328
12.7877
12.7389
12.3552
11.7247
10.9387
10.0812
9.22274
8.41817
7.70747
7.11905
6.67429
6.39222
6.29234
6.39271
6.70193
7.20848
7.87468
8.64053
9.43532
10.1909
10.851
11.376
11.7428
11.9443
11.9884
11.9007
11.7292
11.5492
11.4565
11.5393
11.8424
12.2862
13.171
3.02142
3.0195
3.01879
3.01805
3.01573
3.01359
3.01748
3.03057
3.04565
3.04776
3.02656
2.98695
2.94909
2.94064
2.98748
3.10109
3.28003
3.51451
3.78838
4.08224
4.37752
4.66012
4.92271
5.16549
5.39518
5.62211
5.85496
6.09421
6.32737
6.52951
6.67015
6.72368
6.67782
6.53644
6.3167
6.04287
5.74028
5.43104
5.13205
4.85463
4.60503
4.38518
4.19356
4.02619
3.87768
3.74238
3.61535
3.49307
3.37381
3.25759
3.14578
3.04058
2.94435
2.85912
2.78621
2.72616
2.67958
2.65089
2.65715
2.73765
2.95019
3.346
3.93631
4.67453
5.4666
6.20208
6.78694
7.16364
7.31537
7.25918
7.03424
6.68992
6.27616
5.83725
5.40875
5.01717
4.68148
4.41585
4.233
4.14717
4.17537
4.33462
4.63466
5.06952
5.61326
6.22309
6.84802
7.43837
7.9529
8.36244
8.65095
8.81586
8.86933
8.84177
8.78734
8.78434
8.91599
9.24317
9.69267
10.6267
2.87856
2.87041
2.86293
2.85595
2.84896
2.84187
2.83588
2.83259
2.83149
2.82884
2.81985
2.80252
2.78001
2.76039
2.75393
2.76809
2.80599
2.86647
2.94515
3.0358
3.13176
3.22724
3.31822
3.40285
3.48146
3.55602
3.62893
3.7013
3.7714
3.83412
3.88206
3.90769
3.90573
3.87453
3.81617
3.73547
3.63865
3.53216
3.42179
3.31231
3.20727
3.10899
3.0186
2.93622
2.86117
2.7923
2.72834
2.66822
2.61125
2.55718
2.50615
2.45855
2.41482
2.37533
2.34019
2.3093
2.28239
2.25974
2.24462
2.24744
2.2885
2.3936
2.58207
2.85426
3.18646
3.53644
3.85617
4.10505
4.25857
4.31044
4.26971
4.15529
3.99025
3.79738
3.59639
3.40289
3.22863
3.08252
2.97235
2.90662
2.89623
2.95463
3.09541
3.32695
3.64678
4.0388
4.47522
4.922
5.34513
5.71575
6.01328
6.22721
6.35831
6.42098
6.44767
6.49342
6.62799
6.92386
7.32344
8.23306
2.79946
2.7874
2.77574
2.76447
2.7535
2.7427
2.73218
2.72235
2.71341
2.70471
2.69484
2.6825
2.6675
2.65143
2.63728
2.62823
2.62657
2.63321
2.64761
2.66817
2.69266
2.71884
2.74482
2.76939
2.79208
2.8131
2.83303
2.85236
2.87089
2.88752
2.90026
2.90677
2.90494
2.89347
2.87205
2.84135
2.80274
2.75801
2.70911
2.65791
2.60611
2.55512
2.506
2.45943
2.41575
2.37501
2.33707
2.30174
2.26884
2.23822
2.2098
2.18351
2.15923
2.13675
2.11576
2.09589
2.07671
2.05793
2.03993
2.02503
2.01918
2.03216
2.07476
2.15356
2.26648
2.40188
2.54157
2.66605
2.75948
2.81278
2.82422
2.79807
2.74234
2.66652
2.57989
2.49048
2.40479
2.32803
2.26463
2.21921
2.19748
2.20713
2.25755
2.35809
2.51458
2.72606
2.98313
3.26901
3.56261
3.84233
4.08946
4.29079
4.44038
4.54125
4.60826
4.67316
4.78396
5.01099
5.3141
6.11394
2.7576
2.74302
2.72872
2.71469
2.70093
2.6874
2.67408
2.661
2.64823
2.63572
2.62316
2.61011
2.59625
2.58169
2.56705
2.55327
2.54126
2.5317
2.52482
2.5204
2.51791
2.51665
2.51594
2.51525
2.51431
2.5131
2.51179
2.51057
2.50948
2.50825
2.50629
2.50274
2.49669
2.48733
2.47413
2.45691
2.4358
2.41121
2.38377
2.35423
2.3234
2.29204
2.26089
2.23054
2.20143
2.17387
2.14802
2.12396
2.10166
2.08107
2.06204
2.04439
2.02784
2.01203
1.99651
1.98084
1.96458
1.94744
1.92931
1.91067
1.8931
1.87977
1.87521
1.88381
1.90771
1.94537
1.99157
2.03883
2.07954
2.10776
2.12025
2.11652
2.09833
2.06878
2.0315
1.99004
1.94759
1.90682
1.87009
1.83971
1.81844
1.80998
1.81933
1.85249
1.91524
2.01116
2.13979
2.29579
2.46951
2.64865
2.82044
2.97385
3.10136
3.20041
3.27508
3.33974
3.42014
3.57064
3.76123
4.38053
2.73682
2.72069
2.70474
2.68899
2.67344
2.65809
2.64291
2.6279
2.61304
2.59833
2.58373
2.56913
2.55439
2.53946
2.52439
2.50935
2.49459
2.48034
2.46674
2.45383
2.44153
2.4297
2.41819
2.40687
2.39571
2.38474
2.3741
2.36392
2.35428
2.34511
2.33622
2.32722
2.31766
2.30702
2.29489
2.28094
2.26501
2.24711
2.22742
2.20624
2.18397
2.16107
2.13801
2.11523
2.09309
2.07191
2.05189
2.03316
2.01575
1.9996
1.98459
1.97048
1.95697
1.94367
1.93014
1.91595
1.90069
1.88408
1.86603
1.84663
1.82636
1.80625
1.78797
1.77361
1.76497
1.76284
1.76649
1.7738
1.7819
1.78788
1.78952
1.78559
1.77588
1.76095
1.74188
1.71996
1.69646
1.6726
1.64946
1.62812
1.60983
1.59622
1.58958
1.59298
1.61002
1.64407
1.69717
1.76909
1.85686
1.9551
2.05699
2.15548
2.2446
2.32058
2.38279
2.4359
2.49008
2.57954
2.6775
3.09157
2.72727
2.71023
2.69332
2.67655
2.65992
2.64344
2.62711
2.61089
2.59479
2.5788
2.5629
2.54708
2.5313
2.51552
2.49973
2.48391
2.46808
2.45228
2.43652
2.42081
2.40515
2.38953
2.37396
2.35846
2.34311
2.32802
2.31333
2.29916
2.28562
2.27271
2.26035
2.24834
2.23641
2.22423
2.21148
2.19786
2.18319
2.16736
2.15041
2.13246
2.11374
2.09453
2.07514
2.05589
2.03709
2.01896
2.00171
1.98544
1.97018
1.95589
1.94243
1.92959
1.91706
1.90449
1.89147
1.8776
1.86254
1.84604
1.828
1.80849
1.78772
1.76613
1.74441
1.72346
1.70429
1.68772
1.67412
1.66325
1.65436
1.6464
1.63827
1.62914
1.61846
1.60606
1.59203
1.57664
1.56028
1.54335
1.52625
1.50943
1.49337
1.47875
1.46652
1.45806
1.45518
1.45993
1.47423
1.4992
1.53476
1.57932
1.63004
1.6833
1.73544
1.78347
1.82561
1.8625
1.89646
1.94589
1.98733
2.22493
2.72322
2.7057
2.68827
2.67093
2.6537
2.63656
2.61953
2.6026
2.58576
2.569
2.55232
2.53571
2.51916
2.50267
2.4862
2.46975
2.45327
2.43674
2.42014
2.40344
2.38662
2.36971
2.35272
2.33573
2.31882
2.30211
2.28576
2.26987
2.25456
2.23985
2.22571
2.21203
2.19862
2.18525
2.17168
2.15769
2.14309
2.12779
2.11175
2.09505
2.07781
2.06022
2.04251
2.02492
2.00768
1.99097
1.97496
1.95972
1.94529
1.93161
1.91857
1.90594
1.89348
1.88084
1.86769
1.85367
1.83847
1.8219
1.80387
1.78442
1.76371
1.74203
1.71974
1.69733
1.67534
1.6543
1.63463
1.61658
1.6001
1.58496
1.57079
1.55717
1.54374
1.53021
1.51643
1.50231
1.48784
1.47308
1.45809
1.44299
1.42793
1.41316
1.39903
1.38611
1.37519
1.3673
1.36359
1.3651
1.37249
1.38575
1.40411
1.42616
1.4501
1.47414
1.49679
1.51756
1.53596
1.56082
1.57489
1.69174
2.72163
2.70387
2.68617
2.66854
2.65097
2.63348
2.61606
2.59872
2.58145
2.56423
2.54708
2.52999
2.51296
2.49597
2.47903
2.4621
2.44517
2.4282
2.41116
2.39402
2.37677
2.3594
2.34195
2.32446
2.30703
2.28975
2.27275
2.25614
2.24001
2.2244
2.2093
2.19464
2.1803
2.1661
2.15187
2.13742
2.12262
2.10736
2.0916
2.07539
2.0588
2.04197
2.02506
2.00827
1.99176
1.97568
1.96017
1.94529
1.93106
1.91742
1.90426
1.8914
1.87861
1.8656
1.85207
1.83771
1.82228
1.80558
1.78756
1.76824
1.74776
1.72634
1.70426
1.68184
1.65943
1.63739
1.61604
1.59563
1.5763
1.55808
1.54091
1.52462
1.50903
1.49395
1.4792
1.46461
1.45008
1.43551
1.42084
1.40605
1.39114
1.37617
1.36126
1.34662
1.33257
1.31956
1.30816
1.299
1.29266
1.2895
1.28959
1.29259
1.29786
1.30458
1.31188
1.31922
1.32564
1.33496
1.33696
1.38413
2.72103
2.70316
2.68533
2.66754
2.6498
2.63211
2.61448
2.5969
2.57937
2.5619
2.54447
2.52709
2.50975
2.49246
2.4752
2.45796
2.44072
2.42346
2.40616
2.38878
2.37132
2.35378
2.33617
2.31854
2.30095
2.28348
2.26624
2.24931
2.23277
2.21667
2.201
2.18572
2.17075
2.15597
2.14122
2.12638
2.11133
2.09597
2.08029
2.06428
2.048
2.03156
2.01508
1.99869
1.98253
1.96674
1.95139
1.93656
1.92225
1.90841
1.89494
1.88169
1.86844
1.85496
1.84098
1.82625
1.81055
1.79374
1.77573
1.75658
1.73638
1.71532
1.69364
1.6716
1.64947
1.6275
1.60596
1.58504
1.5649
1.54562
1.52722
1.50966
1.49285
1.47668
1.461
1.44568
1.43058
1.41559
1.4006
1.38555
1.37039
1.3551
1.33971
1.32429
1.30897
1.29393
1.27943
1.26578
1.25332
1.24237
1.23316
1.22574
1.22001
1.21571
1.21248
1.21
1.2076
1.20669
1.20265
1.21367
2.7208
2.70287
2.68496
2.66709
2.64925
2.63145
2.61369
2.59598
2.5783
2.56066
2.54306
2.5255
2.50798
2.49048
2.47302
2.45557
2.43813
2.42069
2.40321
2.3857
2.36813
2.3505
2.33284
2.31517
2.29754
2.28002
2.26268
2.24559
2.22881
2.2124
2.19635
2.18064
2.16521
2.14997
2.13482
2.11964
2.10435
2.08888
2.07318
2.05725
2.04114
2.02492
2.00867
1.99251
1.97654
1.96086
1.94555
1.93065
1.91616
1.90204
1.88821
1.87453
1.86082
1.84687
1.83247
1.81739
1.80145
1.78453
1.76657
1.74759
1.72768
1.70701
1.68578
1.66419
1.6425
1.62091
1.59962
1.57882
1.55862
1.53911
1.52033
1.50228
1.4849
1.46813
1.45185
1.43595
1.42032
1.40485
1.38943
1.374
1.35848
1.34284
1.32708
1.31123
1.29532
1.27943
1.26369
1.24824
1.23325
1.21891
1.20539
1.19284
1.1813
1.17077
1.16113
1.15228
1.14391
1.13633
1.1285
1.12163
2.72068
2.70272
2.68477
2.66685
2.64895
2.63107
2.61323
2.59542
2.57765
2.5599
2.54219
2.52451
2.50686
2.48923
2.47163
2.45404
2.43647
2.41889
2.4013
2.38369
2.36605
2.34838
2.3307
2.31302
2.29538
2.27784
2.26045
2.24326
2.22634
2.2097
2.19337
2.17733
2.16154
2.14593
2.13044
2.11498
2.09947
2.08386
2.0681
2.0522
2.03618
2.02008
2.00398
1.98795
1.97208
1.95644
1.9411
1.92609
1.91141
1.89701
1.88283
1.86875
1.85462
1.84025
1.82547
1.81009
1.79395
1.77696
1.75905
1.74025
1.72063
1.70034
1.67954
1.65842
1.63718
1.61602
1.59511
1.57459
1.55458
1.53515
1.51634
1.49815
1.48055
1.46348
1.44686
1.43059
1.41458
1.39874
1.38296
1.36718
1.35135
1.33541
1.31937
1.30322
1.28698
1.27071
1.25444
1.23827
1.22227
1.20655
1.19121
1.17634
1.16204
1.14834
1.13524
1.12271
1.11069
1.09901
1.0886
1.07291
2.72061
2.70262
2.68464
2.66668
2.64873
2.63081
2.6129
2.59503
2.57718
2.55936
2.54156
2.52379
2.50604
2.48831
2.47061
2.45292
2.43525
2.41758
2.39991
2.38223
2.36453
2.34683
2.32913
2.31145
2.29381
2.27626
2.25883
2.24157
2.22452
2.20772
2.19116
2.17486
2.15878
2.14288
2.1271
2.11138
2.09567
2.07991
2.06407
2.04815
2.03216
2.01613
2.00011
1.98416
1.96834
1.95271
1.93732
1.92219
1.90731
1.89267
1.87818
1.86374
1.84924
1.83452
1.81942
1.80379
1.78749
1.77044
1.7526
1.73398
1.71464
1.69471
1.67432
1.65364
1.63285
1.61211
1.59158
1.57138
1.55162
1.53236
1.51363
1.49545
1.47778
1.46058
1.44377
1.42728
1.41102
1.39491
1.37888
1.36284
1.34676
1.3306
1.31435
1.298
1.28156
1.26508
1.24857
1.23209
1.21569
1.19942
1.18335
1.16753
1.15201
1.13684
1.12205
1.10762
1.0936
1.07963
1.06756
1.04746
2.72055
2.70254
2.68453
2.66654
2.64855
2.63059
2.61264
2.59471
2.5768
2.55891
2.54104
2.5232
2.50537
2.48757
2.46979
2.45202
2.43427
2.41652
2.39878
2.38104
2.36331
2.34557
2.32785
2.31016
2.29251
2.27494
2.25748
2.24016
2.22302
2.20607
2.18934
2.17282
2.1565
2.14035
2.12432
2.10838
2.09247
2.07657
2.06064
2.04467
2.02867
2.01266
1.99668
1.98076
1.96496
1.94932
1.93386
1.91862
1.90357
1.8887
1.87394
1.85921
1.84439
1.82937
1.81401
1.79817
1.78176
1.76468
1.74692
1.72847
1.70939
1.68979
1.66978
1.64951
1.62913
1.60879
1.58862
1.56873
1.54923
1.53016
1.51156
1.49343
1.47576
1.45849
1.44158
1.42495
1.40853
1.39224
1.37601
1.3598
1.34354
1.32722
1.31082
1.29433
1.27777
1.26116
1.24453
1.22792
1.21135
1.19486
1.1785
1.1623
1.14629
1.1305
1.11494
1.09962
1.08461
1.06946
1.05645
1.03415
2.72049
2.70246
2.68443
2.66641
2.6484
2.63039
2.6124
2.59443
2.57647
2.55852
2.5406
2.52269
2.5048
2.48693
2.46908
2.45125
2.43342
2.41561
2.39782
2.38003
2.36225
2.34448
2.32674
2.30902
2.29136
2.27376
2.25626
2.23888
2.22165
2.20459
2.18771
2.17101
2.15449
2.13813
2.12189
2.10575
2.08967
2.07362
2.05759
2.04155
2.02552
2.0095
1.99352
1.97761
1.96179
1.94612
1.9306
1.91524
1.90004
1.88498
1.86999
1.855
1.83993
1.82465
1.80907
1.79308
1.77657
1.75949
1.7418
1.72352
1.70469
1.68539
1.66573
1.64583
1.62583
1.60586
1.58603
1.56644
1.54718
1.5283
1.50983
1.49178
1.47412
1.45683
1.43985
1.42313
1.40659
1.39017
1.37381
1.35746
1.34108
1.32464
1.30814
1.29156
1.27492
1.25824
1.24155
1.22486
1.20822
1.19165
1.17518
1.15883
1.14262
1.12658
1.11071
1.09499
1.07954
1.06384
1.05035
1.02699
2.72043
2.70239
2.68434
2.66629
2.64825
2.63022
2.61219
2.59417
2.57617
2.55818
2.54021
2.52225
2.5043
2.48637
2.46846
2.45056
2.43268
2.41482
2.39696
2.37913
2.3613
2.3435
2.32573
2.30798
2.29029
2.27266
2.25512
2.23769
2.22038
2.20321
2.1862
2.16935
2.15266
2.13612
2.1197
2.10338
2.08714
2.07096
2.05482
2.0387
2.02261
2.00656
1.99056
1.97462
1.95879
1.94306
1.92747
1.91201
1.89667
1.88144
1.86625
1.85105
1.83576
1.82028
1.80453
1.7884
1.77183
1.75475
1.73715
1.71902
1.70041
1.68139
1.66205
1.6425
1.62285
1.60321
1.58369
1.56438
1.54535
1.52665
1.50831
1.49034
1.47271
1.45542
1.4384
1.4216
1.40497
1.38846
1.372
1.35555
1.33908
1.32256
1.30598
1.28935
1.27266
1.25594
1.23921
1.2225
1.20583
1.18922
1.17271
1.1563
1.14002
1.12388
1.10788
1.09201
1.07636
1.06042
1.04673
1.02288
2.72038
2.70232
2.68425
2.66618
2.64812
2.63005
2.612
2.59395
2.5759
2.55787
2.53985
2.52184
2.50385
2.48587
2.4679
2.44995
2.43202
2.4141
2.3962
2.37831
2.36045
2.34261
2.32479
2.30702
2.28929
2.27163
2.25404
2.23655
2.21917
2.20191
2.18479
2.16781
2.15097
2.13427
2.11769
2.10122
2.08483
2.06852
2.05227
2.03607
2.01992
2.00381
1.98777
1.9718
1.95592
1.94014
1.92447
1.90891
1.89345
1.87806
1.8627
1.84732
1.83185
1.8162
1.80031
1.78408
1.76747
1.75041
1.73289
1.71491
1.69651
1.67775
1.6587
1.63946
1.62012
1.60079
1.58156
1.5625
1.54369
1.52516
1.50694
1.48905
1.47147
1.45417
1.43713
1.42028
1.40359
1.387
1.37046
1.35394
1.3374
1.32082
1.3042
1.28753
1.27081
1.25408
1.23734
1.22061
1.20393
1.18732
1.17079
1.15437
1.13806
1.12188
1.10583
1.08989
1.07417
1.05813
1.04435
1.0203
2.72032
2.70225
2.68416
2.66608
2.64799
2.6299
2.61182
2.59374
2.57566
2.55759
2.53953
2.52148
2.50344
2.48542
2.4674
2.4494
2.43142
2.41345
2.3955
2.37757
2.35967
2.34178
2.32393
2.30612
2.28836
2.27065
2.25301
2.23546
2.21801
2.20067
2.18345
2.16636
2.14939
2.13256
2.11584
2.09923
2.08271
2.06628
2.04993
2.03363
2.0174
2.00124
1.98514
1.96912
1.95319
1.93734
1.9216
1.90594
1.89037
1.87485
1.85935
1.84381
1.82819
1.8124
1.79639
1.78009
1.76345
1.74641
1.72898
1.71114
1.69293
1.6744
1.65562
1.63667
1.61762
1.59857
1.57961
1.56079
1.54217
1.52381
1.50572
1.48791
1.47037
1.45309
1.43603
1.41915
1.40241
1.38576
1.36917
1.35259
1.33601
1.31939
1.30274
1.28604
1.26932
1.25258
1.23584
1.21912
1.20245
1.18584
1.16931
1.15288
1.13657
1.12037
1.1043
1.08834