/*--------------------------------*- C++ -*----------------------------------*\
  =========                 |
  \\      /  F ield         | OpenFOAM: The Open Source CFD Toolbox
   \\    /   O peration     | Website:  https://openfoam.org
    \\  /    A nd           | Version:  10
     \\/     M anipulation  |
\*---------------------------------------------------------------------------*/
FoamFile
{
    format      ascii;
    class       volScalarField;
    location    "800";
    object      nut;
}
// * * * * * * * * * * * * * * * * * * * * * * * * * * * * * * * * * * * * * //

dimensions      [0 2 -1 0 0 0 0];

internalField   nonuniform List<scalar> 
6820
(
0.000149811
0.000146298
0.000143078
0.000139851
0.000136611
0.000133451
0.000130461
0.0001277
0.000125195
0.000122956
0.000120976
0.000119243
0.000117738
0.000116442
0.000115337
0.000114404
0.000113626
0.000112986
0.000112471
0.000112067
0.000111762
0.000111546
0.000111409
0.000111343
0.00011134
0.000111394
0.000111504
0.000111655
0.000111781
0.000112716
0.000110351
0.000115668
0.000114385
0.000736675
0.000548089
0.000464579
0.000414435
0.000380733
0.00035691
0.000339482
0.000326332
0.000316115
0.000307965
0.000301312
0.000295769
0.00029107
0.000287026
0.000283502
0.000280396
0.000277635
0.00027516
0.000272926
0.000270897
0.000269046
0.00026735
0.000265789
0.000264349
0.000263017
0.000261784
0.000260643
0.000259606
0.0002586
0.000257828
0.000257697
0.000254249
0.000258644
0.000977663
0.000873823
0.000783699
0.000713312
0.000659061
0.000616637
0.000582721
0.000554983
0.000531829
0.000512159
0.000495201
0.000480399
0.000467343
0.000455723
0.0004453
0.00043589
0.000427342
0.000419537
0.000412377
0.000405781
0.000399682
0.000394021
0.000388748
0.000383821
0.0003792
0.000374851
0.000370739
0.000366845
0.000363093
0.000359481
0.000356319
0.0003525
0.000346079
0.0010135
0.000988678
0.000949905
0.000906243
0.00086376
0.000825034
0.000790656
0.000760368
0.000733651
0.000709963
0.000688824
0.000669833
0.000652658
0.000637032
0.000622736
0.000609589
0.000597444
0.000586178
0.000575688
0.000565887
0.0005567
0.000548064
0.000539923
0.000532229
0.000524937
0.000518007
0.000511402
0.000505091
0.000499036
0.000493168
0.000487572
0.000482349
0.000475521
0.00101667
0.00101251
0.00100235
0.000986318
0.000966164
0.000943896
0.000921085
0.000898722
0.000877339
0.000857172
0.000838287
0.000820657
0.00080421
0.000788856
0.000774503
0.000761058
0.000748437
0.000736563
0.000725366
0.000714784
0.00070476
0.000695244
0.000686191
0.000677559
0.000669311
0.000661412
0.000653828
0.000646528
0.000639482
0.000632643
0.000625978
0.000619581
0.000613049
0.00101674
0.0010159
0.00101373
0.00100941
0.00100265
0.000993628
0.000982845
0.000970865
0.000958194
0.000945234
0.000932273
0.000919506
0.000907058
0.000895003
0.000883382
0.000872209
0.000861485
0.0008512
0.00084134
0.000831884
0.000822811
0.0008141
0.000805726
0.000797669
0.000789904
0.000782411
0.000775165
0.000768145
0.000761329
0.000754688
0.000748184
0.000741826
0.000735583
0.00101671
0.00101621
0.00101554
0.00101439
0.00101245
0.00100952
0.00100553
0.00100053
0.000994663
0.000988103
0.000981024
0.000973586
0.000965926
0.000958152
0.00095035
0.000942586
0.000934908
0.000927351
0.000919939
0.000912687
0.000905606
0.0008987
0.000891969
0.00088541
0.00087902
0.000872792
0.000866716
0.000860782
0.00085498
0.000849295
0.000843709
0.000838211
0.000832795
0.0010167
0.00101622
0.00101574
0.0010152
0.00101449
0.0010135
0.00101214
0.00101031
0.001008
0.00100522
0.00100199
0.000998376
0.000994428
0.000990209
0.000985778
0.000981188
0.000976483
0.000971703
0.000966882
0.000962045
0.000957215
0.000952409
0.00094764
0.000942917
0.000938249
0.000933638
0.000929088
0.000924599
0.000920168
0.000915794
0.000911472
0.000907196
0.00090296
0.0010167
0.00101621
0.00101574
0.00101528
0.00101481
0.00101429
0.00101367
0.00101292
0.00101199
0.00101086
0.0010095
0.00100792
0.00100611
0.00100409
0.00100188
0.000999499
0.00099697
0.000994314
0.000991552
0.000988704
0.000985788
0.000982819
0.00097981
0.000976774
0.00097372
0.000970657
0.00096759
0.000964526
0.000961468
0.00095842
0.000955383
0.000952359
0.000949347
0.0010167
0.00101621
0.00101574
0.00101528
0.00101484
0.0010144
0.00101395
0.00101348
0.00101296
0.00101239
0.00101174
0.001011
0.00101016
0.00100921
0.00100815
0.00100699
0.00100573
0.00100437
0.00100292
0.00100139
0.000999782
0.000998114
0.000996388
0.000994613
0.000992796
0.000990944
0.000989061
0.000987155
0.000985229
0.000983287
0.000981336
0.000979377
0.000977414
0.0010167
0.00101621
0.00101574
0.00101528
0.00101484
0.00101441
0.00101398
0.00101357
0.00101315
0.00101272
0.00101229
0.00101183
0.00101133
0.00101081
0.00101024
0.00100962
0.00100896
0.00100825
0.00100749
0.00100667
0.00100582
0.00100491
0.00100397
0.00100298
0.00100196
0.00100091
0.000999823
0.000998713
0.000997581
0.000996429
0.000995261
0.000994081
0.000992892
0.0010167
0.00101621
0.00101574
0.00101528
0.00101483
0.0010144
0.00101398
0.00101357
0.00101317
0.00101278
0.00101239
0.001012
0.00101162
0.00101122
0.00101082
0.00101041
0.00100998
0.00100954
0.00100908
0.0010086
0.00100809
0.00100757
0.00100703
0.00100646
0.00100587
0.00100527
0.00100465
0.00100401
0.00100335
0.00100268
0.001002
0.00100132
0.00100062
0.0010167
0.00101621
0.00101574
0.00101528
0.00101483
0.0010144
0.00101398
0.00101357
0.00101317
0.00101278
0.0010124
0.00101203
0.00101167
0.00101131
0.00101096
0.0010106
0.00101026
0.00100991
0.00100955
0.0010092
0.00100884
0.00100848
0.00100811
0.00100773
0.00100735
0.00100696
0.00100656
0.00100616
0.00100576
0.00100535
0.00100493
0.00100452
0.0010041
0.0010167
0.00101621
0.00101574
0.00101528
0.00101483
0.0010144
0.00101398
0.00101357
0.00101317
0.00101278
0.0010124
0.00101203
0.00101167
0.00101132
0.00101098
0.00101064
0.00101031
0.00100999
0.00100967
0.00100936
0.00100905
0.00100874
0.00100844
0.00100814
0.00100783
0.00100754
0.00100724
0.00100694
0.00100665
0.00100636
0.00100607
0.00100578
0.0010055
0.0010167
0.00101621
0.00101574
0.00101528
0.00101483
0.0010144
0.00101398
0.00101356
0.00101316
0.00101278
0.0010124
0.00101203
0.00101167
0.00101132
0.00101098
0.00101064
0.00101032
0.00101
0.00100969
0.00100939
0.0010091
0.00100881
0.00100852
0.00100825
0.00100797
0.00100771
0.00100744
0.00100719
0.00100694
0.00100669
0.00100646
0.00100622
0.001006
0.0010167
0.00101621
0.00101574
0.00101528
0.00101483
0.0010144
0.00101397
0.00101356
0.00101316
0.00101277
0.00101239
0.00101203
0.00101167
0.00101132
0.00101097
0.00101064
0.00101032
0.00101
0.0010097
0.0010094
0.0010091
0.00100882
0.00100854
0.00100827
0.00100801
0.00100775
0.0010075
0.00100726
0.00100702
0.00100679
0.00100657
0.00100636
0.00100615
0.0010167
0.00101621
0.00101574
0.00101528
0.00101483
0.0010144
0.00101397
0.00101356
0.00101316
0.00101277
0.00101239
0.00101202
0.00101166
0.00101131
0.00101097
0.00101064
0.00101032
0.00101
0.00100969
0.0010094
0.0010091
0.00100882
0.00100854
0.00100827
0.00100801
0.00100776
0.00100751
0.00100727
0.00100704
0.00100682
0.0010066
0.00100639
0.00100619
0.0010167
0.00101621
0.00101574
0.00101528
0.00101483
0.00101439
0.00101397
0.00101356
0.00101316
0.00101277
0.00101239
0.00101202
0.00101166
0.00101131
0.00101097
0.00101064
0.00101032
0.00101
0.00100969
0.00100939
0.0010091
0.00100882
0.00100854
0.00100827
0.00100801
0.00100776
0.00100751
0.00100727
0.00100704
0.00100682
0.0010066
0.00100639
0.00100619
0.0010167
0.00101621
0.00101574
0.00101528
0.00101483
0.00101439
0.00101397
0.00101356
0.00101316
0.00101277
0.00101239
0.00101202
0.00101166
0.00101131
0.00101097
0.00101064
0.00101031
0.00101
0.00100969
0.00100939
0.0010091
0.00100882
0.00100854
0.00100827
0.00100801
0.00100776
0.00100751
0.00100727
0.00100704
0.00100682
0.0010066
0.00100639
0.00100619
0.0010167
0.00101621
0.00101574
0.00101528
0.00101483
0.00101439
0.00101397
0.00101356
0.00101316
0.00101277
0.00101239
0.00101202
0.00101166
0.00101131
0.00101097
0.00101064
0.00101031
0.00101
0.00100969
0.00100939
0.0010091
0.00100882
0.00100854
0.00100827
0.00100801
0.00100776
0.00100751
0.00100727
0.00100704
0.00100682
0.0010066
0.00100639
0.00100618
0.0010167
0.00101621
0.00101574
0.00101528
0.00101483
0.00101439
0.00101397
0.00101356
0.00101316
0.00101277
0.00101239
0.00101202
0.00101166
0.00101131
0.00101097
0.00101064
0.00101031
0.00101
0.00100969
0.00100939
0.0010091
0.00100882
0.00100854
0.00100827
0.00100801
0.00100776
0.00100751
0.00100727
0.00100704
0.00100681
0.0010066
0.00100638
0.00100618
0.0010167
0.00101621
0.00101574
0.00101528
0.00101483
0.00101439
0.00101397
0.00101356
0.00101316
0.00101277
0.00101239
0.00101202
0.00101166
0.00101131
0.00101097
0.00101064
0.00101031
0.00101
0.00100969
0.00100939
0.0010091
0.00100882
0.00100854
0.00100827
0.00100801
0.00100776
0.00100751
0.00100727
0.00100704
0.00100681
0.00100659
0.00100638
0.00100617
0.0010167
0.00101621
0.00101574
0.00101528
0.00101483
0.00101439
0.00101397
0.00101356
0.00101316
0.00101277
0.00101239
0.00101202
0.00101166
0.00101131
0.00101097
0.00101064
0.00101031
0.00101
0.00100969
0.00100939
0.0010091
0.00100882
0.00100854
0.00100827
0.00100801
0.00100776
0.00100751
0.00100727
0.00100704
0.00100681
0.00100659
0.00100638
0.00100617
0.0010167
0.00101621
0.00101574
0.00101528
0.00101483
0.00101439
0.00101397
0.00101356
0.00101316
0.00101277
0.00101239
0.00101202
0.00101166
0.00101131
0.00101097
0.00101063
0.00101031
0.00101
0.00100969
0.00100939
0.0010091
0.00100882
0.00100854
0.00100827
0.00100801
0.00100776
0.00100751
0.00100727
0.00100704
0.00100681
0.00100659
0.00100637
0.00100616
0.0010167
0.00101621
0.00101574
0.00101528
0.00101483
0.00101439
0.00101397
0.00101356
0.00101316
0.00101277
0.00101239
0.00101202
0.00101166
0.00101131
0.00101097
0.00101063
0.00101031
0.00101
0.00100969
0.00100939
0.0010091
0.00100882
0.00100854
0.00100827
0.00100801
0.00100776
0.00100751
0.00100727
0.00100703
0.00100681
0.00100658
0.00100637
0.00100616
0.0010167
0.00101621
0.00101574
0.00101528
0.00101483
0.00101439
0.00101397
0.00101356
0.00101316
0.00101277
0.00101239
0.00101202
0.00101166
0.00101131
0.00101097
0.00101063
0.00101031
0.00101
0.00100969
0.00100939
0.0010091
0.00100882
0.00100854
0.00100827
0.00100801
0.00100776
0.00100751
0.00100727
0.00100703
0.0010068
0.00100658
0.00100636
0.00100615
0.0010167
0.00101621
0.00101574
0.00101528
0.00101483
0.00101439
0.00101397
0.00101356
0.00101316
0.00101277
0.00101239
0.00101202
0.00101166
0.00101131
0.00101097
0.00101063
0.00101031
0.00101
0.00100969
0.00100939
0.0010091
0.00100882
0.00100854
0.00100827
0.00100801
0.00100776
0.00100751
0.00100727
0.00100703
0.0010068
0.00100658
0.00100636
0.00100615
0.0010167
0.00101621
0.00101574
0.00101528
0.00101483
0.00101439
0.00101397
0.00101356
0.00101316
0.00101277
0.00101239
0.00101202
0.00101166
0.00101131
0.00101097
0.00101063
0.00101031
0.00101
0.00100969
0.00100939
0.0010091
0.00100882
0.00100854
0.00100827
0.00100801
0.00100776
0.00100751
0.00100726
0.00100703
0.0010068
0.00100657
0.00100636
0.00100614
0.0010167
0.00101621
0.00101574
0.00101528
0.00101483
0.00101439
0.00101397
0.00101356
0.00101316
0.00101277
0.00101239
0.00101202
0.00101166
0.00101131
0.00101097
0.00101063
0.00101031
0.00101
0.00100969
0.00100939
0.0010091
0.00100882
0.00100854
0.00100827
0.00100801
0.00100775
0.00100751
0.00100726
0.00100703
0.0010068
0.00100657
0.00100635
0.00100614
0.0010167
0.00101621
0.00101574
0.00101528
0.00101483
0.00101439
0.00101397
0.00101356
0.00101316
0.00101277
0.00101239
0.00101202
0.00101166
0.00101131
0.00101097
0.00101063
0.00101031
0.00101
0.00100969
0.00100939
0.0010091
0.00100882
0.00100854
0.00100827
0.00100801
0.00100775
0.0010075
0.00100726
0.00100703
0.00100679
0.00100657
0.00100635
0.00100614
0.0010167
0.00101621
0.00101574
0.00101528
0.00101483
0.00101439
0.00101397
0.00101356
0.00101316
0.00101277
0.00101239
0.00101202
0.00101166
0.00101131
0.00101097
0.00101064
0.00101031
0.00101
0.00100969
0.00100939
0.0010091
0.00100882
0.00100854
0.00100827
0.00100801
0.00100775
0.0010075
0.00100726
0.00100702
0.00100679
0.00100656
0.00100634
0.00100612
0.0010167
0.00101621
0.00101574
0.00101528
0.00101483
0.00101439
0.00101397
0.00101356
0.00101316
0.00101277
0.00101239
0.00101202
0.00101166
0.00101131
0.00101097
0.00101064
0.00101031
0.00101
0.00100969
0.00100939
0.0010091
0.00100881
0.00100853
0.00100826
0.00100799
0.00100773
0.00100748
0.00100723
0.00100699
0.00100675
0.00100652
0.00100629
0.00100607
0.0010167
0.00101621
0.00101574
0.00101528
0.00101483
0.00101439
0.00101397
0.00101356
0.00101316
0.00101277
0.00101239
0.00101202
0.00101166
0.00101131
0.00101096
0.00101063
0.0010103
0.00100998
0.00100966
0.00100935
0.00100905
0.00100875
0.00100846
0.00100817
0.00100789
0.00100761
0.00100734
0.00100706
0.0010068
0.00100653
0.00100627
0.00100601
0.00100575
0.0010167
0.00101621
0.00101574
0.00101528
0.00101483
0.00101439
0.00101397
0.00101356
0.00101315
0.00101276
0.00101237
0.00101199
0.00101162
0.00101125
0.00101088
0.00101051
0.00101015
0.00100979
0.00100942
0.00100906
0.0010087
0.00100833
0.00100796
0.00100759
0.00100722
0.00100684
0.00100646
0.00100608
0.0010057
0.00100532
0.00100493
0.00100454
0.00100415
0.0010167
0.00101621
0.00101574
0.00101527
0.00101482
0.00101438
0.00101394
0.0010135
0.00101305
0.00101259
0.00101213
0.00101164
0.00101114
0.00101062
0.00101008
0.00100952
0.00100893
0.00100832
0.00100768
0.00100702
0.00100634
0.00100564
0.00100492
0.00100417
0.00100341
0.00100264
0.00100184
0.00100103
0.00100021
0.000999382
0.000998541
0.00099769
0.000996833
0.0010167
0.00101621
0.00101571
0.00101519
0.00101464
0.00101403
0.00101334
0.00101256
0.00101167
0.00101068
0.00100958
0.00100837
0.00100704
0.00100562
0.00100409
0.00100247
0.00100077
0.00099899
0.000997139
0.000995226
0.000993258
0.000991243
0.000989187
0.000987098
0.000984982
0.000982844
0.00098069
0.000978525
0.000976355
0.000974182
0.000972011
0.000969846
0.000967691
0.00101669
0.00101596
0.00101486
0.00101329
0.00101119
0.00100856
0.00100542
0.00100181
0.000997777
0.000993361
0.000988616
0.000983594
0.000978345
0.000972915
0.000967345
0.000961675
0.000955937
0.000950161
0.000944373
0.000938596
0.000932848
0.000927145
0.000921502
0.00091593
0.000910437
0.000905033
0.000899723
0.000894512
0.000889404
0.000884401
0.000879507
0.000874723
0.000870048
0.00101524
0.00100708
0.000994966
0.000980635
0.000964791
0.000947888
0.000930311
0.000912406
0.000894467
0.000876724
0.00085934
0.000842429
0.000826066
0.000810296
0.000795141
0.000780608
0.000766693
0.000753381
0.000740656
0.000728496
0.000716878
0.000705779
0.000695173
0.000685037
0.000675347
0.000666081
0.000657216
0.000648733
0.000640611
0.000632832
0.000625378
0.000618232
0.000611377
0.000934352
0.000813408
0.000726834
0.000658842
0.000603193
0.000556872
0.00051798
0.000485036
0.000456852
0.000432506
0.000411288
0.00039265
0.000376162
0.000361483
0.000348341
0.000336515
0.000325827
0.000316127
0.000307293
0.00029922
0.00029182
0.000285019
0.000278752
0.000272963
0.000267605
0.000262635
0.000258017
0.000253717
0.000249707
0.000245961
0.000242458
0.000239176
0.000236095
0.000125479
0.000128845
0.000132087
0.000135185
0.000138141
0.000140961
0.00014365
0.000146214
0.000148657
0.000150984
0.0001532
0.000155308
0.000157312
0.000159218
0.000161029
0.000162749
0.000164382
0.000165933
0.000167404
0.0001688
0.000170124
0.00017138
0.000172571
0.0001737
0.00017477
0.000175784
0.000176745
0.000177656
0.000178519
0.000179337
0.000180112
0.000180846
0.000181543
6.00286e-05
0.000109726
0.000223526
0.000315933
0.000360348
0.000386662
0.000421423
0.000468054
0.000522749
0.00058242
0.00064324
0.000701927
0.000756925
0.000807475
0.000852778
0.000891995
0.000924601
0.000950703
0.000971172
0.000987589
0.00100201
0.00101658
0.00103312
0.00105278
0.00107575
0.0011013
0.00112793
0.00115366
0.00117648
0.00119474
0.00120762
0.00121531
0.00121909
0.001221
0.00122343
0.00122861
0.00123814
0.00125274
0.00127224
0.00129566
0.00132147
0.00134771
0.00137219
0.00139254
0.00140642
0.00141179
0.00140717
0.00139199
0.00136682
0.00133344
0.00129497
0.00125606
0.00122354
0.0012079
0.0012245
0.0012907
0.00141524
0.00158685
0.00177637
0.00195221
0.00209341
0.0021921
0.00224949
0.0022712
0.00226409
0.00223479
0.00218921
0.00213248
0.00206915
0.00200329
0.00193868
0.00187889
0.00182737
0.00178743
0.00176226
0.00175487
0.00176789
0.00180311
0.00186061
0.00193768
0.00202821
0.0021234
0.00221366
0.00229086
0.00234969
0.00238786
0.00240546
0.0024041
0.00238617
0.00235454
0.00231276
0.00226623
0.0022246
0.00220452
0.00222883
0.00231589
0.00246241
0.00263727
0.00280081
0.00294336
0.00026646
0.000203209
0.000155206
0.000184902
0.000228686
0.000257886
0.000279214
0.000311989
0.00036249
0.000423139
0.000486003
0.000548324
0.000609312
0.000667417
0.000720568
0.000766979
0.000805586
0.000836239
0.000859782
0.000877942
0.000893031
0.000907502
0.000923442
0.000942137
0.000963822
0.00098767
0.00101202
0.00103475
0.00105378
0.00106751
0.00107521
0.00107721
0.00107483
0.00107018
0.00106572
0.00106377
0.0010661
0.00107364
0.0010864
0.0011036
0.00112382
0.00114524
0.00116581
0.00118331
0.00119552
0.00120046
0.00119667
0.00118347
0.00116122
0.00113145
0.00109685
0.00106133
0.00103044
0.00101252
0.0010207
0.00107241
0.0011806
0.00133996
0.00152458
0.00170227
0.00184957
0.0019562
0.00202175
0.00205097
0.00205041
0.00202664
0.00198568
0.00193277
0.00187258
0.00180926
0.00174662
0.00168824
0.00163756
0.00159791
0.00157257
0.0015647
0.00157716
0.00161209
0.00166996
0.00174839
0.00184141
0.00194009
0.00203454
0.00211629
0.00217977
0.00222251
0.00224455
0.00224747
0.0022337
0.00220613
0.00216834
0.00212573
0.00208792
0.00207176
0.00210061
0.00219353
0.00234704
0.00252856
0.00269694
0.00284276
0.000349886
0.00038089
0.000367358
0.000277241
0.000234586
0.000231018
0.000232899
0.000228506
0.00022817
0.0002489
0.000294292
0.000355851
0.000423165
0.000489305
0.000550669
0.000605129
0.00065123
0.000688371
0.000717073
0.000738951
0.000756393
0.000772063
0.000788338
0.000806802
0.000827924
0.000850991
0.00087433
0.000895742
0.000913037
0.000924533
0.000929432
0.000927989
0.000921465
0.0009119
0.000901736
0.000893395
0.00088886
0.000889371
0.000895274
0.000906063
0.000920556
0.000937117
0.000953848
0.000968724
0.000979727
0.000985024
0.00098321
0.00097358
0.000956348
0.000932762
0.000905101
0.00087659
0.000851397
0.000835255
0.000837444
0.000872759
0.000957046
0.00109338
0.00126339
0.00143691
0.00158823
0.00170358
0.00177971
0.00181962
0.00182893
0.00181391
0.00178048
0.00173397
0.00167909
0.00162005
0.00156068
0.00150453
0.00145499
0.00141535
0.00138891
0.00137891
0.00138849
0.00142021
0.00147519
0.0015518
0.00164468
0.00174516
0.00184319
0.00192986
0.00199908
0.00204796
0.00207622
0.00208528
0.00207747
0.00205561
0.00202319
0.00198533
0.00195104
0.00193641
0.00196467
0.00205633
0.00221034
0.00239532
0.00256908
0.00272304
0.000466912
0.000472348
0.000495668
0.000498876
0.000449026
0.000396143
0.000372377
0.000361748
0.000341486
0.000303603
0.000265549
0.000254557
0.000275943
0.000319645
0.000373651
0.000428482
0.000478165
0.00051985
0.000552988
0.000578623
0.000598819
0.000616121
0.000633002
0.000651315
0.000671874
0.000694278
0.000717049
0.000738042
0.000755005
0.000766128
0.000770442
0.000768013
0.000759904
0.000747969
0.00073453
0.000721993
0.000712476
0.000707491
0.000707741
0.000713086
0.000722654
0.000735063
0.000748642
0.000761618
0.000772248
0.000778972
0.000780599
0.000776525
0.000766928
0.000752863
0.000736221
0.000719541
0.00070574
0.000698079
0.000701318
0.000724629
0.000782229
0.000884331
0.00102434
0.00117982
0.00132576
0.00144498
0.0015302
0.00158137
0.0016023
0.00159828
0.00157483
0.00153712
0.00148984
0.00143719
0.00138296
0.00133065
0.00128352
0.00124476
0.00121753
0.00120503
0.00121048
0.00123681
0.00128588
0.00135714
0.00144639
0.00154576
0.0016454
0.00173604
0.00181094
0.00186657
0.00190209
0.00191856
0.00191806
0.00190326
0.00187743
0.00184521
0.0018146
0.00180008
0.00182388
0.0019081
0.00205612
0.00224052
0.00241898
0.0025848
0.000604263
0.000596134
0.0005958
0.000600772
0.000594548
0.000567718
0.000538698
0.000528788
0.000539106
0.000548956
0.000524377
0.000455316
0.000377146
0.000328158
0.000315062
0.000326404
0.000350506
0.000378688
0.000405584
0.000428767
0.000448023
0.000464535
0.000480095
0.0004964
0.000514483
0.000534357
0.00055498
0.00057453
0.000590898
0.000602241
0.000607427
0.00060628
0.000599581
0.00058889
0.000576245
0.000563826
0.000553629
0.000547191
0.000545397
0.000548393
0.000555641
0.00056609
0.000578401
0.000591157
0.000603025
0.000612873
0.000619899
0.000623767
0.000624728
0.000623655
0.000621946
0.000621298
0.000623361
0.000629419
0.000640695
0.000660444
0.000696924
0.00076096
0.000855998
0.000972817
0.00109435
0.00120369
0.00128965
0.00134784
0.00137886
0.00138599
0.00137365
0.00134642
0.00130873
0.00126461
0.00121776
0.00117153
0.00112903
0.0010932
0.00106691
0.00105306
0.00105464
0.00107462
0.00111543
0.00117774
0.00125902
0.00135292
0.00145041
0.00154225
0.00162114
0.00168273
0.00172544
0.0017497
0.0017572
0.00175031
0.00173197
0.00170624
0.00167984
0.00166507
0.00168212
0.00175403
0.0018897
0.00206836
0.00224917
0.0024289
0.000728124
0.000719064
0.000711154
0.000706513
0.000702591
0.00069166
0.000671784
0.000654226
0.000652468
0.000668954
0.000691185
0.000694429
0.000655968
0.000580293
0.000498543
0.00043697
0.000399642
0.000381276
0.00037507
0.00037558
0.000379342
0.000384654
0.000391074
0.000398865
0.000408447
0.000419937
0.000432862
0.000446113
0.000458161
0.000467463
0.000472897
0.000474072
0.000471404
0.000465985
0.000459314
0.000453005
0.000448534
0.000447043
0.000449214
0.000455206
0.000464678
0.0004769
0.000490938
0.000505843
0.000520802
0.00053522
0.000548769
0.000561422
0.000573462
0.000585443
0.000598067
0.000612006
0.000627699
0.000645151
0.000663928
0.000684137
0.000708866
0.00074495
0.000797604
0.000865338
0.000942385
0.00102047
0.00108999
0.00114345
0.00117737
0.00119179
0.00118892
0.00117205
0.0011448
0.00111077
0.00107333
0.00103562
0.00100044
0.000970375
0.000947832
0.000935131
0.00093466
0.000948958
0.000980516
0.00103096
0.00109964
0.00118243
0.0012721
0.00136016
0.00143916
0.00150399
0.00155217
0.00158332
0.00159849
0.00159956
0.00158905
0.00157035
0.00154884
0.00153432
0.001544
0.00160048
0.00171807
0.00188476
0.00206353
0.00225702
0.000826573
0.00081912
0.000811377
0.000804371
0.00079864
0.000791994
0.000781123
0.000767086
0.000756655
0.000756552
0.000767422
0.000781958
0.00078711
0.000770239
0.000727557
0.000670022
0.000611636
0.000560986
0.000521136
0.000491547
0.000470212
0.000455002
0.00044424
0.000436788
0.000431925
0.000429167
0.000428139
0.000428466
0.000429698
0.000431298
0.00043276
0.000433789
0.000434443
0.000435129
0.000436483
0.000439199
0.000443882
0.000450948
0.000460575
0.000472677
0.000486924
0.000502802
0.000519723
0.000537157
0.000554722
0.000572229
0.000589669
0.000607165
0.000624924
0.000643159
0.000662021
0.000681516
0.000701459
0.00072144
0.000740779
0.00075884
0.000776337
0.000796822
0.000824735
0.000859998
0.00089819
0.000936549
0.000973597
0.00100602
0.00102977
0.00104225
0.00104295
0.00103305
0.00101473
0.000990602
0.000963398
0.000935708
0.000909885
0.000887991
0.000871811
0.000862935
0.000862912
0.000873453
0.000896521
0.000934015
0.000986737
0.00105304
0.00112829
0.00120582
0.00127882
0.0013419
0.00139178
0.00142715
0.0014482
0.00145614
0.00145289
0.00144114
0.00142495
0.00141165
0.00141478
0.00145479
0.00154985
0.00169778
0.00186806
0.00207229
0.000898101
0.00089241
0.00088642
0.000880376
0.000874744
0.000869317
0.000862809
0.000854337
0.000845316
0.000839043
0.000838153
0.000842404
0.000848179
0.000849545
0.000840665
0.000819957
0.00078995
0.00075496
0.000719252
0.000685864
0.00065636
0.000631153
0.000609985
0.000592294
0.000577416
0.000564705
0.000553645
0.000543972
0.000535717
0.000529117
0.000524458
0.000521963
0.000521758
0.000523897
0.000528371
0.000535113
0.00054399
0.000554814
0.000567349
0.000581315
0.000596394
0.000612239
0.000628508
0.000644921
0.000661303
0.000677602
0.000693871
0.000710221
0.000726767
0.000743569
0.000760594
0.000777687
0.000794574
0.00081088
0.00082611
0.000839703
0.000851548
0.000863092
0.000877519
0.000896944
0.000918845
0.000937898
0.000951582
0.00096073
0.00096611
0.00096721
0.000963216
0.000953948
0.000940081
0.000922952
0.000904238
0.000885692
0.000868934
0.000855341
0.00084601
0.000841805
0.000843488
0.000851922
0.000868286
0.000894097
0.000930711
0.000978253
0.00103464
0.00109565
0.00115607
0.00121108
0.00125714
0.00129225
0.00131573
0.00132801
0.00133025
0.00132436
0.00131325
0.00130197
0.00130028
0.00132486
0.00139509
0.00151787
0.00167157
0.00188
0.000945864
0.000941806
0.000937565
0.000933167
0.000928775
0.000924483
0.000920016
0.00091489
0.000909078
0.000903437
0.000899297
0.000897541
0.000897895
0.000898756
0.000897666
0.000892639
0.000882807
0.000868493
0.000850859
0.000831399
0.000811499
0.000792206
0.000774177
0.000757721
0.000742879
0.000729499
0.000717351
0.000706266
0.000696266
0.000687606
0.000680686
0.00067591
0.000673552
0.000673697
0.000676247
0.000680965
0.000687539
0.000695636
0.000704948
0.000715208
0.000726185
0.000737675
0.000749498
0.000761505
0.000773595
0.000785724
0.000797899
0.000810158
0.000822534
0.000835023
0.000847559
0.000859998
0.000872123
0.00088366
0.000894285
0.000903618
0.000911376
0.00091791
0.000924785
0.000934276
0.000947182
0.000960978
0.00097121
0.000975065
0.00097273
0.000965848
0.000955878
0.00094375
0.000930181
0.000915945
0.00090194
0.000889103
0.000878296
0.000870211
0.000865335
0.000863977
0.000866365
0.000872792
0.000883817
0.000900391
0.00092373
0.000954686
0.000992831
0.00103597
0.00108065
0.00112317
0.00116048
0.00119047
0.00121206
0.00122502
0.00122984
0.00122768
0.00122041
0.00121128
0.00120658
0.00121842
0.00126429
0.0013574
0.00148597
0.00168835
0.000975122
0.00097244
0.000969642
0.00096672
0.000963713
0.000960676
0.000957589
0.000954317
0.000950743
0.000946974
0.000943396
0.000940488
0.000938525
0.000937345
0.000936317
0.000934623
0.000931541
0.000926642
0.000919861
0.000911445
0.000901832
0.000891528
0.000881013
0.000870679
0.0008608
0.000851524
0.000842894
0.000834909
0.0008276
0.000821089
0.000815587
0.000811342
0.000808558
0.000807335
0.000807649
0.000809372
0.000812311
0.000816259
0.000821029
0.000826472
0.000832474
0.000838948
0.000845819
0.000853021
0.000860496
0.000868203
0.000876118
0.000884224
0.000892505
0.000900921
0.000909402
0.000917826
0.000926027
0.0009338
0.000940917
0.000947122
0.00095217
0.00095602
0.000959199
0.000962976
0.000968779
0.000976912
0.000985708
0.000992259
0.000994228
0.000991003
0.00098345
0.000973032
0.000961175
0.000949052
0.000937591
0.000927505
0.000919319
0.000913371
0.000909827
0.000908727
0.000910054
0.000913837
0.000920288
0.00092993
0.000943623
0.000962309
0.000986384
0.00101502
0.00104608
0.00107673
0.00110439
0.00112721
0.00114413
0.00115476
0.00115928
0.00115832
0.00115304
0.00114535
0.00113896
0.00114151
0.00116639
0.00122882
0.00132551
0.00150866
0.000991489
0.000989839
0.00098811
0.000986299
0.000984409
0.000982458
0.000980453
0.000978374
0.000976177
0.000973853
0.000971472
0.000969183
0.00096715
0.000965453
0.000964022
0.000962659
0.000961096
0.000959071
0.000956393
0.000952978
0.000948853
0.000944135
0.000939001
0.000933657
0.000928301
0.000923098
0.000918162
0.000913564
0.000909353
0.000905584
0.000902334
0.000899692
0.00089774
0.000896521
0.000896031
0.000896219
0.000897009
0.000898318
0.00090008
0.000902254
0.000904819
0.00090777
0.000911103
0.000914812
0.000918881
0.000923288
0.000928009
0.000933014
0.000938267
0.000943718
0.000949294
0.000954892
0.000960378
0.00096559
0.000970349
0.000974469
0.000977769
0.000980129
0.000981647
0.00098282
0.000984525
0.000987614
0.000992256
0.000997577
0.00100198
0.00100397
0.0010028
0.000998633
0.000992248
0.000984639
0.000976759
0.000969382
0.000963061
0.000958139
0.000954779
0.000953017
0.000952821
0.000954167
0.000957124
0.000961956
0.000969196
0.000979598
0.000993852
0.00101205
0.00103324
0.00105547
0.00107641
0.0010941
0.00110731
0.00111556
0.00111894
0.00111794
0.00111338
0.00110645
0.00109919
0.00109591
0.00110529
0.00114057
0.00120341
0.00135422
0.000999803
0.000998832
0.000997813
0.000996743
0.00099562
0.000994447
0.000993228
0.000991959
0.000990633
0.000989242
0.000987792
0.000986315
0.000984865
0.000983491
0.000982218
0.000981026
0.000979854
0.000978614
0.000977211
0.000975567
0.000973638
0.00097142
0.000968956
0.00096632
0.000963613
0.000960939
0.000958391
0.000956037
0.000953925
0.00095208
0.000950519
0.000949253
0.000948283
0.0009476
0.000947183
0.000947001
0.000947022
0.000947226
0.000947607
0.000948178
0.00094897
0.000950022
0.000951371
0.000953048
0.000955069
0.000957438
0.000960143
0.000963164
0.000966465
0.000969997
0.000973693
0.000977465
0.000981199
0.000984763
0.000988011
0.000990794
0.000992977
0.000994451
0.000995193
0.000995348
0.0009953
0.000995613
0.000996789
0.000998968
0.00100177
0.00100442
0.00100612
0.00100633
0.00100493
0.00100221
0.000998623
0.000994711
0.000990941
0.000987668
0.00098512
0.000983411
0.000982583
0.000982648
0.000983647
0.000985716
0.00098915
0.000994447
0.00100223
0.00101298
0.00102669
0.00104253
0.0010589
0.00107395
0.00108606
0.00109427
0.00109827
0.00109832
0.00109505
0.00108931
0.00108236
0.00107646
0.00107657
0.00109205
0.00112556
0.0012362
0.00100361
0.00100303
0.00100243
0.0010018
0.00100114
0.00100045
0.000999732
0.00099898
0.000998195
0.000997374
0.000996517
0.000995629
0.000994722
0.00099381
0.000992908
0.000992021
0.000991143
0.000990252
0.000989317
0.000988307
0.000987194
0.000985966
0.000984631
0.000983219
0.000981779
0.000980371
0.000979055
0.000977882
0.000976888
0.000976085
0.000975471
0.000975025
0.000974719
0.000974515
0.000974377
0.000974271
0.000974176
0.000974086
0.000974013
0.000973988
0.000974057
0.000974274
0.000974692
0.000975359
0.000976309
0.000977564
0.000979128
0.000980991
0.000983126
0.000985493
0.000988032
0.000990667
0.000993304
0.00099583
0.000998124
0.00100007
0.00100154
0.00100247
0.00100281
0.00100259
0.00100195
0.00100117
0.00100059
0.00100053
0.00100111
0.0010022