/*--------------------------------*- C++ -*----------------------------------*\
  =========                 |
  \\      /  F ield         | OpenFOAM: The Open Source CFD Toolbox
   \\    /   O peration     | Website:  https://openfoam.org
    \\  /    A nd           | Version:  10
     \\/     M anipulation  |
\*---------------------------------------------------------------------------*/
FoamFile
{
    format      ascii;
    class       volScalarField;
    location    "800";
    object      p;
}
// * * * * * * * * * * * * * * * * * * * * * * * * * * * * * * * * * * * * * //

dimensions      [0 2 -2 0 0 0 0];

internalField   nonuniform List<scalar> 
6820
(
-7.99132
-8.76275
-9.21004
-9.35691
-9.4353
-9.50019
-9.54548
-9.57545
-9.59847
-9.61827
-9.63568
-9.65121
-9.66542
-9.67868
-9.69115
-9.70291
-9.71399
-9.72442
-9.73414
-9.7431
-9.75118
-9.75819
-9.76389
-9.7679
-9.76967
-9.76836
-9.7626
-9.75048
-9.72792
-9.69005
-9.62408
-9.53157
-9.32482
-9.54575
-9.69089
-9.66669
-9.59774
-9.56989
-9.575
-9.58766
-9.60027
-9.61367
-9.62788
-9.64192
-9.65533
-9.66812
-9.68033
-9.69198
-9.70306
-9.71356
-9.72348
-9.73276
-9.74135
-9.74914
-9.75596
-9.76162
-9.76579
-9.76804
-9.76778
-9.76398
-9.75568
-9.73971
-9.71755
-9.66877
-9.63275
-9.51869
-9.54941
-9.41399
-9.41419
-9.44827
-9.48378
-9.5209
-9.55284
-9.57771
-9.59845
-9.61697
-9.63369
-9.64884
-9.6628
-9.67586
-9.68815
-9.69975
-9.71071
-9.72104
-9.73072
-9.7397
-9.74789
-9.75516
-9.76132
-9.76612
-9.76919
-9.77007
-9.76807
-9.7626
-9.75203
-9.73813
-9.71502
-9.7139
-9.73071
-9.4798
-9.40221
-9.44646
-9.49352
-9.51916
-9.54346
-9.56723
-9.58728
-9.60478
-9.6211
-9.63639
-9.65065
-9.66403
-9.67671
-9.68875
-9.7002
-9.71107
-9.72136
-9.73105
-9.74009
-9.7484
-9.7559
-9.76242
-9.76778
-9.77175
-9.77407
-9.7744
-9.77268
-9.76869
-9.7651
-9.76274
-9.78154
-9.82298
-9.47331
-9.44381
-9.4734
-9.50477
-9.52384
-9.54489
-9.56736
-9.58719
-9.60466
-9.62091
-9.63617
-9.65042
-9.6638
-9.67648
-9.68853
-9.69999
-9.7109
-9.72126
-9.73106
-9.74026
-9.74882
-9.75666
-9.76369
-9.76979
-9.77486
-9.77881
-9.78162
-9.78364
-9.78544
-9.78965
-9.79866
-9.82274
-9.8642
-9.48127
-9.46716
-9.48316
-9.50845
-9.5283
-9.54872
-9.5699
-9.58902
-9.60606
-9.62195
-9.63692
-9.65097
-9.66423
-9.67682
-9.68882
-9.70027
-9.71121
-9.72163
-9.73155
-9.74093
-9.74975
-9.75798
-9.76555
-9.77245
-9.77866
-9.78425
-9.78942
-9.79474
-9.80111
-9.81072
-9.82593
-9.85222
-9.89242
-9.4891
-9.48156
-9.49283
-9.51503
-9.53448
-9.55333
-9.57276
-9.59093
-9.60747
-9.62297
-9.63765
-9.65151
-9.66465
-9.67717
-9.68914
-9.7006
-9.71158
-9.7221
-9.73215
-9.74174
-9.75087
-9.75951
-9.76768
-9.77541
-9.78276
-9.78991
-9.79721
-9.80527
-9.81507
-9.82829
-9.84687
-9.87381
-9.91103
-9.49714
-9.494
-9.5034
-9.52228
-9.54031
-9.55771
-9.57569
-9.59299
-9.60901
-9.62411
-9.63848
-9.65214
-9.66515
-9.6776
-9.68953
-9.701
-9.71203
-9.72265
-9.73286
-9.74269
-9.75214
-9.76123
-9.77001
-9.77855
-9.78699
-9.79556
-9.80466
-9.8149
-9.82716
-9.8427
-9.86292
-9.88945
-9.92325
-9.5056
-9.50513
-9.51334
-9.52931
-9.54586
-9.56211
-9.57885
-9.59525
-9.61071
-9.62538
-9.63943
-9.65288
-9.66574
-9.6781
-9.68999
-9.70147
-9.71256
-9.72329
-9.73367
-9.74374
-9.75352
-9.76307
-9.77245
-9.78176
-9.7912
-9.80101
-9.81159
-9.8235
-9.83746
-9.85438
-9.87522
-9.90082
-9.93148
-9.51414
-9.5151
-9.5225
-9.53621
-9.55135
-9.56654
-9.58216
-9.59768
-9.61255
-9.62679
-9.64051
-9.65371
-9.66642
-9.67868
-9.69053
-9.70202
-9.71317
-9.724
-9.73456
-9.74488
-9.755
-9.76499
-9.77493
-9.78496
-9.79527
-9.80613
-9.81789
-9.83102
-9.84611
-9.86377
-9.88463
-9.90907
-9.93704
-9.5225
-9.52417
-9.53099
-9.54297
-9.55677
-9.57094
-9.58555
-9.60023
-9.61451
-9.62832
-9.64169
-9.65465
-9.66719
-9.67935
-9.69116
-9.70265
-9.71385
-9.7248
-9.73553
-9.74609
-9.75653
-9.76693
-9.7774
-9.78807
-9.79913
-9.81083
-9.82349
-9.83749
-9.85326
-9.87123
-9.89175
-9.91498
-9.94069
-9.53056
-9.53253
-9.53887
-9.5495
-9.56207
-9.57528
-9.58898
-9.60287
-9.61657
-9.62994
-9.64298
-9.65568
-9.66805
-9.68009
-9.69185
-9.70334
-9.71459
-9.72565
-9.73655
-9.74734
-9.75808
-9.76887
-9.7798
-9.79101
-9.80269
-9.81506
-9.82838
-9.84294
-9.85907
-9.87704
-9.89704
-9.91908
-9.94288
-9.53823
-9.54029
-9.5462
-9.55574
-9.56721
-9.57953
-9.5924
-9.60556
-9.6187
-9.63163
-9.64433
-9.65678
-9.66897
-9.6809
-9.6926
-9.70408
-9.71539
-9.72654
-9.73759
-9.74859
-9.75961
-9.77073
-9.78206
-9.79373
-9.8059
-9.81876
-9.83252
-9.84742
-9.86367
-9.88143
-9.90079
-9.9217
-9.94388
-9.54548
-9.54751
-9.55301
-9.56166
-9.57218
-9.58366
-9.59578
-9.60827
-9.62086
-9.63337
-9.64574
-9.65793
-9.66994
-9.68176
-9.69339
-9.70486
-9.7162
-9.72744
-9.73863
-9.74982
-9.76107
-9.77247
-9.78413
-9.79615
-9.80869
-9.82189
-9.83593
-9.85097
-9.86715
-9.88457
-9.90324
-9.92309
-9.94386
-9.55227
-9.55422
-9.55934
-9.56725
-9.57693
-9.58765
-9.59908
-9.61095
-9.62303
-9.63512
-9.64717
-9.65912
-9.67094
-9.68263
-9.69419
-9.70565
-9.71701
-9.72833
-9.73963
-9.75097
-9.76242
-9.77405
-9.78596
-9.79825
-9.81103
-9.82444
-9.8386
-9.85363
-9.86961
-9.88659
-9.90455
-9.92339
-9.94291
-9.55858
-9.56043
-9.56519
-9.57248
-9.58143
-9.59147
-9.60227
-9.61357
-9.62516
-9.63687
-9.6486
-9.6603
-9.67194
-9.68351
-9.695
-9.70642
-9.7178
-9.72916
-9.74055
-9.75201
-9.76361
-9.77542
-9.7875
-9.79996
-9.81289
-9.82639
-9.84055
-9.85544
-9.87112
-9.8876
-9.90483
-9.92274
-9.94113
-9.56441
-9.56615
-9.57059
-9.57734
-9.58566
-9.59509
-9.60531
-9.6161
-9.62724
-9.63857
-9.65
-9.66146
-9.67292
-9.68436
-9.69576
-9.70715
-9.71852
-9.72992
-9.74137
-9.75291
-9.76462
-9.77653
-9.78873
-9.80128
-9.81426
-9.82774
-9.84179
-9.85646
-9.87176
-9.88769
-9.9042
-9.9212
-9.93855
-9.56976
-9.57139
-9.57553
-9.58182
-9.5896
-9.59847
-9.60818
-9.61849
-9.62922
-9.6402
-9.65134
-9.66258
-9.67386
-9.68516
-9.69648
-9.7078
-9.71916
-9.73056
-9.74204
-9.75364
-9.7654
-9.77736
-9.7896
-9.80217
-9.81511
-9.82849
-9.84235
-9.85671
-9.87158
-9.88693
-9.90272
-9.91886
-9.93523
-9.5746
-9.57613
-9.58002
-9.5859
-9.59321
-9.60159
-9.61084
-9.62072
-9.63107
-9.64172
-9.65259
-9.6636
-9.67471
-9.68588
-9.6971
-9.70836
-9.71968
-9.73107
-9.74255
-9.75415
-9.76592
-9.77789
-9.79011
-9.80262
-9.81546
-9.82866
-9.84226
-9.85626
-9.87065
-9.8854
-9.90046
-9.91577
-9.93122
-9.57894
-9.58038
-9.58403
-9.58957
-9.59646
-9.60442
-9.61325
-9.62275
-9.63275
-9.6431
-9.65372
-9.66452
-9.67546
-9.68649
-9.69761
-9.7088
-9.72006
-9.7314
-9.74286
-9.75443
-9.76617
-9.77809
-9.79023
-9.80262
-9.81529
-9.82826
-9.84154
-9.85513
-9.869
-9.88314
-9.89749
-9.91199
-9.92655
-9.58277
-9.58413
-9.58758
-9.59281
-9.59935
-9.60693
-9.61539
-9.62454
-9.63423
-9.64431
-9.65469
-9.66529
-9.67606
-9.68697
-9.69797
-9.70907
-9.72026
-9.73155
-9.74294
-9.75445
-9.76611
-9.77794
-9.78995
-9.80217
-9.81462
-9.8273
-9.84022
-9.85336
-9.86671
-9.88022
-9.89386
-9.90756
-9.92127
-9.58606
-9.58736
-9.59062
-9.59559
-9.60182
-9.60908
-9.61722
-9.62607
-9.63547
-9.6453
-9.65547
-9.66589
-9.6765
-9.68727
-9.69817
-9.70917
-9.72027
-9.73147
-9.74278
-9.7542
-9.76575
-9.77744
-9.78928
-9.80129
-9.81346
-9.82582
-9.83833
-9.851
-9.8638
-9.87668
-9.88962
-9.90256
-9.91544
-9.58881
-9.59004
-9.59316
-9.5979
-9.60386
-9.61084
-9.6187
-9.62728
-9.63644
-9.64605
-9.65602
-9.66627
-9.67674
-9.68738
-9.69816
-9.70905
-9.72006
-9.73116
-9.74235
-9.75365
-9.76506
-9.77657
-9.78821
-9.79996
-9.81184
-9.82383
-9.83592
-9.8481
-9.86033
-9.87259
-9.88483
-9.89702
-9.90909
-9.59099
-9.59217
-9.59515
-9.5997
-9.60544
-9.61218
-9.61979
-9.62815
-9.63709
-9.64651
-9.65631
-9.66641
-9.67674
-9.68726
-9.69792
-9.70871
-9.7196
-9.73058
-9.74165
-9.7528
-9.76404
-9.77535
-9.78675
-9.79822
-9.80976
-9.82137
-9.83301
-9.84469
-9.85635
-9.86798
-9.87954
-9.891
-9.9023
-9.59259
-9.59372
-9.59659
-9.60097
-9.60651
-9.61305
-9.62047
-9.62863
-9.6374
-9.64666
-9.65631
-9.66627
-9.67648
-9.68688
-9.69743
-9.70811
-9.71888
-9.72973
-9.74066
-9.75164
-9.76268
-9.77377
-9.78491
-9.79607
-9.80726
-9.81847
-9.82966
-9.84082
-9.85192
-9.86293
-9.87382
-9.88456
-9.89512
-9.59356
-9.59466
-9.59742
-9.60166
-9.60704
-9.61342
-9.62067
-9.62869
-9.63732
-9.64645
-9.65598
-9.66583
-9.67593
-9.68622
-9.69667
-9.70723
-9.71788
-9.7286
-9.73936
-9.75017
-9.761
-9.77185
-9.7827
-9.79355
-9.80437
-9.81516
-9.82588
-9.83653
-9.84707
-9.85748
-9.86772
-9.87777
-9.88759
-9.59389
-9.59495
-9.59762
-9.60173
-9.60699
-9.61323
-9.62037
-9.62827
-9.6368
-9.64584
-9.65528
-9.66505
-9.67506
-9.68526
-9.69561
-9.70607
-9.71659
-9.72717
-9.73777
-9.74839
-9.759
-9.76959
-9.78016
-9.79067
-9.80112
-9.81149
-9.82176
-9.8319
-9.84189
-9.8517
-9.86131
-9.8707
-9.87982
-9.59355
-9.59457
-9.59715
-9.60114
-9.60629
-9.61245
-9.61951
-9.62735
-9.63582
-9.6448
-9.65419
-9.6639
-9.67385
-9.68398
-9.69424
-9.70459
-9.715
-9.72543
-9.73587
-9.74629
-9.75668
-9.76701
-9.77728
-9.78746
-9.79753
-9.80748
-9.81729
-9.82693
-9.83638
-9.84562
-9.85462
-9.86336
-9.87182
-9.59249
-9.59347
-9.59595
-9.59983
-9.60489
-9.611
-9.61803
-9.62585
-9.63431
-9.64328
-9.65266
-9.66235
-9.67227
-9.68236
-9.69256
-9.70283
-9.71313
-9.72343
-9.73371
-9.74395
-9.75411
-9.76419
-9.77417
-9.78402
-9.79372
-9.80327
-9.81263
-9.82179
-9.83073
-9.83941
-9.84783
-9.85596
-9.86378
-9.5907
-9.59162
-9.59397
-9.59771
-9.60271
-9.60882
-9.61588
-9.62374
-9.63225
-9.64127
-9.65067
-9.66037
-9.67029
-9.68034
-9.69049
-9.70068
-9.71087
-9.72104
-9.73116
-9.7412
-9.75114
-9.76096
-9.77064
-9.78016
-9.78951
-9.79866
-9.80759
-9.81628
-9.82472
-9.83288
-9.84074
-9.84829
-9.85552
-9.58815
-9.58898
-9.59112
-9.5947
-9.59966
-9.60583
-9.61298
-9.62095
-9.62957
-9.63871
-9.64824
-9.65804
-9.66802
-9.67812
-9.68828
-9.69845
-9.7086
-9.71868
-9.72867
-9.73855
-9.7483
-9.75789
-9.7673
-9.77652
-9.78552
-9.7943
-9.80282
-9.81107
-9.81904
-9.8267
-9.83403
-9.84103
-9.84767
-9.58485
-9.58552
-9.58732
-9.59064
-9.59561
-9.60195
-9.60929
-9.61741
-9.62618
-9.63544
-9.64504
-9.65488
-9.66488
-9.67497
-9.6851
-9.69521
-9.70526
-9.71523
-9.72509
-9.7348
-9.74435
-9.75371
-9.76287
-9.7718
-9.78049
-9.78892
-9.79707
-9.80492
-9.81246
-9.81968
-9.82655
-9.83308
-9.83925
-9.58089
-9.58123
-9.5824
-9.58534
-9.59035
-9.59696
-9.60468
-9.61329
-9.62259
-9.63236
-9.6424
-9.6526
-9.66288
-9.67318
-9.68344
-9.69362
-9.70369
-9.71361
-9.72337
-9.73294
-9.7423
-9.75144
-9.76033
-9.76896
-9.77732
-9.78538
-9.79314
-9.80057
-9.80767
-9.81441
-9.82078
-9.82677
-9.83236
-9.57649
-9.57607
-9.57608
-9.57869
-9.58399
-9.59068
-9.5982
-9.60659
-9.61577
-9.62548
-9.6355
-9.64572
-9.65605
-9.66642
-9.67674
-9.68699
-9.69711
-9.70707
-9.71684
-9.72641
-9.73574
-9.74481
-9.75362
-9.76213
-9.77034
-9.77824
-9.78579
-9.793
-9.79985
-9.80632
-9.81242
-9.81815
-9.82351
-9.57232
-9.57008
-9.56719
-9.56942
-9.57676
-9.58612
-9.59607
-9.60648
-9.61722
-9.62805
-9.63884
-9.64954
-9.66012
-9.67055
-9.6808
-9.69087
-9.70073
-9.71037
-9.71977
-9.72892
-9.73781
-9.74643
-9.75475
-9.76276
-9.77045
-9.77781
-9.78482
-9.79147
-9.79775
-9.80365
-9.80914
-9.81421
-9.81884
-9.56957
-9.56445
-9.55689
-9.55455
-9.55706
-9.56251
-9.57049
-9.58046
-9.5915
-9.60301
-9.61475
-9.62657
-9.63834
-9.64997
-9.66138
-9.67254
-9.68343
-9.69402
-9.70429
-9.71423
-9.72383
-9.73307
-9.74195
-9.75045
-9.75856
-9.76629
-9.77361
-9.78052
-9.78701
-9.79309
-9.79875
-9.804
-9.80888
-9.56986
-9.54995
-9.55275
-9.5725
-9.58917
-9.59998
-9.60969
-9.61998
-9.63019
-9.63994
-9.64944
-9.65884
-9.66813
-9.6773
-9.68633
-9.69523
-9.70397
-9.71254
-9.72092
-9.72908
-9.73701
-9.74469
-9.75209
-9.7592
-9.76601
-9.7725
-9.77864
-9.78444
-9.78986
-9.79491
-9.79955
-9.80377
-9.80753
-9.60722
-9.48397
-9.42086
-9.42448
-9.4468
-9.46847
-9.4897
-9.51137
-9.53245
-9.55231
-9.57097
-9.58853
-9.60508
-9.62067
-9.63541
-9.64936
-9.66258
-9.67513
-9.68705
-9.69836
-9.70909
-9.71927
-9.7289
-9.738
-9.74658
-9.75464
-9.7622
-9.76925
-9.77579
-9.78184
-9.78741
-9.79249
-9.79711
-9.76706
-9.78021
-9.73886
-9.69661
-9.67256
-9.66196
-9.65736
-9.65534
-9.65544
-9.65764
-9.66153
-9.66656
-9.67236
-9.67875
-9.68557
-9.69268
-9.69996
-9.70732
-9.71469
-9.722
-9.72921
-9.73626
-9.74312
-9.74975
-9.75612
-9.7622
-9.76798
-9.77343
-9.77854
-9.78327
-9.78763
-9.79159
-9.79511
-8.60278
-8.90314
-9.16825
-9.29425
-9.35922
-9.41527
-9.46475
-9.50309
-9.53282
-9.5578
-9.57977
-9.59925
-9.61666
-9.63248
-9.64705
-9.6606
-9.67326
-9.68513
-9.69631
-9.70685
-9.71679
-9.72617
-9.735
-9.74331
-9.75111
-9.7584
-9.7652
-9.7715
-9.77732
-9.78267
-9.78754
-9.79195
-9.7959
-9.50871
-10.2734
-10.255
-10.1525
-10.1451
-10.1987
-10.2988
-10.435
-10.5811
-10.7097
-10.8073
-10.8767
-10.9287
-10.9735
-11.0163
-11.0572
-11.0937
-11.1226
-11.1411
-11.1479
-11.1438
-11.1322
-11.1186
-11.1093
-11.1101
-11.1242
-11.1517
-11.189
-11.2292
-11.2634
-11.2824
-11.2779
-11.2443
-11.1789
-11.0825
-10.9581
-10.8107
-10.6456
-10.4677
-10.2808
-10.0872
-9.88736
-9.6801
-9.4629
-9.23209
-8.98338
-8.71231
-8.41489
-8.08815
-7.73082
-7.34394
-6.93142
-6.50063
-6.06279
-5.63264
-5.22669
-4.85988
-4.54186
-4.27503
-4.0553
-3.87476
-3.72441
-3.59576
-3.48146
-3.37529
-3.27206
-3.16747
-3.05805
-2.94122
-2.81523
-2.67923
-2.53323
-2.37809
-2.21546
-2.0477
-1.87771
-1.70885
-1.54466
-1.3886
-1.24363
-1.11181
-0.994087
-0.890273
-0.799301
-0.719583
-0.64935
-0.586854
-0.530465
-0.478665
-0.43001
-0.383107
-0.336674
-0.289652
-0.241587
-0.192523
-0.145134
-0.0979323
-0.0654767
-0.0129666
-0.0437432
-9.77206
-10.5825
-10.4593
-10.1889
-10.1147
-10.1326
-10.2069
-10.3326
-10.4828
-10.6218
-10.7288
-10.8042
-10.8607
-10.9107
-10.9598
-11.0073
-11.0494
-11.0822
-11.1031
-11.111
-11.1075
-11.0961
-11.0829
-11.0741
-11.0754
-11.0901
-11.118
-11.1551
-11.1947
-11.2276
-11.2447
-11.2379
-11.2018
-11.134
-11.0353
-10.9092
-10.7606
-10.5948
-10.4167
-10.2301
-10.0372
-9.83843
-9.63261
-9.41718
-9.18845
-8.9421
-8.6737
-8.37924
-8.05583
-7.70226
-7.31959
-6.91163
-6.48545
-6.05174
-5.6247
-5.22064
-4.85483
-4.53775
-4.2726
-4.05573
-3.87919
-3.73357
-3.60988
-3.5003
-3.39825
-3.29829
-3.196
-3.08788
-2.97141
-2.84497
-2.70783
-2.5602
-2.40307
-2.23822
-2.06809
-1.89566
-1.72432
-1.55767
-1.39927
-1.25219
-1.11865
-0.999691
-0.895163
-0.803967
-0.724436
-0.654691
-0.592883
-0.537283
-0.486272
-0.438278
-0.391732
-0.345133
-0.297243
-0.247638
-0.19666
-0.147513
-0.0988436
-0.0658348
-0.0115161
-0.0455828
-9.95004
-10.3798
-10.3226
-10.1312
-10.0877
-10.124
-10.1981
-10.3076
-10.4373
-10.5613
-10.6614
-10.7358
-10.7944
-10.8482
-10.9021
-10.955
-11.0022
-11.039
-11.0625
-11.0723
-11.0701
-11.0599
-11.0475
-11.0394
-11.0411
-11.0555
-11.0824
-11.1181
-11.1554
-11.1857
-11.1999
-11.1902
-11.1515
-11.0817
-10.9816
-10.8547
-10.7059
-10.5404
-10.363
-10.1772
-9.98526
-9.78753
-9.58287
-9.36877
-9.14162
-8.8972
-8.6312
-8.33975
-8.0201
-7.67118
-7.29413
-6.8927
-6.47363
-6.04697
-5.62602
-5.22629
-4.86289
-4.5468
-4.28216
-4.06616
-3.89125
-3.74798
-3.62708
-3.52034
-3.42086
-3.32295
-3.22204
-3.11462
-2.99818
-2.87121
-2.73311
-2.5842
-2.42561
-2.25921
-2.08747
-1.91339
-1.74036
-1.57198
-1.41183
-1.26308
-1.12803
-1.00786
-0.902481
-0.810804
-0.731127
-0.661503
-0.600002
-0.544814
-0.494232
-0.446575
-0.400127
-0.353205
-0.304425
-0.253396
-0.20073
-0.150055
-0.100215
-0.0665766
-0.0110573
-0.0470751
-9.94655
-10.1762
-10.2234
-10.1509
-10.1087
-10.139
-10.2114
-10.3135
-10.4297
-10.5389
-10.6268
-10.6924
-10.745
-10.7953
-10.8483
-10.9024
-10.9519
-10.9915
-11.0178
-11.0301
-11.0303
-11.0223
-11.0117
-11.0046
-11.0063
-11.0196
-11.0443
-11.0767
-11.1101
-11.1363
-11.1465
-11.1334
-11.0923
-11.021
-10.9205
-10.7942
-10.6465
-10.4824
-10.3066
-10.1223
-9.93154
-9.73482
-9.53101
-9.31772
-9.09156
-8.84854
-8.58457
-8.29606
-7.9805
-7.63701
-7.26684
-6.8737
-6.46405
-6.04721
-5.63537
-5.24284
-4.8839
-4.56958
-4.30487
-4.08804
-3.9124
-3.76891
-3.64827
-3.54209
-3.44321
-3.34576
-3.24504
-3.13748
-3.02062
-2.89297
-2.75405
-2.60427
-2.44482
-2.27762
-2.10514
-1.93035
-1.75657
-1.58735
-1.42624
-1.27641
-1.14025
-1.01901
-0.912717
-0.820338
-0.740181
-0.670272
-0.608632
-0.553391
-0.502774
-0.455018
-0.4083
-0.36081
-0.311063
-0.258694
-0.204533
-0.152522
-0.101745
-0.0674661
-0.0112476
-0.0483341
-9.95072
-10.1105
-10.1853
-10.153
-10.1241
-10.1526
-10.2214
-10.3145
-10.4182
-10.5164
-10.5975
-10.66
-10.7105
-10.7578
-10.8072
-10.8579
-10.9054
-10.9443
-10.9712
-10.9851
-10.9875
-10.982
-10.9736
-10.9677
-10.9692
-10.9806
-11.0018
-11.0295
-11.0575
-11.0782
-11.0835
-11.0668
-11.0233
-10.9513
-10.8515
-10.7269
-10.5816
-10.4202
-10.2468
-10.0646
-9.87549
-9.67981
-9.47663
-9.26376
-9.0381
-8.796
-8.53374
-8.24806
-7.93678
-7.59925
-7.23686
-6.85326
-6.45461
-6.04958
-5.64925
-5.26651
-4.91435
-4.60328
-4.33873
-4.12013
-3.94199
-3.79608
-3.67345
-3.56572
-3.46563
-3.36713
-3.26545
-3.15697
-3.0392
-2.91073
-2.7711
-2.62077
-2.46099
-2.29364
-2.12119
-1.94652
-1.77285
-1.60362
-1.44228
-1.29194
-1.15504
-1.03291
-0.925674
-0.832413
-0.751486
-0.680936
-0.618763
-0.563058
-0.511996
-0.463754
-0.416442
-0.368178
-0.317414
-0.263796
-0.208291
-0.155042
-0.103406
-0.0683598
-0.0117788
-0.0491246
-9.96255
-10.0768
-10.1472
-10.1446
-10.1377
-10.1693
-10.2315
-10.3118
-10.4008
-10.4873
-10.5625
-10.6238
-10.675
-10.7223
-10.7698
-10.8176
-10.8621
-10.8991
-10.9253
-10.9399
-10.9441
-10.9409
-10.9345
-10.9296
-10.9303
-10.9389
-10.9555
-10.977
-10.9981
-11.0121
-11.0117
-10.9909
-10.9452
-10.873
-10.7747
-10.6528
-10.5109
-10.353
-10.1829
-10.0034
-9.81614
-9.62163
-9.41904
-9.20643
-8.98106
-8.73967
-8.47898
-8.19616
-7.88936
-7.55818
-7.2041
-6.83072
-6.44387
-6.05165
-5.66415
-5.29289
-4.94946
-4.6434
-4.3801
-4.1598
-3.97827
-3.82841
-3.70198
-3.59092
-3.488
-3.38715
-3.28351
-3.17341
-3.05435
-2.92492
-2.78468
-2.63412
-2.47444
-2.30754
-2.13578
-1.96196
-1.78915
-1.62063
-1.45971
-1.30941
-1.17212
-1.04926
-0.941076
-0.846768
-0.764806
-0.693288
-0.630228
-0.573696
-0.521835
-0.472788
-0.424631
-0.375455
-0.323691
-0.268972
-0.212311
-0.157911
-0.105416
-0.0693762
-0.0126186
-0.0493402
-9.96924
-10.0543
-10.1182
-10.1368
-10.1467
-10.1801
-10.2359
-10.3052
-10.3816
-10.4581
-10.5279
-10.5879
-10.6395
-10.6866
-10.7322
-10.7769
-10.8181
-10.8526
-10.8776
-10.8925
-10.8982
-10.8971
-10.8928
-10.889
-10.8891
-10.8949
-10.9065
-10.9213
-10.9349
-10.9415
-10.9348
-10.9093
-10.8612
-10.7888
-10.6922
-10.5733
-10.4353
-10.2814
-10.1149
-9.9384
-9.75337
-9.56026
-9.35841
-9.14619
-8.9212
-8.68064
-8.42166
-8.14186
-7.83973
-7.51512
-7.16959
-6.80662
-6.43175
-6.05249
-5.67809
-5.31887
-4.98513
-4.68536
-4.42459
-4.20347
-4.01871
-3.86432
-3.73302
-3.61733
-3.51033
-3.40602
-3.29955
-3.18723
-3.06654
-2.93604
-2.79529
-2.64473
-2.48554
-2.31953
-2.149
-1.97659
-1.80525
-1.63806
-1.47814
-1.32838
-1.19108
-1.06769
-0.958585
-0.863112
-0.779889
-0.707111
-0.64284
-0.585156
-0.532186
-0.482062
-0.432858
-0.382683
-0.329979
-0.274356
-0.216782
-0.161371
-0.108016
-0.0707344
-0.0138753
-0.0489855
-9.97272
-10.0403
-10.0979
-10.1282
-10.1493
-10.1841
-10.235
-10.2963
-10.3635
-10.432
-10.4969
-10.5548
-10.6057
-10.6516
-10.695
-10.7363
-10.774
-10.8057
-10.8292
-10.8439
-10.8505
-10.8512
-10.8486
-10.8457
-10.8451
-10.8484
-10.8553
-10.8638
-10.8702
-10.8694
-10.8563
-10.8262
-10.7755
-10.7025
-10.6073
-10.4912
-10.3568
-10.2068
-10.044
-9.87058
-9.68792
-9.49645
-9.29565
-9.08413
-8.85988
-8.62048
-8.36354
-8.08704
-7.78982
-7.47194
-7.135
-6.78237
-6.41927
-6.05265
-5.69097
-5.34354
-5.01952
-4.72647
-4.46898
-4.24787
-4.06055
-3.9019
-3.76552
-3.64463
-3.53277
-3.42424
-3.31428
-3.19926
-3.07664
-2.94496
-2.80372
-2.6533
-2.49484
-2.33003
-2.16106
-1.99045
-1.82097
-1.65554
-1.49707
-1.34826
-1.21132
-1.08766
-0.977739
-0.881074
-0.796444
-0.72218
-0.656429
-0.597309
-0.542962
-0.491528
-0.441109
-0.389865
-0.336285
-0.279959
-0.221744
-0.165529
-0.111365
-0.0726402
-0.0156939
-0.04811
-9.97451
-10.031
-10.0831
-10.119
-10.1473
-10.1831
-10.2303
-10.2856
-10.3459
-10.408
-10.4681
-10.5233
-10.5724
-10.6166
-10.6575
-10.6957
-10.7302
-10.7592
-10.7812
-10.7954
-10.8027
-10.8045
-10.8031
-10.8008
-10.7994
-10.8002
-10.8028
-10.8056
-10.8053
-10.7978
-10.7787
-10.744
-10.6905
-10.6168
-10.5226
-10.4088
-10.2776
-10.1312
-9.97184
-9.80146
-9.62126
-9.43164
-9.2322
-9.02178
-8.79868
-8.56087
-8.30635
-8.03347
-7.74137
-7.43029
-7.10187
-6.75935
-6.4076
-6.05308
-5.70349
-5.36725
-5.05254
-4.7661
-4.51208
-4.29145
-4.10211
-3.93967
-3.79847
-3.67239
-3.55548
-3.44239
-3.32859
-3.21056
-3.08578
-2.95279
-2.81104
-2.66083
-2.50319
-2.33972
-2.17246
-2.00382
-1.83639
-1.67292
-1.51613
-1.36855
-1.23223
-1.10853
-0.997969
-0.900179
-0.814103
-0.738228
-0.67081
-0.610041
-0.554103
-0.501168
-0.449393
-0.397013
-0.342596
-0.285728
-0.227126
-0.170353
-0.115506
-0.0752359
-0.0182134
-0.0467907
-9.97518
-10.0243
-10.0717
-10.1098
-10.1423
-10.1787
-10.223
-10.2737
-10.3285
-10.3851
-10.4406
-10.4924
-10.5392
-10.5814
-10.6198
-10.6552
-10.6868
-10.7134
-10.7338
-10.7476
-10.7551
-10.7577
-10.7569
-10.7546
-10.7523
-10.7506
-10.7494
-10.7469
-10.7407
-10.7272
-10.7027
-10.6638
-10.6077
-10.5331
-10.4395
-10.3277
-10.1992
-10.056
-9.89979
-9.73232
-9.55458
-9.36696
-9.16914
-8.96016
-8.73859
-8.50276
-8.251
-7.982
-7.69517
-7.39089
-7.07084
-6.7381
-6.39725
-6.05422
-5.71606
-5.39035
-5.08443
-4.80431
-4.5538
-4.33387
-4.14288
-3.97706
-3.8314
-3.70038
-3.57854
-3.46089
-3.34317
-3.22201
-3.09498
-2.9606
-2.81828
-2.66826
-2.51145
-2.34933
-2.18381
-2.01715
-1.85179
-1.69032
-1.53527
-1.389
-1.25343
-1.12985
-1.01878
-0.919961
-0.832476
-0.754954
-0.685779
-0.62323
-0.565553
-0.51098
-0.457739
-0.404161
-0.348912
-0.291595
-0.232795
-0.175703
-0.120357
-0.0785621
-0.0215253
-0.0451288
-9.97503
-10.0188
-10.0624
-10.1008
-10.1353
-10.1718
-10.2138
-10.2607
-10.3109
-10.3626
-10.4136
-10.4619
-10.506
-10.5459
-10.582
-10.6147
-10.6438
-10.6682
-10.6872
-10.7003
-10.7078
-10.7106
-10.71
-10.7074
-10.7039
-10.6998
-10.6949
-10.6879
-10.6765
-10.6577
-10.6284
-10.5857
-10.5272
-10.4516
-10.3585
-10.2482
-10.1221
-9.98167
-9.8284
-9.66366
-9.48834
-9.3028
-9.10677
-8.8995
-8.67978
-8.44624
-8.19753
-7.93263
-7.65116
-7.35367
-7.04181
-6.71854
-6.38812
-6.05603
-5.72866
-5.41288
-5.11525
-4.84118
-4.5941
-4.37505
-4.18272
-4.01388
-3.86413
-3.72849
-3.60196
-3.47992
-3.35838
-3.23413
-3.10483
-2.96902
-2.82611
-2.67623
-2.5202
-2.35937
-2.19554
-2.03079
-1.86745
-1.70791
-1.55456
-1.40959
-1.27479
-1.15138
-1.03989
-0.940115
-0.851268
-0.772111
-0.701149
-0.636758
-0.577262
-0.520965
-0.466183
-0.411353
-0.355249
-0.297508
-0.238608
-0.181374
-0.125724
-0.0825284
-0.0256216
-0.0432341
-9.97419
-10.014
-10.0543
-10.0918
-10.127
-10.1632
-10.2031
-10.2467
-10.2929
-10.3402
-10.387
-10.4317
-10.473
-10.5105
-10.5443
-10.5746
-10.6013
-10.6237
-10.6413
-10.6535
-10.6606
-10.6633
-10.6625
-10.6593
-10.6543
-10.6479
-10.6397
-10.6285
-10.6124
-10.589
-10.5555
-10.5094
-10.4488
-10.3723
-10.2794
-10.1705
-10.0464
-9.90843
-9.75779
-9.59561
-9.42265
-9.23923
-9.04515
-8.83978
-8.62217
-8.39118
-8.14575
-7.88512
-7.6091
-7.31833
-7.01449
-6.70038
-6.37997
-6.05828
-5.74115
-5.43475
-5.14497
-4.87665
-4.63295
-4.41491
-4.22149
-4.04996
-3.89646
-3.75651
-3.62558
-3.49938
-3.37418
-3.24694
-3.11544
-2.97824
-2.83471
-2.68493
-2.52962
-2.37003
-2.20779
-2.04487
-1.88344
-1.72574
-1.57401
-1.43029
-1.29624
-1.17302
-1.06115
-0.960474
-0.870315
-0.789552
-0.716806
-0.650554
-0.589204
-0.531142
-0.474776
-0.418654
-0.361656
-0.303463
-0.244469
-0.187172
-0.131363
-0.0869263
-0.0303535
-0.0412052
-9.9727
-10.0092
-10.0468
-10.083
-10.1177
-10.1532
-10.1911
-10.2318
-10.2743
-10.3176
-10.3606
-10.4018
-10.4402
-10.4752
-10.5068
-10.5348
-10.5593
-10.5798
-10.5959
-10.6071
-10.6136
-10.6158
-10.6145
-10.6102
-10.6037
-10.595
-10.5837
-10.5688
-10.5486
-10.521
-10.4838
-10.4347
-10.3721
-10.2947
-10.202
-10.0942
-9.97192
-9.83617
-9.68795
-9.52819
-9.35754
-9.17627
-8.98425
-8.78098
-8.56569
-8.33747
-8.09551
-7.83927
-7.56874
-7.28465
-6.98864
-6.68339
-6.37257
-6.0608
-5.75338
-5.45585
-5.17351
-4.91071
-4.67032
-4.45338
-4.25911
-4.0852
-3.92825
-3.7843
-3.64921
-3.51907
-3.39038
-3.26029
-3.12666
-2.98811
-2.84397
-2.69428
-2.53965
-2.38122
-2.2205
-2.05932
-1.89971
-1.74377
-1.59358
-1.45103
-1.31771
-1.19468
-1.08244
-0.98092
-0.8895
-0.807175
-0.732674
-0.664572
-0.601367
-0.541532
-0.483568
-0.426132
-0.368202
-0.309499
-0.250356
-0.19298
-0.137066
-0.0915111
-0.0354453
-0.0391305
-9.97057
-10.0044
-10.0394
-10.074
-10.1078
-10.1421
-10.1781
-10.216
-10.2552
-10.295
-10.3344
-10.3723
-10.4078
-10.4403
-10.4696
-10.4955
-10.5179
-10.5365
-10.5509
-10.561
-10.5666
-10.5681
-10.5659
-10.5605
-10.5524
-10.5414
-10.5272
-10.5088
-10.4849
-10.4536
-10.4131
-10.3613
-10.2969
-10.2186
-10.1261
-10.0192
-9.89855
-9.76483
-9.61886
-9.46142
-9.29303
-9.11395
-8.92409
-8.72307
-8.51028
-8.28503
-8.0467
-7.79495
-7.52993
-7.25243
-6.96407
-6.66738
-6.36576
-6.06345
-5.76523
-5.47612
-5.20084
-4.94332
-4.70618
-4.49045
-4.29554
-4.11953
-3.95944
-3.81177
-3.67277
-3.53887
-3.40685
-3.27401
-3.13834
-2.99847
-2.85373
-2.7041
-2.55012
-2.39279
-2.23353
-2.07402
-1.91614
-1.76188
-1.61315
-1.47174
-1.33909
-1.21625
-1.10368
-1.00135
-0.908718
-0.824883
-0.748671
-0.678755
-0.613721
-0.55213
-0.492579
-0.433825
-0.374937
-0.315667
-0.256293
-0.198765
-0.142722
-0.0961008
-0.0405831
-0.0371245
-9.96782
-9.9993
-10.0321
-10.0649
-10.0973
-10.1301
-10.1641
-10.1995
-10.2357
-10.2723
-10.3083
-10.3431
-10.3758
-10.4058
-10.4328
-10.4565
-10.4769
-10.4936
-10.5065
-10.5152
-10.5197
-10.5202
-10.517
-10.5103
-10.5005
-10.4873
-10.4704
-10.4489
-10.4216
-10.387
-10.3434
-10.2892
-10.2231
-10.144
-10.0515
-9.94551
-9.82628
-9.69441
-9.55055
-9.39532
-9.22916
-9.05231
-8.86471
-8.66608
-8.45595
-8.23382
-7.99925
-7.75208
-7.49256
-7.22156
-6.94065
-6.65221
-6.35941
-6.0661
-5.77662
-5.49549
-5.22693
-4.97448
-4.74053
-4.52608
-4.33076
-4.15291
-3.98999
-3.83887
-3.69621
-3.55876
-3.42354
-3.28806
-3.15038
-3.00922
-2.86388
-2.71429
-2.5609
-2.40463
-2.24676
-2.08884
-1.93264
-1.77997
-1.63265
-1.49231
-1.36033
-1.23766
-1.12478
-1.02167
-0.927885
-0.842592
-0.76472
-0.693034
-0.626209
-0.562897
-0.501785
-0.441726
-0.381867
-0.321984
-0.2623
-0.204531
-0.148289
-0.100605
-0.0455139
-0.0353404
-9.96442
-9.99379
-10.0245
-10.0554
-10.0863
-10.1175
-10.1495
-10.1824
-10.2159
-10.2494
-10.2824
-10.3142
-10.3442
-10.3717
-10.3963
-10.418
-10.4363
-10.4512
-10.4624
-10.4697
-10.4729
-10.4723
-10.4678
-10.4598
-10.4481
-10.4328
-10.4133
-10.389
-10.3587
-10.3211
-10.2748
-10.2184
-10.1507
-10.0709
-9.97839
-9.87307
-9.75512
-9.62495
-9.48307
-9.32997
-9.16602
-8.99142
-8.80616
-8.61003
-8.40271
-8.18383
-7.95313
-7.71058
-7.45654
-7.19192
-6.91826
-6.63778
-6.35341
-6.06867
-5.78749
-5.51392
-5.25175
-5.00416
-4.77334
-4.56028
-4.36471
-4.1853
-4.01983
-3.86555
-3.71949
-3.57869
-3.44043
-3.3024
-3.16278
-3.02033
-2.87438
-2.72479
-2.57195
-2.41666
-2.26011
-2.10372
-1.94911
-1.79798
-1.652
-1.5127
-1.38135
-1.25886
-1.14568
-1.04184
-0.946941
-0.860242
-0.780761
-0.707353
-0.638782
-0.573786
-0.511146
-0.449799
-0.388965
-0.328429
-0.268367
-0.210274
-0.153749
-0.104989
-0.0500874
-0.033922
-9.96038
-9.98783
-10.0165
-10.0457
-10.0748
-10.1043
-10.1343
-10.1648
-10.1957
-10.2265
-10.2566
-10.2856
-10.3129
-10.3379
-10.3604
-10.3799
-10.3962
-10.4093
-10.4188
-10.4245
-10.4264
-10.4244
-10.4186
-10.409
-10.3956
-10.3782
-10.3563
-10.3293
-10.2962
-10.2559
-10.2072
-10.1488
-10.0797
-9.99918
-9.90664
-9.80193
-9.68513
-9.55653
-9.41652
-9.26547
-9.1037
-8.93137
-8.74851
-8.55499
-8.35059
-8.13507
-7.90832
-7.67042
-7.42182
-7.16346
-6.89681
-6.62399
-6.34768
-6.0711
-5.79779
-5.53138
-5.27529
-5.03237
-4.80462
-4.593
-4.39739
-4.21665
-4.04891
-3.89177
-3.74256
-3.59863
-3.45749
-3.31702
-3.17552
-3.03181
-2.88522
-2.73559
-2.58323
-2.42887
-2.27356
-2.11861
-1.96553
-1.81586
-1.67116
-1.53285
-1.40211
-1.27979
-1.16634
-1.06181
-0.965842
-0.87779
-0.796752
-0.721672
-0.651401
-0.584763
-0.520624
-0.458007
-0.396191
-0.33497
-0.274465
-0.215976
-0.159083
-0.109238
-0.0542426
-0.0329442
-9.9557
-9.98137
-10.0082
-10.0355
-10.0629
-10.0906
-10.1186
-10.1469
-10.1753
-10.2035
-10.231
-10.2573
-10.282
-10.3046
-10.3248
-10.3422
-10.3566
-10.3678
-10.3756
-10.3797
-10.3801
-10.3767
-10.3694
-10.3582
-10.3431
-10.3236
-10.2995
-10.27
-10.2344
-10.1916
-10.1407
-10.0805
-10.0101
-9.92891
-9.83632
-9.73214
-9.61639
-9.48925
-9.35099
-9.20193
-9.0423
-8.87226
-8.69186
-8.50102
-8.29962
-8.08755
-7.8648
-7.63155
-7.38834
-7.13609
-6.87625
-6.61078
-6.34217
-6.07334
-5.80748
-5.54786
-5.29755
-5.05911
-4.83438
-4.62427
-4.42876
-4.24694
-4.07721
-3.91747
-3.76537
-3.61852
-3.47468
-3.3319
-3.18859
-3.04364
-2.8964
-2.74669
-2.59476
-2.44124
-2.28709
-2.1335
-1.98185
-1.83357
-1.69009
-1.55273
-1.42258
-1.30043
-1.18672
-1.08153
-0.984548
-0.895197
-0.812659
-0.735961
-0.664038
-0.595799
-0.530195
-0.466323
-0.403517
-0.341575
-0.280569
-0.221615
-0.164274
-0.113342
-0.0579802
-0.0324047
-9.95042
-9.97441
-9.99949
-10.025
-10.0507
-10.0765
-10.1025
-10.1286
-10.1547
-10.1805
-10.2054
-10.2292
-10.2515
-10.2718
-10.2898
-10.3051
-10.3175
-10.3269
-10.3329
-10.3354
-10.3342
-10.3292
-10.3204
-10.3076
-10.2906
-10.2692
-10.2429
-10.2112
-10.1733
-10.1283
-10.0753
-10.0135
-9.94198
-9.86013
-9.76747
-9.66377
-9.54897
-9.42318
-9.2866
-9.13945
-8.98194
-8.81419
-8.63628
-8.44819
-8.24987
-8.0413
-7.82258
-7.59397
-7.35606
-7.10978
-6.85651
-6.59809
-6.33682
-6.07534
-5.81654
-5.56336
-5.31854
-5.0844
-4.86261
-4.65407
-4.45881
-4.27613
-4.10467
-3.9426
-3.78786
-3.63832
-3.49196
-3.34699
-3.20195
-3.0558
-2.90791
-2.75808
-2.60651
-2.45376
-2.30068
-2.14837
-1.99806
-1.85109
-1.70877
-1.5723
-1.44271
-1.32073
-1.20679
-1.10097
-1.00302
-0.912429
-0.828449
-0.750189
-0.676667
-0.606872
-0.539836
-0.474724
-0.410922
-0.348225
-0.286659
-0.227176
-0.169309
-0.117299
-0.0613353
-0.032248
-9.94455
-9.96696
-9.99034
-10.0141
-10.038
-10.062
-10.0861
-10.1102
-10.1341
-10.1575
-10.18
-10.2015
-10.2214
-10.2394
-10.2552
-10.2685
-10.2789
-10.2864
-10.2907
-10.2915
-10.2887
-10.2822
-10.2718
-10.2573
-10.2385
-10.2152
-10.1869
-10.153
-10.113
-10.066
-10.0112
-9.94789
-9.87532
-9.79288
-9.70016