/*--------------------------------*- C++ -*----------------------------------*\
  =========                 |
  \\      /  F ield         | OpenFOAM: The Open Source CFD Toolbox
   \\    /   O peration     | Website:  https://openfoam.org
    \\  /    A nd           | Version:  10
     \\/     M anipulation  |
\*---------------------------------------------------------------------------*/
FoamFile
{
    format      ascii;
    class       surfaceScalarField;
    location    "800";
    object      phi;
}
// * * * * * * * * * * * * * * * * * * * * * * * * * * * * * * * * * * * * * //

dimensions      [0 3 -1 0 0 0 0];

internalField   nonuniform List<scalar> 
13452
(
6.02921e-05
-2.35961e-08
5.99941e-05
2.97983e-07
5.95902e-05
4.03913e-07
5.91162e-05
4.74008e-07
5.86118e-05
5.04383e-07
5.81304e-05
4.81384e-07
5.7694e-05
4.36368e-07
5.7303e-05
3.9105e-07
5.69518e-05
3.51213e-07
5.66346e-05
3.17194e-07
5.63461e-05
2.88484e-07
5.60817e-05
2.6436e-07
5.58377e-05
2.44006e-07
5.5611e-05
2.26682e-07
5.53992e-05
2.11808e-07
5.52003e-05
1.98954e-07
5.50125e-05
1.87806e-07
5.48343e-05
1.78138e-07
5.46645e-05
1.69801e-07
5.45018e-05
1.62711e-07
5.4345e-05
1.56849e-07
5.41927e-05
1.52267e-07
5.40436e-05
1.49107e-07
5.3896e-05
1.47637e-07
5.37476e-05
1.48331e-07
5.35957e-05
1.51971e-07
5.34358e-05
1.59884e-07
5.32612e-05
1.74586e-07
5.30585e-05
2.02655e-07
5.28235e-05
2.35011e-07
5.24791e-05
3.4446e-07
5.1978e-05
5.01026e-07
7.04215e-07
5.12738e-05
6.21472e-05
-1.80462e-07
6.21733e-05
2.71894e-07
6.21954e-05
3.81834e-07
6.2212e-05
4.57371e-07
6.22123e-05
5.04069e-07
6.21824e-05
5.11292e-07
6.21209e-05
4.97927e-07
6.20338e-05
4.78106e-07
6.19289e-05
4.56149e-07
6.18126e-05
4.33489e-07
6.16898e-05
4.11269e-07
6.15639e-05
3.9024e-07
6.14372e-05
3.70703e-07
6.13112e-05
3.52712e-07
6.11868e-05
3.36239e-07
6.10645e-05
3.21226e-07
6.09447e-05
3.07612e-07
6.08275e-05
2.95343e-07
6.07129e-05
2.84389e-07
6.06008e-05
2.74752e-07
6.04912e-05
2.66475e-07
6.03838e-05
2.5966e-07
6.02784e-05
2.54493e-07
6.01748e-05
2.51271e-07
6.00726e-05
2.50497e-07
5.99717e-05
2.52895e-07
5.98718e-05
2.59841e-07
5.97733e-05
2.73047e-07
5.9677e-05
2.98936e-07
5.95825e-05
3.29495e-07
5.95075e-05
4.19517e-07
5.94644e-05
5.44075e-07
7.00096e-07
5.94685e-05
6.36687e-05
-8.77686e-08
6.37277e-05
2.12937e-07
6.37879e-05
3.21554e-07
6.38516e-05
3.93696e-07
6.39066e-05
4.49099e-07
6.39434e-05
4.74476e-07
6.39619e-05
4.79404e-07
6.39649e-05
4.75143e-07
6.39549e-05
4.66129e-07
6.39343e-05
4.54081e-07
6.39052e-05
4.40388e-07
6.38693e-05
4.26112e-07
6.38282e-05
4.11876e-07
6.37829e-05
3.98026e-07
6.37343e-05
3.84779e-07
6.36833e-05
3.72288e-07
6.36302e-05
3.60664e-07
6.35755e-05
3.49997e-07
6.35196e-05
3.40378e-07
6.34624e-05
3.31919e-07
6.34041e-05
3.24763e-07
6.33447e-05
3.1911e-07
6.32839e-05
3.15249e-07
6.32216e-05
3.13591e-07
6.31573e-05
3.14769e-07
6.30905e-05
3.19655e-07
6.30206e-05
3.29786e-07
6.29467e-05
3.46964e-07
6.28693e-05
3.76358e-07
6.27829e-05
4.1591e-07
6.27085e-05
4.93868e-07
6.26602e-05
5.92333e-07
7.05817e-07
6.26545e-05
6.55169e-05
-2.15804e-08
6.5558e-05
1.71814e-07
6.55951e-05
2.8443e-07
6.56363e-05
3.52566e-07
6.56788e-05
4.06609e-07
6.57157e-05
4.37489e-07
6.57456e-05
4.49587e-07
6.57685e-05
4.52244e-07
6.57847e-05
4.49882e-07
6.57947e-05
4.44102e-07
6.5799e-05
4.36101e-07
6.57982e-05
4.26878e-07
6.5793e-05
4.17082e-07
6.57839e-05
4.07118e-07
6.57714e-05
3.97276e-07
6.57559e-05
3.87784e-07
6.57378e-05
3.78829e-07
6.57172e-05
3.70577e-07
6.56944e-05
3.63193e-07
6.56694e-05
3.56856e-07
6.56424e-05
3.51784e-07
6.56133e-05
3.48252e-07
6.55819e-05
3.46627e-07
6.55481e-05
3.47408e-07
6.55115e-05
3.51306e-07
6.54719e-05
3.59285e-07
6.54288e-05
3.72864e-07
6.5382e-05
3.93828e-07
6.53324e-05
4.25885e-07
6.52787e-05
4.69672e-07
6.52345e-05
5.38008e-07
6.52046e-05
6.22261e-07
7.24074e-07
6.51863e-05
6.74275e-05
7.67026e-09
6.7448e-05
1.5134e-07
6.74716e-05
2.60792e-07
6.74999e-05
3.24351e-07
6.75331e-05
3.73346e-07
6.75657e-05
4.04873e-07
6.75951e-05
4.2023e-07
6.76208e-05
4.26521e-07
6.76429e-05
4.27838e-07
6.76613e-05
4.25712e-07
6.76761e-05
4.21217e-07
6.76877e-05
4.15287e-07
6.76963e-05
4.08559e-07
6.77019e-05
4.01448e-07
6.77049e-05
3.9426e-07
6.77055e-05
3.87249e-07
6.77037e-05
3.80631e-07
6.76996e-05
3.74605e-07
6.76935e-05
3.69374e-07
6.76852e-05
3.65159e-07
6.76747e-05
3.62218e-07
6.76621e-05
3.60871e-07
6.76472e-05
3.61532e-07
6.76299e-05
3.64739e-07
6.761e-05
3.71225e-07
6.75873e-05
3.81948e-07
6.75619e-05
3.98278e-07
6.75339e-05
4.21803e-07
6.75047e-05
4.55106e-07
6.74749e-05
4.99507e-07
6.7452e-05
5.60872e-07
6.74389e-05
6.35322e-07
7.23443e-07
6.74396e-05
6.93699e-05
2.17619e-08
6.93827e-05
1.38564e-07
6.94044e-05
2.39139e-07
6.94287e-05
3.00067e-07
6.94566e-05
3.4541e-07
6.94849e-05
3.76609e-07
6.95113e-05
3.93785e-07
6.95356e-05
4.02218e-07
6.95578e-05
4.05686e-07
6.95777e-05
4.05758e-07
6.95955e-05
4.03457e-07
6.96111e-05
3.99664e-07
6.96246e-05
3.95006e-07
6.96362e-05
3.899e-07
6.96458e-05
3.84659e-07
6.96535e-05
3.79545e-07
6.96593e-05
3.74787e-07
6.96634e-05
3.70602e-07
6.96655e-05
3.67209e-07
6.96658e-05
3.6485e-07
6.96642e-05
3.63806e-07
6.96607e-05
3.64416e-07
6.96551e-05
3.67108e-07
6.96474e-05
3.72421e-07
6.96376e-05
3.81059e-07
6.96256e-05
3.93902e-07
6.96118e-05
4.12112e-07
6.95966e-05
4.36992e-07
6.95814e-05
4.70308e-07
6.95677e-05
5.13233e-07
6.95603e-05
5.68259e-07
6.95625e-05
6.33133e-07
7.07142e-07
6.95788e-05
7.13588e-05
2.92601e-08
7.13696e-05
1.27837e-07
7.13905e-05
2.18201e-07
7.14133e-05
2.77312e-07
7.14383e-05
3.20369e-07
7.14639e-05
3.51034e-07
7.14882e-05
3.69415e-07
7.15111e-05
3.79397e-07
7.15324e-05
3.84386e-07
7.15521e-05
3.86e-07
7.15703e-05
3.85243e-07
7.1587e-05
3.82962e-07
7.16023e-05
3.79784e-07
7.1616e-05
3.76137e-07
7.16283e-05
3.72345e-07
7.16392e-05
3.68679e-07
7.16486e-05
3.65378e-07
7.16566e-05
3.62668e-07
7.1663e-05
3.6078e-07
7.16679e-05
3.59964e-07
7.16712e-05
3.60507e-07
7.16728e-05
3.62752e-07
7.16728e-05
3.67114e-07
7.16711e-05
3.74105e-07
7.16678e-05
3.84361e-07
7.16631e-05
3.98645e-07
7.16573e-05
4.17889e-07
7.16512e-05
4.4309e-07
7.16461e-05
4.75396e-07
7.16438e-05
5.15562e-07
7.16477e-05
5.64384e-07
7.16607e-05
6.20158e-07
6.81769e-07
7.1686e-05
7.3402e-05
3.25802e-08
7.34117e-05
1.18108e-07
7.3431e-05
1.98864e-07
7.34526e-05
2.5569e-07
7.34761e-05
2.9693e-07
7.35002e-05
3.26925e-07
7.35235e-05
3.46155e-07
7.35454e-05
3.57435e-07
7.35661e-05
3.63712e-07
7.35855e-05
3.66603e-07
7.36036e-05
3.67105e-07
7.36205e-05
3.66041e-07
7.36363e-05
3.64039e-07
7.36509e-05
3.61546e-07
7.36643e-05
3.58902e-07
7.36766e-05
3.56388e-07
7.36877e-05
3.54256e-07
7.36977e-05
3.5274e-07
7.37064e-05
3.52075e-07
7.37138e-05
3.52514e-07
7.372e-05
3.54342e-07
7.37249e-05
3.57887e-07
7.37284e-05
3.63539e-07
7.37308e-05
3.71761e-07
7.3732e-05
3.83097e-07
7.37325e-05
3.98176e-07
7.37327e-05
4.17705e-07
7.37334e-05
4.42388e-07
7.37359e-05
4.72903e-07
7.37419e-05
5.09586e-07
7.37538e-05
5.52401e-07
7.37741e-05
5.99855e-07
6.50825e-07
7.38051e-05
7.55018e-05
3.32387e-08
7.55108e-05
1.09085e-07
7.55284e-05
1.81266e-07
7.5549e-05
2.35149e-07
7.55712e-05
2.74664e-07
7.55943e-05
3.0386e-07
7.56169e-05
3.23597e-07
7.56384e-05
3.35937e-07
7.56587e-05
3.43338e-07
7.5678e-05
3.47358e-07
7.56961e-05
3.48978e-07
7.57132e-05
3.4899e-07
7.57292e-05
3.48019e-07
7.57442e-05
3.46525e-07
7.57582e-05
3.44862e-07
7.57713e-05
3.43325e-07
7.57834e-05
3.42173e-07
7.57945e-05
3.41649e-07
7.58046e-05
3.41989e-07
7.58136e-05
3.43445e-07
7.58217e-05
3.46289e-07
7.58288e-05
3.50828e-07
7.58349e-05
3.57413e-07
7.58402e-05
3.66444e-07
7.58449e-05
3.78369e-07
7.58494e-05
3.93676e-07
7.58543e-05
4.12866e-07
7.58603e-05
4.36388e-07
7.58686e-05
4.64569e-07
7.58808e-05
4.97422e-07
7.58986e-05
5.34518e-07
7.5924e-05
5.74487e-07
6.16332e-07
7.59585e-05
7.76605e-05
3.23589e-08
7.7669e-05
1.00527e-07
7.76851e-05
1.65197e-07
7.77045e-05
2.15719e-07
7.77257e-05
2.53465e-07
7.77478e-05
2.81734e-07
7.77698e-05
3.01641e-07
7.7791e-05
3.14758e-07
7.78112e-05
3.23098e-07
7.78305e-05
3.28105e-07
7.78487e-05
3.30728e-07
7.7866e-05
3.31721e-07
7.78823e-05
3.31692e-07
7.78977e-05
3.31106e-07
7.79123e-05
3.30325e-07
7.79259e-05
3.29653e-07
7.79388e-05
3.29356e-07
7.79507e-05
3.29678e-07
7.79619e-05
3.30857e-07
7.79722e-05
3.33134e-07
7.79817e-05
3.36765e-07
7.79905e-05
3.42029e-07
7.79987e-05
3.4923e-07
7.80064e-05
3.58699e-07
7.8014e-05
3.70789e-07
7.80218e-05
3.85852e-07
7.80305e-05
4.04214e-07
7.80408e-05
4.26112e-07
7.80537e-05
4.51626e-07
7.80706e-05
4.8055e-07
7.80928e-05
5.12287e-07
7.81217e-05
5.45584e-07
5.79611e-07
7.81584e-05
7.988e-05
3.06425e-08
7.98883e-05
9.23027e-08
7.9903e-05
1.50433e-07
7.99213e-05
1.97409e-07
7.99415e-05
2.33274e-07
7.99628e-05
2.60493e-07
7.99841e-05
2.80274e-07
8.0005e-05
2.93887e-07
8.00251e-05
3.0296e-07
8.00445e-05
3.08796e-07
8.00629e-05
3.12294e-07
8.00804e-05
3.14166e-07
8.00971e-05
3.14993e-07
8.0113e-05
3.15236e-07
8.01281e-05
3.15258e-07
8.01424e-05
3.15364e-07
8.01559e-05
3.15822e-07
8.01687e-05
3.16874e-07
8.01808e-05
3.18752e-07
8.01923e-05
3.21684e-07
8.02031e-05
3.25905e-07
8.02135e-05
3.31659e-07
8.02235e-05
3.39201e-07
8.02334e-05
3.48794e-07
8.02435e-05
3.60696e-07
8.02542e-05
3.75144e-07
8.02661e-05
3.92316e-07
8.028e-05
4.12288e-07
8.02966e-05
4.3497e-07
8.03171e-05
4.60027e-07
8.03426e-05
4.86811e-07
8.0374e-05
5.14202e-07
5.41531e-07
8.04121e-05
8.21626e-05
2.85015e-08
8.21705e-05
8.43737e-08
8.21842e-05
1.36772e-07
8.22014e-05
1.8017e-07
8.22207e-05
2.1403e-07
8.22411e-05
2.40082e-07
8.22619e-05
2.59496e-07
8.22824e-05
2.73342e-07
8.23024e-05
2.8294e-07
8.23218e-05
2.89435e-07
8.23404e-05
2.93668e-07
8.23583e-05
2.96304e-07
8.23754e-05
2.97892e-07
8.23917e-05
2.98877e-07
8.24074e-05
2.99618e-07
8.24223e-05
3.00416e-07
8.24366e-05
3.01533e-07
8.24503e-05
3.03207e-07
8.24634e-05
3.05657e-07
8.2476e-05
3.09094e-07
8.24881e-05
3.13727e-07
8.25e-05
3.19764e-07
8.25118e-05
3.27411e-07
8.25238e-05
3.36864e-07
8.25362e-05
3.48298e-07
8.25494e-05
3.6185e-07
8.25642e-05
3.77583e-07
8.2581e-05
3.95455e-07
8.26007e-05
4.15269e-07
8.26241e-05
4.36625e-07
8.2652e-05
4.58888e-07
8.26852e-05
4.81079e-07
5.0267e-07
8.2724e-05
8.45101e-05
2.6176e-08
8.45177e-05
7.67388e-08
8.45305e-05
1.2404e-07
8.45467e-05
1.6392e-07
8.45651e-05
1.95667e-07
8.45847e-05
2.20441e-07
8.46049e-05
2.39289e-07
8.46251e-05
2.53135e-07
8.4645e-05
2.63054e-07
8.46644e-05
2.7004e-07
8.46832e-05
2.74864e-07
8.47014e-05
2.78139e-07
8.47189e-05
2.80381e-07
8.47358e-05
2.82012e-07
8.4752e-05
2.8338e-07
8.47676e-05
2.84777e-07
8.47827e-05
2.86455e-07
8.47973e-05
2.88641e-07
8.48114e-05
2.91538e-07
8.48252e-05
2.95338e-07
8.48387e-05
3.00222e-07
8.48521e-05
3.06359e-07
8.48656e-05
3.13908e-07
8.48794e-05
3.23004e-07
8.4894e-05
3.33753e-07
8.49096e-05
3.46206e-07
8.49269e-05
3.60345e-07
8.49463e-05
3.76044e-07
8.49685e-05
3.93046e-07
8.49942e-05
4.10931e-07
8.5024e-05
4.29111e-07
8.50583e-05
4.46745e-07
4.63426e-07
8.50976e-05
8.69245e-05
2.38025e-08
8.69319e-05
6.94031e-08
8.69438e-05
1.12094e-07
8.69592e-05
1.48563e-07
8.69767e-05
1.78115e-07
8.69957e-05
2.01505e-07
8.70153e-05
2.19621e-07
8.70352e-05
2.33261e-07
8.7055e-05
2.43311e-07
8.70744e-05
2.50623e-07
8.70933e-05
2.55891e-07
8.71118e-05
2.59679e-07
8.71297e-05
2.62462e-07
8.71471e-05
2.64636e-07
8.7164e-05
2.66532e-07
8.71803e-05
2.68429e-07
8.71962e-05
2.70565e-07
8.72117e-05
2.73151e-07
8.72268e-05
2.76375e-07
8.72418e-05
2.80403e-07
8.72566e-05
2.85388e-07
8.72715e-05
2.91464e-07
8.72867e-05
2.98743e-07
8.73024e-05
3.0731e-07
8.73189e-05
3.17209e-07
8.73367e-05
3.2843e-07
8.73561e-05
3.40893e-07
8.73778e-05
3.54422e-07
8.74021e-05
3.68732e-07
8.74296e-05
3.83414e-07
8.74608e-05
3.97939e-07
8.74959e-05
4.11598e-07
4.24083e-07
8.75353e-05
8.94079e-05
2.14549e-08
8.94149e-05
6.23673e-08
8.94262e-05
1.00819e-07
8.94408e-05
1.33999e-07
8.94576e-05
1.61302e-07
8.94759e-05
1.83211e-07
8.9495e-05
2.00448e-07
8.95146e-05
2.13701e-07
8.95342e-05
2.23706e-07
8.95536e-05
2.31185e-07
8.95728e-05
2.36755e-07
8.95915e-05
2.40926e-07
8.96099e-05
2.44134e-07
8.96278e-05
2.46745e-07
8.96452e-05
2.49067e-07
8.96623e-05
2.51361e-07
8.9679e-05
2.53851e-07
8.96954e-05
2.56728e-07
8.97116e-05
2.60159e-07
8.97278e-05
2.6429e-07
8.97439e-05
2.69243e-07
8.97603e-05
2.75116e-07
8.9777e-05
2.81985e-07
8.97944e-05
2.89888e-07
8.98128e-05
2.98823e-07
8.98325e-05
3.08734e-07
8.98539e-05
3.195e-07
8.98774e-05
3.30918e-07
8.99034e-05
3.427e-07
8.99324e-05
3.54462e-07
8.99646e-05
3.65743e-07
9.00002e-05
3.75952e-07
3.84862e-07
9.00395e-05
9.19621e-05
1.91699e-08
9.19689e-05
5.56245e-08
9.19796e-05
9.01207e-08
9.19935e-05
1.20131e-07
9.20096e-05
1.45153e-07
9.20273e-05
1.65493e-07
9.20461e-05
1.81723e-07
9.20653e-05
1.94429e-07
9.20848e-05
2.04224e-07
9.21043e-05
2.11718e-07
9.21236e-05
2.1745e-07
9.21426e-05
2.21879e-07
9.21614e-05
2.25394e-07
9.21798e-05
2.28333e-07
9.21979e-05
2.30977e-07
9.22157e-05
2.33567e-07
9.22332e-05
2.36306e-07
9.22506e-05
2.39368e-07
9.22678e-05
2.42898e-07
9.22851e-05
2.47016e-07
9.23025e-05
2.51817e-07
9.23203e-05
2.57372e-07
9.23385e-05
2.63718e-07
9.23576e-05
2.7086e-07
9.23776e-05
2.7876e-07
9.2399e-05
2.87331e-07
9.24221e-05
2.96425e-07
9.24472e-05
3.05834e-07
9.24746e-05
3.15276e-07
9.25047e-05
3.24409e-07
9.25376e-05
3.32834e-07
9.25735e-05
3.40065e-07
3.4594e-07
9.26124e-05
9.45894e-05
1.6963e-08
9.45958e-05
4.91604e-08
9.4606e-05
7.99211e-08
9.46193e-05
1.0687e-07
9.46349e-05
1.29593e-07
9.46521e-05
1.48284e-07
9.46704e-05
1.63393e-07
9.46894e-05
1.75409e-07
9.47088e-05
1.84843e-07
9.47283e-05
1.92208e-07
9.47478e-05
1.97968e-07
9.47671e-05
2.02527e-07
9.47863e-05
2.06236e-07
9.48052e-05
2.09394e-07
9.4824e-05
2.12257e-07
9.48425e-05
2.15043e-07
9.48609e-05
2.17932e-07
9.48792e-05
2.21078e-07
9.48974e-05
2.24604e-07
9.49159e-05
2.28608e-07
9.49345e-05
2.33159e-07
9.49536e-05
2.38299e-07
9.49733e-05
2.4404e-07
9.49938e-05
2.50359e-07
9.50153e-05
2.5719e-07
9.50382e-05
2.64428e-07
9.50627e-05
2.71915e-07
9.50891e-05
2.79443e-07
9.51177e-05
2.86753e-07
9.51485e-05
2.93542e-07
9.51819e-05
2.99474e-07
9.52178e-05
3.04153e-07
3.07469e-07
9.52563e-05
9.72916e-05
1.48375e-08
9.72979e-05
4.29551e-08
9.73076e-05
7.01533e-08
9.73204e-05
9.41324e-08
9.73354e-05
1.14546e-07
9.73522e-05
1.31521e-07
9.73702e-05
1.45405e-07
9.7389e-05
1.56601e-07
9.74083e-05
1.65535e-07
9.74279e-05
1.72632e-07
9.74475e-05
1.78291e-07
9.74672e-05
1.82861e-07
9.74868e-05
1.86649e-07
9.75063e-05
1.89921e-07
9.75256e-05
1.92903e-07
9.75449e-05
1.95787e-07
9.75641e-05
1.98732e-07
9.75833e-05
2.0187e-07
9.76026e-05
2.05302e-07
9.76221e-05
2.09104e-07
9.76419e-05
2.13323e-07
9.76622e-05
2.17978e-07
9.76832e-05
2.23059e-07
9.77051e-05
2.28521e-07
9.7728e-05
2.34283e-07
9.77522e-05
2.40228e-07
9.77779e-05
2.46198e-07
9.78053e-05
2.51996e-07
9.78347e-05
2.57388e-07
9.78661e-05
2.62112e-07
9.78997e-05
2.65889e-07
9.79355e-05
2.684e-07
2.69574e-07
9.79734e-05
0.000100071
1.27904e-08
0.000100077
3.69847e-08
0.000100087
6.07579e-08
0.000100099
8.18419e-08
0.000100113
9.99408e-08
0.00010013
1.15137e-07
0.000100147
1.27701e-07
0.000100166
1.3796e-07
0.000100185
1.46264e-07
0.000100205
1.52967e-07
0.000100225
1.584e-07
0.000100245
1.62864e-07
0.000100265
1.66623e-07
0.000100285
1.69906e-07
0.000100305
1.7291e-07
0.000100325
1.75801e-07
0.000100345
1.78715e-07
0.000100365
1.81762e-07
0.000100385
1.85022e-07
0.000100406
1.88551e-07
0.000100427
1.92375e-07
0.000100448
1.96497e-07
0.000100471
2.00887e-07
0.000100494
2.05486e-07
0.000100518
2.10206e-07
0.000100543
2.14924e-07
0.00010057
2.19489e-07
0.000100598
2.2372e-07
0.000100628
2.27411e-07
0.00010066
2.30338e-07
0.000100693
2.32273e-07
0.000100729
2.32962e-07
2.32365e-07
0.000100766
0.00010293
1.08149e-08
0.000102936
3.12238e-08
0.000102945
5.16813e-08
0.000102957
6.99287e-08
0.000102971
8.57062e-08
0.000102987
9.90681e-08
0.000103005
1.10224e-07
0.000103023
1.19438e-07
0.000103042
1.26994e-07
0.000103062
1.3318e-07
0.000103082
1.38271e-07
0.000103103
1.42518e-07
0.000103123
1.46143e-07
0.000103144
1.49341e-07
0.000103164
1.52277e-07
0.000103185
1.55091e-07
0.000103206
1.57895e-07
0.000103227
1.60779e-07
0.000103248
1.63802e-07
0.00010327
1.67001e-07
0.000103292
1.70388e-07
0.000103314
1.73948e-07
0.000103337
1.77639e-07
0.000103361
1.81394e-07
0.000103387
1.8512e-07
0.000103413
1.88698e-07
0.00010344
1.91985e-07
0.000103469
1.9482e-07
0.0001035
1.97023e-07
0.000103532
1.98409e-07
0.000103565
1.98792e-07
0.0001036
1.97972e-07
1.95934e-07
0.000103636
0.000105871
8.90296e-09
0.000105876
2.56458e-08
0.000105885
4.28738e-08
0.000105897
5.83279e-08
0.000105911
7.1774e-08
0.000105926
8.32484e-08
0.000105944
9.29147e-08
0.000105962
1.00983e-07
0.000105981
1.0768e-07
0.000106001
1.13238e-07
0.000106022
1.17877e-07
0.000106043
1.21803e-07
0.000106063
1.25197e-07
0.000106085
1.28217e-07
0.000106106
1.31002e-07
0.000106127
1.33663e-07
0.000106149
1.36289e-07
0.000106171
1.38949e-07
0.000106193
1.41683e-07
0.000106215
1.44514e-07
0.000106238
1.47437e-07
0.000106262
1.50426e-07
0.000106286
1.53431e-07
0.000106311
1.56381e-07
0.000106337
1.59181e-07
0.000106364
1.6172e-07
0.000106392
1.63866e-07
0.000106421
1.65478e-07
0.000106452
1.66404e-07
0.000106484
1.6649e-07
0.000106517
1.65588e-07
0.000106552
1.63543e-07
1.60356e-07
0.000106587
0.000108895
7.04578e-09
0.000108901
2.02246e-08
0.000108909
3.42897e-08
0.000108921
4.69789e-08
0.000108934
5.80786e-08
0.00010895
6.76132e-08
0.000108967
7.57122e-08
0.000108986
8.25407e-08
0.000109005
8.82768e-08
0.000109025
9.31009e-08
0.000109046
9.71864e-08
0.000109067
1.00694e-07
0.000109088
1.03765e-07
0.00010911
1.06527e-07
0.000109132
1.09085e-07
0.000109154
1.11526e-07
0.000109176
1.13917e-07
0.000109199
1.16304e-07
0.000109222
1.18713e-07
0.000109245
1.21151e-07
0.000109269
1.23601e-07
0.000109294
1.26028e-07
0.000109319
1.28378e-07
0.000109345
1.30577e-07
0.000109371
1.32535e-07
0.000109399
1.34146e-07
0.000109427
1.35295e-07
0.000109457
1.35859e-07
0.000109488
1.3571e-07
0.000109519
1.34723e-07
0.000109552
1.32782e-07
0.000109586
1.29769e-07
1.25698e-07
0.000109621
0.000112006
5.23469e-09
0.000112012
1.49352e-08
0.00011202
2.5886e-08
0.000112031
3.58247e-08
0.000112045
4.45553e-08
0.00011206
5.20964e-08
0.000112077
5.85527e-08
0.000112096
6.40526e-08
0.000112115
6.87315e-08
0.000112136
7.27248e-08
0.000112157
7.61619e-08
0.000112178
7.91618e-08
0.0001122
8.18303e-08
0.000112223
8.42592e-08
0.000112245
8.65255e-08
0.000112268
8.86905e-08
0.000112291
9.07988e-08
0.000112314
9.28784e-08
0.000112338
9.49393e-08
0.000112362
9.69742e-08
0.000112387
9.89582e-08
0.000112412
1.00849e-07
0.000112438
1.0259e-07
0.000112465
1.04107e-07
0.000112492
1.05315e-07
0.00011252
1.0612e-07
0.000112549
1.06418e-07
0.000112578
1.06105e-07
0.000112609
1.05076e-07
0.000112641
1.0323e-07
0.000112673
1.00478e-07
0.000112706
9.67293e-08
9.20098e-08
0.00011274
0.000115206
3.46151e-09
0.000115211
9.75428e-09
0.00011522
1.76229e-08
0.000115231
2.48113e-08
0.000115244
3.11408e-08
0.00011526
3.66308e-08
0.000115277
4.13692e-08
0.000115295
4.54551e-08
0.000115315
4.89868e-08
0.000115336
5.20595e-08
0.000115357
5.47621e-08
0.000115379
5.71748e-08
0.000115402
5.93674e-08
0.000115424
6.13995e-08
0.000115448
6.33196e-08
0.000115471
6.51638e-08
0.000115495
6.69558e-08
0.000115519
6.87054e-08
0.000115544
7.04083e-08
0.000115569
7.20459e-08
0.000115594
7.3585e-08
0.00011562
7.49792e-08
0.000115646
7.61689e-08
0.000115673
7.70844e-08
0.000115701
7.7646e-08
0.000115729
7.7769e-08
0.000115758
7.73641e-08
0.000115788
7.63429e-08
0.000115819
7.46191e-08
0.00011585
7.21143e-08
0.000115882
6.87594e-08
0.000115914
6.44887e-08
5.93331e-08
0.000115946
0.000118498
1.71914e-09
0.000118503
4.6614e-09
0.000118511
9.46461e-09
0.000118522
1.38874e-08
0.000118535
1.77721e-08
0.000118551
2.11464e-08
0.000118568
2.40901e-08
0.000118587
2.66787e-08
0.000118607
2.89781e-08
0.000118628
3.10475e-08
0.00011865
3.29383e-08
0.000118672
3.46933e-08
0.000118695
3.6348e-08
0.000118719
3.79303e-08
0.000118742
3.94609e-08
0.000118767
4.09518e-08
0.000118791
4.2406e-08
0.000118816
4.38164e-08
0.000118841
4.51656e-08
0.000118867
4.64241e-08
0.000118893
4.75531e-08
0.000118919
4.85015e-08
0.000118946
4.92111e-08
0.000118974
4.96137e-08
0.000119002
4.96382e-08
0.00011903
4.92075e-08
0.00011906
4.82465e-08
0.000119089
4.66797e-08
0.000119119
4.4439e-08
0.00011915
4.14614e-08
0.000119181
3.76971e-08
0.000119212
3.30976e-08
2.76991e-08
0.000119244
0.000121883
2.05497e-12
0.000121888
-3.59145e-10
0.000121896
1.38044e-09
0.000121907
3.00486e-09
0.00012192
4.38517e-09
0.000121936
5.5694e-09
0.000121953
6.63732e-09
0.000121972
7.64561e-09
0.000121993
8.63196e-09
0.000122014
9.6224e-09
0.000122037
1.06328e-08
0.00012206
1.16702e-08
0.000122083
1.27361e-08
0.000122107
1.38276e-08
0.000122132
1.4938e-08
0.000122157
1.60556e-08
0.000122182
1.71636e-08
0.000122208
1.82391e-08
0.000122233
1.92512e-08
0.00012226
2.01627e-08
0.000122286
2.09273e-08
0.000122313
2.14932e-08
0.000122341
2.1801e-08
0.000122369
2.17882e-08
0.000122397
2.1388e-08
0.000122425
2.05343e-08
0.000122455
1.91608e-08
0.000122484
1.72068e-08
0.000122514
1.46157e-08
0.000122544
1.13409e-08
0.000122574
7.34418e-09
0.000122605
2.5935e-09
-2.87514e-09
0.000122635
0.000125365
-1.69221e-09
0.00012537
-5.31556e-09
0.000125378
-6.65234e-09
0.000125389
-7.88085e-09
0.000125402
-9.08563e-09
0.000125418
-1.01804e-08
0.000125436
-1.10766e-08
0.000125455
-1.17328e-08
0.000125476
-1.21371e-08
0.000125498
-1.22941e-08
0.000125521
-1.22229e-08
0.000125545
-1.19517e-08
0.000125569
-1.15132e-08
0.000125594
-1.09409e-08
0.000125619
-1.02684e-08
0.000125644
-9.53071e-09
0.00012567
-8.76374e-09
0.000125696
-8.00665e-09
0.000125723
-7.3013e-09
0.00012575
-6.69431e-09
0.000125777
-6.2361e-09
0.000125805
-5.98127e-09
0.000125832
-5.98744e-09
0.00012586
-6.31437e-09
0.000125889
-7.02221e-09
0.000125918
-8.17004e-09
0.000125947
-9.81369e-09
0.000125976
-1.20043e-08
0.000126005
-1.47862e-08
0.000126035
-1.81957e-08
0.000126064
-2.22592e-08
0.000126094
-2.69981e-08
-3.23754e-08
0.000126123
0.000128947
-3.36098e-09
0.000128952
-1.02022e-08
0.00012896
-1.4643e-08
0.000128971
-1.88091e-08
0.000128984
-2.27095e-08
0.000129
-2.61923e-08
0.000129018
-2.91517e-08
0.000129038
-3.15603e-08
0.000129059
-3.34302e-08
0.000129082
-3.47959e-08
0.000129105
-3.57114e-08
0.00012913
-3.62423e-08
0.000129155
-3.64556e-08
0.00012918
-3.64161e-08
0.000129206
-3.61845e-08
0.000129232
-3.58191e-08
0.000129259
-3.53747e-08
0.000129286
-3.49059e-08
0.000129313
-3.44657e-08
0.00012934
-3.41089e-08
0.000129368
-3.38901e-08
0.000129396
-3.38662e-08
0.000129424
-3.40932e-08
0.000129452
-3.46284e-08
0.000129481
-3.55262e-08
0.00012951
-3.68394e-08
0.000129538
-3.86156e-08
0.000129567
-4.08975e-08
0.000129596
-4.37204e-08
0.000129625
-4.7112e-08
0.000129654
-5.10908e-08
0.000129683
-5.56706e-08
-6.08162e-08
0.000129711
0.000132631
-4.99161e-09
0.000132635
-1.49883e-08
0.000132643
-2.25782e-08
0.000132654
-2.98117e-08
0.000132668
-3.65623e-08
0.000132685
-4.25698e-08
0.000132703
-4.77056e-08
0.000132724
-5.19599e-08
0.000132746
-5.53684e-08
0.000132769
-5.79961e-08
0.000132793
-5.99351e-08
0.000132818
-6.12906e-08
0.000132844
-6.2166e-08
0.00013287
-6.26577e-08
0.000132897
-6.2855e-08
0.000132924
-6.28389e-08
0.000132951
-6.26845e-08
0.000132979
-6.24598e-08
0.000133006
-6.22308e-08
0.000133034
-6.2058e-08
0.000133062
-6.20024e-08
0.000133091
-6.21206e-08
0.000133119
-6.24702e-08
0.000133147
-6.31037e-08
0.000133176
-6.4073e-08
0.000133205
-6.54237e-08
0.000133233
-6.71985e-08
0.000133262
-6.94319e-08
0.00013329
-7.21533e-08
0.000133318
-7.53825e-08
0.000133346
-7.91327e-08
0.000133374
-8.34093e-08
-8.81794e-08
0.000133402
0.00013642
-6.55227e-09
0.000136424
-1.95951e-08
0.000136432
-3.04053e-08
0.000136443
-4.09102e-08
0.000136458
-5.07294e-08
0.000136474
-5.94367e-08
0.000136494
-6.68841e-08
0.000136515
-7.30849e-08
0.000136537
-7.80985e-08
0.000136561
-8.20252e-08
0.000136587
-8.50044e-08
0.000136612
-8.71869e-08
0.000136639
-8.87154e-08
0.000136666
-8.97199e-08
0.000136694
-9.03183e-08
0.000136721
-9.06156e-08
0.000136749
-9.07055e-08
0.000136778
-9.06716e-08
0.000136806
-9.05891e-08
0.000136834
-9.05276e-08
0.000136863
-9.0551e-08
0.000136892
-9.07194e-08
0.00013692
-9.10885e-08
0.000136949
-9.17103e-08
0.000136977
-9.26319e-08
0.000137006
-9.3896e-08
0.000137034
-9.55387e-08
0.000137062
-9.7591e-08
0.00013709
-1.00076e-07
0.000137118
-1.0301e-07
0.000137145
-1.06403e-07
0.000137172
-1.10259e-07
-1.1455e-07
0.000137198
0.000140317
-7.97048e-09
0.000140321
-2.38491e-08
0.000140329
-3.80076e-08
0.00014034
-5.21183e-08
0.000140355
-6.53115e-08
0.000140372
-7.69356e-08
0.000140392
-8.68611e-08
0.000140414
-9.51342e-08
0.000140438
-1.0183e-07
0.000140463
-1.07089e-07
0.000140489
-1.11111e-07
0.000140516
-1.141e-07
0.000140544
-1.16245e-07
0.000140572
-1.17715e-07
0.0001406
-1.18658e-07
0.000140629
-1.19207e-07
0.000140657
-1.19473e-07
0.000140686
-1.19555e-07
0.000140715
-1.19538e-07
0.000140744
-1.19501e-07
0.000140773
-1.1951e-07
0.000140802
-1.19628e-07
0.000140831
-1.1991e-07
0.00014086
-1.20407e-07
0.000140888
-1.21163e-07
0.000140916
-1.22218e-07
0.000140945
-1.23603e-07
0.000140972
-1.25347e-07
0.000141
-1.27466e-07
0.000141027
-1.29976e-07
0.000141053
-1.32879e-07
0.000141079
-1.36174e-07
-1.39834e-07
0.000141104
0.000144326
-9.08803e-09
0.000144329
-2.73813e-08
0.000144336
-4.51504e-08
0.000144348
-6.3456e-08
0.000144363
-8.0472e-08
0.000144381
-9.52686e-08
0.000144402
-1.07825e-07
0.000144425
-1.18254e-07
0.00014445
-1.26664e-07
0.000144476
-1.3326e-07
0.000144504
-1.38313e-07
0.000144532
-1.42088e-07
0.00014456
-1.44817e-07
0.000144589
-1.46709e-07
0.000144618
-1.47945e-07
0.000144648
-1.48683e-07
0.000144677
-1.49056e-07
0.000144707
-1.49175e-07
0.000144737
-1.4914e-07
0.000144766
-1.49034e-07
0.000144796
-1.4893e-07
0.000144825
-1.48892e-07
0.000144854
-1.48977e-07
0.000144883
-1.49234e-07
0.000144911
-1.49706e-07
0.00014494
-1.50429e-07
0.000144967
-1.51435e-07
0.000144995
-1.52746e-07
0.000145022
-1.54381e-07
0.000145048
-1.56351e-07
0.000145074
-1.58665e-07
0.000145099
-1.61326e-07
-1.64314e-07
0.000145123
0.000148448
-9.54469e-09
0.00014845
-2.94653e-08
0.000148457
-5.14028e-08
0.000148468
-7.48436e-08
0.000148484
-9.63695e-08
0.000148504
-1.14854e-07
0.000148526
-1.30409e-07
0.000148551
-1.43147e-07
0.000148578
-1.53241e-07
0.000148605
-1.61052e-07
0.000148634
-1.66983e-07
0.000148663
-1.71383e-07
0.000148693
-1.74544e-07
0.000148723
-1.76718e-07
0.000148753
-1.78123e-07
0.000148784
-1.78938e-07
0.000148814
-1.79314e-07
0.000148844
-1.79376e-07
0.000148874
-1.79229e-07
0.000148904
-1.78962e-07
0.000148934
-1.78651e-07
0.000148963
-1.78363e-07
0.000148992
-1.78153e-07
0.000149021
-1.7807e-07
0.00014905
-1.78156e-07
0.000149078
-1.78444e-07
0.000149105
-1.78963e-07
0.000149132
-1.79735e-07
0.000149159
-1.80774e-07
0.000149184
-1.8209e-07
0.000149209
-1.83683e-07
0.000149234
-1.85546e-07
-1.87658e-07
0.000149257
0.000152688
-8.32744e-09
0.000152687
-2.8659e-08
0.000152692
-5.65351e-08
0.000152704
-8.63474e-08
0.00015272
-1.12566e-07
0.00015274
-1.34897e-07
0.000152763
-1.53809e-07
0.000152789
-1.69214e-07
0.000152817
-1.81262e-07
0.000152847
-1.90463e-07
0.000152877
-1.97359e-07
0.000152908
-2.02394e-07
0.00015294
-2.05937e-07
0.000152971
-2.08307e-07
0.000153003
-2.09769e-07
0.000153034
-2.10537e-07
0.000153066
-2.10784e-07
0.000153097
-2.10652e-07
0.000153128
-2.10258e-07
0.000153159
-2.09698e-07
0.000153189
-2.09051e-07
0.000153219
-2.08385e-07
0.000153249
-2.07757e-07
0.000153278
-2.07213e-07
0.000153307
-2.06794e-07
0.000153335
-2.06533e-07
0.000153362
-2.06456e-07
0.000153389
-2.06584e-07
0.000153415
-2.06934e-07
0.000153441
-2.07519e-07
0.000153466
-2.08347e-07
0.000153489
-2.09431e-07
-2.10757e-07
0.000153512
0.000157046
-2.96194e-09
0.000157038
-2.06674e-08
0.000157042
-6.01152e-08
0.000157056
-1.00581e-07
0.000157076
-1.33073e-07
0.000157101
-1.59349e-07
0.000157128
-1.80852e-07
0.000157157
-1.97843e-07
0.000157186
-2.10894e-07
0.000157217
-2.20807e-07
0.000157247
-2.28226e-07
0.000157279
-2.3363e-07
0.00015731
-2.37423e-07
0.000157342
-2.39948e-07
0.000157373
-2.41486e-07
0.000157405
-2.42256e-07
0.000157437
-2.42439e-07
0.000157468
-2.4218e-07
0.0001575
-2.41601e-07
0.000157531
-2.40798e-07
0.000157562
-2.39854e-07
0.000157592
-2.38835e-07
0.000157622
-2.378e-07
0.000157652
-2.36794e-07
0.000157681
-2.35857e-07
0.000157709
-2.35022e-07
0.000157737
-2.34313e-07
0.000157764
-2.33751e-07
0.000157791
-2.33349e-07
0.000157816
-2.33113e-07
0.000157841
-2.33044e-07
0.000157865
-2.33127e-07
-2.33356e-07
0.000157887
0.000161526
9.64176e-09
0.000161505
2.07933e-10
0.000161497
-5.22244e-08
0.000161501
-1.04637e-07
0.000161516
-1.48052e-07
0.00016154
-1.83748e-07
0.000161571
-2.11582e-07
0.000161605
-2.32063e-07
0.000161641
-2.46882e-07
0.000161678
-2.57628e-07
0.000161715
-2.65328e-07
0.000161752
-2.70687e-07
0.000161789
-2.74261e-07
0.000161826
-2.76486e-07
0.000161862
-2.77686e-07
0.000161898
-2.78101e-07
0.000161933
-2.77916e-07
0.000161968
-2.77277e-07
0.000162003
-2.76299e-07
0.000162037
-2.75074e-07
0.000162071
-2.73676e-07
0.000162105
-2.72169e-07
0.000162137
-2.70603e-07
0.00016217
-2.69022e-07
0.000162201
-2.6746e-07
0.000162232
-2.65949e-07
0.000162262
-2.64513e-07
0.000162292
-2.63172e-07
0.00016232
-2.61945e-07
0.000162348
-2.60847e-07
0.000162375
-2.59894e-07
0.000162401
-2.59107e-07
-2.58475e-07
0.000162426
0.0001661
6.36047e-08
0.000166096
4.05954e-09
0.000166113
-6.89686e-08
0.000166128
-1.20525e-07
0.000166144
-1.63904e-07
0.000166163
-2.02583e-07
0.000166186
-2.34081e-07
0.000166212
-2.58197e-07
0.000166241
-2.76528e-07
0.000166274
-2.90458e-07
0.00016631
-3.00868e-07
0.000166348
-3.08452e-07
0.000166387
-3.13809e-07
0.000166428
-3.17419e-07
0.00016647
-3.19645e-07
0.000166513
-3.20769e-07
0.000166556
-3.21017e-07
0.000166599
-3.20573e-07
0.000166642
-3.19583e-07
0.000166685
-3.18167e-07
0.000166728
-3.16421e-07
0.00016677
-3.14429e-07
0.000166812
-3.12256e-07
0.000166853
-3.09959e-07
0.000166893
-3.07586e-07
0.000166932
-3.05174e-07
0.000166971
-3.02756e-07
0.000167008
-3.00357e-07
0.000167044
-2.97997e-07