/*--------------------------------*- C++ -*----------------------------------*\
  =========                 |
  \\      /  F ield         | OpenFOAM: The Open Source CFD Toolbox
   \\    /   O peration     | Website:  https://openfoam.org
    \\  /    A nd           | Version:  10
     \\/     M anipulation  |
\*---------------------------------------------------------------------------*/
FoamFile
{
    format      ascii;
    class       volVectorField;
    location    "800";
    object      U;
}
// * * * * * * * * * * * * * * * * * * * * * * * * * * * * * * * * * * * * * //

dimensions      [0 1 -1 0 0 0 0];

internalField   nonuniform List<vector> 
6820
(
(7.31669 -0.387302 0)
(7.31541 -0.335164 0)
(7.28422 -0.203514 0)
(7.22632 -0.111105 0)
(7.16203 -0.0567766 0)
(7.101 -0.0270118 0)
(7.04523 -0.011277 0)
(6.99491 -0.00307861 0)
(6.94978 0.00114722 0)
(6.90922 0.00328222 0)
(6.87248 0.00432678 0)
(6.83892 0.00481497 0)
(6.80804 0.0050285 0)
(6.77943 0.00511379 0)
(6.75276 0.00514624 0)
(6.72776 0.00516431 0)
(6.7042 0.00518744 0)
(6.68189 0.00522565 0)
(6.66066 0.00528494 0)
(6.64034 0.00537034 0)
(6.6208 0.00548805 0)
(6.60186 0.00564705 0)
(6.58335 0.00586152 0)
(6.56508 0.00615261 0)
(6.54679 0.00655745 0)
(6.52814 0.00714042 0)
(6.50873 0.00793899 0)
(6.48767 0.00923555 0)
(6.46375 0.0121363 0)
(6.43625 0.0109832 0)
(6.40001 0.0248905 0)
(6.34429 0.0410316 0)
(6.27958 0.0290656 0)
(7.33961 0.100775 0)
(7.35428 0.149916 0)
(7.35847 0.123234 0)
(7.35873 0.0898365 0)
(7.3594 0.0660238 0)
(7.35815 0.0501047 0)
(7.3529 0.039529 0)
(7.34388 0.032577 0)
(7.33226 0.0279444 0)
(7.319 0.0247397 0)
(7.30473 0.0224283 0)
(7.28991 0.0206958 0)
(7.27489 0.0193486 0)
(7.25987 0.0182647 0)
(7.24499 0.0173682 0)
(7.23033 0.0166124 0)
(7.21595 0.0159685 0)
(7.20186 0.0154195 0)
(7.18807 0.0149566 0)
(7.17457 0.0145774 0)
(7.16135 0.0142857 0)
(7.14837 0.0140916 0)
(7.13562 0.0140138 0)
(7.12304 0.0140838 0)
(7.1106 0.0143525 0)
(7.09822 0.0149036 0)
(7.08588 0.0158902 0)
(7.07339 0.0175237 0)
(7.06132 0.0203569 0)
(7.04697 0.0250626 0)
(7.03876 0.0337446 0)
(7.0245 0.0485913 0)
(7.01766 0.0821893 0)
(7.32714 0.00611758 0)
(7.3243 -0.00161044 0)
(7.33132 -0.00620634 0)
(7.33976 -0.000814933 0)
(7.34682 0.00700889 0)
(7.35218 0.012735 0)
(7.35542 0.0162449 0)
(7.35658 0.0183417 0)
(7.35606 0.0195258 0)
(7.35421 0.0200989 0)
(7.35128 0.0202877 0)
(7.34748 0.0202525 0)
(7.34298 0.0200939 0)
(7.33795 0.0198735 0)
(7.33249 0.0196304 0)
(7.3267 0.0193904 0)
(7.32065 0.019171 0)
(7.31439 0.0189854 0)
(7.30795 0.0188446 0)
(7.30136 0.0187604 0)
(7.29461 0.0187466 0)
(7.28772 0.0188216 0)
(7.28067 0.0190115 0)
(7.27341 0.0193539 0)
(7.26592 0.0199072 0)
(7.2581 0.0207558 0)
(7.2499 0.0220533 0)
(7.24113 0.0239963 0)
(7.23194 0.027144 0)
(7.2215 0.0314991 0)
(7.21185 0.040602 0)
(7.20381 0.0528631 0)
(7.19994 0.0763116 0)
(7.32977 -0.00401664 0)
(7.32631 0.00243073 0)
(7.33112 0.0106434 0)
(7.3368 0.0167705 0)
(7.34146 0.0203189 0)
(7.34579 0.0218257 0)
(7.3496 0.0223094 0)
(7.35256 0.0224364 0)
(7.3547 0.0224239 0)
(7.35613 0.0223255 0)
(7.3569 0.0221772 0)
(7.35706 0.022008 0)
(7.35668 0.0218345 0)
(7.35584 0.0216661 0)
(7.35459 0.0215106 0)
(7.35297 0.0213756 0)
(7.35104 0.0212692 0)
(7.34881 0.0212003 0)
(7.34632 0.0211796 0)
(7.34357 0.0212206 0)
(7.34058 0.021341 0)
(7.33734 0.0215649 0)
(7.33384 0.0219256 0)
(7.33004 0.0224705 0)
(7.32594 0.0232698 0)
(7.32146 0.024424 0)
(7.31659 0.0260977 0)
(7.31124 0.0285071 0)
(7.30554 0.0321139 0)
(7.29939 0.0371956 0)
(7.29385 0.0454525 0)
(7.2902 0.0559927 0)
(7.28917 0.0703173 0)
(7.33182 -0.00100594 0)
(7.33002 0.00669169 0)
(7.33262 0.0122815 0)
(7.33614 0.0150559 0)
(7.33946 0.0170687 0)
(7.34298 0.0185583 0)
(7.34643 0.0195372 0)
(7.34945 0.0201999 0)
(7.35202 0.0206645 0)
(7.35419 0.0209755 0)
(7.35598 0.0211728 0)
(7.35739 0.0212956 0)
(7.35846 0.0213724 0)
(7.3592 0.0214231 0)
(7.35963 0.0214637 0)
(7.35979 0.0215086 0)
(7.35967 0.0215713 0)
(7.35931 0.0216653 0)
(7.3587 0.0218057 0)
(7.35785 0.0220099 0)
(7.35676 0.0222999 0)
(7.35542 0.0227042 0)
(7.35382 0.0232609 0)
(7.35196 0.0240223 0)
(7.3498 0.0250625 0)
(7.34733 0.0264838 0)
(7.34455 0.0284402 0)
(7.34147 0.0311278 0)
(7.33822 0.03488 0)
(7.33497 0.0399339 0)
(7.33238 0.047008 0)
(7.33125 0.055454 0)
(7.33224 0.0655032 0)
(7.33247 0.00067517 0)
(7.33166 0.00630023 0)
(7.3335 0.0105264 0)
(7.33633 0.0131442 0)
(7.33913 0.0154167 0)
(7.34207 0.0172016 0)
(7.345 0.0183773 0)
(7.34771 0.0191572 0)
(7.35014 0.0197131 0)
(7.35234 0.0201144 0)
(7.35432 0.0204054 0)
(7.35607 0.020625 0)
(7.35758 0.0208018 0)
(7.35888 0.0209554 0)
(7.35997 0.0211014 0)
(7.36085 0.0212542 0)
(7.36153 0.0214274 0)
(7.36201 0.0216356 0)
(7.36229 0.0218947 0)
(7.36237 0.0222241 0)
(7.36224 0.0226474 0)
(7.3619 0.0231952 0)
(7.36134 0.0239078 0)
(7.36055 0.0248384 0)
(7.35953 0.0260594 0)
(7.35828 0.0276671 0)
(7.35682 0.0297941 0)
(7.35522 0.0326005 0)
(7.35362 0.0363104 0)
(7.35223 0.0410826 0)
(7.35152 0.0471985 0)
(7.35205 0.0543061 0)
(7.35445 0.0623996 0)
(7.33271 0.00109929 0)
(7.33242 0.00546388 0)
(7.334 0.00940532 0)
(7.33652 0.012181 0)
(7.33906 0.0144128 0)
(7.34163 0.0161207 0)
(7.34421 0.0172849 0)
(7.34665 0.0180926 0)
(7.3489 0.0186947 0)
(7.35099 0.0191544 0)
(7.35293 0.0195104 0)
(7.3547 0.0197986 0)
(7.35632 0.0200463 0)
(7.35779 0.0202731 0)
(7.3591 0.0204951 0)
(7.36026 0.0207267 0)
(7.36127 0.0209827 0)
(7.36213 0.021278 0)
(7.36283 0.02163 0)
(7.36336 0.0220586 0)
(7.36374 0.0225888 0)
(7.36394 0.0232518 0)
(7.36396 0.0240875 0)
(7.36381 0.0251473 0)
(7.3635 0.026498 0)
(7.36303 0.0282241 0)
(7.36246 0.0304329 0)
(7.36185 0.0332457 0)
(7.36137 0.0368056 0)
(7.36122 0.0412057 0)
(7.36173 0.0465347 0)
(7.36331 0.052571 0)
(7.36647 0.0591865 0)
(7.33286 0.00126241 0)
(7.33289 0.00501161 0)
(7.33427 0.00864268 0)
(7.33651 0.0113177 0)
(7.33884 0.0133989 0)
(7.3412 0.0150287 0)
(7.34357 0.0162101 0)
(7.34584 0.0170641 0)
(7.34796 0.0177128 0)
(7.34995 0.0182194 0)
(7.3518 0.0186232 0)
(7.35354 0.0189594 0)
(7.35515 0.0192559 0)
(7.35664 0.0195332 0)
(7.35802 0.019808 0)
(7.35928 0.020096 0)
(7.36042 0.0204122 0)
(7.36144 0.0207725 0)
(7.36234 0.0211947 0)
(7.36311 0.0216993 0)
(7.36375 0.0223112 0)
(7.36426 0.023061 0)
(7.36464 0.0239866 0)
(7.3649 0.0251354 0)
(7.36505 0.0265658 0)
(7.36512 0.0283482 0)
(7.36517 0.0305651 0)
(7.36527 0.0333027 0)
(7.36558 0.0366466 0)
(7.36626 0.0406406 0)
(7.36758 0.0452851 0)
(7.36979 0.0504095 0)
(7.37334 0.0558692 0)
(7.33295 0.00133038 0)
(7.33316 0.00464987 0)
(7.33439 0.00790461 0)
(7.33637 0.0104251 0)
(7.33853 0.0124027 0)
(7.34072 0.0139856 0)
(7.34294 0.0151816 0)
(7.34509 0.0160705 0)
(7.34711 0.0167552 0)
(7.34902 0.0172988 0)
(7.35082 0.0177409 0)
(7.35251 0.0181155 0)
(7.3541 0.0184502 0)
(7.35559 0.0187664 0)
(7.35698 0.0190819 0)
(7.35827 0.0194127 0)
(7.35947 0.0197748 0)
(7.36057 0.0201846 0)
(7.36157 0.0206599 0)
(7.36247 0.0212214 0)
(7.36328 0.0218932 0)
(7.36398 0.0227043 0)
(7.3646 0.0236896 0)
(7.36513 0.0248906 0)
(7.36561 0.0263566 0)
(7.36608 0.0281432 0)
(7.36658 0.0303109 0)
(7.3672 0.0329166 0)
(7.36807 0.0360062 0)
(7.36933 0.0395893 0)
(7.37117 0.0436272 0)
(7.37377 0.0479764 0)
(7.37747 0.0525153 0)
(7.333 0.00132431 0)
(7.33331 0.00429796 0)
(7.33442 0.00721166 0)
(7.33618 0.00957907 0)
(7.33816 0.0114667 0)
(7.34021 0.0129949 0)
(7.34229 0.0141842 0)
(7.34434 0.0150929 0)
(7.34629 0.0158051 0)
(7.34814 0.0163797 0)
(7.3499 0.0168549 0)
(7.35156 0.0172627 0)
(7.35313 0.0176303 0)
(7.35461 0.0179795 0)
(7.356 0.0183285 0)
(7.35732 0.0186941 0)
(7.35855 0.0190926 0)
(7.3597 0.0195407 0)
(7.36076 0.0200562 0)
(7.36176 0.0206591 0)
(7.36267 0.0213724 0)
(7.36352 0.0222227 0)
(7.36431 0.0232408 0)
(7.36506 0.0244621 0)
(7.3658 0.0259262 0)
(7.36656 0.0276752 0)
(7.36741 0.0297506 0)
(7.36842 0.0321865 0)
(7.36969 0.0350016 0)
(7.37135 0.038184 0)
(7.37354 0.0416793 0)
(7.37636 0.0453639 0)
(7.3801 0.0491446 0)
(7.33302 0.00127201 0)
(7.33339 0.00395936 0)
(7.3344 0.00657908 0)
(7.33597 0.00878689 0)
(7.33779 0.0105784 0)
(7.3397 0.0120432 0)
(7.34166 0.0132117 0)
(7.3436 0.0141283 0)
(7.34548 0.0148595 0)
(7.34728 0.015458 0)
(7.349 0.0159602 0)
(7.35064 0.0163961 0)
(7.35219 0.016792 0)
(7.35367 0.0171694 0)
(7.35508 0.0175469 0)
(7.35641 0.0179413 0)
(7.35767 0.018369 0)
(7.35886 0.0188467 0)
(7.35999 0.0193917 0)
(7.36106 0.0200231 0)
(7.36207 0.020762 0)
(7.36304 0.0216322 0)
(7.36397 0.0226601 0)
(7.3649 0.0238745 0)
(7.36585 0.0253061 0)
(7.36686 0.0269849 0)
(7.36798 0.028937 0)
(7.36928 0.0311795 0)
(7.37086 0.0337131 0)
(7.37279 0.0365131 0)
(7.3752 0.0395213 0)
(7.37813 0.0426316 0)
(7.38184 0.0457746 0)
(7.33303 0.00119557 0)
(7.33341 0.00363503 0)
(7.33434 0.00599728 0)
(7.33576 0.00804142 0)
(7.33742 0.0097314 0)
(7.3392 0.0111286 0)
(7.34104 0.0122659 0)
(7.34289 0.0131786 0)
(7.3447 0.013919 0)
(7.34645 0.0145332 0)
(7.34813 0.0150554 0)
(7.34975 0.0155137 0)
(7.3513 0.0159326 0)
(7.35278 0.0163333 0)
(7.35419 0.016734 0)
(7.35555 0.0171515 0)
(7.35684 0.0176018 0)
(7.35807 0.0181011 0)
(7.35926 0.0186661 0)
(7.36039 0.0193142 0)
(7.3615 0.0200646 0)
(7.36257 0.0209378 0)
(7.36364 0.0219556 0)
(7.36472 0.0231407 0)
(7.36585 0.0245154 0)
(7.36706 0.0260996 0)
(7.3684 0.0279076 0)
(7.36994 0.0299439 0)
(7.37173 0.0321979 0)
(7.37386 0.0346385 0)
(7.3764 0.0372094 0)
(7.37938 0.0398203 0)
(7.383 0.0424199 0)
(7.33304 0.0011078 0)
(7.33341 0.00332357 0)
(7.33427 0.00545702 0)
(7.33555 0.00733913 0)
(7.33708 0.00892392 0)
(7.33874 0.0102495 0)
(7.34048 0.0113464 0)
(7.34223 0.0122442 0)
(7.34397 0.0129842 0)
(7.34567 0.013606 0)
(7.34732 0.0141409 0)
(7.34891 0.014615 0)
(7.35045 0.0150511 0)
(7.35193 0.0154695 0)
(7.35336 0.0158878 0)
(7.35473 0.0163222 0)
(7.35605 0.0167883 0)
(7.35733 0.0173014 0)
(7.35857 0.017877 0)
(7.35978 0.0185309 0)
(7.36096 0.0192798 0)
(7.36214 0.0201409 0)
(7.36333 0.0211316 0)
(7.36455 0.0222688 0)
(7.36583 0.0235678 0)
(7.36721 0.0250401 0)
(7.36873 0.026691 0)
(7.37044 0.0285164 0)
(7.37239 0.0304992 0)
(7.37465 0.0326057 0)
(7.37726 0.0347842 0)
(7.38024 0.0369586 0)
(7.38377 0.0390911 0)
(7.33304 0.00101584 0)
(7.3334 0.00302457 0)
(7.33419 0.00495183 0)
(7.33536 0.00667649 0)
(7.33677 0.00815312 0)
(7.33832 0.0094029 0)
(7.33995 0.0104519 0)
(7.34162 0.0113252 0)
(7.34329 0.0120557 0)
(7.34494 0.012677 0)
(7.34655 0.0132173 0)
(7.34813 0.0137004 0)
(7.34965 0.0141474 0)
(7.35113 0.0145774 0)
(7.35257 0.0150071 0)
(7.35396 0.015452 0)
(7.35532 0.0159267 0)
(7.35664 0.0164456 0)
(7.35793 0.0170227 0)
(7.3592 0.0176719 0)
(7.36047 0.0184074 0)
(7.36174 0.0192431 0)
(7.36303 0.0201923 0)
(7.36437 0.0212668 0)
(7.36579 0.0224758 0)
(7.3673 0.0238245 0)
(7.36896 0.0253116 0)
(7.37081 0.0269273 0)
(7.37288 0.0286511 0)
(7.37522 0.0304496 0)
(7.37786 0.0322764 0)
(7.38081 0.0340682 0)
(7.38422 0.0357967 0)
(7.33304 0.00092361 0)
(7.33338 0.00273795 0)
(7.33411 0.00447652 0)
(7.33519 0.00604928 0)
(7.33649 0.00741574 0)
(7.33794 0.00858587 0)
(7.33948 0.00958047 0)
(7.34107 0.0104208 0)
(7.34268 0.0111334 0)
(7.34428 0.0117464 0)
(7.34585 0.0122848 0)
(7.3474 0.01277 0)
(7.34892 0.0132215 0)
(7.3504 0.0136567 0)
(7.35184 0.0140913 0)
(7.35325 0.01454 0)
(7.35464 0.0150162 0)
(7.356 0.0155328 0)
(7.35734 0.0161025 0)
(7.35867 0.0167372 0)
(7.36001 0.0174485 0)
(7.36136 0.0182473 0)
(7.36275 0.0191429 0)
(7.3642 0.020143 0)
(7.36572 0.021252 0)
(7.36735 0.02247 0)
(7.36912 0.0237913 0)
(7.37106 0.0252026 0)
(7.37321 0.0266822 0)
(7.37559 0.0281984 0)
(7.37823 0.0297106 0)
(7.38113 0.0311661 0)
(7.38442 0.0325438 0)
(7.33303 0.00083319 0)
(7.33336 0.00246344 0)
(7.33404 0.00402676 0)
(7.33503 0.00545326 0)
(7.33624 0.00670844 0)
(7.3376 0.00779543 0)
(7.33905 0.00873 0)
(7.34057 0.00952995 0)
(7.34212 0.0102168 0)
(7.34367 0.010814 0)
(7.34521 0.0113433 0)
(7.34674 0.0118238 0)
(7.34824 0.012273 0)
(7.34972 0.012707 0)
(7.35117 0.0131401 0)
(7.3526 0.0135857 0)
(7.35401 0.0140561 0)
(7.35541 0.0145629 0)
(7.3568 0.0151168 0)
(7.35819 0.0157279 0)
(7.35959 0.0164055 0)
(7.36102 0.0171574 0)
(7.36248 0.0179899 0)
(7.36401 0.018907 0)
(7.36563 0.0199092 0)
(7.36735 0.0209932 0)
(7.3692 0.0221503 0)
(7.37121 0.0233655 0)
(7.3734 0.024617 0)
(7.3758 0.0258759 0)
(7.37842 0.027107 0)
(7.38125 0.0282664 0)
(7.3844 0.0293384 0)
(7.33303 0.000745527 0)
(7.33334 0.00220045 0)
(7.33397 0.00359896 0)
(7.33489 0.0048844 0)
(7.33602 0.00602787 0)
(7.33729 0.0070286 0)
(7.33867 0.00789811 0)
(7.34013 0.00865102 0)
(7.34162 0.00930491 0)
(7.34312 0.0098791 0)
(7.34463 0.0103922 0)
(7.34614 0.0108613 0)
(7.34763 0.0113018 0)
(7.3491 0.011728 0)
(7.35056 0.0121531 0)
(7.35201 0.012589 0)
(7.35344 0.0130466 0)
(7.35487 0.013536 0)
(7.3563 0.0140664 0)
(7.35774 0.014646 0)
(7.3592 0.0152815 0)
(7.36069 0.0159786 0)
(7.36223 0.0167406 0)
(7.36383 0.0175686 0)
(7.36551 0.0184604 0)
(7.36729 0.0194102 0)
(7.3692 0.0204074 0)
(7.37125 0.0214366 0)
(7.37347 0.0224769 0)
(7.37585 0.0235022 0)
(7.37843 0.0244824 0)
(7.38118 0.0253811 0)
(7.38421 0.0261864 0)
(7.33303 0.000660938 0)
(7.33332 0.00194815 0)
(7.3339 0.00319008 0)
(7.33476 0.00433901 0)
(7.33582 0.00537069 0)
(7.33702 0.00628241 0)
(7.33834 0.0070823 0)
(7.33973 0.00778219 0)
(7.34117 0.00839635 0)
(7.34263 0.00894069 0)
(7.34411 0.00943096 0)
(7.3456 0.00988191 0)
(7.34708 0.0103072 0)
(7.34855 0.0107193 0)
(7.35001 0.01113 0)
(7.35147 0.0115496 0)
(7.35293 0.0119879 0)
(7.35439 0.0124532 0)
(7.35585 0.0129531 0)
(7.35733 0.013494 0)
(7.35884 0.0140807 0)
(7.36038 0.0147166 0)
(7.36197 0.0154027 0)
(7.36363 0.016138 0)
(7.36536 0.0169183 0)
(7.36719 0.017736 0)
(7.36914 0.0185799 0)
(7.37121 0.0194344 0)
(7.37342 0.0202804 0)
(7.37578 0.0210947 0)
(7.3783 0.0218515 0)
(7.38096 0.0225208 0)
(7.38385 0.0230933 0)
(7.33303 0.000579388 0)
(7.3333 0.00170555 0)
(7.33385 0.00279744 0)
(7.33465 0.00381365 0)
(7.33564 0.00473365 0)
(7.33679 0.00555388 0)
(7.33804 0.00628001 0)
(7.33937 0.00692139 0)
(7.34077 0.00748959 0)
(7.3422 0.00799758 0)
(7.34365 0.00845852 0)
(7.34511 0.00888497 0)
(7.34658 0.00928867 0)
(7.34805 0.00968055 0)
(7.34952 0.0100706 0)
(7.35099 0.0104679 0)
(7.35247 0.0108806 0)
(7.35395 0.0113156 0)
(7.35544 0.0117789 0)
(7.35696 0.0122752 0)
(7.3585 0.0128077 0)
(7.36009 0.0133776 0)
(7.36172 0.0139846 0)
(7.36342 0.0146256 0)
(7.36519 0.0152952 0)
(7.36705 0.0159849 0)
(7.36901 0.0166832 0)
(7.37108 0.0173754 0)
(7.37327 0.0180438 0)
(7.37559 0.0186682 0)
(7.37804 0.0192268 0)
(7.3806 0.0196946 0)
(7.38336 0.0200645 0)
(7.33303 0.000500652 0)
(7.33328 0.00147155 0)
(7.3338 0.00241864 0)
(7.33455 0.00330518 0)
(7.33549 0.00411357 0)
(7.33658 0.00484006 0)
(7.33778 0.00548857 0)
(7.33906 0.00606641 0)
(7.34041 0.00658285 0)
(7.34181 0.00704836 0)
(7.34323 0.00747378 0)
(7.34468 0.00786958 0)
(7.34614 0.00824569 0)
(7.3476 0.00861133 0)
(7.34908 0.00897495 0)
(7.35056 0.00934415 0)
(7.35205 0.00972557 0)
(7.35355 0.0101248 0)
(7.35507 0.0105463 0)
(7.35662 0.0109933 0)
(7.35819 0.0114672 0)
(7.35981 0.0119682 0)
(7.36147 0.0124942 0)
(7.36319 0.0130412 0)
(7.36499 0.0136027 0)
(7.36686 0.01417 0)
(7.36882 0.0147316 0)
(7.37088 0.015274 0)
(7.37303 0.0157813 0)
(7.3753 0.0162358 0)
(7.37767 0.0166191 0)
(7.38013 0.0169104 0)
(7.38276 0.0171044 0)
(7.33303 0.000424414 0)
(7.33326 0.00124502 0)
(7.33375 0.00205147 0)
(7.33447 0.00281069 0)
(7.33536 0.0035074 0)
(7.33639 0.00413801 0)
(7.33755 0.00470528 0)
(7.33879 0.00521488 0)
(7.3401 0.00567415 0)
(7.34147 0.00609143 0)
(7.34287 0.00647545 0)
(7.3443 0.00683477 0)
(7.34575 0.00717753 0)
(7.34721 0.00751133 0)
(7.34869 0.00784308 0)
(7.35017 0.00817892 0)
(7.35168 0.00852409 0)
(7.3532 0.00888283 0)
(7.35474 0.00925822 0)
(7.3563 0.00965207 0)
(7.3579 0.0100647 0)
(7.35954 0.010495 0)
(7.36122 0.0109398 0)
(7.36296 0.0113944 0)
(7.36476 0.0118518 0)
(7.36663 0.0123033 0)
(7.36858 0.0127379 0)
(7.37061 0.0131433 0)
(7.37272 0.0135052 0)
(7.37492 0.0138085 0)
(7.37721 0.0140376 0)
(7.37957 0.0141752 0)
(7.38207 0.0142175 0)
(7.33302 0.000350315 0)
(7.33325 0.00102479 0)
(7.33371 0.00169389 0)
(7.33439 0.00232747 0)
(7.33524 0.00291217 0)
(7.33624 0.0034448 0)
(7.33735 0.00392738 0)
(7.33855 0.00436432 0)
(7.33983 0.00476134 0)
(7.34117 0.00512498 0)
(7.34255 0.00546208 0)
(7.34396 0.00577942 0)
(7.3454 0.00608347 0)
(7.34686 0.00638023 0)
(7.34834 0.00667514 0)
(7.34984 0.00697291 0)
(7.35135 0.00727747 0)
(7.35288 0.00759175 0)
(7.35443 0.00791763 0)
(7.35601 0.00825576 0)
(7.35762 0.00860544 0)
(7.35927 0.00896451 0)
(7.36097 0.00932926 0)
(7.36271 0.00969432 0)
(7.36451 0.0100527 0)
(7.36637 0.0103958 0)
(7.36829 0.0107136 0)
(7.37028 0.0109946 0)
(7.37235 0.0112265 0)
(7.37448 0.0113962 0)
(7.37667 0.0114904 0)
(7.37893 0.0114952 0)
(7.38129 0.0114073 0)
(7.33302 0.000277991 0)
(7.33324 0.000809772 0)
(7.33368 0.00134399 0)
(7.33433 0.00185298 0)
(7.33514 0.00232501 0)
(7.3361 0.00275746 0)
(7.33718 0.003152 0)
(7.33835 0.00351207 0)
(7.3396 0.00384207 0)
(7.34091 0.00414699 0)
(7.34228 0.00443201 0)
(7.34368 0.00470227 0)
(7.34511 0.00496265 0)
(7.34656 0.00521764 0)
(7.34804 0.00547126 0)
(7.34954 0.00572689 0)
(7.35106 0.00598716 0)
(7.3526 0.00625387 0)
(7.35416 0.00652777 0)
(7.35575 0.00680855 0)
(7.35737 0.00709465 0)
(7.35902 0.00738321 0)
(7.36072 0.00767004 0)
(7.36246 0.00794955 0)
(7.36424 0.00821483 0)
(7.36608 0.00845767 0)
(7.36797 0.0086688 0)
(7.36992 0.008838 0)
(7.37192 0.00895443 0)
(7.37397 0.00900693 0)
(7.37608 0.00898439 0)
(7.37822 0.00887515 0)
(7.38046 0.00867699 0)
(7.33302 0.000207091 0)
(7.33323 0.000598907 0)
(7.33365 0.000999989 0)
(7.33427 0.0013848 0)
(7.33506 0.00174312 0)
(7.33598 0.00207303 0)
(7.33703 0.00237616 0)
(7.33817 0.0026553 0)
(7.3394 0.00291377 0)
(7.3407 0.00315522 0)
(7.34204 0.00338337 0)
(7.34343 0.00360186 0)
(7.34485 0.00381408 0)
(7.34631 0.00402309 0)
(7.34778 0.00423156 0)
(7.34928 0.00444159 0)
(7.35081 0.00465465 0)
(7.35235 0.00487146 0)
(7.35392 0.00509182 0)
(7.35551 0.00531458 0)
(7.35713 0.0055375 0)
(7.35878 0.00575724 0)
(7.36047 0.00596929 0)
(7.3622 0.00616802 0)
(7.36396 0.00634673 0)
(7.36577 0.00649777 0)
(7.36762 0.00661266 0)
(7.36951 0.00668233 0)
(7.37145 0.00669735 0)
(7.37343 0.0066482 0)
(7.37544 0.00652556 0)
(7.37748 0.00631981 0)
(7.37959 0.00602936 0)
(7.33302 0.000137297 0)
(7.33322 0.000391246 0)
(7.33362 0.000660264 0)
(7.33422 0.00092066 0)
(7.33498 0.00116372 0)
(7.33588 0.00138845 0)
(7.3369 0.00159674 0)
(7.33803 0.00179095 0)
(7.33924 0.00197357 0)
(7.34051 0.00214711 0)
(7.34185 0.002314 0)
(7.34323 0.00247648 0)
(7.34465 0.00263654 0)
(7.34609 0.00279592 0)
(7.34757 0.00295598 0)
(7.34907 0.00311765 0)
(7.35059 0.00328131 0)
(7.35214 0.00344669 0)
(7.35371 0.00361278 0)
(7.3553 0.00377772 0)
(7.35692 0.00393874 0)
(7.35856 0.00409215 0)
(7.36023 0.00423329 0)
(7.36194 0.00435662 0)
(7.36368 0.00445576 0)
(7.36545 0.00452362 0)
(7.36725 0.00455257 0)
(7.36909 0.00453458 0)
(7.37096 0.0044615 0)
(7.37285 0.00432521 0)
(7.37477 0.0041179 0)
(7.3767 0.00383167 0)
(7.3787 0.00346541 0)
(7.33302 6.83476e-05 0)
(7.33321 0.000185987 0)
(7.3336 0.000323362 0)
(7.33418 0.000458397 0)
(7.33492 0.000584021 0)
(7.3358 0.000700526 0)
(7.3368 0.00081033 0)
(7.33791 0.000915633 0)
(7.3391 0.00101825 0)
(7.34037 0.00111974 0)
(7.34169 0.00122135 0)
(7.34306 0.00132405 0)
(7.34448 0.00142851 0)
(7.34592 0.00153518 0)
(7.3474 0.00164424 0)
(7.3489 0.00175551 0)
(7.35042 0.00186835 0)
(7.35196 0.00198165 0)
(7.35353 0.00209363 0)
(7.35512 0.00220188 0)
(7.35672 0.00230321 0)
(7.35836 0.00239368 0)
(7.36001 0.00246861 0)
(7.36169 0.00252262 0)
(7.3634 0.00254971 0)
(7.36513 0.00254339 0)
(7.36688 0.0024968 0)
(7.36866 0.00240288 0)
(7.37045 0.00225459 0)
(7.37226 0.00204501 0)
(7.37409 0.00176764 0)
(7.37592 0.00141594 0)
(7.3778 0.000989176 0)
(7.33302 7.26932e-08 0)
(7.3332 -1.7432e-05 0)
(7.33358 -1.19079e-05 0)
(7.33414 -4.0133e-06 0)
(7.33487 1.2042e-06 0)
(7.33573 5.85249e-06 0)
(7.33672 1.3233e-05 0)
(7.33781 2.55499e-05 0)
(7.33899 4.41207e-05 0)
(7.34025 6.96864e-05 0)
(7.34157 0.000102434 0)
(7.34294 0.000142086 0)
(7.34435 0.000188064 0)
(7.3458 0.000239583 0)
(7.34727 0.000295658 0)
(7.34877 0.000355053 0)
(7.35029 0.000416228 0)
(7.35183 0.000477261 0)
(7.35339 0.000535761 0)
(7.35497 0.000588819 0)
(7.35656 0.000632942 0)
(7.35818 0.000664069 0)
(7.35981 0.000677553 0)
(7.36146 0.000668252 0)
(7.36313 0.000630568 0)
(7.36481 0.000558595 0)
(7.36651 0.000446202 0)
(7.36823 0.000287219 0)
(7.36995 7.55403e-05 0)
(7.37168 -0.000194667 0)
(7.37342 -0.00052888 0)
(7.37515 -0.000932421 0)
(7.37691 -0.00140574 0)
(7.33302 -6.75322e-05 0)
(7.33319 -0.00021916 0)
(7.33356 -0.000346323 0)
(7.33411 -0.000468421 0)
(7.33482 -0.000587674 0)
(7.33567 -0.000699301 0)
(7.33665 -0.000798735 0)
(7.33773 -0.000883649 0)
(7.33891 -0.000953121 0)
(7.34017 -0.00100712 0)
(7.34149 -0.00104645 0)
(7.34286 -0.00107255 0)
(7.34427 -0.0010872 0)
(7.34571 -0.00109235 0)
(7.34719 -0.00109007 0)
(7.34868 -0.00108263 0)
(7.3502 -0.00107242 0)
(7.35174 -0.00106212 0)
(7.35329 -0.0010547 0)
(7.35485 -0.00105351 0)
(7.35643 -0.00106227 0)
(7.35803 -0.00108515 0)
(7.35963 -0.00112671 0)
(7.36125 -0.00119184 0)
(7.36288 -0.00128574 0)
(7.36452 -0.00141378 0)
(7.36616 -0.00158142 0)
(7.36781 -0.00179407 0)
(7.36947 -0.00205699 0)
(7.37112 -0.00237514 0)
(7.37276 -0.00275313 0)
(7.37439 -0.00319534 0)
(7.37605 -0.00370207 0)
(7.33302 -0.000134171 0)
(7.33319 -0.000418615 0)
(7.33354 -0.000679979 0)
(7.33407 -0.000936416 0)
(7.33477 -0.00118574 0)
(7.33561 -0.00141919 0)
(7.33659 -0.00163051 0)
(7.33768 -0.00181716 0)
(7.33886 -0.0019785 0)
(7.34012 -0.00211528 0)
(7.34144 -0.00222949 0)
(7.34281 -0.00232392 0)
(7.34423 -0.00240162 0)
(7.34568 -0.0024657 0)
(7.34715 -0.00251928 0)
(7.34865 -0.00256547 0)
(7.35016 -0.00260745 0)
(7.35169 -0.00264848 0)
(7.35323 -0.002692 0)
(7.35479 -0.00274164 0)
(7.35635 -0.00280131 0)
(7.35792 -0.00287515 0)
(7.3595 -0.0029676 0)
(7.36108 -0.00308328 0)
(7.36267 -0.003227 0)
(7.36426 -0.00340362 0)
(7.36585 -0.00361802 0)
(7.36743 -0.00387494 0)
(7.36901 -0.00417891 0)
(7.37059 -0.00453417 0)
(7.37215 -0.00494455 0)
(7.37369 -0.0054136 0)
(7.37524 -0.0059414 0)
(7.33302 -0.000198971 0)
(7.33317 -0.000613851 0)
(7.33351 -0.00101184 0)
(7.33403 -0.00140928 0)
(7.33472 -0.00179636 0)
(7.33556 -0.00215854 0)
(7.33654 -0.00248792 0)
(7.33764 -0.00278174 0)
(7.33883 -0.00303916 0)
(7.34009 -0.00326118 0)
(7.34143 -0.00345077 0)
(7.34281 -0.00361214 0)
(7.34423 -0.00374984 0)
(7.34568 -0.00386842 0)
(7.34716 -0.0039723 0)
(7.34865 -0.00406578 0)
(7.35017 -0.00415296 0)
(7.35169 -0.00423786 0)
(7.35322 -0.00432444 0)
(7.35476 -0.00441669 0)
(7.3563 -0.00451866 0)
(7.35785 -0.00463452 0)
(7.3594 -0.00476855 0)
(7.36095 -0.00492509 0)
(7.36249 -0.00510856 0)
(7.36404 -0.00532335 0)
(7.36557 -0.00557375 0)
(7.36709 -0.0058639 0)
(7.36861 -0.00619773 0)
(7.3701 -0.00657882 0)
(7.37158 -0.00701042 0)
(7.37303 -0.00749555 0)
(7.37449 -0.00803435 0)
(7.33302 -0.0002599 0)
(7.33316 -0.000800258 0)
(7.33346 -0.00133887 0)
(7.33396 -0.00188818 0)
(7.33465 -0.0024241 0)
(7.3355 -0.00292305 0)
(7.33649 -0.00337623 0)
(7.3376 -0.00378244 0)
(7.33881 -0.00414223 0)
(7.3401 -0.00445787 0)
(7.34145 -0.00473352 0)
(7.34284 -0.00497426 0)
(7.34428 -0.00518529 0)
(7.34574 -0.00537174 0)
(7.34722 -0.00553867 0)
(7.34872 -0.00569095 0)
(7.35023 -0.0058332 0)
(7.35175 -0.00596992 0)
(7.35327 -0.00610543 0)
(7.3548 -0.00624401 0)
(7.35632 -0.0063899 0)
(7.35784 -0.00654733 0)
(7.35936 -0.00672051 0)
(7.36087 -0.00691366 0)
(7.36237 -0.00713093 0)
(7.36387 -0.00737639 0)
(7.36535 -0.00765393 0)
(7.36681 -0.00796729 0)
(7.36825 -0.00831988 0)
(7.36968 -0.00871482 0)
(7.37108 -0.0091548 0)
(7.37244 -0.0096422 0)
(7.37381 -0.0101768 0)
(7.33301 -0.000312531 0)
(7.33312 -0.000968304 0)
(7.33339 -0.00165399 0)
(7.33386 -0.00237219 0)
(7.33454 -0.00307515 0)
(7.33541 -0.00372629 0)
(7.33643 -0.00431189 0)
(7.33756 -0.00482743 0)
(7.33879 -0.00527315 0)
(7.3401 -0.00565504 0)
(7.34147 -0.00598248 0)
(7.34288 -0.00626511 0)
(7.34433 -0.00651164 0)
(7.3458 -0.00672985 0)
(7.34729 -0.00692672 0)
(7.3488 -0.00710839 0)
(7.35031 -0.00728027 0)
(7.35182 -0.00744721 0)
(7.35334 -0.00761366 0)
(7.35485 -0.00778377 0)
(7.35636 -0.00796152 0)
(7.35786 -0.00815076 0)
(7.35935 -0.00835526 0)
(7.36082 -0.0085787 0)
(7.36229 -0.00882467 0)
(7.36374 -0.00909667 0)
(7.36517 -0.00939801 0)
(7.36657 -0.00973182 0)
(7.36795 -0.010101 0)
(7.36931 -0.0105082 0)
(7.37064 -0.0109557 0)
(7.37193 -0.0114457 0)
(7.37322 -0.0119786 0)
(7.33301 -0.00034643 0)
(7.33306 -0.00110008 0)
(7.33325 -0.00194974 0)
(7.33368 -0.00285731 0)
(7.33437 -0.0037369 0)
(7.33527 -0.00455862 0)
(7.33633 -0.00532262 0)
(7.33751 -0.00602174 0)
(7.3388 -0.00664602 0)
(7.34016 -0.00719387 0)
(7.34156 -0.00767083 0)
(7.34301 -0.00808489 0)
(7.34448 -0.00844454 0)
(7.34596 -0.0087585 0)
(7.34746 -0.00903537 0)
(7.34896 -0.00928312 0)
(7.35047 -0.00950907 0)
(7.35197 -0.0097198 0)
(7.35347 -0.00992133 0)
(7.35496 -0.0101191 0)
(7.35644 -0.0103181 0)
(7.35791 -0.0105231 0)
(7.35936 -0.0107382 0)
(7.3608 -0.0109677 0)
(7.36222 -0.0112152 0)
(7.36362 -0.0114844 0)
(7.365 -0.0117784 0)
(7.36635 -0.0121003 0)
(7.36767 -0.0124527 0)
(7.36896 -0.012838 0)
(7.37021 -0.0132581 0)
(7.37143 -0.0137145 0)
(7.37263 -0.0142068 0)
(7.33299 -0.0003354 0)
(7.33293 -0.00114665 0)
(7.33299 -0.00222197 0)
(7.33337 -0.00340119 0)
(7.33406 -0.0044632 0)
(7.33497 -0.00534787 0)
(7.33603 -0.0060852 0)
(7.33723 -0.00670796 0)
(7.33854 -0.00723974 0)
(7.33994 -0.00770142 0)
(7.34138 -0.00811023 0)
(7.34287 -0.00847864 0)
(7.34438 -0.00881575 0)
(7.3459 -0.00912871 0)
(7.34743 -0.00942327 0)
(7.34896 -0.00970412 0)
(7.35048 -0.00997522 0)
(7.352 -0.0102401 0)
(7.3535 -0.0105021 0)
(7.355 -0.0107643 0)
(7.35647 -0.0110298 0)
(7.35793 -0.0113014 0)
(7.35937 -0.0115821 0)
(7.36078 -0.0118748 0)
(7.36217 -0.0121822 0)
(7.36354 -0.012507 0)
(7.36488 -0.0128518 0)
(7.36619 -0.0132189 0)
(7.36746 -0.0136105 0)
(7.3687 -0.0140287 0)
(7.3699 -0.0144753 0)
(7.37107 -0.0149522 0)
(7.37222 -0.0154599 0)
(7.33295 -0.000235236 0)
(7.33261 -0.000998474 0)
(7.3324 -0.00228712 0)
(7.33276 -0.00391222 0)
(7.33363 -0.00563367 0)
(7.33475 -0.00730066 0)
(7.33598 -0.00880016 0)
(7.33729 -0.0100696 0)
(7.33866 -0.0111074 0)
(7.34008 -0.0119436 0)
(7.34152 -0.0126117 0)
(7.34298 -0.0131423 0)
(7.34445 -0.013563 0)
(7.34593 -0.0138988 0)
(7.34742 -0.0141705 0)
(7.34891 -0.0143949 0)
(7.3504 -0.0145858 0)
(7.35188 -0.0147542 0)
(7.35336 -0.0149091 0)
(7.35482 -0.0150577 0)
(7.35627 -0.0152062 0)
(7.35771 -0.0153594 0)
(7.35913 -0.0155217 0)
(7.36052 -0.0156968 0)
(7.3619 -0.0158877 0)
(7.36324 -0.0160973 0)
(7.36456 -0.0163279 0)
(7.36585 -0.0165817 0)
(7.3671 -0.0168604 0)
(7.36832 -0.0171656 0)
(7.36949 -0.0174984 0)
(7.37062 -0.0178594 0)
(7.37173 -0.0182482 0)
(7.3329 0.000100595 0)
(7.33206 -0.000952876 0)
(7.33123 -0.00228201 0)
(7.33107 -0.00295399 0)
(7.33156 -0.00322192 0)
(7.3325 -0.00354555 0)
(7.33379 -0.00403575 0)
(7.33529 -0.00463042 0)
(7.33692 -0.00528302 0)
(7.33859 -0.00597477 0)
(7.34028 -0.00668756 0)
(7.34198 -0.00740207 0)
(7.34366 -0.00810405 0)
(7.34534 -0.00878505 0)
(7.347 -0.00944046 0)
(7.34864 -0.0100681 0)
(7.35027 -0.0106676 0)
(7.35188 -0.0112402 0)
(7.35347 -0.0117879 0)
(7.35504 -0.0123134 0)
(7.35659 -0.0128196 0)
(7.35812 -0.0133099 0)
(7.35963 -0.0137875 0)
(7.36111 -0.0142556 0)
(7.36256 -0.0147174 0)
(7.36398 -0.015176 0)
(7.36537 -0.0156342 0)
(7.36673 -0.0160947 0)
(7.36804 -0.0165601 0)
(7.36932 -0.0170326 0)
(7.37056 -0.0175145 0)
(7.37176 -0.0180074 0)
(7.37294 -0.0185127 0)
(7.33241 0.00205676 0)
(7.33045 -0.000631654 0)
(7.3303 -0.00735498 0)
(7.33138 -0.0137875 0)
(7.33237 -0.0184717 0)
(7.3331 -0.021609 0)
(7.33394 -0.0236164 0)
(7.33501 -0.0247995 0)
(7.33627 -0.0253964 0)
(7.33766 -0.0255973 0)
(7.33918 -0.0255419 0)
(7.34081 -0.0253286 0)
(7.34253 -0.0250255 0)
(7.34432 -0.0246792 0)
(7.34616 -0.0243205 0)
(7.34804 -0.0239696 0)
(7.34994 -0.0236391 0)
(7.35185 -0.0233372 0)
(7.35377 -0.0230684 0)
(7.35569 -0.0228351 0)
(7.35759 -0.0226385 0)
(7.35947 -0.0224787 0)
(7.36133 -0.0223554 0)
(7.36315 -0.0222681 0)
(7.36494 -0.0222159 0)
(7.3667 -0.0221983 0)
(7.36841 -0.0222142 0)
(7.37008 -0.0222631 0)
(7.37169 -0.0223442 0)
(7.37326 -0.0224568 0)
(7.37477 -0.0226005 0)
(7.37622 -0.0227746 0)
(7.37763 -0.0229788 0)
(7.32878 0.00627201 0)
(7.31725 0.0179229 0)
(7.3124 0.0251166 0)
(7.31393 0.0271592 0)
(7.31777 0.0258451 0)
(7.32194 0.0230335 0)
(7.32616 0.0196826 0)
(7.33039 0.0161502 0)
(7.33455 0.0126186 0)
(7.33858 0.00922601 0)
(7.34248 0.00605648 0)
(7.34627 0.00314134 0)
(7.34993 0.000482482 0)
(7.35348 -0.00193025 0)
(7.35692 -0.00411258 0)
(7.36026 -0.00608351 0)
(7.36349 -0.00786334 0)
(7.36663 -0.00947207 0)
(7.36966 -0.0109285 0)
(7.37261 -0.0122501 0)
(7.37546 -0.0134527 0)
(7.37821 -0.0145505 0)
(7.38087 -0.0155566 0)
(7.38344 -0.0164823 0)
(7.38593 -0.017338 0)
(7.38832 -0.0181329 0)
(7.39062 -0.018875 0)
(7.39283 -0.0195717 0)
(7.39496 -0.0202292 0)
(7.39699 -0.0208532 0)
(7.39895 -0.0214486 0)
(7.40081 -0.0220186 0)
(7.40263 -0.0225676 0)
(7.33379 -0.0333007 0)
(7.333 -0.0723168 0)
(7.32811 -0.0856874 0)
(7.32654 -0.0871116 0)
(7.33008 -0.0847036 0)
(7.33728 -0.0807185 0)
(7.3462 -0.0758576 0)
(7.35565 -0.0707758 0)
(7.36509 -0.0659288 0)
(7.37428 -0.0614894 0)
(7.38304 -0.0574864 0)
(7.39129 -0.0539112 0)
(7.39899 -0.0507423 0)
(7.40615 -0.0479472 0)
(7.41277 -0.0454875 0)
(7.41888 -0.0433255 0)
(7.42452 -0.0414268 0)
(7.42971 -0.0397601 0)
(7.43447 -0.0382979 0)
(7.43885 -0.037016 0)
(7.44286 -0.0358933 0)
(7.44654 -0.0349115 0)
(7.44991 -0.0340549 0)
(7.45298 -0.0333096 0)
(7.45579 -0.0326639 0)
(7.45834 -0.0321073 0)
(7.46066 -0.0316309 0)
(7.46277 -0.0312268 0)
(7.46467 -0.0308879 0)
(7.46638 -0.0306081 0)
(7.46791 -0.0303819 0)
(7.46926 -0.0302049 0)
(7.4705 -0.0300706 0)
(7.33141 0.164997 0)
(7.34786 0.185183 0)
(7.36035 0.152156 0)
(7.35679 0.118075 0)
(7.34271 0.0898641 0)
(7.32393 0.0674779 0)
(7.3026 0.0499914 0)
(7.27954 0.0362739 0)
(7.25554 0.0253523 0)
(7.23124 0.0165397 0)
(7.20703 0.0093618 0)
(7.18309 0.00346925 0)