/*--------------------------------*- C++ -*----------------------------------*\
  =========                 |
  \\      /  F ield         | OpenFOAM: The Open Source CFD Toolbox
   \\    /   O peration     | Website:  https://openfoam.org
    \\  /    A nd           | Version:  10
     \\/     M anipulation  |
\*---------------------------------------------------------------------------*/
FoamFile
{
    format      ascii;
    class       volScalarField;
    location    "800";
    object      yPlus;
}
// * * * * * * * * * * * * * * * * * * * * * * * * * * * * * * * * * * * * * //

dimensions      [0 0 0 0 0 0 0];

internalField   uniform 0;

boundaryField
{
    outlet
    {
        type            calculated;
        value           uniform 0;
    }
    inlet
    {
        type            calculated;
        value           uniform 0;
    }
    lowerWall
    {
        type            calculated;
        value           nonuniform List<scalar> 
148
(
9.9937
9.87583
9.76655
9.65577
9.54325
9.43227
9.32599
9.22676
9.13585
9.05377
8.9806
8.91603
8.85959
8.81074
8.76884
8.73332
8.7036
8.67909
8.65931
8.64376
8.63203
8.62372
8.61846
8.61593
8.61587
8.61808
8.62234
8.62821
8.63499
8.6622
8.57586
8.89686
8.2431
5.91434
8.5568
9.92119
10.6241
11.5865
12.1863
12.4939
12.5525
12.5996
11.7572
11.604
11.6308
11.6041
13.0305
16.412
5.91434
12.9206
13.3263
13.4321
13.2925
13.0212
12.7446
12.5513
12.5327
13.1685
15.7774
20.0037
24.2011
28.0725
31.6184
34.8745
37.878
40.6618
43.2537
45.6761
47.9475
50.0836
52.0984
54.0041
55.8116
57.5308
59.1699
60.7356
62.2329
63.6654
65.0356
66.345
67.5949
68.7859
69.9186
70.9955
72.0218
73.0056
73.9515
74.849
75.7043
76.519
77.293
78.0247
78.7109
79.3466
79.925
80.4371
80.8721
81.2173
81.4585
81.5812
81.5708
81.414
81.1009
80.6259
79.9904
79.2033
78.2814
77.2489
76.1377
74.9863
73.8337
72.716
71.6699
70.7488
70.0117
69.435
69.0058
68.7201
68.5716
68.5466
68.6234
68.7728
68.9621
69.1573
69.3271
69.4439
69.4864
69.439
69.2926
69.0437
68.6932
68.246
67.7096
67.0939
66.4104
65.6714
64.8907
64.0824
63.2612
62.4422
61.6402
60.8696
60.1447
59.4816
58.8997
58.4301
58.057
57.9571
)
;
    }
    upperWall
    {
        type            calculated;
        value           nonuniform List<scalar> 
133
(
30.6045
31.4255
32.2163
32.972
33.693
34.3806
35.0365
35.6619
36.2579
36.8255
37.3659
37.8801
38.3691
38.834
39.2758
39.6954
40.0939
40.4722
40.8311
41.1717
41.4948
41.8012
42.0917
42.3671
42.6282
42.8756
43.1102
43.3324
43.543
43.7425
43.9316
44.1107
44.2806
44.4673
44.6716
44.8691
45.0597
45.2431
45.4192
45.5879
45.749
45.9024
46.0481
46.1857
46.3153
46.4367
46.5498
46.6544
46.7504
46.8377
46.9161
46.9856
47.0459
47.0968
47.1383
47.17
47.192
47.2039
47.2055
47.1967
47.1772
47.1467
47.1051
47.0521
46.9873
46.9106
46.8217
46.7203
46.6061
46.479
46.3387
46.185
46.0177
45.8367
45.6421
45.4337
45.2117
44.9763
44.7277
44.4664
44.1929
43.9079
43.6124
43.3074
42.9942
42.6742
42.3492
42.0208
41.6912
41.3625
41.0367
40.7163
40.4033
40.0998
39.808
39.5294
39.2656
39.0179
38.7871
38.574
38.3787
38.2011
38.0411
37.8981
37.7711
37.6594
37.5617
37.4767
37.4031
37.3393
37.2838
37.2348
37.1908
37.15
37.1107
37.0715
37.0307
36.9871
36.9395
36.887
36.8287
36.7641
36.6929
36.615
36.5304
36.4393
36.3421
36.2392
36.1307
36.019
35.8974
35.795
35.5969
)
;
    }
    frontAndBack
    {
        type            empty;
    }
}


// ************************************************************************* //
