/*--------------------------------*- C++ -*----------------------------------*\
  =========                 |
  \\      /  F ield         | OpenFOAM: The Open Source CFD Toolbox
   \\    /   O peration     | Website:  https://openfoam.org
    \\  /    A nd           | Version:  10
     \\/     M anipulation  |
\*---------------------------------------------------------------------------*/
FoamFile
{
    format      ascii;
    class       volScalarField;
    location    "0.06";
    object      nut;
}
// * * * * * * * * * * * * * * * * * * * * * * * * * * * * * * * * * * * * * //

dimensions      [0 2 -1 0 0 0 0];

internalField   nonuniform List<scalar> 
6820
(
0.000503209
0.000397075
0.00032451
0.000269361
0.000236484
0.000214086
0.000197454
0.00018472
0.00017442
0.000165761
0.000158293
0.000151723
0.000145854
0.000140548
0.000135704
0.000131243
0.000127108
0.000123251
0.000119634
0.000116226
0.000112999
0.000109932
0.000107002
0.000104189
0.000101474
9.88366e-05
9.62539e-05
9.37027e-05
9.11431e-05
8.85612e-05
8.58464e-05
8.29597e-05
7.96819e-05
8.18503e-05
0.000143722
0.000196413
0.000210832
0.000206409
0.000197554
0.000187298
0.0001774
0.000168447
0.000160423
0.000153227
0.00014674
0.000140854
0.00013548
0.000130545
0.000125989
0.000121763
0.000117824
0.000114139
0.000110678
0.000107415
0.00010433
0.000101405
9.86252e-05
9.59771e-05
9.34505e-05
9.10381e-05
8.87319e-05
8.65437e-05
8.44491e-05
8.2598e-05
8.07886e-05
8.04123e-05
3.85905e-05
2.73951e-05
4.30413e-05
7.44547e-05
9.58608e-05
0.000109223
0.000116474
0.000119779
0.000120714
0.000120183
0.000118745
0.00011675
0.000114418
0.000111895
0.000109272
0.000106612
0.000103953
0.000101325
9.87441e-05
9.62225e-05
9.37675e-05
9.13839e-05
8.90746e-05
8.68416e-05
8.46869e-05
8.26132e-05
8.06243e-05
7.87291e-05
7.69389e-05
7.5287e-05
7.38069e-05
7.26205e-05
7.18959e-05
1.99675e-05
2.35302e-05
2.20739e-05
1.27959e-05
2.91898e-06
1.24042e-05
2.29224e-05
3.15763e-05
3.85495e-05
4.40947e-05
4.84529e-05
5.18378e-05
5.44232e-05
5.6347e-05
5.7729e-05
5.86673e-05
5.92423e-05
5.95203e-05
5.95561e-05
5.93951e-05
5.9075e-05
5.86278e-05
5.80806e-05
5.74571e-05
5.6779e-05
5.60664e-05
5.534e-05
5.46223e-05
5.39412e-05
5.33312e-05
5.28412e-05
5.25297e-05
5.24786e-05
1.32442e-05
1.50862e-05
1.99357e-05
2.20293e-05
2.14766e-05
1.95325e-05
1.69053e-05
1.39619e-05
1.0918e-05
7.90212e-06
4.99806e-06
2.28104e-06
6.84939e-07
2.78186e-06
4.8966e-06
6.81649e-06
8.53751e-06
1.00683e-05
1.14215e-05
1.26112e-05
1.36523e-05
1.45599e-05
1.53495e-05
1.60365e-05
1.66372e-05
1.71685e-05
1.7649e-05
1.81002e-05
1.85458e-05
1.90169e-05
1.95387e-05
2.01493e-05
2.08196e-05
1.01901e-05
1.1027e-05
1.18554e-05
1.26562e-05
1.32909e-05
1.38331e-05
1.42281e-05
1.44414e-05
1.44854e-05
1.43818e-05
1.41523e-05
1.38197e-05
1.34053e-05
1.29235e-05
1.2393e-05
1.18292e-05
1.12453e-05
1.06522e-05
1.00583e-05
9.47023e-06
8.8925e-06
8.32796e-06
7.77784e-06
7.24186e-06
6.71817e-06
6.2035e-06
5.69283e-06
5.18079e-06
4.66086e-06
4.13599e-06
3.61863e-06
3.19671e-06
3.00637e-06
7.53389e-06
8.25943e-06
8.68876e-06
8.92539e-06
8.82354e-06
8.62158e-06
8.46297e-06
8.37876e-06
8.36222e-06
8.38867e-06
8.43105e-06
8.47064e-06
8.4979e-06
8.51073e-06
8.50592e-06
8.48213e-06
8.43948e-06
8.37885e-06
8.30142e-06
8.20849e-06
8.10134e-06
7.98109e-06
7.84863e-06
7.70462e-06
7.5494e-06
7.38326e-06
7.20637e-06
7.02047e-06
6.82838e-06
6.6432e-06
6.48158e-06
6.40917e-06
6.47109e-06
5.7505e-06
6.62165e-06
7.02481e-06
7.13893e-06
6.88876e-06
6.52946e-06
6.20223e-06
5.93157e-06
5.7159e-06
5.54593e-06
5.40951e-06
5.29694e-06
5.20103e-06
5.11643e-06
5.0396e-06
4.96806e-06
4.89974e-06
4.83287e-06
4.76603e-06
4.69807e-06
4.62803e-06
4.55516e-06
4.47879e-06
4.39846e-06
4.31391e-06
4.22548e-06
4.13439e-06
4.04442e-06
3.96217e-06
3.90422e-06
3.89168e-06
3.9768e-06
4.18836e-06
4.47552e-06
5.25941e-06
5.56395e-06
5.72043e-06
5.6405e-06
5.43455e-06
5.19346e-06
4.95167e-06
4.72855e-06
4.53202e-06
4.36038e-06
4.20928e-06
4.07469e-06
3.95333e-06
3.8425e-06
3.74002e-06
3.64413e-06
3.55345e-06
3.46685e-06
3.38342e-06
3.30238e-06
3.22307e-06
3.14501e-06
3.06803e-06
2.99238e-06
2.91921e-06
2.85103e-06
2.79313e-06
2.75399e-06
2.74964e-06
2.79859e-06
2.93341e-06
3.16827e-06
3.54552e-06
4.2498e-06
4.53969e-06
4.70673e-06
4.67515e-06
4.51658e-06
4.31907e-06
4.12155e-06
3.94062e-06
3.78094e-06
3.63999e-06
3.51396e-06
3.39983e-06
3.29522e-06
3.19827e-06
3.10764e-06
3.02232e-06
2.94148e-06
2.86443e-06
2.7906e-06
2.71955e-06
2.65101e-06
2.58496e-06
2.52177e-06
2.4624e-06
2.40882e-06
2.36438e-06
2.33486e-06
2.32834e-06
2.35743e-06
2.43455e-06
2.57673e-06
2.79032e-06
2.85423e-06
3.47231e-06
3.74387e-06
3.89929e-06
3.90373e-06
3.80236e-06
3.65958e-06
3.50577e-06
3.35554e-06
3.21616e-06
3.08924e-06
2.9741e-06
2.86952e-06
2.77411e-06
2.68654e-06
2.60564e-06
2.53044e-06
2.46008e-06
2.39392e-06
2.33149e-06
2.27249e-06
2.21689e-06
2.16498e-06
2.1175e-06
2.07583e-06
2.04229e-06
2.02041e-06
2.01537e-06
2.03372e-06
2.08398e-06
2.1733e-06
2.30915e-06
2.49491e-06
2.32689e-06
2.86447e-06
3.1337e-06
3.29396e-06
3.33086e-06
3.26842e-06
3.15627e-06
3.02516e-06
2.89235e-06
2.76707e-06
2.65231e-06
2.5481e-06
2.45355e-06
2.36751e-06
2.28883e-06
2.21652e-06
2.14976e-06
2.08791e-06
2.03051e-06
1.97727e-06
1.92812e-06
1.8832e-06
1.84304e-06
1.80856e-06
1.78129e-06
1.76349e-06
1.75826e-06
1.76964e-06
1.80219e-06
1.86088e-06
1.94925e-06
2.06905e-06
2.22288e-06
1.91487e-06
2.38416e-06
2.65448e-06
2.81813e-06
2.87521e-06
2.84292e-06
2.76079e-06
2.65662e-06
2.54613e-06
2.43801e-06
2.336e-06
2.2413e-06
2.15413e-06
2.0742e-06
2.00099e-06
1.93394e-06
1.87253e-06
1.81635e-06
1.76506e-06
1.7185e-06
1.67671e-06
1.63996e-06
1.60882e-06
1.58425e-06
1.56766e-06
1.56096e-06
1.5665e-06
1.58707e-06
1.62537e-06
1.68388e-06
1.76383e-06
1.86396e-06
1.98719e-06
1.58539e-06
1.99938e-06
2.27222e-06
2.44321e-06
2.51915e-06
2.51336e-06
2.45624e-06
2.37247e-06
2.27756e-06
2.18098e-06
2.08776e-06
2.00019e-06
1.91919e-06
1.84488e-06
1.77703e-06
1.71525e-06
1.65915e-06
1.60841e-06
1.5628e-06
1.52226e-06
1.48689e-06
1.45699e-06
1.43315e-06
1.41618e-06
1.40723e-06
1.4077e-06
1.41917e-06
1.44326e-06
1.48134e-06
1.53419e-06
1.60183e-06
1.68168e-06
1.77707e-06
1.31601e-06
1.68775e-06
1.96375e-06
2.14345e-06
2.23452e-06
2.24927e-06
2.2125e-06
2.14669e-06
2.06694e-06
1.98268e-06
1.89926e-06
1.81948e-06
1.7447e-06
1.67551e-06
1.61203e-06
1.55418e-06
1.50183e-06
1.45483e-06
1.41309e-06
1.37664e-06
1.34562e-06
1.32031e-06
1.30118e-06
1.28885e-06
1.28412e-06
1.28787e-06
1.30098e-06
1.32421e-06
1.35796e-06
1.40209e-06
1.45598e-06
1.5166e-06
1.58753e-06
1.09111e-06
1.4327e-06
1.71227e-06
1.90152e-06
2.00634e-06
2.03908e-06
2.02047e-06
1.97056e-06
1.90373e-06
1.82939e-06
1.7534e-06
1.6792e-06
1.60877e-06
1.54313e-06
1.48277e-06
1.42783e-06
1.37833e-06
1.33422e-06
1.29548e-06
1.26213e-06
1.23428e-06
1.21213e-06
1.19599e-06
1.18625e-06
1.18336e-06
1.18774e-06
1.19973e-06
1.21947e-06
1.24679e-06
1.28101e-06
1.3213e-06
1.36459e-06
1.41461e-06
8.99594e-07
1.22218e-06
1.50615e-06
1.7052e-06
1.82246e-06
1.87042e-06
1.86715e-06
1.8308e-06
1.77522e-06
1.70986e-06
1.64087e-06
1.57213e-06
1.50594e-06
1.44366e-06
1.38599e-06
1.33329e-06
1.28573e-06
1.24338e-06
1.20626e-06
1.17444e-06
1.14797e-06
1.12699e-06
1.11165e-06
1.10211e-06
1.09854e-06
1.101e-06
1.10947e-06
1.12369e-06
1.14317e-06
1.167e-06
1.19434e-06
1.22231e-06
1.25458e-06
7.3352e-07
1.04753e-06
1.3371e-06
1.54574e-06
1.67445e-06
1.73582e-06
1.74615e-06
1.722e-06
1.67655e-06
1.61916e-06
1.55618e-06
1.49181e-06
1.42877e-06
1.36871e-06
1.31263e-06
1.26109e-06
1.21442e-06
1.17275e-06
1.13617e-06
1.10471e-06
1.0784e-06
1.05724e-06
1.04125e-06
1.03041e-06
1.02462e-06
1.02374e-06
1.02746e-06
1.03531e-06
1.04667e-06
1.06054e-06
1.07615e-06
1.09094e-06
1.10839e-06
5.87344e-07
9.029e-07
1.19938e-06
1.41713e-06
1.55632e-06
1.62947e-06
1.65167e-06
1.63812e-06
1.60139e-06
1.55078e-06
1.49282e-06
1.43201e-06
1.37135e-06
1.31276e-06
1.25747e-06
1.2062e-06
1.15937e-06
1.11723e-06
1.07987e-06
1.04734e-06
1.01961e-06
9.96632e-07
9.78298e-07
9.64456e-07
9.54882e-07
9.4926e-07
9.47165e-07
9.4803e-07
9.51177e-07
9.55671e-07
9.60853e-07
9.64494e-07
9.69768e-07
4.57749e-07
7.84907e-07
1.08925e-06
1.31533e-06
1.464e-06
1.54762e-06
1.58035e-06
1.57631e-06
1.54752e-06
1.50311e-06
1.44973e-06
1.39209e-06
1.33342e-06
1.27588e-06
1.22088e-06
1.1693e-06
1.12169e-06
1.07835e-06
1.03941e-06
1.00492e-06
9.74833e-07
9.49031e-07
9.27344e-07
9.09534e-07
8.95291e-07
8.84222e-07
8.75849e-07
8.69586e-07
8.64786e-07
8.60604e-07
8.56502e-07
8.50576e-07
8.45704e-07
3.44496e-07
6.92543e-07
1.00458e-06
1.23777e-06
1.39472e-06
1.48743e-06
1.52922e-06
1.53326e-06
1.511e-06
1.47143e-06
1.42128e-06
1.36543e-06
1.30735e-06
1.24943e-06
1.19327e-06
1.13992e-06
1.09002e-06
1.04396e-06
1.00193e-06
9.6398e-07
9.30057e-07
9.00031e-07
8.73699e-07
8.50791e-07
8.30969e-07
8.13827e-07
7.98895e-07
7.85625e-07
7.73441e-07
7.61618e-07
7.49722e-07
7.36196e-07
7.23467e-07
2.53834e-07
6.27075e-07
9.4463e-07
1.18327e-06
1.3473e-06
1.44805e-06
1.49804e-06
1.50961e-06
1.49368e-06
1.45904e-06
1.41242e-06
1.35882e-06
1.30185e-06
1.24405e-06
1.18715e-06
1.1323e-06
1.08025e-06
1.03145e-06
9.86117e-07
9.44347e-07
9.06104e-07
8.71267e-07
8.39642e-07
8.10974e-07
7.84949e-07
7.61199e-07
7.39309e-07
7.18814e-07
6.99232e-07
6.79977e-07
6.60721e-07
6.40178e-07
6.20476e-07
2.06168e-07
5.91382e-07
9.09509e-07
1.1512e-06
1.32053e-06
1.42756e-06
1.48382e-06
1.50083e-06
1.48899e-06
1.45691e-06
1.41137e-06
1.35752e-06
1.29916e-06
1.23903e-06
1.17904e-06
1.1205e-06
1.06425e-06
1.01082e-06
9.60514e-07
9.13438e-07
8.69589e-07
8.28869e-07
7.9111e-07
7.5609e-07
7.2354e-07
6.93155e-07
6.64598e-07
6.37501e-07
6.11492e-07
5.86122e-07
5.61145e-07
5.3559e-07
5.11084e-07
2.27613e-07
5.88673e-07
9.00399e-07
1.14272e-06
1.31633e-06
1.42941e-06
1.49235e-06
1.51581e-06
1.50963e-06
1.4821e-06
1.43985e-06
1.38802e-06
1.33047e-06
1.27e-06
1.20863e-06
1.14777e-06
1.08836e-06
1.03102e-06
9.76107e-07
9.23814e-07
8.74198e-07
8.27227e-07
7.82796e-07
7.40756e-07
7.00919e-07
6.63072e-07
6.26985e-07
5.92408e-07
5.59095e-07
5.26742e-07
4.95203e-07
4.6374e-07
4.33726e-07
3.07936e-07
6.20274e-07
9.17955e-07
1.15731e-06
1.33213e-06
1.44782e-06
1.51333e-06
1.53855e-06
1.53293e-06
1.50471e-06
1.46062e-06
1.40598e-06
1.34483e-06
1.28016e-06
1.21411e-06
1.1482e-06
1.08344e-06
1.02048e-06
9.59739e-07
9.01412e-07
8.45581e-07
7.9224e-07
7.4132e-07
6.92719e-07
6.46312e-07
6.01964e-07
5.59539e-07
5.18896e-07
4.79904e-07
4.42403e-07
4.06317e-07
3.71225e-07
3.37976e-07
4.2152e-07
6.85699e-07
9.64904e-07
1.20044e-06
1.37797e-06
1.49957e-06
1.57245e-06
1.60528e-06
1.60663e-06
1.58414e-06
1.54425e-06
1.49213e-06
1.43186e-06
1.36655e-06
1.29849e-06
1.22939e-06
1.16044e-06
1.09246e-06
1.02601e-06
9.6142e-07
8.98889e-07
8.38506e-07
7.80294e-07
7.24231e-07
6.70278e-07
6.18381e-07
5.68492e-07
5.20563e-07
4.74563e-07
4.30442e-07
3.88218e-07
3.47689e-07
3.09447e-07
5.57527e-07
7.82856e-07
1.04001e-06
1.26626e-06
1.43895e-06
1.55666e-06
1.62536e-06
1.65348e-06
1.64972e-06
1.62196e-06
1.5768e-06
1.51954e-06
1.45431e-06
1.3842e-06
1.31147e-06
1.23775e-06
1.1642e-06
1.09159e-06
1.02044e-06
9.5109e-07
8.83735e-07
8.18493e-07
7.55424e-07
6.94562e-07
6.35927e-07
5.7954e-07
5.25435e-07
4.73657e-07
4.2427e-07
3.77351e-07
3.32995e-07
2.91311e-07
2.52425e-07
7.14821e-07
9.12542e-07
1.15221e-06
1.37667e-06
1.55697e-06
1.68708e-06
1.76977e-06
1.81116e-06
1.81843e-06
1.79868e-06
1.75833e-06
1.70288e-06
1.63683e-06
1.56375e-06
1.4864e-06
1.40685e-06
1.32661e-06
1.24678e-06
1.1681e-06
1.09111e-06
1.01615e-06
9.43437e-07
8.73133e-07
8.05347e-07
7.40171e-07
6.77696e-07
6.18024e-07
5.61273e-07
5.07587e-07
4.57124e-07
4.10074e-07
3.66662e-07
3.26885e-07
8.97068e-07
1.07454e-06
1.29092e-06
1.4961e-06
1.6575e-06
1.76859e-06
1.83349e-06
1.85981e-06
1.85544e-06
1.82744e-06
1.78175e-06
1.72315e-06
1.65546e-06
1.58161e-06
1.50388e-06
1.424e-06
1.3433e-06
1.26275e-06
1.18312e-06
1.10495e-06
1.02867e-06
9.54598e-07
8.83006e-07
8.14109e-07
7.48108e-07
6.85196e-07
6.25576e-07
5.69457e-07
5.17066e-07
4.68641e-07
4.24417e-07
3.84742e-07
3.49219e-07
1.11058e-06
1.27933e-06
1.49484e-06
1.72032e-06
1.9151e-06
2.06171e-06
2.15692e-06
2.20493e-06
2.21297e-06
2.18906e-06
2.14085e-06
2.07498e-06
1.9969e-06
1.91088e-06
1.82018e-06
1.72721e-06
1.63371e-06
1.54092e-06
1.44974e-06
1.36076e-06
1.27442e-06
1.19105e-06
1.11086e-06
1.03407e-06
9.60833e-07
8.91325e-07
8.25702e-07
7.6412e-07
7.06731e-07
6.53644e-07
6.0496e-07
5.6071e-07
5.20409e-07
1.36657e-06
1.52414e-06
1.69868e-06
1.86695e-06
2.00132e-06
2.09654e-06
2.1562e-06
2.18539e-06
2.18848e-06
2.1693e-06
2.13152e-06
2.07859e-06
2.01373e-06
1.93989e-06
1.85964e-06
1.7752e-06
1.68841e-06
1.60079e-06
1.51354e-06
1.4276e-06
1.34371e-06
1.26243e-06
1.18419e-06
1.10933e-06
1.03812e-06
9.70758e-07
9.07425e-07
8.48257e-07
7.93369e-07
7.42837e-07
6.96696e-07
6.55093e-07
6.16958e-07
1.67739e-06
1.85534e-06
2.09275e-06
2.36862e-06
2.61053e-06
2.78136e-06
2.87865e-06
2.91392e-06
2.90098e-06
2.85272e-06
2.77996e-06
2.69099e-06
2.59183e-06
2.48675e-06
2.37871e-06
2.26972e-06
2.16121e-06
2.05416e-06
1.94928e-06
1.8471e-06
1.74803e-06
1.65238e-06
1.56039e-06
1.47227e-06
1.38818e-06
1.30823e-06
1.23251e-06
1.16109e-06
1.09398e-06
1.03115e-06
9.72562e-07
9.18049e-07
8.66972e-07
2.0734e-06
2.20941e-06
2.28558e-06
2.36607e-06
2.46032e-06
2.56035e-06
2.65359e-06
2.72795e-06
2.77485e-06
2.7909e-06
2.77711e-06
2.73714e-06
2.67576e-06
2.59795e-06
2.50828e-06
2.41068e-06
2.30836e-06
2.20384e-06
2.09906e-06
1.99544e-06
1.89403e-06
1.79558e-06
1.70059e-06
1.60939e-06
1.52219e-06
1.43908e-06
1.36011e-06
1.28528e-06
1.21459e-06
1.14806e-06
1.08566e-06
1.02772e-06
9.72665e-07
2.57451e-06
2.8819e-06
3.30188e-06
3.72417e-06
4.00487e-06
4.1317e-06
4.15093e-06
4.10297e-06
4.01399e-06
3.901e-06
3.77405e-06
3.6386e-06
3.49774e-06
3.35353e-06
3.2076e-06
3.06139e-06
2.91626e-06
2.77348e-06
2.63414e-06
2.4992e-06
2.36936e-06
2.24518e-06
2.127e-06
2.01501e-06
1.90925e-06
1.80963e-06
1.71599e-06
1.62809e-06
1.5457e-06
1.46853e-06
1.39644e-06
1.32941e-06
1.26662e-06
3.27794e-06
3.18946e-06
2.92109e-06
2.88286e-06
3.07417e-06
3.34889e-06
3.6007e-06
3.78176e-06
3.88167e-06
3.91181e-06
3.89189e-06
3.84126e-06
3.77552e-06
3.70578e-06
3.63892e-06
3.57852e-06
3.52582e-06
3.48061e-06
3.44194e-06
3.40857e-06
3.3792e-06
3.35268e-06
3.32802e-06
3.3044e-06
3.28115e-06
3.25772e-06
3.23367e-06
3.20864e-06
3.18242e-06
3.15498e-06
3.12647e-06
3.09846e-06
3.06877e-06
4.31349e-06
5.53994e-06
6.29726e-06
6.5453e-06
6.44463e-06
6.2275e-06
6.08436e-06
6.09884e-06
6.27756e-06
6.58171e-06
6.95764e-06
7.35797e-06
7.74817e-06
8.10604e-06
8.41919e-06
8.68225e-06
8.89447e-06
9.0579e-06
9.17619e-06
9.25371e-06
9.2951e-06
9.30489e-06
9.2873e-06
9.24613e-06
9.18474e-06
9.10593e-06
9.01208e-06
8.90493e-06
8.78613e-06
8.65631e-06
8.51745e-06
8.37036e-06
8.21817e-06
5.63931e-06
3.58222e-06
2.75956e-06
4.61986e-06
7.3395e-06
9.90873e-06
1.2091e-05
1.38215e-05
1.51125e-05
1.60056e-05
1.65482e-05
1.67888e-05
1.67759e-05
1.65551e-05
1.61679e-05
1.56513e-05
1.50373e-05
1.43535e-05
1.36225e-05
1.28632e-05
1.20905e-05
1.13163e-05
1.05497e-05
9.79723e-06
9.06387e-06
8.35264e-06
7.66534e-06
7.00203e-06
6.36272e-06
5.74344e-06
5.14667e-06
4.55787e-06
3.99647e-06
1.14393e-05
1.65094e-05
1.82702e-05
1.97748e-05
2.02361e-05
1.94759e-05
1.77164e-05
1.5233e-05
1.23847e-05
9.7215e-06
8.15316e-06
8.61354e-06
1.07968e-05
1.3726e-05
1.68199e-05
1.98264e-05
2.26373e-05
2.52072e-05
2.75217e-05
2.9582e-05
3.13982e-05
3.29852e-05
3.43597e-05
3.55394e-05
3.65418e-05
3.73837e-05
3.80813e-05
3.865e-05
3.91057e-05
3.94641e-05
3.97462e-05
3.99715e-05
4.01911e-05
2.48889e-05
2.86608e-05
3.90164e-05
5.34678e-05
6.77438e-05
8.16809e-05
9.45424e-05
0.000105722
0.000115173
0.000122972
0.000129226
0.000134088
0.00013773
0.000140315
0.000141997
0.000142913
0.000143186
0.000142924
0.00014222
0.000141152
0.00013979
0.000138188
0.000136396
0.000134452
0.000132392
0.00013024
0.00012802
0.000125749
0.000123443
0.000121105
0.000118753
0.000116395
0.000114247
0.000543325
0.000510571
0.00049158
0.000467862
0.0004438
0.000421418
0.000399874
0.000379236
0.000359773
0.000341506
0.000324419
0.000308501
0.000293708
0.000279977
0.00026724
0.000255421
0.000244448
0.000234246
0.000224746
0.000215883
0.000207597
0.000199832
0.00019254
0.000185674
0.000179194
0.000173065
0.00016725
0.000161724
0.000156439
0.000151401
0.000146439
0.000142124
0.000138131
7.37069e-05
6.28114e-05
4.80724e-05
3.30566e-05
2.35517e-05
2.91478e-05
4.10531e-05
5.24139e-05
6.13708e-05
6.75754e-05
7.26402e-05
7.84258e-05
8.48631e-05
9.04338e-05
9.63571e-05
8.48028e-05
6.31852e-05
5.40439e-05
4.75811e-05
4.00944e-05
3.34955e-05
2.84448e-05
2.46763e-05
2.15541e-05
1.84469e-05
1.50336e-05
1.14541e-05
8.4527e-06
6.70491e-06
6.22373e-06
8.70436e-06
1.12565e-05
1.21789e-05
1.42521e-05
1.7007e-05
2.20332e-05
2.65394e-05
2.70161e-05
2.4469e-05
2.13466e-05
1.87377e-05
1.65943e-05
1.47239e-05
1.3063e-05
1.16008e-05
1.03216e-05
9.19959e-06
8.20825e-06
7.3264e-06
6.53823e-06
5.83163e-06
5.19669e-06
4.62506e-06
4.10986e-06
3.64561e-06
3.2281e-06
2.85413e-06
2.52107e-06
2.22641e-06
1.96748e-06
1.74134e-06
1.54502e-06
1.37573e-06
1.23095e-06
1.10797e-06
1.00354e-06
9.13967e-07
8.36672e-07
7.71914e-07
7.22459e-07
6.89554e-07
6.68861e-07
6.52272e-07
6.335e-07
6.11428e-07
5.8788e-07
5.64003e-07
5.39614e-07
5.1472e-07
4.90166e-07
4.66601e-07
4.43398e-07
4.18817e-07
3.91283e-07
3.60612e-07
3.28268e-07
2.96582e-07
2.67639e-07
2.42542e-07
2.21366e-07
2.03604e-07
1.88512e-07
1.75796e-07
1.64998e-07
1.56087e-07
1.48336e-07
1.42696e-07
1.3666e-07
1.3452e-07
1.25738e-07
0.000104515
8.97313e-05
6.89507e-05
5.43683e-05
4.80145e-05
5.1688e-05
6.05289e-05
6.80658e-05
7.11023e-05
7.0261e-05
6.88974e-05
6.98555e-05
7.30669e-05
7.66772e-05
8.19718e-05
8.69355e-05
7.40586e-05
5.48722e-05
4.66645e-05
4.06732e-05
3.38059e-05
2.80531e-05
2.39062e-05
2.06855e-05
1.76471e-05
1.44037e-05
1.10406e-05
7.67314e-06
3.98393e-06
5.05267e-06
9.21949e-06
1.01526e-05
1.17339e-05
1.43266e-05
1.87251e-05
2.49753e-05
2.80369e-05
2.68253e-05
2.37567e-05
2.08212e-05
1.84396e-05
1.64226e-05
1.46365e-05
1.30468e-05
1.16406e-05
1.03983e-05
9.29617e-06
8.31325e-06
7.4333e-06
6.64357e-06
5.93343e-06
5.29367e-06
4.71633e-06
4.1949e-06
3.72414e-06
3.30005e-06
2.91955e-06
2.58005e-06
2.27909e-06
2.01404e-06
1.782e-06
1.58002e-06
1.40532e-06
1.25546e-06
1.1279e-06
1.0196e-06
9.27075e-07
8.47818e-07
7.82221e-07
7.33296e-07
7.02648e-07
6.8573e-07
6.735e-07
6.58558e-07
6.38767e-07
6.15358e-07
5.89501e-07
5.61579e-07
5.32444e-07
5.03769e-07
4.76785e-07
4.51097e-07
4.24871e-07
3.96241e-07
3.64705e-07
3.31516e-07
2.98945e-07
2.69132e-07
2.43262e-07
2.21473e-07
2.03277e-07
1.87961e-07
1.75079e-07
1.64009e-07
1.5493e-07
1.47087e-07
1.41333e-07
1.35326e-07
1.33105e-07
1.24531e-07
9.70492e-05
9.61361e-05
8.68626e-05
7.76249e-05
7.26523e-05
7.16945e-05
7.17896e-05
6.96177e-05
6.4189e-05
5.73372e-05
5.25649e-05
5.18112e-05
5.38137e-05
5.7047e-05
6.09228e-05
6.86685e-05
7.30966e-05
6.19096e-05
4.65896e-05
3.94504e-05
3.45267e-05
2.86929e-05
2.3375e-05
1.92456e-05
1.5798e-05
1.23811e-05
8.57359e-06
3.69823e-06
2.62006e-06
7.65067e-06
8.49642e-06
8.88909e-06
1.16516e-05
1.54001e-05
2.24506e-05
2.79961e-05
2.86802e-05
2.60976e-05
2.29215e-05
2.02847e-05
1.81354e-05
1.62567e-05
1.45656e-05
1.30469e-05
1.16909e-05
1.04799e-05
9.39519e-06
8.4207e-06
7.54373e-06
6.7535e-06
6.0404e-06
5.39588e-06
4.81257e-06
4.28441e-06
3.80658e-06
3.37538e-06
2.98787e-06
2.64156e-06
2.334e-06
2.06255e-06
1.82431e-06
1.61634e-06
1.43591e-06
1.28064e-06
1.14811e-06
1.03535e-06
9.38898e-07
8.5618e-07
7.876e-07
7.36589e-07
7.05525e-07
6.90612e-07
6.82338e-07
6.72049e-07
6.56279e-07
6.35306e-07
6.09909e-07
5.80654e-07
5.49039e-07
5.1757e-07
4.88208e-07
4.60944e-07
4.33957e-07
4.0513e-07
3.73635e-07
3.40488e-07
3.07872e-07
2.77953e-07
2.51982e-07
2.30136e-07
2.11909e-07
1.96576e-07
1.83541e-07
1.72474e-07
1.63342e-07
1.55557e-07
1.49621e-07
1.44027e-07
1.41249e-07
1.33613e-07
7.05738e-05
7.16442e-05
6.86359e-05
6.43913e-05
6.01369e-05
5.61065e-05
5.1429e-05
4.50991e-05
3.76214e-05
3.15687e-05
2.9618e-05
3.08449e-05
3.2599e-05
3.45726e-05
3.79209e-05
4.39855e-05
5.36031e-05
5.84442e-05
5.10242e-05
3.93977e-05
3.28113e-05
2.8991e-05
2.46862e-05
2.00272e-05
1.56619e-05
1.16483e-05
8.06636e-06
6.67595e-06
7.89298e-06
6.95001e-06
5.68796e-06
8.6959e-06
1.21467e-05
1.95108e-05
2.70767e-05
2.98396e-05
2.81774e-05
2.49702e-05
2.20896e-05
1.98037e-05
1.78583e-05
1.61005e-05
1.44977e-05
1.30467e-05
1.17384e-05
1.0558e-05
9.49151e-06
8.52721e-06
7.65501e-06
6.86561e-06
6.15038e-06
5.50155e-06
4.91247e-06
4.37767e-06
3.8928e-06
3.45444e-06
3.05983e-06
2.70655e-06
2.39219e-06
2.11415e-06
1.86957e-06
1.65553e-06
1.46933e-06
1.30862e-06
1.1711e-06
1.05394e-06
9.5376e-07
8.67996e-07
7.97084e-07
7.44843e-07
7.14288e-07
7.01901e-07
6.97664e-07
6.91825e-07
6.79779e-07
6.60946e-07
6.35661e-07
6.04552e-07
5.69674e-07
5.34382e-07
5.0145e-07
4.71366e-07
4.42398e-07
4.12208e-07
3.79652e-07
3.45501e-07
3.11851e-07
2.80907e-07
2.54006e-07
2.31386e-07
2.12549e-07
1.96749e-07
1.83418e-07
1.72179e-07
1.62674e-07
1.54773e-07
1.48683e-07
1.42965e-07
1.40328e-07
1.3263e-07
2.8932e-05
2.971e-05
2.77912e-05
2.44137e-05
2.0568e-05
1.6919e-05
1.37648e-05
1.18134e-05
1.27629e-05
1.60658e-05
1.90538e-05
2.01691e-05
1.96099e-05
1.89889e-05
2.04108e-05
2.46729e-05
3.12247e-05
3.95144e-05
4.46287e-05
4.14598e-05
3.35104e-05
2.69976e-05
2.31204e-05
2.00179e-05
1.68253e-05
1.36902e-05
1.09507e-05
8.34994e-06
4.48886e-06
1.94922e-06
5.82939e-06
8.96582e-06
1.68666e-05
2.5928e-05
3.0457e-05
2.98666e-05
2.68387e-05
2.37722e-05
2.13538e-05
1.93691e-05
1.75885e-05
1.59415e-05
1.44253e-05
1.30401e-05
1.1778e-05
1.06284e-05
9.58194e-06
8.63007e-06
7.76456e-06
6.97734e-06
6.26082e-06
5.60819e-06
5.01362e-06
4.47231e-06
3.9804e-06
3.53479e-06
3.13293e-06
2.77249e-06
2.45114e-06
2.16631e-06
1.9152e-06
1.6949e-06
1.50275e-06
1.33644e-06
1.19375e-06
1.07192e-06
9.67542e-07
8.77935e-07
8.03492e-07
7.48431e-07
7.16779e-07
7.05775e-07
7.05164e-07
7.04086e-07
6.96673e-07
6.81309e-07
6.5765e-07
6.26127e-07
5.89169e-07
5.5094e-07
5.15104e-07
4.82774e-07
4.52409e-07
4.21509e-07
3.88611e-07
3.54219e-07
3.20304e-07
2.89078e-07
2.61935e-07
2.39158e-07
2.2024e-07
2.04411e-07
1.91027e-07
1.79623e-07
1.70001e-07
1.62131e-07
1.55835e-07
1.50334e-07
1.47283e-07
1.40071e-07
4.79221e-06
6.92486e-06
8.81835e-06
1.03857e-05
1.19923e-05
1.38312e-05
1.57541e-05
1.74904e-05
1.87358e-05
1.91399e-05
1.84919e-05
1.69755e-05
1.52408e-05
1.41554e-05
1.46515e-05
1.75544e-05
2.20638e-05
2.5688e-05
2.89849e-05
3.22857e-05
3.21682e-05
2.82119e-05
2.29415e-05
1.81915e-05
1.41497e-05
1.04997e-05
7.28821e-06
4.88141e-06
4.51305e-06
4.33241e-06
6.17682e-06
1.55135e-05
2.54555e-05
3.09377e-05
3.1135e-05
2.83755e-05
2.52273e-05
2.27163e-05
2.07265e-05
1.89688e-05
1.73235e-05
1.578e-05
1.43473e-05
1.30256e-05
1.18093e-05
1.06922e-05
9.66815e-06
8.73083e-06
7.87355e-06
7.08953e-06
6.37238e-06
5.71639e-06
5.11663e-06
4.56899e-06
4.07012e-06
3.61727e-06
3.20807e-06
2.84036e-06
2.51186e-06
2.22009e-06
1.96229e-06
1.73563e-06
1.53744e-06
1.36548e-06
1.21756e-06
1.09103e-06
9.82542e-07
8.89325e-07
8.11728e-07
7.54305e-07
7.21914e-07
7.12491e-07
7.15549e-07
7.19217e-07
7.16481e-07
7.04732e-07
6.82867e-07
6.50965e-07
6.11695e-07
5.69991e-07
5.30479e-07
4.95004e-07
4.62315e-07
4.29801e-07
3.95699e-07
3.60233e-07
3.25248e-07
2.92965e-07
2.64854e-07
2.41261e-07
2.21688e-07
2.05353e-07
1.91575e-07
1.79945e-07
1.70316e-07
1.62047e-07
1.55595e-07
1.49956e-07
1.47025e-07
1.39637e-07
9.33451e-06
1.13292e-05
1.36406e-05
1.55857e-05
1.69134e-05
1.75587e-05
1.76084e-05
1.72101e-05
1.65098e-05
1.56417e-05
1.47773e-05
1.41427e-05
1.39378e-05
1.42632e-05
1.51113e-05
1.66165e-05
1.96113e-05
2.36021e-05
2.52243e-05
2.39789e-05
2.28545e-05
2.24038e-05
2.11014e-05
1.86468e-05
1.56029e-05
1.27775e-05
1.01744e-05
7.06568e-06
2.02052e-06
6.49868e-06
1.71739e-05
2.66234e-05
3.17394e-05
3.20266e-05
2.9437e-05
2.63239e-05
2.38095e-05
2.18652e-05
2.01767e-05
1.8581e-05
1.70542e-05
1.56112e-05
1.42604e-05
1.30017e-05
1.18326e-05
1.07502e-05
9.75076e-06
8.82975e-06
7.98196e-06
7.20205e-06
6.48496e-06
5.82611e-06
5.22149e-06
4.66771e-06
4.16193e-06
3.70175e-06
3.28507e-06
2.90986e-06
2.57399e-06
2.27505e-06
2.01038e-06
1.77716e-06
1.57279e-06
1.39503e-06
1.24175e-06
1.11034e-06
9.97419e-07
9.00067e-07
8.18504e-07
7.57614e-07
7.23288e-07
7.14498e-07
7.20759e-07
7.29236e-07
7.31725e-07
7.24532e-07
7.05618e-07
6.74475e-07
6.33818e-07
5.8928e-07
5.46492e-07
5.08153e-07
4.73424e-07
4.39655e-07
4.04804e-07
3.68804e-07
3.33338e-07
3.00605e-07
2.72121e-07
2.48277e-07
2.28569e-07
2.12188e-07
1.98381e-07
1.86725e-07
1.7696e-07
1.68691e-07
1.62107e-07
1.56694e-07
1.53445e-07
1.46506e-07
6.30553e-06
7.84245e-06
9.59705e-06
1.11442e-05
1.22122e-05
1.27267e-05
1.27915e-05
1.26029e-05
1.2356e-05
1.21848e-05
1.21642e-05
1.23453e-05
1.27758e-05
1.3512e-05
1.45834e-05
1.59455e-05
1.77257e-05
2.07813e-05
2.4688e-05
2.65541e-05
2.4933e-05
2.12031e-05
1.73559e-05
1.41813e-05
1.14732e-05
8.802e-06
6.54702e-06
8.23103e-06
1.4852e-05
2.29818e-05
2.96588e-05
3.28773e-05
3.24524e-05
2.98631e-05
2.69176e-05
2.45427e-05
2.27234e-05
2.1154e-05
1.96536e-05
1.81888e-05
1.67774e-05
1.54343e-05
1.41645e-05
1.29693e-05
1.18491e-05
1.08034e-05
9.83046e-06
8.92718e-06
8.08999e-06
7.31509e-06
6.59877e-06
5.93759e-06
5.32846e-06
4.76871e-06
4.25605e-06
3.78849e-06
3.36419e-06
2.98133e-06
2.6379e-06
2.33161e-06
2.05988e-06
1.81998e-06
1.60932e-06
1.42566e-06
1.26691e-06
1.13051e-06
1.01308e-06
9.11563e-07
8.26045e-07
7.6169e-07
7.25369e-07
7.17124e-07
7.26536e-07
7.39872e-07
7.47801e-07
7.45567e-07
7.30102e-07
7.00135e-07
6.58256e-07
6.10713e-07
5.64183e-07
5.2233e-07
4.84835e-07
4.49087e-07
4.12788e-07
3.75577e-07
3.38964e-07
3.05124e-07
2.7563e-07
2.50934e-07
2.30542e-07
2.13629e-07
1.99408e-07
1.87434e-07
1.77371e-07
1.69137e-07
1.62359e-07
1.56805e-07
1.53688e-07
1.46602e-07
4.8332e-06
5.96693e-06
7.24559e-06
8.38887e-06
9.23222e-06
9.75024e-06
1.00089e-05
1.01106e-05
1.0152e-05
1.02071e-05
1.03389e-05
1.0615e-05
1.11123e-05
1.18992e-05
1.30228e-05
1.44809e-05
1.61491e-05
1.81116e-05
2.10249e-05
2.47001e-05
2.74118e-05
2.79244e-05
2.65368e-05
2.4407e-05
2.26863e-05
2.22751e-05
2.35683e-05
2.64991e-05
3.0058e-05
3.27265e-05
3.33919e-05
3.20009e-05
2.94661e-05
2.68939e-05
2.48424e-05
2.32499e-05
2.18518e-05
2.04873e-05
1.91262e-05
1.77889e-05
1.64938e-05
1.52495e-05
1.40601e-05
1.29294e-05
1.18598e-05
1.08527e-05
9.9076e-06
9.02331e-06
8.19783e-06
7.42886e-06
6.71404e-06
6.05105e-06
5.43774e-06
4.87218e-06
4.35266e-06
3.87762e-06
3.44553e-06
3.05479e-06
2.70357e-06
2.38971e-06
2.11073e-06
1.86396e-06
1.64686e-06
1.45718e-06
1.29285e-06
1.15131e-06
1.02913e-06
9.23077e-07
8.3302e-07
7.64363e-07
7.2507e-07
7.16527e-07
7.28614e-07
7.46758e-07
7.60497e-07
7.63966e-07
7.52936e-07
7.25154e-07
6.82874e-07
6.32858e-07
5.82847e-07
5.37582e-07
4.97396e-07
4.59811e-07
4.22313e-07
3.84245e-07
3.46917e-07
3.12449e-07
2.82446e-07
2.57395e-07
2.36801e-07
2.19807e-07
2.05557e-07
1.93604e-07
1.83506e-07
1.7528e-07
1.68389e-07
1.63109e-07
1.59767e-07
1.53123e-07
4.20345e-06
5.05127e-06
6.00092e-06
6.88338e-06
7.58376e-06
8.05942e-06
8.33037e-06
8.45906e-06
8.52464e-06
8.60355e-06
8.76669e-06
9.08315e-06
9.61977e-06
1.04285e-05
1.153e-05
1.29149e-05
1.45273e-05
1.62419e-05
1.81287e-05
2.06005e-05
2.36653e-05
2.65683e-05
2.86103e-05
2.97374e-05
3.03913e-05
3.10727e-05
3.18903e-05
3.26039e-05
3.27296e-05
3.19166e-05
3.02402e-05
2.81744e-05
2.62467e-05
2.46902e-05
2.34146e-05
2.22324e-05
2.10367e-05
1.98154e-05
1.85918e-05
1.73852e-05
1.62052e-05
1.50577e-05
1.39487e-05
1.28833e-05
1.18657e-05
1.08984e-05
9.98254e-06
9.11849e-06
8.30582e-06
7.54373e-06
6.83113e-06
6.16683e-06
5.54964e-06
4.9784e-06
4.452e-06
3.96935e-06
3.52929e-06
3.13047e-06
2.77124e-06
2.44959e-06
2.16318e-06
1.9094e-06
1.68573e-06
1.48993e-06
1.3199e-06
1.17308e-06
1.04599e-06
9.35216e-07
8.40395e-07
7.67121e-07
7.24459e-07
7.15262e-07
7.29841e-07
7.52826e-07
7.72652e-07
7.82355e-07
7.76451e-07
7.51513e-07
7.09258e-07
6.56843e-07
6.03088e-07
5.53909e-07
5.10423e-07
4.70375e-07
4.31078e-07
3.9158e-07
3.52978e-07
3.17327e-07
2.86262e-07
2.6032e-07
2.39015e-07
2.21474e-07
2.068e-07
1.94526e-07
1.84185e-07
1.75789e-07
1.68865e-07
1.63504e-07
1.60262e-07
1.53519e-07
3.71129e-06
4.36273e-06
5.08251e-06
5.75801e-06
6.30091e-06
6.67846e-06
6.90787e-06
7.03638e-06
7.12259e-06
7.2277e-06
7.41724e-06
7.75968e-06
8.31666e-06
9.12622e-06
1.01941e-05
1.1496e-05
1.29888e-05
1.46046e-05
1.62397e-05
1.79187e-05
1.98399e-05
2.20555e-05
2.4305e-05
2.6244e-05
2.76954e-05
2.86551e-05
2.91336e-05
2.90591e-05
2.84428e-05
2.74289e-05
2.62539e-05
2.51307e-05
2.41356e-05
2.32117e-05
2.22693e-05
2.12671e-05
2.02156e-05
1.91405e-05
1.80595e-05
1.69814e-05
1.59127e-05
1.48602e-05
1.38312e-05
1.2832e-05
1.18673e-05
1.09411e-05
1.00558e-05
9.21319e-06
8.41446e-06
7.66014e-06
6.95045e-06
6.2853e-06
5.66448e-06
5.08762e-06
4.5543e-06
4.06391e-06
3.61567e-06
3.20852e-06
2.84103e-06
2.51137e-06
2.21731e-06
1.95635e-06
1.72598e-06
1.52395e-06
1.34812e-06
1.1959e-06
1.0637e-06
9.47883e-07
8.47793e-07
7.69151e-07
7.22183e-07
7.11484e-07
7.28053e-07
7.55786e-07
7.82006e-07
7.98623e-07
7.98793e-07
7.77701e-07
7.36302e-07
6.82012e-07
6.24723e-07
5.71635e-07
5.24783e-07
4.82254e-07
4.4125e-07
4.00532e-07
3.60965e-07
3.24508e-07
2.92798e-07
2.66401e-07
2.44822e-07
2.2716e-07
2.12448e-07
2.00205e-07
1.89881e-07
1.81591e-07
1.7461e-07
1.69449e-07
1.66099e-07
1.59858e-07
3.26315e-06
3.75843e-06
4.29789e-06
4.80778e-06
5.22855e-06
5.53472e-06
5.73223e-06
5.85065e-06
5.93624e-06
6.04675e-06
6.2479e-06
6.60472e-06
7.16872e-06
7.96529e-06
8.98887e-06
1.02108e-05
1.15883e-05
1.30764e-05
1.46135e-05
1.61213e-05
1.75821e-05
1.90516e-05
2.05439e-05
2.19656e-05
2.31571e-05
2.40239e-05
2.45192e-05
2.46631e-05
2.45286e-05
2.42047e-05
2.37667e-05
2.32491e-05
2.26466e-05
2.19467e-05
2.11565e-05
2.03001e-05
1.94022e-05
1.84776e-05
1.75342e-05
1.65782e-05
1.56169e-05
1.4658e-05
1.37089e-05
1.27762e-05
1.18655e-05
1.09815e-05
1.0128e-05