/*--------------------------------*- C++ -*----------------------------------*\
  =========                 |
  \\      /  F ield         | OpenFOAM: The Open Source CFD Toolbox
   \\    /   O peration     | Website:  https://openfoam.org
    \\  /    A nd           | Version:  10
     \\/     M anipulation  |
\*---------------------------------------------------------------------------*/
FoamFile
{
    format      ascii;
    class       surfaceScalarField;
    location    "0.06";
    object      phi;
}
// * * * * * * * * * * * * * * * * * * * * * * * * * * * * * * * * * * * * * //

dimensions      [0 3 -1 0 0 0 0];

internalField   nonuniform List<scalar> 
13452
(
4.01925e-05
2.0076e-05
2.59353e-05
1.42573e-05
1.85324e-05
7.4029e-06
1.51608e-05
3.37161e-06
1.37471e-05
1.41367e-06
1.30398e-05
7.07257e-07
1.25866e-05
4.53245e-07
1.22354e-05
3.51171e-07
1.19366e-05
2.988e-07
1.16782e-05
2.58457e-07
1.14558e-05
2.22369e-07
1.12656e-05
1.90218e-07
1.11033e-05
1.623e-07
1.09647e-05
1.38579e-07
1.08461e-05
1.18638e-07
1.07441e-05
1.01922e-07
1.06562e-05
8.79054e-08
1.05801e-05
7.61643e-08
1.05137e-05
6.63854e-08
1.04553e-05
5.83665e-08
1.04033e-05
5.20097e-08
1.0356e-05
4.73212e-08
1.03116e-05
4.44143e-08
1.0268e-05
4.35373e-08
1.02229e-05
4.50808e-08
1.01732e-05
4.97396e-08
1.01149e-05
5.8306e-08
1.00419e-05
7.30511e-08
9.94749e-06
9.4363e-08
9.81217e-06
1.35319e-07
9.63209e-06
1.80077e-07
9.2783e-06
3.53793e-07
3.1874e-07
8.95956e-06
6.59032e-05
1.61631e-05
6.18986e-05
1.82618e-05
5.56406e-05
1.36609e-05
4.97761e-05
9.23613e-06
4.52849e-05
5.90489e-06
4.20772e-05
3.91493e-06
3.97761e-05
2.75434e-06
3.80824e-05
2.04486e-06
3.67906e-05
1.59065e-06
3.57694e-05
1.27961e-06
3.49385e-05
1.0533e-06
3.42472e-05
8.81537e-07
3.36623e-05
7.47143e-07
3.31613e-05
6.39592e-07
3.2728e-05
5.51972e-07
3.23503e-05
4.79541e-07
3.20193e-05
4.18965e-07
3.17276e-05
3.67889e-07
3.14693e-05
3.24654e-07
3.12395e-05
2.88125e-07
3.1034e-05
2.57577e-07
3.08487e-05
2.32629e-07
3.06798e-05
2.13227e-07
3.05237e-05
1.99654e-07
3.03762e-05
1.92587e-07
3.02327e-05
1.93251e-07
3.00875e-05
2.0352e-07
2.99337e-05
2.2689e-07
2.97606e-05
2.67427e-07
2.95576e-05
3.38359e-07
2.92945e-05
4.43137e-07
2.89935e-05
6.54753e-07
9.33124e-07
2.83792e-05
6.91814e-05
1.07432e-05
7.25082e-05
1.4935e-05
7.30626e-05
1.31065e-05
7.16899e-05
1.06088e-05
6.94471e-05
8.14774e-06
6.70705e-05
6.29152e-06
6.48432e-05
4.98161e-06
6.28559e-05
4.03218e-06
6.1119e-05
3.32755e-06
5.96104e-05
2.78821e-06
5.83009e-05
2.36281e-06
5.71623e-05
2.02016e-06
5.61694e-05
1.73997e-06
5.53009e-05
1.50813e-06
5.45385e-05
1.31437e-06
5.3867e-05
1.15107e-06
5.32735e-05
1.01247e-06
5.27471e-05
8.9422e-07
5.22788e-05
7.93038e-07
5.18604e-05
7.06485e-07
5.14852e-05
6.32818e-07
5.11469e-05
5.709e-07
5.084e-05
5.20155e-07
5.0559e-05
4.8058e-07
5.02988e-05
4.52801e-07
5.00538e-05
4.38254e-07
4.9818e-05
4.39373e-07
4.95845e-05
4.60388e-07
4.93447e-05
5.07219e-07
4.90907e-05
5.92323e-07
4.88065e-05
7.27325e-07
4.8504e-05
9.57286e-07
1.28874e-06
4.81484e-05
6.88457e-05
7.48052e-06
7.21606e-05
1.16201e-05
7.45355e-05
1.07317e-05
7.59455e-05
9.19871e-06
7.65234e-05
7.56986e-06
7.65859e-05
6.22903e-06
7.63407e-05
5.22676e-06
7.59134e-05
4.45956e-06
7.53842e-05
3.85667e-06
7.48021e-05
3.37039e-06
7.41973e-05
2.96752e-06
7.35902e-05
2.62728e-06
7.29946e-05
2.33562e-06
7.24198e-05
2.0829e-06
7.18715e-05
1.86264e-06
7.13528e-05
1.66976e-06
7.08651e-05
1.50022e-06
7.04085e-05
1.35085e-06
6.99823e-05
1.21918e-06
6.95854e-05
1.10337e-06
6.92162e-05
1.00209e-06
6.88725e-05
9.14518e-07
6.85523e-05
8.40364e-07
6.8253e-05
7.79881e-07
6.79719e-05
7.33979e-07
6.77057e-05
7.04401e-07
6.74511e-05
6.93935e-07
6.72045e-05
7.0701e-07
6.69619e-05
7.49797e-07
6.67216e-05
8.32642e-07
6.64822e-05
9.6673e-07
6.62631e-05
1.17643e-06
1.46739e-06
6.60844e-05
6.95587e-05
5.37856e-06
7.18354e-05
9.34351e-06
7.35369e-05
9.03009e-06
7.48074e-05
7.92822e-06
7.57e-05
6.6773e-06
7.63519e-05
5.5771e-06
7.68492e-05
4.72948e-06
7.72334e-05
4.07534e-06
7.75324e-05
3.55764e-06
7.77645e-05
3.13829e-06
7.79423e-05
2.7897e-06
7.80758e-05
2.49383e-06
7.81719e-05
2.23948e-06
7.82362e-05
2.01858e-06
7.82742e-05
1.82465e-06
7.82909e-05
1.65311e-06
7.82905e-05
1.50064e-06
7.82766e-05
1.36472e-06
7.82523e-05
1.2435e-06
7.822e-05
1.13563e-06
7.81818e-05
1.04027e-06
7.81394e-05
9.5698e-07
7.80939e-05
8.85809e-07
7.80465e-05
8.27288e-07
7.7998e-05
7.82523e-07
7.7949e-05
7.53338e-07
7.79006e-05
7.42413e-07
7.78539e-05
7.53618e-07
7.78118e-05
7.91968e-07
7.77799e-05
8.64473e-07
7.77689e-05
9.77789e-07
7.7804e-05
1.1413e-06
1.34762e-06
7.79238e-05
7.08402e-05
3.92239e-06
7.26276e-05
7.55615e-06
7.3935e-05
7.72269e-06
7.48664e-05
6.99678e-06
7.54984e-05
6.04531e-06
7.59503e-05
5.12524e-06
7.63091e-05
4.37067e-06
7.66152e-05
3.76923e-06
7.68889e-05
3.28394e-06
7.714e-05
2.88719e-06
7.73726e-05
2.55703e-06
7.75891e-05
2.27736e-06
7.77914e-05
2.03716e-06
7.79813e-05
1.82874e-06
7.81595e-05
1.64639e-06
7.83269e-05
1.48572e-06
7.84841e-05
1.34343e-06
7.86319e-05
1.21699e-06
7.87708e-05
1.10451e-06
7.89018e-05
1.00464e-06
7.90256e-05
9.16474e-07
7.91431e-05
8.39518e-07
7.92552e-05
7.737e-07
7.93631e-05
7.19374e-07
7.94683e-05
6.77349e-07
7.95727e-05
6.48957e-07
7.9679e-05
6.36066e-07
7.97914e-05
6.41193e-07
7.99163e-05
6.67147e-07
8.00635e-05
7.17192e-07
8.02489e-05
7.92388e-07
8.04976e-05
8.92604e-07
1.00129e-06
8.0844e-05
7.23889e-05
2.89985e-06
7.38415e-05
6.10352e-06
7.49703e-05
6.59393e-06
7.57902e-05
6.17684e-06
7.63508e-05
5.48471e-06
7.67358e-05
4.74022e-06
7.70216e-05
4.08487e-06
7.72503e-05
3.54052e-06
7.74454e-05
3.0889e-06
7.76201e-05
2.71244e-06
7.77816e-05
2.39552e-06
7.79337e-05
2.12531e-06
7.80784e-05
1.89241e-06
7.82173e-05
1.68994e-06
7.8351e-05
1.51264e-06
7.84803e-05
1.35646e-06
7.86054e-05
1.21825e-06
7.87268e-05
1.09559e-06
7.88447e-05
9.86602e-07
7.89595e-05
8.89909e-07
7.90714e-05
8.04536e-07
7.91811e-05
7.29883e-07
7.92891e-05
6.65695e-07
7.93964e-05
6.12054e-07
7.95044e-05
5.69364e-07
7.9615e-05
5.38342e-07
7.97311e-05
5.19929e-07
7.98571e-05
5.15224e-07
7.99993e-05
5.24951e-07
8.01672e-05
5.49253e-07
8.03744e-05
5.85216e-07
8.06399e-05
6.27067e-07
6.56642e-07
8.09846e-05
7.41253e-05
2.17981e-06
7.5293e-05
4.9358e-06
7.62754e-05
5.61153e-06
7.70288e-05
5.42344e-06
7.75762e-05
4.93735e-06
7.7967e-05
4.34947e-06
7.82588e-05
3.79307e-06
7.8489e-05
3.31024e-06
7.86803e-05
2.89765e-06
7.88465e-05
2.54619e-06
7.89961e-05
2.24597e-06
7.91338e-05
1.98757e-06
7.92628e-05
1.76342e-06
7.93851e-05
1.56768e-06
7.95019e-05
1.39576e-06
7.96144e-05
1.24399e-06
7.97232e-05
1.10948e-06
7.98288e-05
9.89929e-07
7.99319e-05
8.83553e-07
8.00328e-05
7.88981e-07
8.01321e-05
7.05204e-07
8.02305e-05
6.31523e-07
8.03287e-05
5.67517e-07
8.04277e-05
5.13003e-07
8.05291e-05
4.6799e-07
8.06348e-05
4.32609e-07
8.07478e-05
4.06957e-07
8.08721e-05
3.90921e-07
8.10135e-05
3.83603e-07
8.11798e-05
3.82945e-07
8.13812e-05
3.83806e-07
8.16305e-05
3.77728e-07
3.48377e-07
8.19388e-05
7.60168e-05
1.6655e-06
7.69535e-05
3.99906e-06
7.78029e-05
4.76219e-06
7.84852e-05
4.74114e-06
7.90069e-05
4.41558e-06
7.93967e-05
3.95972e-06
7.96965e-05
3.4932e-06
7.99378e-05
3.069e-06
8.014e-05
2.69547e-06
8.03158e-05
2.3703e-06
8.04735e-05
2.08834e-06
8.06178e-05
1.8432e-06
8.07522e-05
1.62905e-06
8.08788e-05
1.4411e-06
8.09992e-05
1.27539e-06
8.11145e-05
1.12868e-06
8.12256e-05
9.98345e-07
8.13333e-05
8.82244e-07
8.14382e-05
7.78673e-07
8.15409e-05
6.86284e-07
8.1642e-05
6.04029e-07
8.17425e-05
5.3111e-07
8.1843e-05
4.66936e-07
8.1945e-05
4.11064e-07
8.20498e-05
3.63125e-07
8.21597e-05
3.2272e-07
8.22775e-05
2.89233e-07
8.24068e-05
2.61604e-07
8.25526e-05
2.37814e-07
8.2721e-05
2.14494e-07
8.29192e-05
1.85621e-07
8.31548e-05
1.42149e-07
7.09086e-08
8.34322e-05
7.8033e-05
1.29206e-06
7.87844e-05
3.24771e-06
7.95164e-05
4.03017e-06
8.0132e-05
4.12557e-06
8.06247e-05
3.92286e-06
8.10083e-05
3.5761e-06
8.13116e-05
3.18988e-06
8.15597e-05
2.82091e-06
8.17695e-05
2.48568e-06
8.19526e-05
2.1872e-06
8.21168e-05
1.92416e-06
8.22671e-05
1.69289e-06
8.24069e-05
1.48925e-06
8.25385e-05
1.30947e-06
8.26636e-05
1.1503e-06
8.27834e-05
1.00892e-06
8.28988e-05
8.82951e-07
8.30106e-05
7.70436e-07
8.31195e-05
6.69748e-07
8.32263e-05
5.79552e-07
8.33315e-05
4.98759e-07
8.34362e-05
4.26471e-07
8.35412e-05
3.6193e-07
8.36478e-05
3.04452e-07
8.37576e-05
2.53335e-07
8.38726e-05
2.07741e-07
8.39953e-05
1.66507e-07
8.4129e-05
1.27925e-07
8.42774e-05
8.93225e-08
8.44452e-05
4.67621e-08
8.46365e-05
-5.71584e-09
8.48552e-05
-7.65407e-08
-1.75548e-07
8.51017e-05
8.01546e-05
1.01574e-06
8.07591e-05
2.64328e-06
8.13895e-05
3.39979e-06
8.1944e-05
3.57099e-06
8.24064e-05
3.46047e-06
8.27802e-05
3.20235e-06
8.30837e-05
2.88639e-06
8.33363e-05
2.56825e-06
8.35524e-05
2.26955e-06
8.37423e-05
1.99738e-06
8.3913e-05
1.75347e-06
8.40694e-05
1.53648e-06
8.42148e-05
1.34378e-06
8.43517e-05
1.17262e-06
8.44816e-05
1.02035e-06
8.46059e-05
8.84596e-07
8.47257e-05
7.63246e-07
8.48416e-05
6.54498e-07
8.49545e-05
5.5681e-07
8.50652e-05
4.68868e-07
8.51744e-05
3.89547e-07
8.5283e-05
3.17861e-07
8.53921e-05
2.52908e-07
8.55027e-05
1.93799e-07
8.56165e-05
1.39567e-07
8.57352e-05
8.90519e-08
8.58609e-05
4.07266e-08
8.59964e-05
-7.48148e-09
8.61442e-05
-5.84974e-08
8.63072e-05
-1.16284e-07
8.64877e-05
-1.86238e-07
8.66866e-05
-2.75436e-07
-3.90839e-07
8.69019e-05
8.23692e-05
8.07001e-07
8.28578e-05
2.15467e-06
8.34001e-05
2.85745e-06
8.38988e-05
3.07233e-06
8.43307e-05
3.02858e-06
8.46925e-05
2.84053e-06
8.49945e-05
2.58437e-06
8.52508e-05
2.31193e-06
8.54729e-05
2.04746e-06
8.56695e-05
1.80085e-06
8.58468e-05
1.57609e-06
8.60096e-05
1.37368e-06
8.61611e-05
1.19234e-06
8.63035e-05
1.03018e-06
8.64387e-05
8.85194e-07
8.65679e-05
7.55384e-07
8.66922e-05
6.38923e-07
8.68126e-05
5.34166e-07
8.69297e-05
4.3966e-07
8.70445e-05
3.54119e-07
8.71576e-05
2.76391e-07
8.72701e-05
2.05421e-07
8.73828e-05
1.40194e-07
8.74969e-05
7.96682e-08
8.76138e-05
2.26912e-08
8.77349e-05
-3.21036e-08
8.78621e-05
-8.64288e-08
8.79971e-05
-1.42481e-07
8.81417e-05
-2.03132e-07
8.82975e-05
-2.72024e-07
8.84649e-05
-3.53688e-07
8.86432e-05
-4.53718e-07
-5.76669e-07
8.8829e-05
8.46689e-05
6.45923e-07
8.50666e-05
1.75695e-06
8.55335e-05
2.39047e-06
8.59816e-05
2.62423e-06
8.63838e-05
2.6264e-06
8.67321e-05
2.49225e-06
8.70306e-05
2.28584e-06
8.72889e-05
2.05368e-06
8.75157e-05
1.82061e-06
8.77183e-05
1.59828e-06
8.79021e-05
1.39224e-06
8.80714e-05
1.2044e-06
8.82292e-05
1.03461e-06
8.83776e-05
8.81757e-07
8.85184e-05
7.44368e-07
8.8653e-05
6.20833e-07
8.87823e-05
5.09571e-07
8.89074e-05
4.09094e-07
8.9029e-05
3.18037e-07
8.9148e-05
2.35145e-07
8.92651e-05
1.59259e-07
8.93813e-05
8.92763e-08
8.94973e-05
2.41056e-08
8.96144e-05
-3.73916e-08
8.97336e-05
-9.64717e-08
8.98561e-05
-1.5459e-07
8.99831e-05
-2.135e-07
9.0116e-05
-2.75336e-07
9.02556e-05
-3.42717e-07
9.04023e-05
-4.18766e-07
9.05557e-05
-5.07066e-07
9.07138e-05
-6.11793e-07
-7.35619e-07
9.08727e-05
8.70491e-05
5.18938e-07
8.73757e-05
1.43036e-06
8.77787e-05
1.98747e-06
8.81814e-05
2.22153e-06
8.85552e-05
2.25268e-06
8.88889e-05
2.15848e-06
8.91825e-05
1.99229e-06
8.94414e-05
1.79473e-06
8.96722e-05
1.58986e-06
8.98803e-05
1.39013e-06
9.00705e-05
1.20208e-06
9.02462e-05
1.02864e-06
9.04104e-05
8.70493e-07
9.05649e-05
7.27192e-07
9.07116e-05
5.97717e-07
9.08516e-05
4.80796e-07
9.09861e-05
3.75074e-07
9.1116e-05
2.79212e-07
9.12421e-05
1.91932e-07
9.13652e-05
1.12023e-07
9.14861e-05
3.83324e-08
9.16057e-05
-3.02628e-08
9.17247e-05
-9.48895e-08
9.1844e-05
-1.56726e-07
9.19646e-05
-2.1706e-07
9.20873e-05
-2.77342e-07
9.22131e-05
-3.39248e-07
9.23425e-05
-4.04725e-07
9.24758e-05
-4.76021e-07
9.26127e-05
-5.55663e-07
9.27519e-05
-6.46322e-07
9.28911e-05
-7.50935e-07
-8.70782e-07
9.30262e-05
8.95077e-05
4.16725e-07
8.97787e-05
1.15937e-06
9.01279e-05
1.63829e-06
9.04904e-05
1.85908e-06
9.08375e-05
1.90555e-06
9.11566e-05
1.83943e-06
9.14441e-05
1.70473e-06
9.17027e-05
1.53619e-06
9.19364e-05
1.35615e-06
9.21494e-05
1.17712e-06
9.23454e-05
1.0061e-06
9.25273e-05
8.46656e-07
9.26977e-05
7.00101e-07
9.28584e-05
5.66484e-07
9.3011e-05
4.45174e-07
9.31566e-05
3.35177e-07
9.32963e-05
2.35339e-07
9.34311e-05
1.44458e-07
9.35617e-05
6.13404e-08
9.36889e-05
-1.51755e-08
9.38134e-05
-8.62201e-08
9.39361e-05
-1.52908e-07
9.40576e-05
-2.16366e-07
9.41786e-05
-2.77765e-07
9.42999e-05
-3.38359e-07
9.44221e-05
-3.99519e-07
9.45456e-05
-4.62767e-07
9.46707e-05
-5.29784e-07
9.4797e-05
-6.02402e-07
9.49239e-05
-6.82551e-07
9.50497e-05
-7.721e-07
9.51717e-05
-8.7297e-07
-9.8546e-07
9.52864e-05
9.20438e-05
3.32783e-07
9.22714e-05
9.31799e-07
9.25757e-05
1.33396e-06
9.29029e-05
1.5319e-06
9.32256e-05
1.58281e-06
9.35303e-05
1.5348e-06
9.38112e-05
1.42374e-06
9.40686e-05
1.27887e-06
9.43045e-05
1.1202e-06
9.45219e-05
9.59761e-07
9.47234e-05
8.04601e-07
9.49114e-05
6.58594e-07
9.50881e-05
5.2346e-07
9.5255e-05
3.99604e-07
9.54134e-05
2.86682e-07
9.55647e-05
1.83926e-07
9.57097e-05
9.0347e-08
9.58493e-05
4.85972e-09
9.59843e-05
-7.36486e-08
9.61154e-05
-1.46284e-07
9.62433e-05
-2.1414e-07
9.63687e-05
-2.78301e-07
9.64922e-05
-3.39862e-07
9.66144e-05
-3.99943e-07
9.67357e-05
-4.59718e-07
9.68566e-05
-5.20429e-07
9.69773e-05
-5.83393e-07
9.70975e-05
-6.49994e-07
9.72167e-05
-7.21649e-07
9.73339e-05
-7.99746e-07
9.74473e-05
-8.85486e-07
9.75543e-05
-9.8e-07
-1.08294e-06
9.76518e-05
9.46574e-05
2.62494e-07
9.48511e-05
7.38134e-07
9.51184e-05
1.06666e-06
9.54151e-05
1.2352e-06
9.57159e-05
1.28199e-06
9.6007e-05
1.24377e-06
9.62813e-05
1.14944e-06
9.65369e-05
1.02318e-06
9.67746e-05
8.825e-07
9.69959e-05
7.38478e-07
9.72026e-05
5.97898e-07
9.73966e-05
4.64668e-07
9.75793e-05
3.40698e-07
9.77523e-05
2.26614e-07
9.79167e-05
1.22269e-07
9.80736e-05
2.70568e-08
9.82238e-05
-5.98824e-08
9.83682e-05
-1.39536e-07
9.85075e-05
-2.12943e-07
9.86424e-05
-2.81154e-07
9.87735e-05
-3.45213e-07
9.89013e-05
-4.06156e-07
9.90265e-05
-4.65019e-07
9.91494e-05
-5.22844e-07
9.92703e-05
-5.80691e-07
9.93896e-05
-6.39642e-07
9.95069e-05
-7.00791e-07
9.96222e-05
-7.65225e-07
9.97345e-05
-8.33977e-07
9.98427e-05
-9.07975e-07
9.99451e-05
-9.87891e-07
0.000100039
-1.07427e-06
-1.16637e-06
0.000100123
9.73495e-05
2.02509e-07
9.75167e-05
5.70898e-07
9.77538e-05
8.29617e-07
9.80245e-05
9.64447e-07
9.83061e-05
1.00044e-06
9.85847e-05
9.65138e-07
9.88527e-05
8.81501e-07
9.91066e-05
7.69254e-07
9.93458e-05
6.433e-07
9.95707e-05
5.13526e-07
9.97825e-05
3.86179e-07
9.99822e-05
2.64983e-07
0.000100171
1.51859e-07
0.00010035
4.75195e-08
0.00010052
-4.80768e-08
0.000100683
-1.35434e-07
0.000100838
-2.15325e-07
0.000100987
-2.88664e-07
0.000101131
-3.56427e-07
0.000101269
-4.19609e-07
0.000101403
-4.79201e-07
0.000101533
-5.36176e-07
0.00010166
-5.91494e-07
0.000101783
-6.46099e-07
0.000101903
-7.00921e-07
0.000102021
-7.56867e-07
0.000102135
-8.14812e-07
0.000102245
-8.75566e-07
0.000102351
-9.39833e-07
0.000102451
-1.00816e-06
0.000102544
-1.08084e-06
0.000102628
-1.15799e-06
-1.23867e-06
0.0001027
0.000100121
1.50337e-07
0.000100268
4.24172e-07
0.000100481
6.1698e-07
0.00010073
7.15343e-07
0.000100995
7.35356e-07
0.000101263
6.97325e-07
0.000101525
6.192e-07
0.000101777
5.16811e-07
0.000102018
4.02539e-07
0.000102247
2.84913e-07
0.000102463
1.69459e-07
0.000102669
5.95332e-08
0.000102864
-4.30885e-08
0.000103049
-1.37724e-07
0.000103225
-2.24399e-07
0.000103394
-3.03579e-07
0.000103554
-3.7599e-07
0.000103708
-4.42499e-07
0.000103856
-5.04035e-07
0.000103998
-5.61543e-07
0.000104134
-6.15954e-07
0.000104266
-6.68176e-07
0.000104394
-7.19083e-07
0.000104517
-7.69511e-07
0.000104637
-8.20253e-07
0.000104752
-8.72049e-07
0.000104863
-9.25566e-07
0.000104968
-9.81374e-07
0.000105069
-1.03991e-06
0.000105162
-1.10142e-06
0.000105247
-1.16592e-06
0.000105322
-1.23326e-06
-1.30241e-06
0.000105386
0.000102974
1.04077e-07
0.000103105
2.93212e-07
0.000103299
4.23672e-07
0.00010353
4.83843e-07
0.000103782
4.83873e-07
0.00010404
4.3848e-07
0.000104298
3.61455e-07
0.00010455
2.65255e-07
0.000104792
1.59892e-07
0.000105025
5.24568e-08
0.000105247
-5.23821e-08
0.000105458
-1.51773e-07
0.000105659
-2.44219e-07
0.000105851
-3.29178e-07
0.000106033
-4.06739e-07
0.000106207
-4.7739e-07
0.000106373
-5.41855e-07
0.000106531
-6.0098e-07
0.000106683
-6.55665e-07
0.000106828
-7.06812e-07
0.000106967
-7.55299e-07
0.000107101
-8.01963e-07
0.00010723
-8.47593e-07
0.000107353
-8.92916e-07
0.000107471
-9.38596e-07
0.000107585
-9.85213e-07
0.000107692
-1.03326e-06
0.000107794
-1.08309e-06
0.000107889
-1.13494e-06
0.000107976
-1.18886e-06
0.000108055
-1.24466e-06
0.000108124
-1.30203e-06
-1.35994e-06
0.000108181
0.000105911
6.223e-08
0.00010603
1.74141e-07
0.000106208
2.45242e-07
0.000106426
2.66105e-07
0.000106667
2.43017e-07
0.000106919
1.86458e-07
0.000107173
1.06793e-07
0.000107425
1.35781e-08
0.00010767
-8.53611e-08
0.000107907
-1.8439e-07
0.000108135
-2.79785e-07
0.000108352
-3.69314e-07
0.00010856
-4.51865e-07
0.000108758
-5.2713e-07
0.000108946
-5.95342e-07
0.000109126
-6.57067e-07
0.000109297
-7.1307e-07
0.00010946
-7.64209e-07
0.000109616
-8.11371e-07
0.000109765
-8.5543e-07
0.000109907
-8.97216e-07
0.000110042
-9.37505e-07
0.000110172
-9.77e-07
0.000110295
-1.01633e-06
0.000110412
-1.05604e-06
0.000110524
-1.09657e-06
0.000110629
-1.13825e-06
0.000110727
-1.1813e-06
0.000110818
-1.22579e-06
0.000110901
-1.2716e-06
0.000110974
-1.31845e-06
0.000111038
-1.36593e-06
-1.41307e-06
0.000111091
0.000108932
2.35732e-08
0.000109042
6.37073e-08
0.00010921
7.77292e-08
0.000109418
5.84547e-08
0.000109651
9.73676e-09
0.000109899
-6.11174e-08
0.000110152
-1.46553e-07
0.000110405
-2.39508e-07
0.000110654
-3.34162e-07
0.000110896
-4.26321e-07
0.000111129
-5.13271e-07
0.000111353
-5.93481e-07
0.000111568
-6.66318e-07
0.000111772
-7.31795e-07
0.000111967
-7.90353e-07
0.000112153
-8.42696e-07
0.00011233
-8.89669e-07
0.000112498
-9.3217e-07
0.000112657
-9.711e-07
0.000112809
-1.00732e-06
0.000112954
-1.04161e-06
0.000113091
-1.07471e-06
0.000113221
-1.10725e-06
0.000113345
-1.13975e-06
0.000113461
-1.17266e-06
0.000113571
-1.20632e-06
0.000113674
-1.24092e-06
0.000113769
-1.27657e-06
0.000113856
-1.31322e-06
0.000113935
-1.35067e-06
0.000114005
-1.38857e-06
0.000114066
-1.42648e-06
-1.46354e-06
0.000114116
0.000112041
-1.29362e-08
0.000112146
-4.0916e-08
0.000112306
-8.25106e-08
0.000112507
-1.42729e-07
0.000112736
-2.19202e-07
0.000112982
-3.06989e-07
0.000113236
-4.00839e-07
0.000113492
-4.95853e-07
0.000113746
-5.88042e-07
0.000113995
-6.74624e-07
0.000114235
-7.53933e-07
0.000114467
-8.25211e-07
0.000114689
-8.88382e-07
0.000114901
-9.43854e-07
0.000115103
-9.92345e-07
0.000115295
-1.03475e-06
0.000115478
-1.07203e-06
0.000115651
-1.10516e-06
0.000115815
-1.13507e-06
0.00011597
-1.16264e-06
0.000116117
-1.18862e-06
0.000116256
-1.2137e-06
0.000116387
-1.23845e-06
0.000116511
-1.26333e-06
0.000116627
-1.2887e-06
0.000116735
-1.31478e-06
0.000116836
-1.34171e-06
0.000116929
-1.36949e-06
0.000117014
-1.39798e-06
0.00011709
-1.42695e-06
0.000117157
-1.45602e-06
0.000117216
-1.48473e-06
-1.51232e-06
0.000117264
0.00011524
-4.82255e-08
0.000115341
-1.42282e-07
0.000115498
-2.38903e-07
0.000115696
-3.4102e-07
0.000115924
-4.47124e-07
0.000116171
-5.54056e-07
0.000116428
-6.58483e-07
0.00011669
-7.57411e-07
0.000116951
-8.48558e-07
0.000117206
-9.30525e-07
0.000117455
-1.00273e-06
0.000117695
-1.06525e-06
0.000117925
-1.11863e-06
0.000118145
-1.16374e-06
0.000118355
-1.20164e-06
0.000118553
-1.23344e-06
0.000118742
-1.26029e-06
0.00011892
-1.28326e-06
0.000119088
-1.30334e-06
0.000119247
-1.32141e-06
0.000119396
-1.33824e-06
0.000119537
-1.35449e-06
0.000119669
-1.37067e-06
0.000119793
-1.38718e-06
0.000119909
-1.40432e-06
0.000120016
-1.42224e-06
0.000120116
-1.44101e-06
0.000120207
-1.46056e-06
0.000120289
-1.48073e-06
0.000120364
-1.50124e-06
0.000120429
-1.52171e-06
0.000120486
-1.54175e-06
-1.56066e-06
0.000120535
0.000118531
-8.31785e-08
0.000118631
-2.42868e-07
0.000118787
-3.94922e-07
0.000118987
-5.40278e-07
0.000119217
-6.77893e-07
0.000119469
-8.05979e-07
0.000119734
-9.22835e-07
0.000120004
-1.02719e-06
0.000120273
-1.11837e-06
0.000120539
-1.19635e-06
0.000120798
-1.26168e-06
0.000121048
-1.31532e-06
0.000121288
-1.35852e-06
0.000121517
-1.39267e-06
0.000121735
-1.41922e-06
0.000121941
-1.43958e-06
0.000122136
-1.45509e-06
0.000122319
-1.46696e-06
0.000122492
-1.47626e-06
0.000122655
-1.48391e-06
0.000122807
-1.49069e-06
0.00012295
-1.49724e-06
0.000123083
-1.50405e-06
0.000123207
-1.51146e-06
0.000123323
-1.51973e-06
0.00012343
-1.52895e-06
0.000123528
-1.53914e-06
0.000123617
-1.55019e-06
0.000123699
-1.56191e-06
0.000123771
-1.57401e-06
0.000123836
-1.58612e-06
0.000123892
-1.59787e-06
-1.60864e-06
0.00012394
0.000121917
-1.18663e-07
0.000122019
-3.45111e-07
0.000122178
-5.54009e-07
0.000122382
-7.44332e-07
0.00012262
-9.15286e-07
0.00012288
-1.06622e-06
0.000123154
-1.19693e-06
0.000123434
-1.30775e-06
0.000123716
-1.39961e-06
0.000123993
-1.47387e-06
0.000124264
-1.53223e-06
0.000124525
-1.57661e-06
0.000124776
-1.60902e-06
0.000125014
-1.63143e-06
0.000125241
-1.64574e-06
0.000125455
-1.65369e-06
0.000125657
-1.65684e-06
0.000125846
-1.65659e-06
0.000126024
-1.65409e-06
0.000126191
-1.65035e-06
0.000126346
-1.64615e-06
0.000126491
-1.64213e-06
0.000126626
-1.63876e-06
0.000126751
-1.63637e-06
0.000126866
-1.63515e-06
0.000126972
-1.63518e-06
0.000127069
-1.63643e-06
0.000127158
-1.63876e-06
0.000127238
-1.64197e-06
0.00012731
-1.64578e-06
0.000127374
-1.64984e-06
0.00012743
-1.65383e-06
-1.65721e-06
0.000127478
0.0001254
-1.55687e-07
0.000125507
-4.51855e-07
0.000125674
-7.20382e-07
0.000125887
-9.58225e-07
0.000126137
-1.16473e-06
0.000126411
-1.34026e-06
0.0001267
-1.48601e-06
0.000126996
-1.60395e-06
0.000127293
-1.69662e-06
0.000127586
-1.76684e-06
0.000127872
-1.81757e-06
0.000128147
-1.85177e-06
0.00012841
-1.87227e-06
0.00012866
-1.88172e-06
0.000128897
-1.88251e-06
0.00012912
-1.87674e-06
0.00012933
-1.86627e-06
0.000129526
-1.85265e-06
0.000129709
-1.83718e-06
0.000129879
-1.82092e-06
0.000130038
-1.80472e-06
0.000130185
-1.7892e-06
0.000130321
-1.77482e-06
0.000130446
-1.7619e-06
0.000130562
-1.75059e-06
0.000130668
-1.74094e-06
0.000130764
-1.73289e-06
0.000130852
-1.72629e-06
0.000130931
-1.72092e-06
0.000131001
-1.71651e-06
0.000131064
-1.7127e-06
0.00013112
-1.70918e-06
-1.70545e-06
0.000131168
0.000128985
-1.9521e-07
0.000129099
-5.65857e-07
0.000129276
-8.97904e-07
0.000129504
-1.18623e-06
0.00012977
-1.43043e-06
0.000130062
-1.63199e-06
0.000130369
-1.79359e-06
0.000130684
-1.91892e-06
0.000131
-2.01219e-06
0.000131311
-2.07778e-06
0.000131613
-2.11997e-06
0.000131904
-2.14283e-06
0.000132182
-2.15011e-06
0.000132445
-2.14516e-06
0.000132694
-2.13093e-06
0.000132927
-2.10996e-06
0.000133145
-2.08438e-06
0.000133348
-2.05599e-06
0.000133537
-2.02621e-06
0.000133713
-1.99621e-06
0.000133875
-1.96686e-06
0.000134025
-1.93883e-06
0.000134162
-1.91255e-06
0.000134289
-1.88833e-06
0.000134404
-1.86629e-06
0.00013451
-1.84647e-06
0.000134606
-1.82877e-06
0.000134693
-1.81303e-06
0.000134771
-1.79902e-06
0.000134841
-1.78647e-06
0.000134903
-1.77506e-06
0.000134958
-1.76451e-06
-1.75434e-06
0.000135007
0.000132673
-2.38932e-07
0.000132799
-6.91766e-07
0.000132994
-1.09358e-06
0.000133245
-1.43688e-06
0.000133536
-1.72165e-06
0.000133855
-1.95066e-06
0.00013419
-2.12831e-06
0.000134531
-2.26029e-06
0.000134872
-2.3528e-06
0.000135206
-2.41196e-06
0.000135529
-2.44358e-06
0.00013584
-2.45297e-06
0.000136134
-2.44486e-06
0.000136413
-2.42339e-06
0.000136674
-2.39212e-06
0.000136918
-2.35402e-06
0.000137145
-2.31156e-06
0.000137356
-2.26674e-06
0.000137551
-2.22116e-06
0.00013773
-2.17604e-06
0.000137896
-2.13233e-06
0.000138048
-2.0907e-06
0.000138187
-2.05159e-06
0.000138314
-2.01526e-06
0.000138429
-1.98185e-06
0.000138534
-1.95133e-06
0.000138629
-1.9236e-06
0.000138714
-1.89847e-06
0.000138791
-1.87569e-06
0.00013886
-1.85497e-06
0.000138921
-1.83598e-06
0.000138974
-1.81841e-06
-1.80179e-06
0.000139022
0.000136467
-2.87691e-07
0.000136608
-8.32459e-07
0.000136825
-1.31114e-06
0.000137102
-1.71403e-06
0.000137423
-2.04226e-06
0.000137773
-2.30028e-06
0.000138139
-2.49443e-06
0.000138511
-2.63261e-06
0.000138881
-2.72318e-06
0.000139244
-2.77417e-06
0.000139593
-2.79306e-06
0.000139927
-2.78656e-06
0.000140242
-2.76053e-06
0.000140539
-2.71999e-06
0.000140816
-2.66918e-06
0.000141074
-2.61157e-06
0.000141312
-2.54999e-06
0.000141532
-2.48669e-06
0.000141734
-2.42343e-06
0.00014192
-2.36154e-06
0.000142089
-2.30199e-06
0.000142244
-2.24547e-06
0.000142385
-2.19242e-06
0.000142513
-2.14308e-06
0.000142629
-2.09752e-06
0.000142733
-2.05572e-06
0.000142827
-2.01752e-06
0.000142911
-1.98271e-06
0.000142986
-1.95103e-06
0.000143054
-1.92217e-06
0.000143113
-1.89579e-06
0.000143167
-1.87161e-06
-1.84915e-06
0.000143214
0.000140374
-3.46153e-07
0.000140541
-9.99198e-07
0.000140796
-1.56653e-06
0.000141118
-2.03571e-06
0.000141486
-2.41e-06
0.000141882
-2.6966e-06
0.000142293
-2.90484e-06
0.000142706
-3.04576e-06
0.000143113
-3.13046e-06
0.000143508
-3.16928e-06
0.000143887
-3.17153e-06
0.000144245
-3.14543e-06
0.000144583
-3.09802e-06
0.000144898
-3.03523e-06
0.000145191
-2.96195e-06
0.000145462
-2.88218e-06
0.000145711
-2.79907e-06
0.000145939
-2.71514e-06
0.000146148
-2.63227e-06
0.000146338
-2.55189e-06
0.000146511
-2.475e-06
0.000146668
-2.40228e-06
0.00014681
-2.33417e-06
0.000146938
-2.27085e-06
0.000147052
-2.21237e-06
0.000147155
-2.15864e-06
0.000147247
-2.10947e-06
0.000147329
-2.06461e-06
0.000147402
-2.02375e-06
0.000147466
-1.98654e-06
0.000147523
-1.9526e-06
0.000147573
-1.92159e-06
-1.89297e-06
0.000147617
0.000144391
-4.12139e-07
0.000144582
-1.19084e-06
0.000144874
-1.8586e-06
0.000145241
-2.40212e-06
0.000145659
-2.82811e-06
0.000146109
-3.14633e-06
0.000146573
-3.36914e-06
0.000147038
-3.51119e-06
0.000147495
-3.58689e-06
0.000147935
-3.60937e-06
0.000148354
-3.59026e-06
0.000148748
-3.53966e-06
0.000149116
-3.46605e-06
0.000149457
-3.37641e-06
0.000149771
-3.27644e-06
0.00015006
-3.17066e-06
0.000150323
-3.06263e-06
0.000150563
-2.95505e-06
0.000150781
-2.84996e-06
0.000150978
-2.74884e-06
0.000151156
-2.65268e-06
0.000151316
-2.56214e-06
0.000151459
-2.47759e-06
0.000151587
-2.39916e-06
0.000151702
-2.32683e-06
0.000151804
-2.26044e-06
0.000151894
-2.19974e-06
0.000151974
-2.14443e-06
0.000152044
-2.09415e-06
0.000152106
-2.04854e-06
0.000152161
-2.00716e-06
0.000152209
-1.9697e-06
-1.93554e-06
0.000152251
0.000148541
-5.05087e-07
0.000148794
-1.44415e-06
0.000149166
-2.23015e-06
0.000149615
-2.85182e-06
0.000150113
-3.32586e-06
0.000150635
-3.6686e-06
0.000151164
-3.89796e-06
0.000151687
-4.03351e-06
0.000152193
-4.09328e-06
0.000152677
-4.09317e-06
0.000153134
-4.04707e-06
0.000153561
-3.96685e-06
0.000153957
-3.86233e-06
0.000154322
-3.74154e-06
0.000154657
-3.61091e-06
0.000154962
-3.4755e-06
0.000155238
-3.33923e-06
0.000155488
-3.20504e-06
0.000155713
-3.07507e-06
0.000155915
-2.95083e-06
0.000156096
-2.83333e-06
0.000156257
-2.72316e-06
0.0001564
-2.62061e-06
0.000156526
-2.52574e-06
0.000156638
-2.43842e-06
0.000156736
-2.35841e-06
0.000156822
-2.28539e-06
0.000156896
-2.21897e-06
0.000156961
-2.15872e-06
0.000157016
-2.10422e-06
0.000157064
-2.05497e-06
0.000157105
-2.01053e-06
-1.97021e-06
0.00015714
0.000152784
-6.00427e-07
0.000153074
-1.73351e-06
0.000153507
-2.66297e-06
0.000154039
-3.38441e-06
0.000154635
-3.92114e-06
0.000155259
-4.29346e-06
0.000155888
-4.52681e-06
0.000156503
-4.64853e-06
0.000157092
-4.68237e-06
0.000157648
-4.64855e-06
0.000158165
-4.56429e-06
0.000158642
-4.44387e-06
0.000159078
-4.29882e-06
0.000159475
-4.13833e-06
0.000159834
-3.96963e-06
0.000160157
-3.79827e-06
0.000160446
-3.6284e-06
0.000160704
-3.4631e-06
0.000160933
-3.3045e-06
0.000161137
-3.15407e-06
0.000161316
-3.01269e-06
0.000161474
-2.88081e-06
0.000161612
-2.75857e-06
0.000161732
-2.64588e-06
0.000161836
-2.54247e-06
0.000161925
-2.44797e-06
0.000162002
-2.36194e-06
0.000162067
-2.2839e-06
0.000162122
-2.21337e-06
0.000162167
-2.14987e-06
0.000162205
-2.09289e-06
0.000162237
-2.04201e-06
-1.99639e-06
0.000162263
0.000157246
-7.94886e-07
0.000157696
-2.18373e-06
0.000158288
-3.25468e-06
0.000158954
-4.05083e-06
0.00015966
-4.62657e-06
0.000160376
-5.00955e-06
0.000161082
-5.23261e-06
0.000161762
-5.32927e-06
0.000162407
-5.32745e-06
0.00016301
-5.25102e-06
0.000163566
-5.12038e-06
0.000164074
-4.95218e-06
0.000164535
-4.75974e-06
0.00016495
-4.55352e-06
0.000165322
-4.34156e-06
0.000165654
-4.12988e-06
0.000165948
-3.9229e-06
0.000166209
-3.7237e-06
0.000166439
-3.53437e-06
0.000166641
-3.3562e-06
0.000166818
-3.18987e-06
0.000166973
-3.03562e-06
0.000167108
-2.89336e-06
0.000167225
-2.76275e-06
0.000167326
-2.64334e-06
0.000167412
-2.53455e-06
0.000167486
-2.43579e-06
0.000167548
-2.34646e-06
0.000167601
-2.26599e-06
0.000167645
-2.19383e-06
0.000167682
-2.1295e-06
0.000167712
-2.07252e-06
-2.02203e-06
0.000167738
0.000161692
-9.48588e-07
0.000162215
-2.70639e-06
0.000162955
-3.99454e-06
0.000163819
-4.91475e-06
0.00016473
-5.53815e-06
0.000165633
-5.91259e-06
0.000166499
-6.09821e-06
0.000167314
-6.14458e-06
0.000168074
-6.08738e-06
0.000168778
-5.95515e-06
0.000169429
-5.77072e-06
0.000170028
-5.55173e-06
0.00017058
-5.31177e-06
0.000171088
-5.06128e-06
0.000171554
-4.80812e-06
0.000171983
-4.55813e-06
0.000172375
-4.31555e-06
0.000172735
-4.08334e-06
0.000173064
-3.86347e-06
0.000173365
-3.65711e-06
0.00017364
-3.46484e-06
0.000173891
-3.28675e-06
0.00017412
-3.12263e-06
0.00017433
-2.97202e-06
0.000174521
-2.8343e-06
0.000174695
-2.7088e-06
0.000174854
-2.5948e-06
0.000174999
-2.49162e-06
0.000175132
-2.3987e-06
0.000175253
-2.31552e-06
0.000175366
-2.24195e-06
0.000175471
-2.17754e-06
-2.1225e-06
0.000175571
0.00016669
-1.48466e-06
0.000167548
-3.56454e-06
0.000168491
-4.93814e-06
0.000169512
-5.93547e-06
0.000170611
-6.63728e-06
0.000171769
-7.06993e-06
0.000172965
-7.29452e-06
0.000174178
-7.35732e-06
0.000175383
-7.29248e-06
0.000176559
-7.13119e-06
0.000177688
-6.90032e-06
0.000178759
-6.62194e-06
0.000179761
-6.31392e-06
0.00018069
-5.99041e-06
0.000181544
-5.66237e-06
0.000182324