/*--------------------------------*- C++ -*----------------------------------*\
  =========                 |
  \\      /  F ield         | OpenFOAM: The Open Source CFD Toolbox
   \\    /   O peration     | Website:  https://openfoam.org
    \\  /    A nd           | Version:  10
     \\/     M anipulation  |
\*---------------------------------------------------------------------------*/
FoamFile
{
    format      ascii;
    class       volVectorField;
    location    "0.06";
    object      U;
}
// * * * * * * * * * * * * * * * * * * * * * * * * * * * * * * * * * * * * * //

dimensions      [0 1 -1 0 0 0 0];

internalField   nonuniform List<vector> 
6820
(
(5.57354 0.459163 0)
(3.88289 0.245939 0)
(2.58893 0.00882809 0)
(1.95681 -0.0641479 0)
(1.73124 -0.0594456 0)
(1.61983 -0.0339782 0)
(1.55457 -0.0153226 0)
(1.5083 -0.00525812 0)
(1.46935 -0.000669175 0)
(1.43559 0.000833313 0)
(1.40646 0.000889399 0)
(1.38148 0.000384458 0)
(1.36015 -0.00027191 0)
(1.34196 -0.000898352 0)
(1.3264 -0.00142504 0)
(1.31306 -0.00183612 0)
(1.30158 -0.00213921 0)
(1.29165 -0.00234946 0)
(1.28303 -0.0024821 0)
(1.27549 -0.00254956 0)
(1.26882 -0.00256058 0)
(1.26282 -0.00251985 0)
(1.25729 -0.00242777 0)
(1.25201 -0.00227928 0)
(1.24669 -0.00206399 0)
(1.24104 -0.00175787 0)
(1.23458 -0.00133739 0)
(1.22687 -0.000701093 0)
(1.21674 0.000119365 0)
(1.20417 0.00188775 0)
(1.18301 0.00316287 0)
(1.16318 0.0145012 0)
(1.08595 -0.00793527 0)
(7.66981 0.863939 0)
(7.71718 0.890888 0)
(6.9998 0.598546 0)
(6.19698 0.347647 0)
(5.5833 0.179738 0)
(5.13828 0.0932635 0)
(4.8209 0.0529332 0)
(4.59173 0.0344886 0)
(4.41976 0.0260621 0)
(4.28573 0.021795 0)
(4.1779 0.019217 0)
(4.08896 0.017389 0)
(4.01421 0.0159382 0)
(3.95048 0.0147022 0)
(3.89558 0.0136002 0)
(3.84788 0.0125929 0)
(3.80618 0.011663 0)
(3.76951 0.0108057 0)
(3.73711 0.0100236 0)
(3.70836 0.00932511 0)
(3.68272 0.008725 0)
(3.6597 0.0082451 0)
(3.63885 0.00791663 0)
(3.61974 0.00778432 0)
(3.6019 0.00791091 0)
(3.58483 0.00839257 0)
(3.56794 0.00935568 0)
(3.55048 0.0110621 0)
(3.53153 0.0137152 0)
(3.50967 0.0184863 0)
(3.48329 0.0249535 0)
(3.449 0.0409244 0)
(3.40819 0.0598763 0)
(7.56353 0.520356 0)
(8.22517 0.663695 0)
(8.46476 0.576395 0)
(8.36377 0.45892 0)
(8.12785 0.344916 0)
(7.85088 0.260108 0)
(7.58063 0.20052 0)
(7.33694 0.157762 0)
(7.12309 0.126676 0)
(6.93713 0.10357 0)
(6.7758 0.0859565 0)
(6.6357 0.0722537 0)
(6.51372 0.0614212 0)
(6.40718 0.0527485 0)
(6.3138 0.0457215 0)
(6.23169 0.0399591 0)
(6.15924 0.0351804 0)
(6.09509 0.0311818 0)
(6.0381 0.0278182 0)
(5.98728 0.0249897 0)
(5.94181 0.0226337 0)
(5.90092 0.0207198 0)
(5.86396 0.0192488 0)
(5.83029 0.0182554 0)
(5.79931 0.0178144 0)
(5.77041 0.0180548 0)
(5.74294 0.01918 0)
(5.71617 0.0215257 0)
(5.68922 0.02558 0)
(5.66116 0.0323702 0)
(5.63072 0.0429308 0)
(5.5969 0.0615576 0)
(5.561 0.0889277 0)
(7.43336 0.341132 0)
(7.88464 0.514623 0)
(8.24332 0.489849 0)
(8.44187 0.430183 0)
(8.54152 0.359125 0)
(8.57154 0.298727 0)
(8.55646 0.252821 0)
(8.51588 0.21753 0)
(8.46081 0.189842 0)
(8.39768 0.167493 0)
(8.33065 0.148894 0)
(8.26246 0.133087 0)
(8.19488 0.119446 0)
(8.12923 0.107541 0)
(8.06631 0.0970867 0)
(8.00659 0.0878719 0)
(7.95028 0.0797286 0)
(7.89748 0.0725216 0)
(7.84813 0.0661455 0)
(7.80214 0.0605226 0)
(7.75934 0.0556027 0)
(7.71953 0.051364 0)
(7.68247 0.0478167 0)
(7.6479 0.0450087 0)
(7.61552 0.0430356 0)
(7.585 0.0420587 0)
(7.55599 0.0423256 0)
(7.52809 0.0442332 0)
(7.50085 0.0483384 0)
(7.47396 0.0556539 0)
(7.4472 0.0673103 0)
(7.4211 0.0861862 0)
(7.39881 0.113696 0)
(7.39682 0.251083 0)
(7.67994 0.421213 0)
(7.92329 0.404279 0)
(8.07719 0.354465 0)
(8.1876 0.299937 0)
(8.26981 0.254488 0)
(8.33061 0.220793 0)
(8.37732 0.195178 0)
(8.41391 0.174892 0)
(8.44242 0.158282 0)
(8.46441 0.144249 0)
(8.48111 0.132127 0)
(8.49347 0.121503 0)
(8.50205 0.112086 0)
(8.50748 0.103662 0)
(8.51034 0.0960697 0)
(8.51113 0.089193 0)
(8.51027 0.0829483 0)
(8.50812 0.0772789 0)
(8.50499 0.0721525 0)
(8.50112 0.0675607 0)
(8.4967 0.0635203 0)
(8.49189 0.0600773 0)
(8.48682 0.0573138 0)
(8.48159 0.0553577 0)
(8.47628 0.0543994 0)
(8.47096 0.0547118 0)
(8.46577 0.0566906 0)
(8.46087 0.0608769 0)
(8.45672 0.0680715 0)
(8.45405 0.079195 0)
(8.45478 0.0957475 0)
(8.46198 0.117929 0)
(7.37402 0.180746 0)
(7.57408 0.33631 0)
(7.76075 0.342657 0)
(7.87515 0.313646 0)
(7.95127 0.274662 0)
(8.00655 0.236712 0)
(8.04791 0.205593 0)
(8.08199 0.18077 0)
(8.11225 0.160767 0)
(8.13985 0.144437 0)
(8.16533 0.130826 0)
(8.18902 0.11923 0)
(8.2111 0.109193 0)
(8.2318 0.100409 0)
(8.25124 0.092629 0)
(8.26949 0.0856721 0)
(8.28663 0.079409 0)
(8.30273 0.0737489 0)
(8.31786 0.0686307 0)
(8.33212 0.064019 0)
(8.34556 0.0599026 0)
(8.35829 0.0562951 0)
(8.3704 0.0532379 0)
(8.382 0.0508052 0)
(8.39322 0.049111 0)
(8.40424 0.0483206 0)
(8.4153 0.0486615 0)
(8.42675 0.0504449 0)
(8.4391 0.0540589 0)
(8.45324 0.0600062 0)
(8.47029 0.0687271 0)
(8.49276 0.0806875 0)
(8.52269 0.0950545 0)
(7.35905 0.132831 0)
(7.50327 0.273375 0)
(7.65558 0.295393 0)
(7.75549 0.278842 0)
(7.82147 0.2495 0)
(7.86826 0.217841 0)
(7.90149 0.190419 0)
(7.92689 0.167975 0)
(7.94817 0.149526 0)
(7.96695 0.134199 0)
(7.9841 0.121259 0)
(8.00013 0.11014 0)
(8.01534 0.100446 0)
(8.02988 0.0918951 0)
(8.04386 0.0842849 0)
(8.05737 0.0774664 0)
(8.07043 0.0713272 0)
(8.08309 0.0657824 0)
(8.09538 0.0607711 0)
(8.10733 0.0562543 0)
(8.11897 0.0522143 0)
(8.13034 0.0486552 0)
(8.1415 0.045604 0)
(8.15254 0.0431136 0)
(8.16357 0.0412661 0)
(8.17474 0.0401771 0)
(8.18631 0.0399963 0)
(8.19864 0.0409111 0)
(8.21223 0.0431154 0)
(8.22793 0.0468049 0)
(8.24677 0.0519687 0)
(8.27069 0.0584109 0)
(8.30107 0.0647236 0)
(7.34964 0.0991368 0)
(7.45338 0.220788 0)
(7.57636 0.250813 0)
(7.66496 0.244319 0)
(7.72661 0.224896 0)
(7.77214 0.201001 0)
(7.80535 0.178422 0)
(7.83054 0.158794 0)
(7.85109 0.141913 0)
(7.86871 0.127412 0)
(7.88432 0.114904 0)
(7.89857 0.10401 0)
(7.91184 0.0944333 0)
(7.92435 0.0859493 0)
(7.93626 0.0783826 0)
(7.9477 0.0715923 0)
(7.95874 0.0654675 0)
(7.96944 0.0599241 0)
(7.97985 0.0549009 0)
(7.99003 0.0503569 0)
(8.00002 0.0462699 0)
(8.00988 0.0426362 0)
(8.01968 0.0394701 0)
(8.0295 0.0368045 0)
(8.03947 0.0346909 0)
(8.04977 0.0331981 0)
(8.06061 0.032405 0)
(8.07236 0.0323919 0)
(8.08547 0.0331982 0)
(8.10064 0.0347924 0)
(8.1187 0.0368957 0)
(8.14098 0.0389404 0)
(8.16825 0.0395154 0)
(7.34381 0.0751829 0)
(7.41916 0.178845 0)
(7.51789 0.213398 0)
(7.59514 0.214513 0)
(7.65149 0.202206 0)
(7.69474 0.18382 0)
(7.72761 0.16475 0)
(7.75318 0.147337 0)
(7.77427 0.131938 0)
(7.79241 0.118465 0)
(7.80846 0.106694 0)
(7.82302 0.0963525 0)
(7.83649 0.0871963 0)
(7.84912 0.079033 0)
(7.86109 0.0717075 0)
(7.87251 0.0650955 0)
(7.88349 0.0590997 0)
(7.8941 0.0536449 0)
(7.90441 0.0486746 0)
(7.91447 0.0441484 0)
(7.92436 0.0400405 0)
(7.93413 0.0363391 0)
(7.94387 0.0330451 0)
(7.95367 0.0301706 0)
(7.96368 0.0277357 0)
(7.97405 0.0257637 0)
(7.98503 0.0242684 0)
(7.99693 0.0232379 0)
(8.01016 0.0225907 0)
(8.02527 0.0221382 0)
(8.04287 0.0214493 0)
(8.0638 0.0197964 0)
(8.08841 0.0159267 0)
(7.34017 0.0579407 0)
(7.39549 0.145177 0)
(7.47455 0.180822 0)
(7.54134 0.186914 0)
(7.59244 0.179953 0)
(7.63309 0.166424 0)
(7.66511 0.150988 0)
(7.69061 0.136103 0)
(7.71185 0.122442 0)
(7.73018 0.11013 0)
(7.74644 0.0991275 0)
(7.76119 0.089298 0)
(7.77482 0.0804871 0)
(7.78759 0.0725581 0)
(7.79968 0.0653929 0)
(7.81122 0.0588904 0)
(7.8223 0.0529662 0)
(7.83301 0.0475513 0)
(7.84342 0.0425906 0)
(7.85359 0.0380416 0)
(7.86358 0.0338732 0)
(7.87347 0.0300643 0)
(7.88335 0.0266013 0)
(7.89331 0.0234753 0)
(7.90349 0.0206771 0)
(7.91405 0.0181891 0)
(7.92521 0.0159711 0)
(7.93723 0.0139411 0)
(7.95045 0.0119368 0)
(7.96528 0.00967977 0)
(7.9821 0.00668571 0)
(8.00141 0.00221915 0)
(8.02323 -0.00473348 0)
(7.33788 0.0452895 0)
(7.379 0.118097 0)
(7.44236 0.152804 0)
(7.49983 0.162259 0)
(7.54595 0.159407 0)
(7.58384 0.149796 0)
(7.61467 0.137358 0)
(7.63981 0.124548 0)
(7.661 0.11231 0)
(7.67945 0.100981 0)
(7.69587 0.0906676 0)
(7.71079 0.0813372 0)
(7.72458 0.072899 0)
(7.7375 0.0652534 0)
(7.74971 0.058305 0)
(7.76136 0.0519667 0)
(7.77254 0.0461623 0)
(7.78334 0.0408273 0)
(7.79383 0.0359081 0)
(7.80408 0.0313604 0)
(7.81416 0.0271482 0)
(7.82414 0.0232412 0)
(7.8341 0.0196123 0)
(7.84416 0.0162336 0)
(7.85442 0.0130701 0)
(7.86505 0.0100709 0)
(7.87622 0.00715491 0)
(7.88815 0.00419267 0)
(7.90108 0.000975933 0)
(7.91528 -0.00281022 0)
(7.93098 -0.00764005 0)
(7.9484 -0.0141809 0)
(7.96738 -0.023206 0)
(7.33642 0.0358243 0)
(7.36743 0.0962546 0)
(7.41832 0.128691 0)
(7.46756 0.140016 0)
(7.50896 0.14002 0)
(7.54409 0.133427 0)
(7.57358 0.123556 0)
(7.59822 0.112702 0)
(7.61931 0.10193 0)
(7.63783 0.0916848 0)
(7.65441 0.0821639 0)
(7.6695 0.073413 0)
(7.68347 0.0653997 0)
(7.69654 0.0580655 0)
(7.7089 0.0513437 0)
(7.72067 0.0451674 0)
(7.73197 0.0394735 0)
(7.74287 0.0342052 0)
(7.75345 0.0293119 0)
(7.76378 0.0247486 0)
(7.77394 0.0204746 0)
(7.78399 0.0164518 0)
(7.79401 0.0126414 0)
(7.80411 0.00899944 0)
(7.81439 0.00547063 0)
(7.82497 0.00197965 0)
(7.83601 -0.00158147 0)
(7.84767 -0.0053681 0)
(7.86011 -0.00960505 0)
(7.87348 -0.0146046 0)
(7.88788 -0.0207918 0)
(7.90334 -0.0287321 0)
(7.91962 -0.0389815 0)
(7.33548 0.0285917 0)
(7.35922 0.0785238 0)
(7.40026 0.107935 0)
(7.44237 0.120037 0)
(7.47941 0.121997 0)
(7.51184 0.117736 0)
(7.53985 0.11 0)
(7.56383 0.100838 0)
(7.58468 0.0913447 0)
(7.60318 0.0820493 0)
(7.61985 0.0732256 0)
(7.6351 0.0649891 0)
(7.64923 0.0573606 0)
(7.66247 0.0503172 0)
(7.67499 0.0438162 0)
(7.68692 0.0378059 0)
(7.69835 0.0322324 0)
(7.70937 0.0270435 0)
(7.72006 0.0221896 0)
(7.73048 0.0176242 0)
(7.74071 0.0133021 0)
(7.75081 0.00917808 0)
(7.76087 0.00520348 0)
(7.77096 0.00132199 0)
(7.78119 -0.00253622 0)
(7.79164 -0.006462 0)
(7.80244 -0.0105773 0)
(7.81369 -0.015046 0)
(7.82549 -0.0200881 0)
(7.8379 -0.0259896 0)
(7.85093 -0.0331092 0)
(7.86449 -0.0418964 0)
(7.87832 -0.0527292 0)
(7.33486 0.0229458 0)
(7.35331 0.0640202 0)
(7.38663 0.0900456 0)
(7.42263 0.102087 0)
(7.45569 0.105224 0)
(7.48552 0.102633 0)
(7.51199 0.0965765 0)
(7.5352 0.0888415 0)
(7.55571 0.0804963 0)
(7.57412 0.0721072 0)
(7.59085 0.0639897 0)
(7.60622 0.0563015 0)
(7.62051 0.0490996 0)
(7.63391 0.0423881 0)
(7.64659 0.0361439 0)
(7.65866 0.0303293 0)
(7.67022 0.0249 0)
(7.68136 0.0198095 0)
(7.69214 0.0150108 0)
(7.70264 0.0104569 0)
(7.71292 0.00610021 0)
(7.72304 0.00189051 0)
(7.73309 -0.0022276 0)
(7.74312 -0.00631847 0)
(7.75323 -0.0104603 0)
(7.76347 -0.014751 0)
(7.77393 -0.0193158 0)
(7.78468 -0.0243136 0)
(7.79576 -0.0299453 0)
(7.80716 -0.0364564 0)
(7.81884 -0.0441336 0)
(7.83063 -0.0533175 0)
(7.84229 -0.0642453 0)
(7.33444 0.018445 0)
(7.34902 0.0520414 0)
(7.37629 0.0745755 0)
(7.40712 0.085947 0)
(7.4366 0.0896494 0)
(7.46399 0.0881975 0)
(7.48892 0.0834358 0)
(7.51128 0.0768838 0)
(7.53137 0.0695318 0)
(7.54961 0.0619481 0)
(7.56633 0.0544687 0)
(7.58177 0.0472807 0)
(7.59618 0.0404707 0)
(7.60973 0.0340665 0)
(7.62255 0.0280626 0)
(7.63476 0.0224342 0)
(7.64644 0.0171451 0)
(7.65769 0.0121534 0)
(7.66855 0.00741421 0)
(7.67911 0.00288024 0)
(7.68942 -0.00149831 0)
(7.69955 -0.00577505 0)
(7.70954 -0.0100096 0)
(7.71948 -0.0142705 0)
(7.7294 -0.0186394 0)
(7.73937 -0.0232145 0)
(7.74944 -0.0281161 0)
(7.75963 -0.0334894 0)
(7.76995 -0.0395076 0)
(7.78035 -0.0463711 0)
(7.79075 -0.0542976 0)
(7.80096 -0.0635324 0)
(7.81076 -0.0742064 0)
(7.33414 0.0147833 0)
(7.34586 0.0420369 0)
(7.36839 0.0611315 0)
(7.3949 0.0714024 0)
(7.42122 0.0751802 0)
(7.44635 0.0744082 0)
(7.46979 0.0705742 0)
(7.49125 0.0649484 0)
(7.51087 0.0584218 0)
(7.52889 0.0515424 0)
(7.54554 0.0446491 0)
(7.56104 0.0379432 0)
(7.57554 0.0315288 0)
(7.58921 0.025449 0)
(7.60217 0.0197104 0)
(7.6145 0.0142968 0)
(7.62629 0.00917834 0)
(7.63763 0.00431696 0)
(7.64856 -0.000330502 0)
(7.65916 -0.00481093 0)
(7.66947 -0.00917488 0)
(7.67956 -0.0134774 0)
(7.68947 -0.0177795 0)
(7.69926 -0.0221507 0)
(7.70896 -0.026671 0)
(7.71861 -0.031434 0)
(7.72824 -0.0365489 0)
(7.73785 -0.0421416 0)
(7.74741 -0.0483546 0)
(7.75686 -0.0553434 0)
(7.76609 -0.0632645 0)
(7.77493 -0.0722843 0)
(7.78316 -0.0824568 0)
(7.33392 0.0117452 0)
(7.34351 0.0335754 0)
(7.36233 0.049368 0)
(7.38526 0.0582452 0)
(7.40882 0.0617144 0)
(7.43191 0.0612441 0)
(7.45393 0.0580213 0)
(7.47451 0.0530916 0)
(7.49362 0.0472336 0)
(7.51138 0.0409547 0)
(7.52794 0.0345809 0)
(7.54344 0.0283147 0)
(7.55802 0.0222687 0)
(7.57179 0.0164962 0)
(7.58485 0.0110123 0)
(7.59728 0.00580812 0)
(7.60917 0.000858827 0)
(7.62058 -0.00387012 0)
(7.63157 -0.00841977 0)
(7.64219 -0.012836 0)
(7.65248 -0.0171692 0)
(7.66251 -0.0214739 0)
(7.67231 -0.0258108 0)
(7.68192 -0.0302468 0)
(7.69137 -0.0348576 0)
(7.70068 -0.039728 0)
(7.70985 -0.044953 0)
(7.71888 -0.0506372 0)
(7.72771 -0.0568921 0)
(7.73629 -0.0638322 0)
(7.74449 -0.0715627 0)
(7.75216 -0.0801877 0)
(7.75912 -0.0897081 0)
(7.33377 0.00917603 0)
(7.34174 0.0263185 0)
(7.35767 0.038985 0)
(7.37767 0.0462784 0)
(7.39884 0.0491407 0)
(7.42012 0.0486586 0)
(7.44084 0.045767 0)
(7.46056 0.041315 0)
(7.47915 0.0359673 0)
(7.49664 0.0301798 0)
(7.51308 0.024256 0)
(7.52856 0.0183905 0)
(7.54319 0.0126972 0)
(7.55704 0.00723316 0)
(7.57019 0.002018 0)
(7.58272 -0.00295352 0)
(7.59469 -0.00770313 0)
(7.60616 -0.0122634 0)
(7.61718 -0.0166739 0)
(7.6278 -0.0209799 0)
(7.63805 -0.0252305 0)
(7.648 -0.0294793 0)
(7.65766 -0.0337843 0)
(7.66706 -0.0382085 0)
(7.67624 -0.0428204 0)
(7.68519 -0.0476945 0)
(7.69391 -0.0529101 0)
(7.70238 -0.0585502 0)
(7.71054 -0.064698 0)
(7.71833 -0.0714329 0)
(7.72565 -0.0788189 0)
(7.73234 -0.0869131 0)
(7.73828 -0.095682 0)
(7.33365 0.00696202 0)
(7.3404 0.0199997 0)
(7.35409 0.0297234 0)
(7.37169 0.0353147 0)
(7.39085 0.0373402 0)
(7.41055 0.036589 0)
(7.4301 0.0337879 0)
(7.44903 0.0296171 0)
(7.46713 0.0246321 0)
(7.48433 0.0192304 0)
(7.50065 0.013684 0)
(7.51611 0.00817178 0)
(7.53077 0.00280105 0)
(7.54468 -0.00237255 0)
(7.55792 -0.00732883 0)
(7.57053 -0.0120717 0)
(7.58257 -0.0166213 0)
(7.59409 -0.0210088 0)
(7.60512 -0.0252725 0)
(7.61572 -0.0294561 0)
(7.62593 -0.033607 0)
(7.63577 -0.0377762 0)
(7.64528 -0.0420178 0)
(7.65447 -0.0463891 0)
(7.66337 -0.0509504 0)
(7.67196 -0.0557644 0)
(7.68025 -0.0608948 0)
(7.68819 -0.0664046 0)
(7.69575 -0.0723523 0)
(7.70286 -0.0787881 0)
(7.70943 -0.0857448 0)
(7.71533 -0.0932451 0)
(7.72048 -0.101235 0)
(7.33356 0.00501741 0)
(7.33939 0.0144062 0)
(7.35133 0.0213588 0)
(7.36702 0.0251781 0)
(7.3845 0.0261908 0)
(7.40285 0.0249604 0)
(7.42138 0.0220446 0)
(7.43961 0.0179812 0)
(7.45725 0.0132245 0)
(7.4742 0.00811164 0)
(7.49039 0.00287862 0)
(7.50582 -0.00231708 0)
(7.52051 -0.00737964 0)
(7.53448 -0.0122593 0)
(7.54779 -0.0169388 0)
(7.56047 -0.0214235 0)
(7.57257 -0.0257343 0)
(7.58411 -0.0299023 0)
(7.59515 -0.0339656 0)
(7.60572 -0.0379668 0)
(7.61586 -0.0419519 0)
(7.62558 -0.0459689 0)
(7.63492 -0.0500679 0)
(7.6439 -0.0542999 0)
(7.65251 -0.0587169 0)
(7.66076 -0.0633703 0)
(7.66864 -0.0683096 0)
(7.67611 -0.0735802 0)
(7.68313 -0.0792201 0)
(7.68965 -0.0852573 0)
(7.69559 -0.0917016 0)
(7.70087 -0.0985524 0)
(7.70541 -0.105745 0)
(7.33349 0.00327567 0)
(7.33862 0.00936605 0)
(7.34923 0.0136958 0)
(7.3634 0.0157019 0)
(7.37953 0.0155646 0)
(7.39676 0.0136811 0)
(7.41444 0.0104733 0)
(7.43206 0.00635922 0)
(7.44932 0.00170156 0)
(7.46605 -0.00322326 0)
(7.48215 -0.00821872 0)
(7.49756 -0.0131532 0)
(7.51229 -0.0179471 0)
(7.52634 -0.0225607 0)
(7.53972 -0.0269827 0)
(7.55247 -0.0312222 0)
(7.56462 -0.035302 0)
(7.5762 -0.0392542 0)
(7.58724 -0.0431167 0)
(7.59777 -0.0469312 0)
(7.60783 -0.0507413 0)
(7.61744 -0.0545921 0)
(7.62661 -0.0585286 0)
(7.63537 -0.0625957 0)
(7.64371 -0.0668367 0)
(7.65164 -0.0712926 0)
(7.65914 -0.0760001 0)
(7.66619 -0.08099 0)
(7.67275 -0.0862841 0)
(7.67877 -0.0918934 0)
(7.68422 -0.0978121 0)
(7.689 -0.104024 0)
(7.69309 -0.110461 0)
(7.33344 0.00168338 0)
(7.33805 0.00473682 0)
(7.34765 0.00656199 0)
(7.36066 0.00672865 0)
(7.37572 0.00533432 0)
(7.39206 0.00265754 0)
(7.40906 -0.000986256 0)
(7.42621 -0.0052778 0)
(7.44316 -0.00993532 0)
(7.45973 -0.0147405 0)
(7.47576 -0.0195378 0)
(7.49118 -0.0242244 0)
(7.50596 -0.0287409 0)
(7.52008 -0.0330611 0)
(7.53353 -0.0371835 0)
(7.54635 -0.0411237 0)
(7.55854 -0.044909 0)
(7.57014 -0.0485741 0)
(7.58117 -0.0521583 0)
(7.59166 -0.0557034 0)
(7.60163 -0.0592518 0)
(7.61111 -0.0628458 0)
(7.62011 -0.0665265 0)
(7.62866 -0.0703328 0)
(7.63674 -0.0743008 0)
(7.64437 -0.0784626 0)
(7.65153 -0.0828443 0)
(7.6582 -0.0874654 0)
(7.66436 -0.0923355 0)
(7.66998 -0.0974539 0)
(7.67502 -0.102805 0)
(7.67942 -0.108364 0)
(7.68319 -0.114064 0)
(7.33341 0.000196102 0)
(7.33764 0.000396814 0)
(7.34651 -0.000199167 0)
(7.35867 -0.0018975 0)
(7.37294 -0.00464204 0)
(7.38862 -0.00823767 0)
(7.40512 -0.0124534 0)
(7.42193 -0.0170531 0)
(7.4387 -0.0218273 0)
(7.45518 -0.0266137 0)
(7.47122 -0.0312981 0)
(7.48671 -0.0358087 0)
(7.50158 -0.0401079 0)
(7.51579 -0.0441856 0)
(7.52935 -0.0480514 0)
(7.54225 -0.0517287 0)
(7.55451 -0.05525 0)
(7.56614 -0.0586534 0)
(7.57717 -0.0619798 0)
(7.58761 -0.0652712 0)
(7.59751 -0.0685688 0)
(7.60687 -0.0719123 0)
(7.61571 -0.075339 0)
(7.62405 -0.0788828 0)
(7.6319 -0.0825734 0)
(7.63925 -0.0864352 0)
(7.64611 -0.0904862 0)
(7.65245 -0.0947371 0)
(7.65828 -0.099189 0)
(7.66356 -0.103833 0)
(7.66827 -0.108649 0)
(7.67239 -0.113606 0)
(7.67592 -0.118643 0)
(7.33338 -0.00122465 0)
(7.33736 -0.00376113 0)
(7.34573 -0.00673076 0)
(7.35731 -0.010322 0)
(7.37105 -0.014491 0)
(7.3863 -0.0190969 0)
(7.40249 -0.0239723 0)
(7.41911 -0.0289493 0)
(7.43579 -0.033882 0)
(7.45228 -0.038661 0)
(7.46838 -0.0432151 0)
(7.48397 -0.047506 0)
(7.49895 -0.051523 0)
(7.51329 -0.055276 0)
(7.52695 -0.05879 0)
(7.53994 -0.0620997 0)
(7.55226 -0.0652462 0)
(7.56391 -0.068273 0)
(7.57494 -0.0712247 0)
(7.58534 -0.0741448 0)
(7.59516 -0.0770745 0)
(7.6044 -0.080052 0)
(7.61308 -0.0831118 0)
(7.62123 -0.0862836 0)
(7.62885 -0.0895922 0)
(7.63596 -0.0930562 0)
(7.64254 -0.0966875 0)
(7.6486 -0.10049 0)
(7.65414 -0.104461 0)
(7.65914 -0.108585 0)
(7.6636 -0.11284 0)
(7.66751 -0.117196 0)
(7.67088 -0.121596 0)
(7.33337 -0.00261479 0)
(7.3372 -0.00783888 0)
(7.34529 -0.0131787 0)
(7.35655 -0.0187148 0)
(7.37001 -0.0244009 0)
(7.38508 -0.0301348 0)
(7.40118 -0.0358017 0)
(7.41781 -0.0412929 0)
(7.43458 -0.04652 0)
(7.45121 -0.0514229 0)
(7.46749 -0.055971 0)
(7.48327 -0.0601584 0)
(7.49845 -0.0640001 0)
(7.51297 -0.0675258 0)
(7.52679 -0.0707758 0)
(7.53991 -0.0737966 0)
(7.55232 -0.0766376 0)
(7.56403 -0.0793486 0)
(7.57506 -0.0819783 0)
(7.58544 -0.0845722 0)
(7.59518 -0.0871726 0)
(7.60431 -0.089817 0)
(7.61285 -0.0925379 0)
(7.62083 -0.0953625 0)
(7.62824 -0.0983119 0)
(7.63511 -0.101401 0)
(7.64145 -0.104637 0)
(7.64727 -0.10802 0)
(7.65255 -0.111544 0)
(7.65732 -0.115193 0)
(7.66157 -0.118943 0)
(7.66529 -0.122765 0)
(7.66853 -0.126609 0)
(7.33336 -0.00400888 0)
(7.33715 -0.0119323 0)
(7.34515 -0.0196735 0)
(7.35633 -0.0272041 0)
(7.36976 -0.0344584 0)
(7.38486 -0.0413546 0)
(7.40106 -0.0478171 0)
(7.41785 -0.0537894 0)
(7.43483 -0.059239 0)
(7.4517 -0.0641587 0)
(7.46823 -0.0685643 0)
(7.48426 -0.0724899 0)
(7.49968 -0.075983 0)
(7.51441 -0.0790996 0)
(7.52842 -0.0819004 0)
(7.54168 -0.0844474 0)
(7.55419 -0.0868016 0)
(7.56597 -0.0890209 0)
(7.57702 -0.0911594 0)
(7.58737 -0.0932659 0)
(7.59706 -0.0953838 0)
(7.60609 -0.0975506 0)
(7.6145 -0.0997975 0)
(7.6223 -0.10215 0)
(7.62953 -0.104625 0)
(7.6362 -0.107236 0)
(7.64232 -0.109987 0)
(7.64791 -0.112876 0)
(7.65298 -0.115895 0)
(7.65755 -0.119027 0)
(7.66163 -0.12225 0)
(7.66522 -0.125538 0)
(7.66837 -0.128848 0)
(7.33337 -0.00544378 0)
(7.33721 -0.0161535 0)
(7.34533 -0.0263992 0)
(7.35671 -0.0360532 0)
(7.37041 -0.0450343 0)
(7.38585 -0.0532802 0)
(7.40245 -0.0607507 0)
(7.41968 -0.0674337 0)
(7.43711 -0.0733433 0)
(7.45443 -0.0785158 0)
(7.4714 -0.0830059 0)
(7.48783 -0.0868815 0)
(7.5036 -0.0902191 0)
(7.51864 -0.0930991 0)
(7.53289 -0.0956023 0)
(7.54635 -0.0978073 0)
(7.559 -0.0997878 0)
(7.57086 -0.101612 0)
(7.58194 -0.103342 0)
(7.59228 -0.105031 0)
(7.60191 -0.106726 0)
(7.61084 -0.108467 0)
(7.61912 -0.110286 0)
(7.62676 -0.112207 0)
(7.63381 -0.114247 0)
(7.64028 -0.116419 0)
(7.64619 -0.118724 0)
(7.65157 -0.121161 0)
(7.65643 -0.12372 0)
(7.66081 -0.126387 0)
(7.66471 -0.129141 0)
(7.66816 -0.131958 0)
(7.6712 -0.1348 0)
(7.33338 -0.00695767 0)
(7.33737 -0.0205975 0)
(7.3458 -0.0334533 0)
(7.3576 -0.0452757 0)
(7.3718 -0.0559506 0)
(7.38778 -0.0654272 0)
(7.40496 -0.0737047 0)
(7.42277 -0.0808305 0)
(7.44079 -0.0868848 0)
(7.45867 -0.0919669 0)
(7.47617 -0.0961875 0)
(7.49308 -0.0996619 0)
(7.50928 -0.102505 0)
(7.52469 -0.104827 0)
(7.53926 -0.106733 0)
(7.55296 -0.108319 0)
(7.56579 -0.10967 0)
(7.57778 -0.110866 0)
(7.58893 -0.111972 0)
(7.59929 -0.113047 0)
(7.60888 -0.114141 0)
(7.61774 -0.115293 0)
(7.6259 -0.116536 0)
(7.63341 -0.117893 0)
(7.64029 -0.119381 0)
(7.64658 -0.12101 0)
(7.6523 -0.122782 0)
(7.65749 -0.124696 0)
(7.66217 -0.126741 0)
(7.66637 -0.128906 0)
(7.67013 -0.131171 0)
(7.67347 -0.133518 0)
(7.67644 -0.135912 0)
(7.33341 -0.00860422 0)
(7.3377 -0.0254543 0)
(7.34675 -0.0412205 0)
(7.35938 -0.0555549 0)
(7.37453 -0.0683308 0)
(7.39154 -0.0795057 0)
(7.40975 -0.0890965 0)
(7.42856 -0.0971807 0)
(7.44751 -0.103877 0)
(7.46623 -0.109326 0)
(7.48447 -0.113683 0)
(7.50203 -0.117105 0)
(7.51878 -0.119744 0)
(7.53464 -0.121747 0)
(7.54956 -0.123247 0)
(7.56354 -0.124364 0)
(7.57656 -0.125206 0)
(7.58867 -0.125865 0)
(7.59988 -0.126421 0)
(7.61023 -0.126941 0)
(7.61977 -0.12748 0)
(7.62854 -0.128082 0)
(7.63658 -0.128781 0)
(7.64392 -0.129604 0)
(7.65062 -0.130568 0)
(7.65671 -0.131682 0)
(7.66222 -0.13295 0)
(7.6672 -0.134369 0)
(7.67167 -0.135932 0)
(7.67568 -0.137627 0)
(7.67925 -0.139437 0)
(7.68242 -0.141345 0)
(7.68522 -0.14332 0)
(7.33344 -0.0104283 0)
(7.3381 -0.030765 0)
(7.34791 -0.0495256 0)
(7.36154 -0.0662038 0)
(7.37779 -0.0806658 0)
(7.39596 -0.0929286 0)
(7.41536 -0.103101 0)
(7.43534 -0.111364 0)
(7.4554 -0.117934 0)
(7.47516 -0.123033 0)
(7.49435 -0.126878 0)
(7.51275 -0.129675 0)
(7.53023 -0.131615 0)
(7.5467 -0.132872 0)
(7.56213 -0.1336 0)
(7.5765 -0.133934 0)
(7.58983 -0.133993 0)
(7.60215 -0.133879 0)
(7.61349 -0.133675 0)
(7.62391 -0.133454 0)
(7.63344 -0.133273 0)
(7.64216 -0.133179 0)
(7.65009 -0.133206 0)
(7.6573 -0.133382 0)
(7.66384 -0.133723 0)
(7.66975 -0.13424 0)
(7.67507 -0.134937 0)
(7.67985 -0.135813 0)
(7.68413 -0.136861 0)
(7.68796 -0.138071 0)
(7.69136 -0.139428 0)
(7.69439 -0.140919 0)
(7.69709 -0.142515 0)
(7.33352 -0.0125504 0)
(7.33892 -0.0370821 0)
(7.3502 -0.0597046 0)
(7.36568 -0.0797925 0)
(7.38392 -0.0971725 0)
(7.40407 -0.111811 0)
(7.42533 -0.123792 0)
(7.44699 -0.133322 0)
(7.46853 -0.140669 0)
(7.48957 -0.146127 0)
(7.50984 -0.149989 0)
(7.52915 -0.152535 0)
(7.54737 -0.154024 0)
(7.56444 -0.154684 0)
(7.58034 -0.154719 0)
(7.59506 -0.1543 0)
(7.60863 -0.153573 0)
(7.62111 -0.152662 0)
(7.63252 -0.151667 0)
(7.64295 -0.150667 0)
(7.65243 -0.149729 0)
(7.66104 -0.148901 0)
(7.66883 -0.148222 0)
(7.67586 -0.147718 0)
(7.68219 -0.147407 0)
(7.68787 -0.1473 0)
(7.69296 -0.1474 0)
(7.69749 -0.147706 0)
(7.70152 -0.148212 0)
(7.70509 -0.148908 0)
(7.70825 -0.14978 0)
(7.71104 -0.150817 0)
(7.71349 -0.151987 0)
(7.33356 -0.0149783 0)
(7.33955 -0.0439069 0)
(7.35213 -0.0698314 0)
(7.36932 -0.0920344 0)
(7.3895 -0.110582 0)
(7.41175 -0.125701 0)
(7.43518 -0.137692 0)
(7.45896 -0.146923 0)
(7.48249 -0.153768 0)
(7.50536 -0.158585 0)
(7.52724 -0.161708 0)
(7.54793 -0.163446 0)
(7.56732 -0.164076 0)
(7.58535 -0.163844 0)
(7.60201 -0.162965 0)
(7.61732 -0.161623 0)
(7.63134 -0.159975 0)
(7.64412 -0.158154 0)
(7.65573 -0.156267 0)
(7.66625 -0.154402 0)
(7.67576 -0.152628 0)
(7.68432 -0.151 0)
(7.69201 -0.149557 0)
(7.6989 -0.14833 0)
(7.70506 -0.147337 0)
(7.71054 -0.14659 0)
(7.71541 -0.146094 0)
(7.71972 -0.145849 0)
(7.72353 -0.14585 0)
(7.72688 -0.146088 0)
(7.72983 -0.14655 0)
(7.73243 -0.147227 0)
(7.73473 -0.148088 0)
(7.33381 -0.0181626 0)
(7.34178 -0.0537143 0)
(7.35772 -0.0859666 0)
(7.37866 -0.113809 0)
(7.40237 -0.13701 0)
(7.42778 -0.155594 0)
(7.45395 -0.169866 0)
(7.48006 -0.180352 0)
(7.50558 -0.187624 0)
(7.53011 -0.192235 0)
(7.5534 -0.194698 0)
(7.57527 -0.195471 0)
(7.59563 -0.194945 0)
(7.61444 -0.193455 0)
(7.63172 -0.191277 0)
(7.6475 -0.188637 0)
(7.66185 -0.18572 0)
(7.67485 -0.182675 0)
(7.68657 -0.179617 0)
(7.6971 -0.17664 0)
(7.70654 -0.173811 0)
(7.71496 -0.171184 0)
(7.72245 -0.168797 0)
(7.7291 -0.166676 0)
(7.73497 -0.164837 0)
(7.74013 -0.16329 0)
(7.74465 -0.162039 0)
(7.7486 -0.161081 0)
(7.75202 -0.160412 0)
(7.75498 -0.160023 0)
(7.75753 -0.159902 0)
(7.75971 -0.160037 0)
(7.76157 -0.160397 0)
(7.3337 -0.0216089 0)
(7.34211 -0.0621222 0)
(7.36 -0.0964901 0)
(7.38393 -0.124673 0)
(7.41139 -0.147581 0)
(7.441 -0.165718 0)
(7.4714 -0.179551 0)
(7.50147 -0.18963 0)
(7.53051 -0.196486 0)
(7.55808 -0.200614 0)
(7.58389 -0.202489 0)
(7.60779 -0.202552 0)
(7.62974 -0.2012 0)
(7.64974 -0.198782 0)
(7.66787 -0.195598 0)
(7.68422 -0.191905 0)
(7.6989 -0.187912 0)
(7.71202 -0.183791 0)
(7.7237 -0.17968 0)
(7.73407 -0.175684 0)
(7.74323 -0.171886 0)
(7.75131 -0.168345 0)
(7.75839 -0.165103 0)
(7.76457 -0.162191 0)
(7.76994 -0.159624 0)
(7.77457 -0.157414 0)
(7.77855 -0.155562 0)
(7.78193 -0.154067 0)
(7.78479 -0.152925 0)
(7.78718 -0.152127 0)
(7.78918 -0.151661 0)
(7.79083 -0.151518 0)
(7.79221 -0.151659 0)
(7.33482 -0.027982 0)
(7.34953 -0.0828485 0)
(7.3752 -0.130452 0)
(7.40556 -0.168926 0)
(7.43784 -0.198608 0)
(7.47125 -0.220287 0)
(7.5047 -0.235204 0)
(7.53724 -0.244683 0)
(7.5683 -0.249863 0)
(7.5975 -0.2517 0)
(7.62459 -0.250996 0)
(7.64946 -0.248403 0)
(7.67209 -0.244444 0)
(7.69254 -0.239537 0)
(7.71089 -0.234017 0)
(7.72729 -0.228146 0)
(7.74188 -0.222132 0)
(7.75481 -0.216136 0)
(7.76623 -0.210282 0)
(7.77629 -0.204664 0)
(7.78512 -0.199351 0)
(7.79285 -0.19439 0)
(7.79959 -0.189815 0)
(7.80545 -0.185645 0)
(7.81051 -0.181893 0)
(7.81487 -0.178562 0)
(7.8186 -0.175652 0)
(7.82177 -0.173161 0)
(7.82445 -0.171083 0)
(7.82669 -0.169414 0)
(7.82856 -0.168145 0)
(7.83011 -0.167271 0)
(7.83141 -0.16675 0)
(7.3338 -0.0317756 0)
(7.34766 -0.0863939 0)
(7.37779 -0.129352 0)
(7.41577 -0.164757 0)
(7.45671 -0.193871 0)
(7.49835 -0.216364 0)
(7.5388 -0.23267 0)
(7.57707 -0.243552 0)
(7.61286 -0.24975 0)
(7.64611 -0.252059 0)
(7.67684 -0.251279 0)
(7.70519 -0.248145 0)
(7.7313 -0.243294 0)
(7.75533 -0.237266 0)
(7.77742 -0.2305 0)
(7.79771 -0.223347 0)
(7.81632 -0.216076 0)
(7.83338 -0.208893 0)
(7.84899 -0.201948 0)
(7.86327 -0.19535 0)
(7.87632 -0.189172 0)
(7.88825 -0.183461 0)
(7.89913 -0.178244 0)
(7.90907 -0.173533 0)
(7.91814 -0.169331 0)
(7.92642 -0.165632 0)
(7.93397 -0.162428 0)
(7.94086 -0.159711 0)
(7.94716 -0.157475 0)
(7.95292 -0.155715 0)
(7.95821 -0.154438 0)
(7.96313 -0.153648 0)
(7.96776 -0.153317 0)
(7.33892 -0.0543073 0)
(7.37188 -0.151329 0)
(7.41454 -0.220355 0)
(7.45795 -0.267056 0)
(7.50425 -0.297608 0)
(7.55431 -0.315977 0)
(7.6066 -0.325867 0)
(7.66 -0.329967 0)
(7.71361 -0.329979 0)
(7.7664 -0.327067 0)
(7.81746 -0.322047 0)
(7.86615 -0.315501 0)
(7.91197 -0.307867 0)
(7.95465 -0.299489 0)
(7.99402 -0.290647 0)
(8.03009 -0.281573 0)
(8.0629 -0.272463 0)
(8.09261 -0.263477 0)
(8.1194 -0.254745 0)
(8.14346 -0.24637 0)
(8.16501 -0.238427 0)
(8.18428 -0.230969 0)
(8.20146 -0.224034 0)
(8.21676 -0.217641 0)
(8.23036 -0.211798 0)
(8.24242 -0.206508 0)
(8.25308 -0.201767 0)
(8.26247 -0.197573 0)
(8.27071 -0.193931 0)
(8.2779 -0.190849 0)
(8.28413 -0.188382 0)
(8.2895 -0.186536 0)
(8.29418 -0.185483 0)
(7.33755 -0.0403406 0)
(7.38843 -0.105542 0)
(7.4775 -0.163123 0)
(7.57887 -0.218669 0)
(7.68643 -0.265912 0)
(7.79503 -0.302507 0)
(7.8987 -0.329102 0)
(7.99395 -0.346399 0)
(8.07883 -0.355488 0)
(8.15228 -0.357842 0)
(8.2141 -0.354933 0)
(8.26473 -0.348083 0)
(8.30494 -0.338435 0)
(8.33574 -0.326932 0)
(8.35821 -0.314327 0)
(8.37346 -0.301207 0)
(8.38253 -0.288015 0)
(8.38638 -0.275078 0)
(8.38587 -0.262631 0)
(8.38173 -0.25083 0)
(8.37463 -0.239774 0)
(8.36509 -0.229517 0)
(8.35359 -0.220079 0)
(8.34049 -0.211455 0)
(8.32613 -0.203622 0)
(8.31073 -0.196543 0)
(8.2945 -0.190177 0)
(8.27759 -0.184482 0)
(8.2601 -0.179426 0)
(8.24204 -0.17499 0)
(8.22356 -0.171269 0)
(8.20436 -0.168224 0)
(8.18509 -0.166797 0)
(7.39944 -0.196772 0)
(7.59547 -0.376067 0)
(7.76795 -0.458943 0)
(7.89478 -0.512745 0)
(7.97796 -0.541326 0)
(8.01564 -0.550533 0)
(8.01206 -0.547006 0)
(7.97563 -0.534108 0)
(7.91402 -0.514354 0)
(7.83383 -0.490016 0)
(7.74086 -0.462896 0)
(7.63983 -0.434394 0)
(7.53447 -0.405597 0)
(7.4276 -0.377313 0)
(7.32131 -0.350118 0)
(7.21708 -0.324394 0)
(7.11594 -0.300371 0)
(7.01852 -0.278164 0)
(6.92522 -0.257803 0)
(6.83619 -0.239258 0)
(6.75147 -0.222456 0)
(6.67097 -0.207301 0)
(6.59454 -0.193678 0)
(6.522 -0.181463 0)
(6.45311 -0.170527 0)
(6.38765 -0.160743 0)
(6.32537 -0.151971 0)
(6.266 -0.144086 0)
(6.20927 -0.136928 0)
(6.1548 -0.130359 0)
(6.10224 -0.12428 0)
(6.05056 -0.117925 0)
(6.00018 -0.114577 0)
(7.16013 -0.185892 0)
(6.91095 -0.345203 0)
(6.49981 -0.392541 0)
(6.03616 -0.394031 0)
(5.59611 -0.365941 0)
(5.1799 -0.322099 0)
(4.79162 -0.273423 0)
(4.43803 -0.225537 0)
(4.1197 -0.181425 0)
(3.83492 -0.142566 0)
(3.58168 -0.109357 0)
(3.3574 -0.0816057 0)
(3.15922 -0.0588276 0)
(2.98434 -0.0403999 0)
(2.83006 -0.0256694 0)
(2.69391 -0.0140194 0)
(2.5736 -0.0048995 0)
(2.46711 0.0021638 0)
(2.37263 0.00756794 0)
(2.28856 0.0116409 0)
(2.21351 0.0146506 0)
(2.14627 0.0168144 0)
(2.08578 0.0183091 0)
(2.03113 0.0192787 0)
(1.98154 0.0198467 0)
(1.93634 0.0201195 0)
(1.89495 0.020215 0)
(1.85698 0.0202523 0)
(1.82192 0.0204484 0)
(1.78994 0.0211052 0)
(1.76015 0.0225333 0)
(1.73449 0.0272731 0)
(1.71108 0.0224931 0)
(1.14641 0.146178 0)
(1.92362 0.592584 0)
(2.91229 0.740939 0)
(3.62223 0.545937 0)
(3.96823 0.156001 0)
(3.99326 -0.219961 0)
(3.87827 -0.486081 0)
(3.82762 -0.684533 0)
(3.92461 -0.902642 0)
(4.11094 -1.17139 0)