/*--------------------------------*- C++ -*----------------------------------*\
  =========                 |
  \\      /  F ield         | OpenFOAM: The Open Source CFD Toolbox
   \\    /   O peration     | Website:  https://openfoam.org
    \\  /    A nd           | Version:  10
     \\/     M anipulation  |
\*---------------------------------------------------------------------------*/
FoamFile
{
    format      ascii;
    class       volScalarField;
    location    "0.015";
    object      p;
}
// * * * * * * * * * * * * * * * * * * * * * * * * * * * * * * * * * * * * * //

dimensions      [0 2 -2 0 0 0 0];

internalField   nonuniform List<scalar> 
6820
(
-9.06137
-9.3673
-9.42378
-9.45473
-9.50614
-9.55487
-9.60132
-9.65002
-9.70149
-9.75571
-9.81298
-9.87339
-9.93664
-10.0023
-10.0697
-10.1383
-10.2075
-10.2769
-10.3466
-10.4214
-10.5059
-10.5991
-10.7012
-10.8129
-10.9354
-11.0701
-11.2187
-11.3835
-11.5685
-11.7774
-12.0241
-12.3078
-12.7095
-9.26069
-9.38929
-9.43582
-9.4662
-9.51131
-9.55636
-9.60047
-9.64713
-9.69671
-9.74907
-9.80439
-9.86273
-9.92386
-9.98745
-10.0531
-10.1203
-10.1891
-10.2596
-10.3334
-10.4129
-10.4985
-10.5918
-10.6936
-10.8048
-10.9265
-11.06
-11.2069
-11.3694
-11.5503
-11.7533
-11.984
-12.2482
-12.5416
-9.25978
-9.34899
-9.41743
-9.45876
-9.50578
-9.55314
-9.59908
-9.64658
-9.69643
-9.74861
-9.80334
-9.86075
-9.92068
-9.98295
-10.0473
-10.1135
-10.1817
-10.2523
-10.326
-10.4046
-10.4896
-10.5821
-10.6829
-10.7928
-10.9129
-11.0442
-11.1881
-11.3463
-11.521
-11.7138
-11.9277
-12.1606
-12.4068
-9.31483
-9.38816
-9.4457
-9.48023
-9.5203
-9.56312
-9.60579
-9.65043
-9.69778
-9.74774
-9.80039
-9.85584
-9.9139
-9.97446
-10.0372
-10.1022
-10.1694
-10.2392
-10.313
-10.3917
-10.4767
-10.5686
-10.6685
-10.7769
-10.8949
-11.0235
-11.1638
-11.317
-11.4843
-11.6669
-11.8643
-12.0745
-12.2857
-9.34232
-9.3846
-9.43324
-9.47041
-9.51137
-9.55502
-9.59873
-9.64401
-9.69161
-9.74153
-9.79382
-9.84866
-9.90589
-9.96553
-10.0274
-10.0916
-10.1581
-10.2275
-10.3009
-10.3789
-10.4627
-10.5531
-10.651
-10.7571
-10.8722
-10.9971
-11.1327
-11.2798
-11.4389
-11.6102
-11.7926
-11.9828
-12.1719
-9.36912
-9.40326
-9.44992
-9.48699
-9.52483
-9.56527
-9.60642
-9.64924
-9.69445
-9.74208
-9.79212
-9.8448
-9.89998
-9.95757
-10.0173
-10.0797
-10.1448
-10.213
-10.2851
-10.3619
-10.4442
-10.533
-10.6288
-10.7322
-10.844
-10.9648
-11.0951
-11.2355
-11.3861
-11.5466
-11.7155
-11.8899
-12.0637
-9.39031
-9.41348
-9.45107
-9.48455
-9.51981
-9.55862
-9.59902
-9.64126
-9.68584
-9.73278
-9.78196
-9.83361
-9.88772
-9.94455
-10.0034
-10.0647
-10.1287
-10.1959
-10.267
-10.3425
-10.4232
-10.5099
-10.603
-10.7032
-10.811
-10.927
-11.0514
-11.1846
-11.3264
-11.4764
-11.633
-11.794
-11.9556
-9.40799
-9.42574
-9.4595
-9.49267
-9.52706
-9.56439
-9.60333
-9.64396
-9.68677
-9.73187
-9.77914
-9.82908
-9.88067
-9.93502
-9.99197
-10.0513
-10.1134
-10.1787
-10.2477
-10.3211
-10.3994
-10.4832
-10.5731
-10.6695
-10.7728
-10.8834
-11.0015
-11.1272
-11.2602
-11.3999
-11.5452
-11.6945
-11.8455
-9.42267
-9.4362
-9.46468
-9.49459
-9.52603
-9.5607
-9.59763
-9.63661
-9.67787
-9.72144
-9.76695
-9.81558
-9.86635
-9.91904
-9.97437
-10.0322
-10.0927
-10.1564
-10.2237
-10.2951
-10.371
-10.452
-10.5385
-10.6308
-10.7293
-10.8343
-10.9457
-11.0636
-11.1877
-11.3175
-11.4521
-11.5903
-11.7311
-9.43477
-9.44554
-9.47039
-9.49853
-9.52873
-9.5621
-9.59783
-9.63555
-9.67543
-9.7176
-9.76196
-9.80795
-9.85656
-9.90716
-9.96024
-10.0158
-10.0741
-10.1353
-10.2
-10.2685
-10.3412
-10.4185
-10.5009
-10.5884
-10.6815
-10.7802
-10.8845
-10.9944
-11.1095
-11.2293
-11.3533
-11.4807
-11.611
-9.44465
-9.45345
-9.47499
-9.50063
-9.52853
-9.55952
-9.59303
-9.62866
-9.6665
-9.70654
-9.74903
-9.79325
-9.83989
-9.88863
-9.93969
-9.99319
-10.0493
-10.1083
-10.1704
-10.2361
-10.3057
-10.3794
-10.4575
-10.5403
-10.6278
-10.7201
-10.8172
-10.919
-11.0251
-11.1351
-11.2487
-11.3652
-11.4846
-9.45252
-9.45991
-9.47878
-9.50235
-9.52856
-9.55793
-9.58996
-9.62417
-9.66052
-9.69892
-9.73951
-9.7819
-9.82644
-9.873
-9.92173
-9.97275
-10.0262
-10.0823
-10.1414
-10.2036
-10.2693
-10.3387
-10.4119
-10.4892
-10.5706
-10.656
-10.7455
-10.8388
-10.9356
-11.0356
-11.1385
-11.2439
-11.3517
-9.45857
-9.46489
-9.48151
-9.50299
-9.52728
-9.55461
-9.58457
-9.61672
-9.65097
-9.68724
-9.72558
-9.76578
-9.80798
-9.85217
-9.89841
-9.94683
-9.99753
-10.0507
-10.1066
-10.1653
-10.2271
-10.2921
-10.3604
-10.4322
-10.5074
-10.5859
-10.6677
-10.7526
-10.8402
-10.9302
-11.0225
-11.1166
-11.2124
-9.46289
-9.46839
-9.48312
-9.5027
-9.52524
-9.55079
-9.57899
-9.60941
-9.64188
-9.6763
-9.71264
-9.75076
-9.79072
-9.83251
-9.87618
-9.92182
-9.96953
-10.0194
-10.0717
-10.1265
-10.1839
-10.244
-10.307
-10.3727
-10.4413
-10.5125
-10.5862
-10.6623
-10.7404
-10.8203
-10.9016
-10.9841
-11.0675
-9.4656
-9.47044
-9.48355
-9.50135
-9.52212
-9.5458
-9.57205
-9.60044
-9.63079
-9.66299
-9.69697
-9.73265
-9.77003
-9.80911
-9.84993
-9.89253
-9.937
-9.98343
-10.0319
-10.0826
-10.1354
-10.1906
-10.248
-10.3077
-10.3696
-10.4335
-10.4992
-10.5666
-10.6353
-10.705
-10.7755
-10.8464
-10.9174
-9.46674
-9.47103
-9.48273
-9.49888
-9.51796
-9.53986
-9.56424
-9.5907
-9.61905
-9.64915
-9.68091
-9.71424
-9.74912
-9.78552
-9.82345
-9.86295
-9.90406
-9.94682
-9.99131
-10.0376
-10.0856
-10.1355
-10.1871
-10.2404
-10.2953
-10.3516
-10.4091
-10.4676
-10.5267
-10.5862
-10.6457
-10.705
-10.7635
-9.46638
-9.4702
-9.48066
-9.49526
-9.5127
-9.5328
-9.55526
-9.57969
-9.60587
-9.63367
-9.66298
-9.6937
-9.7258
-9.75924
-9.79402
-9.83014
-9.86762
-9.90648
-9.94674
-9.9884
-10.0315
-10.0759
-10.1216
-10.1684
-10.2163
-10.2651
-10.3144
-10.3641
-10.4138
-10.4632
-10.512
-10.5599
-10.6063
-9.46457
-9.46796
-9.4773
-9.49046
-9.5063
-9.52465
-9.5452
-9.5676
-9.59164
-9.61715
-9.64402
-9.67216
-9.70149
-9.73197
-9.76356
-9.79626
-9.83003
-9.86488
-9.90079
-9.93772
-9.97562
-10.0144
-10.054
-10.0943
-10.1351
-10.1761
-10.2172
-10.2581
-10.2984
-10.3378
-10.376
-10.4127
-10.4472
-9.46133
-9.46435
-9.47267
-9.48446
-9.49875
-9.51536
-9.534
-9.55433
-9.57614
-9.59926
-9.62357
-9.64896
-9.67534
-9.70267
-9.73087
-9.75993
-9.78979
-9.82042
-9.85178
-9.88381
-9.91642
-9.94952
-9.98297
-10.0166
-10.0503
-10.0837
-10.1167
-10.1489
-10.1801
-10.2098
-10.2378
-10.2637
-10.2869
-9.45671
-9.45938
-9.46676
-9.47726
-9.49004
-9.50493
-9.52166
-9.53992
-9.55948
-9.58019
-9.60191
-9.62452
-9.64792
-9.67204
-9.69682
-9.72218
-9.74807
-9.77443
-9.80117
-9.82822
-9.85548
-9.88281
-9.91007
-9.93707
-9.96363
-9.9895
-10.0144
-10.0381
-10.0603
-10.0806
-10.0987
-10.1143
-10.1267
-9.45076
-9.45311
-9.45959
-9.46886
-9.48017
-9.49337
-9.50819
-9.52436
-9.54164
-9.55989
-9.57894
-9.59868
-9.619
-9.63982
-9.66103
-9.68258
-9.70437
-9.72632
-9.74834
-9.77032
-9.79215
-9.81367
-9.83473
-9.85513
-9.87468
-9.89312
-9.91022
-9.92568
-9.93921
-9.9505
-9.95918
-9.96497
-9.96734
-9.44351
-9.44556
-9.4512
-9.45928
-9.46916
-9.48068
-9.49362
-9.50768
-9.52267
-9.53842
-9.55478
-9.57161
-9.58881
-9.60626
-9.62387
-9.64155
-9.6592
-9.67671
-9.69398
-9.71088
-9.72728
-9.74302
-9.75793
-9.77182
-9.78447
-9.79566
-9.80513
-9.81261
-9.81783
-9.82049
-9.82026
-9.81688
-9.80984
-9.43502
-9.43678
-9.44162
-9.44856
-9.45704
-9.46692
-9.47798
-9.48995
-9.50264
-9.51588
-9.52952
-9.54341
-9.55744
-9.57149
-9.58546
-9.59922
-9.61268
-9.62572
-9.63822
-9.65004
-9.66104
-9.67105
-9.6799
-9.6874
-9.69334
-9.6975
-9.69963
-9.69948
-9.6968
-9.69132
-9.68273
-9.67081
-9.6551
-9.42536
-9.42684
-9.43092
-9.43675
-9.44387
-9.45213
-9.46132
-9.4712
-9.48158
-9.49229
-9.50318
-9.51409
-9.52492
-9.53553
-9.5458
-9.55563
-9.56488
-9.57344
-9.58118
-9.58795
-9.59361
-9.59798
-9.6009
-9.60218
-9.60161
-9.59899
-9.59409
-9.58669
-9.57654
-9.56341
-9.54703
-9.52723
-9.50359
-9.41458
-9.41579
-9.41914
-9.42392
-9.42971
-9.43639
-9.44375
-9.45158
-9.45968
-9.46789
-9.47606
-9.48403
-9.49169
-9.49889
-9.50552
-9.51145
-9.51655
-9.5207
-9.52376
-9.52558
-9.52601
-9.5249
-9.52207
-9.51734
-9.51053
-9.50144
-9.48987
-9.47561
-9.45845
-9.4382
-9.41462
-9.38756
-9.35668
-9.40277
-9.40373
-9.40637
-9.41012
-9.41462
-9.41974
-9.42529
-9.43106
-9.43687
-9.44256
-9.44797
-9.45297
-9.45741
-9.46117
-9.46412
-9.46613
-9.46707
-9.46682
-9.46524
-9.46218
-9.45749
-9.45103
-9.44263
-9.43213
-9.41935
-9.40411
-9.38624
-9.36557
-9.3419
-9.31507
-9.2849
-9.25128
-9.21391
-9.39001
-9.39073
-9.39271
-9.39549
-9.39876
-9.4024
-9.40622
-9.41003
-9.41366
-9.41693
-9.41971
-9.42185
-9.42322
-9.42367
-9.42309
-9.42134
-9.41829
-9.41381
-9.40777
-9.40004
-9.39046
-9.3789
-9.3652
-9.34921
-9.33079
-9.30977
-9.286
-9.25934
-9.22963
-9.19675
-9.16053
-9.12092
-9.07766
-9.37641
-9.3769
-9.37824
-9.38007
-9.38213
-9.38428
-9.38635
-9.38815
-9.38953
-9.39033
-9.39041
-9.38961
-9.38782
-9.38491
-9.38074
-9.37519
-9.36813
-9.35945
-9.34902
-9.33669
-9.32235
-9.30586
-9.28708
-9.26589
-9.24214
-9.21572
-9.18648
-9.15431
-9.1191
-9.08074
-9.03912
-8.99422
-8.94582
-9.36208
-9.36237
-9.36313
-9.36412
-9.36512
-9.36596
-9.36648
-9.36652
-9.3659
-9.36448
-9.36211
-9.35866
-9.35399
-9.34798
-9.34051
-9.33146
-9.32069
-9.30811
-9.29357
-9.27697
-9.25818
-9.23709
-9.21358
-9.18753
-9.15883
-9.12738
-9.09307
-9.05582
-9.01554
-8.97216
-8.9256
-8.87586
-8.82278
-9.34711
-9.34719
-9.34738
-9.34749
-9.34733
-9.34674
-9.34558
-9.34367
-9.34087
-9.33704
-9.33205
-9.32577
-9.31808
-9.30885
-9.29798
-9.28535
-9.27084
-9.25435
-9.23576
-9.21498
-9.19189
-9.1664
-9.13841
-9.10781
-9.07453
-9.03848
-8.99958
-8.95778
-8.913
-8.86523
-8.8144
-8.76056
-8.70358
-9.33169
-9.33165
-9.33147
-9.33101
-9.33008
-9.3285
-9.32611
-9.32274
-9.31825
-9.31251
-9.30538
-9.29675
-9.28649
-9.2745
-9.26067
-9.2449
-9.22707
-9.2071
-9.18488
-9.16033
-9.13334
-9.10383
-9.07173
-9.03696
-8.99945
-8.95915
-8.91601
-8.86999
-8.82106
-8.76922
-8.71443
-8.65676
-8.59612
-9.31582
-9.31554
-9.31478
-9.31343
-9.31133
-9.30833
-9.30428
-9.29904
-9.29246
-9.28444
-9.27484
-9.26356
-9.25049
-9.23553
-9.21858
-9.19954
-9.17833
-9.15485
-9.12904
-9.10081
-9.07009
-9.03681
-9.00092
-8.96235
-8.92107
-8.87704
-8.83022
-8.78062
-8.72821
-8.67301
-8.61504
-8.55436
-8.49094
-9.29987
-9.29976
-9.29916
-9.29783
-9.29553
-9.29206
-9.28726
-9.28099
-9.27313
-9.26357
-9.25221
-9.23896
-9.22372
-9.2064
-9.18692
-9.1652
-9.14116
-9.11472
-9.08581
-9.05437
-9.02034
-8.98368
-8.94433
-8.90226
-8.85746
-8.80991
-8.7596
-8.70656
-8.65079
-8.59234
-8.53123
-8.46755
-8.40127
-9.28334
-9.28266
-9.2812
-9.27879
-9.27522
-9.27034
-9.26399
-9.25601
-9.24628
-9.23469
-9.22115
-9.20555
-9.18783
-9.16789
-9.14567
-9.12111
-9.09414
-9.06471
-9.03276
-8.99827
-8.96118
-8.92147
-8.87912
-8.83411
-8.78644
-8.7361
-8.68311
-8.62749
-8.56927
-8.50851
-8.44525
-8.37961
-8.31158
-9.26769
-9.26839
-9.26852
-9.26719
-9.26415
-9.25937
-9.25271
-9.24407
-9.2334
-9.22063
-9.20569
-9.18852
-9.16905
-9.14723
-9.12298
-9.09626
-9.06701
-9.03517
-9.00071
-8.9636
-8.9238
-8.88129
-8.83608
-8.78817
-8.73757
-8.6843
-8.62842
-8.56997
-8.509
-8.4456
-8.37982
-8.31178
-8.2415
-9.24924
-9.24786
-9.24655
-9.24415
-9.24016
-9.23444
-9.22673
-9.21689
-9.20485
-9.19052
-9.17386
-9.15479
-9.13328
-9.10929
-9.08278
-9.05372
-9.02209
-8.98787
-8.95105
-8.91162
-8.86958
-8.82493
-8.77768
-8.72785
-8.67545
-8.62052
-8.5631
-8.50322
-8.44095
-8.37635
-8.3095
-8.24052
-8.16943
-9.23682
-9.24098
-9.24349
-9.24251
-9.2391
-9.23353
-9.22553
-9.21507
-9.20222
-9.18696
-9.16925
-9.14903
-9.12629
-9.10096
-9.073
-9.04239
-9.00907
-8.97303
-8.93425
-8.89271
-8.84842
-8.80139
-8.75165
-8.69924
-8.6442
-8.5866
-8.52652
-8.46404
-8.39927
-8.33232
-8.26327
-8.19233
-8.11942
-9.206
-9.20674
-9.21088
-9.21132
-9.20881
-9.20395
-9.19619
-9.18554
-9.17214
-9.15599
-9.1371
-9.11549
-9.09117
-9.06415
-9.03445
-9.00208
-8.96706
-8.92941
-8.88915
-8.84632
-8.80095
-8.75306
-8.70269
-8.64986
-8.59461
-8.53696
-8.47697
-8.41466
-8.35011
-8.28339
-8.2146
-8.14387
-8.07133
-9.21535
-9.22327
-9.22762
-9.22619
-9.22279
-9.21684
-9.2079
-9.19635
-9.18226
-9.16554
-9.14617
-9.12411
-9.09933
-9.07178
-9.04143
-9.00825
-8.97221
-8.9333
-8.89152
-8.84688
-8.79942
-8.74917
-8.69619
-8.64056
-8.58236
-8.52168
-8.45865
-8.39337
-8.32599
-8.25663
-8.18542
-8.11252
-8.03795
-9.10286
-9.16762
-9.18516
-9.18668
-9.18855
-9.18599
-9.17828
-9.16697
-9.15244
-9.13471
-9.11389
-9.09011
-9.06342
-9.03388
-9.00153
-8.96643
-8.92864
-8.88821
-8.84522
-8.79973
-8.7518
-8.70151
-8.64889
-8.594
-8.53687
-8.47751
-8.41592
-8.35208
-8.28598
-8.2176
-8.14693
-8.07407
-7.99898
-13.1516
-13.1515
-12.0961
-12.1637
-12.8492
-14.3491
-16.828
-20.0499
-23.4326
-26.2801
-27.9109
-27.9458
-26.4335
-23.7798
-20.5286
-17.1586
-14.0035
-11.243
-8.92501
-7.0194
-5.46921
-4.21527
-3.20382
-2.38923
-1.73416
-1.20852
-0.788178
-0.45373
-0.189502
0.0173189
0.177293
0.299131
0.390061
0.456078
0.502079
0.532047
0.549244
0.556346
0.555539
0.548615
0.537036
0.521996
0.504463
0.485222
0.464904
0.444011
0.422943
0.402011
0.381454
0.361454
0.342142
0.323611
0.305922
0.289111
0.273192
0.258162
0.244009
0.230706
0.218224
0.206524
0.195568
0.185311
0.175711
0.166724
0.158305
0.150412
0.143004
0.136039
0.129481
0.123292
0.117438
0.111888
0.106611
0.101579
0.0967656
0.0921468
0.0877006
0.0834059
0.0792442
0.0751979
0.0712515
0.0673901
0.063601
0.0598718
0.0561919
0.052551
0.0489407
0.0453523
0.0417788
0.0382133
0.0346496
0.0310827
0.0275059
0.0239183
0.0203078
0.0166861
0.0130178
0.00936268
0.00559062
0.00195291
-12.934
-12.9809
-12.3923
-12.5466
-13.3638
-14.7726
-16.8055
-19.2979
-21.898
-24.0842
-25.3576
-25.3914
-24.1629
-21.947
-19.1695
-16.2349
-13.435
-10.9352
-8.79384
-7.00213
-5.52278
-4.3109
-3.32269
-2.5192
-1.86751
-1.34037
-0.915497
-0.574706
-0.303123
-0.0884834
0.0794092
0.209051
0.307491
0.380593
0.433224
0.469367
0.49228
0.504645
0.50867
0.506171
0.498634
0.48728
0.473104
0.456915
0.439369
0.420992
0.402205
0.383339
0.364653
0.346346
0.328565
0.311418
0.294979
0.279296
0.264395
0.250284
0.236959
0.224402
0.212591
0.201496
0.191083
0.181315
0.172153
0.163559
0.155493
0.147916
0.140791
0.134079
0.127747
0.121759
0.116086
0.110696
0.105561
0.100656
0.0959552
0.0914362
0.0870783
0.0828617
0.0787691
0.0747837
0.0708909
0.0670769
0.0633293
0.0596365
0.0559886
0.0523758
0.04879
0.0452231
0.0416683
0.0381192
0.0345699
0.0310157
0.0274501
0.0238723
0.0202709
0.0166568
0.0129962
0.00934687
0.00558246
0.00194894
-12.6783
-12.7829
-12.5643
-12.7737
-13.4818
-14.6412
-16.3083
-18.3679
-20.5046
-22.2814
-23.2846
-23.2579
-22.194
-20.3088
-17.9292
-15.3747
-12.8906
-10.6282
-8.65327
-6.97279
-5.56496
-4.39712
-3.43439
-2.64407
-1.99748
-1.4702
-1.04185
-0.695507
-0.417161
-0.195127
-0.0196127
0.11761
0.223436
0.303592
0.36285
0.40518
0.433845
0.451528
0.460452
0.462449
0.459031
0.45144
0.440697
0.427636
0.412935
0.397144
0.380705
0.363969
0.347214
0.330655
0.314457
0.298742
0.283598
0.269085
0.25524
0.242082
0.229616
0.217835
0.206722
0.196255
0.186407
0.177148
0.168443
0.160259
0.152561
0.145313
0.138482
0.132034
0.125938
0.120161
0.114675
0.109452
0.104466
0.0996932
0.0951098
0.0906948
0.0864291
0.082294
0.0782734
0.0743516
0.0705148
0.06675
0.0630457
0.059391
0.0557764
0.0521928
0.0486326
0.0450881
0.041553
0.0380212
0.0344869
0.0309459
0.027392
0.0238244
0.0202323
0.0166262
0.0129737
0.00933045
0.00557411
0.00194474
-12.5182
-12.6809
-12.667
-12.9182
-13.5831
-14.631
-16.0527
-17.7248
-19.395
-20.742
-21.4687
-21.3843
-20.4653
-18.8576
-16.8086
-14.5765
-12.3691
-10.3225
-8.50394
-6.93153
-5.59552
-4.47342
-3.53827
-2.76314
-2.12337
-1.59737
-1.16667
-0.81565
-0.531199
-0.30226
-0.119475
0.0250786
0.1381
0.225207
0.29107
0.339589
0.374019
0.397059
0.410932
0.417487
0.418253
0.414496
0.407257
0.397395
0.385609
0.372472
0.358445
0.3439
0.329134
0.314379
0.299814
0.285579
0.271774
0.258472
0.245721
0.233552
0.221977
0.211
0.200612
0.190799
0.181538
0.172807
0.164577
0.156819
0.149504
0.142599
0.136075
0.129902
0.124051
0.118493
0.113203
0.108155
0.103324
0.0986884
0.0942274
0.089921
0.0857514
0.0817014
0.0777559
0.0739004
0.0701221
0.0664087
0.0627497
0.0591347
0.0555549
0.0520019
0.0484684
0.0449473
0.0414327
0.0379187
0.0344001
0.0308729
0.0273312
0.0237744
0.020192
0.0165943
0.0129502
0.00931322
0.00556538
0.00194014
-12.3802
-12.5663
-12.6752
-12.9665
-13.5689
-14.4596
-15.6158
-16.9493
-18.271
-19.3287
-19.8795
-19.7628
-18.9542
-17.5659
-15.7911
-13.8355
-11.8718
-10.0204
-8.3481
-6.87987
-5.6152
-4.54001
-3.63421
-2.87608
-2.24481
-1.7215
-1.28958
-0.934796
-0.644945
-0.409633
-0.219973
-0.0683676
0.0516532
0.145562
0.217952
0.272651
0.312861
0.341276
0.360138
0.371303
0.376313
0.376453
0.372786
0.36619
0.357387
0.346968
0.335418
0.323125
0.310405
0.297508
0.284629
0.271922
0.2595
0.24745
0.235832
0.224686
0.214036
0.203893
0.194257
0.185121
0.176471
0.168289
0.160553
0.153238
0.14632
0.139773
0.133568
0.127681
0.122086
0.116756
0.11167
0.106803
0.102133
0.0976416
0.093308
0.0891148
0.0850453
0.0810839
0.0772167
0.0734303
0.0697129
0.0660531
0.0624411
0.0588675
0.0553241
0.0518029
0.0482972
0.0448005
0.0413072
0.037812
0.0343098
0.0307969
0.027268
0.0237222
0.02015
0.016561
0.0129258
0.0092953
0.00555654
0.00193499
-12.2589
-12.4629
-12.6452
-12.9558
-13.4972
-14.2642
-15.228
-16.3067
-17.3436
-18.1406
-18.5149
-18.3489
-17.6223
-16.4141
-14.8687
-13.149
-11.3988
-9.7237
-8.18734
-6.81889
-5.62453
-4.59698
-3.72198
-2.98254
-2.36134
-1.84211
-1.41015
-1.05254
-0.758032
-0.516928
-0.320832
-0.162499
-0.0357086
0.0648427
0.143639
0.204453
0.250442
0.284254
0.308128
0.32394
0.333245
0.337339
0.337304
0.334036
0.328278
0.320641
0.311627
0.301646
0.291029
0.280043
0.2689
0.257767
0.246773
0.236017
0.225569
0.215482
0.205788
0.196509
0.187653
0.179219
0.171203
0.16359
0.156366
0.149513
0.143008
0.136831
0.130959
0.125369
0.120039
0.114947
0.110073
0.105394
0.100893
0.0965509
0.0923502
0.0882747
0.0843095
0.0804405
0.0766548
0.0729404
0.0692864
0.0656825
0.0621196
0.0585892
0.0550835
0.0515955
0.0481189
0.0446476
0.0411765
0.0377007
0.0342156
0.0307177
0.027202
0.0236679
0.0201063
0.0165263
0.0129003
0.00927653
0.00554747
0.00192904
-12.1413
-12.3516
-12.5684
-12.881
-13.3629
-14.0126
-14.7976
-15.6489
-16.4468
-17.0415
-17.2914
-17.1
-16.4456
-15.3853
-14.031
-12.513
-10.9502
-9.43392
-8.02345
-6.74994
-5.62432
-4.64465
-3.80161
-3.08229
-2.47265
-1.95884
-1.52799
-1.16851
-0.870131
-0.623852
-0.421797
-0.257099
-0.123804
-0.0167964
0.0682806
0.135116
0.186829
0.226039
0.254954
0.275443
0.289079
0.297176
0.300827
0.300945
0.29829
0.293494
0.287076
0.279462
0.271003
0.261981
0.252623
0.243112
0.23359
0.224167
0.214928
0.205935
0.197231
0.188845
0.180796
0.173091
0.16573
0.158708
0.152016
0.14564
0.139565
0.133772
0.128245
0.122964
0.117911
0.113066
0.108412
0.10393
0.0996033
0.0954164
0.0913537
0.0874007
0.083544
0.079771
0.0760702
0.0724307
0.0688426
0.0652969
0.0617851
0.0582995
0.0548332
0.0513797
0.0479333
0.0444884
0.0410405
0.037585
0.0341177
0.0306354
0.0271334
0.0236114
0.0200608
0.0164903
0.0128739
0.00925699
0.00553832
0.00192235
-12.0222
-12.2316
-12.461
-12.7635
-13.1877
-13.7341
-14.373
-15.0459
-15.6569
-16.0882
-16.2297
-16.0075
-15.405
-14.4643
-13.2701
-11.9248
-10.5261
-9.15234
-7.85791
-6.67424
-5.61535
-4.6834
-3.87312
-3.17517
-2.57842
-2.07131
-1.64272
-1.28234
-0.980895
-0.730091
-0.522591
-0.351924
-0.212423
-0.0991795
-0.00797547
0.0647827
0.122147
0.166712
0.200667
0.225862
0.243866
0.256002
0.263383
0.266938
0.267442
0.265541
0.261773
0.256581
0.250332
0.243324
0.235801
0.227957
0.219949
0.211901
0.203908
0.196044
0.188361
0.1809
0.173685
0.166733
0.160051
0.153642
0.1475
0.141619
0.135989
0.130596
0.125426
0.120466
0.115699
0.111111
0.106685
0.102407
0.0982622
0.0942368
0.0903175
0.0864918
0.0827479
0.0790747
0.0754621
0.0719005
0.0683811
0.0648957
0.0614371
0.0579982
0.0545729
0.0511552
0.0477402
0.0443229
0.040899
0.0374646
0.0340157
0.0305496
0.0270621
0.0235526
0.0200135
0.0164527
0.0128464
0.00923658
0.00552899
0.00191482
-11.8979
-12.1001
-12.3264
-12.6085
-12.9769
-13.4308
-13.9432
-14.4643
-14.9188
-15.2167
-15.2739
-15.0326
-14.4771
-13.6373
-12.5781
-11.3809
-10.1258
-8.87996
-7.69214
-6.59301
-5.59848
-4.71369
-3.93667
-3.2611
-2.67844
-2.17923
-1.75399
-1.39369
-1.08999
-0.835341
-0.62294
-0.446733
-0.301358
-0.182125
-0.0849751
-0.00642117
0.0565177
0.106384
0.145345
0.175244
0.197641
0.213857
0.22501
0.232043
0.235751
0.236796
0.23573
0.233012
0.229023
0.224078
0.218435
0.212303
0.205852
0.199219
0.192509
0.185808
0.179179
0.172671
0.166318
0.160144
0.154165
0.148388
0.142817
0.137449
0.132279
0.127299
0.122501
0.117873
0.113404
0.109081
0.104892
0.100826
0.0968697
0.0930119
0.0892416
0.085548
0.0819212
0.0783517
0.0748306
0.0713499
0.0679017
0.0644791
0.0610757
0.0576852
0.0543024
0.0509221
0.0475397
0.044151
0.0407521
0.0373396
0.0339099
0.0304607
0.026988
0.0234916
0.0199644
0.0164138
0.0128179
0.00921535
0.00551955
0.00190653
-11.7665
-11.9567
-12.1704
-12.4261
-12.7413
-13.1136
-13.5193
-13.9169
-14.2471
-14.4398
-14.4294
-14.171
-13.6519
-12.8945
-11.9486
-10.8783
-9.74905
-8.6176
-7.52736
-6.50742
-5.57456
-4.73605
-3.99248
-3.34008
-2.77255
-2.28234
-1.86151
-1.50223
-1.1971
-0.939294
-0.722562
-0.541273
-0.390383
-0.265439
-0.16255
-0.0783499
-0.0099419
0.0451625
0.0890942
0.123674
0.150461
0.170776
0.185736
0.196293
0.203251
0.207284
0.208965
0.208767
0.207086
0.204251
0.200533
0.196156
0.191303
0.186122
0.180732
0.175228
0.169685
0.164159
0.158695
0.153325
0.148071
0.142948
0.137966
0.133128
0.128434
0.123883
0.119469
0.115185
0.111023
0.106976
0.103033
0.099186
0.0954251
0.0917411
0.0881252
0.0845686
0.0810633
0.0776012
0.0741753
0.0707784
0.0674042
0.0640467
0.0607005
0.0573604
0.0540217
0.0506801
0.0473316
0.0439725
0.0405996
0.0372098
0.0338001
0.0303683
0.0269111
0.0234282
0.0199134
0.0163733
0.0127884
0.00919323
0.00550996
0.00189746
-11.6273
-11.802
-11.997
-12.2225
-12.4875
-12.7876
-13.1024
-13.3973
-13.6253
-13.7324
-13.6682
-13.398
-12.9114
-12.2243
-11.3749
-10.414
-9.39499
-8.36579
-7.36462
-6.41855
-5.54447
-4.75106
-4.04085
-3.41216
-2.86064
-2.38043
-1.965
-1.60766
-1.30192
-1.04165
-0.821179
-0.635289
-0.479272
-0.348919
-0.240524
-0.150852
-0.0770985
-0.0168417
0.0320074
0.0712452
0.102412
0.126824
0.145607
0.159717
0.169962
0.177029
0.181502
0.183868
0.184536
0.183853
0.182103
0.179523
0.176307
0.172616
0.168582
0.164308
0.159881
0.155367
0.150818
0.146276
0.141769
0.137321
0.132947
0.128656
0.124456
0.120347
0.116329
0.112401
0.108558
0.104796
0.101108
0.0974873
0.0939286
0.0904246
0.0869686
0.0835539
0.0801744
0.0768237
0.0734961
0.0701862
0.0668886
0.0635986
0.0603118
0.0570238
0.0537308
0.0504292
0.0471159
0.0437875
0.0404416
0.0370753
0.0336863
0.0302726
0.0268314
0.0233625
0.0198606
0.0163314
0.0127578
0.00917026
0.00550029
0.00188764
-11.4804
-11.6372
-11.8099
-12.0036
-12.2217
-12.4585
-12.6962
-12.9067
-13.0526
-13.092
-12.9859
-12.7074
-12.248
-11.6198
-10.8521
-9.98536
-9.06288
-8.12495
-7.20487
-6.32741
-5.50907
-4.75933
-4.08214
-3.4775
-2.94269
-2.47334
-2.06422
-1.7097
-1.40415
-1.14213
-0.918514
-0.728525
-0.567788
-0.432355
-0.318711
-0.223762
-0.14481
-0.0795049
-0.0258081
0.018043
0.05357
0.08208
0.104693
0.122368
0.135924
0.146059
0.153361
0.158331
0.161393
0.162904
0.163162
0.162415
0.160873
0.158708
0.156062
0.153052
0.149771
0.146296
0.142689
0.138998
0.135262
0.131509
0.127762
0.124036
0.120343
0.116691
0.113083
0.109522
0.106009
0.10254
0.0991151
0.0957295
0.0923799
0.089062
0.0857713
0.0825035
0.0792541
0.0760187
0.072793
0.069573
0.0663548
0.0631347
0.0599092
0.0566752
0.0534296
0.0501696
0.0468925
0.043596
0.0402779
0.036936
0.0335684
0.0301734
0.0267489
0.0232946
0.019806
0.016288
0.0127262
0.00914642
0.00549052
0.00187708
-11.3262
-11.4637
-11.6124
-11.7741
-11.9488
-12.1301
-12.3027
-12.4433
-12.5225
-12.5075
-12.3686
-12.0849
-11.6497
-11.0721
-10.3747
-9.58948
-8.75175
-7.89526
-7.04886
-6.23493
-5.46919
-4.76148
-4.11675
-3.53627
-3.0187
-2.56098
-2.159
-1.80812
-1.50353
-1.24045
-1.0143
-0.820725
-0.655697
-0.515532
-0.396916
-0.29691
-0.212925
-0.142695
-0.0842378
-0.0358308
0.00402181
0.0366123
0.0630556
0.0843101
0.101197
0.114419
0.124578
0.132185
0.137677
0.141418
0.14372
0.144845
0.145013
0.144409
0.143184
0.141467
0.139361
0.136953
0.134312
0.131497
0.128552
0.125514
0.122412
0.119268
0.116098
0.112916
0.109731
0.10655
0.103375
0.100211
0.0970569
0.0939136
0.0907799
0.0876541
0.0845343
0.0814181
0.0783032
0.0751868
0.0720664
0.0689393
0.065803
0.0626551
0.0594931
0.0563149
0.0531182
0.0499011
0.0466617
0.0433981
0.0401088
0.0367921
0.0334466
0.030071
0.0266636
0.0232243
0.0197495
0.0162431
0.0126936
0.00912173
0.00548063
0.00186591
-11.1659
-11.2832
-11.4073
-11.5378
-11.6729
-11.8058
-11.9232
-12.0063
-12.0317
-11.9739
-11.8099
-11.5237
-11.1101
-10.5758
-9.93866
-9.22406
-8.46072
-7.67684
-6.89725
-6.14194
-5.42564
-4.75817
-4.14512
-3.58873
-3.08878
-2.64329
-2.24919
-1.90271
-1.59982
-1.33636
-1.10827
-0.911637
-0.74276
-0.598229
-0.47494
-0.370114
-0.281283
-0.206268
-0.143156
-0.0902668
-0.0461371
-0.00949333
0.0207681
0.0456012
0.0658289
0.0821599
0.0952011
0.105473
0.11342
0.119422
0.123801
0.126831
0.128742
0.129729
0.129957
0.129561
0.128658
0.127343
0.125694
0.123776
0.121644
0.119341
0.116901
0.114354
0.111723
0.109025
0.106275
0.103484
0.100659
0.0978076
0.0949335
0.0920398
0.0891286
0.086201
0.0832574
0.0802977
0.0773214
0.0743279
0.0713161
0.068285
0.0652333
0.0621599
0.0590635
0.0559428
0.0527967
0.0496239
0.0464233
0.0431937
0.0399341
0.0366434
0.0333208
0.0299652
0.0265756
0.0231518
0.0196912
0.0161968
0.01266
0.00909619
0.00547059
0.00185423
-11.0003
-11.0974
-11.1971
-11.2981
-11.3974
-11.488
-11.559
-11.5947
-11.5766
-11.4849
-11.302
-11.0154
-10.6212
-10.1246
-9.53968
-8.88659
-8.18874
-7.46962
-6.75052
-6.04917
-5.37916
-4.75003
-4.16771
-3.63517
-3.15303
-2.72027
-2.33468
-1.99331
-1.6928
-1.42962
-1.20019
-1.00102
-0.82874
-0.680224
-0.552577
-0.443187
-0.349713
-0.270075
-0.202427
-0.145146
-0.0968013
-0.0561456
-0.0220894
0.00631397
0.029885
0.0493339
0.0652731
0.0782311
0.0886615
0.0969526
0.103437
0.108399
0.112081
0.114688
0.116395
0.117349
0.117674
0.117476
0.116841
0.115843
0.114544
0.112993
0.111234
0.109301
0.107222
0.105022
0.102719
0.100328
0.0978631
0.0953333
0.0927469
0.0901101
0.087428
0.0847044
0.0819422
0.0791435
0.0763101
0.0734431
0.0705432
0.0676109
0.0646464
0.0616497
0.0586208
0.0555595
0.0524654
0.0493383
0.0461776
0.042983
0.0397541
0.0364903
0.0331912
0.0298562
0.0264849
0.023077
0.0196312
0.016149
0.0126254
0.00906983
0.00546035
0.00184212
-10.8309
-10.908
-10.9842
-11.0577
-11.1246
-11.1788
-11.2106
-11.2074
-11.1544
-11.0362
-10.8393
-10.5541
-10.1776
-9.71407
-9.17446
-8.57504
-7.93486
-7.27348
-6.6091
-5.9573
-5.33046
-4.73769
-4.18503
-3.67591
-3.21165
-2.79197
-2.41542
-2.07977
-1.78229
-1.52001
-1.28982
-1.08862
-0.913406
-0.761294
-0.629618
-0.515936
-0.41804
-0.333953
-0.261908
-0.200338
-0.147856
-0.103243
-0.0654266
-0.0334733
-0.00656686
0.0160023
0.0348498
0.0505089
0.0634405
0.074042
0.0826557
0.0895761
0.0950551
0.0993081
0.10252
0.104847
0.106424
0.107365
0.107765
0.107707
0.107258
0.106478
0.105415
0.10411
0.102598
0.100908
0.099063
0.0970842
0.0949882
0.0927889
0.090498
0.0881252
0.0856785
0.0831645
0.0805888
0.0779558
0.0752694
0.0725325
0.0697477
0.066917
0.0640422
0.0611245
0.0581651
0.0551649
0.0521244
0.0490442
0.0459248
0.0427662
0.0395688
0.0363326
0.0330577
0.0297441
0.0263915
0.0230001
0.0195694
0.0160999
0.0125898
0.00904267
0.0054499
0.00182958
-10.6586
-10.7165
-10.7706
-10.8186
-10.8569
-10.8796
-10.8784
-10.8433
-10.7623
-10.6236
-10.4166
-10.1342
-9.77407
-9.33962
-8.83967
-8.28729
-7.69804
-7.08821
-6.47328
-5.86688
-5.28019
-4.72175
-4.19755
-3.71131
-3.26484
-2.85847
-2.4914
-2.162
-1.86814
-1.60734
-1.37694
-1.17424
-0.99653
-0.841219
-0.705852
-0.588162
-0.48608
-0.397735
-0.321446
-0.255707
-0.199178
-0.150673
-0.109145
-0.0736721
-0.0434478
-0.0177655
0.00399116
0.0223592
0.0378055
0.0507345
0.061497
0.070396
0.0776933
0.0836141
0.0883526
0.0920756
0.0949259
0.0970263
0.0984814
0.0993808
0.099801
0.0998074
0.0994556
0.0987931
0.0978603
0.0966914
0.0953158
0.0937584
0.0920403
0.0901796
0.0881915
0.0860892
0.0838838
0.0815848
0.0792003
0.0767371
0.0742014
0.0715979
0.0689312
0.0662049
0.0634221
0.0605855
0.0576974
0.0547598
0.0517744
0.0487424
0.0456652
0.0425436
0.0393787
0.0361708
0.0329208
0.0296289
0.0262957
0.0229211
0.0195059
0.0160494
0.0125533
0.00901478
0.00543925
0.00181664
-10.485
-10.5245
-10.5579
-10.5828
-10.5957
-10.5913
-10.5626
-10.5012
-10.398
-10.2436
-10.0298
-9.75125
-9.40627
-8.99767
-8.53258
-8.02156
-7.47737
-6.91355
-6.34327
-5.7784
-5.22894
-4.7028
-4.20578
-3.74174
-3.31285
-2.91991
-2.56264
-2.23995
-1.95023
-1.69144
-1.46136
-1.25764
-1.07789
-0.91978
-0.781068
-0.659665
-0.553644
-0.461247
-0.38088
-0.311105
-0.250634
-0.198317
-0.153136
-0.114186
-0.0806718
-0.0518928
-0.0272341
-0.00615694
0.0118094
0.0270756
0.0399998
0.0508932
0.0600262
0.0676332
0.0739173
0.0790543
0.0831961
0.0864739
0.0890008
0.0908743
0.0921787
0.0929863
0.0933596
0.0933523
0.0930107
0.0923746
0.0914783
0.0903517
0.0890201
0.0875056
0.0858275
0.0840021
0.0820438
0.0799649
0.0777763
0.0754873
0.073106
0.0706394
0.0680937
0.0654743
0.0627859
0.0600324
0.0572175
0.0543442
0.0514152
0.0484327
0.0453989
0.0423153
0.0391835
0.0360048
0.0327803
0.0295108
0.0261974
0.0228401
0.0194409
0.0159977
0.0125158
0.00898613
0.00542835
0.00180332
-10.3109
-10.3333
-10.3476
-10.3517
-10.3424
-10.3147
-10.263
-10.1804
-10.0596
-9.89325
-9.6752
-9.40129
-9.07041
-8.68492
-8.25062
-7.77612
-7.27187
-6.74918
-6.21922
-5.69227
-5.17724
-4.68138
-4.21022
-3.76761
-3.35597
-2.97644
-2.62919
-2.31359
-2.02845
-1.77217
-1.5429
-1.33864
-1.15729
-0.996765
-0.855055
-0.730241
-0.620539
-0.524306
-0.44004
-0.366376
-0.30208
-0.246045
-0.197281
-0.154908
-0.118142
-0.0862923
-0.0587474
-0.034969
-0.0144836
0.00312407
0.0182179
0.0311165
0.0420979
0.0514051
0.0592498
0.0658163
0.0712652
0.075736
0.0793499
0.0822123
0.0844147
0.0860366
0.0871471
0.0878063
0.0880663
0.0879725
0.0875645
0.0868766
0.0859388
0.0847774
0.0834152
0.0818722
0.0801659
0.0783116
0.0763229
0.0742114