/*--------------------------------*- C++ -*----------------------------------*\
  =========                 |
  \\      /  F ield         | OpenFOAM: The Open Source CFD Toolbox
   \\    /   O peration     | Website:  https://openfoam.org
    \\  /    A nd           | Version:  10
     \\/     M anipulation  |
\*---------------------------------------------------------------------------*/
FoamFile
{
    format      ascii;
    class       surfaceScalarField;
    location    "0.015";
    object      phi;
}
// * * * * * * * * * * * * * * * * * * * * * * * * * * * * * * * * * * * * * //

dimensions      [0 3 -1 0 0 0 0];

internalField   nonuniform List<scalar> 
13452
(
5.94613e-05
8.07188e-07
5.85004e-05
9.60912e-07
5.75113e-05
9.89065e-07
5.65082e-05
1.00309e-06
5.55213e-05
9.8689e-07
5.45647e-05
9.56655e-07
5.36451e-05
9.19558e-07
5.27688e-05
8.76264e-07
5.19421e-05
8.26737e-07
5.11716e-05
7.70545e-07
5.04647e-05
7.06897e-07
4.98296e-05
6.35061e-07
4.9275e-05
5.54628e-07
4.8809e-05
4.66014e-07
4.84383e-05
3.70673e-07
4.81667e-05
2.71591e-07
4.79937e-05
1.73015e-07
4.79114e-05
8.22385e-08
4.79001e-05
1.13039e-08
4.794e-05
-3.9843e-08
4.80197e-05
-7.97478e-08
4.81344e-05
-1.147e-07
4.82814e-05
-1.46986e-07
4.84597e-05
-1.78299e-07
4.86695e-05
-2.09834e-07
4.89122e-05
-2.42619e-07
4.91903e-05
-2.78085e-07
4.95078e-05
-3.17578e-07
4.9873e-05
-3.65204e-07
5.02957e-05
-4.22646e-07
5.08029e-05
-5.07221e-07
5.14364e-05
-6.33475e-07
-8.21238e-07
5.22576e-05
6.24879e-05
3.09597e-07
6.29632e-05
4.85665e-07
6.34117e-05
5.40506e-07
6.38245e-05
5.9029e-07
6.41946e-05
6.16864e-07
6.4522e-05
6.29236e-07
6.48087e-05
6.32885e-07
6.50573e-05
6.27667e-07
6.52707e-05
6.13314e-07
6.54517e-05
5.89551e-07
6.56027e-05
5.55833e-07
6.57261e-05
5.11723e-07
6.58237e-05
4.57036e-07
6.58972e-05
3.92474e-07
6.59483e-05
3.19574e-07
6.59788e-05
2.41123e-07
6.59907e-05
1.61066e-07
6.59886e-05
8.43691e-08
6.59836e-05
1.62453e-08
6.5985e-05
-4.11716e-08
6.5997e-05
-9.18096e-08
6.60216e-05
-1.39218e-07
6.606e-05
-1.85458e-07
6.61138e-05
-2.32063e-07
6.61844e-05
-2.80465e-07
6.62739e-05
-3.32138e-07
6.63849e-05
-3.89001e-07
6.65207e-05
-4.53406e-07
6.66853e-05
-5.29856e-07
6.68862e-05
-6.23505e-07
6.71276e-05
-7.48633e-07
6.74177e-05
-9.2353e-07
-1.17543e-06
6.77719e-05
6.38377e-05
2.33299e-07
6.39221e-05
4.01262e-07
6.40048e-05
4.5781e-07
6.40944e-05
5.00688e-07
6.41895e-05
5.21746e-07
6.42916e-05
5.27129e-07
6.44011e-05
5.23454e-07
6.45171e-05
5.11651e-07
6.46385e-05
4.91905e-07
6.47637e-05
4.64368e-07
6.48906e-05
4.28871e-07
6.5017e-05
3.85326e-07
6.51404e-05
3.33641e-07
6.52583e-05
2.74564e-07
6.53687e-05
2.09187e-07
6.54703e-05
1.39507e-07
6.55632e-05
6.81683e-08
6.5649e-05
-1.36097e-09
6.57329e-05
-6.76662e-08
6.58215e-05
-1.29816e-07
6.59189e-05
-1.89151e-07
6.60269e-05
-2.4727e-07
6.61473e-05
-3.05798e-07
6.62814e-05
-3.66206e-07
6.6431e-05
-4.30036e-07
6.65978e-05
-4.99004e-07
6.67841e-05
-5.75306e-07
6.69925e-05
-6.61726e-07
6.72252e-05
-7.62636e-07
6.74857e-05
-8.83985e-07
6.77724e-05
-1.03535e-06
6.80835e-05
-1.23456e-06
-1.48473e-06
6.83928e-05
6.56437e-05
1.72653e-07
6.57051e-05
3.39857e-07
6.57568e-05
4.06125e-07
6.58072e-05
4.5027e-07
6.58572e-05
4.71737e-07
6.59088e-05
4.7559e-07
6.59634e-05
4.6887e-07
6.60218e-05
4.53245e-07
6.60845e-05
4.29133e-07
6.6152e-05
3.96924e-07
6.62242e-05
3.56698e-07
6.63008e-05
3.08664e-07
6.63817e-05
2.52803e-07
6.64661e-05
1.90139e-07
6.65536e-05
1.21617e-07
6.66442e-05
4.89787e-08
6.67381e-05
-2.57089e-08
6.68366e-05
-9.99126e-08
6.69413e-05
-1.72406e-07
6.70543e-05
-2.4272e-07
6.71769e-05
-3.11773e-07
6.73106e-05
-3.80989e-07
6.74567e-05
-4.51907e-07
6.76165e-05
-5.26043e-07
6.77915e-05
-6.05021e-07
6.79832e-05
-6.90686e-07
6.81932e-05
-7.85315e-07
6.84233e-05
-8.91769e-07
6.86746e-05
-1.01399e-06
6.89479e-05
-1.15727e-06
6.92408e-05
-1.32828e-06
6.95441e-05
-1.53783e-06
-1.78485e-06
6.98442e-05
6.74936e-05
1.35803e-07
6.7544e-05
2.89522e-07
6.75937e-05
3.56433e-07
6.76465e-05
3.97446e-07
6.77009e-05
4.17301e-07
6.77569e-05
4.19575e-07
6.78154e-05
4.104e-07
6.78769e-05
3.91754e-07
6.79418e-05
3.64207e-07
6.80105e-05
3.28276e-07
6.8083e-05
2.84177e-07
6.81593e-05
2.32368e-07
6.82394e-05
1.72709e-07
6.8323e-05
1.06491e-07
6.84102e-05
3.44527e-08
6.85009e-05
-4.17408e-08
6.85956e-05
-1.20418e-07
6.86954e-05
-1.99712e-07
6.88017e-05
-2.7866e-07
6.8916e-05
-3.57082e-07
6.904e-05
-4.35779e-07
6.91751e-05
-5.16021e-07
6.93224e-05
-5.99223e-07
6.94832e-05
-6.86866e-07
6.96588e-05
-7.8058e-07
6.98503e-05
-8.82219e-07
7.0059e-05
-9.93986e-07
7.02858e-05
-1.11857e-06
7.0531e-05
-1.25926e-06
7.0794e-05
-1.42026e-06
7.10714e-05
-1.60569e-06
7.13551e-05
-1.82152e-06
-2.06402e-06
7.16343e-05
6.94149e-05
1.04955e-07
6.94629e-05
2.41469e-07
6.95115e-05
3.07842e-07
6.95622e-05
3.46775e-07
6.96145e-05
3.65038e-07
6.96686e-05
3.65473e-07
6.97255e-05
3.53486e-07
6.97858e-05
3.3145e-07
6.98498e-05
3.0018e-07
6.99178e-05
2.6032e-07
6.99897e-05
2.12199e-07
7.00656e-05
1.56548e-07
7.01452e-05
9.30715e-08
7.02283e-05
2.33965e-08
7.03151e-05
-5.23239e-08
7.04056e-05
-1.32322e-07
7.05006e-05
-2.15357e-07
7.06009e-05
-3.00055e-07
7.0708e-05
-3.8574e-07
7.08233e-05
-4.72402e-07
7.09483e-05
-5.60717e-07
7.1084e-05
-6.51788e-07
7.12317e-05
-7.46922e-07
7.13924e-05
-8.47558e-07
7.15671e-05
-9.55291e-07
7.17568e-05
-1.07191e-06
7.19623e-05
-1.19944e-06
7.2184e-05
-1.34025e-06
7.24216e-05
-1.49694e-06
7.26739e-05
-1.67255e-06
7.29377e-05
-1.86943e-06
7.32064e-05
-2.09029e-06
-2.33086e-06
7.34733e-05
7.13881e-05
8.32208e-08
7.14272e-05
2.02363e-07
7.14703e-05
2.64731e-07
7.15178e-05
2.99259e-07
7.1569e-05
3.13883e-07
7.16231e-05
3.11279e-07
7.16807e-05
2.95975e-07
7.17417e-05
2.70375e-07
7.18065e-05
2.35396e-07
7.18751e-05
1.91708e-07
7.19476e-05
1.39704e-07
7.20238e-05
8.03427e-08
7.21043e-05
1.26148e-08
7.21883e-05
-6.0592e-08
7.2276e-05
-1.40072e-07
7.23678e-05
-2.24115e-07
7.24643e-05
-3.11807e-07
7.25663e-05
-4.02131e-07
7.26752e-05
-4.94586e-07
7.2792e-05
-5.89257e-07
7.29181e-05
-6.86774e-07
7.30545e-05
-7.8815e-07
7.32021e-05
-8.94607e-07
7.33621e-05
-1.00751e-06
7.35352e-05
-1.12835e-06
7.3722e-05
-1.25879e-06
7.39232e-05
-1.40061e-06
7.41387e-05
-1.55577e-06
7.4368e-05
-1.72624e-06
7.46096e-05
-1.91407e-06
7.48606e-05
-2.12047e-06
7.51167e-05
-2.34637e-06
-2.58791e-06
7.53737e-05
7.34226e-05
6.59317e-08
7.34581e-05
1.6685e-07
7.35e-05
2.22797e-07
7.35468e-05
2.52435e-07
7.35974e-05
2.63305e-07
7.3651e-05
2.57707e-07
7.37077e-05
2.39232e-07
7.37679e-05
2.10164e-07
7.38318e-05
1.71521e-07
7.38995e-05
1.23998e-07
7.39713e-05
6.79316e-08
7.40462e-05
5.46942e-09
7.41252e-05
-6.63867e-08
7.42082e-05
-1.43582e-07
7.42951e-05
-2.27042e-07
7.43864e-05
-3.15417e-07
7.44826e-05
-4.07951e-07
7.45844e-05
-5.0397e-07
7.4693e-05
-6.03164e-07
7.48094e-05
-7.05692e-07
7.49348e-05
-8.12151e-07
7.50701e-05
-9.23451e-07
7.52162e-05
-1.04071e-06
7.53739e-05
-1.16518e-06
7.55438e-05
-1.29824e-06
7.57263e-05
-1.44137e-06
7.59218e-05
-1.59608e-06
7.613e-05
-1.76394e-06
7.63502e-05
-1.9464e-06
7.65808e-05
-2.14476e-06
7.68199e-05
-2.35954e-06
7.70645e-05
-2.59092e-06
-2.83575e-06
7.73123e-05
7.55161e-05
5.22967e-08
7.55467e-05
1.36252e-07
7.55847e-05
1.84784e-07
7.56282e-05
2.08957e-07
7.56762e-05
2.15254e-07
7.57281e-05
2.05827e-07
7.57838e-05
1.83599e-07
7.58432e-05
1.5071e-07
7.59065e-05
1.08244e-07
7.59735e-05
5.69658e-08
7.60449e-05
-3.44483e-09
7.61203e-05
-6.99714e-08
7.61992e-05
-1.45287e-07
7.62823e-05
-2.26596e-07
7.63693e-05
-3.14103e-07
7.64609e-05
-4.06968e-07
7.65574e-05
-5.04514e-07
7.66597e-05
-6.06292e-07
7.67687e-05
-7.12135e-07
7.68853e-05
-8.22246e-07
7.70103e-05
-9.37186e-07
7.71446e-05
-1.05779e-06
7.7289e-05
-1.18507e-06
7.7444e-05
-1.32018e-06
7.76101e-05
-1.46435e-06
7.77876e-05
-1.61886e-06
7.79765e-05
-1.78497e-06
7.81764e-05
-1.96389e-06
7.83867e-05
-2.15663e-06
7.86059e-05
-2.36399e-06
7.88325e-05
-2.58614e-06
7.90646e-05
-2.82304e-06
-3.07235e-06
7.93012e-05
7.76708e-05
4.10868e-08
7.76981e-05
1.08948e-07
7.7734e-05
1.48828e-07
7.77763e-05
1.66752e-07
7.78235e-05
1.6798e-07
7.78749e-05
1.54443e-07
7.79301e-05
1.28415e-07
7.79891e-05
9.17447e-08
7.80518e-05
4.54931e-08
7.81182e-05
-9.41628e-09
7.81881e-05
-7.33568e-08
7.82623e-05
-1.44132e-07
7.834e-05
-2.22996e-07
7.84217e-05
-3.0837e-07
7.85076e-05
-3.9999e-07
7.8598e-05
-4.97327e-07
7.86933e-05
-5.99852e-07
7.87943e-05
-7.07266e-07
7.89017e-05
-8.19517e-07
7.90163e-05
-9.36847e-07
7.91389e-05
-1.05978e-06
7.92702e-05
-1.18909e-06
7.94108e-05
-1.32567e-06
7.95612e-05
-1.47055e-06
7.97216e-05
-1.6248e-06
7.98923e-05
-1.78951e-06
8.0073e-05
-1.96569e-06
8.02633e-05
-2.15423e-06
8.04625e-05
-2.35581e-06
8.06694e-05
-2.57091e-06
8.08828e-05
-2.79954e-06
8.11015e-05
-3.04172e-06
-3.2958e-06
8.13249e-05
7.98878e-05
3.16419e-08
7.9912e-05
8.4666e-08
7.99453e-05
1.15571e-07
7.9985e-05
1.27034e-07
8.003e-05
1.22979e-07
8.00794e-05
1.05048e-07
8.01328e-05
7.50014e-08
8.01902e-05
3.44027e-08
8.02514e-05
-1.57838e-08
8.03167e-05
-7.46684e-08
8.03856e-05
-1.42229e-07
8.04586e-05
-2.17133e-07
8.05353e-05
-2.99735e-07
8.06161e-05
-3.89139e-07
8.0701e-05
-4.84943e-07
8.07905e-05
-5.86774e-07
8.08849e-05
-6.94252e-07
8.09848e-05
-8.07187e-07
8.10909e-05
-9.25605e-07
8.12038e-05
-1.04976e-06
8.13242e-05
-1.18015e-06
8.14525e-05
-1.31744e-06
8.15893e-05
-1.46244e-06
8.17348e-05
-1.61606e-06
8.18892e-05
-1.77921e-06
8.20525e-05
-1.95277e-06
8.22243e-05
-2.13754e-06
8.24043e-05
-2.33416e-06
8.25915e-05
-2.54307e-06
8.27851e-05
-2.7645e-06
8.2984e-05
-2.99844e-06
8.31874e-05
-3.24506e-06
-3.50322e-06
8.33948e-05
8.21686e-05
2.34878e-08
8.21905e-05
6.28072e-08
8.22215e-05
8.44833e-08
8.22595e-05
8.90925e-08
8.23031e-05
7.93931e-08
8.23514e-05
5.67337e-08
8.24039e-05
2.24771e-08
8.24604e-05
-2.20804e-08
8.25207e-05
-7.60669e-08
8.25848e-05
-1.38758e-07
8.26524e-05
-2.09894e-07
8.27239e-05
-2.88634e-07
8.27991e-05
-3.74919e-07
8.28782e-05
-4.68187e-07
8.29613e-05
-5.68047e-07
8.30487e-05
-6.74212e-07
8.31409e-05
-7.86423e-07
8.32383e-05
-9.04574e-07
8.33414e-05
-1.02874e-06
8.34508e-05
-1.15919e-06
8.3567e-05
-1.29636e-06
8.36904e-05
-1.44085e-06
8.38214e-05
-1.59338e-06
8.396e-05
-1.75471e-06
8.41064e-05
-1.92561e-06
8.42604e-05
-2.10678e-06
8.44217e-05
-2.2988e-06
8.45896e-05
-2.50211e-06
8.47635e-05
-2.71694e-06
8.49424e-05
-2.94339e-06
8.51254e-05
-3.18143e-06
8.53117e-05
-3.43137e-06
-3.69245e-06
8.55009e-05
8.4515e-05
1.63059e-08
8.45347e-05
4.3013e-08
8.45637e-05
5.55457e-08
8.45996e-05
5.32282e-08
8.46411e-05
3.78346e-08
8.46875e-05
1.03801e-08
8.47381e-05
-2.81285e-08
8.47927e-05
-7.66658e-08
8.48511e-05
-1.34468e-07
8.49132e-05
-2.00928e-07
8.4979e-05
-2.7569e-07
8.50486e-05
-3.58165e-07
8.51218e-05
-4.48133e-07
8.51988e-05
-5.45197e-07
8.52798e-05
-6.49029e-07
8.5365e-05
-7.59405e-07
8.54547e-05
-8.76158e-07
8.55494e-05
-9.99241e-07
8.56494e-05
-1.12876e-06
8.57552e-05
-1.26497e-06
8.58671e-05
-1.40826e-06
8.59854e-05
-1.55915e-06
8.61102e-05
-1.71825e-06
8.62417e-05
-1.88619e-06
8.63797e-05
-2.0636e-06
8.65239e-05
-2.25102e-06
8.6674e-05
-2.44885e-06
8.68292e-05
-2.65733e-06
8.69888e-05
-2.87653e-06
8.71519e-05
-3.10647e-06
8.73175e-05
-3.34709e-06
8.7485e-05
-3.59879e-06
-3.86108e-06
8.76536e-05
8.69286e-05
9.88428e-09
8.69466e-05
2.49723e-08
8.69736e-05
2.85632e-08
8.70076e-05
1.92647e-08
8.70473e-05
-1.92984e-09
8.7092e-05
-3.43182e-08
8.71411e-05
-7.71791e-08
8.71941e-05
-1.29718e-07
8.7251e-05
-1.91291e-07
8.73114e-05
-2.61392e-07
8.73754e-05
-3.3966e-07
8.74429e-05
-4.25655e-07
8.75139e-05
-5.19121e-07
8.75884e-05
-6.19755e-07
8.76667e-05
-7.273e-07
8.77489e-05
-8.41583e-07
8.78352e-05
-9.62503e-07
8.7926e-05
-1.09006e-06
8.80216e-05
-1.22436e-06
8.81223e-05
-1.36564e-06
8.82283e-05
-1.51425e-06
8.83398e-05
-1.67062e-06
8.84568e-05
-1.83526e-06
8.85793e-05
-2.00868e-06
8.8707e-05
-2.19137e-06
8.88397e-05
-2.38372e-06
8.89769e-05
-2.58596e-06
8.91177e-05
-2.79818e-06
8.92615e-05
-3.0203e-06
8.94072e-05
-3.25223e-06
8.9554e-05
-3.49389e-06
8.9701e-05
-3.74574e-06
-4.00741e-06
8.98473e-05
8.94113e-05
4.07811e-09
8.94279e-05
8.45571e-09
8.9453e-05
3.43366e-09
8.9485e-05
-1.27485e-08
8.95228e-05
-3.96894e-08
8.95654e-05
-7.69761e-08
8.96124e-05
-1.24134e-07
8.96632e-05
-1.80584e-07
8.97178e-05
-2.45817e-07
8.97758e-05
-3.19419e-07
8.98372e-05
-4.01064e-07
8.9902e-05
-4.90409e-07
8.997e-05
-5.87205e-07
9.00415e-05
-6.91214e-07
9.01164e-05
-8.02235e-07
9.0195e-05
-9.20143e-07
9.02774e-05
-1.04488e-06
9.03638e-05
-1.17645e-06
9.04544e-05
-1.31499e-06
9.05494e-05
-1.46069e-06
9.0649e-05
-1.61384e-06
9.07532e-05
-1.77479e-06
9.08619e-05
-1.94394e-06
9.09749e-05
-2.1217e-06
9.10919e-05
-2.30841e-06
9.12125e-05
-2.50433e-06
9.13361e-05
-2.70953e-06
9.14619e-05
-2.92396e-06
9.1589e-05
-3.14741e-06
9.17165e-05
-3.3797e-06
9.18433e-05
-3.6207e-06
9.19684e-05
-3.87088e-06
-4.12994e-06
9.2091e-05
9.19651e-05
-1.21007e-09
9.19803e-05
-6.71085e-09
9.20037e-05
-1.99482e-08
9.20338e-05
-4.2846e-08
9.20695e-05
-7.54426e-08
9.21101e-05
-1.17579e-07
9.2155e-05
-1.6899e-07
9.22037e-05
-2.29279e-07
9.22559e-05
-2.98062e-07
9.23115e-05
-3.75011e-07
9.23703e-05
-4.59849e-07
9.24322e-05
-5.52307e-07
9.24972e-05
-6.52167e-07
9.25652e-05
-7.59241e-07
9.26364e-05
-8.73379e-07
9.27107e-05
-9.94487e-07
9.27884e-05
-1.12253e-06
9.28694e-05
-1.25755e-06
9.29541e-05
-1.39963e-06
9.30424e-05
-1.54896e-06
9.31343e-05
-1.70574e-06
9.32297e-05
-1.87026e-06
9.33286e-05
-2.04281e-06
9.34306e-05
-2.22371e-06
9.35354e-05
-2.41316e-06
9.36423e-05
-2.61129e-06
9.37508e-05
-2.81804e-06
9.38601e-05
-3.03321e-06
9.39692e-05
-3.25648e-06
9.4077e-05
-3.48757e-06
9.41826e-05
-3.72629e-06
9.42848e-05
-3.97306e-06
-4.22763e-06
9.43825e-05
9.4592e-05
-6.04644e-09
9.46059e-05
-2.06508e-08
9.46276e-05
-4.16501e-08
9.46558e-05
-7.10112e-08
9.46894e-05
-1.09085e-07
9.47278e-05
-1.55924e-07
9.47702e-05
-2.11439e-07
9.48164e-05
-2.75396e-07
9.48658e-05
-3.4753e-07
9.49184e-05
-4.27598e-07
9.49739e-05
-5.15384e-07
9.50323e-05
-6.10677e-07
9.50934e-05
-7.133e-07
9.51573e-05
-8.23105e-07
9.52239e-05
-9.39978e-07
9.52933e-05
-1.06385e-06
9.53654e-05
-1.19471e-06
9.54405e-05
-1.33257e-06
9.55184e-05
-1.47753e-06
9.55991e-05
-1.62969e-06
9.56826e-05
-1.78923e-06
9.57687e-05
-1.95634e-06
9.58571e-05
-2.13123e-06
9.59475e-05
-2.31408e-06
9.60393e-05
-2.50501e-06
9.6132e-05
-2.704e-06
9.62249e-05
-2.91089e-06
9.6317e-05
-3.12533e-06
9.64074e-05
-3.34689e-06
9.6495e-05
-3.57518e-06
9.65787e-05
-3.80996e-06
9.66572e-05
-4.05159e-06
-4.29986e-06
9.67294e-05
9.72939e-05
-1.04731e-08
9.73067e-05
-3.34524e-08
9.73268e-05
-6.17234e-08
9.7353e-05
-9.72323e-08
9.73845e-05
-1.40546e-07
9.74205e-05
-1.91893e-07
9.74604e-05
-2.51332e-07
9.75037e-05
-3.18766e-07
9.75502e-05
-3.94037e-07
9.75996e-05
-4.76982e-07
9.76517e-05
-5.6744e-07
9.77063e-05
-6.65255e-07
9.77632e-05
-7.70287e-07
9.78226e-05
-8.8242e-07
9.78842e-05
-1.00157e-06
9.7948e-05
-1.12768e-06
9.8014e-05
-1.26074e-06
9.80822e-05
-1.40077e-06
9.81525e-05
-1.54781e-06
9.82248e-05
-1.70196e-06
9.82988e-05
-1.86329e-06
9.83744e-05
-2.03193e-06
9.84512e-05
-2.20801e-06
9.85287e-05
-2.39161e-06
9.86064e-05
-2.58273e-06
9.86837e-05
-2.78126e-06
9.87597e-05
-2.9869e-06
9.88336e-05
-3.19918e-06
9.89042e-05
-3.41758e-06
9.89707e-05
-3.6416e-06
9.90316e-05
-3.87093e-06
9.90859e-05
-4.10587e-06
-4.34626e-06
9.91323e-05
0.000100073
-1.45185e-08
0.000100085
-4.51745e-08
0.000100103
-8.01968e-08
0.000100128
-1.21479e-07
0.000100157
-1.69733e-07
0.00010019
-2.25324e-07
0.000100227
-2.88434e-07
0.000100268
-3.59081e-07
0.000100311
-4.37202e-07
0.000100356
-5.22709e-07
0.000100405
-6.15498e-07
0.000100455
-7.15458e-07
0.000100507
-8.22484e-07
0.000100561
-9.36489e-07
0.000100617
-1.0574e-06
0.000100674
-1.18519e-06
0.000100733
-1.31983e-06
0.000100794
-1.46132e-06
0.000100856
-1.60968e-06
0.000100919
-1.76493e-06
0.000100983
-1.92712e-06
0.000101047
-2.09628e-06
0.000101111
-2.27244e-06
0.000101175
-2.45562e-06
0.000101238
-2.64571e-06
0.0001013
-2.84249e-06
0.000101358
-3.04555e-06
0.000101413
-3.25432e-06
0.000101464
-3.46817e-06
0.000101509
-3.68651e-06
0.000101547
-3.90897e-06
0.000101577
-4.13582e-06
-4.36691e-06
0.000101598
0.000102932
-1.81996e-08
0.000102942
-5.58522e-08
0.000102959
-9.7081e-08
0.000102982
-1.43712e-07
0.000103008
-1.9655e-07
0.000103039
-2.56068e-07
0.000103073
-3.22546e-07
0.00010311
-3.96099e-07
0.00010315
-4.76749e-07
0.000103192
-5.64472e-07
0.000103235
-6.59215e-07
0.000103281
-7.60907e-07
0.000103328
-8.69474e-07
0.000103376
-9.84849e-07
0.000103426
-1.10698e-06
0.000103476
-1.23582e-06
0.000103528
-1.37135e-06
0.00010358
-1.51354e-06
0.000103633
-1.66237e-06
0.000103686
-1.81782e-06
0.000103738
-1.97987e-06
0.000103791
-2.14849e-06
0.000103842
-2.32363e-06
0.000103891
-2.50522e-06
0.000103939
-2.69306e-06
0.000103983
-2.88684e-06
0.000104024
-3.08605e-06
0.000104059
-3.29003e-06
0.000104089
-3.49805e-06
0.000104112
-3.70946e-06
0.000104127
-3.92382e-06
0.000104132
-4.14137e-06
-4.36204e-06
0.000104128
0.000105872
-2.15262e-08
0.000105882
-6.5504e-08
0.000105897
-1.12372e-07
0.000105917
-1.63882e-07
0.000105942
-2.20898e-07
0.000105969
-2.83968e-07
0.000106
-3.53453e-07
0.000106034
-4.29548e-07
0.000106069
-5.12345e-07
0.000106107
-6.01878e-07
0.000106146
-6.98139e-07
0.000106186
-8.01093e-07
0.000106227
-9.10691e-07
0.000106269
-1.02688e-06
0.000106312
-1.14962e-06
0.000106355
-1.27886e-06
0.000106398
-1.41456e-06
0.000106441
-1.55667e-06
0.000106484
-1.70513e-06
0.000106526
-1.85988e-06
0.000106567
-2.02083e-06
0.000106606
-2.18788e-06
0.000106644
-2.36092e-06
0.000106678
-2.5398e-06
0.000106709
-2.72425e-06
0.000106736
-2.91386e-06
0.000106758
-3.10804e-06
0.000106774
-3.30606e-06
0.000106783
-3.5071e-06
0.000106784
-3.71045e-06
0.000106776
-3.91563e-06
0.000106758
-4.12287e-06
-4.33218e-06
0.000106728
0.000108896
-2.4502e-08
0.000108905
-7.41346e-08
0.000108919
-1.26052e-07
0.000108937
-1.81932e-07
0.000108959
-2.42668e-07
0.000108983
-3.08865e-07
0.000109011
-3.80945e-07
0.000109041
-4.59166e-07
0.000109072
-5.43682e-07
0.000109105
-6.34576e-07
0.000109138
-7.3188e-07
0.000109173
-8.35586e-07
0.000109208
-9.45667e-07
0.000109243
-1.06208e-06
0.000109278
-1.18479e-06
0.000109313
-1.31373e-06
0.000109347
-1.44885e-06
0.000109381
-1.59008e-06
0.000109413
-1.73731e-06
0.000109443
-1.89043e-06
0.000109472
-2.0493e-06
0.000109498
-2.21377e-06
0.000109521
-2.38367e-06
0.00010954
-2.55876e-06
0.000109554
-2.73871e-06
0.000109563
-2.92305e-06
0.000109566
-3.11112e-06
0.000109562
-3.30211e-06
0.00010955
-3.49514e-06
0.000109529
-3.68946e-06
0.000109498
-3.88459e-06
0.000109456
-4.08073e-06
-4.27798e-06
0.000109402
0.000112007
-2.71276e-08
0.000112015
-8.17403e-08
0.000112027
-1.38097e-07
0.000112043
-1.97802e-07
0.000112062
-2.61758e-07
0.000112083
-3.30608e-07
0.000112107
-4.04821e-07
0.000112133
-4.84706e-07
0.00011216
-5.70466e-07
0.000112187
-6.62225e-07
0.000112215
-7.60046e-07
0.000112244
-8.63949e-07
0.000112272
-9.7392e-07
0.0001123
-1.08993e-06
0.000112327
-1.21192e-06
0.000112353
-1.33984e-06
0.000112378
-1.47362e-06
0.000112401
-1.61314e-06
0.000112422
-1.75827e-06
0.00011244
-1.90885e-06
0.000112456
-2.0647e-06
0.000112468
-2.22561e-06
0.000112475
-2.39136e-06
0.000112478
-2.56164e-06
0.000112476
-2.73609e-06
0.000112467
-2.91415e-06
0.000112451
-3.09513e-06
0.000112427
-3.27814e-06
0.000112394
-3.46228e-06
0.000112351
-3.64677e-06
0.000112298
-3.83112e-06
0.000112233
-4.01556e-06
-4.20027e-06
0.000112155
0.000115207
-2.94003e-08
0.000115213
-8.83106e-08
0.000115224
-1.48475e-07
0.000115237
-2.11423e-07
0.000115254
-2.78055e-07
0.000115272
-3.49036e-07
0.000115292
-4.24869e-07
0.000115313
-5.05903e-07
0.000115335
-5.9238e-07
0.000115357
-6.8446e-07
0.00011538
-7.82232e-07
0.000115401
-8.85735e-07
0.000115422
-9.94969e-07
0.000115442
-1.1099e-06
0.000115461
-1.23049e-06
0.000115478
-1.35665e-06
0.000115492
-1.4883e-06
0.000115505
-1.62529e-06
0.000115514
-1.76746e-06
0.00011552
-1.91462e-06
0.000115521
-2.06653e-06
0.000115519
-2.22295e-06
0.000115511
-2.38359e-06
0.000115497
-2.54813e-06
0.000115478
-2.71613e-06
0.00011545
-2.88701e-06
0.000115415
-3.06001e-06
0.000115371
-3.23423e-06
0.000115318
-3.40875e-06
0.000115254
-3.58276e-06
0.000115179
-3.7558e-06
0.000115091
-3.92812e-06
-4.10001e-06
0.000114991
0.000118498
-3.13177e-08
0.000118503
-9.38348e-08
0.000118512
-1.57159e-07
0.000118523
-2.22743e-07
0.000118537
-2.91474e-07
0.000118552
-3.64028e-07
0.000118568
-4.40932e-07
0.000118584
-5.22564e-07
0.000118601
-6.09198e-07
0.000118618
-7.0102e-07
0.000118634
-7.98142e-07
0.000118649
-9.00618e-07
0.000118662
-1.00845e-06
0.000118674
-1.12163e-06
0.000118683
-1.24007e-06
0.00011869
-1.36372e-06
0.000118695
-1.49243e-06
0.000118695
-1.62607e-06
0.000118692
-1.76443e-06
0.000118685
-1.90729e-06
0.000118673
-2.05437e-06
0.000118655
-2.20539e-06
0.000118632
-2.36004e-06
0.000118602
-2.51794e-06
0.000118564
-2.67864e-06
0.000118519
-2.84152e-06
0.000118464
-3.00579e-06
0.000118401
-3.17054e-06
0.000118327
-3.33482e-06
0.000118242
-3.49787e-06
0.000118145
-3.65922e-06
0.000118036
-3.81916e-06
-3.97811e-06
0.000117914
0.000121883
-3.28752e-08
0.000121887
-9.82978e-08
0.000121894
-1.64111e-07
0.000121903
-2.31689e-07
0.000121914
-3.01897e-07
0.000121925
-3.75414e-07
0.000121937
-4.52783e-07
0.000121949
-5.34406e-07
0.00012196
-6.20581e-07
0.000121971
-7.11518e-07
0.00012198
-8.07346e-07
0.000121987
-9.08131e-07
0.000121993
-1.01389e-06
0.000121996
-1.12459e-06
0.000121996
-1.24017e-06
0.000121993
-1.36053e-06
0.000121986
-1.48554e-06
0.000121975
-1.61503e-06
0.000121959
-1.74877e-06
0.000121938
-1.8865e-06
0.000121912
-2.02792e-06
0.000121879
-2.17273e-06
0.00012184
-2.32058e-06
0.000121793
-2.47107e-06
0.000121738
-2.62371e-06
0.000121674
-2.77788e-06
0.000121601
-2.93279e-06
0.000121518
-3.08751e-06
0.000121425
-3.2411e-06
0.000121319
-3.39282e-06
0.000121202
-3.54225e-06
0.000121073
-3.68973e-06
-3.83576e-06
0.000120931
0.000125365
-3.40748e-08
0.000125368
-1.01703e-07
0.000125373
-1.69333e-07
0.00012538
-2.38256e-07
0.000125387
-3.09309e-07
0.000125395
-3.83169e-07
0.000125403
-4.60384e-07
0.00012541
-5.41375e-07
0.000125415
-6.26459e-07
0.00012542
-7.15862e-07
0.000125422
-8.09729e-07
0.000125422
-9.08136e-07
0.000125419
-1.0111e-06
0.000125413
-1.1186e-06
0.000125404
-1.23055e-06
0.00012539
-1.34687e-06
0.000125372
-1.46738e-06
0.000125349
-1.59191e-06
0.00012532
-1.72021e-06
0.000125286
-1.85199e-06
0.000125245
-1.98695e-06
0.000125197
-2.12474e-06
0.000125141
-2.26501e-06
0.000125078
-2.40735e-06
0.000125005
-2.55127e-06
0.000124923
-2.69612e-06
0.000124832
-2.84111e-06
0.000124729
-2.98535e-06
0.000124616
-3.1279e-06
0.000124492
-3.26806e-06
0.000124355
-3.40547e-06
0.000124206
-3.54049e-06
-3.67373e-06
0.000124043
0.000128946
-3.49096e-08
0.000128948
-1.04029e-07
0.000128952
-1.72772e-07
0.000128956
-2.42339e-07
0.00012896
-3.1354e-07
0.000128964
-3.8705e-07
0.000128967
-4.63422e-07
0.000128969
-5.43092e-07
0.000128969
-6.26396e-07
0.000128966
-7.13574e-07
0.000128961
-8.04784e-07
0.000128953
-9.0011e-07
0.000128942
-9.99573e-07
0.000128926
-1.10314e-06
0.000128907
-1.21075e-06
0.000128882
-1.32228e-06
0.000128852
-1.43756e-06
0.000128817
-1.55639e-06
0.000128775
-1.67851e-06
0.000128727
-1.80363e-06
0.000128671
-1.93142e-06
0.000128608
-2.06152e-06
0.000128536
-2.19358e-06
0.000128456
-2.32717e-06
0.000128367
-2.4618e-06
0.000128267
-2.59683e-06
0.000128158
-2.7315e-06
0.000128037
-2.86492e-06
0.000127906
-2.99621e-06
0.000127762
-3.1247e-06
0.000127607
-3.25009e-06
0.000127439
-3.3728e-06
-3.49349e-06
0.000127259
0.00013263
-3.54078e-08
0.000132631
-1.05348e-07
0.000132633
-1.74548e-07
0.000132634
-2.44106e-07
0.000132636
-3.14802e-07
0.000132636
-3.87301e-07
0.000132635
-4.62159e-07
0.000132631
-5.39827e-07
0.000132626
-6.20655e-07
0.000132617
-7.049e-07
0.000132605
-7.92731e-07
0.000132589
-8.84239e-07
0.000132569
-9.79452e-07
0.000132544
-1.07834e-06
0.000132514
-1.18083e-06
0.000132479
-1.28679e-06
0.000132437
-1.39605e-06
0.000132389
-1.50841e-06
0.000132334
-1.62359e-06
0.000132272
-1.74129e-06
0.000132202
-1.86118e-06
0.000132123
-1.98291e-06
0.000132036
-2.1061e-06
0.000131939
-2.23034e-06
0.000131832
-2.35516e-06
0.000131715
-2.47993e-06
0.000131588
-2.60392e-06
0.000131449
-2.72627e-06
0.000131299
-2.84616e-06
0.000131137
-2.96296e-06
0.000130964
-3.07643e-06
0.000130778
-3.18701e-06
-3.29544e-06
0.00013058
0.000136418
-3.55324e-08
0.000136419
-1.05578e-07
0.000136419
-1.74488e-07
0.000136418
-2.43266e-07
0.000136416
-3.12682e-07
0.000136412
-3.834e-07
0.000136406
-4.55989e-07
0.000136397
-5.30911e-07
0.000136385
-6.08532e-07
0.000136369
-6.89121e-07
0.000136349
-7.72858e-07
0.000136324
-8.5984e-07
0.000136295
-9.50099e-07
0.00013626
-1.04361e-06
0.00013622
-1.14028e-06
0.000136173
-1.24e-06
0.00013612
-1.3426e-06
0.000136059
-1.44784e-06
0.000135991
-1.55547e-06
0.000135915
-1.66517e-06
0.00013583
-1.77661e-06
0.000135737
-1.88944e-06
0.000135634
-2.0033e-06
0.000135521
-2.11779e-06
0.000135399
-2.23244e-06
0.000135265
-2.34665e-06
0.000135121
-2.45973e-06
0.000134966
-2.57088e-06
0.000134799
-2.67932e-06
0.00013462
-2.78449e-06
0.00013443
-2.8862e-06
0.000134228
-2.98495e-06
-3.08149e-06
0.000134014
0.000140316
-3.5437e-08
0.000140315
-1.05072e-07
0.000140314
-1.73153e-07
0.000140311
-2.40556e-07
0.000140306
-3.08038e-07
0.000140299
-3.76276e-07
0.000140289
-4.45855e-07
0.000140276
-5.17267e-07
0.000140258
-5.90903e-07
0.000140236
-6.6705e-07
0.000140209
-7.45904e-07
0.000140177
-8.27572e-07
0.000140139
-9.1209e-07
0.000140094
-9.99433e-07
0.000140044
-1.08952e-06
0.000139986
-1.18224e-06
0.000139921
-1.2774e-06
0.000139848
-1.37478e-06
0.000139766
-1.47413e-06
0.000139676
-1.57513e-06
0.000139577
-1.67747e-06
0.000139469
-1.7808e-06
0.00013935
-1.88478e-06
0.000139221
-1.98903e-06
0.000139082
-2.09309e-06
0.000138932
-2.19644e-06
0.00013877
-2.2984e-06
0.000138598
-2.39823e-06
0.000138414
-2.49523e-06
0.000138218
-2.58889e-06
0.000138011
-2.67908e-06
0.000137792
-2.76628e-06
-2.85129e-06
0.000137562
0.000144324
-3.48728e-08
0.000144322
-1.03348e-07
0.000144319
-1.69764e-07
0.000144313
-2.34943e-07
0.000144305
-2.99674e-07
0.000144293
-3.64648e-07
0.000144278
-4.30462e-07
0.000144258
-4.97631e-07
0.000144234
-5.66564e-07
0.000144204
-6.37567e-07
0.000144169
-7.10845e-07
0.000144128
-7.86521e-07
0.000144081
-8.64638e-07
0.000144027
-9.45179e-07
0.000143965
-1.02807e-06
0.000143896
-1.11319e-06
0.000143819
-1.20037e-06
0.000143734
-1.28939e-06
0.00014364
-1.38e-06
0.000143536
-1.4719e-06
0.000143424
-1.56477e-06
0.000143301
-1.65829e-06
0.000143168
-1.75212e-06
0.000143025
-1.84591e-06
0.000142872
-1.93924e-06
0.000142707
-2.03159e-06
0.000142531
-2.12236e-06
0.000142343
-2.21088e-06
0.000142145
-2.29651e-06
0.000141934
-2.37881e-06
0.000141713
-2.45769e-06
0.00014148
-2.53368e-06
-2.60756e-06
0.000141237
0.000148448
-3.4626e-08
0.000148446
-1.01929e-07
0.000148443
-1.66391e-07
0.000148437
-2.28751e-07
0.000148427
-2.89951e-07
0.000148413
-3.50775e-07
0.000148395
-4.11897e-07
0.000148371
-4.73893e-07
0.000148341
-5.37215e-07
0.000148306
-6.02191e-07
0.000148264
-6.69042e-07
0.000148216
-7.37897e-07
0.00014816
-8.08806e-07
0.000148096
-8.81754e-07
0.000148025
-9.56672e-07
0.000147945
-1.03344e-06
0.000147857
-1.11189e-06
0.000147759
-1.19182e-06
0.000147652
-1.27298e-06
0.000147535
-1.35509e-06
0.000147408
-1.43786e-06
0.000147271
-1.52098e-06
0.000147123
-1.60415e-06
0.000146964
-1.68703e-06
0.000146794
-1.76926e-06
0.000146613
-1.85038e-06
0.000146421
-1.92983e-06
0.000146217
-2.00702e-06
0.000146002
-2.08138e-06
0.000145775
-2.15254e-06
0.000145538
-2.22044e-06
0.00014529
-2.28559e-06
-2.34876e-06
0.000145031
0.000152688
-3.3244e-08
0.000152684
-9.85163e-08
0.000152678
-1.60161e-07
0.000152668
-2.19018e-07
0.000152655
-2.76092e-07
0.000152636
-3.32171e-07
0.000152612
-3.87975e-07
0.000152582
-4.44151e-07
0.000152546
-5.01197e-07
0.000152504
-5.59473e-07
0.000152454
-6.19228e-07
0.000152396
-6.80613e-07
0.000152331
-7.43695e-07
0.000152258
-8.08475e-07
0.000152176
-8.74895e-07
0.000152086
-9.42847e-07
0.000151986
-1.01218e-06
0.000151877
-1.08269e-06
0.000151758
-1.15415e-06
0.000151629
-1.2263e-06
0.00015149
-1.29885e-06
0.000151341
-1.37152e-06
0.000151181
-1.44402e-06
0.00015101
-1.51604e-06
0.000150828
-1.58722e-06
0.000150634
-1.65717e-06
0.00015043
-1.72537e-06
0.000150214
-1.79132e-06
0.000149987
-1.85451e-06
0.000149749
-1.91465e-06
0.000149501
-1.97174e-06
0.000149241
-2.02628e-06
-2.07902e-06
0.000148972
0.000157053
-3.46131e-08
0.000157053
-9.88118e-08
0.00015705
-1.57121e-07
0.000157042
-2.11159e-07
0.000157029
-2.6265e-07
0.000157009
-3.12562e-07
0.000156983
-3.61754e-07
0.00015695
-4.10963e-07
0.000156909
-4.60712e-07
0.000156861
-5.11364e-07
0.000156805
-5.63172e-07
0.000156741
-6.16282e-07
0.000156668
-6.70762e-07
0.000156586
-7.26609e-07
0.000156495
-7.83771e-07
0.000156394
-8.42144e-07
0.000156284
-9.01585e-07
0.000156163
-9.61911e-07
0.000156032
-1.02291e-06
0.00015589
-1.08434e-06
0.000155737
-1.14595e-06
0.000155573
-1.20749e-06
0.000155397
-1.26871e-06
0.000155211
-1.32934e-06
0.000155012
-1.38907e-06
0.000154803
-1.44755e-06
0.000154582
-1.50436e-06
0.00015435
-1.55907e-06
0.000154106
-1.61126e-06
0.000153852
-1.6607e-06
0.000153588
-1.70742e-06
0.000153314
-1.75186e-06
-1.79465e-06
0.000153029
0.000161536
-3.18179e-08
0.000161532
-9.50826e-08
0.000161525
-1.50225e-07
0.000161514
-1.99838e-07
0.000161497
-2.45761e-07
0.000161473
-2.89124e-07
0.000161443
-3.31115e-07
0.000161404
-3.7265e-07
0.000161358
-4.14325e-07
0.000161303
-4.5656e-07
0.00016124
-4.99647e-07
0.000161167
-5.43762e-07
0.000161085
-5.8899e-07
0.000160994
-6.35349e-07
0.000160893
-6.82801e-07
0.000160782
-7.31255e-07
0.000160661
-7.8058e-07
0.00016053
-8.30605e-07
0.000160388
-8.81126e-07
0.000160236
-9.31914e-07
0.000160073
-9.82726e-07
0.000159898
-1.03331e-06
0.000159713
-1.08343e-06
0.000159517
-1.13281e-06
0.000159309
-1.18116e-06
0.000159089
-1.22818e-06
0.000158858
-1.27349e-06
0.000158616
-1.31674e-06
0.000158362
-1.35761e-06
0.000158098
-1.39594e-06
0.000157822
-1.43177e-06
0.000157536
-1.46549e-06
-1.49769e-06
0.000157239
0.000166162
-4.05714e-08
0.000166169