/*--------------------------------*- C++ -*----------------------------------*\
  =========                 |
  \\      /  F ield         | OpenFOAM: The Open Source CFD Toolbox
   \\    /   O peration     | Website:  https://openfoam.org
    \\  /    A nd           | Version:  10
     \\/     M anipulation  |
\*---------------------------------------------------------------------------*/
FoamFile
{
    format      ascii;
    class       volScalarField;
    location    "0.2";
    object      nut;
}
// * * * * * * * * * * * * * * * * * * * * * * * * * * * * * * * * * * * * * //

dimensions      [0 2 -1 0 0 0 0];

internalField   nonuniform List<scalar> 
6820
(
0.000503207
0.000397136
0.000324705
0.000269743
0.000237081
0.000214927
0.000198563
0.000186119
0.000176136
0.00016782
0.000160721
0.000154549
0.000149108
0.000144262
0.00013991
0.00013598
0.000132409
0.000129169
0.00012622
0.000123533
0.000121089
0.000118872
0.000116874
0.000115088
0.00011351
0.00011214
0.00011098
0.000110043
0.000109323
0.000108905
0.000108665
0.000108974
0.000108203
8.18307e-05
0.00014367
0.000196332
0.000210765
0.000206394
0.000197614
0.000187454
0.000177667
0.000168838
0.000160949
0.000153897
0.000147563
0.000141839
0.000136634
0.000131877
0.000127507
0.000123476
0.000119731
0.00011625
0.000113002
0.000109963
0.000107114
0.000104438
0.000101918
9.95393e-05
9.72877e-05
9.51534e-05
9.31202e-05
9.11885e-05
8.93028e-05
8.75398e-05
8.55899e-05
8.41291e-05
3.85944e-05
2.74205e-05
4.29335e-05
7.42244e-05
9.55212e-05
0.00010879
0.000115966
0.000119213
0.000120105
0.000119545
0.000118087
0.000116082
0.000113746
0.00011122
0.000108596
0.000105934
0.000103273
0.000100637
9.80419e-05
9.5494e-05
9.29991e-05
9.05546e-05
8.81585e-05
8.58121e-05
8.35102e-05
8.12468e-05
7.90143e-05
7.68029e-05
7.45982e-05
7.23761e-05
7.01081e-05
6.76954e-05
6.51471e-05
1.99658e-05
2.35532e-05
2.21304e-05
1.2928e-05
2.9665e-06
1.20238e-05
2.23524e-05
3.08062e-05
3.75688e-05
4.2896e-05
4.70312e-05
5.01898e-05
5.25476e-05
5.4244e-05
5.53948e-05
5.60973e-05
5.64295e-05
5.6456e-05
5.62283e-05
5.57869e-05
5.5168e-05
5.43926e-05
5.34713e-05
5.242e-05
5.12539e-05
4.99817e-05
4.86082e-05
4.7134e-05
4.5555e-05
4.38598e-05
4.20307e-05
4.0055e-05
3.79038e-05
1.32377e-05
1.51159e-05
1.99617e-05
2.2051e-05
2.15115e-05
1.96089e-05
1.70557e-05
1.422e-05
1.13171e-05
8.4738e-06
5.77153e-06
3.27472e-06
1.13368e-06
1.40668e-06
3.13842e-06
4.72034e-06
6.09276e-06
7.25648e-06
8.21998e-06
8.99656e-06
9.59655e-06
1.00398e-05
1.03442e-05
1.05142e-05
1.05574e-05
1.04794e-05
1.02831e-05
9.96951e-06
9.53751e-06
8.98405e-06
8.30421e-06
7.50696e-06
6.58805e-06
1.01798e-05
1.10593e-05
1.18986e-05
1.26893e-05
1.33034e-05
1.38208e-05
1.4192e-05
1.43865e-05
1.44192e-05
1.43146e-05
1.40965e-05
1.37894e-05
1.34172e-05
1.29976e-05
1.25471e-05
1.20821e-05
1.16157e-05
1.11592e-05
1.07215e-05
1.03089e-05
9.9251e-06
9.56894e-06
9.24551e-06
8.95471e-06
8.69748e-06
8.47586e-06
8.29149e-06
8.14693e-06
8.04244e-06
7.98101e-06
7.95515e-06
7.9585e-06
7.97144e-06
7.51859e-06
8.28966e-06
8.7412e-06
8.98558e-06
8.88331e-06
8.67433e-06
8.50306e-06
8.40127e-06
8.36273e-06
8.36325e-06
8.37636e-06
8.38395e-06
8.3764e-06
8.35136e-06
8.30825e-06
8.24668e-06
8.16742e-06
8.07217e-06
7.96267e-06
7.84111e-06
7.71037e-06
7.57803e-06
7.44849e-06
7.32291e-06
7.20342e-06
7.09195e-06
6.98972e-06
6.89802e-06
6.81652e-06
6.7449e-06
6.67785e-06
6.60663e-06
6.52674e-06
5.7299e-06
6.64869e-06
7.07846e-06
7.20443e-06
6.96065e-06
6.6055e-06
6.28186e-06
6.01482e-06
5.80256e-06
5.63541e-06
5.50095e-06
5.3895e-06
5.29419e-06
5.20982e-06
5.13288e-06
5.06122e-06
4.99338e-06
4.92847e-06
4.86591e-06
4.8061e-06
4.74968e-06
4.69625e-06
4.64598e-06
4.60051e-06
4.56113e-06
4.52852e-06
4.5029e-06
4.48425e-06
4.47141e-06
4.46221e-06
4.45243e-06
4.43281e-06
4.40332e-06
4.44939e-06
5.28189e-06
5.61803e-06
5.78997e-06
5.71932e-06
5.52054e-06
5.28664e-06
5.05311e-06
4.83966e-06
4.65426e-06
4.49527e-06
4.3584e-06
4.23969e-06
4.13592e-06
4.04463e-06
3.964e-06
3.89265e-06
3.82959e-06
3.77422e-06
3.726e-06
3.68412e-06
3.64894e-06
3.62056e-06
3.59895e-06
3.58391e-06
3.57522e-06
3.5724e-06
3.57459e-06
3.58006e-06
3.58582e-06
3.58831e-06
3.57887e-06
3.5592e-06
3.51377e-06
4.26706e-06
4.59326e-06
4.77978e-06
4.76016e-06
4.61033e-06
4.42071e-06
4.2317e-06
4.06066e-06
3.91251e-06
3.78492e-06
3.67418e-06
3.57744e-06
3.49247e-06
3.41763e-06
3.35175e-06
3.29403e-06
3.24391e-06
3.20103e-06
3.16495e-06
3.13564e-06
3.11268e-06
3.09541e-06
3.08347e-06
3.07669e-06
3.07473e-06
3.07686e-06
3.08179e-06
3.08758e-06
3.0911e-06
3.08931e-06
3.07465e-06
3.04897e-06
2.81687e-06
3.48372e-06
3.79519e-06
3.97396e-06
3.99371e-06
3.90415e-06
3.77201e-06
3.62915e-06
3.49089e-06
3.36481e-06
3.25272e-06
3.15409e-06
3.06784e-06
2.99271e-06
2.92748e-06
2.87115e-06
2.82292e-06
2.78215e-06
2.74828e-06
2.72091e-06
2.69959e-06
2.6839e-06
2.67347e-06
2.66798e-06
2.66697e-06
2.66968e-06
2.67501e-06
2.68138e-06
2.68683e-06
2.68838e-06
2.68346e-06
2.66588e-06
2.63737e-06
2.28401e-06
2.86977e-06
3.18168e-06
3.36884e-06
3.42415e-06
3.37625e-06
3.27704e-06
3.15876e-06
3.03954e-06
2.92906e-06
2.83059e-06
2.74432e-06
2.66949e-06
2.60504e-06
2.5499e-06
2.50315e-06
2.46402e-06
2.4319e-06
2.40624e-06
2.3866e-06
2.37255e-06
2.36362e-06
2.35926e-06
2.35883e-06
2.3616e-06
2.36667e-06
2.3729e-06
2.37876e-06
2.38246e-06
2.38141e-06
2.37356e-06
2.35398e-06
2.32423e-06
1.86659e-06
2.38339e-06
2.69819e-06
2.89155e-06
2.96971e-06
2.95448e-06
2.88766e-06
2.79847e-06
2.70354e-06
2.61202e-06
2.5279e-06
2.45256e-06
2.38626e-06
2.32878e-06
2.27959e-06
2.23813e-06
2.20383e-06
2.17614e-06
2.15455e-06
2.13854e-06
2.12762e-06
2.12122e-06
2.11873e-06
2.11948e-06
2.12276e-06
2.12763e-06
2.13296e-06
2.1373e-06
2.13902e-06
2.13594e-06
2.12644e-06
2.10671e-06
2.07819e-06
1.53187e-06
1.99284e-06
2.31114e-06
2.51393e-06
2.61319e-06
2.62664e-06
2.58683e-06
2.51977e-06
2.44182e-06
2.36296e-06
2.28849e-06
2.22088e-06
2.1611e-06
2.10931e-06
2.06523e-06
2.0284e-06
1.99832e-06
1.97445e-06
1.95625e-06
1.94319e-06
1.93473e-06
1.93029e-06
1.92924e-06
1.93088e-06
1.93441e-06
1.93888e-06
1.94322e-06
1.94613e-06
1.94624e-06
1.9418e-06
1.9316e-06
1.9128e-06
1.88678e-06
1.25748e-06
1.676e-06
1.99774e-06
2.2105e-06
2.32644e-06
2.36205e-06
2.34418e-06
2.29652e-06
2.23495e-06
2.16941e-06
2.10552e-06
2.04618e-06
1.99281e-06
1.94595e-06
1.90567e-06
1.87173e-06
1.8438e-06
1.82147e-06
1.8043e-06
1.7918e-06
1.78345e-06
1.77868e-06
1.77688e-06
1.77738e-06
1.7794e-06
1.78211e-06
1.78456e-06
1.78564e-06
1.78424e-06
1.77898e-06
1.769e-06
1.75221e-06
1.72997e-06
1.02789e-06
1.41661e-06
1.74158e-06
1.9643e-06
2.09487e-06
2.14949e-06
2.15086e-06
2.12007e-06
2.07217e-06
2.01702e-06
1.96071e-06
1.90681e-06
1.85729e-06
1.81315e-06
1.77477e-06
1.74214e-06
1.71507e-06
1.69323e-06
1.67622e-06
1.66358e-06
1.65481e-06
1.64937e-06
1.64666e-06
1.64604e-06
1.64681e-06
1.6482e-06
1.64937e-06
1.6494e-06
1.64739e-06
1.64229e-06
1.63354e-06
1.61959e-06
1.60183e-06
8.32194e-07
1.20299e-06
1.53144e-06
1.76349e-06
1.9066e-06
1.9768e-06
1.99395e-06
1.97713e-06
1.94072e-06
1.89459e-06
1.8451e-06
1.79619e-06
1.75017e-06
1.70831e-06
1.67122e-06
1.63911e-06
1.61191e-06
1.58942e-06
1.57135e-06
1.55731e-06
1.54688e-06
1.53958e-06
1.53488e-06
1.53222e-06
1.53099e-06
1.53051e-06
1.53009e-06
1.52898e-06
1.5265e-06
1.52186e-06
1.51472e-06
1.50394e-06
1.49091e-06
6.62818e-07
1.02699e-06
1.35939e-06
1.59969e-06
1.75357e-06
1.83683e-06
1.8674e-06
1.86257e-06
1.83598e-06
1.7973e-06
1.75306e-06
1.70748e-06
1.66326e-06
1.62201e-06
1.58463e-06
1.55155e-06
1.52291e-06
1.49864e-06
1.47855e-06
1.46235e-06
1.44969e-06
1.44016e-06
1.43329e-06
1.4286e-06
1.42555e-06
1.42357e-06
1.42207e-06
1.42045e-06
1.41817e-06
1.41464e-06
1.40967e-06
1.40237e-06
1.39414e-06
5.14993e-07
8.8341e-07
1.22008e-06
1.46724e-06
1.63013e-06
1.7241e-06
1.76564e-06
1.77056e-06
1.75179e-06
1.71883e-06
1.67835e-06
1.63487e-06
1.59137e-06
1.54976e-06
1.51116e-06
1.47622e-06
1.44523e-06
1.41829e-06
1.39531e-06
1.37612e-06
1.36047e-06
1.34803e-06
1.33844e-06
1.33129e-06
1.32612e-06
1.32247e-06
1.31986e-06
1.3178e-06
1.31586e-06
1.31358e-06
1.31087e-06
1.307e-06
1.30333e-06
3.87229e-07
7.69717e-07
1.1101e-06
1.36236e-06
1.53247e-06
1.63512e-06
1.68562e-06
1.69855e-06
1.68613e-06
1.65766e-06
1.61987e-06
1.57747e-06
1.5337e-06
1.49069e-06
1.44984e-06
1.412e-06
1.37767e-06
1.3471e-06
1.32037e-06
1.29743e-06
1.27814e-06
1.2623e-06
1.24962e-06
1.23979e-06
1.23244e-06
1.22718e-06
1.2236e-06
1.22131e-06
1.21994e-06
1.2191e-06
1.21874e-06
1.21818e-06
1.2188e-06
2.84065e-07
6.85853e-07
1.02756e-06
1.28269e-06
1.45806e-06
1.56733e-06
1.62469e-06
1.64357e-06
1.63555e-06
1.6097e-06
1.57279e-06
1.52974e-06
1.48401e-06
1.43803e-06
1.39343e-06
1.35128e-06
1.31231e-06
1.27693e-06
1.24539e-06
1.21778e-06
1.19408e-06
1.17421e-06
1.15799e-06
1.14517e-06
1.13549e-06
1.1286e-06
1.12416e-06
1.12179e-06
1.12119e-06
1.12198e-06
1.12409e-06
1.12685e-06
1.13154e-06
2.22748e-07
6.3355e-07
9.71751e-07
1.2271e-06
1.40578e-06
1.51996e-06
1.58263e-06
1.60621e-06
1.60163e-06
1.57771e-06
1.54119e-06
1.49709e-06
1.44905e-06
1.39969e-06
1.35085e-06
1.30382e-06
1.2595e-06
1.21852e-06
1.18129e-06
1.14808e-06
1.11906e-06
1.09426e-06
1.07366e-06
1.05713e-06
1.04448e-06
1.03545e-06
1.02973e-06
1.02699e-06
1.02688e-06
1.02903e-06
1.03332e-06
1.03898e-06
1.04732e-06
2.29632e-07
6.15011e-07
9.42587e-07
1.19491e-06
1.37452e-06
1.49131e-06
1.5569e-06
1.5827e-06
1.57901e-06
1.55441e-06
1.51565e-06
1.46792e-06
1.41508e-06
1.35998e-06
1.30472e-06
1.2508e-06
1.19933e-06
1.15114e-06
1.10682e-06
1.06684e-06
1.0315e-06
1.00102e-06
9.75501e-07
9.54938e-07
9.39226e-07
9.28159e-07
9.21453e-07
9.18743e-07
9.19658e-07
9.2373e-07
9.30754e-07
9.39854e-07
9.52186e-07
2.99692e-07
6.31264e-07
9.4069e-07
1.18697e-06
1.36589e-06
1.48443e-06
1.55261e-06
1.5808e-06
1.57861e-06
1.55424e-06
1.51431e-06
1.46397e-06
1.40718e-06
1.34693e-06
1.28547e-06
1.2245e-06
1.16532e-06
1.10897e-06
1.05627e-06
1.00788e-06
9.64369e-07
9.2618e-07
8.93646e-07
8.66977e-07
8.46243e-07
8.31364e-07
8.22118e-07
8.18139e-07
8.18994e-07
8.24099e-07
8.33117e-07
8.44933e-07
8.60739e-07
4.04959e-07
6.80634e-07
9.65943e-07
1.20257e-06
1.37757e-06
1.49427e-06
1.5609e-06
1.58689e-06
1.58136e-06
1.55239e-06
1.50665e-06
1.44947e-06
1.38498e-06
1.31635e-06
1.24599e-06
1.17575e-06
1.10707e-06
1.04108e-06
9.78771e-07
9.20964e-07
8.68411e-07
8.21789e-07
7.81689e-07
7.48586e-07
7.22795e-07
7.04422e-07
6.93338e-07
6.89167e-07
6.91354e-07
6.99121e-07
7.11877e-07
7.28287e-07
7.4919e-07
5.30772e-07
7.60613e-07
1.02e-06
1.24623e-06
1.41825e-06
1.5356e-06
1.60444e-06
1.63283e-06
1.62896e-06
1.60027e-06
1.55314e-06
1.49277e-06
1.42335e-06
1.34817e-06
1.26982e-06
1.19032e-06
1.11129e-06
1.03407e-06
9.59785e-07
8.89467e-07
8.24081e-07
7.6458e-07
7.11914e-07
6.67e-07
6.30661e-07
6.0351e-07
5.85836e-07
5.77487e-07
5.77895e-07
5.86026e-07
6.00918e-07
6.20646e-07
6.45986e-07
6.73829e-07
8.68781e-07
1.10133e-06
1.31261e-06
1.47473e-06
1.58363e-06
1.64404e-06
1.66366e-06
1.65069e-06
1.61273e-06
1.55626e-06
1.48657e-06
1.40785e-06
1.32334e-06
1.23557e-06
1.14645e-06
1.05752e-06
9.70013e-07
8.84971e-07
8.03369e-07
7.2617e-07
6.54414e-07
5.89287e-07
5.32167e-07
4.84612e-07
4.48226e-07
4.24346e-07
4.13583e-07
4.15502e-07
4.28535e-07
4.50746e-07
4.79291e-07
5.13892e-07
8.35674e-07
1.00593e-06
1.21725e-06
1.42081e-06
1.58434e-06
1.69949e-06
1.7678e-06
1.79465e-06
1.78678e-06
1.75102e-06
1.69366e-06
1.6202e-06
1.53519e-06
1.44231e-06
1.34449e-06
1.24401e-06
1.14264e-06
1.04175e-06
9.42442e-07
8.45603e-07
7.52037e-07
6.62539e-07
5.78012e-07
4.99621e-07
4.29011e-07
3.68597e-07
3.21788e-07
2.92595e-07
2.83892e-07
2.94894e-07
3.21562e-07
3.57713e-07
4.01549e-07
1.0209e-06
1.17292e-06
1.35896e-06
1.53933e-06
1.67996e-06
1.77223e-06
1.81904e-06
1.82718e-06
1.80405e-06
1.7564e-06
1.69003e-06
1.60975e-06
1.5194e-06
1.42206e-06
1.32016e-06
1.21561e-06
1.1099e-06
1.0042e-06
8.99435e-07
7.96311e-07
6.95393e-07
5.97131e-07
5.01908e-07
4.10089e-07
3.22116e-07
2.38738e-07
1.61742e-07
9.71189e-08
6.76519e-08
9.75961e-08
1.55135e-07
2.17664e-07
2.81796e-07
1.23616e-06
1.37951e-06
1.56053e-06
1.75447e-06
1.92132e-06
2.04231e-06
2.11324e-06
2.13754e-06
2.12191e-06
2.07402e-06
2.00136e-06
1.91051e-06
1.80695e-06
1.69502e-06
1.5781e-06
1.45872e-06
1.33878e-06
1.21967e-06
1.10238e-06
9.87642e-07
8.75993e-07
7.67819e-07
6.6343e-07
5.63103e-07
4.6716e-07
3.76092e-07
2.90879e-07
2.13927e-07
1.5236e-07
1.25473e-07
1.48604e-07
1.98055e-07
2.57543e-07
1.49264e-06
1.62523e-06
1.76501e-06
1.90037e-06
2.00448e-06
2.07092e-06
2.10269e-06
2.1045e-06
2.08045e-06
2.03419e-06
1.96934e-06
1.88941e-06
1.7977e-06
1.69726e-06
1.59084e-06
1.4808e-06
1.36919e-06
1.25769e-06
1.14771e-06
1.0404e-06
9.36739e-07
8.37607e-07
7.43838e-07
6.56325e-07
5.76127e-07
5.04585e-07
4.43442e-07
3.94847e-07
3.61125e-07
3.43964e-07
3.43746e-07
3.5828e-07
3.85403e-07
1.80278e-06
1.95186e-06
2.14539e-06
2.37865e-06
2.58296e-06
2.72008e-06
2.78617e-06
2.79182e-06
2.75019e-06
2.6739e-06
2.57366e-06
2.45781e-06
2.3325e-06
2.20213e-06
2.06982e-06
1.93777e-06
1.80756e-06
1.68036e-06
1.55706e-06
1.43838e-06
1.32494e-06
1.21732e-06
1.11608e-06
1.02179e-06
9.35108e-07
8.56735e-07
7.87465e-07
7.28118e-07
6.79512e-07
6.42157e-07
6.16524e-07
6.01571e-07
5.98459e-07
2.19646e-06
2.30504e-06
2.34168e-06
2.38102e-06
2.43428e-06
2.49466e-06
2.55104e-06
2.59159e-06
2.60733e-06
2.5944e-06
2.55346e-06
2.48793e-06
2.40251e-06
2.30213e-06
2.19144e-06
2.07445e-06
1.95451e-06
1.8343e-06
1.71593e-06
1.60105e-06
1.49095e-06
1.38666e-06
1.28898e-06
1.19862e-06
1.11617e-06
1.04216e-06
9.7706e-07
9.21273e-07
8.75117e-07
8.38739e-07
8.12247e-07
7.95299e-07
7.87591e-07
2.69355e-06
2.95907e-06
3.32035e-06
3.69301e-06
3.9327e-06
4.02274e-06
4.00777e-06
3.92758e-06
3.80794e-06
3.6657e-06
3.51091e-06
3.34909e-06
3.18347e-06
3.01631e-06
2.84953e-06
2.68491e-06
2.52421e-06
2.36908e-06
2.22106e-06
2.08147e-06
1.95141e-06
1.83177e-06
1.72319e-06
1.6261e-06
1.54069e-06
1.46694e-06
1.40459e-06
1.35316e-06
1.31199e-06
1.28021e-06
1.257e-06
1.24111e-06
1.23287e-06
3.39074e-06
3.27132e-06
2.95557e-06
2.86147e-06
2.99692e-06
3.22329e-06
3.43482e-06
3.58133e-06
3.65106e-06
3.65536e-06
3.61474e-06
3.54975e-06
3.47718e-06
3.40898e-06
3.35245e-06
3.31105e-06
3.28551e-06
3.27483e-06
3.2771e-06
3.29006e-06
3.31146e-06
3.33924e-06
3.37161e-06
3.40704e-06
3.44427e-06
3.48217e-06
3.51982e-06
3.55637e-06
3.59116e-06
3.6237e-06
3.65367e-06
3.68227e-06
3.70764e-06
4.41389e-06
5.56929e-06
6.26525e-06
6.4663e-06
6.32036e-06
6.0603e-06
5.88407e-06
5.88244e-06
6.06563e-06
6.39351e-06
6.80828e-06
7.2581e-06
7.70467e-06
8.12292e-06
8.49831e-06
8.8238e-06
9.09732e-06
9.31987e-06
9.49426e-06
9.62425e-06
9.71402e-06
9.76778e-06
9.78956e-06
9.78309e-06
9.75173e-06
9.69837e-06
9.6255e-06
9.53502e-06
9.42874e-06
9.30735e-06
9.17307e-06
9.02609e-06
8.87118e-06
5.73099e-06
3.62736e-06
2.69817e-06
4.49562e-06
7.21791e-06
9.80827e-06
1.20166e-05
1.37721e-05
1.50821e-05
1.59844e-05
1.6523e-05
1.67444e-05
1.66956e-05
1.64217e-05
1.59646e-05
1.53619e-05
1.46471e-05
1.38492e-05
1.29929e-05
1.20988e-05
1.1184e-05
1.0262e-05
9.34392e-06
8.43825e-06
7.5515e-06
6.68835e-06
5.85205e-06
5.04398e-06
4.26536e-06
3.51298e-06
2.79078e-06
2.08268e-06
1.41223e-06
1.14684e-05
1.64719e-05
1.81988e-05
1.96743e-05
2.00961e-05
1.92794e-05
1.74454e-05
1.48792e-05
1.19733e-05
9.37739e-06
8.19245e-06
9.2919e-06
1.20205e-05
1.53698e-05
1.88264e-05
2.21712e-05
2.53072e-05
2.81923e-05
3.08119e-05
3.31663e-05
3.5264e-05
3.71183e-05
3.87447e-05
4.01595e-05
4.13791e-05
4.24193e-05
4.32954e-05
4.40221e-05
4.46148e-05
4.50881e-05
4.54641e-05
4.57608e-05
4.60376e-05
2.49633e-05
2.87274e-05
3.91501e-05
5.37225e-05
6.81525e-05
8.22712e-05
9.53313e-05
0.000106718
0.000116377
0.00012438
0.000130827
0.00013587
0.000139676
0.000142408
0.000144218
0.000145244
0.000145609
0.000145421
0.000144775
0.000143749
0.000142413
0.000140825
0.000139032
0.000137078
0.000134994
0.000132809
0.000130547
0.000128222
0.000125855
0.000123445
0.000121011
0.000118568
0.000116333
0.000543398
0.000510606
0.000491549
0.000467705
0.000443468
0.000420861
0.000399042
0.000378082
0.000358256
0.000339589
0.000322073
0.0003057
0.000290433
0.000276215
0.00026298
0.000250659
0.000239182
0.00022848
0.000218486
0.000209137
0.000200377
0.000192153
0.000184416
0.000177124
0.000170237
0.000163722
0.000157544
0.00015168
0.000146078
0.000140753
0.000135518
0.000130959
0.000126697
9.59476e-05
9.38903e-05
9.23296e-05
9.31944e-05
9.60173e-05
9.92139e-05
0.000101318
0.000100034
9.2022e-05
7.74258e-05
6.14707e-05
4.88255e-05
3.96419e-05
3.19953e-05
2.51551e-05
2.1202e-05
2.31684e-05
2.32255e-05
1.0195e-05
1.51344e-05
3.17105e-05
3.60297e-05
3.25966e-05
2.78627e-05
2.41468e-05
2.13102e-05
1.90503e-05
1.72587e-05
1.58888e-05
1.48814e-05
1.41359e-05
1.36138e-05
1.35566e-05
1.49251e-05
2.05012e-05
3.1637e-05
4.13514e-05
4.87529e-05
5.30259e-05
4.59263e-05
3.64118e-05
3.58244e-05
3.21916e-05
2.37159e-05
1.47302e-05
1.22231e-05
1.59855e-05
2.03379e-05
2.06781e-05
1.67265e-05
1.46914e-05
1.9602e-05
2.77927e-05
3.47841e-05
3.80479e-05
3.68718e-05
3.24928e-05
2.70939e-05
2.23466e-05
1.87984e-05
1.62201e-05
1.42012e-05
1.24729e-05
1.09311e-05
9.54888e-06
8.31334e-06
7.20863e-06
6.21991e-06
5.33824e-06
4.5614e-06
3.89281e-06
3.34097e-06
2.91881e-06
2.63955e-06
2.51263e-06
2.54987e-06
2.77178e-06
3.20008e-06
3.83415e-06
4.65388e-06
5.72774e-06
7.43101e-06
1.07454e-05
1.70006e-05
2.62591e-05
3.58757e-05
4.17781e-05
4.17182e-05
3.60542e-05
2.62285e-05
1.37396e-05
2.76796e-06
1.66719e-05
3.07763e-05
4.06687e-05
4.46014e-05
4.29314e-05
3.58463e-05
3.10416e-05
1.61056e-05
0.000106387
0.00010205
9.70626e-05
9.38799e-05
9.28059e-05
9.32865e-05
9.46517e-05
9.5744e-05
9.58566e-05
9.25773e-05
8.36758e-05
7.08604e-05
5.80025e-05
4.80461e-05
4.25513e-05
3.98132e-05
3.30335e-05
1.55136e-05
9.75016e-06
2.89751e-05
3.61321e-05
3.4314e-05
2.99483e-05
2.61676e-05
2.31922e-05
2.07434e-05
1.87243e-05
1.71004e-05
1.58399e-05
1.49054e-05
1.42136e-05
1.37095e-05
1.35675e-05
1.46278e-05
1.93732e-05
3.05052e-05
4.19953e-05
5.05218e-05
5.55185e-05
4.93156e-05
3.79216e-05
3.52e-05
3.12896e-05
2.19839e-05
1.22403e-05
1.09248e-05
1.65009e-05
2.15701e-05
2.16743e-05
1.71472e-05
1.47638e-05
1.97353e-05
2.81123e-05
3.53396e-05
3.8872e-05
3.78835e-05
3.35223e-05
2.80033e-05
2.30946e-05
1.94139e-05
1.67468e-05
1.46677e-05
1.28915e-05
1.13062e-05
9.88291e-06
8.60888e-06
7.46867e-06
6.44782e-06
5.53784e-06
4.73697e-06
4.04893e-06
3.48215e-06
3.04947e-06
2.76483e-06
2.63816e-06
2.678e-06
2.89849e-06
3.31654e-06
3.93453e-06
4.73917e-06
5.80058e-06
7.4816e-06
1.07259e-05
1.69047e-05
2.62472e-05
3.62329e-05
4.27134e-05
4.31421e-05
3.76142e-05
2.7534e-05
1.44575e-05
2.0663e-06
1.69624e-05
3.14985e-05
4.15864e-05
4.55086e-05
4.37138e-05
3.64257e-05
3.15158e-05
1.66095e-05
8.36726e-05
8.12621e-05
7.74975e-05
7.40932e-05
7.18824e-05
7.08755e-05
7.0721e-05
7.10179e-05
7.15871e-05
7.21234e-05
7.12733e-05
6.77363e-05
6.16332e-05
5.39834e-05
4.45498e-05
3.1187e-05
1.18854e-05
1.06222e-05
2.82986e-05
3.57354e-05
3.49273e-05
3.11285e-05
2.75672e-05
2.47169e-05
2.22837e-05
2.01636e-05
1.83711e-05
1.69052e-05
1.57487e-05
1.48844e-05
1.42479e-05
1.377e-05
1.3561e-05
1.43419e-05
1.8219e-05
2.88945e-05
4.19609e-05
5.1974e-05
5.78728e-05
5.27643e-05
3.99122e-05
3.44117e-05
3.01948e-05
2.03442e-05
9.94143e-06
1.02499e-05
1.73456e-05
2.27299e-05
2.24241e-05
1.7404e-05
1.49209e-05
2.01033e-05
2.86557e-05
3.60486e-05
3.97755e-05
3.89248e-05
3.45618e-05
2.8923e-05
2.38596e-05
2.00512e-05
1.72966e-05
1.51568e-05
1.33318e-05
1.1702e-05
1.02366e-05
8.92269e-06
7.74537e-06
6.69061e-06
5.7504e-06
4.92347e-06
4.21374e-06
3.6295e-06
3.18283e-06
2.88658e-06
2.75072e-06
2.78542e-06
3.0046e-06
3.42129e-06
4.03337e-06
4.82367e-06
5.85659e-06
7.48762e-06
1.063e-05
1.66781e-05
2.60449e-05
3.63974e-05
4.35514e-05
4.46706e-05
3.95755e-05
2.96482e-05
1.68099e-05
7.02735e-06
1.85254e-05
3.2782e-05
4.2768e-05
4.64954e-05
4.44525e-05
3.68879e-05
3.18432e-05
1.70177e-05
4.75102e-05
4.48191e-05
4.13939e-05
3.83772e-05
3.64534e-05
3.55924e-05
3.54256e-05
3.55923e-05
3.57792e-05
3.58284e-05
3.54514e-05
3.38928e-05
3.0167e-05
2.33724e-05
1.34599e-05
7.50736e-06
1.94369e-05
3.05242e-05
3.51982e-05
3.4265e-05
3.10906e-05
2.80873e-05
2.56559e-05
2.34715e-05
2.14201e-05
1.95715e-05
1.79865e-05
1.66732e-05
1.56215e-05
1.48282e-05
1.42484e-05
1.38052e-05
1.35501e-05
1.40939e-05
1.71735e-05
2.69688e-05
4.13372e-05
5.32469e-05
6.03602e-05
5.6577e-05
4.27673e-05
3.38005e-05
2.88976e-05
1.88675e-05
8.16686e-06
1.05803e-05
1.85199e-05
2.36795e-05
2.27469e-05
1.73603e-05
1.50575e-05
2.0574e-05
2.92911e-05
3.68093e-05
4.06961e-05
3.99627e-05
3.55928e-05
2.98411e-05
2.46342e-05
2.0707e-05
1.78694e-05
1.56702e-05
1.37963e-05
1.21213e-05
1.06125e-05
9.25715e-06
8.04064e-06
6.94958e-06
5.97661e-06
5.12097e-06
4.38691e-06
3.78269e-06
3.32006e-06
3.0108e-06
2.86352e-06
2.88858e-06
3.1022e-06
3.51911e-06
4.13488e-06
4.92249e-06
5.92742e-06
7.48924e-06
1.04993e-05
1.63751e-05
2.57335e-05
3.64829e-05
4.44286e-05
4.64276e-05
4.20022e-05
3.25167e-05
2.0402e-05
1.2435e-05
2.12208e-05
3.4503e-05
4.40763e-05
4.74552e-05
4.50891e-05
3.7223e-05
3.20643e-05
1.74034e-05
7.44434e-06
5.82615e-06
4.21366e-06
3.97999e-06
4.80827e-06
5.24663e-06
4.9914e-06
4.86262e-06
6.14909e-06
8.68057e-06
1.13289e-05
1.35127e-05
1.54448e-05
1.82065e-05
2.25929e-05
2.78701e-05
3.1951e-05
3.32397e-05
3.19713e-05
2.96949e-05
2.7613e-05
2.58479e-05
2.41062e-05
2.23031e-05
2.05481e-05
1.89523e-05
1.75664e-05
1.64002e-05
1.54516e-05
1.47277e-05
1.4203e-05
1.37989e-05
1.35161e-05
1.38499e-05
1.62278e-05
2.47808e-05
3.99253e-05
5.39975e-05
6.27734e-05
6.06222e-05
4.65277e-05
3.37532e-05
2.7369e-05
1.75587e-05
7.34519e-06
1.1824e-05
1.98654e-05
2.42924e-05
2.25548e-05
1.70148e-05
1.52536e-05
2.12413e-05
3.00889e-05
3.76552e-05
4.16308e-05
4.0968e-05
3.65748e-05
3.07189e-05
2.53881e-05
2.13587e-05
1.84477e-05
1.61936e-05
1.42727e-05
1.25535e-05
1.10017e-05
9.60445e-06
8.3477e-06
7.21877e-06
6.21104e-06
5.32441e-06
4.56346e-06
3.93649e-06
3.45516e-06
3.13094e-06
2.9715e-06
2.98608e-06
3.19157e-06
3.6063e-06
4.22885e-06
5.02477e-06
6.01222e-06
7.49747e-06
1.03433e-05
1.59831e-05
2.52497e-05
3.63631e-05
4.51744e-05
4.82272e-05
4.47157e-05
3.59783e-05
2.4918e-05
1.8231e-05
2.48379e-05
3.66538e-05
4.55084e-05
4.83601e-05
4.55744e-05
3.73777e-05
3.21282e-05
1.77177e-05
1.06899e-05
1.11085e-05
1.13668e-05
1.11236e-05
1.01252e-05
8.33778e-06
6.09577e-06
4.63852e-06
6.05203e-06
9.47998e-06
1.34419e-05
1.73227e-05
2.09091e-05
2.40211e-05
2.64932e-05
2.80627e-05
2.85225e-05
2.80386e-05
2.71511e-05
2.62388e-05
2.52631e-05
2.40682e-05
2.26552e-05
2.115e-05
1.96793e-05
1.8322e-05
1.71199e-05
1.60922e-05
1.52442e-05
1.45882e-05
1.41159e-05
1.3754e-05
1.34622e-05
1.36134e-05
1.53962e-05
2.24826e-05
3.77103e-05
5.39549e-05
6.48652e-05
6.47229e-05
5.11147e-05
3.47561e-05
2.56758e-05
1.6318e-05
7.66478e-06
1.35005e-05
2.10986e-05
2.44149e-05
2.18051e-05
1.64058e-05
1.55618e-05
2.21214e-05
3.10503e-05
3.85851e-05
4.25811e-05
4.19424e-05
3.75074e-05
3.15553e-05
2.61213e-05
2.2009e-05
1.90359e-05
1.67318e-05
1.47659e-05
1.30033e-05
1.14085e-05
9.96857e-06
8.67004e-06
7.50107e-06
6.45597e-06
5.53534e-06
4.74422e-06
4.09102e-06
3.58733e-06
3.24472e-06
3.07121e-06
3.07564e-06
3.27392e-06
3.68596e-06
4.31578e-06
5.12766e-06
6.11215e-06
7.52567e-06
1.01843e-05
1.55221e-05
2.45867e-05
3.59773e-05
4.56814e-05
4.99535e-05
4.76203e-05
3.99355e-05
3.00878e-05
2.42865e-05
2.90886e-05
3.91439e-05
4.70021e-05
4.91509e-05
4.58615e-05
3.73307e-05
3.20451e-05
1.79726e-05
8.58375e-06
8.65545e-06
8.52237e-06
7.95662e-06
6.82961e-06
5.17203e-06
3.27165e-06
2.47798e-06
4.40847e-06
7.40071e-06
1.06449e-05
1.3852e-05
1.68125e-05
1.93623e-05
2.13902e-05
2.28199e-05
2.36905e-05
2.4136e-05
2.42342e-05
2.39663e-05
2.33249e-05
2.23822e-05
2.12521e-05
2.00397e-05
1.88287e-05
1.76831e-05
1.66485e-05
1.57513e-05
1.50012e-05
1.44113e-05
1.39877e-05
1.36688e-05
1.33838e-05
1.33855e-05
1.46706e-05
2.02128e-05
3.47583e-05
5.29294e-05
6.64104e-05
6.87367e-05
5.64262e-05
3.73142e-05
2.41644e-05
1.48843e-05
8.66484e-06
1.51459e-05
2.19406e-05
2.39421e-05
2.05438e-05
1.5662e-05
1.60861e-05
2.32647e-05
3.2198e-05
3.96057e-05
4.35442e-05
4.28746e-05
3.83739e-05
3.23341e-05
2.68224e-05
2.26508e-05
1.96301e-05
1.72827e-05
1.52748e-05
1.347e-05
1.18325e-05
1.03493e-05
9.00749e-06
7.79635e-06
6.71118e-06
5.75345e-06
4.92871e-06
4.24565e-06
3.71605e-06
3.35166e-06
3.16116e-06
3.1541e-06
3.34585e-06
3.75606e-06
4.39323e-06
5.2252e-06
6.22036e-06
7.57592e-06
1.00385e-05
1.50172e-05
2.376e-05
3.5303e-05
4.58772e-05
5.14999e-05
5.05865e-05
4.42042e-05
3.56281e-05
3.04568e-05
3.36793e-05
4.18335e-05
4.84696e-05
4.97509e-05
4.58942e-05
3.70593e-05
3.18275e-05
1.8171e-05
5.81048e-06
5.84696e-06
5.71904e-06
5.28631e-06
4.46495e-06
3.26765e-06
1.94971e-06
1.92574e-06
3.8271e-06
6.29724e-06
8.93615e-06
1.15775e-05
1.40951e-05
1.63698e-05
1.83057e-05
1.98517e-05
2.09916e-05
2.17107e-05
2.20034e-05
2.19014e-05
2.14724e-05
2.07944e-05
1.9941e-05
1.89841e-05
1.79956e-05
1.70378e-05
1.61567e-05
1.53819e-05
1.47257e-05
1.42003e-05
1.38214e-05
1.35447e-05
1.32795e-05
1.31675e-05
1.40384e-05
1.81181e-05
3.1197e-05
5.07512e-05
6.7112e-05
7.24375e-05
6.22599e-05
4.17062e-05
2.36723e-05
1.29421e-05
9.52838e-06
1.64439e-05
2.22238e-05
2.28766e-05
1.89356e-05
1.5002e-05
1.69463e-05
2.47152e-05
3.35411e-05
4.07127e-05
4.45119e-05
4.37527e-05
3.91604e-05
3.30434e-05
2.74838e-05
2.32811e-05
2.023e-05
1.78476e-05
1.58012e-05
1.39558e-05
1.22757e-05
1.07484e-05
9.3617e-06
8.10595e-06
6.9777e-06
5.97933e-06
5.11704e-06
4.39993e-06
3.84018e-06
3.45008e-06
3.23963e-06
3.21968e-06
3.40549e-06
3.81539e-06
4.4605e-06
5.31448e-06
6.3307e-06
7.6453e-06
9.91559e-06
1.44912e-05
2.27852e-05
3.4312e-05
4.56646e-05
5.27055e-05
5.34061e-05
4.8529e-05
4.12532e-05
3.65258e-05
3.83116e-05
4.45381e-05
4.97827e-05
5.00536e-05
4.56088e-05
3.65536e-05
3.15092e-05
1.83268e-05
4.69631e-06
4.7162e-06
4.60345e-06
4.25763e-06
3.62009e-06
2.72747e-06
1.89919e-06
2.17148e-06
3.70454e-06
5.73155e-06
7.94747e-06
1.02038e-05
1.23877e-05
1.44039e-05
1.61788e-05
1.76521e-05
1.87783e-05
1.95375e-05
1.9939e-05
2.00128e-05
1.98003e-05
1.93508e-05
1.87211e-05
1.79754e-05
1.71793e-05
1.63894e-05
1.56486e-05
1.49872e-05
1.44203e-05
1.39579e-05
1.36205e-05
1.33834e-05
1.3148e-05
1.2961e-05
1.34847e-05
1.6315e-05
2.72421e-05
4.73288e-05
6.66341e-05
7.54989e-05
6.82976e-05
4.78396e-05
2.54566e-05
1.05744e-05
9.42954e-06
1.71233e-05
2.1909e-05
2.13665e-05
1.72733e-05
1.47123e-05
1.8276e-05
2.65214e-05
3.50833e-05
4.18957e-05
4.54703e-05
4.45587e-05
3.98478e-05
3.36679e-05
2.80961e-05
2.38951e-05
2.08339e-05
1.84267e-05
1.63464e-05
1.44623e-05
1.27399e-05
1.11674e-05
9.73376e-06
8.43068e-06
7.25601e-06
6.21318e-06
5.30908e-06
4.55343e-06
3.95904e-06
3.53912e-06
3.30544e-06
3.27085e-06
3.45088e-06
3.86192e-06
4.51589e-06
5.39295e-06
6.43821e-06
7.72964e-06
9.82157e-06
1.39685e-05
2.16908e-05
3.2994e-05
4.49541e-05
5.33942e-05
5.58357e-05
5.26172e-05
4.66483e-05
4.2229e-05
4.26888e-05
4.70355e-05
5.07664e-05
4.99228e-05
4.4944e-05
3.58258e-05
3.11454e-05
1.84556e-05
4.00598e-06
3.9977e-06
3.87653e-06
3.57637e-06
3.07091e-06
2.4263e-06
1.95924e-06
2.32699e-06
3.573e-06
5.25477e-06
7.13064e-06
9.06919e-06
1.09749e-05
1.27668e-05
1.43749e-05
1.57439e-05
1.68372e-05
1.76354e-05
1.81341e-05
1.83449e-05
1.82944e-05
1.80215e-05
1.7575e-05
1.70098e-05
1.63821e-05
1.57417e-05
1.51279e-05
1.45708e-05
1.40882e-05
1.36877e-05
1.3389e-05
1.31877e-05
1.29892e-05
1.27657e-05
1.30024e-05
1.48647e-05
2.31951e-05
4.26908e-05
6.46649e-05
7.75322e-05
7.4137e-05
5.5311e-05
3.03974e-05
9.63034e-06
7.6727e-06
1.68629e-05
2.10093e-05
1.96687e-05
1.59409e-05
1.50968e-05
2.02108e-05
2.87235e-05
3.68129e-05
4.31325e-05
4.63978e-05
4.52694e-05
4.04141e-05
3.41922e-05
2.8651e-05
2.44893e-05
2.14412e-05
1.90212e-05
1.6913e-05
1.49926e-05
1.32281e-05
1.16089e-05
1.01257e-05
8.77198e-06
7.54712e-06
6.45558e-06
5.50501e-06
4.70582e-06
4.07169e-06
3.61728e-06
3.35676e-06
3.30589e-06
3.48066e-06
3.89455e-06
4.55834e-06
5.45865e-06
6.53887e-06
7.8251e-06
9.7603e-06
1.34735e-05
2.05192e-05
3.13665e-05
4.36848e-05
5.34018e-05
5.76172e-05
5.61438e-05
5.14701e-05
4.72595e-05
4.65079e-05
4.90624e-05
5.11885e-05
4.91966e-05
4.38601e-05
3.49255e-05
3.08127e-05
1.85745e-05
3.45472e-06
3.43639e-06
3.32859e-06
3.09061e-06
2.71898e-06
2.29565e-06
2.0879e-06
2.48489e-06
3.50207e-06
4.88983e-06
6.47098e-06
8.13466e-06
9.79681e-06
1.13863e-05
1.28435e-05
1.41197e-05
1.51767e-05
1.59889e-05
1.65454e-05
1.6851e-05
1.69238e-05
1.67937e-05
1.65e-05
1.60884e-05
1.56063e-05
1.50976e-05
1.45981e-05
1.41366e-05
1.37325e-05
1.33926e-05
1.31316e-05
1.29613e-05
1.28041e-05
1.2579e-05
1.25939e-05
1.37581e-05
1.94266e-05
3.70101e-05
6.09543e-05
7.81075e-05
7.93075e-05
6.35344e-05
3.83059e-05
1.38118e-05
4.43249e-06
1.54343e-05
1.95448e-05
1.80802e-05
1.53493e-05
1.64424e-05
2.28839e-05
3.13414e-05
3.86968e-05
4.43885e-05
4.72644e-05
4.58544e-05
4.08335e-05
3.45998e-05
2.91402e-05
2.50601e-05
2.20511e-05
1.96325e-05
1.75039e-05
1.55506e-05
1.37441e-05
1.20762e-05
1.054e-05
9.13166e-06
7.85214e-06
6.70709e-06
5.70491e-06
4.85675e-06
4.17736e-06
3.68323e-06
3.39196e-06
3.32304e-06
3.49332e-06
3.91228e-06
4.58712e-06
5.51006e-06
6.62902e-06
7.92819e-06
9.73523e-06
1.30304e-05
1.93245e-05
2.94763e-05
4.18318e-05
5.25894e-05
5.84968e-05
5.87753e-05
5.53514e-05
5.12889e-05
4.94596e-05
5.0296e-05
5.07513e-05
4.77125e-05
4.23743e-05
3.39546e-05
3.05999e-05
1.8695e-05
3.03871e-06
3.02005e-06
2.93274e-06
2.75428e-06
2.49733e-06
2.24537e-06
2.19808e-06
2.58491e-06
3.42494e-06
4.57944e-06
5.92067e-06
7.35598e-06
8.8127e-06
1.02291e-05
1.15513e-05
1.27335e-05
1.37397e-05
1.45445e-05
1.51342e-05
1.55075e-05
1.56752e-05
1.56596e-05
1.54919e-05
1.52097e-05
1.4853e-05
1.44598e-05
1.40626e-05
1.3688e-05
1.33566e-05
1.30756e-05
1.28527e-05
1.27088e-05
1.25943e-05
1.23973e-05
1.22663e-05
1.2936e-05
1.63318e-05
3.06501e-05
5.53632e-05
7.67752e-05
8.32768e-05
7.18328e-05
4.83046e-05
2.28744e-05
6.74046e-06
1.34655e-05
1.78041e-05
1.70333e-05