/*--------------------------------*- C++ -*----------------------------------*\
  =========                 |
  \\      /  F ield         | OpenFOAM: The Open Source CFD Toolbox
   \\    /   O peration     | Website:  https://openfoam.org
    \\  /    A nd           | Version:  10
     \\/     M anipulation  |
\*---------------------------------------------------------------------------*/
FoamFile
{
    format      ascii;
    class       volScalarField;
    location    "0.2";
    object      p;
}
// * * * * * * * * * * * * * * * * * * * * * * * * * * * * * * * * * * * * * //

dimensions      [0 2 -2 0 0 0 0];

internalField   nonuniform List<scalar> 
6820
(
7.27169
-7.06166
-9.06693
-9.25474
-9.41811
-9.36711
-9.34498
-9.37548
-9.43196
-9.50453
-9.58675
-9.67497
-9.76763
-9.8641
-9.96411
-10.0676
-10.1744
-10.2852
-10.3996
-10.5181
-10.6408
-10.768
-10.9002
-11.0378
-11.1816
-11.3321
-11.4905
-11.6576
-11.8356
-12.0231
-12.2324
-12.4349
-12.7276
1.89554
-6.85734
-8.87033
-9.13193
-9.34752
-9.36046
-9.35993
-9.39698
-9.45374
-9.52356
-9.6026
-9.68796
-9.77826
-9.87285
-9.97144
-10.0739
-10.1801
-10.2896
-10.4036
-10.5217
-10.6441
-10.771
-10.9027
-11.0398
-11.1831
-11.3331
-11.4907
-11.657
-11.8336
-12.0205
-12.2261
-12.437
-12.7227
-0.181938
-5.64233
-8.07363
-8.67361
-9.0644
-9.22045
-9.2822
-9.34637
-9.41891
-9.4985
-9.58435
-9.67483
-9.76893
-9.86623
-9.96662
-10.0701
-10.1768
-10.2869
-10.4008
-10.5182
-10.64
-10.7662
-10.8971
-11.0331
-11.1748
-11.3228
-11.4779
-11.6408
-11.813
-11.9935
-12.1866
-12.3783
-12.5784
-1.74671
-5.45615
-7.77262
-8.43019
-8.82178
-9.04073
-9.15249
-9.24845
-9.3438
-9.43822
-9.53345
-9.6302
-9.7287
-9.82929
-9.93222
-10.0376
-10.1457
-10.2565
-10.3705
-10.4877
-10.6084
-10.733
-10.8612
-10.9944
-11.1327
-11.2763
-11.4257
-11.5812
-11.7432
-11.9103
-12.0828
-12.2504
-12.4097
-3.02841
-5.49652
-7.46079
-8.15126
-8.57075
-8.85504
-9.02023
-9.14618
-9.26037
-9.3672
-9.47082
-9.57375
-9.6768
-9.78046
-9.88534
-9.9919
-10.1004
-10.211
-10.3242
-10.44
-10.5584
-10.6796
-10.8047
-10.933
-11.0651
-11.2011
-11.341
-11.4848
-11.6318
-11.7804
-11.9284
-12.0682
-12.1928
-3.98195
-5.61525
-7.27192
-7.99314
-8.42186
-8.72801
-8.91885
-9.06081
-9.18647
-9.30211
-9.41205
-9.51943
-9.6257
-9.7317
-9.83803
-9.9452
-10.0536
-10.1634
-10.2751
-10.3888
-10.5048
-10.6236
-10.745
-10.8685
-10.9945
-11.1231
-11.2541
-11.3867
-11.52
-11.6521
-11.7799
-11.8979
-11.9996
-4.72281
-5.82242
-7.17888
-7.87003
-8.28475
-8.59908
-8.81355
-8.97441
-9.11354
-9.2391
-9.35598
-9.4682
-9.57788
-9.68616
-9.79389
-9.90174
-10.0102
-10.1195
-10.2301
-10.3422
-10.456
-10.5713
-10.6883
-10.8067
-10.9267
-11.048
-11.1702
-11.2925
-11.4134
-11.5311
-11.6423
-11.7429
-11.8269
-5.3015
-6.0468
-7.13513
-7.77935
-8.18244
-8.49869
-8.72744
-8.90038
-9.04786
-9.1799
-9.30168
-9.41747
-9.52972
-9.63976
-9.74858
-9.85686
-9.96512
-10.0737
-10.1828
-10.2928
-10.4036
-10.5154
-10.6283
-10.7419
-10.8561
-10.9705
-11.0845
-11.1972
-11.3071
-11.4122
-11.5098
-11.5964
-11.6671
-5.75897
-6.27252
-7.13855
-7.72299
-8.10536
-8.41207
-8.64567
-8.82668
-8.98114
-9.11931
-9.24609
-9.36565
-9.48064
-9.59259
-9.70255
-9.8113
-9.91938
-10.0272
-10.135
-10.2429
-10.3512
-10.4598
-10.5686
-10.6773
-10.7858
-10.8934
-10.9996
-11.1034
-11.2033
-11.2975
-11.3836
-11.4589
-11.5197
-6.12501
-6.48544
-7.16983
-7.68805
-8.04611
-8.34029
-8.57472
-8.76113
-8.92055
-9.06302
-9.19335
-9.3156
-9.43251
-9.54571
-9.65632
-9.76513
-9.87272
-9.97948
-10.0857
-10.1914
-10.2969
-10.4019
-10.5065
-10.6104
-10.7132
-10.8144
-10.9133
-11.0089
-11.1
-11.1849
-11.2616
-11.328
-11.3814
-6.42083
-6.67919
-7.21935
-7.67232
-8.00385
-8.28222
-8.51223
-8.69998
-8.86183
-9.00702
-9.14005
-9.26456
-9.38318
-9.49755
-9.60877
-9.71765
-9.82475
-9.93047
-10.0351
-10.1387
-10.2414
-10.3431
-10.4437
-10.5429
-10.6404
-10.7355
-10.8277
-10.916
-10.9992
-11.0761
-11.145
-11.2044
-11.2522
-6.66194
-6.85141
-7.27851
-7.66998
-7.97353
-8.23447
-8.45722
-8.64409
-8.80701
-8.95392
-9.08884
-9.21497
-9.33478
-9.44988
-9.56135
-9.66998
-9.77633
-9.88079
-9.98361
-10.0849
-10.1847
-10.283
-10.3796
-10.4742
-10.5665
-10.6559
-10.7418
-10.8234
-10.8997
-10.9697
-11.0321
-11.0859
-11.1296
-6.85961
-7.0018
-7.3412
-7.67722
-7.95298
-8.19599
-8.4094
-8.59309
-8.75527
-8.90248
-9.03823
-9.16526
-9.28579
-9.4013
-9.5128
-9.62105
-9.72658
-9.82974
-9.93077
-10.0298
-10.1268
-10.2218
-10.3145
-10.4048
-10.4922
-10.5763
-10.6565
-10.7322
-10.8025
-10.8666
-10.9235
-10.9728
-11.0132
-7.02211
-7.13129
-7.40302
-7.69045
-7.93934
-8.16444
-8.36727
-8.54618
-8.70644
-8.85311
-8.98904
-9.1165
-9.23739
-9.35302
-9.46433
-9.572
-9.67654
-9.77827
-9.87741
-9.97406
-10.0682
-10.1599
-10.2488
-10.3349
-10.4176
-10.4967
-10.5717
-10.6419
-10.7068
-10.7658
-10.8182
-10.8636
-10.9014
-7.15559
-7.24126
-7.46092
-7.70671
-7.93046
-8.13827
-8.33002
-8.50308
-8.66038
-8.80559
-8.94094
-9.06823
-9.189
-9.30439
-9.41525
-9.52216
-9.62558
-9.72579
-9.823
-9.91731
-10.0087
-10.0971
-10.1825
-10.2645
-10.3429
-10.4174
-10.4876
-10.5529
-10.6131
-10.6676
-10.716
-10.7581
-10.7937
-7.26462
-7.33323
-7.51284
-7.72355
-7.92432
-8.11581
-8.29644
-8.46295
-8.61656
-8.7597
-8.89395
-9.02066
-9.14102
-9.25597
-9.3662
-9.47222
-9.57442
-9.67306
-9.76831
-9.86025
-9.94889
-10.0342
-10.116
-10.1942
-10.2685
-10.3387
-10.4044
-10.4653
-10.5211
-10.5716
-10.6164
-10.6556
-10.689
-7.35262
-7.40864
-7.55742
-7.73897
-7.9192
-8.09562
-8.2655
-8.4252
-8.57468
-8.71527
-8.848
-8.97374
-9.09337
-9.20761
-9.31702
-9.422
-9.52287
-9.61987
-9.71313
-9.80273
-9.88868
-9.97094
-10.0494
-10.124
-10.1944
-10.2606
-10.3222
-10.379
-10.4309
-10.4777
-10.5193
-10.5558
-10.587
-7.42216
-7.46877
-7.59378
-7.75136
-7.9136
-8.07636
-8.23615
-8.38908
-8.5342
-8.67198
-8.80288
-8.92741
-9.04611
-9.15948
-9.26794
-9.3718
-9.4713
-9.56663
-9.6579
-9.74519
-9.82851
-9.90782
-9.98307
-10.0542
-10.121
-10.1833
-10.2411
-10.2942
-10.3425
-10.3858
-10.4243
-10.4581
-10.4871
-7.47517
-7.51467
-7.62132
-7.75944
-7.9062
-8.05685
-8.20742
-8.35389
-8.49469
-8.62957
-8.75853
-8.88168
-8.99932
-9.11172
-9.21915
-9.32181
-9.4199
-9.51355
-9.60286
-9.68788
-9.76864
-9.84513
-9.91731
-9.98511
-10.0485
-10.1073
-10.1615
-10.2111
-10.2559
-10.2961
-10.3316
-10.3626
-10.3894
-7.51304
-7.54713
-7.63966
-7.76213
-7.89585
-8.036
-8.17838
-8.31893
-8.45562
-8.58766
-8.71465
-8.83639
-8.95289
-9.06425
-9.1706
-9.27205
-9.36871
-9.46069
-9.54806
-9.63086
-9.70914
-9.78289
-9.85211
-9.91678
-9.97686
-10.0323
-10.0832
-10.1293
-10.1709
-10.208
-10.2405
-10.2689
-10.2932
-7.53676
-7.56675
-7.64847
-7.75855
-7.88154
-8.01284
-8.1482
-8.28354
-8.41656
-8.54604
-8.67123
-8.79165
-8.90709
-9.01748
-9.1228
-9.22308
-9.31838
-9.40876
-9.49426
-9.57494
-9.65084
-9.72199
-9.78839
-9.85008
-9.90705
-9.95932
-10.0069
-10.0499
-10.0884
-10.1223
-10.152
-10.1776
-10.1993
-7.54696
-7.57387
-7.64743
-7.74793
-7.86235
-7.98646
-8.11602
-8.24702
-8.37692
-8.5042
-8.62782
-8.74706
-8.86154
-8.97099
-9.07532
-9.17446
-9.26842
-9.35722
-9.44091
-9.51952
-9.59312
-9.66174
-9.72543
-9.78425
-9.83823
-9.88744
-9.93195
-9.97184
-10.0072
-10.0382
-10.065
-10.0878
-10.1068
-7.54394
-7.56862
-7.6362
-7.72956
-7.83747
-7.95608
-8.08123
-8.20893
-8.33651
-8.46221
-8.58474
-8.70321
-8.81702
-8.92582
-9.02939
-9.12759
-9.22038
-9.30777
-9.38978
-9.46647
-9.5379
-9.60413
-9.66525
-9.72133
-9.77246
-9.81873
-9.86025
-9.89713
-9.92952
-9.95757
-9.98145
-10.0014
-10.0175
-7.52775
-7.55088
-7.61433
-7.70271
-7.80605
-7.9208
-8.0429
-8.16837
-8.29443
-8.41912
-8.54099
-8.65897
-8.77234
-8.88063
-8.98353
-9.08087
-9.17257
-9.2586
-9.339
-9.41382
-9.48315
-9.54708
-9.6057
-9.65913
-9.7075
-9.75092
-9.78953
-9.82348
-9.85293
-9.87806
-9.89904
-9.9161
-9.92937
-7.4981
-7.52029
-7.58127
-7.66671
-7.76746
-7.88018
-8.00087
-8.12554
-8.25129
-8.37602
-8.49811
-8.61634
-8.72988
-8.83817
-8.94084
-9.03767
-9.12856
-9.21348
-9.29247
-9.36561
-9.43299
-9.49474
-9.55099
-9.60188
-9.64758
-9.68822
-9.72399
-9.75506
-9.78159
-9.8038
-9.82184
-9.83596
-9.84626
-7.4544
-7.47622
-7.53623
-7.6206
-7.72056
-7.83288
-7.95357
-8.07858
-8.20493
-8.33038
-8.4532
-8.57208
-8.68609
-8.79461
-8.89722
-8.99368
-9.08388
-9.16779
-9.24547
-9.317
-9.38252
-9.44218
-9.49613
-9.54457
-9.58767
-9.62561
-9.65861
-9.68685
-9.71052
-9.72985
-9.74502
-9.75628
-9.76373
-7.39573
-7.41777
-7.47843
-7.56384
-7.66528
-7.77951
-7.90243
-8.02986
-8.15866
-8.28645
-8.41138
-8.53205
-8.64746
-8.75695
-8.8601
-8.95665
-9.04652
-9.12969
-9.20626
-9.27634
-9.34012
-9.39776
-9.44949
-9.49552
-9.53605
-9.57132
-9.60155
-9.62695
-9.64775
-9.66416
-9.67639
-9.68466
-9.68908
-7.32068
-7.34347
-7.40621
-7.49442
-7.59899
-7.71659
-7.84299
-7.97386
-8.10594
-8.23677
-8.36439
-8.48734
-8.60458
-8.71543
-8.81943
-8.91637
-9.00614
-9.08879
-9.16443
-9.23323
-9.29539
-9.35115
-9.40076
-9.44446
-9.48252
-9.51519
-9.54272
-9.56536
-9.58335
-9.59695
-9.60635
-9.61182
-9.6135
-7.22749
-7.25192
-7.31905
-7.4132
-7.52443
-7.64907
-7.7825
-7.92004
-8.05819
-8.19435
-8.32651
-8.45317
-8.57333
-8.68631
-8.79174
-8.88942
-8.97936
-9.06163
-9.13641
-9.20394
-9.26448
-9.31832
-9.36574
-9.40706
-9.44257
-9.47255
-9.4973
-9.51709
-9.53217
-9.54281
-9.54923
-9.55167
-9.55027
-7.11336
-7.13976
-7.21251
-7.31383
-7.43257
-7.56494
-7.70611
-7.85107
-7.99613
-8.13857
-8.27624
-8.4076
-8.53159
-8.64756
-8.75516
-8.85425
-8.94489
-9.02723
-9.10152
-9.16808
-9.22723
-9.27932
-9.32472
-9.36378
-9.39684
-9.42424
-9.4463
-9.46333
-9.47563
-9.48348
-9.48714
-9.48689
-9.48291
-6.97549
-7.00622
-7.08988
-7.20518
-7.33858
-7.48541
-7.64009
-7.79706
-7.95246
-8.10359
-8.2484
-8.38546
-8.51385
-8.63306
-8.74287
-8.84328
-8.93445
-9.01664
-9.0902
-9.15553
-9.21302
-9.26312
-9.30623
-9.34276
-9.37312
-9.39767
-9.41678
-9.43078
-9.44
-9.44473
-9.44524
-9.4418
-9.43458
-6.80746
-6.84103
-6.93446
-7.06199
-7.20831
-7.36903
-7.53798
-7.70872
-7.87688
-8.03946
-8.19419
-8.33955
-8.47466
-8.59909
-8.71274
-8.81575
-8.90845
-8.99125
-9.06465
-9.12916
-9.18532
-9.23365
-9.27466
-9.30885
-9.33666
-9.35853
-9.37487
-9.38605
-9.39243
-9.39436
-9.39215
-9.38614
-9.37653
-6.60719
-6.65342
-6.77344
-6.93058
-7.10398
-7.28872
-7.47827
-7.66612
-7.84833
-8.02236
-8.18629
-8.3389
-8.47957
-8.60811
-8.72458
-8.82931
-8.92274
-9.00543
-9.07799
-9.14105
-9.19525
-9.2412
-9.2795
-9.3107
-9.33532
-9.35385
-9.36674
-9.3744
-9.37721
-9.37555
-9.36974
-9.36009
-9.34682
-6.3534
-6.39873
-6.53226
-6.70936
-6.90699
-7.11966
-7.33752
-7.5516
-7.75712
-7.95112
-8.13152
-8.29725
-8.44804
-8.58406
-8.70578
-8.81389
-8.9092
-8.99255
-9.0648
-9.12682
-9.17939
-9.22329
-9.25921
-9.28782
-9.30969
-9.32536
-9.33534
-9.34006
-9.33996
-9.33545
-9.32689
-9.31472
-9.29923
-6.06397
-6.1567
-6.3576
-6.58729
-6.82157
-7.06313
-7.30416
-7.53677
-7.75769
-7.96467
-8.15592
-8.33055
-8.4884
-8.62971
-8.75507
-8.86531
-8.96136
-9.04427
-9.11506
-9.17476
-9.22434
-9.26472
-9.29673
-9.32113
-9.33861
-9.34977
-9.35515
-9.35526
-9.35052
-9.34136
-9.32817
-9.31137
-9.29138
-5.62993
-5.69663
-5.92777
-6.21399
-6.51491
-6.82354
-7.1233
-7.40445
-7.66439
-7.90156
-8.11529
-8.30618
-8.47538
-8.62428
-8.75438
-8.86721
-8.96428
-9.04703
-9.11681
-9.17488
-9.2224
-9.26041
-9.28986
-9.31157
-9.32629
-9.33465
-9.33719
-9.33441
-9.32672
-9.31455
-9.2983
-9.27854
-9.2558
-5.25469
-5.50584
-5.8576
-6.16968
-6.48114
-6.80668
-7.12309
-7.42173
-7.70094
-7.95723
-8.18831
-8.3939
-8.57463
-8.73171
-8.86677
-8.98167
-9.07833
-9.15862
-9.22434
-9.27714
-9.31852
-9.34982
-9.37222
-9.38675
-9.39428
-9.39555
-9.39115
-9.38156
-9.3671
-9.34811
-9.3247
-9.29753
-9.26646
-4.19199
-4.45558
-5.06103
-5.59955
-6.09174
-6.55641
-6.96932
-7.33318
-7.65567
-7.93968
-8.18834
-8.40518
-8.59322
-8.75513
-8.89337
-9.01022
-9.10781
-9.18817
-9.25319
-9.30463
-9.34409
-9.37303
-9.39274
-9.40437
-9.40887
-9.40702
-9.39943
-9.38649
-9.36831
-9.34494
-9.31556
-9.28107
-9.23706
-4.23571
-4.79285
-5.22669
-5.58033
-6.04383
-6.52476
-6.97329
-7.3924
-7.77367
-8.10888
-8.39794
-8.64351
-8.84887
-9.018
-9.15523
-9.26475
-9.35048
-9.41595
-9.46428
-9.49819
-9.52002
-9.53176
-9.53512
-9.53151
-9.52212
-9.50788
-9.48951
-9.46741
-9.4416
-9.4114
-9.37489
-9.3293
-9.26465
0.718582
-2.97161
-4.28842
-4.94685
-5.73196
-6.3934
-6.9202
-7.37868
-7.77638
-8.11477
-8.40161
-8.64294
-8.84362
-9.00856
-9.14237
-9.24923
-9.33296
-9.39696
-9.44422
-9.47736
-9.49866
-9.51006
-9.51321
-9.50953
-9.50023
-9.48627
-9.46858
-9.44765
-9.42452
-9.39848
-9.3723
-9.34076
-9.31469
-12.7521
-13.0497
-13.4123
-13.2391
-12.3192
-10.891
-9.42499
-8.44799
-8.38833
-9.53808
-11.8656
-15.0633
-18.7218
-22.3712
-25.5542
-27.8595
-28.9394
-28.5368
-26.5938
-23.3851
-19.4736
-15.4709
-11.8082
-8.69401
-6.16384
-4.15726
-2.5855
-1.36414
-0.422152
0.29635
0.834451
1.22243
1.48155
1.63125
1.66977
1.55971
1.03855
-0.209889
-2.6798
-7.43747
-14.6264
-23.315
-33.1004
-43.9124
-54.697
-63.0516
-67.093
-67.0471
-64.1178
-58.9623
-51.6057
-42.4613
-32.7703
-23.9184
-16.8218
-11.694
-8.20513
-5.85215
-4.22188
-3.05398
-2.20077
-1.57488
-1.11721
-0.783843
-0.541671
-0.366127
-0.239161
-0.147459
-0.0810924
-0.0325851
0.00372323
0.0321007
0.0556411
0.0763451
0.0950851
0.11179
0.125243
0.133079
0.131287
0.113215
0.0685463
-0.0184838
-0.174318
-0.460405
-1.03137
-2.26955
-4.86758
-9.45198
-15.8629
-22.7392
-27.8091
-29.0962
-26.0413
-19.8097
-12.7942
-6.99019
-3.12576
-1.12236
-0.0602804
-0.053195
-12.8774
-13.0809
-13.3131
-13.0741
-12.1843
-10.8625
-9.54392
-8.73814
-8.81337
-9.92403
-12.0511
-14.9778
-18.3313
-21.661
-24.5112
-26.4582
-27.1797
-26.5125
-24.5209
-21.5422
-18.0725
-14.557
-11.3013
-8.47584
-6.13094
-4.23658
-2.73035
-1.54623
-0.625297
0.0804539
0.608892
0.987192
1.2329
1.36299
1.37582
1.24773
0.752335
-0.446365
-2.82277
-7.38569
-14.4556
-23.2206
-33.0893
-43.8077
-54.3597
-62.5222
-66.5546
-66.6815
-64.0419
-59.1422
-51.9372
-42.837
-33.1149
-24.1874
-17.0025
-11.8054
-8.27734
-5.90772
-4.27181
-3.10193
-2.24728
-1.6196
-1.15963
-0.823456
-0.577951
-0.398576
-0.267357
-0.171101
-0.100047
-0.0469214
-0.00628735
0.0258937
0.052505
0.0753705
0.0952738
0.112051
0.124452
0.130088
0.124907
0.102166
0.05137
-0.0433265
-0.207607
-0.498992
-1.05943
-2.23807
-4.67387
-8.96075
-14.9695
-21.4363
-26.2274
-27.4857
-24.6729
-18.8558
-12.2642
-6.77914
-3.08365
-1.15338
-0.0605891
-0.0937237
-12.7101
-12.891
-13.0428
-12.7999
-12.0307
-10.9282
-9.8572
-9.22044
-9.32179
-10.3453
-12.2854
-14.9166
-17.8941
-20.7731
-23.1498
-24.6657
-25.0675
-24.2783
-22.4262
-19.8143
-16.8109
-13.7378
-10.8391
-8.27168
-6.09931
-4.31436
-2.875
-1.73073
-0.83352
-0.142842
0.373949
0.740862
0.972133
1.0815
1.06708
0.912568
0.429932
-0.722683
-3.00225
-7.35538
-14.2424
-22.9905
-32.8784
-43.4656
-53.7428
-61.6801
-65.7087
-66.0431
-63.7258
-59.1024
-52.0646
-43.0364
-33.3256
-24.3689
-17.1344
-11.8932
-8.33978
-5.96005
-4.32153
-3.15119
-2.29593
-1.66684
-1.20467
-0.865571
-0.6165
-0.433002
-0.297213
-0.196091
-0.120063
-0.0620649
-0.0168919
0.0192633
0.0490731
0.074187
0.095302
0.112183
0.123551
0.126992
0.118408
0.0910041
0.0341712
-0.0679673
-0.24041
-0.537007
-1.0874
-2.20728
-4.47941
-8.46016
-14.0491
-20.0862
-24.5861
-25.8147
-23.2524
-17.8668
-11.7165
-6.56323
-3.04342
-1.18857
-0.0660917
-0.135402
-12.5466
-12.6872
-12.7428
-12.4952
-11.865
-11.0049
-10.1984
-9.7597
-9.93524
-10.851
-12.4906
-14.6917
-17.1481
-19.5269
-21.4503
-22.6256
-22.8657
-22.1359
-20.5426
-18.3088
-15.7094
-13.006
-10.4134
-8.07801
-6.06808
-4.39031
-3.01895
-1.91685
-1.04589
-0.37253
0.130735
0.48463
0.700452
0.7882
0.745523
0.559614
0.0811553
-1.02528
-3.20275
-7.32811
-13.9666
-22.605
-32.4446
-42.8644
-52.8412
-60.5423
-64.5816
-65.1554
-63.1765
-58.8381
-51.9771
-43.0473
-33.3908
-24.453
-17.2097
-11.9524
-8.3893
-6.00745
-4.37019
-3.20133
-2.34648
-1.7165
-1.2523
-0.910216
-0.657373
-0.469466
-0.32879
-0.222486
-0.141185
-0.0780535
-0.0281219
0.0121871
0.0453429
0.0728309
0.0952601
0.11232
0.122707
0.123989
0.112047
0.080061
0.0173542
-0.0919466
-0.272132
-0.573397
-1.1133
-2.17436
-4.28196
-7.95126
-13.1091
-18.7047
-22.9076
-24.1084
-21.8037
-16.8615
-11.1633
-6.34885
-3.00755
-1.22828
-0.0767978
-0.177742
-12.3026
-12.3875
-12.3865
-12.1764
-11.7085
-11.0915
-10.5334
-10.2658
-10.4727
-11.2551
-12.6053
-14.3932
-16.3885
-18.3046
-19.8444
-20.7747
-20.9425
-20.3038
-18.9339
-17.0033
-14.7328
-12.3432
-10.0207
-7.89646
-6.03897
-4.4652
-3.16225
-2.10421
-1.26176
-0.607821
-0.119814
0.219587
0.419093
0.484819
0.413238
0.192354
-0.29062
-1.35028
-3.41699
-7.29507
-13.6225
-22.0579
-31.7768
-41.9975
-51.6668
-59.1371
-63.2017
-64.0316
-62.3928
-58.3353
-51.6548
-42.8504
-33.2951
-24.4287
-17.2218
-11.9795
-8.42483
-6.04992
-4.41819
-3.25288
-2.3995
-1.76913
-1.30302
-0.957829
-0.700941
-0.50827
-0.362322
-0.250452
-0.163523
-0.0949437
-0.0399883
0.00468923
0.0413583
0.0713429
0.0951702
0.11247
0.121921
0.121085
0.105836
0.0693647
0.0009844
-0.115129
-0.302564
-0.607919
-1.13695
-2.13973
-4.08433
-7.44233
-12.1657
-17.3147
-21.218
-22.3916
-20.3478
-15.855
-10.6138
-6.14064
-2.97801
-1.27327
-0.0932257
-0.220986
-12.0903
-12.1497
-12.1294
-11.9587
-11.6118
-11.1687
-10.7843
-10.6326
-10.8567
-11.5336
-12.6535
-14.1129
-15.7276
-17.2697
-18.5036
-19.232
-19.3247
-18.7429
-17.5424
-15.8559
-13.8615
-11.743
-9.65942
-7.72697
-6.01218
-4.53905
-3.30455
-2.29213
-1.48021
-0.847615
-0.376429
-0.052787
0.129681
0.173363
0.0729384
-0.184549
-0.681797
-1.69934
-3.6504
-7.26705
-13.2274
-21.3621
-30.8754
-40.8625
-50.2283
-57.4855
-61.5908
-62.6834
-61.372
-57.5795
-51.0796
-42.4298
-33.0263
-24.2871
-17.1648
-11.9713
-8.4448
-6.08691
-4.4655
-3.30605
-2.45527
-1.82504
-1.35715
-1.0087
-0.747459
-0.549626
-0.397972
-0.280106
-0.187152
-0.112778
-0.0525081
-0.00322782
0.0371385
0.0697648
0.0951025
0.112726
0.121302
0.118399
0.0999087
0.0590676
-0.0147599
-0.1373
-0.331457
-0.640386
-1.15859
-2.105
-3.8913
-6.94364
-11.2358
-15.9392
-19.5437
-20.6914
-18.9091
-14.8652
-10.079
-5.94396
-2.95677
-1.32387
-0.115283
-0.265107
-11.9006
-11.9416
-11.9122
-11.7749
-11.5209
-11.2108
-10.9593
-10.8962
-11.1289
-11.7145
-12.6434
-13.833
-15.1369
-16.3714
-17.3456
-17.8985
-17.9236
-17.3851
-16.3225
-14.8402
-13.082
-11.1996
-9.32803
-7.56978
-5.98834
-4.61214
-3.44566
-2.48002
-1.70033
-1.09078
-0.637774
-0.330889
-0.16596
-0.143886
-0.272474
-0.566406
-1.08609
-2.06965
-3.90493
-7.25244
-12.799
-20.5351
-29.7463
-39.4561
-48.5264
-55.5971
-59.7604
-61.1122
-60.1021
-56.5501
-50.2307
-41.7693
-32.5733
-24.021
-17.034
-11.9253
-8.44832
-6.11837
-4.51245
-3.36131
-2.51435
-1.88477
-1.41518
-1.06328
-0.797306
-0.59384
-0.435975
-0.311618
-0.212179
-0.131607
-0.0656847
-0.01153
0.032744
0.0681675
0.0951274
0.113155
0.12092
0.116013
0.0943638
0.0492945
-0.0297182
-0.158243
-0.358522
-0.670454
-1.17799
-2.0708
-3.70613
-6.46359
-10.3351
-14.6008
-17.9116
-19.0349
-17.5108
-13.9087
-9.56865
-5.76345
-2.9454
-1.38031
-0.142819
-0.310414
-11.7286
-11.7607
-11.7346
-11.6316
-11.4521
-11.2421
-11.087
-11.0835
-11.3123
-11.8156
-12.5837
-13.5494
-14.5954
-15.5743
-16.3331
-16.7404
-16.7072
-16.2014
-15.2523
-13.942
-12.3857
-10.7085
-9.02485
-7.42474
-5.96768
-4.68453
-3.58526
-2.66715
-1.92109
-1.33604
-0.902339
-0.612902
-0.465723
-0.464412
-0.619599
-0.948143
-1.49602
-2.4556
-4.17894
-7.25534
-12.3524
-19.5987
-28.4031
-37.7784
-46.5564
-53.4693
-57.7063
-59.3043
-58.5605
-55.2214
-49.0867
-40.8554
-31.9286
-23.6256
-16.8266
-11.8401
-8.43489
-6.14438
-4.55941
-3.41919
-2.57729
-1.94888
-1.47764
-1.12203
-0.850869
-0.641221
-0.476561
-0.345143
-0.238697
-0.151469
-0.0795169
-0.0201859
0.0282278
0.0666223
0.0953349
0.113861
0.12089
0.114049
0.0893335
0.0401906
-0.0437239
-0.177752
-0.383491
-0.697809
-1.19493
-2.03751
-3.53135
-6.00956
-9.47821
-13.3213
-16.3482
-17.4488
-16.1758
-13.0018
-9.09229
-5.6034
-2.94516
-1.4426
-0.175339
-0.357204
-11.5721
-11.5997
-11.5803
-11.5059
-11.3829
-11.2473
-11.1623
-11.1998
-11.4192
-11.8504
-12.483
-13.2625
-14.0952
-14.863
-15.4427
-15.7275
-15.644
-15.1647
-14.3107
-13.1458
-11.7628
-10.2647
-8.74807
-7.29168
-5.95049
-4.75632
-3.72304
-2.85284
-2.14144
-1.58205
-1.16852
-0.896889
-0.767304
-0.785498
-0.964876
-1.32462
-1.90325
-2.84946
-4.46901
-7.27895
-11.9039
-18.5807
-26.8696
-35.8366
-44.3106
-51.0859
-55.4058
-57.2297
-56.7133
-53.5624
-47.627
-39.6778
-31.0881
-23.0995
-16.542
-11.7155
-8.40468
-6.16535
-4.60701
-3.48038
-2.64481
-2.01805
-1.54514
-1.18549
-0.908608
-0.692136
-0.520005
-0.380867
-0.266811
-0.172406
-0.0939896
-0.0291382
0.0236774
0.0652367
0.0958368
0.114958
0.121329
0.112633
0.0849563
0.0319098
-0.0566041
-0.195621
-0.406099
-0.722141
-1.20914
-2.00536
-3.36901
-5.58785
-8.67802
-12.1206
-14.8774
-15.9571
-14.9245
-12.1586
-8.65795
-5.46721
-2.95685
-1.51059
-0.212189
-0.405972
-11.4278
-11.4542
-11.4438
-11.395
-11.3164
-11.2362
-11.2012
-11.264
-11.468
-11.8337
-12.3509
-12.9749
-13.6306
-14.2234
-14.6546
-14.8376
-14.7126
-14.2553
-13.4809
-12.4396
-11.2058
-9.86425
-8.49627
-7.17039
-5.9369
-4.82749
-3.85864
-3.03634
-2.3603
-1.8274
-1.43463
-1.18081
-1.06823
-1.10427
-1.30461
-1.69088
-2.2989
-3.24081
-4.76843
-7.3239
-11.4689
-17.5133
-25.1801
-33.647
-41.7818
-48.421
-52.8206
-54.8438
-54.5175
-51.5408
-45.8352
-38.233
-30.0535
-22.4452
-16.1819
-11.5526
-8.35855
-6.18207
-4.65601
-3.54571
-2.71774
-2.09309
-1.61843
-1.25428
-0.97104
-0.746987
-0.566599
-0.418982
-0.296625
-0.194446
-0.109075
-0.0383176
0.0191899
0.0641275
0.0967637
0.116586
0.122381
0.111914
0.0813897
0.0246201
-0.0681793
-0.211649
-0.426096
-0.743132
-1.22029
-1.97424
-3.22021
-5.20282
-7.94451
-11.0148
-13.5192
-14.5803
-13.7741
-11.391
-8.27209
-5.35734
-2.98086
-1.58401
-0.252543
-0.457241
-11.2945
-11.3213
-11.3199
-11.2917
-11.2462
-11.2054
-11.204
-11.2804
-11.4655
-11.7729
-12.1922
-12.6867
-13.196
-13.6446
-13.9534
-14.0526
-13.8933
-13.4548
-12.7481
-11.8125
-10.7078
-9.50341
-8.26785
-7.06051
-5.92697
-4.898
-3.99171
-3.21691
-2.57655
-2.07065
-1.6989
-1.46257
-1.36596
-1.41775
-1.63515
-2.04211
-2.67424
-3.6171
-5.06639
-7.38596
-11.0591
-16.4295
-23.3777
-31.2392
-38.9701
-45.4465
-49.9042
-52.0937
-51.9279
-49.1289
-43.704
-36.5261
-28.8334
-21.6697
-15.7512
-11.3544
-8.29819
-6.19571
-4.70748
-3.61623
-2.79711
-2.17493
-1.69833
-1.32915
-1.03876
-0.806237
-0.616674
-0.459698
-0.328245
-0.217609
-0.124725
-0.0476273
0.0148953
0.0634388
0.0982724
0.118905
0.124209
0.112059
0.078806
0.0185024
-0.0782614
-0.225634
-0.443243
-0.760473
-1.22799
-1.94374
-3.08508
-4.85672
-7.28414
-10.0154
-12.2889
-13.3337
-12.7375
-10.7077
-7.93909
-5.27518
-3.0172
-1.66258
-0.295543
-0.511589
-11.1692
-11.1973
-11.2039
-11.1923
-11.1714
-11.1585
-11.179
-11.2604
-11.4244
-11.6793
-12.0149
-12.4011
-12.7892
-13.1189
-13.327
-13.3575
-13.1706
-12.7489
-12.1003
-11.2556
-10.2628
-9.17887
-8.06137
-6.96164
-5.92065
-4.96776
-4.12186
-3.39381
-2.78909
-2.31034
-1.95957
-1.74008
-1.65794
-1.72294
-1.95295
-2.37365
-3.0213
-3.96478
-5.34819
-7.45513
-10.6796
-15.36
-21.5122
-28.6588
-35.8922
-42.1449
-46.615
-48.9323
-48.9094
-46.314
-41.2416
-34.5747
-27.4446
-20.7854
-15.2576
-11.1253
-8.2261
-6.20785
-4.76271
-3.69316
-2.88409
-2.26468
-1.78584
-1.41091
-1.11245
-0.870403
-0.670593
-0.503237
-0.361772
-0.2419
-0.140871
-0.0569442
0.0109508
0.0633512
0.10055
0.122106
0.127003
0.113255
0.0773954
0.0137509
-0.0866549
-0.237384
-0.457319
-0.773871
-1.2318
-1.91319
-2.96282
-4.54957
-6.69943
-9.12854
-11.1951
-12.2268
-11.8225
-10.1135
-7.66109
-5.22109
-3.06566
-1.74613
-0.34039
-0.569515
-11.051
-11.0803
-11.0936
-11.0944
-11.0909
-11.0964
-11.1292
-11.2091
-11.3508
-11.5586
-11.823
-12.1188
-12.4069
-12.6391
-12.765
-12.7398
-12.5314
-12.1252
-11.5269
-10.7607
-9.86534
-8.88747
-7.87536
-6.87327
-5.91782
-5.03661
-4.2487
-3.5663
-2.99684
-2.54506
-2.21489
-2.01128
-1.94172
-2.01696
-2.25471
-2.68139
-3.33362
-4.27094
-5.59645
-7.51555
-10.3275
-14.3301
-19.6377
-25.9681
-32.5907
-38.525
-42.9361
-45.337
-45.4539
-43.1102
-38.4781
-32.411
-25.9127
-19.8099
-14.7121
-10.8715
-8.14556
-6.2205
-4.82328
-3.77798
-2.98009
-2.36363
-1.8821
-1.50056
-1.19289
-0.940079
-0.728763
-0.549842
-0.397308
-0.267306
-0.157415
-0.0661128
0.0075492
0.064082
0.103817
0.126408
0.130978
0.115713
0.0773657
0.010574
-0.0931542
-0.2467
-0.468123
-0.783051
-1.23127
-1.88167
-2.85177
-4.27925
-6.18897
-8.35459
-10.2397
-11.2624
-11.0315
-9.60954
-7.43799
-5.19458
-3.12609
-1.83478
-0.386492
-0.631385
-10.9376
-10.968
-10.9862
-10.996
-11.0042
-11.0209
-11.0594
-11.1334
-11.2526
-11.4184
-11.622
-11.8423
-12.0479
-12.2003
-12.2594
-12.1895
-11.9647
-11.5731
-11.0188
-10.321
-9.51071
-8.62637
-7.7084
-6.79486
-5.91831
-5.10437
-4.37182
-3.73367
-3.19875
-2.77342
-2.46318
-2.27421
-2.21503
-2.2971
-2.53746
-2.96195
-3.60656
-4.5252
-5.79339
-7.5468
-9.99109
-13.3555
-17.8072
-23.2444
-29.1402
-34.6378
-38.8963
-41.3317
-41.5973
-39.5693
-35.4705
-30.0834
-24.2725
-18.766
-14.1285
-10.6005
-8.06055
-6.23604
-4.89108
-3.87242
-3.08675
-2.47333
-1.98847
-1.59924
-1.28101
-1.01594
-0.79164
-0.599768
-0.434942
-0.293786
-0.174221
-0.0749311
0.00493074
0.0658884
0.108336
0.132065
0.136377
0.119666
0.0789411
0.00918986
-0.0975503
-0.253397
-0.475481
-0.787781
-1.22593
-1.84812
-2.7496
-4.04184
-5.7477
-7.68847
-9.41896
-10.4372
-10.3615
-9.19321
-7.26776
-5.19484
-3.19877
-1.92907
-0.433547
-0.697288
-10.8284
-10.8593
-10.8808
-10.8964
-10.9116
-10.934
-10.9732
-11.0382
-11.135
-11.2635
-11.4152
-11.5726
-11.7103
-11.7978
-11.803
-11.6977
-11.4611
-11.0837
-10.5683
-9.93018
-9.19455
-8.39289
-7.55908
-6.7258
-5.92186
-5.17082
-4.49082
-3.89523
-3.39383
-2.99415
-2.70285
-2.52707
-2.47586
-2.56108
-2.79883
-3.21305
-3.83774
-4.72154
-5.92428
-7.52721
-9.6505
-12.4402
-16.0667
-20.5739
-25.6461
-30.5852
-34.5861
-37.0032
-37.4321
-35.7873
-32.3031
-27.6548
-22.5663
-17.6805
-13.5228
-10.3209
-7.97557
-6.25724
-4.96827
-3.97851
-3.20601
-2.59554
-2.10654
-1.7083
-1.37786
-1.09878
-0.859738
-0.653292
-0.474756
-0.321275
-0.191116
-0.0831583
0.00337511
0.069068
0.114405
0.13937
0.143478
0.125375
0.0823674
0.00983342
-0.0996208
-0.25728
-0.479234
-0.787873
-1.21536
-1.81137
-2.65353
-3.83195
-5.36755
-7.12042
-8.72338
-9.74185
-9.80444
-8.85855
-7.14717
-5.22138
-3.28474
-2.0301
-0.481557
-0.766969
-10.7222
-10.7528
-10.7759
-10.7947
-10.8133
-10.8375
-10.8736
-10.9278
-11.0033
-11.0987
-11.2062
-11.3113
-11.3934
-11.4282
-11.3904
-11.2575
-11.013
-10.6492
-10.1685
-9.58295
-8.91299
-8.18455
-7.42603
-6.66543
-5.92815
-5.2357
-4.60531
-4.05037
-3.58118
-3.20606
-2.9325
-2.76823
-2.72249
-2.80704
-3.03693
-3.43339
-4.0266
-4.85897
-5.98091
-7.43874
-9.28245
-11.5757
-14.4497
-18.0422
-22.2349
-26.5145
-30.1581
-32.5037
-33.1045
-31.8993
-29.0818
-25.1984
-20.8413
-16.5829
-12.9122
-10.042
-7.89543
-6.28711
-5.05736
-4.09857
-3.34009
-2.73234
-2.23817
-1.82929
-1.4847
-1.1895
-0.933639
-0.710711
-0.516815
-0.349658
-0.207861
-0.0904767
0.00323697
0.0739861
0.122383
0.148658
0.15259
0.133121
0.0879012
0.0127388
-0.0991532
-0.258173
-0.479264
-0.783222
-1.19926
-1.77037
-2.56059
-3.64338
-5.03833
-6.63706
-8.13795
-9.16204
-9.34838
-8.59766
-7.07313
-5.27497
-3.38617
-2.13949
-0.530924
-0.839856
-10.6184
-10.648
-10.6714
-10.6911
-10.7104
-10.7332
-10.7639
-10.8062
-10.8615
-10.9277
-10.9977
-11.0593
-11.096
-11.0884
-11.0165
-10.8624
-10.6134
-10.2631
-9.81354
-9.27448
-8.66251
-7.99904
-7.3079
-6.61307
-5.93686
-5.29874
-4.71493
-4.1985
-3.75997
-3.4081
-3.15087
-2.99632
-2.95356
-3.03379
-3.25077
-3.62223
-4.17465
-4.94149
-5.96432
-7.27259
-8.86728
-10.7448
-12.9728
-15.7227
-19.038
-22.5998
-25.8088
-28.034
-28.8135
-28.065
-25.9226
-22.7905
-19.1457
-15.5031
-12.314
-9.77283
-7.825
-6.32892
-5.16113
-4.23528
-3.49156
-2.88615
-2.38552
-1.96407
-1.60297
-1.28914
-1.014
-0.77235
-0.561174
-0.37879
-0.224176
-0.0965258
0.00492263
0.0810569
0.132674
0.160311
0.164065
0.143225
0.0958308
0.0181677
-0.0959098
-0.255875
-0.47544
-0.773753
-1.17741
-1.72417
-2.4679
-3.46963
-4.74874
-6.22251
-7.64415
-8.67996
-8.97923
-8.40267
-7.0443
-5.35832
-3.50642
-2.25926
-0.582522
-0.915253
-10.5165
-10.5444
-10.5668
-10.5856
-10.6034
-10.6227
-10.6464
-10.6764
-10.7131
-10.7537
-10.7918
-10.8175
-10.8174
-10.7758
-10.6772
-10.5075
-10.2566
-9.91963
-9.49828
-9.00053
-8.43994
-7.83422
-7.2034
-6.56801
-5.94758
-5.35967
-4.81932
-4.33911
-3.92948
-3.59937
-3.35692
-3.21021
-3.168
-3.24055
-3.44007
-3.78143
-4.28487
-4.9761
-5.88473
-7.03312
-8.39729
-9.92956
-11.6354
-13.6658
-16.1704
-19.0131
-21.7464
-23.8108
-24.7521
-24.4426
-22.9354
-20.5014
-17.524
-14.4692
-11.7443
-9.52167
-7.76899
-6.38614
-5.28272
-4.39167
-3.66336
-3.05972
-2.55106
-2.11472
-1.73434
-1.39889
-1.10157
-0.838546
-0.60784
-0.408436
-0.239664
-0.100823
0.00895666
0.0907894
0.145756
0.174762
0.178286
0.156016
0.106436
0.0263533
-0.089699
-0.25024
-0.467694
-0.7595
-1.14981
-1.67221
-2.37308
-3.30468
-4.48762
-5.86029
-7.22208
-8.277
-8.68385
-8.2685
-7.06257
-5.47632
-3.6498
-2.39182
-0.637274
-0.992571
-10.4163
-10.4419
-10.4622
-10.4789
-10.4936
-10.508
-10.5237
-10.5416
-10.5611
-10.5793
-10.5907
-10.5867
-10.5567
-10.4884
-10.3692
-10.1883
-9.93769
-9.61386
-9.21822
-8.75733
-8.24239
-7.68809
-7.11128
-6.52954
-5.95994
-5.4182
-4.91817
-4.47176
-4.08913
-3.77913
-3.54984
-3.40913
-3.36523
-3.42725
-3.60555
-3.91224
-4.36172
-4.9716
-5.75909
-6.73852
-7.88255
-9.1231
-10.4262
-11.8926
-13.7114
-15.894
-18.1525
-20.0278
-21.0932
-21.164
-20.2086
-18.3871
-16.0128
-13.5049
-11.2165
-9.29557
-7.73178
-6.46237
-5.42557
-4.57115
-3.85881
-3.25619
-2.7376
-2.28363
-1.88066
-1.52008
-1.19715
-0.909663
-0.656823
-0.438344
-0.253901
-0.10284
0.0159122
0.103755
0.162171
0.192508
0.195695
0.171885
0.120058
0.0375909
-0.0802649
-0.241052
-0.455878
-0.740429
-1.11651
-1.6142
-2.27442
-3.14358
-4.24495
-5.53546
-6.85399
-7.93783
-8.45376
-8.19484
-7.13315
-5.63543
-3.8214
-2.54008
-0.696164
-1.07139
-10.3175
-10.3402
-10.3577
-10.3711
-10.3816
-10.3902
-10.3976
-10.4038
-10.4078
-10.4066
-10.3955
-10.3673
-10.3134
-10.2239
-10.0892
-9.90075
-9.6524
-9.34149
-8.96938
-8.54155
-8.06727
-7.5588
-7.03034
-6.49695
-5.97352
-5.47406
-5.01121
-4.5961
-4.23844
-3.9468
-3.72898
-3.59248
-3.54481
-3.59387