/*--------------------------------*- C++ -*----------------------------------*\
  =========                 |
  \\      /  F ield         | OpenFOAM: The Open Source CFD Toolbox
   \\    /   O peration     | Website:  https://openfoam.org
    \\  /    A nd           | Version:  10
     \\/     M anipulation  |
\*---------------------------------------------------------------------------*/
FoamFile
{
    format      ascii;
    class       surfaceScalarField;
    location    "0.2";
    object      phi;
}
// * * * * * * * * * * * * * * * * * * * * * * * * * * * * * * * * * * * * * //

dimensions      [0 3 -1 0 0 0 0];

internalField   nonuniform List<scalar> 
13452
(
4.01979e-05
2.00705e-05
2.59517e-05
1.42462e-05
1.85641e-05
7.38764e-06
1.52111e-05
3.35303e-06
1.38196e-05
1.39151e-06
1.31382e-05
6.81324e-07
1.27145e-05
4.23777e-07
1.23964e-05
3.18094e-07
1.21345e-05
2.6191e-07
1.1917e-05
2.17448e-07
1.17402e-05
1.7683e-07
1.16005e-05
1.39672e-07
1.14943e-05
1.06182e-07
1.14181e-05
7.62363e-08
1.13687e-05
4.94216e-08
1.13439e-05
2.47687e-08
1.13424e-05
1.51242e-09
1.1362e-05
-1.9591e-08
1.14026e-05
-4.05709e-08
1.14638e-05
-6.12592e-08
1.15461e-05
-8.22396e-08
1.16501e-05
-1.04083e-07
1.17774e-05
-1.2727e-07
1.19295e-05
-1.52112e-07
1.21087e-05
-1.79182e-07
1.23178e-05
-2.09081e-07
1.25607e-05
-2.42967e-07
1.28419e-05
-2.81128e-07
1.31699e-05
-3.2801e-07
1.35473e-05
-3.77401e-07
1.40068e-05
-4.59503e-07
1.44949e-05
-4.88153e-07
-8.35051e-07
1.533e-05
6.59073e-05
1.61535e-05
6.19174e-05
1.82361e-05
5.56844e-05
1.36206e-05
4.98531e-05
9.18429e-06
4.54017e-05
5.84291e-06
4.22401e-05
3.84297e-06
3.99914e-05
2.67242e-06
3.83571e-05
1.95247e-06
3.7132e-05
1.48702e-06
3.61855e-05
1.16389e-06
3.54378e-05
9.24523e-07
3.48389e-05
7.38609e-07
3.43563e-05
5.88772e-07
3.39683e-05
4.64267e-07
3.36597e-05
3.58001e-07
3.34197e-05
2.64793e-07
3.324e-05
1.81194e-07
3.31157e-05
1.04685e-07
3.30429e-05
3.21917e-08
3.30191e-05
-3.74316e-08
3.30424e-05
-1.05496e-07
3.31119e-05
-1.73595e-07
3.32278e-05
-2.43229e-07
3.33912e-05
-3.15439e-07
3.36036e-05
-3.9163e-07
3.38679e-05
-4.73375e-07
3.41878e-05
-5.62885e-07
3.45688e-05
-6.62114e-07
3.50177e-05
-7.76901e-07
3.5547e-05
-9.0671e-07
3.61676e-05
-1.08006e-06
3.69513e-05
-1.27185e-06
-1.63984e-06
3.7756e-05
6.91822e-05
1.07328e-05
7.25154e-05
1.49029e-05
7.30859e-05
1.30502e-05
7.17412e-05
1.05289e-05
6.95381e-05
8.04606e-06
6.72119e-05
6.16913e-06
6.5045e-05
4.83928e-06
6.31276e-05
3.86996e-06
6.14697e-05
3.1449e-06
6.00494e-05
2.5842e-06
5.88377e-05
2.13616e-06
5.78071e-05
1.76923e-06
5.69331e-05
1.46277e-06
5.61951e-05
1.20231e-06
5.55758e-05
9.7724e-07
5.50612e-05
7.79421e-07
5.46398e-05
6.02617e-07
5.43024e-05
4.42092e-07
5.40412e-05
2.93383e-07
5.38502e-05
1.53509e-07
5.37258e-05
1.89066e-08
5.36664e-05
-1.14182e-07
5.36703e-05
-2.47098e-07
5.3736e-05
-3.81117e-07
5.3863e-05
-5.18701e-07
5.40521e-05
-6.62428e-07
5.43047e-05
-8.15493e-07
5.46239e-05
-9.81307e-07
5.5013e-05
-1.16602e-06
5.54797e-05
-1.37338e-06
5.60217e-05
-1.62204e-06
5.6657e-05
-1.90717e-06
-2.28556e-06
5.73027e-05
6.88466e-05
7.4692e-06
7.21637e-05
1.15858e-05
7.45422e-05
1.06717e-05
7.59599e-05
9.11116e-06
7.65525e-05
7.45355e-06
7.66386e-05
6.08303e-06
7.64272e-05
5.0506e-06
7.60446e-05
4.25259e-06
7.55716e-05
3.61793e-06
7.50571e-05
3.09866e-06
7.4532e-05
2.66125e-06
7.40166e-05
2.28468e-06
7.35245e-05
1.95482e-06
7.30654e-05
1.66141e-06
7.26455e-05
1.39716e-06
7.22685e-05
1.15645e-06
7.19364e-05
9.34663e-07
7.16506e-05
7.27945e-07
7.14113e-05
5.32649e-07
7.12189e-05
3.45913e-07
7.10728e-05
1.65005e-07
7.09709e-05
-1.23117e-08
7.09133e-05
-1.89498e-07
7.09001e-05
-3.67836e-07
7.09319e-05
-5.50537e-07
7.10097e-05
-7.40254e-07
7.11345e-05
-9.40297e-07
7.13075e-05
-1.15431e-06
7.15292e-05
-1.38772e-06
7.18009e-05
-1.6451e-06
7.21166e-05
-1.93764e-06
7.24761e-05
-2.26671e-06
-2.649e-06
7.28395e-05
6.95601e-05
5.36585e-06
7.18401e-05
9.30583e-06
7.35456e-05
8.96627e-06
7.48199e-05
7.83687e-06
7.57163e-05
6.55713e-06
7.63728e-05
5.42648e-06
7.68766e-05
4.54683e-06
7.72703e-05
3.85895e-06
7.75826e-05
3.30563e-06
7.78327e-05
2.84855e-06
7.8034e-05
2.45996e-06
7.81971e-05
2.12149e-06
7.83306e-05
1.82135e-06
7.84407e-05
1.55132e-06
7.85331e-05
1.30479e-06
7.8613e-05
1.07648e-06
7.86853e-05
8.62368e-07
7.87541e-05
6.59184e-07
7.88227e-05
4.64053e-07
7.88941e-05
2.74499e-07
7.89701e-05
8.89868e-08
7.90517e-05
-9.38673e-08
7.91391e-05
-2.7693e-07
7.92338e-05
-4.62486e-07
7.93365e-05
-6.53271e-07
7.9448e-05
-8.51804e-07
7.95687e-05
-1.06099e-06
7.96984e-05
-1.28399e-06
7.98357e-05
-1.52498e-06
7.99782e-05
-1.78764e-06
8.01187e-05
-2.07816e-06
8.02497e-05
-2.39773e-06
-2.74964e-06
8.03504e-05
7.08416e-05
3.90832e-06
7.2633e-05
7.51438e-06
7.39465e-05
7.65273e-06
7.48856e-05
6.89782e-06
7.55262e-05
5.91657e-06
7.59871e-05
4.96554e-06
7.63554e-05
4.17858e-06
7.66712e-05
3.54311e-06
7.6955e-05
3.02183e-06
7.72167e-05
2.58689e-06
7.74605e-05
2.21609e-06
7.76889e-05
1.89309e-06
7.79037e-05
1.60652e-06
7.81069e-05
1.34821e-06
7.82996e-05
1.11204e-06
7.84829e-05
8.93155e-07
7.86577e-05
6.87628e-07
7.88246e-05
4.9225e-07
7.89845e-05
3.04205e-07
7.91378e-05
1.21154e-07
7.92859e-05
-5.91063e-08
7.94308e-05
-2.38811e-07
7.95741e-05
-4.20158e-07
7.97163e-05
-6.04681e-07
7.98575e-05
-7.94476e-07
7.99974e-05
-9.9177e-07
8.01354e-05
-1.19901e-06
8.02702e-05
-1.41875e-06
8.03993e-05
-1.65405e-06
8.05191e-05
-1.90745e-06
8.0623e-05
-2.1821e-06
8.07036e-05
-2.47828e-06
-2.79456e-06
8.07485e-05
7.23902e-05
2.88445e-06
7.38469e-05
6.05773e-06
7.4982e-05
6.51756e-06
7.58107e-05
6.06919e-06
7.63822e-05
5.34508e-06
7.67801e-05
4.56754e-06
7.70809e-05
3.87784e-06
7.73264e-05
3.29759e-06
7.754e-05
2.80821e-06
7.7735e-05
2.39187e-06
7.79185e-05
2.03263e-06
7.80942e-05
1.71739e-06
7.82643e-05
1.4364e-06
7.84302e-05
1.18232e-06
7.85928e-05
9.49492e-07
7.87526e-05
7.33334e-07
7.89101e-05
5.30099e-07
7.90657e-05
3.36662e-07
7.92196e-05
1.50276e-07
7.93723e-05
-3.15162e-08
7.95242e-05
-2.10973e-07
7.96755e-05
-3.9011e-07
7.98262e-05
-5.70878e-07
7.99764e-05
-7.54864e-07
8.01258e-05
-9.43872e-07
8.02738e-05
-1.13982e-06
8.04195e-05
-1.3447e-06
8.05613e-05
-1.56051e-06
8.06965e-05
-1.78927e-06
8.08216e-05
-2.03255e-06
8.0931e-05
-2.29149e-06
8.10182e-05
-2.56545e-06
-2.85101e-06
8.10746e-05
7.41266e-05
2.16308e-06
7.52983e-05
4.88605e-06
7.62871e-05
5.52879e-06
7.70492e-05
5.3071e-06
7.76076e-05
4.78666e-06
7.80118e-05
4.16339e-06
7.83193e-05
3.57025e-06
7.85679e-05
3.04907e-06
7.87798e-05
2.59626e-06
7.89693e-05
2.20239e-06
7.91446e-05
1.85731e-06
7.93107e-05
1.55128e-06
7.94707e-05
1.27638e-06
7.96267e-05
1.02638e-06
7.97799e-05
7.96236e-07
7.99315e-05
5.81791e-07
8.0082e-05
3.79571e-07
8.0232e-05
1.8663e-07
8.0382e-05
3.45218e-10
8.0532e-05
-1.81518e-07
8.06821e-05
-3.61082e-07
8.08323e-05
-5.40303e-07
8.09824e-05
-7.20963e-07
8.11321e-05
-9.0459e-07
8.1281e-05
-1.09276e-06
8.14282e-05
-1.28708e-06
8.15726e-05
-1.48911e-06
8.17124e-05
-1.70027e-06
8.18449e-05
-1.9218e-06
8.19667e-05
-2.15435e-06
8.20731e-05
-2.39783e-06
8.21584e-05
-2.65083e-06
-2.90925e-06
8.22167e-05
7.60181e-05
1.64746e-06
7.69588e-05
3.94538e-06
7.78145e-05
4.67307e-06
7.85055e-05
4.61609e-06
7.90383e-05
4.25388e-06
7.94413e-05
3.76032e-06
7.97569e-05
3.25471e-06
8.00162e-05
2.78976e-06
8.02389e-05
2.37354e-06
8.04378e-05
2.00346e-06
8.06211e-05
1.67407e-06
8.07937e-05
1.37869e-06
8.09589e-05
1.11114e-06
8.11191e-05
8.66244e-07
8.12756e-05
6.39649e-07
8.14298e-05
4.27646e-07
8.15823e-05
2.27068e-07
8.17337e-05
3.51818e-08
8.18845e-05
-1.50418e-07
8.20348e-05
-3.3184e-07
8.21848e-05
-5.11043e-07
8.23343e-05
-6.89807e-07
8.24831e-05
-8.69748e-07
8.26308e-05
-1.05229e-06
8.27768e-05
-1.23878e-06
8.29202e-05
-1.43051e-06
8.30597e-05
-1.62863e-06
8.31935e-05
-1.83405e-06
8.3319e-05
-2.04733e-06
8.34331e-05
-2.26846e-06
8.35319e-05
-2.49656e-06
8.36108e-05
-2.72974e-06
-2.96383e-06
8.36654e-05
7.80343e-05
1.27271e-06
7.87896e-05
3.19014e-06
7.95279e-05
3.9347e-06
8.01522e-05
3.99183e-06
8.06559e-05
3.75012e-06
8.10529e-05
3.36332e-06
8.1372e-05
2.93567e-06
8.16381e-05
2.52359e-06
8.18684e-05
2.14328e-06
8.20744e-05
1.79746e-06
8.22639e-05
1.48454e-06
8.24421e-05
1.20055e-06
8.26122e-05
9.41034e-07
8.27765e-05
7.01873e-07
8.29368e-05
4.79411e-07
8.3094e-05
2.70416e-07
8.3249e-05
7.20448e-08
8.34024e-05
-1.18199e-07
8.35545e-05
-3.02523e-07
8.37056e-05
-4.82886e-07
8.38556e-05
-6.61078e-07
8.40045e-05
-8.38716e-07
8.4152e-05
-1.01724e-06
8.42976e-05
-1.19792e-06
8.44407e-05
-1.38186e-06
8.45802e-05
-1.57004e-06
8.47149e-05
-1.76325e-06
8.48428e-05
-1.96196e-06
8.49617e-05
-2.16626e-06
8.50689e-05
-2.37565e-06
8.51612e-05
-2.58881e-06
8.5235e-05
-2.80361e-06
-3.01618e-06
8.52874e-05
8.01559e-05
9.95107e-07
8.07642e-05
2.58188e-06
8.14008e-05
3.29806e-06
8.1964e-05
3.42862e-06
8.24374e-05
3.27678e-06
8.28244e-05
2.97631e-06
8.31435e-05
2.6166e-06
8.34141e-05
2.253e-06
8.36505e-05
1.90687e-06
8.38629e-05
1.585e-06
8.40586e-05
1.28884e-06
8.42424e-05
1.01677e-06
8.44176e-05
7.65863e-07
8.45864e-05
5.33034e-07
8.47505e-05
3.15302e-07
8.49111e-05
1.09901e-07
8.50688e-05
-8.5677e-08
8.52243e-05
-2.73676e-07
8.53778e-05
-4.56103e-07
8.55297e-05
-6.34754e-07
8.56799e-05
-8.11246e-07
8.58282e-05
-9.87022e-07
8.59743e-05
-1.16334e-06
8.61176e-05
-1.34129e-06
8.62575e-05
-1.52175e-06
8.6393e-05
-1.70546e-06
8.65226e-05
-1.89287e-06
8.66448e-05
-2.08415e-06
8.67575e-05
-2.27901e-06
8.68585e-05
-2.47665e-06
8.69453e-05
-2.67556e-06
8.70152e-05
-2.87359e-06
-3.06731e-06
8.70664e-05
8.23704e-05
7.85116e-07
8.28628e-05
2.08954e-06
8.34113e-05
2.74957e-06
8.39184e-05
2.92149e-06
8.4361e-05
2.83412e-06
8.47359e-05
2.60143e-06
8.50533e-05
2.29924e-06
8.53272e-05
1.97907e-06
8.55692e-05
1.66488e-06
8.57879e-05
1.36629e-06
8.59897e-05
1.08703e-06
8.61792e-05
8.27318e-07
8.63594e-05
5.85613e-07
8.65327e-05
3.59739e-07
8.67007e-05
1.47367e-07
8.68644e-05
-5.3802e-08
8.70246e-05
-2.45938e-07
8.7182e-05
-4.31025e-07
8.73367e-05
-6.10866e-07
8.74891e-05
-7.8708e-07
8.76389e-05
-9.61111e-07
8.77861e-05
-1.13423e-06
8.79303e-05
-1.30753e-06
8.80709e-05
-1.48191e-06
8.82073e-05
-1.65808e-06
8.83383e-05
-1.83651e-06
8.84629e-05
-2.01744e-06
8.85795e-05
-2.20076e-06
8.86865e-05
-2.38597e-06
8.87819e-05
-2.57212e-06
8.8864e-05
-2.75765e-06
8.8931e-05
-2.94055e-06
-3.11791e-06
8.89816e-05
8.46701e-05
6.22818e-07
8.50714e-05
1.68819e-06
8.55444e-05
2.27662e-06
8.60007e-05
2.46515e-06
8.64134e-05
2.42145e-06
8.67744e-05
2.24043e-06
8.70878e-05
1.98579e-06
8.73632e-05
1.7037e-06
8.76093e-05
1.41874e-06
8.78334e-05
1.14228e-06
8.80408e-05
8.79625e-07
8.82356e-05
6.32448e-07
8.84209e-05
4.00341e-07
8.85987e-05
1.81956e-07
8.87705e-05
-2.44518e-08
8.89374e-05
-2.2074e-07
8.91003e-05
-4.0875e-07
8.92594e-05
-5.90216e-07
8.94153e-05
-7.66734e-07
8.9568e-05
-9.39746e-07
8.97174e-05
-1.11053e-06
8.98634e-05
-1.28019e-06
9.00055e-05
-1.44966e-06
9.01432e-05
-1.61967e-06
9.02759e-05
-1.79074e-06
9.04026e-05
-1.96319e-06
9.05222e-05
-2.13704e-06
9.06335e-05
-2.31204e-06
9.0735e-05
-2.48755e-06
9.08255e-05
-2.66257e-06
9.09035e-05
-2.83564e-06
9.09679e-05
-3.00495e-06
-3.16811e-06
9.10181e-05
8.70503e-05
4.94655e-07
8.73804e-05
1.3581e-06
8.77892e-05
1.86786e-06
8.81998e-05
2.05447e-06
8.85837e-05
2.0376e-06
8.89297e-05
1.89439e-06
8.92377e-05
1.67785e-06
8.95131e-05
1.42828e-06
8.97624e-05
1.16947e-06
8.9991e-05
9.1361e-07
9.02037e-05
6.6701e-07
9.04037e-05
4.32377e-07
9.05939e-05
2.10198e-07
9.0776e-05
-1.91196e-10
9.09516e-05
-2.0002e-07
9.11216e-05
-3.90745e-07
9.12868e-05
-5.73906e-07
9.14475e-05
-7.50998e-07
9.16042e-05
-9.23418e-07
9.17569e-05
-1.09243e-06
9.19055e-05
-1.25916e-06
9.20499e-05
-1.42455e-06
9.21896e-05
-1.58938e-06
9.23242e-05
-1.75425e-06
9.2453e-05
-1.91952e-06
9.25751e-05
-2.08537e-06
9.26898e-05
-2.25169e-06
9.27959e-05
-2.41814e-06
9.28924e-05
-2.58402e-06
9.29782e-05
-2.74838e-06
9.30524e-05
-2.90989e-06
9.31145e-05
-3.06701e-06
-3.21784e-06
9.31642e-05
8.95089e-05
3.91315e-07
8.97832e-05
1.08376e-06
9.01379e-05
1.51317e-06
9.0508e-05
1.68439e-06
9.08648e-05
1.68077e-06
9.11956e-05
1.56361e-06
9.14969e-05
1.37657e-06
9.17711e-05
1.15408e-06
9.20224e-05
9.18193e-07
9.22548e-05
6.812e-07
9.24719e-05
4.49887e-07
9.26766e-05
2.27627e-07
9.28713e-05
1.5564e-08
9.30575e-05
-1.8642e-07
9.32366e-05
-3.79111e-07
9.34095e-05
-5.63629e-07
9.35768e-05
-7.41237e-07
9.3739e-05
-9.13207e-07
9.38963e-05
-1.08075e-06
9.40489e-05
-1.24497e-06
9.41966e-05
-1.40683e-06
9.43392e-05
-1.56716e-06
9.44764e-05
-1.72659e-06
9.46077e-05
-1.88559e-06
9.47326e-05
-2.04441e-06
9.48504e-05
-2.20313e-06
9.49602e-05
-2.36156e-06
9.50614e-05
-2.51929e-06
9.51531e-05
-2.67568e-06
9.52345e-05
-2.82982e-06
9.53052e-05
-2.98058e-06
9.53649e-05
-3.12669e-06
-3.26666e-06
9.54137e-05
9.20449e-05
3.06305e-07
9.22756e-05
8.53014e-07
9.25852e-05
1.20361e-06
9.29196e-05
1.34999e-06
9.32515e-05
1.34887e-06
9.35672e-05
1.24791e-06
9.38611e-05
1.08267e-06
9.41331e-05
8.82027e-07
9.43855e-05
6.65787e-07
9.4621e-05
4.45737e-07
9.48421e-05
2.28749e-07
9.50512e-05
1.85354e-08
9.52501e-05
-1.83324e-07
9.54402e-05
-3.76543e-07
9.56227e-05
-5.61564e-07
9.57983e-05
-7.39227e-07
9.59676e-05
-9.10559e-07
9.6131e-05
-1.07664e-06
9.62888e-05
-1.23851e-06
9.6441e-05
-1.39712e-06
9.65874e-05
-1.55332e-06
9.67281e-05
-1.70779e-06
9.68626e-05
-1.86107e-06
9.69905e-05
-2.01352e-06
9.71114e-05
-2.1653e-06
9.72247e-05
-2.31642e-06
9.73298e-05
-2.46664e-06
9.7426e-05
-2.61558e-06
9.7513e-05
-2.7626e-06
9.75901e-05
-2.90694e-06
9.76571e-05
-3.04764e-06
9.77141e-05
-3.18369e-06
-3.31396e-06
9.77614e-05
9.46584e-05
2.35015e-07
9.48551e-05
6.56377e-07
9.51273e-05
9.31416e-07
9.54307e-05
1.04654e-06
9.57401e-05
1.03948e-06
9.60415e-05
9.46569e-07
9.63278e-05
7.96343e-07
9.65971e-05
6.12699e-07
9.685e-05
4.12897e-07
9.70879e-05
2.07827e-07
9.73125e-05
4.10883e-09
9.75256e-05
-1.94474e-07
9.77283e-05
-3.86118e-07
9.79221e-05
-5.7027e-07
9.81076e-05
-7.47129e-07
9.82857e-05
-9.17316e-07
9.84568e-05
-1.08167e-06
9.86213e-05
-1.2411e-06
9.87793e-05
-1.39651e-06
9.89309e-05
-1.54872e-06
9.9076e-05
-1.69847e-06
9.92146e-05
-1.84632e-06
9.93462e-05
-1.99274e-06
9.94707e-05
-2.13799e-06
9.95876e-05
-2.28218e-06
9.96964e-05
-2.42527e-06
9.97968e-05
-2.56703e-06
9.98883e-05
-2.70706e-06
9.99706e-05
-2.84484e-06
0.000100043
-2.9797e-06
0.000100107
-3.11087e-06
0.00010016
-3.23757e-06
-3.35896e-06
0.000100205
9.73504e-05
1.74106e-07
9.75204e-05
4.86394e-07
9.7762e-05
6.8986e-07
9.80389e-05
7.69559e-07
9.83284e-05
7.50047e-07
9.86165e-05
6.58462e-07
9.88954e-05
5.17411e-07
9.91618e-05
3.46338e-07
9.94148e-05
1.59923e-07
9.96547e-05
-3.21206e-08
9.98825e-05
-2.23678e-07
0.000100099
-4.11122e-07
0.000100306
-5.92599e-07
0.000100503
-7.67428e-07
0.000100691
-9.35656e-07
0.000100872
-1.09775e-06
0.000101044
-1.25442e-06
0.00010121
-1.40644e-06
0.000101368
-1.55459e-06
0.000101519
-1.69961e-06
0.000101662
-1.84211e-06
0.000101799
-1.98261e-06
0.000101927
-2.12146e-06
0.000102048
-2.25889e-06
0.000102161
-2.39498e-06
0.000102266
-2.52964e-06
0.000102361
-2.66266e-06
0.000102448
-2.7937e-06
0.000102525
-2.9223e-06
0.000102593
-3.04791e-06
0.000102653
-3.16993e-06
0.000102703
-3.28777e-06
-3.40081e-06
0.000102745
0.000100122
1.21095e-07
0.000100271
3.37175e-07
0.000100488
4.73129e-07
0.000100743
5.14819e-07
0.000101015
4.77848e-07
0.000101291
3.82122e-07
0.000101563
2.45251e-07
0.000101827
8.27994e-08
0.00010208
-9.30574e-08
0.000102322
-2.73942e-07
0.000102553
-4.54433e-07
0.000102773
-6.31239e-07
0.000102983
-8.02615e-07
0.000103183
-9.67878e-07
0.000103375
-1.12701e-06
0.000103557
-1.28041e-06
0.000103731
-1.42869e-06
0.000103898
-1.57253e-06
0.000104056
-1.71264e-06
0.000104206
-1.84966e-06
0.000104348
-1.98414e-06
0.000104482
-2.11654e-06
0.000104607
-2.24715e-06
0.000104725
-2.37617e-06
0.000104833
-2.50363e-06
0.000104933
-2.62947e-06
0.000105024
-2.75349e-06
0.000105106
-2.87539e-06
0.000105178
-2.9948e-06
0.000105241
-3.11128e-06
0.000105296
-3.22437e-06
0.000105342
-3.33362e-06
-3.43859e-06
0.00010538
0.000102975
7.40888e-08
0.000103108
2.03998e-07
0.000103305
2.76188e-07
0.000103542
2.78329e-07
0.000103799
2.20086e-07
0.000104066
1.15784e-07
0.000104332
-2.11135e-08
0.000104593
-1.78397e-07
0.000104847
-3.46242e-07
0.00010509
-5.17685e-07
0.000105324
-6.88135e-07
0.000105548
-8.54777e-07
0.000105761
-1.01611e-06
0.000105965
-1.17156e-06
0.000106159
-1.32114e-06
0.000106344
-1.46523e-06
0.000106519
-1.60439e-06
0.000106686
-1.73928e-06
0.000106844
-1.87055e-06
0.000106993
-1.99878e-06
0.000107133
-2.12447e-06
0.000107265
-2.24803e-06
0.000107388
-2.36973e-06
0.000107501
-2.48973e-06
0.000107606
-2.60807e-06
0.000107701
-2.72469e-06
0.000107787
-2.83941e-06
0.000107863
-2.95199e-06
0.000107931
-3.06213e-06
0.000107989
-3.16949e-06
0.000108038
-3.27371e-06
0.000108079
-3.37448e-06
-3.47147e-06
0.000108112
0.000105911
3.15975e-08
0.000106032
8.30126e-08
0.000106214
9.46298e-08
0.000106436
5.63076e-08
0.000106682
-2.61376e-08
0.00010694
-1.42608e-07
0.000107202
-2.8305e-07
0.000107462
-4.38139e-07
0.000107716
-6.00217e-07
0.000107962
-7.63751e-07
0.000108199
-9.25073e-07
0.000108426
-1.08196e-06
0.000108643
-1.23326e-06
0.00010885
-1.3786e-06
0.000109047
-1.51812e-06
0.000109234
-1.65224e-06
0.000109412
-1.78155e-06
0.000109579
-1.9067e-06
0.000109737
-2.02829e-06
0.000109885
-2.14691e-06
0.000110023
-2.26303e-06
0.000110152
-2.37701e-06
0.000110272
-2.48912e-06
0.000110382
-2.5995e-06
0.000110482
-2.70819e-06
0.000110572
-2.81515e-06
0.000110653
-2.92024e-06
0.000110724
-3.02326e-06
0.000110786
-3.12397e-06
0.000110839
-3.22211e-06
0.000110882
-3.31741e-06
0.000110918
-3.40964e-06
-3.49854e-06
0.000110945
0.000108933
-7.5933e-09
0.000109045
-2.90065e-08
0.000109215
-7.54671e-08
0.000109426
-1.54864e-07
0.000109664
-2.63801e-07
0.000109916
-3.95345e-07
0.000110175
-5.42232e-07
0.000110435
-6.97618e-07
0.000110691
-8.55825e-07
0.00011094
-1.01274e-06
0.00011118
-1.16568e-06
0.000111411
-1.31308e-06
0.000111632
-1.45427e-06
0.000111843
-1.58917e-06
0.000112043
-1.71807e-06
0.000112232
-1.84154e-06
0.000112411
-1.96022e-06
0.000112579
-2.07479e-06
0.000112736
-2.18588e-06
0.000112884
-2.29406e-06
0.00011302
-2.3998e-06
0.000113147
-2.50345e-06
0.000113263
-2.60528e-06
0.000113369
-2.70542e-06
0.000113465
-2.80393e-06
0.00011355
-2.90078e-06
0.000113626
-2.99586e-06
0.000113692
-3.08903e-06
0.000113748
-3.18007e-06
0.000113794
-3.26881e-06
0.000113832
-3.35502e-06
0.000113861
-3.43854e-06
-3.51918e-06
0.000113882
0.000112041
-4.45264e-08
0.000112147
-1.34861e-07
0.00011231
-2.37701e-07
0.000112513
-3.58744e-07
0.000112746
-4.96065e-07
0.000112995
-6.4508e-07
0.000113254
-8.00813e-07
0.000113515
-9.58561e-07
0.000113774
-1.11446e-06
0.000114027
-1.26578e-06
0.000114272
-1.41088e-06
0.000114508
-1.54893e-06
0.000114733
-1.67979e-06
0.000114948
-1.80376e-06
0.000115151
-1.92139e-06
0.000115343
-2.03342e-06
0.000115523
-2.14061e-06
0.000115692
-2.24371e-06
0.00011585
-2.34339e-06
0.000115996
-2.44025e-06
0.000116131
-2.53476e-06
0.000116255
-2.6273e-06
0.000116368
-2.71812e-06
0.00011647
-2.80737e-06
0.000116561
-2.89513e-06
0.000116641
-2.98137e-06
0.000116712
-3.06603e-06
0.000116771
-3.14897e-06
0.000116821
-3.23005e-06
0.000116862
-3.3091e-06
0.000116893
-3.38596e-06
0.000116915
-3.46051e-06
-3.53255e-06
0.000116928
0.00011524
-8.01071e-08
0.000115342
-2.37078e-07
0.0001155
-3.95461e-07
0.0001157
-5.5886e-07
0.00011593
-7.26196e-07
0.00011618
-8.94649e-07
0.00011644
-1.06114e-06
0.000116704
-1.22287e-06
0.000116968
-1.37763e-06
0.000117226
-1.52408e-06
0.000117477
-1.66161e-06
0.000117718
-1.79024e-06
0.000117949
-1.9104e-06
0.000118168
-2.02285e-06
0.000118375
-2.12846e-06
0.00011857
-2.2282e-06
0.000118752
-2.32298e-06
0.000118922
-2.41366e-06
0.000119079
-2.50099e-06
0.000119225
-2.58561e-06
0.000119358
-2.66803e-06
0.000119479
-2.74863e-06
0.000119589
-2.82769e-06
0.000119687
-2.90538e-06
0.000119774
-2.98178e-06
0.000119849
-3.05688e-06
0.000119914
-3.13064e-06
0.000119968
-3.20296e-06
0.000120011
-3.27371e-06
0.000120045
-3.34275e-06
0.000120069
-3.40996e-06
0.000120084
-3.47522e-06
-3.53836e-06
0.00012009
0.000118531
-1.15216e-07
0.000118632
-3.38112e-07
0.000118789
-5.52177e-07
0.000118989
-7.59007e-07
0.000119221
-9.57973e-07
0.000119474
-1.14761e-06
0.000119739
-1.32645e-06
0.000120009
-1.49339e-06
0.00012028
-1.64783e-06
0.000120545
-1.78977e-06
0.000120803
-1.9197e-06
0.000121052
-2.03852e-06
0.000121289
-2.14734e-06
0.000121513
-2.24743e-06
0.000121725
-2.34006e-06
0.000121923
-2.42645e-06
0.000122108
-2.50773e-06
0.000122279
-2.58491e-06
0.000122437
-2.65884e-06
0.000122582
-2.73021e-06
0.000122713
-2.79958e-06
0.000122832
-2.86736e-06
0.000122938
-2.93386e-06
0.000123032
-2.99926e-06
0.000123114
-3.06364e-06
0.000123184
-3.12703e-06
0.000123243
-3.18939e-06
0.00012329
-3.25062e-06
0.000123327
-3.31063e-06
0.000123354
-3.36928e-06
0.00012337
-3.42645e-06
0.000123377
-3.48202e-06
-3.53583e-06
0.000123375
0.000121917
-1.50713e-07
0.000122019
-4.40374e-07
0.000122178
-7.11258e-07
0.000122382
-9.62978e-07
0.000122619
-1.19514e-06
0.000122879
-1.4074e-06
0.000123152
-1.59976e-06
0.000123432
-1.77272e-06
0.000123711
-1.92723e-06
0.000123986
-2.06467e-06
0.000124253
-2.18668e-06
0.00012451
-2.29507e-06
0.000124754
-2.39173e-06
0.000124985
-2.47846e-06
0.000125202
-2.557e-06
0.000125404
-2.62889e-06
0.000125592
-2.6955e-06
0.000125765
-2.75801e-06
0.000125924
-2.81739e-06
0.000126068
-2.87443e-06
0.000126198
-2.92974e-06
0.000126315
-2.98378e-06
0.000126418
-3.03687e-06
0.000126508
-3.08919e-06
0.000126585
-3.14087e-06
0.00012665
-3.19192e-06
0.000126703
-3.24231e-06
0.000126744
-3.29197e-06
0.000126774
-3.34078e-06
0.000126793
-3.38864e-06
0.000126802
-3.43539e-06
0.000126801
-3.48096e-06
-3.52515e-06
0.000126791
0.0001254
-1.87596e-07
0.000125507
-5.46676e-07
0.000125672
-8.76859e-07
0.000125885
-1.17572e-06
0.000126133
-1.443e-06
0.000126405
-1.67934e-06
0.000126691
-1.88612e-06
0.000126984
-2.06546e-06
0.000127277
-2.21991e-06
0.000127564
-2.35228e-06
0.000127843
-2.46545e-06
0.00012811
-2.56226e-06
0.000128364
-2.64541e-06
0.000128603
-2.71736e-06
0.000128826
-2.78033e-06
0.000129033
-2.83625e-06
0.000129225
-2.88675e-06
0.0001294
-2.93322e-06
0.000129559
-2.97677e-06
0.000129703
-3.01827e-06
0.000129832
-3.05842e-06
0.000129946
-3.09769e-06
0.000130045
-3.13644e-06
0.000130131
-3.17487e-06
0.000130203
-3.2131e-06
0.000130262
-3.25116e-06
0.000130309
-3.28901e-06
0.000130344
-3.32656e-06
0.000130367
-3.36371e-06
0.000130378
-3.40032e-06
0.000130379
-3.43623e-06
0.000130369
-3.47134e-06
-3.50541e-06
0.00013035
0.000128984
-2.2682e-07
0.000129097
-6.59764e-07
0.000129273
-1.05284e-06
0.000129499
-1.40152e-06
0.000129762
-1.70579e-06
0.00013005
-1.96739e-06
0.000130353
-2.18918e-06
0.000130663
-2.37493e-06
0.000130972
-2.52888e-06
0.000131275
-2.65535e-06
0.000131568
-2.75855e-06
0.000131848
-2.8424e-06
0.000132113
-2.9105e-06
0.000132362
-2.96604e-06
0.000132593
-3.01177e-06
0.000132807
-3.05004e-06
0.000133003
-3.08282e-06
0.000133181
-3.1117e-06
0.000133343
-3.13795e-06
0.000133487
-3.16257e-06
0.000133615
-3.18631e-06
0.000133727
-3.20969e-06
0.000133823
-3.23309e-06
0.000133905
-3.25672e-06
0.000133973
-3.28071e-06
0.000134027
-3.30505e-06
0.000134068
-3.32972e-06
0.000134096
-3.35462e-06
0.000134111
-3.37961e-06
0.000134116
-3.40455e-06
0.000134109
-3.42928e-06
0.000134091
-3.45365e-06
-3.47743e-06
0.000134063
0.000132672
-2.70059e-07
0.000132797
-7.84217e-07
0.00013299
-1.24608e-06
0.000133237
-1.64873e-06
0.000133524
-1.99253e-06
0.000133837
-2.28049e-06
0.000134165
-2.51716e-06
0.000134498
-2.70832e-06
0.00013483
-2.86015e-06
0.000135153
-2.97871e-06
0.000135464
-3.06969e-06
0.00013576
-3.13826e-06
0.000136039
-3.18898e-06
0.000136298
-3.22582e-06
0.000136539
-3.25214e-06
0.000136759
-3.27072e-06
0.00013696
-3.28386e-06
0.000137142
-3.29339e-06
0.000137305
-3.30074e-06
0.000137449
-3.30702e-06
0.000137576
-3.31303e-06
0.000137686
-3.31934e-06
0.000137779
-3.32634e-06
0.000137856
-3.33424e-06
0.000137919
-3.34315e-06
0.000137967
-3.35306e-06
0.000138001
-3.36392e-06
0.000138022
-3.37559e-06
0.00013803
-3.38792e-06
0.000138027
-3.40074e-06
0.000138011
-3.41383e-06
0.000137984
-3.427e-06
-3.43998e-06
0.000137947
0.000136466
-3.18169e-07
0.000136605
-9.2295e-07
0.000136819
-1.46038e-06
0.000137092
-1.92135e-06
0.000137407
-2.30731e-06
0.000137749
-2.62295e-06
0.000138107
-2.87474e-06
0.000138469
-3.07062e-06
0.000138828
-3.21891e-06
0.000139177
-3.32759e-06
0.000139511
-3.40398e-06
0.000139827
-3.45464e-06
0.000140124
-3.48526e-06
0.000140399
-3.50067e-06
0.000140651
-3.50491e-06
0.000140882
-3.50128e-06
0.000141091
-3.49243e-06
0.000141278
-3.48044e-06
0.000141444
-3.46693e-06
0.00014159
-3.45309e-06
0.000141717
-3.4398e-06
0.000141825
-3.42766e-06
0.000141916
-3.41703e-06
0.00014199
-3.40814e-06
0.000142047
-3.40105e-06
0.00014209
-3.39573e-06
0.000142118
-3.39208e-06
0.000142133
-3.38996e-06
0.000142134
-3.38915e-06
0.000142123
-3.38946e-06
0.000142099
-3.39065e-06
0.000142065
-3.39251e-06
-3.39474e-06
0.00014202
0.000140373
-3.75737e-07
0.000140537
-1.08703e-06
0.000140788
-1.71138e-06
0.000141104
-2.23694e-06
0.000141464
-2.6673e-06
0.000141851
-3.00987e-06
0.00014225
-3.27407e-06
0.000142651
-3.47098e-06
0.000143043
-3.61165e-06
0.000143422
-3.70627e-06
0.000143782
-3.76403e-06
0.00014412
-3.79296e-06
0.000144435
-3.79991e-06
0.000144725
-3.79061e-06
0.00014499
-3.76977e-06
0.00014523
-3.74119e-06
0.000145445
-3.70787e-06
0.000145637
-3.67215e-06
0.000145806
-3.63578e-06
0.000145953
-3.60007e-06
0.000146079
-3.56592e-06
0.000146185
-3.53394e-06
0.000146273
-3.5045e-06
0.000146342
-3.47777e-06
0.000146395
-3.45378e-06
0.000146432
-3.43245e-06
0.000146453
-3.41365e-06
0.00014646
-3.39715e-06
0.000146454
-3.38272e-06
0.000146435
-3.37009e-06
0.000146403
-3.35897e-06
0.00014636
-3.34908e-06
-3.34002e-06
0.000146305
0.00014439
-4.4069e-07
0.000144578
-1.27554e-06
0.000144865
-1.99829e-06
0.000145224
-2.59621e-06
0.000145633
-3.07633e-06
0.000146072
-3.4486e-06
0.000146523
-3.72545e-06
0.000146974
-3.92154e-06
0.000147413
-4.05118e-06
0.000147835
-4.12737e-06
0.000148232
-4.16158e-06
0.000148603
-4.16371e-06
0.000148945
-4.14203e-06
0.000149258
-4.10333e-06
0.000149541
-4.0531e-06
0.000149796
-3.99569e-06
0.000150022
-3.93445e-06
0.000150222
-3.87196e-06
0.000150396
-3.8101e-06
0.000150546
-3.75024e-06
0.000150674
-3.69328e-06
0.00015078
-3.63981e-06
0.000150865
-3.59013e-06
0.000150932
-3.54435e-06
0.000150981
-3.50243e-06
0.000151012
-3.46424e-06
0.000151028
-3.42955e-06
0.000151029
-3.39809e-06
0.000151016
-3.36957e-06
0.00015099
-3.34367e-06
0.000150951
-3.32006e-06
0.0001509
-3.29844e-06
-3.27838e-06
0.000150838
0.000148539
-5.32197e-07
0.000148789
-1.52469e-06
0.000149153
-2.36308e-06
0.000149594
-3.0367e-06
0.00015008
-3.56259e-06
0.000150589
-3.9572e-06
0.000151102
-4.23852e-06
0.000151606
-4.42605e-06
0.000152093
-4.5377e-06
0.000152555
-4.58918e-06
0.000152987
-4.5942e-06
0.000153388
-4.56438e-06
0.000153755
-4.50935e-06
0.000154089
-4.4369e-06
0.000154389
-4.35326e-06
0.000154657
-4.26332e-06
0.000154893
-4.17079e-06
0.000155099
-4.07847e-06
0.000155278
-3.98838e-06
0.000155429
-3.9019e-06
0.000155556
-3.81995e-06
0.000155659
-3.74305e-06
0.000155741
-3.67143e-06
0.000155801
-3.60512e-06
0.000155843
-3.54399e-06
0.000155867
-3.48779e-06
0.000155873
-3.43622e-06
0.000155864
-3.38893e-06
0.00015584
-3.34555e-06
0.000155802
-3.30569e-06
0.000155751
-3.26896e-06
0.000155687
-3.23496e-06
-3.20314e-06
0.000155612
0.000152783
-6.26067e-07
0.000153068
-1.80949e-06
0.000153493
-2.7884e-06
0.000154015
-3.55902e-06
0.000154598
-4.14496e-06
0.000155207
-4.56663e-06
0.000155818
-4.84952e-06
0.000156413
-5.02084e-06
0.00015698
-5.10419e-06
0.00015751
-5.11954e-06
0.000158
-5.08389e-06
0.000158446
-5.01127e-06
0.00015885
-4.91296e-06
0.000159211
-4.79795e-06
0.000159531
-4.67322e-06
0.000159812
-4.54414e-06
0.000160056
-4.41471e-06
0.000160265
-4.28784e-06
0.000160442
-4.16556e-06
0.00016059
-4.04921e-06
0.000160709
-3.93959e-06
0.000160803
-3.83709e-06
0.000160874
-3.74179e-06
0.000160922
-3.65356e-06
0.00016095
-3.57211e-06
0.00016096
-3.49708e-06
0.000160951
-3.42803e-06
0.000160927
-3.36451e-06
0.000160887
-3.3061e-06
0.000160834
-3.25235e-06
0.000160768
-3.20283e-06
0.00016069
-3.15719e-06
-3.11472e-06
0.000160602
0.000157244
-8.18346e-07
0.000157688
-2.25366e-06
0.00015827
-3.37043e-06
0.000158923
-4.21246e-06
0.000159613
-4.83442e-06
0.00016031
-5.26398e-06
0.000160995
-5.5339e-06
0.000161651
-5.67751e-06
0.00016227
-5.72251e-06
0.000162843
-5.69255e-06
0.000163366
-5.60777e-06
0.00016384
-5.48463e-06
0.000164263
-5.33622e-06
0.000164638
-5.17279e-06
0.000164967
-5.00218e-06
0.000165253
-4.83023e-06
0.000165499
-4.66119e-06
0.00016571
-4.498e-06
0.000165887
-4.34259e-06
0.000166034
-4.19615e-06
0.000166153
-4.05924e-06
0.000166248
-3.93201e-06
0.000166321
-3.81429e-06
0.000166373
-3.70569e-06
0.000166406
-3.60569e-06
0.000166423
-3.5137e-06
0.000166424
-3.42912e-06
0.000166411
-3.35134e-06
0.000166385
-3.27982e-06
0.000166346
-3.21406e-06
0.000166297
-3.15364e-06
0.000166238
-3.09816e-06
-3.04695e-06
0.00016617
0.00016169
-9.69744e-07
0.000162206
-2.76948e-06
0.000162934
-4.09921e-06
0.000163783
-5.06128e-06
0.000164676
-5.72713e-06
0.000165557
-6.14477e-06
0.000166397
-6.37443e-06
0.000167185
-6.46564e-06
0.000167917
-6.45389e-06
0.000168592
-6.36748e-06
0.000169213
-6.22894e-06
0.000169784
-6.05557e-06
0.000170308
-5.86062e-06
0.00017079
-5.65416e-06
0.000171231
-5.44372e-06
0.000171636
-5.23484e-06
0.000172006
-5.0315e-06
0.000172344
-4.83642e-06
0.000172653
-4.65137e-06
0.000172934
-4.47734e-06
0.00017319
-4.31476e-06
0.000173422
-4.16362e-06
0.000173631
-4.02359e-06
0.000173819
-3.89411e-06
0.000173988
-3.77451e-06
0.000174138
-3.66405e-06
0.000174271
-3.56197e-06
0.000174388
-3.46758e-06
0.000174488
-3.38033e-06
0.000174574
-3.29971e-06
0.000174646
-3.2257e-06
0.000174706
-3.15792e-06
-3.09705e-06
0.000174756
0.000166687
-1.50303e-06
0.000167536
-3.61899e-06
0.000168466
-5.0292e-06
0.00016947
-6.06524e-06
0.000170552
-6.80848e-06
0.000171692
-7.28536e-06
0.000172875
-7.55667e-06