/*--------------------------------*- C++ -*----------------------------------*\
  =========                 |
  \\      /  F ield         | OpenFOAM: The Open Source CFD Toolbox
   \\    /   O peration     | Website:  https://openfoam.org
    \\  /    A nd           | Version:  10
     \\/     M anipulation  |
\*---------------------------------------------------------------------------*/
FoamFile
{
    format      ascii;
    class       volVectorField;
    location    "0.2";
    object      U;
}
// * * * * * * * * * * * * * * * * * * * * * * * * * * * * * * * * * * * * * //

dimensions      [0 1 -1 0 0 0 0];

internalField   nonuniform List<vector> 
6820
(
(5.57376 0.459073 0)
(3.88401 0.245808 0)
(2.59175 0.00865408 0)
(1.9617 -0.0643917 0)
(1.73857 -0.0597669 0)
(1.63011 -0.034338 0)
(1.56821 -0.0156725 0)
(1.52574 -0.00558675 0)
(1.49104 -0.000984127 0)
(1.46201 0.000519176 0)
(1.43812 0.00056112 0)
(1.41897 2.67928e-05 0)
(1.40411 -0.000676356 0)
(1.3931 -0.00136944 0)
(1.38552 -0.00197733 0)
(1.38103 -0.00248734 0)
(1.37949 -0.00281197 0)
(1.38061 -0.00335081 0)
(1.38425 -0.00377692 0)
(1.39044 -0.00408526 0)
(1.39914 -0.00435809 0)
(1.41043 -0.00466626 0)
(1.42445 -0.00502773 0)
(1.44137 -0.00544485 0)
(1.46143 -0.00592824 0)
(1.48495 -0.00649014 0)
(1.51226 -0.00717117 0)
(1.54408 -0.00797359 0)
(1.5805 -0.00909272 0)
(1.62429 -0.0101321 0)
(1.67094 -0.0129253 0)
(1.74015 -0.0095998 0)
(1.77431 -0.0441004 0)
(7.66983 0.863622 0)
(7.71816 0.890132 0)
(7.0032 0.597454 0)
(6.20391 0.346297 0)
(5.59456 0.178109 0)
(5.15462 0.0912944 0)
(4.84305 0.0505877 0)
(4.62046 0.0317312 0)
(4.45593 0.022856 0)
(4.33024 0.0181015 0)
(4.23174 0.0149907 0)
(4.15316 0.0125764 0)
(4.08989 0.010477 0)
(4.03886 0.00852157 0)
(3.99798 0.0066222 0)
(3.96576 0.00470873 0)
(3.9411 0.00278739 0)
(3.92321 0.000716359 0)
(3.91161 -0.00141708 0)
(3.90593 -0.00374315 0)
(3.90592 -0.00624162 0)
(3.91138 -0.00892039 0)
(3.92231 -0.0118467 0)
(3.93876 -0.0150795 0)
(3.96089 -0.018712 0)
(3.98896 -0.0228404 0)
(4.02335 -0.0276131 0)
(4.06461 -0.0331284 0)
(4.11335 -0.0398621 0)
(4.17096 -0.0475246 0)
(4.23788 -0.0587542 0)
(4.31993 -0.0697659 0)
(4.41478 -0.0946826 0)
(7.56351 0.519936 0)
(8.22539 0.662396 0)
(8.46617 0.574171 0)
(8.3677 0.455869 0)
(8.13569 0.341138 0)
(7.86392 0.255648 0)
(7.60006 0.195377 0)
(7.36386 0.15189 0)
(7.15856 0.119996 0)
(6.98221 0.0959883 0)
(6.83158 0.077364 0)
(6.70329 0.0625286 0)
(6.59432 0.050416 0)
(6.50208 0.040289 0)
(6.42441 0.0316164 0)
(6.35951 0.0239896 0)
(6.30592 0.0170842 0)
(6.26247 0.0107147 0)
(6.2282 0.00463807 0)
(6.20232 -0.0013447 0)
(6.18418 -0.007408 0)
(6.17363 -0.01363 0)
(6.17045 -0.0201928 0)
(6.17444 -0.0271717 0)
(6.18548 -0.0347012 0)
(6.20359 -0.0429603 0)
(6.22889 -0.0521863 0)
(6.26164 -0.0626455 0)
(6.30217 -0.0748416 0)
(6.35116 -0.0890856 0)
(6.40899 -0.107198 0)
(6.47627 -0.128783 0)
(6.55246 -0.162125 0)
(7.43341 0.340711 0)
(7.88483 0.513295 0)
(8.24378 0.487413 0)
(8.4429 0.426517 0)
(8.54371 0.354168 0)
(8.57582 0.292435 0)
(8.56393 0.245165 0)
(8.52772 0.208467 0)
(8.47827 0.179305 0)
(8.42204 0.155392 0)
(8.36324 0.135112 0)
(8.30461 0.117478 0)
(8.24795 0.101853 0)
(8.19454 0.0877674 0)
(8.14524 0.0748837 0)
(8.10058 0.0629397 0)
(8.06087 0.0517233 0)
(8.02628 0.0410398 0)
(7.99689 0.0306802 0)
(7.97272 0.0205128 0)
(7.95382 0.0103379 0)
(7.93997 -6.98025e-05 0)
(7.93102 -0.0108294 0)
(7.92701 -0.0221339 0)
(7.928 -0.0341652 0)
(7.93408 -0.0471351 0)
(7.94535 -0.0613254 0)
(7.96194 -0.0770661 0)
(7.98394 -0.0948792 0)
(8.01148 -0.115233 0)
(8.04441 -0.139358 0)
(8.08215 -0.16755 0)
(8.12409 -0.202218 0)
(7.39685 0.250606 0)
(7.68023 0.419761 0)
(7.92402 0.401736 0)
(8.07834 0.350696 0)
(8.18916 0.29481 0)
(8.2718 0.24786 0)
(8.33317 0.212534 0)
(8.38072 0.185149 0)
(8.41851 0.162942 0)
(8.4487 0.144242 0)
(8.47293 0.127935 0)
(8.49249 0.113333 0)
(8.50844 0.0999944 0)
(8.52154 0.0876017 0)
(8.5324 0.0759035 0)
(8.54164 0.0646903 0)
(8.5498 0.0537872 0)
(8.55736 0.0430445 0)
(8.56475 0.0323206 0)
(8.57227 0.0214762 0)
(8.58027 0.010403 0)
(8.58881 -0.00101298 0)
(8.59797 -0.0128411 0)
(8.60783 -0.0253229 0)
(8.61853 -0.0386796 0)
(8.63016 -0.0531366 0)
(8.64277 -0.0689674 0)
(8.65638 -0.0864886 0)
(8.67092 -0.106138 0)
(8.68621 -0.128349 0)
(8.70178 -0.153891 0)
(8.71677 -0.183078 0)
(8.73009 -0.216751 0)
(7.37404 0.180213 0)
(7.57437 0.334694 0)
(7.76159 0.339889 0)
(7.87674 0.309643 0)
(7.95373 0.26934 0)
(8.00995 0.229956 0)
(8.05229 0.197271 0)
(8.08738 0.17073 0)
(8.11869 0.148836 0)
(8.14737 0.130427 0)
(8.174 0.114525 0)
(8.19891 0.100402 0)
(8.22229 0.0875641 0)
(8.24433 0.0756668 0)
(8.26523 0.0644388 0)
(8.28509 0.0536524 0)
(8.30399 0.0431219 0)
(8.32203 0.0326918 0)
(8.33928 0.0222159 0)
(8.35583 0.0115645 0)
(8.37171 0.000633016 0)
(8.38713 -0.0106687 0)
(8.40234 -0.0225271 0)
(8.41742 -0.0351004 0)
(8.43239 -0.0485704 0)
(8.44726 -0.0631396 0)
(8.46197 -0.0790472 0)
(8.47643 -0.0965652 0)
(8.49044 -0.116038 0)
(8.5037 -0.137803 0)
(8.51571 -0.162315 0)
(8.52566 -0.18978 0)
(8.53274 -0.220345 0)
(7.35907 0.132245 0)
(7.50354 0.271597 0)
(7.65639 0.292356 0)
(7.75709 0.274458 0)
(7.82407 0.243679 0)
(7.87209 0.210472 0)
(7.90676 0.181379 0)
(7.93379 0.157124 0)
(7.95689 0.136704 0)
(7.97767 0.119224 0)
(7.99698 0.103926 0)
(8.01535 0.0902192 0)
(8.03308 0.0776812 0)
(8.05031 0.0659957 0)
(8.06717 0.0549177 0)
(8.08372 0.0442503 0)
(8.10001 0.0338265 0)
(8.11609 0.0234989 0)
(8.13199 0.0131275 0)
(8.14773 0.0025836 0)
(8.16336 -0.00826826 0)
(8.17893 -0.0195998 0)
(8.19445 -0.0315642 0)
(8.20991 -0.0442759 0)
(8.22531 -0.0578857 0)
(8.24061 -0.0725722 0)
(8.25573 -0.0885402 0)
(8.27054 -0.106015 0)
(8.28484 -0.125254 0)
(8.29832 -0.146501 0)
(8.31053 -0.170009 0)
(8.32078 -0.195876 0)
(8.3285 -0.224005 0)
(7.34967 0.0984983 0)
(7.45365 0.218847 0)
(7.57714 0.247509 0)
(7.66649 0.239566 0)
(7.72913 0.218604 0)
(7.77588 0.193061 0)
(7.81054 0.168706 0)
(7.83743 0.147156 0)
(7.85993 0.128184 0)
(7.87974 0.111403 0)
(7.8978 0.096399 0)
(7.91475 0.0827695 0)
(7.93098 0.0701844 0)
(7.94672 0.0583816 0)
(7.96213 0.0471455 0)
(7.97734 0.0362903 0)
(7.99241 0.0256517 0)
(8.00741 0.0150821 0)
(8.02238 0.00444219 0)
(8.03737 -0.00640606 0)
(8.05235 -0.0175968 0)
(8.06735 -0.0292554 0)
(8.08236 -0.0415034 0)
(8.09734 -0.0544635 0)
(8.11227 -0.0682824 0)
(8.12708 -0.0831227 0)
(8.14169 -0.0991583 0)
(8.15593 -0.116569 0)
(8.1696 -0.135541 0)
(8.18239 -0.156233 0)
(8.19393 -0.178762 0)
(8.20362 -0.203135 0)
(8.21106 -0.229126 0)
(7.34383 0.074492 0)
(7.41941 0.176745 0)
(7.51864 0.209833 0)
(7.59663 0.209396 0)
(7.65394 0.195438 0)
(7.69837 0.175284 0)
(7.73264 0.154307 0)
(7.75985 0.134829 0)
(7.78282 0.117191 0)
(7.80306 0.10128 0)
(7.82147 0.0868495 0)
(7.83865 0.073599 0)
(7.85499 0.0612558 0)
(7.87075 0.0495926 0)
(7.8861 0.0384156 0)
(7.90116 0.0275558 0)
(7.91604 0.0168634 0)
(7.93079 0.00620318 0)
(7.94546 -0.00455303 0)
(7.96007 -0.0155266 0)
(7.97465 -0.0268353 0)
(7.9892 -0.0386033 0)
(8.00369 -0.0509593 0)
(8.0181 -0.0640272 0)
(8.03238 -0.077936 0)
(8.04646 -0.09282 0)
(8.06023 -0.108816 0)
(8.07355 -0.126058 0)
(8.08621 -0.144667 0)
(8.09793 -0.164728 0)
(8.10839 -0.186267 0)
(8.1171 -0.209219 0)
(8.12379 -0.233309 0)
(7.34019 0.0571977 0)
(7.39573 0.142918 0)
(7.47527 0.176991 0)
(7.54278 0.181425 0)
(7.59481 0.172704 0)
(7.63661 0.157296 0)
(7.67001 0.139839 0)
(7.6971 0.122775 0)
(7.72015 0.106751 0)
(7.74053 0.0918716 0)
(7.75907 0.0780718 0)
(7.77632 0.0651878 0)
(7.7927 0.0530352 0)
(7.80845 0.0414427 0)
(7.82374 0.0302536 0)
(7.83871 0.0193235 0)
(7.85343 0.0085188 0)
(7.86798 -0.00228617 0)
(7.8824 -0.0132113 0)
(7.89671 -0.0243707 0)
(7.91092 -0.0358803 0)
(7.92504 -0.0478548 0)
(7.93904 -0.0604051 0)
(7.9529 -0.0736369 0)
(7.96654 -0.0876582 0)
(7.97991 -0.102578 0)
(7.99289 -0.118504 0)
(8.00533 -0.135528 0)
(8.01705 -0.153724 0)
(8.02779 -0.173122 0)
(8.0373 -0.193689 0)
(8.04521 -0.215314 0)
(8.05132 -0.237715 0)
(7.3379 0.0444951 0)
(7.37924 0.115681 0)
(7.44306 0.148711 0)
(7.50122 0.156404 0)
(7.54823 0.151683 0)
(7.58723 0.140078 0)
(7.61939 0.1255 0)
(7.64606 0.11038 0)
(7.66901 0.0956439 0)
(7.68942 0.0816029 0)
(7.70803 0.0683409 0)
(7.72535 0.0557988 0)
(7.74176 0.0438568 0)
(7.75751 0.0323827 0)
(7.77277 0.021245 0)
(7.78764 0.0103165 0)
(7.80224 -0.000524523 0)
(7.8166 -0.011393 0)
(7.83078 -0.0223992 0)
(7.8448 -0.0336496 0)
(7.85867 -0.0452488 0)
(7.87237 -0.057299 0)
(7.8859 -0.0699001 0)
(7.8992 -0.0831482 0)
(7.91222 -0.0971373 0)
(7.92488 -0.111956 0)
(7.93708 -0.127683 0)
(7.94868 -0.144378 0)
(7.95952 -0.162073 0)
(7.96938 -0.180761 0)
(7.97807 -0.200369 0)
(7.98531 -0.220765 0)
(7.99099 -0.241681 0)
(7.33644 0.0349795 0)
(7.36765 0.0936849 0)
(7.41898 0.124341 0)
(7.46888 0.133797 0)
(7.51113 0.131824 0)
(7.54733 0.123124 0)
(7.57808 0.110995 0)
(7.60419 0.0977115 0)
(7.62696 0.0843155 0)
(7.64736 0.0712301 0)
(7.66601 0.058628 0)
(7.68338 0.0465289 0)
(7.69982 0.0348723 0)
(7.71556 0.0235683 0)
(7.73076 0.012516 0)
(7.74554 0.00161102 0)
(7.75998 -0.00925157 0)
(7.77415 -0.0201739 0)
(7.78807 -0.0312552 0)
(7.80177 -0.0425922 0)
(7.81526 -0.0542794 0)
(7.82852 -0.0664087 0)
(7.84154 -0.0790679 0)
(7.85426 -0.0923391 0)
(7.86664 -0.106297 0)
(7.8786 -0.121009 0)
(7.89004 -0.136528 0)
(7.90084 -0.152886 0)
(7.91086 -0.170087 0)
(7.91993 -0.188097 0)
(7.92791 -0.206826 0)
(7.93459 -0.226133 0)
(7.93992 -0.24578 0)
(7.3355 0.0276977 0)
(7.35942 0.0758044 0)
(7.40089 0.103333 0)
(7.44362 0.113463 0)
(7.48147 0.11334 0)
(7.5149 0.106863 0)
(7.54411 0.0967549 0)
(7.56949 0.0850438 0)
(7.59192 0.0728024 0)
(7.61218 0.0605368 0)
(7.6308 0.0484974 0)
(7.64818 0.0367749 0)
(7.66462 0.0253633 0)
(7.68033 0.014211 0)
(7.69548 0.00324398 0)
(7.71015 -0.00762309 0)
(7.72445 -0.0184797 0)
(7.73841 -0.0294164 0)
(7.75208 -0.0405228 0)
(7.76546 -0.0518865 0)
(7.77857 -0.0635924 0)
(7.79139 -0.0757214 0)
(7.8039 -0.0883495 0)
(7.81606 -0.101546 0)
(7.82781 -0.115371 0)
(7.83909 -0.129876 0)
(7.8498 -0.145093 0)
(7.85985 -0.161038 0)
(7.86912 -0.177693 0)
(7.87748 -0.195011 0)
(7.88483 -0.212895 0)
(7.89102 -0.23121 0)
(7.89605 -0.249751 0)
(7.33488 0.0220041 0)
(7.35351 0.0611559 0)
(7.38722 0.0851997 0)
(7.4238 0.0951692 0)
(7.45762 0.0961194 0)
(7.48839 0.0912051 0)
(7.51599 0.0826663 0)
(7.5405 0.0722685 0)
(7.56249 0.0610582 0)
(7.58255 0.04958 0)
(7.60108 0.0381265 0)
(7.61843 0.0268317 0)
(7.63484 0.0157278 0)
(7.65051 0.00479202 0)
(7.66558 -0.00602688 0)
(7.68014 -0.0167967 0)
(7.69426 -0.0275931 0)
(7.70801 -0.0384945 0)
(7.72139 -0.04958 0)
(7.73445 -0.060927 0)
(7.74716 -0.0726103 0)
(7.75952 -0.0847002 0)
(7.77152 -0.0972613 0)
(7.7831 -0.110351 0)
(7.79423 -0.124016 0)
(7.80483 -0.138291 0)
(7.81485 -0.153196 0)
(7.82418 -0.168727 0)
(7.83276 -0.184859 0)
(7.84047 -0.201533 0)
(7.84725 -0.218659 0)
(7.853 -0.236111 0)
(7.85776 -0.253721 0)
(7.33445 0.0174575 0)
(7.3492 0.0490379 0)
(7.37683 0.0694953 0)
(7.4082 0.0786977 0)
(7.4384 0.0801143 0)
(7.46666 0.0762375 0)
(7.49264 0.0688894 0)
(7.5162 0.0595675 0)
(7.53766 0.0492407 0)
(7.55742 0.038456 0)
(7.57579 0.0275277 0)
(7.59304 0.0166204 0)
(7.60938 0.00579792 0)
(7.62497 -0.00493614 0)
(7.63994 -0.0156117 0)
(7.65436 -0.0262793 0)
(7.6683 -0.0370007 0)
(7.68181 -0.047843 0)
(7.69491 -0.0588751 0)
(7.70762 -0.070165 0)
(7.71994 -0.0817779 0)
(7.73185 -0.0937748 0)
(7.74333 -0.10621 0)
(7.75436 -0.11913 0)
(7.76488 -0.13257 0)
(7.77485 -0.146555 0)
(7.7842 -0.161092 0)
(7.79288 -0.176171 0)
(7.8008 -0.191758 0)
(7.80792 -0.207798 0)
(7.81418 -0.224204 0)
(7.81952 -0.240872 0)
(7.824 -0.257664 0)
(7.33415 0.0137521 0)
(7.34603 0.0389008 0)
(7.36889 0.0558282 0)
(7.3959 0.0638379 0)
(7.42287 0.0652359 0)
(7.44881 0.0619427 0)
(7.4732 0.0554239 0)
(7.49577 0.0469279 0)
(7.51663 0.0373249 0)
(7.53603 0.0271427 0)
(7.55419 0.0166999 0)
(7.57131 0.00617709 0)
(7.58755 -0.00434236 0)
(7.60303 -0.0148365 0)
(7.61787 -0.0253204 0)
(7.63214 -0.0358314 0)
(7.64588 -0.0464203 0)
(7.65914 -0.0571446 0)
(7.67195 -0.068064 0)
(7.68431 -0.0792381 0)
(7.69622 -0.0907233 0)
(7.70767 -0.102572 0)
(7.71865 -0.114829 0)
(7.72912 -0.127531 0)
(7.73906 -0.140706 0)
(7.74841 -0.154369 0)
(7.75713 -0.168519 0)
(7.76518 -0.183141 0)
(7.77249 -0.1982 0)
(7.77905 -0.213643 0)
(7.78481 -0.229396 0)
(7.78975 -0.245369 0)
(7.79393 -0.261456 0)
(7.33394 0.0106729 0)
(7.34366 0.0303143 0)
(7.36279 0.0438546 0)
(7.38618 0.0503841 0)
(7.41032 0.0513854 0)
(7.43414 0.0483045 0)
(7.45704 0.042306 0)
(7.47861 0.0344145 0)
(7.49883 0.0253885 0)
(7.51783 0.015716 0)
(7.53573 0.00570414 0)
(7.55267 -0.00446357 0)
(7.56877 -0.0146928 0)
(7.58412 -0.0249488 0)
(7.59881 -0.0352342 0)
(7.6129 -0.0455752 0)
(7.62643 -0.0560122 0)
(7.63943 -0.0665935 0)
(7.65193 -0.0773703 0)
(7.66394 -0.0883937 0)
(7.67544 -0.0997125 0)
(7.68645 -0.111371 0)
(7.69693 -0.123406 0)
(7.70687 -0.135847 0)
(7.71623 -0.148715 0)
(7.72499 -0.162018 0)
(7.73312 -0.175752 0)
(7.74057 -0.189898 0)
(7.74731 -0.204424 0)
(7.75333 -0.219283 0)
(7.75861 -0.234411 0)
(7.76314 -0.24974 0)
(7.76699 -0.265185 0)
(7.33378 0.00806551 0)
(7.34187 0.0229413 0)
(7.35808 0.0332763 0)
(7.37849 0.0381417 0)
(7.40019 0.038455 0)
(7.42212 0.0352802 0)
(7.44361 0.0295303 0)
(7.46422 0.0220339 0)
(7.4838 0.0134365 0)
(7.50237 0.00417595 0)
(7.51998 -0.00546184 0)
(7.53672 -0.015299 0)
(7.55265 -0.0252377 0)
(7.56785 -0.0352363 0)
(7.58238 -0.0452899 0)
(7.59628 -0.0554171 0)
(7.60958 -0.0656509 0)
(7.62232 -0.0760327 0)
(7.63451 -0.086607 0)
(7.64616 -0.0974186 0)
(7.65726 -0.10851 0)
(7.66782 -0.119918 0)
(7.67781 -0.131674 0)
(7.68723 -0.143802 0)
(7.69604 -0.156318 0)
(7.70424 -0.169224 0)
(7.71178 -0.182515 0)
(7.71866 -0.196173 0)
(7.72485 -0.210168 0)
(7.73035 -0.22446 0)
(7.73515 -0.238998 0)
(7.73925 -0.253727 0)
(7.74273 -0.268585 0)
(7.33366 0.00581643 0)
(7.34052 0.0165159 0)
(7.35445 0.0238358 0)
(7.37241 0.0269261 0)
(7.39204 0.0263292 0)
(7.41231 0.0228115 0)
(7.43254 0.0170787 0)
(7.45224 0.00979138 0)
(7.47119 0.00148667 0)
(7.48933 -0.00745468 0)
(7.50664 -0.0167764 0)
(7.52316 -0.0263143 0)
(7.53891 -0.0359747 0)
(7.55394 -0.0457148 0)
(7.5683 -0.0555258 0)
(7.582 -0.0654211 0)
(7.59507 -0.0754284 0)
(7.60754 -0.0855832 0)
(7.61942 -0.0959243 0)
(7.63071 -0.106491 0)
(7.64142 -0.117319 0)
(7.65153 -0.12844 0)
(7.66105 -0.139882 0)
(7.66996 -0.151663 0)
(7.67824 -0.163794 0)
(7.68589 -0.176277 0)
(7.69288 -0.189104 0)
(7.69921 -0.202261 0)
(7.70486 -0.21572 0)
(7.70984 -0.229449 0)
(7.71416 -0.243408 0)
(7.71783 -0.257556 0)
(7.7209 -0.271846 0)
(7.33357 0.00384027 0)
(7.33949 0.0108266 0)
(7.35164 0.0153106 0)
(7.36764 0.0165639 0)
(7.38553 0.014889 0)
(7.40436 0.0108276 0)
(7.42347 0.0049166 0)
(7.44235 -0.00232501 0)
(7.46072 -0.0104601 0)
(7.47844 -0.0191669 0)
(7.49546 -0.0282236 0)
(7.51175 -0.0374854 0)
(7.52732 -0.0468679 0)
(7.54218 -0.0563314 0)
(7.55635 -0.0658672 0)
(7.56985 -0.0754871 0)
(7.58269 -0.0852159 0)
(7.59489 -0.0950859 0)
(7.60646 -0.105132 0)
(7.6174 -0.115389 0)
(7.62771 -0.12589 0)
(7.6374 -0.136663 0)
(7.64645 -0.147731 0)
(7.65487 -0.15911 0)
(7.66264 -0.170807 0)
(7.66976 -0.182826 0)
(7.67621 -0.195158 0)
(7.68201 -0.207789 0)
(7.68714 -0.2207 0)
(7.69161 -0.233862 0)
(7.69544 -0.247246 0)
(7.69864 -0.260822 0)
(7.70128 -0.274553 0)
(7.3335 0.00207086 0)
(7.33871 0.00570259 0)
(7.34949 0.0075072 0)
(7.36393 0.00689084 0)
(7.38039 0.00401023 0)
(7.39802 -0.000758933 0)
(7.41618 -0.00701449 0)
(7.43433 -0.0143563 0)
(7.45218 -0.0224374 0)
(7.46953 -0.0309954 0)
(7.48628 -0.0398458 0)
(7.50236 -0.0488678 0)
(7.51776 -0.0579909 0)
(7.53245 -0.0671827 0)
(7.54645 -0.0764379 0)
(7.55975 -0.0857691 0)
(7.57236 -0.0952003 0)
(7.5843 -0.104762 0)
(7.59556 -0.114486 0)
(7.60616 -0.124405 0)
(7.61609 -0.134548 0)
(7.62536 -0.144941 0)
(7.63396 -0.155603 0)
(7.64191 -0.166549 0)
(7.64918 -0.177786 0)
(7.65578 -0.189314 0)
(7.66172 -0.201129 0)
(7.66699 -0.213219 0)
(7.6716 -0.225566 0)
(7.67556 -0.238151 0)
(7.6789 -0.250951 0)
(7.68162 -0.263943 0)
(7.68379 -0.277102 0)
(7.33345 0.00045471 0)
(7.33812 0.0010019 0)
(7.34786 0.000254561 0)
(7.36108 -0.00224826 0)
(7.37641 -0.00643193 0)
(7.39307 -0.0120386 0)
(7.41044 -0.018772 0)
(7.428 -0.0263296 0)
(7.4454 -0.0344442 0)
(7.46244 -0.0429103 0)
(7.47895 -0.0515827 0)
(7.49485 -0.0603677 0)
(7.51009 -0.0692128 0)
(7.52463 -0.0780971 0)
(7.53846 -0.0870225 0)
(7.55157 -0.0960058 0)
(7.56396 -0.105073 0)
(7.57564 -0.114255 0)
(7.58661 -0.123584 0)
(7.59687 -0.133091 0)
(7.60643 -0.142805 0)
(7.6153 -0.152748 0)
(7.62347 -0.16294 0)
(7.63095 -0.173394 0)
(7.63774 -0.184116 0)
(7.64385 -0.195108 0)
(7.64928 -0.206366 0)
(7.65404 -0.217881 0)
(7.65815 -0.229639 0)
(7.66161 -0.241626 0)
(7.66444 -0.253825 0)
(7.66667 -0.266218 0)
(7.66835 -0.278788 0)
(7.33341 -0.00105133 0)
(7.3377 -0.00339521 0)
(7.34667 -0.00660167 0)
(7.35898 -0.0110064 0)
(7.37345 -0.0165755 0)
(7.38937 -0.0231335 0)
(7.40614 -0.0304674 0)
(7.42324 -0.0383568 0)
(7.44032 -0.0466053 0)
(7.45712 -0.0550614 0)
(7.47346 -0.0636197 0)
(7.48924 -0.072215 0)
(7.50436 -0.0808151 0)
(7.51878 -0.0894127 0)
(7.53246 -0.0980188 0)
(7.54541 -0.106656 0)
(7.5576 -0.115354 0)
(7.56904 -0.124145 0)
(7.57973 -0.133062 0)
(7.58967 -0.142137 0)
(7.59888 -0.151397 0)
(7.60735 -0.160864 0)
(7.6151 -0.170558 0)
(7.62213 -0.180491 0)
(7.62846 -0.19067 0)
(7.63408 -0.201098 0)
(7.63902 -0.211771 0)
(7.64328 -0.222685 0)
(7.64688 -0.233828 0)
(7.64983 -0.245189 0)
(7.65216 -0.256756 0)
(7.65388 -0.268517 0)
(7.65505 -0.280456 0)
(7.33339 -0.00248587 0)
(7.3374 -0.00759537 0)
(7.34584 -0.0132033 0)
(7.35752 -0.0195273 0)
(7.37139 -0.0265451 0)
(7.38679 -0.0341352 0)
(7.40314 -0.0421473 0)
(7.41994 -0.0504281 0)
(7.4368 -0.0588436 0)
(7.45345 -0.0672942 0)
(7.46969 -0.0757157 0)
(7.48538 -0.0840753 0)
(7.50042 -0.0923651 0)
(7.51475 -0.100597 0)
(7.52832 -0.108794 0)
(7.54112 -0.11699 0)
(7.55313 -0.12522 0)
(7.56435 -0.133523 0)
(7.57477 -0.141933 0)
(7.58442 -0.150483 0)
(7.59329 -0.159202 0)
(7.60139 -0.168113 0)
(7.60874 -0.177234 0)
(7.61535 -0.186579 0)
(7.62123 -0.196156 0)
(7.62639 -0.205967 0)
(7.63085 -0.216011 0)
(7.63462 -0.226284 0)
(7.63773 -0.236779 0)
(7.64018 -0.247486 0)
(7.64202 -0.258396 0)
(7.64324 -0.2695 0)
(7.64391 -0.280784 0)
(7.33337 -0.00388515 0)
(7.33722 -0.0116998 0)
(7.34534 -0.0196943 0)
(7.35665 -0.0279776 0)
(7.37018 -0.036524 0)
(7.38531 -0.0452494 0)
(7.40147 -0.0540547 0)
(7.41815 -0.0628441 0)
(7.43496 -0.0715395 0)
(7.4516 -0.0800888 0)
(7.46786 -0.0884667 0)
(7.48356 -0.096671 0)
(7.4986 -0.104718 0)
(7.51289 -0.112637 0)
(7.5264 -0.120466 0)
(7.53909 -0.128249 0)
(7.55095 -0.136029 0)
(7.56197 -0.143848 0)
(7.57216 -0.151748 0)
(7.58152 -0.159762 0)
(7.59006 -0.167923 0)
(7.59781 -0.176254 0)
(7.60477 -0.184775 0)
(7.61096 -0.193501 0)
(7.61639 -0.202441 0)
(7.6211 -0.211599 0)
(7.62508 -0.220975 0)
(7.62838 -0.230567 0)
(7.63099 -0.24037 0)
(7.63295 -0.250376 0)
(7.63428 -0.260578 0)
(7.635 -0.270969 0)
(7.63514 -0.281536 0)
(7.33336 -0.00528258 0)
(7.33715 -0.0158028 0)
(7.34515 -0.0262038 0)
(7.35633 -0.036485 0)
(7.36975 -0.046601 0)
(7.38483 -0.0564872 0)
(7.401 -0.0660834 0)
(7.41773 -0.075345 0)
(7.43462 -0.0842488 0)
(7.45135 -0.0927942 0)
(7.46771 -0.101001 0)
(7.48349 -0.108906 0)
(7.49859 -0.116555 0)
(7.51291 -0.124002 0)
(7.5264 -0.131306 0)
(7.53903 -0.138522 0)
(7.55077 -0.145706 0)
(7.56163 -0.152907 0)
(7.57161 -0.16017 0)
(7.58072 -0.167535 0)
(7.58897 -0.175034 0)
(7.59639 -0.182694 0)
(7.60299 -0.190535 0)
(7.60879 -0.198572 0)
(7.61382 -0.206814 0)
(7.6181 -0.215268 0)
(7.62164 -0.223934 0)
(7.62447 -0.23281 0)
(7.62662 -0.241892 0)
(7.62811 -0.251174 0)
(7.62896 -0.260649 0)
(7.62919 -0.270311 0)
(7.62885 -0.280147 0)
(7.33337 -0.00671497 0)
(7.33719 -0.0200154 0)
(7.34528 -0.0329129 0)
(7.3566 -0.0453065 0)
(7.37023 -0.0571336 0)
(7.38556 -0.0683477 0)
(7.40202 -0.0789218 0)
(7.41907 -0.0888543 0)
(7.43628 -0.0981669 0)
(7.45332 -0.106901 0)
(7.46993 -0.115114 0)
(7.48594 -0.122873 0)
(7.5012 -0.130256 0)
(7.51563 -0.137337 0)
(7.52916 -0.144195 0)
(7.54177 -0.150902 0)
(7.55343 -0.157525 0)
(7.56416 -0.164123 0)
(7.57394 -0.170751 0)
(7.58281 -0.177452 0)
(7.59078 -0.184265 0)
(7.59787 -0.191219 0)
(7.60412 -0.198338 0)
(7.60953 -0.205638 0)
(7.61415 -0.213131 0)
(7.61799 -0.220823 0)
(7.62109 -0.228718 0)
(7.62346 -0.236814 0)
(7.62514 -0.245108 0)
(7.62615 -0.253594 0)
(7.62652 -0.262265 0)
(7.62625 -0.271116 0)
(7.62541 -0.280133 0)
(7.33338 -0.00822015 0)
(7.33734 -0.0244324 0)
(7.3457 -0.0399205 0)
(7.35739 -0.054462 0)
(7.37144 -0.0679613 0)
(7.38724 -0.0803833 0)
(7.40419 -0.0917402 0)
(7.42172 -0.102089 0)
(7.43939 -0.111515 0)
(7.45687 -0.120123 0)
(7.47388 -0.128023 0)
(7.49022 -0.135329 0)
(7.50575 -0.142154 0)
(7.52038 -0.148603 0)
(7.53405 -0.154774 0)
(7.54672 -0.160757 0)
(7.55838 -0.16663 0)
(7.56903 -0.172463 0)
(7.57869 -0.178313 0)
(7.58738 -0.184231 0)
(7.59511 -0.190256 0)
(7.60193 -0.196419 0)
(7.60786 -0.202746 0)
(7.61294 -0.209253 0)
(7.61718 -0.215953 0)
(7.62063 -0.222852 0)
(7.62332 -0.229953 0)
(7.62527 -0.237255 0)
(7.62652 -0.244754 0)
(7.62709 -0.252446 0)
(7.62701 -0.260322 0)
(7.6263 -0.268377 0)
(7.62501 -0.276595 0)
(7.33341 -0.00985116 0)
(7.33765 -0.0292405 0)
(7.34659 -0.0476028 0)
(7.35905 -0.0646148 0)
(7.37399 -0.0801664 0)
(7.39072 -0.0942289 0)
(7.40859 -0.10683 0)
(7.427 -0.118055 0)
(7.44547 -0.128029 0)
(7.46364 -0.136894 0)
(7.48124 -0.144805 0)
(7.49806 -0.151917 0)
(7.51397 -0.158379 0)
(7.52887 -0.164333 0)
(7.54271 -0.169904 0)
(7.55546 -0.175207 0)
(7.56713 -0.18034 0)
(7.57771 -0.185387 0)
(7.58723 -0.19042 0)
(7.59572 -0.195496 0)
(7.60321 -0.200662 0)
(7.60974 -0.205955 0)
(7.61535 -0.211403 0)
(7.62007 -0.217025 0)
(7.62393 -0.222834 0)
(7.62698 -0.228839 0)
(7.62925 -0.235042 0)
(7.63077 -0.241444 0)
(7.63157 -0.248039 0)
(7.63169 -0.254823 0)
(7.63116 -0.261787 0)
(7.62999 -0.268922 0)
(7.62823 -0.276213 0)
(7.33344 -0.0116529 0)
(7.33803 -0.0344835 0)
(7.34771 -0.0557954 0)
(7.36112 -0.0751083 0)
(7.3771 -0.0923061 0)
(7.39492 -0.107419 0)
(7.41389 -0.120566 0)
(7.43337 -0.131935 0)
(7.45286 -0.141745 0)
(7.47195 -0.150218 0)
(7.49038 -0.157568 0)
(7.50791 -0.163998 0)
(7.52441 -0.169694 0)
(7.53978 -0.17482 0)
(7.55397 -0.179524 0)
(7.56697 -0.183934 0)
(7.57878 -0.188158 0)
(7.58941 -0.192289 0)
(7.5989 -0.196403 0)
(7.60729 -0.200561 0)
(7.61461 -0.204814 0)
(7.62093 -0.2092 0)
(7.62627 -0.213748 0)
(7.63069 -0.218478 0)
(7.63422 -0.223403 0)
(7.63692 -0.228532 0)
(7.63882 -0.233866 0)
(7.63996 -0.239405 0)
(7.64037 -0.245145 0)
(7.6401 -0.251078 0)
(7.63917 -0.257196 0)
(7.63761 -0.263489 0)
(7.63548 -0.269939 0)
(7.33352 -0.0137442 0)
(7.33883 -0.0407043 0)
(7.34992 -0.0658063 0)
(7.36513 -0.0884483 0)
(7.38301 -0.108472 0)
(7.40271 -0.125856 0)
(7.42343 -0.140694 0)
(7.44447 -0.153197 0)
(7.4653 -0.163638 0)
(7.48553 -0.172309 0)
(7.5049 -0.179501 0)
(7.52319 -0.185491 0)
(7.54028 -0.190529 0)
(7.55609 -0.194839 0)
(7.5706 -0.198614 0)
(7.58379 -0.202017 0)
(7.59569 -0.205185 0)
(7.60633 -0.208232 0)
(7.61574 -0.211247 0)
(7.62399 -0.214303 0)
(7.63112 -0.217456 0)
(7.63718 -0.220747 0)
(7.64224 -0.224209 0)
(7.64633 -0.227861 0)
(7.64952 -0.231718 0)
(7.65186 -0.235786 0)
(7.65337 -0.240068 0)
(7.65412 -0.244561 0)
(7.65413 -0.24926 0)
(7.65345 -0.254155 0)
(7.65211 -0.259237 0)
(7.65015 -0.264494 0)
(7.64759 -0.269905 0)
(7.33355 -0.0161345 0)
(7.33944 -0.0474178 0)
(7.35182 -0.0757543 0)
(7.36869 -0.100453 0)
(7.38846 -0.121594 0)
(7.4102 -0.139419 0)
(7.43302 -0.154232 0)
(7.4561 -0.166403 0)
(7.47883 -0.176309 0)
(7.50078 -0.184301 0)
(7.52164 -0.190709 0)
(7.5412 -0.195835 0)
(7.55934 -0.199947 0)
(7.57599 -0.203283 0)
(7.59114 -0.206049 0)
(7.6048 -0.208418 0)
(7.61701 -0.210539 0)
(7.62784 -0.212533 0)
(7.63733 -0.214498 0)
(7.64557 -0.216512 0)
(7.65261 -0.218636 0)
(7.65852 -0.220915 0)
(7.66338 -0.223383 0)
(7.66723 -0.22606 0)
(7.67015 -0.228962 0)
(7.67219 -0.232094 0)
(7.67339 -0.235459 0)
(7.67381 -0.239052 0)
(7.6735 -0.242867 0)
(7.67248 -0.246895 0)
(7.67082 -0.251123 0)
(7.66853 -0.255538 0)
(7.66569 -0.260117 0)
(7.3338 -0.0192687 0)
(7.34164 -0.0570662 0)
(7.35732 -0.0916097 0)
(7.37785 -0.121813 0)
(7.40105 -0.147459 0)
(7.42584 -0.168584 0)
(7.45128 -0.1855 0)
(7.47657 -0.198738 0)
(7.50115 -0.208869 0)
(7.52465 -0.216445 0)
(7.5468 -0.221973 0)
(7.56742 -0.225902 0)
(7.58641 -0.228618 0)
(7.60373 -0.230443 0)
(7.61939 -0.231641 0)
(7.63341 -0.23243 0)
(7.64585 -0.232983 0)
(7.65677 -0.233437 0)
(7.66627 -0.233898 0)
(7.6744 -0.234447 0)
(7.68126 -0.235144 0)
(7.68693 -0.236033 0)
(7.69148 -0.237144 0)
(7.69497 -0.238495 0)
(7.69749 -0.240096 0)
(7.69909 -0.241951 0)
(7.69983 -0.244058 0)
(7.69976 -0.246412 0)
(7.69893 -0.249003 0)
(7.69739 -0.251822 0)
(7.69518 -0.254853 0)
(7.69235 -0.258083 0)
(7.68892 -0.261483 0)
(7.33369 -0.022661 0)
(7.34197 -0.0653195 0)
(7.35957 -0.101893 0)
(7.38307 -0.13237 0)
(7.40997 -0.157675 0)
(7.4389 -0.178322 0)
(7.4685 -0.194778 0)
(7.49765 -0.207592 0)
(7.52567 -0.217288 0)
(7.5521 -0.224355 0)
(7.57665 -0.229258 0)
(7.59917 -0.232429 0)
(7.6196 -0.234254 0)
(7.63796 -0.235071 0)
(7.65431 -0.23517 0)
(7.66872 -0.234795 0)
(7.6813 -0.234145 0)
(7.69217 -0.233379 0)
(7.70143 -0.232625 0)
(7.7092 -0.231977 0)
(7.71559 -0.231505 0)
(7.72071 -0.23126 0)
(7.72464 -0.231273 0)
(7.72747 -0.231566 0)
(7.7293 -0.232146 0)
(7.73019 -0.233015 0)
(7.7302 -0.234171 0)
(7.72941 -0.235603 0)
(7.72786 -0.237303 0)
(7.72563 -0.239258 0)
(7.72275 -0.241452 0)
(7.71928 -0.24387 0)
(7.71529 -0.246476 0)
(7.3348 -0.0289548 0)
(7.34934 -0.0857973 0)
(7.37464 -0.135422 0)
(7.40446 -0.17599 0)
(7.43606 -0.207849 0)
(7.46866 -0.231801 0)
(7.50117 -0.249094 0)
(7.53265 -0.261057 0)
(7.56252 -0.26882 0)
(7.59042 -0.273334 0)
(7.61607 -0.275391 0)
(7.63937 -0.275629 0)
(7.66031 -0.274558 0)
(7.67893 -0.272585 0)
(7.69534 -0.270028 0)
(7.70968 -0.267139 0)
(7.72208 -0.264115 0)
(7.73271 -0.261103 0)
(7.74172 -0.258219 0)
(7.74926 -0.255544 0)
(7.75546 -0.253137 0)
(7.76045 -0.251037 0)
(7.76434 -0.249266 0)
(7.76723 -0.247836 0)
(7.76921 -0.246748 0)
(7.77037 -0.245999 0)
(7.77077 -0.245581 0)
(7.77048 -0.245483 0)
(7.76955 -0.245695 0)
(7.76803 -0.246205 0)
(7.76598 -0.247003 0)
(7.76345 -0.248078 0)
(7.76047 -0.249391 0)
(7.33378 -0.0326758 0)
(7.34746 -0.0891269 0)
(7.37718 -0.133991 0)
(7.41455 -0.171416 0)
(7.45472 -0.202673 0)
(7.49543 -0.227424 0)
(7.5348 -0.246095 0)
(7.57187 -0.259436 0)
(7.60639 -0.268179 0)
(7.63832 -0.27311 0)
(7.66772 -0.275024 0)
(7.69475 -0.274649 0)
(7.71958 -0.272617 0)
(7.74238 -0.269459 0)
(7.76331 -0.265605 0)
(7.78249 -0.261394 0)
(7.80006 -0.257085 0)
(7.81613 -0.252871 0)
(7.8308 -0.248888 0)
(7.84417 -0.245232 0)
(7.85634 -0.241961 0)
(7.86738 -0.23911 0)
(7.87738 -0.236691 0)
(7.8864 -0.234703 0)
(7.89449 -0.233133 0)
(7.90173 -0.231965 0)
(7.90815 -0.231178 0)
(7.9138 -0.230749 0)
(7.91871 -0.230664 0)
(7.92293 -0.230908 0)
(7.9265 -0.23148 0)
(7.92948 -0.232375 0)
(7.93195 -0.233576 0)
(7.3389 -0.0550979 0)
(7.37164 -0.153733 0)
(7.41379 -0.224394 0)
(7.4565 -0.272781 0)
(7.50201 -0.305106 0)
(7.55129 -0.325376 0)
(7.60289 -0.337324 0)
(7.65574 -0.343656 0)
(7.70899 -0.346074 0)
(7.76161 -0.345734 0)
(7.81271 -0.343436 0)
(7.86159 -0.339737 0)
(7.90774 -0.33505 0)
(7.95083 -0.329689 0)
(7.99066 -0.323909 0)
(8.02716 -0.317917 0)
(8.06036 -0.311888 0)
(8.09035 -0.30596 0)
(8.11728 -0.300246 0)
(8.14132 -0.294829 0)
(8.16264 -0.289767 0)
(8.18145 -0.2851 0)
(8.19792 -0.280846 0)
(8.21224 -0.277011 0)
(8.22456 -0.273587 0)
(8.23503 -0.27056 0)
(8.24378 -0.267912 0)
(8.25092 -0.265625 0)
(8.25656 -0.263693 0)
(8.26077 -0.26211 0)
(8.26364 -0.260928 0)
(8.26524 -0.260146 0)
(8.26576 -0.259974 0)
(7.3375 -0.0409527 0)
(7.38816 -0.10748 0)
(7.47693 -0.166612 0)
(7.57804 -0.223997 0)
(7.68541 -0.273366 0)
(7.79388 -0.312351 0)
(7.89738 -0.341566 0)
(7.99233 -0.361664 0)
(8.07667 -0.373683 0)
(8.14922 -0.379054 0)
(8.2097 -0.379205 0)
(8.25843 -0.375426 0)
(8.29614 -0.368828 0)
(8.32377 -0.360329 0)
(8.34239 -0.350664 0)
(8.3531 -0.340403 0)
(8.35694 -0.329978 0)
(8.35488 -0.319704 0)
(8.3478 -0.309804 0)
(8.33648 -0.300426 0)
(8.32158 -0.291658 0)
(8.3037 -0.283545 0)
(8.28333 -0.276096 0)
(8.26089 -0.269294 0)
(8.23674 -0.263104 0)
(8.21116 -0.257477 0)
(8.1844 -0.252356 0)
(8.15663 -0.247683 0)
(8.128 -0.243406 0)
(8.09855 -0.239487 0)
(8.06845 -0.235993 0)
(8.03737 -0.232847 0)
(8.00605 -0.231087 0)
(7.39953 -0.197504 0)
(7.59564 -0.378181 0)
(7.76777 -0.462531 0)
(7.89362 -0.517943 0)
(7.97507 -0.548236 0)
(8.01009 -0.559217 0)
(8.00282 -0.557473 0)
(7.9616 -0.546325 0)
(7.89405 -0.528254 0)
(7.8068 -0.505511 0)
(7.70564 -0.479887 0)
(7.59536 -0.452777 0)
(7.47975 -0.425275 0)
(7.36169 -0.398199 0)
(7.24335 -0.372134 0)
(7.12629 -0.347471 0)
(7.01163 -0.324446 0)
(6.90008 -0.30318 0)
(6.7921 -0.283705 0)
(6.68795 -0.26599 0)
(6.58771 -0.249962 0)
(6.49139 -0.235519 0)
(6.3989 -0.222543 0)
(6.31012 -0.210902 0)
(6.2249 -0.200461 0)
(6.14307 -0.191081 0)
(6.06445 -0.182613 0)
(5.98886 -0.174918 0)
(5.91609 -0.167816 0)
(5.84584 -0.161154 0)
(5.7778 -0.154788 0)
(5.7111 -0.14789 0)
(5.64598 -0.143969 0)
(7.15993 -0.186357 0)
(6.90961 -0.346436 0)
(6.49616 -0.394419 0)
(6.02922 -0.396439 0)
(5.58497 -0.36876 0)
(5.16368 -0.325229 0)
(4.76949 -0.276786 0)
(4.40926 -0.229072 0)
(4.0836 -0.185097 0)
(3.79091 -0.146361 0)
(3.52923 -0.11328 0)
(3.29605 -0.0856763 0)
(3.08857 -0.0630745 0)
(2.90402 -0.0448533 0)
(2.73976 -0.0303591 0)
(2.59334 -0.0189727 0)
(2.46252 -0.0101402 0)
(2.34529 -0.00338337 0)
(2.23988 0.00170017 0)
(2.14471 0.00544365 0)
(2.05843 0.00812007 0)
(1.97984 0.00995152 0)
(1.90792 0.011119 0)
(1.8418 0.0117698 0)
(1.78072 0.0120299 0)
(1.72405 0.0120059 0)
(1.67124 0.0118179 0)
(1.62195 0.0115792 0)
(1.57565 0.011523 0)
(1.53268 0.0119332 0)
(1.49194 0.0132593 0)
(1.45597 0.0178535 0)
(1.42192 0.0137508 0)
(2.00329 -0.07062 0)
(2.34654 -0.0787357 0)
(2.70954 -0.157448 0)
(3.00763 -0.284206 0)
(3.21967 -0.398274 0)
(3.36346 -0.437946 0)
(3.46149 -0.372391 0)
(3.54482 -0.223946 0)
(3.64489 -0.0334494 0)
(3.89322 0.189936 0)