/*--------------------------------*- C++ -*----------------------------------*\
  =========                 |
  \\      /  F ield         | OpenFOAM: The Open Source CFD Toolbox
   \\    /   O peration     | Website:  https://openfoam.org
    \\  /    A nd           | Version:  10
     \\/     M anipulation  |
\*---------------------------------------------------------------------------*/
FoamFile
{
    format      ascii;
    class       volScalarField;
    location    "0.18";
    object      nut;
}
// * * * * * * * * * * * * * * * * * * * * * * * * * * * * * * * * * * * * * //

dimensions      [0 2 -1 0 0 0 0];

internalField   nonuniform List<scalar> 
6820
(
0.000503209
0.000397077
0.000324512
0.000269357
0.000236471
0.000214058
0.000197408
0.000184651
0.000174328
0.000165644
0.000158151
0.000151557
0.000145668
0.000140346
0.000135492
0.000131031
0.000126906
0.000123073
0.000119498
0.000116152
0.000113015
0.000110068
0.000107295
0.000104686
0.000102232
9.99247e-05
9.77535e-05
9.57193e-05
9.37931e-05
9.20263e-05
9.02774e-05
8.87716e-05
8.64925e-05
8.18502e-05
0.000143723
0.000196417
0.000210837
0.000206412
0.000197551
0.000187285
0.000177372
0.0001684
0.000160355
0.000153134
0.000146621
0.000140706
0.000135302
0.000130335
0.000125746
0.000121487
0.000117516
0.000113798
0.000110304
0.00010701
0.000103894
0.000100941
9.81325e-05
9.54558e-05
9.29026e-05
9.04627e-05
8.81284e-05
8.59082e-05
8.37671e-05
8.18152e-05
7.98556e-05
7.88039e-05
3.85916e-05
2.73974e-05
4.30464e-05
7.44683e-05
9.58867e-05
0.000109263
0.000116528
0.000119844
0.000120789
0.000120265
0.00011883
0.000116834
0.000114499
0.000111969
0.000109336
0.000106662
0.000103987
0.000101338
9.87322e-05
9.61813e-05
9.36917e-05
9.1267e-05
8.89089e-05
8.66175e-05
8.43918e-05
8.22313e-05
8.01346e-05
7.80993e-05
7.61287e-05
7.42268e-05
7.24049e-05
7.06678e-05
6.91305e-05
1.99684e-05
2.35322e-05
2.20744e-05
1.27921e-05
2.92696e-06
1.24396e-05
2.29808e-05
3.16632e-05
3.86687e-05
4.42484e-05
4.86419e-05
5.20615e-05
5.46792e-05
5.66322e-05
5.80392e-05
5.89974e-05
5.95862e-05
5.98707e-05
5.99045e-05
5.97314e-05
5.93875e-05
5.89023e-05
5.83003e-05
5.76018e-05
5.68234e-05
5.59792e-05
5.50827e-05
5.41436e-05
5.31741e-05
5.21845e-05
5.11863e-05
5.01992e-05
4.92641e-05
1.32446e-05
1.50886e-05
1.99373e-05
2.20303e-05
2.14763e-05
1.95286e-05
1.6894e-05
1.39385e-05
1.08774e-05
7.83932e-06
4.90925e-06
2.16817e-06
7.98103e-07
2.97593e-06
5.12728e-06
7.08172e-06
8.83401e-06
1.0391e-05
1.17629e-05
1.29616e-05
1.39991e-05
1.48872e-05
1.56374e-05
1.62606e-05
1.67665e-05
1.71648e-05
1.74643e-05
1.76745e-05
1.78031e-05
1.78621e-05
1.78581e-05
1.78086e-05
1.76795e-05
1.01903e-05
1.103e-05
1.18576e-05
1.26574e-05
1.32927e-05
1.38372e-05
1.42358e-05
1.44536e-05
1.45021e-05
1.44025e-05
1.4176e-05
1.38451e-05
1.34305e-05
1.29469e-05
1.24133e-05
1.18458e-05
1.12583e-05
1.06627e-05
1.0069e-05
9.48517e-06
8.91776e-06
8.37196e-06
7.85182e-06
7.36049e-06
6.90032e-06
6.47318e-06
6.07981e-06
5.72133e-06
5.39712e-06
5.11002e-06
4.85559e-06
4.65692e-06
4.52006e-06
7.53357e-06
8.26273e-06
8.69167e-06
8.92691e-06
8.82406e-06
8.62219e-06
8.46517e-06
8.38422e-06
8.37268e-06
8.40585e-06
8.4566e-06
8.50615e-06
8.54514e-06
8.57118e-06
8.58094e-06
8.57303e-06
8.54765e-06
8.50578e-06
8.44887e-06
8.37857e-06
8.29669e-06
8.20502e-06
8.10531e-06
7.99928e-06
7.88853e-06
7.77466e-06
7.65902e-06
7.5437e-06
7.43033e-06
7.3248e-06
7.23407e-06
7.18191e-06
7.18248e-06
5.74962e-06
6.62504e-06
7.02839e-06
7.14136e-06
6.89005e-06
6.5301e-06
6.20294e-06
5.93321e-06
5.71939e-06
5.55232e-06
5.41996e-06
5.31271e-06
5.2235e-06
5.14718e-06
5.0804e-06
5.02085e-06
4.96667e-06
4.91634e-06
4.8687e-06
4.82296e-06
4.77858e-06
4.73526e-06
4.69286e-06
4.65143e-06
4.61119e-06
4.57267e-06
4.53655e-06
4.50485e-06
4.48011e-06
4.46895e-06
4.47649e-06
4.51994e-06
4.6138e-06
4.47399e-06
5.26268e-06
5.56797e-06
5.72349e-06
5.64248e-06
5.43585e-06
5.19466e-06
4.95342e-06
4.73153e-06
4.53693e-06
4.36801e-06
4.22051e-06
4.09058e-06
3.97508e-06
3.87154e-06
3.77797e-06
3.6929e-06
3.61525e-06
3.54426e-06
3.4794e-06
3.4203e-06
3.36674e-06
3.31862e-06
3.27604e-06
3.23925e-06
3.20886e-06
3.18579e-06
3.17196e-06
3.16956e-06
3.18336e-06
3.21878e-06
3.28693e-06
3.40187e-06
3.54331e-06
4.25277e-06
4.54394e-06
4.71026e-06
4.67768e-06
4.51847e-06
4.32092e-06
4.12402e-06
3.9444e-06
3.78675e-06
3.64858e-06
3.52616e-06
3.41656e-06
3.31754e-06
3.22743e-06
3.14507e-06
3.06968e-06
3.00069e-06
2.93768e-06
2.88035e-06
2.82852e-06
2.78214e-06
2.74127e-06
2.70614e-06
2.67715e-06
2.65502e-06
2.64079e-06
2.63617e-06
2.64348e-06
2.6666e-06
2.70987e-06
2.77878e-06
2.88565e-06
2.85131e-06
3.47485e-06
3.74813e-06
3.90306e-06
3.90656e-06
3.80449e-06
3.66151e-06
3.50815e-06
3.35903e-06
3.22146e-06
3.09709e-06
2.98531e-06
2.885e-06
2.79487e-06
2.71373e-06
2.64056e-06
2.57453e-06
2.51497e-06
2.46137e-06
2.41337e-06
2.37076e-06
2.33346e-06
2.30151e-06
2.27513e-06
2.2547e-06
2.24089e-06
2.23465e-06
2.23744e-06
2.25114e-06
2.2783e-06
2.32204e-06
2.38422e-06
2.47633e-06
2.32326e-06
2.86646e-06
3.13777e-06
3.29774e-06
3.33373e-06
3.27053e-06
3.15807e-06
3.02723e-06
2.89532e-06
2.77158e-06
2.65904e-06
2.55778e-06
2.46696e-06
2.38553e-06
2.31242e-06
2.24672e-06
2.18772e-06
2.13485e-06
2.0877e-06
2.04597e-06
2.00945e-06
1.97807e-06
1.95186e-06
1.93097e-06
1.91573e-06
1.90667e-06
1.90454e-06
1.91038e-06
1.92555e-06
1.95156e-06
1.99061e-06
2.04224e-06
2.11707e-06
1.91055e-06
2.38554e-06
2.65819e-06
2.82168e-06
2.87787e-06
2.84471e-06
2.76209e-06
2.65793e-06
2.548e-06
2.441e-06
2.34069e-06
2.24831e-06
2.16411e-06
2.08785e-06
2.01905e-06
1.9572e-06
1.90181e-06
1.85244e-06
1.8087e-06
1.7703e-06
1.73701e-06
1.70871e-06
1.68537e-06
1.66705e-06
1.65397e-06
1.64647e-06
1.64503e-06
1.65031e-06
1.66314e-06
1.68424e-06
1.71506e-06
1.75378e-06
1.81036e-06
1.58041e-06
2.00013e-06
2.27541e-06
2.44632e-06
2.52133e-06
2.51454e-06
2.4567e-06
2.37264e-06
2.27791e-06
2.18198e-06
2.08988e-06
2.00391e-06
1.92499e-06
1.85327e-06
1.78849e-06
1.73025e-06
1.67812e-06
1.63169e-06
1.59059e-06
1.55453e-06
1.52327e-06
1.49665e-06
1.47458e-06
1.45704e-06
1.44413e-06
1.43598e-06
1.43286e-06
1.43509e-06
1.44309e-06
1.45703e-06
1.47791e-06
1.50326e-06
1.54248e-06
1.31042e-06
1.68787e-06
1.96631e-06
2.14593e-06
2.23598e-06
2.24957e-06
2.21181e-06
2.14534e-06
2.06528e-06
1.98107e-06
1.89804e-06
1.81896e-06
1.74518e-06
1.67725e-06
1.61524e-06
1.55903e-06
1.50836e-06
1.46296e-06
1.42254e-06
1.38682e-06
1.35558e-06
1.32862e-06
1.30578e-06
1.28697e-06
1.27212e-06
1.26124e-06
1.25438e-06
1.25158e-06
1.253e-06
1.25844e-06
1.26866e-06
1.281e-06
1.30419e-06
1.08497e-06
1.43223e-06
1.71413e-06
1.90322e-06
2.00689e-06
2.03825e-06
2.01833e-06
1.96734e-06
1.89967e-06
1.82472e-06
1.74831e-06
1.67383e-06
1.60322e-06
1.53743e-06
1.47685e-06
1.42154e-06
1.37136e-06
1.32609e-06
1.28545e-06
1.24918e-06
1.21701e-06
1.18869e-06
1.16402e-06
1.1428e-06
1.12486e-06
1.11008e-06
1.09834e-06
1.08949e-06
1.08351e-06
1.08006e-06
1.07974e-06
1.07998e-06
1.08893e-06
8.92988e-07
1.22118e-06
1.50728e-06
1.70601e-06
1.82194e-06
1.86827e-06
1.86335e-06
1.82547e-06
1.76847e-06
1.70178e-06
1.6315e-06
1.56142e-06
1.49378e-06
1.42983e-06
1.37017e-06
1.31502e-06
1.26439e-06
1.21813e-06
1.17604e-06
1.13787e-06
1.10338e-06
1.07229e-06
1.04434e-06
1.0193e-06
9.96912e-07
9.7695e-07
9.59194e-07
9.434e-07
9.29442e-07
9.1692e-07
9.06417e-07
8.95652e-07
8.92076e-07
7.26565e-07
1.04609e-06
1.33748e-06
1.54557e-06
1.67275e-06
1.73222e-06
1.74056e-06
1.71441e-06
1.66695e-06
1.6075e-06
1.54234e-06
1.47559e-06
1.40984e-06
1.34664e-06
1.28686e-06
1.23091e-06
1.17892e-06
1.13084e-06
1.0865e-06
1.04569e-06
1.00814e-06
9.73551e-07
9.4164e-07
9.121e-07
8.84627e-07
8.58915e-07
8.34677e-07
8.11613e-07
7.89554e-07
7.68127e-07
7.47928e-07
7.27053e-07
7.12382e-07
5.80207e-07
9.01129e-07
1.199e-06
1.41593e-06
1.55335e-06
1.62435e-06
1.64421e-06
1.62821e-06
1.58893e-06
1.53557e-06
1.47459e-06
1.4104e-06
1.34585e-06
1.28277e-06
1.22221e-06
1.16473e-06
1.1106e-06
1.05985e-06
1.01237e-06
9.67976e-07
9.26414e-07
8.87401e-07
8.50626e-07
8.15763e-07
7.82475e-07
7.50422e-07
7.19285e-07
6.88747e-07
6.58634e-07
6.28649e-07
5.99414e-07
5.6953e-07
5.45246e-07
4.50698e-07
7.82931e-07
1.08811e-06
1.31305e-06
1.45973e-06
1.54095e-06
1.57104e-06
1.56418e-06
1.53233e-06
1.48457e-06
1.42746e-06
1.36558e-06
1.30205e-06
1.23889e-06
1.17735e-06
1.11815e-06
1.06168e-06
1.00804e-06
9.57204e-07
9.09003e-07
8.63212e-07
8.19549e-07
7.77694e-07
7.37303e-07
6.98014e-07
6.59459e-07
6.21288e-07
5.83166e-07
5.44899e-07
5.06235e-07
4.67788e-07
4.28601e-07
3.94513e-07
3.38043e-07
6.90505e-07
1.00268e-06
1.23438e-06
1.38912e-06
1.47922e-06
1.51814e-06
1.51905e-06
1.49336e-06
1.44998e-06
1.39555e-06
1.33482e-06
1.27114e-06
1.20676e-06
1.14315e-06
1.0812e-06
1.0214e-06
9.6398e-07
9.08962e-07
8.56248e-07
8.0564e-07
7.56878e-07
7.09651e-07
6.63614e-07
6.18398e-07
5.7362e-07
5.28902e-07
4.83877e-07
4.38288e-07
3.91866e-07
3.45047e-07
2.9729e-07
2.53681e-07
2.49103e-07
6.25111e-07
9.41951e-07
1.17874e-06
1.34037e-06
1.43838e-06
1.48535e-06
1.49362e-06
1.47404e-06
1.43534e-06
1.38416e-06
1.32535e-06
1.26245e-06
1.19785e-06
1.13315e-06
1.06939e-06
1.00717e-06
9.46802e-07
8.8839e-07
8.31891e-07
7.77161e-07
7.23975e-07
6.72057e-07
6.21085e-07
5.70702e-07
5.20529e-07
4.70169e-07
4.19209e-07
3.67271e-07
3.1391e-07
2.59045e-07
2.01762e-07
1.44747e-07
2.05244e-07
5.89591e-07
9.06024e-07
1.1455e-06
1.31228e-06
1.4165e-06
1.4697e-06
1.48336e-06
1.46782e-06
1.43163e-06
1.38146e-06
1.32237e-06
1.25808e-06
1.19121e-06
1.12357e-06
1.05638e-06
9.90368e-07
9.2598e-07
8.6341e-07
8.02693e-07
7.4375e-07
6.8642e-07
6.30482e-07
5.75677e-07
5.21718e-07
4.68302e-07
4.15125e-07
3.61892e-07
3.08365e-07
2.54356e-07
2.00012e-07
1.45784e-07
9.51258e-08
2.31028e-07
5.87073e-07
8.9608e-07
1.13586e-06
1.30683e-06
1.41714e-06
1.47713e-06
1.49742e-06
1.48777e-06
1.45641e-06
1.40992e-06
1.35334e-06
1.29046e-06
1.22401e-06
1.15596e-06
1.08765e-06
1.01996e-06
9.53467e-07
8.88507e-07
8.2524e-07
7.63714e-07
7.039e-07
6.45721e-07
5.89079e-07
5.33884e-07
4.8008e-07
4.27697e-07
3.76913e-07
3.28189e-07
2.82467e-07
2.41629e-07
2.08917e-07
1.89483e-07
3.13448e-07
6.18758e-07
9.12762e-07
1.14925e-06
1.32142e-06
1.43445e-06
1.49723e-06
1.51956e-06
1.51083e-06
1.47923e-06
1.43144e-06
1.37274e-06
1.30712e-06
1.23755e-06
1.16616e-06
1.09445e-06
1.02343e-06
9.53779e-07
8.85936e-07
8.20156e-07
7.5659e-07
6.95326e-07
6.36428e-07
5.79972e-07
5.26085e-07
4.74989e-07
4.2706e-07
3.82911e-07
3.43489e-07
3.10169e-07
2.8479e-07
2.69401e-07
2.65658e-07
4.27523e-07
6.84065e-07
9.58809e-07
1.19124e-06
1.36619e-06
1.48544e-06
1.55605e-06
1.58661e-06
1.58563e-06
1.5607e-06
1.51824e-06
1.46341e-06
1.40028e-06
1.33196e-06
1.26079e-06
1.1885e-06
1.11636e-06
1.04525e-06
9.75848e-07
9.08605e-07
8.43876e-07
7.81941e-07
7.23055e-07
6.67484e-07
6.15545e-07
5.67631e-07
5.24251e-07
4.86039e-07
4.53765e-07
4.28257e-07
4.10361e-07
4.00575e-07
3.99187e-07
5.63297e-07
7.80878e-07
1.03299e-06
1.25594e-06
1.42616e-06
1.54183e-06
1.60873e-06
1.63518e-06
1.62983e-06
1.60052e-06
1.55389e-06
1.49524e-06
1.42873e-06
1.3575e-06
1.2839e-06
1.20965e-06
1.13601e-06
1.06388e-06
9.93956e-07
9.26737e-07
8.62636e-07
8.02003e-07
7.45168e-07
6.92465e-07
6.44255e-07
6.00934e-07
5.62931e-07
5.30693e-07
5.04654e-07
4.85161e-07
4.72466e-07
4.6654e-07
4.67088e-07
7.19974e-07
9.09996e-07
1.14426e-06
1.36542e-06
1.54359e-06
1.67233e-06
1.75412e-06
1.79496e-06
1.80197e-06
1.78221e-06
1.74212e-06
1.68723e-06
1.6221e-06
1.55037e-06
1.4749e-06
1.39786e-06
1.32092e-06
1.24532e-06
1.17197e-06
1.10159e-06
1.03471e-06
9.71773e-07
9.13139e-07
8.59132e-07
8.10043e-07
7.66142e-07
7.27667e-07
6.94807e-07
6.67691e-07
6.4632e-07
6.30648e-07
6.20301e-07
6.14953e-07
9.01351e-07
1.07126e-06
1.28206e-06
1.48389e-06
1.64341e-06
1.75356e-06
1.81821e-06
1.8448e-06
1.8412e-06
1.81443e-06
1.77045e-06
1.71412e-06
1.64929e-06
1.57902e-06
1.50566e-06
1.43108e-06
1.35672e-06
1.28372e-06
1.21296e-06
1.14516e-06
1.08087e-06
1.02057e-06
9.64605e-07
9.13288e-07
8.6685e-07
8.25462e-07
7.89232e-07
7.58191e-07
7.32306e-07
7.11441e-07
6.95439e-07
6.8399e-07
6.76478e-07
1.1138e-06
1.27517e-06
1.48517e-06
1.70772e-06
1.90146e-06
2.04827e-06
2.14458e-06
2.19437e-06
2.20478e-06
2.18381e-06
2.13912e-06
2.07741e-06
2.00418e-06
1.92381e-06
1.83965e-06
1.75419e-06
1.66931e-06
1.58633e-06
1.50625e-06
1.42976e-06
1.35736e-06
1.2894e-06
1.22613e-06
1.16772e-06
1.11425e-06
1.06575e-06
1.0222e-06
9.83503e-07
9.49517e-07
9.19995e-07
8.94723e-07
8.73205e-07
8.5503e-07
1.36858e-06
1.51905e-06
1.6882e-06
1.85363e-06
1.98717e-06
2.08312e-06
2.14468e-06
2.17672e-06
2.18347e-06
2.1687e-06
2.13604e-06
2.08898e-06
2.03077e-06
1.9644e-06
1.89252e-06
1.81741e-06
1.74098e-06
1.66478e-06
1.59007e-06
1.51779e-06
1.44868e-06
1.38324e-06
1.32184e-06
1.2647e-06
1.21191e-06
1.16349e-06
1.11938e-06
1.07946e-06
1.04358e-06
1.01154e-06
9.83173e-07
9.58251e-07
9.35911e-07
1.6781e-06
1.84924e-06
2.08194e-06
2.35624e-06
2.59884e-06
2.7719e-06
2.8725e-06
2.91195e-06
2.90393e-06
2.86131e-06
2.79487e-06
2.71294e-06
2.62155e-06
2.52499e-06
2.42627e-06
2.32743e-06
2.22991e-06
2.13472e-06
2.04256e-06
1.95393e-06
1.8692e-06
1.78859e-06
1.71226e-06
1.64027e-06
1.57263e-06
1.50927e-06
1.4501e-06
1.39497e-06
1.34372e-06
1.29611e-06
1.25202e-06
1.21103e-06
1.17276e-06
2.07271e-06
2.20245e-06
2.27414e-06
2.35296e-06
2.44819e-06
2.55136e-06
2.64924e-06
2.72923e-06
2.78248e-06
2.80549e-06
2.79921e-06
2.76731e-06
2.7146e-06
2.64606e-06
2.56629e-06
2.47925e-06
2.38812e-06
2.29542e-06
2.20304e-06
2.11235e-06
2.02432e-06
1.93957e-06
1.85848e-06
1.78126e-06
1.70794e-06
1.63847e-06
1.57274e-06
1.51061e-06
1.45195e-06
1.39665e-06
1.34468e-06
1.29615e-06
1.24987e-06
2.57243e-06
2.8742e-06
3.29168e-06
3.71462e-06
3.9979e-06
4.1288e-06
4.15325e-06
4.11146e-06
4.02945e-06
3.92411e-06
3.80545e-06
3.67886e-06
3.5474e-06
3.4131e-06
3.27755e-06
3.14215e-06
3.00819e-06
2.87686e-06
2.74917e-06
2.62596e-06
2.50783e-06
2.3952e-06
2.28828e-06
2.18712e-06
2.09161e-06
2.00154e-06
1.91663e-06
1.83655e-06
1.761e-06
1.68968e-06
1.62251e-06
1.55943e-06
1.49998e-06
3.27451e-06
3.18122e-06
2.91014e-06
2.87269e-06
3.0682e-06
3.34914e-06
3.60806e-06
3.7967e-06
3.90453e-06
3.94276e-06
3.93089e-06
3.88799e-06
3.82942e-06
3.76604e-06
3.70459e-06
3.64855e-06
3.59913e-06
3.55618e-06
3.51879e-06
3.4858e-06
3.45601e-06
3.42834e-06
3.40186e-06
3.37579e-06
3.34953e-06
3.32254e-06
3.29443e-06
3.26487e-06
3.23371e-06
3.20097e-06
3.16698e-06
3.13315e-06
3.09798e-06
4.30889e-06
5.53277e-06
6.29069e-06
6.54129e-06
6.44536e-06
6.23486e-06
6.09893e-06
6.11959e-06
6.30214e-06
6.60718e-06
6.98125e-06
7.37749e-06
7.76204e-06
8.11328e-06
8.4193e-06
8.67513e-06
8.88034e-06
9.03722e-06
9.14955e-06
9.22186e-06
9.25883e-06
9.265e-06
9.2446e-06
9.20141e-06
9.13872e-06
9.05927e-06
8.96538e-06
8.85872e-06
8.74089e-06
8.6125e-06
8.47556e-06
8.33075e-06
8.18178e-06
5.63392e-06
3.57514e-06
2.75736e-06
4.625e-06
7.34683e-06
9.91528e-06
1.20954e-05
1.38236e-05
1.51129e-05
1.6006e-05
1.65509e-05
1.67969e-05
1.67926e-05
1.6584e-05
1.62124e-05
1.57147e-05
1.51229e-05
1.44638e-05
1.37601e-05
1.30299e-05
1.22879e-05
1.15454e-05
1.08111e-05
1.00914e-05
9.39054e-06
8.71137e-06
8.05534e-06
7.42228e-06
6.81197e-06
6.22038e-06
5.65e-06
5.08678e-06
4.55117e-06
1.14353e-05
1.65065e-05
1.82695e-05
1.97776e-05
2.02449e-05
1.94937e-05
1.77463e-05
1.52768e-05
1.24386e-05
9.76609e-06
8.13706e-06
8.48622e-06
1.05678e-05
1.34169e-05
1.64406e-05
1.9381e-05
2.21279e-05
2.46355e-05
2.68894e-05
2.88914e-05
3.0652e-05
3.21864e-05
3.35116e-05
3.46457e-05
3.56064e-05
3.64107e-05
3.7075e-05
3.76149e-05
3.80462e-05
3.83849e-05
3.86516e-05
3.8866e-05
3.90775e-05
2.48803e-05
2.86477e-05
3.89915e-05
5.34237e-05
6.7674e-05
8.15792e-05
9.44041e-05
0.000105544
0.000114955
0.000122713
0.000128927
0.000133753
0.000137361
0.000139916
0.000141571
0.000142464
0.000142719
0.000142442
0.000141726
0.00014065
0.000139281
0.000137676
0.000135882
0.00013394
0.000131882
0.000129734
0.000127521
0.000125256
0.000122959
0.000120631
0.000118291
0.000115944
0.000113808
0.000543316
0.000510563
0.000491577
0.00046787
0.000443829
0.000421476
0.000399972
0.000379383
0.000359979
0.000341778
0.000324765
0.000308927
0.000294219
0.000280578
0.000267933
0.000256209
0.000245332
0.000235228
0.000225827
0.000217063
0.000208875
0.000201209
0.000194013
0.000187243
0.000180857
0.00017482
0.000169096
0.000163657
0.000158458
0.000153503
0.000148623
0.000144386
0.000140479
7.73672e-05
6.72988e-05
5.84032e-05
5.30521e-05
5.06893e-05
5.20417e-05
5.56657e-05
6.03101e-05
6.66548e-05
7.5268e-05
8.42693e-05
9.50087e-05
9.77976e-05
7.71912e-05
6.71819e-05
6.57445e-05
6.29656e-05
5.90929e-05
5.50722e-05
5.16671e-05
4.92381e-05
4.79648e-05
4.74895e-05
4.73253e-05
4.77485e-05
4.79258e-05
4.78425e-05
4.8016e-05
4.75968e-05
4.49599e-05
3.96345e-05
3.22695e-05
2.42043e-05
1.7152e-05
1.28074e-05
1.19573e-05
1.33468e-05
1.53377e-05
1.71896e-05
1.86481e-05
1.95919e-05
1.99318e-05
1.9662e-05
1.89635e-05
1.81557e-05
1.74592e-05
1.68539e-05
1.62026e-05
1.54263e-05
1.45387e-05
1.35925e-05
1.26355e-05
1.17009e-05
1.08103e-05
9.97736e-06
9.20908e-06
8.50651e-06
7.86679e-06
7.28549e-06
6.75719e-06
6.2788e-06
5.86524e-06
5.55972e-06
5.39162e-06
5.38385e-06
5.82543e-06
7.19599e-06
1.01677e-05
1.7154e-05
2.68942e-05
3.48869e-05
3.91256e-05
4.00319e-05
3.81087e-05
3.33988e-05
2.64586e-05
1.81489e-05
8.96334e-06
3.33948e-06
1.49849e-05
2.98625e-05
4.26402e-05
4.74352e-05
4.29903e-05
3.32079e-05
2.29717e-05
1.50641e-05
1.00247e-05
7.281e-06
6.09905e-06
5.86799e-06
6.18933e-06
6.72452e-06
7.83474e-06
9.08788e-06
1.24682e-05
1.53683e-05
2.79433e-05
3.05225e-05
2.93229e-05
0.000101343
9.55346e-05
8.72523e-05
8.04197e-05
7.54409e-05
7.18413e-05
6.83525e-05
6.54986e-05
6.58397e-05
7.06617e-05
7.79981e-05
8.63487e-05
9.93974e-05
9.42267e-05
7.45266e-05
6.89153e-05
6.68093e-05
6.30677e-05
5.86105e-05
5.44807e-05
5.13816e-05
4.95708e-05
4.83016e-05
4.72563e-05
4.63987e-05
4.50001e-05
4.41922e-05
4.40761e-05
4.27692e-05
3.91452e-05
3.35881e-05
2.66955e-05
1.9474e-05
1.34925e-05
1.03228e-05
1.02452e-05
1.16805e-05
1.33383e-05
1.47758e-05
1.58658e-05
1.65593e-05
1.68683e-05
1.68981e-05
1.6809e-05
1.66953e-05
1.65234e-05
1.62063e-05
1.57021e-05
1.50335e-05
1.42519e-05
1.34073e-05
1.25387e-05
1.16759e-05
1.08408e-05
1.00489e-05
9.30872e-06
8.62356e-06
7.99313e-06
7.41623e-06
6.89152e-06
6.41941e-06
6.01676e-06
5.72986e-06
5.59573e-06
5.62634e-06
6.05381e-06
7.39881e-06
1.01881e-05
1.6863e-05
2.69995e-05
3.57488e-05
4.04491e-05
4.14731e-05
3.95192e-05
3.47236e-05
2.75505e-05
1.87493e-05
8.88161e-06
2.04542e-06
1.56443e-05
3.16455e-05
4.48164e-05
4.90496e-05
4.36526e-05
3.31983e-05
2.27937e-05
1.50557e-05
1.0235e-05
7.58096e-06
6.38267e-06
6.10443e-06
6.38338e-06
6.86336e-06
7.93849e-06
9.12185e-06
1.25856e-05
1.53048e-05
2.76952e-05
3.19012e-05
2.99237e-05
9.10422e-05
9.0467e-05
8.71615e-05
8.27049e-05
7.705e-05
7.02029e-05
6.24025e-05
5.56962e-05
5.36894e-05
5.73902e-05
6.43583e-05
7.20959e-05
8.46642e-05
9.65169e-05
8.46233e-05
7.11569e-05
6.76246e-05
6.46109e-05
6.03619e-05
5.59349e-05
5.24289e-05
5.00157e-05
4.80249e-05
4.62307e-05
4.37265e-05
4.08818e-05
3.99656e-05
3.96179e-05
3.74027e-05
3.362e-05
2.89062e-05
2.30103e-05
1.6707e-05
1.16825e-05
9.24652e-06
9.1419e-06
1.00203e-05
1.10885e-05
1.21253e-05
1.30681e-05
1.38828e-05
1.45606e-05
1.51108e-05
1.55273e-05
1.57713e-05
1.57994e-05
1.56005e-05
1.52e-05
1.46412e-05
1.39691e-05
1.32243e-05
1.24413e-05
1.16488e-05
1.08693e-05
1.01188e-05
9.40749e-06
8.74077e-06
8.12092e-06
7.54969e-06
7.02957e-06
6.5641e-06
6.1711e-06
5.89838e-06
5.78723e-06
5.84235e-06
6.2433e-06
7.54149e-06
1.01817e-05
1.64255e-05
2.68076e-05
3.63748e-05
4.16874e-05
4.29353e-05
4.10355e-05
3.62707e-05
2.90468e-05
2.00351e-05
1.02461e-05
4.8875e-06
1.75027e-05
3.43307e-05
4.75645e-05
5.08345e-05
4.42307e-05
3.30712e-05
2.25938e-05
1.51177e-05
1.05308e-05
7.92999e-06
6.67801e-06
6.3228e-06
6.53339e-06
6.95111e-06
8.00324e-06
9.12939e-06
1.26315e-05
1.52237e-05
2.722e-05
3.30171e-05
3.08616e-05
6.46739e-05
6.42667e-05
6.19584e-05
5.80484e-05
5.23309e-05
4.48976e-05
3.6922e-05
3.19014e-05
3.32243e-05
3.86305e-05
4.48199e-05
5.17043e-05
6.23266e-05
8.03824e-05
8.72975e-05
7.52182e-05
6.70746e-05
6.35658e-05
5.97927e-05
5.57214e-05
5.22679e-05
4.94909e-05
4.70139e-05
4.38587e-05
3.87754e-05
3.52859e-05
3.49635e-05
3.40374e-05
3.13891e-05
2.90114e-05
2.58868e-05
2.08289e-05
1.52253e-05
1.10274e-05
8.99849e-06
8.51396e-06
8.73406e-06
9.31585e-06
1.01569e-05
1.11599e-05
1.22072e-05
1.31896e-05
1.40189e-05
1.46316e-05
1.49949e-05
1.51097e-05
1.50012e-05
1.47042e-05
1.42548e-05
1.36884e-05
1.30394e-05
1.23397e-05
1.16168e-05
1.0893e-05
1.01849e-05
9.50399e-06
8.8574e-06
8.24983e-06
7.68579e-06
7.17136e-06
6.71351e-06
6.33061e-06
6.07249e-06
5.9853e-06
6.0651e-06
6.43357e-06
7.64533e-06
1.01576e-05
1.58991e-05
2.63943e-05
3.69018e-05
4.30534e-05
4.46568e-05
4.28519e-05
3.81445e-05
3.0937e-05
2.19105e-05
1.27108e-05
8.81472e-06
2.04765e-05
3.7793e-05
5.06478e-05
5.25351e-05
4.45698e-05
3.28124e-05
2.24557e-05
1.53499e-05
1.09762e-05
8.36444e-06
7.01566e-06
6.55815e-06
6.67458e-06
7.00839e-06
8.03399e-06
9.12269e-06
1.26348e-05
1.51719e-05
2.66068e-05
3.39755e-05
3.21504e-05
2.34318e-05
2.30094e-05
2.10173e-05
1.76216e-05
1.29211e-05
8.31081e-06
9.71553e-06
1.64805e-05
2.27877e-05
2.67416e-05
2.89575e-05
3.17608e-05
3.84379e-05
5.38343e-05
7.31247e-05
7.60708e-05
6.7314e-05
6.13986e-05
5.6989e-05
5.27612e-05
4.92434e-05
4.62204e-05
4.28448e-05
3.71489e-05
3.08671e-05
2.91313e-05
2.93226e-05
2.74346e-05
2.65568e-05
2.70419e-05
2.47359e-05
1.96869e-05
1.45136e-05
1.09248e-05
8.93652e-06
7.91989e-06
7.58276e-06
7.90213e-06
8.7612e-06
9.91582e-06
1.11306e-05
1.2241e-05
1.31506e-05
1.38165e-05
1.4235e-05
1.44243e-05
1.441e-05
1.42178e-05
1.3874e-05
1.34078e-05
1.28502e-05
1.22309e-05
1.15763e-05
1.0908e-05
1.02428e-05
9.59302e-06
8.96749e-06
8.37309e-06
7.81682e-06
7.30802e-06
6.85713e-06
6.4831e-06
6.23545e-06
6.16853e-06
6.27742e-06
6.62647e-06
7.72563e-06
1.01141e-05
1.52997e-05
2.56656e-05
3.71504e-05
4.44018e-05
4.6559e-05
4.49162e-05
4.02908e-05
3.31738e-05
2.43743e-05
1.60895e-05
1.3322e-05
2.46146e-05
4.20873e-05
5.3964e-05
5.39787e-05
4.4544e-05
3.23801e-05
2.23793e-05
1.57307e-05
1.15217e-05
8.83436e-06
7.35772e-06
6.78649e-06
6.8006e-06
7.04114e-06
8.03296e-06
9.09779e-06
1.25922e-05
1.51321e-05
2.58647e-05
3.46907e-05
3.35549e-05
6.20054e-06
7.32934e-06
9.08547e-06
1.13147e-05
1.39636e-05
1.69304e-05
1.98382e-05
2.20405e-05
2.30004e-05
2.2697e-05
2.19155e-05
2.18358e-05
2.42428e-05
3.23678e-05
4.84643e-05
6.39449e-05
6.54636e-05
5.94796e-05
5.38666e-05
4.85485e-05
4.35973e-05
3.91659e-05
3.37389e-05
2.68732e-05
2.33838e-05
2.3703e-05
2.22795e-05
2.17305e-05
2.5932e-05
2.7598e-05
2.42028e-05
1.87132e-05
1.39809e-05
1.07444e-05
8.53364e-06
7.03053e-06
6.3724e-06
6.67803e-06
7.67159e-06
8.94474e-06
1.0222e-05
1.13598e-05
1.22925e-05
1.29993e-05
1.34835e-05
1.37587e-05
1.38407e-05
1.37476e-05
1.35016e-05
1.31289e-05
1.26582e-05
1.21168e-05
1.15293e-05
1.09162e-05
1.02942e-05
9.67624e-06
9.07261e-06
8.49214e-06
7.94412e-06
7.44073e-06
6.99586e-06
6.62926e-06
6.38892e-06
6.33607e-06
6.47288e-06
6.81869e-06
7.79643e-06
1.00481e-05
1.46725e-05
2.46e-05
3.69796e-05
4.55982e-05
4.85952e-05
4.72571e-05
4.27805e-05
3.58506e-05
2.74923e-05
2.01758e-05
1.84573e-05
2.99333e-05
4.7126e-05
5.72575e-05
5.49127e-05
4.40384e-05
3.17978e-05
2.24315e-05
1.62854e-05
1.21584e-05
9.3295e-06
7.69709e-06
6.99802e-06
6.90089e-06
7.04627e-06
8.0041e-06
9.06036e-06
1.25124e-05
1.51068e-05
2.50155e-05
3.51257e-05
3.49422e-05
9.86966e-06
1.09503e-05
1.24034e-05
1.40021e-05
1.55481e-05
1.6892e-05
1.78954e-05
1.84638e-05
1.86774e-05
1.87901e-05
1.91449e-05
2.00844e-05
2.167e-05
2.54431e-05
3.28065e-05
4.4047e-05
5.39715e-05
5.50397e-05
5.06127e-05
4.49694e-05
3.90323e-05
3.28898e-05
2.61152e-05
2.11812e-05
1.95688e-05
1.673e-05
1.51209e-05
2.3122e-05
2.92634e-05
2.82759e-05
2.30711e-05
1.75513e-05
1.33332e-05
1.02012e-05
7.71279e-06
5.8945e-06
5.12793e-06
5.54993e-06
6.6809e-06
8.02223e-06
9.32514e-06
1.04837e-05
1.14531e-05
1.2217e-05
1.2774e-05
1.31307e-05
1.32986e-05
1.32938e-05
1.3137e-05
1.28521e-05
1.24645e-05
1.19988e-05
1.14771e-05
1.09188e-05
1.03401e-05
9.7545e-06
9.17331e-06
8.6072e-06
8.06754e-06
7.56899e-06
7.12869e-06
6.76766e-06
6.53128e-06
6.48568e-06
6.64521e-06
7.00039e-06
7.86477e-06
9.95275e-06
1.40632e-05
2.32302e-05
3.62791e-05
4.65107e-05
5.07339e-05
4.99436e-05
4.57247e-05
3.90713e-05
3.13007e-05
2.49419e-05
2.44275e-05
3.64291e-05
5.26786e-05
6.01521e-05
5.50549e-05
4.29768e-05
3.11257e-05
2.26548e-05
1.6983e-05
1.28369e-05
9.81772e-06
8.01911e-06
7.18436e-06
6.96649e-06
7.01555e-06
7.94333e-06
9.01056e-06
1.24004e-05
1.51015e-05
2.4089e-05
3.52638e-05
3.62382e-05
6.48639e-06
7.34203e-06
8.46018e-06
9.69611e-06
1.09161e-05
1.20379e-05
1.3039e-05
1.396e-05
1.49042e-05
1.5994e-05
1.73105e-05
1.90437e-05
2.124e-05
2.3837e-05
2.86736e-05
3.40568e-05
3.9025e-05
4.3253e-05
4.34748e-05
4.00901e-05
3.50306e-05
2.90736e-05
2.32634e-05
1.86161e-05
1.17906e-05
7.5898e-06
2.08006e-05
3.05536e-05
3.17434e-05
2.71393e-05
2.11877e-05
1.62527e-05
1.24671e-05
9.34505e-06
6.70515e-06
4.74203e-06
3.94942e-06
4.49955e-06
5.74221e-06
7.13855e-06
8.47503e-06
9.66855e-06
1.06818e-05
1.14986e-05
1.21159e-05
1.25396e-05
1.2781e-05
1.28554e-05
1.27812e-05
1.25793e-05
1.22713e-05
1.18788e-05
1.14216e-05
1.09176e-05
1.03822e-05
9.82915e-06
9.27072e-06
8.71913e-06
8.18764e-06
7.69302e-06
7.25546e-06
6.89771e-06
6.66215e-06
6.61732e-06
6.7928e-06
7.16544e-06
7.93758e-06
9.82599e-06
1.34989e-05
2.16293e-05
3.49297e-05
4.69162e-05
5.2841e-05
5.29832e-05
4.92148e-05
4.2957e-05
3.58887e-05
3.05105e-05
3.14853e-05
4.39883e-05
5.82949e-05
6.21381e-05
5.41291e-05
4.13632e-05
3.04697e-05
2.30675e-05
1.77672e-05
1.35082e-05
1.02776e-05
8.31804e-06
7.34358e-06
6.99496e-06
6.94506e-06
7.84603e-06
8.94515e-06
1.22572e-05
1.51162e-05
2.31192e-05
3.50762e-05
3.73543e-05
4.84566e-06
5.52405e-06
6.39198e-06
7.35973e-06
8.3527e-06
9.33854e-06
1.03204e-05
1.13254e-05
1.24087e-05
1.36504e-05
1.51405e-05
1.6966e-05
1.93504e-05
2.21765e-05
2.58663e-05
3.14468e-05
3.51496e-05
3.52299e-05
3.36867e-05
3.10945e-05
2.71792e-05
2.20395e-05
1.60041e-05
7.47971e-06
8.37022e-06
2.30566e-05
3.2982e-05
3.47407e-05
3.05089e-05
2.44444e-05
1.91313e-05
1.49582e-05
1.14852e-05
8.43383e-06
5.79316e-06
3.75298e-06
2.87431e-06
3.53054e-06
4.88819e-06
6.3466e-06
7.71996e-06
8.94284e-06
9.98658e-06
1.08398e-05
1.15024e-05
1.1981e-05
1.22867e-05
1.2433e-05
1.24355e-05
1.23117e-05
1.208e-05
1.17584e-05
1.13644e-05
1.0914e-05
1.04218e-05
9.90142e-06
9.36583e-06
8.82857e-06
8.30465e-06
7.81269e-06
7.37547e-06
7.01813e-06
6.78012e-06
6.72946e-06
6.91225e-06
7.306e-06
8.01719e-06
9.67836e-06
1.29813e-05
1.9929e-05
3.28658e-05
4.65214e-05
5.46463e-05
5.62802e-05
5.331e-05
4.76584e-05
4.1408e-05
3.71361e-05
3.98229e-05
5.22343e-05
6.32483e-05
6.26179e-05
5.19486e-05
3.93256e-05
2.99531e-05
2.36304e-05
1.85486e-05
1.41165e-05
1.06893e-05
8.58969e-06
7.47407e-06
6.9847e-06
6.83239e-06
7.70815e-06
8.85943e-06
1.20829e-05
1.51455e-05
2.21501e-05
3.45509e-05
3.82016e-05
4.10266e-06
4.62947e-06
5.29323e-06
6.04124e-06
6.82957e-06
7.63935e-06
8.478e-06
9.37925e-06
1.04003e-05
1.16104e-05
1.30874e-05
1.48852e-05
1.70971e-05
1.98603e-05
2.30356e-05
2.74738e-05
3.31548e-05
3.6407e-05
3.53737e-05
3.14916e-05
2.66879e-05
2.23865e-05
2.01626e-05
2.3389e-05
3.10606e-05
3.68225e-05
3.70487e-05
3.27099e-05
2.68498e-05
2.16012e-05
1.73627e-05
1.37726e-05
1.05607e-05
7.66321e-06
5.10244e-06
2.98368e-06
1.88967e-06
2.67246e-06
4.16435e-06
5.67612e-06
7.06902e-06
8.30205e-06
9.35879e-06
1.02341e-05
1.09303e-05
1.14544e-05
1.18162e-05
1.20274e-05
1.21008e-05
1.20506e-05
1.18917e-05
1.16389e-05
1.13069e-05
1.09095e-05
1.04604e-05
9.97261e-06
9.45971e-06
8.93629e-06
8.41897e-06
7.92795e-06
7.48822e-06
7.12768e-06
6.8838e-06
6.82128e-06
7.00123e-06
7.41459e-06
8.09884e-06
9.53423e-06
1.24912e-05
1.82926e-05
3.01429e-05
4.50199e-05
5.57225e-05
5.95571e-05
5.79503e-05
5.32702e-05
4.801e-05
4.50657e-05
4.93158e-05
6.03441e-05
6.65351e-05
6.10192e-05
4.85244e-05
3.71277e-05
2.96598e-05
2.42475e-05
1.92363e-05
1.46264e-05
1.10518e-05
8.83972e-06
7.57877e-06
6.93677e-06
6.67697e-06
7.52707e-06
8.74831e-06
1.18787e-05
1.51776e-05
2.12301e-05
3.37102e-05
3.87048e-05
3.50655e-06
3.91682e-06
4.42618e-06
5.00066e-06
5.61565e-06
6.26751e-06
6.97588e-06
7.7814e-06
8.73721e-06
9.89978e-06
1.13213e-05
1.30478e-05
1.51048e-05
1.75627e-05
2.04044e-05
2.36536e-05
2.80959e-05
3.33023e-05
3.69208e-05
3.78073e-05
3.69231e-05
3.59641e-05
3.65148e-05
3.8412e-05
3.94137e-05
3.75853e-05
3.32161e-05
2.80336e-05
2.33542e-05
1.94103e-05
1.59322e-05
1.27314e-05
9.77455e-06
7.07233e-06
4.62538e-06
2.45327e-06
9.85479e-07
1.98058e-06
3.59769e-06
5.13013e-06
6.51617e-06
7.73979e-06
8.79471e-06
9.68012e-06
1.03996e-05
1.09601e-05
1.137e-05
1.16391e-05
1.17777e-05
1.17967e-05
1.17076e-05
1.15216e-05
1.12504e-05
1.09056e-05
1.04993e-05
1.0044e-05
9.55352e-06
9.04318e-06
8.53105e-06
8.03882e-06
7.59324e-06
7.2251e-06
6.97136e-06
6.89156e-06
7.05752e-06
7.48331e-06
8.16886e-06
9.42044e-06
1.20149e-05
1.68525e-05
2.69878e-05
4.21905e-05
5.54912e-05
6.22463e-05
6.27894e-05
5.96428e-05
5.56609e-05
5.42143e-05
5.91886e-05
6.69343e-05
6.70017e-05
5.69963e-05
4.41755e-05
3.51092e-05
2.95784e-05
2.47955e-05
1.97672e-05
1.50339e-05
1.13805e-05
9.07887e-06
7.6622e-06
6.85268e-06
6.47748e-06
7.29988e-06
8.60667e-06
1.16488e-05
1.51965e-05
2.04066e-05
3.26099e-05
3.88158e-05
2.98134e-06
3.29592e-06
3.68225e-06
4.12007e-06
4.60103e-06
5.13294e-06
5.74104e-06
6.46675e-06
7.35874e-06
8.46358e-06
9.81494e-06
1.14353e-05
1.33409e-05
1.55421e-05
1.80495e-05
2.07584e-05
2.37653e-05
2.7496e-05
3.1601e-05
3.49599e-05
3.69848e-05
3.7927e-05
3.82221e-05
3.75181e-05
3.52908e-05
3.17987e-05
2.78987e-05
2.42291e-05
2.08863e-05
1.77312e-05
1.46967e-05
1.18128e-05
9.11981e-06
6.62869e-06
4.32954e-06
2.20789e-06
2.74335e-07
1.55889e-06
3.20855e-06
4.70986e-06
6.05952e-06
7.25459e-06
8.2935e-06
9.17728e-06
9.90991e-06
1.04976e-05