/*--------------------------------*- C++ -*----------------------------------*\
  =========                 |
  \\      /  F ield         | OpenFOAM: The Open Source CFD Toolbox
   \\    /   O peration     | Website:  https://openfoam.org
    \\  /    A nd           | Version:  10
     \\/     M anipulation  |
\*---------------------------------------------------------------------------*/
FoamFile
{
    format      ascii;
    class       surfaceScalarField;
    location    "0.18";
    object      phi;
}
// * * * * * * * * * * * * * * * * * * * * * * * * * * * * * * * * * * * * * //

dimensions      [0 3 -1 0 0 0 0];

internalField   nonuniform List<scalar> 
13452
(
4.01926e-05
2.00758e-05
2.59354e-05
1.42572e-05
1.85324e-05
7.40304e-06
1.51604e-05
3.37204e-06
1.37459e-05
1.41443e-06
1.30376e-05
7.08334e-07
1.2583e-05
4.54566e-07
1.22304e-05
3.52636e-07
1.19301e-05
3.00291e-07
1.16703e-05
2.59837e-07
1.14468e-05
2.23482e-07
1.12559e-05
1.90881e-07
1.10936e-05
1.62293e-07
1.0956e-05
1.37633e-07
1.08396e-05
1.16421e-07
1.07415e-05
9.80262e-08
1.06597e-05
8.18373e-08
1.05924e-05
6.73198e-08
1.05383e-05
5.40279e-08
1.04967e-05
4.15973e-08
1.0467e-05
2.97263e-08
1.04488e-05
1.81774e-08
1.04423e-05
6.50911e-09
1.04474e-05
-5.02202e-09
1.04639e-05
-1.65924e-08
1.04924e-05
-2.84267e-08
1.05331e-05
-4.0686e-08
1.0585e-05
-5.19466e-08
1.06494e-05
-6.43535e-08
1.07169e-05
-6.75322e-08
1.0797e-05
-8.01416e-08
1.08048e-05
-7.76631e-09
-1.27692e-07
1.09325e-05
6.59033e-05
1.61629e-05
6.18988e-05
1.82617e-05
5.56403e-05
1.36616e-05
4.97743e-05
9.23804e-06
4.52806e-05
5.90815e-06
4.20694e-05
3.9195e-06
3.97638e-05
2.7601e-06
3.80649e-05
2.05162e-06
3.6767e-05
1.59816e-06
3.57393e-05
1.28758e-06
3.49014e-05
1.06138e-06
3.42029e-05
8.89298e-07
3.36112e-05
7.54066e-07
3.31038e-05
6.45049e-07
3.2665e-05
5.552e-07
3.22834e-05
4.7961e-07
3.19505e-05
4.1475e-07
3.16598e-05
3.5802e-07
3.14063e-05
3.07466e-07
3.11863e-05
2.61587e-07
3.09969e-05
2.19198e-07
3.08357e-05
1.79348e-07
3.0701e-05
1.41207e-07
3.05916e-05
1.04383e-07
3.05068e-05
6.82579e-08
3.04459e-05
3.24681e-08
3.04088e-05
-3.62868e-09
3.03949e-05
-3.79965e-08
3.04031e-05
-7.26167e-08
3.04348e-05
-9.92378e-08
3.04844e-05
-1.29674e-07
3.0593e-05
-1.16384e-07
-1.44875e-07
3.06102e-05
6.91816e-05
1.07427e-05
7.25088e-05
1.49345e-05
7.30633e-05
1.31071e-05
7.169e-05
1.06113e-05
6.94452e-05
8.15292e-06
6.70652e-05
6.29949e-06
6.48331e-05
4.99226e-06
6.28394e-05
4.04525e-06
6.1095e-05
3.34263e-06
5.95777e-05
2.80481e-06
5.82588e-05
2.38033e-06
5.71102e-05
2.03788e-06
5.61072e-05
1.75705e-06
5.52287e-05
1.52356e-06
5.4457e-05
1.32694e-06
5.37773e-05
1.15932e-06
5.31774e-05
1.01464e-06
5.26472e-05
8.88184e-07
5.21785e-05
7.76211e-07
5.17643e-05
6.75724e-07
5.13992e-05
5.84286e-07
5.10787e-05
4.99901e-07
5.0799e-05
4.20891e-07
5.05574e-05
3.45966e-07
5.03517e-05
2.7401e-07
5.018e-05
2.04171e-07
5.00405e-05
1.35788e-07
4.9933e-05
6.9496e-08
4.98561e-05
4.36889e-09
4.98115e-05
-5.46585e-08
4.97928e-05
-1.11018e-07
4.98165e-05
-1.40056e-07
-1.64046e-07
4.98357e-05
6.88459e-05
7.47985e-06
7.21614e-05
1.1619e-05
7.45371e-05
1.07313e-05
7.59482e-05
9.20026e-06
7.65269e-05
7.57418e-06
7.65897e-05
6.23673e-06
7.63438e-05
5.23811e-06
7.59145e-05
4.47454e-06
7.53821e-05
3.87503e-06
7.47953e-05
3.39167e-06
7.41846e-05
2.99104e-06
7.35703e-05
2.65212e-06
7.29667e-05
2.36065e-06
7.23835e-05
2.10676e-06
7.18268e-05
1.88372e-06
7.13e-05
1.6861e-06
7.08051e-05
1.50947e-06
7.03431e-05
1.35021e-06
6.99141e-05
1.20526e-06
6.95177e-05
1.07208e-06
6.91535e-05
9.48456e-07
6.88209e-05
8.32516e-07
6.85192e-05
7.22608e-07
6.82478e-05
6.17364e-07
6.80062e-05
5.15582e-07
6.77941e-05
4.16288e-07
6.76112e-05
3.18694e-07
6.74578e-05
2.22903e-07
6.73336e-05
1.28539e-07
6.7241e-05
3.79471e-08
6.71801e-05
-5.00743e-08
6.71657e-05
-1.25704e-07
-1.94289e-07
6.7196e-05
6.9559e-05
5.37767e-06
7.18361e-05
9.3419e-06
7.35385e-05
9.02891e-06
7.48103e-05
7.92849e-06
7.57046e-05
6.67983e-06
7.63589e-05
5.58251e-06
7.68588e-05
4.73814e-06
7.7246e-05
4.08737e-06
7.75481e-05
3.57296e-06
7.77832e-05
3.15655e-06
7.79639e-05
2.81036e-06
7.80999e-05
2.51611e-06
7.81982e-05
2.26234e-06
7.82643e-05
2.04062e-06
7.83039e-05
1.84415e-06
7.8322e-05
1.66795e-06
7.83233e-05
1.50825e-06
7.83115e-05
1.36198e-06
7.82901e-05
1.22664e-06
7.82621e-05
1.1001e-06
7.823e-05
9.80547e-07
7.81961e-05
8.66403e-07
7.81625e-05
7.56273e-07
7.81309e-05
6.4895e-07
7.81031e-05
5.43363e-07
7.80808e-05
4.38611e-07
7.80655e-05
3.33922e-07
7.80594e-05
2.29044e-07
7.80645e-05
1.23439e-07
7.80842e-05
1.82719e-08
7.81216e-05
-8.74811e-08
7.81876e-05
-1.91722e-07
-3.00514e-07
7.82938e-05
7.08404e-05
3.92128e-06
7.26283e-05
7.55399e-06
7.39365e-05
7.72072e-06
7.4869e-05
6.996e-06
7.55023e-05
6.0465e-06
7.59559e-05
5.12895e-06
7.63169e-05
4.37719e-06
7.66256e-05
3.77864e-06
7.69024e-05
3.2961e-06
7.71572e-05
2.90175e-06
7.73942e-05
2.57341e-06
7.76155e-05
2.29476e-06
7.78234e-05
2.05452e-06
7.80193e-05
1.8447e-06
7.82042e-05
1.65924e-06
7.83788e-05
1.49339e-06
7.85437e-05
1.34336e-06
7.86995e-05
1.20609e-06
7.88471e-05
1.07906e-06
7.89871e-05
9.60132e-07
7.91201e-05
8.47498e-07
7.9247e-05
7.39571e-07
7.93683e-05
6.34953e-07
7.94848e-05
5.32413e-07
7.95974e-05
4.30838e-07
7.97067e-05
3.29239e-07
7.9814e-05
2.26693e-07
7.99205e-05
1.22517e-07
8.0028e-05
1.5884e-08
8.01401e-05
-9.38353e-08
8.02618e-05
-2.09108e-07
8.04018e-05
-3.31773e-07
-4.70172e-07
8.05715e-05
7.23891e-05
2.89851e-06
7.38423e-05
6.10079e-06
7.49719e-05
6.59114e-06
7.57928e-05
6.17506e-06
7.63546e-05
5.48475e-06
7.67409e-05
4.74263e-06
7.70281e-05
4.08994e-06
7.72585e-05
3.5483e-06
7.74554e-05
3.09922e-06
7.76322e-05
2.72491e-06
7.77961e-05
2.40951e-06
7.79509e-05
2.13998e-06
7.80988e-05
1.90664e-06
7.82411e-05
1.70233e-06
7.83789e-05
1.52147e-06
7.85127e-05
1.35961e-06
7.86429e-05
1.21317e-06
7.87698e-05
1.0792e-06
7.88936e-05
9.55249e-07
7.90145e-05
8.39209e-07
7.91327e-05
7.29271e-07
7.92484e-05
6.23849e-07
7.93619e-05
5.21528e-07
7.94733e-05
4.21032e-07
7.95829e-05
3.2118e-07
7.96913e-05
2.20862e-07
7.9799e-05
1.1896e-07
7.99072e-05
1.43586e-08
8.00175e-05
-9.44488e-08
8.01328e-05
-2.0911e-07
8.02564e-05
-3.32735e-07
8.0394e-05
-4.69319e-07
-6.26896e-07
8.05507e-05
7.41256e-05
2.17823e-06
7.52939e-05
4.93249e-06
7.62771e-05
5.60791e-06
7.70315e-05
5.42066e-06
7.758e-05
4.93627e-06
7.79719e-05
4.35067e-06
7.8265e-05
3.79687e-06
7.84966e-05
3.31669e-06
7.86892e-05
2.9066e-06
7.88569e-05
2.55722e-06
7.9008e-05
2.25846e-06
7.91473e-05
2.00064e-06
7.9278e-05
1.77593e-06
7.94021e-05
1.57821e-06
7.95211e-05
1.40256e-06
7.96357e-05
1.24494e-06
7.97469e-05
1.10203e-06
7.9855e-05
9.71052e-07
7.99606e-05
8.49654e-07
8.0064e-05
7.35813e-07
8.01655e-05
6.27768e-07
8.02654e-05
5.23955e-07
8.0364e-05
4.22965e-07
8.04615e-05
3.23502e-07
8.05583e-05
2.24333e-07
8.0655e-05
1.24249e-07
8.07519e-05
2.1969e-08
8.08502e-05
-8.38814e-08
8.09508e-05
-1.95073e-07
8.10555e-05
-3.13813e-07
8.11663e-05
-4.43568e-07
8.12861e-05
-5.89107e-07
-7.57043e-07
8.14163e-05
7.6017e-05
1.66368e-06
7.69543e-05
3.99517e-06
7.78045e-05
4.75776e-06
7.84878e-05
4.73739e-06
7.90106e-05
4.41343e-06
7.94015e-05
3.95979e-06
7.97025e-05
3.49583e-06
7.99449e-05
3.07428e-06
8.01483e-05
2.70324e-06
8.03253e-05
2.38017e-06
8.04841e-05
2.09968e-06
8.06296e-05
1.85513e-06
8.07651e-05
1.64045e-06
8.08928e-05
1.45054e-06
8.10142e-05
1.28114e-06
8.11304e-05
1.12866e-06
8.12424e-05
9.90062e-07
8.13507e-05
8.62755e-07
8.14558e-05
7.44526e-07
8.15582e-05
6.33445e-07
8.16582e-05
5.27813e-07
8.1756e-05
4.26107e-07
8.1852e-05
3.26937e-07
8.19465e-05
2.29005e-07
8.20398e-05
1.31055e-07
8.21322e-05
3.18245e-08
8.22242e-05
-7.00363e-08
8.23164e-05
-1.76032e-07
8.24094e-05
-2.88062e-07
8.25041e-05
-4.085e-07
8.26012e-05
-5.40666e-07
8.27012e-05
-6.89111e-07
-8.58576e-07
8.28027e-05
7.80333e-05
1.29001e-06
7.87852e-05
3.24326e-06
7.9518e-05
4.02495e-06
8.01345e-05
4.12091e-06
8.06282e-05
3.91972e-06
8.10128e-05
3.57515e-06
8.13171e-05
3.1915e-06
8.15662e-05
2.82521e-06
8.17769e-05
2.49253e-06
8.19609e-05
2.19623e-06
8.21258e-05
1.93476e-06
8.22767e-05
1.7042e-06
8.2417e-05
1.50015e-06
8.2549e-05
1.3186e-06
8.26741e-05
1.15596e-06
8.27937e-05
1.00908e-06
8.29085e-05
8.75246e-07
8.30192e-05
7.52069e-07
8.31263e-05
6.37476e-07
8.32301e-05
5.2964e-07
8.3331e-05
4.26932e-07
8.34292e-05
3.2788e-07
8.3525e-05
2.31129e-07
8.36186e-05
1.35402e-07
8.37102e-05
3.94497e-08
8.38e-05
-5.79924e-08
8.38883e-05
-1.5828e-07
8.39752e-05
-2.62931e-07
8.40609e-05
-3.73785e-07
8.41455e-05
-4.9308e-07
8.42285e-05
-6.2368e-07
8.43088e-05
-7.69403e-07
-9.33188e-07
8.43834e-05
8.01549e-05
1.01346e-06
8.07598e-05
2.63828e-06
8.1391e-05
3.39383e-06
8.19464e-05
3.56546e-06
8.24097e-05
3.45643e-06
8.27843e-05
3.20052e-06
8.30887e-05
2.88718e-06
8.33421e-05
2.57181e-06
8.35588e-05
2.27579e-06
8.37491e-05
2.00595e-06
8.392e-05
1.76379e-06
8.40765e-05
1.54773e-06
8.42218e-05
1.3549e-06
8.43581e-05
1.18228e-06
8.44871e-05
1.02694e-06
8.461e-05
8.86208e-07
8.47276e-05
7.57646e-07
8.48406e-05
6.39095e-07
8.49494e-05
5.28634e-07
8.50545e-05
4.24549e-07
8.51561e-05
3.25295e-07
8.52545e-05
2.29468e-07
8.53499e-05
1.35767e-07
8.54423e-05
4.29583e-08
8.55319e-05
-5.01617e-08
8.56188e-05
-1.4481e-07
8.57028e-05
-2.42275e-07
8.57838e-05
-3.43977e-07
8.58616e-05
-4.51559e-07
8.59354e-05
-5.66937e-07
8.60041e-05
-6.92348e-07
8.60654e-05
-8.30656e-07
-9.83255e-07
8.61154e-05
8.23694e-05
8.04512e-07
8.28585e-05
2.14915e-06
8.34016e-05
2.85079e-06
8.3901e-05
3.06603e-06
8.43337e-05
3.02375e-06
8.46962e-05
2.83796e-06
8.49989e-05
2.58452e-06
8.52557e-05
2.31501e-06
8.54781e-05
2.05339e-06
8.56747e-05
1.80935e-06
8.58519e-05
1.58661e-06
8.60141e-05
1.38546e-06
8.61647e-05
1.20438e-06
8.63057e-05
1.04124e-06
8.64389e-05
8.93773e-07
8.65653e-05
7.59715e-07
8.6686e-05
6.36957e-07
8.68016e-05
5.2356e-07
8.69124e-05
4.17766e-07
8.7019e-05
3.17983e-07
8.71215e-05
2.22766e-07
8.72202e-05
1.30789e-07
8.73152e-05
4.08259e-08
8.74064e-05
-4.82856e-08
8.74939e-05
-1.37671e-07
8.75776e-05
-2.28453e-07
8.76571e-05
-3.21795e-07
8.7732e-05
-4.18934e-07
8.78017e-05
-5.21225e-07
8.78649e-05
-6.30159e-07
8.79199e-05
-7.47297e-07
8.79638e-05
-8.74545e-07
-1.01209e-06
8.79926e-05
8.4669e-05
6.43235e-07
8.50672e-05
1.75097e-06
8.55348e-05
2.38319e-06
8.59836e-05
2.61725e-06
8.63865e-05
2.62091e-06
8.67353e-05
2.4891e-06
8.70343e-05
2.28557e-06
8.72927e-05
2.05653e-06
8.75196e-05
1.82658e-06
8.77218e-05
1.60711e-06
8.7905e-05
1.40345e-06
8.80731e-05
1.21731e-06
8.82292e-05
1.0483e-06
8.83753e-05
8.95094e-07
8.85131e-05
7.55986e-07
8.86437e-05
6.29139e-07
8.87679e-05
5.12738e-07
8.88864e-05
4.05062e-07
8.89997e-05
3.04519e-07
8.9108e-05
2.09645e-07
8.92117e-05
1.19101e-07
8.93108e-05
3.16573e-08
8.94054e-05
-5.38236e-08
8.94956e-05
-1.38409e-07
8.9581e-05
-2.23117e-07
8.96615e-05
-3.08941e-07
8.97366e-05
-3.96874e-07
8.98056e-05
-4.8792e-07
8.98674e-05
-5.83102e-07
8.99207e-05
-6.83456e-07
8.99633e-05
-7.89909e-07
8.99923e-05
-9.03518e-07
-1.0236e-06
9.00038e-05
8.70493e-05
5.1607e-07
8.73763e-05
1.42396e-06
8.77799e-05
1.97965e-06
8.81831e-05
2.21398e-06
8.85574e-05
2.24668e-06
8.88915e-05
2.15495e-06
8.91853e-05
1.99183e-06
8.94442e-05
1.79764e-06
8.96746e-05
1.59619e-06
8.9882e-05
1.39971e-06
9.00709e-05
1.2145e-06
9.02449e-05
1.04329e-06
9.04067e-05
8.86563e-07
9.05581e-05
7.43672e-07
9.07007e-05
6.13405e-07
9.08355e-05
4.94297e-07
9.09634e-05
3.84811e-07
9.10851e-05
2.83436e-07
9.12008e-05
1.88743e-07
9.13111e-05
9.94018e-08
9.1416e-05
1.41889e-08
9.15157e-05
-6.80214e-08
9.16101e-05
-1.48262e-07
9.16992e-05
-2.27488e-07
9.17827e-05
-3.06592e-07
9.18601e-05
-3.86415e-07
9.1931e-05
-4.67752e-07
9.19945e-05
-5.51353e-07
9.20493e-05
-6.37909e-07
9.20938e-05
-7.28023e-07
9.2126e-05
-8.22079e-07
9.21429e-05
-9.20443e-07
-1.02187e-06
9.21412e-05
8.95079e-05
4.13699e-07
8.97793e-05
1.1526e-06
9.01289e-05
1.63002e-06
9.04918e-05
1.85108e-06
9.08393e-05
1.8992e-06
9.11585e-05
1.83571e-06
9.1446e-05
1.70432e-06
9.17042e-05
1.53946e-06
9.19372e-05
1.36322e-06
9.2149e-05
1.18788e-06
9.23433e-05
1.02023e-06
9.25229e-05
8.63641e-07
9.26902e-05
7.19256e-07
9.2847e-05
5.86946e-07
9.29944e-05
4.65917e-07
9.31337e-05
3.55026e-07
9.32655e-05
2.52986e-07
9.33905e-05
1.58481e-07
9.3509e-05
7.02408e-08
9.36213e-05
-1.29347e-08
9.37277e-05
-9.21522e-08
9.38281e-05
-1.68425e-07
9.39225e-05
-2.42674e-07
9.40107e-05
-3.15734e-07
9.40925e-05
-3.88359e-07
9.41673e-05
-4.61225e-07
9.42345e-05
-5.34925e-07
9.42931e-05
-6.09962e-07
9.43419e-05
-6.86718e-07
9.43793e-05
-7.65426e-07
9.44033e-05
-8.46037e-07
9.44112e-05
-9.28403e-07
-1.01096e-06
9.44003e-05
9.20439e-05
3.29625e-07
9.22718e-05
9.24744e-07
9.25765e-05
1.32535e-06
9.29039e-05
1.5236e-06
9.32269e-05
1.57629e-06
9.35314e-05
1.53112e-06
9.38121e-05
1.42365e-06
9.40688e-05
1.2828e-06
9.43036e-05
1.12836e-06
9.45194e-05
9.72115e-07
9.47187e-05
8.20932e-07
9.49038e-05
6.78503e-07
9.50767e-05
5.46388e-07
9.52388e-05
4.24847e-07
9.53913e-05
3.13406e-07
9.55351e-05
2.11189e-07
9.5671e-05
1.17119e-07
9.57994e-05
3.00561e-08
9.59208e-05
-5.11283e-08
9.60354e-05
-1.27505e-07
9.61433e-05
-2.00067e-07
9.62446e-05
-2.69714e-07
9.63392e-05
-3.37252e-07
9.64268e-05
-4.03392e-07
9.65072e-05
-4.68746e-07
9.65798e-05
-5.33827e-07
9.66439e-05
-5.99039e-07
9.66986e-05
-6.64659e-07
9.67427e-05
-7.30807e-07
9.67747e-05
-7.9742e-07
9.67928e-05
-8.64138e-07
9.67949e-05
-9.30464e-07
-9.94717e-07
9.67786e-05
9.46575e-05
2.59233e-07
9.48514e-05
7.30867e-07
9.51189e-05
1.05782e-06
9.54158e-05
1.22677e-06
9.57166e-05
1.2755e-06
9.60073e-05
1.24037e-06
9.62811e-05
1.14993e-06
9.65358e-05
1.02809e-06
9.6772e-05
8.92111e-07
9.69913e-05
7.52854e-07
9.71953e-05
6.16921e-07
9.73857e-05
4.88059e-07
9.75641e-05
3.6804e-07
9.77315e-05
2.57372e-07
9.78891e-05
1.55809e-07
9.80377e-05
6.26747e-08
9.81777e-05
-2.29341e-08
9.83098e-05
-1.02011e-07
9.84342e-05
-1.75555e-07
9.85512e-05
-2.44522e-07
9.86609e-05
-3.09794e-07
9.87634e-05
-3.72164e-07
9.88585e-05
-4.32324e-07
9.89459e-05
-4.90865e-07
9.90255e-05
-5.48264e-07
9.90965e-05
-6.04885e-07
9.91584e-05
-6.60961e-07
9.92104e-05
-7.16581e-07
9.92512e-05
-7.7166e-07
9.92797e-05
-8.2592e-07
9.92944e-05
-8.78796e-07
9.92935e-05
-9.29583e-07
-9.76624e-07
9.92754e-05
9.73496e-05
1.99177e-07
9.75169e-05
5.63503e-07
9.77541e-05
8.20691e-07
9.80248e-05
9.56043e-07
9.83061e-05
9.94173e-07
9.85843e-05
9.62237e-07
9.88513e-05
8.82852e-07
9.9104e-05
7.7546e-07
9.93413e-05
6.54725e-07
9.95639e-05
5.3033e-07
9.97724e-05
4.08353e-07
9.99681e-05
2.92376e-07
0.000100152
1.842e-07
0.000100325
8.44468e-08
0.000100488
-6.99477e-09
0.000100641
-9.06625e-08
0.000100785
-1.67337e-07
0.000100921
-2.37894e-07
0.000101049
-3.03226e-07
0.000101169
-3.64189e-07
0.00010128
-4.21566e-07
0.000101384
-4.76048e-07
0.00010148
-5.28225e-07
0.000101568
-5.78574e-07
0.000101647
-6.27453e-07
0.000101717
-6.75097e-07
0.000101778
-7.21597e-07
0.000101828
-7.66897e-07
0.000101867
-8.10763e-07
0.000101894
-8.52778e-07
0.000101908
-8.92268e-07
0.000101907
-9.28439e-07
-9.59757e-07
0.00010189
0.000100121
1.46969e-07
0.000100268
4.16742e-07
0.000100481
6.08099e-07
0.00010073
7.07146e-07
0.000100994
7.29533e-07
0.000101261
6.95175e-07
0.000101522
6.21687e-07
0.000101773
5.24619e-07
0.000102012
4.1612e-07
0.000102238
3.04525e-07
0.000102451
1.95203e-07
0.000102652
9.13882e-08
0.000102841
-5.24331e-09
0.00010302
-9.40804e-08
0.000103188
-1.75186e-07
0.000103346
-2.49034e-07
0.000103495
-3.16323e-07
0.000103635
-3.7785e-07
0.000103766
-4.34426e-07
0.000103889
-4.86822e-07
0.000104003
-5.35737e-07
0.000104109
-5.81776e-07
0.000104206
-6.25437e-07
0.000104295
-6.67099e-07
0.000104374
-7.0702e-07
0.000104445
-7.45327e-07
0.000104505
-7.82007e-07
0.000104555
-8.16898e-07
0.000104594
-8.49673e-07
0.000104621
-8.79839e-07
0.000104635
-9.06691e-07
0.000104636
-9.29421e-07
-9.46668e-07
0.000104623
0.000102974
1.00709e-07
0.000103105
2.85843e-07
0.000103298
4.14981e-07
0.000103529
4.76034e-07
0.00010378
4.78706e-07
0.000104038
4.37324e-07
0.000104294
3.65348e-07
0.000104544
2.7496e-07
0.000104784
1.75947e-07
0.000105014
7.52199e-08
0.000105232
-2.26979e-08
0.000105438
-1.15062e-07
0.000105633
-2.00455e-07
0.000105817
-2.78384e-07
0.000105991
-3.48955e-07
0.000106155
-4.12638e-07
0.000106309
-4.70103e-07
0.000106453
-5.22102e-07
0.000106588
-5.69393e-07
0.000106714
-6.12686e-07
0.000106831
-6.52612e-07
0.000106939
-6.89707e-07
0.000107037
-7.2439e-07
0.000107127
-7.56965e-07
0.000107208
-7.87609e-07
0.000107279
-8.16369e-07
0.00010734
-8.43157e-07
0.000107391
-8.67748e-07
0.000107431
-8.89768e-07
0.00010746
-9.08704e-07
0.000107477
-9.23873e-07
0.000107482
-9.34524e-07
-9.39504e-07
0.000107475
0.000105911
5.89006e-08
0.000106029
1.66932e-07
0.000106208
2.36889e-07
0.000106425
2.58869e-07
0.000106665
2.38719e-07
0.000106915
1.86532e-07
0.000107168
1.12346e-07
0.000107418
2.54507e-08
0.00010766
-6.65466e-08
0.000107894
-1.5818e-07
0.000108117
-2.45858e-07
0.000108329
-3.27441e-07
0.000108531
-4.01881e-07
0.000108721
-4.68901e-07
0.000108901
-5.2873e-07
0.00010907
-5.81899e-07
0.000109229
-6.291e-07
0.000109378
-6.71078e-07
0.000109518
-7.08566e-07
0.000109647
-7.4224e-07
0.000109767
-7.72685e-07
0.000109878
-8.00381e-07
0.000109979
-8.25694e-07
0.000110071
-8.48866e-07
0.000110153
-8.70018e-07
0.000110226
-8.89142e-07
0.000110289
-9.06108e-07
0.000110342
-9.20658e-07
0.000110385
-9.32409e-07
0.000110417
-9.40867e-07
0.000110438
-9.45404e-07
0.000110449
-9.45351e-07
-9.39757e-07
0.00011045
0.000108932
2.0322e-08
0.000109042
5.67607e-08
0.000109209
6.98614e-08
0.000109416
5.19744e-08
0.000109648
6.51618e-09
0.000109894
-5.95874e-08
0.000110146
-1.39101e-07
0.000110397
-2.25224e-07
0.000110642
-3.12343e-07
0.000110881
-3.96422e-07
0.00011111
-4.74869e-07
0.000111328
-5.46231e-07
0.000111536
-6.09926e-07
0.000111733
-6.65983e-07
0.00011192
-7.14827e-07
0.000112095
-7.5711e-07
0.000112259
-7.93592e-07
0.000112413
-8.25053e-07
0.000112557
-8.52232e-07
0.00011269
-8.75792e-07
0.000112814
-8.96295e-07
0.000112928
-9.14188e-07
0.000113032
-9.29798e-07
0.000113126
-9.43331e-07
0.000113211
-9.54867e-07
0.000113287
-9.64372e-07
0.000113352
-9.71694e-07
0.000113408
-9.76574e-07
0.000113454
-9.78647e-07
0.000113491
-9.77463e-07
0.000113518
-9.72481e-07
0.000113536
-9.63141e-07
-9.48692e-07
0.000113545
0.000112041
-1.60697e-08
0.000112145
-4.74981e-08
0.000112305
-8.97457e-08
0.000112505
-1.48276e-07
0.000112733
-2.21148e-07
0.000112977
-3.03797e-07
0.000113229
-3.91282e-07
0.000113483
-4.78955e-07
0.000113733
-5.63029e-07
0.000113978
-6.40869e-07
0.000114214
-7.10919e-07
0.00011444
-7.7249e-07
0.000114656
-8.25546e-07
0.00011486
-8.70498e-07
0.000115054
-9.08039e-07
0.000115235
-9.39e-07
0.000115406
-9.6426e-07
0.000115566
-9.84669e-07
0.000115715
-1.001e-06
0.000115853
-1.01394e-06
0.00011598
-1.02405e-06
0.000116098
-1.03175e-06
0.000116206
-1.03736e-06
0.000116303
-1.04106e-06
0.000116391
-1.04292e-06
0.00011647
-1.04288e-06
0.000116539
-1.0408e-06
0.000116599
-1.03644e-06
0.00011665
-1.02946e-06
0.000116692
-1.01947e-06
0.000116725
-1.00602e-06
0.000116751
-9.88636e-07
-9.6674e-07
0.000116769
0.00011524
-5.12014e-08
0.000115341
-1.48401e-07
0.000115496
-2.45364e-07
0.000115693
-3.45466e-07
0.00011592
-4.47615e-07
0.000116165
-5.49017e-07
0.00011642
-6.46642e-07
0.000116679
-7.37739e-07
0.000116936
-8.20216e-07
0.000117188
-8.92814e-07
0.000117432
-9.55054e-07
0.000117667
-1.00707e-06
0.000117891
-1.04944e-06
0.000118103
-1.08303e-06
0.000118304
-1.10886e-06
0.000118493
-1.128e-06
0.00011867
-1.14148e-06
0.000118836
-1.15027e-06
0.00011899
-1.15522e-06
0.000119133
-1.15703e-06
0.000119266
-1.1563e-06
0.000119387
-1.15345e-06
0.000119499
-1.14879e-06
0.0001196
-1.14251e-06
0.000119692
-1.13466e-06
0.000119774
-1.12521e-06
0.000119847
-1.11401e-06
0.000119912
-1.10086e-06
0.000119968
-1.08546e-06
0.000120016
-1.06749e-06
0.000120056
-1.04659e-06
0.00012009
-1.0224e-06
-9.94491e-07
0.000120118
0.000118531
-8.59584e-08
0.000118631
-2.48427e-07
0.000118786
-4.00477e-07
0.000118984
-5.43471e-07
0.000119213
-6.76772e-07
0.000119463
-7.98944e-07
0.000119725
-9.08581e-07
0.000119992
-1.00464e-06
0.000120258
-1.08664e-06
0.00012052
-1.15469e-06
0.000120774
-1.20941e-06
0.000121019
-1.25184e-06
0.000121253
-1.28324e-06
0.000121475
-1.30499e-06
0.000121685
-1.31852e-06
0.000121882
-1.32517e-06
0.000122066
-1.3262e-06
0.000122239
-1.3227e-06
0.000122399
-1.31561e-06
0.000122548
-1.30573e-06
0.000122685
-1.29366e-06
0.000122812
-1.27987e-06
0.000122928
-1.26467e-06
0.000123033
-1.24825e-06
0.000123129
-1.23067e-06
0.000123216
-1.21192e-06
0.000123294
-1.19188e-06
0.000123363
-1.17035e-06
0.000123425
-1.14711e-06
0.000123479
-1.12189e-06
0.000123527
-1.09438e-06
0.000123569
-1.06431e-06
-1.03133e-06
0.000123606
0.000121917
-1.2121e-07
0.000122018
-3.5002e-07
0.000122176
-5.58536e-07
0.000122379
-7.46135e-07
0.000122615
-9.12416e-07
0.000122873
-1.05707e-06
0.000123144
-1.18016e-06
0.000123422
-1.28228e-06
0.0001237
-1.36449e-06
0.000123973
-1.42831e-06
0.000124239
-1.47551e-06
0.000124496
-1.50807e-06
0.00012474
-1.52801e-06
0.000124973
-1.5373e-06
0.000125192
-1.5378e-06
0.000125398
-1.5312e-06
0.000125591
-1.51899e-06
0.000125771
-1.50246e-06
0.000125938
-1.48266e-06
0.000126092
-1.46046e-06
0.000126235
-1.43654e-06
0.000126367
-1.41138e-06
0.000126487
-1.38534e-06
0.000126598
-1.3586e-06
0.000126698
-1.33127e-06
0.00012679
-1.30332e-06
0.000126873
-1.27467e-06
0.000126947
-1.24516e-06
0.000127015
-1.2146e-06
0.000127076
-1.18278e-06
0.000127131
-1.14946e-06
0.000127181
-1.11446e-06
-1.07751e-06
0.000127227
0.0001254
-1.57967e-07
0.000125506
-4.56036e-07
0.000125671
-7.23778e-07
0.000125884
-9.58531e-07
0.000126131
-1.16002e-06
0.000126403
-1.32893e-06
0.00012669
-1.46672e-06
0.000126983
-1.57559e-06
0.000127277
-1.65823e-06
0.000127566
-1.71759e-06
0.000127847
-1.75671e-06
0.000128118
-1.77861e-06
0.000128376
-1.78612e-06
0.000128621
-1.7819e-06
0.000128851
-1.76829e-06
0.000129067
-1.74736e-06
0.000129269
-1.7209e-06
0.000129457
-1.69038e-06
0.000129631
-1.65702e-06
0.000129793
-1.62177e-06
0.000129942
-1.58537e-06
0.000130079
-1.54836e-06
0.000130204
-1.5111e-06
0.00013032
-1.47383e-06
0.000130425
-1.43664e-06
0.000130521
-1.39954e-06
0.000130609
-1.36246e-06
0.000130689
-1.32526e-06
0.000130762
-1.28778e-06
0.000130829
-1.24984e-06
0.000130891
-1.21123e-06
0.000130948
-1.17181e-06
-1.13132e-06
0.000131002
0.000128984
-1.97194e-07
0.000129098
-5.69239e-07
0.000129274
-9.00079e-07
0.0001295
-1.18494e-06
0.000129764
-1.42379e-06
0.000130054
-1.61843e-06
0.000130359
-1.77177e-06
0.000130671
-1.88772e-06
0.000130983
-1.97066e-06
0.000131291
-2.02507e-06
0.000131589
-2.05532e-06
0.000131876
-2.06552e-06
0.000132149
-2.05945e-06
0.000132408
-2.04045e-06
0.000132651
-2.01145e-06
0.000132879
-1.97495e-06
0.000133091
-1.93303e-06
0.000133288
-1.88742e-06
0.00013347
-1.83949e-06
0.000133639
-1.79031e-06
0.000133794
-1.74069e-06
0.000133937
-1.69123e-06
0.000134068
-1.64231e-06
0.000134189
-1.59419e-06
0.000134299
-1.54697e-06
0.0001344
-1.50067e-06
0.000134493
-1.45524e-06
0.000134578
-1.41056e-06
0.000134657
-1.36648e-06
0.00013473
-1.32285e-06
0.000134798
-1.2795e-06
0.000134863
-1.23631e-06
-1.19308e-06
0.000134924
0.000132672
-2.40595e-07
0.000132798
-6.94297e-07
0.000132992
-1.09448e-06
0.000133241
-1.43397e-06
0.00013353
-1.7131e-06
0.000133847
-1.93492e-06
0.000134179
-2.10408e-06
0.000134518
-2.22646e-06
0.000134856
-2.30843e-06
0.000135187
-2.35621e-06
0.000135507
-2.37569e-06
0.000135814
-2.37221e-06
0.000136105
-2.35056e-06
0.000136379
-2.31487e-06
0.000136637
-2.26867e-06
0.000136876
-2.21491e-06
0.000137099
-2.15602e-06
0.000137306
-2.09397e-06
0.000137497
-2.03028e-06
0.000137673
-1.96616e-06
0.000137834
-1.90247e-06
0.000137983
-1.83986e-06
0.00013812
-1.77875e-06
0.000138245
-1.71938e-06
0.00013836
-1.66187e-06
0.000138465
-1.60625e-06
0.000138562
-1.55245e-06
0.000138652
-1.50036e-06
0.000138736
-1.44983e-06
0.000138813
-1.40068e-06
0.000138887
-1.35275e-06
0.000138956
-1.30589e-06
-1.25987e-06
0.000139023
0.000136467
-2.89011e-07
0.000136606
-8.34095e-07
0.000136823
-1.31071e-06
0.000137098
-1.70946e-06
0.000137417
-2.03177e-06
0.000137764
-2.28239e-06
0.000138128
-2.46788e-06
0.000138498
-2.59633e-06
0.000138866
-2.67624e-06
0.000139225
-2.71576e-06
0.000139572
-2.72244e-06
0.000139903
-2.70304e-06
0.000140216
-2.66345e-06
0.00014051
-2.60872e-06
0.000140784
-2.54304e-06
0.000141039
-2.46989e-06
0.000141275
-2.39208e-06
0.000141493
-2.31182e-06
0.000141694
-2.23083e-06
0.000141878
-2.15042e-06
0.000142047
-2.07154e-06
0.000142202
-1.99485e-06
0.000142344
-1.92079e-06
0.000142474
-1.84961e-06
0.000142594
-1.78141e-06
0.000142704
-1.7162e-06
0.000142805
-1.6539e-06
0.000142899
-1.59439e-06
0.000142987
-1.53748e-06
0.000143069
-1.48302e-06
0.000143147
-1.43082e-06
0.000143222
-1.38073e-06
-1.3325e-06
0.000143295
0.000140374
-3.4712e-07
0.00014054
-9.99931e-07
0.000140794
-1.5648e-06
0.000141114
-2.02954e-06
0.00014148
-2.39771e-06
0.000141874
-2.67677e-06
0.000142283
-2.87626e-06
0.000142694
-3.0074e-06
0.000143099
-3.08145e-06
0.000143492
-3.10883e-06
0.000143868
-3.09894e-06
0.000144225
-3.06006e-06
0.000144561
-2.99925e-06
0.000144875
-2.92247e-06
0.000145167
-2.83462e-06
0.000145436
-2.73966e-06
0.000145685
-2.64077e-06
0.000145914
-2.54042e-06
0.000146123
-2.44049e-06
0.000146315
-2.34238e-06
0.000146491
-2.2471e-06
0.000146651
-2.15534e-06
0.000146798
-2.06752e-06
0.000146932
-1.98387e-06
0.000147055
-1.90447e-06
0.000147168
-1.82929e-06
0.000147273
-1.75821e-06
0.000147369
-1.69107e-06
0.00014746
-1.62767e-06
0.000147544
-1.56776e-06
0.000147625
-1.51112e-06
0.000147701
-1.45753e-06
-1.40665e-06
0.000147776
0.00014439
-4.12741e-07
0.000144581
-1.19066e-06
0.000144872
-1.85555e-06
0.000145237
-2.39437e-06
0.000145653
-2.81407e-06
0.000146101
-3.12467e-06
0.000146563
-3.33872e-06
0.000147027
-3.47104e-06
0.000147482
-3.5362e-06
0.00014792
-3.5474e-06
0.000148338
-3.51638e-06
0.000148731
-3.45328e-06
0.000149098
-3.36662e-06
0.000149439
-3.26342e-06
0.000149754
-3.14936e-06
0.000150043
-3.029e-06
0.000150308
-2.90586e-06
0.000150551
-2.78267e-06
0.000150772
-2.66145e-06
0.000150973
-2.54368e-06
0.000151156
-2.43036e-06
0.000151323
-2.32217e-06
0.000151475
-2.21949e-06
0.000151614
-2.12249e-06
0.00015174
-2.03121e-06
0.000151856
-1.94554e-06
0.000151964
-1.86531e-06
0.000152063
-1.79031e-06
0.000152155
-1.72027e-06
0.000152243
-1.65492e-06
0.000152325
-1.59399e-06
0.000152405
-1.53723e-06
-1.48422e-06
0.000152483
0.000148541
-5.05342e-07
0.000148793
-1.44311e-06
0.000149163
-2.22591e-06
0.000149612
-2.84268e-06
0.000150108
-3.31035e-06
0.000150629
-3.64546e-06
0.000151156
-3.86614e-06
0.000151677
-3.9921e-06
0.000152183
-4.04153e-06
0.000152666
-4.03041e-06
0.000153122
-3.97275e-06
0.000153549
-3.88044e-06
0.000153946
-3.76338e-06
0.000154312
-3.62961e-06
0.000154648
-3.4856e-06
0.000154956
-3.33641e-06
0.000155236
-3.18596e-06
0.00015549
-3.03719e-06
0.000155721
-2.89228e-06
0.00015593
-2.75272e-06
0.000156119
-2.61954e-06
0.000156291
-2.49336e-06
0.000156446
-2.37451e-06
0.000156586
-2.26306e-06
0.000156714
-2.15897e-06
0.00015683
-2.06204e-06
0.000156937
-1.97202e-06
0.000157035
-1.8886e-06
0.000157127
-1.81145e-06
0.000157212
-1.74021e-06
0.000157292
-1.67452e-06
0.000157369
-1.61401e-06
-1.55813e-06
0.000157443
0.000152784
-6.00328e-07
0.000153073
-1.73162e-06
0.000153504
-2.65758e-06
0.000154036
-3.37396e-06
0.00015463
-3.90429e-06
0.000155253
-4.26905e-06
0.000155881
-4.49389e-06
0.000156495
-4.60628e-06
0.000157084
-4.63011e-06
0.000157639
-4.58571e-06
0.000158157
-4.49039e-06
0.000158635
-4.35851e-06
0.000159073
-4.20163e-06
0.000159472
-4.029e-06
0.000159834
-3.84785e-06
0.000160162
-3.66376e-06
0.000160457
-3.48091e-06
0.000160722
-3.30236e-06
0.00016096
-3.13028e-06
0.000161173
-2.96613e-06
0.000161365
-2.81083e-06
0.000161536
-2.66485e-06
0.00016169
-2.52837e-06
0.000161828
-2.40133e-06
0.000161953
-2.28351e-06
0.000162065
-2.17461e-06
0.000162168
-2.07424e-06
0.000162261
-1.98199e-06
0.000162347
-1.89747e-06
0.000162427
-1.82025e-06
0.000162502
-1.74992e-06
0.000162575
-1.68611e-06
-1.6281e-06
0.000162645
0.000157246
-7.94494e-07
0.000157695
-2.18116e-06
0.000158286
-3.24841e-06
0.000158951
-4.03944e-06
0.000159656
-4.60884e-06
0.000160371
-4.98443e-06
0.000161077
-5.19923e-06
0.000161757
-5.28692e-06
0.000162403
-5.27555e-06
0.000163006
-5.18911e-06
0.000163564
-5.04808e-06
0.000164075
-4.86919e-06
0.000164539
-4.6658e-06
0.000164958
-4.44841e-06
0.000165335
-4.22508e-06
0.000165674
-4.00185e-06
0.000165976
-3.78314e-06
0.000166245
-3.57207e-06
0.000166486
-3.37074e-06
0.0001667
-3.18046e-06
0.000166891
-3.00193e-06
0.000167062
-2.83542e-06
0.000167214
-2.68087e-06
0.000167351
-2.53801e-06
0.000167474
-2.4064e-06
0.000167585
-2.28554e-06
0.000167686
-2.17489e-06
0.000167777
-2.07391e-06
0.000167862
-1.98209e-06
0.000167941
-1.89893e-06
0.000168015
-1.82402e-06
0.000168086
-1.75692e-06
-1.69684e-06
0.000168154
0.000161692
-9.47924e-07
0.000162214
-2.70321e-06
0.000162953
-3.98755e-06
0.000163816
-4.90269e-06
0.000164727
-5.51996e-06
0.00016563
-5.8873e-06
0.000166496
-6.06501e-06
0.000167312
-6.10277e-06
0.000168073
-6.03638e-06
0.000168778
-5.89446e-06
0.00016943
-5.69995e-06
0.000170031
-5.47057e-06
0.000170586
-5.21997e-06
0.000171096
-4.95866e-06
0.000171565
-4.69456e-06
0.000171997
-4.43355e-06
0.000172394
-4.17991e-06
0.000172758
-3.93663e-06
0.000173093
-3.70571e-06
0.000173401
-3.48835e-06
0.000173684
-3.28516e-06
0.000173945
-3.09627e-06
0.000174186
-2.92151e-06
0.000174408
-2.76045e-06
0.000174614
-2.61253e-06
0.000174806
-2.47711e-06
0.000174985
-2.35353e-06
0.000175152
-2.24115e-06
0.000175309
-2.13948e-06
0.000175458
-2.04803e-06
0.000175601
-1.96668e-06
0.000175739
-1.89504e-06
-1.8333e-06
0.000175876
0.000166689
-1.48379e-06
0.000167547
-3.56104e-06
0.000168491
-4.93085e-06
0.000169511
-5.92311e-06
0.00017061
-6.61859e-06
0.000171766
-7.04375e-06
0.000172961
-7.2598e-06
0.000174171
-7.31323e-06
0.000175373
-7.23839e-06
0.000176546
-7.06667e-06
0.000177671
-6.82512e-06
0.000178736
-6.53598e-06
0.000179733
-6.21723e-06
0.000180658
-5.88315e-06