/*--------------------------------*- C++ -*----------------------------------*\
  =========                 |
  \\      /  F ield         | OpenFOAM: The Open Source CFD Toolbox
   \\    /   O peration     | Website:  https://openfoam.org
    \\  /    A nd           | Version:  10
     \\/     M anipulation  |
\*---------------------------------------------------------------------------*/
FoamFile
{
    format      ascii;
    class       volVectorField;
    location    "0.18";
    object      U;
}
// * * * * * * * * * * * * * * * * * * * * * * * * * * * * * * * * * * * * * //

dimensions      [0 1 -1 0 0 0 0];

internalField   nonuniform List<vector> 
6820
(
(5.57354 0.459161 0)
(3.88291 0.245936 0)
(2.58896 0.00882471 0)
(1.9568 -0.0641508 0)
(1.73115 -0.059448 0)
(1.61964 -0.0339829 0)
(1.55423 -0.0153344 0)
(1.50779 -0.00528112 0)
(1.46865 -0.00070688 0)
(1.43471 0.000777559 0)
(1.40543 0.000812158 0)
(1.38033 0.000281975 0)
(1.35895 -0.000403716 0)
(1.34081 -0.00106432 0)
(1.32544 -0.00163156 0)
(1.31246 -0.00209184 0)
(1.30156 -0.00245549 0)
(1.29252 -0.00274086 0)
(1.28516 -0.00296693 0)
(1.27936 -0.00315044 0)
(1.27503 -0.00330488 0)
(1.27211 -0.00343806 0)
(1.27059 -0.0035562 0)
(1.27051 -0.003666 0)
(1.27181 -0.00387866 0)
(1.27454 -0.00408108 0)
(1.27869 -0.004306 0)
(1.28445 -0.00445773 0)
(1.29119 -0.0046708 0)
(1.30046 -0.00433686 0)
(1.30646 -0.00472084 0)
(1.32324 0.00275361 0)
(1.29657 -0.0180727 0)
(7.66981 0.863933 0)
(7.71721 0.890886 0)
(6.99982 0.598564 0)
(6.19688 0.347691 0)
(5.58297 0.179811 0)
(5.1376 0.0933677 0)
(4.81974 0.0530676 0)
(4.58999 0.0346497 0)
(4.41736 0.0262438 0)
(4.28257 0.0219882 0)
(4.17394 0.0194094 0)
(4.08416 0.0175645 0)
(4.00856 0.0160755 0)
(3.94404 0.0147737 0)
(3.88842 0.0135712 0)
(3.84015 0.0124201 0)
(3.79808 0.0112928 0)
(3.76134 0.0101712 0)
(3.72926 0.00904119 0)
(3.70133 0.00789053 0)
(3.67717 0.00670741 0)
(3.65647 0.00548176 0)
(3.639 0.00419842 0)
(3.62458 0.00284411 0)
(3.61309 0.00138922 0)
(3.60446 -0.000139743 0)
(3.59866 -0.00174481 0)
(3.59566 -0.00340456 0)
(3.59529 -0.00518733 0)
(3.59779 -0.00629876 0)
(3.60229 -0.00809199 0)
(3.61145 -0.00494334 0)
(3.62216 -0.00552349 0)
(7.56353 0.520341 0)
(8.22522 0.663685 0)
(8.46485 0.576433 0)
(8.36385 0.459038 0)
(8.12779 0.345128 0)
(7.85052 0.260416 0)
(7.5798 0.200917 0)
(7.33545 0.158237 0)
(7.1208 0.127215 0)
(6.9339 0.104156 0)
(6.77153 0.0865685 0)
(6.63031 0.0728646 0)
(6.50716 0.0619984 0)
(6.39944 0.0532502 0)
(6.30495 0.0460931 0)
(6.22181 0.0401302 0)
(6.1485 0.0350616 0)
(6.08374 0.03066 0)
(6.02647 0.0267504 0)
(5.97585 0.0231958 0)
(5.93115 0.0198859 0)
(5.89182 0.0167298 0)
(5.85737 0.0136496 0)
(5.82744 0.0105874 0)
(5.80175 0.00750546 0)
(5.78007 0.0043545 0)
(5.7622 0.00111569 0)
(5.74801 -0.00222631 0)
(5.73738 -0.00565319 0)
(5.73041 -0.00875623 0)
(5.7268 -0.0119192 0)
(5.72695 -0.0128231 0)
(5.73074 -0.0148438 0)
(7.43337 0.341109 0)
(7.88468 0.51459 0)
(8.24344 0.489856 0)
(8.44211 0.43028 0)
(8.54187 0.359354 0)
(8.57197 0.299115 0)
(8.55688 0.25338 0)
(8.51616 0.218259 0)
(8.4608 0.190728 0)
(8.39722 0.168515 0)
(8.3296 0.150022 0)
(8.26066 0.134279 0)
(8.19223 0.120648 0)
(8.12566 0.108684 0)
(8.06179 0.0980889 0)
(8.00112 0.08863 0)
(7.94395 0.0801136 0)
(7.89042 0.0723721 0)
(7.84059 0.0652596 0)
(7.79444 0.0586474 0)
(7.75192 0.052421 0)
(7.71296 0.0464774 0)
(7.6775 0.0407225 0)
(7.64546 0.0350779 0)
(7.61677 0.0294631 0)
(7.5914 0.0238128 0)
(7.5693 0.0180681 0)
(7.55048 0.0122687 0)
(7.53495 0.00636573 0)
(7.52277 0.000592696 0)
(7.51412 -0.00515119 0)
(7.50953 -0.00965194 0)
(7.5108 -0.0132945 0)
(7.39682 0.251053 0)
(7.67998 0.421159 0)
(7.92341 0.404247 0)
(8.07742 0.3545 0)
(8.188 0.300083 0)
(8.27044 0.25478 0)
(8.33151 0.221257 0)
(8.37853 0.195827 0)
(8.41544 0.175731 0)
(8.44429 0.159301 0)
(8.46661 0.145428 0)
(8.4836 0.133428 0)
(8.49622 0.122875 0)
(8.50502 0.113457 0)
(8.51063 0.104936 0)
(8.51365 0.0971254 0)
(8.5146 0.0898764 0)
(8.51393 0.0830655 0)
(8.51205 0.0765871 0)
(8.5093 0.0703478 0)
(8.50597 0.0642631 0)
(8.50232 0.0582545 0)
(8.4986 0.0522477 0)
(8.49501 0.0461739 0)
(8.49173 0.0399679 0)
(8.48896 0.0335726 0)
(8.48687 0.0269368 0)
(8.48566 0.0200464 0)
(8.48553 0.0128671 0)
(8.48683 0.0055109 0)
(8.48978 -0.00205152 0)
(8.49518 -0.00944242 0)
(8.50413 -0.0171002 0)
(7.37403 0.180706 0)
(7.57413 0.336234 0)
(7.76086 0.342591 0)
(7.87536 0.313633 0)
(7.95161 0.274737 0)
(8.00705 0.236902 0)
(8.0486 0.205918 0)
(8.08294 0.181239 0)
(8.1135 0.161381 0)
(8.14146 0.14519 0)
(8.16737 0.131695 0)
(8.19154 0.120181 0)
(8.21416 0.11018 0)
(8.23548 0.101362 0)
(8.25559 0.0934556 0)
(8.27457 0.0862515 0)
(8.2925 0.0795862 0)
(8.30944 0.073327 0)
(8.32546 0.0673612 0)
(8.34064 0.0615904 0)
(8.35505 0.0559252 0)
(8.36877 0.0502828 0)
(8.38187 0.0445847 0)
(8.39442 0.0387565 0)
(8.40651 0.0327262 0)
(8.41822 0.026425 0)
(8.42964 0.0197855 0)
(8.4409 0.0127616 0)
(8.45217 0.00529246 0)
(8.46368 -0.00262642 0)
(8.47586 -0.0111172 0)
(8.48956 -0.0202379 0)
(8.50537 -0.0306023 0)
(7.35905 0.132782 0)
(7.50332 0.273276 0)
(7.6557 0.295294 0)
(7.75571 0.278787 0)
(7.82179 0.249527 0)
(7.86871 0.217977 0)
(7.90208 0.190681 0)
(7.92764 0.168371 0)
(7.9491 0.150054 0)
(7.96808 0.134847 0)
(7.98545 0.122 0)
(8.00174 0.110937 0)
(8.01725 0.101243 0)
(8.03214 0.0926172 0)
(8.04651 0.0848364 0)
(8.06045 0.0777242 0)
(8.07401 0.071135 0)
(8.08721 0.0649439 0)
(8.10009 0.0590416 0)
(8.11266 0.05333 0)
(8.12494 0.0477192 0)
(8.13696 0.0421251 0)
(8.14872 0.0364674 0)
(8.16027 0.0306686 0)
(8.17162 0.0246512 0)
(8.18281 0.0183384 0)
(8.1939 0.011649 0)
(8.20496 0.00450305 0)
(8.21613 -0.00320373 0)
(8.22767 -0.0115899 0)
(8.23982 -0.0209188 0)
(8.25317 -0.031498 0)
(8.26798 -0.0440829 0)
(7.34965 0.0990787 0)
(7.45343 0.220665 0)
(7.57648 0.25068 0)
(7.66517 0.244221 0)
(7.72692 0.224873 0)
(7.77257 0.20108 0)
(7.8059 0.17862 0)
(7.83123 0.159119 0)
(7.85192 0.142362 0)
(7.86967 0.127971 0)
(7.88543 0.115546 0)
(7.89984 0.104695 0)
(7.91327 0.0951054 0)
(7.92596 0.0865331 0)
(7.93807 0.0787805 0)
(7.94972 0.0716794 0)
(7.96098 0.0650865 0)
(7.97192 0.0588789 0)
(7.98259 0.0529488 0)
(7.99302 0.0471992 0)
(8.00325 0.0415406 0)
(8.01331 0.0358887 0)
(8.02321 0.0301614 0)
(8.033 0.0242779 0)
(8.0427 0.018155 0)
(8.05236 0.011706 0)
(8.06201 0.00483364 0)
(8.07174 -0.00257189 0)
(8.08164 -0.0106606 0)
(8.09186 -0.0196206 0)
(8.10256 -0.0297553 0)
(8.11405 -0.0414848 0)
(8.1264 -0.0554893 0)
(7.34381 0.0751154 0)
(7.4192 0.178699 0)
(7.518 0.213231 0)
(7.59534 0.214374 0)
(7.65179 0.202135 0)
(7.69515 0.183847 0)
(7.72813 0.164894 0)
(7.75382 0.147606 0)
(7.77503 0.132332 0)
(7.79327 0.118968 0)
(7.80943 0.107281 0)
(7.82411 0.0969819 0)
(7.83769 0.0878108 0)
(7.85043 0.0795562 0)
(7.86249 0.0720406 0)
(7.87401 0.0651133 0)
(7.88508 0.058646 0)
(7.89577 0.0525265 0)
(7.90612 0.0466547 0)
(7.91619 0.0409384 0)
(7.92601 0.0352912 0)
(7.93561 0.0296301 0)
(7.94502 0.0238733 0)
(7.95426 0.0179382 0)
(7.96338 0.0117382 0)
(7.97239 0.00517997 0)
(7.98133 -0.00184375 0)
(7.99027 -0.00945837 0)
(7.99924 -0.0178284 0)
(8.00834 -0.0271663 0)
(8.01762 -0.0377867 0)
(8.0272 -0.0501363 0)
(8.03698 -0.0647716 0)
(7.34017 0.0578638 0)
(7.39553 0.145008 0)
(7.47465 0.180622 0)
(7.54153 0.186735 0)
(7.59272 0.179837 0)
(7.63347 0.166404 0)
(7.66559 0.151082 0)
(7.69118 0.136322 0)
(7.7125 0.122783 0)
(7.73092 0.11058 0)
(7.74725 0.0996608 0)
(7.76207 0.089874 0)
(7.77575 0.0810495 0)
(7.78857 0.0730321 0)
(7.80067 0.0656823 0)
(7.81221 0.0588738 0)
(7.82326 0.0524929 0)
(7.8339 0.0464363 0)
(7.84417 0.0406091 0)
(7.85412 0.0349224 0)
(7.86377 0.0292922 0)
(7.87317 0.0236366 0)
(7.88233 0.0178743 0)
(7.89127 0.011922 0)
(7.90001 0.00569138 0)
(7.90857 -0.000914071 0)
(7.91697 -0.00800553 0)
(7.92524 -0.0157148 0)
(7.93339 -0.0242109 0)
(7.94143 -0.0337107 0)
(7.94935 -0.044509 0)
(7.9571 -0.05701 0)
(7.96447 -0.0716136 0)
(7.33788 0.0452035 0)
(7.37904 0.117905 0)
(7.44246 0.152571 0)
(7.50001 0.162042 0)
(7.54621 0.15925 0)
(7.58419 0.149732 0)
(7.6151 0.137411 0)
(7.6403 0.124727 0)
(7.66156 0.112616 0)
(7.68006 0.101402 0)
(7.69651 0.0911792 0)
(7.71145 0.0819007 0)
(7.72524 0.0734602 0)
(7.73812 0.0657402 0)
(7.75027 0.058625 0)
(7.76181 0.0520037 0)
(7.77283 0.0457733 0)
(7.7834 0.0398384 0)
(7.79358 0.0341101 0)
(7.80339 0.0285045 0)
(7.81288 0.022941 0)
(7.82206 0.0173404 0)
(7.83095 0.0116235 0)
(7.83957 0.00570854 0)
(7.84792 -0.000491424 0)
(7.85602 -0.00707186 0)
(7.86387 -0.0141419 0)
(7.87145 -0.0218303 0)
(7.87875 -0.0302965 0)
(7.88573 -0.0397378 0)
(7.8923 -0.0504016 0)
(7.89832 -0.062616 0)
(7.90353 -0.0766355 0)
(7.33643 0.0357296 0)
(7.36747 0.0960408 0)
(7.41841 0.128429 0)
(7.46772 0.139764 0)
(7.50919 0.139827 0)
(7.54439 0.133328 0)
(7.57394 0.123575 0)
(7.59864 0.112853 0)
(7.61977 0.102214 0)
(7.6383 0.0920921 0)
(7.65487 0.0826721 0)
(7.66994 0.073986 0)
(7.68384 0.0659867 0)
(7.69681 0.0585989 0)
(7.70902 0.0517371 0)
(7.72058 0.0453131 0)
(7.7316 0.0392398 0)
(7.74213 0.0334333 0)
(7.75223 0.0278133 0)
(7.76192 0.0223018 0)
(7.77125 0.016823 0)
(7.78023 0.0113018 0)
(7.78887 0.00566248 0)
(7.79718 -0.000173189 0)
(7.80516 -0.00628808 0)
(7.8128 -0.0127726 0)
(7.82009 -0.0197286 0)
(7.827 -0.0272734 0)
(7.83347 -0.0355463 0)
(7.83943 -0.0447121 0)
(7.84476 -0.0549625 0)
(7.84922 -0.0665408 0)
(7.8526 -0.0795774 0)
(7.33549 0.0284887 0)
(7.35925 0.0782899 0)
(7.40035 0.107645 0)
(7.44251 0.119754 0)
(7.47961 0.121772 0)
(7.5121 0.117608 0)
(7.54015 0.109995 0)
(7.56416 0.100972 0)
(7.58502 0.0916223 0)
(7.60351 0.0824632 0)
(7.62013 0.0737568 0)
(7.6353 0.0656055 0)
(7.64932 0.0580163 0)
(7.66239 0.0509508 0)
(7.67469 0.0443491 0)
(7.68631 0.0381407 0)
(7.69735 0.032251 0)
(7.70787 0.026605 0)
(7.71792 0.0211289 0)
(7.72753 0.0157505 0)
(7.73672 0.0103985 0)
(7.74552 0.00500262 0)
(7.75393 -0.000508301 0)
(7.76195 -0.0062071 0)
(7.76958 -0.0121699 0)
(7.77678 -0.0184788 0)
(7.78355 -0.0252235 0)
(7.78981 -0.0325043 0)
(7.79552 -0.0404337 0)
(7.80055 -0.0491383 0)
(7.80477 -0.0587512 0)
(7.80793 -0.0694329 0)
(7.80982 -0.0812147 0)
(7.33486 0.0228353 0)
(7.35334 0.0637682 0)
(7.38671 0.0897313 0)
(7.42275 0.101778 0)
(7.45586 0.104974 0)
(7.48572 0.102484 0)
(7.51222 0.0965574 0)
(7.53544 0.0889718 0)
(7.55594 0.0807832 0)
(7.5743 0.0725471 0)
(7.59094 0.0645674 0)
(7.60619 0.0569897 0)
(7.62031 0.0498583 0)
(7.63349 0.0431632 0)
(7.64586 0.0368666 0)
(7.65755 0.0309145 0)
(7.66862 0.0252456 0)
(7.67914 0.0197951 0)
(7.68915 0.0144976 0)
(7.69868 0.00928784 0)
(7.70775 0.00410101 0)
(7.71638 -0.0011273 0)
(7.72457 -0.00646176 0)
(7.73232 -0.0119679 0)
(7.7396 -0.0177134 0)
(7.74641 -0.0237688 0)
(7.75268 -0.0302089 0)
(7.75837 -0.0371129 0)
(7.76338 -0.0445645 0)
(7.76761 -0.0526503 0)
(7.77091 -0.0614496 0)
(7.77303 -0.0710503 0)
(7.77379 -0.0814113 0)
(7.33444 0.0183278 0)
(7.34904 0.0517735 0)
(7.37635 0.0742406 0)
(7.40722 0.085616 0)
(7.43673 0.08938 0)
(7.46414 0.088035 0)
(7.48908 0.0834135 0)
(7.51142 0.0770236 0)
(7.53148 0.0698447 0)
(7.54964 0.0624345 0)
(7.56624 0.0551183 0)
(7.58152 0.0480721 0)
(7.59571 0.0413709 0)
(7.60897 0.0350306 0)
(7.62143 0.0290329 0)
(7.63317 0.0233397 0)
(7.64428 0.0179013 0)
(7.6548 0.0126623 0)
(7.66478 0.00756491 0)
(7.67424 0.00255034 0)
(7.68321 -0.00243993 0)
(7.69169 -0.00746397 0)
(7.69969 -0.0125794 0)
(7.70718 -0.0178437 0)
(7.71417 -0.0233144 0)
(7.7206 -0.0290494 0)
(7.72644 -0.0351069 0)
(7.73162 -0.0415443 0)
(7.73606 -0.0484166 0)
(7.73963 -0.0557735 0)
(7.7422 -0.0636479 0)
(7.74355 -0.072069 0)
(7.74354 -0.0809464 0)
(7.33414 0.0146603 0)
(7.34588 0.0417557 0)
(7.36843 0.0607802 0)
(7.39497 0.0710556 0)
(7.42131 0.0748995 0)
(7.44645 0.0742424 0)
(7.46987 0.0705601 0)
(7.4913 0.0651118 0)
(7.51085 0.0587778 0)
(7.52877 0.052096 0)
(7.54527 0.0453956 0)
(7.56056 0.0388676 0)
(7.57481 0.0326063 0)
(7.58814 0.0266445 0)
(7.60067 0.0209784 0)
(7.61247 0.0155817 0)
(7.62361 0.0104145 0)
(7.63414 0.00542987 0)
(7.6441 0.000577121 0)
(7.6535 -0.00419564 0)
(7.66237 -0.00894029 0)
(7.67072 -0.0137079 0)
(7.67853 -0.0185485 0)
(7.6858 -0.0235104 0)
(7.69251 -0.0286403 0)
(7.69863 -0.0339827 0)
(7.7041 -0.0395789 0)
(7.70886 -0.0454653 0)
(7.71282 -0.0516708 0)
(7.71589 -0.058213 0)
(7.71793 -0.065088 0)
(7.71877 -0.072281 0)
(7.7183 -0.0796715 0)
(7.33393 0.0116175 0)
(7.34352 0.0332839 0)
(7.36237 0.0490049 0)
(7.38531 0.0578891 0)
(7.40887 0.0614306 0)
(7.43195 0.061085 0)
(7.45395 0.0580276 0)
(7.47447 0.053293 0)
(7.49348 0.0476499 0)
(7.51111 0.041596 0)
(7.52749 0.0354485 0)
(7.54275 0.029401 0)
(7.55703 0.0235578 0)
(7.57041 0.0179637 0)
(7.583 0.012626 0)
(7.59486 0.00752843 0)
(7.60603 0.00263982 0)
(7.61658 -0.00207913 0)
(7.62652 -0.0066721 0)
(7.63588 -0.0111844 0)
(7.64467 -0.0156613 0)
(7.65289 -0.0201468 0)
(7.66056 -0.0246831 0)
(7.66764 -0.0293094 0)
(7.67412 -0.0340616 0)
(7.67997 -0.0389712 0)
(7.68514 -0.0440637 0)
(7.68958 -0.0493568 0)
(7.6932 -0.0548569 0)
(7.69592 -0.0605566 0)
(7.69763 -0.0664242 0)
(7.69818 -0.0724143 0)
(7.69753 -0.0783923 0)
(7.33377 0.00904489 0)
(7.34175 0.0260202 0)
(7.35769 0.0386154 0)
(7.37769 0.0459199 0)
(7.39886 0.0488624 0)
(7.42011 0.0485167 0)
(7.44078 0.0458061 0)
(7.46042 0.0415692 0)
(7.4789 0.036461 0)
(7.49622 0.030929 0)
(7.51246 0.0252684 0)
(7.52768 0.0196665 0)
(7.54196 0.0142301 0)
(7.5554 0.00901001 0)
(7.56804 0.0040203 0)
(7.57995 -0.000748864 0)
(7.59116 -0.00532219 0)
(7.60172 -0.00973317 0)
(7.61165 -0.0140198 0)
(7.62097 -0.0182217 0)
(7.62969 -0.0223781 0)
(7.63783 -0.0265264 0)
(7.64536 -0.0307011 0)
(7.65229 -0.034933 0)
(7.65859 -0.0392478 0)
(7.66423 -0.0436651 0)
(7.66917 -0.0481966 0)
(7.67337 -0.0528443 0)
(7.67677 -0.0575971 0)
(7.67927 -0.0624287 0)
(7.68082 -0.0672892 0)
(7.6813 -0.0721141 0)
(7.68069 -0.0767665 0)
(7.33365 0.00682873 0)
(7.34041 0.019698 0)
(7.35409 0.0293528 0)
(7.37169 0.0349612 0)
(7.39083 0.0370765 0)
(7.41048 0.036475 0)
(7.42996 0.0338722 0)
(7.4488 0.0299384 0)
(7.46676 0.0252198 0)
(7.48378 0.0201062 0)
(7.49987 0.0148626 0)
(7.51503 0.00966155 0)
(7.52933 0.00460505 0)
(7.54281 -0.000255756 0)
(7.5555 -0.00490407 0)
(7.56746 -0.00934577 0)
(7.57872 -0.0136011 0)
(7.58931 -0.0176987 0)
(7.59924 -0.0216718 0)
(7.60854 -0.0255546 0)
(7.61722 -0.0293806 0)
(7.62528 -0.0331811 0)
(7.63272 -0.0369834 0)
(7.63953 -0.0408103 0)
(7.6457 -0.0446783 0)
(7.6512 -0.048597 0)
(7.656 -0.0525666 0)
(7.66006 -0.0565769 0)
(7.66333 -0.0606039 0)
(7.66576 -0.0646087 0)
(7.66731 -0.0685308 0)
(7.66788 -0.0722961 0)
(7.66749 -0.0757736 0)
(7.33356 0.0048834 0)
(7.33939 0.014105 0)
(7.35132 0.0209931 0)
(7.36699 0.0248372 0)
(7.38444 0.0259509 0)
(7.40273 0.0248851 0)
(7.42118 0.0221866 0)
(7.43929 0.0183836 0)
(7.45678 0.0139221 0)
(7.47352 0.0091321 0)
(7.48946 0.00424369 0)
(7.50458 -0.000590713 0)
(7.51889 -0.00527911 0)
(7.53241 -0.00977434 0)
(7.54516 -0.0140606 0)
(7.55717 -0.0181428 0)
(7.56848 -0.0220394 0)
(7.57909 -0.0257763 0)
(7.58904 -0.0293835 0)
(7.59833 -0.0328913 0)
(7.60698 -0.036329 0)
(7.61499 -0.0397224 0)
(7.62236 -0.0430935 0)
(7.6291 -0.0464581 0)
(7.63517 -0.0498256 0)
(7.64058 -0.0531974 0)
(7.6453 -0.0565654 0)
(7.6493 -0.0599105 0)
(7.65255 -0.0632006 0)
(7.65502 -0.0663897 0)
(7.65668 -0.0694133 0)
(7.65747 -0.0721953 0)
(7.65744 -0.074616 0)
(7.33349 0.00314244 0)
(7.33862 0.00906935 0)
(7.3492 0.013341 0)
(7.36335 0.0153814 0)
(7.37943 0.0153578 0)
(7.39659 0.0136552 0)
(7.41417 0.0106849 0)
(7.43166 0.00685587 0)
(7.44875 0.00252313 0)
(7.46527 -0.00204319 0)
(7.4811 -0.00665149 0)
(7.49619 -0.0111741 0)
(7.51053 -0.0155339 0)
(7.52411 -0.0196922 0)
(7.53693 -0.0236374 0)
(7.54902 -0.0273762 0)
(7.56039 -0.0309268 0)
(7.57105 -0.0343141 0)
(7.58103 -0.0375655 0)
(7.59034 -0.0407086 0)
(7.59898 -0.0437687 0)
(7.60698 -0.0467676 0)
(7.61432 -0.049722 0)
(7.62102 -0.0526427 0)
(7.62706 -0.0555331 0)
(7.63244 -0.0583885 0)
(7.63715 -0.0611951 0)
(7.64116 -0.0639281 0)
(7.64448 -0.0665514 0)
(7.64708 -0.0690162 0)
(7.64895 -0.0712589 0)
(7.65006 -0.073206 0)
(7.65048 -0.0747524 0)
(7.33344 0.00155244 0)
(7.33804 0.00444871 0)
(7.34761 0.00622432 0)
(7.36059 0.00643644 0)
(7.37559 0.00516982 0)
(7.39184 0.00269134 0)
(7.40873 -0.000693733 0)
(7.42573 -0.00467469 0)
(7.44251 -0.00897666 0)
(7.45884 -0.0133868 0)
(7.4746 -0.0177536 0)
(7.4897 -0.0219768 0)
(7.50408 -0.0259982 0)
(7.51773 -0.0297916 0)
(7.53063 -0.0333533 0)
(7.5428 -0.0366949 0)
(7.55424 -0.0398377 0)
(7.56496 -0.0428074 0)
(7.57499 -0.0456316 0)
(7.58432 -0.0483365 0)
(7.59298 -0.0509457 0)
(7.60097 -0.0534783 0)
(7.60831 -0.0559478 0)
(7.615 -0.0583612 0)
(7.62104 -0.0607184 0)
(7.62644 -0.0630109 0)
(7.63118 -0.0652214 0)
(7.63528 -0.067323 0)
(7.63872 -0.0692783 0)
(7.64151 -0.07104 0)
(7.64366 -0.0725484 0)
(7.64516 -0.0737371 0)
(7.64608 -0.0745166 0)
(7.33341 6.90944e-05 0)
(7.33763 0.000121474 0)
(7.34646 -0.000513554 0)
(7.35857 -0.00215379 0)
(7.37277 -0.00475545 0)
(7.38835 -0.00813464 0)
(7.40473 -0.0120701 0)
(7.42139 -0.0163336 0)
(7.43797 -0.0207222 0)
(7.45423 -0.0250781 0)
(7.46999 -0.0292905 0)
(7.48515 -0.033289 0)
(7.49963 -0.0370367 0)
(7.51339 -0.0405219 0)
(7.52641 -0.0437509 0)
(7.5387 -0.0467422 0)
(7.55024 -0.0495208 0)
(7.56105 -0.0521149 0)
(7.57115 -0.0545529 0)
(7.58054 -0.0568609 0)
(7.58925 -0.0590614 0)
(7.59728 -0.0611718 0)
(7.60465 -0.0632038 0)
(7.61137 -0.0651622 0)
(7.61745 -0.0670447 0)
(7.6229 -0.0688409 0)
(7.62774 -0.0705325 0)
(7.63196 -0.0720926 0)
(7.63558 -0.0734854 0)
(7.63862 -0.074667 0)
(7.64109 -0.0755842 0)
(7.64301 -0.0761791 0)
(7.64445 -0.0763774 0)
(7.33338 -0.00134614 0)
(7.33734 -0.00401959 0)
(7.34567 -0.00701587 0)
(7.35719 -0.010535 0)
(7.37085 -0.014545 0)
(7.38599 -0.0189157 0)
(7.40205 -0.0234889 0)
(7.41851 -0.028104 0)
(7.43501 -0.0326208 0)
(7.45126 -0.0369338 0)
(7.46709 -0.0409741 0)
(7.48235 -0.0447045 0)
(7.49696 -0.0481133 0)
(7.51087 -0.0512082 0)
(7.52403 -0.0540102 0)
(7.53644 -0.0565481 0)
(7.5481 -0.0588546 0)
(7.55901 -0.060963 0)
(7.56919 -0.0629051 0)
(7.57865 -0.0647088 0)
(7.58741 -0.0663975 0)
(7.59549 -0.0679885 0)
(7.60291 -0.0694931 0)
(7.60969 -0.0709155 0)
(7.61583 -0.0722527 0)
(7.62137 -0.0734943 0)
(7.62632 -0.0746227 0)
(7.6307 -0.0756125 0)
(7.63453 -0.0764316 0)
(7.63783 -0.0770411 0)
(7.64065 -0.0773955 0)
(7.643 -0.0774471 0)
(7.64497 -0.0771357 0)
(7.33337 -0.00272928 0)
(7.33718 -0.00807653 0)
(7.34522 -0.0134289 0)
(7.35641 -0.0188778 0)
(7.36979 -0.0243883 0)
(7.38474 -0.0298685 0)
(7.40071 -0.0352123 0)
(7.41717 -0.0403178 0)
(7.43375 -0.0451017 0)
(7.45015 -0.0495075 0)
(7.46617 -0.0535062 0)
(7.48165 -0.0570923 0)
(7.49648 -0.0602792 0)
(7.5106 -0.0630939 0)
(7.52396 -0.0655719 0)
(7.53655 -0.0677532 0)
(7.54837 -0.069679 0)
(7.55943 -0.0713887 0)
(7.56972 -0.0729183 0)
(7.57929 -0.074299 0)
(7.58813 -0.0755562 0)
(7.59629 -0.0767087 0)
(7.60379 -0.0777687 0)
(7.61064 -0.0787411 0)
(7.61688 -0.0796243 0)
(7.62253 -0.0804092 0)
(7.62762 -0.0810803 0)
(7.63218 -0.0816158 0)
(7.63623 -0.0819878 0)
(7.63981 -0.0821638 0)
(7.64297 -0.0821061 0)
(7.64573 -0.0817761 0)
(7.64817 -0.0811265 0)
(7.33336 -0.00411483 0)
(7.33712 -0.0121453 0)
(7.34507 -0.0198834 0)
(7.35618 -0.0273107 0)
(7.36951 -0.0343724 0)
(7.3845 -0.0409961 0)
(7.40056 -0.0471145 0)
(7.41718 -0.0526771 0)
(7.43397 -0.0576559 0)
(7.45062 -0.0620466 0)
(7.46691 -0.0658663 0)
(7.48265 -0.0691486 0)
(7.49775 -0.0719391 0)
(7.51212 -0.0742906 0)
(7.52572 -0.0762587 0)
(7.53852 -0.0778989 0)
(7.55052 -0.0792637 0)
(7.56172 -0.0804013 0)
(7.57216 -0.0813537 0)
(7.58183 -0.0821566 0)
(7.59078 -0.0828381 0)
(7.59903 -0.0834194 0)
(7.60662 -0.0839143 0)
(7.61356 -0.0843293 0)
(7.6199 -0.0846643 0)
(7.62567 -0.0849125 0)
(7.63091 -0.0850611 0)
(7.63564 -0.0850922 0)
(7.63991 -0.0849827 0)
(7.64377 -0.0847065 0)
(7.64725 -0.0842339 0)
(7.65039 -0.0835356 0)
(7.6533 -0.0825751 0)
(7.33337 -0.0055398 0)
(7.33718 -0.0163384 0)
(7.34525 -0.0265641 0)
(7.35655 -0.0360986 0)
(7.37015 -0.0448707 0)
(7.38547 -0.0528273 0)
(7.40194 -0.0599358 0)
(7.419 -0.0661901 0)
(7.43626 -0.0716084 0)
(7.45338 -0.0762295 0)
(7.47011 -0.0801088 0)
(7.48628 -0.0833138 0)
(7.50177 -0.0859186 0)
(7.51649 -0.0880003 0)
(7.5304 -0.0896345 0)
(7.54347 -0.0908933 0)
(7.5557 -0.0918427 0)
(7.5671 -0.0925415 0)
(7.57769 -0.0930404 0)
(7.58751 -0.0933816 0)
(7.59657 -0.093599 0)
(7.60493 -0.0937179 0)
(7.6126 -0.0937557 0)
(7.61965 -0.0937223 0)
(7.62609 -0.0936208 0)
(7.63198 -0.0934479 0)
(7.63735 -0.0931946 0)
(7.64226 -0.0928473 0)
(7.64673 -0.0923884 0)
(7.65082 -0.0917975 0)
(7.65458 -0.0910519 0)
(7.65805 -0.0901295 0)
(7.6613 -0.0890022 0)
(7.33338 -0.00704248 0)
(7.33734 -0.0207513 0)
(7.34571 -0.0335691 0)
(7.35743 -0.0452549 0)
(7.37152 -0.055704 0)
(7.38739 -0.0648739 0)
(7.40443 -0.0727708 0)
(7.42209 -0.0794472 0)
(7.43994 -0.0849871 0)
(7.45764 -0.0894919 0)
(7.47492 -0.0930727 0)
(7.49161 -0.095844 0)
(7.50757 -0.0979186 0)
(7.52271 -0.0994037 0)
(7.53699 -0.100398 0)
(7.55038 -0.100993 0)
(7.56289 -0.101267 0)
(7.57452 -0.101288 0)
(7.58531 -0.101116 0)
(7.59528 -0.100798 0)
(7.60449 -0.100371 0)
(7.61296 -0.0998654 0)
(7.62074 -0.0993001 0)
(7.62789 -0.0986881 0)
(7.63444 -0.0980351 0)
(7.64044 -0.0973408 0)
(7.64595 -0.0965999 0)
(7.651 -0.0958028 0)
(7.65565 -0.0949367 0)
(7.65996 -0.0939868 0)
(7.66396 -0.0929364 0)
(7.66772 -0.0917711 0)
(7.67131 -0.0904689 0)
(7.33341 -0.00867672 0)
(7.33766 -0.0255745 0)
(7.34665 -0.0412845 0)
(7.3592 -0.0554665 0)
(7.37426 -0.0680024 0)
(7.39115 -0.0788581 0)
(7.40923 -0.0880568 0)
(7.42791 -0.0956811 0)
(7.4467 -0.101853 0)
(7.46527 -0.106716 0)
(7.48333 -0.110424 0)
(7.50071 -0.113134 0)
(7.51726 -0.114997 0)
(7.53291 -0.116154 0)
(7.54762 -0.116736 0)
(7.56137 -0.116857 0)
(7.57416 -0.116617 0)
(7.58604 -0.116102 0)
(7.59702 -0.115384 0)
(7.60714 -0.11452 0)
(7.61647 -0.113557 0)
(7.62504 -0.11253 0)
(7.63291 -0.111464 0)
(7.64014 -0.110376 0)
(7.64676 -0.109277 0)
(7.65285 -0.108168 0)
(7.65844 -0.107049 0)
(7.6636 -0.105914 0)
(7.66838 -0.104755 0)
(7.67282 -0.103559 0)
(7.67699 -0.102316 0)
(7.68092 -0.101015 0)
(7.6847 -0.0996381 0)
(7.33344 -0.0104876 0)
(7.33806 -0.0308495 0)
(7.34782 -0.0495348 0)
(7.36136 -0.0660437 0)
(7.37752 -0.0802503 0)
(7.39558 -0.0921785 0)
(7.41485 -0.101943 0)
(7.4347 -0.10973 0)
(7.45463 -0.115758 0)
(7.47425 -0.120251 0)
(7.4933 -0.123427 0)
(7.51155 -0.125492 0)
(7.52888 -0.126634 0)
(7.5452 -0.127024 0)
(7.56048 -0.126812 0)
(7.57471 -0.12613 0)
(7.58791 -0.125089 0)
(7.6001 -0.123786 0)
(7.61134 -0.122298 0)
(7.62168 -0.12069 0)
(7.63116 -0.119012 0)
(7.63986 -0.117303 0)
(7.64783 -0.115593 0)
(7.65514 -0.113901 0)
(7.66184 -0.11224 0)
(7.668 -0.110617 0)
(7.67367 -0.109033 0)
(7.67891 -0.107486 0)
(7.68378 -0.105972 0)
(7.68834 -0.104482 0)
(7.69264 -0.10301 0)
(7.69673 -0.10155 0)
(7.70069 -0.100085 0)
(7.33352 -0.0125958 0)
(7.33889 -0.0371301 0)
(7.3501 -0.0596598 0)
(7.3655 -0.0795655 0)
(7.38366 -0.0966811 0)
(7.40371 -0.11098 0)
(7.42486 -0.122552 0)
(7.44641 -0.131607 0)
(7.46785 -0.138417 0)
(7.48878 -0.143278 0)
(7.50895 -0.146482 0)
(7.52815 -0.148309 0)
(7.54628 -0.149017 0)
(7.56327 -0.148831 0)
(7.57909 -0.147951 0)
(7.59376 -0.146545 0)
(7.6073 -0.144755 0)
(7.61977 -0.142698 0)
(7.63121 -0.140469 0)
(7.64169 -0.138144 0)
(7.65128 -0.135782 0)
(7.66005 -0.133427 0)
(7.66807 -0.131113 0)
(7.67539 -0.128862 0)
(7.68211 -0.126691 0)
(7.68826 -0.124607 0)
(7.69393 -0.122614 0)
(7.69917 -0.120712 0)
(7.70404 -0.118897 0)
(7.7086 -0.117165 0)
(7.7129 -0.115508 0)
(7.71699 -0.113922 0)
(7.72094 -0.112392 0)
(7.33355 -0.0150094 0)
(7.33951 -0.0439172 0)
(7.35204 -0.0697301 0)
(7.36915 -0.091735 0)
(7.38925 -0.110004 0)
(7.4114 -0.124771 0)
(7.43473 -0.136339 0)
(7.45842 -0.145082 0)
(7.48187 -0.151378 0)
(7.50465 -0.155585 0)
(7.52646 -0.15804 0)
(7.54709 -0.15905 0)
(7.56644 -0.158892 0)
(7.58444 -0.15781 0)
(7.6011 -0.156016 0)
(7.61644 -0.153692 0)
(7.63052 -0.150991 0)
(7.6434 -0.148041 0)
(7.65515 -0.144946 0)
(7.66586 -0.141789 0)
(7.67562 -0.138636 0)
(7.68449 -0.135538 0)
(7.69258 -0.132533 0)
(7.69995 -0.129647 0)
(7.70667 -0.126899 0)
(7.71283 -0.124301 0)
(7.71849 -0.121859 0)
(7.72372 -0.119575 0)
(7.72858 -0.117447 0)
(7.73313 -0.115474 0)
(7.73744 -0.113649 0)
(7.74155 -0.111971 0)
(7.74555 -0.11042 0)
(7.33381 -0.0181796 0)
(7.34175 -0.0536892 0)
(7.35764 -0.0858158 0)
(7.37851 -0.113453 0)
(7.40215 -0.136375 0)
(7.42749 -0.154612 0)
(7.45358 -0.168474 0)
(7.47963 -0.17849 0)
(7.50509 -0.185235 0)
(7.52957 -0.189264 0)
(7.55283 -0.191091 0)
(7.57468 -0.191173 0)
(7.59505 -0.189902 0)
(7.6139 -0.18761 0)
(7.63125 -0.184572 0)
(7.64714 -0.181013 0)
(7.66164 -0.177114 0)
(7.67483 -0.173021 0)
(7.6868 -0.168848 0)
(7.69765 -0.164683 0)
(7.70747 -0.160595 0)
(7.71635 -0.156633 0)
(7.72439 -0.152834 0)
(7.73167 -0.149223 0)
(7.73828 -0.145818 0)
(7.7443 -0.142629 0)
(7.7498 -0.139661 0)
(7.75485 -0.136916 0)
(7.75951 -0.134393 0)
(7.76386 -0.132088 0)
(7.76794 -0.129997 0)
(7.77182 -0.128115 0)
(7.77554 -0.126421 0)
(7.3337 -0.0216118 0)
(7.34208 -0.0620609 0)
(7.35992 -0.0962861 0)
(7.38378 -0.12425 0)
(7.41118 -0.146866 0)
(7.44073 -0.164643 0)
(7.47107 -0.178054 0)
(7.50109 -0.187652 0)
(7.5301 -0.193972 0)
(7.55765 -0.197512 0)
(7.58347 -0.198748 0)
(7.60741 -0.198124 0)
(7.62942 -0.196034 0)
(7.64953 -0.192828 0)
(7.6678 -0.188807 0)
(7.68434 -0.184222 0)
(7.69926 -0.179284 0)
(7.71269 -0.174162 0)
(7.72475 -0.168991 0)
(7.73557 -0.163877 0)
(7.74526 -0.158899 0)
(7.75395 -0.154116 0)
(7.76174 -0.149572 0)
(7.76874 -0.145294 0)
(7.77503 -0.141303 0)
(7.78071 -0.137609 0)
(7.78585 -0.134219 0)
(7.79053 -0.131134 0)
(7.79482 -0.128354 0)
(7.7988 -0.125878 0)
(7.80252 -0.123697 0)
(7.80604 -0.121811 0)
(7.80945 -0.120189 0)
(7.33482 -0.0279721 0)
(7.3495 -0.0827573 0)
(7.37514 -0.13021 0)
(7.40545 -0.168467 0)
(7.43768 -0.19787 0)
(7.47106 -0.21921 0)
(7.50448 -0.233733 0)
(7.537 -0.242767 0)
(7.56807 -0.247453 0)
(7.5973 -0.24875 0)
(7.62445 -0.247462 0)
(7.64941 -0.244242 0)
(7.67217 -0.239614 0)
(7.69279 -0.233998 0)
(7.71137 -0.227726 0)
(7.72804 -0.221061 0)
(7.74296 -0.214211 0)
(7.75628 -0.207335 0)
(7.76816 -0.200556 0)
(7.77875 -0.193968 0)
(7.78819 -0.187638 0)
(7.79661 -0.181614 0)
(7.80413 -0.17593 0)
(7.81086 -0.170608 0)
(7.8169 -0.165658 0)
(7.82234 -0.161089 0)
(7.82726 -0.156903 0)
(7.83174 -0.1531 0)
(7.83585 -0.149681 0)
(7.83965 -0.146643 0)
(7.8432 -0.143984 0)
(7.84657 -0.141703 0)
(7.84982 -0.139766 0)
(7.33379 -0.0317541 0)
(7.34764 -0.0862753 0)
(7.37773 -0.129071 0)
(7.41568 -0.164247 0)
(7.45659 -0.193067 0)
(7.49822 -0.215207 0)
(7.53867 -0.231109 0)
(7.57696 -0.241538 0)
(7.61278 -0.247242 0)
(7.64607 -0.249018 0)
(7.67687 -0.247669 0)
(7.70529 -0.243929 0)
(7.7315 -0.238438 0)
(7.75563 -0.231733 0)
(7.77784 -0.224254 0)
(7.79828 -0.216351 0)
(7.81706 -0.208292 0)
(7.83431 -0.200283 0)
(7.85017 -0.192475 0)
(7.86474 -0.184974 0)
(7.87814 -0.177856 0)
(7.89046 -0.171169 0)
(7.90183 -0.164941 0)
(7.91232 -0.159186 0)
(7.92203 -0.15391 0)
(7.93104 -0.149109 0)
(7.93943 -0.14478 0)
(7.94727 -0.140918 0)
(7.95462 -0.137521 0)
(7.96156 -0.13459 0)
(7.96816 -0.132135 0)
(7.97451 -0.130164 0)
(7.98072 -0.128657 0)
(7.33892 -0.054275 0)
(7.37187 -0.151188 0)
(7.41451 -0.220055 0)
(7.45791 -0.266548 0)
(7.50419 -0.296845 0)
(7.55422 -0.31491 0)
(7.60646 -0.324443 0)
(7.65978 -0.328135 0)
(7.71327 -0.327687 0)
(7.76591 -0.324264 0)
(7.81679 -0.318688 0)
(7.86526 -0.311542 0)
(7.91087 -0.30327 0)
(7.95333 -0.294219 0)
(7.99252 -0.284674 0)
(8.02842 -0.274869 0)
(8.06112 -0.265002 0)
(8.09077 -0.255236 0)
(8.11757 -0.245703 0)
(8.14173 -0.236506 0)
(8.16349 -0.227722 0)
(8.18306 -0.219408 0)
(8.20067 -0.211601 0)
(8.21652 -0.204324 0)
(8.2308 -0.197589 0)
(8.24367 -0.1914 0)
(8.2553 -0.185758 0)
(8.26581 -0.180664 0)
(8.27532 -0.176128 0)
(8.28393 -0.17216 0)
(8.29176 -0.168819 0)
(8.29888 -0.166113 0)
(8.3055 -0.16421 0)
(7.33755 -0.0403104 0)
(7.38842 -0.105408 0)
(7.47746 -0.162821 0)
(7.57876 -0.21812 0)
(7.68621 -0.265035 0)
(7.79468 -0.301224 0)
(7.8982 -0.327345 0)
(7.99331 -0.344111 0)
(8.07808 -0.352625 0)
(8.15148 -0.354371 0)
(8.21336 -0.350832 0)
(8.26414 -0.343338 0)
(8.30465 -0.333038 0)
(8.3359 -0.32088 0)
(8.35898 -0.30762 0)
(8.37501 -0.293846 0)
(8.38504 -0.280002 0)
(8.39002 -0.266416 0)
(8.39082 -0.253321 0)
(8.38817 -0.240875 0)
(8.38272 -0.229176 0)
(8.37501 -0.21828 0)
(8.3655 -0.208208 0)
(8.35455 -0.198956 0)
(8.34248 -0.190504 0)
(8.32953 -0.182818 0)
(8.31589 -0.175861 0)
(8.3017 -0.169593 0)
(8.28706 -0.163989 0)
(8.27199 -0.159035 0)
(8.2566 -0.154829 0)
(8.24063 -0.151343 0)
(8.22469 -0.149501 0)
(7.39943 -0.196709 0)
(7.59541 -0.375854 0)
(7.76787 -0.458531 0)
(7.89472 -0.51208 0)
(7.97804 -0.540363 0)
(8.01599 -0.54924 0)
(8.01286 -0.545364 0)
(7.97709 -0.532112 0)
(7.91636 -0.51201 0)
(7.83729 -0.487338 0)
(7.74567 -0.459902 0)
(7.64623 -0.431104 0)
(7.54268 -0.402028 0)
(7.43783 -0.373481 0)
(7.33375 -0.346034 0)
(7.23193 -0.320065 0)
(7.13336 -0.295801 0)
(7.03868 -0.273353 0)
(6.94825 -0.252747 0)
(6.86222 -0.233952 0)
(6.78062 -0.216895 0)
(6.70333 -0.201477 0)
(6.63022 -0.187584 0)
(6.56106 -0.175093 0)
(6.49563 -0.163877 0)
(6.43368 -0.153809 0)
(6.37496 -0.144754 0)
(6.31918 -0.136587 0)
(6.26607 -0.129155 0)
(6.21522 -0.122324 0)
(6.1663 -0.116005 0)
(6.11822 -0.109442 0)
(6.07145 -0.105879 0)
(7.16014 -0.185841 0)
(6.91108 -0.345052 0)
(6.50021 -0.392287 0)
(6.03699 -0.393677 0)
(5.59752 -0.365498 0)
(5.18207 -0.321583 0)
(4.79471 -0.272852 0)
(4.44221 -0.224925 0)
(4.1251 -0.180785 0)
(3.84168 -0.141905 0)
(3.58991 -0.108676 0)
(3.36721 -0.0809009 0)
(3.17069 -0.0580916 0)
(2.99755 -0.0396221 0)
(2.8451 -0.024837 0)
(2.71085 -0.0131181 0)
(2.59251 -0.00391428 0)
(2.48807 0.00324844 0)
(2.39571 0.00876741 0)
(2.31385 0.0129702 0)
(2.24108 0.016124 0)
(2.17621 0.0184451 0)
(2.11818 0.0201092 0)
(2.06607 0.0212591 0)
(2.0191 0.0220167 0)
(1.97662 0.0224877 0)
(1.93803 0.0227878 0)
(1.90294 0.0230359 0)
(1.87085 0.023444 0)
(1.84189 0.0243149 0)
(1.81521 0.0259305 0)
(1.79264 0.030866 0)
(1.7725 0.0261075 0)
(1.40589 0.0363788 0)
(1.77069 0.181338 0)