/*--------------------------------*- C++ -*----------------------------------*\
  =========                 |
  \\      /  F ield         | OpenFOAM: The Open Source CFD Toolbox
   \\    /   O peration     | Website:  https://openfoam.org
    \\  /    A nd           | Version:  10
     \\/     M anipulation  |
\*---------------------------------------------------------------------------*/
FoamFile
{
    format      ascii;
    class       surfaceScalarField;
    location    "0.02";
    object      phi;
}
// * * * * * * * * * * * * * * * * * * * * * * * * * * * * * * * * * * * * * //

dimensions      [0 3 -1 0 0 0 0];

internalField   nonuniform List<scalar> 
13452
(
5.94594e-05
8.09036e-07
5.8494e-05
9.65435e-07
5.74973e-05
9.96679e-07
5.64829e-05
1.01437e-06
5.54803e-05
1.00262e-06
5.45024e-05
9.77966e-07
5.35543e-05
9.48024e-07
5.26403e-05
9.14016e-07
5.17637e-05
8.76579e-07
5.09277e-05
8.36013e-07
5.01355e-05
7.92229e-07
4.93905e-05
7.44976e-07
4.86966e-05
6.93945e-07
4.80578e-05
6.38829e-07
4.74783e-05
5.79413e-07
4.69627e-05
5.15618e-07
4.65151e-05
4.47653e-07
4.6139e-05
3.76052e-07
4.58372e-05
3.01774e-07
4.56108e-05
2.26398e-07
4.54589e-05
1.5198e-07
4.53776e-05
8.12167e-08
4.53569e-05
2.07632e-08
4.53832e-05
-2.63617e-08
4.54482e-05
-6.49201e-08
4.55479e-05
-9.97471e-08
4.56808e-05
-1.32861e-07
4.58462e-05
-1.65407e-07
4.60456e-05
-1.99384e-07
4.62801e-05
-2.34529e-07
4.6558e-05
-2.7795e-07
4.68841e-05
-3.2605e-07
-3.863e-07
4.72704e-05
6.24884e-05
3.10983e-07
6.29638e-05
4.90034e-07
6.34123e-05
5.48147e-07
6.38249e-05
6.01752e-07
6.41947e-05
6.32894e-07
6.45218e-05
6.50867e-07
6.48083e-05
6.61514e-07
6.50571e-05
6.65148e-07
6.52717e-05
6.62051e-07
6.54551e-05
6.52539e-07
6.56108e-05
6.36618e-07
6.57416e-05
6.14153e-07
6.58505e-05
5.84973e-07
6.59405e-05
5.48915e-07
6.60139e-05
5.05939e-07
6.60734e-05
4.56122e-07
6.61212e-05
3.99885e-07
6.61593e-05
3.3798e-07
6.61895e-05
2.71573e-07
6.62134e-05
2.02445e-07
6.62327e-05
1.32688e-07
6.62489e-05
6.50252e-08
6.62661e-05
3.61317e-09
6.62897e-05
-5.00512e-08
6.63238e-05
-9.89649e-08
6.63694e-05
-1.4536e-07
6.64275e-05
-1.90939e-07
6.64991e-05
-2.37003e-07
6.65851e-05
-2.85434e-07
6.66878e-05
-3.37243e-07
6.68079e-05
-3.98043e-07
6.69502e-05
-4.68279e-07
-5.69545e-07
6.71334e-05
6.3837e-05
2.35358e-07
6.39196e-05
4.07465e-07
6.39994e-05
4.68319e-07
6.40853e-05
5.1592e-07
6.41758e-05
5.42317e-07
6.42728e-05
5.5391e-07
6.43767e-05
5.57615e-07
6.44871e-05
5.54722e-07
6.46034e-05
5.45815e-07
6.47244e-05
5.31446e-07
6.48493e-05
5.11805e-07
6.49765e-05
4.86885e-07
6.51049e-05
4.56622e-07
6.52329e-05
4.20928e-07
6.5359e-05
3.79841e-07
6.54817e-05
3.33401e-07
6.55996e-05
2.81979e-07
6.57114e-05
2.26141e-07
6.58163e-05
1.66754e-07
6.59136e-05
1.05079e-07
6.60038e-05
4.25339e-08
6.6088e-05
-1.92141e-08
6.61705e-05
-7.89205e-08
6.62566e-05
-1.36062e-07
6.63487e-05
-1.91094e-07
6.64485e-05
-2.45159e-07
6.65571e-05
-2.99507e-07
6.66753e-05
-3.55268e-07
6.6804e-05
-4.14126e-07
6.69442e-05
-4.7739e-07
6.7095e-05
-5.48862e-07
6.72573e-05
-6.30615e-07
-7.30381e-07
6.74181e-05
6.56431e-05
1.75373e-07
6.57025e-05
3.48008e-07
6.5751e-05
4.19867e-07
6.57969e-05
4.70027e-07
6.5841e-05
4.98141e-07
6.58854e-05
5.09525e-07
6.59315e-05
5.11509e-07
6.59802e-05
5.06083e-07
6.6032e-05
4.9401e-07
6.60874e-05
4.75996e-07
6.61468e-05
4.52394e-07
6.62104e-05
4.23333e-07
6.62781e-05
3.88877e-07
6.635e-05
3.49051e-07
6.64258e-05
3.04046e-07
6.65053e-05
2.53939e-07
6.6588e-05
1.99207e-07
6.66738e-05
1.40386e-07
6.67623e-05
7.82649e-08
6.68535e-05
1.38474e-08
6.69478e-05
-5.1751e-08
6.70457e-05
-1.17169e-07
6.71484e-05
-1.81575e-07
6.72571e-05
-2.44755e-07
6.73731e-05
-3.0705e-07
6.74972e-05
-3.69312e-07
6.76303e-05
-4.32621e-07
6.77731e-05
-4.98041e-07
6.7926e-05
-5.67021e-07
6.80894e-05
-6.4076e-07
6.82624e-05
-7.21911e-07
6.8443e-05
-8.1122e-07
-9.1357e-07
6.86262e-05
6.7493e-05
1.39186e-07
6.75414e-05
2.99627e-07
6.75878e-05
3.73396e-07
6.76362e-05
4.21681e-07
6.76849e-05
4.49451e-07
6.77338e-05
4.60539e-07
6.7784e-05
4.61356e-07
6.78359e-05
4.54181e-07
6.789e-05
4.3988e-07
6.79468e-05
4.19224e-07
6.80065e-05
3.92657e-07
6.80695e-05
3.60395e-07
6.81358e-05
3.22577e-07
6.82055e-05
2.79279e-07
6.82788e-05
2.30826e-07
6.83555e-05
1.77231e-07
6.84356e-05
1.19085e-07
6.85191e-05
5.68959e-08
6.8606e-05
-8.63048e-09
6.86964e-05
-7.6527e-08
6.87905e-05
-1.45887e-07
6.88891e-05
-2.15764e-07
6.89931e-05
-2.85545e-07
6.91034e-05
-3.55076e-07
6.9221e-05
-4.24671e-07
6.93468e-05
-4.95061e-07
6.94813e-05
-5.67181e-07
6.96252e-05
-6.41974e-07
6.97788e-05
-7.20587e-07
6.9942e-05
-8.03994e-07
7.01139e-05
-8.93728e-07
7.02926e-05
-9.89959e-07
-1.09414e-06
7.04732e-05
6.94142e-05
1.09004e-07
6.94603e-05
2.53528e-07
6.95057e-05
3.28012e-07
6.95519e-05
3.75449e-07
6.95985e-05
4.02854e-07
6.96457e-05
4.13331e-07
6.96945e-05
4.12552e-07
6.97455e-05
4.03166e-07
6.97992e-05
3.86244e-07
6.98558e-05
3.62631e-07
6.99156e-05
3.32858e-07
6.99787e-05
2.97228e-07
7.00454e-05
2.55947e-07
7.01155e-05
2.09121e-07
7.01891e-05
1.57238e-07
7.02661e-05
1.00203e-07
7.03465e-05
3.87213e-08
7.04303e-05
-2.68462e-08
7.05174e-05
-9.5807e-08
7.06082e-05
-1.67345e-07
7.07031e-05
-2.40716e-07
7.08025e-05
-3.1521e-07
7.09074e-05
-3.90394e-07
7.10185e-05
-4.66219e-07
7.11368e-05
-5.42995e-07
7.12631e-05
-6.21316e-07
7.13979e-05
-7.01947e-07
7.15416e-05
-7.85675e-07
7.16944e-05
-8.7338e-07
7.18561e-05
-9.65762e-07
7.2026e-05
-1.06364e-06
7.22028e-05
-1.16672e-06
-1.27492e-06
7.23836e-05
7.13874e-05
8.79138e-08
7.14246e-05
2.16331e-07
7.14646e-05
2.88044e-07
7.15077e-05
3.32302e-07
7.15533e-05
3.5728e-07
7.16007e-05
3.65911e-07
7.16503e-05
3.62982e-07
7.17023e-05
3.51149e-07
7.1757e-05
3.31551e-07
7.18146e-05
3.05035e-07
7.18753e-05
2.7217e-07
7.19392e-05
2.33308e-07
7.20065e-05
1.88702e-07
7.20771e-05
1.3848e-07
7.21511e-05
8.32593e-08
7.22286e-05
2.26969e-08
7.23094e-05
-4.20883e-08
7.23936e-05
-1.11048e-07
7.24813e-05
-1.83495e-07
7.25727e-05
-2.58792e-07
7.26683e-05
-3.36331e-07
7.27687e-05
-4.15585e-07
7.28746e-05
-4.96253e-07
7.29867e-05
-5.7833e-07
7.31058e-05
-6.62084e-07
7.32325e-05
-7.48008e-07
7.33673e-05
-8.36733e-07
7.35105e-05
-9.28908e-07
7.36623e-05
-1.02519e-06
7.38226e-05
-1.12607e-06
7.39909e-05
-1.23191e-06
7.41664e-05
-1.34229e-06
-1.45652e-06
7.4348e-05
7.34219e-05
7.12736e-08
7.34555e-05
1.82727e-07
7.34943e-05
2.49236e-07
7.35368e-05
2.89791e-07
7.35819e-05
3.1219e-07
7.36289e-05
3.18987e-07
7.36778e-05
3.14016e-07
7.37292e-05
2.998e-07
7.37832e-05
2.77546e-07
7.38401e-05
2.48123e-07
7.39001e-05
2.12145e-07
7.39634e-05
1.70039e-07
7.403e-05
1.22075e-07
7.41001e-05
6.83368e-08
7.41733e-05
1.0107e-08
7.425e-05
-5.40417e-08
7.43303e-05
-1.22318e-07
7.44141e-05
-1.94838e-07
7.45015e-05
-2.70962e-07
7.45929e-05
-3.50183e-07
7.46886e-05
-4.32029e-07
7.47891e-05
-5.16111e-07
7.48951e-05
-6.02224e-07
7.50072e-05
-6.90399e-07
7.5126e-05
-7.80886e-07
7.52521e-05
-8.741e-07
7.53859e-05
-9.70557e-07
7.55278e-05
-1.07078e-06
7.56778e-05
-1.17525e-06
7.58361e-05
-1.28431e-06
7.60023e-05
-1.3981e-06
7.61762e-05
-1.51627e-06
-1.638e-06
7.63577e-05
7.55155e-05
5.82734e-08
7.55442e-05
1.53994e-07
7.55792e-05
2.14275e-07
7.56184e-05
2.50521e-07
7.56611e-05
2.69482e-07
7.57066e-05
2.73557e-07
7.57547e-05
2.65904e-07
7.58056e-05
2.48877e-07
7.58594e-05
2.23709e-07
7.59163e-05
1.91257e-07
7.59763e-05
1.52141e-07
7.60395e-05
1.06824e-07
7.61059e-05
5.56765e-08
7.61761e-05
-1.85276e-09
7.62495e-05
-6.33212e-08
7.63262e-05
-1.30745e-07
7.64064e-05
-2.025e-07
7.64901e-05
-2.78531e-07
7.65775e-05
-3.58371e-07
7.66689e-05
-4.41568e-07
7.67646e-05
-5.27753e-07
7.68652e-05
-6.16645e-07
7.69711e-05
-7.08114e-07
7.70829e-05
-8.02215e-07
7.72012e-05
-8.99168e-07
7.73264e-05
-9.99321e-07
7.74589e-05
-1.10309e-06
7.7599e-05
-1.21091e-06
7.77469e-05
-1.32314e-06
7.79027e-05
-1.44005e-06
7.80663e-05
-1.56171e-06
7.82379e-05
-1.68791e-06
-1.818e-06
7.84179e-05
7.76702e-05
4.7684e-08
7.76956e-05
1.28515e-07
7.77286e-05
1.81309e-07
7.77667e-05
2.12439e-07
7.78087e-05
2.27435e-07
7.78538e-05
2.28475e-07
7.79017e-05
2.18065e-07
7.79523e-05
1.98262e-07
7.80057e-05
1.70243e-07
7.80622e-05
1.34829e-07
7.81217e-05
9.2632e-08
7.81844e-05
4.41487e-08
7.82502e-05
-1.01241e-08
7.8319e-05
-7.06743e-08
7.83915e-05
-1.35814e-07
7.84672e-05
-2.06451e-07
7.85464e-05
-2.81699e-07
7.86291e-05
-3.61271e-07
7.87156e-05
-4.44833e-07
7.8806e-05
-5.32013e-07
7.89008e-05
-6.22516e-07
7.90003e-05
-7.16143e-07
7.9105e-05
-8.12816e-07
7.92154e-05
-9.12602e-07
7.93319e-05
-1.0157e-06
7.9455e-05
-1.1224e-06
7.9585e-05
-1.23307e-06
7.97221e-05
-1.34803e-06
7.98666e-05
-1.46761e-06
8.00185e-05
-1.59202e-06
8.01782e-05
-1.72135e-06
8.03458e-05
-1.85556e-06
-1.99419e-06
8.0522e-05
7.98872e-05
3.88415e-08
7.99097e-05
1.06004e-07
7.994e-05
1.50945e-07
7.99758e-05
1.76698e-07
8.00157e-05
1.87461e-07
8.00591e-05
1.85111e-07
8.01055e-05
1.71636e-07
8.0155e-05
1.4882e-07
8.02074e-05
1.17789e-07
8.02629e-05
7.93291e-08
8.03216e-05
3.39918e-08
8.03835e-05
-1.77253e-08
8.04486e-05
-7.52975e-08
8.05168e-05
-1.38879e-07
8.05885e-05
-2.07501e-07
8.06635e-05
-2.81393e-07
8.07418e-05
-3.60053e-07
8.08237e-05
-4.43144e-07
8.09092e-05
-5.30392e-07
8.09987e-05
-6.21498e-07
8.10924e-05
-7.16231e-07
8.11908e-05
-8.1445e-07
8.1294e-05
-9.16113e-07
8.14027e-05
-1.0213e-06
8.15172e-05
-1.13018e-06
8.16378e-05
-1.243e-06
8.17648e-05
-1.36007e-06
8.18985e-05
-1.48167e-06
8.20389e-05
-1.60808e-06
8.21864e-05
-1.7395e-06
8.23411e-05
-1.87607e-06
8.25035e-05
-2.01791e-06
-2.16474e-06
8.2674e-05
8.2168e-05
3.12687e-08
8.21882e-05
8.58531e-08
8.22165e-05
1.22646e-07
8.22506e-05
1.42589e-07
8.22893e-05
1.48717e-07
8.23318e-05
1.42614e-07
8.23776e-05
1.25854e-07
8.24265e-05
9.9925e-08
8.24784e-05
6.58568e-08
8.25333e-05
2.44095e-08
8.25913e-05
-2.39216e-08
8.26522e-05
-7.86643e-08
8.27163e-05
-1.39377e-07
8.27834e-05
-2.05965e-07
8.28537e-05
-2.77834e-07
8.29272e-05
-3.54914e-07
8.3004e-05
-4.36864e-07
8.30843e-05
-5.23373e-07
8.31681e-05
-6.14194e-07
8.32557e-05
-7.09093e-07
8.33473e-05
-8.07887e-07
8.34433e-05
-9.10476e-07
8.35441e-05
-1.01685e-06
8.36498e-05
-1.12707e-06
8.3761e-05
-1.2413e-06
8.38777e-05
-1.35976e-06
8.40004e-05
-1.4827e-06
8.41291e-05
-1.61037e-06
8.4264e-05
-1.74301e-06
8.44053e-05
-1.88085e-06
8.45533e-05
-2.02404e-06
8.47082e-05
-2.17285e-06
-2.32705e-06
8.48706e-05
8.45144e-05
2.46433e-08
8.45326e-05
6.76923e-08
8.45588e-05
9.63708e-08
8.45911e-05
1.10374e-07
8.4628e-05
1.11751e-07
8.46689e-05
1.01756e-07
8.47131e-05
8.16081e-08
8.47605e-05
5.2518e-08
8.4811e-05
1.53754e-08
8.48645e-05
-2.91029e-08
8.49211e-05
-8.04505e-08
8.49806e-05
-1.38208e-07
8.50432e-05
-2.01991e-07
8.51088e-05
-2.71586e-07
8.51776e-05
-3.4658e-07
8.52494e-05
-4.26787e-07
8.53245e-05
-5.11935e-07
8.54029e-05
-6.01752e-07
8.54847e-05
-6.96021e-07
8.55702e-05
-7.94552e-07
8.56595e-05
-8.97203e-07
8.57529e-05
-1.0039e-06
8.58507e-05
-1.11465e-06
8.59532e-05
-1.22951e-06
8.60605e-05
-1.34863e-06
8.61729e-05
-1.47218e-06
8.62906e-05
-1.60039e-06
8.64137e-05
-1.73347e-06
8.65423e-05
-1.87165e-06
8.66766e-05
-2.01514e-06
8.68167e-05
-2.16413e-06
8.69628e-05
-2.31895e-06
-2.47944e-06
8.71152e-05
8.69281e-05
1.87494e-08
8.69446e-05
5.11992e-08
8.6969e-05
7.19077e-08
8.69995e-05
7.98604e-08
8.7035e-05
7.63238e-08
8.70745e-05
6.22373e-08
8.71176e-05
3.85303e-08
8.71639e-05
6.19325e-09
8.72133e-05
-3.40342e-08
8.72657e-05
-8.14946e-08
8.7321e-05
-1.35758e-07
8.73792e-05
-1.96404e-07
8.74403e-05
-2.63081e-07
8.75042e-05
-3.35541e-07
8.75711e-05
-4.13457e-07
8.76409e-05
-4.96609e-07
8.77137e-05
-5.84758e-07
8.77897e-05
-6.77672e-07
8.78688e-05
-7.75159e-07
8.79513e-05
-8.7706e-07
8.80374e-05
-9.83264e-07
8.81272e-05
-1.09371e-06
8.8221e-05
-1.20842e-06
8.83189e-05
-1.32744e-06
8.84212e-05
-1.45089e-06
8.85279e-05
-1.57892e-06
8.86392e-05
-1.71172e-06
8.87552e-05
-1.84947e-06
8.88759e-05
-1.99237e-06
8.90014e-05
-2.14063e-06
8.91317e-05
-2.29444e-06
8.92669e-05
-2.45414e-06
-2.61954e-06
8.9407e-05
8.94108e-05
1.34381e-08
8.94259e-05
3.6132e-08
8.94487e-05
4.9134e-08
8.94775e-05
5.10662e-08
8.95112e-05
4.26012e-08
8.95491e-05
2.43927e-08
8.95905e-05
-2.88503e-09
8.96351e-05
-3.8464e-08
8.96828e-05
-8.17157e-08
8.97334e-05
-1.32088e-07
8.97868e-05
-1.89177e-07
8.9843e-05
-2.52607e-07
8.9902e-05
-3.22052e-07
8.99637e-05
-3.97254e-07
9.00282e-05
-4.77936e-07
9.00954e-05
-5.63871e-07
9.01655e-05
-6.54844e-07
9.02385e-05
-7.50651e-07
9.03145e-05
-8.51121e-07
9.03935e-05
-9.5612e-07
9.04758e-05
-1.06555e-06
9.05615e-05
-1.17938e-06
9.06507e-05
-1.29759e-06
9.07435e-05
-1.42025e-06
9.084e-05
-1.54745e-06
9.09404e-05
-1.6793e-06
9.10446e-05
-1.81595e-06
9.11527e-05
-1.95756e-06
9.12647e-05
-2.1043e-06
9.13804e-05
-2.25634e-06
9.14998e-05
-2.41385e-06
9.16228e-05
-2.57715e-06
-2.74601e-06
9.17493e-05
9.19647e-05
8.60861e-09
9.19785e-05
2.23057e-08
9.19997e-05
2.79277e-08
9.20269e-05
2.39338e-08
9.20589e-05
1.05574e-08
9.20951e-05
-1.18029e-08
9.21349e-05
-4.26838e-08
9.21779e-05
-8.1501e-08
9.2224e-05
-1.27744e-07
9.22728e-05
-1.8095e-07
9.23244e-05
-2.40751e-07
9.23786e-05
-3.06814e-07
9.24354e-05
-3.78842e-07
9.24947e-05
-4.56586e-07
9.25566e-05
-5.39799e-07
9.2621e-05
-6.28265e-07
9.26879e-05
-7.21788e-07
9.27575e-05
-8.20186e-07
9.28296e-05
-9.23306e-07
9.29046e-05
-1.03103e-06
9.29823e-05
-1.14327e-06
9.30629e-05
-1.25999e-06
9.31465e-05
-1.38118e-06
9.32331e-05
-1.50687e-06
9.33228e-05
-1.63714e-06
9.34156e-05
-1.77207e-06
9.35114e-05
-1.91176e-06
9.36101e-05
-2.05634e-06
9.37118e-05
-2.20593e-06
9.38161e-05
-2.36067e-06
9.39229e-05
-2.52067e-06
9.4032e-05
-2.68622e-06
-2.85698e-06
9.4143e-05
9.45916e-05
4.19142e-09
9.46043e-05
9.58189e-09
9.4624e-05
8.19769e-09
9.46495e-05
-1.55028e-09
9.46798e-05
-1.97405e-08
9.47142e-05
-4.61887e-08
9.47521e-05
-8.06065e-08
9.47932e-05
-1.22575e-07
9.48371e-05
-1.71694e-07
9.48838e-05
-2.27587e-07
9.4933e-05
-2.89935e-07
9.49846e-05
-3.58445e-07
9.50386e-05
-4.32851e-07
9.50949e-05
-5.12917e-07
9.51536e-05
-5.98421e-07
9.52145e-05
-6.89161e-07
9.52776e-05
-7.84953e-07
9.53431e-05
-8.8563e-07
9.54108e-05
-9.91053e-07
9.54809e-05
-1.10111e-06
9.55533e-05
-1.21572e-06
9.56282e-05
-1.33484e-06
9.57055e-05
-1.45844e-06
9.57851e-05
-1.58655e-06
9.58672e-05
-1.7192e-06
9.59516e-05
-1.85643e-06
9.60381e-05
-1.99832e-06
9.61267e-05
-2.14493e-06
9.62171e-05
-2.29635e-06
9.63091e-05
-2.45266e-06
9.64024e-05
-2.61393e-06
9.64965e-05
-2.78034e-06
-2.9515e-06
9.6591e-05
9.72936e-05
1.39724e-10
9.73053e-05
-2.14143e-09
9.73236e-05
-1.0129e-08
9.73475e-05
-2.54031e-08
9.7376e-05
-4.8258e-08
9.74085e-05
-7.86872e-08
9.74444e-05
-1.1655e-07
9.74834e-05
-1.6157e-07
9.75252e-05
-2.13444e-07
9.75695e-05
-2.71876e-07
9.76161e-05
-3.36594e-07
9.7665e-05
-4.07347e-07
9.77161e-05
-4.83896e-07
9.77692e-05
-5.66024e-07
9.78243e-05
-6.53529e-07
9.78813e-05
-7.46222e-07
9.79403e-05
-8.43932e-07
9.80012e-05
-9.46504e-07
9.8064e-05
-1.05381e-06
9.81286e-05
-1.16573e-06
9.8195e-05
-1.28219e-06
9.82633e-05
-1.40313e-06
9.83334e-05
-1.52851e-06
9.84052e-05
-1.65833e-06
9.84786e-05
-1.79258e-06
9.85534e-05
-1.93128e-06
9.86295e-05
-2.07446e-06
9.87067e-05
-2.22212e-06
9.87847e-05
-2.37431e-06
9.88631e-05
-2.53103e-06
9.89414e-05
-2.69229e-06
9.90193e-05
-2.85819e-06
-3.02826e-06
9.90961e-05
0.000100073
-3.58941e-09
0.000100084
-1.29282e-08
0.000100101
-2.70993e-08
0.000100123
-4.76214e-08
0.000100149
-7.49371e-08
0.00010018
-1.09181e-07
0.000100214
-1.50334e-07
0.00010025
-1.98238e-07
0.00010029
-2.52683e-07
0.000100331
-3.13444e-07
0.000100375
-3.803e-07
0.000100421
-4.53038e-07
0.000100468
-5.31449e-07
0.000100517
-6.15337e-07
0.000100568
-7.04515e-07
0.000100621
-7.9881e-07
0.000100675
-8.98057e-07
0.000100731
-1.00211e-06
0.000100788
-1.11084e-06
0.000100846
-1.22413e-06
0.000100906
-1.3419e-06
0.000100967
-1.46406e-06
0.000101029
-1.59058e-06
0.000101092
-1.72139e-06
0.000101156
-1.85647e-06
0.00010122
-1.9958e-06
0.000101285
-2.13935e-06
0.00010135
-2.28708e-06
0.000101415
-2.43897e-06
0.000101479
-2.59497e-06
0.000101542
-2.75501e-06
0.000101602
-2.9191e-06
-3.08671e-06
0.000101661
0.000102931
-7.00727e-09
0.000102941
-2.28342e-08
0.000102957
-4.27475e-08
0.000102978
-6.81967e-08
0.000103002
-9.97213e-08
0.000103031
-1.37565e-07
0.000103062
-1.8181e-07
0.000103096
-2.32399e-07
0.000103133
-2.89202e-07
0.000103172
-3.52059e-07
0.000103212
-4.20799e-07
0.000103254
-4.95243e-07
0.000103298
-5.7521e-07
0.000103343
-6.60524e-07
0.00010339
-7.51014e-07
0.000103437
-8.46516e-07
0.000103486
-9.46874e-07
0.000103536
-1.05194e-06
0.000103587
-1.16159e-06
0.000103638
-1.2757e-06
0.000103691
-1.39418e-06
0.000103744
-1.51692e-06
0.000103797
-1.64385e-06
0.00010385
-1.7749e-06
0.000103904
-1.91e-06
0.000103957
-2.04907e-06
0.00010401
-2.19205e-06
0.000104062
-2.33885e-06
0.000104112
-2.48938e-06
0.000104161
-2.64354e-06
0.000104207
-2.80118e-06
0.00010425
-2.96223e-06
-3.12609e-06
0.000104289
0.000105872
-1.01291e-08
0.000105881
-3.18909e-08
0.000105895
-5.70906e-08
0.000105914
-8.71088e-08
0.000105937
-1.22545e-07
0.000105963
-1.63726e-07
0.000105992
-2.10816e-07
0.000106024
-2.63838e-07
0.000106057
-3.22736e-07
0.000106092
-3.87409e-07
0.000106129
-4.57727e-07
0.000106168
-5.33549e-07
0.000106207
-6.14718e-07
0.000106248
-7.01079e-07
0.000106289
-7.92475e-07
0.000106331
-8.88749e-07
0.000106374
-9.8975e-07
0.000106418
-1.09534e-06
0.000106462
-1.20537e-06
0.000106506
-1.31972e-06
0.00010655
-1.43828e-06
0.000106594
-1.56093e-06
0.000106637
-1.68756e-06
0.000106681
-1.81808e-06
0.000106723
-1.95237e-06
0.000106764
-2.09033e-06
0.000106804
-2.23182e-06
0.000106842
-2.37673e-06
0.000106877
-2.52489e-06
0.00010691
-2.67615e-06
0.000106939
-2.8303e-06
0.000106964
-2.98719e-06
-3.14619e-06
0.000106984
0.000108896
-1.29639e-08
0.000108904
-4.01152e-08
0.000108918
-7.01329e-08
0.000108935
-1.04329e-07
0.000108956
-1.43339e-07
0.000108979
-1.87549e-07
0.000109006
-2.3719e-07
0.000109034
-2.92353e-07
0.000109065
-3.53044e-07
0.000109096
-4.19212e-07
0.000109129
-4.90772e-07
0.000109163
-5.67611e-07
0.000109198
-6.49599e-07
0.000109234
-7.36597e-07
0.00010927
-8.2846e-07
0.000109306
-9.25038e-07
0.000109343
-1.02618e-06
0.000109379
-1.13175e-06
0.000109415
-1.24159e-06
0.000109451
-1.35558e-06
0.000109486
-1.47356e-06
0.000109521
-1.59543e-06
0.000109554
-1.72103e-06
0.000109586
-1.85023e-06
0.000109617
-1.98289e-06
0.000109645
-2.11886e-06
0.000109672
-2.25797e-06
0.000109695
-2.40004e-06
0.000109715
-2.54487e-06
0.000109731
-2.69224e-06
0.000109743
-2.84189e-06
0.000109749
-2.99361e-06
-3.14675e-06
0.00010975
0.000112007
-1.55164e-08
0.000112014
-4.75164e-08
0.000112026
-8.18706e-08
0.000112042
-1.19826e-07
0.00011206
-1.62033e-07
0.000112082
-2.08924e-07
0.000112105
-2.6078e-07
0.000112131
-3.1775e-07
0.000112158
-3.7989e-07
0.000112186
-4.47196e-07
0.000112214
-5.19619e-07
0.000112244
-5.97075e-07
0.000112274
-6.79457e-07
0.000112304
-7.66641e-07
0.000112334
-8.58493e-07
0.000112364
-9.54869e-07
0.000112393
-1.05562e-06
0.000112422
-1.1606e-06
0.00011245
-1.26965e-06
0.000112477
-1.38263e-06
0.000112503
-1.49938e-06
0.000112527
-1.61974e-06
0.00011255
-1.74357e-06
0.00011257
-1.87068e-06
0.000112588
-2.0009e-06
0.000112603
-2.13405e-06
0.000112615
-2.26991e-06
0.000112624
-2.40826e-06
0.000112628
-2.54886e-06
0.000112627
-2.69144e-06
0.000112621
-2.8357e-06
0.000112608
-2.98138e-06
-3.12781e-06
0.000112589
0.000115207
-1.77888e-08
0.000115213
-5.40958e-08
0.000115224
-9.22915e-08
0.000115237
-1.33558e-07
0.000115254
-1.78551e-07
0.000115273
-2.27731e-07
0.000115293
-2.81421e-07
0.000115316
-3.39814e-07
0.000115339
-4.03013e-07
0.000115362
-4.71054e-07
0.000115387
-5.43921e-07
0.000115411
-6.21556e-07
0.000115436
-7.03872e-07
0.00011546
-7.90761e-07
0.000115483
-8.82095e-07
0.000115506
-9.77736e-07
0.000115528
-1.07754e-06
0.000115549
-1.18134e-06
0.000115568
-1.28898e-06
0.000115586
-1.40031e-06
0.000115602
-1.51514e-06
0.000115615
-1.6333e-06
0.000115626
-1.75461e-06
0.000115634
-1.87887e-06
0.000115639
-2.00588e-06
0.000115641
-2.1354e-06
0.000115638
-2.2672e-06
0.000115631
-2.40101e-06
0.000115619
-2.53656e-06
0.000115601
-2.67355e-06
0.000115577
-2.81163e-06
0.000115546
-2.95052e-06
-3.08956e-06
0.000115508
0.000118498
-1.97822e-08
0.000118504
-5.98546e-08
0.000118513
-1.01387e-07
0.000118525
-1.45496e-07
0.000118539
-1.92835e-07
0.000118555
-2.43884e-07
0.000118573
-2.98994e-07
0.000118591
-3.58399e-07
0.00011861
-4.22237e-07
0.00011863
-4.90579e-07
0.00011865
-5.63439e-07
0.000118669
-6.40783e-07
0.000118687
-7.22541e-07
0.000118705
-8.08619e-07
0.000118722
-8.98896e-07
0.000118738
-9.93238e-07
0.000118752
-1.09149e-06
0.000118764
-1.19351e-06
0.000118774
-1.2991e-06
0.000118782
-1.40811e-06
0.000118787
-1.52033e-06
0.000118789
-1.63558e-06
0.000118788
-1.75365e-06
0.000118784
-1.87432e-06
0.000118775
-1.99734e-06
0.000118762
-2.12247e-06
0.000118744
-2.24944e-06
0.000118721
-2.37797e-06
0.000118692
-2.50773e-06
0.000118657
-2.63841e-06
0.000118615
-2.76965e-06
0.000118566
-2.90112e-06
-3.03218e-06
0.000118509
0.000121883
-2.14961e-08
0.000121888
-6.47879e-08
0.000121896
-1.09136e-07
0.000121906
-1.55592e-07
0.000121918
-2.04797e-07
0.000121931
-2.57245e-07
0.000121945
-3.13311e-07
0.00012196
-3.7326e-07
0.000121975
-4.37264e-07
0.00012199
-5.05425e-07
0.000122005
-5.77783e-07
0.000122018
-6.54326e-07
0.000122031
-7.35002e-07
0.000122042
-8.19725e-07
0.000122051
-9.08385e-07
0.000122059
-1.00085e-06
0.000122064
-1.09696e-06
0.000122067
-1.19657e-06
0.000122068
-1.29948e-06
0.000122065
-1.40551e-06
0.000122059
-1.51446e-06
0.00012205
-1.62612e-06
0.000122036
-1.74025e-06
0.000122019
-1.85662e-06
0.000121996
-1.97497e-06
0.000121969
-2.09502e-06
0.000121936
-2.21648e-06
0.000121897
-2.33905e-06
0.000121852
-2.46239e-06
0.000121799
-2.58617e-06
0.00012174
-2.71001e-06
0.000121672
-2.83358e-06
-2.95629e-06
0.000121596
0.000125365
-2.29356e-08
0.000125369
-6.89083e-08
0.000125375
-1.15555e-07
0.000125384
-1.63859e-07
0.000125393
-2.14445e-07
0.000125404
-2.67814e-07
0.000125415
-3.2436e-07
0.000125426
-3.84373e-07
0.000125437
-4.48053e-07
0.000125447
-5.1553e-07
0.000125456
-5.86868e-07
0.000125464
-6.62073e-07
0.00012547
-7.41112e-07
0.000125474
-8.23908e-07
0.000125476
-9.1036e-07
0.000125476
-1.00034e-06
0.000125472
-1.09369e-06
0.000125466
-1.19024e-06
0.000125456
-1.28981e-06
0.000125443
-1.3922e-06
0.000125426
-1.4972e-06
0.000125404
-1.60458e-06
0.000125378
-1.71409e-06
0.000125347
-1.82548e-06
0.00012531
-1.93848e-06
0.000125268
-2.05278e-06
0.00012522
-2.1681e-06
0.000125165
-2.2841e-06
0.000125103
-2.40045e-06
0.000125033
-2.5168e-06
0.000124956
-2.63277e-06
0.000124871
-2.74804e-06
-2.86202e-06
0.000124776
0.000128946
-2.40966e-08
0.00012895
-7.22036e-08
0.000128955
-1.20604e-07
0.000128961
-1.7021e-07
0.000128968
-2.21632e-07
0.000128976
-2.75376e-07
0.000128983
-3.31857e-07
0.00012899
-3.91387e-07
0.000128996
-4.54197e-07
0.000129001
-5.20439e-07
0.000129005
-5.90199e-07
0.000129006
-6.63503e-07
0.000129005
-7.40331e-07
0.000129002
-8.20618e-07
0.000128996
-9.04269e-07
0.000128987
-9.91155e-07
0.000128974
-1.08113e-06
0.000128958
-1.17401e-06
0.000128938
-1.26962e-06
0.000128913
-1.36774e-06
0.000128884
-1.46816e-06
0.00012885
-1.57063e-06
0.000128811
-1.6749e-06
0.000128766
-1.78071e-06
0.000128716
-1.88776e-06
0.000128659
-1.99577e-06
0.000128595
-2.1044e-06
0.000128524
-2.21335e-06
0.000128446
-2.32227e-06
0.00012836
-2.43081e-06
0.000128266
-2.53861e-06
0.000128163
-2.64534e-06
-2.75048e-06
0.000128052
0.00013263
-2.50094e-08
0.000132633
-7.47511e-08
0.000132636
-1.24413e-07
0.000132641
-1.74824e-07
0.000132646
-2.26577e-07
0.000132651
-2.80183e-07
0.000132655
-3.36068e-07
0.000132658
-3.94573e-07
0.00013266
-4.55952e-07
0.00013266
-5.20385e-07
0.000132658
-5.87981e-07
0.000132653
-6.58785e-07
0.000132645
-7.32791e-07
0.000132635
-8.09947e-07
0.000132621
-8.90164e-07
0.000132603
-9.7332e-07
0.000132581
-1.05927e-06
0.000132555
-1.14783e-06
0.000132524
-1.23882e-06
0.000132488
-1.33202e-06
0.000132447
-1.42721e-06
0.000132401
-1.52414e-06
0.000132348
-1.62255e-06
0.00013229
-1.72217e-06
0.000132225
-1.82271e-06
0.000132153
-1.92386e-06
0.000132074
-2.02532e-06
0.000131987
-2.12675e-06
0.000131893
-2.22782e-06
0.00013179
-2.32819e-06
0.000131679
-2.42751e-06
0.000131559
-2.52545e-06
-2.62153e-06
0.00013143
0.000136419
-2.56392e-08
0.000136421
-7.64743e-08
0.000136423
-1.26818e-07
0.000136426
-1.77425e-07
0.000136428
-2.2889e-07
0.00013643
-2.81739e-07
0.00013643
-3.3642e-07
0.000136429
-3.93295e-07
0.000136425
-4.52647e-07
0.00013642
-5.14678e-07
0.000136411
-5.79517e-07
0.0001364
-6.47226e-07
0.000136385
-7.17812e-07
0.000136366
-7.91237e-07
0.000136343
-8.67418e-07
0.000136316
-9.46241e-07
0.000136284
-1.02756e-06
0.000136248
-1.1112e-06
0.000136206
-1.19698e-06
0.000136159
-1.28469e-06
0.000136105
-1.37408e-06
0.000136046
-1.46493e-06
0.000135981
-1.55696e-06
0.000135908
-1.64991e-06
0.000135829
-1.74348e-06
0.000135743
-1.83737e-06
0.000135649
-1.93128e-06
0.000135547
-2.02488e-06
0.000135437
-2.11785e-06
0.000135318
-2.20988e-06
0.000135192
-2.30063e-06
0.000135056
-2.3898e-06
-2.47696e-06
0.000134911
0.000140316
-2.61392e-08
0.000140318
-7.77253e-08
0.000140319
-1.28374e-07
0.00014032
-1.78732e-07
0.000140321
-2.29401e-07
0.00014032
-2.80929e-07
0.000140317
-3.33797e-07
0.000140313
-3.88408e-07
0.000140305
-4.45081e-07
0.000140294
-5.04049e-07
0.00014028
-5.65463e-07
0.000140263
-6.29409e-07
0.000140241
-6.9591e-07
0.000140214
-7.64938e-07
0.000140183
-8.36422e-07
0.000140147
-9.10255e-07
0.000140106
-9.86297e-07
0.000140059
-1.06438e-06
0.000140007
-1.14432e-06
0.000139948
-1.22591e-06
0.000139883
-1.30891e-06
0.000139811
-1.39309e-06
0.000139732
-1.47819e-06
0.000139646
-1.56394e-06
0.000139553
-1.65005e-06
0.000139451
-1.73624e-06
0.000139342
-1.82219e-06
0.000139225
-1.90762e-06
0.0001391
-1.99221e-06
0.000138965
-2.07564e-06
0.000138822
-2.15762e-06
0.00013867
-2.23785e-06
-2.31595e-06
0.000138509
0.000144325
-2.6265e-08
0.000144325
-7.80358e-08
0.000144325
-1.28331e-07
0.000144324
-1.77763e-07
0.000144322
-2.26982e-07
0.000144317
-2.76561e-07
0.00014431
-3.27004e-07
0.000144301
-3.78749e-07
0.000144288
-4.32148e-07
0.000144271
-4.87456e-07
0.000144251
-5.4485e-07
0.000144226
-6.04433e-07
0.000144196
-6.66247e-07
0.000144161
-7.30278e-07
0.000144121
-7.96468e-07
0.000144076
-8.64722e-07
0.000144024
-9.34909e-07
0.000143967
-1.00687e-06
0.000143903
-1.08043e-06
0.000143833
-1.15539e-06
0.000143755
-1.23152e-06
0.000143671
-1.3086e-06
0.000143579
-1.38636e-06
0.000143479
-1.46456e-06
0.000143372
-1.54291e-06
0.000143257
-1.62114e-06
0.000143134
-1.69896e-06
0.000143002
-1.77608e-06
0.000142862
-1.85222e-06
0.000142714
-1.92709e-06
0.000142557
-2.00042e-06
0.000142391
-2.07195e-06
-2.14135e-06
0.000142216
0.000148448
-2.67916e-08
0.000148449
-7.88927e-08
0.00014845
-1.28687e-07
0.000148449
-1.76734e-07
0.000148446
-2.23851e-07
0.00014844
-2.70719e-07
0.000148431
-3.1793e-07
0.000148418
-3.65999e-07
0.000148401
-4.15325e-07
0.00014838
-4.66201e-07
0.000148354
-5.18828e-07
0.000148323
-5.73327e-07
0.000148286
-6.29754e-07
0.000148244
-6.88109e-07
0.000148196
-7.48344e-07
0.000148142
-8.10374e-07
0.000148081
-8.74077e-07
0.000148013
-9.39308e-07
0.000147939
-1.00589e-06
0.000147857
-1.07364e-06
0.000147768
-1.14235e-06
0.000147671
-1.21178e-06
0.000147566
-1.28171e-06
0.000147454
-1.35189e-06
0.000147333
-1.42205e-06
0.000147203
-1.49193e-06
0.000147066
-1.56127e-06
0.00014692
-1.6298e-06
0.000146765
-1.69726e-06
0.000146601
-1.76337e-06
0.000146428
-1.82788e-06
0.000146247
-1.89054e-06
-1.95107e-06
0.000146057
0.000152689
-2.62957e-08
0.000152688
-7.80762e-08
0.000152686
-1.26709e-07
0.000152682
-1.72878e-07
0.000152676
-2.17466e-07
0.000152666
-2.61169e-07
0.000152653
-3.04652e-07
0.000152635
-3.48513e-07
0.000152613
-3.93205e-07
0.000152586
-4.39059e-07
0.000152553
-4.86307e-07
0.000152515
-5.351e-07
0.000152471
-5.85515e-07
0.00015242
-6.37573e-07
0.000152363
-6.91244e-07
0.000152299
-7.46461e-07
0.000152229
-8.0312e-07
0.00015215
-8.61091e-07
0.000152065
-9.20218e-07
0.000151971
-9.80326e-07
0.00015187
-1.04122e-06
0.000151761
-1.1027e-06
0.000151644
-1.16453e-06
0.000151519
-1.22649e-06
0.000151385
-1.28834e-06
0.000151243
-1.34982e-06
0.000151092
-1.4107e-06
0.000150933
-1.47072e-06
0.000150765
-1.52964e-06
0.000150589
-1.58723e-06
0.000150405
-1.64326e-06
0.000150212
-1.69753e-06
-1.7498e-06
0.00015001
0.000157054
-2.85792e-08
0.000157057
-8.10886e-08
0.000157058
-1.28135e-07
0.000157057
-1.71199e-07
0.000157051
-2.11914e-07
0.000157041
-2.51167e-07
0.000157026
-2.89758e-07
0.000157006
-3.28377e-07
0.00015698
-3.67517e-07
0.000156949
-4.07524e-07
0.000156911
-4.48647e-07
0.000156867
-4.91043e-07
0.000156816
-5.34797e-07
0.000156759
-5.79937e-07
0.000156694
-6.26444e-07
0.000156622
-6.74262e-07
0.000156542
-7.23302e-07
0.000156454
-7.73446e-07
0.000156359
-8.24555e-07
0.000156255
-8.76471e-07
0.000156142
-9.2902e-07
0.000156022
-9.82011e-07
0.000155892
-1.03524e-06
0.000155754
-1.08851e-06
0.000155608
-1.14159e-06
0.000155452
-1.19425e-06
0.000155288
-1.24629e-06
0.000155115
-1.29746e-06
0.000154932
-1.34755e-06
0.000154742
-1.39635e-06
0.000154542
-1.44364e-06
0.000154334
-1.48923e-06
-1.53289e-06
0.000154117
0.000161537
-2.6961e-08
0.000161536
-8.06091e-08
0.000161535
-1.26457e-07
0.00016153
-1.67e-07
0.000161523
-2.0402e-07
0.00016151
-2.3857e-07
0.000161492
-2.71781e-07
0.000161468
-3.04542e-07
0.000161438
-3.37425e-07
0.000161401
-3.70834e-07
0.000161358
-4.0506e-07
0.000161307
-4.40286e-07
0.000161249
-4.7662e-07
0.000161183
-5.1411e-07
0.000161109
-5.52757e-07
0.000161028
-5.92526e-07
0.000160938
-6.33348e-07
0.000160839
-6.75127e-07
0.000160733
-7.17747e-07
0.000160617
-7.6107e-07
0.000160493
-8.04944e-07
0.00016036
-8.49198e-07
0.000160219
-8.93653e-07
0.000160068
-9.38114e-07
0.000159909
-9.82383e-07
0.000159741
-1.02625e-06
0.000159564
-1.06952e-06
0.000159379
-1.11197e-06
0.000159185
-1.1534e-06
0.000158982
-1.19362e-06
0.000158771
-1.23244e-06
0.000158551
-1.26969e-06
-1.30517e-06
0.000158323
0.000166163
-3.65754e-08
0.000166173
-9.0536e-08
0.000166178
-1.31598e-07
0.000166178
-1.66253e-07
0.000166171
-1.97127e-07