/*--------------------------------*- C++ -*----------------------------------*\
  =========                 |
  \\      /  F ield         | OpenFOAM: The Open Source CFD Toolbox
   \\    /   O peration     | Website:  https://openfoam.org
    \\  /    A nd           | Version:  10
     \\/     M anipulation  |
\*---------------------------------------------------------------------------*/
FoamFile
{
    format      ascii;
    class       volScalarField;
    location    "0.01";
    object      nut;
}
// * * * * * * * * * * * * * * * * * * * * * * * * * * * * * * * * * * * * * //

dimensions      [0 2 -1 0 0 0 0];

internalField   nonuniform List<scalar> 
6820
(
0.000503202
0.000397239
0.000325063
0.000270491
0.000238331
0.000216811
0.000201219
0.000189702
0.000180823
0.00017381
0.000168223
0.000163824
0.000160416
0.000157828
0.000155886
0.000154401
0.000153195
0.000152131
0.000151133
0.000150184
0.000149313
0.000148574
0.000148032
0.00014775
0.000147777
0.000148161
0.000148941
0.000150176
0.000151909
0.000154327
0.00015731
0.000161729
0.000163941
8.17945e-05
0.000143566
0.000196155
0.000210593
0.000206315
0.000197709
0.00018782
0.000178405
0.000170062
0.000162789
0.000156482
0.000150988
0.000146208
0.00014203
0.000138335
0.000135014
0.000131977
0.000129149
0.000126465
0.000123872
0.000121331
0.00011882
0.000116328
0.000113857
0.000111411
0.000108995
0.000106606
0.00010422
0.000101817
9.92506e-05
9.65506e-05
9.29057e-05
8.87979e-05
3.85966e-05
2.74547e-05
4.26972e-05
7.36881e-05
9.4654e-05
0.000107567
0.00011437
0.000117226
0.000117707
0.000116706
0.00011478
0.000112265
0.000109355
0.000106171
0.000102827
9.94389e-05
9.60902e-05
9.28283e-05
8.9661e-05
8.65572e-05
8.34575e-05
8.02937e-05
7.70088e-05
7.35716e-05
6.99822e-05
6.62667e-05
6.24624e-05
5.86013e-05
5.4688e-05
5.06799e-05
4.64754e-05
4.18386e-05
3.65215e-05
1.9958e-05
2.35854e-05
2.22367e-05
1.32111e-05
3.06709e-06
1.0955e-05
2.06246e-05
2.82551e-05
3.40047e-05
3.81157e-05
4.08199e-05
4.23296e-05
4.2863e-05
4.26185e-05
4.17644e-05
4.04675e-05
3.88944e-05
3.718e-05
3.54172e-05
3.36522e-05
3.18869e-05
3.00918e-05
2.82241e-05
2.62468e-05
2.41428e-05
2.19197e-05
1.96063e-05
1.72397e-05
1.48538e-05
1.24595e-05
1.00352e-05
7.60396e-06
4.89224e-06
1.32228e-05
1.51553e-05
2.00033e-05
2.20981e-05
2.16061e-05
1.98303e-05
1.75118e-05
1.50462e-05
1.26711e-05
1.05293e-05
8.70841e-06
7.25003e-06
6.15913e-06
5.37192e-06
4.81038e-06
4.42916e-06
4.1829e-06
4.03407e-06
3.94793e-06
3.88828e-06
3.82102e-06
3.72392e-06
3.59285e-06
3.43755e-06
3.27139e-06
3.10978e-06
2.98294e-06
2.9514e-06
3.08434e-06
3.41572e-06
3.90024e-06
4.40219e-06
4.9105e-06
1.01592e-05
1.10962e-05
1.1962e-05
1.27508e-05
1.33401e-05
1.38131e-05
1.41263e-05
1.42534e-05
1.42121e-05
1.40264e-05
1.37159e-05
1.32977e-05
1.27849e-05
1.22046e-05
1.15864e-05
1.09514e-05
1.03256e-05
9.73398e-06
9.19037e-06
8.69352e-06
8.22835e-06
7.77236e-06
7.30485e-06
6.81586e-06
6.31247e-06
5.82105e-06
5.3834e-06
5.04678e-06
4.8467e-06
4.78903e-06
4.84818e-06
4.92446e-06
5.00834e-06
7.49144e-06
8.31791e-06
8.8097e-06
9.08335e-06
9.00203e-06
8.80166e-06
8.62176e-06
8.4886e-06
8.38917e-06
8.29137e-06
8.16018e-06
7.97174e-06
7.71115e-06
7.3814e-06
7.00777e-06
6.6189e-06
6.24229e-06
5.89627e-06
5.5881e-06
5.31624e-06
5.07488e-06
4.85881e-06
4.66674e-06
4.50237e-06
4.37358e-06
4.28993e-06
4.25926e-06
4.28466e-06
4.36311e-06
4.48112e-06
4.62353e-06
4.7343e-06
4.83052e-06
5.69662e-06
6.66739e-06
7.1376e-06
7.29442e-06
7.08003e-06
6.75389e-06
6.45759e-06
6.21293e-06
6.01271e-06
5.84039e-06
5.67618e-06
5.50424e-06
5.31623e-06
5.11053e-06
4.89457e-06
4.67908e-06
4.47375e-06
4.28442e-06
4.11302e-06
3.96049e-06
3.83083e-06
3.73296e-06
3.67881e-06
3.6784e-06
3.73468e-06
3.84118e-06
3.98419e-06
4.14738e-06
4.31688e-06
4.47923e-06
4.6283e-06
4.73712e-06
4.82639e-06
4.41052e-06
5.29005e-06
5.66732e-06
5.87112e-06
5.83055e-06
5.66214e-06
5.45847e-06
5.25314e-06
5.0626e-06
4.89058e-06
4.7307e-06
4.57496e-06
4.41671e-06
4.25278e-06
4.08336e-06
3.91358e-06
3.75016e-06
3.59798e-06
3.46077e-06
3.34437e-06
3.25921e-06
3.21938e-06
3.23807e-06
3.32126e-06
3.46359e-06
3.64897e-06
3.85594e-06
4.06376e-06
4.25764e-06
4.42734e-06
4.57174e-06
4.68028e-06
4.77335e-06
3.47004e-06
4.2651e-06
4.63191e-06
4.85064e-06
4.86025e-06
4.73855e-06
4.57541e-06
4.40948e-06
4.25533e-06
4.11437e-06
3.98068e-06
3.8476e-06
3.71226e-06
3.57562e-06
3.4399e-06
3.30948e-06
3.18772e-06
3.07685e-06
2.98086e-06
2.90849e-06
2.87363e-06
2.89202e-06
2.97483e-06
3.12262e-06
3.32338e-06
3.55581e-06
3.79585e-06
4.02269e-06
4.22322e-06
4.39092e-06
4.52861e-06
4.63553e-06
4.73168e-06
2.76912e-06
3.47197e-06
3.8216e-06
4.03209e-06
4.0811e-06
4.02028e-06
3.9156e-06
3.79698e-06
3.6773e-06
3.56155e-06
3.44932e-06
3.33899e-06
3.23106e-06
3.12467e-06
3.02104e-06
2.92142e-06
2.82677e-06
2.73948e-06
2.66604e-06
2.61872e-06
2.61417e-06
2.66833e-06
2.78961e-06
2.97411e-06
3.20569e-06
3.46067e-06
3.71449e-06
3.94731e-06
4.14776e-06
4.31215e-06
4.44585e-06
4.55317e-06
4.65372e-06
2.23312e-06
2.84912e-06
3.19565e-06
3.41312e-06
3.49676e-06
3.47681e-06
3.40429e-06
3.30956e-06
3.20864e-06
3.10933e-06
3.01337e-06
2.9211e-06
2.83233e-06
2.74802e-06
2.66898e-06
2.59506e-06
2.52621e-06
2.4648e-06
2.41835e-06
2.40047e-06
2.4282e-06
2.516e-06
2.66916e-06
2.88029e-06
3.13084e-06
3.3964e-06
3.65315e-06
3.88298e-06
4.07673e-06
4.23332e-06
4.36021e-06
4.46442e-06
4.56518e-06
1.81347e-06
2.35491e-06
2.69971e-06
2.92074e-06
3.02546e-06
3.03707e-06
2.99664e-06
2.93158e-06
2.85677e-06
2.78005e-06
2.70479e-06
2.63279e-06
2.56523e-06
2.50323e-06
2.4461e-06
2.39222e-06
2.34094e-06
2.2953e-06
2.26449e-06
2.26363e-06
2.31003e-06
2.41665e-06
2.58622e-06
2.80894e-06
3.06494e-06
3.32978e-06
3.58067e-06
3.80132e-06
3.98466e-06
4.1317e-06
4.25142e-06
4.35193e-06
4.45186e-06
1.47744e-06
1.95771e-06
2.30072e-06
2.52768e-06
2.65107e-06
2.68966e-06
2.67527e-06
2.63208e-06
2.57494e-06
2.51287e-06
2.45102e-06
2.39241e-06
2.33935e-06
2.2924e-06
2.25038e-06
2.21131e-06
2.17457e-06
2.14392e-06
2.12944e-06
2.14658e-06
2.21171e-06
2.33575e-06
2.51895e-06
2.74961e-06
3.00704e-06
3.26717e-06
3.50863e-06
3.71713e-06
3.88777e-06
4.02349e-06
4.13455e-06
4.22951e-06
4.32628e-06
1.2027e-06
1.63547e-06
1.97615e-06
2.20869e-06
2.34553e-06
2.40387e-06
2.40998e-06
2.38592e-06
2.34632e-06
2.3005e-06
2.25428e-06
2.21131e-06
2.17381e-06
2.14202e-06
2.11418e-06
2.08779e-06
2.06235e-06
2.0424e-06
2.03901e-06
2.06797e-06
2.1449e-06
2.27897e-06
2.46845e-06
2.70016e-06
2.95286e-06
3.20302e-06
3.43073e-06
3.62379e-06
3.77946e-06
3.90246e-06
4.0041e-06
4.09292e-06
4.18597e-06
9.73758e-07
1.37192e-06
1.70975e-06
1.94719e-06
2.09472e-06
2.16907e-06
2.1924e-06
2.18439e-06
2.15893e-06
2.12551e-06
2.09049e-06
2.05814e-06
2.03094e-06
2.00902e-06
1.99036e-06
1.97248e-06
1.95539e-06
1.94446e-06
1.95135e-06
1.99169e-06
2.07989e-06
2.22319e-06
2.41787e-06
2.64933e-06
2.89593e-06
3.13479e-06
3.34764e-06
3.52443e-06
3.66461e-06
3.77457e-06
3.86653e-06
3.9489e-06
4.0377e-06
7.79795e-07
1.15535e-06
1.49031e-06
1.73146e-06
1.88691e-06
1.97308e-06
2.00945e-06
2.01391e-06
1.99995e-06
1.9772e-06
1.95242e-06
1.93017e-06
1.91286e-06
1.9003e-06
1.89018e-06
1.87998e-06
1.87014e-06
1.86673e-06
1.88194e-06
1.93122e-06
2.02785e-06
2.17733e-06
2.37413e-06
2.60236e-06
2.84002e-06
3.06505e-06
3.2609e-06
3.41979e-06
3.54341e-06
3.63978e-06
3.7219e-06
3.7979e-06
3.88268e-06
6.13355e-07
9.77523e-07
1.30987e-06
1.5532e-06
1.71417e-06
1.80892e-06
1.85518e-06
1.86936e-06
1.86436e-06
1.84975e-06
1.83247e-06
1.81727e-06
1.80652e-06
1.79995e-06
1.79519e-06
1.78998e-06
1.78533e-06
1.78802e-06
1.81063e-06
1.8682e-06
1.97277e-06
2.12798e-06
2.32641e-06
2.55088e-06
2.77911e-06
2.98991e-06
3.1686e-06
3.30972e-06
3.41717e-06
3.50054e-06
3.57349e-06
3.64379e-06
3.72511e-06
4.69848e-07
8.33095e-07
1.16289e-06
1.40664e-06
1.57079e-06
1.67105e-06
1.72389e-06
1.74456e-06
1.74549e-06
1.73631e-06
1.72417e-06
1.71398e-06
1.70817e-06
1.70633e-06
1.70604e-06
1.70522e-06
1.70533e-06
1.71375e-06
1.74326e-06
1.8085e-06
1.9202e-06
2.08017e-06
2.27917e-06
2.49875e-06
2.71646e-06
2.91212e-06
3.07302e-06
3.19612e-06
3.28755e-06
3.35842e-06
3.42291e-06
3.48834e-06
3.56705e-06
3.48138e-07
7.19295e-07
1.04569e-06
1.28783e-06
1.45284e-06
1.5558e-06
1.61226e-06
1.63656e-06
1.64076e-06
1.63449e-06
1.62507e-06
1.61757e-06
1.61443e-06
1.61525e-06
1.61764e-06
1.61979e-06
1.62365e-06
1.63709e-06
1.67307e-06
1.74566e-06
1.86424e-06
2.02873e-06
2.22799e-06
2.4424e-06
2.64941e-06
2.82999e-06
2.97348e-06
3.07931e-06
3.15579e-06
3.21543e-06
3.27275e-06
3.33453e-06
3.41167e-06
2.53414e-07
6.3557e-07
9.55999e-07
1.1941e-06
1.35752e-06
1.46038e-06
1.51731e-06
1.54194e-06
1.54609e-06
1.53947e-06
1.52966e-06
1.52202e-06
1.51921e-06
1.52089e-06
1.52477e-06
1.52925e-06
1.53666e-06
1.55522e-06
1.59791e-06
1.67809e-06
1.80371e-06
1.97274e-06
2.17223e-06
2.38142e-06
2.57782e-06
2.74364e-06
2.8704e-06
2.96001e-06
3.0229e-06
3.07286e-06
3.12457e-06
3.1841e-06
3.26089e-06
2.03292e-07
5.82863e-07
8.92567e-07
1.1239e-06
1.28338e-06
1.38367e-06
1.43845e-06
1.46075e-06
1.46218e-06
1.4526e-06
1.43998e-06
1.43003e-06
1.42568e-06
1.4268e-06
1.43123e-06
1.43753e-06
1.44835e-06
1.47212e-06
1.52168e-06
1.60956e-06
1.74216e-06
1.91551e-06
2.11488e-06
2.31856e-06
2.50425e-06
2.65561e-06
2.76642e-06
2.84104e-06
2.89193e-06
2.93396e-06
2.98171e-06
3.0404e-06
3.11794e-06
2.18423e-07
5.62329e-07
8.5471e-07
1.07605e-06
1.22883e-06
1.32353e-06
1.3727e-06
1.38876e-06
1.38323e-06
1.36631e-06
1.3465e-06
1.33021e-06
1.32095e-06
1.31902e-06
1.32248e-06
1.33006e-06
1.34448e-06
1.37418e-06
1.43157e-06
1.52815e-06
1.66861e-06
1.84704e-06
2.04705e-06
2.24613e-06
2.42237e-06
2.56094e-06
2.65792e-06
2.72006e-06
2.76166e-06
2.79842e-06
2.84457e-06
2.90429e-06
2.98394e-06
2.86125e-07
5.73658e-07
8.4228e-07
1.05079e-06
1.19495e-06
1.28242e-06
1.32436e-06
1.33252e-06
1.31826e-06
1.29202e-06
1.2629e-06
1.2381e-06
1.22203e-06
1.21566e-06
1.21747e-06
1.22631e-06
1.24486e-06
1.28126e-06
1.3472e-06
1.45285e-06
1.6011e-06
1.78412e-06
1.98405e-06
2.17785e-06
2.34428e-06
2.47027e-06
2.55426e-06
2.60536e-06
2.63949e-06
2.67288e-06
2.71905e-06
2.78097e-06
2.86343e-06
3.80849e-07
6.1425e-07
8.54483e-07
1.04683e-06
1.17894e-06
1.25499e-06
1.28451e-06
1.27865e-06
1.2488e-06
1.206e-06
1.16039e-06
1.12055e-06
1.09237e-06
1.07807e-06
1.07673e-06
1.08718e-06
1.11155e-06
1.15713e-06
1.23427e-06
1.3514e-06
1.50944e-06
1.69884e-06
1.9006e-06
2.09145e-06
2.25102e-06
2.36803e-06
2.44322e-06
2.48781e-06
2.51897e-06
2.55303e-06
2.60248e-06
2.66891e-06
2.7556e-06
4.91169e-07
6.81175e-07
8.92353e-07
1.06815e-06
1.1891e-06
1.2557e-06
1.27546e-06
1.25828e-06
1.21489e-06
1.15622e-06
1.09298e-06
1.03521e-06
9.90991e-07
9.64972e-07
9.57941e-07
9.69072e-07
9.99718e-07
1.05555e-06
1.14486e-06
1.27375e-06
1.44102e-06
1.63547e-06
1.83727e-06
2.02335e-06
2.17462e-06
2.28196e-06
2.34851e-06
2.38751e-06
2.41706e-06
2.45312e-06
2.50669e-06
2.57783e-06
2.66841e-06
6.15e-07
7.71975e-07
9.5394e-07
1.10899e-06
1.2118e-06
1.25944e-06
1.25795e-06
1.21684e-06
1.147e-06
1.05983e-06
9.67055e-07
8.80648e-07
8.11984e-07
7.69728e-07
7.57521e-07
7.74478e-07
8.19217e-07
8.93477e-07
1.00173e-06
1.14725e-06
1.32723e-06
1.52981e-06
1.7352e-06
1.92106e-06
2.06975e-06
2.17417e-06
2.23955e-06
2.2806e-06
2.31565e-06
2.35967e-06
2.42177e-06
2.5005e-06
2.5965e-06
7.54322e-07
8.87644e-07
1.04648e-06
1.18874e-06
1.28563e-06
1.33002e-06
1.32456e-06
1.2761e-06
1.19355e-06
1.08692e-06
9.67172e-07
8.46695e-07
7.39921e-07
6.62775e-07
6.28622e-07
6.41958e-07
6.98218e-07
7.91447e-07
9.19369e-07
1.08124e-06
1.2724e-06
1.48037e-06
1.68565e-06
1.86709e-06
2.00918e-06
2.10742e-06
2.16945e-06
2.21132e-06
2.25114e-06
2.3023e-06
2.37155e-06
2.45591e-06
2.55505e-06
9.1392e-07
1.02945e-06
1.16131e-06
1.27545e-06
1.34168e-06
1.35264e-06
1.3121e-06
1.22802e-06
1.10954e-06
9.65856e-07
8.06384e-07
6.41737e-07
4.86563e-07
3.65568e-07
3.17073e-07
3.60508e-07
4.65737e-07
6.02064e-07
7.60458e-07
9.41614e-07
1.14422e-06
1.35867e-06
1.56751e-06
1.75129e-06
1.89632e-06
1.99997e-06
2.07121e-06
2.12625e-06
2.18172e-06
2.24853e-06
2.33086e-06
2.42469e-06
2.52898e-06
1.10066e-06
1.20766e-06
1.33399e-06
1.46009e-06
1.55034e-06
1.58724e-06
1.56702e-06
1.49378e-06
1.37519e-06
1.22026e-06
1.0381e-06
8.37479e-07
6.27371e-07
4.19188e-07
2.3976e-07
2.16181e-07
3.6303e-07
5.3817e-07
7.23439e-07
9.22494e-07
1.13574e-06
1.35429e-06
1.56163e-06
1.74029e-06
1.87955e-06
1.97994e-06
2.05266e-06
2.11421e-06
2.17936e-06
2.25611e-06
2.34579e-06
2.44337e-06
2.54745e-06
1.32608e-06
1.4226e-06
1.50682e-06
1.57023e-06
1.59044e-06
1.56302e-06
1.49199e-06
1.38315e-06
1.24208e-06
1.0744e-06
8.86305e-07
6.85459e-07
4.83609e-07
3.04317e-07
2.05267e-07
2.51835e-07
3.83641e-07
5.35175e-07
6.93895e-07
8.65553e-07
1.05474e-06
1.25573e-06
1.45315e-06
1.62967e-06
1.77466e-06
1.88864e-06
1.98185e-06
2.0682e-06
2.15852e-06
2.25697e-06
2.36223e-06
2.4693e-06
2.57665e-06
1.60325e-06
1.7187e-06
1.86404e-06
2.03686e-06
2.17095e-06
2.22858e-06
2.20638e-06
2.11588e-06
1.97195e-06
1.78937e-06
1.58164e-06
1.36097e-06
1.14017e-06
9.35425e-07
7.68787e-07
6.66826e-07
6.4711e-07
7.02219e-07
8.13004e-07
9.66372e-07
1.15099e-06
1.35001e-06
1.54274e-06
1.71181e-06
1.84973e-06
1.9608e-06
2.05724e-06
2.15195e-06
2.25232e-06
2.35874e-06
2.46713e-06
2.57233e-06
2.67289e-06
1.96319e-06
2.03968e-06
2.02682e-06
2.00034e-06
1.97828e-06
1.95811e-06
1.92923e-06
1.87978e-06
1.80211e-06
1.69534e-06
1.56541e-06
1.42445e-06
1.28999e-06
1.18218e-06
1.1165e-06
1.09492e-06
1.10493e-06
1.13055e-06
1.16524e-06
1.21584e-06
1.29454e-06
1.40529e-06
1.53787e-06
1.67543e-06
1.8062e-06
1.92891e-06
2.04948e-06
2.17386e-06
2.30274e-06
2.43191e-06
2.55487e-06
2.66738e-06
2.76772e-06
2.42771e-06
2.68134e-06
3.03152e-06
3.37578e-06
3.57098e-06
3.60705e-06
3.5323e-06
3.38924e-06
3.20681e-06
3.00469e-06
2.79484e-06
2.58405e-06
2.37698e-06
2.17796e-06
1.99122e-06
1.82076e-06
1.67195e-06
1.55529e-06
1.48874e-06
1.49066e-06
1.56336e-06
1.68541e-06
1.82455e-06
1.956e-06
2.0718e-06
2.17886e-06
2.28932e-06
2.41023e-06
2.53891e-06
2.66665e-06
2.78328e-06
2.88425e-06
2.96716e-06
3.09646e-06
2.96076e-06
2.62533e-06
2.51327e-06
2.6401e-06
2.85861e-06
3.05228e-06
3.16865e-06
3.19706e-06
3.15018e-06
3.05059e-06
2.92293e-06
2.79085e-06
2.67424e-06
2.58441e-06
2.51969e-06
2.46648e-06
2.40749e-06
2.33263e-06
2.24525e-06
2.16011e-06
2.09498e-06
2.06191e-06
2.06519e-06
2.10631e-06
2.18753e-06
2.30851e-06
2.46078e-06
2.62725e-06
2.78926e-06
2.93065e-06
3.04595e-06
3.13083e-06
4.1064e-06
5.34062e-06
6.0843e-06
6.30057e-06
6.17522e-06
5.94947e-06
5.80324e-06
5.79865e-06
5.91466e-06
6.08722e-06
6.24579e-06
6.33406e-06
6.31525e-06
6.17101e-06
5.90082e-06
5.52112e-06
5.06407e-06
4.5705e-06
4.08161e-06
3.63412e-06
3.25842e-06
2.97592e-06
2.79646e-06
2.7186e-06
2.73217e-06
2.81993e-06
2.95778e-06
3.11724e-06
3.27039e-06
3.39725e-06
3.48444e-06
3.53574e-06
3.5459e-06
5.41318e-06
3.37456e-06
2.68417e-06
4.65523e-06
7.33514e-06
9.77258e-06
1.17579e-05
1.32431e-05
1.42571e-05
1.48585e-05
1.51094e-05
1.50714e-05
1.48044e-05
1.43625e-05
1.37909e-05
1.31226e-05
1.2376e-05
1.15537e-05
1.06648e-05
9.73192e-06
8.78869e-06
7.87559e-06
7.03473e-06
6.30464e-06
5.7131e-06
5.26932e-06
4.96025e-06
4.7549e-06
4.61495e-06
4.50701e-06
4.40192e-06
4.29427e-06
4.14594e-06
1.13126e-05
1.64536e-05
1.82404e-05
1.9787e-05
2.03533e-05
1.97826e-05
1.83013e-05
1.61538e-05
1.35815e-05
1.08155e-05
8.04638e-06
5.41895e-06
3.08837e-06
1.81687e-06
2.92751e-06
4.39841e-06
5.68819e-06
6.78071e-06
7.72387e-06
8.56346e-06
9.3316e-06
1.0036e-05
1.06571e-05
1.11571e-05
1.14956e-05
1.16446e-05
1.16018e-05
1.1395e-05
1.10742e-05
1.07018e-05
1.0321e-05
9.99345e-06
9.67616e-06
2.45994e-05
2.82667e-05
3.82171e-05
5.19797e-05
6.52948e-05
7.79672e-05
8.92553e-05
9.85555e-05
0.000105826
0.00011116
0.000114687
0.000116598
0.000117109
0.000116449
0.000114852
0.000112509
0.0001096
0.000106327
0.000102829
9.92044e-05
9.55337e-05
9.18782e-05
8.82837e-05
8.47866e-05
8.14151e-05
7.81907e-05
7.51297e-05
7.22441e-05
6.95441e-05
6.70344e-05
6.47291e-05
6.26034e-05
6.07168e-05
0.000543026
0.000510346
0.000491497
0.000468134
0.000444666
0.000423152
0.000402813
0.000383752
0.000366258
0.000350355
0.000336018
0.000323217
0.000311899
0.000301993
0.000293394
0.000285914
0.000279277
0.000273137
0.000267235
0.000261424
0.000255617
0.000249772
0.000243887
0.000237986
0.000232105
0.00022629
0.000220582
0.000215013
0.000209604
0.000204362
0.00019924
0.000194571
0.000190521
0.00013609
0.000140266
0.00013136
0.000113117
9.25591e-05
7.25263e-05
4.93967e-05
1.81497e-05
1.70073e-05
3.61e-05
3.90855e-05
3.43614e-05
2.91477e-05
2.49995e-05
2.15497e-05
1.8631e-05
1.62102e-05
1.42227e-05
1.25823e-05
1.12113e-05
1.00464e-05
9.03846e-06
8.15313e-06
7.36912e-06
6.67347e-06
6.0562e-06
5.50771e-06
5.01859e-06
4.58038e-06
4.18599e-06
3.82965e-06
3.50658e-06
3.2128e-06
2.94495e-06
2.70018e-06
2.47607e-06
2.27059e-06
2.08198e-06
1.90875e-06
1.74955e-06
1.60321e-06
1.46865e-06
1.34489e-06
1.23105e-06
1.12631e-06
1.02991e-06
9.4118e-07
8.59515e-07
7.8436e-07
7.15217e-07
6.51636e-07
5.9321e-07
5.39569e-07
4.9037e-07
4.45304e-07
4.0408e-07
3.66432e-07
3.32109e-07
3.0088e-07
2.72528e-07
2.4685e-07
2.23658e-07
2.02777e-07
1.84043e-07
1.67303e-07
1.52413e-07
1.39241e-07
1.27656e-07
1.1754e-07
1.08775e-07
1.01249e-07
9.48509e-08
8.94731e-08
8.50044e-08
8.13399e-08
7.83742e-08
7.60142e-08
7.41678e-08
7.27552e-08
7.1702e-08
7.09469e-08
7.04346e-08
7.01217e-08
6.99698e-08
6.99507e-08
7.00393e-08
7.02184e-08
7.04711e-08
7.07886e-08
7.11585e-08
7.15798e-08
7.20371e-08
7.25376e-08
7.30552e-08
7.35865e-08
7.4151e-08
7.4557e-08
7.50768e-08
7.64282e-08
7.28876e-08
0.000104449
0.000101184
9.4475e-05
8.1821e-05
6.39742e-05
4.09156e-05
1.54444e-05
2.01027e-05
3.47886e-05
3.78519e-05
3.46011e-05
3.05703e-05
2.70115e-05
2.36904e-05
2.06655e-05
1.80552e-05
1.58567e-05
1.40138e-05
1.2466e-05
1.11563e-05
1.00333e-05
9.05427e-06
8.18878e-06
7.41813e-06
6.73107e-06
6.11891e-06
5.57302e-06
5.08474e-06
4.64609e-06
4.25034e-06
3.892e-06
3.56652e-06
3.2701e-06
2.99954e-06
2.75209e-06
2.52538e-06
2.31737e-06
2.12628e-06
1.95055e-06
1.78886e-06
1.64e-06
1.50293e-06
1.37672e-06
1.26052e-06
1.15356e-06
1.05515e-06
9.6464e-07
8.81432e-07
8.0498e-07
7.34776e-07
6.70354e-07
6.11282e-07
5.57165e-07
5.07632e-07
4.62346e-07
4.2099e-07
3.83273e-07
3.48922e-07
3.17685e-07
2.89328e-07
2.63632e-07
2.40394e-07
2.19425e-07
2.00546e-07
1.83595e-07
1.68414e-07
1.54862e-07
1.42802e-07
1.32108e-07
1.22662e-07
1.14352e-07
1.07074e-07
1.00727e-07
9.52176e-08
9.04552e-08
8.63546e-08
8.28404e-08
7.98423e-08
7.72971e-08
7.51456e-08
7.33354e-08
7.18184e-08
7.05533e-08
6.95021e-08
6.86324e-08
6.79142e-08
6.73212e-08
6.68269e-08
6.64079e-08
6.60359e-08
6.56882e-08
6.53219e-08
6.49181e-08
6.43835e-08
6.37334e-08
6.27325e-08
6.15534e-08
5.94661e-08
5.8433e-08
5.06588e-08
4.14666e-05
3.85534e-05
3.43083e-05
2.70077e-05
1.83002e-05
1.56008e-05
2.39922e-05
3.18013e-05
3.40509e-05
3.26718e-05
3.04123e-05
2.79556e-05
2.5209e-05
2.239e-05
1.97773e-05
1.74769e-05
1.54892e-05
1.37872e-05
1.23347e-05
1.10898e-05
1.00112e-05
9.06302e-06
8.21919e-06
7.46352e-06
6.78639e-06
6.18039e-06
5.63792e-06
5.15109e-06
4.7125e-06
4.31582e-06
3.95583e-06
3.6282e-06
3.32925e-06
3.0559e-06
2.80549e-06
2.57576e-06
2.36474e-06
2.1707e-06
1.99215e-06
1.82774e-06
1.67629e-06
1.53675e-06
1.40817e-06
1.2897e-06
1.18058e-06
1.08011e-06
9.87648e-07
9.02605e-07
8.24442e-07
7.52658e-07
6.86789e-07
6.26405e-07
5.71105e-07
5.20515e-07
4.7429e-07
4.32105e-07
3.93659e-07
3.58671e-07
3.26877e-07
2.98035e-07
2.71916e-07
2.48308e-07
2.27015e-07
2.07851e-07
1.90644e-07
1.75233e-07
1.6147e-07
1.49213e-07
1.38332e-07
1.28706e-07
1.20219e-07
1.12765e-07
1.06242e-07
1.00556e-07
9.56159e-08
9.13414e-08
8.76551e-08
8.44892e-08
8.17804e-08
7.94709e-08
7.75082e-08
7.58454e-08
7.44405e-08
7.3256e-08
7.22582e-08
7.14162e-08
7.07012e-08
7.00849e-08
6.95391e-08
6.90321e-08
6.85321e-08
6.79923e-08
6.73751e-08
6.6587e-08
6.5601e-08
6.41993e-08
6.24559e-08
5.97648e-08
5.74934e-08
4.90142e-08
3.25236e-06
3.1184e-06
5.00321e-06
9.40987e-06
1.52694e-05
2.13013e-05
2.59437e-05
2.83132e-05
2.89139e-05
2.8601e-05
2.75424e-05
2.57427e-05
2.34902e-05
2.11401e-05
1.89107e-05
1.68898e-05
1.51004e-05
1.35385e-05
1.21835e-05
1.10063e-05
9.97507e-06
9.06066e-06
8.24099e-06
7.50236e-06
6.83682e-06
6.23833e-06
5.70038e-06
5.21586e-06
4.77798e-06
4.38085e-06
4.01959e-06
3.69012e-06
3.38894e-06
3.11307e-06
2.85995e-06
2.62737e-06
2.41343e-06
2.21646e-06
2.03499e-06
1.86772e-06
1.7135e-06
1.57129e-06
1.44016e-06
1.31926e-06
1.20784e-06
1.10519e-06
1.01067e-06
9.23691e-07
8.43713e-07
7.7023e-07
7.02777e-07
6.40918e-07
5.84251e-07
5.324e-07
4.85012e-07
4.41762e-07
4.02343e-07
3.66469e-07
3.33872e-07
3.04305e-07
2.77534e-07
2.53343e-07
2.31528e-07
2.11902e-07
1.94287e-07
1.78519e-07
1.64445e-07
1.51921e-07
1.40812e-07
1.30993e-07
1.22347e-07
1.14762e-07
1.08134e-07
1.02365e-07
9.73643e-08
9.30449e-08
8.93293e-08
8.61443e-08
8.34252e-08
8.11118e-08
7.91501e-08
7.74915e-08
7.60929e-08
7.49153e-08
7.39243e-08
7.30878e-08
7.23764e-08
7.17604e-08
7.12107e-08
7.06942e-08
7.01774e-08
6.96121e-08
6.89558e-08
6.81176e-08
6.70528e-08
6.55698e-08
6.36743e-08
6.08804e-08
5.83251e-08
4.96911e-08
6.20807e-06
5.56964e-06
6.89475e-06
1.05306e-05
1.48058e-05
1.87785e-05
2.19467e-05
2.41933e-05
2.55166e-05
2.58079e-05
2.5106e-05
2.36892e-05
2.18867e-05
1.99549e-05
1.80607e-05
1.6294e-05
1.46933e-05
1.32684e-05
1.20113e-05
1.09037e-05
9.92239e-06
9.04426e-06
8.25105e-06
7.53147e-06
6.8793e-06
6.28983e-06
5.75767e-06
5.27655e-06
4.84027e-06
4.44341e-06
4.08145e-06
3.75058e-06
3.44751e-06
3.1694e-06
2.9138e-06
2.6786e-06
2.46194e-06
2.26221e-06
2.07799e-06
1.908e-06
1.75111e-06
1.60631e-06
1.47267e-06
1.34937e-06
1.23565e-06
1.13081e-06
1.03422e-06
9.45292e-07
8.63477e-07
7.88274e-07
7.19211e-07
6.55853e-07
5.97793e-07
5.44651e-07
4.9607e-07
4.5172e-07
4.1129e-07
3.7449e-07
3.41048e-07
3.10711e-07
2.83243e-07
2.58422e-07
2.36043e-07
2.15913e-07
1.97853e-07
1.81694e-07
1.67279e-07
1.54462e-07
1.43105e-07
1.33079e-07
1.24263e-07
1.16542e-07
1.09809e-07
1.03962e-07
9.89056e-08
9.45509e-08
9.08159e-08
8.76243e-08
8.49082e-08
8.26057e-08
8.06602e-08
7.90215e-08
7.76444e-08
7.64892e-08
7.55197e-08
7.47031e-08
7.40087e-08
7.34064e-08
7.28657e-08
7.23531e-08
7.18327e-08
7.12561e-08
7.05759e-08
6.97053e-08
6.85822e-08
6.70434e-08
6.50275e-08
6.21657e-08
5.94038e-08
5.06205e-08
6.2364e-06
5.88603e-06
6.90616e-06
9.58464e-06
1.29771e-05
1.63883e-05
1.93839e-05
2.16442e-05
2.29573e-05
2.33088e-05
2.28566e-05
2.18193e-05
2.04144e-05
1.88367e-05
1.72345e-05
1.56986e-05
1.42747e-05
1.29817e-05
1.18215e-05
1.07846e-05
9.85519e-06
9.01542e-06
8.25067e-06
7.55199e-06
6.9148e-06
6.33578e-06
5.81062e-06
5.33389e-06
4.90004e-06
4.50414e-06
4.14203e-06
3.81019e-06
3.50557e-06
3.22549e-06
2.96762e-06
2.72993e-06
2.51066e-06
2.30825e-06
2.12132e-06
1.94864e-06
1.7891e-06
1.64172e-06
1.50558e-06
1.37987e-06
1.26384e-06
1.15681e-06
1.05813e-06
9.67228e-07
8.83552e-07
8.06599e-07
7.35898e-07
6.71011e-07
6.11526e-07
5.57061e-07
5.07257e-07
4.61778e-07
4.2031e-07
3.82559e-07
3.48248e-07
3.17121e-07
2.88937e-07
2.63471e-07
2.40514e-07
2.19869e-07
2.01352e-07
1.84793e-07
1.70031e-07
1.56916e-07
1.45307e-07
1.35072e-07
1.26085e-07
1.18229e-07
1.11392e-07
1.05469e-07
1.00362e-07
9.59769e-08
9.22283e-08
8.90376e-08
8.63318e-08
8.40468e-08
8.21239e-08
8.05107e-08
7.91604e-08
7.80318e-08
7.70875e-08
7.62938e-08
7.56189e-08
7.5032e-08
7.45016e-08
7.39933e-08
7.34692e-08
7.28806e-08
7.21751e-08
7.12698e-08
7.00858e-08
6.84859e-08
6.6347e-08
6.34045e-08
6.04346e-08
5.14819e-08
6.32837e-06
6.43184e-06
7.37287e-06
9.43713e-06
1.2149e-05
1.4971e-05
1.74904e-05
1.94236e-05
2.0632e-05
2.10971e-05
2.08919e-05
2.01572e-05
1.90657e-05
1.77823e-05
1.64352e-05
1.51079e-05
1.38484e-05
1.26815e-05
1.16163e-05
1.06504e-05
9.77406e-06
8.97426e-06
8.23968e-06
7.56354e-06
6.94286e-06
6.37563e-06
5.85864e-06
5.38732e-06
4.95676e-06
4.56251e-06
4.20082e-06
3.8685e-06
3.56271e-06
3.28096e-06
3.02106e-06
2.78109e-06
2.55937e-06
2.35439e-06
2.16485e-06
1.98954e-06
1.8274e-06
1.67746e-06
1.53884e-06
1.41072e-06
1.29238e-06
1.18314e-06
1.08236e-06
9.89462e-07
9.03905e-07
8.25183e-07
7.52823e-07
6.86386e-07
6.25458e-07
5.69652e-07
5.18606e-07
4.71981e-07
4.29457e-07
3.90737e-07
3.55542e-07
3.23609e-07
2.94694e-07
2.68569e-07
2.45019e-07
2.23846e-07
2.04863e-07
1.87895e-07
1.72778e-07
1.5936e-07
1.47495e-07
1.37048e-07
1.27891e-07
1.19902e-07
1.12965e-07
1.06971e-07
1.01818e-07
9.74094e-08
9.36546e-08
9.04715e-08
8.77836e-08
8.55233e-08
8.36298e-08
8.20489e-08
8.07318e-08
7.96358e-08
7.87223e-08
7.79566e-08
7.73059e-08
7.67386e-08
7.62221e-08
7.57211e-08
7.5196e-08
7.45974e-08
7.38681e-08
7.29287e-08
7.16838e-08
7.00217e-08
6.77587e-08
6.47304e-08
6.15481e-08
5.24139e-08
6.45868e-06
6.74739e-06
7.58444e-06
9.20021e-06
1.13594e-05
1.36762e-05
1.58153e-05
1.75317e-05
1.86775e-05
1.92055e-05
1.91624e-05
1.86569e-05
1.78231e-05
1.67909e-05
1.5667e-05
1.45269e-05
1.34189e-05
1.23715e-05
1.13984e-05
1.0503e-05
9.68034e-06
8.92169e-06
8.21868e-06
7.56652e-06
6.96374e-06
6.40956e-06
5.90186e-06
5.43693e-06
5.0105e-06
4.61861e-06
4.25792e-06
3.92557e-06
3.61899e-06
3.33589e-06
3.07421e-06
2.83216e-06
2.60813e-06
2.40071e-06
2.20864e-06
2.03077e-06
1.86607e-06
1.7136e-06
1.5725e-06
1.44198e-06
1.32133e-06
1.20986e-06
1.10696e-06
1.01204e-06
9.24579e-07
8.44058e-07
7.70009e-07
7.01989e-07
6.39585e-07
5.82406e-07
5.30087e-07
4.82286e-07
4.38679e-07
3.98965e-07
3.6286e-07
3.301e-07
3.00435e-07
2.73634e-07
2.49478e-07
2.27765e-07
2.08305e-07
1.9092e-07
1.75443e-07
1.61717e-07
1.49595e-07
1.38937e-07
1.29611e-07
1.21492e-07
1.14459e-07
1.08401e-07
1.03209e-07
9.87841e-08
9.50311e-08
9.18635e-08
8.92022e-08
8.69752e-08
8.51191e-08
8.35778e-08
8.23005e-08
8.12432e-08
8.03658e-08
7.96326e-08
7.901e-08
7.84654e-08
7.79655e-08
7.74739e-08
7.69492e-08
7.63415e-08
7.55887e-08
7.4615e-08
7.33088e-08
7.15817e-08
6.91943e-08
6.60718e-08
6.26765e-08
5.33453e-08
6.47623e-06
6.88586e-06
7.67687e-06
9.00471e-06
1.07529e-05
1.26602e-05
1.44632e-05
1.59538e-05
1.70007e-05
1.75535e-05
1.76325e-05
1.73102e-05
1.66863e-05
1.58639e-05
1.49325e-05
1.39592e-05
1.299e-05
1.20547e-05
1.11704e-05
1.03441e-05
9.57522e-06
8.85847e-06
8.18809e-06
7.56113e-06
6.97746e-06
6.43749e-06
5.94014e-06
5.48254e-06
5.06105e-06
4.67222e-06
4.31312e-06
3.98123e-06
3.67426e-06
3.39012e-06
3.12693e-06
2.88299e-06
2.65682e-06
2.44709e-06
2.25259e-06
2.07223e-06
1.90502e-06
1.75005e-06
1.6065e-06
1.47358e-06
1.35061e-06
1.23691e-06
1.13187e-06
1.03493e-06
9.45533e-07
8.63192e-07
7.87431e-07
7.17807e-07
6.53904e-07
5.95329e-07
5.41716e-07
4.92716e-07
4.48005e-07
4.07277e-07
3.70245e-07
3.36639e-07
3.06207e-07
2.78713e-07
2.53936e-07
2.3167e-07
2.11722e-07
1.9391e-07
1.78065e-07
1.64026e-07
1.51642e-07
1.40771e-07
1.31277e-07
1.23029e-07
1.15906e-07
1.09788e-07
1.04565e-07
1.00131e-07
9.63878e-08
9.32447e-08
9.0618e-08
8.8433e-08
8.66224e-08
8.51278e-08
8.38972e-08
8.28847e-08
8.20491e-08
8.13535e-08
8.07635e-08
8.02458e-08
7.97658e-08
7.92866e-08
7.87647e-08
7.81498e-08
7.73751e-08
7.63679e-08
7.5001e-08
7.32079e-08
7.06969e-08
6.74749e-08
6.38669e-08
5.43269e-08
6.46434e-06
6.92551e-06
7.66167e-06
8.77241e-06
1.02034e-05
1.17814e-05
1.33058e-05
1.46051e-05
1.55616e-05
1.61194e-05
1.62823e-05
1.60992e-05
1.56444e-05
1.4998e-05
1.42331e-05
1.34079e-05
1.25651e-05
1.17344e-05
1.09346e-05
1.01756e-05
9.46008e-06
8.78554e-06
8.14856e-06
7.54779e-06
6.98429e-06
6.45958e-06
5.97356e-06
5.52417e-06
5.10842e-06
4.72334e-06
4.36641e-06
4.03546e-06
3.7285e-06
3.44365e-06
3.1792e-06
2.9336e-06
2.70547e-06
2.49355e-06
2.29672e-06
2.11395e-06
1.94428e-06
1.78685e-06
1.64086e-06
1.50556e-06
1.38027e-06
1.26432e-06
1.15714e-06
1.05813e-06
9.66789e-07
8.826e-07
8.05097e-07
7.33838e-07
6.68405e-07
6.08405e-07
5.53467e-07
5.03241e-07
4.57398e-07
4.1563e-07
3.77646e-07
3.43172e-07
3.11953e-07
2.8375e-07
2.58337e-07
2.35505e-07
2.15057e-07
1.9681e-07
1.80589e-07
1.66233e-07
1.53586e-07
1.42503e-07
1.32842e-07
1.24472e-07
1.17263e-07
1.11094e-07
1.05848e-07
1.01414e-07
9.76907e-08
9.45816e-08
9.19996e-08
8.98662e-08
8.81109e-08
8.66723e-08
8.54964e-08
8.4536e-08
8.37487e-08
8.30965e-08
8.25441e-08
8.20576e-08
8.16014e-08
8.11377e-08
8.06214e-08
8.00015e-08
7.92067e-08
7.81671e-08
7.6741e-08
7.48814e-08
7.22489e-08
6.89224e-08
6.51046e-08
5.53445e-08
6.38474e-06
6.8677e-06
7.56038e-06
8.51953e-06
9.71682e-06
1.10364e-05
1.23286e-05
1.34563e-05
1.43197e-05
1.48655e-05
1.50861e-05
1.50108e-05
1.46924e-05
1.41925e-05
1.35702e-05
1.28756e-05
1.21472e-05
1.14133e-05
1.06935e-05
9.99949e-06
9.33631e-06
8.70393e-06
8.10079e-06
7.52693e-06
6.9845e-06
6.47597e-06
6.00216e-06
5.56182e-06
5.15255e-06
4.77188e-06
4.4177e-06
4.08817e-06
3.78162e-06
3.49639e-06
3.23096e-06
2.98392e-06
2.754e-06
2.54004e-06
2.34099e-06
2.15588e-06
1.98381e-06
1.82396e-06
1.67556e-06
1.53788e-06
1.41026e-06
1.29207e-06
1.18272e-06
1.08165e-06
9.88326e-07
9.02267e-07
8.22998e-07
7.50079e-07
6.8309e-07
6.21639e-07
5.6535e-07
5.13873e-07
4.66876e-07
4.24045e-07
3.85087e-07
3.49725e-07
3.177e-07
2.88769e-07
2.62703e-07
2.39291e-07
2.18331e-07
1.99638e-07
1.83034e-07
1.68355e-07
1.55441e-07
1.44143e-07
1.34317e-07
1.25827e-07
1.18539e-07
1.12325e-07
1.07065e-07
1.02642e-07
9.89491e-08
9.58848e-08
9.33579e-08
9.12861e-08
8.95957e-08
8.82222e-08
8.71092e-08
8.62082e-08
8.54757e-08
8.48729e-08
8.43634e-08
8.39126e-08
8.3484e-08
8.30392e-08
8.25314e-08
8.19091e-08
8.10967e-08
8.00265e-08
7.85434e-08
7.66177e-08
7.38671e-08
7.0433e-08
6.64106e-08
5.64214e-08
6.27483e-06
6.7575e-06
7.4057e-06
8.24597e-06
9.26201e-06
1.03765e-05
1.14792e-05
1.24625e-05
1.32425e-05
1.37688e-05
1.40266e-05
1.40323e-05
1.38226e-05
1.34441e-05
1.2944e-05
1.23641e-05
1.17386e-05
1.10939e-05
1.04492e-05
9.8175e-06
9.20537e-06
8.61471e-06
8.04556e-06
7.49912e-06
6.97846e-06
6.48689e-06
6.0261e-06
5.59556e-06
5.19348e-06
4.81785e-06
4.46697e-06
4.13935e-06
3.8336e-06
3.54834e-06
3.2822e-06
3.03394e-06
2.80241e-06
2.58654e-06
2.38538e-06
2.19802e-06
2.02361e-06
1.86138e-06
1.71059e-06
1.57055e-06
1.44062e-06
1.32017e-06
1.20864e-06