/*--------------------------------*- C++ -*----------------------------------*\
  =========                 |
  \\      /  F ield         | OpenFOAM: The Open Source CFD Toolbox
   \\    /   O peration     | Website:  https://openfoam.org
    \\  /    A nd           | Version:  10
     \\/     M anipulation  |
\*---------------------------------------------------------------------------*/
FoamFile
{
    format      ascii;
    class       volScalarField;
    location    "0.01";
    object      p;
}
// * * * * * * * * * * * * * * * * * * * * * * * * * * * * * * * * * * * * * //

dimensions      [0 2 -2 0 0 0 0];

internalField   nonuniform List<scalar> 
6820
(
11.7106
-2.62655
-4.64249
-4.84114
-5.01646
-4.97806
-4.96883
-5.0126
-5.08165
-5.16446
-5.25248
-5.33998
-5.42421
-5.50319
-5.58062
-5.6648
-5.76475
-5.88752
-6.03695
-6.21375
-6.41645
-6.64268
-6.89053
-7.15952
-7.45112
-7.76888
-8.11851
-8.50731
-8.94692
-9.44662
-10.0459
-10.7151
-11.7284
6.33671
-2.41978
-4.44314
-4.716
-4.94398
-4.97025
-4.98325
-5.03409
-5.10388
-5.18432
-5.26937
-5.35461
-5.43691
-5.51396
-5.58921
-5.67132
-5.7695
-5.89091
-6.03937
-6.21549
-6.41758
-6.64304
-6.88974
-7.15702
-7.44628
-7.76095
-8.10645
-8.48971
-8.92045
-9.40793
-9.97598
-10.6132
-11.4223
4.26283
-1.20037
-3.64057
-4.25144
-4.65451
-4.82418
-4.89986
-4.97801
-5.06368
-5.15393
-5.24575
-5.33623
-5.42233
-5.50309
-5.58212
-5.66716
-5.76678
-5.88816
-6.03541
-6.20946
-6.40898
-6.63158
-6.87511
-7.13864
-7.42299
-7.73077
-8.06623
-8.43442
-8.84192
-9.29246
-9.79346
-10.3202
-10.838
2.70136
-1.01018
-3.33317
-3.99909
-4.40036
-4.63049
-4.75405
-4.86205
-4.9689
-5.07281
-5.17382
-5.27121
-5.36332
-5.4496
-5.53458
-5.62643
-5.73198
-5.8568
-6.0042
-6.17501
-6.36822
-6.58198
-6.81466
-7.06559
-7.33553
-7.6265
-7.94149
-8.28356
-8.65557
-9.05711
-9.48475
-9.91647
-10.3102
1.42341
-1.04623
-3.01565
-3.71288
-4.13995
-4.43279
-4.60678
-4.74125
-4.86301
-4.97539
-5.08142
-5.18275
-5.28024
-5.37543
-5.4714
-5.57246
-5.6849
-5.8135
-5.96113
-6.12873
-6.31572
-6.52082
-6.74284
-6.98135
-7.23695
-7.51116
-7.80589
-8.12262
-8.4616
-8.81996
-9.18976
-9.55365
-9.87324
0.473979
-1.16057
-2.82137
-3.5482
-3.98321
-4.29636
-4.49433
-4.64304
-4.77457
-4.89449
-5.00634
-5.11291
-5.21577
-5.3166
-5.41767
-5.5235
-5.63936
-5.76918
-5.91527
-6.07843
-6.25828
-6.45382
-6.66412
-6.88883
-7.12835
-7.38365
-7.65575
-7.94494
-8.24991
-8.56668
-8.88651
-9.19627
-9.46916
-0.262443
-1.36302
-2.72258
-3.41805
-3.83754
-4.1571
-4.37681
-4.54245
-4.68545
-4.81342
-4.93072
-5.04121
-5.14734
-5.25154
-5.35673
-5.4666
-5.58523
-5.71572
-5.85997
-6.0187
-6.19167
-6.37815
-6.57738
-6.78901
-7.01316
-7.25024
-7.50049
-7.76335
-8.0367
-8.31634
-8.59445
-8.86147
-9.10011
-0.836379
-1.58239
-2.67297
-3.32041
-3.72706
-4.04713
-4.2796
-4.45576
-4.60563
-4.73887
-4.86041
-4.97458
-5.08427
-5.19194
-5.30032
-5.41256
-5.53201
-5.66131
-5.80211
-5.95504
-6.11994
-6.29619
-6.48316
-6.68044
-6.88793
-7.10565
-7.33333
-7.56993
-7.81303
-8.0587
-8.3005
-8.53164
-8.74134
-1.28882
-1.80285
-2.67038
-3.25698
-3.64166
-3.95069
-4.18638
-4.36893
-4.52414
-4.66202
-4.78737
-4.90453
-5.01671
-5.12658
-5.23676
-5.35023
-5.46978
-5.59754
-5.73483
-5.88213
-6.03929
-6.20581
-6.38107
-6.56463
-6.75616
-6.95535
-7.16157
-7.37349
-7.58872
-7.8038
-8.01367
-8.21356
-8.39668
-1.64956
-2.01026
-2.69546
-3.21486
-3.57407
-3.86925
-4.10436
-4.29088
-4.44966
-4.59065
-4.71871
-4.83815
-4.95235
-5.06387
-5.17527
-5.28907
-5.40757
-5.53256
-5.66512
-5.80568
-5.95412
-6.10998
-6.2727
-6.44179
-6.61679
-6.79719
-6.98214
-7.17027
-7.35932
-7.54635
-7.72742
-7.89913
-8.05693
-1.9399
-2.19831
-2.73864
-3.19186
-3.52343
-3.8015
-4.03074
-4.21709
-4.37681
-4.51914
-4.64867
-4.7694
-4.88454
-4.99667
-5.10817
-5.22128
-5.33794
-5.45965
-5.58728
-5.72115
-5.86108
-6.00666
-6.15733
-6.31253
-6.47172
-6.63422
-6.79909
-6.96495
-7.12978
-7.29112
-7.44587
-7.5916
-7.72491
-2.17535
-2.36466
-2.79135
-3.18216
-3.48468
-3.74407
-3.96467
-4.14874
-4.30814
-4.45088
-4.58116
-4.70256
-4.81816
-4.93041
-5.04142
-5.15314
-5.26721
-5.38486
-5.5068
-5.63325
-5.76406
-5.89883
-6.03703
-6.17809
-6.32141
-6.46627
-6.61169
-6.75636
-6.89849
-7.03604
-7.16649
-7.28802
-7.39784
-2.36724
-2.50909
-2.84748
-3.182
-3.45567
-3.69592
-3.90583
-4.08526
-4.24244
-4.38403
-4.51375
-4.63473
-4.74978
-4.86113
-4.97068
-5.08013
-5.19089
-5.30397
-5.4199
-5.53886
-5.66065
-5.78487
-5.911
-6.03846
-6.16661
-6.29471
-6.4218
-6.54667
-6.66774
-6.78329
-6.89124
-6.99019
-7.07764
-2.52392
-2.63255
-2.90271
-3.18781
-3.43359
-3.65471
-3.85269
-4.0259
-4.17969
-4.31924
-4.44769
-4.56769
-4.68166
-4.7916
-4.89918
-5.00586
-5.11279
-5.22078
-5.33028
-5.44136
-5.55384
-5.66732
-5.78133
-5.89529
-6.00857
-6.12045
-6.23003
-6.33619
-6.43756
-6.53266
-6.61974
-6.69764
-6.76409
-2.6516
-2.73651
-2.95406
-3.19669
-3.41631
-3.61895
-3.80449
-3.97038
-4.11965
-4.25613
-4.38234
-4.50045
-4.61249
-4.7202
-4.82504
-4.92822
-5.03072
-5.13318
-5.23595
-5.33904
-5.44226
-5.54523
-5.64747
-5.74844
-5.84753
-5.94406
-6.03719
-6.1259
-6.20899
-6.28519
-6.35299
-6.41144
-6.45842
-2.75491
-2.82257
-2.99952
-3.20625
-3.40189
-3.587
-3.76004
-3.91787
-4.06183
-4.19453
-4.31785
-4.4335
-4.54311
-4.64812
-4.74977
-4.84905
-4.94675
-5.04338
-5.13918
-5.23414
-5.32805
-5.42055
-5.51121
-5.59953
-5.68495
-5.76682
-5.84437
-5.91672
-5.9828
-6.04151
-6.09154
-6.13209
-6.16121
-2.83737
-2.89226
-3.03782
-3.21458
-3.38866
-3.55748
-3.71838
-3.86784
-4.00596
-4.1343
-4.25413
-4.36669
-4.47325
-4.57498
-4.67286
-4.76772
-4.86018
-4.95064
-5.03928
-5.12604
-5.21071
-5.29298
-5.37244
-5.44862
-5.52102
-5.58906
-5.65204
-5.70918
-5.75955
-5.8022
-5.83598
-5.86025
-5.87322
-2.90166
-2.94694
-3.06817
-3.22017
-3.37522
-3.52915
-3.67852
-3.81959
-3.95158
-4.07515
-4.19105
-4.30009
-4.40318
-4.50123
-4.59499
-4.68512
-4.77209
-4.85621
-4.93759
-5.01615
-5.0917
-5.16395
-5.23253
-5.29705
-5.35704
-5.41201
-5.46133
-5.50432
-5.54018
-5.5681
-5.58708
-5.5966
-5.59508
-2.94981
-2.98777
-3.09011
-3.22181
-3.36036
-3.50092
-3.63959
-3.77254
-3.89833
-4.01694
-4.12861
-4.23378
-4.33304
-4.42703
-4.51632
-4.60139
-4.68261
-4.7602
-4.83423
-4.90462
-4.97118
-5.03368
-5.09178
-5.14515
-5.1934
-5.23609
-5.27269
-5.3026
-5.32515
-5.33966
-5.34527
-5.34158
-5.32721
-2.98334
-3.0157
-3.10335
-3.21858
-3.34304
-3.47182
-3.60079
-3.72607
-3.84579
-3.95939
-4.06667
-4.16775
-4.26292
-4.3526
-4.43717
-4.51698
-4.59231
-4.66329
-4.72998
-4.7923
-4.85008
-4.90313
-4.95117
-4.99393
-5.03109
-5.06227
-5.08704
-5.10489
-5.11527
-5.11759
-5.11118
-5.09572
-5.07005
-3.00339
-3.03145
-3.10773
-3.20975
-3.3224
-3.44102
-3.56142
-3.6797
-3.7937
-3.90243
-4.00535
-4.10226
-4.19322
-4.27843
-4.35813
-4.43254
-4.50187
-4.5662
-4.62557
-4.67992
-4.72913
-4.77302
-4.81141
-4.84408
-4.87076
-4.89118
-4.90497
-4.91174
-4.91102
-4.90235
-4.88519
-4.85933
-4.82381
-3.01074
-3.03552
-3.10308
-3.19469
-3.2977
-3.4078
-3.52081
-3.63288
-3.74164
-3.84576
-3.94441
-4.03714
-4.12382
-4.20446
-4.27917
-4.3481
-4.41137
-4.46907
-4.52122
-4.56778
-4.60867
-4.64378
-4.67297
-4.6961
-4.71298
-4.72338
-4.72706
-4.72368
-4.7129
-4.69437
-4.66766
-4.63268
-4.58863
-3.00589
-3.02823
-3.08926
-3.1729
-3.26833
-3.37157
-3.47854
-3.58541
-3.68964
-3.78966
-3.88439
-3.97319
-4.05572
-4.13187
-4.20165
-4.26511
-4.32237
-4.37349
-4.4185
-4.45742
-4.49022
-4.51683
-4.5372
-4.55125
-4.55886
-4.5599
-4.55419
-4.5415
-4.52158
-4.49419
-4.45901
-4.41604
-4.36466
-2.98906
-3.00966
-3.06602
-3.14386
-3.23365
-3.33168
-3.43394
-3.5366
-3.63703
-3.73343
-3.82455
-3.90958
-3.98804
-4.05972
-4.12455
-4.18256
-4.23384
-4.27846
-4.31651
-4.34802
-4.37304
-4.39157
-4.40361
-4.40915
-4.40816
-4.40057
-4.38628
-4.36516
-4.33704
-4.30178
-4.25918
-4.20931
-4.15171
-2.9602
-2.97968
-3.03304
-3.10715
-3.19329
-3.28794
-3.38714
-3.48702
-3.58482
-3.67857
-3.76685
-3.84871
-3.92356
-3.9911
-4.05122
-4.10395
-4.14936
-4.18759
-4.21876
-4.24299
-4.26037
-4.27099
-4.27495
-4.27229
-4.26307
-4.24731
-4.22498
-4.19605
-4.16043
-4.11807
-4.06888
-4.01298
-3.95005
-2.91894
-2.93788
-2.98977
-3.06205
-3.14637
-3.2393
-3.33683
-3.43502
-3.53101
-3.62269
-3.70852
-3.78745
-3.85883
-3.92232
-3.97779
-4.0253
-4.06496
-4.09696
-4.12149
-4.13873
-4.14888
-4.15209
-4.14852
-4.1383
-4.12155
-4.09837
-4.06881
-4.0329
-3.99066
-3.94211
-3.88724
-3.82623
-3.7589
-2.86463
-2.88363
-2.93573
-3.00837
-3.09323
-3.18683
-3.28501
-3.38367
-3.47975
-3.57099
-3.65572
-3.73279
-3.80151
-3.86152
-3.91274
-3.95526
-3.98927
-4.01504
-4.03288
-4.04305
-4.04586
-4.04156
-4.0304
-4.0126
-3.98838
-3.9579
-3.92131
-3.87873
-3.83023
-3.77594
-3.7159
-3.65034
-3.57918
-2.79613
-2.81574
-2.86953
-2.94434
-3.03144
-3.12718
-3.22723
-3.32729
-3.42415
-3.51545
-3.59943
-3.67488
-3.74109
-3.79776
-3.84483
-3.88249
-3.91104
-3.93086
-3.94236
-3.94594
-3.94198
-3.93084
-3.91284
-3.88829
-3.85745
-3.82058
-3.77788
-3.72954
-3.67571
-3.61657
-3.55225
-3.483
-3.40884
-2.71196
-2.73312
-2.79104
-2.87137
-2.96448
-3.06632
-3.17211
-3.27712
-3.37785
-3.47176
-3.55701
-3.63238
-3.69719
-3.75121
-3.79451
-3.8274
-3.85034
-3.86387
-3.86855
-3.86493
-3.85354
-3.83486
-3.80933
-3.77737
-3.73935
-3.6956
-3.64642
-3.59206
-3.53277
-3.46875
-3.40022
-3.32741
-3.25044
-2.60956
-2.63262
-2.69597
-2.78308
-2.88307
-2.99164
-3.10371
-3.21417
-3.31926
-3.41628
-3.50325
-3.57891
-3.64262
-3.69423
-3.73397
-3.76235
-3.78001
-3.78771
-3.78619
-3.77618
-3.75832
-3.73321
-3.70138
-3.66331
-3.61943
-3.57013
-3.51576
-3.45663
-3.39304
-3.32526
-3.25354
-3.17816
-3.0993
-2.48647
-2.51394
-2.58835
-2.68959
-2.80424
-2.92703
-3.052
-3.17337
-3.28712
-3.39049
-3.48154
-3.5591
-3.6227
-3.67237
-3.70858
-3.73203
-3.74363
-3.74438
-3.73524
-3.71717
-3.69103
-3.65759
-3.61753
-3.57148
-3.51999
-3.46356
-3.40261
-3.33754
-3.2687
-3.19639
-3.12089
-3.04248
-2.96137
-2.33636
-2.36667
-2.45095
-2.56445
-2.69182
-2.82792
-2.96607
-3.09946
-3.22343
-3.33482
-3.43146
-3.51212
-3.57643
-3.62467
-3.65765
-3.67648
-3.68249
-3.67703
-3.66141
-3.6368
-3.60424
-3.56459
-3.51862
-3.46699
-3.41028
-3.349
-3.28364
-3.21461
-3.1423
-3.06708
-2.98927
-2.90917
-2.82708
-2.15759
-2.20103
-2.31288
-2.45724
-2.61298
-2.77426
-2.93384
-3.08462
-3.2222
-3.34374
-3.44727
-3.53179
-3.59715
-3.64389
-3.67304
-3.68602
-3.68449
-3.67017
-3.64476
-3.6098
-3.56665
-3.51648
-3.46028
-3.39891
-3.3331
-3.26349
-3.19062
-3.11497
-3.03698
-2.95698
-2.87532
-2.79224
-2.70804
-1.92835
-1.97093
-2.0969
-2.26203
-2.44268
-2.63218
-2.81972
-2.99548
-3.15397
-3.29173
-3.40654
-3.49754
-3.56509
-3.61038
-3.63528
-3.64212
-3.63338
-3.61149
-3.57861
-3.53657
-3.48684
-3.43065
-3.36894
-3.30254
-3.23214
-3.15834
-3.08169
-3.00269
-2.92181
-2.83947
-2.75611
-2.67201
-2.58763
-1.66756
-1.75873
-1.95441
-2.17526
-2.3962
-2.61848
-2.83295
-3.03051
-3.2068
-3.35879
-3.48419
-3.58205
-3.65258
-3.69688
-3.71689
-3.71523
-3.69494
-3.65923
-3.61111
-3.55323
-3.48773
-3.4163
-3.34026
-3.26066
-3.17831
-3.09392
-3.00803
-2.92112
-2.83358
-2.74572
-2.65791
-2.57034
-2.48349
-1.2636
-1.32934
-1.55729
-1.8371
-2.12681
-2.41781
-2.69191
-2.93771
-3.15109
-3.32927
-3.47085
-3.57627
-3.64727
-3.68665
-3.69815
-3.68619
-3.65534
-3.60983
-3.5531
-3.48782
-3.416
-3.33913
-3.25827
-3.17424
-3.08773
-2.99933
-2.90964
-2.81919
-2.72852
-2.63813
-2.54859
-2.46029
-2.37404
-0.922676
-1.17387
-1.52684
-1.83978
-2.14908
-2.46696
-2.76783
-3.0407
-3.28178
-3.4857
-3.64871
-3.76957
-3.8486
-3.8876
-3.88991
-3.86051
-3.8056
-3.73222
-3.64647
-3.55297
-3.45493
-3.35438
-3.25254
-3.15027
-3.04824
-2.94697
-2.84679
-2.74783
-2.65008
-2.55348
-2.45819
-2.36447
-2.2735
0.106379
-0.161176
-0.770832
-1.3124
-1.80447
-2.26394
-2.66384
-3.00379
-3.28849
-3.51805
-3.69327
-3.81608
-3.88905
-3.91625
-3.90372
-3.85925
-3.79073
-3.70624
-3.61093
-3.509
-3.40361
-3.2967
-3.18931
-3.08199
-2.97517
-2.8692
-2.76435
-2.6608
-2.55869
-2.45828
-2.35988
-2.26453
-2.17372
0.0376378
-0.52662
-0.980161
-1.35924
-1.84848
-2.35258
-2.81745
-3.24145
-3.61179
-3.91565
-4.14818
-4.30727
-4.39179
-4.40308
-4.34649
-4.23448
-4.07736
-3.90537
-3.73052
-3.5624
-3.40681
-3.26545
-3.13752
-3.02071
-2.91197
-2.80812
-2.7062
-2.60385
-2.49898
-2.39065
-2.27657
-2.15944
-2.02877
4.92865
1.23457
-0.109014
-0.800535
-1.61957
-2.31307
-2.86414
-3.33387
-3.72498
-4.03369
-4.2627
-4.41333
-4.48654
-4.48559
-4.41762
-4.29367
-4.13876
-3.96215
-3.78177
-3.60832
-3.44685
-3.29836
-3.16126
-3.0329
-2.91056
-2.79206
-2.67574
-2.56047
-2.44497
-2.32885
-2.20965
-2.09006
-1.96245
-12.3366
-10.6119
-9.53848
-11.0677
-14.7905
-19.3237
-23.1237
-24.7569
-23.7491
-20.717
-16.7322
-12.6868
-9.0984
-6.14509
-3.79308
-1.94024
-0.485784
0.655985
1.55367
2.26
2.81528
3.25057
3.59005
3.85276
4.05375
4.20494
4.31579
4.39386
4.44519
4.47468
4.48632
4.48336
4.46851
4.44395
4.41154
4.37277
4.32891
4.28098
4.22985
4.17622
4.12066
4.06365
4.00556
3.9467
3.88732
3.82759
3.76766
3.70764
3.6476
3.5876
3.52767
3.46781
3.40802
3.3483
3.28862
3.22896
3.16926
3.10951
3.04966
2.98966
2.92947
2.86904
2.80833
2.74729
2.68589
2.62406
2.56178
2.499
2.43568
2.37179
2.30728
2.24212
2.17627
2.10971
2.0424
1.97431
1.90541
1.83568
1.76509
1.69361
1.62121
1.54788
1.47359
1.39833
1.32205
1.24476
1.16642
1.08702
1.00654
0.924962
0.842261
0.758444
0.673446
0.587367
0.499963
0.411736
0.321616
0.231896
0.137816
0.0494995
-11.9112
-10.6883
-10.0909
-11.4917
-14.4108
-17.809
-20.5372
-21.617
-20.7299
-18.2864
-15.0269
-11.6189
-8.49848
-5.85065
-3.68543
-1.94311
-0.551895
0.555461
1.43609
2.1358
2.6907
3.12928
3.47413
3.74328
3.95119
4.1094
4.22714
4.31183
4.36945
4.40487
4.42207
4.4243
4.41426
4.39418
4.3659
4.33095
4.29061
4.24594
4.1978
4.14692
4.0939
4.03921
3.98326
3.92636
3.86876
3.81068
3.75226
3.69362
3.63485
3.576
3.51712
3.45822
3.39932
3.3404
3.28145
3.22245
3.16336
3.10416
3.0448
2.98526
2.92548
2.86542
2.80505
2.74432
2.68318
2.62161
2.55955
2.49697
2.43384
2.37011
2.30574
2.24071
2.17499
2.10853
2.04132
1.97331
1.9045
1.83483
1.7643
1.69287
1.62053
1.54725
1.473
1.39777
1.32153
1.24427
1.16596
1.08659
1.00614
0.924585
0.84191
0.758119
0.67315
0.587102
0.499729
0.41154
0.321457
0.231782
0.137754
0.049461
-11.193
-10.6302
-10.3913
-11.4826
-13.6676
-16.1782
-18.1751
-18.9395
-18.1964
-16.2134
-13.523
-10.6384
-7.92157
-5.55045
-3.56299
-1.93084
-0.605515
0.464196
1.32485
2.01559
2.56832
3.00888
3.35816
3.63313
3.84753
4.01248
4.13694
4.22816
4.29205
4.33341
4.3562
4.36366
4.3585
4.34296
4.31889
4.28785
4.25111
4.20977
4.1647
4.11665
4.06622
4.01393
3.96017
3.90529
3.84955
3.79316
3.7363
3.67909
3.62162
3.56397
3.50618
3.44828
3.39029
3.3322
3.27401
3.21569
3.15724
3.0986
3.03977
2.98069
2.92134
2.86167
2.80165
2.74124
2.68039
2.61907
2.55725
2.49488
2.43193
2.36837
2.30416
2.23927
2.17367
2.10732
2.04021
1.9723
1.90356
1.83397
1.7635
1.69213
1.61984
1.5466
1.4724
1.39721
1.32101
1.24378
1.1655
1.08616
1.00573
0.924207
0.841559
0.757796
0.672855
0.586838
0.499497
0.411346
0.321302
0.23167
0.137697
0.0494229
-10.6365
-10.4699
-10.462
-11.3379
-12.9791
-14.8247
-16.2556
-16.7467
-16.0864
-14.4418
-12.1939
-9.73746
-7.36782
-5.24689
-3.42772
-1.90424
-0.646577
0.38273
1.22071
1.90017
2.44892
2.89008
3.24278
3.52283
3.7432
3.91453
4.04548
4.1431
4.21318
4.26045
4.28882
4.30155
4.30131
4.29036
4.27057
4.24349
4.21043
4.17248
4.13055
4.08539
4.03764
3.9878
3.9363
3.8835
3.82967
3.77503
3.71978
3.66404
3.60792
3.5515
3.49484
3.43798
3.38092
3.3237
3.26629
3.20869
3.15089
3.09285
3.03455
2.97597
2.91706
2.85779
2.79813
2.73805
2.6775
2.61645
2.55487
2.49272
2.42997
2.36659
2.30253
2.23779
2.17231
2.10608
2.03907
1.97125
1.90259
1.83308
1.76268
1.69137
1.61913
1.54595
1.47179
1.39664
1.32047
1.24328
1.16503
1.08572
1.00532
0.923825
0.841205
0.757471
0.672559
0.586573
0.499264
0.411151
0.321146
0.231556
0.137639
0.0493813
-10.1603
-10.2065
-10.3471
-11.0537
-12.2725
-13.6065
-14.6062
-14.8913
-14.2906
-12.9063
-11.0133
-8.91238
-6.8416
-4.94493
-3.28305
-1.86523
-0.675929
0.310905
1.12387
1.78994
2.33293
2.77329
3.12835
3.41268
3.63846
3.81578
3.95294
4.05678
4.13294
4.18606
4.22001
4.238
4.24273
4.23641
4.22095
4.19789
4.16857
4.13409
4.09536
4.05317
4.00814
3.96082
3.91165
3.86098
3.80911
3.75628
3.70268
3.64846
3.59373
3.53859
3.4831
3.4273
3.37123
3.31489
3.2583
3.20144
3.14431
3.08689
3.02915
2.97107
2.91262
2.85377
2.79449
2.73475
2.67451
2.61374
2.55241
2.49049
2.42795
2.36475
2.30086
2.23626
2.17092
2.10481
2.03791
1.97018
1.90161
1.83217
1.76184
1.6906
1.61842
1.54528
1.47117
1.39606
1.31993
1.24277
1.16456
1.08528
1.00491
0.923442
0.84085
0.757145
0.672263
0.586309
0.499033
0.410957
0.320992
0.231443
0.137583
0.0493395
-9.7353
-9.89635
-10.1138
-10.6821
-11.5804
-12.5313
-13.2061
-13.3268
-12.7627
-11.5774
-9.96692
-8.15871
-6.34362
-4.6471
-3.13132
-1.8153
-0.694205
0.248675
1.03465
1.68536
2.22088
2.65905
3.01536
3.30313
3.53369
3.71653
3.85958
3.96942
4.0515
4.11039
4.14987
4.17313
4.18281
4.18117
4.17007
4.15109
4.12557
4.0946
4.05914
4.01997
3.97774
3.933
3.88621
3.83773
3.78788
3.7369
3.68501
3.63235
3.57906
3.52524
3.47095
3.41626
3.36119
3.30578
3.25003
3.19394
3.13751
3.08072
3.02356
2.96601
2.90804
2.84962
2.79073
2.73135
2.67143
2.61095
2.54988
2.4882
2.42586
2.36285
2.29914
2.23469
2.16949
2.1035
2.03671
1.96909
1.90061
1.83125
1.76099
1.68981
1.61769
1.5446
1.47054
1.39547
1.31939
1.24226
1.16408
1.08483
1.0045
0.923058
0.840495
0.756819
0.671966
0.586044
0.498803
0.410763
0.320838
0.231329
0.137527
0.0492961
-9.34378
-9.54991
-9.79095
-10.2433
-10.8963
-11.5566
-11.9857
-11.9826
-11.4478
-10.419
-9.03586
-7.47033
-5.87466
-4.3562
-2.97511
-1.75617
-0.702324
0.19573
0.953112
1.58673
2.11318
2.54777
2.90421
3.19455
3.4292
3.61707
3.76564
3.8812
3.96904
4.03357
4.07852
4.107
4.12165
4.12468
4.11798
4.10312
4.08144
4.05405
4.02191
3.98582
3.94644
3.90434
3.85998
3.81375
3.76597
3.7169
3.66676
3.61571
3.5639
3.51144
3.45839
3.40484
3.35082
3.29636
3.24147
3.18618
3.13047
3.07435
3.01779
2.96078
2.9033
2.84533
2.78685
2.72783
2.66825
2.60807
2.54727
2.48583
2.42371
2.3609
2.29737
2.23308
2.16802
2.10217
2.03549
1.96797
1.89958
1.83031
1.76012
1.68901
1.61695
1.54392
1.4699
1.39488
1.31883
1.24175
1.1636
1.08439
1.00408
0.922672
0.840139
0.756493
0.671671
0.585781
0.498573
0.410571
0.320687
0.231216
0.137472
0.0492527
-8.96271
-9.17877
-9.41447
-9.7698
-10.2354
-10.677
-10.9224
-10.8261
-10.3133
-9.40706
-8.20696
-6.8427
-5.43487
-4.07415
-2.81649
-1.68941
-0.7012
0.151702
0.879282
1.49431
2.0102
2.43988
2.79533
3.08732
3.32537
3.5177
3.67138
3.79237
3.88574
3.95577
4.00608
4.03973
4.05931
4.06703
4.06475
4.05403
4.03622
4.01246
3.98369
3.95073
3.91426
3.87485
3.83298
3.78905
3.74339
3.69628
3.64793
3.59855
3.54826
3.49719
3.44543
3.39305
3.3401
3.28662
3.23264
3.17816
3.1232
3.06776
3.01182
2.95537
2.89841
2.84091
2.78284
2.72421
2.66496
2.6051
2.54458
2.48339
2.42151
2.3589
2.29555
2.23143
2.16652
2.1008
2.03424
1.96682
1.89853
1.82934
1.75924
1.6882
1.6162
1.54322
1.46926
1.39428
1.31828
1.24123
1.16312
1.08394
1.00366
0.922287
0.839783
0.756168
0.671377
0.58552
0.498346
0.41038
0.320537
0.231104
0.137418
0.0492092
-8.59332
-8.79702
-9.00732
-9.27795
-9.5984
-9.87453
-9.98288
-9.8181
-9.32516
-8.51768
-7.46688
-6.27046
-5.02372
-3.80248
-2.65736
-1.61657
-0.691839
0.11609
0.813039
1.40822
1.91221
2.33574
2.6891
2.98183
3.22251
3.41873
3.57706
3.70314
3.8018
3.87715
3.9327
3.97144
3.99591
4.00829
4.01042
4.00387
3.98997
3.96986
3.94451
3.91473
3.88122
3.84455
3.80522
3.76364
3.72015
3.67504
3.62854
3.58085
3.53213
3.48249
3.43205
3.38088
3.32904
3.27657
3.22352
3.16989
3.1157
3.06096
3.00566
2.9498
2.89336
2.83634
2.77872
2.72047
2.66159
2.60204
2.54182
2.48089
2.41924
2.35684
2.29368
2.22974
2.16498
2.0994
2.03296
1.96566
1.89747
1.82837
1.75834
1.68737
1.61543
1.54252
1.46861
1.39368
1.31772
1.24071
1.16264
1.08349
1.00325
0.921901
0.839429
0.755845
0.671084
0.58526
0.498121
0.410191
0.320389
0.230992
0.137365
0.0491663
-8.22764
-8.4077
-8.58367
-8.78202
-8.99062
-9.14261
-9.14966
-8.93591
-8.46112
-7.73375
-6.80517
-5.74905
-4.64048
-3.54228
-2.49932
-1.53908
-0.675243
0.0883334
0.754184
1.32854
1.81945
2.23565
2.58587
2.87842
3.12099
3.32048
3.48298
3.61377
3.71742
3.79788
3.85852
3.90225
3.93155
3.94855
3.95509
3.9527
3.94273
3.92631
3.90441
3.87785
3.84733
3.81345
3.77671
3.73752
3.69625
3.65319
3.60858
3.56263
3.51551
3.46735
3.41827
3.36834
3.31764
3.26622
3.21412
3.16136
3.10797
3.05395
2.99931
2.94405
2.88816
2.83164
2.77446
2.71662
2.65811
2.5989
2.53897
2.47832
2.41691
2.35474
2.29177
2.228
2.16341
2.09796
2.03166
1.96447
1.89638
1.82737
1.75743
1.68653
1.61466
1.54181
1.46795
1.39307
1.31715
1.24019
1.16215
1.08304
1.00283
0.921517
0.839076
0.755523
0.670794
0.585003
0.497898
0.410004
0.320243
0.230882
0.137312
0.0491243
-7.86868
-8.01929
-8.15695
-8.29274
-8.4139
-8.47226
-8.40476
-8.15703
-7.69999
-7.03917
-6.21188
-5.2738
-4.284
-3.29426
-2.34372
-1.45825
-0.652421
0.0678059
0.702429
1.25521
1.73205
2.13987
2.48593
2.77741
3.0211
3.22324
3.38939
3.52449
3.63283
3.71815
3.78371
3.8323
3.86634
3.88792
3.89883
3.9006
3.89456
3.88185
3.86342
3.84012
3.81264
3.78158
3.74747
3.71072
3.67171
3.63074
3.58807
3.5439
3.49842
3.45178
3.40408
3.35543
3.3059
3.25555
3.20444
3.15258
3.10001
3.04674
2.99278
2.93814
2.88281
2.8268
2.77009
2.71267
2.65454
2.59567
2.53605
2.47568
2.41452
2.35258
2.28982
2.22623
2.1618
2.0965
2.03033
1.96326
1.89528
1.82636
1.7565
1.68568
1.61388
1.54109
1.46729
1.39246
1.31659
1.23966
1.16167
1.08259
1.00241
0.921134
0.838725
0.755204
0.670507
0.584748
0.497678
0.409819
0.320099
0.230773
0.137259
0.0490837
-7.51488
-7.63415
-7.7336
-7.8161
-7.8692
-7.85754
-7.73608
-7.46601
-7.02657
-6.42172
-5.67896
-4.84058
-3.95306
-3.05884
-2.19166
-1.37528
-0.624345
0.0538484
0.657419
1.18815
1.6501
2.04859
2.38957
2.67912
2.92317
3.1273
3.29658
3.43556
3.54824
3.63818
3.70845
3.76175
3.80042
3.8265
3.84174
3.84765
3.84554
3.83654
3.8216
3.80158
3.77717
3.74898
3.71753
3.68326
3.64655
3.60771
3.56701
3.52467
3.48087
3.43577
3.3895
3.34216
3.29383
3.24459
3.19448
3.14355
3.09182
3.03932
2.98606
2.93206
2.87732
2.82183
2.7656
2.70861
2.65087
2.59235
2.53306
2.47297
2.41208
2.35037
2.28782
2.22442
2.16016
2.09501
2.02898
1.96203
1.89415
1.82534
1.75557
1.68483
1.6131
1.54037
1.46662
1.39184
1.31602
1.23914
1.16118
1.08214
1.002
0.920755
0.838378
0.754888
0.670224
0.584498
0.497462
0.409638
0.319958
0.230667
0.137207
0.0490449
-7.16868
-7.25682
-7.32011
-7.35735
-7.35711
-7.29304
-7.13291
-6.84921
-6.42731
-5.8704
-5.199
-4.4454
-3.64623
-2.83616
-2.04402
-1.29122
-0.591945
0.0457824
0.618747
1.12718
1.5736
1.96197
2.297
2.5838
2.82747
3.03296
3.20482
3.34723
3.4639
3.55815
3.63291
3.69075
3.73393
3.76442
3.78393
3.79394
3.79574
3.79044
3.77902
3.76229
3.74097
3.71567
3.68692
3.65517
3.6208
3.58413
3.54544
3.50495
3.46287
3.41935
3.37454
3.32854
3.28144
3.23333
3.18425
3.13427
3.08341
3.0317
2.97916
2.92582
2.87167
2.81673
2.76099
2.70445
2.64711
2.58896
2.53
2.47021
2.40958
2.34811
2.28578
2.22257
2.15848
2.0935
2.0276
1.96078
1.89302
1.8243
1.75462
1.68396
1.6123
1.53964
1.46595
1.39123
1.31545
1.23861
1.1607
1.0817
1.00159
0.920378
0.838034
0.754577
0.669945
0.584251
0.49725
0.409461
0.31982
0.230563
0.137155
0.0490084
-6.83055
-6.88915
-6.91954
-6.91879
-6.87691
-6.774
-6.58689
-6.29619
-5.89181
-5.37648
-4.76584
-4.08473
-3.36208
-2.62617
-1.90147
-1.20698
-0.556091
0.0429276
0.585964
1.07207
1.50252
1.88007
2.2084
2.49168
2.73427
2.94048
3.11438
3.25975
3.38002
3.47828
3.55728
3.61948
3.66702
3.70181
3.72551
3.73957
3.74525
3.74365
3.73572
3.7223
3.70409
3.68171
3.65569
3.62648
3.59448
3.56001
3.52336
3.48477
3.44443
3.40253
3.35921
3.31458
3.26874
3.22178
3.17377
3.12475
3.07478
3.02388
2.97209
2.91942
2.86588
2.8115
2.75626
2.70018
2.64326
2.58549
2.52686
2.46738
2.40703
2.3458
2.2837
2.22069
2.15678
2.09196
2.02621
1.95951
1.89187
1.82326
1.75367
1.68309
1.61151
1.53891
1.46528
1.39061
1.31489
1.23809
1.16022
1.08126
1.00119
0.920007
0.837696
0.754271
0.669671
0.58401
0.497043
0.409288
0.319685
0.230461
0.137103
0.0489744
-6.50205
-6.53345
-6.53462
-6.50226
-6.42793
-6.29641
-6.09103
-5.79821
-5.41114
-4.93236
-4.37396
-3.75524
-3.09912
-2.42866
-1.76451
-1.12336
-0.517584
0.0446163
0.558596
1.02254
1.43673
1.80293
2.1239
2.40297
2.6438
2.85011
3.0255
3.17337
3.29685
3.39879
3.48177
3.54811
3.59985
3.63881
3.66661
3.68465
3.69416
3.69623
3.6918
3.68168
3.66659
3.64714
3.62387
3.59723
3.56763
3.53539
3.50081
3.46414
3.42559
3.38533
3.34352
3.30029
3.25574
3.20997
3.16304
3.11501
3.06595
3.01588
2.96485
2.91287
2.85996
2.80615
2.75143
2.69583
2.63933
2.58194
2.52366
2.46449
2.40443
2.34346
2.28158
2.21878
2.15506
2.0904
2.02479
1.95823
1.89071
1.8222
1.75271
1.68221
1.61071
1.53818
1.46461
1.39
1.31432
1.23758
1.15974
1.08082
1.00079
0.919642
0.837364
0.753971
0.669404
0.583775
0.496841
0.409119
0.319554
0.230363
0.137052
0.0489435
-6.18401
-6.19087
-6.16664
-6.10826
-6.00879
-5.85655
-5.63947
-5.34814
-4.97811
-4.53179
-4.01871
-3.454
-2.85592
-2.24331
-1.63348
-1.04102
-0.477157
0.0502026
0.536154
0.978278
1.37609
1.73054
2.04357
2.31781
2.55625
2.76207
2.93842
3.08832
3.2146
3.31989
3.40657
3.47682
3.53257
3.57557
3.60736
3.6293
3.64259
3.64829
3.64733
3.64051
3.62853
3.61203
3.59152
3.56747
3.54028
3.5103
3.47782
3.4431
3.40635
3.36777
3.3275
3.2857
3.24246
3.19789
3.15207
3.10506
3.05693
3.00771
2.95745
2.90618
2.85392
2.80069
2.7465
2.69138
2.63532
2.57832
2.5204
2.46156
2.40178
2.34107
2.27943
2.21684
2.15331
2.08882
2.02336
1.95694
1.88953
1.82114
1.75174
1.68134
1.60991
1.53745
1.46394
1.38939
1.31376
1.23706
1.15927
1.08039
1.00039
0.919283
0.837039
0.753679
0.669143
0.583547
0.496645
0.408956
0.319427
0.230268
0.137001
0.0489158
-5.87728
-5.86242
-5.81645
-5.73687
-5.61814
-5.4512
-5.22733
-4.94007
-4.58665
-4.1694
-3.69596
-3.17831
-2.63109
-2.06967
-1.50861
-0.960507
-0.435464
0.0590726
0.518142
0.938939
1.3204
1.66282
1.96747
2.23632
2.47181
2.67658
2.85337
3.00483
3.13351
3.24179
3.33188
3.4058
3.46538
3.51226
3.54791
3.57366
3.59066
3.59994
3.60241
3.59886
3.59
3.57643
3.5587
3.53725
3.5125
3.48479
3.45443
3.42168
3.38677
3.34988
3.31118
3.27082
3.22892
3.18557
3.14088
3.09491
3.04772
2.99937
2.9499
2.89935
2.84775
2.79512
2.74148
2.68685
2.63123
2.57464
2.51709
2.45857
2.39909
2.33865
2.27725
2.21488
2.15154
2.08722
2.02192
1.95564
1.88836
1.82007
1.75077
1.68046
1.60911
1.53672
1.46328
1.38878
1.31321
1.23656
1.15881
1.07997
1.00001
0.918934
0.836723
0.753395
0.668892
0.583326
0.496457
0.4088
0.319305
0.230178
0.136951
0.0488918
-5.58248
-5.54865
-5.48434
-5.38769
-5.25438
-5.0774
-4.8504
-4.56903
-4.23172
-3.8407
-3.40219
-2.92579
-2.42329
-1.9073
-1.39001
-0.882276
-0.393088
0.0706483
0.504071
0.904159
1.26944
1.59967
1.89558
2.15858
2.3906
2.59381
2.77054
2.92311
3.05378
3.16471
3.25791
3.33525
3.39843
3.44902
3.48841
3.51785
3.53848
3.55128
3.55714
3.55684
3.55107
3.54044
3.52547
3.50663
3.48432
3.45891
3.43069
3.39992
3.36686
3.33168
3.29458
3.25568
3.21513
3.17304
3.12949
3.08457
3.03835
2.99088
2.94222
2.89241
2.84147
2.78945
2.73637
2.68224
2.62708
2.57091
2.51373
2.45554
2.39637
2.3362
2.27504
2.21289
2.14975
2.08561
2.02047
1.95433
1.88717
1.819
1.74981
1.67958
1.60831
1.536
1.46262
1.38818
1.31266
1.23606
1.15836
1.07955
0.999633
0.918594
0.836416
0.753121
0.668649
0.583115
0.496277
0.40865
0.319189
0.230091
0.136901
0.0488715
-5.29999
-5.24981
-5.17023
-5.06004
-4.91595
-4.73249
-4.50508
-4.23085
-3.90907
-3.54184
-3.13432
-2.69428
-2.23128
-1.75569
-1.27771
-0.806683
-0.350542
0.0843925
0.493462
0.873559
1.22293
1.54094
1.82786
2.08463
2.31273
2.51391
2.69012
2.84337
2.97564
3.08886
3.18486
3.26535
3.33193
3.38604
3.42901
3.46203
3.48619
3.50244
3.51163
3.51454
3.51184
3.50412
3.49191
3.47568
3.45582
3.43271
3.40663
3.37788
3.34667
3.31323
3.27773
3.24032
3.20114
3.16031
3.11792
3.07407
3.02883
2.98226
2.93442
2.88536
2.83511
2.78371
2.73119
2.67757
2.62288
2.56712
2.51032
2.45248
2.39362
2.33373
2.27282
2.21089
2.14795
2.08399
2.01902
1.95302
1.88599
1.81794
1.74884
1.67871
1.60753
1.53528
1.46198
1.38759
1.31213
1.23557
1.15792
1.07915
0.99927
0.918266
0.836122
0.752858
0.668418
0.582913
0.496106
0.408508
0.319078
0.23001
0.136853
0.0488553
-5.03011
-4.96599
-4.87387
-4.75312
-4.60127
-4.41409
-4.18827
-3.922
-3.6151
-3.26956
-2.8897
-2.48187
-2.05389
-1.61431
-1.17168
-0.734015
-0.308276
0.0998083
0.48585
0.846756
1.1806
1.48646
1.76423
2.01448
2.23827
2.437
2.61226
2.76578
2.89926
3.01443
3.11293
3.19631
3.26605
3.32349
3.36988
3.40636
3.43393
3.45354
3.46601
3.47208
3.4724
3.46758
3.45811
3.44448
3.42707
3.40625
3.38233
3.35558
3.32626
3.29456
3.26067
3.22476
3.18697
3.14741
3.10621
3.06344
3.01919
2.97353
2.92652
2.87821
2.82866
2.77789
2.72594
2.67285
2.61863
2.5633
2.50688
2.44939
2.39084
2.33123
2.27058
2.20888
2.14615
2.08237
2.01756
1.95171
1.88481
1.81688
1.74789
1.67785
1.60675
1.53458
1.46134
1.38702
1.31161
1.2351
1.15749
1.07877
0.99892
0.917951
0.83584
0.752608
0.668198
0.582722
0.495945
0.408374
0.318974
0.229933
0.136805
0.0488425
-4.77292
-4.69705
-4.59478
-4.46596
-4.30881
-4.12002
-3.89726
-3.63943
-3.34674
-3.02105
-2.66601
-2.28687
-1.89006
-1.48265
-1.07185
-0.664492
-0.266681
0.11644
0.480791
0.823366
1.14215
1.43602
1.70459
1.9481
2.16727
2.36317
2.53711
2.6905
2.82484
2.94163
3.04231
3.12832
3.20099
3.26156
3.3112
3.35098
3.38187
3.40474
3.4204
3.42957
3.43288
3.4309
3.42416
3.4131
3.39813
3.37961
3.35784
3.33311
3.30567
3.27572
3.24346
3.20906
3.17266
3.13439
3.09437
3.05269
3.00945
2.96471
2.91854
2.871
2.82215
2.77202
2.72065
2.66809
2.61434
2.55945
2.50342
2.44629
2.38805
2.32873
2.26834
2.20687
2.14434
2.08075
2.01611
1.9504
1.88364
1.81583
1.74694
1.677
1.60598
1.53389
1.46072
1.38646
1.3111
1.23464
1.15708
1.07839
0.998587
0.917653
0.835575
0.752373
0.667993
0.582546
0.495796
0.408251
0.318879
0.229863
0.13676
0.0488344
-4.52841
-4.44276
-4.3324
-4.1976
-4.0371
-3.84834
-3.62968
-3.38054
-3.10138
-2.79391
-2.46125
-2.10777
-1.7388
-1.36022
-0.978101
-0.598285
-0.226097
0.133869
0.477861
0.803006
1.10727
1.3894
1.64879
1.88542
2.09973
2.29251
2.46477
2.6177
2.75255
2.87062
2.9732
3.06157
3.13692
3.20043
3.25314
3.29608
3.33014
3.35618
3.37495