/*--------------------------------*- C++ -*----------------------------------*\
  =========                 |
  \\      /  F ield         | OpenFOAM: The Open Source CFD Toolbox
   \\    /   O peration     | Website:  https://openfoam.org
    \\  /    A nd           | Version:  10
     \\/     M anipulation  |
\*---------------------------------------------------------------------------*/
FoamFile
{
    format      ascii;
    class       volVectorField;
    location    "0.01";
    object      U;
}
// * * * * * * * * * * * * * * * * * * * * * * * * * * * * * * * * * * * * * //

dimensions      [0 1 -1 0 0 0 0];

internalField   nonuniform List<vector> 
6820
(
(5.57414 0.458911 0)
(3.88601 0.245571 0)
(2.59694 0.00832802 0)
(1.97117 -0.0648702 0)
(1.7535 -0.0604043 0)
(1.65225 -0.0350041 0)
(1.59923 -0.0161759 0)
(1.56743 -0.00579004 0)
(1.54532 -0.000787428 0)
(1.53104 0.0011972 0)
(1.52463 0.00189624 0)
(1.52579 0.00127149 0)
(1.53457 0.00048995 0)
(1.55123 -0.000486942 0)
(1.57513 -0.00161417 0)
(1.60464 -0.00269968 0)
(1.63784 -0.00362875 0)
(1.6732 -0.00438397 0)
(1.70989 -0.0050104 0)
(1.74791 -0.00558366 0)
(1.78795 -0.00618861 0)
(1.83113 -0.00690238 0)
(1.8788 -0.00778394 0)
(1.93237 -0.00887682 0)
(1.99324 -0.0102278 0)
(2.06291 -0.0119093 0)
(2.14299 -0.0140717 0)
(2.23586 -0.0169114 0)
(2.34379 -0.0210471 0)
(2.47383 -0.026535 0)
(2.62388 -0.0380127 0)
(2.83756 -0.0465599 0)
(3.02591 -0.130204 0)
(7.66983 0.863059 0)
(7.71983 0.888718 0)
(7.00946 0.595246 0)
(6.21763 0.343293 0)
(5.61852 0.174104 0)
(5.19203 0.0859816 0)
(4.89768 0.0437152 0)
(4.69687 0.0230378 0)
(4.55957 0.0120193 0)
(4.46761 0.00472503 0)
(4.41012 -0.00115323 0)
(4.38048 -0.00702965 0)
(4.37532 -0.0130441 0)
(4.39069 -0.0187277 0)
(4.42221 -0.0234328 0)
(4.46551 -0.0268153 0)
(4.51647 -0.029005 0)
(4.57185 -0.0304714 0)
(4.62967 -0.0318453 0)
(4.68941 -0.0337429 0)
(4.75178 -0.0366443 0)
(4.81837 -0.0408559 0)
(4.89117 -0.046542 0)
(4.9722 -0.0537953 0)
(5.06334 -0.0627267 0)
(5.16631 -0.073545 0)
(5.28276 -0.0866873 0)
(5.4146 -0.102766 0)
(5.56414 -0.1233 0)
(5.73494 -0.149191 0)
(5.93048 -0.187307 0)
(6.1597 -0.236604 0)
(6.42235 -0.327011 0)
(7.56347 0.519223 0)
(8.22558 0.660021 0)
(8.46827 0.569723 0)
(8.37455 0.449118 0)
(8.15096 0.331836 0)
(7.89184 0.243416 0)
(7.64548 0.179713 0)
(7.43229 0.132128 0)
(7.25638 0.095303 0)
(7.11657 0.0654429 0)
(7.0104 0.0399977 0)
(6.93517 0.0176184 0)
(6.88709 -0.00256264 0)
(6.86309 -0.0204336 0)
(6.85973 -0.0353146 0)
(6.87289 -0.0466326 0)
(6.89842 -0.0545036 0)
(6.93259 -0.0597707 0)
(6.97235 -0.063747 0)
(7.01553 -0.0678699 0)
(7.06099 -0.0733917 0)
(7.1086 -0.0811802 0)
(7.15907 -0.0916707 0)
(7.21376 -0.104962 0)
(7.27434 -0.121011 0)
(7.34262 -0.139856 0)
(7.42032 -0.16183 0)
(7.50906 -0.187669 0)
(7.61021 -0.218888 0)
(7.72499 -0.257356 0)
(7.85394 -0.30795 0)
(7.99373 -0.373788 0)
(8.14233 -0.470268 0)
(7.43346 0.340031 0)
(7.88497 0.510995 0)
(8.24391 0.482783 0)
(8.4432 0.418797 0)
(8.54503 0.342557 0)
(8.57998 0.276042 0)
(8.57349 0.223023 0)
(8.54606 0.17947 0)
(8.50951 0.142183 0)
(8.47091 0.108783 0)
(8.43493 0.0777427 0)
(8.40442 0.0483679 0)
(8.38109 0.0207179 0)
(8.36436 -0.00437133 0)
(8.353 -0.0258727 0)
(8.3469 -0.0431662 0)
(8.34602 -0.0562058 0)
(8.34992 -0.0656026 0)
(8.35763 -0.0724759 0)
(8.36752 -0.0782095 0)
(8.37757 -0.0842281 0)
(8.38573 -0.0918289 0)
(8.39056 -0.102075 0)
(8.3917 -0.115755 0)
(8.3902 -0.133424 0)
(8.38841 -0.15551 0)
(8.38954 -0.182497 0)
(8.39705 -0.215044 0)
(8.41388 -0.2543 0)
(8.44182 -0.301716 0)
(8.48099 -0.360038 0)
(8.52737 -0.431798 0)
(8.57784 -0.518493 0)
(7.39688 0.249867 0)
(7.68051 0.417371 0)
(7.92456 0.397189 0)
(8.07875 0.343303 0)
(8.18876 0.283721 0)
(8.26975 0.232045 0)
(8.32856 0.19084 0)
(8.37259 0.156268 0)
(8.40579 0.125418 0)
(8.43006 0.096587 0)
(8.4467 0.0688266 0)
(8.45663 0.0418529 0)
(8.46038 0.0161313 0)
(8.45915 -0.00722965 0)
(8.45465 -0.0272613 0)
(8.44854 -0.0436078 0)
(8.44256 -0.0563606 0)
(8.43817 -0.0659916 0)
(8.43615 -0.0732143 0)
(8.43637 -0.0788504 0)
(8.43776 -0.0838 0)
(8.4387 -0.0891035 0)
(8.43757 -0.0960141 0)
(8.43347 -0.105996 0)
(8.42671 -0.120621 0)
(8.41895 -0.141384 0)
(8.4129 -0.169535 0)
(8.41162 -0.205973 0)
(8.41771 -0.25136 0)
(8.43249 -0.306177 0)
(8.45582 -0.371123 0)
(8.48429 -0.446861 0)
(8.51502 -0.531821 0)
(7.37406 0.179425 0)
(7.5746 0.332161 0)
(7.76225 0.33521 0)
(7.87785 0.30228 0)
(7.95505 0.258645 0)
(8.01099 0.215127 0)
(8.05224 0.177374 0)
(8.08508 0.144716 0)
(8.11256 0.11558 0)
(8.13539 0.08883 0)
(8.15365 0.0636772 0)
(8.16729 0.0398092 0)
(8.1763 0.0173502 0)
(8.18126 -0.00337463 0)
(8.18365 -0.021961 0)
(8.18501 -0.0380622 0)
(8.18686 -0.0516293 0)
(8.19037 -0.0628503 0)
(8.19611 -0.0720303 0)
(8.204 -0.0795423 0)
(8.21344 -0.0859193 0)
(8.22365 -0.0920348 0)
(8.23396 -0.0992501 0)
(8.24417 -0.109405 0)
(8.2547 -0.124605 0)
(8.26651 -0.146851 0)
(8.28087 -0.17768 0)
(8.29897 -0.217943 0)
(8.3216 -0.267858 0)
(8.3487 -0.327218 0)
(8.37952 -0.395588 0)
(8.41151 -0.472606 0)
(8.443 -0.555939 0)
(7.35909 0.13142 0)
(7.50372 0.268951 0)
(7.65689 0.287505 0)
(7.75799 0.266874 0)
(7.82536 0.232736 0)
(7.87364 0.195424 0)
(7.90829 0.16138 0)
(7.93481 0.131249 0)
(7.95664 0.103974 0)
(7.97507 0.0786935 0)
(7.99064 0.0548017 0)
(8.0036 0.0320254 0)
(8.01418 0.0103896 0)
(8.02278 -0.00987522 0)
(8.03009 -0.0283262 0)
(8.03703 -0.0446392 0)
(8.04456 -0.0587321 0)
(8.05336 -0.0706511 0)
(8.06372 -0.0804937 0)
(8.07559 -0.088463 0)
(8.08873 -0.09504 0)
(8.10294 -0.101193 0)
(8.11824 -0.108491 0)
(8.13493 -0.119025 0)
(8.15346 -0.1351 0)
(8.17434 -0.158806 0)
(8.19794 -0.19163 0)
(8.22436 -0.234243 0)
(8.25341 -0.286557 0)
(8.28445 -0.347964 0)
(8.31659 -0.417496 0)
(8.34804 -0.494207 0)
(8.37777 -0.575898 0)
(7.34968 0.0976444 0)
(7.45377 0.216109 0)
(7.5775 0.242531 0)
(7.66712 0.231852 0)
(7.72998 0.207572 0)
(7.77685 0.178028 0)
(7.81142 0.148907 0)
(7.83786 0.121766 0)
(7.85939 0.0963583 0)
(7.87749 0.0723602 0)
(7.8929 0.0495318 0)
(7.90609 0.0277635 0)
(7.91743 0.00711978 0)
(7.92728 -0.0122397 0)
(7.93618 -0.0301558 0)
(7.94486 -0.0464932 0)
(7.95407 -0.0611605 0)
(7.96433 -0.0740661 0)
(7.97593 -0.0851352 0)
(7.98895 -0.0944442 0)
(8.00342 -0.102439 0)
(8.01944 -0.110138 0)
(8.03725 -0.119194 0)
(8.05718 -0.131746 0)
(8.07954 -0.150072 0)
(8.10449 -0.176157 0)
(8.13193 -0.211322 0)
(8.16147 -0.256052 0)
(8.19252 -0.310054 0)
(8.22422 -0.372501 0)
(8.25563 -0.442203 0)
(8.28545 -0.517981 0)
(8.31304 -0.598021 0)
(7.34384 0.0736167 0)
(7.4195 0.173945 0)
(7.51887 0.204776 0)
(7.59702 0.201614 0)
(7.65441 0.18437 0)
(7.69878 0.160279 0)
(7.73276 0.134638 0)
(7.75932 0.109728 0)
(7.78113 0.085885 0)
(7.79958 0.0630649 0)
(7.81538 0.041175 0)
(7.82906 0.0201569 0)
(7.84105 1.66558e-05 0)
(7.8518 -0.0191335 0)
(7.86187 -0.0371512 0)
(7.87187 -0.053879 0)
(7.88239 -0.0691497 0)
(7.89383 -0.0827751 0)
(7.90645 -0.0946043 0)
(7.92039 -0.104698 0)
(7.93581 -0.113558 0)
(7.95298 -0.122302 0)
(7.97222 -0.132669 0)
(7.99386 -0.146819 0)
(8.01809 -0.166957 0)
(8.04485 -0.194908 0)
(8.07377 -0.231796 0)
(8.10422 -0.277906 0)
(8.13538 -0.332772 0)
(8.16631 -0.395422 0)
(8.19611 -0.464586 0)
(8.22372 -0.539024 0)
(8.24874 -0.617268 0)
(7.34019 0.056309 0)
(7.39577 0.14008 0)
(7.47538 0.171888 0)
(7.54294 0.173613 0)
(7.59492 0.161655 0)
(7.63652 0.142407 0)
(7.66949 0.120445 0)
(7.69582 0.0981796 0)
(7.71767 0.076271 0)
(7.73628 0.0548949 0)
(7.7524 0.0341318 0)
(7.76655 0.0140186 0)
(7.77921 -0.00537537 0)
(7.79081 -0.0240093 0)
(7.80184 -0.0418042 0)
(7.8128 -0.0586479 0)
(7.82414 -0.0743684 0)
(7.8362 -0.0887323 0)
(7.84924 -0.101547 0)
(7.8635 -0.112864 0)
(7.87925 -0.123215 0)
(7.89686 -0.133749 0)
(7.9167 -0.146196 0)
(7.93905 -0.162629 0)
(7.96398 -0.185087 0)
(7.99126 -0.215179 0)
(8.02035 -0.253808 0)
(8.05047 -0.30108 0)
(8.08068 -0.35641 0)
(8.11003 -0.418769 0)
(8.13764 -0.486905 0)
(8.16266 -0.559634 0)
(8.18479 -0.635786 0)
(7.3379 0.0436012 0)
(7.37924 0.112831 0)
(7.44305 0.143605 0)
(7.50114 0.148622 0)
(7.54798 0.140726 0)
(7.58664 0.125376 0)
(7.61822 0.106426 0)
(7.644 0.0862833 0)
(7.66565 0.0658869 0)
(7.68429 0.0456163 0)
(7.70059 0.025676 0)
(7.71507 0.00616875 0)
(7.7282 -0.0128612 0)
(7.7404 -0.0313654 0)
(7.75212 -0.0492748 0)
(7.76378 -0.0664587 0)
(7.77573 -0.0826945 0)
(7.78826 -0.0977026 0)
(7.8016 -0.111282 0)
(7.81603 -0.123528 0)
(7.83186 -0.135043 0)
(7.84949 -0.147032 0)
(7.86931 -0.161222 0)
(7.89154 -0.179589 0)
(7.91619 -0.203989 0)
(7.94292 -0.235802 0)
(7.9711 -0.275705 0)
(7.99987 -0.323633 0)
(8.02828 -0.378905 0)
(8.05538 -0.44047 0)
(8.08034 -0.507135 0)
(8.1024 -0.577816 0)
(8.12136 -0.651565 0)
(7.33644 0.0340889 0)
(7.36762 0.0908493 0)
(7.41885 0.119274 0)
(7.46857 0.126101 0)
(7.51052 0.121023 0)
(7.54622 0.10868 0)
(7.57625 0.0923219 0)
(7.60134 0.0742047 0)
(7.62272 0.055388 0)
(7.64132 0.0363578 0)
(7.65774 0.0173898 0)
(7.67248 -0.00136644 0)
(7.68598 -0.0198489 0)
(7.69862 -0.0380181 0)
(7.7108 -0.0558162 0)
(7.72285 -0.0731118 0)
(7.73507 -0.089672 0)
(7.74769 -0.105214 0)
(7.76096 -0.119558 0)
(7.77517 -0.132846 0)
(7.79069 -0.145726 0)
(7.80792 -0.159418 0)
(7.82722 -0.175585 0)
(7.84877 -0.196058 0)
(7.8725 -0.222476 0)
(7.89801 -0.255979 0)
(7.92463 -0.297025 0)
(7.95146 -0.345397 0)
(7.97757 -0.400345 0)
(8.00202 -0.460827 0)
(8.02406 -0.525735 0)
(8.043 -0.594098 0)
(8.05864 -0.665146 0)
(7.3355 0.0268193 0)
(7.35935 0.0730111 0)
(7.40065 0.0983511 0)
(7.44309 0.105915 0)
(7.4805 0.102773 0)
(7.51329 0.0927669 0)
(7.54162 0.0785751 0)
(7.56581 0.0622066 0)
(7.58674 0.0447493 0)
(7.60513 0.0267602 0)
(7.62152 0.008571 0)
(7.63635 -0.00963823 0)
(7.65002 -0.0277787 0)
(7.66289 -0.0458098 0)
(7.6753 -0.0636634 0)
(7.68752 -0.0811824 0)
(7.6998 -0.0981079 0)
(7.71236 -0.114152 0)
(7.72543 -0.129164 0)
(7.73928 -0.143344 0)
(7.7543 -0.157401 0)
(7.77087 -0.172571 0)
(7.78932 -0.190458 0)
(7.80979 -0.212745 0)
(7.83214 -0.240859 0)
(7.85596 -0.2757 0)
(7.88054 -0.317519 0)
(7.90503 -0.365957 0)
(7.92849 -0.420209 0)
(7.95006 -0.479258 0)
(7.96901 -0.542084 0)
(7.98471 -0.607833 0)
(7.997 -0.675876 0)
(7.33487 0.0211474 0)
(7.3534 0.0584338 0)
(7.38686 0.0803507 0)
(7.42305 0.0878329 0)
(7.45629 0.0858647 0)
(7.48627 0.0775447 0)
(7.51282 0.0650715 0)
(7.53599 0.0501929 0)
(7.55634 0.0339671 0)
(7.57444 0.0169803 0)
(7.5907 -0.000411363 0)
(7.60552 -0.0180074 0)
(7.61925 -0.0357144 0)
(7.63221 -0.0534845 0)
(7.64467 -0.0712386 0)
(7.65688 -0.088808 0)
(7.66903 -0.10593 0)
(7.6813 -0.122335 0)
(7.69394 -0.137917 0)
(7.70721 -0.152938 0)
(7.7215 -0.168149 0)
(7.73715 -0.184779 0)
(7.75447 -0.204347 0)
(7.77355 -0.228369 0)
(7.79422 -0.258051 0)
(7.81604 -0.294062 0)
(7.83832 -0.336456 0)
(7.86021 -0.384749 0)
(7.88085 -0.438091 0)
(7.89939 -0.495499 0)
(7.9152 -0.556042 0)
(7.92766 -0.618977 0)
(7.93664 -0.683799 0)
(7.33444 0.0166324 0)
(7.34905 0.0464171 0)
(7.37636 0.0648289 0)
(7.40723 0.0716416 0)
(7.43671 0.0702565 0)
(7.46402 0.0631115 0)
(7.48878 0.0519882 0)
(7.51084 0.0383641 0)
(7.5305 0.0232137 0)
(7.54816 0.00711405 0)
(7.56417 -0.00957734 0)
(7.57884 -0.0266532 0)
(7.59247 -0.0440116 0)
(7.60533 -0.0615928 0)
(7.61767 -0.079301 0)
(7.62968 -0.0969487 0)
(7.64153 -0.114265 0)
(7.65339 -0.130995 0)
(7.66547 -0.14708 0)
(7.67805 -0.162839 0)
(7.69146 -0.179068 0)
(7.70605 -0.196982 0)
(7.72207 -0.218014 0)
(7.73957 -0.243517 0)
(7.75836 -0.274483 0)
(7.778 -0.311362 0)
(7.7978 -0.354024 0)
(7.81698 -0.401868 0)
(7.83471 -0.454016 0)
(7.8502 -0.509521 0)
(7.86287 -0.567542 0)
(7.87215 -0.627445 0)
(7.87793 -0.688831 0)
(7.33414 0.012969 0)
(7.34584 0.0364132 0)
(7.36831 0.0513972 0)
(7.3947 0.0571345 0)
(7.42082 0.0558653 0)
(7.44564 0.0494562 0)
(7.46865 0.0393314 0)
(7.48954 0.0267169 0)
(7.50842 0.0124825 0)
(7.52556 -0.00282532 0)
(7.54121 -0.0188595 0)
(7.55562 -0.0354152 0)
(7.56904 -0.0523875 0)
(7.5817 -0.069708 0)
(7.59379 -0.0872679 0)
(7.60547 -0.104869 0)
(7.61688 -0.122245 0)
(7.62818 -0.139168 0)
(7.63957 -0.155631 0)
(7.65131 -0.172012 0)
(7.66372 -0.189137 0)
(7.67711 -0.2082 0)
(7.69168 -0.230537 0)
(7.70746 -0.257334 0)
(7.72424 -0.289375 0)
(7.74158 -0.326898 0)
(7.75883 -0.369605 0)
(7.77524 -0.416792 0)
(7.79003 -0.467556 0)
(7.8025 -0.520994 0)
(7.81209 -0.57635 0)
(7.81831 -0.633095 0)
(7.82106 -0.690927 0)
(7.33392 0.00994275 0)
(7.34343 0.0279933 0)
(7.36209 0.0397146 0)
(7.38475 0.0441106 0)
(7.4079 0.0425991 0)
(7.43045 0.0365722 0)
(7.45177 0.0271519 0)
(7.47146 0.0153364 0)
(7.48951 0.00187674 0)
(7.50605 -0.012731 0)
(7.52125 -0.0281661 0)
(7.53529 -0.0442369 0)
(7.54838 -0.0608411 0)
(7.5607 -0.0779033 0)
(7.5724 -0.0953025 0)
(7.58362 -0.11283 0)
(7.59448 -0.130223 0)
(7.60512 -0.147282 0)
(7.61572 -0.164049 0)
(7.62654 -0.180951 0)
(7.63786 -0.198843 0)
(7.64995 -0.21889 0)
(7.66299 -0.242328 0)
(7.67698 -0.270183 0)
(7.6917 -0.303039 0)
(7.7067 -0.340937 0)
(7.72138 -0.383423 0)
(7.73502 -0.429706 0)
(7.74693 -0.478865 0)
(7.75645 -0.530045 0)
(7.76309 -0.582579 0)
(7.76639 -0.636036 0)
(7.76632 -0.69021 0)
(7.33376 0.00739991 0)
(7.34161 0.0208223 0)
(7.35727 0.0294867 0)
(7.37683 0.0323805 0)
(7.3974 0.0303575 0)
(7.41788 0.024427 0)
(7.43761 0.0154571 0)
(7.45613 0.00424586 0)
(7.47331 -0.00857599 0)
(7.48919 -0.0225723 0)
(7.50386 -0.0374559 0)
(7.51746 -0.0530534 0)
(7.53013 -0.0692684 0)
(7.54201 -0.086022 0)
(7.55322 -0.103184 0)
(7.56388 -0.120543 0)
(7.57409 -0.137845 0)
(7.58398 -0.154923 0)
(7.59372 -0.171869 0)
(7.60353 -0.189159 0)
(7.61369 -0.207668 0)
(7.62442 -0.228524 0)
(7.63588 -0.252865 0)
(7.64803 -0.281555 0)
(7.66065 -0.31499 0)
(7.67331 -0.353028 0)
(7.68543 -0.395072 0)
(7.69636 -0.440255 0)
(7.70546 -0.487648 0)
(7.71213 -0.536447 0)
(7.71596 -0.58607 0)
(7.71653 -0.636183 0)
(7.71384 -0.686672 0)
(7.33363 0.00522775 0)
(7.34022 0.0146364 0)
(7.35352 0.0204595 0)
(7.37053 0.0217654 0)
(7.38888 0.0190333 0)
(7.40752 0.0129739 0)
(7.42577 0.00424501 0)
(7.44316 -0.00652808 0)
(7.45946 -0.0188296 0)
(7.47465 -0.0322898 0)
(7.48874 -0.0466623 0)
(7.50182 -0.0617983 0)
(7.51398 -0.0776129 0)
(7.52533 -0.0940277 0)
(7.53597 -0.110909 0)
(7.54598 -0.128042 0)
(7.55546 -0.145187 0)
(7.56452 -0.162209 0)
(7.57332 -0.179246 0)
(7.58207 -0.196815 0)
(7.59102 -0.215804 0)
(7.60036 -0.237302 0)
(7.6102 -0.262344 0)
(7.62051 -0.291642 0)
(7.63104 -0.325412 0)
(7.64139 -0.363344 0)
(7.65102 -0.404715 0)
(7.65932 -0.448593 0)
(7.66572 -0.494052 0)
(7.6697 -0.540343 0)
(7.67088 -0.58697 0)
(7.66891 -0.633695 0)
(7.66382 -0.680489 0)
(7.33354 0.00334158 0)
(7.33915 0.0092265 0)
(7.3506 0.0124148 0)
(7.36553 0.0120982 0)
(7.38198 0.00851659 0)
(7.39901 0.00215407 0)
(7.41593 -0.00650303 0)
(7.43224 -0.0169761 0)
(7.44769 -0.0288559 0)
(7.46216 -0.0418409 0)
(7.47564 -0.055729 0)
(7.48814 -0.0703998 0)
(7.49974 -0.0857833 0)
(7.51049 -0.101806 0)
(7.52049 -0.118332 0)
(7.52978 -0.135153 0)
(7.53847 -0.152044 0)
(7.54664 -0.168905 0)
(7.55446 -0.185916 0)
(7.56211 -0.203634 0)
(7.56981 -0.222951 0)
(7.57774 -0.244913 0)
(7.58597 -0.270454 0)
(7.59444 -0.300137 0)
(7.60292 -0.334012 0)
(7.61101 -0.371614 0)
(7.61821 -0.412109 0)
(7.62399 -0.454514 0)
(7.62782 -0.497914 0)
(7.62924 -0.541616 0)
(7.62795 -0.585212 0)
(7.62364 -0.628554 0)
(7.61637 -0.671697 0)
(7.33347 0.00167576 0)
(7.33833 0.00442375 0)
(7.34833 0.00516281 0)
(7.36158 0.0032212 0)
(7.37645 -0.00130714 0)
(7.39208 -0.0081056 0)
(7.40782 -0.0168262 0)
(7.42315 -0.0271139 0)
(7.43779 -0.0386565 0)
(7.45156 -0.0512196 0)
(7.4644 -0.0646474 0)
(7.4763 -0.0788509 0)
(7.48728 -0.0937786 0)
(7.49738 -0.109365 0)
(7.50667 -0.125481 0)
(7.51519 -0.141922 0)
(7.52302 -0.158484 0)
(7.53026 -0.1751 0)
(7.53706 -0.191989 0)
(7.54358 -0.20974 0)
(7.55002 -0.229243 0)
(7.55652 -0.251497 0)
(7.56315 -0.277334 0)
(7.56981 -0.30718 0)
(7.57629 -0.340926 0)
(7.58219 -0.377971 0)
(7.58708 -0.417386 0)
(7.59045 -0.45815 0)
(7.59184 -0.499366 0)
(7.59088 -0.540404 0)
(7.58729 -0.580942 0)
(7.58084 -0.620919 0)
(7.57159 -0.660469 0)
(7.33342 0.000178068 0)
(7.33771 8.92177e-05 0)
(7.34658 -0.00146249 0)
(7.3585 -0.00501365 0)
(7.37208 -0.0105525 0)
(7.38654 -0.017882 0)
(7.40125 -0.0267634 0)
(7.41571 -0.0369446 0)
(7.42959 -0.0482001 0)
(7.44268 -0.0603599 0)
(7.45489 -0.0733165 0)
(7.46616 -0.0870155 0)
(7.47649 -0.101428 0)
(7.48591 -0.116504 0)
(7.49445 -0.13212 0)
(7.50216 -0.148087 0)
(7.5091 -0.164222 0)
(7.51537 -0.18049 0)
(7.52112 -0.19715 0)
(7.5265 -0.214812 0)
(7.53167 -0.234362 0)
(7.53677 -0.256745 0)
(7.54182 -0.282694 0)
(7.54672 -0.312499 0)
(7.55125 -0.34591 0)
(7.55505 -0.382203 0)
(7.55771 -0.420369 0)
(7.5588 -0.459361 0)
(7.55791 -0.498308 0)
(7.55471 -0.536647 0)
(7.549 -0.574137 0)
(7.5406 -0.610805 0)
(7.52957 -0.646855 0)
(7.33338 -0.00119437 0)
(7.33724 -0.00389498 0)
(7.34527 -0.00761144 0)
(7.35616 -0.0127526 0)
(7.36872 -0.0193472 0)
(7.38223 -0.0272825 0)
(7.3961 -0.0364066 0)
(7.40981 -0.0465543 0)
(7.42301 -0.0575771 0)
(7.43548 -0.0693673 0)
(7.44708 -0.0818648 0)
(7.45773 -0.095051 0)
(7.46741 -0.108922 0)
(7.47611 -0.123442 0)
(7.48387 -0.138502 0)
(7.49072 -0.153928 0)
(7.49674 -0.169559 0)
(7.50201 -0.185395 0)
(7.50668 -0.201724 0)
(7.51089 -0.219176 0)
(7.5148 -0.238623 0)
(7.51849 -0.260955 0)
(7.52198 -0.286807 0)
(7.52517 -0.316345 0)
(7.52783 -0.349191 0)
(7.52962 -0.384514 0)
(7.53018 -0.421242 0)
(7.52911 -0.458317 0)
(7.52608 -0.494902 0)
(7.52082 -0.5305 0)
(7.51316 -0.564954 0)
(7.50298 -0.598371 0)
(7.49036 -0.631019 0)
(7.33335 -0.0024798 0)
(7.33691 -0.0076336 0)
(7.34433 -0.0134217 0)
(7.35446 -0.0201321 0)
(7.36626 -0.0278044 0)
(7.37904 -0.0363816 0)
(7.39224 -0.0457778 0)
(7.40533 -0.0559005 0)
(7.41795 -0.0666708 0)
(7.42986 -0.0780413 0)
(7.44088 -0.0900023 0)
(7.45092 -0.102576 0)
(7.45994 -0.115789 0)
(7.46792 -0.12963 0)
(7.47487 -0.144009 0)
(7.48086 -0.158774 0)
(7.48593 -0.173791 0)
(7.4902 -0.189092 0)
(7.49379 -0.204993 0)
(7.49685 -0.222135 0)
(7.4995 -0.241369 0)
(7.50182 -0.263522 0)
(7.50381 -0.289132 0)
(7.50534 -0.318245 0)
(7.5062 -0.350366 0)
(7.50607 -0.384572 0)
(7.50463 -0.419741 0)
(7.50153 -0.454816 0)
(7.4965 -0.489001 0)
(7.48932 -0.521867 0)
(7.47987 -0.553339 0)
(7.46806 -0.583598 0)
(7.45401 -0.612972 0)
(7.33333 -0.00371339 0)
(7.33669 -0.0112257 0)
(7.34372 -0.0190339 0)
(7.35336 -0.0273134 0)
(7.36465 -0.0360998 0)
(7.37696 -0.0453748 0)
(7.38969 -0.0551074 0)
(7.40235 -0.065268 0)
(7.41453 -0.0758408 0)
(7.42598 -0.0868342 0)
(7.4365 -0.0982858 0)
(7.44597 -0.110256 0)
(7.45434 -0.122802 0)
(7.46159 -0.135935 0)
(7.46772 -0.149588 0)
(7.4728 -0.16363 0)
(7.47689 -0.177958 0)
(7.4801 -0.192632 0)
(7.48257 -0.207993 0)
(7.48444 -0.224685 0)
(7.48582 -0.243532 0)
(7.48677 -0.265299 0)
(7.48727 -0.290431 0)
(7.4872 -0.318865 0)
(7.48633 -0.350008 0)
(7.48438 -0.382863 0)
(7.48105 -0.416279 0)
(7.47606 -0.449209 0)
(7.46917 -0.480906 0)
(7.46022 -0.511012 0)
(7.44913 -0.539525 0)
(7.43585 -0.566697 0)
(7.4205 -0.592907 0)
(7.33332 -0.00492867 0)
(7.33659 -0.0147647 0)
(7.34342 -0.024574 0)
(7.35282 -0.0344168 0)
(7.36384 -0.0443071 0)
(7.37588 -0.0542468 0)
(7.38835 -0.0642468 0)
(7.40071 -0.0743351 0)
(7.41258 -0.0845592 0)
(7.42365 -0.0949898 0)
(7.43372 -0.105721 0)
(7.44267 -0.116865 0)
(7.45042 -0.128519 0)
(7.45695 -0.140731 0)
(7.46228 -0.153464 0)
(7.46646 -0.166621 0)
(7.46959 -0.180129 0)
(7.47177 -0.194079 0)
(7.47314 -0.20883 0)
(7.47385 -0.225021 0)
(7.474 -0.243437 0)
(7.47363 -0.26477 0)
(7.4727 -0.289366 0)
(7.47107 -0.317057 0)
(7.46855 -0.347152 0)
(7.46486 -0.378596 0)
(7.45974 -0.410217 0)
(7.45296 -0.44099 0)
(7.44432 -0.470224 0)
(7.43371 -0.497631 0)
(7.42109 -0.523284 0)
(7.40646 -0.5475 0)
(7.38993 -0.5707 0)
(7.33332 -0.00616252 0)
(7.3366 -0.0183622 0)
(7.34345 -0.0302244 0)
(7.35289 -0.0417024 0)
(7.36396 -0.0527914 0)
(7.37605 -0.0635123 0)
(7.38854 -0.0739134 0)
(7.40088 -0.0840715 0)
(7.41264 -0.0940877 0)
(7.42351 -0.104085 0)
(7.43327 -0.114204 0)
(7.44176 -0.124601 0)
(7.44891 -0.135409 0)
(7.45471 -0.14671 0)
(7.45918 -0.1585 0)
(7.46239 -0.170713 0)
(7.46445 -0.183312 0)
(7.46549 -0.196415 0)
(7.46567 -0.210397 0)
(7.46513 -0.225884 0)
(7.46397 -0.243619 0)
(7.46223 -0.264225 0)
(7.45986 -0.287959 0)
(7.45672 -0.314563 0)
(7.45261 -0.343277 0)
(7.44727 -0.373005 0)
(7.44048 -0.402577 0)
(7.43202 -0.431002 0)
(7.42177 -0.457649 0)
(7.40964 -0.4823 0)
(7.39564 -0.505093 0)
(7.37977 -0.526403 0)
(7.36218 -0.546685 0)
(7.33333 -0.00745324 0)
(7.33671 -0.0221127 0)
(7.34379 -0.0360792 0)
(7.35349 -0.049174 0)
(7.36485 -0.0613541 0)
(7.37719 -0.0726501 0)
(7.38989 -0.083152 0)
(7.40236 -0.0930021 0)
(7.41415 -0.102378 0)
(7.42492 -0.111478 0)
(7.43444 -0.120518 0)
(7.44256 -0.129715 0)
(7.4492 -0.139262 0)
(7.45434 -0.149289 0)
(7.45803 -0.159837 0)
(7.46034 -0.170884 0)
(7.4614 -0.182432 0)
(7.46138 -0.194626 0)
(7.46044 -0.207849 0)
(7.45872 -0.222702 0)
(7.45633 -0.23987 0)
(7.45329 -0.259885 0)
(7.44954 -0.282898 0)
(7.44493 -0.308548 0)
(7.43927 -0.336001 0)
(7.43234 -0.364124 0)
(7.42392 -0.391755 0)
(7.41385 -0.417946 0)
(7.40205 -0.442134 0)
(7.38846 -0.464173 0)
(7.37312 -0.484271 0)
(7.35608 -0.502855 0)
(7.33748 -0.520411 0)
(7.33336 -0.00885573 0)
(7.33701 -0.0262109 0)
(7.34461 -0.0425331 0)
(7.35502 -0.0575337 0)
(7.36714 -0.0711513 0)
(7.38025 -0.0834231 0)
(7.39363 -0.0944582 0)
(7.40664 -0.104435 0)
(7.41879 -0.113578 0)
(7.42971 -0.122141 0)
(7.43915 -0.130394 0)
(7.44696 -0.138612 0)
(7.45306 -0.147038 0)
(7.45745 -0.155852 0)
(7.46018 -0.165144 0)
(7.46139 -0.174938 0)
(7.46122 -0.185277 0)
(7.45987 -0.196336 0)
(7.45754 -0.208499 0)
(7.4544 -0.222342 0)
(7.45058 -0.238491 0)
(7.44609 -0.257398 0)
(7.44088 -0.279128 0)
(7.43479 -0.303254 0)
(7.42763 -0.328897 0)
(7.41918 -0.35492 0)
(7.40926 -0.38019 0)
(7.39773 -0.403816 0)
(7.38451 -0.425304 0)
(7.36961 -0.444577 0)
(7.35307 -0.461898 0)
(7.33496 -0.477739 0)
(7.31544 -0.492601 0)
(7.33339 -0.0104161 0)
(7.33738 -0.0306977 0)
(7.34569 -0.049401 0)
(7.35697 -0.0660604 0)
(7.37002 -0.0805966 0)
(7.38403 -0.0931001 0)
(7.39824 -0.103772 0)
(7.41196 -0.112901 0)
(7.42465 -0.120823 0)
(7.43591 -0.127893 0)
(7.44547 -0.13447 0)
(7.45315 -0.140907 0)
(7.4589 -0.147521 0)
(7.46272 -0.154556 0)
(7.4647 -0.162166 0)
(7.46499 -0.170434 0)
(7.46378 -0.179454 0)
(7.4613 -0.189434 0)
(7.45777 -0.200754 0)
(7.45339 -0.213947 0)
(7.44827 -0.229549 0)
(7.44244 -0.247894 0)
(7.43583 -0.268919 0)
(7.42829 -0.292083 0)
(7.41962 -0.316437 0)
(7.40964 -0.340826 0)
(7.39817 -0.364143 0)
(7.38512 -0.385565 0)
(7.37045 -0.404674 0)
(7.35417 -0.421477 0)
(7.33638 -0.436303 0)
(7.31717 -0.449669 0)
(7.29668 -0.462098 0)
(7.33346 -0.0122598 0)
(7.33819 -0.0361477 0)
(7.34793 -0.0580715 0)
(7.36101 -0.0774294 0)
(7.37594 -0.0940931 0)
(7.39175 -0.108099 0)
(7.40755 -0.119623 0)
(7.42256 -0.128985 0)
(7.43619 -0.136589 0)
(7.44802 -0.142875 0)
(7.45777 -0.1483 0)
(7.46528 -0.153311 0)
(7.47049 -0.158311 0)
(7.47345 -0.163625 0)
(7.47426 -0.169476 0)
(7.47313 -0.176012 0)
(7.4703 -0.183372 0)
(7.46607 -0.191787 0)
(7.46073 -0.201627 0)
(7.45452 -0.213378 0)
(7.44761 -0.227503 0)
(7.44007 -0.244246 0)
(7.43182 -0.263467 0)
(7.42273 -0.284573 0)
(7.41258 -0.306603 0)
(7.40118 -0.328426 0)
(7.38834 -0.348995 0)
(7.37398 -0.367561 0)
(7.35805 -0.383789 0)
(7.3406 -0.397751 0)
(7.32173 -0.409826 0)
(7.30156 -0.420558 0)
(7.28022 -0.430473 0)
(7.3335 -0.0143958 0)
(7.3388 -0.0420495 0)
(7.34983 -0.06656 0)
(7.36456 -0.0872006 0)
(7.38131 -0.10406 0)
(7.39903 -0.11742 0)
(7.4167 -0.127667 0)
(7.43339 -0.135287 0)
(7.44843 -0.140807 0)
(7.46131 -0.14476 0)
(7.47173 -0.147685 0)
(7.47951 -0.150109 0)
(7.4846 -0.152519 0)
(7.48708 -0.155328 0)
(7.48713 -0.158858 0)
(7.485 -0.163357 0)
(7.48101 -0.169052 0)
(7.47549 -0.176227 0)
(7.46878 -0.185256 0)
(7.46115 -0.196558 0)
(7.45278 -0.210465 0)
(7.44373 -0.227047 0)
(7.43393 -0.245978 0)
(7.42325 -0.266507 0)
(7.41148 -0.287575 0)
(7.39844 -0.308027 0)
(7.38398 -0.326858 0)
(7.36801 -0.343405 0)
(7.35055 -0.357438 0)
(7.33164 -0.369131 0)
(7.31142 -0.378939 0)
(7.29003 -0.387462 0)
(7.26762 -0.395245 0)
(7.33376 -0.0172915 0)
(7.34109 -0.0509577 0)
(7.35555 -0.0811218 0)
(7.37412 -0.106638 0)
(7.39447 -0.127284 0)
(7.41537 -0.143128 0)
(7.43571 -0.154563 0)
(7.45453 -0.162237 0)
(7.47114 -0.166887 0)
(7.48506 -0.169267 0)
(7.49598 -0.170125 0)
(7.50371 -0.170169 0)
(7.50821 -0.170032 0)
(7.50957 -0.170243 0)
(7.508 -0.171212 0)
(7.50382 -0.173243 0)
(7.49741 -0.176593 0)
(7.48924 -0.181541 0)
(7.47977 -0.188424 0)
(7.4694 -0.197592 0)
(7.45843 -0.209293 0)
(7.447 -0.223514 0)
(7.43509 -0.239868 0)
(7.42256 -0.257578 0)
(7.40919 -0.2756 0)
(7.39474 -0.292834 0)
(7.37899 -0.308356 0)
(7.36184 -0.321602 0)
(7.34325 -0.332431 0)
(7.32327 -0.341088 0)
(7.30204 -0.348073 0)
(7.2797 -0.354002 0)
(7.25642 -0.359402 0)
(7.33365 -0.0204439 0)
(7.34143 -0.0584154 0)
(7.35788 -0.0899061 0)
(7.37948 -0.11478 0)
(7.40358 -0.133905 0)
(7.4286 -0.147796 0)
(7.45296 -0.156983 0)
(7.47536 -0.16214 0)
(7.49493 -0.163976 0)
(7.51108 -0.163224 0)
(7.52345 -0.160653 0)
(7.53188 -0.157039 0)
(7.5364 -0.153137 0)
(7.53721 -0.149644 0)
(7.53464 -0.147172 0)
(7.52915 -0.146248 0)
(7.52123 -0.147328 0)
(7.51144 -0.150829 0)
(7.50025 -0.157121 0)
(7.48808 -0.166467 0)
(7.47521 -0.178904 0)
(7.46179 -0.194123 0)
(7.44781 -0.211413 0)
(7.43317 -0.229714 0)
(7.41767 -0.247789 0)
(7.40111 -0.264464 0)
(7.3833 -0.278852 0)
(7.36414 -0.290507 0)
(7.34361 -0.299446 0)
(7.32178 -0.306073 0)
(7.2988 -0.311021 0)
(7.27486 -0.315 0)
(7.25014 -0.318576 0)
(7.33478 -0.0265732 0)
(7.34901 -0.0783692 0)
(7.37352 -0.122489 0)
(7.40193 -0.156949 0)
(7.43129 -0.182035 0)
(7.46056 -0.198526 0)
(7.48839 -0.20771 0)
(7.51357 -0.211027 0)
(7.5353 -0.209805 0)
(7.55297 -0.205271 0)
(7.56616 -0.198568 0)
(7.57464 -0.190739 0)
(7.57836 -0.182714 0)
(7.57748 -0.175297 0)
(7.57229 -0.169139 0)
(7.5633 -0.164745 0)
(7.55115 -0.162501 0)
(7.53659 -0.162724 0)
(7.52039 -0.165689 0)
(7.50327 -0.171586 0)
(7.48582 -0.18041 0)
(7.46841 -0.191848 0)
(7.45122 -0.205208 0)
(7.43417 -0.219468 0)
(7.417 -0.233439 0)
(7.39935 -0.245999 0)
(7.38082 -0.256333 0)
(7.3611 -0.264075 0)
(7.34001 -0.269334 0)
(7.31752 -0.272594 0)
(7.29374 -0.27454 0)
(7.26891 -0.275906 0)
(7.24324 -0.277216 0)
(7.33377 -0.0301331 0)
(7.34725 -0.0811613 0)
(7.37641 -0.119905 0)
(7.4127 -0.150201 0)
(7.45104 -0.173169 0)
(7.48887 -0.188428 0)
(7.52395 -0.196435 0)
(7.55491 -0.198057 0)
(7.58102 -0.194221 0)
(7.60178 -0.186003 0)
(7.61689 -0.174593 0)
(7.62622 -0.161219 0)
(7.62987 -0.147117 0)
(7.62815 -0.133501 0)
(7.6216 -0.121519 0)
(7.61097 -0.112209 0)
(7.59712 -0.106438 0)
(7.58089 -0.10485 0)
(7.56305 -0.107838 0)
(7.54426 -0.115478 0)
(7.52502 -0.127427 0)
(7.50564 -0.142841 0)
(7.48623 -0.16039 0)
(7.46669 -0.178407 0)
(7.44675 -0.195177 0)
(7.42603 -0.209267 0)
(7.40418 -0.219803 0)
(7.38094 -0.226594 0)
(7.35621 -0.230082 0)
(7.3301 -0.231146 0)
(7.30285 -0.230835 0)
(7.27483 -0.230159 0)
(7.24632 -0.229773 0)
(7.33889 -0.0525123 0)
(7.37171 -0.145559 0)
(7.41402 -0.210034 0)
(7.45658 -0.251389 0)
(7.501 -0.275589 0)
(7.54745 -0.286397 0)
(7.59363 -0.287365 0)
(7.63757 -0.281148 0)
(7.67759 -0.269556 0)
(7.7119 -0.254028 0)
(7.73899 -0.235837 0)
(7.75774 -0.216195 0)
(7.7675 -0.196316 0)
(7.76813 -0.177384 0)
(7.76015 -0.16048 0)
(7.74471 -0.146475 0)
(7.72351 -0.135989 0)
(7.69848 -0.129422 0)
(7.67146 -0.127034 0)
(7.64392 -0.12887 0)
(7.61676 -0.134641 0)
(7.5903 -0.143609 0)
(7.56436 -0.154572 0)
(7.5384 -0.165987 0)
(7.51179 -0.176253 0)
(7.48401 -0.184057 0)
(7.45477 -0.188669 0)
(7.42402 -0.19006 0)
(7.39198 -0.18883 0)
(7.35902 -0.185967 0)
(7.32559 -0.182576 0)
(7.29226 -0.179629 0)
(7.25931 -0.177682 0)
(7.33762 -0.0387779 0)
(7.38849 -0.10023 0)
(7.47669 -0.152658 0)
(7.57566 -0.201014 0)
(7.67869 -0.238613 0)
(7.78013 -0.262791 0)
(7.87363 -0.274011 0)
(7.95543 -0.272964 0)
(8.0234 -0.260912 0)
(8.07634 -0.239712 0)
(8.11392 -0.211468 0)
(8.13648 -0.178459 0)
(8.14481 -0.143185 0)
(8.14015 -0.108396 0)
(8.12425 -0.0769694 0)
(8.09931 -0.0515655 0)
(8.06764 -0.0342256 0)
(8.03123 -0.0256878 0)
(7.99145 -0.0257846 0)
(7.94905 -0.0334595 0)
(7.90409 -0.046885 0)
(7.8562 -0.0637093 0)
(7.80491 -0.0813842 0)
(7.75006 -0.097552 0)
(7.6921 -0.110413 0)
(7.63208 -0.11897 0)
(7.5715 -0.123106 0)
(7.512 -0.123469 0)
(7.45503 -0.121257 0)
(7.40167 -0.117875 0)
(7.35249 -0.114782 0)
(7.30776 -0.112998 0)
(7.26716 -0.113637 0)
(7.39906 -0.194311 0)
(7.59397 -0.368516 0)
(7.76592 -0.445032 0)
(7.89369 -0.490637 0)
(7.98023 -0.508956 0)
(8.02474 -0.505697 0)
(8.03256 -0.487489 0)
(8.01306 -0.457779 0)
(7.97472 -0.419235 0)
(7.9247 -0.374376 0)
(7.86885 -0.325399 0)
(7.81142 -0.274333 0)
(7.75489 -0.22325 0)
(7.70024 -0.174343 0)
(7.64731 -0.129972 0)
(7.59529 -0.0921237 0)
(7.5439 -0.0615971 0)
(7.49333 -0.0387104 0)
(7.44309 -0.0226731 0)
(7.39269 -0.0119697 0)
(7.34164 -0.00488019 0)
(7.28969 5.91542e-05 0)
(7.23696 0.00376366 0)
(7.18392 0.00653312 0)
(7.13135 0.00819763 0)
(7.0801 0.00838811 0)
(7.03097 0.00679672 0)
(6.9845 0.00334579 0)
(6.94099 -0.00181837 0)
(6.90025 -0.00833638 0)
(6.86218 -0.0160113 0)
(6.82559 -0.0242631 0)
(6.79138 -0.0343374 0)
(7.1608 -0.184102 0)
(6.91583 -0.340103 0)
(6.51371 -0.384015 0)
(6.06419 -0.381838 0)
(5.64395 -0.349817 0)
(5.25432 -0.301698 0)
(4.90023 -0.248315 0)
(4.58926 -0.195192 0)
(4.32274 -0.145148 0)
(4.09972 -0.0993768 0)
(3.91885 -0.0578308 0)
(3.77823 -0.0198048 0)
(3.67553 0.0154159 0)
(3.60797 0.0479408 0)
(3.5719 0.0767192 0)
(3.56251 0.0995204 0)
(3.57325 0.114489 0)
(3.59728 0.121132 0)
(3.62887 0.120547 0)
(3.66331 0.114367 0)
(3.69731 0.104266 0)
(3.72885 0.0918202 0)
(3.75693 0.0784404 0)
(3.78122 0.065332 0)
(3.80178 0.0534417 0)
(3.81878 0.0433989 0)
(3.83248 0.035484 0)
(3.84307 0.029652 0)
(3.85082 0.0255683 0)
(3.85566 0.0228878 0)
(3.85827 0.020474 0)
(3.8572 0.0204406 0)
(3.85724 0.00780934 0)
(3.6105 -0.377754 0)
(4.09097 -0.418644 0)
(4.6375 -0.327958 0)
(5.4347 -0.234052 0)
(6.49197 -0.310913 0)
(7.67599 -0.737436 0)
(8.79023 -1.5501 0)
(9.51218 -2.57771 0)
(9.56087 -3.51274 0)
(8.99916 -4.13836 0)
(8.16317 -4.42326 0)
(7.35049 -4.44296 0)
(6.68162 -4.29012 0)