/*--------------------------------*- C++ -*----------------------------------*\
  =========                 |
  \\      /  F ield         | OpenFOAM: The Open Source CFD Toolbox
   \\    /   O peration     | Website:  https://openfoam.org
    \\  /    A nd           | Version:  10
     \\/     M anipulation  |
\*---------------------------------------------------------------------------*/
FoamFile
{
    format      ascii;
    class       volScalarField;
    location    "0.1";
    object      nut;
}
// * * * * * * * * * * * * * * * * * * * * * * * * * * * * * * * * * * * * * //

dimensions      [0 2 -1 0 0 0 0];

internalField   nonuniform List<scalar> 
6820
(
0.00050321
0.000397032
0.000324377
0.000269112
0.000236112
0.000213584
0.000196819
0.000183948
0.000173508
0.000164701
0.000157078
0.000150342
0.000144296
0.000138797
0.000133741
0.000129049
0.000124657
0.000120514
0.00011658
0.000112817
0.000109196
0.000105687
0.000102266
9.89059e-05
9.55836e-05
9.22742e-05
8.89516e-05
8.55915e-05
8.21545e-05
7.86425e-05
7.49213e-05
7.11054e-05
6.6601e-05
8.18636e-05
0.000143755
0.000196461
0.000210866
0.000206412
0.000197517
0.000187217
0.000177275
0.00016828
0.000160219
0.000152987
0.000146469
0.000140555
0.000135154
0.000130194
0.000125613
0.000121362
0.000117398
0.000113685
0.000110194
0.000106898
0.000103776
0.00010081
9.79827e-05
9.52808e-05
9.26916e-05
9.02054e-05
8.78082e-05
8.55041e-05
8.32427e-05
8.11308e-05
7.88651e-05
7.74198e-05
3.85865e-05
2.73742e-05
4.31048e-05
7.45838e-05
9.60367e-05
0.000109429
0.000116694
0.000120001
0.000120931
0.00012039
0.00011894
0.000116934
0.000114594
0.000112065
0.000109442
0.000106786
0.000104138
0.000101527
9.8969e-05
9.64777e-05
9.40605e-05
9.17224e-05
8.94667e-05
8.72957e-05
8.52113e-05
8.32155e-05
8.13104e-05
7.95004e-05
7.77889e-05
7.61873e-05
7.4703e-05
7.33713e-05
7.23483e-05
1.99674e-05
2.35114e-05
2.20352e-05
1.27148e-05
2.87966e-06
1.25855e-05
2.31762e-05
3.18926e-05
3.892e-05
4.45115e-05
4.89089e-05
5.23279e-05
5.49433e-05
5.6896e-05
5.83085e-05
5.92812e-05
5.98967e-05
6.02235e-05
6.03183e-05
6.02283e-05
5.99933e-05
5.96467e-05
5.92175e-05
5.87306e-05
5.82088e-05
5.76727e-05
5.71422e-05
5.66369e-05
5.6179e-05
5.57908e-05
5.55075e-05
5.53679e-05
5.54834e-05
1.32478e-05
1.50621e-05
1.99157e-05
2.2014e-05
2.14561e-05
1.94928e-05
1.68336e-05
1.38475e-05
1.07534e-05
7.68176e-06
4.71697e-06
1.93073e-06
8.63164e-07
3.19203e-06
5.38401e-06
7.37569e-06
9.17193e-06
1.07852e-05
1.22308e-05
1.3526e-05
1.46883e-05
1.57358e-05
1.66869e-05
1.75599e-05
1.83737e-05
1.91475e-05
1.99017e-05
2.06583e-05
2.14414e-05
2.228e-05
2.3205e-05
2.42621e-05
2.54913e-05
1.01968e-05
1.1e-05
1.18224e-05
1.26325e-05
1.32818e-05
1.3838e-05
1.42431e-05
1.44612e-05
1.45041e-05
1.43934e-05
1.41508e-05
1.37995e-05
1.33602e-05
1.28479e-05
1.22815e-05
1.16763e-05
1.10452e-05
1.03982e-05
9.74298e-06
9.08467e-06
8.42635e-06
7.7691e-06
7.11217e-06
6.45306e-06
5.78754e-06
5.1096e-06
4.41119e-06
3.68242e-06
2.91073e-06
2.08375e-06
1.1993e-06
4.61702e-07
1.11948e-06
7.54475e-06
8.23298e-06
8.64744e-06
8.88187e-06
8.78374e-06
8.58872e-06
8.43844e-06
8.36263e-06
8.35377e-06
8.38664e-06
8.43378e-06
8.47617e-06
8.50453e-06
8.51618e-06
8.50762e-06
8.47747e-06
8.42585e-06
8.35359e-06
8.26181e-06
8.15171e-06
8.02436e-06
7.88064e-06
7.72108e-06
7.54584e-06
7.35461e-06
7.14663e-06
6.92051e-06
6.67482e-06
6.40737e-06
6.11896e-06
5.80968e-06
5.50392e-06
5.21164e-06
5.76589e-06
6.59699e-06
6.98087e-06
7.08914e-06
6.83795e-06
6.4792e-06
6.15228e-06
5.88086e-06
5.66325e-06
5.49026e-06
5.34973e-06
5.23182e-06
5.1292e-06
5.03648e-06
4.95e-06
4.86709e-06
4.78549e-06
4.70328e-06
4.61888e-06
4.531e-06
4.43856e-06
4.34061e-06
4.23631e-06
4.1249e-06
4.00571e-06
3.87833e-06
3.74265e-06
3.59974e-06
3.45177e-06
3.30656e-06
3.17408e-06
3.09133e-06
3.07566e-06
4.49577e-06
5.23791e-06
5.51832e-06
5.66571e-06
5.58237e-06
5.37476e-06
5.13169e-06
4.8866e-06
4.65856e-06
4.45542e-06
4.27545e-06
4.11421e-06
3.96763e-06
3.83228e-06
3.70531e-06
3.58434e-06
3.46739e-06
3.35284e-06
3.23929e-06
3.1255e-06
3.01028e-06
2.89254e-06
2.77125e-06
2.64553e-06
2.5147e-06
2.37864e-06
2.23802e-06
2.09551e-06
1.95637e-06
1.83302e-06
1.7429e-06
1.72344e-06
1.79107e-06
3.57084e-06
4.23229e-06
4.49339e-06
4.64765e-06
4.61021e-06
4.44852e-06
4.24828e-06
4.04699e-06
3.86063e-06
3.69368e-06
3.54351e-06
3.40622e-06
3.27871e-06
3.15852e-06
3.04366e-06
2.9326e-06
2.82411e-06
2.71711e-06
2.61059e-06
2.50362e-06
2.39533e-06
2.28497e-06
2.17192e-06
2.05586e-06
1.93692e-06
1.81607e-06
1.69569e-06
1.58074e-06
1.47967e-06
1.40754e-06
1.38243e-06
1.42993e-06
1.55205e-06
2.8847e-06
3.45963e-06
3.69857e-06
3.83753e-06
3.83319e-06
3.72628e-06
3.5788e-06
3.41966e-06
3.26278e-06
3.11515e-06
2.97822e-06
2.85116e-06
2.73264e-06
2.62114e-06
2.51517e-06
2.41338e-06
2.31458e-06
2.21768e-06
2.12175e-06
2.02602e-06
1.92985e-06
1.83283e-06
1.73486e-06
1.63628e-06
1.53819e-06
1.44286e-06
1.35435e-06
1.27948e-06
1.22801e-06
1.21336e-06
1.2474e-06
1.34116e-06
1.48744e-06
2.36253e-06
2.85711e-06
3.09069e-06
3.23103e-06
3.25629e-06
3.18594e-06
3.06721e-06
2.92932e-06
2.78867e-06
2.6541e-06
2.52835e-06
2.41128e-06
2.30188e-06
2.1989e-06
2.10104e-06
2.00717e-06
1.91631e-06
1.82763e-06
1.74046e-06
1.6543e-06
1.56888e-06
1.48422e-06
1.40077e-06
1.31962e-06
1.24283e-06
1.17381e-06
1.11771e-06
1.08174e-06
1.07431e-06
1.1039e-06
1.17488e-06
1.28906e-06
1.43722e-06
1.95565e-06
2.38236e-06
2.61492e-06
2.75577e-06
2.79863e-06
2.75616e-06
2.6655e-06
2.5529e-06
2.43322e-06
2.31465e-06
2.20068e-06
2.09235e-06
1.98973e-06
1.89244e-06
1.79984e-06
1.71128e-06
1.62611e-06
1.5438e-06
1.46394e-06
1.38632e-06
1.31101e-06
1.23849e-06
1.16975e-06
1.10657e-06
1.05167e-06
1.00897e-06
9.835e-07
9.80936e-07
1.0063e-06
1.06293e-06
1.1505e-06
1.26724e-06
1.40516e-06
1.63124e-06
2.00314e-06
2.23696e-06
2.38289e-06
2.44242e-06
2.42444e-06
2.35701e-06
2.26339e-06
2.15818e-06
2.05033e-06
1.94456e-06
1.84297e-06
1.74636e-06
1.65478e-06
1.56793e-06
1.48537e-06
1.40668e-06
1.33157e-06
1.25989e-06
1.19175e-06
1.12758e-06
1.06827e-06
1.01524e-06
9.70639e-07
9.37311e-07
9.18745e-07
9.18623e-07
9.40183e-07
9.85294e-07
1.05421e-06
1.14488e-06
1.25477e-06
1.37769e-06
1.36679e-06
1.69683e-06
1.9333e-06
2.0865e-06
2.15953e-06
2.16052e-06
2.11202e-06
2.03518e-06
1.94422e-06
1.84806e-06
1.75174e-06
1.6579e-06
1.56782e-06
1.48204e-06
1.40068e-06
1.32371e-06
1.25107e-06
1.18276e-06
1.11897e-06
1.0601e-06
1.00689e-06
9.60463e-07
9.22399e-07
8.94723e-07
8.79776e-07
8.79942e-07
8.97211e-07
9.32776e-07
9.86655e-07
1.05783e-06
1.144e-06
1.24277e-06
1.34946e-06
1.14662e-06
1.44663e-06
1.68681e-06
1.84894e-06
1.93474e-06
1.95268e-06
1.92136e-06
1.85965e-06
1.78113e-06
1.69472e-06
1.606e-06
1.5183e-06
1.43353e-06
1.35274e-06
1.27647e-06
1.20499e-06
1.13853e-06
1.07733e-06
1.02177e-06
9.7244e-07
9.30184e-07
8.9613e-07
8.71656e-07
8.58292e-07
8.57528e-07
8.70578e-07
8.98114e-07
9.40127e-07
9.95834e-07
1.06387e-06
1.14212e-06
1.22858e-06
1.3197e-06
9.59509e-07
1.24018e-06
1.48552e-06
1.65766e-06
1.75566e-06
1.78842e-06
1.77205e-06
1.72367e-06
1.65641e-06
1.57931e-06
1.4983e-06
1.41717e-06
1.33823e-06
1.26292e-06
1.19207e-06
1.12627e-06
1.06597e-06
1.01162e-06
9.63738e-07
9.22994e-07
8.90184e-07
8.66227e-07
8.52094e-07
8.48696e-07
8.56733e-07
8.76562e-07
9.08091e-07
9.50763e-07
1.00354e-06
1.06509e-06
1.1336e-06
1.20744e-06
1.28387e-06
7.97307e-07
1.0685e-06
1.32077e-06
1.50356e-06
1.61352e-06
1.65998e-06
1.65747e-06
1.62164e-06
1.56511e-06
1.49691e-06
1.42323e-06
1.34825e-06
1.27475e-06
1.20452e-06
1.13876e-06
1.07829e-06
1.02378e-06
9.75781e-07
9.3486e-07
9.01599e-07
8.76599e-07
8.60454e-07
8.53681e-07
8.56639e-07
8.69454e-07
8.91959e-07
9.23677e-07
9.63844e-07
1.01142e-06
1.06518e-06
1.12365e-06
1.18549e-06
1.24862e-06
6.54091e-07
9.25244e-07
1.1865e-06
1.3803e-06
1.50203e-06
1.56126e-06
1.57152e-06
1.54727e-06
1.50067e-06
1.44076e-06
1.37399e-06
1.3049e-06
1.2366e-06
1.17119e-06
1.11012e-06
1.0544e-06
1.00479e-06
9.61892e-07
9.26221e-07
8.98224e-07
8.78287e-07
8.66697e-07
8.63608e-07
8.69e-07
8.82659e-07
9.04166e-07
9.32902e-07
9.68071e-07
1.00872e-06
1.0538e-06
1.1021e-06
1.15257e-06
1.20356e-06
5.25744e-07
8.06417e-07
1.07868e-06
1.28356e-06
1.4168e-06
1.48816e-06
1.51049e-06
1.49736e-06
1.4605e-06
1.40889e-06
1.34916e-06
1.28612e-06
1.22315e-06
1.16261e-06
1.10613e-06
1.05485e-06
1.0096e-06
9.70969e-07
9.3938e-07
9.15125e-07
8.9838e-07
8.89174e-07
8.87404e-07
8.9282e-07
9.05034e-07
9.23525e-07
9.47649e-07
9.76657e-07
1.00972e-06
1.04595e-06
1.08439e-06
1.12418e-06
1.16408e-06
4.10101e-07
7.10232e-07
9.94907e-07
1.21056e-06
1.35481e-06
1.43752e-06
1.47103e-06
1.46811e-06
1.44004e-06
1.39578e-06
1.34209e-06
1.28397e-06
1.22508e-06
1.16796e-06
1.11443e-06
1.06576e-06
1.0228e-06
9.86111e-07
9.56048e-07
9.32776e-07
9.16305e-07
9.06517e-07
9.03174e-07
9.05925e-07
9.14317e-07
9.2781e-07
9.45793e-07
9.6761e-07
9.92551e-07
1.0199e-06
1.04887e-06
1.07883e-06
1.10878e-06
3.08314e-07
6.37211e-07
9.34303e-07
1.15999e-06
1.3147e-06
1.40831e-06
1.45267e-06
1.45992e-06
1.44092e-06
1.40456e-06
1.35763e-06
1.30526e-06
1.25121e-06
1.19819e-06
1.14811e-06
1.10225e-06
1.06147e-06
1.02628e-06
9.96988e-07
9.7366e-07
9.56226e-07
9.44493e-07
9.38164e-07
9.3686e-07
9.40139e-07
9.47505e-07
9.58431e-07
9.72367e-07
9.88741e-07
1.00699e-06
1.0265e-06
1.04681e-06
1.06715e-06
2.29482e-07
5.90007e-07
8.97025e-07
1.13118e-06
1.2951e-06
1.39826e-06
1.4519e-06
1.46749e-06
1.45556e-06
1.42476e-06
1.38201e-06
1.33261e-06
1.28053e-06
1.22862e-06
1.1789e-06
1.13277e-06
1.0911e-06
1.05443e-06
1.02302e-06
9.96894e-07
9.7596e-07
9.59984e-07
9.48655e-07
9.416e-07
9.38413e-07
9.38662e-07
9.41907e-07
9.477e-07
9.55595e-07
9.65165e-07
9.75956e-07
9.87631e-07
9.99584e-07
1.99151e-07
5.72828e-07
8.84577e-07
1.12548e-06
1.29813e-06
1.41107e-06
1.47482e-06
1.5002e-06
1.49721e-06
1.47428e-06
1.43822e-06
1.39429e-06
1.34646e-06
1.29761e-06
1.24981e-06
1.20448e-06
1.16252e-06
1.12451e-06
1.0907e-06
1.06117e-06
1.03585e-06
1.01453e-06
9.96985e-07
9.82901e-07
9.71962e-07
9.63837e-07
9.58199e-07
9.54725e-07
9.53105e-07
9.53045e-07
9.5424e-07
9.56471e-07
9.59326e-07
2.40531e-07
5.89319e-07
8.98112e-07
1.14244e-06
1.32095e-06
1.44032e-06
1.51003e-06
1.54029e-06
1.54083e-06
1.52009e-06
1.48498e-06
1.44094e-06
1.39209e-06
1.34149e-06
1.29127e-06
1.24292e-06
1.19738e-06
1.1552e-06
1.11663e-06
1.08175e-06
1.05047e-06
1.02262e-06
9.97978e-07
9.76289e-07
9.57303e-07
9.40775e-07
9.26479e-07
9.14206e-07
9.03769e-07
8.94999e-07
8.87724e-07
8.81843e-07
8.77054e-07
3.36205e-07
6.4161e-07
9.41276e-07
1.18824e-06
1.37444e-06
1.50397e-06
1.58488e-06
1.62633e-06
1.6372e-06
1.62537e-06
1.59739e-06
1.55855e-06
1.51297e-06
1.46377e-06
1.41322e-06
1.36294e-06
1.31404e-06
1.2672e-06
1.22285e-06
1.18115e-06
1.14217e-06
1.10582e-06
1.07201e-06
1.04057e-06
1.01135e-06
9.84231e-07
9.59075e-07
9.35791e-07
9.14306e-07
8.94572e-07
8.7654e-07
8.60217e-07
8.45477e-07
4.6426e-07
7.28819e-07
1.01314e-06
1.25661e-06
1.44254e-06
1.57193e-06
1.65185e-06
1.69137e-06
1.69961e-06
1.68471e-06
1.65343e-06
1.61118e-06
1.56208e-06
1.5092e-06
1.45474e-06
1.40022e-06
1.34664e-06
1.29462e-06
1.24453e-06
1.19653e-06
1.15065e-06
1.10685e-06
1.06506e-06
1.02518e-06
9.87153e-07
9.50909e-07
9.16428e-07
8.83721e-07
8.52833e-07
8.23835e-07
7.96806e-07
7.71877e-07
7.49028e-07
6.17931e-07
8.52262e-07
1.1241e-06
1.37154e-06
1.57013e-06
1.71629e-06
1.81398e-06
1.87e-06
1.89199e-06
1.88729e-06
1.86249e-06
1.82317e-06
1.77383e-06
1.71803e-06
1.65844e-06
1.59703e-06
1.53516e-06
1.47379e-06
1.41349e-06
1.35461e-06
1.29734e-06
1.24174e-06
1.18782e-06
1.13554e-06
1.08488e-06
1.03585e-06
9.88446e-07
9.42741e-07
8.98824e-07
8.56826e-07
8.16888e-07
7.79229e-07
7.43935e-07
7.98959e-07
1.01075e-06
1.26215e-06
1.49438e-06
1.6777e-06
1.80788e-06
1.89032e-06
1.93339e-06
1.94547e-06
1.93387e-06
1.90468e-06
1.86273e-06
1.8118e-06
1.75477e-06
1.69379e-06
1.63046e-06
1.56593e-06
1.50103e-06
1.43631e-06
1.37216e-06
1.30881e-06
1.24643e-06
1.18509e-06
1.12488e-06
1.06584e-06
1.00804e-06
9.51589e-07
8.96595e-07
8.43212e-07
7.91633e-07
7.42057e-07
6.94775e-07
6.4987e-07
1.01293e-06
1.21549e-06
1.4699e-06
1.72779e-06
1.94927e-06
2.11871e-06
2.23419e-06
2.30078e-06
2.32628e-06
2.31908e-06
2.28703e-06
2.23687e-06
2.17406e-06
2.10284e-06
2.02636e-06
1.94691e-06
1.8661e-06
1.78498e-06
1.70428e-06
1.62441e-06
1.54563e-06
1.46809e-06
1.39184e-06
1.31693e-06
1.24339e-06
1.17125e-06
1.10058e-06
1.03147e-06
9.64013e-07
8.98371e-07
8.34672e-07
7.73179e-07
7.13825e-07
1.27091e-06
1.46118e-06
1.67499e-06
1.87741e-06
2.04079e-06
2.16132e-06
2.24343e-06
2.29284e-06
2.31439e-06
2.31225e-06
2.29025e-06
2.25198e-06
2.20069e-06
2.13929e-06
2.07028e-06
1.99579e-06
1.91754e-06
1.83689e-06
1.7549e-06
1.67235e-06
1.58983e-06
1.50773e-06
1.42636e-06
1.34592e-06
1.26656e-06
1.18842e-06
1.11162e-06
1.03627e-06
9.62523e-07
8.90543e-07
8.20439e-07
7.52555e-07
6.86424e-07
1.58505e-06
1.79846e-06
2.08155e-06
2.39712e-06
2.67098e-06
2.86806e-06
2.98759e-06
3.04218e-06
3.04631e-06
3.01329e-06
2.95415e-06
2.87731e-06
2.78883e-06
2.69298e-06
2.59268e-06
2.48988e-06
2.3859e-06
2.28163e-06
2.17767e-06
2.07445e-06
1.97224e-06
1.87127e-06
1.77169e-06
1.67364e-06
1.57721e-06
1.48252e-06
1.38969e-06
1.29883e-06
1.21008e-06
1.12361e-06
1.03951e-06
9.58088e-07
8.78881e-07
1.98599e-06
2.15507e-06
2.27321e-06
2.39327e-06
2.52264e-06
2.65261e-06
2.77047e-06
2.86486e-06
2.92816e-06
2.95774e-06
2.95514e-06
2.92432e-06
2.87026e-06
2.79799e-06
2.71212e-06
2.61654e-06
2.51442e-06
2.40823e-06
2.29983e-06
2.1906e-06
2.08154e-06
1.97333e-06
1.86647e-06
1.76128e-06
1.658e-06
1.55679e-06
1.45782e-06
1.36122e-06
1.26718e-06
1.17596e-06
1.08773e-06
1.00326e-06
9.21328e-07
2.49347e-06
2.84445e-06
3.31735e-06
3.78058e-06
4.09246e-06
4.24458e-06
4.28469e-06
4.254e-06
4.17923e-06
4.0778e-06
3.96006e-06
3.83168e-06
3.69591e-06
3.55489e-06
3.41027e-06
3.26347e-06
3.11582e-06
2.96856e-06
2.82276e-06
2.67934e-06
2.53905e-06
2.40245e-06
2.26994e-06
2.14179e-06
2.01817e-06
1.89914e-06
1.78474e-06
1.67497e-06
1.56988e-06
1.46957e-06
1.37412e-06
1.28424e-06
1.19903e-06
3.20491e-06
3.14958e-06
2.92614e-06
2.93434e-06
3.16536e-06
3.46937e-06
3.74205e-06
3.9383e-06
4.04918e-06
4.08665e-06
4.07058e-06
4.02042e-06
3.95192e-06
3.87644e-06
3.80127e-06
3.73044e-06
3.66565e-06
3.60714e-06
3.55435e-06
3.50633e-06
3.46207e-06
3.42058e-06
3.38102e-06
3.34268e-06
3.305e-06
3.2675e-06
3.22983e-06
3.19174e-06
3.15311e-06
3.11407e-06
3.07477e-06
3.03725e-06
2.99905e-06
4.25283e-06
5.53824e-06
6.34319e-06
6.62565e-06
6.55401e-06
6.35968e-06
6.23006e-06
6.24746e-06
6.41979e-06
6.71143e-06
7.07211e-06
7.45685e-06
7.83251e-06
8.17747e-06
8.47948e-06
8.73307e-06
8.93727e-06
9.09388e-06
9.20626e-06
9.27858e-06
9.31523e-06
9.32056e-06
9.29865e-06
9.25318e-06
9.1874e-06
9.10406e-06
9.00549e-06
8.89345e-06
8.76959e-06
8.63466e-06
8.49062e-06
8.33873e-06
8.1819e-06
5.58709e-06
3.56822e-06
2.81615e-06
4.70883e-06
7.42533e-06
9.98547e-06
1.21591e-05
1.38833e-05
1.51708e-05
1.60634e-05
1.66082e-05
1.68534e-05
1.68464e-05
1.66322e-05
1.62515e-05
1.57403e-05
1.51304e-05
1.44484e-05
1.37169e-05
1.29545e-05
1.2176e-05
1.13932e-05
1.06152e-05
9.84899e-06
9.09947e-06
8.36999e-06
7.66259e-06
6.97769e-06
6.31559e-06
5.67282e-06
5.05221e-06
4.4402e-06
3.85778e-06
1.1429e-05
1.65455e-05
1.83291e-05
1.98497e-05
2.03282e-05
1.95899e-05
1.7858e-05
1.54068e-05
1.25911e-05
9.94682e-06
8.34367e-06
8.69296e-06
1.07669e-05
1.36283e-05
1.6685e-05
1.9674e-05
2.24809e-05
2.5057e-05
2.73855e-05
2.94664e-05
3.13084e-05
3.29253e-05
3.43329e-05
3.55481e-05
3.65876e-05
3.74675e-05
3.82033e-05
3.88099e-05
3.93025e-05
3.96965e-05
4.0012e-05
4.02687e-05
4.05159e-05
2.48573e-05
2.86471e-05
3.89877e-05
5.34066e-05
6.76465e-05
8.15483e-05
9.43804e-05
0.000105539
0.000114978
0.000122773
0.000129031
0.000133905
0.000137563
0.000140167
0.00014187
0.000142808
0.000143104
0.000142865
0.000142182
0.000141134
0.00013979
0.000138205
0.000136429
0.0001345
0.000132452
0.000130312
0.000128103
0.000125841
0.000123544
0.000121214
0.00011887
0.000116519
0.000114377
0.000543294
0.000510565
0.000491614
0.000467958
0.000443975
0.000421681
0.000400233
0.000379694
0.00036033
0.000342159
0.000325166
0.000309336
0.000294625
0.00028097
0.000268303
0.000256549
0.000245634
0.000235485
0.000226032
0.00021721
0.000208959
0.000201224
0.000193955
0.000187107
0.00018064
0.000174516
0.000168702
0.000163171
0.000157877
0.000152826
0.000147847
0.00014351
0.000139495
6.16454e-05
5.23126e-05
4.56607e-05
4.56669e-05
5.13769e-05
5.94011e-05
6.60785e-05
7.03158e-05
7.23999e-05
7.32032e-05
7.33976e-05
7.34374e-05
7.39415e-05
7.57267e-05
7.84142e-05
8.0233e-05
7.94435e-05
7.56905e-05
7.0033e-05
6.29682e-05
5.37237e-05
4.21101e-05
2.97152e-05
1.89936e-05
1.17342e-05
8.62573e-06
9.17725e-06
1.15513e-05
1.44715e-05
1.75928e-05
2.09932e-05
2.46041e-05
2.78452e-05
2.98848e-05
3.02627e-05
2.94135e-05
2.90607e-05
3.10043e-05
3.40001e-05
3.63345e-05
3.94295e-05
4.23345e-05
4.80652e-05
5.33266e-05
4.97642e-05
3.99838e-05
2.93803e-05
2.05677e-05
1.3668e-05
7.89581e-06
2.25605e-06
5.44655e-06
1.74103e-05
3.10663e-05
3.98488e-05
4.03019e-05
3.52373e-05
2.93165e-05
2.46536e-05
2.11323e-05
1.82784e-05
1.58606e-05
1.3778e-05
1.19591e-05
1.03434e-05
8.88669e-06
7.56201e-06
6.35625e-06
5.26529e-06
4.28991e-06
3.43248e-06
2.69443e-06
2.07454e-06
1.56834e-06
1.1682e-06
8.64475e-07
6.46476e-07
5.03351e-07
4.23328e-07
3.91183e-07
3.88305e-07
3.97049e-07
4.04329e-07
4.02179e-07
3.87288e-07
3.60126e-07
3.23849e-07
2.82732e-07
2.40954e-07
2.01587e-07
1.67336e-07
1.40738e-07
1.27699e-07
1.31577e-07
1.56689e-07
1.94249e-07
2.48018e-07
3.04327e-07
3.74919e-07
4.37809e-07
9.86909e-05
8.74963e-05
7.33748e-05
6.38405e-05
5.90146e-05
5.83836e-05
6.03852e-05
6.33104e-05
6.59007e-05
6.7679e-05
6.88071e-05
7.00584e-05
7.23168e-05
7.49698e-05
7.58436e-05
7.34842e-05
6.82407e-05
6.13685e-05
5.4207e-05
4.799e-05
4.30565e-05
3.82615e-05
3.22545e-05
2.4681e-05
1.64633e-05
8.99857e-06
4.62846e-06
7.18836e-06
1.21201e-05
1.71436e-05
2.18749e-05
2.59491e-05
2.88717e-05
3.01478e-05
2.96208e-05
2.80499e-05
2.74327e-05
2.91329e-05
3.16722e-05
3.33621e-05
3.58383e-05
3.92406e-05
4.43193e-05
5.14761e-05
5.17007e-05
4.40083e-05
3.34558e-05
2.36675e-05
1.56422e-05
9.33878e-06
6.30332e-06
1.24296e-05
2.47851e-05
3.67306e-05
4.20608e-05
3.97561e-05
3.38753e-05
2.83157e-05
2.4122e-05
2.08804e-05
1.81948e-05
1.58951e-05
1.38938e-05
1.21223e-05
1.05264e-05
9.07051e-06
7.73502e-06
6.51206e-06
5.40086e-06
4.40432e-06
3.52625e-06
2.76911e-06
2.13246e-06
1.61223e-06
1.20093e-06
8.88612e-07
6.6427e-07
5.16935e-07
4.34854e-07
4.02457e-07
4.00256e-07
4.098e-07
4.17583e-07
4.15466e-07
3.99982e-07
3.7145e-07
3.32924e-07
2.88784e-07
2.43609e-07
2.01271e-07
1.65643e-07
1.40726e-07
1.3305e-07
1.4446e-07
1.75261e-07
2.17748e-07
2.72317e-07
3.31308e-07
3.96324e-07
4.5982e-07
9.65663e-05
9.72321e-05
9.35615e-05
8.77001e-05
8.11747e-05
7.5841e-05
7.25478e-05
7.11998e-05
7.11945e-05
7.18774e-05
7.29044e-05
7.42113e-05
7.47975e-05
7.25403e-05
6.63423e-05
5.75911e-05
4.83747e-05
3.97961e-05
3.22218e-05
2.60658e-05
2.19188e-05
1.93145e-05
1.71286e-05
1.47675e-05
1.21652e-05
9.80496e-06
9.07696e-06
1.09191e-05
1.43737e-05
1.82637e-05
2.19065e-05
2.4847e-05
2.66863e-05
2.71059e-05
2.61559e-05
2.48047e-05
2.48416e-05
2.6741e-05
2.89576e-05
3.03221e-05
3.21484e-05
3.56741e-05
4.0402e-05
4.81601e-05
5.22305e-05
4.80521e-05
3.896e-05
2.9204e-05
2.09797e-05
1.55085e-05
1.49721e-05
2.18298e-05
3.29879e-05
4.15626e-05
4.29248e-05
3.83506e-05
3.2239e-05
2.72612e-05
2.35654e-05
2.06177e-05
1.81163e-05
1.59422e-05
1.40226e-05
1.22969e-05
1.072e-05
9.26503e-06
7.91918e-06
6.67923e-06
5.54758e-06
4.52932e-06
3.62982e-06
2.85259e-06
2.19783e-06
1.66176e-06
1.23683e-06
9.12898e-07
6.7888e-07
5.24024e-07
4.3713e-07
4.02882e-07
4.00979e-07
4.11691e-07
4.20593e-07
4.19118e-07
4.03621e-07
3.74412e-07
3.34656e-07
2.89038e-07
2.42626e-07
2.00018e-07
1.65984e-07
1.45378e-07
1.44033e-07
1.61646e-07
1.95762e-07
2.40521e-07
2.93884e-07
3.53864e-07
4.1307e-07
4.79707e-07
7.50421e-05
7.83465e-05
8.07832e-05
8.24575e-05
8.28048e-05
8.19767e-05
8.06156e-05
7.92946e-05
7.82112e-05
7.71914e-05
7.57005e-05
7.25756e-05
6.60602e-05
5.54745e-05
4.284e-05
3.157e-05
2.3214e-05
1.67222e-05
1.12601e-05
7.90445e-06
8.42667e-06
1.06039e-05
1.14466e-05
1.01615e-05
7.40495e-06
5.10767e-06
6.14702e-06
9.44908e-06
1.30544e-05
1.63469e-05
1.90667e-05
2.1025e-05
2.20498e-05
2.2067e-05
2.13741e-05
2.09827e-05
2.2003e-05
2.40657e-05
2.59815e-05
2.73079e-05
2.89445e-05
3.22575e-05
3.66748e-05
4.38239e-05
5.07636e-05
5.10368e-05
4.50437e-05
3.67212e-05
2.92843e-05
2.49386e-05
2.57128e-05
3.22668e-05
4.05394e-05
4.45077e-05
4.20767e-05
3.61736e-05
3.04932e-05
2.62533e-05
2.30316e-05
2.03577e-05
1.8039e-05
1.59938e-05
1.41586e-05
1.24806e-05
1.09245e-05
9.47187e-06
8.11645e-06
6.85954e-06
5.70678e-06
4.66567e-06
3.74331e-06
2.94448e-06
2.27022e-06
1.71721e-06
1.27811e-06
9.42716e-07
6.99828e-07
5.38824e-07
4.48761e-07
4.14008e-07
4.13058e-07
4.24977e-07
4.34746e-07
4.33631e-07
4.17964e-07
3.88049e-07
3.47081e-07
2.9991e-07
2.52025e-07
2.08804e-07
1.76048e-07
1.59292e-07
1.63003e-07
1.852e-07
2.21724e-07
2.68797e-07
3.21587e-07
3.83325e-07
4.36485e-07
5.04671e-07
3.64009e-05
4.01446e-05
4.37469e-05
4.75701e-05
5.12892e-05
5.4426e-05
5.66556e-05
5.77805e-05
5.76094e-05
5.58262e-05
5.17131e-05
4.42043e-05
3.33149e-05
2.11709e-05
1.23671e-05
1.02725e-05
9.53155e-06
6.48645e-06
1.85873e-06
3.34216e-06
8.21185e-06
1.26832e-05
1.6304e-05
1.85332e-05
1.91889e-05
1.8668e-05
1.77375e-05
1.71143e-05
1.70802e-05
1.74627e-05
1.79245e-05
1.81914e-05
1.81282e-05
1.77961e-05
1.75691e-05
1.80981e-05
1.96196e-05
2.14914e-05
2.3131e-05
2.45949e-05
2.63521e-05
2.93658e-05
3.34068e-05
3.91877e-05
4.69704e-05
5.13353e-05
4.96784e-05
4.43448e-05
3.87495e-05
3.56553e-05
3.68258e-05
4.15254e-05
4.54651e-05
4.46988e-05
3.96404e-05
3.36095e-05
2.88159e-05
2.53053e-05
2.24993e-05
2.00838e-05
1.7951e-05
1.60392e-05
1.42915e-05
1.26644e-05
1.11323e-05
9.68478e-06
8.32149e-06
7.04824e-06
5.87418e-06
4.80947e-06
3.86323e-06
3.04164e-06
2.34666e-06
1.77544e-06
1.32077e-06
9.7239e-07
7.19096e-07
5.5054e-07
4.56256e-07
4.20512e-07
4.2055e-07
4.33976e-07
4.44939e-07
4.44432e-07
4.28769e-07
3.98353e-07
3.56577e-07
3.08649e-07
2.60629e-07
2.18701e-07
1.89361e-07
1.77974e-07
1.86965e-07
2.13192e-07
2.51441e-07
2.99844e-07
3.51075e-07
4.13594e-07
4.60015e-07
5.30508e-07
3.44688e-06
5.82781e-06
8.04383e-06
1.02467e-05
1.24575e-05
1.4543e-05
1.62374e-05
1.71369e-05
1.67659e-05
1.45969e-05
1.01942e-05
3.76712e-06
4.18433e-06
1.06111e-05
1.40939e-05
1.38911e-05
1.08024e-05
6.3387e-06
1.93418e-06
3.02849e-06
6.67985e-06
1.01399e-05
1.3521e-05
1.66809e-05
1.92305e-05
2.08659e-05
2.15584e-05
2.14985e-05
2.09472e-05
2.01135e-05
1.91179e-05
1.80365e-05
1.6985e-05
1.61876e-05
1.59669e-05
1.65559e-05
1.77931e-05
1.92467e-05
2.07462e-05
2.24545e-05
2.44709e-05
2.71879e-05
3.06958e-05
3.50388e-05
4.16411e-05
4.82033e-05
5.08043e-05
4.9407e-05
4.64886e-05
4.47333e-05
4.53681e-05
4.69901e-05
4.63708e-05
4.21552e-05
3.62413e-05
3.10764e-05
2.7309e-05
2.44204e-05
2.19689e-05
1.97996e-05
1.78547e-05
1.60795e-05
1.44233e-05
1.28516e-05
1.13476e-05
9.90806e-06
8.53821e-06
7.24868e-06
6.05251e-06
4.96291e-06
3.99123e-06
3.14525e-06
2.42795e-06
1.83707e-06
1.36567e-06
1.00356e-06
7.39674e-07
5.64082e-07
4.66833e-07
4.31716e-07
4.34129e-07
4.49981e-07
4.62719e-07
4.63257e-07
4.48035e-07
4.17626e-07
3.75616e-07
3.27513e-07
2.79846e-07
2.39432e-07
2.1309e-07
2.0563e-07
2.17811e-07
2.46251e-07
2.85214e-07
3.34502e-07
3.84398e-07
4.47961e-07
4.87845e-07
5.60012e-07
6.82216e-06
7.42838e-06
8.34675e-06
9.27298e-06
9.99191e-06
1.04277e-05
1.06583e-05
1.08975e-05
1.14344e-05
1.25415e-05
1.41661e-05
1.58756e-05
1.69545e-05
1.66975e-05
1.48179e-05
1.16527e-05
7.91078e-06
4.20403e-06
8.32622e-07
2.34887e-06
5.14853e-06
7.7423e-06
1.02242e-05
1.26897e-05
1.50799e-05
1.71735e-05
1.87341e-05
1.96319e-05
1.98637e-05
1.95141e-05
1.87164e-05
1.76406e-05
1.65116e-05
1.5615e-05
1.52323e-05
1.54953e-05
1.63093e-05
1.75138e-05
1.90566e-05
2.09615e-05
2.31395e-05
2.55992e-05
2.85103e-05
3.17431e-05
3.62742e-05
4.24435e-05
4.74976e-05
4.9586e-05
4.9453e-05
4.88849e-05
4.84563e-05
4.70317e-05
4.32917e-05
3.78846e-05
3.27434e-05
2.88775e-05
2.59892e-05
2.35746e-05
2.14286e-05
1.95006e-05
1.7747e-05
1.61132e-05
1.45542e-05
1.30437e-05
1.15724e-05
1.01435e-05
8.76817e-06
7.46214e-06
6.24283e-06
5.12684e-06
4.12803e-06
3.25592e-06
2.51462e-06
1.90249e-06
1.41287e-06
1.03565e-06
7.5991e-07
5.76256e-07
4.75447e-07
4.40891e-07
4.45957e-07
4.64638e-07
4.7957e-07
4.81547e-07
4.67146e-07
4.37151e-07
3.95418e-07
3.4784e-07
3.01444e-07
2.63536e-07
2.40867e-07
2.37386e-07
2.52517e-07
2.82925e-07
3.22475e-07
3.72224e-07
4.20357e-07
4.84214e-07
5.17068e-07
5.90891e-07
4.38955e-06
5.31779e-06
6.59707e-06
8.04371e-06
9.49974e-06
1.08417e-05
1.19884e-05
1.2906e-05
1.36003e-05
1.4074e-05
1.43079e-05
1.41981e-05
1.35789e-05
1.23403e-05
1.0529e-05
8.31663e-06
5.87073e-06
3.3032e-06
6.99925e-07
1.88982e-06
4.36369e-06
6.68348e-06
8.79568e-06
1.07028e-05
1.24491e-05
1.40418e-05
1.5407e-05
1.6429e-05
1.70175e-05
1.71441e-05
1.68468e-05
1.62295e-05
1.54668e-05
1.47915e-05
1.44434e-05
1.4585e-05
1.52601e-05
1.64359e-05
1.80262e-05
1.99234e-05
2.20278e-05
2.42453e-05
2.66531e-05
2.91605e-05
3.20028e-05
3.61716e-05
4.10481e-05
4.47191e-05
4.64251e-05
4.66125e-05
4.53701e-05
4.23756e-05
3.79617e-05
3.34305e-05
2.98108e-05
2.70787e-05
2.47936e-05
2.27345e-05
2.08714e-05
1.91862e-05
1.76282e-05
1.61418e-05
1.4687e-05
1.3244e-05
1.18099e-05
1.0394e-05
9.01382e-06
7.69069e-06
6.44684e-06
5.30263e-06
4.27468e-06
3.3744e-06
2.60713e-06
1.97192e-06
1.46245e-06
1.06878e-06
7.80314e-07
5.88449e-07
4.84904e-07
4.52437e-07
4.61663e-07
4.84287e-07
5.02185e-07
5.06193e-07
4.93153e-07
4.64134e-07
4.23277e-07
3.76788e-07
3.32028e-07
2.96504e-07
2.76632e-07
2.75635e-07
2.92186e-07
3.23304e-07
3.62646e-07
4.12318e-07
4.58665e-07
5.2281e-07
5.48908e-07
6.24329e-07
2.73206e-06
3.49177e-06
4.43541e-06
5.4605e-06
6.50446e-06
7.51438e-06
8.43567e-06
9.22077e-06
9.83324e-06
1.02374e-05
1.04303e-05
1.03969e-05
1.00926e-05
9.44503e-06
8.38192e-06
6.88198e-06
5.00975e-06
2.90254e-06
8.34082e-07
1.76447e-06
3.88247e-06
5.92817e-06
7.83253e-06
9.54724e-06
1.1042e-05
1.23158e-05
1.33763e-05
1.42097e-05
1.47803e-05
1.50564e-05
1.50369e-05
1.47699e-05
1.43615e-05
1.3973e-05
1.37974e-05
1.40063e-05
1.46891e-05
1.58258e-05
1.73023e-05
1.89898e-05
2.08358e-05
2.27954e-05
2.48491e-05
2.6945e-05
2.89305e-05
3.12833e-05
3.44162e-05
3.75308e-05
3.95316e-05
3.9961e-05
3.86947e-05
3.60193e-05
3.28057e-05
2.99258e-05
2.75877e-05
2.55459e-05
2.36383e-05
2.18791e-05
2.02959e-05
1.88568e-05
1.74996e-05
1.61679e-05
1.4825e-05
1.34559e-05
1.2063e-05
1.06622e-05
9.2775e-06
7.93637e-06
6.66627e-06
5.49169e-06
4.43228e-06
3.50151e-06
2.70604e-06
2.04568e-06
1.51447e-06
1.10268e-06
8.00127e-07
5.99192e-07
4.92855e-07
4.63154e-07
4.77402e-07
5.04712e-07
5.26191e-07
5.3276e-07
5.21571e-07
4.94014e-07
4.54548e-07
4.09695e-07
3.67084e-07
3.34269e-07
3.17213e-07
3.18522e-07
3.36394e-07
3.682e-07
4.07388e-07
4.56829e-07
5.01185e-07
5.65095e-07
5.83959e-07
6.60505e-07
2.41658e-06
3.05344e-06
3.79049e-06
4.55618e-06
5.30998e-06
6.02588e-06
6.68316e-06
7.26498e-06
7.75932e-06
8.16139e-06
8.45637e-06
8.59286e-06
8.48103e-06
8.02211e-06
7.16019e-06
5.91208e-06
4.36119e-06
2.6473e-06
1.16656e-06
1.77503e-06
3.49876e-06
5.26834e-06
6.95541e-06
8.51153e-06
9.89608e-06
1.10746e-05
1.20293e-05
1.27599e-05
1.32724e-05
1.35723e-05
1.36716e-05
1.36032e-05
1.34358e-05
1.32798e-05
1.32791e-05
1.35728e-05
1.42339e-05
1.5238e-05
1.64895e-05
1.78989e-05
1.94482e-05
2.11494e-05
2.29564e-05
2.48225e-05
2.65369e-05
2.80719e-05
2.97427e-05
3.15221e-05
3.28381e-05
3.32005e-05
3.24655e-05
3.09533e-05
2.91983e-05
2.74858e-05
2.5797e-05
2.40998e-05
2.24739e-05
2.10062e-05
1.97048e-05
1.85144e-05
1.73639e-05
1.61949e-05
1.49719e-05
1.36827e-05
1.23351e-05
1.09513e-05
9.56208e-06
8.20171e-06
6.90328e-06
5.69578e-06
4.60217e-06
3.63821e-06
2.81196e-06
2.12405e-06
1.5689e-06
1.13711e-06
8.19037e-07
6.08423e-07
5.00011e-07
4.74857e-07
4.95913e-07
5.29214e-07
5.55158e-07
5.64917e-07
5.56068e-07
5.30398e-07
4.92685e-07
4.49704e-07
4.09203e-07
3.78624e-07
3.63479e-07
3.65994e-07
3.84198e-07
4.1585e-07
4.54305e-07
5.03056e-07
5.45366e-07
6.08984e-07
6.20928e-07
6.98909e-07
2.31125e-06
2.86268e-06
3.48473e-06
4.1273e-06
4.75662e-06
5.35087e-06
5.89524e-06
6.38072e-06
6.80248e-06
7.14795e-06
7.37904e-06
7.44853e-06
7.30286e-06
6.88943e-06
6.17287e-06
5.15698e-06
3.90209e-06
2.54968e-06
1.5278e-06
1.9253e-06
3.27169e-06
4.77306e-06
6.24451e-06
7.62408e-06
8.8754e-06
9.96834e-06
1.08772e-05
1.15861e-05
1.20938e-05
1.24136e-05
1.25709e-05
1.26044e-05
1.25715e-05
1.25553e-05
1.26602e-05
1.29845e-05
1.35782e-05
1.4423e-05
1.54572e-05
1.66312e-05
1.79432e-05
1.94204e-05
2.10313e-05
2.27249e-05
2.43602e-05
2.57537e-05
2.69073e-05
2.79045e-05
2.86259e-05
2.89002e-05
2.86207e-05
2.78894e-05
2.68462e-05
2.55642e-05
2.41198e-05
2.2651e-05
2.12978e-05
2.01226e-05
1.91011e-05
1.81614e-05
1.72243e-05
1.62268e-05
1.51317e-05
1.39286e-05
1.263e-05
1.12647e-05
9.87084e-06
8.48963e-06
7.16033e-06
5.91688e-06
4.78587e-06
3.78555e-06
2.92551e-06
2.20729e-06
1.62571e-06
1.17173e-06
8.36365e-07
6.15119e-07
5.05114e-07
4.86145e-07
5.15628e-07
5.56105e-07
5.87389e-07
6.01038e-07
5.95139e-07
5.71912e-07
5.36464e-07
4.95793e-07
4.57698e-07
4.29447e-07
4.16148e-07
4.19771e-07
4.38297e-07
4.69816e-07
5.07582e-07
5.55529e-07
5.95603e-07
6.58454e-07
6.6294e-07
7.41537e-07
2.21128e-06
2.68551e-06
3.21128e-06
3.75402e-06
4.2874e-06
4.79276e-06
5.2558e-06
5.66524e-06
6.01191e-06
6.28361e-06
6.45922e-06
6.50587e-06
6.37806e-06
6.02833e-06
5.42871e-06
4.59114e-06
3.57987e-06
2.54051e-06
1.84517e-06
2.11656e-06
3.14365e-06
4.39623e-06
5.67123e-06
6.89062e-06
8.01249e-06
9.0081e-06
9.85551e-06
1.0539e-05
1.10518e-05
1.13993e-05
1.16019e-05
1.16958e-05
1.17337e-05
1.17845e-05
1.1928e-05
1.22363e-05
1.2747e-05
1.34538e-05
1.43227e-05
1.53259e-05
1.64667e-05
1.7764e-05
1.91988e-05
2.07243e-05
2.22522e-05
2.36436e-05