/*--------------------------------*- C++ -*----------------------------------*\
  =========                 |
  \\      /  F ield         | OpenFOAM: The Open Source CFD Toolbox
   \\    /   O peration     | Website:  https://openfoam.org
    \\  /    A nd           | Version:  10
     \\/     M anipulation  |
\*---------------------------------------------------------------------------*/
FoamFile
{
    format      ascii;
    class       volScalarField;
    location    "0.1";
    object      p;
}
// * * * * * * * * * * * * * * * * * * * * * * * * * * * * * * * * * * * * * //

dimensions      [0 2 -2 0 0 0 0];

internalField   nonuniform List<scalar> 
6820
(
7.32357
-7.00511
-8.99738
-9.16989
-9.3142
-9.23998
-9.19017
-9.18789
-9.2064
-9.23568
-9.26906
-9.30258
-9.33435
-9.36331
-9.38871
-9.40995
-9.42648
-9.43777
-9.44327
-9.44245
-9.43473
-9.41958
-9.39645
-9.36481
-9.32419
-9.27416
-9.21451
-9.14499
-9.06639
-8.97747
-8.88599
-8.7744
-8.70584
1.94517
-6.80317
-8.80331
-9.04916
-9.24534
-9.23458
-9.206
-9.21008
-9.22876
-9.25529
-9.28554
-9.31631
-9.34587
-9.37315
-9.39735
-9.41777
-9.43379
-9.44479
-9.45018
-9.44938
-9.44181
-9.42691
-9.4041
-9.37285
-9.33267
-9.28314
-9.22396
-9.15496
-9.07651
-8.98839
-8.89472
-8.78787
-8.7045
-0.135902
-5.59227
-8.01144
-8.59539
-8.96647
-9.09852
-9.13201
-9.16323
-9.19788
-9.23441
-9.27178
-9.30801
-9.34176
-9.37217
-9.39869
-9.42085
-9.43823
-9.45035
-9.45676
-9.45695
-9.45043
-9.43668
-9.4152
-9.38551
-9.34716
-9.29979
-9.24317
-9.17715
-9.1022
-9.0181
-8.9282
-8.82746
-8.73372
-1.70422
-5.4101
-7.71584
-8.35838
-8.73103
-8.92649
-9.0104
-9.07388
-9.13186
-9.18388
-9.23144
-9.27498
-9.31449
-9.34988
-9.38084
-9.40708
-9.42831
-9.44419
-9.45434
-9.45838
-9.45592
-9.44654
-9.42988
-9.40557
-9.37333
-9.33298
-9.2845
-9.22804
-9.16426
-9.0939
-9.01968
-8.9429
-8.87345
-2.99015
-5.45507
-7.40941
-8.08548
-8.48677
-8.74848
-8.88675
-8.98139
-9.05962
-9.12566
-9.18346
-9.23521
-9.28135
-9.3222
-9.3581
-9.38899
-9.41472
-9.4351
-9.44992
-9.45892
-9.46188
-9.45857
-9.4488
-9.43244
-9.40948
-9.38003
-9.34446
-9.3034
-9.25813
-9.2104
-9.16389
-9.12373
-9.10037
-3.94856
-5.57882
-7.22611
-7.93339
-8.34442
-8.62863
-8.79336
-8.905
-8.9959
-9.07221
-9.13803
-9.19634
-9.24833
-9.29452
-9.33525
-9.37073
-9.40102
-9.42611
-9.44596
-9.46049
-9.46962
-9.47334
-9.47168
-9.46478
-9.45294
-9.43664
-9.41671
-9.39437
-9.37161
-9.35114
-9.33783
-9.33801
-9.36547
-4.69502
-5.79172
-7.13938
-7.81725
-8.21498
-8.50822
-8.69746
-8.82902
-8.9346
-9.02225
-9.09669
-9.16177
-9.21938
-9.27044
-9.31563
-9.35541
-9.39001
-9.41956
-9.44411
-9.46375
-9.47856
-9.48867
-9.49432
-9.49586
-9.49383
-9.48905
-9.48267
-9.47634
-9.47249
-9.47438
-9.48729
-9.51758
-9.57793
-5.28007
-6.02259
-7.1026
-7.73412
-8.12084
-8.41678
-8.62123
-8.76597
-8.88124
-8.97695
-9.05814
-9.12895
-9.19168
-9.24751
-9.29726
-9.3415
-9.38056
-9.41471
-9.44413
-9.46904
-9.48965
-9.50627
-9.51927
-9.5292
-9.53682
-9.54313
-9.54955
-9.55794
-9.57094
-9.59193
-9.62592
-9.67853
-9.75983
-5.74469
-6.25557
-7.11372
-7.68607
-8.05283
-8.34015
-8.55053
-8.70458
-8.82829
-8.9318
-9.01994
-9.0968
-9.1649
-9.22566
-9.28006
-9.3288
-9.37239
-9.41119
-9.44553
-9.47574
-9.50216
-9.52521
-9.54543
-9.56351
-9.58034
-9.59709
-9.61531
-9.63699
-9.66474
-9.70181
-9.75268
-9.822
-9.91741
-6.11872
-6.47658
-7.15352
-7.66029
-8.00347
-8.27918
-8.4915
-8.65224
-8.78242
-8.89202
-8.9858
-9.06776
-9.14058
-9.20583
-9.26462
-9.31775
-9.36581
-9.40927
-9.44855
-9.48407
-9.5163
-9.54575
-9.57308
-9.59909
-9.62477
-9.6514
-9.68057
-9.71425
-9.75494
-9.80557
-9.86996
-9.95178
-10.0566
-6.42341
-6.67931
-7.21241
-7.65457
-7.97203
-8.23293
-8.44202
-8.60552
-8.73979
-8.85403
-8.95272
-9.03949
-9.11695
-9.18674
-9.25
-9.3076
-9.36021
-9.40838
-9.45264
-9.49349
-9.53148
-9.56722
-9.60144
-9.63504
-9.66906
-9.7048
-9.74385
-9.78809
-9.83978
-9.90151
-9.97639
-10.0672
-10.1781
-6.67429
-6.86143
-7.28188
-7.66319
-7.9535
-8.19801
-8.4011
-8.56519
-8.70225
-8.8202
-8.92308
-9.01413
-9.09584
-9.16986
-9.23736
-9.29926
-9.3563
-9.40911
-9.45825
-9.50432
-9.54792
-9.58975
-9.63058
-9.67134
-9.71312
-9.7572
-9.80508
-9.8585
-9.91947
-9.99017
-10.0731
-10.1703
-10.2848
-6.88268
-7.02267
-7.35583
-7.68236
-7.94574
-8.17341
-8.36849
-8.53096
-8.6691
-8.78948
-8.89563
-8.99037
-9.07597
-9.15402
-9.22566
-9.29183
-9.35328
-9.41069
-9.46469
-9.5159
-9.56499
-9.61269
-9.65982
-9.70731
-9.75624
-9.80783
-9.86349
-9.92478
-9.99342
-10.0712
-10.1601
-10.2616
-10.3778
-7.05687
-7.16399
-7.4299
-7.70853
-7.94594
-8.15683
-8.34271
-8.50204
-8.64017
-8.76218
-8.87103
-8.96907
-9.05829
-9.14016
-9.21578
-9.28608
-9.35183
-9.41372
-9.47243
-9.5286
-9.58294
-9.63621
-9.68922
-9.74291
-9.79832
-9.85658
-9.91898
-9.98688
-10.0617
-10.145
-10.2382
-10.3423
-10.4589
-7.20303
-7.28679
-7.50108
-7.73876
-7.95197
-8.14675
-8.32299
-8.47816
-8.6153
-8.73814
-8.84902
-8.94984
-9.0423
-9.12772
-9.20714
-9.28142
-9.35134
-9.41759
-9.48086
-9.54183
-9.60119
-9.65971
-9.71822
-9.77759
-9.83882
-9.90295
-9.97112
-10.0445
-10.1243
-10.2117
-10.3078
-10.4133
-10.5293
-7.32575
-7.39261
-7.56731
-7.77064
-7.96184
-8.14151
-8.30811
-8.45849
-8.59398
-8.71709
-8.82954
-8.9328
-9.02826
-9.11704
-9.20009
-9.27822
-9.35217
-9.42263
-9.49028
-9.55579
-9.61988
-9.68329
-9.74681
-9.8113
-9.87765
-9.94683
-10.0198
-10.0976
-10.1812
-10.2715
-10.3694
-10.4753
-10.5899
-7.42846
-7.48291
-7.62726
-7.80217
-7.97383
-8.13968
-8.29706
-8.44243
-8.57587
-8.69884
-8.81248
-8.91786
-9.01603
-9.10796
-9.19445
-9.27625
-9.35406
-9.42855
-9.50037
-9.57019
-9.63871
-9.70663
-9.77473
-9.84378
-9.91462
-9.9881
-10.0651
-10.1464
-10.2328
-10.3251
-10.4238
-10.5292
-10.6419
-7.51374
-7.55895
-7.68002
-7.83175
-7.98643
-8.13991
-8.28876
-8.4292
-8.56042
-8.68301
-8.79759
-8.90484
-9.00554
-9.10043
-9.19021
-9.27553
-9.35703
-9.43535
-9.5111
-9.58494
-9.65753
-9.72956
-9.80172
-9.87477
-9.94943
-10.0265
-10.1066
-10.1905
-10.2789
-10.3723
-10.471
-10.5754
-10.6857
-7.5835
-7.62177
-7.72502
-7.85807
-7.99832
-8.141
-8.28222
-8.41808
-8.54714
-8.66929
-8.78471
-8.89371
-8.9968
-9.09452
-9.18745
-9.27615
-9.36118
-9.44313
-9.5226
-9.60019
-9.67654
-9.75228
-9.82807
-9.90458
-9.98249
-10.0624
-10.145
-10.2309
-10.3205
-10.4142
-10.5125
-10.6153
-10.7228
-7.63912
-7.67218
-7.76183
-7.88004
-8.00831
-8.14183
-8.27647
-8.4083
-8.53543
-8.65723
-8.77345
-8.88413
-8.9895
-9.08993
-9.18586
-9.27776
-9.36611
-9.45147
-9.53436
-9.61538
-9.69509
-9.7741
-9.85301
-9.93243
-10.013
-10.0952
-10.1795
-10.2666
-10.3567
-10.4503
-10.5474
-10.6482
-10.7527
-7.68155
-7.71071
-7.7901
-7.89675
-8.01537
-8.1414
-8.27064
-8.39917
-8.52482
-8.64653
-8.76372
-8.87616
-8.98385
-9.087
-9.1859
-9.28092
-9.3725
-9.4611
-9.54723
-9.63141
-9.71419
-9.79612
-9.87775
-9.95962
-10.0423
-10.1262
-10.2118
-10.2995
-10.3897
-10.4825
-10.5781
-10.6765
-10.7778
-7.7114
-7.73769
-7.80948
-7.90737
-8.01852
-8.13871
-8.2638
-8.38988
-8.51459
-8.63655
-8.7549
-8.86916
-8.97917
-9.08495
-9.18669
-9.28467
-9.37924
-9.47082
-9.55987
-9.64686
-9.7323
-9.81669
-9.90053
-9.98432
-10.0685
-10.1536
-10.2398
-10.3276
-10.4173
-10.5089
-10.6026
-10.6984
-10.7964
-7.72893
-7.75317
-7.81955
-7.91116
-8.0169
-8.13294
-8.25525
-8.37995
-8.5045
-8.62732
-8.74729
-8.86374
-8.97633
-9.08493
-9.18963
-9.29061
-9.38817
-9.48266
-9.57449
-9.6641
-9.75195
-9.8385
-9.92422
-10.0095
-10.0949
-10.1806
-10.2671
-10.3546
-10.4433
-10.5334
-10.6249
-10.7178
-10.8122
-7.73409
-7.75699
-7.81981
-7.90728
-8.00955
-8.1231
-8.24397
-8.3683
-8.49345
-8.61762
-8.73954
-8.85836
-8.97357
-9.08496
-9.1925
-9.2963
-9.3966
-9.49371
-9.58798
-9.67983
-9.76967
-9.85794
-9.94505
-10.0314
-10.1174
-10.2033
-10.2895
-10.3762
-10.4635
-10.5517
-10.6407
-10.7306
-10.8214
-7.72654
-7.7487
-7.80962
-7.89501
-7.99578
-8.10866
-8.22973
-8.35513
-8.4821
-8.60867
-8.73339
-8.85526
-8.97367
-9.08827
-9.19896
-9.30579
-9.40894
-9.50868
-9.60534
-9.69929
-9.79093
-9.88066
-9.96887
-10.0559
-10.1422
-10.228
-10.3135
-10.3991
-10.4848
-10.5708
-10.6571
-10.7437
-10.8306
-7.70558
-7.72757
-7.78809
-7.87325
-7.9743
-8.0881
-8.21074
-8.33827
-8.46783
-8.59735
-8.72524
-8.85038
-8.97206
-9.08985
-9.20359
-9.31328
-9.41905
-9.52114
-9.61986
-9.71555
-9.8086
-9.89937
-9.98825
-10.0756
-10.1617
-10.2469
-10.3313
-10.4154
-10.4991
-10.5826
-10.6659
-10.7492
-10.8323
-7.67018
-7.69261
-7.75434
-7.84139
-7.94501
-8.06205
-8.18851
-8.32027
-8.45432
-8.58842
-8.72085
-8.85038
-8.97622
-9.09789
-9.21517
-9.32803
-9.4366
-9.54111
-9.64186
-9.73918
-9.83344
-9.92502
-10.0143
-10.1016
-10.1872
-10.2714
-10.3546
-10.4368
-10.5182
-10.5989
-10.6791
-10.7587
-10.8377
-7.61882
-7.64219
-7.70655
-7.79721
-7.90499
-8.02665
-8.15804
-8.2949
-8.43409
-8.57325
-8.71058
-8.84476
-8.97492
-9.10054
-9.22137
-9.33736
-9.44862
-9.55536
-9.6579
-9.75656
-9.85172
-9.94375
-10.033
-10.1199
-10.2046
-10.2876
-10.369
-10.449
-10.5279
-10.6057
-10.6825
-10.7585
-10.8336
-7.54958
-7.57479
-7.64412
-7.74156
-7.85708
-7.98711
-8.12709
-8.27238
-8.41956
-8.56616
-8.71027
-8.85053
-8.98607
-9.11637
-9.24121
-9.36057
-9.47459
-9.58353
-9.6877
-9.78749
-9.88327
-9.97544
-10.0644
-10.1504
-10.234
-10.3153
-10.3946
-10.4721
-10.5481
-10.6226
-10.6958
-10.7676
-10.8383
-7.45949
-7.48685
-7.56231
-7.66766
-7.79163
-7.93053
-8.07957
-8.23379
-8.38958
-8.54429
-8.69589
-8.84294
-8.98449
-9.12003
-9.24932
-9.37237
-9.48934
-9.60055
-9.70633
-9.80711
-9.90332
-9.99537
-10.0837
-10.1687
-10.2506
-10.33
-10.4069
-10.4817
-10.5545
-10.6256
-10.6951
-10.7631
-10.8298
-7.34559
-7.37751
-7.46448
-7.5847
-7.72445
-7.87913
-8.0432
-8.21111
-8.37905
-8.54438
-8.70514
-8.85997
-9.00806
-9.149
-9.28268
-9.40919
-9.52879
-9.64186
-9.74881
-9.85012
-9.94627
-10.0377
-10.1249
-10.2083
-10.2882
-10.365
-10.4391
-10.5106
-10.5798
-10.647
-10.7122
-10.7756
-10.8373
-7.20119
-7.23608
-7.33324
-7.46634
-7.61983
-7.78944
-7.96901
-8.1521
-8.33436
-8.51283
-8.6853
-8.8503
-9.00701
-9.15508
-9.2945
-9.42546
-9.54837
-9.66371
-9.77203
-9.8739
-9.9699
-10.0606
-10.1464
-10.228
-10.3056
-10.3797
-10.4507
-10.5189
-10.5845
-10.6478
-10.709
-10.7682
-10.8257
-7.02412
-7.07198
-7.19644
-7.36011
-7.54184
-7.73678
-7.93842
-8.14018
-8.33814
-8.52978
-8.71321
-8.88727
-9.05137
-9.20535
-9.34936
-9.48374
-9.609
-9.72573
-9.83458
-9.9362
-10.0312
-10.1203
-10.204
-10.2828
-10.3573
-10.4279
-10.4949
-10.5588
-10.6198
-10.6781
-10.7341
-10.7879
-10.8396
-6.79252
-6.83949
-6.97779
-7.16204
-7.36884
-7.59277
-7.82395
-8.05334
-8.27614
-8.48936
-8.69092
-8.87979
-9.05567
-9.21876
-9.36956
-9.50879
-9.63726
-9.75583
-9.8654
-9.9668
-10.0608
-10.1483
-10.2298
-10.306
-10.3774
-10.4446
-10.5079
-10.5678
-10.6245
-10.6785
-10.73
-10.7793
-10.8267
-6.52462
-6.61947
-6.82593
-7.06374
-7.30834
-7.56246
-7.81821
-8.0676
-8.3073
-8.53505
-8.74902
-8.94833
-9.1328
-9.30268
-9.45855
-9.60122
-9.73165
-9.85084
-9.95982
-10.0596
-10.1511
-10.2353
-10.3128
-10.3845
-10.451
-10.5128
-10.5705
-10.6244
-10.6749
-10.7223
-10.7671
-10.8094
-10.8498
-6.10984
-6.17871
-6.41597
-6.71117
-7.02341
-7.34576
-7.66157
-7.96098
-8.24127
-8.5008
-8.73887
-8.956
-9.15333
-9.33217
-9.49401
-9.64037
-9.77273
-9.89251
-10.001
-10.0995
-10.1891
-10.2708
-10.3454
-10.4139
-10.4768
-10.5347
-10.5882
-10.6376
-10.6833
-10.7258
-10.7653
-10.8024
-10.8377
-5.75336
-6.0068
-6.36537
-6.68766
-7.01193
-7.35272
-7.68667
-8.00497
-8.30587
-8.58581
-8.84248
-9.07555
-9.28562
-9.47383
-9.64175
-9.79121
-9.92405
-10.0421
-10.1471
-10.2407
-10.3242
-10.3991
-10.4663
-10.5269
-10.5816
-10.6312
-10.6762
-10.7169
-10.7538
-10.7871
-10.8168
-10.8436
-10.8676
-4.70556
-4.97258
-5.58545
-6.13463
-6.64033
-7.12149
-7.55361
-7.93909
-8.28541
-8.59531
-8.87177
-9.11817
-9.33741
-9.53209
-9.70462
-9.85723
-9.992
-10.1109
-10.2157
-10.3081
-10.3897
-10.4618
-10.5257
-10.5823
-10.6326
-10.6774
-10.717
-10.752
-10.7823
-10.8081
-10.8287
-10.8452
-10.8538
-4.76067
-5.32172
-5.76639
-6.13496
-6.61599
-7.11694
-7.58767
-8.03088
-8.43809
-8.80098
-9.11938
-9.39588
-9.63372
-9.83681
-10.0093
-10.1554
-10.2789
-10.383
-10.471
-10.5455
-10.6086
-10.6624
-10.7084
-10.748
-10.7823
-10.8122
-10.8382
-10.8607
-10.8795
-10.8939
-10.9015
-10.9004
-10.8791
0.174381
-3.51791
-4.84574
-5.51913
-6.32192
-7.00383
-7.55323
-8.03616
-8.46006
-8.82626
-9.14243
-9.41455
-9.64743
-9.84591
-10.0145
-10.1573
-10.2781
-10.3802
-10.4665
-10.5395
-10.6014
-10.6541
-10.6993
-10.7381
-10.7718
-10.8013
-10.8274
-10.8505
-10.8716
-10.8901
-10.9082
-10.9217
-10.9398
-8.44907
-8.77575
-9.67877
-10.5903
-11.477
-12.2681
-12.9564
-13.5632
-14.143
-14.7515
-15.4138
-16.0807
-16.6084
-16.7579
-16.3181
-15.3936
-14.5345
-14.3799
-15.2647
-17.1324
-19.6928
-22.6106
-25.5137
-28.0924
-30.0272
-31.0977
-31.1568
-30.1551
-28.1426
-25.2731
-21.7911
-17.9982
-14.2071
-10.6862
-7.59179
-4.92016
-2.53886
-0.358866
1.47329
2.66351
2.95148
2.20628
0.160012
-3.5922
-9.12237
-15.87
-22.8489
-29.0954
-33.8771
-36.6822
-37.2515
-35.4966
-31.6634
-26.3621
-20.539
-15.1491
-10.7207
-7.31351
-4.76995
-2.90522
-1.56205
-0.613018
0.042742
0.483076
0.767099
0.939314
1.03301
1.07293
1.07725
1.05909
1.02765
0.989155
0.947536
0.905129
0.863122
0.822014
0.781907
0.742707
0.704266
0.666432
0.629077
0.592094
0.555388
0.518898
0.482598
0.446537
0.410824
0.375658
0.341223
0.307787
0.275342
0.244199
0.213669
0.184817
0.154792
0.128804
0.0952625
0.0777323
0.0268431
0.0452603
-8.50038
-8.68238
-9.51008
-10.4398
-11.3486
-12.1806
-12.9213
-13.5826
-14.2073
-14.8449
-15.5224
-16.2004
-16.7406
-16.9068
-16.5015
-15.6465
-14.871
-14.7504
-15.5559
-17.2338
-19.5381
-22.1577
-24.7714
-27.0508
-28.7611
-29.6836
-29.684
-28.7197
-26.8388
-24.1802
-20.9621
-17.4533
-13.9329
-10.6392
-7.7101
-5.14621
-2.84946
-0.771789
0.940723
2.03623
2.29288
1.58154
-0.293134
-3.64649
-8.5862
-14.6906
-21.117
-26.955
-31.4683
-34.1322
-34.6892
-33.0671
-29.5401
-24.7206
-19.4717
-14.5982
-10.5323
-7.33804
-4.90574
-3.09236
-1.76623
-0.814894
-0.146451
0.311582
0.615221
0.807232
0.919956
0.977615
0.998106
0.994398
0.975639
0.948051
0.915643
0.880861
0.845046
0.808862
0.772583
0.736294
0.700014
0.663745
0.627494
0.591269
0.555079
0.518942
0.482897
0.447034
0.411487
0.376462
0.342136
0.308768
0.276339
0.245172
0.214557
0.185629
0.155441
0.129427
0.0956027
0.078264
0.0267673
0.0458431
-8.6221
-8.88205
-9.60678
-10.4381
-11.2988
-12.1368
-12.9072
-13.6048
-14.2614
-14.9175
-15.5959
-16.2617
-16.7785
-16.9194
-16.5336
-15.7855
-15.1613
-15.138
-15.9111
-17.4073
-19.4139
-21.6824
-23.9519
-25.9479
-27.4431
-28.2359
-28.1985
-27.2887
-25.5496
-23.1059
-20.1525
-16.9274
-13.6761
-10.607
-7.84163
-5.38964
-3.18879
-1.22474
0.365442
1.36917
1.59922
0.932348
-0.786692
-3.78534
-8.17047
-13.6241
-19.449
-24.8206
-29.0226
-31.526
-32.0751
-30.6168
-27.4409
-23.1358
-18.4591
-14.0766
-10.3505
-7.3589
-5.03639
-3.27617
-1.96939
-1.01762
-0.337769
0.137232
0.460184
0.671993
0.803941
0.879647
0.916663
0.927772
0.922038
0.905671
0.882743
0.855804
0.826346
0.795208
0.762852
0.729548
0.695489
0.660831
0.625719
0.590282
0.554628
0.518858
0.483077
0.447419
0.412042
0.377164
0.342957
0.309674
0.27728
0.246108
0.215424
0.186424
0.156076
0.130018
0.0959202
0.0787252
0.0266993
0.0463043
-8.8375
-9.09113
-9.71966
-10.5032
-11.3314
-12.1475
-12.9133
-13.6202
-14.2875
-14.9434
-15.6035
-16.2173
-16.6523
-16.7391
-16.4038
-15.8302
-15.4144
-15.5072
-16.2393
-17.5498
-19.2762
-21.2162
-23.1493
-24.8483
-26.1136
-26.7701
-26.6981
-25.8523
-24.2656
-22.0452
-19.3603
-16.4184
-13.4325
-10.5839
-7.98219
-5.64933
-3.55551
-1.71092
-0.239068
0.681015
0.889814
0.272287
-1.30344
-3.9889
-7.86494
-12.6875
-17.8902
-22.7544
-26.6095
-28.9374
-29.4868
-28.2238
-25.4334
-21.6512
-17.5194
-13.5882
-10.1745
-7.37501
-5.16116
-3.45614
-2.17109
-1.22083
-0.530932
-0.0397688
0.302132
0.533696
0.685037
0.779081
0.832971
0.859258
0.866892
0.862063
0.848892
0.830036
0.807142
0.781222
0.752923
0.722702
0.690928
0.657924
0.623976
0.589339
0.554227
0.518828
0.48331
0.447855
0.412646
0.377909
0.343811
0.310602
0.278233
0.247044
0.216288
0.187215
0.15672
0.130617
0.0962775
0.0791894
0.0267108
0.0466839
-9.13227
-9.38876
-9.92752
-10.6168
-11.3633
-12.1226
-12.8577
-13.5496
-14.2034
-14.8322
-15.4308
-15.9487
-16.2982
-16.3708
-16.1477
-15.7898
-15.5839
-15.7768
-16.467
-17.6161
-19.1009
-20.7556
-22.3939
-23.824
-24.8726
-25.3913
-25.2762
-24.4846
-23.0409
-21.0336
-18.6058
-15.9346
-13.2025
-10.5669
-8.12834
-5.92097
-3.94136
-2.21641
-0.855527
-0.0103922
0.180278
-0.386593
-1.82704
-4.23864
-7.66302
-11.9022
-16.4953
-20.8341
-24.3165
-26.447
-27.015
-25.9668
-23.5708
-20.2894
-16.6559
-13.1315
-10.0043
-7.38718
-5.28072
-3.63247
-2.3713
-1.42444
-0.725855
-0.219364
0.141106
0.392379
0.563285
0.675967
0.747092
0.78893
0.810289
0.817316
0.814176
0.803626
0.787465
0.766886
0.74273
0.715653
0.686208
0.654886
0.622122
0.588298
0.553737
0.518712
0.48346
0.448208
0.413166
0.37857
0.344587
0.31146
0.279128
0.247939
0.217127
0.187989
0.157357
0.131197
0.0966311
0.0796028
0.0267459
0.0469546
-9.44991
-9.70059
-10.1577
-10.746
-11.3955
-12.0691
-12.7354
-13.3738
-13.9792
-14.5504
-15.0755
-15.5271
-15.8426
-15.962
-15.8852
-15.7271
-15.6881
-15.9503
-16.597
-17.6073
-18.8877
-20.3022
-21.6924
-22.8937
-23.7553
-24.1506
-23.9917
-23.2421
-21.9212
-20.1027
-17.9066
-15.4823
-12.9853
-10.5517
-8.27462
-6.1973
-4.33563
-2.72729
-1.46935
-0.691604
-0.516701
-1.03504
-2.34747
-4.51798
-7.55103
-11.2722
-15.2997
-19.1253
-22.2294
-24.17
-24.7479
-23.9133
-21.8897
-19.0606
-15.867
-12.7042
-9.83916
-7.39567
-5.39522
-3.80513
-2.56988
-1.62829
-0.922416
-0.401452
-0.0228133
0.24811
0.438753
0.570378
0.659106
0.716875
0.752317
0.77152
0.778682
0.776662
0.767414
0.752316
0.73241
0.70855
0.681481
0.651867
0.620299
0.587292
0.553281
0.518628
0.483639
0.448586
0.413708
0.37925
0.345377
0.312326
0.280026
0.248831
0.217961
0.188754
0.157992
0.13177
0.0970058
0.0799994
0.0268407
0.0471409
-9.69364
-9.93873
-10.3403
-10.8522
-11.4207
-12.0148
-12.6099
-13.1875
-13.7394
-14.2645
-14.7527
-15.1761
-15.4905
-15.6584
-15.6868
-15.6635
-15.7364
-16.0422
-16.6476
-17.54
-18.6459
-19.8537
-21.0301
-22.0353
-22.7389
-23.0318
-22.8382
-22.1263
-20.9123
-19.2588
-17.267
-15.0635
-12.7806
-10.5364
-8.41688
-6.47104
-4.72789
-3.23183
-2.07
-1.35447
-1.19392
-1.66727
-2.85927
-4.8131
-7.50747
-10.7802
-14.307
-17.6618
-20.4064
-22.1618
-22.7431
-22.097
-20.398
-17.958
-15.1449
-12.3029
-9.67918
-7.4013
-5.50526
-3.97437
-2.76691
-1.83239
-1.12059
-0.586003
-0.189595
0.100928
0.311492
0.462385
0.569102
0.643197
0.693093
0.724796
0.74253
0.749252
0.747076
0.73757
0.721983
0.70138
0.676708
0.64881
0.618438
0.586245
0.552778
0.518491
0.483759
0.448901
0.414182
0.379861
0.346099
0.313131
0.280873
0.249683
0.21877
0.189505
0.158626
0.132333
0.0973906
0.0803609
0.0269714
0.0472317
-9.89379
-10.1343
-10.4953
-10.948
-11.4529
-11.985
-12.524
-13.0537
-13.5648
-14.0516
-14.502
-14.894
-15.1994
-15.3989
-15.5045
-15.5817
-15.7372
-16.0718
-16.6377
-17.4268
-18.3814
-19.4101
-20.4012
-21.2366
-21.8045
-22.011
-21.7907
-21.1155
-19.9984
-18.4919
-16.682
-14.6761
-12.5878
-10.5203
-8.55285
-6.73748
-5.11167
-3.72374
-2.65261
-1.99566
-1.84843
-2.27998
-3.35918
-5.1148
-7.51153
-10.3976
-13.4927
-16.4355
-18.8572
-20.4379
-21.0082
-20.5111
-19.079
-16.9653
-14.4806
-11.9253
-9.52479
-7.40493
-5.61141
-4.14048
-2.96251
-2.03678
-1.32038
-0.773016
-0.359223
-0.0491331
0.181561
0.35207
0.477186
0.568021
0.63275
0.677281
0.705851
0.721523
0.726569
0.722761
0.711563
0.694259
0.672
0.645821
0.616638
0.585246
0.55231
0.518379
0.483894
0.449223
0.414658
0.380469
0.346816
0.313927
0.281709
0.250521
0.219564
0.190237
0.159249
0.132875
0.0977803
0.0806892
0.0271444
0.0472342
-10.0622
-10.2968
-10.6257
-11.0307
-11.4834
-11.9636
-12.454
-12.9401
-13.4117
-13.8612
-14.2793
-14.6502
-14.9547
-15.1814
-15.3428
-15.4893
-15.6996
-16.0481
-16.5745
-17.2727
-18.0966
-18.9709
-19.8024
-20.4912
-20.9423
-21.0753
-20.8341
-20.1939
-19.1648
-17.7908
-16.1445
-14.3174
-12.4073
-10.5049
-8.68323
-6.99573
-5.48494
-4.20102
-3.21577
-2.61409
-2.47917
-2.87111
-3.84469
-5.41729
-7.54726
-10.0952
-12.8176
-15.4052
-17.5443
-18.9624
-19.5061
-19.1195
-17.903
-16.0643
-13.8666
-11.5701
-9.37682
-7.40756
-5.71437
-4.3039
-3.15694
-2.24161
-1.5219
-0.962556
-0.531731
-0.20207
0.0490024
0.239517
0.383476
0.491491
0.571449
0.62914
0.66881
0.693624
0.706026
0.707996
0.701226
0.68723
0.667376
0.642895
0.614877
0.584263
0.551836
0.518242
0.48399
0.449497
0.415081
0.381021
0.347477
0.314672
0.282503
0.251329
0.220342
0.190961
0.159879
0.133419
0.0981932
0.0809972
0.0273649
0.0471547
-10.2071
-10.435
-10.738
-11.1038
-11.5123
-11.9474
-12.3947
-12.8417
-13.2783
-13.6967
-14.0877
-14.4394
-14.7395
-14.9833
-15.1839
-15.3793
-15.6267
-15.98
-16.4682
-17.0862
-17.7966
-18.5376
-19.2313
-19.794
-20.1449
-20.2158
-19.9586
-19.3515
-18.4025
-17.1481
-15.6499
-13.9855
-12.2394
-10.4916
-8.80956
-7.24641
-5.84747
-4.66317
-3.75887
-3.2087
-3.08459
-3.43837
-4.31282
-5.71614
-7.60389
-9.8505
-12.2447
-14.5214
-16.4105
-17.6779
-18.1853
-17.8817
-16.8437
-15.2422
-13.2989
-11.2372
-9.23623
-7.41022
-5.81494
-4.46518
-3.35058
-2.44716
-1.72533
-1.15476
-0.707199
-0.357905
-0.086147
0.124816
0.288108
0.413774
0.509376
0.580566
0.631592
0.665731
0.685604
0.693415
0.691097
0.680406
0.662934
0.64012
0.613231
0.583359
0.551412
0.518129
0.484092
0.449762
0.415485
0.381548
0.348112
0.315388
0.283268
0.252105
0.22109
0.191653
0.160482
0.133925
0.0985938
0.081256
0.0276105
0.0469816
-10.3311
-10.5516
-10.8328
-11.1661
-11.5369
-11.9328
-12.3418
-12.7529
-13.157
-13.5463
-13.9133
-14.2494
-14.5466
-14.8033
-15.0309
-15.2583
-15.5269
-15.8759
-16.3262
-16.8725
-17.4842
-18.1101
-18.6855
-19.1402
-19.4059
-19.4249
-19.156
-18.5806
-17.7046
-16.5587
-15.1948
-13.679
-12.0844
-10.4815
-8.93262
-7.48952
-6.19845
-5.10889
-4.28027
-3.77738
-3.66217
-3.97889
-4.76024
-6.0073
-7.67457
-9.64977
-11.7503
-13.7491
-15.4128
-16.5411
-17.0094
-16.7717
-15.8859
-14.4919
-12.7752
-10.9265
-9.10392
-7.41395
-5.91402
-4.62503
-3.54395
-2.65382
-1.93099
-1.34985
-0.885777
-0.516704
-0.223871
0.0080568
0.191232
0.335064
0.446751
0.531784
0.594419
0.638047
0.665483
0.67917
0.681297
0.673874
0.658734
0.637529
0.611713
0.582533
0.551023
0.51802
0.484174
0.449993
0.415846
0.382031
0.348702
0.316067
0.284004
0.252865
0.221836
0.192351
0.161108
0.134449
0.0990333
0.0815112
0.0279165
0.0467404
-10.438
-10.6509
-10.9134
-11.2192
-11.5578
-11.9195
-12.2945
-12.6736
-13.0484
-13.4119
-13.7577
-14.0789
-14.3706
-14.6334
-14.877
-15.1235
-15.4025
-15.7416
-16.1552
-16.6376
-17.1634
-17.6901
-18.1641
-18.5265
-18.7201
-18.6961
-18.4196
-17.8744
-17.0653
-16.018
-14.7761
-13.3963
-11.9416
-10.4745
-9.05193
-7.72386
-6.53596
-5.53587
-4.7775
-4.31756
-4.20916
-4.48987
-5.18391
-6.28718
-7.75436
-9.48521
-11.3221
-13.0709
-14.5308
-15.5319
-15.9609
-15.7761
-15.0207
-13.8084
-12.2934
-10.6379
-8.9807
-7.41982
-6.01262
-4.78428
-3.73774
-2.86216
-2.13933
-1.54818
-1.06769
-0.678583
-0.364176
-0.110667
0.0930178
0.255586
0.383826
0.483061
0.557548
0.61081
0.645875
0.665441
0.671977
0.667761
0.654877
0.635203
0.610385
0.581832
0.550706
0.517939
0.484253
0.450199
0.416169
0.382465
0.349241
0.316691
0.284687
0.25357
0.22253
0.192995
0.161686
0.134915
0.0994401
0.0816992
0.0282292
0.0463979
-10.5297
-10.7348
-10.9809
-11.2632
-11.574
-11.9057
-12.2505
-12.6004
-12.9482
-13.2877
-13.6136
-13.9208
-14.2061
-14.4709
-14.7231
-14.9789
-15.2594
-15.5838
-15.9614
-16.3864
-16.8371
-17.2783
-17.6655
-17.9495
-18.0825
-18.0234
-17.7427
-17.2268
-16.4794
-15.5218
-14.3911
-13.1357
-11.8101
-10.4697
-9.16654
-7.94786
-6.85788
-5.94174
-5.24827
-4.82708
-4.72352
-4.96934
-5.58175
-6.55303
-7.83915
-9.35078
-10.952
-12.4771
-13.7553
-14.638
-15.0276
-14.8846
-14.2406
-13.1869
-11.8514
-10.3713
-8.86734
-7.42895
-6.11185
-4.94394
-3.93283
-3.0729
-2.35095
-1.75022
-1.25328
-0.843721
-0.507095
-0.231266
-0.00634501
0.175595
0.320897
0.4347
0.521274
0.584292
0.627018
0.652433
0.663302
0.662194
0.651458
0.633207
0.609291
0.581281
0.550472
0.517892
0.484332
0.450384
0.41646
0.382867
0.349751
0.317296
0.285362
0.25428
0.223244
0.193668
0.16231
0.13542
0.0999067
0.0819042
0.0286182
0.0460017
-10.6085
-10.8058
-11.0372
-11.299
-11.5855
-11.8908
-12.2086
-12.5322
-12.8555
-13.1731
-13.4805
-13.7737
-14.0507
-14.313
-14.5669
-14.8243
-15.0998
-15.4065
-15.7497
-16.1231
-16.5083
-16.876
-17.1891
-17.4068
-17.4892
-17.4019
-17.1203
-16.6326
-15.9419
-15.0663
-14.037
-12.8954
-11.6889
-10.4666
-9.2756
-8.16024
-7.16254
-6.32477
-5.69098
-5.30457
-5.20413
-5.41625
-5.9526
-6.80295
-7.92546
-9.24077
-10.6317
-11.9569
-13.0707
-13.8463
-14.197
-14.0867
-13.5376
-12.6227
-11.4471
-10.1262
-8.76459
-7.44251
-6.21297
-5.10518
-4.13027
-3.28701
-2.56666
-1.95661
-1.44299
-1.01238
-0.652701
-0.353651
-0.106643
0.0953901
0.258308
0.387061
0.485947
0.558814
0.609194
0.640381
0.655466
0.657325
0.648591
0.631624
0.608484
0.580912
0.550334
0.517877
0.484396
0.450522
0.416684
0.38319
0.350178
0.317815
0.285952
0.254906
0.223877
0.194258
0.162858
0.135841
0.100315
0.0820206
0.0289936
0.0454943
-10.6758
-10.8653
-11.0835
-11.3273
-11.5924
-11.8742
-12.1678
-12.4674
-12.7681
-13.0652
-13.3548
-13.6339
-13.9012
-14.1579
-14.4088
-14.6622
-14.9281
-15.2148
-15.5248
-15.8517
-16.1796
-16.484
-16.7341
-16.896
-16.9366
-16.8272
-16.5472
-16.0869
-15.4487
-14.648
-13.7112
-12.6739
-11.5772
-10.4644
-9.37837
-8.36001
-7.44876
-6.68378
-6.10464
-5.74928
-5.65044
-5.83014
-6.29583
-7.03566
-8.01052
-9.15013
-10.3538
-11.5002
-12.4673
-13.145
-13.4579
-13.3728
-12.9047
-12.1113
-11.0784
-9.90251
-8.67318
-7.46168
-6.31732
-5.26939
-4.33139
-3.50569
-2.78752
-2.16819
-1.63743
-1.1849
-0.801111
-0.477738
-0.20764
0.0153103
0.196453
0.340552
0.451959
0.534735
0.592717
0.629552
0.648684
0.653323
0.646405
0.630551
0.608036
0.580778
0.550335
0.51793
0.484481
0.450654
0.416891
0.383495
0.350594
0.318336
0.286561
0.255566
0.224561
0.19491
0.163482
0.136331
0.100811
0.0821791
0.0294646
0.0449456
-10.7327
-10.9146
-11.1206
-11.3483
-11.5944
-11.8553
-12.127
-12.4049
-12.6847
-12.9626
-13.2352
-13.5001
-13.7562
-14.0045
-14.2484
-14.4935
-14.7463
-15.0118
-15.2902
-15.5753
-15.8532
-16.1033
-16.3
-16.4152
-16.4216
-16.2952
-16.0192
-15.5854
-14.9959
-14.2638
-13.4115
-12.4697
-11.4739
-10.4626
-9.4742
-8.5464
-7.71567
-7.01795
-6.48865
-6.16087
-6.06232
-6.21094
-6.61127
-7.25033
-8.09213
-9.0747
-10.1116
-11.1008
-11.9347
-12.5234
-12.8001
-12.7342
-12.3353
-11.6485
-10.7433
-9.69975
-8.59379
-7.48774
-6.42644
-5.43817
-4.5378
-3.73045
-3.01485
-2.38605
-1.83738
-1.36177
-0.952501
-0.603447
-0.30906
-0.0642405
0.135804
0.295663
0.41978
0.512477
0.577952
0.620247
0.643195
0.650369
0.645027
0.630065
0.607986
0.580884
0.550452
0.518007
0.484526
0.450704
0.416991
0.383681
0.350886
0.318731
0.287046
0.256103
0.225126
0.195441
0.163997
0.136705
0.101218
0.0822245
0.0299005
0.044278
-10.7807
-10.9551
-11.1499
-11.3631
-11.5921
-11.8342
-12.086
-12.344
-12.6044
-12.864
-13.12
-13.3705
-13.6143
-13.8522
-14.0862
-14.32
-14.5575
-14.8011
-15.0498
-15.2971
-15.5312
-15.7347
-15.8862
-15.9626
-15.9413
-15.8025
-15.5324
-15.1242
-14.58
-13.9107
-13.1357
-12.2811
-11.3781
-10.4603
-9.56249
-8.71878
-7.96265
-7.3268
-6.84276
-6.53934
-6.43996
-6.55908
-6.89902
-7.44649
-8.16858
-9.01096
-9.89949
-10.7471
-11.4638
-11.972
-12.2142
-12.1629
-11.8233
-11.2303
-10.4398
-9.51753
-8.52707
-7.52197
-6.54198
-5.61341
-4.75143
-3.96315
-3.25034
-2.61158
-2.04386
-1.5436
-1.10712
-0.730712
-0.410603
-0.142812
0.0768872
0.252939
0.389932
0.492516
0.565314
0.612814
0.639282
0.648687
0.644634
0.630308
0.608445
0.581324
0.55077
0.518191
0.484617
0.450766
0.41709
0.383869
0.351192
0.319159
0.287584
0.256713
0.225784
0.196076
0.164628
0.137185
0.101746
0.08234
0.0304507
0.0435837
-10.8203
-10.9872
-11.1715
-11.3715
-11.585
-11.81
-12.0438
-12.2834
-12.5257
-12.768
-13.008
-13.2438
-13.4745
-13.7002
-13.9223
-14.1426
-14.3633
-14.5851
-14.8057
-15.0192
-15.2151
-15.3786
-15.4922
-15.5366
-15.4931
-15.3459
-15.0832
-14.6998
-14.1976
-13.5859
-12.8815
-12.1067
-11.2886
-10.457
-9.64272
-8.87671
-8.18935
-7.61012
-7.16703
-6.88505
-6.78394
-6.87527
-7.15965
-7.624
-8.23858
-8.95595
-9.71259
-10.4347
-11.0467
-11.4822
-11.6921
-11.6516
-11.363
-10.8529
-10.1659
-9.35533
-8.4736
-7.56572
-6.66583
-5.79729
-4.97463
-4.20613
-3.4961
-2.84654
-2.25818
-1.73121
-1.26529
-0.859465
-0.511903
-0.219847
0.0203547
0.213045
0.363038
0.475408
0.555271
0.607627
0.637228
0.648477
0.645348
0.631334
0.609416
0.582054
0.551209
0.518374
0.484624
0.450693
0.417027
0.383881
0.35132
0.31941
0.287949
0.257153
0.226277
0.196548
0.165108
0.137513
0.102155
0.0823211
0.0309479
0.0427599
-10.8529
-11.0127
-11.1871
-11.3748
-11.5742
-11.7836
-12.0008
-12.2233
-12.4486
-12.6744
-12.8986
-13.1196
-13.3365
-13.549
-13.7576
-13.9631
-14.1663
-14.3665
-14.561
-14.7441
-14.9065
-15.0359
-15.1176
-15.1357
-15.075
-14.9224
-14.6684
-14.309
-13.8458
-13.2871
-12.647
-11.9451
-11.2047
-10.452
-9.71455
-9.01998
-8.39568
-7.86807
-7.46186
-7.19867
-7.09511
-7.16037
-7.39387
-7.78301
-8.3012
-8.9072
-9.54682
-10.1577
-10.6763
-11.0463
-11.2261
-11.1937
-10.9491
-10.5127
-9.91964
-9.21254
-8.43391
-7.6204
-6.80007
-5.99241
-5.21026
-4.46227
-3.75483
-3.09317
-2.48202
-1.92564
-1.42749
-0.989672
-0.612574
-0.294736
-0.0330804
0.176712
0.339803
0.461785
0.548368
0.605142
0.637407
0.65004
0.647415
0.633348
0.61107
0.58323
0.551916
0.5187
0.484698
0.450648
0.416979
0.383918
0.351491
0.319731
0.288412
0.257715
0.226915
0.197174
0.165754
0.13799
0.102718
0.0823973
0.0315794
0.0419229
-10.8783
-11.031
-11.196
-11.3724
-11.5588
-11.7537
-11.9556
-12.1622
-12.3715
-12.5815
-12.7904
-12.9967
-13.1994
-13.3979
-13.5921
-13.782
-13.9673
-14.1467
-14.317
-14.4728
-14.6061
-14.7064
-14.7615
-14.7584
-14.6845
-14.5292
-14.285
-13.9486
-13.5218
-13.0116
-12.4304
-11.7948
-11.1253
-10.4449
-9.77767
-9.14849
-8.58177
-8.10101
-7.7279
-7.48111
-7.37456
-7.41551
-7.60254
-7.92383
-8.35578
-8.86272
-9.39859
-9.91086
-10.3463
-10.6576
-10.8095
-10.7828
-10.5765
-10.206
-9.69874
-9.08836
-8.40841
-7.68749
-6.94707
-6.20183
-5.46183
-4.73519
-4.0299