/*--------------------------------*- C++ -*----------------------------------*\
  =========                 |
  \\      /  F ield         | OpenFOAM: The Open Source CFD Toolbox
   \\    /   O peration     | Website:  https://openfoam.org
    \\  /    A nd           | Version:  10
     \\/     M anipulation  |
\*---------------------------------------------------------------------------*/
FoamFile
{
    format      ascii;
    class       surfaceScalarField;
    location    "0.1";
    object      phi;
}
// * * * * * * * * * * * * * * * * * * * * * * * * * * * * * * * * * * * * * //

dimensions      [0 3 -1 0 0 0 0];

internalField   nonuniform List<scalar> 
13452
(
4.01887e-05
2.00797e-05
2.5924e-05
1.42648e-05
1.85112e-05
7.41279e-06
1.51281e-05
3.38306e-06
1.37015e-05
1.42666e-06
1.29797e-05
7.21777e-07
1.25106e-05
4.69116e-07
1.21421e-05
3.68468e-07
1.18244e-05
3.17724e-07
1.15451e-05
2.79291e-07
1.12996e-05
2.4547e-07
1.10836e-05
2.15997e-07
1.08924e-05
1.91225e-07
1.07212e-05
1.7118e-07
1.05657e-05
1.55508e-07
1.0422e-05
1.43735e-07
1.02865e-05
1.35428e-07
1.01563e-05
1.3026e-07
1.00283e-05
1.2802e-07
9.89964e-06
1.28618e-07
9.76758e-06
1.32067e-07
9.6291e-06
1.38481e-07
9.48103e-06
1.48065e-07
9.3199e-06
1.61127e-07
9.14186e-06
1.78045e-07
8.94248e-06
1.99379e-07
8.71698e-06
2.25496e-07
8.45905e-06
2.57935e-07
8.16424e-06
2.94809e-07
7.81827e-06
3.45969e-07
7.4336e-06
3.84673e-07
6.93205e-06
5.01548e-07
3.7282e-07
6.55923e-06
6.59001e-05
1.61699e-05
6.18857e-05
1.82792e-05
5.56119e-05
1.36866e-05
4.9728e-05
9.26696e-06
4.52154e-05
5.93925e-06
4.1985e-05
3.9522e-06
3.96598e-05
2.79428e-06
3.79406e-05
2.08768e-06
3.66215e-05
1.63682e-06
3.55711e-05
1.32976e-06
3.47083e-05
1.1082e-06
3.39822e-05
9.421e-07
3.3359e-05
8.14454e-07
3.28153e-05
7.14899e-07
3.23341e-05
6.36696e-07
3.19025e-05
5.75291e-07
3.15104e-05
5.27561e-07
3.11493e-05
4.91374e-07
3.0812e-05
4.65312e-07
3.04921e-05
4.48494e-07
3.01837e-05
4.40459e-07
2.98811e-05
4.41097e-07
2.95786e-05
4.50601e-07
2.92702e-05
4.6946e-07
2.89498e-05
4.98448e-07
2.86105e-05
5.38678e-07
2.82446e-05
5.91475e-07
2.78434e-05
6.59117e-07
2.73957e-05
7.42459e-07
2.68922e-05
8.4953e-07
2.63078e-05
9.69087e-07
2.56625e-05
1.1468e-06
1.30658e-06
2.47287e-05
6.91806e-05
1.07508e-05
7.25023e-05
1.49574e-05
7.30457e-05
1.31432e-05
7.16556e-05
1.06571e-05
6.939e-05
8.20482e-06
6.69869e-05
6.35524e-06
6.47306e-05
5.05061e-06
6.27123e-05
4.10597e-06
6.09428e-05
3.40632e-06
5.94e-05
2.87262e-06
5.80542e-05
2.45394e-06
5.68769e-05
2.1194e-06
5.58423e-05
1.84905e-06
5.49282e-05
1.62906e-06
5.41154e-05
1.44946e-06
5.33878e-05
1.30291e-06
5.27313e-05
1.184e-06
5.2134e-05
1.08873e-06
5.15851e-05
1.01416e-06
5.10754e-05
9.58267e-07
5.05961e-05
9.19717e-07
5.01394e-05
8.97799e-07
4.96977e-05
8.92354e-07
4.92634e-05
9.03743e-07
4.8829e-05
9.32842e-07
4.83866e-05
9.81086e-07
4.79276e-05
1.05045e-06
4.74428e-05
1.14389e-06
4.69209e-05
1.26438e-06
4.63513e-05
1.41915e-06
4.57115e-05
1.60885e-06
4.49984e-05
1.85996e-06
2.16518e-06
4.41398e-05
6.88448e-05
7.48909e-06
7.21574e-05
1.16448e-05
7.45282e-05
1.07724e-05
7.5931e-05
9.25433e-06
7.64971e-05
7.63871e-06
7.65428e-05
6.3095e-06
7.62761e-05
5.31734e-06
7.58228e-05
4.55928e-06
7.52639e-05
3.96523e-06
7.46484e-05
3.48807e-06
7.40072e-05
3.09515e-06
7.33605e-05
2.76614e-06
7.2722e-05
2.48748e-06
7.2101e-05
2.25012e-06
7.15024e-05
2.04806e-06
7.09286e-05
1.87669e-06
7.03802e-05
1.73243e-06
6.98563e-05
1.61261e-06
6.93552e-05
1.51528e-06
6.88743e-05
1.43914e-06
6.84106e-05
1.38341e-06
6.79605e-05
1.34787e-06
6.75201e-05
1.3328e-06
6.70848e-05
1.33899e-06
6.66499e-05
1.36779e-06
6.62098e-05
1.42118e-06
6.57585e-05
1.50179e-06
6.52891e-05
1.61325e-06
6.47936e-05
1.75987e-06
6.4264e-05
1.94871e-06
6.3687e-05
2.18589e-06
6.30586e-05
2.4884e-06
2.86802e-06
6.23557e-05
6.95575e-05
5.38838e-06
7.18309e-05
9.37142e-06
7.35282e-05
9.07502e-06
7.47936e-05
7.98899e-06
7.56797e-05
6.75259e-06
7.63233e-05
5.66592e-06
7.68096e-05
4.83099e-06
7.71799e-05
4.18904e-06
7.74616e-05
3.68351e-06
7.76729e-05
3.27674e-06
7.78265e-05
2.94163e-06
7.79319e-05
2.66069e-06
7.79962e-05
2.42322e-06
7.80247e-05
2.22157e-06
7.8023e-05
2.04978e-06
7.79958e-05
1.90388e-06
7.79471e-05
1.78112e-06
7.78801e-05
1.67958e-06
7.77974e-05
1.59804e-06
7.77007e-05
1.53582e-06
7.75914e-05
1.49274e-06
7.74701e-05
1.4691e-06
7.73373e-05
1.46565e-06
7.71926e-05
1.48364e-06
7.70356e-05
1.52485e-06
7.68651e-05
1.59164e-06
7.66799e-05
1.68703e-06
7.64782e-05
1.81492e-06
7.6258e-05
1.98006e-06
7.6018e-05
2.18878e-06
7.57555e-05
2.44832e-06
7.54745e-05
2.7694e-06
3.16111e-06
7.51814e-05
7.08389e-05
3.93349e-06
7.26225e-05
7.5878e-06
7.39242e-05
7.77334e-06
7.48483e-05
7.0649e-06
7.54715e-05
6.1294e-06
7.59132e-05
5.22423e-06
7.62603e-05
4.48383e-06
7.65531e-05
3.89623e-06
7.68117e-05
3.42493e-06
7.70457e-05
3.04277e-06
7.72591e-05
2.72824e-06
7.7454e-05
2.46571e-06
7.76326e-05
2.24468e-06
7.77962e-05
2.05793e-06
7.79457e-05
1.90026e-06
7.80818e-05
1.76783e-06
7.82051e-05
1.65787e-06
7.83162e-05
1.56847e-06
7.84158e-05
1.49837e-06
7.85048e-05
1.44686e-06
7.85838e-05
1.41374e-06
7.86536e-05
1.39926e-06
7.87152e-05
1.4041e-06
7.87694e-05
1.42941e-06
7.88175e-05
1.47677e-06
7.88608e-05
1.54829e-06
7.89013e-05
1.6466e-06
7.89412e-05
1.775e-06
7.89839e-05
1.93734e-06
7.90343e-05
2.13838e-06
7.90996e-05
2.38302e-06
7.91915e-05
2.67751e-06
3.02154e-06
7.93311e-05
7.23876e-05
2.91224e-06
7.38364e-05
6.13894e-06
7.49592e-05
6.65058e-06
7.5771e-05
6.25309e-06
7.63214e-05
5.57902e-06
7.66942e-05
4.85141e-06
7.69659e-05
4.21218e-06
7.71785e-05
3.6836e-06
7.73555e-05
3.24789e-06
7.75103e-05
2.88797e-06
7.76499e-05
2.58865e-06
7.7778e-05
2.33762e-06
7.78967e-05
2.12596e-06
7.80074e-05
1.94727e-06
7.81108e-05
1.79683e-06
7.82076e-05
1.67109e-06
7.8298e-05
1.56746e-06
7.83824e-05
1.48409e-06
7.8461e-05
1.41973e-06
7.85342e-05
1.37362e-06
7.86025e-05
1.34548e-06
7.86663e-05
1.33542e-06
7.87265e-05
1.34393e-06
7.8784e-05
1.37188e-06
7.88403e-05
1.42049e-06
7.88972e-05
1.49137e-06
7.89574e-05
1.58644e-06
7.90244e-05
1.70801e-06
7.91032e-05
1.85854e-06
7.92008e-05
2.04075e-06
7.93273e-05
2.25651e-06
7.94969e-05
2.50795e-06
2.78887e-06
7.97295e-05
7.4124e-05
2.19349e-06
7.5288e-05
4.97501e-06
7.62643e-05
5.67424e-06
7.70094e-05
5.50793e-06
7.75464e-05
5.04205e-06
7.79246e-05
4.47319e-06
7.82018e-05
3.93503e-06
7.84153e-05
3.47008e-06
7.85877e-05
3.07552e-06
7.8733e-05
2.74269e-06
7.88594e-05
2.4622e-06
7.89719e-05
2.22511e-06
7.90736e-05
2.02434e-06
7.91662e-05
1.85459e-06
7.92513e-05
1.71174e-06
7.93297e-05
1.59268e-06
7.94022e-05
1.49505e-06
7.94691e-05
1.41714e-06
7.95311e-05
1.35776e-06
7.95885e-05
1.31618e-06
7.96419e-05
1.29206e-06
7.9692e-05
1.2854e-06
7.97394e-05
1.29653e-06
7.97852e-05
1.32608e-06
7.98307e-05
1.37492e-06
7.98779e-05
1.44417e-06
7.99293e-05
1.53509e-06
7.99882e-05
1.64906e-06
8.00595e-05
1.78728e-06
8.01495e-05
1.95074e-06
8.0267e-05
2.13907e-06
8.04235e-05
2.35141e-06
2.57965e-06
8.06327e-05
7.60155e-05
1.68049e-06
7.69484e-05
4.0421e-06
7.77916e-05
4.83103e-06
7.84656e-05
4.83393e-06
7.89769e-05
4.53072e-06
7.93542e-05
4.09596e-06
7.96394e-05
3.64975e-06
7.9864e-05
3.2455e-06
8.00475e-05
2.89204e-06
8.02026e-05
2.58756e-06
8.03374e-05
2.32737e-06
8.0457e-05
2.10559e-06
8.05644e-05
1.91689e-06
8.0662e-05
1.75698e-06
8.07513e-05
1.62243e-06
8.08335e-05
1.51051e-06
8.09094e-05
1.41916e-06
8.09797e-05
1.3468e-06
8.10452e-05
1.29232e-06
8.11064e-05
1.255e-06
8.11639e-05
1.23446e-06
8.12188e-05
1.23059e-06
8.12717e-05
1.24355e-06
8.13241e-05
1.27371e-06
8.13774e-05
1.3216e-06
8.14337e-05
1.38787e-06
8.14956e-05
1.47316e-06
8.15667e-05
1.57802e-06
8.16513e-05
1.70264e-06
8.17554e-05
1.84666e-06
8.18862e-05
2.0083e-06
8.20527e-05
2.18486e-06
2.36821e-06
8.22641e-05
7.80317e-05
1.30836e-06
7.87793e-05
3.29456e-06
7.95051e-05
4.10515e-06
8.01124e-05
4.22671e-06
8.05946e-05
4.04846e-06
8.09657e-05
3.72486e-06
8.12545e-05
3.36096e-06
8.14861e-05
3.01393e-06
8.16774e-05
2.70072e-06
8.18401e-05
2.42485e-06
8.1982e-05
2.18549e-06
8.21081e-05
1.97947e-06
8.22219e-05
1.80314e-06
8.23256e-05
1.65327e-06
8.24209e-05
1.52708e-06
8.25091e-05
1.4223e-06
8.25912e-05
1.33708e-06
8.2668e-05
1.27003e-06
8.27402e-05
1.2201e-06
8.28087e-05
1.18655e-06
8.28742e-05
1.16895e-06
8.29377e-05
1.16706e-06
8.30004e-05
1.18086e-06
8.30636e-05
1.21046e-06
8.31292e-05
1.25603e-06
8.31993e-05
1.31779e-06
8.32766e-05
1.39581e-06
8.33647e-05
1.48993e-06
8.34678e-05
1.59953e-06
8.35912e-05
1.7233e-06
8.37409e-05
1.85859e-06
8.3924e-05
2.00179e-06
2.14544e-06
8.41468e-05
8.01533e-05
1.03333e-06
8.0754e-05
2.6939e-06
8.13783e-05
3.48087e-06
8.19246e-05
3.6804e-06
8.23766e-05
3.59645e-06
8.27379e-05
3.36352e-06
8.30271e-05
3.07183e-06
8.32635e-05
2.77753e-06
8.34615e-05
2.50271e-06
8.36314e-05
2.25496e-06
8.37804e-05
2.0365e-06
8.39133e-05
1.84647e-06
8.40337e-05
1.68278e-06
8.41438e-05
1.54313e-06
8.42455e-05
1.42542e-06
8.434e-05
1.32777e-06
8.44285e-05
1.24859e-06
8.45119e-05
1.18662e-06
8.45911e-05
1.14089e-06
8.46671e-05
1.11064e-06
8.47406e-05
1.09537e-06
8.4813e-05
1.09472e-06
8.48854e-05
1.10847e-06
8.49594e-05
1.13649e-06
8.50368e-05
1.17863e-06
8.51199e-05
1.23468e-06
8.52114e-05
1.30425e-06
8.53147e-05
1.38663e-06
8.54337e-05
1.48057e-06
8.55728e-05
1.58415e-06
8.57371e-05
1.6943e-06
8.59318e-05
1.80711e-06
1.91598e-06
8.61612e-05
8.23679e-05
8.25871e-07
8.28528e-05
2.209e-06
8.33891e-05
2.94452e-06
8.38797e-05
3.1899e-06
8.43014e-05
3.17476e-06
8.4651e-05
3.01385e-06
8.4939e-05
2.78385e-06
8.51795e-05
2.53706e-06
8.5384e-05
2.29821e-06
8.55612e-05
2.07769e-06
8.57177e-05
1.87999e-06
8.58581e-05
1.70609e-06
8.59857e-05
1.55521e-06
8.61029e-05
1.42596e-06
8.62115e-05
1.31681e-06
8.6313e-05
1.22628e-06
8.64085e-05
1.15304e-06
8.64992e-05
1.09595e-06
8.6586e-05
1.05411e-06
8.66699e-05
1.02674e-06
8.6752e-05
1.01327e-06
8.68335e-05
1.01322e-06
8.69157e-05
1.02619e-06
8.70004e-05
1.05182e-06
8.70894e-05
1.08967e-06
8.71849e-05
1.13919e-06
8.72895e-05
1.19961e-06
8.74063e-05
1.26979e-06
8.75388e-05
1.3481e-06
8.76907e-05
1.43228e-06
8.78658e-05
1.51915e-06
8.80681e-05
1.60487e-06
1.68379e-06
8.83003e-05
8.46676e-05
6.66038e-07
8.50617e-05
1.8149e-06
8.55228e-05
2.48339e-06
8.5963e-05
2.74973e-06
8.63553e-05
2.78249e-06
8.66918e-05
2.67736e-06
8.69767e-05
2.49889e-06
8.72197e-05
2.29408e-06
8.74297e-05
2.08824e-06
8.76139e-05
1.89353e-06
8.77779e-05
1.71597e-06
8.7926e-05
1.55798e-06
8.80613e-05
1.41988e-06
8.81862e-05
1.30106e-06
8.83025e-05
1.20049e-06
8.84117e-05
1.11707e-06
8.85151e-05
1.04968e-06
8.86137e-05
9.9732e-07
8.87087e-05
9.59107e-07
8.88012e-05
9.34282e-07
8.88923e-05
9.22185e-07
8.89832e-05
9.22229e-07
8.90756e-05
9.33857e-07
8.91709e-05
9.56489e-07
8.92711e-05
9.89465e-07
8.93783e-05
1.03196e-06
8.9495e-05
1.08292e-06
8.96239e-05
1.14094e-06
8.97678e-05
1.20416e-06
8.99299e-05
1.27021e-06
9.0113e-05
1.33599e-06
9.032e-05
1.39796e-06
1.4514e-06
9.05523e-05
8.70479e-05
5.40253e-07
8.73711e-05
1.4918e-06
8.77684e-05
2.08602e-06
8.81635e-05
2.35466e-06
8.85277e-05
2.41828e-06
8.88502e-05
2.35488e-06
8.91308e-05
2.2183e-06
8.93752e-05
2.04965e-06
8.959e-05
1.87348e-06
8.97808e-05
1.70272e-06
8.99523e-05
1.5444e-06
9.01084e-05
1.40192e-06
9.02518e-05
1.27646e-06
9.03848e-05
1.16802e-06
9.05093e-05
1.07604e-06
9.06267e-05
9.99695e-07
9.07383e-05
9.38086e-07
9.08453e-05
8.90315e-07
9.09488e-05
8.55541e-07
9.10501e-05
8.32988e-07
9.11504e-05
8.21937e-07
9.12509e-05
8.217e-07
9.13532e-05
8.31582e-07
9.14588e-05
8.5084e-07
9.15697e-05
8.78625e-07
9.16877e-05
9.13924e-07
9.18152e-05
9.55485e-07
9.19543e-05
1.00176e-06
9.21077e-05
1.0508e-06
9.22776e-05
1.10029e-06
9.24663e-05
1.14735e-06
9.26754e-05
1.18883e-06
1.22088e-06
9.29059e-05
8.95066e-05
4.39184e-07
8.97743e-05
1.22412e-06
9.01181e-05
1.74219e-06
9.04733e-05
1.99946e-06
9.08114e-05
2.08017e-06
9.11198e-05
2.0465e-06
9.13952e-05
1.94295e-06
9.16401e-05
1.80474e-06
9.18589e-05
1.65469e-06
9.20558e-05
1.5058e-06
9.22346e-05
1.36554e-06
9.23986e-05
1.23795e-06
9.25503e-05
1.1248e-06
9.26917e-05
1.02659e-06
9.28246e-05
9.43104e-07
9.29506e-05
8.73785e-07
9.30708e-05
8.17885e-07
9.31865e-05
7.74599e-07
9.32989e-05
7.43119e-07
9.34092e-05
7.22654e-07
9.35187e-05
7.12434e-07
9.36287e-05
7.11683e-07
9.37407e-05
7.19601e-07
9.38562e-05
7.35317e-07
9.3977e-05
7.5785e-07
9.41049e-05
7.86061e-07
9.42418e-05
8.18599e-07
9.43897e-05
8.53861e-07
9.45505e-05
8.89941e-07
9.47262e-05
9.24637e-07
9.49181e-05
9.55399e-07
9.51274e-05
9.79517e-07
9.93873e-07
9.53545e-05
9.20427e-05
3.56317e-07
9.22672e-05
9.99664e-07
9.25665e-05
1.44287e-06
9.28869e-05
1.67906e-06
9.32012e-05
1.76585e-06
9.34959e-05
1.7518e-06
9.37656e-05
1.67327e-06
9.40104e-05
1.55997e-06
9.42326e-05
1.43241e-06
9.44353e-05
1.30308e-06
9.46214e-05
1.1795e-06
9.47934e-05
1.06599e-06
9.49534e-05
9.64714e-07
9.51035e-05
8.765e-07
9.52452e-05
8.01406e-07
9.538e-05
7.39051e-07
9.5509e-05
6.88816e-07
9.56337e-05
6.49963e-07
9.57551e-05
6.21708e-07
9.58745e-05
6.03248e-07
9.59931e-05
5.93765e-07
9.61124e-05
5.92423e-07
9.62337e-05
5.98338e-07
9.63584e-05
6.10554e-07
9.64883e-05
6.2801e-07
9.66248e-05
6.49502e-07
9.67698e-05
6.73652e-07
9.69248e-05
6.98881e-07
9.70913e-05
7.23392e-07
9.72708e-05
7.45186e-07
9.74641e-05
7.62046e-07
9.76719e-05
7.71705e-07
7.71687e-07
9.78941e-05
9.46565e-05
2.87022e-07
9.48472e-05
8.08874e-07
9.51099e-05
1.18019e-06
9.54004e-05
1.3886e-06
9.56935e-05
1.47275e-06
9.59755e-05
1.46984e-06
9.62395e-05
1.40924e-06
9.64838e-05
1.31562e-06
9.67093e-05
1.20696e-06
9.69176e-05
1.09481e-06
9.71107e-05
9.86388e-07
9.72906e-05
8.86047e-07
9.74592e-05
7.96112e-07
9.76181e-05
7.17605e-07
9.77688e-05
6.50749e-07
9.79125e-05
5.95292e-07
9.80506e-05
5.50695e-07
9.81843e-05
5.16269e-07
9.83148e-05
4.91242e-07
9.84433e-05
4.74795e-07
9.85709e-05
4.66081e-07
9.86991e-05
4.64214e-07
9.88292e-05
4.6826e-07
9.89626e-05
4.77213e-07
9.91006e-05
4.89976e-07
9.92448e-05
5.05335e-07
9.93965e-05
5.21939e-07
9.95571e-05
5.38294e-07
9.97277e-05
5.52758e-07
9.99093e-05
5.6357e-07
0.000100103
5.68853e-07
0.000100307
5.66757e-07
5.55351e-07
0.000100524
9.73486e-05
2.27935e-07
9.75132e-05
6.44233e-07
9.77461e-05
9.47314e-07
9.80113e-05
1.12344e-06
9.82859e-05
1.19809e-06
9.85565e-05
1.19927e-06
9.88154e-05
1.15039e-06
9.90593e-05
1.07166e-06
9.92879e-05
9.78434e-07
9.95016e-05
8.81058e-07
9.97018e-05
7.86214e-07
9.98898e-05
6.98039e-07
0.000100067
6.18846e-07
0.000100235
5.49714e-07
0.000100395
4.90941e-07
0.000100548
4.42333e-07
0.000100695
4.03395e-07
0.000100838
3.73458e-07
0.000100977
3.5175e-07
0.000101115
3.3744e-07
0.000101251
3.29656e-07
0.000101388
3.27483e-07
0.000101526
3.2996e-07
0.000101667
3.36066e-07
0.000101813
3.44705e-07
0.000101963
3.54695e-07
0.00010212
3.64757e-07
0.000102285
3.73521e-07
0.000102458
3.79527e-07
0.000102641
3.81263e-07
0.000102832
3.77177e-07
0.000103033
3.65792e-07
3.45628e-07
0.000103243
0.00010012
1.76554e-07
0.000100265
4.99787e-07
0.000100474
7.38321e-07
0.000100718
8.79221e-07
0.000100977
9.38998e-07
0.000101238
9.38406e-07
0.000101493
8.95858e-07
0.000101737
8.27644e-07
0.000101968
7.46592e-07
0.000102188
6.61669e-07
0.000102395
5.78815e-07
0.000102592
5.01781e-07
0.000102778
4.32708e-07
0.000102955
3.72614e-07
0.000103124
3.21777e-07
0.000103286
2.80003e-07
0.000103443
2.46796e-07
0.000103595
2.21482e-07
0.000103743
2.03278e-07
0.000103889
1.91338e-07
0.000104034
1.84772e-07
0.000104179
1.82652e-07
0.000104325
1.84015e-07
0.000104473
1.87848e-07
0.000104625
1.93091e-07
0.000104781
1.98625e-07
0.000104942
2.03272e-07
0.00010511
2.05807e-07
0.000105285
2.04968e-07
0.000105466
1.99488e-07
0.000105656
1.88116e-07
0.000105852
1.69705e-07
1.43153e-07
0.000106054
0.000102974
1.30962e-07
0.000103103
3.70751e-07
0.000103293
5.48077e-07
0.00010352
6.51803e-07
0.000103767
6.92487e-07
0.00010402
6.85282e-07
0.000104271
6.44434e-07
0.000104516
5.82846e-07
0.000104752
5.10964e-07
0.000104977
4.36297e-07
0.000105192
3.63912e-07
0.000105397
2.97026e-07
0.000105592
2.37477e-07
0.000105779
1.8611e-07
0.000105957
1.43106e-07
0.000106129
1.08205e-07
0.000106295
8.08719e-08
0.000106456
6.04008e-08
0.000106613
4.59852e-08
0.000106768
3.67603e-08
0.000106921
3.18272e-08
0.000107073
3.02582e-08
0.000107226
3.11017e-08
0.000107381
3.33783e-08
0.000107538
3.60829e-08
0.000107698
3.81836e-08
0.000107863
3.86238e-08
0.000108032
3.63326e-08
0.000108207
3.02451e-08
0.000108387
1.93255e-08
0.000108573
2.59093e-09
0.000108763
-2.08262e-08
-5.17264e-08
0.000108958
0.00010591
8.96493e-08
0.000106028
2.53212e-07
0.000106204
3.72072e-07
0.000106418
4.37268e-07
0.000106655
4.55486e-07
0.000106903
4.37633e-07
0.000107153
3.94514e-07
0.000107399
3.36118e-07
0.00010764
2.70686e-07
0.000107872
2.04255e-07
0.000108095
1.40917e-07
0.000108309
8.32548e-08
0.000108513
3.26899e-08
0.00010871
-1.01989e-08
0.000108898
-4.54108e-08
0.00010908
-7.33194e-08
0.000109255
-9.45428e-08
0.000109425
-1.09844e-07
0.000109591
-1.20067e-07
0.000109754
-1.26099e-07
0.000109915
-1.28849e-07
0.000110074
-1.29235e-07
0.000110234
-1.28182e-07
0.000110394
-1.26619e-07
0.000110555
-1.2548e-07
0.000110719
-1.25697e-07
0.000110886
-1.28199e-07
0.000111056
-1.33896e-07
0.00011123
-1.43664e-07
0.000111408
-1.58326e-07
0.000111589
-1.78629e-07
0.000111773
-2.05193e-07
-2.38567e-07
0.00011196
0.000108932
5.138e-08
0.000109041
1.43882e-07
0.000109207
2.06286e-07
0.000109412
2.31865e-07
0.000109643
2.24857e-07
0.000109887
1.92981e-07
0.000110138
1.44222e-07
0.000110388
8.60522e-08
0.000110634
2.46912e-08
0.000110873
-3.52811e-08
0.000111105
-9.08045e-08
0.000111328
-1.40027e-07
0.000111543
-1.82033e-07
0.000111749
-2.16593e-07
0.000111948
-2.43947e-07
0.000112139
-2.64643e-07
0.000112324
-2.79418e-07
0.000112503
-2.89116e-07
0.000112678
-2.94633e-07
0.000112849
-2.96886e-07
0.000113017
-2.96787e-07
0.000113183
-2.95243e-07
0.000113348
-2.93141e-07
0.000113512
-2.91353e-07
0.000113678
-2.90729e-07
0.000113844
-2.92096e-07
0.000114012
-2.96251e-07
0.000114182
-3.03949e-07
0.000114354
-3.15894e-07
0.000114529
-3.32715e-07
0.000114705
-3.54961e-07
0.000114883
-3.83055e-07
-4.17351e-07
0.000115062
0.000112041
1.51012e-08
0.000112145
3.98999e-08
0.000112304
4.70224e-08
0.000112504
3.18998e-08
0.000112732
-2.72683e-09
0.000112976
-5.15198e-08
0.000113229
-1.08817e-07
0.000113484
-1.69323e-07
0.000113738
-2.28668e-07
0.000113986
-2.83711e-07
0.000114228
-3.32461e-07
0.000114462
-3.73859e-07
0.000114687
-4.07575e-07
0.000114905
-4.33802e-07
0.000115114
-4.53089e-07
0.000115315
-4.66205e-07
0.00011551
-4.74041e-07
0.000115698
-4.7755e-07
0.000115881
-4.77696e-07
0.00011606
-4.7543e-07
0.000116235
-4.71676e-07
0.000116407
-4.6732e-07
0.000116577
-4.6321e-07
0.000116746
-4.60152e-07
0.000116914
-4.5891e-07
0.000117082
-4.60204e-07
0.00011725
-4.64701e-07
0.00011742
-4.7301e-07
0.000117589
-4.85674e-07
0.00011776
-5.03152e-07
0.000117931
-5.25818e-07
0.000118101
-5.53919e-07
-5.87639e-07
0.000118272
0.00011524
-2.0127e-08
0.000115341
-6.13207e-08
0.000115497
-1.09196e-07
0.000115695
-1.66266e-07
0.000115923
-2.30665e-07
0.000116171
-2.98854e-07
0.000116429
-3.67104e-07
0.000116692
-4.32045e-07
0.000116954
-4.91036e-07
0.000117213
-5.42337e-07
0.000117465
-5.85064e-07
0.00011771
-6.19017e-07
0.000117947
-6.44516e-07
0.000118176
-6.62241e-07
0.000118396
-6.73103e-07
0.000118608
-6.78132e-07
0.000118812
-6.78413e-07
0.00011901
-6.75026e-07
0.000119201
-6.69019e-07
0.000119387
-6.61388e-07
0.000119568
-6.53066e-07
0.000119746
-6.44923e-07
0.00011992
-6.37763e-07
0.000120093
-6.32328e-07
0.000120263
-6.29294e-07
0.000120432
-6.29273e-07
0.0001206
-6.32813e-07
0.000120767
-6.40389e-07
0.000120934
-6.52399e-07
0.0001211
-6.69158e-07
0.000121265
-6.90895e-07
0.000121429
-7.17732e-07
-7.49727e-07
0.000121591
0.000118531
-5.51999e-08
0.000118632
-1.62285e-07
0.000118789
-2.6589e-07
0.000118989
-3.66554e-07
0.000119221
-4.62898e-07
0.000119475
-5.52766e-07
0.000119742
-6.34086e-07
0.000120015
-7.05223e-07
0.000120289
-7.65167e-07
0.000120561
-8.13576e-07
0.000120826
-8.5071e-07
0.000121084
-8.77286e-07
0.000121334
-8.94342e-07
0.000121575
-9.0311e-07
0.000121807
-9.04917e-07
0.00012203
-9.01104e-07
0.000122245
-8.92976e-07
0.000122451
-8.8177e-07
0.000122651
-8.6863e-07
0.000122844
-8.54605e-07
0.000123032
-8.40645e-07
0.000123214
-8.27602e-07
0.000123393
-8.16239e-07
0.000123568
-8.0723e-07
0.00012374
-8.01166e-07
0.000123909
-7.98559e-07
0.000124076
-7.99841e-07
0.000124241
-8.05363e-07
0.000124404
-8.15395e-07
0.000124565
-8.30119e-07
0.000124724
-8.49638e-07
0.00012488
-8.73945e-07
-9.02982e-07
0.000125033
0.000121917
-9.09923e-08
0.00012202
-2.65453e-07
0.000122181
-4.26536e-07
0.000122387
-5.72837e-07
0.000122628
-7.03246e-07
0.000122892
-8.16767e-07
0.00012317
-9.12826e-07
0.000123456
-9.91443e-07
0.000123745
-1.05321e-06
0.00012403
-1.09919e-06
0.00012431
-1.13083e-06
0.000124583
-1.14981e-06
0.000124846
-1.15797e-06
0.0001251
-1.15712e-06
0.000125345
-1.14906e-06
0.000125579
-1.13548e-06
0.000125804
-1.11794e-06
0.00012602
-1.09785e-06
0.000126228
-1.07647e-06
0.000126428
-1.0549e-06
0.000126622
-1.03413e-06
0.000126809
-1.01498e-06
0.000126991
-9.9819e-07
0.000127168
-9.84359e-07
0.000127341
-9.74e-07
0.00012751
-9.67531e-07
0.000127675
-9.65276e-07
0.000127837
-9.67479e-07
0.000127996
-9.74295e-07
0.000128152
-9.858e-07
0.000128304
-1.00199e-06
0.000128453
-1.0228e-06
-1.04807e-06
0.000128598
0.000125401
-1.28522e-07
0.000125509
-3.73696e-07
0.000125678
-5.95393e-07
0.000125895
-7.90216e-07
0.000126149
-9.5721e-07
0.000126429
-1.09641e-06
0.000126725
-1.20867e-06
0.000127029
-1.29565e-06
0.000127336
-1.35958e-06
0.000127639
-1.40301e-06
0.000127937
-1.42865e-06
0.000128227
-1.43926e-06
0.000128506
-1.4375e-06
0.000128775
-1.42588e-06
0.000129033
-1.40671e-06
0.000129279
-1.38206e-06
0.000129515
-1.35377e-06
0.000129741
-1.32344e-06
0.000129957
-1.29246e-06
0.000130164
-1.26201e-06
0.000130363
-1.23308e-06
0.000130554
-1.2065e-06
0.000130739
-1.18295e-06
0.000130917
-1.16297e-06
0.00013109
-1.14701e-06
0.000131258
-1.13539e-06
0.000131421
-1.12833e-06
0.00013158
-1.12598e-06
0.000131734
-1.12838e-06
0.000131884
-1.13551e-06
0.000132029
-1.14727e-06
0.00013217
-1.16348e-06
-1.18391e-06
0.000132306
0.000128985
-1.68752e-07
0.000129101
-4.89779e-07
0.000129282
-7.76333e-07
0.000129515
-1.02296e-06
0.000129787
-1.22898e-06
0.000130086
-1.39557e-06
0.000130402
-1.52509e-06
0.000130728
-1.62093e-06
0.000131055
-1.68703e-06
0.00013138
-1.72749e-06
0.000131697
-1.74638e-06
0.000132006
-1.74758e-06
0.000132303
-1.73466e-06
0.000132588
-1.71089e-06
0.00013286
-1.67912e-06
0.00013312
-1.64187e-06
0.000133368
-1.60127e-06
0.000133603
-1.55915e-06
0.000133828
-1.51702e-06
0.000134042
-1.47616e-06
0.000134246
-1.43758e-06
0.000134442
-1.4021e-06
0.00013463
-1.37036e-06
0.000134809
-1.34286e-06
0.000134982
-1.31995e-06
0.000135149
-1.30186e-06
0.000135309
-1.28875e-06
0.000135464
-1.28065e-06
0.000135613
-1.27752e-06
0.000135757
-1.27926e-06
0.000135895
-1.28569e-06
0.000136028
-1.2966e-06
-1.31168e-06
0.000136156
0.000132674
-2.13393e-07
0.000132802
-6.18382e-07
0.000133002
-9.76415e-07
0.000133259
-1.27968e-06
0.000133558
-1.52792e-06
0.000133886
-1.7236e-06
0.000134232
-1.87083e-06
0.000134586
-1.975e-06
0.000134941
-2.04208e-06
0.000135291
-2.07793e-06
0.000135633
-2.08814e-06
0.000135963
-2.07786e-06
0.00013628
-2.05167e-06
0.000136583
-2.01362e-06
0.000136871
-1.96718e-06
0.000137145
-1.9153e-06
0.000137404
-1.86046e-06
0.000137649
-1.80469e-06
0.000137882
-1.74966e-06
0.000138103
-1.69669e-06
0.000138312
-1.64683e-06
0.000138511
-1.60089e-06
0.0001387
-1.55948e-06
0.00013888
-1.52302e-06
0.000139052
-1.49179e-06
0.000139216
-1.46595e-06
0.000139373
-1.44555e-06
0.000139523
-1.43053e-06
0.000139666
-1.42078e-06
0.000139803
-1.41609e-06
0.000139933
-1.41622e-06
0.000140057
-1.42084e-06
-1.42958e-06
0.000140175
0.000136468
-2.6327e-07
0.000136612
-7.62349e-07
0.000136835
-1.1993e-06
0.000137119
-1.56415e-06
0.000137449
-1.85777e-06
0.00013781
-2.08437e-06
0.000138189
-2.25e-06
0.000138577
-2.36228e-06
0.000138964
-2.42934e-06
0.000139345
-2.45899e-06
0.000139715
-2.4585e-06
0.000140072
-2.4344e-06
0.000140413
-2.39244e-06
0.000140736
-2.33755e-06
0.000141043
-2.27388e-06
0.000141333
-2.20489e-06
0.000141606
-2.1334e-06
0.000141863
-2.0617e-06
0.000142105
-1.99159e-06
0.000142332
-1.92448e-06
0.000142547
-1.86145e-06
0.000142749
-1.80328e-06
0.000142941
-1.75054e-06
0.000143121
-1.70356e-06
0.000143292
-1.66257e-06
0.000143454
-1.62763e-06
0.000143607
-1.5987e-06
0.000143752
-1.57565e-06
0.000143889
-1.55828e-06
0.00014402
-1.54631e-06
0.000144143
-1.53943e-06
0.000144259
-1.53731e-06
-1.53949e-06
0.000144369
0.000140376
-3.23083e-07
0.000140546
-9.33018e-07
0.000140808
-1.46107e-06
0.000141138
-1.89454e-06
0.000141517
-2.23647e-06
0.000141927
-2.4938e-06
0.000142352
-2.67561e-06
0.000142783
-2.7927e-06
0.000143209
-2.85595e-06
0.000143626
-2.87548e-06
0.000144028
-2.86042e-06
0.000144412
-2.81883e-06
0.000144777
-2.75762e-06
0.000145122
-2.68264e-06
0.000145447
-2.59872e-06
0.000145752
-2.5098e-06
0.000146038
-2.41906e-06
0.000146305
-2.32901e-06
0.000146555
-2.24159e-06
0.000146789
-2.15826e-06
0.000147007
-2.08013e-06
0.000147212
-2.00793e-06
0.000147404
-1.94217e-06
0.000147583
-1.88315e-06
0.000147752
-1.83096e-06
0.00014791
-1.7856e-06
0.000148058
-1.74692e-06
0.000148197
-1.71472e-06
0.000148327
-1.6887e-06
0.00014845
-1.6685e-06
0.000148564
-1.65373e-06
0.00014867
-1.64394e-06
-1.6386e-06
0.00014877
0.000144392
-3.90587e-07
0.000144588
-1.12911e-06
0.000144887
-1.76035e-06
0.000145264
-2.27079e-06
0.000145694
-2.66693e-06
0.000146159
-2.95832e-06
0.00014664
-3.15705e-06
0.000147125
-3.27756e-06
0.000147603
-3.33405e-06
0.000148067
-3.33942e-06
0.000148512
-3.30517e-06
0.000148934
-3.24121e-06
0.000149332
-3.15592e-06
0.000149706
-3.05619e-06
0.000150055
-2.94766e-06
0.00015038
-2.83481e-06
0.000150682
-2.72119e-06
0.000150963
-2.60951e-06
0.000151223
-2.50184e-06
0.000151464
-2.39967e-06
0.000151688
-2.30407e-06
0.000151896
-2.21574e-06
0.000152089
-2.13509e-06
0.000152268
-2.06231e-06
0.000152435
-1.99741e-06
0.000152589
-1.94026e-06
0.000152733
-1.89064e-06
0.000152866
-1.84823e-06
0.00015299
-1.81267e-06
0.000153105
-1.78354e-06
0.000153212
-1.76037e-06
0.000153311
-1.74271e-06
-1.72994e-06
0.000153402
0.000148543
-4.85346e-07
0.000148801
-1.38761e-06
0.000149181
-2.14023e-06
0.000149642
-2.73176e-06
0.000150154
-3.17871e-06
0.000150693
-3.49721e-06
0.000151241
-3.70497e-06
0.000151784
-3.82136e-06
0.000152315
-3.86421e-06
0.000152824
-3.84924e-06
0.000153309
-3.79017e-06
0.000153767
-3.69873e-06
0.000154196
-3.58461e-06
0.000154595
-3.45576e-06
0.000154966
-3.31855e-06
0.000155309
-3.17799e-06
0.000155626
-3.03797e-06
0.000155918
-2.90144e-06
0.000156187
-2.77054e-06
0.000156434
-2.64682e-06
0.000156661
-2.53129e-06
0.00015687
-2.42457e-06
0.000157062
-2.32699e-06
0.000157238
-2.23861e-06
0.0001574
-2.15933e-06
0.000157549
-2.08889e-06
0.000157685
-2.02697e-06
0.00015781
-1.97314e-06
0.000157924
-1.92694e-06
0.000158028
-1.88787e-06
0.000158123
-1.85536e-06
0.00015821
-1.82888e-06
-1.80766e-06
0.000158287
0.000152786
-5.82563e-07
0.000153081
-1.68252e-06
0.000153523
-2.58206e-06
0.000154068
-3.27662e-06
0.000154679
-3.78931e-06
0.000155322
-4.14027e-06
0.000155971
-4.35476e-06
0.00015661
-4.45992e-06
0.000157225
-4.47932e-06
0.000157809
-4.43299e-06
0.000158357
-4.33802e-06
0.000158866
-4.20852e-06
0.000159338
-4.05593e-06
0.000159771
-3.88934e-06
0.000160169
-3.71589e-06
0.000160532
-3.5411e-06
0.000160863
-3.36909e-06
0.000161164
-3.20292e-06
0.000161439
-3.04473e-06
0.000161688
-2.89598e-06
0.000161914
-2.75756e-06
0.000162119
-2.62993e-06
0.000162306
-2.51324e-06
0.000162474
-2.40738e-06
0.000162627
-2.31208e-06
0.000162765
-2.22694e-06
0.00016289
-2.15148e-06
0.000163002
-2.08519e-06
0.000163102
-2.02753e-06
0.000163192
-1.97793e-06
0.000163273
-1.9358e-06
0.000163345
-1.90061e-06
-1.87148e-06
0.000163408
0.000157248
-7.79305e-07
0.000157705
-2.1391e-06
0.000158307
-3.18389e-06
0.000158987
-3.9566e-06
0.000159709
-4.51152e-06
0.000160445
-4.87616e-06
0.000161173
-5.08323e-06
0.000161879
-5.16607e-06
0.000162552
-5.15242e-06
0.000163185
-5.06596e-06
0.000163774
-4.92691e-06
0.000164318
-4.75178e-06
0.000164815
-4.55377e-06
0.000165269
-4.34323e-06
0.000165682
-4.12814e-06
0.000166055
-3.91448e-06
0.000166392
-3.70662e-06
0.000166697
-3.50766e-06
0.000166972
-3.31968e-06
0.00016722
-3.14397e-06
0.000167444
-2.9812e-06
0.000167645
-2.83162e-06
0.000167827
-2.69512e-06
0.000167991
-2.57135e-06
0.000168139
-2.45982e-06
0.000168272
-2.35992e-06
0.000168392
-2.27101e-06
0.000168499
-2.19242e-06
0.000168595
-2.12352e-06
0.00016868
-2.06367e-06
0.000168757
-2.0123e-06
0.000168825
-1.96883e-06
-1.93232e-06
0.000168886
0.000161694
-9.35332e-07
0.000162224
-2.66853e-06
0.000162975
-3.93466e-06
0.000163853
-4.8353e-06
0.000164783
-5.44148e-06
0.000165708
-5.80086e-06
0.000166598
-5.97341e-06
0.000167441
-6.00853e-06
0.00016823
-5.94175e-06
0.000168966
-5.80149e-06
0.000169649
-5.61046e-06
0.000170284
-5.38619e-06
0.000170872
-5.14221e-06
0.000171418
-4.88888e-06
0.000171923
-4.63403e-06
0.000172392
-4.38343e-06
0.000172827
-4.14132e-06
0.00017323
-3.91062e-06
0.000173604
-3.69328e-06
0.00017395
-3.49045e-06
0.000174272
-3.30268e-06
0.00017457
-3.13006e-06
0.000174847
-2.97231e-06
0.000175105
-2.82894e-06
0.000175344
-2.69927e-06
0.000175567
-2.58256e-06
0.000175774
-2.47803e-06
0.000175967
-2.38492e-06
0.000176146
-2.30258e-06
0.000176312
-2.2304e-06
0.000176468
-2.16814e-06
0.000176615
-2.11525e-06
-2.07186e-06
0.000176754
0.000166692
-1.4739e-06
0.000167558
-3.53402e-06
0.000168513
-4.88986e-06
0.000169549
-5.87099e-06
0.000170665
-6.55815e-06
0.000171842
-6.97779e-06
0.00017306
-7.19111e-06
0.000174296
-7.24449e-06
0.000175526
-7.17207e-06
0.00017673
-7.00497e-06
0.000177889
-6.76995e-06
0.000178992
-6.48892e-06
0.000180029
-6.17959e-06
0.000180996
-5.85596e-06
0.000181891
-5.52887e-06
0.000182714
-5.20646e-06
0.000183468
-4.8947e-06
0.000184155
-4.59771e-06
0.000184779
-4.31818e-06
0.000185347
-4.05763e-06
0.000185861
-3.81672e-06
0.000186326
-3.59544e-06
0.000186747
-3.39327e-06