/*--------------------------------*- C++ -*----------------------------------*\
  =========                 |
  \\      /  F ield         | OpenFOAM: The Open Source CFD Toolbox
   \\    /   O peration     | Website:  https://openfoam.org
    \\  /    A nd           | Version:  10
     \\/     M anipulation  |
\*---------------------------------------------------------------------------*/
FoamFile
{
    format      ascii;
    class       volScalarField;
    location    "600";
    object      k;
}
// * * * * * * * * * * * * * * * * * * * * * * * * * * * * * * * * * * * * * //

dimensions      [0 2 -2 0 0 0 0];

internalField   nonuniform List<scalar> 
6820
(
0.318932
0.614648
0.847396
0.983377
1.04835
1.06927
1.06475
1.0465
1.0217
0.994571
0.967459
0.941557
0.917416
0.89522
0.874958
0.856522
0.839762
0.824516
0.810627
0.797948
0.786345
0.775701
0.765912
0.756886
0.748541
0.740807
0.733618
0.72692
0.720643
0.714832
0.708881
0.705826
0.691656
0.838909
1.45739
1.5306
1.40689
1.25037
1.11087
0.996111
0.903238
0.827886
0.76631
0.715544
0.673418
0.638187
0.608545
0.583482
0.562194
0.544039
0.528501
0.515161
0.503676
0.493766
0.485197
0.477776
0.471341
0.465755
0.460906
0.456699
0.453054
0.449901
0.447214
0.444896
0.443219
0.441222
0.379893
0.662258
0.793338
0.827975
0.818187
0.790403
0.756382
0.72117
0.686891
0.654427
0.62411
0.596042
0.570194
0.546473
0.524756
0.504902
0.486769
0.470213
0.4551
0.441302
0.428702
0.417192
0.406672
0.397052
0.388252
0.380197
0.372821
0.366065
0.359875
0.354206
0.349009
0.344273
0.339909
0.246132
0.3393
0.411878
0.458886
0.485705
0.498881
0.503287
0.502158
0.497535
0.490704
0.482485
0.473433
0.463929
0.454237
0.444547
0.43499
0.425656
0.416607
0.407885
0.399511
0.3915
0.383856
0.376575
0.369652
0.363077
0.356839
0.350924
0.345319
0.34001
0.334984
0.330226
0.325727
0.321458
0.216724
0.25341
0.285799
0.312245
0.332455
0.347126
0.357302
0.364011
0.368096
0.370196
0.370788
0.370229
0.368791
0.366684
0.364073
0.361086
0.357826
0.354374
0.350794
0.347138
0.343448
0.339755
0.336086
0.33246
0.328893
0.325397
0.321982
0.318653
0.315416
0.312275
0.309231
0.306286
0.303439
0.2067
0.22375
0.239981
0.254416
0.266684
0.276738
0.28477
0.291069
0.295923
0.299584
0.302261
0.304126
0.305321
0.305961
0.306141
0.305942
0.30543
0.30466
0.303679
0.302527
0.301237
0.299837
0.298351
0.2968
0.2952
0.293566
0.29191
0.290244
0.288575
0.286911
0.28526
0.283626
0.282015
0.202776
0.211442
0.220463
0.228911
0.236465
0.243012
0.248579
0.253258
0.257157
0.260378
0.263011
0.265138
0.26683
0.268144
0.269135
0.269845
0.270312
0.270571
0.27065
0.270573
0.270363
0.270039
0.269617
0.269112
0.268536
0.267901
0.267218
0.266493
0.265736
0.264953
0.264151
0.263334
0.262508
0.201168
0.205683
0.210952
0.216189
0.221064
0.22544
0.229296
0.232659
0.235575
0.238088
0.240244
0.242083
0.243641
0.244951
0.246042
0.246938
0.247663
0.248236
0.248674
0.248993
0.249207
0.249327
0.249365
0.24933
0.249232
0.249077
0.248874
0.248627
0.248344
0.248029
0.247686
0.247321
0.246938
0.200484
0.202809
0.205913
0.20924
0.212483
0.215494
0.218221
0.220663
0.222834
0.224754
0.226447
0.227934
0.229235
0.230369
0.231352
0.2322
0.232927
0.233545
0.234065
0.234496
0.234848
0.235129
0.235345
0.235504
0.235611
0.235672
0.235691
0.235673
0.235622
0.235542
0.235436
0.235308
0.23516
0.200184
0.20134
0.203132
0.205234
0.207404
0.209501
0.211456
0.21325
0.214878
0.216348
0.217669
0.218852
0.219908
0.220848
0.221683
0.222423
0.223075
0.223647
0.224148
0.224583
0.224958
0.225279
0.22555
0.225777
0.225963
0.226113
0.226228
0.226314
0.226372
0.226406
0.226418
0.22641
0.226385
0.200051
0.200588
0.201579
0.202869
0.204298
0.205746
0.207146
0.208465
0.209689
0.210815
0.211844
0.212781
0.213631
0.214399
0.215093
0.215717
0.216278
0.21678
0.217229
0.217628
0.217982
0.218295
0.21857
0.21881
0.219018
0.219197
0.219349
0.219477
0.219583
0.219669
0.219737
0.219789
0.219826
0.199992
0.200208
0.200718
0.201471
0.202377
0.203351
0.204335
0.205292
0.206204
0.207061
0.207858
0.208595
0.209273
0.209895
0.210464
0.210983
0.211456
0.211885
0.212274
0.212626
0.212943
0.213229
0.213485
0.213714
0.213918
0.214099
0.21426
0.2144
0.214523
0.21463
0.214723
0.214801
0.214868
0.199966
0.200017
0.200248
0.200654
0.201196
0.201822
0.202489
0.203165
0.203829
0.204468
0.205076
0.205648
0.206182
0.206679
0.20714
0.207565
0.207957
0.208317
0.208647
0.208949
0.209226
0.209478
0.209707
0.209915
0.210104
0.210274
0.210428
0.210567
0.210691
0.210803
0.210902
0.210991
0.21107
0.199954
0.199924
0.199997
0.200187
0.200482
0.200858
0.201285
0.201741
0.202206
0.202668
0.203119
0.203552
0.203963
0.204353
0.204718
0.20506
0.205379
0.205675
0.20595
0.206204
0.206439
0.206656
0.206855
0.207038
0.207206
0.20736
0.207501
0.20763
0.207747
0.207855
0.207952
0.208041
0.208122
0.199949
0.199879
0.199866
0.199926
0.200061
0.200262
0.200513
0.200799
0.201107
0.201425
0.201744
0.20206
0.202366
0.202662
0.202944
0.203212
0.203464
0.203702
0.203926
0.204134
0.204329
0.20451
0.204679
0.204836
0.204981
0.205115
0.20524
0.205355
0.205461
0.205559
0.20565
0.205734
0.205812
0.199947
0.199858
0.199799
0.199785
0.199819
0.199903
0.200029
0.200189
0.200374
0.200576
0.200789
0.201006
0.201223
0.201437
0.201646
0.201847
0.202041
0.202225
0.202401
0.202567
0.202723
0.202871
0.203009
0.203139
0.203261
0.203374
0.203481
0.20358
0.203673
0.20376
0.203841
0.203916
0.203987
0.199947
0.199848
0.199766
0.19971
0.199685
0.199693
0.199734
0.199804
0.199897
0.20001
0.200137
0.200273
0.200415
0.20056
0.200704
0.200848
0.200988
0.201124
0.201256
0.201382
0.201503
0.201618
0.201728
0.201831
0.201929
0.202022
0.20211
0.202193
0.202271
0.202344
0.202414
0.202479
0.202541
0.199946
0.199843
0.19975
0.199672
0.199612
0.199574
0.19956
0.199568
0.199596
0.199642
0.199702
0.199774
0.199854
0.199941
0.200032
0.200125
0.200219
0.200312
0.200404
0.200495
0.200582
0.200667
0.200749
0.200828
0.200904
0.200976
0.201045
0.201111
0.201174
0.201234
0.201291
0.201346
0.201398
0.199946
0.199841
0.199743
0.199652
0.199574
0.199509
0.19946
0.199427
0.199411
0.199409
0.19942
0.199443
0.199475
0.199515
0.199562
0.199612
0.199666
0.199723
0.19978
0.199838
0.199896
0.199954
0.200011
0.200066
0.20012
0.200173
0.200224
0.200274
0.200322
0.200369
0.200414
0.200457
0.200499
0.199946
0.199841
0.199739
0.199643
0.199554
0.199474
0.199405
0.199347
0.199301
0.199266
0.199243
0.19923
0.199226
0.19923
0.199241
0.199258
0.199279
0.199304
0.199332
0.199363
0.199395
0.199429
0.199463
0.199498
0.199533
0.199568
0.199602
0.199637
0.199671
0.199704
0.199737
0.19977
0.199802
0.199946
0.19984
0.199737
0.199638
0.199544
0.199456
0.199375
0.199302
0.199237
0.199181
0.199135
0.199097
0.199067
0.199044
0.199029
0.199019
0.199015
0.199016
0.19902
0.199028
0.199039
0.199052
0.199067
0.199084
0.199103
0.199122
0.199142
0.199163
0.199185
0.199207
0.199229
0.199252
0.199275
0.199946
0.19984
0.199736
0.199636
0.199539
0.199446
0.199359
0.199277
0.199202
0.199133
0.199071
0.199017
0.19897
0.198929
0.198895
0.198866
0.198843
0.198825
0.198812
0.198802
0.198796
0.198794
0.198794
0.198796
0.198801
0.198808
0.198816
0.198826
0.198837
0.198849
0.198863
0.198877
0.198892
0.199946
0.19984
0.199736
0.199635
0.199536
0.199441
0.19935
0.199264
0.199182
0.199106
0.199036
0.198972
0.198914
0.198861
0.198815
0.198774
0.198739
0.198708
0.198683
0.198661
0.198643
0.198629
0.198619
0.198611
0.198606
0.198603
0.198603
0.198605
0.198608
0.198613
0.19862
0.198627
0.198636
0.199946
0.19984
0.199735
0.199634
0.199535
0.199439
0.199346
0.199257
0.199173
0.199093
0.199019
0.19895
0.198886
0.198828
0.198775
0.198728
0.198686
0.198649
0.198616
0.198588
0.198564
0.198543
0.198526
0.198513
0.198502
0.198494
0.198489
0.198486
0.198484
0.198485
0.198487
0.198491
0.198497
0.199946
0.19984
0.199735
0.199633
0.199534
0.199438
0.199345
0.199255
0.19917
0.19909
0.199015
0.198945
0.19888
0.198821
0.198768
0.198719
0.198676
0.198638
0.198604
0.198574
0.198549
0.198528
0.19851
0.198495
0.198483
0.198474
0.198467
0.198463
0.198461
0.19846
0.198461
0.198464
0.198468
0.199946
0.199839
0.199735
0.199633
0.199534
0.199438
0.199346
0.199258
0.199175
0.199097
0.199024
0.198958
0.198897
0.198842
0.198793
0.198749
0.19871
0.198677
0.198648
0.198623
0.198602
0.198585
0.198571
0.19856
0.198552
0.198546
0.198542
0.198541
0.198541
0.198543
0.198546
0.198551
0.198557
0.199946
0.19984
0.199735
0.199634
0.199536
0.199442
0.199352
0.199268
0.19919
0.199118
0.199054
0.198996
0.198944
0.1989
0.198861
0.198828
0.198801
0.198779
0.198761
0.198747
0.198736
0.198729
0.198725
0.198723
0.198723
0.198725
0.198729
0.198734
0.198741
0.198748
0.198757
0.198766
0.198776
0.199946
0.19984
0.199736
0.199636
0.199541
0.199451
0.199368
0.199292
0.199225
0.199167
0.199117
0.199076
0.199042
0.199016
0.198997
0.198983
0.198975
0.198972
0.198972
0.198976
0.198982
0.198991
0.199002
0.199014
0.199028
0.199042
0.199057
0.199073
0.199089
0.199105
0.199122
0.199138
0.199155
0.199946
0.199841
0.199739
0.199643
0.199554
0.199475
0.199405
0.199348
0.199302
0.199268
0.199245
0.199233
0.199229
0.199233
0.199244
0.19926
0.199281
0.199305
0.199332
0.199361
0.199391
0.199422
0.199453
0.199484
0.199515
0.199546
0.199575
0.199605
0.199633
0.19966
0.199686
0.199711
0.199736
0.199947
0.199843
0.199747
0.19966
0.199588
0.19953
0.199491
0.199468
0.199463
0.199473
0.199496
0.19953
0.199573
0.199623
0.199678
0.199736
0.199797
0.199859
0.19992
0.199981
0.200041
0.200099
0.200155
0.200209
0.20026
0.200309
0.200356
0.2004
0.200441
0.20048
0.200517
0.200551
0.200583
0.199948
0.19985
0.199767
0.199705
0.199669
0.199661
0.19968
0.199725
0.199791
0.199875
0.199972
0.200078
0.20019
0.200305
0.20042
0.200535
0.200646
0.200754
0.200858
0.200956
0.20105
0.201138
0.201221
0.201299
0.201372
0.201439
0.201502
0.20156
0.201614
0.201663
0.201709
0.201751
0.20179
0.199951
0.199869
0.199823
0.199821
0.199868
0.199962
0.200096
0.200262
0.20045
0.200651
0.200859
0.201068
0.201274
0.201473
0.201664
0.201845
0.202016
0.202176
0.202325
0.202463
0.20259
0.202708
0.202816
0.202916
0.203006
0.203089
0.203165
0.203234
0.203296
0.203352
0.203403
0.203449
0.20349
0.199959
0.199926
0.199977
0.200121
0.200351
0.20065
0.200994
0.201363
0.20174
0.202113
0.202474
0.202817
0.203138
0.203436
0.203711
0.203964
0.204194
0.204404
0.204594
0.204767
0.204922
0.205062
0.205189
0.205302
0.205403
0.205493
0.205574
0.205645
0.205708
0.205763
0.205812
0.205854
0.20589
0.199987
0.200103
0.200415
0.200903
0.201515
0.202194
0.202891
0.203572
0.204218
0.204817
0.205364
0.205858
0.206303
0.206699
0.207053
0.207366
0.207644
0.207889
0.208105
0.208296
0.208464
0.20861
0.208739
0.20885
0.208947
0.20903
0.209101
0.209161
0.209211
0.209252
0.209286
0.209312
0.209331
0.200091
0.200674
0.201674
0.202931
0.204281
0.205607
0.206839
0.207946
0.208922
0.209773
0.210509
0.211141
0.211684
0.212149
0.212547
0.212886
0.213175
0.213422
0.21363
0.213807
0.213955
0.214078
0.21418
0.214262
0.214328
0.214378
0.214415
0.214441
0.214456
0.214461
0.214458
0.214447
0.214429
0.200506
0.202612
0.20538
0.208231
0.210864
0.213156
0.215082
0.216669
0.217965
0.219016
0.219866
0.220553
0.221106
0.221551
0.221907
0.222192
0.222417
0.222592
0.222726
0.222825
0.222894
0.222938
0.222959
0.222961
0.222947
0.222917
0.222875
0.222822
0.222759
0.222686
0.222606
0.222519
0.222426
0.202133
0.209235
0.216717
0.222799
0.227379
0.23075
0.233208
0.234989
0.236274
0.237194
0.237848
0.238306
0.23862
0.238825
0.238947
0.239004
0.239009
0.238972
0.2389
0.2388
0.238674
0.238528
0.238363
0.238182
0.237986
0.237779
0.23756
0.237332
0.237095
0.236851
0.2366
0.236344
0.236083
0.208298
0.22678
0.244129
0.257372
0.266317
0.271773
0.274802
0.276302
0.276882
0.276921
0.276649
0.276201
0.275653
0.275051
0.274418
0.273766
0.273102
0.272429
0.271748
0.27106
0.270366
0.269666
0.26896
0.268249
0.267535
0.266817
0.266097
0.265376
0.264655
0.263935
0.263217
0.262502
0.261791
0.245774
0.310441
0.343757
0.358932
0.365581
0.368297
0.368992
0.368462
0.367137
0.365299
0.363135
0.360774
0.358305
0.355793
0.353283
0.350808
0.348387
0.346036
0.343763
0.341574
0.33947
0.337453
0.335523
0.333677
0.331914
0.330231
0.328626
0.327095
0.325637
0.324248
0.322925
0.321665
0.320466
0.214305
0.253643
0.294732
0.333812
0.370031
0.403432
0.434077
0.462012
0.487322
0.510132
0.530592
0.548864
0.565115
0.579515
0.592226
0.603407
0.613206
0.621762
0.629203
0.635645
0.641196
0.645953
0.650002
0.653423
0.656286
0.658655
0.660586
0.662129
0.663331
0.66423
0.664862
0.665259
0.665456
0.74
0.839485
1.00175
1.18985
1.38365
1.57034
1.74136
1.8887
2.00658
2.0938
2.153
2.18925
2.2084
2.21575
2.21558
2.21085
2.20345
2.1943
2.18385
2.17224
2.15958
2.14601
2.13168
2.11676
2.10139
2.08563
2.06951
2.05294
2.0358
2.01792
1.99912
1.97927
1.9582
1.93576
1.91183
1.88628
1.85902
1.82992
1.79885
1.7657
1.73038
1.69282
1.65304
1.6111
1.56715
1.52143
1.47421
1.42582
1.3766
1.32694
1.27722
1.22782
1.17912
1.13148
1.08528
1.04087
0.998576
0.958681
0.92143
0.887006
0.855523
0.827029
0.801508
0.778892
0.759075
0.741925
0.727297
0.715046
0.705022
0.697079
0.691066
0.686824
0.684179
0.682942
0.682904
0.68384
0.685513
0.687682
0.69011
0.692572
0.694857
0.69676
0.698077
0.698592
0.698085
0.696382
0.69345
0.689533
0.685275
0.681886
0.68141
0.687114
0.703523
0.735254
0.784537
0.849122
0.922964
0.998857
1.07119
1.15044
0.441115
0.451969
0.473566
0.508178
0.556616
0.619586
0.697391
0.788391
0.889724
0.99715
1.1053
1.21011
1.30816
1.39697
1.47513
1.54186
1.59716
1.64147
1.67572
1.70104
1.71862
1.72963
1.73519
1.73623
1.73351
1.72769
1.71924
1.70852
1.69577
1.68113
1.66472
1.64659
1.62681
1.6054
1.58238
1.55775
1.5315
1.5036
1.47402
1.44274
1.40975
1.37508
1.33881
1.30108
1.26207
1.22204
1.18126
1.14004
1.09869
1.05753
1.01686
0.976992
0.93821
0.900791
0.864995
0.831065
0.799214
0.769623
0.74243
0.717724
0.695541
0.675866
0.658641
0.643771
0.631142
0.620626
0.612097
0.605428
0.600504
0.597209
0.595431
0.595047
0.595929
0.597929
0.600884
0.604616
0.608934
0.613642
0.618548
0.623467
0.628222
0.63264
0.636541
0.639728
0.641997
0.643181
0.643258
0.642471
0.64147
0.641476
0.6446
0.654271
0.675252
0.712291
0.767358
0.837621
0.91643
0.996239
1.0715
1.15269
0.335351
0.330902
0.327272
0.325092
0.325328
0.329026
0.337171
0.350688
0.370739
0.39835
0.434105
0.478197
0.530368
0.589706
0.654922
0.724056
0.794978
0.865027
0.931867
0.993017
1.04707
1.09338
1.13188
1.16293
1.18711
1.20523
1.21802
1.22609
1.22999
1.2302
1.22712
1.22105
1.2123
1.2011
1.18763
1.17208
1.15458
1.13523
1.11413
1.09137
1.06705
1.0413
1.01427
0.986126
0.957099
0.927424
0.897361
0.86717
0.83711
0.807431
0.778368
0.75014
0.722954
0.697001
0.672458
0.649481
0.628207
0.608745
0.591171
0.575525
0.56181
0.549992
0.540009
0.531776
0.525199
0.520178
0.51662
0.514437
0.513549
0.513882
0.515363
0.517911
0.521439
0.525842
0.531003
0.536788
0.543052
0.549641
0.556406
0.563197
0.569874
0.576291
0.582294
0.587707
0.592341
0.596041
0.598786
0.600807
0.602725
0.605725
0.611904
0.624739
0.649126
0.689921
0.748997
0.823282
0.905777
0.988689
1.06646
1.14954
0.316776
0.311655
0.306662
0.301838
0.297311
0.293247
0.289861
0.287438
0.286233
0.286577
0.288902
0.293685
0.30146
0.312731
0.328013
0.347665
0.371963
0.400797
0.433825
0.470108
0.508528
0.547608
0.586135
0.622657
0.656449
0.686799
0.713291
0.735895
0.754644
0.769697
0.781234
0.78945
0.794563
0.796794
0.796362
0.793478
0.788342
0.781137
0.772033
0.761193
0.748782
0.734969
0.719935
0.703877
0.687001
0.669524
0.651663
0.633629
0.615625
0.59784
0.580446
0.563605
0.547464
0.532157
0.51781
0.504532
0.492421
0.481553
0.471982
0.463737
0.456818
0.451204
0.44685
0.4437
0.44169
0.440759
0.440849
0.441911
0.443901
0.446782
0.450515
0.455055
0.460351
0.466337
0.472934
0.480048
0.487573
0.495397
0.503407
0.511488
0.519528
0.527414
0.535015
0.542176
0.548728
0.55453
0.559559
0.564025
0.568498
0.574087
0.582803
0.598067
0.6248
0.667914
0.729365
0.806137
0.89112
0.976365
1.05624
1.14115
0.30024
0.296663
0.293111
0.289569
0.286045
0.282562
0.27916
0.275896
0.272841
0.270061
0.267643
0.265692
0.264349
0.263773
0.264164
0.265739
0.268755
0.273455
0.280081
0.288777
0.299614
0.312462
0.327141
0.343212
0.360299
0.377893
0.395529
0.412706
0.429098
0.444345
0.458171
0.470402
0.480899
0.489597
0.496482
0.501577
0.504936
0.506636
0.506772
0.505449
0.502786
0.498911
0.493961
0.488084
0.481435
0.474172
0.466451
0.458424
0.450234
0.442016
0.433893
0.425981
0.418387
0.411212
0.404551
0.398492
0.393115
0.388486
0.384655
0.381655
0.379498
0.378178
0.377676
0.377962
0.379001
0.380764
0.383222
0.386355
0.390148
0.39459
0.399667
0.405362
0.411651
0.418497
0.425852
0.433656
0.441835
0.450313
0.459009
0.46784
0.476723
0.485569
0.494274
0.502707
0.510722
0.518194
0.525099
0.531622
0.538269
0.546044
0.556816
0.57386
0.602001
0.646139
0.708482
0.786309
0.872633
0.959454
1.04103
1.12767
0.280163
0.278048
0.275906
0.273726
0.271502
0.269237
0.266942
0.264634
0.262332
0.260056
0.257832
0.255685
0.25365
0.251764
0.250078
0.24865
0.247552
0.246866
0.246691
0.247122
0.248261
0.250182
0.252946
0.256564
0.261023
0.266262
0.272205
0.278712
0.285659
0.29289
0.300229
0.307505
0.314557
0.321226
0.327379
0.332904
0.337721
0.341778
0.345048
0.34753
0.349242
0.350223
0.350523
0.350208
0.349352
0.348035
0.346342
0.344355
0.342156
0.339825
0.337438
0.335069
0.33279
0.330674
0.328793
0.327216
0.326008
0.325227
0.32492
0.32512
0.325848
0.327107
0.328894
0.331196
0.333999
0.337291
0.341064
0.345315
0.350046
0.355262
0.360965
0.367156
0.373828
0.380964
0.388543
0.396525
0.404869
0.413526
0.422443
0.431563
0.440832
0.450186
0.459544
0.468803
0.477841
0.486554
0.494924
0.503108
0.511541
0.521111
0.533501
0.551771
0.580504
0.624551
0.686465
0.764017
0.850575
0.938203
1.02103
1.10927
0.261534
0.260393
0.259209
0.257978
0.256692
0.255349
0.253954
0.252513
0.251034
0.249525
0.247995
0.246456
0.244918
0.243394
0.241897
0.240444
0.239056
0.237754
0.23657
0.235536
0.234691
0.234075
0.233727
0.233682
0.23397
0.234611
0.235617
0.23699
0.238721
0.24079
0.243166
0.245802
0.248644
0.251625
0.254672
0.257711
0.260674
0.263497
0.266132
0.26854
0.270698
0.272593
0.274225
0.275604
0.276748
0.27768
0.278428
0.279023
0.279498
0.279886
0.280225
0.280552
0.280911
0.281347
0.281909
0.282644
0.283603
0.284831
0.286363
0.288229
0.290446
0.293023
0.295959
0.299251
0.302894
0.306886
0.311226
0.315924
0.320986
0.326426
0.332255
0.338483
0.345112
0.352142
0.359564
0.367362
0.375515
0.383997
0.392779
0.401828
0.411115
0.420599
0.430224
0.439912
0.449572
0.459123
0.468557
0.47801
0.48785
0.498837
0.51246
0.531478
0.560127
0.603166
0.663504
0.739562
0.825281
0.912923
0.996502
1.08615
0.246468
0.245899
0.245289
0.244635
0.243932
0.243178
0.242373
0.24152
0.240622
0.239684
0.23871
0.237707
0.236679
0.235633
0.234573
0.233506
0.232439
0.231377
0.230332
0.229312
0.228333
0.227408
0.226557
0.225797
0.225147
0.224625
0.224249
0.224033
0.223991
0.224131
0.22446
0.224977
0.225679
0.226553
0.227579
0.228736
0.229995
0.231329
0.232711
0.234119
0.235532
0.236938
0.238327
0.239693
0.241035
0.242354
0.243653
0.244938
0.246215
0.247495
0.248791
0.250119
0.251502
0.252965
0.254537
0.256252
0.258143
0.260239
0.262567
0.265147
0.267989
0.271099
0.274479
0.278126
0.282038
0.286216
0.290666
0.295396
0.300418
0.305748
0.311398
0.317382
0.32371
0.33039
0.337424
0.344808
0.35254
0.360612
0.369013
0.377735
0.386766
0.396087
0.405665
0.415452
0.425384
0.435411
0.445537
0.455883
0.466765
0.47882
0.493325
0.512684
0.540727
0.582039
0.639843
0.713313
0.797154
0.883989
0.967762
1.05854
0.234965
0.234712
0.234427
0.234106
0.233745
0.233343
0.232898
0.232411
0.231884
0.23132
0.230721
0.230091
0.229433
0.228751
0.228049
0.227328
0.226592
0.225844
0.225086
0.224322
0.223556
0.222795
0.222046
0.221317
0.220617
0.219958
0.219349
0.218803
0.21833
0.217942
0.217647
0.217455
0.217373
0.217405
0.217552
0.217814
0.218186
0.218664
0.219241
0.219912
0.22067
0.221512
0.222432
0.223429
0.224499
0.225641
0.22685
0.228127
0.229471
0.230881
0.232363
0.233924
0.235575
0.237332
0.239213
0.241238
0.243429
0.245806
0.248383
0.251172
0.25418
0.257407
0.260851
0.264512
0.268388
0.27248
0.276794
0.281339
0.286127
0.291171
0.296486
0.302085
0.307982
0.314188
0.320712
0.327565
0.334754
0.342283
0.350155
0.358382
0.36697
0.375915
0.38521
0.394832
0.404748
0.414938
0.425424
0.43632
0.447901
0.460693
0.475756
0.495127
0.522182
0.56124
0.615753
0.685684
0.766663
0.85184
0.935176
1.02673
0.226335
0.226255
0.226148
0.226014
0.22585
0.225653
0.225422
0.225157
0.224859
0.22453
0.224172
0.223786
0.223376
0.222944
0.222493
0.222024
0.22154
0.22104
0.220528
0.220002
0.219466
0.218922
0.218372
0.21782
0.217272
0.216732
0.216207
0.215705
0.215231
0.214794
0.214402
0.214063
0.213783
0.21357
0.213432
0.213373
0.213399
0.213514
0.213723
0.214027
0.21443
0.214935
0.215543
0.216254
0.217069
0.217988
0.219008
0.220129
0.221349
0.222669
0.224091
0.22562
0.227263
0.22903
0.230936
0.232993
0.235214
0.237612
0.240194
0.242966
0.245929
0.249081
0.252419
0.255939
0.259641
0.263526
0.267598
0.271865
0.276337
0.281026
0.285946
0.291109
0.296529
0.302222
0.308199
0.314479
0.321076
0.328002
0.335273
0.342913
0.350941
0.359372
0.368218
0.377479
0.387153
0.397247
0.407805
0.418947
0.430909
0.444127
0.459458
0.478576
0.504382
0.540838
0.591509
0.657117
0.734323
0.816978
0.899176
0.991046
0.219852
0.219862
0.219853
0.219823
0.21977
0.219692
0.219587
0.219456
0.219299
0.219116
0.21891
0.218682
0.218435
0.21817
0.217889
0.217594
0.217286
0.216965
0.216633
0.21629
0.215936
0.215573
0.215202
0.214824
0.214443
0.214062
0.213683
0.213312
0.212953
0.21261
0.21229
0.211998
0.211739
0.211522
0.211352
0.211237
0.211184
0.211202
0.211296
0.211474
0.211742
0.212106
0.21257
0.213136
0.213809
0.214587
0.215473
0.216467
0.217569
0.218781
0.220106
0.22155
0.223118
0.22482
0.226665
0.228663
0.230822
0.23315
0.23565
0.238321
0.241163
0.244171
0.247341
0.250669
0.254152
0.257792
0.261592
0.265559
0.2697
0.274025
0.278546
0.283275
0.288226
0.293415
0.298855
0.304567
0.310569
0.316884
0.323535
0.33055
0.337962
0.345799
0.354089
0.362854
0.372115
0.381909
0.392302
0.403421
0.415479
0.428838
0.444175
0.46283
0.487225
0.52089
0.567373
0.628058
0.700683
0.779957
0.860256
0.951884
0.214932
0.214989
0.215032
0.215059
0.215068
0.215058
0.215028
0.214977
0.214906
0.214816
0.214706
0.21458
0.214439
0.214284
0.214118
0.21394
0.213754
0.213558
0.213354
0.213142
0.212923
0.212696
0.212464
0.212226
0.211985
0.211743
0.211502
0.211264
0.211033
0.210812
0.210604
0.210414
0.210246
0.210107
0.210002
0.209938
0.209924
0.209965
0.210071
0.210249
0.210505
0.210846
0.211277
0.211803
0.212425
0.213148
0.213972
0.2149
0.215934
0.217077
0.218334
0.21971
0.221212
0.222849
0.224628
0.226555
0.228638
0.230878
0.233277
0.235832
0.238538
0.241392
0.244386
0.247518
0.250784
0.254185
0.257722
0.261401
0.265227
0.269209
0.273357
0.277681
0.282194
0.286911
0.291847
0.297023
0.302461
0.308186
0.314228
0.32062
0.3274
0.334608
0.342283
0.350464
0.359195
0.368534
0.37857
0.38944
0.401345
0.414587
0.429697
0.447717
0.470613
0.501432
0.543571
0.598932
0.666302
0.741377
0.818969
0.909695
0.21115
0.21123
0.211299
0.211355
0.211398
0.211427
0.21144
0.211438
0.21142
0.211387
0.21134
0.21128
0.211208
0.211127
0.211037
0.210939
0.210836
0.210727
0.210612
0.210494
0.210371
0.210244
0.210115
0.209984
0.209852
0.20972
0.209591
0.209467
0.209348
0.209239
0.209141
0.209058
0.208993
0.208952
0.20894
0.208964
0.209029
0.209143
0.209314
0.209548
0.209852
0.210231
0.210691
0.211235
0.211867
0.21259
0.213407
0.21432
0.215332
0.216449
0.217676
0.219018
0.220483
0.222077
0.223808
0.22568
0.227697
0.22986
0.232168
0.234615
0.237198
0.239909
0.242744
0.245697
0.248765
0.251947
0.255246
0.258664
0.262206
0.265878
0.269688
0.273645
0.277761
0.282049
0.286525
0.291209
0.296124
0.301298
0.306763
0.312554
0.318714
0.325288
0.332324
0.339874
0.347998
0.356772
0.366304
0.376741
0.388279
0.401179
0.415853
0.433096
0.454453
0.482473
0.520283
0.570121
0.631728
0.70186
0.775924
0.86499
0.208208
0.208296
0.208375
0.208446
0.208506
0.208556
0.208594
0.20862
0.208634
0.208637
0.208629
0.208612
0.208586
0.208554
0.208515
0.208473
0.208426
0.208377
0.208325
0.208272
0.208218
0.208164
0.20811
0.208058
0.208008
0.207962
0.207921
0.207886
0.207859
0.207843
0.20784
0.207852
0.207882
0.207936
0.208018
0.208133
0.208288
0.208488
0.20874
0.209051
0.209425
0.209868
0.210384
0.210977
0.21165
0.212406
0.213248
0.214179
0.215204
0.216326
0.217552
0.218888
0.220341
0.221916
0.22362
0.225456
0.227426
0.229528
0.231761
0.234119
0.236596
0.239185
0.24188
0.244677
0.247571
0.250563
0.25365
0.256837
0.260126
0.263522
0.267031
0.270661
0.274421
0.278324
0.282386
0.286625
0.291065
0.295732
0.30066
0.305885
0.311452
0.317408
0.323805
0.330706
0.338178
0.346315
0.355235
0.365096
0.376091
0.388454
0.402511
0.418855
0.438665
0.464004
0.497635
0.541946
0.597473
0.662036
0.73177
0.818341
0.205895
0.205982
0.206064
0.206139
0.206206
0.206266
0.206316
0.206358
0.206392
0.206417
0.206434
0.206444
0.206449
0.206449
0.206445
0.206439
0.206432
0.206424
0.206417
0.20641
0.206406
0.206404
0.206405
0.206411
0.206422
0.20644
0.206466
0.206501
0.206547
0.206606
0.20668
0.206771
0.206883
0.20702
0.207186
0.207385
0.207624
0.207907
0.20824
0.208629
0.209078
0.209591
0.210173
0.210825
0.211552
0.212356
0.21324
0.214207
0.215262
0.216409
0.217654
0.219003
0.220461
0.222035
0.223728
0.225542
0.227479
0.229537
0.23171
0.233994
0.236382
0.238868
0.241444
0.244106
0.246849
0.249673
0.252576
0.255559
0.258625
0.261776
0.265017
0.268355
0.271798
0.275358
0.279048
0.282886
0.286895
0.291101
0.295535
0.300235
0.305242
0.310607
0.316383
0.322635
0.32944
0.336896
0.345133
0.354311
0.364626
0.376291
0.389574
0.404914
0.423184
0.445997
0.475702
0.514655
0.563987
0.622512
0.687178
0.77037
0.204064
0.204146
0.204224
0.204297
0.204366
0.204428
0.204484
0.204534
0.204577
0.204615
0.204647
0.204675
0.204699
0.20472
0.20474
0.204759
0.204779
0.2048
0.204823
0.20485
0.20488
0.204916
0.204957
0.205006
0.205062
0.205128
0.205205
0.205294
0.205396
0.205514
0.20565
0.205805
0.205984
0.20619
0.206426
0.206698
0.20701
0.207366
0.207772
0.208233
0.208751
0.209331
0.209976
0.210688
0.211471
0.212327
0.213258
0.214268
0.215362
0.216542
0.217815
0.219186
0.22066
0.222241
0.223933
0.225736
0.22765
0.229672
0.231798
0.23402
0.236333
0.238728
0.241201
0.243745
0.246357
0.249033
0.251772
0.254574
0.25744
0.260373
0.263375
0.266452
0.269611
0.272862
0.276219
0.279696
0.283316
0.287102
0.291084
0.295298
0.299785
0.304591
0.309772
0.315392
0.321531
0.328289
0.335799
0.344223
0.353754
0.364595
0.376974
0.391219
0.407963
0.428421
0.454511
0.488415
0.531635
0.583843
0.64282
0.721736
0.202609
0.202684
0.202755
0.202823
0.202887
0.202948
0.203004
0.203057
0.203105
0.203149
0.20319
0.203228
0.203264
0.203299
0.203334
0.203369
0.203407
0.203448
0.203492
0.203542
0.203597
0.20366
0.20373
0.20381
0.2039
0.204001
0.204116
0.204245
0.204391
0.204554
0.204738
0.204945
0.205177
0.205439
0.205733
0.206064
0.206437
0.206855
0.207322
0.207843
0.208421
0.20906
0.209761
0.210528
0.211362
0.212267
0.213244
0.214296
0.215429
0.216644
0.217947
0.219343
0.220835
0.222427
0.22412
0.225915
0.227811
0.229802
0.231886
0.234053
0.236299
0.238615
0.240996
0.243434
0.245926
0.248469
0.251061
0.253699
0.256386
0.25912
0.261906
0.264748
0.26765
0.270623
0.273678
0.276829
0.280095
0.283498
0.287068
0.290835
0.294838
0.299122
0.30374
0.308753
0.314241
0.320302
0.327066
0.334694
0.343372
0.353297
0.364671
0.377747
0.392975
0.411244
0.434055
0.463317
0.500688
0.546511
0.599338
0.673116
0.201456
0.20152
0.201582
0.201642
0.201701
0.201757
0.201811
0.201862
0.201911
0.201957
0.202002
0.202045
0.202088
0.202131
0.202175
0.202222
0.202272
0.202325
0.202384
0.20245
0.202522
0.202603
0.202694
0.202796
0.20291
0.203038
0.20318
0.20334
0.203518
0.203716
0.203936
0.204182
0.204456
0.204761
0.205101
0.205479
0.2059
0.206367
0.206884
0.207454
0.208081
0.208768
0.209516
0.210328
0.211206
0.212152
0.213169
0.214259
0.215426
0.216672
0.218002
0.219419
0.220927
0.222527
0.22422
0.226006
0.227882
0.229844
0.231887
0.234003
0.236185
0.238427
0.240721
0.243061
0.245443
0.247862
0.250317
0.252805
0.255325
0.257878
0.260466
0.263091
0.265759
0.268478
0.271257
0.27411
0.277053
0.280108
0.283298
0.286653
0.29021
0.294008
0.298096
0.302534
0.307395
0.312775
0.318795
0.32561
0.333397
0.342347
0.352644
0.364493
0.378218
0.394447
0.41431
0.439388
0.471318
0.510894
0.557315
0.625184
0.200546
0.200599
0.200651
0.200703
0.200754
0.200804
0.200853
0.200901
0.200947
0.200993
0.201039
0.201084
0.20113
0.201178
0.201227
0.20128
0.201337
0.201399
0.201467
0.201543
0.201627
0.201721
0.201826
0.201943
0.202074
0.202219
0.202382
0.202563
0.202764
0.202987
0.203235
0.20351
0.203815
0.204153
0.204527
0.204941
0.205398
0.205902
0.206457
0.207065
0.207729
0.208452
0.209236
0.210084
0.210996
0.211975
0.213023
0.214142
0.215335
0.216605
0.217954
0.219386
0.220902
0.222504
0.224192
0.225964
0.227817
0.229746
0.231745
0.233808
0.235927
0.238094
0.240304
0.242549
0.244825
0.247127
0.249451
0.251796
0.25416
0.256543
0.258945
0.26137
0.263821
0.266304
0.268829
0.271408
0.274054
0.276787
0.279628
0.282605
0.285748
0.289094
0.292688
0.296585
0.300851
0.305574
0.310868
0.316875
0.323761
0.331706
0.340885
0.351473
0.363707
0.378023
0.395243
0.416607
0.443601
0.477256
0.517238
0.578575
0.199839
0.19988
0.199923
0.199965
0.200008
0.200051
0.200094
0.200137
0.20018
0.200224
0.200268
0.200313
0.200359
0.200408
0.20046
0.200516
0.200577
0.200644
0.200718
0.2008
0.200891
0.200992
0.201106
0.201233
0.201374
0.201532
0.201708
0.201903
0.20212
0.20236
0.202627
0.202922
0.203249
0.203609
0.204007
0.204446
0.204929
0.20546
0.20604
0.206675
0.207365
0.208114
0.208923
0.209795
0.21073
0.211731
0.2128
0.213938
0.215147
0.216431
0.21779
0.219227
0.220743
0.222338
0.224012
0.225762
0.227584
0.229473
0.231424
0.233429
0.235481
0.237572
0.239696
0.241845
0.244015
0.246201
0.248398
0.250605
0.252819
0.255038
0.257265
0.259499
0.261746
0.264009
0.266298
0.268621
0.270992
0.273427
0.275946
0.278571
0.281332
0.284259
0.287394
0.290784
0.29449
0.298591
0.303188
0.308409
0.314407
0.321348
0.329397
0.338711
0.349474
0.361988
0.376829