/*--------------------------------*- C++ -*----------------------------------*\
  =========                 |
  \\      /  F ield         | OpenFOAM: The Open Source CFD Toolbox
   \\    /   O peration     | Website:  https://openfoam.org
    \\  /    A nd           | Version:  10
     \\/     M anipulation  |
\*---------------------------------------------------------------------------*/
FoamFile
{
    format      ascii;
    class       volScalarField;
    location    "600";
    object      nut;
}
// * * * * * * * * * * * * * * * * * * * * * * * * * * * * * * * * * * * * * //

dimensions      [0 2 -1 0 0 0 0];

internalField   nonuniform List<scalar> 
6820
(
5.21162e-05
7.23496e-05
8.49505e-05
9.1513e-05
9.4488e-05
9.54258e-05
9.52238e-05
9.44043e-05
9.32789e-05
9.20323e-05
9.07692e-05
8.95458e-05
8.83904e-05
8.73146e-05
8.63208e-05
8.54065e-05
8.45667e-05
8.37955e-05
8.30867e-05
8.24343e-05
8.18327e-05
8.1277e-05
8.07624e-05
8.0285e-05
7.98412e-05
7.94275e-05
7.9041e-05
7.86792e-05
7.83384e-05
7.80214e-05
7.7694e-05
7.75332e-05
7.69159e-05
0.00148779
0.000914493
0.000722323
0.000566084
0.000444964
0.000364553
0.000311028
0.000273876
0.000246824
0.000226543
0.000210743
0.000198387
0.000188226
0.000179923
0.000173046
0.000167271
0.000162378
0.000158205
0.000154621
0.000151532
0.000148851
0.000146523
0.000144487
0.000142709
0.000141144
0.000139771
0.000138559
0.000137484
0.000136524
0.000135648
0.000134875
0.000134236
0.000133147
0.00388235
0.00172611
0.00129522
0.00105715
0.000883652
0.000756981
0.000663656
0.000593356
0.000538664
0.000495233
0.000459796
0.000430505
0.000405792
0.000384681
0.000366443
0.000350544
0.000336558
0.00032418
0.000313144
0.000303268
0.000294374
0.000286345
0.000279062
0.000272438
0.000266396
0.000260868
0.00025579
0.000251136
0.000246832
0.000242872
0.000239151
0.000235771
0.000232347
0.00701486
0.0030933
0.00211865
0.00169399
0.00142842
0.00124176
0.00110356
0.000997709
0.00091404
0.00084652
0.000790848
0.000744251
0.000704636
0.00067055
0.000640868
0.000614811
0.000591704
0.000571109
0.00055258
0.000535877
0.000520671
0.000506846
0.00049413
0.000482502
0.000471702
0.000461795
0.000452494
0.000443958
0.000435847
0.000428413
0.000421244
0.000414684
0.000408209
0.00947863
0.00539463
0.00361892
0.00279675
0.00231358
0.00199145
0.00176049
0.00158676
0.00145106
0.00134225
0.00125307
0.00117871
0.00111575
0.00106178
0.00101496
0.000973997
0.000937792
0.000905616
0.000876753
0.000850791
0.000827214
0.000805809
0.000786165
0.000768206
0.000751566
0.000736275
0.000721979
0.000708789
0.000696351
0.000684831
0.000673879
0.000663679
0.000653902
0.0106282
0.0077634
0.00561755
0.00439956
0.00363522
0.00311496
0.00273997
0.0024579
0.00223822
0.00206259
0.00191911
0.00179984
0.00169918
0.00161318
0.00153884
0.00147401
0.00141693
0.00136636
0.00132118
0.00128066
0.00124402
0.00121083
0.00118052
0.00115284
0.00112734
0.00110389
0.00108214
0.00106202
0.00104321
0.00102573
0.00100929
0.00099391
0.000979367
0.0110845
0.00948062
0.0075788
0.00621461
0.00525
0.00454843
0.00402207
0.00361582
0.00329417
0.00303406
0.00281989
0.00264084
0.00248914
0.00235915
0.00224659
0.00214831
0.00206177
0.00198506
0.00191659
0.00185518
0.00179975
0.00174954
0.00170381
0.00166204
0.00162368
0.00158842
0.00155581
0.00152564
0.00149758
0.00147147
0.00144705
0.00142421
0.00140274
0.0112619
0.0104723
0.00911496
0.00788285
0.00688556
0.00609514
0.00546645
0.00496066
0.00454796
0.00420657
0.00392051
0.00367804
0.00347034
0.00329077
0.00313418
0.00299661
0.0028749
0.00276657
0.00266958
0.00258233
0.00250343
0.00243181
0.0023665
0.00230677
0.00225191
0.0022014
0.00215473
0.0021115
0.00207134
0.00203396
0.00199905
0.00196641
0.0019358
0.0113319
0.0109613
0.0101483
0.00919368
0.00831235
0.00754597
0.00689416
0.0063429
0.00587566
0.00547747
0.00513579
0.00484052
0.00458353
0.00435836
0.00415978
0.00398364
0.00382653
0.00368569
0.00355882
0.00344406
0.00333982
0.00324479
0.00315785
0.00307806
0.00300459
0.00293677
0.00287399
0.00281573
0.00276153
0.00271101
0.0026638
0.00261963
0.0025782
0.0113604
0.011191
0.0107577
0.0101061
0.00941911
0.00876179
0.00816143
0.00762516
0.00715073
0.00673232
0.00636316
0.00603668
0.00574697
0.00548892
0.00525814
0.00505092
0.00486411
0.00469508
0.00454158
0.0044017
0.00427382
0.00415656
0.00404873
0.00394929
0.00385736
0.00377217
0.00369304
0.00361938
0.00355068
0.00348647
0.00342637
0.00337001
0.00331708
0.0113724
0.0112961
0.0110835
0.0106835
0.0102001
0.00969074
0.00919016
0.00871657
0.00827793
0.0078764
0.00751105
0.00717951
0.00687883
0.00660594
0.00635791
0.00613203
0.00592587
0.00573727
0.00556432
0.00540534
0.00525886
0.00512358
0.00499838
0.00488226
0.00477434
0.00467385
0.0045801
0.00449248
0.00441045
0.00433355
0.00426133
0.00419343
0.00412951
0.0113776
0.0113432
0.0112429
0.0110225
0.0107092
0.010347
0.00996381
0.00957921
0.00920551
0.00884964
0.00851499
0.00820274
0.00791273
0.00764407
0.00739548
0.00716553
0.00695272
0.00675564
0.0065729
0.00640327
0.00624557
0.00609875
0.00596187
0.00583406
0.00571455
0.00560263
0.00549768
0.00539913
0.00530647
0.00521924
0.00513702
0.00505946
0.0049862
0.01138
0.0113641
0.0113177
0.0112066
0.0110186
0.0107798
0.0105077
0.0102177
0.00992166
0.00962791
0.00934192
0.00906707
0.00880523
0.00855726
0.00832334
0.00810325
0.00789648
0.00770239
0.00752025
0.00734931
0.00718884
0.00703809
0.00689639
0.00676309
0.00663759
0.00651932
0.00640776
0.00630244
0.00620293
0.00610881
0.00601972
0.00593533
0.00585533
0.0113814
0.0113732
0.0113518
0.0112994
0.0111948
0.0110478
0.0108673
0.0106628
0.0104433
0.010216
0.00998661
0.00975921
0.00953667
0.00932094
0.0091132
0.00891416
0.00872411
0.0085431
0.00837102
0.0082076
0.00805253
0.00790544
0.00776594
0.00763363
0.00750812
0.00738902
0.00727596
0.00716858
0.00706656
0.00696958
0.00687734
0.00678957
0.00670601
0.0113823
0.0113772
0.011367
0.0113426
0.0112898
0.0112045
0.0110919
0.0109563
0.0108031
0.0106375
0.010464
0.0102864
0.0101076
0.00992997
0.00975518
0.00958444
0.00941858
0.00925815
0.00910348
0.00895474
0.00881196
0.0086751
0.00854405
0.00841865
0.00829871
0.00818404
0.00807443
0.00796965
0.00786949
0.00777375
0.0076822
0.00759466
0.00751094
0.0113826
0.0113796
0.0113738
0.0113622
0.0113373
0.011291
0.0112247
0.0111398
0.0110388
0.0109247
0.0108005
0.0106691
0.0105329
0.0103941
0.0102544
0.010115
0.00997723
0.00984173
0.00970914
0.00957991
0.00945432
0.00933258
0.00921479
0.00910101
0.00899123
0.00888542
0.00878351
0.0086854
0.00859102
0.00850023
0.00841293
0.008329
0.00824832
0.0113825
0.0113808
0.0113772
0.011371
0.0113592
0.0113362
0.0112992
0.0112488
0.0111857
0.0111111
0.0110267
0.0109344
0.0108358
0.0107326
0.0106262
0.0105178
0.0104086
0.0102993
0.0101907
0.0100833
0.00997754
0.00987382
0.00977235
0.00967334
0.00957691
0.00948316
0.00939212
0.00930382
0.00921827
0.00913544
0.00905529
0.00897779
0.00890288
0.0113825
0.0113812
0.0113791
0.0113752
0.0113691
0.0113581
0.0113388
0.0113103
0.0112727
0.0112264
0.0111719
0.0111101
0.0110421
0.0109689
0.0108916
0.0108112
0.0107284
0.0106441
0.010559
0.0104735
0.0103882
0.0103034
0.0102195
0.0101368
0.0100554
0.00997548
0.00989723
0.00982072
0.00974603
0.00967319
0.00960225
0.00953322
0.00946609
0.0113825
0.0113813
0.0113798
0.0113776
0.0113737
0.011368
0.0113586
0.0113433
0.0113219
0.0112944
0.0112608
0.0112213
0.0111765
0.011127
0.0110734
0.0110163
0.0109563
0.010894
0.01083
0.0107648
0.0106987
0.0106322
0.0105655
0.010499
0.0104329
0.0103673
0.0103025
0.0102386
0.0101757
0.0101139
0.0100532
0.00999382
0.00993567
0.0113824
0.0113813
0.01138
0.0113785
0.0113762
0.0113727
0.0113676
0.0113599
0.0113483
0.0113326
0.0113127
0.0112886
0.0112604
0.0112283
0.0111927
0.0111538
0.0111122
0.0110681
0.0110219
0.0109741
0.0109249
0.0108747
0.0108237
0.0107722
0.0107204
0.0106685
0.0106167
0.0105651
0.0105138
0.0104631
0.0104129
0.0103634
0.0103146
0.0113824
0.0113813
0.0113801
0.0113788
0.0113773
0.0113751
0.0113721
0.0113676
0.0113616
0.0113531
0.0113418
0.0113275
0.0113104
0.0112904
0.0112677
0.0112423
0.0112145
0.0111844
0.0111524
0.0111186
0.0110833
0.0110467
0.011009
0.0109705
0.0109312
0.0108914
0.0108513
0.0108109
0.0107704
0.0107299
0.0106896
0.0106494
0.0106095
0.0113824
0.0113812
0.0113801
0.0113789
0.0113776
0.0113761
0.0113742
0.0113716
0.011368
0.0113633
0.0113572
0.0113489
0.0113389
0.0113268
0.0113127
0.0112967
0.0112787
0.0112589
0.0112373
0.0112142
0.0111895
0.0111636
0.0111365
0.0111084
0.0110794
0.0110496
0.0110192
0.0109883
0.010957
0.0109253
0.0108935
0.0108616
0.0108295
0.0113824
0.0113812
0.0113801
0.0113789
0.0113778
0.0113765
0.0113751
0.0113734
0.0113712
0.0113684
0.0113646
0.01136
0.0113543
0.011347
0.0113384
0.0113284
0.0113169
0.0113039
0.0112896
0.0112739
0.0112569
0.0112387
0.0112194
0.011199
0.0111777
0.0111555
0.0111326
0.011109
0.0110849
0.0110602
0.0110352
0.0110098
0.0109841
0.0113824
0.0113812
0.0113801
0.0113789
0.0113778
0.0113766
0.0113754
0.0113741
0.0113726
0.0113707
0.0113683
0.0113653
0.0113615
0.0113572
0.0113518
0.0113452
0.0113376
0.0113288
0.0113189
0.0113079
0.0112957
0.0112824
0.0112681
0.0112529
0.0112367
0.0112196
0.0112017
0.0111831
0.0111639
0.0111441
0.0111237
0.0111029
0.0110817
0.0113824
0.0113812
0.0113801
0.0113789
0.0113778
0.0113767
0.0113755
0.0113743
0.011373
0.0113715
0.0113696
0.0113674
0.0113645
0.0113609
0.011357
0.0113521
0.0113461
0.0113392
0.0113314
0.0113225
0.0113126
0.0113017
0.0112899
0.0112771
0.0112634
0.0112488
0.0112335
0.0112174
0.0112006
0.0111832
0.0111653
0.0111468
0.0111279
0.0113824
0.0113812
0.0113801
0.0113789
0.0113778
0.0113766
0.0113755
0.0113742
0.0113729
0.0113712
0.0113693
0.0113668
0.0113638
0.0113602
0.011356
0.0113508
0.0113446
0.0113375
0.0113294
0.0113204
0.0113103
0.0112992
0.0112872
0.0112743
0.0112604
0.0112458
0.0112303
0.0112141
0.0111973
0.0111798
0.0111617
0.0111432
0.0111242
0.0113824
0.0113812
0.0113801
0.0113789
0.0113778
0.0113766
0.0113753
0.0113738
0.0113719
0.0113697
0.0113669
0.0113633
0.0113591
0.0113538
0.0113475
0.0113402
0.0113317
0.0113221
0.0113114
0.0112996
0.0112867
0.0112727
0.0112577
0.0112418
0.011225
0.0112074
0.011189
0.0111699
0.0111501
0.0111298
0.011109
0.0110878
0.0110661
0.0113824
0.0113812
0.0113801
0.0113789
0.0113777
0.0113763
0.0113745
0.0113723
0.0113693
0.0113655
0.0113608
0.0113545
0.0113469
0.0113378
0.0113272
0.0113151
0.0113015
0.0112865
0.01127
0.0112523
0.0112333
0.0112132
0.011192
0.0111699
0.0111468
0.0111231
0.0110986
0.0110735
0.0110479
0.0110219
0.0109955
0.0109688
0.0109418
0.0113824
0.0113813
0.0113801
0.0113789
0.0113773
0.0113753
0.0113724
0.0113683
0.011363
0.0113555
0.0113458
0.0113338
0.0113196
0.0113031
0.0112845
0.0112637
0.0112409
0.0112163
0.01119
0.0111622
0.0111331
0.0111028
0.0110715
0.0110393
0.0110063
0.0109728
0.0109388
0.0109044
0.0108697
0.0108349
0.0108
0.010765
0.0107301
0.0113825
0.0113813
0.0113801
0.0113784
0.011376
0.0113722
0.0113668
0.0113583
0.0113461
0.0113305
0.0113111
0.0112881
0.0112616
0.0112318
0.011199
0.0111636
0.0111257
0.0110857
0.011044
0.0110008
0.0109565
0.0109111
0.0108651
0.0108185
0.0107715
0.0107244
0.0106773
0.0106302
0.0105833
0.0105367
0.0104905
0.0104447
0.0103994
0.0113825
0.0113814
0.0113798
0.0113765
0.011372
0.011364
0.0113499
0.0113298
0.0113037
0.0112714
0.0112333
0.0111899
0.0111418
0.0110896
0.0110339
0.0109753
0.0109144
0.0108517
0.0107878
0.0107229
0.0106575
0.0105919
0.0105263
0.010461
0.0103961
0.0103319
0.0102685
0.0102059
0.0101442
0.0100836
0.0100241
0.00996562
0.00990833
0.0113826
0.011381
0.0113775
0.0113716
0.0113594
0.0113357
0.0113013
0.0112563
0.0112012
0.0111371
0.0110652
0.0109869
0.0109036
0.0108164
0.0107263
0.0106344
0.0105415
0.0104482
0.010355
0.0102624
0.0101709
0.0100806
0.00999183
0.00990475
0.00981949
0.00973614
0.00965476
0.0095754
0.00949807
0.00942278
0.00934952
0.00927826
0.00920898
0.0113825
0.0113788
0.0113715
0.0113527
0.0113123
0.0112512
0.0111713
0.0110751
0.0109656
0.0108458
0.0107188
0.0105868
0.0104521
0.0103163
0.0101807
0.0100464
0.00991416
0.00978457
0.00965804
0.00953487
0.00941524
0.00929928
0.00918702
0.00907847
0.00897359
0.00887233
0.0087746
0.00868032
0.00858937
0.00850166
0.00841706
0.00833546
0.00825675
0.0113813
0.0113725
0.0113446
0.0112755
0.0111624
0.0110161
0.0108447
0.0106562
0.0104574
0.0102539
0.0100496
0.00984758
0.00964986
0.0094578
0.00927229
0.00909383
0.00892265
0.00875881
0.00860221
0.00845268
0.00831
0.00817389
0.00804407
0.00792023
0.00780208
0.00768933
0.00758169
0.00747888
0.00738064
0.00728673
0.00719689
0.00711091
0.00702858
0.0113782
0.0113392
0.0112229
0.0110038
0.0107266
0.0104167
0.0100938
0.00977089
0.00945632
0.00915473
0.00886846
0.00859842
0.0083447
0.00810686
0.00788418
0.00767578
0.00748073
0.00729808
0.00712693
0.00696641
0.00681571
0.00667407
0.00654079
0.00641525
0.00629685
0.00618505
0.00607938
0.00597938
0.00588464
0.0057948
0.0057095
0.00562845
0.00555134
0.0113586
0.011167
0.0107276
0.0101788
0.00961591
0.00907913
0.00858445
0.00813533
0.00773014
0.00736506
0.00703569
0.00673803
0.00646842
0.00622356
0.00600055
0.00579686
0.00561031
0.00543897
0.00528119
0.00513553
0.00500072
0.00487567
0.00475941
0.00465109
0.00454997
0.0044554
0.00436678
0.00428359
0.00420538
0.00413172
0.00406226
0.00399666
0.00393461
0.0112033
0.010286
0.00914597
0.00815386
0.00734259
0.00668178
0.00613782
0.00568278
0.00529722
0.00496616
0.0046794
0.00442907
0.00420897
0.0040142
0.00384081
0.00368562
0.00354602
0.00341987
0.00330539
0.00320107
0.00310568
0.00301815
0.00293758
0.0028632
0.00279433
0.00273041
0.00267094
0.00261547
0.00256364
0.00251509
0.00246954
0.00242673
0.00238642
0.00988212
0.00703463
0.00556296
0.00467247
0.00408052
0.00363708
0.00328471
0.0029951
0.00275425
0.00255228
0.00238141
0.00223559
0.00211009
0.0020012
0.00190599
0.00182214
0.0017478
0.00168149
0.001622
0.00156836
0.00151975
0.00147551
0.00143508
0.00139799
0.00136385
0.00133232
0.00130312
0.00127599
0.00125073
0.00122715
0.00120509
0.00118441
0.00116498
0.00388335
0.00236715
0.00190983
0.00162451
0.00144089
0.0012837
0.00115041
0.00104217
0.000954476
0.000882857
0.00082373
0.000774347
0.000732621
0.000696992
0.000666272
0.00063956
0.000616147
0.000595489
0.000577138
0.000560752
0.000546034
0.000532763
0.000520733
0.000509797
0.000499805
0.00049066
0.000482247
0.000474503
0.000467336
0.000460707
0.000454538
0.000448811
0.000443451
0.000128162
0.00013943
0.0001503
0.000159954
0.000168408
0.000175845
0.000182401
0.000188179
0.000193265
0.000197736
0.000201662
0.000205105
0.00020812
0.000210754
0.000213053
0.000215055
0.000216794
0.000218301
0.000219604
0.000220725
0.000221687
0.000222508
0.000223204
0.000223791
0.00022428
0.000224685
0.000225014
0.000225277
0.000225481
0.000225634
0.000225741
0.000225808
0.000225842
8.35818e-05
9.99427e-05
0.000126797
0.0001614
0.000201657
0.000245919
0.000292769
0.00034027
0.000386539
0.000430334
0.000470872
0.000508286
0.000543051
0.000575773
0.00060719
0.000637772
0.000667976
0.00069788
0.000727586
0.000756959
0.000785951
0.000814508
0.000842678
0.000870489
0.000898044
0.000925458
0.000952785
0.000980061
0.00100728
0.00103444
0.0010615
0.0010885
0.00111563
0.00114275
0.00116986
0.00119704
0.00122436
0.00125193
0.00127978
0.00130808
0.00133691
0.00136625
0.00139615
0.00142658
0.0014576
0.00148926
0.00152166
0.0015549
0.00158917
0.0016247
0.00166181
0.00170087
0.00174229
0.00178652
0.00183398
0.00188509
0.00194018
0.00199953
0.00206338
0.0021319
0.00220522
0.00228349
0.00236683
0.00245537
0.00254921
0.00264841
0.00275297
0.00286281
0.00297775
0.00309758
0.00322199
0.0033507
0.00348337
0.00361968
0.00375933
0.00390187
0.00404696
0.00419411
0.00434289
0.00449281
0.00464345
0.00479444
0.00494548
0.00509637
0.00524717
0.00539825
0.00555029
0.00570398
0.00585986
0.00601914
0.00618734
0.00638089
0.00662947
0.00696637
0.00740745
0.00792039
0.00846472
0.00899084
0.00947372
0.0099719
0.000133364
0.000134086
0.000137955
0.000145449
0.000156255
0.000170211
0.000188124
0.000209694
0.000235491
0.000264649
0.000295718
0.000329191
0.000364111
0.00039995
0.000436465
0.000473083
0.000509698
0.000545706
0.000581145
0.000615475
0.000648768
0.000681014
0.000712435
0.000743015
0.000772951
0.000802434
0.000831543
0.000860374
0.00088898
0.00091741
0.000945675
0.000973777
0.0010018
0.00102979
0.00105783
0.00108601
0.00111444
0.00114327
0.0011726
0.00120254
0.00123318
0.00126459
0.00129679
0.00132983
0.00136372
0.00139852
0.00143431
0.00147124
0.00150947
0.00154927
0.00159094
0.00163487
0.00168147
0.00173117
0.00178439
0.00184151
0.00190286
0.0019687
0.0020392
0.00211451
0.00219473
0.00227993
0.00237018
0.00246554
0.00256604
0.00267168
0.00278235
0.00289796
0.00301825
0.00314299
0.00327184
0.00340455
0.00354077
0.00368024
0.00382269
0.00396772
0.00411508
0.00426433
0.00441511
0.00456703
0.00471979
0.00487312
0.00502682
0.00518077
0.00533515
0.00549045
0.00564747
0.00580689
0.00596912
0.00613552
0.00631234
0.00651851
0.00678713
0.00715988
0.00763789
0.00818266
0.00875659
0.00930223
0.00979713
0.0102974
0.000229
0.000224882
0.00022085
0.000217624
0.000215858
0.00021575
0.000217782
0.000222037
0.000229039
0.000239171
0.000252532
0.000269149
0.000289055
0.000311565
0.000336947
0.000364474
0.000394522
0.000426106
0.000459565
0.000492322
0.000525589
0.000558979
0.000592261
0.000624589
0.000656506
0.000687912
0.000718751
0.000749228
0.000779448
0.00080949
0.000839357
0.000869076
0.000898687
0.00092826
0.000957901
0.000987755
0.00101798
0.00104875
0.00108023
0.00111256
0.00114584
0.00118017
0.00121559
0.00125216
0.0012899
0.00132888
0.00136918
0.00141094
0.00145435
0.00149966
0.00154717
0.00159727
0.00165033
0.00170678
0.001767
0.00183134
0.00190008
0.00197344
0.00205156
0.00213451
0.00222233
0.00231504
0.00241262
0.00251504
0.00262224
0.00273414
0.00285058
0.00297139
0.00309627
0.003225
0.00335721
0.00349269
0.00363111
0.00377226
0.00391597
0.00406182
0.00420977
0.0043594
0.00451046
0.00466264
0.00481584
0.00496986
0.00512459
0.00528001
0.0054364
0.00559437
0.00575484
0.0059184
0.00608535
0.006257
0.00643987
0.00665472
0.00694051
0.00734249
0.00784121
0.00841261
0.00901064
0.0095735
0.0100806
0.0105856
0.000401305
0.000393459
0.000385485
0.000377875
0.000371046
0.000364898
0.000359678
0.000355375
0.000352151
0.000349791
0.000348725
0.000348899
0.000351058
0.000355113
0.00036201
0.00037153
0.000384734
0.00040105
0.000421463
0.000444519
0.000470607
0.000497527
0.000527036
0.000555
0.000585393
0.000614646
0.000643767
0.00067352
0.000703642
0.000734011
0.000764492
0.000795162
0.000825969
0.000856973
0.000888271
0.00092001
0.000952366
0.000985532
0.0010197
0.00105502
0.00109165
0.00112966
0.00116914
0.00121014
0.0012527
0.00129688
0.00134278
0.00139051
0.00144026
0.00149227
0.00154683
0.00160427
0.00166495
0.00172923
0.00179746
0.00186992
0.00194683
0.00202835
0.00211456
0.00220546
0.00230102
0.00240117
0.0025058
0.00261481
0.00272805
0.00284537
0.00296652
0.00309134
0.00321946
0.00335069
0.00348464
0.00362119
0.00375997
0.00390094
0.00404391
0.00418857
0.00433511
0.00448308
0.00463234
0.00478277
0.00493446
0.00508724
0.0052411
0.0053961
0.00555265
0.00571147
0.00587358
0.00603944
0.00620919
0.00638394
0.00656994
0.00678917
0.00709115
0.0075081
0.00801753
0.00860864
0.00922542
0.00980334
0.0103229
0.0108353
0.000643212
0.000631387
0.000619756
0.000608536
0.000598147
0.000588413
0.000579536
0.000571269
0.000563823
0.000556756
0.000550282
0.000543985
0.000538323
0.000532998
0.000528746
0.000525361
0.000523823
0.000523949
0.000526893
0.000532308
0.000541281
0.000552814
0.00056803
0.000585334
0.000605745
0.00062794
0.000652795
0.000677338
0.000704608
0.000731839
0.000759827
0.000788945
0.00081876
0.000849515
0.000881212
0.00091392
0.00094776
0.00098289
0.00101948
0.00105768
0.00109763
0.00113943
0.00118316
0.00122887
0.00127659
0.00132639
0.00137835
0.00143257
0.0014892
0.00154845
0.00161057
0.00167582
0.00174451
0.00181693
0.00189333
0.00197394
0.0020589
0.00214828
0.00224209
0.00234026
0.00244269
0.00254923
0.00265969
0.00277391
0.00289164
0.00301272
0.00313681
0.00326375
0.00339314
0.00352485
0.00365844
0.00379393
0.00393087
0.00406943
0.00420937
0.00435054
0.00449341
0.00463739
0.00478255
0.00492897
0.005077
0.00522637
0.00537717
0.00552959
0.00568413
0.00584168
0.00600329
0.00616925
0.00633961
0.00651504
0.00670121
0.00692471
0.00723724
0.00765325
0.00816781
0.00876998
0.00940018
0.00999101
0.0105233
0.0110457
0.000963416
0.000945987
0.000929128
0.000912921
0.000897746
0.000883464
0.00087024
0.000857806
0.000846309
0.000835351
0.000825065
0.000815062
0.000805618
0.000796445
0.000787973
0.00077999
0.000773023
0.000766902
0.000762235
0.000758735
0.000757152
0.000757194
0.000759602
0.000764041
0.000771153
0.000780533
0.000792874
0.000807505
0.000824763
0.000844826
0.000867092
0.000891156
0.000917858
0.000946136
0.000976082
0.00100776
0.00104126
0.00107671
0.00111424
0.00115398
0.00119604
0.00124051
0.00128746
0.00133692
0.00138893
0.00144353
0.00150077
0.00156071
0.00162346
0.00168918
0.00175803
0.00183023
0.00190597
0.00198547
0.0020689
0.00215637
0.00224796
0.00234365
0.00244339
0.00254703
0.0026544
0.00276528
0.00287944
0.00299666
0.00311662
0.00323914
0.00336383
0.00349056
0.00361888
0.00374872
0.00387963
0.00401169
0.00414444
0.00427822
0.0044127
0.00454807
0.00468495
0.00482251
0.00496121
0.00510138
0.00524357
0.00538721
0.00553262
0.0056801
0.00583028
0.0059842
0.00614297
0.0063065
0.00647509
0.00664858
0.00683297
0.00706181
0.00737343
0.00777866
0.00829153
0.00889652
0.0095346
0.0101359
0.0106811
0.0112159
0.00137924
0.00135373
0.00132924
0.0013058
0.0012837
0.00126285
0.00124335
0.00122497
0.00120778
0.00119147
0.00117608
0.00116134
0.0011474
0.0011341
0.00112171
0.0011101
0.00109962
0.00109009
0.00108193
0.00107483
0.00106933
0.00106505
0.00106253
0.00106159
0.00106271
0.0010654
0.00107049
0.00107793
0.00108765
0.00109977
0.00111452
0.00113171
0.00115175
0.00117444
0.00119969
0.00122756
0.00125809
0.00129138
0.00132749
0.00136652
0.00140854
0.00145358
0.0015017
0.0015529
0.00160719
0.00166457
0.00172505
0.00178867
0.00185547
0.00192554
0.00199897
0.00207589
0.00215643
0.0022407
0.00232879
0.00242072
0.00251648
0.00261599
0.00271911
0.00282564
0.00293536
0.00304798
0.00316324
0.00328085
0.00340047
0.00352191
0.00364471
0.0037688
0.00389366
0.0040193
0.00414523
0.0042716
0.00439792
0.00452465
0.00465136
0.0047789
0.00490759
0.00503628
0.00516661
0.0052984
0.00543281
0.00556841
0.00570606
0.00584623
0.00598965
0.00613753
0.00629097
0.00644935
0.00661359
0.00678243
0.00696781
0.00719675
0.00749636
0.00788616
0.00838918
0.00898875
0.00962882
0.0102378
0.0107955
0.0113449
0.00190233
0.0018661
0.00183143
0.0017983
0.0017669
0.00173718
0.00170917
0.00168269
0.00165775
0.00163408
0.00161169
0.00159037
0.00157021
0.00155112
0.0015333
0.0015167
0.00150158
0.00148778
0.00147572
0.00146489
0.00145627
0.00144825
0.00144288
0.00143891
0.00143689
0.0014368
0.00143871
0.0014427
0.00144885
0.00145721
0.00146796
0.00148112
0.00149689
0.00151539
0.00153671
0.00156097
0.0015883
0.0016188
0.00165259
0.00168974
0.00173033
0.0017744
0.00182197
0.00187304
0.0019276
0.00198563
0.00204711
0.00211204
0.00218043
0.0022523
0.0023277
0.00240668
0.00248931
0.00257562
0.00266562
0.00275926
0.00285647
0.00295709
0.00306091
0.00316768
0.00327712
0.0033889
0.00350272
0.00361826
0.00373512
0.00385315
0.00397177
0.00409105
0.00421035
0.00432974
0.00444868
0.00456738
0.00468537
0.00480293
0.00492016
0.00503829
0.00515707
0.00527388
0.00539565
0.00551657
0.00564191
0.00576717
0.00589488
0.00602551
0.00615989
0.00629936
0.00644497
0.00659574
0.00675215
0.00692034
0.00710339
0.00732304
0.00760588
0.00797701
0.00846174
0.00904771
0.00968343
0.0102964
0.0108658
0.0114315
0.0025329
0.00248388
0.00243695
0.00239208
0.00234937
0.00230879
0.00227031
0.00223379
0.00219919
0.0021663
0.00213508
0.00210539
0.00207726
0.00205065
0.00202572
0.00200244
0.00198102
0.00196138
0.00194383
0.00192802
0.00191455
0.00190274
0.00189322
0.00188566
0.00188045
0.001877
0.00187623
0.00187755
0.00188122
0.00188719
0.00189555
0.00190638
0.00191977
0.00193587
0.00195482
0.00197677
0.00200189
0.0020303
0.00206215
0.00209753
0.00213653
0.00217919
0.00222553
0.00227556
0.00232926
0.00238659
0.00244754
0.00251206
0.00258016
0.00265182
0.00272706
0.00280589
0.00288833
0.00297435
0.00306391
0.00315691
0.00325322
0.0033526
0.00345483
0.00355957
0.00366653
0.00377528
0.00388556
0.00399696
0.00410907
0.00422177
0.00433434
0.00444709
0.0045591
0.00467056
0.0047809
0.00489037
0.00499844
0.00510473
0.00521229
0.00531967
0.00542888
0.00553607
0.00564435
0.00575375
0.00586585
0.00597932
0.00609527
0.00621443
0.00633775
0.00646666
0.00660246
0.0067446
0.00689454
0.00705479
0.00723078
0.00743935
0.00770344
0.00805124
0.0085105
0.00907492
0.0096995
0.010312
0.0108913
0.0114744
0.00325913
0.00319631
0.00313605
0.00307831
0.00302313
0.00297046
0.00292027
0.00287243
0.00282688
0.00278345
0.00274209
0.00270268
0.00266524
0.00262975
0.00259631
0.00256496
0.00253583
0.00250891
0.00248438
0.00246212
0.00244239
0.00242498
0.00241007
0.00239763
0.00238773
0.0023804
0.00237564
0.00237296
0.00237352
0.00237647
0.00238206
0.00239035
0.00240133
0.00241517
0.00243196
0.00245184
0.00247498
0.00250149
0.00253152
0.00256515
0.00260245
0.00264347
0.00268823
0.0027367
0.00278887
0.0028447
0.00290413
0.00296714
0.00303368
0.00310375
0.00317734
0.00325442
0.00333499
0.00341898
0.00350633
0.00359689
0.00369047
0.00378681
0.00388564
0.00398659
0.00408929
0.00419331
0.00429839
0.00440401
0.00450982
0.00461569
0.00472072
0.00482562
0.00492897
0.00503113
0.00513157
0.00523093
0.00532726
0.00542599
0.00552252
0.00561781
0.005714
0.00580942
0.00590483
0.00600115
0.00609948
0.00619966
0.00630244
0.00640861
0.00651922
0.00663578
0.00675976
0.0068913
0.00703161
0.00718238
0.00734889
0.00754415
0.00778796
0.00810893
0.00853686
0.00907231
0.00967856
0.0102853
0.0108717
0.0114724
0.00405937
0.0039831
0.00390972
0.00383918
0.00377148
0.00370657
0.00364442
0.00358492
0.003528
0.00347354
0.00342147
0.00337172
0.00332428
0.00327917
0.00323644
0.00319615
0.0031584
0.00312321
0.00309071
0.00306086
0.00303379
0.00300948
0.00298797
0.00296929
0.00295349
0.00294057
0.00293062
0.00292344
0.00291944
0.00291767
0.00291942
0.00292409
0.00293162
0.00294232
0.00295612
0.00297319
0.00299367
0.00301764
0.00304522
0.00307648
0.00311148
0.00315023
0.00319273
0.00323894
0.00328882
0.0033423
0.00339932
0.00345983
0.00352379
0.00359115
0.00366188
0.00373596
0.00381334
0.00389395
0.00397768
0.00406434
0.00415375
0.00424559
0.00433957
0.00443528
0.0045323
0.00463018
0.00472875
0.00482724
0.0049255
0.0050233
0.0051196
0.00521569
0.00530912
0.00540058
0.00549034
0.00558044
0.00566818
0.00575397
0.00583857
0.00592171
0.00600467
0.00608709
0.00616928
0.00625196
0.00633613
0.00642219
0.00651086
0.00660299
0.00669971
0.00680257
0.00691317
0.00703222
0.00716076
0.00730028
0.00745523
0.00763558
0.00785812
0.00814999
0.00854219
0.00904205
0.00962263
0.0102172
0.0108071
0.0114245
0.00490557
0.00481757
0.00473258
0.00465056
0.00457148
0.00449533
0.00442206
0.00435159
0.00428388
0.00421883
0.00415639
0.00409651
0.0040392
0.00398447
0.00393237
0.00388295
0.00383631
0.00379249
0.00375157
0.00371359
0.0036786
0.00364664
0.00361776
0.00359198
0.00356936
0.00354986
0.00353364
0.00352045
0.00351076
0.00350375
0.00350076
0.00350003
0.00350283
0.00350934
0.00351888
0.00353204
0.00354877
0.0035691
0.00359317
0.00362104
0.00365271
0.00368817
0.00372739
0.00377032
0.00381689
0.00386699
0.00392056
0.00397751
0.00403777
0.0041013
0.00416803
0.00423793
0.00431092
0.0043869
0.00446573
0.00454722
0.00463119
0.00471722
0.00480509
0.00489426
0.00498433
0.00507489
0.0051658
0.00525592
0.00534562
0.00543422
0.00552078
0.00560727
0.00568937
0.00577184
0.00585233
0.00593003
0.00600608
0.00607992
0.00615218
0.00622279
0.00629251
0.00636154
0.00643018
0.00649902
0.00656891
0.00664052
0.00671461
0.00679212
0.00687421
0.00696247
0.00705859
0.00716371
0.00727887
0.00740552
0.00754724
0.00771155
0.00791232
0.00817403
0.00852762
0.00898639
0.00953414
0.0101096
0.0106977
0.0113298
0.00576697
0.00567011
0.00557613
0.00548503
0.0053968
0.00531142
0.00522888
0.00514913
0.00507213
0.00499785
0.00492624
0.0048573
0.00479103
0.00472747
0.00466665
0.00460865
0.00455355
0.00450139
0.00445226
0.00440621
0.00436329
0.00432357
0.00428708
0.00425387
0.00422399
0.00419742
0.00417431
0.00415446
0.00413822
0.0041251
0.00411581
0.00410951
0.00410722
0.00410793
0.00411177
0.00412016
0.00413198
0.00414746
0.0041669
0.00419024
0.0042174
0.00424839
0.00428319
0.00432167
0.00436374
0.0044093
0.00445823
0.00451045
0.00456585
0.00462437
0.00468591
0.00475043
0.00481783
0.00488793
0.00496063
0.00503573
0.00511302
0.00519201
0.00527259
0.00535397
0.00543588
0.00551806
0.0056002
0.00568075
0.005761
0.00583922
0.00591525
0.00599137
0.00606465
0.00613521
0.0062039
0.00626997
0.00633393
0.00639554
0.00645524
0.00651312
0.00656966
0.00662525
0.00668029
0.0067353
0.00679101
0.00684818
0.00690763
0.00697033
0.0070375
0.0071107
0.00719171
0.00728192
0.00738256
0.00749504
0.00762225
0.00776975
0.00794871
0.00818019
0.00849386
0.00890746
0.00941577
0.00996449
0.0105445
0.0111876
0.00661334
0.00651126
0.00641173
0.00631476
0.00622039
0.00612861
0.00603943
0.00595285
0.00586887
0.00578747
0.00570866
0.00563244
0.00555885
0.00548793
0.00541974
0.00535436
0.00529185
0.00523229
0.00517576
0.00512233
0.00507206
0.00502501
0.00498125
0.00494082
0.00490379
0.00487015
0.00484003
0.00481332
0.00479023
0.00477052
0.00475455
0.00474198
0.00473315
0.00472804
0.00472591
0.00472865
0.00473421
0.00474377
0.00475772
0.00477548
0.00479698
0.0048224
0.00485166
0.0048845
0.00492092
0.00496074
0.00500385
0.00505015
0.0050995
0.00515182
0.00520698
0.00526493
0.0053255
0.00538849
0.00545385
0.00552137
0.00559078
0.00566154
0.00573366
0.00580595
0.00587862
0.00595147
0.00602372
0.00609342
0.00616352
0.00623208
0.00629725
0.00636128
0.006423
0.00648197
0.00653861
0.0065926
0.00664418
0.00669333
0.00674035
0.0067854
0.00682887
0.00687116
0.00691274
0.00695409
0.0069959
0.0070389
0.00708394
0.007132
0.0071843
0.00724239
0.00730806
0.00738289
0.00746827
0.00756567
0.00767743
0.00780768