/*--------------------------------*- C++ -*----------------------------------*\
  =========                 |
  \\      /  F ield         | OpenFOAM: The Open Source CFD Toolbox
   \\    /   O peration     | Website:  https://openfoam.org
    \\  /    A nd           | Version:  10
     \\/     M anipulation  |
\*---------------------------------------------------------------------------*/
FoamFile
{
    format      ascii;
    class       volScalarField;
    location    "600";
    object      p;
}
// * * * * * * * * * * * * * * * * * * * * * * * * * * * * * * * * * * * * * //

dimensions      [0 2 -2 0 0 0 0];

internalField   nonuniform List<scalar> 
6820
(
6.85134
-4.03847
-7.55767
-8.29124
-8.69253
-9.03106
-9.22352
-9.31997
-9.38539
-9.43984
-9.48406
-9.51979
-9.55034
-9.57771
-9.60266
-9.6256
-9.64697
-9.66711
-9.68624
-9.70452
-9.72207
-9.73898
-9.7553
-9.77105
-9.78624
-9.80081
-9.81465
-9.8276
-9.83927
-9.84937
-9.85602
-9.86076
-9.8427
-15.0366
-11.3587
-10.6138
-9.84454
-9.47973
-9.41332
-9.41156
-9.41539
-9.43346
-9.46263
-9.49338
-9.52204
-9.54887
-9.57428
-9.59822
-9.62069
-9.6419
-9.66204
-9.68126
-9.69967
-9.71737
-9.73445
-9.75094
-9.76688
-9.78228
-9.7971
-9.81127
-9.8247
-9.8371
-9.84848
-9.85774
-9.86706
-9.86986
-12.888
-9.31391
-9.0586
-9.06049
-9.05423
-9.15265
-9.25331
-9.32105
-9.37553
-9.42539
-9.46867
-9.50526
-9.53716
-9.56579
-9.59182
-9.61571
-9.63789
-9.65871
-9.67842
-9.69719
-9.71517
-9.73246
-9.74914
-9.76526
-9.78084
-9.79588
-9.81034
-9.82417
-9.83724
-9.84966
-9.861
-9.87324
-9.88364
-10.3989
-8.9398
-9.09048
-9.20658
-9.1912
-9.2465
-9.31706
-9.36574
-9.40575
-9.44467
-9.48045
-9.51213
-9.54073
-9.56711
-9.59162
-9.6145
-9.636
-9.65638
-9.67581
-9.69441
-9.71231
-9.72958
-9.7463
-9.76251
-9.77824
-9.7935
-9.80829
-9.82263
-9.83649
-9.85008
-9.86341
-9.87787
-9.8929
-9.93952
-9.24213
-9.28259
-9.29879
-9.25453
-9.28217
-9.33449
-9.37555
-9.41169
-9.4478
-9.4818
-9.51254
-9.54061
-9.56663
-9.59088
-9.61358
-9.63497
-9.65526
-9.67462
-9.69319
-9.71106
-9.72834
-9.74509
-9.76137
-9.77722
-9.79267
-9.80777
-9.82256
-9.83713
-9.85173
-9.86659
-9.88276
-9.90051
-9.87418
-9.399
-9.35288
-9.33089
-9.29208
-9.31058
-9.35227
-9.38875
-9.42224
-9.45571
-9.48754
-9.51675
-9.54369
-9.56881
-9.59236
-9.61451
-9.63548
-9.65543
-9.67454
-9.6929
-9.71063
-9.72782
-9.74452
-9.7608
-9.77672
-9.79233
-9.80768
-9.82289
-9.83808
-9.85352
-9.86956
-9.88698
-9.90635
-9.75886
-9.43281
-9.38067
-9.3579
-9.32898
-9.34159
-9.37401
-9.4053
-9.43535
-9.46569
-9.49498
-9.52236
-9.54795
-9.57203
-9.59477
-9.61629
-9.63677
-9.65635
-9.67515
-9.69329
-9.71085
-9.72792
-9.74455
-9.76083
-9.7768
-9.79254
-9.80813
-9.82369
-9.83939
-9.8555
-9.87237
-9.89061
-9.91078
-9.65277
-9.44769
-9.40521
-9.38499
-9.36266
-9.37093
-9.3959
-9.42236
-9.44904
-9.4764
-9.50327
-9.52884
-9.55307
-9.57608
-9.59797
-9.61883
-9.63878
-9.65794
-9.6764
-9.69428
-9.71163
-9.72855
-9.74509
-9.76133
-9.77732
-9.79316
-9.80893
-9.82478
-9.84086
-9.85745
-9.87485
-9.89353
-9.91394
-9.58381
-9.46094
-9.42539
-9.40734
-9.39051
-9.39646
-9.41616
-9.43875
-9.46252
-9.48728
-9.51196
-9.53583
-9.55873
-9.58068
-9.60171
-9.62188
-9.64128
-9.66
-9.67811
-9.69569
-9.71282
-9.72957
-9.746
-9.76217
-9.77817
-9.79406
-9.80997
-9.82601
-9.84235
-9.85923
-9.87691
-9.89573
-9.91602
-9.54149
-9.46959
-9.44015
-9.425
-9.41313
-9.41817
-9.43433
-9.45395
-9.47531
-9.49784
-9.5206
-9.54291
-9.56456
-9.58549
-9.6057
-9.6252
-9.64405
-9.66232
-9.68006
-9.69735
-9.71425
-9.73082
-9.74712
-9.76321
-9.77918
-9.7951
-9.81107
-9.82722
-9.84371
-9.86072
-9.87847
-9.89719
-9.91712
-9.51569
-9.47465
-9.45147
-9.43947
-9.43169
-9.43651
-9.45029
-9.46768
-9.48706
-9.50772
-9.52881
-9.54973
-9.57025
-9.59024
-9.60967
-9.62854
-9.64686
-9.6647
-9.68208
-9.69908
-9.71574
-9.73212
-9.74828
-9.76428
-9.78019
-9.79609
-9.81207
-9.82825
-9.84477
-9.86177
-9.87942
-9.89787
-9.91729
-9.50089
-9.47825
-9.4609
-9.4518
-9.44717
-9.45205
-9.4642
-9.47987
-9.49763
-9.51672
-9.53638
-9.55609
-9.57558
-9.59472
-9.61343
-9.6317
-9.64953
-9.66695
-9.68399
-9.70071
-9.71713
-9.73332
-9.74933
-9.76521
-9.78103
-9.79687
-9.81281
-9.82894
-9.84538
-9.86225
-9.87967
-9.89773
-9.91653
-9.49357
-9.48162
-9.46918
-9.4626
-9.46034
-9.46538
-9.47636
-9.49067
-9.50706
-9.52481
-9.54323
-9.56186
-9.58043
-9.59879
-9.61684
-9.63455
-9.65191
-9.66894
-9.68565
-9.70209
-9.71828
-9.73427
-9.75012
-9.76586
-9.78157
-9.7973
-9.81313
-9.82914
-9.84543
-9.86206
-9.87914
-9.89672
-9.91483
-9.4912
-9.48524
-9.47672
-9.4723
-9.47178
-9.47698
-9.48708
-9.50026
-9.51547
-9.53204
-9.54937
-9.56703
-9.58475
-9.60238
-9.61981
-9.637
-9.65392
-9.67056
-9.68696
-9.70312
-9.71907
-9.73486
-9.75053
-9.76611
-9.78167
-9.79725
-9.81293
-9.82875
-9.8448
-9.86112
-9.87778
-9.89481
-9.91222
-9.49204
-9.48931
-9.48379
-9.48115
-9.48193
-9.48724
-9.49663
-9.50884
-9.52301
-9.53852
-9.55484
-9.57161
-9.58854
-9.60549
-9.62233
-9.63901
-9.6555
-9.67178
-9.68785
-9.70373
-9.71944
-9.73502
-9.75048
-9.76588
-9.78125
-9.79665
-9.81211
-9.82769
-9.84343
-9.85939
-9.87558
-9.89202
-9.9087
-9.49489
-9.49384
-9.49054
-9.48932
-9.49105
-9.49643
-9.50523
-9.51659
-9.5298
-9.54433
-9.55974
-9.57566
-9.59184
-9.60813
-9.6244
-9.64059
-9.65665
-9.67255
-9.6883
-9.7039
-9.71935
-9.73469
-9.74994
-9.76512
-9.78027
-9.79543
-9.81063
-9.82592
-9.84131
-9.85684
-9.87252
-9.88834
-9.9043
-9.499
-9.49875
-9.49704
-9.49694
-9.49933
-9.50474
-9.51303
-9.52361
-9.53595
-9.54959
-9.56412
-9.57923
-9.5947
-9.61034
-9.62606
-9.64175
-9.65738
-9.6729
-9.68831
-9.70361
-9.71879
-9.73387
-9.74887
-9.7638
-9.7787
-9.79359
-9.80849
-9.82343
-9.83843
-9.8535
-9.86863
-9.88384
-9.89907
-9.50383
-9.50395
-9.50333
-9.50406
-9.50691
-9.51228
-9.52011
-9.53
-9.54153
-9.55433
-9.56804
-9.58238
-9.59715
-9.61216
-9.62732
-9.64252
-9.65771
-9.67284
-9.68791
-9.70288
-9.71776
-9.73256
-9.74728
-9.76194
-9.77655
-9.79113
-9.8057
-9.82026
-9.83482
-9.8494
-9.86398
-9.87855
-9.89308
-9.50906
-9.50931
-9.50943
-9.51073
-9.51387
-9.51914
-9.52654
-9.53579
-9.54658
-9.55859
-9.57152
-9.58513
-9.59922
-9.61362
-9.62822
-9.64292
-9.65767
-9.6724
-9.6871
-9.70174
-9.7163
-9.7308
-9.74521
-9.75956
-9.77385
-9.78809
-9.80228
-9.81644
-9.83055
-9.84462
-9.85863
-9.87257
-9.88641
-9.51447
-9.51475
-9.51532
-9.517
-9.52027
-9.52539
-9.53236
-9.54102
-9.55111
-9.56239
-9.57458
-9.58749
-9.60092
-9.61472
-9.62878
-9.64299
-9.65728
-9.67161
-9.68592
-9.70021
-9.71443
-9.7286
-9.74269
-9.7567
-9.77065
-9.78451
-9.79831
-9.81203
-9.82566
-9.83921
-9.85265
-9.86597
-9.87914
-9.5199
-9.52017
-9.521
-9.52287
-9.52615
-9.53105
-9.5376
-9.54569
-9.55513
-9.5657
-9.57721
-9.58945
-9.60225
-9.61547
-9.62899
-9.64271
-9.65655
-9.67046
-9.68439
-9.69831
-9.71218
-9.726
-9.73974
-9.7534
-9.76697
-9.78045
-9.79383
-9.80709
-9.82024
-9.83326
-9.84613
-9.85884
-9.87135
-9.52527
-9.52552
-9.52646
-9.52837
-9.53154
-9.53615
-9.54226
-9.54979
-9.5586
-9.56853
-9.57938
-9.59099
-9.60319
-9.61585
-9.62885
-9.64209
-9.65549
-9.66898
-9.68252
-9.69606
-9.70957
-9.72303
-9.7364
-9.74969
-9.76288
-9.77595
-9.78889
-9.8017
-9.81436
-9.82684
-9.83915
-9.85125
-9.86313
-9.53053
-9.53075
-9.53168
-9.5335
-9.53645
-9.54071
-9.54635
-9.55332
-9.56153
-9.57082
-9.58105
-9.59206
-9.6037
-9.61582
-9.62832
-9.6411
-9.65407
-9.66716
-9.68031
-9.69347
-9.70661
-9.7197
-9.73271
-9.74562
-9.75841
-9.77107
-9.78357
-9.79591
-9.80807
-9.82003
-9.83178
-9.8433
-9.85456
-9.53566
-9.53586
-9.53668
-9.53828
-9.5409
-9.54473
-9.54985
-9.55625
-9.56386
-9.57255
-9.58219
-9.59263
-9.60373
-9.61536
-9.62739
-9.63973
-9.65228
-9.66498
-9.67775
-9.69054
-9.70332
-9.71604
-9.72868
-9.74121
-9.7536
-9.76584
-9.7779
-9.78978
-9.80145
-9.81289
-9.82409
-9.83504
-9.8457
-9.54068
-9.54086
-9.54147
-9.54272
-9.54489
-9.54819
-9.55273
-9.55854
-9.56555
-9.57366
-9.58274
-9.59265
-9.60325
-9.61441
-9.62601
-9.63794
-9.6501
-9.66242
-9.67483
-9.68727
-9.69969
-9.71206
-9.72433
-9.73647
-9.74847
-9.76029
-9.77193
-9.78335
-9.79453
-9.80547
-9.81615
-9.82654
-9.83663
-9.54563
-9.54579
-9.54609
-9.54683
-9.5484
-9.55107
-9.55498
-9.56015
-9.56655
-9.57409
-9.58264
-9.59206
-9.6022
-9.61293
-9.62413
-9.63568
-9.64749
-9.65946
-9.67153
-9.68364
-9.69572
-9.70774
-9.71966
-9.73143
-9.74305
-9.75447
-9.76568
-9.77665
-9.78737
-9.79782
-9.80799
-9.81785
-9.82739
-9.55061
-9.55074
-9.55059
-9.55063
-9.55144
-9.55334
-9.55651
-9.561
-9.56679
-9.57377
-9.58181
-9.59077
-9.6005
-9.61085
-9.6217
-9.63291
-9.6444
-9.65606
-9.66783
-9.67962
-9.69139
-9.70308
-9.71466
-9.72609
-9.73733
-9.74837
-9.75917
-9.76972
-9.77999
-9.78997
-9.79964
-9.809
-9.81802
-9.55578
-9.55588
-9.55508
-9.55415
-9.55396
-9.55493
-9.55725
-9.561
-9.56615
-9.57259
-9.58016
-9.58871
-9.59808
-9.6081
-9.61864
-9.62958
-9.64079
-9.65218
-9.66367
-9.67519
-9.68667
-9.69807
-9.70933
-9.72043
-9.73133
-9.74199
-9.75241
-9.76255
-9.77239
-9.78193
-9.79114
-9.80002
-9.80854
-9.56139
-9.56144
-9.55968
-9.5574
-9.55593
-9.55575
-9.55708
-9.56003
-9.56452
-9.57043
-9.57758
-9.58577
-9.59483
-9.60459
-9.61489
-9.62559
-9.63658
-9.64775
-9.65901
-9.67029
-9.68152
-9.69265
-9.70363
-9.71442
-9.725
-9.73532
-9.74538
-9.75513
-9.76458
-9.7737
-9.78247
-9.7909
-9.79896
-9.56789
-9.56781
-9.56458
-9.5604
-9.55723
-9.55563
-9.55582
-9.55789
-9.56173
-9.56714
-9.57391
-9.58181
-9.59064
-9.6002
-9.61033
-9.62086
-9.63168
-9.64268
-9.65376
-9.66484
-9.67585
-9.68675
-9.69748
-9.70801
-9.71829
-9.7283
-9.73803
-9.74743
-9.75651
-9.76524
-9.77362
-9.78163
-9.78926
-9.576
-9.57563
-9.57005
-9.56312
-9.5577
-9.55434
-9.5532
-9.55433
-9.55752
-9.56249
-9.56895
-9.57665
-9.58533
-9.59478
-9.6048
-9.61524
-9.62596
-9.63684
-9.64778
-9.65871
-9.66956
-9.68027
-9.69079
-9.70108
-9.71111
-9.72085
-9.73028
-9.73938
-9.74813
-9.75651
-9.76453
-9.77216
-9.77941
-9.58704
-9.58586
-9.57637
-9.56544
-9.55707
-9.55151
-9.54884
-9.54898
-9.55156
-9.55616
-9.56242
-9.57001
-9.57864
-9.58806
-9.59806
-9.60848
-9.61917
-9.63
-9.64087
-9.65171
-9.66244
-9.67301
-9.68337
-9.69348
-9.70331
-9.71283
-9.72201
-9.73085
-9.73932
-9.74741
-9.75512
-9.76244
-9.76935
-9.60357
-9.59989
-9.58354
-9.5669
-9.55479
-9.54659
-9.5422
-9.54136
-9.5434
-9.54773
-9.55388
-9.56147
-9.57015
-9.57965
-9.58974
-9.60023
-9.61098
-9.62184
-9.63274
-9.64357
-9.65426
-9.66477
-9.67505
-9.68505
-9.69475
-9.70411
-9.71313
-9.72177
-9.73003
-9.7379
-9.74536
-9.75242
-9.75907
-9.63172
-9.62058
-9.59103
-9.56595
-9.54927
-9.53809
-9.53201
-9.53042
-9.53215
-9.5364
-9.54263
-9.55037
-9.55925
-9.56895
-9.57923
-9.58989
-9.60079
-9.61179
-9.62279
-9.6337
-9.64445
-9.655
-9.66528
-9.67527
-9.68494
-9.69425
-9.70319
-9.71175
-9.7199
-9.72765
-9.73499
-9.7419
-9.74839
-9.68385
-9.65561
-9.60194
-9.56319
-9.5391
-9.52346
-9.51556
-9.51362
-9.51556
-9.52033
-9.52728
-9.53583
-9.54547
-9.55589
-9.56681
-9.57805
-9.58944
-9.60086
-9.6122
-9.62338
-9.63435
-9.64505
-9.65545
-9.6655
-9.67518
-9.68448
-9.69338
-9.70186
-9.70992
-9.71755
-9.72475
-9.73151
-9.73783
-9.7631
-9.70029
-9.61816
-9.56748
-9.53113
-9.50509
-9.49185
-9.48722
-9.4874
-9.49124
-9.49809
-9.50708
-9.51752
-9.52894
-9.54101
-9.55347
-9.56611
-9.57875
-9.59129
-9.60362
-9.61566
-9.62737
-9.6387
-9.64961
-9.66008
-9.6701
-9.67964
-9.68871
-9.69729
-9.70538
-9.71297
-9.72008
-9.72668
-9.90741
-9.67422
-9.54883
-9.54179
-9.53196
-9.51775
-9.51429
-9.516
-9.51831
-9.52165
-9.52665
-9.53303
-9.54043
-9.54867
-9.55761
-9.56708
-9.57693
-9.587
-9.59719
-9.6074
-9.61755
-9.62755
-9.63735
-9.6469
-9.65616
-9.6651
-9.67368
-9.6819
-9.68972
-9.69715
-9.70417
-9.71078
-9.71701
-10.8563
-9.62294
-9.03169
-8.95901
-8.97812
-9.0193
-9.0774
-9.13661
-9.19098
-9.24113
-9.28741
-9.32946
-9.36738
-9.40166
-9.43278
-9.4611
-9.48695
-9.5106
-9.53232
-9.55232
-9.57079
-9.58788
-9.60371
-9.61841
-9.63205
-9.64472
-9.65648
-9.6674
-9.67752
-9.68688
-9.69549
-9.70339
-9.71056
-14.6222
-12.4116
-11.3987
-10.7791
-10.3614
-10.1134
-9.95061
-9.82697
-9.73493
-9.67132
-9.62881
-9.60068
-9.58288
-9.5729
-9.56875
-9.56884
-9.57198
-9.57734
-9.58427
-9.59228
-9.60101
-9.61017
-9.61954
-9.62897
-9.63831
-9.64747
-9.65638
-9.66498
-9.67323
-9.6811
-9.68858
-9.69569
-9.7024
-0.762294
-4.84914
-6.96093
-7.72411
-8.15545
-8.51607
-8.78415
-8.96324
-9.08978
-9.18814
-9.2664
-9.32829
-9.37799
-9.41913
-9.45399
-9.48399
-9.51017
-9.53333
-9.55405
-9.57278
-9.58982
-9.60543
-9.61979
-9.63305
-9.64532
-9.65669
-9.66722
-9.67699
-9.68602
-9.69438
-9.70208
-9.70914
-9.71562
-9.85353
-9.60864
-9.92718
-10.2341
-10.364
-10.4055
-10.4201
-10.4224
-10.4197
-10.4214
-10.4341
-10.4598
-10.4981
-10.5474
-10.6057
-10.6704
-10.7386
-10.8074
-10.8743
-10.9368
-10.9929
-11.0411
-11.0802
-11.1094
-11.1284
-11.1369
-11.1348
-11.1221
-11.099
-11.0653
-11.0214
-10.9673
-10.9033
-10.8294
-10.7458
-10.6524
-10.5493
-10.436
-10.3123
-10.1778
-10.0321
-9.87469
-9.70525
-9.52354
-9.32939
-9.12284
-8.90413
-8.67358
-8.43156
-8.17857
-7.91523
-7.64218
-7.3601
-7.06984
-6.77234
-6.46864
-6.15993
-5.84754
-5.53288
-5.21746
-4.90282
-4.59047
-4.28189
-3.97851
-3.68165
-3.39254
-3.1123
-2.84193
-2.58231
-2.33417
-2.09809
-1.87452
-1.66374
-1.46592
-1.28107
-1.10911
-0.949866
-0.803056
-0.668372
-0.545461
-0.433907
-0.333295
-0.2432
-0.163264
-0.0932142
-0.0330205
0.0170564
0.0563392
0.0839156
0.0988623
0.100944
0.0909317
0.0715579
0.0458743
0.0195666
-0.00689192
-0.0220814
-0.0447365
-0.0231047
-0.0755892
-9.89963
-9.89041
-10.098
-10.2637
-10.3125
-10.3152
-10.3144
-10.3149
-10.3188
-10.3316
-10.3565
-10.3931
-10.4398
-10.4949
-10.5566
-10.623
-10.6917
-10.7605
-10.8268
-10.8887
-10.9442
-10.992
-11.0307
-11.0597
-11.0786
-11.0869
-11.0848
-11.0722
-11.0492
-11.0158
-10.972
-10.9182
-10.8544
-10.7808
-10.6974
-10.6043
-10.5013
-10.3883
-10.2648
-10.1306
-9.98522
-9.82827
-9.65945
-9.47854
-9.28539
-9.08006
-8.86275
-8.6338
-8.39357
-8.14255
-7.88134
-7.61056
-7.33091
-7.04322
-6.74842
-6.44753
-6.14172
-5.83231
-5.52066
-5.20824
-4.89655
-4.58708
-4.28126
-3.98049
-3.68606
-3.39919
-3.12097
-2.85242
-2.59438
-2.3476
-2.11265
-1.88999
-1.67992
-1.48261
-1.29808
-1.1263
-0.967074
-0.820157
-0.685259
-0.562047
-0.450127
-0.349113
-0.258617
-0.178311
-0.107918
-0.0473436
0.0033068
0.0436058
0.0729329
0.0906296
0.0965938
0.0914786
0.0774987
0.0566774
0.033951
0.00912474
-0.00558158
-0.030455
-0.00998663
-0.0702284
-9.91296
-9.92619
-10.0229
-10.1438
-10.2192
-10.2592
-10.2855
-10.3028
-10.3145
-10.3274
-10.3469
-10.3751
-10.4126
-10.4591
-10.5137
-10.5746
-10.6395
-10.7057
-10.7707
-10.8319
-10.8871
-10.9346
-10.9732
-11.0023
-11.0213
-11.0298
-11.028
-11.0158
-10.9933
-10.9603
-10.917
-10.8637
-10.8003
-10.7271
-10.6442
-10.5514
-10.4488
-10.3361
-10.213
-10.0792
-9.93437
-9.77808
-9.61009
-9.43019
-9.23826
-9.03435
-8.81868
-8.59154
-8.35331
-8.10445
-7.84555
-7.57724
-7.30019
-7.01523
-6.72328
-6.42536
-6.12261
-5.81629
-5.50777
-5.19847
-4.88984
-4.58332
-4.28034
-3.98225
-3.69033
-3.40578
-3.12967
-2.863
-2.60662
-2.36125
-2.12749
-1.90579
-1.69646
-1.49968
-1.31549
-1.14389
-0.984687
-0.837647
-0.702512
-0.578963
-0.466631
-0.365156
-0.274197
-0.193454
-0.122667
-0.0616861
-0.0104803
0.0307638
0.0617245
0.0820446
0.091814
0.0916187
0.0830922
0.067198
0.0481588
0.0251164
0.010853
-0.0160775
0.00258551
-0.0646216
-9.91972
-9.94692
-10.0233
-10.1323
-10.2105
-10.25
-10.2713
-10.2854
-10.2968
-10.3109
-10.3316
-10.3607
-10.3979
-10.4427
-10.4937
-10.5495
-10.6082
-10.6679
-10.7266
-10.7824
-10.8332
-10.8774
-10.9138
-10.9415
-10.9598
-10.9682
-10.9665
-10.9546
-10.9323
-10.8998
-10.8571
-10.8043
-10.7416
-10.669
-10.5866
-10.4943
-10.3921
-10.2799
-10.1573
-10.0241
-9.8799
-9.72443
-9.55743
-9.37872
-9.18819
-8.98591
-8.77204
-8.54689
-8.31082
-8.06428
-7.80784
-7.54212
-7.26781
-6.98572
-6.69674
-6.4019
-6.10231
-5.79921
-5.49393
-5.18783
-4.88234
-4.57888
-4.27883
-3.98351
-3.69419
-3.41203
-3.13812
-2.87341
-2.61876
-2.37489
-2.14238
-1.92169
-1.71315
-1.51694
-1.33313
-1.16171
-1.00253
-0.855353
-0.719956
-0.596036
-0.48324
-0.381236
-0.289724
-0.208435
-0.137123
-0.0756066
-0.0237504
0.0184516
0.0509404
0.0736504
0.0869
0.0912274
0.0876812
0.0763301
0.060811
0.0395625
0.0257624
-0.00301909
0.0136483
-0.0599718
-9.92739
-9.96259
-10.0263
-10.1106
-10.1758
-10.2137
-10.2385
-10.2588
-10.2769
-10.296
-10.3194
-10.3488
-10.3844
-10.4261
-10.4731
-10.5243
-10.5782
-10.633
-10.6871
-10.7384
-10.7851
-10.8258
-10.8592
-10.8844
-10.9006
-10.9076
-10.9049
-10.8922
-10.8696
-10.8371
-10.7946
-10.7422
-10.6799
-10.6077
-10.5257
-10.4339
-10.3322
-10.2205
-10.0984
-9.96582
-9.82238
-9.66783
-9.50192
-9.3245
-9.13549
-8.93493
-8.72298
-8.49993
-8.26612
-8.022
-7.76813
-7.50511
-7.23363
-6.9545
-6.6686
-6.37694
-6.08062
-5.78083
-5.47888
-5.17609
-4.87386
-4.57356
-4.27654
-3.9841
-3.69749
-3.41784
-3.14622
-2.88359
-2.63077
-2.38847
-2.1573
-1.93771
-1.73001
-1.53443
-1.35103
-1.17984
-1.02069
-0.873388
-0.737725
-0.613416
-0.500125
-0.397549
-0.30542
-0.223495
-0.151539
-0.0893435
-0.0366942
0.00656797
0.0406067
0.0656246
0.0821523
0.0906285
0.0915529
0.0843481
0.072134
0.0526345
0.0392962
0.00884241
0.0234212
-0.0562056
-9.93349
-9.97041
-10.0243
-10.0916
-10.1497
-10.1897
-10.2185
-10.242
-10.2628
-10.2837
-10.3075
-10.336
-10.3697
-10.4086
-10.4521
-10.4992
-10.5486
-10.5988
-10.6482
-10.6951
-10.7379
-10.775
-10.8054
-10.8281
-10.8423
-10.8476
-10.8436
-10.83
-10.8068
-10.7739
-10.7313
-10.6788
-10.6166
-10.5446
-10.4628
-10.3713
-10.27
-10.1586
-10.0371
-9.9051
-9.7624
-9.60875
-9.44395
-9.26785
-9.08038
-8.88156
-8.67157
-8.45066
-8.21917
-7.97753
-7.72629
-7.46604
-7.19748
-6.9214
-6.63868
-6.35029
-6.05733
-5.76097
-5.46245
-5.16309
-4.86423
-4.56721
-4.27335
-3.98392
-3.70014
-3.42312
-3.15392
-2.89347
-2.64258
-2.40198
-2.17223
-1.95381
-1.74705
-1.55216
-1.36923
-1.1983
-1.03921
-0.891806
-0.755885
-0.631178
-0.517372
-0.414199
-0.321415
-0.238792
-0.166103
-0.103116
-0.0495517
-0.00512566
0.0305236
0.0578347
0.0774893
0.0897484
0.0946908
0.0913033
0.0821924
0.0644045
0.051538
0.0196042
0.0320678
-0.0532035
-9.9377
-9.97395
-10.0212
-10.0775
-10.1293
-10.1686
-10.1986
-10.2238
-10.2466
-10.2691
-10.2937
-10.322
-10.3544
-10.391
-10.4313
-10.4746
-10.5198
-10.5656
-10.6104
-10.6529
-10.6916
-10.7251
-10.7522
-10.7721
-10.7841
-10.7876
-10.7821
-10.7675
-10.7434
-10.7099
-10.6668
-10.6141
-10.5518
-10.4798
-10.3982
-10.3069
-10.2058
-10.0948
-9.97372
-9.84227
-9.70028
-9.54751
-9.38379
-9.20899
-9.02303
-8.82596
-8.61792
-8.39916
-8.17001
-7.9309
-7.68233
-7.42493
-7.15937
-6.88642
-6.60696
-6.32196
-6.03246
-5.73963
-5.44467
-5.14885
-4.85348
-4.55987
-4.26929
-3.983
-3.70217
-3.42791
-3.16123
-2.90308
-2.65423
-2.41541
-2.18719
-1.97003
-1.76428
-1.57014
-1.38775
-1.21712
-1.05812
-0.910651
-0.774479
-0.649366
-0.535034
-0.43125
-0.337782
-0.254414
-0.180923
-0.117058
-0.0624843
-0.0168094
0.0205069
0.0500876
0.0726755
0.088346
0.0969231
0.0970706
0.09088
0.0747942
0.0624401
0.0292496
0.0396485
-0.0509241
-9.94032
-9.97508
-10.0174
-10.0658
-10.1117
-10.1494
-10.18
-10.2064
-10.2306
-10.2543
-10.2794
-10.3072
-10.3383
-10.3727
-10.4101
-10.4499
-10.4912
-10.5328
-10.5734
-10.6117
-10.6464
-10.6763
-10.7001
-10.7172
-10.7267
-10.7281
-10.7209
-10.7049
-10.6798
-10.6454
-10.6018
-10.5486
-10.4861
-10.414
-10.3323
-10.2411
-10.1402
-10.0294
-9.90865
-9.77771
-9.63637
-9.48445
-9.32178
-9.14824
-8.96377
-8.76843
-8.56234
-8.34573
-8.11894
-7.88238
-7.63655
-7.38205
-7.11955
-6.84982
-6.57372
-6.29218
-6.00626
-5.71705
-5.42575
-5.13358
-4.84181
-4.55171
-4.26454
-3.98148
-3.70372
-3.43232
-3.16829
-2.91252
-2.66582
-2.42887
-2.20226
-1.98645
-1.78178
-1.58846
-1.40666
-1.23635
-1.07749
-0.929964
-0.793547
-0.66803
-0.553177
-0.448779
-0.354605
-0.270451
-0.196098
-0.131277
-0.0756124
-0.0286097
0.0104131
0.0421961
0.0674856
0.0862272
0.0981079
0.101523
0.0980852
0.0837165
0.0719481
0.037753
0.0462121
-0.0493399
-9.94164
-9.97462
-10.013
-10.0553
-10.0965
-10.1323
-10.1627
-10.1897
-10.2146
-10.239
-10.2643
-10.2915
-10.3212
-10.3535
-10.3882
-10.4248
-10.4624
-10.5001
-10.5367
-10.5711
-10.602
-10.6282
-10.6489
-10.6631
-10.6701
-10.6693
-10.6603
-10.6428
-10.6164
-10.5811
-10.5366
-10.4829
-10.4199
-10.3475
-10.2657
-10.1745
-10.0736
-9.96299
-9.84253
-9.71203
-9.5713
-9.42018
-9.25851
-9.08619
-8.90319
-8.70954
-8.50538
-8.29093
-8.06651
-7.83252
-7.58946
-7.33791
-7.07853
-6.81208
-6.5394
-6.26142
-5.97913
-5.69363
-5.40606
-5.11763
-4.82954
-4.54305
-4.25936
-3.97964
-3.70503
-3.43658
-3.17526
-2.92197
-2.67749
-2.44249
-2.21756
-2.00316
-1.79963
-1.60719
-1.42601
-1.25605
-1.09735
-0.949786
-0.813147
-0.687248
-0.571892
-0.466878
-0.371978
-0.287003
-0.211737
-0.145893
-0.0890609
-0.0406612
7.95743e-05
0.0339712
0.061742
0.0832608
0.0981402
0.10456
0.103722
0.0911043
0.0800216
0.0451002
0.0518103
-0.0484105
-9.94183
-9.97296
-10.008
-10.0458
-10.083
-10.1167
-10.1465
-10.1734
-10.1986
-10.2232
-10.2483
-10.2748
-10.3032
-10.3335
-10.3656
-10.3992
-10.4334
-10.4674
-10.5002
-10.5307
-10.5579
-10.5807
-10.5982
-10.6095
-10.614
-10.611
-10.6002
-10.581
-10.5534
-10.5169
-10.4716
-10.4172
-10.3537
-10.2809
-10.1989
-10.1075
-10.0066
-9.89613
-9.77592
-9.64582
-9.50566
-9.3553
-9.1946
-9.02348
-8.84191
-8.64993
-8.44768
-8.23537
-8.01332
-7.78191
-7.54164
-7.29307
-7.03685
-6.77373
-6.50452
-6.23012
-5.95153
-5.66979
-5.38601
-5.10136
-4.81702
-4.53419
-4.25404
-3.97771
-3.70632
-3.44088
-3.18235
-2.9316
-2.68939
-2.45641
-2.23323
-2.02028
-1.81792
-1.62638
-1.44582
-1.27627
-1.11777
-0.970203
-0.833374
-0.70712
-0.591271
-0.485633
-0.389995
-0.304173
-0.22795
-0.161027
-0.102961
-0.053116
-0.010663
0.0252456
0.0553053
0.0793414
0.096932
0.106107
0.107727
0.096905
0.0866321
0.0512857
0.0564939
-0.0480881
-9.941
-9.97032
-10.0025
-10.0367
-10.0706
-10.1022
-10.131
-10.1575
-10.1826
-10.2071
-10.2317
-10.2574
-10.2843
-10.3127
-10.3424
-10.373
-10.4039
-10.4344
-10.4636
-10.4905
-10.5142
-10.5336
-10.548
-10.5565
-10.5584
-10.5532
-10.5404
-10.5196
-10.4906
-10.453
-10.4067
-10.3516
-10.2875
-10.2143
-10.132
-10.0404
-9.93949
-9.82912
-9.70915
-9.57944
-9.43984
-9.29023
-9.13049
-8.96055
-8.78039
-8.59007
-8.38972
-8.17955
-7.95986
-7.73104
-7.49357
-7.24799
-6.99496
-6.73518
-6.46947
-6.1987
-5.92383
-5.64588
-5.36593
-5.08509
-4.80453
-4.5254
-4.24883
-3.97595
-3.70782
-3.44543
-3.18973
-2.94156
-2.70169
-2.47076
-2.24934
-2.03786
-1.8367
-1.6461
-1.46622
-1.29713
-1.13886
-0.991313
-0.854314
-0.727722
-0.611384
-0.505121
-0.408735
-0.322046
-0.244833
-0.176785
-0.117436
-0.0661141
-0.0219607
0.0158781
0.0480557
0.0743765
0.0944111
0.106104
0.110048
0.101075
0.0917538
0.0563059
0.0603092
-0.0483093
-9.9392
-9.96681
-9.99658
-10.0277
-10.0588
-10.0884
-10.116
-10.1418
-10.1665
-10.1905
-10.2145
-10.2391
-10.2646
-10.2911
-10.3184
-10.3463
-10.3741
-10.4013
-10.427
-10.4504
-10.4707
-10.4868
-10.4981
-10.5038
-10.5032
-10.4958
-10.481
-10.4585
-10.428
-10.3892
-10.342
-10.286
-10.2213
-10.1477
-10.0651
-9.97335
-9.8724
-9.76213
-9.6424
-9.51309
-9.37407
-9.22522
-9.06644
-8.89769
-8.71895
-8.53028
-8.33183
-8.12379
-7.90647
-7.68025
-7.44559
-7.20302
-6.95319
-6.69678
-6.43458
-6.16746
-5.89633
-5.62218
-5.34607
-5.06907
-4.79231
-4.51691
-4.24395
-3.97453
-3.70969
-3.45039
-3.19755
-2.95199
-2.71447
-2.4856
-2.26596
-2.056
-1.85608
-1.66646
-1.48732
-1.31871
-1.16068
-1.01317
-0.876021
-0.749105
-0.632287
-0.525399
-0.42826
-0.34069
-0.262464
-0.193259
-0.132592
-0.0797742
-0.0339405
0.00574577
0.0398899
0.0682886
0.0905223
0.104511
0.110653
0.10358
0.0953639
0.0601564
0.0632913
-0.0490064
-9.93647
-9.96246
-9.9901
-10.0188
-10.0474
-10.0751
-10.1014
-10.1263
-10.1502
-10.1735
-10.1967
-10.2202
-10.2442
-10.2688
-10.2938
-10.319
-10.3439
-10.3679
-10.3903
-10.4104
-10.4273
-10.4403
-10.4486
-10.4515
-10.4484
-10.4387
-10.422
-10.3978
-10.3658
-10.3258
-10.2775
-10.2207
-10.1554
-10.0813
-9.99833
-9.90642
-9.80545
-9.69528
-9.57582
-9.44693
-9.3085
-9.16043
-9.00264
-8.83509
-8.65778
-8.47078
-8.27423
-8.06834
-7.8534
-7.62979
-7.39794
-7.1584
-6.91178
-6.65875
-6.40008
-6.13661
-5.86923
-5.5989
-5.32664
-5.05349
-4.78055
-4.50888
-4.23955
-3.97361
-3.71207
-3.45588
-3.20591
-2.96297
-2.7278
-2.50103
-2.28321
-2.0748
-1.87615
-1.68754
-1.50914
-1.34104
-1.18328
-1.03582
-0.898534
-0.771308
-0.654017
-0.54651
-0.448616
-0.360156
-0.280901
-0.210517
-0.148511
-0.0941921
-0.0467061
-0.00525172
0.030725
0.0610194
0.0852311
0.10131
0.109526
0.104395
0.0974419
0.0628311
0.0654679
-0.0500938
-9.93282
-9.95731
-9.98305
-10.0096
-10.0361
-10.062
-10.0869
-10.1107
-10.1337
-10.1562
-10.1784
-10.2006
-10.223
-10.2457
-10.2685
-10.2912
-10.3132
-10.3342
-10.3535
-10.3704
-10.3842
-10.3941
-10.3995
-10.3997
-10.3941
-10.3821
-10.3634
-10.3375
-10.304
-10.2627
-10.2133
-10.1557
-10.0897
-10.0151
-9.93186
-9.83977
-9.73877
-9.62873
-9.50955
-9.3811
-9.24329
-9.09603
-8.93925
-8.77292
-8.59707
-8.41175
-8.21713
-8.0134
-7.80085
-7.57985
-7.35084
-7.11433
-6.87093
-6.62129
-6.36616
-6.10634
-5.84272
-5.57621
-5.30781
-5.03852
-4.76938
-4.50144
-4.23575
-3.9733
-3.71506
-3.46197
-3.21488
-2.97459
-2.7418
-2.51714
-2.30117
-2.09432
-1.89697
-1.70937
-1.53174
-1.36415
-1.20668
-1.05928
-0.921877
-0.794353
-0.676599
-0.568478
-0.46983
-0.380476
-0.300181
-0.228607
-0.165255
-0.109441
-0.0603387
-0.0171925
0.0204982
0.0525287
0.0785228
0.0965034
0.106669
0.103512
0.0979709
0.0643199
0.0668494
-0.0514843
-9.92829
-9.95138
-9.97542
-10
-10.0247
-10.0489
-10.0724
-10.0951
-10.117
-10.1384
-10.1595
-10.1804
-10.2013
-10.2221
-10.2427
-10.2629
-10.2823
-10.3004
-10.3166
-10.3305
-10.3412
-10.3482
-10.3508
-10.3483
-10.3403
-10.3261
-10.3054
-10.2777
-10.2427
-10.2001
-10.1497
-10.0912
-10.0245
-9.94944
-9.86583
-9.77358
-9.67256
-9.56266
-9.44377
-9.31579
-9.17863
-9.0322
-8.87645
-8.71138
-8.53699
-8.35339
-8.1607
-7.95914
-7.749
-7.53063
-7.30446
-7.07099
-6.83082
-6.58457
-6.33298
-6.07682
-5.81695
-5.55426
-5.28971
-5.02427
-4.75894
-4.49473
-4.23266
-3.97369
-3.71876
-3.46878
-3.22457
-2.98692
-2.75652
-2.53399
-2.31987
-2.1146
-1.91854
-1.73199
-1.55513
-1.38807
-1.2309
-1.08358
-0.946063
-0.81825
-0.700041
-0.591311
-0.49191
-0.40166
-0.320323
-0.247555
-0.18286
-0.125569
-0.074892
-0.0301282
0.00917052
0.0427991
0.0704056
0.0901179
0.10211
0.100937
0.096943
0.0646134
0.0674383
-0.0530726
-9.92292
-9.9447
-9.9672
-9.99013
-10.0131
-10.0358
-10.0579
-10.0793
-10.1001
-10.1203
-10.1401
-10.1596
-10.1789
-10.1978
-10.2163
-10.2342
-10.251
-10.2663
-10.2798
-10.2907
-10.2985
-10.3027
-10.3025
-10.2975
-10.2871
-10.2707
-10.248
-10.2186
-10.1821
-10.1383
-10.0868
-10.0274
-9.96001
-9.88441
-9.80046
-9.70804
-9.607
-9.49726
-9.37869
-9.2512
-9.1147
-8.96913
-8.81445
-8.65065
-8.47776
-8.29588
-8.10514
-7.90577
-7.69805
-7.48231
-7.25899
-7.02857
-6.79162
-6.54877
-6.30071
-6.04821
-5.79208
-5.5332
-5.27248
-5.01087
-4.74933
-4.48885
-4.23039
-3.97488
-3.72325
-3.47637
-3.23505
-3.00004
-2.77203
-2.55163
-2.33935
-2.13566
-1.94092
-1.7554
-1.57932
-1.41281
-1.25594
-1.10872
-0.971092
-0.842996
-0.724337
-0.615003
-0.51485
-0.423704
-0.341325
-0.267368
-0.201341
-0.142599
-0.0903954
-0.0440864
-0.00327455
0.0318332
0.0609074
0.0822012
0.0958979
0.0967004
0.0943618
0.0637018
0.0672188
-0.0547566
-9.91676
-9.93731
-9.9584
-9.9798
-10.0012
-10.0224
-10.0431
-10.0633
-10.0828
-10.1018
-10.1203
-10.1384
-10.156
-10.1731
-10.1896
-10.2051
-10.2195
-10.2322
-10.243
-10.2511
-10.2562
-10.2576
-10.2549
-10.2474
-10.2346
-10.2161
-10.1915
-10.1604
-10.1224
-10.0773
-10.0247
-9.96443
-9.89634
-9.82024
-9.73595
-9.64336
-9.54233
-9.43275
-9.31452
-9.18754
-9.05173
-8.90705
-8.75345
-8.59095
-8.41958
-8.23944
-8.05067
-7.8535
-7.6482
-7.4351
-7.21463
-6.98725
-6.75353
-6.51406
-6.26952
-6.02066
-5.76826
-5.51317
-5.25627
-4.99847
-4.7407
-4.48392
-4.22904
-3.97698
-3.72863
-3.48484
-3.24638
-3.014
-2.78837
-2.57008
-2.35966
-2.15754
-1.96411
-1.77963
-1.60434
-1.43837
-1.28181
-1.13468
-0.996955
-0.868578
-0.749472
-0.639534
-0.538631
-0.44659
-0.363171
-0.288031
-0.22069
-0.160529
-0.106851
-0.0590668
-0.0168279
0.0196574
0.050079
0.0728248
0.0881099
0.0908582
0.090253
0.0615869
0.0661718
-0.0564188
-9.90988
-9.92926
-9.94905
-9.96906
-9.98905
-10.0088
-10.0282
-10.047
-10.0653
-10.083
-10.1002
-10.1168
-10.1328
-10.1481
-10.1625
-10.1759
-10.1879
-10.1982
-10.2063
-10.2119
-10.2143
-10.2131
-10.2079
-10.198
-10.183
-10.1625
-10.136
-10.1032
-10.0637
-10.0173
-9.96363
-9.90252
-9.83375
-9.75714
-9.67253
-9.57978
-9.47876
-9.36937
-9.25149
-9.12504
-8.98996
-8.84618
-8.6937
-8.53251
-8.36267
-8.18429
-7.99751
-7.80254
-7.59967
-7.38921
-7.17158
-6.94724
-6.71673
-6.48063
-6.2396
-5.99436
-5.74567
-5.49434
-5.24122
-4.9872
-4.73317
-4.48005
-4.22873
-3.98009
-3.73499
-3.49426
-3.25864
-3.02887
-2.8056
-2.58941
-2.38082
-2.18027
-1.98813
-1.80469
-1.63018
-1.46475
-1.30849
-1.16146
-1.02363
-0.894976
-0.775421
-0.664878
-0.563222
-0.470285
-0.385829
-0.309516
-0.240881
-0.179338
-0.124238
-0.0750463
-0.0314577
0.00631868
0.0379898
0.0620807
0.078847
0.0834956
0.0846659
0.0582823
0.064268
-0.0579508
-9.90234
-9.92063
-9.93921
-9.95791
-9.97656
-9.99499
-10.013
-10.0306
-10.0476
-10.064
-10.0798
-10.0949
-10.1092
-10.1227
-10.1352
-10.1465
-10.1563
-10.1642
-10.1699
-10.173
-10.1729
-10.1693
-10.1616
-10.1495
-10.1323
-10.1098
-10.0815
-10.0471
-10.0062
-9.95854
-9.90384
-9.84187
-9.77242
-9.69532
-9.6104
-9.51751
-9.41653
-9.30734
-9.18984
-9.06396
-8.92961
-8.78677
-8.63542
-8.47557
-8.30729
-8.13067
-7.94589
-7.75313
-7.55268
-7.34486
-7.13007
-6.90875
-6.68143
-6.44868
-6.21113
-5.96948
-5.72446
-5.47686
-5.22749
-4.97721
-4.72688
-4.47738
-4.22957
-3.98431
-3.74242
-3.5047
-3.27189
-3.0447
-2.82376
-2.60964
-2.40286
-2.20386
-2.013
-1.83059
-1.65684
-1.49194
-1.33599
-1.18904
-1.05111
-0.922162
-0.802153
-0.691
-0.588586
-0.494748
-0.409256
-0.33178
-0.261873
-0.198984
-0.142513
-0.0919763
-0.0471077
-0.00811279
0.0247308
0.0500821
0.0682364
0.0747298
0.0776854
0.0538305
0.0614893
-0.0592335
-9.89423
-9.91149
-9.92892
-9.9464
-9.9638
-9.98095
-9.99772
-10.014
-10.0297
-10.0448
-10.0592
-10.0728
-10.0855
-10.0973
-10.1079
-10.1172
-10.1248
-10.1305
-10.1339
-10.1346
-10.1322
-10.1262
-10.1163
-10.102
-10.0828
-10.0584