/*--------------------------------*- C++ -*----------------------------------*\
  =========                 |
  \\      /  F ield         | OpenFOAM: The Open Source CFD Toolbox
   \\    /   O peration     | Website:  https://openfoam.org
    \\  /    A nd           | Version:  10
     \\/     M anipulation  |
\*---------------------------------------------------------------------------*/
FoamFile
{
    format      ascii;
    class       surfaceScalarField;
    location    "600";
    object      phi;
}
// * * * * * * * * * * * * * * * * * * * * * * * * * * * * * * * * * * * * * //

dimensions      [0 3 -1 0 0 0 0];

internalField   nonuniform List<scalar> 
13452
(
6.29962e-05
-2.72775e-06
6.37618e-05
-7.65596e-07
6.45326e-05
-7.70739e-07
6.38573e-05
6.7528e-07
6.25158e-05
1.34143e-06
6.1081e-05
1.43481e-06
5.97495e-05
1.33153e-06
5.85558e-05
1.19366e-06
5.74951e-05
1.06079e-06
5.6554e-05
9.4107e-07
5.5717e-05
8.36996e-07
5.49686e-05
7.48404e-07
5.42952e-05
6.73352e-07
5.36859e-05
6.09307e-07
5.31318e-05
5.5417e-07
5.26254e-05
5.06344e-07
5.21609e-05
4.64562e-07
5.1733e-05
4.27804e-07
5.13378e-05
3.95256e-07
5.09715e-05
3.66276e-07
5.06312e-05
3.40355e-07
5.03141e-05
3.17091e-07
5.00179e-05
2.96162e-07
4.97406e-05
2.77325e-07
4.94802e-05
2.60408e-07
4.92349e-05
2.45314e-07
4.90028e-05
2.32055e-07
4.87821e-05
2.20753e-07
4.85701e-05
2.11956e-07
4.8364e-05
2.06145e-07
4.81582e-05
2.05754e-07
4.79595e-05
1.98737e-07
2.25928e-07
4.77335e-05
6.28938e-05
-3.63118e-06
6.27373e-05
-6.09097e-07
6.21167e-05
-1.50177e-07
6.23912e-05
4.00824e-07
6.28731e-05
8.59505e-07
6.3266e-05
1.04187e-06
6.35105e-05
1.08708e-06
6.36212e-05
1.08293e-06
6.36285e-05
1.05346e-06
6.35616e-05
1.00803e-06
6.34433e-05
9.55271e-07
6.32904e-05
9.01301e-07
6.31148e-05
8.48994e-07
6.29246e-05
7.99435e-07
6.27258e-05
7.52983e-07
6.25224e-05
7.09741e-07
6.23173e-05
6.6964e-07
6.21126e-05
6.32496e-07
6.19098e-05
5.98088e-07
6.17099e-05
5.66202e-07
6.15136e-05
5.36638e-07
6.13215e-05
5.09218e-07
6.11339e-05
4.83792e-07
6.09509e-05
4.60243e-07
6.07728e-05
4.38498e-07
6.05996e-05
4.1853e-07
6.04313e-05
4.00403e-07
6.02678e-05
3.84199e-07
6.01094e-05
3.70385e-07
5.99569e-05
3.5862e-07
5.98123e-05
3.50338e-07
5.96733e-05
3.37747e-07
3.70686e-07
5.95286e-05
6.23344e-05
-2.2042e-06
6.26284e-05
-9.03047e-07
6.27866e-05
-3.08348e-07
6.30959e-05
9.1441e-08
6.34471e-05
5.08296e-07
6.37492e-05
7.39829e-07
6.39952e-05
8.41044e-07
6.41901e-05
8.88027e-07
6.43383e-05
9.05268e-07
6.44461e-05
9.00231e-07
6.45206e-05
8.80808e-07
6.4568e-05
8.53841e-07
6.45938e-05
8.2328e-07
6.4602e-05
7.91151e-07
6.45964e-05
7.58656e-07
6.45795e-05
7.26595e-07
6.45537e-05
6.95451e-07
6.45207e-05
6.6548e-07
6.4482e-05
6.36808e-07
6.44387e-05
6.09493e-07
6.43918e-05
5.83556e-07
6.4342e-05
5.58994e-07
6.429e-05
5.35803e-07
6.42363e-05
5.13984e-07
6.41812e-05
4.93564e-07
6.41251e-05
4.746e-07
6.40683e-05
4.57221e-07
6.40109e-05
4.4157e-07
6.39533e-05
4.28048e-07
6.38953e-05
4.16562e-07
6.38373e-05
4.08368e-07
6.37731e-05
4.01927e-07
4.17469e-07
6.37263e-05
6.47916e-05
-1.41269e-06
6.47391e-05
-8.50606e-07
6.47873e-05
-3.5654e-07
6.48995e-05
-2.07069e-08
6.50725e-05
3.35277e-07
6.52455e-05
5.66814e-07
6.54027e-05
6.83792e-07
6.55432e-05
7.47567e-07
6.56659e-05
7.82583e-07
6.57708e-05
7.95364e-07
6.58591e-05
7.92482e-07
6.59327e-05
7.80233e-07
6.59934e-05
7.62519e-07
6.60431e-05
7.41487e-07
6.60832e-05
7.1852e-07
6.61152e-05
6.94613e-07
6.61402e-05
6.70435e-07
6.61593e-05
6.46414e-07
6.61733e-05
6.22829e-07
6.61829e-05
5.99867e-07
6.61888e-05
5.77659e-07
6.61915e-05
5.563e-07
6.61915e-05
5.35864e-07
6.6189e-05
5.16425e-07
6.61845e-05
4.98067e-07
6.61782e-05
4.80895e-07
6.61704e-05
4.65067e-07
6.61612e-05
4.50761e-07
6.61509e-05
4.38309e-07
6.61396e-05
4.27841e-07
6.61276e-05
4.20386e-07
6.61134e-05
4.16182e-07
4.22727e-07
6.61081e-05
6.70182e-05
-9.74121e-07
6.6871e-05
-7.03366e-07
6.68449e-05
-3.30419e-07
6.68728e-05
-4.8605e-08
6.69616e-05
2.46407e-07
6.70705e-05
4.57898e-07
6.71773e-05
5.77004e-07
6.72777e-05
6.4719e-07
6.73704e-05
6.89904e-07
6.74543e-05
7.11407e-07
6.75294e-05
7.17405e-07
6.75962e-05
7.13501e-07
6.76553e-05
7.03358e-07
6.77077e-05
6.89107e-07
6.7754e-05
6.72173e-07
6.77951e-05
6.53602e-07
6.78314e-05
6.34128e-07
6.78635e-05
6.14249e-07
6.7892e-05
5.94311e-07
6.79173e-05
5.74565e-07
6.79398e-05
5.55194e-07
6.79598e-05
5.36342e-07
6.79775e-05
5.18126e-07
6.79933e-05
5.00654e-07
6.80073e-05
4.84038e-07
6.80198e-05
4.68403e-07
6.8031e-05
4.53909e-07
6.8041e-05
4.40732e-07
6.80502e-05
4.29142e-07
6.80586e-05
4.19346e-07
6.8067e-05
4.12047e-07
6.80755e-05
4.07619e-07
4.08447e-07
6.80898e-05
6.9089e-05
-6.7908e-07
6.89436e-05
-5.57947e-07
6.89005e-05
-2.87358e-07
6.89039e-05
-5.19946e-08
6.89554e-05
1.94918e-07
6.90297e-05
3.83608e-07
6.91069e-05
4.99785e-07
6.91818e-05
5.72323e-07
6.92531e-05
6.186e-07
6.93197e-05
6.44747e-07
6.93812e-05
6.55933e-07
6.94376e-05
6.57117e-07
6.94892e-05
6.51694e-07
6.95366e-05
6.41755e-07
6.958e-05
6.28736e-07
6.96199e-05
6.13691e-07
6.96567e-05
5.9738e-07
6.96906e-05
5.80332e-07
6.9722e-05
5.62929e-07
6.97511e-05
5.45452e-07
6.97782e-05
5.28115e-07
6.98034e-05
5.11084e-07
6.98271e-05
4.94499e-07
6.98492e-05
4.78482e-07
6.98701e-05
4.63155e-07
6.98899e-05
4.48644e-07
6.99087e-05
4.35094e-07
6.99268e-05
4.22656e-07
6.99444e-05
4.11531e-07
6.99618e-05
4.01895e-07
6.99798e-05
3.94129e-07
6.9999e-05
3.88352e-07
3.84982e-07
7.00225e-05
7.11537e-05
-4.66414e-07
7.10277e-05
-4.31929e-07
7.09799e-05
-2.39588e-07
7.09725e-05
-4.46634e-08
7.10041e-05
1.63338e-07
7.10576e-05
3.30159e-07
7.11167e-05
4.40673e-07
7.11759e-05
5.13162e-07
7.12335e-05
5.60911e-07
7.12886e-05
5.89665e-07
7.13404e-05
6.04144e-07
7.13888e-05
6.08721e-07
7.1434e-05
6.06514e-07
7.14762e-05
5.99553e-07
7.15157e-05
5.89264e-07
7.15527e-05
5.76702e-07
7.15874e-05
5.62632e-07
7.16201e-05
5.47604e-07
7.1651e-05
5.32019e-07
7.16803e-05
5.16179e-07
7.17081e-05
5.00313e-07
7.17346e-05
4.84603e-07
7.17599e-05
4.69197e-07
7.17842e-05
4.54225e-07
7.18075e-05
4.39806e-07
7.18301e-05
4.26056e-07
7.18521e-05
4.13095e-07
7.18737e-05
4.0104e-07
7.18952e-05
3.90019e-07
7.1917e-05
3.80131e-07
7.19396e-05
3.71506e-07
7.19639e-05
3.64039e-07
3.57463e-07
7.19914e-05
7.32523e-05
-3.13465e-07
7.31446e-05
-3.24157e-07
7.30947e-05
-1.89758e-07
7.30807e-05
-3.06853e-08
7.31e-05
1.44058e-07
7.31398e-05
2.90406e-07
7.31869e-05
3.93552e-07
7.32358e-05
4.64245e-07
7.32846e-05
5.1213e-07
7.3332e-05
5.42279e-07
7.33772e-05
5.58924e-07
7.342e-05
5.65898e-07
7.34605e-05
5.66036e-07
7.34988e-05
5.61284e-07
7.3535e-05
5.53042e-07
7.35694e-05
5.42348e-07
7.3602e-05
5.29971e-07
7.36331e-05
5.16469e-07
7.36629e-05
5.02258e-07
7.36914e-05
4.87653e-07
7.37189e-05
4.72892e-07
7.37453e-05
4.58166e-07
7.37709e-05
4.43628e-07
7.37957e-05
4.29407e-07
7.38199e-05
4.15614e-07
7.38436e-05
4.02353e-07
7.3867e-05
3.89713e-07
7.38902e-05
3.77775e-07
7.39136e-05
3.66602e-07
7.39376e-05
3.5621e-07
7.39625e-05
3.46569e-07
7.39891e-05
3.3745e-07
3.284e-07
7.40182e-05
7.53941e-05
-2.05103e-07
7.53032e-05
-2.33257e-07
7.52537e-05
-1.40212e-07
7.52354e-05
-1.23924e-08
7.52462e-05
1.33269e-07
7.5276e-05
2.60521e-07
7.53144e-05
3.55195e-07
7.53559e-05
4.22726e-07
7.53983e-05
4.69711e-07
7.54403e-05
5.00363e-07
7.54808e-05
5.18363e-07
7.55197e-05
5.27035e-07
7.55568e-05
5.28928e-07
7.55922e-05
5.25878e-07
7.5626e-05
5.19237e-07
7.56583e-05
5.10019e-07
7.56893e-05
4.98982e-07
7.57191e-05
4.86692e-07
7.57478e-05
4.73569e-07
7.57755e-05
4.59936e-07
7.58023e-05
4.46039e-07
7.58284e-05
4.32072e-07
7.58539e-05
4.18189e-07
7.58788e-05
4.04515e-07
7.59032e-05
3.91153e-07
7.59274e-05
3.78188e-07
7.59514e-05
3.65686e-07
7.59755e-05
3.5369e-07
7.59999e-05
3.42211e-07
7.60249e-05
3.31206e-07
7.60509e-05
3.20556e-07
7.60784e-05
3.09987e-07
2.99048e-07
7.61077e-05
7.7584e-05
-1.2951e-07
7.75094e-05
-1.58631e-07
7.74625e-05
-9.34018e-08
7.74418e-05
8.31178e-09
7.74465e-05
1.28658e-07
7.74688e-05
2.38209e-07
7.75002e-05
3.23746e-07
7.75359e-05
3.87047e-07
7.75733e-05
4.32259e-07
7.7611e-05
4.62663e-07
7.76481e-05
4.8135e-07
7.76839e-05
4.91155e-07
7.77185e-05
4.9434e-07
7.77518e-05
4.92605e-07
7.77838e-05
4.87234e-07
7.78146e-05
4.79205e-07
7.78443e-05
4.69261e-07
7.78731e-05
4.5796e-07
7.79009e-05
4.45726e-07
7.7928e-05
4.32884e-07
7.79543e-05
4.19684e-07
7.79801e-05
4.0632e-07
7.80053e-05
3.92944e-07
7.80302e-05
3.79676e-07
7.80547e-05
3.6661e-07
7.80791e-05
3.53813e-07
7.81034e-05
3.41331e-07
7.8128e-05
3.29177e-07
7.81528e-05
3.17327e-07
7.81783e-05
3.05699e-07
7.82048e-05
2.94139e-07
7.82324e-05
2.82379e-07
2.70031e-07
7.82614e-05
7.98265e-05
-7.76482e-08
7.97671e-05
-9.92752e-08
7.97251e-05
-5.13794e-08
7.97038e-05
2.9622e-08
7.9704e-05
1.28401e-07
7.97204e-05
2.21798e-07
7.97462e-05
2.97936e-07
7.97771e-05
3.56228e-07
7.98104e-05
3.98935e-07
7.98446e-05
4.28439e-07
7.98787e-05
4.47227e-07
7.99122e-05
4.57672e-07
7.99448e-05
4.61748e-07
7.99764e-05
4.60999e-07
8.0007e-05
4.56625e-07
8.00367e-05
4.49555e-07
8.00654e-05
4.40504e-07
8.00934e-05
4.30021e-07
8.01206e-05
4.18525e-07
8.01471e-05
4.06339e-07
8.01731e-05
3.93712e-07
8.01986e-05
3.80837e-07
8.02237e-05
3.67863e-07
8.02484e-05
3.54902e-07
8.0273e-05
3.4204e-07
8.02975e-05
3.2933e-07
8.0322e-05
3.168e-07
8.03467e-05
3.04445e-07
8.03719e-05
2.92218e-07
8.03975e-05
2.80022e-07
8.0424e-05
2.67698e-07
8.04513e-05
2.55009e-07
2.41645e-07
8.04797e-05
8.21255e-05
-4.27171e-08
8.20798e-05
-5.35581e-08
8.20439e-05
-1.5495e-08
8.20237e-05
4.98799e-08
8.20212e-05
1.3084e-07
8.20332e-05
2.09853e-07
8.20544e-05
2.76728e-07
8.20811e-05
3.2953e-07
8.21108e-05
3.6916e-07
8.21421e-05
3.97203e-07
8.21737e-05
4.15578e-07
8.22052e-05
4.26222e-07
8.22361e-05
4.30826e-07
8.22663e-05
4.30767e-07
8.22958e-05
4.27146e-07
8.23245e-05
4.20832e-07
8.23525e-05
4.12506e-07
8.23799e-05
4.02698e-07
8.24066e-05
3.91815e-07
8.24327e-05
3.80176e-07
8.24584e-05
3.68026e-07
8.24837e-05
3.55553e-07
8.25087e-05
3.42902e-07
8.25334e-05
3.30179e-07
8.2558e-05
3.1746e-07
8.25825e-05
3.0479e-07
8.26071e-05
2.92184e-07
8.26319e-05
2.79624e-07
8.26571e-05
2.67056e-07
8.26827e-05
2.5438e-07
8.2709e-05
2.41451e-07
8.27359e-05
2.28074e-07
2.14014e-07
8.27636e-05
8.44847e-05
-1.96521e-08
8.44506e-05
-1.94707e-08
8.44215e-05
1.36667e-08
8.44036e-05
6.77568e-08
8.44e-05
1.34469e-07
8.44088e-05
2.01047e-07
8.44263e-05
2.59158e-07
8.44496e-05
3.06288e-07
8.44763e-05
3.4245e-07
8.45049e-05
3.68583e-07
8.45344e-05
3.86104e-07
8.4564e-05
3.96556e-07
8.45935e-05
4.01359e-07
8.46226e-05
4.01717e-07
8.46511e-05
3.98624e-07
8.4679e-05
3.92882e-07
8.47064e-05
3.85128e-07
8.47332e-05
3.75866e-07
8.47596e-05
3.65489e-07
8.47854e-05
3.54305e-07
8.48109e-05
3.42552e-07
8.48361e-05
3.30414e-07
8.48609e-05
3.18028e-07
8.48856e-05
3.05495e-07
8.49102e-05
2.92884e-07
8.49347e-05
2.80232e-07
8.49594e-05
2.67547e-07
8.49842e-05
2.54806e-07
8.50093e-05
2.41955e-07
8.50348e-05
2.28903e-07
8.50607e-05
2.15528e-07
8.50871e-05
2.01676e-07
1.87174e-07
8.51139e-05
8.69073e-05
-4.75598e-09
8.68827e-05
5.09037e-09
8.68602e-05
3.61872e-08
8.68456e-05
8.23808e-08
8.6842e-05
1.38028e-07
8.68489e-05
1.94168e-07
8.68637e-05
2.44296e-07
8.68842e-05
2.85851e-07
8.69083e-05
3.18342e-07
8.69346e-05
3.42242e-07
8.69622e-05
3.58553e-07
8.69903e-05
3.68477e-07
8.70184e-05
3.73184e-07
8.70464e-05
3.73712e-07
8.70741e-05
3.70941e-07
8.71014e-05
3.65599e-07
8.71283e-05
3.58276e-07
8.71547e-05
3.49444e-07
8.71807e-05
3.39476e-07
8.72063e-05
3.28667e-07
8.72316e-05
3.17245e-07
8.72567e-05
3.05387e-07
8.72815e-05
2.93222e-07
8.73061e-05
2.80848e-07
8.73307e-05
2.68325e-07
8.73552e-05
2.55687e-07
8.73798e-05
2.4294e-07
8.74046e-05
2.3006e-07
8.74295e-05
2.16998e-07
8.74548e-05
2.03679e-07
8.74803e-05
1.90005e-07
8.75061e-05
1.75859e-07
1.61123e-07
8.75322e-05
8.93962e-05
4.60771e-09
8.93792e-05
2.2113e-08
8.93627e-05
5.26273e-08
8.93517e-05
9.33574e-08
8.93492e-05
1.40582e-07
8.93552e-05
1.8818e-07
8.93682e-05
2.31274e-07
8.93865e-05
2.67571e-07
8.94084e-05
2.96371e-07
8.94328e-05
3.17845e-07
8.94587e-05
3.32683e-07
8.94854e-05
3.41806e-07
8.95124e-05
3.46164e-07
8.95395e-05
3.4664e-07
8.95664e-05
3.44002e-07
8.95931e-05
3.38903e-07
8.96195e-05
3.31882e-07
8.96456e-05
3.23373e-07
8.96713e-05
3.13728e-07
8.96968e-05
3.03223e-07
8.97219e-05
2.92076e-07
8.97469e-05
2.80453e-07
8.97716e-05
2.68479e-07
8.97962e-05
2.56243e-07
8.98207e-05
2.43804e-07
8.98452e-05
2.31191e-07
8.98698e-05
2.18411e-07
8.98944e-05
2.05444e-07
8.99191e-05
1.9225e-07
8.9944e-05
1.78769e-07
8.99691e-05
1.64927e-07
8.99943e-05
1.50642e-07
1.35836e-07
9.00196e-05
9.19542e-05
1.02786e-08
9.1943e-05
3.33478e-08
9.19318e-05
6.38211e-08
9.19244e-05
1.00701e-07
9.19234e-05
1.41555e-07
9.19293e-05
1.82277e-07
9.19413e-05
2.19333e-07
9.1958e-05
2.50836e-07
9.19783e-05
2.76072e-07
9.20011e-05
2.95052e-07
9.20256e-05
3.08247e-07
9.2051e-05
3.16362e-07
9.2077e-05
3.20166e-07
9.21032e-05
3.20399e-07
9.21295e-05
3.1773e-07
9.21557e-05
3.12733e-07
9.21817e-05
3.05895e-07
9.22074e-05
2.97613e-07
9.22329e-05
2.88212e-07
9.22582e-05
2.7795e-07
9.22833e-05
2.67029e-07
9.23081e-05
2.55607e-07
9.23328e-05
2.43801e-07
9.23573e-05
2.31695e-07
9.23818e-05
2.19345e-07
9.24062e-05
2.06778e-07
9.24306e-05
1.94003e-07
9.2455e-05
1.81007e-07
9.24795e-05
1.67758e-07
9.25041e-05
1.54215e-07
9.25287e-05
1.40324e-07
9.25533e-05
1.26031e-07
1.11288e-07
9.25779e-05
9.45839e-05
1.35166e-08
9.4577e-05
4.02576e-08
9.45701e-05
7.07043e-08
9.45661e-05
1.04718e-07
9.4567e-05
1.40701e-07
9.45733e-05
1.75917e-07
9.45848e-05
2.07873e-07
9.46005e-05
2.35111e-07
9.46196e-05
2.57011e-07
9.46411e-05
2.73528e-07
9.46643e-05
2.84996e-07
9.46887e-05
2.91964e-07
9.47139e-05
2.95055e-07
9.47394e-05
2.94892e-07
9.4765e-05
2.92049e-07
9.47907e-05
2.87032e-07
9.48164e-05
2.80272e-07
9.48418e-05
2.72132e-07
9.48672e-05
2.62906e-07
9.48923e-05
2.52832e-07
9.49172e-05
2.42099e-07
9.4942e-05
2.30852e-07
9.49666e-05
2.19201e-07
9.4991e-05
2.07225e-07
9.50154e-05
1.94975e-07
9.50397e-05
1.82483e-07
9.50639e-05
1.69757e-07
9.50882e-05
1.56791e-07
9.51123e-05
1.43565e-07
9.51365e-05
1.30051e-07
9.51606e-05
1.16214e-07
9.51846e-05
1.02023e-07
8.74517e-08
9.52085e-05
9.72879e-05
1.51724e-08
9.72841e-05
4.40191e-08
9.72806e-05
7.41965e-08
9.72794e-05
1.05895e-07
9.72821e-05
1.38043e-07
9.72892e-05
1.68812e-07
9.73006e-05
1.9648e-07
9.73157e-05
2.19974e-07
9.73339e-05
2.38818e-07
9.73545e-05
2.52972e-07
9.73768e-05
2.62697e-07
9.74003e-05
2.68435e-07
9.74247e-05
2.70702e-07
9.74495e-05
2.70022e-07
9.74747e-05
2.6689e-07
9.75e-05
2.61748e-07
9.75253e-05
2.54979e-07
9.75505e-05
2.46906e-07
9.75756e-05
2.37796e-07
9.76006e-05
2.27866e-07
9.76254e-05
2.17288e-07
9.765e-05
2.06197e-07
9.76745e-05
1.94694e-07
9.76989e-05
1.82854e-07
9.77232e-05
1.70726e-07
9.77473e-05
1.58341e-07
9.77713e-05
1.4571e-07
9.77953e-05
1.32835e-07
9.78192e-05
1.19705e-07
9.78429e-05
1.06303e-07
9.78665e-05
9.26122e-08
9.78899e-05
7.86156e-08
6.43062e-08
9.79131e-05
0.000100068
1.58151e-08
0.000100067
4.55535e-08
0.000100066
7.51349e-08
0.000100067
1.04796e-07
0.000100071
1.33793e-07
0.000100079
1.60895e-07
0.000100091
1.84928e-07
0.000100106
2.05143e-07
0.000100123
2.21213e-07
0.000100143
2.33137e-07
0.000100165
2.41148e-07
0.000100187
2.45619e-07
0.000100211
2.46988e-07
0.000100235
2.45703e-07
0.00010026
2.42192e-07
0.000100285
2.3684e-07
0.00010031
2.29986e-07
0.000100335
2.21918e-07
0.00010036
2.12874e-07
0.000100385
2.03051e-07
0.000100409
1.92604e-07
0.000100434
1.81657e-07
0.000100458
1.70303e-07
0.000100483
1.58611e-07
0.000100507
1.46628e-07
0.000100531
1.34385e-07
0.000100555
1.21898e-07
0.000100578
1.09172e-07
0.000100602
9.62059e-08
0.000100625
8.29933e-08
0.000100648
6.9528e-08
0.000100671
5.58062e-08
4.18332e-08
0.000100693
0.000102928
1.5825e-08
0.000102928
4.55713e-08
0.000102929
7.42483e-08
0.000102932
1.02001e-07
0.000102937
1.28286e-07
0.000102946
1.52267e-07
0.000102958
1.73162e-07
0.000102972
1.90477e-07
0.000102989
2.04024e-07
0.000103009
2.13858e-07
0.00010303
2.20204e-07
0.000103052
2.23398e-07
0.000103075
2.23823e-07
0.000103099
2.21868e-07
0.000103123
2.17906e-07
0.000103148
2.12277e-07
0.000103172
2.05277e-07
0.000103197
1.97161e-07
0.000103222
1.88143e-07
0.000103247
1.78397e-07
0.000103271
1.68063e-07
0.000103296
1.57253e-07
0.00010332
1.46053e-07
0.000103344
1.34524e-07
0.000103368
1.22713e-07
0.000103392
1.10649e-07
0.000103415
9.83523e-08
0.000103438
8.58322e-08
0.000103462
7.30934e-08
0.000103484
6.01381e-08
0.000103507
4.69686e-08
0.000103529
3.35906e-08
2.00173e-08
0.000103551
0.000105869
1.54589e-08
0.00010587
4.46201e-08
0.000105872
7.21584e-08
0.000105876
9.80644e-08
0.000105882
1.2192e-07
0.000105892
1.43155e-07
0.000105903
1.61268e-07
0.000105918
1.7597e-07
0.000105935
1.87195e-07
0.000105954
1.95055e-07
0.000105974
1.99788e-07
0.000105996
2.01706e-07
0.000106018
2.01154e-07
0.000106042
1.9848e-07
0.000106066
1.94012e-07
0.00010609
1.88048e-07
0.000106114
1.8085e-07
0.000106139
1.72643e-07
0.000106163
1.63615e-07
0.000106188
1.53921e-07
0.000106212
1.43687e-07
0.000106236
1.33011e-07
0.000106261
1.2197e-07
0.000106284
1.10623e-07
0.000106308
9.90104e-08
0.000106332
8.71634e-08
0.000106355
7.5102e-08
0.000106378
6.28398e-08
0.000106401
5.03862e-08
0.000106423
3.77493e-08
0.000106445
2.49374e-08
0.000106467
1.19627e-08
-1.15677e-09
0.000106488
0.000108894
1.48963e-08
0.000108895
4.31306e-08
0.000108898
6.93989e-08
0.000108903
9.35127e-08
0.00010891
1.1513e-07
0.000108919
1.33871e-07
0.000108931
1.49447e-07
0.000108945
1.61736e-07
0.000108961
1.7078e-07
0.00010898
1.7675e-07
0.000109
1.79902e-07
0.000109021
1.80538e-07
0.000109043
1.7898e-07
0.000109066
1.75542e-07
0.000109089
1.70516e-07
0.000109113
1.64166e-07
0.000109137
1.56723e-07
0.000109162
1.48384e-07
0.000109186
1.39314e-07
0.00010921
1.29651e-07
0.000109234
1.19503e-07
0.000109258
1.08959e-07
0.000109282
9.80857e-08
0.000109306
8.69361e-08
0.000109329
7.55491e-08
0.000109353
6.39529e-08
0.000109376
5.21688e-08
0.000109398
4.02121e-08
0.00010942
2.80956e-08
0.000109442
1.58309e-08
0.000109464
3.43083e-09
0.000109485
-9.08913e-09
-2.17078e-08
0.000109505
0.000112005
1.42712e-08
0.000112007
4.14594e-08
0.00011201
6.64454e-08
0.000112014
8.88492e-08
0.000112021
1.08377e-07
0.00011203
1.24797e-07
0.000112042
1.37995e-07
0.000112055
1.47993e-07
0.000112071
1.54937e-07
0.000112089
1.59056e-07
0.000112108
1.60629e-07
0.000112129
1.59962e-07
0.00011215
1.57357e-07
0.000112173
1.53103e-07
0.000112196
1.47464e-07
0.000112219
1.40673e-07
0.000112243
1.32935e-07
0.000112267
1.24422e-07
0.000112291
1.15278e-07
0.000112315
1.0562e-07
0.000112339
9.55439e-08
0.000112363
8.51262e-08
0.000112387
7.44259e-08
0.00011241
6.34887e-08
0.000112433
5.23494e-08
0.000112456
4.10346e-08
0.000112479
2.95645e-08
0.000112501
1.79554e-08
0.000112523
6.22136e-09
0.000112544
-5.62377e-09
0.000112565
-1.75653e-08
0.000112586
-2.95857e-08
-4.1663e-08
0.000112606
0.000115205
1.36964e-08
0.000115207
3.99298e-08
0.000115209
6.37542e-08
0.000115214
8.45835e-08
0.00011522
1.02158e-07
0.000115228
1.1638e-07
0.000115239
1.27291e-07
0.000115252
1.35056e-07
0.000115267
1.3992e-07
0.000115284
1.42176e-07
0.000115302
1.42137e-07
0.000115322
1.40111e-07
0.000115343
1.36395e-07
0.000115365
1.31255e-07
0.000115387
1.24933e-07
0.00011541
1.17637e-07
0.000115434
1.09545e-07
0.000115457
1.00806e-07
0.000115481
9.15452e-08
0.000115505
8.1862e-08
0.000115529
7.18377e-08
0.000115552
6.15364e-08
0.000115576
5.10084e-08
0.000115599
4.02923e-08
0.000115622
2.94182e-08
0.000115644
1.84094e-08
0.000115667
7.28427e-09
0.000115689
-3.94161e-09
0.00011571
-1.52541e-08
0.000115731
-2.66392e-08
0.000115752
-3.80818e-08
0.000115772
-4.9564e-08
-6.10644e-08
0.000115791
0.000118496
1.32829e-08
0.000118497
3.88754e-08
0.000118499
6.1812e-08
0.000118503
8.1275e-08
0.000118508
9.70416e-08
0.000118515
1.09153e-07
0.000118524
1.17814e-07
0.000118536
1.23336e-07
0.00011855
1.26078e-07
0.000118566
1.26403e-07
0.000118583
1.24663e-07
0.000118602
1.21183e-07
0.000118622
1.16253e-07
0.000118643
1.10128e-07
0.000118665
1.03028e-07
0.000118688
9.51383e-08
0.000118711
8.66145e-08
0.000118734
7.75843e-08
0.000118757
6.8152e-08
0.000118781
5.84009e-08
0.000118804
4.83975e-08
0.000118828
3.81935e-08
0.000118851
2.78293e-08
0.000118874
1.73359e-08
0.000118896
6.73742e-09
0.000118919
-3.94744e-09
0.000118941
-1.47032e-08
0.000118962
-2.55166e-08
0.000118983
-3.63749e-08
0.000119004
-4.72655e-08
0.000119024
-5.81741e-08
0.000119044
-6.90843e-08
-7.99762e-08
0.000119063
0.000121881
1.31619e-08
0.000121882
3.86939e-08
0.000121882
6.12029e-08
0.000121884
7.95987e-08
0.000121887
9.37187e-08
0.000121893
1.03774e-07
0.0001219
1.1016e-07
0.00012191
1.13357e-07
0.000121922
1.13855e-07
0.000121937
1.12107e-07
0.000121953
1.08513e-07
0.000121971
1.0342e-07
0.00012199
9.71235e-08
0.00012201
8.98676e-08
0.000122031
8.18556e-08
0.000122053
7.32528e-08
0.000122076
6.41926e-08
0.000122098
5.47818e-08
0.000122121
4.51049e-08
0.000122145
3.52278e-08
0.000122168
2.52013e-08
0.000122191
1.50643e-08
0.000122214
4.84602e-09
0.000122237
-5.43144e-09
0.000122259
-1.57514e-08
0.000122281
-2.61008e-08
0.000122303
-3.64689e-08
0.000122324
-4.68461e-08
0.000122345
-5.72228e-08
0.000122366
-6.75889e-08
0.000122385
-7.79327e-08
0.000122404
-8.82403e-08
-9.84943e-08
0.000122423
0.000125363
1.35129e-08
0.000125362
3.99237e-08
0.00012536
6.27052e-08
0.00012536
8.04406e-08
0.00012536
9.30864e-08
0.000125363
1.01088e-07
0.000125368
1.05084e-07
0.000125376
1.05768e-07
0.000125386
1.03795e-07
0.000125398
9.97261e-08
0.000125412
9.40284e-08
0.000125429
8.70826e-08
0.000125447
7.91929e-08
0.000125466
7.05996e-08
0.000125486
6.14911e-08
0.000125508
5.2013e-08
0.000125529
4.22773e-08
0.000125552
3.2369e-08
0.000125575
2.23517e-08
0.000125598
1.22723e-08
0.000125621
2.16469e-09
0.000125644
-7.94712e-09
0.000125667
-1.80465e-08
0.000125689
-2.81222e-08
0.000125712
-3.81665e-08
0.000125734
-4.8174e-08
0.000125755
-5.81402e-08
0.000125777
-6.80608e-08
0.000125797
-7.79311e-08
0.000125817
-8.77448e-08
0.000125837
-9.74943e-08
0.000125856
-1.07169e-07
-1.16756e-07
0.000125874
0.000128944
1.46126e-08
0.000128941
4.33684e-08
0.000128936
6.74425e-08
0.000128931
8.50397e-08
0.000128928
9.63626e-08
0.000128927
1.02207e-07
0.000128928
1.03545e-07
0.000128933
1.01361e-07
0.00012894
9.65229e-08
0.00012895
8.97338e-08
0.000128963
8.15483e-08
0.000128977
7.23926e-08
0.000128994
6.25879e-08
0.000129012
5.2372e-08
0.000129032
4.1919e-08
0.000129052
3.13539e-08
0.000129074
2.0765e-08
0.000129096
1.02126e-08
0.000129119
-2.63165e-10
0.000129141
-1.06373e-08
0.000129165
-2.08958e-08
0.000129188
-3.10321e-08
0.000129211
-4.1045e-08
0.000129233
-5.09362e-08
0.000129256
-6.07096e-08
0.000129278
-7.03692e-08
0.0001293
-7.9919e-08
0.000129321
-8.93619e-08
0.000129342
-9.86994e-08
0.000129362
-1.07931e-07
0.000129382
-1.17054e-07
0.000129401
-1.26064e-07
-1.3495e-07
0.000129419
0.000132627
1.69257e-08
0.00013262
5.03126e-08
0.00013261
7.71241e-08
0.0001326
9.51971e-08
0.000132591
1.0524e-07
0.000132585
1.08597e-07
0.000132582
1.06734e-07
0.000132582
1.01047e-07
0.000132586
9.26926e-08
0.000132593
8.256e-08
0.000132603
7.13151e-08
0.000132616
5.94415e-08
0.000132631
4.72803e-08
0.000132649
3.50651e-08
0.000132668
2.29513e-08
0.000132688
1.10375e-08
0.000132709
-6.17953e-10
0.000132731
-1.19847e-08
0.000132754
-2.3052e-08
0.000132777
-3.38217e-08
0.000132801
-4.43042e-08
0.000132824
-5.45145e-08
0.000132848
-6.44702e-08
0.000132871
-7.41897e-08
0.000132894
-8.36908e-08
0.000132917
-9.299e-08
0.000132939
-1.02102e-07
0.000132961
-1.11038e-07
0.000132982
-1.19809e-07
0.000133002
-1.28421e-07
0.000133022
-1.36879e-07
0.000133041
-1.45181e-07
-1.53327e-07
0.000133059
0.000136414
2.12878e-08
0.000136401
6.29126e-08
0.000136384
9.44364e-08
0.000136366
1.13576e-07
0.000136349
1.22066e-07
0.000136335
1.22146e-07
0.000136326
1.16045e-07
0.000136321
1.05762e-07
0.000136321
9.28519e-08
0.000136325
7.84389e-08
0.000136333
6.33203e-08
0.000136345
4.80397e-08
0.000136359
3.29503e-08
0.000136376
1.82687e-08
0.000136395
4.1179e-09
0.000136415
-9.44296e-09
0.000136437
-2.23972e-08
0.00013646
-3.47557e-08
0.000136483
-4.65455e-08
0.000136507
-5.78034e-08
0.000136531
-6.85706e-08
0.000136556
-7.88895e-08
0.00013658
-8.88011e-08
0.000136604
-9.83444e-08
0.000136628
-1.07555e-07
0.000136652
-1.16464e-07
0.000136675
-1.25099e-07
0.000136697
-1.33485e-07
0.000136719
-1.41639e-07
0.00013674
-1.49579e-07
0.00013676
-1.57316e-07
0.00013678
-1.64858e-07
-1.72207e-07
0.000136799
0.000140308
2.92896e-08
0.000140286
8.49208e-08
0.000140257
1.23668e-07
0.000140226
1.44094e-07
0.000140198
1.49998e-07
0.000140175
1.45111e-07
0.000140158
1.32885e-07
0.000140148
1.16214e-07
0.000140144
9.71688e-08
0.000140145
7.71438e-08
0.000140151
5.70628e-08
0.000140162
3.75055e-08
0.000140176
1.88047e-08
0.000140193
1.12838e-09
0.000140212
-1.54615e-08
0.000140234
-3.09696e-08
0.000140257
-4.5441e-08
0.000140281
-5.89437e-08
0.000140306
-7.15563e-08
0.000140332
-8.33609e-08
0.000140358
-9.4438e-08
0.000140384
-1.04864e-07
0.00014041
-1.14709e-07
0.000140435
-1.24038e-07
0.000140461
-1.32907e-07
0.000140485
-1.41365e-07
0.00014051
-1.49457e-07
0.000140534
-1.57219e-07
0.000140557
-1.64683e-07
0.000140579
-1.71874e-07
0.0001406
-1.78813e-07
0.000140621
-1.85517e-07
-1.91995e-07
0.000140641
0.00014431
4.41359e-08
0.000144272
1.23017e-07
0.000144224
1.71639e-07
0.000144175
1.92329e-07
0.000144132
1.92966e-07
0.000144098
1.79785e-07
0.000144072
1.58205e-07
0.000144056
1.32384e-07
0.000144049
1.04973e-07
0.000144048
7.75929e-08
0.000144054
5.12222e-08
0.000144065
2.63995e-08
0.00014408
3.36433e-09
0.000144099
-1.78254e-08
0.000144121
-3.72166e-08
0.000144145
-5.49145e-08
0.000144171
-7.10547e-08
0.000144198
-8.57838e-08
0.000144225
-9.92486e-08
0.000144253
-1.11589e-07
0.000144282
-1.22935e-07
0.000144311
-1.33404e-07
0.000144339
-1.43103e-07
0.000144367
-1.52124e-07
0.000144395
-1.60549e-07
0.000144422
-1.6845e-07
0.000144448
-1.75888e-07
0.000144474
-1.82914e-07
0.000144499
-1.89575e-07
0.000144523
-1.95906e-07
0.000144546
-2.01938e-07
0.000144568
-2.07697e-07
-2.13201e-07
0.000144589
0.000148419
7.26905e-08
0.000148353
1.89201e-07
0.000148276
2.48846e-07
0.000148203
2.65617e-07
0.000148141
2.55113e-07
0.000148093
2.27613e-07
0.000148059
1.91577e-07
0.000148039
1.52726e-07
0.00014803
1.14115e-07
0.00014803
7.73498e-08
0.000148038
4.32751e-08
0.000148052
1.22282e-08
0.000148071
-1.57715e-08
0.000148094
-4.08696e-08
0.000148121
-6.32877e-08
0.000148149
-8.32794e-08
0.000148179
-1.01105e-07
0.00014821
-1.17014e-07
0.000148242
-1.3124e-07
0.000148275
-1.43994e-07
0.000148307
-1.55465e-07
0.000148339
-1.6582e-07
0.000148372
-1.75204e-07
0.000148403
-1.83745e-07
0.000148434
-1.91553e-07
0.000148464
-1.98722e-07
0.000148494
-2.05334e-07
0.000148522
-2.11456e-07
0.00014855
-2.17148e-07
0.000148577
-2.22459e-07
0.000148602
-2.27431e-07
0.000148626
-2.32097e-07
-2.36484e-07
0.00014865
0.000152632
1.29907e-07
0.000152516
3.05202e-07
0.000152394
3.70648e-07
0.000152288
3.72185e-07
0.000152204
3.39079e-07
0.000152144
2.87389e-07
0.000152106
2.29709e-07
0.000152085
1.73069e-07
0.000152079
1.20167e-07
0.000152085
7.20396e-08
0.000152099
2.90458e-08
0.00015212
-8.92135e-09
0.000152146
-4.22381e-08
0.000152177
-7.13694e-08
0.00015221
-9.67866e-08
0.000152246
-1.18941e-07
0.000152283
-1.38253e-07
0.000152321
-1.551e-07
0.00015236
-1.69818e-07
0.000152399
-1.82701e-07
0.000152437
-1.94006e-07
0.000152475
-2.03953e-07
0.000152513
-2.12733e-07
0.00015255
-2.20509e-07
0.000152585
-2.27422e-07
0.00015262
-2.33591e-07
0.000152654
-2.39117e-07
0.000152687
-2.44086e-07
0.000152718
-2.48571e-07
0.000152748
-2.52634e-07
0.000152777
-2.56327e-07
0.000152805
-2.59692e-07
-2.62766e-07
0.000152831
0.000156935
2.46058e-07
0.00015673
5.1091e-07
0.000156541
5.5877e-07
0.000156395
5.19051e-07
0.000156291
4.42824e-07
0.000156226
3.52317e-07
0.000156191
2.64244e-07
0.000156179
1.85028e-07
0.000156184
1.15194e-07
0.000156202
5.43094e-08
0.000156229
1.78748e-09
0.000156264
-4.32226e-08
0.000156303
-8.16906e-08
0.000156346
-1.14517e-07
0.000156392
-1.4249e-07
0.000156439
-1.66304e-07
0.000156488
-1.86567e-07
0.000156536
-2.03806e-07
0.000156585
-2.18471e-07
0.000156633
-2.30948e-07
0.000156681
-2.41567e-07
0.000156728
-2.50605e-07
0.000156773
-2.58301e-07
0.000156817
-2.64854e-07
0.00015686
-2.70436e-07
0.000156902
-2.75189e-07
0.000156942
-2.79235e-07
0.000156981
-2.82677e-07
0.000157018
-2.85601e-07
0.000157053
-2.88081e-07
0.000157087
-2.90177e-07
0.000157119
-2.91942e-07
-2.93423e-07
0.00015715
0.000161294
4.90829e-07
0.000160931
8.73921e-07
0.000160653
8.36575e-07
0.000160464
7.07519e-07
0.000160352
5.55692e-07
0.000160297
4.06622e-07
0.000160282
2.79148e-07
0.000160294
1.73715e-07
0.000160323
8.54151e-08
0.000160366
1.13616e-08
0.000160418
-5.03668e-08
0.000160477
-1.0167e-07
0.00016054
-1.4432e-07
0.000160605
-1.79763e-07
0.000160671
-2.0916e-07
0.000160739
-2.33486e-07
0.000160806
-2.53566e-07
0.000160872
-2.70094e-07
0.000160937
-2.83648e-07
0.000161001
-2.94712e-07
0.000161063
-3.03687e-07
0.000161123
-3.10914e-07
0.000161182
-3.16674e-07
0.000161238
-3.21204e-07
0.000161292
-3.24702e-07
0.000161344
-3.27333e-07
0.000161394
-3.29236e-07
0.000161442
-3.30527e-07
0.000161488
-3.31303e-07
0.000161532
-3.31645e-07
0.000161573
-3.31619e-07
0.000161612
-3.31282e-07
-3.3068e-07
0.00016165
0.000165516
1.12866e-06
0.000164915
1.47501e-06
0.000164579
1.17249e-06
0.000164389
8.96946e-07
0.00016431
6.34579e-07
0.000164306
4.10887e-07
0.000164344
2.41589e-07
0.000164407
1.10945e-07
0.000164486
5.56299e-09
0.000164578
-8.00699e-08
0.000164677
-1.4911e-07
0.000164779
-2.04606e-07
0.000164884
-2.49236e-07
0.00016499
-2.85041e-07
0.000165094
-3.13592e-07
0.000165197
-3.36187e-07
0.000165297
-3.53902e-07
0.000165395
-3.6762e-07
0.000165489
-3.78058e-07
0.00016558
-3.85804e-07
0.000165668
-3.9134e-07
0.000165752
-3.95062e-07
0.000165833
-3.97296e-07
0.00016591
-3.9831e-07
0.000165983
-3.98325e-07
0.000166054
-3.97525e-07
0.00016612
-3.96062e-07
0.000166184
-3.94061e-07
0.000166244
-3.91628e-07
0.000166301
-3.88852e-07
0.000166356
-3.85812e-07
0.000166407
-3.82576e-07
-3.79217e-07