/*--------------------------------*- C++ -*----------------------------------*\
  =========                 |
  \\      /  F ield         | OpenFOAM: The Open Source CFD Toolbox
   \\    /   O peration     | Website:  https://openfoam.org
    \\  /    A nd           | Version:  10
     \\/     M anipulation  |
\*---------------------------------------------------------------------------*/
FoamFile
{
    format      ascii;
    class       volVectorField;
    location    "600";
    object      U;
}
// * * * * * * * * * * * * * * * * * * * * * * * * * * * * * * * * * * * * * //

dimensions      [0 1 -1 0 0 0 0];

internalField   nonuniform List<vector> 
6820
(
(7.13228 -2.83247 0)
(7.73434 -2.22097 0)
(7.93448 -1.24474 0)
(7.85771 -0.630598 0)
(7.69323 -0.300929 0)
(7.5179 -0.135202 0)
(7.34934 -0.0534964 0)
(7.19461 -0.0130608 0)
(7.05692 0.00686735 0)
(6.93548 0.0163316 0)
(6.82781 0.0203878 0)
(6.73175 0.0216642 0)
(6.64553 0.0215344 0)
(6.56774 0.0207135 0)
(6.49717 0.0195793 0)
(6.43281 0.0183351 0)
(6.37388 0.0170882 0)
(6.3197 0.0158927 0)
(6.26972 0.0147735 0)
(6.22347 0.0137401 0)
(6.18055 0.0127936 0)
(6.1406 0.0119315 0)
(6.10334 0.0111495 0)
(6.06849 0.0104436 0)
(6.03581 0.00981052 0)
(6.00507 0.0092497 0)
(5.97606 0.00876465 0)
(5.94851 0.00836389 0)
(5.92223 0.00807785 0)
(5.89667 0.00792164 0)
(5.87175 0.00803959 0)
(5.84308 0.00839771 0)
(5.83175 0.00537391 0)
(7.57676 0.619468 0)
(7.41857 0.759316 0)
(7.35518 0.519492 0)
(7.35368 0.339 0)
(7.40445 0.233425 0)
(7.46265 0.167015 0)
(7.50279 0.124257 0)
(7.52295 0.0970545 0)
(7.52873 0.0793564 0)
(7.52453 0.0672647 0)
(7.51316 0.0586435 0)
(7.49674 0.0522985 0)
(7.47702 0.0474872 0)
(7.45519 0.0437219 0)
(7.43205 0.0406825 0)
(7.40817 0.0381635 0)
(7.38393 0.0360293 0)
(7.35964 0.0341865 0)
(7.3355 0.0325698 0)
(7.31165 0.0311332 0)
(7.28819 0.0298441 0)
(7.26519 0.0286789 0)
(7.24272 0.0276211 0)
(7.22079 0.0266597 0)
(7.19942 0.0257889 0)
(7.17862 0.0250083 0)
(7.1584 0.0243254 0)
(7.13873 0.0237543 0)
(7.11965 0.0233463 0)
(7.10104 0.0231182 0)
(7.08331 0.0233715 0)
(7.06561 0.0237087 0)
(7.05452 0.0289988 0)
(7.26194 -0.0479134 0)
(7.1598 -0.0718962 0)
(7.1968 -0.0844986 0)
(7.23914 -0.0533645 0)
(7.2763 -0.0172187 0)
(7.31445 0.00634094 0)
(7.34735 0.0206598 0)
(7.37267 0.030013 0)
(7.39196 0.036012 0)
(7.40649 0.039493 0)
(7.41685 0.0412579 0)
(7.42372 0.0419533 0)
(7.42778 0.0419884 0)
(7.42963 0.0416079 0)
(7.4297 0.0409703 0)
(7.42834 0.0401834 0)
(7.42583 0.0393176 0)
(7.4224 0.0384171 0)
(7.41824 0.0375101 0)
(7.4135 0.0366148 0)
(7.40829 0.0357433 0)
(7.4027 0.0349037 0)
(7.39683 0.0341024 0)
(7.39073 0.0333453 0)
(7.38446 0.0326392 0)
(7.37805 0.0319935 0)
(7.37153 0.0314239 0)
(7.36494 0.0309502 0)
(7.35829 0.0306225 0)
(7.35155 0.0304676 0)
(7.3449 0.0306921 0)
(7.33803 0.0311975 0)
(7.33261 0.0336062 0)
(7.29243 -0.0887241 0)
(7.22392 -0.0614692 0)
(7.23482 -0.0268955 0)
(7.25115 -0.0010297 0)
(7.2656 0.0189138 0)
(7.28495 0.0304736 0)
(7.30448 0.036276 0)
(7.32128 0.0394575 0)
(7.33581 0.0412411 0)
(7.3485 0.0420182 0)
(7.3593 0.0421284 0)
(7.36832 0.0418638 0)
(7.37578 0.0413923 0)
(7.3819 0.0407977 0)
(7.38689 0.0401304 0)
(7.39089 0.0394258 0)
(7.39405 0.0387073 0)
(7.39649 0.0379889 0)
(7.39831 0.0372798 0)
(7.39961 0.0365862 0)
(7.40046 0.0359132 0)
(7.40093 0.035265 0)
(7.40106 0.0346462 0)
(7.40091 0.0340622 0)
(7.40051 0.0335205 0)
(7.39989 0.0330317 0)
(7.39908 0.032613 0)
(7.39811 0.0322864 0)
(7.39701 0.0320964 0)
(7.39578 0.0320788 0)
(7.39455 0.0323731 0)
(7.39331 0.0329495 0)
(7.39269 0.0344201 0)
(7.31244 -0.0515014 0)
(7.26793 -0.0318716 0)
(7.26467 -0.0126145 0)
(7.26768 -5.35855e-05 0)
(7.27321 0.0130571 0)
(7.28435 0.0226512 0)
(7.2969 0.0282858 0)
(7.30832 0.0318846 0)
(7.31872 0.0343758 0)
(7.32833 0.0359772 0)
(7.337 0.0368968 0)
(7.3447 0.0373644 0)
(7.35152 0.037533 0)
(7.35756 0.0374903 0)
(7.36291 0.0372959 0)
(7.36764 0.0369958 0)
(7.37183 0.0366235 0)
(7.37554 0.0362028 0)
(7.37882 0.0357508 0)
(7.38174 0.0352806 0)
(7.38432 0.0348029 0)
(7.38662 0.0343265 0)
(7.38866 0.0338597 0)
(7.39047 0.0334114 0)
(7.39208 0.0329914 0)
(7.39351 0.0326125 0)
(7.39479 0.032292 0)
(7.39593 0.032052 0)
(7.39697 0.0319279 0)
(7.39795 0.0319528 0)
(7.39894 0.0322062 0)
(7.40004 0.0326829 0)
(7.40153 0.0335782 0)
(7.3203 -0.0314384 0)
(7.28849 -0.0238333 0)
(7.28204 -0.0120188 0)
(7.28139 -0.00206731 0)
(7.28395 0.00927142 0)
(7.29102 0.0182405 0)
(7.2996 0.023986 0)
(7.30775 0.0278592 0)
(7.31545 0.0306248 0)
(7.32275 0.0324986 0)
(7.32955 0.0336819 0)
(7.33577 0.0343918 0)
(7.34147 0.0347785 0)
(7.34669 0.0349327 0)
(7.35148 0.0349171 0)
(7.35588 0.0347794 0)
(7.35992 0.0345547 0)
(7.36365 0.034268 0)
(7.36709 0.033938 0)
(7.37028 0.0335788 0)
(7.37324 0.0332022 0)
(7.376 0.0328179 0)
(7.37858 0.032435 0)
(7.38099 0.0320628 0)
(7.38326 0.0317115 0)
(7.3854 0.0313934 0)
(7.38744 0.0311238 0)
(7.38939 0.0309217 0)
(7.39128 0.0308125 0)
(7.39316 0.0308202 0)
(7.3951 0.0309843 0)
(7.39719 0.0312958 0)
(7.39957 0.0317935 0)
(7.32446 -0.0216644 0)
(7.30104 -0.0195761 0)
(7.29416 -0.0109273 0)
(7.2922 -0.0021972 0)
(7.29331 0.00755636 0)
(7.29804 0.015574 0)
(7.30422 0.0210662 0)
(7.3104 0.0249127 0)
(7.3164 0.0277056 0)
(7.32222 0.0296592 0)
(7.32773 0.0309614 0)
(7.33288 0.0318023 0)
(7.33768 0.0323181 0)
(7.34216 0.0325954 0)
(7.34635 0.0326955 0)
(7.35027 0.0326649 0)
(7.35395 0.0325382 0)
(7.35741 0.0323408 0)
(7.36068 0.0320915 0)
(7.36377 0.0318052 0)
(7.36669 0.0314941 0)
(7.36948 0.0311684 0)
(7.37213 0.0308374 0)
(7.37468 0.0305105 0)
(7.37712 0.0301972 0)
(7.37948 0.0299086 0)
(7.38177 0.0296574 0)
(7.38401 0.0294579 0)
(7.38624 0.0293266 0)
(7.38849 0.0292768 0)
(7.39083 0.0293222 0)
(7.39332 0.0294452 0)
(7.39604 0.0296269 0)
(7.32737 -0.0149922 0)
(7.31004 -0.0151702 0)
(7.30324 -0.00891787 0)
(7.30059 -0.00164758 0)
(7.30082 0.00656386 0)
(7.30407 0.0136102 0)
(7.30871 0.0187447 0)
(7.3136 0.0224794 0)
(7.31849 0.025243 0)
(7.32332 0.0272287 0)
(7.32797 0.0286041 0)
(7.33237 0.0295326 0)
(7.33652 0.0301362 0)
(7.34045 0.0304971 0)
(7.34417 0.0306751 0)
(7.34769 0.0307157 0)
(7.35104 0.0306531 0)
(7.35422 0.0305126 0)
(7.35726 0.0303138 0)
(7.36016 0.0300718 0)
(7.36295 0.0297991 0)
(7.36564 0.0295061 0)
(7.36824 0.029202 0)
(7.37075 0.0288958 0)
(7.3732 0.0285961 0)
(7.37559 0.0283123 0)
(7.37794 0.0280538 0)
(7.38028 0.0278305 0)
(7.38263 0.0276511 0)
(7.38501 0.0275198 0)
(7.38749 0.0274351 0)
(7.39011 0.0273735 0)
(7.39293 0.0272988 0)
(7.3294 -0.00997553 0)
(7.31672 -0.0111171 0)
(7.3103 -0.00679268 0)
(7.30731 -0.00092144 0)
(7.30696 0.00594771 0)
(7.30918 0.0121053 0)
(7.31272 0.0168442 0)
(7.31669 0.0204175 0)
(7.32079 0.0231148 0)
(7.32492 0.0250974 0)
(7.32894 0.0265104 0)
(7.3328 0.0274937 0)
(7.33649 0.0281556 0)
(7.34001 0.0285735 0)
(7.34337 0.028805 0)
(7.34658 0.0288942 0)
(7.34965 0.0288746 0)
(7.3526 0.0287717 0)
(7.35543 0.028605 0)
(7.35817 0.02839 0)
(7.36082 0.0281391 0)
(7.36339 0.0278627 0)
(7.36589 0.0275697 0)
(7.36833 0.0272684 0)
(7.37073 0.0269664 0)
(7.37309 0.0266709 0)
(7.37543 0.0263887 0)
(7.37777 0.0261251 0)
(7.38014 0.0258831 0)
(7.38256 0.0256606 0)
(7.38506 0.0254474 0)
(7.38769 0.0252184 0)
(7.39046 0.0249353 0)
(7.33075 -0.00639345 0)
(7.32164 -0.00774999 0)
(7.31591 -0.00477207 0)
(7.31286 -8.07102e-05 0)
(7.31212 0.00563122 0)
(7.31358 0.0109708 0)
(7.3163 0.0152849 0)
(7.31955 0.0186505 0)
(7.32304 0.0212444 0)
(7.32662 0.0231909 0)
(7.33016 0.024611 0)
(7.33361 0.0256225 0)
(7.33694 0.0263205 0)
(7.34015 0.0267763 0)
(7.34323 0.0270443 0)
(7.34619 0.0271669 0)
(7.34905 0.0271767 0)
(7.3518 0.0270986 0)
(7.35447 0.0269521 0)
(7.35706 0.0267527 0)
(7.35958 0.0265126 0)
(7.36204 0.0262421 0)
(7.36445 0.0259497 0)
(7.36681 0.0256427 0)
(7.36914 0.0253275 0)
(7.37145 0.0250095 0)
(7.37376 0.024693 0)
(7.37607 0.0243798 0)
(7.37841 0.024069 0)
(7.38081 0.023754 0)
(7.38328 0.0234213 0)
(7.38585 0.0230462 0)
(7.38853 0.0225941 0)
(7.33162 -0.00392816 0)
(7.32523 -0.00505502 0)
(7.32037 -0.00292091 0)
(7.31748 0.000823726 0)
(7.31653 0.00554224 0)
(7.31744 0.0101307 0)
(7.31952 0.0140044 0)
(7.32219 0.0171256 0)
(7.32518 0.0195833 0)
(7.32831 0.0214645 0)
(7.33146 0.0228652 0)
(7.33457 0.0238822 0)
(7.33761 0.0245975 0)
(7.34056 0.0250753 0)
(7.34341 0.0253664 0)
(7.34618 0.0255107 0)
(7.34886 0.0255392 0)
(7.35146 0.0254765 0)
(7.35399 0.0253416 0)
(7.35645 0.0251496 0)
(7.35886 0.0249126 0)
(7.36122 0.0246404 0)
(7.36354 0.024341 0)
(7.36583 0.0240209 0)
(7.3681 0.0236853 0)
(7.37035 0.023338 0)
(7.3726 0.0229811 0)
(7.37487 0.0226142 0)
(7.37717 0.0222334 0)
(7.37951 0.0218303 0)
(7.38191 0.0213902 0)
(7.38439 0.0208908 0)
(7.38696 0.0203027 0)
(7.33218 -0.00225931 0)
(7.32778 -0.00295178 0)
(7.32388 -0.00130028 0)
(7.32132 0.00171856 0)
(7.3203 0.00560542 0)
(7.32082 0.00951833 0)
(7.32241 0.0129532 0)
(7.32462 0.0158056 0)
(7.32718 0.0181006 0)
(7.32993 0.0198911 0)
(7.33275 0.0212487 0)
(7.33558 0.0222508 0)
(7.33837 0.0229663 0)
(7.3411 0.0234521 0)
(7.34376 0.0237543 0)
(7.34636 0.02391 0)
(7.34889 0.0239486 0)
(7.35136 0.0238935 0)
(7.35377 0.0237631 0)
(7.35613 0.0235721 0)
(7.35844 0.0233322 0)
(7.36072 0.0230526 0)
(7.36296 0.0227408 0)
(7.36518 0.0224025 0)
(7.36738 0.0220417 0)
(7.36957 0.0216611 0)
(7.37177 0.021261 0)
(7.37398 0.0208395 0)
(7.37622 0.0203913 0)
(7.37849 0.0199072 0)
(7.38081 0.0193729 0)
(7.3832 0.0187693 0)
(7.38563 0.0180726 0)
(7.33252 -0.00114759 0)
(7.32957 -0.00135958 0)
(7.32658 4.78649e-05 0)
(7.32445 0.00253673 0)
(7.3235 0.00575077 0)
(7.32378 0.0090729 0)
(7.325 0.0120874 0)
(7.32683 0.0146598 0)
(7.32904 0.016773 0)
(7.33146 0.0184516 0)
(7.334 0.0197455 0)
(7.33658 0.0207142 0)
(7.33915 0.0214142 0)
(7.34169 0.0218948 0)
(7.34419 0.0221971 0)
(7.34664 0.0223548 0)
(7.34904 0.0223955 0)
(7.3514 0.0223411 0)
(7.3537 0.0222092 0)
(7.35597 0.0220139 0)
(7.35819 0.0217662 0)
(7.36039 0.0214748 0)
(7.36256 0.0211466 0)
(7.36471 0.0207865 0)
(7.36685 0.0203977 0)
(7.36898 0.0199817 0)
(7.37112 0.0195379 0)
(7.37327 0.0190633 0)
(7.37544 0.0185522 0)
(7.37764 0.0179953 0)
(7.37988 0.01738 0)
(7.38215 0.0166903 0)
(7.38446 0.0159071 0)
(7.33273 -0.000422061 0)
(7.3308 -0.000194339 0)
(7.32861 0.00111323 0)
(7.32695 0.00323043 0)
(7.32615 0.0059173 0)
(7.32632 0.00873793 0)
(7.32729 0.0113643 0)
(7.32883 0.0136583 0)
(7.33074 0.0155788 0)
(7.33289 0.0171298 0)
(7.33518 0.0183428 0)
(7.33754 0.0192618 0)
(7.33992 0.0199321 0)
(7.34229 0.0203953 0)
(7.34464 0.0206873 0)
(7.34696 0.0208384 0)
(7.34925 0.0208738 0)
(7.3515 0.0208139 0)
(7.35371 0.0206752 0)
(7.35589 0.0204708 0)
(7.35803 0.0202112 0)
(7.36016 0.0199046 0)
(7.36226 0.019557 0)
(7.36435 0.0191727 0)
(7.36642 0.0187542 0)
(7.3685 0.0183023 0)
(7.37057 0.0178157 0)
(7.37266 0.0172911 0)
(7.37476 0.0167225 0)
(7.37688 0.0161017 0)
(7.37902 0.0154177 0)
(7.38119 0.0146573 0)
(7.38338 0.0138061 0)
(7.33285 3.98366e-05 0)
(7.33162 0.000627743 0)
(7.3301 0.00191128 0)
(7.32889 0.00377326 0)
(7.3283 0.00605683 0)
(7.32845 0.00846298 0)
(7.32927 0.010743 0)
(7.33058 0.0127711 0)
(7.33226 0.0144965 0)
(7.33419 0.0159098 0)
(7.33626 0.0170287 0)
(7.33843 0.0178845 0)
(7.34064 0.0185127 0)
(7.34286 0.0189474 0)
(7.34508 0.0192196 0)
(7.34728 0.019356 0)
(7.34946 0.0193793 0)
(7.35161 0.019308 0)
(7.35374 0.0191575 0)
(7.35584 0.01894 0)
(7.35791 0.0186651 0)
(7.35997 0.0183403 0)
(7.36201 0.0179711 0)
(7.36403 0.0175612 0)
(7.36605 0.0171125 0)
(7.36806 0.0166253 0)
(7.37007 0.016098 0)
(7.37209 0.0155271 0)
(7.37412 0.0149072 0)
(7.37616 0.014231 0)
(7.37821 0.0134893 0)
(7.38028 0.0126718 0)
(7.38235 0.0117676 0)
(7.33292 0.000324702 0)
(7.33217 0.00118307 0)
(7.33117 0.00247307 0)
(7.33036 0.00415819 0)
(7.32999 0.0061366 0)
(7.33019 0.00820681 0)
(7.33093 0.0101862 0)
(7.33209 0.0119688 0)
(7.33359 0.0135038 0)
(7.33533 0.0147753 0)
(7.33723 0.0157913 0)
(7.33922 0.0165736 0)
(7.34128 0.0171491 0)
(7.34337 0.0175458 0)
(7.34547 0.0177896 0)
(7.34756 0.0179039 0)
(7.34964 0.0179087 0)
(7.35171 0.0178208 0)
(7.35375 0.0176541 0)
(7.35578 0.0174197 0)
(7.35778 0.0171266 0)
(7.35977 0.0167814 0)
(7.36175 0.0163891 0)
(7.36371 0.0159529 0)
(7.36567 0.0154742 0)
(7.36762 0.014953 0)
(7.36957 0.0143877 0)
(7.37152 0.0137749 0)
(7.37347 0.0131099 0)
(7.37543 0.0123865 0)
(7.37739 0.0115973 0)
(7.37936 0.0107341 0)
(7.38132 0.00978901 0)
(7.33296 0.000492335 0)
(7.33253 0.00153683 0)
(7.33192 0.00283678 0)
(7.33145 0.00439336 0)
(7.33129 0.00613933 0)
(7.33157 0.00793948 0)
(7.33227 0.00966256 0)
(7.33334 0.0112242 0)
(7.33471 0.0125791 0)
(7.3363 0.0137098 0)
(7.33804 0.0146184 0)
(7.3399 0.0153198 0)
(7.34183 0.0158346 0)
(7.34379 0.0161851 0)
(7.34578 0.0163932 0)
(7.34778 0.0164789 0)
(7.34977 0.0164596 0)
(7.35175 0.0163503 0)
(7.35372 0.0161634 0)
(7.35567 0.015909 0)
(7.35761 0.0155952 0)
(7.35954 0.0152279 0)
(7.36146 0.0148116 0)
(7.36336 0.0143489 0)
(7.36525 0.013841 0)
(7.36714 0.0132879 0)
(7.36903 0.0126877 0)
(7.37091 0.0120377 0)
(7.37278 0.0113337 0)
(7.37466 0.0105707 0)
(7.37653 0.0097428 0)
(7.3784 0.00884386 0)
(7.38026 0.00786813 0)
(7.33299 0.000583304 0)
(7.33276 0.00174217 0)
(7.33244 0.00304174 0)
(7.33222 0.00449678 0)
(7.33226 0.00606104 0)
(7.33262 0.0076429 0)
(7.33332 0.00914912 0)
(7.33433 0.010515 0)
(7.3356 0.0117033 0)
(7.33707 0.0126976 0)
(7.3387 0.0134978 0)
(7.34043 0.0141141 0)
(7.34224 0.0145623 0)
(7.3441 0.0148604 0)
(7.34599 0.0150267 0)
(7.3479 0.0150781 0)
(7.34981 0.0150297 0)
(7.35171 0.0148948 0)
(7.35361 0.0146843 0)
(7.3555 0.0144073 0)
(7.35737 0.0140708 0)
(7.35924 0.0136803 0)
(7.36109 0.0132394 0)
(7.36294 0.0127507 0)
(7.36477 0.0122151 0)
(7.3666 0.0116322 0)
(7.36841 0.0110008 0)
(7.37022 0.0103182 0)
(7.37203 0.00958115 0)
(7.37382 0.00878556 0)
(7.37561 0.00792693 0)
(7.37738 0.00700071 0)
(7.37914 0.00600292 0)
(7.333 0.000624816 0)
(7.33291 0.00184111 0)
(7.33279 0.00312479 0)
(7.33276 0.00449155 0)
(7.33294 0.00590769 0)
(7.33338 0.00730972 0)
(7.3341 0.00863152 0)
(7.33507 0.0098248 0)
(7.33627 0.0108605 0)
(7.33765 0.0117254 0)
(7.33917 0.0124186 0)
(7.34081 0.0129479 0)
(7.34252 0.0133256 0)
(7.34428 0.0135668 0)
(7.34608 0.0136863 0)
(7.3479 0.0136989 0)
(7.34973 0.0136174 0)
(7.35156 0.0134534 0)
(7.35339 0.0132164 0)
(7.35522 0.0129145 0)
(7.35703 0.0125539 0)
(7.35884 0.0121393 0)
(7.36063 0.011674 0)
(7.36242 0.01116 0)
(7.36419 0.0105983 0)
(7.36595 0.00998845 0)
(7.3677 0.00932932 0)
(7.36944 0.00861885 0)
(7.37117 0.00785435 0)
(7.37289 0.00703266 0)
(7.37459 0.00615041 0)
(7.37627 0.00520432 0)
(7.37793 0.00419176 0)
(7.333 0.000635017 0)
(7.333 0.00186617 0)
(7.33301 0.00311843 0)
(7.33312 0.00440244 0)
(7.3334 0.00569184 0)
(7.3339 0.00694127 0)
(7.33463 0.00810369 0)
(7.33557 0.00914379 0)
(7.33671 0.0100401 0)
(7.33802 0.0107829 0)
(7.33946 0.011372 0)
(7.341 0.011814 0)
(7.34263 0.0121191 0)
(7.3443 0.0122999 0)
(7.34602 0.0123692 0)
(7.34776 0.0123392 0)
(7.34952 0.0122212 0)
(7.35129 0.0120252 0)
(7.35305 0.0117594 0)
(7.35481 0.0114309 0)
(7.35656 0.0110451 0)
(7.35831 0.0106061 0)
(7.36004 0.0101167 0)
(7.36177 0.00957871 0)
(7.36348 0.00899281 0)
(7.36518 0.0083588 0)
(7.36686 0.00767569 0)
(7.36854 0.00694185 0)
(7.37019 0.0061552 0)
(7.37183 0.00531333 0)
(7.37345 0.00441381 0)
(7.37505 0.00345436 0)
(7.37661 0.00243335 0)
(7.33301 0.00062607 0)
(7.33305 0.00184235 0)
(7.33314 0.00305051 0)
(7.33333 0.0042537 0)
(7.33368 0.0054298 0)
(7.33421 0.00654534 0)
(7.33494 0.00756672 0)
(7.33586 0.00846881 0)
(7.33695 0.00923661 0)
(7.33819 0.0098641 0)
(7.33955 0.0103524 0)
(7.34101 0.0107076 0)
(7.34256 0.0109389 0)
(7.34415 0.0110571 0)
(7.3458 0.0110732 0)
(7.34746 0.0109978 0)
(7.34915 0.0108407 0)
(7.35085 0.0106102 0)
(7.35255 0.0103138 0)
(7.35425 0.00995741 0)
(7.35594 0.00954568 0)
(7.35763 0.00908218 0)
(7.3593 0.00856935 0)
(7.36097 0.00800867 0)
(7.36262 0.00740075 0)
(7.36425 0.00674543 0)
(7.36587 0.00604197 0)
(7.36747 0.00528909 0)
(7.36906 0.00448521 0)
(7.37062 0.00362859 0)
(7.37216 0.0027175 0)
(7.37367 0.00175043 0)
(7.37516 0.000726514 0)
(7.33301 0.000606302 0)
(7.33307 0.001789 0)
(7.33321 0.00294469 0)
(7.33344 0.00406824 0)
(7.33382 0.00513986 0)
(7.33435 0.00613419 0)
(7.33506 0.00702746 0)
(7.33594 0.00780256 0)
(7.33698 0.00845018 0)
(7.33815 0.0089677 0)
(7.33944 0.00935782 0)
(7.34083 0.00962691 0)
(7.34229 0.00978358 0)
(7.34382 0.0098374 0)
(7.34538 0.00979807 0)
(7.34698 0.00967485 0)
(7.3486 0.00947616 0)
(7.35023 0.00920936 0)
(7.35187 0.0088807 0)
(7.35351 0.00849529 0)
(7.35514 0.00805716 0)
(7.35676 0.0075693 0)
(7.35838 0.00703379 0)
(7.35998 0.00645188 0)
(7.36157 0.00582407 0)
(7.36314 0.00515028 0)
(7.3647 0.00442992 0)
(7.36623 0.00366204 0)
(7.36775 0.0028455 0)
(7.36924 0.00197903 0)
(7.3707 0.00106147 0)
(7.37213 9.19022e-05 0)
(7.37354 -0.000930017 0)
(7.33301 0.0005817 0)
(7.33308 0.00172167 0)
(7.33322 0.00282153 0)
(7.33346 0.00386764 0)
(7.33383 0.00484137 0)
(7.33435 0.00572331 0)
(7.33502 0.00649727 0)
(7.33584 0.00715291 0)
(7.33681 0.00768589 0)
(7.33792 0.00809693 0)
(7.33913 0.00839048 0)
(7.34044 0.00857351 0)
(7.34182 0.00865441 0)
(7.34327 0.00864203 0)
(7.34476 0.00854508 0)
(7.34629 0.00837174 0)
(7.34784 0.00812935 0)
(7.3494 0.00782427 0)
(7.35098 0.00746185 0)
(7.35255 0.00704644 0)
(7.35413 0.00658144 0)
(7.35569 0.00606936 0)
(7.35725 0.00551193 0)
(7.35879 0.00491016 0)
(7.36032 0.00426448 0)
(7.36183 0.00357483 0)
(7.36332 0.00284078 0)
(7.36479 0.00206161 0)
(7.36624 0.00123651 0)
(7.36766 0.000364593 0)
(7.36905 -0.000554881 0)
(7.37041 -0.00152241 0)
(7.37173 -0.00253797 0)
(7.33301 0.000556985 0)
(7.33307 0.00165375 0)
(7.3332 0.0026999 0)
(7.33341 0.003673 0)
(7.33374 0.00455486 0)
(7.3342 0.00533092 0)
(7.33481 0.00599147 0)
(7.33556 0.00653221 0)
(7.33645 0.00695357 0)
(7.33747 0.00725956 0)
(7.3386 0.00745658 0)
(7.33983 0.0075525 0)
(7.34113 0.00755576 0)
(7.34249 0.00747481 0)
(7.34391 0.00731765 0)
(7.34536 0.00709159 0)
(7.34684 0.00680306 0)
(7.34834 0.00645757 0)
(7.34985 0.00605969 0)
(7.35136 0.00561306 0)
(7.35288 0.00512053 0)
(7.35438 0.00458415 0)
(7.35588 0.00400531 0)
(7.35737 0.00338482 0)
(7.35883 0.00272301 0)
(7.36029 0.00201981 0)
(7.36172 0.00127489 0)
(7.36312 0.000487718 0)
(7.3645 -0.000342315 0)
(7.36586 -0.00121579 0)
(7.36718 -0.00213316 0)
(7.36847 -0.00309464 0)
(7.36972 -0.00409995 0)
(7.33301 0.000536443 0)
(7.33305 0.00159813 0)
(7.33313 0.0025988 0)
(7.33329 0.00350642 0)
(7.33354 0.00430297 0)
(7.33392 0.00497844 0)
(7.33443 0.00552928 0)
(7.33509 0.00595718 0)
(7.33588 0.00626747 0)
(7.3368 0.00646762 0)
(7.33783 0.00656625 0)
(7.33896 0.00657236 0)
(7.34018 0.00649478 0)
(7.34146 0.00634177 0)
(7.34279 0.00612086 0)
(7.34417 0.00583867 0)
(7.34558 0.00550089 0)
(7.34701 0.00511226 0)
(7.34845 0.00467665 0)
(7.3499 0.00419711 0)
(7.35136 0.00367592 0)
(7.35281 0.00311472 0)
(7.35425 0.00251459 0)
(7.35568 0.00187611 0)
(7.35709 0.00119948 0)
(7.35848 0.000484595 0)
(7.35986 -0.000268835 0)
(7.36121 -0.00106124 0)
(7.36253 -0.00189307 0)
(7.36382 -0.00276474 0)
(7.36508 -0.00367651 0)
(7.36631 -0.00462841 0)
(7.3675 -0.00562003 0)
(7.333 0.000524704 0)
(7.33301 0.00156908 0)
(7.33303 0.00253965 0)
(7.33309 0.00339326 0)
(7.33323 0.00411226 0)
(7.33348 0.00469171 0)
(7.33387 0.00513465 0)
(7.3344 0.00544928 0)
(7.33507 0.00564632 0)
(7.33587 0.00573719 0)
(7.33679 0.00573307 0)
(7.33781 0.00564445 0)
(7.33893 0.0054808 0)
(7.34012 0.0052505 0)
(7.34137 0.00496076 0)
(7.34266 0.0046177 0)
(7.344 0.00422635 0)
(7.34536 0.00379082 0)
(7.34674 0.00331433 0)
(7.34814 0.00279935 0)
(7.34953 0.00224767 0)
(7.35093 0.0016605 0)
(7.35232 0.00103859 0)
(7.35369 0.000382266 0)
(7.35506 -0.00030842 0)
(7.3564 -0.00103365 0)
(7.35772 -0.00179376 0)
(7.35902 -0.00258913 0)
(7.36029 -0.00342015 0)
(7.36153 -0.00428715 0)
(7.36274 -0.0051903 0)
(7.36391 -0.00612953 0)
(7.36504 -0.00710439 0)
(7.333 0.000527671 0)
(7.33296 0.00158476 0)
(7.33286 0.00254957 0)
(7.33278 0.00336546 0)
(7.33276 0.00401614 0)
(7.33285 0.00450324 0)
(7.33308 0.00483769 0)
(7.33344 0.00503542 0)
(7.33396 0.00511351 0)
(7.33462 0.00508805 0)
(7.33541 0.00497338 0)
(7.33631 0.00478191 0)
(7.33732 0.00452413 0)
(7.33841 0.00420875 0)
(7.33957 0.00384287 0)
(7.34079 0.00343222 0)
(7.34206 0.00298133 0)
(7.34336 0.00249368 0)
(7.34468 0.00197192 0)
(7.34602 0.00141792 0)
(7.34737 0.000832979 0)
(7.34872 0.000217866 0)
(7.35006 -0.000427045 0)
(7.35139 -0.00110169 0)
(7.35272 -0.00180626 0)
(7.35402 -0.00254106 0)
(7.3553 -0.00330653 0)
(7.35655 -0.0041031 0)
(7.35778 -0.00493118 0)
(7.35898 -0.00579108 0)
(7.36014 -0.00668297 0)
(7.36127 -0.0076068 0)
(7.36235 -0.00856211 0)
(7.333 0.000553946 0)
(7.33287 0.00167098 0)
(7.33262 0.0026662 0)
(7.33233 0.00346631 0)
(7.33209 0.00405901 0)
(7.33196 0.00445536 0)
(7.33196 0.00467671 0)
(7.33213 0.00474888 0)
(7.33246 0.00469694 0)
(7.33296 0.00454278 0)
(7.3336 0.00430475 0)
(7.33437 0.00399778 0)
(7.33527 0.00363376 0)
(7.33626 0.00322199 0)
(7.33734 0.00276966 0)
(7.33849 0.00228219 0)
(7.33969 0.00176363 0)
(7.34094 0.00121689 0)
(7.34221 0.000643971 0)
(7.34351 4.61603e-05 0)
(7.34482 -0.00057582 0)
(7.34613 -0.00122169 0)
(7.34744 -0.00189152 0)
(7.34875 -0.00258559 0)
(7.35004 -0.00330437 0)
(7.35131 -0.00404843 0)
(7.35257 -0.00481835 0)
(7.35379 -0.00561472 0)
(7.35499 -0.00643803 0)
(7.35615 -0.00728871 0)
(7.35729 -0.00816697 0)
(7.35838 -0.00907285 0)
(7.35943 -0.010006 0)
(7.33299 0.000617367 0)
(7.33274 0.00186765 0)
(7.33225 0.00294536 0)
(7.33167 0.00375768 0)
(7.33112 0.00430208 0)
(7.33069 0.00460419 0)
(7.33041 0.00470021 0)
(7.33033 0.00462951 0)
(7.33045 0.00442777 0)
(7.33075 0.00412442 0)
(7.33124 0.0037429 0)
(7.33188 0.00330139 0)
(7.33267 0.0028136 0)
(7.33357 0.00228965 0)
(7.33458 0.00173685 0)
(7.33567 0.00116035 0)
(7.33683 0.000563645 0)
(7.33804 -5.10495e-05 0)
(7.33928 -0.000682457 0)
(7.34056 -0.00133001 0)
(7.34185 -0.00199367 0)
(7.34315 -0.00267378 0)
(7.34444 -0.00337092 0)
(7.34574 -0.00408588 0)
(7.34702 -0.00481951 0)
(7.34828 -0.00557271 0)
(7.34952 -0.00634634 0)
(7.35073 -0.00714121 0)
(7.35192 -0.00795804 0)
(7.35307 -0.00879739 0)
(7.35418 -0.00965966 0)
(7.35526 -0.010545 0)
(7.3563 -0.0114533 0)
(7.33297 0.000741866 0)
(7.33253 0.00223996 0)
(7.33168 0.00347348 0)
(7.33067 0.00433072 0)
(7.32969 0.00483098 0)
(7.32885 0.00502364 0)
(7.32823 0.0049675 0)
(7.32785 0.00472174 0)
(7.32772 0.00433656 0)
(7.32783 0.00385128 0)
(7.32816 0.00329583 0)
(7.32869 0.00269233 0)
(7.32938 0.00205656 0)
(7.33023 0.00139943 0)
(7.33119 0.000728201 0)
(7.33225 4.75024e-05 0)
(7.33339 -0.000640001 0)
(7.33459 -0.00133303 0)
(7.33584 -0.00203129 0)
(7.33712 -0.00273518 0)
(7.33842 -0.00344553 0)
(7.33973 -0.0041635 0)
(7.34104 -0.00489039 0)
(7.34234 -0.00562761 0)
(7.34364 -0.00637653 0)
(7.34491 -0.00713853 0)
(7.34616 -0.00791487 0)
(7.34738 -0.00870669 0)
(7.34858 -0.009515 0)
(7.34973 -0.0103406 0)
(7.35085 -0.0111842 0)
(7.35193 -0.0120461 0)
(7.35297 -0.0129265 0)
(7.33295 0.00097151 0)
(7.33217 0.00289853 0)
(7.33075 0.00438706 0)
(7.32911 0.00532043 0)
(7.32754 0.00576404 0)
(7.32618 0.00580721 0)
(7.32513 0.00554532 0)
(7.32442 0.00506755 0)
(7.32403 0.00444422 0)
(7.32396 0.00372722 0)
(7.32417 0.00295417 0)
(7.32461 0.00215134 0)
(7.32527 0.00133622 0)
(7.32609 0.000519871 0)
(7.32706 -0.000291112 0)
(7.32814 -0.0010933 0)
(7.32931 -0.00188543 0)
(7.33055 -0.00266769 0)
(7.33184 -0.00344121 0)
(7.33316 -0.0042077 0)
(7.33451 -0.00496924 0)
(7.33586 -0.00572802 0)
(7.33722 -0.00648632 0)
(7.33857 -0.00724634 0)
(7.33991 -0.00801019 0)
(7.34122 -0.00877983 0)
(7.34251 -0.00955706 0)
(7.34377 -0.0103435 0)
(7.34499 -0.0111405 0)
(7.34618 -0.0119492 0)
(7.34732 -0.0127707 0)
(7.34843 -0.0136056 0)
(7.34948 -0.0144542 0)
(7.3329 0.00139432 0)
(7.33153 0.00403839 0)
(7.32919 0.00590279 0)
(7.32662 0.00692175 0)
(7.32425 0.00725538 0)
(7.32225 0.0070609 0)
(7.32072 0.00649429 0)
(7.31967 0.00569025 0)
(7.31907 0.00474551 0)
(7.31887 0.00372623 0)
(7.31902 0.00267749 0)
(7.31947 0.00162852 0)
(7.32015 0.00059683 0)
(7.32103 -0.000407954 0)
(7.32208 -0.00138141 0)
(7.32324 -0.0023225 0)
(7.32451 -0.00323237 0)
(7.32585 -0.00411348 0)
(7.32724 -0.00496903 0)
(7.32866 -0.0058026 0)
(7.33011 -0.00661788 0)
(7.33156 -0.00741851 0)
(7.33301 -0.00820796 0)
(7.33444 -0.0089895 0)
(7.33586 -0.00976614 0)
(7.33725 -0.0105406 0)
(7.33861 -0.0113153 0)
(7.33994 -0.0120925 0)
(7.34123 -0.0128741 0)
(7.34247 -0.0136616 0)
(7.34367 -0.0144564 0)
(7.34482 -0.0152595 0)
(7.34592 -0.0160717 0)
(7.33278 0.00219757 0)
(7.33032 0.00602159 0)
(7.32651 0.00837289 0)
(7.32261 0.00940805 0)
(7.3192 0.00948326 0)
(7.31647 0.00887316 0)
(7.31446 0.00783228 0)
(7.31316 0.0065587 0)
(7.31245 0.00517759 0)
(7.31225 0.00376634 0)
(7.31247 0.00237346 0)
(7.31303 0.00102688 0)
(7.31387 -0.000259651 0)
(7.31492 -0.00148108 0)
(7.31614 -0.0026375 0)
(7.3175 -0.00373205 0)
(7.31895 -0.00476962 0)
(7.32046 -0.00575598 0)
(7.32203 -0.00669718 0)
(7.32363 -0.00759923 0)
(7.32523 -0.0084679 0)
(7.32684 -0.00930859 0)
(7.32844 -0.0101263 0)
(7.33001 -0.0109255 0)
(7.33156 -0.0117104 0)
(7.33308 -0.0124845 0)
(7.33455 -0.0132511 0)
(7.33599 -0.014013 0)
(7.33737 -0.0147727 0)
(7.33871 -0.0155324 0)
(7.34 -0.0162938 0)
(7.34123 -0.0170583 0)
(7.34241 -0.0178271 0)
(7.33249 0.00374245 0)
(7.32795 0.00949584 0)
(7.32175 0.0123786 0)
(7.31603 0.0131822 0)
(7.31142 0.0126556 0)
(7.30798 0.0112897 0)
(7.30566 0.00949872 0)
(7.3043 0.00755287 0)
(7.3037 0.0055909 0)
(7.30372 0.00368681 0)
(7.30421 0.00188141 0)
(7.30508 0.000192315 0)
(7.30624 -0.00137755 0)
(7.30762 -0.00283268 0)
(7.30917 -0.00418109 0)
(7.31084 -0.00543251 0)
(7.31259 -0.00659732 0)
(7.31441 -0.00768579 0)
(7.31625 -0.00870771 0)
(7.31811 -0.00967213 0)
(7.31997 -0.0105873 0)
(7.32182 -0.0114608 0)
(7.32364 -0.0122993 0)
(7.32542 -0.0131087 0)
(7.32717 -0.0138942 0)
(7.32887 -0.0146606 0)
(7.33052 -0.0154118 0)
(7.33211 -0.0161514 0)
(7.33365 -0.0168825 0)
(7.33513 -0.0176076 0)
(7.33655 -0.0183291 0)
(7.33791 -0.0190488 0)
(7.3392 -0.0197681 0)
(7.33193 0.0066421 0)
(7.32329 0.0152971 0)
(7.31325 0.0184887 0)
(7.30522 0.018576 0)
(7.29944 0.016883 0)
(7.29558 0.0142372 0)
(7.29334 0.0113049 0)
(7.29233 0.00841785 0)
(7.29223 0.00568659 0)
(7.2928 0.00315575 0)
(7.29388 0.000844391 0)
(7.29534 -0.00125031 0)
(7.29708 -0.00314442 0)
(7.29902 -0.00485766 0)
(7.30111 -0.00640984 0)
(7.30329 -0.00782009 0)
(7.30553 -0.00910648 0)
(7.3078 -0.0102855 0)
(7.31008 -0.0113721 0)
(7.31235 -0.0123794 0)
(7.31459 -0.0133192 0)
(7.31679 -0.0142016 0)
(7.31895 -0.0150356 0)
(7.32105 -0.0158291 0)
(7.32309 -0.0165889 0)
(7.32507 -0.0173209 0)
(7.32697 -0.0180302 0)
(7.32881 -0.0187212 0)
(7.33058 -0.0193978 0)
(7.33227 -0.0200633 0)
(7.33389 -0.0207205 0)
(7.33543 -0.021372 0)
(7.3369 -0.0220197 0)
(7.33069 0.0134368 0)
(7.31368 0.0252124 0)
(7.29797 0.0267204 0)
(7.28753 0.0249999 0)
(7.28098 0.0216529 0)
(7.27735 0.0175211 0)
(7.27593 0.0134373 0)
(7.27598 0.00969319 0)
(7.27699 0.00628986 0)
(7.27868 0.00320812 0)
(7.28088 0.00043597 0)
(7.28341 -0.00204944 0)
(7.28618 -0.00427867 0)
(7.2891 -0.00628118 0)
(7.29211 -0.00808318 0)
(7.29516 -0.00970866 0)
(7.29821 -0.0111797 0)
(7.30124 -0.0125161 0)
(7.30423 -0.0137356 0)
(7.30716 -0.0148537 0)
(7.31002 -0.0158842 0)
(7.3128 -0.0168392 0)
(7.3155 -0.0177293 0)
(7.3181 -0.0185638 0)
(7.32061 -0.0193508 0)
(7.32303 -0.0200972 0)
(7.32535 -0.0208093 0)
(7.32757 -0.0214924 0)
(7.3297 -0.0221511 0)
(7.33172 -0.0227893 0)
(7.33365 -0.0234104 0)
(7.33549 -0.024017 0)
(7.33723 -0.0246111 0)
(7.32456 0.0347144 0)
(7.28958 0.0467087 0)
(7.26765 0.0370876 0)
(7.25765 0.0262625 0)
(7.25264 0.0167285 0)
(7.25096 0.00874899 0)
(7.25187 0.0025027 0)
(7.25427 -0.00234431 0)
(7.2575 -0.00618678 0)
(7.26132 -0.00926169 0)
(7.26555 -0.0117381 0)
(7.27003 -0.0137564 0)
(7.27464 -0.0154269 0)
(7.27929 -0.0168287 0)
(7.28393 -0.0180194 0)
(7.28851 -0.0190434 0)
(7.293 -0.0199352 0)
(7.29737 -0.020722 0)
(7.30161 -0.0214252 0)
(7.30571 -0.0220614 0)
(7.30965 -0.0226441 0)
(7.31345 -0.0231842 0)
(7.31708 -0.0236901 0)
(7.32056 -0.0241689 0)
(7.32389 -0.0246264 0)
(7.32707 -0.0250671 0)
(7.33009 -0.025495 0)
(7.33297 -0.0259131 0)
(7.3357 -0.0263243 0)
(7.33829 -0.0267309 0)
(7.34075 -0.0271351 0)
(7.34308 -0.0275392 0)
(7.34528 -0.027946 0)
(7.29575 0.0823973 0)
(7.21822 0.12721 0)
(7.1868 0.128811 0)
(7.18645 0.114381 0)
(7.19338 0.094788 0)
(7.20248 0.0767483 0)
(7.21296 0.0615397 0)
(7.22375 0.0483336 0)
(7.23444 0.0367069 0)
(7.24497 0.0265704 0)
(7.25523 0.0178456 0)
(7.26511 0.0103779 0)
(7.27453 0.00399975 0)
(7.2835 -0.00143744 0)
(7.29199 -0.00606559 0)
(7.30002 -0.0100039 0)
(7.30761 -0.0133577 0)
(7.31476 -0.0162176 0)
(7.32149 -0.0186607 0)
(7.32784 -0.0207522 0)
(7.3338 -0.0225475 0)
(7.33941 -0.0240931 0)
(7.34468 -0.0254283 0)
(7.34964 -0.0265863 0)
(7.35429 -0.027595 0)
(7.35865 -0.0284778 0)
(7.36274 -0.0292546 0)
(7.36657 -0.0299421 0)
(7.37015 -0.0305543 0)
(7.37351 -0.0311028 0)
(7.37663 -0.0315976 0)
(7.37955 -0.0320459 0)
(7.38225 -0.0324563 0)
(7.32909 -0.158987 0)
(7.19612 -0.292897 0)
(7.13085 -0.292309 0)
(7.10899 -0.259646 0)
(7.10972 -0.226678 0)
(7.13037 -0.19575 0)
(7.16108 -0.16784 0)
(7.19444 -0.144107 0)
(7.22758 -0.124638 0)
(7.25932 -0.10876 0)
(7.28885 -0.0957824 0)
(7.31577 -0.0851832 0)
(7.34004 -0.0765417 0)
(7.36178 -0.0694924 0)
(7.38118 -0.0637283 0)
(7.39843 -0.0590024 0)
(7.41373 -0.0551176 0)
(7.42728 -0.0519158 0)
(7.43924 -0.0492694 0)
(7.44979 -0.0470757 0)
(7.45908 -0.0452522 0)
(7.46723 -0.0437326 0)
(7.47437 -0.0424632 0)
(7.48061 -0.0414007 0)
(7.48602 -0.0405099 0)
(7.49071 -0.0397621 0)
(7.49474 -0.0391341 0)
(7.49818 -0.0386068 0)
(7.50108 -0.0381645 0)
(7.50351 -0.0377942 0)
(7.50552 -0.0374846 0)
(7.50713 -0.037227 0)
(7.50842 -0.0370093 0)
(7.33045 1.21807 0)
(7.6376 1.24116 0)
(7.81729 0.934087 0)
(7.87343 0.662121 0)
(7.88532 0.46234 0)
(7.87663 0.320594 0)
(7.85216 0.2201 0)
(7.81688 0.14806 0)
(7.77613 0.0958162 0)
(7.7334 0.0576493 0)
(7.69027 0.0296419 0)
(7.64754 0.00901895 0)
(7.60573 -0.0061977 0)
(7.5652 -0.017419 0)
(7.52611 -0.0256618 0)
(7.48852 -0.03167 0)
(7.45244 -0.0359941 0)