/*--------------------------------*- C++ -*----------------------------------*\
  =========                 |
  \\      /  F ield         | OpenFOAM: The Open Source CFD Toolbox
   \\    /   O peration     | Website:  https://openfoam.org
    \\  /    A nd           | Version:  10
     \\/     M anipulation  |
\*---------------------------------------------------------------------------*/
FoamFile
{
    format      ascii;
    class       volScalarField;
    location    "600";
    object      yPlus;
}
// * * * * * * * * * * * * * * * * * * * * * * * * * * * * * * * * * * * * * //

dimensions      [0 0 0 0 0 0 0];

internalField   uniform 0;

boundaryField
{
    outlet
    {
        type            calculated;
        value           uniform 0;
    }
    inlet
    {
        type            calculated;
        value           uniform 0;
    }
    lowerWall
    {
        type            calculated;
        value           nonuniform List<scalar> 
148
(
12.7112
17.6462
20.7196
22.3203
23.0458
23.2746
23.2254
23.0255
22.751
22.4469
22.1389
21.8405
21.5587
21.2963
21.0539
20.8309
20.6261
20.438
20.2651
20.106
19.9593
19.8238
19.6983
19.5819
19.4736
19.3728
19.2785
19.1903
19.1073
19.0301
18.9507
18.9098
18.7191
0.405936
2.17384
3.90642
5.22699
6.32661
7.25688
8.14879
9.05239
9.95332
10.9306
10.9328
11.0057
11.2945
10.3978
5.68554
0.405936
3.38393
5.02269
5.81767
6.03297
5.93038
5.6579
5.2816
4.73718
4.0771
6.12528
1.1165
9.28996
12.6344
17.6378
21.4302
24.5907
27.3401
29.7857
31.9863
33.9768
35.7809
37.4173
38.9035
40.2583
41.4996
42.6461
43.7139
44.7179
45.6705
46.5813
47.4582
48.307
49.1323
49.9381
50.7285
51.5083
52.284
53.0608
53.8287
54.5877
55.3396
56.0839
56.8198
57.5457
58.2601
58.9616
59.6482
60.3183
60.97
61.6014
62.2106
62.7953
63.3535
63.8827
64.3803
64.8439
65.2706
65.6584
66.005
66.3088
66.5682
66.7819
66.9481
67.0666
67.1361
67.156
67.1253
67.0404
66.9106
66.7854
66.6394
66.4394
66.1953
65.9117
65.594
65.2477
64.8776
64.4883
64.0841
63.6687
63.2465
62.8213
62.3968
61.976
61.5616
61.156
60.7612
60.3786
60.0088
59.65
59.3004
58.9527
58.6034
58.2401
57.8627
57.4633
57.0394
56.6653
56.0987
)
;
    }
    upperWall
    {
        type            calculated;
        value           nonuniform List<scalar> 
133
(
31.2591
34.0073
36.6584
39.0132
41.0752
42.889
44.4881
45.8973
47.1377
48.2283
49.1859
50.0256
50.7608
51.4035
51.9642
52.4524
52.8766
53.2442
53.5619
53.8354
54.0699
54.2701
54.4399
54.583
54.7025
54.8011
54.8814
54.9454
54.9953
55.0325
55.0587
55.0752
55.0833
55.0826
55.071
55.0485
55.0155
54.9725
54.9202
54.8589
54.7893
54.7117
54.6266
54.5344
54.4354
54.3301
54.2186
54.1012
53.9783
53.8499
53.7163
53.5775
53.4337
53.285
53.1313
52.9727
52.8091
52.6405
52.4668
52.2878
52.1034
51.9134
51.7177
51.516
51.308
51.0935
50.8723
50.644
50.4084
50.1651
49.9139
49.6545
49.3867
49.11
48.8244
48.5295
48.2253
47.9115
47.5881
47.255
46.9122
46.5598
46.198
45.8269
45.4471
45.0588
44.6626
44.2592
43.8493
43.4339
43.0141
42.5908
42.1655
41.7397
41.3146
40.8922
40.474
40.0619
39.6577
39.2633
38.8804
38.5111
38.1569
37.8194
37.5001
37.2001
36.9205
36.6619
36.4248
36.2094
36.0155
35.8428
35.6905
35.5578
35.4436
35.3465
35.2654
35.1981
35.1443
35.1021
35.0695
35.0442
35.0247
35.0096
34.9982
34.9894
34.9831
34.9783
34.9752
34.973
34.9702
34.9713
34.9638
)
;
    }
    frontAndBack
    {
        type            empty;
    }
}


// ************************************************************************* //
